# vtk DataFile Version 2.0
Comment goes here
ASCII

DATASET STRUCTURED_POINTS
FIELD FieldData 1
TIME 1 1 double
0.23500000
DIMENSIONS    128   128   1

ORIGIN    0.000   0.000   0.000
SPACING   0.039062 0.039062   1.000

POINT_DATA   16384
SCALARS Omega double
LOOKUP_TABLE default

2.462481e-15 7.053972e-15 7.462055e-15 1.656668e-14 1.373672e-14 1.557773e-14 2.344990e-14 2.689071e-14 1.792637e-14 1.139208e-14 1.476764e-14 8.171329e-15 -2.601462e-15 -1.358378e-15 -1.557461e-14 -1.883835e-14 2.187733e-14 8.569675e-15 -2.238090e-15 -2.459733e-14 -2.510594e-14 -6.619783e-15 -6.004687e-15 -2.569618e-14 9.229945e-15 3.636845e-15 -1.144486e-14 -2.862985e-14 -2.447577e-14 1.341486e-14 1.645743e-14 -2.152973e-14 -9.110921e-15 -5.019380e-14 -8.413738e-14 -6.719721e-14 -5.119076e-14 -7.797834e-16 -2.370968e-14 -1.716188e-14 -4.026865e-14 -3.840749e-14 -2.251409e-14 -3.071684e-14 -8.201607e-15 -1.203123e-14 3.326487e-15 9.789062e-16 -7.920237e-15 -9.351998e-15 -1.605355e-14 -6.678239e-15 -2.252076e-14 -2.359071e-15 7.116185e-15 1.510835e-14 2.255805e-14 2.266690e-14 2.763498e-14 1.457254e-14 2.446934e-14 3.478639e-14 2.773245e-14 1.829986e-14 -3.897933e-15 4.353683e-14 -1.814065e-14 2.139075e-14 1.239127e-14 4.445760e-14 -1.085214e-14 -3.633856e-14 2.488799e-14 -1.273080e-15 -8.896442e-15 1.162685e-14 3.170495e-14 -8.306908e-15 1.161135e-14 -6.182751e-15 3.359538e-15 -1.097674e-14 9.968102e-15 7.293186e-15 7.712280e-14 3.432469e-14 -1.997105e-15 -2.690634e-14 1.875701e-14 2.893251e-14 3.210560e-14 2.955280e-14 3.596563e-14 2.556474e-14 -1.006445e-14 -4.080735e-14 2.667138e-14 -1.949656e-14 2.119147e-14 5.114535e-14 2.840862e-14 6.572399e-15 3.177957e-14 1.688857e-14 6.079984e-15 4.947451e-15 -4.174304e-15 -5.787735e-15 -1.820327e-14 -1.564821e-14 -1.415234e-14 -2.081457e-14 -2.043801e-14 -2.552270e-14 -2.673543e-14 -1.767052e-14 -1.516977e-14 -1.965288e-14 -1.811167e-15 -1.389215e-15 1.573743e-14 1.248016e-14 9.704527e-15 3.878693e-15 -1.725664e-15 -1.165987e-15 5.808076e-15 -1.742940e-15 
8.611895e-06 8.340814e-06 8.024295e-06 7.810946e-06 7.560421e-06 7.394204e-06 7.196823e-06 7.066073e-06 6.908935e-06 6.801720e-06 6.672605e-06 6.577513e-06 6.465511e-06 6.372397e-06 6.268441e-06 6.169089e-06 6.066406e-06 5.955132e-06 5.849649e-06 5.723862e-06 5.614637e-06 5.475414e-06 5.365152e-06 5.217901e-06 5.113606e-06 4.968841e-06 4.882580e-06 4.756763e-06 4.706437e-06 4.622684e-06 4.632508e-06 4.620785e-06 4.721050e-06 4.817325e-06 5.042912e-06 5.286699e-06 5.673849e-06 6.103780e-06 6.685004e-06 7.332562e-06 8.130105e-06 9.012362e-06 1.003140e-05 1.114436e-05 1.236769e-05 1.368216e-05 1.506818e-05 1.652998e-05 1.801537e-05 1.955058e-05 2.105776e-05 2.258266e-05 2.403091e-05 2.546457e-05 2.678250e-05 2.805931e-05 2.919581e-05 3.027512e-05 3.120649e-05 3.207725e-05 3.280879e-05 3.348838e-05 3.405061e-05 3.457837e-05 3.501887e-05 3.544618e-05 3.581908e-05 3.619832e-05 3.655377e-05 3.692827e-05 3.730371e-05 3.770059e-05 3.811520e-05 3.854183e-05 3.899441e-05 3.943855e-05 3.990876e-05 4.034184e-05 4.079408e-05 4.117660e-05 4.156561e-05 4.185385e-05 4.213133e-05 4.228414e-05 4.240541e-05 4.239047e-05 4.232047e-05 4.211893e-05 4.183675e-05 4.144574e-05 4.094690e-05 4.037945e-05 3.967573e-05 3.895802e-05 3.807465e-05 3.724126e-05 3.621237e-05 3.530050e-05 3.416381e-05 3.320794e-05 3.199997e-05 3.102815e-05 2.978107e-05 2.881344e-05 2.755384e-05 2.660343e-05 2.535279e-05 2.442767e-05 2.320379e-05 2.230978e-05 2.112830e-05 2.027107e-05 1.914644e-05 1.833272e-05 1.727840e-05 1.651605e-05 1.554405e-05 1.484133e-05 1.396138e-05 1.332589e-05 1.254461e-05 1.198211e-05 1.130248e-05 1.081607e-05 1.023715e-05 9.826798e-06 9.343986e-06 9.006406e-06 
1.727218e-05 1.672950e-05 1.609688e-05 1.567202e-05 1.517352e-05 1.484447e-05 1.445355e-05 1.419599e-05 1.388585e-05 1.367477e-05 1.341986e-05 1.323118e-05 1.300856e-05 1.282081e-05 1.261131e-05 1.240710e-05 1.219640e-05 1.196375e-05 1.174334e-05 1.147699e-05 1.124514e-05 1.094779e-05 1.071060e-05 1.039417e-05 1.016688e-05 9.853978e-06 9.662324e-06 9.387774e-06 9.269370e-06 9.081353e-06 9.086450e-06 9.046715e-06 9.237561e-06 9.419574e-06 9.867305e-06 1.035124e-05 1.112937e-05 1.199321e-05 1.316737e-05 1.447432e-05 1.608913e-05 1.787306e-05 1.993845e-05 2.219050e-05 2.467099e-05 2.733137e-05 3.014215e-05 3.310057e-05 3.611291e-05 3.921945e-05 4.227593e-05 4.536113e-05 4.829822e-05 5.119860e-05 5.387186e-05 5.645526e-05 5.876157e-05 6.094654e-05 6.283826e-05 6.460324e-05 6.609142e-05 6.747211e-05 6.861864e-05 6.969481e-05 7.059579e-05 7.147115e-05 7.223567e-05 7.301542e-05 7.374428e-05 7.451505e-05 7.528327e-05 7.609877e-05 7.694446e-05 7.781852e-05 7.873883e-05 7.964593e-05 8.059964e-05 8.148159e-05 8.239692e-05 8.317392e-05 8.395985e-05 8.454382e-05 8.510333e-05 8.541166e-05 8.565505e-05 8.562300e-05 8.547994e-05 8.506998e-05 8.449854e-05 8.370534e-05 8.269672e-05 8.154696e-05 8.012497e-05 7.867180e-05 7.688741e-05 7.520077e-05 7.312278e-05 7.127773e-05 6.898204e-05 6.704800e-05 6.460798e-05 6.264118e-05 6.012135e-05 5.816207e-05 5.561573e-05 5.368995e-05 5.116030e-05 4.928429e-05 4.680738e-05 4.499310e-05 4.260089e-05 4.086033e-05 3.858262e-05 3.693003e-05 3.479467e-05 3.324661e-05 3.127849e-05 2.985228e-05 2.807152e-05 2.678291e-05 2.520322e-05 2.406411e-05 2.269158e-05 2.170832e-05 2.054110e-05 1.971355e-05 1.874223e-05 1.806359e-05 
2.573873e-05 2.488000e-05 2.388329e-05 2.320402e-05 2.241193e-05 2.187983e-05 2.125337e-05 2.083295e-05 2.033304e-05 1.998800e-05 1.957762e-05 1.927328e-05 1.891939e-05 1.862491e-05 1.830008e-05 1.799057e-05 1.767430e-05 1.733261e-05 1.701258e-05 1.663096e-05 1.630427e-05 1.588602e-05 1.556068e-05 1.512206e-05 1.481885e-05 1.439127e-05 1.414602e-05 1.377857e-05 1.364452e-05 1.340616e-05 1.345555e-05 1.343596e-05 1.375967e-05 1.406710e-05 1.477047e-05 1.552467e-05 1.671814e-05 1.803727e-05 1.982101e-05 2.180254e-05 2.424642e-05 2.694471e-05 3.006706e-05 3.347244e-05 3.722319e-05 4.124873e-05 4.550272e-05 4.998429e-05 5.454906e-05 5.926140e-05 6.390002e-05 6.858720e-05 7.305253e-05 7.746680e-05 8.153991e-05 8.548038e-05 8.900438e-05 9.234666e-05 9.524833e-05 9.795855e-05 1.002533e-04 1.023841e-04 1.041640e-04 1.058348e-04 1.072433e-04 1.086092e-04 1.098094e-04 1.110279e-04 1.121700e-04 1.133703e-04 1.145659e-04 1.158274e-04 1.171323e-04 1.184748e-04 1.198836e-04 1.212676e-04 1.227177e-04 1.240551e-04 1.254384e-04 1.266091e-04 1.277889e-04 1.286606e-04 1.294915e-04 1.299408e-04 1.302888e-04 1.302193e-04 1.299797e-04 1.293363e-04 1.284473e-04 1.272237e-04 1.256736e-04 1.239119e-04 1.217382e-04 1.195202e-04 1.168012e-04 1.142340e-04 1.110742e-04 1.082716e-04 1.047856e-04 1.018520e-04 9.814962e-05 9.516835e-05 9.134535e-05 8.837511e-05 8.450997e-05 8.158771e-05 7.774395e-05 7.489246e-05 7.112349e-05 6.835992e-05 6.471390e-05 6.205636e-05 5.857890e-05 5.604971e-05 5.278398e-05 5.040933e-05 4.739412e-05 4.520133e-05 4.246806e-05 4.048190e-05 3.805198e-05 3.629110e-05 3.417414e-05 3.264855e-05 3.084196e-05 2.955170e-05 2.804143e-05 2.697651e-05 
3.434430e-05 3.316717e-05 3.180692e-05 3.087817e-05 2.979963e-05 2.907428e-05 2.822346e-05 2.765180e-05 2.697426e-05 2.650516e-05 2.594903e-05 2.553333e-05 2.505197e-05 2.464581e-05 2.420029e-05 2.376822e-05 2.332947e-05 2.284725e-05 2.239796e-05 2.185510e-05 2.139166e-05 2.079373e-05 2.032825e-05 1.969932e-05 1.926195e-05 1.864724e-05 1.828896e-05 1.775770e-05 1.755303e-05 1.720104e-05 1.724988e-05 1.720040e-05 1.762733e-05 1.802803e-05 1.897681e-05 1.999049e-05 2.161155e-05 2.339867e-05 2.582853e-05 2.852156e-05 3.185572e-05 3.552869e-05 3.979263e-05 4.443246e-05 4.955834e-05 5.504662e-05 6.086394e-05 6.697688e-05 7.322300e-05 7.965347e-05 8.600495e-05 9.240422e-05 9.852380e-05 1.045549e-04 1.101440e-04 1.155344e-04 1.203796e-04 1.249615e-04 1.289633e-04 1.326921e-04 1.358718e-04 1.388203e-04 1.413025e-04 1.436329e-04 1.456117e-04 1.475336e-04 1.492283e-04 1.509527e-04 1.525647e-04 1.542631e-04 1.559404e-04 1.577163e-04 1.595320e-04 1.614080e-04 1.633527e-04 1.652721e-04 1.672599e-04 1.691017e-04 1.709864e-04 1.725874e-04 1.741852e-04 1.753675e-04 1.764834e-04 1.770815e-04 1.775363e-04 1.774220e-04 1.770759e-04 1.761773e-04 1.749485e-04 1.732594e-04 1.711337e-04 1.687137e-04 1.657432e-04 1.627055e-04 1.589974e-04 1.554884e-04 1.511848e-04 1.473593e-04 1.426148e-04 1.386133e-04 1.335750e-04 1.295085e-04 1.243037e-04 1.202488e-04 1.149814e-04 1.109858e-04 1.057402e-04 1.018333e-04 9.668170e-05 9.288700e-05 8.789594e-05 8.423976e-05 7.947359e-05 7.598894e-05 7.150924e-05 6.823469e-05 6.409689e-05 6.107227e-05 5.732123e-05 5.458213e-05 5.124828e-05 4.882120e-05 4.591821e-05 4.381720e-05 4.134163e-05 3.956675e-05 3.749925e-05 3.603655e-05 
4.254444e-05 4.095736e-05 3.913478e-05 3.786798e-05 3.640869e-05 3.540662e-05 3.424410e-05 3.344578e-05 3.251348e-05 3.185663e-05 3.109164e-05 3.051680e-05 2.986300e-05 2.931748e-05 2.872835e-05 2.816983e-05 2.761076e-05 2.701044e-05 2.646076e-05 2.580605e-05 2.526096e-05 2.455802e-05 2.403082e-05 2.330722e-05 2.283215e-05 2.214020e-05 2.177604e-05 2.119675e-05 2.103073e-05 2.067776e-05 2.082889e-05 2.085077e-05 2.147014e-05 2.204794e-05 2.331314e-05 2.465014e-05 2.675056e-05 2.905100e-05 3.216234e-05 3.559895e-05 3.984835e-05 4.452271e-05 4.995063e-05 5.585492e-05 6.238364e-05 6.937548e-05 7.679541e-05 8.459618e-05 9.257812e-05 1.008003e-04 1.089349e-04 1.171354e-04 1.249936e-04 1.327423e-04 1.399429e-04 1.468910e-04 1.531600e-04 1.590918e-04 1.643002e-04 1.691567e-04 1.733282e-04 1.771994e-04 1.804892e-04 1.835782e-04 1.862284e-04 1.887976e-04 1.910815e-04 1.933940e-04 1.955614e-04 1.978295e-04 2.000626e-04 2.024121e-04 2.047988e-04 2.072535e-04 2.097785e-04 2.122636e-04 2.148167e-04 2.171773e-04 2.195738e-04 2.216040e-04 2.236134e-04 2.250899e-04 2.264686e-04 2.271851e-04 2.277098e-04 2.275081e-04 2.270060e-04 2.257993e-04 2.241711e-04 2.219567e-04 2.191886e-04 2.160473e-04 2.122097e-04 2.082900e-04 2.035221e-04 1.990135e-04 1.934976e-04 1.885979e-04 1.825295e-04 1.774152e-04 1.709778e-04 1.657849e-04 1.591345e-04 1.539537e-04 1.472161e-04 1.421012e-04 1.353787e-04 1.303623e-04 1.237440e-04 1.188542e-04 1.124251e-04 1.076964e-04 1.015411e-04 9.701880e-05 9.121966e-05 8.695710e-05 8.158868e-05 7.764045e-05 7.276303e-05 6.917739e-05 6.483167e-05 6.164416e-05 5.784848e-05 5.507785e-05 5.182810e-05 4.947472e-05 4.674638e-05 4.479281e-05 
5.095598e-05 4.895222e-05 4.666575e-05 4.506713e-05 4.323718e-05 4.197341e-05 4.051650e-05 3.951009e-05 3.834229e-05 3.751356e-05 3.655492e-05 3.582732e-05 3.500602e-05 3.431136e-05 3.356751e-05 3.285103e-05 3.214006e-05 3.136488e-05 3.066056e-05 2.981148e-05 2.910861e-05 2.819526e-05 2.751237e-05 2.657219e-05 2.595460e-05 2.505614e-05 2.457963e-05 2.382636e-05 2.360122e-05 2.313559e-05 2.331003e-05 2.331577e-05 2.407626e-05 2.477589e-05 2.634094e-05 2.798396e-05 3.058699e-05 3.342486e-05 3.728367e-05 4.153055e-05 4.680456e-05 5.258818e-05 5.933069e-05 6.664420e-05 7.476227e-05 8.343185e-05 9.266814e-05 1.023502e-04 1.122976e-04 1.225125e-04 1.326634e-04 1.428623e-04 1.526841e-04 1.623349e-04 1.713546e-04 1.800272e-04 1.879053e-04 1.953351e-04 2.019121e-04 2.080288e-04 2.133337e-04 2.182502e-04 2.224730e-04 2.264395e-04 2.298755e-04 2.332122e-04 2.361931e-04 2.392172e-04 2.420437e-04 2.450073e-04 2.478959e-04 2.509435e-04 2.539950e-04 2.571464e-04 2.603369e-04 2.634928e-04 2.666846e-04 2.696510e-04 2.726181e-04 2.751417e-04 2.776044e-04 2.794137e-04 2.810779e-04 2.819246e-04 2.825216e-04 2.822172e-04 2.815402e-04 2.799845e-04 2.779163e-04 2.751127e-04 2.716409e-04 2.676950e-04 2.629103e-04 2.580108e-04 2.520876e-04 2.464717e-04 2.396355e-04 2.335478e-04 2.260375e-04 2.196924e-04 2.117285e-04 2.052871e-04 1.970544e-04 1.906197e-04 1.822656e-04 1.758964e-04 1.675414e-04 1.612734e-04 1.530263e-04 1.468941e-04 1.388626e-04 1.329133e-04 1.252080e-04 1.195046e-04 1.122345e-04 1.068505e-04 1.001147e-04 9.512395e-05 8.900204e-05 8.446889e-05 7.901407e-05 7.498488e-05 7.022091e-05 6.671965e-05 6.264131e-05 5.966820e-05 5.624448e-05 5.377716e-05 
5.871563e-05 5.615111e-05 5.324529e-05 5.117476e-05 4.882475e-05 4.716614e-05 4.527506e-05 4.393869e-05 4.241013e-05 4.130457e-05 4.004758e-05 3.908575e-05 3.801948e-05 3.712460e-05 3.618233e-05 3.529349e-05 3.442617e-05 3.350309e-05 3.268217e-05 3.170889e-05 3.092881e-05 2.991659e-05 2.919725e-05 2.818732e-05 2.757720e-05 2.664418e-05 2.622469e-05 2.548134e-05 2.537216e-05 2.497508e-05 2.533957e-05 2.549390e-05 2.654171e-05 2.750090e-05 2.948319e-05 3.153788e-05 3.472964e-05 3.818019e-05 4.284534e-05 4.795552e-05 5.429545e-05 6.123213e-05 6.932608e-05 7.809802e-05 8.785120e-05 9.826596e-05 1.093840e-04 1.210412e-04 1.330452e-04 1.453756e-04 1.576607e-04 1.700070e-04 1.819340e-04 1.936557e-04 2.046545e-04 2.152320e-04 2.248914e-04 2.340039e-04 2.421278e-04 2.496876e-04 2.563055e-04 2.624436e-04 2.677761e-04 2.727866e-04 2.771785e-04 2.814365e-04 2.852737e-04 2.891482e-04 2.927777e-04 2.965580e-04 3.002263e-04 3.040725e-04 3.078895e-04 3.118146e-04 3.157447e-04 3.196232e-04 3.234998e-04 3.270973e-04 3.306526e-04 3.336690e-04 3.365749e-04 3.386914e-04 3.406050e-04 3.415329e-04 3.421424e-04 3.416656e-04 3.407331e-04 3.387417e-04 3.361360e-04 3.326444e-04 3.283597e-04 3.235048e-04 3.176579e-04 3.116756e-04 3.044822e-04 2.976637e-04 2.893969e-04 2.820373e-04 2.729806e-04 2.653317e-04 2.557405e-04 2.479832e-04 2.380654e-04 2.303078e-04 2.202255e-04 2.125230e-04 2.024099e-04 1.947957e-04 1.847773e-04 1.772903e-04 1.674984e-04 1.601997e-04 1.507746e-04 1.437486e-04 1.348313e-04 1.281766e-04 1.198953e-04 1.137097e-04 1.061668e-04 1.005334e-04 9.379652e-05 8.877423e-05 8.287289e-05 7.849132e-05 7.341888e-05 6.967800e-05 6.539647e-05 6.226902e-05 
6.672981e-05 6.358872e-05 6.005579e-05 5.751744e-05 5.465720e-05 5.262162e-05 5.031739e-05 4.867492e-05 4.680995e-05 4.544805e-05 4.391135e-05 4.272195e-05 4.141400e-05 4.030128e-05 3.913948e-05 3.802746e-05 3.695113e-05 3.579036e-05 3.476506e-05 3.353775e-05 3.255868e-05 3.128228e-05 3.037710e-05 2.910675e-05 2.833848e-05 2.716955e-05 2.664012e-05 2.571186e-05 2.556689e-05 2.506742e-05 2.550132e-05 2.567253e-05 2.693156e-05 2.806959e-05 3.044769e-05 3.289224e-05 3.671263e-05 4.081729e-05 4.639360e-05 5.247300e-05 6.004919e-05 6.830730e-05 7.798554e-05 8.844062e-05 1.001167e-04 1.125469e-04 1.258766e-04 1.398095e-04 1.542250e-04 1.689839e-04 1.837640e-04 1.985652e-04 2.129460e-04 2.270267e-04 2.403268e-04 2.530701e-04 2.647990e-04 2.758267e-04 2.857508e-04 2.949630e-04 3.031162e-04 3.106713e-04 3.173124e-04 3.235577e-04 3.290887e-04 3.344615e-04 3.393285e-04 3.442527e-04 3.488522e-04 3.536514e-04 3.582591e-04 3.631030e-04 3.678345e-04 3.727200e-04 3.775235e-04 3.822890e-04 3.869638e-04 3.913264e-04 3.955590e-04 3.991648e-04 4.025755e-04 4.050551e-04 4.072498e-04 4.082726e-04 4.088946e-04 4.082174e-04 4.069967e-04 4.045023e-04 4.012938e-04 3.970120e-04 3.918181e-04 3.859237e-04 3.788914e-04 3.716754e-04 3.630668e-04 3.548829e-04 3.450239e-04 3.362233e-04 3.254454e-04 3.163192e-04 3.049128e-04 2.956599e-04 2.838537e-04 2.745828e-04 2.625516e-04 2.533109e-04 2.412010e-04 2.320205e-04 2.199782e-04 2.109052e-04 1.990941e-04 1.902111e-04 1.788117e-04 1.702346e-04 1.594303e-04 1.512924e-04 1.412496e-04 1.336800e-04 1.245301e-04 1.176360e-04 1.094639e-04 1.033190e-04 9.616083e-05 9.080072e-05 8.464703e-05 8.007027e-05 7.487372e-05 7.104587e-05 
7.379757e-05 6.987459e-05 6.549308e-05 6.228582e-05 5.870046e-05 5.609447e-05 5.317312e-05 5.104433e-05 4.865651e-05 4.687889e-05 4.490210e-05 4.335598e-05 4.168191e-05 4.026271e-05 3.880303e-05 3.742968e-05 3.612111e-05 3.474304e-05 3.355140e-05 3.215336e-05 3.107626e-05 2.968091e-05 2.874965e-05 2.741881e-05 2.670066e-05 2.553693e-05 2.513860e-05 2.428913e-05 2.436258e-05 2.402566e-05 2.477547e-05 2.520869e-05 2.689869e-05 2.842387e-05 3.137696e-05 3.437336e-05 3.895552e-05 4.383062e-05 5.040972e-05 5.754025e-05 6.641672e-05 7.606320e-05 8.738219e-05 9.959525e-05 1.132642e-04 1.278129e-04 1.434549e-04 1.598082e-04 1.767762e-04 1.941536e-04 2.116116e-04 2.290987e-04 2.461531e-04 2.628543e-04 2.787042e-04 2.938928e-04 3.079587e-04 3.211877e-04 3.331892e-04 3.443371e-04 3.543051e-04 3.635507e-04 3.717756e-04 3.795146e-04 3.864495e-04 3.931774e-04 3.993220e-04 4.055132e-04 4.113064e-04 4.173147e-04 4.230545e-04 4.290540e-04 4.348558e-04 4.408231e-04 4.466144e-04 4.523492e-04 4.578933e-04 4.630627e-04 4.680004e-04 4.721977e-04 4.760993e-04 4.789059e-04 4.813285e-04 4.823743e-04 4.829199e-04 4.819384e-04 4.803088e-04 4.771803e-04 4.732225e-04 4.679996e-04 4.617319e-04 4.546378e-04 4.462472e-04 4.376399e-04 4.274451e-04 4.177513e-04 4.061385e-04 3.957717e-04 3.831219e-04 3.724107e-04 3.590437e-04 3.481955e-04 3.343501e-04 3.234599e-04 3.093110e-04 2.984063e-04 2.841041e-04 2.732028e-04 2.589119e-04 2.480679e-04 2.339877e-04 2.233103e-04 2.096703e-04 1.993157e-04 1.863519e-04 1.764973e-04 1.644231e-04 1.552367e-04 1.442176e-04 1.358350e-04 1.259755e-04 1.184866e-04 1.098287e-04 1.032744e-04 9.580406e-05 9.018015e-05 8.383859e-05 7.910214e-05 
8.112621e-05 7.638901e-05 7.113824e-05 6.725824e-05 6.295185e-05 5.979185e-05 5.627358e-05 5.368437e-05 5.079912e-05 4.862792e-05 4.622884e-05 4.432922e-05 4.228516e-05 4.052824e-05 3.873153e-05 3.701748e-05 3.539136e-05 3.365938e-05 3.216415e-05 3.039945e-05 2.903650e-05 2.727354e-05 2.608751e-05 2.441017e-05 2.349002e-05 2.203080e-05 2.151140e-05 2.045213e-05 2.051762e-05 2.009362e-05 2.098320e-05 2.149072e-05 2.350546e-05 2.530850e-05 2.881358e-05 3.234053e-05 3.775193e-05 4.346816e-05 5.121088e-05 5.955529e-05 6.998578e-05 8.127211e-05 9.457424e-05 1.088775e-04 1.249604e-04 1.420263e-04 1.604632e-04 1.796805e-04 1.997209e-04 2.201795e-04 2.408447e-04 2.614732e-04 2.817137e-04 3.014627e-04 3.203372e-04 3.383589e-04 3.551875e-04 3.709651e-04 3.854200e-04 3.988186e-04 4.109343e-04 4.221670e-04 4.322764e-04 4.418016e-04 4.504201e-04 4.588015e-04 4.664906e-04 4.742559e-04 4.814996e-04 4.890281e-04 4.961446e-04 5.036032e-04 5.107013e-04 5.180319e-04 5.250109e-04 5.319594e-04 5.385393e-04 5.447107e-04 5.504812e-04 5.554073e-04 5.598851e-04 5.630936e-04 5.657847e-04 5.668653e-04 5.673284e-04 5.659927e-04 5.639007e-04 5.600309e-04 5.552232e-04 5.489024e-04 5.414168e-04 5.329272e-04 5.229977e-04 5.127784e-04 5.007899e-04 4.893541e-04 4.757618e-04 4.635939e-04 4.488319e-04 4.362992e-04 4.207142e-04 4.080253e-04 3.918589e-04 3.790841e-04 3.625037e-04 3.496410e-04 3.327988e-04 3.198522e-04 3.029373e-04 2.899748e-04 2.732366e-04 2.604087e-04 2.441440e-04 2.316646e-04 2.161806e-04 2.042871e-04 1.898581e-04 1.787697e-04 1.656045e-04 1.554920e-04 1.437179e-04 1.346898e-04 1.243541e-04 1.164562e-04 1.075374e-04 1.007599e-04 9.318370e-05 8.747164e-05 
8.716074e-05 8.133002e-05 7.490903e-05 7.008016e-05 6.475692e-05 6.077311e-05 5.637195e-05 5.306523e-05 4.941461e-05 4.661511e-05 4.355523e-05 4.110243e-05 3.849329e-05 3.624880e-05 3.397868e-05 3.183918e-05 2.983235e-05 2.774030e-05 2.596262e-05 2.391258e-05 2.237416e-05 2.041391e-05 1.916929e-05 1.739720e-05 1.654467e-05 1.510634e-05 1.478841e-05 1.387594e-05 1.428270e-05 1.413930e-05 1.551566e-05 1.644629e-05 1.910283e-05 2.148757e-05 2.580966e-05 3.010910e-05 3.655136e-05 4.328585e-05 5.233343e-05 6.201746e-05 7.410099e-05 8.712892e-05 1.025001e-04 1.190058e-04 1.376078e-04 1.573452e-04 1.787280e-04 2.010267e-04 2.243520e-04 2.481785e-04 2.723274e-04 2.964461e-04 3.202051e-04 3.433971e-04 3.656716e-04 3.869485e-04 4.069438e-04 4.257015e-04 4.430287e-04 4.591054e-04 4.737915e-04 4.874244e-04 4.998349e-04 5.115381e-04 5.222410e-04 5.326405e-04 5.422488e-04 5.519191e-04 5.609513e-04 5.702899e-04 5.790732e-04 5.882326e-04 5.968607e-04 6.057417e-04 6.140798e-04 6.223702e-04 6.300930e-04 6.373347e-04 6.439814e-04 6.496457e-04 6.546823e-04 6.582456e-04 6.611308e-04 6.621457e-04 6.623992e-04 6.605594e-04 6.578304e-04 6.530269e-04 6.471550e-04 6.395118e-04 6.305669e-04 6.204419e-04 6.087212e-04 5.966547e-04 5.826269e-04 5.692374e-04 5.534388e-04 5.392915e-04 5.222108e-04 5.077061e-04 4.897048e-04 4.750342e-04 4.563349e-04 4.415181e-04 4.222590e-04 4.072412e-04 3.875622e-04 3.723217e-04 3.524357e-04 3.370566e-04 3.172743e-04 3.019614e-04 2.826656e-04 2.677089e-04 2.492968e-04 2.350111e-04 2.178329e-04 2.045000e-04 1.888151e-04 1.766467e-04 1.626066e-04 1.517298e-04 1.393841e-04 1.298462e-04 1.191605e-04 1.109421e-04 1.018215e-04 9.485165e-05 
9.342715e-05 8.644270e-05 7.880751e-05 7.300875e-05 6.665806e-05 6.185798e-05 5.658538e-05 5.258299e-05 4.818605e-05 4.477631e-05 4.106461e-05 3.805162e-05 3.485651e-05 3.206991e-05 2.925595e-05 2.656860e-05 2.404475e-05 2.138817e-05 1.911653e-05 1.649032e-05 1.449062e-05 1.196426e-05 1.031408e-05 8.022321e-06 6.854896e-06 4.990325e-06 4.491670e-06 3.298307e-06 3.705489e-06 3.477094e-06 5.079941e-06 6.166336e-06 9.315320e-06 1.213674e-05 1.725515e-05 2.231518e-05 2.990218e-05 3.777676e-05 4.837614e-05 5.965084e-05 7.376275e-05 8.890567e-05 1.068426e-04 1.260357e-04 1.477623e-04 1.707497e-04 1.957706e-04 2.217944e-04 2.491509e-04 2.770176e-04 3.054114e-04 3.336833e-04 3.616990e-04 3.889571e-04 4.153169e-04 4.404158e-04 4.641951e-04 4.864430e-04 5.071907e-04 5.264119e-04 5.441580e-04 5.606349e-04 5.757939e-04 5.901167e-04 6.033247e-04 6.161953e-04 6.281269e-04 6.401692e-04 6.513792e-04 6.629988e-04 6.738179e-04 6.851343e-04 6.956299e-04 7.064791e-04 7.164703e-04 7.264602e-04 7.355664e-04 7.441579e-04 7.518610e-04 7.584542e-04 7.641655e-04 7.681809e-04 7.713098e-04 7.722627e-04 7.722882e-04 7.698584e-04 7.664052e-04 7.604990e-04 7.534089e-04 7.442038e-04 7.335851e-04 7.215334e-04 7.077607e-04 6.935281e-04 6.771710e-04 6.615045e-04 6.431948e-04 6.267532e-04 6.070375e-04 5.902515e-04 5.694954e-04 5.525205e-04 5.309088e-04 5.136899e-04 4.913144e-04 4.737261e-04 4.507098e-04 4.327024e-04 4.092938e-04 3.909822e-04 3.675797e-04 3.492501e-04 3.263551e-04 3.084042e-04 2.865339e-04 2.693798e-04 2.489818e-04 2.329865e-04 2.143820e-04 1.998057e-04 1.831731e-04 1.701629e-04 1.555503e-04 1.441520e-04 1.315065e-04 1.216860e-04 1.108850e-04 1.025498e-04 
9.801060e-05 8.950147e-05 8.025292e-05 7.311313e-05 6.533637e-05 5.935048e-05 5.281260e-05 4.775310e-05 4.223020e-05 3.786852e-05 3.315442e-05 2.927615e-05 2.519351e-05 2.161770e-05 1.803067e-05 1.463017e-05 1.145597e-05 8.173730e-06 5.389809e-06 2.246393e-06 -1.084418e-07 -3.017282e-06 -4.845988e-06 -7.358257e-06 -8.509468e-06 -1.040738e-05 -1.067841e-05 -1.169687e-05 -1.083625e-05 -1.066670e-05 -8.374771e-06 -6.659993e-06 -2.581602e-06 1.103273e-06 7.397650e-06 1.357159e-05 2.260411e-05 3.188737e-05 4.425731e-05 5.731844e-05 7.361531e-05 9.103157e-05 1.116684e-04 1.337197e-04 1.587305e-04 1.851999e-04 2.140861e-04 2.441615e-04 2.758683e-04 3.082064e-04 3.412605e-04 3.742107e-04 4.069827e-04 4.389008e-04 4.699100e-04 4.994646e-04 5.276339e-04 5.540191e-04 5.788159e-04 6.018219e-04 6.232624e-04 6.432028e-04 6.617352e-04 6.792662e-04 6.955802e-04 7.114707e-04 7.262869e-04 7.412005e-04 7.550931e-04 7.694329e-04 7.827204e-04 7.965611e-04 8.092721e-04 8.223761e-04 8.342762e-04 8.461659e-04 8.568170e-04 8.668712e-04 8.757008e-04 8.832498e-04 8.896190e-04 8.940303e-04 8.973034e-04 8.980581e-04 8.976781e-04 8.944454e-04 8.900181e-04 8.827274e-04 8.741073e-04 8.630052e-04 8.503587e-04 8.360193e-04 8.198267e-04 8.030769e-04 7.840400e-04 7.657880e-04 7.446549e-04 7.256680e-04 7.030415e-04 6.837679e-04 6.599919e-04 6.405139e-04 6.156939e-04 5.958354e-04 5.699788e-04 5.495073e-04 5.227007e-04 5.015255e-04 4.740592e-04 4.523384e-04 4.247252e-04 4.028555e-04 3.757512e-04 3.542697e-04 3.283445e-04 3.078006e-04 2.836210e-04 2.644733e-04 2.424315e-04 2.249939e-04 2.052930e-04 1.897287e-04 1.724073e-04 1.587526e-04 1.437285e-04 1.319255e-04 1.190386e-04 1.089651e-04 
1.027819e-04 9.264316e-05 8.169850e-05 7.316526e-05 6.392312e-05 5.673813e-05 4.892482e-05 4.281592e-05 3.616754e-05 3.085899e-05 2.513081e-05 2.036154e-05 1.534161e-05 1.088990e-05 6.415814e-06 2.126371e-06 -1.899216e-06 -6.093621e-06 -9.693758e-06 -1.376251e-05 -1.688445e-05 -2.070167e-05 -2.321901e-05 -2.657268e-05 -2.828626e-05 -3.088881e-05 -3.152786e-05 -3.302880e-05 -3.225928e-05 -3.226146e-05 -2.970257e-05 -2.777452e-05 -2.300936e-05 -1.867748e-05 -1.124003e-05 -3.954963e-06 6.702805e-06 1.759745e-05 3.211604e-05 4.735358e-05 6.639372e-05 8.664260e-05 1.107020e-04 1.363232e-04 1.654881e-04 1.962805e-04 2.300215e-04 2.650818e-04 3.022056e-04 3.399907e-04 3.787949e-04 4.173870e-04 4.559741e-04 4.934593e-04 5.301036e-04 5.649409e-04 5.983914e-04 6.296617e-04 6.593046e-04 6.867849e-04 7.126387e-04 7.367050e-04 7.592755e-04 7.806800e-04 8.007319e-04 8.203288e-04 8.386406e-04 8.571337e-04 8.742986e-04 8.920705e-04 9.083827e-04 9.254324e-04 9.408633e-04 9.568428e-04 9.710861e-04 9.853991e-04 9.979451e-04 1.009864e-03 1.020077e-03 1.028848e-03 1.036034e-03 1.040967e-03 1.044445e-03 1.044989e-03 1.044164e-03 1.039983e-03 1.034439e-03 1.025496e-03 1.015106e-03 1.001737e-03 9.867380e-04 9.696711e-04 9.506761e-04 9.309431e-04 9.088186e-04 8.875287e-04 8.631620e-04 8.412090e-04 8.152579e-04 7.930927e-04 7.658508e-04 7.434415e-04 7.148947e-04 6.918970e-04 6.619369e-04 6.379828e-04 6.066558e-04 5.816159e-04 5.492811e-04 5.233885e-04 4.907214e-04 4.645315e-04 4.323956e-04 4.066339e-04 3.758968e-04 3.512812e-04 3.226566e-04 2.997630e-04 2.737252e-04 2.529285e-04 2.297038e-04 2.111812e-04 1.907907e-04 1.745622e-04 1.568837e-04 1.428597e-04 1.276849e-04 1.157058e-04 
1.054840e-04 9.322910e-05 8.006619e-05 6.964596e-05 5.840756e-05 4.952180e-05 3.989589e-05 3.223358e-05 2.392723e-05 1.718028e-05 9.931420e-06 3.817383e-06 -2.588301e-06 -8.296243e-06 -1.400691e-05 -1.945047e-05 -2.453621e-05 -2.975469e-05 -3.420875e-05 -3.914018e-05 -4.288970e-05 -4.738343e-05 -5.029503e-05 -5.411995e-05 -5.598884e-05 -5.883109e-05 -5.936293e-05 -6.082654e-05 -5.963802e-05 -5.926618e-05 -5.591703e-05 -5.322724e-05 -4.725938e-05 -4.175654e-05 -3.269596e-05 -2.383335e-05 -1.113884e-05 1.749508e-06 1.873966e-05 3.645092e-05 5.847921e-05 8.180909e-05 1.095037e-04 1.389599e-04 1.725263e-04 2.079958e-04 2.469371e-04 2.874776e-04 3.305011e-04 3.743871e-04 4.195687e-04 4.645977e-04 5.097540e-04 5.537042e-04 5.968330e-04 6.379087e-04 6.775526e-04 7.146819e-04 7.501156e-04 7.830330e-04 8.142525e-04 8.433757e-04 8.709220e-04 8.970850e-04 9.217753e-04 9.459051e-04 9.685518e-04 9.913786e-04 1.012570e-03 1.034439e-03 1.054421e-03 1.075241e-03 1.093911e-03 1.113209e-03 1.130181e-03 1.147235e-03 1.161926e-03 1.175902e-03 1.187618e-03 1.197679e-03 1.205679e-03 1.211079e-03 1.214638e-03 1.214793e-03 1.213279e-03 1.207849e-03 1.200831e-03 1.189819e-03 1.177198e-03 1.161051e-03 1.143169e-03 1.122818e-03 1.100472e-03 1.077216e-03 1.051491e-03 1.026698e-03 9.986547e-04 9.733641e-04 9.437036e-04 9.183382e-04 8.872490e-04 8.615928e-04 8.288688e-04 8.023352e-04 7.676972e-04 7.397372e-04 7.031776e-04 6.736219e-04 6.355968e-04 6.047892e-04 5.661907e-04 5.348978e-04 4.968544e-04 4.660402e-04 4.296607e-04 4.002453e-04 3.664139e-04 3.391070e-04 3.083851e-04 2.836225e-04 2.562512e-04 2.342149e-04 2.101827e-04 1.908623e-04 1.699901e-04 1.532498e-04 1.352653e-04 1.208946e-04 
1.083695e-04 9.382514e-05 7.830053e-05 6.588915e-05 5.256646e-05 4.192916e-05 3.044142e-05 2.120752e-05 1.121268e-05 3.016372e-06 -5.787204e-06 -1.327746e-05 -2.112844e-05 -2.817170e-05 -3.522457e-05 -4.197513e-05 -4.829527e-05 -5.479431e-05 -6.037738e-05 -6.657123e-05 -7.136995e-05 -7.712928e-05 -8.104971e-05 -8.615436e-05 -8.900084e-05 -9.308968e-05 -9.449297e-05 -9.702984e-05 -9.643160e-05 -9.674448e-05 -9.347680e-05 -9.086418e-05 -8.427496e-05 -7.809669e-05 -6.761580e-05 -5.728104e-05 -4.236451e-05 -2.722014e-05 -7.229683e-06 1.352926e-05 3.935867e-05 6.660079e-05 9.898095e-05 1.333211e-04 1.725431e-04 2.139202e-04 2.594825e-04 3.068661e-04 3.573201e-04 4.087321e-04 4.618580e-04 5.147336e-04 5.679844e-04 6.197285e-04 6.707662e-04 7.192947e-04 7.664253e-04 8.105165e-04 8.529060e-04 8.922847e-04 9.299317e-04 9.651053e-04 9.986202e-04 1.030548e-03 1.060830e-03 1.090537e-03 1.118447e-03 1.146686e-03 1.172801e-03 1.199851e-03 1.224348e-03 1.249973e-03 1.272645e-03 1.296194e-03 1.316546e-03 1.337121e-03 1.354477e-03 1.371099e-03 1.384697e-03 1.396430e-03 1.405476e-03 1.411513e-03 1.415233e-03 1.414960e-03 1.412683e-03 1.405761e-03 1.397037e-03 1.383524e-03 1.368288e-03 1.348774e-03 1.327499e-03 1.303174e-03 1.276889e-03 1.249396e-03 1.219466e-03 1.190495e-03 1.158181e-03 1.128938e-03 1.094968e-03 1.065804e-03 1.030200e-03 1.000639e-03 9.629358e-04 9.320823e-04 8.918008e-04 8.589059e-04 8.160084e-04 7.808963e-04 7.360026e-04 6.991920e-04 6.534891e-04 6.160257e-04 5.709724e-04 5.341098e-04 4.910976e-04 4.559889e-04 4.160910e-04 3.835924e-04 3.474589e-04 3.180691e-04 2.859494e-04 2.598506e-04 2.316895e-04 2.088345e-04 1.843841e-04 1.645829e-04 1.434959e-04 1.264793e-04 