# vtk DataFile Version 2.0
Comment goes here
ASCII

DATASET STRUCTURED_POINTS
FIELD FieldData 1
TIME 1 1 double
0.17000000
DIMENSIONS    128   128   1

ORIGIN    0.000   0.000   0.000
SPACING   0.039062 0.039062   1.000

POINT_DATA   16384
SCALARS Omega double
LOOKUP_TABLE default

2.777591e-14 2.832630e-14 2.391877e-14 1.450319e-14 2.768072e-15 5.818494e-15 1.678759e-16 1.500073e-14 3.581890e-14 2.493961e-14 2.444434e-14 2.724941e-14 1.311455e-14 1.899812e-14 4.324448e-15 -1.652107e-14 -2.820977e-14 -3.976062e-14 -2.058362e-14 -3.143536e-14 -4.521059e-14 -4.635732e-14 -2.776818e-14 -2.008935e-14 -1.930823e-14 -6.216018e-14 -9.939942e-14 -3.346985e-14 -1.055020e-14 -2.412955e-14 -4.098843e-14 -4.898906e-14 -5.256706e-14 -4.506321e-14 -2.165761e-14 1.117468e-15 -3.031670e-14 1.655361e-16 -1.444945e-14 -3.413053e-15 3.510322e-14 1.143104e-14 6.253823e-15 4.098118e-14 2.690721e-14 1.744764e-14 1.526223e-14 1.825072e-14 -1.690176e-14 3.668895e-14 4.104981e-14 1.248624e-14 5.483890e-14 1.923522e-14 4.380697e-15 4.975729e-14 -7.235922e-16 4.521997e-15 1.846611e-14 2.834680e-14 1.330991e-14 -4.230136e-14 1.371452e-14 -2.980352e-14 -1.927537e-14 -3.628737e-14 1.403867e-14 -2.691458e-15 -9.370701e-15 -2.006484e-14 -1.933406e-14 -3.416103e-14 -3.337613e-14 -3.892274e-14 -4.498833e-14 -3.899668e-14 -2.424848e-14 -4.656513e-16 8.935501e-15 -4.579714e-15 1.560111e-14 -1.794831e-14 -1.709459e-14 -2.195758e-14 -7.628667e-15 3.919763e-14 2.748445e-14 4.128153e-14 2.919220e-14 4.743474e-14 -2.833447e-14 -3.140437e-15 -8.176656e-16 -4.324600e-15 1.276189e-15 1.927766e-14 2.530529e-14 4.552417e-14 4.187111e-14 -1.393107e-14 8.920753e-14 5.785941e-14 3.686957e-15 -3.967728e-14 3.818901e-14 9.856986e-14 7.199127e-14 3.316620e-14 1.819003e-14 1.682127e-14 5.870256e-15 4.661454e-15 -2.802151e-15 3.079551e-15 4.201687e-15 -9.582626e-16 -1.990941e-14 -3.273890e-14 -1.700780e-14 -1.111651e-14 2.819787e-15 8.132596e-15 9.634697e-15 2.332122e-14 2.027341e-14 1.276395e-14 2.447669e-14 3.981821e-14 
8.638855e-06 8.690592e-06 8.136984e-06 8.204793e-06 7.749038e-06 7.810520e-06 7.450189e-06 7.483976e-06 7.214694e-06 7.201471e-06 7.017619e-06 6.940910e-06 6.836359e-06 6.683094e-06 6.651912e-06 6.412821e-06 6.449925e-06 6.119885e-06 6.221591e-06 5.800075e-06 5.964518e-06 5.456299e-06 5.683733e-06 5.099941e-06 5.392971e-06 4.752460e-06 5.116280e-06 4.447100e-06 4.889779e-06 4.230294e-06 4.763048e-06 4.162055e-06 4.799254e-06 4.314323e-06 5.072777e-06 4.766148e-06 5.663184e-06 5.594901e-06 6.644933e-06 6.863641e-06 8.073468e-06 8.606158e-06 9.969940e-06 1.081279e-05 1.230827e-05 1.342106e-05 1.500875e-05 1.631499e-05 1.794153e-05 1.933533e-05 2.094110e-05 2.230007e-05 2.382978e-05 2.503178e-05 2.644548e-05 2.738587e-05 2.866769e-05 2.927362e-05 3.043559e-05 3.067467e-05 3.175447e-05 3.163656e-05 3.268956e-05 3.226189e-05 3.334920e-05 3.268648e-05 3.386173e-05 3.305345e-05 3.435104e-05 3.348827e-05 3.491561e-05 3.407913e-05 3.561393e-05 3.486502e-05 3.645790e-05 3.583240e-05 3.741382e-05 3.691963e-05 3.840954e-05 3.802772e-05 3.934626e-05 3.903547e-05 4.011289e-05 3.981693e-05 4.060154e-05 4.025902e-05 4.072228e-05 4.027716e-05 4.041538e-05 3.982646e-05 3.965916e-05 3.890664e-05 3.847188e-05 3.755969e-05 3.690727e-05 3.586065e-05 3.504429e-05 3.390362e-05 3.297371e-05 3.178632e-05 3.078446e-05 2.959679e-05 2.855305e-05 2.740483e-05 2.633798e-05 2.525944e-05 2.417941e-05 2.319119e-05 2.210286e-05 2.121777e-05 2.012474e-05 1.935009e-05 1.825764e-05 1.759725e-05 1.651384e-05 1.596904e-05 1.490652e-05 1.447631e-05 1.344898e-05 1.312958e-05 1.215275e-05 1.193693e-05 1.102530e-05 1.090197e-05 1.006831e-05 1.002253e-05 9.276752e-06 9.290165e-06 
1.781399e-05 1.802599e-05 1.698226e-05 1.720688e-05 1.634211e-05 1.653036e-05 1.583676e-05 1.594367e-05 1.541120e-05 1.539763e-05 1.501532e-05 1.484937e-05 1.460661e-05 1.426463e-05 1.415245e-05 1.361962e-05 1.363178e-05 1.290261e-05 1.303651e-05 1.211536e-05 1.237248e-05 1.127466e-05 1.166078e-05 1.041411e-05 1.093932e-05 9.586482e-06 1.026521e-05 8.866276e-06 9.717515e-06 8.351971e-06 9.399681e-06 8.166566e-06 9.439697e-06 8.454413e-06 9.985699e-06 9.372029e-06 1.119447e-05 1.107113e-05 1.321147e-05 1.367396e-05 1.614357e-05 1.724382e-05 2.002881e-05 2.175694e-05 2.481066e-05 2.708388e-05 3.032524e-05 3.298818e-05 3.630842e-05 3.914694e-05 4.242485e-05 4.519199e-05 4.831508e-05 5.076462e-05 5.365125e-05 5.557225e-05 5.818894e-05 5.943417e-05 6.180313e-05 6.230625e-05 6.450079e-05 6.427964e-05 6.640808e-05 6.555490e-05 6.773668e-05 6.639838e-05 6.873777e-05 6.709090e-05 6.965413e-05 6.787900e-05 7.067932e-05 6.893714e-05 7.193033e-05 7.034555e-05 7.343593e-05 7.208482e-05 7.513966e-05 7.404547e-05 7.691429e-05 7.604887e-05 7.858399e-05 7.787550e-05 7.995046e-05 7.929661e-05 8.081987e-05 8.010537e-05 8.102804e-05 8.014371e-05 8.046084e-05 7.932141e-05 7.906739e-05 7.762451e-05 7.686383e-05 7.511175e-05 7.392690e-05 7.190003e-05 7.037894e-05 6.814253e-05 6.636774e-05 6.400483e-05 6.204621e-05 5.964447e-05 5.755647e-05 5.519793e-05 5.302096e-05 5.077587e-05 4.854034e-05 4.646507e-05 4.419633e-05 4.233370e-05 4.005624e-05 3.843686e-05 3.617675e-05 3.482008e-05 3.260547e-05 3.152030e-05 2.938045e-05 2.856485e-05 2.652832e-05 2.596954e-05 2.406228e-05 2.373706e-05 2.198080e-05 2.185630e-05 2.026752e-05 2.030293e-05 1.889241e-05 1.904110e-05 
2.585238e-05 2.601133e-05 2.426112e-05 2.447148e-05 2.302622e-05 2.321877e-05 2.207208e-05 2.218084e-05 2.132023e-05 2.128560e-05 2.069461e-05 2.046577e-05 2.012618e-05 1.966287e-05 1.955679e-05 1.883054e-05 1.894242e-05 1.793761e-05 1.825590e-05 1.697107e-05 1.748951e-05 1.593939e-05 1.665786e-05 1.487644e-05 1.580159e-05 1.384620e-05 1.499211e-05 1.294780e-05 1.433682e-05 1.231992e-05 1.398371e-05 1.214242e-05 1.412227e-05 1.263201e-05 1.497724e-05 1.402850e-05 1.679105e-05 1.656871e-05 1.979301e-05 2.044806e-05 2.415656e-05 2.577446e-05 2.995183e-05 3.252374e-05 3.710464e-05 4.050981e-05 4.537573e-05 4.938149e-05 5.437072e-05 5.865336e-05 6.358427e-05 6.776885e-05 7.247253e-05 7.618440e-05 8.053890e-05 8.345667e-05 8.741390e-05 8.931323e-05 9.291075e-05 9.369072e-05 9.704476e-05 9.673299e-05 1.000137e-04 9.875144e-05 1.021457e-04 1.001578e-04 1.038284e-04 1.013849e-04 1.054346e-04 1.028106e-04 1.072582e-04 1.046991e-04 1.094718e-04 1.071651e-04 1.121069e-04 1.101645e-04 1.150582e-04 1.135084e-04 1.181059e-04 1.168959e-04 1.209514e-04 1.199595e-04 1.232601e-04 1.223178e-04 1.247079e-04 1.236290e-04 1.250250e-04 1.236378e-04 1.240337e-04 1.222103e-04 1.216711e-04 1.193490e-04 1.179964e-04 1.151860e-04 1.131763e-04 1.099540e-04 1.074537e-04 1.039430e-04 1.011061e-04 9.745169e-05 9.440275e-05 9.074655e-05 8.757292e-05 8.403579e-05 8.078921e-05 7.746278e-05 7.416820e-05 7.111515e-05 6.778332e-05 6.504316e-05 6.168293e-05 5.927926e-05 5.590661e-05 5.385289e-05 5.049529e-05 4.879760e-05 4.549385e-05 4.415083e-05 4.094765e-05 3.994879e-05 3.689582e-05 3.621938e-05 3.336408e-05 3.297592e-05 3.035937e-05 3.021311e-05 2.786727e-05 2.790596e-05 
3.552453e-05 3.596096e-05 3.369741e-05 3.416347e-05 3.227905e-05 3.267310e-05 3.115431e-05 3.138298e-05 3.021140e-05 3.019337e-05 2.934810e-05 2.901703e-05 2.847734e-05 2.778394e-05 2.753185e-05 2.644526e-05 2.646782e-05 2.497663e-05 2.526777e-05 2.338113e-05 2.394264e-05 2.169214e-05 2.253406e-05 1.997684e-05 2.111723e-05 1.834040e-05 1.980528e-05 1.693101e-05 1.875480e-05 1.594462e-05 1.817121e-05 1.562680e-05 1.831034e-05 1.626783e-05 1.947132e-05 1.818572e-05 2.197487e-05 2.169297e-05 2.612350e-05 2.704644e-05 3.214517e-05 3.438578e-05 4.012939e-05 4.367330e-05 4.997142e-05 5.465290e-05 6.134345e-05 6.684532e-05 7.370758e-05 7.958949e-05 8.637552e-05 9.212795e-05 9.860678e-05 1.037208e-04 1.097249e-04 1.137638e-04 1.192253e-04 1.218830e-04 1.268493e-04 1.279855e-04 1.326095e-04 1.322560e-04 1.367622e-04 1.351023e-04 1.397363e-04 1.370647e-04 1.420385e-04 1.387104e-04 1.441547e-04 1.405340e-04 1.464677e-04 1.428820e-04 1.492038e-04 1.459089e-04 1.524113e-04 1.495684e-04 1.559688e-04 1.536340e-04 1.596161e-04 1.577420e-04 1.629993e-04 1.614486e-04 1.657227e-04 1.642930e-04 1.674018e-04 1.658603e-04 1.677126e-04 1.658350e-04 1.664320e-04 1.640400e-04 1.634643e-04 1.604542e-04 1.588483e-04 1.552043e-04 1.527449e-04 1.485349e-04 1.454055e-04 1.407618e-04 1.371299e-04 1.322220e-04 1.282243e-04 1.232314e-04 1.189700e-04 1.140597e-04 1.096068e-04 1.049231e-04 1.003318e-04 9.599159e-05 9.130775e-05 8.740152e-05 8.267306e-05 7.926758e-05 7.454920e-05 7.168876e-05 6.704194e-05 6.474832e-05 6.023804e-05 5.850967e-05 5.419966e-05 5.301115e-05 4.895933e-05 4.826226e-05 4.451724e-05 4.424265e-05 4.084168e-05 4.090387e-05 3.787215e-05 3.817355e-05 
4.284716e-05 4.312437e-05 3.990262e-05 4.027629e-05 3.760138e-05 3.794923e-05 3.581331e-05 3.601896e-05 3.440337e-05 3.436173e-05 3.324038e-05 3.286194e-05 3.220502e-05 3.141903e-05 3.119649e-05 2.995324e-05 3.013828e-05 2.841092e-05 2.898284e-05 2.676950e-05 2.771585e-05 2.504275e-05 2.636069e-05 2.328688e-05 2.498390e-05 2.160773e-05 2.370243e-05 2.016894e-05 2.269240e-05 1.919958e-05 2.219753e-05 1.899830e-05 2.253300e-05 1.992858e-05 2.407781e-05 2.239826e-05 2.724806e-05 2.681750e-05 3.244576e-05 3.353347e-05 3.998480e-05 4.274884e-05 5.000558e-05 5.444084e-05 6.239935e-05 6.830457e-05 7.676751e-05 8.374395e-05 9.243615e-05 9.992365e-05 1.085326e-04 1.158794e-04 1.241129e-04 1.306662e-04 1.383134e-04 1.435121e-04 1.504909e-04 1.539413e-04 1.603197e-04 1.618405e-04 1.678232e-04 1.674541e-04 1.733386e-04 1.713134e-04 1.774238e-04 1.741188e-04 1.807338e-04 1.766031e-04 1.838923e-04 1.794013e-04 1.873843e-04 1.829511e-04 1.914857e-04 1.874357e-04 1.962347e-04 1.927696e-04 2.014415e-04 1.986249e-04 2.067287e-04 2.044865e-04 2.115911e-04 2.097296e-04 2.154675e-04 2.137069e-04 2.178164e-04 2.158395e-04 2.181895e-04 2.156971e-04 2.162940e-04 2.130587e-04 2.120341e-04 2.079400e-04 2.055223e-04 2.005819e-04 1.970559e-04 1.913994e-04 1.870613e-04 1.809026e-04 1.760182e-04 1.696090e-04 1.643845e-04 1.579698e-04 1.525399e-04 1.463263e-04 1.407606e-04 1.349036e-04 1.292263e-04 1.238325e-04 1.180482e-04 1.131871e-04 1.073043e-04 1.030211e-04 9.706789e-05 9.339264e-05 8.742296e-05 8.437337e-05 7.846404e-05 7.604372e-05 7.028625e-05 6.848060e-05 6.297077e-05 6.174317e-05 5.657137e-05 5.586160e-05 5.110547e-05 5.083077e-05 4.655076e-05 4.660952e-05 
5.297797e-05 5.366312e-05 4.981390e-05 5.055463e-05 4.732816e-05 4.796255e-05 4.534365e-05 4.572290e-05 4.368792e-05 4.368209e-05 4.220242e-05 4.170516e-05 4.075103e-05 3.968309e-05 3.922755e-05 3.753939e-05 3.756200e-05 3.523550e-05 3.572533e-05 3.277549e-05 3.373280e-05 3.021018e-05 3.164672e-05 2.764144e-05 2.957968e-05 2.522749e-05 2.769980e-05 2.318952e-05 2.623856e-05 2.181895e-05 2.549987e-05 2.148228e-05 2.586575e-05 2.261729e-05 2.779031e-05 2.571195e-05 3.177139e-05 3.125724e-05 3.829199e-05 3.967039e-05 4.773156e-05 5.119579e-05 6.026072e-05 6.580422e-05 7.574593e-05 8.312046e-05 9.369651e-05 1.024098e-04 1.132808e-04 1.226409e-04 1.334200e-04 1.426217e-04 1.529463e-04 1.611834e-04 1.707904e-04 1.773689e-04 1.861537e-04 1.905849e-04 1.986268e-04 2.006807e-04 2.082257e-04 2.079397e-04 2.153453e-04 2.129909e-04 2.206440e-04 2.166642e-04 2.248923e-04 2.198239e-04 2.288188e-04 2.232153e-04 2.329855e-04 2.273497e-04 2.377098e-04 2.324428e-04 2.430385e-04 2.384050e-04 2.487672e-04 2.448776e-04 2.544915e-04 2.512993e-04 2.596757e-04 2.569929e-04 2.637301e-04 2.612603e-04 2.660876e-04 2.634761e-04 2.662747e-04 2.631694e-04 2.639708e-04 2.600837e-04 2.590478e-04 2.542044e-04 2.515819e-04 2.457469e-04 2.418336e-04 2.351068e-04 2.301974e-04 2.227830e-04 2.171338e-04 2.092955e-04 2.031024e-04 1.951182e-04 1.885142e-04 1.806439e-04 1.737131e-04 1.661809e-04 1.589818e-04 1.519730e-04 1.445620e-04 1.382256e-04 1.306732e-04 1.251246e-04 1.175218e-04 1.128424e-04 1.052969e-04 1.015311e-04 9.415890e-05 9.131053e-05 8.422516e-05 8.225609e-05 7.556018e-05 7.439239e-05 6.817174e-05 6.769261e-05 6.201354e-05 6.208348e-05 5.699236e-05 5.745353e-05 
5.939079e-05 5.980382e-05 5.462940e-05 5.520064e-05 5.087470e-05 5.141775e-05 4.793480e-05 4.827259e-05 4.561071e-05 4.558336e-05 4.370892e-05 4.318028e-05 4.205284e-05 4.091557e-05 4.049294e-05 3.867232e-05 3.891550e-05 3.637238e-05 3.724994e-05 3.398350e-05 3.547472e-05 3.152627e-05 3.362272e-05 2.908134e-05 3.178712e-05 2.679783e-05 3.012959e-05 2.490321e-05 2.889149e-05 2.371416e-05 2.840719e-05 2.364495e-05 2.911395e-05 2.520629e-05 3.154844e-05 2.898351e-05 3.631613e-05 3.558215e-05 4.402188e-05 4.553493e-05 5.516051e-05 5.917779e-05 6.998329e-05 7.652053e-05 8.837410e-05 9.715096e-05 1.097776e-04 1.202122e-04 1.332143e-04 1.444766e-04 1.573939e-04 1.685119e-04 1.809107e-04 1.909074e-04 2.024743e-04 2.105080e-04 2.211238e-04 2.266001e-04 2.363711e-04 2.390085e-04 2.482467e-04 2.480858e-04 2.572395e-04 2.546029e-04 2.641551e-04 2.595719e-04 2.699292e-04 2.640416e-04 2.754388e-04 2.689099e-04 2.813491e-04 2.747827e-04 2.880183e-04 2.818967e-04 2.954659e-04 2.901061e-04 3.033946e-04 2.989238e-04 3.112526e-04 3.076018e-04 3.183191e-04 3.152395e-04 3.238027e-04 3.209073e-04 3.269449e-04 3.237744e-04 3.271214e-04 3.232272e-04 3.239304e-04 3.189600e-04 3.172555e-04 3.110198e-04 3.072852e-04 2.997913e-04 2.944800e-04 2.859179e-04 2.794856e-04 2.701755e-04 2.630141e-04 2.533322e-04 2.457249e-04 2.360323e-04 2.281399e-04 2.187360e-04 2.106152e-04 2.017209e-04 1.933646e-04 1.851325e-04 1.765173e-04 1.690522e-04 1.601783e-04 1.535581e-04 1.444722e-04 1.387576e-04 1.295570e-04 1.247915e-04 1.156141e-04 1.118168e-04 1.028230e-04 9.997967e-05 9.133283e-05 8.939077e-05 8.124164e-05 8.010808e-05 7.258410e-05 7.213023e-05 6.533011e-05 6.539827e-05 
6.992195e-05 7.089021e-05 6.487151e-05 6.593514e-05 6.085038e-05 6.177512e-05 5.761303e-05 5.818330e-05 5.491965e-05 5.494631e-05 5.254807e-05 5.187528e-05 5.030548e-05 4.881653e-05 4.803965e-05 4.566157e-05 4.564903e-05 4.235581e-05 4.309057e-05 3.890552e-05 4.038473e-05 3.538299e-05 3.761807e-05 3.193048e-05 3.494482e-05 2.876434e-05 3.259030e-05 2.618086e-05 3.085892e-05 2.456500e-05 3.014712e-05 2.439962e-05 3.095695e-05 2.626807e-05 3.389824e-05 3.083631e-05 3.966178e-05 3.879793e-05 4.894605e-05 5.077116e-05 6.233218e-05 6.715384e-05 8.012432e-05 8.796637e-05 1.021967e-04 1.127313e-04 1.279013e-04 1.404402e-04 1.560810e-04 1.696388e-04 1.852037e-04 1.986253e-04 2.135963e-04 2.257207e-04 2.397220e-04 2.495479e-04 2.624337e-04 2.692514e-04 2.811429e-04 2.846080e-04 2.958679e-04 2.960098e-04 3.071576e-04 3.043300e-04 3.159202e-04 3.107126e-04 3.232025e-04 3.163343e-04 3.299724e-04 3.221910e-04 3.369497e-04 3.289450e-04 3.445091e-04 3.368483e-04 3.526593e-04 3.457414e-04 3.610821e-04 3.551090e-04 3.692112e-04 3.641749e-04 3.763266e-04 3.720172e-04 3.816543e-04 3.776943e-04 3.844616e-04 3.803684e-04 3.841451e-04 3.794169e-04 3.803066e-04 3.745162e-04 3.728062e-04 3.656820e-04 3.617813e-04 3.532536e-04 3.476188e-04 3.378184e-04 3.308810e-04 3.200940e-04 3.122028e-04 3.008001e-04 2.921923e-04 2.805619e-04 2.713682e-04 2.598692e-04 2.501474e-04 2.390916e-04 2.288750e-04 2.185278e-04 2.078681e-04 1.984553e-04 1.874489e-04 1.791577e-04 1.679500e-04 1.609224e-04 1.496946e-04 1.440151e-04 1.329630e-04 1.286497e-04 1.179627e-04 1.149637e-04 1.048098e-04 1.030083e-04 9.352583e-05 9.275174e-05 8.404715e-05 8.409120e-05 7.624073e-05 7.686925e-05 
7.512467e-05 7.569545e-05 6.784558e-05 6.866058e-05 6.204793e-05 6.283998e-05 5.746558e-05 5.798118e-05 5.382359e-05 5.383350e-05 5.085442e-05 5.016299e-05 4.831314e-05 4.676638e-05 4.599195e-05 4.348390e-05 4.373330e-05 4.021093e-05 4.144109e-05 3.690801e-05 3.908893e-05 3.360912e-05 3.672539e-05 3.042841e-05 3.447782e-05 2.756676e-05 3.255750e-05 2.531996e-05 3.126999e-05 2.409037e-05 3.103238e-05 2.440084e-05 3.239364e-05 2.690339e-05 3.604467e-05 3.236622e-05 4.279541e-05 4.161665e-05 5.349453e-05 5.542243e-05 6.888083e-05 7.431543e-05 8.938497e-05 9.839324e-05 1.149333e-04 1.271612e-04 1.448235e-04 1.594809e-04 1.777315e-04 1.936665e-04 2.118701e-04 2.277216e-04 2.452715e-04 2.596674e-04 2.761242e-04 2.878794e-04 3.030796e-04 3.113522e-04 3.254539e-04 3.298316e-04 3.432835e-04 3.437916e-04 3.572312e-04 3.542737e-04 3.683785e-04 3.626339e-04 3.779604e-04 3.702597e-04 3.871064e-04 3.783162e-04 3.966394e-04 3.875638e-04 4.069620e-04 3.982676e-04 4.180322e-04 4.101920e-04 4.294093e-04 4.226628e-04 4.403443e-04 4.346745e-04 4.498918e-04 4.450281e-04 4.570310e-04 4.524889e-04 4.607910e-04 4.559531e-04 4.603767e-04 4.546083e-04 4.552857e-04 4.480653e-04 4.453979e-04 4.364296e-04 4.310124e-04 4.202862e-04 4.128055e-04 4.005849e-04 3.917041e-04 3.784454e-04 3.687022e-04 3.549366e-04 3.446778e-04 3.309024e-04 3.202730e-04 3.068842e-04 2.958715e-04 2.831523e-04 2.716649e-04 2.598120e-04 2.477648e-04 2.369275e-04 2.243054e-04 2.146144e-04 2.015015e-04 1.930756e-04 1.796491e-04 1.725838e-04 1.590857e-04 1.534335e-04 1.401338e-04 1.358881e-04 1.230518e-04 1.201392e-04 1.080021e-04 1.062849e-04 9.504117e-05 9.432753e-05 8.412503e-05 8.418254e-05 
8.596309e-05 8.725442e-05 7.822034e-05 7.966600e-05 7.197103e-05 7.324743e-05 6.689060e-05 6.769889e-05 6.266118e-05 6.273674e-05 5.898525e-05 5.810759e-05 5.560095e-05 5.360333e-05 5.229862e-05 4.907653e-05 4.893702e-05 4.445454e-05 4.545693e-05 3.975049e-05 4.188934e-05 3.506970e-05 3.835713e-05 3.061126e-05 3.507152e-05 2.666663e-05 3.232795e-05 2.361908e-05 3.050796e-05 2.194891e-05 3.009321e-05 2.224688e-05 3.169044e-05 2.522994e-05 3.605410e-05 3.174059e-05 4.407759e-05 4.269902e-05 5.671796e-05 5.898002e-05 7.483275e-05 8.121152e-05 9.894598e-05 1.095351e-04 1.290058e-04 1.434066e-04 1.642235e-04 1.815227e-04 2.030713e-04 2.219275e-04 2.434674e-04 2.622916e-04 2.831106e-04 3.003011e-04 3.198808e-04 3.340544e-04 3.521987e-04 3.623697e-04 3.792577e-04 3.849320e-04 4.010787e-04 4.022580e-04 4.183919e-04 4.155005e-04 4.323864e-04 4.261519e-04 4.444016e-04 4.357193e-04 4.556336e-04 4.454434e-04 4.669204e-04 4.561085e-04 4.786352e-04 4.679620e-04 4.906865e-04 4.807326e-04 5.025950e-04 4.937160e-04 5.136087e-04 5.058998e-04 5.228260e-04 5.161073e-04 5.293110e-04 5.231494e-04 5.321983e-04 5.259767e-04 5.307893e-04 5.238210e-04 5.246394e-04 5.163093e-04 5.136284e-04 5.035247e-04 4.979912e-04 4.859885e-04 4.782853e-04 4.645499e-04 4.552826e-04 4.402031e-04 4.298129e-04 4.138895e-04 4.026167e-04 3.863595e-04 3.742680e-04 3.581380e-04 3.451907e-04 3.295898e-04 3.157429e-04 3.010310e-04 2.863124e-04 2.728222e-04 2.573696e-04 2.454023e-04 2.294570e-04 2.192569e-04 2.031270e-04 1.948506e-04 1.788637e-04 1.725566e-04 1.570199e-04 1.526122e-04 1.377886e-04 1.351072e-04 1.212064e-04 1.199992e-04 1.071796e-04 1.071418e-04 9.551728e-05 9.631554e-05 
8.952672e-05 9.027605e-05 7.873457e-05 7.984692e-05 7.004798e-05 7.115196e-05 6.310632e-05 6.384943e-05 5.753999e-05 5.760178e-05 5.298940e-05 5.209471e-05 4.912421e-05 4.705593e-05 4.566361e-05 4.227403e-05 4.239660e-05 3.761631e-05 3.920015e-05 3.304369e-05 3.605179e-05 2.862068e-05 3.303431e-05 2.451936e-05 3.033306e-05 2.101849e-05 2.823045e-05 1.850202e-05 2.710622e-05 1.746378e-05 2.745276e-05 1.852412e-05 2.990842e-05 2.245581e-05 3.529599e-05 3.019826e-05 4.463102e-05 4.282012e-05 5.905067e-05 6.138713e-05 7.962766e-05 8.672280e-05 1.070829e-04 1.191072e-04 1.414743e-04 1.580145e-04 1.819796e-04 2.020038e-04 2.268772e-04 2.488342e-04 2.737619e-04 2.957990e-04 3.199500e-04 3.401938e-04 3.629633e-04 3.797951e-04 4.009619e-04 4.132264e-04 4.330186e-04 4.401312e-04 4.591793e-04 4.611266e-04 4.803169e-04 4.775694e-04 4.978306e-04 4.912045e-04 5.132791e-04 5.037838e-04 5.280355e-04 5.167370e-04 5.430369e-04 5.309512e-04 5.586643e-04 5.466777e-04 5.747455e-04 5.635490e-04 5.906433e-04 5.806694e-04 6.053846e-04 5.967499e-04 6.177961e-04 6.102699e-04 6.266393e-04 6.196623e-04 6.307460e-04 6.235191e-04 6.291609e-04 6.208028e-04 6.212886e-04 6.110353e-04 6.070252e-04 5.944174e-04 5.868288e-04 5.718253e-04 5.616771e-04 5.446458e-04 5.328822e-04 5.144722e-04 5.018022e-04 4.827522e-04 4.695537e-04 4.505203e-04 4.368414e-04 4.183113e-04 4.039676e-04 3.862652e-04 3.709919e-04 3.543472e-04 3.379493e-04 3.225703e-04 3.050211e-04 2.911309e-04 2.725995e-04 2.604271e-04 2.412436e-04 2.309837e-04 2.115716e-04 2.033404e-04 1.841460e-04 1.779518e-04 1.593901e-04 1.551275e-04 1.375504e-04 1.350134e-04 1.186985e-04 1.176030e-04 1.027555e-04 1.027654e-04 
1.005423e-04 1.021916e-04 8.897183e-05 9.085995e-05 7.950654e-05 8.119799e-05 7.172617e-05 7.281568e-05 6.521802e-05 6.534126e-05 5.959075e-05 5.843843e-05 5.449354e-05 5.182769e-05 4.964039e-05 4.531056e-05 4.483730e-05 3.879353e-05 4.000691e-05 3.230706e-05 3.520400e-05 2.601492e-05 3.061675e-05 2.021115e-05 2.655283e-05 1.530578e-05 2.341690e-05 1.180614e-05 2.169237e-05 1.030551e-05 2.194452e-05 1.149277e-05 2.485627e-05 1.618731e-05 3.128793e-05 2.537890e-05 4.231906e-05 4.022023e-05 5.920325e-05 6.190637e-05 8.317617e-05 9.140923e-05 1.151194e-04 1.291135e-04 1.551732e-04 1.744812e-04 2.024510e-04 2.258966e-04 2.549958e-04 2.807886e-04 3.100296e-04 3.360233e-04 3.644353e-04 3.884610e-04 4.153333e-04 4.355197e-04 4.605885e-04 4.755983e-04 4.991217e-04 5.082652e-04 5.309653e-04 5.341883e-04 5.570740e-04 5.548514e-04 5.789655e-04 5.721411e-04 5.982916e-04 5.879130e-04 6.164517e-04 6.036319e-04 6.343302e-04 6.201513e-04 6.521989e-04 6.376465e-04 6.697669e-04 6.556729e-04 6.863214e-04 6.732956e-04 7.008962e-04 6.892470e-04 7.124224e-04 7.020913e-04 7.198482e-04 7.103945e-04 7.222357e-04 7.129002e-04 7.188487e-04 7.087036e-04 7.092444e-04 6.974062e-04 6.933660e-04 6.792148e-04 6.716023e-04 6.549305e-04 6.447561e-04 6.257860e-04 6.138839e-04 5.931514e-04 5.800438e-04 5.582140e-04 5.440650e-04 5.217757e-04 5.064594e-04 4.842563e-04 4.675153e-04 4.458761e-04 4.275052e-04 4.068987e-04 3.868834e-04 3.678018e-04 3.463678e-04 3.293033e-04 3.068776e-04 2.922548e-04 2.693742e-04 2.574749e-04 2.346884e-04 2.256049e-04 2.034014e-04 1.970322e-04 1.758076e-04 1.718890e-04 1.519427e-04 1.500980e-04 1.316473e-04 1.314355e-04 1.146343e-04 1.155878e-04 
1.019016e-04 1.028370e-04 8.622437e-05 8.768416e-05 7.346603e-05 7.494310e-05 6.313986e-05 6.415119e-05 5.475314e-05 5.485497e-05 4.782685e-05 4.663306e-05 4.191866e-05 3.912165e-05 3.665117e-05 3.204291e-05 3.174450e-05 2.523399e-05 2.704799e-05 1.867174e-05 2.256271e-05 1.248698e-05 1.844694e-05 6.963461e-06 1.500130e-05 2.521110e-06 1.263903e-05 -3.104747e-07 1.185665e-05 -9.135258e-07 1.322828e-05 1.422387e-06 1.744536e-05 7.545674e-06 2.540140e-05 1.851292e-05 3.827506e-05 3.561868e-05 5.751769e-05 6.028873e-05 8.465123e-05 9.377552e-05 1.208608e-04 1.367015e-04 1.664948e-04 1.886138e-04 2.206768e-04 2.477578e-04 2.812217e-04 3.112016e-04 3.449252e-04 3.753077e-04 4.081521e-04 4.364082e-04 4.675368e-04 4.914866e-04 5.205953e-04 5.386817e-04 5.660921e-04 5.775048e-04 6.040962e-04 6.087504e-04 6.357477e-04 6.341545e-04 6.628260e-04 6.559095e-04 6.872429e-04 6.761573e-04 7.105903e-04 6.965738e-04 7.338400e-04 7.181185e-04 7.572397e-04 7.409613e-04 7.803782e-04 7.645443e-04 8.023468e-04 7.877149e-04 8.219196e-04 8.088814e-04 8.377091e-04 8.261836e-04 8.482939e-04 8.376928e-04 8.523424e-04 8.416515e-04 8.487566e-04 8.367478e-04 8.368515e-04 8.223924e-04 8.165538e-04 7.989291e-04 7.885487e-04 7.676718e-04 7.542568e-04 7.306708e-04 7.155587e-04 6.902168e-04 6.743172e-04 6.482528e-04 6.319006e-04 6.059507e-04 5.889399e-04 5.636393e-04 5.454278e-04 5.210801e-04 5.010818e-04 4.779186e-04 4.557667e-04 4.340821e-04 4.097745e-04 3.899642e-04 3.638650e-04 3.463688e-04 3.191033e-04 3.043000e-04 2.766083e-04 2.647234e-04 2.373308e-04 2.283916e-04 2.019274e-04 1.957688e-04 1.707323e-04 1.670351e-04 1.437970e-04 1.421374e-04 1.209573e-04 1.208512e-04 
1.129505e-04 1.149657e-04 9.598187e-05 9.835390e-05 8.191358e-05 8.406677e-05 7.020415e-05 7.159495e-05 6.031996e-05 6.044794e-05 5.174641e-05 5.017461e-05 4.401092e-05 4.039383e-05 3.671906e-05 3.083364e-05 2.960063e-05 2.137337e-05 2.255612e-05 1.207906e-05 1.568916e-05 3.221022e-06 9.311164e-06 -4.735007e-06 3.911457e-06 -1.116489e-05 9.893691e-08 -1.534327e-05 -1.463723e-06 -1.650002e-05 -9.865350e-08 -1.384176e-05 4.915451e-06 -6.504624e-06 1.445528e-05 6.558314e-06 2.970181e-05 2.667699e-05 5.220029e-05 5.541123e-05 8.368297e-05 9.423262e-05 1.256016e-04 1.439731e-04 1.784988e-04 2.042476e-04 2.414900e-04 2.731313e-04 3.121205e-04 3.472802e-04 3.866986e-04 4.224892e-04 4.610029e-04 4.945036e-04 5.311254e-04 5.598283e-04 5.941930e-04 6.163100e-04 6.487822e-04 6.633697e-04 6.949574e-04 7.018701e-04 7.339710e-04 7.336990e-04 7.677396e-04 7.611971e-04 7.982520e-04 7.865809e-04 8.270601e-04 8.114922e-04 8.549714e-04 8.367592e-04 8.819911e-04 8.623769e-04 9.074705e-04 8.876400e-04 9.303571e-04 9.113359e-04 9.494374e-04 9.319313e-04 9.635122e-04 9.477420e-04 9.714994e-04 9.571038e-04 9.724929e-04 9.585622e-04 9.658126e-04 9.510833e-04 9.510864e-04 9.342718e-04 9.283805e-04 9.085451e-04 8.983258e-04 8.751566e-04 8.621090e-04 8.359485e-04 8.212173e-04 7.928457e-04 7.769951e-04 7.472979e-04 7.302523e-04 6.999733e-04 6.811780e-04 6.508741e-04 6.296233e-04 5.997890e-04 5.755813e-04 5.468069e-04 5.195847e-04 4.926200e-04 4.628167e-04 4.384941e-04 4.069088e-04 3.859761e-04 3.535645e-04 3.365195e-04 3.041996e-04 2.912023e-04 2.597357e-04 2.506164e-04 2.205722e-04 2.149093e-04 1.866848e-04 1.839041e-04 1.577683e-04 1.572297e-04 1.333648e-04 1.344188e-04 
1.114312e-04 1.125223e-04 8.900468e-05 9.083550e-05 7.053800e-05 7.242530e-05 5.537007e-05 5.665699e-05 4.284197e-05 4.291374e-05 3.231333e-05 3.062281e-05 2.318750e-05 1.929008e-05 1.495118e-05 8.544268e-06 7.227949e-06 -1.813292e-06 -1.633712e-07 -1.176378e-05 -7.163466e-06 -2.104522e-05 -1.346006e-05 -2.915849e-05 -1.851998e-05 -3.541012e-05 -2.166261e-05 -3.898715e-05 -2.215354e-05 -3.904281e-05 -1.927615e-05 -3.474811e-05 -1.232115e-05 -2.524986e-05 -4.492140e-07 -9.512693e-06 1.753690e-05 1.386951e-05 4.334891e-05 4.669518e-05 7.907312e-05 9.082092e-05 1.266204e-04 1.474753e-04 1.869112e-04 2.164859e-04 2.591646e-04 2.958102e-04 3.406612e-04 3.816401e-04 4.271303e-04 4.690757e-04 5.136222e-04 5.531243e-04 5.955470e-04 6.296872e-04 6.695507e-04 6.962552e-04 7.340035e-04 7.521715e-04 7.890272e-04 7.984612e-04 8.361220e-04 8.373293e-04 8.775388e-04 8.714894e-04 9.155779e-04 9.034923e-04 9.519967e-04 9.352115e-04 9.876629e-04 9.675796e-04 1.022506e-03 1.000577e-03 1.055705e-03 1.033381e-03 1.085975e-03 1.064553e-03 1.111816e-03 1.092202e-03 1.131671e-03 1.114129e-03 1.144013e-03 1.128014e-03 1.147415e-03 1.131680e-03 1.140663e-03 1.123444e-03 1.122966e-03 1.102545e-03 1.094276e-03 1.069526e-03 1.055599e-03 1.026390e-03 1.009052e-03 9.762611e-04 9.574200e-04 9.225261e-04 9.033187e-04 8.677948e-04 8.483491e-04 8.132041e-04 7.927505e-04 7.584336e-04 7.357332e-04 7.023721e-04 6.762757e-04 6.440349e-04 6.139409e-04 5.832652e-04 5.493152e-04 5.209408e-04 4.839338e-04 4.587058e-04 4.198318e-04 3.984612e-04 3.590030e-04 3.418889e-04 3.030006e-04 2.901747e-04 2.527738e-04 2.439467e-04 2.086993e-04 2.033572e-04 1.707141e-04 1.682162e-04 1.384651e-04 1.381158e-04 
1.224281e-04 1.247461e-04 9.790380e-05 1.007431e-04 7.729435e-05 7.990421e-05 5.989654e-05 6.155095e-05 4.501405e-05 4.502103e-05 3.196117e-05 2.969247e-05 2.008895e-05 1.502829e-05 8.838577e-06 6.405790e-07 -2.180235e-06 -1.363439e-05 -1.310125e-05 -2.766806e-05 -2.373256e-05 -4.100224e-05 -3.353746e-05 -5.286148e-05 -4.168386e-05 -6.222235e-05 -4.715935e-05 -6.793478e-05 -4.892745e-05 -6.887321e-05 -4.607230e-05 -6.405842e-05 -3.784338e-05 -5.265120e-05 -2.350738e-05 -3.374647e-05 -2.012346e-06 -6.045693e-06 2.833642e-05 3.231850e-05 6.985040e-05 8.349315e-05 1.248581e-04 1.490878e-04 1.946757e-04 2.291591e-04 2.786418e-04 3.215398e-04 3.737432e-04 4.219033e-04 4.750535e-04 5.245714e-04 5.768001e-04 6.237324e-04 6.736334e-04 7.146286e-04 7.616714e-04 7.943644e-04 8.390509e-04 8.621778e-04 9.059142e-04 9.191947e-04 9.639274e-04 9.678114e-04 1.015514e-03 1.010898e-03 1.063030e-03 1.051031e-03 1.108089e-03 1.089936e-03 1.151215e-03 1.128253e-03 1.191879e-03 1.165629e-03 1.228826e-03 1.200975e-03 1.260508e-03 1.232757e-03 1.285429e-03 1.259189e-03 1.302334e-03 1.278373e-03 1.310257e-03 1.288445e-03 1.308497e-03 1.287761e-03 1.296575e-03 1.275152e-03 1.274283e-03 1.250250e-03 1.241886e-03 1.213822e-03 1.200408e-03 1.167900e-03 1.151697e-03 1.115382e-03 1.097976e-03 1.059088e-03 1.040982e-03 1.000706e-03 9.812434e-04 9.403197e-04 9.180460e-04 8.768302e-04 8.501760e-04 8.090213e-04 7.769847e-04 7.366200e-04 6.991667e-04 6.608010e-04 6.188552e-04 5.839574e-04 5.390657e-04 5.089710e-04 4.628487e-04 4.384147e-04 3.925815e-04 3.740420e-04 3.296451e-04 3.166710e-04 2.744782e-04 2.663597e-04 2.268448e-04 2.226884e-04 1.861340e-04 1.850085e-04 1.515879e-04 1.526008e-04 