# vtk DataFile Version 2.0
Comment goes here
ASCII

DATASET STRUCTURED_POINTS
FIELD FieldData 1
TIME 1 1 double
0.14500000
DIMENSIONS    128   128   1

ORIGIN    0.000   0.000   0.000
SPACING   0.039062 0.039062   1.000

POINT_DATA   16384
SCALARS Omega double
LOOKUP_TABLE default

5.173918e-14 5.312948e-14 5.466548e-14 5.371206e-14 4.870020e-14 4.904813e-14 5.562898e-14 5.866238e-14 6.587804e-14 6.294900e-14 4.597149e-14 1.964701e-14 2.794216e-14 3.463404e-14 3.629748e-14 2.637339e-14 1.722379e-14 1.995837e-15 -1.918154e-14 -2.689763e-14 -5.443174e-14 -4.102514e-14 -4.057390e-14 -3.515649e-14 -4.160035e-14 -5.210182e-14 -4.659196e-14 -5.394476e-14 -4.494107e-14 -1.179663e-14 -7.791869e-14 -4.020319e-14 -5.382262e-14 -5.217438e-14 -6.499234e-14 -4.983444e-14 -2.311290e-14 -2.580431e-14 -1.954973e-14 3.395078e-14 3.027244e-14 9.466152e-15 3.233634e-14 8.037444e-16 3.935010e-14 2.041231e-14 -2.223960e-14 -7.931694e-14 4.635805e-14 -1.163557e-14 -4.989439e-16 2.881232e-14 -2.977683e-14 -2.927201e-14 -7.316991e-14 5.926204e-14 6.929266e-14 5.485695e-14 2.418971e-14 -1.906662e-14 -4.253021e-14 -2.688981e-14 -5.629257e-15 3.562089e-15 -3.245712e-15 -4.749245e-15 2.865528e-14 -5.918500e-15 3.922177e-15 -1.700588e-14 -3.327462e-14 -4.077159e-14 -3.672032e-14 -1.526362e-14 -8.253463e-15 -7.288998e-15 -9.469674e-15 -1.968378e-14 -1.145349e-14 -1.577259e-14 -8.114132e-15 1.846024e-14 3.681027e-15 1.184186e-14 4.415857e-14 2.989787e-14 3.034808e-14 2.300911e-14 4.399053e-14 6.340627e-14 1.020469e-13 6.040452e-14 4.664415e-14 5.545599e-14 5.136364e-14 5.855745e-14 1.751739e-14 3.427566e-14 2.825410e-14 1.889050e-15 -2.734441e-14 -6.375149e-17 6.853620e-14 1.107393e-13 5.867798e-14 1.797006e-14 3.912078e-14 9.267398e-15 1.311524e-14 -6.407380e-15 1.741491e-14 -1.974913e-14 -3.454350e-14 -3.360747e-14 -3.455769e-14 -5.724717e-14 -7.537344e-14 -5.690720e-14 -4.368951e-14 -4.500203e-14 -3.690811e-14 -1.213453e-14 -1.072042e-15 7.936046e-15 1.385640e-14 2.147807e-14 2.820137e-14 4.242334e-14 
7.231909e-06 6.891198e-06 6.856899e-06 6.602958e-06 6.648772e-06 6.458741e-06 6.574839e-06 6.426886e-06 6.599748e-06 6.473570e-06 6.687471e-06 6.564512e-06 6.803129e-06 6.666627e-06 6.914735e-06 6.749721e-06 6.994949e-06 6.788303e-06 7.022924e-06 6.763590e-06 6.986270e-06 6.665736e-06 6.883134e-06 6.496280e-06 6.724321e-06 6.270693e-06 6.535291e-06 6.020782e-06 6.357701e-06 5.796420e-06 6.249929e-06 5.665817e-06 6.285781e-06 5.713241e-06 6.550337e-06 6.033040e-06 7.132073e-06 6.719232e-06 8.110959e-06 7.850926e-06 9.543473e-06 9.475396e-06 1.144701e-05 1.159222e-05 1.378747e-05 1.414288e-05 1.647427e-05 1.700997e-05 1.936578e-05 2.002820e-05 2.228610e-05 2.300639e-05 2.505061e-05 2.575676e-05 2.749531e-05 2.812497e-05 2.950334e-05 3.001452e-05 3.102278e-05 3.139985e-05 3.207184e-05 3.232590e-05 3.273075e-05 3.289464e-05 3.312297e-05 3.324244e-05 3.338997e-05 3.351322e-05 3.366535e-05 3.383294e-05 3.405274e-05 3.428980e-05 3.461106e-05 3.492257e-05 3.534836e-05 3.571788e-05 3.622398e-05 3.661561e-05 3.715755e-05 3.752059e-05 3.804290e-05 3.831833e-05 3.876450e-05 3.889264e-05 3.921446e-05 3.914268e-05 3.930778e-05 3.899715e-05 3.899377e-05 3.842348e-05 3.826156e-05 3.743041e-05 3.713872e-05 3.606339e-05 3.568316e-05 3.439382e-05 3.397007e-05 3.250477e-05 3.207728e-05 3.047667e-05 3.007290e-05 2.837660e-05 2.800814e-05 2.625333e-05 2.591658e-05 2.413846e-05 2.381904e-05 2.205196e-05 2.173110e-05 2.000937e-05 1.967056e-05 1.802801e-05 1.766201e-05 1.613029e-05 1.573765e-05 1.434376e-05 1.393461e-05 1.269846e-05 1.229025e-05 1.122302e-05 1.083708e-05 9.940650e-06 9.598580e-06 8.866236e-06 8.586782e-06 8.004767e-06 7.801645e-06 7.351171e-06 
1.850781e-05 1.775865e-05 1.759740e-05 1.698386e-05 1.695293e-05 1.644092e-05 1.653183e-05 1.608730e-05 1.628119e-05 1.587080e-05 1.614158e-05 1.573332e-05 1.605158e-05 1.561549e-05 1.595274e-05 1.546155e-05 1.579457e-05 1.522444e-05 1.553941e-05 1.487072e-05 1.516711e-05 1.438561e-05 1.467943e-05 1.377782e-05 1.410412e-05 1.308442e-05 1.349843e-05 1.237507e-05 1.295176e-05 1.175509e-05 1.258624e-05 1.136563e-05 1.255391e-05 1.137903e-05 1.302828e-05 1.198677e-05 1.418856e-05 1.337874e-05 1.619587e-05 1.571400e-05 1.916315e-05 1.908682e-05 2.312385e-05 2.349470e-05 2.800698e-05 2.881746e-05 3.362700e-05 3.481555e-05 3.969494e-05 4.115226e-05 4.585214e-05 4.743805e-05 5.172170e-05 5.328929e-05 5.696735e-05 5.838864e-05 6.134657e-05 6.253367e-05 6.474590e-05 6.566294e-05 6.719110e-05 6.785489e-05 6.883084e-05 6.930092e-05 6.989914e-05 7.026058e-05 7.066593e-05 7.100895e-05 7.138639e-05 7.178724e-05 7.225875e-05 7.276493e-05 7.339649e-05 7.401819e-05 7.481745e-05 7.552531e-05 7.644842e-05 7.717700e-05 7.814193e-05 7.879767e-05 7.970118e-05 8.017350e-05 8.090912e-05 8.108350e-05 8.155853e-05 8.133017e-05 8.147990e-05 8.076641e-05 8.056416e-05 7.931556e-05 7.877706e-05 7.698153e-05 7.616261e-05 7.384704e-05 7.283454e-05 7.005997e-05 6.895699e-05 6.581013e-05 6.471840e-05 6.130134e-05 6.030438e-05 5.672454e-05 5.587529e-05 5.223711e-05 5.155265e-05 4.795161e-05 4.741556e-05 4.393437e-05 4.350590e-05 4.021224e-05 3.983892e-05 3.678441e-05 3.641568e-05 3.363573e-05 3.323390e-05 3.074852e-05 3.029540e-05 2.811072e-05 2.760925e-05 2.571965e-05 2.519100e-05 2.358155e-05 2.305915e-05 2.170798e-05 2.123022e-05 2.011053e-05 1.971366e-05 1.879535e-05 
2.156189e-05 2.050439e-05 2.037458e-05 1.958256e-05 1.970096e-05 1.910504e-05 1.944140e-05 1.897566e-05 1.948861e-05 1.909195e-05 1.973349e-05 1.935016e-05 2.007045e-05 1.965010e-05 2.040263e-05 1.990026e-05 2.064713e-05 2.002321e-05 2.074056e-05 1.996166e-05 2.064496e-05 1.968513e-05 2.035407e-05 1.919724e-05 1.989960e-05 1.854334e-05 1.935725e-05 1.781776e-05 1.885134e-05 1.716927e-05 1.855674e-05 1.680237e-05 1.869543e-05 1.697124e-05 1.952478e-05 1.796241e-05 2.131429e-05 2.006377e-05 2.430981e-05 2.352023e-05 2.868763e-05 2.848137e-05 3.450595e-05 3.495175e-05 4.166577e-05 4.275772e-05 4.989433e-05 5.154392e-05 5.876119e-05 6.080645e-05 6.772940e-05 6.996071e-05 7.623423e-05 7.843134e-05 8.377352e-05 8.574513e-05 8.998929e-05 9.160574e-05 9.472222e-05 9.593400e-05 9.802705e-05 9.886588e-05 1.001475e-04 1.007110e-04 1.014577e-04 1.018826e-04 1.023858e-04 1.028160e-04 1.033340e-04 1.038906e-04 1.046125e-04 1.053700e-04 1.063954e-04 1.073677e-04 1.087025e-04 1.098398e-04 1.114073e-04 1.126015e-04 1.142644e-04 1.153634e-04 1.169521e-04 1.177786e-04 1.191212e-04 1.194963e-04 1.204467e-04 1.202126e-04 1.206738e-04 1.197138e-04 1.196521e-04 1.179042e-04 1.173529e-04 1.148145e-04 1.138649e-04 1.105868e-04 1.093688e-04 1.054423e-04 1.040970e-04 9.963617e-05 9.828766e-05 9.341299e-05 9.214582e-05 8.697408e-05 8.582208e-05 8.046283e-05 7.941170e-05 7.396976e-05 7.297138e-05 6.755125e-05 6.654465e-05 6.125300e-05 6.018547e-05 5.512927e-05 5.397223e-05 4.925250e-05 4.800886e-05 4.371196e-05 4.241500e-05 3.860435e-05 3.730998e-05 3.402065e-05 3.279633e-05 3.003368e-05 2.894691e-05 2.668923e-05 2.579805e-05 2.400187e-05 2.334831e-05 2.195506e-05 
3.690198e-05 3.531371e-05 3.491816e-05 3.361276e-05 3.349634e-05 3.240530e-05 3.255037e-05 3.160535e-05 3.197259e-05 3.110650e-05 3.164165e-05 3.078994e-05 3.143182e-05 3.053383e-05 3.122305e-05 3.022345e-05 3.091129e-05 2.976154e-05 3.041848e-05 2.907845e-05 2.970202e-05 2.814213e-05 2.876357e-05 2.696774e-05 2.765702e-05 2.562715e-05 2.649548e-05 2.425749e-05 2.545648e-05 2.306767e-05 2.478374e-05 2.233973e-05 2.478245e-05 2.242093e-05 2.580382e-05 2.370124e-05 2.821449e-05 2.657217e-05 3.234870e-05 3.136722e-05 3.844622e-05 3.829072e-05 4.658628e-05 4.734960e-05 5.663356e-05 5.830747e-05 6.821513e-05 7.067901e-05 8.074188e-05 8.377485e-05 9.347802e-05 9.679369e-05 1.056481e-04 1.089446e-04 1.165597e-04 1.195727e-04 1.257134e-04 1.282600e-04 1.328756e-04 1.348790e-04 1.380983e-04 1.395888e-04 1.416846e-04 1.427791e-04 1.441096e-04 1.449765e-04 1.459186e-04 1.467361e-04 1.476232e-04 1.485411e-04 1.496160e-04 1.507265e-04 1.521164e-04 1.534375e-04 1.551506e-04 1.566222e-04 1.585630e-04 1.600543e-04 1.620518e-04 1.633766e-04 1.652192e-04 1.661581e-04 1.676292e-04 1.679548e-04 1.688674e-04 1.683709e-04 1.685957e-04 1.671125e-04 1.665983e-04 1.640279e-04 1.628109e-04 1.591289e-04 1.573290e-04 1.525886e-04 1.503906e-04 1.447134e-04 1.423364e-04 1.358955e-04 1.335552e-04 1.265545e-04 1.244269e-04 1.170812e-04 1.152756e-04 1.077949e-04 1.063429e-04 9.892103e-05 9.778204e-05 9.058949e-05 8.967147e-05 8.285043e-05 8.203814e-05 7.569940e-05 7.488381e-05 6.910512e-05 6.820693e-05 6.303341e-05 6.201665e-05 5.746328e-05 5.633774e-05 5.239386e-05 5.120804e-05 4.784277e-05 4.667045e-05 4.383823e-05 4.276266e-05 4.040805e-05 3.950693e-05 3.756823e-05 
3.545933e-05 3.357701e-05 3.326868e-05 3.184592e-05 3.197781e-05 3.089627e-05 3.141530e-05 3.056377e-05 3.139816e-05 3.067423e-05 3.174107e-05 3.105156e-05 3.226497e-05 3.152573e-05 3.280538e-05 3.194110e-05 3.322123e-05 3.216559e-05 3.340419e-05 3.210080e-05 3.328871e-05 3.169316e-05 3.286237e-05 3.094589e-05 3.217625e-05 2.993147e-05 3.135458e-05 2.880370e-05 3.060260e-05 2.780747e-05 3.021051e-05 2.728270e-05 3.054967e-05 2.765675e-05 3.205532e-05 2.941823e-05 3.518989e-05 3.306651e-05 4.038327e-05 3.903586e-05 4.795310e-05 4.760293e-05 5.801794e-05 5.879631e-05 7.042487e-05 7.233394e-05 8.471650e-05 8.761305e-05 1.001564e-04 1.037664e-04 1.158176e-04 1.197808e-04 1.307212e-04 1.346560e-04 1.439949e-04 1.475677e-04 1.550168e-04 1.579989e-04 1.635090e-04 1.658088e-04 1.695636e-04 1.712285e-04 1.735969e-04 1.747864e-04 1.762463e-04 1.771862e-04 1.782366e-04 1.791645e-04 1.802432e-04 1.813580e-04 1.827800e-04 1.842026e-04 1.861265e-04 1.878773e-04 1.903013e-04 1.922949e-04 1.950776e-04 1.971333e-04 2.000327e-04 2.018966e-04 2.046189e-04 2.059961e-04 2.082467e-04 2.088391e-04 2.103703e-04 2.099151e-04 2.105653e-04 2.088687e-04 2.085870e-04 2.055476e-04 2.044009e-04 2.000173e-04 1.981753e-04 1.925361e-04 1.902367e-04 1.834963e-04 1.809965e-04 1.733440e-04 1.708676e-04 1.624986e-04 1.601941e-04 1.512950e-04 1.492153e-04 1.399605e-04 1.380687e-04 1.286298e-04 1.268280e-04 1.173838e-04 1.155534e-04 1.062955e-04 1.043379e-04 9.546463e-05 9.332941e-05 8.503137e-05 8.272869e-05 7.516904e-05 7.276503e-05 6.606234e-05 6.366297e-05 5.788091e-05 5.561055e-05 5.075652e-05 4.873693e-05 4.476861e-05 4.310233e-05 3.993919e-05 3.869894e-05 3.623541e-05 
5.500805e-05 5.239414e-05 5.161144e-05 4.945149e-05 4.913535e-05 4.732577e-05 4.744737e-05 4.588488e-05 4.638092e-05 4.496380e-05 4.574732e-05 4.437719e-05 4.535025e-05 4.393416e-05 4.500153e-05 4.345439e-05 4.453730e-05 4.278428e-05 4.383376e-05 4.181280e-05 4.282180e-05 4.048639e-05 4.150012e-05 3.882315e-05 3.994670e-05 3.692624e-05 3.832855e-05 3.499640e-05 3.690919e-05 3.334234e-05 3.605229e-05 3.238531e-05 3.621730e-05 3.265123e-05 3.794008e-05 3.474122e-05 4.179032e-05 3.927201e-05 4.830002e-05 4.678395e-05 5.786573e-05 5.762608e-05 7.063987e-05 7.184186e-05 8.643869e-05 8.908870e-05 1.046990e-04 1.086231e-04 1.245082e-04 1.293692e-04 1.447140e-04 1.500664e-04 1.640962e-04 1.694656e-04 1.815633e-04 1.865317e-04 1.963290e-04 2.006035e-04 2.080257e-04 2.114779e-04 2.167339e-04 2.194005e-04 2.229229e-04 2.249736e-04 2.273243e-04 2.290061e-04 2.307691e-04 2.323433e-04 2.340264e-04 2.357102e-04 2.376739e-04 2.395977e-04 2.420191e-04 2.442033e-04 2.470753e-04 2.494263e-04 2.525855e-04 2.549074e-04 2.580796e-04 2.600971e-04 2.629515e-04 2.643409e-04 2.665448e-04 2.669698e-04 2.682389e-04 2.673897e-04 2.675302e-04 2.651606e-04 2.641010e-04 2.600589e-04 2.578657e-04 2.521124e-04 2.489860e-04 2.415994e-04 2.378462e-04 2.290072e-04 2.249904e-04 2.149571e-04 2.110335e-04 2.001095e-04 1.965672e-04 1.850732e-04 1.820854e-04 1.703376e-04 1.679440e-04 1.562398e-04 1.543582e-04 1.429669e-04 1.414305e-04 1.305846e-04 1.291926e-04 1.190798e-04 1.176479e-04 1.084047e-04 1.068046e-04 9.851285e-05 9.669264e-05 8.938246e-05 8.736822e-05 8.102470e-05 7.890606e-05 7.347953e-05 7.138565e-05 6.680238e-05 6.487489e-05 6.104629e-05 5.941488e-05 5.624410e-05 
4.853267e-05 4.563871e-05 4.500577e-05 4.279066e-05 4.283070e-05 4.112303e-05 4.175557e-05 4.039687e-05 4.151512e-05 4.036089e-05 4.184258e-05 4.076181e-05 4.248057e-05 4.135497e-05 4.319244e-05 4.191596e-05 4.377465e-05 4.225380e-05 4.407043e-05 4.222552e-05 4.398422e-05 4.175178e-05 4.349624e-05 4.083313e-05 4.267626e-05 3.956639e-05 4.169600e-05 3.816084e-05 4.083949e-05 3.695261e-05 4.050968e-05 3.641354e-05 4.122695e-05 3.714674e-05 4.361108e-05 3.985700e-05 4.833556e-05 4.528412e-05 5.604533e-05 5.409383e-05 6.723887e-05 6.673638e-05 8.213266e-05 8.330192e-05 1.005427e-04 1.034149e-04 1.218248e-04 1.262099e-04 1.449061e-04 1.504116e-04 1.684173e-04 1.745144e-04 1.909029e-04 1.970247e-04 2.110628e-04 2.167090e-04 2.279695e-04 2.327921e-04 2.412077e-04 2.450586e-04 2.509092e-04 2.538422e-04 2.576796e-04 2.599105e-04 2.624413e-04 2.642808e-04 2.662327e-04 2.680078e-04 2.700085e-04 2.719900e-04 2.744781e-04 2.768275e-04 2.800076e-04 2.827466e-04 2.865890e-04 2.895942e-04 2.938706e-04 2.968879e-04 3.012307e-04 3.039062e-04 3.078804e-04 3.098032e-04 3.129796e-04 3.137336e-04 3.157565e-04 3.149747e-04 3.156177e-04 3.130305e-04 3.122337e-04 3.077036e-04 3.055850e-04 2.991174e-04 2.959533e-04 2.876813e-04 2.838542e-04 2.739998e-04 2.699201e-04 2.587454e-04 2.547662e-04 2.425312e-04 2.388782e-04 2.258210e-04 2.225590e-04 2.089017e-04 2.059473e-04 1.919195e-04 1.890926e-04 1.749554e-04 1.720506e-04 1.581054e-04 1.549600e-04 1.415342e-04 1.380737e-04 1.254879e-04 1.217411e-04 1.102698e-04 1.063558e-04 9.619437e-05 9.229166e-05 8.353975e-05 7.984942e-05 7.251163e-05 6.922389e-05 6.322495e-05 6.049488e-05 5.570215e-05 5.363583e-05 4.988276e-05 
7.252899e-05 6.859223e-05 6.717600e-05 6.390182e-05 6.320121e-05 6.044958e-05 6.042037e-05 5.805180e-05 5.860030e-05 5.647669e-05 5.747559e-05 5.546227e-05 5.676879e-05 5.473766e-05 5.621282e-05 5.404621e-05 5.557425e-05 5.316885e-05 5.467589e-05 5.194638e-05 5.341743e-05 5.029970e-05 5.179291e-05 4.824751e-05 4.990456e-05 4.592216e-05 4.797343e-05 4.358431e-05 4.634752e-05 4.163676e-05 4.550728e-05 4.063461e-05 4.606468e-05 4.128339e-05 4.874623e-05 4.441031e-05 5.434518e-05 5.089186e-05 6.362916e-05 6.152798e-05 7.720167e-05 7.687259e-05 9.533753e-05 9.705542e-05 1.178354e-04 1.216488e-04 1.439406e-04 1.496328e-04 1.723795e-04 1.794896e-04 2.015172e-04 2.094187e-04 2.296108e-04 2.376278e-04 2.550990e-04 2.626302e-04 2.768586e-04 2.834772e-04 2.943673e-04 2.998756e-04 3.077382e-04 3.121681e-04 3.176285e-04 3.211939e-04 3.250502e-04 3.280691e-04 3.311356e-04 3.339423e-04 3.369097e-04 3.397767e-04 3.431151e-04 3.461988e-04 3.501140e-04 3.534278e-04 3.578695e-04 3.612824e-04 3.659914e-04 3.692450e-04 3.738216e-04 3.765587e-04 3.805383e-04 3.823408e-04 3.852663e-04 3.856987e-04 3.871855e-04 3.858430e-04 3.856343e-04 3.821911e-04 3.802005e-04 3.744518e-04 3.707896e-04 3.626797e-04 3.576523e-04 3.472807e-04 3.413552e-04 3.289592e-04 3.226912e-04 3.086093e-04 3.025445e-04 2.871733e-04 2.817470e-04 2.655055e-04 2.609674e-04 2.442745e-04 2.406597e-04 2.239227e-04 2.210746e-04 2.046805e-04 2.023153e-04 1.866167e-04 1.844084e-04 1.697046e-04 1.673666e-04 1.538840e-04 1.512287e-04 1.391085e-04 1.360746e-04 1.253725e-04 1.220208e-04 1.127179e-04 1.092041e-04 1.012253e-04 9.775917e-05 9.099331e-05 8.779670e-05 8.211317e-05 7.938363e-05 7.464381e-05 
6.023726e-05 5.605523e-05 5.487634e-05 5.162650e-05 5.141189e-05 4.886404e-05 4.949826e-05 4.744417e-05 4.877842e-05 4.703050e-05 4.889645e-05 4.728523e-05 4.950960e-05 4.788186e-05 5.030219e-05 4.852043e-05 5.100212e-05 4.894558e-05 5.139997e-05 4.896655e-05 5.136909e-05 4.847788e-05 5.088452e-05 4.747902e-05 5.003906e-05 4.609253e-05 4.905572e-05 4.458146e-05 4.829756e-05 4.336681e-05 4.827601e-05 4.304353e-05 4.965501e-05 4.438670e-05 5.324075e-05 4.832974e-05 5.993749e-05 5.589102e-05 7.064881e-05 6.803185e-05 8.611676e-05 8.545337e-05 1.067205e-04 1.083738e-04 1.322883e-04 1.363550e-04 1.619910e-04 1.682486e-04 1.943739e-04 2.023014e-04 2.275416e-04 2.364130e-04 2.594617e-04 2.684864e-04 2.883146e-04 2.967874e-04 3.128026e-04 3.202243e-04 3.323448e-04 3.384882e-04 3.471177e-04 3.520287e-04 3.579436e-04 3.618850e-04 3.660628e-04 3.694220e-04 3.728515e-04 3.760352e-04 3.795471e-04 3.828877e-04 3.870370e-04 3.907254e-04 3.957390e-04 3.997906e-04 4.055772e-04 4.098276e-04 4.160366e-04 4.201604e-04 4.262679e-04 4.298160e-04 4.352218e-04 4.376727e-04 4.417965e-04 4.426198e-04 4.449892e-04 4.437155e-04 4.440388e-04 4.403251e-04 4.385433e-04 4.322213e-04 4.285294e-04 4.196217e-04 4.144463e-04 4.031435e-04 3.970712e-04 3.836724e-04 3.773317e-04 3.621684e-04 3.560937e-04 3.394678e-04 3.339845e-04 3.161484e-04 3.113189e-04 2.925036e-04 2.881529e-04 2.686257e-04 2.644330e-04 2.445490e-04 2.401710e-04 2.203880e-04 2.155705e-04 1.964148e-04 1.910603e-04 1.730576e-04 1.672384e-04 1.508350e-04 1.447610e-04 1.302646e-04 1.242256e-04 1.117798e-04 1.060849e-04 9.567830e-05 9.060610e-05 8.210578e-05 7.787292e-05 7.106651e-05 6.781310e-05 6.244902e-05 
8.898352e-05 8.329336e-05 8.088192e-05 7.611622e-05 7.475850e-05 7.073847e-05 7.036653e-05 6.691409e-05 6.739314e-05 6.433042e-05 6.548094e-05 6.263247e-05 6.425479e-05 6.145220e-05 6.335222e-05 6.044064e-05 6.245586e-05 5.930067e-05 6.132523e-05 5.781780e-05 5.982532e-05 5.588641e-05 5.794877e-05 5.352993e-05 5.583026e-05 5.091536e-05 5.375357e-05 4.836508e-05 5.215505e-05 4.637038e-05 5.162795e-05 4.560834e-05 5.292792e-05 4.695483e-05 5.696921e-05 5.147191e-05 6.478671e-05 6.033696e-05 7.743318e-05 7.468631e-05 9.579593e-05 9.537588e-05 1.203551e-04 1.227082e-04 1.509493e-04 1.562132e-04 1.866381e-04 1.945726e-04 2.257321e-04 2.357413e-04 2.660116e-04 2.772535e-04 3.050889e-04 3.166405e-04 3.408223e-04 3.518544e-04 3.716777e-04 3.815930e-04 3.969480e-04 4.054541e-04 4.167901e-04 4.238964e-04 4.320823e-04 4.380336e-04 4.441535e-04 4.493246e-04 4.544565e-04 4.592367e-04 4.642625e-04 4.689586e-04 4.744399e-04 4.792128e-04 4.853465e-04 4.901874e-04 4.968342e-04 5.015696e-04 5.083317e-04 5.126471e-04 5.189677e-04 5.224403e-04 5.277028e-04 5.298401e-04 5.334564e-04 5.337420e-04 5.352274e-04 5.331744e-04 5.322112e-04 5.274197e-04 5.239130e-04 5.161243e-04 5.102433e-04 4.993803e-04 4.915718e-04 4.777516e-04 4.687024e-04 4.522136e-04 4.427501e-04 4.240015e-04 4.149385e-04 3.944014e-04 3.863801e-04 3.645488e-04 3.579142e-04 3.352940e-04 3.300519e-04 3.071635e-04 3.030244e-04 2.804030e-04 2.768944e-04 2.550671e-04 2.516740e-04 2.311161e-04 2.274100e-04 2.084963e-04 2.042203e-04 1.871909e-04 1.822910e-04 1.672438e-04 1.618503e-04 1.487593e-04 1.431351e-04 1.318853e-04 1.263603e-04 1.167848e-04 1.116922e-04 1.036023e-04 9.922845e-05 9.243203e-05 
6.982280e-05 6.396972e-05 6.192976e-05 5.730322e-05 5.659556e-05 5.289946e-05 5.336220e-05 5.033590e-05 5.176809e-05 4.917970e-05 5.135774e-05 4.899793e-05 5.169289e-05 4.937153e-05 5.236849e-05 4.991492e-05 5.303499e-05 5.030120e-05 5.342553e-05 5.029039e-05 5.338456e-05 4.975673e-05 5.289267e-05 4.871102e-05 5.208310e-05 4.731610e-05 5.124846e-05 4.589801e-05 5.084165e-05 4.495933e-05 5.147927e-05 4.520135e-05 5.395307e-05 4.755090e-05 5.924107e-05 5.316769e-05 6.848746e-05 6.338735e-05 8.290585e-05 7.955573e-05 1.035747e-04 1.027471e-04 1.311438e-04 1.334231e-04 1.655338e-04 1.711445e-04 2.057458e-04 2.144584e-04 2.498792e-04 2.610298e-04 2.953850e-04 3.080056e-04 3.394996e-04 3.525170e-04 3.797433e-04 3.921894e-04 4.143525e-04 4.255303e-04 4.425415e-04 4.521115e-04 4.645431e-04 4.725214e-04 4.814378e-04 4.881186e-04 4.948314e-04 5.006638e-04 5.064670e-04 5.119199e-04 5.178623e-04 5.233094e-04 5.300453e-04 5.356887e-04 5.434250e-04 5.492619e-04 5.577926e-04 5.636160e-04 5.724155e-04 5.778375e-04 5.861822e-04 5.906717e-04 5.977658e-04 6.007026e-04 6.057957e-04 6.065426e-04 6.090349e-04 6.070234e-04 6.065558e-04 6.013725e-04 5.978975e-04 5.893519e-04 5.831730e-04 5.713234e-04 5.630813e-04 5.482022e-04 5.387823e-04 5.212708e-04 5.116287e-04 4.918814e-04 4.828223e-04 4.611391e-04 4.531256e-04 4.296952e-04 4.227582e-04 3.977380e-04 3.915269e-04 3.651746e-04 3.591238e-04 3.319060e-04 3.254492e-04 2.980658e-04 2.908182e-04 2.641247e-04 2.559795e-04 2.308411e-04 2.219670e-04 1.991057e-04 1.898718e-04 1.697608e-04 1.606319e-04 1.434621e-04 1.349006e-04 1.206130e-04 1.130102e-04 1.013658e-04 9.500583e-05 8.566429e-05 8.071525e-05 7.330113e-05 
1.036513e-04 9.560992e-05 9.169544e-05 8.491257e-05 8.251143e-05 7.676557e-05 7.577099e-05 7.084093e-05 7.105997e-05 6.672172e-05 6.790503e-05 6.393405e-05 6.580777e-05 6.198616e-05 6.428514e-05 6.041269e-05 6.291440e-05 5.882100e-05 6.137875e-05 5.693467e-05 5.950807e-05 5.462857e-05 5.730812e-05 5.195034e-05 5.497298e-05 4.912727e-05 5.288033e-05 4.656405e-05 5.157728e-05 4.484367e-05 5.177148e-05 4.474584e-05 5.434148e-05 4.728503e-05 6.036204e-05 5.374195e-05 7.110726e-05 6.562850e-05 8.796665e-05 8.451867e-05 1.122216e-04 1.117218e-04 1.446941e-04 1.478627e-04 1.853698e-04 1.925132e-04 2.331475e-04 2.440359e-04 2.858468e-04 2.997328e-04 3.405076e-04 3.562803e-04 3.939099e-04 4.103297e-04 4.431651e-04 4.591080e-04 4.862189e-04 5.008643e-04 5.221412e-04 5.350649e-04 5.511529e-04 5.623167e-04 5.744067e-04 5.840654e-04 5.936003e-04 6.021609e-04 6.105284e-04 6.184041e-04 6.266826e-04 6.341774e-04 6.429838e-04 6.502280e-04 6.596854e-04 6.666232e-04 6.764287e-04 6.828391e-04 6.923924e-04 6.979205e-04 7.064656e-04 7.106539e-04 7.174045e-04 7.197230e-04 7.239603e-04 7.238460e-04 7.249931e-04 7.219012e-04 7.195864e-04 7.130539e-04 7.071766e-04 6.968911e-04 6.876912e-04 6.735497e-04 6.616553e-04 6.437888e-04 6.301930e-04 6.089363e-04 5.948624e-04 5.706760e-04 5.573412e-04 5.307285e-04 5.190760e-04 4.905473e-04 4.810447e-04 4.511418e-04 4.437164e-04 4.130648e-04 4.071905e-04 3.765240e-04 3.714191e-04 3.415396e-04 3.364012e-04 3.080816e-04 3.022853e-04 2.761560e-04 2.693738e-04 2.458419e-04 2.380658e-04 2.172942e-04 2.087859e-04 1.907292e-04 1.819257e-04 1.663974e-04 1.578064e-04 1.445495e-04 1.366574e-04 1.253966e-04 1.186025e-04 1.090737e-04 
7.630281e-05 6.826326e-05 6.492695e-05 5.845281e-05 5.691040e-05 5.163221e-05 5.165865e-05 4.726095e-05 4.858945e-05 4.479431e-05 4.713380e-05 4.368862e-05 4.674277e-05 4.341539e-05 4.690548e-05 4.348718e-05 4.718015e-05 4.349470e-05 4.723534e-05 4.314941e-05 4.689395e-05 4.232280e-05 4.616877e-05 4.107195e-05 4.527836e-05 3.964536e-05 4.463787e-05 3.847232e-05 4.483215e-05 3.815251e-05 4.659341e-05 3.947108e-05 5.081139e-05 4.345462e-05 5.858373e-05 5.144439e-05 7.126451e-05 6.510800e-05 9.041792e-05 8.628471e-05 1.175864e-04 1.166098e-04 1.538674e-04 1.569867e-04 1.994230e-04 2.070978e-04 2.531320e-04 2.651718e-04 3.125625e-04 3.281397e-04 3.743199e-04 3.921546e-04 4.346731e-04 4.533191e-04 4.902701e-04 5.084106e-04 5.387415e-04 5.554136e-04 5.790446e-04 5.937495e-04 6.114903e-04 6.241821e-04 6.374812e-04 6.484593e-04 6.590538e-04 6.688022e-04 6.783518e-04 6.873697e-04 6.971541e-04 7.058212e-04 7.165580e-04 7.250562e-04 7.368614e-04 7.451531e-04 7.576213e-04 7.654616e-04 7.778158e-04 7.847760e-04 7.960364e-04 8.015324e-04 8.106721e-04 8.140093e-04 8.200885e-04 8.205358e-04 8.228170e-04 8.197105e-04 8.177617e-04 8.106191e-04 8.044090e-04 7.930293e-04 7.830036e-04 7.675146e-04 7.546154e-04 7.354302e-04 7.209928e-04 6.986570e-04 6.841494e-04 6.591255e-04 6.457805e-04 6.182819e-04 6.067612e-04 5.767526e-04 5.669940e-04 5.343841e-04 5.257037e-04 4.906357e-04 4.820369e-04 4.451162e-04 4.356687e-04 3.980004e-04 3.871413e-04 3.501542e-04 3.378142e-04 3.029569e-04 2.895092e-04 2.579532e-04 2.440493e-04 2.165068e-04 2.028866e-04 1.795800e-04 1.669203e-04 1.476707e-04 1.364975e-04 1.208699e-04 1.115292e-04 9.897360e-05 9.164022e-05 8.159735e-05 
1.155416e-04 1.043347e-04 9.822163e-05 8.870293e-05 8.472166e-05 7.662017e-05 7.459919e-05 6.764203e-05 6.730398e-05 6.120922e-05 6.220947e-05 5.668827e-05 5.865453e-05 5.342252e-05 5.599638e-05 5.079288e-05 5.367330e-05 4.828465e-05 5.127239e-05 4.555277e-05 4.859197e-05 4.247293e-05 4.568479e-05 3.916612e-05 4.286816e-05 3.598923e-05 4.069482e-05 3.349763e-05 3.989468e-05 3.240395e-05 4.132015e-05 3.357328e-05 4.594114e-05 3.808861e-05 5.491568e-05 4.737077e-05 6.969266e-05 6.325375e-05 9.202048e-05 8.786133e-05 1.237177e-04 1.231843e-04 1.661707e-04 1.704269e-04 2.197105e-04 2.293706e-04 2.831472e-04 2.980530e-04 3.537109e-04 3.729395e-04 4.274660e-04 4.495531e-04 5.000718e-04 5.233540e-04 5.676401e-04 5.905994e-04 6.274376e-04 6.489546e-04 6.782631e-04 6.977302e-04 7.204405e-04 7.377354e-04 7.554787e-04 7.708322e-04 7.855172e-04 7.993283e-04 8.127141e-04 8.253671e-04 8.387251e-04 8.504592e-04 8.643941e-04 8.752499e-04 8.897002e-04 8.995375e-04 9.139182e-04 9.224653e-04 9.358780e-04 9.427727e-04 9.542081e-04 9.590147e-04 9.675049e-04 9.697210e-04 9.744347e-04 9.735085e-04 9.738043e-04 9.691755e-04 9.646430e-04 9.558068e-04 9.463349e-04 9.329280e-04 9.188220e-04 9.007137e-04 8.828232e-04 8.601652e-04 8.399156e-04 8.130945e-04 7.923123e-04 7.618105e-04 7.423395e-04 7.085996e-04 6.918431e-04 6.552487e-04 6.418289e-04 6.028295e-04 5.924965e-04 5.517816e-04 5.435879e-04 5.021762e-04 4.948303e-04 4.539919e-04 4.462528e-04 4.072905e-04 3.982744e-04 3.622712e-04 3.516008e-04 3.192441e-04 3.070404e-04 2.785830e-04 2.653471e-04 2.406856e-04 2.271327e-04 2.059446e-04 1.928414e-04 1.747166e-04 1.627536e-04 1.472839e-04 1.369951e-04 1.238155e-04 
7.847598e-05 6.756177e-05 6.233649e-05 5.336970e-05 5.050538e-05 4.303696e-05 4.222239e-05 3.588015e-05 3.676481e-05 3.122120e-05 3.343084e-05 2.838190e-05 3.153700e-05 2.669629e-05 3.043819e-05 2.554633e-05 2.957301e-05 2.441967e-05 2.853032e-05 2.297978e-05 2.712305e-05 2.112979e-05 2.544741e-05 1.904761e-05 2.390209e-05 1.717448e-05 2.315008e-05 1.615634e-05 2.402833e-05 1.676582e-05 2.744845e-05 1.986608e-05 3.436465e-05 2.648443e-05 4.587229e-05 3.800417e-05 6.340400e-05 5.635395e-05 8.884944e-05 8.396428e-05 1.243660e-04 1.233069e-04 1.717835e-04 1.760702e-04 2.317841e-04 2.422992e-04 3.032451e-04 3.199218e-04 3.830989e-04 4.049151e-04 4.668145e-04 4.920677e-04 5.493283e-04 5.760599e-04 6.260935e-04 6.525101e-04 6.939305e-04 7.187066e-04 7.514724e-04 7.738826e-04 7.991488e-04 8.190369e-04 8.387787e-04 8.564070e-04 8.729191e-04 8.887593e-04 9.041487e-04 9.186740e-04 9.344577e-04 9.479926e-04 9.648823e-04 9.775375e-04 9.954384e-04 1.007120e-03 1.025295e-03 1.035738e-03 1.053050e-03 1.061835e-03 1.076977e-03 1.083525e-03 1.095202e-03 1.098787e-03 1.105856e-03 1.105672e-03 1.107254e-03 1.102539e-03 1.098117e-03 1.088314e-03 1.077859e-03 1.062770e-03 1.046889e-03 1.026772e-03 1.006825e-03 9.823510e-04 9.603658e-04 9.323532e-04 9.106361e-04 8.796384e-04 8.601287e-04 8.261112e-04 8.097693e-04 7.721382e-04 7.586775e-04 7.167212e-04 7.048217e-04 6.583450e-04 6.462422e-04 5.960396e-04 5.822116e-04 5.301153e-04 5.137781e-04 4.622594e-04 4.435094e-04 3.950435e-04 3.746764e-04 3.311698e-04 3.103345e-04 2.728252e-04 2.526878e-04 2.213574e-04 2.028795e-04 1.772762e-04 1.611232e-04 1.404513e-04 1.269963e-04 1.103640e-04 9.973939e-05 8.631603e-05 
1.234204e-04 1.079454e-04 9.869625e-05 8.546600e-05 7.916606e-05 6.784736e-05 6.421760e-05 5.446938e-05 5.310881e-05 4.456920e-05 4.500199e-05 3.729054e-05 3.901248e-05 3.174759e-05 3.427572e-05 2.710729e-05 3.003539e-05 2.268847e-05 2.574716e-05 1.806545e-05 2.118177e-05 1.315272e-05 1.650001e-05 8.242133e-06 1.226871e-05 3.970833e-06 9.394572e-06 1.217634e-06 8.978262e-06 9.610376e-07 1.214069e-05 4.180805e-06 1.993088e-05 1.191385e-05 3.343058e-05 2.551476e-05 5.405197e-05 4.698913e-05 8.380702e-05 7.907512e-05 1.251961e-04 1.247658e-04 1.805208e-04 1.862869e-04 2.508285e-04 2.639609e-04 3.350192e-04 3.555449e-04 4.296171e-04 4.564026e-04 5.293533e-04 5.604451e-04 6.283170e-04 6.614598e-04 7.212325e-04 7.543667e-04 8.044569e-04 8.360565e-04 8.764589e-04 9.056609e-04 9.377354e-04 9.642797e-04 9.902761e-04 1.014316e-03 1.036766e-03 1.058626e-03 1.079742e-03 1.099691e-03 1.120920e-03 1.139029e-03 1.160841e-03 1.176966e-03 1.198930e-03 1.212789e-03 1.233848e-03 1.245124e-03 1.263939e-03 1.272327e-03 1.287566e-03 1.292752e-03 1.303270e-03 1.304885e-03 1.309793e-03 1.307388e-03 1.306049e-03 1.299119e-03 1.291119e-03 1.279154e-03 1.264349e-03 1.246942e-03 1.225654e-03 1.202658e-03 1.175979e-03 1.147612e-03 1.117588e-03 1.084339e-03 1.053748e-03 1.016087e-03 9.877792e-04 9.458873e-04 9.219781e-04 8.757786e-04 8.570693e-04 8.066081e-04 7.924726e-04 7.383893e-04 7.271290e-04 6.708922e-04 6.603767e-04 6.041106e-04 5.924425e-04 5.384340e-04 5.244110e-04 4.745557e-04 4.578331e-04 4.132781e-04 3.942694e-04 3.553628e-04 3.349915e-04 3.014725e-04 2.808885e-04 2.521688e-04 2.325055e-04 2.079125e-04 1.901198e-04 1.690400e-04 1.537975e-04 1.357252e-04 