# vtk DataFile Version 2.0
Comment goes here
ASCII

DATASET STRUCTURED_POINTS
FIELD FieldData 1
TIME 1 1 double
0.18500000
DIMENSIONS    128   128   1

ORIGIN    0.000   0.000   0.000
SPACING   0.039062 0.039062   1.000

POINT_DATA   16384
SCALARS Omega double
LOOKUP_TABLE default

1.935652e-14 1.336664e-14 -5.712545e-15 -2.077981e-14 -7.752714e-15 -9.017833e-15 -2.291034e-14 -9.586401e-15 1.287351e-14 1.913207e-14 1.974195e-14 2.660991e-14 1.755546e-14 2.928078e-14 2.780661e-14 1.288944e-14 -1.752083e-14 7.814942e-15 1.192532e-14 -6.300895e-15 -2.404582e-14 -5.392878e-15 9.803225e-15 1.691082e-15 -2.019062e-14 3.331667e-15 -3.521355e-15 2.963760e-15 -2.179145e-14 -5.156043e-14 8.505148e-15 -6.580874e-15 -3.114845e-14 -7.738043e-14 -4.936956e-14 -3.365238e-14 -5.562206e-14 -3.015443e-14 -3.071318e-14 -4.096299e-14 -7.633326e-16 -8.178487e-15 1.892068e-14 3.641035e-14 3.491563e-14 2.786909e-14 2.882949e-14 -1.522553e-15 -1.979303e-14 -4.676727e-14 -5.266149e-14 -2.270779e-14 -1.125107e-14 5.509251e-17 1.431501e-14 1.518101e-14 1.917703e-15 8.380680e-15 1.190885e-14 4.984408e-15 5.715128e-15 1.598364e-14 1.960226e-14 1.075373e-14 -2.310651e-15 7.450393e-15 1.550402e-14 2.032085e-14 2.920925e-14 2.537130e-14 1.321491e-14 1.968381e-14 -2.382974e-15 -2.907212e-14 -2.089705e-14 -1.855739e-14 -7.348888e-15 4.386937e-15 7.892252e-15 5.297271e-15 4.766905e-15 -1.399732e-14 8.661584e-15 1.997007e-14 3.511483e-14 5.630487e-14 5.950086e-14 1.165802e-14 1.709542e-14 1.856809e-14 2.459748e-14 3.762032e-14 1.709492e-14 -2.298104e-14 1.443621e-14 6.683104e-14 2.907396e-14 1.278865e-14 9.568522e-15 2.618301e-14 2.213748e-14 -4.127370e-14 -2.513525e-14 -1.770985e-14 1.655594e-14 6.789300e-14 4.570355e-14 2.403882e-14 1.041892e-14 -1.087529e-14 -1.695871e-14 -1.211291e-14 -1.151000e-14 -1.320232e-14 -6.868852e-15 -9.307531e-15 -2.290019e-14 -2.273452e-14 -1.634596e-14 -8.149254e-15 -8.641206e-15 -4.043239e-15 -4.039908e-15 -2.598608e-15 4.057225e-16 1.602544e-15 5.402771e-15 1.879252e-14 
9.076772e-06 8.754553e-06 8.559584e-06 8.309977e-06 8.143876e-06 7.960720e-06 7.804764e-06 7.680795e-06 7.517243e-06 7.444473e-06 7.257770e-06 7.227841e-06 7.005692e-06 7.010178e-06 6.744478e-06 6.775142e-06 6.462733e-06 6.511827e-06 6.155036e-06 6.215754e-06 5.822702e-06 5.889913e-06 5.474577e-06 5.545969e-06 5.128033e-06 5.205662e-06 4.810214e-06 4.902315e-06 4.559403e-06 4.682088e-06 4.426061e-06 4.604319e-06 4.472707e-06 4.739956e-06 4.771477e-06 5.166991e-06 5.398244e-06 5.962070e-06 6.422708e-06 7.188350e-06 7.895072e-06 8.881050e-06 9.831471e-06 1.103365e-05 1.220175e-05 1.358869e-05 1.492368e-05 1.643691e-05 1.786683e-05 1.942686e-05 2.086707e-05 2.238451e-05 2.374978e-05 2.513928e-05 2.635702e-05 2.755107e-05 2.857268e-05 2.953204e-05 3.033982e-05 3.105836e-05 3.166637e-05 3.216960e-05 3.261852e-05 3.295641e-05 3.330378e-05 3.353994e-05 3.384801e-05 3.404760e-05 3.437148e-05 3.459024e-05 3.496839e-05 3.524453e-05 3.569316e-05 3.604278e-05 3.655451e-05 3.697066e-05 3.751714e-05 3.797191e-05 3.850951e-05 3.895849e-05 3.943578e-05 3.982424e-05 4.019002e-05 4.046020e-05 4.067096e-05 4.076973e-05 4.079542e-05 4.068164e-05 4.050898e-05 4.015935e-05 3.979230e-05 3.920469e-05 3.866209e-05 3.785545e-05 3.716647e-05 3.617733e-05 3.537591e-05 3.425203e-05 3.337150e-05 3.216433e-05 3.123370e-05 2.999134e-05 2.903364e-05 2.779583e-05 2.682863e-05 2.562450e-05 2.466187e-05 2.351027e-05 2.256504e-05 2.147667e-05 2.056210e-05 1.954233e-05 1.867272e-05 1.772425e-05 1.691423e-05 1.603895e-05 1.530210e-05 1.450204e-05 1.384911e-05 1.312657e-05 1.256399e-05 1.192119e-05 1.145012e-05 1.088860e-05 1.050469e-05 1.002479e-05 9.718558e-06 9.319011e-06 
1.813899e-05 1.747849e-05 1.707825e-05 1.656407e-05 1.622199e-05 1.584240e-05 1.552121e-05 1.526223e-05 1.492658e-05 1.477271e-05 1.439152e-05 1.432645e-05 1.387514e-05 1.388227e-05 1.334460e-05 1.340763e-05 1.277725e-05 1.288065e-05 1.216223e-05 1.229220e-05 1.150205e-05 1.164792e-05 1.081411e-05 1.097066e-05 1.013270e-05 1.030328e-05 9.511470e-06 9.711715e-06 9.026243e-06 9.287598e-06 8.777221e-06 9.149100e-06 8.888952e-06 9.438009e-06 9.505701e-06 1.031078e-05 1.077985e-05 1.192181e-05 1.285207e-05 1.439901e-05 1.582443e-05 1.781453e-05 1.973079e-05 2.215663e-05 2.451177e-05 2.731075e-05 3.000281e-05 3.305756e-05 3.594168e-05 3.909219e-05 4.199776e-05 4.506379e-05 4.781889e-05 5.062827e-05 5.308643e-05 5.550286e-05 5.756600e-05 5.951019e-05 6.114254e-05 6.260196e-05 6.383181e-05 6.485763e-05 6.576693e-05 6.645954e-05 6.716411e-05 6.765126e-05 6.827640e-05 6.868888e-05 6.934539e-05 6.979508e-05 7.056028e-05 7.112384e-05 7.203028e-05 7.274011e-05 7.377298e-05 7.461532e-05 7.571774e-05 7.663683e-05 7.772120e-05 7.862813e-05 7.959108e-05 8.037593e-05 8.111443e-05 8.166070e-05 8.208688e-05 8.228693e-05 8.233976e-05 8.210963e-05 8.176165e-05 8.105318e-05 8.031162e-05 7.911952e-05 7.802181e-05 7.638394e-05 7.498874e-05 7.297919e-05 7.135522e-05 6.907153e-05 6.728679e-05 6.483444e-05 6.294839e-05 6.042621e-05 5.848630e-05 5.597594e-05 5.401844e-05 5.157955e-05 4.963333e-05 4.730411e-05 4.539514e-05 4.319668e-05 4.135148e-05 3.929371e-05 3.754053e-05 3.562775e-05 3.399544e-05 3.223031e-05 3.074548e-05 2.913109e-05 2.781475e-05 2.635505e-05 2.521963e-05 2.391871e-05 2.296628e-05 2.182722e-05 2.104895e-05 2.007265e-05 1.944964e-05 1.863400e-05 
2.719785e-05 2.617716e-05 2.555962e-05 2.476378e-05 2.423839e-05 2.364917e-05 2.315857e-05 2.275445e-05 2.224420e-05 2.200146e-05 2.142367e-05 2.131746e-05 2.063413e-05 2.063928e-05 1.982520e-05 1.991700e-05 1.896215e-05 1.911714e-05 1.802844e-05 1.822566e-05 1.702793e-05 1.725106e-05 1.598717e-05 1.622789e-05 1.495815e-05 1.522087e-05 1.402183e-05 1.432931e-05 1.329229e-05 1.369112e-05 1.292009e-05 1.348420e-05 1.309259e-05 1.392237e-05 1.402739e-05 1.524236e-05 1.595532e-05 1.767885e-05 1.909081e-05 2.142764e-05 2.359104e-05 2.660098e-05 2.951059e-05 3.318432e-05 3.676277e-05 4.100688e-05 4.510064e-05 4.973798e-05 5.412806e-05 5.891617e-05 6.334406e-05 6.800934e-05 7.221425e-05 7.649513e-05 8.025473e-05 8.394415e-05 8.710954e-05 9.008696e-05 9.260374e-05 9.484991e-05 9.676069e-05 9.835271e-05 9.978114e-05 1.008703e-04 1.019909e-04 1.027692e-04 1.037702e-04 1.044339e-04 1.054808e-04 1.061969e-04 1.074042e-04 1.082862e-04 1.097003e-04 1.107953e-04 1.123911e-04 1.136768e-04 1.153664e-04 1.167579e-04 1.184078e-04 1.197711e-04 1.212253e-04 1.223952e-04 1.234999e-04 1.243019e-04 1.249273e-04 1.252005e-04 1.252588e-04 1.248782e-04 1.243327e-04 1.232276e-04 1.220938e-04 1.202584e-04 1.185962e-04 1.160896e-04 1.139894e-04 1.109250e-04 1.084893e-04 1.050151e-04 1.023432e-04 9.861780e-05 9.579393e-05 9.196469e-05 8.905410e-05 8.524165e-05 8.229340e-05 7.858503e-05 7.563890e-05 7.209023e-05 6.918433e-05 6.582647e-05 6.300245e-05 5.985104e-05 5.715525e-05 5.421858e-05 5.169935e-05 4.898386e-05 4.668615e-05 4.419899e-05 4.215853e-05 3.990770e-05 3.814608e-05 3.613916e-05 3.466103e-05 3.290341e-05 3.169588e-05 3.018909e-05 2.922327e-05 2.796391e-05 
3.620305e-05 3.477244e-05 3.390575e-05 3.278197e-05 3.204286e-05 3.120300e-05 3.051451e-05 2.993112e-05 2.922005e-05 2.886262e-05 2.806438e-05 2.790065e-05 2.696376e-05 2.696084e-05 2.585096e-05 2.597620e-05 2.467951e-05 2.490150e-05 2.342720e-05 2.371730e-05 2.209897e-05 2.243401e-05 2.072978e-05 2.109657e-05 1.938804e-05 1.978974e-05 1.818025e-05 1.864416e-05 1.725646e-05 1.784189e-05 1.681536e-05 1.761888e-05 1.710540e-05 1.826051e-05 1.841729e-05 2.008502e-05 2.106214e-05 2.341076e-05 2.533204e-05 2.850639e-05 3.144459e-05 3.552979e-05 3.948027e-05 4.446788e-05 4.932827e-05 5.509504e-05 6.065910e-05 6.696687e-05 7.293860e-05 7.945915e-05 8.548801e-05 9.184979e-05 9.758154e-05 1.034289e-04 1.085612e-04 1.136123e-04 1.179428e-04 1.220333e-04 1.254877e-04 1.285908e-04 1.312266e-04 1.334459e-04 1.354302e-04 1.369691e-04 1.385375e-04 1.396540e-04 1.410599e-04 1.420170e-04 1.434826e-04 1.445034e-04 1.461813e-04 1.474170e-04 1.493678e-04 1.508806e-04 1.530689e-04 1.548285e-04 1.571346e-04 1.590274e-04 1.612710e-04 1.631176e-04 1.650888e-04 1.666677e-04 1.681597e-04 1.692354e-04 1.700744e-04 1.704285e-04 1.704968e-04 1.699580e-04 1.692070e-04 1.676770e-04 1.661283e-04 1.635972e-04 1.613325e-04 1.578805e-04 1.550224e-04 1.508055e-04 1.474934e-04 1.427163e-04 1.390845e-04 1.339673e-04 1.301294e-04 1.248762e-04 1.209196e-04 1.156968e-04 1.116868e-04 1.066136e-04 1.026029e-04 9.775383e-05 9.379374e-05 8.920888e-05 8.535609e-05 8.105416e-05 7.737225e-05 7.336208e-05 6.991748e-05 6.620584e-05 6.306030e-05 5.965550e-05 5.685797e-05 5.377007e-05 5.135007e-05 4.858916e-05 4.655311e-05 4.412684e-05 4.245746e-05 4.036876e-05 3.902731e-05 3.727281e-05 
4.519686e-05 4.331075e-05 4.217028e-05 4.068266e-05 3.971448e-05 3.859578e-05 3.770014e-05 3.691527e-05 3.599722e-05 3.550741e-05 3.448297e-05 3.424746e-05 3.304942e-05 3.302677e-05 3.160995e-05 3.175912e-05 3.010490e-05 3.038626e-05 2.850601e-05 2.888310e-05 2.682000e-05 2.726273e-05 2.509179e-05 2.558186e-05 2.340828e-05 2.394717e-05 2.190347e-05 2.252252e-05 2.076509e-05 2.153580e-05 2.024114e-05 2.128271e-05 2.064245e-05 2.212226e-05 2.233475e-05 2.445743e-05 2.571294e-05 2.869501e-05 3.115220e-05 3.518288e-05 3.893723e-05 4.413121e-05 4.918090e-05 5.553370e-05 6.175251e-05 6.911190e-05 7.624023e-05 8.430523e-05 9.196752e-05 1.003200e-04 1.080696e-04 1.162348e-04 1.236194e-04 1.311421e-04 1.377754e-04 1.442948e-04 1.499178e-04 1.552235e-04 1.597412e-04 1.637983e-04 1.672833e-04 1.702224e-04 1.728863e-04 1.749641e-04 1.771044e-04 1.786453e-04 1.805804e-04 1.819133e-04 1.839200e-04 1.853219e-04 1.875873e-04 1.892437e-04 1.918375e-04 1.938216e-04 1.966919e-04 1.989622e-04 2.019519e-04 2.043634e-04 2.072412e-04 2.095680e-04 2.120685e-04 2.140325e-04 2.158980e-04 2.172043e-04 2.182222e-04 2.185975e-04 2.186291e-04 2.178597e-04 2.168551e-04 2.148198e-04 2.128180e-04 2.095084e-04 2.066219e-04 2.021445e-04 1.985326e-04 1.930901e-04 1.889276e-04 1.827830e-04 1.782314e-04 1.716642e-04 1.668535e-04 1.601199e-04 1.551447e-04 1.484500e-04 1.433784e-04 1.368670e-04 1.317567e-04 1.255178e-04 1.204311e-04 1.145132e-04 1.095266e-04 1.039542e-04 9.915815e-05 9.394647e-05 8.943740e-05 8.460028e-05 8.046850e-05 7.602192e-05 7.233912e-05 6.830033e-05 6.511035e-05 6.149516e-05 5.880932e-05 5.562900e-05 5.342604e-05 5.068473e-05 4.891448e-05 4.660761e-05 
5.406758e-05 5.163773e-05 5.016719e-05 4.823393e-05 4.698327e-05 4.551332e-05 4.436080e-05 4.331408e-05 4.214341e-05 4.147519e-05 4.018303e-05 3.984590e-05 3.834894e-05 3.829432e-05 3.653607e-05 3.671531e-05 3.467203e-05 3.503744e-05 3.272268e-05 3.322923e-05 3.069632e-05 3.130520e-05 2.864712e-05 2.933203e-05 2.667888e-05 2.743577e-05 2.495050e-05 2.581020e-05 2.368370e-05 2.472544e-05 2.317162e-05 2.453370e-05 2.378392e-05 2.566609e-05 2.596021e-05 2.861190e-05 3.018173e-05 3.387191e-05 3.691349e-05 4.188221e-05 4.651719e-05 5.291575e-05 5.914822e-05 6.698160e-05 7.466275e-05 8.375187e-05 9.256706e-05 1.025459e-04 1.120350e-04 1.223897e-04 1.320024e-04 1.421463e-04 1.513239e-04 1.606934e-04 1.689580e-04 1.771063e-04 1.841375e-04 1.908035e-04 1.964832e-04 2.016223e-04 2.060393e-04 2.098101e-04 2.132235e-04 2.159384e-04 2.187116e-04 2.207641e-04 2.232844e-04 2.250713e-04 2.276732e-04 2.295269e-04 2.324335e-04 2.345744e-04 2.378647e-04 2.403782e-04 2.439836e-04 2.468175e-04 2.505425e-04 2.535217e-04 2.570828e-04 2.599349e-04 2.630092e-04 2.653984e-04 2.676741e-04 2.692417e-04 2.704636e-04 2.708738e-04 2.708773e-04 2.698641e-04 2.685932e-04 2.660028e-04 2.635096e-04 2.593283e-04 2.557543e-04 2.501138e-04 2.456567e-04 2.388122e-04 2.336866e-04 2.259712e-04 2.203729e-04 2.121412e-04 2.062247e-04 1.978001e-04 1.916747e-04 1.833136e-04 1.770560e-04 1.689358e-04 1.626119e-04 1.548384e-04 1.485235e-04 1.411513e-04 1.349415e-04 1.279963e-04 1.220076e-04 1.155044e-04 1.098610e-04 1.038149e-04 9.863324e-05 9.306287e-05 8.843477e-05 8.336129e-05 7.934282e-05 7.478623e-05 7.139225e-05 6.736751e-05 6.457227e-05 6.108615e-05 5.882830e-05 5.587741e-05 
6.291106e-05 5.986462e-05 5.802547e-05 5.558826e-05 5.403023e-05 5.216199e-05 5.073623e-05 4.938910e-05 4.795337e-05 4.707442e-05 4.550184e-05 4.503542e-05 4.322308e-05 4.311246e-05 4.098987e-05 4.117834e-05 3.871510e-05 3.914684e-05 3.635866e-05 3.698035e-05 3.393232e-05 3.469669e-05 3.150296e-05 3.237578e-05 2.919568e-05 3.016701e-05 2.719856e-05 2.829795e-05 2.577058e-05 2.708408e-05 2.525200e-05 2.693641e-05 2.607235e-05 2.836035e-05 2.874670e-05 3.193508e-05 3.384656e-05 3.826169e-05 4.193428e-05 4.787386e-05 5.345904e-05 6.111816e-05 6.862969e-05 7.802825e-05 8.729695e-05 9.823081e-05 1.088863e-04 1.209217e-04 1.324152e-04 1.449355e-04 1.566066e-04 1.689045e-04 1.800802e-04 1.914752e-04 2.015794e-04 2.115315e-04 2.201778e-04 2.283718e-04 2.354177e-04 2.417986e-04 2.473495e-04 2.521056e-04 2.564702e-04 2.599711e-04 2.635802e-04 2.662890e-04 2.695987e-04 2.719785e-04 2.753778e-04 2.778121e-04 2.815537e-04 2.842921e-04 2.884556e-04 2.915888e-04 2.960789e-04 2.995384e-04 3.041115e-04 3.076879e-04 3.120012e-04 3.153738e-04 3.190437e-04 3.218192e-04 3.244826e-04 3.262409e-04 3.276085e-04 3.279553e-04 3.278514e-04 3.264744e-04 3.248555e-04 3.215762e-04 3.185272e-04 3.133358e-04 3.090433e-04 3.021064e-04 2.968151e-04 2.884479e-04 2.824099e-04 2.730188e-04 2.664501e-04 2.564615e-04 2.495176e-04 2.393127e-04 2.320904e-04 2.219643e-04 2.145249e-04 2.046754e-04 1.970784e-04 1.876206e-04 1.799520e-04 1.709460e-04 1.633314e-04 1.548101e-04 1.474095e-04 1.393986e-04 1.323860e-04 1.249144e-04 1.184524e-04 1.115528e-04 1.057694e-04 9.947515e-05 9.444835e-05 8.878828e-05 8.454041e-05 7.953457e-05 7.603475e-05 7.169138e-05 6.886349e-05 6.517765e-05 
7.151057e-05 6.771226e-05 6.541863e-05 6.235265e-05 6.040646e-05 5.802959e-05 5.625592e-05 5.451604e-05 5.274699e-05 5.158603e-05 4.967075e-05 4.902723e-05 4.684221e-05 4.665314e-05 4.411270e-05 4.431459e-05 4.138080e-05 4.191019e-05 3.860088e-05 3.939550e-05 3.578866e-05 3.679071e-05 3.302395e-05 3.418753e-05 3.045238e-05 3.175629e-05 2.828876e-05 2.975462e-05 2.682470e-05 2.853833e-05 2.644110e-05 2.857182e-05 2.762088e-05 3.043110e-05 3.095078e-05 3.478579e-05 3.709467e-05 4.234441e-05 4.672188e-05 5.375207e-05 6.038501e-05 6.944649e-05 7.836404e-05 8.950143e-05 1.005172e-04 1.135055e-04 1.261916e-04 1.405262e-04 1.542377e-04 1.691896e-04 1.831441e-04 1.978714e-04 2.112684e-04 2.249591e-04 2.371122e-04 2.491219e-04 2.595703e-04 2.695224e-04 2.780957e-04 2.859230e-04 2.927448e-04 2.986664e-04 3.040996e-04 3.085461e-04 3.130950e-04 3.166028e-04 3.207977e-04 3.238986e-04 3.281869e-04 3.313165e-04 3.359824e-04 3.394197e-04 3.445435e-04 3.483851e-04 3.538437e-04 3.580065e-04 3.635073e-04 3.677502e-04 3.728892e-04 3.768456e-04 3.811767e-04 3.843952e-04 3.875003e-04 3.894938e-04 3.910447e-04 3.913492e-04 3.911520e-04 3.893928e-04 3.874089e-04 3.833657e-04 3.797059e-04 3.733607e-04 3.682537e-04 3.598048e-04 3.535439e-04 3.433757e-04 3.362576e-04 3.248698e-04 3.171414e-04 3.050576e-04 2.968877e-04 2.845722e-04 2.760558e-04 2.638613e-04 2.550524e-04 2.432083e-04 2.341651e-04 2.227981e-04 2.136195e-04 2.027908e-04 1.936322e-04 1.833737e-04 1.744374e-04 1.647763e-04 1.562835e-04 1.472531e-04 1.394094e-04 1.310495e-04 1.240152e-04 1.163667e-04 1.102388e-04 1.033374e-04 9.814377e-05 9.201504e-05 8.771879e-05 8.237476e-05 7.888556e-05 7.432332e-05 
8.005986e-05 7.540381e-05 7.260114e-05 6.881980e-05 6.644828e-05 6.349041e-05 6.134177e-05 5.914694e-05 5.702115e-05 5.552303e-05 5.323952e-05 5.236881e-05 4.977846e-05 4.946486e-05 4.646289e-05 4.663602e-05 4.317472e-05 4.376416e-05 3.986358e-05 4.079929e-05 3.655325e-05 3.776825e-05 3.334355e-05 3.478130e-05 3.040953e-05 3.203782e-05 2.800151e-05 2.983343e-05 2.645051e-05 2.857014e-05 2.618136e-05 2.876889e-05 2.773039e-05 3.107730e-05 3.175505e-05 3.625718e-05 3.901340e-05 4.513022e-05 5.028958e-05 5.846448e-05 6.625392e-05 7.680463e-05 8.727459e-05 1.002796e-04 1.132306e-04 1.284477e-04 1.433942e-04 1.602440e-04 1.764395e-04 1.940704e-04 2.106003e-04 2.280222e-04 2.439471e-04 2.602030e-04 2.747158e-04 2.890468e-04 3.016060e-04 3.135696e-04 3.239747e-04 3.334909e-04 3.418853e-04 3.492070e-04 3.560110e-04 3.616325e-04 3.674267e-04 3.719580e-04 3.773466e-04 3.813852e-04 3.868691e-04 3.908955e-04 3.967810e-04 4.010937e-04 4.074484e-04 4.121394e-04 4.187970e-04 4.237596e-04 4.303637e-04 4.353193e-04 4.413932e-04 4.459271e-04 4.509562e-04 4.545597e-04 4.580738e-04 4.601963e-04 4.618407e-04 4.619540e-04 4.615389e-04 4.592144e-04 4.567362e-04 4.517231e-04 4.473512e-04 4.396378e-04 4.336705e-04 4.235033e-04 4.162985e-04 4.041450e-04 3.960409e-04 3.825002e-04 3.737509e-04 3.594387e-04 3.501853e-04 3.356322e-04 3.259206e-04 3.115142e-04 3.013500e-04 2.873294e-04 2.767455e-04 2.632364e-04 2.523437e-04 2.394091e-04 2.284127e-04 2.160959e-04 2.052742e-04 1.936237e-04 1.832825e-04 1.723581e-04 1.627792e-04 1.526459e-04 1.440459e-04 1.347643e-04 1.272717e-04 1.188902e-04 1.125416e-04 1.050913e-04 9.984047e-05 9.333372e-05 8.906850e-05 8.349893e-05 
8.817158e-05 8.246257e-05 7.902741e-05 7.435148e-05 7.143961e-05 6.774241e-05 6.511330e-05 6.233020e-05 5.975153e-05 5.781134e-05 5.507140e-05 5.389975e-05 5.082146e-05 5.034306e-05 4.679989e-05 4.693930e-05 4.287179e-05 4.355279e-05 3.898288e-05 4.012773e-05 3.516710e-05 3.669796e-05 3.154720e-05 3.339290e-05 2.832997e-05 3.044081e-05 2.580128e-05 2.817296e-05 2.432751e-05 2.703234e-05 2.436896e-05 2.758847e-05 2.650420e-05 3.055265e-05 3.145202e-05 3.677566e-05 4.006328e-05 4.719903e-05 5.324824e-05 6.273267e-05 7.181868e-05 8.405577e-05 9.626049e-05 1.113793e-04 1.264973e-04 1.442464e-04 1.617336e-04 1.814553e-04 2.004534e-04 2.211580e-04 2.406028e-04 2.611305e-04 2.799224e-04 2.991490e-04 3.163419e-04 3.333762e-04 3.483349e-04 3.626579e-04 3.751470e-04 3.866633e-04 3.968477e-04 4.058465e-04 4.142106e-04 4.212552e-04 4.284642e-04 4.342429e-04 4.409822e-04 4.461600e-04 4.529887e-04 4.580907e-04 4.653384e-04 4.706805e-04 4.784012e-04 4.840705e-04 4.920531e-04 4.979221e-04 5.057446e-04 5.115030e-04 5.186151e-04 5.238060e-04 5.296235e-04 5.336840e-04 5.376815e-04 5.399922e-04 5.417826e-04 5.417355e-04 5.411247e-04 5.382118e-04 5.352193e-04 5.291312e-04 5.239747e-04 5.146835e-04 5.077253e-04 4.955191e-04 4.871834e-04 4.726269e-04 4.633038e-04 4.471275e-04 4.370939e-04 4.200466e-04 4.094329e-04 3.921507e-04 3.809679e-04 3.639015e-04 3.521167e-04 3.355294e-04 3.231563e-04 3.071743e-04 2.943390e-04 2.790189e-04 2.659775e-04 2.513615e-04 2.384679e-04 2.246123e-04 2.122547e-04 1.992334e-04 1.877656e-04 1.756595e-04 1.653494e-04 1.542330e-04 1.452367e-04 1.351685e-04 1.275280e-04 1.185458e-04 1.122045e-04 1.043245e-04 9.914944e-05 9.236681e-05 
9.621187e-05 8.930267e-05 8.516108e-05 7.946680e-05 7.596056e-05 7.141628e-05 6.826283e-05 6.479399e-05 6.172025e-05 5.924674e-05 5.600223e-05 5.444218e-05 5.081498e-05 5.008728e-05 4.592346e-05 4.594829e-05 4.117320e-05 4.187063e-05 3.650817e-05 3.779586e-05 3.198040e-05 3.377318e-05 2.774890e-05 2.996417e-05 2.406944e-05 2.664212e-05 2.128123e-05 2.419016e-05 1.980038e-05 2.310457e-05 2.012978e-05 2.400890e-05 2.288871e-05 2.767651e-05 2.885017e-05 3.504269e-05 3.895199e-05 4.716882e-05 5.423417e-05 6.511722e-05 7.566664e-05 8.972264e-05 1.038784e-04 1.213020e-04 1.388607e-04 1.593985e-04 1.797593e-04 2.026704e-04 2.248561e-04 2.489983e-04 2.717807e-04 2.958032e-04 3.179058e-04 3.404976e-04 3.608198e-04 3.809433e-04 3.987472e-04 4.158008e-04 4.308131e-04 4.446870e-04 4.570972e-04 4.681217e-04 4.784836e-04 4.872950e-04 4.963627e-04 5.037279e-04 5.122678e-04 5.189137e-04 5.275363e-04 5.340201e-04 5.430644e-04 5.497038e-04 5.591910e-04 5.660519e-04 5.757035e-04 5.826247e-04 5.919315e-04 5.985630e-04 6.068829e-04 6.127239e-04 6.193921e-04 6.238272e-04 6.282645e-04 6.306101e-04 6.324134e-04 6.319886e-04 6.309919e-04 6.272198e-04 6.235128e-04 6.160406e-04 6.099420e-04 5.987485e-04 5.907328e-04 5.761755e-04 5.667622e-04 5.495288e-04 5.391575e-04 5.201226e-04 5.090533e-04 4.890904e-04 4.773723e-04 4.571925e-04 4.447191e-04 4.247943e-04 4.114238e-04 3.920033e-04 3.776926e-04 3.588827e-04 3.437767e-04 3.256319e-04 3.100778e-04 2.926648e-04 2.771528e-04 2.605725e-04 2.456366e-04 2.300138e-04 2.161325e-04 2.015923e-04 1.891182e-04 1.757654e-04 1.648962e-04 1.528044e-04 1.435872e-04 1.327976e-04 1.251554e-04 1.156796e-04 1.094442e-04 1.012687e-04 
1.035296e-04 9.514664e-05 9.012587e-05 8.316334e-05 7.890331e-05 7.329099e-05 6.946798e-05 6.512540e-05 6.142436e-05 5.826563e-05 5.439401e-05 5.233236e-05 4.803852e-05 4.698945e-05 4.208667e-05 4.196856e-05 3.636276e-05 3.709443e-05 3.081028e-05 3.230650e-05 2.550446e-05 2.767263e-05 2.064904e-05 2.339214e-05 1.655834e-05 1.978928e-05 1.363221e-05 1.730262e-05 1.233742e-05 1.647989e-05 1.321114e-05 1.798955e-05 1.689637e-05 2.265252e-05 2.420041e-05 3.147619e-05 3.613657e-05 4.564240e-05 5.388293e-05 6.638758e-05 7.859990e-05 9.474287e-05 1.111068e-04 1.311768e-04 1.515058e-04 1.752623e-04 1.989016e-04 2.255166e-04 2.513571e-04 2.795127e-04 3.061361e-04 3.342574e-04 3.601783e-04 3.867326e-04 4.106675e-04 4.344445e-04 4.555332e-04 4.758339e-04 4.937576e-04 5.104545e-04 5.254299e-04 5.388990e-04 5.515588e-04 5.625171e-04 5.737154e-04 5.830137e-04 5.936072e-04 6.020344e-04 6.126897e-04 6.208307e-04 6.318962e-04 6.400643e-04 6.515248e-04 6.597616e-04 6.712684e-04 6.793827e-04 6.903374e-04 6.979509e-04 7.076200e-04 7.142023e-04 7.218416e-04 7.267350e-04 7.317103e-04 7.341650e-04 7.360523e-04 7.352937e-04 7.339443e-04 7.292874e-04 7.248455e-04 7.158465e-04 7.087156e-04 6.953205e-04 6.860774e-04 6.686997e-04 6.579616e-04 6.374337e-04 6.257043e-04 6.030972e-04 5.906417e-04 5.670187e-04 5.538269e-04 5.300341e-04 5.158982e-04 4.924686e-04 4.771485e-04 4.543344e-04 4.377365e-04 4.156220e-04 3.979156e-04 3.765395e-04 3.581673e-04 3.376025e-04 3.191941e-04 2.995681e-04 2.818030e-04 2.632759e-04 2.467527e-04 2.294817e-04 2.146312e-04 1.987439e-04 1.857987e-04 1.713815e-04 1.603891e-04 1.474883e-04 1.383498e-04 1.269774e-04 1.194906e-04 1.096316e-04 
1.107813e-04 1.007243e-04 9.472560e-05 8.632095e-05 8.122863e-05 7.439002e-05 6.982664e-05 6.445975e-05 6.005765e-05 5.606540e-05 5.148010e-05 4.876789e-05 4.369857e-05 4.217808e-05 3.639680e-05 3.598669e-05 2.937414e-05 2.999652e-05 2.257760e-05 2.415083e-05 1.611920e-05 1.855076e-05 1.027108e-05 1.345686e-05 5.437782e-06 9.274795e-06 2.114633e-06 6.531246e-06 8.498218e-07 5.852764e-06 2.232841e-06 7.966300e-06 6.929487e-06 1.373581e-05 1.576299e-05 2.422281e-05 2.979804e-05 4.071264e-05 5.033891e-05 6.461611e-05 7.874952e-05 9.718447e-05 1.160752e-04 1.390749e-04 1.625682e-04 1.899196e-04 2.173139e-04 2.480972e-04 2.781440e-04 3.108442e-04 3.419151e-04 3.747022e-04 4.050776e-04 4.361683e-04 4.643595e-04 4.923506e-04 5.173616e-04 5.414494e-04 5.629130e-04 5.829555e-04 6.011199e-04 6.175471e-04 6.331319e-04 6.467480e-04 6.607142e-04 6.724536e-04 6.857481e-04 6.964512e-04 7.097871e-04 7.200466e-04 7.337626e-04 7.438620e-04 7.578800e-04 7.678119e-04 7.816817e-04 7.912065e-04 8.042093e-04 8.129115e-04 8.241941e-04 8.315121e-04 8.402314e-04 8.454695e-04 8.509320e-04 8.532798e-04 8.550594e-04 8.536556e-04 8.516664e-04 8.457284e-04 8.402406e-04 8.292533e-04 8.208424e-04 8.047536e-04 7.941830e-04 7.735112e-04 7.615515e-04 7.373230e-04 7.245436e-04 6.980523e-04 6.846569e-04 6.571416e-04 6.429363e-04 6.153209e-04 5.998505e-04 5.726508e-04 5.554550e-04 5.288577e-04 5.097344e-04 4.837702e-04 4.629306e-04 4.376379e-04 4.157001e-04 3.912102e-04 3.690536e-04 3.455878e-04 3.241445e-04 3.019599e-04 2.820282e-04 2.613567e-04 2.434897e-04 2.245011e-04 2.089778e-04 1.917716e-04 1.786293e-04 1.632454e-04 1.523407e-04 1.387747e-04 1.298462e-04 1.180632e-04 
1.169242e-04 1.048160e-04 9.760062e-05 8.741081e-05 8.126772e-05 7.289848e-05 6.739657e-05 6.074246e-05 5.545815e-05 5.041254e-05 4.494283e-05 4.140473e-05 3.539042e-05 3.326979e-05 2.643142e-05 2.565063e-05 1.783519e-05 1.832441e-05 9.553658e-06 1.124001e-05 1.745755e-06 4.540320e-06 -5.229644e-06 -1.438270e-06 -1.085444e-05 -6.190284e-06 -1.451489e-05 -9.082970e-06 -1.556614e-05 -9.399962e-06 -1.336648e-05 -6.359198e-06 -7.247676e-06 9.254215e-07 3.593228e-06 1.353946e-05 2.023791e-05 3.285311e-05 4.410952e-05 6.046656e-05 7.681183e-05 9.790590e-05 1.196884e-04 1.460917e-04 1.732178e-04 2.047728e-04 2.365058e-04 2.721984e-04 3.071354e-04 3.452192e-04 3.814832e-04 4.198211e-04 4.554098e-04 4.919145e-04 5.250901e-04 5.581260e-04 5.877270e-04 6.163655e-04 6.419641e-04 6.660457e-04 6.879261e-04 7.079432e-04 7.269251e-04 7.437798e-04 7.609461e-04 7.756621e-04 7.920616e-04 8.055276e-04 8.219236e-04 8.347277e-04 8.514457e-04 8.638265e-04 8.807182e-04 8.926102e-04 9.091180e-04 9.202379e-04 9.355212e-04 9.454357e-04 9.585249e-04 9.666709e-04 9.766285e-04 9.822975e-04 9.883746e-04 9.907022e-04 9.924677e-04 9.904802e-04 9.879000e-04 9.806568e-04 9.741055e-04 9.609400e-04 9.511408e-04 9.319331e-04 9.198205e-04 8.951683e-04 8.816701e-04 8.528293e-04 8.386022e-04 8.071755e-04 7.923913e-04 7.598971e-04 7.442028e-04 7.117322e-04 6.944390e-04 6.625444e-04 6.429794e-04 6.117989e-04 5.896576e-04 5.591592e-04 5.347059e-04 5.049055e-04 4.789481e-04 4.500106e-04 4.236901e-04 3.959086e-04 3.704139e-04 3.441231e-04 3.204479e-04 2.959391e-04 2.747476e-04 2.522233e-04 2.338299e-04 2.133997e-04 1.978238e-04 1.795240e-04 1.665757e-04 1.503930e-04 1.397536e-04 1.256421e-04 
1.230868e-04 1.086579e-04 1.000934e-04 8.787587e-05 8.056645e-05 7.043559e-05 6.388098e-05 5.570893e-05 4.941653e-05 4.307961e-05 3.657527e-05 3.196228e-05 2.481517e-05 2.183443e-05 1.370052e-05 1.228251e-05 2.964894e-06 3.056580e-06 -7.428935e-06 -5.879383e-06 -1.725355e-05 -1.431747e-05 -2.602474e-05 -2.180713e-05 -3.305693e-05 -2.769029e-05 -3.755414e-05 -3.116547e-05 -3.871110e-05 -3.136573e-05 -3.578691e-05 -2.741445e-05 -2.809920e-05 -1.840318e-05 -1.489716e-05 -3.262711e-06 4.857275e-06 1.940542e-05 3.265311e-05 5.135673e-05 7.032474e-05 9.440641e-05 1.195568e-04 1.497923e-04 1.811212e-04 2.174362e-04 2.541909e-04 2.954758e-04 3.360943e-04 3.803416e-04 4.226710e-04 4.673905e-04 5.091086e-04 5.518655e-04 5.909517e-04 6.298499e-04 6.649575e-04 6.989349e-04 7.295712e-04 7.584585e-04 7.849500e-04 8.093154e-04 8.325940e-04 8.534479e-04 8.747277e-04 8.931818e-04 9.136138e-04 9.305868e-04 9.509726e-04 9.670159e-04 9.876420e-04 1.002909e-03 1.023521e-03 1.037851e-03 1.057744e-03 1.070784e-03 1.088952e-03 1.100243e-03 1.115557e-03 1.124534e-03 1.135927e-03 1.141876e-03 1.148526e-03 1.150536e-03 1.152020e-03 1.149007e-03 1.145404e-03 1.136276e-03 1.128173e-03 1.112134e-03 1.100546e-03 1.077461e-03 1.063645e-03 1.034281e-03 1.019434e-03 9.853729e-04 9.702530e-04 9.334613e-04 9.180938e-04 8.803420e-04 8.639889e-04 8.264239e-04 8.078981e-04 7.709598e-04 7.491636e-04 7.128199e-04 6.872601e-04 6.513718e-04 6.224205e-04 5.870248e-04 5.558398e-04 5.212413e-04 4.894249e-04 4.561109e-04 4.252859e-04 3.937693e-04 3.652420e-04 3.359325e-04 3.105295e-04 2.836800e-04 2.617491e-04 2.374675e-04 2.189783e-04 1.972700e-04 1.819422e-04 1.627529e-04 1.501676e-04 1.334108e-04 
1.276640e-04 1.103999e-04 1.001580e-04 8.544669e-05 7.667271e-05 6.436403e-05 5.648615e-05 4.642890e-05 3.887843e-05 3.092984e-05 2.314945e-05 1.718669e-05 8.657713e-06 4.588557e-06 -5.115680e-06 -7.347613e-06 -1.848366e-05 -1.890510e-05 -3.147081e-05 -3.010074e-05 -4.376371e-05 -4.064616e-05 -5.472068e-05 -4.995088e-05 -6.344627e-05 -5.716897e-05 -6.891424e-05 -6.128629e-05 -7.011256e-05 -6.124061e-05 -6.617064e-05 -5.603401e-05 -5.639720e-05 -4.474866e-05 -4.014450e-05 -2.638625e-05 -1.649494e-05 4.161279e-07 1.605334e-05 3.754953e-05 5.958523e-05 8.717556e-05 1.162259e-04 1.509642e-04 1.871700e-04 2.291178e-04 2.717421e-04 3.196967e-04 3.670046e-04 4.186470e-04 4.681541e-04 5.205597e-04 5.695487e-04 6.198536e-04 6.659525e-04 7.119407e-04 7.535723e-04 7.940207e-04 8.306097e-04 8.653383e-04 8.972596e-04 9.269275e-04 9.552435e-04 9.809857e-04 1.007063e-03 1.030085e-03 1.055192e-03 1.076433e-03 1.101409e-03 1.121357e-03 1.146442e-03 1.165133e-03 1.189953e-03 1.207110e-03 1.230801e-03 1.246006e-03 1.267396e-03 1.280193e-03 1.298002e-03 1.307884e-03 1.320925e-03 1.327223e-03 1.334610e-03 1.336393e-03 1.337717e-03 1.333764e-03 1.329205e-03 1.318177e-03 1.308509e-03 1.289344e-03 1.275839e-03 1.248268e-03 1.232485e-03 1.197395e-03 1.180807e-03 1.140169e-03 1.123670e-03 1.079957e-03 1.063458e-03 1.018858e-03 1.001254e-03 9.570988e-04 9.367052e-04 8.933923e-04 8.686857e-04 8.260265e-04 7.963367e-04 7.540649e-04 7.199004e-04 6.780435e-04 6.409486e-04 5.999197e-04 5.619876e-04 5.224405e-04 4.857381e-04 4.483387e-04 4.144758e-04 3.797309e-04 3.496767e-04 3.178755e-04 2.919920e-04 2.632371e-04 2.414319e-04 2.157036e-04 1.976038e-04 1.748176e-04 1.599090e-04 1.399496e-04 