# vtk DataFile Version 2.0
Comment goes here
ASCII

DATASET STRUCTURED_POINTS
FIELD FieldData 1
TIME 1 1 double
0.12500000
DIMENSIONS    128   128   1

ORIGIN    0.000   0.000   0.000
SPACING   0.039062 0.039062   1.000

POINT_DATA   16384
SCALARS Omega double
LOOKUP_TABLE default

6.451201e-14 5.260338e-14 4.986745e-14 3.734094e-14 4.474508e-14 5.017255e-14 5.557463e-14 5.151951e-14 5.314212e-14 4.214469e-14 4.327407e-14 3.361746e-14 1.175552e-14 7.450439e-16 -9.249021e-16 -5.555001e-15 -1.168271e-14 -3.416099e-14 -5.074953e-14 -6.792245e-14 -8.176488e-14 -8.619226e-14 -5.896103e-14 -5.930788e-14 -4.630140e-14 -3.683015e-14 -5.498610e-14 -5.411237e-14 -4.060933e-14 -4.680547e-14 -2.360564e-14 -3.810830e-14 -7.028308e-15 -3.644118e-14 -4.714984e-14 -2.814607e-14 -5.333295e-15 -1.260748e-14 -7.573341e-15 2.178808e-14 4.844822e-14 1.214036e-13 9.009155e-14 1.343661e-13 9.332128e-14 1.091483e-13 6.243364e-14 1.261596e-13 3.735549e-14 4.722183e-14 8.227809e-15 6.356597e-14 8.838582e-14 8.706303e-14 4.873684e-14 6.138016e-14 3.830929e-14 4.530651e-14 3.830842e-14 3.597120e-14 5.784151e-14 -3.021304e-14 -3.923742e-14 -2.185028e-14 -5.546781e-14 -6.033219e-14 -3.028417e-14 -3.700087e-14 -2.701376e-14 -5.246101e-14 -7.478623e-14 -6.090092e-14 -4.095789e-14 -2.518063e-14 -2.943825e-15 1.741189e-14 3.565406e-14 4.677036e-14 9.397019e-15 1.930149e-14 -1.497128e-14 -2.029208e-14 -2.337484e-14 -1.262126e-14 1.912538e-14 3.221658e-14 4.409521e-14 3.146087e-14 5.067352e-14 7.216934e-14 4.871762e-14 8.634560e-14 7.857198e-14 9.949924e-14 2.172801e-14 2.238174e-14 2.334910e-14 -1.074748e-14 2.863528e-14 4.895923e-14 6.109289e-14 -7.044644e-14 -7.776672e-14 -3.054348e-14 1.992300e-14 2.574669e-14 6.792526e-15 -9.371785e-15 -4.889173e-15 -3.562664e-15 -3.742955e-14 -2.145378e-14 -9.737665e-15 -1.924903e-14 -1.414765e-14 -5.341152e-14 -3.892866e-14 -3.632608e-14 -4.126873e-14 -2.430485e-14 8.551098e-15 -6.468198e-15 2.261994e-15 4.070309e-14 3.424676e-14 5.249740e-14 6.107041e-14 5.870454e-14 
5.280107e-06 5.245810e-06 5.040942e-06 5.066393e-06 4.989442e-06 5.032812e-06 5.090600e-06 5.115545e-06 5.305383e-06 5.281003e-06 5.592278e-06 5.493079e-06 5.909088e-06 5.715143e-06 6.215026e-06 5.912420e-06 6.473150e-06 6.054685e-06 6.653101e-06 6.119178e-06 6.734082e-06 6.093637e-06 6.707973e-06 5.979330e-06 6.582390e-06 5.793891e-06 6.383415e-06 5.573665e-06 6.157557e-06 5.375033e-06 5.972235e-06 5.273919e-06 5.913875e-06 5.362440e-06 6.082522e-06 5.741648e-06 6.582161e-06 6.509787e-06 7.506679e-06 7.746616e-06 8.922811e-06 9.495900e-06 1.085300e-05 1.174977e-05 1.326245e-05 1.443948e-05 1.605463e-05 1.743650e-05 1.907839e-05 2.056572e-05 2.214683e-05 2.362949e-05 2.506493e-05 2.643793e-05 2.766031e-05 2.883898e-05 2.981025e-05 3.074153e-05 3.145899e-05 3.212660e-05 3.262182e-05 3.304469e-05 3.337589e-05 3.360076e-05 3.384042e-05 3.393084e-05 3.415154e-05 3.417555e-05 3.443684e-05 3.445588e-05 3.479462e-05 3.485513e-05 3.528062e-05 3.540905e-05 3.590341e-05 3.610449e-05 3.662767e-05 3.688526e-05 3.738356e-05 3.766330e-05 3.807989e-05 3.833286e-05 3.861866e-05 3.878581e-05 3.890926e-05 3.892619e-05 3.888030e-05 3.868239e-05 3.848780e-05 3.801553e-05 3.771862e-05 3.692286e-05 3.658873e-05 3.543579e-05 3.513693e-05 3.361290e-05 3.341556e-05 3.152983e-05 3.148094e-05 2.926817e-05 2.938592e-05 2.690602e-05 2.717627e-05 2.451171e-05 2.489126e-05 2.214128e-05 2.256699e-05 1.983889e-05 2.024035e-05 1.763900e-05 1.795169e-05 1.556897e-05 1.574505e-05 1.365111e-05 1.366594e-05 1.190396e-05 1.175772e-05 1.034276e-05 1.005768e-05 8.979368e-06 8.593932e-06 7.821804e-06 7.383706e-06 6.873735e-06 6.432863e-06 6.133869e-06 5.736501e-06 5.595434e-06 
1.309837e-05 1.277244e-05 1.209811e-05 1.190507e-05 1.151442e-05 1.138012e-05 1.129346e-05 1.115001e-05 1.136395e-05 1.115064e-05 1.164264e-05 1.130700e-05 1.204034e-05 1.153958e-05 1.246833e-05 1.177106e-05 1.284477e-05 1.193309e-05 1.310136e-05 1.197294e-05 1.318982e-05 1.186002e-05 1.308842e-05 1.159198e-05 1.280810e-05 1.120043e-05 1.239791e-05 1.075549e-05 1.194887e-05 1.036842e-05 1.159491e-05 1.019061e-05 1.150906e-05 1.040691e-05 1.189262e-05 1.122096e-05 1.295559e-05 1.283140e-05 1.488815e-05 1.540000e-05 1.782584e-05 1.901589e-05 2.181458e-05 2.366347e-05 2.678397e-05 2.920349e-05 3.253815e-05 3.537509e-05 3.877015e-05 4.182279e-05 4.510039e-05 4.814544e-05 5.113307e-05 5.395806e-05 5.651885e-05 5.895299e-05 6.100975e-05 6.294678e-05 6.449408e-05 6.590253e-05 6.700445e-05 6.792410e-05 6.869833e-05 6.922487e-05 6.981740e-05 7.007951e-05 7.063556e-05 7.076959e-05 7.140666e-05 7.153384e-05 7.232183e-05 7.253107e-05 7.348230e-05 7.382010e-05 7.489008e-05 7.535734e-05 7.645519e-05 7.700947e-05 7.801574e-05 7.857750e-05 7.936654e-05 7.982794e-05 8.029161e-05 8.052707e-05 8.059672e-05 8.047462e-05 8.013796e-05 7.953309e-05 7.884280e-05 7.764872e-05 7.672010e-05 7.486034e-05 7.385688e-05 7.129389e-05 7.040156e-05 6.714221e-05 6.653656e-05 6.263376e-05 6.244613e-05 5.799642e-05 5.828692e-05 5.342427e-05 5.416848e-05 4.905465e-05 5.014743e-05 4.495956e-05 4.623549e-05 4.115169e-05 4.241706e-05 3.760170e-05 3.867038e-05 3.426091e-05 3.498598e-05 3.108327e-05 3.137808e-05 2.804159e-05 2.788736e-05 2.513555e-05 2.457615e-05 2.239130e-05 2.151858e-05 1.985442e-05 1.878885e-05 1.757932e-05 1.645029e-05 1.561774e-05 1.454691e-05 1.400888e-05 
1.562029e-05 1.548742e-05 1.485155e-05 1.489816e-05 1.465644e-05 1.475731e-05 1.492923e-05 1.497605e-05 1.555238e-05 1.545321e-05 1.640097e-05 1.607986e-05 1.734793e-05 1.674526e-05 1.827021e-05 1.734411e-05 1.905609e-05 1.778467e-05 1.961345e-05 1.799757e-05 1.987876e-05 1.794501e-05 1.982650e-05 1.762976e-05 1.947835e-05 1.710367e-05 1.891142e-05 1.647476e-05 1.826433e-05 1.591142e-05 1.773903e-05 1.564146e-05 1.759563e-05 1.594275e-05 1.813698e-05 1.712205e-05 1.967991e-05 1.947993e-05 2.251290e-05 2.326304e-05 2.684368e-05 2.860996e-05 3.274598e-05 3.550220e-05 4.011855e-05 4.373456e-05 4.867041e-05 5.291748e-05 5.794186e-05 6.251723e-05 6.736232e-05 7.192967e-05 7.633538e-05 8.057369e-05 8.433357e-05 8.798375e-05 9.098134e-05 9.388081e-05 9.610799e-05 9.820633e-05 9.975978e-05 1.011137e-04 1.021711e-04 1.029217e-04 1.037034e-04 1.040423e-04 1.047683e-04 1.049001e-04 1.057496e-04 1.058587e-04 1.069408e-04 1.071658e-04 1.085054e-04 1.089253e-04 1.104644e-04 1.110932e-04 1.127071e-04 1.134969e-04 1.150201e-04 1.158689e-04 1.171273e-04 1.178898e-04 1.187340e-04 1.192338e-04 1.195688e-04 1.196124e-04 1.194191e-04 1.188107e-04 1.181557e-04 1.167128e-04 1.157428e-04 1.133125e-04 1.122325e-04 1.087071e-04 1.077452e-04 1.030768e-04 1.024414e-04 9.665327e-05 9.649177e-05 8.968599e-05 9.005410e-05 8.241275e-05 8.326353e-05 7.504101e-05 7.623536e-05 6.774069e-05 6.907691e-05 6.064613e-05 6.190077e-05 5.386309e-05 5.483304e-05 4.747643e-05 4.801304e-05 4.155605e-05 4.158506e-05 3.616007e-05 3.568569e-05 3.133583e-05 3.043098e-05 2.711949e-05 2.590685e-05 2.353494e-05 2.216423e-05 2.059246e-05 1.921859e-05 1.828731e-05 1.705260e-05 1.659842e-05 
2.580602e-05 2.507331e-05 2.366482e-05 2.320402e-05 2.238971e-05 2.205257e-05 2.187006e-05 2.152132e-05 2.196024e-05 2.147891e-05 2.249070e-05 2.177187e-05 2.328009e-05 2.223764e-05 2.414793e-05 2.271818e-05 2.492765e-05 2.307368e-05 2.547973e-05 2.319598e-05 2.570497e-05 2.302152e-05 2.555737e-05 2.254349e-05 2.505641e-05 2.182298e-05 2.429798e-05 2.099824e-05 2.346229e-05 2.029034e-05 2.281663e-05 2.000219e-05 2.270887e-05 2.050663e-05 2.354723e-05 2.221844e-05 2.576187e-05 2.554710e-05 2.974728e-05 3.083146e-05 3.579023e-05 3.826486e-05 4.399572e-05 4.782669e-05 5.422943e-05 5.924040e-05 6.609644e-05 7.197585e-05 7.896957e-05 8.530427e-05 9.206891e-05 9.840005e-05 1.045793e-04 1.104695e-04 1.157807e-04 1.208781e-04 1.251622e-04 1.292478e-04 1.324943e-04 1.355024e-04 1.378439e-04 1.398546e-04 1.415333e-04 1.427404e-04 1.440551e-04 1.447186e-04 1.459648e-04 1.463590e-04 1.477731e-04 1.481407e-04 1.498598e-04 1.503775e-04 1.524200e-04 1.531793e-04 1.554472e-04 1.564486e-04 1.587499e-04 1.599084e-04 1.619937e-04 1.631507e-04 1.647594e-04 1.657002e-04 1.666091e-04 1.670819e-04 1.671503e-04 1.668895e-04 1.660945e-04 1.648443e-04 1.632994e-04 1.608390e-04 1.587907e-04 1.549576e-04 1.527555e-04 1.474653e-04 1.455087e-04 1.387676e-04 1.374348e-04 1.293451e-04 1.289190e-04 1.196756e-04 1.202850e-04 1.101637e-04 1.117525e-04 1.010910e-04 1.034273e-04 9.259874e-05 9.532009e-05 8.470255e-05 8.738753e-05 7.733104e-05 7.957862e-05 7.037556e-05 7.187406e-05 6.373728e-05 6.430883e-05 5.736097e-05 5.697556e-05 5.125049e-05 5.001179e-05 4.546611e-05 4.357745e-05 4.010841e-05 3.782969e-05 3.529497e-05 3.290037e-05 3.113625e-05 2.887952e-05 2.771519e-05 
2.526683e-05 2.494167e-05 2.381094e-05 2.378547e-05 2.334656e-05 2.341326e-05 2.369503e-05 2.367610e-05 2.465907e-05 2.440393e-05 2.602931e-05 2.541306e-05 2.759233e-05 2.651611e-05 2.914080e-05 2.753424e-05 3.048556e-05 2.831106e-05 3.146971e-05 2.872764e-05 3.198386e-05 2.871786e-05 3.198192e-05 2.828339e-05 3.149651e-05 2.750757e-05 3.065268e-05 2.656721e-05 2.967840e-05 2.574027e-05 2.890878e-05 2.540591e-05 2.877959e-05 2.603152e-05 2.980386e-05 2.813989e-05 3.252583e-05 3.225162e-05 3.744950e-05 3.880329e-05 4.494748e-05 4.805167e-05 5.516542e-05 5.998445e-05 6.794637e-05 7.426399e-05 8.280097e-05 9.022780e-05 9.894166e-05 1.069572e-04 1.153832e-04 1.234064e-04 1.310923e-04 1.385672e-04 1.451539e-04 1.516313e-04 1.569168e-04 1.621141e-04 1.660850e-04 1.699129e-04 1.727369e-04 1.752899e-04 1.772737e-04 1.787898e-04 1.803113e-04 1.811128e-04 1.825457e-04 1.829753e-04 1.846197e-04 1.849838e-04 1.870165e-04 1.875443e-04 1.899958e-04 1.908162e-04 1.935755e-04 1.947113e-04 1.975545e-04 1.989278e-04 2.015640e-04 2.030091e-04 2.051363e-04 2.064160e-04 2.077775e-04 2.086018e-04 2.090379e-04 2.090841e-04 2.085696e-04 2.075048e-04 2.061666e-04 2.036735e-04 2.017814e-04 1.975858e-04 1.955152e-04 1.894147e-04 1.875838e-04 1.794757e-04 1.782662e-04 1.681719e-04 1.678523e-04 1.559343e-04 1.566023e-04 1.431711e-04 1.447325e-04 1.302360e-04 1.324248e-04 1.174179e-04 1.198540e-04 1.049469e-04 1.072145e-04 9.300764e-05 9.473487e-05 8.175233e-05 8.267399e-05 7.130847e-05 7.130055e-05 6.178217e-05 6.086564e-05 5.325816e-05 5.157714e-05 4.579866e-05 4.358289e-05 3.944230e-05 3.696434e-05 3.420324e-05 3.173906e-05 3.007014e-05 2.786838e-05 2.700496e-05 
3.765767e-05 3.634793e-05 3.408538e-05 3.319923e-05 3.189609e-05 3.121155e-05 3.091567e-05 3.023141e-05 3.091761e-05 3.005331e-05 3.163978e-05 3.043794e-05 3.280251e-05 3.113234e-05 3.412755e-05 3.189089e-05 3.535773e-05 3.249634e-05 3.627700e-05 3.278021e-05 3.673034e-05 3.264203e-05 3.664323e-05 3.206723e-05 3.603975e-05 3.114313e-05 3.505873e-05 3.007247e-05 3.396607e-05 2.918282e-05 3.316044e-05 2.892765e-05 3.316689e-05 2.987253e-05 3.461041e-05 3.265736e-05 3.816132e-05 3.792703e-05 4.444788e-05 4.623013e-05 5.394202e-05 5.789771e-05 6.683744e-05 7.292830e-05 8.295131e-05 9.091385e-05 1.016839e-04 1.110378e-04 1.220601e-04 1.321602e-04 1.428551e-04 1.529810e-04 1.627839e-04 1.722468e-04 1.807103e-04 1.889558e-04 1.958293e-04 2.025117e-04 2.077804e-04 2.127947e-04 2.166693e-04 2.201374e-04 2.229989e-04 2.252178e-04 2.275326e-04 2.288987e-04 2.311224e-04 2.320508e-04 2.345415e-04 2.353955e-04 2.383517e-04 2.393924e-04 2.428248e-04 2.441844e-04 2.479224e-04 2.495985e-04 2.533273e-04 2.551921e-04 2.585111e-04 2.603295e-04 2.628241e-04 2.642768e-04 2.655941e-04 2.663044e-04 2.662238e-04 2.657876e-04 2.642782e-04 2.622987e-04 2.595511e-04 2.556763e-04 2.521003e-04 2.460608e-04 2.422409e-04 2.338840e-04 2.304923e-04 2.198068e-04 2.174838e-04 2.046125e-04 2.038397e-04 1.890782e-04 1.900721e-04 1.738539e-04 1.765114e-04 1.593795e-04 1.632933e-04 1.458583e-04 1.503980e-04 1.332858e-04 1.377265e-04 1.215201e-04 1.251827e-04 1.103684e-04 1.127388e-04 9.966597e-05 1.004677e-04 8.932968e-05 8.854065e-05 7.937906e-05 7.719958e-05 6.992703e-05 6.671544e-05 6.114963e-05 5.734610e-05 5.324605e-05 4.930146e-05 4.639928e-05 4.272010e-05 4.074438e-05 
3.364556e-05 3.295865e-05 3.122669e-05 3.095964e-05 3.027008e-05 3.013622e-05 3.052065e-05 3.027760e-05 3.169951e-05 3.114242e-05 3.351119e-05 3.246868e-05 3.565360e-05 3.398776e-05 3.783163e-05 3.544214e-05 3.977437e-05 3.660582e-05 4.125546e-05 3.730606e-05 4.211522e-05 3.744523e-05 4.228313e-05 3.702134e-05 4.179908e-05 3.614639e-05 4.083216e-05 3.506210e-05 3.969539e-05 3.415134e-05 3.885360e-05 3.394170e-05 3.891894e-05 3.509342e-05 4.062454e-05 3.836033e-05 4.476507e-05 4.451259e-05 5.209674e-05 5.421835e-05 6.320113e-05 6.789695e-05 7.833584e-05 8.557586e-05 9.731057e-05 1.067950e-04 1.194325e-04 1.305988e-04 1.435519e-04 1.556361e-04 1.682126e-04 1.803556e-04 1.918794e-04 2.032564e-04 2.131911e-04 2.231346e-04 2.311800e-04 2.392690e-04 2.454068e-04 2.515055e-04 2.559861e-04 2.602269e-04 2.635029e-04 2.662249e-04 2.688488e-04 2.705095e-04 2.730196e-04 2.741008e-04 2.769194e-04 2.778466e-04 2.812089e-04 2.822959e-04 2.862198e-04 2.876404e-04 2.919378e-04 2.937215e-04 2.980439e-04 3.000863e-04 3.039941e-04 3.060742e-04 3.091184e-04 3.109180e-04 3.127230e-04 3.138472e-04 3.141861e-04 3.141848e-04 3.130359e-04 3.114313e-04 3.090057e-04 3.053250e-04 3.020567e-04 2.958726e-04 2.923630e-04 2.833395e-04 2.802604e-04 2.682002e-04 2.661671e-04 2.510566e-04 2.505005e-04 2.325465e-04 2.336161e-04 2.132659e-04 2.157912e-04 1.937243e-04 1.972525e-04 1.743364e-04 1.782317e-04 1.554376e-04 1.590167e-04 1.373070e-04 1.399732e-04 1.201845e-04 1.215293e-04 1.042768e-04 1.041299e-04 8.975547e-05 8.818181e-05 7.675293e-05 7.400829e-05 6.535979e-05 6.182396e-05 5.562571e-05 5.173148e-05 4.756182e-05 4.373357e-05 4.114284e-05 3.775182e-05 3.630773e-05 
4.803752e-05 4.587299e-05 4.257674e-05 4.100742e-05 3.912011e-05 3.785187e-05 3.741824e-05 3.618622e-05 3.715297e-05 3.571892e-05 3.795952e-05 3.611262e-05 3.945028e-05 3.701220e-05 4.124000e-05 3.807394e-05 4.297234e-05 3.899457e-05 4.434724e-05 3.953919e-05 4.514811e-05 3.956695e-05 4.526773e-05 3.905355e-05 4.473158e-05 3.811054e-05 4.371787e-05 3.700154e-05 4.257357e-05 3.615501e-05 4.182418e-05 3.617033e-05 4.217153e-05 3.780823e-05 4.446809e-05 4.195089e-05 4.965231e-05 4.951554e-05 5.863296e-05 6.131450e-05 7.212507e-05 7.787550e-05 9.046444e-05 9.926158e-05 1.134501e-04 1.249472e-04 1.402714e-04 1.538030e-04 1.695595e-04 1.842153e-04 1.995707e-04 2.143248e-04 2.284645e-04 2.423333e-04 2.546128e-04 2.668039e-04 2.768653e-04 2.868846e-04 2.947108e-04 3.024062e-04 3.083023e-04 3.138406e-04 3.183508e-04 3.221402e-04 3.259220e-04 3.285028e-04 3.321877e-04 3.341185e-04 3.381892e-04 3.399500e-04 3.446550e-04 3.465829e-04 3.519019e-04 3.541609e-04 3.598194e-04 3.623989e-04 3.679250e-04 3.706551e-04 3.754635e-04 3.780385e-04 3.815310e-04 3.835354e-04 3.852058e-04 3.861423e-04 3.856770e-04 3.849999e-04 3.823609e-04 3.795167e-04 3.749945e-04 3.694725e-04 3.636905e-04 3.550785e-04 3.489356e-04 3.369748e-04 3.315179e-04 3.161479e-04 3.123870e-04 2.937726e-04 2.924727e-04 2.710104e-04 2.725131e-04 2.488171e-04 2.529460e-04 2.278127e-04 2.338966e-04 2.082444e-04 2.152569e-04 1.900436e-04 1.968202e-04 1.729464e-04 1.784200e-04 1.566355e-04 1.600288e-04 1.408623e-04 1.417943e-04 1.255218e-04 1.240194e-04 1.106738e-04 1.071030e-04 9.651842e-05 9.146960e-05 8.334243e-05 7.750434e-05 7.145591e-05 6.550655e-05 6.113447e-05 5.566278e-05 5.257562e-05 
4.001595e-05 3.869971e-05 3.621851e-05 3.544084e-05 3.442704e-05 3.382929e-05 3.430548e-05 3.358945e-05 3.549124e-05 3.440453e-05 3.760073e-05 3.592837e-05 4.023978e-05 3.780380e-05 4.302031e-05 3.968688e-05 4.558343e-05 4.127517e-05 4.762737e-05 4.233787e-05 4.893783e-05 4.274463e-05 4.941774e-05 4.249085e-05 4.911361e-05 4.171825e-05 4.823718e-05 4.073141e-05 4.718231e-05 4.001146e-05 4.653673e-05 4.022568e-05 4.708423e-05 4.222430e-05 4.978471e-05 4.700637e-05 5.571149e-05 5.563172e-05 6.592671e-05 6.906482e-05 8.129260e-05 8.796254e-05 1.022482e-04 1.124529e-04 1.286124e-04 1.419761e-04 1.594858e-04 1.752552e-04 1.933040e-04 2.104315e-04 2.280497e-04 2.453455e-04 2.615820e-04 2.778987e-04 2.920004e-04 3.064089e-04 3.179575e-04 3.298711e-04 3.388450e-04 3.480702e-04 3.548212e-04 3.615296e-04 3.666834e-04 3.713222e-04 3.756317e-04 3.787982e-04 3.829822e-04 3.852962e-04 3.898991e-04 3.918966e-04 3.971952e-04 3.992613e-04 4.052307e-04 4.075723e-04 4.139095e-04 4.165584e-04 4.227516e-04 4.255829e-04 4.310093e-04 4.337627e-04 4.377991e-04 4.400968e-04 4.422313e-04 4.435922e-04 4.435261e-04 4.433825e-04 4.411095e-04 4.388299e-04 4.346801e-04 4.296069e-04 4.242392e-04 4.157420e-04 4.100722e-04 3.976167e-04 3.926766e-04 3.759023e-04 3.726454e-04 3.514443e-04 3.505374e-04 3.251252e-04 3.267862e-04 2.977513e-04 3.016857e-04 2.699966e-04 2.754587e-04 2.424055e-04 2.483687e-04 2.154314e-04 2.208161e-04 1.894761e-04 1.933697e-04 1.649080e-04 1.667209e-04 1.420552e-04 1.415858e-04 1.211883e-04 1.185987e-04 1.025045e-04 9.823359e-05 8.612407e-05 8.077262e-05 7.209726e-05 6.631624e-05 6.041673e-05 5.481793e-05 5.102794e-05 4.612551e-05 4.383479e-05 
5.610275e-05 5.266795e-05 4.810116e-05 4.546214e-05 4.286878e-05 4.066325e-05 4.006215e-05 3.796612e-05 3.925515e-05 3.697415e-05 3.996580e-05 3.723339e-05 4.168488e-05 3.826927e-05 4.390717e-05 3.962507e-05 4.616553e-05 4.090052e-05 4.806696e-05 4.178874e-05 4.932837e-05 4.210859e-05 4.980935e-05 4.183058e-05 4.953923e-05 4.109566e-05 4.873760e-05 4.022919e-05 4.782996e-05 3.975387e-05 4.746049e-05 4.040268e-05 4.849921e-05 4.312360e-05 5.202946e-05 4.905346e-05 5.928824e-05 5.942807e-05 7.152994e-05 7.540451e-05 8.980398e-05 9.780453e-05 1.146796e-04 1.268367e-04 1.459951e-04 1.618897e-04 1.827260e-04 2.014861e-04 2.230427e-04 2.434412e-04 2.645657e-04 2.852044e-04 3.047659e-04 3.242991e-04 3.414057e-04 3.587502e-04 3.729128e-04 3.873944e-04 3.985978e-04 4.100075e-04 4.186775e-04 4.272328e-04 4.341135e-04 4.403462e-04 4.463213e-04 4.509252e-04 4.568243e-04 4.605011e-04 4.669331e-04 4.702686e-04 4.775122e-04 4.809011e-04 4.888674e-04 4.924878e-04 5.007515e-04 5.045746e-04 5.124574e-04 5.162740e-04 5.229595e-04 5.264073e-04 5.310728e-04 5.336586e-04 5.356114e-04 5.367322e-04 5.355428e-04 5.345123e-04 5.301319e-04 5.262211e-04 5.190654e-04 5.115637e-04 5.025381e-04 4.908326e-04 4.812692e-04 4.649326e-04 4.564169e-04 4.352843e-04 4.293759e-04 4.035980e-04 4.014948e-04 3.715613e-04 3.737989e-04 3.405329e-04 3.468185e-04 3.113395e-04 3.205868e-04 2.842317e-04 2.947968e-04 2.589946e-04 2.690436e-04 2.351556e-04 2.430547e-04 2.122124e-04 2.168314e-04 1.898138e-04 1.906749e-04 1.678554e-04 1.651171e-04 1.464876e-04 1.408042e-04 1.260577e-04 1.183780e-04 1.070184e-04 9.838479e-05 8.983227e-05 8.122034e-05 7.489158e-05 6.710853e-05 6.246457e-05 
4.341148e-05 4.106334e-05 3.764604e-05 3.595180e-05 3.452109e-05 3.306455e-05 3.361470e-05 3.205620e-05 3.447891e-05 3.252770e-05 3.663967e-05 3.403928e-05 3.960560e-05 3.613367e-05 4.288778e-05 3.836866e-05 4.603015e-05 4.035643e-05 4.864819e-05 4.180500e-05 5.047058e-05 4.255615e-05 5.137795e-05 4.261436e-05 5.143284e-05 4.216465e-05 5.089901e-05 4.158211e-05 5.025316e-05 4.144072e-05 5.019604e-05 4.252876e-05 5.166578e-05 4.586618e-05 5.584050e-05 5.269789e-05 6.409526e-05 6.441724e-05 7.786814e-05 8.237827e-05 9.841194e-05 1.075972e-04 1.264646e-04 1.404106e-04 1.619339e-04 1.802073e-04 2.037201e-04 2.253541e-04 2.497673e-04 2.733716e-04 2.973595e-04 3.213330e-04 3.435895e-04 3.663824e-04 3.858768e-04 4.062343e-04 4.224013e-04 4.395325e-04 4.523518e-04 4.659915e-04 4.759450e-04 4.863077e-04 4.942355e-04 5.018857e-04 5.087781e-04 5.144583e-04 5.212349e-04 5.256955e-04 5.330194e-04 5.368864e-04 5.450469e-04 5.487495e-04 5.576307e-04 5.613850e-04 5.705128e-04 5.743432e-04 5.829881e-04 5.867597e-04 5.940689e-04 5.975105e-04 6.026509e-04 6.053641e-04 6.076641e-04 6.091203e-04 6.082007e-04 6.077380e-04 6.036206e-04 6.004511e-04 5.936278e-04 5.868703e-04 5.783094e-04 5.670563e-04 5.581202e-04 5.415384e-04 5.337895e-04 5.112433e-04 5.061486e-04 4.773311e-04 4.759238e-04 4.409864e-04 4.435885e-04 4.032495e-04 4.093587e-04 3.649518e-04 3.733463e-04 3.267573e-04 3.357883e-04 2.892522e-04 2.972305e-04 2.530136e-04 2.585691e-04 2.186182e-04 2.209352e-04 1.865991e-04 1.854874e-04 1.573862e-04 1.532059e-04 1.312686e-04 1.247632e-04 1.083909e-04 1.004936e-04 8.877862e-05 8.044135e-05 7.237296e-05 6.444458e-05 5.906038e-05 5.221765e-05 4.868760e-05 
6.071258e-05 5.540792e-05 4.928388e-05 4.501681e-05 4.157487e-05 3.792331e-05 3.711943e-05 3.370706e-05 3.536021e-05 3.183755e-05 3.567789e-05 3.171704e-05 3.742283e-05 3.272667e-05 3.995187e-05 3.427583e-05 4.267125e-05 3.585339e-05 4.508433e-05 3.707687e-05 4.683966e-05 3.773383e-05 4.777259e-05 3.780959e-05 4.793417e-05 3.749902e-05 4.760480e-05 3.720677e-05 4.729824e-05 3.754850e-05 4.776834e-05 3.936718e-05 5.002831e-05 4.376533e-05 5.537184e-05 5.212310e-05 6.535140e-05 6.603911e-05 8.164676e-05 8.712816e-05 1.057797e-04 1.166633e-04 1.387069e-04 1.551426e-04 1.804136e-04 2.019369e-04 2.296733e-04 2.551780e-04 2.840976e-04 3.119647e-04 3.404937e-04 3.688511e-04 3.954388e-04 4.224784e-04 4.459091e-04 4.701793e-04 4.897979e-04 5.104010e-04 5.262026e-04 5.428614e-04 5.554330e-04 5.684265e-04 5.787671e-04 5.887690e-04 5.980381e-04 6.059063e-04 6.151601e-04 6.217329e-04 6.317042e-04 6.376476e-04 6.486106e-04 6.543402e-04 6.660798e-04 6.717535e-04 6.836253e-04 6.891792e-04 7.002319e-04 7.054243e-04 7.145516e-04 7.189911e-04 7.250943e-04 7.282486e-04 7.304040e-04 7.315984e-04 7.292255e-04 7.276469e-04 7.206688e-04 7.153933e-04 7.043704e-04 6.944286e-04 6.806302e-04 6.651194e-04 6.504795e-04 6.287025e-04 6.156007e-04 5.871973e-04 5.780430e-04 5.430845e-04 5.397703e-04 4.988111e-04 5.021941e-04 4.562904e-04 4.658931e-04 4.165810e-04 4.306416e-04 3.798461e-04 3.957237e-04 3.455727e-04 3.603781e-04 3.129352e-04 3.241836e-04 2.811623e-04 2.872505e-04 2.497953e-04 2.501936e-04 2.187914e-04 2.139532e-04 1.884885e-04 1.795695e-04 1.594823e-04 1.479915e-04 1.324736e-04 1.199590e-04 1.081297e-04 9.595471e-05 8.698189e-05 7.620593e-05 6.936737e-05 
4.259808e-05 3.862241e-05 3.404948e-05 3.083906e-05 2.887997e-05 2.598732e-05 2.657814e-05 2.364385e-05 2.661009e-05 2.331614e-05 2.840829e-05 2.445537e-05 3.137591e-05 2.648526e-05 3.490983e-05 2.884641e-05 3.844202e-05 3.105209e-05 4.149467e-05 3.274802e-05 4.374047e-05 3.376446e-05 4.505518e-05 3.414915e-05 4.555030e-05 3.417416e-05 4.557979e-05 3.432143e-05 4.572856e-05 3.526650e-05 4.680514e-05 3.788835e-05 4.986327e-05 4.332006e-05 5.625190e-05 5.301093e-05 6.763977e-05 6.871441e-05 8.591600e-05 9.229737e-05 1.128862e-04 1.253304e-04 1.497850e-04 1.685499e-04 1.967585e-04 2.213958e-04 2.525371e-04 2.818406e-04 3.144661e-04 3.466150e-04 3.789200e-04 4.117821e-04 4.419809e-04 4.734840e-04 5.001770e-04 5.286485e-04 5.510825e-04 5.754741e-04 5.936388e-04 6.135980e-04 6.281508e-04 6.439425e-04 6.559969e-04 6.683170e-04 6.791522e-04 6.888914e-04 6.996535e-04 7.076740e-04 7.191322e-04 7.261087e-04 7.385157e-04 7.448683e-04 7.579429e-04 7.638515e-04 7.768669e-04 7.823298e-04 7.942650e-04 7.991537e-04 8.088681e-04 8.129496e-04 8.193573e-04 8.222805e-04 8.245204e-04 8.257797e-04 8.233776e-04 8.222687e-04 8.152827e-04 8.108726e-04 8.000020e-04 7.911405e-04 7.777702e-04 7.631682e-04 7.492977e-04 7.276728e-04 7.156669e-04 6.859318e-04 6.780716e-04 6.395419e-04 6.374601e-04 5.900768e-04 5.942672e-04 5.388193e-04 5.484288e-04 4.867044e-04 4.997135e-04 4.344618e-04 4.482012e-04 3.828237e-04 3.946418e-04 3.326457e-04 3.405013e-04 2.848752e-04 2.876865e-04 2.404117e-04 2.381059e-04 1.999546e-04 1.932775e-04 1.639210e-04 1.541232e-04 1.324549e-04 1.209703e-04 1.054975e-04 9.369117e-05 8.287315e-05 7.188557e-05 6.435454e-05 5.503500e-05 4.969348e-05 
6.037874e-05 5.235150e-05 4.434929e-05 3.766160e-05 3.321562e-05 2.740049e-05 2.634732e-05 2.098542e-05 2.302380e-05 1.770941e-05 2.246132e-05 1.679195e-05 2.384409e-05 1.743420e-05 2.636526e-05 1.888142e-05 2.928112e-05 2.049202e-05 3.197664e-05 2.180667e-05 3.403416e-05 2.260546e-05 3.529095e-05 2.293874e-05 3.586994e-05 2.312243e-05 3.617430e-05 2.370224e-05 3.685456e-05 2.541286e-05 3.878009e-05 2.917551e-05 4.305862e-05 3.616698e-05 5.111853e-05 4.793560e-05 6.479189e-05 6.645070e-05 8.625731e-05 9.392650e-05 1.177081e-04 1.323374e-04 1.607481e-04 1.827284e-04 2.157136e-04 2.445957e-04 2.812237e-04 3.156366e-04 3.541939e-04 3.920156e-04 4.303455e-04 4.690760e-04 5.050469e-04 5.422653e-04 5.742214e-04 6.079952e-04 6.350672e-04 6.642158e-04 6.864252e-04 7.105924e-04 7.287488e-04 7.482950e-04 7.637312e-04 7.794982e-04 7.937187e-04 8.067397e-04 8.210625e-04 8.322935e-04 8.475630e-04 8.576986e-04 8.741262e-04 8.835327e-04 9.006875e-04 9.094404e-04 9.263625e-04 9.343334e-04 9.497133e-04 9.566420e-04 9.690145e-04 9.745323e-04 9.824656e-04 9.860722e-04 9.883569e-04 9.893744e-04 9.852258e-04 9.827549e-04 9.720253e-04 9.649331e-04 9.483214e-04 9.352999e-04 9.145194e-04 8.942393e-04 8.720516e-04 8.433881e-04 8.233636e-04 7.856174e-04 7.715223e-04 7.245718e-04 7.194579e-04 6.638493e-04 6.691334e-04 6.061507e-04 6.210590e-04 5.527644e-04 5.744050e-04 5.035664e-04 5.276416e-04 4.574639e-04 4.793773e-04 4.130446e-04 4.290117e-04 3.691657e-04 3.769652e-04 3.253035e-04 3.244922e-04 2.816212e-04 2.732642e-04 2.388261e-04 2.249463e-04 1.979257e-04 1.809057e-04 1.599826e-04 1.420862e-04 1.259250e-04 1.090050e-04 9.643076e-05 8.181404e-05 7.187916e-05 
3.607508e-05 2.959336e-05 2.362356e-05 1.802013e-05 1.539949e-05 1.023910e-05 1.080177e-05 5.735339e-06 9.211662e-06 3.904252e-06 9.963034e-06 4.062412e-06 1.233885e-05 5.482999e-06 1.559807e-05 7.456740e-06 1.903352e-05 9.374202e-06 2.205493e-05 1.081715e-05 2.428215e-05 1.163800e-05 2.562489e-05 1.200214e-05 2.632162e-05 1.237424e-05 2.691932e-05 1.344951e-05 2.820178e-05 1.606514e-05 3.111471e-05 2.116211e-05 3.676511e-05 2.986759e-05 4.654474e-05 4.369336e-05 6.231563e-05 6.470505e-05 8.645764e-05 9.541929e-05 1.215535e-04 1.382672e-04 1.696679e-04 1.947284e-04 2.314683e-04 2.645046e-04 3.056049e-04 3.451473e-04 3.886755e-04 4.323443e-04 4.758224e-04 5.207705e-04 5.617392e-04 6.051928e-04 6.417455e-04 6.814804e-04 7.126187e-04 7.472583e-04 7.730003e-04 8.020876e-04 8.233344e-04 8.472004e-04 8.654231e-04 8.849152e-04 9.017519e-04 9.179079e-04 9.347597e-04 9.485149e-04 9.662297e-04 9.782299e-04 9.969414e-04 1.007500e-03 1.026646e-03 1.035824e-03 1.054310e-03 1.062046e-03 1.078465e-03 1.084663e-03 1.097521e-03 1.102065e-03 1.109978e-03 1.112678e-03 1.114561e-03 1.115054e-03 1.110314e-03 1.107954e-03 1.096680e-03 1.090433e-03 1.073565e-03 1.061966e-03 1.041424e-03 1.022662e-03 1.001350e-03 9.734783e-04 9.549992e-04 9.162150e-04 9.041886e-04 8.531337e-04 8.502190e-04 7.863336e-04 7.933277e-04 7.172900e-04 7.327314e-04 6.468543e-04 6.673503e-04 5.756592e-04 5.968228e-04 5.045915e-04 5.222220e-04 4.350015e-04 4.460753e-04 3.685455e-04 3.717162e-04 3.068074e-04 3.023588e-04 2.509463e-04 2.403557e-04 2.015430e-04 1.868992e-04 1.586604e-04 1.421433e-04 1.220260e-04 1.055519e-04 9.122179e-05 7.626902e-05 6.581233e-05 5.338559e-05 4.539515e-05 
5.327003e-05 4.131319e-05 3.110606e-05 2.088274e-05 1.527203e-05 6.293295e-06 4.914641e-06 -3.271672e-06 -8.929665e-07 -8.756633e-06 -3.134749e-06 -1.117968e-05 -2.828241e-06 -1.157124e-05 -9.823680e-07 -1.089668e-05 1.471248e-06 -9.960471e-06 3.772822e-06 -9.301785e-06 5.441244e-06 -9.104651e-06 6.366033e-06 -9.153804e-06 6.849154e-06 -8.863410e-06 7.567419e-06 -7.384141e-06 9.456320e-06 -3.750221e-06 1.357372e-05 3.029042e-06 2.105984e-05 1.405234e-05 3.329634e-05 3.081793e-05 5.221726e-05 5.554889e-05 8.049816e-05 9.119305e-05 1.212661e-04 1.408136e-04 1.772101e-04 2.064664e-04 2.494071e-04 2.880709e-04 3.364564e-04 3.828672e-04 4.343886e-04 4.857548e-04 5.374153e-04 5.903722e-04 6.392057e-04 6.904909e-04 7.342258e-04 7.812619e-04 8.187471e-04 8.599904e-04 8.913047e-04 9.263119e-04 9.525802e-04 9.818269e-04 1.004828e-03 1.029363e-03 1.051039e-03 1.072083e-03 1.094054e-03 1.112639e-03 1.135831e-03 1.152584e-03 1.177048e-03 1.192159e-03 1.217110e-03 1.230462e-03 1.254488e-03 1.265839e-03 1.287169e-03 1.296267e-03 1.313010e-03 1.319598e-03 1.329934e-03 1.333667e-03 1.336043e-03 1.336364e-03 1.329717e-03 1.325730e-03 1.309752e-03 1.300125e-03 1.275584e-03 1.258562e-03 1.227651e-03 1.201272e-03 1.167858e-03 1.130333e-03 1.099795e-03 1.049874e-03 1.028207e-03 9.653904e-04 9.576458e-04 8.823012e-04 8.909017e-04 8.044365e-04 8.281224e-04 7.332126e-04 7.671481e-04 6.677849e-04 7.048473e-04 6.059619e-04 6.387328e-04 5.453793e-04 5.680715e-04 4.844354e-04 4.940738e-04 4.227120e-04 4.192904e-04 3.608928e-04 3.466939e-04 3.003807e-04 2.789143e-04 2.428455e-04 2.178411e-04 1.898526e-04 1.645603e-04 1.426309e-04 1.194813e-04 1.019706e-04 8.252149e-05 6.821593e-05 