# vtk DataFile Version 2.0
Comment goes here
ASCII

DATASET STRUCTURED_POINTS
FIELD FieldData 1
TIME 1 1 double
0.11000000
DIMENSIONS    128   128   1

ORIGIN    0.000   0.000   0.000
SPACING   0.039062 0.039062   1.000

POINT_DATA   16384
SCALARS Omega double
LOOKUP_TABLE default

7.653804e-14 5.526726e-14 3.823022e-14 3.185168e-14 4.026375e-14 3.921695e-14 3.910798e-14 4.107033e-14 6.761075e-14 5.618115e-14 4.429575e-14 3.206167e-14 3.368702e-14 1.428439e-14 4.927157e-15 1.355195e-15 -2.487693e-14 -2.422901e-14 -3.263735e-14 -3.702526e-14 -5.962812e-14 -4.467483e-14 -4.151519e-14 -1.757677e-14 -2.655236e-14 -4.561131e-14 -3.859407e-14 -3.226582e-14 -2.241759e-14 -3.199343e-14 -1.596436e-14 -3.855705e-14 -3.197812e-14 -2.729142e-14 -2.026041e-14 6.031539e-15 -2.353786e-14 -2.205547e-14 -6.347912e-14 -4.117117e-14 1.681944e-14 7.197921e-14 8.881892e-14 6.245769e-14 5.243472e-14 5.583609e-14 5.970357e-14 2.202892e-14 2.432587e-14 -6.995900e-15 3.148694e-14 7.108828e-14 3.145329e-14 -1.039277e-14 -1.141162e-14 -4.386905e-15 -2.109408e-14 -1.716984e-15 2.458815e-14 -7.869425e-15 -5.860220e-14 -3.139480e-14 -2.393487e-14 -2.024961e-14 -1.995699e-14 -6.489671e-14 -9.842486e-14 -3.107781e-14 -5.002926e-14 -7.655470e-14 -3.109844e-14 -3.337268e-14 1.153984e-15 -5.838452e-15 -7.444510e-15 3.364751e-14 6.516055e-14 5.536038e-14 5.180092e-14 3.926136e-14 4.157231e-14 2.650109e-14 -1.903929e-14 2.505234e-14 4.627826e-14 4.909136e-14 3.234557e-14 -8.618383e-16 4.203919e-14 -2.610901e-14 -2.535037e-14 -1.543124e-15 -2.917696e-14 1.646038e-14 1.472013e-14 -5.390419e-15 2.100177e-14 -4.220748e-14 -3.052345e-15 -4.773426e-14 -1.138678e-13 -2.158122e-13 -5.629043e-14 -1.216165e-14 -1.459743e-13 4.886897e-14 2.991272e-14 -7.977423e-14 -1.173005e-13 -7.994051e-14 8.884923e-15 -8.430937e-14 4.135404e-14 -8.253948e-15 1.061190e-14 -1.458207e-14 -4.308129e-14 -1.696641e-14 -1.799369e-14 -3.081107e-14 -6.421899e-14 -1.735929e-14 -2.090114e-14 1.499232e-14 2.852120e-14 4.586484e-14 6.291319e-14 7.028821e-14 
5.020993e-06 4.921967e-06 4.574439e-06 4.552577e-06 4.367775e-06 4.403177e-06 4.370683e-06 4.446604e-06 4.544370e-06 4.645717e-06 4.843739e-06 4.956263e-06 5.220031e-06 5.330341e-06 5.623918e-06 5.720233e-06 6.008925e-06 6.082417e-06 6.335101e-06 6.381565e-06 6.572774e-06 6.594385e-06 6.706267e-06 6.713151e-06 6.737373e-06 6.748765e-06 6.688338e-06 6.733103e-06 6.603943e-06 6.720173e-06 6.551991e-06 6.785351e-06 6.621257e-06 7.021670e-06 6.915786e-06 7.532130e-06 7.544701e-06 8.417521e-06 8.607551e-06 9.760408e-06 1.017671e-05 1.160758e-05 1.228001e-05 1.395481e-05 1.488796e-05 1.673839e-05 1.790984e-05 1.983719e-05 2.120139e-05 2.308642e-05 2.458362e-05 2.630134e-05 2.786956e-05 2.930609e-05 3.089284e-05 3.196102e-05 3.353181e-05 3.418259e-05 3.572380e-05 3.595148e-05 3.746721e-05 3.730815e-05 3.881186e-05 3.833754e-05 3.984106e-05 3.914744e-05 4.065007e-05 3.984518e-05 4.132572e-05 4.051743e-05 4.193097e-05 4.121607e-05 4.249648e-05 4.195177e-05 4.301930e-05 4.269478e-05 4.346779e-05 4.338200e-05 4.379054e-05 4.392802e-05 4.392741e-05 4.423865e-05 4.382050e-05 4.422486e-05 4.342391e-05 4.381591e-05 4.271090e-05 4.297001e-05 4.167777e-05 4.168117e-05 4.034385e-05 3.998101e-05 3.874768e-05 3.793480e-05 3.693982e-05 3.563210e-05 3.497401e-05 3.317343e-05 3.289867e-05 3.065587e-05 3.075104e-05 2.816037e-05 2.855543e-05 2.574379e-05 2.632579e-05 2.343668e-05 2.407122e-05 2.124685e-05 2.180245e-05 1.916696e-05 1.953698e-05 1.718391e-05 1.730163e-05 1.528749e-05 1.513205e-05 1.347650e-05 1.306986e-05 1.176140e-05 1.115846e-05 1.016354e-05 9.438729e-06 8.711696e-06 7.945203e-06 7.437133e-06 6.703318e-06 6.368355e-06 5.727634e-06 5.526498e-06 
8.600480e-06 8.391091e-06 7.687080e-06 7.644344e-06 7.285860e-06 7.366865e-06 7.328738e-06 7.497825e-06 7.732408e-06 7.958194e-06 8.402820e-06 8.656428e-06 9.240189e-06 9.494964e-06 1.014458e-05 1.037724e-05 1.102204e-05 1.121498e-05 1.179121e-05 1.193554e-05 1.239034e-05 1.248921e-05 1.278441e-05 1.285621e-05 1.297227e-05 1.305307e-05 1.299306e-05 1.313802e-05 1.293116e-05 1.321416e-05 1.291809e-05 1.342885e-05 1.312922e-05 1.396704e-05 1.377300e-05 1.503629e-05 1.507063e-05 1.684232e-05 1.722642e-05 1.955624e-05 2.039153e-05 2.327833e-05 2.462802e-05 2.800615e-05 2.988194e-05 3.361641e-05 3.597447e-05 3.986809e-05 4.261663e-05 4.642970e-05 4.944705e-05 5.292697e-05 5.608572e-05 5.900096e-05 6.219203e-05 6.436373e-05 6.751371e-05 6.883884e-05 7.191630e-05 7.237854e-05 7.538786e-05 7.505537e-05 7.802042e-05 7.703240e-05 7.997462e-05 7.852038e-05 8.143717e-05 7.973178e-05 8.258071e-05 8.084087e-05 8.353354e-05 8.195616e-05 8.436322e-05 8.310784e-05 8.507467e-05 8.424996e-05 8.562012e-05 8.527440e-05 8.591710e-05 8.603278e-05 8.586972e-05 8.636234e-05 8.538947e-05 8.611210e-05 8.441234e-05 8.516642e-05 8.291004e-05 8.346286e-05 8.089378e-05 8.100209e-05 7.841031e-05 7.784794e-05 7.553065e-05 7.411702e-05 7.233409e-05 6.995951e-05 6.889108e-05 6.553473e-05 6.524996e-05 6.098711e-05 6.143173e-05 5.642797e-05 5.743466e-05 5.192724e-05 5.324758e-05 4.751599e-05 4.886705e-05 4.319778e-05 4.431292e-05 3.896465e-05 3.963730e-05 3.481306e-05 3.492478e-05 3.075575e-05 3.028476e-05 2.682751e-05 2.583878e-05 2.308439e-05 2.170666e-05 1.959770e-05 1.799439e-05 1.644474e-05 1.478555e-05 1.369865e-05 1.213650e-05 1.141910e-05 1.007492e-05 9.645202e-06 
1.477250e-05 1.445149e-05 1.337848e-05 1.328923e-05 1.271711e-05 1.280129e-05 1.269638e-05 1.290512e-05 1.319900e-05 1.348797e-05 1.408870e-05 1.441561e-05 1.521818e-05 1.554275e-05 1.643832e-05 1.672473e-05 1.760848e-05 1.782957e-05 1.860763e-05 1.875015e-05 1.934567e-05 1.941571e-05 1.977461e-05 1.980243e-05 1.989902e-05 1.994255e-05 1.978498e-05 1.993137e-05 1.956646e-05 1.993091e-05 1.944713e-05 2.016807e-05 1.969481e-05 2.092412e-05 2.062495e-05 2.251218e-05 2.257041e-05 2.524072e-05 2.583703e-05 2.936471e-05 3.064954e-05 3.503130e-05 3.709746e-05 4.223199e-05 4.509479e-05 5.077559e-05 5.436712e-05 6.029353e-05 6.447454e-05 7.028208e-05 7.486971e-05 8.017530e-05 8.498020e-05 8.943393e-05 9.429668e-05 9.762988e-05 1.024470e-04 1.045071e-04 1.092400e-04 1.100065e-04 1.146708e-04 1.142515e-04 1.188911e-04 1.175008e-04 1.221537e-04 1.200819e-04 1.247457e-04 1.223193e-04 1.269271e-04 1.244731e-04 1.288839e-04 1.266970e-04 1.307032e-04 1.290187e-04 1.323704e-04 1.313441e-04 1.337852e-04 1.334783e-04 1.347896e-04 1.351603e-04 1.352004e-04 1.361030e-04 1.348437e-04 1.360355e-04 1.335825e-04 1.347426e-04 1.313389e-04 1.320970e-04 1.281053e-04 1.280808e-04 1.239446e-04 1.227920e-04 1.189780e-04 1.164334e-04 1.133637e-04 1.092835e-04 1.072691e-04 1.016564e-04 1.008442e-04 9.385527e-05 9.420295e-05 8.613312e-05 8.741849e-05 7.866641e-05 8.053115e-05 7.154841e-05 7.356685e-05 6.480043e-05 6.655774e-05 5.839629e-05 5.955849e-05 5.229215e-05 5.265361e-05 4.645397e-05 4.595502e-05 4.087657e-05 3.959230e-05 3.559168e-05 3.369923e-05 3.066509e-05 2.840031e-05 2.618558e-05 2.379950e-05 2.224941e-05 1.997231e-05 1.894407e-05 1.696100e-05 1.633419e-05 
1.657748e-05 1.611457e-05 1.465020e-05 1.451970e-05 1.377066e-05 1.388944e-05 1.380044e-05 1.410005e-05 1.457137e-05 1.499133e-05 1.589413e-05 1.637799e-05 1.756799e-05 1.806270e-05 1.939171e-05 1.985017e-05 2.117583e-05 2.156181e-05 2.275589e-05 2.305053e-05 2.400649e-05 2.421529e-05 2.485565e-05 2.501497e-05 2.529899e-05 2.548117e-05 2.541278e-05 2.572890e-05 2.536419e-05 2.596348e-05 2.541594e-05 2.648041e-05 2.592116e-05 2.765344e-05 2.730313e-05 2.990590e-05 3.001542e-05 3.366180e-05 3.448163e-05 3.927872e-05 4.102024e-05 4.697176e-05 4.976840e-05 5.674538e-05 6.062398e-05 6.835339e-05 7.322514e-05 8.130378e-05 8.697987e-05 9.491472e-05 1.011443e-04 1.084137e-04 1.149349e-04 1.210592e-04 1.276496e-04 1.322563e-04 1.387690e-04 1.416408e-04 1.480170e-04 1.491142e-04 1.553695e-04 1.548252e-04 1.610142e-04 1.591071e-04 1.652772e-04 1.623887e-04 1.685342e-04 1.650992e-04 1.711284e-04 1.675869e-04 1.733097e-04 1.700637e-04 1.752028e-04 1.725813e-04 1.768056e-04 1.750374e-04 1.780121e-04 1.772053e-04 1.786495e-04 1.787794e-04 1.785230e-04 1.794272e-04 1.774564e-04 1.788419e-04 1.753272e-04 1.767897e-04 1.720873e-04 1.731459e-04 1.677705e-04 1.679159e-04 1.624831e-04 1.612363e-04 1.563809e-04 1.533543e-04 1.496344e-04 1.445886e-04 1.423935e-04 1.352777e-04 1.347582e-04 1.257284e-04 1.267677e-04 1.161759e-04 1.184112e-04 1.067660e-04 1.096582e-04 9.756035e-05 1.004969e-04 8.856164e-05 9.096889e-05 7.974858e-05 8.118731e-05 7.111020e-05 7.133576e-05 6.267101e-05 6.164905e-05 5.450254e-05 5.238422e-05 4.672092e-05 4.379018e-05 3.947350e-05 3.608273e-05 3.291920e-05 2.942813e-05 2.720736e-05 2.393511e-05 2.245889e-05 1.965356e-05 1.875216e-05 
2.361340e-05 2.299442e-05 2.110562e-05 2.087381e-05 1.986242e-05 1.992549e-05 1.972690e-05 2.000808e-05 2.050036e-05 2.092908e-05 2.195252e-05 2.245962e-05 2.383438e-05 2.435227e-05 2.589353e-05 2.636071e-05 2.789159e-05 2.826042e-05 2.962298e-05 2.986918e-05 3.093412e-05 3.106649e-05 3.174224e-05 3.181098e-05 3.205261e-05 3.215521e-05 3.197343e-05 3.225715e-05 3.172673e-05 3.238670e-05 3.165252e-05 3.292411e-05 3.220157e-05 3.434479e-05 3.391032e-05 3.718409e-05 3.735184e-05 4.197687e-05 4.306069e-05 4.917346e-05 5.143823e-05 5.904331e-05 6.265537e-05 7.158770e-05 7.657816e-05 8.648823e-05 9.274166e-05 1.031133e-04 1.103883e-04 1.205907e-04 1.285696e-04 1.379363e-04 1.462914e-04 1.542110e-04 1.626694e-04 1.686694e-04 1.770589e-04 1.808663e-04 1.891300e-04 1.906992e-04 1.988755e-04 1.983813e-04 2.065561e-04 2.043574e-04 2.126020e-04 2.091867e-04 2.174972e-04 2.134183e-04 2.216721e-04 2.174861e-04 2.254256e-04 2.216377e-04 2.288853e-04 2.259049e-04 2.320071e-04 2.301127e-04 2.346055e-04 2.339187e-04 2.364029e-04 2.368712e-04 2.370871e-04 2.384776e-04 2.363663e-04 2.382739e-04 2.340163e-04 2.358910e-04 2.299153e-04 2.311100e-04 2.240629e-04 2.239013e-04 2.165797e-04 2.144381e-04 2.076879e-04 2.030807e-04 1.976732e-04 1.903288e-04 1.868362e-04 1.767486e-04 1.754434e-04 1.628890e-04 1.636933e-04 1.492062e-04 1.517069e-04 1.360154e-04 1.395457e-04 1.234770e-04 1.272473e-04 1.116183e-04 1.148650e-04 1.003807e-04 1.024982e-04 8.967496e-05 9.030253e-05 7.943265e-05 7.848296e-05 6.964013e-05 6.727240e-05 6.035199e-05 5.690606e-05 5.168437e-05 4.759753e-05 4.379390e-05 3.952056e-05 3.684940e-05 3.279747e-05 3.100316e-05 2.749319e-05 2.636681e-05 
2.323259e-05 2.241984e-05 2.008478e-05 1.976806e-05 1.856683e-05 1.862894e-05 1.846536e-05 1.881131e-05 1.952431e-05 2.006922e-05 2.145678e-05 2.211910e-05 2.395875e-05 2.465933e-05 2.672510e-05 2.739161e-05 2.946785e-05 3.004318e-05 3.193624e-05 3.238932e-05 3.393798e-05 3.427512e-05 3.536086e-05 3.563604e-05 3.619393e-05 3.651647e-05 3.654698e-05 3.708566e-05 3.666666e-05 3.764904e-05 3.694549e-05 3.865064e-05 3.791781e-05 4.065945e-05 4.023355e-05 4.433025e-05 4.460109e-05 5.033139e-05 5.169512e-05 5.924006e-05 6.203680e-05 7.141865e-05 7.586787e-05 8.690025e-05 9.305179e-05 1.053181e-04 1.130357e-04 1.259086e-04 1.348945e-04 1.475990e-04 1.574566e-04 1.691675e-04 1.794844e-04 1.894387e-04 1.998697e-04 2.074703e-04 2.177950e-04 2.226869e-04 2.328282e-04 2.349332e-04 2.449327e-04 2.444423e-04 2.544011e-04 2.517328e-04 2.617341e-04 2.574665e-04 2.675008e-04 2.622974e-04 2.722096e-04 2.667458e-04 2.762156e-04 2.711146e-04 2.796772e-04 2.754574e-04 2.825594e-04 2.795929e-04 2.846745e-04 2.831548e-04 2.857443e-04 2.856623e-04 2.854683e-04 2.866000e-04 2.835867e-04 2.854963e-04 2.799302e-04 2.819944e-04 2.744500e-04 2.759081e-04 2.672265e-04 2.672551e-04 2.584536e-04 2.562624e-04 2.484003e-04 2.433373e-04 2.373556e-04 2.290061e-04 2.255680e-04 2.138299e-04 2.131963e-04 1.983174e-04 2.002913e-04 1.828552e-04 1.868156e-04 1.676767e-04 1.726991e-04 1.528718e-04 1.579101e-04 1.384316e-04 1.425157e-04 1.243091e-04 1.267116e-04 1.104778e-04 1.108139e-04 9.697268e-05 9.521933e-05 8.390729e-05 8.035127e-05 7.146718e-05 6.660700e-05 5.988620e-05 5.431869e-05 4.941377e-05 4.373129e-05 4.028129e-05 3.499544e-05 3.267329e-05 2.817047e-05 2.670683e-05 
3.080573e-05 2.974733e-05 2.689601e-05 2.638172e-05 2.484886e-05 2.476104e-05 2.443675e-05 2.467844e-05 2.537465e-05 2.585400e-05 2.733328e-05 2.795597e-05 2.995651e-05 3.062628e-05 3.288270e-05 3.350896e-05 3.576968e-05 3.628015e-05 3.832182e-05 3.867771e-05 4.031779e-05 4.052883e-05 4.163714e-05 4.177386e-05 4.228396e-05 4.248578e-05 4.240699e-05 4.288501e-05 4.231467e-05 4.334879e-05 4.248303e-05 4.441202e-05 4.355021e-05 4.675187e-05 4.628768e-05 5.114460e-05 5.153617e-05 5.838372e-05 6.009909e-05 6.915722e-05 7.260003e-05 8.389917e-05 8.933000e-05 1.026494e-04 1.101254e-04 1.249655e-04 1.343199e-04 1.499254e-04 1.607986e-04 1.762350e-04 1.881515e-04 2.024240e-04 2.148964e-04 2.270865e-04 2.397160e-04 2.491075e-04 2.616536e-04 2.678233e-04 2.802237e-04 2.830821e-04 2.954189e-04 2.951998e-04 3.076227e-04 3.048293e-04 3.174576e-04 3.127824e-04 3.256108e-04 3.198445e-04 3.326768e-04 3.266208e-04 3.390463e-04 3.334365e-04 3.448564e-04 3.403016e-04 3.499990e-04 3.469312e-04 3.541731e-04 3.528072e-04 3.569611e-04 3.572639e-04 3.579114e-04 3.595828e-04 3.566149e-04 3.590898e-04 3.527680e-04 3.552465e-04 3.462196e-04 3.477308e-04 3.369952e-04 3.364981e-04 3.252986e-04 3.218099e-04 3.114844e-04 3.042190e-04 2.960028e-04 2.845033e-04 2.793239e-04 2.635539e-04 2.618590e-04 2.422394e-04 2.439042e-04 2.212795e-04 2.256254e-04 2.011620e-04 2.070917e-04 1.821203e-04 1.883400e-04 1.641719e-04 1.694445e-04 1.471974e-04 1.505646e-04 1.310353e-04 1.319562e-04 1.155638e-04 1.139509e-04 1.007545e-04 9.691497e-05 8.668971e-05 8.120491e-05 7.354812e-05 6.713147e-05 6.156894e-05 5.493613e-05 5.100676e-05 4.477957e-05 4.208801e-05 3.673827e-05 3.497592e-05 
2.771811e-05 2.638918e-05 2.302501e-05 2.235195e-05 2.061283e-05 2.045566e-05 2.018628e-05 2.043386e-05 2.139706e-05 2.194739e-05 2.385734e-05 2.460710e-05 2.715651e-05 2.800008e-05 3.088169e-05 3.171850e-05 3.464214e-05 3.539011e-05 3.809667e-05 3.870891e-05 4.098258e-05 4.146445e-05 4.314468e-05 4.356820e-05 4.456270e-05 4.507666e-05 4.537640e-05 4.621098e-05 4.590707e-05 4.737274e-05 4.667295e-05 4.915215e-05 4.839110e-05 5.231897e-05 5.195252e-05 5.778044e-05 5.835365e-05 6.648985e-05 6.857233e-05 7.930004e-05 8.339383e-05 9.677897e-05 1.032183e-04 1.190298e-04 1.279023e-04 1.455732e-04 1.566909e-04 1.753410e-04 1.882761e-04 2.068022e-04 2.209816e-04 2.381981e-04 2.530308e-04 2.678341e-04 2.828347e-04 2.943533e-04 3.092276e-04 3.169307e-04 3.315994e-04 3.353460e-04 3.499034e-04 3.499307e-04 3.645516e-04 3.614146e-04 3.762361e-04 3.707149e-04 3.857240e-04 3.787215e-04 3.936760e-04 3.861191e-04 4.005220e-04 3.932773e-04 4.064109e-04 4.002161e-04 4.112287e-04 4.066372e-04 4.146678e-04 4.120005e-04 4.163197e-04 4.156245e-04 4.157709e-04 4.167931e-04 4.126865e-04 4.148589e-04 4.068726e-04 4.093363e-04 3.983126e-04 3.999775e-04 3.871738e-04 3.868232e-04 3.737835e-04 3.702168e-04 3.585730e-04 3.507723e-04 3.419958e-04 3.292898e-04 3.244339e-04 3.066292e-04 3.061189e-04 2.835699e-04 2.870989e-04 2.606976e-04 2.672743e-04 2.383508e-04 2.464948e-04 2.166397e-04 2.246842e-04 1.955215e-04 2.019430e-04 1.749008e-04 1.785912e-04 1.547227e-04 1.551417e-04 1.350331e-04 1.322208e-04 1.159992e-04 1.104722e-04 9.789408e-05 9.047189e-05 8.105614e-05 7.267449e-05 6.583927e-05 5.739132e-05 5.256453e-05 4.479265e-05 4.148149e-05 3.492269e-05 3.274236e-05 
3.541495e-05 3.368505e-05 2.967587e-05 2.865012e-05 2.649091e-05 2.604093e-05 2.555326e-05 2.557379e-05 2.648430e-05 2.686910e-05 2.884849e-05 2.947942e-05 3.217442e-05 3.292312e-05 3.598231e-05 3.672263e-05 3.981732e-05 4.044518e-05 4.328653e-05 4.374322e-05 4.609661e-05 4.639096e-05 4.808862e-05 4.831395e-05 4.926716e-05 4.961064e-05 4.982308e-05 5.056712e-05 5.015065e-05 5.166743e-05 5.085938e-05 5.359904e-05 5.277569e-05 5.724512e-05 5.692015e-05 6.364434e-05 6.443781e-05 7.389505e-05 7.646253e-05 8.899087e-05 9.391617e-05 1.096038e-04 1.172782e-04 1.358657e-04 1.463914e-04 1.672219e-04 1.803751e-04 2.024191e-04 2.176935e-04 2.396553e-04 2.563783e-04 2.768644e-04 2.943517e-04 3.120660e-04 3.297711e-04 3.436928e-04 3.613072e-04 3.708172e-04 3.882950e-04 3.932313e-04 4.107334e-04 4.113747e-04 4.291513e-04 4.261428e-04 4.443863e-04 4.386311e-04 4.573366e-04 4.498751e-04 4.687448e-04 4.606412e-04 4.790545e-04 4.713014e-04 4.883573e-04 4.817989e-04 4.964238e-04 4.916921e-04 5.027903e-04 5.002470e-04 5.068697e-04 5.065527e-04 5.080607e-04 5.096419e-04 5.058428e-04 5.086093e-04 4.998502e-04 5.027260e-04 4.899255e-04 4.915471e-04 4.761499e-04 4.750022e-04 4.588466e-04 4.534528e-04 4.385500e-04 4.276930e-04 4.159335e-04 3.988697e-04 3.916986e-04 3.683203e-04 3.664506e-04 3.373590e-04 3.406031e-04 3.070696e-04 3.143554e-04 2.781663e-04 2.877530e-04 2.509596e-04 2.608054e-04 2.254226e-04 2.336058e-04 2.013259e-04 2.064048e-04 1.783892e-04 1.796143e-04 1.564101e-04 1.537555e-04 1.353398e-04 1.293798e-04 1.153010e-04 1.069957e-04 9.655768e-05 8.701888e-05 7.945580e-05 6.974861e-05 6.435514e-05 5.536455e-05 5.156782e-05 4.393282e-05 4.131222e-05 
2.896588e-05 2.685302e-05 2.226493e-05 2.096285e-05 1.858541e-05 1.795004e-05 1.754092e-05 1.746059e-05 1.868550e-05 1.905086e-05 2.152628e-05 2.221550e-05 2.554154e-05 2.642013e-05 3.020528e-05 3.113834e-05 3.501842e-05 3.589174e-05 3.954484e-05 4.029037e-05 4.344952e-05 4.407022e-05 4.653519e-05 4.712450e-05 4.877473e-05 4.952786e-05 5.033857e-05 5.155521e-05 5.161856e-05 5.369921e-05 5.324992e-05 5.668694e-05 5.612621e-05 6.148635e-05 6.138958e-05 6.927719e-05 7.036542e-05 8.135242e-05 8.441143e-05 9.892792e-05 1.046768e-04 1.228756e-04 1.318133e-04 1.534445e-04 1.657230e-04 1.900638e-04 2.054372e-04 2.313142e-04 2.491885e-04 2.751002e-04 2.946740e-04 3.189895e-04 3.394444e-04 3.606334e-04 3.813154e-04 3.981581e-04 4.186983e-04 4.304324e-04 4.507757e-04 4.571611e-04 4.774978e-04 4.787984e-04 4.994222e-04 4.963228e-04 5.174552e-04 5.109401e-04 5.325660e-04 5.237858e-04 5.455415e-04 5.356901e-04 5.568308e-04 5.470441e-04 5.664997e-04 5.577742e-04 5.742805e-04 5.674051e-04 5.796857e-04 5.751753e-04 5.821427e-04 5.801704e-04 5.811190e-04 5.814552e-04 5.762229e-04 5.781970e-04 5.672742e-04 5.697764e-04 5.543402e-04 5.558837e-04 5.377374e-04 5.365922e-04 5.179956e-04 5.123939e-04 4.957840e-04 4.841766e-04 4.717966e-04 4.531185e-04 4.466110e-04 4.205038e-04 4.205564e-04 3.874991e-04 3.936526e-04 3.549646e-04 3.656673e-04 3.233660e-04 3.362890e-04 2.928104e-04 3.053481e-04 2.631769e-04 2.729925e-04 2.342825e-04 2.397459e-04 2.060258e-04 2.064364e-04 1.784709e-04 1.740396e-04 1.518645e-04 1.435073e-04 1.265993e-04 1.156356e-04 1.031474e-04 9.099956e-05 8.198596e-05 6.994535e-05 6.353277e-05 5.261874e-05 4.809900e-05 3.900511e-05 3.586166e-05 
3.623472e-05 3.346869e-05 2.807309e-05 2.617893e-05 2.327817e-05 2.213961e-05 2.145187e-05 2.097194e-05 2.211207e-05 2.217827e-05 2.470685e-05 2.517664e-05 2.863786e-05 2.934312e-05 3.329407e-05 3.406117e-05 3.809524e-05 3.877609e-05 4.254192e-05 4.304957e-05 4.626622e-05 4.660760e-05 4.907646e-05 4.937511e-05 5.098983e-05 5.149458e-05 5.225197e-05 5.333213e-05 5.334854e-05 5.548110e-05 5.501735e-05 5.877204e-05 5.826327e-05 6.428492e-05 6.435939e-05 7.333459e-05 7.479441e-05 8.738154e-05 9.111930e-05 1.078278e-04 1.146756e-04 1.357060e-04 1.462499e-04 1.713390e-04 1.857604e-04 2.140901e-04 2.321001e-04 2.623188e-04 2.832179e-04 3.135836e-04 3.364345e-04 3.650515e-04 3.889106e-04 4.140017e-04 4.381381e-04 4.582896e-04 4.823268e-04 4.966584e-04 5.206014e-04 5.288364e-04 5.529818e-04 5.554217e-04 5.801792e-04 5.776032e-04 6.032785e-04 5.968017e-04 6.233954e-04 6.143156e-04 6.413877e-04 6.310476e-04 6.576813e-04 6.473575e-04 6.722297e-04 6.630473e-04 6.845904e-04 6.774471e-04 6.940671e-04 6.895540e-04 6.998663e-04 6.981791e-04 7.012328e-04 7.020858e-04 6.975534e-04 7.001196e-04 6.884327e-04 6.913364e-04 6.737448e-04 6.751354e-04 6.536666e-04 6.513912e-04 6.286882e-04 6.205655e-04 5.995892e-04 5.837536e-04 5.673568e-04 5.426084e-04 5.330281e-04 4.991116e-04 4.974873e-04 4.552332e-04 4.612972e-04 4.125841e-04 4.246569e-04 3.721841e-04 3.875179e-04 3.344116e-04 3.498033e-04 2.991271e-04 3.116214e-04 2.659019e-04 2.733761e-04 2.342657e-04 2.357434e-04 2.038992e-04 1.995488e-04 1.747356e-04 1.656156e-04 1.469674e-04 1.346461e-04 1.209845e-04 1.071606e-04 9.727664e-05 8.348784e-05 7.633407e-05 6.378563e-05 5.856523e-05 4.806926e-05 4.424158e-05 
2.562662e-05 2.230947e-05 1.628733e-05 1.393268e-05 1.081589e-05 9.304559e-06 8.723898e-06 7.965134e-06 9.461721e-06 9.350208e-06 1.242647e-05 1.282318e-05 1.697904e-05 1.771371e-05 2.247245e-05 2.336390e-05 2.829133e-05 2.918064e-05 3.389981e-05 3.468947e-05 3.889236e-05 3.958301e-05 4.303996e-05 4.375645e-05 4.632525e-05 4.732667e-05 4.896486e-05 5.063923e-05 5.142552e-05 5.427655e-05 5.444623e-05 5.908156e-05 5.907338e-05 6.619539e-05 6.669050e-05 7.707331e-05 7.898922e-05 9.341082e-05 9.781159e-05 1.169164e-04 1.248284e-04 1.489299e-04 1.611035e-04 1.899832e-04 2.066837e-04 2.394650e-04 2.603801e-04 2.955413e-04 3.198501e-04 3.553900e-04 3.819754e-04 4.156930e-04 4.434277e-04 4.732425e-04 5.012554e-04 5.254940e-04 5.533405e-04 5.709310e-04 5.986224e-04 6.091739e-04 6.370658e-04 6.408382e-04 6.694152e-04 6.672076e-04 6.968245e-04 6.898182e-04 7.204632e-04 7.100569e-04 7.411940e-04 7.288575e-04 7.593890e-04 7.465507e-04 7.749079e-04 7.628698e-04 7.872106e-04 7.770725e-04 7.955423e-04 7.881117e-04 7.991228e-04 7.948070e-04 7.973013e-04 7.959930e-04 7.896660e-04 7.906502e-04 7.761122e-04 7.780254e-04 7.568709e-04 7.577442e-04 7.324974e-04 7.299148e-04 7.038237e-04 6.952087e-04 6.718692e-04 6.548769e-04 6.376939e-04 6.106387e-04 6.021834e-04 5.644125e-04 5.658176e-04 5.179475e-04 5.285409e-04 4.724970e-04 4.898501e-04 4.286713e-04 4.491072e-04 3.865141e-04 4.059494e-04 3.457386e-04 3.605993e-04 3.060087e-04 3.139370e-04 2.671571e-04 2.673261e-04 2.292923e-04 2.223007e-04 1.927937e-04 1.802587e-04 1.582310e-04 1.422639e-04 1.262537e-04 1.089836e-04 9.748439e-05 8.072798e-05 7.243807e-05 5.753512e-05 5.147210e-05 3.925771e-05 3.476403e-05 
3.172445e-05 2.735934e-05 2.034278e-05 1.703674e-05 1.328722e-05 1.096921e-05 1.005246e-05 8.654957e-06 1.004000e-05 9.451645e-06 1.256779e-05 1.261628e-05 1.689365e-05 1.735548e-05 2.225551e-05 2.288810e-05 2.792827e-05 2.851838e-05 3.329285e-05 3.371180e-05 3.790737e-05 3.816085e-05 4.156640e-05 4.182591e-05 4.433543e-05 4.494259e-05 4.655572e-05 4.800111e-05 4.883145e-05 5.172150e-05 5.202557e-05 5.705749e-05 5.728975e-05 6.524420e-05 6.611982e-05 7.785354e-05 8.036978e-05 9.676243e-05 1.021184e-04 1.239292e-04 1.333169e-04 1.609525e-04 1.752644e-04 2.085262e-04 2.280882e-04 2.660053e-04 2.904538e-04 3.312879e-04 3.596520e-04 4.010925e-04 4.320568e-04 4.715548e-04 5.038114e-04 5.389599e-04 5.715322e-04 6.004005e-04 6.328429e-04 6.541984e-04 6.866215e-04 7.000141e-04 7.329385e-04 7.386576e-04 7.727452e-04 7.716851e-04 8.074195e-04 8.008969e-04 8.382940e-04 8.278602e-04 8.662784e-04 8.535583e-04 8.916576e-04 8.782333e-04 9.140929e-04 9.014215e-04 9.327840e-04 9.221193e-04 9.467028e-04 9.389891e-04 9.548099e-04 9.505391e-04 9.562081e-04 9.552612e-04 9.502368e-04 9.517473e-04 9.365298e-04 9.388140e-04 9.150518e-04 9.156518e-04 8.861262e-04 8.820131e-04 8.504628e-04 8.384227e-04 8.091697e-04 7.863383e-04 7.636877e-04 7.281247e-04 7.155724e-04 6.667361e-04 6.661436e-04 6.051519e-04 6.161627e-04 5.457754e-04 5.657438e-04 4.900376e-04 5.145836e-04 4.383375e-04 4.623905e-04 3.902833e-04 4.092801e-04 3.450942e-04 3.559401e-04 3.020017e-04 3.035228e-04 2.605327e-04 2.533671e-04 2.206284e-04 2.067090e-04 1.826142e-04 1.644939e-04 1.470750e-04 1.273201e-04 1.146985e-04 9.547667e-05 8.613319e-05 6.902000e-05 6.188634e-05 4.784368e-05 4.226593e-05 
1.603515e-05 1.086038e-05 3.213481e-06 -8.401525e-07 -4.778847e-06 -7.764027e-06 -8.543779e-06 -1.050375e-05 -8.740790e-06 -9.766374e-06 -6.089136e-06 -6.340691e-06 -1.354830e-06 -1.054141e-06 4.681130e-06 5.284088e-06 1.127377e-05 1.195285e-05 1.778037e-05 1.839441e-05 2.373199e-05 2.428166e-05 2.889551e-05 2.956002e-05 3.331032e-05 3.445265e-05 3.729253e-05 3.943315e-05 4.141849e-05 4.519465e-05 4.652276e-05 5.266198e-05 5.375056e-05 6.307697e-05 6.466531e-05 7.811946e-05 8.132701e-05 9.993428e-05 1.061878e-04 1.309041e-04 1.416845e-04 1.731093e-04 1.895715e-04 2.276157e-04 2.502296e-04 2.938838e-04 3.222619e-04 3.695830e-04 4.025761e-04 4.509164e-04 4.869438e-04 5.333502e-04 5.708384e-04 6.125038e-04 6.502852e-04 6.849365e-04 7.224877e-04 7.486373e-04 7.861026e-04 8.031370e-04 8.411455e-04 8.492738e-04 8.886131e-04 8.887161e-04 9.299520e-04 9.233840e-04 9.665190e-04 9.549072e-04 9.991603e-04 9.842402e-04 1.028006e-03 1.011509e-03 1.052508e-03 1.036092e-03 1.071669e-03 1.056843e-03 1.084342e-03 1.072353e-03 1.089491e-03 1.081150e-03 1.086365e-03 1.081847e-03 1.074597e-03 1.073256e-03 1.054254e-03 1.054502e-03 1.025850e-03 1.025140e-03 9.903045e-04 9.852914e-04 9.488858e-04 9.358183e-04 9.031276e-04 8.784454e-04 8.546659e-04 8.156922e-04 8.049143e-04 7.504754e-04 7.546242e-04 6.854648e-04 7.035826e-04 6.224893e-04 6.507323e-04 5.622894e-04 5.947666e-04 5.046965e-04 5.349230e-04 4.490870e-04 4.715555e-04 3.948652e-04 4.062052e-04 3.417920e-04 3.411893e-04 2.900940e-04 2.789665e-04 2.403910e-04 2.215897e-04 1.935285e-04 1.704242e-04 1.503947e-04 1.261372e-04 1.117758e-04 8.885354e-05 7.826548e-05 5.835471e-05 5.022683e-05 3.424204e-05 2.778832e-05 
1.997986e-05 1.315406e-05 4.320768e-06 -1.212132e-06 -5.885304e-06 -1.010720e-05 -1.127111e-05 -1.419717e-05 -1.256813e-05 -1.430580e-05 -1.060744e-05 -1.137381e-05 -6.299885e-06 -6.403139e-06 -5.898001e-07 -3.792757e-07 5.620427e-06 5.829072e-06 1.156944e-05 1.158162e-05 1.674352e-05 1.656565e-05 2.096401e-05 2.085135e-05 2.442581e-05 2.487870e-05 2.766998e-05 2.937670e-05 3.150606e-05 3.525914e-05 3.694397e-05 4.358034e-05 4.521807e-05 5.562552e-05 5.793895e-05 7.311525e-05 7.727763e-05 9.835004e-05 1.059545e-04 1.340408e-04 1.468211e-04 1.826933e-04 2.020494e-04 2.457077e-04 2.722348e-04 3.225938e-04 3.558456e-04 4.106975e-04 4.493009e-04 5.055876e-04 5.476574e-04 6.019556e-04 6.456428e-04 6.947039e-04 7.386836e-04 7.798881e-04 8.236420e-04 8.552823e-04 8.991111e-04 9.204817e-04 9.652677e-04 9.765917e-04 1.023391e-03 1.025639e-03 1.075214e-03 1.069872e-03 1.122272e-03 1.111116e-03 1.165411e-03 1.150324e-03 1.204563e-03 1.187433e-03 1.238841e-03 1.221510e-03 1.266863e-03 1.251059e-03 1.287134e-03 1.274337e-03 1.298336e-03 1.289553e-03 1.299480e-03 1.294965e-03 1.289949e-03 1.288942e-03 1.269507e-03 1.270050e-03 1.238299e-03 1.237190e-03 1.196857e-03 1.189850e-03 1.146150e-03 1.128490e-03 1.087704e-03 1.054962e-03 1.023635e-03 9.726591e-04 9.563581e-04 8.860730e-04 8.879408e-04 7.998077e-04 8.194244e-04 7.174845e-04 7.506260e-04 6.410641e-04 6.806193e-04 5.708172e-04 6.086201e-04 5.058222e-04 5.347469e-04 4.446860e-04 4.602530e-04 3.861927e-04 3.871937e-04 3.297001e-04 3.178062e-04 2.752418e-04 2.539583e-04 2.234015e-04 1.968727e-04 1.750734e-04 1.471304e-04 1.312140e-04 1.048313e-04 9.265049e-05 6.978273e-05 5.996812e-05 4.164004e-05 3.346506e-05 
-1.769811e-06 -9.811000e-06 -1.920108e-05 -2.592650e-05 -3.072886e-05 -3.607102e-05 -3.707972e-05 -4.100681e-05 -3.902961e-05 -4.161378e-05 -3.742342e-05 -3.886186e-05 -3.317012e-05 -3.376718e-05 -2.720797e-05 -2.732319e-05 -2.043697e-05 -2.040464e-05 -1.362282e-05 -1.365465e-05 -7.287677e-06 -7.380101e-06 -1.615674e-06 -1.490789e-06 3.591935e-06 4.484972e-06 8.885938e-06 1.130118e-05 1.507163e-05 1.985741e-05 2.311455e-05 3.113326e-05 3.416858e-05 4.631536e-05 4.980463e-05 6.712322e-05 7.233885e-05 9.611053e-05 1.049406e-04 1.365618e-04 1.511806e-04 1.917490e-04 2.139914e-04 2.637367e-04 2.944543e-04 3.523000e-04 3.910258e-04 4.545136e-04 4.995993e-04 5.652178e-04 6.143662e-04 6.781437e-04 7.291048e-04 7.872559e-04 8.384327e-04 8.878859e-04 9.386708e-04 9.773803e-04 1.028155e-03 1.055187e-03 1.107022e-03 1.122462e-03 1.176619e-03 1.181368e-03 1.238743e-03 1.234272e-03 1.294904e-03 1.283014e-03 1.345770e-03 1.328414e-03 1.390951e-03 1.370144e-03 1.429163e-03 1.406960e-03 1.458666e-03 1.437118e-03 1.477754e-03 1.458756e-03 1.485093e-03 1.470116e-03 1.479883e-03 1.469637e-03 1.461907e-03 1.456020e-03 1.431550e-03 1.428302e-03 1.389776e-03 1.385955e-03 1.338041e-03 1.329047e-03 1.278218e-03 1.258567e-03 1.212578e-03 1.176833e-03 1.143702e-03 1.087596e-03 1.073989e-03 9.954399e-04 1.004756e-03 9.045611e-04 9.354872e-04 8.176301e-04 8.639724e-04 7.353891e-04 7.875026e-04 6.571072e-04 7.044863e-04 5.814921e-04 6.155456e-04 5.075368e-04 5.235157e-04 4.349821e-04 4.324771e-04 3.643563e-04 3.464566e-04 2.967319e-04 2.684557e-04 2.333908e-04 2.001010e-04 1.755354e-04 1.418203e-04 1.241091e-04 9.325930e-05 7.972284e-05 5.368861e-05 4.265672e-05 2.227886e-05 1.289778e-05 