# vtk DataFile Version 2.0
Comment goes here
ASCII

DATASET STRUCTURED_POINTS
FIELD FieldData 1
TIME 1 1 double
0.15000000
DIMENSIONS    128   128   1

ORIGIN    0.000   0.000   0.000
SPACING   0.039062 0.039062   1.000

POINT_DATA   16384
SCALARS Omega double
LOOKUP_TABLE default

3.297836e-14 5.562840e-14 5.180532e-14 5.352050e-14 5.309998e-14 4.758525e-14 4.583256e-14 6.021579e-14 6.582077e-14 6.337834e-14 6.072953e-14 3.063166e-14 3.516850e-14 2.893750e-14 2.244174e-14 -1.744064e-15 -1.250974e-14 -7.549311e-15 -4.132258e-14 -3.953456e-14 -6.678591e-14 -3.445066e-14 -3.853560e-14 -2.532894e-14 -2.507810e-14 -3.719079e-14 -4.273192e-14 -3.740801e-14 -4.726407e-14 -1.155791e-14 -3.807456e-14 -1.534197e-14 -3.117678e-14 -4.467423e-14 -2.281554e-14 -2.429124e-14 -3.712770e-14 -3.641482e-14 -1.729932e-14 2.259144e-14 2.048488e-14 -2.135131e-15 -7.671579e-15 4.705335e-15 -8.063302e-15 1.114550e-14 3.761111e-15 -1.487736e-14 -4.527997e-15 1.490389e-14 6.471872e-15 3.256751e-16 1.979079e-14 -1.863046e-14 5.320478e-15 9.169299e-14 -9.929850e-15 5.103008e-14 -3.063615e-14 -1.435353e-14 -1.743555e-14 8.430438e-15 -4.782291e-14 -1.114988e-14 -7.466134e-15 2.503876e-14 1.708774e-14 4.058489e-15 -2.269658e-14 -3.642393e-14 -4.039736e-14 -4.898571e-14 -3.585737e-14 -2.704431e-14 -3.863579e-14 -1.925029e-14 -1.255383e-14 -3.117844e-14 -4.545801e-14 -1.603149e-14 2.443422e-14 2.567171e-14 6.756080e-14 5.117868e-14 5.818317e-14 5.339912e-14 4.493817e-14 1.062665e-14 5.288142e-14 3.254550e-14 5.694035e-14 2.902253e-14 3.877566e-14 6.762391e-14 4.072629e-14 -2.247464e-15 -1.995792e-15 2.459355e-14 1.727137e-14 1.168027e-14 1.136048e-14 1.111980e-14 9.475239e-14 1.151454e-13 1.173837e-13 5.517921e-14 2.638526e-14 1.637997e-14 3.786431e-15 -6.487735e-15 -4.606856e-15 -1.909686e-14 -1.352668e-14 -2.808360e-14 -3.253318e-14 -5.927867e-14 -5.530348e-14 -4.646878e-14 -3.854444e-14 -3.900967e-14 -2.984536e-14 -1.363066e-14 -6.493617e-15 -3.780416e-15 -8.263201e-15 -9.566365e-15 2.909256e-15 2.726441e-14 
8.255755e-06 7.568569e-06 7.790460e-06 7.255895e-06 7.479323e-06 7.069453e-06 7.294327e-06 6.979951e-06 7.204274e-06 6.956322e-06 7.176763e-06 6.967469e-06 7.180082e-06 6.983946e-06 7.185047e-06 6.979583e-06 7.166823e-06 6.933127e-06 7.106781e-06 6.829950e-06 6.994404e-06 6.663898e-06 6.829251e-06 6.439326e-06 6.622929e-06 6.173285e-06 6.400955e-06 5.897680e-06 6.204230e-06 5.660950e-06 6.089613e-06 5.528515e-06 6.128801e-06 5.580890e-06 6.404500e-06 5.908285e-06 7.002931e-06 6.600877e-06 8.002339e-06 7.734917e-06 9.458313e-06 9.356360e-06 1.138832e-05 1.146534e-05 1.375920e-05 1.400578e-05 1.648176e-05 1.686425e-05 1.941578e-05 1.988035e-05 2.238609e-05 2.286787e-05 2.520777e-05 2.564315e-05 2.771517e-05 2.805450e-05 2.978855e-05 3.000595e-05 3.137223e-05 3.147033e-05 3.248036e-05 3.248888e-05 3.318947e-05 3.315831e-05 3.362018e-05 3.360877e-05 3.391247e-05 3.397779e-05 3.419985e-05 3.438555e-05 3.458728e-05 3.491572e-05 3.513611e-05 3.560421e-05 3.585752e-05 3.643661e-05 3.671421e-05 3.735338e-05 3.762893e-05 3.826094e-05 3.849783e-05 3.904682e-05 3.920659e-05 3.959644e-05 3.964727e-05 3.980973e-05 3.973371e-05 3.961524e-05 3.941328e-05 3.897971e-05 3.867325e-05 3.791151e-05 3.754020e-05 3.645708e-05 3.607276e-05 3.469116e-05 3.434901e-05 3.270282e-05 3.245179e-05 3.058097e-05 3.045545e-05 2.840244e-05 2.841732e-05 2.622535e-05 2.637536e-05 2.408842e-05 2.435152e-05 2.201491e-05 2.235856e-05 2.001923e-05 2.040758e-05 1.811325e-05 1.851358e-05 1.631082e-05 1.669797e-05 1.462933e-05 1.498764e-05 1.308875e-05 1.341182e-05 1.170900e-05 1.199782e-05 1.050680e-05 1.076719e-05 9.492851e-06 9.732897e-06 8.670128e-06 8.898020e-06 8.033189e-06 
1.867558e-05 1.726423e-05 1.770032e-05 1.657047e-05 1.698206e-05 1.608352e-05 1.647653e-05 1.575627e-05 1.613223e-05 1.553683e-05 1.589388e-05 1.537178e-05 1.570614e-05 1.520970e-05 1.551756e-05 1.500473e-05 1.528452e-05 1.472006e-05 1.497513e-05 1.433152e-05 1.457308e-05 1.383122e-05 1.408159e-05 1.323157e-05 1.352717e-05 1.256955e-05 1.296338e-05 1.191100e-05 1.247377e-05 1.135413e-05 1.217319e-05 1.103058e-05 1.220575e-05 1.110192e-05 1.273735e-05 1.174904e-05 1.394082e-05 1.315273e-05 1.597290e-05 1.546574e-05 1.894463e-05 1.877979e-05 2.289014e-05 2.309409e-05 2.774131e-05 2.829436e-05 3.331689e-05 3.415050e-05 3.933254e-05 4.033754e-05 4.543358e-05 4.647859e-05 5.124566e-05 5.220198e-05 5.643343e-05 5.720042e-05 6.075404e-05 6.127877e-05 6.409331e-05 6.437980e-05 6.647686e-05 6.658307e-05 6.805478e-05 6.807849e-05 6.906448e-05 6.912188e-05 6.978107e-05 6.998296e-05 7.046596e-05 7.089638e-05 7.132346e-05 7.202433e-05 7.247178e-05 7.343534e-05 7.393115e-05 7.510019e-05 7.562799e-05 7.690271e-05 7.741203e-05 7.866163e-05 7.908214e-05 8.015927e-05 8.041680e-05 8.117302e-05 8.120539e-05 8.150613e-05 8.127695e-05 8.101429e-05 8.052277e-05 7.962461e-05 7.890976e-05 7.734428e-05 7.648212e-05 7.425708e-05 7.335072e-05 7.050838e-05 6.967243e-05 6.628145e-05 6.562369e-05 6.177050e-05 6.137482e-05 5.715609e-05 5.707033e-05 5.258765e-05 5.281884e-05 4.817542e-05 4.869275e-05 4.399107e-05 4.473527e-05 4.007480e-05 4.097099e-05 3.644516e-05 3.741623e-05 3.310889e-05 3.408660e-05 3.006851e-05 3.100082e-05 2.732676e-05 2.818076e-05 2.488787e-05 2.564905e-05 2.275654e-05 2.342529e-05 2.093528e-05 2.152212e-05 1.942143e-05 1.994208e-05 1.820446e-05 
2.467911e-05 2.256109e-05 2.321130e-05 2.156096e-05 2.222010e-05 2.095227e-05 2.162003e-05 2.064598e-05 2.131619e-05 2.054775e-05 2.121012e-05 2.056317e-05 2.120550e-05 2.060278e-05 2.121359e-05 2.058701e-05 2.115881e-05 2.045110e-05 2.098431e-05 2.015031e-05 2.065772e-05 1.966541e-05 2.017708e-05 1.900874e-05 1.957664e-05 1.823064e-05 1.893236e-05 1.742597e-05 1.836644e-05 1.673930e-05 1.804919e-05 1.636680e-05 1.819627e-05 1.655124e-05 1.905781e-05 1.756652e-05 2.089647e-05 1.968872e-05 2.395289e-05 2.315382e-05 2.840068e-05 2.810719e-05 3.429843e-05 3.455487e-05 4.155011e-05 4.233050e-05 4.988744e-05 5.109076e-05 5.888429e-05 6.034668e-05 6.800607e-05 6.952885e-05 7.668696e-05 7.807479e-05 8.441962e-05 8.551946e-05 9.083703e-05 9.156853e-05 9.576812e-05 9.613805e-05 9.925505e-05 9.935287e-05 1.015300e-04 1.015064e-04 1.029585e-04 1.029930e-04 1.039640e-04 1.042279e-04 1.049487e-04 1.055725e-04 1.062269e-04 1.072762e-04 1.079803e-04 1.094436e-04 1.102386e-04 1.120274e-04 1.128857e-04 1.148449e-04 1.156859e-04 1.176122e-04 1.183244e-04 1.199890e-04 1.204559e-04 1.216300e-04 1.217553e-04 1.222342e-04 1.219635e-04 1.215875e-04 1.209243e-04 1.195920e-04 1.186026e-04 1.162765e-04 1.150840e-04 1.117856e-04 1.105515e-04 1.063500e-04 1.052465e-04 1.002428e-04 9.942291e-05 9.373473e-05 9.330579e-05 8.705729e-05 8.706518e-05 8.038310e-05 8.081015e-05 7.382484e-05 7.460086e-05 6.744920e-05 6.847146e-05 6.129798e-05 6.245422e-05 5.540819e-05 5.659691e-05 4.982514e-05 5.096928e-05 4.460631e-05 4.565903e-05 3.981720e-05 4.076048e-05 3.552226e-05 3.636091e-05 3.177484e-05 3.252822e-05 2.860871e-05 2.930269e-05 2.603307e-05 2.669346e-05 2.403102e-05 
3.726880e-05 3.432265e-05 3.515468e-05 3.279102e-05 3.358276e-05 3.169928e-05 3.246324e-05 3.095213e-05 3.169146e-05 3.044416e-05 3.115473e-05 3.006653e-05 3.074003e-05 2.971407e-05 3.034193e-05 2.929264e-05 2.987073e-05 2.872639e-05 2.926038e-05 2.796491e-05 2.847635e-05 2.699059e-05 2.752335e-05 2.582639e-05 2.645290e-05 2.454423e-05 2.537057e-05 2.327368e-05 2.444199e-05 2.220927e-05 2.389605e-05 2.161379e-05 2.402187e-05 2.181269e-05 2.515526e-05 2.317429e-05 2.765000e-05 2.607148e-05 3.183163e-05 3.082466e-05 3.793640e-05 3.763264e-05 4.604525e-05 4.650548e-05 5.602908e-05 5.721844e-05 6.752388e-05 6.930511e-05 7.994996e-05 8.209986e-05 9.257924e-05 9.482698e-05 1.046409e-04 1.067199e-04 1.154432e-04 1.171443e-04 1.244853e-04 1.256972e-04 1.315309e-04 1.322598e-04 1.366313e-04 1.369939e-04 1.400921e-04 1.402860e-04 1.423956e-04 1.426552e-04 1.440984e-04 1.446457e-04 1.457257e-04 1.467272e-04 1.476840e-04 1.492196e-04 1.502032e-04 1.522522e-04 1.533151e-04 1.557578e-04 1.568635e-04 1.594958e-04 1.605404e-04 1.630978e-04 1.639383e-04 1.661248e-04 1.666113e-04 1.681302e-04 1.681368e-04 1.687205e-04 1.681738e-04 1.676082e-04 1.665074e-04 1.646506e-04 1.630770e-04 1.598670e-04 1.579796e-04 1.534330e-04 1.514485e-04 1.456491e-04 1.438102e-04 1.368928e-04 1.354281e-04 1.275613e-04 1.266492e-04 1.180214e-04 1.177630e-04 1.085737e-04 1.089825e-04 9.943760e-05 1.004459e-04 9.075440e-05 9.223418e-05 8.260349e-05 8.439456e-05 7.502311e-05 7.696198e-05 6.803005e-05 6.997371e-05 6.163410e-05 6.347519e-05 5.584591e-05 5.751847e-05 5.067882e-05 5.215594e-05 4.614616e-05 4.743218e-05 4.225601e-05 4.337598e-05 3.900515e-05 3.999433e-05 3.637389e-05 
4.080839e-05 3.708769e-05 3.811722e-05 3.520877e-05 3.626800e-05 3.402508e-05 3.511329e-05 3.338416e-05 3.449033e-05 3.312487e-05 3.423080e-05 3.308601e-05 3.417003e-05 3.311468e-05 3.415621e-05 3.307465e-05 3.405972e-05 3.285481e-05 3.378273e-05 3.237796e-05 3.326897e-05 3.160994e-05 3.251344e-05 3.056938e-05 3.157186e-05 2.933804e-05 3.056945e-05 2.807136e-05 2.970824e-05 2.700778e-05 2.927106e-05 2.647333e-05 2.961857e-05 2.687598e-05 3.117371e-05 2.868250e-05 3.438714e-05 3.237144e-05 3.967979e-05 3.836110e-05 4.736498e-05 4.692009e-05 5.756227e-05 5.807884e-05 7.012446e-05 7.156723e-05 8.460246e-05 8.680295e-05 1.002676e-04 1.029444e-04 1.161972e-04 1.190051e-04 1.314100e-04 1.340074e-04 1.450243e-04 1.471421e-04 1.564016e-04 1.578964e-04 1.652429e-04 1.661223e-04 1.716178e-04 1.720319e-04 1.759222e-04 1.761260e-04 1.787782e-04 1.790745e-04 1.809027e-04 1.815787e-04 1.829714e-04 1.842425e-04 1.855059e-04 1.874760e-04 1.887995e-04 1.914419e-04 1.928886e-04 1.960473e-04 1.975652e-04 2.009741e-04 2.024236e-04 2.057376e-04 2.069286e-04 2.097630e-04 2.104973e-04 2.124692e-04 2.125828e-04 2.133522e-04 2.127530e-04 2.120563e-04 2.107515e-04 2.084246e-04 2.065320e-04 2.025174e-04 2.002562e-04 1.945947e-04 1.922541e-04 1.850629e-04 1.829540e-04 1.743982e-04 1.727980e-04 1.630655e-04 1.621677e-04 1.514532e-04 1.513385e-04 1.398418e-04 1.404738e-04 1.284060e-04 1.296528e-04 1.172451e-04 1.189173e-04 1.064242e-04 1.083182e-04 9.601063e-05 9.794581e-05 8.609439e-05 8.793742e-05 7.679110e-05 7.846469e-05 6.823000e-05 6.970890e-05 6.053504e-05 6.183375e-05 5.380589e-05 5.496327e-05 4.810382e-05 4.916852e-05 4.344441e-05 4.446352e-05 3.979677e-05 
5.564069e-05 5.090634e-05 5.204733e-05 4.823600e-05 4.933956e-05 4.629258e-05 4.737900e-05 4.493005e-05 4.600394e-05 4.398591e-05 4.503974e-05 4.329135e-05 4.431057e-05 4.268254e-05 4.365179e-05 4.201219e-05 4.292261e-05 4.116098e-05 4.201860e-05 4.004866e-05 4.088369e-05 3.864498e-05 3.952170e-05 3.698081e-05 3.800715e-05 3.516004e-05 3.649541e-05 3.337212e-05 3.523170e-05 3.190400e-05 3.455680e-05 3.114744e-05 3.490542e-05 3.159481e-05 3.678983e-05 3.381376e-05 4.076024e-05 3.839185e-05 4.733573e-05 4.584857e-05 5.690814e-05 5.652350e-05 6.963351e-05 7.046393e-05 8.533860e-05 8.734428e-05 1.034746e-04 1.064494e-04 1.231436e-04 1.267398e-04 1.432041e-04 1.469938e-04 1.624413e-04 1.660002e-04 1.797627e-04 1.827557e-04 1.943764e-04 1.966232e-04 2.059084e-04 2.074133e-04 2.144360e-04 2.153761e-04 2.204320e-04 2.211096e-04 2.246395e-04 2.254113e-04 2.279092e-04 2.291091e-04 2.310342e-04 2.329070e-04 2.346166e-04 2.372718e-04 2.389832e-04 2.423761e-04 2.441580e-04 2.480949e-04 2.498833e-04 2.540467e-04 2.556784e-04 2.596641e-04 2.609199e-04 2.642813e-04 2.649326e-04 2.672262e-04 2.670814e-04 2.679099e-04 2.668569e-04 2.659052e-04 2.639440e-04 2.610053e-04 2.582654e-04 2.532521e-04 2.499895e-04 2.429287e-04 2.394967e-04 2.305125e-04 2.273099e-04 2.165970e-04 2.140033e-04 2.018014e-04 2.001126e-04 1.866892e-04 1.860714e-04 1.717138e-04 1.721850e-04 1.571994e-04 1.586414e-04 1.433520e-04 1.455468e-04 1.302885e-04 1.329675e-04 1.180708e-04 1.209644e-04 1.067349e-04 1.096119e-04 9.630986e-05 9.900158e-05 8.682677e-05 8.923458e-05 7.831867e-05 8.040851e-05 7.081568e-05 7.260366e-05 6.433697e-05 6.587137e-05 5.888231e-05 6.022597e-05 5.442482e-05 
5.634879e-05 5.073084e-05 5.204888e-05 4.763702e-05 4.902937e-05 4.560761e-05 4.707232e-05 4.441997e-05 4.593972e-05 4.383986e-05 4.538654e-05 4.363308e-05 4.517327e-05 4.357727e-05 4.507883e-05 4.347397e-05 4.491411e-05 4.316121e-05 4.453615e-05 4.252626e-05 4.386233e-05 4.151844e-05 4.288392e-05 4.016193e-05 4.167835e-05 3.856880e-05 4.041999e-05 3.695255e-05 3.938942e-05 3.564149e-05 3.897976e-05 3.508824e-05 3.969628e-05 3.586796e-05 4.214080e-05 3.865298e-05 4.696940e-05 4.415153e-05 5.481379e-05 5.300423e-05 6.616639e-05 6.564769e-05 8.124603e-05 8.217298e-05 9.987834e-05 1.022208e-04 1.214326e-04 1.249551e-04 1.448487e-04 1.491382e-04 1.687635e-04 1.733046e-04 1.917175e-04 1.959954e-04 2.123952e-04 2.160013e-04 2.298429e-04 2.325557e-04 2.436120e-04 2.454341e-04 2.537991e-04 2.549435e-04 2.609786e-04 2.618108e-04 2.660499e-04 2.670019e-04 2.700399e-04 2.715168e-04 2.739043e-04 2.762029e-04 2.783654e-04 2.816185e-04 2.838113e-04 2.879638e-04 2.902621e-04 2.950770e-04 2.973951e-04 3.024833e-04 3.046151e-04 3.094815e-04 3.111524e-04 3.152509e-04 3.161763e-04 3.189690e-04 3.189126e-04 3.199262e-04 3.187546e-04 3.176275e-04 3.153529e-04 3.118661e-04 3.086676e-04 3.027537e-04 2.989683e-04 2.906959e-04 2.867750e-04 2.763126e-04 2.727468e-04 2.603182e-04 2.575468e-04 2.433934e-04 2.417224e-04 2.260858e-04 2.256372e-04 2.087661e-04 2.094720e-04 1.916447e-04 1.932843e-04 1.748313e-04 1.770966e-04 1.584075e-04 1.609755e-04 1.424834e-04 1.450767e-04 1.272236e-04 1.296462e-04 1.128392e-04 1.149868e-04 9.955941e-05 1.014089e-04 8.759526e-05 8.918231e-05 7.710891e-05 7.850266e-05 6.819448e-05 6.947492e-05 6.087146e-05 6.211284e-05 5.508806e-05 
7.353871e-05 6.661971e-05 6.792160e-05 6.232644e-05 6.362512e-05 5.913174e-05 6.045627e-05 5.683383e-05 5.818921e-05 5.520650e-05 5.657937e-05 5.401323e-05 5.537949e-05 5.302320e-05 5.435713e-05 5.202810e-05 5.331272e-05 5.085880e-05 5.209757e-05 4.940101e-05 5.063076e-05 4.760980e-05 4.891422e-05 4.552314e-05 4.704580e-05 4.327556e-05 4.523062e-05 4.111294e-05 4.379133e-05 3.940859e-05 4.317671e-05 3.867733e-05 4.396463e-05 3.957842e-05 4.684918e-05 4.289250e-05 5.259702e-05 4.945475e-05 6.195873e-05 6.003461e-05 7.553255e-05 7.517086e-05 9.360014e-05 9.499626e-05 1.159767e-04 1.191048e-04 1.419290e-04 1.465144e-04 1.702038e-04 1.757564e-04 1.991800e-04 2.050843e-04 2.271184e-04 2.327584e-04 2.524510e-04 2.573370e-04 2.740414e-04 2.779056e-04 2.913528e-04 2.941915e-04 3.044901e-04 3.065447e-04 3.141136e-04 3.157992e-04 3.212530e-04 3.230555e-04 3.270717e-04 3.294379e-04 3.326343e-04 3.358793e-04 3.387240e-04 3.429719e-04 3.457363e-04 3.508991e-04 3.536532e-04 3.594445e-04 3.620848e-04 3.680589e-04 3.703555e-04 3.759605e-04 3.776140e-04 3.822511e-04 3.829526e-04 3.860355e-04 3.855255e-04 3.865353e-04 3.846602e-04 3.831907e-04 3.799507e-04 3.757400e-04 3.713204e-04 3.642634e-04 3.590379e-04 3.491769e-04 3.436725e-04 3.311689e-04 3.259910e-04 3.110866e-04 3.068172e-04 2.898003e-04 2.868943e-04 2.680834e-04 2.667923e-04 2.465392e-04 2.468806e-04 2.255845e-04 2.273632e-04 2.054783e-04 2.083482e-04 1.863739e-04 1.899183e-04 1.683684e-04 1.721790e-04 1.515388e-04 1.552754e-04 1.359593e-04 1.393839e-04 1.217049e-04 1.246895e-04 1.088471e-04 1.113606e-04 9.744472e-05 9.952903e-05 8.753490e-05 8.927611e-05 7.912360e-05 8.062503e-05 7.217768e-05 
7.085867e-05 6.291397e-05 6.437291e-05 5.809673e-05 5.971099e-05 5.480633e-05 5.657075e-05 5.273929e-05 5.462733e-05 5.157843e-05 5.354850e-05 5.100694e-05 5.300988e-05 5.072358e-05 5.271164e-05 5.045928e-05 5.239717e-05 4.999509e-05 5.187322e-05 4.918019e-05 5.102979e-05 4.794876e-05 4.985763e-05 4.633468e-05 4.846192e-05 4.448458e-05 4.707195e-05 4.267095e-05 4.604877e-05 4.130736e-05 4.589248e-05 4.096485e-05 4.724751e-05 4.238119e-05 5.089547e-05 4.644467e-05 5.771611e-05 5.412811e-05 6.859419e-05 6.635506e-05 8.426351e-05 8.380407e-05 1.051078e-04 1.066911e-04 1.309708e-04 1.345977e-04 1.610447e-04 1.664143e-04 1.938942e-04 2.004397e-04 2.276331e-04 2.346295e-04 2.602224e-04 2.669376e-04 2.898183e-04 2.956666e-04 3.150831e-04 3.197409e-04 3.353863e-04 3.388427e-04 3.508526e-04 3.533877e-04 3.622586e-04 3.643588e-04 3.708120e-04 3.730479e-04 3.778734e-04 3.807704e-04 3.846834e-04 3.886124e-04 3.921495e-04 3.972565e-04 4.007233e-04 4.069040e-04 4.103707e-04 4.172860e-04 4.206198e-04 4.277404e-04 4.306601e-04 4.373288e-04 4.394702e-04 4.449743e-04 4.459614e-04 4.496079e-04 4.491261e-04 4.503134e-04 4.481818e-04 4.464602e-04 4.426940e-04 4.378045e-04 4.326553e-04 4.245381e-04 4.184933e-04 4.072610e-04 4.009889e-04 3.868688e-04 3.811093e-04 3.643733e-04 3.597950e-04 3.407057e-04 3.377715e-04 3.165685e-04 3.154513e-04 2.923832e-04 2.929578e-04 2.683411e-04 2.702486e-04 2.445199e-04 2.472779e-04 2.210083e-04 2.241292e-04 1.979901e-04 2.010735e-04 1.757643e-04 1.785463e-04 1.547093e-04 1.570687e-04 1.352179e-04 1.371520e-04 1.176326e-04 1.192178e-04 1.021992e-04 1.035517e-04 8.904665e-05 9.028980e-05 7.818769e-05 7.943053e-05 6.953362e-05 
9.054139e-05 8.087810e-05 8.210804e-05 7.425128e-05 7.556051e-05 6.921400e-05 7.064006e-05 6.549959e-05 6.704476e-05 6.280694e-05 6.444706e-05 6.081899e-05 6.251461e-05 5.922474e-05 6.093382e-05 5.774300e-05 5.943521e-05 5.614632e-05 5.781872e-05 5.428300e-05 5.597712e-05 5.209561e-05 5.391501e-05 4.963550e-05 5.176210e-05 4.707443e-05 4.978169e-05 4.471689e-05 4.837711e-05 4.301674e-05 4.810042e-05 4.259934e-05 4.966292e-05 4.428065e-05 5.393672e-05 4.906127e-05 6.192222e-05 5.806264e-05 7.465051e-05 7.237772e-05 9.300371e-05 9.283831e-05 1.174737e-04 1.197466e-04 1.479246e-04 1.526572e-04 1.834470e-04 1.902988e-04 2.223796e-04 2.306895e-04 2.625184e-04 2.714339e-04 3.014742e-04 3.101331e-04 3.370876e-04 3.448001e-04 3.677960e-04 3.741794e-04 3.928638e-04 3.978985e-04 4.124292e-04 4.164277e-04 4.273719e-04 4.308757e-04 4.390465e-04 4.426809e-04 4.489537e-04 4.532786e-04 4.584283e-04 4.638160e-04 4.684051e-04 4.749689e-04 4.792980e-04 4.868761e-04 4.909916e-04 4.991763e-04 5.029173e-04 5.111140e-04 5.141761e-04 5.216753e-04 5.236794e-04 5.297309e-04 5.302903e-04 5.341751e-04 5.329624e-04 5.340556e-04 5.308713e-04 5.286938e-04 5.235334e-04 5.177866e-04 5.108957e-04 5.014723e-04 4.933699e-04 4.803365e-04 4.717803e-04 4.553322e-04 4.472155e-04 4.276182e-04 4.208130e-04 3.983580e-04 3.935473e-04 3.685463e-04 3.660976e-04 3.389165e-04 3.388349e-04 3.099451e-04 3.119116e-04 2.819215e-04 2.853966e-04 2.550376e-04 2.593923e-04 2.294563e-04 2.340940e-04 2.053436e-04 2.097877e-04 1.828707e-04 1.868069e-04 1.621995e-04 1.654792e-04 1.434679e-04 1.460824e-04 1.267784e-04 1.288184e-04 1.121909e-04 1.138023e-04 9.971659e-05 1.010619e-04 8.931275e-05 
8.369842e-05 7.284533e-05 7.421669e-05 6.558081e-05 6.724044e-05 6.042718e-05 6.236247e-05 5.698430e-05 5.915417e-05 5.483758e-05 5.718082e-05 5.357322e-05 5.601820e-05 5.279665e-05 5.527336e-05 5.215545e-05 5.461032e-05 5.136537e-05 5.377930e-05 5.023680e-05 5.264539e-05 4.869729e-05 5.121145e-05 4.680705e-05 4.963096e-05 4.476658e-05 4.821016e-05 4.292104e-05 4.740474e-05 4.176943e-05 4.782076e-05 4.198598e-05 5.022641e-05 4.445014e-05 5.556712e-05 5.026074e-05 6.495256e-05 6.068875e-05 7.956891e-05 7.702331e-05 1.004825e-04 1.003013e-04 1.283506e-04 1.309745e-04 1.631184e-04 1.686251e-04 2.038205e-04 2.118493e-04 2.485861e-04 2.583811e-04 2.948799e-04 3.054440e-04 3.399276e-04 3.502419e-04 3.812121e-04 3.904556e-04 4.169101e-04 4.246212e-04 4.461628e-04 4.523061e-04 4.691278e-04 4.740581e-04 4.868212e-04 4.911616e-04 5.008032e-04 5.052767e-04 5.127969e-04 5.180515e-04 5.243270e-04 5.307949e-04 5.364530e-04 5.442674e-04 5.496345e-04 5.586103e-04 5.637239e-04 5.733900e-04 5.780517e-04 5.877157e-04 5.915617e-04 6.003911e-04 6.029671e-04 6.100772e-04 6.109155e-04 6.154606e-04 6.141618e-04 6.154220e-04 6.117453e-04 6.091999e-04 6.031537e-04 5.965279e-04 5.884442e-04 5.777167e-04 5.682767e-04 5.536352e-04 5.438106e-04 5.255581e-04 5.164539e-04 4.948941e-04 4.875217e-04 4.628774e-04 4.579311e-04 4.303430e-04 4.280586e-04 3.976753e-04 3.978203e-04 3.649357e-04 3.669243e-04 3.320908e-04 3.351727e-04 2.992290e-04 3.026816e-04 2.666769e-04 2.699439e-04 2.349891e-04 2.377408e-04 2.048439e-04 2.069672e-04 1.769059e-04 1.784517e-04 1.517136e-04 1.528305e-04 1.296174e-04 1.304921e-04 1.107696e-04 1.115841e-04 9.514763e-05 9.605332e-05 8.259224e-05 
1.060123e-04 9.285393e-05 9.365806e-05 8.289254e-05 8.392959e-05 7.517062e-05 7.648317e-05 6.934052e-05 7.092102e-05 6.500757e-05 6.681181e-05 6.175355e-05 6.371658e-05 5.916622e-05 6.121998e-05 5.687312e-05 5.896580e-05 5.457676e-05 5.669377e-05 5.208679e-05 5.427323e-05 4.934479e-05 5.172788e-05 4.643805e-05 4.924705e-05 4.360295e-05 4.718321e-05 4.122360e-05 4.604237e-05 3.983773e-05 4.648106e-05 4.016183e-05 4.932283e-05 4.313630e-05 5.558965e-05 4.996377e-05 6.651166e-05 6.208168e-05 8.345045e-05 8.100217e-05 1.076817e-04 1.079952e-04 1.400461e-04 1.436766e-04 1.805675e-04 1.876430e-04 2.281910e-04 2.383127e-04 2.807745e-04 2.930659e-04 3.353754e-04 3.486690e-04 3.887618e-04 4.018634e-04 4.380071e-04 4.499569e-04 4.810020e-04 4.912620e-04 5.167625e-04 5.252872e-04 5.454730e-04 5.526584e-04 5.682822e-04 5.748173e-04 5.869240e-04 5.935894e-04 6.032668e-04 6.107339e-04 6.189027e-04 6.275786e-04 6.348606e-04 6.448080e-04 6.514870e-04 6.624231e-04 6.684807e-04 6.798350e-04 6.850279e-04 6.960294e-04 6.999745e-04 7.097458e-04 7.119943e-04 7.196406e-04 7.197422e-04 7.244310e-04 7.219972e-04 7.230265e-04 7.178050e-04 7.146552e-04 7.066214e-04 6.989890e-04 6.884439e-04 6.762483e-04 6.638868e-04 6.472396e-04 6.341355e-04 6.132653e-04 6.007323e-04 5.758889e-04 5.652342e-04 5.366252e-04 5.288721e-04 4.966835e-04 4.923615e-04 4.568648e-04 4.559372e-04 4.176270e-04 4.195653e-04 3.792447e-04 3.832070e-04 3.419648e-04 3.470099e-04 3.060898e-04 3.113639e-04 2.719797e-04 2.768366e-04 2.400024e-04 2.440512e-04 2.104800e-04 2.135734e-04 1.836562e-04 1.858407e-04 1.596886e-04 1.611391e-04 1.386549e-04 1.396096e-04 1.205602e-04 1.212659e-04 1.053391e-04 
9.400024e-05 7.948221e-05 8.042008e-05 6.876773e-05 7.019757e-05 6.089672e-05 6.279062e-05 5.534986e-05 5.764306e-05 5.159440e-05 5.419575e-05 4.909785e-05 5.190213e-05 4.734971e-05 5.025342e-05 4.589340e-05 4.881511e-05 4.436636e-05 4.727161e-05 4.254172e-05 4.547100e-05 4.036198e-05 4.345821e-05 3.795508e-05 4.148541e-05 3.562857e-05 3.999549e-05 3.384820e-05 3.958749e-05 3.322004e-05 4.098871e-05 3.450281e-05 4.506328e-05 3.866597e-05 5.286632e-05 4.697008e-05 6.570211e-05 6.099066e-05 8.509216e-05 8.248019e-05 1.125580e-04 1.130106e-04 1.492069e-04 1.534602e-04 1.952394e-04 2.035305e-04 2.495872e-04 2.615108e-04 3.098657e-04 3.244222e-04 3.727014e-04 3.885225e-04 4.343460e-04 4.500165e-04 4.913902e-04 5.057647e-04 5.413751e-04 5.538019e-04 5.831507e-04 5.935557e-04 6.169202e-04 6.257457e-04 6.439948e-04 6.520256e-04 6.663489e-04 6.744796e-04 6.861012e-04 6.951035e-04 7.050442e-04 7.153896e-04 7.243244e-04 7.360930e-04 7.443153e-04 7.571941e-04 7.646633e-04 7.780087e-04 7.844373e-04 7.973665e-04 8.023078e-04 8.137992e-04 8.167209e-04 8.257157e-04 8.260682e-04 8.315747e-04 8.288700e-04 8.300659e-04 8.239811e-04 8.203008e-04 8.108085e-04 8.020009e-04 7.895075e-04 7.756438e-04 7.610781e-04 7.424830e-04 7.272549e-04 7.043486e-04 6.901234e-04 6.632200e-04 6.515472e-04 6.207156e-04 6.126440e-04 5.777348e-04 5.735717e-04 5.344310e-04 5.337370e-04 4.905107e-04 4.923134e-04 4.456852e-04 4.488103e-04 4.000499e-04 4.034362e-04 3.542313e-04 3.571330e-04 3.092819e-04 3.113279e-04 2.664219e-04 2.675617e-04 2.267644e-04 2.271610e-04 1.911291e-04 1.910497e-04 1.599767e-04 1.597082e-04 1.334375e-04 1.332356e-04 1.113885e-04 1.114521e-04 9.353607e-05 
1.190814e-04 1.014489e-04 1.012990e-04 8.676980e-05 8.710806e-05 7.518348e-05 7.604791e-05 6.623381e-05 6.759288e-05 5.940189e-05 6.117482e-05 5.413482e-05 5.621404e-05 4.988509e-05 5.216047e-05 4.615907e-05 4.854413e-05 4.257060e-05 4.503107e-05 3.889177e-05 4.147587e-05 3.509019e-05 3.795846e-05 3.134283e-05 3.479288e-05 2.802193e-05 3.250197e-05 2.566021e-05 3.176655e-05 2.491771e-05 3.337899e-05 2.658644e-05 3.824501e-05 3.166303e-05 4.745949e-05 4.147319e-05 6.241547e-05 5.775257e-05 8.482248e-05 8.253415e-05 1.164888e-04 1.177414e-04 1.588267e-04 1.645505e-04 2.122240e-04 2.227619e-04 2.755607e-04 2.904765e-04 3.461230e-04 3.642562e-04 4.199947e-04 4.397376e-04 4.928058e-04 5.124970e-04 5.605946e-04 5.788978e-04 6.205290e-04 6.366918e-04 6.713102e-04 6.852496e-04 7.131944e-04 7.254113e-04 7.476756e-04 7.590392e-04 7.769434e-04 7.884128e-04 8.032683e-04 8.156229e-04 8.284643e-04 8.421091e-04 8.535500e-04 8.684345e-04 8.786597e-04 8.943098e-04 9.031676e-04 9.187913e-04 9.259225e-04 9.405380e-04 9.454853e-04 9.580393e-04 9.603160e-04 9.697843e-04 9.689139e-04 9.743859e-04 9.699404e-04 9.706854e-04 9.623511e-04 9.578636e-04 9.455593e-04 9.355856e-04 9.196361e-04 9.041769e-04 8.854811e-04 8.647422e-04 8.448181e-04 8.190782e-04 7.998794e-04 7.693113e-04 7.528244e-04 7.173842e-04 7.051542e-04 6.646584e-04 6.574369e-04 6.118331e-04 6.094739e-04 5.591704e-04 5.607800e-04 5.068474e-04 5.111013e-04 4.552252e-04 4.607196e-04 4.049221e-04 4.104542e-04 3.567102e-04 3.614347e-04 3.113433e-04 3.148094e-04 2.694202e-04 2.715254e-04 2.313341e-04 2.322344e-04 1.972913e-04 1.972991e-04 1.673580e-04 1.668483e-04 1.414991e-04 1.408354e-04 1.195962e-04 
1.006879e-04 8.154346e-05 8.152973e-05 6.600469e-05 6.677950e-05 5.421232e-05 5.571882e-05 4.549636e-05 4.763104e-05 3.917591e-05 4.180078e-05 3.456660e-05 3.752429e-05 3.100495e-05 3.413951e-05 2.789425e-05 3.107939e-05 2.476901e-05 2.794409e-05 2.136645e-05 2.457717e-05 1.768440e-05 2.112228e-05 1.400322e-05 1.803454e-05 1.085699e-05 1.603050e-05 8.957825e-06 1.598493e-05 9.105663e-06 1.882047e-05 1.214605e-05 2.546950e-05 1.904306e-05 3.697387e-05 3.107582e-05 5.469246e-05 5.004074e-05 8.044303e-05 7.823143e-05 1.163405e-04 1.180089e-04 1.642224e-04 1.710045e-04 2.248290e-04 2.372738e-04 2.971235e-04 3.148179e-04 3.781154e-04 3.997330e-04 4.633087e-04 4.869503e-04 5.476130e-04 5.712942e-04 6.263932e-04 6.485080e-04 6.963348e-04 7.159655e-04 7.559128e-04 7.729287e-04 8.054020e-04 8.203551e-04 8.464928e-04 8.603666e-04 8.816577e-04 8.955454e-04 9.134446e-04 9.282406e-04 9.438694e-04 9.600476e-04 9.740445e-04 9.915694e-04 1.004099e-03 1.022462e-03 1.033333e-03 1.051667e-03 1.060474e-03 1.077678e-03 1.083908e-03 1.098761e-03 1.101841e-03 1.113112e-03 1.112445e-03 1.119008e-03 1.114020e-03 1.114972e-03 1.105220e-03 1.099988e-03 1.085339e-03 1.073756e-03 1.054649e-03 1.036972e-03 1.014643e-03 9.914627e-04 9.679745e-04 9.399330e-04 9.178493e-04 8.852549e-04 8.670016e-04 8.295555e-04 8.167369e-04 7.736153e-04 7.665987e-04 7.169323e-04 7.148708e-04 6.584033e-04 6.596489e-04 5.972286e-04 5.999249e-04 5.335762e-04 5.361799e-04 4.687236e-04 4.702866e-04 4.047051e-04 4.048922e-04 3.437196e-04 3.426518e-04 2.876029e-04 2.856512e-04 2.375467e-04 2.351593e-04 1.940731e-04 1.916687e-04 1.571730e-04 1.550900e-04 1.264918e-04 1.249737e-04 1.014891e-04 
1.286900e-04 1.053266e-04 1.034429e-04 8.403526e-05 8.303651e-05 6.694140e-05 6.683982e-05 5.343339e-05 5.414742e-05 4.281742e-05 4.420145e-05 3.435158e-05 3.622702e-05 2.729712e-05 2.948520e-05 2.098835e-05 2.334589e-05 1.491685e-05 1.737584e-05 8.817060e-06 1.142732e-05 2.731196e-06 5.703085e-06 -2.969774e-06 7.701022e-07 -7.624978e-06 -2.499757e-06 -1.038117e-05 -3.062303e-06 -1.031917e-05 1.385015e-07 -6.536686e-06 8.085302e-06 1.913528e-06 2.179181e-05 1.627957e-05 4.260065e-05 3.843912e-05 7.246331e-05 7.099098e-05 1.138516e-04 1.168061e-04 1.690933e-04 1.780399e-04 2.393172e-04 2.550160e-04 3.235324e-04 3.455622e-04 4.183517e-04 4.451622e-04 5.185321e-04 5.478734e-04 6.181054e-04 6.476339e-04 7.116651e-04 7.395038e-04 7.953958e-04 8.204922e-04 8.675966e-04 8.898176e-04 9.286437e-04 9.486298e-04 9.804908e-04 9.993418e-04 1.025891e-03 1.044779e-03 1.067553e-03 1.087358e-03 1.107440e-03 1.128506e-03 1.146375e-03 1.168443e-03 1.184042e-03 1.206344e-03 1.219274e-03 1.240717e-03 1.250458e-03 1.269809e-03 1.275854e-03 1.291880e-03 1.293774e-03 1.305351e-03 1.302673e-03 1.308867e-03 1.301203e-03 1.301332e-03 1.288297e-03 1.281958e-03 1.263338e-03 1.250418e-03 1.226473e-03 1.207158e-03 1.179000e-03 1.153711e-03 1.123503e-03 1.092644e-03 1.063356e-03 1.026939e-03 1.001649e-03 9.590530e-04 9.401134e-04 8.902782e-04 8.787264e-04 8.207906e-04 8.162187e-04 7.502737e-04 7.511444e-04 6.786750e-04 6.828880e-04 6.066536e-04 6.121249e-04 5.355479e-04 5.406194e-04 4.669914e-04 4.706086e-04 4.024617e-04 4.041651e-04 3.430014e-04 3.428122e-04 2.891741e-04 2.874422e-04 2.411762e-04 2.384273e-04 1.989812e-04 1.957871e-04 1.624410e-04 1.593217e-04 1.313264e-04 