# vtk DataFile Version 2.0
Comment goes here
ASCII

DATASET STRUCTURED_POINTS
FIELD FieldData 1
TIME 1 1 double
0.07000000
DIMENSIONS    128   128   1

ORIGIN    0.000   0.000   0.000
SPACING   0.039062 0.039062   1.000

POINT_DATA   16384
SCALARS Omega double
LOOKUP_TABLE default

-2.038129e-14 -1.254214e-14 1.001173e-15 3.276415e-15 1.450416e-14 2.345905e-14 2.867863e-14 1.690674e-14 1.906580e-14 1.592215e-14 1.141708e-14 1.185442e-14 1.498719e-14 1.392841e-14 -5.425926e-15 -9.810460e-15 -2.267876e-14 -3.145966e-14 -3.688775e-14 -3.305377e-14 -2.529485e-14 -4.753568e-14 -3.271489e-14 -1.523556e-14 -1.756403e-14 -2.187472e-14 1.229001e-14 1.233717e-14 1.480220e-14 5.517803e-15 -1.922517e-14 -2.706659e-14 -4.514802e-14 -9.018011e-15 -2.283855e-14 -3.227187e-14 -4.605325e-14 -2.449146e-14 -2.766511e-14 -6.544418e-14 -3.201871e-14 -2.360684e-14 -2.818511e-14 -1.713168e-14 -2.556240e-14 -1.027173e-14 -1.638816e-14 -1.586493e-15 1.254326e-14 1.195316e-14 2.708216e-16 3.283988e-14 4.382875e-14 3.700576e-14 3.732891e-14 2.883436e-14 3.160158e-14 4.376362e-14 5.252421e-14 5.426832e-14 5.261430e-14 3.313307e-14 3.373333e-14 1.738535e-14 6.354215e-15 -7.194234e-15 -2.721003e-14 -3.149710e-14 -3.491820e-14 -2.796787e-14 -1.121493e-14 -1.978667e-14 -9.450367e-15 -2.711318e-14 -3.511028e-14 -4.093538e-14 -1.849513e-14 -1.104829e-14 -1.868765e-14 -4.926668e-15 3.604886e-15 -1.096640e-14 1.887015e-14 9.894064e-15 1.825315e-14 2.156187e-14 2.348554e-14 1.270936e-14 1.240674e-14 2.626004e-14 3.630987e-14 1.217129e-14 3.151253e-15 3.049238e-15 3.518797e-14 -7.426021e-15 1.210371e-14 9.212532e-14 1.181191e-13 2.592904e-14 3.480785e-14 -3.044342e-14 -3.237003e-15 -3.322026e-14 -1.562450e-14 1.581254e-15 -1.714865e-14 -1.968811e-14 -2.667568e-14 -1.029177e-14 1.582602e-14 2.573357e-14 1.265008e-14 6.476668e-15 6.498997e-15 1.997870e-15 -1.243568e-14 2.404167e-14 -2.951727e-15 -2.332564e-15 -1.042407e-15 -1.842433e-14 2.295444e-15 -8.486843e-15 -1.425003e-14 5.569573e-15 -5.393825e-15 -4.838112e-15 
3.917949e-06 3.590615e-06 3.631884e-06 3.364371e-06 3.508603e-06 3.289575e-06 3.515178e-06 3.336290e-06 3.617435e-06 3.472534e-06 3.781067e-06 3.665680e-06 3.972822e-06 3.883921e-06 4.161921e-06 4.097904e-06 4.321773e-06 4.282619e-06 4.432042e-06 4.419612e-06 4.481093e-06 4.499580e-06 4.468748e-06 4.525318e-06 4.409242e-06 4.514865e-06 4.334050e-06 4.504393e-06 4.294001e-06 4.550063e-06 4.359704e-06 4.727597e-06 4.619002e-06 5.128157e-06 5.170137e-06 5.849313e-06 6.109917e-06 6.980954e-06 7.517499e-06 8.587625e-06 9.436280e-06 1.069076e-05 1.185805e-05 1.325559e-05 1.471430e-05 1.618734e-05 1.787854e-05 1.933962e-05 2.118095e-05 2.253448e-05 2.443299e-05 2.559035e-05 2.745706e-05 2.835158e-05 3.011414e-05 3.071272e-05 3.232338e-05 3.263234e-05 3.406977e-05 3.413394e-05 3.539905e-05 3.529464e-05 3.640209e-05 3.622517e-05 3.719295e-05 3.704560e-05 3.788549e-05 3.786170e-05 3.857261e-05 3.874571e-05 3.931155e-05 3.972415e-05 4.011679e-05 4.077372e-05 4.096069e-05 4.182547e-05 4.178106e-05 4.277587e-05 4.249340e-05 4.350331e-05 4.300553e-05 4.388737e-05 4.323196e-05 4.382833e-05 4.310572e-05 4.326357e-05 4.258624e-05 4.217793e-05 4.166239e-05 4.060569e-05 4.035091e-05 3.862350e-05 3.869096e-05 3.633558e-05 3.673618e-05 3.385482e-05 3.454615e-05 3.128453e-05 3.217913e-05 2.870533e-05 2.968759e-05 2.616984e-05 2.711737e-05 2.370534e-05 2.450969e-05 2.132200e-05 2.190444e-05 1.902300e-05 1.934306e-05 1.681322e-05 1.686941e-05 1.470435e-05 1.452830e-05 1.271575e-05 1.236234e-05 1.087230e-05 1.040824e-05 9.200338e-06 8.693636e-06 7.723515e-06 7.235144e-06 6.459431e-06 6.038001e-06 5.417594e-06 5.096852e-06 4.598677e-06 4.397334e-06 3.994824e-06 
9.922178e-06 9.147805e-06 9.120785e-06 8.462145e-06 8.642379e-06 8.083840e-06 8.434106e-06 7.963420e-06 8.435134e-06 8.042191e-06 8.579763e-06 8.256111e-06 8.801028e-06 8.539999e-06 9.034809e-06 8.832063e-06 9.224473e-06 9.078792e-06 9.326064e-06 9.240317e-06 9.313989e-06 9.296280e-06 9.187087e-06 9.252139e-06 8.974763e-06 9.145558e-06 8.742566e-06 9.052014e-06 8.596061e-06 9.088065e-06 8.681109e-06 9.409899e-06 9.178086e-06 1.020437e-05 1.028749e-05 1.167021e-05 1.220556e-05 1.398914e-05 1.509125e-05 1.728991e-05 1.902949e-05 2.161235e-05 2.399931e-05 2.688105e-05 2.985658e-05 3.289812e-05 3.633924e-05 3.936066e-05 4.309743e-05 4.590202e-05 4.974404e-05 5.214888e-05 5.591505e-05 5.778156e-05 6.132593e-05 6.258362e-05 6.581163e-05 6.647022e-05 6.934228e-05 6.949025e-05 7.201316e-05 7.180393e-05 7.401337e-05 7.364232e-05 7.558134e-05 7.525803e-05 7.695693e-05 7.687654e-05 7.833846e-05 7.865573e-05 7.985120e-05 8.065893e-05 8.153080e-05 8.284432e-05 8.332266e-05 8.507095e-05 8.509551e-05 8.712007e-05 8.666592e-05 8.872856e-05 8.782882e-05 8.962994e-05 8.838870e-05 8.959683e-05 8.818660e-05 8.847798e-05 8.711933e-05 8.622328e-05 8.514925e-05 8.289164e-05 8.230488e-05 7.864041e-05 7.867387e-05 7.369859e-05 7.438989e-05 6.832994e-05 6.961554e-05 6.279376e-05 6.452330e-05 5.731136e-05 5.927723e-05 5.204417e-05 5.401859e-05 4.708640e-05 4.885778e-05 4.247141e-05 4.387359e-05 3.818820e-05 3.911849e-05 3.420234e-05 3.462734e-05 3.047606e-05 3.042627e-05 2.698304e-05 2.653929e-05 2.371616e-05 2.299136e-05 2.068807e-05 1.980811e-05 1.792636e-05 1.701318e-05 1.546579e-05 1.462452e-05 1.333981e-05 1.265083e-05 1.157335e-05 1.108888e-05 1.017767e-05 
1.152671e-05 1.051941e-05 1.063472e-05 9.808197e-06 1.023766e-05 9.558417e-06 1.023600e-05 9.679476e-06 1.052675e-05 1.007486e-05 1.100664e-05 1.064626e-05 1.157553e-05 1.129787e-05 1.214074e-05 1.194139e-05 1.262213e-05 1.250161e-05 1.295846e-05 1.292304e-05 1.311468e-05 1.317768e-05 1.309021e-05 1.327374e-05 1.292771e-05 1.326501e-05 1.272160e-05 1.325963e-05 1.262452e-05 1.342606e-05 1.284911e-05 1.399248e-05 1.366103e-05 1.523518e-05 1.535911e-05 1.745204e-05 1.824000e-05 2.091989e-05 2.254876e-05 2.584029e-05 2.842284e-05 3.228416e-05 3.584244e-05 4.015022e-05 4.460256e-05 4.915230e-05 5.431924e-05 5.884427e-05 6.447402e-05 6.868166e-05 7.448994e-05 7.810785e-05 8.382279e-05 8.664517e-05 9.204642e-05 9.396992e-05 9.891308e-05 9.995472e-05 1.043766e-04 1.046709e-04 1.085763e-04 1.083534e-04 1.117886e-04 1.113391e-04 1.143595e-04 1.139920e-04 1.166325e-04 1.166306e-04 1.188850e-04 1.194700e-04 1.212843e-04 1.225847e-04 1.238664e-04 1.258973e-04 1.265391e-04 1.291915e-04 1.291064e-04 1.321468e-04 1.313066e-04 1.343882e-04 1.328580e-04 1.355460e-04 1.335020e-04 1.353145e-04 1.330392e-04 1.335026e-04 1.313516e-04 1.300670e-04 1.284117e-04 1.251181e-04 1.242762e-04 1.188988e-04 1.190695e-04 1.117383e-04 1.129595e-04 1.039924e-04 1.061314e-04 9.598575e-05 9.876561e-05 8.796985e-05 9.102440e-05 8.010689e-05 8.304921e-05 7.247848e-05 7.496723e-05 6.511243e-05 6.690200e-05 5.801537e-05 5.898215e-05 5.120024e-05 5.134369e-05 4.470186e-05 4.412504e-05 3.857940e-05 3.745676e-05 3.290875e-05 3.144986e-05 2.776983e-05 2.618616e-05 2.323364e-05 2.171308e-05 1.935213e-05 1.804295e-05 1.615229e-05 1.515616e-05 1.363428e-05 1.300643e-05 1.177263e-05 
1.944988e-05 1.783684e-05 1.775354e-05 1.637768e-05 1.672298e-05 1.555414e-05 1.625091e-05 1.526523e-05 1.621391e-05 1.539137e-05 1.647869e-05 1.580231e-05 1.690926e-05 1.636566e-05 1.737533e-05 1.695603e-05 1.776173e-05 1.746491e-05 1.797897e-05 1.781141e-05 1.797478e-05 1.795396e-05 1.774623e-05 1.790277e-05 1.735190e-05 1.773251e-05 1.692306e-05 1.759371e-05 1.667163e-05 1.772001e-05 1.689165e-05 1.842656e-05 1.794898e-05 2.009358e-05 2.025370e-05 2.312969e-05 2.421156e-05 2.791346e-05 3.015629e-05 3.471885e-05 3.827274e-05 4.363897e-05 4.852862e-05 5.452897e-05 6.063636e-05 6.698869e-05 7.406196e-05 8.039749e-05 8.808679e-05 9.399965e-05 1.019127e-04 1.070235e-04 1.147878e-04 1.188073e-04 1.261242e-04 1.289025e-04 1.355804e-04 1.371327e-04 1.430940e-04 1.435969e-04 1.488598e-04 1.486229e-04 1.532636e-04 1.526822e-04 1.567904e-04 1.562883e-04 1.599245e-04 1.598962e-04 1.630617e-04 1.638200e-04 1.664452e-04 1.681785e-04 1.701332e-04 1.728746e-04 1.739993e-04 1.776094e-04 1.777631e-04 1.819254e-04 1.810415e-04 1.852764e-04 1.834133e-04 1.871103e-04 1.844824e-04 1.869572e-04 1.839321e-04 1.845064e-04 1.815615e-04 1.796581e-04 1.773029e-04 1.725412e-04 1.712212e-04 1.634914e-04 1.635000e-04 1.529958e-04 1.544168e-04 1.416158e-04 1.443113e-04 1.299042e-04 1.335477e-04 1.183336e-04 1.224760e-04 1.072485e-04 1.113997e-04 9.684797e-05 1.005561e-04 8.719899e-05 9.011240e-05 7.827117e-05 8.017615e-05 6.998289e-05 7.081479e-05 6.224545e-05 6.207569e-05 5.499589e-05 5.400152e-05 4.821396e-05 4.663775e-05 4.192317e-05 4.003249e-05 3.618005e-05 3.423099e-05 3.105696e-05 2.926784e-05 2.662382e-05 2.515936e-05 2.293267e-05 2.189811e-05 2.000706e-05 
1.843369e-05 1.666865e-05 1.683297e-05 1.537367e-05 1.607861e-05 1.487097e-05 1.600233e-05 1.500697e-05 1.643097e-05 1.561890e-05 1.719119e-05 1.654142e-05 1.811496e-05 1.761376e-05 1.904655e-05 1.868789e-05 1.985135e-05 1.963804e-05 2.042658e-05 2.037167e-05 2.071365e-05 2.084219e-05 2.071186e-05 2.106309e-05 2.049265e-05 2.112327e-05 2.021354e-05 2.120178e-05 2.012943e-05 2.157895e-05 2.059700e-05 2.263787e-05 2.206562e-05 2.484797e-05 2.504682e-05 2.872291e-05 3.005614e-05 3.474886e-05 3.752846e-05 4.328974e-05 4.771877e-05 5.448744e-05 6.061164e-05 6.818470e-05 7.586790e-05 8.389846e-05 9.283218e-05 1.008612e-04 1.106093e-04 1.181285e-04 1.281981e-04 1.347310e-04 1.446518e-04 1.498358e-04 1.592291e-04 1.628779e-04 1.714993e-04 1.736346e-04 1.813819e-04 1.822285e-04 1.891169e-04 1.890640e-04 1.951790e-04 1.947185e-04 2.001574e-04 1.998111e-04 2.046308e-04 2.048771e-04 2.090572e-04 2.102676e-04 2.136988e-04 2.160887e-04 2.185885e-04 2.221842e-04 2.235398e-04 2.281610e-04 2.281920e-04 2.334500e-04 2.320812e-04 2.373931e-04 2.347188e-04 2.393435e-04 2.356677e-04 2.387690e-04 2.346006e-04 2.353407e-04 2.313357e-04 2.289918e-04 2.258472e-04 2.199326e-04 2.182527e-04 2.086135e-04 2.087836e-04 1.956417e-04 1.977435e-04 1.816717e-04 1.854641e-04 1.672966e-04 1.722663e-04 1.529702e-04 1.584376e-04 1.389773e-04 1.442273e-04 1.254519e-04 1.298599e-04 1.124302e-04 1.155545e-04 9.991244e-05 1.015405e-04 8.791415e-05 8.806041e-05 7.649317e-05 7.535892e-05 6.575191e-05 6.366279e-05 5.582154e-05 5.315952e-05 4.683817e-05 4.398130e-05 3.891985e-05 3.619767e-05 3.214966e-05 2.981691e-05 2.656676e-05 2.479366e-05 2.216455e-05 2.103946e-05 1.889380e-05 
2.814344e-05 2.555839e-05 2.536050e-05 2.314627e-05 2.362612e-05 2.174014e-05 2.277506e-05 2.118289e-05 2.261762e-05 2.128938e-05 2.294887e-05 2.185867e-05 2.355962e-05 2.268701e-05 2.424919e-05 2.358188e-05 2.484006e-05 2.437705e-05 2.519435e-05 2.494883e-05 2.523142e-05 2.523344e-05 2.494611e-05 2.524529e-05 2.442660e-05 2.509538e-05 2.387069e-05 2.500861e-05 2.359829e-05 2.533621e-05 2.405558e-05 2.655677e-05 2.580319e-05 2.925604e-05 2.947858e-05 3.407506e-05 3.572447e-05 4.162138e-05 4.508354e-05 5.235028e-05 5.787383e-05 6.643862e-05 7.407417e-05 8.368658e-05 9.325622e-05 1.034833e-04 1.145936e-04 1.248590e-04 1.369584e-04 1.466205e-04 1.590900e-04 1.675443e-04 1.797978e-04 1.865786e-04 1.981501e-04 2.030104e-04 2.136065e-04 2.165576e-04 2.260671e-04 2.273737e-04 2.358356e-04 2.359695e-04 2.435120e-04 2.430773e-04 2.498443e-04 2.494882e-04 2.555704e-04 2.558938e-04 2.612803e-04 2.627586e-04 2.673177e-04 2.702381e-04 2.737332e-04 2.781506e-04 2.802906e-04 2.860014e-04 2.865198e-04 2.930537e-04 2.918035e-04 2.984349e-04 2.954800e-04 3.012683e-04 2.969434e-04 3.008095e-04 2.957241e-04 2.965695e-04 2.915384e-04 2.884001e-04 2.843064e-04 2.765230e-04 2.741459e-04 2.614973e-04 2.613517e-04 2.441306e-04 2.463646e-04 2.253551e-04 2.297310e-04 2.060922e-04 2.120485e-04 1.871322e-04 1.939031e-04 1.690506e-04 1.758092e-04 1.521758e-04 1.581680e-04 1.366074e-04 1.412557e-04 1.222760e-04 1.252398e-04 1.090235e-04 1.102134e-04 9.668048e-05 9.623264e-05 8.512450e-05 8.334645e-05 7.430945e-05 7.161072e-05 6.426657e-05 6.108912e-05 5.508476e-05 5.184413e-05 4.688037e-05 4.392395e-05 3.976602e-05 3.735006e-05 3.382503e-05 3.210813e-05 2.909463e-05 
2.410432e-05 2.144551e-05 2.161861e-05 1.939738e-05 2.036130e-05 1.850580e-05 2.009193e-05 1.855018e-05 2.056508e-05 1.929861e-05 2.153569e-05 2.051653e-05 2.276601e-05 2.197654e-05 2.403545e-05 2.346993e-05 2.515342e-05 2.482023e-05 2.597510e-05 2.589881e-05 2.641925e-05 2.664210e-05 2.648698e-05 2.707046e-05 2.628073e-05 2.730810e-05 2.602264e-05 2.760356e-05 2.607049e-05 2.834729e-05 2.692697e-05 3.007915e-05 2.923298e-05 3.347309e-05 3.373166e-05 3.928420e-05 4.119048e-05 4.824825e-05 5.227813e-05 6.093931e-05 6.741223e-05 7.761251e-05 8.661378e-05 9.807659e-05 1.094160e-04 1.216435e-04 1.348679e-04 1.471852e-04 1.616462e-04 1.732957e-04 1.882594e-04 1.985240e-04 2.132933e-04 2.216211e-04 2.356405e-04 2.417406e-04 2.546599e-04 2.585491e-04 2.702328e-04 2.722277e-04 2.827149e-04 2.833731e-04 2.928021e-04 2.928293e-04 3.013485e-04 3.014901e-04 3.091765e-04 3.101115e-04 3.169150e-04 3.191657e-04 3.248906e-04 3.287564e-04 3.330852e-04 3.386014e-04 3.411597e-04 3.480762e-04 3.485311e-04 3.563075e-04 3.544843e-04 3.622999e-04 3.582940e-04 3.650824e-04 3.593352e-04 3.638581e-04 3.571645e-04 3.581392e-04 3.515629e-04 3.478424e-04 3.425415e-04 3.333190e-04 3.303170e-04 3.153033e-04 3.152671e-04 2.947828e-04 2.978711e-04 2.728183e-04 2.786458e-04 2.503634e-04 2.580887e-04 2.281335e-04 2.366415e-04 2.065577e-04 2.146847e-04 1.858155e-04 1.925598e-04 1.659302e-04 1.706032e-04 1.468759e-04 1.491701e-04 1.286607e-04 1.286364e-04 1.113667e-04 1.093766e-04 9.514716e-05 9.172805e-05 8.019670e-05 7.595700e-05 6.671162e-05 6.223623e-05 5.485482e-05 5.063904e-05 4.473271e-05 4.114714e-05 3.638523e-05 3.366704e-05 2.978634e-05 2.804902e-05 2.485106e-05 
3.547362e-05 3.170440e-05 3.130521e-05 2.806080e-05 2.862883e-05 2.585712e-05 2.721520e-05 2.487204e-05 2.680214e-05 2.484708e-05 2.710665e-05 2.550334e-05 2.783959e-05 2.655937e-05 2.872327e-05 2.775028e-05 2.951214e-05 2.884862e-05 3.001605e-05 2.968653e-05 3.012486e-05 3.017863e-05 2.983274e-05 3.034518e-05 2.926063e-05 3.033481e-05 2.867616e-05 3.044655e-05 2.850994e-05 3.114864e-05 2.936441e-05 3.308677e-05 3.200599e-05 3.706753e-05 3.732450e-05 4.399803e-05 4.624277e-05 5.476768e-05 5.957027e-05 7.007616e-05 7.781770e-05 9.023990e-05 1.010172e-04 1.150330e-04 1.286080e-04 1.436226e-04 1.594385e-04 1.746372e-04 1.919034e-04 2.063651e-04 2.241927e-04 2.370396e-04 2.545916e-04 2.651401e-04 2.817592e-04 2.896360e-04 3.049201e-04 3.101198e-04 3.239320e-04 3.268080e-04 3.392259e-04 3.404228e-04 3.516454e-04 3.519904e-04 3.622286e-04 3.626046e-04 3.719801e-04 3.732014e-04 3.816749e-04 3.843804e-04 3.917234e-04 3.962975e-04 4.021133e-04 4.086329e-04 4.124298e-04 4.206338e-04 4.219420e-04 4.312160e-04 4.297371e-04 4.391137e-04 4.348726e-04 4.430607e-04 4.365204e-04 4.419850e-04 4.340729e-04 4.351879e-04 4.271958e-04 4.224722e-04 4.158329e-04 4.041901e-04 4.001823e-04 3.811985e-04 3.806689e-04 3.547308e-04 3.579209e-04 3.262155e-04 3.327366e-04 2.970730e-04 3.060209e-04 2.685290e-04 2.786886e-04 2.414768e-04 2.515555e-04 2.164160e-04 2.252553e-04 1.934757e-04 2.002081e-04 1.725093e-04 1.766443e-04 1.532262e-04 1.546654e-04 1.353220e-04 1.343112e-04 1.185751e-04 1.156127e-04 1.028929e-04 9.861830e-05 8.831096e-05 8.339554e-05 7.495802e-05 7.001667e-05 6.300585e-05 5.853815e-05 5.261965e-05 4.898159e-05 4.391943e-05 4.132044e-05 3.695652e-05 
2.790863e-05 2.415130e-05 2.428013e-05 2.110261e-05 2.230130e-05 1.961821e-05 2.165515e-05 1.940466e-05 2.202153e-05 2.015680e-05 2.308140e-05 2.156774e-05 2.452466e-05 2.334111e-05 2.606295e-05 2.520635e-05 2.744766e-05 2.693717e-05 2.849218e-05 2.837223e-05 2.909609e-05 2.943690e-05 2.926895e-05 3.016487e-05 2.915188e-05 3.072009e-05 2.903719e-05 3.142017e-05 2.938714e-05 3.276111e-05 3.085000e-05 3.543673e-05 3.426353e-05 4.033558e-05 4.062501e-05 4.848856e-05 5.100164e-05 6.094332e-05 6.636692e-05 7.856428e-05 8.737860e-05 1.017947e-04 1.141528e-04 1.304516e-04 1.461115e-04 1.636333e-04 1.819709e-04 1.997887e-04 2.198975e-04 2.369507e-04 2.578022e-04 2.730751e-04 2.936991e-04 3.064003e-04 3.260360e-04 3.357367e-04 3.539207e-04 3.606201e-04 3.771952e-04 3.813065e-04 3.963575e-04 3.986228e-04 4.123643e-04 4.137222e-04 4.263679e-04 4.278014e-04 4.394462e-04 4.418378e-04 4.523784e-04 4.563926e-04 4.655003e-04 4.715055e-04 4.786589e-04 4.866862e-04 4.912626e-04 5.009905e-04 5.024073e-04 5.131543e-04 5.110459e-04 5.217657e-04 5.161670e-04 5.254565e-04 5.169468e-04 5.231034e-04 5.128501e-04 5.140202e-04 5.036693e-04 4.981081e-04 4.895123e-04 4.759197e-04 4.707566e-04 4.485993e-04 4.479873e-04 4.176896e-04 4.219236e-04 3.848481e-04 3.933346e-04 3.515500e-04 3.629571e-04 3.188721e-04 3.314384e-04 2.874185e-04 2.993272e-04 2.573916e-04 2.671119e-04 2.287582e-04 2.352783e-04 2.014294e-04 2.043484e-04 1.753910e-04 1.748766e-04 1.507545e-04 1.474056e-04 1.277400e-04 1.224052e-04 1.066194e-04 1.002192e-04 8.765332e-05 8.103913e-05 7.104194e-05 6.490643e-05 5.689802e-05 5.173558e-05 4.524018e-05 4.134671e-05 3.600014e-05 3.349754e-05 2.903667e-05 
4.077970e-05 3.551990e-05 3.480591e-05 3.025659e-05 3.084934e-05 2.695174e-05 2.860688e-05 2.530670e-05 2.773441e-05 2.497774e-05 2.786132e-05 2.559747e-05 2.860866e-05 2.679762e-05 2.961210e-05 2.823398e-05 3.054994e-05 2.961410e-05 3.117544e-05 3.072649e-05 3.135010e-05 3.146948e-05 3.107445e-05 3.187748e-05 3.051297e-05 3.214445e-05 3.001320e-05 3.264649e-05 3.012198e-05 3.396611e-05 3.159999e-05 3.691392e-05 3.542669e-05 4.252956e-05 4.277158e-05 5.202860e-05 5.489733e-05 6.666117e-05 7.297061e-05 8.747462e-05 9.779505e-05 1.150223e-04 1.295324e-04 1.491074e-04 1.675103e-04 1.886631e-04 2.102037e-04 2.318353e-04 2.554233e-04 2.762646e-04 3.006724e-04 3.194992e-04 3.435798e-04 3.594277e-04 3.822969e-04 3.946248e-04 4.157633e-04 4.245322e-04 4.437925e-04 4.494491e-04 4.669758e-04 4.703551e-04 4.864479e-04 4.886210e-04 5.035775e-04 5.056775e-04 5.196512e-04 5.227073e-04 5.356073e-04 5.404109e-04 5.518618e-04 5.588761e-04 5.682444e-04 5.775559e-04 5.840463e-04 5.953406e-04 5.981583e-04 6.106997e-04 6.092707e-04 6.218762e-04 6.160956e-04 6.271202e-04 6.175675e-04 6.249493e-04 6.129764e-04 6.144014e-04 6.020071e-04 5.952263e-04 5.846965e-04 5.679632e-04 5.613653e-04 5.338819e-04 5.325828e-04 4.948062e-04 4.991807e-04 4.528590e-04 4.622695e-04 4.101734e-04 4.231843e-04 3.686088e-04 3.833355e-04 3.295236e-04 3.440051e-04 2.936589e-04 3.061768e-04 2.611623e-04 2.704660e-04 2.317362e-04 2.371596e-04 2.048573e-04 2.063263e-04 1.799926e-04 1.779401e-04 1.567563e-04 1.519718e-04 1.349802e-04 1.284332e-04 1.147036e-04 1.073779e-04 9.611080e-05 8.887671e-05 7.944780e-05 7.298542e-05 6.494623e-05 5.971647e-05 5.276785e-05 4.902075e-05 4.297451e-05 
2.909433e-05 2.394872e-05 2.397068e-05 1.956266e-05 2.096132e-05 1.719763e-05 1.966820e-05 1.647967e-05 1.969390e-05 1.702489e-05 2.064261e-05 1.844971e-05 2.212776e-05 2.038528e-05 2.378839e-05 2.249758e-05 2.531451e-05 2.451263e-05 2.647902e-05 2.624449e-05 2.717113e-05 2.762189e-05 2.742537e-05 2.871016e-05 2.744198e-05 2.972867e-05 2.760029e-05 3.106955e-05 2.847262e-05 3.332587e-05 3.084662e-05 3.733028e-05 3.575092e-05 4.418420e-05 4.445383e-05 5.523129e-05 5.838383e-05 7.192081e-05 7.892771e-05 9.553729e-05 1.071135e-04 1.268420e-04 1.432576e-04 1.657403e-04 1.867070e-04 2.111108e-04 2.357930e-04 2.608849e-04 2.880431e-04 3.123772e-04 3.406040e-04 3.627773e-04 3.907575e-04 4.096656e-04 4.363908e-04 4.514206e-04 4.763064e-04 4.874248e-04 5.103132e-04 5.180418e-04 5.390998e-04 5.443925e-04 5.639468e-04 5.680038e-04 5.863546e-04 5.904133e-04 6.076699e-04 6.128112e-04 6.287824e-04 6.357838e-04 6.499418e-04 6.591957e-04 6.707190e-04 6.822121e-04 6.901052e-04 7.034300e-04 7.067130e-04 7.210709e-04 7.190330e-04 7.331976e-04 7.256893e-04 7.379441e-04 7.256459e-04 7.337639e-04 7.183234e-04 7.196952e-04 7.036133e-04 6.956023e-04 6.818187e-04 6.623169e-04 6.535698e-04 6.215900e-04 6.197486e-04 5.758165e-04 5.814138e-04 5.275800e-04 5.397013e-04 4.791572e-04 4.957004e-04 4.321510e-04 4.503526e-04 3.873739e-04 4.044307e-04 3.449916e-04 3.586071e-04 3.048245e-04 3.135605e-04 2.666548e-04 2.700419e-04 2.304260e-04 2.288576e-04 1.962974e-04 1.907808e-04 1.645866e-04 1.564429e-04 1.356650e-04 1.262541e-04 1.098584e-04 1.003783e-04 8.738382e-05 7.875892e-05 6.832567e-05 6.117286e-05 5.264073e-05 4.729182e-05 4.017948e-05 3.673316e-05 3.071156e-05 
4.323375e-05 3.606100e-05 3.489504e-05 2.866667e-05 2.920080e-05 2.385278e-05 2.575890e-05 2.122299e-05 2.412951e-05 2.033103e-05 2.384087e-05 2.070624e-05 2.441016e-05 2.188090e-05 2.537228e-05 2.342199e-05 2.631766e-05 2.496789e-05 2.693765e-05 2.626785e-05 2.707116e-05 2.721863e-05 2.674369e-05 2.789210e-05 2.619119e-05 2.855175e-05 2.586843e-05 2.966470e-05 2.645303e-05 3.192350e-05 2.886109e-05 3.628681e-05 3.427728e-05 4.402235e-05 4.416780e-05 5.669582e-05 6.020811e-05 7.602865e-05 8.405837e-05 1.035818e-04 1.169827e-04 1.403143e-04 1.594096e-04 1.861626e-04 2.106025e-04 2.398185e-04 2.685948e-04 2.988221e-04 3.304476e-04 3.599660e-04 3.927653e-04 4.198940e-04 4.523206e-04 4.757228e-04 5.066141e-04 5.255249e-04 5.542367e-04 5.685650e-04 5.949666e-04 6.052652e-04 6.296131e-04 6.369373e-04 6.596759e-04 6.653711e-04 6.869114e-04 6.923767e-04 7.129027e-04 7.193720e-04 7.387069e-04 7.470847e-04 7.646381e-04 7.754105e-04 7.902101e-04 8.034252e-04 8.142328e-04 8.295131e-04 8.350287e-04 8.515601e-04 8.507262e-04 8.671864e-04 8.595833e-04 8.740244e-04 8.602751e-04 8.700518e-04 8.520657e-04 8.539509e-04 8.348019e-04 8.254032e-04 8.087549e-04 7.852192e-04 7.744362e-04 7.352582e-04 7.325465e-04 6.781825e-04 6.840971e-04 6.171163e-04 6.305774e-04 5.552481e-04 5.739616e-04 4.954032e-04 5.164609e-04 4.396575e-04 4.601220e-04 3.891091e-04 4.064776e-04 3.438914e-04 3.564042e-04 3.034152e-04 3.102049e-04 2.667423e-04 2.678249e-04 2.329514e-04 2.290778e-04 2.013920e-04 1.938041e-04 1.717837e-04 1.619354e-04 1.441797e-04 1.334871e-04 1.188505e-04 1.085132e-04 9.614721e-05 8.705398e-05 7.638504e-05 6.909596e-05 5.976817e-05 5.454797e-05 4.635594e-05 
2.677598e-05 1.984331e-05 1.968993e-05 1.367695e-05 1.522340e-05 1.003555e-05 1.289360e-05 8.454925e-06 1.222383e-05 8.465466e-06 1.273772e-05 9.600507e-06 1.396523e-05 1.141268e-05 1.546374e-05 1.350072e-05 1.685482e-05 1.554576e-05 1.787237e-05 1.735185e-05 1.841210e-05 1.888086e-05 1.856866e-05 2.027190e-05 1.864915e-05 2.184250e-05 1.916421e-05 2.408355e-05 2.081643e-05 2.767535e-05 2.451797e-05 3.354928e-05 3.145339e-05 4.298329e-05 4.315157e-05 5.765563e-05 6.146768e-05 7.953753e-05 8.836321e-05 1.105420e-04 1.254546e-04 1.519751e-04 1.734488e-04 2.039806e-04 2.316954e-04 2.652231e-04 2.980669e-04 3.329712e-04 3.692517e-04 4.035761e-04 4.413722e-04 4.731931e-04 5.107357e-04 5.385284e-04 5.745017e-04 5.974073e-04 6.311013e-04 6.490415e-04 6.803344e-04 6.939651e-04 7.231638e-04 7.336966e-04 7.612929e-04 7.702346e-04 7.966431e-04 8.055072e-04 8.308416e-04 8.408874e-04 8.648170e-04 8.768655e-04 8.985718e-04 9.129343e-04 9.311688e-04 9.476844e-04 9.609147e-04 9.790394e-04 9.856798e-04 1.004536e-03 1.003279e-03 1.021577e-03 1.011844e-03 1.027669e-03 1.010107e-03 1.020694e-03 9.975320e-04 9.992584e-04 9.742666e-04 9.631058e-04 9.409715e-04 9.134247e-04 8.986620e-04 8.528780e-04 8.486359e-04 7.852181e-04 7.924451e-04 7.145408e-04 7.317972e-04 6.444199e-04 6.683486e-04 5.772554e-04 6.034944e-04 5.140874e-04 5.383078e-04 4.548954e-04 4.736760e-04 3.991687e-04 4.105164e-04 3.464447e-04 3.499027e-04 2.966073e-04 2.930151e-04 2.499118e-04 2.409577e-04 2.068343e-04 1.945612e-04 1.678773e-04 1.542650e-04 1.334202e-04 1.201113e-04 1.036489e-04 9.182464e-05 7.855123e-05 6.892660e-05 5.795081e-05 5.084343e-05 4.155335e-05 3.698290e-05 2.898896e-05 
4.181816e-05 3.216536e-05 3.039188e-05 2.199057e-05 2.235667e-05 1.513424e-05 1.720851e-05 1.107211e-05 1.439228e-05 9.231125e-06 1.331635e-05 9.017072e-06 1.337408e-05 9.845142e-06 1.397825e-05 1.117923e-05 1.461244e-05 1.258222e-05 1.489742e-05 1.377293e-05 1.466123e-05 1.467717e-05 1.399371e-05 1.545683e-05 1.326553e-05 1.650673e-05 1.310647e-05 1.843043e-05 1.436670e-05 2.203280e-05 1.811084e-05 2.837583e-05 2.568476e-05 3.890274e-05 3.882673e-05 5.554330e-05 5.969461e-05 8.063325e-05 9.064149e-05 1.165127e-04 1.336741e-04 1.648428e-04 1.897375e-04 2.258908e-04 2.581327e-04 2.981144e-04 3.363549e-04 3.782582e-04 4.204563e-04 4.619513e-04 5.058126e-04 5.445966e-04 5.880387e-04 6.222729e-04 6.637840e-04 6.924062e-04 7.312151e-04 7.540680e-04 7.901088e-04 8.078805e-04 8.415920e-04 8.556083e-04 8.876409e-04 8.995688e-04 9.304779e-04 9.420014e-04 9.719896e-04 9.845160e-04 1.013266e-03 1.027722e-03 1.054335e-03 1.071096e-03 1.094139e-03 1.113087e-03 1.130708e-03 1.151348e-03 1.161499e-03 1.183001e-03 1.183805e-03 1.204882e-03 1.195235e-03 1.213818e-03 1.194152e-03 1.207035e-03 1.179936e-03 1.182687e-03 1.152893e-03 1.140344e-03 1.113825e-03 1.081223e-03 1.063562e-03 1.008050e-03 1.002840e-03 9.247004e-04 9.327027e-04 8.357601e-04 8.550644e-04 7.460260e-04 7.729077e-04 6.598590e-04 6.898276e-04 5.804944e-04 6.091882e-04 5.095774e-04 5.333983e-04 4.471401e-04 4.636530e-04 3.920244e-04 4.001412e-04 3.425440e-04 3.424886e-04 2.971192e-04 2.901787e-04 2.546848e-04 2.428107e-04 2.148131e-04 2.001784e-04 1.776083e-04 1.622306e-04 1.434879e-04 1.289838e-04 1.129546e-04 1.004390e-04 8.642480e-05 7.652579e-05 6.413302e-05 5.707548e-05 4.610340e-05 
1.995165e-05 1.068997e-05 1.028966e-05 2.170036e-06 3.780277e-06 -3.287545e-06 -1.452671e-07 -6.248654e-06 -2.044144e-06 -7.277720e-06 -2.479086e-06 -6.934487e-06 -2.016259e-06 -5.756515e-06 -1.197980e-06 -4.222505e-06 -4.878729e-07 -2.696779e-06 -1.940655e-07 -1.364431e-06 -3.882029e-07 -1.772741e-07 -8.493462e-07 1.164024e-06 -1.062218e-06 3.176184e-06 -2.776795e-07 6.524531e-06 2.401582e-06 1.198103e-05 7.992837e-06 2.049362e-05 1.774178e-05 3.339903e-05 3.334897e-05 5.266969e-05 5.713294e-05 8.094201e-05 9.186099e-05 1.210919e-04 1.401091e-04 1.753725e-04 2.033244e-04 2.444505e-04 2.810181e-04 3.268105e-04 3.705007e-04 4.188303e-04 4.673019e-04 5.155056e-04 5.661103e-04 6.115429e-04 6.618917e-04 7.024544e-04 7.508426e-04 7.853526e-04 8.309494e-04 8.592797e-04 9.020666e-04 9.250587e-04 9.655718e-04 9.847726e-04 1.023743e-03 1.041038e-03 1.079025e-03 1.096238e-03 1.133333e-03 1.151862e-03 1.187508e-03 1.208082e-03 1.241039e-03 1.263670e-03 1.292105e-03 1.316249e-03 1.337907e-03 1.362737e-03 1.375158e-03 1.399756e-03 1.400653e-03 1.423911e-03 1.411798e-03 1.431934e-03 1.407046e-03 1.420899e-03 1.386061e-03 1.388676e-03 1.349534e-03 1.334635e-03 1.298761e-03 1.260346e-03 1.235318e-03 1.169848e-03 1.161055e-03 1.069140e-03 1.078250e-03 9.649063e-04 9.895781e-04 8.629274e-04 8.977004e-04 7.668571e-04 8.047640e-04 6.779112e-04 7.122269e-04 5.955203e-04 6.211607e-04 5.184633e-04 5.327404e-04 4.458361e-04 4.485054e-04 3.774729e-04 3.702229e-04 3.138462e-04 2.994971e-04 2.557053e-04 2.373996e-04 2.037227e-04 1.843030e-04 1.582843e-04 1.399398e-04 1.194390e-04 1.036003e-04 8.695039e-05 7.435817e-05 6.038778e-05 5.124894e-05 3.921304e-05 3.337627e-05 2.284375e-05 
3.532867e-05 2.244811e-05 1.990079e-05 8.689669e-06 8.739587e-06 -8.970180e-07 1.195267e-06 -7.007533e-06 -3.429589e-06 -1.037433e-05 -5.871679e-06 -1.174221e-05 -6.889853e-06 -1.183869e-05 -7.226873e-06 -1.132676e-05 -7.539854e-06 -1.073368e-05 -8.298970e-06 -1.036145e-05 -9.672112e-06 -1.020304e-05 -1.143429e-05 -9.902734e-06 -1.295030e-05 -8.794320e-06 -1.325817e-05 -6.012205e-06 -1.121812e-05 -5.987592e-07 -5.611127e-06 8.525479e-06 4.954376e-06 2.281788e-05 2.235106e-05 4.448790e-05 4.923167e-05 7.664083e-05 8.892016e-05 1.228204e-04 1.446481e-04 1.859210e-04 2.183416e-04 2.669194e-04 3.095507e-04 3.640816e-04 4.150929e-04 4.730555e-04 5.295943e-04 5.878002e-04 6.466801e-04 7.019552e-04 7.603534e-04 8.101732e-04 8.661346e-04 9.090507e-04 9.616915e-04 9.974802e-04 1.046886e-03 1.076431e-03 1.123328e-03 1.148310e-03 1.193637e-03 1.216120e-03 1.260600e-03 1.282583e-03 1.326397e-03 1.349404e-03 1.391991e-03 1.416796e-03 1.456818e-03 1.483409e-03 1.518830e-03 1.546628e-03 1.574830e-03 1.603040e-03 1.620948e-03 1.648794e-03 1.653201e-03 1.679766e-03 1.668159e-03 1.691724e-03 1.663707e-03 1.680761e-03 1.639564e-03 1.644146e-03 1.597104e-03 1.581231e-03 1.538333e-03 1.493881e-03 1.464668e-03 1.386169e-03 1.376586e-03 1.263736e-03 1.274661e-03 1.133302e-03 1.161185e-03 1.002168e-03 1.040850e-03 8.772475e-04 9.198021e-04 7.637394e-04 8.037686e-04 6.641462e-04 6.965489e-04 5.781756e-04 5.996170e-04 5.035377e-04 5.126930e-04 4.371819e-04 4.346819e-04 3.764172e-04 3.644446e-04 3.195555e-04 3.011835e-04 2.660163e-04 2.444921e-04 2.160547e-04 1.942271e-04 1.703465e-04 1.503414e-04 1.296139e-04 1.127547e-04 9.438168e-05 8.128279e-05 6.487264e-05 5.561598e-05 4.100535e-05 