# vtk DataFile Version 2.0
Comment goes here
ASCII

DATASET STRUCTURED_POINTS
FIELD FieldData 1
TIME 1 1 double
0.03500000
DIMENSIONS    128   128   1

ORIGIN    0.000   0.000   0.000
SPACING   0.039062 0.039062   1.000

POINT_DATA   16384
SCALARS Omega double
LOOKUP_TABLE default

-8.616810e-15 -2.910562e-14 -1.532666e-14 8.591972e-15 1.941313e-14 4.219219e-14 3.507120e-14 2.343017e-14 2.248583e-14 2.564280e-14 2.021426e-14 -4.595535e-15 -7.084297e-15 5.578052e-15 2.153241e-14 1.871756e-14 2.445277e-14 7.948767e-15 -1.219801e-14 -1.903907e-15 1.011068e-14 -1.351439e-14 -1.680973e-14 -2.481011e-15 1.955788e-14 -4.018977e-15 2.390910e-14 -5.622493e-15 -7.441062e-15 2.253404e-14 1.383986e-14 -2.316657e-14 -6.789616e-15 2.155613e-14 1.685478e-14 -2.542595e-14 -2.904707e-15 2.170782e-14 2.577168e-14 -4.446910e-14 -6.364953e-16 -4.075117e-14 -4.228104e-14 3.638003e-15 -4.011242e-15 -1.321700e-14 3.435727e-14 2.975007e-14 1.158874e-14 2.635060e-14 1.630004e-14 2.602929e-14 2.332877e-14 1.897888e-14 -1.640716e-14 1.928212e-14 5.814684e-14 4.634317e-14 7.654623e-14 3.871654e-14 1.329578e-14 4.089103e-14 -4.003050e-14 -2.181510e-14 -9.254605e-15 -8.709384e-14 3.316952e-16 -9.991289e-14 -1.402815e-13 -9.433875e-14 -6.970855e-15 1.973539e-15 -3.624279e-14 -1.558796e-14 -1.075971e-13 -9.680219e-14 -9.545036e-15 -3.162624e-14 3.269588e-14 -9.580744e-14 1.916761e-14 -7.649006e-14 -1.188543e-14 -8.072823e-14 -9.746855e-14 -5.012693e-14 2.155442e-15 -1.190352e-14 3.163417e-14 -1.101143e-14 3.999996e-14 7.860297e-14 8.624361e-14 5.709427e-14 1.087247e-14 2.304859e-14 9.611039e-15 8.300558e-15 1.439541e-14 5.422716e-14 2.318380e-14 -7.414257e-15 -1.396414e-14 -2.366846e-14 -3.474647e-14 -1.976088e-14 -2.397263e-14 -2.554376e-15 2.547134e-14 4.199680e-14 2.372529e-14 1.396799e-14 2.101299e-14 8.259537e-15 -4.085309e-15 -1.801132e-14 -3.765567e-14 -2.279155e-14 -2.286489e-14 -1.023219e-14 -6.251293e-16 6.845078e-15 -2.235669e-14 -1.443394e-14 4.916794e-16 -1.288324e-14 -1.868804e-14 -4.806327e-15 
-3.591312e-06 -4.840814e-06 -3.283288e-06 -4.604888e-06 -3.005252e-06 -4.395503e-06 -2.781631e-06 -4.226231e-06 -2.637422e-06 -4.108567e-06 -2.597467e-06 -4.052058e-06 -2.685101e-06 -4.064428e-06 -2.920103e-06 -4.151524e-06 -3.315938e-06 -4.316845e-06 -3.876475e-06 -4.560325e-06 -4.592383e-06 -4.876137e-06 -5.437600e-06 -5.249445e-06 -6.366283e-06 -5.652442e-06 -7.310784e-06 -6.040498e-06 -8.181396e-06 -6.349795e-06 -8.868809e-06 -6.498196e-06 -9.250433e-06 -6.391002e-06 -9.201470e-06 -5.932485e-06 -8.610866e-06 -5.042566e-06 -7.400706e-06 -3.676080e-06 -5.545883e-06 -1.840353e-06 -3.089475e-06 3.938842e-07 -1.490995e-07 2.892403e-06 3.089024e-06 5.469998e-06 6.388918e-06 7.914296e-06 9.494005e-06 1.001659e-05 1.216147e-05 1.160364e-05 1.419556e-05 1.256429e-05 1.547388e-05 1.286606e-05 1.596259e-05 1.255902e-05 1.571840e-05 1.176681e-05 1.487752e-05 1.066655e-05 1.363365e-05 9.460969e-06 1.220820e-05 8.346937e-06 1.081732e-05 7.485506e-06 9.640632e-06 6.978280e-06 8.796882e-06 6.854390e-06 8.330553e-06 7.070469e-06 8.211634e-06 7.523380e-06 8.348099e-06 8.072654e-06 8.608048e-06 8.567512e-06 8.846572e-06 8.872642e-06 8.931791e-06 8.887884e-06 8.765227e-06 8.558992e-06 8.293487e-06 7.879122e-06 7.510468e-06 6.882665e-06 6.451424e-06 5.634209e-06 5.181582e-06 4.215625e-06 3.782520e-06 2.713771e-06 2.339161e-06 1.210513e-06 9.293909e-07 -2.241623e-07 -3.827590e-07 -1.535894e-06 -1.550336e-06 -2.687019e-06 -2.543722e-06 -3.655669e-06 -3.348850e-06 -4.433659e-06 -3.964321e-06 -5.023816e-06 -4.398213e-06 -5.437240e-06 -4.665115e-06 -5.690808e-06 -4.783677e-06 -5.805083e-06 -4.774784e-06 -5.802654e-06 -4.660334e-06 -5.706891e-06 -4.462532e-06 -5.541034e-06 -4.203585e-06 -5.327539e-06 -3.905707e-06 -5.087604e-06 
-7.485298e-06 -1.004696e-05 -7.009768e-06 -9.726668e-06 -6.611699e-06 -9.475515e-06 -6.333796e-06 -9.311967e-06 -6.215127e-06 -9.245441e-06 -6.289931e-06 -9.277061e-06 -6.585767e-06 -9.401121e-06 -7.120958e-06 -9.607027e-06 -7.901449e-06 -9.881184e-06 -8.917260e-06 -1.020803e-05 -1.013875e-05 -1.056927e-05 -1.151294e-05 -1.094057e-05 -1.296001e-05 -1.128562e-05 -1.437053e-05 -1.154867e-05 -1.560415e-05 -1.164782e-05 -1.649159e-05 -1.147262e-05 -1.684232e-05 -1.088978e-05 -1.646048e-05 -9.759575e-06 -1.517008e-05 -7.962723e-06 -1.284773e-05 -5.433387e-06 -9.457258e-06 -2.190323e-06 -5.077293e-06 1.643654e-06 8.746464e-08 5.842238e-06 5.718006e-06 1.009976e-05 1.141677e-05 1.407580e-05 1.676164e-05 1.745093e-05 2.136698e-05 1.998066e-05 2.493866e-05 2.153492e-05 2.731139e-05 2.211453e-05 2.846214e-05 2.184240e-05 2.849935e-05 2.093350e-05 2.763346e-05 1.965263e-05 2.613720e-05 1.826992e-05 2.430459e-05 1.702302e-05 2.241514e-05 1.609083e-05 2.070612e-05 1.557985e-05 1.935315e-05 1.552111e-05 1.845745e-05 1.587452e-05 1.803897e-05 1.653811e-05 1.803609e-05 1.736124e-05 1.831409e-05 1.816187e-05 1.868404e-05 1.874781e-05 1.893169e-05 1.894073e-05 1.885208e-05 1.859983e-05 1.828323e-05 1.764112e-05 1.713155e-05 1.604832e-05 1.538379e-05 1.387328e-05 1.310388e-05 1.122611e-05 1.041701e-05 8.257568e-06 7.485951e-06 5.137568e-06 4.485230e-06 2.034064e-06 1.578454e-06 -9.043316e-07 -1.098188e-06 -3.560045e-06 -3.445000e-06 -5.852079e-06 -5.401027e-06 -7.736159e-06 -6.941125e-06 -9.200934e-06 -8.069899e-06 -1.026190e-05 -8.814385e-06 -1.095452e-05 -9.216886e-06 -1.132756e-05 -9.328833e-06 -1.143739e-05 -9.206058e-06 -1.134336e-05 -8.905480e-06 -1.110430e-05 -8.483036e-06 -1.077591e-05 -7.992560e-06 -1.040879e-05 
-1.099000e-05 -1.470944e-05 -1.008365e-05 -1.402452e-05 -9.264958e-06 -1.342115e-05 -8.606765e-06 -1.293926e-05 -8.184167e-06 -1.261243e-05 -8.072451e-06 -1.246828e-05 -8.343032e-06 -1.252888e-05 -9.057116e-06 -1.281072e-05 -1.025714e-05 -1.332340e-05 -1.195648e-05 -1.406626e-05 -1.412824e-05 -1.502188e-05 -1.669432e-05 -1.614640e-05 -1.951616e-05 -1.735741e-05 -2.238865e-05 -1.852187e-05 -2.503931e-05 -1.944815e-05 -2.713551e-05 -1.988772e-05 -2.830313e-05 -1.955169e-05 -2.815966e-05 -1.814542e-05 -2.636245e-05 -1.541954e-05 -2.266812e-05 -1.122977e-05 -1.699357e-05 -5.592223e-06 -9.464386e-06 1.281693e-06 -4.355683e-07 8.983755e-06 9.525672e-06 1.694684e-05 1.969725e-05 2.451808e-05 2.929160e-05 3.105391e-05 3.756130e-05 3.601835e-05 4.390143e-05 3.906532e-05 4.793088e-05 4.009012e-05 4.953944e-05 3.924206e-05 4.889481e-05 3.689748e-05 4.640971e-05 3.359843e-05 4.267491e-05 2.996682e-05 3.836803e-05 2.660708e-05 3.415160e-05 2.401270e-05 3.057604e-05 2.249233e-05 2.800391e-05 2.212939e-05 2.656847e-05 2.278285e-05 2.617369e-05 2.412861e-05 2.653410e-05 2.573135e-05 2.724450e-05 2.712970e-05 2.786361e-05 2.791626e-05 2.799427e-05 2.779683e-05 2.734495e-05 2.662084e-05 2.576379e-05 2.438273e-05 2.324329e-05 2.120032e-05 1.990019e-05 1.727928e-05 1.593946e-05 1.287315e-05 1.161221e-05 8.246293e-06 7.176281e-06 3.644496e-06 2.865371e-06 -7.247071e-07 -1.130727e-06 -4.702278e-06 -4.674905e-06 -8.179996e-06 -7.682679e-06 -1.109708e-05 -1.011617e-05 -1.343343e-05 -1.197500e-05 -1.520133e-05 -1.328653e-05 -1.643717e-05 -1.409682e-05 -1.719395e-05 -1.446338e-05 -1.753503e-05 -1.444969e-05 -1.752928e-05 -1.412172e-05 -1.724740e-05 -1.354583e-05 -1.675931e-05 -1.278801e-05 -1.613226e-05 -1.191400e-05 -1.542954e-05 
-1.541659e-05 -2.048191e-05 -1.450496e-05 -1.989263e-05 -1.374700e-05 -1.944912e-05 -1.322751e-05 -1.918697e-05 -1.302482e-05 -1.912299e-05 -1.320845e-05 -1.925656e-05 -1.383520e-05 -1.957249e-05 -1.494358e-05 -2.004503e-05 -1.654693e-05 -2.064214e-05 -1.862567e-05 -2.132828e-05 -2.111943e-05 -2.206379e-05 -2.391964e-05 -2.279902e-05 -2.686306e-05 -2.346278e-05 -2.972671e-05 -2.394680e-05 -3.222568e-05 -2.409075e-05 -3.401664e-05 -2.367523e-05 -3.471225e-05 -2.243107e-05 -3.391169e-05 -2.007119e-05 -3.125100e-05 -1.634530e-05 -2.647012e-05 -1.110929e-05 -1.948533e-05 -4.392059e-06 -1.044866e-05 3.561344e-06 2.264292e-07 1.228883e-05 1.188785e-05 2.116066e-05 2.371853e-05 2.947276e-05 3.484890e-05 3.656398e-05 4.448437e-05 4.192940e-05 5.201953e-05 4.530274e-05 5.711490e-05 4.668932e-05 5.972267e-05 4.634513e-05 6.006164e-05 4.471141e-05 5.855375e-05 4.232423e-05 5.574125e-05 3.972180e-05 5.220379e-05 3.736833e-05 4.848909e-05 3.560477e-05 4.506249e-05 3.462708e-05 4.227316e-05 3.448580e-05 4.033156e-05 3.509819e-05 3.929464e-05 3.626690e-05 3.906040e-05 3.770336e-05 3.937831e-05 3.905792e-05 3.988200e-05 3.995872e-05 4.014530e-05 4.005798e-05 3.975380e-05 3.907986e-05 3.837688e-05 3.686092e-05 3.582331e-05 3.337392e-05 3.206789e-05 2.872988e-05 2.724550e-05 2.315808e-05 2.161739e-05 1.696962e-05 1.552074e-05 1.051265e-05 9.314390e-06 4.128624e-06 3.331468e-06 -1.883352e-06 -2.154207e-06 -7.290010e-06 -6.945835e-06 -1.193435e-05 -1.092701e-05 -1.573488e-05 -1.405448e-05 -1.867684e-05 -1.634479e-05 -2.079902e-05 -1.785860e-05 -2.217920e-05 -1.868585e-05 -2.292050e-05 -1.893318e-05 -2.313973e-05 -1.871447e-05 -2.295830e-05 -1.814440e-05 -2.249541e-05 -1.733458e-05 -2.186311e-05 -1.639164e-05 -2.116270e-05 
-1.904004e-05 -2.513525e-05 -1.759067e-05 -2.407183e-05 -1.627998e-05 -2.315146e-05 -1.522776e-05 -2.243818e-05 -1.455944e-05 -2.198498e-05 -1.440303e-05 -2.183442e-05 -1.488232e-05 -2.201947e-05 -1.610578e-05 -2.256373e-05 -1.815120e-05 -2.347992e-05 -2.104693e-05 -2.476486e-05 -2.475177e-05 -2.638932e-05 -2.913564e-05 -2.828207e-05 -3.396367e-05 -3.030914e-05 -3.888624e-05 -3.225187e-05 -4.343768e-05 -3.379087e-05 -4.704784e-05 -3.450525e-05 -4.907198e-05 -3.389757e-05 -4.884522e-05 -3.145099e-05 -4.576385e-05 -2.671779e-05 -3.938864e-05 -1.942615e-05 -2.955349e-05 -9.581354e-06 -1.645414e-05 2.467726e-06 -6.890978e-07 1.602193e-05 1.676703e-05 3.009612e-05 3.466190e-05 4.354719e-05 5.162125e-05 5.524173e-05 6.633367e-05 6.422964e-05 7.773010e-05 6.988984e-05 8.512675e-05 7.202216e-05 8.830931e-05 7.087156e-05 8.754817e-05 6.708331e-05 8.354447e-05 6.159740e-05 7.731597e-05 5.549832e-05 7.003839e-05 4.984209e-05 6.286518e-05 4.548777e-05 5.675413e-05 4.296344e-05 5.233110e-05 4.239345e-05 4.981662e-05 4.350308e-05 4.902851e-05 4.569930e-05 4.945712e-05 4.820680e-05 5.039357e-05 5.022557e-05 5.108029e-05 5.107324e-05 5.085144e-05 5.028409e-05 4.923673e-05 4.765232e-05 4.601398e-05 4.322278e-05 4.120955e-05 3.724348e-05 3.505681e-05 3.009820e-05 2.792946e-05 2.223587e-05 2.026742e-05 1.410867e-05 1.251004e-05 6.125532e-06 5.045915e-06 -1.377180e-06 -1.817419e-06 -8.149092e-06 -7.864971e-06 -1.402664e-05 -1.297128e-05 -1.892522e-05 -1.708815e-05 -2.282647e-05 -2.022805e-05 -2.576381e-05 -2.244707e-05 -2.780823e-05 -2.382979e-05 -2.905597e-05 -2.447721e-05 -2.961828e-05 -2.449808e-05 -2.961356e-05 -2.400324e-05 -2.916169e-05 -2.310256e-05 -2.837991e-05 -2.190404e-05 -2.738005e-05 -2.051425e-05 -2.626659e-05 
-2.424572e-05 -3.168457e-05 -2.298093e-05 -3.093242e-05 -2.194417e-05 -3.041943e-05 -2.126104e-05 -3.019589e-05 -2.104952e-05 -3.028224e-05 -2.141662e-05 -3.067046e-05 -2.245201e-05 -3.132800e-05 -2.421859e-05 -3.220416e-05 -2.674027e-05 -3.323758e-05 -2.998862e-05 -3.436240e-05 -3.386970e-05 -3.550987e-05 -3.821296e-05 -3.660183e-05 -4.276279e-05 -3.753448e-05 -4.717305e-05 -3.815385e-05 -5.100504e-05 -3.822943e-05 -5.373215e-05 -3.743750e-05 -5.475824e-05 -3.536877e-05 -5.345989e-05 -3.157273e-05 -4.926039e-05 -2.564226e-05 -4.173405e-05 -1.732646e-05 -3.072407e-05 -6.643816e-06 -1.644325e-05 6.041029e-06 4.783606e-07 2.000993e-05 1.902522e-05 3.426833e-05 3.791281e-05 4.769666e-05 5.576889e-05 5.924226e-05 7.133945e-05 6.810474e-05 8.367207e-05 7.386892e-05 9.223618e-05 7.655447e-05 9.695845e-05 7.657520e-05 9.817505e-05 7.462519e-05 9.652327e-05 7.152664e-05 9.280687e-05 6.807970e-05 8.786902e-05 6.494717e-05 8.249544e-05 6.259024e-05 7.735331e-05 6.125266e-05 7.295663e-05 6.097689e-05 6.964173e-05 6.163264e-05 6.754233e-05 6.294461e-05 6.656704e-05 6.451841e-05 6.639530e-05 6.587245e-05 6.651087e-05 6.648516e-05 6.628103e-05 6.585958e-05 6.507089e-05 6.359705e-05 6.236521e-05 5.946355e-05 5.786536e-05 5.343160e-05 5.153736e-05 4.568651e-05 4.360315e-05 3.659601e-05 3.448444e-05 2.665187e-05 2.471865e-05 1.639804e-05 1.486983e-05 6.360795e-06 5.452708e-06 -3.007056e-06 -3.119154e-06 -1.136141e-05 -1.055842e-05 -1.848066e-05 -1.670583e-05 -2.426164e-05 -2.151558e-05 -2.870329e-05 -2.503191e-05 -3.188422e-05 -2.736325e-05 -3.393895e-05 -2.865836e-05 -3.503641e-05 -2.908701e-05 -3.536221e-05 -2.882579e-05 -3.510532e-05 -2.804898e-05 -3.444842e-05 -2.692338e-05 -3.356137e-05 -2.560634e-05 -3.259642e-05 
-2.818523e-05 -3.647578e-05 -2.629252e-05 -3.515770e-05 -2.457929e-05 -3.405753e-05 -2.320950e-05 -3.325999e-05 -2.235898e-05 -3.283320e-05 -2.221216e-05 -3.282934e-05 -2.295271e-05 -3.328595e-05 -2.474685e-05 -3.422695e-05 -2.771923e-05 -3.566171e-05 -3.192311e-05 -3.757965e-05 -3.730841e-05 -3.993777e-05 -4.369208e-05 -4.263913e-05 -5.073514e-05 -4.550301e-05 -5.792967e-05 -4.823085e-05 -6.459809e-05 -5.037734e-05 -6.990864e-05 -5.134118e-05 -7.291436e-05 -5.039245e-05 -7.262599e-05 -4.675061e-05 -6.812676e-05 -3.971513e-05 -5.872544e-05 -2.883138e-05 -4.412489e-05 -1.405427e-05 -2.456563e-05 4.138841e-06 -8.984407e-07 2.472835e-05 2.544796e-05 4.624514e-05 5.261138e-05 6.696438e-05 7.853023e-05 8.516161e-05 1.012221e-04 9.937810e-05 1.190546e-04 1.086436e-04 1.309611e-04 1.126180e-04 1.365710e-04 1.116326e-04 1.362395e-04 1.066281e-04 1.309745e-04 9.900085e-05 1.222732e-04 9.037750e-05 1.118855e-04 8.234834e-05 1.015385e-04 7.620160e-05 9.266488e-05 7.270831e-05 8.618862e-05 7.200674e-05 8.241133e-05 7.361650e-05 8.102287e-05 7.658056e-05 8.122895e-05 7.969661e-05 8.195975e-05 8.177543e-05 8.210692e-05 8.186103e-05 8.073534e-05 7.936763e-05 7.722930e-05 7.411960e-05 7.135473e-05 6.630914e-05 6.324126e-05 5.640251e-05 5.330502e-05 4.502742e-05 4.214047e-05 3.286689e-05 3.040862e-05 2.057433e-05 1.874229e-05 8.715316e-06 7.679653e-06 -2.264496e-06 -2.371410e-06 -1.204984e-05 -1.114207e-05 -2.045025e-05 -1.849177e-05 -2.738448e-05 -2.438629e-05 -3.285991e-05 -2.887164e-05 -3.695101e-05 -3.204900e-05 -3.977926e-05 -3.405340e-05 -4.149607e-05 -3.503739e-05 -4.226905e-05 -3.515951e-05 -4.227180e-05 -3.457720e-05 -4.167648e-05 -3.344311e-05 -4.064894e-05 -3.190444e-05 -3.934547e-05 -3.010438e-05 -3.791063e-05 
-3.443447e-05 -4.401544e-05 -3.295154e-05 -4.326846e-05 -3.177011e-05 -4.288356e-05 -3.105430e-05 -4.292314e-05 -3.096226e-05 -4.340644e-05 -3.164214e-05 -4.430981e-05 -3.322288e-05 -4.557104e-05 -3.579911e-05 -4.709803e-05 -3.941126e-05 -4.878078e-05 -4.402323e-05 -5.050358e-05 -4.950175e-05 -5.215252e-05 -5.560109e-05 -5.361233e-05 -6.195511e-05 -5.474809e-05 -6.807549e-05 -5.537126e-05 -7.335361e-05 -5.519706e-05 -7.706625e-05 -5.380903e-05 -7.839330e-05 -5.065434e-05 -7.646395e-05 -4.509377e-05 -7.044979e-05 -3.651771e-05 -5.970998e-05 -2.451524e-05 -4.396785e-05 -9.053838e-06 -2.347137e-05 9.390744e-06 9.220241e-07 2.981043e-05 2.778179e-05 5.077373e-05 5.527263e-05 7.065259e-05 8.142370e-05 8.791364e-05 1.044356e-04 1.013992e-04 1.229510e-04 1.105250e-04 1.362256e-04 1.153471e-04 1.441679e-04 1.164869e-04 1.472517e-04 1.149433e-04 1.463408e-04 1.118526e-04 1.424848e-04 1.082622e-04 1.367424e-04 1.049749e-04 1.300692e-04 1.024859e-04 1.232720e-04 1.010019e-04 1.170026e-04 1.005030e-04 1.117492e-04 1.008043e-04 1.077988e-04 1.015919e-04 1.051720e-04 1.024333e-04 1.035698e-04 1.027874e-04 1.023803e-04 1.020415e-04 1.007733e-04 9.958655e-05 9.787008e-05 9.492048e-05 9.293877e-05 8.775139e-05 8.555488e-05 7.806749e-05 7.568218e-05 6.615292e-05 6.366033e-05 5.254595e-05 5.011605e-05 3.795308e-05 3.583241e-05 2.314279e-05 2.161367e-05 8.843553e-06 8.174473e-06 -4.334953e-06 -3.931193e-06 -1.594830e-05 -1.433939e-05 -2.573136e-05 -2.287131e-05 -3.358651e-05 -2.950593e-05 -3.955541e-05 -3.434199e-05 -4.378370e-05 -3.755898e-05 -4.648590e-05 -3.938277e-05 -4.791487e-05 -4.005902e-05 -4.833802e-05 -3.983463e-05 -4.802025e-05 -3.894652e-05 -4.721258e-05 -3.761625e-05 -4.614490e-05 -3.604885e-05 -4.502114e-05 
-3.888056e-05 -4.906314e-05 -3.670072e-05 -4.767722e-05 -3.472910e-05 -4.660835e-05 -3.316901e-05 -4.595809e-05 -3.224598e-05 -4.580426e-05 -3.220582e-05 -4.620116e-05 -3.330326e-05 -4.718109e-05 -3.577871e-05 -4.875665e-05 -3.982229e-05 -5.092168e-05 -4.552804e-05 -5.364751e-05 -5.284488e-05 -5.687051e-05 -6.153285e-05 -6.046720e-05 -7.113290e-05 -6.421580e-05 -8.095379e-05 -6.774758e-05 -9.007596e-05 -7.049840e-05 -9.737180e-05 -7.168004e-05 -1.015492e-04 -7.029824e-05 -1.012355e-04 -6.524492e-05 -9.512172e-05 -5.547656e-05 -8.217362e-05 -4.025943e-05 -6.188014e-05 -1.942527e-05 -3.447881e-05 6.441605e-06 -1.081283e-06 3.595683e-05 3.635767e-05 6.706122e-05 7.524043e-05 9.729992e-05 1.126595e-04 1.241941e-04 1.457941e-04 1.456245e-04 1.722929e-04 1.601513e-04 1.905795e-04 1.672197e-04 2.000407e-04 1.672252e-04 2.010795e-04 1.614385e-04 1.950318e-04 1.517999e-04 1.839520e-04 1.406052e-04 1.702856e-04 1.301177e-04 1.564686e-04 1.221646e-04 1.445204e-04 1.178016e-04 1.357174e-04 1.171317e-04 1.304240e-04 1.193381e-04 1.281229e-04 1.229290e-04 1.276271e-04 1.261235e-04 1.274098e-04 1.272637e-04 1.259617e-04 1.251389e-04 1.220908e-04 1.191511e-04 1.151071e-04 1.093165e-04 1.048748e-04 9.614659e-05 9.174925e-05 8.047150e-05 7.643916e-05 6.326293e-05 5.984039e-05 4.548860e-05 4.287955e-05 2.801162e-05 2.639319e-05 1.153274e-05 1.105239e-05 -3.432175e-06 -2.668616e-06 -1.654940e-05 -1.448905e-05 -2.764820e-05 -2.429559e-05 -3.669301e-05 -3.210591e-05 -4.375301e-05 -3.803072e-05 -4.897286e-05 -4.224019e-05 -5.254718e-05 -4.493713e-05 -5.469950e-05 -4.633730e-05 -5.566593e-05 -4.665609e-05 -5.568327e-05 -4.610058e-05 -5.498081e-05 -4.486596e-05 -5.377523e-05 -4.313549e-05 -5.226762e-05 -4.108348e-05 -5.064181e-05 
-4.645479e-05 -5.779967e-05 -4.495508e-05 -5.729836e-05 -4.383298e-05 -5.732997e-05 -4.328752e-05 -5.796784e-05 -4.351745e-05 -5.922552e-05 -4.471760e-05 -6.105399e-05 -4.706641e-05 -6.334442e-05 -5.070307e-05 -6.593840e-05 -5.569516e-05 -6.864567e-05 -6.200164e-05 -7.126617e-05 -6.943934e-05 -7.360965e-05 -7.766211e-05 -7.550331e-05 -8.615758e-05 -7.677773e-05 -9.425858e-05 -7.722542e-05 -1.011586e-04 -7.653585e-05 -1.059216e-04 -7.422630e-05 -1.074906e-04 -6.960438e-05 -1.047208e-04 -6.180695e-05 -9.647814e-05 -4.994665e-05 -8.182729e-05 -3.335778e-05 -6.028946e-05 -1.187940e-05 -3.209745e-05 1.392429e-05 1.652778e-06 4.270315e-05 3.903397e-05 7.246831e-05 7.752356e-05 1.009254e-04 1.143951e-04 1.259090e-04 1.471662e-04 1.458005e-04 1.739875e-04 1.598175e-04 1.938781e-04 1.680985e-04 2.067580e-04 1.715672e-04 2.132896e-04 1.716261e-04 2.145927e-04 1.697770e-04 2.119353e-04 1.672841e-04 2.064952e-04 1.649734e-04 1.992544e-04 1.632049e-04 1.910212e-04 1.619831e-04 1.825138e-04 1.611229e-04 1.744097e-04 1.603781e-04 1.672899e-04 1.594790e-04 1.614809e-04 1.580909e-04 1.568803e-04 1.557532e-04 1.528806e-04 1.518685e-04 1.484652e-04 1.457774e-04 1.424623e-04 1.369018e-04 1.338617e-04 1.249063e-04 1.220809e-04 1.098159e-04 1.070968e-04 9.205090e-05 8.942353e-05 7.237080e-05 6.997068e-05 5.175019e-05 4.984176e-05 3.122531e-05 3.013472e-05 1.175039e-05 1.178768e-05 -5.908069e-06 -4.510695e-06 -2.122689e-05 -1.834789e-05 -3.393439e-05 -2.956643e-05 -4.398320e-05 -3.821476e-05 -5.150323e-05 -4.448815e-05 -5.674843e-05 -4.867250e-05 -6.004728e-05 -5.109785e-05 -6.176246e-05 -5.210445e-05 -6.226119e-05 -5.202065e-05 -6.189579e-05 -5.115083e-05 -6.099210e-05 -4.977109e-05 -5.984328e-05 -4.813029e-05 -5.870644e-05 
-5.158996e-05 -6.318487e-05 -4.935483e-05 -6.199439e-05 -4.734591e-05 -6.126164e-05 -4.579793e-05 -6.110215e-05 -4.498352e-05 -6.159806e-05 -4.521548e-05 -6.279659e-05 -4.683526e-05 -6.471104e-05 -5.018225e-05 -6.732434e-05 -5.554138e-05 -7.059339e-05 -6.307288e-05 -7.444997e-05 -7.273594e-05 -7.879248e-05 -8.422348e-05 -8.346220e-05 -9.692411e-05 -8.819951e-05 -1.099171e-04 -9.258000e-05 -1.219923e-04 -9.593839e-05 -1.316813e-04 -9.730286e-05 -1.372975e-04 -9.538027e-05 -1.370126e-04 -8.864458e-05 -1.290152e-04 -7.556597e-05 -1.117855e-04 -5.496776e-05 -8.445873e-05 -2.642735e-05 -4.718102e-05 9.411064e-06 -1.328039e-06 5.073526e-05 5.051334e-05 9.473111e-05 1.048197e-04 1.379827e-04 1.575997e-04 1.770058e-04 2.049467e-04 2.087891e-04 2.435631e-04 2.312401e-04 2.711729e-04 2.434683e-04 2.867814e-04 2.458858e-04 2.907675e-04 2.401262e-04 2.848065e-04 2.287923e-04 2.716143e-04 2.150412e-04 2.545158e-04 2.020337e-04 2.368728e-04 1.923250e-04 2.214724e-04 1.873303e-04 2.100247e-04 1.870325e-04 2.029123e-04 1.900453e-04 1.992623e-04 1.940389e-04 1.973056e-04 1.963941e-04 1.949022e-04 1.948666e-04 1.900761e-04 1.880554e-04 1.814258e-04 1.755702e-04 1.683324e-04 1.579178e-04 1.509603e-04 1.362230e-04 1.300992e-04 1.119090e-04 1.069247e-04 8.643045e-05 8.275040e-05 6.109276e-05 5.882140e-05 3.695641e-05 3.617621e-05 1.480418e-05 1.557785e-05 -4.850851e-06 -2.496068e-06 -2.173385e-05 -1.782262e-05 -3.576594e-05 -3.038156e-05 -4.701935e-05 -4.029816e-05 -5.567546e-05 -4.779153e-05 -6.198854e-05 -5.313326e-05 -6.625631e-05 -5.661715e-05 -6.879667e-05 -5.853816e-05 -6.993027e-05 -5.917882e-05 -6.996808e-05 -5.880144e-05 -6.920336e-05 -5.764496e-05 -6.790737e-05 -5.592616e-05 -6.632752e-05 -5.384442e-05 -6.468707e-05 
-6.078304e-05 -7.330329e-05 -5.955587e-05 -7.337423e-05 -5.879292e-05 -7.422325e-05 -5.872237e-05 -7.593753e-05 -5.958347e-05 -7.852386e-05 -6.162552e-05 -8.189890e-05 -6.509277e-05 -8.588644e-05 -7.019084e-05 -9.022663e-05 -7.703474e-05 -9.459978e-05 -8.558586e-05 -9.866301e-05 -9.559436e-05 -1.020916e-04 -1.065673e-04 -1.046104e-04 -1.177770e-04 -1.059981e-04 -1.283053e-04 -1.060461e-04 -1.370964e-04 -1.044666e-04 -1.429836e-04 -1.007674e-04 -1.446752e-04 -9.414264e-05 -1.407391e-04 -8.346349e-05 -1.296696e-04 -6.744378e-05 -1.101113e-04 -4.499493e-05 -8.123789e-05 -1.568040e-05 -4.316730e-05 1.990176e-05 2.761361e-06 5.998173e-05 5.399660e-05 1.018143e-04 1.071067e-04 1.421737e-04 1.583549e-04 1.780072e-04 2.043569e-04 2.070641e-04 2.426438e-04 2.283212e-04 2.719838e-04 2.420898e-04 2.923885e-04 2.497761e-04 3.048253e-04 2.533720e-04 3.107438e-04 2.548428e-04 3.115887e-04 2.556112e-04 3.084717e-04 2.563026e-04 3.021103e-04 2.568134e-04 2.930196e-04 2.566279e-04 2.818158e-04 2.552037e-04 2.694134e-04 2.522315e-04 2.569484e-04 2.476584e-04 2.454241e-04 2.415135e-04 2.352648e-04 2.336777e-04 2.260438e-04 2.237572e-04 2.165609e-04 2.111384e-04 2.052449e-04 1.951995e-04 1.906911e-04 1.755733e-04 1.721076e-04 1.523491e-04 1.495225e-04 1.261413e-04 1.237328e-04 9.801091e-05 9.606613e-05 6.928361e-05 6.806673e-05 4.132668e-05 4.120332e-05 1.534860e-05 1.666160e-05 -7.737564e-06 -4.757959e-06 -2.737294e-05 -2.264929e-05 -4.334331e-05 -3.694642e-05 -5.572361e-05 -4.783861e-05 -6.480137e-05 -5.568113e-05 -7.099882e-05 -6.091750e-05 -7.480602e-05 -6.402011e-05 -7.673026e-05 -6.544980e-05 -7.726209e-05 -6.563200e-05 -7.685573e-05 -6.494571e-05 -7.591988e-05 -6.372212e-05 -7.481530e-05 -6.224959e-05 -7.385485e-05 
-6.677676e-05 -7.905590e-05 -6.482193e-05 -7.841779e-05 -6.310759e-05 -7.844589e-05 -6.188718e-05 -7.927048e-05 -6.147390e-05 -8.097523e-05 -6.225249e-05 -8.359133e-05 -6.467188e-05 -8.709556e-05 -6.920755e-05 -9.141420e-05 -7.628637e-05 -9.643190e-05 -8.617744e-05 -1.020012e-04 -9.886880e-05 -1.079450e-04 -1.139644e-04 -1.140418e-04 -1.306360e-04 -1.199862e-04 -1.476438e-04 -1.253146e-04 -1.634032e-04 -1.292965e-04 -1.760469e-04 -1.308058e-04 -1.834522e-04 -1.282288e-04 -1.832655e-04 -1.195034e-04 -1.730301e-04 -1.023895e-04 -1.505205e-04 -7.498774e-05 -1.142784e-04 -3.638384e-05 -6.419455e-05 1.281573e-05 -1.895961e-06 7.028080e-05 6.924066e-05 1.321845e-04 1.444775e-04 1.937924e-04 2.183879e-04 2.502359e-04 2.856266e-04 2.972730e-04 3.416307e-04 3.318895e-04 3.831529e-04 3.526717e-04 4.085993e-04 3.599482e-04 4.181815e-04 3.557219e-04 4.138842e-04 3.433975e-04 3.992082e-04 3.272715e-04 3.786312e-04 3.117682e-04 3.567918e-04 3.005017e-04 3.375449e-04 2.953937e-04 3.231592e-04 2.961629e-04 3.139336e-04 3.004355e-04 3.083605e-04 3.044988e-04 3.037539e-04 3.044431e-04 2.971069e-04 2.972657e-04 2.859007e-04 2.815494e-04 2.686522e-04 2.575529e-04 2.451035e-04 2.268231e-04 2.160859e-04 1.915945e-04 1.831750e-04 1.542315e-04 1.482834e-04 1.168469e-04 1.133004e-04 8.111607e-05 7.984032e-05 4.823376e-05 4.910928e-05 1.895169e-05 2.187419e-05 -6.348989e-06 -1.496475e-06 -2.757672e-05 -2.095139e-05 -4.485276e-05 -3.666324e-05 -5.844496e-05 -4.894419e-05 -6.871476e-05 -5.818042e-05 -7.607705e-05 -6.478693e-05 -8.097050e-05 -6.917833e-05 -8.383559e-05 -7.175026e-05 -8.509820e-05 -7.286764e-05 -8.515819e-05 -7.285777e-05 -8.438265e-05 -7.200809e-05 -8.310339e-05 -7.056844e-05 -8.161768e-05 -6.875796e-05 -8.019040e-05 
-7.788553e-05 -9.069963e-05 -7.733956e-05 -9.177159e-05 -7.736991e-05 -9.397789e-05 -7.822473e-05 -9.743125e-05 -8.018193e-05 -1.021395e-04 -8.355545e-05 -1.079820e-04 -8.868046e-05 -1.146943e-04 -9.586685e-05 -1.218691e-04 -1.053166e-04 -1.289844e-04 -1.170147e-04 -1.354587e-04 -1.306227e-04 -1.407284e-04 -1.454201e-04 -1.443243e-04 -1.603314e-04 -1.459205e-04 -1.740416e-04 -1.453174e-04 -1.851432e-04 -1.423276e-04 -1.922181e-04 -1.365641e-04 -1.937867e-04 -1.271899e-04 -1.881667e-04 -1.127767e-04 -1.734170e-04 -9.144857e-05 -1.475653e-04 -6.139315e-05 -1.091723e-04 -2.161558e-05 -5.804102e-05 2.737545e-05 4.264300e-06 8.327645e-05 7.436711e-05 1.422550e-04 1.475617e-04 1.997055e-04 2.186823e-04 2.512577e-04 2.830922e-04 2.937398e-04 3.375127e-04 3.258233e-04 3.804709e-04 3.481642e-04 4.122516e-04 3.629863e-04 4.343788e-04 3.732243e-04 4.488045e-04 3.815020e-04 4.571020e-04 3.893002e-04 4.599758e-04 3.966201e-04 4.573034e-04 4.022636e-04 4.486954e-04 4.045812e-04 4.342857e-04 4.023134e-04 4.152792e-04 3.951051e-04 3.938600e-04 3.834734e-04 3.724239e-04 3.683265e-04 3.525443e-04 3.503672e-04 3.342755e-04 3.297230e-04 3.161900e-04 3.059675e-04 2.960860e-04 2.784615e-04 2.719476e-04 2.468071e-04 2.427035e-04 2.111977e-04 2.085321e-04 1.725371e-04 1.707236e-04 1.323213e-04 1.312599e-04 9.235755e-05 9.231605e-05 5.443501e-05 5.583510e-05 2.004491e-05 2.326144e-05 -9.788608e-06 -4.555262e-06 -3.455565e-05 -2.732117e-05 -5.421038e-05 -4.518124e-05 -6.906536e-05 -5.857752e-05 -7.967000e-05 -6.811876e-05 -8.670010e-05 -7.447818e-05 -9.087169e-05 -7.832242e-05 -9.288177e-05 -8.026786e-05 -9.337341e-05 -8.085818e-05 -9.291990e-05 -8.055750e-05 -9.202219e-05 -7.975421e-05 -9.111363e-05 -7.877198e-05 -9.056709e-05 
-8.488361e-05 -9.677994e-05 -8.368853e-05 -9.716469e-05 -8.276175e-05 -9.853059e-05 -8.235546e-05 -1.010317e-04 -8.280961e-05 -1.047582e-04 -8.458214e-05 -1.097208e-04 -8.825524e-05 -1.158413e-04 -9.449573e-05 -1.229528e-04 -1.039503e-04 -1.308130e-04 -1.170736e-04 -1.391269e-04 -1.339200e-04 -1.475680e-04 -1.539653e-04 -1.557865e-04 -1.760374e-04 -1.633904e-04 -1.983972e-04 -1.698825e-04 -2.189233e-04 -1.745267e-04 -2.352709e-04 -1.761291e-04 -2.448790e-04 -1.727855e-04 -2.448494e-04 -1.617657e-04 -2.319190e-04 -1.397728e-04 -2.028132e-04 -1.037000e-04 -1.550581e-04 -5.170430e-05 -8.797732e-05 1.584072e-05 -3.402644e-06 9.595187e-05 9.425337e-05 1.833741e-04 1.985895e-04 2.714945e-04 3.022241e-04 3.534960e-04 3.978841e-04 4.234255e-04 4.793195e-04 4.769747e-04 5.419431e-04 5.119262e-04 5.832233e-04 5.283241e-04 6.029167e-04 5.284555e-04 6.031686e-04 5.166404e-04 5.883701e-04 4.986971e-04 5.645554e-04 4.809159e-04 5.382297e-04 4.685789e-04 5.148374e-04 4.644183e-04 4.974056e-04 4.676557e-04 4.859274e-04 4.741665e-04 4.777267e-04 4.778482e-04 4.686006e-04 4.726911e-04 4.542607e-04 4.546889e-04 4.315774e-04 4.228263e-04 3.992884e-04 3.788986e-04 3.580670e-04 3.265020e-04 3.100749e-04 2.698124e-04 2.582633e-04 2.126408e-04 2.056908e-04 1.579473e-04 1.550239e-04 1.077366e-04 1.082666e-04 6.316920e-05 6.668793e-05 2.474842e-05 3.088413e-05 -7.495217e-06 9.187204e-07 -3.384786e-05 -2.351124e-05 -5.479007e-05 -4.292078e-05 -7.090729e-05 -5.791931e-05 -8.283013e-05 -6.913643e-05 -9.119807e-05 -7.718279e-05 -9.663765e-05 -8.263156e-05 -9.974736e-05 -8.600831e-05 -1.010855e-04 -8.778347e-05 -1.011611e-04 -8.836676e-05 -1.004293e-04 -8.810511e-05 -9.929188e-05 -8.728573e-05 -9.810250e-05 -8.614498e-05 -9.717314e-05 
-9.819187e-05 -1.100247e-04 -9.889973e-05 -1.126457e-04 -1.003481e-04 -1.169180e-04 -1.027909e-04 -1.230077e-04 -1.065385e-04 -1.309499e-04 -1.119809e-04 -1.406008e-04 -1.195813e-04 -1.515949e-04 -1.298184e-04 -1.633248e-04 -1.430591e-04 -1.749633e-04 -1.593684e-04 -1.855407e-04 -1.783035e-04 -1.940727e-04 -1.987844e-04 -1.997170e-04 -2.191379e-04 -2.019129e-04 -2.373537e-04 -2.004409e-04 -2.514490e-04 -1.953233e-04 -2.597188e-04 -1.864992e-04 -2.606461e-04 -1.733141e-04 -2.524805e-04 -1.540627e-04 -2.328351e-04 -1.259866e-04 -1.988074e-04 -8.600360e-05 -1.478463e-04 -3.200984e-05 -7.903064e-05 3.584314e-05 5.926249e-06 1.145497e-04 1.024980e-04 1.986308e-04 2.040921e-04 2.813385e-04 3.034181e-04 3.562526e-04 3.940140e-04 4.187882e-04 4.714970e-04 4.672032e-04 5.342116e-04 5.028077e-04 5.830877e-04 5.292627e-04 6.207232e-04 5.511213e-04 6.499655e-04 5.720664e-04 6.724978e-04 5.934840e-04 6.880155e-04 6.139630e-04 6.944415e-04 6.299959e-04 6.892254e-04 6.376092e-04 6.711813e-04 6.341435e-04 6.418431e-04 6.192746e-04 6.053963e-04 5.948109e-04 5.670379e-04 5.635311e-04 5.306682e-04 5.278246e-04 4.973051e-04 4.888614e-04 4.650936e-04 4.465846e-04 4.306950e-04 4.003347e-04 3.910916e-04 3.496647e-04 3.448725e-04 2.949417e-04 2.926192e-04 2.375339e-04 2.365295e-04 1.796012e-04 1.796515e-04 1.236425e-04 1.250827e-04 7.199566e-05 7.536345e-05 2.644827e-05 3.216060e-05 -1.195751e-05 -3.774994e-06 -4.292556e-05 -3.246145e-05 -6.677112e-05 -5.445578e-05 -8.422857e-05 -7.062562e-05 -9.626394e-05 -8.196772e-05 -1.039253e-04 -8.948318e-05 -1.082394e-04 -9.410146e-05 -1.101492e-04 -9.664011e-05 -1.104852e-04 -9.778933e-05 -1.099589e-04 -9.811333e-05 -1.091733e-04 -9.806272e-05 -1.086399e-04 -9.799371e-05 -1.087972e-04 