# vtk DataFile Version 2.0
Comment goes here
ASCII

DATASET STRUCTURED_POINTS
FIELD FieldData 1
TIME 1 1 double
0.05000000
DIMENSIONS    128   128   1

ORIGIN    0.000   0.000   0.000
SPACING   0.039062 0.039062   1.000

POINT_DATA   16384
SCALARS Omega double
LOOKUP_TABLE default

-3.658001e-14 -5.391220e-14 -4.371079e-14 -3.261111e-14 -9.291260e-15 2.121810e-14 2.217068e-14 1.954174e-14 1.072453e-14 2.440283e-14 1.831185e-14 1.005590e-14 -1.808855e-14 -1.808634e-14 3.368278e-15 7.505661e-15 1.656218e-14 2.060431e-14 1.415221e-14 1.263202e-14 1.711650e-14 5.701236e-15 -4.968413e-15 -7.198680e-15 5.074725e-14 4.073643e-14 7.215760e-15 1.248314e-14 -2.760923e-14 6.888886e-15 2.118001e-14 3.446138e-14 -2.163256e-14 -1.861517e-14 -1.683984e-14 -3.804404e-15 -4.498160e-14 -1.364448e-14 1.649656e-14 -1.930521e-14 -2.254627e-14 -1.893713e-14 -1.917041e-14 -5.623916e-14 -6.188352e-14 -2.141523e-14 -1.184131e-14 -1.074715e-14 -1.153533e-14 1.463551e-14 3.044971e-14 4.705161e-14 5.735000e-14 4.170942e-14 9.739815e-15 6.560617e-15 1.428908e-14 6.827098e-14 5.012518e-14 3.186525e-14 1.515240e-14 -1.156634e-14 -3.247762e-14 -2.662566e-14 -2.288286e-14 -1.909942e-14 -1.250801e-14 -3.905787e-14 -1.343393e-14 4.265540e-15 2.256414e-14 -1.841053e-14 -2.446221e-14 -5.809636e-15 -9.795562e-15 -2.834719e-14 -6.086481e-14 -1.423199e-15 -5.555010e-14 -3.504293e-14 -1.829641e-14 4.514805e-14 -6.618795e-15 5.708717e-14 1.807529e-14 5.481896e-14 -4.517809e-14 9.887993e-18 -1.506126e-14 3.311125e-14 2.447131e-14 3.637676e-14 2.786828e-14 5.923363e-15 2.855193e-14 -4.428892e-15 1.102566e-14 2.944782e-14 1.760119e-14 5.513810e-15 3.776528e-15 -1.637890e-15 -1.527094e-15 1.368924e-14 3.465923e-14 4.534568e-15 -2.793822e-15 3.062027e-14 4.011661e-14 5.990498e-14 4.156843e-14 4.530821e-14 3.787765e-14 1.902537e-14 1.116863e-14 -1.320803e-14 -1.511527e-14 -7.239803e-15 -6.338956e-15 -3.647613e-15 -9.673588e-15 -4.232241e-15 -1.998502e-14 -1.865803e-14 -1.087451e-14 -1.378381e-14 -1.080838e-14 -2.747284e-14 
-9.482110e-07 -2.065159e-06 -5.256157e-07 -1.559281e-06 -9.006809e-08 -1.044075e-06 3.229454e-07 -5.520180e-07 6.821592e-07 -1.115208e-07 9.610479e-07 2.534962e-07 1.138477e-06 5.242907e-07 1.199530e-06 6.883494e-07 1.136541e-06 7.408617e-07 9.503598e-07 6.866207e-07 6.518878e-07 5.422673e-07 2.639177e-07 3.386792e-07 -1.767681e-07 1.231359e-07 -6.172830e-07 -3.933809e-08 -9.871111e-07 -6.634244e-08 -1.198237e-06 1.386739e-07 -1.148376e-06 6.791647e-07 -7.287193e-07 1.653529e-06 1.631076e-07 3.138907e-06 1.605745e-06 5.172898e-06 3.635283e-06 7.737084e-06 6.229449e-06 1.074715e-05 9.299778e-06 1.405379e-05 1.269546e-05 1.745633e-05 1.621969e-05 2.072769e-05 1.965599e-05 2.364625e-05 2.279892e-05 2.602793e-05 2.548265e-05 2.775216e-05 2.760136e-05 2.877668e-05 2.911805e-05 2.913949e-05 3.006117e-05 2.894867e-05 3.051123e-05 2.836321e-05 3.058130e-05 2.756886e-05 3.039560e-05 2.675283e-05 3.007005e-05 2.608050e-05 2.969739e-05 2.567641e-05 2.933832e-05 2.561077e-05 2.901893e-05 2.589244e-05 2.873352e-05 2.646861e-05 2.845132e-05 2.723116e-05 2.812526e-05 2.802961e-05 2.770096e-05 2.868958e-05 2.712438e-05 2.903526e-05 2.634735e-05 2.891332e-05 2.533119e-05 2.821460e-05 2.404902e-05 2.688991e-05 2.248807e-05 2.495656e-05 2.065242e-05 2.249430e-05 1.856618e-05 1.963161e-05 1.627540e-05 1.652584e-05 1.384740e-05 1.334166e-05 1.136626e-05 1.023211e-05 8.924802e-06 7.325134e-06 6.614634e-06 4.716479e-06 4.516388e-06 2.468200e-06 2.692233e-06 6.113225e-07 1.181774e-06 -8.491697e-07 1.473589e-09 -1.928489e-06 -8.530746e-07 -2.656337e-06 -1.403112e-06 -3.071904e-06 -1.682025e-06 -3.219805e-06 -1.730837e-06 -3.146967e-06 -1.594424e-06 -2.900361e-06 -1.318621e-06 -2.525447e-06 
-1.915174e-06 -4.180750e-06 -1.107521e-06 -3.206068e-06 -2.784575e-07 -2.217360e-06 5.011290e-07 -1.278924e-06 1.169912e-06 -4.458094e-07 1.677144e-06 2.369166e-07 1.983779e-06 7.352809e-07 2.063794e-06 1.028088e-06 1.905759e-06 1.109339e-06 1.514763e-06 9.914484e-07 9.148467e-07 7.091916e-07 1.521356e-07 3.241012e-07 -7.012700e-07 -7.129789e-08 -1.542991e-06 -3.505172e-07 -2.236781e-06 -3.531616e-07 -2.611822e-06 1.096043e-07 -2.467974e-06 1.241621e-06 -1.590127e-06 3.238645e-06 2.266107e-07 6.256244e-06 3.142325e-06 1.037284e-05 7.233935e-06 1.555577e-05 1.246226e-05 2.164011e-05 1.865484e-05 2.832922e-05 2.551229e-05 3.522093e-05 3.264026e-05 4.185725e-05 3.960179e-05 4.778820e-05 4.597932e-05 5.263691e-05 5.143257e-05 5.615257e-05 5.574059e-05 5.824150e-05 5.882049e-05 5.897219e-05 6.072192e-05 5.855625e-05 6.160139e-05 5.731123e-05 6.168430e-05 5.561315e-05 6.122305e-05 5.384648e-05 6.045861e-05 5.235749e-05 5.959067e-05 5.141503e-05 5.875888e-05 5.118136e-05 5.803527e-05 5.169457e-05 5.742661e-05 5.286372e-05 5.688397e-05 5.447794e-05 5.631702e-05 5.622979e-05 5.561030e-05 5.775249e-05 5.463909e-05 5.866783e-05 5.328371e-05 5.863906e-05 5.144114e-05 5.742046e-05 4.903469e-05 5.489394e-05 4.602241e-05 5.108516e-05 4.240482e-05 4.615541e-05 3.823104e-05 4.037196e-05 3.360100e-05 3.406457e-05 2.866137e-05 2.757847e-05 2.359358e-05 2.123362e-05 1.859552e-05 1.529627e-05 1.386010e-05 9.964445e-06 9.555336e-06 5.365679e-06 5.809515e-06 1.563263e-06 2.703625e-06 -1.432961e-06 2.708136e-07 -3.654335e-06 -1.498569e-06 -5.161705e-06 -2.648574e-06 -6.035318e-06 -3.248064e-06 -6.366651e-06 -3.381552e-06 -6.252085e-06 -3.141438e-06 -5.788208e-06 -2.622014e-06 -5.068446e-06 
-3.145266e-06 -6.498402e-06 -1.894232e-06 -4.992444e-06 -6.004740e-07 -3.456338e-06 6.299110e-07 -1.986755e-06 1.703268e-06 -6.684146e-07 2.539887e-06 4.271160e-07 3.075987e-06 1.243479e-06 3.266317e-06 1.742749e-06 3.087395e-06 1.909992e-06 2.541416e-06 1.759118e-06 1.660897e-06 1.339755e-06 5.141219e-07 7.445125e-07 -7.886806e-07 1.155584e-07 -2.089029e-06 -3.512050e-07 -3.175402e-06 -4.069507e-07 -3.783064e-06 2.408548e-07 -3.602960e-06 1.907151e-06 -2.304262e-06 4.893488e-06 4.268566e-07 9.438762e-06 4.834413e-06 1.566287e-05 1.103434e-05 2.351525e-05 1.896479e-05 3.274331e-05 2.836085e-05 4.289417e-05 3.876539e-05 5.335587e-05 4.957899e-05 6.343403e-05 6.014078e-05 7.244979e-05 6.982317e-05 7.983872e-05 7.811962e-05 8.523038e-05 8.470726e-05 8.849387e-05 8.947331e-05 8.974319e-05 9.250401e-05 8.930580e-05 9.404290e-05 8.766366e-05 9.443036e-05 8.537933e-05 9.403801e-05 8.301883e-05 9.320933e-05 8.108107e-05 9.221518e-05 7.994032e-05 9.122817e-05 7.980588e-05 9.031659e-05 8.070108e-05 8.945493e-05 8.246243e-05 8.854610e-05 8.475904e-05 8.744913e-05 8.713143e-05 8.600663e-05 8.904769e-05 8.406707e-05 8.997206e-05 8.149981e-05 8.943856e-05 7.820312e-05 8.711848e-05 7.410856e-05 8.286957e-05 6.918573e-05 7.675624e-05 6.345028e-05 6.903590e-05 5.697426e-05 6.011488e-05 4.989441e-05 5.048490e-05 4.241206e-05 4.065509e-05 3.478087e-05 3.109348e-05 2.728252e-05 2.218640e-05 2.019572e-05 1.421839e-05 1.376551e-05 7.369650e-06 8.179809e-06 1.725760e-06 3.556757e-06 -2.705972e-06 -5.668842e-08 -5.978086e-06 -2.677242e-06 -8.185405e-06 -4.372407e-06 -9.449882e-06 -5.245743e-06 -9.908431e-06 -5.422958e-06 -9.703705e-06 -5.040369e-06 -8.977499e-06 -4.236307e-06 -7.866283e-06 
-4.431877e-06 -8.968984e-06 -2.852001e-06 -7.045327e-06 -1.222145e-06 -5.089947e-06 3.165102e-07 -3.229983e-06 1.641571e-06 -1.574436e-06 2.651378e-06 -2.128336e-07 3.267349e-06 7.869753e-07 3.436848e-06 1.382320e-06 3.136581e-06 1.560750e-06 2.376614e-06 1.346693e-06 1.205186e-06 8.095031e-07 -2.853153e-07 7.231412e-08 -1.950959e-06 -6.794332e-07 -3.587830e-06 -1.191792e-06 -4.924408e-06 -1.141734e-06 -5.618866e-06 -1.469438e-07 -5.267660e-06 2.208520e-06 -3.432486e-06 6.328525e-06 3.098051e-07 1.253954e-05 6.296355e-06 2.101371e-05 1.469774e-05 3.169659e-05 2.544725e-05 4.426072e-05 3.820249e-05 5.810415e-05 5.235645e-05 7.240347e-05 6.710274e-05 8.621630e-05 8.154439e-05 9.861412e-05 9.482279e-05 1.088175e-04 1.062381e-04 1.163060e-04 1.153361e-04 1.208822e-04 1.219458e-04 1.226814e-04 1.261669e-04 1.221316e-04 1.283148e-04 1.198764e-04 1.288416e-04 1.166775e-04 1.282488e-04 1.133122e-04 1.270098e-04 1.104793e-04 1.255101e-04 1.087199e-04 1.240121e-04 1.083594e-04 1.226432e-04 1.094716e-04 1.214041e-04 1.118689e-04 1.201903e-04 1.151187e-04 1.188234e-04 1.185904e-04 1.170828e-04 1.215297e-04 1.147374e-04 1.231582e-04 1.115709e-04 1.227845e-04 1.074017e-04 1.199098e-04 1.020978e-04 1.143061e-04 9.559012e-05 1.060505e-04 8.788756e-05 9.550515e-05 7.909041e-05 8.325086e-05 6.939869e-05 6.999065e-05 5.910724e-05 5.644812e-05 4.858357e-05 4.328197e-05 3.823057e-05 3.102910e-05 2.844154e-05 2.007882e-05 1.955788e-05 1.067268e-05 1.183793e-05 2.921004e-06 5.441488e-06 -3.172527e-06 4.294676e-07 -7.684639e-06 -3.224586e-06 -1.074836e-05 -5.616279e-06 -1.253275e-05 -6.890025e-06 -1.322668e-05 -7.220012e-06 -1.302661e-05 -6.794439e-06 -1.212750e-05 -5.803642e-06 -1.071656e-05 
-6.255419e-06 -1.184850e-05 -4.227307e-06 -9.378839e-06 -2.115465e-06 -6.852166e-06 -9.549030e-08 -4.427036e-06 1.677011e-06 -2.242874e-06 3.068723e-06 -4.182581e-07 3.972079e-06 9.524891e-07 4.309991e-06 1.804932e-06 4.041789e-06 2.112578e-06 3.170183e-06 1.897206e-06 1.749122e-06 1.240796e-06 -1.074128e-07 2.979271e-07 -2.215656e-06 -6.930793e-07 -4.311864e-06 -1.402850e-06 -6.043761e-06 -1.411368e-06 -6.968363e-06 -2.217109e-07 -6.563834e-06 2.706218e-06 -4.264324e-06 7.896632e-06 4.760832e-07 1.577376e-05 8.092432e-06 2.656272e-05 1.880524e-05 4.019639e-05 3.252953e-05 5.625587e-05 4.882597e-05 7.396959e-05 6.691656e-05 9.228331e-05 8.577070e-05 1.099939e-04 1.042471e-04 1.259214e-04 1.212604e-04 1.390827e-04 1.359355e-04 1.488307e-04 1.477159e-04 1.549331e-04 1.564081e-04 1.575802e-04 1.621598e-04 1.573290e-04 1.653843e-04 1.549997e-04 1.666533e-04 1.515477e-04 1.665821e-04 1.479306e-04 1.657277e-04 1.449882e-04 1.645149e-04 1.433455e-04 1.631969e-04 1.433458e-04 1.618513e-04 1.450163e-04 1.604052e-04 1.480674e-04 1.586790e-04 1.519254e-04 1.564382e-04 1.557974e-04 1.534408e-04 1.587672e-04 1.494723e-04 1.599127e-04 1.443647e-04 1.584364e-04 1.380003e-04 1.537854e-04 1.303090e-04 1.457412e-04 1.212685e-04 1.344553e-04 1.109159e-04 1.204218e-04 9.936931e-05 1.043924e-04 8.685015e-05 8.725598e-05 7.369121e-05 6.991402e-05 6.032027e-05 5.317628e-05 4.721875e-05 3.769372e-05 3.486545e-05 2.392973e-05 2.368028e-05 1.216278e-05 1.398135e-05 2.508940e-06 5.962912e-06 -5.046181e-06 -3.057410e-07 -1.061390e-05 -4.865116e-06 -1.437178e-05 -7.841238e-06 -1.653802e-05 -9.418801e-06 -1.735125e-05 -9.816586e-06 -1.705568e-05 -9.267771e-06 -1.589070e-05 -8.005816e-06 -1.408416e-05 
-8.174286e-06 -1.498845e-05 -5.895142e-06 -1.216987e-05 -3.523967e-06 -9.295568e-06 -1.271028e-06 -6.552559e-06 6.807198e-07 -4.101498e-06 2.178332e-06 -2.075063e-06 3.102672e-06 -5.746590e-07 3.373344e-06 3.351616e-07 2.954577e-06 6.348556e-07 1.861755e-06 3.605026e-07 1.685544e-07 -3.837125e-07 -1.984964e-06 -1.412166e-06 -4.382569e-06 -2.445115e-06 -6.720071e-06 -3.099054e-06 -8.593109e-06 -2.884278e-06 -9.489808e-06 -1.216472e-06 -8.798235e-06 2.548494e-06 -5.841439e-06 9.048028e-06 4.972847e-08 1.881247e-05 9.426252e-06 3.214177e-05 2.258970e-05 4.898501e-05 3.947259e-05 6.885897e-05 5.956923e-05 9.083904e-05 8.194759e-05 1.136399e-04 1.053511e-04 1.357783e-04 1.283730e-04 1.557859e-04 1.496631e-04 1.724259e-04 1.681213e-04 1.848688e-04 1.830347e-04 1.927925e-04 1.941352e-04 1.963963e-04 2.015743e-04 1.963352e-04 2.058331e-04 1.935962e-04 2.075929e-04 1.893454e-04 2.075971e-04 1.847685e-04 2.065310e-04 1.809271e-04 2.049336e-04 1.786395e-04 2.031509e-04 1.783938e-04 2.013271e-04 1.802950e-04 1.994268e-04 1.840473e-04 1.972755e-04 1.889762e-04 1.946098e-04 1.940952e-04 1.911279e-04 1.982196e-04 1.865324e-04 2.001230e-04 1.805629e-04 1.987191e-04 1.730147e-04 1.932381e-04 1.637494e-04 1.833602e-04 1.527049e-04 1.692709e-04 1.399144e-04 1.516231e-04 1.255320e-04 1.314148e-04 1.098558e-04 1.098186e-04 9.333097e-05 8.800748e-05 7.652116e-05 6.701657e-05 6.005065e-05 4.765903e-05 4.453031e-05 3.049732e-05 3.048713e-05 1.585549e-05 1.831317e-05 3.855014e-06 8.241591e-06 -5.540780e-06 3.486888e-07 -1.248333e-05 -5.424991e-06 -1.720130e-05 -9.243325e-06 -1.997008e-05 -1.134101e-05 -2.108830e-05 -1.199324e-05 -2.086017e-05 -1.149144e-05 -1.958301e-05 -1.012588e-05 -1.753870e-05 
-1.092281e-05 -1.875147e-05 -8.207096e-06 -1.538341e-05 -5.349233e-06 -1.192306e-05 -2.592371e-06 -8.586815e-06 -1.533119e-07 -5.565950e-06 1.780275e-06 -3.024823e-06 3.055013e-06 -1.096159e-06 3.559441e-06 1.273866e-07 3.233670e-06 6.056267e-07 2.080281e-06 3.666375e-07 1.757166e-07 -4.754048e-07 -2.318185e-06 -1.702344e-06 -5.142213e-06 -2.976470e-06 -7.926970e-06 -3.830070e-06 -1.018036e-05 -3.664376e-06 -1.128055e-05 -1.765043e-06 -1.048530e-05 2.655458e-06 -6.973144e-06 1.037788e-05 7.004166e-08 2.205499e-05 1.131791e-05 3.806120e-05 2.714332e-05 5.834463e-05 4.747110e-05 8.232656e-05 7.169325e-05 1.088909e-04 9.868478e-05 1.364850e-04 1.269311e-04 1.633210e-04 1.547439e-04 1.876376e-04 1.805152e-04 2.079639e-04 2.029509e-04 2.233285e-04 2.212329e-04 2.333758e-04 2.350807e-04 2.383742e-04 2.447127e-04 2.391287e-04 2.507257e-04 2.368246e-04 2.539311e-04 2.328363e-04 2.551802e-04 2.285328e-04 2.552158e-04 2.251040e-04 2.545684e-04 2.234234e-04 2.535094e-04 2.239558e-04 2.520606e-04 2.267117e-04 2.500464e-04 2.312481e-04 2.471723e-04 2.367144e-04 2.431091e-04 2.419435e-04 2.375643e-04 2.455874e-04 2.303274e-04 2.462907e-04 2.212814e-04 2.428870e-04 2.103862e-04 2.345892e-04 1.976486e-04 2.211327e-04 1.831041e-04 2.028327e-04 1.668270e-04 1.805341e-04 1.489733e-04 1.554639e-04 1.298333e-04 1.290283e-04 1.098639e-04 1.026082e-04 8.967628e-05 7.740012e-05 6.997448e-05 5.432506e-05 5.146431e-05 3.400154e-05 3.476126e-05 1.676619e-05 2.032179e-05 2.720011e-06 8.410408e-06 -8.216909e-06 -8.980583e-07 -1.625279e-05 -7.690742e-06 -2.167893e-05 -1.217594e-05 -2.483327e-05 -1.464030e-05 -2.607278e-05 -1.541145e-05 -2.575358e-05 -1.482949e-05 -2.421776e-05 -1.322798e-05 -2.178554e-05 
-1.380818e-05 -2.289118e-05 -1.094477e-05 -1.926570e-05 -7.929313e-06 -1.555392e-05 -5.039315e-06 -1.199809e-05 -2.517575e-06 -8.806865e-06 -5.690277e-07 -6.153847e-06 6.448955e-07 -4.173280e-06 1.014310e-06 -2.951882e-06 4.905458e-07 -2.516660e-06 -9.037460e-07 -2.819298e-06 -3.065088e-06 -3.718599e-06 -5.800332e-06 -4.962854e-06 -8.817093e-06 -6.173920e-06 -1.171118e-05 -6.834799e-06 -1.395009e-05 -6.284114e-06 -1.485712e-05 -3.725177e-06 -1.360923e-05 1.736661e-06 -9.270302e-06 1.101185e-05 -8.813457e-07 2.489010e-05 1.238546e-05 4.385994e-05 3.102972e-05 6.792200e-05 5.503308e-05 9.645372e-05 8.374114e-05 1.281815e-04 1.158686e-04 1.612906e-04 1.496435e-04 1.936615e-04 1.830638e-04 2.231826e-04 2.142030e-04 2.480692e-04 2.414938e-04 2.671182e-04 2.639256e-04 2.798509e-04 2.811214e-04 2.865278e-04 2.932930e-04 2.880483e-04 3.011006e-04 2.857708e-04 3.054604e-04 2.812922e-04 3.073435e-04 2.762261e-04 3.076077e-04 2.720061e-04 3.068842e-04 2.697282e-04 3.055285e-04 2.700385e-04 3.036299e-04 2.730642e-04 3.010610e-04 2.783863e-04 2.975491e-04 2.850603e-04 2.927515e-04 2.916958e-04 2.863245e-04 2.966079e-04 2.779764e-04 2.980397e-04 2.674972e-04 2.944364e-04 2.547620e-04 2.847218e-04 2.397172e-04 2.685130e-04 2.223698e-04 2.462076e-04 2.028030e-04 2.189121e-04 1.812234e-04 1.882302e-04 1.580177e-04 1.559742e-04 1.337814e-04 1.238861e-04 1.092928e-04 9.343276e-05 8.542848e-05 6.570199e-05 6.304931e-05 4.138874e-05 4.288991e-05 2.084010e-05 2.548141e-05 4.126090e-06 1.111907e-05 -8.886985e-06 -1.290015e-07 -1.847235e-05 -8.384798e-06 -2.499120e-05 -1.391019e-05 -2.885296e-05 -1.705591e-05 -3.048554e-05 -1.821767e-05 -3.031359e-05 -1.780295e-05 -2.874355e-05 -1.620867e-05 -2.615413e-05 
-1.783767e-05 -2.787249e-05 -1.456843e-05 -2.370813e-05 -1.107732e-05 -1.940818e-05 -7.672065e-06 -1.524095e-05 -4.629545e-06 -1.144514e-05 -2.193031e-06 -8.228806e-06 -5.649189e-07 -5.763495e-06 1.051084e-07 -4.172321e-06 -2.646159e-07 -3.511808e-06 -1.671022e-06 -3.748726e-06 -4.010549e-06 -4.734787e-06 -7.065925e-06 -6.182867e-06 -1.049503e-05 -7.648039e-06 -1.381923e-05 -8.515502e-06 -1.640855e-05 -7.997777e-06 -1.746617e-05 -5.147654e-06 -1.602534e-05 1.098688e-06 -1.098409e-05 1.182793e-05 -1.206378e-06 2.799063e-05 1.429802e-05 5.018632e-05 3.613713e-05 7.843722e-05 6.430582e-05 1.120224e-04 9.804142e-05 1.494439e-04 1.358310e-04 1.885610e-04 1.755898e-04 2.268788e-04 2.149730e-04 2.619262e-04 2.517457e-04 2.916351e-04 2.841170e-04 3.146370e-04 3.109670e-04 3.304218e-04 3.319244e-04 3.393417e-04 3.472979e-04 3.424795e-04 3.578951e-04 3.414252e-04 3.647806e-04 3.380087e-04 3.690289e-04 3.340335e-04 3.715185e-04 3.310445e-04 3.727999e-04 3.301505e-04 3.730528e-04 3.319104e-04 3.721268e-04 3.362821e-04 3.696447e-04 3.426278e-04 3.651370e-04 3.497720e-04 3.581739e-04 3.561159e-04 3.484687e-04 3.598099e-04 3.359284e-04 3.589892e-04 3.206422e-04 3.520550e-04 3.028140e-04 3.379619e-04 2.826694e-04 3.164453e-04 2.603869e-04 2.881142e-04 2.360990e-04 2.543634e-04 2.099731e-04 2.171227e-04 1.823307e-04 1.785183e-04 1.537368e-04 1.405503e-04 1.250040e-04 1.048641e-04 9.710350e-05 7.264440e-05 7.101912e-05 4.461371e-05 4.759890e-05 2.109431e-05 2.744968e-05 2.096169e-06 1.089288e-05 -1.259539e-05 -2.023156e-06 -2.334397e-05 -1.147307e-05 -3.060131e-05 -1.778840e-05 -3.486062e-05 -2.139274e-05 -3.662236e-05 -2.274843e-05 -3.637065e-05 -2.231885e-05 -3.455867e-05 -2.054562e-05 -3.160116e-05 
-2.205182e-05 -3.336025e-05 -1.876886e-05 -2.905937e-05 -1.525463e-05 -2.463877e-05 -1.185128e-05 -2.038956e-05 -8.860600e-06 -1.656304e-05 -6.540880e-06 -1.337040e-05 -5.098827e-06 -1.097745e-05 -4.676591e-06 -9.493104e-06 -5.335731e-06 -8.951462e-06 -7.041192e-06 -9.289133e-06 -9.648662e-06 -1.032116e-05 -1.289718e-05 -1.171955e-05 -1.640518e-05 -1.299683e-05 -1.966381e-05 -1.349434e-05 -2.201990e-05 -1.237410e-05 -2.264703e-05 -8.619159e-06 -2.051922e-05 -1.060417e-06 -1.442197e-05 1.153906e-05 -3.044890e-06 3.031419e-05 1.481728e-05 5.604451e-05 3.997637e-05 8.886908e-05 7.255240e-05 1.280624e-04 1.117724e-04 1.719667e-04 1.559548e-04 2.181334e-04 2.027082e-04 2.636562e-04 2.492982e-04 3.056194e-04 2.930891e-04 3.415510e-04 3.319455e-04 3.697793e-04 3.645052e-04 3.896250e-04 3.902737e-04 4.014103e-04 4.095443e-04 4.063085e-04 4.231842e-04 4.060876e-04 4.323546e-04 4.028080e-04 4.382285e-04 3.985271e-04 4.417660e-04 3.950476e-04 4.435800e-04 3.937279e-04 4.439043e-04 3.953538e-04 4.426462e-04 4.000594e-04 4.394899e-04 4.072878e-04 4.340147e-04 4.157960e-04 4.258042e-04 4.237292e-04 4.145351e-04 4.287998e-04 4.000370e-04 4.285869e-04 3.823098e-04 4.209375e-04 3.614888e-04 4.043987e-04 3.377685e-04 3.785649e-04 3.113337e-04 3.442207e-04 2.823555e-04 3.032114e-04 2.510767e-04 2.580714e-04 2.179427e-04 2.115375e-04 1.836946e-04 1.661051e-04 1.493573e-04 1.237407e-04 1.161181e-04 8.577868e-05 8.514601e-05 5.296158e-05 5.742020e-05 2.555470e-05 3.361647e-05 3.475915e-06 1.406870e-05 -1.359088e-05 -1.206073e-06 -2.610874e-05 -1.244333e-05 -3.462389e-05 -2.005237e-05 -3.971935e-05 -2.454164e-05 -4.198090e-05 -2.645844e-05 -4.197284e-05 -2.634649e-05 -4.022183e-05 -2.472011e-05 -3.720776e-05 
-2.773935e-05 -3.990041e-05 -2.410599e-05 -3.509124e-05 -2.014954e-05 -3.010034e-05 -1.623810e-05 -2.523972e-05 -1.270710e-05 -2.078916e-05 -9.857511e-06 -1.699721e-05 -7.945957e-06 -1.407458e-05 -7.166445e-06 -1.217788e-05 -7.625887e-06 -1.138325e-05 -9.317707e-06 -1.165229e-05 -1.209937e-05 -1.279603e-05 -1.567876e-05 -1.444444e-05 -1.960995e-05 -1.602698e-05 -2.329193e-05 -1.676457e-05 -2.595873e-05 -1.566835e-05 -2.665295e-05 -1.154509e-05 -2.419372e-05 -3.025441e-06 -1.717834e-05 1.134713e-05 -4.076431e-06 3.292572e-05 1.654151e-05 6.266170e-05 4.565953e-05 1.007585e-04 8.345081e-05 1.463948e-04 1.290294e-04 1.976402e-04 1.804329e-04 2.516293e-04 2.348686e-04 3.049698e-04 2.891635e-04 3.542830e-04 3.402944e-04 3.967402e-04 3.858598e-04 4.304721e-04 4.243858e-04 4.547752e-04 4.554157e-04 4.700992e-04 4.793900e-04 4.778508e-04 4.973742e-04 4.800798e-04 5.107107e-04 4.791158e-04 5.206738e-04 4.772165e-04 5.281931e-04 4.762706e-04 5.336935e-04 4.775829e-04 5.370740e-04 4.817497e-04 5.378132e-04 4.886149e-04 5.351622e-04 4.972871e-04 5.283694e-04 5.062071e-04 5.168869e-04 5.132726e-04 5.005173e-04 5.160389e-04 4.794693e-04 5.120163e-04 4.542998e-04 4.990617e-04 4.257465e-04 4.758162e-04 3.945027e-04 4.420767e-04 3.610361e-04 3.989591e-04 3.255580e-04 3.487501e-04 2.881787e-04 2.944710e-04 2.491672e-04 2.393047e-04 2.091627e-04 1.860823e-04 1.692184e-04 1.369691e-04 1.306611e-04 9.337281e-05 9.484668e-05 5.601505e-05 6.291806e-05 2.507856e-05 3.564648e-05 3.626519e-07 1.337957e-05 -1.858493e-05 -3.920701e-06 -3.236695e-05 -1.658768e-05 -4.166177e-05 -2.514403e-05 -4.716832e-05 -3.020598e-05 -4.956699e-05 -3.241068e-05 -4.949381e-05 -3.236954e-05 -4.752613e-05 -3.064420e-05 -4.417765e-05 
-3.367311e-05 -4.709683e-05 -3.019712e-05 -4.231019e-05 -2.639538e-05 -3.737796e-05 -2.267119e-05 -3.263167e-05 -1.938439e-05 -2.835805e-05 -1.684938e-05 -2.480114e-05 -1.532361e-05 -2.215659e-05 -1.498678e-05 -2.055564e-05 -1.591362e-05 -2.003850e-05 -1.804676e-05 -2.052027e-05 -2.117806e-05 -2.175682e-05 -2.494520e-05 -2.331968e-05 -2.884327e-05 -2.458511e-05 -3.223929e-05 -2.473326e-05 -3.436745e-05 -2.274457e-05 -3.428598e-05 -1.738482e-05 -3.080279e-05 -7.196857e-06 -2.242278e-05 9.445101e-06 -7.406269e-06 3.414825e-05 1.598661e-05 6.815359e-05 4.907400e-05 1.118951e-04 9.227354e-05 1.646211e-04 1.447539e-04 2.242462e-04 2.043734e-04 2.875283e-04 2.679544e-04 3.505421e-04 3.318154e-04 4.093212e-04 3.924069e-04 4.604999e-04 4.468793e-04 5.018046e-04 4.934502e-04 5.323018e-04 5.315118e-04 5.523860e-04 5.614859e-04 5.635513e-04 5.845002e-04 5.680280e-04 6.019801e-04 5.683728e-04 6.152557e-04 5.670854e-04 6.252657e-04 5.663016e-04 6.324120e-04 5.675865e-04 6.365772e-04 5.718150e-04 6.372691e-04 5.791028e-04 6.338206e-04 5.887506e-04 6.255805e-04 5.992041e-04 6.120618e-04 6.080827e-04 5.930504e-04 6.123548e-04 5.686730e-04 6.087210e-04 5.393991e-04 5.942010e-04 5.059354e-04 5.668197e-04 4.690190e-04 5.261957e-04 4.292060e-04 4.737940e-04 3.868067e-04 4.126944e-04 3.420432e-04 3.469264e-04 2.953442e-04 2.806232e-04 2.475789e-04 2.173068e-04 2.000825e-04 1.595040e-04 1.544635e-04 1.087012e-04 1.123039e-04 6.551992e-05 7.488540e-05 2.996490e-05 4.302831e-05 1.647785e-06 1.705595e-05 -2.005125e-05 -3.143560e-06 -3.587770e-05 -1.800555e-05 -4.663386e-05 -2.816666e-05 -5.313092e-05 -3.435818e-05 -5.615355e-05 -3.732637e-05 -5.643447e-05 -3.778146e-05 -5.463831e-05 -3.637129e-05 -5.135438e-05 
-4.140141e-05 -5.552178e-05 -3.766527e-05 -5.028800e-05 -3.348917e-05 -4.483625e-05 -2.929555e-05 -3.951140e-05 -2.547643e-05 -3.462553e-05 -2.239421e-05 -3.046301e-05 -2.036859e-05 -2.727431e-05 -1.964864e-05 -2.525442e-05 -2.037291e-05 -2.450435e-05 -2.252561e-05 -2.497949e-05 -2.590121e-05 -2.643558e-05 -3.009051e-05 -2.838855e-05 -3.449368e-05 -3.010042e-05 -3.834946e-05 -3.059004e-05 -4.075120e-05 -2.864808e-05 -4.061499e-05 -2.283315e-05 -3.659321e-05 -1.145681e-05 -2.698937e-05 7.376747e-06 -9.792060e-06 3.557541e-05 1.705849e-05 7.465389e-05 5.516399e-05 1.251925e-04 1.050726e-04 1.863611e-04 1.658417e-04 2.557327e-04 2.349657e-04 3.295072e-04 3.087246e-04 4.030999e-04 3.828458e-04 4.719243e-04 4.532734e-04 5.321527e-04 5.168322e-04 5.812738e-04 5.716351e-04 6.183489e-04 6.171675e-04 6.439575e-04 6.540801e-04 6.599001e-04 6.837779e-04 6.687577e-04 7.079212e-04 6.734070e-04 7.279458e-04 6.765631e-04 7.446920e-04 6.804093e-04 7.582157e-04 6.863528e-04 7.678175e-04 6.949136e-04 7.722702e-04 7.057165e-04 7.701658e-04 7.175365e-04 7.602855e-04 7.283680e-04 7.419172e-04 7.355325e-04 7.150689e-04 7.358750e-04 6.805357e-04 7.261084e-04 6.397731e-04 7.033473e-04 5.945552e-04 6.657868e-04 5.464891e-04 6.133493e-04 4.965864e-04 5.480040e-04 4.451450e-04 4.735232e-04 3.920526e-04 3.946980e-04 3.373457e-04 3.163277e-04 2.816771e-04 2.423866e-04 2.264304e-04 1.756138e-04 1.734667e-04 1.175149e-04 1.246867e-04 6.860645e-05 8.162837e-05 2.872163e-05 4.523364e-05 -2.732178e-06 1.580658e-05 -2.659070e-05 -6.889504e-06 -4.381146e-05 -2.346897e-05 -5.539075e-05 -3.475548e-05 -6.230404e-05 -4.164391e-05 -6.546386e-05 -4.500573e-05 -6.569334e-05 -4.563597e-05 -6.371433e-05 -4.423315e-05 -6.014758e-05 
-4.946541e-05 -6.478284e-05 -4.610318e-05 -5.978018e-05 -4.231754e-05 -5.463423e-05 -3.856802e-05 -4.970644e-05 -3.527174e-05 -4.530937e-05 -3.280445e-05 -4.171382e-05 -3.148494e-05 -3.914376e-05 -3.154189e-05 -3.775463e-05 -3.306697e-05 -3.759288e-05 -3.596582e-05 -3.854213e-05 -3.992472e-05 -4.026991e-05 -4.441180e-05 -4.219611e-05 -4.872011e-05 -4.349811e-05 -5.203478e-05 -4.314544e-05 -5.347523e-05 -3.992594e-05 -5.205061e-05 -3.241643e-05 -4.650309e-05 -1.889661e-05 -3.510965e-05 2.699915e-06 -1.561891e-05 3.463288e-05 1.448781e-05 7.888973e-05 5.737009e-05 1.364846e-04 1.140319e-04 2.067958e-04 1.837012e-04 2.872605e-04 2.636783e-04 3.735962e-04 3.497298e-04 4.604952e-04 4.368851e-04 5.425648e-04 5.203698e-04 6.152450e-04 5.964113e-04 6.754800e-04 6.627289e-04 7.220260e-04 7.186348e-04 7.553849e-04 7.647773e-04 7.774485e-04 8.026413e-04 7.909789e-04 8.339520e-04 7.990527e-04 8.601211e-04 8.045676e-04 8.818538e-04 8.098817e-04 8.990058e-04 8.166230e-04 9.107115e-04 8.256359e-04 9.157091e-04 8.369706e-04 9.127148e-04 8.498125e-04 9.007163e-04 8.623393e-04 8.791527e-04 8.716111e-04 8.480317e-04 8.736685e-04 8.080225e-04 8.639898e-04 7.604694e-04 8.383502e-04 7.071914e-04 7.939474e-04 6.500130e-04 7.304496e-04 5.902209e-04 6.504928e-04 5.283282e-04 5.592751e-04 4.643781e-04 4.633217e-04 3.986021e-04 3.689526e-04 3.319629e-04 2.811064e-04 2.662426e-04 2.028691e-04 2.036897e-04 1.356343e-04 1.464848e-04 7.957881e-05 9.629765e-05 3.415369e-05 5.406831e-05 -1.560950e-06 2.000605e-05 -2.865159e-05 -6.271348e-06 -4.826676e-05 -2.554397e-05 -6.155920e-05 -3.880273e-05 -6.964424e-05 -4.710095e-05 -7.356517e-05 -5.145373e-05 -7.426675e-05 -5.278161e-05 -7.257980e-05 -5.188883e-05 -6.921770e-05 
-5.958958e-05 -7.536456e-05 -5.610940e-05 -7.002383e-05 -5.207155e-05 -6.446312e-05 -4.794439e-05 -5.904656e-05 -4.417405e-05 -5.410677e-05 -4.119085e-05 -4.995757e-05 -3.939327e-05 -4.689079e-05 -3.910592e-05 -4.514917e-05 -4.051403e-05 -4.487005e-05 -4.358710e-05 -4.600379e-05 -4.801563e-05 -4.822574e-05 -5.319115e-05 -5.087549e-05 -5.825072e-05 -5.295605e-05 -6.217572e-05 -5.319582e-05 -6.388579e-05 -5.012340e-05 -6.223340e-05 -4.207154e-05 -5.583240e-05 -2.707281e-05 -4.278070e-05 -2.749014e-06 -2.050712e-05 3.357229e-05 1.397423e-05 8.432514e-05 6.330650e-05 1.508296e-04 1.287771e-04 2.324400e-04 2.095226e-04 3.261534e-04 3.023473e-04 4.269049e-04 4.022452e-04 5.284535e-04 5.034118e-04 6.245480e-04 6.003868e-04 7.100188e-04 6.889969e-04 7.815322e-04 7.668836e-04 8.378841e-04 8.335510e-04 8.798523e-04 8.900009e-04 9.097336e-04 9.381108e-04 9.307284e-04 9.799214e-04 9.462980e-04 1.016969e-03 9.595795e-04 1.049777e-03 9.729264e-04 1.077632e-03 9.876475e-04 1.098706e-03 1.003962e-03 1.110506e-03 1.021094e-03 1.110489e-03 1.037379e-03 1.096655e-03 1.050317e-03 1.068022e-03 1.056609e-03 1.024941e-03 1.052270e-03 9.692093e-04 1.032968e-03 9.038757e-04 9.947116e-04 8.326288e-04 9.349374e-04 7.588118e-04 8.537054e-04 6.844481e-04 7.543988e-04 6.098847e-04 6.433391e-04 5.344003e-04 5.283074e-04 4.574181e-04 4.166699e-04 3.795088e-04 3.139845e-04 3.026062e-04 2.235284e-04 2.294731e-04 1.465932e-04 1.628701e-04 8.310579e-05 1.048768e-04 3.221026e-05 5.657444e-05 -7.340471e-06 1.806799e-05 -3.696445e-05 -1.128732e-05 -5.813013e-05 -3.259461e-05 -7.227822e-05 -4.715259e-05 -8.076180e-05 -5.626356e-05 -8.480167e-05 -6.111821e-05 -8.546033e-05 -6.274402e-05 -8.363510e-05 -6.199850e-05 -8.006765e-05 
-7.019221e-05 -8.700804e-05 -6.735868e-05 -8.217122e-05 -6.402505e-05 -7.725781e-05 -6.070018e-05 -7.264656e-05 -5.785786e-05 -6.866400e-05 -5.594486e-05 -6.560035e-05 -5.536170e-05 -6.370818e-05 -5.641124e-05 -6.317449e-05 -5.921813e-05 -6.405939e-05 -6.363666e-05 -6.620614e-05 -6.918137e-05 -6.914751e-05 -7.502412e-05 -7.205366e-05 -8.008934e-05 -7.376591e-05 -8.323207e-05 -7.291762e-05 -8.340889e-05 -6.806102e-05 -7.968863e-05 -5.765777e-05 -7.097772e-05 -3.985009e-05 -5.552007e-05 -1.214823e-05 -3.050886e-05 2.859753e-05 7.731247e-06 8.560334e-05 6.279458e-05 1.609926e-04 1.368066e-04 2.545885e-04 2.292824e-04 3.632962e-04 3.368035e-04 4.813976e-04 4.536319e-04 6.016234e-04 5.729578e-04 7.165792e-04 6.883061e-04 8.200759e-04 7.946901e-04 9.080450e-04 8.892551e-04 9.788933e-04 9.713313e-04 1.033317e-03 1.041978e-03 1.073731e-03 1.103206e-03 1.103518e-03 1.157107e-03 1.126275e-03 1.205051e-03 1.145166e-03 1.247154e-03 1.162511e-03 1.282143e-03 1.179673e-03 1.307713e-03 1.197195e-03 1.321207e-03 1.214975e-03 1.320305e-03 1.232187e-03 1.303449e-03 1.246920e-03 1.269989e-03 1.255739e-03 1.220263e-03 1.253540e-03 1.155768e-03 1.234026e-03 1.079320e-03 1.190958e-03 9.947964e-04 1.120050e-03 9.061635e-04 1.020934e-03 8.161457e-04 8.982392e-04 7.255218e-04 7.609065e-04 6.337411e-04 6.197917e-04 5.404269e-04 4.847552e-04 4.465877e-04 3.626696e-04 3.547714e-04 2.569745e-04 2.683094e-04 1.684036e-04 1.903071e-04 9.609290e-05 1.229253e-04 3.847898e-05 6.712693e-05 -6.197347e-06 2.279082e-05 -3.969378e-05 -1.099111e-05 -6.371443e-05 -3.558400e-05 -7.989061e-05 -5.253084e-05 -8.975246e-05 -6.335426e-05 -9.469243e-05 -6.943822e-05 -9.593477e-05 -7.197437e-05 -9.452081e-05 -7.195459e-05 -9.131217e-05 