# vtk DataFile Version 2.0
Comment goes here
ASCII

DATASET STRUCTURED_POINTS
FIELD FieldData 1
TIME 1 1 double
0.17500000
DIMENSIONS    128   128   1

ORIGIN    0.000   0.000   0.000
SPACING   0.039062 0.039062   1.000

POINT_DATA   16384
SCALARS Omega double
LOOKUP_TABLE default

1.967891e-14 2.167300e-14 1.056156e-14 4.651813e-15 6.444116e-15 2.543742e-15 1.728408e-14 1.576462e-14 5.021265e-14 4.465219e-14 3.380907e-14 1.841184e-14 1.690096e-14 2.704278e-14 2.683308e-15 6.493205e-16 -3.445919e-14 -3.226918e-14 -2.141635e-14 -2.548824e-14 -4.823918e-14 -2.204241e-14 -1.353257e-14 -2.593380e-14 -5.179397e-14 -3.088751e-14 -1.494827e-14 1.327675e-14 1.782313e-15 -6.090157e-15 -3.700386e-14 -5.356641e-14 -7.394342e-14 -9.050534e-14 -5.623520e-14 -2.937223e-14 -6.675726e-14 -1.859966e-14 1.163297e-14 8.437559e-15 2.699491e-14 2.928003e-15 2.122807e-14 2.115551e-14 -1.528126e-14 2.518645e-14 2.320201e-14 -2.185343e-14 -2.676182e-14 1.649683e-14 -1.326934e-14 -1.525040e-14 1.340661e-14 2.528717e-14 4.093706e-14 2.231102e-14 4.328667e-14 1.528269e-14 1.934789e-14 2.092242e-14 3.428228e-15 -2.360524e-14 2.950276e-14 -2.717999e-14 -1.316848e-14 -1.970991e-14 1.669102e-14 2.595636e-14 1.808063e-14 4.176180e-15 5.228841e-15 3.048291e-15 -1.452128e-14 -8.059692e-15 -1.782323e-14 -2.347149e-14 -1.134827e-14 -6.064712e-15 7.786321e-15 1.252211e-14 1.193142e-14 -1.412248e-15 -1.656434e-14 -3.128671e-15 3.319189e-14 2.113336e-14 1.157283e-14 1.008248e-14 2.230894e-14 1.145983e-14 8.267276e-15 -1.502120e-14 -1.513633e-14 -2.701355e-14 -2.393341e-14 -3.537246e-14 4.489212e-15 5.992963e-14 3.024692e-14 1.971561e-14 -6.556595e-14 -3.090029e-14 1.651191e-14 4.994387e-15 6.169507e-14 1.513813e-14 3.167625e-14 3.560127e-14 2.338723e-14 1.552386e-14 -4.626220e-15 -1.384967e-14 -1.024268e-14 -7.127522e-15 -9.700218e-15 -2.032583e-15 -4.727380e-15 -3.708076e-15 3.410262e-15 -8.011445e-16 -2.393497e-18 1.429930e-15 9.978235e-15 7.972071e-15 9.322852e-15 9.758960e-15 1.912230e-14 1.749790e-14 
8.660122e-06 8.772561e-06 8.187628e-06 8.299595e-06 7.821934e-06 7.915154e-06 7.536855e-06 7.594172e-06 7.306229e-06 7.311905e-06 7.105495e-06 7.045601e-06 6.913042e-06 6.775966e-06 6.711321e-06 6.488421e-06 6.487729e-06 6.174158e-06 6.235344e-06 5.831084e-06 5.953656e-06 5.464755e-06 5.649432e-06 5.089416e-06 5.337898e-06 4.729206e-06 5.044270e-06 4.419440e-06 4.805462e-06 4.207654e-06 4.671486e-06 4.153743e-06 4.705594e-06 4.328229e-06 4.981985e-06 4.807566e-06 5.579863e-06 5.665655e-06 6.573271e-06 6.961656e-06 8.017312e-06 8.725575e-06 9.933001e-06 1.094461e-05 1.229441e-05 1.355424e-05 1.502233e-05 1.643787e-05 1.798766e-05 1.943712e-05 2.102579e-05 2.237223e-05 2.395973e-05 2.506907e-05 2.662766e-05 2.738695e-05 2.890848e-05 2.924103e-05 3.073965e-05 3.061434e-05 3.212352e-05 3.155686e-05 3.312120e-05 3.217242e-05 3.383606e-05 3.259679e-05 3.439118e-05 3.297180e-05 3.490560e-05 3.342075e-05 3.547415e-05 3.402914e-05 3.615361e-05 3.483324e-05 3.695672e-05 3.581723e-05 3.785331e-05 3.691797e-05 3.877738e-05 3.803607e-05 3.963820e-05 3.905095e-05 4.033373e-05 3.983813e-05 4.076466e-05 4.028640e-05 4.084775e-05 4.031290e-05 4.052674e-05 3.987369e-05 3.977930e-05 3.896839e-05 3.861886e-05 3.763766e-05 3.709079e-05 3.595428e-05 3.526381e-05 3.400972e-05 3.321851e-05 3.189936e-05 3.103588e-05 2.970979e-05 2.878838e-05 2.751064e-05 2.653505e-05 2.535205e-05 2.432088e-05 2.326675e-05 2.217931e-05 2.127511e-05 2.013593e-05 1.939073e-05 1.821189e-05 1.762483e-05 1.642597e-05 1.598861e-05 1.479485e-05 1.449347e-05 1.333233e-05 1.314972e-05 1.204777e-05 1.196473e-05 1.094473e-05 1.094105e-05 1.002008e-05 1.007528e-05 9.263914e-06 9.357659e-06 
1.748367e-05 1.775125e-05 1.658638e-05 1.684789e-05 1.589595e-05 1.611293e-05 1.535687e-05 1.549368e-05 1.491465e-05 1.493895e-05 1.451888e-05 1.440239e-05 1.412581e-05 1.384531e-05 1.370061e-05 1.323923e-05 1.321907e-05 1.256798e-05 1.266910e-05 1.182954e-05 1.205213e-05 1.103786e-05 1.138468e-05 1.022474e-05 1.070058e-05 9.441999e-06 1.005374e-05 8.763826e-06 9.521382e-06 8.288577e-06 9.206563e-06 8.138927e-06 9.238454e-06 8.458349e-06 9.767724e-06 9.401743e-06 1.095471e-05 1.111849e-05 1.294904e-05 1.372803e-05 1.586199e-05 1.729084e-05 1.973584e-05 2.178085e-05 2.451794e-05 2.706742e-05 3.004778e-05 3.291455e-05 3.606394e-05 3.900166e-05 4.223300e-05 4.496488e-05 4.819654e-05 5.045150e-05 5.362656e-05 5.517611e-05 5.827705e-05 5.896571e-05 6.201987e-05 6.178369e-05 6.485718e-05 6.372782e-05 6.690896e-05 6.500380e-05 6.837972e-05 6.588116e-05 6.951322e-05 6.664156e-05 7.054523e-05 6.752987e-05 7.166357e-05 6.871618e-05 7.298128e-05 7.027370e-05 7.452531e-05 7.217354e-05 7.623951e-05 7.429481e-05 7.799888e-05 7.644638e-05 7.963139e-05 7.839648e-05 8.094353e-05 7.990584e-05 8.174694e-05 8.076056e-05 8.188308e-05 8.080043e-05 8.124331e-05 7.993894e-05 7.978175e-05 7.817170e-05 7.751867e-05 7.557183e-05 7.453369e-05 7.227324e-05 7.095042e-05 6.844572e-05 6.691604e-05 6.426779e-05 6.258093e-05 5.990362e-05 5.808302e-05 5.548849e-05 5.353935e-05 5.112434e-05 4.904494e-05 4.688357e-05 4.467640e-05 4.281750e-05 4.049735e-05 3.896533e-05 3.656273e-05 3.536062e-05 3.292050e-05 3.203414e-05 2.961097e-05 2.901326e-05 2.666441e-05 2.631936e-05 2.409847e-05 2.396461e-05 2.191625e-05 2.194937e-05 2.010581e-05 2.026093e-05 1.864102e-05 1.887381e-05 
2.590776e-05 2.626191e-05 2.440660e-05 2.475975e-05 2.323958e-05 2.353555e-05 2.232713e-05 2.251316e-05 2.158971e-05 2.161737e-05 2.095257e-05 2.077894e-05 2.034981e-05 1.993907e-05 1.972779e-05 1.905329e-05 1.904786e-05 1.809469e-05 1.828860e-05 1.705672e-05 1.744797e-05 1.595596e-05 1.654583e-05 1.483504e-05 1.562732e-05 1.376616e-05 1.476730e-05 1.285479e-05 1.407558e-05 1.224294e-05 1.370139e-05 1.211004e-05 1.383447e-05 1.266839e-05 1.469896e-05 1.414974e-05 1.653620e-05 1.678020e-05 1.957416e-05 2.074320e-05 2.398524e-05 2.613503e-05 2.983910e-05 3.292196e-05 3.706204e-05 4.091173e-05 4.541631e-05 4.975132e-05 5.450993e-05 5.895809e-05 6.384036e-05 6.798246e-05 7.286612e-05 7.629101e-05 8.109156e-05 8.345231e-05 8.814560e-05 8.920583e-05 9.383645e-05 9.349858e-05 9.817050e-05 9.648193e-05 1.013329e-04 9.847105e-05 1.036367e-04 9.987753e-05 1.054530e-04 1.011303e-04 1.071392e-04 1.026007e-04 1.089780e-04 1.045447e-04 1.111360e-04 1.070685e-04 1.136469e-04 1.101209e-04 1.164162e-04 1.135082e-04 1.192428e-04 1.169278e-04 1.218532e-04 1.200139e-04 1.239411e-04 1.223895e-04 1.252095e-04 1.237181e-04 1.254102e-04 1.237500e-04 1.243763e-04 1.223544e-04 1.220436e-04 1.195339e-04 1.184560e-04 1.154167e-04 1.137538e-04 1.102291e-04 1.081470e-04 1.042535e-04 1.018806e-04 9.778149e-05 9.519847e-05 9.107526e-05 8.831683e-05 8.434255e-05 8.141024e-05 7.773012e-05 7.461114e-05 7.133214e-05 6.801861e-05 6.520690e-05 6.171055e-05 5.939477e-05 5.575387e-05 5.393151e-05 5.020987e-05 4.885460e-05 4.513420e-05 4.420289e-05 4.057318e-05 4.001178e-05 3.655868e-05 3.630684e-05 3.310370e-05 3.309813e-05 3.019986e-05 3.037668e-05 2.781749e-05 2.811364e-05 
3.482703e-05 3.539754e-05 3.286650e-05 3.342508e-05 3.134612e-05 3.181328e-05 3.015305e-05 3.045505e-05 2.917645e-05 2.924625e-05 2.831347e-05 2.809225e-05 2.747464e-05 2.691395e-05 2.658828e-05 2.565290e-05 2.560430e-05 2.427576e-05 2.449719e-05 2.277802e-05 2.326884e-05 2.118747e-05 2.195158e-05 1.956774e-05 2.061217e-05 1.802226e-05 1.935713e-05 1.669866e-05 1.833914e-05 1.579267e-05 1.776286e-05 1.554915e-05 1.788659e-05 1.625648e-05 1.901469e-05 1.822919e-05 2.147524e-05 2.177488e-05 2.557935e-05 2.714449e-05 3.156394e-05 3.447177e-05 3.952714e-05 4.371423e-05 4.937208e-05 5.461332e-05 6.077765e-05 6.669059e-05 7.321135e-05 7.928969e-05 8.598883e-05 9.166182e-05 9.837167e-05 1.030792e-04 1.096832e-04 1.129521e-04 1.194158e-04 1.209222e-04 1.273045e-04 1.269120e-04 1.333524e-04 1.311200e-04 1.378030e-04 1.339646e-04 1.410708e-04 1.359932e-04 1.436470e-04 1.377754e-04 1.460029e-04 1.398034e-04 1.485097e-04 1.424155e-04 1.513852e-04 1.457523e-04 1.546740e-04 1.497485e-04 1.582554e-04 1.541537e-04 1.618740e-04 1.585778e-04 1.651839e-04 1.625501e-04 1.677993e-04 1.655864e-04 1.693471e-04 1.672550e-04 1.695148e-04 1.672345e-04 1.680906e-04 1.653546e-04 1.649885e-04 1.616141e-04 1.602557e-04 1.561712e-04 1.540583e-04 1.493080e-04 1.466499e-04 1.413775e-04 1.383282e-04 1.327463e-04 1.293940e-04 1.237455e-04 1.201195e-04 1.146425e-04 1.107334e-04 1.056342e-04 1.014216e-04 9.685850e-05 9.233658e-05 8.841432e-05 8.361021e-05 8.038128e-05 7.536123e-05 7.283237e-05 6.769706e-05 6.583782e-05 6.070985e-05 5.946185e-05 5.446978e-05 5.375547e-05 4.901870e-05 4.874905e-05 4.436632e-05 4.444696e-05 4.048971e-05 4.082545e-05 3.733592e-05 3.783370e-05 
4.291102e-05 4.355697e-05 4.012314e-05 4.076893e-05 3.793853e-05 3.848595e-05 3.622097e-05 3.657774e-05 3.483422e-05 3.491537e-05 3.364996e-05 3.337992e-05 3.255468e-05 3.187027e-05 3.145563e-05 3.030985e-05 3.028560e-05 2.865227e-05 2.900692e-05 2.688613e-05 2.761494e-05 2.503926e-05 2.614184e-05 2.318315e-05 2.466164e-05 2.143794e-05 2.329704e-05 1.997825e-05 2.222805e-05 1.903887e-05 2.170043e-05 1.891749e-05 2.202968e-05 1.996962e-05 2.359373e-05 2.258880e-05 2.680663e-05 2.716627e-05 3.206804e-05 3.402816e-05 3.968987e-05 4.335692e-05 4.981160e-05 5.511327e-05 6.232525e-05 6.898188e-05 7.683492e-05 8.436383e-05 9.267106e-05 1.004289e-04 1.089662e-04 1.162253e-04 1.247812e-04 1.308258e-04 1.392547e-04 1.434790e-04 1.517414e-04 1.537298e-04 1.619076e-04 1.614828e-04 1.697619e-04 1.669956e-04 1.756197e-04 1.708059e-04 1.800121e-04 1.736143e-04 1.835648e-04 1.761469e-04 1.868738e-04 1.790275e-04 1.904026e-04 1.826796e-04 1.944154e-04 1.872715e-04 1.989527e-04 1.927046e-04 2.038424e-04 1.986417e-04 2.087400e-04 2.045642e-04 2.131850e-04 2.098486e-04 2.166672e-04 2.138546e-04 2.186955e-04 2.160125e-04 2.188615e-04 2.159014e-04 2.168945e-04 2.133068e-04 2.126966e-04 2.082456e-04 2.063530e-04 2.009539e-04 1.981121e-04 1.918366e-04 1.883382e-04 1.813916e-04 1.774497e-04 1.701250e-04 1.658560e-04 1.584806e-04 1.539123e-04 1.467993e-04 1.418995e-04 1.353117e-04 1.300283e-04 1.241597e-04 1.184597e-04 1.134305e-04 1.073279e-04 1.031909e-04 9.675787e-05 9.350890e-05 8.687043e-05 8.446197e-05 7.777861e-05 7.613202e-05 6.957737e-05 6.859386e-05 6.233271e-05 6.190223e-05 5.607378e-05 5.608162e-05 5.078946e-05 5.112082e-05 4.642979e-05 4.697250e-05 
5.183768e-05 5.278078e-05 4.846765e-05 4.939361e-05 4.582502e-05 4.660811e-05 4.373558e-05 4.425892e-05 4.202803e-05 4.218477e-05 4.054288e-05 4.023868e-05 3.914053e-05 3.829724e-05 3.770842e-05 3.626906e-05 3.616716e-05 3.410185e-05 3.447557e-05 3.178833e-05 3.263494e-05 2.937111e-05 3.069306e-05 2.694708e-05 2.874915e-05 2.467220e-05 2.696079e-05 2.276705e-05 2.555319e-05 2.152285e-05 2.482904e-05 2.130488e-05 2.517431e-05 2.254766e-05 2.705148e-05 2.573336e-05 3.097002e-05 3.134480e-05 3.742638e-05 3.978959e-05 4.681391e-05 5.130258e-05 5.931647e-05 6.584684e-05 7.481236e-05 8.304321e-05 9.282102e-05 1.021581e-04 1.125189e-04 1.221674e-04 1.328331e-04 1.418924e-04 1.525992e-04 1.601824e-04 1.707476e-04 1.761028e-04 1.864759e-04 1.890843e-04 1.993650e-04 1.990000e-04 2.094168e-04 2.061547e-04 2.170066e-04 2.111951e-04 2.227701e-04 2.149634e-04 2.274534e-04 2.183296e-04 2.317622e-04 2.220370e-04 2.362393e-04 2.265866e-04 2.411887e-04 2.321743e-04 2.466515e-04 2.386815e-04 2.524245e-04 2.457116e-04 2.581111e-04 2.526594e-04 2.631886e-04 2.588017e-04 2.670835e-04 2.633983e-04 2.692466e-04 2.657921e-04 2.692224e-04 2.654979e-04 2.667076e-04 2.622676e-04 2.615886e-04 2.561191e-04 2.539537e-04 2.473213e-04 2.440703e-04 2.363361e-04 2.323347e-04 2.237294e-04 2.192031e-04 2.100752e-04 2.051246e-04 1.958760e-04 1.904955e-04 1.815212e-04 1.756420e-04 1.672848e-04 1.608299e-04 1.533534e-04 1.462867e-04 1.398659e-04 1.322235e-04 1.269469e-04 1.188448e-04 1.147241e-04 1.063449e-04 1.033287e-04 9.489451e-05 9.288380e-05 8.462488e-05 8.348838e-05 7.561568e-05 7.520355e-05 6.788936e-05 6.804443e-05 6.141250e-05 6.197838e-05 5.610257e-05 5.692849e-05 
5.941938e-05 6.043858e-05 5.489050e-05 5.591315e-05 5.130564e-05 5.218453e-05 4.846557e-05 4.906199e-05 4.617115e-05 4.635656e-05 4.423432e-05 4.389362e-05 4.248798e-05 4.152446e-05 4.079492e-05 3.913660e-05 3.905532e-05 3.666244e-05 3.721299e-05 3.408622e-05 3.526026e-05 3.144949e-05 3.324247e-05 2.885578e-05 3.126321e-05 2.647565e-05 2.949207e-05 2.455299e-05 2.817572e-05 2.341283e-05 2.765124e-05 2.346766e-05 2.835620e-05 2.521574e-05 3.082558e-05 2.922038e-05 3.566161e-05 3.605821e-05 4.346533e-05 4.623011e-05 5.472823e-05 6.004172e-05 6.969985e-05 7.747845e-05 8.826506e-05 9.811321e-05 1.098726e-04 1.210857e-04 1.335499e-04 1.451768e-04 1.580155e-04 1.689731e-04 1.818719e-04 1.910909e-04 2.038337e-04 2.104056e-04 2.229387e-04 2.262341e-04 2.386888e-04 2.384279e-04 2.510932e-04 2.473587e-04 2.606092e-04 2.538076e-04 2.680018e-04 2.587868e-04 2.741615e-04 2.633363e-04 2.799214e-04 2.683373e-04 2.859108e-04 2.743748e-04 2.924671e-04 2.816629e-04 2.996099e-04 2.900353e-04 3.070662e-04 2.989890e-04 3.143328e-04 3.077681e-04 3.207577e-04 3.154721e-04 3.256306e-04 3.211794e-04 3.282739e-04 3.240723e-04 3.281299e-04 3.235518e-04 3.248357e-04 3.193235e-04 3.182745e-04 3.114394e-04 3.085925e-04 3.002800e-04 2.961696e-04 2.864771e-04 2.815491e-04 2.707907e-04 2.653388e-04 2.539733e-04 2.481162e-04 2.366594e-04 2.303628e-04 2.193079e-04 2.124437e-04 2.022046e-04 1.946282e-04 1.855101e-04 1.771314e-04 1.693245e-04 1.601547e-04 1.537429e-04 1.439074e-04 1.388856e-04 1.286066e-04 1.248997e-04 1.144599e-04 1.119422e-04 1.016415e-04 1.001548e-04 9.027203e-05 8.964065e-05 8.040684e-05 8.044948e-05 7.203392e-05 7.257156e-05 6.507963e-05 6.593999e-05 
6.822109e-05 6.963733e-05 6.288485e-05 6.428043e-05 5.864674e-05 5.984183e-05 5.526401e-05 5.609054e-05 5.249795e-05 5.280071e-05 5.012524e-05 4.976552e-05 4.794885e-05 4.681065e-05 4.580860e-05 4.380685e-05 4.359069e-05 4.068082e-05 4.123578e-05 3.742388e-05 3.874503e-05 3.409795e-05 3.618448e-05 3.083946e-05 3.368911e-05 2.786255e-05 3.146893e-05 2.546338e-05 2.981913e-05 2.402686e-05 2.913442e-05 2.403401e-05 2.992260e-05 2.606307e-05 3.280567e-05 3.077096e-05 3.849105e-05 3.883876e-05 4.769615e-05 5.087014e-05 6.102128e-05 6.724870e-05 7.878859e-05 8.798354e-05 1.008882e-04 1.125914e-04 1.266855e-04 1.400655e-04 1.550341e-04 1.689615e-04 1.844102e-04 1.975956e-04 2.131455e-04 2.243140e-04 2.397037e-04 2.477699e-04 2.629331e-04 2.671408e-04 2.822335e-04 2.822365e-04 2.976036e-04 2.934794e-04 3.095660e-04 3.017691e-04 3.189967e-04 3.082689e-04 3.269075e-04 3.141673e-04 3.342329e-04 3.204618e-04 3.416645e-04 3.278046e-04 3.495578e-04 3.364240e-04 3.579125e-04 3.461215e-04 3.664129e-04 3.563278e-04 3.745043e-04 3.662000e-04 3.814863e-04 3.747434e-04 3.866085e-04 3.809457e-04 3.891639e-04 3.839126e-04 3.885746e-04 3.829913e-04 3.844657e-04 3.778644e-04 3.767169e-04 3.685949e-04 3.654803e-04 3.556068e-04 3.511504e-04 3.395971e-04 3.342891e-04 3.213967e-04 3.155217e-04 3.018184e-04 2.954393e-04 2.815377e-04 2.745374e-04 2.610403e-04 2.532083e-04 2.406383e-04 2.317740e-04 2.205339e-04 2.105354e-04 2.008937e-04 1.898069e-04 1.819005e-04 1.699240e-04 1.637714e-04 1.512215e-04 1.467424e-04 1.339986e-04 1.310371e-04 1.184848e-04 1.168345e-04 1.048182e-04 1.042458e-04 9.304061e-05 9.330480e-05 8.310474e-05 8.397018e-05 7.489008e-05 7.613444e-05 
7.505523e-05 7.655530e-05 6.809630e-05 6.960858e-05 6.252591e-05 6.384424e-05 5.807112e-05 5.899991e-05 5.445981e-05 5.481561e-05 5.143419e-05 5.105071e-05 4.876401e-05 4.750021e-05 4.625922e-05 4.400984e-05 4.378162e-05 4.048913e-05 4.125463e-05 3.692136e-05 3.867021e-05 3.336987e-05 3.609308e-05 2.998115e-05 3.366373e-05 2.698641e-05 3.160329e-05 2.470466e-05 3.022384e-05 2.354985e-05 2.994582e-05 2.404187e-05 3.131853e-05 2.681448e-05 3.503039e-05 3.260390e-05 4.188653e-05 4.219567e-05 5.272954e-05 5.631189e-05 6.829249e-05 7.544154e-05 8.900272e-05 9.964847e-05 1.147873e-04 1.284183e-04 1.449498e-04 1.606097e-04 1.781767e-04 1.945500e-04 2.126947e-04 2.282707e-04 2.465500e-04 2.598305e-04 2.779413e-04 2.876477e-04 3.055214e-04 3.107588e-04 3.285955e-04 3.289459e-04 3.471732e-04 3.427096e-04 3.618741e-04 3.531055e-04 3.737225e-04 3.614907e-04 3.838876e-04 3.692411e-04 3.934326e-04 3.774997e-04 4.031238e-04 3.869981e-04 4.133278e-04 3.979695e-04 4.239961e-04 4.101475e-04 4.347175e-04 4.228328e-04 4.448097e-04 4.350040e-04 4.534267e-04 4.454578e-04 4.596687e-04 4.529668e-04 4.626898e-04 4.564438e-04 4.618020e-04 4.550978e-04 4.565687e-04 4.485591e-04 4.468762e-04 4.369454e-04 4.329617e-04 4.208429e-04 4.153769e-04 4.011912e-04 3.948838e-04 3.790917e-04 3.723067e-04 3.555947e-04 3.483894e-04 3.315307e-04 3.237082e-04 3.074390e-04 2.986651e-04 2.836002e-04 2.735473e-04 2.601389e-04 2.486116e-04 2.371427e-04 2.241503e-04 2.147480e-04 2.005132e-04 1.931713e-04 1.780840e-04 1.726897e-04 1.572325e-04 1.535943e-04 1.382636e-04 1.361395e-04 1.213828e-04 1.205053e-04 1.066818e-04 1.067788e-04 9.414420e-05 9.495193e-05 8.366169e-05 8.493168e-05 
8.353760e-05 8.554996e-05 7.541902e-05 7.741112e-05 6.888457e-05 7.061211e-05 6.361141e-05 6.484348e-05 5.928242e-05 5.980193e-05 5.559907e-05 5.520825e-05 5.229535e-05 5.082612e-05 4.915285e-05 4.648070e-05 4.601592e-05 4.207561e-05 4.280507e-05 3.760590e-05 3.952614e-05 3.316529e-05 3.627441e-05 2.894737e-05 3.323452e-05 2.524261e-05 3.068034e-05 2.243546e-05 2.898043e-05 2.100686e-05 2.861403e-05 2.154500e-05 3.019613e-05 2.475917e-05 3.449822e-05 3.147823e-05 4.243639e-05 4.260355e-05 5.499265e-05 5.898822e-05 7.304912e-05 8.123929e-05 9.715225e-05 1.094822e-04 1.272698e-04 1.431647e-04 1.626295e-04 1.809859e-04 2.017175e-04 2.210030e-04 2.424624e-04 2.609105e-04 2.825705e-04 2.984269e-04 3.199240e-04 3.316893e-04 3.529397e-04 3.595583e-04 3.807975e-04 3.817617e-04 4.034949e-04 3.988570e-04 4.217275e-04 4.120335e-04 4.366415e-04 4.228134e-04 4.495283e-04 4.327254e-04 4.615370e-04 4.430200e-04 4.734658e-04 4.544766e-04 4.856601e-04 4.673184e-04 4.980162e-04 4.812265e-04 5.100584e-04 4.954239e-04 5.210519e-04 5.088021e-04 5.301229e-04 5.200724e-04 5.363689e-04 5.279313e-04 5.389597e-04 5.312313e-04 5.372304e-04 5.291438e-04 5.307663e-04 5.212925e-04 5.194711e-04 5.078248e-04 5.035963e-04 4.893924e-04 4.837055e-04 4.670211e-04 4.605651e-04 4.418931e-04 4.349865e-04 4.151072e-04 4.076818e-04 3.875011e-04 3.791909e-04 3.595948e-04 3.499036e-04 3.316573e-04 3.201508e-04 3.038445e-04 2.903044e-04 2.763344e-04 2.608335e-04 2.494050e-04 2.322934e-04 2.234352e-04 2.052613e-04 1.988506e-04 1.802525e-04 1.760498e-04 1.576534e-04 1.553420e-04 1.376876e-04 1.369138e-04 1.204168e-04 1.208226e-04 1.057657e-04 1.070106e-04 9.355569e-05 9.532675e-05 
8.927757e-05 9.138013e-05 7.890553e-05 8.103844e-05 7.050481e-05 7.239007e-05 6.371176e-05 6.508192e-05 5.816552e-05 5.876474e-05 5.352324e-05 5.311480e-05 4.947648e-05 4.785639e-05 4.576927e-05 4.278417e-05 4.221664e-05 3.778349e-05 3.872098e-05 3.284561e-05 3.528303e-05 2.807518e-05 3.200523e-05 2.368891e-05 2.908830e-05 2.000769e-05 2.682580e-05 1.744765e-05 2.560487e-05 1.651863e-05 2.592200e-05 1.783674e-05 2.841633e-05 2.214904e-05 3.390765e-05 3.034982e-05 4.340454e-05 4.344868e-05 5.803428e-05 6.244694e-05 7.885936e-05 8.810831e-05 1.065936e-04 1.206672e-04 1.412944e-04 1.595730e-04 1.821476e-04 2.033836e-04 2.274474e-04 2.498796e-04 2.748104e-04 2.963938e-04 3.215764e-04 3.402736e-04 3.652859e-04 3.793522e-04 4.041072e-04 4.123085e-04 4.371034e-04 4.388334e-04 4.642893e-04 4.595790e-04 4.864816e-04 4.759212e-04 5.050020e-04 4.896074e-04 5.213156e-04 5.023756e-04 5.366981e-04 5.156275e-04 5.519994e-04 5.302127e-04 5.675394e-04 5.463389e-04 5.831253e-04 5.635942e-04 5.981509e-04 5.810435e-04 6.117294e-04 5.973689e-04 6.228263e-04 6.110356e-04 6.303793e-04 6.204797e-04 6.334092e-04 6.243124e-04 6.311297e-04 6.215265e-04 6.230576e-04 6.116768e-04 6.091122e-04 5.949911e-04 5.896665e-04 5.723592e-04 5.655090e-04 5.451647e-04 5.376908e-04 5.149840e-04 5.072946e-04 4.832421e-04 4.752165e-04 4.509561e-04 4.420549e-04 4.186564e-04 4.081477e-04 3.864943e-04 3.737193e-04 3.544584e-04 3.390492e-04 3.225892e-04 3.045769e-04 2.911060e-04 2.709051e-04 2.604182e-04 2.387185e-04 2.310499e-04 2.086676e-04 2.035294e-04 1.812689e-04 1.782952e-04 1.568499e-04 1.556401e-04 1.355421e-04 1.356957e-04 1.173061e-04 1.184455e-04 1.019716e-04 1.037506e-04 
9.717865e-05 9.991374e-05 8.512893e-05 8.785282e-05 7.529819e-05 7.768956e-05 6.726558e-05 6.901443e-05 6.061870e-05 6.142514e-05 5.496616e-05 5.454905e-05 4.995445e-05 4.806901e-05 4.528982e-05 4.175174e-05 4.076319e-05 3.547516e-05 3.627364e-05 2.924970e-05 3.184467e-05 2.322825e-05 2.762819e-05 1.770187e-05 2.389566e-05 1.308289e-05 2.102154e-05 9.882659e-06 1.947088e-05 8.696617e-06 1.980585e-05 1.021062e-05 2.272152e-05 1.523316e-05 2.910213e-05 2.473393e-05 4.005754e-05 3.983731e-05 5.687274e-05 6.170556e-05 8.081238e-05 9.127921e-05 1.127835e-04 1.289194e-04 1.529480e-04 1.740774e-04 2.004387e-04 2.251413e-04 2.533154e-04 2.795583e-04 3.088144e-04 3.342254e-04 3.638302e-04 3.860435e-04 4.154895e-04 4.324781e-04 4.616562e-04 4.719799e-04 5.012388e-04 5.041701e-04 5.342425e-04 5.297690e-04 5.615799e-04 5.503092e-04 5.847123e-04 5.677214e-04 6.052270e-04 5.838980e-04 6.244580e-04 6.003293e-04 6.432337e-04 6.178764e-04 6.617867e-04 6.366973e-04 6.798089e-04 6.562952e-04 6.965928e-04 6.756423e-04 7.111973e-04 6.933361e-04 7.225923e-04 7.077729e-04 7.297722e-04 7.173366e-04 7.318457e-04 7.206039e-04 7.281192e-04 7.165541e-04 7.181859e-04 7.047606e-04 7.020166e-04 6.855131e-04 6.800173e-04 6.598098e-04 6.529933e-04 6.291654e-04 6.219855e-04 5.952609e-04 5.880183e-04 5.595491e-04 5.518739e-04 5.229825e-04 5.140134e-04 4.859746e-04 4.746805e-04 4.485850e-04 4.341187e-04 4.108096e-04 3.927740e-04 3.728266e-04 3.513784e-04 3.350983e-04 3.108843e-04 2.983178e-04 2.722991e-04 2.632606e-04 2.365046e-04 2.306262e-04 2.041308e-04 2.009278e-04 1.755119e-04 1.744518e-04 1.507124e-04 1.512708e-04 1.295901e-04 1.312850e-04 1.118654e-04 1.142694e-04 
1.013752e-04 1.041903e-04 8.622685e-05 8.910759e-05 7.380637e-05 7.638718e-05 6.363306e-05 6.555380e-05 5.523344e-05 5.613890e-05 4.815585e-05 4.770736e-05 4.198987e-05 3.988841e-05 3.639230e-05 3.240962e-05 3.111769e-05 2.513031e-05 2.604794e-05 1.806732e-05 2.121265e-05 1.140603e-05 1.679277e-05 5.491677e-06 1.310522e-05 8.023856e-07 1.057412e-05 -2.087704e-06 9.703421e-06 -2.538342e-06 1.107263e-05 1.559174e-07 1.537605e-05 6.808994e-06 2.350522e-05 1.841539e-05 3.662957e-05 3.618684e-05 5.618406e-05 6.145769e-05 8.367114e-05 9.539593e-05 1.202604e-04 1.385615e-04 1.662956e-04 1.904711e-04 2.209105e-04 2.493739e-04 2.819440e-04 3.123728e-04 3.462269e-04 3.758871e-04 4.101621e-04 4.363190e-04 4.704179e-04 4.907262e-04 5.245305e-04 5.373179e-04 5.712614e-04 5.756653e-04 6.106458e-04 6.066070e-04 6.437546e-04 6.319042e-04 6.722638e-04 6.537539e-04 6.979553e-04 6.742823e-04 7.222793e-04 6.951323e-04 7.460749e-04 7.172160e-04 7.694884e-04 7.406456e-04 7.920609e-04 7.648009e-04 8.129079e-04 7.884682e-04 8.309101e-04 8.100046e-04 8.448672e-04 8.275178e-04 8.536097e-04 8.390714e-04 8.560890e-04 8.429270e-04 8.514732e-04 8.378150e-04 8.392684e-04 8.232011e-04 8.194626e-04 7.994843e-04 7.926327e-04 7.680180e-04 7.599172e-04 7.308668e-04 7.227833e-04 6.903098e-04 6.826436e-04 6.482633e-04 6.404998e-04 6.058738e-04 5.968072e-04 5.634597e-04 5.516270e-04 5.207934e-04 5.049644e-04 4.775479e-04 4.571000e-04 4.336814e-04 4.087485e-04 3.896095e-04 3.609957e-04 3.461403e-04 3.150781e-04 3.042649e-04 2.721292e-04 2.649239e-04 2.329951e-04 2.288424e-04 1.981615e-04 1.964609e-04 1.677770e-04 1.679439e-04 1.417283e-04 1.432305e-04 1.197259e-04 1.220930e-04 
1.083866e-04 1.119369e-04 9.081818e-05 9.438480e-05 7.628610e-05 7.945646e-05 6.424413e-05 6.660646e-05 5.415858e-05 5.529781e-05 4.551732e-05 4.502874e-05 3.784934e-05 3.536883e-05 3.075668e-05 2.600310e-05 2.395651e-05 1.677836e-05 1.732463e-05 7.741269e-06 1.092751e-05 -8.442469e-07 5.029731e-06 -8.508816e-06 7.079053e-08 -1.461947e-05 -3.383626e-06 -1.844179e-05 -4.697591e-06 -1.920060e-05 -3.197111e-06 -1.610512e-05 1.858174e-06 -8.305458e-06 1.138030e-05 5.217150e-06 2.659150e-05 2.575032e-05 4.907477e-05 5.480271e-05 8.059233e-05 9.379628e-05 1.226192e-04 1.435265e-04 1.757181e-04 2.035932e-04 2.390249e-04 2.720792e-04 3.101055e-04 3.456678e-04 3.852890e-04 4.201949e-04 4.603730e-04 4.914564e-04 5.314645e-04 5.560135e-04 5.956967e-04 6.117733e-04 6.516387e-04 6.582189e-04 6.993276e-04 6.962770e-04 7.399654e-04 7.278988e-04 7.753969e-04 7.554877e-04 8.075236e-04 7.813197e-04 8.378070e-04 8.070876e-04 8.669753e-04 8.336538e-04 8.949781e-04 8.610148e-04 9.211421e-04 8.884178e-04 9.444227e-04 9.145379e-04 9.636421e-04 9.376580e-04 9.776556e-04 9.558464e-04 9.854437e-04 9.671529e-04 9.861602e-04 9.698431e-04 9.791756e-04 9.626685e-04 9.641579e-04 9.451506e-04 9.412034e-04 9.178052e-04 9.109605e-04 8.821795e-04 8.746122e-04 8.405660e-04 8.336133e-04 7.954036e-04 7.892469e-04 7.485918e-04 7.422445e-04 7.010586e-04 6.927183e-04 6.527986e-04 6.404634e-04 6.033269e-04 5.854495e-04 5.522802e-04 5.282234e-04 4.998552e-04 4.700142e-04 4.469126e-04 4.125233e-04 3.947700e-04 3.575347e-04 3.448480e-04 3.065438e-04 2.983508e-04 2.605396e-04 2.560904e-04 2.199703e-04 2.184598e-04 1.848398e-04 1.855034e-04 1.548522e-04 1.570186e-04 1.295460e-04 1.326468e-04 
1.105234e-04 1.141000e-04 8.873243e-05 9.244155e-05 7.063328e-05 7.400356e-05 5.558783e-05 5.813723e-05 4.297324e-05 4.420535e-05 3.219176e-05 3.161406e-05 2.269238e-05 1.985537e-05 1.400840e-05 8.560440e-06 5.809115e-06 -2.443083e-06 -2.044599e-06 -1.308349e-05 -9.458566e-06 -2.302394e-05 -1.609593e-05 -3.168010e-05 -2.140971e-05 -3.827824e-05 -2.471285e-05 -4.194416e-05 -2.526606e-05 -4.179918e-05 -2.234495e-05 -3.701787e-05 -1.523052e-05 -2.678959e-05 -3.078748e-06 -1.016082e-05 1.529848e-05 1.415955e-05 4.158598e-05 4.783790e-05 7.783164e-05 9.260689e-05 1.259110e-04 1.496054e-04 1.867282e-04 2.186227e-04 2.595134e-04 2.976314e-04 3.415851e-04 3.828804e-04 4.287286e-04 4.695540e-04 5.160574e-04 5.527548e-04 5.990405e-04 6.284791e-04 6.743655e-04 6.943044e-04 7.404138e-04 7.496467e-04 7.972759e-04 7.955846e-04 8.463701e-04 8.343555e-04 8.898131e-04 8.686807e-04 9.297268e-04 9.010954e-04 9.676651e-04 9.334357e-04 1.004295e-03 9.665778e-04 1.039381e-03 1.000429e-03 1.072006e-03 1.034078e-03 1.100887e-03 1.065995e-03 1.124646e-03 1.094201e-03 1.141970e-03 1.116430e-03 1.151686e-03 1.130332e-03 1.152786e-03 1.133742e-03 1.144473e-03 1.125037e-03 1.126283e-03 1.103546e-03 1.098311e-03 1.069922e-03 1.061445e-03 1.026258e-03 1.017387e-03 9.757276e-04 9.682688e-04 9.217194e-04 9.159565e-04 8.668071e-04 8.614276e-04 8.120851e-04 8.046247e-04 7.572106e-04 7.448894e-04 7.010812e-04 6.817128e-04 6.427450e-04 6.153756e-04 5.820799e-04 5.471630e-04 5.199796e-04 4.791088e-04 4.580748e-04 4.134652e-04 3.982281e-04 3.521804e-04 3.420722e-04 2.965846e-04 2.907482e-04 2.473267e-04 2.448540e-04 2.044893e-04 2.045286e-04 1.677708e-04 1.695821e-04 1.366539e-04 1.396144e-04 
1.163624e-04 1.207161e-04 9.109741e-05 9.553267e-05 6.989930e-05 7.389711e-05 5.205391e-05 5.506848e-05 3.686479e-05 3.831491e-05 2.365401e-05 2.294481e-05 1.178311e-05 8.357478e-06 7.001575e-07 -5.886672e-06 -9.988721e-06 -1.998526e-05 -2.043757e-05 -3.382296e-05 -3.049533e-05 -4.693632e-05 -3.968560e-05 -5.853330e-05 -4.724752e-05 -6.757119e-05 -5.223479e-05 -7.288426e-05 -5.365301e-05 -7.333775e-05 -5.059114e-05 -6.795205e-05 -4.226533e-05 -5.590126e-05 -2.788423e-05 -3.631481e-05 -6.334809e-06 -7.954919e-06 2.412254e-05 3.096408e-05 6.582148e-05 8.250494e-05 1.210981e-04 1.482146e-04 1.912758e-04 2.281254e-04 2.757096e-04 3.200858e-04 3.714133e-04 4.198137e-04 4.734935e-04 5.216897e-04 5.762117e-04 6.199660e-04 6.742494e-04 7.099499e-04 7.637471e-04 7.888122e-04 8.428459e-04 8.558599e-04 9.116661e-04 9.122925e-04 9.718175e-04 9.605858e-04 1.025633e-03 1.003696e-03 1.075350e-03 1.044290e-03 1.122455e-03 1.084186e-03 1.167361e-03 1.124106e-03 1.209457e-03 1.163737e-03 1.247454e-03 1.201968e-03 1.279814e-03 1.237138e-03 1.305093e-03 1.267219e-03 1.322112e-03 1.289954e-03 1.329989e-03 1.303036e-03 1.328095e-03 1.304357e-03 1.316006e-03 1.292360e-03 1.293552e-03 1.266480e-03 1.261030e-03 1.227586e-03 1.219482e-03 1.178141e-03 1.170748e-03 1.121761e-03 1.116990e-03 1.062116e-03 1.059833e-03 1.001662e-03 9.996683e-04 9.409366e-04 9.356656e-04 8.788344e-04 8.665463e-04 8.136686e-04 7.916656e-04 7.443915e-04 7.117841e-04 6.713495e-04 6.291440e-04 5.962910e-04 5.468905e-04 5.217759e-04 4.682059e-04 4.503906e-04 3.955840e-04 3.841510e-04 3.304944e-04 3.242597e-04 2.734298e-04 2.711648e-04 2.241727e-04 2.247672e-04 1.821034e-04 1.846383e-04 1.464372e-04 1.501802e-04 