# vtk DataFile Version 2.0
Comment goes here
ASCII

DATASET STRUCTURED_POINTS
FIELD FieldData 1
TIME 1 1 double
0.13000000
DIMENSIONS    128   128   1

ORIGIN    0.000   0.000   0.000
SPACING   0.039062 0.039062   1.000

POINT_DATA   16384
SCALARS Omega double
LOOKUP_TABLE default

4.942078e-14 3.913623e-14 3.909292e-14 3.866618e-14 4.040095e-14 5.458207e-14 6.538544e-14 5.563959e-14 5.113672e-14 4.574154e-14 5.162473e-14 4.527877e-14 3.066989e-14 3.451661e-14 4.045226e-14 2.560903e-14 1.123880e-14 -1.792549e-14 -4.554219e-14 -5.950660e-14 -6.584304e-14 -7.019751e-14 -6.499880e-14 -6.461878e-14 -6.738090e-14 -6.646061e-14 -6.800924e-14 -4.859079e-14 -4.660478e-14 -6.452934e-14 -7.446422e-14 -4.094724e-14 -2.526150e-14 -4.959168e-14 -9.077671e-15 -2.970462e-14 -2.523773e-14 -2.160261e-15 -1.353112e-14 1.417225e-14 5.500146e-14 5.351160e-14 9.269312e-14 8.968828e-14 1.216322e-13 2.714217e-14 -1.277171e-14 1.729372e-14 4.404385e-14 9.815221e-14 4.162463e-14 4.554466e-14 1.455162e-14 -9.192250e-15 1.298911e-14 4.679245e-14 2.062536e-15 -1.326584e-14 -1.698398e-14 7.843234e-14 6.041520e-14 -3.251381e-14 -6.219920e-14 -5.492813e-14 -4.369005e-14 -6.518109e-14 -7.291714e-14 -3.563308e-14 -5.296685e-14 -2.219705e-14 -6.309229e-14 -6.474401e-14 -1.958444e-14 -2.820566e-14 -3.488783e-14 -1.975951e-14 -7.105959e-16 1.614184e-14 5.903468e-15 1.832721e-14 -2.198114e-14 -3.982391e-14 -2.531402e-14 -1.453889e-14 -1.579471e-14 2.927998e-14 4.342558e-14 2.229578e-14 3.403026e-14 5.798184e-14 4.770467e-14 1.166058e-13 7.157493e-14 7.544917e-14 7.877739e-14 7.004980e-15 2.056137e-14 4.265672e-14 1.888460e-14 2.058763e-14 -5.725995e-16 4.963205e-14 -2.231019e-14 8.593320e-15 -2.712854e-15 3.591985e-14 1.601228e-14 -1.260723e-14 2.168267e-15 -1.589303e-14 -2.435956e-14 -1.905625e-14 -2.443484e-14 -2.706484e-14 -1.171155e-14 -7.533040e-14 -4.539568e-14 -6.637536e-14 -2.598438e-14 -1.875594e-14 -8.252207e-15 -2.541399e-15 2.443670e-15 3.813279e-14 4.545159e-14 4.456104e-14 5.206337e-14 5.790946e-14 
5.729044e-06 5.534523e-06 5.457418e-06 5.326925e-06 5.363440e-06 5.269932e-06 5.412022e-06 5.334707e-06 5.564484e-06 5.487775e-06 5.780260e-06 5.692726e-06 6.018803e-06 5.912323e-06 6.241740e-06 6.110960e-06 6.415282e-06 6.257384e-06 6.512826e-06 6.327625e-06 6.517693e-06 6.308037e-06 6.425887e-06 6.198334e-06 6.248724e-06 6.014451e-06 6.015131e-06 5.790913e-06 5.773215e-06 5.582210e-06 5.590526e-06 5.462381e-06 5.552114e-06 5.521784e-06 5.755363e-06 5.860037e-06 6.300718e-06 6.574527e-06 7.278177e-06 7.744999e-06 8.750737e-06 9.416253e-06 1.073760e-05 1.158258e-05 1.320123e-05 1.417840e-05 1.604272e-05 1.707901e-05 1.910844e-05 2.011341e-05 2.220853e-05 2.308797e-05 2.514440e-05 2.581639e-05 2.773974e-05 2.814975e-05 2.986815e-05 2.999963e-05 3.147133e-05 3.134939e-05 3.256425e-05 3.225156e-05 3.322654e-05 3.281266e-05 3.358319e-05 3.316947e-05 3.377886e-05 3.346216e-05 3.395173e-05 3.380966e-05 3.421128e-05 3.429136e-05 3.462357e-05 3.493724e-05 3.520510e-05 3.572686e-05 3.592499e-05 3.659591e-05 3.671364e-05 3.744819e-05 3.747591e-05 3.817100e-05 3.810640e-05 3.865153e-05 3.850475e-05 3.879245e-05 3.858911e-05 3.852470e-05 3.830592e-05 3.781603e-05 3.763475e-05 3.667368e-05 3.658739e-05 3.514099e-05 3.520178e-05 3.328852e-05 3.353224e-05 3.120169e-05 3.163896e-05 2.896783e-05 2.957923e-05 2.666555e-05 2.740279e-05 2.435847e-05 2.515158e-05 2.209366e-05 2.286271e-05 1.990396e-05 2.057266e-05 1.781231e-05 1.832035e-05 1.583627e-05 1.614792e-05 1.399146e-05 1.409905e-05 1.229333e-05 1.221561e-05 1.075737e-05 1.053380e-05 9.398266e-06 9.081041e-06 8.228477e-06 7.874044e-06 7.256728e-06 6.918233e-06 6.486635e-06 6.208239e-06 5.915669e-06 
1.402867e-05 1.344869e-05 1.306335e-05 1.261669e-05 1.247806e-05 1.211972e-05 1.221882e-05 1.191231e-05 1.221598e-05 1.193199e-05 1.238958e-05 1.210481e-05 1.265530e-05 1.235165e-05 1.293068e-05 1.259496e-05 1.314155e-05 1.276558e-05 1.322832e-05 1.280945e-05 1.315213e-05 1.269420e-05 1.290060e-05 1.241535e-05 1.249316e-05 1.200203e-05 1.198559e-05 1.152162e-05 1.147304e-05 1.108243e-05 1.109054e-05 1.083287e-05 1.100915e-05 1.095504e-05 1.142562e-05 1.165054e-05 1.254380e-05 1.311732e-05 1.454725e-05 1.551838e-05 1.756557e-05 1.894649e-05 2.164003e-05 2.339227e-05 2.669690e-05 2.872479e-05 3.253764e-05 3.469277e-05 3.885212e-05 4.095045e-05 4.525600e-05 4.710540e-05 5.134650e-05 5.277947e-05 5.676521e-05 5.766956e-05 6.125414e-05 6.159456e-05 6.469264e-05 6.451808e-05 6.710751e-05 6.654304e-05 6.865576e-05 6.788083e-05 6.958518e-05 6.880322e-05 7.018265e-05 6.958810e-05 7.072109e-05 7.046973e-05 7.141482e-05 7.160178e-05 7.238983e-05 7.303747e-05 7.367137e-05 7.472733e-05 7.518821e-05 7.653218e-05 7.679009e-05 7.824734e-05 7.827440e-05 7.963381e-05 7.941776e-05 8.045269e-05 8.000881e-05 8.049897e-05 7.987821e-05 7.963107e-05 7.892241e-05 7.779225e-05 7.711729e-05 7.502010e-05 7.451922e-05 7.144153e-05 7.125256e-05 6.725311e-05 6.748594e-05 6.268987e-05 6.340229e-05 5.798871e-05 5.916964e-05 5.335436e-05 5.491953e-05 4.893494e-05 5.073729e-05 4.481176e-05 4.666487e-05 4.100380e-05 4.271335e-05 3.748406e-05 3.888014e-05 3.420198e-05 3.516530e-05 3.110606e-05 3.158291e-05 2.816134e-05 2.816559e-05 2.535894e-05 2.496235e-05 2.271709e-05 2.203163e-05 2.027514e-05 1.943205e-05 1.808346e-05 1.721318e-05 1.619200e-05 1.540813e-05 1.464005e-05 
1.698192e-05 1.637127e-05 1.611312e-05 1.569489e-05 1.578856e-05 1.548204e-05 1.590207e-05 1.564582e-05 1.633695e-05 1.608529e-05 1.697089e-05 1.669052e-05 1.768156e-05 1.734889e-05 1.835300e-05 1.795252e-05 1.888287e-05 1.840645e-05 1.919034e-05 1.863756e-05 1.922438e-05 1.860369e-05 1.897204e-05 1.830277e-05 1.846636e-05 1.778138e-05 1.779324e-05 1.714196e-05 1.709625e-05 1.654718e-05 1.657778e-05 1.621917e-05 1.649377e-05 1.643054e-05 1.713888e-05 1.748379e-05 1.881909e-05 1.967693e-05 2.181101e-05 2.325654e-05 2.631105e-05 2.836434e-05 3.238318e-05 3.498836e-05 3.991816e-05 4.293296e-05 4.861798e-05 5.182027e-05 5.801562e-05 6.112905e-05 6.753163e-05 7.026734e-05 7.655867e-05 7.866503e-05 8.455700e-05 8.586619e-05 9.113948e-05 9.160008e-05 9.612731e-05 9.581550e-05 9.956533e-05 9.867219e-05 1.016954e-04 1.004938e-04 1.028966e-04 1.016948e-04 1.036067e-04 1.026983e-04 1.042422e-04 1.038615e-04 1.051313e-04 1.054204e-04 1.064694e-04 1.074607e-04 1.083024e-04 1.099164e-04 1.105329e-04 1.125899e-04 1.129485e-04 1.151888e-04 1.152608e-04 1.173725e-04 1.171518e-04 1.188008e-04 1.183201e-04 1.191811e-04 1.185207e-04 1.183064e-04 1.175950e-04 1.160814e-04 1.154848e-04 1.125307e-04 1.122298e-04 1.077887e-04 1.079482e-04 1.020727e-04 1.028070e-04 9.564464e-05 9.698848e-05 8.877120e-05 9.066417e-05 8.169115e-05 8.398072e-05 7.459639e-05 7.706081e-05 6.762807e-05 7.001413e-05 6.088468e-05 6.295132e-05 5.443589e-05 5.599377e-05 4.833646e-05 4.927512e-05 4.263623e-05 4.293449e-05 3.738470e-05 3.710453e-05 3.263102e-05 3.189876e-05 2.842103e-05 2.740159e-05 2.479293e-05 2.366293e-05 2.177293e-05 2.069728e-05 1.937146e-05 1.848609e-05 1.758039e-05 
2.770115e-05 2.646886e-05 2.562639e-05 2.466618e-05 2.434483e-05 2.356726e-05 2.374560e-05 2.307891e-05 2.368632e-05 2.307316e-05 2.400383e-05 2.339864e-05 2.452614e-05 2.389350e-05 2.508506e-05 2.439906e-05 2.552911e-05 2.477363e-05 2.573627e-05 2.490602e-05 2.562635e-05 2.472870e-05 2.517248e-05 2.423019e-05 2.441168e-05 2.346628e-05 2.345376e-05 2.256949e-05 2.248757e-05 2.175486e-05 2.178266e-05 2.131929e-05 2.168274e-05 2.163007e-05 2.258646e-05 2.309787e-05 2.491106e-05 2.613065e-05 2.903736e-05 3.106972e-05 3.523998e-05 3.811582e-05 4.361478e-05 4.726097e-05 5.402128e-05 5.824573e-05 6.605985e-05 7.055973e-05 7.909760e-05 8.349436e-05 9.234542e-05 9.624207e-05 1.049739e-04 1.080234e-04 1.162442e-04 1.182137e-04 1.256245e-04 1.264397e-04 1.328656e-04 1.326266e-04 1.380219e-04 1.369852e-04 1.414138e-04 1.399469e-04 1.435459e-04 1.420643e-04 1.449998e-04 1.438986e-04 1.463254e-04 1.459191e-04 1.479507e-04 1.484283e-04 1.501219e-04 1.515242e-04 1.528813e-04 1.550976e-04 1.560767e-04 1.588601e-04 1.593989e-04 1.623935e-04 1.624351e-04 1.652128e-04 1.647331e-04 1.668345e-04 1.658661e-04 1.668438e-04 1.654939e-04 1.649546e-04 1.634104e-04 1.610538e-04 1.595724e-04 1.552218e-04 1.541026e-04 1.477243e-04 1.472643e-04 1.389725e-04 1.394110e-04 1.294583e-04 1.309237e-04 1.196765e-04 1.221480e-04 1.100521e-04 1.133489e-04 1.008886e-04 1.046921e-04 9.234662e-05 9.625203e-05 8.445519e-05 8.804170e-05 7.714830e-05 8.005052e-05 7.031387e-05 7.227915e-05 6.384210e-05 6.476209e-05 5.766192e-05 5.757490e-05 5.175966e-05 5.082724e-05 4.617953e-05 4.464662e-05 4.100963e-05 3.915836e-05 3.635971e-05 3.446662e-05 3.233703e-05 3.063972e-05 2.902516e-05 
2.758528e-05 2.647417e-05 2.595364e-05 2.516393e-05 2.526678e-05 2.466566e-05 2.534467e-05 2.483313e-05 2.599067e-05 2.549629e-05 2.699894e-05 2.646951e-05 2.816324e-05 2.756203e-05 2.928747e-05 2.859043e-05 3.019786e-05 2.939262e-05 3.075642e-05 2.984285e-05 3.087500e-05 2.986713e-05 3.052927e-05 2.945834e-05 2.977167e-05 2.869046e-05 2.874275e-05 2.773058e-05 2.767936e-05 2.684692e-05 2.691755e-05 2.640924e-05 2.688586e-05 2.687629e-05 2.808305e-05 2.876383e-05 3.103440e-05 3.258819e-05 3.622337e-05 3.878584e-05 4.400326e-05 4.761878e-05 5.450355e-05 5.908570e-05 6.755441e-05 7.286523e-05 8.265545e-05 8.831477e-05 9.900743e-05 1.045370e-04 1.156102e-04 1.205072e-04 1.314115e-04 1.352360e-04 1.454744e-04 1.479318e-04 1.571263e-04 1.581249e-04 1.660557e-04 1.657256e-04 1.723377e-04 1.710078e-04 1.763855e-04 1.745251e-04 1.788450e-04 1.769823e-04 1.804587e-04 1.790934e-04 1.819268e-04 1.814539e-04 1.837942e-04 1.844485e-04 1.863777e-04 1.882057e-04 1.897390e-04 1.925985e-04 1.937013e-04 1.972816e-04 1.978970e-04 2.017557e-04 2.018362e-04 2.054446e-04 2.049836e-04 2.077767e-04 2.068356e-04 2.082624e-04 2.069871e-04 2.065580e-04 2.051804e-04 2.025089e-04 2.013298e-04 1.961660e-04 1.955158e-04 1.877684e-04 1.879518e-04 1.776973e-04 1.789294e-04 1.664092e-04 1.687593e-04 1.543647e-04 1.577247e-04 1.419712e-04 1.460598e-04 1.295513e-04 1.339569e-04 1.173392e-04 1.215917e-04 1.054986e-04 1.091531e-04 9.414880e-05 9.686054e-05 8.338929e-05 8.496328e-05 7.331443e-05 7.372274e-05 6.401856e-05 6.338560e-05 5.559331e-05 5.415797e-05 4.812115e-05 4.618742e-05 4.166807e-05 3.955547e-05 3.627730e-05 3.427915e-05 3.196427e-05 3.031837e-05 2.871306e-05 
4.058676e-05 3.855024e-05 3.710498e-05 3.549018e-05 3.489746e-05 3.357204e-05 3.379003e-05 3.264948e-05 3.356086e-05 3.252235e-05 3.395678e-05 3.295454e-05 3.471127e-05 3.369398e-05 3.556366e-05 3.449363e-05 3.627889e-05 3.513265e-05 3.666709e-05 3.543704e-05 3.660237e-05 3.529933e-05 3.604007e-05 3.469679e-05 3.503202e-05 3.370790e-05 3.373936e-05 3.252622e-05 3.244191e-05 3.146998e-05 3.154200e-05 3.098355e-05 3.155777e-05 3.162418e-05 3.309858e-05 3.402547e-05 3.681372e-05 3.882983e-05 4.330953e-05 4.658933e-05 5.303906e-05 5.764625e-05 6.618267e-05 7.201866e-05 8.254962e-05 8.932525e-05 1.015350e-04 1.087807e-04 1.221567e-04 1.292770e-04 1.431772e-04 1.495429e-04 1.632895e-04 1.683482e-04 1.813274e-04 1.847068e-04 1.964512e-04 1.980311e-04 2.082680e-04 2.082037e-04 2.168611e-04 2.155543e-04 2.227283e-04 2.207533e-04 2.266499e-04 2.246520e-04 2.295183e-04 2.281063e-04 2.321679e-04 2.318196e-04 2.352367e-04 2.362320e-04 2.390786e-04 2.414669e-04 2.437338e-04 2.473332e-04 2.489493e-04 2.533727e-04 2.542389e-04 2.589372e-04 2.589657e-04 2.632826e-04 2.624382e-04 2.656700e-04 2.640074e-04 2.654665e-04 2.631584e-04 2.622350e-04 2.595848e-04 2.558051e-04 2.532344e-04 2.463098e-04 2.443167e-04 2.341776e-04 2.332643e-04 2.200723e-04 2.206520e-04 2.047897e-04 2.070911e-04 1.891282e-04 1.931256e-04 1.737672e-04 1.791567e-04 1.591798e-04 1.654167e-04 1.456004e-04 1.519903e-04 1.330472e-04 1.388711e-04 1.213883e-04 1.260293e-04 1.104268e-04 1.134694e-04 9.998132e-05 1.012627e-04 8.994404e-05 8.955245e-05 8.030726e-05 7.853533e-05 7.115915e-05 6.843099e-05 6.265709e-05 5.944790e-05 5.498918e-05 5.175401e-05 4.833467e-05 4.545578e-05 4.283081e-05 
3.699326e-05 3.523007e-05 3.430914e-05 3.299614e-05 3.302699e-05 3.198289e-05 3.288830e-05 3.198228e-05 3.361332e-05 3.275218e-05 3.490973e-05 3.402734e-05 3.648379e-05 3.553397e-05 3.805482e-05 3.700764e-05 3.937277e-05 3.821355e-05 4.023795e-05 3.896825e-05 4.052144e-05 3.916158e-05 4.018490e-05 3.877765e-05 3.929813e-05 3.791394e-05 3.805390e-05 3.679763e-05 3.677915e-05 3.579772e-05 3.594056e-05 3.542883e-05 3.613954e-05 3.633955e-05 3.808772e-05 3.927416e-05 4.255121e-05 4.499691e-05 5.025549e-05 5.417559e-05 6.175405e-05 6.723673e-05 7.728194e-05 8.422339e-05 9.663205e-05 1.046988e-04 1.190978e-04 1.277363e-04 1.435145e-04 1.520158e-04 1.684051e-04 1.760165e-04 1.922061e-04 1.982654e-04 2.135222e-04 2.175837e-04 2.313513e-04 2.332728e-04 2.452284e-04 2.451991e-04 2.552596e-04 2.537640e-04 2.620463e-04 2.597737e-04 2.665245e-04 2.642456e-04 2.697597e-04 2.681968e-04 2.727444e-04 2.724583e-04 2.762342e-04 2.775471e-04 2.806489e-04 2.836086e-04 2.860425e-04 2.904261e-04 2.921334e-04 2.974823e-04 2.983791e-04 3.040529e-04 3.040744e-04 3.093160e-04 3.084610e-04 3.124641e-04 3.108335e-04 3.128094e-04 3.106320e-04 3.098737e-04 3.075118e-04 3.034506e-04 3.013779e-04 2.936313e-04 2.923763e-04 2.807833e-04 2.808428e-04 2.654834e-04 2.672174e-04 2.484152e-04 2.519498e-04 2.302593e-04 2.354280e-04 2.116050e-04 2.179515e-04 1.929064e-04 1.997555e-04 1.744858e-04 1.810666e-04 1.565698e-04 1.621590e-04 1.393343e-04 1.433825e-04 1.229398e-04 1.251524e-04 1.075484e-04 1.079070e-04 9.332190e-05 9.205243e-05 8.041176e-05 7.791529e-05 6.894647e-05 6.571509e-05 5.902187e-05 5.555842e-05 5.069513e-05 4.744959e-05 4.398135e-05 4.130919e-05 3.885133e-05 
5.210436e-05 4.901618e-05 4.674532e-05 4.424523e-05 4.324738e-05 4.116305e-05 4.136160e-05 3.955997e-05 4.077551e-05 3.915208e-05 4.113483e-05 3.960636e-05 4.206750e-05 4.056853e-05 4.320980e-05 4.169206e-05 4.423356e-05 4.266741e-05 4.487348e-05 4.325035e-05 4.495297e-05 4.328830e-05 4.440708e-05 4.274381e-05 4.330141e-05 4.171480e-05 4.184705e-05 4.045152e-05 4.041171e-05 3.936968e-05 3.952636e-05 3.905669e-05 3.988241e-05 4.026243e-05 4.230861e-05 4.386053e-05 4.771184e-05 5.076439e-05 5.696836e-05 6.179037e-05 7.076640e-05 7.748103e-05 8.942466e-05 9.792636e-05 1.127345e-04 1.226385e-04 1.398821e-04 1.505328e-04 1.694935e-04 1.800413e-04 1.998096e-04 2.093467e-04 2.289602e-04 2.366847e-04 2.552731e-04 2.606423e-04 2.775460e-04 2.803814e-04 2.952172e-04 2.957372e-04 3.084030e-04 3.071777e-04 3.178028e-04 3.156437e-04 3.245027e-04 3.223145e-04 3.297305e-04 3.283549e-04 3.346142e-04 3.346980e-04 3.399921e-04 3.418979e-04 3.463009e-04 3.500684e-04 3.535457e-04 3.588994e-04 3.613403e-04 3.677311e-04 3.689944e-04 3.756617e-04 3.756279e-04 3.816724e-04 3.802970e-04 3.847570e-04 3.821223e-04 3.840523e-04 3.804098e-04 3.789597e-04 3.747544e-04 3.692468e-04 3.651091e-04 3.551104e-04 3.518021e-04 3.371770e-04 3.354865e-04 3.164262e-04 3.170208e-04 2.940376e-04 2.973045e-04 2.711932e-04 2.771135e-04 2.488841e-04 2.569861e-04 2.277755e-04 2.371908e-04 2.081606e-04 2.177769e-04 1.900072e-04 1.986790e-04 1.730695e-04 1.798310e-04 1.570268e-04 1.612526e-04 1.416078e-04 1.430879e-04 1.266729e-04 1.255959e-04 1.122434e-04 1.091091e-04 9.848541e-05 9.397798e-05 8.566085e-05 8.051901e-05 7.406659e-05 6.897506e-05 6.397557e-05 5.949113e-05 5.559075e-05 
4.449178e-05 4.183847e-05 4.031964e-05 3.824274e-05 3.808564e-05 3.636266e-05 3.744636e-05 3.592428e-05 3.803486e-05 3.660849e-05 3.946813e-05 3.806418e-05 4.135946e-05 3.992700e-05 4.333679e-05 4.184331e-05 4.506667e-05 4.349805e-05 4.628180e-05 4.464438e-05 4.680942e-05 4.513287e-05 4.659718e-05 4.493781e-05 4.573423e-05 4.417942e-05 4.446684e-05 4.314197e-05 4.320978e-05 4.228849e-05 4.255432e-05 4.227054e-05 4.326942e-05 4.392469e-05 4.628424e-05 4.823862e-05 5.263111e-05 5.626453e-05 6.332863e-05 6.896574e-05 7.920038e-05 8.700768e-05 1.006565e-04 1.105384e-04 1.274968e-04 1.390287e-04 1.588081e-04 1.712407e-04 1.930095e-04 2.053575e-04 2.280577e-04 2.392608e-04 2.617722e-04 2.708906e-04 2.922023e-04 2.985995e-04 3.179476e-04 3.214152e-04 3.383581e-04 3.391532e-04 3.535747e-04 3.523651e-04 3.644140e-04 3.621465e-04 3.721365e-04 3.698598e-04 3.781582e-04 3.768397e-04 3.837711e-04 3.841432e-04 3.899270e-04 3.923872e-04 3.971157e-04 4.016880e-04 4.053417e-04 4.116936e-04 4.141802e-04 4.216779e-04 4.228847e-04 4.306694e-04 4.305190e-04 4.375908e-04 4.360969e-04 4.413975e-04 4.387152e-04 4.412068e-04 4.376714e-04 4.364106e-04 4.325526e-04 4.267598e-04 4.232832e-04 4.124057e-04 4.101149e-04 3.938801e-04 3.935526e-04 3.720055e-04 3.742262e-04 3.477467e-04 3.527430e-04 3.220444e-04 3.295778e-04 2.956855e-04 3.050465e-04 2.692481e-04 2.793698e-04 2.431259e-04 2.527903e-04 2.176007e-04 2.256793e-04 1.929191e-04 1.985794e-04 1.693390e-04 1.721681e-04 1.471363e-04 1.471614e-04 1.265840e-04 1.242047e-04 1.079237e-04 1.037886e-04 9.134273e-05 8.621177e-05 7.696536e-05 7.158654e-05 6.485251e-05 5.987224e-05 5.500585e-05 5.091656e-05 4.737103e-05 
6.144558e-05 5.693571e-05 5.353650e-05 4.980445e-05 4.822282e-05 4.506161e-05 4.516231e-05 4.241641e-05 4.393462e-05 4.148257e-05 4.406787e-05 4.181169e-05 4.506836e-05 4.292965e-05 4.645388e-05 4.437470e-05 4.778979e-05 4.573616e-05 4.872594e-05 4.669173e-05 4.903134e-05 4.704126e-05 4.862298e-05 4.673442e-05 4.758641e-05 4.589171e-05 4.618840e-05 4.482004e-05 4.488489e-05 4.402624e-05 4.432839e-05 4.422954e-05 4.537384e-05 4.636554e-05 4.906954e-05 5.156052e-05 5.660583e-05 6.104429e-05 6.918978e-05 7.597710e-05 8.783358e-05 9.719821e-05 1.130859e-04 1.249508e-04 1.447806e-04 1.586737e-04 1.818976e-04 1.969501e-04 2.226079e-04 2.376586e-04 2.645173e-04 2.783066e-04 3.050582e-04 3.164652e-04 3.419319e-04 3.501942e-04 3.734896e-04 3.783517e-04 3.989660e-04 4.007220e-04 4.185195e-04 4.179443e-04 4.330883e-04 4.312781e-04 4.441099e-04 4.422717e-04 4.531804e-04 4.524158e-04 4.617282e-04 4.628573e-04 4.707700e-04 4.742197e-04 4.807800e-04 4.865475e-04 4.916746e-04 4.993537e-04 5.028853e-04 5.117329e-04 5.134832e-04 5.225041e-04 5.223242e-04 5.303608e-04 5.282017e-04 5.340217e-04 5.299993e-04 5.323817e-04 5.268389e-04 5.246635e-04 5.182167e-04 5.105584e-04 5.041060e-04 4.903322e-04 4.849978e-04 4.648558e-04 4.618454e-04 4.355191e-04 4.358940e-04 4.040158e-04 4.084276e-04 3.720411e-04 3.805080e-04 3.409897e-04 3.528006e-04 3.117471e-04 3.255446e-04 2.846315e-04 2.986655e-04 2.594855e-04 2.719681e-04 2.358690e-04 2.453273e-04 2.132800e-04 2.188113e-04 1.913386e-04 1.927115e-04 1.698929e-04 1.674939e-04 1.490416e-04 1.437092e-04 1.290873e-04 1.218977e-04 1.104528e-04 1.025156e-04 9.358710e-05 8.588821e-05 7.888352e-05 7.219041e-05 6.662179e-05 
4.913807e-05 4.523749e-05 4.286188e-05 3.965734e-05 3.915967e-05 3.640117e-05 3.759559e-05 3.512250e-05 3.771072e-05 3.541759e-05 3.902577e-05 3.683973e-05 4.105276e-05 3.892243e-05 4.331759e-05 4.121087e-05 4.539263e-05 4.329964e-05 4.693566e-05 4.487335e-05 4.772941e-05 4.574492e-05 4.771518e-05 4.588686e-05 4.701525e-05 4.545263e-05 4.594315e-05 4.478971e-05 4.500694e-05 4.445039e-05 4.491430e-05 4.520668e-05 4.658373e-05 4.806549e-05 5.115028e-05 5.426011e-05 5.993074e-05 6.517435e-05 7.430163e-05 8.215870e-05 9.546316e-05 1.062374e-04 1.241176e-04 1.377702e-04 1.601543e-04 1.761849e-04 2.024640e-04 2.198979e-04 2.489777e-04 2.664841e-04 2.969494e-04 3.130705e-04 3.434189e-04 3.568513e-04 3.857332e-04 3.955883e-04 4.219920e-04 4.279707e-04 4.513166e-04 4.537581e-04 4.738909e-04 4.736894e-04 4.907883e-04 4.892040e-04 5.036438e-04 5.020544e-04 5.142581e-04 5.139075e-04 5.242261e-04 5.260205e-04 5.346632e-04 5.390499e-04 5.460708e-04 5.530070e-04 5.583368e-04 5.673326e-04 5.708360e-04 5.810423e-04 5.825811e-04 5.928941e-04 5.923896e-04 6.015537e-04 5.990494e-04 6.057493e-04 6.014727e-04 6.044153e-04 5.988350e-04 5.968227e-04 5.906841e-04 5.826894e-04 5.770056e-04 5.622497e-04 5.582188e-04 5.362504e-04 5.350782e-04 5.058393e-04 5.084784e-04 4.723499e-04 4.792166e-04 4.370451e-04 4.478158e-04 4.009206e-04 4.145035e-04 3.646443e-04 3.793626e-04 3.286352e-04 3.425756e-04 2.932118e-04 3.046304e-04 2.587221e-04 2.663830e-04 2.255962e-04 2.289547e-04 1.943177e-04 1.935232e-04 1.653523e-04 1.611070e-04 1.390804e-04 1.324222e-04 1.157622e-04 1.078412e-04 9.553687e-05 8.743352e-05 7.844271e-05 7.104919e-05 6.443969e-05 5.840299e-05 5.342485e-05 
6.750338e-05 6.103594e-05 5.612646e-05 5.065890e-05 4.827197e-05 4.357148e-05 4.347575e-05 3.937232e-05 4.118451e-05 3.754422e-05 4.078530e-05 3.749632e-05 4.163971e-05 3.860950e-05 4.312476e-05 4.028489e-05 4.468029e-05 4.199454e-05 4.585955e-05 4.333113e-05 4.637694e-05 4.405142e-05 4.614472e-05 4.410779e-05 4.529244e-05 4.366444e-05 4.416850e-05 4.310137e-05 4.333194e-05 4.301678e-05 4.355028e-05 4.424134e-05 4.581568e-05 4.786685e-05 5.137054e-05 5.526204e-05 6.169784e-05 6.801561e-05 7.840710e-05 8.774123e-05 1.029670e-04 1.157289e-04 1.363098e-04 1.525179e-04 1.784248e-04 1.975438e-04 2.281055e-04 2.490189e-04 2.829787e-04 3.041270e-04 3.398422e-04 3.595006e-04 3.952264e-04 4.118468e-04 4.460229e-04 4.585476e-04 4.900150e-04 4.980836e-04 5.261864e-04 5.301888e-04 5.547557e-04 5.557272e-04 5.769571e-04 5.763492e-04 5.946440e-04 5.940283e-04 6.098222e-04 6.105957e-04 6.242201e-04 6.273737e-04 6.389856e-04 6.449744e-04 6.545518e-04 6.632735e-04 6.706605e-04 6.815192e-04 6.864927e-04 6.985043e-04 7.008398e-04 7.127478e-04 7.122796e-04 7.226580e-04 7.193423e-04 7.266853e-04 7.206763e-04 7.234779e-04 7.152159e-04 7.120538e-04 7.023518e-04 6.919915e-04 6.820864e-04 6.636117e-04 6.551286e-04 6.280812e-04 6.228532e-04 5.873410e-04 5.870649e-04 5.438078e-04 5.495961e-04 4.999025e-04 5.118779e-04 4.575642e-04 4.746641e-04 4.179261e-04 4.380246e-04 3.812528e-04 4.015882e-04 3.471258e-04 3.649061e-04 3.147785e-04 3.277725e-04 2.834484e-04 2.903888e-04 2.526404e-04 2.533470e-04 2.222479e-04 2.174869e-04 1.925397e-04 1.837130e-04 1.640552e-04 1.528389e-04 1.374616e-04 1.254912e-04 1.134159e-04 1.020700e-04 9.245893e-05 8.275026e-05 7.494939e-05 
4.971892e-05 4.404099e-05 4.048937e-05 3.561632e-05 3.458648e-05 3.026445e-05 3.147444e-05 2.755592e-05 3.059752e-05 2.699025e-05 3.137226e-05 2.800987e-05 3.319613e-05 3.002793e-05 3.547530e-05 3.246970e-05 3.767021e-05 3.482493e-05 3.935278e-05 3.670525e-05 4.026480e-05 3.789695e-05 4.036398e-05 3.839844e-05 3.984556e-05 3.843465e-05 3.913578e-05 3.845026e-05 3.886744e-05 3.909756e-05 3.986290e-05 4.124441e-05 4.315145e-05 4.601801e-05 5.002234e-05 5.485969e-05 6.206053e-05 6.951080e-05 8.106587e-05 9.182782e-05 1.087698e-04 1.233835e-04 1.463627e-04 1.649377e-04 1.939773e-04 2.159769e-04 2.503478e-04 2.745361e-04 3.128179e-04 3.374156e-04 3.777326e-04 4.007460e-04 4.411048e-04 4.607334e-04 4.993584e-04 5.143672e-04 5.499460e-04 5.599089e-04 5.917012e-04 5.970607e-04 6.248681e-04 6.268094e-04 6.508386e-04 6.510188e-04 6.716913e-04 6.718912e-04 6.896538e-04 6.914338e-04 7.066146e-04 7.110489e-04 7.237886e-04 7.313258e-04 7.415877e-04 7.520440e-04 7.596777e-04 7.723298e-04 7.771516e-04 7.908764e-04 7.927391e-04 8.061552e-04 8.050043e-04 8.165933e-04 8.125256e-04 8.207254e-04 8.140603e-04 8.173326e-04 8.086961e-04 8.055810e-04 7.959806e-04 7.851600e-04 7.760175e-04 7.564069e-04 7.494893e-04 7.203539e-04 7.175400e-04 6.786057e-04 6.814736e-04 6.330157e-04 6.423438e-04 5.852641e-04 6.006398e-04 5.365436e-04 5.562778e-04 4.875111e-04 5.089395e-04 4.384953e-04 4.585844e-04 3.898084e-04 4.058536e-04 3.419695e-04 3.521546e-04 2.957420e-04 2.994021e-04 2.520045e-04 2.495690e-04 2.115635e-04 2.042672e-04 1.750133e-04 1.645125e-04 1.426897e-04 1.307057e-04 1.147035e-04 1.027638e-04 9.101007e-05 8.030494e-05 7.147190e-05 6.280858e-05 5.589541e-05 
6.882241e-05 5.962851e-05 5.275662e-05 4.483122e-05 4.137945e-05 3.447740e-05 3.406253e-05 2.800816e-05 3.008430e-05 2.473290e-05 2.865811e-05 2.387951e-05 2.896800e-05 2.464806e-05 3.021717e-05 2.627115e-05 3.169074e-05 2.808110e-05 3.282817e-05 2.957895e-05 3.329362e-05 3.049489e-05 3.302768e-05 3.082620e-05 3.226423e-05 3.084191e-05 3.150626e-05 3.105536e-05 3.147363e-05 3.218634e-05 3.306004e-05 3.515371e-05 3.734606e-05 4.113375e-05 4.568574e-05 5.166636e-05 5.980605e-05 6.870376e-05 8.177716e-05 9.444614e-05 1.137115e-04 1.308756e-04 1.571816e-04 1.790809e-04 2.125438e-04 2.386393e-04 2.784673e-04 3.073546e-04 3.519127e-04 3.815044e-04 4.286069e-04 4.565370e-04 5.038637e-04 5.279886e-04 5.734902e-04 5.923406e-04 6.345254e-04 6.475940e-04 6.856409e-04 6.934446e-04 7.271487e-04 7.310674e-04 7.606647e-04 7.626099e-04 7.885479e-04 7.905461e-04 8.132636e-04 8.170526e-04 8.368214e-04 8.435483e-04 8.604104e-04 8.704893e-04 8.842872e-04 8.974190e-04 9.078850e-04 9.231896e-04 9.300395e-04 9.462260e-04 9.492240e-04 9.647449e-04 9.637424e-04 9.769073e-04 9.718873e-04 9.809379e-04 9.720935e-04 9.752518e-04 9.631082e-04 9.586254e-04 9.441943e-04 9.304446e-04 9.153686e-04 8.910211e-04 8.776165e-04 8.418610e-04 8.329235e-04 7.856701e-04 7.839536e-04 7.259346e-04 7.333783e-04 6.661505e-04 6.831263e-04 6.090126e-04 6.339288e-04 5.559047e-04 5.853861e-04 5.068629e-04 5.364912e-04 4.609568e-04 4.863272e-04 4.168819e-04 4.346100e-04 3.735212e-04 3.818789e-04 3.303033e-04 3.293362e-04 2.873032e-04 2.784970e-04 2.451354e-04 2.308339e-04 2.047384e-04 1.875377e-04 1.671414e-04 1.494163e-04 1.332730e-04 1.168976e-04 1.038359e-04 9.008472e-05 7.924715e-05 
4.475346e-05 3.650800e-05 3.140782e-05 2.406530e-05 2.226891e-05 1.560935e-05 1.669566e-05 1.061113e-05 1.403067e-05 8.453936e-06 1.357420e-05 8.444785e-06 1.458672e-05 9.846887e-06 1.632361e-05 1.193454e-05 1.810109e-05 1.406809e-05 1.938466e-05 1.577996e-05 1.988192e-05 1.685434e-05 1.961388e-05 1.737811e-05 1.893786e-05 1.774260e-05 1.850716e-05 1.859168e-05 1.918011e-05 2.074277e-05 2.193052e-05 2.514439e-05 2.783886e-05 3.294091e-05 3.821624e-05 4.564983e-05 5.480276e-05 6.532075e-05 7.984273e-05 9.444179e-05 1.158063e-04 1.354265e-04 1.646984e-04 1.897697e-04 2.271847e-04 2.572260e-04 3.019488e-04 3.354264e-04 3.856150e-04 4.201473e-04 4.733058e-04 5.061482e-04 5.596275e-04 5.882744e-04 6.397490e-04 6.624737e-04 7.102632e-04 7.264563e-04 7.696384e-04 7.798780e-04 8.182097e-04 8.240690e-04 8.577778e-04 8.614338e-04 8.909593e-04 8.947030e-04 9.204561e-04 9.262179e-04 9.484176e-04 9.574186e-04 9.760399e-04 9.886408e-04 1.003475e-03 1.019226e-03 1.030002e-03 1.047826e-03 1.054321e-03 1.072736e-03 1.074839e-03 1.092147e-03 1.089880e-03 1.104304e-03 1.097855e-03 1.107626e-03 1.097422e-03 1.100802e-03 1.087635e-03 1.082920e-03 1.068089e-03 1.053627e-03 1.039073e-03 1.013364e-03 1.001677e-03 9.635508e-04 9.576933e-04 9.064831e-04 9.091343e-04 8.448143e-04 8.574593e-04 7.807942e-04 8.029543e-04 7.157279e-04 7.447456e-04 6.499915e-04 6.815490e-04 5.835536e-04 6.127574e-04 5.166327e-04 5.392471e-04 4.500871e-04 4.634671e-04 3.853618e-04 3.888097e-04 3.241050e-04 3.186509e-04 2.677285e-04 2.555445e-04 2.171390e-04 2.008642e-04 1.727077e-04 1.548913e-04 1.344046e-04 1.171576e-04 1.019772e-04 8.682611e-05 7.508872e-05 6.297632e-05 5.338587e-05 
6.360517e-05 5.057966e-05 4.124643e-05 2.983065e-05 2.502420e-05 1.497861e-05 1.408527e-05 5.234597e-06 7.491188e-06 -3.268578e-07 4.236865e-06 -2.713697e-06 3.281657e-06 -2.957737e-06 3.604144e-06 -2.041997e-06 4.286374e-06 -8.098751e-07 4.622476e-06 1.371484e-07 4.231949e-06 5.336526e-07 3.145008e-06 5.071214e-07 1.823644e-06 5.684237e-07 1.094191e-06 1.523552e-06 2.001129e-06 4.335048e-06 5.648131e-06 1.002095e-05 1.314614e-05 1.971165e-05 2.577319e-05 3.491226e-05 4.530363e-05 5.781620e-05 7.423775e-05 9.132418e-05 1.155672e-04 1.384751e-04 1.719313e-04 2.013587e-04 2.444532e-04 2.799935e-04 3.318381e-04 3.717616e-04 4.302194e-04 4.717157e-04 5.338475e-04 5.736336e-04 6.363313e-04 6.714036e-04 7.319765e-04 7.602733e-04 8.168232e-04 8.376259e-04 8.891531e-04 9.031534e-04 9.494297e-04 9.584787e-04 9.997769e-04 1.006403e-03 1.043182e-03 1.049998e-03 1.082627e-03 1.091772e-03 1.120350e-03 1.133089e-03 1.157418e-03 1.174000e-03 1.193683e-03 1.213448e-03 1.228060e-03 1.249694e-03 1.258914e-03 1.280724e-03 1.284378e-03 1.304496e-03 1.302528e-03 1.319028e-03 1.311493e-03 1.322431e-03 1.309555e-03 1.312946e-03 1.295288e-03 1.289061e-03 1.267773e-03 1.249808e-03 1.226963e-03 1.195312e-03 1.174161e-03 1.127430e-03 1.112271e-03 1.049972e-03 1.045368e-03 9.680922e-04 9.774990e-04 8.869479e-04 9.112844e-04 8.102860e-04 8.471385e-04 7.396492e-04 7.835467e-04 6.744657e-04 7.182004e-04 6.128369e-04 6.493541e-04 5.525975e-04 5.767436e-04 4.922004e-04 5.017209e-04 4.311587e-04 4.267202e-04 3.700262e-04 3.544638e-04 3.100794e-04 2.873105e-04 2.529064e-04 2.269259e-04 2.000488e-04 1.742443e-04 1.527595e-04 1.295910e-04 1.118810e-04 9.284940e-05 7.781943e-05 