# vtk DataFile Version 2.0
Comment goes here
ASCII

DATASET STRUCTURED_POINTS
FIELD FieldData 1
TIME 1 1 double
0.14000000
DIMENSIONS    128   128   1

ORIGIN    0.000   0.000   0.000
SPACING   0.039062 0.039062   1.000

POINT_DATA   16384
SCALARS Omega double
LOOKUP_TABLE default

4.588497e-14 4.494343e-14 4.124135e-14 3.574726e-14 4.118403e-14 5.500828e-14 6.459991e-14 6.824137e-14 7.029939e-14 6.261721e-14 4.737154e-14 3.147985e-14 3.188093e-14 2.349091e-14 2.307088e-14 2.022621e-14 1.545703e-14 -1.539017e-14 -1.791175e-14 -3.404418e-14 -5.090766e-14 -5.271344e-14 -4.024918e-14 -4.739546e-14 -1.982245e-14 -1.271256e-14 -2.981042e-14 -5.625672e-14 -4.170685e-14 -4.331022e-14 -3.761902e-14 -5.574365e-14 -3.414690e-14 -2.258821e-14 -5.596104e-14 -5.382286e-14 -6.552044e-14 -7.748922e-15 -6.585093e-14 -9.041317e-15 -2.185894e-15 2.120066e-14 -7.001318e-14 3.949201e-14 2.914804e-14 -7.832318e-15 -6.270876e-14 3.299004e-14 9.106812e-14 2.634403e-14 8.214656e-14 2.579387e-14 -7.722785e-14 -1.606188e-14 -4.929857e-14 -5.565865e-16 1.762857e-14 1.568111e-14 -1.836440e-14 4.982642e-14 1.791507e-14 1.514890e-14 -2.395043e-14 2.581248e-15 -2.822560e-14 1.060763e-14 6.603648e-15 -3.614885e-15 -1.480658e-14 -2.662930e-14 -3.395063e-14 -3.352225e-14 -3.111839e-14 -2.606777e-14 -5.008544e-15 -1.024552e-14 8.513426e-15 2.175882e-15 9.555568e-15 2.644129e-16 -8.635349e-16 5.036170e-15 7.323903e-15 2.108825e-14 4.029734e-14 3.986040e-14 5.259453e-14 6.178517e-14 7.308646e-14 6.108056e-14 7.230603e-14 7.148831e-14 5.901442e-14 3.301750e-14 1.980351e-14 2.084556e-14 4.369742e-16 -1.022391e-14 1.415645e-14 -1.090694e-14 2.356025e-14 -4.432974e-15 8.459848e-14 6.675176e-14 5.070869e-14 -1.972925e-15 -1.171983e-14 -1.399644e-14 3.078582e-14 -1.819735e-14 -1.340432e-14 -2.071702e-14 -2.513787e-14 -3.367077e-14 -2.413819e-14 -5.978394e-14 -7.711122e-14 -4.691030e-14 -2.602241e-14 -2.517046e-14 -1.598484e-14 1.219704e-14 2.118611e-14 1.679541e-14 2.645419e-14 3.965714e-14 3.951460e-14 4.802151e-14 
6.086306e-06 6.174462e-06 5.835272e-06 5.927439e-06 5.753379e-06 5.834010e-06 5.804269e-06 5.858326e-06 5.949224e-06 5.963017e-06 6.149017e-06 6.110990e-06 6.365626e-06 6.267155e-06 6.563955e-06 6.400186e-06 6.713679e-06 6.484380e-06 6.791248e-06 6.501673e-06 6.782104e-06 6.443833e-06 6.683014e-06 6.314768e-06 6.504443e-06 6.132846e-06 6.272718e-06 5.932940e-06 6.031640e-06 5.767723e-06 5.842955e-06 5.707431e-06 5.784858e-06 5.837057e-06 5.947539e-06 6.249912e-06 6.424893e-06 7.036886e-06 7.302185e-06 8.271774e-06 8.640647e-06 9.994545e-06 1.046158e-05 1.219603e-05 1.273383e-05 1.480845e-05 1.536873e-05 1.770569e-05 1.822586e-05 2.071556e-05 2.112991e-05 2.364294e-05 2.389654e-05 2.629976e-05 2.636167e-05 2.853533e-05 2.840795e-05 3.026042e-05 2.998228e-05 3.145964e-05 3.110070e-05 3.218973e-05 3.184015e-05 3.256489e-05 3.231958e-05 3.273284e-05 3.267502e-05 3.284701e-05 3.303406e-05 3.304039e-05 3.349438e-05 3.340540e-05 3.410955e-05 3.398235e-05 3.488353e-05 3.475717e-05 3.577321e-05 3.566738e-05 3.669771e-05 3.661444e-05 3.755230e-05 3.748017e-05 3.822463e-05 3.814466e-05 3.861128e-05 3.850352e-05 3.863247e-05 3.848185e-05 3.824261e-05 3.804298e-05 3.743514e-05 3.719051e-05 3.624053e-05 3.596317e-05 3.471768e-05 3.442404e-05 3.294095e-05 3.264655e-05 3.098592e-05 3.070122e-05 2.891786e-05 2.864645e-05 2.678571e-05 2.652522e-05 2.462239e-05 2.436764e-05 2.245036e-05 2.219717e-05 2.028928e-05 2.003761e-05 1.816290e-05 1.791805e-05 1.610249e-05 1.587437e-05 1.414644e-05 1.394722e-05 1.233640e-05 1.217763e-05 1.071196e-05 1.060197e-05 9.305321e-06 9.247625e-06 8.137559e-06 8.130287e-06 7.216821e-06 7.253120e-06 6.538421e-06 6.607446e-06 
1.772123e-05 1.770814e-05 1.684270e-05 1.680066e-05 1.624246e-05 1.615995e-05 1.588292e-05 1.574434e-05 1.571155e-05 1.549880e-05 1.566499e-05 1.535979e-05 1.567430e-05 1.526105e-05 1.567099e-05 1.513973e-05 1.559323e-05 1.494259e-05 1.539210e-05 1.463190e-05 1.503751e-05 1.419100e-05 1.452377e-05 1.362946e-05 1.387461e-05 1.298772e-05 1.314728e-05 1.234081e-05 1.243534e-05 1.180050e-05 1.186912e-05 1.151427e-05 1.161223e-05 1.165931e-05 1.185217e-05 1.242922e-05 1.278332e-05 1.401206e-05 1.458176e-05 1.656047e-05 1.737389e-05 2.015756e-05 2.120395e-05 2.478562e-05 2.600843e-05 3.030662e-05 3.160573e-05 3.646261e-05 3.770746e-05 4.290026e-05 4.395263e-05 4.921754e-05 4.995970e-05 5.502419e-05 5.538587e-05 6.000303e-05 5.998040e-05 6.395852e-05 6.362012e-05 6.684204e-05 6.631971e-05 6.874906e-05 6.821571e-05 6.989049e-05 6.952961e-05 7.054589e-05 7.051920e-05 7.100921e-05 7.142896e-05 7.153803e-05 7.244859e-05 7.231467e-05 7.368584e-05 7.342396e-05 7.515564e-05 7.484833e-05 7.678437e-05 7.647801e-05 7.842593e-05 7.813257e-05 7.988581e-05 7.958956e-05 8.094941e-05 8.061636e-05 8.141185e-05 8.100206e-05 8.110611e-05 8.058589e-05 7.992675e-05 7.927890e-05 7.784569e-05 7.707580e-05 7.491726e-05 7.405457e-05 7.127057e-05 7.036333e-05 6.709013e-05 6.619665e-05 6.258797e-05 6.176598e-05 5.797334e-05 5.727017e-05 5.342605e-05 5.287188e-05 4.907869e-05 4.868385e-05 4.501027e-05 4.476653e-05 4.125068e-05 4.113548e-05 3.779328e-05 3.777559e-05 3.461132e-05 3.465777e-05 3.167404e-05 3.175403e-05 2.895887e-05 2.904819e-05 2.645823e-05 2.654054e-05 2.418023e-05 2.424675e-05 2.214483e-05 2.219240e-05 2.037688e-05 2.040529e-05 1.889833e-05 1.890735e-05 
1.808630e-05 1.832113e-05 1.727958e-05 1.753009e-05 1.699170e-05 1.721126e-05 1.711225e-05 1.725578e-05 1.752419e-05 1.755055e-05 1.810918e-05 1.798344e-05 1.875250e-05 1.844840e-05 1.934816e-05 1.885068e-05 1.980435e-05 1.911236e-05 2.004955e-05 1.917847e-05 2.003915e-05 1.902351e-05 1.976255e-05 1.865833e-05 1.925024e-05 1.813709e-05 1.858030e-05 1.756345e-05 1.788337e-05 1.709470e-05 1.734432e-05 1.694153e-05 1.719833e-05 1.736038e-05 1.771815e-05 1.863471e-05 1.918972e-05 2.104298e-05 2.187497e-05 2.481398e-05 2.596470e-05 3.007504e-05 3.152913e-05 3.680402e-05 3.847829e-05 4.479883e-05 4.654559e-05 5.367742e-05 5.530443e-05 6.291472e-05 6.422008e-05 7.191386e-05 7.272891e-05 8.009854e-05 8.032883e-05 8.700664e-05 8.666056e-05 9.236423e-05 9.156120e-05 9.612323e-05 9.507886e-05 9.845599e-05 9.744684e-05 9.970969e-05 9.902540e-05 1.003327e-04 1.002254e-04 1.007894e-04 1.014305e-04 1.014806e-04 1.029325e-04 1.026828e-04 1.048889e-04 1.045139e-04 1.073071e-04 1.069269e-04 1.100533e-04 1.097296e-04 1.128810e-04 1.126213e-04 1.154730e-04 1.152437e-04 1.174905e-04 1.172340e-04 1.186224e-04 1.182778e-04 1.186298e-04 1.181510e-04 1.173778e-04 1.167463e-04 1.148507e-04 1.140794e-04 1.111453e-04 1.102733e-04 1.064449e-04 1.055240e-04 1.009787e-04 1.000572e-04 9.497714e-05 9.408679e-05 8.863657e-05 8.778661e-05 8.210065e-05 8.128125e-05 7.546315e-05 7.465587e-05 6.878680e-05 6.797740e-05 6.212883e-05 6.131722e-05 5.556263e-05 5.476662e-05 4.918808e-05 4.844033e-05 4.312848e-05 4.246868e-05 3.751716e-05 3.698245e-05 3.247943e-05 3.209630e-05 2.811583e-05 2.789522e-05 2.449071e-05 2.442668e-05 2.162741e-05 2.169879e-05 1.950955e-05 1.968324e-05 
3.529854e-05 3.518027e-05 3.337396e-05 3.320944e-05 3.203821e-05 3.180588e-05 3.121558e-05 3.088460e-05 3.079929e-05 3.033275e-05 3.065991e-05 3.001979e-05 3.065622e-05 2.980932e-05 3.064749e-05 2.957181e-05 3.050624e-05 2.919721e-05 3.013105e-05 2.860691e-05 2.945863e-05 2.776498e-05 2.847499e-05 2.668827e-05 2.722538e-05 2.545555e-05 2.582240e-05 2.421493e-05 2.445173e-05 2.318855e-05 2.337347e-05 2.267152e-05 2.291618e-05 2.302131e-05 2.345948e-05 2.463242e-05 2.540096e-05 2.789298e-05 2.910549e-05 3.312353e-05 3.484050e-05 4.050570e-05 4.270756e-05 5.001520e-05 5.258703e-05 6.137887e-05 6.411447e-05 7.407335e-05 7.670253e-05 8.737492e-05 8.961137e-05 1.004564e-04 1.020568e-04 1.125130e-04 1.133334e-04 1.228903e-04 1.229254e-04 1.311846e-04 1.305793e-04 1.372950e-04 1.363242e-04 1.414160e-04 1.404375e-04 1.439780e-04 1.433680e-04 1.455489e-04 1.456354e-04 1.467233e-04 1.477285e-04 1.480183e-04 1.500226e-04 1.497953e-04 1.527253e-04 1.522170e-04 1.558575e-04 1.552394e-04 1.592639e-04 1.586344e-04 1.626465e-04 1.620341e-04 1.656130e-04 1.649884e-04 1.677333e-04 1.670284e-04 1.685971e-04 1.677302e-04 1.678704e-04 1.667712e-04 1.653428e-04 1.639744e-04 1.609602e-04 1.593335e-04 1.548368e-04 1.530128e-04 1.472407e-04 1.453208e-04 1.385543e-04 1.366615e-04 1.292166e-04 1.274721e-04 1.196590e-04 1.181612e-04 1.102494e-04 1.090597e-04 1.012555e-04 1.003927e-04 9.283229e-05 9.227643e-05 8.503369e-05 8.473541e-05 7.783994e-05 7.773317e-05 7.119286e-05 7.120774e-05 6.502925e-05 6.510290e-05 5.930578e-05 5.938947e-05 5.401169e-05 5.407394e-05 4.916946e-05 4.919508e-05 4.482577e-05 4.481179e-05 4.103676e-05 4.098651e-05 3.785167e-05 3.776847e-05 
2.953738e-05 2.982644e-05 2.801038e-05 2.833798e-05 2.738605e-05 2.767462e-05 2.747593e-05 2.765045e-05 2.808200e-05 2.807358e-05 2.900481e-05 2.875436e-05 3.005112e-05 2.951344e-05 3.104191e-05 3.019031e-05 3.182151e-05 3.065264e-05 3.226785e-05 3.080639e-05 3.230379e-05 3.060674e-05 3.190900e-05 3.006941e-05 3.113174e-05 2.928192e-05 3.009955e-05 2.841399e-05 2.902764e-05 2.772510e-05 2.822265e-05 2.756586e-05 2.807784e-05 2.836771e-05 2.905442e-05 3.061435e-05 3.164271e-05 3.478928e-05 3.630017e-05 4.129936e-05 4.336948e-05 5.038308e-05 5.299012e-05 6.202293e-05 6.502521e-05 7.588746e-05 7.902868e-05 9.132730e-05 9.427157e-05 1.074381e-04 1.098319e-04 1.231850e-04 1.247336e-04 1.375655e-04 1.381058e-04 1.497748e-04 1.493247e-04 1.593345e-04 1.581068e-04 1.661584e-04 1.645323e-04 1.705411e-04 1.689988e-04 1.730772e-04 1.721183e-04 1.745315e-04 1.745849e-04 1.756919e-04 1.770404e-04 1.772322e-04 1.799658e-04 1.796095e-04 1.836119e-04 1.830094e-04 1.879755e-04 1.873378e-04 1.928183e-04 1.922567e-04 1.977163e-04 1.972492e-04 2.021317e-04 2.017044e-04 2.054937e-04 2.050087e-04 2.072818e-04 2.066337e-04 2.070995e-04 2.062076e-04 2.047286e-04 2.035614e-04 2.001556e-04 1.987386e-04 1.935612e-04 1.919671e-04 1.852739e-04 1.835985e-04 1.756973e-04 1.740279e-04 1.652292e-04 1.636198e-04 1.541975e-04 1.526577e-04 1.428296e-04 1.413328e-04 1.312627e-04 1.297674e-04 1.195840e-04 1.180602e-04 1.078823e-04 1.063303e-04 9.628850e-05 9.474509e-05 8.499145e-05 8.352225e-05 7.422691e-05 7.290959e-05 6.424719e-05 6.315260e-05 5.528446e-05 5.446164e-05 4.751937e-05 4.698758e-05 4.106199e-05 4.080987e-05 3.594644e-05 3.593624e-05 3.213646e-05 3.231082e-05 
5.252521e-05 5.210669e-05 4.920556e-05 4.874885e-05 4.685243e-05 4.632874e-05 4.535026e-05 4.471392e-05 4.453395e-05 4.372753e-05 4.420214e-05 4.316439e-05 4.413414e-05 4.280986e-05 4.410912e-05 4.245976e-05 4.392620e-05 4.194011e-05 4.342440e-05 4.112565e-05 4.250145e-05 3.995664e-05 4.113063e-05 3.845363e-05 3.937529e-05 3.673043e-05 3.740051e-05 3.500484e-05 3.548143e-05 3.360630e-05 3.400622e-05 3.297672e-05 3.346992e-05 3.365846e-05 3.445209e-05 3.626053e-05 3.757038e-05 4.139518e-05 4.340464e-05 4.958333e-05 5.239482e-05 6.113895e-05 6.472881e-05 7.605673e-05 8.024816e-05 9.393612e-05 9.840408e-05 1.139733e-04 1.182882e-04 1.350380e-04 1.387437e-04 1.558282e-04 1.585384e-04 1.750730e-04 1.765626e-04 1.917376e-04 1.920049e-04 2.051840e-04 2.044672e-04 2.152512e-04 2.139929e-04 2.222417e-04 2.210102e-04 2.268223e-04 2.262069e-04 2.298689e-04 2.303722e-04 2.322891e-04 2.342384e-04 2.348621e-04 2.383549e-04 2.381204e-04 2.430116e-04 2.422884e-04 2.482152e-04 2.472767e-04 2.537114e-04 2.527208e-04 2.590395e-04 2.580516e-04 2.636049e-04 2.625820e-04 2.667610e-04 2.656016e-04 2.678940e-04 2.664696e-04 2.665032e-04 2.647001e-04 2.622740e-04 2.600302e-04 2.551299e-04 2.524602e-04 2.452551e-04 2.422575e-04 2.330765e-04 2.299170e-04 2.192031e-04 2.160833e-04 2.043325e-04 2.014501e-04 1.891461e-04 1.866584e-04 1.742167e-04 1.722174e-04 1.599505e-04 1.584627e-04 1.465713e-04 1.455550e-04 1.341431e-04 1.335129e-04 1.226194e-04 1.222660e-04 1.119017e-04 1.117129e-04 1.018928e-04 1.017703e-04 9.253403e-05 9.240457e-05 8.382240e-05 8.364220e-05 7.580861e-05 7.556140e-05 6.858046e-05 6.827054e-05 6.223842e-05 6.188067e-05 5.686955e-05 5.647875e-05 
3.997047e-05 4.014745e-05 3.743599e-05 3.769395e-05 3.624441e-05 3.647524e-05 3.612233e-05 3.622138e-05 3.678651e-05 3.665657e-05 3.795332e-05 3.750938e-05 3.934794e-05 3.852323e-05 4.071486e-05 3.946815e-05 4.183063e-05 4.015399e-05 4.251877e-05 4.044495e-05 4.266634e-05 4.027492e-05 4.224086e-05 3.966271e-05 4.130635e-05 3.872694e-05 4.003757e-05 3.769983e-05 3.873120e-05 3.693862e-05 3.781243e-05 3.693088e-05 3.783223e-05 3.828618e-05 3.944723e-05 4.170291e-05 4.337115e-05 4.789867e-05 5.028919e-05 5.749984e-05 6.073685e-05 7.090113e-05 7.496199e-05 8.812472e-05 9.280513e-05 1.087216e-04 1.136401e-04 1.317564e-04 1.364071e-04 1.558977e-04 1.597463e-04 1.796067e-04 1.822091e-04 2.013856e-04 2.024997e-04 2.200293e-04 2.196897e-04 2.348202e-04 2.333559e-04 2.456249e-04 2.436121e-04 2.528727e-04 2.510345e-04 2.574313e-04 2.565055e-04 2.604104e-04 2.610154e-04 2.629416e-04 2.654662e-04 2.659789e-04 2.705166e-04 2.701524e-04 2.764889e-04 2.756949e-04 2.833434e-04 2.824394e-04 2.907122e-04 2.898745e-04 2.979749e-04 2.972427e-04 3.043599e-04 3.036608e-04 3.090582e-04 3.082510e-04 3.113376e-04 3.102644e-04 3.106468e-04 3.091857e-04 3.066947e-04 3.047989e-04 2.994903e-04 2.972041e-04 2.893292e-04 2.867739e-04 2.767247e-04 2.740574e-04 2.622924e-04 2.596530e-04 2.466209e-04 2.440876e-04 2.301693e-04 2.277410e-04 2.132238e-04 2.108366e-04 1.959266e-04 1.934957e-04 1.783557e-04 1.758233e-04 1.606193e-04 1.579880e-04 1.429233e-04 1.402635e-04 1.255892e-04 1.230209e-04 1.090219e-04 1.066820e-04 9.364686e-05 9.165523e-05 7.984261e-05 7.827819e-05 6.788934e-05 6.677996e-05 5.794372e-05 5.726857e-05 5.003859e-05 4.973820e-05 4.409976e-05 4.408843e-05 
6.906740e-05 6.802758e-05 6.379320e-05 6.276670e-05 5.997055e-05 5.892521e-05 5.743969e-05 5.631491e-05 5.596957e-05 5.468362e-05 5.527663e-05 5.373856e-05 5.504868e-05 5.317334e-05 5.497202e-05 5.269649e-05 5.476016e-05 5.205950e-05 5.418224e-05 5.108274e-05 5.308950e-05 4.967806e-05 5.143818e-05 4.786736e-05 4.930773e-05 4.579762e-05 4.691425e-05 4.375324e-05 4.461984e-05 4.216615e-05 4.293736e-05 4.162100e-05 4.252711e-05 4.284752e-05 4.417588e-05 4.668567e-05 4.874388e-05 5.400762e-05 5.706626e-05 6.558770e-05 6.980836e-05 8.193151e-05 8.729612e-05 1.031000e-04 1.093654e-04 1.285828e-04 1.352837e-04 1.572732e-04 1.637864e-04 1.875744e-04 1.932358e-04 2.176261e-04 2.218757e-04 2.456039e-04 2.481222e-04 2.700217e-04 2.708197e-04 2.899643e-04 2.894026e-04 3.051996e-04 3.039307e-04 3.161527e-04 3.149994e-04 3.237572e-04 3.235552e-04 3.292261e-04 3.306667e-04 3.337992e-04 3.373037e-04 3.385180e-04 3.441673e-04 3.440685e-04 3.515958e-04 3.507074e-04 3.595463e-04 3.582665e-04 3.676380e-04 3.662170e-04 3.752319e-04 3.737690e-04 3.815287e-04 3.799882e-04 3.856708e-04 3.839178e-04 3.868470e-04 3.846985e-04 3.843940e-04 3.816801e-04 3.778931e-04 3.745152e-04 3.672477e-04 3.632219e-04 3.527255e-04 3.481957e-04 3.349428e-04 3.301598e-04 3.147823e-04 3.100522e-04 2.932542e-04 2.888735e-04 2.713357e-04 2.675331e-04 2.498303e-04 2.467319e-04 2.292843e-04 2.269073e-04 2.099727e-04 2.082421e-04 1.919443e-04 1.907233e-04 1.751038e-04 1.742274e-04 1.593015e-04 1.586069e-04 1.444084e-04 1.437588e-04 1.303648e-04 1.296638e-04 1.171973e-04 1.163942e-04 1.050092e-04 1.040960e-04 9.395298e-05 9.295313e-05 8.419337e-05 8.314639e-05 7.587013e-05 7.481494e-05 
4.876429e-05 4.856891e-05 4.479168e-05 4.474913e-05 4.267935e-05 4.265209e-05 4.205923e-05 4.191359e-05 4.255733e-05 4.216662e-05 4.380189e-05 4.305184e-05 4.543234e-05 4.422969e-05 4.711157e-05 4.539534e-05 4.854276e-05 4.629664e-05 4.949027e-05 4.675408e-05 4.980270e-05 4.668070e-05 4.943554e-05 4.610069e-05 4.847071e-05 4.516550e-05 4.713182e-05 4.416847e-05 4.579558e-05 4.355858e-05 4.500021e-05 4.395214e-05 4.544847e-05 4.613391e-05 4.799471e-05 5.103038e-05 5.359711e-05 5.963193e-05 6.321428e-05 7.284835e-05 7.763971e-05 9.130604e-05 9.729683e-05 1.151301e-04 1.220491e-04 1.437801e-04 1.510947e-04 1.760090e-04 1.829998e-04 2.099837e-04 2.158865e-04 2.435550e-04 2.477368e-04 2.746188e-04 2.767410e-04 3.014789e-04 3.016041e-04 3.231243e-04 3.217354e-04 3.393611e-04 3.372858e-04 3.507747e-04 3.490342e-04 3.585462e-04 3.581610e-04 3.641724e-04 3.659701e-04 3.691580e-04 3.736215e-04 3.747428e-04 3.819279e-04 3.817127e-04 3.912441e-04 3.903133e-04 4.014503e-04 4.002617e-04 4.120115e-04 4.108328e-04 4.220848e-04 4.209935e-04 4.306510e-04 4.295627e-04 4.366574e-04 4.353801e-04 4.391602e-04 4.374690e-04 4.374587e-04 4.351751e-04 4.312022e-04 4.282592e-04 4.204514e-04 4.169231e-04 4.056668e-04 4.017500e-04 3.876124e-04 3.835604e-04 3.671825e-04 3.632142e-04 3.451978e-04 3.414199e-04 3.222438e-04 3.186217e-04 2.986133e-04 2.950053e-04 2.743754e-04 2.706129e-04 2.495322e-04 2.455079e-04 2.241893e-04 2.199139e-04 1.986646e-04 1.942723e-04 1.734980e-04 1.692053e-04 1.493704e-04 1.454124e-04 1.269773e-04 1.235483e-04 1.069078e-04 1.041260e-04 8.956692e-05 8.746528e-05 7.514980e-05 7.368808e-05 6.365948e-05 6.274595e-05 5.494826e-05 5.446134e-05 
8.439872e-05 8.225334e-05 7.635411e-05 7.434236e-05 7.040159e-05 6.849222e-05 6.632772e-05 6.444336e-05 6.382207e-05 6.184938e-05 6.250232e-05 6.030918e-05 6.194610e-05 5.940395e-05 6.172758e-05 5.873619e-05 6.145681e-05 5.796839e-05 6.081922e-05 5.685822e-05 5.961197e-05 5.528752e-05 5.777364e-05 5.328336e-05 5.540457e-05 5.103147e-05 5.277809e-05 4.888515e-05 5.034547e-05 4.737420e-05 4.873954e-05 4.721566e-05 4.877736e-05 4.931955e-05 5.145164e-05 5.476815e-05 5.788614e-05 6.473712e-05 6.922468e-05 8.033241e-05 8.643908e-05 1.023477e-04 1.100800e-04 1.309938e-04 1.400385e-04 1.656877e-04 1.754072e-04 2.049912e-04 2.145130e-04 2.467494e-04 2.551384e-04 2.884129e-04 2.948847e-04 3.274680e-04 3.315867e-04 3.618674e-04 3.636707e-04 3.903546e-04 3.903730e-04 4.126125e-04 4.117760e-04 4.292144e-04 4.286693e-04 4.414056e-04 4.422860e-04 4.507802e-04 4.539854e-04 4.589329e-04 4.649582e-04 4.671611e-04 4.760137e-04 4.762694e-04 4.874788e-04 4.864948e-04 4.992028e-04 4.975383e-04 5.106368e-04 5.086661e-04 5.209473e-04 5.188453e-04 5.291365e-04 5.268876e-04 5.341556e-04 5.315928e-04 5.350160e-04 5.318877e-04 5.309020e-04 5.269592e-04 5.212897e-04 5.163768e-04 5.060591e-04 5.001863e-04 4.855731e-04 4.789457e-04 4.606798e-04 4.536692e-04 4.326089e-04 4.256703e-04 4.027698e-04 3.963355e-04 3.725057e-04 3.668926e-04 3.428841e-04 3.382452e-04 3.145824e-04 3.109075e-04 2.878889e-04 2.850409e-04 2.627925e-04 2.605597e-04 2.391176e-04 2.372635e-04 2.166554e-04 2.149592e-04 1.952616e-04 1.935469e-04 1.749082e-04 1.730602e-04 1.556916e-04 1.536628e-04 1.378078e-04 1.356128e-04 1.215081e-04 1.192075e-04 1.070474e-04 1.047251e-04 9.463566e-05 9.237325e-05 
5.509446e-05 5.414063e-05 4.907688e-05 4.838899e-05 4.553117e-05 4.494498e-05 4.398247e-05 4.333651e-05 4.395998e-05 4.309572e-05 4.499935e-05 4.376691e-05 4.664850e-05 4.491892e-05 4.848108e-05 4.616415e-05 5.011868e-05 4.718329e-05 5.126057e-05 4.775317e-05 5.171667e-05 4.777305e-05 5.143782e-05 4.728536e-05 5.053760e-05 4.648895e-05 4.930331e-05 4.574709e-05 4.819935e-05 4.559704e-05 4.787132e-05 4.676727e-05 4.915657e-05 5.019861e-05 5.309284e-05 5.704511e-05 6.089393e-05 6.861063e-05 7.384676e-05 8.617824e-05 9.309988e-05 1.107272e-04 1.193641e-04 1.425965e-04 1.526096e-04 1.812095e-04 1.918765e-04 2.249778e-04 2.352973e-04 2.714546e-04 2.803526e-04 3.177171e-04 3.243061e-04 3.608834e-04 3.646997e-04 3.986279e-04 3.997793e-04 4.295666e-04 4.287492e-04 4.534282e-04 4.518069e-04 4.709882e-04 4.699703e-04 4.838015e-04 4.847576e-04 4.938120e-04 4.978063e-04 5.029335e-04 5.105214e-04 5.126925e-04 5.238234e-04 5.239951e-04 5.380324e-04 5.370418e-04 5.528798e-04 5.513699e-04 5.676104e-04 5.659841e-04 5.811287e-04 5.795325e-04 5.921586e-04 5.905050e-04 5.994057e-04 5.974387e-04 6.017204e-04 5.991194e-04 5.982591e-04 5.947598e-04 5.886266e-04 5.841288e-04 5.729723e-04 5.675979e-04 5.519956e-04 5.460674e-04 5.268214e-04 5.207561e-04 4.987402e-04 4.928886e-04 4.688789e-04 4.633848e-04 4.379353e-04 4.326849e-04 4.061009e-04 4.007933e-04 3.732146e-04 3.675185e-04 3.390718e-04 3.327910e-04 3.037369e-04 2.969075e-04 2.677185e-04 2.606013e-04 2.319430e-04 2.249314e-04 1.975650e-04 1.910611e-04 1.657163e-04 1.600285e-04 1.372945e-04 1.325881e-04 1.128527e-04 1.091518e-04 9.259149e-05 8.981412e-05 7.642236e-05 7.442423e-05 6.405756e-05 6.266856e-05 
9.773943e-05 9.378559e-05 8.578599e-05 8.219142e-05 7.677921e-05 7.351697e-05 7.043349e-05 6.740383e-05 6.633635e-05 6.338073e-05 6.398076e-05 6.090631e-05 6.280592e-05 5.941811e-05 6.224514e-05 5.838523e-05 6.177910e-05 5.736143e-05 6.099100e-05 5.603361e-05 5.961765e-05 5.425970e-05 5.758873e-05 5.209091e-05 5.504764e-05 4.977710e-05 5.235217e-05 4.776097e-05 5.006237e-05 4.667384e-05 4.893073e-05 4.734711e-05 4.990969e-05 5.084200e-05 5.417211e-05 5.847102e-05 6.310685e-05 7.175173e-05 7.822423e-05 9.222689e-05 1.009198e-04 1.211307e-04 1.321118e-04 1.589696e-04 1.718575e-04 2.051651e-04 2.191033e-04 2.579168e-04 2.716964e-04 3.143758e-04 3.266886e-04 3.711031e-04 3.808574e-04 4.246877e-04 4.312946e-04 4.723563e-04 4.759024e-04 5.124194e-04 5.136793e-04 5.444588e-04 5.447449e-04 5.692373e-04 5.701260e-04 5.883796e-04 5.913815e-04 6.039211e-04 6.101699e-04 6.178370e-04 6.278658e-04 6.316580e-04 6.453069e-04 6.462417e-04 6.627067e-04 6.617187e-04 6.797121e-04 6.775777e-04 6.955467e-04 6.928254e-04 7.091704e-04 7.061646e-04 7.194150e-04 7.161599e-04 7.250902e-04 7.213893e-04 7.250770e-04 7.205858e-04 7.184317e-04 7.127821e-04 7.045201e-04 6.974616e-04 6.831797e-04 6.747034e-04 6.548701e-04 6.452692e-04 6.207274e-04 6.105584e-04 5.824439e-04 5.723897e-04 5.419658e-04 5.326539e-04 5.011082e-04 4.929622e-04 4.612355e-04 4.544120e-04 4.231161e-04 4.175311e-04 3.869703e-04 3.823782e-04 3.526508e-04 3.487325e-04 3.198628e-04 3.162963e-04 2.883494e-04 2.848546e-04 2.580012e-04 2.543685e-04 2.288920e-04 2.249992e-04 2.012591e-04 1.970779e-04 1.754518e-04 1.710411e-04 1.518656e-04 1.473493e-04 1.308753e-04 1.264093e-04 1.127762e-04 1.085108e-04 
5.790594e-05 5.563326e-05 4.901049e-05 4.717311e-05 4.330222e-05 4.171498e-05 4.018660e-05 3.866231e-05 3.909067e-05 3.743428e-05 3.945254e-05 3.746655e-05 4.072019e-05 3.822276e-05 4.236533e-05 3.921928e-05 4.391412e-05 4.006152e-05 4.499175e-05 4.048556e-05 4.537283e-05 4.039571e-05 4.502495e-05 3.988775e-05 4.413257e-05 3.925218e-05 4.309397e-05 3.896068e-05 4.249802e-05 3.965226e-05 4.310322e-05 4.214409e-05 4.584814e-05 4.748180e-05 5.190073e-05 5.700533e-05 6.270316e-05 7.235147e-05 7.991757e-05 9.528977e-05 1.051830e-04 1.273413e-04 1.396816e-04 1.692540e-04 1.836440e-04 2.205278e-04 2.360037e-04 2.792075e-04 2.943777e-04 3.420685e-04 3.554202e-04 4.051637e-04 4.154486e-04 4.645719e-04 4.711530e-04 5.171311e-04 5.201872e-04 5.609688e-04 5.615014e-04 5.957169e-04 5.953592e-04 6.223935e-04 6.230736e-04 6.430157e-04 6.465544e-04 6.600564e-04 6.677921e-04 6.758815e-04 6.884027e-04 6.922897e-04 7.093294e-04 7.102414e-04 7.307440e-04 7.297967e-04 7.521225e-04 7.502196e-04 7.724181e-04 7.701714e-04 7.902562e-04 7.879334e-04 8.041099e-04 8.016352e-04 8.124627e-04 8.094901e-04 8.139755e-04 8.100340e-04 8.076687e-04 8.023500e-04 7.931103e-04 7.862514e-04 7.705766e-04 7.623755e-04 7.411127e-04 7.321140e-04 7.063918e-04 6.973090e-04 6.683172e-04 6.597405e-04 6.284625e-04 6.205896e-04 5.876037e-04 5.801464e-04 5.456070e-04 5.379390e-04 5.017624e-04 4.932349e-04 4.554015e-04 4.456608e-04 4.064852e-04 3.956381e-04 3.558819e-04 3.444476e-04 3.052369e-04 2.939411e-04 2.565450e-04 2.460767e-04 2.116553e-04 2.024926e-04 1.719109e-04 1.642622e-04 1.380120e-04 1.318537e-04 1.100735e-04 1.052350e-04 8.778963e-05 8.403758e-05 7.061467e-05 6.771102e-05 
1.080151e-04 1.012525e-04 9.060056e-05 8.458117e-05 7.727222e-05 7.197328e-05 6.763831e-05 6.292491e-05 6.114720e-05 5.679158e-05 5.712735e-05 5.284313e-05 5.483724e-05 5.032659e-05 5.352619e-05 4.853641e-05 5.250629e-05 4.688869e-05 5.123133e-05 4.499130e-05 4.937285e-05 4.269755e-05 4.687724e-05 4.013088e-05 4.398775e-05 3.767339e-05 4.122227e-05 3.592433e-05 3.931698e-05 3.565330e-05 3.917000e-05 3.778864e-05 4.183421e-05 4.347476e-05 4.858495e-05 5.418145e-05 6.101680e-05 7.176470e-05 8.103903e-05 9.832564e-05 1.106266e-04 1.357725e-04 1.512986e-04 1.851626e-04 2.034835e-04 2.460789e-04 2.660568e-04 3.163379e-04 3.362911e-04 3.921975e-04 4.102793e-04 4.690209e-04 4.836967e-04 5.421813e-04 5.526489e-04 6.079337e-04 6.143621e-04 6.640247e-04 6.675483e-04 7.099195e-04 7.123950e-04 7.466365e-04 7.502326e-04 7.762793e-04 7.829996e-04 8.014065e-04 8.126545e-04 8.243980e-04 8.406829e-04 8.469653e-04 8.678096e-04 8.699013e-04 8.939619e-04 8.930858e-04 9.184341e-04 9.156712e-04 9.401396e-04 9.363336e-04 9.578327e-04 9.535002e-04 9.702458e-04 9.655236e-04 9.761525e-04 9.708172e-04 9.744014e-04 9.679740e-04 9.639732e-04 9.558963e-04 9.441107e-04 9.339709e-04 9.145543e-04 9.022982e-04 8.758337e-04 8.618933e-04 8.294495e-04 8.146885e-04 7.777476e-04 7.632184e-04 7.234396e-04 7.100587e-04 6.689647e-04 6.572681e-04 6.159914e-04 6.060704e-04 5.652583e-04 5.568578e-04 5.167496e-04 5.094369e-04 4.700546e-04 4.633673e-04 4.247287e-04 4.182599e-04 3.805331e-04 3.739634e-04 3.375195e-04 3.306287e-04 2.960030e-04 2.886822e-04 2.564812e-04 2.487439e-04 2.195419e-04 2.115206e-04 1.857773e-04 1.776959e-04 1.557077e-04 1.478330e-04 1.297184e-04 1.223045e-04 
5.593812e-05 5.153912e-05 4.302941e-05 3.931122e-05 3.412343e-05 3.089105e-05 2.849523e-05 2.553871e-05 2.546651e-05 2.254491e-05 2.437198e-05 2.121794e-05 2.454548e-05 2.089255e-05 2.533392e-05 2.096439e-05 2.614182e-05 2.094675e-05 2.650219e-05 2.053868e-05 2.615956e-05 1.968554e-05 2.514125e-05 1.861035e-05 2.378869e-05 1.779941e-05 2.272792e-05 1.794136e-05 2.278363e-05 1.984738e-05 2.488151e-05 2.441290e-05 3.001890e-05 3.268783e-05 3.936712e-05 4.606226e-05 5.446838e-05 6.644440e-05 7.734652e-05 9.620017e-05 1.102980e-04 1.376763e-04 1.552752e-04 1.923712e-04 2.130553e-04 2.600916e-04 2.825893e-04 3.385144e-04 3.608776e-04 4.233977e-04 4.434654e-04 5.093847e-04 5.253724e-04 5.911119e-04 6.021291e-04 6.642702e-04 6.706052e-04 7.263328e-04 7.294345e-04 7.768134e-04 7.789845e-04 8.170551e-04 8.209469e-04 8.496633e-04 8.576956e-04 8.777510e-04 8.915880e-04 9.041825e-04 9.243787e-04 9.309861e-04 9.568816e-04 9.590565e-04 9.889323e-04 9.881613e-04 1.019588e-03 1.017157e-03 1.047420e-03 1.044276e-03 1.070766e-03 1.067387e-03 1.087890e-03 1.084234e-03 1.097107e-03 1.092689e-03 1.096925e-03 1.091017e-03 1.086227e-03 1.078162e-03 1.064526e-03 1.054012e-03 1.032242e-03 1.019597e-03 9.909167e-04 9.770919e-04 9.431027e-04 9.293790e-04 8.917370e-04 8.791661e-04 8.391210e-04 8.279855e-04 7.860294e-04 7.756626e-04 7.315320e-04 7.206373e-04 6.737149e-04 6.610185e-04 6.109408e-04 5.958156e-04 5.429767e-04 5.257208e-04 4.714266e-04 4.530971e-04 3.993222e-04 3.812769e-04 3.301783e-04 3.135968e-04 2.670258e-04 2.526217e-04 2.118180e-04 1.997991e-04 1.653191e-04 1.555201e-04 1.273423e-04 1.194124e-04 9.712397e-05 9.067973e-05 7.366145e-05 6.837065e-05 
1.138665e-04 1.028882e-04 8.890178e-05 7.928561e-05 6.953179e-05 6.125038e-05 5.519869e-05 4.805611e-05 4.515195e-05 3.881040e-05 3.849524e-05 3.252151e-05 3.424351e-05 2.817529e-05 3.139679e-05 2.482743e-05 2.903643e-05 2.170950e-05 2.644143e-05 1.833683e-05 2.320940e-05 1.459457e-05 1.935210e-05 1.077402e-05 1.532888e-05 7.537707e-06 1.198946e-05 5.810884e-06 1.042731e-05 6.633470e-06 1.180106e-05 1.105560e-05 1.724104e-05 2.018841e-05 2.795854e-05 3.545774e-05 4.554617e-05 5.892227e-05 7.223440e-05 9.332714e-05 1.107475e-04 1.415928e-04 1.635775e-04 2.057734e-04 2.319063e-04 2.859319e-04 3.147184e-04 3.795217e-04 4.085969e-04 4.816162e-04 5.083265e-04 5.859028e-04 6.080459e-04 6.860461e-04 7.025059e-04 7.769593e-04 7.880386e-04 8.556405e-04 8.630124e-04 9.214265e-04 9.277411e-04 9.756960e-04 9.839599e-04 1.021176e-03 1.034059e-03 1.061059e-03 1.080284e-03 1.098146e-03 1.124097e-03 1.134227e-03 1.165869e-03 1.169824e-03 1.204952e-03 1.204331e-03 1.240051e-03 1.236377e-03 1.269654e-03 1.264217e-03 1.292341e-03 1.286016e-03 1.306893e-03 1.299997e-03 1.312248e-03 1.304529e-03 1.307411e-03 1.298182e-03 1.291395e-03 1.279787e-03 1.263293e-03 1.248606e-03 1.222620e-03 1.204714e-03 1.169889e-03 1.149438e-03 1.107083e-03 1.085502e-03 1.037545e-03 1.016521e-03 9.651448e-04 9.460221e-04 8.931461e-04 8.765235e-04 8.234250e-04 8.091451e-04 7.563785e-04 7.438149e-04 6.914155e-04 6.798265e-04 6.276689e-04 6.164321e-04 5.645717e-04 5.532502e-04 5.021121e-04 4.904177e-04 4.407880e-04 4.285405e-04 3.814157e-04 3.685485e-04 3.249367e-04 3.115308e-04 2.722829e-04 2.585818e-04 2.242890e-04 2.106670e-04 1.816270e-04 1.685170e-04 1.447525e-04 1.325584e-04 