# vtk DataFile Version 2.0
Comment goes here
ASCII

DATASET STRUCTURED_POINTS
FIELD FieldData 1
TIME 1 1 double
0.21000000
DIMENSIONS    128   128   1

ORIGIN    0.000   0.000   0.000
SPACING   0.039062 0.039062   1.000

POINT_DATA   16384
SCALARS Omega double
LOOKUP_TABLE default

-5.396899e-15 -7.281849e-15 -2.675053e-15 -1.245322e-15 -2.525382e-15 2.883291e-15 1.182266e-14 5.993703e-15 6.711191e-15 1.146385e-14 -1.857895e-16 1.990587e-14 1.295082e-14 -1.356017e-14 -7.490824e-15 -9.237993e-15 7.460618e-15 -2.251502e-14 -2.838944e-15 4.748663e-15 -1.154197e-14 -3.229505e-14 -1.883404e-14 -2.232033e-14 4.735297e-15 -3.797118e-15 4.806336e-15 -3.344178e-14 1.943071e-14 6.298611e-14 2.220582e-14 -2.854837e-14 -6.636039e-14 -2.823119e-14 -4.191199e-14 -8.252983e-15 -6.367851e-14 -7.613139e-14 -7.485311e-14 -4.518534e-14 -2.821779e-14 -1.498257e-14 -2.713551e-14 -1.779497e-14 7.056572e-15 -1.938738e-14 -4.046198e-15 -1.510062e-14 2.327234e-15 -1.792296e-14 -1.982243e-15 -1.444042e-14 -1.441673e-14 -5.849894e-15 -5.724497e-15 -4.419416e-15 5.609544e-15 2.608119e-14 2.521142e-14 2.197359e-14 2.622673e-14 2.795664e-14 4.999827e-14 3.366561e-14 1.052510e-14 2.068669e-14 3.182508e-14 1.400354e-14 -5.066835e-15 1.735973e-14 -1.265580e-14 3.672813e-14 -2.469933e-14 1.506476e-14 -4.142629e-14 9.987396e-15 -2.396623e-14 2.962349e-15 -4.478560e-14 5.017657e-15 3.767558e-15 6.112644e-14 1.988242e-14 4.159093e-14 7.030690e-14 4.715884e-14 1.328212e-14 6.419375e-14 1.148998e-14 3.280701e-14 6.699748e-14 7.125434e-14 -4.635139e-15 -1.064865e-14 3.478055e-14 -2.679194e-15 2.112188e-14 1.734448e-14 5.908696e-14 -5.180768e-15 2.828980e-14 -1.069246e-14 1.572625e-14 3.879308e-14 2.812042e-14 2.378677e-14 2.327514e-14 3.059347e-15 -9.432850e-15 -1.923206e-14 -6.097430e-15 -1.261785e-14 -1.129200e-14 -2.119745e-14 -2.532124e-14 -2.543565e-14 -2.479413e-14 -2.116167e-14 -1.674117e-14 -9.244560e-15 -8.675092e-15 9.321764e-16 -4.218469e-15 -1.478745e-14 -8.968292e-15 -1.188135e-14 -2.019470e-14 -2.023970e-14 
8.563043e-06 8.229871e-06 8.044236e-06 7.777769e-06 7.640251e-06 7.437056e-06 7.325572e-06 7.180662e-06 7.073912e-06 6.980961e-06 6.859862e-06 6.811515e-06 6.660458e-06 6.648687e-06 6.456585e-06 6.473092e-06 6.234215e-06 6.270885e-06 5.985487e-06 6.034923e-06 5.709694e-06 5.765904e-06 5.414260e-06 5.473580e-06 5.115811e-06 5.178128e-06 4.841367e-06 4.911605e-06 4.629520e-06 4.719183e-06 4.531163e-06 4.659539e-06 4.609037e-06 4.803408e-06 4.935051e-06 5.229213e-06 5.584359e-06 6.014928e-06 6.625703e-06 7.226179e-06 8.108601e-06 8.901966e-06 1.004944e-05 1.104086e-05 1.241987e-05 1.359156e-05 1.514129e-05 1.645142e-05 1.808857e-05 1.947529e-05 2.110385e-05 2.249400e-05 2.401859e-05 2.533945e-05 2.667948e-05 2.787077e-05 2.897236e-05 2.999579e-05 3.083889e-05 3.168294e-05 3.228211e-05 3.296133e-05 3.336037e-05 3.390960e-05 3.417142e-05 3.463661e-05 3.483073e-05 3.525860e-05 3.544883e-05 3.587750e-05 3.611198e-05 3.656424e-05 3.686916e-05 3.734908e-05 3.772655e-05 3.821962e-05 3.864923e-05 3.912535e-05 3.956880e-05 3.998727e-05 4.039488e-05 4.071071e-05 4.102889e-05 4.119934e-05 4.137811e-05 4.136884e-05 4.136838e-05 4.115838e-05 4.095386e-05 4.053847e-05 4.012248e-05 3.951387e-05 3.889598e-05 3.812108e-05 3.732481e-05 3.642088e-05 3.547880e-05 3.448763e-05 3.343580e-05 3.239788e-05 3.127111e-05 3.022097e-05 2.904983e-05 2.801349e-05 2.682350e-05 2.581808e-05 2.463066e-05 2.366585e-05 2.250010e-05 2.158053e-05 2.045480e-05 1.958253e-05 1.851522e-05 1.769164e-05 1.670081e-05 1.592785e-05 1.502996e-05 1.431046e-05 1.351874e-05 1.285625e-05 1.217910e-05 1.157746e-05 1.101739e-05 1.048013e-05 1.003332e-05 9.563151e-06 9.219734e-06 8.818103e-06 
1.694550e-05 1.626183e-05 1.587134e-05 1.532390e-05 1.503312e-05 1.461524e-05 1.437994e-05 1.408190e-05 1.385939e-05 1.366877e-05 1.342076e-05 1.332309e-05 1.301823e-05 1.299762e-05 1.261355e-05 1.265350e-05 1.217857e-05 1.226280e-05 1.169730e-05 1.181079e-05 1.116783e-05 1.129818e-05 1.060427e-05 1.074348e-05 1.003881e-05 1.018576e-05 9.524140e-06 9.687563e-06 9.135843e-06 9.337553e-06 8.974040e-06 9.251463e-06 9.162720e-06 9.569516e-06 9.844673e-06 1.044797e-05 1.116992e-05 1.204305e-05 1.327652e-05 1.448713e-05 1.626481e-05 1.785991e-05 2.016925e-05 2.216040e-05 2.493475e-05 2.728744e-05 3.040517e-05 3.303651e-05 3.633056e-05 3.911716e-05 4.239471e-05 4.519024e-05 4.825962e-05 5.091838e-05 5.361765e-05 5.601881e-05 5.823978e-05 6.030651e-05 6.200903e-05 6.371819e-05 6.493175e-05 6.631232e-05 6.712509e-05 6.824661e-05 6.878500e-05 6.973905e-05 7.014252e-05 7.102197e-05 7.141828e-05 7.229861e-05 7.278382e-05 7.370967e-05 7.433561e-05 7.531425e-05 7.608430e-05 7.708595e-05 7.795839e-05 7.892225e-05 7.981951e-05 8.066394e-05 8.148576e-05 8.212078e-05 8.275928e-05 8.309967e-05 8.345447e-05 8.343200e-05 8.342347e-05 8.299678e-05 8.257577e-05 8.173628e-05 8.088892e-05 7.966184e-05 7.840858e-05 7.684858e-05 7.523783e-05 7.342001e-05 7.151801e-05 6.952621e-05 6.740559e-05 6.532053e-05 6.305066e-05 6.094072e-05 5.858182e-05 5.649799e-05 5.409982e-05 5.207534e-05 4.967949e-05 4.773300e-05 4.537678e-05 4.351729e-05 4.123722e-05 3.946911e-05 3.730242e-05 3.562923e-05 3.361302e-05 3.203958e-05 3.020807e-05 2.874107e-05 2.712202e-05 2.576953e-05 2.438092e-05 2.315136e-05 2.199909e-05 2.090008e-05 1.997714e-05 1.901446e-05 1.830151e-05 1.747832e-05 
2.560891e-05 2.455911e-05 2.396526e-05 2.312185e-05 2.267864e-05 2.203168e-05 2.167163e-05 2.120649e-05 2.086446e-05 2.056243e-05 2.018002e-05 2.001922e-05 1.954857e-05 1.950500e-05 1.891203e-05 1.896077e-05 1.822779e-05 1.834432e-05 1.747198e-05 1.763376e-05 1.664237e-05 1.683082e-05 1.576123e-05 1.596444e-05 1.487831e-05 1.509463e-05 1.407430e-05 1.431690e-05 1.346429e-05 1.376601e-05 1.320028e-05 1.361765e-05 1.347037e-05 1.408474e-05 1.449141e-05 1.540501e-05 1.649188e-05 1.781694e-05 1.968297e-05 2.152365e-05 2.421941e-05 2.664881e-05 3.015624e-05 3.319341e-05 3.741202e-05 4.100552e-05 4.575085e-05 4.977485e-05 5.479290e-05 5.905919e-05 6.405652e-05 6.834138e-05 7.302616e-05 7.710657e-05 8.123224e-05 8.492301e-05 8.832496e-05 9.150803e-05 9.412520e-05 9.676437e-05 9.864141e-05 1.007799e-04 1.020503e-04 1.037931e-04 1.046479e-04 1.061331e-04 1.067826e-04 1.081502e-04 1.087864e-04 1.101498e-04 1.109164e-04 1.123423e-04 1.133160e-04 1.148146e-04 1.159992e-04 1.175250e-04 1.188568e-04 1.203179e-04 1.216797e-04 1.229532e-04 1.241940e-04 1.251447e-04 1.261026e-04 1.266025e-04 1.271268e-04 1.270740e-04 1.270454e-04 1.263780e-04 1.257229e-04 1.244289e-04 1.231268e-04 1.212449e-04 1.193275e-04 1.169411e-04 1.144819e-04 1.117056e-04 1.088050e-04 1.057662e-04 1.025343e-04 9.935573e-05 9.589708e-05 9.268230e-05 8.908762e-05 8.591357e-05 8.225778e-05 7.917437e-05 7.552037e-05 7.255547e-05 6.896030e-05 6.612739e-05 6.264741e-05 5.995316e-05 5.664616e-05 5.409606e-05 5.101956e-05 4.862107e-05 4.582789e-05 4.359116e-05 4.112380e-05 3.906094e-05 3.694652e-05 3.507011e-05 3.331702e-05 3.163839e-05 3.023524e-05 2.876300e-05 2.767963e-05 2.641855e-05 
3.371879e-05 3.224994e-05 3.139420e-05 3.021036e-05 2.956669e-05 2.865524e-05 2.813263e-05 2.747472e-05 2.698529e-05 2.655665e-05 2.602147e-05 2.579353e-05 2.514780e-05 2.508899e-05 2.428642e-05 2.436374e-05 2.338004e-05 2.356070e-05 2.239625e-05 2.264963e-05 2.133126e-05 2.163143e-05 2.021346e-05 2.054266e-05 1.910720e-05 1.946064e-05 1.811722e-05 1.850919e-05 1.739342e-05 1.786409e-05 1.713456e-05 1.775595e-05 1.758809e-05 1.846634e-05 1.904154e-05 2.031240e-05 2.180068e-05 2.361546e-05 2.615140e-05 2.865269e-05 3.230677e-05 3.559703e-05 4.034765e-05 4.445726e-05 5.017133e-05 5.503532e-05 6.146553e-05 6.691745e-05 7.372142e-05 7.950925e-05 8.629038e-05 9.211286e-05 9.847631e-05 1.040323e-04 1.096445e-04 1.146835e-04 1.193221e-04 1.236841e-04 1.272671e-04 1.309025e-04 1.334908e-04 1.364568e-04 1.382311e-04 1.406674e-04 1.418852e-04 1.439757e-04 1.449193e-04 1.468493e-04 1.477754e-04 1.496937e-04 1.507928e-04 1.527853e-04 1.541573e-04 1.562343e-04 1.578809e-04 1.599787e-04 1.618113e-04 1.638053e-04 1.656641e-04 1.673893e-04 1.690698e-04 1.703460e-04 1.716299e-04 1.722874e-04 1.729727e-04 1.728769e-04 1.728043e-04 1.718752e-04 1.709484e-04 1.691725e-04 1.673677e-04 1.648002e-04 1.621638e-04 1.589195e-04 1.555550e-04 1.517894e-04 1.478349e-04 1.437202e-04 1.393247e-04 1.350244e-04 1.303269e-04 1.259775e-04 1.210961e-04 1.167972e-04 1.118277e-04 1.076426e-04 1.026651e-04 9.862858e-05 9.371718e-05 8.984654e-05 8.507692e-05 8.138219e-05 7.683435e-05 7.332550e-05 6.908073e-05 6.577105e-05 6.190493e-05 5.881139e-05 5.538534e-05 5.252702e-05 4.958090e-05 4.697676e-05 4.452417e-05 4.219082e-05 4.021777e-05 3.816767e-05 3.663423e-05 3.487439e-05 
4.238582e-05 4.046387e-05 3.934794e-05 3.779115e-05 3.694754e-05 3.574047e-05 3.505235e-05 3.417167e-05 3.352624e-05 3.294163e-05 3.223753e-05 3.191311e-05 3.106699e-05 3.096307e-05 2.991536e-05 2.999039e-05 2.870990e-05 2.892267e-05 2.741015e-05 2.772218e-05 2.601259e-05 2.639123e-05 2.455497e-05 2.497754e-05 2.312052e-05 2.358018e-05 2.184304e-05 2.235643e-05 2.091244e-05 2.152852e-05 2.057962e-05 2.138767e-05 2.115697e-05 2.229040e-05 2.300886e-05 2.464040e-05 2.652546e-05 2.884993e-05 3.207521e-05 3.527866e-05 3.993723e-05 4.415600e-05 5.022389e-05 5.550242e-05 6.281275e-05 6.907233e-05 7.731092e-05 8.434080e-05 9.307037e-05 1.005478e-04 1.092606e-04 1.167979e-04 1.249878e-04 1.321965e-04 1.394361e-04 1.459923e-04 1.519971e-04 1.576931e-04 1.623583e-04 1.671282e-04 1.705318e-04 1.744463e-04 1.768180e-04 1.800530e-04 1.817192e-04 1.845063e-04 1.858231e-04 1.883948e-04 1.896837e-04 1.922255e-04 1.937231e-04 1.963400e-04 1.981676e-04 2.008694e-04 2.030247e-04 2.057287e-04 2.080968e-04 2.106445e-04 2.130221e-04 2.152061e-04 2.173355e-04 2.189299e-04 2.205370e-04 2.213304e-04 2.221619e-04 2.219873e-04 2.218445e-04 2.206037e-04 2.193675e-04 2.170463e-04 2.146892e-04 2.113603e-04 2.079443e-04 2.037560e-04 1.994149e-04 1.945673e-04 1.894783e-04 1.841915e-04 1.785438e-04 1.730260e-04 1.669946e-04 1.614175e-04 1.551492e-04 1.496369e-04 1.432499e-04 1.378801e-04 1.314740e-04 1.262888e-04 1.199578e-04 1.149784e-04 1.088215e-04 1.040614e-04 9.818450e-05 9.365804e-05 8.816944e-05 8.389533e-05 7.889535e-05 7.489663e-05 7.046604e-05 6.676786e-05 6.295831e-05 5.958510e-05 5.641339e-05 5.338631e-05 5.083323e-05 4.816809e-05 4.618112e-05 4.388695e-05 
5.009153e-05 4.762501e-05 4.614842e-05 4.414135e-05 4.301501e-05 4.144996e-05 4.053057e-05 3.938076e-05 3.852988e-05 3.776017e-05 3.685323e-05 3.642170e-05 3.535604e-05 3.521596e-05 3.391790e-05 3.401995e-05 3.245062e-05 3.274537e-05 3.090507e-05 3.134564e-05 2.927662e-05 2.982203e-05 2.760973e-05 2.822959e-05 2.600244e-05 2.668369e-05 2.461163e-05 2.536780e-05 2.365959e-05 2.454200e-05 2.344052e-05 2.454920e-05 2.432302e-05 2.581305e-05 2.674145e-05 2.881918e-05 3.116730e-05 3.407089e-05 3.805351e-05 4.201564e-05 4.775183e-05 5.294857e-05 6.041559e-05 6.691241e-05 7.591196e-05 8.362265e-05 9.377371e-05 1.024474e-04 1.132152e-04 1.224602e-04 1.332209e-04 1.425627e-04 1.526940e-04 1.616550e-04 1.706311e-04 1.788123e-04 1.862843e-04 1.934291e-04 1.992696e-04 2.052949e-04 2.096010e-04 2.145908e-04 2.176447e-04 2.218102e-04 2.240104e-04 2.276289e-04 2.294074e-04 2.327554e-04 2.344992e-04 2.377940e-04 2.397840e-04 2.431448e-04 2.455204e-04 2.489511e-04 2.517016e-04 2.550963e-04 2.580750e-04 2.612388e-04 2.641939e-04 2.668754e-04 2.694911e-04 2.714197e-04 2.733619e-04 2.742859e-04 2.752481e-04 2.749708e-04 2.747147e-04 2.731233e-04 2.715095e-04 2.685934e-04 2.655966e-04 2.614508e-04 2.571562e-04 2.519674e-04 2.465476e-04 2.405637e-04 2.342420e-04 2.277324e-04 2.207411e-04 2.139566e-04 2.065046e-04 1.996477e-04 1.919042e-04 1.851166e-04 1.772136e-04 1.705812e-04 1.626298e-04 1.561979e-04 1.483075e-04 1.421007e-04 1.343930e-04 1.284308e-04 1.210420e-04 1.153484e-04 1.084206e-04 1.030262e-04 9.669264e-05 9.163288e-05 8.600153e-05 8.131283e-05 7.645339e-05 7.216935e-05 6.810629e-05 6.425488e-05 6.096645e-05 5.756811e-05 5.499044e-05 5.205688e-05 
5.862130e-05 5.555195e-05 5.371381e-05 5.120104e-05 4.978959e-05 4.781383e-05 4.665576e-05 4.518630e-05 4.411417e-05 4.311024e-05 4.197308e-05 4.138569e-05 4.005879e-05 3.983311e-05 3.822679e-05 3.830500e-05 3.637197e-05 3.669620e-05 3.443715e-05 3.495259e-05 3.241971e-05 3.307827e-05 3.037635e-05 3.114165e-05 2.842725e-05 2.928206e-05 2.676089e-05 2.771773e-05 2.564057e-05 2.675524e-05 2.541212e-05 2.679773e-05 2.650839e-05 2.834498e-05 2.944237e-05 3.197473e-05 3.477711e-05 3.829347e-05 4.306211e-05 4.784996e-05 5.473462e-05 6.101769e-05 6.999942e-05 7.786956e-05 8.871746e-05 9.808153e-05 1.103418e-04 1.209034e-04 1.339334e-04 1.452207e-04 1.582677e-04 1.697048e-04 1.820164e-04 1.930212e-04 2.039625e-04 2.140476e-04 2.231977e-04 2.320479e-04 2.392545e-04 2.467650e-04 2.521451e-04 2.584124e-04 2.623043e-04 2.675771e-04 2.704549e-04 2.750596e-04 2.774337e-04 2.816934e-04 2.840160e-04 2.881816e-04 2.907758e-04 2.949802e-04 2.980002e-04 3.022402e-04 3.056632e-04 3.098076e-04 3.134532e-04 3.172692e-04 3.208360e-04 3.240278e-04 3.271423e-04 3.293940e-04 3.316638e-04 3.326838e-04 3.337502e-04 3.333125e-04 3.328982e-04 3.308757e-04 3.288211e-04 3.252077e-04 3.214896e-04 3.164049e-04 3.111322e-04 3.048049e-04 2.981907e-04 2.909223e-04 2.832378e-04 2.753530e-04 2.668762e-04 2.586736e-04 2.496489e-04 2.413653e-04 2.319852e-04 2.237823e-04 2.141944e-04 2.061665e-04 1.964965e-04 1.886925e-04 1.790705e-04 1.715187e-04 1.620959e-04 1.548227e-04 1.457724e-04 1.388117e-04 1.303160e-04 1.237103e-04 1.159390e-04 1.097353e-04 1.028242e-04 9.706878e-05 9.110397e-05 8.583808e-05 8.084806e-05 7.610527e-05 7.206129e-05 6.786584e-05 6.468803e-05 6.105400e-05 
6.572585e-05 6.191841e-05 5.957179e-05 5.643786e-05 5.461945e-05 5.213804e-05 5.064304e-05 4.878079e-05 4.741135e-05 4.612358e-05 4.470103e-05 4.393354e-05 4.230991e-05 4.200166e-05 4.007014e-05 4.015633e-05 3.786032e-05 3.827557e-05 3.561555e-05 3.629717e-05 3.333474e-05 3.422624e-05 3.108511e-05 3.214112e-05 2.900523e-05 3.019921e-05 2.730856e-05 2.864466e-05 2.628964e-05 2.781881e-05 2.633322e-05 2.817141e-05 2.792244e-05 3.026509e-05 3.163649e-05 3.476030e-05 3.812265e-05 4.236437e-05 4.802769e-05 5.373376e-05 6.188333e-05 6.933411e-05 7.996046e-05 8.928533e-05 1.021290e-04 1.132381e-04 1.277728e-04 1.403309e-04 1.558018e-04 1.692596e-04 1.847777e-04 1.984565e-04 2.131310e-04 2.263414e-04 2.394211e-04 2.515842e-04 2.625729e-04 2.733131e-04 2.820336e-04 2.912234e-04 2.978170e-04 3.055647e-04 3.104308e-04 3.170213e-04 3.207149e-04 3.265204e-04 3.296332e-04 3.350180e-04 3.380679e-04 3.433087e-04 3.466582e-04 3.518929e-04 3.557052e-04 3.609155e-04 3.651487e-04 3.701719e-04 3.746036e-04 3.791652e-04 3.834366e-04 3.871950e-04 3.908677e-04 3.934632e-04 3.960801e-04 3.971843e-04 3.983306e-04 3.976925e-04 3.970514e-04 3.945352e-04 3.919312e-04 3.875420e-04 3.829631e-04 3.768525e-04 3.704447e-04 3.628911e-04 3.549228e-04 3.462869e-04 3.370891e-04 3.277530e-04 3.176540e-04 3.079606e-04 2.972359e-04 2.874474e-04 2.763009e-04 2.665869e-04 2.551656e-04 2.456182e-04 2.340484e-04 2.247137e-04 2.131386e-04 2.040486e-04 1.926499e-04 1.838439e-04 1.728409e-04 1.643734e-04 1.540012e-04 1.459380e-04 1.364174e-04 1.288275e-04 1.203348e-04 1.132823e-04 1.059294e-04 9.946803e-05 9.329334e-05 8.746467e-05 8.243528e-05 7.726808e-05 7.328877e-05 6.879941e-05 
7.390884e-05 6.927122e-05 6.640798e-05 6.256564e-05 6.033064e-05 5.726098e-05 5.541305e-05 5.307934e-05 5.138534e-05 4.973763e-05 4.798644e-05 4.696364e-05 4.497965e-05 4.451276e-05 4.216875e-05 4.218473e-05 3.941327e-05 3.983898e-05 3.664124e-05 3.740706e-05 3.385788e-05 3.490117e-05 3.114983e-05 3.241945e-05 2.868613e-05 3.014993e-05 2.671905e-05 2.837635e-05 2.558810e-05 2.748803e-05 2.572912e-05 2.799317e-05 2.768596e-05 3.052831e-05 3.211400e-05 3.584865e-05 3.975679e-05 4.477768e-05 5.137427e-05 5.809869e-05 6.761175e-05 7.638948e-05 8.882405e-05 9.983180e-05 1.148997e-04 1.280535e-04 1.451485e-04 1.600674e-04 1.783080e-04 1.943489e-04 2.126897e-04 2.290493e-04 2.464410e-04 2.622989e-04 2.778571e-04 2.925221e-04 3.056649e-04 3.186868e-04 3.292084e-04 3.404297e-04 3.484975e-04 3.580377e-04 3.641175e-04 3.723009e-04 3.770337e-04 3.842830e-04 3.883445e-04 3.950692e-04 3.990415e-04 4.055455e-04 4.098259e-04 4.162511e-04 4.210055e-04 4.273155e-04 4.324772e-04 4.384745e-04 4.437756e-04 4.491417e-04 4.541655e-04 4.585124e-04 4.627573e-04 4.656818e-04 4.686291e-04 4.697670e-04 4.709487e-04 4.700248e-04 4.690861e-04 4.659568e-04 4.627061e-04 4.573894e-04 4.518257e-04 4.445088e-04 4.368166e-04 4.278342e-04 4.183397e-04 4.081208e-04 3.972189e-04 3.862121e-04 3.742844e-04 3.628842e-04 3.502384e-04 3.387362e-04 3.255868e-04 3.141604e-04 3.006542e-04 2.893928e-04 2.756605e-04 2.646070e-04 2.508128e-04 2.400043e-04 2.263725e-04 2.158637e-04 2.026722e-04 1.925401e-04 1.800880e-04 1.704229e-04 1.589880e-04 1.498802e-04 1.396804e-04 1.312098e-04 1.223793e-04 1.146098e-04 1.071911e-04 1.001701e-04 9.411864e-05 8.787830e-05 8.307648e-05 7.763502e-05 
8.013022e-05 7.447543e-05 7.089552e-05 6.618285e-05 6.336370e-05 5.956915e-05 5.723030e-05 5.431504e-05 5.218559e-05 5.009652e-05 4.793066e-05 4.660248e-05 4.419512e-05 4.355376e-05 4.075582e-05 4.072280e-05 3.745521e-05 3.795203e-05 3.421663e-05 3.516832e-05 3.105401e-05 3.239196e-05 2.807493e-05 2.974032e-05 2.547835e-05 2.742856e-05 2.355094e-05 2.577206e-05 2.266740e-05 2.519466e-05 2.329888e-05 2.624437e-05 2.602926e-05 2.961046e-05 3.156858e-05 3.612446e-05 4.074051e-05 4.671693e-05 5.441371e-05 6.230287e-05 7.335698e-05 8.359074e-05 9.803016e-05 1.108497e-04 1.283643e-04 1.437077e-04 1.636125e-04 1.810636e-04 2.023442e-04 2.211697e-04 2.426133e-04 2.618828e-04 2.822681e-04 3.010250e-04 3.193241e-04 3.367603e-04 3.523001e-04 3.678876e-04 3.804354e-04 3.939855e-04 4.037407e-04 4.153833e-04 4.228865e-04 4.329831e-04 4.389689e-04 4.479877e-04 4.532196e-04 4.616062e-04 4.667305e-04 4.748040e-04 4.802471e-04 4.881402e-04 4.940624e-04 5.017083e-04 5.080071e-04 5.151648e-04 5.215155e-04 5.278177e-04 5.337346e-04 5.387461e-04 5.436537e-04 5.469309e-04 5.502396e-04 5.513877e-04 5.525695e-04 5.512959e-04 5.499562e-04 5.461177e-04 5.420548e-04 5.356915e-04 5.289303e-04 5.202765e-04 5.110618e-04 5.005207e-04 4.892621e-04 4.773409e-04 4.645173e-04 4.517344e-04 4.377884e-04 4.245828e-04 4.098447e-04 3.965205e-04 3.811923e-04 3.679145e-04 3.521138e-04 3.389501e-04 3.227876e-04 3.097686e-04 2.934195e-04 2.805902e-04 2.643264e-04 2.517704e-04 2.359465e-04 2.237828e-04 2.087862e-04 1.971496e-04 1.833391e-04 1.723577e-04 1.600125e-04 1.497924e-04 1.390818e-04 1.297027e-04 1.206792e-04 1.121954e-04 1.048048e-04 9.725059e-05 9.135135e-05 8.474479e-05 
8.767263e-05 8.086020e-05 7.654098e-05 7.082527e-05 6.739818e-05 6.275352e-05 5.989243e-05 5.627665e-05 5.366613e-05 5.102081e-05 4.837334e-05 4.662610e-05 4.370030e-05 4.276914e-05 3.938850e-05 3.918749e-05 3.525821e-05 3.570307e-05 3.122838e-05 3.224061e-05 2.732877e-05 2.883791e-05 2.370192e-05 2.564734e-05 2.059636e-05 2.293175e-05 1.835599e-05 2.106064e-05 1.741319e-05 2.051348e-05 1.829337e-05 2.189522e-05 2.163402e-05 2.596058e-05 2.820952e-05 3.362895e-05 3.893433e-05 4.595358e-05 5.480298e-05 6.400472e-05 7.673330e-05 8.865094e-05 1.053186e-04 1.202750e-04 1.405524e-04 1.585148e-04 1.816300e-04 2.021398e-04 2.269255e-04 2.491364e-04 2.741841e-04 2.970060e-04 3.208929e-04 3.431978e-04 3.647273e-04 3.855597e-04 4.039529e-04 4.226857e-04 4.376780e-04 4.540809e-04 4.659077e-04 4.801202e-04 4.894043e-04 5.018302e-04 5.094065e-04 5.205661e-04 5.272886e-04 5.376684e-04 5.442434e-04 5.541787e-04 5.610532e-04 5.706643e-04 5.779814e-04 5.871660e-04 5.947780e-04 6.032459e-04 6.107662e-04 6.180982e-04 6.249721e-04 6.306853e-04 6.362681e-04 6.398798e-04 6.435173e-04 6.446043e-04 6.457138e-04 6.439686e-04 6.421185e-04 6.373997e-04 6.323781e-04 6.247510e-04 6.166082e-04 6.063603e-04 5.954043e-04 5.830186e-04 5.697484e-04 5.558249e-04 5.408107e-04 5.259517e-04 5.097009e-04 4.943987e-04 4.772624e-04 4.618348e-04 4.439961e-04 4.285913e-04 4.101343e-04 3.947936e-04 3.758129e-04 3.605535e-04 3.412481e-04 3.261266e-04 3.068375e-04 2.919733e-04 2.731549e-04 2.587159e-04 2.408624e-04 2.270312e-04 2.105930e-04 1.975349e-04 1.828527e-04 1.706976e-04 1.579691e-04 1.468078e-04 1.360853e-04 1.259759e-04 1.171839e-04 1.081607e-04 1.011232e-04 9.320367e-05 
9.263921e-05 8.441890e-05 7.909808e-05 7.215845e-05 6.790055e-05 6.221321e-05 5.864121e-05 5.416154e-05 5.091117e-05 4.757785e-05 4.431634e-05 4.205348e-05 3.850023e-05 3.722223e-05 3.317132e-05 3.278954e-05 2.813188e-05 2.856118e-05 2.330269e-05 2.446561e-05 1.873720e-05 2.056487e-05 1.462140e-05 1.705258e-05 1.126050e-05 1.424279e-05 9.058510e-06 1.255705e-05 8.500907e-06 1.251974e-05 1.015192e-05 1.477099e-05 1.467533e-05 2.009958e-05 2.287444e-05 2.947860e-05 3.572107e-05 4.405932e-05 5.431735e-05 6.506373e-05 7.973590e-05 9.354171e-05 1.127315e-04 1.300271e-04 1.533974e-04 1.742049e-04 2.009004e-04 2.247355e-04 2.534282e-04 2.793370e-04 3.084055e-04 3.351335e-04 3.629335e-04 3.891729e-04 4.143235e-04 4.389631e-04 4.605723e-04 4.828812e-04 5.006554e-04 5.203604e-04 5.345804e-04 5.518293e-04 5.632129e-04 5.784485e-04 5.879415e-04 6.017281e-04 6.102799e-04 6.231310e-04 6.315055e-04 6.437539e-04 6.524098e-04 6.641435e-04 6.731934e-04 6.842566e-04 6.934924e-04 7.035339e-04 7.124918e-04 7.210349e-04 7.290762e-04 7.355912e-04 7.419870e-04 7.459577e-04 7.499744e-04 7.509578e-04 7.519467e-04 7.496296e-04 7.471175e-04 7.413714e-04 7.351436e-04 7.260724e-04 7.162275e-04 7.041897e-04 6.911361e-04 6.767152e-04 6.610853e-04 6.449919e-04 6.274827e-04 6.104084e-04 5.916033e-04 5.740800e-04 5.543311e-04 5.366590e-04 5.160856e-04 4.983574e-04 4.769574e-04 4.591570e-04 4.369687e-04 4.190876e-04 3.963209e-04 3.784380e-04 3.555188e-04 3.378175e-04 3.153364e-04 2.980691e-04 2.766713e-04 2.601023e-04 2.403689e-04 2.247251e-04 2.070867e-04 1.925345e-04 1.772329e-04 1.638781e-04 1.509700e-04 1.388720e-04 1.282580e-04 1.174460e-04 1.089098e-04 9.939457e-05 
9.916813e-05 8.932985e-05 8.295931e-05 7.459754e-05 6.946033e-05 6.254334e-05 5.820328e-05 5.268177e-05 4.871648e-05 4.452251e-05 4.054357e-05 3.759301e-05 3.327001e-05 3.146900e-05 2.655736e-05 2.581131e-05 2.018093e-05 2.040339e-05 1.406275e-05 1.518052e-05 8.290090e-06 1.024277e-05 3.113575e-06 5.849299e-06 -1.074138e-06 2.398095e-06 -3.771499e-06 4.005234e-07 -4.400956e-06 4.628248e-07 -2.325818e-06 3.289657e-06 3.165846e-06 9.721001e-06 1.291514e-05 2.079137e-05 2.795438e-05 3.775878e-05 4.950406e-05 6.201901e-05 7.881955e-05 9.484166e-05 1.168588e-04 1.369546e-04 1.638517e-04 1.881149e-04 2.189464e-04 2.468607e-04 2.801123e-04 3.105855e-04 3.443832e-04 3.759493e-04 4.083835e-04 4.395023e-04 4.689721e-04 4.983315e-04 5.238106e-04 5.505453e-04 5.717052e-04 5.954843e-04 6.126581e-04 6.336370e-04 6.476488e-04 6.663168e-04 6.782324e-04 6.952071e-04 7.060727e-04 7.219007e-04 7.325293e-04 7.475407e-04 7.583859e-04 7.726298e-04 7.837545e-04 7.970121e-04 8.081323e-04 8.199824e-04 8.305499e-04 8.404532e-04 8.497472e-04 8.571270e-04 8.643433e-04 8.686529e-04 8.729904e-04 8.737716e-04 8.745249e-04 8.714630e-04 8.681212e-04 8.611040e-04 8.534492e-04 8.426240e-04 8.308032e-04 8.166108e-04 8.011396e-04 7.842839e-04 7.659418e-04 7.472696e-04 7.268944e-04 7.072076e-04 6.854628e-04 6.653405e-04 6.425684e-04 6.222854e-04 5.985219e-04 5.781000e-04 5.532416e-04 5.325948e-04 5.066260e-04 4.857191e-04 4.588850e-04 4.378301e-04 4.106808e-04 3.897425e-04 3.630469e-04 3.425776e-04 3.171635e-04 2.975168e-04 2.741109e-04 2.555751e-04 2.346961e-04 2.174681e-04 1.993883e-04 1.835818e-04 1.683439e-04 1.540136e-04 1.414768e-04 1.286436e-04 1.185360e-04 1.072036e-04 
1.024461e-04 9.066010e-05 8.290330e-05 7.282114e-05 6.651293e-05 5.809619e-05 5.273246e-05 4.592694e-05 4.102011e-05 3.575369e-05 3.085394e-05 2.703896e-05 2.176166e-05 1.930247e-05 1.336180e-05 1.216593e-05 5.410900e-06 5.399827e-06 -2.155010e-06 -1.040696e-06 -9.198297e-06 -7.002076e-06 -1.538521e-05 -1.214373e-05 -2.021712e-05 -1.596877e-05 -2.307841e-05 -1.786429e-05 -2.328883e-05 -1.713902e-05 -2.014239e-05 -1.303798e-05 -1.290509e-05 -4.708095e-06 -7.493080e-07 8.889204e-06 1.735405e-05 2.906209e-05 4.269321e-05 5.735106e-05 7.669354e-05 9.526041e-05 1.205472e-04 1.437634e-04 1.746775e-04 2.027494e-04 2.382641e-04 2.706717e-04 3.090775e-04 3.445991e-04 3.837445e-04 4.206943e-04 4.583746e-04 4.949655e-04 5.293361e-04 5.640421e-04 5.939323e-04 6.257464e-04 6.507981e-04 6.793293e-04 6.999429e-04 7.253532e-04 7.424774e-04 7.652970e-04 7.801324e-04 8.010197e-04 8.147146e-04 8.342275e-04 8.476384e-04 8.660760e-04 8.796366e-04 8.969789e-04 9.106828e-04 9.266227e-04 9.400891e-04 9.541194e-04 9.666958e-04 9.782097e-04 9.890738e-04 9.974509e-04 1.005702e-03 1.010374e-03 1.015120e-03 1.015627e-03 1.016085e-03 1.012122e-03 1.007731e-03 9.992171e-04 9.897640e-04 9.769085e-04 9.626249e-04 9.459796e-04 9.275528e-04 9.079799e-04 8.864152e-04 8.649306e-04 8.412695e-04 8.187946e-04 7.937972e-04 7.709302e-04 7.448857e-04 7.218155e-04 6.945892e-04 6.711958e-04 6.424882e-04 6.185646e-04 5.882420e-04 5.637141e-04 5.320454e-04 5.070876e-04 4.747872e-04 4.498020e-04 4.178881e-04 3.933918e-04 3.629516e-04 3.394400e-04 3.114079e-04 2.892638e-04 2.642846e-04 2.437490e-04 2.221410e-04 2.033336e-04 1.851243e-04 1.680854e-04 1.530817e-04 1.378113e-04 1.256715e-04 1.121540e-04 
1.075571e-04 9.351327e-05 8.428033e-05 7.218539e-05 6.461722e-05 5.442418e-05 4.793797e-05 3.958342e-05 3.361341e-05 2.701473e-05 2.103460e-05 1.609322e-05 9.648220e-06 6.260116e-06 -9.908781e-07 -2.919891e-06 -1.115787e-05 -1.169792e-05 -2.090392e-05 -2.009576e-05 -3.002926e-05 -2.789110e-05 -3.809268e-05 -3.463430e-05 -4.445166e-05 -3.968697e-05 -4.832250e-05 -4.227481e-05 -4.885341e-05 -4.154987e-05 -4.519739e-05 -3.664041e-05 -3.654483e-05 -2.663983e-05 -2.206237e-05 -1.049886e-05 -7.350609e-07 1.312961e-05 2.877908e-05 4.593284e-05 6.808928e-05 8.968659e-05 1.186723e-04 1.456720e-04 1.812069e-04 2.139608e-04 2.549358e-04 2.929201e-04 3.373990e-04 3.792222e-04 4.247202e-04 4.684085e-04 5.123625e-04 5.558040e-04 5.960732e-04 6.374611e-04 6.727007e-04 7.108409e-04 7.406572e-04 7.750785e-04 7.999505e-04 8.308206e-04 8.518395e-04 8.797413e-04 8.982548e-04 9.239010e-04 9.411589e-04 9.651268e-04 9.820123e-04 1.004567e-03 1.021465e-03 1.042506e-03 1.059307e-03 1.078424e-03 1.094626e-03 1.111209e-03 1.126045e-03 1.139411e-03 1.151964e-03 1.161448e-03 1.170735e-03 1.175755e-03 1.180812e-03 1.180910e-03 1.180892e-03 1.175782e-03 1.170085e-03 1.159721e-03 1.148133e-03 1.132797e-03 1.115635e-03 1.096011e-03 1.074153e-03 1.051300e-03 1.026007e-03 1.001156e-03 9.736995e-04 9.479208e-04 9.191594e-04 8.930678e-04 8.632048e-04 8.368726e-04 8.055532e-04 7.786808e-04 7.453752e-04 7.176130e-04 6.820755e-04 6.533174e-04 6.158896e-04 5.864018e-04 5.480368e-04 5.183966e-04 4.804350e-04 4.513502e-04 4.151875e-04 3.873073e-04 3.541023e-04 3.279001e-04 2.984131e-04 2.741614e-04 2.487301e-04 2.265419e-04 2.051484e-04 1.850409e-04 1.674131e-04 1.493617e-04 1.350679e-04 1.190378e-04 
1.087386e-04 9.200496e-05 8.086984e-05 6.636010e-05 5.715332e-05 4.480439e-05 3.685016e-05 2.658695e-05 1.923020e-05 1.096204e-05 3.591753e-06 -2.783368e-06 -1.069682e-05 -1.527898e-05 -2.413234e-05 -2.700068e-05 -3.700045e-05 -3.819803e-05 -4.931329e-05 -4.884651e-05 -6.078590e-05 -5.863986e-05 -7.085572e-05 -6.701332e-05 -7.872669e-05 -7.317822e-05 -8.342605e-05 -7.617138e-05 -8.388812e-05 -7.494133e-05 -7.907473e-05 -6.845967e-05 -6.807956e-05 -5.577262e-05 -5.010565e-05 -3.589238e-05 -2.425597e-05 -7.545955e-06 1.074632e-05 3.100636e-05 5.662396e-05 8.178949e-05 1.151515e-04 1.464494e-04 1.873410e-04 2.253337e-04 2.725836e-04 3.167918e-04 3.682301e-04 4.171082e-04 4.698823e-04 5.211550e-04 5.722984e-04 6.235045e-04 6.705443e-04 7.195748e-04 7.609782e-04 8.064411e-04 8.417872e-04 8.831276e-04 9.129975e-04 9.503870e-04 9.760411e-04 1.010107e-03 1.033060e-03 1.064549e-03 1.086157e-03 1.115633e-03 1.136795e-03 1.164446e-03 1.185474e-03 1.211076e-03 1.231730e-03 1.254729e-03 1.274359e-03 1.294027e-03 1.311727e-03 1.327300e-03 1.342031e-03 1.352808e-03 1.363476e-03 1.368871e-03 1.374403e-03 1.373979e-03 1.373425e-03 1.366927e-03 1.359610e-03 1.347043e-03 1.332758e-03 1.314503e-03 1.293710e-03 1.270636e-03 1.244515e-03 1.217948e-03 1.188163e-03 1.159612e-03 1.127777e-03 1.098473e-03 1.065562e-03 1.036075e-03 1.002112e-03 9.722802e-04 9.365260e-04 9.057473e-04 8.672799e-04 8.349899e-04 7.933604e-04 7.594249e-04 7.150554e-04 6.799033e-04 6.340748e-04 5.985622e-04 5.530653e-04 5.181925e-04 4.748524e-04 4.414955e-04 4.017830e-04 3.705434e-04 3.353798e-04 3.065692e-04 2.763218e-04 2.500345e-04 2.246270e-04 2.008361e-04 1.798934e-04 1.585269e-04 1.415008e-04 1.224835e-04 