# vtk DataFile Version 2.0
Comment goes here
ASCII

DATASET STRUCTURED_POINTS
FIELD FieldData 1
TIME 1 1 double
0.13500000
DIMENSIONS    128   128   1

ORIGIN    0.000   0.000   0.000
SPACING   0.039062 0.039062   1.000

POINT_DATA   16384
SCALARS Omega double
LOOKUP_TABLE default

3.842089e-14 3.829034e-14 4.988421e-14 4.281736e-14 4.048527e-14 4.024224e-14 5.350672e-14 5.128383e-14 5.507607e-14 5.711927e-14 4.503364e-14 3.086621e-14 2.537989e-14 2.394569e-14 2.689516e-14 2.525187e-14 1.923857e-14 -4.773867e-15 -2.365949e-14 -3.477682e-14 -4.387111e-14 -3.944730e-14 -3.661123e-14 -3.043805e-14 -3.543579e-14 -3.469979e-14 -3.376492e-14 -3.602107e-14 -1.933947e-14 -3.796106e-14 -4.646348e-14 -6.379807e-14 -2.943202e-14 -6.533116e-15 -2.928026e-15 -5.671154e-14 -1.364676e-14 1.751586e-14 -1.681569e-14 -7.187527e-15 7.886601e-15 1.955375e-14 -2.461314e-14 -2.350022e-14 -3.733143e-14 -2.755388e-14 1.323338e-14 1.698431e-14 7.190245e-14 2.077470e-14 2.539520e-14 -1.516386e-15 6.111097e-14 8.343821e-17 -1.468855e-14 -3.867244e-14 -2.168783e-14 9.043539e-15 3.216876e-14 8.166146e-14 5.842076e-14 -1.627282e-14 -2.540321e-14 -3.088184e-14 -2.697096e-14 -9.291290e-15 -2.288131e-14 -1.649615e-14 -1.469808e-14 -1.650576e-14 -2.373759e-14 -2.520586e-14 -1.321975e-14 -1.801645e-14 -7.473952e-16 -1.467119e-14 2.576567e-15 -1.467005e-14 -6.330288e-15 -1.484483e-14 -1.807737e-14 -1.144858e-14 -7.994399e-15 2.740312e-14 3.723199e-14 4.929646e-14 3.541458e-14 6.098769e-14 5.988469e-14 6.140104e-14 9.035343e-14 1.064102e-13 7.489366e-14 4.044808e-14 3.741905e-14 8.973506e-15 2.187789e-14 1.006216e-14 -1.450364e-14 7.646525e-15 1.537115e-14 2.428189e-14 8.393762e-14 7.237096e-14 6.150475e-14 1.712806e-14 -1.602590e-14 -1.060136e-14 3.130571e-14 -2.202609e-14 -2.475829e-14 -3.980169e-14 -4.848649e-14 -4.076920e-14 -5.053828e-14 -6.405563e-14 -6.766611e-14 -5.208436e-14 -2.651945e-14 -1.572211e-14 -2.559044e-14 -1.146536e-14 -1.646413e-15 3.651272e-15 1.003020e-14 2.953933e-14 4.459565e-14 4.579901e-14 
5.425602e-06 5.668041e-06 5.229554e-06 5.458744e-06 5.205894e-06 5.403778e-06 5.317926e-06 5.467285e-06 5.526204e-06 5.611318e-06 5.790189e-06 5.797587e-06 6.069932e-06 5.989318e-06 6.327891e-06 6.153282e-06 6.530968e-06 6.262022e-06 6.652798e-06 6.296251e-06 6.676270e-06 6.247369e-06 6.596208e-06 6.119974e-06 6.422064e-06 5.934221e-06 6.180374e-06 5.727714e-06 5.916575e-06 5.556477e-06 5.695541e-06 5.494265e-06 5.599953e-06 5.629248e-06 5.725452e-06 6.057077e-06 6.171724e-06 6.869755e-06 7.029347e-06 8.140731e-06 8.363546e-06 9.908164e-06 1.019758e-05 1.215985e-05 1.249977e-05 1.482417e-05 1.517861e-05 1.777104e-05 1.808881e-05 2.082471e-05 2.104917e-05 2.378745e-05 2.386926e-05 2.646975e-05 2.637973e-05 2.872070e-05 2.845939e-05 3.045167e-05 3.005308e-05 3.164829e-05 3.117653e-05 3.236826e-05 3.190783e-05 3.272637e-05 3.236798e-05 3.287043e-05 3.269554e-05 3.295366e-05 3.302061e-05 3.310883e-05 3.344304e-05 3.342860e-05 3.401819e-05 3.395434e-05 3.475137e-05 3.467410e-05 3.560070e-05 3.552850e-05 3.648654e-05 3.642287e-05 3.730553e-05 3.724294e-05 3.794679e-05 3.787214e-05 3.830816e-05 3.820792e-05 3.831044e-05 3.817512e-05 3.790750e-05 3.773448e-05 3.709076e-05 3.688482e-05 3.588720e-05 3.565875e-05 3.435125e-05 3.411302e-05 3.255261e-05 3.231596e-05 3.056325e-05 3.033548e-05 2.844685e-05 2.823057e-05 2.625350e-05 2.604809e-05 2.402008e-05 2.382454e-05 2.177513e-05 2.159091e-05 1.954537e-05 1.937812e-05 1.736115e-05 1.722053e-05 1.525870e-05 1.515661e-05 1.327894e-05 1.322681e-05 1.146363e-05 1.146970e-05 9.850436e-06 9.917913e-06 8.468540e-06 8.594798e-06 7.335697e-06 7.512630e-06 6.457175e-06 6.672224e-06 5.826226e-06 6.063712e-06 
1.595291e-05 1.617797e-05 1.501510e-05 1.518903e-05 1.439905e-05 1.450756e-05 1.406753e-05 1.409159e-05 1.396559e-05 1.388298e-05 1.402507e-05 1.381296e-05 1.417035e-05 1.380852e-05 1.432478e-05 1.379930e-05 1.441733e-05 1.372436e-05 1.438921e-05 1.353880e-05 1.420039e-05 1.321989e-05 1.383576e-05 1.277271e-05 1.331087e-05 1.223503e-05 1.267694e-05 1.168107e-05 1.202444e-05 1.122342e-05 1.148414e-05 1.101155e-05 1.122377e-05 1.122516e-05 1.143833e-05 1.206020e-05 1.233203e-05 1.370623e-05 1.409154e-05 1.631606e-05 1.685281e-05 1.997139e-05 2.066686e-05 2.465170e-05 2.547290e-05 3.021524e-05 3.108769e-05 3.640021e-05 3.721731e-05 4.285027e-05 4.349283e-05 4.916201e-05 4.952414e-05 5.494593e-05 5.496114e-05 5.988772e-05 5.954869e-05 6.379649e-05 6.316297e-05 6.662912e-05 6.582187e-05 6.848665e-05 6.766841e-05 6.958484e-05 6.893269e-05 7.020681e-05 6.988167e-05 7.064857e-05 7.076794e-05 7.116815e-05 7.178675e-05 7.194688e-05 7.304767e-05 7.306716e-05 7.456319e-05 7.450767e-05 7.625302e-05 7.615382e-05 7.796108e-05 7.781956e-05 7.948097e-05 7.927657e-05 8.058633e-05 8.028704e-05 8.106269e-05 8.063660e-05 8.073760e-05 8.016390e-05 7.950561e-05 7.878321e-05 7.734461e-05 7.649659e-05 7.432004e-05 7.339287e-05 7.057552e-05 6.963291e-05 6.631060e-05 6.542346e-05 6.174982e-05 6.098463e-05 5.710942e-05 5.651792e-05 5.256890e-05 5.218118e-05 4.825296e-05 4.807512e-05 4.422664e-05 4.424291e-05 4.050281e-05 4.068094e-05 3.705835e-05 3.735681e-05 3.385406e-05 3.422929e-05 3.085301e-05 3.126555e-05 2.803372e-05 2.845220e-05 2.539611e-05 2.579891e-05 2.296061e-05 2.333522e-05 2.076187e-05 2.110264e-05 1.883965e-05 1.914452e-05 1.722916e-05 1.749634e-05 
1.607434e-05 1.677180e-05 1.543618e-05 1.609625e-05 1.532572e-05 1.589487e-05 1.563188e-05 1.605901e-05 1.623575e-05 1.647397e-05 1.701530e-05 1.702407e-05 1.785022e-05 1.759815e-05 1.862726e-05 1.809563e-05 1.924633e-05 1.843320e-05 1.962738e-05 1.855212e-05 1.971802e-05 1.842573e-05 1.950160e-05 1.806701e-05 1.900533e-05 1.753564e-05 1.830769e-05 1.694369e-05 1.754400e-05 1.645873e-05 1.690843e-05 1.630223e-05 1.664966e-05 1.674029e-05 1.705704e-05 1.806337e-05 1.843423e-05 2.055314e-05 2.105958e-05 2.443702e-05 2.513627e-05 2.983651e-05 3.074066e-05 3.671994e-05 3.778141e-05 4.487337e-05 4.598310e-05 5.390252e-05 5.490437e-05 6.327158e-05 6.399223e-05 7.237597e-05 7.266442e-05 8.063543e-05 8.040263e-05 8.758752e-05 8.683582e-05 9.296051e-05 9.179482e-05 9.670972e-05 9.532690e-05 9.901056e-05 9.766896e-05 1.002119e-04 9.918778e-05 1.007624e-04 1.003021e-04 1.011253e-04 1.014033e-04 1.017006e-04 1.027899e-04 1.027652e-04 1.046244e-04 1.044400e-04 1.069185e-04 1.066845e-04 1.095417e-04 1.093160e-04 1.122511e-04 1.120458e-04 1.147337e-04 1.145277e-04 1.166550e-04 1.164096e-04 1.177083e-04 1.173829e-04 1.176565e-04 1.172227e-04 1.163636e-04 1.158136e-04 1.138076e-04 1.131562e-04 1.100744e-04 1.093541e-04 1.053332e-04 1.045833e-04 9.979832e-05 9.905361e-05 9.368864e-05 9.297060e-05 8.719528e-05 8.651028e-05 8.046571e-05 7.980993e-05 7.360653e-05 7.297539e-05 6.670024e-05 6.609780e-05 5.982686e-05 5.927121e-05 5.308098e-05 5.260347e-05 4.657805e-05 4.621712e-05 4.044906e-05 4.024123e-05 3.482696e-05 3.479821e-05 2.983027e-05 2.999031e-05 2.554920e-05 2.588949e-05 2.203704e-05 2.253229e-05 1.930775e-05 1.991945e-05 1.733835e-05 1.801910e-05 
3.167677e-05 3.202970e-05 2.963625e-05 2.989765e-05 2.827275e-05 2.841635e-05 2.751084e-05 2.749951e-05 2.723850e-05 2.702753e-05 2.731661e-05 2.685892e-05 2.759062e-05 2.684354e-05 2.790361e-05 2.683656e-05 2.810986e-05 2.671247e-05 2.808833e-05 2.637830e-05 2.775571e-05 2.578603e-05 2.707884e-05 2.494363e-05 2.608611e-05 2.392467e-05 2.487740e-05 2.287589e-05 2.363148e-05 2.202125e-05 2.260877e-05 2.166001e-05 2.214594e-05 2.215468e-05 2.263785e-05 2.390435e-05 2.450240e-05 2.729985e-05 2.812670e-05 3.266162e-05 3.379836e-05 4.016792e-05 4.163335e-05 4.978826e-05 5.151800e-05 6.124146e-05 6.308448e-05 7.399608e-05 7.573382e-05 8.732217e-05 8.870925e-05 1.003899e-04 1.012082e-04 1.123963e-04 1.125097e-04 1.226934e-04 1.220884e-04 1.308873e-04 1.296890e-04 1.368888e-04 1.353473e-04 1.409043e-04 1.393546e-04 1.433740e-04 1.421780e-04 1.448737e-04 1.443570e-04 1.460023e-04 1.463981e-04 1.472779e-04 1.486889e-04 1.490603e-04 1.514413e-04 1.515075e-04 1.546714e-04 1.545679e-04 1.582099e-04 1.580034e-04 1.617375e-04 1.614341e-04 1.648364e-04 1.643971e-04 1.670507e-04 1.664117e-04 1.679492e-04 1.670453e-04 1.671853e-04 1.659726e-04 1.645477e-04 1.630222e-04 1.599943e-04 1.582024e-04 1.536626e-04 1.517004e-04 1.458518e-04 1.438526e-04 1.369770e-04 1.350902e-04 1.275050e-04 1.258707e-04 1.178833e-04 1.166102e-04 1.084803e-04 1.076303e-04 9.954721e-05 9.913114e-05 9.120988e-05 9.119193e-05 8.348573e-05 8.379569e-05 7.631987e-05 7.686864e-05 6.962762e-05 7.032292e-05 6.333301e-05 6.409227e-05 5.739526e-05 5.815411e-05 5.181991e-05 5.253546e-05 4.665542e-05 4.730489e-05 4.197913e-05 4.255482e-05 3.787775e-05 3.838002e-05 3.442737e-05 3.485727e-05 
2.608351e-05 2.714172e-05 2.484951e-05 2.585359e-05 2.452993e-05 2.539302e-05 2.493639e-05 2.557526e-05 2.586887e-05 2.620624e-05 2.712265e-05 2.709049e-05 2.849578e-05 2.803993e-05 2.979749e-05 2.888394e-05 3.085831e-05 2.948070e-05 3.154177e-05 2.972951e-05 3.175726e-05 2.958346e-05 3.147370e-05 2.906200e-05 3.073301e-05 2.826233e-05 2.966248e-05 2.736896e-05 2.848442e-05 2.665940e-05 2.752052e-05 2.650294e-05 2.718675e-05 2.734757e-05 2.797269e-05 2.968865e-05 3.039957e-05 3.401444e-05 3.495377e-05 4.072852e-05 4.200017e-05 5.005830e-05 5.168953e-05 6.196881e-05 6.388299e-05 7.610753e-05 7.811931e-05 9.180382e-05 9.364375e-05 1.081352e-04 1.095024e-04 1.240544e-04 1.246866e-04 1.385535e-04 1.382971e-04 1.508283e-04 1.496896e-04 1.604058e-04 1.585697e-04 1.672065e-04 1.650168e-04 1.715306e-04 1.694350e-04 1.739755e-04 1.724485e-04 1.753060e-04 1.747653e-04 1.763071e-04 1.770410e-04 1.776499e-04 1.797680e-04 1.797917e-04 1.832056e-04 1.829222e-04 1.873569e-04 1.869582e-04 1.919882e-04 1.915785e-04 1.966812e-04 1.962875e-04 2.009046e-04 2.004966e-04 2.040961e-04 2.036112e-04 2.057429e-04 2.051140e-04 2.054533e-04 2.046322e-04 2.030078e-04 2.019818e-04 1.983826e-04 1.971787e-04 1.917389e-04 1.904152e-04 1.833787e-04 1.820056e-04 1.736778e-04 1.723155e-04 1.630116e-04 1.616946e-04 1.516983e-04 1.504315e-04 1.399724e-04 1.387421e-04 1.279961e-04 1.267886e-04 1.158950e-04 1.147158e-04 1.038015e-04 1.026853e-04 9.188697e-05 9.089478e-05 8.036879e-05 7.957478e-05 6.949552e-05 6.896874e-05 5.951634e-05 5.930440e-05 5.064813e-05 5.076738e-05 4.304988e-05 4.348340e-05 3.680948e-05 3.751140e-05 3.194272e-05 3.284586e-05 2.840104e-05 2.942507e-05 
4.687535e-05 4.714872e-05 4.338934e-05 4.355456e-05 4.100517e-05 4.102853e-05 3.960639e-05 3.943446e-05 3.901926e-05 3.858383e-05 3.902753e-05 3.825398e-05 3.939066e-05 3.820886e-05 3.986404e-05 3.822093e-05 4.021990e-05 3.809280e-05 4.026815e-05 3.767762e-05 3.987631e-05 3.689765e-05 3.898810e-05 3.576041e-05 3.764018e-05 3.437239e-05 3.597664e-05 3.294985e-05 3.426034e-05 3.182551e-05 3.287843e-05 3.144786e-05 3.233748e-05 3.236696e-05 3.324053e-05 3.519835e-05 3.623758e-05 4.055764e-05 4.194456e-05 4.896444e-05 5.083471e-05 6.072624e-05 6.312002e-05 7.582681e-05 7.865227e-05 9.385208e-05 9.687741e-05 1.139851e-04 1.168680e-04 1.350856e-04 1.374391e-04 1.558481e-04 1.573279e-04 1.750051e-04 1.753981e-04 1.915331e-04 1.908220e-04 2.048105e-04 2.031980e-04 2.146958e-04 2.125803e-04 2.215104e-04 2.194196e-04 2.259378e-04 2.244347e-04 2.288660e-04 2.284483e-04 2.312101e-04 2.322231e-04 2.337516e-04 2.363299e-04 2.370208e-04 2.410673e-04 2.412356e-04 2.464346e-04 2.462952e-04 2.521552e-04 2.518196e-04 2.577328e-04 2.572199e-04 2.625297e-04 2.617869e-04 2.658556e-04 2.647884e-04 2.670594e-04 2.655662e-04 2.656175e-04 2.636260e-04 2.612112e-04 2.587104e-04 2.537821e-04 2.508413e-04 2.435523e-04 2.403234e-04 2.310006e-04 2.276995e-04 2.167924e-04 2.136635e-04 2.016743e-04 1.989475e-04 1.863578e-04 1.842096e-04 1.714191e-04 1.699472e-04 1.572394e-04 1.564551e-04 1.439939e-04 1.438317e-04 1.316857e-04 1.320249e-04 1.202096e-04 1.209008e-04 1.094231e-04 1.103146e-04 9.920855e-05 1.001675e-04 8.951256e-05 9.043858e-05 8.035989e-05 8.119011e-05 7.184405e-05 7.255049e-05 6.410210e-05 6.468303e-05 5.728241e-05 5.775021e-05 5.151286e-05 5.188134e-05 
3.491981e-05 3.616541e-05 3.282096e-05 3.400925e-05 3.207489e-05 3.308981e-05 3.241110e-05 3.314059e-05 3.354600e-05 3.388375e-05 3.519059e-05 3.503989e-05 3.705915e-05 3.633972e-05 3.888043e-05 3.753810e-05 4.041180e-05 3.843047e-05 4.145612e-05 3.887076e-05 4.188057e-05 3.878952e-05 4.163602e-05 3.821113e-05 4.077567e-05 3.726888e-05 3.947176e-05 3.621742e-05 3.802907e-05 3.544117e-05 3.689283e-05 3.545559e-05 3.664590e-05 3.689443e-05 3.798636e-05 4.047243e-05 4.167421e-05 4.691264e-05 4.843894e-05 5.683455e-05 5.885072e-05 7.061418e-05 7.317574e-05 8.824584e-05 9.125258e-05 1.092480e-04 1.124327e-04 1.326533e-04 1.356177e-04 1.571045e-04 1.593995e-04 1.810466e-04 1.822802e-04 2.029767e-04 2.029213e-04 2.216940e-04 2.203638e-04 2.364916e-04 2.341689e-04 2.472480e-04 2.444493e-04 2.544020e-04 2.517928e-04 2.588250e-04 2.571009e-04 2.616250e-04 2.613859e-04 2.639275e-04 2.655710e-04 2.666802e-04 2.703316e-04 2.705105e-04 2.760014e-04 2.756565e-04 2.825475e-04 2.819659e-04 2.896070e-04 2.889528e-04 2.965655e-04 2.958927e-04 3.026605e-04 3.019379e-04 3.070956e-04 3.062414e-04 3.091527e-04 3.080728e-04 3.082906e-04 3.069156e-04 3.042186e-04 3.025308e-04 2.969314e-04 2.949738e-04 2.866946e-04 2.845587e-04 2.739782e-04 2.717742e-04 2.593508e-04 2.571700e-04 2.433630e-04 2.412501e-04 2.264563e-04 2.244040e-04 2.089295e-04 2.068987e-04 1.909676e-04 1.889240e-04 1.727154e-04 1.706631e-04 1.543563e-04 1.523553e-04 1.361642e-04 1.343223e-04 1.185067e-04 1.169531e-04 1.018060e-04 1.006571e-04 8.647685e-05 8.580887e-05 7.286661e-05 7.270174e-05 6.121469e-05 6.152175e-05 5.163796e-05 5.234328e-05 4.413782e-05 4.514010e-05 3.862028e-05 3.980414e-05 
6.111636e-05 6.096502e-05 5.563744e-05 5.540317e-05 5.179576e-05 5.144415e-05 4.942778e-05 4.889110e-05 4.828930e-05 4.747341e-05 4.807646e-05 4.687289e-05 4.845114e-05 4.675335e-05 4.906909e-05 4.679146e-05 4.960923e-05 4.670721e-05 4.980272e-05 4.629223e-05 4.946042e-05 4.543464e-05 4.849764e-05 4.413956e-05 4.695532e-05 4.254512e-05 4.501766e-05 4.093473e-05 4.302612e-05 3.974576e-05 4.148870e-05 3.957237e-05 4.107950e-05 4.115471e-05 4.261768e-05 4.534091e-05 4.701047e-05 5.300620e-05 5.514704e-05 6.492095e-05 6.774362e-05 8.157927e-05 8.516367e-05 1.030243e-04 1.072596e-04 1.287246e-04 1.332915e-04 1.575535e-04 1.619658e-04 1.879003e-04 1.916016e-04 2.179000e-04 2.203954e-04 2.457354e-04 2.467217e-04 2.699379e-04 2.693985e-04 2.896181e-04 2.878537e-04 3.045732e-04 3.021627e-04 3.152569e-04 3.129554e-04 3.226270e-04 3.212260e-04 3.279148e-04 3.280957e-04 3.323711e-04 3.345828e-04 3.370419e-04 3.414237e-04 3.426114e-04 3.489716e-04 3.493282e-04 3.571748e-04 3.570098e-04 3.656188e-04 3.651055e-04 3.736108e-04 3.727965e-04 3.802842e-04 3.791135e-04 3.847123e-04 3.830625e-04 3.860230e-04 3.837514e-04 3.835133e-04 3.805094e-04 3.767537e-04 3.729895e-04 3.656709e-04 3.612369e-04 3.505885e-04 3.457024e-04 3.322030e-04 3.271853e-04 3.114870e-04 3.067067e-04 2.895322e-04 2.853372e-04 2.673687e-04 2.640218e-04 2.458115e-04 2.434504e-04 2.253715e-04 2.239995e-04 2.062497e-04 2.057538e-04 1.884005e-04 1.885877e-04 1.716367e-04 1.722766e-04 1.557411e-04 1.566061e-04 1.405553e-04 1.414517e-04 1.260301e-04 1.268178e-04 1.122363e-04 1.128359e-04 9.934252e-05 9.973034e-05 8.757348e-05 8.776762e-05 7.716143e-05 7.720259e-05 6.830130e-05 6.823245e-05 
4.189181e-05 4.304550e-05 3.852298e-05 3.963798e-05 3.701531e-05 3.795359e-05 3.700989e-05 3.763588e-05 3.813695e-05 3.831700e-05 4.002140e-05 3.962762e-05 4.229104e-05 4.121071e-05 4.458983e-05 4.274001e-05 4.659650e-05 4.394258e-05 4.804800e-05 4.462370e-05 4.876552e-05 4.469127e-05 4.868021e-05 4.417708e-05 4.785623e-05 4.325356e-05 4.650969e-05 4.224609e-05 4.502372e-05 4.164234e-05 4.395973e-05 4.209774e-05 4.406132e-05 4.443013e-05 4.623910e-05 4.958709e-05 5.151665e-05 5.856392e-05 6.091713e-05 7.225729e-05 7.528608e-05 9.126362e-05 9.507574e-05 1.156656e-04 1.201488e-04 1.448748e-04 1.496724e-04 1.775994e-04 1.821583e-04 2.119719e-04 2.156596e-04 2.458248e-04 2.480881e-04 2.770526e-04 2.775737e-04 3.039710e-04 3.027781e-04 3.255896e-04 3.230896e-04 3.417346e-04 3.386595e-04 3.530061e-04 3.502846e-04 3.605900e-04 3.591750e-04 3.659777e-04 3.666678e-04 3.706615e-04 3.739537e-04 3.758675e-04 3.818682e-04 3.823735e-04 3.907791e-04 3.904287e-04 4.005720e-04 3.997695e-04 4.107136e-04 4.097067e-04 4.203650e-04 4.192558e-04 4.285177e-04 4.272896e-04 4.341375e-04 4.326959e-04 4.363044e-04 4.345280e-04 4.343379e-04 4.321321e-04 4.278943e-04 4.252346e-04 4.170175e-04 4.139689e-04 4.021238e-04 3.988265e-04 3.839096e-04 3.805322e-04 3.631926e-04 3.598693e-04 3.407295e-04 3.375110e-04 3.170756e-04 3.139201e-04 2.925435e-04 2.893557e-04 2.672743e-04 2.639736e-04 2.413814e-04 2.379656e-04 2.150961e-04 2.116682e-04 1.888471e-04 1.855957e-04 1.632450e-04 1.603909e-04 1.389906e-04 1.367243e-04 1.167511e-04 1.151882e-04 9.705503e-05 9.621926e-05 8.023392e-05 8.006695e-05 6.641497e-05 6.680132e-05 5.555050e-05 5.634501e-05 4.746343e-05 4.851258e-05 
7.376099e-05 7.265746e-05 6.549504e-05 6.440219e-05 5.956067e-05 5.845189e-05 5.573513e-05 5.452968e-05 5.368895e-05 5.226121e-05 5.301396e-05 5.121045e-05 5.325677e-05 5.091955e-05 5.395594e-05 5.095042e-05 5.468115e-05 5.092600e-05 5.507242e-05 5.056824e-05 5.487667e-05 4.972994e-05 5.397895e-05 4.841826e-05 5.242633e-05 4.680939e-05 5.044469e-05 4.525723e-05 4.845111e-05 4.430011e-05 4.706506e-05 4.466812e-05 4.711706e-05 4.728452e-05 4.964173e-05 5.324085e-05 5.582874e-05 6.371431e-05 6.690089e-05 7.980230e-05 8.390646e-05 1.022793e-04 1.074537e-04 1.313281e-04 1.374600e-04 1.663337e-04 1.730080e-04 2.058289e-04 2.123820e-04 2.476391e-04 2.532997e-04 2.892102e-04 2.932908e-04 3.280408e-04 3.301267e-04 3.621114e-04 3.621924e-04 3.902042e-04 3.887129e-04 4.120451e-04 4.097919e-04 4.282485e-04 4.262700e-04 4.400940e-04 4.394518e-04 4.492009e-04 4.507769e-04 4.571798e-04 4.615108e-04 4.653352e-04 4.725188e-04 4.744715e-04 4.841537e-04 4.848180e-04 4.962542e-04 4.960590e-04 5.082239e-04 5.074334e-04 5.191501e-04 5.178680e-04 5.279341e-04 5.261223e-04 5.334208e-04 5.309359e-04 5.345259e-04 5.311764e-04 5.303667e-04 5.259863e-04 5.203949e-04 5.149203e-04 5.045173e-04 4.980526e-04 4.831746e-04 4.760176e-04 4.573343e-04 4.499474e-04 4.283663e-04 4.212932e-04 3.978120e-04 3.915647e-04 3.671073e-04 3.620631e-04 3.373477e-04 3.336871e-04 3.091637e-04 3.068632e-04 2.827330e-04 2.816004e-04 2.578997e-04 2.576353e-04 2.343480e-04 2.346100e-04 2.117680e-04 2.122304e-04 1.899748e-04 1.903706e-04 1.689618e-04 1.691087e-04 1.488952e-04 1.487046e-04 1.300677e-04 1.295364e-04 1.128327e-04 1.120210e-04 9.753532e-05 9.653769e-05 8.445446e-05 8.336785e-05 
4.609601e-05 4.672993e-05 4.088275e-05 4.153018e-05 3.812347e-05 3.863641e-05 3.736421e-05 3.759160e-05 3.814721e-05 3.792969e-05 4.000985e-05 3.918290e-05 4.248975e-05 4.089673e-05 4.513945e-05 4.265381e-05 4.755110e-05 4.410524e-05 4.938929e-05 4.500562e-05 5.042739e-05 4.524593e-05 5.058163e-05 4.487859e-05 4.993715e-05 4.413145e-05 4.876412e-05 4.341257e-05 4.752686e-05 4.331284e-05 4.689347e-05 4.461416e-05 4.774969e-05 4.830115e-05 5.120655e-05 5.555395e-05 5.856831e-05 6.767913e-05 7.121528e-05 8.593679e-05 9.037401e-05 1.112596e-04 1.168008e-04 1.439231e-04 1.504682e-04 1.832813e-04 1.903750e-04 2.276839e-04 2.345769e-04 2.746406e-04 2.804591e-04 3.212104e-04 3.251872e-04 3.645191e-04 3.662192e-04 4.022682e-04 4.017423e-04 4.331104e-04 4.309334e-04 4.568084e-04 4.539930e-04 4.741598e-04 4.719677e-04 4.867247e-04 4.864204e-04 4.964347e-04 4.990383e-04 5.051798e-04 5.112703e-04 5.144593e-04 5.240669e-04 5.251607e-04 5.377610e-04 5.374827e-04 5.520828e-04 5.509857e-04 5.662698e-04 5.647235e-04 5.792231e-04 5.774148e-04 5.896765e-04 5.876304e-04 5.963623e-04 5.939820e-04 5.981706e-04 5.953046e-04 5.942980e-04 5.908166e-04 5.843715e-04 5.802378e-04 5.685252e-04 5.638362e-04 5.473963e-04 5.423699e-04 5.220051e-04 5.169075e-04 4.935178e-04 4.885528e-04 4.629531e-04 4.581707e-04 4.309558e-04 4.262347e-04 3.977471e-04 3.928712e-04 3.632848e-04 3.580764e-04 3.275499e-04 3.219891e-04 2.908155e-04 2.850849e-04 2.537687e-04 2.482051e-04 2.174422e-04 2.124271e-04 1.830070e-04 1.788518e-04 1.515303e-04 1.484035e-04 1.237952e-04 1.217082e-04 1.002259e-04 9.906599e-05 8.091080e-05 8.049436e-05 6.568310e-05 6.580492e-05 5.421505e-05 5.467982e-05 
8.389726e-05 8.106576e-05 7.174350e-05 6.912445e-05 6.283214e-05 6.041593e-05 5.685887e-05 5.455036e-05 5.338464e-05 5.101556e-05 5.187143e-05 4.922405e-05 5.172439e-05 4.856465e-05 5.233932e-05 4.845735e-05 5.315427e-05 4.840879e-05 5.370251e-05 4.806372e-05 5.366204e-05 4.724639e-05 5.289514e-05 4.598581e-05 5.147265e-05 4.452284e-05 4.968212e-05 4.330372e-05 4.802665e-05 4.297251e-05 4.722816e-05 4.437765e-05 4.824648e-05 4.859611e-05 5.230585e-05 5.694976e-05 6.088655e-05 7.095481e-05 7.561500e-05 9.213875e-05 9.800289e-05 1.217055e-04 1.290581e-04 1.601190e-04 1.688801e-04 2.067528e-04 2.164022e-04 2.597636e-04 2.694081e-04 3.162752e-04 3.248528e-04 3.728441e-04 3.794061e-04 4.260803e-04 4.300639e-04 4.732537e-04 4.746644e-04 5.127325e-04 5.121864e-04 5.441610e-04 5.427789e-04 5.683598e-04 5.675425e-04 5.870008e-04 5.881424e-04 6.021531e-04 6.063579e-04 6.158129e-04 6.236781e-04 6.295217e-04 6.410277e-04 6.441395e-04 6.586631e-04 6.597919e-04 6.762204e-04 6.759518e-04 6.928571e-04 6.915953e-04 7.074185e-04 7.053737e-04 7.185884e-04 7.157771e-04 7.250158e-04 7.212889e-04 7.254335e-04 7.205401e-04 7.187878e-04 7.124750e-04 7.043945e-04 6.965284e-04 6.821160e-04 6.727968e-04 6.525158e-04 6.421417e-04 6.169033e-04 6.061415e-04 5.771868e-04 5.668412e-04 5.355273e-04 5.263500e-04 4.939014e-04 4.864222e-04 4.537349e-04 4.481708e-04 4.157364e-04 4.119960e-04 3.799599e-04 3.777170e-04 3.460336e-04 3.448297e-04 3.134467e-04 3.127888e-04 2.817918e-04 2.812299e-04 2.509065e-04 2.500879e-04 2.209073e-04 2.196090e-04 1.921435e-04 1.902819e-04 1.651077e-04 1.627263e-04 1.403365e-04 1.375729e-04 1.183204e-04 1.153610e-04 9.943525e-05 9.646680e-05 
4.638501e-05 4.585804e-05 3.853222e-05 3.812243e-05 3.381783e-05 3.338628e-05 3.168790e-05 3.107944e-05 3.159729e-05 3.062725e-05 3.299500e-05 3.145110e-05 3.532259e-05 3.298354e-05 3.802996e-05 3.469973e-05 4.060932e-05 3.616285e-05 4.264336e-05 3.707617e-05 4.385922e-05 3.733031e-05 4.417606e-05 3.703339e-05 4.373362e-05 3.651558e-05 4.289596e-05 3.631063e-05 4.223670e-05 3.713131e-05 4.252825e-05 3.986661e-05 4.476084e-05 4.561893e-05 5.019462e-05 5.575934e-05 6.039664e-05 7.192314e-05 7.716610e-05 9.584282e-05 1.022619e-04 1.289692e-04 1.369398e-04 1.719565e-04 1.814398e-04 2.242044e-04 2.346393e-04 2.836718e-04 2.940484e-04 3.470794e-04 3.561870e-04 4.104668e-04 4.172370e-04 4.699386e-04 4.737733e-04 5.223863e-04 5.233708e-04 5.660011e-04 5.649442e-04 6.004711e-04 5.987657e-04 6.268479e-04 6.261931e-04 6.471524e-04 6.492046e-04 6.638332e-04 6.698651e-04 6.792120e-04 6.898539e-04 6.950377e-04 7.101530e-04 7.122313e-04 7.309429e-04 7.308402e-04 7.516832e-04 7.501533e-04 7.712994e-04 7.688982e-04 7.883962e-04 7.854581e-04 8.014504e-04 7.980843e-04 8.089827e-04 8.051069e-04 8.097210e-04 8.051439e-04 8.027628e-04 7.972966e-04 7.877310e-04 7.813113e-04 7.648984e-04 7.576698e-04 7.352258e-04 7.275426e-04 7.002241e-04 6.925333e-04 6.615931e-04 6.542293e-04 6.207225e-04 6.137249e-04 5.782919e-04 5.713668e-04 5.342108e-04 5.268855e-04 4.879643e-04 4.798573e-04 4.391950e-04 4.302492e-04 3.882113e-04 3.787667e-04 3.361714e-04 3.268485e-04 2.848776e-04 2.763503e-04 2.363224e-04 2.291015e-04 1.922181e-04 1.865364e-04 1.536951e-04 1.495140e-04 1.212322e-04 1.183283e-04 9.476437e-05 9.283825e-05 7.387109e-05 7.263201e-05 5.795802e-05 5.716671e-05 
9.029175e-05 8.461515e-05 7.276119e-05 6.766656e-05 5.966786e-05 5.516994e-05 5.058690e-05 4.656856e-05 4.493096e-05 4.116035e-05 4.199382e-05 3.815669e-05 4.100075e-05 3.674680e-05 4.116724e-05 3.616884e-05 4.176670e-05 3.578556e-05 4.220406e-05 3.515736e-05 4.208663e-05 3.410014e-05 4.127866e-05 3.271414e-05 3.992542e-05 3.137473e-05 3.844013e-05 3.068945e-05 3.746364e-05 3.144592e-05 3.782980e-05 3.459292e-05 4.058050e-05 4.129106e-05 4.704901e-05 5.301734e-05 5.895677e-05 7.162196e-05 7.838745e-05 9.918304e-05 1.074980e-04 1.375651e-04 1.479510e-04 1.877632e-04 2.002443e-04 2.492886e-04 2.632352e-04 3.198935e-04 3.341000e-04 3.957961e-04 4.087852e-04 4.723556e-04 4.828028e-04 5.449801e-04 5.521135e-04 6.099911e-04 6.138449e-04 6.652218e-04 6.666758e-04 7.102279e-04 7.108336e-04 7.461091e-04 7.477557e-04 7.750324e-04 7.795380e-04 7.995991e-04 8.083205e-04 8.222149e-04 8.357622e-04 8.446048e-04 8.627217e-04 8.675686e-04 8.891959e-04 8.909871e-04 9.144693e-04 9.140045e-04 9.373642e-04 9.352699e-04 9.564720e-04 9.531513e-04 9.703100e-04 9.659007e-04 9.774128e-04 9.717885e-04 9.764024e-04 9.692374e-04 9.660817e-04 9.569839e-04 9.455979e-04 9.342968e-04 9.147018e-04 9.012565e-04 8.740536e-04 8.589956e-04 8.253999e-04 8.097124e-04 7.714175e-04 7.563156e-04 7.151703e-04 7.017682e-04 6.593816e-04 6.484061e-04 6.058483e-04 5.975151e-04 5.552354e-04 5.492985e-04 5.072699e-04 5.031750e-04 4.611843e-04 4.582416e-04 4.161937e-04 4.137149e-04 3.718335e-04 3.692237e-04 3.280929e-04 3.249079e-04 2.853735e-04 2.813577e-04 2.443558e-04 2.394555e-04 2.058413e-04 2.001880e-04 1.706151e-04 1.644766e-04 1.393396e-04 1.330505e-04 1.124850e-04 1.063730e-04 
4.138559e-05 3.874757e-05 2.979831e-05 2.746087e-05 2.212033e-05 1.998270e-05 1.769846e-05 1.561601e-05 1.590480e-05 1.366417e-05 1.609917e-05 1.341869e-05 1.761607e-05 1.417299e-05 1.978192e-05 1.526552e-05 2.196376e-05 1.614886e-05 2.364406e-05 1.647254e-05 2.450710e-05 1.615862e-05 2.451350e-05 1.544417e-05 2.393598e-05 1.486978e-05 2.333747e-05 1.521062e-05 2.349735e-05 1.737938e-05 2.533099e-05 2.236672e-05 2.987917e-05 3.129340e-05 3.842339e-05 4.558415e-05 5.267876e-05 6.713903e-05 7.487616e-05 9.826908e-05 1.075039e-04 1.412200e-04 1.526388e-04 1.973542e-04 2.110817e-04 2.663326e-04 2.817056e-04 3.457099e-04 3.613573e-04 4.311750e-04 4.453910e-04 5.173686e-04 5.286376e-04 5.989860e-04 6.064698e-04 6.718163e-04 6.756512e-04 7.334419e-04 7.347706e-04 7.834668e-04 7.842130e-04 8.232846e-04 8.257402e-04 8.555010e-04 8.618309e-04 8.831831e-04 8.949553e-04 9.091168e-04 9.269617e-04 9.352414e-04 9.587144e-04 9.623768e-04 9.900462e-04 9.902550e-04 1.019967e-03 1.017756e-03 1.046981e-03 1.043200e-03 1.069368e-03 1.064603e-03 1.085379e-03 1.079895e-03 1.093378e-03 1.087131e-03 1.091985e-03 1.084716e-03 1.080228e-03 1.071641e-03 1.057742e-03 1.047706e-03 1.024978e-03 1.013710e-03 9.833667e-04 9.714781e-04 9.352088e-04 9.235095e-04 8.831048e-04 8.722008e-04 8.290401e-04 8.189438e-04 7.736132e-04 7.636581e-04 7.159513e-04 7.051183e-04 6.544610e-04 6.419433e-04 5.880290e-04 5.737021e-04 5.170081e-04 5.015427e-04 4.434766e-04 4.280570e-04 3.706954e-04 3.565378e-04 3.021235e-04 2.900647e-04 2.405108e-04 2.308392e-04 1.874233e-04 1.799549e-04 1.432509e-04 1.375387e-04 1.075271e-04 1.030725e-04 7.933062e-05 7.572149e-05 5.761206e-05 5.457042e-05 
9.139098e-05 8.128353e-05 6.649802e-05 5.759844e-05 4.759768e-05 3.994496e-05 3.407875e-05 2.751386e-05 2.514516e-05 1.933543e-05 1.986568e-05 1.434788e-05 1.722972e-05 1.147304e-05 1.621640e-05 9.706426e-06 1.588289e-05 8.222916e-06 1.547033e-05 6.486855e-06 1.451354e-05 4.343450e-06 1.292798e-05 2.061426e-06 1.104180e-05 3.015425e-07 9.547971e-06 5.203334e-09 9.380231e-06 2.236579e-06 1.156882e-05 8.066228e-06 1.718828e-05 1.861448e-05 2.750291e-05 3.530476e-05 4.428026e-05 6.018324e-05 7.002081e-05 9.596744e-05 1.077463e-04 1.455242e-04 1.601891e-04 2.108221e-04 2.286484e-04 2.918180e-04 3.120813e-04 3.858660e-04 4.069197e-04 4.879773e-04 5.077211e-04 5.918345e-04 6.083751e-04 6.911576e-04 7.034120e-04 7.809634e-04 7.890129e-04 8.583802e-04 8.634917e-04 9.228777e-04 9.272163e-04 9.759486e-04 9.820774e-04 1.020403e-03 1.030699e-03 1.059485e-03 1.075597e-03 1.096023e-03 1.118498e-03 1.131819e-03 1.159975e-03 1.167406e-03 1.199492e-03 1.202192e-03 1.235744e-03 1.234814e-03 1.267097e-03 1.263524e-03 1.291902e-03 1.286429e-03 1.308630e-03 1.301629e-03 1.315868e-03 1.307285e-03 1.312280e-03 1.301692e-03 1.296595e-03 1.283382e-03 1.267734e-03 1.251368e-03 1.225180e-03 1.205606e-03 1.169591e-03 1.147532e-03 1.103286e-03 1.080256e-03 1.030114e-03 1.008014e-03 9.545303e-04 9.350287e-04 8.803088e-04 8.643539e-04 8.095873e-04 7.972713e-04 7.426751e-04 7.334166e-04 6.785673e-04 6.714306e-04 6.158077e-04 6.097864e-04 5.532777e-04 5.474630e-04 4.906258e-04 4.842799e-04 4.282911e-04 4.208876e-04 3.672675e-04 3.585350e-04 3.088026e-04 2.987543e-04 2.541495e-04 2.430679e-04 2.044015e-04 1.927656e-04 1.603941e-04 1.487697e-04 1.226554e-04 1.115804e-04 