# vtk DataFile Version 2.0
Comment goes here
ASCII

DATASET STRUCTURED_POINTS
FIELD FieldData 1
TIME 1 1 double
0.05500000
DIMENSIONS    128   128   1

ORIGIN    0.000   0.000   0.000
SPACING   0.039062 0.039062   1.000

POINT_DATA   16384
SCALARS Omega double
LOOKUP_TABLE default

-3.493950e-14 -4.466541e-14 -3.812902e-14 -2.080486e-14 -4.907294e-15 1.091581e-14 1.075406e-14 3.278401e-15 9.677484e-15 1.951739e-14 2.220617e-14 9.503020e-15 -2.424305e-14 -1.724631e-14 -4.629663e-15 -6.328612e-15 2.435272e-16 7.112526e-15 1.776534e-15 -1.093089e-15 -1.290501e-14 6.200385e-15 -1.975799e-14 2.093040e-16 2.253904e-14 2.943028e-14 9.036654e-15 4.338179e-14 3.023494e-14 6.485903e-15 4.552943e-14 4.806183e-14 4.123532e-14 4.077082e-14 1.021100e-14 -1.902918e-14 -3.884874e-14 -3.973527e-15 -7.751621e-14 -3.944063e-14 -1.652359e-14 1.801140e-14 5.025252e-15 -6.979910e-15 -3.897459e-14 -3.689648e-14 -1.666772e-14 -3.300058e-14 -4.482138e-15 1.955516e-14 2.239417e-14 4.554099e-14 5.326620e-14 4.000703e-14 4.828155e-14 3.630128e-14 3.690422e-14 4.824495e-14 7.558814e-14 4.796874e-14 1.366332e-14 -8.871807e-15 -1.921487e-14 -2.506985e-14 -1.715087e-14 -1.600252e-15 -6.095257e-15 -2.753421e-14 -3.147435e-14 -3.345670e-14 6.676807e-15 -5.758072e-15 1.214082e-14 -4.066466e-14 -3.935538e-14 -3.047213e-14 -3.590584e-14 -1.981978e-14 -5.650612e-14 -2.412195e-14 -1.272527e-14 1.066269e-13 -1.451240e-14 7.422523e-14 4.653968e-14 -1.516655e-15 -2.186179e-14 -4.667140e-14 -2.673712e-14 -8.632723e-15 -2.050978e-14 -1.149780e-15 3.713533e-14 1.257129e-14 -5.346139e-15 1.401380e-14 3.415435e-14 4.117722e-15 -8.549169e-15 2.064906e-14 4.167608e-15 -1.004334e-14 -3.482850e-15 1.768893e-15 1.638174e-14 -4.158750e-15 -1.086241e-14 1.432716e-15 1.142588e-14 3.463002e-14 2.391710e-14 2.733133e-14 4.038375e-14 3.961736e-14 3.206635e-14 6.207925e-15 -8.776584e-15 -1.360892e-14 -1.431258e-14 -6.021753e-15 -6.709759e-15 -1.012573e-14 -1.331700e-14 -2.345913e-14 -2.288476e-14 -1.851559e-14 -1.854476e-14 -2.405789e-14 
4.593857e-07 -8.253708e-08 7.548834e-07 2.894410e-07 1.082403e-06 7.011901e-07 1.405174e-06 1.125727e-06 1.688812e-06 1.539270e-06 1.901804e-06 1.921711e-06 2.016390e-06 2.257205e-06 2.009931e-06 2.534908e-06 1.866808e-06 2.749907e-06 1.580832e-06 2.904396e-06 1.158074e-06 3.009140e-06 6.199556e-07 3.085240e-06 6.304190e-09 3.166061e-06 -6.220991e-07 3.298939e-06 -1.182273e-06 3.545930e-06 -1.570200e-06 3.982446e-06 -1.665759e-06 4.692439e-06 -1.342619e-06 5.759122e-06 -4.834554e-07 7.251227e-06 1.000682e-06 9.206508e-06 3.150016e-06 1.161600e-05 5.939439e-06 1.441362e-05 9.270785e-06 1.747539e-05 1.297769e-05 2.063052e-05 1.684379e-05 2.368321e-05 2.063127e-05 2.644139e-05 2.411409e-05 2.874586e-05 2.710849e-05 3.049383e-05 2.949472e-05 3.165227e-05 3.122600e-05 3.225909e-05 3.232442e-05 3.241342e-05 3.286618e-05 3.225796e-05 3.296056e-05 3.195719e-05 3.272759e-05 3.167490e-05 3.227880e-05 3.155367e-05 3.170397e-05 3.169764e-05 3.106528e-05 3.215954e-05 3.039842e-05 3.293245e-05 2.971865e-05 3.394720e-05 2.902892e-05 3.507647e-05 2.832691e-05 3.614666e-05 2.760844e-05 3.695793e-05 2.686646e-05 3.731127e-05 2.608657e-05 3.703876e-05 2.524195e-05 3.603172e-05 2.429151e-05 3.426022e-05 2.318392e-05 3.177877e-05 2.186799e-05 2.871658e-05 2.030703e-05 2.525477e-05 1.849232e-05 2.159678e-05 1.645104e-05 1.793921e-05 1.424577e-05 1.444937e-05 1.196564e-05 1.125259e-05 9.712190e-06 8.429209e-06 7.583998e-06 6.018944e-06 5.663976e-06 4.029176e-06 4.011458e-06 2.444364e-06 2.659584e-06 1.234500e-06 1.616994e-06 3.616662e-07 8.722383e-07 -2.154301e-07 3.992396e-07 -5.386565e-07 1.625771e-07 -6.489010e-07 1.218413e-07 -5.853051e-07 2.347935e-07 -3.849193e-07 
1.105507e-06 -3.448894e-08 1.611723e-06 6.215491e-07 2.177220e-06 1.354873e-06 2.732139e-06 2.115024e-06 3.211223e-06 2.858058e-06 3.555187e-06 3.547759e-06 3.712610e-06 4.156813e-06 3.642526e-06 4.668009e-06 3.317836e-06 5.075595e-06 2.729563e-06 5.386989e-06 1.891882e-06 5.625070e-06 8.477225e-07 5.831169e-06 -3.254804e-07 6.068661e-06 -1.510741e-06 6.426491e-06 -2.548646e-06 7.021206e-06 -3.238899e-06 7.995158e-06 -3.349103e-06 9.508041e-06 -2.633410e-06 1.171943e-05 -8.620837e-07 1.476202e-05 2.140116e-06 1.870882e-05 6.452925e-06 2.354107e-05 1.202652e-05 2.912657e-05 1.866497e-05 3.521699e-05 2.603496e-05 4.146914e-05 3.370165e-05 4.748856e-05 4.118603e-05 5.288718e-05 4.803208e-05 5.734304e-05 5.386935e-05 6.064901e-05 5.845803e-05 6.274133e-05 6.170884e-05 6.370393e-05 6.367616e-05 6.375024e-05 6.452919e-05 6.318816e-05 6.450957e-05 6.237540e-05 6.388486e-05 6.167185e-05 6.290668e-05 6.139390e-05 6.177943e-05 6.177403e-05 6.064299e-05 6.292814e-05 5.956927e-05 6.483321e-05 5.857032e-05 6.731863e-05 5.761359e-05 7.007538e-05 5.663947e-05 7.268631e-05 5.557632e-05 7.467814e-05 5.435021e-05 7.559047e-05 5.288893e-05 7.505123e-05 5.112261e-05 7.284290e-05 4.898498e-05 6.894339e-05 4.641915e-05 6.352997e-05 4.338887e-05 5.694444e-05 3.989280e-05 4.962894e-05 3.597618e-05 4.204984e-05 3.173449e-05 3.462916e-05 2.730628e-05 2.769788e-05 2.285659e-05 2.147681e-05 1.855559e-05 1.608163e-05 1.455791e-05 1.154351e-05 1.098724e-05 7.835458e-06 7.927990e-06 4.896742e-06 5.423888e-06 2.651275e-06 3.481733e-06 1.019071e-06 2.078065e-06 -7.807796e-08 1.166829e-06 -7.147396e-07 6.866214e-07 -9.619070e-07 5.667607e-07 -8.876401e-07 7.319362e-07 -5.575016e-07 
1.108249e-06 -5.311262e-07 1.977563e-06 5.664834e-07 2.947801e-06 1.786989e-06 3.908970e-06 3.049919e-06 4.757911e-06 4.284298e-06 5.399640e-06 5.430066e-06 5.749963e-06 6.439885e-06 5.739686e-06 7.281425e-06 5.320492e-06 7.940196e-06 4.472407e-06 8.423082e-06 3.212501e-06 8.762669e-06 1.604310e-06 9.022412e-06 -2.329011e-07 9.302315e-06 -2.116393e-06 9.744119e-06 -3.795964e-06 1.053389e-05 -4.956999e-06 1.189855e-05 -5.234715e-06 1.409224e-05 -4.243466e-06 1.736889e-05 -1.622670e-06 2.194073e-05 2.903926e-06 2.792759e-05 9.465156e-06 3.530768e-05 1.799033e-05 4.388452e-05 2.818434e-05 5.328337e-05 3.954174e-05 6.298445e-05 5.140245e-05 7.239000e-05 6.303982e-05 8.091237e-05 7.376290e-05 8.806390e-05 8.301053e-05 9.352923e-05 9.041772e-05 9.720584e-05 9.584270e-05 9.920746e-05 9.935330e-05 9.983384e-05 1.011807e-04 9.951648e-05 1.016539e-04 9.875204e-05 1.011310e-04 9.803429e-05 9.994019e-05 9.779210e-05 9.834023e-05 9.833787e-05 9.650457e-05 9.982863e-05 9.452743e-05 1.022411e-04 9.244553e-05 1.053634e-04 9.026572e-05 1.088060e-04 8.798815e-05 1.120372e-04 8.561646e-05 1.144434e-04 8.315186e-05 1.154127e-04 8.057474e-05 1.144293e-04 7.782358e-05 1.111626e-04 7.478448e-05 1.055293e-04 7.130142e-05 9.771087e-05 6.720967e-05 8.812151e-05 6.238398e-05 7.733467e-05 5.678535e-05 6.598771e-05 5.048935e-05 5.468977e-05 4.368604e-05 4.395224e-05 3.665167e-05 3.415145e-05 2.970259e-05 2.552227e-05 2.314544e-05 1.817423e-05 1.723629e-05 1.211916e-05 1.215611e-05 7.301143e-06 8.003308e-06 3.622719e-06 4.800230e-06 9.647142e-07 2.507790e-06 -8.003812e-07 1.043126e-06 -1.800367e-06 2.962092e-07 -2.159041e-06 1.432444e-07 -1.994210e-06 4.561231e-07 -1.416912e-06 
1.682847e-06 -6.292269e-07 2.653606e-06 6.391489e-07 3.753213e-06 2.069607e-06 4.842177e-06 3.561832e-06 5.789723e-06 5.028523e-06 6.476335e-06 6.397867e-06 6.797518e-06 7.615965e-06 6.669163e-06 8.649304e-06 6.034681e-06 9.487499e-06 4.873892e-06 1.014662e-05 3.213404e-06 1.067352e-05 1.138002e-06 1.115143e-05 -1.197791e-06 1.170683e-05 -3.559491e-06 1.251655e-05 -5.626437e-06 1.381253e-05 -6.993913e-06 1.587968e-05 -7.189391e-06 1.904072e-05 -5.708819e-06 2.362252e-05 -2.075993e-06 2.990226e-05 4.078488e-06 3.803939e-05 1.293111e-05 4.800761e-05 2.439253e-05 5.954715e-05 3.807064e-05 7.215671e-05 5.328682e-05 8.513581e-05 6.914959e-05 9.767442e-05 8.467379e-05 1.089728e-04 9.892053e-05 1.183652e-04 1.111273e-04 1.254212e-04 1.208011e-04 1.300044e-04 1.277586e-04 1.322809e-04 1.321104e-04 1.326811e-04 1.341999e-04 1.318282e-04 1.345143e-04 1.304463e-04 1.335876e-04 1.292643e-04 1.319151e-04 1.289233e-04 1.298904e-04 1.298953e-04 1.277731e-04 1.324168e-04 1.256860e-04 1.364408e-04 1.236364e-04 1.416170e-04 1.215519e-04 1.473060e-04 1.193193e-04 1.526395e-04 1.168150e-04 1.566269e-04 1.139225e-04 1.583018e-04 1.105334e-04 1.568853e-04 1.065407e-04 1.519312e-04 1.018336e-04 1.434163e-04 9.630519e-05 1.317477e-04 8.987646e-05 1.176831e-04 8.253139e-05 1.021854e-04 7.434810e-05 8.625289e-05 6.551205e-05 7.077024e-05 5.630345e-05 5.641139e-05 4.706197e-05 4.360621e-05 3.813970e-05 3.255999e-05 2.985600e-05 2.330461e-05 2.246411e-05 1.575859e-05 1.613402e-05 9.779701e-06 1.095050e-05 5.202332e-06 6.922058e-06 1.859154e-06 3.995861e-06 -4.094646e-07 2.074228e-06 -1.753490e-06 1.029868e-06 -2.314608e-06 7.183359e-07 -2.228228e-06 9.872929e-07 -1.624687e-06 
9.355263e-07 -1.841366e-06 2.325587e-06 -7.445029e-08 3.899745e-06 1.908904e-06 5.475835e-06 3.976107e-06 6.882007e-06 6.010065e-06 7.958493e-06 7.911547e-06 8.561908e-06 9.602363e-06 8.572601e-06 1.102939e-05 7.905148e-06 1.216953e-05 6.521605e-06 1.303559e-05 4.446781e-06 1.368330e-05 1.784422e-06 1.421939e-05 -1.267122e-06 1.481059e-05 -4.401775e-06 1.569228e-05 -7.198398e-06 1.717387e-05 -9.124370e-06 1.963536e-05 -9.557240e-06 2.350741e-05 -7.831986e-06 2.922766e-05 -3.318102e-06 3.717081e-05 4.477689e-06 4.755990e-05 1.579913e-05 6.037735e-05 3.054525e-05 7.530259e-05 4.822252e-05 9.170173e-05 6.796663e-05 1.086831e-04 8.863920e-05 1.252142e-04 1.089828e-04 1.402759e-04 1.278016e-04 1.530207e-04 1.441260e-04 1.628989e-04 1.573288e-04 1.697284e-04 1.671696e-04 1.736990e-04 1.737678e-04 1.753186e-04 1.775184e-04 1.753176e-04 1.789748e-04 1.745343e-04 1.787267e-04 1.737987e-04 1.772983e-04 1.738280e-04 1.750828e-04 1.751417e-04 1.723216e-04 1.779969e-04 1.691244e-04 1.823463e-04 1.655183e-04 1.878220e-04 1.615056e-04 1.937505e-04 1.571105e-04 1.992083e-04 1.523965e-04 2.031243e-04 1.474461e-04 2.044254e-04 1.423129e-04 2.022087e-04 1.369638e-04 1.959063e-04 1.312436e-04 1.854010e-04 1.248844e-04 1.710594e-04 1.175702e-04 1.536679e-04 1.090358e-04 1.342895e-04 9.916902e-05 1.140825e-04 8.807465e-05 9.412894e-05 7.607908e-05 7.531230e-05 6.367612e-05 5.825858e-05 5.143615e-05 4.333559e-05 3.990911e-05 3.069122e-05 2.954734e-05 2.030891e-05 2.066166e-05 1.206346e-05 1.341142e-05 5.767176e-06 7.820149e-06 1.203209e-06 3.805439e-06 -1.853119e-06 1.212628e-06 -3.622204e-06 -1.548996e-07 -4.314255e-06 -5.123797e-07 -4.127030e-06 -7.807837e-08 -3.245372e-06 
1.177766e-06 -2.368743e-06 2.527074e-06 -5.776889e-07 4.094712e-06 1.474449e-06 5.672096e-06 3.638488e-06 7.062497e-06 5.784834e-06 8.084314e-06 7.807313e-06 8.576662e-06 9.627014e-06 8.407877e-06 1.119624e-05 7.487105e-06 1.250272e-05 5.778697e-06 1.357447e-05 3.318667e-06 1.448551e-05 2.322005e-07 1.536321e-05 -3.249046e-06 1.639740e-05 -6.771626e-06 1.785078e-05 -9.850122e-06 2.006760e-05 -1.186787e-05 2.347436e-05 -1.209754e-05 2.856226e-05 -9.752200e-06 3.584075e-05 -4.074232e-06 4.575669e-05 5.540807e-06 5.858602e-05 1.940398e-05 7.432072e-05 3.741012e-05 9.258533e-05 5.897164e-05 1.126169e-04 8.303935e-05 1.333277e-04 1.082182e-04 1.534474e-04 1.329584e-04 1.717135e-04 1.557810e-04 1.870705e-04 1.754855e-04 1.988307e-04 1.912985e-04 2.067665e-04 2.029340e-04 2.111227e-04 2.105647e-04 2.125545e-04 2.147201e-04 2.120141e-04 2.161414e-04 2.106087e-04 2.156269e-04 2.094523e-04 2.138970e-04 2.095262e-04 2.114996e-04 2.115553e-04 2.087673e-04 2.159055e-04 2.058243e-04 2.225069e-04 2.026336e-04 2.308127e-04 1.990641e-04 2.398118e-04 1.949599e-04 2.481132e-04 1.901895e-04 2.541131e-04 1.846644e-04 2.562366e-04 1.783238e-04 2.532175e-04 1.711000e-04 2.443532e-04 1.628882e-04 2.296646e-04 1.535460e-04 2.099074e-04 1.429345e-04 1.864233e-04 1.309895e-04 1.608733e-04 1.177918e-04 1.349331e-04 1.036045e-04 1.100350e-04 8.885794e-05 8.721548e-05 7.408962e-05 6.708060e-05 5.986124e-05 4.986307e-05 4.667933e-05 3.552702e-05 3.493898e-05 2.387748e-05 2.489714e-05 1.464816e-05 1.667250e-05 7.557767e-06 1.026322e-05 2.338116e-06 5.573546e-06 -1.257318e-06 2.441646e-06 -3.455150e-06 6.643787e-07 -4.467260e-06 1.668329e-08 -4.495418e-06 2.653383e-07 -3.733731e-06 
-6.443331e-07 -4.622766e-06 1.172603e-06 -2.285049e-06 3.279503e-06 3.788026e-07 5.424173e-06 3.186160e-06 7.366477e-06 5.975458e-06 8.879764e-06 8.609557e-06 9.756750e-06 1.098055e-05 9.820612e-06 1.301602e-05 8.941266e-06 1.468649e-05 7.055929e-06 1.601395e-05 4.192296e-06 1.708106e-05 4.922327e-07 1.804120e-05 -3.766154e-06 1.912934e-05 -8.150294e-06 2.067357e-05 -1.206200e-05 2.310447e-05 -1.473936e-05 2.695554e-05 -1.528178e-05 3.284265e-05 -1.271131e-05 4.140873e-05 -6.080390e-06 5.322556e-05 5.376215e-06 6.866005e-05 2.206754e-05 8.773312e-05 4.389308e-05 1.100147e-04 7.016001e-05 1.345983e-04 9.960938e-05 1.601790e-04 1.305607e-04 1.852291e-04 1.611486e-04 2.082326e-04 1.895989e-04 2.279256e-04 2.144790e-04 2.434855e-04 2.348703e-04 2.546339e-04 2.504306e-04 2.616389e-04 2.613452e-04 2.652300e-04 2.681922e-04 2.664541e-04 2.717594e-04 2.665051e-04 2.728574e-04 2.665560e-04 2.721667e-04 2.676118e-04 2.701475e-04 2.703920e-04 2.670228e-04 2.752437e-04 2.628298e-04 2.820821e-04 2.575192e-04 2.903630e-04 2.510660e-04 2.990936e-04 2.435548e-04 3.069017e-04 2.352066e-04 3.121786e-04 2.263299e-04 3.132989e-04 2.172088e-04 3.088934e-04 2.079683e-04 2.981220e-04 1.984762e-04 2.808696e-04 1.883386e-04 2.578006e-04 1.770070e-04 2.302441e-04 1.639700e-04 1.999424e-04 1.489541e-04 1.687398e-04 1.320574e-04 1.383007e-04 1.137651e-04 1.099251e-04 9.485400e-05 8.447692e-05 7.622815e-05 6.240978e-05 5.874912e-05 4.384794e-05 4.310680e-05 2.868550e-05 2.975313e-05 1.667639e-05 1.889549e-05 7.503366e-06 1.053157e-05 8.240520e-07 4.504171e-06 -3.701856e-06 5.579957e-07 -6.398738e-06 -1.612416e-06 -7.569491e-06 -2.328259e-06 -7.494495e-06 -1.905417e-06 -6.432621e-06 
-1.013319e-06 -5.882617e-06 5.785533e-07 -3.709087e-06 2.506242e-06 -1.156460e-06 4.493141e-06 1.578127e-06 6.276151e-06 4.324090e-06 7.608905e-06 6.942693e-06 8.269045e-06 9.332606e-06 8.070507e-06 1.143576e-05 6.880912e-06 1.324344e-05 4.643146e-06 1.480257e-05 1.399322e-06 1.622204e-05 -2.685095e-06 1.767990e-05 -7.298893e-06 1.943225e-05 -1.196585e-05 2.182526e-05 -1.603066e-05 2.530899e-05 -1.865548e-05 3.044603e-05 -1.883892e-05 3.790032e-05 -1.547495e-05 4.838591e-05 -7.468601e-06 6.256115e-05 6.089188e-06 8.087214e-05 2.571148e-05 1.033781e-04 5.132180e-05 1.296128e-04 8.214159e-05 1.585404e-04 1.167097e-04 1.886372e-04 1.530479e-04 2.180961e-04 1.889430e-04 2.451072e-04 2.222793e-04 2.681486e-04 2.513441e-04 2.862201e-04 2.750409e-04 2.989747e-04 2.929711e-04 3.067308e-04 3.053833e-04 3.103806e-04 3.130163e-04 3.112253e-04 3.168821e-04 3.107765e-04 3.180386e-04 3.105526e-04 3.173968e-04 3.118921e-04 3.155937e-04 3.157896e-04 3.129474e-04 3.227556e-04 3.094904e-04 3.327031e-04 3.050630e-04 3.448719e-04 2.994353e-04 3.578199e-04 2.924227e-04 3.695192e-04 2.839613e-04 3.775878e-04 2.741201e-04 3.796568e-04 2.630432e-04 3.738191e-04 2.508490e-04 3.590560e-04 2.375349e-04 3.355098e-04 2.229480e-04 3.045015e-04 2.068499e-04 2.682668e-04 1.890577e-04 2.294887e-04 1.695947e-04 1.907760e-04 1.487793e-04 1.542471e-04 1.272122e-04 1.213154e-04 1.056764e-04 9.268533e-05 8.499585e-05 6.849572e-05 6.590408e-05 4.852011e-05 4.895703e-05 3.235191e-05 3.449741e-05 1.953535e-05 2.266198e-05 9.636924e-06 1.341522e-05 2.270843e-06 6.593459e-06 -2.902055e-06 1.948389e-06 -6.186096e-06 -8.165311e-07 -7.863169e-06 -2.018993e-06 -8.201287e-06 -1.979939e-06 -7.458452e-06 
-4.267340e-06 -9.530238e-06 -2.167475e-06 -6.769831e-06 3.574926e-07 -3.553837e-06 2.989182e-06 -1.125104e-07 5.420315e-06 3.350080e-06 7.354577e-06 6.660438e-06 8.513865e-06 9.682567e-06 8.654083e-06 1.232727e-05 7.589284e-06 1.456321e-05 5.222271e-06 1.642856e-05 1.578173e-06 1.804212e-05 -3.163150e-06 1.961315e-05 -8.639325e-06 2.145110e-05 -1.428407e-05 2.397701e-05 -1.931328e-05 2.773732e-05 -2.272254e-05 3.341413e-05 -2.330829e-05 4.181511e-05 -1.973382e-05 5.381756e-05 -1.066313e-05 7.024504e-05 5.030372e-06 9.167836e-05 2.800768e-05 1.182399e-04 5.822483e-05 1.494207e-04 9.479284e-05 1.840240e-04 1.360015e-04 2.202661e-04 1.795241e-04 2.560262e-04 2.227618e-04 2.891865e-04 2.632445e-04 3.179771e-04 2.989918e-04 3.412449e-04 3.287533e-04 3.585928e-04 3.520866e-04 3.703736e-04 3.692737e-04 3.775615e-04 3.811132e-04 3.815448e-04 3.886486e-04 3.838888e-04 3.928949e-04 3.861106e-04 3.946234e-04 3.894897e-04 3.942437e-04 3.949245e-04 3.918063e-04 4.028292e-04 3.871148e-04 4.130614e-04 3.799142e-04 4.248760e-04 3.700961e-04 4.369178e-04 3.578543e-04 4.472857e-04 3.437301e-04 4.537073e-04 3.285115e-04 4.538478e-04 3.130013e-04 4.457270e-04 2.977244e-04 4.281601e-04 2.826953e-04 4.010881e-04 2.673637e-04 3.656698e-04 2.507933e-04 3.240807e-04 2.320206e-04 2.790759e-04 2.104485e-04 2.334654e-04 1.861095e-04 1.896685e-04 1.597021e-04 1.494537e-04 1.324149e-04 1.138821e-04 1.056330e-04 8.339932e-05 8.064622e-05 5.799764e-05 5.844429e-05 3.738298e-05 3.962760e-05 2.110981e-05 2.441900e-05 8.673808e-06 1.273747e-05 -4.326501e-07 4.294740e-06 -6.691890e-06 -1.313709e-06 -1.054909e-05 -4.538021e-06 -1.240980e-05 -5.827729e-06 -1.264213e-05 -5.607208e-06 -1.158060e-05 
-5.560216e-06 -1.185841e-05 -3.921326e-06 -9.500239e-06 -1.795844e-06 -6.624664e-06 4.735684e-07 -3.476641e-06 2.557390e-06 -2.666451e-07 4.141070e-06 2.836186e-06 4.933654e-06 5.711773e-06 4.684812e-06 8.297713e-06 3.210363e-06 1.059828e-05 4.242151e-07 1.269262e-05 -3.627355e-06 1.474089e-05 -8.733987e-06 1.698790e-05 -1.449563e-05 1.976660e-05 -2.030332e-05 2.350641e-05 -2.532426e-05 2.875105e-05 -2.849169e-05 3.618282e-05 -2.851177e-05 4.663361e-05 -2.391520e-05 6.104731e-05 -1.318954e-05 8.035713e-05 4.988946e-06 1.052698e-04 3.144914e-05 1.359998e-04 6.622332e-05 1.720409e-04 1.083562e-04 2.120728e-04 1.559119e-04 2.540613e-04 2.062033e-04 2.955435e-04 2.561972e-04 3.340290e-04 3.029915e-04 3.674124e-04 3.442493e-04 3.943008e-04 3.784921e-04 4.141885e-04 4.052023e-04 4.274644e-04 4.247342e-04 4.352750e-04 4.380787e-04 4.392950e-04 4.465479e-04 4.414601e-04 4.514514e-04 4.437064e-04 4.538312e-04 4.477381e-04 4.543000e-04 4.548315e-04 4.530079e-04 4.656621e-04 4.497293e-04 4.801466e-04 4.440390e-04 4.973078e-04 4.355252e-04 5.152062e-04 4.239840e-04 5.310142e-04 4.095384e-04 5.413080e-04 3.926353e-04 5.426047e-04 3.739055e-04 5.320751e-04 3.539226e-04 5.082582e-04 3.329647e-04 4.715371e-04 3.109068e-04 4.241741e-04 2.873242e-04 3.698457e-04 2.617719e-04 3.128198e-04 2.341006e-04 2.570645e-04 2.046495e-04 2.055839e-04 1.742384e-04 1.601466e-04 1.439896e-04 1.213852e-04 1.150837e-04 8.911990e-05 8.854573e-05 6.272952e-05 6.511655e-05 4.144878e-05 4.521380e-05 2.454591e-05 2.895933e-05 1.139425e-05 1.624121e-05 1.476005e-06 6.785181e-06 -5.643759e-06 2.194874e-07 -1.034780e-05 -3.874200e-06 -1.298982e-05 -5.925519e-06 -1.390733e-05 -6.354231e-06 -1.342597e-05 
-1.062647e-05 -1.726644e-05 -8.453101e-06 -1.429248e-05 -5.686655e-06 -1.071380e-05 -2.705268e-06 -6.806137e-06 1.191151e-07 -2.814285e-06 2.417138e-06 1.053276e-06 3.830142e-06 4.634161e-06 4.032040e-06 7.825986e-06 2.764784e-06 1.060309e-05 -1.160766e-07 1.303322e-05 -4.592599e-06 1.529061e-05 -1.044098e-05 1.766251e-05 -1.720005e-05 2.055083e-05 -2.415267e-05 2.447535e-05 -3.031487e-05 3.008843e-05 -3.442814e-05 3.820264e-05 -3.496412e-05 4.981159e-05 -3.017458e-05 6.605833e-05 -1.823586e-05 8.809937e-05 2.479606e-06 1.168465e-04 3.303030e-05 1.526366e-04 7.352979e-05 1.949443e-04 1.229069e-04 2.422628e-04 1.789145e-04 2.922290e-04 2.384153e-04 3.419761e-04 2.978797e-04 3.886217e-04 3.539622e-04 4.297566e-04 4.040101e-04 4.638167e-04 4.463902e-04 4.902613e-04 4.805765e-04 5.095455e-04 5.070072e-04 5.229252e-04 5.267708e-04 5.321634e-04 5.412075e-04 5.392088e-04 5.515171e-04 5.459055e-04 5.584562e-04 5.537647e-04 5.621908e-04 5.638086e-04 5.623364e-04 5.764705e-04 5.581783e-04 5.915201e-04 5.490147e-04 6.079923e-04 5.345277e-04 6.241312e-04 5.150704e-04 6.374082e-04 4.917580e-04 6.447010e-04 4.662884e-04 6.427034e-04 4.404948e-04 6.285588e-04 4.157486e-04 6.005858e-04 3.924438e-04 5.588532e-04 3.698172e-04 5.053504e-04 3.462446e-04 4.436311e-04 3.199222e-04 3.780399e-04 2.896339e-04 3.128144e-04 2.552610e-04 2.513795e-04 2.178423e-04 1.960108e-04 1.792306e-04 1.478557e-04 1.415550e-04 1.071738e-04 1.067223e-04 7.364510e-05 7.610366e-05 4.663774e-05 5.043421e-05 2.539623e-05 2.987772e-05 9.152494e-06 1.417575e-05 -2.818452e-06 2.813529e-06 -1.117632e-05 -4.839653e-06 -1.651101e-05 -9.432149e-06 -1.934646e-05 -1.157339e-05 -2.014796e-05 -1.181037e-05 -1.933046e-05 
-1.320475e-05 -2.104079e-05 -1.178884e-05 -1.876342e-05 -9.701791e-06 -1.581479e-05 -7.348834e-06 -1.248935e-05 -5.125042e-06 -9.037231e-06 -3.417180e-06 -5.656016e-06 -2.594619e-06 -2.480184e-06 -2.986265e-06 4.318430e-07 -4.843028e-06 3.111933e-06 -8.289606e-06 5.694598e-06 -1.327395e-05 8.422818e-06 -1.952536e-05 1.164373e-05 -2.652939e-05 1.579622e-05 -3.351883e-05 2.140221e-05 -3.946899e-05 2.908028e-05 -4.308269e-05 3.959325e-05 -4.276848e-05 5.391047e-05 -3.665286e-05 7.322315e-05 -2.270033e-05 9.882980e-05 9.970629e-07 1.318484e-04 3.577514e-05 1.728066e-04 8.191862e-05 2.212571e-04 1.383315e-04 2.755901e-04 2.025099e-04 3.331478e-04 2.708615e-04 3.906266e-04 3.392899e-04 4.446524e-04 4.038801e-04 4.923647e-04 4.615091e-04 5.318654e-04 5.102410e-04 5.624439e-04 5.494446e-04 5.845624e-04 5.796403e-04 5.996484e-04 6.021466e-04 6.097753e-04 6.186253e-04 6.173113e-04 6.306260e-04 6.245968e-04 6.392226e-04 6.336798e-04 6.448127e-04 6.461070e-04 6.471168e-04 6.627398e-04 6.453636e-04 6.835499e-04 6.386071e-04 7.073840e-04 6.260905e-04 7.317605e-04 6.075755e-04 7.528414e-04 5.835438e-04 7.657520e-04 5.551850e-04 7.653477e-04 5.241126e-04 7.473571e-04 4.918511e-04 7.096092e-04 4.592909e-04 6.528991e-04 4.263952e-04 5.810795e-04 3.923639e-04 5.002337e-04 3.561991e-04 4.171957e-04 3.173624e-04 3.379907e-04 2.761719e-04 2.667731e-04 2.337809e-04 2.055358e-04 1.918366e-04 1.544801e-04 1.520414e-04 1.127036e-04 1.158076e-04 7.886575e-05 8.408124e-05 5.163970e-05 5.731911e-05 2.992008e-05 3.556199e-05 1.285526e-05 1.854643e-05 -2.075907e-07 5.817164e-06 -9.796864e-06 -3.179377e-06 -1.637602e-05 -9.027174e-06 -2.037872e-05 -1.229735e-05 -2.222339e-05 -1.352553e-05 -2.231505e-05 
-2.046198e-05 -2.856501e-05 -1.851420e-05 -2.566430e-05 -1.577368e-05 -2.199608e-05 -1.266811e-05 -1.788065e-05 -9.629489e-06 -1.360288e-05 -7.104139e-06 -9.406075e-06 -5.545012e-06 -5.478428e-06 -5.382046e-06 -1.931976e-06 -6.969931e-06 1.223927e-06 -1.051871e-05 4.109012e-06 -1.602010e-05 6.989531e-06 -2.318726e-05 1.027797e-05 -3.142303e-05 1.451372e-05 -3.981817e-05 2.033885e-05 -4.716173e-05 2.849817e-05 -5.193551e-05 3.988952e-05 -5.228389e-05 5.565137e-05 -4.600405e-05 7.721016e-05 -3.065779e-05 1.061695e-04 -3.902041e-06 1.439673e-04 3.596539e-05 1.913600e-04 8.939909e-05 2.479288e-04 1.551850e-04 3.118404e-04 2.304089e-04 3.799965e-04 3.108642e-04 4.485447e-04 3.917828e-04 5.135884e-04 4.686714e-04 5.718847e-04 5.380290e-04 6.213522e-04 5.977815e-04 6.612880e-04 6.473657e-04 6.922908e-04 6.874873e-04 7.159587e-04 7.196460e-04 7.344710e-04 7.455553e-04 7.501584e-04 7.665789e-04 7.651345e-04 7.833011e-04 7.810373e-04 7.953339e-04 7.988889e-04 8.014221e-04 8.190400e-04 7.998422e-04 8.411258e-04 7.890063e-04 8.639647e-04 7.681198e-04 8.853989e-04 7.377118e-04 9.021780e-04 6.998451e-04 9.100655e-04 6.578415e-04 9.043467e-04 6.154716e-04 8.807939e-04 5.757827e-04 8.369020e-04 5.399982e-04 7.729440e-04 5.070381e-04 6.923177e-04 4.740093e-04 6.009046e-04 4.375240e-04 5.056501e-04 3.952134e-04 4.129775e-04 3.467015e-04 3.276616e-04 2.936617e-04 2.524499e-04 2.391039e-04 1.883135e-04 1.863646e-04 1.349994e-04 1.382578e-04 9.158608e-05 9.662012e-05 5.689026e-05 6.224709e-05 2.970210e-05 3.508479e-05 8.894305e-06 1.451982e-05 -6.540882e-06 -3.445086e-07 -1.748782e-05 -1.048103e-05 -2.471619e-05 -1.681141e-05 -2.889379e-05 -2.014605e-05 -3.060054e-05 -2.117087e-05 -3.034248e-05 
-2.474875e-05 -3.420841e-05 -2.392263e-05 -3.235848e-05 -2.221446e-05 -2.968246e-05 -2.008608e-05 -2.652905e-05 -1.799543e-05 -2.318986e-05 -1.640592e-05 -1.989031e-05 -1.577907e-05 -1.677565e-05 -1.654414e-05 -1.389107e-05 -1.904249e-05 -1.115746e-05 -2.345221e-05 -8.348953e-06 -2.970875e-05 -5.083671e-06 -3.744504e-05 -8.401976e-07 -4.597192e-05 4.996520e-06 -5.430088e-05 1.307940e-05 -6.117986e-05 2.408076e-05 -6.509079e-05 3.876323e-05 -6.417786e-05 5.814144e-05 -5.615532e-05 8.363410e-05 -3.834191e-05 1.170250e-04 -7.987232e-06 1.600945e-04 3.707676e-05 2.139700e-04 9.764906e-05 2.784555e-04 1.725738e-04 3.516623e-04 2.586399e-04 4.301346e-04 3.510393e-04 5.094379e-04 4.442337e-04 5.850038e-04 5.329546e-04 6.529666e-04 6.130634e-04 7.107763e-04 6.820782e-04 7.574719e-04 7.392889e-04 7.936109e-04 7.854937e-04 8.209445e-04 8.224675e-04 8.419659e-04 8.523058e-04 8.594513e-04 8.767819e-04 8.760727e-04 8.968421e-04 8.941218e-04 9.123541e-04 9.153397e-04 9.221711e-04 9.407777e-04 9.244898e-04 9.705694e-04 9.173985e-04 1.003536e-03 8.994840e-04 1.036699e-03 8.703830e-04 1.064976e-03 8.311568e-04 1.081419e-03 7.843181e-04 1.078277e-03 7.333351e-04 1.048856e-03 6.816110e-04 9.896968e-04 6.312862e-04 9.022292e-04 5.825079e-04 7.930301e-04 5.336886e-04 6.723324e-04 4.826802e-04 5.512774e-04 4.281540e-04 4.390978e-04 3.703833e-04 3.413972e-04 3.111303e-04 2.599867e-04 2.529306e-04 1.938991e-04 1.982873e-04 1.407985e-04 1.491252e-04 9.813306e-05 1.065855e-04 6.376447e-05 7.107129e-05 3.613523e-05 4.241527e-05 1.417177e-05 2.007436e-05 -2.893314e-06 3.300259e-06 -1.567440e-05 -8.731605e-06 -2.472691e-05 -1.683613e-05 -3.058849e-05 -2.176935e-05 -3.378689e-05 -2.420788e-05 -3.483273e-05 
-3.452742e-05 -4.414467e-05 -3.323068e-05 -4.170523e-05 -3.091811e-05 -3.833720e-05 -2.805179e-05 -3.440716e-05 -2.511592e-05 -3.024210e-05 -2.263819e-05 -2.612326e-05 -2.118551e-05 -2.226796e-05 -2.132544e-05 -1.879777e-05 -2.354916e-05 -1.569470e-05 -2.816269e-05 -1.275476e-05 -3.516864e-05 -9.556849e-06 -4.417445e-05 -5.470425e-06 -5.436293e-05 2.845170e-07 -6.453531e-05 8.544342e-06 -7.318895e-05 2.014166e-05 -7.854793e-05 3.596626e-05 -7.847914e-05 5.717671e-05 -7.033556e-05 8.544322e-05 -5.092604e-05 1.229632e-04 -1.686514e-05 1.720290e-04 3.461786e-05 2.341930e-04 1.046587e-04 3.093868e-04 1.919939e-04 3.954442e-04 2.928411e-04 4.882845e-04 4.015086e-04 5.826856e-04 5.115056e-04 6.733524e-04 6.167805e-04 7.559280e-04 7.127382e-04 8.276841e-04 7.968097e-04 8.877632e-04 8.684996e-04 9.369952e-04 9.289748e-04 9.774190e-04 9.803509e-04 1.011682e-03 1.024849e-03 1.042463e-03 1.063986e-03 1.072012e-03 1.097946e-03 1.101870e-03 1.125304e-03 1.132796e-03 1.143225e-03 1.164847e-03 1.148148e-03 1.197444e-03 1.136817e-03 1.229250e-03 1.107414e-03 1.257812e-03 1.060541e-03 1.279125e-03 9.997101e-04 1.287490e-03 9.310260e-04 1.276049e-03 8.618069e-04 1.238259e-03 7.983462e-04 1.170074e-03 7.435977e-04 1.071997e-03 6.959807e-04 9.498489e-04 6.501873e-04 8.135856e-04 5.997943e-04 6.745779e-04 5.403090e-04 5.426898e-04 4.710203e-04 4.244653e-04 3.949146e-04 3.228672e-04 3.171259e-04 2.381171e-04 2.430007e-04 1.688673e-04 1.766722e-04 1.131546e-04 1.204716e-04 6.896075e-05 7.503464e-05 3.444875e-05 3.977166e-05 8.020219e-06 1.340731e-05 -1.169811e-05 -5.579360e-06 -2.588237e-05 -1.866853e-05 -3.553700e-05 -2.715327e-05 -4.151663e-05 -3.209348e-05 -4.454701e-05 -3.432981e-05 -4.524609e-05 
-4.101500e-05 -5.211681e-05 -4.127516e-05 -5.114063e-05 -4.043599e-05 -4.921240e-05 -3.900625e-05 -4.674471e-05 -3.750084e-05 -4.407624e-05 -3.646419e-05 -4.146337e-05 -3.646955e-05 -3.906247e-05 -3.808135e-05 -3.689953e-05 -4.177295e-05 -3.482750e-05 -4.780506e-05 -3.248040e-05 -5.609131e-05 -2.924687e-05 -6.609867e-05 -2.429612e-05 -7.683454e-05 -1.668154e-05 -8.694020e-05 -5.502948e-06 -9.483868e-05 9.967379e-06 -9.880780e-05 3.034403e-05 -9.684656e-05 5.645944e-05 -8.635460e-05 8.982782e-05 -6.390345e-05 1.328536e-04 -2.551205e-05 1.884016e-04 3.238635e-05 2.587293e-04 1.115927e-04 3.442660e-04 2.110634e-04 4.428881e-04 3.266635e-04 5.500602e-04 4.518666e-04 6.597484e-04 5.790955e-04 7.657102e-04 7.012154e-04 8.627167e-04 8.127555e-04 9.473853e-04 9.105961e-04 1.018483e-03 9.940421e-04 1.076731e-03 1.064367e-03 1.124274e-03 1.124013e-03 1.164034e-03 1.175647e-03 1.199106e-03 1.221248e-03 1.232299e-03 1.261387e-03 1.265884e-03 1.294890e-03 1.301562e-03 1.319017e-03 1.340510e-03 1.330127e-03 1.383224e-03 1.324588e-03 1.428887e-03 1.299754e-03 1.474319e-03 1.254858e-03 1.513020e-03 1.191744e-03 1.535039e-03 1.115121e-03 1.528377e-03 1.031844e-03 1.482037e-03 9.489762e-04 1.390010e-03 8.711902e-04 1.254575e-03 7.989831e-04 1.087053e-03 7.290663e-04 9.050629e-04 6.568889e-04 7.272407e-04 5.795949e-04 5.679388e-04 4.975162e-04 4.344121e-04 4.136781e-04 3.272278e-04 3.322134e-04 2.427708e-04 2.568677e-04 1.760544e-04 1.901968e-04 1.226234e-04 1.334295e-04 7.928895e-05 8.670291e-05 4.405114e-05 4.940968e-05 1.569455e-05 2.051693e-05 -6.609179e-06 -1.188930e-06 -2.355942e-05 -1.693518e-05 -3.584349e-05 -2.786167e-05 -4.416180e-05 -3.497110e-05 -4.921099e-05 -3.911665e-05 -5.165757e-05 