# vtk DataFile Version 2.0
Comment goes here
ASCII

DATASET STRUCTURED_POINTS
FIELD FieldData 1
TIME 1 1 double
0.04500000
DIMENSIONS    128   128   1

ORIGIN    0.000   0.000   0.000
SPACING   0.039062 0.039062   1.000

POINT_DATA   16384
SCALARS Omega double
LOOKUP_TABLE default

-2.715770e-14 -3.600523e-14 -5.332774e-14 -3.160479e-14 -9.511147e-15 5.161963e-16 1.715010e-14 2.476415e-14 1.335695e-14 1.255873e-14 -5.474072e-15 -1.697484e-14 -4.938983e-14 -2.250764e-14 9.454819e-15 1.055879e-14 -5.686416e-15 2.192979e-15 -9.325693e-15 -4.448665e-15 3.571446e-14 1.776436e-14 7.863244e-15 6.823386e-16 6.673451e-15 4.540118e-14 5.748717e-14 -8.656790e-15 1.479953e-14 1.356782e-14 -4.916843e-15 2.921848e-14 -4.218564e-16 -3.080718e-14 -1.113174e-15 2.280421e-14 -2.543384e-14 -9.475214e-15 -4.457929e-14 -1.159365e-14 -1.101123e-14 1.160550e-14 -1.040369e-14 -1.398375e-14 -4.178051e-14 -3.928073e-15 -1.206182e-14 -8.745370e-15 -2.830899e-15 1.937729e-14 3.368436e-14 6.905241e-14 7.584664e-14 4.284944e-14 -1.011096e-14 2.888286e-14 3.512102e-14 4.691880e-14 3.217567e-14 3.895613e-14 -7.938713e-15 -3.660830e-14 -3.225782e-14 -8.456382e-14 -4.229295e-14 -2.623434e-14 -2.857508e-15 -2.720212e-14 -6.780379e-14 -3.546394e-14 -1.441888e-14 -5.530794e-14 -4.471386e-14 -1.220213e-13 -4.911378e-14 -7.330780e-14 -1.940252e-14 3.857728e-14 -7.594185e-14 2.417433e-14 -1.154664e-14 6.796683e-14 6.287643e-14 3.603029e-14 -4.107948e-14 4.352034e-14 -7.078702e-14 -6.476657e-14 1.234364e-14 -1.458539e-14 1.480280e-14 1.178463e-13 6.984695e-14 4.425429e-14 1.632779e-14 1.837831e-14 5.201081e-15 2.589125e-14 2.646321e-14 1.822060e-14 1.929062e-14 -1.310722e-14 -2.439996e-14 6.792577e-15 1.407117e-14 -9.790332e-15 2.242641e-14 3.731560e-14 5.519766e-14 6.231830e-14 6.317849e-14 6.104567e-14 5.056642e-14 3.015466e-14 8.373131e-15 -1.197647e-14 -2.338801e-14 -2.345785e-14 -1.495679e-14 -2.128445e-14 -2.237838e-14 -1.028006e-14 -1.946629e-14 -2.576460e-14 -6.705876e-15 -1.275493e-14 -1.778361e-14 -1.536634e-14 
-1.913000e-06 -3.655780e-06 -1.566518e-06 -3.271286e-06 -1.233758e-06 -2.896990e-06 -9.409052e-07 -2.557602e-06 -7.103360e-07 -2.273789e-06 -5.603258e-07 -2.062299e-06 -5.047359e-07 -1.935896e-06 -5.526117e-07 -1.902957e-06 -7.075958e-07 -1.966584e-06 -9.670203e-07 -2.123114e-06 -1.320525e-06 -2.359980e-06 -1.748085e-06 -2.653031e-06 -2.217470e-06 -2.963637e-06 -2.681457e-06 -3.236235e-06 -3.075554e-06 -3.397370e-06 -3.317536e-06 -3.357622e-06 -3.310399e-06 -3.017839e-06 -2.950265e-06 -2.280587e-06 -2.139845e-06 -1.066397e-06 -8.064063e-07 6.674105e-07 1.078889e-06 2.909412e-06 3.485042e-06 5.583277e-06 6.313804e-06 8.547865e-06 9.404512e-06 1.161024e-05 1.255193e-05 1.455028e-05 1.553442e-05 1.715236e-05 1.814675e-05 1.923737e-05 2.023089e-05 2.068850e-05 2.169849e-05 2.146591e-05 2.254114e-05 2.160797e-05 2.282740e-05 2.122028e-05 2.268801e-05 2.045563e-05 2.229248e-05 1.948923e-05 2.182136e-05 1.849387e-05 2.143797e-05 1.761861e-05 2.126375e-05 1.697341e-05 2.136045e-05 1.662075e-05 2.172171e-05 1.657395e-05 2.227559e-05 1.680063e-05 2.289796e-05 1.722977e-05 2.343478e-05 1.776078e-05 2.372915e-05 1.827385e-05 2.364811e-05 1.864152e-05 2.310355e-05 1.874177e-05 2.206341e-05 1.847214e-05 2.055156e-05 1.776349e-05 1.863823e-05 1.659065e-05 1.642445e-05 1.497726e-05 1.402532e-05 1.299290e-05 1.155552e-05 1.074309e-05 9.119137e-06 8.354011e-06 6.803852e-06 5.955722e-06 4.678572e-06 3.667038e-06 2.793267e-06 1.584591e-06 1.179945e-06 -2.229989e-07 -1.457788e-07 -1.716186e-06 -1.182777e-06 -2.881930e-06 -1.942221e-06 -3.728947e-06 -2.445199e-06 -4.282118e-06 -2.720231e-06 -4.577014e-06 -2.800865e-06 -4.655155e-06 -2.723481e-06 -4.560254e-06 -2.525430e-06 -4.335470e-06 -2.243542e-06 -4.021564e-06 
-3.606387e-06 -7.094338e-06 -2.853461e-06 -6.255034e-06 -2.118687e-06 -5.431129e-06 -1.462424e-06 -4.680527e-06 -9.382433e-07 -4.053713e-06 -5.918748e-07 -3.593409e-06 -4.598779e-07 -3.333597e-06 -5.679207e-07 -3.297697e-06 -9.286071e-07 -3.495755e-06 -1.538763e-06 -3.920619e-06 -2.376061e-06 -4.543210e-06 -3.394914e-06 -5.307241e-06 -4.521719e-06 -6.124027e-06 -5.650030e-06 -6.868595e-06 -6.637014e-06 -7.378943e-06 -7.303497e-06 -7.460985e-06 -7.440717e-06 -6.901860e-06 -6.826697e-06 -5.493325e-06 -5.253537e-06 -3.064547e-06 -2.563641e-06 4.800737e-07 1.311272e-06 5.126045e-06 6.317817e-06 1.072683e-05 1.226549e-05 1.700348e-05 1.883551e-05 2.356987e-05 2.561546e-05 2.998084e-05 3.215424e-05 3.579404e-05 3.802621e-05 4.063241e-05 4.289108e-05 4.423414e-05 4.653769e-05 4.648097e-05 4.890437e-05 4.740113e-05 5.007454e-05 4.714984e-05 5.025111e-05 4.597435e-05 4.971661e-05 4.417232e-05 4.878648e-05 4.205186e-05 4.776264e-05 3.989870e-05 4.689269e-05 3.795294e-05 4.633890e-05 3.639476e-05 4.615993e-05 3.533651e-05 4.630740e-05 3.481821e-05 4.663819e-05 3.480485e-05 4.694135e-05 3.518609e-05 4.697593e-05 3.578137e-05 4.651313e-05 3.635418e-05 4.537463e-05 3.663800e-05 4.345915e-05 3.637272e-05 4.075288e-05 3.534561e-05 3.732353e-05 3.342803e-05 3.330264e-05 3.059854e-05 2.886233e-05 2.694642e-05 2.419267e-05 2.265522e-05 1.948307e-05 1.797138e-05 1.490868e-05 1.316601e-05 1.062123e-05 8.498613e-06 6.743069e-06 4.189046e-06 3.363766e-06 4.008459e-07 5.389554e-07 -2.764223e-06 -1.708582e-06 -5.262675e-06 -3.385798e-06 -7.100095e-06 -4.524665e-06 -8.319326e-06 -5.176544e-06 -8.988511e-06 -5.406389e-06 -9.190541e-06 -5.287406e-06 -9.014674e-06 -4.896573e-06 -8.550453e-06 -4.311187e-06 -7.883727e-06 
-6.002598e-06 -1.122609e-05 -4.985320e-06 -1.008858e-05 -4.006528e-06 -8.982448e-06 -3.144530e-06 -7.980843e-06 -2.466359e-06 -7.144875e-06 -2.026893e-06 -6.524072e-06 -1.867867e-06 -6.156204e-06 -2.016583e-06 -6.066059e-06 -2.484065e-06 -6.262731e-06 -3.262291e-06 -6.735091e-06 -4.320089e-06 -7.445337e-06 -5.597312e-06 -8.320939e-06 -6.997320e-06 -9.245888e-06 -8.378574e-06 -1.005314e-05 -9.547520e-06 -1.052133e-05 -1.025653e-05 -1.037991e-05 -1.021199e-05 -9.327321e-06 -9.097366e-06 -7.065113e-06 -6.613672e-06 -3.347404e-06 -2.534456e-06 1.961084e-06 3.234184e-06 8.830896e-06 1.060343e-05 1.703343e-05 1.927766e-05 2.614014e-05 2.876838e-05 3.556200e-05 3.844866e-05 4.462510e-05 4.763970e-05 5.266825e-05 5.571206e-05 5.914178e-05 6.218039e-05 6.368694e-05 6.677255e-05 6.618060e-05 6.946113e-05 6.673885e-05 7.045412e-05 6.568272e-05 7.014939e-05 6.347604e-05 6.906309e-05 6.064945e-05 6.774435e-05 5.772413e-05 6.668890e-05 5.514715e-05 6.626333e-05 5.324557e-05 6.665028e-05 5.220249e-05 6.782273e-05 5.205356e-05 6.955212e-05 5.269912e-05 7.145034e-05 5.392621e-05 7.303954e-05 5.543545e-05 7.383730e-05 5.687066e-05 7.344045e-05 5.785192e-05 7.159004e-05 5.801352e-05 6.820457e-05 5.704672e-05 6.337698e-05 5.474256e-05 5.734112e-05 5.102613e-05 5.042054e-05 4.597271e-05 4.297475e-05 3.979965e-05 3.535467e-05 3.283469e-05 2.787289e-05 2.546797e-05 2.078843e-05 1.809915e-05 1.430202e-05 1.109051e-05 8.557367e-06 4.733629e-06 3.645187e-06 -7.676570e-07 -3.918383e-07 -5.299326e-06 -3.553434e-06 -8.828225e-06 -5.875455e-06 -1.138673e-05 -7.422953e-06 -1.305514e-05 -8.282876e-06 -1.394478e-05 -8.556880e-06 -1.418361e-05 -8.354764e-06 -1.390493e-05 -7.788881e-06 -1.323930e-05 -6.969719e-06 -1.230924e-05 
-7.754715e-06 -1.471750e-05 -6.285011e-06 -1.306262e-05 -4.845563e-06 -1.143953e-05 -3.556806e-06 -9.962297e-06 -2.526081e-06 -8.730594e-06 -1.845580e-06 -7.829123e-06 -1.589532e-06 -7.325655e-06 -1.810491e-06 -7.267206e-06 -2.534656e-06 -7.674142e-06 -3.756189e-06 -8.532253e-06 -5.430398e-06 -9.783129e-06 -7.465664e-06 -1.131354e-05 -9.714205e-06 -1.294506e-05 -1.196251e-05 -1.442609e-05 -1.392382e-05 -1.542971e-05 -1.523709e-05 -1.556248e-05 -1.547890e-05 -1.438981e-05 -1.419490e-05 -1.148242e-05 -1.095436e-05 -6.482992e-06 -5.424748e-06 8.150055e-07 2.546324e-06 1.039327e-05 1.286160e-05 2.196066e-05 2.513956e-05 3.495027e-05 3.873085e-05 4.857061e-05 5.278936e-05 6.190546e-05 6.638634e-05 7.404264e-05 7.864391e-05 8.420413e-05 8.885942e-05 9.184964e-05 9.659582e-05 9.673427e-05 1.017231e-04 9.891320e-05 1.044080e-04 9.869948e-05 1.050607e-04 9.659031e-05 1.042518e-04 9.318083e-05 1.026169e-04 8.908273e-05 1.007625e-04 8.485969e-05 9.918340e-05 8.098391e-05 9.820060e-05 7.781182e-05 9.792457e-05 7.557175e-05 9.824829e-05 7.435620e-05 9.887221e-05 7.411417e-05 9.935979e-05 7.464524e-05 9.921652e-05 7.560306e-05 9.797905e-05 7.651860e-05 9.529598e-05 7.685070e-05 9.098294e-05 7.606226e-05 8.504112e-05 7.370961e-05 7.763975e-05 6.952414e-05 6.907357e-05 6.346415e-05 5.971068e-05 5.572309e-05 4.994471e-05 4.669308e-05 4.015850e-05 3.689572e-05 3.069978e-05 2.689901e-05 2.186604e-05 1.723996e-05 1.389508e-05 8.366477e-06 6.959391e-06 6.045219e-07 1.164242e-06 -5.850507e-06 -3.450340e-06 -1.092389e-05 -6.903423e-06 -1.464040e-05 -9.263716e-06 -1.709853e-05 -1.063812e-05 -1.844527e-05 -1.115990e-05 -1.885437e-05 -1.097780e-05 -1.850949e-05 -1.024709e-05 -1.759238e-05 -9.122726e-06 -1.627540e-05 
-1.089171e-05 -1.957476e-05 -9.271269e-06 -1.773378e-05 -7.706448e-06 -1.594842e-05 -6.327002e-06 -1.433724e-05 -5.244374e-06 -1.299911e-05 -4.550240e-06 -1.201412e-05 -4.314673e-06 -1.144343e-05 -4.583683e-06 -1.132709e-05 -5.375812e-06 -1.167934e-05 -6.677356e-06 -1.248088e-05 -8.435617e-06 -1.366800e-05 -1.054961e-05 -1.511914e-05 -1.285800e-05 -1.664024e-05 -1.512515e-05 -1.795162e-05 -1.702835e-05 -1.868117e-05 -1.815224e-05 -1.837076e-05 -1.799921e-05 -1.650415e-05 -1.602545e-05 -1.256308e-05 -1.170820e-05 -6.111672e-06 -4.641058e-06 3.101328e-06 5.358927e-06 1.504446e-05 1.815909e-05 2.933882e-05 3.326432e-05 4.525280e-05 4.983807e-05 6.176910e-05 6.679629e-05 7.771723e-05 8.295937e-05 9.194533e-05 9.723030e-05 1.034944e-04 1.087611e-04 1.117377e-04 1.170740e-04 1.164579e-04 1.221158e-04 1.178524e-04 1.242411e-04 1.164710e-04 1.241325e-04 1.131061e-04 1.226763e-04 1.086589e-04 1.208134e-04 1.040071e-04 1.193899e-04 9.989422e-05 1.190244e-04 9.685400e-05 1.200124e-04 9.517461e-05 1.222812e-04 9.489926e-05 1.254052e-04 9.585266e-05 1.286821e-04 9.768092e-05 1.312597e-04 9.989519e-05 1.322917e-04 1.019156e-04 1.310906e-04 1.031192e-04 1.272441e-04 1.028989e-04 1.206693e-04 1.007348e-04 1.115979e-04 9.627210e-05 1.005027e-04 8.938714e-05 8.799558e-05 8.022059e-05 7.472496e-05 6.916500e-05 6.129806e-05 5.680668e-05 4.823513e-05 4.383688e-05 3.595217e-05 3.095490e-05 2.476183e-05 1.878431e-05 1.488198e-05 7.815946e-06 6.445700e-06 -1.618453e-06 -4.896445e-07 -9.345666e-06 -5.933779e-06 -1.533162e-05 -9.954143e-06 -1.965198e-05 -1.266519e-05 -2.246011e-05 -1.421667e-05 -2.395738e-05 -1.478169e-05 -2.436858e-05 -1.454575e-05 -2.392321e-05 -1.369743e-05 -2.284258e-05 -1.242109e-05 -2.133167e-05 
-1.300434e-05 -2.340229e-05 -1.089229e-05 -2.098250e-05 -8.811219e-06 -1.861405e-05 -6.941116e-06 -1.646364e-05 -5.443575e-06 -1.467742e-05 -4.458824e-06 -1.338057e-05 -4.101124e-06 -1.267426e-05 -4.452426e-06 -1.262939e-05 -5.554411e-06 -1.327699e-05 -7.399178e-06 -1.459552e-05 -9.918785e-06 -1.649598e-05 -1.297363e-05 -1.880592e-05 -1.633955e-05 -2.125424e-05 -1.969412e-05 -2.345899e-05 -2.260464e-05 -2.492275e-05 -2.452368e-05 -2.504280e-05 -2.480238e-05 -2.314555e-05 -2.273333e-05 -1.855420e-05 -1.763181e-05 -1.069145e-05 -8.952588e-06 7.941942e-07 3.576125e-06 1.590523e-05 1.983523e-05 3.421148e-05 3.925217e-05 5.483943e-05 6.082202e-05 7.655089e-05 8.321910e-05 9.790246e-05 1.049798e-04 1.174529e-04 1.247170e-04 1.339723e-04 1.413191e-04 1.466072e-04 1.540928e-04 1.549697e-04 1.628268e-04 1.591410e-04 1.677722e-04 1.595990e-04 1.695553e-04 1.570972e-04 1.690460e-04 1.525265e-04 1.672089e-04 1.467898e-04 1.649580e-04 1.407074e-04 1.630326e-04 1.349616e-04 1.619035e-04 1.300721e-04 1.617182e-04 1.263888e-04 1.622897e-04 1.240840e-04 1.631338e-04 1.231352e-04 1.635564e-04 1.233008e-04 1.627808e-04 1.241053e-04 1.600946e-04 1.248588e-04 1.549840e-04 1.247277e-04 1.472222e-04 1.228591e-04 1.368912e-04 1.185359e-04 1.243392e-04 1.113230e-04 1.100952e-04 1.011617e-04 9.477523e-05 8.838394e-05 7.900370e-05 7.364774e-05 6.336259e-05 5.781410e-05 4.836395e-05 4.180414e-05 3.443666e-05 2.647004e-05 2.191877e-05 1.250309e-05 1.105204e-05 3.867426e-07 1.979219e-06 -9.609613e-06 -5.253577e-06 -1.740770e-05 -1.068824e-05 -2.308119e-05 -1.444040e-05 -2.681169e-05 -1.668166e-05 -2.884751e-05 -1.762111e-05 -2.946976e-05 -1.748847e-05 -2.896708e-05 -1.652046e-05 -2.761877e-05 -1.495091e-05 -2.568502e-05 
-1.714099e-05 -2.922577e-05 -1.503393e-05 -2.676963e-05 -1.298841e-05 -2.440070e-05 -1.118469e-05 -2.227797e-05 -9.778370e-06 -2.053342e-05 -8.898404e-06 -1.927393e-05 -8.644058e-06 -1.858106e-05 -9.080699e-06 -1.850787e-05 -1.023417e-05 -1.907177e-05 -1.208355e-05 -2.024311e-05 -1.455192e-05 -2.192975e-05 -1.749437e-05 -2.395844e-05 -2.068266e-05 -2.605459e-05 -2.378656e-05 -2.782351e-05 -2.635459e-05 -2.873825e-05 -2.780147e-05 -2.814364e-05 -2.741538e-05 -2.528922e-05 -2.440130e-05 -1.940435e-05 -1.797358e-05 -9.819768e-06 -7.496804e-06 3.876671e-06 7.347621e-06 2.168407e-05 2.641187e-05 4.307964e-05 4.899965e-05 6.700143e-05 7.389007e-05 9.194513e-05 9.947696e-05 1.161645e-04 1.239995e-04 1.379339e-04 1.458138e-04 1.558143e-04 1.636456e-04 1.688638e-04 1.767720e-04 1.767532e-04 1.851024e-04 1.797684e-04 1.891511e-04 1.787136e-04 1.899171e-04 1.747417e-04 1.886974e-04 1.691515e-04 1.868666e-04 1.631894e-04 1.856523e-04 1.578881e-04 1.859376e-04 1.539632e-04 1.881164e-04 1.517730e-04 1.920250e-04 1.513365e-04 1.969660e-04 1.523856e-04 2.018281e-04 1.544301e-04 2.052880e-04 1.568155e-04 2.060608e-04 1.587697e-04 2.031458e-04 1.594516e-04 1.960104e-04 1.580192e-04 1.846654e-04 1.537313e-04 1.696177e-04 1.460720e-04 1.517271e-04 1.348668e-04 1.320186e-04 1.203461e-04 1.115104e-04 1.031309e-04 9.109718e-05 8.413638e-05 7.149803e-05 6.442599e-05 5.325356e-05 4.505399e-05 3.674868e-05 2.693575e-05 2.223928e-05 1.076569e-05 9.872718e-06 -3.013507e-06 -2.991624e-07 -1.420002e-05 -8.310593e-06 -2.279530e-05 -1.427179e-05 -2.895441e-05 -1.835602e-05 -3.293545e-05 -2.078394e-05 -3.505501e-05 -2.180687e-05 -3.565279e-05 -2.169103e-05 -3.506592e-05 -2.070428e-05 -3.361221e-05 -1.910614e-05 -3.158038e-05 
-1.994644e-05 -3.368551e-05 -1.730925e-05 -3.058530e-05 -1.468872e-05 -2.756384e-05 -1.232365e-05 -2.483489e-05 -1.043080e-05 -2.258698e-05 -9.201141e-06 -2.098346e-05 -8.792951e-06 -2.015834e-05 -9.321705e-06 -2.020684e-05 -1.084726e-05 -2.117075e-05 -1.335955e-05 -2.301967e-05 -1.676387e-05 -2.562994e-05 -2.086662e-05 -2.876374e-05 -2.536072e-05 -3.205009e-05 -2.981001e-05 -3.496969e-05 -3.363299e-05 -3.684681e-05 -3.609159e-05 -3.685666e-05 -3.629853e-05 -3.406223e-05 -3.326362e-05 -2.749816e-05 -2.599791e-05 -1.631084e-05 -1.367874e-05 5.661727e-08 4.148628e-06 2.167375e-05 2.738492e-05 4.798489e-05 5.526950e-05 7.778029e-05 8.640045e-05 1.093050e-04 1.188944e-04 1.404923e-04 1.506554e-04 1.692715e-04 1.796917e-04 1.938755e-04 2.044064e-04 2.130822e-04 2.238026e-04 2.263381e-04 2.375695e-04 2.337539e-04 2.460468e-04 2.359880e-04 2.500928e-04 2.340623e-04 2.508932e-04 2.291583e-04 2.497506e-04 2.224411e-04 2.478860e-04 2.149406e-04 2.462723e-04 2.074978e-04 2.455122e-04 2.007617e-04 2.457651e-04 1.952062e-04 2.467302e-04 1.911313e-04 2.476937e-04 1.886278e-04 2.476487e-04 1.875099e-04 2.454827e-04 1.872495e-04 2.402032e-04 1.869631e-04 2.311488e-04 1.854940e-04 2.181233e-04 1.815998e-04 2.014121e-04 1.742084e-04 1.816858e-04 1.626680e-04 1.598376e-04 1.469094e-04 1.368202e-04 1.274698e-04 1.135296e-04 1.053793e-04 9.074780e-05 8.195405e-05 6.913000e-05 5.856509e-05 4.920824e-05 3.643984e-05 3.139487e-05 1.653217e-05 1.597952e-05 -5.324879e-07 3.124351e-06 -1.444966e-05 -7.135479e-06 -2.518758e-05 -1.488192e-05 -3.292013e-05 -2.029477e-05 -3.795764e-05 -2.362644e-05 -4.068623e-05 -2.517547e-05 -4.152052e-05 -2.526271e-05 -4.087052e-05 -2.421266e-05 -3.912123e-05 -2.234083e-05 -3.662241e-05 
-2.534727e-05 -4.070387e-05 -2.292513e-05 -3.776878e-05 -2.055823e-05 -3.496801e-05 -1.847643e-05 -3.249384e-05 -1.687958e-05 -3.050485e-05 -1.593492e-05 -2.912911e-05 -1.577246e-05 -2.846419e-05 -1.647781e-05 -2.857235e-05 -1.808301e-05 -2.947018e-05 -2.055578e-05 -3.111254e-05 -2.378761e-05 -3.337206e-05 -2.758066e-05 -3.601590e-05 -3.163202e-05 -3.868171e-05 -3.551333e-05 -4.085450e-05 -3.864556e-05 -4.184813e-05 -4.027491e-05 -4.080083e-05 -3.946654e-05 -3.670365e-05 -3.514333e-05 -2.848621e-05 -2.619731e-05 -1.517631e-05 -1.168287e-05 3.876664e-06 8.935881e-06 2.876261e-05 3.554967e-05 5.883200e-05 6.726341e-05 9.265200e-05 1.024151e-04 1.281365e-04 1.387708e-04 1.628343e-04 1.738583e-04 1.943113e-04 2.053597e-04 2.205349e-04 2.314736e-04 2.401756e-04 2.511722e-04 2.527659e-04 2.643106e-04 2.586964e-04 2.715834e-04 2.590685e-04 2.743533e-04 2.554471e-04 2.743905e-04 2.495693e-04 2.735650e-04 2.430646e-04 2.735342e-04 2.372344e-04 2.754649e-04 2.329223e-04 2.798275e-04 2.304866e-04 2.862957e-04 2.298580e-04 2.937799e-04 2.306435e-04 3.006032e-04 2.322297e-04 3.048053e-04 2.338503e-04 3.045298e-04 2.346131e-04 2.984078e-04 2.335156e-04 2.858419e-04 2.294991e-04 2.671030e-04 2.215785e-04 2.432178e-04 2.090403e-04 2.156925e-04 1.916457e-04 1.861781e-04 1.697540e-04 1.561898e-04 1.443072e-04 1.269463e-04 1.166739e-04 9.933316e-05 8.841096e-05 7.394992e-05 6.101715e-05 5.118358e-05 3.574271e-05 3.127058e-05 1.348367e-05 1.433224e-05 -5.242226e-06 3.884208e-07 -2.025967e-05 -1.063808e-05 -3.166686e-05 -1.891549e-05 -3.975613e-05 -2.469025e-05 -4.493948e-05 -2.826774e-05 -4.768681e-05 -2.998988e-05 -4.847956e-05 -3.021355e-05 -4.777930e-05 -2.929271e-05 -4.600869e-05 -2.756567e-05 -4.354225e-05 
-2.921174e-05 -4.609975e-05 -2.621701e-05 -4.244886e-05 -2.320871e-05 -3.892085e-05 -2.048368e-05 -3.576883e-05 -1.831539e-05 -3.321798e-05 -1.694990e-05 -3.146692e-05 -1.659601e-05 -3.068217e-05 -1.740931e-05 -3.098417e-05 -1.947168e-05 -3.242528e-05 -2.276902e-05 -3.496206e-05 -2.717083e-05 -3.842639e-05 -3.241436e-05 -4.250010e-05 -3.809292e-05 -4.669577e-05 -4.364433e-05 -5.034288e-05 -4.833392e-05 -5.257764e-05 -5.123288e-05 -5.234137e-05 -5.120681e-05 -4.840667e-05 -4.694789e-05 -3.946383e-05 -3.709052e-05 -2.429598e-05 -2.043069e-05 -2.039287e-06 3.777908e-06 2.752609e-05 3.553133e-05 6.374929e-05 7.389193e-05 1.050418e-04 1.169969e-04 1.490206e-04 1.622801e-04 1.928421e-04 2.068590e-04 2.336459e-04 2.479884e-04 2.689973e-04 2.834718e-04 2.972243e-04 3.119427e-04 3.175821e-04 3.329710e-04 3.302271e-04 3.469979e-04 3.360322e-04 3.551391e-04 3.363100e-04 3.589166e-04 3.325197e-04 3.599750e-04 3.260301e-04 3.598267e-04 3.179824e-04 3.596487e-04 3.092667e-04 3.601397e-04 3.005805e-04 3.614335e-04 2.925102e-04 3.630704e-04 2.855606e-04 3.640434e-04 2.800896e-04 3.629454e-04 2.761514e-04 3.582309e-04 2.733159e-04 3.485607e-04 2.705667e-04 3.331387e-04 2.663728e-04 3.119210e-04 2.589673e-04 2.856144e-04 2.467717e-04 2.554688e-04 2.288259e-04 2.229661e-04 2.050664e-04 1.895378e-04 1.763598e-04 1.564009e-04 1.442980e-04 1.245200e-04 1.108495e-04 9.464441e-05 7.798894e-05 6.735835e-05 4.740381e-05 4.310866e-05 2.032511e-05 2.220421e-05 -2.519784e-06 4.803301e-06 -2.086382e-05 -9.093365e-06 -3.480637e-05 -1.963384e-05 -4.470305e-05 -2.708983e-05 -5.106244e-05 -3.182154e-05 -5.446201e-05 -3.424029e-05 -5.548713e-05 -3.477588e-05 -5.469185e-05 -3.385225e-05 -5.257773e-05 -3.187241e-05 -4.958619e-05 
-3.614661e-05 -5.452053e-05 -3.364510e-05 -5.130465e-05 -3.118375e-05 -4.829983e-05 -2.904161e-05 -4.572268e-05 -2.746351e-05 -4.374987e-05 -2.665732e-05 -4.252347e-05 -2.678668e-05 -4.215108e-05 -2.795920e-05 -4.269873e-05 -3.021093e-05 -4.417551e-05 -3.348950e-05 -4.651060e-05 -3.763862e-05 -4.952612e-05 -4.238594e-05 -5.291034e-05 -4.733281e-05 -5.619417e-05 -5.194023e-05 -5.872968e-05 -5.550285e-05 -5.966722e-05 -5.710903e-05 -5.793493e-05 -5.560362e-05 -5.224370e-05 -4.959650e-05 -4.116280e-05 -3.757440e-05 -2.331117e-05 -1.815219e-05 2.330482e-06 9.563522e-06 3.605253e-05 4.560082e-05 7.711926e-05 8.887962e-05 1.236706e-04 1.372112e-04 1.728912e-04 1.875686e-04 2.214217e-04 2.365647e-04 2.659090e-04 2.810133e-04 3.035546e-04 3.184368e-04 3.325353e-04 3.474168e-04 3.522125e-04 3.677323e-04 3.631116e-04 3.802891e-04 3.667004e-04 3.868805e-04 3.650350e-04 3.898346e-04 3.603500e-04 3.916034e-04 3.546716e-04 3.943419e-04 3.495212e-04 3.995296e-04 3.457641e-04 4.076823e-04 3.436202e-04 4.182077e-04 3.428078e-04 4.294419e-04 3.427467e-04 4.388943e-04 3.427304e-04 4.436938e-04 3.419965e-04 4.411796e-04 3.396870e-04 4.295078e-04 3.347634e-04 4.080992e-04 3.259910e-04 3.777710e-04 3.120916e-04 3.404943e-04 2.920672e-04 2.988695e-04 2.655724e-04 2.555267e-04 2.331552e-04 2.126660e-04 1.962421e-04 1.718542e-04 1.568725e-04 1.340584e-04 1.172992e-04 9.980957e-05 7.960206e-05 6.937931e-05 4.541823e-05 4.290072e-05 1.582248e-05 2.041856e-05 -8.664931e-06 1.891886e-06 -2.799078e-05 -1.281951e-05 -4.244797e-05 -2.396152e-05 -5.255385e-05 -3.187593e-05 -5.894573e-05 -3.697651e-05 -6.230045e-05 -3.971826e-05 -6.327827e-05 -4.056744e-05 -6.248787e-05 -3.997772e-05 -6.046823e-05 -3.837442e-05 -5.768261e-05 
-4.146725e-05 -6.115181e-05 -3.834457e-05 -5.714266e-05 -3.516622e-05 -5.333241e-05 -3.228603e-05 -5.000348e-05 -3.003669e-05 -4.741054e-05 -2.872638e-05 -4.578440e-05 -2.862500e-05 -4.532494e-05 -2.993952e-05 -4.618063e-05 -3.278039e-05 -4.841469e-05 -3.712535e-05 -5.196284e-05 -4.278900e-05 -5.659204e-05 -4.940642e-05 -6.187108e-05 -5.643257e-05 -6.715866e-05 -6.314873e-05 -7.160335e-05 -6.865732e-05 -7.414004e-05 -7.184926e-05 -7.347335e-05 -7.135272e-05 -6.806765e-05 -6.551424e-05 -5.620320e-05 -5.249497e-05 -3.617089e-05 -3.054615e-05 -6.630969e-06 1.555352e-06 3.293677e-05 4.403783e-05 8.185121e-05 9.581573e-05 1.380866e-04 1.544677e-04 1.984574e-04 2.165475e-04 2.590997e-04 2.781442e-04 3.161150e-04 3.355340e-04 3.662034e-04 3.857565e-04 4.071321e-04 4.269907e-04 4.379435e-04 4.586743e-04 4.588843e-04 4.813810e-04 4.711105e-04 4.965255e-04 4.762685e-04 5.059874e-04 4.760713e-04 5.117386e-04 4.719776e-04 5.155314e-04 4.650480e-04 5.186751e-04 4.559982e-04 5.218953e-04 4.453976e-04 5.252471e-04 4.338936e-04 5.280643e-04 4.223160e-04 5.289706e-04 4.115632e-04 5.260256e-04 4.022746e-04 5.170743e-04 3.944106e-04 5.002836e-04 3.869491e-04 4.747107e-04 3.778982e-04 4.406623e-04 3.647159e-04 3.996547e-04 3.450353e-04 3.539797e-04 3.174226e-04 3.060966e-04 2.818603e-04 2.581343e-04 2.397795e-04 2.116750e-04 1.936742e-04 1.677975e-04 1.464955e-04 1.272423e-04 1.010573e-04 9.055950e-05 5.961329e-05 5.817527e-05 2.366126e-05 3.038524e-05 -6.060678e-06 7.317568e-06 -2.945395e-05 -1.109301e-05 -4.688731e-05 -2.510067e-05 -5.902267e-05 -3.511453e-05 -6.666770e-05 -4.164765e-05 -7.066561e-05 -4.526360e-05 -7.182229e-05 -4.653147e-05 -7.086504e-05 -4.599477e-05 -6.842534e-05 -4.415498e-05 -6.503820e-05 
-5.020376e-05 -7.114364e-05 -4.793607e-05 -6.792729e-05 -4.569527e-05 -6.505148e-05 -4.381003e-05 -6.274675e-05 -4.257244e-05 -6.119803e-05 -4.223563e-05 -6.055286e-05 -4.300302e-05 -6.092200e-05 -4.500859e-05 -6.236892e-05 -4.829007e-05 -6.488593e-05 -5.276022e-05 -6.835934e-05 -5.818392e-05 -7.253100e-05 -6.416864e-05 -7.696818e-05 -7.017018e-05 -8.104943e-05 -7.550303e-05 -8.396114e-05 -7.933108e-05 -8.468375e-05 -8.061370e-05 -8.194915e-05 -7.801043e-05 -7.418765e-05 -6.980675e-05 -5.954400e-05 -5.397809e-05 -3.607279e-05 -2.849552e-05 -2.167015e-06 8.134474e-06 4.286519e-05 5.626008e-05 9.829145e-05 1.146557e-04 1.617486e-04 1.804764e-04 2.294623e-04 2.496422e-04 2.968457e-04 3.175362e-04 3.593027e-04 3.798122e-04 4.130119e-04 4.331032e-04 4.555069e-04 4.754854e-04 4.859431e-04 5.066386e-04 5.050359e-04 5.277240e-04 5.147281e-04 5.410514e-04 5.176846e-04 5.496148e-04 5.167223e-04 5.565587e-04 5.142730e-04 5.646269e-04 5.119821e-04 5.756523e-04 5.105336e-04 5.901590e-04 5.097436e-04 6.071463e-04 5.088764e-04 6.241141e-04 5.070425e-04 6.373788e-04 5.035011e-04 6.427089e-04 4.977284e-04 6.362276e-04 4.892231e-04 6.153961e-04 4.771776e-04 5.797665e-04 4.602684e-04 5.311859e-04 4.368108e-04 4.733146e-04 4.053205e-04 4.106277e-04 3.652327e-04 3.473180e-04 3.173813e-04 2.865360e-04 2.639773e-04 2.301685e-04 2.081188e-04 1.790644e-04 1.530938e-04 1.334489e-04 1.017635e-04 9.329111e-05 5.619715e-05 5.850874e-05 1.757317e-05 2.901774e-05 -1.372754e-05 4.693465e-06 -3.793604e-05 -1.468588e-05 -5.569241e-05 -2.947090e-05 -6.786724e-05 -4.013574e-05 -7.542288e-05 -4.724461e-05 -7.931554e-05 -5.140615e-05 -8.043291e-05 -5.323015e-05 -7.956029e-05 -5.329505e-05 -7.736772e-05 -5.212908e-05 -7.441139e-05 
-5.739576e-05 -7.928141e-05 -5.445444e-05 -7.519450e-05 -5.141493e-05 -7.143876e-05 -4.868664e-05 -6.831376e-05 -4.666518e-05 -6.609535e-05 -4.573190e-05 -6.504422e-05 -4.623588e-05 -6.539794e-05 -4.845585e-05 -6.734103e-05 -5.254468e-05 -7.095201e-05 -5.846707e-05 -7.613504e-05 -6.594856e-05 -8.255502e-05 -7.445634e-05 -8.960131e-05 -8.322301e-05 -9.639668e-05 -9.130019e-05 -1.018405e-04 -9.759875e-05 -1.046417e-04 -1.008590e-04 -1.032884e-04 -9.952885e-05 -9.595689e-05 -9.161929e-05 -8.046110e-05 -7.470349e-05 -5.441553e-05 -4.623156e-05 -1.572029e-05 -4.181865e-06 3.672005e-05 5.215791e-05 1.023295e-04 1.216209e-04 1.785660e-04 2.010746e-04 2.611643e-04 2.858756e-04 3.448518e-04 3.707050e-04 4.243040e-04 4.505211e-04 4.950623e-04 5.213692e-04 5.541847e-04 5.808755e-04 6.004985e-04 6.283564e-04 6.344435e-04 6.645877e-04 6.575923e-04 6.913504e-04 6.720087e-04 7.108984e-04 6.796206e-04 7.254708e-04 6.817723e-04 7.369297e-04 6.790815e-04 7.465548e-04 6.716511e-04 7.549623e-04 6.595515e-04 7.620600e-04 6.433466e-04 7.669543e-04 6.243709e-04 7.678406e-04 6.045483e-04 7.620547e-04 5.857440e-04 7.465024e-04 5.688739e-04 7.185236e-04 5.531712e-04 6.769280e-04 5.360318e-04 6.226869e-04 5.136631e-04 5.588344e-04 4.823724e-04 4.895597e-04 4.399521e-04 4.189832e-04 3.865339e-04 3.502579e-04 3.245732e-04 2.853234e-04 2.580844e-04 2.251878e-04 1.915553e-04 1.703794e-04 1.289856e-04 1.212779e-04 7.330417e-05 7.822560e-05 2.619382e-05 4.147891e-05 -1.178848e-05 1.111063e-05 -4.094305e-05 -1.305522e-05 -6.212807e-05 -3.144486e-05 -7.649652e-05 -4.468228e-05 -8.529619e-05 -5.351012e-05 -8.973511e-05 -5.871022e-05 -9.090308e-05 -6.104122e-05 -8.973613e-05 -6.119965e-05 -8.701080e-05 -5.980384e-05 -8.335704e-05 
-6.818142e-05 -9.094441e-05 -6.655730e-05 -8.811797e-05 -6.497009e-05 -8.585035e-05 -6.379999e-05 -8.437569e-05 -6.339108e-05 -8.387695e-05 -6.405098e-05 -8.449865e-05 -6.603551e-05 -8.634875e-05 -6.951653e-05 -8.948333e-05 -7.453506e-05 -9.386897e-05 -8.094882e-05 -9.932519e-05 -8.839100e-05 -1.054623e-04 -9.626106e-05 -1.116425e-04 -1.037613e-04 -1.169890e-04 -1.099674e-04 -1.204380e-04 -1.138822e-04 -1.207777e-04 -1.143930e-04 -1.165939e-04 -1.100830e-04 -1.061006e-04 -9.897062e-05 -8.698410e-05 -7.840583e-05 -5.651655e-05 -4.539364e-05 -1.213002e-05 2.588565e-06 4.764400e-05 6.655214e-05 1.222662e-04 1.452184e-04 2.087690e-04 2.348836e-04 3.020524e-04 3.299964e-04 3.957950e-04 4.242189e-04 4.836572e-04 5.116120e-04 5.604172e-04 5.876238e-04 6.227656e-04 6.496860e-04 6.696246e-04 6.973640e-04 7.019986e-04 7.321347e-04 7.224674e-04 7.569215e-04 7.344745e-04 7.755019e-04 7.415389e-04 7.918427e-04 7.465044e-04 8.093904e-04 7.509674e-04 8.303887e-04 7.550585e-04 8.553270e-04 7.576904e-04 8.826183e-04 7.572044e-04 9.085723e-04 7.521502e-04 9.277520e-04 7.418540e-04 9.338307e-04 7.264909e-04 9.209701e-04 7.065757e-04 8.854711e-04 6.820955e-04 8.271318e-04 6.518213e-04 7.496472e-04 6.133970e-04 6.596976e-04 5.643828e-04 5.650225e-04 5.037185e-04 4.723588e-04 4.327018e-04 3.861588e-04 3.549107e-04 3.084494e-04 2.752198e-04 2.395276e-04 1.985214e-04 1.788879e-04 1.287341e-04 1.259155e-04 6.835117e-05 8.018470e-05 1.846179e-05 4.145099e-05 -2.096192e-05 9.503967e-06 -5.070431e-05 -1.597574e-05 -7.198356e-05 -3.548815e-05 -8.620527e-05 -4.970766e-05 -9.479170e-05 -5.942603e-05 -9.907302e-05 -6.547842e-05 -1.002265e-04 -6.867786e-05 -9.925075e-05 -6.977078e-05 -9.696548e-05 -6.941573e-05 -9.402567e-05 
-7.765067e-05 -1.007930e-04 -7.530617e-05 -9.703265e-05 -7.284369e-05 -9.382970e-05 -7.072555e-05 -9.148719e-05 -6.941533e-05 -9.029355e-05 -6.938495e-05 -9.053966e-05 -7.109341e-05 -9.251240e-05 -7.492979e-05 -9.645298e-05 -8.112130e-05 -1.024732e-04 -8.962183e-05 -1.104391e-04 -1.000154e-04 -1.198549e-04 -1.114813e-04 -1.298052e-04 -1.228575e-04 -1.390029e-04 -1.327965e-04 -1.459373e-04 -1.399307e-04 -1.490248e-04 -1.429030e-04 -1.466025e-04 -1.401437e-04 -1.366818e-04 -1.294526e-04 -1.166225e-04 -1.077143e-04 -8.311570e-05 -7.117537e-05 -3.281478e-05 -1.644175e-05 3.646666e-05 5.815642e-05 1.245361e-04 1.515118e-04 2.282276e-04 2.595317e-04 3.417417e-04 3.758509e-04 4.577667e-04 4.931386e-04 5.689433e-04 6.045239e-04 6.692179e-04 7.047438e-04 7.547479e-04 7.907752e-04 8.241938e-04 8.618855e-04 8.783976e-04 9.191959e-04 9.195998e-04 9.649649e-04 9.504426e-04 1.001820e-03 9.730193e-04 1.032117e-03 9.882111e-04 1.057535e-03 9.955345e-04 1.078970e-03 9.936379e-04 1.096652e-03 9.813374e-04 1.110260e-03 9.587611e-04 1.118759e-03 9.280063e-04 1.119971e-03 8.928754e-04 1.110264e-03 8.576467e-04 1.084977e-03 8.252799e-04 1.039862e-03 7.957983e-04 9.731088e-04 7.657158e-04 8.868396e-04 7.290622e-04 7.869434e-04 6.797696e-04 6.811476e-04 6.143061e-04 5.764668e-04 5.332167e-04 4.775363e-04 4.409104e-04 3.864680e-04 3.440683e-04 3.037564e-04 2.496410e-04 2.293423e-04 1.632962e-04 1.632459e-04 8.868335e-05 1.056822e-04 2.742091e-05 5.687398e-05 -2.049677e-05 1.681845e-05 -5.616224e-05 -1.484511e-05 -8.126397e-05 -3.883346e-05 -9.771143e-05 -5.612304e-05 -1.073833e-04 -6.781781e-05 -1.119795e-04 -7.502755e-05 -1.129506e-04 -7.878122e-05 -1.114820e-04 -7.998092e-05 -1.085111e-04 -7.939071e-05 -1.047628e-04 