# vtk DataFile Version 2.0
Comment goes here
ASCII

DATASET STRUCTURED_POINTS
FIELD FieldData 1
TIME 1 1 double
0.03000000
DIMENSIONS    128   128   1

ORIGIN    0.000   0.000   0.000
SPACING   0.039062 0.039062   1.000

POINT_DATA   16384
SCALARS Omega double
LOOKUP_TABLE default

-8.915079e-15 -2.054857e-14 -5.515597e-16 8.691174e-15 2.845636e-14 2.778252e-14 3.892550e-14 8.982746e-15 4.743838e-15 1.277211e-14 3.676753e-14 3.628572e-14 3.360687e-14 1.147024e-14 3.953677e-14 4.228344e-14 2.046225e-14 1.454804e-14 1.583138e-14 -5.724539e-15 -7.311871e-15 1.120521e-14 1.989685e-14 4.115930e-14 -9.479567e-15 -3.316466e-14 -6.938524e-14 1.973254e-14 1.325445e-14 -9.747813e-15 2.278480e-15 -5.689785e-14 1.178068e-14 2.665900e-14 1.968536e-14 3.242700e-14 4.991473e-14 1.275633e-14 -1.621183e-14 -3.479683e-14 -4.058917e-14 -1.747843e-14 -2.221912e-14 -6.386715e-17 1.659250e-15 -3.771617e-14 -1.930303e-15 8.582918e-16 1.988841e-14 4.071385e-14 3.061818e-14 5.170958e-14 5.955347e-14 2.219436e-14 1.817322e-14 1.403265e-14 3.115357e-14 9.181641e-14 8.303233e-14 4.839175e-14 -1.270349e-14 6.444881e-14 1.764432e-14 5.120823e-15 -1.951405e-14 5.048738e-15 -6.544140e-14 -7.480549e-14 -1.360641e-13 -1.302905e-13 -1.241495e-13 -1.019523e-14 -3.660916e-14 -4.487854e-15 -2.320742e-14 -1.359702e-13 -4.359078e-14 -6.470658e-15 4.539860e-15 2.210892e-14 -2.895406e-14 -2.710242e-14 -2.876065e-14 8.339816e-15 -9.941086e-14 -1.379188e-14 -5.693324e-15 6.455127e-15 3.884575e-14 1.366242e-14 1.976952e-14 4.632754e-14 6.693806e-14 3.051061e-14 2.706593e-15 -3.634458e-14 -2.724150e-14 -2.130690e-14 1.411970e-14 2.737425e-14 3.903014e-15 -8.334009e-15 -3.518076e-14 -3.184991e-14 -4.538468e-14 -4.829981e-14 -2.128063e-14 -1.540913e-14 -6.232132e-16 -4.429770e-15 -8.784121e-15 -1.058011e-14 -1.139653e-15 -3.100280e-15 -3.478105e-15 -3.252888e-14 -4.245222e-14 -3.791182e-14 -2.875558e-14 -2.467492e-14 -2.725289e-14 -3.594144e-14 -3.052686e-14 -1.573745e-14 1.117830e-14 7.232805e-15 1.621068e-14 1.180762e-14 
-2.314248e-06 -4.149577e-06 -1.973824e-06 -3.978181e-06 -1.654707e-06 -3.823569e-06 -1.388713e-06 -3.695268e-06 -1.210633e-06 -3.600264e-06 -1.156649e-06 -3.543456e-06 -1.261719e-06 -3.528520e-06 -1.555928e-06 -3.558940e-06 -2.059977e-06 -3.638802e-06 -2.780234e-06 -3.772744e-06 -3.703941e-06 -3.964449e-06 -4.795288e-06 -4.213239e-06 -5.992988e-06 -4.508873e-06 -7.209952e-06 -4.825398e-06 -8.335566e-06 -5.115787e-06 -9.241103e-06 -5.309715e-06 -9.788833e-06 -5.316861e-06 -9.845200e-06 -5.037244e-06 -9.297742e-06 -4.378279e-06 -8.074224e-06 -3.275984e-06 -6.160956e-06 -1.715733e-06 -3.616167e-06 2.529202e-07 -5.742739e-07 2.512043e-06 2.761802e-06 4.884180e-06 6.140597e-06 7.153565e-06 9.291861e-06 9.096118e-06 1.196133e-05 1.051279e-05 1.394460e-05 1.126036e-05 1.511441e-05 1.127446e-05 1.543697e-05 1.058124e-05 1.497467e-05 9.295541e-06 1.387475e-05 7.605474e-06 1.234528e-05 5.744944e-06 1.062211e-05 3.957974e-06 8.932184e-06 2.460583e-06 7.459870e-06 1.407433e-06 6.322736e-06 8.701991e-07 5.561508e-06 8.322925e-07 5.145361e-06 1.200599e-06 4.989996e-06 1.830474e-06 4.982936e-06 2.557125e-06 5.009375e-06 3.225682e-06 4.972889e-06 3.713852e-06 4.807725e-06 3.944091e-06 4.482207e-06 3.885414e-06 3.995047e-06 3.547289e-06 3.367499e-06 2.969008e-06 2.634320e-06 2.207761e-06 1.835724e-06 1.327772e-06 1.011481e-06 3.918289e-07 1.973513e-07 -5.444018e-07 -5.765477e-07 -1.435453e-06 -1.286095e-06 -2.247090e-06 -1.912844e-06 -2.955930e-06 -2.443466e-06 -3.548257e-06 -2.869192e-06 -4.018490e-06 -3.185342e-06 -4.367636e-06 -3.390938e-06 -4.601885e-06 -3.488383e-06 -4.731405e-06 -3.483199e-06 -4.769345e-06 -3.383829e-06 -4.730957e-06 -3.201547e-06 -4.632817e-06 -2.950498e-06 -4.492066e-06 -2.647881e-06 -4.325652e-06 
-6.023516e-06 -9.895994e-06 -5.725616e-06 -9.958425e-06 -5.493921e-06 -1.006896e-05 -5.368896e-06 -1.021960e-05 -5.390917e-06 -1.039112e-05 -5.597877e-06 -1.055520e-05 -6.021657e-06 -1.067850e-05 -6.683556e-06 -1.072829e-05 -7.589105e-06 -1.067865e-05 -8.722958e-06 -1.051597e-05 -1.004475e-05 -1.024173e-05 -1.148678e-05 -9.871092e-06 -1.295400e-05 -9.426545e-06 -1.432653e-05 -8.927200e-06 -1.546471e-05 -8.376357e-06 -1.621679e-05 -7.751443e-06 -1.642999e-05 -7.001053e-06 -1.596575e-05 -6.052753e-06 -1.471966e-05 -4.832343e-06 -1.264435e-05 -3.291084e-06 -9.771237e-06 -1.433398e-06 -6.224526e-06 6.644436e-07 -2.220409e-06 2.852854e-06 1.952890e-06 4.928327e-06 5.973709e-06 6.670894e-06 9.537568e-06 7.890721e-06 1.240850e-05 8.471499e-06 1.445831e-05 8.398639e-06 1.568354e-05 7.764584e-06 1.619554e-05 6.750111e-06 1.618691e-05 5.587262e-06 1.588356e-05 4.514170e-06 1.549547e-05 3.733125e-06 1.517841e-05 3.380740e-06 1.501438e-05 3.514313e-06 1.501221e-05 4.113446e-06 1.512362e-05 5.092595e-06 1.526650e-05 6.319300e-06 1.534777e-05 7.633991e-06 1.528041e-05 8.869200e-06 1.499391e-05 9.867393e-06 1.443940e-05 1.049693e-05 1.359187e-05 1.066515e-05 1.245088e-05 1.032689e-05 1.103979e-05 9.487171e-06 9.403068e-06 8.197182e-06 7.601325e-06 6.544557e-06 5.704639e-06 4.639806e-06 3.785228e-06 2.601580e-06 1.910870e-06 5.433228e-07 1.400312e-07 -1.436852e-06 -1.480880e-06 -3.262238e-06 -2.918304e-06 -4.879684e-06 -4.150913e-06 -6.258672e-06 -5.168184e-06 -7.388431e-06 -5.968719e-06 -8.274189e-06 -6.558620e-06 -8.933358e-06 -6.950105e-06 -9.392144e-06 -7.160377e-06 -9.682702e-06 -7.210732e-06 -9.840799e-06 -7.125865e-06 -9.903778e-06 -6.933367e-06 -9.908629e-06 -6.663391e-06 -9.889987e-06 -6.348484e-06 -9.877986e-06 
-7.143569e-06 -1.257060e-05 -6.131901e-06 -1.207663e-05 -5.178939e-06 -1.163579e-05 -4.380022e-06 -1.127587e-05 -3.840346e-06 -1.101656e-05 -3.670370e-06 -1.087085e-05 -3.977968e-06 -1.084764e-05 -4.857188e-06 -1.095519e-05 -6.374173e-06 -1.120393e-05 -8.551568e-06 -1.160692e-05 -1.135340e-05 -1.217584e-05 -1.467266e-05 -1.291105e-05 -1.832382e-05 -1.378562e-05 -2.204180e-05 -1.472594e-05 -2.548902e-05 -1.559403e-05 -2.827180e-05 -1.617904e-05 -2.996780e-05 -1.620576e-05 -3.016572e-05 -1.536526e-05 -2.851676e-05 -1.336731e-05 -2.479329e-05 -1.000662e-05 -1.894595e-05 -5.228525e-06 -1.114587e-05 8.233406e-07 -1.799275e-06 7.792480e-06 8.474991e-06 1.513578e-05 1.890603e-05 2.218847e-05 2.866201e-05 2.825658e-05 3.695707e-05 3.272008e-05 4.315583e-05 3.512846e-05 4.685816e-05 3.527303e-05 4.795068e-05 3.322455e-05 4.661701e-05 2.932973e-05 4.330443e-05 2.416541e-05 3.865103e-05 1.845444e-05 3.338370e-05 1.295456e-05 2.820363e-05 8.338156e-06 2.368047e-05 5.086321e-06 2.017614e-05 3.419853e-06 1.781356e-05 3.282900e-06 1.649434e-05 4.381259e-06 1.595669e-05 6.262892e-06 1.585541e-05 8.417844e-06 1.584228e-05 1.037249e-05 1.562915e-05 1.175882e-05 1.502383e-05 1.234971e-05 1.393822e-05 1.206172e-05 1.237512e-05 1.093380e-05 1.040311e-05 9.093115e-06 8.128786e-06 6.717918e-06 5.672772e-06 4.004564e-06 3.152694e-06 1.142342e-06 6.732885e-07 -1.702936e-06 -1.677814e-06 -4.397461e-06 -3.830690e-06 -6.841826e-06 -5.731958e-06 -8.969331e-06 -7.343090e-06 -1.074203e-05 -8.638812e-06 -1.214589e-05 -9.605789e-06 -1.318610e-05 -1.024154e-05 -1.388282e-05 -1.055351e-05 -1.426765e-05 -1.055827e-05 -1.438073e-05 -1.028086e-05 -1.426821e-05 -9.754541e-06 -1.398001e-05 -9.020894e-06 -1.356762e-05 -8.130421e-06 -1.308186e-05 
-1.245600e-05 -2.004918e-05 -1.189927e-05 -2.023746e-05 -1.147017e-05 -2.053373e-05 -1.124967e-05 -2.092044e-05 -1.131980e-05 -2.135583e-05 -1.175902e-05 -2.177807e-05 -1.263495e-05 -2.211330e-05 -1.399457e-05 -2.228751e-05 -1.585275e-05 -2.224009e-05 -1.818075e-05 -2.193630e-05 -2.089684e-05 -2.137458e-05 -2.386104e-05 -2.058514e-05 -2.687556e-05 -1.961758e-05 -2.969103e-05 -1.851878e-05 -3.201811e-05 -1.730572e-05 -3.354415e-05 -1.594224e-05 -3.395581e-05 -1.433005e-05 -3.296939e-05 -1.232257e-05 -3.037043e-05 -9.764071e-06 -2.606016e-05 -6.547198e-06 -2.010066e-05 -2.672974e-06 -1.274494e-05 1.707550e-06 -4.436849e-06 6.288225e-06 4.229442e-06 1.064770e-05 1.258961e-05 1.432843e-05 2.001532e-05 1.693562e-05 2.602209e-05 1.822922e-05 3.035145e-05 1.818309e-05 3.300505e-05 1.699456e-05 3.422123e-05 1.504229e-05 3.440077e-05 1.280528e-05 3.400313e-05 1.076603e-05 3.344206e-05 9.323350e-06 3.300799e-05 8.733961e-06 3.283395e-05 9.090688e-06 3.290625e-05 1.033307e-05 3.310702e-05 1.227853e-05 3.326818e-05 1.466134e-05 3.321802e-05 1.717048e-05 3.281044e-05 1.948376e-05 3.193707e-05 2.129881e-05 3.052927e-05 2.236220e-05 2.855736e-05 2.249514e-05 2.603085e-05 2.161202e-05 2.299896e-05 1.972755e-05 1.954837e-05 1.694998e-05 1.579623e-05 1.346166e-05 1.187854e-05 9.490835e-06 7.936137e-06 5.280708e-06 4.101468e-06 1.061493e-06 4.885941e-07 -2.970433e-06 -2.812512e-06 -6.664473e-06 -5.737571e-06 -9.919338e-06 -8.246638e-06 -1.268012e-05 -1.032112e-05 -1.493153e-05 -1.196029e-05 -1.668964e-05 -1.317799e-05 -1.799385e-05 -1.399987e-05 -1.890006e-05 -1.446110e-05 -1.947506e-05 -1.460459e-05 -1.979211e-05 -1.447961e-05 -1.992716e-05 -1.414075e-05 -1.995520e-05 -1.364729e-05 -1.994639e-05 -1.306296e-05 -1.996189e-05 
-1.258319e-05 -2.135210e-05 -1.093150e-05 -2.059755e-05 -9.360153e-06 -1.994160e-05 -8.027425e-06 -1.942805e-05 -7.111191e-06 -1.908565e-05 -6.801920e-06 -1.893018e-05 -7.289601e-06 -1.896915e-05 -8.744072e-06 -1.920840e-05 -1.128964e-05 -1.965849e-05 -1.497644e-05 -2.033755e-05 -1.975252e-05 -2.126665e-05 -2.544101e-05 -2.245416e-05 -3.172659e-05 -2.386846e-05 -3.815417e-05 -2.540218e-05 -4.414139e-05 -2.683717e-05 -4.900664e-05 -2.782363e-05 -5.201508e-05 -2.788895e-05 -5.244515e-05 -2.648720e-05 -4.967616e-05 -2.309054e-05 -4.329075e-05 -1.730911e-05 -3.317699e-05 -9.012856e-06 -1.960695e-05 1.577499e-06 -3.267095e-06 1.385904e-05 1.477681e-05 2.688943e-05 3.318316e-05 3.949994e-05 5.049285e-05 5.045832e-05 6.531635e-05 5.865129e-05 7.651777e-05 6.325485e-05 8.336592e-05 6.386548e-05 8.562923e-05 6.057249e-05 8.359983e-05 5.395950e-05 7.804142e-05 4.503024e-05 7.006534e-05 3.506318e-05 6.095075e-05 2.541197e-05 5.193802e-05 1.728412e-05 4.403476e-05 1.154243e-05 3.787574e-05 8.575103e-06 3.366709e-05 8.266337e-06 3.122240e-05 1.007187e-05 3.007325e-05 1.317364e-05 2.961732e-05 1.666737e-05 2.926253e-05 1.973386e-05 2.853474e-05 2.175830e-05 2.713339e-05 2.238393e-05 2.493733e-05 2.150650e-05 2.197487e-05 1.922824e-05 1.837666e-05 1.579294e-05 1.432745e-05 1.151981e-05 1.002717e-05 6.747564e-06 5.665129e-06 1.793736e-06 1.406467e-06 -3.070402e-06 -2.612413e-06 -7.631414e-06 -6.283398e-06 -1.173534e-05 -9.524132e-06 -1.528298e-05 -1.227524e-05 -1.822201e-05 -1.449799e-05 -2.053822e-05 -1.617251e-05 -2.224739e-05 -1.729624e-05 -2.338833e-05 -1.788245e-05 -2.401727e-05 -1.795887e-05 -2.420333e-05 -1.756651e-05 -2.402473e-05 -1.675904e-05 -2.356530e-05 -1.560297e-05 -2.291110e-05 -1.417880e-05 -2.214684e-05 
-1.971930e-05 -3.070328e-05 -1.898672e-05 -3.114703e-05 -1.843385e-05 -3.178436e-05 -1.818190e-05 -3.258558e-05 -1.835696e-05 -3.348030e-05 -1.908352e-05 -3.436263e-05 -2.047316e-05 -3.510328e-05 -2.260816e-05 -3.556861e-05 -2.552143e-05 -3.564384e-05 -2.917556e-05 -3.525590e-05 -3.344542e-05 -3.438918e-05 -3.810866e-05 -3.308724e-05 -4.284731e-05 -3.143603e-05 -4.726061e-05 -2.952864e-05 -5.088715e-05 -2.741882e-05 -5.323377e-05 -2.507738e-05 -5.381064e-05 -2.236978e-05 -5.217603e-05 -1.907169e-05 -4.799430e-05 -1.492883e-05 -4.110666e-05 -9.751816e-06 -3.160337e-05 -3.519183e-06 -1.987521e-05 3.547713e-06 -6.617846e-06 1.097082e-05 7.229974e-06 1.807814e-05 2.061472e-05 2.413381e-05 3.254083e-05 2.850272e-05 4.224733e-05 3.080346e-05 4.934143e-05 3.100506e-05 5.385090e-05 2.943858e-05 5.617861e-05 2.672048e-05 5.697140e-05 2.361131e-05 5.694124e-05 2.085171e-05 5.669138e-05 1.902187e-05 5.659661e-05 1.845792e-05 5.676654e-05 1.923570e-05 5.708967e-05 2.120873e-05 5.732836e-05 2.407292e-05 5.722093e-05 2.743144e-05 5.655410e-05 3.084552e-05 5.519072e-05 3.387148e-05 5.306189e-05 3.609319e-05 5.014541e-05 3.715754e-05 4.645045e-05 3.681255e-05 4.201612e-05 3.494010e-05 3.691919e-05 3.157263e-05 3.128079e-05 2.688686e-05 2.526419e-05 2.117450e-05 1.906187e-05 1.479689e-05 1.287586e-05 8.134296e-06 6.897197e-06 1.540446e-06 1.289900e-06 -4.690317e-06 -3.818204e-06 -1.034027e-05 -8.337938e-06 -1.527131e-05 -1.221639e-05 -1.941755e-05 -1.543201e-05 -2.277247e-05 -1.798908e-05 -2.537464e-05 -1.991268e-05 -2.729475e-05 -2.124449e-05 -2.862518e-05 -2.203944e-05 -2.947216e-05 -2.236300e-05 -2.994973e-05 -2.228905e-05 -3.017486e-05 -2.189823e-05 -3.026254e-05 -2.127712e-05 -3.032048e-05 -2.051798e-05 -3.044288e-05 
-1.906582e-05 -3.071630e-05 -1.683465e-05 -2.980885e-05 -1.467883e-05 -2.906327e-05 -1.281770e-05 -2.853633e-05 -1.150495e-05 -2.826014e-05 -1.102047e-05 -2.824427e-05 -1.165237e-05 -2.848272e-05 -1.366757e-05 -2.896503e-05 -1.727191e-05 -2.968888e-05 -2.256392e-05 -3.066907e-05 -2.948900e-05 -3.193608e-05 -3.780244e-05 -3.351750e-05 -4.704843e-05 -3.539866e-05 -5.655925e-05 -3.746571e-05 -6.547571e-05 -3.944362e-05 -7.278845e-05 -4.085092e-05 -7.740244e-05 -4.099798e-05 -7.822966e-05 -3.905126e-05 -7.431438e-05 -3.416978e-05 -6.498605e-05 -2.569517e-05 -5.001867e-05 -1.335205e-05 -2.975999e-05 2.596859e-06 -5.189167e-06 2.128999e-05 2.212686e-05 4.132496e-05 5.018409e-05 6.092861e-05 7.677815e-05 7.820521e-05 9.978598e-05 9.141541e-05 1.174449e-04 9.923851e-05 1.285850e-04 1.009792e-04 1.327823e-04 9.669084e-05 1.304088e-04 8.719583e-05 1.225701e-04 7.398999e-05 1.109281e-04 5.902961e-05 9.742788e-05 4.442026e-05 8.397126e-05 3.205665e-05 7.210264e-05 2.329050e-05 6.278051e-05 1.871115e-05 5.629055e-05 1.809928e-05 5.231423e-05 2.056242e-05 5.011871e-05 2.480291e-05 4.880037e-05 2.943183e-05 4.750967e-05 3.324122e-05 4.560536e-05 3.537713e-05 4.271970e-05 3.539897e-05 3.874640e-05 3.324570e-05 3.377997e-05 2.914638e-05 2.803831e-05 2.351193e-05 2.179232e-05 1.683474e-05 1.531525e-05 9.609844e-06 8.853644e-06 2.281917e-06 2.615602e-06 -4.783968e-06 -3.230296e-06 -1.131258e-05 -8.551377e-06 -1.711557e-05 -1.324647e-05 -2.208088e-05 -1.724247e-05 -2.615908e-05 -2.049214e-05 -2.934974e-05 -2.297256e-05 -3.168980e-05 -2.468362e-05 -3.324418e-05 -2.564615e-05 -3.409867e-05 -2.589977e-05 -3.435447e-05 -2.550085e-05 -3.412360e-05 -2.452131e-05 -3.352478e-05 -2.304869e-05 -3.267921e-05 -2.118807e-05 -3.170588e-05 
-2.826047e-05 -4.207294e-05 -2.748934e-05 -4.297308e-05 -2.693662e-05 -4.419639e-05 -2.676256e-05 -4.569889e-05 -2.714031e-05 -4.737353e-05 -2.824878e-05 -4.905476e-05 -3.025710e-05 -5.053404e-05 -3.329975e-05 -5.158731e-05 -3.744371e-05 -5.201147e-05 -4.265243e-05 -5.166340e-05 -4.875483e-05 -5.049110e-05 -5.542835e-05 -4.854510e-05 -6.220276e-05 -4.596064e-05 -6.848551e-05 -4.290790e-05 -7.360277e-05 -3.951829e-05 -7.684737e-05 -3.580772e-05 -7.752888e-05 -3.162652e-05 -7.502954e-05 -2.666678e-05 -6.887657e-05 -2.054357e-05 -5.883674e-05 -1.293958e-05 -4.502183e-05 -3.772060e-06 -2.797221e-05 6.678759e-06 -8.674415e-06 1.773620e-05 1.152173e-05 2.841683e-05 3.109087e-05 3.762945e-05 4.859197e-05 4.443087e-05 6.293680e-05 4.826368e-05 7.359214e-05 4.910378e-05 8.065356e-05 4.747046e-05 8.476308e-05 4.429443e-05 8.688995e-05 4.068399e-05 8.803890e-05 3.766275e-05 8.897699e-05 3.595933e-05 9.006490e-05 3.590557e-05 9.124077e-05 3.745505e-05 9.214558e-05 4.028696e-05 9.232406e-05 4.393477e-05 9.141074e-05 4.788613e-05 8.923023e-05 5.163221e-05 8.579270e-05 5.468061e-05 8.121897e-05 5.656378e-05 7.565446e-05 5.686804e-05 6.921900e-05 5.528590e-05 6.200571e-05 5.167378e-05 5.411163e-05 4.609015e-05 4.567145e-05 3.879631e-05 3.687305e-05 3.021703e-05 2.794901e-05 2.087257e-05 1.915116e-05 1.130112e-05 1.072059e-05 1.990195e-06 2.863188e-06 -6.670158e-06 -4.264100e-06 -1.440849e-05 -1.055650e-05 -2.107046e-05 -1.595731e-05 -2.660253e-05 -2.045035e-05 -3.102901e-05 -2.405199e-05 -3.442943e-05 -2.680429e-05 -3.691978e-05 -2.876948e-05 -3.863882e-05 -3.002559e-05 -3.973879e-05 -3.066282e-05 -4.037901e-05 -3.078047e-05 -4.072078e-05 -3.048462e-05 -4.092220e-05 -2.988682e-05 -4.113187e-05 -2.910412e-05 -4.148088e-05 
-2.706206e-05 -4.085492e-05 -2.435557e-05 -3.995384e-05 -2.168173e-05 -3.930857e-05 -1.931629e-05 -3.898638e-05 -1.759132e-05 -3.901583e-05 -1.688885e-05 -3.938761e-05 -1.761893e-05 -4.006333e-05 -2.017893e-05 -4.099263e-05 -2.489424e-05 -4.213597e-05 -3.194630e-05 -4.348615e-05 -4.129993e-05 -4.507745e-05 -5.264500e-05 -4.696998e-05 -6.536568e-05 -4.919966e-05 -7.854340e-05 -5.169355e-05 -9.099116e-05 -5.416547e-05 -1.013126e-04 -5.602435e-05 -1.079843e-04 -5.634052e-05 -1.094701e-04 -5.391370e-05 -1.043827e-04 -4.746273e-05 -9.169523e-05 -3.591445e-05 -7.097884e-05 -1.872338e-05 -4.260854e-05 3.871225e-06 -7.869457e-06 3.073346e-05 3.108814e-05 5.990381e-05 7.145511e-05 8.884318e-05 1.100975e-04 1.147921e-04 1.439558e-04 1.351724e-04 1.704411e-04 1.479658e-04 1.877706e-04 1.520201e-04 1.951993e-04 1.472487e-04 1.931208e-04 1.346971e-04 1.830108e-04 1.164444e-04 1.672001e-04 9.532029e-05 1.484863e-04 7.444599e-05 1.296391e-04 5.666822e-05 1.129053e-04 4.401565e-05 9.964579e-05 3.733398e-05 9.020623e-05 3.621545e-05 8.404768e-05 3.923984e-05 8.006887e-05 4.443186e-05 7.699596e-05 4.977293e-05 7.371465e-05 5.361294e-05 6.946796e-05 5.489534e-05 6.390650e-05 5.319172e-05 5.702758e-05 4.860041e-05 4.905951e-05 4.158164e-05 4.034248e-05 3.278839e-05 3.123718e-05 2.292722e-05 2.207127e-05 1.266066e-05 1.311844e-05 2.549409e-06 4.597942e-06 -6.972932e-06 -3.316982e-06 -1.560167e-05 -1.049001e-05 -2.314772e-05 -1.681564e-05 -2.951711e-05 -2.221664e-05 -3.468905e-05 -2.664376e-05 -3.869681e-05 -3.007593e-05 -4.161270e-05 -3.251955e-05 -4.353735e-05 -3.400632e-05 -4.459223e-05 -3.458996e-05 -4.491424e-05 -3.434268e-05 -4.465136e-05 -3.335265e-05 -4.395860e-05 -3.172370e-05 -4.299348e-05 -2.957801e-05 -4.191059e-05 
-3.856281e-05 -5.432388e-05 -3.796228e-05 -5.595899e-05 -3.760284e-05 -5.811609e-05 -3.768018e-05 -6.073776e-05 -3.841712e-05 -6.367256e-05 -4.005814e-05 -6.667540e-05 -4.285051e-05 -6.942461e-05 -4.700852e-05 -7.155854e-05 -5.266142e-05 -7.273023e-05 -5.979241e-05 -7.267160e-05 -6.818301e-05 -7.125189e-05 -7.738132e-05 -6.851063e-05 -8.670903e-05 -6.464682e-05 -9.531021e-05 -5.995446e-05 -1.022285e-04 -5.471070e-05 -1.064896e-04 -4.904411e-05 -1.071703e-04 -4.283040e-05 -1.034585e-04 -3.567087e-05 -9.472661e-05 -2.699250e-05 -8.064443e-05 -1.626391e-05 -6.132828e-05 -3.264823e-06 -3.747793e-05 1.169282e-05 -1.042688e-05 2.769058e-05 1.795765e-05 4.332663e-05 4.554015e-05 5.701587e-05 7.029955e-05 6.738283e-05 9.073152e-05 7.362828e-05 1.061520e-04 7.575311e-05 1.168015e-04 7.456276e-05 1.237016e-04 7.144260e-05 1.282920e-04 6.797144e-05 1.319542e-04 6.550038e-05 1.355785e-04 6.483937e-05 1.393288e-04 6.615107e-05 1.426902e-04 6.906309e-05 1.447694e-04 7.291673e-05 1.447098e-04 7.702040e-05 1.420324e-04 8.079826e-05 1.367644e-04 8.380287e-05 1.293335e-04 8.564350e-05 1.203288e-04 8.591840e-05 1.102706e-04 8.421541e-05 9.949411e-05 8.018774e-05 8.816321e-05 7.366282e-05 7.636121e-05 6.472707e-05 6.418865e-05 5.374638e-05 5.181857e-05 4.131503e-05 3.949875e-05 2.815356e-05 2.751692e-05 1.499062e-05 1.615460e-05 2.461493e-06 5.649426e-06 -8.955641e-06 -3.824985e-06 -1.896095e-05 -1.216236e-05 -2.741949e-05 -1.931628e-05 -3.432773e-05 -2.528863e-05 -3.977446e-05 -3.011854e-05 -4.390653e-05 -3.387372e-05 -4.690380e-05 -3.664413e-05 -4.896353e-05 -3.853675e-05 -5.029152e-05 -3.967099e-05 -5.109730e-05 -4.017437e-05 -5.159045e-05 -4.017895e-05 -5.197632e-05 -3.981940e-05 -5.244963e-05 -3.923306e-05 -5.318495e-05 
-3.709345e-05 -5.191019e-05 -3.408277e-05 -5.123330e-05 -3.101380e-05 -5.095592e-05 -2.820847e-05 -5.115638e-05 -2.607702e-05 -5.185386e-05 -2.511822e-05 -5.300474e-05 -2.589687e-05 -5.451120e-05 -2.899064e-05 -5.624536e-05 -3.490405e-05 -5.808758e-05 -4.395743e-05 -5.997042e-05 -5.617087e-05 -6.191168e-05 -7.117103e-05 -6.401435e-05 -8.814649e-05 -6.641221e-05 -1.058626e-04 -6.915127e-05 -1.227247e-04 -7.202000e-05 -1.368670e-04 -7.437325e-05 -1.462504e-04 -7.502454e-05 -1.487846e-04 -7.229114e-05 -1.425138e-04 -6.424517e-05 -1.258941e-04 -4.914991e-05 -9.814378e-05 -2.597238e-05 -5.957446e-05 5.189005e-06 -1.178518e-05 4.290510e-05 4.237176e-05 8.450833e-05 9.906961e-05 1.264446e-04 1.539720e-04 1.647866e-04 2.027846e-04 1.957969e-04 2.417972e-04 2.164508e-04 2.683451e-04 2.248696e-04 2.811498e-04 2.206348e-04 2.805060e-04 2.049482e-04 2.682733e-04 1.805791e-04 2.476193e-04 1.515246e-04 2.224894e-04 1.223539e-04 1.968616e-04 9.731869e-05 1.739584e-04 7.945046e-05 1.556583e-04 6.993899e-05 1.423064e-04 6.802360e-05 1.329682e-04 7.143099e-05 1.259904e-04 7.717053e-05 1.196292e-04 8.237421e-05 1.125285e-04 8.490564e-05 1.039402e-04 8.361503e-05 9.370435e-05 7.827913e-05 8.207954e-05 6.935764e-05 6.953280e-05 5.770200e-05 5.656668e-05 4.430576e-05 4.361720e-05 3.012962e-05 3.101895e-05 1.599894e-05 1.901383e-05 2.556649e-06 7.777511e-06 -9.744931e-06 -2.554938e-06 -2.062694e-05 -1.187310e-05 -2.995270e-05 -2.008572e-05 -3.769193e-05 -2.712278e-05 -4.388825e-05 -3.294059e-05 -4.863412e-05 -3.752628e-05 -5.205418e-05 -4.089906e-05 -5.429530e-05 -4.310775e-05 -5.552083e-05 -4.422547e-05 -5.590698e-05 -4.434331e-05 -5.563995e-05 -4.356537e-05 -5.491288e-05 -4.200713e-05 -5.392181e-05 -3.979865e-05 -5.286005e-05 
-5.115434e-05 -6.754698e-05 -5.103275e-05 -7.027903e-05 -5.115914e-05 -7.383594e-05 -5.175641e-05 -7.815537e-05 -5.309700e-05 -8.303825e-05 -5.550405e-05 -8.813864e-05 -5.933232e-05 -9.297709e-05 -6.491980e-05 -9.698575e-05 -7.250737e-05 -9.958677e-05 -8.213554e-05 -1.002950e-04 -9.354308e-05 -9.882284e-05 -1.061038e-04 -9.515631e-05 -1.188352e-04 -8.956767e-05 -1.304906e-04 -8.254132e-05 -1.397079e-04 -7.461028e-05 -1.451601e-04 -6.613487e-05 -1.456556e-04 -5.709518e-05 -1.401818e-04 -4.699713e-05 -1.279465e-04 -3.497927e-05 -1.084892e-04 -2.013529e-05 -8.188918e-05 -1.958374e-06 -4.899936e-05 1.926953e-05 -1.157303e-05 4.232089e-05 2.784029e-05 6.518980e-05 6.626609e-05 8.555057e-05 1.008727e-04 1.013700e-04 1.295818e-04 1.114817e-04 1.515358e-04 1.159367e-04 1.672554e-04 1.159989e-04 1.784002e-04 1.137655e-04 1.871654e-04 1.115159e-04 1.954848e-04 1.110132e-04 2.043179e-04 1.130184e-04 2.133019e-04 1.172033e-04 2.209377e-04 1.224758e-04 2.252496e-04 1.275349e-04 2.246329e-04 1.313719e-04 2.184953e-04 1.334875e-04 2.074045e-04 1.337825e-04 1.927320e-04 1.322697e-04 1.760440e-04 1.288250e-04 1.585786e-04 1.231264e-04 1.410212e-04 1.147841e-04 1.235828e-04 1.035612e-04 1.062377e-04 8.955563e-05 8.895531e-05 7.326238e-05 7.182894e-05 5.550322e-05 5.509004e-05 3.726628e-05 3.905032e-05 1.952111e-05 2.402421e-05 3.067668e-06 1.026899e-05 -1.154743e-05 -2.043488e-06 -2.404358e-05 -1.282760e-05 -3.436602e-05 -2.206922e-05 -4.262093e-05 -2.980740e-05 -4.901071e-05 -3.611957e-05 -5.378461e-05 -4.111186e-05 -5.720858e-05 -4.491289e-05 -5.955100e-05 -4.766842e-05 -6.107826e-05 -4.953558e-05 -6.205444e-05 -5.067659e-05 -6.274147e-05 -5.125311e-05 -6.339727e-05 -5.142265e-05 -6.427025e-05 -5.133857e-05 -6.558915e-05 
-4.974238e-05 -6.394958e-05 -4.670169e-05 -6.377925e-05 -4.345546e-05 -6.422939e-05 -4.035193e-05 -6.539760e-05 -3.787175e-05 -6.729337e-05 -3.664412e-05 -6.982358e-05 -3.743112e-05 -7.279570e-05 -4.106345e-05 -7.594755e-05 -4.831816e-05 -7.900689e-05 -5.974664e-05 -8.177263e-05 -7.548465e-05 -8.419431e-05 -9.509720e-05 -8.641252e-05 -1.175110e-04 -8.871820e-05 -1.410587e-04 -9.139916e-05 -1.636079e-04 -9.447439e-05 -1.827098e-04 -9.737008e-05 -1.957125e-04 -9.865666e-05 -1.998536e-04 -9.600858e-05 -1.924262e-04 -8.651707e-05 -1.711211e-04 -6.735671e-05 -1.345472e-04 -3.662767e-05 -8.278230e-05 5.919258e-06 -1.773118e-05 5.853529e-05 5.687946e-05 1.176052e-04 1.358900e-04 1.781774e-04 2.133661e-04 2.347085e-04 2.833570e-04 2.818375e-04 3.406123e-04 3.150788e-04 3.811867e-04 3.314010e-04 4.029162e-04 3.297004e-04 4.057532e-04 3.111450e-04 3.918932e-04 2.792761e-04 3.655577e-04 2.396805e-04 3.323050e-04 1.990826e-04 2.978940e-04 1.639252e-04 2.669830e-04 1.388191e-04 2.421355e-04 1.254391e-04 2.235366e-04 1.223476e-04 2.095062e-04 1.258182e-04 1.975128e-04 1.312651e-04 1.852108e-04 1.346521e-04 1.711117e-04 1.333758e-04 1.547599e-04 1.264690e-04 1.365181e-04 1.142909e-04 1.171790e-04 9.800271e-05 9.760072e-05 7.907754e-05 7.847642e-05 5.895934e-05 6.025556e-05 3.887840e-05 4.317419e-05 1.977786e-05 2.733293e-05 2.305433e-06 1.277358e-05 -1.315853e-05 -4.703959e-07 -2.645179e-05 -1.235353e-05 -3.757115e-05 -2.282044e-05 -4.661511e-05 -3.181996e-05 -5.373843e-05 -3.932194e-05 -5.912290e-05 -4.532987e-05 -6.296298e-05 -4.988579e-05 -6.546117e-05 -5.306705e-05 -6.682755e-05 -5.497712e-05 -6.728044e-05 -5.573429e-05 -6.704634e-05 -5.546207e-05 -6.635895e-05 -5.428473e-05 -6.545659e-05 -5.233028e-05 -6.457722e-05 
-6.661203e-05 -8.172482e-05 -6.741779e-05 -8.600093e-05 -6.846899e-05 -9.155603e-05 -6.999921e-05 -9.834661e-05 -7.232347e-05 -1.061354e-04 -7.585570e-05 -1.144592e-04 -8.109756e-05 -1.226273e-04 -8.857917e-05 -1.297701e-04 -9.873900e-05 -1.349463e-04 -1.117503e-04 -1.373019e-04 -1.273335e-04 -1.362528e-04 -1.446234e-04 -1.316396e-04 -1.621689e-04 -1.237970e-04 -1.781009e-04 -1.134873e-04 -1.904260e-04 -1.016736e-04 -1.973218e-04 -8.915846e-05 -1.972985e-04 -7.618408e-05 -1.891850e-04 -6.217380e-05 -1.720502e-04 -4.580541e-05 -1.452559e-04 -2.549635e-05 -1.087452e-04 -1.605916e-07 -6.346714e-05 3.008539e-05 -1.167453e-05 6.360166e-05 4.314820e-05 9.745576e-05 9.680814e-05 1.281434e-04 1.452640e-04 1.525645e-04 1.855770e-04 1.689467e-04 2.166565e-04 1.774160e-04 2.395288e-04 1.799959e-04 2.569586e-04 1.799670e-04 2.724419e-04 1.807497e-04 2.888390e-04 1.846933e-04 3.071298e-04 1.922665e-04 3.258392e-04 2.020240e-04 3.414807e-04 2.113831e-04 3.499367e-04 2.178236e-04 3.481897e-04 2.198888e-04 3.355648e-04 2.174976e-04 3.138693e-04 2.115111e-04 2.864474e-04 2.029389e-04 2.567732e-04 1.923042e-04 2.273507e-04 1.794790e-04 1.993467e-04 1.639610e-04 1.728810e-04 1.453380e-04 1.475969e-04 1.236657e-04 1.231551e-04 9.960344e-05 9.947586e-05 7.430035e-05 7.674774e-05 4.912588e-05 5.530784e-05 2.536942e-05 3.550292e-05 4.012226e-06 1.759373e-05 -1.437718e-05 1.719332e-06 -2.962696e-05 -1.209294e-05 -4.186656e-05 -2.389701e-05 -5.140551e-05 -3.379826e-05 -5.862944e-05 -4.193473e-05 -6.393353e-05 -4.846893e-05 -6.769264e-05 -5.358447e-05 -7.025641e-05 -5.748191e-05 -7.195579e-05 -6.037139e-05 -7.311196e-05 -6.246293e-05 -7.404284e-05 -6.395686e-05 -7.506543e-05 -6.503729e-05 -7.649271e-05 -6.587078e-05 -7.862370e-05 
-6.565628e-05 -7.693296e-05 -6.301690e-05 -7.761794e-05 -5.996715e-05 -7.925956e-05 -5.684569e-05 -8.199812e-05 -5.418061e-05 -8.584730e-05 -5.273752e-05 -9.065728e-05 -5.352679e-05 -9.610055e-05 -5.773644e-05 -1.017001e-04 -6.656409e-05 -1.069139e-04 -8.094865e-05 -1.112735e-04 -1.012503e-04 -1.145462e-04 -1.269763e-04 -1.168620e-04 -1.566661e-04 -1.187279e-04 -1.879994e-04 -1.208564e-04 -2.180749e-04 -1.237708e-04 -2.437004e-04 -1.272337e-04 -2.615310e-04 -1.296745e-04 -2.680435e-04 -1.279194e-04 -2.595627e-04 -1.175355e-04 -2.326259e-04 -9.386867e-05 -1.847796e-04 -5.347960e-05 -1.155433e-04 4.588622e-06 -2.708412e-05 7.821474e-05 7.573303e-05 1.624349e-04 1.859352e-04 2.503048e-04 2.954200e-04 3.340145e-04 3.960052e-04 4.059405e-04 4.803394e-04 4.595014e-04 5.426268e-04 4.898578e-04 5.792404e-04 4.945795e-04 5.892941e-04 4.743255e-04 5.750913e-04 4.333504e-04 5.421440e-04 3.793965e-04 4.983610e-04 3.225109e-04 4.522801e-04 2.727325e-04 4.108092e-04 2.373100e-04 3.774395e-04 2.186379e-04 3.518088e-04 2.139464e-04 3.307781e-04 2.169156e-04 3.103519e-04 2.203530e-04 2.874379e-04 2.186209e-04 2.607467e-04 2.088709e-04 2.307313e-04 1.909584e-04 1.989143e-04 1.665449e-04 1.670809e-04 1.380471e-04 1.366801e-04 1.078590e-04 1.085663e-04 7.795475e-05 8.303255e-05 4.977429e-05 6.000028e-05 2.425061e-05 3.923440e-05 1.883507e-06 2.050027e-05 -1.717384e-05 3.640770e-06 -3.301993e-05 -1.141142e-05 -4.590643e-05 -2.465898e-05 -5.615115e-05 -3.607957e-05 -6.407812e-05 -4.566410e-05 -6.998993e-05 -5.344344e-05 -7.416482e-05 -5.949887e-05 -7.686583e-05 -6.395661e-05 -7.835152e-05 -6.697142e-05 -7.888355e-05 -6.870630e-05 -7.873065e-05 -6.931497e-05 -7.817049e-05 -6.893211e-05 -7.748959e-05 -6.767464e-05 -7.698042e-05 
-8.555830e-05 -9.669016e-05 -8.793969e-05 -1.030354e-04 -9.057315e-05 -1.113265e-04 -9.367272e-05 -1.215899e-04 -9.757445e-05 -1.335871e-04 -1.027869e-04 -1.467392e-04 -1.100066e-04 -1.600905e-04 -1.200590e-04 -1.723437e-04 -1.337289e-04 -1.819965e-04 -1.514738e-04 -1.875820e-04 -1.730731e-04 -1.879740e-04 -1.973432e-04 -1.826831e-04 -2.220850e-04 -1.720410e-04 -2.443772e-04 -1.571854e-04 -2.611613e-04 -1.397758e-04 -2.698600e-04 -1.214270e-04 -2.686876e-04 -1.029653e-04 -2.564905e-04 -8.380689e-05 -2.323373e-04 -6.188044e-05 -1.953498e-04 -3.435827e-05 -1.451058e-04 1.004273e-06 -8.245587e-05 4.454602e-05 -1.020703e-05 9.405643e-05 6.683697e-05 1.451137e-04 1.426310e-04 1.922588e-04 2.112290e-04 2.305859e-04 2.683008e-04 2.572567e-04 3.123674e-04 2.724739e-04 3.453105e-04 2.795311e-04 3.718244e-04 2.837622e-04 3.977484e-04 2.905888e-04 4.276646e-04 3.033292e-04 4.626114e-04 3.217251e-04 4.989815e-04 3.419923e-04 5.293985e-04 3.585248e-04 5.455189e-04 3.664577e-04 5.416009e-04 3.637105e-04 5.170019e-04 3.514175e-04 4.762299e-04 3.326921e-04 4.266445e-04 3.106923e-04 3.753275e-04 2.872028e-04 3.268824e-04 2.623524e-04 2.829706e-04 2.352813e-04 2.431985e-04 2.051349e-04 2.064176e-04 1.718111e-04 1.716874e-04 1.362027e-04 1.386531e-04 9.997300e-05 1.074706e-04 6.507175e-05 7.853968e-05 3.323176e-05 5.225015e-05 5.621053e-06 2.883622e-05 -1.727409e-05 8.344271e-06 -3.555996e-05 -9.325804e-06 -4.972920e-05 -2.435663e-05 -6.044057e-05 -3.696449e-05 -6.835765e-05 -4.737886e-05 -7.406938e-05 -5.584280e-05 -7.807635e-05 -6.261870e-05 -8.081128e-05 -6.798759e-05 -8.266761e-05 -7.223901e-05 -8.402306e-05 -7.565477e-05 -8.525476e-05 -7.849257e-05 -8.674695e-05 -8.097394e-05 -8.889181e-05 -8.328017e-05 -9.208179e-05 