# vtk DataFile Version 2.0
Comment goes here
ASCII

DATASET STRUCTURED_POINTS
FIELD FieldData 1
TIME 1 1 double
0.16000000
DIMENSIONS    128   128   1

ORIGIN    0.000   0.000   0.000
SPACING   0.039062 0.039062   1.000

POINT_DATA   16384
SCALARS Omega double
LOOKUP_TABLE default

3.669867e-14 3.486180e-14 2.972904e-14 1.629416e-14 1.549485e-14 2.671408e-14 3.095470e-14 5.207943e-14 6.956744e-14 6.619372e-14 5.832518e-14 3.909745e-14 3.568994e-14 1.512604e-14 3.325816e-16 -3.636620e-14 -3.915607e-14 -2.553167e-14 -4.504568e-14 -4.119713e-14 -5.144687e-14 -3.490161e-14 -3.272717e-14 -4.005540e-14 -4.181994e-14 -4.078284e-14 -2.022617e-14 -2.204208e-14 -4.085785e-14 -5.050615e-14 -5.829929e-14 -5.995963e-14 -6.110705e-14 -7.342371e-14 -4.188470e-14 -7.222986e-14 -7.591304e-14 -4.690586e-14 -1.614122e-14 3.476161e-14 -7.405945e-15 1.705950e-14 2.536824e-14 1.567345e-14 2.468203e-14 8.392045e-15 -9.861019e-15 -3.154610e-14 -1.689391e-14 -1.951142e-14 -6.126174e-15 2.031916e-15 8.490411e-15 1.578702e-14 -3.571846e-14 -4.324568e-14 -3.551639e-14 -6.412346e-15 6.225823e-14 -1.958767e-14 -6.509906e-14 3.774035e-14 5.115118e-14 -2.669732e-14 -1.668294e-15 -6.278199e-14 7.567804e-15 2.125043e-15 -1.828563e-14 -3.380144e-14 -2.653111e-14 -3.433522e-14 -1.593333e-14 -3.059527e-15 -1.586825e-14 -2.121404e-14 -1.020913e-15 -5.137873e-15 -6.512277e-14 -2.597221e-14 -1.245873e-15 -4.000570e-14 4.058713e-15 1.618398e-14 3.803129e-14 5.947058e-14 5.880102e-14 7.805309e-14 -1.029735e-14 3.525047e-14 -7.917619e-16 1.830719e-14 1.645300e-14 -1.207234e-14 -1.056793e-14 2.242675e-14 2.686292e-14 1.812204e-14 3.142915e-14 -1.246903e-14 8.146011e-14 1.064052e-14 1.005237e-14 9.833532e-14 9.872465e-14 5.251984e-14 2.254866e-14 5.296573e-14 9.479992e-15 -2.658963e-16 -9.511038e-15 -9.553220e-15 -4.716087e-15 -1.538701e-14 -2.625301e-14 -3.087510e-14 -3.979135e-14 -4.539230e-14 -3.353308e-14 -2.080003e-14 -1.791974e-14 -8.050334e-15 1.285296e-16 1.312489e-14 1.999375e-14 1.670652e-14 3.066754e-14 3.003087e-14 
8.782361e-06 8.157217e-06 8.275228e-06 7.771941e-06 7.894916e-06 7.497066e-06 7.615989e-06 7.305971e-06 7.411122e-06 7.171245e-06 7.252978e-06 7.066173e-06 7.115914e-06 6.966101e-06 6.977474e-06 6.849738e-06 6.819724e-06 6.700480e-06 6.630476e-06 6.507831e-06 6.404522e-06 6.269030e-06 6.144995e-06 5.990880e-06 5.864943e-06 5.691771e-06 5.589092e-06 5.403675e-06 5.355590e-06 5.173707e-06 5.217183e-06 5.064513e-06 5.240904e-06 5.152475e-06 5.505129e-06 5.522623e-06 6.092863e-06 6.259435e-06 7.080786e-06 7.433680e-06 8.524801e-06 9.086842e-06 1.044444e-05 1.121627e-05 1.280989e-05 1.376522e-05 1.553592e-05 1.662165e-05 1.848602e-05 1.962821e-05 2.148772e-05 2.260272e-05 2.435706e-05 2.536571e-05 2.692745e-05 2.776902e-05 2.907628e-05 2.971924e-05 3.074360e-05 3.119051e-05 3.193862e-05 3.222436e-05 3.273311e-05 3.291703e-05 3.324386e-05 3.339786e-05 3.360851e-05 3.380350e-05 3.395995e-05 3.425347e-05 3.440417e-05 3.483099e-05 3.500477e-05 3.557183e-05 3.577581e-05 3.646160e-05 3.668271e-05 3.744080e-05 3.765001e-05 3.841576e-05 3.857407e-05 3.927355e-05 3.933881e-05 3.989865e-05 3.983254e-05 4.018936e-05 3.996380e-05 4.007182e-05 3.967409e-05 3.950972e-05 3.894541e-05 3.850790e-05 3.780110e-05 3.710931e-05 3.629967e-05 3.538577e-05 3.452281e-05 3.342474e-05 3.256053e-05 3.131514e-05 3.049700e-05 2.913576e-05 2.840042e-05 2.694835e-05 2.631876e-05 2.479628e-05 2.428140e-05 2.270767e-05 2.230473e-05 2.070096e-05 2.039915e-05 1.879053e-05 1.857509e-05 1.699072e-05 1.684637e-05 1.531744e-05 1.523070e-05 1.378756e-05 1.374777e-05 1.241685e-05 1.241619e-05 1.121752e-05 1.125030e-05 1.019603e-05 1.025768e-05 9.351857e-06 9.437897e-06 8.677125e-06 
1.871081e-05 1.750459e-05 1.778068e-05 1.679255e-05 1.705121e-05 1.624859e-05 1.647366e-05 1.582307e-05 1.599796e-05 1.546696e-05 1.557604e-05 1.513440e-05 1.516488e-05 1.478518e-05 1.472927e-05 1.438701e-05 1.424407e-05 1.391769e-05 1.369608e-05 1.336733e-05 1.308579e-05 1.274076e-05 1.242919e-05 1.206035e-05 1.176010e-05 1.136931e-05 1.113303e-05 1.073518e-05 1.062636e-05 1.025282e-05 1.034475e-05 1.004546e-05 1.041901e-05 1.026174e-05 1.100097e-05 1.106636e-05 1.225099e-05 1.262263e-05 1.431686e-05 1.506677e-05 1.730546e-05 1.847726e-05 2.125183e-05 2.284524e-05 2.609323e-05 2.805440e-05 3.165675e-05 3.387847e-05 3.766737e-05 4.000090e-05 4.377848e-05 4.605580e-05 4.962079e-05 5.168283e-05 5.485978e-05 5.658443e-05 5.924896e-05 6.057238e-05 6.266691e-05 6.359317e-05 6.512993e-05 6.572738e-05 6.677869e-05 6.716425e-05 6.784311e-05 6.815844e-05 6.859431e-05 6.897915e-05 6.929415e-05 6.986198e-05 7.015192e-05 7.097189e-05 7.129461e-05 7.238192e-05 7.275360e-05 7.406864e-05 7.446692e-05 7.592221e-05 7.629423e-05 7.776730e-05 7.804073e-05 7.939075e-05 7.948618e-05 8.057219e-05 8.041562e-05 8.111380e-05 8.064841e-05 8.086617e-05 8.006213e-05 7.974683e-05 7.860783e-05 7.774882e-05 7.631406e-05 7.493793e-05 7.327857e-05 7.143907e-05 6.964943e-05 6.741502e-05 6.559984e-05 6.304230e-05 6.130281e-05 5.848956e-05 5.691107e-05 5.390263e-05 5.254603e-05 4.939761e-05 4.829592e-05 4.506121e-05 4.422101e-05 4.095557e-05 4.036209e-05 3.712474e-05 3.674888e-05 3.360020e-05 3.340578e-05 3.040457e-05 3.035442e-05 2.755313e-05 2.761330e-05 2.505374e-05 2.519563e-05 2.290608e-05 2.310680e-05 2.110077e-05 2.134211e-05 1.961891e-05 1.988574e-05 1.843233e-05 
2.630367e-05 2.436435e-05 2.470072e-05 2.313674e-05 2.349222e-05 2.225340e-05 2.260060e-05 2.163344e-05 2.194261e-05 2.119355e-05 2.143502e-05 2.085252e-05 2.099971e-05 2.053525e-05 2.056830e-05 2.017679e-05 2.008614e-05 1.972627e-05 1.951603e-05 1.915134e-05 1.884190e-05 1.844295e-05 1.807277e-05 1.762087e-05 1.724729e-05 1.673962e-05 1.643898e-05 1.589452e-05 1.576142e-05 1.522644e-05 1.537217e-05 1.492342e-05 1.547246e-05 1.521590e-05 1.629911e-05 1.636206e-05 1.810497e-05 1.862053e-05 2.112605e-05 2.221035e-05 2.553713e-05 2.726291e-05 3.140333e-05 3.377546e-05 3.863906e-05 4.157931e-05 4.698819e-05 5.033525e-05 5.603592e-05 5.956361e-05 6.525565e-05 6.870729e-05 7.408442e-05 7.721657e-05 8.201161e-05 8.463740e-05 8.866123e-05 9.068326e-05 9.384898e-05 9.527434e-05 9.760178e-05 9.853644e-05 1.001372e-04 1.007617e-04 1.018092e-04 1.023420e-04 1.030342e-04 1.036901e-04 1.042126e-04 1.051652e-04 1.056622e-04 1.070153e-04 1.075717e-04 1.093444e-04 1.099800e-04 1.121050e-04 1.127799e-04 1.151144e-04 1.157413e-04 1.180879e-04 1.185505e-04 1.206841e-04 1.208568e-04 1.225548e-04 1.223233e-04 1.233942e-04 1.226746e-04 1.229816e-04 1.217357e-04 1.212102e-04 1.194549e-04 1.180988e-04 1.159072e-04 1.137816e-04 1.112747e-04 1.084806e-04 1.058101e-04 1.024636e-04 9.978948e-05 9.600087e-05 9.346851e-05 8.932910e-05 8.705113e-05 8.263122e-05 8.067753e-05 7.603356e-05 7.443075e-05 6.961708e-05 6.835568e-05 6.343566e-05 6.248184e-05 5.753371e-05 5.684198e-05 5.195805e-05 5.148180e-05 4.676165e-05 4.646019e-05 4.200068e-05 4.184219e-05 3.772722e-05 3.768865e-05 3.398128e-05 3.404604e-05 3.078421e-05 3.093907e-05 2.813503e-05 2.836697e-05 2.600994e-05 
3.737878e-05 3.483776e-05 3.535238e-05 3.326562e-05 3.375291e-05 3.205395e-05 3.248144e-05 3.110236e-05 3.143606e-05 3.031131e-05 3.051864e-05 2.958734e-05 2.964113e-05 2.884804e-05 2.873125e-05 2.802679e-05 2.773720e-05 2.707735e-05 2.663159e-05 2.597837e-05 2.541472e-05 2.473822e-05 2.411806e-05 2.340057e-05 2.280846e-05 2.205065e-05 2.159361e-05 2.082224e-05 2.062838e-05 1.990388e-05 2.012036e-05 1.954177e-05 2.033090e-05 2.003526e-05 2.156652e-05 2.171949e-05 2.415517e-05 2.493104e-05 2.840411e-05 2.995579e-05 3.454135e-05 3.696475e-05 4.265030e-05 4.595090e-05 5.261351e-05 5.668513e-05 6.408466e-05 6.870899e-05 7.650351e-05 8.137443e-05 8.915869e-05 9.392864e-05 1.012894e-04 1.056285e-04 1.122052e-04 1.158599e-04 1.213969e-04 1.242339e-04 1.286127e-04 1.306389e-04 1.338838e-04 1.352386e-04 1.374957e-04 1.384177e-04 1.399151e-04 1.406926e-04 1.416898e-04 1.426059e-04 1.433461e-04 1.446290e-04 1.453010e-04 1.470873e-04 1.478030e-04 1.501192e-04 1.509078e-04 1.536690e-04 1.544841e-04 1.575090e-04 1.582454e-04 1.612827e-04 1.617981e-04 1.645608e-04 1.646995e-04 1.669019e-04 1.665182e-04 1.679115e-04 1.668930e-04 1.672934e-04 1.655802e-04 1.648870e-04 1.624857e-04 1.606845e-04 1.576736e-04 1.548253e-04 1.513494e-04 1.475682e-04 1.438208e-04 1.392466e-04 1.354443e-04 1.302191e-04 1.265722e-04 1.208249e-04 1.175106e-04 1.113543e-04 1.084989e-04 1.020365e-04 9.970807e-05 9.304332e-05 9.125431e-05 8.449979e-05 8.321848e-05 7.649819e-05 7.566334e-05 6.910825e-05 6.864442e-05 6.238298e-05 6.221326e-05 5.636016e-05 5.641492e-05 5.106122e-05 5.128246e-05 4.648921e-05 4.683118e-05 4.262734e-05 4.305437e-05 3.943853e-05 3.992147e-05 3.686645e-05 
4.366910e-05 4.022076e-05 4.071946e-05 3.792939e-05 3.847453e-05 3.625582e-05 3.680051e-05 3.506154e-05 3.555417e-05 3.420409e-05 3.459242e-05 3.354430e-05 3.378108e-05 3.295323e-05 3.300264e-05 3.231891e-05 3.216328e-05 3.155325e-05 3.119912e-05 3.059957e-05 3.008232e-05 2.944069e-05 2.882719e-05 2.810794e-05 2.749723e-05 2.669066e-05 2.621313e-05 2.534599e-05 2.516156e-05 2.430718e-05 2.460253e-05 2.388754e-05 2.487114e-05 2.447473e-05 2.636693e-05 2.650881e-05 2.952368e-05 3.043793e-05 3.475480e-05 3.665026e-05 4.237634e-05 4.538915e-05 5.251992e-05 5.666871e-05 6.505700e-05 7.021392e-05 7.955976e-05 8.544907e-05 9.531902e-05 1.015485e-04 1.114253e-04 1.175470e-04 1.269015e-04 1.324891e-04 1.408593e-04 1.455850e-04 1.526437e-04 1.563356e-04 1.619323e-04 1.646004e-04 1.687680e-04 1.705935e-04 1.735212e-04 1.748138e-04 1.767942e-04 1.779273e-04 1.792922e-04 1.806310e-04 1.816885e-04 1.835254e-04 1.845114e-04 1.870178e-04 1.880678e-04 1.912692e-04 1.924108e-04 1.961857e-04 1.973490e-04 2.014480e-04 2.024881e-04 2.065698e-04 2.072953e-04 2.109733e-04 2.111788e-04 2.140731e-04 2.135711e-04 2.153582e-04 2.140101e-04 2.144632e-04 2.122050e-04 2.112182e-04 2.080780e-04 2.056682e-04 2.017703e-04 1.980567e-04 1.936095e-04 1.887755e-04 1.840426e-04 1.782905e-04 1.735517e-04 1.670636e-04 1.625735e-04 1.554900e-04 1.514446e-04 1.438648e-04 1.403841e-04 1.323842e-04 1.295112e-04 1.211707e-04 1.188854e-04 1.103092e-04 1.085502e-04 9.987917e-05 9.856673e-05 8.997309e-05 8.902725e-05 8.069896e-05 8.005132e-05 7.217044e-05 7.176875e-05 6.449119e-05 6.429846e-05 5.773936e-05 5.772965e-05 5.195652e-05 5.210937e-05 4.714259e-05 4.743764e-05 4.325644e-05 
5.591112e-05 5.177119e-05 5.244241e-05 4.902937e-05 4.967965e-05 4.689014e-05 4.747023e-05 4.519979e-05 4.565640e-05 4.380506e-05 4.408554e-05 4.256101e-05 4.262017e-05 4.133878e-05 4.114697e-05 4.003330e-05 3.958457e-05 3.857064e-05 3.788970e-05 3.691529e-05 3.606205e-05 3.507750e-05 3.414875e-05 3.312108e-05 3.224941e-05 3.117218e-05 3.052322e-05 2.942895e-05 2.919817e-05 2.817126e-05 2.858069e-05 2.776700e-05 2.906066e-05 2.866882e-05 3.110328e-05 3.139239e-05 3.521758e-05 3.646728e-05 4.189408e-05 4.435702e-05 5.151256e-05 5.535573e-05 6.423430e-05 6.948256e-05 7.990600e-05 8.640459e-05 9.800809e-05 1.054195e-04 1.176740e-04 1.255160e-04 1.377887e-04 1.455094e-04 1.571525e-04 1.642259e-04 1.746731e-04 1.806941e-04 1.895441e-04 1.942983e-04 2.013650e-04 2.048602e-04 2.101794e-04 2.126315e-04 2.164271e-04 2.182065e-04 2.208250e-04 2.223772e-04 2.242095e-04 2.259687e-04 2.273753e-04 2.296865e-04 2.309417e-04 2.340058e-04 2.352667e-04 2.391126e-04 2.404139e-04 2.448995e-04 2.461677e-04 2.510045e-04 2.520839e-04 2.568787e-04 2.575632e-04 2.618715e-04 2.619367e-04 2.653204e-04 2.645559e-04 2.666381e-04 2.648789e-04 2.653881e-04 2.625434e-04 2.613410e-04 2.574177e-04 2.545008e-04 2.496158e-04 2.450975e-04 2.394727e-04 2.335420e-04 2.274806e-04 2.203558e-04 2.142014e-04 2.060901e-04 2.001785e-04 1.912566e-04 1.858716e-04 1.762844e-04 1.716273e-04 1.615082e-04 1.576856e-04 1.471795e-04 1.442085e-04 1.334892e-04 1.313163e-04 1.205887e-04 1.191142e-04 1.086029e-04 1.077058e-04 9.763391e-05 9.719250e-05 8.775887e-05 8.766440e-05 7.902503e-05 7.918856e-05 7.144612e-05 7.179925e-05 6.500104e-05 6.549219e-05 5.963494e-05 6.022329e-05 5.526225e-05 
6.068967e-05 5.539696e-05 5.595401e-05 5.165199e-05 5.230659e-05 4.886574e-05 4.954936e-05 4.683593e-05 4.747141e-05 4.535481e-05 4.586262e-05 4.421925e-05 4.452608e-05 4.324036e-05 4.328959e-05 4.225341e-05 4.201613e-05 4.112832e-05 4.061313e-05 3.978076e-05 3.904091e-05 3.818386e-05 3.732033e-05 3.638017e-05 3.554084e-05 3.449389e-05 3.386980e-05 3.274317e-05 3.256383e-05 3.145166e-05 3.198061e-05 3.105633e-05 3.258603e-05 3.210473e-05 3.494640e-05 3.523070e-05 3.969286e-05 4.109670e-05 4.744689e-05 5.029665e-05 5.870644e-05 6.322693e-05 7.370981e-05 7.995176e-05 9.231154e-05 1.001026e-04 1.139130e-04 1.228521e-04 1.374825e-04 1.469860e-04 1.616754e-04 1.710703e-04 1.850363e-04 1.936796e-04 2.062379e-04 2.136336e-04 2.243001e-04 2.301865e-04 2.387381e-04 2.431255e-04 2.496083e-04 2.527614e-04 2.574474e-04 2.598191e-04 2.631258e-04 2.652596e-04 2.676542e-04 2.700773e-04 2.719862e-04 2.751143e-04 2.768558e-04 2.809247e-04 2.826733e-04 2.877052e-04 2.894866e-04 2.952905e-04 2.970002e-04 3.032021e-04 3.046388e-04 3.107342e-04 3.116386e-04 3.170613e-04 3.171565e-04 3.213546e-04 3.203868e-04 3.228967e-04 3.206753e-04 3.211822e-04 3.176164e-04 3.159906e-04 3.111180e-04 3.074158e-04 3.014142e-04 2.958427e-04 2.890176e-04 2.818704e-04 2.746153e-04 2.661955e-04 2.589322e-04 2.494897e-04 2.426023e-04 2.323037e-04 2.260855e-04 2.150240e-04 2.096495e-04 1.978876e-04 1.934130e-04 1.810347e-04 1.774220e-04 1.645744e-04 1.617267e-04 1.486342e-04 1.464316e-04 1.333819e-04 1.317084e-04 1.190178e-04 1.177777e-04 1.057495e-04 1.048721e-04 9.376037e-05 9.319734e-05 8.318430e-05 8.290296e-05 7.409031e-05 7.406525e-05 6.647884e-05 6.668417e-05 6.028665e-05 
7.411594e-05 6.796345e-05 6.865014e-05 6.355248e-05 6.425226e-05 6.006354e-05 6.070926e-05 5.728475e-05 5.780012e-05 5.500338e-05 5.530992e-05 5.301635e-05 5.304396e-05 5.114124e-05 5.084126e-05 4.922772e-05 4.858639e-05 4.716892e-05 4.621874e-05 4.491226e-05 4.373908e-05 4.246955e-05 4.121382e-05 3.992644e-05 3.877898e-05 3.745187e-05 3.664622e-05 3.530856e-05 3.511318e-05 3.386499e-05 3.457788e-05 3.360674e-05 3.555180e-05 3.513948e-05 3.865968e-05 3.917009e-05 4.460821e-05 4.644878e-05 5.410723e-05 5.766128e-05 6.773929e-05 7.327746e-05 8.579612e-05 9.338708e-05 1.081245e-04 1.175726e-04 1.340356e-04 1.448711e-04 1.623229e-04 1.738558e-04 1.914030e-04 2.028349e-04 2.195567e-04 2.301230e-04 2.452141e-04 2.543239e-04 2.672140e-04 2.745532e-04 2.849777e-04 2.905522e-04 2.985592e-04 3.026714e-04 3.085680e-04 3.117371e-04 3.159939e-04 3.188403e-04 3.219790e-04 3.250997e-04 3.275897e-04 3.314498e-04 3.336358e-04 3.384935e-04 3.405600e-04 3.464324e-04 3.484057e-04 3.550744e-04 3.568481e-04 3.638959e-04 3.652691e-04 3.721402e-04 3.728563e-04 3.789306e-04 3.787137e-04 3.833875e-04 3.819769e-04 3.847400e-04 3.819250e-04 3.824240e-04 3.780814e-04 3.761569e-04 3.702871e-04 3.659760e-04 3.587295e-04 3.522288e-04 3.439095e-04 3.355107e-04 3.265475e-04 3.165586e-04 3.074477e-04 2.961317e-04 2.873633e-04 2.749118e-04 2.669005e-04 2.534504e-04 2.464879e-04 2.321677e-04 2.264043e-04 2.113845e-04 2.068389e-04 1.913639e-04 1.879529e-04 1.723411e-04 1.699167e-04 1.545318e-04 1.529181e-04 1.381249e-04 1.371478e-04 1.232679e-04 1.227746e-04 1.100546e-04 1.099230e-04 9.851938e-05 9.865882e-05 8.863898e-05 8.898460e-05 8.033820e-05 8.084140e-05 7.349794e-05 
7.705133e-05 6.942287e-05 6.986847e-05 6.363258e-05 6.426411e-05 5.923868e-05 5.996220e-05 5.596482e-05 5.667154e-05 5.352842e-05 5.410315e-05 5.165275e-05 5.198675e-05 5.007950e-05 5.008663e-05 4.858256e-05 4.821686e-05 4.698325e-05 4.625478e-05 4.516656e-05 4.415219e-05 4.309710e-05 4.194352e-05 4.083350e-05 3.975220e-05 3.854096e-05 3.779753e-05 3.650273e-05 3.640519e-05 3.513229e-05 3.602293e-05 3.498567e-05 3.723748e-05 3.676750e-05 4.077943e-05 4.131460e-05 4.749375e-05 4.953450e-05 5.825237e-05 6.228103e-05 7.379913e-05 8.017072e-05 9.454737e-05 1.033767e-04 1.203831e-04 1.314638e-04 1.505441e-04 1.633328e-04 1.836337e-04 1.973148e-04 2.177892e-04 2.314102e-04 2.509738e-04 2.636198e-04 2.813233e-04 2.922872e-04 3.074601e-04 3.163665e-04 3.287007e-04 3.355572e-04 3.451129e-04 3.502812e-04 3.574214e-04 3.615203e-04 3.667948e-04 3.705614e-04 3.745731e-04 3.787135e-04 3.819967e-04 3.870562e-04 3.899927e-04 3.962663e-04 3.990474e-04 4.065384e-04 4.091701e-04 4.175960e-04 4.199323e-04 4.287676e-04 4.305563e-04 4.391047e-04 4.400337e-04 4.475209e-04 4.472607e-04 4.529387e-04 4.511847e-04 4.544354e-04 4.509512e-04 4.513737e-04 4.460385e-04 4.435008e-04 4.363552e-04 4.309943e-04 4.222689e-04 4.144332e-04 4.045441e-04 3.946859e-04 3.841852e-04 3.727354e-04 3.622235e-04 3.494895e-04 3.395142e-04 3.256417e-04 3.166146e-04 3.016230e-04 2.937779e-04 2.776517e-04 2.710501e-04 2.538422e-04 2.484141e-04 2.303187e-04 2.259193e-04 2.072880e-04 2.037503e-04 1.850540e-04 1.822253e-04 1.639812e-04 1.617413e-04 1.444352e-04 1.426995e-04 1.267248e-04 1.254383e-04 1.110633e-04 1.101900e-04 9.755246e-05 9.706464e-05 8.618627e-05 8.605454e-05 7.686656e-05 
9.165694e-05 8.290776e-05 8.338428e-05 7.609199e-05 7.665879e-05 7.062532e-05 7.119504e-05 6.622931e-05 6.669617e-05 6.262221e-05 6.287169e-05 5.953189e-05 5.945680e-05 5.671092e-05 5.623201e-05 5.395330e-05 5.304125e-05 5.111195e-05 4.980635e-05 4.811521e-05 4.653585e-05 4.498082e-05 4.332797e-05 4.182606e-05 4.036946e-05 3.887446e-05 3.793508e-05 3.646190e-05 3.639348e-05 3.504611e-05 3.622421e-05 3.522238e-05 3.804355e-05 3.773974e-05 4.262470e-05 4.349881e-05 5.088341e-05 5.350001e-05 6.379454e-05 6.871350e-05 8.222055e-05 8.986818e-05 1.066711e-04 1.172015e-04 1.370585e-04 1.502507e-04 1.725392e-04 1.877722e-04 2.115188e-04 2.278456e-04 2.518453e-04 2.681537e-04 2.911545e-04 3.063741e-04 3.272794e-04 3.405818e-04 3.586178e-04 3.695609e-04 3.843702e-04 3.929548e-04 4.045992e-04 4.112308e-04 4.201103e-04 4.254836e-04 4.321997e-04 4.371360e-04 4.423369e-04 4.476132e-04 4.518593e-04 4.580639e-04 4.617403e-04 4.691777e-04 4.724639e-04 4.811177e-04 4.840063e-04 4.935535e-04 4.958969e-04 5.057614e-04 5.073245e-04 5.167577e-04 5.172610e-04 5.254400e-04 5.245904e-04 5.307251e-04 5.282407e-04 5.316789e-04 5.273179e-04 5.276319e-04 5.212350e-04 5.182730e-04 5.098193e-04 5.037045e-04 4.933646e-04 4.844350e-04 4.725965e-04 4.612946e-04 4.485361e-04 4.352800e-04 4.222915e-04 4.073764e-04 3.948477e-04 3.784186e-04 3.669327e-04 3.490375e-04 3.389980e-04 3.196927e-04 3.112994e-04 2.907527e-04 2.840202e-04 2.625700e-04 2.573732e-04 2.355159e-04 2.316456e-04 2.099697e-04 2.071832e-04 1.862780e-04 1.843393e-04 1.647129e-04 1.634184e-04 1.454451e-04 1.446365e-04 1.285395e-04 1.281049e-04 1.139667e-04 1.138316e-04 1.016206e-04 1.017345e-04 9.133702e-05 
9.227526e-05 8.164253e-05 8.171181e-05 7.296169e-05 7.336027e-05 6.624199e-05 6.684457e-05 6.111721e-05 6.177339e-05 5.721524e-05 5.776054e-05 5.417130e-05 5.444546e-05 5.164315e-05 5.151504e-05 4.933021e-05 4.872609e-05 4.699625e-05 4.592596e-05 4.449390e-05 4.306825e-05 4.178718e-05 4.022073e-05 3.896808e-05 3.756556e-05 3.626511e-05 3.539576e-05 3.404612e-05 3.411587e-05 3.282218e-05 3.425582e-05 3.326067e-05 3.650085e-05 3.620679e-05 4.172444e-05 4.269374e-05 5.098887e-05 5.390018e-05 6.546449e-05 7.101061e-05 8.623399e-05 9.496526e-05 1.139978e-04 1.261471e-04 1.487611e-04 1.641092e-04 1.896212e-04 2.074596e-04 2.347586e-04 2.539767e-04 2.816658e-04 3.009463e-04 3.275657e-04 3.456371e-04 3.699073e-04 3.857861e-04 4.068078e-04 4.199702e-04 4.373331e-04 4.477810e-04 4.615628e-04 4.697764e-04 4.804438e-04 4.872420e-04 4.954864e-04 5.018342e-04 5.083896e-04 5.151957e-04 5.206823e-04 5.286292e-04 5.334555e-04 5.428884e-04 5.472222e-04 5.581041e-04 5.619012e-04 5.738275e-04 5.768899e-04 5.891481e-04 5.911862e-04 6.028482e-04 6.035289e-04 6.135704e-04 6.125505e-04 6.199888e-04 6.169437e-04 6.209809e-04 6.156415e-04 6.157888e-04 6.079975e-04 6.041527e-04 5.939353e-04 5.863840e-04 5.740152e-04 5.633384e-04 5.493611e-04 5.362584e-04 5.214281e-04 5.065047e-04 4.916610e-04 4.752601e-04 4.611678e-04 4.433214e-04 4.305402e-04 4.110624e-04 3.998866e-04 3.785643e-04 3.690417e-04 3.458354e-04 3.378401e-04 3.130098e-04 3.063321e-04 2.804461e-04 2.748671e-04 2.487065e-04 2.440421e-04 2.184527e-04 2.145680e-04 1.903175e-04 1.871231e-04 1.648025e-04 1.622428e-04 1.422258e-04 1.402653e-04 1.227163e-04 1.213271e-04 1.062387e-04 1.053891e-04 9.263134e-05 
1.080216e-04 9.589317e-05 9.580896e-05 8.563113e-05 8.577941e-05 7.728612e-05 7.755493e-05 7.049899e-05 7.074191e-05 6.490326e-05 6.495252e-05 6.014017e-05 5.983042e-05 5.587881e-05 5.507940e-05 5.184089e-05 5.049220e-05 4.782845e-05 4.597445e-05 4.375062e-05 4.155864e-05 3.964467e-05 3.740471e-05 3.568666e-05 3.378813e-05 3.218998e-05 3.108193e-05 2.959578e-05 2.974509e-05 2.846669e-05 3.033184e-05 2.949823e-05 3.353119e-05 3.355401e-05 4.022577e-05 4.170435e-05 5.152711e-05 5.521429e-05 6.871887e-05 7.541338e-05 9.305122e-05 1.034152e-04 1.253933e-04 1.397367e-04 1.658412e-04 1.839483e-04 2.134364e-04 2.345104e-04 2.661327e-04 2.888940e-04 3.210582e-04 3.439771e-04 3.750112e-04 3.966084e-04 4.250468e-04 4.441783e-04 4.689935e-04 4.850488e-04 5.057720e-04 5.187442e-04 5.354560e-04 5.458803e-04 5.590882e-04 5.678746e-04 5.783187e-04 5.865269e-04 5.949710e-04 6.035813e-04 6.106410e-04 6.203668e-04 6.264131e-04 6.375878e-04 6.427362e-04 6.552783e-04 6.594440e-04 6.728879e-04 6.758688e-04 6.894392e-04 6.909883e-04 7.037030e-04 7.035698e-04 7.143634e-04 7.123025e-04 7.201656e-04 7.159309e-04 7.200517e-04 7.133997e-04 7.132850e-04 7.040145e-04 6.995629e-04 6.875993e-04 6.790989e-04 6.646010e-04 6.526312e-04 6.360657e-04 6.213099e-04 6.034402e-04 5.864627e-04 5.682372e-04 5.493180e-04 5.316968e-04 5.108087e-04 4.945967e-04 4.715397e-04 4.572797e-04 4.319098e-04 4.198543e-04 3.922930e-04 3.824417e-04 3.531736e-04 3.453447e-04 3.151736e-04 3.090819e-04 2.789801e-04 2.743039e-04 2.452290e-04 2.416595e-04 2.144054e-04 2.116800e-04 1.867969e-04 1.847168e-04 1.625002e-04 1.609319e-04 1.414586e-04 1.403235e-04 1.235080e-04 1.227617e-04 1.084136e-04 
1.057022e-04 9.119325e-05 9.048052e-05 7.844731e-05 7.828583e-05 6.838404e-05 6.860795e-05 6.052341e-05 6.092531e-05 5.438199e-05 5.472600e-05 4.948482e-05 4.953225e-05 4.538321e-05 4.493056e-05 4.168128e-05 4.060643e-05 3.807138e-05 3.637858e-05 3.437369e-05 3.222435e-05 3.057152e-05 2.828825e-05 2.683186e-05 2.486994e-05 2.350400e-05 2.239629e-05 2.109803e-05 2.139236e-05 2.025880e-05 2.247463e-05 2.176183e-05 2.638845e-05 2.655179e-05 3.408884e-05 3.580945e-05 4.681623e-05 5.097820e-05 6.607203e-05 7.364839e-05 9.340098e-05 1.052360e-04 1.299699e-04 1.465058e-04 1.760615e-04 1.971092e-04 2.306933e-04 2.553503e-04 2.915479e-04 3.183139e-04 3.552839e-04 3.823454e-04 4.181405e-04 4.437395e-04 4.766533e-04 4.994324e-04 5.282751e-04 5.475133e-04 5.717505e-04 5.874420e-04 6.071773e-04 6.199539e-04 6.357770e-04 6.467081e-04 6.594629e-04 6.697894e-04 6.803279e-04 6.911929e-04 7.001775e-04 7.124090e-04 7.202080e-04 7.341872e-04 7.408733e-04 7.564937e-04 7.619197e-04 7.786176e-04 7.825186e-04 7.993510e-04 8.014273e-04 8.171823e-04 8.171411e-04 8.304832e-04 8.280418e-04 8.376915e-04 8.325669e-04 8.374986e-04 8.294158e-04 8.290408e-04 8.177899e-04 8.120795e-04 7.976319e-04 7.871301e-04 7.697765e-04 7.554585e-04 7.358877e-04 7.188617e-04 6.981056e-04 6.792388e-04 6.584752e-04 6.380995e-04 6.183938e-04 5.962440e-04 5.783400e-04 5.537693e-04 5.380090e-04 5.103835e-04 4.967595e-04 4.658460e-04 4.541362e-04 4.203159e-04 4.102272e-04 3.744673e-04 3.657353e-04 3.293663e-04 3.217966e-04 2.862145e-04 2.796806e-04 2.460894e-04 2.405131e-04 2.097758e-04 2.051077e-04 1.777104e-04 1.739163e-04 1.500145e-04 1.470646e-04 1.265678e-04 1.244266e-04 1.070878e-04 
1.225230e-04 1.059993e-04 1.048168e-04 9.084261e-05 9.013058e-05 7.834693e-05 7.796083e-05 6.804875e-05 6.778320e-05 5.947109e-05 5.907668e-05 5.213980e-05 5.135727e-05 4.561014e-05 4.422045e-05 3.950375e-05 3.738835e-05 3.355378e-05 3.075220e-05 2.765108e-05 2.439875e-05 2.188070e-05 1.861003e-05 1.653621e-05 1.383335e-05 1.210353e-05 1.062875e-05 9.216492e-06 9.613479e-06 8.604053e-06 1.143523e-05 1.106781e-05 1.681003e-05 1.752882e-05 2.663787e-05 2.914167e-05 4.214617e-05 4.739254e-05 6.493406e-05 7.403395e-05 9.677188e-05 1.107422e-04 1.391114e-04 1.585365e-04 1.924458e-04 2.171774e-04 2.557968e-04 2.848338e-04 3.265888e-04 3.582059e-04 4.010042e-04 4.330943e-04 4.747079e-04 5.052248e-04 5.437029e-04 5.710702e-04 6.050595e-04 6.284412e-04 6.573379e-04 6.767201e-04 7.006354e-04 7.167233e-04 7.362951e-04 7.502723e-04 7.663888e-04 7.796067e-04 7.931231e-04 8.067952e-04 8.183172e-04 8.332818e-04 8.430697e-04 8.596613e-04 8.676637e-04 8.856926e-04 8.916716e-04 9.104819e-04 9.141581e-04 9.327266e-04 9.338819e-04 9.509396e-04 9.494451e-04 9.636260e-04 9.594027e-04 9.694232e-04 9.623676e-04 9.672201e-04 9.571460e-04 9.562752e-04 9.429296e-04 9.363471e-04 9.195389e-04 9.078296e-04 8.876381e-04 8.718054e-04 8.487591e-04 8.298995e-04 8.050012e-04 7.838957e-04 7.584549e-04 7.352714e-04 7.106236e-04 6.849078e-04 6.621510e-04 6.331404e-04 6.129838e-04 5.800924e-04 5.628370e-04 5.260704e-04 5.116845e-04 4.717991e-04 4.600302e-04 4.183964e-04 4.088748e-04 3.671445e-04 3.594610e-04 3.192047e-04 3.129669e-04 2.754123e-04 2.702861e-04 2.362099e-04 2.319464e-04 2.016977e-04 1.981407e-04 1.717349e-04 1.688075e-04 1.460400e-04 1.437153e-04 1.242589e-04 
1.165309e-04 9.703958e-05 9.492825e-05 7.861542e-05 7.738710e-05 6.377758e-05 6.321204e-05 5.189625e-05 5.170560e-05 4.234363e-05 4.218590e-05 3.450047e-05 3.401390e-05 2.777523e-05 2.663566e-05 2.164167e-05 1.963859e-05 1.569577e-05 1.281216e-05 9.724097e-06 6.195335e-06 3.765992e-06 9.152563e-08 -1.853579e-06 -4.961531e-06 -6.540231e-06 -8.264807e-06 -9.500427e-06 -9.053011e-06 -9.842414e-06 -6.567622e-06 -6.648741e-06 -4.591762e-08 1.054429e-06 1.141844e-05 1.445809e-05 2.910198e-05 3.516572e-05 5.479588e-05 6.520832e-05 9.064091e-05 1.066824e-04 1.385474e-04 1.610236e-04 1.993627e-04 2.282020e-04 2.721652e-04 3.062418e-04 3.540551e-04 3.913374e-04 4.405738e-04 4.785501e-04 5.266032e-04 5.628300e-04 6.074201e-04 6.400214e-04 6.795798e-04 7.075675e-04 7.414092e-04 7.647718e-04 7.930424e-04 8.126142e-04 8.360569e-04 8.532294e-04 8.728536e-04 8.892101e-04 9.059573e-04 9.229161e-04 9.374122e-04 9.559536e-04 9.684086e-04 9.889285e-04 9.991953e-04 1.021482e-03 1.029220e-03 1.052512e-03 1.057366e-03 1.080443e-03 1.082154e-03 1.103457e-03 1.101884e-03 1.119678e-03 1.114733e-03 1.127338e-03 1.118898e-03 1.124968e-03 1.112805e-03 1.111611e-03 1.095435e-03 1.087075e-03 1.066718e-03 1.052172e-03 1.027876e-03 1.008806e-03 9.814290e-04 9.596590e-04 9.306337e-04 9.074630e-04 8.784717e-04 8.541231e-04 8.266553e-04 8.001953e-04 7.752118e-04 7.450304e-04 7.228695e-04 6.874940e-04 6.680086e-04 6.268527e-04 6.096622e-04 5.633774e-04 5.480962e-04 4.984240e-04 4.847811e-04 4.340493e-04 4.218973e-04 3.724294e-04 3.616961e-04 3.153623e-04 3.060026e-04 2.640154e-04 2.559876e-04 2.189124e-04 2.121745e-04 1.800670e-04 1.745777e-04 1.471583e-04 1.428714e-04 1.196797e-04 
1.343753e-04 1.121628e-04 1.090639e-04 9.011193e-05 8.786001e-05 7.167695e-05 7.008068e-05 5.624974e-05 5.501527e-05 4.319954e-05 4.195034e-05 3.188936e-05 3.021291e-05 2.170999e-05 1.923381e-05 1.213496e-05 8.626187e-06 2.794817e-06 -1.735840e-06 -6.440129e-06 -1.166260e-05 -1.539011e-05 -2.064247e-05 -2.353601e-05 -2.789601e-05 -3.005226e-05 -3.248525e-05 -3.391160e-05 -3.345500e-05 -3.404041e-05 -2.995757e-05 -2.945211e-05 -2.127698e-05 -1.924335e-05 -6.666188e-06 -2.376953e-06 1.499111e-05 2.265764e-05 4.548705e-05 5.801034e-05 8.722499e-05 1.061399e-04 1.425732e-04 1.689377e-04 2.128051e-04 2.466646e-04 2.971376e-04 3.372650e-04 3.923892e-04 4.364458e-04 4.934591e-04 5.385125e-04 5.944211e-04 6.376154e-04 6.898051e-04 7.289573e-04 7.756445e-04 8.096131e-04 8.500310e-04 8.788004e-04 9.131140e-04 9.376215e-04 9.666357e-04 9.884225e-04 1.013185e-03 1.033968e-03 1.055382e-03 1.076645e-03 1.095194e-03 1.117895e-03 1.133564e-03 1.157996e-03 1.170389e-03 1.196200e-03 1.204796e-03 1.231086e-03 1.235488e-03 1.260935e-03 1.261020e-03 1.284003e-03 1.279922e-03 1.298687e-03 1.290736e-03 1.303628e-03 1.292043e-03 1.297781e-03 1.282548e-03 1.280497e-03 1.261297e-03 1.251667e-03 1.228076e-03 1.211971e-03 1.183858e-03 1.163050e-03 1.130969e-03 1.107314e-03 1.072599e-03 1.047240e-03 1.011725e-03 9.845133e-04 9.500540e-04 9.195847e-04 8.876517e-04 8.519686e-04 8.234514e-04 7.810723e-04 7.563023e-04 7.070301e-04 6.859294e-04 6.310851e-04 6.133341e-04 5.553794e-04 5.405368e-04 4.823500e-04 4.699233e-04 4.140931e-04 4.035922e-04 3.519820e-04 3.429762e-04 2.966160e-04 2.887855e-04 2.479966e-04 2.411553e-04 2.057707e-04 1.998516e-04 1.694280e-04 1.644382e-04 1.384126e-04 