# vtk DataFile Version 2.0
Comment goes here
ASCII

DATASET STRUCTURED_POINTS
FIELD FieldData 1
TIME 1 1 double
0.20000000
DIMENSIONS    128   128   1

ORIGIN    0.000   0.000   0.000
SPACING   0.039062 0.039062   1.000

POINT_DATA   16384
SCALARS Omega double
LOOKUP_TABLE default

1.638514e-15 -1.191572e-15 4.108970e-15 -2.709709e-15 -1.948103e-15 -6.528481e-15 -1.337526e-15 1.937048e-15 3.310644e-15 2.134015e-14 2.046500e-14 7.575583e-15 -5.607315e-15 -4.849758e-15 1.611642e-15 6.152922e-16 -1.711098e-14 -9.061080e-15 9.541349e-15 -1.282293e-14 -3.925328e-15 -4.108357e-15 -1.672185e-14 -2.943139e-14 -1.270708e-14 8.604453e-15 4.930844e-15 -2.536007e-14 -2.114728e-14 2.165630e-14 1.600688e-14 -4.179878e-14 -1.761157e-14 -6.466788e-14 -2.680424e-14 -3.121581e-14 -3.068391e-14 -5.494229e-15 -1.536095e-14 -3.189946e-14 -3.304556e-14 -1.407062e-14 1.979487e-14 -2.226730e-14 -2.779934e-14 -7.672851e-15 2.816453e-14 -2.556335e-14 -2.235104e-14 -2.875305e-14 -2.493683e-14 -9.428443e-15 1.344068e-15 2.035215e-14 1.627637e-14 1.584153e-14 5.061402e-15 2.683033e-14 2.647542e-14 1.797040e-14 1.619179e-14 1.815462e-14 1.404988e-14 2.175227e-14 1.934701e-14 1.276783e-14 5.373492e-14 2.699349e-14 1.377597e-14 1.658711e-14 1.829941e-15 2.689676e-14 2.146903e-14 1.641592e-14 4.303604e-15 3.195736e-14 -3.925629e-15 8.290980e-15 -1.244650e-14 3.167450e-14 -1.710733e-14 -4.934110e-15 -1.349500e-14 1.017828e-14 4.859688e-14 4.530164e-14 3.353041e-14 3.313047e-14 1.671729e-14 1.951702e-14 7.051439e-14 3.868460e-14 -2.416718e-14 -1.863767e-14 6.116377e-14 4.395352e-14 4.326511e-14 2.280503e-14 5.637000e-14 3.799917e-14 3.193066e-14 1.084177e-14 3.215630e-14 1.318367e-14 2.378070e-14 4.341368e-14 2.954632e-14 6.128783e-15 -9.548061e-15 -1.153179e-14 -7.513178e-15 -3.256971e-14 -2.961320e-14 -2.012344e-14 -2.208055e-14 -1.354415e-14 -1.896624e-14 -2.464228e-14 -2.670285e-14 -1.495840e-14 -1.854298e-14 -1.345496e-14 -2.365056e-15 -1.338968e-15 1.900100e-16 -7.689467e-15 -9.515594e-15 -5.536841e-15 
9.016001e-06 8.718233e-06 8.504389e-06 8.258346e-06 8.110266e-06 7.900882e-06 7.808213e-06 7.621340e-06 7.571832e-06 7.394733e-06 7.375414e-06 7.197053e-06 7.195488e-06 7.006652e-06 7.012193e-06 6.805552e-06 6.810477e-06 6.580684e-06 6.581149e-06 6.325116e-06 6.321872e-06 6.039345e-06 6.038204e-06 5.732725e-06 5.744803e-06 5.425048e-06 5.466829e-06 5.148162e-06 5.241395e-06 4.947278e-06 5.118595e-06 4.881302e-06 5.161299e-06 5.021244e-06 5.442609e-06 5.445616e-06 6.039889e-06 6.232065e-06 7.024838e-06 7.445273e-06 8.450218e-06 9.122599e-06 1.033539e-05 1.126034e-05 1.265413e-05 1.380450e-05 1.532879e-05 1.664974e-05 1.823385e-05 1.964864e-05 2.120994e-05 2.263071e-05 2.408627e-05 2.542781e-05 2.670721e-05 2.790049e-05 2.895676e-05 2.995936e-05 3.077566e-05 3.157674e-05 3.216727e-05 3.278621e-05 3.319143e-05 3.367092e-05 3.394836e-05 3.434375e-05 3.455653e-05 3.492407e-05 3.512960e-05 3.551586e-05 3.575659e-05 3.619090e-05 3.648847e-05 3.697928e-05 3.733243e-05 3.786744e-05 3.825349e-05 3.880302e-05 3.918219e-05 3.970454e-05 4.002639e-05 4.047437e-05 4.068539e-05 4.101282e-05 4.106451e-05 4.123193e-05 4.108813e-05 4.106721e-05 4.070981e-05 4.048580e-05 3.991764e-05 3.948989e-05 3.873420e-05 3.811469e-05 3.721093e-05 3.642132e-05 3.541829e-05 3.448634e-05 3.343399e-05 3.239012e-05 3.133212e-05 3.020687e-05 2.917559e-05 2.799832e-05 2.701302e-05 2.581158e-05 2.487988e-05 2.368078e-05 2.280222e-05 2.163067e-05 2.080109e-05 1.968063e-05 1.889606e-05 1.784758e-05 1.710680e-05 1.614733e-05 1.545283e-05 1.459442e-05 1.395194e-05 1.320092e-05 1.261813e-05 1.197503e-05 1.145972e-05 1.091973e-05 1.047820e-05 1.003207e-05 9.667819e-06 9.303086e-06 
1.798571e-05 1.737336e-05 1.692966e-05 1.642169e-05 1.611187e-05 1.567855e-05 1.548219e-05 1.509553e-05 1.498825e-05 1.462299e-05 1.457889e-05 1.421312e-05 1.420730e-05 1.382269e-05 1.383380e-05 1.341574e-05 1.342829e-05 1.296612e-05 1.297239e-05 1.245993e-05 1.246141e-05 1.189808e-05 1.190640e-05 1.129916e-05 1.133650e-05 1.070250e-05 1.080171e-05 1.017139e-05 1.037573e-05 9.795696e-06 1.015810e-05 9.692641e-06 1.027391e-05 1.000373e-05 1.086889e-05 1.088574e-05 1.209765e-05 1.249410e-05 1.410390e-05 1.495864e-05 1.699371e-05 1.835463e-05 2.080636e-05 2.267498e-05 2.548955e-05 2.781139e-05 3.088736e-05 3.355209e-05 3.674736e-05 3.960043e-05 4.274878e-05 4.561323e-05 4.854792e-05 5.125214e-05 5.383169e-05 5.623684e-05 5.836709e-05 6.038814e-05 6.203566e-05 6.365125e-05 6.484510e-05 6.609482e-05 6.691683e-05 6.788710e-05 6.845324e-05 6.925586e-05 6.969314e-05 7.044147e-05 7.086513e-05 7.165278e-05 7.214776e-05 7.303344e-05 7.364266e-05 7.464281e-05 7.536299e-05 7.645215e-05 7.723680e-05 7.835429e-05 7.912242e-05 8.018326e-05 8.083225e-05 8.174022e-05 8.216126e-05 8.282214e-05 8.291655e-05 8.324986e-05 8.294418e-05 8.289226e-05 8.215004e-05 8.168337e-05 8.051131e-05 7.962965e-05 7.807656e-05 7.680603e-05 7.495427e-05 7.334114e-05 7.129222e-05 6.939516e-05 6.725257e-05 6.513516e-05 6.298880e-05 6.071395e-05 5.862951e-05 5.625654e-05 5.427193e-05 5.185603e-05 4.998455e-05 4.757737e-05 4.581547e-05 4.346572e-05 4.180242e-05 3.955542e-05 3.798063e-05 3.587675e-05 3.438664e-05 3.245901e-05 3.105805e-05 2.933032e-05 2.803019e-05 2.651506e-05 2.533176e-05 2.403060e-05 2.298074e-05 2.188441e-05 2.098164e-05 2.007228e-05 1.932453e-05 1.857782e-05 
2.699634e-05 2.606108e-05 2.537630e-05 2.460145e-05 2.412167e-05 2.346147e-05 2.315524e-05 2.256682e-05 2.239682e-05 2.184166e-05 2.176833e-05 2.121307e-05 2.119841e-05 2.061521e-05 2.062666e-05 1.999335e-05 2.000729e-05 1.930764e-05 1.931232e-05 1.853682e-05 1.853451e-05 1.768201e-05 1.769036e-05 1.677097e-05 1.682354e-05 1.586262e-05 1.600896e-05 1.505189e-05 1.535711e-05 1.447380e-05 1.501748e-05 1.430484e-05 1.517851e-05 1.475887e-05 1.606077e-05 1.607399e-05 1.789963e-05 1.848768e-05 2.091554e-05 2.220015e-05 2.527342e-05 2.732995e-05 3.103762e-05 3.387098e-05 3.813343e-05 4.166291e-05 4.632788e-05 5.038707e-05 5.523992e-05 5.959425e-05 6.438310e-05 6.876324e-05 7.323489e-05 7.737911e-05 8.131837e-05 8.501460e-05 8.827792e-05 9.139571e-05 9.393154e-05 9.643716e-05 9.828857e-05 1.002406e-04 1.015304e-04 1.030581e-04 1.039604e-04 1.052312e-04 1.059364e-04 1.071197e-04 1.078001e-04 1.090350e-04 1.098172e-04 1.111901e-04 1.121372e-04 1.136712e-04 1.147773e-04 1.164333e-04 1.176281e-04 1.193153e-04 1.204772e-04 1.220696e-04 1.230453e-04 1.244016e-04 1.250288e-04 1.260114e-04 1.261432e-04 1.266355e-04 1.261624e-04 1.260815e-04 1.249496e-04 1.242533e-04 1.224730e-04 1.211609e-04 1.188056e-04 1.169147e-04 1.141079e-04 1.117033e-04 1.085969e-04 1.057609e-04 1.025096e-04 9.933155e-05 9.606919e-05 9.263866e-05 8.946276e-05 8.586589e-05 8.283267e-05 7.915222e-05 7.628174e-05 7.259805e-05 6.988615e-05 6.627735e-05 6.370972e-05 6.025005e-05 5.781435e-05 5.457059e-05 5.226407e-05 4.929106e-05 4.712298e-05 4.445969e-05 4.244946e-05 4.011658e-05 3.828923e-05 3.628891e-05 3.466958e-05 3.298707e-05 3.159589e-05 3.020273e-05 2.905090e-05 2.790878e-05 
3.585473e-05 3.454491e-05 3.356997e-05 3.247962e-05 3.178822e-05 3.085671e-05 3.040707e-05 2.957751e-05 2.931971e-05 2.854089e-05 2.842172e-05 2.764926e-05 2.761748e-05 2.681429e-05 2.682591e-05 2.596240e-05 2.598552e-05 2.503999e-05 2.505876e-05 2.401836e-05 2.403588e-05 2.289881e-05 2.293880e-05 2.171799e-05 2.182539e-05 2.055384e-05 2.079465e-05 1.953188e-05 1.999242e-05 1.883067e-05 1.961615e-05 1.868414e-05 1.991557e-05 1.937682e-05 2.118447e-05 2.122721e-05 2.373850e-05 2.455516e-05 2.787573e-05 2.963270e-05 3.382174e-05 3.662355e-05 4.166783e-05 4.552372e-05 5.131749e-05 5.612015e-05 6.245902e-05 6.798387e-05 7.457841e-05 8.050753e-05 8.701727e-05 9.298493e-05 9.906738e-05 1.047181e-04 1.100823e-04 1.151283e-04 1.195806e-04 1.238453e-04 1.273168e-04 1.307551e-04 1.333049e-04 1.359969e-04 1.377915e-04 1.399127e-04 1.411872e-04 1.429639e-04 1.439744e-04 1.456345e-04 1.466117e-04 1.483412e-04 1.494533e-04 1.513666e-04 1.526958e-04 1.548212e-04 1.563567e-04 1.586389e-04 1.602830e-04 1.625970e-04 1.641835e-04 1.663575e-04 1.676770e-04 1.695189e-04 1.703499e-04 1.716731e-04 1.718150e-04 1.724618e-04 1.717659e-04 1.716249e-04 1.700184e-04 1.690345e-04 1.665348e-04 1.647109e-04 1.614232e-04 1.588140e-04 1.549138e-04 1.516123e-04 1.473147e-04 1.434369e-04 1.389589e-04 1.346289e-04 1.301565e-04 1.254957e-04 1.211611e-04 1.162843e-04 1.121599e-04 1.071754e-04 1.032815e-04 9.829399e-05 9.461744e-05 8.972882e-05 8.624358e-05 8.155165e-05 7.823648e-05 7.383019e-05 7.067931e-05 6.663257e-05 6.365868e-05 6.002466e-05 5.725576e-05 5.406337e-05 5.153592e-05 4.878915e-05 4.653996e-05 4.422012e-05 4.227906e-05 4.034899e-05 3.873350e-05 3.714273e-05 
4.479466e-05 4.309297e-05 4.180326e-05 4.038642e-05 3.946464e-05 3.825439e-05 3.764658e-05 3.657001e-05 3.621197e-05 3.520379e-05 3.502721e-05 3.403097e-05 3.397014e-05 3.293878e-05 3.293729e-05 3.183333e-05 3.185030e-05 3.064618e-05 3.066143e-05 2.934065e-05 2.935831e-05 2.791804e-05 2.796853e-05 2.642411e-05 2.656457e-05 2.495623e-05 2.526991e-05 2.367104e-05 2.426618e-05 2.279151e-05 2.379959e-05 2.261069e-05 2.418304e-05 2.348708e-05 2.578743e-05 2.582525e-05 2.901539e-05 3.003587e-05 3.425222e-05 3.647353e-05 4.179562e-05 4.535847e-05 5.177500e-05 5.669840e-05 6.408021e-05 7.023265e-05 7.832363e-05 8.542122e-05 9.385493e-05 1.014917e-04 1.098347e-04 1.175416e-04 1.253566e-04 1.326765e-04 1.395911e-04 1.461533e-04 1.519192e-04 1.574953e-04 1.620231e-04 1.665529e-04 1.699161e-04 1.734988e-04 1.759067e-04 1.787624e-04 1.805105e-04 1.829227e-04 1.843316e-04 1.865842e-04 1.879414e-04 1.902642e-04 1.917770e-04 1.943083e-04 1.960758e-04 1.988463e-04 2.008511e-04 2.037875e-04 2.059048e-04 2.088497e-04 2.108698e-04 2.136104e-04 2.152711e-04 2.175724e-04 2.185974e-04 2.202344e-04 2.203734e-04 2.211582e-04 2.202261e-04 2.200280e-04 2.179354e-04 2.166913e-04 2.134621e-04 2.111774e-04 2.069466e-04 2.036864e-04 1.986780e-04 1.945509e-04 1.890376e-04 1.841774e-04 1.784338e-04 1.729825e-04 1.672417e-04 1.613398e-04 1.557653e-04 1.495494e-04 1.442285e-04 1.378331e-04 1.327890e-04 1.263511e-04 1.215669e-04 1.152256e-04 1.106715e-04 1.045641e-04 1.002184e-04 9.447112e-05 9.033307e-05 8.505096e-05 8.114283e-05 7.640076e-05 7.276277e-05 6.860085e-05 6.528200e-05 6.170537e-05 5.875331e-05 5.573606e-05 5.318828e-05 5.068003e-05 4.855750e-05 4.649095e-05 
5.343582e-05 5.125205e-05 4.956232e-05 4.773468e-05 4.651069e-05 4.494503e-05 4.412154e-05 4.273012e-05 4.222891e-05 4.093310e-05 4.067057e-05 3.940235e-05 3.929781e-05 3.800042e-05 3.798453e-05 3.661280e-05 3.663536e-05 3.515607e-05 3.519251e-05 3.358568e-05 3.364145e-05 3.190325e-05 3.201593e-05 3.016390e-05 3.040322e-05 2.848414e-05 2.895061e-05 2.705053e-05 2.787351e-05 2.612810e-05 2.746366e-05 2.606577e-05 2.809320e-05 2.729266e-05 3.020684e-05 3.029729e-05 3.429270e-05 3.558125e-05 4.082452e-05 4.358414e-05 5.017561e-05 5.458650e-05 6.251740e-05 6.861043e-05 7.772793e-05 8.534702e-05 9.534125e-05 1.041397e-04 1.145632e-04 1.240408e-04 1.343620e-04 1.439389e-04 1.536203e-04 1.627311e-04 1.713153e-04 1.795015e-04 1.866841e-04 1.936643e-04 1.993367e-04 2.050373e-04 2.092907e-04 2.138347e-04 2.169261e-04 2.205838e-04 2.228738e-04 2.259916e-04 2.278694e-04 2.307916e-04 2.326032e-04 2.356056e-04 2.375975e-04 2.408427e-04 2.431289e-04 2.466473e-04 2.492000e-04 2.528961e-04 2.555575e-04 2.592346e-04 2.617444e-04 2.651406e-04 2.671747e-04 2.700025e-04 2.712195e-04 2.732049e-04 2.732952e-04 2.742112e-04 2.729458e-04 2.726360e-04 2.699064e-04 2.682993e-04 2.641408e-04 2.612501e-04 2.558410e-04 2.517548e-04 2.453875e-04 2.402470e-04 2.332762e-04 2.272513e-04 2.200305e-04 2.132973e-04 2.061212e-04 1.988490e-04 1.919174e-04 1.842663e-04 1.776764e-04 1.698031e-04 1.635678e-04 1.556324e-04 1.497152e-04 1.418837e-04 1.362353e-04 1.286749e-04 1.232618e-04 1.161292e-04 1.109491e-04 1.043763e-04 9.945952e-05 9.354210e-05 8.894356e-05 8.373378e-05 7.951993e-05 7.502644e-05 7.126168e-05 6.745447e-05 6.418976e-05 6.100854e-05 5.827344e-05 5.563721e-05 
6.220027e-05 5.950678e-05 5.737431e-05 5.511644e-05 5.355600e-05 5.161967e-05 5.055187e-05 4.883166e-05 4.816182e-05 4.656383e-05 4.619090e-05 4.463421e-05 4.446066e-05 4.287800e-05 4.282007e-05 4.115803e-05 4.115528e-05 3.937473e-05 3.939804e-05 3.747539e-05 3.753219e-05 3.546252e-05 3.559898e-05 3.340180e-05 3.370208e-05 3.143038e-05 3.201401e-05 2.976615e-05 3.078493e-05 2.871756e-05 3.035290e-05 2.869123e-05 3.115104e-05 3.019067e-05 3.370226e-05 3.379556e-05 3.858919e-05 4.011053e-05 4.638830e-05 4.967681e-05 5.756685e-05 6.285391e-05 7.235712e-05 7.969481e-05 9.063976e-05 9.985187e-05 1.118762e-04 1.225513e-04 1.351232e-04 1.466595e-04 1.591421e-04 1.708372e-04 1.825839e-04 1.937509e-04 2.042099e-04 2.142912e-04 2.230947e-04 2.317466e-04 2.387619e-04 2.458919e-04 2.512254e-04 2.569768e-04 2.609320e-04 2.656235e-04 2.686249e-04 2.726630e-04 2.751662e-04 2.789515e-04 2.813578e-04 2.852064e-04 2.877969e-04 2.918885e-04 2.947877e-04 2.991464e-04 3.023132e-04 3.068183e-04 3.100615e-04 3.144787e-04 3.174902e-04 3.215157e-04 3.239152e-04 3.272228e-04 3.286108e-04 3.308957e-04 3.309108e-04 3.319257e-04 3.303010e-04 3.298808e-04 3.264917e-04 3.245659e-04 3.194591e-04 3.160493e-04 3.094429e-04 3.046485e-04 2.968974e-04 2.908706e-04 2.824029e-04 2.753215e-04 2.665603e-04 2.586052e-04 2.498984e-04 2.412441e-04 2.328210e-04 2.236391e-04 2.156044e-04 2.060748e-04 1.984353e-04 1.887563e-04 1.814654e-04 1.718545e-04 1.648573e-04 1.555398e-04 1.488064e-04 1.399957e-04 1.335362e-04 1.254115e-04 1.192746e-04 1.119635e-04 1.062243e-04 9.979496e-05 9.453833e-05 8.900005e-05 8.430493e-05 7.961688e-05 7.554346e-05 7.162721e-05 6.820871e-05 6.496145e-05 
7.045066e-05 6.711219e-05 6.441024e-05 6.159700e-05 5.959433e-05 5.717420e-05 5.577796e-05 5.362900e-05 5.272778e-05 5.074136e-05 5.021575e-05 4.829826e-05 4.803273e-05 4.610641e-05 4.600164e-05 4.400502e-05 4.398967e-05 4.187803e-05 4.191845e-05 3.966518e-05 3.977165e-05 3.737136e-05 3.760015e-05 3.507473e-05 3.552609e-05 3.293452e-05 3.374806e-05 3.119990e-05 3.254956e-05 3.022043e-05 3.231082e-05 3.045581e-05 3.351964e-05 3.247804e-05 3.677071e-05 3.695325e-05 4.273724e-05 4.458777e-05 5.209923e-05 5.602775e-05 6.542328e-05 7.171809e-05 8.300985e-05 9.174842e-05 1.047468e-04 1.157329e-04 1.300205e-04 1.427731e-04 1.577280e-04 1.715335e-04 1.864052e-04 2.004268e-04 2.144510e-04 2.278695e-04 2.403941e-04 2.525447e-04 2.631360e-04 2.736105e-04 2.821134e-04 2.908033e-04 2.973448e-04 3.044204e-04 3.093573e-04 3.151943e-04 3.190221e-04 3.240955e-04 3.273416e-04 3.321147e-04 3.352380e-04 3.400702e-04 3.433861e-04 3.484742e-04 3.521144e-04 3.574729e-04 3.613774e-04 3.668537e-04 3.707904e-04 3.761035e-04 3.797060e-04 3.844984e-04 3.873170e-04 3.912090e-04 3.927709e-04 3.954109e-04 3.952863e-04 3.963921e-04 3.942628e-04 3.936502e-04 3.893698e-04 3.869670e-04 3.806001e-04 3.764458e-04 3.682711e-04 3.624960e-04 3.529648e-04 3.457606e-04 3.354142e-04 3.269968e-04 3.163646e-04 3.069451e-04 2.964518e-04 2.862242e-04 2.761349e-04 2.652833e-04 2.556997e-04 2.444177e-04 2.353170e-04 2.238251e-04 2.151227e-04 2.036725e-04 1.952834e-04 1.841443e-04 1.760249e-04 1.654578e-04 1.576225e-04 1.478495e-04 1.403654e-04 1.315465e-04 1.245146e-04 1.167365e-04 1.102693e-04 1.035463e-04 9.774681e-05 9.203234e-05 8.697895e-05 8.218138e-05 7.791827e-05 7.391738e-05 
7.887311e-05 7.484922e-05 7.150907e-05 6.810841e-05 6.560534e-05 6.267249e-05 6.089634e-05 5.828939e-05 5.710880e-05 5.470217e-05 5.397654e-05 5.166251e-05 5.125574e-05 4.894529e-05 4.874049e-05 4.636380e-05 4.627755e-05 4.378455e-05 4.377880e-05 4.114045e-05 4.122998e-05 3.844120e-05 3.869544e-05 3.578120e-05 3.632035e-05 3.334601e-05 3.433349e-05 3.141980e-05 3.305429e-05 3.039569e-05 3.290592e-05 3.078798e-05 3.443116e-05 3.323966e-05 3.829917e-05 3.850991e-05 4.528273e-05 4.742074e-05 5.618334e-05 6.074575e-05 7.169322e-05 7.904313e-05 9.221031e-05 1.024656e-04 1.176537e-04 1.306060e-04 1.473457e-04 1.624419e-04 1.800168e-04 1.964201e-04 2.139556e-04 2.306769e-04 2.472774e-04 2.633449e-04 2.782440e-04 2.928686e-04 3.055558e-04 3.182521e-04 3.285431e-04 3.391787e-04 3.472175e-04 3.559864e-04 3.621815e-04 3.695139e-04 3.744301e-04 3.808663e-04 3.850988e-04 3.911585e-04 3.952178e-04 4.012938e-04 4.055219e-04 4.118163e-04 4.163441e-04 4.228512e-04 4.275945e-04 4.341230e-04 4.388077e-04 4.450311e-04 4.492372e-04 4.547547e-04 4.579722e-04 4.623714e-04 4.640659e-04 4.669768e-04 4.666628e-04 4.678000e-04 4.651178e-04 4.643064e-04 4.590932e-04 4.562783e-04 4.486167e-04 4.438555e-04 4.340803e-04 4.275177e-04 4.161672e-04 4.079991e-04 3.957157e-04 3.861495e-04 3.735536e-04 3.627812e-04 3.503590e-04 3.385535e-04 3.265940e-04 3.139310e-04 3.025275e-04 2.892172e-04 2.783233e-04 2.646348e-04 2.541444e-04 2.404059e-04 2.302277e-04 2.168005e-04 2.069030e-04 1.941381e-04 1.845630e-04 1.727561e-04 1.636045e-04 1.529635e-04 1.443699e-04 1.350020e-04 1.271060e-04 1.190233e-04 1.119468e-04 1.050840e-04 9.891563e-05 9.315402e-05 8.794047e-05 8.312955e-05 
8.646891e-05 8.156981e-05 7.741531e-05 7.325360e-05 7.010466e-05 6.650313e-05 6.423194e-05 6.102913e-05 5.948286e-05 5.653595e-05 5.555060e-05 5.273711e-05 5.215352e-05 4.937254e-05 4.905407e-05 4.622725e-05 4.607710e-05 4.314960e-05 4.312550e-05 4.006723e-05 4.019044e-05 3.699864e-05 3.735531e-05 3.406011e-05 3.479484e-05 3.146940e-05 3.277335e-05 2.954972e-05 3.164803e-05 2.873770e-05 3.188139e-05 2.959699e-05 3.406211e-05 3.283198e-05 3.892195e-05 3.928470e-05 4.732366e-05 4.988724e-05 6.018801e-05 6.554305e-05 7.833981e-05 8.693347e-05 1.022870e-04 1.142855e-04 1.319903e-04 1.471748e-04 1.667073e-04 1.844460e-04 2.049875e-04 2.243058e-04 2.448454e-04 2.645830e-04 2.840805e-04 3.030957e-04 3.206610e-04 3.380286e-04 3.530702e-04 3.682234e-04 3.805303e-04 3.933171e-04 4.030573e-04 4.137048e-04 4.213487e-04 4.303540e-04 4.365448e-04 4.445249e-04 4.499321e-04 4.574712e-04 4.626593e-04 4.701878e-04 4.755236e-04 4.832481e-04 4.888572e-04 4.967466e-04 5.025134e-04 5.103302e-04 5.159293e-04 5.232894e-04 5.282344e-04 5.346781e-04 5.383813e-04 5.434429e-04 5.452856e-04 5.485538e-04 5.479686e-04 5.491315e-04 5.456939e-04 5.445684e-04 5.380865e-04 5.346293e-04 5.252106e-04 5.195101e-04 5.075767e-04 4.998237e-04 4.860552e-04 4.764953e-04 4.617003e-04 4.505807e-04 4.355305e-04 4.230624e-04 4.083422e-04 3.946969e-04 3.806259e-04 3.659674e-04 3.526082e-04 3.371437e-04 3.243847e-04 3.084040e-04 2.960724e-04 2.799536e-04 2.679139e-04 2.520911e-04 2.403012e-04 2.252054e-04 2.137266e-04 1.997249e-04 1.886974e-04 1.760492e-04 1.656529e-04 1.544923e-04 1.449093e-04 1.352535e-04 1.266393e-04 1.184121e-04 1.108780e-04 1.039399e-04 9.754468e-05 9.172051e-05 
9.430737e-05 8.847564e-05 8.339981e-05 7.842542e-05 7.453535e-05 7.021311e-05 6.735849e-05 6.350365e-05 6.150621e-05 5.795644e-05 5.662511e-05 5.324184e-05 5.239102e-05 4.906088e-05 4.853131e-05 4.516767e-05 4.484770e-05 4.139211e-05 4.123589e-05 3.765936e-05 3.769798e-05 3.400288e-05 3.434525e-05 3.056981e-05 3.139271e-05 2.762039e-05 2.915054e-05 2.552614e-05 2.802084e-05 2.477322e-05 2.850768e-05 2.597624e-05 3.124325e-05 2.989994e-05 3.701910e-05 3.747087e-05 4.679204e-05 4.974272e-05 6.162030e-05 6.777528e-05 8.249556e-05 9.241213e-05 1.100796e-04 1.239960e-04 1.444138e-04 1.621143e-04 1.847120e-04 2.054839e-04 2.293356e-04 2.520494e-04 2.759928e-04 2.992901e-04 3.221203e-04 3.446599e-04 3.653426e-04 3.860375e-04 4.038849e-04 4.220698e-04 4.368343e-04 4.523283e-04 4.641980e-04 4.772583e-04 4.867630e-04 4.979520e-04 5.058106e-04 5.158180e-04 5.227683e-04 5.322336e-04 5.388835e-04 5.482591e-04 5.549867e-04 5.644647e-04 5.713766e-04 5.808823e-04 5.878224e-04 5.970589e-04 6.036486e-04 6.121729e-04 6.178659e-04 6.251729e-04 6.293183e-04 6.349188e-04 6.368331e-04 6.403174e-04 6.393712e-04 6.404523e-04 6.361721e-04 6.347067e-04 6.268807e-04 6.228703e-04 6.116320e-04 6.052035e-04 5.910569e-04 5.824229e-04 5.661767e-04 5.555782e-04 5.381893e-04 5.258367e-04 5.082030e-04 4.942436e-04 4.770227e-04 4.615570e-04 4.450751e-04 4.282192e-04 4.124977e-04 3.944619e-04 3.793326e-04 3.604741e-04 3.457252e-04 3.265454e-04 3.120382e-04 2.931233e-04 2.788490e-04 2.607783e-04 2.468543e-04 2.301111e-04 2.167395e-04 2.016530e-04 1.890675e-04 1.757955e-04 1.642167e-04 1.527641e-04 1.423697e-04 1.326262e-04 1.235360e-04 1.153186e-04 1.075897e-04 1.006793e-04 
1.008838e-04 9.386201e-05 8.762854e-05 8.160866e-05 7.678400e-05 7.153295e-05 6.794182e-05 6.325022e-05 6.068515e-05 5.636902e-05 5.460734e-05 5.050960e-05 4.933463e-05 4.532740e-05 4.455327e-05 4.054074e-05 4.003848e-05 3.595946e-05 3.567993e-05 3.150936e-05 3.149721e-05 2.724712e-05 2.764129e-05 2.336349e-05 2.438268e-05 2.017616e-05 2.209270e-05 1.811868e-05 2.122921e-05 1.773453e-05 2.233935e-05 1.968677e-05 2.608820e-05 2.478668e-05 3.330661e-05 3.402487e-05 4.502354e-05 4.855971e-05 6.242276e-05 6.960375e-05 8.666823e-05 9.817522e-05 1.185950e-04 1.347525e-04 1.583462e-04 1.789471e-04 2.050974e-04 2.293404e-04 2.570044e-04 2.835837e-04 3.114301e-04 3.387607e-04 3.654001e-04 3.919144e-04 4.161534e-04 4.405845e-04 4.616323e-04 4.832099e-04 5.007856e-04 5.193057e-04 5.336272e-04 5.493904e-04 5.610600e-04 5.747109e-04 5.845348e-04 5.968508e-04 6.056422e-04 6.173282e-04 6.257397e-04 6.372739e-04 6.456906e-04 6.572488e-04 6.657514e-04 6.772088e-04 6.855922e-04 6.965835e-04 7.044061e-04 7.144160e-04 7.210581e-04 7.295164e-04 7.342420e-04 7.406092e-04 7.426378e-04 7.464723e-04 7.450719e-04 7.460751e-04 7.406824e-04 7.387213e-04 7.290775e-04 7.241869e-04 7.104554e-04 7.028179e-04 6.856309e-04 6.755304e-04 6.559132e-04 6.436590e-04 6.228243e-04 6.086673e-04 5.877375e-04 5.718193e-04 5.515811e-04 5.339544e-04 5.147442e-04 4.954628e-04 4.772153e-04 4.564532e-04 4.388710e-04 4.170056e-04 3.997640e-04 3.773806e-04 3.602831e-04 3.380967e-04 3.211404e-04 2.998710e-04 2.832278e-04 2.634791e-04 2.474280e-04 2.296095e-04 2.144614e-04 1.987670e-04 1.848053e-04 1.712394e-04 1.586853e-04 1.471135e-04 1.361117e-04 1.263158e-04 1.169325e-04 1.086557e-04 
1.078270e-04 9.953351e-05 9.197879e-05 8.483097e-05 7.891952e-05 7.264972e-05 6.817538e-05 6.254591e-05 5.926712e-05 5.407016e-05 5.172797e-05 4.678662e-05 4.512852e-05 4.030000e-05 3.910935e-05 3.428961e-05 3.341797e-05 2.854589e-05 2.794211e-05 2.300149e-05 2.272980e-05 1.774892e-05 1.798917e-05 1.304066e-05 1.406813e-05 9.273503e-06 1.142189e-05 6.964324e-06 1.058261e-05 6.729955e-06 1.214946e-05 9.287733e-06 1.681675e-05 1.548989e-05 2.544162e-05 2.638078e-05 3.911490e-05 4.322278e-05 5.915497e-05 6.740444e-05 8.693657e-05 1.001689e-04 1.235304e-04 1.421931e-04 1.692451e-04 1.931634e-04 2.232566e-04 2.515402e-04 2.835112e-04 3.146533e-04 3.469808e-04 3.791293e-04 4.102093e-04 4.415262e-04 4.699766e-04 4.989783e-04 5.238829e-04 5.496713e-04 5.707029e-04 5.930404e-04 6.104416e-04 6.296708e-04 6.441143e-04 6.609625e-04 6.733378e-04 6.886664e-04 6.998518e-04 7.144180e-04 7.250931e-04 7.393780e-04 7.499127e-04 7.640452e-04 7.744718e-04 7.882463e-04 7.982948e-04 8.112547e-04 8.204163e-04 8.319667e-04 8.395582e-04 8.490787e-04 8.543014e-04 8.612422e-04 8.632487e-04 8.672009e-04 8.651879e-04 8.659220e-04 8.592618e-04 8.567358e-04 8.451378e-04 8.394802e-04 8.231417e-04 8.146132e-04 7.942896e-04 7.832158e-04 7.601352e-04 7.468106e-04 7.224171e-04 7.070067e-04 6.826082e-04 6.651056e-04 6.415697e-04 6.218583e-04 5.994868e-04 5.774950e-04 5.561134e-04 5.319923e-04 5.111874e-04 4.854193e-04 4.648028e-04 4.381848e-04 4.175745e-04 3.910843e-04 3.705572e-04 3.451629e-04 3.250031e-04 3.014912e-04 2.820870e-04 2.609644e-04 2.427099e-04 2.241892e-04 2.074178e-04 1.914674e-04 1.764211e-04 1.628425e-04 1.496662e-04 1.381700e-04 1.269177e-04 1.171821e-04 
1.129351e-04 1.030275e-04 9.384094e-05 8.525882e-05 7.800744e-05 7.044550e-05 6.488598e-05 5.807348e-05 5.392266e-05 4.762233e-05 4.457695e-05 3.858650e-05 3.635024e-05 3.050750e-05 2.882611e-05 2.301664e-05 2.171791e-05 1.588204e-05 1.491299e-05 9.048531e-06 8.499045e-06 2.658996e-06 2.762293e-06 -2.949127e-06 -1.843068e-06 -7.269997e-06 -4.744709e-06 -9.670463e-06 -5.305031e-06 -9.432363e-06 -2.853887e-06 -5.772324e-06 3.328233e-06 2.189323e-06 1.409440e-05 1.551414e-05 3.055184e-05 3.552613e-05 5.411628e-05 6.376584e-05 8.636592e-05 1.017094e-04 1.286326e-04 1.502643e-04 1.814285e-04 2.092202e-04 2.439509e-04 2.769156e-04 3.139184e-04 3.503185e-04 3.878576e-04 4.255309e-04 4.617583e-04 4.985550e-04 5.318763e-04 5.660683e-04 5.954319e-04 6.259837e-04 6.510195e-04 6.776678e-04 6.986563e-04 7.218047e-04 7.395059e-04 7.599868e-04 7.753871e-04 7.941652e-04 8.082150e-04 8.261110e-04 8.395151e-04 8.570152e-04 8.701191e-04 8.873013e-04 9.000778e-04 9.166483e-04 9.287536e-04 9.441549e-04 9.550055e-04 9.685499e-04 9.773874e-04 9.883825e-04 9.943211e-04 1.002172e-03 1.004253e-03 1.008534e-03 1.005819e-03 1.006313e-03 9.980386e-04 9.947438e-04 9.805314e-04 9.736457e-04 9.537209e-04 9.436056e-04 9.189154e-04 9.060170e-04 8.781350e-04 8.628534e-04 8.336363e-04 8.161752e-04 7.872767e-04 7.675681e-04 7.400234e-04 7.178039e-04 6.918701e-04 6.669031e-04 6.422065e-04 6.145446e-04 5.904293e-04 5.605816e-04 5.364784e-04 5.053986e-04 4.810631e-04 4.499681e-04 4.255307e-04 3.956389e-04 3.715090e-04 3.438078e-04 3.205180e-04 2.956337e-04 2.737025e-04 2.518875e-04 2.317356e-04 2.129392e-04 1.948586e-04 1.788310e-04 1.629860e-04 1.493761e-04 1.358194e-04 1.242459e-04 
1.186489e-04 1.070087e-04 9.594309e-05 8.579550e-05 7.696595e-05 6.796137e-05 6.108008e-05 5.291118e-05 4.764717e-05 4.004490e-05 3.604422e-05 2.877922e-05 2.569506e-05 1.858537e-05 1.611986e-05 9.042839e-06 6.996901e-06 -9.986011e-08 -1.778858e-06 -8.873943e-06 -1.006140e-05 -1.706521e-05 -1.745796e-05 -2.422204e-05 -2.337181e-05 -2.969284e-05 -2.707164e-05 -3.268567e-05 -2.777175e-05 -3.233943e-05 -2.469839e-05 -2.777780e-05 -1.709862e-05 -1.809495e-05 -4.145874e-06 -2.240516e-06 1.524455e-05 2.113920e-05 4.256391e-05 5.373656e-05 7.962113e-05 9.731305e-05 1.280897e-04 1.530980e-04 1.887870e-04 2.210704e-04 2.610032e-04 2.994836e-04 3.422356e-04 3.849096e-04 4.285017e-04 4.728363e-04 5.151317e-04 5.585996e-04 5.977477e-04 6.383232e-04 6.731046e-04 7.095836e-04 7.395681e-04 7.716512e-04 7.971512e-04 8.253060e-04 8.471665e-04 8.723359e-04 8.916348e-04 9.148839e-04 9.326276e-04 9.548238e-04 9.717144e-04 9.933150e-04 1.009637e-03 1.030623e-03 1.046254e-03 1.066193e-03 1.080688e-03 1.098883e-03 1.111576e-03 1.127228e-03 1.137299e-03 1.149654e-03 1.156163e-03 1.164631e-03 1.166554e-03 1.170787e-03 1.167097e-03 1.167014e-03 1.156852e-03 1.152627e-03 1.135552e-03 1.127564e-03 1.103840e-03 1.092609e-03 1.063376e-03 1.049440e-03 1.016608e-03 1.000346e-03 9.661536e-04 9.475966e-04 9.139770e-04 8.927435e-04 8.608072e-04 8.362695e-04 8.061413e-04 7.777864e-04 7.488498e-04 7.166644e-04 6.880468e-04 6.527273e-04 6.237713e-04 5.866571e-04 5.571850e-04 5.199573e-04 4.902777e-04 4.545702e-04 4.253065e-04 3.923873e-04 3.642560e-04 3.348743e-04 3.085145e-04 2.829155e-04 2.588039e-04 2.368499e-04 2.152860e-04 1.966097e-04 1.777374e-04 1.618732e-04 1.457112e-04 1.321815e-04 
1.218267e-04 1.080045e-04 9.465708e-05 8.254528e-05 7.180882e-05 6.100474e-05 5.253395e-05 4.268279e-05 3.608569e-05 2.687533e-05 2.173445e-05 1.289820e-05 8.804404e-06 1.331496e-07 -3.264619e-06 -1.190411e-05 -1.483725e-05 -2.348645e-05 -2.600702e-05 -3.461241e-05 -3.655440e-05 -4.497903e-05 -4.595545e-05 -5.399470e-05 -5.343526e-05 -6.082226e-05 -5.805124e-05 -6.445037e-05 -5.879963e-05 -6.379905e-05 -5.473208e-05 -5.783439e-05 -4.502365e-05 -4.560747e-05 -2.889738e-05 -2.612804e-05 -5.372426e-06 1.895470e-06 2.702232e-05 4.022697e-05 7.027372e-05 9.089178e-05 1.264141e-04 1.554803e-04 1.966281e-04 2.342180e-04 2.803490e-04 3.252905e-04 3.748437e-04 4.248272e-04 4.755469e-04 5.276042e-04 5.770211e-04 6.281837e-04 6.741550e-04 7.220572e-04 7.631792e-04 8.064346e-04 8.422208e-04 8.805051e-04 9.113173e-04 9.451885e-04 9.719783e-04 1.002520e-03 1.026472e-03 1.054873e-03 1.077056e-03 1.104242e-03 1.125344e-03 1.151743e-03 1.171972e-03 1.197457e-03 1.216577e-03 1.240572e-03 1.258027e-03 1.279688e-03 1.294729e-03 1.313134e-03 1.324877e-03 1.339191e-03 1.346619e-03 1.356212e-03 1.358175e-03 1.362702e-03 1.357987e-03 1.357414e-03 1.344936e-03 1.339522e-03 1.318668e-03 1.308926e-03 1.279967e-03 1.266602e-03 1.230973e-03 1.214747e-03 1.174934e-03 1.156408e-03 1.115337e-03 1.094571e-03 1.054723e-03 1.031146e-03 9.938353e-04 9.664666e-04 9.316428e-04 8.996029e-04 8.662372e-04 8.293124e-04 7.960998e-04 7.550530e-04 7.210669e-04 6.775521e-04 6.425803e-04 5.987262e-04 5.632377e-04 5.211153e-04 4.859879e-04 4.471844e-04 4.133855e-04 3.788120e-04 3.471693e-04 3.170957e-04 2.881968e-04 2.624224e-04 2.366125e-04 2.146690e-04 1.920931e-04 1.734102e-04 1.540615e-04 1.380694e-04 