# vtk DataFile Version 2.0
Comment goes here
ASCII

DATASET STRUCTURED_POINTS
FIELD FieldData 1
TIME 1 1 double
0.08000000
DIMENSIONS    128   128   1

ORIGIN    0.000   0.000   0.000
SPACING   0.039062 0.039062   1.000

POINT_DATA   16384
SCALARS Omega double
LOOKUP_TABLE default

1.221277e-14 2.790725e-14 3.095320e-14 3.373279e-14 2.589596e-14 2.997316e-14 2.659149e-14 3.760993e-14 4.402697e-14 4.091495e-14 2.994770e-14 2.459568e-14 1.249457e-14 -2.916610e-15 -9.924353e-15 -2.209162e-14 -3.579133e-14 -6.657667e-14 -7.488141e-14 -4.885349e-14 -3.547891e-14 -5.807704e-14 -5.553488e-14 -6.081406e-14 -2.976847e-14 -1.158178e-14 -1.164555e-14 -6.262217e-16 -1.798630e-14 1.134152e-14 -1.025929e-14 -3.248788e-14 -4.731608e-14 -2.883497e-14 -4.764131e-14 -2.308461e-14 -2.965511e-14 -2.165714e-14 -2.601128e-14 -6.470883e-15 -3.517102e-15 -2.970117e-15 -3.981931e-14 -1.880145e-14 -3.571035e-14 -4.382633e-14 -2.067941e-14 -1.529789e-14 1.798609e-14 -1.710404e-15 2.704684e-14 3.884726e-14 3.016329e-14 1.057131e-14 9.546263e-14 2.148295e-14 5.477592e-14 6.891312e-14 6.764895e-14 4.451730e-14 2.333444e-14 -1.759399e-14 6.721716e-15 -5.168202e-15 -1.078391e-14 -3.924943e-14 -7.005246e-14 -7.548211e-14 -5.883062e-14 -5.021586e-14 -3.008704e-14 -2.981109e-14 1.558313e-14 -4.100730e-14 4.202329e-15 5.699266e-16 -4.927480e-15 -2.634915e-14 -3.648509e-14 -3.278522e-14 9.678390e-16 3.075944e-14 2.270534e-14 5.217354e-14 3.472348e-14 6.873093e-14 5.902328e-14 2.577202e-14 7.690262e-14 2.968043e-14 4.007307e-14 7.228130e-14 4.413345e-14 5.622379e-14 6.818784e-14 3.555288e-14 9.762800e-14 1.073078e-13 2.512034e-14 -1.069039e-15 -1.967079e-14 -4.300342e-14 -2.112919e-14 -7.301179e-14 1.152963e-14 -4.693944e-15 -3.392979e-14 -2.585642e-14 3.109253e-15 7.840272e-15 -1.655291e-14 -1.334108e-14 -5.614688e-15 3.910543e-14 -2.593054e-14 -3.360546e-14 -2.185120e-14 -3.081419e-14 -2.360154e-14 -3.330320e-14 -4.102342e-14 -4.486883e-14 -1.357166e-14 -9.039990e-16 -1.923867e-15 -1.362375e-14 -1.776232e-14 -1.363084e-14 
6.110804e-06 5.686669e-06 5.720732e-06 5.498146e-06 5.518966e-06 5.465483e-06 5.479000e-06 5.557149e-06 5.570499e-06 5.737855e-06 5.760336e-06 5.970471e-06 6.013836e-06 6.218147e-06 6.296296e-06 6.446632e-06 6.574869e-06 6.626793e-06 6.820903e-06 6.737353e-06 7.012779e-06 6.767824e-06 7.139268e-06 6.721610e-06 7.203260e-06 6.619103e-06 7.225549e-06 6.500385e-06 7.247987e-06 6.426810e-06 7.334948e-06 6.480340e-06 7.571691e-06 6.759282e-06 8.058193e-06 7.369246e-06 8.897613e-06 8.409060e-06 1.017987e-05 9.952962e-06 1.196271e-05 1.203230e-05 1.425433e-05 1.462136e-05 1.700264e-05 1.763205e-05 2.009521e-05 2.092044e-05 2.337159e-05 2.430521e-05 2.664631e-05 2.759466e-05 2.973770e-05 3.061613e-05 3.249586e-05 3.324146e-05 3.482361e-05 3.540270e-05 3.668605e-05 3.709566e-05 3.810793e-05 3.837157e-05 3.916048e-05 3.931991e-05 3.994181e-05 4.004699e-05 4.055559e-05 4.065471e-05 4.109205e-05 4.122322e-05 4.161436e-05 4.179979e-05 4.215167e-05 4.239436e-05 4.269871e-05 4.298151e-05 4.322076e-05 4.350715e-05 4.366224e-05 4.389845e-05 4.395701e-05 4.407520e-05 4.403879e-05 4.396130e-05 4.385028e-05 4.349517e-05 4.335023e-05 4.263815e-05 4.251767e-05 4.138000e-05 4.135309e-05 3.974054e-05 3.987658e-05 3.776721e-05 3.812352e-05 3.552863e-05 3.613871e-05 3.310521e-05 3.397047e-05 3.057877e-05 3.166613e-05 2.802321e-05 2.926966e-05 2.549837e-05 2.682162e-05 2.304786e-05 2.436055e-05 2.070067e-05 2.192461e-05 1.847537e-05 1.955240e-05 1.638505e-05 1.728253e-05 1.444159e-05 1.515205e-05 1.265806e-05 1.319440e-05 1.104928e-05 1.143736e-05 9.630549e-06 9.901629e-06 8.415518e-06 8.600029e-06 7.413806e-06 7.537410e-06 6.628964e-06 6.710959e-06 6.057159e-06 
1.234559e-05 1.156376e-05 1.159100e-05 1.120874e-05 1.122314e-05 1.117384e-05 1.118510e-05 1.139247e-05 1.141237e-05 1.179042e-05 1.183490e-05 1.228975e-05 1.237955e-05 1.281306e-05 1.297328e-05 1.328834e-05 1.354714e-05 1.365435e-05 1.404131e-05 1.386652e-05 1.441123e-05 1.390324e-05 1.463470e-05 1.377240e-05 1.471956e-05 1.351769e-05 1.471121e-05 1.322377e-05 1.469862e-05 1.301905e-05 1.481675e-05 1.307374e-05 1.524259e-05 1.359068e-05 1.618220e-05 1.478660e-05 1.784695e-05 1.686342e-05 2.042021e-05 1.997219e-05 2.401907e-05 2.417627e-05 2.865956e-05 2.942300e-05 3.423529e-05 3.553330e-05 4.051783e-05 4.221546e-05 4.718216e-05 4.910271e-05 5.385348e-05 5.580795e-05 6.016553e-05 6.198321e-05 6.581686e-05 6.737055e-05 7.061258e-05 7.183333e-05 7.448306e-05 7.536261e-05 7.747756e-05 7.805951e-05 7.973685e-05 8.009989e-05 8.145282e-05 8.169058e-05 8.282481e-05 8.302621e-05 8.402124e-05 8.425458e-05 8.515266e-05 8.545503e-05 8.625929e-05 8.663156e-05 8.731292e-05 8.771948e-05 8.823063e-05 8.860254e-05 8.889614e-05 8.913628e-05 8.918417e-05 8.917338e-05 8.898295e-05 8.858696e-05 8.821154e-05 8.728899e-05 8.682939e-05 8.524176e-05 8.483776e-05 8.246172e-05 8.227382e-05 7.901574e-05 7.919984e-05 7.501100e-05 7.569033e-05 7.058010e-05 7.182028e-05 6.586406e-05 6.765722e-05 6.099618e-05 6.325870e-05 5.608985e-05 5.867516e-05 5.123260e-05 5.395657e-05 4.648689e-05 4.915966e-05 4.189628e-05 4.435284e-05 3.749425e-05 3.961675e-05 3.331254e-05 3.504028e-05 2.938668e-05 3.071354e-05 2.575749e-05 2.671993e-05 2.246896e-05 2.312928e-05 1.956370e-05 1.999336e-05 1.707748e-05 1.734395e-05 1.503429e-05 1.519300e-05 1.344279e-05 1.353429e-05 1.229452e-05 
1.817515e-05 1.688067e-05 1.695666e-05 1.627251e-05 1.631211e-05 1.614103e-05 1.616144e-05 1.639090e-05 1.641325e-05 1.691545e-05 1.696784e-05 1.760244e-05 1.772085e-05 1.834049e-05 1.856782e-05 1.902610e-05 1.940985e-05 1.957132e-05 2.016051e-05 1.991199e-05 2.075444e-05 2.001652e-05 2.115725e-05 1.989513e-05 2.137676e-05 1.960900e-05 2.147440e-05 1.927842e-05 2.157496e-05 1.908777e-05 2.187156e-05 1.928412e-05 2.262158e-05 2.016515e-05 2.412878e-05 2.205254e-05 2.670896e-05 2.524955e-05 3.063983e-05 2.998639e-05 3.610254e-05 3.636347e-05 4.312734e-05 4.430669e-05 5.155934e-05 5.355002e-05 6.105733e-05 6.365495e-05 7.113142e-05 7.406705e-05 8.121379e-05 8.419911e-05 9.074769e-05 9.352217e-05 9.927374e-05 1.016436e-04 1.064942e-04 1.083555e-04 1.123025e-04 1.136452e-04 1.167739e-04 1.176687e-04 1.201250e-04 1.206981e-04 1.226533e-04 1.230550e-04 1.246711e-04 1.250460e-04 1.264482e-04 1.269099e-04 1.281703e-04 1.287841e-04 1.299191e-04 1.306929e-04 1.316721e-04 1.325535e-04 1.333186e-04 1.341975e-04 1.346864e-04 1.354013e-04 1.355734e-04 1.359202e-04 1.357790e-04 1.355228e-04 1.351316e-04 1.340226e-04 1.335091e-04 1.313033e-04 1.308524e-04 1.273360e-04 1.271679e-04 1.221853e-04 1.225227e-04 1.160020e-04 1.170304e-04 1.090038e-04 1.108333e-04 1.014456e-04 1.040834e-04 9.358622e-05 9.692833e-05 8.565812e-05 8.950367e-05 7.784747e-05 8.193335e-05 7.028712e-05 7.433436e-05 6.306229e-05 6.682247e-05 5.622463e-05 5.951499e-05 4.980881e-05 5.252940e-05 4.384652e-05 4.597829e-05 3.837450e-05 3.996271e-05 3.343600e-05 3.456601e-05 2.907680e-05 2.984951e-05 2.533829e-05 2.585042e-05 2.224982e-05 2.258176e-05 1.982236e-05 2.003363e-05 1.804445e-05 
2.433915e-05 2.273687e-05 2.273948e-05 2.194728e-05 2.193170e-05 2.181655e-05 2.180067e-05 2.220977e-05 2.221643e-05 2.297679e-05 2.303807e-05 2.395979e-05 2.411848e-05 2.500205e-05 2.531058e-05 2.595767e-05 2.647526e-05 2.670260e-05 2.749156e-05 2.714661e-05 2.826893e-05 2.724597e-05 2.876139e-05 2.701640e-05 2.898293e-05 2.654550e-05 2.902277e-05 2.600314e-05 2.905787e-05 2.564743e-05 2.935889e-05 2.582189e-05 3.028376e-05 2.693847e-05 3.225302e-05 2.944101e-05 3.570269e-05 3.374743e-05 4.101600e-05 4.017530e-05 4.844329e-05 4.886418e-05 5.802793e-05 5.971466e-05 6.955951e-05 7.236474e-05 8.257287e-05 8.621689e-05 9.640018e-05 1.005160e-04 1.102684e-04 1.144632e-04 1.234212e-04 1.273403e-04 1.352363e-04 1.386153e-04 1.453118e-04 1.480071e-04 1.535050e-04 1.554980e-04 1.599173e-04 1.612954e-04 1.648366e-04 1.657587e-04 1.686530e-04 1.693068e-04 1.717676e-04 1.723301e-04 1.745141e-04 1.751193e-04 1.771042e-04 1.778222e-04 1.796038e-04 1.804323e-04 1.819394e-04 1.828039e-04 1.839283e-04 1.846895e-04 1.853247e-04 1.857885e-04 1.858702e-04 1.857993e-04 1.853407e-04 1.844663e-04 1.835804e-04 1.816166e-04 1.805203e-04 1.771824e-04 1.761787e-04 1.712078e-04 1.706471e-04 1.638415e-04 1.640664e-04 1.553154e-04 1.565992e-04 1.459151e-04 1.484059e-04 1.359434e-04 1.396281e-04 1.256858e-04 1.303837e-04 1.153838e-04 1.207747e-04 1.052205e-04 1.109012e-04 9.532235e-05 1.008788e-04 8.577327e-05 9.084851e-05 7.663450e-05 8.097836e-05 6.796393e-05 7.145362e-05 5.982868e-05 6.246119e-05 5.230866e-05 5.417225e-05 4.549190e-05 4.672797e-05 3.946455e-05 4.023071e-05 3.429911e-05 3.474095e-05 3.004401e-05 3.027867e-05 2.671632e-05 2.682738e-05 2.429819e-05 
2.974416e-05 2.751252e-05 2.754993e-05 2.635447e-05 2.634235e-05 2.602137e-05 2.598611e-05 2.635174e-05 2.632748e-05 2.716497e-05 2.719915e-05 2.827104e-05 2.842612e-05 2.948147e-05 2.983316e-05 3.062126e-05 3.125422e-05 3.154204e-05 3.254403e-05 3.213602e-05 3.359212e-05 3.235058e-05 3.433931e-05 3.220323e-05 3.479613e-05 3.179643e-05 3.506188e-05 3.133096e-05 3.534183e-05 3.111499e-05 3.595744e-05 3.156376e-05 3.734234e-05 3.318215e-05 4.001544e-05 3.652243e-05 4.452445e-05 4.211323e-05 5.136006e-05 5.036472e-05 6.085237e-05 6.146702e-05 7.307221e-05 7.530804e-05 8.776677e-05 9.143889e-05 1.043543e-04 1.091055e-04 1.219884e-04 1.273475e-04 1.396831e-04 1.451441e-04 1.564695e-04 1.615754e-04 1.715485e-04 1.759595e-04 1.844032e-04 1.879361e-04 1.948490e-04 1.974837e-04 2.030162e-04 2.048713e-04 2.092762e-04 2.105643e-04 2.141348e-04 2.151084e-04 2.181173e-04 2.190166e-04 2.216685e-04 2.226797e-04 2.250846e-04 2.263115e-04 2.284806e-04 2.299309e-04 2.317950e-04 2.333777e-04 2.348200e-04 2.363503e-04 2.372501e-04 2.384588e-04 2.387362e-04 2.392821e-04 2.389386e-04 2.384249e-04 2.375720e-04 2.355699e-04 2.344405e-04 2.305222e-04 2.294575e-04 2.232398e-04 2.226521e-04 2.138470e-04 2.141588e-04 2.026251e-04 2.041937e-04 1.899781e-04 1.930217e-04 1.763793e-04 1.809214e-04 1.623076e-04 1.681581e-04 1.481890e-04 1.549706e-04 1.343567e-04 1.415725e-04 1.210386e-04 1.281634e-04 1.083695e-04 1.149402e-04 9.642038e-05 1.021041e-04 8.523234e-05 8.985665e-05 7.484440e-05 7.839061e-05 6.530912e-05 6.787711e-05 5.669490e-05 5.845475e-05 4.907792e-05 5.022267e-05 4.252868e-05 4.323804e-05 3.709778e-05 3.751702e-05 3.280443e-05 3.303775e-05 2.962939e-05 
3.557916e-05 3.307838e-05 3.294902e-05 3.169056e-05 3.155254e-05 3.133769e-05 3.121366e-05 3.181294e-05 3.173505e-05 3.288643e-05 3.290334e-05 3.431655e-05 3.449578e-05 3.586315e-05 3.628927e-05 3.730265e-05 3.807234e-05 3.844513e-05 3.966053e-05 3.915290e-05 4.091487e-05 3.935979e-05 4.176313e-05 3.909018e-05 4.222279e-05 3.847695e-05 4.242401e-05 3.777674e-05 4.262960e-05 3.737968e-05 4.324652e-05 3.780794e-05 4.482047e-05 3.969420e-05 4.800301e-05 4.373019e-05 5.348227e-05 5.057944e-05 6.187684e-05 6.075977e-05 7.360625e-05 7.451596e-05 8.876699e-05 9.171623e-05 1.070511e-04 1.118083e-04 1.277395e-04 1.338592e-04 1.497833e-04 1.566788e-04 1.719608e-04 1.790040e-04 1.930743e-04 1.996986e-04 2.121393e-04 2.179229e-04 2.285229e-04 2.332357e-04 2.420020e-04 2.456112e-04 2.527375e-04 2.553756e-04 2.611788e-04 2.630871e-04 2.679270e-04 2.693884e-04 2.735897e-04 2.748662e-04 2.786577e-04 2.799416e-04 2.834217e-04 2.848063e-04 2.879405e-04 2.894097e-04 2.920571e-04 2.934896e-04 2.954520e-04 2.966347e-04 2.977208e-04 2.983641e-04 2.984558e-04 2.982080e-04 2.973195e-04 2.957798e-04 2.940962e-04 2.908298e-04 2.887158e-04 2.832771e-04 2.812490e-04 2.732179e-04 2.718796e-04 2.609134e-04 2.608622e-04 2.467585e-04 2.484777e-04 2.312345e-04 2.349935e-04 2.148519e-04 2.206389e-04 1.980907e-04 2.055985e-04 1.813523e-04 1.900262e-04 1.649330e-04 1.740728e-04 1.490260e-04 1.579161e-04 1.337468e-04 1.417797e-04 1.191708e-04 1.259340e-04 1.053691e-04 1.106775e-04 9.243201e-05 9.630884e-05 8.047509e-05 8.309595e-05 6.963091e-05 7.125372e-05 6.003135e-05 6.093142e-05 5.178761e-05 5.221056e-05 4.497310e-05 4.510975e-05 3.961209e-05 3.959308e-05 3.567490e-05 
4.040935e-05 3.712718e-05 3.698534e-05 3.519375e-05 3.500586e-05 3.447978e-05 3.427716e-05 3.475312e-05 3.458085e-05 3.575449e-05 3.568006e-05 3.721125e-05 3.732744e-05 3.885314e-05 3.927538e-05 4.042978e-05 4.128923e-05 4.172996e-05 4.316360e-05 4.260178e-05 4.474188e-05 4.297316e-05 4.593871e-05 4.287167e-05 4.676494e-05 4.244363e-05 4.735399e-05 4.197162e-05 4.798704e-05 4.188838e-05 4.911146e-05 4.278051e-05 5.134194e-05 4.537113e-05 5.543015e-05 5.046678e-05 6.218920e-05 5.885872e-05 7.236908e-05 7.118202e-05 8.649768e-05 8.775695e-05 1.047233e-04 1.084553e-04 1.267065e-04 1.326383e-04 1.516045e-04 1.591989e-04 1.781653e-04 1.867100e-04 2.049181e-04 2.136484e-04 2.304145e-04 2.386404e-04 2.534613e-04 2.606699e-04 2.732897e-04 2.792038e-04 2.896279e-04 2.942129e-04 3.026702e-04 3.060946e-04 3.129609e-04 3.155277e-04 3.212304e-04 3.232955e-04 3.282221e-04 3.301183e-04 3.345459e-04 3.365234e-04 3.405814e-04 3.427711e-04 3.464394e-04 3.488378e-04 3.519767e-04 3.544467e-04 3.568498e-04 3.591297e-04 3.605898e-04 3.623049e-04 3.626822e-04 3.633563e-04 3.626413e-04 3.617113e-04 3.600721e-04 3.569133e-04 3.547168e-04 3.486855e-04 3.464830e-04 3.369812e-04 3.354519e-04 3.220099e-04 3.218638e-04 3.042308e-04 3.060825e-04 2.843046e-04 2.885428e-04 2.630068e-04 2.696934e-04 2.411197e-04 2.499501e-04 2.193291e-04 2.296747e-04 1.981539e-04 2.091803e-04 1.779246e-04 1.887538e-04 1.588095e-04 1.686804e-04 1.408701e-04 1.492540e-04 1.241237e-04 1.307712e-04 1.085936e-04 1.135141e-04 9.433448e-05 9.772795e-05 8.143508e-05 8.360516e-05 7.000281e-05 7.127622e-05 6.014023e-05 6.080881e-05 5.192170e-05 5.221183e-05 4.537540e-05 4.544178e-05 4.047309e-05 
4.556595e-05 4.204746e-05 4.161584e-05 3.980434e-05 3.939547e-05 3.902838e-05 3.866345e-05 3.943480e-05 3.915211e-05 4.070793e-05 4.057320e-05 4.251598e-05 4.262577e-05 4.452883e-05 4.500781e-05 4.643908e-05 4.743245e-05 4.798646e-05 4.964884e-05 4.898403e-05 5.146735e-05 4.934465e-05 5.278776e-05 4.910552e-05 5.362914e-05 4.844980e-05 5.415974e-05 4.772493e-05 5.472468e-05 4.745613e-05 5.586597e-05 4.834964e-05 5.832420e-05 5.127337e-05 6.300482e-05 5.719716e-05 7.089126e-05 6.707817e-05 8.289754e-05 8.169288e-05 9.967612e-05 1.014442e-04 1.214247e-04 1.261966e-04 1.477523e-04 1.551984e-04 1.776583e-04 1.871317e-04 2.096484e-04 2.202934e-04 2.419663e-04 2.528671e-04 2.728869e-04 2.832193e-04 3.009956e-04 3.101479e-04 3.253893e-04 3.330278e-04 3.457561e-04 3.518293e-04 3.623312e-04 3.670195e-04 3.757503e-04 3.793813e-04 3.868468e-04 3.897980e-04 3.964401e-04 3.990508e-04 4.051605e-04 4.076655e-04 4.133363e-04 4.158305e-04 4.209592e-04 4.233910e-04 4.277201e-04 4.299054e-04 4.330987e-04 4.347442e-04 4.364818e-04 4.372069e-04 4.372855e-04 4.366357e-04 4.350594e-04 4.325126e-04 4.295556e-04 4.245281e-04 4.207534e-04 4.126188e-04 4.088396e-04 3.969745e-04 3.941568e-04 3.780201e-04 3.771345e-04 3.563741e-04 3.582215e-04 3.327866e-04 3.378299e-04 3.080550e-04 3.162991e-04 2.829293e-04 2.938891e-04 2.580283e-04 2.708047e-04 2.337911e-04 2.472448e-04 2.104786e-04 2.234543e-04 1.882187e-04 1.997565e-04 1.670740e-04 1.765519e-04 1.471051e-04 1.542837e-04 1.284109e-04 1.333877e-04 1.111383e-04 1.142432e-04 9.546644e-05 9.714026e-05 8.157720e-05 8.226551e-05 6.962333e-05 6.970562e-05 5.970286e-05 5.945983e-05 5.184378e-05 5.145612e-05 4.599872e-05 
4.964605e-05 4.515043e-05 4.461836e-05 4.210805e-05 4.155619e-05 4.074500e-05 4.020202e-05 4.075088e-05 4.026886e-05 4.178005e-05 4.144718e-05 4.346954e-05 4.341452e-05 4.545989e-05 4.584855e-05 4.741930e-05 4.844442e-05 4.907050e-05 5.093624e-05 5.021862e-05 5.312220e-05 5.077774e-05 5.489240e-05 5.079428e-05 5.625859e-05 5.046698e-05 5.738557e-05 5.016517e-05 5.862386e-05 5.044629e-05 6.053956e-05 5.206828e-05 6.392928e-05 5.598209e-05 6.979801e-05 6.327918e-05 7.927301e-05 7.507002e-05 9.343804e-05 9.228912e-05 1.131025e-04 1.154584e-04 1.385584e-04 1.444756e-04 1.694041e-04 1.785056e-04 2.045048e-04 2.160295e-04 2.421233e-04 2.550562e-04 2.801967e-04 2.934483e-04 3.166884e-04 3.292785e-04 3.499252e-04 3.611288e-04 3.788382e-04 3.882639e-04 4.030582e-04 4.106521e-04 4.228614e-04 4.288465e-04 4.389953e-04 4.437704e-04 4.524393e-04 4.564638e-04 4.641596e-04 4.678491e-04 4.749076e-04 4.785571e-04 4.850962e-04 4.888384e-04 4.947632e-04 4.985594e-04 5.036109e-04 5.072623e-04 5.110962e-04 5.142613e-04 5.165407e-04 5.187472e-04 5.192393e-04 5.198873e-04 5.185540e-04 5.169170e-04 5.139892e-04 5.092289e-04 5.052481e-04 4.964582e-04 4.922666e-04 4.785606e-04 4.752249e-04 4.558661e-04 4.545310e-04 4.290859e-04 4.307711e-04 3.992528e-04 4.046315e-04 3.675887e-04 3.768050e-04 3.353242e-04 3.479124e-04 3.035188e-04 3.184671e-04 2.729382e-04 2.888911e-04 2.440213e-04 2.595628e-04 2.169333e-04 2.308634e-04 1.916709e-04 2.031963e-04 1.681744e-04 1.769736e-04 1.464131e-04 1.525823e-04 1.264247e-04 1.303483e-04 1.083137e-04 1.105128e-04 9.222254e-05 9.322386e-05 7.829120e-05 7.854145e-05 6.662093e-05 6.644817e-05 5.724828e-05 5.686182e-05 5.013191e-05 
5.365563e-05 4.895652e-05 4.797759e-05 4.549304e-05 4.459594e-05 4.400322e-05 4.319757e-05 4.411522e-05 4.344029e-05 4.541866e-05 4.495749e-05 4.748218e-05 4.736641e-05 4.987570e-05 5.028210e-05 5.219877e-05 5.333831e-05 5.411438e-05 5.621516e-05 5.538556e-05 5.867205e-05 5.591040e-05 6.058295e-05 5.575111e-05 6.197151e-05 5.515539e-05 6.304481e-05 5.457222e-05 6.422647e-05 5.466607e-05 6.618762e-05 5.632873e-05 6.986532e-05 6.067436e-05 7.644334e-05 6.898719e-05 8.726009e-05 8.258774e-05 1.036186e-04 1.026055e-04 1.265111e-04 1.296936e-04 1.563217e-04 1.637671e-04 1.926070e-04 2.038666e-04 2.340454e-04 2.482149e-04 2.785950e-04 2.944723e-04 3.238290e-04 3.401296e-04 3.673602e-04 3.829342e-04 4.072409e-04 4.212410e-04 4.422425e-04 4.542094e-04 4.719575e-04 4.818176e-04 4.967226e-04 5.047101e-04 5.174009e-04 5.239353e-04 5.350894e-04 5.406397e-04 5.508236e-04 5.557883e-04 5.653378e-04 5.699616e-04 5.789240e-04 5.832616e-04 5.914042e-04 5.953260e-04 6.022035e-04 6.054312e-04 6.104957e-04 6.126440e-04 6.153797e-04 6.159869e-04 6.160534e-04 6.145897e-04 6.119567e-04 6.078093e-04 6.028582e-04 5.953101e-04 5.888734e-04 5.770992e-04 5.704142e-04 5.535250e-04 5.480920e-04 5.252512e-04 5.226088e-04 4.932110e-04 4.946603e-04 4.585358e-04 4.648613e-04 4.224405e-04 4.336976e-04 3.860736e-04 4.015161e-04 3.503688e-04 3.685656e-04 3.159541e-04 3.350816e-04 2.831521e-04 3.013798e-04 2.520615e-04 2.679118e-04 2.226806e-04 2.352574e-04 1.950183e-04 2.040588e-04 1.691603e-04 1.749315e-04 1.452810e-04 1.483865e-04 1.236126e-04 1.247849e-04 1.043948e-04 1.043293e-04 8.782500e-05 8.708061e-05 7.402275e-05 7.298656e-05 6.301081e-05 6.191077e-05 5.471209e-05 
5.677105e-05 5.084551e-05 4.962671e-05 4.623388e-05 4.504910e-05 4.384555e-05 4.270852e-05 4.327988e-05 4.224304e-05 4.409325e-05 4.326533e-05 4.582052e-05 4.537334e-05 4.800142e-05 4.816643e-05 5.021321e-05 5.126776e-05 5.210815e-05 5.435237e-05 5.345239e-05 5.717912e-05 5.416029e-05 5.962317e-05 5.431911e-05 6.170711e-05 5.420321e-05 6.363148e-05 5.428365e-05 6.580968e-05 5.524320e-05 6.891070e-05 5.800153e-05 7.390089e-05 6.373525e-05 8.205311e-05 7.385091e-05 9.487138e-05 8.985691e-05 1.138869e-04 1.131062e-04 1.403295e-04 1.444456e-04 1.747525e-04 1.838785e-04 2.167406e-04 2.303729e-04 2.648247e-04 2.819097e-04 3.166584e-04 3.357824e-04 3.694175e-04 3.890664e-04 4.203101e-04 4.391310e-04 4.670563e-04 4.840573e-04 5.082201e-04 5.228713e-04 5.433282e-04 5.555547e-04 5.727729e-04 5.828616e-04 5.975534e-04 6.060066e-04 6.189333e-04 6.263095e-04 6.381004e-04 6.448754e-04 6.558998e-04 6.623726e-04 6.726851e-04 6.789391e-04 6.883014e-04 6.942142e-04 7.021754e-04 7.074549e-04 7.134644e-04 7.176834e-04 7.212147e-04 7.238228e-04 7.244997e-04 7.248055e-04 7.225273e-04 7.196647e-04 7.147220e-04 7.076295e-04 7.007852e-04 6.882337e-04 6.807341e-04 6.614363e-04 6.549186e-04 6.277276e-04 6.240083e-04 5.881776e-04 5.889328e-04 5.443758e-04 5.507667e-04 4.982331e-04 5.105734e-04 4.516758e-04 4.692657e-04 4.063278e-04 4.275451e-04 3.632938e-04 3.859428e-04 3.231120e-04 3.449217e-04 2.858655e-04 3.049691e-04 2.513822e-04 2.666281e-04 2.194350e-04 2.304636e-04 1.898818e-04 1.969956e-04 1.627198e-04 1.666385e-04 1.380699e-04 1.396691e-04 1.161194e-04 1.162252e-04 9.705516e-05 9.632482e-05 8.100796e-05 7.989121e-05 6.801776e-05 6.677516e-05 5.801972e-05 
5.902095e-05 5.293116e-05 5.106784e-05 4.775358e-05 4.606188e-05 4.514643e-05 4.360935e-05 4.463783e-05 4.328770e-05 4.571035e-05 4.464702e-05 4.781953e-05 4.721735e-05 5.042039e-05 5.052472e-05 5.300485e-05 5.411798e-05 5.514936e-05 5.760591e-05 5.656750e-05 6.070096e-05 5.715785e-05 6.326295e-05 5.703693e-05 6.533657e-05 5.655239e-05 6.718120e-05 5.628276e-05 6.930008e-05 5.704066e-05 7.247979e-05 5.989425e-05 7.783882e-05 6.619761e-05 8.685234e-05 7.758010e-05 1.012862e-04 9.581903e-05 1.229727e-04 1.225460e-04 1.534202e-04 1.588225e-04 1.933504e-04 2.047182e-04 2.423303e-04 2.590657e-04 2.986616e-04 3.195161e-04 3.595964e-04 3.829020e-04 4.218256e-04 4.458079e-04 4.820943e-04 5.051802e-04 5.377708e-04 5.588163e-04 5.872281e-04 6.056241e-04 6.299639e-04 6.456161e-04 6.664666e-04 6.796754e-04 6.978911e-04 7.091754e-04 7.256433e-04 7.355531e-04 7.509715e-04 7.599289e-04 7.746479e-04 7.828461e-04 7.967998e-04 8.041735e-04 8.169072e-04 8.231694e-04 8.339457e-04 8.386638e-04 8.466178e-04 8.492903e-04 8.536115e-04 8.537150e-04 8.538419e-04 8.508265e-04 8.466444e-04 8.398786e-04 8.318854e-04 8.205721e-04 8.099636e-04 7.930758e-04 7.816990e-04 7.579984e-04 7.481532e-04 7.163484e-04 7.104528e-04 6.694991e-04 6.696596e-04 6.191317e-04 6.266833e-04 5.670932e-04 5.822166e-04 5.151514e-04 5.367103e-04 4.647216e-04 4.904329e-04 4.166896e-04 4.436221e-04 3.714097e-04 3.966596e-04 3.288636e-04 3.501724e-04 2.888877e-04 3.050075e-04 2.513699e-04 2.621016e-04 2.163538e-04 2.223191e-04 1.840437e-04 1.863263e-04 1.547408e-04 1.545374e-04 1.287562e-04 1.271246e-04 1.063344e-04 1.040654e-04 8.760574e-05 8.520149e-05 7.256793e-05 7.028672e-05 6.109064e-05 
6.090886e-05 5.327852e-05 5.096952e-05 4.648547e-05 4.429352e-05 4.256024e-05 4.046579e-05 4.099398e-05 3.903931e-05 4.122801e-05 3.954035e-05 4.267725e-05 4.147958e-05 4.476234e-05 4.437158e-05 4.695340e-05 4.776433e-05 4.882426e-05 5.127744e-05 5.010965e-05 5.464461e-05 5.075285e-05 5.775191e-05 5.093016e-05 6.066503e-05 5.104709e-05 6.364596e-05 5.171791e-05 6.717374e-05 5.375814e-05 7.199247e-05 5.822046e-05 7.919606e-05 6.647117e-05 9.031202e-05 8.024130e-05 1.072878e-04 1.015364e-04 1.322693e-04 1.323148e-04 1.671376e-04 1.739628e-04 2.129156e-04 2.267394e-04 2.692722e-04 2.894318e-04 3.343462e-04 3.593897e-04 4.049885e-04 4.329554e-04 4.773500e-04 5.061525e-04 5.476286e-04 5.754230e-04 6.127533e-04 6.382107e-04 6.708358e-04 6.932627e-04 7.213032e-04 7.406106e-04 7.647274e-04 7.812842e-04 8.024365e-04 8.168587e-04 8.360259e-04 8.489580e-04 8.668911e-04 8.788230e-04 8.958767e-04 9.070328e-04 9.231112e-04 9.334267e-04 9.480413e-04 9.572153e-04 9.696185e-04 9.772025e-04 9.865477e-04 9.920157e-04 9.975104e-04 1.000272e-03 1.001325e-03 1.000669e-03 9.970555e-04 9.920451e-04 9.840837e-04 9.734544e-04 9.621698e-04 9.443024e-04 9.314915e-04 9.045305e-04 8.926707e-04 8.548219e-04 8.467786e-04 7.967507e-04 7.952824e-04 7.327571e-04 7.398804e-04 6.658539e-04 6.822301e-04 5.990936e-04 6.236788e-04 5.349847e-04 5.651509e-04 4.751015e-04 5.072512e-04 4.200271e-04 4.504904e-04 3.695944e-04 3.954721e-04 3.232700e-04 3.429380e-04 2.805102e-04 2.936785e-04 2.409804e-04 2.483962e-04 2.046178e-04 2.076006e-04 1.715742e-04 1.715714e-04 1.421053e-04 1.403809e-04 1.164585e-04 1.139439e-04 9.479276e-05 9.206830e-05 7.713665e-05 7.449290e-05 6.337877e-05 
6.062694e-05 5.288515e-05 4.968387e-05 4.534269e-05 4.243131e-05 4.106836e-05 3.838277e-05 3.947270e-05 3.702695e-05 3.991485e-05 3.782325e-05 4.171828e-05 4.020586e-05 4.420003e-05 4.360148e-05 4.671994e-05 4.746440e-05 4.875002e-05 5.132856e-05 4.995466e-05 5.486963e-05 5.026246e-05 5.796280e-05 4.990570e-05 6.072006e-05 4.941264e-05 6.350036e-05 4.956209e-05 6.690955e-05 5.134224e-05 7.182932e-05 5.596923e-05 7.950769e-05 6.498422e-05 9.168231e-05 8.035622e-05 1.106142e-04 1.044297e-04 1.388669e-04 1.395709e-04 1.787585e-04 1.875267e-04 2.316182e-04 2.487180e-04 2.971501e-04 3.217921e-04 3.732035e-04 4.036589e-04 4.560751e-04 4.900259e-04 5.412410e-04 5.762424e-04 6.242665e-04 6.581850e-04 7.016197e-04 7.329386e-04 7.711849e-04 7.991239e-04 8.323865e-04 8.568441e-04 8.859526e-04 9.073181e-04 9.334307e-04 9.523312e-04 9.765965e-04 9.936407e-04 1.016893e-03 1.032460e-03 1.055008e-03 1.069129e-03 1.090684e-03 1.103029e-03 1.122774e-03 1.132754e-03 1.149512e-03 1.156425e-03 1.168872e-03 1.172052e-03 1.178947e-03 1.177835e-03 1.178263e-03 1.172390e-03 1.166050e-03 1.154914e-03 1.142397e-03 1.125257e-03 1.108234e-03 1.083910e-03 1.065104e-03 1.031906e-03 1.014820e-03 9.707429e-04 9.591667e-04 9.023916e-04 8.997484e-04 8.293296e-04 8.379206e-04 7.543959e-04 7.746969e-04 6.803735e-04 7.106623e-04 6.094516e-04 6.460403e-04 5.428679e-04 5.809739e-04 4.809165e-04 5.158779e-04 4.232728e-04 4.516348e-04 3.694295e-04 3.895228e-04 3.190421e-04 3.309445e-04 2.720813e-04 2.771228e-04 2.288032e-04 2.289015e-04 1.896147e-04 1.866940e-04 1.549208e-04 1.505472e-04 1.250094e-04 1.202527e-04 9.999433e-05 9.545547e-05 7.980799e-05 7.573055e-05 6.422305e-05 
6.097574e-05 5.130271e-05 4.736304e-05 4.153122e-05 3.781675e-05 3.538300e-05 3.181596e-05 3.221516e-05 2.881204e-05 3.132987e-05 2.823032e-05 3.199593e-05 2.948036e-05 3.348521e-05 3.197918e-05 3.513154e-05 3.519124e-05 3.641198e-05 3.868425e-05 3.703828e-05 4.219174e-05 3.703257e-05 4.566437e-05 3.675547e-05 4.928895e-05 3.686601e-05 5.346774e-05 3.822804e-05 5.878483e-05 4.182714e-05 6.602455e-05 4.879107e-05 7.630765e-05 6.056206e-05 9.132628e-05 7.913298e-05 1.135080e-04 1.071080e-04 1.458483e-04 1.473422e-04 1.912650e-04 2.021383e-04 2.516274e-04 2.722981e-04 3.268819e-04 3.564837e-04 4.146986e-04 4.512137e-04 5.108172e-04 5.515079e-04 6.099468e-04 6.519285e-04 7.068864e-04 7.476601e-04 7.975112e-04 8.353248e-04 8.793776e-04 9.133574e-04 9.518487e-04 9.819162e-04 1.015789e-03 1.042427e-03 1.072975e-03 1.096927e-03 1.125397e-03 1.147365e-03 1.174617e-03 1.195021e-03 1.221307e-03 1.240152e-03 1.265076e-03 1.281966e-03 1.304617e-03 1.318894e-03 1.338080e-03 1.349016e-03 1.363490e-03 1.370424e-03 1.379047e-03 1.381413e-03 1.383287e-03 1.380494e-03 1.375153e-03 1.366350e-03 1.354045e-03 1.337860e-03 1.319879e-03 1.294249e-03 1.273110e-03 1.235369e-03 1.214778e-03 1.162092e-03 1.146557e-03 1.076676e-03 1.070766e-03 9.828837e-04 9.901511e-04 8.855572e-04 9.073813e-04 7.896460e-04 8.244799e-04 6.990893e-04 7.425952e-04 6.160983e-04 6.622635e-04 5.411253e-04 5.839287e-04 4.733993e-04 5.083258e-04 4.116736e-04 4.365210e-04 3.548490e-04 3.696776e-04 3.023000e-04 3.087666e-04 2.539072e-04 2.543877e-04 2.099022e-04 2.067481e-04 1.706543e-04 1.657458e-04 1.364893e-04 1.310846e-04 1.075804e-04 1.023669e-04 8.390828e-05 7.915128e-05 6.526867e-05 
5.723506e-05 4.752479e-05 4.238046e-05 3.677110e-05 3.205260e-05 3.008389e-05 2.565493e-05 2.673371e-05 2.257480e-05 2.593562e-05 2.216890e-05 2.685468e-05 2.376086e-05 2.863381e-05 2.665928e-05 3.045762e-05 3.020399e-05 3.165651e-05 3.384310e-05 3.183742e-05 3.723001e-05 3.100558e-05 4.031231e-05 2.962535e-05 4.337292e-05 2.857666e-05 4.699635e-05 2.900916e-05 5.198199e-05 3.217522e-05 5.929863e-05 3.938870e-05 7.020489e-05 5.222215e-05 8.656152e-05 7.286624e-05 1.111311e-04 1.043241e-04 1.474816e-04 1.500551e-04 1.992324e-04 2.129832e-04 2.688147e-04 2.942612e-04 3.563230e-04 3.924248e-04 4.590503e-04 5.033830e-04 5.719364e-04 6.212421e-04 6.887135e-04 7.396069e-04 8.032906e-04 8.528898e-04 9.109306e-04 9.572580e-04 1.008929e-03 1.051028e-03 1.096704e-03 1.134501e-03 1.175374e-03 1.209386e-03 1.247031e-03 1.278003e-03 1.313899e-03 1.342454e-03 1.377566e-03 1.403926e-03 1.438420e-03 1.462259e-03 1.495443e-03 1.515916e-03 1.546389e-03 1.562342e-03 1.588286e-03 1.598543e-03 1.618004e-03 1.621624e-03 1.632758e-03 1.629170e-03 1.630507e-03 1.619489e-03 1.610328e-03 1.591785e-03 1.572703e-03 1.546258e-03 1.519508e-03 1.484011e-03 1.453576e-03 1.406790e-03 1.377990e-03 1.316771e-03 1.295542e-03 1.216689e-03 1.208623e-03 1.110157e-03 1.119298e-03 1.001642e-03 1.029152e-03 8.956900e-04 9.389780e-04 7.957918e-04 8.487835e-04 7.036449e-04 7.583568e-04 6.192266e-04 6.680350e-04 5.415035e-04 5.791043e-04 4.692888e-04 4.935969e-04 4.018392e-04 4.136983e-04 3.390430e-04 3.411627e-04 2.812809e-04 2.770056e-04 2.291413e-04 2.215064e-04 1.831551e-04 1.744003e-04 1.436318e-04 1.351143e-04 1.106078e-04 1.029546e-04 8.387098e-05 7.721745e-05 6.301999e-05 