# vtk DataFile Version 2.0
Comment goes here
ASCII

DATASET STRUCTURED_POINTS
FIELD FieldData 1
TIME 1 1 double
0.02000000
DIMENSIONS    128   128   1

ORIGIN    0.000   0.000   0.000
SPACING   0.039062 0.039062   1.000

POINT_DATA   16384
SCALARS Omega double
LOOKUP_TABLE default

-2.400263e-14 -2.156863e-14 1.640767e-14 3.433929e-14 4.237411e-14 6.361045e-14 8.450999e-14 5.425890e-14 3.552631e-14 4.532897e-14 2.678099e-14 3.605747e-14 1.312701e-14 1.580864e-14 3.976440e-14 6.918386e-14 5.455901e-14 3.230349e-14 -9.245697e-15 -1.603024e-14 -1.499574e-14 -3.429086e-14 -3.783128e-14 -5.416852e-14 -3.798628e-14 -1.627339e-14 -4.908217e-14 -4.815049e-14 -2.540475e-14 -4.428975e-15 -5.529761e-14 -5.723991e-14 -3.617450e-14 1.351201e-14 4.635426e-14 7.892066e-14 3.114844e-14 -3.386009e-14 -7.912537e-14 -6.511380e-14 -1.091714e-13 -6.218642e-14 -4.295612e-14 8.014771e-15 3.480478e-14 -4.630685e-14 -5.880856e-14 -3.951200e-14 -3.548204e-14 4.001795e-14 8.115110e-14 1.880747e-14 -1.955385e-14 -2.078893e-15 -8.239829e-15 -2.410013e-14 -6.168287e-15 2.544932e-14 6.989098e-14 2.452982e-14 -1.371463e-14 1.246626e-15 4.600736e-14 4.074223e-14 4.779105e-14 2.301674e-14 -1.948361e-14 4.006402e-14 -7.177060e-14 -4.484072e-14 -2.628187e-14 -4.447651e-14 -2.425449e-14 -3.833118e-14 5.884332e-15 1.741014e-14 -1.449394e-14 1.419856e-14 5.190074e-15 -1.579022e-14 -6.941670e-15 -5.142859e-15 1.870351e-14 1.405896e-14 -3.003611e-14 -1.089450e-15 4.140232e-14 8.435667e-14 4.830741e-14 4.892277e-14 1.069029e-13 9.398210e-14 1.069185e-13 3.485399e-14 4.379783e-15 -5.021699e-14 -1.592298e-14 2.582220e-14 5.618474e-14 7.361725e-14 6.145951e-14 3.225336e-15 -1.817502e-14 -4.214287e-14 -6.809690e-14 -6.981274e-14 -4.949572e-14 -5.648550e-15 -1.764962e-14 -2.968170e-14 -7.414372e-15 1.669377e-14 4.328173e-14 6.494959e-14 4.931439e-14 -4.568552e-15 -2.664538e-14 -2.944778e-14 -3.203086e-14 -1.257397e-14 -2.218738e-14 -3.583490e-14 -3.195070e-14 -1.442952e-14 4.896863e-15 1.002397e-15 -2.344633e-15 -2.057007e-14 
-9.464624e-07 -1.638987e-06 -4.779801e-07 -1.538297e-06 5.036440e-08 -1.428557e-06 6.157107e-07 -1.320417e-06 1.187714e-06 -1.226389e-06 1.727890e-06 -1.162004e-06 2.189706e-06 -1.146973e-06 2.519783e-06 -1.205895e-06 2.660608e-06 -1.367804e-06 2.555082e-06 -1.663781e-06 2.153165e-06 -2.122009e-06 1.420637e-06 -2.760150e-06 3.495333e-07 -3.575771e-06 -1.030902e-06 -4.536688e-06 -2.644890e-06 -5.574056e-06 -4.365483e-06 -6.581489e-06 -6.018053e-06 -7.422906e-06 -7.394610e-06 -7.949984e-06 -8.279463e-06 -8.027422e-06 -8.483489e-06 -7.561360e-06 -7.880856e-06 -6.524381e-06 -6.439891e-06 -4.970409e-06 -4.239915e-06 -3.034792e-06 -1.468571e-06 -9.183018e-07 1.601283e-06 1.142225e-06 4.651120e-06 2.910725e-06 7.364844e-06 4.188765e-06 9.475845e-06 4.845289e-06 1.080406e-05 4.834053e-06 1.127683e-05 4.196434e-06 1.093098e-05 3.050270e-06 9.897676e-06 1.567926e-06 8.374349e-06 -5.173458e-08 6.589992e-06 -1.612282e-06 4.770381e-06 -2.944980e-06 3.108791e-06 -3.926983e-06 1.746008e-06 -4.490785e-06 7.612054e-07 -4.624851e-06 1.731172e-07 -4.366798e-06 -5.065381e-08 -3.791357e-06 2.072762e-08 -2.995749e-06 2.975346e-07 -2.084937e-06 6.847714e-07 -1.158742e-06 1.094628e-06 -3.020811e-07 1.455092e-06 4.210764e-07 1.714545e-06 9.701313e-07 1.842811e-06 1.327164e-06 1.829456e-06 1.493955e-06 1.680339e-06 1.487619e-06 1.413314e-06 1.335728e-06 1.053883e-06 1.071613e-06 6.313262e-07 7.303307e-07 1.756124e-07 3.455359e-07 -2.848091e-07 -5.268068e-08 -7.244136e-07 -4.390927e-07 -1.121340e-06 -7.939303e-07 -1.457643e-06 -1.102945e-06 -1.719214e-06 -1.357101e-06 -1.895515e-06 -1.552031e-06 -1.979217e-06 -1.687339e-06 -1.965867e-06 -1.765839e-06 -1.853655e-06 -1.792785e-06 -1.643376e-06 -1.775144e-06 -1.338651e-06 -1.720978e-06 
-3.769566e-06 -5.511934e-06 -3.675212e-06 -6.247828e-06 -3.623432e-06 -7.126865e-06 -3.634789e-06 -8.136060e-06 -3.723454e-06 -9.241701e-06 -3.894148e-06 -1.038763e-05 -4.139069e-06 -1.149573e-05 -4.435426e-06 -1.246929e-05 -4.744413e-06 -1.319944e-05 -5.012592e-06 -1.357471e-05 -5.176338e-06 -1.349308e-05 -5.169404e-06 -1.287544e-05 -4.932607e-06 -1.167886e-05 -4.423621e-06 -9.907776e-06 -3.624347e-06 -7.620963e-06 -2.543742e-06 -4.932674e-06 -1.215437e-06 -2.006926e-06 3.084891e-07 9.548382e-07 1.964792e-06 3.731522e-06 3.684522e-06 6.103720e-06 5.395465e-06 7.876689e-06 7.022864e-06 8.903150e-06 8.491584e-06 9.104055e-06 9.732832e-06 8.484861e-06 1.069626e-05 7.143975e-06 1.136473e-05 5.269627e-06 1.176610e-05 3.122314e-06 1.197582e-05 1.002537e-06 1.210619e-05 -7.925004e-07 1.228305e-05 -2.015602e-06 1.261526e-05 -2.509602e-06 1.316617e-05 -2.231132e-06 1.393558e-05 -1.252203e-06 1.485808e-05 2.604430e-07 1.581773e-05 2.082350e-06 1.667426e-05 3.974927e-06 1.729295e-05 5.725140e-06 1.757007e-05 7.173354e-06 1.744842e-05 8.225715e-06 1.692115e-05 8.851959e-06 1.602515e-05 9.072737e-06 1.482791e-05 8.941923e-06 1.341205e-05 8.528927e-06 1.186122e-05 7.904538e-06 1.024989e-05 7.131879e-06 8.637667e-06 6.262422e-06 7.067841e-06 5.335893e-06 5.569044e-06 4.382470e-06 4.158595e-06 3.425771e-06 2.846313e-06 2.485516e-06 1.637907e-06 1.579278e-06 5.374578e-07 7.231488e-07 -4.511599e-07 -6.852151e-08 -1.323837e-06 -7.840351e-07 -2.076543e-06 -1.415560e-06 -2.706124e-06 -1.960355e-06 -3.211302e-06 -2.421772e-06 -3.593650e-06 -2.809862e-06 -3.858354e-06 -3.141491e-06 -4.014680e-06 -3.439908e-06 -4.076092e-06 -3.733712e-06 -4.060055e-06 -4.055212e-06 -3.987536e-06 -4.438137e-06 -3.882243e-06 -4.914680e-06 
-3.004982e-06 -4.973755e-06 -1.609298e-06 -4.683091e-06 -2.695121e-08 -4.366015e-06 1.675344e-06 -4.053774e-06 3.407944e-06 -3.782864e-06 5.055959e-06 -3.598593e-06 6.479175e-06 -3.558875e-06 7.515346e-06 -3.736830e-06 7.988048e-06 -4.220081e-06 7.720165e-06 -5.104239e-06 6.553837e-06 -6.478415e-06 4.377102e-06 -8.402036e-06 1.156174e-06 -1.087494e-05 -3.029919e-06 -1.380630e-05 -7.958750e-06 -1.699123e-05 -1.324758e-05 -2.010584e-05 -1.836137e-05 -2.272972e-05 -2.265506e-05 -2.439934e-05 -2.545266e-05 -2.468735e-05 -2.615508e-05 -2.329285e-05 -2.435727e-05 -2.012173e-05 -1.994772e-05 -1.533514e-05 -1.316382e-05 -9.350873e-06 -4.584972e-06 -2.793421e-06 4.939412e-06 3.598450e-06 1.441434e-05 9.087789e-06 2.285083e-05 1.305541e-05 2.941419e-05 1.509319e-05 3.354064e-05 1.505847e-05 3.500278e-05 1.308229e-05 3.391624e-05 9.533944e-06 3.069181e-05 4.951676e-06 2.594724e-05 -4.537153e-08 2.039812e-05 -4.847858e-06 1.474866e-05 -8.934966e-06 9.599883e-06 -1.193062e-05 5.387311e-06 -1.363194e-05 2.353105e-06 -1.400997e-05 5.506796e-07 -1.318715e-05 -1.252021e-07 -1.139895e-05 1.072353e-07 -8.947873e-06 9.677679e-07 -6.157670e-06 2.161837e-06 -3.333857e-06 3.418943e-06 -7.342359e-07 4.518810e-06 1.448949e-06 5.304973e-06 3.095629e-06 5.687342e-06 4.155084e-06 5.636421e-06 4.636240e-06 5.172226e-06 4.593952e-06 4.350823e-06 4.113903e-06 3.250851e-06 3.298281e-06 1.961689e-06 2.253617e-06 5.741445e-07 1.081509e-06 -8.261137e-07 -1.277054e-07 -2.162622e-06 -1.298651e-06 -3.370193e-06 -2.372530e-06 -4.395525e-06 -3.307191e-06 -5.196849e-06 -4.076132e-06 -5.743011e-06 -4.666813e-06 -6.012307e-06 -5.078550e-06 -5.991370e-06 -5.320219e-06 -5.674399e-06 -5.407937e-06 -5.062978e-06 -5.362887e-06 -4.166737e-06 -5.209438e-06 
-7.828138e-06 -1.108880e-05 -7.667275e-06 -1.259625e-05 -7.591014e-06 -1.440774e-05 -7.641116e-06 -1.650050e-05 -7.847265e-06 -1.880907e-05 -8.220833e-06 -2.122093e-05 -8.748254e-06 -2.357668e-05 -9.385171e-06 -2.567596e-05 -1.005319e-05 -2.728998e-05 -1.064144e-05 -2.818071e-05 -1.101486e-05 -2.812587e-05 -1.102977e-05 -2.694770e-05 -1.055521e-05 -2.454242e-05 -9.495561e-06 -2.090615e-05 -7.808734e-06 -1.615263e-05 -5.514157e-06 -1.051810e-05 -2.688252e-06 -4.350577e-06 5.502887e-07 1.916870e-06 4.058979e-06 7.806118e-06 7.686496e-06 1.284258e-05 1.128015e-05 1.660707e-05 1.468775e-05 1.878603e-05 1.776060e-05 1.921578e-05 2.036489e-05 1.791560e-05 2.240428e-05 1.510331e-05 2.384887e-05 1.118607e-05 2.475892e-05 6.721109e-06 2.529023e-05 2.345924e-06 2.567209e-05 -1.314210e-06 2.615887e-05 -3.745317e-06 2.696686e-05 -4.628950e-06 2.821519e-05 -3.891032e-06 2.988982e-05 -1.702707e-06 3.184219e-05 1.566650e-06 3.382247e-05 5.431050e-06 3.553634e-05 9.382416e-06 3.670808e-05 1.297520e-05 3.713284e-05 1.588407e-05 3.670708e-05 1.792757e-05 3.543357e-05 1.906034e-05 3.340503e-05 1.934343e-05 3.077453e-05 1.890476e-05 2.772214e-05 1.790063e-05 2.442543e-05 1.648562e-05 2.103861e-05 1.479396e-05 1.768177e-05 1.293203e-05 1.443905e-05 1.097921e-05 1.136321e-05 8.993524e-06 8.483492e-06 7.018774e-06 5.814209e-06 5.090728e-06 3.362098e-06 3.241222e-06 1.131620e-06 1.499796e-06 -8.721317e-07 -1.067475e-07 -2.642644e-06 -1.556224e-06 -4.172819e-06 -2.833659e-06 -5.456813e-06 -3.933943e-06 -6.492275e-06 -4.864042e-06 -7.282467e-06 -5.644394e-06 -7.837885e-06 -6.309283e-06 -8.177187e-06 -6.906083e-06 -8.327389e-06 -7.493292e-06 -8.323390e-06 -8.137322e-06 -8.206929e-06 -8.907984e-06 -8.025057e-06 -9.872596e-06 
-5.570362e-06 -8.477949e-06 -3.279798e-06 -8.032171e-06 -6.546973e-07 -7.545497e-06 2.200247e-06 -7.067790e-06 5.140587e-06 -6.656402e-06 7.977076e-06 -6.382388e-06 1.047433e-05 -6.337732e-06 1.235521e-05 -6.641381e-06 1.331300e-05 -7.440390e-06 1.303325e-05 -8.901473e-06 1.122686e-05 -1.118834e-05 7.675539e-06 -1.442234e-05 2.288521e-06 -1.862871e-05 -4.833799e-06 -2.367739e-05 -1.333982e-05 -2.923452e-05 -2.258763e-05 -3.474538e-05 -3.164891e-05 -3.946745e-05 -3.937616e-05 -4.256300e-05 -4.454133e-05 -4.324315e-05 -4.603335e-05 -4.093686e-05 -4.307846e-05 -3.544403e-05 -3.543130e-05 -2.703036e-05 -2.348456e-05 -1.643365e-05 -8.261937e-06 -4.773544e-06 8.711918e-06 6.618379e-06 2.563964e-05 1.641210e-05 4.072988e-05 2.349156e-05 5.246940e-05 2.712444e-05 5.983654e-05 2.705985e-05 6.242046e-05 2.354144e-05 6.043272e-05 1.724079e-05 5.461942e-05 9.129794e-06 4.609981e-05 3.195846e-07 3.616699e-05 -8.104234e-06 2.608848e-05 -1.522315e-05 1.693950e-05 -2.038497e-05 9.491062e-06 -2.325140e-05 4.161851e-06 -2.379480e-05 1.030089e-06 -2.225343e-05 -1.085133e-07 -1.905923e-05 3.444856e-07 -1.475388e-05 1.883539e-06 -9.907356e-06 3.984685e-06 -5.049199e-06 6.173001e-06 -6.189635e-07 8.067213e-06 3.062357e-06 9.401472e-06 5.801100e-06 1.002762e-05 7.523530e-06 9.903047e-06 8.257050e-06 9.069759e-06 8.105153e-06 7.629887e-06 7.220743e-06 5.721796e-06 5.781454e-06 3.499624e-06 3.969275e-06 1.117635e-06 1.955470e-06 -1.280433e-06 -1.093344e-07 -3.567644e-06 -2.100645e-06 -5.636770e-06 -3.922225e-06 -7.400843e-06 -5.505815e-06 -8.792172e-06 -6.809243e-06 -9.760467e-06 -7.813471e-06 -1.027058e-05 -8.519041e-06 -1.030031e-05 -8.942211e-06 -9.838859e-06 -9.111090e-06 -8.886291e-06 -9.061997e-06 -7.454564e-06 -8.836293e-06 
-1.247796e-05 -1.678511e-05 -1.230972e-05 -1.913364e-05 -1.226701e-05 -2.198366e-05 -1.241386e-05 -2.530991e-05 -1.279818e-05 -2.901993e-05 -1.344219e-05 -3.294538e-05 -1.433138e-05 -3.684000e-05 -1.540334e-05 -4.038640e-05 -1.653959e-05 -4.321357e-05 -1.756436e-05 -4.492567e-05 -1.825484e-05 -4.514148e-05 -1.836536e-05 -4.354212e-05 -1.766430e-05 -3.992258e-05 -1.597668e-05 -3.424053e-05 -1.322133e-05 -2.665316e-05 -9.430144e-06 -1.753273e-05 -4.742450e-06 -7.452825e-06 6.233500e-07 2.856783e-06 6.408851e-06 1.258240e-05 1.234986e-05 2.091570e-05 1.819514e-05 2.714788e-05 2.371026e-05 3.075775e-05 2.867789e-05 3.148505e-05 3.290867e-05 2.938118e-05 3.627031e-05 2.482857e-05 3.872930e-05 1.851912e-05 4.038734e-05 1.138411e-05 4.149017e-05 4.475861e-06 4.239330e-05 -1.186477e-06 4.348484e-05 -4.780681e-06 4.508443e-05 -5.819121e-06 4.734962e-05 -4.225725e-06 5.022168e-05 -3.309223e-07 5.342948e-05 5.214503e-06 5.655031e-05 1.158269e-05 5.910696e-05 1.793051e-05 6.067128e-05 2.354034e-05 6.094593e-05 2.791135e-05 5.980708e-05 3.079120e-05 5.730481e-05 3.215465e-05 5.362936e-05 3.214709e-05 4.905832e-05 3.101422e-05 4.390025e-05 2.903613e-05 3.844713e-05 2.647776e-05 3.294261e-05 2.355996e-05 2.756763e-05 2.044982e-05 2.244073e-05 1.726496e-05 1.762839e-05 1.408534e-05 1.315988e-05 1.096703e-05 9.042581e-06 7.953818e-06 5.274472e-06 5.084751e-06 1.852830e-06 2.397334e-06 -1.221324e-06 -7.298531e-08 -3.942356e-06 -2.295856e-06 -6.301849e-06 -4.250371e-06 -8.292044e-06 -5.929619e-06 -9.909833e-06 -7.344547e-06 -1.116040e-05 -8.526542e-06 -1.205990e-05 -9.528352e-06 -1.263681e-05 -1.042322e-05 -1.293207e-05 -1.130215e-05 -1.299813e-05 -1.226930e-05 -1.289722e-05 -1.343536e-05 -1.269903e-05 -1.490883e-05 
-9.013979e-06 -1.226069e-05 -5.892846e-06 -1.171987e-05 -2.254819e-06 -1.113077e-05 1.768127e-06 -1.055908e-05 5.985342e-06 -1.007793e-05 1.013782e-05 -9.776788e-06 1.389369e-05 -9.773339e-06 1.685203e-05 -1.022553e-05 1.855780e-05 -1.133854e-05 1.853086e-05 -1.335902e-05 1.631165e-05 -1.654772e-05 1.152581e-05 -2.112420e-05 3.968879e-06 -2.718353e-05 -6.292669e-06 -3.459693e-05 -1.881716e-05 -4.292112e-05 -3.270664e-05 -5.135194e-05 -4.658783e-05 -5.875824e-05 -5.869498e-05 -6.381737e-05 -6.707743e-05 -6.524489e-05 -6.991718e-05 -6.207522e-05 -6.589760e-05 -5.392326e-05 -5.453248e-05 -4.115166e-05 -3.636201e-05 -2.488946e-05 -1.295287e-05 -6.888325e-06 1.330818e-05 1.075366e-05 3.958397e-05 2.593860e-05 6.303851e-05 3.691091e-05 8.127556e-05 4.252754e-05 9.268042e-05 4.241011e-05 9.660903e-05 3.696076e-05 9.340416e-05 2.725102e-05 8.425338e-05 1.481454e-05 7.092988e-05 1.388478e-06 5.547327e-05 -1.134847e-05 3.987096e-05 -2.199785e-05 2.579331e-05 -2.959242e-05 1.441879e-05 -3.366219e-05 6.363752e-06 -3.421891e-05 1.709273e-06 -3.167581e-05 1.009538e-07 -2.672758e-05 8.894651e-07 -2.021653e-05 3.280020e-06 -1.300706e-05 6.465707e-06 -5.883916e-06 9.729221e-06 5.178519e-07 1.250704e-05 5.749692e-06 1.441753e-05 9.556526e-06 1.525933e-05 1.186025e-05 1.498857e-05 1.272758e-05 1.368402e-05 1.233014e-05 1.150816e-05 1.090385e-05 8.670695e-06 8.712788e-06 5.398355e-06 6.020592e-06 1.912918e-06 3.070429e-06 -1.582859e-06 7.270170e-08 -4.912784e-06 -2.801081e-06 -7.930091e-06 -5.420061e-06 -1.051722e-05 -7.692879e-06 -1.258370e-05 -9.564609e-06 -1.406282e-05 -1.101246e-05 -1.490788e-05 -1.204071e-05 -1.508837e-05 -1.267528e-05 -1.458716e-05 -1.295833e-05 -1.339925e-05 -1.294314e-05 -1.153294e-05 -1.268963e-05 
-1.804809e-05 -2.263391e-05 -1.797040e-05 -2.592275e-05 -1.805752e-05 -2.996806e-05 -1.839684e-05 -3.475499e-05 -1.905840e-05 -4.017366e-05 -2.008239e-05 -4.600321e-05 -2.146247e-05 -5.190427e-05 -2.312645e-05 -5.742366e-05 -2.491816e-05 -6.201462e-05 -2.658764e-05 -6.507434e-05 -2.779863e-05 -6.599929e-05 -2.816085e-05 -6.425675e-05 -2.728858e-05 -5.946799e-05 -2.487633e-05 -5.149364e-05 -2.077140e-05 -4.050613e-05 -1.501778e-05 -2.702973e-05 -7.852789e-06 -1.192989e-05 3.442371e-07 3.656570e-06 9.130370e-06 1.844412e-05 1.807247e-05 3.115356e-05 2.678961e-05 4.067322e-05 3.496009e-05 4.620325e-05 4.231090e-05 4.736716e-05 4.861703e-05 4.428028e-05 5.372879e-05 3.756629e-05 5.762380e-05 2.831174e-05 6.045791e-05 1.795053e-05 6.258030e-05 8.079049e-06 6.448604e-05 2.196268e-07 6.670397e-05 -4.428825e-06 6.964811e-05 -5.198483e-06 7.348191e-05 -2.063583e-06 7.804558e-05 4.379677e-06 8.287525e-05 1.306177e-05 8.730815e-05 2.267579e-05 9.063808e-05 3.193560e-05 9.227135e-05 3.979133e-05 9.184066e-05 4.555905e-05 8.925388e-05 4.895265e-05 8.467765e-05 5.003331e-05 7.847289e-05 4.910868e-05 7.110697e-05 4.661640e-05 6.306651e-05 4.302041e-05 5.478835e-05 3.873699e-05 4.661743e-05 3.409534e-05 3.879208e-05 2.932883e-05 3.145134e-05 2.458754e-05 2.465592e-05 1.996122e-05 1.841447e-05 1.550376e-05 1.270834e-05 1.125310e-05 7.511094e-06 7.243896e-06 2.801115e-06 3.512969e-06 -1.432482e-06 9.870043e-08 -5.189489e-06 -2.963577e-06 -8.462309e-06 -5.648385e-06 -1.124199e-05 -7.947369e-06 -1.352491e-05 -9.875616e-06 -1.531855e-05 -1.147604e-05 -1.664551e-05 -1.282131e-05 -1.754522e-05 -1.401313e-05 -1.807366e-05 -1.517899e-05 -1.830149e-05 -1.646637e-05 -1.831135e-05 -1.803429e-05 -1.819461e-05 -2.004190e-05 
-1.375686e-05 -1.642304e-05 -9.918273e-06 -1.587474e-05 -5.333987e-06 -1.528587e-05 -1.463467e-07 -1.473552e-05 5.422194e-06 -1.430605e-05 1.105186e-05 -1.409419e-05 1.631500e-05 -1.422856e-05 2.067672e-05 -1.489126e-05 2.351061e-05 -1.633718e-05 2.413303e-05 -1.889943e-05 2.185929e-05 -2.296532e-05 1.608641e-05 -2.890816e-05 6.407622e-06 -3.696827e-05 -7.239323e-06 -4.709435e-05 -2.440126e-05 -5.878075e-05 -4.395179e-05 -7.095873e-05 -6.401079e-05 -8.200834e-05 -8.201901e-05 -8.993890e-05 -9.502353e-05 -9.273814e-05 -1.001662e-04 -8.882442e-05 -9.528241e-05 -7.748341e-05 -7.945386e-05 -5.915630e-05 -5.334934e-05 -3.548436e-05 -1.924450e-05 -9.086590e-06 1.929600e-05 1.687576e-05 5.799736e-05 3.924203e-05 9.257809e-05 5.538067e-05 1.194262e-04 6.359890e-05 1.361194e-04 6.336571e-05 1.417073e-04 5.532476e-05 1.367294e-04 4.111461e-05 1.229944e-04 2.304566e-05 1.031820e-04 3.702568e-06 8.035579e-05 -1.445333e-05 5.747683e-05 -2.941446e-05 3.700302e-05 -3.984291e-05 2.063015e-05 -4.515190e-05 9.197808e-06 -4.546175e-05 2.746066e-06 -4.146113e-05 6.817452e-07 -3.421558e-05 2.000875e-06 -2.496458e-05 5.516829e-06 -1.493991e-05 1.005650e-05 -5.225878e-06 1.460350e-05 3.330290e-06 1.838253e-05 1.015877e-05 2.089000e-05 1.496555e-05 2.188229e-05 1.769953e-05 2.133530e-05 1.850022e-05 1.938902e-05 1.763760e-05 1.628902e-05 1.545399e-05 1.233377e-05 1.231506e-05 7.833539e-06 8.573574e-06 3.082418e-06 4.546159e-06 -1.657653e-06 5.008980e-07 -6.163967e-06 -3.347482e-06 -1.025444e-05 -6.837751e-06 -1.378573e-05 -9.859569e-06 -1.664937e-05 -1.234913e-05 -1.876663e-05 -1.428356e-05 -2.008255e-05 -1.567438e-05 -2.055992e-05 -1.656054e-05 -2.017431e-05 -1.700151e-05 -1.891141e-05 -1.707070e-05 -1.676788e-05 -1.684967e-05 
-2.490854e-05 -2.863458e-05 -2.507102e-05 -3.298531e-05 -2.543570e-05 -3.842880e-05 -2.611333e-05 -4.498193e-05 -2.720073e-05 -5.253504e-05 -2.876658e-05 -6.082420e-05 -3.082865e-05 -6.941325e-05 -3.332227e-05 -7.769159e-05 -3.606437e-05 -8.489271e-05 -3.872397e-05 -9.013782e-05 -4.081623e-05 -9.250707e-05 -4.173827e-05 -9.113983e-05 -4.085725e-05 -8.536198e-05 -3.764138e-05 -7.482989e-05 -3.179946e-05 -5.966756e-05 -2.337782e-05 -4.055937e-05 -1.276920e-05 -1.875761e-05 -6.223188e-07 4.019949e-06 1.231245e-05 2.579428e-05 2.533490e-05 4.459080e-05 3.788524e-05 5.871126e-05 4.955453e-05 6.696470e-05 6.004567e-05 6.882987e-05 6.913797e-05 6.453857e-05 7.669665e-05 5.507583e-05 8.273082e-05 4.209174e-05 8.746441e-05 2.771838e-05 9.136467e-05 1.429268e-05 9.508231e-05 4.007229e-06 9.929458e-05 -1.458117e-06 1.044920e-04 -1.242135e-06 1.107861e-04 4.541358e-06 1.178183e-04 1.485343e-05 1.248134e-04 2.798167e-05 1.307608e-04 4.192254e-05 1.346589e-04 5.478437e-05 1.357424e-04 6.510605e-05 1.336273e-04 7.202812e-05 1.283513e-04 7.530726e-05 1.203177e-04 7.520830e-05 1.101771e-04 7.232942e-05 9.868681e-05 6.741587e-05 8.658244e-05 6.120386e-05 7.448425e-05 5.431649e-05 6.284755e-05 4.721586e-05 5.195447e-05 4.020193e-05 4.193680e-05 3.344177e-05 3.281583e-05 2.701187e-05 2.454624e-05 2.093963e-05 1.705448e-05 1.523538e-05 1.026705e-05 9.912166e-06 4.127331e-06 4.993851e-06 -1.397544e-06 5.142683e-07 -6.318001e-06 -3.489840e-06 -1.062907e-05 -6.989272e-06 -1.432065e-05 -9.973733e-06 -1.738841e-05 -1.246189e-05 -1.984271e-05 -1.450854e-05 -2.171432e-05 -1.620804e-05 -2.305618e-05 -1.769411e-05 -2.394200e-05 -1.913616e-05 -2.446266e-05 -2.073264e-05 -2.472184e-05 -2.270116e-05 -2.483156e-05 -2.526491e-05 
-2.028784e-05 -2.104987e-05 -1.591963e-05 -2.061081e-05 -1.052158e-05 -2.016775e-05 -4.221287e-06 -1.981348e-05 2.749683e-06 -1.963338e-05 1.002681e-05 -1.971656e-05 1.709185e-05 -2.017873e-05 2.326682e-05 -2.119732e-05 2.772822e-05 -2.305256e-05 2.954432e-05 -2.615889e-05 2.773857e-05 -3.106078e-05 2.138474e-05 -3.836282e-05 9.747169e-06 -4.857114e-05 -7.517504e-06 -6.184913e-05 -3.009388e-05 -7.773260e-05 -5.671524e-05 -9.489657e-05 -8.494638e-05 -1.110952e-04 -1.111909e-04 -1.233791e-04 -1.310542e-04 -1.286167e-04 -1.400840e-04 -1.242240e-04 -1.347452e-04 -1.088991e-04 -1.133532e-04 -8.312154e-05 -7.666557e-05 -4.924643e-05 -2.794033e-05 -1.115501e-05 2.756093e-05 2.643598e-05 8.348129e-05 5.882259e-05 1.334570e-04 8.212148e-05 1.721438e-04 9.387837e-05 1.959896e-04 9.338332e-05 2.036399e-04 8.166694e-05 1.959488e-04 6.121085e-05 1.756368e-04 3.544943e-05 1.466919e-04 8.166674e-06 1.136368e-04 -1.709884e-05 8.080042e-05 -3.753778e-05 5.172032e-05 -5.136961e-05 2.876732e-05 -5.793058e-05 1.302779e-05 -5.757119e-05 4.417626e-06 -5.141924e-05 1.956964e-06 -4.107881e-05 4.117859e-06 -2.832978e-05 9.165568e-06 -1.487399e-05 1.543895e-05 -2.152720e-06 2.154373e-05 8.758785e-06 2.645592e-05 1.718655e-05 2.954768e-05 2.283682e-05 3.055516e-05 2.573569e-05 2.950948e-05 2.614661e-05 2.665060e-05 2.448201e-05 2.234111e-05 2.122274e-05 1.699271e-05 1.685466e-05 1.101261e-05 1.182636e-05 4.771191e-06 6.526524e-06 -1.412746e-06 1.275444e-06 -7.275499e-06 -3.675323e-06 -1.260626e-05 -8.139935e-06 -1.724267e-05 -1.199396e-05 -2.106499e-05 -1.516911e-05 -2.398891e-05 -1.764675e-05 -2.595683e-05 -1.945015e-05 -2.692850e-05 -2.063597e-05 -2.687268e-05 -2.128582e-05 -2.576179e-05 -2.149840e-05 -2.357165e-05 -2.138235e-05 
-3.348505e-05 -3.473932e-05 -3.410966e-05 -4.028363e-05 -3.497275e-05 -4.736536e-05 -3.620532e-05 -5.606688e-05 -3.793465e-05 -6.630931e-05 -4.027195e-05 -7.780678e-05 -4.328483e-05 -9.003073e-05 -4.694961e-05 -1.021930e-04 -5.108580e-05 -1.132556e-04 -5.528716e-05 -1.219746e-04 -5.887936e-05 -1.269830e-04 -6.094433e-05 -1.269217e-04 -6.044398e-05 -1.206238e-04 -5.644274e-05 -1.073498e-04 -4.837451e-05 -8.703982e-05 -3.625252e-05 -6.051594e-05 -2.071716e-05 -2.954382e-05 -2.879097e-06 3.309264e-06 1.598265e-05 3.501500e-05 3.473018e-05 6.254164e-05 5.255091e-05 8.331340e-05 6.896814e-05 9.557711e-05 8.373362e-05 9.863073e-05 9.671020e-05 9.290954e-05 1.078326e-04 7.994337e-05 1.171655e-04 6.219477e-05 1.250083e-04 4.277773e-05 1.319549e-04 2.505534e-05 1.388269e-04 1.213625e-05 1.464570e-04 6.336149e-06 1.553788e-04 8.724600e-06 1.655509e-04 1.889965e-05 1.762470e-04 3.509049e-05 1.861809e-04 5.458235e-05 1.938235e-04 7.433872e-05 1.977910e-04 9.162951e-05 1.971667e-04 1.044932e-04 1.916686e-04 1.119445e-04 1.816460e-04 1.139337e-04 1.679416e-04 1.111303e-04 1.516829e-04 1.046273e-04 1.340638e-04 9.565008e-05 1.161626e-04 8.532909e-05 9.882410e-05 7.456199e-05 8.261038e-05 6.396379e-05 6.781219e-05 5.388651e-05 5.450192e-05 4.448002e-05 4.260521e-05 3.576662e-05 3.197149e-05 2.770830e-05 2.243080e-05 2.025561e-05 1.383188e-05 1.337585e-05 6.062732e-06 7.063855e-06 -9.432171e-07 1.339954e-06 -7.211846e-06 -3.760849e-06 -1.274104e-05 -8.204874e-06 -1.751787e-05 -1.197749e-05 -2.153606e-05 -1.509898e-05 -2.480989e-05 -1.763588e-05 -2.738176e-05 -1.970652e-05 -2.932344e-05 -2.148132e-05 -3.073207e-05 -2.317883e-05 -3.172341e-05 -2.505832e-05 -3.242450e-05 -2.740929e-05 -3.296738e-05 -3.053649e-05 
-2.917859e-05 -2.619622e-05 -2.458076e-05 -2.601114e-05 -1.861071e-05 -2.590941e-05 -1.134540e-05 -2.600490e-05 -2.991031e-06 -2.638451e-05 6.069817e-06 -2.711333e-05 1.524096e-05 -2.825936e-05 2.369559e-05 -2.994434e-05 3.038709e-05 -3.241890e-05 3.408908e-05 -3.614385e-05 3.346204e-05 -4.183774e-05 2.714879e-05 -5.043335e-05 1.392098e-05 -6.288681e-05 -7.076567e-06 -7.981568e-05 -3.593666e-05 -1.010123e-04 -7.147191e-05 -1.249719e-04 -1.107157e-04 -1.486540e-04 -1.487246e-04 -1.676972e-04 -1.789821e-04 -1.771906e-04 -1.945181e-04 -1.728701e-04 -1.895261e-04 -1.523811e-04 -1.609703e-04 -1.161605e-04 -1.096223e-04 -6.761795e-05 -4.017975e-05 -1.256422e-05 3.954247e-05 4.191215e-05 1.200669e-04 8.878732e-05 1.919492e-04 1.223379e-04 2.473282e-04 1.390344e-04 2.810535e-04 1.379721e-04 2.912474e-04 1.208204e-04 2.792831e-04 9.135423e-05 2.492565e-04 5.468630e-05 2.070892e-04 1.635291e-05 1.594372e-04 -1.857719e-05 1.126013e-04 -4.621088e-05 7.163630e-05 -6.423993e-05 3.980860e-05 -7.201399e-05 1.846033e-05 -7.032380e-05 7.230804e-06 -6.099830e-05 4.511323e-06 -4.643427e-05 7.987146e-06 -2.915769e-05 1.514332e-05 -1.147847e-05 2.365792e-05 4.736574e-06 3.165396e-05 1.817573e-05 3.781650e-05 2.809764e-05 4.140079e-05 3.427438e-05 4.216370e-05 3.688734e-05 4.024949e-05 3.640013e-05 3.605790e-05 3.343039e-05 3.011821e-05 2.863956e-05 2.298771e-05 2.265367e-05 1.518461e-05 1.601910e-05 7.155405e-06 9.187892e-06 -7.322515e-07 2.520738e-06 -8.183849e-06 -3.704052e-06 -1.496937e-05 -9.282892e-06 -2.091597e-05 -1.408187e-05 -2.590117e-05 -1.803225e-05 -2.984410e-05 -2.112427e-05 -3.269352e-05 -2.339848e-05 -3.441356e-05 -2.493563e-05 -3.496994e-05 -2.584648e-05 -3.431995e-05 -2.626278e-05 -3.240931e-05 -2.632927e-05 
-4.427394e-05 -4.083857e-05 -4.568699e-05 -4.769907e-05 -4.737730e-05 -5.668007e-05 -4.948647e-05 -6.798111e-05 -5.217104e-05 -8.160500e-05 -5.560025e-05 -9.728517e-05 -5.992979e-05 -1.144214e-04 -6.523704e-05 -1.320372e-04 -7.141075e-05 -1.487704e-04 -7.800962e-05 -1.629057e-04 -8.413753e-05 -1.724587e-04 -8.841567e-05 -1.753279e-04 -8.913634e-05 -1.695425e-04 -8.463212e-05 -1.536293e-04 -7.378424e-05 -1.270671e-04 -5.647331e-05 -9.071149e-05 -3.373487e-05 -4.699700e-05 -7.491224e-06 2.438955e-07 2.004307e-05 4.635637e-05 4.699176e-05 8.666551e-05 7.218512e-05 1.172608e-04 9.515310e-05 1.355756e-04 1.158597e-04 1.406931e-04 1.344068e-04 1.334008e-04 1.508889e-04 1.160517e-04 1.654466e-04 9.227773e-05 1.784363e-04 6.657071e-05 1.905628e-04 4.371983e-05 2.028254e-04 2.810336e-05 2.162169e-04 2.290313e-05 2.312566e-04 2.941594e-05 2.475726e-04 4.670769e-05 2.637735e-04 7.180200e-05 2.777196e-04 1.004037e-04 2.870935e-04 1.279277e-04 2.900278e-04 1.504858e-04 2.855490e-04 1.655442e-04 2.737288e-04 1.721382e-04 2.555611e-04 1.706981e-04 2.326670e-04 1.626366e-04 2.069380e-04 1.498581e-04 1.802090e-04 1.343163e-04 1.540149e-04 1.176949e-04 1.294549e-04 1.012375e-04 1.071626e-04 8.571210e-05 8.736033e-05 7.147660e-05 6.996714e-05 5.859595e-05 5.472166e-05 4.696894e-05 4.129185e-05 3.643295e-05 2.935437e-05 2.683353e-05 1.864134e-05 1.806058e-05 8.961255e-06 1.005996e-05 2.016887e-07 2.828634e-06 -7.681485e-06 -3.601523e-06 -1.468565e-05 -9.188215e-06 -2.078974e-05 -1.390653e-05 -2.598251e-05 -1.777409e-05 -3.028384e-05 -2.086853e-05 -3.375470e-05 -2.333551e-05 -3.649598e-05 -2.538889e-05 -3.863939e-05 -2.730571e-05 -4.033494e-05 -2.941836e-05 -4.173869e-05 -3.210434e-05 -4.300347e-05 -3.577191e-05 
-4.109210e-05 -3.186591e-05 -3.672913e-05 -3.210022e-05 -3.060143e-05 -3.258799e-05 -2.268534e-05 -3.348675e-05 -1.311085e-05 -3.489692e-05 -2.236311e-06 -3.684927e-05 9.287749e-06 -3.931984e-05 2.048415e-05 -4.229240e-05 3.005703e-05 -4.588017e-05 3.644104e-05 -5.049271e-05 3.787355e-05 -5.699230e-05 3.247193e-05 -6.673944e-05 1.833727e-05 -8.140613e-05 -6.217084e-06 -1.024689e-04 -4.215860e-05 -1.304014e-04 -8.886619e-05 -1.637599e-04 -1.430748e-04 -1.985415e-04 -1.981591e-04 -2.282760e-04 -2.444340e-04 -2.451470e-04 -2.708461e-04 -2.420001e-04 -2.677325e-04 -2.145798e-04 -2.296708e-04 -1.631235e-04 -1.573200e-04 -9.269225e-05 -5.761074e-05 -1.217590e-05 5.765079e-05 6.759851e-05 1.741840e-04 1.360308e-04 2.779058e-04 1.846440e-04 3.572627e-04 2.083798e-04 4.048439e-04 2.061586e-04 4.181201e-04 1.807206e-04 3.993330e-04 1.378641e-04 3.546779e-04 8.526222e-05 2.929755e-04 3.107464e-05 2.240552e-04 -1.739946e-05 1.571190e-04 -5.477029e-05 9.939740e-05 -7.811344e-05 5.535851e-05 -8.697931e-05 2.657110e-05 -8.295817e-05 1.212618e-05 -6.899573e-05 9.393872e-06 -4.866072e-05 1.486939e-05 -2.551315e-05 2.491805e-05 -2.649067e-06 3.631711e-05 1.756458e-05 4.657152e-05 3.358891e-05 5.403133e-05 4.468448e-05 5.786046e-05 5.079460e-05 5.790757e-05 5.237521e-05 5.452270e-05 5.020251e-05 4.835690e-05 4.518771e-05 4.017789e-05 3.822614e-05 3.072952e-05 3.010082e-05 2.065115e-05 2.144498e-05 1.045405e-05 1.275009e-05 5.351922e-07 4.394263e-06 -8.797670e-06 -3.332106e-06 -1.730745e-05 -1.021386e-05 -2.481964e-05 -1.610948e-05 -3.121833e-05 -2.095176e-05 -3.643814e-05 -2.474427e-05 -4.044839e-05 -2.755197e-05 -4.323143e-05 -2.948853e-05 -4.475995e-05 -3.070378e-05 -4.497898e-05 -3.137369e-05 -4.379733e-05 -3.169258e-05 
-5.785563e-05 -4.674642e-05 -6.053624e-05 -5.500786e-05 -6.354632e-05 -6.614256e-05 -6.701593e-05 -8.054463e-05 -7.111726e-05 -9.838057e-05 -7.608751e-05 -1.194771e-04 -8.222087e-05 -1.432127e-04 -8.979529e-05 -1.684333e-04 -9.890357e-05 -1.934095e-04 -1.091887e-04 -2.158441e-04 -1.195486e-04 -2.329328e-04 -1.279586e-04 -2.415057e-04 -1.316091e-04 -2.383145e-04 -1.274941e-04 -2.205654e-04 -1.133731e-04 -1.867169e-04 -8.873917e-05 -1.373578e-04 -5.525748e-05 -7.575418e-05 -1.631701e-05 -7.660047e-06 2.415911e-05 5.968195e-05 6.301462e-05 1.189887e-04 9.859171e-05 1.642991e-04 1.306433e-04 1.918815e-04 1.597034e-04 2.006045e-04 1.864156e-04 1.918738e-04 2.111811e-04 1.692901e-04 2.342107e-04 1.381528e-04 2.558300e-04 1.048572e-04 2.767740e-04 7.615152e-05 2.981982e-04 5.818046e-05 3.212589e-04 5.534041e-05 3.463686e-04 6.919055e-05 3.725129e-04 9.786656e-05 3.970947e-04 1.363995e-04 4.165126e-04 1.779707e-04 4.272297e-04 2.156577e-04 4.268110e-04 2.440035e-04 4.145052e-04 2.599205e-04 3.912597e-04 2.628164e-04 3.593196e-04 2.541307e-04 3.216404e-04 2.365762e-04 2.813055e-04 2.133477e-04 2.410615e-04 1.874700e-04 2.030172e-04 1.613715e-04 1.685160e-04 1.366946e-04 1.381600e-04 1.143119e-04 1.119498e-04 9.447888e-05 8.948644e-05 7.705056e-05 7.017683e-05 6.169001e-05 5.339812e-05 4.802441e-05 3.860021e-05 3.573540e-05 2.535325e-05 2.459679e-05 1.336033e-05 1.448184e-05 2.452063e-06 5.354128e-06 -7.432373e-06 -2.755368e-06 -1.627955e-05 -9.785145e-06 -2.404809e-05 -1.568778e-05 -3.071526e-05 -2.047046e-05 -3.631003e-05 -2.422150e-05 -4.092511e-05 -2.712014e-05 -4.470969e-05 -2.943409e-05 -4.785043e-05 -3.151159e-05 -5.054896e-05 -3.377283e-05 -5.300196e-05 -3.670180e-05 -5.538695e-05 -4.083569e-05 