# vtk DataFile Version 2.0
Comment goes here
ASCII

DATASET STRUCTURED_POINTS
FIELD FieldData 1
TIME 1 1 double
0.01000000
DIMENSIONS    128   128   1

ORIGIN    0.000   0.000   0.000
SPACING   0.039062 0.039062   1.000

POINT_DATA   16384
SCALARS Omega double
LOOKUP_TABLE default

-1.336043e-14 -3.344368e-14 -1.876288e-14 2.647220e-14 3.814136e-14 6.156354e-14 5.329779e-14 6.374951e-15 -2.984144e-14 -1.717708e-14 -1.949233e-14 -4.576566e-14 -1.885606e-14 -2.614128e-15 2.408161e-14 4.212767e-14 7.838521e-14 3.517290e-14 2.535114e-14 1.794180e-14 6.283242e-15 2.096733e-14 -1.734131e-14 -4.793808e-14 -9.024807e-15 -5.032076e-15 -6.794807e-14 -8.547786e-15 -2.614731e-14 2.485922e-14 -2.731963e-14 1.017682e-14 -8.985056e-14 -1.331785e-14 5.571446e-14 1.255244e-13 5.232148e-14 -4.776560e-14 -9.522332e-14 -8.633273e-14 -1.524964e-13 -1.228808e-13 -7.961145e-15 -3.525323e-14 -3.119425e-14 -3.747482e-14 -2.852985e-14 -5.170209e-14 -1.085082e-13 -2.141581e-14 6.347351e-14 4.114087e-14 3.185916e-14 6.238183e-14 6.876159e-14 -1.573532e-14 4.466074e-15 -4.192135e-14 7.168032e-14 1.862375e-14 3.461518e-14 4.012176e-14 1.034339e-13 1.670266e-13 1.263693e-13 1.110811e-13 5.703804e-14 5.557105e-14 6.889416e-14 8.786505e-14 5.052203e-14 9.069867e-14 9.813687e-15 -4.981015e-14 5.183787e-14 6.771262e-14 6.790556e-14 5.262053e-14 2.561162e-14 2.699834e-14 -1.555977e-14 -3.660276e-14 1.294074e-14 -8.160165e-16 -4.364727e-14 -7.415163e-14 -3.219789e-14 2.728743e-14 4.809742e-14 5.215480e-14 3.762446e-14 6.254160e-14 7.923030e-14 3.337733e-14 -6.000212e-14 -9.044966e-14 -9.573494e-14 -3.922629e-14 2.795597e-14 4.734946e-14 2.869244e-14 1.074903e-14 -9.161868e-15 -5.292840e-14 -9.575566e-14 -6.192540e-14 -5.747181e-14 -3.584664e-14 1.392956e-14 3.207038e-14 3.425411e-14 7.558029e-14 1.030983e-13 6.592388e-14 1.836631e-14 -9.868336e-15 -1.243939e-14 7.447078e-15 3.853004e-14 7.417539e-14 2.615906e-14 -1.431035e-14 -1.161148e-14 -2.345641e-14 -5.254395e-14 -7.306086e-14 -8.735102e-14 -4.348405e-14 
2.495358e-07 5.102795e-07 3.758830e-07 5.637611e-07 5.541207e-07 6.284468e-07 7.890399e-07 7.081926e-07 1.081581e-06 8.044811e-07 1.426368e-06 9.144267e-07 1.808870e-06 1.028570e-06 2.202728e-06 1.128896e-06 2.568087e-06 1.187787e-06 2.852098e-06 1.168836e-06 2.992813e-06 1.030456e-06 2.927345e-06 7.329246e-07 2.604317e-06 2.486896e-07 1.999142e-06 -4.254857e-07 1.128990e-06 -1.257335e-06 6.292687e-08 -2.172741e-06 -1.077630e-06 -3.058134e-06 -2.131547e-06 -3.774117e-06 -2.923988e-06 -4.179835e-06 -3.301760e-06 -4.163940e-06 -3.170074e-06 -3.674806e-06 -2.520752e-06 -2.741382e-06 -1.442999e-06 -1.477443e-06 -1.119444e-07 -6.599861e-08 1.243797e-06 1.273975e-06 2.388293e-06 2.331116e-06 3.126848e-06 2.944895e-06 3.344844e-06 3.037541e-06 3.027451e-06 2.626718e-06 2.256236e-06 1.816361e-06 1.184968e-06 7.691073e-07 2.287284e-09 -3.314346e-07 -1.108488e-06 -1.318334e-06 -2.002615e-06 -2.069908e-06 -2.593738e-06 -2.523939e-06 -2.858224e-06 -2.676911e-06 -2.826253e-06 -2.571621e-06 -2.564555e-06 -2.278661e-06 -2.156484e-06 -1.877388e-06 -1.684190e-06 -1.440598e-06 -1.215872e-06 -1.024984e-06 -7.990963e-07 -6.674988e-07 -4.596192e-07 -3.863190e-07 -2.042321e-07 -1.845960e-07 -2.587251e-08 -5.521096e-08 9.058489e-08 1.474137e-08 1.630381e-07 4.042115e-08 2.080894e-07 3.683622e-08 2.385055e-07 1.741010e-08 2.621868e-07 -6.749720e-09 2.824019e-07 -2.713927e-08 2.988941e-07 -3.788228e-08 3.094120e-07 -3.558645e-08 3.112525e-07 -1.907405e-08 3.024926e-07 1.098804e-08 2.827466e-07 5.253312e-08 2.534311e-07 1.025839e-07 2.176429e-07 1.577496e-07 1.798203e-07 2.147045e-07 1.453553e-07 2.706197e-07 1.202804e-07 3.235378e-07 1.110895e-07 3.726691e-07 1.246744e-07 4.185956e-07 1.683052e-07 4.633433e-07 
4.730062e-08 3.587094e-07 -1.175773e-07 -2.130260e-08 -3.184149e-07 -5.301738e-07 -5.598593e-07 -1.170623e-06 -8.420544e-07 -1.934287e-06 -1.157909e-06 -2.797285e-06 -1.490356e-06 -3.716059e-06 -1.810209e-06 -4.624750e-06 -2.075465e-06 -5.435752e-06 -2.233077e-06 -6.045191e-06 -2.224116e-06 -6.344610e-06 -1.992792e-06 -6.238925e-06 -1.498926e-06 -5.668739e-06 -7.321513e-07 -4.632842e-06 2.751781e-07 -3.204727e-06 1.440398e-06 -1.536511e-06 2.632250e-06 1.547346e-07 3.684499e-06 1.619173e-06 4.421286e-06 2.620346e-06 4.690520e-06 2.985507e-06 4.398467e-06 2.647455e-06 3.537010e-06 1.666071e-06 2.195769e-06 2.223798e-07 5.542036e-07 -1.414908e-06 -1.146501e-06 -2.943015e-06 -2.646861e-06 -4.086188e-06 -3.718695e-06 -4.649705e-06 -4.209521e-06 -4.554363e-06 -4.071063e-06 -3.844345e-06 -3.364885e-06 -2.668382e-06 -2.244088e-06 -1.240775e-06 -9.164494e-07 2.067199e-07 4.008188e-07 1.470101e-06 1.522967e-06 2.405730e-06 2.326673e-06 2.945258e-06 2.761268e-06 3.092991e-06 2.842906e-06 2.909933e-06 2.636657e-06 2.490877e-06 2.233454e-06 1.940885e-06 1.728332e-06 1.355968e-06 1.204318e-06 8.105401e-07 7.236295e-07 3.520989e-07 3.255530e-07 2.016801e-09 2.899273e-08 -2.394906e-07 -1.626892e-07 -3.863292e-07 -2.565501e-07 -4.592783e-07 -2.658786e-07 -4.798638e-07 -2.073314e-07 -4.661220e-07 -9.918152e-08 -4.304685e-07 3.982667e-08 -3.794534e-07 1.914864e-07 -3.148899e-07 3.392445e-07 -2.357300e-07 4.693819e-07 -1.400887e-07 5.720222e-07 -2.696960e-08 6.416826e-07 1.025474e-07 6.771804e-07 2.447094e-07 6.808971e-07 3.929918e-07 6.575630e-07 5.383334e-07 6.128292e-07 6.695317e-07 5.518969e-07 7.736589e-07 4.784061e-07 8.364230e-07 3.937001e-07 8.424698e-07 2.965006e-07 7.756994e-07 1.829904e-07 6.197299e-07 
7.234408e-07 1.540469e-06 1.094937e-06 1.699822e-06 1.624221e-06 1.894188e-06 2.327541e-06 2.136213e-06 3.210140e-06 2.431642e-06 4.258621e-06 2.773155e-06 5.431932e-06 3.133374e-06 6.652517e-06 3.458350e-06 7.800253e-06 3.663689e-06 8.712833e-06 3.636285e-06 9.196628e-06 3.244767e-06 9.051218e-06 2.360951e-06 8.108083e-06 8.921004e-07 6.279353e-06 -1.180114e-06 3.606892e-06 -3.762748e-06 2.971104e-07 -6.629325e-06 -3.274534e-06 -9.425220e-06 -6.601276e-06 -1.170931e-05 -9.126726e-06 -1.303108e-05 -1.035813e-05 -1.303007e-05 -9.985514e-06 -1.153409e-05 -7.974250e-06 -8.627762e-06 -4.601483e-06 -4.667782e-06 -4.206241e-07 -2.338671e-07 3.842370e-06 3.977739e-06 7.437361e-06 7.294392e-06 9.746224e-06 9.206230e-06 1.040751e-05 9.468857e-06 9.379186e-06 8.143627e-06 6.926523e-06 5.567101e-06 3.543097e-06 2.261089e-06 -1.701273e-07 -1.189607e-06 -3.633855e-06 -4.258208e-06 -6.396046e-06 -6.566467e-06 -8.193233e-06 -7.927980e-06 -8.961775e-06 -8.343045e-06 -8.806926e-06 -7.956645e-06 -7.946156e-06 -6.997877e-06 -6.645148e-06 -5.719063e-06 -5.161686e-06 -4.347793e-06 -3.706467e-06 -3.058105e-06 -2.423509e-06 -1.960561e-06 -1.387890e-06 -1.106728e-06 -6.158168e-07 -5.019472e-07 -8.135981e-08 -1.207591e-07 2.651327e-07 7.898108e-08 4.805346e-07 1.452717e-07 6.164861e-07 1.247850e-07 7.118143e-07 5.873751e-08 7.896980e-07 -1.912159e-08 8.587405e-07 -8.323082e-08 9.167026e-07 -1.161839e-07 9.554778e-07 -1.082154e-07 9.659851e-07 -5.631690e-08 9.419939e-07 3.694868e-08 8.823681e-07 1.648536e-07 7.917265e-07 3.180246e-07 6.798933e-07 4.859677e-07 5.607080e-07 6.585070e-07 4.507455e-07 8.270732e-07 3.683398e-07 9.858037e-07 3.330748e-07 1.132419e-06 3.656861e-07 1.268824e-06 4.881285e-07 1.401347e-06 
1.238968e-07 8.259576e-07 -2.053769e-07 7.771380e-08 -6.089159e-07 -9.345978e-07 -1.098100e-06 -2.220983e-06 -1.675719e-06 -3.770184e-06 -2.330289e-06 -5.540123e-06 -3.030081e-06 -7.448351e-06 -3.718045e-06 -9.365057e-06 -4.309392e-06 -1.111214e-05 -4.694028e-06 -1.247235e-05 -4.746074e-06 -1.321187e-05 -4.341877e-06 -1.311725e-05 -3.386157e-06 -1.204367e-05 -1.843183e-06 -9.965844e-06 2.333194e-07 -7.018404e-06 2.680408e-06 -3.510060e-06 5.225750e-06 1.008211e-07 7.513900e-06 3.273238e-06 9.159898e-06 5.484405e-06 9.822849e-06 6.343024e-06 9.284368e-06 5.685949e-06 7.512292e-06 3.630346e-06 4.691032e-06 5.638010e-07 1.206637e-06 -2.928616e-06 -2.414644e-06 -6.183985e-06 -5.603470e-06 -8.598763e-06 -7.859251e-06 -9.750090e-06 -8.850423e-06 -9.472512e-06 -8.478339e-06 -7.873940e-06 -6.888606e-06 -5.291084e-06 -4.427717e-06 -2.200011e-06 -1.557963e-06 8.924099e-07 1.245252e-06 3.548512e-06 3.586478e-06 5.469595e-06 5.212062e-06 6.524954e-06 6.030824e-06 6.741719e-06 6.096557e-06 6.266200e-06 5.564834e-06 5.311666e-06 4.640412e-06 4.106735e-06 3.529644e-06 2.854568e-06 2.406963e-06 1.707803e-06 1.398236e-06 7.594274e-07 5.787294e-07 4.656058e-08 -1.931339e-08 -4.373986e-07 -3.949867e-07 -7.269250e-07 -5.672808e-07 -8.687143e-07 -5.663138e-07 -9.089224e-07 -4.277968e-07 -8.847197e-07 -1.899805e-07 -8.204397e-07 1.082172e-07 -7.276966e-07 4.290237e-07 -6.082813e-07 7.380901e-07 -4.584293e-07 1.007074e-06 -2.731896e-07 1.215890e-06 -4.998284e-08 1.353934e-06 2.090940e-07 1.419836e-06 4.962495e-07 1.419760e-06 7.980021e-07 1.364679e-06 1.095822e-06 1.267235e-06 1.367029e-06 1.138814e-06 1.585650e-06 9.872484e-07 1.723090e-06 8.153583e-07 1.748619e-06 6.203583e-07 1.629816e-06 3.940681e-07 1.333273e-06 
1.120478e-06 2.600942e-06 1.713181e-06 2.862165e-06 2.575294e-06 3.186104e-06 3.740156e-06 3.597470e-06 5.224790e-06 4.110342e-06 7.016446e-06 4.717322e-06 9.055944e-06 5.376659e-06 1.122016e-05 5.999411e-06 1.330815e-05 6.440417e-06 1.503770e-05 6.498540e-06 1.606020e-05 5.932431e-06 1.600116e-05 4.496996e-06 1.452892e-05 2.001610e-06 1.144591e-05 -1.616234e-06 6.785343e-06 -6.217567e-06 8.854682e-07 -1.141287e-05 -5.590903e-06 -1.656375e-05 -1.171767e-05 -2.085445e-05 -1.645414e-05 -2.343415e-05 -1.885952e-05 -2.360652e-05 -1.832404e-05 -2.102069e-05 -1.475210e-05 -1.580793e-05 -8.638599e-06 -8.616363e-06 -1.005758e-06 -5.213195e-07 6.792871e-06 7.176158e-06 1.335542e-05 1.321685e-05 1.753014e-05 1.664985e-05 1.865262e-05 1.702874e-05 1.666300e-05 1.448680e-05 1.207872e-05 9.674865e-06 5.838901e-06 3.584750e-06 -9.294637e-07 -2.687647e-06 -7.157385e-06 -8.173088e-06 -1.203029e-05 -1.219667e-05 -1.509632e-05 -1.445161e-05 -1.627785e-05 -1.497948e-05 -1.580433e-05 -1.408223e-05 -1.410001e-05 -1.220318e-05 -1.166243e-05 -9.812231e-06 -8.959996e-06 -7.319489e-06 -6.363797e-06 -5.027096e-06 -4.117068e-06 -3.116757e-06 -2.336165e-06 -1.662988e-06 -1.032869e-06 -6.598539e-07 -1.471498e-07 -5.061551e-08 4.186090e-07 2.465976e-07 7.700567e-07 3.201040e-07 9.993469e-07 2.530045e-07 1.172733e-06 1.169626e-07 1.326753e-06 -3.049669e-08 1.471344e-06 -1.467039e-07 1.597530e-06 -2.034628e-07 1.687037e-06 -1.859367e-07 1.721398e-06 -9.092460e-08 1.688739e-06 7.537427e-08 1.587402e-06 2.999480e-07 1.426526e-06 5.656898e-07 1.224454e-06 8.540389e-07 1.006129e-06 1.147394e-06 8.005564e-07 1.431213e-06 6.390445e-07 1.695769e-06 5.544842e-07 1.937548e-06 5.814985e-07 2.160230e-06 7.570004e-07 2.375142e-06 
2.580828e-07 1.516346e-06 -2.337974e-07 4.262306e-07 -8.426042e-07 -1.074825e-06 -1.590702e-06 -3.013487e-06 -2.488804e-06 -5.387223e-06 -3.526961e-06 -8.148366e-06 -4.664436e-06 -1.118675e-05 -5.820087e-06 -1.431463e-05 -6.865950e-06 -1.725974e-05 -7.627807e-06 -1.967362e-05 -7.896912e-06 -2.116251e-05 -7.456377e-06 -2.134470e-05 -6.123083e-06 -1.993174e-05 -3.801476e-06 -1.682080e-05 -5.394970e-07 -1.217551e-05 3.428789e-06 -6.465999e-06 7.672089e-06 -4.418040e-07 1.159750e-05 4.974567e-06 1.453787e-05 8.861940e-06 1.588056e-05 1.050560e-05 1.521095e-05 9.579219e-06 1.243408e-05 6.249290e-06 7.838056e-06 1.166459e-06 2.074636e-06 -4.660596e-06 -3.946996e-06 -1.007933e-05 -9.234290e-06 -1.404144e-05 -1.291446e-05 -1.582189e-05 -1.441721e-05 -1.515547e-05 -1.358994e-05 -1.226073e-05 -1.071485e-05 -7.753182e-06 -6.424433e-06 -2.478464e-06 -1.541521e-06 2.685047e-06 3.109217e-06 7.002433e-06 6.866414e-06 9.998508e-06 9.334651e-06 1.149781e-05 1.040926e-05 1.159478e-05 1.023271e-05 1.057666e-05 9.108853e-06 8.827586e-06 7.406334e-06 6.739252e-06 5.476679e-06 4.644482e-06 3.601425e-06 2.780417e-06 1.970584e-06 1.279417e-06 6.861937e-07 1.809226e-07 -2.193955e-07 -5.443530e-07 -7.606260e-07 -9.660016e-07 -9.785843e-07 -1.167526e-06 -9.271184e-07 -1.226002e-06 -6.653433e-07 -1.199624e-06 -2.544869e-07 -1.123125e-06 2.436841e-07 -1.009651e-06 7.690334e-07 -8.568378e-07 1.266686e-06 -6.545916e-07 1.691597e-06 -3.924695e-07 2.012671e-06 -6.524034e-08 2.214961e-06 3.239055e-07 2.299117e-06 7.623375e-07 2.278189e-06 1.228556e-06 2.172684e-06 1.693622e-06 2.005095e-06 2.122771e-06 1.795022e-06 2.476775e-06 1.555567e-06 2.712810e-06 1.291230e-06 2.784874e-06 9.971976e-07 2.643996e-06 6.598157e-07 2.238696e-06 
1.385228e-06 3.716985e-06 2.154973e-06 4.071037e-06 3.313084e-06 4.520879e-06 4.919356e-06 5.108850e-06 7.015633e-06 5.864677e-06 9.605783e-06 6.789289e-06 1.262912e-05 7.834298e-06 1.593000e-05 8.879710e-06 1.922988e-05 9.715316e-06 2.211249e-05 1.003446e-05 2.403612e-05 9.451246e-06 2.438734e-05 7.551771e-06 2.258508e-05 3.984424e-06 1.823017e-05 -1.417586e-06 1.127532e-05 -8.505262e-06 2.169277e-06 -1.671507e-05 -8.084239e-06 -2.505106e-05 -1.800471e-05 -3.218690e-05 -2.587026e-05 -3.669612e-05 -3.007880e-05 -3.737398e-05 -2.955050e-05 -3.357161e-05 -2.405579e-05 -2.544267e-05 -1.436115e-05 -1.401596e-05 -2.131913e-06 -1.052006e-06 1.039758e-05 1.129610e-05 2.090637e-05 2.093877e-05 2.749616e-05 2.630607e-05 2.909398e-05 2.668277e-05 2.564584e-05 2.233295e-05 1.805997e-05 1.438497e-05 7.930275e-06 4.518714e-06 -2.869940e-06 -5.446752e-06 -1.260557e-05 -1.394577e-05 -2.000185e-05 -1.993911e-05 -2.440746e-05 -2.301774e-05 -2.579018e-05 -2.334525e-05 -2.460354e-05 -2.148995e-05 -2.158683e-05 -1.821527e-05 -1.756110e-05 -1.428910e-05 -1.326648e-05 -1.035004e-05 -9.262469e-06 -6.841895e-06 -5.891572e-06 -4.007478e-06 -3.292732e-06 -1.921395e-06 -1.445561e-06 -5.401192e-07 -2.271267e-07 2.479361e-07 5.325741e-07 5.823446e-07 1.005102e-06 6.038188e-07 1.332111e-06 4.391053e-07 1.608745e-06 1.940706e-07 1.880479e-06 -4.856551e-08 2.150540e-06 -2.292470e-07 2.394036e-06 -3.104478e-07 2.574469e-06 -2.746473e-07 2.658642e-06 -1.214050e-07 2.627028e-06 1.363489e-07 2.478435e-06 4.764824e-07 2.229490e-06 8.718749e-07 1.910729e-06 1.294319e-06 1.561481e-06 1.717897e-06 1.225410e-06 2.121781e-06 9.478005e-07 2.492490e-06 7.748801e-07 2.825674e-06 7.547640e-07 3.127438e-06 9.392259e-07 3.415084e-06 
4.753462e-07 2.555743e-06 -1.744745e-07 1.170231e-06 -9.894976e-07 -7.877377e-07 -2.009584e-06 -3.375991e-06 -3.261889e-06 -6.619729e-06 -4.748208e-06 -1.048772e-05 -6.429468e-06 -1.486361e-05 -8.209075e-06 -1.951685e-05 -9.918707e-06 -2.408156e-05 -1.131223e-05 -2.805528e-05 -1.207506e-05 -3.083151e-05 -1.185638e-05 -3.177715e-05 -1.032873e-05 -3.035657e-05 -7.272994e-06 -2.628738e-05 -2.675944e-06 -1.969260e-05 3.184011e-06 -1.119795e-05 9.695898e-06 -1.921445e-06 1.595171e-05 6.676813e-06 2.087484e-05 1.307477e-05 2.342992e-05 1.603933e-05 2.287100e-05 1.495206e-05 1.896244e-05 1.000869e-05 1.210460e-05 2.222735e-06 3.316695e-06 -6.778994e-06 -5.934318e-06 -1.511867e-05 -1.402740e-05 -2.109158e-05 -1.953603e-05 -2.353987e-05 -2.154355e-05 -2.208054e-05 -1.983997e-05 -1.713594e-05 -1.494460e-05 -9.771774e-06 -7.949259e-06 -1.401067e-06 -2.316989e-07 6.555219e-06 6.872436e-06 1.295885e-05 1.234482e-05 1.713139e-05 1.563973e-05 1.889572e-05 1.669932e-05 1.850151e-05 1.585415e-05 1.647960e-05 1.366195e-05 1.347697e-05 1.074134e-05 1.011375e-05 7.642397e-06 6.886137e-06 4.773550e-06 4.121028e-06 2.382738e-06 1.975045e-06 5.776722e-07 4.639063e-07 -6.346391e-07 -4.929222e-07 -1.306441e-06 -1.025106e-06 -1.516951e-06 -1.270786e-06 -1.353302e-06 -1.347494e-06 -9.031213e-07 -1.336380e-06 -2.539112e-07 -1.278851e-06 5.061905e-07 -1.182752e-06 1.290192e-06 -1.034122e-06 2.017801e-06 -8.104272e-07 2.623341e-06 -4.919738e-07 3.063078e-06 -6.961463e-08 3.319043e-06 4.516612e-07 3.397859e-06 1.052551e-06 3.324967e-06 1.701423e-06 3.136100e-06 2.357175e-06 2.868345e-06 2.971931e-06 2.552691e-06 3.492956e-06 2.209008e-06 3.863548e-06 1.843558e-06 4.022989e-06 1.448542e-06 3.905936e-06 1.003095e-06 3.441907e-06 
1.457419e-06 4.923136e-06 2.333810e-06 5.352596e-06 3.722768e-06 5.915816e-06 5.723274e-06 6.680549e-06 8.421149e-06 7.703320e-06 1.186214e-05 9.007425e-06 1.601289e-05 1.055262e-05 2.071176e-05 1.219885e-05 2.561700e-05 1.367079e-05 3.016737e-05 1.453608e-05 3.357805e-05 1.421530e-05 3.489907e-05 1.204420e-05 3.315838e-05 7.402766e-06 2.759241e-05 -9.182106e-08 1.793301e-05 -1.036014e-05 4.677277e-06 -2.266856e-05 -1.076359e-05 -3.555722e-05 -2.613899e-05 -4.696652e-05 -3.870951e-05 -5.459083e-05 -4.583376e-05 -5.640716e-05 -4.565117e-05 -5.124525e-05 -3.765677e-05 -3.922341e-05 -2.297321e-05 -2.189521e-05 -4.209650e-06 -2.030951e-06 1.507682e-05 1.693449e-05 3.117945e-05 3.165510e-05 4.108513e-05 3.963177e-05 4.313629e-05 3.976841e-05 3.733862e-05 3.257168e-05 2.524653e-05 1.994315e-05 9.482049e-06 4.637792e-06 -6.952752e-06 -1.043601e-05 -2.136315e-05 -2.286368e-05 -3.186740e-05 -3.114823e-05 -3.762109e-05 -3.483538e-05 -3.876105e-05 -3.436936e-05 -3.614809e-05 -3.078101e-05 -3.102236e-05 -2.533137e-05 -2.467593e-05 -1.921077e-05 -1.821087e-05 -1.334765e-05 -1.240814e-05 -8.334594e-06 -7.697987e-06 -4.446876e-06 -4.203300e-06 -1.714552e-06 -1.822146e-06 -1.132009e-08 -3.210383e-07 8.660615e-07 5.807125e-07 1.140420e-06 1.146019e-06 1.020304e-06 1.578094e-06 6.843063e-07 2.001097e-06 2.762181e-07 2.460435e-06 -9.500933e-08 2.938193e-06 -3.537800e-07 3.377813e-06 -4.556922e-07 3.711297e-06 -3.843366e-07 3.882524e-06 -1.466685e-07 3.862112e-06 2.328619e-07 3.652261e-06 7.187355e-07 3.283108e-06 1.270537e-06 2.804143e-06 1.848286e-06 2.274680e-06 2.416694e-06 1.756441e-06 2.948402e-06 1.309760e-06 3.426443e-06 9.934706e-07 3.846167e-06 8.675816e-07 4.216797e-06 9.973763e-07 4.562564e-06 
7.948956e-07 4.084561e-06 -3.220992e-09 2.478251e-06 -1.020382e-06 1.244936e-07 -2.322659e-06 -3.085413e-06 -3.965925e-06 -7.232259e-06 -5.979688e-06 -1.233627e-05 -8.344985e-06 -1.831307e-05 -1.096747e-05 -2.492222e-05 -1.364968e-05 -3.171892e-05 -1.607018e-05 -3.802698e-05 -1.778151e-05 -4.295799e-05 -1.824116e-05 -4.550220e-05 -1.688818e-05 -4.470595e-05 -1.326991e-05 -3.992376e-05 -7.205615e-06 -3.109563e-05 1.048734e-06 -1.896176e-05 1.069206e-05 -5.112302e-06 2.039000e-05 8.204592e-06 2.845025e-05 1.852050e-05 3.315553e-05 2.373906e-05 3.318621e-05 2.271373e-05 2.801646e-05 1.562325e-05 1.815797e-05 4.010113e-06 5.160219e-06 -9.546553e-06 -8.658203e-06 -2.203758e-05 -2.069665e-05 -3.074034e-05 -2.866224e-05 -3.384767e-05 -3.110798e-05 -3.084220e-05 -2.776653e-05 -2.252699e-05 -1.957804e-05 -1.072595e-05 -8.402505e-06 2.236870e-06 3.489274e-06 1.411361e-05 1.398116e-05 2.320176e-05 2.156200e-05 2.860000e-05 2.554767e-05 3.022701e-05 2.605420e-05 2.865234e-05 2.378397e-05 2.482846e-05 1.972939e-05 1.981442e-05 1.489495e-05 1.455663e-05 1.010301e-05 9.757216e-06 5.904732e-06 5.829594e-06 2.581328e-06 2.921337e-06 2.022571e-07 9.773743e-07 -1.296136e-06 -1.816758e-07 -2.039501e-06 -7.848411e-07 -2.167202e-06 -1.051338e-06 -1.809855e-06 -1.151758e-06 -1.086834e-06 -1.190686e-06 -1.135260e-07 -1.208079e-06 9.918405e-07 -1.194109e-06 2.108519e-06 -1.110778e-06 3.122237e-06 -9.136307e-07 3.939420e-06 -5.686459e-07 4.500507e-06 -6.195672e-08 4.786656e-06 5.973574e-07 4.817242e-06 1.379513e-06 4.639349e-06 2.238852e-06 4.313144e-06 3.119121e-06 3.897536e-06 3.957728e-06 3.439261e-06 4.688261e-06 2.966573e-06 5.241081e-06 2.487044e-06 5.542247e-06 1.988164e-06 5.511316e-06 1.439397e-06 5.058819e-06 
1.273049e-06 6.270192e-06 2.152047e-06 6.745193e-06 3.665109e-06 7.393115e-06 5.965306e-06 8.316569e-06 9.207626e-06 9.614154e-06 1.351631e-05 1.135305e-05 1.893167e-05 1.352702e-05 2.533541e-05 1.600046e-05 3.236104e-05 1.844547e-05 3.930841e-05 2.028892e-05 4.509728e-05 2.069775e-05 4.830823e-05 1.863966e-05 4.735997e-05 1.305348e-05 4.084894e-05 3.141388e-06 2.802123e-05 -1.125261e-05 9.268422e-06 -2.927723e-05 -1.353304e-05 -4.887495e-05 -3.703883e-05 -6.690627e-05 -5.693666e-05 -7.967743e-05 -6.889231e-05 -8.380423e-05 -6.970954e-05 -7.718625e-05 -5.834007e-05 -5.977843e-05 -3.638901e-05 -3.388134e-05 -7.914018e-06 -3.813449e-06 2.145441e-05 2.498316e-05 4.583197e-05 4.718224e-05 6.047254e-05 5.882933e-05 6.285143e-05 5.826484e-05 5.315016e-05 4.644533e-05 3.402890e-05 2.656932e-05 9.787884e-06 3.137120e-06 -1.479815e-05 -1.924026e-05 -3.560742e-05 -3.690469e-05 -4.995104e-05 -4.779378e-05 -5.685407e-05 -5.155512e-05 -5.686992e-05 -4.921554e-05 -5.159133e-05 -4.260741e-05 -4.306385e-05 -3.377179e-05 -3.327308e-05 -2.449836e-05 -2.380213e-05 -1.607201e-05 -1.567922e-05 -9.215353e-06 -9.382370e-06 -4.168673e-06 -4.943745e-06 -8.356972e-07 -2.096812e-06 1.065271e-06 -4.235547e-07 1.881610e-06 5.231577e-07 1.950963e-06 1.132132e-06 1.565406e-06 1.682191e-06 9.616829e-07 2.322898e-06 3.234270e-07 3.082621e-06 -2.142448e-07 3.897602e-06 -5.613728e-07 4.653669e-06 -6.703415e-07 5.230311e-06 -5.315241e-07 5.536709e-06 -1.662380e-07 5.532284e-06 3.824716e-07 5.229765e-06 1.059648e-06 4.684446e-06 1.807245e-06 3.976672e-06 2.571034e-06 3.194771e-06 3.305442e-06 2.423268e-06 3.976716e-06 1.738130e-06 4.565033e-06 1.208340e-06 5.066132e-06 9.018050e-07 5.492888e-06 8.933932e-07 5.876948e-06 
1.223639e-06 6.257633e-06 2.940154e-07 4.543032e-06 -9.119851e-07 1.900307e-06 -2.497074e-06 -1.854234e-06 -4.562126e-06 -6.894686e-06 -7.187724e-06 -1.334497e-05 -1.040503e-05 -2.121620e-05 -1.415513e-05 -3.032276e-05 -1.823992e-05 -4.018761e-05 -2.227377e-05 -4.996159e-05 -2.565330e-05 -5.839808e-05 -2.757071e-05 -6.393521e-05 -2.709889e-05 -6.493017e-05 -2.336890e-05 -6.005299e-05 -1.583506e-05 -4.877829e-05 -4.580246e-06 -3.183142e-05 9.435041e-06 -1.139287e-05 2.430538e-05 9.111721e-06 3.739852e-05 2.568575e-05 4.587696e-05 3.476430e-05 4.741776e-05 3.424400e-05 4.092269e-05 2.418678e-05 2.698453e-05 6.937790e-06 7.936778e-06 -1.340311e-05 -1.256485e-05 -3.200378e-05 -3.034799e-05 -4.451449e-05 -4.172097e-05 -4.812739e-05 -4.439445e-05 -4.218979e-05 -3.805395e-05 -2.821826e-05 -2.439311e-05 -9.343434e-06 -6.586921e-06 1.061040e-05 1.161815e-05 2.810662e-05 2.688475e-05 4.064853e-05 3.701960e-05 4.713056e-05 4.127244e-05 4.777558e-05 4.019263e-05 4.377485e-05 3.518690e-05 3.680274e-05 2.798317e-05 2.856309e-05 2.017577e-05 2.046495e-05 1.294879e-05 1.345982e-05 6.989725e-06 8.020863e-06 2.548055e-06 4.219147e-06 -4.303580e-07 1.847320e-06 -2.156547e-06 5.511438e-07 -2.882384e-06 -5.674058e-08 -2.833676e-06 -3.135902e-07 -2.190522e-06 -4.579490e-07 -1.100113e-06 -6.141545e-07 2.980107e-07 -8.044453e-07 1.852495e-06 -9.797141e-07 3.397752e-06 -1.057756e-06 4.770030e-06 -9.582138e-07 5.834209e-06 -6.267256e-07 6.508720e-06 -4.577075e-08 6.777473e-06 7.658412e-07 6.684343e-06 1.760480e-06 6.313607e-06 2.871671e-06 5.764495e-06 4.023198e-06 5.128242e-06 5.135458e-06 4.472694e-06 6.128471e-06 3.835442e-06 6.921668e-06 3.223512e-06 7.431021e-06 2.616582e-06 7.564252e-06 1.971066e-06 7.215068e-06 
7.690376e-07 7.835604e-06 1.505744e-06 8.310107e-06 2.978877e-06 8.989307e-06 5.409935e-06 1.002015e-05 9.052461e-06 1.156196e-05 1.415791e-05 1.375605e-05 2.090976e-05 1.667190e-05 2.931794e-05 2.022583e-05 3.907435e-05 2.407645e-05 4.938896e-05 2.751608e-05 5.885459e-05 2.939872e-05 6.542109e-05 2.816762e-05 6.657854e-05 2.205491e-05 5.982908e-05 9.503950e-06 4.344473e-05 -1.020733e-05 1.736380e-05 -3.628317e-05 -1.608013e-05 -6.593274e-05 -5.198481e-05 -9.441272e-05 -8.355593e-05 -1.157931e-04 -1.036359e-04 -1.243772e-04 -1.066991e-04 -1.163878e-04 -9.064969e-05 -9.134707e-05 -5.776102e-05 -5.264071e-05 -1.438699e-05 -7.024528e-06 3.049574e-05 3.683309e-05 6.748679e-05 7.039972e-05 8.907373e-05 8.737312e-05 9.141558e-05 8.523124e-05 7.511036e-05 6.576208e-05 4.475076e-05 3.439014e-05 7.446216e-06 -1.476525e-06 -2.917673e-05 -3.450107e-05 -5.883894e-05 -5.918020e-05 -7.780080e-05 -7.280210e-05 -8.515900e-05 -7.545830e-05 -8.236720e-05 -6.932365e-05 -7.231531e-05 -5.760705e-05 -5.833989e-05 -4.356324e-05 -4.343894e-05 -2.981264e-05 -2.981414e-05 -1.804110e-05 -1.873231e-05 -9.018236e-06 -1.061993e-05 -2.808476e-06 -5.282221e-06 9.530381e-07 -2.154176e-06 2.813736e-06 -5.238954e-07 3.333262e-06 2.986728e-07 2.995960e-06 8.717289e-07 2.186469e-06 1.563669e-06 1.199015e-06 2.538534e-06 2.548781e-07 3.777673e-06 -4.860232e-07 5.130361e-06 -9.213734e-07 6.382624e-06 -1.005167e-06 7.328487e-06 -7.428561e-07 7.826025e-06 -1.806096e-07 7.825211e-06 6.095053e-07 7.364953e-06 1.544713e-06 6.547541e-06 2.543987e-06 5.504576e-06 3.536472e-06 4.367364e-06 4.466160e-06 3.249179e-06 5.293993e-06 2.240573e-06 5.998671e-06 1.414892e-06 6.577288e-06 8.398561e-07 7.046534e-06 5.916474e-07 7.444869e-06 
1.746733e-06 9.238720e-06 7.108731e-07 7.576202e-06 -6.572433e-07 4.816749e-06 -2.507791e-06 6.757901e-07 -5.006366e-06 -5.160873e-06 -8.316668e-06 -1.299378e-05 -1.256602e-05 -2.302917e-05 -1.778867e-05 -3.525330e-05 -2.384611e-05 -4.926589e-05 -3.033246e-05 -6.410101e-05 -3.648780e-05 -7.809771e-05 -4.115981e-05 -8.891697e-05 -4.286992e-05 -9.381209e-05 -4.003947e-05 -9.021569e-05 -3.140090e-05 -7.658984e-05 -1.654502e-05 -5.331582e-05 3.549115e-06 -2.325519e-05 2.624313e-05 8.394889e-06 4.746361e-05 3.512702e-05 6.251161e-05 5.083767e-05 6.729779e-05 5.168417e-05 5.962309e-05 3.740594e-05 4.006151e-05 1.160661e-05 1.212296e-05 -1.912037e-05 -1.839967e-05 -4.693854e-05 -4.476420e-05 -6.484379e-05 -6.096997e-05 -6.845908e-05 -6.335055e-05 -5.704429e-05 -5.157593e-05 -3.345494e-05 -2.869783e-05 -3.109120e-06 -1.819497e-07 2.765653e-05 2.773909e-05 5.327312e-05 4.978870e-05 7.014339e-05 6.284967e-05 7.708621e-05 6.632694e-05 7.505869e-05 6.172156e-05 6.641903e-05 5.173986e-05 5.406085e-05 3.933540e-05 4.068326e-05 2.698329e-05 2.833329e-05 1.631500e-05 1.823531e-05 8.087561e-06 1.084365e-05 2.373585e-06 6.024649e-06 -1.161160e-06 3.282732e-06 -2.998972e-06 1.971696e-06 -3.590880e-06 1.460688e-06 -3.273626e-06 1.245092e-06 -2.268305e-06 1.003030e-06 -7.287935e-07 6.028593e-07 1.196654e-06 7.065285e-08 3.322157e-06 -4.682835e-07 5.417873e-06 -8.554848e-07 7.241284e-06 -9.548854e-07 8.589555e-06 -6.861793e-07 9.347298e-06 -3.401548e-08 9.507846e-06 9.609167e-07 9.160682e-06 2.219682e-06 8.453850e-06 3.643745e-06 7.548861e-06 5.129627e-06 6.583965e-06 6.577723e-06 5.653570e-06 7.895308e-06 4.803164e-06 8.994640e-06 4.034298e-06 9.787257e-06 3.313265e-06 1.017547e-05 2.578830e-06 1.004200e-05 
-1.070380e-07 9.738104e-06 2.973682e-07 1.014852e-05 1.493931e-06 1.077281e-05 3.780954e-06 1.180824e-05 7.538719e-06 1.349377e-05 1.320366e-05 1.608298e-05 2.119833e-05 1.978247e-05 3.179592e-05 2.464271e-05 4.490479e-05 3.039619e-05 5.978212e-05 3.625815e-05 7.473326e-05 4.074103e-05 8.692030e-05 4.158123e-05 9.246655e-05 3.591772e-05 8.705250e-05 2.085912e-05 6.709258e-05 -5.519771e-06 3.132903e-05 -4.292283e-05 -1.765966e-05 -8.776781e-05 -7.278515e-05 -1.329384e-04 -1.232811e-04 -1.688491e-04 -1.571884e-04 -1.858073e-04 -1.648528e-04 -1.769878e-04 -1.421825e-04 -1.409349e-04 -9.239719e-05 -8.263788e-05 -2.559045e-05 -1.276811e-05 4.374093e-05 5.472348e-05 1.004073e-04 1.060117e-04 1.323948e-04 1.309170e-04 1.338281e-04 1.255532e-04 1.062060e-04 9.323960e-05 5.754985e-05 4.329168e-05 -2.358930e-07 -1.193480e-05 -5.485441e-05 -6.065873e-05 -9.674271e-05 -9.463397e-05 -1.208760e-04 -1.105420e-04 -1.269409e-04 -1.096675e-04 -1.182191e-04 -9.637948e-05 -9.986838e-05 -7.622325e-05 -7.727039e-05 -5.430828e-05 -5.486389e-05 -3.435042e-05 -3.558944e-05 -1.839543e-05 -2.085337e-05 -7.040875e-06 -1.081879e-05 9.609243e-08 -4.827391e-06 3.884158e-06 -1.809218e-06 5.293562e-06 -6.052777e-07 5.172685e-06 -1.846052e-07 4.170304e-06 2.305633e-07 2.752331e-06 1.108801e-06 1.254594e-06 2.605883e-06 -7.231228e-08 4.606200e-06 -1.044505e-06 6.804955e-06 -1.547313e-06 8.819681e-06 -1.541764e-06 1.030667e-05 -1.060823e-06 1.105028e-05 -1.919456e-07 1.100052e-05 9.480384e-07 1.025484e-05 2.237034e-06 9.002697e-06 3.565002e-06 7.461075e-06 4.843170e-06 5.824824e-06 6.006874e-06 4.242051e-06 7.014785e-06 2.812819e-06 7.846940e-06 1.603165e-06 8.503318e-06 6.661740e-07 9.004056e-06 6.464989e-08 9.392035e-06 
2.314121e-06 1.318713e-05 1.204755e-06 1.179211e-05 -2.827241e-07 9.173837e-06 -2.354461e-06 4.925071e-06 -5.261725e-06 -1.459569e-06 -9.291823e-06 -1.055073e-05 -1.473449e-05 -2.289589e-05 -2.181098e-05 -3.884974e-05 -3.055576e-05 -5.830858e-05 -4.065164e-05 -8.036717e-05 -5.124152e-05 -1.029791e-04 -6.077481e-05 -1.227840e-04 -6.698718e-05 -1.353265e-04 -6.713843e-05 -1.358695e-04 -5.861041e-05 -1.208198e-04 -3.985435e-05 -8.945244e-05 -1.146575e-05 -4.525527e-05 2.306640e-05 3.915998e-06 5.746415e-05 4.736648e-05 8.390357e-05 7.453556e-05 9.516340e-05 7.839946e-05 8.695819e-05 5.796621e-05 5.959707e-05 1.887548e-05 1.837387e-05 -2.809958e-05 -2.746077e-05 -7.008570e-05 -6.690740e-05 -9.568338e-05 -9.008668e-05 -9.802393e-05 -9.101920e-05 -7.644694e-05 -6.942852e-05 -3.632543e-05 -3.083184e-05 1.286512e-05 1.524763e-05 6.052286e-05 5.831396e-05 9.785612e-05 8.998027e-05 1.198060e-04 1.059470e-04 1.255163e-04 1.063381e-04 1.175428e-04 9.462779e-05 1.003838e-04 7.587621e-05 7.896008e-05 5.504297e-05 5.747244e-05 3.586913e-05 3.880197e-05 2.046150e-05 2.440311e-05 9.443126e-06 1.452931e-05 2.416287e-06 8.611167e-06 -1.506119e-06 5.646595e-06 -3.267752e-06 4.523807e-06 -3.609773e-06 4.250248e-06 -2.987459e-06 4.090930e-06 -1.619921e-06 3.627863e-06 3.886198e-07 2.750523e-06 2.919084e-06 1.588318e-06 5.751851e-06 4.049822e-07 8.556027e-06 -5.143328e-07 1.095313e-05 -9.511515e-07 1.262165e-05 -7.976145e-07 1.339021e-05 -5.692288e-08 1.327524e-05 1.184185e-06 1.245141e-05 2.792081e-06 1.117711e-05 4.618513e-06 9.712961e-06 6.522483e-06 8.263583e-06 8.381099e-06 6.952864e-06 1.009126e-05 5.826761e-06 1.156453e-05 4.870292e-06 1.271728e-05 4.026573e-06 1.345725e-05 3.210471e-06 1.366737e-05 