# vtk DataFile Version 2.0
Comment goes here
ASCII

DATASET STRUCTURED_POINTS
FIELD FieldData 1
TIME 1 1 double
0.15500000
DIMENSIONS    128   128   1

ORIGIN    0.000   0.000   0.000
SPACING   0.039062 0.039062   1.000

POINT_DATA   16384
SCALARS Omega double
LOOKUP_TABLE default

3.544453e-14 4.466351e-14 3.891564e-14 4.101098e-14 3.729105e-14 2.469029e-14 2.318316e-14 4.568039e-14 6.391584e-14 7.637885e-14 7.118248e-14 3.947770e-14 4.905158e-14 2.851438e-14 1.147769e-14 -2.234295e-14 -3.158191e-14 -1.620900e-14 -2.962304e-14 -4.888097e-14 -7.027305e-14 -4.602178e-14 -5.070836e-14 -7.052885e-14 -3.792454e-14 -6.131786e-14 -2.767657e-14 -4.337887e-14 -3.248874e-14 -5.716336e-14 -2.098335e-15 -4.380191e-14 -9.190000e-14 -8.294599e-14 -4.483936e-15 -4.552698e-14 -8.013060e-14 -2.556796e-14 9.674346e-15 1.510814e-14 6.904480e-15 8.339712e-16 9.000108e-15 -1.665966e-14 5.561486e-14 2.405160e-14 5.007961e-15 -6.904988e-14 -4.769622e-14 -3.002231e-14 -2.001760e-14 -2.910632e-14 6.267614e-14 2.369167e-14 -4.222365e-14 2.166379e-14 -3.155816e-14 1.751501e-14 6.861606e-14 -2.066818e-14 3.390998e-14 -4.421295e-14 -4.797554e-15 -4.242081e-14 1.409883e-14 -3.893104e-14 7.582824e-17 -1.419934e-14 -4.079582e-14 -4.401068e-14 -5.094944e-14 -3.128070e-14 -2.433836e-14 -2.879228e-14 -1.798659e-14 -2.823249e-14 -1.815243e-14 -2.405646e-14 -4.394019e-14 -1.429448e-14 5.820203e-15 2.801517e-14 4.291824e-14 3.621243e-14 3.147734e-14 -1.431492e-14 3.703833e-14 4.535400e-14 4.379782e-14 3.911963e-14 1.377880e-14 2.515984e-15 5.864045e-15 2.430866e-14 7.906386e-15 4.385882e-15 1.937785e-14 1.501963e-14 -2.937148e-14 4.957905e-15 7.211374e-14 5.245000e-14 2.659828e-14 1.249870e-13 8.635973e-14 4.979195e-14 2.039840e-14 2.828275e-14 1.707175e-14 6.739750e-15 -1.128601e-14 3.782477e-15 6.889114e-15 -9.540490e-15 -2.712259e-14 -3.355860e-14 -3.860598e-14 -4.276058e-14 -3.531347e-14 -2.779461e-14 -2.457068e-14 -2.127437e-14 -4.517465e-15 4.156875e-16 1.050097e-14 1.036891e-14 1.895303e-14 2.555057e-14 
8.639893e-06 8.058163e-06 8.160826e-06 7.700991e-06 7.822133e-06 7.460093e-06 7.598036e-06 7.307665e-06 7.460220e-06 7.214254e-06 7.379658e-06 7.150472e-06 7.328304e-06 7.088698e-06 7.280647e-06 7.004770e-06 7.215177e-06 6.879695e-06 7.115838e-06 6.701407e-06 6.973567e-06 6.466596e-06 6.787991e-06 6.182616e-06 6.569346e-06 5.869405e-06 6.340516e-06 5.561282e-06 6.138944e-06 5.308214e-06 6.017812e-06 5.175910e-06 6.045594e-06 5.243730e-06 6.302828e-06 5.599345e-06 6.875049e-06 6.329319e-06 7.841451e-06 7.505763e-06 9.260109e-06 9.170614e-06 1.115216e-05 1.132071e-05 1.348875e-05 1.389784e-05 1.618502e-05 1.678773e-05 1.910447e-05 1.983025e-05 2.207451e-05 2.284027e-05 2.491126e-05 2.563551e-05 2.744853e-05 2.806551e-05 2.956454e-05 3.003513e-05 3.120047e-05 3.151746e-05 3.236670e-05 3.255353e-05 3.313591e-05 3.323951e-05 3.362525e-05 3.370494e-05 3.397194e-05 3.408687e-05 3.430762e-05 3.450537e-05 3.473632e-05 3.504442e-05 3.531926e-05 3.574076e-05 3.606815e-05 3.658126e-05 3.694663e-05 3.750788e-05 3.787842e-05 3.842860e-05 3.876047e-05 3.923214e-05 3.947874e-05 3.980446e-05 3.992489e-05 4.004508e-05 4.001161e-05 3.988109e-05 3.968462e-05 3.927686e-05 3.892939e-05 3.823790e-05 3.777124e-05 3.680787e-05 3.626870e-05 3.505947e-05 3.450146e-05 3.308113e-05 3.255585e-05 3.096271e-05 3.051139e-05 2.878352e-05 2.843150e-05 2.660515e-05 2.636013e-05 2.446993e-05 2.432397e-05 2.240406e-05 2.233836e-05 2.042345e-05 2.041429e-05 1.853978e-05 1.856408e-05 1.676496e-05 1.680437e-05 1.511324e-05 1.515611e-05 1.360082e-05 1.364230e-05 1.224387e-05 1.228460e-05 1.105595e-05 1.109999e-05 1.004548e-05 1.009826e-05 9.214127e-06 9.280675e-06 8.556055e-06 
1.853032e-05 1.736417e-05 1.757129e-05 1.662784e-05 1.684920e-05 1.608299e-05 1.631871e-05 1.568100e-05 1.593064e-05 1.537078e-05 1.563506e-05 1.510182e-05 1.538435e-05 1.482731e-05 1.513604e-05 1.450727e-05 1.485541e-05 1.411161e-05 1.451792e-05 1.362320e-05 1.411182e-05 1.304107e-05 1.364112e-05 1.238384e-05 1.312905e-05 1.169336e-05 1.262216e-05 1.103830e-05 1.219430e-05 1.051710e-05 1.194949e-05 1.025855e-05 1.202165e-05 1.041836e-05 1.256877e-05 1.116897e-05 1.375926e-05 1.268116e-05 1.574957e-05 1.509745e-05 1.865456e-05 1.850054e-05 2.251555e-05 2.288305e-05 2.727384e-05 2.812728e-05 3.275833e-05 3.400292e-05 3.869404e-05 4.018747e-05 4.473349e-05 4.630821e-05 5.050650e-05 5.199821e-05 5.567846e-05 5.695459e-05 6.000416e-05 6.098569e-05 6.336476e-05 6.403676e-05 6.578019e-05 6.618910e-05 6.739493e-05 6.763410e-05 6.844204e-05 6.862937e-05 6.919412e-05 6.944698e-05 6.991214e-05 7.032466e-05 7.080170e-05 7.142820e-05 7.198339e-05 7.282984e-05 7.348009e-05 7.450368e-05 7.522031e-05 7.633593e-05 7.705468e-05 7.814647e-05 7.878151e-05 7.971734e-05 8.017733e-05 8.082440e-05 8.102860e-05 8.126829e-05 8.116102e-05 8.090130e-05 8.046271e-05 7.964656e-05 7.889796e-05 7.750663e-05 7.650895e-05 7.455986e-05 7.340505e-05 7.094519e-05 6.974179e-05 6.683859e-05 6.569437e-05 6.242652e-05 6.143197e-05 5.788232e-05 5.709860e-05 5.335009e-05 5.280368e-05 4.893782e-05 4.862231e-05 4.471905e-05 4.460257e-05 4.073987e-05 4.077572e-05 3.702805e-05 3.716563e-05 3.360120e-05 3.379492e-05 3.047234e-05 3.068736e-05 2.765249e-05 2.786682e-05 2.515069e-05 2.535441e-05 2.297242e-05 2.316490e-05 2.111740e-05 2.130367e-05 1.957751e-05 1.976476e-05 1.833542e-05 
2.585386e-05 2.405392e-05 2.433995e-05 2.291486e-05 2.326130e-05 2.213771e-05 2.253937e-05 2.163791e-05 2.208799e-05 2.132589e-05 2.181894e-05 2.111220e-05 2.164695e-05 2.091265e-05 2.149445e-05 2.065349e-05 2.129592e-05 2.027664e-05 2.100235e-05 1.974503e-05 2.058575e-05 1.904815e-05 2.004427e-05 1.820767e-05 1.940776e-05 1.728310e-05 1.874394e-05 1.637706e-05 1.816415e-05 1.563924e-05 1.782727e-05 1.526693e-05 1.793902e-05 1.549951e-05 1.874297e-05 1.660298e-05 2.049988e-05 1.884208e-05 2.345360e-05 2.243973e-05 2.778569e-05 2.752856e-05 3.356623e-05 3.410423e-05 4.071258e-05 4.199359e-05 4.896975e-05 5.085068e-05 5.792293e-05 6.018750e-05 6.704517e-05 6.943806e-05 7.577366e-05 7.804429e-05 8.359912e-05 8.554517e-05 9.014812e-05 9.164903e-05 9.523983e-05 9.627286e-05 9.890488e-05 9.954088e-05 1.013637e-04 1.017449e-04 1.029714e-04 1.032773e-04 1.041429e-04 1.045519e-04 1.052749e-04 1.059294e-04 1.066789e-04 1.076603e-04 1.085361e-04 1.098517e-04 1.108779e-04 1.124600e-04 1.135909e-04 1.153074e-04 1.164427e-04 1.181148e-04 1.191209e-04 1.205458e-04 1.212812e-04 1.222569e-04 1.225972e-04 1.229461e-04 1.228068e-04 1.223948e-04 1.217483e-04 1.204979e-04 1.193815e-04 1.172750e-04 1.157877e-04 1.128621e-04 1.111494e-04 1.074833e-04 1.057129e-04 1.014095e-04 9.974275e-05 9.491428e-05 9.347988e-05 8.823678e-05 8.711323e-05 8.156035e-05 8.077043e-05 7.500895e-05 7.452623e-05 6.865828e-05 6.842256e-05 6.255471e-05 6.249103e-05 5.673426e-05 5.677063e-05 5.123609e-05 5.131599e-05 4.610770e-05 4.619610e-05 4.140286e-05 4.148611e-05 3.717467e-05 3.725603e-05 3.346699e-05 3.356016e-05 3.030698e-05 3.042954e-05 2.770030e-05 2.786830e-05 2.562929e-05 
3.698533e-05 3.453873e-05 3.490426e-05 3.292033e-05 3.332367e-05 3.170996e-05 3.215152e-05 3.080907e-05 3.128787e-05 3.011379e-05 3.063117e-05 2.952103e-05 3.008440e-05 2.893491e-05 2.956085e-05 2.827320e-05 2.898940e-05 2.747370e-05 2.831945e-05 2.650057e-05 2.752602e-05 2.535067e-05 2.661546e-05 2.406027e-05 2.563232e-05 2.271209e-05 2.466729e-05 2.144239e-05 2.386554e-05 2.044693e-05 2.343323e-05 1.998322e-05 2.363824e-05 2.036473e-05 2.480014e-05 2.194215e-05 2.726402e-05 2.506711e-05 3.135544e-05 3.003814e-05 3.731920e-05 3.703467e-05 4.525175e-05 4.605260e-05 5.504388e-05 5.685986e-05 6.635272e-05 6.898961e-05 7.861778e-05 8.178152e-05 9.112549e-05 9.446878e-05 1.031129e-04 1.062949e-04 1.138894e-04 1.166347e-04 1.229483e-04 1.250926e-04 1.300433e-04 1.315546e-04 1.352135e-04 1.361859e-04 1.387527e-04 1.393758e-04 1.411343e-04 1.416468e-04 1.429098e-04 1.435479e-04 1.446039e-04 1.455551e-04 1.466260e-04 1.479960e-04 1.492114e-04 1.510078e-04 1.523976e-04 1.545303e-04 1.560330e-04 1.583283e-04 1.598115e-04 1.620357e-04 1.633244e-04 1.652132e-04 1.661215e-04 1.674108e-04 1.677743e-04 1.682297e-04 1.679348e-04 1.673758e-04 1.663820e-04 1.646980e-04 1.630502e-04 1.602068e-04 1.580329e-04 1.540667e-04 1.515609e-04 1.465654e-04 1.439578e-04 1.380647e-04 1.355843e-04 1.289451e-04 1.267841e-04 1.195574e-04 1.178447e-04 1.101899e-04 1.089794e-04 1.010562e-04 1.003316e-04 9.230104e-05 9.199194e-05 8.401639e-05 8.402176e-05 7.626031e-05 7.647227e-05 6.907321e-05 6.939604e-05 6.248778e-05 6.284964e-05 5.653274e-05 5.688969e-05 5.123181e-05 5.156557e-05 4.660006e-05 4.691176e-05 4.263948e-05 4.294180e-05 3.933514e-05 3.964490e-05 3.665287e-05 
4.284231e-05 3.965696e-05 4.005769e-05 3.752777e-05 3.804632e-05 3.604587e-05 3.667284e-05 3.506632e-05 3.578945e-05 3.443561e-05 3.524507e-05 3.400020e-05 3.489380e-05 3.361528e-05 3.460276e-05 3.315360e-05 3.425962e-05 3.251471e-05 3.377997e-05 3.163419e-05 3.311496e-05 3.049298e-05 3.225944e-05 2.912650e-05 3.126096e-05 2.763354e-05 3.022958e-05 2.618450e-05 2.934771e-05 2.502803e-05 2.887766e-05 2.449323e-05 2.916257e-05 2.498251e-05 3.061421e-05 2.694858e-05 3.368069e-05 3.084925e-05 3.878957e-05 3.707869e-05 4.626907e-05 4.588196e-05 5.625971e-05 5.727021e-05 6.863809e-05 7.096092e-05 8.297833e-05 8.636700e-05 9.857107e-05 1.026489e-04 1.145061e-04 1.188265e-04 1.298067e-04 1.339307e-04 1.435868e-04 1.471598e-04 1.551960e-04 1.580063e-04 1.643182e-04 1.663242e-04 1.710030e-04 1.723248e-04 1.756258e-04 1.765059e-04 1.787913e-04 1.795339e-04 1.812020e-04 1.821071e-04 1.835243e-04 1.848285e-04 1.862750e-04 1.881091e-04 1.897468e-04 1.921160e-04 1.939787e-04 1.967629e-04 1.987677e-04 2.017404e-04 2.037133e-04 2.065727e-04 2.082852e-04 2.106923e-04 2.119023e-04 2.135223e-04 2.140167e-04 2.145571e-04 2.141906e-04 2.134339e-04 2.121591e-04 2.099826e-04 2.078660e-04 2.042473e-04 2.014653e-04 1.964715e-04 1.932858e-04 1.870494e-04 1.837632e-04 1.764526e-04 1.733581e-04 1.651502e-04 1.624800e-04 1.535446e-04 1.514380e-04 1.419351e-04 1.404286e-04 1.305167e-04 1.295565e-04 1.194046e-04 1.188768e-04 1.086715e-04 1.084380e-04 9.838199e-05 9.831313e-05 8.861421e-05 8.861131e-05 7.946535e-05 7.947019e-05 7.104378e-05 7.103703e-05 6.345385e-05 6.344601e-05 5.677969e-05 5.679878e-05 5.107250e-05 5.115215e-05 4.634328e-05 4.651340e-05 4.256129e-05 
5.523600e-05 5.127357e-05 5.169371e-05 4.846869e-05 4.897007e-05 4.633981e-05 4.692311e-05 4.473545e-05 4.539857e-05 4.349515e-05 4.423946e-05 4.245875e-05 4.329556e-05 4.147642e-05 4.243228e-05 4.041902e-05 4.153887e-05 3.918831e-05 4.053599e-05 3.772697e-05 3.938317e-05 3.602817e-05 3.808689e-05 3.414515e-05 3.671009e-05 3.220075e-05 3.538366e-05 3.039736e-05 3.431917e-05 2.902600e-05 3.382040e-05 2.847162e-05 3.428795e-05 2.920817e-05 3.620868e-05 3.177471e-05 4.012006e-05 3.672359e-05 4.654286e-05 4.453751e-05 5.588423e-05 5.552338e-05 6.832639e-05 6.970457e-05 8.372876e-05 8.674322e-05 1.015764e-04 1.059236e-04 1.210014e-04 1.262152e-04 1.408843e-04 1.464114e-04 1.600212e-04 1.653175e-04 1.773192e-04 1.819454e-04 1.919758e-04 1.956691e-04 2.035997e-04 2.063068e-04 2.122478e-04 2.141133e-04 2.183738e-04 2.196901e-04 2.227067e-04 2.238397e-04 2.260897e-04 2.273970e-04 2.293158e-04 2.310761e-04 2.329930e-04 2.353563e-04 2.374574e-04 2.404235e-04 2.427430e-04 2.461648e-04 2.485998e-04 2.522077e-04 2.545503e-04 2.579892e-04 2.599687e-04 2.628427e-04 2.641729e-04 2.660908e-04 2.665177e-04 2.671362e-04 2.664831e-04 2.655410e-04 2.637447e-04 2.610866e-04 2.582191e-04 2.538018e-04 2.500704e-04 2.439535e-04 2.396762e-04 2.319989e-04 2.275559e-04 2.185064e-04 2.142778e-04 2.040666e-04 2.003707e-04 1.892142e-04 1.862618e-04 1.743796e-04 1.722542e-04 1.598756e-04 1.585419e-04 1.459120e-04 1.452459e-04 1.326263e-04 1.324559e-04 1.201142e-04 1.202605e-04 1.084526e-04 1.087605e-04 9.771006e-05 9.806707e-05 8.794861e-05 8.828953e-05 7.921897e-05 7.952097e-05 7.155401e-05 7.182531e-05 6.496245e-05 6.522899e-05 5.942431e-05 5.971747e-05 5.488864e-05 
5.936141e-05 5.450227e-05 5.489361e-05 5.101662e-05 5.161075e-05 4.853141e-05 4.931295e-05 4.683454e-05 4.778369e-05 4.570164e-05 4.680250e-05 4.490788e-05 4.615668e-05 4.424045e-05 4.565251e-05 4.351183e-05 4.512618e-05 4.257373e-05 4.445453e-05 4.133120e-05 4.356576e-05 3.975595e-05 4.245033e-05 3.789849e-05 4.117229e-05 3.589884e-05 3.988176e-05 3.399616e-05 3.882818e-05 3.253733e-05 3.837260e-05 3.198203e-05 3.899356e-05 3.289802e-05 4.127678e-05 3.593579e-05 4.587613e-05 4.177013e-05 5.343556e-05 5.100229e-05 6.447216e-05 6.403035e-05 7.923803e-05 8.091397e-05 9.759553e-05 1.012739e-04 1.189487e-04 1.242666e-04 1.422653e-04 1.486585e-04 1.661991e-04 1.729950e-04 1.892953e-04 1.958313e-04 2.102301e-04 2.159710e-04 2.280305e-04 2.326564e-04 2.422217e-04 2.456667e-04 2.528705e-04 2.553082e-04 2.605217e-04 2.623033e-04 2.660493e-04 2.676125e-04 2.704602e-04 2.722306e-04 2.746969e-04 2.770024e-04 2.794749e-04 2.824877e-04 2.851815e-04 2.888922e-04 2.918404e-04 2.960643e-04 2.991358e-04 3.035425e-04 3.064809e-04 3.106402e-04 3.131132e-04 3.165496e-04 3.182063e-04 3.204556e-04 3.209851e-04 3.216480e-04 3.208361e-04 3.196217e-04 3.173972e-04 3.141498e-04 3.106134e-04 3.053182e-04 3.007418e-04 2.935055e-04 2.882983e-04 2.793110e-04 2.739519e-04 2.634397e-04 2.583929e-04 2.465784e-04 2.422109e-04 2.292951e-04 2.258216e-04 2.119908e-04 2.094568e-04 1.949072e-04 1.932137e-04 1.781783e-04 1.771334e-04 1.618962e-04 1.612762e-04 1.461651e-04 1.457680e-04 1.311285e-04 1.308076e-04 1.169680e-04 1.166440e-04 1.038802e-04 1.035353e-04 9.204763e-05 9.170851e-05 8.161150e-05 8.132899e-05 7.265417e-05 7.248467e-05 6.519193e-05 6.518365e-05 5.917650e-05 
7.304614e-05 6.719768e-05 6.749977e-05 6.271610e-05 6.317581e-05 5.925865e-05 5.987596e-05 5.661542e-05 5.738508e-05 5.456258e-05 5.548411e-05 5.287507e-05 5.396304e-05 5.134092e-05 5.263350e-05 4.977639e-05 5.134045e-05 4.804142e-05 4.997280e-05 4.605421e-05 4.847318e-05 4.380443e-05 4.684765e-05 4.136466e-05 4.517648e-05 3.890067e-05 4.362752e-05 3.668174e-05 4.247250e-05 3.509172e-05 4.210476e-05 3.463890e-05 4.305207e-05 3.595722e-05 4.597250e-05 3.978473e-05 5.161653e-05 4.690241e-05 6.074029e-05 5.802217e-05 7.396763e-05 7.363137e-05 9.162100e-05 9.382534e-05 1.135648e-04 1.181791e-04 1.391151e-04 1.457102e-04 1.670614e-04 1.749646e-04 1.958118e-04 2.042191e-04 2.236397e-04 2.317595e-04 2.489731e-04 2.561666e-04 2.706570e-04 2.765420e-04 2.881267e-04 2.926229e-04 3.014560e-04 3.047645e-04 3.112771e-04 3.138044e-04 3.185996e-04 3.208485e-04 3.245770e-04 3.270307e-04 3.302757e-04 3.332986e-04 3.364893e-04 3.402631e-04 3.436289e-04 3.481286e-04 3.516928e-04 3.566979e-04 3.603029e-04 3.654361e-04 3.687883e-04 3.735685e-04 3.762935e-04 3.801959e-04 3.818995e-04 3.844148e-04 3.847449e-04 3.854341e-04 3.841418e-04 3.826791e-04 3.796724e-04 3.758727e-04 3.712537e-04 3.650785e-04 3.591525e-04 3.506926e-04 3.439373e-04 3.333757e-04 3.263709e-04 3.139378e-04 3.072674e-04 2.932037e-04 2.873552e-04 2.718989e-04 2.671885e-04 2.505858e-04 2.471278e-04 2.296584e-04 2.273812e-04 2.093792e-04 2.080773e-04 1.899327e-04 1.893348e-04 1.714701e-04 1.713033e-04 1.541342e-04 1.541710e-04 1.380628e-04 1.381459e-04 1.233807e-04 1.234268e-04 1.101865e-04 1.101758e-04 9.854281e-05 9.849982e-05 8.846955e-05 8.844255e-05 7.994160e-05 7.998413e-05 7.288873e-05 
7.502881e-05 6.807154e-05 6.825814e-05 6.267410e-05 6.319080e-05 5.872785e-05 5.954944e-05 5.594261e-05 5.703742e-05 5.401218e-05 5.535441e-05 5.262901e-05 5.421130e-05 5.150065e-05 5.334501e-05 5.036867e-05 5.253370e-05 4.902918e-05 5.161188e-05 4.735358e-05 5.048472e-05 4.530706e-05 4.914115e-05 4.296280e-05 4.766575e-05 4.051155e-05 4.625073e-05 3.826839e-05 4.521003e-05 3.667966e-05 4.499592e-05 3.633128e-05 4.621419e-05 3.795259e-05 4.962499e-05 4.239937e-05 5.610801e-05 5.059254e-05 6.656937e-05 6.339358e-05 8.178188e-05 8.142023e-05 1.021794e-04 1.048394e-04 1.276590e-04 1.332020e-04 1.574618e-04 1.653882e-04 1.901894e-04 1.997040e-04 2.239764e-04 2.341235e-04 2.567862e-04 2.666234e-04 2.867595e-04 2.955268e-04 3.125297e-04 3.197726e-04 3.334277e-04 3.390498e-04 3.495370e-04 3.537731e-04 3.615948e-04 3.649195e-04 3.707750e-04 3.737723e-04 3.784128e-04 3.816388e-04 3.857316e-04 3.895999e-04 3.936307e-04 3.983390e-04 4.025600e-04 4.080644e-04 4.124901e-04 4.185216e-04 4.229579e-04 4.290681e-04 4.331643e-04 4.387883e-04 4.420991e-04 4.466262e-04 4.486813e-04 4.515270e-04 4.519046e-04 4.525766e-04 4.509791e-04 4.491313e-04 4.454537e-04 4.409187e-04 4.352992e-04 4.280914e-04 4.209229e-04 4.112071e-04 4.030965e-04 3.911271e-04 3.827980e-04 3.688458e-04 3.610040e-04 3.453008e-04 3.385006e-04 3.212240e-04 3.157766e-04 2.970818e-04 2.930315e-04 2.731130e-04 2.702809e-04 2.494309e-04 2.475044e-04 2.261375e-04 2.247712e-04 2.034036e-04 2.023014e-04 1.814934e-04 1.804559e-04 1.607386e-04 1.596732e-04 1.414848e-04 1.403893e-04 1.240357e-04 1.229685e-04 1.086125e-04 1.076606e-04 9.533420e-05 9.458599e-05 8.421613e-05 8.374349e-05 7.518034e-05 
9.002192e-05 8.176121e-05 8.168088e-05 7.488262e-05 7.508637e-05 6.948866e-05 6.997236e-05 6.530127e-05 6.605164e-05 6.202203e-05 6.303194e-05 5.934830e-05 6.063284e-05 5.699265e-05 5.860305e-05 5.470492e-05 5.673687e-05 5.229509e-05 5.488910e-05 4.965494e-05 5.298752e-05 4.677589e-05 5.104331e-05 4.376115e-05 4.916057e-05 4.083280e-05 4.754749e-05 3.833657e-05 4.653245e-05 3.674981e-05 4.658687e-05 3.669543e-05 4.835105e-05 3.895665e-05 5.264847e-05 4.447257e-05 6.046092e-05 5.428276e-05 7.283262e-05 6.939171e-05 9.068687e-05 9.055169e-05 1.145771e-04 1.180076e-04 1.444384e-04 1.512858e-04 1.794312e-04 1.891162e-04 2.179510e-04 2.295404e-04 2.578306e-04 2.701992e-04 2.966926e-04 3.087318e-04 3.323660e-04 3.431835e-04 3.632568e-04 3.723209e-04 3.885861e-04 3.957829e-04 4.084465e-04 4.140444e-04 4.236778e-04 4.282158e-04 4.356071e-04 4.397404e-04 4.457244e-04 4.500652e-04 4.553695e-04 4.603580e-04 4.654956e-04 4.713225e-04 4.765422e-04 4.831294e-04 4.884195e-04 4.954475e-04 5.005768e-04 5.075442e-04 5.121213e-04 5.184164e-04 5.219566e-04 5.269330e-04 5.289271e-04 5.319752e-04 5.319619e-04 5.325711e-04 5.302142e-04 5.280216e-04 5.231863e-04 5.180048e-04 5.108220e-04 5.026419e-04 4.935381e-04 4.824971e-04 4.721652e-04 4.584895e-04 4.477900e-04 4.317256e-04 4.215338e-04 4.032986e-04 3.943421e-04 3.741234e-04 3.668602e-04 3.448628e-04 3.394344e-04 3.159502e-04 3.122152e-04 2.876749e-04 2.852989e-04 2.602759e-04 2.588427e-04 2.340013e-04 2.331121e-04 2.091220e-04 2.084609e-04 1.859096e-04 1.852734e-04 1.646030e-04 1.638987e-04 1.453808e-04 1.446048e-04 1.283483e-04 1.275562e-04 1.135371e-04 1.128126e-04 1.009103e-04 1.003394e-04 9.036950e-05 
8.927668e-05 7.963997e-05 7.932998e-05 7.153860e-05 7.174700e-05 6.546821e-05 6.615245e-05 6.104390e-05 6.215211e-05 5.786120e-05 5.935000e-05 5.551246e-05 5.736583e-05 5.360764e-05 5.585419e-05 5.180081e-05 5.452590e-05 4.982111e-05 5.316987e-05 4.750426e-05 5.167304e-05 4.481911e-05 5.003559e-05 4.188335e-05 4.838027e-05 3.896652e-05 4.695768e-05 3.648399e-05 4.615307e-05 3.499204e-05 4.650221e-05 3.519477e-05 4.871864e-05 3.796387e-05 5.372046e-05 4.435036e-05 6.262255e-05 5.554469e-05 7.664726e-05 7.273823e-05 9.692101e-05 9.687221e-05 1.241746e-04 1.283225e-04 1.584289e-04 1.666256e-04 1.987843e-04 2.103647e-04 2.434172e-04 2.572877e-04 2.898147e-04 3.046487e-04 3.351989e-04 3.496876e-04 3.770259e-04 3.901176e-04 4.134281e-04 4.244977e-04 4.434930e-04 4.524060e-04 4.673231e-04 4.743899e-04 4.858838e-04 4.917254e-04 5.006941e-04 5.060597e-04 5.134465e-04 5.190279e-04 5.256460e-04 5.319300e-04 5.383420e-04 5.455253e-04 5.519920e-04 5.599637e-04 5.664531e-04 5.748307e-04 5.810658e-04 5.892640e-04 5.947885e-04 6.021018e-04 6.063502e-04 6.120395e-04 6.144123e-04 6.177890e-04 6.177362e-04 6.182398e-04 6.153554e-04 6.126151e-04 6.067375e-04 6.006093e-04 5.919092e-04 5.824747e-04 5.714985e-04 5.590146e-04 5.466454e-04 5.314465e-04 5.187653e-04 5.011470e-04 4.892188e-04 4.693542e-04 4.590068e-04 4.369442e-04 4.286163e-04 4.043683e-04 3.980760e-04 3.717594e-04 3.671799e-04 3.391365e-04 3.357639e-04 3.066038e-04 3.039150e-04 2.744623e-04 2.720409e-04 2.432084e-04 2.408041e-04 2.134476e-04 2.109748e-04 1.857768e-04 1.832762e-04 1.606854e-04 1.582718e-04 1.384995e-04 1.363141e-04 1.193700e-04 1.175443e-04 1.032895e-04 1.019238e-04 9.012325e-05 
1.055733e-04 9.418830e-05 9.333431e-05 8.389626e-05 8.352563e-05 7.569746e-05 7.579411e-05 6.922956e-05 6.976189e-05 6.410130e-05 6.504517e-05 5.991195e-05 6.127582e-05 5.627738e-05 5.812494e-05 5.286195e-05 5.532694e-05 4.941369e-05 5.270142e-05 4.579798e-05 5.017041e-05 4.202333e-05 4.776908e-05 3.825376e-05 4.565011e-05 3.480578e-05 4.408511e-05 3.213539e-05 4.347003e-05 3.082843e-05 4.434494e-05 3.161041e-05 4.743406e-05 3.538191e-05 5.369568e-05 4.325721e-05 6.434117e-05 5.654954e-05 8.075852e-05 7.663371e-05 1.042879e-04 1.046559e-04 1.358606e-04 1.411440e-04 1.756017e-04 1.856542e-04 2.225519e-04 2.366102e-04 2.746441e-04 2.914315e-04 3.289789e-04 3.469408e-04 3.823323e-04 3.999369e-04 4.317514e-04 4.477734e-04 4.750756e-04 4.887915e-04 5.112555e-04 5.225120e-04 5.404093e-04 5.495614e-04 5.636304e-04 5.713786e-04 5.826171e-04 5.897909e-04 5.992268e-04 6.065709e-04 6.150642e-04 6.230744e-04 6.311897e-04 6.400278e-04 6.479915e-04 6.574813e-04 6.652083e-04 6.748933e-04 6.820537e-04 6.912857e-04 6.973808e-04 7.054150e-04 7.098484e-04 7.159334e-04 7.180790e-04 7.215358e-04 7.208117e-04 7.211003e-04 7.170580e-04 7.138251e-04 7.062570e-04 6.993606e-04 6.884115e-04 6.779144e-04 6.641582e-04 6.502776e-04 6.347061e-04 6.177169e-04 6.016031e-04 5.817249e-04 5.663808e-04 5.437075e-04 5.302148e-04 5.047425e-04 4.937518e-04 4.655074e-04 4.571713e-04 4.263807e-04 4.204238e-04 3.876291e-04 3.835077e-04 3.495713e-04 3.466562e-04 3.126467e-04 3.103712e-04 2.773823e-04 2.753290e-04 2.443051e-04 2.422318e-04 2.138541e-04 2.116768e-04 1.863308e-04 1.840844e-04 1.618912e-04 1.596831e-04 1.405649e-04 1.385317e-04 1.222817e-04 1.205543e-04 1.068937e-04 
1.013267e-04 8.824419e-05 8.701108e-05 7.633967e-05 7.589762e-05 6.720649e-05 6.748228e-05 6.034053e-05 6.124734e-05 5.521495e-05 5.667737e-05 5.129582e-05 5.327797e-05 4.806730e-05 5.060068e-05 4.506914e-05 4.827410e-05 4.194492e-05 4.603798e-05 3.849328e-05 4.377388e-05 3.470984e-05 4.152481e-05 3.080614e-05 3.949836e-05 2.719773e-05 3.805406e-05 2.446640e-05 3.768521e-05 2.331821e-05 3.901548e-05 2.457007e-05 4.283227e-05 2.918831e-05 5.015787e-05 3.836304e-05 6.231283e-05 5.354322e-05 8.087839e-05 7.632493e-05 1.074668e-04 1.081277e-04 1.432913e-04 1.497115e-04 1.886569e-04 2.007109e-04 2.425828e-04 2.594010e-04 3.027419e-04 3.228306e-04 3.657819e-04 3.873081e-04 4.279387e-04 4.490958e-04 4.857569e-04 5.051039e-04 5.367114e-04 5.534018e-04 5.795777e-04 5.934337e-04 6.144872e-04 6.259193e-04 6.426892e-04 6.525003e-04 6.661107e-04 6.752418e-04 6.868371e-04 6.961195e-04 7.066404e-04 7.166108e-04 7.266565e-04 7.374661e-04 7.472555e-04 7.586752e-04 7.680870e-04 7.795792e-04 7.882290e-04 7.990484e-04 8.063680e-04 8.156664e-04 8.209721e-04 8.278969e-04 8.304560e-04 8.342444e-04 8.333570e-04 8.334200e-04 8.285303e-04 8.245213e-04 8.153619e-04 8.072169e-04 7.939654e-04 7.818990e-04 7.652916e-04 7.497188e-04 7.310359e-04 7.124116e-04 6.932798e-04 6.718961e-04 6.539383e-04 6.297853e-04 6.142422e-04 5.870347e-04 5.745102e-04 5.438991e-04 5.343198e-04 5.001960e-04 4.929751e-04 4.557166e-04 4.500327e-04 4.105746e-04 4.056458e-04 3.653467e-04 3.606124e-04 3.209871e-04 3.161684e-04 2.786020e-04 2.736663e-04 2.392082e-04 2.342864e-04 2.035675e-04 1.988675e-04 1.721251e-04 1.678642e-04 1.450307e-04 1.413932e-04 1.222013e-04 1.193167e-04 1.033904e-04 
1.189067e-04 1.034597e-04 1.012615e-04 8.834609e-05 8.693366e-05 7.612133e-05 7.545104e-05 6.631216e-05 6.631458e-05 5.840493e-05 5.901883e-05 5.186786e-05 5.307903e-05 4.618528e-05 4.806402e-05 4.090438e-05 4.363263e-05 3.569079e-05 3.956880e-05 3.038461e-05 3.580869e-05 2.504306e-05 3.245390e-05 1.995540e-05 2.976701e-05 1.562120e-05 2.815113e-05 1.269714e-05 2.812375e-05 1.193703e-05 3.030771e-05 1.416807e-05 3.547068e-05 2.034272e-05 4.462701e-05 3.165965e-05 5.915620e-05 4.966303e-05 8.081645e-05 7.616816e-05 1.115141e-04 1.129016e-04 1.527915e-04 1.609029e-04 2.051781e-04 2.199149e-04 2.676843e-04 2.880557e-04 3.376934e-04 3.619549e-04 4.113389e-04 4.373393e-04 4.842477e-04 5.098715e-04 5.524086e-04 5.759799e-04 6.129065e-04 6.334525e-04 6.643447e-04 6.816700e-04 7.068847e-04 7.214646e-04 7.419450e-04 7.546854e-04 7.716704e-04 7.836064e-04 7.983224e-04 8.103323e-04 8.237415e-04 8.363414e-04 8.489998e-04 8.622597e-04 8.742993e-04 8.878752e-04 8.990777e-04 9.123200e-04 9.222251e-04 9.343110e-04 9.423099e-04 9.523641e-04 9.577629e-04 9.649588e-04 9.670259e-04 9.706683e-04 9.686916e-04 9.682793e-04 9.616590e-04 9.569247e-04 9.453202e-04 9.362460e-04 9.197700e-04 9.065709e-04 8.859671e-04 8.690109e-04 8.456978e-04 8.253376e-04 8.012200e-04 7.775847e-04 7.546537e-04 7.275255e-04 7.073966e-04 6.763009e-04 6.598824e-04 6.243940e-04 6.117995e-04 5.719223e-04 5.626211e-04 5.190408e-04 5.121475e-04 4.662253e-04 4.608001e-04 4.143175e-04 4.095813e-04 3.643615e-04 3.597952e-04 3.173620e-04 3.127105e-04 2.740944e-04 2.693173e-04 2.350292e-04 2.302329e-04 2.003564e-04 1.957281e-04 1.700580e-04 1.658082e-04 1.439806e-04 1.402984e-04 1.218831e-04 
1.102167e-04 9.270011e-05 8.992563e-05 7.548450e-05 7.388714e-05 6.196939e-05 6.142311e-05 5.149586e-05 5.185412e-05 4.337940e-05 4.450894e-05 3.692003e-05 3.874246e-05 3.143091e-05 3.396806e-05 2.629188e-05 2.970532e-05 2.102689e-05 2.563706e-05 1.539238e-05 2.166247e-05 9.451929e-06 1.792922e-05 3.606837e-06 1.482939e-05 -1.439362e-06 1.295363e-05 -4.782091e-06 1.301503e-05 -5.446660e-06 1.578124e-05 -2.476298e-06 2.207755e-05 5.104046e-06 3.291113e-05 1.846984e-05 4.968014e-05 3.921524e-05 7.429997e-05 6.937807e-05 1.090192e-04 1.110705e-04 1.558231e-04 1.657364e-04 2.155930e-04 2.333337e-04 2.874057e-04 3.118545e-04 3.683394e-04 3.974494e-04 4.539127e-04 4.851365e-04 5.389977e-04 5.698306e-04 6.188824e-04 6.473503e-04 6.901533e-04 7.151201e-04 7.511825e-04 7.724257e-04 8.021533e-04 8.202253e-04 8.446841e-04 8.606232e-04 8.811979e-04 8.961741e-04 9.142118e-04 9.291966e-04 9.457249e-04 9.612623e-04 9.768407e-04 9.929638e-04 1.007683e-03 1.023967e-03 1.037551e-03 1.053245e-03 1.065174e-03 1.079348e-03 1.088949e-03 1.100618e-03 1.107114e-03 1.115342e-03 1.117875e-03 1.121872e-03 1.119571e-03 1.118782e-03 1.110871e-03 1.105047e-03 1.091054e-03 1.080300e-03 1.060337e-03 1.045114e-03 1.020140e-03 1.001157e-03 9.730420e-04 9.509762e-04 9.222133e-04 8.973252e-04 8.704332e-04 8.423002e-04 8.191553e-04 7.867558e-04 7.681609e-04 7.303486e-04 7.160024e-04 6.721570e-04 6.609864e-04 6.115106e-04 6.021772e-04 5.485981e-04 5.399533e-04 4.846022e-04 4.759400e-04 4.213861e-04 4.124703e-04 3.609664e-04 3.519102e-04 3.050437e-04 2.961457e-04 2.547491e-04 2.463577e-04 2.106174e-04 2.030462e-04 1.727015e-04 1.661889e-04 1.407310e-04 1.354272e-04 1.142483e-04 
1.290874e-04 1.083616e-04 1.039926e-04 8.649078e-05 8.335288e-05 6.853144e-05 6.652504e-05 5.385486e-05 5.283823e-05 4.177682e-05 4.161505e-05 3.158101e-05 3.220504e-05 2.256282e-05 2.403133e-05 1.409733e-05 1.664783e-05 5.729234e-06 9.798979e-06 -2.729345e-06 3.468507e-06 -1.111970e-05 -2.097204e-06 -1.890800e-05 -6.402174e-06 -2.523192e-05 -8.755214e-06 -2.902634e-05 -8.360740e-06 -2.919528e-05 -4.413861e-06 -2.474666e-05 3.877203e-06 -1.477199e-05 1.743204e-05 1.795124e-06 3.759893e-05 2.653251e-05 6.641571e-05 6.168498e-05 1.064975e-04 1.098002e-04 1.603512e-04 1.728149e-04 2.292979e-04 2.509720e-04 3.125227e-04 3.421432e-04 4.067656e-04 4.419343e-04 5.068389e-04 5.445502e-04 6.067523e-04 6.440610e-04 7.010113e-04 7.356180e-04 7.856696e-04 8.162742e-04 8.588803e-04 8.852504e-04 9.208854e-04 9.436711e-04 9.735368e-04 9.939167e-04 1.019533e-03 1.038792e-03 1.061580e-03 1.080727e-03 1.101690e-03 1.121200e-03 1.140779e-03 1.160530e-03 1.178639e-03 1.198013e-03 1.214208e-03 1.232283e-03 1.245934e-03 1.261680e-03 1.272082e-03 1.284507e-03 1.290912e-03 1.299163e-03 1.300773e-03 1.304220e-03 1.300192e-03 1.298480e-03 1.288004e-03 1.281072e-03 1.263557e-03 1.251640e-03 1.227057e-03 1.210670e-03 1.179937e-03 1.159759e-03 1.124927e-03 1.101491e-03 1.065470e-03 1.038729e-03 1.004596e-03 9.736628e-04 9.438441e-04 9.072080e-04 8.829331e-04 8.391603e-04 8.203760e-04 7.689443e-04 7.546411e-04 6.964625e-04 6.852028e-04 6.225672e-04 6.129748e-04 5.489729e-04 5.400279e-04 4.777608e-04 4.688789e-04 4.108068e-04 4.017798e-04 3.494152e-04 3.403021e-04 2.942433e-04 2.852665e-04 2.454342e-04 2.368926e-04 2.028120e-04 1.950118e-04 1.660405e-04 1.592414e-04 1.347094e-04 