# vtk DataFile Version 2.0
Comment goes here
ASCII

DATASET STRUCTURED_POINTS
FIELD FieldData 1
TIME 1 1 double
0.09000000
DIMENSIONS    128   128   1

ORIGIN    0.000   0.000   0.000
SPACING   0.039062 0.039062   1.000

POINT_DATA   16384
SCALARS Omega double
LOOKUP_TABLE default

2.028785e-14 1.218841e-14 1.999303e-14 5.986005e-14 6.210668e-14 5.572543e-14 5.720672e-14 4.904477e-14 4.377398e-14 3.782889e-14 2.811362e-14 1.425743e-14 1.409863e-14 -3.628946e-15 -1.034255e-14 -2.353468e-14 -3.821275e-14 -6.937853e-14 -7.091248e-14 -6.639295e-14 -5.295756e-14 -4.965436e-14 -6.780624e-14 -5.199561e-14 -3.724567e-14 -1.858232e-14 -1.319117e-14 2.241043e-15 4.806812e-14 1.265191e-14 1.223879e-16 -1.027045e-14 -9.048877e-15 -1.050789e-14 -2.169642e-14 -3.007443e-14 7.131364e-15 1.330132e-14 -7.887589e-15 -1.100173e-14 5.370432e-15 2.568550e-14 1.808741e-14 2.408445e-14 3.219886e-14 3.243638e-14 4.327396e-14 1.863387e-14 2.386895e-14 -8.489862e-15 2.112779e-14 -1.767116e-14 1.458869e-14 3.373385e-14 9.753113e-14 7.217804e-14 4.252701e-14 7.797810e-14 8.135796e-14 3.071914e-14 -5.389363e-15 3.887740e-14 -2.892665e-14 -5.010753e-14 -9.125934e-14 -1.040977e-13 -5.155380e-14 -1.269649e-13 -7.271049e-14 -6.834937e-14 -3.039526e-14 -6.620997e-15 4.161269e-15 -2.338868e-14 -1.070287e-13 -6.031129e-14 -3.424111e-14 -2.727291e-14 -1.051895e-14 7.659463e-15 4.973989e-15 3.413655e-14 4.694433e-14 2.237992e-14 5.269551e-14 5.164117e-14 1.383969e-14 1.019450e-13 6.257153e-14 6.285893e-14 3.418522e-14 -2.767419e-14 -4.166855e-14 -3.961759e-14 -3.963512e-14 2.126185e-14 3.939527e-14 3.193696e-14 8.652717e-14 5.650054e-14 8.518717e-15 7.535925e-14 1.272074e-14 -3.287359e-14 3.969992e-14 -6.228414e-14 -9.212554e-15 -1.032517e-13 -3.749521e-14 -7.546873e-15 -2.644832e-14 -4.520637e-14 3.370856e-14 3.286150e-14 5.452073e-14 2.459808e-14 -2.392045e-15 3.321771e-14 -1.412090e-14 -2.783483e-14 -1.711515e-14 -1.393947e-14 -6.098771e-15 6.263607e-15 3.643192e-14 4.048189e-14 3.368389e-14 1.526056e-14 
1.462852e-06 1.847845e-06 1.552399e-06 2.060604e-06 1.803496e-06 2.417333e-06 2.180079e-06 2.879435e-06 2.643596e-06 3.407242e-06 3.154338e-06 3.961019e-06 3.672911e-06 4.502327e-06 4.161932e-06 4.995837e-06 4.588053e-06 5.411582e-06 4.924337e-06 5.727652e-06 5.153023e-06 5.933240e-06 5.268607e-06 6.031900e-06 5.281116e-06 6.044777e-06 5.219257e-06 6.013340e-06 5.132874e-06 6.000907e-06 5.093797e-06 6.091881e-06 5.193840e-06 6.387423e-06 5.538637e-06 6.996469e-06 6.236479e-06 8.021770e-06 7.382456e-06 9.542130e-06 9.039973e-06 1.159384e-05 1.122345e-05 1.415573e-05 1.388695e-05 1.714249e-05 1.692291e-05 2.040963e-05 2.017306e-05 2.377051e-05 2.345012e-05 2.702249e-05 2.656597e-05 2.997681e-05 2.935985e-05 3.248545e-05 3.172016e-05 3.445947e-05 3.359550e-05 3.587550e-05 3.499330e-05 3.677059e-05 3.596773e-05 3.722780e-05 3.660093e-05 3.735703e-05 3.698222e-05 3.727518e-05 3.719001e-05 3.708944e-05 3.727937e-05 3.688553e-05 3.727698e-05 3.672138e-05 3.718278e-05 3.662540e-05 3.697692e-05 3.659801e-05 3.662934e-05 3.661489e-05 3.610947e-05 3.663113e-05 3.539402e-05 3.658621e-05 3.447153e-05 3.640984e-05 3.334350e-05 3.602909e-05 3.202262e-05 3.537652e-05 3.052913e-05 3.439858e-05 2.888673e-05 3.306296e-05 2.711894e-05 3.136349e-05 2.524691e-05 2.932168e-05 2.328886e-05 2.698473e-05 2.126133e-05 2.442064e-05 1.918163e-05 2.171150e-05 1.707082e-05 1.894610e-05 1.495613e-05 1.621279e-05 1.287183e-05 1.359329e-05 1.085826e-05 1.115778e-05 8.959044e-06 8.961783e-06 7.217217e-06 7.044682e-06 5.671142e-06 5.429874e-06 4.351123e-06 4.126188e-06 3.277187e-06 3.130061e-06 2.458202e-06 2.427991e-06 1.892130e-06 1.998854e-06 1.567094e-06 1.815829e-06 
5.674260e-06 6.244762e-06 5.497240e-06 6.326224e-06 5.659614e-06 6.716757e-06 6.100216e-06 7.347470e-06 6.747602e-06 8.142627e-06 7.523862e-06 9.022847e-06 8.348829e-06 9.909089e-06 9.144697e-06 1.072738e-05 9.841078e-06 1.141421e-05 1.038051e-05 1.192250e-05 1.072440e-05 1.222798e-05 1.085934e-05 1.233572e-05 1.080354e-05 1.228645e-05 1.061292e-05 1.216175e-05 1.038583e-05 1.208700e-05 1.026458e-05 1.222976e-05 1.043154e-05 1.279131e-05 1.109702e-05 1.398896e-05 1.247728e-05 1.602845e-05 1.476311e-05 1.906873e-05 1.808313e-05 2.318507e-05 2.246940e-05 2.833927e-05 2.783475e-05 3.436651e-05 3.397057e-05 4.098536e-05 4.056859e-05 4.783176e-05 4.726431e-05 5.451114e-05 5.369281e-05 6.065724e-05 5.954402e-05 6.598437e-05 6.460461e-05 7.032198e-05 6.877766e-05 7.362523e-05 7.207736e-05 7.596217e-05 7.460257e-05 7.748310e-05 7.649750e-05 7.838122e-05 7.790982e-05 7.885358e-05 7.895549e-05 7.906984e-05 7.969696e-05 7.915265e-05 8.013735e-05 7.917026e-05 8.022968e-05 7.913909e-05 7.989684e-05 7.903248e-05 7.905655e-05 7.879203e-05 7.764527e-05 7.833889e-05 7.563599e-05 7.758400e-05 7.304704e-05 7.643772e-05 6.994113e-05 7.481935e-05 6.641608e-05 7.266699e-05 6.259016e-05 6.994680e-05 5.858533e-05 6.665994e-05 5.451173e-05 6.284525e-05 5.045591e-05 5.857655e-05 4.647453e-05 5.395504e-05 4.259443e-05 4.909876e-05 3.881857e-05 4.413151e-05 3.513644e-05 3.917352e-05 3.153625e-05 3.433495e-05 2.801581e-05 2.971215e-05 2.458969e-05 2.538633e-05 2.129132e-05 2.142348e-05 1.817029e-05 1.787516e-05 1.528606e-05 1.477932e-05 1.270003e-05 1.216104e-05 1.046772e-05 1.003297e-05 8.632288e-06 8.395503e-06 7.220053e-06 7.236654e-06 6.238190e-06 6.532003e-06 
4.062700e-06 5.227989e-06 4.307848e-06 5.845047e-06 5.043323e-06 6.898657e-06 6.160681e-06 8.273417e-06 7.544170e-06 9.850666e-06 9.074628e-06 1.151136e-05 1.063380e-05 1.314012e-05 1.210938e-05 1.463067e-05 1.340113e-05 1.589271e-05 1.442798e-05 1.686001e-05 1.513638e-05 1.749969e-05 1.550951e-05 1.782195e-05 1.557704e-05 1.788975e-05 1.542463e-05 1.782720e-05 1.520144e-05 1.782436e-05 1.512318e-05 1.813556e-05 1.546677e-05 1.906711e-05 1.655258e-05 2.095080e-05 1.871110e-05 2.410190e-05 2.223482e-05 2.876472e-05 2.732122e-05 3.505502e-05 3.401876e-05 4.291298e-05 4.219081e-05 5.208162e-05 5.151092e-05 6.212122e-05 6.149585e-05 7.246136e-05 7.157253e-05 8.248161e-05 8.116497e-05 9.160354e-05 8.978119e-05 9.937342e-05 9.708043e-05 1.055183e-04 1.029065e-04 1.099656e-04 1.072830e-04 1.128268e-04 1.103757e-04 1.143529e-04 1.124340e-04 1.148751e-04 1.137271e-04 1.147450e-04 1.144885e-04 1.142833e-04 1.148784e-04 1.137455e-04 1.149693e-04 1.133033e-04 1.147524e-04 1.130405e-04 1.141600e-04 1.129580e-04 1.130958e-04 1.129831e-04 1.114654e-04 1.129819e-04 1.091998e-04 1.127730e-04 1.062692e-04 1.121446e-04 1.026860e-04 1.108761e-04 9.849769e-05 1.087632e-04 9.377568e-05 1.056444e-04 8.860129e-05 1.014242e-04 8.305435e-05 9.608887e-05 7.720567e-05 8.971044e-05 7.111496e-05 8.243999e-05 6.483414e-05 7.449138e-05 5.841511e-05 6.611974e-05 5.191928e-05 5.759840e-05 4.542590e-05 4.919716e-05 3.903580e-05 4.116361e-05 3.286902e-05 3.370886e-05 2.705643e-05 2.699824e-05 2.172773e-05 2.114739e-05 1.699867e-05 1.622314e-05 1.296035e-05 1.224821e-05 9.672440e-06 9.208285e-06 7.160514e-06 7.059741e-06 5.417100e-06 5.736834e-06 4.405145e-06 5.157573e-06 
1.074663e-05 1.189625e-05 1.032186e-05 1.199622e-05 1.059363e-05 1.272970e-05 1.143849e-05 1.395891e-05 1.271239e-05 1.553200e-05 1.425828e-05 1.728940e-05 1.591456e-05 1.907181e-05 1.752431e-05 2.072982e-05 1.894552e-05 2.213487e-05 2.006220e-05 2.319139e-05 2.079630e-05 2.384964e-05 2.112026e-05 2.411879e-05 2.106970e-05 2.407941e-05 2.075558e-05 2.389409e-05 2.037386e-05 2.381377e-05 2.020956e-05 2.417573e-05 2.063025e-05 2.538801e-05 2.206327e-05 2.789508e-05 2.495231e-05 3.212240e-05 2.969341e-05 3.840381e-05 3.655850e-05 4.690380e-05 4.562227e-05 5.755363e-05 5.671301e-05 7.002174e-05 6.940607e-05 8.373302e-05 8.306850e-05 9.793904e-05 9.694946e-05 1.118265e-04 1.102969e-04 1.246398e-04 1.224729e-04 1.357901e-04 1.330407e-04 1.449257e-04 1.418043e-04 1.519540e-04 1.487967e-04 1.570128e-04 1.542226e-04 1.604064e-04 1.583764e-04 1.625232e-04 1.615541e-04 1.637562e-04 1.639808e-04 1.644391e-04 1.657668e-04 1.648084e-04 1.668979e-04 1.649909e-04 1.672567e-04 1.650110e-04 1.666673e-04 1.648103e-04 1.649494e-04 1.642705e-04 1.619685e-04 1.632354e-04 1.576735e-04 1.615301e-04 1.521143e-04 1.589783e-04 1.454373e-04 1.554214e-04 1.378651e-04 1.507390e-04 1.296630e-04 1.448686e-04 1.211031e-04 1.378218e-04 1.124301e-04 1.296906e-04 1.038361e-04 1.206403e-04 9.544568e-05 1.108925e-04 8.731564e-05 1.007002e-04 7.944705e-05 9.032329e-05 7.180844e-05 8.000909e-05 6.436328e-05 6.997945e-05 5.709533e-05 6.042499e-05 5.002539e-05 5.150384e-05 4.321653e-05 4.334303e-05 3.676818e-05 3.604070e-05 3.080216e-05 2.966837e-05 2.544521e-05 2.427260e-05 2.081198e-05 1.987594e-05 1.699131e-05 1.647722e-05 1.403716e-05 1.405131e-05 1.196407e-05 1.254887e-05 
5.656556e-06 7.634585e-06 5.985790e-06 8.590098e-06 7.150736e-06 1.028838e-05 8.969773e-06 1.253845e-05 1.124971e-05 1.514374e-05 1.379185e-05 1.790643e-05 1.639890e-05 2.063400e-05 1.888326e-05 2.314842e-05 2.107724e-05 2.529785e-05 2.284511e-05 2.697056e-05 2.409706e-05 2.811041e-05 2.480446e-05 2.873326e-05 2.501583e-05 2.894290e-05 2.487260e-05 2.894520e-05 2.462211e-05 2.905708e-05 2.462419e-05 2.970568e-05 2.534480e-05 3.141046e-05 2.732898e-05 3.474104e-05 3.114660e-05 4.024686e-05 3.731022e-05 4.836288e-05 4.617479e-05 5.930669e-05 5.783994e-05 7.299228e-05 7.208282e-05 8.898823e-05 8.834648e-05 1.065402e-04 1.057964e-04 1.246613e-04 1.234383e-04 1.422739e-04 1.402715e-04 1.583720e-04 1.554427e-04 1.721659e-04 1.683633e-04 1.831801e-04 1.787666e-04 1.912856e-04 1.866970e-04 1.966693e-04 1.924421e-04 1.997554e-04 1.964281e-04 2.011013e-04 1.991074e-04 2.012941e-04 2.008623e-04 2.008649e-04 2.019421e-04 2.002323e-04 2.024407e-04 1.996744e-04 2.023125e-04 1.993256e-04 2.014160e-04 1.991856e-04 1.995694e-04 1.991357e-04 1.966055e-04 1.989561e-04 1.924132e-04 1.983459e-04 1.869596e-04 1.969499e-04 1.802923e-04 1.943942e-04 1.725249e-04 1.903311e-04 1.638132e-04 1.844881e-04 1.543290e-04 1.767114e-04 1.442377e-04 1.669945e-04 1.336835e-04 1.554850e-04 1.227834e-04 1.424681e-04 1.116324e-04 1.283351e-04 1.003161e-04 1.135417e-04 8.892994e-05 9.856698e-05 7.759695e-05 8.387621e-05 6.647772e-05 6.988997e-05 5.576868e-05 5.696126e-05 4.568820e-05 4.536117e-05 3.645488e-05 3.527344e-05 2.826406e-05 2.679755e-05 2.126835e-05 1.995825e-05 1.556546e-05 1.471897e-05 1.119420e-05 1.099612e-05 8.137048e-06 8.671920e-06 6.327062e-06 7.604464e-06 
1.455398e-05 1.630263e-05 1.373716e-05 1.629040e-05 1.400940e-05 1.726688e-05 1.518239e-05 1.902525e-05 1.703700e-05 2.133676e-05 1.933455e-05 2.395993e-05 2.182936e-05 2.665271e-05 2.428284e-05 2.918724e-05 2.647905e-05 3.136699e-05 2.824172e-05 3.304542e-05 2.945229e-05 3.414562e-05 3.006842e-05 3.467967e-05 3.014252e-05 3.476703e-05 2.983938e-05 3.465040e-05 2.945114e-05 3.470632e-05 2.940543e-05 3.544505e-05 3.025951e-05 3.749136e-05 3.267044e-05 4.153647e-05 3.733213e-05 4.825491e-05 4.487691e-05 5.819007e-05 5.575260e-05 7.162709e-05 7.010085e-05 8.848472e-05 8.767232e-05 1.082617e-04 1.078111e-04 1.300636e-04 1.295243e-04 1.527140e-04 1.516275e-04 1.749288e-04 1.729335e-04 1.955145e-04 1.924387e-04 2.135415e-04 2.094615e-04 2.284563e-04 2.237038e-04 2.401123e-04 2.352273e-04 2.487218e-04 2.443590e-04 2.547503e-04 2.515560e-04 2.587859e-04 2.572637e-04 2.614123e-04 2.618010e-04 2.631135e-04 2.652934e-04 2.642190e-04 2.676633e-04 2.648909e-04 2.686722e-04 2.651429e-04 2.679979e-04 2.648739e-04 2.653268e-04 2.639039e-04 2.604383e-04 2.620047e-04 2.532641e-04 2.589235e-04 2.439142e-04 2.544057e-04 2.326658e-04 2.482210e-04 2.199242e-04 2.401965e-04 2.061649e-04 2.302523e-04 1.918704e-04 2.184302e-04 1.774735e-04 2.049061e-04 1.633126e-04 1.899772e-04 1.496055e-04 1.740277e-04 1.364453e-04 1.574828e-04 1.238202e-04 1.407648e-04 1.116534e-04 1.242607e-04 9.985420e-05 1.083056e-04 8.836564e-05 9.317813e-05 7.719674e-05 7.910349e-05 6.643284e-05 6.625861e-05 5.622487e-05 5.477775e-05 4.676424e-05 4.475679e-05 3.825186e-05 3.625615e-05 3.086911e-05 2.930235e-05 2.475541e-05 2.388841e-05 1.999427e-05 1.997344e-05 1.660720e-05 1.748179e-05 
5.479802e-06 8.329606e-06 5.770422e-06 9.506258e-06 7.268203e-06 1.175352e-05 9.716982e-06 1.480715e-05 1.284583e-05 1.839468e-05 1.637652e-05 2.224042e-05 2.003253e-05 2.607439e-05 2.355044e-05 2.964545e-05 2.669453e-05 3.273848e-05 2.927419e-05 3.519478e-05 3.116369e-05 3.693429e-05 3.232331e-05 3.797829e-05 3.282086e-05 3.847114e-05 3.285271e-05 3.869965e-05 3.276250e-05 3.910721e-05 3.305315e-05 4.029676e-05 3.438396e-05 4.301229e-05 3.753971e-05 4.808566e-05 4.335881e-05 5.633888e-05 5.261528e-05 6.844434e-05 6.586617e-05 8.476491e-05 8.329658e-05 1.052143e-04 1.046081e-04 1.291837e-04 1.289936e-04 1.555699e-04 1.552190e-04 1.829098e-04 1.818035e-04 2.095971e-04 2.072547e-04 2.341292e-04 2.303029e-04 2.553271e-04 2.500788e-04 2.724800e-04 2.661961e-04 2.853908e-04 2.787302e-04 2.943251e-04 2.881093e-04 2.998887e-04 2.949537e-04 3.028719e-04 2.999042e-04 3.040962e-04 3.034788e-04 3.042924e-04 3.059828e-04 3.040255e-04 3.074845e-04 3.036638e-04 3.078483e-04 3.033812e-04 3.068094e-04 3.031753e-04 3.040652e-04 3.028874e-04 2.993600e-04 3.022213e-04 2.925478e-04 3.007625e-04 2.836218e-04 2.980105e-04 2.727121e-04 2.934283e-04 2.600565e-04 2.865124e-04 2.459579e-04 2.768726e-04 2.307394e-04 2.643057e-04 2.147068e-04 2.488418e-04 1.981221e-04 2.307518e-04 1.811907e-04 2.105143e-04 1.640635e-04 1.887562e-04 1.468576e-04 1.661838e-04 1.296877e-04 1.435179e-04 1.127025e-04 1.214417e-04 9.610820e-05 1.005590e-04 8.017119e-05 8.136470e-05 6.519866e-05 6.422701e-05 5.150340e-05 4.938231e-05 3.936519e-05 3.694254e-05 2.899929e-05 2.691233e-05 2.053791e-05 1.921165e-05 1.402555e-05 1.369889e-05 9.425129e-06 1.019082e-05 6.630328e-06 8.477170e-06 
1.631148e-05 1.869573e-05 1.487916e-05 1.836286e-05 1.498070e-05 1.941975e-05 1.635844e-05 2.159025e-05 1.871406e-05 2.456719e-05 2.172321e-05 2.802440e-05 2.505213e-05 3.163297e-05 2.837661e-05 3.508198e-05 3.140363e-05 3.810265e-05 3.389495e-05 4.049473e-05 3.569165e-05 4.215334e-05 3.673833e-05 4.309427e-05 3.710607e-05 4.347692e-05 3.701389e-05 4.362408e-05 3.684821e-05 4.403715e-05 3.717709e-05 4.540151e-05 3.875060e-05 4.857033e-05 4.247171e-05 5.450982e-05 4.931939e-05 6.419072e-05 6.021423e-05 7.842573e-05 7.583774e-05 9.767756e-05 9.644413e-05 1.218874e-04 1.217220e-04 1.503828e-04 1.507603e-04 1.819078e-04 1.821465e-04 2.147845e-04 2.141818e-04 2.471710e-04 2.451626e-04 2.773538e-04 2.736562e-04 3.040021e-04 2.987023e-04 3.263282e-04 3.198971e-04 3.441244e-04 3.373510e-04 3.576862e-04 3.515418e-04 3.676533e-04 3.631109e-04 3.748169e-04 3.726538e-04 3.799401e-04 3.805549e-04 3.836271e-04 3.868967e-04 3.862586e-04 3.914576e-04 3.879888e-04 3.937878e-04 3.887860e-04 3.933367e-04 3.884889e-04 3.895979e-04 3.868566e-04 3.822382e-04 3.836024e-04 3.711850e-04 3.784146e-04 3.566590e-04 3.709764e-04 3.391499e-04 3.609973e-04 3.193464e-04 3.482613e-04 2.980412e-04 3.326865e-04 2.760306e-04 3.143781e-04 2.540260e-04 2.936505e-04 2.325834e-04 2.710048e-04 2.120580e-04 2.470647e-04 1.925907e-04 2.224924e-04 1.741354e-04 1.979142e-04 1.565243e-04 1.738739e-04 1.395578e-04 1.508165e-04 1.230899e-04 1.290941e-04 1.070875e-04 1.089796e-04 9.164811e-05 9.068082e-05 7.698024e-05 7.435097e-05 6.335965e-05 6.009548e-05 5.107741e-05 4.797621e-05 4.039383e-05 3.801368e-05 3.150533e-05 3.018770e-05 2.452596e-05 2.443658e-05 1.948132e-05 2.065564e-05 
2.630308e-06 6.444692e-06 2.702915e-06 7.661229e-06 4.386598e-06 1.030387e-05 7.348771e-06 1.403895e-05 1.124060e-05 1.852117e-05 1.570458e-05 2.339836e-05 2.038479e-05 2.832238e-05 2.494140e-05 3.296688e-05 2.907025e-05 3.705127e-05 3.252676e-05 4.036916e-05 3.515238e-05 4.281823e-05 3.690129e-05 4.442890e-05 3.786576e-05 4.538980e-05 3.829969e-05 4.607003e-05 3.864114e-05 4.703800e-05 3.953173e-05 4.907234e-05 4.182430e-05 5.315195e-05 4.655933e-05 6.040245e-05 5.488476e-05 7.197623e-05 6.790170e-05 8.886007e-05 8.644547e-05 1.116381e-04 1.108489e-04 1.402723e-04 1.407615e-04 1.739777e-04 1.750970e-04 2.112488e-04 2.121451e-04 2.500513e-04 2.498319e-04 2.881352e-04 2.860645e-04 3.233927e-04 3.190705e-04 3.541727e-04 3.476496e-04 3.794818e-04 3.712849e-04 3.990393e-04 3.901012e-04 4.131955e-04 4.047000e-04 4.227513e-04 4.159223e-04 4.287355e-04 4.246027e-04 4.321942e-04 4.313686e-04 4.340315e-04 4.365239e-04 4.349224e-04 4.400291e-04 4.352908e-04 4.415681e-04 4.353299e-04 4.406714e-04 4.350346e-04 4.368571e-04 4.342232e-04 4.297571e-04 4.325455e-04 4.192037e-04 4.294907e-04 4.052666e-04 4.244141e-04 3.882380e-04 4.166010e-04 3.685777e-04 4.053698e-04 3.468392e-04 3.901996e-04 3.235966e-04 3.708512e-04 2.993862e-04 3.474429e-04 2.746631e-04 3.204541e-04 2.497733e-04 2.906590e-04 2.249473e-04 2.590175e-04 2.003243e-04 2.265625e-04 1.760083e-04 1.943077e-04 1.521367e-04 1.631817e-04 1.289339e-04 1.339818e-04 1.067260e-04 1.073409e-04 8.591349e-05 8.370880e-05 6.691508e-05 6.334844e-05 5.010450e-05 4.635087e-05 3.576122e-05 3.266435e-05 2.404422e-05 2.213082e-05 1.498899e-05 1.452177e-05 8.521095e-06 9.567382e-06 4.477771e-06 6.976095e-06 
1.505518e-05 1.813602e-05 1.269642e-05 1.718016e-05 1.238365e-05 1.807536e-05 1.378262e-05 2.047514e-05 1.650964e-05 2.399155e-05 2.014892e-05 2.820923e-05 2.427272e-05 3.270621e-05 2.846572e-05 3.708153e-05 3.235375e-05 4.098853e-05 3.563580e-05 4.417114e-05 3.811634e-05 4.649933e-05 3.973498e-05 4.799966e-05 4.059119e-05 4.887950e-05 4.096495e-05 4.954624e-05 4.133657e-05 5.062481e-05 4.240782e-05 5.297246e-05 4.511716e-05 5.767767e-05 5.062676e-05 6.601428e-05 6.024610e-05 7.931703e-05 7.526369e-05 9.876357e-05 9.669157e-05 1.250919e-04 1.249780e-04 1.583308e-04 1.597825e-04 1.976410e-04 1.999057e-04 2.413419e-04 2.434210e-04 2.871385e-04 2.879864e-04 3.324938e-04 3.312532e-04 3.750489e-04 3.712616e-04 4.129821e-04 4.067235e-04 4.452262e-04 4.371295e-04 4.715071e-04 4.626734e-04 4.922208e-04 4.840314e-04 5.082001e-04 5.020630e-04 5.204411e-04 5.175133e-04 5.298584e-04 5.307830e-04 5.371189e-04 5.418143e-04 5.425760e-04 5.501080e-04 5.462973e-04 5.548567e-04 5.481468e-04 5.551484e-04 5.478777e-04 5.501885e-04 5.451964e-04 5.394901e-04 5.397896e-04 5.229981e-04 5.313256e-04 5.011268e-04 5.194575e-04 4.747111e-04 5.038528e-04 4.448859e-04 4.842629e-04 4.129318e-04 4.606239e-04 3.801207e-04 4.331531e-04 3.475856e-04 4.023944e-04 3.162161e-04 3.691782e-04 2.865803e-04 3.344991e-04 2.588872e-04 2.993626e-04 2.330175e-04 2.646589e-04 2.086296e-04 2.311022e-04 1.853165e-04 1.992295e-04 1.627614e-04 1.694340e-04 1.408415e-04 1.420026e-04 1.196567e-04 1.171443e-04 9.949058e-05 9.500627e-05 8.073170e-05 7.568198e-05 6.378792e-05 5.921613e-05 4.901567e-05 4.560765e-05 3.667427e-05 3.481083e-05 2.690502e-05 2.673455e-05 1.972884e-05 2.123967e-05 
-3.977052e-06 9.376206e-07 -4.366977e-06 1.929002e-06 -2.708614e-06 4.732249e-06 5.868520e-07 8.950107e-06 5.093035e-06 1.416900e-05 1.037384e-05 1.996181e-05 1.599364e-05 2.590054e-05 2.153503e-05 3.157985e-05 2.662498e-05 3.665063e-05 3.096784e-05 4.085973e-05 3.438079e-05 4.409005e-05 3.682660e-05 4.639463e-05 3.843934e-05 4.802149e-05 3.954379e-05 4.943161e-05 4.067447e-05 5.131709e-05 4.260124e-05 5.462360e-05 4.635779e-05 6.056449e-05 5.324708e-05 7.059026e-05 6.477541e-05 8.626273e-05 8.246865e-05 1.090040e-04 1.075664e-04 1.397487e-04 1.406599e-04 1.785974e-04 1.813961e-04 2.246006e-04 2.283715e-04 2.757737e-04 2.792802e-04 3.293637e-04 3.312894e-04 3.823005e-04 3.815373e-04 4.317076e-04 4.276179e-04 4.753420e-04 4.679289e-04 5.118627e-04 5.018124e-04 5.408900e-04 5.294769e-04 5.628715e-04 5.517480e-04 5.788206e-04 5.697272e-04 5.900056e-04 5.844458e-04 5.976681e-04 5.965927e-04 6.028266e-04 6.063702e-04 6.061908e-04 6.134948e-04 6.081721e-04 6.173231e-04 6.089457e-04 6.170509e-04 6.085073e-04 6.119272e-04 6.066894e-04 6.014343e-04 6.031392e-04 5.854065e-04 5.972880e-04 5.640720e-04 5.883575e-04 5.380146e-04 5.754336e-04 5.080743e-04 5.576173e-04 4.752188e-04 5.342303e-04 4.404292e-04 5.050176e-04 4.046148e-04 4.702748e-04 3.685476e-04 4.308398e-04 3.328052e-04 3.879565e-04 2.977354e-04 3.430729e-04 2.634791e-04 2.976572e-04 2.300652e-04 2.530755e-04 1.975466e-04 2.105268e-04 1.661146e-04 1.710052e-04 1.361399e-04 1.352707e-04 1.081305e-04 1.038282e-04 8.263590e-05 7.692620e-05 6.014174e-05 5.458224e-05 4.099277e-05 3.663101e-05 2.535828e-05 2.278266e-05 1.323664e-05 1.267766e-05 4.484127e-06 5.928335e-06 -1.147621e-06 2.143499e-06 
9.592706e-06 1.346505e-05 5.897969e-06 1.146619e-05 4.839390e-06 1.185206e-05 5.995158e-06 1.420388e-05 8.887573e-06 1.804891e-05 1.300133e-05 2.287572e-05 1.780633e-05 2.815947e-05 2.278786e-05 3.339832e-05 2.748487e-05 3.815955e-05 3.153399e-05 4.213052e-05 3.471355e-05 4.516641e-05 3.697952e-05 4.732592e-05 3.848773e-05 4.889027e-05 3.960337e-05 5.037037e-05 4.090894e-05 5.251617e-05 4.322668e-05 5.634191e-05 4.765973e-05 6.315952e-05 5.562461e-05 7.457513e-05 6.880966e-05 9.237586e-05 8.898729e-05 1.182530e-04 1.176597e-04 1.533865e-04 1.556146e-04 1.980125e-04 2.025509e-04 2.511458e-04 2.569371e-04 3.105884e-04 3.161868e-04 3.732496e-04 3.771121e-04 4.356863e-04 4.365195e-04 4.947060e-04 4.917762e-04 5.478678e-04 5.411982e-04 5.937685e-04 5.841795e-04 6.320696e-04 6.210582e-04 6.632995e-04 6.527840e-04 6.885118e-04 6.804865e-04 7.089026e-04 7.050551e-04 7.254813e-04 7.268250e-04 7.388677e-04 7.454384e-04 7.492462e-04 7.599037e-04 7.564576e-04 7.688230e-04 7.601633e-04 7.707148e-04 7.599951e-04 7.643478e-04 7.556337e-04 7.490175e-04 7.468064e-04 7.247197e-04 7.332377e-04 6.921945e-04 7.146099e-04 6.528337e-04 6.905778e-04 6.084767e-04 6.608684e-04 5.611559e-04 6.254526e-04 5.128641e-04 5.847293e-04 4.653760e-04 5.396238e-04 4.201028e-04 4.915139e-04 3.779563e-04 4.419938e-04 3.392530e-04 3.925822e-04 3.037302e-04 3.445099e-04 2.707195e-04 2.986531e-04 2.394304e-04 2.555854e-04 2.092359e-04 2.156754e-04 1.798551e-04 1.791687e-04 1.513898e-04 1.462336e-04 1.242406e-04 1.169778e-04 9.896251e-05 9.145367e-05 7.612242e-05 6.966156e-05 5.619379e-05 5.155442e-05 3.949931e-05 3.704110e-05 2.619367e-05 2.598622e-05 1.627236e-05 1.820648e-05 
-1.563973e-05 -9.436864e-06 -1.681424e-05 -9.049489e-06 -1.547875e-05 -6.437334e-06 -1.212485e-05 -2.052632e-06 -7.254906e-06 3.628813e-06 -1.382371e-06 1.010608e-05 4.976329e-06 1.686693e-05 1.132296e-05 2.341936e-05 1.721343e-05 2.933962e-05 2.230548e-05 3.433052e-05 2.640935e-05 3.827783e-05 2.952934e-05 4.129116e-05 3.188535e-05 4.372008e-05 3.391385e-05 4.615075e-05 3.626409e-05 4.940544e-05 3.981728e-05 5.457230e-05 4.574666e-05 6.306777e-05 5.559176e-05 7.667712e-05 7.125910e-05 9.746763e-05 9.483724e-05 1.274822e-04 1.281772e-04 1.682268e-04 1.723271e-04 2.201073e-04 2.270322e-04 2.820481e-04 2.905253e-04 3.514734e-04 3.597222e-04 4.246863e-04 4.307715e-04 4.975270e-04 4.997850e-04 5.661080e-04 5.635296e-04 6.274254e-04 6.199046e-04 6.797099e-04 6.681072e-04 7.224711e-04 7.084889e-04 7.562795e-04 7.421795e-04 7.823838e-04 7.705968e-04 8.022793e-04 7.949643e-04 8.173368e-04 8.159458e-04 8.285687e-04 8.334735e-04 8.365714e-04 8.467960e-04 8.416137e-04 8.547076e-04 8.437842e-04 8.558685e-04 8.430926e-04 8.491214e-04 8.394652e-04 8.337437e-04 8.326489e-04 8.096070e-04 8.220988e-04 7.772262e-04 8.069309e-04 7.376864e-04 7.859997e-04 6.924614e-04 7.581188e-04 6.431909e-04 7.223965e-04 5.915000e-04 6.785900e-04 5.388918e-04 6.273289e-04 4.866623e-04 5.700804e-04 4.357840e-04 5.088612e-04 3.867918e-04 4.458516e-04 3.397781e-04 3.830938e-04 2.945614e-04 3.223558e-04 2.509625e-04 2.651082e-04 2.090459e-04 2.125285e-04 1.692093e-04 1.654808e-04 1.321073e-04 1.244862e-04 9.847286e-05 8.971624e-05 6.893625e-05 6.103297e-05 4.390417e-05 3.806790e-05 2.352121e-05 2.031661e-05 7.695613e-06 7.222789e-06 -3.841611e-06 -1.763665e-06 -1.147241e-05 -7.158063e-06 
-1.527352e-06 3.274494e-06 -7.080369e-06 -3.388346e-07 -9.327227e-06 -9.539035e-07 -8.792790e-06 9.341811e-07 -6.060345e-06 4.761547e-06 -1.755587e-06 9.909833e-06 3.476662e-06 1.573551e-05 9.008775e-06 2.161755e-05 1.428219e-05 2.702276e-05 1.887129e-05 3.158123e-05 2.254802e-05 3.515596e-05 2.532976e-05 3.788683e-05 2.749414e-05 4.019460e-05 2.955809e-05 4.275112e-05 3.224372e-05 4.645035e-05 3.647772e-05 5.243035e-05 4.346527e-05 6.216821e-05 5.482002e-05 7.758676e-05 7.263511e-05 1.010231e-04 9.932557e-05 1.349085e-04 1.371469e-04 1.811508e-04 1.874891e-04 2.404171e-04 2.502299e-04 3.116339e-04 3.234529e-04 3.919495e-04 4.036835e-04 4.771989e-04 4.865681e-04 5.627076e-04 5.677604e-04 6.441694e-04 6.437379e-04 7.183465e-04 7.123319e-04 7.834346e-04 7.728678e-04 8.390514e-04 8.259305e-04 8.859143e-04 8.728612e-04 9.253387e-04 9.151358e-04 9.587004e-04 9.537734e-04 9.869954e-04 9.889081e-04 1.010598e-03 1.019625e-03 1.029267e-03 1.044095e-03 1.042373e-03 1.059966e-03 1.049206e-03 1.064864e-03 1.049232e-03 1.056895e-03 1.042169e-03 1.035033e-03 1.027918e-03 9.993716e-04 1.006402e-03 9.511783e-04 9.774374e-04 8.927410e-04 9.407153e-04 8.270148e-04 8.959330e-04 7.571924e-04 8.430943e-04 6.863509e-04 7.828725e-04 6.172364e-04 7.168304e-04 5.520921e-04 6.472900e-04 4.924172e-04 5.768527e-04 4.387176e-04 5.078230e-04 3.904578e-04 4.418470e-04 3.463516e-04 3.798841e-04 3.049006e-04 3.224051e-04 2.649318e-04 2.696298e-04 2.259149e-04 2.216792e-04 1.879864e-04 1.786298e-04 1.517593e-04 1.405114e-04 1.180522e-04 1.072963e-04 8.765355e-05 7.889971e-05 6.117290e-05 5.518991e-05 3.898018e-05 3.599759e-05 2.120755e-05 2.111864e-05 7.782951e-06 1.030891e-05 
-3.386540e-05 -2.612864e-05 -3.624266e-05 -2.688225e-05 -3.564831e-05 -2.498338e-05 -3.265435e-05 -2.092724e-05 -2.783538e-05 -1.524438e-05 -2.178032e-05 -8.510173e-06 -1.509002e-05 -1.331209e-06 -8.352526e-06 5.697011e-06 -2.091824e-06 1.206124e-05 3.305476e-06 1.742112e-05 7.670154e-06 2.169731e-05 1.111119e-05 2.512689e-05 1.403031e-05 2.826047e-05 1.707989e-05 3.190337e-05 2.109154e-05 3.704817e-05 2.704592e-05 4.488160e-05 3.616169e-05 5.692226e-05 5.010549e-05 7.522767e-05 7.117553e-05 1.024586e-04 1.022017e-04 1.415564e-04 1.459876e-04 1.949789e-04 2.043986e-04 2.637497e-04 2.774835e-04 3.467631e-04 3.630608e-04 4.406894e-04 4.569819e-04 5.405352e-04 5.539684e-04 6.406365e-04 6.487089e-04 7.357368e-04 7.368613e-04 8.218404e-04 8.156998e-04 8.966545e-04 8.842912e-04 9.595843e-04 9.432313e-04 1.011370e-03 9.940747e-04 1.053523e-03 1.038632e-03 1.087728e-03 1.078298e-03 1.115350e-03 1.113560e-03 1.137165e-03 1.143797e-03 1.153374e-03 1.167425e-03 1.163859e-03 1.182304e-03 1.168498e-03 1.186253e-03 1.167351e-03 1.177504e-03 1.160594e-03 1.155042e-03 1.148271e-03 1.118814e-03 1.130017e-03 1.069818e-03 1.104900e-03 1.009975e-03 1.071497e-03 9.418092e-04 1.028207e-03 8.680392e-04 9.738073e-04 7.912866e-04 9.080975e-04 7.139842e-04 8.323283e-04 6.383099e-04 7.491060e-04 5.659476e-04 6.617666e-04 4.977554e-04 5.736026e-04 4.336612e-04 4.873734e-04 3.729793e-04 4.052273e-04 3.149976e-04 3.288409e-04 2.594855e-04 2.595288e-04 2.068656e-04 1.982299e-04 1.580385e-04 1.454319e-04 1.140314e-04 1.011365e-04 7.567315e-05 6.492008e-05 4.341344e-05 3.606893e-05 1.729756e-05 1.373640e-05 -2.955103e-06 -2.926958e-06 -1.783426e-05 -1.469472e-05 -2.793150e-05 -2.223673e-05 
-2.000884e-05 -1.409183e-05 -2.807349e-05 -2.008943e-05 -3.209659e-05 -2.239740e-05 -3.272685e-05 -2.159456e-05 -3.066776e-05 -1.834610e-05 -2.666983e-05 -1.339422e-05 -2.151146e-05 -7.527153e-06 -1.595707e-05 -1.517953e-06 -1.068554e-05 3.970258e-06 -6.192169e-06 8.502633e-06 -2.683409e-06 1.198668e-05 4.518710e-10 1.473929e-05 2.393877e-06 1.746668e-05 5.324578e-06 2.115218e-05 9.773396e-06 2.691513e-05 1.677854e-05 3.597070e-05 2.751941e-05 4.980633e-05 4.362513e-05 7.052793e-05 6.752701e-05 1.010833e-04 1.024741e-04 1.449770e-04 1.519095e-04 2.053421e-04 2.183087e-04 2.836997e-04 3.020119e-04 3.790259e-04 4.006611e-04 4.876112e-04 5.095298e-04 6.037723e-04 6.225859e-04 7.210948e-04 7.338504e-04 8.337421e-04 8.385934e-04 9.374384e-04 9.340516e-04 1.029916e-03 1.019549e-03 1.110807e-03 1.096086e-03 1.181117e-03 1.165573e-03 1.242478e-03 1.229941e-03 1.296401e-03 1.290309e-03 1.343672e-03 1.346387e-03 1.384070e-03 1.396287e-03 1.416475e-03 1.436799e-03 1.439352e-03 1.464041e-03 1.451346e-03 1.474263e-03 1.451694e-03 1.464559e-03 1.440295e-03 1.433411e-03 1.417462e-03 1.381049e-03 1.383569e-03 1.309568e-03 1.338757e-03 1.222698e-03 1.282829e-03 1.125186e-03 1.215419e-03 1.022019e-03 1.136502e-03 9.178804e-04 1.047128e-03 8.169683e-04 9.499480e-04 7.228919e-04 8.489852e-04 6.382239e-04 7.486079e-04 5.638482e-04 6.523387e-04 4.987009e-04 5.622419e-04 4.402975e-04 4.790889e-04 3.858165e-04 4.029328e-04 3.331433e-04 3.336273e-04 2.814019e-04 2.710657e-04 2.308891e-04 2.151896e-04 1.826345e-04 1.659143e-04 1.378892e-04 1.230790e-04 9.774522e-05 8.644848e-05 6.294739e-05 5.574161e-05 3.385804e-05 3.065780e-05 1.050912e-05 1.088505e-05 -7.316528e-06 -3.908520e-06 