# vtk DataFile Version 2.0
Comment goes here
ASCII

DATASET STRUCTURED_POINTS
FIELD FieldData 1
TIME 1 1 double
0.04000000
DIMENSIONS    128   128   1

ORIGIN    0.000   0.000   0.000
SPACING   0.039062 0.039062   1.000

POINT_DATA   16384
SCALARS Omega double
LOOKUP_TABLE default

-2.976060e-14 -4.376769e-14 -3.750037e-14 -7.927136e-15 8.642570e-15 3.228372e-14 3.309434e-14 3.768172e-14 3.807935e-14 1.455992e-14 4.824379e-15 -1.969950e-14 -5.037881e-14 -1.054891e-14 -9.637235e-15 2.868287e-15 3.640501e-15 1.038680e-14 -1.689784e-14 -2.019303e-14 3.687274e-15 -1.893602e-14 -5.412556e-14 3.234463e-15 5.010262e-14 1.040674e-13 5.071391e-14 4.091941e-15 -3.087177e-14 -1.565962e-14 -1.715000e-14 -1.617641e-14 2.925308e-15 8.567119e-15 3.289644e-14 -2.551877e-14 -8.012612e-15 4.718282e-15 3.483713e-14 -5.826317e-15 -7.170671e-14 -3.667487e-14 -2.109982e-14 -1.649634e-14 1.237315e-14 9.856395e-15 -3.450111e-14 -7.004508e-15 -6.795906e-15 1.319099e-15 -3.506559e-16 4.977106e-14 6.156147e-14 1.109390e-13 2.244359e-14 1.469217e-14 2.543395e-14 5.500068e-14 4.682965e-14 1.445259e-14 2.130724e-15 -3.845564e-14 -2.460647e-14 -2.843279e-14 -9.961110e-15 -3.137391e-14 -2.589891e-14 -5.189924e-14 -1.485186e-13 5.987292e-14 2.172305e-15 -2.046551e-14 -1.019867e-14 -2.697308e-14 -1.027279e-13 -8.546165e-14 -2.815878e-14 -3.331269e-14 -4.637263e-14 -5.470586e-15 3.599902e-14 5.252917e-14 -2.589387e-14 -1.113029e-13 -2.890045e-14 -3.954581e-14 -4.637008e-15 -2.051997e-14 7.393833e-14 1.751400e-14 5.543279e-15 7.254449e-14 9.984183e-14 6.309106e-14 4.168459e-14 3.158269e-14 3.153460e-14 7.736869e-15 3.520114e-14 2.622943e-14 3.063304e-14 -1.025145e-14 -2.798619e-14 -1.675236e-14 -1.686625e-14 -8.651350e-15 -1.003570e-14 1.120449e-14 3.495949e-14 4.629094e-14 5.617756e-14 6.512462e-14 6.208715e-14 4.030679e-14 3.109102e-14 -3.654810e-15 -2.790938e-14 -1.607628e-14 -1.338291e-14 -9.233370e-15 -6.666840e-15 -1.201231e-14 -1.847413e-14 -1.550400e-14 -1.169825e-14 -1.279996e-14 -1.800239e-14 -1.909475e-14 
-3.082246e-06 -3.890491e-06 -2.781049e-06 -3.714384e-06 -2.480470e-06 -3.546244e-06 -2.204232e-06 -3.405542e-06 -1.974589e-06 -3.309038e-06 -1.812444e-06 -3.270713e-06 -1.737287e-06 -3.301666e-06 -1.766767e-06 -3.409816e-06 -1.915671e-06 -3.599239e-06 -2.194092e-06 -3.868935e-06 -2.604651e-06 -4.210864e-06 -3.138753e-06 -4.607242e-06 -3.772184e-06 -5.027315e-06 -4.460683e-06 -5.424235e-06 -5.136655e-06 -5.733140e-06 -5.708568e-06 -5.871973e-06 -6.064792e-06 -5.746638e-06 -6.083263e-06 -5.261575e-06 -5.647223e-06 -4.335476e-06 -4.665514e-06 -2.919961e-06 -3.093858e-06 -1.017169e-06 -9.520540e-07 1.308762e-06 1.668050e-06 3.930734e-06 4.607360e-06 6.670389e-06 7.657660e-06 9.321368e-06 1.059014e-05 1.167983e-05 1.318869e-05 1.357598e-05 1.528133e-05 1.490005e-05 1.676353e-05 1.561786e-05 1.760983e-05 1.577324e-05 1.787230e-05 1.547784e-05 1.766733e-05 1.489059e-05 1.715384e-05 1.419086e-05 1.650665e-05 1.354984e-05 1.588951e-05 1.310450e-05 1.543147e-05 1.293839e-05 1.520995e-05 1.307180e-05 1.524300e-05 1.346295e-05 1.549122e-05 1.401933e-05 1.586888e-05 1.461677e-05 1.626152e-05 1.512214e-05 1.654649e-05 1.541517e-05 1.661268e-05 1.540537e-05 1.637599e-05 1.504169e-05 1.578851e-05 1.431422e-05 1.484112e-05 1.324934e-05 1.356035e-05 1.190062e-05 1.200122e-05 1.033823e-05 1.023812e-05 8.638982e-06 8.355353e-06 6.878574e-06 6.438482e-06 5.126228e-06 4.567221e-06 3.441634e-06 2.810175e-06 1.873493e-06 1.221494e-06 4.590831e-07 -1.606542e-07 -7.756229e-07 -1.314028e-06 -1.815488e-06 -2.231001e-06 -2.655466e-06 -2.916397e-06 -3.299566e-06 -3.384883e-06 -3.759543e-06 -3.658269e-06 -4.053361e-06 -3.763023e-06 -4.203545e-06 -3.728148e-06 -4.235547e-06 -3.583528e-06 -4.176222e-06 -3.358733e-06 -4.052532e-06 
-5.866828e-06 -7.480984e-06 -5.214324e-06 -7.080913e-06 -4.570479e-06 -6.709285e-06 -3.992201e-06 -6.413867e-06 -3.531492e-06 -6.234661e-06 -3.234936e-06 -6.202925e-06 -3.142740e-06 -6.340114e-06 -3.287177e-06 -6.656706e-06 -3.690247e-06 -7.150836e-06 -4.360376e-06 -7.806564e-06 -5.288024e-06 -8.591554e-06 -6.440158e-06 -9.453970e-06 -7.753860e-06 -1.031862e-05 -9.129905e-06 -1.108304e-05 -1.042797e-05 -1.161508e-05 -1.146610e-05 -1.175460e-05 -1.202767e-05 -1.132250e-05 -1.187874e-05 -1.013936e-05 -1.079676e-05 -8.053862e-06 -8.608282e-06 -4.977312e-06 -5.229081e-06 -9.166910e-07 -6.971498e-07 4.003351e-06 4.811590e-06 9.538257e-06 1.099185e-05 1.534534e-05 1.744285e-05 2.102735e-05 2.372180e-05 2.618930e-05 2.940566e-05 3.049621e-05 3.414829e-05 3.371928e-05 3.772145e-05 3.576160e-05 4.003359e-05 3.666011e-05 4.112578e-05 3.656637e-05 4.114967e-05 3.571310e-05 4.033490e-05 3.437476e-05 3.895350e-05 3.282989e-05 3.728691e-05 3.133006e-05 3.559820e-05 3.007744e-05 3.410973e-05 2.921046e-05 3.298514e-05 2.879580e-05 3.231492e-05 2.882555e-05 3.210640e-05 2.921933e-05 3.228085e-05 2.983271e-05 3.268093e-05 3.047341e-05 3.309056e-05 3.092523e-05 3.326619e-05 3.097767e-05 3.297505e-05 3.045639e-05 3.203296e-05 2.924867e-05 3.033380e-05 2.731858e-05 2.786477e-05 2.470920e-05 2.470496e-05 2.153246e-05 2.100900e-05 1.794982e-05 1.698057e-05 1.414852e-05 1.284209e-05 1.031828e-05 8.806592e-06 6.631909e-06 5.055980e-06 3.231783e-06 1.727831e-06 2.226973e-07 -1.089342e-06 -2.329786e-06 -3.353923e-06 -4.396787e-06 -5.064445e-06 -5.980899e-06 -6.250588e-06 -7.109713e-06 -6.963888e-06 -7.829144e-06 -7.269425e-06 -8.197279e-06 -7.239182e-06 -8.279154e-06 -6.947209e-06 -8.142577e-06 -6.466445e-06 -7.854958e-06 
-9.471493e-06 -1.189066e-05 -8.591868e-06 -1.138683e-05 -7.713016e-06 -1.090797e-05 -6.905282e-06 -1.051211e-05 -6.234754e-06 -1.024904e-05 -5.763730e-06 -1.016018e-05 -5.550610e-06 -1.027822e-05 -5.648648e-06 -1.062625e-05 -6.102876e-06 -1.121577e-05 -6.944555e-06 -1.204301e-05 -8.182714e-06 -1.308317e-05 -9.792773e-06 -1.428242e-05 -1.170308e-05 -1.554823e-05 -1.378127e-05 -1.673981e-05 -1.582387e-05 -1.766190e-05 -1.755383e-05 -1.806647e-05 -1.863140e-05 -1.766748e-05 -1.868289e-05 -1.617230e-05 -1.734846e-05 -1.332952e-05 -1.434455e-05 -8.986584e-06 -9.529983e-06 -3.144824e-06 -2.960009e-06 4.003954e-06 5.088061e-06 1.207338e-05 1.412892e-05 2.051790e-05 2.352479e-05 2.870420e-05 3.257335e-05 3.600538e-05 4.061048e-05 4.189831e-05 4.710696e-05 4.604400e-05 5.174046e-05 4.833551e-05 5.443099e-05 4.890580e-05 5.533624e-05 4.809618e-05 5.481105e-05 4.639327e-05 5.334020e-05 4.434615e-05 5.145689e-05 4.247774e-05 4.965937e-05 4.120436e-05 4.833814e-05 4.077589e-05 4.772412e-05 4.124604e-05 4.786500e-05 4.247682e-05 4.863257e-05 4.417541e-05 4.975830e-05 4.595507e-05 5.088911e-05 4.740695e-05 5.165179e-05 4.816805e-05 5.171365e-05 4.797281e-05 5.082894e-05 4.668059e-05 4.886514e-05 4.427799e-05 4.580828e-05 4.086085e-05 4.175099e-05 3.660398e-05 3.686927e-05 3.172748e-05 3.139402e-05 2.646658e-05 2.558256e-05 2.104893e-05 1.969319e-05 1.568000e-05 1.396458e-05 1.053530e-05 8.600681e-06 5.757154e-06 3.761273e-06 1.454064e-06 -4.422598e-07 -2.298746e-06 -3.946467e-06 -5.458020e-06 -6.731702e-06 -8.010444e-06 -8.815454e-06 -9.969717e-06 -1.024436e-05 -1.137270e-05 -1.108602e-05 -1.227479e-05 -1.142140e-05 -1.274492e-05 -1.133851e-05 -1.286054e-05 -1.092742e-05 -1.270300e-05 -1.027675e-05 -1.235364e-05 
-1.219636e-05 -1.540781e-05 -1.092787e-05 -1.464568e-05 -9.675225e-06 -1.394354e-05 -8.551110e-06 -1.339678e-05 -7.658935e-06 -1.308531e-05 -7.091913e-06 -1.307145e-05 -6.931119e-06 -1.339758e-05 -7.242180e-06 -1.408351e-05 -8.070306e-06 -1.512347e-05 -9.433397e-06 -1.648272e-05 -1.131304e-05 -1.809316e-05 -1.364337e-05 -1.984774e-05 -1.629829e-05 -2.159339e-05 -1.907847e-05 -2.312338e-05 -2.170119e-05 -2.417197e-05 -2.379825e-05 -2.441648e-05 -2.492846e-05 -2.349352e-05 -2.461152e-05 -2.103522e-05 -2.238588e-05 -1.672663e-05 -1.788662e-05 -1.037737e-05 -1.092983e-05 -1.991932e-06 -1.583169e-06 8.182273e-06 9.799359e-06 1.964805e-05 2.259387e-05 3.170251e-05 3.597670e-05 4.352750e-05 4.903589e-05 5.430825e-05 6.090011e-05 6.335394e-05 7.085706e-05 7.019348e-05 7.843771e-05 7.462787e-05 8.345315e-05 7.673248e-05 8.598393e-05 7.681506e-05 8.633239e-05 7.534479e-05 8.495458e-05 7.287039e-05 8.238807e-05 6.994388e-05 7.918733e-05 6.706007e-05 7.587153e-05 6.461506e-05 7.288376e-05 6.288124e-05 7.055748e-05 6.199367e-05 6.908733e-05 6.194411e-05 6.850559e-05 6.258251e-05 6.867086e-05 6.362968e-05 6.927768e-05 6.470623e-05 6.989357e-05 6.537944e-05 7.002293e-05 6.522423e-05 6.918802e-05 6.388790e-05 6.701050e-05 6.114472e-05 6.327544e-05 5.692872e-05 5.796413e-05 5.133804e-05 5.125030e-05 4.461251e-05 4.346401e-05 3.709180e-05 3.503416e-05 2.916504e-05 2.642369e-05 2.122201e-05 1.807047e-05 1.361353e-05 1.034292e-05 6.624739e-06 3.514194e-06 4.616607e-07 -2.245556e-06 -4.750750e-06 -6.862778e-06 -8.962250e-06 -1.034499e-05 -1.218581e-05 -1.276124e-05 -1.448383e-05 -1.422256e-05 -1.595430e-05 -1.486491e-05 -1.671821e-05 -1.483586e-05 -1.690907e-05 -1.428519e-05 -1.666467e-05 -1.335900e-05 -1.612098e-05 
-1.653995e-05 -2.054966e-05 -1.515560e-05 -1.979308e-05 -1.376942e-05 -1.908240e-05 -1.249591e-05 -1.851309e-05 -1.144294e-05 -1.816665e-05 -1.071289e-05 -1.811033e-05 -1.040280e-05 -1.839659e-05 -1.060237e-05 -1.906153e-05 -1.138878e-05 -2.012157e-05 -1.281727e-05 -2.156751e-05 -1.490663e-05 -2.335522e-05 -1.761967e-05 -2.539279e-05 -2.084014e-05 -2.752466e-05 -2.434879e-05 -2.951529e-05 -2.780434e-05 -3.103723e-05 -3.073705e-05 -3.167133e-05 -3.256451e-05 -3.092852e-05 -3.263849e-05 -2.830094e-05 -3.032617e-05 -2.334342e-05 -2.511949e-05 -1.577525e-05 -1.675347e-05 -5.580044e-06 -5.305070e-06 6.925458e-06 8.757838e-06 2.108014e-05 2.459861e-05 3.593829e-05 4.110853e-05 5.039468e-05 5.706172e-05 6.335074e-05 7.129628e-05 7.388664e-05 8.288438e-05 8.140340e-05 9.125840e-05 8.570752e-05 9.627267e-05 8.702516e-05 9.819509e-05 8.594723e-05 9.763623e-05 8.331873e-05 9.543213e-05 8.009294e-05 9.250141e-05 7.717437e-05 8.969888e-05 7.527561e-05 8.768718e-05 7.481074e-05 8.684581e-05 7.584352e-05 8.723126e-05 7.809880e-05 8.859373e-05 8.103387e-05 9.044506e-05 8.395339e-05 9.216244e-05 8.614254e-05 9.310548e-05 8.698962e-05 9.272292e-05 8.607423e-05 9.062998e-05 8.320795e-05 8.664661e-05 7.842756e-05 8.079769e-05 7.195236e-05 7.328403e-05 6.412304e-05 6.443680e-05 5.533924e-05 5.466697e-05 4.600824e-05 4.441775e-05 3.651000e-05 3.412419e-05 2.717800e-05 2.418168e-05 1.829163e-05 1.492329e-05 1.007478e-05 6.605854e-06 2.696847e-06 -5.957366e-07 -3.725743e-06 -6.586957e-06 -9.127965e-06 -1.134611e-05 -1.349362e-05 -1.491267e-05 -1.685115e-05 -1.737344e-05 -1.926748e-05 -1.884851e-05 -2.084026e-05 -1.947835e-05 -2.168914e-05 -1.941312e-05 -2.194714e-05 -1.880448e-05 -2.175275e-05 -1.780003e-05 -2.124325e-05 
-1.946112e-05 -2.422852e-05 -1.765291e-05 -2.318286e-05 -1.586550e-05 -2.223610e-05 -1.426508e-05 -2.153119e-05 -1.300532e-05 -2.118801e-05 -1.222622e-05 -2.129984e-05 -1.205119e-05 -2.192918e-05 -1.258148e-05 -2.310282e-05 -1.388796e-05 -2.480666e-05 -1.599986e-05 -2.698047e-05 -1.889068e-05 -2.951211e-05 -2.246129e-05 -3.223092e-05 -2.652101e-05 -3.489907e-05 -3.076802e-05 -3.720129e-05 -3.477308e-05 -3.873573e-05 -3.797351e-05 -3.901338e-05 -3.968822e-05 -3.747721e-05 -3.916532e-05 -3.355274e-05 -3.566960e-05 -2.673493e-05 -2.860545e-05 -1.670269e-05 -1.765482e-05 -3.435884e-06 -2.895904e-06 1.270082e-05 1.513527e-05 3.094086e-05 3.546747e-05 5.018320e-05 5.680600e-05 6.913712e-05 7.771260e-05 8.651419e-05 9.681343e-05 1.012228e-04 1.129883e-04 1.125216e-04 1.255025e-04 1.201000e-04 1.340599e-04 1.240772e-04 1.387795e-04 1.249288e-04 1.401132e-04 1.233686e-04 1.387359e-04 1.202180e-04 1.354338e-04 1.162883e-04 1.310116e-04 1.122951e-04 1.262247e-04 1.088062e-04 1.217291e-04 1.062152e-04 1.180398e-04 1.047287e-04 1.154863e-04 1.043565e-04 1.141674e-04 1.049055e-04 1.139174e-04 1.059861e-04 1.143055e-04 1.070450e-04 1.146830e-04 1.074329e-04 1.142827e-04 1.065005e-04 1.123539e-04 1.037070e-04 1.083014e-04 9.871297e-05 1.017957e-04 9.143590e-05 9.282875e-05 8.205636e-05 8.170452e-05 7.097787e-05 6.897539e-05 5.875530e-05 5.534297e-05 4.601093e-05 4.154951e-05 3.335590e-05 2.828210e-05 2.132892e-05 1.610384e-05 1.035727e-05 5.417435e-06 7.395379e-07 -3.541602e-06 -7.353871e-06 -1.068944e-05 -1.386777e-05 -1.606537e-05 -1.884221e-05 -1.979854e-05 -2.238977e-05 -2.207623e-05 -2.467350e-05 -2.311731e-05 -2.588743e-05 -2.315237e-05 -2.624078e-05 -2.241044e-05 -2.594592e-05 -2.111116e-05 -2.520986e-05 
-2.475585e-05 -3.030953e-05 -2.299572e-05 -2.943021e-05 -2.122834e-05 -2.862676e-05 -1.960821e-05 -2.803055e-05 -1.828143e-05 -2.775272e-05 -1.738815e-05 -2.788385e-05 -1.706331e-05 -2.849300e-05 -1.743418e-05 -2.962531e-05 -1.861302e-05 -3.129713e-05 -2.068326e-05 -3.348790e-05 -2.367834e-05 -3.612790e-05 -2.755342e-05 -3.908160e-05 -3.215157e-05 -4.212663e-05 -3.716842e-05 -4.493075e-05 -4.212209e-05 -4.703214e-05 -4.633903e-05 -4.783363e-05 -4.897034e-05 -4.662584e-05 -4.905364e-05 -4.265426e-05 -4.562930e-05 -3.523650e-05 -3.790482e-05 -2.391743e-05 -2.543969e-05 -8.628557e-06 -8.304828e-06 1.019642e-05 1.283366e-05 3.159490e-05 3.674215e-05 5.416089e-05 6.176490e-05 7.623424e-05 8.606052e-05 9.615488e-05 1.078785e-04 1.125264e-04 1.258176e-04 1.244331e-04 1.390153e-04 1.315690e-04 1.472402e-04 1.342601e-04 1.508782e-04 1.333820e-04 1.508262e-04 1.301937e-04 1.483169e-04 1.261156e-04 1.447035e-04 1.224895e-04 1.412375e-04 1.203563e-04 1.388734e-04 1.202903e-04 1.381289e-04 1.223204e-04 1.390285e-04 1.259550e-04 1.411369e-04 1.303054e-04 1.436746e-04 1.342787e-04 1.456893e-04 1.367974e-04 1.462432e-04 1.369925e-04 1.445757e-04 1.343324e-04 1.402106e-04 1.286660e-04 1.329955e-04 1.201867e-04 1.230802e-04 1.093411e-04 1.108533e-04 9.671893e-05 9.686351e-05 8.295089e-05 8.174217e-05 6.863633e-05 6.613802e-05 5.430273e-05 5.066673e-05 4.039230e-05 3.587376e-05 2.726389e-05 2.220849e-05 1.520025e-05 1.000886e-05 4.413703e-06 -5.042185e-07 -4.951412e-06 -9.223085e-06 -1.281835e-05 -1.614159e-05 -1.917675e-05 -2.133768e-05 -2.407840e-05 -2.495294e-05 -2.762926e-05 -2.717206e-05 -2.997815e-05 -2.820410e-05 -3.130378e-05 -2.826735e-05 -3.180173e-05 -2.757804e-05 -3.167281e-05 -2.634302e-05 -3.111361e-05 
-2.815113e-05 -3.439279e-05 -2.592593e-05 -3.318784e-05 -2.372510e-05 -3.213475e-05 -2.176491e-05 -3.142450e-05 -2.024759e-05 -3.121776e-05 -1.936048e-05 -3.163953e-05 -1.927187e-05 -3.277186e-05 -2.012252e-05 -3.464529e-05 -2.201277e-05 -3.722989e-05 -2.498551e-05 -4.042750e-05 -2.900581e-05 -4.406562e-05 -3.393825e-05 -4.789241e-05 -3.952261e-05 -5.157060e-05 -4.534900e-05 -5.466761e-05 -5.083503e-05 -5.664251e-05 -5.521275e-05 -5.683758e-05 -5.753982e-05 -5.449149e-05 -5.675464e-05 -4.879618e-05 -5.179180e-05 -3.901220e-05 -4.175761e-05 -2.463543e-05 -2.613810e-05 -5.578669e-06 -4.985898e-06 1.768975e-05 2.097614e-05 4.410739e-05 5.038044e-05 7.210993e-05 8.137795e-05 9.984450e-05 1.119060e-04 1.254558e-04 1.399971e-04 1.473758e-04 1.640558e-04 1.645476e-04 1.830452e-04 1.765386e-04 1.965530e-04 1.835261e-04 2.047409e-04 1.861778e-04 2.082127e-04 1.854684e-04 2.078470e-04 1.824850e-04 2.046426e-04 1.782658e-04 1.996036e-04 1.736967e-04 1.936731e-04 1.694667e-04 1.876957e-04 1.660609e-04 1.823831e-04 1.637610e-04 1.782555e-04 1.626318e-04 1.755580e-04 1.624920e-04 1.741778e-04 1.628928e-04 1.736043e-04 1.631357e-04 1.729745e-04 1.623543e-04 1.712130e-04 1.596564e-04 1.672430e-04 1.542934e-04 1.602107e-04 1.458106e-04 1.496637e-04 1.341349e-04 1.356366e-04 1.195803e-04 1.186310e-04 1.027790e-04 9.950669e-05 8.456573e-05 7.932117e-05 6.584806e-05 5.916118e-05 4.749167e-05 4.000075e-05 3.023595e-05 2.260663e-05 1.464555e-05 7.495883e-06 1.094061e-06 -5.061887e-06 -1.022781e-05 -1.501139e-05 -1.928831e-05 -2.246282e-05 -2.618259e-05 -2.763994e-05 -3.109883e-05 -3.083350e-05 -3.428640e-05 -3.236448e-05 -3.602891e-05 -3.255821e-05 -3.662303e-05 -3.172833e-05 -3.636329e-05 -3.016875e-05 -3.553193e-05 
-3.460663e-05 -4.161172e-05 -3.266452e-05 -4.080256e-05 -3.070983e-05 -4.011747e-05 -2.893132e-05 -3.972224e-05 -2.750817e-05 -3.975535e-05 -2.661462e-05 -4.032759e-05 -2.642209e-05 -4.152032e-05 -2.709655e-05 -4.338154e-05 -2.878875e-05 -4.591879e-05 -3.161534e-05 -4.908863e-05 -3.562986e-05 -5.278234e-05 -4.078450e-05 -5.680743e-05 -4.688502e-05 -6.086464e-05 -5.354299e-05 -6.452014e-05 -6.013242e-05 -6.717641e-05 -6.576266e-05 -6.805322e-05 -6.928688e-05 -6.620057e-05 -6.937113e-05 -6.057207e-05 -6.464487e-05 -5.017801e-05 -5.393226e-05 -3.430881e-05 -3.652784e-05 -1.278025e-05 -1.244542e-05 1.387711e-05 1.744200e-05 4.435976e-05 5.143099e-05 7.670477e-05 8.719525e-05 1.085619e-04 1.221294e-04 1.375636e-04 1.537496e-04 1.617079e-04 1.800629e-04 1.796708e-04 1.998354e-04 1.909914e-04 2.127182e-04 1.961037e-04 2.192260e-04 1.962212e-04 2.205882e-04 1.931027e-04 2.185034e-04 1.887371e-04 2.148369e-04 1.849950e-04 2.113026e-04 1.833001e-04 2.091779e-04 1.843811e-04 2.091010e-04 1.881560e-04 2.109930e-04 1.937795e-04 2.141205e-04 1.998493e-04 2.172879e-04 2.047215e-04 2.191103e-04 2.068595e-04 2.183035e-04 2.051293e-04 2.139203e-04 1.989736e-04 2.054851e-04 1.884359e-04 1.930116e-04 1.740557e-04 1.769259e-04 1.566866e-04 1.579393e-04 1.373022e-04 1.369165e-04 1.168409e-04 1.147666e-04 9.611434e-05 9.236658e-05 7.577739e-05 7.051095e-05 5.634019e-05 4.987916e-05 3.819690e-05 3.101387e-05 2.165199e-05 1.430800e-05 6.934154e-06 1.245527e-09 -5.802001e-06 -1.181305e-05 -1.648075e-05 -2.117120e-05 -2.510918e-05 -2.821502e-05 -3.177524e-05 -3.316367e-05 -3.663821e-05 -3.628548e-05 -3.991309e-05 -3.787283e-05 -4.185184e-05 -3.822209e-05 -4.272470e-05 -3.761950e-05 -4.280407e-05 -3.633261e-05 -4.235199e-05 
-3.877672e-05 -4.634576e-05 -3.631473e-05 -4.515974e-05 -3.388283e-05 -4.420321e-05 -3.174279e-05 -4.371687e-05 -3.014333e-05 -4.390493e-05 -2.932041e-05 -4.492703e-05 -2.949165e-05 -4.688617e-05 -3.084370e-05 -4.981331e-05 -3.351229e-05 -5.365163e-05 -3.755644e-05 -5.824403e-05 -4.292943e-05 -6.332742e-05 -4.944987e-05 -6.853423e-05 -5.677453e-05 -7.339715e-05 -6.437215e-05 -7.734814e-05 -7.149668e-05 -7.970432e-05 -7.716369e-05 -7.964414e-05 -8.014665e-05 -7.619721e-05 -7.902491e-05 -6.828879e-05 -7.231942e-05 -5.487660e-05 -5.872993e-05 -3.518391e-05 -3.744118e-05 -8.978165e-06 -8.414892e-06 2.319974e-05 2.743606e-05 5.995335e-05 6.826935e-05 9.915026e-05 1.115460e-04 1.382290e-04 1.544209e-04 1.746167e-04 1.941898e-04 2.061489e-04 2.286827e-04 2.313884e-04 2.565158e-04 2.497729e-04 2.771610e-04 2.615741e-04 2.908448e-04 2.677009e-04 2.983341e-04 2.694178e-04 3.006863e-04 2.680613e-04 2.990405e-04 2.648274e-04 2.944937e-04 2.606666e-04 2.880695e-04 2.562822e-04 2.807374e-04 2.521841e-04 2.734191e-04 2.487317e-04 2.669215e-04 2.461157e-04 2.617852e-04 2.442765e-04 2.580954e-04 2.428076e-04 2.553506e-04 2.409213e-04 2.524774e-04 2.375333e-04 2.480243e-04 2.314694e-04 2.404913e-04 2.217354e-04 2.286938e-04 2.077588e-04 2.120457e-04 1.895243e-04 1.906880e-04 1.675715e-04 1.654407e-04 1.428736e-04 1.376171e-04 1.166508e-04 1.087674e-04 9.017601e-05 8.042283e-05 6.461445e-05 5.389542e-05 4.091743e-05 3.015852e-05 1.977149e-05 9.809189e-06 1.592027e-06 -6.905658e-06 -1.345255e-05 -2.002422e-05 -2.539922e-05 -2.978977e-05 -3.444173e-05 -3.657326e-05 -4.088236e-05 -4.080913e-05 -4.508873e-05 -4.294812e-05 -4.745867e-05 -4.342676e-05 -4.839391e-05 -4.265091e-05 -4.828242e-05 -4.098974e-05 -4.748808e-05 
-4.659835e-05 -5.488666e-05 -4.474714e-05 -5.441497e-05 -4.288613e-05 -5.414936e-05 -4.123109e-05 -5.428952e-05 -3.998744e-05 -5.499969e-05 -3.935829e-05 -5.640808e-05 -3.954904e-05 -5.860350e-05 -4.076516e-05 -6.162842e-05 -4.319966e-05 -6.546790e-05 -4.700745e-05 -7.003523e-05 -5.226634e-05 -7.515590e-05 -5.892692e-05 -8.055123e-05 -6.675590e-05 -8.582017e-05 -7.527732e-05 -9.041434e-05 -8.371606e-05 -9.360125e-05 -9.095194e-05 -9.442181e-05 -9.550617e-05 -9.167088e-05 -9.559929e-05 -8.395307e-05 -8.932689e-05 -6.986426e-05 -7.497244e-05 -4.830542e-05 -5.141456e-05 -1.886073e-05 -1.851780e-05 1.788806e-05 2.263200e-05 6.024234e-05 6.974934e-05 1.055324e-04 1.196439e-04 1.505058e-04 1.687164e-04 1.918607e-04 2.135300e-04 2.267914e-04 2.513259e-04 2.534269e-04 2.803868e-04 2.710850e-04 3.001994e-04 2.803148e-04 3.114200e-04 2.827408e-04 3.156716e-04 2.807458e-04 3.152174e-04 2.770398e-04 3.125502e-04 2.741673e-04 3.099482e-04 2.740270e-04 3.090637e-04 2.774975e-04 3.106260e-04 2.842619e-04 3.143328e-04 2.928921e-04 3.189629e-04 3.011884e-04 3.226908e-04 3.066952e-04 3.235252e-04 3.072591e-04 3.197576e-04 3.014796e-04 3.103053e-04 2.889350e-04 2.948650e-04 2.701469e-04 2.738642e-04 2.463309e-04 2.482667e-04 2.190459e-04 2.193249e-04 1.898600e-04 1.883660e-04 1.601213e-04 1.566499e-04 1.308608e-04 1.252984e-04 1.028055e-04 9.526763e-05 7.645355e-05 6.733734e-05 5.215834e-05 4.210442e-05 3.018952e-05 1.997669e-05 1.075709e-05 1.172635e-06 -5.993824e-06 -1.426855e-05 -2.000187e-05 -2.646490e-05 -3.130577e-05 -3.565952e-05 -4.004809e-05 -4.218313e-05 -4.646413e-05 -4.641665e-05 -5.085959e-05 -4.875838e-05 -5.358314e-05 -4.959875e-05 -5.499978e-05 -4.930348e-05 -5.546891e-05 -4.820466e-05 -5.532872e-05 
-5.186378e-05 -6.051278e-05 -4.941895e-05 -5.959007e-05 -4.701994e-05 -5.901532e-05 -4.496827e-05 -5.908312e-05 -4.355703e-05 -6.004762e-05 -4.307349e-05 -6.211104e-05 -4.379234e-05 -6.540359e-05 -4.595709e-05 -6.995625e-05 -4.974895e-05 -7.567136e-05 -5.524631e-05 -8.229982e-05 -6.238159e-05 -8.943460e-05 -7.090424e-05 -9.652610e-05 -8.035535e-05 -1.029139e-04 -9.005089e-05 -1.078552e-04 -9.906158e-05 -1.105212e-04 -1.061788e-04 -1.099504e-04 -1.098774e-04 -1.049814e-04 -1.083255e-04 -9.424287e-05 -9.951453e-05 -7.628870e-05 -8.156645e-05 -4.991679e-05 -5.318495e-05 -1.460422e-05 -1.412179e-05 2.910324e-05 3.452391e-05 7.942313e-05 9.031096e-05 1.334876e-04 1.497918e-04 1.877897e-04 2.090869e-04 2.387975e-04 2.645355e-04 2.835657e-04 3.132516e-04 3.201852e-04 3.534574e-04 3.479725e-04 3.845391e-04 3.673723e-04 4.068500e-04 3.796325e-04 4.213560e-04 3.863630e-04 4.292542e-04 3.891167e-04 4.316873e-04 3.891094e-04 4.296328e-04 3.871431e-04 4.239693e-04 3.837162e-04 4.156413e-04 3.792217e-04 4.057793e-04 3.740938e-04 3.956435e-04 3.687860e-04 3.863449e-04 3.635752e-04 3.784416e-04 3.582960e-04 3.716060e-04 3.521757e-04 3.645574e-04 3.439022e-04 3.553372e-04 3.319384e-04 3.418461e-04 3.149694e-04 3.224439e-04 2.923028e-04 2.964060e-04 2.640760e-04 2.641046e-04 2.312220e-04 2.268961e-04 1.952483e-04 1.867965e-04 1.579304e-04 1.460669e-04 1.210224e-04 1.068297e-04 8.604234e-05 7.079474e-05 5.415319e-05 3.912428e-05 2.612457e-05 1.242286e-05 2.352959e-06 -9.185821e-06 -1.708535e-05 -2.593899e-05 -3.236620e-05 -3.830806e-05 -4.384690e-05 -4.688796e-05 -5.200024e-05 -5.231317e-05 -5.735832e-05 -5.520169e-05 -6.046858e-05 -5.612321e-05 -6.186295e-05 -5.558584e-05 -6.203919e-05 -5.403557e-05 -6.145222e-05 
-6.124552e-05 -7.053238e-05 -5.985695e-05 -7.075559e-05 -5.848547e-05 -7.132573e-05 -5.736566e-05 -7.247835e-05 -5.672071e-05 -7.440433e-05 -5.677566e-05 -7.724870e-05 -5.776613e-05 -8.110433e-05 -5.993768e-05 -8.599903e-05 -6.352982e-05 -9.187632e-05 -6.874075e-05 -9.857286e-05 -7.567332e-05 -1.057991e-04 -8.426877e-05 -1.131296e-04 -9.423847e-05 -1.200039e-04 -1.050005e-04 -1.257244e-04 -1.156184e-04 -1.294251e-04 -1.247356e-04 -1.299959e-04 -1.305176e-04 -1.259893e-04 -1.306583e-04 -1.156028e-04 -1.225487e-04 -9.685976e-05 -1.036835e-04 -6.804292e-05 -7.226837e-05 -2.829255e-05 -2.785090e-05 2.185645e-05 2.827394e-05 8.023782e-05 9.306480e-05 1.432418e-04 1.621642e-04 2.063832e-04 2.306268e-04 2.650782e-04 2.937378e-04 3.154220e-04 3.477250e-04 3.547935e-04 3.902334e-04 3.821909e-04 4.205198e-04 3.982789e-04 4.393888e-04 4.051819e-04 4.489285e-04 4.060739e-04 4.520944e-04 4.046078e-04 4.521731e-04 4.042312e-04 4.521676e-04 4.074771e-04 4.541947e-04 4.153805e-04 4.590328e-04 4.271951e-04 4.659598e-04 4.405297e-04 4.729466e-04 4.519072e-04 4.771750e-04 4.576171e-04 4.757497e-04 4.546261e-04 4.664113e-04 4.412813e-04 4.480443e-04 4.175992e-04 4.208362e-04 3.850870e-04 3.860736e-04 3.462087e-04 3.457057e-04 3.037210e-04 3.018767e-04 2.601067e-04 2.565845e-04 2.172474e-04 2.115195e-04 1.763578e-04 1.680411e-04 1.381107e-04 1.272166e-04 1.028422e-04 8.986307e-05 7.073992e-05 5.656852e-05 4.195739e-05 2.769634e-05 1.664518e-05 3.386549e-06 -5.077620e-06 -1.643278e-05 -2.317450e-05 -3.201820e-05 -3.773284e-05 -4.376924e-05 -4.897793e-05 -5.217880e-05 -5.725809e-05 -5.778388e-05 -6.301023e-05 -6.112325e-05 -6.671813e-05 -6.270628e-05 -6.887392e-05 -6.299398e-05 -6.994870e-05 -6.239089e-05 -7.037395e-05 
-6.793735e-05 -7.727135e-05 -6.586056e-05 -7.693956e-05 -6.386987e-05 -7.713900e-05 -6.229987e-05 -7.822628e-05 -6.148600e-05 -8.051851e-05 -6.177211e-05 -8.427777e-05 -6.350352e-05 -8.967910e-05 -6.700033e-05 -9.676249e-05 -7.250846e-05 -1.053771e-04 -8.013315e-05 -1.151343e-04 -8.976913e-05 -1.253933e-04 -1.010486e-04 -1.352984e-04 -1.133244e-04 -1.438673e-04 -1.256862e-04 -1.500927e-04 -1.369774e-04 -1.529888e-04 -1.457652e-04 -1.515172e-04 -1.502437e-04 -1.444052e-04 -1.481381e-04 -1.299858e-04 -1.367636e-04 -1.062662e-04 -1.133931e-04 -7.135456e-05 -7.593648e-05 -2.416466e-05 -2.371403e-05 3.489631e-05 4.201135e-05 1.035907e-04 1.179999e-04 1.780438e-04 1.995380e-04 2.534159e-04 2.813080e-04 3.248284e-04 3.583534e-04 3.882686e-04 4.268733e-04 4.412318e-04 4.846610e-04 4.829570e-04 5.311125e-04 5.142259e-04 5.668540e-04 5.368158e-04 5.931434e-04 5.527927e-04 6.112635e-04 5.638677e-04 6.221139e-04 5.710152e-04 6.261413e-04 5.744715e-04 6.236213e-04 5.740885e-04 6.151426e-04 5.698492e-04 6.020007e-04 5.622443e-04 5.861992e-04 5.522554e-04 5.699362e-04 5.409172e-04 5.547612e-04 5.286872e-04 5.408214e-04 5.149948e-04 5.266147e-04 4.982566e-04 5.094148e-04 4.763961e-04 4.861933e-04 4.476294e-04 4.546467e-04 4.111520e-04 4.139340e-04 3.674465e-04 3.649111e-04 3.181551e-04 3.098691e-04 2.656548e-04 2.519505e-04 2.125454e-04 1.944722e-04 1.612210e-04 1.403524e-04 1.136022e-04 9.175206e-05 7.102850e-05 4.995263e-05 3.426765e-05 1.542055e-05 3.589402e-06 -1.201818e-05 -2.113420e-05 -3.296810e-05 -4.032436e-05 -4.827074e-05 -5.459735e-05 -5.885348e-05 -6.467797e-05 -6.562696e-05 -7.132867e-05 -6.942534e-05 -7.529665e-05 -7.097948e-05 -7.727943e-05 -7.091263e-05 -7.790748e-05 -6.975018e-05 -7.774018e-05 
-7.904705e-05 -8.887740e-05 -7.861811e-05 -9.026389e-05 -7.828554e-05 -9.223539e-05 -7.829481e-05 -9.507027e-05 -7.887747e-05 -9.899244e-05 -8.027191e-05 -1.041692e-04 -8.273914e-05 -1.107000e-04 -8.656580e-05 -1.185924e-04 -9.204450e-05 -1.277265e-04 -9.942362e-05 -1.378136e-04 -1.088276e-04 -1.483644e-04 -1.201630e-04 -1.586887e-04 -1.330361e-04 -1.679394e-04 -1.466999e-04 -1.751783e-04 -1.600178e-04 -1.793969e-04 -1.713987e-04 -1.794106e-04 -1.786672e-04 -1.736195e-04 -1.789345e-04 -1.597921e-04 -1.686682e-04 -1.351535e-04 -1.441814e-04 -9.697516e-05 -1.025595e-04 -4.355690e-05 -4.272205e-05 2.481647e-05 3.385383e-05 1.054126e-04 1.230930e-04 1.933094e-04 2.189869e-04 2.822658e-04 3.147028e-04 3.658873e-04 4.037761e-04 4.387405e-04 4.810834e-04 4.971712e-04 5.434359e-04 5.397193e-04 5.897712e-04 5.671462e-04 6.210275e-04 5.821628e-04 6.398120e-04 5.889322e-04 6.499150e-04 5.923604e-04 6.556493e-04 5.971627e-04 6.610032e-04 6.067932e-04 6.687239e-04 6.224913e-04 6.795898e-04 6.427826e-04 6.921416e-04 6.636814e-04 7.030048e-04 6.796152e-04 7.077458e-04 6.848531e-04 7.020469e-04 6.750302e-04 6.828761e-04 6.482862e-04 6.492814e-04 6.056376e-04 6.025312e-04 5.504927e-04 5.455775e-04 4.875612e-04 4.821322e-04 4.216142e-04 4.157895e-04 3.565276e-04 3.495004e-04 2.948413e-04 2.854448e-04 2.378159e-04 2.251536e-04 1.858060e-04 1.696950e-04 1.387179e-04 1.198128e-04 9.637429e-05 7.598982e-05 5.870383e-05 3.845894e-05 2.576048e-05 7.199921e-06 -2.365169e-06 -1.805287e-05 -2.566389e-05 -3.777858e-05 -4.429445e-05 -5.261590e-05 -5.861162e-05 -6.329666e-05 -6.914007e-05 -7.058000e-05 -7.651586e-05 -7.519765e-05 -8.142028e-05 -7.781622e-05 -8.452350e-05 -7.901718e-05 -8.644611e-05 -7.929182e-05 -8.773900e-05 
-8.748903e-05 -9.690571e-05 -8.626016e-05 -9.759946e-05 -8.520717e-05 -9.910686e-05 -8.469034e-05 -1.018607e-04 -8.508609e-05 -1.062646e-04 -8.680406e-05 -1.126747e-04 -9.028344e-05 -1.213505e-04 -9.595705e-05 -1.323739e-04 -1.041749e-04 -1.455429e-04 -1.150913e-04 -1.602713e-04 -1.285408e-04 -1.755421e-04 -1.439498e-04 -1.899680e-04 -1.603323e-04 -2.019836e-04 -1.763830e-04 -2.101129e-04 -1.906066e-04 -2.131635e-04 -2.013508e-04 -2.101591e-04 -2.066275e-04 -1.999412e-04 -2.037755e-04 -1.806540e-04 -1.892763e-04 -1.495704e-04 -1.591242e-04 -1.036417e-04 -1.098736e-04 -4.069262e-05 -3.999059e-05 3.930713e-05 4.916400e-05 1.335724e-04 1.532203e-04 2.367685e-04 2.656011e-04 3.420788e-04 3.788947e-04 4.426494e-04 4.863216e-04 5.329538e-04 5.828868e-04 6.097239e-04 6.659575e-04 6.722398e-04 7.351669e-04 7.219408e-04 7.917263e-04 7.615011e-04 8.374006e-04 7.936676e-04 8.735030e-04 8.202244e-04 9.002620e-04 8.414285e-04 9.168207e-04 8.561503e-04 9.219378e-04 8.627168e-04 9.151398e-04 8.600970e-04 8.977320e-04 8.487843e-04 8.729831e-04 8.308083e-04 8.451640e-04 8.087898e-04 8.178019e-04 7.845416e-04 7.920581e-04 7.580140e-04 7.661232e-04 7.272052e-04 7.359601e-04 6.891076e-04 6.969927e-04 6.411764e-04 6.459159e-04 5.825451e-04 5.818870e-04 5.144531e-04 5.067660e-04 4.398591e-04 4.245139e-04 3.625981e-04 3.401238e-04 2.865132e-04 2.585052e-04 2.148369e-04 1.836374e-04 1.499005e-04 1.181372e-04 9.310538e-05 6.322037e-05 4.504441e-05 1.893396e-05 5.674977e-06 -1.549157e-05 -2.551169e-05 -4.129144e-05 -4.934143e-05 -5.988424e-05 -6.682870e-05 -7.267870e-05 -7.906767e-05 -8.096093e-05 -8.714522e-05 -8.584285e-05 -9.207902e-05 -8.825122e-05 -9.478162e-05 -8.894101e-05 -9.604785e-05 -8.852161e-05 -9.656014e-05 