# vtk DataFile Version 2.0
Comment goes here
ASCII

DATASET STRUCTURED_POINTS
FIELD FieldData 1
TIME 1 1 double
0.19000000
DIMENSIONS    128   128   1

ORIGIN    0.000   0.000   0.000
SPACING   0.039062 0.039062   1.000

POINT_DATA   16384
SCALARS Omega double
LOOKUP_TABLE default

1.109287e-14 -1.815620e-15 -1.967571e-14 -1.690950e-14 -8.444244e-15 -2.200044e-14 -2.422809e-14 -1.717258e-14 -4.878528e-15 1.046664e-14 1.764432e-14 2.331472e-14 2.351404e-14 2.287725e-14 2.309678e-14 1.121384e-14 -5.721487e-16 1.187048e-14 -1.007018e-15 -1.368564e-14 -1.893844e-14 -3.045330e-15 2.979898e-15 1.987318e-14 -5.505787e-15 -2.014334e-18 -3.007404e-14 4.383404e-15 -1.144969e-14 -2.351510e-14 -1.033170e-14 -6.792717e-15 -5.049986e-14 -3.712893e-14 -2.016470e-14 -6.529263e-15 1.155265e-14 -2.836878e-14 -3.130335e-14 -6.516166e-14 -4.448900e-14 -2.260179e-14 1.064896e-15 4.377771e-16 2.240927e-14 3.144063e-14 -1.766450e-14 -1.221461e-14 -8.264287e-15 -4.137605e-14 -1.801177e-14 -1.017015e-14 1.378667e-14 1.911545e-14 1.527299e-14 1.654154e-14 4.041733e-15 2.027347e-14 1.388983e-14 1.858501e-14 1.856512e-14 1.525256e-14 2.039880e-14 2.140090e-14 5.914807e-15 2.111975e-14 2.242096e-14 3.384761e-14 3.027193e-14 2.941050e-14 1.667648e-14 8.156490e-15 1.730778e-15 -1.719311e-14 -1.181758e-14 -2.117039e-15 -2.195053e-15 -5.013758e-15 2.002095e-15 9.636886e-15 1.246066e-14 -4.727062e-15 1.210644e-14 3.569918e-14 3.517059e-14 6.173322e-14 4.498550e-14 6.988146e-14 -1.408852e-14 -2.065893e-14 5.269916e-14 1.763193e-14 2.887278e-14 7.987969e-15 3.638086e-14 1.654523e-14 4.640664e-14 4.864403e-14 3.427779e-14 7.991001e-14 -2.858395e-14 1.849190e-14 -3.283634e-14 -5.541731e-14 1.142196e-14 2.867983e-14 3.561976e-14 -2.439542e-15 1.234796e-14 4.020460e-15 -6.000114e-15 -1.306352e-14 -2.312078e-14 -2.534518e-14 -1.985004e-14 -1.170789e-14 -1.654058e-14 -2.128736e-14 -2.091279e-14 -1.997440e-14 -4.806847e-15 6.330707e-15 6.259640e-15 3.177801e-15 -3.224689e-15 -4.029753e-16 -1.288981e-14 -1.117822e-16 
9.183188e-06 8.831236e-06 8.662762e-06 8.375037e-06 8.248201e-06 8.017138e-06 7.914557e-06 7.732700e-06 7.636335e-06 7.496831e-06 7.389146e-06 7.286008e-06 7.151257e-06 7.079366e-06 6.904946e-06 6.859861e-06 6.637672e-06 6.615359e-06 6.343037e-06 6.339733e-06 6.021641e-06 6.034073e-06 5.681919e-06 5.708094e-06 5.341111e-06 5.381759e-06 5.026417e-06 5.086988e-06 4.776237e-06 4.869069e-06 4.641080e-06 4.787085e-06 4.683336e-06 4.912355e-06 4.974813e-06 5.323804e-06 5.590917e-06 6.099463e-06 6.600900e-06 7.304182e-06 8.054750e-06 8.975034e-06 9.968854e-06 1.110740e-05 1.231394e-05 1.364565e-05 1.500938e-05 1.648219e-05 1.792690e-05 1.946703e-05 2.090495e-05 2.242722e-05 2.377140e-05 2.519281e-05 2.637043e-05 2.762372e-05 2.858719e-05 2.963144e-05 3.036494e-05 3.119069e-05 3.171066e-05 3.233890e-05 3.268857e-05 3.316396e-05 3.340348e-05 3.378391e-05 3.397817e-05 3.432298e-05 3.452984e-05 3.488911e-05 3.515004e-05 3.555668e-05 3.589113e-05 3.635661e-05 3.676056e-05 3.727434e-05 3.772255e-05 3.825468e-05 3.870588e-05 3.921190e-05 3.961570e-05 4.004320e-05 4.034770e-05 4.064355e-05 4.080270e-05 4.092034e-05 4.089994e-05 4.080582e-05 4.058761e-05 4.026569e-05 3.984886e-05 3.930259e-05 3.870256e-05 3.795356e-05 3.719846e-05 3.628235e-05 3.540776e-05 3.436797e-05 3.341143e-05 3.229250e-05 3.128878e-05 3.013077e-05 2.910899e-05 2.794415e-05 2.692686e-05 2.577879e-05 2.478287e-05 2.366771e-05 2.270617e-05 2.163491e-05 2.071870e-05 1.969956e-05 1.883888e-05 1.787897e-05 1.708365e-05 1.618973e-05 1.546886e-05 1.464723e-05 1.400837e-05 1.326429e-05 1.271244e-05 1.204937e-05 1.158621e-05 1.100529e-05 1.062863e-05 1.012848e-05 9.832187e-06 9.408999e-06 
1.836065e-05 1.764103e-05 1.729114e-05 1.669932e-05 1.643255e-05 1.595411e-05 1.573612e-05 1.535689e-05 1.515197e-05 1.485904e-05 1.463244e-05 1.441467e-05 1.413519e-05 1.398317e-05 1.362592e-05 1.353154e-05 1.308062e-05 1.303646e-05 1.248749e-05 1.248648e-05 1.184853e-05 1.188423e-05 1.118105e-05 1.124921e-05 1.051952e-05 1.062095e-05 9.917805e-06 1.006241e-05 9.451634e-06 9.662864e-06 9.220560e-06 9.539011e-06 9.347754e-06 9.832083e-06 9.975396e-06 1.069889e-05 1.125332e-05 1.229497e-05 1.331964e-05 1.475007e-05 1.627443e-05 1.813863e-05 2.015073e-05 2.245164e-05 2.489004e-05 2.757754e-05 3.033045e-05 3.330008e-05 3.621412e-05 3.931750e-05 4.221598e-05 4.528178e-05 4.798977e-05 5.085101e-05 5.322214e-05 5.574370e-05 5.768262e-05 5.978254e-05 6.125799e-05 6.291787e-05 6.396364e-05 6.522638e-05 6.593028e-05 6.688649e-05 6.737020e-05 6.813701e-05 6.853165e-05 6.922898e-05 6.965131e-05 7.038024e-05 7.091384e-05 7.174069e-05 7.242458e-05 7.337232e-05 7.419805e-05 7.524506e-05 7.616120e-05 7.724639e-05 7.816882e-05 7.920150e-05 8.002735e-05 8.090025e-05 8.152329e-05 8.212731e-05 8.245284e-05 8.269197e-05 8.264935e-05 8.245403e-05 8.200525e-05 8.134206e-05 8.048521e-05 7.936115e-05 7.812828e-05 7.658846e-05 7.503833e-05 7.315736e-05 7.136468e-05 6.923369e-05 6.727741e-05 6.498985e-05 6.294300e-05 6.058273e-05 5.850601e-05 5.613994e-05 5.407971e-05 5.175594e-05 4.974591e-05 4.749627e-05 4.556139e-05 4.340643e-05 4.156695e-05 3.952111e-05 3.779554e-05 3.587095e-05 3.427723e-05 3.248552e-05 3.104049e-05 2.939280e-05 2.811059e-05 2.661640e-05 2.550650e-05 2.417219e-05 2.323777e-05 2.206547e-05 2.130230e-05 2.028935e-05 1.968545e-05 1.882463e-05 
2.751875e-05 2.641024e-05 2.587129e-05 2.496193e-05 2.455415e-05 2.382120e-05 2.349151e-05 2.291267e-05 2.260583e-05 2.216079e-05 2.182291e-05 2.149409e-05 2.107655e-05 2.084905e-05 2.031275e-05 2.017368e-05 1.949326e-05 1.943081e-05 1.859861e-05 1.860141e-05 1.763056e-05 1.768819e-05 1.661449e-05 1.671970e-05 1.560207e-05 1.575517e-05 1.467456e-05 1.488960e-05 1.394648e-05 1.425821e-05 1.356859e-05 1.403811e-05 1.372785e-05 1.444431e-05 1.464079e-05 1.571643e-05 1.653675e-05 1.809348e-05 1.962864e-05 2.177648e-05 2.407290e-05 2.688342e-05 2.992478e-05 3.340553e-05 3.710027e-05 4.117759e-05 4.535731e-05 4.987397e-05 5.430649e-05 5.903751e-05 6.345471e-05 6.813931e-05 7.227535e-05 7.665885e-05 8.029095e-05 8.416674e-05 8.714942e-05 9.039151e-05 9.267642e-05 9.525517e-05 9.689238e-05 9.887096e-05 9.999198e-05 1.015055e-04 1.022927e-04 1.035160e-04 1.041654e-04 1.052771e-04 1.059625e-04 1.071125e-04 1.079574e-04 1.092432e-04 1.103038e-04 1.117580e-04 1.130199e-04 1.146090e-04 1.159938e-04 1.176264e-04 1.190083e-04 1.205498e-04 1.217761e-04 1.230684e-04 1.239830e-04 1.248660e-04 1.253311e-04 1.256646e-04 1.255788e-04 1.252621e-04 1.245725e-04 1.235582e-04 1.222647e-04 1.205649e-04 1.187163e-04 1.163987e-04 1.140818e-04 1.112567e-04 1.085800e-04 1.053810e-04 1.024577e-04 9.902055e-05 9.595424e-05 9.240007e-05 8.927639e-05 8.570129e-05 8.258595e-05 7.905930e-05 7.600151e-05 7.257042e-05 6.960889e-05 6.630586e-05 6.347459e-05 6.032487e-05 5.765675e-05 5.468329e-05 5.221078e-05 4.943599e-05 4.718940e-05 4.463438e-05 4.263885e-05 4.032116e-05 3.859348e-05 3.652478e-05 3.507094e-05 3.325532e-05 3.206914e-05 3.050262e-05 2.956557e-05 2.823674e-05 
3.664865e-05 3.510276e-05 3.433493e-05 3.305776e-05 3.246889e-05 3.143146e-05 3.095093e-05 3.012503e-05 2.967915e-05 2.903939e-05 2.855604e-05 2.808087e-05 2.749484e-05 2.716639e-05 2.642520e-05 2.622820e-05 2.529796e-05 2.521823e-05 2.408901e-05 2.411231e-05 2.280239e-05 2.291476e-05 2.147310e-05 2.166357e-05 2.017018e-05 2.043659e-05 1.900079e-05 1.935826e-05 1.811502e-05 1.860582e-05 1.771034e-05 1.841219e-05 1.803244e-05 1.906173e-05 1.936762e-05 2.087355e-05 2.202159e-05 2.416850e-05 2.628090e-05 2.921910e-05 3.235879e-05 3.618803e-05 4.033388e-05 4.506778e-05 5.009700e-05 5.563873e-05 6.132419e-05 6.746271e-05 7.349043e-05 7.992162e-05 8.592850e-05 9.229895e-05 9.792489e-05 1.038891e-04 1.088327e-04 1.141106e-04 1.181755e-04 1.225968e-04 1.257187e-04 1.292438e-04 1.314920e-04 1.342073e-04 1.357609e-04 1.378500e-04 1.389564e-04 1.406559e-04 1.415801e-04 1.431310e-04 1.441070e-04 1.457109e-04 1.469039e-04 1.486908e-04 1.501750e-04 1.521874e-04 1.539407e-04 1.561319e-04 1.580463e-04 1.602909e-04 1.621941e-04 1.643081e-04 1.659916e-04 1.677587e-04 1.690087e-04 1.702089e-04 1.708365e-04 1.712767e-04 1.711426e-04 1.706829e-04 1.697145e-04 1.682891e-04 1.664871e-04 1.641136e-04 1.615474e-04 1.583217e-04 1.551141e-04 1.511929e-04 1.474972e-04 1.430700e-04 1.390459e-04 1.343049e-04 1.300975e-04 1.252124e-04 1.209399e-04 1.160435e-04 1.117945e-04 1.069800e-04 1.028189e-04 9.814691e-05 9.412258e-05 8.963292e-05 8.578787e-05 8.151032e-05 7.788606e-05 7.384793e-05 7.048621e-05 6.671505e-05 6.365553e-05 6.017800e-05 5.745407e-05 5.429284e-05 5.192709e-05 4.909753e-05 4.709836e-05 4.460612e-05 4.296584e-05 4.080612e-05 3.950060e-05 3.765889e-05 
4.573673e-05 4.370966e-05 4.269639e-05 4.102310e-05 4.024965e-05 3.889187e-05 3.826657e-05 3.718730e-05 3.661423e-05 3.578035e-05 3.516523e-05 3.454870e-05 3.380573e-05 3.338339e-05 3.244282e-05 3.219490e-05 3.101082e-05 3.091885e-05 2.947652e-05 2.952166e-05 2.784323e-05 2.800638e-05 2.615418e-05 2.641928e-05 2.449613e-05 2.485743e-05 2.300394e-05 2.347702e-05 2.186644e-05 2.250121e-05 2.133213e-05 2.222437e-05 2.171116e-05 2.300765e-05 2.336728e-05 2.525930e-05 2.669240e-05 2.939380e-05 3.205867e-05 3.576832e-05 3.974908e-05 4.460306e-05 4.987739e-05 5.590176e-05 6.231742e-05 6.939545e-05 7.666588e-05 8.453199e-05 9.225810e-05 1.005248e-04 1.082432e-04 1.164575e-04 1.237078e-04 1.314254e-04 1.378215e-04 1.446814e-04 1.499715e-04 1.557526e-04 1.598532e-04 1.645019e-04 1.674990e-04 1.711215e-04 1.732405e-04 1.760659e-04 1.776174e-04 1.799411e-04 1.812561e-04 1.833776e-04 1.847465e-04 1.869138e-04 1.885386e-04 1.909098e-04 1.928771e-04 1.955003e-04 1.977770e-04 2.005900e-04 2.030369e-04 2.058819e-04 2.082819e-04 2.109309e-04 2.130253e-04 2.152117e-04 2.167388e-04 2.181938e-04 2.189255e-04 2.194140e-04 2.191855e-04 2.185393e-04 2.172689e-04 2.154113e-04 2.131073e-04 2.100642e-04 2.068172e-04 2.027114e-04 1.986743e-04 1.937018e-04 1.890613e-04 1.834562e-04 1.784028e-04 1.723995e-04 1.671028e-04 1.609052e-04 1.555014e-04 1.492670e-04 1.438579e-04 1.376968e-04 1.323591e-04 1.263449e-04 1.211423e-04 1.153276e-04 1.103211e-04 1.047506e-04 1.000039e-04 9.472215e-05 9.030025e-05 8.535273e-05 8.131695e-05 7.674674e-05 7.314783e-05 6.899054e-05 6.586245e-05 6.214163e-05 5.949747e-05 5.622197e-05 5.405230e-05 5.121589e-05 4.948914e-05 4.707228e-05 
5.474061e-05 5.214701e-05 5.081853e-05 4.866141e-05 4.763384e-05 4.586895e-05 4.503142e-05 4.361652e-05 4.285247e-05 4.175048e-05 4.094483e-05 4.012527e-05 3.917277e-05 3.861142e-05 3.742623e-05 3.710299e-05 3.562858e-05 3.552440e-05 3.374293e-05 3.383706e-05 3.177655e-05 3.204589e-05 2.978422e-05 3.020665e-05 2.787139e-05 2.843432e-05 2.619867e-05 2.691276e-05 2.498840e-05 2.590448e-05 2.453227e-05 2.575705e-05 2.519564e-05 2.690025e-05 2.741104e-05 2.982509e-05 3.165065e-05 3.503667e-05 3.837006e-05 4.297741e-05 4.792341e-05 5.392793e-05 6.046253e-05 6.790590e-05 7.584588e-05 8.459259e-05 9.358856e-05 1.033167e-04 1.128791e-04 1.231132e-04 1.326720e-04 1.428533e-04 1.518415e-04 1.614214e-04 1.693640e-04 1.778963e-04 1.844845e-04 1.916968e-04 1.968298e-04 2.026563e-04 2.064421e-04 2.110141e-04 2.137309e-04 2.173300e-04 2.193589e-04 2.223461e-04 2.240914e-04 2.268308e-04 2.286444e-04 2.314356e-04 2.335595e-04 2.365908e-04 2.391252e-04 2.424507e-04 2.453491e-04 2.488891e-04 2.519763e-04 2.555350e-04 2.585416e-04 2.618376e-04 2.644440e-04 2.671482e-04 2.690313e-04 2.708101e-04 2.716881e-04 2.722481e-04 2.719178e-04 2.710478e-04 2.694094e-04 2.670128e-04 2.640798e-04 2.601915e-04 2.560821e-04 2.508617e-04 2.457739e-04 2.394765e-04 2.336510e-04 2.265807e-04 2.202608e-04 2.127196e-04 2.061195e-04 1.983665e-04 1.916534e-04 1.838833e-04 1.771782e-04 1.695215e-04 1.629115e-04 1.554509e-04 1.490072e-04 1.417988e-04 1.355915e-04 1.286836e-04 1.227882e-04 1.162312e-04 1.107273e-04 1.045752e-04 9.953903e-05 9.384414e-05 8.933946e-05 8.414577e-05 8.021574e-05 7.555272e-05 7.221476e-05 6.809402e-05 6.533788e-05 6.175282e-05 5.954128e-05 5.646928e-05 
6.367558e-05 6.044630e-05 5.877433e-05 5.608717e-05 5.479674e-05 5.259669e-05 5.155229e-05 4.978746e-05 4.884625e-05 4.747157e-05 4.649166e-05 4.547060e-05 4.432106e-05 4.362508e-05 4.219780e-05 4.180358e-05 4.002595e-05 3.991132e-05 3.775836e-05 3.789843e-05 3.540226e-05 3.576793e-05 3.302276e-05 3.358409e-05 3.074562e-05 3.148168e-05 2.876109e-05 2.967661e-05 2.733053e-05 2.847712e-05 2.679543e-05 2.829228e-05 2.758440e-05 2.963100e-05 3.020912e-05 3.308073e-05 3.523587e-05 3.925444e-05 4.322148e-05 4.870002e-05 5.461155e-05 6.177914e-05 6.961548e-05 7.854034e-05 8.809051e-05 9.862402e-05 1.094749e-04 1.212380e-04 1.328044e-04 1.452264e-04 1.568232e-04 1.692283e-04 1.801720e-04 1.918937e-04 2.016111e-04 2.121063e-04 2.202241e-04 2.291591e-04 2.355543e-04 2.428447e-04 2.476441e-04 2.534415e-04 2.569740e-04 2.616082e-04 2.643228e-04 2.682158e-04 2.705853e-04 2.741592e-04 2.765902e-04 2.801878e-04 2.829534e-04 2.867844e-04 2.899892e-04 2.941065e-04 2.976836e-04 3.019858e-04 3.057208e-04 3.099760e-04 3.135498e-04 3.174311e-04 3.204725e-04 3.236020e-04 3.257422e-04 3.277397e-04 3.286637e-04 3.291968e-04 3.286842e-04 3.275161e-04 3.254679e-04 3.224957e-04 3.189425e-04 3.142156e-04 3.093052e-04 3.030176e-04 2.969837e-04 2.894382e-04 2.825553e-04 2.741065e-04 2.666439e-04 2.576372e-04 2.498237e-04 2.405480e-04 2.325562e-04 2.232229e-04 2.151758e-04 2.059240e-04 1.979155e-04 1.888362e-04 1.809539e-04 1.721178e-04 1.644593e-04 1.559371e-04 1.486140e-04 1.404850e-04 1.336156e-04 1.259639e-04 1.196599e-04 1.125651e-04 1.069176e-04 1.004439e-04 9.551327e-05 8.970221e-05 8.551250e-05 8.037967e-05 7.691832e-05 7.245463e-05 6.967483e-05 6.585059e-05 
7.241354e-05 6.841918e-05 6.629862e-05 6.295006e-05 6.129328e-05 5.852902e-05 5.717828e-05 5.494130e-05 5.372933e-05 5.197159e-05 5.073101e-05 4.941543e-05 4.799075e-05 4.709045e-05 4.535245e-05 4.484713e-05 4.270870e-05 4.257894e-05 4.001032e-05 4.023175e-05 3.727234e-05 3.781230e-05 3.457652e-05 3.539654e-05 3.207217e-05 3.313862e-05 2.997791e-05 3.128174e-05 2.858753e-05 3.017071e-05 2.828073e-05 3.026365e-05 2.953469e-05 3.213523e-05 3.292567e-05 3.645834e-05 3.910354e-05 4.394834e-05 4.872263e-05 5.525975e-05 6.232300e-05 7.084130e-05 8.017827e-05 9.077875e-05 1.021493e-04 1.146731e-04 1.275960e-04 1.416043e-04 1.553906e-04 1.702103e-04 1.840495e-04 1.988773e-04 2.119595e-04 2.260014e-04 2.376477e-04 2.502567e-04 2.600268e-04 2.708062e-04 2.785575e-04 2.874075e-04 2.932927e-04 3.003927e-04 3.048015e-04 3.105394e-04 3.139997e-04 3.188688e-04 3.219317e-04 3.264210e-04 3.295554e-04 3.340574e-04 3.375724e-04 3.423220e-04 3.463278e-04 3.513769e-04 3.557837e-04 3.610071e-04 3.655550e-04 3.706774e-04 3.749869e-04 3.796238e-04 3.832563e-04 3.869625e-04 3.894837e-04 3.918085e-04 3.928473e-04 3.933927e-04 3.926905e-04 3.911702e-04 3.886134e-04 3.849020e-04 3.805340e-04 3.746945e-04 3.687025e-04 3.609799e-04 3.536571e-04 3.444341e-04 3.361228e-04 3.258463e-04 3.168779e-04 3.059785e-04 2.966271e-04 2.854562e-04 2.759198e-04 2.647234e-04 2.551337e-04 2.440627e-04 2.345150e-04 2.236600e-04 2.142456e-04 2.036755e-04 1.945040e-04 1.842944e-04 1.754982e-04 1.657402e-04 1.574641e-04 1.482590e-04 1.406411e-04 1.320862e-04 1.252398e-04 1.174139e-04 1.114141e-04 1.043683e-04 9.924604e-05 9.299996e-05 8.874196e-05 8.328589e-05 7.983857e-05 7.513868e-05 
8.105325e-05 7.619501e-05 7.358101e-05 6.950209e-05 6.745986e-05 6.408538e-05 6.242757e-05 5.968936e-05 5.821662e-05 5.605831e-05 5.456962e-05 5.294898e-05 5.125545e-05 5.014332e-05 4.808573e-05 4.746147e-05 4.493023e-05 4.477449e-05 4.172925e-05 4.201602e-05 3.850120e-05 3.919253e-05 3.534484e-05 3.639217e-05 3.243780e-05 3.379340e-05 3.003518e-05 3.167493e-05 2.847283e-05 3.042841e-05 2.817837e-05 3.057224e-05 2.968714e-05 3.275950e-05 3.365120e-05 3.776435e-05 4.081973e-05 4.642583e-05 5.196700e-05 5.953232e-05 6.775607e-05 7.764974e-05 8.855434e-05 1.009275e-04 1.142493e-04 1.289423e-04 1.441313e-04 1.606450e-04 1.769015e-04 1.944490e-04 2.108247e-04 2.284579e-04 2.440016e-04 2.607789e-04 2.746924e-04 2.898449e-04 3.016107e-04 3.146649e-04 3.241140e-04 3.349458e-04 3.422535e-04 3.510645e-04 3.566786e-04 3.639099e-04 3.684334e-04 3.746426e-04 3.786979e-04 3.844312e-04 3.885384e-04 3.942248e-04 3.987148e-04 4.045996e-04 4.095731e-04 4.156951e-04 4.210270e-04 4.272297e-04 4.326085e-04 4.385749e-04 4.435632e-04 4.488627e-04 4.529681e-04 4.571091e-04 4.598557e-04 4.623444e-04 4.633372e-04 4.637405e-04 4.627171e-04 4.607269e-04 4.575901e-04 4.530799e-04 4.479065e-04 4.409629e-04 4.339843e-04 4.249005e-04 4.164552e-04 4.056768e-04 3.961431e-04 3.841794e-04 3.739061e-04 3.612330e-04 3.504908e-04 3.374808e-04 3.264498e-04 3.133493e-04 3.021430e-04 2.890955e-04 2.778054e-04 2.649018e-04 2.536396e-04 2.409676e-04 2.298878e-04 2.175604e-04 2.068570e-04 1.950156e-04 1.848991e-04 1.736969e-04 1.643633e-04 1.539417e-04 1.455466e-04 1.360152e-04 1.286577e-04 1.200834e-04 1.138019e-04 1.062075e-04 1.009835e-04 9.435309e-05 9.011861e-05 8.440674e-05 
8.930273e-05 8.339645e-05 8.014029e-05 7.514667e-05 7.257468e-05 6.841020e-05 6.630798e-05 6.289834e-05 6.103611e-05 5.832234e-05 5.646622e-05 5.440758e-05 5.233567e-05 5.090851e-05 4.843201e-05 4.762410e-05 4.461215e-05 4.441306e-05 4.081750e-05 4.120732e-05 3.708234e-05 3.802270e-05 3.353398e-05 3.496677e-05 3.038654e-05 3.224501e-05 2.793365e-05 3.016827e-05 2.654704e-05 2.916440e-05 2.668725e-05 2.979497e-05 2.892593e-05 3.277077e-05 3.396721e-05 3.894848e-05 4.264087e-05 4.928008e-05 5.583353e-05 6.468878e-05 7.433634e-05 8.586856e-05 9.862364e-05 1.130459e-04 1.286214e-04 1.457798e-04 1.635522e-04 1.828839e-04 2.019314e-04 2.225250e-04 2.417460e-04 2.624917e-04 2.807780e-04 3.005706e-04 3.169934e-04 3.349307e-04 3.488902e-04 3.644187e-04 3.757229e-04 3.886984e-04 3.975547e-04 4.082112e-04 4.151396e-04 4.239852e-04 4.296782e-04 4.373487e-04 4.425135e-04 4.496236e-04 4.548415e-04 4.618648e-04 4.674941e-04 4.746912e-04 4.808251e-04 4.882225e-04 4.946984e-04 5.021063e-04 5.085537e-04 5.156062e-04 5.215170e-04 5.277224e-04 5.325295e-04 5.373256e-04 5.404829e-04 5.432986e-04 5.443535e-04 5.446797e-04 5.433329e-04 5.408008e-04 5.369464e-04 5.314004e-04 5.251401e-04 5.166868e-04 5.083103e-04 4.973156e-04 4.872444e-04 4.742689e-04 4.629705e-04 4.486523e-04 4.365496e-04 4.214757e-04 4.088820e-04 3.934944e-04 3.805986e-04 3.651674e-04 3.520696e-04 3.367300e-04 3.235056e-04 3.083308e-04 2.950900e-04 2.801595e-04 2.670783e-04 2.525162e-04 2.398295e-04 2.258051e-04 2.137736e-04 2.004758e-04 1.893435e-04 1.769472e-04 1.669066e-04 1.555464e-04 1.467188e-04 1.364756e-04 1.289080e-04 1.198087e-04 1.134800e-04 1.055053e-04 1.003373e-04 9.343418e-05 
9.743304e-05 9.034413e-05 8.637662e-05 8.036926e-05 7.722967e-05 7.220227e-05 6.963979e-05 6.550407e-05 6.324887e-05 5.993662e-05 5.771137e-05 5.517784e-05 5.271570e-05 5.093832e-05 4.800845e-05 4.698010e-05 4.341882e-05 4.313588e-05 3.887891e-05 3.932647e-05 3.443504e-05 3.557396e-05 3.024710e-05 3.200958e-05 2.657722e-05 2.887716e-05 2.377415e-05 2.653584e-05 2.226342e-05 2.546736e-05 2.255382e-05 2.629232e-05 2.526429e-05 2.979274e-05 3.115971e-05 3.692219e-05 4.116321e-05 4.876677e-05 5.629716e-05 6.641676e-05 7.751711e-05 9.073536e-05 1.054474e-04 1.220665e-04 1.400894e-04 1.599768e-04 1.806148e-04 2.031442e-04 2.253444e-04 2.494631e-04 2.719528e-04 2.963632e-04 3.178564e-04 3.412599e-04 3.606773e-04 3.820128e-04 3.986586e-04 4.172738e-04 4.309249e-04 4.466446e-04 4.575369e-04 4.706218e-04 4.793449e-04 4.903646e-04 4.976959e-04 5.073560e-04 5.140769e-04 5.230461e-04 5.297825e-04 5.385586e-04 5.456740e-04 5.545098e-04 5.620658e-04 5.709549e-04 5.787308e-04 5.874375e-04 5.949925e-04 6.031023e-04 6.098587e-04 6.168348e-04 6.221694e-04 6.274088e-04 6.307400e-04 6.336356e-04 6.345016e-04 6.345141e-04 6.326330e-04 6.293755e-04 6.246832e-04 6.180051e-04 6.106633e-04 6.007083e-04 5.910757e-04 5.782814e-04 5.668431e-04 5.518609e-04 5.391247e-04 5.226763e-04 5.090670e-04 4.917870e-04 4.775798e-04 4.599114e-04 4.452329e-04 4.274128e-04 4.123062e-04 3.944312e-04 3.789501e-04 3.610802e-04 3.453651e-04 3.276091e-04 3.119152e-04 2.944659e-04 2.791373e-04 2.622544e-04 2.476644e-04 2.316265e-04 2.181129e-04 2.031658e-04 1.909839e-04 1.773060e-04 1.666079e-04 1.542979e-04 1.451347e-04 1.342169e-04 1.265537e-04 1.169940e-04 1.107289e-04 1.024531e-04 
1.048787e-04 9.635316e-05 9.147004e-05 8.419848e-05 8.029592e-05 7.416304e-05 7.095607e-05 6.586411e-05 6.304362e-05 5.892066e-05 5.616521e-05 5.296974e-05 4.996610e-05 4.768617e-05 4.415994e-05 4.280531e-05 3.855981e-05 3.814681e-05 3.310425e-05 3.363556e-05 2.787087e-05 2.931594e-05 2.307255e-05 2.535737e-05 1.903714e-05 2.205204e-05 1.617898e-05 1.980972e-05 1.497613e-05 1.915763e-05 1.596974e-05 2.075502e-05 1.979593e-05 2.542489e-05 2.724247e-05 3.418548e-05 3.929154e-05 4.823449e-05 5.708377e-05 6.882622e-05 8.174482e-05 9.701015e-05 1.140726e-04 1.332734e-04 1.541694e-04 1.772079e-04 2.011654e-04 2.273495e-04 2.531699e-04 2.812886e-04 3.075057e-04 3.360473e-04 3.611730e-04 3.886196e-04 4.114061e-04 4.365195e-04 4.561667e-04 4.781897e-04 4.944468e-04 5.131787e-04 5.263229e-04 5.420653e-04 5.527738e-04 5.661760e-04 5.753303e-04 5.871851e-04 5.956574e-04 6.067016e-04 6.151738e-04 6.259383e-04 6.347863e-04 6.455205e-04 6.547770e-04 6.654438e-04 6.748289e-04 6.851464e-04 6.941424e-04 7.036424e-04 7.115882e-04 7.196736e-04 7.258635e-04 7.318604e-04 7.356386e-04 7.388560e-04 7.397019e-04 7.395091e-04 7.371067e-04 7.330350e-04 7.273205e-04 7.191762e-04 7.103550e-04 6.983080e-04 6.868284e-04 6.714253e-04 6.578948e-04 6.399611e-04 6.250124e-04 6.054605e-04 5.896081e-04 5.692223e-04 5.527701e-04 5.320644e-04 5.151092e-04 4.943133e-04 4.768388e-04 4.559986e-04 4.380100e-04 4.171366e-04 3.987683e-04 3.779574e-04 3.595101e-04 3.389862e-04 3.208876e-04 3.009739e-04 2.836936e-04 2.647409e-04 2.487016e-04 2.310167e-04 2.165324e-04 2.003332e-04 1.875861e-04 1.729883e-04 1.620358e-04 1.490637e-04 1.398616e-04 1.284701e-04 1.208981e-04 1.109968e-04 
1.122191e-04 1.020781e-04 9.617360e-05 8.749806e-05 8.276252e-05 7.541088e-05 7.151392e-05 6.536892e-05 6.195054e-05 5.692845e-05 5.360971e-05 4.966582e-05 4.607124e-05 4.319953e-05 3.899355e-05 3.721803e-05 3.215408e-05 3.151062e-05 2.548499e-05 2.599544e-05 1.909308e-05 2.073837e-05 1.325527e-05 1.595841e-05 8.389082e-06 1.201956e-05 5.007417e-06 9.414125e-06 3.675877e-06 8.748303e-06 4.996138e-06 1.074642e-05 9.636216e-06 1.628711e-05 1.840850e-05 2.645974e-05 3.235406e-05 4.258479e-05 5.274604e-05 6.611032e-05 8.091987e-05 9.832369e-05 1.179070e-04 1.399155e-04 1.639701e-04 1.905469e-04 2.182308e-04 2.486201e-04 2.785785e-04 3.113877e-04 3.419365e-04 3.753996e-04 4.048184e-04 4.371545e-04 4.639996e-04 4.937564e-04 5.171047e-04 5.433956e-04 5.629591e-04 5.855457e-04 6.016399e-04 6.208596e-04 6.342478e-04 6.508254e-04 6.624868e-04 6.772922e-04 6.881756e-04 7.019930e-04 7.128116e-04 7.261745e-04 7.372825e-04 7.504012e-04 7.617652e-04 7.745385e-04 7.857863e-04 7.978643e-04 8.083809e-04 8.192393e-04 8.282782e-04 8.372799e-04 8.440752e-04 8.505181e-04 8.543884e-04 8.575573e-04 8.579947e-04 8.572355e-04 8.539744e-04 8.488022e-04 8.418610e-04 8.320917e-04 8.217808e-04 8.076419e-04 7.945231e-04 7.766745e-04 7.614538e-04 7.408654e-04 7.242253e-04 7.019314e-04 6.843587e-04 6.611907e-04 6.428827e-04 6.193105e-04 6.002141e-04 5.763634e-04 5.563323e-04 5.321500e-04 5.111377e-04 4.866004e-04 4.647965e-04 4.400565e-04 4.179106e-04 3.933257e-04 3.714635e-04 3.475236e-04 3.266087e-04 3.038189e-04 2.844235e-04 2.632014e-04 2.457282e-04 2.263494e-04 2.110124e-04 1.936049e-04 1.804525e-04 1.650225e-04 1.539785e-04 1.404475e-04 1.313499e-04 1.195895e-04 
1.184680e-04 1.063673e-04 9.916483e-05 8.875092e-05 8.292120e-05 7.402861e-05 6.919689e-05 6.169120e-05 5.744535e-05 5.123475e-05 4.713502e-05 4.217833e-05 3.778200e-05 3.409007e-05 2.899513e-05 2.662190e-05 2.052837e-05 1.954870e-05 1.232816e-05 1.280353e-05 4.559501e-06 6.499323e-06 -2.402338e-06 9.309425e-07 -8.016103e-06 -3.442538e-06 -1.164310e-05 -6.030192e-06 -1.261705e-05 -6.143655e-06 -1.028415e-05 -3.009774e-06 -3.979286e-06 4.266837e-06 7.077210e-06 1.679291e-05 2.392245e-05 3.596348e-05 4.791990e-05 6.340149e-05 8.061318e-05 1.006526e-04 1.233044e-04 1.486562e-04 1.764658e-04 2.071815e-04 2.392385e-04 2.744994e-04 3.092754e-04 3.474819e-04 3.830422e-04 4.221332e-04 4.564885e-04 4.943785e-04 5.258603e-04 5.608541e-04 5.884028e-04 6.194741e-04 6.427677e-04 6.696476e-04 6.890562e-04 7.121373e-04 7.285332e-04 7.486396e-04 7.631239e-04 7.812242e-04 7.948415e-04 8.117827e-04 8.252900e-04 8.416162e-04 8.553534e-04 8.712387e-04 8.851099e-04 9.003918e-04 9.139346e-04 9.281994e-04 9.406990e-04 9.533675e-04 9.639799e-04 9.743637e-04 9.822328e-04 9.895673e-04 9.939332e-04 9.974142e-04 9.977093e-04 9.965662e-04 9.924944e-04 9.861219e-04 9.777144e-04 9.658538e-04 9.534949e-04 9.364054e-04 9.208007e-04 8.993131e-04 8.813616e-04 8.567263e-04 8.372971e-04 8.108459e-04 7.905344e-04 7.633046e-04 7.422962e-04 7.148102e-04 6.929356e-04 6.652371e-04 6.421976e-04 6.140962e-04 5.897399e-04 5.611115e-04 5.356255e-04 5.066143e-04 4.805518e-04 4.516008e-04 4.257587e-04 3.974964e-04 3.727194e-04 3.457907e-04 3.227956e-04 2.977225e-04 2.769996e-04 2.541135e-04 2.359097e-04 2.153522e-04 1.997106e-04 1.814737e-04 1.682916e-04 1.522686e-04 1.413497e-04 1.273795e-04 
1.247153e-04 1.104199e-04 1.017583e-04 8.941005e-05 8.236306e-05 7.175606e-05 6.589153e-05 5.686121e-05 5.170132e-05 4.413756e-05 3.916503e-05 3.302242e-05 2.770613e-05 2.300758e-05 1.685409e-05 1.368247e-05 6.313144e-06 4.785665e-06 -3.972013e-06 -3.747210e-06 -1.377752e-05 -1.175372e-05 -2.260818e-05 -1.884177e-05 -2.975603e-05 -2.441506e-05 -3.439587e-05 -2.772373e-05 -3.569214e-05 -2.792974e-05 -3.287934e-05 -2.415588e-05 -2.526419e-05 -1.546569e-05 -1.210623e-05 -7.439068e-07 7.597681e-06 2.145974e-05 3.528279e-05 5.294906e-05 7.272739e-05 9.558084e-05 1.215808e-04 1.506294e-04 1.826198e-04 2.180492e-04 2.550687e-04 2.960055e-04 3.363430e-04 3.809473e-04 4.223847e-04 4.682397e-04 5.084753e-04 5.531252e-04 5.902269e-04 6.316805e-04 6.644265e-04 7.014855e-04 7.295092e-04 7.618616e-04 7.855859e-04 8.136780e-04 8.340842e-04 8.588383e-04 8.771427e-04 8.996149e-04 9.169379e-04 9.380101e-04 9.551168e-04 9.752986e-04 9.924644e-04 1.011839e-03 1.028849e-03 1.047139e-03 1.063390e-03 1.080082e-03 1.094724e-03 1.109175e-03 1.121256e-03 1.132752e-03 1.141348e-03 1.149119e-03 1.153457e-03 1.156696e-03 1.156250e-03 1.154170e-03 1.148744e-03 1.140718e-03 1.130491e-03 1.116269e-03 1.101808e-03 1.081739e-03 1.063947e-03 1.039054e-03 1.018999e-03 9.907824e-04 9.694066e-04 9.393912e-04 9.172024e-04 8.864601e-04 8.633968e-04 8.323015e-04 8.078708e-04 7.762159e-04 7.498516e-04 7.172335e-04 6.886881e-04 6.549214e-04 6.245008e-04 5.898563e-04 5.584047e-04 5.235905e-04 4.922678e-04 4.582203e-04 4.282025e-04 3.958274e-04 3.680627e-04 3.380463e-04 3.131385e-04 2.858769e-04 2.640902e-04 2.397147e-04 2.210499e-04 1.995000e-04 1.837866e-04 1.648881e-04 1.518582e-04 1.353828e-04 
1.293628e-04 1.124115e-04 1.019187e-04 8.719443e-05 7.858219e-05 6.583616e-05 5.861296e-05 4.764764e-05 4.126511e-05 3.195137e-05 2.580692e-05 1.809941e-05 1.156312e-05 5.508800e-06 -2.015622e-06 -6.283523e-06 -1.526248e-05 -1.755443e-05 -2.820693e-05 -2.833465e-05 -4.052389e-05 -3.837500e-05 -5.154678e-05 -4.714783e-05 -6.034718e-05 -5.388161e-05 -6.586215e-05 -5.762847e-05 -6.704313e-05 -5.736493e-05 -6.298943e-05 -5.209490e-05 -5.299694e-05 -4.087017e-05 -3.643590e-05 -2.264610e-05 -1.244672e-05 3.983260e-06 2.037850e-05 4.093647e-05 6.401755e-05 9.038792e-05 1.205121e-04 1.540163e-04 1.910315e-04 2.320390e-04 2.749477e-04 3.225401e-04 3.694320e-04 4.214929e-04 4.698205e-04 5.235132e-04 5.706061e-04 6.230391e-04 6.666561e-04 7.154965e-04 7.542317e-04 7.980932e-04 8.315372e-04 8.700746e-04 8.987238e-04 9.324638e-04 9.574375e-04 9.874320e-04 1.010090e-03 1.037509e-03 1.059068e-03 1.084843e-03 1.106090e-03 1.130699e-03 1.151849e-03 1.175282e-03 1.196008e-03 1.217877e-03 1.237441e-03 1.257144e-03 1.274569e-03 1.291415e-03 1.305637e-03 1.318886e-03 1.328883e-03 1.337727e-03 1.342640e-03 1.346182e-03 1.345421e-03 1.342717e-03 1.336057e-03 1.326283e-03 1.313933e-03 1.296699e-03 1.279349e-03 1.255037e-03 1.233835e-03 1.203754e-03 1.180096e-03 1.146224e-03 1.121348e-03 1.085696e-03 1.060234e-03 1.024155e-03 9.979270e-04 9.617757e-04 9.339859e-04 8.973056e-04 8.670580e-04 8.291436e-04 7.959980e-04 7.564885e-04 7.207831e-04 6.799819e-04 6.427980e-04 6.016222e-04 5.644610e-04 5.241309e-04 4.884956e-04 4.501710e-04 4.172427e-04 3.817741e-04 3.522727e-04 3.201220e-04 2.943323e-04 2.656240e-04 2.435101e-04 2.181375e-04 1.994690e-04 1.771967e-04 1.616429e-04 1.421810e-04 