# vtk DataFile Version 2.0
Comment goes here
ASCII

DATASET STRUCTURED_POINTS
FIELD FieldData 1
TIME 1 1 double
0.11500000
DIMENSIONS    128   128   1

ORIGIN    0.000   0.000   0.000
SPACING   0.039062 0.039062   1.000

POINT_DATA   16384
SCALARS Omega double
LOOKUP_TABLE default

6.067430e-14 6.009109e-14 5.681499e-14 5.104243e-14 3.304492e-14 4.773217e-14 3.892795e-14 3.627539e-14 4.368862e-14 4.070654e-14 3.852589e-14 3.365783e-14 1.805339e-14 1.091468e-14 -1.756267e-14 -1.236205e-14 -1.837926e-14 -2.931363e-14 -5.036893e-14 -6.294680e-14 -6.135902e-14 -5.850585e-14 -4.520483e-14 -4.740194e-14 -3.710639e-14 -5.230274e-14 -5.407691e-14 -5.835092e-14 -3.801474e-14 -9.528438e-15 -1.105009e-14 -9.304501e-15 2.074777e-15 -1.348727e-15 5.353870e-15 3.510581e-14 1.242829e-14 -3.400808e-14 -2.592897e-14 1.465542e-14 1.535991e-14 7.219946e-14 9.782289e-14 6.845697e-14 4.109321e-14 2.020286e-14 -5.407205e-15 -5.355091e-15 -5.837147e-14 -2.623339e-14 4.998013e-14 3.776990e-14 4.208128e-14 1.425129e-15 3.559785e-14 1.507151e-14 -2.190250e-14 4.867075e-14 5.011740e-14 3.693229e-14 5.480784e-15 -3.594235e-14 -5.970340e-14 1.834319e-14 -3.501840e-14 -9.878776e-14 -9.021057e-14 -5.804590e-14 -3.486365e-14 -1.303433e-13 -5.277272e-14 -5.977150e-14 -4.711159e-14 1.327976e-14 -1.367682e-14 -6.443630e-16 3.558020e-14 2.459929e-14 2.032568e-14 7.589825e-15 -3.330278e-15 3.643591e-16 1.747940e-14 8.974377e-15 2.497247e-14 5.279780e-14 5.286808e-14 3.282852e-14 8.001459e-14 2.855821e-14 2.213025e-14 4.487659e-14 3.909723e-14 -1.426355e-15 6.206189e-14 -1.613148e-15 4.125407e-14 -6.126851e-14 -1.186442e-14 -4.923233e-14 -9.629418e-14 -1.180753e-13 9.699024e-14 6.828385e-16 6.294534e-14 5.379888e-15 1.236151e-14 -5.546947e-14 -5.860558e-14 -8.543432e-14 -4.669553e-15 -3.690393e-14 5.232652e-15 -2.129105e-14 2.269606e-15 1.293223e-14 -4.884852e-14 -4.271171e-14 7.718649e-15 -2.996703e-14 -2.142853e-14 -3.148253e-14 -7.296812e-15 1.928882e-14 1.293457e-14 2.197057e-14 8.088057e-14 5.027787e-14 
5.989160e-06 5.719193e-06 5.650100e-06 5.593376e-06 5.542580e-06 5.668902e-06 5.630590e-06 5.909337e-06 5.870845e-06 6.270780e-06 6.215013e-06 6.704456e-06 6.612384e-06 7.159902e-06 7.012970e-06 7.588561e-06 7.370942e-06 7.947620e-06 7.648309e-06 8.203892e-06 7.818650e-06 8.337551e-06 7.870741e-06 8.345508e-06 7.811843e-06 8.244250e-06 7.670385e-06 8.071829e-06 7.497604e-06 7.888601e-06 7.367521e-06 7.776000e-06 7.374319e-06 7.832433e-06 7.626134e-06 8.165364e-06 8.234439e-06 8.879099e-06 9.299117e-06 1.005892e-05 1.089068e-05 1.175374e-05 1.303277e-05 1.396100e-05 1.568936e-05 1.661820e-05 1.876082e-05 1.960471e-05 2.209181e-05 2.275532e-05 2.549084e-05 2.588372e-05 2.875803e-05 2.881132e-05 3.171546e-05 3.139493e-05 3.423313e-05 3.354709e-05 3.624519e-05 3.524482e-05 3.775324e-05 3.652567e-05 3.881717e-05 3.747287e-05 3.953655e-05 3.819385e-05 4.002751e-05 3.879718e-05 4.039996e-05 3.937242e-05 4.073958e-05 3.997617e-05 4.109688e-05 4.062561e-05 4.148398e-05 4.129939e-05 4.187819e-05 4.194415e-05 4.223054e-05 4.248496e-05 4.247688e-05 4.283746e-05 4.254979e-05 4.292033e-05 4.238934e-05 4.266651e-05 4.195172e-05 4.203210e-05 4.121446e-05 4.100195e-05 4.017792e-05 3.959104e-05 3.886265e-05 3.784143e-05 3.730348e-05 3.581525e-05 3.554170e-05 3.358514e-05 3.361750e-05 3.122440e-05 3.156486e-05 2.879889e-05 2.941007e-05 2.636234e-05 2.717411e-05 2.395535e-05 2.487732e-05 2.160752e-05 2.254442e-05 1.934133e-05 2.020793e-05 1.717622e-05 1.790873e-05 1.513187e-05 1.569401e-05 1.322997e-05 1.361329e-05 1.149435e-05 1.171376e-05 9.949679e-06 1.003610e-05 8.619318e-06 8.611371e-06 7.522668e-06 7.459134e-06 6.672619e-06 6.586692e-06 6.073413e-06 
1.240870e-05 1.169870e-05 1.137516e-05 1.111402e-05 1.085067e-05 1.098105e-05 1.076818e-05 1.122950e-05 1.104129e-05 1.177010e-05 1.157050e-05 1.250163e-05 1.225014e-05 1.331857e-05 1.297568e-05 1.411931e-05 1.365134e-05 1.481426e-05 1.419759e-05 1.533362e-05 1.455851e-05 1.563466e-05 1.470867e-05 1.570810e-05 1.465935e-05 1.558343e-05 1.446365e-05 1.533280e-05 1.421976e-05 1.507249e-05 1.407105e-05 1.496079e-05 1.420134e-05 1.519021e-05 1.482286e-05 1.597206e-05 1.615542e-05 1.751229e-05 1.839669e-05 1.997970e-05 2.168636e-05 2.347092e-05 2.607070e-05 2.797966e-05 3.147632e-05 3.337924e-05 3.770196e-05 3.942601e-05 4.443421e-05 4.578660e-05 5.128696e-05 5.208549e-05 5.785776e-05 5.796341e-05 6.378925e-05 6.313350e-05 6.882194e-05 6.742253e-05 7.282683e-05 7.078852e-05 7.581205e-05 7.331235e-05 7.790375e-05 7.516725e-05 7.930792e-05 7.657464e-05 8.026269e-05 7.775663e-05 8.099159e-05 7.889458e-05 8.166643e-05 8.010035e-05 8.238479e-05 8.140322e-05 8.316378e-05 8.275190e-05 8.394791e-05 8.402882e-05 8.462757e-05 8.507255e-05 8.506344e-05 8.570452e-05 8.511262e-05 8.575634e-05 8.465304e-05 8.509489e-05 8.360292e-05 8.364222e-05 8.193296e-05 8.138771e-05 7.966923e-05 7.839009e-05 7.688595e-05 7.476833e-05 7.368916e-05 7.068227e-05 7.019470e-05 6.630663e-05 6.650566e-05 6.180399e-05 6.269553e-05 5.730306e-05 5.880152e-05 5.288700e-05 5.482961e-05 4.859380e-05 5.076888e-05 4.442702e-05 4.661005e-05 4.037297e-05 4.236227e-05 3.641882e-05 3.806352e-05 3.256733e-05 3.378258e-05 2.884488e-05 2.961314e-05 2.530222e-05 2.566285e-05 2.200868e-05 2.204014e-05 1.904229e-05 1.884191e-05 1.647822e-05 1.614379e-05 1.437797e-05 1.399367e-05 1.278084e-05 
1.770217e-05 1.689584e-05 1.663357e-05 1.647083e-05 1.627259e-05 1.666214e-05 1.651027e-05 1.736008e-05 1.721596e-05 1.843230e-05 1.824379e-05 1.973157e-05 1.944062e-05 2.110530e-05 2.065524e-05 2.240640e-05 2.174877e-05 2.350492e-05 2.260575e-05 2.429984e-05 2.314548e-05 2.473037e-05 2.333298e-05 2.478619e-05 2.318887e-05 2.451585e-05 2.279750e-05 2.403289e-05 2.231205e-05 2.351817e-05 2.195477e-05 2.321663e-05 2.200980e-05 2.342557e-05 2.280502e-05 2.447141e-05 2.468063e-05 2.667314e-05 2.794382e-05 3.029389e-05 3.281420e-05 3.548732e-05 3.936930e-05 4.225030e-05 4.750397e-05 5.039576e-05 5.691738e-05 5.955745e-05 6.713663e-05 6.923118e-05 7.757653e-05 7.884719e-05 8.762545e-05 8.785893e-05 9.673859e-05 9.582828e-05 1.045180e-04 1.024879e-04 1.107620e-04 1.077677e-04 1.154751e-04 1.117821e-04 1.188391e-04 1.147839e-04 1.211559e-04 1.170982e-04 1.227760e-04 1.190519e-04 1.240296e-04 1.209127e-04 1.251720e-04 1.228470e-04 1.263507e-04 1.249019e-04 1.275975e-04 1.270083e-04 1.288396e-04 1.290018e-04 1.299266e-04 1.306542e-04 1.306642e-04 1.317106e-04 1.308499e-04 1.319259e-04 1.303051e-04 1.310984e-04 1.289006e-04 1.290969e-04 1.265726e-04 1.258770e-04 1.233260e-04 1.214865e-04 1.192274e-04 1.160560e-04 1.143862e-04 1.097780e-04 1.089305e-04 1.028774e-04 1.029836e-04 9.558097e-05 9.664795e-05 8.809195e-05 9.000128e-05 8.057527e-05 8.310449e-05 7.315485e-05 7.601752e-05 6.592049e-05 6.881565e-05 5.894010e-05 6.160005e-05 5.227260e-05 5.449911e-05 4.597782e-05 4.766083e-05 4.012174e-05 4.123945e-05 3.477667e-05 3.538054e-05 3.001729e-05 3.020804e-05 2.591400e-05 2.581513e-05 2.252509e-05 2.225924e-05 1.988911e-05 1.956043e-05 1.801862e-05 
2.431030e-05 2.288839e-05 2.212174e-05 2.160758e-05 2.098234e-05 2.125936e-05 2.075499e-05 2.170114e-05 2.126407e-05 2.275200e-05 2.230784e-05 2.420675e-05 2.367217e-05 2.585143e-05 2.514521e-05 2.747977e-05 2.653255e-05 2.890964e-05 2.767239e-05 2.999881e-05 2.845033e-05 3.065951e-05 2.881317e-05 3.087127e-05 2.878136e-05 3.069143e-05 2.845923e-05 3.026288e-05 2.804181e-05 2.981748e-05 2.781592e-05 2.967260e-05 2.815176e-05 3.021691e-05 2.948036e-05 3.188072e-05 3.225260e-05 3.508783e-05 3.687888e-05 4.019050e-05 4.365490e-05 4.739602e-05 5.268656e-05 5.670105e-05 6.383309e-05 6.785307e-05 7.668790e-05 8.035574e-05 9.060982e-05 9.352468e-05 1.048047e-04 1.065865e-04 1.184428e-04 1.188006e-04 1.307872e-04 1.295759e-04 1.413027e-04 1.385565e-04 1.497238e-04 1.456565e-04 1.560669e-04 1.510426e-04 1.605901e-04 1.550689e-04 1.637131e-04 1.581854e-04 1.659182e-04 1.608400e-04 1.676545e-04 1.633942e-04 1.692622e-04 1.660654e-04 1.709288e-04 1.689022e-04 1.726778e-04 1.717907e-04 1.743872e-04 1.744848e-04 1.758280e-04 1.766521e-04 1.767145e-04 1.779282e-04 1.767570e-04 1.779707e-04 1.757109e-04 1.765101e-04 1.734152e-04 1.733900e-04 1.698181e-04 1.685925e-04 1.649821e-04 1.622438e-04 1.590701e-04 1.545966e-04 1.523111e-04 1.459906e-04 1.449532e-04 1.367971e-04 1.372152e-04 1.273611e-04 1.292494e-04 1.179537e-04 1.211278e-04 1.087469e-04 1.128536e-04 9.981440e-05 1.043946e-04 9.115600e-05 9.572435e-05 8.273547e-05 8.685967e-05 7.452021e-05 7.788175e-05 6.651257e-05 6.893863e-05 5.876645e-05 6.023059e-05 5.138771e-05 5.198493e-05 4.452120e-05 4.442770e-05 3.832928e-05 3.775808e-05 3.296753e-05 3.212916e-05 2.856254e-05 2.763593e-05 2.519479e-05 
2.857785e-05 2.724628e-05 2.662235e-05 2.637557e-05 2.588980e-05 2.657352e-05 2.619544e-05 2.765587e-05 2.731878e-05 2.939990e-05 2.901387e-05 3.155709e-05 3.102202e-05 3.386904e-05 3.308706e-05 3.608578e-05 3.497285e-05 3.798569e-05 3.648211e-05 3.939564e-05 3.747574e-05 4.021026e-05 3.789130e-05 4.040903e-05 3.775966e-05 4.007036e-05 3.721851e-05 3.938153e-05 3.652127e-05 3.864311e-05 3.603875e-05 3.826498e-05 3.624906e-05 3.874899e-05 3.770994e-05 4.065235e-05 4.100757e-05 4.452717e-05 4.668004e-05 5.083739e-05 5.512173e-05 5.986377e-05 6.648541e-05 7.161764e-05 8.060697e-05 8.578940e-05 9.697886e-05 1.017538e-04 1.147890e-04 1.186409e-04 1.330251e-04 1.354633e-04 1.506259e-04 1.512726e-04 1.666453e-04 1.653092e-04 1.803925e-04 1.771106e-04 1.915176e-04 1.865563e-04 2.000271e-04 1.938431e-04 2.062318e-04 1.994033e-04 2.106451e-04 2.037881e-04 2.138590e-04 2.075462e-04 2.164247e-04 2.111187e-04 2.187600e-04 2.147714e-04 2.210974e-04 2.185660e-04 2.234725e-04 2.223700e-04 2.257483e-04 2.258947e-04 2.276623e-04 2.287494e-04 2.288847e-04 2.305029e-04 2.290776e-04 2.307438e-04 2.279482e-04 2.291354e-04 2.252898e-04 2.254598e-04 2.210072e-04 2.196475e-04 2.151235e-04 2.117867e-04 2.077656e-04 2.021101e-04 1.991331e-04 1.909595e-04 1.894545e-04 1.787344e-04 1.789448e-04 1.658365e-04 1.677764e-04 1.526239e-04 1.560735e-04 1.393844e-04 1.439299e-04 1.263312e-04 1.314408e-04 1.136170e-04 1.187354e-04 1.013569e-04 1.059960e-04 8.965130e-05 9.345750e-05 7.860306e-05 8.138987e-05 6.832571e-05 7.007065e-05 5.894293e-05 5.975624e-05 5.058133e-05 5.065917e-05 4.335917e-05 4.293397e-05 3.737351e-05 3.667119e-05 3.268792e-05 3.189729e-05 2.932235e-05 
3.511462e-05 3.297756e-05 3.152170e-05 3.077007e-05 2.958107e-05 3.003567e-05 2.907912e-05 3.055496e-05 2.974508e-05 3.205025e-05 3.126932e-05 3.420668e-05 3.332364e-05 3.669579e-05 3.558317e-05 3.920047e-05 3.774925e-05 4.144025e-05 3.957256e-05 4.319543e-05 4.087558e-05 4.432931e-05 4.157342e-05 4.480715e-05 4.169218e-05 4.471167e-05 4.138418e-05 4.425414e-05 4.093861e-05 4.378018e-05 4.078494e-05 4.376679e-05 4.148370e-05 4.480479e-05 4.369678e-05 4.755807e-05 4.812855e-05 5.269273e-05 5.543409e-05 6.077593e-05 6.610079e-05 7.215698e-05 8.032433e-05 8.685698e-05 9.791125e-05 1.045008e-04 1.182420e-04 1.243207e-04 1.403173e-04 1.452437e-04 1.628880e-04 1.660504e-04 1.846441e-04 1.855713e-04 2.044207e-04 2.028748e-04 2.213735e-04 2.174016e-04 2.350846e-04 2.290197e-04 2.455798e-04 2.379914e-04 2.532616e-04 2.448682e-04 2.587793e-04 2.503434e-04 2.628719e-04 2.550976e-04 2.662167e-04 2.596677e-04 2.693144e-04 2.643620e-04 2.724242e-04 2.692265e-04 2.755528e-04 2.740601e-04 2.784878e-04 2.784654e-04 2.808612e-04 2.819207e-04 2.822269e-04 2.838616e-04 2.821417e-04 2.837620e-04 2.802375e-04 2.812095e-04 2.762808e-04 2.759676e-04 2.702104e-04 2.680173e-04 2.621473e-04 2.575696e-04 2.523733e-04 2.450417e-04 2.412766e-04 2.309953e-04 2.292745e-04 2.160465e-04 2.167289e-04 2.007664e-04 2.038831e-04 1.855987e-04 1.908366e-04 1.708149e-04 1.775691e-04 1.565183e-04 1.640019e-04 1.426874e-04 1.500742e-04 1.292433e-04 1.358075e-04 1.161189e-04 1.213396e-04 1.033105e-04 1.069231e-04 9.090301e-05 9.289417e-05 7.906838e-05 7.962639e-05 6.804079e-05 6.748245e-05 5.808038e-05 5.677395e-05 4.943379e-05 4.773366e-05 4.229943e-05 4.050041e-05 3.680193e-05 
3.791918e-05 3.608179e-05 3.480398e-05 3.450818e-05 3.349311e-05 3.451927e-05 3.372103e-05 3.585388e-05 3.517336e-05 3.819538e-05 3.749971e-05 4.118901e-05 4.033056e-05 4.446404e-05 4.329839e-05 4.766013e-05 4.606265e-05 5.045630e-05 4.833719e-05 5.260053e-05 4.991826e-05 5.393768e-05 5.071100e-05 5.443366e-05 5.075267e-05 5.419439e-05 5.023104e-05 5.347893e-05 4.949712e-05 5.270598e-05 4.906948e-05 5.245102e-05 4.962485e-05 5.342750e-05 5.196558e-05 5.644158e-05 5.695252e-05 6.231016e-05 6.539658e-05 7.173992e-05 7.791507e-05 8.518154e-05 9.477766e-05 1.026912e-04 1.157828e-04 1.238430e-04 1.402080e-04 1.477294e-04 1.668633e-04 1.730659e-04 1.942484e-04 1.983848e-04 2.207831e-04 2.222740e-04 2.450574e-04 2.436044e-04 2.660432e-04 2.616917e-04 2.832209e-04 2.763599e-04 2.965984e-04 2.878995e-04 3.066283e-04 2.969396e-04 3.140526e-04 3.042721e-04 3.197157e-04 3.106706e-04 3.243885e-04 3.167399e-04 3.286371e-04 3.228220e-04 3.327531e-04 3.289642e-04 3.367473e-04 3.349417e-04 3.403919e-04 3.403188e-04 3.432945e-04 3.445277e-04 3.449819e-04 3.469542e-04 3.449834e-04 3.470192e-04 3.429015e-04 3.442514e-04 3.384671e-04 3.383491e-04 3.315731e-04 3.292227e-04 3.222829e-04 3.170132e-04 3.108109e-04 3.020783e-04 2.974751e-04 2.849429e-04 2.826300e-04 2.662220e-04 2.665984e-04 2.465325e-04 2.496240e-04 2.264186e-04 2.318655e-04 2.063105e-04 2.134320e-04 1.865198e-04 1.944439e-04 1.672659e-04 1.750904e-04 1.487136e-04 1.556599e-04 1.310098e-04 1.365332e-04 1.143076e-04 1.181449e-04 9.877535e-05 1.009317e-04 8.459395e-05 8.528312e-05 7.194529e-05 7.150773e-05 6.099607e-05 5.981701e-05 5.188064e-05 5.032325e-05 4.468506e-05 4.304561e-05 3.943399e-05 
4.406366e-05 4.120719e-05 3.867605e-05 3.770777e-05 3.564046e-05 3.631420e-05 3.465590e-05 3.672239e-05 3.534694e-05 3.854936e-05 3.728722e-05 4.136138e-05 4.002569e-05 4.470581e-05 4.311569e-05 4.814514e-05 4.614592e-05 5.129187e-05 4.877222e-05 5.384214e-05 5.074833e-05 5.560606e-05 5.195376e-05 5.653267e-05 5.241752e-05 5.672886e-05 5.233696e-05 5.647239e-05 5.209169e-05 5.621953e-05 5.225074e-05 5.660494e-05 5.356716e-05 5.842645e-05 5.694820e-05 6.260055e-05 6.338469e-05 7.007314e-05 7.382816e-05 8.167918e-05 8.901962e-05 9.796598e-05 1.092997e-04 1.190201e-04 1.344516e-04 1.443532e-04 1.636333e-04 1.728969e-04 1.954377e-04 2.031261e-04 2.280813e-04 2.332942e-04 2.596841e-04 2.617230e-04 2.885735e-04 2.870789e-04 3.135401e-04 3.085675e-04 3.339888e-04 3.260072e-04 3.499580e-04 3.397742e-04 3.620156e-04 3.506444e-04 3.710669e-04 3.595771e-04 3.781258e-04 3.674934e-04 3.841000e-04 3.750950e-04 3.896328e-04 3.827518e-04 3.950221e-04 3.904679e-04 4.002170e-04 3.979140e-04 4.048757e-04 4.045063e-04 4.084602e-04 4.095073e-04 4.103449e-04 4.121341e-04 4.099241e-04 4.116645e-04 4.067085e-04 4.075346e-04 4.004023e-04 3.994245e-04 3.909560e-04 3.873207e-04 3.785831e-04 3.715436e-04 3.637336e-04 3.527231e-04 3.470175e-04 3.317150e-04 3.290851e-04 3.094639e-04 3.104928e-04 2.868440e-04 2.915944e-04 2.645229e-04 2.725013e-04 2.428882e-04 2.531268e-04 2.220566e-04 2.332970e-04 2.019507e-04 2.128836e-04 1.824128e-04 1.919107e-04 1.633164e-04 1.706022e-04 1.446453e-04 1.493647e-04 1.265263e-04 1.287252e-04 1.092188e-04 1.092497e-04 9.307128e-05 9.146738e-05 7.846413e-05 7.581523e-05 6.575097e-05 6.260476e-05 5.521065e-05 5.200907e-05 4.701410e-05 
4.481904e-05 4.250346e-05 4.013913e-05 3.983827e-05 3.793819e-05 3.936583e-05 3.786274e-05 4.074410e-05 3.949881e-05 4.355715e-05 4.238539e-05 4.733629e-05 4.603430e-05 5.158851e-05 4.995709e-05 5.583166e-05 5.369840e-05 5.963418e-05 5.687351e-05 6.265624e-05 5.920676e-05 6.468789e-05 6.056681e-05 6.568039e-05 6.099570e-05 6.576834e-05 6.073034e-05 6.528309e-05 6.021687e-05 6.475935e-05 6.011832e-05 6.493543e-05 6.131106e-05 6.673998e-05 6.485688e-05 7.124848e-05 7.192947e-05 7.958735e-05 8.367647e-05 9.277281e-05 1.010177e-04 1.114988e-04 1.244129e-04 1.359223e-04 1.536648e-04 1.655168e-04 1.878274e-04 1.990582e-04 2.252728e-04 2.347695e-04 2.639146e-04 2.706012e-04 3.015421e-04 3.045781e-04 3.361818e-04 3.351260e-04 3.663995e-04 3.612988e-04 3.914740e-04 3.828602e-04 4.114157e-04 4.002129e-04 4.268408e-04 4.142109e-04 4.387450e-04 4.259068e-04 4.482397e-04 4.362998e-04 4.563092e-04 4.461355e-04 4.636387e-04 4.557903e-04 4.705340e-04 4.652460e-04 4.769310e-04 4.741395e-04 4.824700e-04 4.818543e-04 4.866028e-04 4.876293e-04 4.887063e-04 4.906642e-04 4.881854e-04 4.902158e-04 4.845578e-04 4.856844e-04 4.775181e-04 4.766885e-04 4.669773e-04 4.631242e-04 4.530741e-04 4.451997e-04 4.361509e-04 4.234300e-04 4.166908e-04 3.985766e-04 3.952186e-04 3.715372e-04 3.721921e-04 3.432096e-04 3.479262e-04 3.143739e-04 3.225862e-04 2.856289e-04 2.962581e-04 2.573938e-04 2.690628e-04 2.299563e-04 2.412591e-04 2.035362e-04 2.132898e-04 1.783381e-04 1.857554e-04 1.545805e-04 1.593336e-04 1.325025e-04 1.346815e-04 1.123529e-04 1.123557e-04 9.437326e-05 9.276711e-05 7.877727e-05 7.616962e-05 6.573117e-05 6.267255e-05 5.533651e-05 5.226158e-05 4.761603e-05 
5.014520e-05 4.656268e-05 4.241114e-05 4.124673e-05 3.786042e-05 3.879708e-05 3.608824e-05 3.881222e-05 3.660067e-05 4.079080e-05 3.884197e-05 4.416670e-05 4.222582e-05 4.834897e-05 4.617132e-05 5.276584e-05 5.014302e-05 5.691099e-05 5.369289e-05 6.038876e-05 5.650099e-05 6.295403e-05 5.841079e-05 6.454282e-05 5.945667e-05 6.529166e-05 5.988294e-05 6.554776e-05 6.015725e-05 6.587467e-05 6.098114e-05 6.705664e-05 6.329484e-05 7.009511e-05 6.826057e-05 7.617575e-05 7.719526e-05 8.657352e-05 9.142234e-05 1.024726e-04 1.120363e-04 1.247126e-04 1.396185e-04 1.535199e-04 1.739850e-04 1.883171e-04 2.140637e-04 2.276934e-04 2.579643e-04 2.695735e-04 3.032448e-04 3.115543e-04 3.473146e-04 3.513240e-04 3.878689e-04 3.870536e-04 4.232493e-04 4.176664e-04 4.526480e-04 4.429293e-04 4.761231e-04 4.633627e-04 4.944417e-04 4.800078e-04 5.088039e-04 4.941214e-04 5.205228e-04 5.068712e-04 5.307332e-04 5.190980e-04 5.401868e-04 5.311813e-04 5.491626e-04 5.430171e-04 5.574860e-04 5.540851e-04 5.646267e-04 5.635654e-04 5.698345e-04 5.704734e-04 5.722815e-04 5.737902e-04 5.711941e-04 5.725862e-04 5.659679e-04 5.661374e-04 5.562622e-04 5.540332e-04 5.420677e-04 5.362687e-04 5.237372e-04 5.133011e-04 5.019612e-04 4.860418e-04 4.776701e-04 4.557531e-04 4.518574e-04 4.238470e-04 4.253616e-04 3.916300e-04 3.986808e-04 3.600763e-04 3.719036e-04 3.297085e-04 3.447915e-04 3.006189e-04 3.169817e-04 2.726081e-04 2.882210e-04 2.453772e-04 2.585393e-04 2.187044e-04 2.283078e-04 1.925588e-04 1.981820e-04 1.671354e-04 1.689761e-04 1.428218e-04 1.415223e-04 1.201232e-04 1.165577e-04 9.957333e-05 9.465459e-05 8.165316e-05 7.619187e-05 6.672947e-05 6.135390e-05 5.501703e-05 
4.807638e-05 4.531465e-05 4.126859e-05 4.100600e-05 3.773454e-05 3.962045e-05 3.702352e-05 4.072900e-05 3.861469e-05 4.380853e-05 4.192814e-05 4.826515e-05 4.634596e-05 5.346878e-05 5.124481e-05 5.879846e-05 5.603957e-05 6.369605e-05 6.023423e-05 6.772293e-05 6.347424e-05 7.061191e-05 6.559256e-05 7.230641e-05 6.664329e-05 7.298215e-05 6.692095e-05 7.305317e-05 6.696971e-05 7.317108e-05 6.759067e-05 7.422713e-05 6.985005e-05 7.735550e-05 7.507324e-05 8.391288e-05 8.478718e-05 9.538918e-05 1.005652e-04 1.132096e-04 1.237552e-04 1.384331e-04 1.551330e-04 1.714180e-04 1.945835e-04 2.115747e-04 2.409349e-04 2.573156e-04 2.920316e-04 3.062511e-04 3.450494e-04 3.555916e-04 3.969751e-04 4.026457e-04 4.451209e-04 4.452812e-04 4.875443e-04 4.822341e-04 5.232790e-04 5.132045e-04 5.523436e-04 5.387401e-04 5.755515e-04 5.599604e-04 5.941890e-04 5.782041e-04 6.096505e-04 5.946884e-04 6.231155e-04 6.102537e-04 6.353339e-04 6.252353e-04 6.465477e-04 6.394654e-04 6.565379e-04 6.523703e-04 6.647505e-04 6.631096e-04 6.704500e-04 6.707152e-04 6.728619e-04 6.742097e-04 6.712895e-04 6.727051e-04 6.652030e-04 6.654893e-04 6.543040e-04 6.521090e-04 6.385660e-04 6.324481e-04 6.182505e-04 6.067933e-04 5.938872e-04 5.758574e-04 5.661982e-04 5.407197e-04 5.359554e-04 5.026705e-04 5.038017e-04 4.629950e-04 4.701175e-04 4.227815e-04 4.350130e-04 3.828267e-04 3.984660e-04 3.436567e-04 3.605424e-04 3.056224e-04 3.215855e-04 2.690067e-04 2.822843e-04 2.340981e-04 2.435979e-04 2.012156e-04 2.065867e-04 1.706996e-04 1.722305e-04 1.428860e-04 1.412990e-04 1.180798e-04 1.143005e-04 9.653387e-05 9.149445e-05 7.843166e-05 7.293722e-05 6.387414e-05 5.853368e-05 5.286776e-05 
5.200979e-05 4.768584e-05 4.118675e-05 3.983427e-05 3.454528e-05 3.577473e-05 3.155314e-05 3.498855e-05 3.157898e-05 3.683718e-05 3.392051e-05 4.060281e-05 3.783889e-05 4.553601e-05 4.260151e-05 5.091089e-05 4.753273e-05 5.608591e-05 5.206967e-05 6.056528e-05 5.581641e-05 6.405236e-05 5.858892e-05 6.648626e-05 6.044385e-05 6.805639e-05 6.169007e-05 6.919851e-05 6.289065e-05 7.058620e-05 6.486939e-05 7.313539e-05 6.873136e-05 7.802577e-05 7.588284e-05 8.670959e-05 8.800038e-05 1.008436e-04 1.068798e-04 1.220797e-04 1.341255e-04 1.517055e-04 1.707233e-04 1.902227e-04 2.166298e-04 2.370194e-04 2.705450e-04 2.902878e-04 3.299847e-04 3.472518e-04 3.916578e-04 4.046522e-04 4.520464e-04 4.593511e-04 5.080260e-04 5.088849e-04 5.573661e-04 5.518289e-04 5.989978e-04 5.879022e-04 6.330141e-04 6.178172e-04 6.604326e-04 6.429406e-04 6.828034e-04 6.648672e-04 7.017688e-04 6.850097e-04 7.186753e-04 7.042955e-04 7.343191e-04 7.230213e-04 7.488629e-04 7.408676e-04 7.619042e-04 7.570279e-04 7.726389e-04 7.703835e-04 7.800520e-04 7.796724e-04 7.830930e-04 7.836319e-04 7.808235e-04 7.811246e-04 7.725422e-04 7.712603e-04 7.578891e-04 7.535239e-04 7.369299e-04 7.279075e-04 7.102127e-04 6.950261e-04 6.787683e-04 6.561619e-04 6.440022e-04 6.131586e-04 6.074390e-04 5.681263e-04 5.703571e-04 5.230209e-04 5.334556e-04 4.792538e-04 4.967243e-04 4.374933e-04 4.596022e-04 3.977215e-04 4.213573e-04 3.594913e-04 3.815105e-04 3.222579e-04 3.401205e-04 2.856573e-04 2.978350e-04 2.496600e-04 2.557381e-04 2.145889e-04 2.150974e-04 1.810357e-04 1.771239e-04 1.497298e-04 1.428100e-04 1.214043e-04 1.128591e-04 9.668841e-05 8.768067e-05 7.603655e-05 6.742220e-05 5.969336e-05 
4.612236e-05 4.293856e-05 3.642694e-05 3.622557e-05 3.094477e-05 3.331954e-05 2.911684e-05 3.369560e-05 3.030690e-05 3.671208e-05 3.380530e-05 4.163372e-05 3.884842e-05 4.767133e-05 4.465718e-05 5.403931e-05 5.049411e-05 6.002872e-05 5.573401e-05 6.508757e-05 5.993764e-05 6.889457e-05 6.291398e-05 7.140952e-05 6.475748e-05 7.288875e-05 6.585485e-05 7.386760e-05 6.687140e-05 7.513085e-05 6.874194e-05 7.770438e-05 7.269153e-05 8.288717e-05 8.028017e-05 9.229514e-05 9.340964e-05 1.078290e-04 1.141897e-04 1.314627e-04 1.445904e-04 1.648202e-04 1.859184e-04 2.086437e-04 2.382896e-04 2.623624e-04 3.003210e-04 3.239656e-04 3.691986e-04 3.902675e-04 4.411277e-04 4.574926e-04 5.120285e-04 5.219995e-04 5.782723e-04 5.809315e-04 6.372619e-04 6.326309e-04 6.877285e-04 6.767388e-04 7.297133e-04 7.140004e-04 7.642784e-04 7.458604e-04 7.930512e-04 7.739728e-04 8.177246e-04 7.997468e-04 8.396325e-04 8.240298e-04 8.594916e-04 8.469847e-04 8.773486e-04 8.681550e-04 8.927019e-04 8.866488e-04 9.047143e-04 9.013488e-04 9.124278e-04 9.110811e-04 9.149310e-04 9.147281e-04 9.114746e-04 9.113047e-04 9.015479e-04 9.000248e-04 8.849286e-04 8.803765e-04 8.617151e-04 8.522220e-04 8.323520e-04 8.159217e-04 7.976364e-04 7.724315e-04 7.586498e-04 7.232753e-04 7.165524e-04 6.703210e-04 6.722700e-04 6.154171e-04 6.262338e-04 5.600615e-04 5.783609e-04 5.052622e-04 5.283335e-04 4.516178e-04 4.760391e-04 3.995179e-04 4.219312e-04 3.493284e-04 3.671249e-04 3.014824e-04 3.132032e-04 2.564755e-04 2.618610e-04 2.148107e-04 2.145638e-04 1.769407e-04 1.723473e-04 1.432322e-04 1.357801e-04 1.139530e-04 1.050416e-04 8.927007e-05 8.004023e-05 6.925045e-05 6.051890e-05 5.385655e-05 
4.790458e-05 4.279822e-05 3.301819e-05 3.144906e-05 2.351095e-05 2.502007e-05 1.869092e-05 2.284617e-05 1.776432e-05 2.412520e-05 1.985954e-05 2.796096e-05 2.406137e-05 3.341667e-05 2.945986e-05 3.958263e-05 3.521524e-05 4.565721e-05 4.063414e-05 5.103359e-05 4.524626e-05 5.537642e-05 4.886517e-05 5.866910e-05 5.161741e-05 6.121641e-05 5.393305e-05 6.360449e-05 5.651080e-05 6.664655e-05 6.029433e-05 7.136451e-05 6.650308e-05 7.904584e-05 7.672378e-05 9.134977e-05 9.298645e-05 1.103433e-04 1.176741e-04 1.383056e-04 1.531393e-04 1.772289e-04 2.010553e-04 2.281370e-04 2.617232e-04 2.905038e-04 3.336464e-04 3.620579e-04 4.135860e-04 4.390911e-04 4.971066e-04 5.171766e-04 5.794303e-04 5.920555e-04 6.563308e-04 6.604236e-04 7.248272e-04 7.204197e-04 7.835268e-04 7.717292e-04 8.325855e-04 8.153324e-04 8.733474e-04 8.530083e-04 9.077896e-04 8.867391e-04 9.379174e-04 9.181625e-04 9.652503e-04 9.481924e-04 9.905149e-04 9.768822e-04 1.013595e-03 1.003522e-03 1.033698e-03 1.026881e-03 1.049627e-03 1.045466e-03 1.060044e-03 1.057723e-03 1.063668e-03 1.062165e-03 1.059420e-03 1.057470e-03 1.046542e-03 1.042586e-03 1.024691e-03 1.016870e-03 9.940435e-04 9.802632e-04 9.553981e-04 9.335277e-04 9.102510e-04 8.784218e-04 8.607269e-04 8.176466e-04 8.092157e-04 7.544078e-04 7.577325e-04 6.916845e-04 7.072766e-04 6.315269e-04 6.575724e-04 5.747226e-04 6.073837e-04 5.209486e-04 5.552577e-04 4.692710e-04 5.003167e-04 4.187290e-04 4.427266e-04 3.687701e-04 3.836876e-04 3.194327e-04 3.250537e-04 2.712968e-04 2.688290e-04 2.252942e-04 2.167629e-04 1.824825e-04 1.701409e-04 1.438496e-04 1.297499e-04 1.101843e-04 9.594361e-05 8.200806e-05 6.873942e-05 5.955790e-05 
3.697702e-05 3.335796e-05 2.338065e-05 2.320562e-05 1.510078e-05 1.792721e-05 1.145817e-05 1.688882e-05 1.169148e-05 1.931444e-05 1.494677e-05 2.430425e-05 2.029128e-05 3.087688e-05 2.675742e-05 3.804121e-05 3.341873e-05 4.489742e-05 3.949148e-05 5.075624e-05 4.444503e-05 5.525189e-05 4.809407e-05 5.841560e-05 5.064308e-05 6.067993e-05 5.266517e-05 6.280833e-05 5.502797e-05 6.578721e-05 5.882186e-05 7.076189e-05 6.537046e-05 7.909722e-05 7.636305e-05 9.255715e-05 9.402532e-05 1.134461e-04 1.211113e-04 1.444632e-04 1.605020e-04 1.881246e-04 2.144062e-04 2.458908e-04 2.834538e-04 3.173857e-04 3.661106e-04 4.001065e-04 4.587141e-04 4.897870e-04 5.561361e-04 5.812798e-04 6.528231e-04 6.696335e-04 7.438662e-04 7.510230e-04 8.258036e-04 8.232976e-04 8.969918e-04 8.860607e-04 9.575235e-04 9.403394e-04 1.008786e-03 9.879882e-04 1.052817e-03 1.031007e-03 1.091616e-03 1.070935e-03 1.126591e-03 1.108469e-03 1.158257e-03 1.143373e-03 1.186245e-03 1.174674e-03 1.209571e-03 1.201003e-03 1.226991e-03 1.220911e-03 1.237293e-03 1.233054e-03 1.239479e-03 1.236262e-03 1.232838e-03 1.229554e-03 1.216992e-03 1.212147e-03 1.191905e-03 1.183496e-03 1.157884e-03 1.143404e-03 1.115620e-03 1.092253e-03 1.066278e-03 1.031283e-03 1.011503e-03 9.626717e-04 9.531223e-04 8.892005e-04 8.925555e-04 8.135825e-04 8.302489e-04 7.378513e-04 7.656175e-04 6.631695e-04 6.976310e-04 5.900816e-04 6.257288e-04 5.189503e-04 5.505287e-04 4.502793e-04 4.739424e-04 3.847936e-04 3.986953e-04 3.233287e-04 3.275705e-04 2.666658e-04 2.627724e-04 2.154148e-04 2.056350e-04 1.699801e-04 1.566679e-04 1.305831e-04 1.157899e-04 9.730365e-05 8.258855e-05 7.011097e-05 5.651357e-05 4.887446e-05 
3.565224e-05 2.966021e-05 1.543802e-05 1.354257e-05 2.023814e-06 3.706460e-06 -5.484571e-06 -7.016744e-07 -8.075545e-06 -6.834445e-07 -6.819950e-06 2.650340e-06 -2.843099e-06 8.134079e-06 2.728750e-06 1.462789e-05 8.852127e-06 2.112764e-05 1.467554e-05 2.689428e-05 1.965636e-05 3.157568e-05 2.365501e-05 3.528093e-05 2.697094e-05 3.856857e-05 3.029545e-05 4.233533e-05 3.459153e-05 4.764749e-05 4.097067e-05 5.562628e-05 5.068676e-05 6.752151e-05 6.533445e-05 8.500362e-05 8.716880e-05 1.104752e-04 1.192406e-04 1.470265e-04 1.649979e-04 1.977714e-04 2.272907e-04 2.647117e-04 3.071585e-04 3.476645e-04 4.030085e-04 4.438243e-04 5.106130e-04 5.481919e-04 6.239303e-04 6.546790e-04 7.364046e-04 7.574481e-04 8.422819e-04 8.520499e-04 9.375751e-04 9.360695e-04 1.020487e-03 1.009195e-03 1.091284e-03 1.072794e-03 1.151748e-03 1.129176e-03 1.204386e-03 1.180771e-03 1.251601e-03 1.229385e-03 1.295010e-03 1.275737e-03 1.335070e-03 1.319364e-03 1.371117e-03 1.358881e-03 1.401718e-03 1.392432e-03 1.425122e-03 1.418074e-03 1.439616e-03 1.433985e-03 1.443715e-03 1.438526e-03 1.436265e-03 1.430263e-03 1.416518e-03 1.408017e-03 1.384210e-03 1.370970e-03 1.339654e-03 1.318898e-03 1.283917e-03 1.252604e-03 1.219093e-03 1.174425e-03 1.148419e-03 1.088374e-03 1.075780e-03 9.994712e-04 1.004510e-03 9.123824e-04 9.360887e-04 8.300956e-04 8.695961e-04 7.533673e-04 8.023788e-04 6.811349e-04 7.315668e-04 6.115269e-04 6.555968e-04 5.429067e-04 5.749776e-04 4.745303e-04 4.920539e-04 4.066951e-04 4.101000e-04 3.405035e-04 3.323253e-04 2.774626e-04 2.612184e-04 2.191042e-04 1.983359e-04 1.667237e-04 1.444030e-04 1.212475e-04 9.953646e-05 8.320009e-05 6.345951e-05 5.273004e-05 