# vtk DataFile Version 2.0
Comment goes here
ASCII

DATASET STRUCTURED_POINTS
FIELD FieldData 1
TIME 1 1 double
0.16500000
DIMENSIONS    128   128   1

ORIGIN    0.000   0.000   0.000
SPACING   0.039062 0.039062   1.000

POINT_DATA   16384
SCALARS Omega double
LOOKUP_TABLE default

4.247420e-14 3.695840e-14 1.789659e-14 9.911831e-15 -8.711139e-15 9.352056e-15 1.795377e-14 3.921647e-14 4.234034e-14 5.015207e-14 4.042338e-14 2.169431e-14 1.228090e-14 1.342684e-14 -1.028844e-14 -3.291899e-14 -4.727294e-14 -5.123936e-14 -3.672017e-14 -4.909247e-14 -5.724189e-14 -4.409634e-14 -1.640144e-14 -2.546654e-14 -2.759386e-15 -2.394039e-14 -6.694744e-14 -4.240830e-14 -4.046994e-14 -3.554708e-14 -6.667094e-14 -6.856175e-14 -9.173882e-14 -8.118993e-14 -4.246128e-14 -6.024733e-14 -5.159315e-14 -5.620383e-14 -2.829628e-14 -1.101707e-14 1.154855e-14 -1.899974e-15 4.087782e-14 2.089837e-14 4.340107e-14 3.204897e-14 7.468617e-15 2.218358e-14 -1.052823e-14 1.631638e-14 1.587399e-14 -6.682576e-15 2.298136e-14 4.795244e-15 -2.312519e-15 -1.264671e-15 -2.357554e-14 5.731493e-14 2.715286e-14 -2.009384e-14 4.020922e-14 -3.085144e-14 3.061254e-14 3.702043e-15 8.687565e-15 -1.590426e-14 4.524339e-14 -2.474382e-14 -1.319321e-14 -2.768591e-14 -3.599926e-14 -3.435856e-14 -2.193420e-14 -2.045011e-14 -2.378038e-14 -1.756285e-14 8.235660e-16 -1.128139e-14 -2.072729e-14 -1.620617e-15 -4.596682e-14 2.411979e-15 3.331168e-14 -6.078973e-15 3.779758e-15 3.772696e-14 3.986106e-14 6.297771e-14 -7.281451e-15 2.521428e-16 -2.189031e-14 1.636304e-14 1.097570e-16 -5.518241e-14 -2.824255e-14 3.484456e-14 7.664634e-14 3.209479e-14 -1.267344e-14 -3.649407e-14 3.042210e-14 3.968886e-14 6.399748e-16 7.117677e-14 2.880407e-14 6.698799e-14 1.097697e-13 4.224660e-14 1.131453e-14 1.653981e-16 -8.459434e-15 6.936189e-16 -1.476133e-14 -2.127816e-16 -5.132884e-15 -1.677386e-14 -2.822496e-14 -3.639646e-14 -2.087254e-14 -1.504950e-14 -4.474334e-16 8.652354e-15 1.716579e-14 4.292451e-14 3.812004e-14 4.026024e-14 3.948414e-14 5.482354e-14 
8.575918e-06 8.714789e-06 8.096065e-06 8.219554e-06 7.738831e-06 7.817493e-06 7.477639e-06 7.486495e-06 7.284511e-06 7.204258e-06 7.132050e-06 6.949527e-06 6.995186e-06 6.703184e-06 6.852634e-06 6.449242e-06 6.688099e-06 6.175860e-06 6.491289e-06 5.876494e-06 6.258860e-06 5.551322e-06 5.995459e-06 5.208979e-06 5.714984e-06 4.868576e-06 5.442118e-06 4.561779e-06 5.213965e-06 4.334499e-06 5.081289e-06 4.247402e-06 5.108458e-06 4.374224e-06 5.370912e-06 4.796739e-06 5.948971e-06 5.595648e-06 6.917424e-06 6.837508e-06 8.331545e-06 8.559332e-06 1.021180e-05 1.075398e-05 1.253096e-05 1.336043e-05 1.520786e-05 1.626294e-05 1.811110e-05 1.930117e-05 2.107384e-05 2.229086e-05 2.391760e-05 2.505137e-05 2.648045e-05 2.743441e-05 2.864312e-05 2.934738e-05 3.034731e-05 3.076632e-05 3.160197e-05 3.173578e-05 3.247681e-05 3.235632e-05 3.308491e-05 3.276282e-05 3.355892e-05 3.309870e-05 3.402588e-05 3.349106e-05 3.458555e-05 3.403089e-05 3.529543e-05 3.476105e-05 3.616405e-05 3.567251e-05 3.715224e-05 3.670831e-05 3.818110e-05 3.777378e-05 3.914482e-05 3.875106e-05 3.992640e-05 3.951605e-05 4.041429e-05 3.995588e-05 4.051808e-05 3.998453e-05 4.018100e-05 3.955441e-05 3.938737e-05 3.866191e-05 3.816343e-05 3.734566e-05 3.657116e-05 3.567790e-05 3.469638e-05 3.375082e-05 3.263373e-05 3.166118e-05 3.047225e-05 2.949683e-05 2.828482e-05 2.732788e-05 2.612347e-05 2.520378e-05 2.402052e-05 2.315545e-05 2.199397e-05 2.120069e-05 2.005451e-05 1.935026e-05 1.821172e-05 1.761281e-05 1.647779e-05 1.599760e-05 1.486831e-05 1.451486e-05 1.340077e-05 1.317459e-05 1.209155e-05 1.198452e-05 1.095288e-05 1.094821e-05 9.990311e-06 1.006384e-05 9.201473e-06 9.323723e-06 
1.799466e-05 1.841979e-05 1.723032e-05 1.759051e-05 1.665540e-05 1.688813e-05 1.621178e-05 1.626624e-05 1.584291e-05 1.568200e-05 1.549723e-05 1.509819e-05 1.513126e-05 1.448494e-05 1.471196e-05 1.382120e-05 1.421868e-05 1.309614e-05 1.364433e-05 1.231061e-05 1.299638e-05 1.147890e-05 1.229776e-05 1.063108e-05 1.158823e-05 9.815905e-06 1.092637e-05 9.104143e-06 1.039219e-05 8.591435e-06 1.008931e-05 8.399367e-06 1.014515e-05 8.672580e-06 1.070656e-05 9.569584e-06 1.192844e-05 1.124554e-05 1.395391e-05 1.382705e-05 1.688721e-05 1.738208e-05 2.076360e-05 2.189101e-05 2.552383e-05 2.722740e-05 3.100155e-05 3.315608e-05 3.693065e-05 3.935337e-05 4.297469e-05 4.544825e-05 4.877436e-05 5.107735e-05 5.400360e-05 5.594205e-05 5.842167e-05 5.985488e-05 6.190921e-05 6.276494e-05 6.448052e-05 6.475725e-05 6.627014e-05 6.602759e-05 6.749824e-05 6.683937e-05 6.842344e-05 6.747284e-05 6.929359e-05 6.817673e-05 7.030406e-05 6.913054e-05 7.156971e-05 7.042230e-05 7.311323e-05 7.204261e-05 7.486879e-05 7.389308e-05 7.669780e-05 7.580575e-05 7.841279e-05 7.756959e-05 7.980533e-05 7.896041e-05 8.067469e-05 7.977070e-05 8.085405e-05 7.983625e-05 8.023130e-05 7.905603e-05 7.876176e-05 7.740265e-05 7.647078e-05 7.492156e-05 7.344573e-05 7.171958e-05 6.981926e-05 6.794543e-05 6.574764e-05 6.376705e-05 6.138948e-05 5.935079e-05 5.688943e-05 5.484645e-05 5.236936e-05 5.037949e-05 4.792693e-05 4.604966e-05 4.363923e-05 4.193359e-05 3.956817e-05 3.808868e-05 3.576519e-05 3.455660e-05 3.227346e-05 3.136544e-05 2.912783e-05 2.853069e-05 2.635309e-05 2.605564e-05 2.396182e-05 2.393176e-05 2.195272e-05 2.213942e-05 2.031007e-05 2.064923e-05 1.900447e-05 1.942378e-05 
2.565904e-05 2.609674e-05 2.413677e-05 2.452927e-05 2.299764e-05 2.325354e-05 2.216049e-05 2.220238e-05 2.153992e-05 2.130799e-05 2.105223e-05 2.050580e-05 2.062076e-05 1.973765e-05 2.018032e-05 1.895491e-05 1.968093e-05 1.812145e-05 1.909087e-05 1.721718e-05 1.839952e-05 1.624219e-05 1.762039e-05 1.522193e-05 1.679469e-05 1.421312e-05 1.599584e-05 1.331007e-05 1.533437e-05 1.264985e-05 1.496193e-05 1.241432e-05 1.507178e-05 1.282574e-05 1.589191e-05 1.413229e-05 1.766713e-05 1.658098e-05 2.062775e-05 2.037799e-05 2.494676e-05 2.564104e-05 3.069219e-05 3.235363e-05 3.778639e-05 4.033413e-05 4.598560e-05 4.923197e-05 5.489063e-05 5.855841e-05 6.399197e-05 6.774996e-05 7.274325e-05 7.625337e-05 8.064808e-05 8.361396e-05 8.734068e-05 8.954748e-05 9.264184e-05 9.397954e-05 9.657800e-05 9.704486e-05 9.936063e-05 9.904836e-05 1.013327e-04 1.003987e-04 1.028953e-04 1.015294e-04 1.044311e-04 1.028231e-04 1.062386e-04 1.045525e-04 1.084874e-04 1.068442e-04 1.111987e-04 1.096681e-04 1.142505e-04 1.128503e-04 1.174016e-04 1.161039e-04 1.203312e-04 1.190722e-04 1.226857e-04 1.213802e-04 1.241292e-04 1.226870e-04 1.243902e-04 1.227327e-04 1.233001e-04 1.213746e-04 1.208155e-04 1.186041e-04 1.170210e-04 1.145418e-04 1.121101e-04 1.094109e-04 1.063481e-04 1.034949e-04 1.000248e-04 9.708920e-05 9.341023e-05 9.045989e-05 8.672156e-05 8.381666e-05 8.011033e-05 7.730494e-05 7.366768e-05 7.101421e-05 6.744277e-05 6.499570e-05 6.146563e-05 5.928179e-05 5.576638e-05 5.390089e-05 5.038593e-05 4.888485e-05 4.537728e-05 4.426916e-05 4.079922e-05 4.008817e-05 3.670650e-05 3.636849e-05 3.313973e-05 3.312301e-05 3.011796e-05 3.034724e-05 2.763490e-05 2.801836e-05 
3.588585e-05 3.678386e-05 3.419820e-05 3.496527e-05 3.291571e-05 3.342137e-05 3.192038e-05 3.205862e-05 3.109709e-05 3.079045e-05 3.034048e-05 2.954134e-05 2.956110e-05 2.825036e-05 2.869065e-05 2.687433e-05 2.768584e-05 2.539073e-05 2.653118e-05 2.380065e-05 2.524083e-05 2.213225e-05 2.386023e-05 2.044522e-05 2.246842e-05 1.883628e-05 2.118165e-05 1.744577e-05 2.015847e-05 1.646366e-05 1.960472e-05 1.613256e-05 1.977510e-05 1.674334e-05 2.096610e-05 1.861816e-05 2.349461e-05 2.207668e-05 2.765841e-05 2.738484e-05 3.368019e-05 3.469190e-05 4.164388e-05 4.396879e-05 5.143931e-05 5.496564e-05 6.273368e-05 6.720587e-05 7.498509e-05 8.002697e-05 8.750295e-05 9.266577e-05 9.954697e-05 1.043730e-04 1.104441e-04 1.145320e-04 1.196971e-04 1.227553e-04 1.270588e-04 1.289359e-04 1.325568e-04 1.332459e-04 1.364645e-04 1.360828e-04 1.392288e-04 1.379802e-04 1.413719e-04 1.395034e-04 1.433909e-04 1.411511e-04 1.456727e-04 1.432794e-04 1.484396e-04 1.460588e-04 1.517270e-04 1.494641e-04 1.553937e-04 1.532929e-04 1.591552e-04 1.572050e-04 1.626324e-04 1.607763e-04 1.654075e-04 1.635571e-04 1.670812e-04 1.651322e-04 1.673237e-04 1.651735e-04 1.659169e-04 1.634804e-04 1.627789e-04 1.600012e-04 1.579697e-04 1.548322e-04 1.516739e-04 1.481941e-04 1.441657e-04 1.403914e-04 1.357633e-04 1.317652e-04 1.267852e-04 1.226509e-04 1.175171e-04 1.133477e-04 1.081964e-04 1.041056e-04 9.901260e-05 9.512408e-05 9.011715e-05 8.655873e-05 8.163613e-05 7.852971e-05 7.367921e-05 7.112754e-05 6.634260e-05 6.441591e-05 5.970647e-05 5.843227e-05 5.382955e-05 5.318776e-05 4.874366e-05 4.866779e-05 4.445014e-05 4.483406e-05 4.091924e-05 4.162767e-05 3.809224e-05 3.897331e-05 
4.250910e-05 4.331174e-05 3.968984e-05 4.041992e-05 3.756078e-05 3.805562e-05 3.598167e-05 3.610367e-05 3.480493e-05 3.444804e-05 3.388587e-05 3.297810e-05 3.309174e-05 3.159429e-05 3.230941e-05 3.021323e-05 3.145189e-05 2.877292e-05 3.046373e-05 2.723861e-05 2.932567e-05 2.560951e-05 2.805930e-05 2.392709e-05 2.673240e-05 2.228451e-05 2.546574e-05 2.083689e-05 2.444109e-05 1.981050e-05 2.390883e-05 1.950754e-05 2.419080e-05 2.030118e-05 2.567183e-05 2.261394e-05 2.877220e-05 2.687378e-05 3.389589e-05 3.344651e-05 4.135607e-05 4.255183e-05 5.128968e-05 5.418008e-05 6.358195e-05 6.803394e-05 7.782645e-05 8.351823e-05 9.334073e-05 9.979175e-05 1.092445e-04 1.158783e-04 1.245891e-04 1.308162e-04 1.385104e-04 1.438140e-04 1.503712e-04 1.543757e-04 1.598581e-04 1.623690e-04 1.670141e-04 1.680220e-04 1.722000e-04 1.718544e-04 1.760000e-04 1.745607e-04 1.790935e-04 1.768739e-04 1.821231e-04 1.794364e-04 1.855826e-04 1.827003e-04 1.897443e-04 1.868695e-04 1.946284e-04 1.918842e-04 2.000153e-04 1.974440e-04 2.054886e-04 2.030609e-04 2.105021e-04 2.081315e-04 2.144587e-04 2.120219e-04 2.167938e-04 2.141555e-04 2.170550e-04 2.140938e-04 2.149662e-04 2.115984e-04 2.104679e-04 2.066622e-04 2.037215e-04 1.995025e-04 1.950761e-04 1.905143e-04 1.850011e-04 1.801937e-04 1.740011e-04 1.690517e-04 1.625345e-04 1.575395e-04 1.509580e-04 1.460029e-04 1.395064e-04 1.346730e-04 1.283102e-04 1.236865e-04 1.174337e-04 1.131214e-04 1.069202e-04 1.030326e-04 9.682626e-05 9.347750e-05 8.723675e-05 8.452467e-05 7.826266e-05 7.625074e-05 7.002510e-05 6.872866e-05 6.263459e-05 6.201442e-05 5.617221e-05 5.613653e-05 5.067696e-05 5.109047e-05 4.614054e-05 4.683816e-05 
5.351810e-05 5.498971e-05 5.057552e-05 5.184726e-05 4.830778e-05 4.917009e-05 4.653310e-05 4.681567e-05 4.507336e-05 4.465155e-05 4.376445e-05 4.256135e-05 4.246585e-05 4.045049e-05 4.106905e-05 3.825142e-05 3.950425e-05 3.592839e-05 3.774517e-05 3.348216e-05 3.581187e-05 3.095494e-05 3.377268e-05 2.843634e-05 3.174630e-05 2.607078e-05 2.990596e-05 2.406657e-05 2.848631e-05 2.270540e-05 2.779204e-05 2.234890e-05 2.820343e-05 2.343579e-05 3.017051e-05 2.646075e-05 3.418526e-05 3.192624e-05 4.072352e-05 4.026401e-05 5.015682e-05 5.173378e-05 6.264751e-05 6.632002e-05 7.805388e-05 8.365741e-05 9.587774e-05 1.030156e-04 1.152812e-04 1.233612e-04 1.351819e-04 1.434938e-04 1.544119e-04 1.622300e-04 1.719064e-04 1.785941e-04 1.868781e-04 1.919717e-04 1.989346e-04 2.021901e-04 2.081152e-04 2.095124e-04 2.148421e-04 2.145506e-04 2.198025e-04 2.181227e-04 2.237928e-04 2.210882e-04 2.275604e-04 2.241964e-04 2.316753e-04 2.279727e-04 2.364489e-04 2.326575e-04 2.419080e-04 2.381955e-04 2.478153e-04 2.442686e-04 2.537254e-04 2.503575e-04 2.590597e-04 2.558213e-04 2.631909e-04 2.599845e-04 2.655258e-04 2.622245e-04 2.655819e-04 2.620505e-04 2.630478e-04 2.591653e-04 2.578211e-04 2.534998e-04 2.500159e-04 2.452122e-04 2.399354e-04 2.346520e-04 2.280145e-04 2.222942e-04 2.147458e-04 2.086637e-04 2.006081e-04 1.942678e-04 1.860182e-04 1.795530e-04 1.713129e-04 1.648889e-04 1.567585e-04 1.505736e-04 1.425748e-04 1.368479e-04 1.289582e-04 1.239079e-04 1.160941e-04 1.119109e-04 1.041554e-04 1.009743e-04 9.329235e-05 9.117275e-05 8.361789e-05 8.253495e-05 7.519704e-05 7.504515e-05 6.804114e-05 6.864728e-05 6.210856e-05 6.325179e-05 5.731021e-05 5.874355e-05 
5.888158e-05 6.016892e-05 5.431903e-05 5.550935e-05 5.083365e-05 5.167660e-05 4.821734e-05 4.850176e-05 4.625170e-05 4.581502e-05 4.472256e-05 4.345473e-05 4.343299e-05 4.127546e-05 4.221480e-05 3.915564e-05 4.093854e-05 3.700526e-05 3.952175e-05 3.477414e-05 3.793566e-05 3.246115e-05 3.621081e-05 3.012470e-05 3.444273e-05 2.789469e-05 3.279937e-05 2.598569e-05 3.153113e-05 2.471011e-05 3.098271e-05 2.448759e-05 3.160167e-05 2.584347e-05 3.393363e-05 2.938518e-05 3.859058e-05 3.574501e-05 4.618068e-05 4.548353e-05 5.719813e-05 5.896193e-05 7.188940e-05 7.620925e-05 9.012965e-05 9.682409e-05 1.113518e-04 1.199505e-04 1.345631e-04 1.443519e-04 1.584614e-04 1.685783e-04 1.816324e-04 1.911947e-04 2.027842e-04 2.110176e-04 2.209628e-04 2.273037e-04 2.356979e-04 2.398498e-04 2.470475e-04 2.489843e-04 2.555366e-04 2.554598e-04 2.620109e-04 2.602777e-04 2.674449e-04 2.644853e-04 2.727465e-04 2.689895e-04 2.785977e-04 2.744164e-04 2.853533e-04 2.810337e-04 2.930075e-04 2.887358e-04 3.012166e-04 2.970810e-04 3.093671e-04 3.053669e-04 3.166711e-04 3.127313e-04 3.222768e-04 3.182694e-04 3.253857e-04 3.211572e-04 3.253639e-04 3.207675e-04 3.218364e-04 3.167640e-04 3.147467e-04 3.091523e-04 3.043667e-04 2.982728e-04 2.912457e-04 2.847306e-04 2.761045e-04 2.692757e-04 2.596986e-04 2.526642e-04 2.426884e-04 2.355423e-04 2.255555e-04 2.183811e-04 2.085836e-04 2.014735e-04 1.919007e-04 1.849794e-04 1.755556e-04 1.689911e-04 1.595957e-04 1.535916e-04 1.441187e-04 1.388885e-04 1.292881e-04 1.250182e-04 1.153151e-04 1.121308e-04 1.024241e-04 1.003648e-04 9.081312e-05 8.982416e-05 8.062369e-05 8.056238e-05 7.192368e-05 7.257727e-05 6.470331e-05 6.581312e-05 
7.063324e-05 7.284253e-05 6.590271e-05 6.783669e-05 6.220074e-05 6.355334e-05 5.927482e-05 5.979719e-05 5.687627e-05 5.638543e-05 5.477381e-05 5.315598e-05 5.276703e-05 4.997590e-05 5.069905e-05 4.674950e-05 4.846741e-05 4.342605e-05 4.603213e-05 4.000664e-05 4.342006e-05 3.655057e-05 4.072627e-05 3.318157e-05 3.811385e-05 3.009519e-05 3.581568e-05 2.756834e-05 3.414094e-05 2.597131e-05 3.348726e-05 2.577964e-05 3.435421e-05 2.757801e-05 3.734597e-05 3.204228e-05 4.314537e-05 3.988298e-05 5.244143e-05 5.173969e-05 6.580498e-05 6.803258e-05 8.352948e-05 8.880190e-05 1.054785e-04 1.135844e-04 1.309939e-04 1.413783e-04 1.589099e-04 1.707267e-04 1.876890e-04 1.999162e-04 2.156569e-04 2.272486e-04 2.412823e-04 2.513213e-04 2.634320e-04 2.712494e-04 2.815408e-04 2.867792e-04 2.956590e-04 2.982731e-04 3.063748e-04 3.065787e-04 3.146386e-04 3.128200e-04 3.215366e-04 3.181632e-04 3.280666e-04 3.236059e-04 3.349629e-04 3.298268e-04 3.425935e-04 3.371119e-04 3.509379e-04 3.453522e-04 3.596285e-04 3.540962e-04 3.680351e-04 3.626366e-04 3.753700e-04 3.701146e-04 3.807985e-04 3.756319e-04 3.835463e-04 3.783623e-04 3.829959e-04 3.776558e-04 3.787653e-04 3.731238e-04 3.707591e-04 3.646896e-04 3.591787e-04 3.525926e-04 3.444830e-04 3.373356e-04 3.273013e-04 3.195890e-04 3.083197e-04 3.000760e-04 2.881751e-04 2.794760e-04 2.673905e-04 2.583700e-04 2.463661e-04 2.372335e-04 2.254144e-04 2.164592e-04 2.048125e-04 1.963853e-04 1.848421e-04 1.773123e-04 1.658012e-04 1.595014e-04 1.479878e-04 1.431605e-04 1.316686e-04 1.284291e-04 1.170471e-04 1.153706e-04 1.042434e-04 1.039741e-04 9.328788e-05 9.416441e-05 8.412664e-05 8.581672e-05 7.663499e-05 7.877056e-05 
7.440149e-05 7.636155e-05 6.742280e-05 6.926260e-05 6.202446e-05 6.338163e-05 5.791584e-05 5.848559e-05 5.479381e-05 5.434140e-05 5.236130e-05 5.072783e-05 5.034455e-05 4.744637e-05 4.850929e-05 4.433214e-05 4.667564e-05 4.126490e-05 4.473071e-05 3.818051e-05 4.263806e-05 3.508235e-05 4.044350e-05 3.205293e-05 3.827854e-05 2.926559e-05 3.636429e-05 2.699759e-05 3.501990e-05 2.564506e-05 3.467764e-05 2.573837e-05 3.590130e-05 2.795026e-05 3.939468e-05 3.308025e-05 4.597744e-05 4.199353e-05 5.650375e-05 5.549711e-05 7.171267e-05 7.415812e-05 9.202921e-05 9.810054e-05 1.173681e-04 1.268439e-04 1.470105e-04 1.592502e-04 1.796132e-04 1.936205e-04 2.133705e-04 2.279340e-04 2.463008e-04 2.601784e-04 2.765876e-04 2.886911e-04 3.028894e-04 3.124268e-04 3.245444e-04 3.310928e-04 3.416260e-04 3.451294e-04 3.548472e-04 3.555509e-04 3.653475e-04 3.636954e-04 3.744205e-04 3.709446e-04 3.832446e-04 3.784717e-04 3.926722e-04 3.870626e-04 4.031067e-04 3.970252e-04 4.144730e-04 4.081833e-04 4.262637e-04 4.199336e-04 4.376367e-04 4.313448e-04 4.475414e-04 4.412841e-04 4.548597e-04 4.485619e-04 4.585526e-04 4.520893e-04 4.578053e-04 4.510343e-04 4.521542e-04 4.449561e-04 4.415746e-04 4.338871e-04 4.265013e-04 4.183330e-04 4.077585e-04 3.991739e-04 3.863994e-04 3.774820e-04 3.634917e-04 3.543067e-04 3.399163e-04 3.304980e-04 3.162458e-04 3.066221e-04 2.927414e-04 2.829822e-04 2.694495e-04 2.597153e-04 2.463491e-04 2.369092e-04 2.234822e-04 2.146925e-04 2.010254e-04 1.932700e-04 1.792893e-04 1.729077e-04 1.586657e-04 1.538881e-04 1.395521e-04 1.364606e-04 1.222841e-04 1.208034e-04 1.070901e-04 1.070053e-04 9.407384e-05 9.506433e-05 8.321801e-05 8.489834e-05 
8.682500e-05 9.001451e-05 7.952531e-05 8.235126e-05 7.372529e-05 7.576090e-05 6.909035e-05 6.998785e-05 6.528919e-05 6.479061e-05 6.201008e-05 5.995249e-05 5.897858e-05 5.529372e-05 5.597631e-05 5.068438e-05 5.285876e-05 4.605681e-05 4.956925e-05 4.141636e-05 4.614660e-05 3.684920e-05 4.272503e-05 3.252729e-05 3.952813e-05 2.871164e-05 3.686200e-05 2.575713e-05 3.511495e-05 2.412260e-05 3.477019e-05 2.438796e-05 3.643091e-05 2.727190e-05 4.084401e-05 3.363104e-05 4.889290e-05 4.440994e-05 6.152341e-05 6.051392e-05 7.958137e-05 8.260260e-05 1.035787e-04 1.108454e-04 1.334508e-04 1.447177e-04 1.683966e-04 1.829251e-04 2.068770e-04 2.235086e-04 2.468012e-04 2.641245e-04 2.858650e-04 3.024340e-04 3.219533e-04 3.365029e-04 3.535026e-04 3.651116e-04 3.797348e-04 3.879047e-04 4.007130e-04 4.053585e-04 4.172204e-04 4.185881e-04 4.305056e-04 4.290542e-04 4.419661e-04 4.382432e-04 4.528449e-04 4.473899e-04 4.640051e-04 4.572943e-04 4.758149e-04 4.682462e-04 4.881434e-04 4.800448e-04 5.004391e-04 4.920817e-04 5.118540e-04 5.034551e-04 5.213815e-04 5.130952e-04 5.279906e-04 5.198929e-04 5.307502e-04 5.228303e-04 5.289393e-04 5.211059e-04 5.221417e-04 5.142463e-04 5.103109e-04 5.021827e-04 4.937884e-04 4.852641e-04 4.732495e-04 4.641888e-04 4.495748e-04 4.398611e-04 4.236742e-04 4.132199e-04 3.963293e-04 3.851021e-04 3.681133e-04 3.561867e-04 3.394133e-04 3.270183e-04 3.105268e-04 2.980720e-04 2.817702e-04 2.698095e-04 2.535455e-04 2.426949e-04 2.263399e-04 2.171677e-04 2.006690e-04 1.935954e-04 1.769997e-04 1.722319e-04 1.556850e-04 1.531998e-04 1.369294e-04 1.364970e-04 1.207879e-04 1.220210e-04 1.071856e-04 1.095986e-04 9.594695e-05 9.901125e-05 
8.852337e-05 9.143285e-05 7.817637e-05 8.093851e-05 7.006828e-05 7.217532e-05 6.380289e-05 6.482839e-05 5.897122e-05 5.858552e-05 5.517321e-05 5.315171e-05 5.203910e-05 4.826362e-05 4.925171e-05 4.370516e-05 4.656903e-05 3.932394e-05 4.384463e-05 3.504775e-05 4.104224e-05 3.089902e-05 3.824148e-05 2.700564e-05 3.563470e-05 2.360775e-05 3.351937e-05 2.106317e-05 3.229518e-05 1.985668e-05 3.247600e-05 2.061862e-05 3.472054e-05 2.414994e-05 3.986934e-05 3.143313e-05 4.895207e-05 4.358917e-05 6.311535e-05 6.173822e-05 8.343499e-05 8.675218e-05 1.106268e-04 1.189465e-04 1.447344e-04 1.578132e-04 1.849134e-04 2.019099e-04 2.294144e-04 2.489768e-04 2.758046e-04 2.962738e-04 3.213774e-04 3.410529e-04 3.636432e-04 3.810412e-04 4.007669e-04 4.148112e-04 4.318463e-04 4.419565e-04 4.569744e-04 4.630488e-04 4.770908e-04 4.794060e-04 4.936764e-04 4.927443e-04 5.083756e-04 5.048005e-04 5.226381e-04 5.170079e-04 5.374522e-04 5.302814e-04 5.532102e-04 5.449283e-04 5.697005e-04 5.606657e-04 5.861938e-04 5.767063e-04 6.015798e-04 5.918804e-04 6.145240e-04 6.047784e-04 6.236320e-04 6.139145e-04 6.276211e-04 6.179131e-04 6.254952e-04 6.157091e-04 6.167128e-04 6.067395e-04 6.013178e-04 5.910791e-04 5.799865e-04 5.694639e-04 5.539399e-04 5.431571e-04 5.247011e-04 5.136681e-04 4.937538e-04 4.824130e-04 4.622203e-04 4.504434e-04 4.306885e-04 4.183452e-04 3.992530e-04 3.863244e-04 3.677303e-04 3.544085e-04 3.359375e-04 3.226570e-04 3.039116e-04 2.912920e-04 2.719942e-04 2.607166e-04 2.407812e-04 2.314445e-04 2.109882e-04 2.039944e-04 1.833016e-04 1.787958e-04 1.582646e-04 1.561346e-04 1.362203e-04 1.361381e-04 1.173039e-04 1.187904e-04 1.014684e-04 1.039602e-04 
1.015096e-04 1.060187e-04 9.054120e-05 9.457570e-05 8.169768e-05 8.467881e-05 7.454467e-05 7.599807e-05 6.864981e-05 6.821793e-05 6.360011e-05 6.105080e-05 5.902459e-05 5.425493e-05 5.462200e-05 4.765522e-05 5.019042e-05 4.116449e-05 4.565309e-05 3.480152e-05 4.107348e-05 2.870212e-05 3.665432e-05 2.312079e-05 3.272013e-05 1.842335e-05 2.969041e-05 1.507585e-05 2.805776e-05 1.364026e-05 2.838903e-05 1.478924e-05 3.136150e-05 1.934393e-05 3.782514e-05 2.831390e-05 4.884753e-05 4.288672e-05 6.567089e-05 6.430149e-05 8.952038e-05 9.357549e-05 1.212667e-04 1.311323e-04 1.610372e-04 1.764605e-04 2.079308e-04 2.279558e-04 2.599752e-04 2.830429e-04 3.143787e-04 3.385695e-04 3.680168e-04 3.913656e-04 4.180115e-04 4.388096e-04 4.622433e-04 4.792538e-04 4.996660e-04 5.122154e-04 5.303636e-04 5.383094e-04 5.553606e-04 5.589664e-04 5.762569e-04 5.760242e-04 5.947890e-04 5.912996e-04 6.124285e-04 6.062364e-04 6.301042e-04 6.216956e-04 6.480893e-04 6.378998e-04 6.660419e-04 6.544989e-04 6.831470e-04 6.706988e-04 6.982953e-04 6.854056e-04 7.102567e-04 6.973623e-04 7.178303e-04 7.052810e-04 7.199733e-04 7.079774e-04 7.159145e-04 7.045130e-04 7.052577e-04 6.943389e-04 6.880679e-04 6.774142e-04 6.649080e-04 6.542459e-04 6.367733e-04 6.257995e-04 6.048945e-04 5.932778e-04 5.704547e-04 5.578505e-04 5.343406e-04 5.204603e-04 4.970506e-04 4.817869e-04 4.587999e-04 4.423560e-04 4.197501e-04 4.026987e-04 3.802313e-04 3.634572e-04 3.408478e-04 3.253826e-04 3.024321e-04 2.892405e-04 2.658939e-04 2.556861e-04 2.320459e-04 2.251691e-04 2.014794e-04 1.979017e-04 1.745155e-04 1.738845e-04 1.512249e-04 1.529619e-04 1.314816e-04 1.348822e-04 1.150248e-04 1.193429e-04 
1.005178e-04 1.047669e-04 8.549519e-05 8.955615e-05 7.356598e-05 7.674243e-05 6.419350e-05 6.589984e-05 5.683203e-05 5.661087e-05 5.094891e-05 4.848315e-05 4.604923e-05 4.116859e-05 4.170630e-05 3.438649e-05 3.759727e-05 2.794976e-05 3.353842e-05 2.179107e-05 2.951133e-05 1.598331e-05 2.567043e-05 1.074866e-05 2.232778e-05 6.453104e-06 1.991973e-05 3.589684e-06 1.897195e-05 2.763013e-06 2.008810e-05 4.695911e-06 2.398613e-05 1.027370e-05 3.158234e-05 2.061068e-05 4.407524e-05 3.707322e-05 6.293280e-05 6.116292e-05 8.968737e-05 9.419979e-05 1.255235e-04 1.368543e-04 1.707745e-04 1.886955e-04 2.245345e-04 2.479630e-04 2.845783e-04 3.116965e-04 3.476594e-04 3.762127e-04 4.101055e-04 4.377878e-04 4.685281e-04 4.933437e-04 5.204413e-04 5.409566e-04 5.646351e-04 5.800760e-04 6.012348e-04 6.114373e-04 6.314674e-04 6.367226e-04 6.572238e-04 6.580787e-04 6.805403e-04 6.776160e-04 7.031268e-04 6.970017e-04 7.260433e-04 7.172198e-04 7.495710e-04 7.385082e-04 7.732581e-04 7.604267e-04 7.960728e-04 7.819854e-04 8.165914e-04 8.017826e-04 8.331801e-04 8.181448e-04 8.441689e-04 8.292879e-04 8.480329e-04 8.335209e-04 8.435926e-04 8.294969e-04 8.302323e-04 8.164885e-04 8.081044e-04 7.946240e-04 7.782424e-04 7.649726e-04 7.424661e-04 7.293668e-04 7.030106e-04 6.899530e-04 6.619543e-04 6.486254e-04 6.206787e-04 6.065965e-04 5.796177e-04 5.642962e-04 5.384103e-04 5.216104e-04 4.963639e-04 4.782996e-04 4.529856e-04 4.343748e-04 4.083433e-04 3.902743e-04 3.631381e-04 3.468104e-04 3.185200e-04 3.049682e-04 2.757831e-04 2.656763e-04 2.360826e-04 2.296445e-04 2.002589e-04 1.972955e-04 1.687825e-04 1.687778e-04 1.417857e-04 1.440195e-04 1.191365e-04 1.227921e-04 
1.139345e-04 1.202173e-04 9.777780e-05 1.034379e-04 8.456425e-05 8.883304e-05 7.373305e-05 7.597287e-05 6.472263e-05 6.443975e-05 5.698636e-05 5.384567e-05 5.002035e-05 4.385902e-05 4.340444e-05 3.423894e-05 3.685221e-05 2.487267e-05 3.025992e-05 1.580872e-05 2.373929e-05 7.276242e-06 1.761968e-05 -3.169017e-07 1.241322e-05 -6.410945e-06 8.749715e-06 -1.034032e-05 7.304356e-06 -1.138068e-05 8.755496e-06 -8.763527e-06 1.381398e-05 -1.624865e-06 2.334058e-05 1.110877e-05 3.850187e-05 3.081733e-05 6.083473e-05 5.912581e-05 9.206834e-05 9.757330e-05 1.336515e-04 1.470482e-04 1.861186e-04 2.072017e-04 2.485691e-04 2.761220e-04 3.185271e-04 3.504579e-04 3.922789e-04 4.259801e-04 4.655862e-04 4.983971e-04 5.345354e-04 5.641672e-04 5.962644e-04 6.210827e-04 6.493835e-04 6.685031e-04 6.940180e-04 7.072237e-04 7.315085e-04 7.390601e-04 7.638837e-04 7.662796e-04 7.932547e-04 7.910309e-04 8.212856e-04 8.149056e-04 8.488613e-04 8.387179e-04 8.760039e-04 8.625062e-04 9.020037e-04 8.856847e-04 9.256655e-04 9.072431e-04 9.455642e-04 9.259181e-04 9.602528e-04 9.403222e-04 9.684141e-04 9.490525e-04 9.689726e-04 9.508082e-04 9.611907e-04 9.445374e-04 9.447720e-04 9.296242e-04 9.199816e-04 9.060847e-04 8.877339e-04 8.746714e-04 8.495275e-04 8.367551e-04 8.071299e-04 7.939526e-04 7.620817e-04 7.476655e-04 7.152734e-04 6.987933e-04 6.668544e-04 6.477818e-04 6.165368e-04 5.949416e-04 5.641142e-04 5.408107e-04 5.099060e-04 4.863435e-04 4.549082e-04 4.328391e-04 4.006192e-04 3.816803e-04 3.486732e-04 3.340402e-04 3.004745e-04 2.906890e-04 2.569756e-04 2.519548e-04 2.186311e-04 2.178023e-04 1.854784e-04 1.879607e-04 1.572685e-04 1.620396e-04 1.335865e-04 1.396054e-04 
1.095171e-04 1.156346e-04 8.804936e-05 9.390819e-05 7.076363e-05 7.542607e-05 5.693147e-05 5.960351e-05 4.582567e-05 4.587425e-05 3.673722e-05 3.370863e-05 2.900093e-05 2.263897e-05 2.203687e-05 1.229516e-05 1.540805e-05 2.448839e-06 8.884874e-06 -6.940899e-06 2.497203e-06 -1.569303e-05 -3.448142e-06 -2.339509e-05 -8.399293e-06 -2.942880e-05 -1.163904e-05 -3.303140e-05 -1.238938e-05 -3.337478e-05 -9.893739e-06 -2.961604e-05 -3.411547e-06 -2.085678e-05 7.921577e-06 -5.987504e-06 2.532818e-05 1.649532e-05 5.054890e-05 4.849811e-05 8.569765e-05 9.197627e-05 1.326996e-04 1.482275e-04 1.924649e-04 2.171068e-04 2.641746e-04 2.965575e-04 3.450505e-04 3.827255e-04 4.307558e-04 4.706469e-04 5.162800e-04 5.552569e-04 5.969909e-04 6.323824e-04 6.695192e-04 6.994408e-04 7.322560e-04 7.557025e-04 7.853860e-04 8.021192e-04 8.305182e-04 8.408227e-04 8.700534e-04 8.744562e-04 9.064702e-04 9.055110e-04 9.417071e-04 9.358254e-04 9.767804e-04 9.663409e-04 1.011697e-03 9.971127e-04 1.045605e-03 1.027476e-03 1.077065e-03 1.056234e-03 1.104294e-03 1.081799e-03 1.125362e-03 1.102282e-03 1.138344e-03 1.115622e-03 1.141487e-03 1.119773e-03 1.133417e-03 1.113017e-03 1.113423e-03 1.094369e-03 1.081795e-03 1.064005e-03 1.040093e-03 1.023501e-03 9.910870e-04 9.755999e-04 9.381661e-04 9.234442e-04 8.843215e-04 8.695739e-04 8.311876e-04 8.152153e-04 7.786685e-04 7.602405e-04 7.253655e-04 7.037635e-04 6.695560e-04 6.450002e-04 6.102096e-04 5.839348e-04 5.475704e-04 5.215176e-04 4.831238e-04 4.594038e-04 4.190930e-04 3.994599e-04 3.577884e-04 3.433053e-04 3.010989e-04 2.920534e-04 2.502506e-04 2.462646e-04 2.058048e-04 2.060386e-04 1.677912e-04 1.711536e-04 1.358778e-04 1.411929e-04 
1.232682e-04 1.319015e-04 9.983623e-05 1.076452e-04 8.039902e-05 8.638188e-05 6.422805e-05 6.753492e-05 5.058877e-05 5.053364e-05 3.874967e-05 3.483619e-05 2.801451e-05 1.997008e-05 1.778218e-05 5.588875e-06 7.631364e-06 -8.461190e-06 -2.586679e-06 -2.207844e-05 -1.267635e-05 -3.486625e-05 -2.207987e-05 -4.613458e-05 -2.993312e-05 -5.495324e-05 -3.519206e-05 -6.025763e-05 -3.680169e-05 -6.098844e-05 -3.384884e-05 -5.620603e-05 -2.560525e-05 -4.507805e-05 -1.136752e-05 -2.666826e-05 9.895372e-06 3.918757e-07 3.987761e-05 3.806898e-05 8.090856e-05 8.861698e-05 1.353383e-04 1.537340e-04 2.044911e-04 2.335288e-04 2.876916e-04 3.258473e-04 3.818952e-04 4.263463e-04 4.821371e-04 5.293123e-04 5.826103e-04 6.288882e-04 6.779438e-04 7.202633e-04 7.642550e-04 8.004821e-04 8.397090e-04 8.687125e-04 9.045140e-04 9.259994e-04 9.604444e-04 9.746439e-04 1.010073e-03 1.017409e-03 1.055932e-03 1.056758e-03 1.099809e-03 1.094316e-03 1.142363e-03 1.130663e-03 1.183113e-03 1.165462e-03 1.220742e-03 1.197768e-03 1.253504e-03 1.226327e-03 1.279594e-03 1.249769e-03 1.297374e-03 1.266686e-03 1.305504e-03 1.275675e-03 1.303005e-03 1.275403e-03 1.289301e-03 1.264740e-03 1.264305e-03 1.243003e-03 1.228605e-03 1.210311e-03 1.183682e-03 1.167842e-03 1.131892e-03 1.117661e-03 1.075910e-03 1.062026e-03 1.017787e-03 1.002515e-03 9.581657e-04 9.395997e-04 8.962424e-04 8.729466e-04 8.305432e-04 8.022375e-04 7.600638e-04 7.279533e-04 6.851310e-04 6.516784e-04 6.075728e-04 5.758128e-04 5.302056e-04 5.029205e-04 4.559962e-04 4.350889e-04 3.873336e-04 3.735772e-04 3.256729e-04 3.188123e-04 2.715559e-04 2.706109e-04 2.248512e-04 2.284554e-04 1.850377e-04 1.917083e-04 1.514231e-04 1.597273e-04 