# vtk DataFile Version 2.0
Comment goes here
ASCII

DATASET STRUCTURED_POINTS
FIELD FieldData 1
TIME 1 1 double
0.10000000
DIMENSIONS    128   128   1

ORIGIN    0.000   0.000   0.000
SPACING   0.039062 0.039062   1.000

POINT_DATA   16384
SCALARS Omega double
LOOKUP_TABLE default

4.007860e-14 2.644707e-14 1.037871e-14 2.300626e-14 3.813056e-14 3.970178e-14 3.809891e-14 3.964433e-14 3.378191e-14 2.331778e-14 1.862336e-14 4.886346e-15 -8.405078e-15 -3.150823e-16 -2.370807e-15 -1.922218e-14 -3.308628e-14 -4.808928e-14 -4.890121e-14 -4.142570e-14 -4.370903e-14 -3.051931e-14 -2.980929e-14 -4.730810e-14 -1.510803e-14 -2.287123e-14 -4.457565e-14 -3.308070e-14 2.401597e-15 -3.171949e-15 -1.657537e-14 -2.700725e-14 -3.615756e-14 -2.700220e-14 -1.686827e-14 -2.570760e-14 -2.322190e-14 9.121030e-16 1.023003e-14 2.358190e-14 2.936689e-14 3.960860e-14 6.243932e-14 4.722971e-14 3.794648e-14 3.907824e-14 6.265059e-14 2.279107e-14 1.348107e-14 -1.112387e-14 -2.072487e-14 2.436958e-14 4.877837e-14 3.954349e-14 5.014031e-14 2.027286e-14 5.679379e-14 -1.426089e-14 3.996174e-14 1.838153e-14 -6.941404e-15 -4.020743e-14 -5.429097e-14 1.572379e-14 -5.452019e-14 -6.866834e-14 -6.323761e-14 -5.583822e-14 1.035590e-14 1.570734e-14 -1.126378e-14 7.798979e-15 6.906134e-15 -6.890062e-14 -2.986765e-15 3.080508e-14 7.936439e-14 6.406926e-15 5.281142e-15 -1.736043e-14 3.287367e-16 -7.088525e-15 -4.294859e-15 3.724474e-14 5.829641e-14 3.418712e-14 3.811211e-14 7.713216e-14 5.526704e-14 3.655508e-14 1.747810e-14 4.135891e-14 4.403591e-14 -7.753159e-14 -4.650311e-14 7.655881e-14 1.062258e-14 -2.587642e-14 -1.443926e-13 -8.504508e-14 -3.044911e-14 -5.715028e-14 -1.149530e-13 -4.578274e-14 -1.044587e-13 -2.635689e-14 -1.469914e-14 -6.079600e-14 -5.684138e-14 -3.901013e-14 -4.054418e-14 -5.846754e-14 5.439522e-15 -5.439966e-14 -7.932916e-16 -1.967846e-14 -2.213307e-14 -1.131774e-14 -1.826019e-14 -3.037383e-15 -1.535320e-14 -4.288502e-15 -2.692185e-15 4.460814e-14 5.238993e-14 6.553579e-14 3.091916e-14 6.082310e-14 
2.074013e-06 2.068680e-06 1.764614e-06 1.882941e-06 1.669086e-06 1.878295e-06 1.759753e-06 2.026086e-06 2.002611e-06 2.291716e-06 2.358754e-06 2.636687e-06 2.786132e-06 3.021109e-06 3.241729e-06 3.406542e-06 3.684175e-06 3.759054e-06 4.076803e-06 4.052366e-06 4.391066e-06 4.270978e-06 4.610229e-06 4.413167e-06 4.733131e-06 4.493758e-06 4.777727e-06 4.546412e-06 4.783876e-06 4.624962e-06 4.814570e-06 4.802982e-06 4.954456e-06 5.170425e-06 5.304442e-06 5.826216e-06 5.971475e-06 6.866199e-06 7.053623e-06 8.367169e-06 8.622184e-06 1.036943e-05 1.070426e-05 1.286188e-05 1.327032e-05 1.577419e-05 1.623107e-05 1.897959e-05 1.944587e-05 2.230940e-05 2.274213e-05 2.557694e-05 2.594180e-05 2.860592e-05 2.888878e-05 3.125686e-05 3.147102e-05 3.344566e-05 3.363246e-05 3.515079e-05 3.537289e-05 3.640838e-05 3.673685e-05 3.729767e-05 3.779549e-05 3.792081e-05 3.862605e-05 3.838165e-05 3.929367e-05 3.876758e-05 3.983903e-05 3.913704e-05 4.027332e-05 3.951355e-05 4.058036e-05 3.988612e-05 4.072430e-05 4.021438e-05 4.066037e-05 4.043708e-05 4.034623e-05 4.048222e-05 3.975164e-05 4.027771e-05 3.886505e-05 3.976154e-05 3.769627e-05 3.889057e-05 3.627502e-05 3.764702e-05 3.464597e-05 3.604160e-05 3.286126e-05 3.411260e-05 3.097197e-05 3.192079e-05 2.902053e-05 2.954088e-05 2.703574e-05 2.705149e-05 2.503168e-05 2.452567e-05 2.301080e-05 2.202409e-05 2.097011e-05 1.959204e-05 1.890847e-05 1.726004e-05 1.683276e-05 1.504721e-05 1.476137e-05 1.296592e-05 1.272420e-05 1.102610e-05 1.075982e-05 9.238413e-06 8.910822e-06 7.615653e-06 7.218865e-06 6.172507e-06 5.720362e-06 4.924053e-06 4.443487e-06 3.883561e-06 3.406540e-06 3.060148e-06 2.617446e-06 2.456749e-06 
3.455695e-06 3.411346e-06 2.716336e-06 2.927585e-06 2.418789e-06 2.822654e-06 2.512720e-06 3.043652e-06 2.934701e-06 3.525278e-06 3.610980e-06 4.193846e-06 4.460712e-06 4.971994e-06 5.399798e-06 5.783869e-06 6.345478e-06 6.560632e-06 7.221831e-06 7.246238e-06 7.966285e-06 7.803481e-06 8.537120e-06 8.220282e-06 8.921712e-06 8.516056e-06 9.144867e-06 8.747619e-06 9.276012e-06 9.013441e-06 9.433272e-06 9.454270e-06 9.781820e-06 1.024750e-05 1.052369e-05 1.159267e-05 1.187711e-05 1.368687e-05 1.404553e-05 1.669143e-05 1.718013e-05 2.069526e-05 2.134307e-05 2.568318e-05 2.648095e-05 3.151891e-05 3.241758e-05 3.794999e-05 3.887081e-05 4.463713e-05 4.549206e-05 5.120297e-05 5.192049e-05 5.729024e-05 5.783938e-05 6.261591e-05 6.302147e-05 6.700934e-05 6.735363e-05 7.042717e-05 7.083664e-05 7.294357e-05 7.356287e-05 7.472065e-05 7.567910e-05 7.596726e-05 7.734453e-05 7.689568e-05 7.869345e-05 7.768438e-05 7.980956e-05 7.845213e-05 8.071533e-05 7.924572e-05 8.137603e-05 8.004044e-05 8.171534e-05 8.075076e-05 8.163759e-05 8.124789e-05 8.105134e-05 8.138106e-05 7.989004e-05 8.099987e-05 7.812626e-05 7.997578e-05 7.577782e-05 7.822053e-05 7.290541e-05 7.569958e-05 6.960244e-05 7.243841e-05 6.597945e-05 6.852009e-05 6.214599e-05 6.407401e-05 5.819412e-05 5.925755e-05 5.418709e-05 5.423442e-05 5.015623e-05 4.915451e-05 4.610652e-05 4.413949e-05 4.202891e-05 3.927664e-05 3.791551e-05 3.462075e-05 3.377295e-05 3.020199e-05 2.963040e-05 2.603662e-05 2.554088e-05 2.213716e-05 2.157649e-05 1.851989e-05 1.781982e-05 1.520835e-05 1.435427e-05 1.223295e-05 1.125522e-05 9.627563e-06 8.583547e-06 7.424328e-06 6.381640e-06 5.648065e-06 4.671705e-06 4.311406e-06 
5.852773e-06 5.824777e-06 4.887218e-06 5.232014e-06 4.572716e-06 5.191991e-06 4.825302e-06 5.617894e-06 5.542295e-06 6.404963e-06 6.606427e-06 7.436672e-06 7.891011e-06 8.592324e-06 9.266396e-06 9.755709e-06 1.060782e-05 1.082440e-05 1.180462e-05 1.171927e-05 1.277053e-05 1.239390e-05 1.345474e-05 1.284342e-05 1.385326e-05 1.311268e-05 1.401946e-05 1.330298e-05 1.407268e-05 1.357624e-05 1.420228e-05 1.415408e-05 1.466382e-05 1.530849e-05 1.576349e-05 1.734017e-05 1.782769e-05 2.054246e-05 2.115780e-05 2.515266e-05 2.597504e-05 3.129799e-05 3.236620e-05 3.894883e-05 4.024445e-05 4.789355e-05 4.933873e-05 5.774630e-05 5.921941e-05 6.799129e-05 6.935800e-05 7.805655e-05 7.920893e-05 8.740143e-05 8.829424e-05 9.559805e-05 9.627161e-05 1.023883e-04 1.029706e-04 1.077057e-04 1.083916e-04 1.116596e-04 1.126711e-04 1.144906e-04 1.160253e-04 1.165080e-04 1.186868e-04 1.180250e-04 1.208489e-04 1.193039e-04 1.226287e-04 1.205179e-04 1.240523e-04 1.217345e-04 1.250629e-04 1.229171e-04 1.255453e-04 1.239412e-04 1.253596e-04 1.246201e-04 1.243765e-04 1.247353e-04 1.225060e-04 1.240682e-04 1.197177e-04 1.224305e-04 1.160477e-04 1.196911e-04 1.115938e-04 1.157962e-04 1.064993e-04 1.107801e-04 1.009299e-04 1.047628e-04 9.504697e-05 9.793509e-05 8.898371e-05 9.053220e-05 8.282942e-05 8.280149e-05 7.662624e-05 7.497223e-05 7.037911e-05 6.723360e-05 6.407571e-05 5.972497e-05 5.771008e-05 5.253829e-05 5.130244e-05 4.572928e-05 4.490993e-05 3.933240e-05 3.862620e-05 3.337494e-05 3.257157e-05 2.788698e-05 2.687803e-05 2.290576e-05 2.167331e-05 1.847485e-05 1.706770e-05 1.463935e-05 1.314520e-05 1.143907e-05 9.959127e-06 8.901317e-06 7.531199e-06 7.034695e-06 
6.181003e-06 6.062753e-06 4.615168e-06 5.011629e-06 3.951422e-06 4.737094e-06 4.087818e-06 5.132203e-06 4.896809e-06 6.065035e-06 6.230530e-06 7.386846e-06 7.927014e-06 8.941615e-06 9.817671e-06 1.057655e-05 1.173632e-05 1.215322e-05 1.353012e-05 1.355910e-05 1.507247e-05 1.471956e-05 1.627804e-05 1.561015e-05 1.711922e-05 1.626907e-05 1.764310e-05 1.680901e-05 1.798638e-05 1.742615e-05 1.838471e-05 1.840267e-05 1.917088e-05 2.009704e-05 2.075588e-05 2.291648e-05 2.358801e-05 2.726772e-05 2.808981e-05 3.348870e-05 3.457982e-05 4.177139e-05 4.319467e-05 5.209400e-05 5.383184e-05 6.418323e-05 6.613286e-05 7.752305e-05 7.951751e-05 9.141484e-05 9.326638e-05 1.050792e-04 1.066342e-04 1.177772e-04 1.189674e-04 1.289233e-04 1.297988e-04 1.381643e-04 1.388976e-04 1.454095e-04 1.462675e-04 1.508095e-04 1.520994e-04 1.546946e-04 1.566927e-04 1.574884e-04 1.603682e-04 1.596196e-04 1.633906e-04 1.614451e-04 1.659175e-04 1.631988e-04 1.679788e-04 1.649680e-04 1.694879e-04 1.666955e-04 1.702763e-04 1.682027e-04 1.701404e-04 1.692252e-04 1.688914e-04 1.694553e-04 1.663967e-04 1.685862e-04 1.626090e-04 1.663558e-04 1.575770e-04 1.625837e-04 1.514395e-04 1.572003e-04 1.444031e-04 1.502612e-04 1.367088e-04 1.419444e-04 1.285936e-04 1.325279e-04 1.202552e-04 1.223503e-04 1.118276e-04 1.117643e-04 1.033746e-04 1.010914e-04 9.490170e-05 9.059007e-05 8.638421e-05 8.044171e-05 7.780061e-05 7.075569e-05 6.916212e-05 6.158732e-05 6.052966e-05 5.296192e-05 5.201553e-05 4.489757e-05 4.377183e-05 3.742141e-05 3.597094e-05 3.057717e-05 2.878444e-05 2.442422e-05 2.236494e-05 1.903015e-05 1.683329e-05 1.445974e-05 1.227157e-05 1.076324e-05 8.720665e-06 7.966260e-06 
8.488288e-06 8.400575e-06 6.752834e-06 7.292037e-06 6.133659e-06 7.136351e-06 6.487668e-06 7.785859e-06 7.641526e-06 9.062623e-06 9.398005e-06 1.076887e-05 1.154419e-05 1.269992e-05 1.386202e-05 1.465908e-05 1.614147e-05 1.647359e-05 1.819599e-05 1.801089e-05 1.987995e-05 1.919424e-05 2.110713e-05 2.001714e-05 2.186943e-05 2.055612e-05 2.225455e-05 2.098145e-05 2.246061e-05 2.156424e-05 2.280416e-05 2.267648e-05 2.371603e-05 2.477792e-05 2.571776e-05 2.838252e-05 2.937211e-05 3.399893e-05 3.520613e-05 4.204679e-05 4.361445e-05 5.276078e-05 5.476156e-05 6.610515e-05 6.850935e-05 8.172562e-05 8.439555e-05 9.896016e-05 1.016772e-04 1.169154e-04 1.194361e-04 1.345966e-04 1.367231e-04 1.510619e-04 1.527084e-04 1.655655e-04 1.668001e-04 1.776574e-04 1.787067e-04 1.872201e-04 1.884331e-04 1.944402e-04 1.962169e-04 1.997279e-04 2.024279e-04 2.036083e-04 2.074565e-04 2.066089e-04 2.116175e-04 2.091653e-04 2.150876e-04 2.115590e-04 2.178839e-04 2.138910e-04 2.198821e-04 2.160875e-04 2.208636e-04 2.179294e-04 2.205764e-04 2.190962e-04 2.187962e-04 2.192157e-04 2.153772e-04 2.179165e-04 2.102831e-04 2.148774e-04 2.035979e-04 2.098739e-04 1.955143e-04 2.028145e-04 1.863041e-04 1.937622e-04 1.762759e-04 1.829350e-04 1.657268e-04 1.706807e-04 1.548996e-04 1.574301e-04 1.439533e-04 1.436365e-04 1.329576e-04 1.297179e-04 1.219115e-04 1.160146e-04 1.107822e-04 1.027705e-04 9.955022e-05 9.013944e-05 8.824792e-05 7.820771e-05 7.697804e-05 6.702325e-05 6.591108e-05 5.662270e-05 5.526453e-05 4.704968e-05 4.527310e-05 3.836251e-05 3.615912e-05 3.063213e-05 2.810944e-05 2.393327e-05 2.126153e-05 1.833213e-05 1.569810e-05 1.387385e-05 1.144763e-05 1.057186e-05 
7.379625e-06 7.125627e-06 4.808808e-06 5.334807e-06 3.636678e-06 4.756285e-06 3.706999e-06 5.226438e-06 4.826740e-06 6.543816e-06 6.773301e-06 8.481667e-06 9.303198e-06 1.080263e-05 1.216277e-05 1.327488e-05 1.510143e-05 1.568920e-05 1.788783e-05 1.787640e-05 2.032912e-05 1.972488e-05 2.229325e-05 2.119836e-05 2.373363e-05 2.235355e-05 2.471482e-05 2.335747e-05 2.543631e-05 2.450208e-05 2.624916e-05 2.621108e-05 2.765751e-05 2.903015e-05 3.029439e-05 3.358978e-05 3.486247e-05 4.053256e-05 4.203672e-05 5.040609e-05 5.233871e-05 6.353719e-05 6.600746e-05 7.991750e-05 8.290180e-05 9.913662e-05 1.024685e-04 1.203916e-04 1.237951e-04 1.425817e-04 1.457433e-04 1.644724e-04 1.671322e-04 1.848910e-04 1.869293e-04 2.029083e-04 2.044002e-04 2.179635e-04 2.191875e-04 2.299107e-04 2.313042e-04 2.389826e-04 2.410530e-04 2.456895e-04 2.488988e-04 2.506825e-04 2.553280e-04 2.546130e-04 2.607270e-04 2.580153e-04 2.653043e-04 2.612289e-04 2.690639e-04 2.643665e-04 2.718298e-04 2.673222e-04 2.733063e-04 2.698087e-04 2.731563e-04 2.714127e-04 2.710809e-04 2.716581e-04 2.668841e-04 2.700711e-04 2.605148e-04 2.662454e-04 2.520818e-04 2.598999e-04 2.418393e-04 2.509274e-04 2.301497e-04 2.394224e-04 2.174275e-04 2.256824e-04 2.040760e-04 2.101747e-04 1.904282e-04 1.934726e-04 1.767054e-04 1.761736e-04 1.630050e-04 1.588190e-04 1.493229e-04 1.418362e-04 1.356025e-04 1.255147e-04 1.217954e-04 1.100162e-04 1.079131e-04 9.540863e-05 9.405496e-05 8.171014e-05 8.040770e-05 6.892901e-05 6.722163e-05 5.709185e-05 5.477487e-05 4.625582e-05 4.333710e-05 3.650644e-05 3.314090e-05 2.794479e-05 2.436385e-05 2.066920e-05 1.712061e-05 1.475631e-05 1.146223e-05 1.024502e-05 
9.100765e-06 8.887717e-06 6.400154e-06 7.075016e-06 5.326683e-06 6.662853e-06 5.673330e-06 7.437766e-06 7.192936e-06 9.143194e-06 9.605801e-06 1.149434e-05 1.261021e-05 1.419689e-05 1.589683e-05 1.696889e-05 1.916730e-05 1.956435e-05 2.215653e-05 2.179705e-05 2.465767e-05 2.356259e-05 2.654811e-05 2.485745e-05 2.781525e-05 2.579487e-05 2.858050e-05 2.661765e-05 2.911989e-05 2.770790e-05 2.987755e-05 2.959008e-05 3.146494e-05 3.291890e-05 3.463416e-05 3.843921e-05 4.021282e-05 4.690575e-05 4.899406e-05 5.896084e-05 6.159029e-05 7.498644e-05 7.827916e-05 9.496645e-05 9.888485e-05 1.184040e-04 1.227377e-04 1.443308e-04 1.487373e-04 1.714207e-04 1.755129e-04 1.981875e-04 2.016462e-04 2.232208e-04 2.259002e-04 2.454044e-04 2.473999e-04 2.640648e-04 2.657223e-04 2.790240e-04 2.808851e-04 2.905526e-04 2.932450e-04 2.992459e-04 3.033411e-04 3.058588e-04 3.117254e-04 3.111390e-04 3.188198e-04 3.156904e-04 3.248273e-04 3.198873e-04 3.297097e-04 3.238426e-04 3.332247e-04 3.274240e-04 3.350051e-04 3.303003e-04 3.346556e-04 3.320043e-04 3.318449e-04 3.320010e-04 3.263785e-04 3.297566e-04 3.182401e-04 3.248071e-04 3.076017e-04 3.168240e-04 2.948011e-04 3.056725e-04 2.802931e-04 2.914516e-04 2.645826e-04 2.745043e-04 2.481504e-04 2.553853e-04 2.313836e-04 2.347877e-04 2.145289e-04 2.134429e-04 1.976812e-04 1.920192e-04 1.808156e-04 1.710488e-04 1.638550e-04 1.508976e-04 1.467493e-04 1.317791e-04 1.295404e-04 1.137962e-04 1.123916e-04 9.699315e-05 9.557729e-05 8.140112e-05 7.944285e-05 6.706714e-05 6.435107e-05 5.406508e-05 5.063349e-05 4.249096e-05 3.855623e-05 3.244832e-05 2.830328e-05 2.402903e-05 1.997402e-05 1.729458e-05 1.358928e-05 1.226079e-05 
6.125163e-06 5.635050e-06 2.270641e-06 2.833004e-06 3.640190e-07 1.735885e-06 1.904901e-07 2.118487e-06 1.489549e-06 3.704724e-06 3.963153e-06 6.184865e-06 7.286033e-06 9.235857e-06 1.111908e-05 1.254381e-05 1.512652e-05 1.582767e-05 1.899731e-05 1.886289e-05 2.247064e-05 2.150435e-05 2.536527e-05 2.370797e-05 2.761175e-05 2.555160e-05 2.928641e-05 2.725590e-05 3.064444e-05 2.920480e-05 3.214695e-05 3.196042e-05 3.447152e-05 3.626052e-05 3.849029e-05 4.297998e-05 4.519741e-05 5.303854e-05 5.557578e-05 6.725005e-05 7.041255e-05 8.613351e-05 9.010035e-05 1.097327e-04 1.144807e-04 1.375036e-04 1.427863e-04 1.683187e-04 1.737149e-04 2.006035e-04 2.056270e-04 2.325785e-04 2.368199e-04 2.625505e-04 2.658104e-04 2.891780e-04 2.915543e-04 3.116533e-04 3.135553e-04 3.297638e-04 3.318477e-04 3.438339e-04 3.468705e-04 3.545740e-04 3.592755e-04 3.628806e-04 3.697205e-04 3.696357e-04 3.786959e-04 3.755434e-04 3.864186e-04 3.810287e-04 3.928074e-04 3.862019e-04 3.975308e-04 3.908796e-04 4.001066e-04 3.946424e-04 4.000215e-04 3.969102e-04 3.968470e-04 3.970239e-04 3.903289e-04 3.943289e-04 3.804424e-04 3.882588e-04 3.674056e-04 3.784169e-04 3.516524e-04 3.646502e-04 3.337725e-04 3.471023e-04 3.144268e-04 3.262281e-04 2.942516e-04 3.027545e-04 2.737670e-04 2.775834e-04 2.533100e-04 2.516570e-04 2.330133e-04 2.258214e-04 2.128409e-04 2.007273e-04 1.926726e-04 1.767917e-04 1.724074e-04 1.542200e-04 1.520500e-04 1.330675e-04 1.317530e-04 1.133149e-04 1.118077e-04 9.493455e-05 9.259720e-05 7.793418e-05 7.453338e-05 6.237424e-05 5.799927e-05 4.836258e-05 4.330882e-05 3.603364e-05 3.068698e-05 2.552037e-05 2.026570e-05 1.692639e-05 1.208956e-05 1.030315e-05 
6.636745e-06 6.197105e-06 2.685139e-06 3.401122e-06 9.324450e-07 2.519773e-06 1.101004e-06 3.265798e-06 2.865746e-06 5.295494e-06 5.861297e-06 8.228015e-06 9.693642e-06 1.167050e-05 1.395803e-05 1.524829e-05 1.826360e-05 1.863816e-05 2.226365e-05 2.160151e-05 2.568939e-05 2.401357e-05 2.838391e-05 2.588585e-05 3.033387e-05 2.738127e-05 3.169749e-05 2.882466e-05 3.282914e-05 3.071217e-05 3.429918e-05 3.371968e-05 3.690226e-05 3.870031e-05 4.163742e-05 4.664961e-05 4.963639e-05 5.861256e-05 6.202133e-05 7.551952e-05 7.969702e-05 9.796932e-05 1.031176e-04 1.260142e-04 1.320973e-04 1.590209e-04 1.657364e-04 1.956697e-04 2.025058e-04 2.341133e-04 2.404805e-04 2.722635e-04 2.776659e-04 3.081349e-04 3.123313e-04 3.401576e-04 3.432664e-04 3.673877e-04 3.699038e-04 3.895739e-04 3.922912e-04 4.070834e-04 4.109350e-04 4.207195e-04 4.265694e-04 4.314862e-04 4.399117e-04 4.403554e-04 4.514634e-04 4.480839e-04 4.613956e-04 4.551065e-04 4.695346e-04 4.615095e-04 4.754349e-04 4.670663e-04 4.785071e-04 4.713085e-04 4.781640e-04 4.736088e-04 4.739501e-04 4.732620e-04 4.656371e-04 4.695642e-04 4.532727e-04 4.618951e-04 4.371833e-04 4.498041e-04 4.179327e-04 4.330986e-04 3.962460e-04 4.119183e-04 3.729112e-04 3.867695e-04 3.486706e-04 3.584949e-04 3.241159e-04 3.281650e-04 2.996112e-04 2.969130e-04 2.752712e-04 2.657625e-04 2.510121e-04 2.355028e-04 2.266661e-04 2.066436e-04 2.021186e-04 1.794458e-04 1.774180e-04 1.540006e-04 1.528176e-04 1.303180e-04 1.287479e-04 1.083999e-04 1.057371e-04 8.828226e-05 8.431871e-05 7.004755e-05 6.495422e-05 5.381419e-05 4.798777e-05 3.971289e-05 3.363236e-05 2.785869e-05 2.197837e-05 1.832528e-05 1.301237e-05 1.112515e-05 
1.302179e-06 4.256968e-07 -4.229093e-06 -3.774517e-06 -7.197575e-06 -5.702116e-06 -7.882750e-06 -5.652319e-06 -6.615149e-06 -3.984178e-06 -3.768870e-06 -1.098252e-06 2.491155e-07 2.590046e-06 5.014377e-06 6.680484e-06 1.010608e-05 1.081984e-05 1.513394e-05 1.473320e-05 1.977036e-05 1.825206e-05 2.378644e-05 2.133764e-05 2.709036e-05 2.410032e-05 2.976713e-05 2.681869e-05 3.211940e-05 2.996313e-05 3.470717e-05 3.422301e-05 3.837620e-05 4.052421e-05 4.425279e-05 5.000661e-05 5.367127e-05 6.392419e-05 6.800651e-05 8.344657e-05 8.841409e-05 1.093830e-04 1.155297e-04 1.419005e-04 1.492192e-04 1.803352e-04 1.884754e-04 2.231800e-04 2.315153e-04 2.682735e-04 2.760670e-04 3.131512e-04 3.197694e-04 3.554636e-04 3.605792e-04 3.933547e-04 3.970786e-04 4.257120e-04 4.286187e-04 4.522425e-04 4.552790e-04 4.733791e-04 4.776757e-04 4.900612e-04 4.966809e-04 5.034541e-04 5.131296e-04 5.146742e-04 5.275827e-04 5.245752e-04 5.401935e-04 5.336262e-04 5.506952e-04 5.418856e-04 5.584938e-04 5.490478e-04 5.628264e-04 5.545288e-04 5.629392e-04 5.575626e-04 5.582463e-04 5.572956e-04 5.484475e-04 5.528786e-04 5.335928e-04 5.435649e-04 5.140886e-04 5.288162e-04 4.906491e-04 5.084137e-04 4.642033e-04 4.825549e-04 4.357726e-04 4.519047e-04 4.063334e-04 4.175605e-04 3.766791e-04 3.809109e-04 3.473113e-04 3.434135e-04 3.183972e-04 3.063600e-04 2.898255e-04 2.707079e-04 2.613499e-04 2.370231e-04 2.327686e-04 2.055284e-04 2.040693e-04 1.762173e-04 1.754892e-04 1.489817e-04 1.474830e-04 1.237173e-04 1.206288e-04 1.003869e-04 9.551807e-05 7.904123e-05 7.266692e-05 5.980650e-05 5.246528e-05 4.285057e-05 3.516262e-05 2.834157e-05 2.087772e-05 1.640887e-05 9.618506e-06 7.112729e-06 
-1.913539e-07 -1.007309e-06 -5.784463e-06 -5.172803e-06 -8.535302e-06 -6.825852e-06 -8.800437e-06 -6.339571e-06 -6.987316e-06 -4.157319e-06 -3.550586e-06 -7.693890e-07 1.018837e-06 3.319150e-06 6.214790e-06 7.629229e-06 1.154784e-05 1.175442e-05 1.658633e-05 1.540763e-05 2.100191e-05 1.846007e-05 2.461295e-05 2.096539e-05 2.742028e-05 2.316731e-05 2.963349e-05 2.549673e-05 3.169220e-05 2.857162e-05 3.428914e-05 3.321054e-05 3.839480e-05 4.045381e-05 4.526302e-05 5.155885e-05 5.637445e-05 6.791607e-05 7.327127e-05 9.084408e-05 9.727148e-05 1.212768e-04 1.291167e-04 1.594258e-04 1.686663e-04 2.045428e-04 2.147625e-04 2.548930e-04 2.653380e-04 3.079722e-04 3.177534e-04 3.609201e-04 3.692720e-04 4.110129e-04 4.175368e-04 4.561052e-04 4.609283e-04 4.949153e-04 4.987219e-04 5.271050e-04 5.310273e-04 5.531591e-04 5.585518e-04 5.741224e-04 5.822639e-04 5.912706e-04 6.030486e-04 6.057955e-04 6.214373e-04 6.185697e-04 6.374697e-04 6.300268e-04 6.507039e-04 6.401571e-04 6.603536e-04 6.485831e-04 6.654935e-04 6.546681e-04 6.652725e-04 6.576162e-04 6.590897e-04 6.565559e-04 6.467107e-04 6.506141e-04 6.283183e-04 6.389998e-04 6.044975e-04 6.211107e-04 5.761627e-04 5.966628e-04 5.444424e-04 5.658261e-04 5.105405e-04 5.293192e-04 4.755852e-04 4.884001e-04 4.404733e-04 4.447097e-04 4.057404e-04 3.999954e-04 3.715098e-04 3.558093e-04 3.375693e-04 3.132942e-04 3.035693e-04 2.731206e-04 2.692668e-04 2.355609e-04 2.347123e-04 2.006372e-04 2.003093e-04 1.682744e-04 1.667412e-04 1.384108e-04 1.348173e-04 1.110537e-04 1.053092e-04 8.628778e-05 7.883335e-05 6.425131e-05 5.579757e-05 4.509872e-05 3.640440e-05 2.896158e-05 2.068620e-05 1.591573e-05 8.548888e-06 5.957970e-06 
-8.440110e-06 -9.922564e-06 -1.617633e-05 -1.604598e-05 -2.066213e-05 -1.923858e-05 -2.224979e-05 -1.987947e-05 -2.134291e-05 -1.842375e-05 -1.839214e-05 -1.537498e-05 -1.388575e-05 -1.125138e-05 -8.332906e-06 -6.546173e-06 -2.238229e-06 -1.684309e-06 3.932128e-06 3.019788e-06 9.790975e-06 7.397159e-06 1.507331e-05 1.144651e-05 1.967822e-05 1.534333e-05 2.370821e-05 1.944430e-05 2.751001e-05 2.430284e-05 3.172406e-05 3.070964e-05 3.734151e-05 3.975020e-05 4.574184e-05 5.283390e-05 5.865194e-05 7.161808e-05 7.795867e-05 9.776451e-05 1.053517e-04 1.325383e-04 1.418651e-04 1.763601e-04 1.874705e-04 2.284837e-04 2.408886e-04 2.869434e-04 2.997155e-04 3.488186e-04 3.608412e-04 4.107426e-04 4.210352e-04 4.695055e-04 4.775289e-04 5.225867e-04 5.284425e-04 5.684903e-04 5.729627e-04 6.068292e-04 6.112587e-04 6.381729e-04 6.441896e-04 6.637307e-04 6.728982e-04 6.849625e-04 6.984009e-04 7.032114e-04 7.212690e-04 7.194328e-04 7.414698e-04 7.340621e-04 7.583879e-04 7.470194e-04 7.709970e-04 7.578069e-04 7.781110e-04 7.656368e-04 7.786413e-04 7.695453e-04 7.718087e-04 7.684840e-04 7.572888e-04 7.614037e-04 7.352828e-04 7.473542e-04 7.065074e-04 7.256133e-04 6.721099e-04 6.958491e-04 6.335268e-04 6.582976e-04 5.923135e-04 6.138980e-04 5.499563e-04 5.642928e-04 5.076681e-04 5.116242e-04 4.662017e-04 4.581559e-04 4.257553e-04 4.058573e-04 3.860536e-04 3.561132e-04 3.466001e-04 3.096466e-04 3.070005e-04 2.666320e-04 2.672123e-04 2.269082e-04 2.276255e-04 1.901944e-04 1.889716e-04 1.562506e-04 1.521353e-04 1.249616e-04 1.179596e-04 9.635520e-05 8.711345e-05 7.057279e-05 6.003832e-05 4.781584e-05 3.695799e-05 2.828590e-05 1.792049e-05 1.213214e-05 2.845184e-06 -5.865247e-07 
-1.294797e-05 -1.436069e-05 -2.069902e-05 -2.041185e-05 -2.489057e-05 -2.325601e-05 -2.596694e-05 -2.336954e-05 -2.442189e-05 -2.131303e-05 -2.080299e-05 -1.770564e-05 -1.570443e-05 -1.318578e-05 -9.743345e-06 -8.356393e-06 -3.517903e-06 -3.718116e-06 2.450138e-06 3.999203e-07 7.779787e-06 3.895918e-06 1.228873e-05 6.921469e-06 1.603137e-05 9.869961e-06 1.931189e-05 1.333767e-05 2.268325e-05 1.808885e-05 2.695809e-05 2.506355e-05 3.325371e-05 3.544214e-05 4.305602e-05 5.072038e-05 5.822776e-05 7.268761e-05 8.085297e-05 1.031988e-04 1.128562e-04 1.437236e-04 1.554617e-04 1.948020e-04 2.086847e-04 2.556286e-04 2.710787e-04 3.239652e-04 3.398711e-04 3.964442e-04 4.114584e-04 4.691709e-04 4.821045e-04 5.384383e-04 5.486291e-04 6.013477e-04 6.089005e-04 6.561910e-04 6.620286e-04 7.025302e-04 7.082442e-04 7.410033e-04 7.485376e-04 7.729427e-04 7.841707e-04 7.999193e-04 8.161936e-04 8.233212e-04 8.450819e-04 8.440591e-04 8.705760e-04 8.624489e-04 8.917498e-04 8.782636e-04 9.072584e-04 8.908870e-04 9.156678e-04 8.994781e-04 9.157623e-04 9.030837e-04 9.067716e-04 9.006973e-04 8.885034e-04 8.912986e-04 8.613858e-04 8.739168e-04 8.264218e-04 8.477486e-04 7.850642e-04 8.123453e-04 7.390419e-04 7.678589e-04 6.901729e-04 7.152696e-04 6.401695e-04 6.564511e-04 5.904107e-04 5.939482e-04 5.417073e-04 5.304913e-04 4.941717e-04 4.684462e-04 4.473245e-04 4.094417e-04 4.004505e-04 3.542977e-04 3.530513e-04 3.032037e-04 3.051788e-04 2.560047e-04 2.575089e-04 2.124590e-04 2.111639e-04 1.723979e-04 1.674062e-04 1.357856e-04 1.273499e-04 1.027065e-04 9.178656e-05 7.331689e-05 6.114081e-05 4.778688e-05 3.552188e-05 2.624880e-05 1.481448e-05 8.758910e-06 -1.233268e-06 -4.726186e-06 
-2.470742e-05 -2.711708e-05 -3.534218e-05 -3.585710e-05 -4.196946e-05 -4.090857e-05 -4.502445e-05 -4.275651e-05 -4.498759e-05 -4.197212e-05 -4.238688e-05 -3.918072e-05 -3.779194e-05 -3.502034e-05 -3.179663e-05 -3.008928e-05 -2.498789e-05 -2.488520e-05 -1.790122e-05 -1.974379e-05 -1.096690e-05 -1.479086e-05 -4.455923e-06 -9.922444e-06 1.563546e-06 -4.819581e-06 7.253025e-06 1.014332e-06 1.302343e-05 8.230401e-06 1.957563e-05 1.767390e-05 2.799047e-05 3.050786e-05 3.985307e-05 4.836238e-05 5.731352e-05 7.336023e-05 8.292882e-05 1.078558e-04 1.191874e-04 1.538509e-04 1.677949e-04 2.122613e-04 2.289870e-04 2.823456e-04 3.011792e-04 3.615704e-04 3.811292e-04 4.459877e-04 4.645653e-04 5.309938e-04 5.470605e-04 6.122116e-04 6.248763e-04 6.862407e-04 6.955495e-04 7.510999e-04 7.581006e-04 8.062991e-04 8.128679e-04 8.525904e-04 8.610572e-04 8.915074e-04 9.041562e-04 9.248292e-04 9.433604e-04 9.540928e-04 9.791473e-04 9.802561e-04 1.011095e-03 1.003575e-03 1.037975e-03 1.023684e-03 1.058065e-03 1.039786e-03 1.069544e-03 1.050848e-03 1.070856e-03 1.055718e-03 1.060984e-03 1.053182e-03 1.039613e-03 1.042007e-03 1.007209e-03 1.021017e-03 9.649840e-04 9.892359e-04 9.147477e-04 9.461199e-04 8.586923e-04 8.918733e-04 7.991648e-04 8.277726e-04 7.384330e-04 7.562820e-04 6.783898e-04 6.807625e-04 6.202066e-04 6.047942e-04 5.641048e-04 5.314055e-04 5.094601e-04 4.625668e-04 4.552704e-04 3.991149e-04 4.007692e-04 3.410226e-04 3.458731e-04 2.878047e-04 2.912746e-04 2.388778e-04 2.382075e-04 1.937887e-04 1.880608e-04 1.523099e-04 1.420369e-04 1.144363e-04 1.009626e-04 8.032446e-05 6.526126e-05 5.020791e-05 3.502768e-05 2.431360e-05 1.013562e-05 2.794437e-06 -9.668826e-06 -1.431460e-05 
-3.348000e-05 -3.581825e-05 -4.406391e-05 -4.443227e-05 -5.030892e-05 -4.904463e-05 -5.275486e-05 -5.025896e-05 -5.198386e-05 -4.877675e-05 -4.863990e-05 -4.537364e-05 -4.342996e-05 -4.085439e-05 -3.709893e-05 -3.598020e-05 -3.037353e-05 -3.136982e-05 -2.387804e-05 -2.738994e-05 -1.803589e-05 -2.406435e-05 -1.298333e-05 -2.103867e-05 -8.526031e-06 -1.762607e-05 -4.157744e-06 -1.292517e-05 8.749416e-07 -5.949390e-06 7.523675e-06 4.332035e-06 1.698749e-05 1.911840e-05 3.088495e-05 4.002574e-05 5.143443e-05 6.925338e-05 8.140313e-05 1.093993e-04 1.236284e-04 1.628122e-04 1.801659e-04 2.306794e-04 2.514071e-04 3.122723e-04 3.355964e-04 4.047320e-04 4.289974e-04 5.035056e-04 5.266471e-04 6.032585e-04 6.234122e-04 6.989305e-04 7.149939e-04 7.866167e-04 7.986088e-04 8.640667e-04 8.732073e-04 9.307396e-04 9.392441e-04 9.874839e-04 9.981218e-04 1.035981e-03 1.051484e-03 1.078116e-03 1.100533e-03 1.115412e-03 1.145543e-03 1.148668e-03 1.185679e-03 1.177867e-03 1.219176e-03 1.202355e-03 1.243791e-03 1.221140e-03 1.257326e-03 1.233145e-03 1.258064e-03 1.237315e-03 1.245043e-03 1.232595e-03 1.218187e-03 1.217883e-03 1.178334e-03 1.192035e-03 1.127144e-03 1.153968e-03 1.066889e-03 1.102919e-03 1.000183e-03 1.038880e-03 9.297480e-04 9.631148e-04 8.581999e-04 8.784358e-04 7.877318e-04 7.888912e-04 7.196505e-04 6.988579e-04 6.540275e-04 6.119875e-04 5.898265e-04 5.305505e-04 5.255803e-04 4.554093e-04 4.602814e-04 3.864515e-04 3.939985e-04 3.231473e-04 3.279404e-04 2.649719e-04 2.640303e-04 2.116100e-04 2.042878e-04 1.629831e-04 1.503202e-04 1.191845e-04 1.030834e-04 8.038587e-05 6.289835e-05 4.675328e-05 2.961601e-05 1.838501e-05 2.816649e-06 -4.725851e-06 -1.803171e-05 -2.270858e-05 
-4.932896e-05 -5.314094e-05 -6.376571e-05 -6.539870e-05 -7.338805e-05 -7.311508e-05 -7.872675e-05 -7.691495e-05 -8.034456e-05 -7.751542e-05 -7.884950e-05 -7.569231e-05 -7.489516e-05 -7.223189e-05 -6.916345e-05 -6.786185e-05 -6.232544e-05 -6.316173e-05 -5.497931e-05 -5.846581e-05 -4.757199e-05 -5.378509e-05 -4.032187e-05 -4.878259e-05 -3.316928e-05 -4.282799e-05 -2.577774e-05 -3.512446e-05 -1.757985e-05 -2.484294e-05 -7.805254e-06 -1.114254e-05 4.614141e-06 7.033362e-06 2.131379e-05 3.135027e-05 4.480600e-05 6.439003e-05 7.849331e-05 1.094760e-04 1.260801e-04 1.698266e-04 1.904312e-04 2.473044e-04 2.723595e-04 3.413683e-04 3.699547e-04 4.487640e-04 4.787942e-04 5.640932e-04 5.929269e-04 6.809900e-04 7.062199e-04 7.934471e-04 8.136012e-04 8.968811e-04 9.118634e-04 9.886984e-04 9.998838e-04 1.068314e-03 1.078304e-03 1.136735e-03 1.148838e-03 1.195888e-03 1.213425e-03 1.247885e-03 1.273424e-03 1.294375e-03 1.329042e-03 1.336129e-03 1.379132e-03 1.372962e-03 1.421429e-03 1.403966e-03 1.453105e-03 1.427886e-03 1.471397e-03 1.443411e-03 1.474112e-03 1.449262e-03 1.459928e-03 1.444145e-03 1.428586e-03 1.426697e-03 1.380976e-03 1.395507e-03 1.319077e-03 1.349241e-03 1.245707e-03 1.286940e-03 1.164173e-03 1.208574e-03 1.077985e-03 1.115778e-03 9.906358e-04 1.012290e-03 9.051935e-04 9.035419e-04 8.236046e-04 7.953572e-04 7.461005e-04 6.924501e-04 6.713031e-04 5.975405e-04 5.971571e-04 5.113821e-04 5.221668e-04 4.334109e-04 4.462259e-04 3.625229e-04 3.706688e-04 2.976487e-04 2.976828e-04 2.380400e-04 2.295137e-04 1.833341e-04 1.678675e-04 1.334939e-04 1.136777e-04 8.869272e-05 6.718071e-05 4.918835e-05 2.814083e-05 1.521067e-05 -3.919528e-06 -1.311944e-05 -2.955764e-05 -3.583579e-05 