# vtk DataFile Version 2.0
Comment goes here
ASCII

DATASET STRUCTURED_POINTS
FIELD FieldData 1
TIME 1 1 double
0.23000000
DIMENSIONS    128   128   1

ORIGIN    0.000   0.000   0.000
SPACING   0.039062 0.039062   1.000

POINT_DATA   16384
SCALARS Omega double
LOOKUP_TABLE default

-2.500514e-15 -1.361956e-16 2.795062e-15 1.025187e-14 9.677550e-15 2.293892e-14 3.095572e-14 3.279032e-14 1.382079e-14 1.579752e-14 1.429005e-14 1.162614e-14 -9.226834e-15 4.380999e-15 3.339565e-15 1.754928e-15 -5.812794e-15 -7.152492e-15 1.136675e-15 -1.744513e-14 -1.112940e-14 -2.282284e-14 -1.996793e-14 -3.929092e-14 -1.240782e-14 -1.194358e-14 -5.539360e-15 -3.135585e-14 6.823041e-15 3.628955e-15 1.425519e-14 -1.838861e-14 -3.648378e-14 -4.612195e-14 -5.685227e-14 -3.877384e-14 -2.523002e-14 -9.873409e-15 -1.048813e-14 -3.726197e-14 -3.826358e-14 -2.396752e-14 -5.179614e-15 -3.732400e-14 -1.684959e-14 -9.922630e-15 9.103668e-15 6.749609e-15 9.154572e-15 -1.475197e-14 -7.551935e-15 -1.367354e-14 -8.077326e-16 1.385983e-14 2.681243e-14 2.400788e-14 4.218343e-14 4.629944e-14 4.001393e-14 4.471674e-14 5.399307e-14 3.584229e-14 3.911790e-14 3.455353e-14 2.629836e-14 3.825148e-14 1.734371e-14 7.891258e-15 5.067883e-14 -9.441708e-15 1.312556e-14 -1.790799e-14 -1.843159e-14 -1.912318e-16 -1.365007e-14 -3.309643e-14 -2.790186e-14 3.851222e-15 -1.291960e-14 4.049755e-15 3.970309e-14 2.438963e-14 1.020107e-14 1.947657e-14 -6.811793e-15 -1.874436e-14 -5.646816e-15 2.483651e-14 3.424781e-14 3.214438e-14 2.154792e-14 2.032567e-14 6.651114e-14 2.468629e-14 -1.512478e-14 -4.404453e-14 1.729963e-14 3.771288e-14 -5.726006e-15 2.570815e-14 -1.770622e-14 1.690438e-14 2.178198e-14 2.057103e-14 -1.135429e-15 8.893427e-15 2.187120e-15 -3.704518e-15 -4.597028e-15 -2.294064e-14 -1.071544e-14 -1.840950e-14 -1.746982e-14 -2.016023e-14 -1.381907e-14 -1.962800e-14 -2.616811e-14 -1.743223e-14 -1.060229e-14 2.191541e-15 1.455097e-14 1.165484e-14 3.378415e-15 4.081233e-16 -8.613394e-15 -7.796781e-15 -4.511760e-15 -5.674729e-15 
8.540376e-06 8.260200e-06 7.960745e-06 7.749993e-06 7.504912e-06 7.353282e-06 7.148803e-06 7.045053e-06 6.867158e-06 6.799973e-06 6.635137e-06 6.593932e-06 6.429821e-06 6.405441e-06 6.231562e-06 6.216854e-06 6.025170e-06 6.015427e-06 5.800983e-06 5.794294e-06 5.555881e-06 5.553456e-06 5.294384e-06 5.300949e-06 5.029927e-06 5.054256e-06 4.786324e-06 4.841919e-06 4.599260e-06 4.705031e-06 4.517340e-06 4.697950e-06 4.601893e-06 4.887252e-06 4.924490e-06 5.347794e-06 5.561139e-06 6.155025e-06 6.582678e-06 7.373540e-06 8.041944e-06 9.043146e-06 9.959755e-06 1.116525e-05 1.231303e-05 1.369333e-05 1.502889e-05 1.653105e-05 1.798772e-05 1.954034e-05 2.103622e-05 2.255889e-05 2.400869e-05 2.542416e-05 2.675229e-05 2.799858e-05 2.915060e-05 3.019043e-05 3.114033e-05 3.196558e-05 3.271742e-05 3.334791e-05 3.393177e-05 3.440892e-05 3.487237e-05 3.524938e-05 3.564663e-05 3.597755e-05 3.635859e-05 3.668837e-05 3.709005e-05 3.744746e-05 3.788783e-05 3.828183e-05 3.875816e-05 3.917803e-05 3.966816e-05 4.008658e-05 4.055301e-05 4.093145e-05 4.132721e-05 4.162237e-05 4.189783e-05 4.206842e-05 4.217824e-05 4.219106e-05 4.210033e-05 4.193491e-05 4.162383e-05 4.127491e-05 4.074116e-05 4.021866e-05 3.947707e-05 3.880356e-05 3.788317e-05 3.708932e-05 3.602841e-05 3.514763e-05 3.398795e-05 3.305138e-05 3.183288e-05 3.086613e-05 2.962332e-05 2.864525e-05 2.740573e-05 2.642938e-05 2.521418e-05 2.424895e-05 2.307409e-05 2.212824e-05 2.100654e-05 2.008898e-05 1.903146e-05 1.815258e-05 1.716907e-05 1.634044e-05 1.543948e-05 1.467282e-05 1.386113e-05 1.316695e-05 1.244871e-05 1.183508e-05 1.121138e-05 1.068309e-05 1.015167e-05 9.709782e-06 9.265057e-06 8.906964e-06 
1.716056e-05 1.659795e-05 1.599589e-05 1.557390e-05 1.508197e-05 1.477947e-05 1.436953e-05 1.416340e-05 1.380667e-05 1.367345e-05 1.334204e-05 1.325968e-05 1.292803e-05 1.287735e-05 1.252367e-05 1.248963e-05 1.209723e-05 1.206995e-05 1.162866e-05 1.160427e-05 1.111181e-05 1.109313e-05 1.055675e-05 1.055410e-05 9.992298e-06 1.002444e-05 9.468712e-06 9.564109e-06 9.060428e-06 9.258396e-06 8.867798e-06 9.219057e-06 9.016411e-06 9.581958e-06 9.651908e-06 1.049905e-05 1.092825e-05 1.212289e-05 1.298840e-05 1.458363e-05 1.593854e-05 1.796098e-05 1.981984e-05 2.225680e-05 2.458455e-05 2.737592e-05 3.008418e-05 3.312246e-05 3.607582e-05 3.921630e-05 4.224872e-05 4.532866e-05 4.826748e-05 5.113077e-05 5.382321e-05 5.634491e-05 5.868120e-05 6.078643e-05 6.271441e-05 6.438730e-05 6.591560e-05 6.719666e-05 6.838635e-05 6.935945e-05 7.030667e-05 7.107917e-05 7.189318e-05 7.257373e-05 7.335495e-05 7.403362e-05 7.485578e-05 7.558971e-05 7.648859e-05 7.729497e-05 7.826452e-05 7.912091e-05 8.011613e-05 8.096695e-05 8.191212e-05 8.267936e-05 8.347988e-05 8.407627e-05 8.463231e-05 8.497479e-05 8.519516e-05 8.521711e-05 8.503168e-05 8.469220e-05 8.406121e-05 8.335017e-05 8.226909e-05 8.120703e-05 7.970599e-05 7.833897e-05 7.647681e-05 7.486725e-05 7.272149e-05 7.093718e-05 6.859226e-05 6.669630e-05 6.423294e-05 6.227691e-05 5.976477e-05 5.778651e-05 5.528110e-05 5.330665e-05 5.085029e-05 4.889839e-05 4.652334e-05 4.461054e-05 4.234273e-05 4.048712e-05 3.834894e-05 3.657168e-05 3.458319e-05 3.290786e-05 3.108652e-05 2.953696e-05 2.789648e-05 2.649405e-05 2.504295e-05 2.380403e-05 2.254457e-05 2.147880e-05 2.040641e-05 1.951591e-05 1.861930e-05 1.789873e-05 
2.552413e-05 2.463657e-05 2.369353e-05 2.302102e-05 2.224720e-05 2.175843e-05 2.111197e-05 2.077284e-05 2.021113e-05 1.998738e-05 1.946929e-05 1.932889e-05 1.881689e-05 1.873221e-05 1.819432e-05 1.814384e-05 1.755558e-05 1.752525e-05 1.687147e-05 1.685567e-05 1.613261e-05 1.613505e-05 1.535257e-05 1.538733e-05 1.457151e-05 1.466451e-05 1.386047e-05 1.405149e-05 1.332581e-05 1.367060e-05 1.311264e-05 1.368430e-05 1.340476e-05 1.429265e-05 1.441797e-05 1.572223e-05 1.638319e-05 1.820348e-05 1.951778e-05 2.193603e-05 2.398632e-05 2.704574e-05 2.985709e-05 3.354211e-05 3.706460e-05 4.128780e-05 4.539030e-05 4.999188e-05 5.447116e-05 5.923399e-05 6.383953e-05 6.851811e-05 7.298854e-05 7.734654e-05 8.145005e-05 8.529772e-05 8.886732e-05 9.209031e-05 9.504611e-05 9.761913e-05 9.997312e-05 1.019560e-04 1.037993e-04 1.053171e-04 1.067939e-04 1.080071e-04 1.092807e-04 1.103517e-04 1.115721e-04 1.126348e-04 1.139118e-04 1.150507e-04 1.164367e-04 1.176763e-04 1.191612e-04 1.204669e-04 1.219822e-04 1.232700e-04 1.247016e-04 1.258543e-04 1.270601e-04 1.279472e-04 1.287777e-04 1.292752e-04 1.295941e-04 1.296034e-04 1.293062e-04 1.287673e-04 1.277956e-04 1.266951e-04 1.250434e-04 1.234141e-04 1.211291e-04 1.190420e-04 1.162136e-04 1.137636e-04 1.105092e-04 1.077986e-04 1.042452e-04 1.013679e-04 9.763592e-05 9.466777e-05 9.086039e-05 8.785593e-05 8.405482e-05 8.105100e-05 7.731834e-05 7.434196e-05 7.072569e-05 6.780140e-05 6.434095e-05 6.149689e-05 5.822724e-05 5.549701e-05 5.245015e-05 4.987134e-05 4.707540e-05 4.468587e-05 4.216306e-05 3.999649e-05 3.776076e-05 3.584278e-05 3.389816e-05 3.224379e-05 3.058366e-05 2.919623e-05 2.780368e-05 2.667518e-05 
3.412145e-05 3.290119e-05 3.160677e-05 3.068154e-05 2.961977e-05 2.894652e-05 2.806002e-05 2.759167e-05 2.682172e-05 2.651068e-05 2.580029e-05 2.560182e-05 2.489870e-05 2.477397e-05 2.403343e-05 2.395214e-05 2.313995e-05 2.308238e-05 2.217755e-05 2.213616e-05 2.113386e-05 2.111449e-05 2.002916e-05 2.005237e-05 1.892108e-05 1.902379e-05 1.790971e-05 1.814754e-05 1.714293e-05 1.759274e-05 1.682037e-05 1.758193e-05 1.719309e-05 1.838764e-05 1.855458e-05 2.031787e-05 2.121861e-05 2.368592e-05 2.548077e-05 2.876379e-05 3.156562e-05 3.572388e-05 3.956721e-05 4.458054e-05 4.939760e-05 5.514784e-05 6.075983e-05 6.702998e-05 7.315948e-05 7.965404e-05 8.595905e-05 9.234383e-05 9.846777e-05 1.044212e-04 1.100483e-04 1.153126e-04 1.202159e-04 1.246365e-04 1.287079e-04 1.322511e-04 1.355077e-04 1.382553e-04 1.408212e-04 1.429430e-04 1.450131e-04 1.467254e-04 1.485199e-04 1.500404e-04 1.517604e-04 1.532673e-04 1.550582e-04 1.566621e-04 1.585921e-04 1.603225e-04 1.623754e-04 1.641825e-04 1.662643e-04 1.680324e-04 1.699884e-04 1.715586e-04 1.731973e-04 1.743936e-04 1.755141e-04 1.761704e-04 1.765898e-04 1.765745e-04 1.761530e-04 1.753876e-04 1.740476e-04 1.725164e-04 1.702519e-04 1.680022e-04 1.648781e-04 1.620088e-04 1.581483e-04 1.547903e-04 1.503535e-04 1.466466e-04 1.418062e-04 1.378775e-04 1.327962e-04 1.287469e-04 1.235629e-04 1.194643e-04 1.142864e-04 1.101861e-04 1.050970e-04 1.010295e-04 9.609340e-05 9.209166e-05 8.736246e-05 8.346550e-05 7.899200e-05 7.524722e-05 7.107467e-05 6.753518e-05 6.370364e-05 6.042271e-05 5.696379e-05 5.398849e-05 5.092213e-05 4.828800e-05 4.562015e-05 4.334782e-05 4.106970e-05 3.916367e-05 3.725232e-05 3.570152e-05 
4.218669e-05 4.054639e-05 3.882171e-05 3.756274e-05 3.614057e-05 3.520922e-05 3.401790e-05 3.335599e-05 3.232255e-05 3.187176e-05 3.092571e-05 3.063173e-05 2.970864e-05 2.952484e-05 2.856979e-05 2.846020e-05 2.743114e-05 2.737269e-05 2.624365e-05 2.622767e-05 2.499212e-05 2.502543e-05 2.369991e-05 2.380604e-05 2.243430e-05 2.265548e-05 2.131294e-05 2.171315e-05 2.051110e-05 2.117999e-05 2.026817e-05 2.132424e-05 2.088934e-05 2.247970e-05 2.273697e-05 2.502992e-05 2.620493e-05 2.937213e-05 3.167138e-05 3.585868e-05 3.943134e-05 4.472168e-05 4.961905e-05 5.599566e-05 6.213894e-05 6.946016e-05 7.662774e-05 8.462419e-05 9.246651e-05 1.007662e-04 1.088490e-04 1.170281e-04 1.248967e-04 1.325455e-04 1.397961e-04 1.465851e-04 1.529269e-04 1.586567e-04 1.639502e-04 1.685757e-04 1.728404e-04 1.764623e-04 1.798533e-04 1.826834e-04 1.854450e-04 1.877535e-04 1.901611e-04 1.922186e-04 1.945221e-04 1.965487e-04 1.989274e-04 2.010574e-04 2.035928e-04 2.058590e-04 2.085271e-04 2.108631e-04 2.135432e-04 2.158017e-04 2.182983e-04 2.202792e-04 2.223518e-04 2.238350e-04 2.252324e-04 2.260118e-04 2.265061e-04 2.264200e-04 2.258382e-04 2.247922e-04 2.230398e-04 2.210197e-04 2.180932e-04 2.151642e-04 2.111495e-04 2.074413e-04 2.024975e-04 1.981792e-04 1.925108e-04 1.877597e-04 1.815842e-04 1.765584e-04 1.700786e-04 1.649003e-04 1.582855e-04 1.530378e-04 1.464200e-04 1.411562e-04 1.346354e-04 1.293951e-04 1.230509e-04 1.178753e-04 1.117770e-04 1.067183e-04 1.009318e-04 9.605532e-05 9.064305e-05 8.602200e-05 8.104000e-05 7.674724e-05 7.223981e-05 6.833888e-05 6.433408e-05 6.087227e-05 5.737908e-05 5.438340e-05 5.139114e-05 4.886728e-05 4.634680e-05 4.428045e-05 
5.062261e-05 4.854596e-05 4.637041e-05 4.477141e-05 4.297619e-05 4.178788e-05 4.028389e-05 3.943344e-05 3.812951e-05 3.754352e-05 3.635096e-05 3.596063e-05 3.479787e-05 3.454377e-05 3.334100e-05 3.317722e-05 3.188094e-05 3.177831e-05 3.035582e-05 3.030406e-05 2.874788e-05 2.875703e-05 2.708936e-05 2.719087e-05 2.546832e-05 2.571677e-05 2.403520e-05 2.451124e-05 2.301022e-05 2.382463e-05 2.269004e-05 2.398758e-05 2.344984e-05 2.540950e-05 2.573374e-05 2.856086e-05 3.002539e-05 3.393101e-05 3.679181e-05 4.195750e-05 4.640115e-05 5.293296e-05 5.902588e-05 6.690773e-05 7.455501e-05 8.361607e-05 9.254475e-05 1.024548e-04 1.122318e-04 1.225318e-04 1.326181e-04 1.427841e-04 1.526152e-04 1.621401e-04 1.712156e-04 1.796921e-04 1.876523e-04 1.948354e-04 2.015088e-04 2.073434e-04 2.127550e-04 2.173660e-04 2.217071e-04 2.253541e-04 2.289238e-04 2.319357e-04 2.350689e-04 2.377722e-04 2.407697e-04 2.434266e-04 2.465009e-04 2.492670e-04 2.525110e-04 2.554174e-04 2.587957e-04 2.617543e-04 2.651156e-04 2.679419e-04 2.710463e-04 2.734943e-04 2.760490e-04 2.778511e-04 2.795518e-04 2.804596e-04 2.810313e-04 2.808518e-04 2.800866e-04 2.787104e-04 2.764961e-04 2.739125e-04 2.702489e-04 2.665451e-04 2.615419e-04 2.568844e-04 2.507410e-04 2.453430e-04 2.383136e-04 2.323957e-04 2.247484e-04 2.185035e-04 2.104847e-04 2.040574e-04 1.958703e-04 1.893548e-04 1.811553e-04 1.746095e-04 1.665156e-04 1.599833e-04 1.520906e-04 1.456216e-04 1.380172e-04 1.316789e-04 1.244481e-04 1.183265e-04 1.115521e-04 1.057437e-04 9.950010e-05 9.410030e-05 8.844628e-05 8.353705e-05 7.850975e-05 7.415122e-05 6.976286e-05 6.598879e-05 6.222642e-05 5.904349e-05 5.587103e-05 5.326095e-05 
5.821469e-05 5.556478e-05 5.281448e-05 5.074751e-05 4.846435e-05 4.690139e-05 4.498053e-05 4.383676e-05 4.217157e-05 4.136247e-05 3.984980e-05 3.929712e-05 3.784256e-05 3.747970e-05 3.600286e-05 3.577944e-05 3.421902e-05 3.410411e-05 3.242277e-05 3.240669e-05 3.059573e-05 3.069079e-05 2.877488e-05 2.901574e-05 2.705810e-05 2.750320e-05 2.561120e-05 2.634613e-05 2.467706e-05 2.582029e-05 2.458548e-05 2.629477e-05 2.575935e-05 2.823490e-05 2.870853e-05 3.218683e-05 3.400019e-05 3.873206e-05 4.219585e-05 4.840532e-05 5.375336e-05 6.158120e-05 6.890717e-05 7.835160e-05 8.755613e-05 9.842939e-05 1.091965e-04 1.211157e-04 1.329323e-04 1.453549e-04 1.575759e-04 1.698756e-04 1.818218e-04 1.933894e-04 2.044570e-04 2.148011e-04 2.245551e-04 2.333779e-04 2.416093e-04 2.488404e-04 2.555757e-04 2.613590e-04 2.668226e-04 2.714617e-04 2.760049e-04 2.798836e-04 2.838974e-04 2.873941e-04 2.912270e-04 2.946417e-04 2.985358e-04 3.020412e-04 3.060967e-04 3.097194e-04 3.138866e-04 3.175147e-04 3.216101e-04 3.250216e-04 3.287604e-04 3.316648e-04 3.347030e-04 3.367877e-04 3.387700e-04 3.397476e-04 3.403543e-04 3.400050e-04 3.389966e-04 3.372007e-04 3.344518e-04 3.312078e-04 3.267260e-04 3.221492e-04 3.160733e-04 3.103726e-04 3.029469e-04 2.963834e-04 2.879144e-04 2.807522e-04 2.715574e-04 2.640200e-04 2.543849e-04 2.466314e-04 2.367854e-04 2.289115e-04 2.190267e-04 2.110864e-04 2.012933e-04 1.933301e-04 1.837394e-04 1.758123e-04 1.665318e-04 1.587288e-04 1.498696e-04 1.423056e-04 1.339786e-04 1.267822e-04 1.190877e-04 1.123838e-04 1.054006e-04 9.929455e-05 9.307216e-05 8.763938e-05 8.219428e-05 7.747575e-05 7.279242e-05 6.879505e-05 6.482949e-05 6.152993e-05 
6.628658e-05 6.303295e-05 5.967171e-05 5.712205e-05 5.432733e-05 5.238694e-05 5.003356e-05 4.860044e-05 4.656034e-05 4.553225e-05 4.368060e-05 4.296217e-05 4.118388e-05 4.069345e-05 3.888996e-05 3.856572e-05 3.666194e-05 3.646659e-05 3.441748e-05 3.434099e-05 3.213763e-05 3.219802e-05 2.987321e-05 3.011628e-05 2.774986e-05 2.824936e-05 2.597360e-05 2.683348e-05 2.483828e-05 2.619802e-05 2.473479e-05 2.677660e-05 2.615790e-05 2.911187e-05 2.970178e-05 3.384145e-05 3.603011e-05 4.164975e-05 4.580693e-05 5.317497e-05 5.958319e-05 6.887499e-05 7.765292e-05 8.887761e-05 9.991418e-05 1.128593e-04 1.257828e-04 1.400004e-04 1.542006e-04 1.690482e-04 1.837544e-04 1.984871e-04 2.128873e-04 2.267795e-04 2.401524e-04 2.526195e-04 2.644476e-04 2.751365e-04 2.851730e-04 2.940015e-04 3.022792e-04 3.094180e-04 3.162026e-04 3.220082e-04 3.277113e-04 3.326299e-04 3.377054e-04 3.421714e-04 3.470174e-04 3.513680e-04 3.562548e-04 3.606754e-04 3.657063e-04 3.702112e-04 3.753164e-04 3.797611e-04 3.847188e-04 3.888358e-04 3.933112e-04 3.967583e-04 4.003521e-04 4.027667e-04 4.050688e-04 4.061215e-04 4.067650e-04 4.062079e-04 4.049191e-04 4.026235e-04 3.992626e-04 3.952400e-04 3.898240e-04 3.842247e-04 3.769258e-04 3.700105e-04 3.611256e-04 3.532141e-04 3.431108e-04 3.345196e-04 3.235729e-04 3.145614e-04 3.031013e-04 2.938434e-04 2.821274e-04 2.727175e-04 2.609339e-04 2.514185e-04 2.397100e-04 2.301300e-04 2.186237e-04 2.090485e-04 1.978763e-04 1.884186e-04 1.777232e-04 1.685328e-04 1.584585e-04 1.497021e-04 1.403798e-04 1.322171e-04 1.237487e-04 1.163115e-04 1.087599e-04 1.021405e-04 9.552676e-05 8.977335e-05 8.407860e-05 7.919776e-05 7.436871e-05 7.033081e-05 
7.315298e-05 6.910166e-05 6.495342e-05 6.173779e-05 5.826605e-05 5.577668e-05 5.283767e-05 5.095858e-05 4.840641e-05 4.702303e-05 4.471644e-05 4.372355e-05 4.153321e-05 4.084263e-05 3.865878e-05 3.820611e-05 3.594619e-05 3.569546e-05 3.331118e-05 3.325689e-05 3.074035e-05 3.090675e-05 2.829576e-05 2.873475e-05 2.611797e-05 2.690761e-05 2.443010e-05 2.567648e-05 2.354570e-05 2.538959e-05 2.388099e-05 2.650879e-05 2.596805e-05 2.962231e-05 3.045825e-05 3.543870e-05 3.809854e-05 4.474152e-05 4.966034e-05 5.828764e-05 6.581077e-05 7.664963e-05 8.693937e-05 1.000311e-04 1.129830e-04 1.281099e-04 1.433101e-04 1.599723e-04 1.767190e-04 1.941796e-04 2.115743e-04 2.289666e-04 2.460569e-04 2.625309e-04 2.784680e-04 2.933357e-04 3.075093e-04 3.203522e-04 3.324695e-04 3.431849e-04 3.532791e-04 3.620574e-04 3.704309e-04 3.776752e-04 3.847958e-04 3.910087e-04 3.973878e-04 4.030532e-04 4.091331e-04 4.146187e-04 4.206916e-04 4.261889e-04 4.323549e-04 4.378611e-04 4.440257e-04 4.493611e-04 4.552623e-04 4.601133e-04 4.653660e-04 4.693411e-04 4.734925e-04 4.761831e-04 4.787717e-04 4.798114e-04 4.804270e-04 4.795460e-04 4.778858e-04 4.749534e-04 4.708695e-04 4.659190e-04 4.594454e-04 4.526721e-04 4.440233e-04 4.357498e-04 4.252832e-04 4.158947e-04 4.040435e-04 3.939098e-04 3.811045e-04 3.705131e-04 3.571187e-04 3.462441e-04 3.325325e-04 3.214502e-04 3.076116e-04 2.963460e-04 2.825265e-04 2.711098e-04 2.574519e-04 2.459670e-04 2.326345e-04 2.212300e-04 2.084097e-04 1.972856e-04 1.851702e-04 1.745466e-04 1.633100e-04 1.533927e-04 1.431682e-04 1.341227e-04 1.249908e-04 1.169283e-04 1.089146e-04 1.018897e-04 9.496988e-05 8.898605e-05 8.309466e-05 7.811287e-05 
8.057220e-05 7.566972e-05 7.067416e-05 6.676224e-05 6.257172e-05 5.952112e-05 5.596704e-05 5.364063e-05 5.055087e-05 4.881232e-05 4.601874e-05 4.474176e-05 4.208899e-05 4.116699e-05 3.852238e-05 3.787753e-05 3.514153e-05 3.473178e-05 3.184766e-05 3.167009e-05 2.863205e-05 2.872215e-05 2.558149e-05 2.600934e-05 2.287918e-05 2.374515e-05 2.080440e-05 2.223781e-05 1.973513e-05 2.189884e-05 2.015644e-05 2.325819e-05 2.267359e-05 2.698013e-05 2.802020e-05 3.386396e-05 3.704116e-05 4.480355e-05 5.062257e-05 6.068010e-05 6.955012e-05 8.218176e-05 9.430563e-05 1.095812e-04 1.248518e-04 1.425391e-04 1.604828e-04 1.800132e-04 1.998121e-04 2.203308e-04 2.409304e-04 2.614247e-04 2.817046e-04 3.011787e-04 3.201425e-04 3.377913e-04 3.547254e-04 3.700615e-04 3.846270e-04 3.975326e-04 4.097712e-04 4.204678e-04 4.307308e-04 4.396815e-04 4.485048e-04 4.562794e-04 4.642400e-04 4.713768e-04 4.789635e-04 4.858588e-04 4.933818e-04 5.002250e-04 5.077739e-04 5.145327e-04 5.219792e-04 5.284254e-04 5.354582e-04 5.412203e-04 5.473976e-04 5.520253e-04 5.568358e-04 5.598678e-04 5.627946e-04 5.638242e-04 5.644102e-04 5.631441e-04 5.610548e-04 5.573625e-04 5.524401e-04 5.463827e-04 5.386807e-04 5.305099e-04 5.202926e-04 5.104085e-04 4.981064e-04 4.869773e-04 4.731033e-04 4.611659e-04 4.462175e-04 4.337938e-04 4.181766e-04 4.054386e-04 3.894379e-04 3.764337e-04 3.602381e-04 3.469614e-04 3.307179e-04 3.171876e-04 3.010563e-04 2.873719e-04 2.715556e-04 2.579107e-04 2.426509e-04 2.293077e-04 2.148558e-04 2.020989e-04 1.886800e-04 1.767696e-04 1.645533e-04 1.536928e-04 1.427784e-04 1.330995e-04 1.235165e-04 1.150796e-04 1.067963e-04 9.960020e-05 9.253691e-05 8.653110e-05 
8.636980e-05 8.035428e-05 7.427271e-05 6.941342e-05 6.427579e-05 6.042369e-05 5.603790e-05 5.303803e-05 4.920990e-05 4.691089e-05 4.345233e-05 4.171674e-05 3.845562e-05 3.717090e-05 3.396241e-05 3.305108e-05 2.978937e-05 2.921635e-05 2.584490e-05 2.561970e-05 2.213923e-05 2.231248e-05 1.878604e-05 1.944191e-05 1.599833e-05 1.724660e-05 1.408350e-05 1.605586e-05 1.344316e-05 1.629785e-05 1.458231e-05 1.851921e-05 1.812888e-05 2.341192e-05 2.485529e-05 3.183030e-05 3.567788e-05 4.476523e-05 5.159681e-05 6.323760e-05 7.354463e-05 8.809379e-05 1.021468e-04 1.197348e-04 1.374522e-04 1.578624e-04 1.787322e-04 2.013486e-04 2.244461e-04 2.483041e-04 2.724157e-04 2.963519e-04 3.201777e-04 3.430381e-04 3.654183e-04 3.862650e-04 4.063681e-04 4.246299e-04 4.420587e-04 4.575899e-04 4.723863e-04 4.854291e-04 4.979865e-04 5.090547e-04 5.199706e-04 5.296919e-04 5.396011e-04 5.485584e-04 5.579866e-04 5.665941e-04 5.758594e-04 5.842945e-04 5.934667e-04 6.016602e-04 6.105709e-04 6.182423e-04 6.265280e-04 6.332480e-04 6.404108e-04 6.456738e-04 6.511471e-04 6.544450e-04 6.576614e-04 6.585537e-04 6.590151e-04 6.571934e-04 6.545402e-04 6.498838e-04 6.439577e-04 6.365688e-04 6.274551e-04 6.176581e-04 6.056860e-04 5.939768e-04 5.796643e-04 5.666073e-04 5.505548e-04 5.366557e-04 5.194234e-04 5.050244e-04 4.870403e-04 4.722842e-04 4.538208e-04 4.386968e-04 4.199158e-04 4.043627e-04 3.853977e-04 3.694129e-04 3.504437e-04 3.341528e-04 3.154377e-04 2.991022e-04 2.809628e-04 2.649352e-04 2.477076e-04 2.323625e-04 2.163433e-04 2.020131e-04 1.874195e-04 1.743539e-04 1.613078e-04 1.496595e-04 1.381916e-04 1.280223e-04 1.180881e-04 1.093850e-04 1.008836e-04 9.357819e-05 
9.275589e-05 8.553758e-05 7.827257e-05 7.240884e-05 6.625302e-05 6.156849e-05 5.629803e-05 5.261040e-05 4.799759e-05 4.512752e-05 4.094958e-05 3.873252e-05 3.478345e-05 3.308344e-05 2.918875e-05 2.791234e-05 2.394505e-05 2.305231e-05 1.894739e-05 1.845625e-05 1.422135e-05 1.420390e-05 9.925500e-06 1.049752e-05 6.343434e-06 7.651512e-06 3.870922e-06 6.082529e-06 3.004625e-06 6.306955e-06 4.339712e-06 8.952104e-06 8.583161e-06 1.478336e-05 1.658071e-05 2.473385e-05 2.933357e-05 3.989819e-05 4.795615e-05 6.143556e-05 7.352342e-05 9.034691e-05 1.067978e-04 1.271530e-04 1.478991e-04 1.715750e-04 1.960434e-04 2.223549e-04 2.494803e-04 2.773214e-04 3.056904e-04 3.337113e-04 3.618054e-04 3.886623e-04 4.151286e-04 4.397311e-04 4.636058e-04 4.852932e-04 5.061220e-04 5.247294e-04 5.425666e-04 5.583740e-04 5.736733e-04 5.872643e-04 6.007018e-04 6.127768e-04 6.250552e-04 6.362473e-04 6.479299e-04 6.586664e-04 6.700717e-04 6.805040e-04 6.916687e-04 7.016717e-04 7.123727e-04 7.215937e-04 7.314035e-04 7.393384e-04 7.476945e-04 7.537700e-04 7.600452e-04 7.636983e-04 7.672712e-04 7.680230e-04 7.683506e-04 7.658765e-04 7.625704e-04 7.567624e-04 7.496620e-04 7.406728e-04 7.298992e-04 7.181450e-04 7.041056e-04 6.902050e-04 6.735263e-04 6.581691e-04 6.395618e-04 6.233434e-04 6.034456e-04 5.867336e-04 5.659987e-04 5.488949e-04 5.275740e-04 5.099883e-04 4.882045e-04 4.700025e-04 4.478699e-04 4.290213e-04 4.067439e-04 3.874086e-04 3.653157e-04 3.458420e-04 3.243550e-04 3.052084e-04 2.847670e-04 2.664313e-04 2.474166e-04 2.303087e-04 2.129921e-04 1.974131e-04 1.819393e-04 1.680630e-04 1.544615e-04 1.423483e-04 1.305578e-04 1.201802e-04 1.100752e-04 1.013432e-04 
9.706340e-05 8.829752e-05 7.953308e-05 7.232826e-05 6.484539e-05 5.899775e-05 5.254081e-05 4.784330e-05 4.215533e-05 3.840845e-05 3.324082e-05 3.026613e-05 2.539219e-05 2.304844e-05 1.828076e-05 1.648009e-05 1.168858e-05 1.040804e-05 5.534964e-06 4.818678e-06 -1.119329e-07 -1.614575e-07 -5.039892e-06 -4.278193e-06 -8.908182e-06 -7.167036e-06 -1.126666e-05 -8.368159e-06 -1.157302e-05 -7.333793e-06 -9.201409e-06 -3.420080e-06 -3.430672e-06 4.146178e-06 6.595205e-06 1.632000e-05 2.191413e-05 3.426696e-05 4.373822e-05 5.929132e-05 7.331200e-05 9.259997e-05 1.116029e-04 1.349172e-04 1.588906e-04 1.860729e-04 2.144171e-04 2.447471e-04 2.762715e-04 3.085145e-04 3.416023e-04 3.742153e-04 4.071114e-04 4.385415e-04 4.696770e-04 4.986574e-04 5.269140e-04 5.526725e-04 5.775219e-04 5.998555e-04 6.213524e-04 6.405638e-04 6.592124e-04 6.759419e-04 6.924865e-04 7.074929e-04 7.226920e-04 7.366435e-04 7.510833e-04 7.644042e-04 7.783874e-04 7.911886e-04 8.047053e-04 8.167948e-04 8.295582e-04 8.405062e-04 8.520218e-04 8.612503e-04 8.708929e-04 8.777664e-04 8.848533e-04 8.887610e-04 8.926232e-04 8.930563e-04 8.931130e-04 8.897398e-04 8.855826e-04 8.783203e-04 8.697995e-04 8.588710e-04 8.461636e-04 8.321056e-04 8.157244e-04 7.993115e-04 7.800185e-04 7.620915e-04 7.407221e-04 7.219698e-04 6.992297e-04 6.800185e-04 6.563507e-04 6.366905e-04 6.122749e-04 5.919402e-04 5.668176e-04 5.455620e-04 5.198069e-04 4.975647e-04 4.714159e-04 4.484056e-04 4.222988e-04 3.990004e-04 3.735040e-04 3.505456e-04 3.262461e-04 3.042611e-04 2.816545e-04 2.611687e-04 2.405946e-04 2.219684e-04 2.035951e-04 1.870189e-04 1.708662e-04 1.563879e-04 1.423655e-04 1.299294e-04 1.178747e-04 1.073568e-04 
1.019726e-04 9.151374e-05 8.109639e-05 7.244986e-05 6.352261e-05 5.644778e-05 4.871258e-05 4.296540e-05 3.612090e-05 3.146472e-05 2.521660e-05 2.143772e-05 1.551530e-05 1.244340e-05 6.621941e-06 4.151751e-06 -1.723635e-06 -3.616242e-06 -9.611048e-06 -1.086525e-05 -1.694363e-05 -1.742360e-05 -2.344259e-05 -2.295636e-05 -2.866270e-05 -2.698349e-05 -3.201413e-05 -2.890083e-05 -3.279268e-05 -2.800634e-05 -3.021608e-05 -2.352158e-05 -2.344387e-05 -1.458111e-05 -1.154935e-05 -1.722790e-07 6.553285e-06 2.093547e-05 3.215293e-05 5.016686e-05 6.663568e-05 8.891227e-05 1.111528e-04 1.380827e-04 1.661237e-04 1.975912e-04 2.307777e-04 2.660015e-04 3.029731e-04 3.405475e-04 3.794266e-04 4.175643e-04 4.563031e-04 4.931958e-04 5.299668e-04 5.641417e-04 5.976522e-04 6.282183e-04 6.578691e-04 6.845981e-04 7.104641e-04 7.337067e-04 7.563694e-04 7.768496e-04 7.971453e-04 8.157012e-04 8.344561e-04 8.517969e-04 8.696178e-04 8.861550e-04 9.033137e-04 9.190946e-04 9.355124e-04 9.502482e-04 9.655526e-04 9.787072e-04 9.923198e-04 1.003217e-03 1.014440e-03 1.022366e-03 1.030457e-03 1.034742e-03 1.038980e-03 1.039081e-03 1.038844e-03 1.034419e-03 1.029273e-03 1.020269e-03 1.010072e-03 9.967966e-04 9.817911e-04 9.649333e-04 9.457605e-04 9.262988e-04 9.038933e-04 8.828689e-04 8.582262e-04 8.364522e-04 8.103638e-04 7.882039e-04 7.610951e-04 7.384361e-04 7.103913e-04 6.868304e-04 6.577837e-04 6.329320e-04 6.029103e-04 5.766622e-04 5.459532e-04 5.186074e-04 4.877833e-04 4.599886e-04 4.297999e-04 4.023844e-04 3.735939e-04 3.473692e-04 3.206052e-04 2.962210e-04 2.718970e-04 2.497770e-04 2.280825e-04 2.084306e-04 1.893699e-04 1.722161e-04 1.556635e-04 1.409182e-04 1.266686e-04 1.141690e-04 
1.043526e-04 9.175296e-05 7.926955e-05 6.873478e-05 5.794936e-05 4.919589e-05 3.976506e-05 3.251263e-05 2.409468e-05 1.807881e-05 1.034604e-05 5.337135e-06 -2.003573e-06 -6.175260e-06 -1.335614e-05 -1.677605e-05 -2.394380e-05 -2.659987e-05 -3.380091e-05 -3.558911e-05 -4.276553e-05 -4.351060e-05 -5.049753e-05 -4.997572e-05 -5.649051e-05 -5.444577e-05 -6.007501e-05 -5.623428e-05 -6.043928e-05 -5.453578e-05 -5.668750e-05 -4.848090e-05 -4.790412e-05 -3.716409e-05 -3.315199e-05 -1.958217e-05 -1.136834e-05 5.496882e-06 1.876076e-05 3.959399e-05 5.876680e-05 8.432601e-05 1.100590e-04 1.408967e-04 1.733190e-04 2.094329e-04 2.478870e-04 2.884886e-04 3.314703e-04 3.750041e-04 4.203710e-04 4.647950e-04 5.101797e-04 5.534001e-04 5.966816e-04 6.369834e-04 6.766625e-04 7.130025e-04 7.483846e-04 7.804821e-04 8.116448e-04 8.398764e-04 8.674645e-04 8.926182e-04 9.175442e-04 9.405165e-04 9.636556e-04 9.851742e-04 1.007131e-03 1.027571e-03 1.048562e-03 1.067885e-03 1.087744e-03 1.105551e-03 1.123807e-03 1.139449e-03 1.155437e-03 1.168142e-03 1.181096e-03 1.190078e-03 1.199201e-03 1.203742e-03 1.208269e-03 1.207797e-03 1.207071e-03 1.201241e-03 1.194812e-03 1.183614e-03 1.171368e-03 1.155224e-03 1.137500e-03 1.117304e-03 1.094923e-03 1.071919e-03 1.046039e-03 1.021518e-03 9.933190e-04 9.682228e-04 9.385570e-04 9.131922e-04 8.823963e-04 8.564328e-04 8.244067e-04 7.971706e-04 7.636747e-04 7.345821e-04 6.995783e-04 6.684902e-04 6.323504e-04 5.997021e-04 5.632049e-04 5.298942e-04 4.940494e-04 4.611809e-04 4.269898e-04 3.956074e-04 3.638679e-04 3.347716e-04 3.059831e-04 2.796623e-04 2.540285e-04 2.306877e-04 2.081800e-04 1.878099e-04 1.682467e-04 1.507016e-04 1.338150e-04 1.188728e-04 
1.073704e-04 9.240162e-05 7.761607e-05 6.502480e-05 5.219369e-05 4.164343e-05 3.036504e-05 2.152506e-05 1.139967e-05 3.959112e-06 -5.395689e-06 -1.170369e-05 -2.062648e-05 -2.599301e-05 -3.474632e-05 -3.925875e-05 -4.800463e-05 -5.163908e-05 -6.043352e-05 -6.307410e-05 -7.187301e-05 -7.334067e-05 -8.199018e-05 -8.205178e-05 -9.024406e-05 -8.859538e-05 -9.581431e-05 -9.207168e-05 -9.758747e-05 -9.132920e-05 -9.427598e-05 -8.512232e-05 -8.461851e-05 -7.227562e-05 -6.749563e-05 -5.168996e-05 -4.183181e-05 -2.215185e-05 -6.355292e-06 1.786805e-05 4.051152e-05 7.012557e-05 1.003598e-04 1.360613e-04 1.740868e-04 2.159744e-04 2.610937e-04 3.083415e-04 3.588469e-04 4.096927e-04 4.630974e-04 5.151712e-04 5.687074e-04 6.195615e-04 6.707537e-04 7.183868e-04 7.655019e-04 8.087081e-04 8.509630e-04 8.894287e-04 9.269351e-04 9.611000e-04 9.946058e-04 1.025362e-03 1.055889e-03 1.084220e-03 1.112706e-03 1.139364e-03 1.166404e-03 1.191710e-03 1.217438e-03 1.241232e-03 1.265356e-03 1.287080e-03 1.308999e-03 1.327849e-03 1.346787e-03 1.361861e-03 1.376971e-03 1.387388e-03 1.397815e-03 1.402793e-03 1.407725e-03 1.406653e-03 1.405393e-03 1.397919e-03 1.389991e-03 1.376150e-03 1.361462e-03 1.341814e-03 1.320819e-03 1.296517e-03 1.270259e-03 1.242898e-03 1.212821e-03 1.184022e-03 1.151541e-03 1.122414e-03 1.088455e-03 1.059229e-03 1.024010e-03 9.940734e-04 9.572662e-04 9.256099e-04 8.867756e-04 8.525936e-04 8.116412e-04 7.747812e-04 7.322097e-04 6.932934e-04 6.501400e-04 6.103690e-04 5.679447e-04 5.287420e-04 4.883109e-04 4.509754e-04 4.135127e-04 3.790024e-04 3.450913e-04 3.139598e-04 2.838125e-04 2.562591e-04 2.298079e-04 2.057787e-04 1.827803e-04 1.620685e-04 1.421880e-04 1.245081e-04 