# vtk DataFile Version 2.0
Comment goes here
ASCII

DATASET STRUCTURED_POINTS
FIELD FieldData 1
TIME 1 1 double
0.22000000
DIMENSIONS    128   128   1

ORIGIN    0.000   0.000   0.000
SPACING   0.039062 0.039062   1.000

POINT_DATA   16384
SCALARS Omega double
LOOKUP_TABLE default

-1.311683e-14 -1.378656e-14 -1.596398e-14 -1.927879e-14 -9.637080e-15 1.206034e-15 7.498962e-15 7.470587e-15 3.598573e-15 2.274728e-15 1.009018e-14 1.747727e-14 7.967766e-15 -1.578153e-15 1.078331e-14 2.220413e-14 -8.922245e-15 1.383434e-14 -1.211592e-14 -1.769190e-14 -9.668780e-15 -3.819258e-14 -1.621791e-14 1.951345e-17 -9.808240e-15 5.781448e-15 -1.653396e-15 2.202230e-14 2.874880e-14 -1.889233e-14 3.104081e-14 1.160024e-14 -5.105758e-14 -3.781081e-14 -5.528825e-14 -3.082897e-14 -1.119275e-14 -6.185434e-14 -2.851547e-14 -2.439507e-14 -2.191935e-14 -1.784574e-14 -2.620431e-14 1.175466e-15 3.496608e-15 -3.187089e-14 6.417533e-15 6.334660e-15 2.788751e-14 -4.062688e-14 -9.588845e-15 -9.814481e-16 7.700917e-15 8.563661e-15 2.000373e-14 1.642265e-14 2.153186e-14 3.867701e-14 3.817391e-14 1.476869e-14 3.169246e-14 3.866986e-14 2.884531e-14 2.943411e-14 1.159010e-14 1.157314e-14 -4.622928e-15 -1.800214e-15 5.175972e-15 -1.971090e-14 -6.994433e-15 9.776866e-15 -2.423286e-14 -2.334814e-14 2.036913e-14 -2.482407e-14 -3.902988e-14 -2.295553e-14 -1.923311e-16 -5.505454e-14 -4.767717e-15 2.011908e-14 1.151337e-14 1.932505e-14 -7.912342e-15 6.852595e-15 -2.538760e-14 2.484479e-15 2.104640e-14 4.843889e-14 5.073191e-14 6.801220e-14 1.925773e-14 -1.141702e-14 1.664599e-14 6.726758e-15 1.583605e-14 -3.578144e-14 -3.057246e-14 -1.493869e-14 3.238051e-14 1.089117e-14 2.290443e-14 1.160250e-14 2.069045e-14 1.139786e-14 9.727629e-15 2.149733e-15 -1.594444e-14 -1.187427e-14 -3.075773e-15 -4.254711e-15 -9.026197e-15 -4.226795e-14 -2.945003e-14 -1.300246e-14 -8.025931e-15 -1.367887e-14 -1.017816e-14 -8.139803e-15 -4.491030e-15 -1.893970e-15 -7.620223e-15 -1.214123e-14 -1.560594e-14 -1.647240e-14 -1.637431e-14 -1.179208e-14 
8.500691e-06 8.170765e-06 7.928648e-06 7.683679e-06 7.476121e-06 7.310705e-06 7.118970e-06 7.025833e-06 6.831952e-06 6.802569e-06 6.590385e-06 6.615596e-06 6.371725e-06 6.442295e-06 6.156982e-06 6.264093e-06 5.931944e-06 6.067634e-06 5.688236e-06 5.845832e-06 5.424264e-06 5.598909e-06 5.146185e-06 5.335552e-06 4.868999e-06 5.074268e-06 4.617818e-06 4.844899e-06 4.429180e-06 4.689992e-06 4.351963e-06 4.665382e-06 4.447141e-06 4.839005e-06 4.785313e-06 5.286825e-06 5.440978e-06 6.085012e-06 6.483027e-06 7.298346e-06 7.962030e-06 8.966165e-06 9.896348e-06 1.108869e-05 1.226042e-05 1.361749e-05 1.497903e-05 1.645384e-05 1.793069e-05 1.945703e-05 2.096089e-05 2.246234e-05 2.390372e-05 2.530551e-05 2.660720e-05 2.784835e-05 2.895694e-05 2.999980e-05 3.089262e-05 3.172776e-05 3.241381e-05 3.305919e-05 3.357426e-05 3.406935e-05 3.446656e-05 3.486290e-05 3.520115e-05 3.555153e-05 3.588421e-05 3.623284e-05 3.659874e-05 3.697393e-05 3.739175e-05 3.780213e-05 3.826882e-05 3.870314e-05 3.919560e-05 3.962576e-05 4.010520e-05 4.049153e-05 4.090953e-05 4.120744e-05 4.151278e-05 4.167983e-05 4.182530e-05 4.182769e-05 4.177621e-05 4.159374e-05 4.132289e-05 4.095173e-05 4.045628e-05 3.990888e-05 3.920070e-05 3.850295e-05 3.760844e-05 3.679461e-05 3.575023e-05 3.485692e-05 3.370375e-05 3.276421e-05 3.154297e-05 3.058330e-05 2.933072e-05 2.836844e-05 2.711553e-05 2.616066e-05 2.493267e-05 2.399030e-05 2.280774e-05 2.188123e-05 2.076107e-05 1.985461e-05 1.881120e-05 1.793135e-05 1.697663e-05 1.613256e-05 1.527570e-05 1.447850e-05 1.372527e-05 1.298663e-05 1.233878e-05 1.166966e-05 1.112453e-05 1.053394e-05 1.008443e-05 9.578648e-06 9.213609e-06 8.795776e-06 
1.701240e-05 1.634158e-05 1.585428e-05 1.535652e-05 1.493972e-05 1.460412e-05 1.421980e-05 1.403155e-05 1.364308e-05 1.358469e-05 1.315899e-05 1.321152e-05 1.272098e-05 1.286524e-05 1.228954e-05 1.250708e-05 1.183476e-05 1.210890e-05 1.133868e-05 1.165544e-05 1.079736e-05 1.114661e-05 1.022300e-05 1.059993e-05 9.646140e-06 1.005327e-05 9.118235e-06 9.567837e-06 8.714158e-06 9.230801e-06 8.533917e-06 9.156324e-06 8.702024e-06 9.483060e-06 9.362433e-06 1.036586e-05 1.066694e-05 1.195997e-05 1.275597e-05 1.439747e-05 1.573279e-05 1.775889e-05 1.963535e-05 2.204530e-05 2.441242e-05 2.715897e-05 2.991191e-05 3.289990e-05 3.588764e-05 3.898278e-05 4.202639e-05 4.507351e-05 4.799163e-05 5.083884e-05 5.347514e-05 5.599848e-05 5.824492e-05 6.036776e-05 6.217857e-05 6.388142e-05 6.527496e-05 6.659389e-05 6.764252e-05 6.865713e-05 6.946818e-05 7.028240e-05 7.097466e-05 7.169496e-05 7.237589e-05 7.309127e-05 7.383880e-05 7.460613e-05 7.545765e-05 7.629405e-05 7.724311e-05 7.812568e-05 7.912561e-05 7.999750e-05 8.097014e-05 8.175129e-05 8.259916e-05 8.319971e-05 8.381969e-05 8.415419e-05 8.445118e-05 8.445165e-05 8.435076e-05 8.397674e-05 8.343264e-05 8.267671e-05 8.167865e-05 8.056641e-05 7.913820e-05 7.772243e-05 7.591740e-05 7.426782e-05 7.215962e-05 7.035050e-05 6.802222e-05 6.612085e-05 6.365478e-05 6.171365e-05 5.918392e-05 5.723795e-05 5.470706e-05 5.277582e-05 5.029465e-05 4.838787e-05 4.599773e-05 4.412177e-05 4.185703e-05 4.002024e-05 3.791006e-05 3.612581e-05 3.419455e-05 3.248166e-05 3.074815e-05 2.912938e-05 2.760552e-05 2.610494e-05 2.479442e-05 2.343452e-05 2.233210e-05 2.113142e-05 2.022285e-05 1.919437e-05 1.845719e-05 1.760748e-05 
2.540961e-05 2.436799e-05 2.360316e-05 2.282402e-05 2.216796e-05 2.163514e-05 2.103063e-05 2.072239e-05 2.011449e-05 2.000537e-05 1.934460e-05 1.940722e-05 1.865251e-05 1.885923e-05 1.798060e-05 1.830499e-05 1.728582e-05 1.770391e-05 1.654288e-05 1.703439e-05 1.574706e-05 1.629688e-05 1.491693e-05 1.551717e-05 1.409745e-05 1.475032e-05 1.336358e-05 1.408516e-05 1.282427e-05 1.364853e-05 1.262538e-05 1.360746e-05 1.294959e-05 1.416629e-05 1.400968e-05 1.555517e-05 1.603199e-05 1.800693e-05 1.922797e-05 2.172193e-05 2.375538e-05 2.682474e-05 2.967508e-05 3.332127e-05 3.691401e-05 4.106836e-05 4.524656e-05 4.976764e-05 5.430394e-05 5.899053e-05 6.361484e-05 6.823354e-05 7.267174e-05 7.699356e-05 8.100921e-05 8.484702e-05 8.827677e-05 9.151466e-05 9.428933e-05 9.689749e-05 9.904471e-05 1.010769e-04 1.027056e-04 1.042808e-04 1.055522e-04 1.068256e-04 1.079175e-04 1.090478e-04 1.101203e-04 1.112394e-04 1.124079e-04 1.135992e-04 1.149178e-04 1.162052e-04 1.176622e-04 1.190099e-04 1.205338e-04 1.218554e-04 1.233282e-04 1.245031e-04 1.257783e-04 1.266719e-04 1.275953e-04 1.280801e-04 1.285099e-04 1.284851e-04 1.283103e-04 1.277168e-04 1.268710e-04 1.256996e-04 1.241683e-04 1.224598e-04 1.202805e-04 1.181162e-04 1.153701e-04 1.128565e-04 1.096551e-04 1.069044e-04 1.033725e-04 1.004854e-04 9.674555e-05 9.379965e-05 8.996169e-05 8.700732e-05 8.316366e-05 8.022821e-05 7.645425e-05 7.355098e-05 6.990871e-05 6.704687e-05 6.358879e-05 6.078168e-05 5.755325e-05 5.482247e-05 5.186229e-05 4.923797e-05 4.657620e-05 4.409419e-05 4.175018e-05 3.944786e-05 3.742809e-05 3.533996e-05 3.363686e-05 3.179101e-05 3.038314e-05 2.879895e-05 2.765230e-05 2.633941e-05 
3.383178e-05 3.238500e-05 3.133265e-05 3.024742e-05 2.934643e-05 2.860106e-05 2.777330e-05 2.733833e-05 2.650846e-05 2.634908e-05 2.544882e-05 2.552733e-05 2.449957e-05 2.477767e-05 2.358021e-05 2.402101e-05 2.262997e-05 2.319989e-05 2.161250e-05 2.228303e-05 2.052002e-05 2.126981e-05 1.937716e-05 2.019484e-05 1.824508e-05 1.913310e-05 1.722618e-05 1.820580e-05 1.646902e-05 1.758587e-05 1.617229e-05 1.750081e-05 1.658459e-05 1.822910e-05 1.799585e-05 2.008500e-05 2.071538e-05 2.338770e-05 2.503375e-05 2.841370e-05 3.116983e-05 3.533742e-05 3.921135e-05 4.417182e-05 4.906340e-05 5.472581e-05 6.042185e-05 6.659498e-05 7.278560e-05 7.919550e-05 8.551205e-05 9.183983e-05 9.790813e-05 1.038404e-04 1.093379e-04 1.146180e-04 1.193223e-04 1.237908e-04 1.276080e-04 1.312230e-04 1.341910e-04 1.370244e-04 1.392913e-04 1.415034e-04 1.432875e-04 1.450876e-04 1.466289e-04 1.482304e-04 1.497438e-04 1.513234e-04 1.529624e-04 1.546309e-04 1.564662e-04 1.582537e-04 1.602676e-04 1.621238e-04 1.642184e-04 1.660256e-04 1.680410e-04 1.696360e-04 1.713751e-04 1.725763e-04 1.738316e-04 1.744678e-04 1.750488e-04 1.749850e-04 1.747425e-04 1.739009e-04 1.727457e-04 1.711163e-04 1.690295e-04 1.666701e-04 1.637029e-04 1.607268e-04 1.569903e-04 1.535443e-04 1.491900e-04 1.454280e-04 1.406250e-04 1.366836e-04 1.315977e-04 1.275799e-04 1.223586e-04 1.183298e-04 1.130966e-04 1.090905e-04 1.039462e-04 9.997789e-05 9.500624e-05 9.108678e-05 8.635962e-05 8.250725e-05 7.808786e-05 7.433334e-05 7.027622e-05 6.666263e-05 6.301081e-05 5.958913e-05 5.637058e-05 5.319355e-05 5.041816e-05 4.753412e-05 4.519226e-05 4.264039e-05 4.070322e-05 3.851051e-05 3.693193e-05 3.511200e-05 
4.201132e-05 4.009785e-05 3.869153e-05 3.724117e-05 3.603331e-05 3.501921e-05 3.391091e-05 3.329703e-05 3.219315e-05 3.193734e-05 3.075189e-05 3.080886e-05 2.947020e-05 2.979421e-05 2.824981e-05 2.879702e-05 2.701772e-05 2.774809e-05 2.573157e-05 2.661071e-05 2.438420e-05 2.538543e-05 2.300761e-05 2.411507e-05 2.167736e-05 2.289055e-05 2.051784e-05 2.185800e-05 1.970860e-05 2.122623e-05 1.949014e-05 2.127166e-05 2.016544e-05 2.233594e-05 2.209156e-05 2.480937e-05 2.565447e-05 2.909394e-05 3.122240e-05 3.554397e-05 3.907890e-05 4.438981e-05 4.934571e-05 5.566002e-05 6.191440e-05 6.912402e-05 7.640957e-05 8.427754e-05 9.220225e-05 1.003844e-04 1.084799e-04 1.165728e-04 1.243629e-04 1.319687e-04 1.390428e-04 1.458350e-04 1.519100e-04 1.576851e-04 1.626421e-04 1.673454e-04 1.712324e-04 1.749530e-04 1.779573e-04 1.808953e-04 1.832917e-04 1.857081e-04 1.877966e-04 1.899560e-04 1.920034e-04 1.941233e-04 1.963173e-04 1.985315e-04 2.009550e-04 2.032963e-04 2.059217e-04 2.083225e-04 2.110229e-04 2.133327e-04 2.159054e-04 2.179182e-04 2.201156e-04 2.216040e-04 2.231672e-04 2.239183e-04 2.246108e-04 2.244586e-04 2.240968e-04 2.229478e-04 2.214234e-04 2.192710e-04 2.165644e-04 2.134876e-04 2.096677e-04 2.058154e-04 2.010252e-04 1.965876e-04 1.910198e-04 1.861929e-04 1.800602e-04 1.750150e-04 1.685230e-04 1.633850e-04 1.567151e-04 1.515601e-04 1.448632e-04 1.397269e-04 1.331271e-04 1.280245e-04 1.216268e-04 1.165706e-04 1.104685e-04 1.054841e-04 9.976243e-05 9.489322e-05 8.962657e-05 8.493239e-05 8.018057e-05 7.573073e-05 7.153313e-05 6.739777e-05 6.376929e-05 6.001138e-05 5.694073e-05 5.361030e-05 5.106084e-05 4.819171e-05 4.610450e-05 4.371320e-05 
5.020548e-05 4.776298e-05 4.598334e-05 4.412239e-05 4.259604e-05 4.128407e-05 3.988838e-05 3.908138e-05 3.769776e-05 3.734389e-05 3.586438e-05 3.590753e-05 3.424132e-05 3.462440e-05 3.270408e-05 3.337201e-05 3.115927e-05 3.206156e-05 2.955198e-05 3.064503e-05 2.787176e-05 2.912153e-05 2.615771e-05 2.754330e-05 2.450332e-05 2.602239e-05 2.306227e-05 2.473866e-05 2.205527e-05 2.394818e-05 2.177679e-05 2.398953e-05 2.259748e-05 2.528181e-05 2.495548e-05 2.830614e-05 2.932757e-05 3.356223e-05 3.617341e-05 4.149595e-05 4.585311e-05 5.240423e-05 5.853009e-05 6.633603e-05 7.408316e-05 8.301769e-05 9.205760e-05 1.018321e-04 1.116797e-04 1.218694e-04 1.319435e-04 1.420476e-04 1.517568e-04 1.612795e-04 1.701142e-04 1.786478e-04 1.862577e-04 1.935471e-04 1.997857e-04 2.057600e-04 2.106878e-04 2.154538e-04 2.193019e-04 2.231034e-04 2.262086e-04 2.293632e-04 2.320911e-04 2.349194e-04 2.375916e-04 2.403551e-04 2.431951e-04 2.460516e-04 2.491539e-04 2.521378e-04 2.554627e-04 2.584868e-04 2.618758e-04 2.647531e-04 2.679578e-04 2.704357e-04 2.731548e-04 2.749565e-04 2.768766e-04 2.777442e-04 2.785795e-04 2.783139e-04 2.778423e-04 2.763341e-04 2.744258e-04 2.716730e-04 2.683063e-04 2.644134e-04 2.596752e-04 2.548329e-04 2.489014e-04 2.433500e-04 2.364637e-04 2.304483e-04 2.228684e-04 2.165985e-04 2.085753e-04 2.021996e-04 1.939510e-04 1.875538e-04 1.792598e-04 1.728758e-04 1.646847e-04 1.583248e-04 1.503646e-04 1.440417e-04 1.364297e-04 1.301765e-04 1.230220e-04 1.168969e-04 1.102983e-04 1.043814e-04 9.841806e-05 9.280102e-05 8.752616e-05 8.230029e-05 7.773498e-05 7.298111e-05 6.911267e-05 6.489423e-05 6.167782e-05 5.803733e-05 5.540015e-05 5.235846e-05 
5.800285e-05 5.493465e-05 5.267740e-05 5.031241e-05 4.836977e-05 4.667000e-05 4.489555e-05 4.381064e-05 4.206307e-05 4.153451e-05 3.968543e-05 3.965055e-05 3.759231e-05 3.798798e-05 3.564129e-05 3.640697e-05 3.372778e-05 3.480805e-05 3.179323e-05 3.313969e-05 2.983107e-05 3.140449e-05 2.789109e-05 2.966470e-05 2.608338e-05 2.804857e-05 2.458360e-05 2.675878e-05 2.364053e-05 2.608279e-05 2.358499e-05 2.640235e-05 2.483596e-05 2.819527e-05 2.789508e-05 3.201889e-05 3.331803e-05 3.846332e-05 4.165233e-05 4.806781e-05 5.333989e-05 6.120571e-05 6.859762e-05 7.796080e-05 8.730591e-05 9.803084e-05 1.089432e-04 1.206964e-04 1.325985e-04 1.448789e-04 1.570746e-04 1.692853e-04 1.810646e-04 1.926119e-04 2.033630e-04 2.137572e-04 2.230604e-04 2.319936e-04 2.396745e-04 2.470587e-04 2.531901e-04 2.591487e-04 2.640058e-04 2.688232e-04 2.728037e-04 2.768497e-04 2.803811e-04 2.840265e-04 2.874800e-04 2.910230e-04 2.946506e-04 2.982660e-04 3.021664e-04 3.058837e-04 3.099991e-04 3.137071e-04 3.178430e-04 3.213161e-04 3.251764e-04 3.281157e-04 3.313468e-04 3.334281e-04 3.356651e-04 3.365892e-04 3.375017e-04 3.370409e-04 3.363749e-04 3.344097e-04 3.320198e-04 3.285593e-04 3.244285e-04 3.196097e-04 3.138489e-04 3.079111e-04 3.007378e-04 2.939765e-04 2.856766e-04 2.783871e-04 2.692680e-04 2.616954e-04 2.520460e-04 2.443558e-04 2.344232e-04 2.266995e-04 2.166856e-04 2.089545e-04 1.990279e-04 1.912928e-04 1.816049e-04 1.738795e-04 1.645763e-04 1.569055e-04 1.481286e-04 1.405930e-04 1.324726e-04 1.251797e-04 1.178222e-04 1.108918e-04 1.043686e-04 9.791632e-05 9.225700e-05 8.638233e-05 8.157276e-05 7.635156e-05 7.233732e-05 6.781882e-05 6.451136e-05 6.071851e-05 
6.576427e-05 6.197196e-05 5.920404e-05 5.626182e-05 5.388168e-05 5.174522e-05 4.957829e-05 4.818875e-05 4.606554e-05 4.535425e-05 4.311945e-05 4.301236e-05 4.053429e-05 4.095636e-05 3.813662e-05 3.901559e-05 3.579820e-05 3.706769e-05 3.344678e-05 3.504881e-05 3.107402e-05 3.296139e-05 2.874057e-05 3.088033e-05 2.657963e-05 2.895908e-05 2.480109e-05 2.743756e-05 2.369826e-05 2.665271e-05 2.365717e-05 2.704934e-05 2.516461e-05 2.918447e-05 2.880523e-05 3.371232e-05 3.523319e-05 4.133432e-05 4.510341e-05 5.270331e-05 5.895759e-05 6.828598e-05 7.707911e-05 8.821003e-05 9.935313e-05 1.121413e-04 1.251807e-04 1.392395e-04 1.534889e-04 1.682249e-04 1.828527e-04 1.975529e-04 2.117098e-04 2.256613e-04 2.386164e-04 2.512294e-04 2.624831e-04 2.733848e-04 2.827313e-04 2.918116e-04 2.993397e-04 3.067392e-04 3.127755e-04 3.188255e-04 3.238373e-04 3.289674e-04 3.334519e-04 3.380902e-04 3.424728e-04 3.469590e-04 3.515212e-04 3.560486e-04 3.608915e-04 3.654829e-04 3.705268e-04 3.750428e-04 3.800531e-04 3.842241e-04 3.888534e-04 3.923279e-04 3.961660e-04 3.985669e-04 4.011931e-04 4.021753e-04 4.032101e-04 4.025140e-04 4.016657e-04 3.991607e-04 3.962646e-04 3.919736e-04 3.870148e-04 3.811140e-04 3.742288e-04 3.670164e-04 3.584672e-04 3.503062e-04 3.404339e-04 3.316808e-04 3.208474e-04 3.117892e-04 3.003284e-04 2.911472e-04 2.793383e-04 2.701133e-04 2.581809e-04 2.489224e-04 2.370556e-04 2.277532e-04 2.161287e-04 2.067944e-04 1.955905e-04 1.862830e-04 1.756797e-04 1.665068e-04 1.566722e-04 1.477761e-04 1.388492e-04 1.303845e-04 1.224587e-04 1.145716e-04 1.076867e-04 1.005000e-04 9.464063e-05 8.824590e-05 8.334718e-05 7.780270e-05 7.375859e-05 6.909096e-05 
7.293999e-05 6.828604e-05 6.485921e-05 6.120540e-05 5.824754e-05 5.554302e-05 5.285079e-05 5.103017e-05 4.840652e-05 4.739495e-05 4.465943e-05 4.437759e-05 4.137758e-05 4.174628e-05 3.836860e-05 3.931269e-05 3.549471e-05 3.694582e-05 3.268461e-05 3.458280e-05 2.994103e-05 3.223586e-05 2.734387e-05 2.999654e-05 2.505073e-05 2.803941e-05 2.329814e-05 2.662844e-05 2.240693e-05 2.612815e-05 2.279327e-05 2.701846e-05 2.498211e-05 2.990601e-05 2.961241e-05 3.551687e-05 3.741544e-05 4.464946e-05 4.914494e-05 5.807038e-05 6.544856e-05 7.635366e-05 8.669403e-05 9.969351e-05 1.127942e-04 1.277471e-04 1.430928e-04 1.595704e-04 1.763670e-04 1.936898e-04 2.109672e-04 2.283079e-04 2.450720e-04 2.615983e-04 2.769939e-04 2.920143e-04 3.054591e-04 3.185348e-04 3.297915e-04 3.407885e-04 3.499626e-04 3.590368e-04 3.665068e-04 3.740315e-04 3.803323e-04 3.867899e-04 3.924826e-04 3.983486e-04 4.039037e-04 4.095478e-04 4.152646e-04 4.208870e-04 4.268573e-04 4.324648e-04 4.385771e-04 4.439954e-04 4.499689e-04 4.548819e-04 4.603156e-04 4.643203e-04 4.687496e-04 4.714196e-04 4.743735e-04 4.753232e-04 4.763805e-04 4.753253e-04 4.741666e-04 4.709731e-04 4.674240e-04 4.621389e-04 4.561971e-04 4.490471e-04 4.408840e-04 4.322378e-04 4.221677e-04 4.124642e-04 4.008852e-04 3.905447e-04 3.778683e-04 3.672140e-04 3.538075e-04 3.430255e-04 3.291857e-04 3.183345e-04 3.042960e-04 2.933570e-04 2.793233e-04 2.682666e-04 2.544420e-04 2.432810e-04 2.298872e-04 2.187052e-04 2.059752e-04 1.949208e-04 1.830763e-04 1.723393e-04 1.615634e-04 1.513424e-04 1.417579e-04 1.322341e-04 1.238928e-04 1.152124e-04 1.080963e-04 1.003637e-04 9.439379e-05 8.767204e-05 8.272076e-05 7.703568e-05 
7.997500e-05 7.431252e-05 7.017322e-05 6.569596e-05 6.212375e-05 5.877283e-05 5.552961e-05 5.323001e-05 5.008346e-05 4.874933e-05 4.548450e-05 4.502453e-05 4.145723e-05 4.177990e-05 3.777135e-05 3.878973e-05 3.426120e-05 3.589664e-05 3.084190e-05 3.302607e-05 2.751958e-05 3.019547e-05 2.439486e-05 2.751830e-05 2.166119e-05 2.520554e-05 1.960213e-05 2.356865e-05 1.859249e-05 2.302803e-05 1.910719e-05 2.412792e-05 2.173684e-05 2.755226e-05 2.719966e-05 3.412477e-05 3.632762e-05 4.476646e-05 4.999740e-05 6.038401e-05 6.898701e-05 8.168341e-05 9.376895e-05 1.089416e-04 1.242920e-04 1.418062e-04 1.598316e-04 1.792058e-04 1.989807e-04 2.194273e-04 2.398127e-04 2.603598e-04 2.801861e-04 2.998499e-04 3.181126e-04 3.360727e-04 3.520911e-04 3.678240e-04 3.813250e-04 3.946649e-04 4.057764e-04 4.168962e-04 4.260596e-04 4.353834e-04 4.432144e-04 4.512891e-04 4.584227e-04 4.657818e-04 4.727388e-04 4.797888e-04 4.868864e-04 4.938359e-04 5.011523e-04 5.079886e-04 5.153748e-04 5.218824e-04 5.290051e-04 5.348129e-04 5.412127e-04 5.458578e-04 5.510112e-04 5.540095e-04 5.573906e-04 5.583089e-04 5.594488e-04 5.579728e-04 5.565169e-04 5.525088e-04 5.482666e-04 5.418007e-04 5.347797e-04 5.261440e-04 5.165533e-04 5.062046e-04 4.944196e-04 4.828937e-04 4.693829e-04 4.571810e-04 4.424182e-04 4.299083e-04 4.143019e-04 4.016714e-04 3.855367e-04 3.728119e-04 3.563908e-04 3.435098e-04 3.270179e-04 3.139206e-04 2.975919e-04 2.842904e-04 2.683969e-04 2.550040e-04 2.398427e-04 2.265592e-04 2.124169e-04 1.994927e-04 1.866061e-04 1.742960e-04 1.628230e-04 1.513517e-04 1.413587e-04 1.309018e-04 1.223675e-04 1.130460e-04 1.058753e-04 9.775894e-05 9.179976e-05 8.491491e-05 
8.620009e-05 7.934222e-05 7.428917e-05 6.880325e-05 6.442407e-05 6.024202e-05 5.626219e-05 5.330117e-05 4.945307e-05 4.762115e-05 4.365706e-05 4.285893e-05 3.856675e-05 3.870947e-05 3.393056e-05 3.492856e-05 2.957584e-05 3.135405e-05 2.542717e-05 2.792166e-05 2.151617e-05 2.467257e-05 1.798116e-05 2.175322e-05 1.505917e-05 1.941105e-05 1.307596e-05 1.799190e-05 1.244140e-05 1.794539e-05 1.365679e-05 1.984201e-05 1.733597e-05 2.439874e-05 2.423127e-05 3.249541e-05 3.523765e-05 4.514750e-05 5.133506e-05 6.339572e-05 7.343601e-05 8.809558e-05 1.021429e-04 1.196405e-04 1.374761e-04 1.577055e-04 1.786748e-04 2.011192e-04 2.241674e-04 2.479403e-04 2.717547e-04 2.957421e-04 3.189691e-04 3.420344e-04 3.635125e-04 3.847042e-04 4.036510e-04 4.223589e-04 4.384659e-04 4.544906e-04 4.679101e-04 4.814378e-04 4.926756e-04 5.041739e-04 5.139228e-04 5.239911e-04 5.329511e-04 5.421654e-04 5.508924e-04 5.596779e-04 5.684885e-04 5.770448e-04 5.859855e-04 5.942662e-04 6.031356e-04 6.108754e-04 6.192792e-04 6.260496e-04 6.334677e-04 6.387479e-04 6.446018e-04 6.478564e-04 6.515735e-04 6.523293e-04 6.534051e-04 6.513274e-04 6.493860e-04 6.443438e-04 6.391940e-04 6.313041e-04 6.229792e-04 6.126094e-04 6.013725e-04 5.890874e-04 5.753872e-04 5.618349e-04 5.462136e-04 5.319810e-04 5.149646e-04 5.004533e-04 4.824690e-04 4.678429e-04 4.491970e-04 4.344209e-04 4.153396e-04 4.002857e-04 3.809872e-04 3.655578e-04 3.463139e-04 3.305291e-04 3.116844e-04 2.957084e-04 2.776528e-04 2.617643e-04 2.448767e-04 2.294081e-04 2.139984e-04 1.992744e-04 1.855444e-04 1.718385e-04 1.598695e-04 1.473840e-04 1.371464e-04 1.260120e-04 1.173868e-04 1.076717e-04 1.004744e-04 9.219743e-05 
9.211799e-05 8.385157e-05 7.780059e-05 7.113930e-05 6.589209e-05 6.075615e-05 5.599370e-05 5.228815e-05 4.769703e-05 4.531728e-05 4.060381e-05 3.944161e-05 3.435043e-05 3.430037e-05 2.863706e-05 2.960293e-05 2.325786e-05 2.515707e-05 1.812624e-05 2.089085e-05 1.328887e-05 1.686331e-05 8.925309e-06 1.326318e-05 5.335310e-06 1.039957e-05 2.920500e-06 8.691333e-06 2.169359e-06 8.663332e-06 3.655481e-06 1.095770e-05 8.056621e-06 1.636266e-05 1.619050e-05 2.584400e-05 2.903940e-05 4.053782e-05 4.771053e-05 6.164763e-05 7.327928e-05 9.021055e-05 1.065073e-04 1.267632e-04 1.475043e-04 1.710140e-04 1.954646e-04 2.216644e-04 2.486086e-04 2.764825e-04 3.043906e-04 3.326390e-04 3.599281e-04 3.872141e-04 4.125288e-04 4.377286e-04 4.601625e-04 4.825515e-04 5.017553e-04 5.210886e-04 5.372480e-04 5.537278e-04 5.674298e-04 5.815801e-04 5.936130e-04 6.061033e-04 6.172455e-04 6.287093e-04 6.395570e-04 6.504478e-04 6.613142e-04 6.718236e-04 6.827149e-04 6.927574e-04 7.034100e-04 7.126600e-04 7.226104e-04 7.305696e-04 7.392313e-04 7.453091e-04 7.520446e-04 7.556421e-04 7.598275e-04 7.604217e-04 7.615096e-04 7.587373e-04 7.563210e-04 7.500551e-04 7.439331e-04 7.343382e-04 7.245654e-04 7.121070e-04 6.990064e-04 6.843869e-04 6.684974e-04 6.525127e-04 6.344724e-04 6.178231e-04 5.982289e-04 5.813608e-04 5.606653e-04 5.437083e-04 5.222034e-04 5.050354e-04 4.829205e-04 4.653206e-04 4.428092e-04 4.246249e-04 4.020294e-04 3.832879e-04 3.610395e-04 3.419703e-04 3.205726e-04 3.015542e-04 2.814988e-04 2.629694e-04 2.446547e-04 2.270271e-04 2.107075e-04 1.943159e-04 1.800896e-04 1.651697e-04 1.529963e-04 1.396910e-04 1.294232e-04 1.178000e-04 1.092165e-04 9.928634e-05 
9.698260e-05 8.705922e-05 7.974283e-05 7.165548e-05 6.528063e-05 5.893476e-05 5.313441e-05 4.842398e-05 4.283745e-05 3.965067e-05 3.393920e-05 3.216504e-05 2.603391e-05 2.556951e-05 1.879591e-05 1.955355e-05 1.201655e-05 1.392758e-05 5.633802e-06 8.647018e-06 -2.544685e-07 3.820244e-06 -5.397452e-06 -2.998891e-07 -9.414660e-06 -3.334897e-06 -1.182656e-05 -4.801706e-06 -1.208204e-05 -4.126716e-06 -9.570379e-06 -6.408669e-07 -3.603696e-06 6.455122e-06 6.634760e-06 1.814714e-05 2.214988e-05 3.563800e-05 4.413271e-05 6.027058e-05 7.381490e-05 9.327983e-05 1.121486e-04 1.353933e-04 1.593866e-04 1.864109e-04 2.147304e-04 2.449513e-04 2.762247e-04 3.085113e-04 3.409840e-04 3.738539e-04 4.057010e-04 4.376144e-04 4.672755e-04 4.969328e-04 5.233728e-04 5.499323e-04 5.727636e-04 5.959321e-04 6.153786e-04 6.353681e-04 6.521003e-04 6.694798e-04 6.843760e-04 6.998660e-04 7.137679e-04 7.280348e-04 7.415551e-04 7.550525e-04 7.684722e-04 7.813579e-04 7.946149e-04 8.067444e-04 8.194916e-04 8.304682e-04 8.421608e-04 8.514145e-04 8.613982e-04 8.682733e-04 8.758579e-04 8.797008e-04 8.842238e-04 8.844717e-04 8.853593e-04 8.816318e-04 8.784663e-04 8.706548e-04 8.632476e-04 8.515858e-04 8.400399e-04 8.251217e-04 8.098481e-04 7.925502e-04 7.742003e-04 7.554956e-04 7.348093e-04 7.155201e-04 6.931447e-04 6.737379e-04 6.501078e-04 6.306308e-04 6.059704e-04 5.861600e-04 5.606006e-04 5.401047e-04 5.138433e-04 4.924473e-04 4.658582e-04 4.436203e-04 4.172675e-04 3.945262e-04 3.690805e-04 3.463612e-04 3.224728e-04 3.003553e-04 2.785394e-04 2.575443e-04 2.381176e-04 2.186425e-04 2.017155e-04 1.840210e-04 1.695298e-04 1.537571e-04 1.415114e-04 1.277119e-04 1.174393e-04 1.056030e-04 
1.013195e-04 8.943497e-05 8.072383e-05 7.096566e-05 6.336420e-05 5.561878e-05 4.870117e-05 4.284531e-05 3.618937e-05 3.209551e-05 2.529934e-05 2.284225e-05 1.555041e-05 1.461591e-05 6.554646e-06 7.048593e-06 -1.934878e-06 -8.139258e-08 -9.984431e-06 -6.817278e-06 -1.746134e-05 -1.301278e-05 -2.404193e-05 -1.834168e-05 -2.924022e-05 -2.232096e-05 -3.244774e-05 -2.434133e-05 -3.297713e-05 -2.369977e-05 -3.009779e-05 -1.961848e-05 -2.303959e-05 -1.122353e-05 -1.094027e-05 2.527691e-06 7.248755e-06 2.292284e-05 3.281414e-05 5.146306e-05 6.716506e-05 8.961339e-05 1.114792e-04 1.383309e-04 1.661839e-04 1.975261e-04 2.304882e-04 2.657091e-04 3.022095e-04 3.400229e-04 3.780214e-04 4.166996e-04 4.540632e-04 4.917934e-04 5.267023e-04 5.619475e-04 5.932066e-04 6.249662e-04 6.521429e-04 6.800575e-04 7.034284e-04 7.277242e-04 7.480690e-04 7.693788e-04 7.876921e-04 8.068132e-04 8.240170e-04 8.416716e-04 8.583991e-04 8.750539e-04 8.915450e-04 9.073246e-04 9.234334e-04 9.381246e-04 9.534042e-04 9.665229e-04 9.803362e-04 9.912226e-04 1.002841e-03 1.010756e-03 1.019435e-03 1.023654e-03 1.028688e-03 1.028592e-03 1.029373e-03 1.024552e-03 1.020638e-03 1.010995e-03 1.002196e-03 9.880406e-04 9.745031e-04 9.565884e-04 9.388236e-04 9.182530e-04 8.970566e-04 8.750417e-04 8.512928e-04 8.288230e-04 8.032446e-04 7.808178e-04 7.538264e-04 7.313788e-04 7.031104e-04 6.801864e-04 6.506779e-04 6.267464e-04 5.961640e-04 5.709248e-04 5.397130e-04 5.132628e-04 4.821460e-04 4.549636e-04 4.248174e-04 3.976157e-04 3.692835e-04 3.428210e-04 3.169581e-04 2.918893e-04 2.688844e-04 2.456850e-04 2.256605e-04 2.046210e-04 1.874840e-04 1.687436e-04 1.542527e-04 1.378449e-04 1.256691e-04 1.115600e-04 
1.043875e-04 9.021463e-05 7.975641e-05 6.799029e-05 5.881493e-05 4.931656e-05 4.093267e-05 3.356081e-05 2.548068e-05 2.009762e-05 1.185574e-05 8.335496e-06 -4.796110e-07 -2.240383e-06 -1.194214e-05 -1.201398e-05 -2.276915e-05 -2.118702e-05 -3.297524e-05 -2.974835e-05 -4.234084e-05 -3.747212e-05 -5.043279e-05 -4.393643e-05 -5.664218e-05 -4.854840e-05 -6.022796e-05 -5.057604e-05 -6.037037e-05 -4.919646e-05 -5.623413e-05 -4.354867e-05 -4.700743e-05 -3.274032e-05 -3.185884e-05 -1.576079e-05 -9.797200e-06 8.664662e-06 2.046840e-05 4.212894e-05 6.048297e-05 8.632329e-05 1.116753e-04 1.424926e-04 1.747225e-04 2.107454e-04 2.489237e-04 2.895562e-04 3.319232e-04 3.757469e-04 4.199663e-04 4.650120e-04 5.086225e-04 5.527992e-04 5.937051e-04 6.352325e-04 6.720732e-04 7.097885e-04 7.420922e-04 7.755655e-04 8.036708e-04 8.331326e-04 8.579324e-04 8.840604e-04 9.066570e-04 9.302952e-04 9.516670e-04 9.735541e-04 9.943169e-04 1.014891e-03 1.035199e-03 1.054514e-03 1.074095e-03 1.091841e-03 1.110119e-03 1.125712e-03 1.141942e-03 1.154633e-03 1.168012e-03 1.176986e-03 1.186724e-03 1.191196e-03 1.196561e-03 1.195868e-03 1.196240e-03 1.189952e-03 1.184890e-03 1.172938e-03 1.162285e-03 1.145087e-03 1.129077e-03 1.107599e-03 1.086896e-03 1.062535e-03 1.038124e-03 1.012388e-03 9.852960e-04 9.593524e-04 9.303354e-04 9.046637e-04 8.740320e-04 8.483630e-04 8.160649e-04 7.896535e-04 7.555646e-04 7.276439e-04 6.918940e-04 6.620824e-04 6.252407e-04 5.937302e-04 5.567722e-04 5.242636e-04 4.883625e-04 4.558331e-04 4.220941e-04 3.905326e-04 3.597863e-04 3.300017e-04 3.027130e-04 2.752543e-04 2.515415e-04 2.267096e-04 2.064256e-04 1.843330e-04 1.671603e-04 1.477978e-04 1.333256e-04 1.166148e-04 
1.066907e-04 8.980111e-05 7.740106e-05 6.327212e-05 5.236678e-05 4.082677e-05 3.084482e-05 2.172611e-05 1.209600e-05 5.241073e-06 -4.588628e-06 -9.317239e-06 -1.983906e-05 -2.254497e-05 -3.413748e-05 -3.487904e-05 -4.774718e-05 -4.653950e-05 -6.066815e-05 -5.750446e-05 -7.263621e-05 -6.751796e-05 -8.315071e-05 -7.610180e-05 -9.149667e-05 -8.254839e-05 -9.675608e-05 -8.592070e-05 -9.785144e-05 -8.511540e-05 -9.365915e-05 -7.899423e-05 -8.314486e-05 -6.648717e-05 -6.539220e-05 -4.653811e-05 -3.943855e-05 -1.788387e-05 -4.014261e-06 2.113558e-05 4.253936e-05 7.243861e-05 1.019191e-04 1.375951e-04 1.750930e-04 2.169479e-04 2.614666e-04 3.089167e-04 3.584547e-04 4.098989e-04 4.617378e-04 5.148758e-04 5.661301e-04 6.184891e-04 6.667070e-04 7.161713e-04 7.597812e-04 8.049622e-04 8.434461e-04 8.838160e-04 9.175986e-04 9.533977e-04 9.835245e-04 1.015504e-03 1.043223e-03 1.072313e-03 1.098681e-03 1.125672e-03 1.151288e-03 1.176608e-03 1.201521e-03 1.225152e-03 1.248937e-03 1.270458e-03 1.292382e-03 1.311082e-03 1.330277e-03 1.345288e-03 1.360871e-03 1.371278e-03 1.382413e-03 1.387344e-03 1.393272e-03 1.391993e-03 1.392070e-03 1.384109e-03 1.377876e-03 1.363175e-03 1.350488e-03 1.329585e-03 1.310759e-03 1.284882e-03 1.260763e-03 1.231701e-03 1.203517e-03 1.173176e-03 1.142164e-03 1.111963e-03 1.078940e-03 1.049338e-03 1.014490e-03 9.849482e-04 9.479897e-04 9.173848e-04 8.779884e-04 8.452526e-04 8.035023e-04 7.681556e-04 7.247739e-04 6.871336e-04 6.433990e-04 6.044433e-04 5.618812e-04 5.229100e-04 4.829296e-04 4.452082e-04 4.088385e-04 3.733594e-04 3.411484e-04 3.085476e-04 2.806056e-04 2.511980e-04 2.273147e-04 2.011834e-04 1.809553e-04 1.580437e-04 1.409703e-04 1.211496e-04 