# vtk DataFile Version 2.0
Comment goes here
ASCII

DATASET STRUCTURED_POINTS
FIELD FieldData 1
TIME 1 1 double
0.20500000
DIMENSIONS    128   128   1

ORIGIN    0.000   0.000   0.000
SPACING   0.039062 0.039062   1.000

POINT_DATA   16384
SCALARS Omega double
LOOKUP_TABLE default

-7.025065e-15 -6.164246e-15 -2.594478e-15 3.206199e-15 -8.188416e-15 -8.409491e-15 5.740824e-15 5.032646e-15 -1.168629e-15 1.386714e-14 3.448934e-15 -8.046773e-17 -1.752857e-15 -4.490288e-15 9.365934e-16 -1.290854e-14 -1.590138e-14 -5.951680e-16 1.260933e-15 -1.866194e-14 -2.174558e-14 -2.748605e-14 -7.093750e-15 -2.265752e-14 -1.335671e-14 -2.011122e-14 -1.919805e-14 -5.067691e-14 -1.449002e-14 -3.942817e-16 2.632423e-14 -3.870416e-14 -5.799468e-14 -5.546986e-14 -2.113795e-14 -4.347513e-14 -2.256340e-14 -2.029451e-14 -4.678517e-14 -2.107485e-14 1.317328e-15 8.590120e-16 -3.724302e-14 -4.295083e-14 -1.155597e-15 -1.146652e-15 1.697595e-14 -9.876611e-15 -2.367174e-14 -2.532491e-14 -2.359861e-14 -6.145712e-15 1.214234e-14 1.934411e-14 1.561468e-14 1.928335e-14 1.602194e-14 2.792458e-14 2.035744e-14 1.633799e-14 9.802996e-15 2.846978e-14 3.269553e-14 2.267993e-14 2.084683e-14 2.335404e-14 4.402174e-14 3.287054e-14 1.534954e-14 2.419374e-14 2.031744e-14 -1.508898e-14 2.538121e-14 -5.202615e-14 -2.738050e-14 -9.415204e-15 -5.178733e-14 -1.281725e-14 -1.323235e-14 2.479372e-14 9.444569e-15 2.522054e-14 1.488623e-14 2.605174e-14 3.466338e-14 3.702339e-14 2.173328e-14 3.993579e-14 8.571275e-15 3.432448e-14 6.287876e-14 4.650692e-14 2.141877e-14 6.637561e-15 4.314734e-14 2.144591e-17 1.392254e-14 3.345311e-14 4.590187e-14 6.099998e-15 3.825762e-14 1.287430e-14 3.576217e-14 4.307276e-14 4.029831e-14 3.711628e-14 1.556325e-14 1.058821e-14 5.190207e-15 -7.891404e-15 -3.563557e-17 -1.495845e-14 -6.376287e-15 -1.775999e-14 -1.609548e-14 -8.757533e-15 -1.119230e-14 -1.670977e-14 -2.303131e-14 -1.365463e-14 -1.227372e-15 4.200702e-15 1.049591e-14 -4.458000e-15 -6.418272e-15 -1.319299e-14 -1.593638e-14 -1.479256e-14 
8.577054e-06 8.404325e-06 8.096566e-06 7.941827e-06 7.737108e-06 7.587058e-06 7.471205e-06 7.314537e-06 7.270538e-06 7.098049e-06 7.107697e-06 6.912298e-06 6.957797e-06 6.734473e-06 6.799928e-06 6.545714e-06 6.618410e-06 6.332443e-06 6.403904e-06 6.087620e-06 6.154429e-06 5.811975e-06 5.876397e-06 5.515314e-06 5.585766e-06 5.217942e-06 5.309321e-06 4.952130e-06 5.085943e-06 4.763293e-06 4.967412e-06 4.710290e-06 5.017967e-06 4.863855e-06 5.311549e-06 5.302116e-06 5.925719e-06 6.102377e-06 6.931726e-06 7.329193e-06 8.381372e-06 9.020132e-06 1.029278e-05 1.117209e-05 1.263849e-05 1.373200e-05 1.533987e-05 1.659562e-05 1.827081e-05 1.961656e-05 2.127179e-05 2.262495e-05 2.417220e-05 2.545270e-05 2.681669e-05 2.795964e-05 2.908948e-05 3.005491e-05 3.093124e-05 3.170875e-05 3.234486e-05 3.295226e-05 3.338936e-05 3.386612e-05 3.416381e-05 3.456097e-05 3.478546e-05 3.515450e-05 3.536684e-05 3.574968e-05 3.599614e-05 3.641801e-05 3.672403e-05 3.718997e-05 3.755797e-05 3.805298e-05 3.846389e-05 3.895609e-05 3.937376e-05 3.981959e-05 4.019721e-05 4.054783e-05 4.083538e-05 4.104324e-05 4.119511e-05 4.122010e-05 4.120173e-05 4.101609e-05 4.080887e-05 4.040036e-05 4.000377e-05 3.937677e-05 3.880727e-05 3.798159e-05 3.726849e-05 3.627630e-05 3.545541e-05 3.433696e-05 3.344355e-05 3.224256e-05 3.130560e-05 3.006526e-05 2.910415e-05 2.786423e-05 2.688882e-05 2.568394e-05 2.469720e-05 2.355610e-05 2.255839e-05 2.150366e-05 2.049698e-05 1.954501e-05 1.853609e-05 1.769701e-05 1.669854e-05 1.597632e-05 1.500628e-05 1.439902e-05 1.347865e-05 1.297922e-05 1.213024e-05 1.172729e-05 1.096917e-05 1.064828e-05 9.995960e-06 9.740995e-06 9.203388e-06 8.997656e-06 
1.705971e-05 1.670191e-05 1.606815e-05 1.574774e-05 1.532385e-05 1.501438e-05 1.477198e-05 1.445091e-05 1.435586e-05 1.400483e-05 1.402051e-05 1.362532e-05 1.371591e-05 1.326648e-05 1.339989e-05 1.289022e-05 1.304074e-05 1.246902e-05 1.261939e-05 1.198842e-05 1.213152e-05 1.144949e-05 1.158958e-05 1.087146e-05 1.102508e-05 1.029449e-05 1.049113e-05 9.782609e-06 1.006498e-05 9.426108e-06 9.849671e-06 9.342217e-06 9.973290e-06 9.672138e-06 1.058364e-05 1.057225e-05 1.183619e-05 1.219777e-05 1.387427e-05 1.467882e-05 1.680262e-05 1.809173e-05 2.065857e-05 2.243121e-05 2.538786e-05 2.759143e-05 3.083303e-05 3.336332e-05 3.674083e-05 3.945259e-05 4.279039e-05 4.551760e-05 4.863846e-05 5.122009e-05 5.397246e-05 5.627817e-05 5.855964e-05 6.050934e-05 6.228105e-05 6.385413e-05 6.514300e-05 6.637558e-05 6.726461e-05 6.823614e-05 6.884530e-05 6.965826e-05 7.012058e-05 7.087799e-05 7.131596e-05 7.210130e-05 7.260757e-05 7.347059e-05 7.409578e-05 7.504565e-05 7.579410e-05 7.679977e-05 7.763258e-05 7.862931e-05 7.947324e-05 8.037313e-05 8.113351e-05 8.183828e-05 8.241404e-05 8.282837e-05 8.312729e-05 8.317105e-05 8.312344e-05 8.274156e-05 8.231015e-05 8.147904e-05 8.066345e-05 7.939304e-05 7.822764e-05 7.655893e-05 7.510433e-05 7.310303e-05 7.143294e-05 6.918060e-05 6.736733e-05 6.495197e-05 6.305438e-05 6.056235e-05 5.861919e-05 5.612945e-05 5.415945e-05 5.174038e-05 4.974798e-05 4.745617e-05 4.544052e-05 4.332045e-05 4.128438e-05 3.936844e-05 3.732487e-05 3.563331e-05 3.360778e-05 3.214873e-05 3.017792e-05 2.894799e-05 2.707544e-05 2.606081e-05 2.433117e-05 2.350952e-05 2.196286e-05 2.130577e-05 1.997290e-05 1.944839e-05 1.834786e-05 1.792283e-05 
2.565040e-05 2.510154e-05 2.412471e-05 2.363290e-05 2.297501e-05 2.250002e-05 2.211794e-05 2.162564e-05 2.146760e-05 2.093021e-05 2.094081e-05 2.033693e-05 2.046198e-05 1.977650e-05 1.996756e-05 1.919156e-05 1.940985e-05 1.854078e-05 1.876036e-05 1.780264e-05 1.801290e-05 1.697906e-05 1.718649e-05 1.609917e-05 1.632873e-05 1.522346e-05 1.551945e-05 1.444809e-05 1.487456e-05 1.390856e-05 1.454872e-05 1.378108e-05 1.473461e-05 1.427850e-05 1.565536e-05 1.563755e-05 1.754694e-05 1.809455e-05 2.062837e-05 2.184923e-05 2.506155e-05 2.702080e-05 3.090693e-05 3.360505e-05 3.808596e-05 4.144464e-05 4.636262e-05 5.022436e-05 5.535407e-05 5.949827e-05 6.457345e-05 6.874722e-05 7.349885e-05 7.745649e-05 8.165436e-05 8.519664e-05 8.868510e-05 9.168917e-05 9.440896e-05 9.684238e-05 9.883393e-05 1.007504e-04 1.021388e-04 1.036577e-04 1.046236e-04 1.058990e-04 1.066423e-04 1.078289e-04 1.085330e-04 1.097558e-04 1.105587e-04 1.118919e-04 1.128679e-04 1.143246e-04 1.154787e-04 1.170118e-04 1.182841e-04 1.197965e-04 1.210762e-04 1.224365e-04 1.235810e-04 1.246429e-04 1.255005e-04 1.261220e-04 1.265549e-04 1.266170e-04 1.265213e-04 1.259420e-04 1.252630e-04 1.240070e-04 1.227456e-04 1.208274e-04 1.190369e-04 1.165169e-04 1.142902e-04 1.112657e-04 1.087149e-04 1.053067e-04 1.025413e-04 9.888035e-05 9.598839e-05 9.220377e-05 8.924236e-05 8.545303e-05 8.244872e-05 7.875892e-05 7.571705e-05 7.221432e-05 6.913305e-05 6.588744e-05 6.277150e-05 5.983493e-05 5.670523e-05 5.411087e-05 5.100780e-05 4.876975e-05 4.575059e-05 4.386445e-05 4.099645e-05 3.944123e-05 3.679275e-05 3.553395e-05 3.316581e-05 3.215941e-05 3.011799e-05 2.931456e-05 2.762748e-05 2.697603e-05 
3.394601e-05 3.316824e-05 3.179254e-05 3.109586e-05 3.015975e-05 2.949053e-05 2.893597e-05 2.824868e-05 2.800586e-05 2.726340e-05 2.725747e-05 2.643116e-05 2.658882e-05 2.565830e-05 2.591390e-05 2.486711e-05 2.516792e-05 2.400137e-05 2.431193e-05 2.303143e-05 2.333682e-05 2.195905e-05 2.226727e-05 2.082229e-05 2.116590e-05 1.970077e-05 2.013807e-05 1.872139e-05 1.933688e-05 1.806331e-05 1.896708e-05 1.796016e-05 1.928461e-05 1.869548e-05 2.058753e-05 2.058657e-05 2.319320e-05 2.395255e-05 2.739879e-05 2.906587e-05 3.342687e-05 3.609234e-05 4.136454e-05 4.503186e-05 5.111104e-05 5.567658e-05 6.235138e-05 6.760339e-05 7.456986e-05 8.021012e-05 8.710799e-05 9.279388e-05 9.925863e-05 1.046571e-04 1.103767e-04 1.152178e-04 1.199815e-04 1.240991e-04 1.278267e-04 1.311773e-04 1.339239e-04 1.365801e-04 1.385148e-04 1.406377e-04 1.420040e-04 1.438005e-04 1.448671e-04 1.465436e-04 1.475559e-04 1.492780e-04 1.504196e-04 1.522835e-04 1.536517e-04 1.556714e-04 1.572701e-04 1.593794e-04 1.611256e-04 1.631920e-04 1.649343e-04 1.667804e-04 1.683254e-04 1.697550e-04 1.708970e-04 1.717210e-04 1.722734e-04 1.723341e-04 1.721568e-04 1.713471e-04 1.703676e-04 1.686430e-04 1.668657e-04 1.642489e-04 1.617505e-04 1.583258e-04 1.552379e-04 1.511382e-04 1.476182e-04 1.430071e-04 1.392070e-04 1.342600e-04 1.303001e-04 1.251887e-04 1.211443e-04 1.160254e-04 1.119275e-04 1.069384e-04 1.027883e-04 9.804470e-05 9.383464e-05 8.942984e-05 8.516280e-05 8.116731e-05 7.687063e-05 7.333065e-05 6.906029e-05 6.599678e-05 6.183308e-05 5.924201e-05 5.527941e-05 5.313404e-05 4.946836e-05 4.772334e-05 4.443964e-05 4.303645e-05 4.019955e-05 3.907221e-05 3.672086e-05 3.580127e-05 
4.245288e-05 4.143325e-05 3.962191e-05 3.870765e-05 3.746115e-05 3.658407e-05 3.582825e-05 3.493068e-05 3.457669e-05 3.361176e-05 3.356449e-05 3.249606e-05 3.266251e-05 3.146504e-05 3.176196e-05 3.042051e-05 3.078119e-05 2.929181e-05 2.967148e-05 2.804208e-05 2.842203e-05 2.667415e-05 2.706456e-05 2.523635e-05 2.567813e-05 2.382869e-05 2.439464e-05 2.260967e-05 2.340509e-05 2.180277e-05 2.296479e-05 2.169997e-05 2.339407e-05 2.265739e-05 2.506842e-05 2.507671e-05 2.839140e-05 2.936608e-05 3.374563e-05 3.587901e-05 4.142325e-05 4.483682e-05 5.154657e-05 5.625075e-05 6.399848e-05 6.986571e-05 7.838595e-05 8.514829e-05 9.405562e-05 1.013322e-04 1.101676e-04 1.175189e-04 1.258168e-04 1.328145e-04 1.401761e-04 1.464723e-04 1.526279e-04 1.580076e-04 1.628546e-04 1.672599e-04 1.708673e-04 1.743885e-04 1.769704e-04 1.798098e-04 1.816733e-04 1.840910e-04 1.855733e-04 1.878278e-04 1.892353e-04 1.915324e-04 1.930915e-04 1.955488e-04 1.973769e-04 2.000090e-04 2.021058e-04 2.048273e-04 2.070843e-04 2.097281e-04 2.119525e-04 2.142975e-04 2.162447e-04 2.180475e-04 2.194593e-04 2.204866e-04 2.211295e-04 2.211875e-04 2.208876e-04 2.198449e-04 2.185143e-04 2.163173e-04 2.139660e-04 2.106431e-04 2.073742e-04 2.030299e-04 1.990154e-04 1.938137e-04 1.892578e-04 1.834006e-04 1.784979e-04 1.722018e-04 1.671035e-04 1.605810e-04 1.553776e-04 1.488254e-04 1.435499e-04 1.371426e-04 1.317909e-04 1.256791e-04 1.202377e-04 1.145463e-04 1.090191e-04 1.038449e-04 9.826994e-05 9.367849e-05 8.813185e-05 8.415469e-05 7.874404e-05 7.537855e-05 7.022858e-05 6.744093e-05 6.267650e-05 6.040764e-05 5.613826e-05 5.431158e-05 5.061967e-05 4.914914e-05 4.608318e-05 4.488054e-05 
5.042832e-05 4.910094e-05 4.675733e-05 4.556737e-05 4.393380e-05 4.279897e-05 4.178467e-05 4.063536e-05 4.013152e-05 3.891102e-05 3.880110e-05 3.746553e-05 3.763541e-05 3.615362e-05 3.650101e-05 3.485479e-05 3.529752e-05 3.348211e-05 3.396484e-05 3.199006e-05 3.248918e-05 3.038139e-05 3.090829e-05 2.871366e-05 2.931661e-05 2.710601e-05 2.787128e-05 2.574683e-05 2.679915e-05 2.490149e-05 2.640357e-05 2.491759e-05 2.706669e-05 2.622170e-05 2.923999e-05 2.929944e-05 3.341416e-05 3.465044e-05 4.006108e-05 4.271443e-05 4.954867e-05 5.377508e-05 6.204106e-05 6.786082e-05 7.740906e-05 8.467160e-05 9.518128e-05 1.035607e-04 1.145608e-04 1.235896e-04 1.345162e-04 1.436524e-04 1.539322e-04 1.626473e-04 1.717887e-04 1.796536e-04 1.873248e-04 1.940748e-04 2.001499e-04 2.057137e-04 2.102779e-04 2.147665e-04 2.180818e-04 2.217419e-04 2.241830e-04 2.273297e-04 2.293060e-04 2.322498e-04 2.341302e-04 2.371149e-04 2.391690e-04 2.423296e-04 2.446932e-04 2.480392e-04 2.507051e-04 2.541261e-04 2.569564e-04 2.602456e-04 2.630012e-04 2.658894e-04 2.682693e-04 2.704634e-04 2.721508e-04 2.733722e-04 2.740810e-04 2.741005e-04 2.736189e-04 2.722839e-04 2.705075e-04 2.677598e-04 2.647080e-04 2.605889e-04 2.563990e-04 2.510409e-04 2.459377e-04 2.395437e-04 2.337911e-04 2.266070e-04 2.204531e-04 2.127395e-04 2.063715e-04 1.983809e-04 1.919038e-04 1.838678e-04 1.773101e-04 1.694349e-04 1.627769e-04 1.552425e-04 1.484560e-04 1.414152e-04 1.344983e-04 1.280733e-04 1.210723e-04 1.153488e-04 1.083622e-04 1.033848e-04 9.655284e-05 9.232312e-05 8.580749e-05 8.228739e-05 7.624891e-05 7.336796e-05 6.794664e-05 6.561203e-05 6.091262e-05 5.901963e-05 5.510360e-05 5.354488e-05 
5.870960e-05 5.705238e-05 5.411455e-05 5.262652e-05 5.055096e-05 4.913405e-05 4.781146e-05 4.638309e-05 4.568315e-05 4.417619e-05 4.395962e-05 4.232219e-05 4.245279e-05 4.064824e-05 4.100415e-05 3.901144e-05 3.949502e-05 3.730954e-05 3.785541e-05 3.549024e-05 3.607100e-05 3.355887e-05 3.418860e-05 3.158524e-05 3.232112e-05 2.971040e-05 3.065330e-05 2.815455e-05 2.944927e-05 2.722607e-05 2.906091e-05 2.732881e-05 2.993278e-05 2.896145e-05 3.259482e-05 3.269803e-05 3.763096e-05 3.913833e-05 4.561313e-05 4.882127e-05 5.699947e-05 6.210784e-05 7.201082e-05 7.905674e-05 9.051681e-05 9.932958e-05 1.119705e-04 1.221636e-04 1.354244e-04 1.464354e-04 1.596395e-04 1.708126e-04 1.832696e-04 1.939628e-04 2.050803e-04 2.147714e-04 2.241494e-04 2.325150e-04 2.400013e-04 2.469516e-04 2.526475e-04 2.583115e-04 2.625282e-04 2.671970e-04 2.703777e-04 2.744219e-04 2.770474e-04 2.808297e-04 2.833289e-04 2.871301e-04 2.898114e-04 2.937824e-04 2.967944e-04 3.009383e-04 3.042615e-04 3.084426e-04 3.119062e-04 3.158795e-04 3.191962e-04 3.226479e-04 3.254610e-04 3.280532e-04 3.299895e-04 3.314040e-04 3.321282e-04 3.321053e-04 3.313714e-04 3.297401e-04 3.274314e-04 3.241287e-04 3.202781e-04 3.153547e-04 3.101382e-04 3.037483e-04 2.974475e-04 2.898251e-04 2.827663e-04 2.741930e-04 2.666777e-04 2.574511e-04 2.496996e-04 2.401088e-04 2.322351e-04 2.225485e-04 2.145707e-04 2.050334e-04 1.969134e-04 1.877469e-04 1.794421e-04 1.708417e-04 1.623496e-04 1.544767e-04 1.458600e-04 1.388317e-04 1.302200e-04 1.241001e-04 1.156739e-04 1.104695e-04 1.024327e-04 9.809859e-05 9.065030e-05 8.709910e-05 8.040970e-05 7.752597e-05 7.172066e-05 6.937496e-05 6.452546e-05 6.258636e-05 
6.616419e-05 6.407867e-05 6.040353e-05 5.853080e-05 5.589943e-05 5.412592e-05 5.240922e-05 5.063930e-05 4.968369e-05 4.783936e-05 4.748084e-05 4.550145e-05 4.557961e-05 4.342215e-05 4.379335e-05 4.143325e-05 4.198244e-05 3.941483e-05 4.006504e-05 3.730635e-05 3.802533e-05 3.511528e-05 3.591915e-05 3.292383e-05 3.387821e-05 3.089504e-05 3.211479e-05 2.928018e-05 3.092882e-05 2.842810e-05 3.071754e-05 2.879499e-05 3.198357e-05 3.094726e-05 3.533160e-05 3.554496e-05 4.143817e-05 4.328978e-05 5.097964e-05 5.482688e-05 6.451343e-05 7.060516e-05 8.232804e-05 9.072372e-05 1.042998e-04 1.148106e-04 1.298067e-04 1.419831e-04 1.577420e-04 1.709200e-04 1.866427e-04 2.000435e-04 2.149120e-04 2.277721e-04 2.410838e-04 2.527824e-04 2.640635e-04 2.742174e-04 2.832887e-04 2.917918e-04 2.987731e-04 3.057773e-04 3.110349e-04 3.168799e-04 3.209315e-04 3.260465e-04 3.294490e-04 3.342484e-04 3.374931e-04 3.422908e-04 3.457244e-04 3.506801e-04 3.544617e-04 3.595630e-04 3.636566e-04 3.687338e-04 3.729298e-04 3.776918e-04 3.816483e-04 3.857306e-04 3.890270e-04 3.920433e-04 3.942407e-04 3.958321e-04 3.965368e-04 3.964145e-04 3.953389e-04 3.933180e-04 3.903301e-04 3.863510e-04 3.815019e-04 3.756353e-04 3.691530e-04 3.615880e-04 3.538311e-04 3.448454e-04 3.362251e-04 3.261455e-04 3.170354e-04 3.061993e-04 2.968619e-04 2.855915e-04 2.761467e-04 2.647383e-04 2.551811e-04 2.439076e-04 2.341641e-04 2.232794e-04 2.132769e-04 2.030137e-04 1.927390e-04 1.832978e-04 1.728283e-04 1.643610e-04 1.538629e-04 1.464580e-04 1.361617e-04 1.298374e-04 1.200008e-04 1.147095e-04 1.055809e-04 1.012218e-04 9.301101e-05 8.944839e-05 8.230739e-05 7.938865e-05 7.340336e-05 7.097409e-05 
7.400946e-05 7.146064e-05 6.695209e-05 6.465791e-05 6.138414e-05 5.921356e-05 5.702287e-05 5.486601e-05 5.357929e-05 5.134652e-05 5.077320e-05 4.839472e-05 4.834875e-05 4.577522e-05 4.609045e-05 4.329446e-05 4.383850e-05 4.081652e-05 4.150190e-05 3.827618e-05 3.906798e-05 3.568833e-05 3.660767e-05 3.315385e-05 3.427796e-05 3.086383e-05 3.232412e-05 2.910503e-05 3.108518e-05 2.826901e-05 3.100431e-05 2.886421e-05 3.264124e-05 3.152455e-05 3.667561e-05 3.699886e-05 4.388184e-05 4.610022e-05 5.505392e-05 5.959740e-05 7.086941e-05 7.805017e-05 9.170828e-05 1.016200e-04 1.174728e-04 1.299143e-04 1.474729e-04 1.619284e-04 1.804336e-04 1.961259e-04 2.146446e-04 2.306541e-04 2.482265e-04 2.636482e-04 2.794486e-04 2.935456e-04 3.070177e-04 3.193331e-04 3.302665e-04 3.406703e-04 3.492038e-04 3.578674e-04 3.644236e-04 3.717358e-04 3.769081e-04 3.833566e-04 3.877770e-04 3.938275e-04 3.980448e-04 4.040422e-04 4.084335e-04 4.145430e-04 4.192684e-04 4.254595e-04 4.304581e-04 4.365257e-04 4.415436e-04 4.471525e-04 4.517910e-04 4.565319e-04 4.603079e-04 4.637545e-04 4.661675e-04 4.679297e-04 4.685329e-04 4.683020e-04 4.667719e-04 4.643548e-04 4.605503e-04 4.558917e-04 4.498889e-04 4.430754e-04 4.351617e-04 4.264076e-04 4.170264e-04 4.066401e-04 3.962927e-04 3.846312e-04 3.737632e-04 3.611911e-04 3.501008e-04 3.369651e-04 3.257674e-04 3.123932e-04 3.010487e-04 2.877479e-04 2.761402e-04 2.632190e-04 2.512466e-04 2.390000e-04 2.266489e-04 2.153405e-04 2.027173e-04 1.925522e-04 1.798754e-04 1.709762e-04 1.585396e-04 1.509364e-04 1.390597e-04 1.326964e-04 1.216800e-04 1.164325e-04 1.065241e-04 1.022256e-04 9.359999e-05 9.006520e-05 8.281757e-05 7.986167e-05 
8.065301e-05 7.750287e-05 7.196314e-05 6.912631e-05 6.505198e-05 6.237958e-05 5.959365e-05 5.696073e-05 5.525556e-05 5.255957e-05 5.171485e-05 4.887521e-05 4.867607e-05 4.563539e-05 4.589016e-05 4.261691e-05 4.317338e-05 3.966492e-05 4.042358e-05 3.670882e-05 3.763162e-05 3.377253e-05 3.488625e-05 3.097913e-05 3.237395e-05 2.855197e-05 3.037703e-05 2.681631e-05 2.927536e-05 2.620604e-05 2.955583e-05 2.727736e-05 3.182878e-05 3.072380e-05 3.684052e-05 3.737561e-05 4.545797e-05 4.815530e-05 5.859493e-05 6.396234e-05 7.706053e-05 8.548237e-05 1.013430e-04 1.129559e-04 1.313848e-04 1.459794e-04 1.664311e-04 1.834224e-04 2.050266e-04 2.235138e-04 2.451887e-04 2.640978e-04 2.847251e-04 3.029966e-04 3.216138e-04 3.383859e-04 3.543459e-04 3.690866e-04 3.821466e-04 3.947057e-04 4.050277e-04 4.156034e-04 4.236748e-04 4.327116e-04 4.392098e-04 4.472582e-04 4.528963e-04 4.604719e-04 4.658587e-04 4.733305e-04 4.788725e-04 4.863994e-04 4.922536e-04 4.997735e-04 5.058481e-04 5.131073e-04 5.190968e-04 5.257053e-04 5.311456e-04 5.366411e-04 5.409758e-04 5.448875e-04 5.475412e-04 5.494470e-04 5.499047e-04 5.494784e-04 5.473673e-04 5.444150e-04 5.395781e-04 5.340603e-04 5.266038e-04 5.186403e-04 5.089314e-04 4.987826e-04 4.873828e-04 4.754076e-04 4.629468e-04 4.495468e-04 4.365737e-04 4.221433e-04 4.090057e-04 3.939073e-04 3.807080e-04 3.652774e-04 3.519186e-04 3.364869e-04 3.227793e-04 3.076903e-04 2.934781e-04 2.790834e-04 2.643384e-04 2.509684e-04 2.358272e-04 2.237491e-04 2.084951e-04 1.978772e-04 1.828852e-04 1.737797e-04 1.594505e-04 1.517998e-04 1.385024e-04 1.321636e-04 1.201953e-04 1.149732e-04 1.045390e-04 1.002165e-04 9.142441e-05 8.778697e-05 
8.776774e-05 8.396209e-05 7.724749e-05 7.380925e-05 6.880252e-05 6.556297e-05 6.205782e-05 5.887567e-05 5.663272e-05 5.339148e-05 5.215803e-05 4.876551e-05 4.829583e-05 4.468634e-05 4.476208e-05 4.090073e-05 4.135004e-05 3.723756e-05 3.795091e-05 3.362711e-05 3.456727e-05 3.011218e-05 3.131720e-05 2.685034e-05 2.842964e-05 2.410977e-05 2.623592e-05 2.226458e-05 2.516500e-05 2.179671e-05 2.574979e-05 2.330986e-05 2.864792e-05 2.755290e-05 3.466695e-05 3.543442e-05 4.476594e-05 4.799208e-05 5.999056e-05 6.627592e-05 8.130852e-05 9.113003e-05 1.093528e-04 1.229096e-04 1.441387e-04 1.612249e-04 1.848625e-04 2.048211e-04 2.298792e-04 2.516697e-04 2.769007e-04 2.992681e-04 3.233744e-04 3.450753e-04 3.669383e-04 3.869599e-04 4.058289e-04 4.235448e-04 4.391388e-04 4.543679e-04 4.668727e-04 4.798361e-04 4.898065e-04 5.010042e-04 5.092035e-04 5.192491e-04 5.264685e-04 5.359258e-04 5.428258e-04 5.520831e-04 5.590860e-04 5.682901e-04 5.755347e-04 5.845860e-04 5.919363e-04 6.005301e-04 6.076208e-04 6.153147e-04 6.216140e-04 6.279013e-04 6.327827e-04 6.371615e-04 6.399813e-04 6.420134e-04 6.421966e-04 6.415541e-04 6.386870e-04 6.351865e-04 6.291047e-04 6.227274e-04 6.135774e-04 6.044717e-04 5.927139e-04 5.811732e-04 5.675014e-04 5.539148e-04 5.390980e-04 5.238858e-04 5.085760e-04 4.921371e-04 4.767189e-04 4.594131e-04 4.439548e-04 4.261256e-04 4.104483e-04 3.924624e-04 3.762914e-04 3.585637e-04 3.416920e-04 3.246733e-04 3.070771e-04 2.912051e-04 2.730790e-04 2.587132e-04 2.404329e-04 2.278009e-04 2.098443e-04 1.990186e-04 1.818788e-04 1.727882e-04 1.569046e-04 1.493700e-04 1.350851e-04 1.288649e-04 1.164061e-04 1.112373e-04 1.007164e-04 9.634415e-05 
9.321235e-05 8.856324e-05 8.041031e-05 7.620555e-05 7.005369e-05 6.610304e-05 6.171158e-05 5.785520e-05 5.494803e-05 5.105265e-05 4.933984e-05 4.529837e-05 4.449873e-05 4.023394e-05 4.009837e-05 3.556967e-05 3.590375e-05 3.111468e-05 3.179757e-05 2.680092e-05 2.779727e-05 2.269589e-05 2.405835e-05 1.900192e-05 2.086434e-05 1.604502e-05 1.860907e-05 1.426043e-05 1.778126e-05 1.418542e-05 1.896322e-05 1.646937e-05 2.285275e-05 2.190453e-05 3.030293e-05 3.146054e-05 4.234823e-05 4.627746e-05 6.015945e-05 6.755750e-05 8.487307e-05 9.632148e-05 1.172907e-04 1.330658e-04 1.575258e-04 1.774332e-04 2.047351e-04 2.280434e-04 2.570694e-04 2.825832e-04 3.118987e-04 3.381610e-04 3.662639e-04 3.918270e-04 4.174216e-04 4.411088e-04 4.633288e-04 4.844168e-04 5.029417e-04 5.212246e-04 5.362710e-04 5.520036e-04 5.642051e-04 5.779534e-04 5.881703e-04 6.006161e-04 6.097255e-04 6.214776e-04 6.301935e-04 6.416479e-04 6.504052e-04 6.616784e-04 6.705910e-04 6.815253e-04 6.904052e-04 7.006262e-04 7.090398e-04 7.180380e-04 7.253761e-04 7.325902e-04 7.381425e-04 7.430344e-04 7.460697e-04 7.481847e-04 7.480442e-04 7.470567e-04 7.432617e-04 7.390089e-04 7.313723e-04 7.238737e-04 7.125863e-04 7.020460e-04 6.876922e-04 6.744704e-04 6.579323e-04 6.424811e-04 6.247320e-04 6.075117e-04 5.893596e-04 5.707733e-04 5.526599e-04 5.330426e-04 5.149840e-04 4.946511e-04 4.763425e-04 4.556608e-04 4.366890e-04 4.161222e-04 3.961893e-04 3.762840e-04 3.553546e-04 3.366684e-04 3.150040e-04 2.980101e-04 2.761048e-04 2.611120e-04 2.395788e-04 2.266967e-04 2.061513e-04 1.953053e-04 1.762802e-04 1.672595e-04 1.501567e-04 1.426748e-04 1.277506e-04 1.214980e-04 1.088694e-04 1.035503e-04 
9.922302e-05 9.364674e-05 8.384496e-05 7.878083e-05 7.128687e-05 6.652139e-05 6.105454e-05 5.640792e-05 5.265076e-05 4.797127e-05 4.559278e-05 4.075657e-05 3.943697e-05 3.435401e-05 3.381159e-05 2.843616e-05 2.845422e-05 2.279616e-05 2.324594e-05 1.737812e-05 1.823286e-05 1.229130e-05 1.362798e-05 7.804884e-06 9.793407e-06 4.326942e-06 7.209846e-06 2.376426e-06 6.445754e-06 2.561679e-06 8.142937e-06 5.581870e-06 1.303586e-05 1.226379e-05 2.200839e-05 2.362270e-05 3.615566e-05 4.089337e-05 5.677504e-05 6.544504e-05 8.520054e-05 9.851690e-05 1.224546e-04 1.408021e-04 1.688038e-04 1.920214e-04 2.233985e-04 2.506805e-04 2.841783e-04 3.141527e-04 3.481258e-04 3.790948e-04 4.118054e-04 4.420738e-04 4.720206e-04 5.002098e-04 5.263917e-04 5.516543e-04 5.737039e-04 5.957949e-04 6.139608e-04 6.331637e-04 6.481634e-04 6.651102e-04 6.779030e-04 6.933437e-04 7.048872e-04 7.194719e-04 7.305191e-04 7.446429e-04 7.556194e-04 7.693572e-04 7.803277e-04 7.934535e-04 8.041578e-04 8.162222e-04 8.261465e-04 8.365757e-04 8.450313e-04 8.532217e-04 8.594204e-04 8.648175e-04 8.679511e-04 8.701090e-04 8.694466e-04 8.680690e-04 8.630776e-04 8.580442e-04 8.485252e-04 8.399063e-04 8.261110e-04 8.141654e-04 7.968256e-04 7.819649e-04 7.621792e-04 7.448876e-04 7.238549e-04 7.045875e-04 6.832726e-04 6.623864e-04 6.412614e-04 6.190268e-04 5.980105e-04 5.747020e-04 5.533191e-04 5.293284e-04 5.070049e-04 4.829026e-04 4.592584e-04 4.357613e-04 4.107873e-04 3.886433e-04 3.627192e-04 3.425628e-04 3.163499e-04 2.985892e-04 2.728689e-04 2.576427e-04 2.331679e-04 2.203728e-04 1.977678e-04 1.871310e-04 1.668458e-04 1.580079e-04 1.403124e-04 1.328966e-04 1.178980e-04 1.115540e-04 
1.030050e-04 9.624866e-05 8.445468e-05 7.830822e-05 6.919062e-05 6.341329e-05 5.664237e-05 5.102971e-05 4.623872e-05 4.061501e-05 3.742467e-05 3.164327e-05 2.968882e-05 2.364117e-05 2.260310e-05 1.623427e-05 1.587034e-05 9.195848e-06 9.369003e-06 2.485627e-06 3.180938e-06 -3.733489e-06 -2.407541e-06 -9.105398e-06 -6.931833e-06 -1.311305e-05 -9.794433e-06 -1.512314e-05 -1.031635e-05 -1.442899e-05 -7.774445e-06 -1.026885e-05 -1.396008e-06 -1.792295e-06 9.710216e-06 1.202890e-05 2.666137e-05 3.248655e-05 5.084995e-05 6.109820e-05 8.380457e-05 9.933554e-05 1.267975e-04 1.481271e-04 1.802900e-04 2.073076e-04 2.434498e-04 2.752752e-04 3.139917e-04 3.490550e-04 3.884586e-04 4.247889e-04 4.628687e-04 4.984919e-04 5.335093e-04 5.668250e-04 5.976269e-04 6.276602e-04 6.538306e-04 6.803069e-04 7.021370e-04 7.253853e-04 7.436923e-04 7.644258e-04 7.802831e-04 7.993263e-04 8.137805e-04 8.318185e-04 8.456616e-04 8.630696e-04 8.767108e-04 8.934936e-04 9.069380e-04 9.227713e-04 9.356762e-04 9.500093e-04 9.617724e-04 9.739476e-04 9.837908e-04 9.931498e-04 1.000191e-03 1.006157e-03 1.009484e-03 1.011620e-03 1.010392e-03 1.008434e-03 1.002020e-03 9.959066e-04 9.840638e-04 9.739413e-04 9.569799e-04 9.432058e-04 9.220533e-04 9.051477e-04 8.812140e-04 8.617491e-04 8.365723e-04 8.150303e-04 7.898203e-04 7.665025e-04 7.417903e-04 7.168521e-04 6.924195e-04 6.660246e-04 6.411410e-04 6.136446e-04 5.874845e-04 5.595335e-04 5.315746e-04 5.040625e-04 4.743077e-04 4.482058e-04 4.171810e-04 3.933287e-04 3.619137e-04 3.408569e-04 3.100568e-04 2.919888e-04 2.627387e-04 2.475401e-04 2.205854e-04 2.079240e-04 1.837772e-04 1.732189e-04 1.521666e-04 1.432639e-04 1.253993e-04 1.177439e-04 
1.075061e-04 9.943966e-05 8.534926e-05 7.797475e-05 6.694317e-05 5.999131e-05 5.163160e-05 4.487124e-05 3.876057e-05 3.198876e-05 2.769375e-05 2.073712e-05 1.784350e-05 1.057198e-05 8.720067e-06 1.069822e-06 -6.952782e-09 -8.009363e-06 -8.450750e-06 -1.667358e-05 -1.647290e-05 -2.468101e-05 -2.368503e-05 -3.155696e-05 -2.948486e-05 -3.663795e-05 -3.311687e-05 -3.913369e-05 -3.374729e-05 -3.819713e-05 -3.053491e-05 -3.297644e-05 -2.265568e-05 -2.259933e-05 -9.230845e-06 -6.056354e-06 1.083738e-05 1.796226e-05 3.900608e-05 5.111148e-05 7.701208e-05 9.513575e-05 1.264427e-04 1.512796e-04 1.880426e-04 2.195714e-04 2.610614e-04 2.983356e-04 3.429923e-04 3.842161e-04 4.298774e-04 4.727513e-04 5.170865e-04 5.592932e-04 6.002833e-04 6.399450e-04 6.762571e-04 7.122332e-04 7.433927e-04 7.753595e-04 8.017035e-04 8.300299e-04 8.524831e-04 8.779639e-04 8.977170e-04 9.212509e-04 9.394304e-04 9.617308e-04 9.791440e-04 1.000551e-03 1.017555e-03 1.037986e-03 1.054488e-03 1.073501e-03 1.089046e-03 1.105979e-03 1.119859e-03 1.133974e-03 1.145319e-03 1.155918e-03 1.163763e-03 1.170274e-03 1.173619e-03 1.175651e-03 1.173558e-03 1.170927e-03 1.162681e-03 1.155420e-03 1.140746e-03 1.129111e-03 1.108402e-03 1.092861e-03 1.067285e-03 1.048454e-03 1.019790e-03 9.982832e-04 9.684516e-04 9.446977e-04 9.151529e-04 8.892949e-04 8.605704e-04 8.325614e-04 8.042112e-04 7.740715e-04 7.450272e-04 7.131190e-04 6.822685e-04 6.494228e-04 6.161284e-04 5.835509e-04 5.479035e-04 5.169084e-04 4.796736e-04 4.513776e-04 4.137335e-04 3.888380e-04 3.520617e-04 3.307883e-04 2.960112e-04 2.781756e-04 2.462533e-04 2.314122e-04 2.028954e-04 1.904982e-04 1.656632e-04 1.551636e-04 1.340652e-04 1.249817e-04 
1.091662e-04 9.944985e-05 8.262274e-05 7.371880e-05 6.040405e-05 5.200645e-05 4.174478e-05 3.358672e-05 2.588681e-05 1.772849e-05 1.209309e-05 3.724859e-06 -3.170504e-07 -9.054754e-06 -1.190717e-05 -2.109141e-05 -2.304593e-05 -3.263829e-05 -3.383530e-05 -4.366367e-05 -4.407166e-05 -5.383512e-05 -5.325177e-05 -6.254293e-05 -6.061373e-05 -6.894708e-05 -6.520135e-05 -7.204538e-05 -6.595730e-05 -7.077399e-05 -6.184330e-05 -6.412044e-05 -5.193161e-05 -5.116513e-05 -3.536425e-05 -3.095793e-05 -1.113228e-05 -2.256288e-06 2.219727e-05 3.665686e-05 6.651898e-05 8.778131e-05 1.237521e-04 1.527218e-04 1.949864e-04 2.317637e-04 2.796044e-04 3.231832e-04 3.748718e-04 4.232026e-04 4.762589e-04 5.266643e-04 5.783819e-04 6.281525e-04 6.761848e-04 7.231352e-04 7.659436e-04 8.087622e-04 8.458121e-04 8.841421e-04 9.158319e-04 9.501069e-04 9.774916e-04 1.008610e-03 1.033017e-03 1.061960e-03 1.084604e-03 1.112102e-03 1.133802e-03 1.160129e-03 1.181177e-03 1.206119e-03 1.226307e-03 1.249262e-03 1.268010e-03 1.288168e-03 1.304656e-03 1.321173e-03 1.334434e-03 1.346557e-03 1.355523e-03 1.362677e-03 1.366222e-03 1.368060e-03 1.365089e-03 1.361509e-03 1.351142e-03 1.342290e-03 1.324154e-03 1.310434e-03 1.284990e-03 1.267055e-03 1.235786e-03 1.214450e-03 1.179668e-03 1.155687e-03 1.119895e-03 1.093688e-03 1.058732e-03 1.030248e-03 9.966996e-04 9.655806e-04 9.326826e-04 8.986761e-04 8.648700e-04 8.282494e-04 7.919897e-04 7.537409e-04 7.141912e-04 6.758663e-04 6.332034e-04 5.965310e-04 5.518214e-04 5.182713e-04 4.730820e-04 4.435686e-04 3.995351e-04 3.743409e-04 3.328542e-04 3.117412e-04 2.738023e-04 2.562151e-04 2.224247e-04 2.076896e-04 1.783089e-04 1.657737e-04 1.408047e-04 1.299075e-04 