# vtk DataFile Version 2.0
Comment goes here
ASCII

DATASET STRUCTURED_POINTS
FIELD FieldData 1
TIME 1 1 double
0.09500000
DIMENSIONS    128   128   1

ORIGIN    0.000   0.000   0.000
SPACING   0.039062 0.039062   1.000

POINT_DATA   16384
SCALARS Omega double
LOOKUP_TABLE default

3.756120e-14 2.588448e-14 2.919733e-14 3.611474e-14 5.776867e-14 5.572374e-14 4.528663e-14 3.240529e-14 2.722726e-14 2.722948e-14 7.786826e-15 -1.221968e-14 -1.816244e-14 -2.758316e-14 -2.415447e-14 -3.194807e-14 -4.368252e-14 -5.040992e-14 -3.046864e-14 -4.486575e-14 -6.341862e-14 -5.139867e-14 -4.883635e-14 -4.831168e-14 -4.981268e-14 -5.050278e-14 -1.805137e-14 -2.038964e-14 4.016146e-14 1.260339e-14 -8.844292e-15 -2.806331e-14 -1.749675e-14 -1.984301e-14 -1.503624e-15 -2.167193e-14 1.165915e-14 -1.533693e-15 -7.807104e-15 -1.945502e-14 -5.208052e-15 1.720837e-14 3.720439e-14 4.581136e-14 1.613264e-14 3.124328e-14 4.501262e-14 7.614920e-15 8.665109e-15 -9.821396e-16 -1.953285e-14 2.092462e-14 -1.160478e-14 -8.573256e-15 3.212848e-14 5.822886e-15 3.289746e-14 2.237874e-14 1.426548e-14 6.495609e-14 -1.155194e-14 -2.030625e-14 -2.669822e-14 -3.673383e-14 -9.533713e-14 -1.188559e-13 -8.274978e-14 -7.170301e-14 -4.005457e-14 -4.058364e-14 -7.427292e-14 2.965072e-14 -5.883777e-14 -7.563713e-14 -8.342284e-14 5.642622e-14 5.795719e-14 -7.927437e-16 7.675225e-14 1.057085e-14 3.849362e-14 -3.499441e-14 3.821547e-14 1.409288e-14 3.839259e-14 2.096097e-14 5.050637e-14 7.289917e-14 1.279521e-13 4.276799e-14 1.846972e-14 7.726789e-15 -2.440400e-14 -1.969792e-15 -1.146577e-13 8.688893e-15 -1.158963e-14 7.537249e-14 5.923714e-14 5.530129e-14 -2.567718e-14 -1.230915e-13 -3.343359e-14 8.790742e-14 -2.965197e-14 3.435841e-15 -7.315891e-14 -3.505769e-14 -6.866384e-14 -1.304893e-14 -7.016661e-14 -3.380880e-14 -6.055878e-14 -4.450049e-14 3.596035e-15 1.484079e-14 -5.330909e-14 -1.689021e-14 -1.906356e-14 5.771510e-15 -7.657214e-15 -6.597035e-15 -1.826439e-14 -2.601887e-15 2.907799e-14 3.960389e-14 4.738810e-14 2.229840e-14 
5.964623e-07 1.043585e-06 5.005874e-07 1.099961e-06 5.918318e-07 1.334544e-06 8.394353e-07 1.712081e-06 1.207311e-06 2.194419e-06 1.655876e-06 2.741429e-06 2.143997e-06 3.312420e-06 2.631134e-06 3.868102e-06 3.079741e-06 4.373076e-06 3.457977e-06 4.798848e-06 3.742729e-06 5.127233e-06 3.922906e-06 5.354014e-06 4.002878e-06 5.492580e-06 4.005777e-06 5.577065e-06 3.976127e-06 5.664279e-06 3.980947e-06 5.833381e-06 4.108117e-06 6.182022e-06 4.460732e-06 6.817868e-06 5.146531e-06 7.845097e-06 6.262606e-06 9.346917e-06 7.877254e-06 1.136691e-05 1.001259e-05 1.389346e-05 1.263257e-05 1.685196e-05 1.564069e-05 2.010825e-05 1.888947e-05 2.348397e-05 2.220090e-05 2.678146e-05 2.539351e-05 2.981284e-05 2.830997e-05 3.242681e-05 3.083872e-05 3.452765e-05 3.292508e-05 3.608284e-05 3.457000e-05 3.711923e-05 3.581815e-05 3.770994e-05 3.673912e-05 3.795626e-05 3.740669e-05 3.796863e-05 3.788100e-05 3.785036e-05 3.819684e-05 3.768611e-05 3.835976e-05 3.753553e-05 3.834951e-05 3.743142e-05 3.812919e-05 3.738088e-05 3.765733e-05 3.736808e-05 3.690010e-05 3.735782e-05 3.584132e-05 3.729935e-05 3.448840e-05 3.713103e-05 3.287350e-05 3.678593e-05 3.104997e-05 3.619864e-05 2.908481e-05 3.531276e-05 2.704877e-05 3.408825e-05 2.500585e-05 3.250725e-05 2.300453e-05 3.057744e-05 2.107235e-05 2.833227e-05 1.921537e-05 2.582822e-05 1.742243e-05 2.313955e-05 1.567306e-05 2.035138e-05 1.394696e-05 1.755221e-05 1.223236e-05 1.482668e-05 1.053145e-05 1.224962e-05 8.861653e-06 9.881915e-06 7.253331e-06 7.768586e-06 5.744783e-06 5.938804e-06 4.376290e-06 4.407462e-06 3.184505e-06 3.177531e-06 2.198166e-06 2.242568e-06 1.435483e-06 1.588901e-06 9.031280e-07 1.197221e-06 
2.785575e-06 3.599575e-06 2.433888e-06 3.547524e-06 2.443641e-06 3.844541e-06 2.764171e-06 4.429569e-06 3.331156e-06 5.232787e-06 4.070537e-06 6.177875e-06 4.902965e-06 7.185467e-06 5.748735e-06 8.177716e-06 6.533192e-06 9.083855e-06 7.192604e-06 9.846595e-06 7.680475e-06 1.042914e-05 7.974202e-06 1.082252e-05 8.081895e-06 1.105278e-05 8.048875e-06 1.118721e-05 7.962889e-06 1.133814e-05 7.956381e-06 1.166244e-05 8.203445e-06 1.235405e-05 8.908787e-06 1.362719e-05 1.028679e-05 1.568950e-05 1.253097e-05 1.870703e-05 1.577750e-05 2.276668e-05 2.007018e-05 2.784484e-05 2.533635e-05 3.379182e-05 3.138234e-05 4.033893e-05 3.791310e-05 4.713002e-05 4.457380e-05 5.377202e-05 5.100494e-05 5.989387e-05 5.689824e-05 6.520061e-05 6.204001e-05 6.951095e-05 6.633268e-05 7.277162e-05 6.979106e-05 7.504794e-05 7.251633e-05 7.649552e-05 7.465593e-05 7.732158e-05 7.635964e-05 7.774478e-05 7.774171e-05 7.796109e-05 7.885621e-05 7.812012e-05 7.968905e-05 7.831309e-05 8.016629e-05 7.857098e-05 8.017507e-05 7.886999e-05 7.959166e-05 7.914097e-05 7.831056e-05 7.928074e-05 7.626921e-05 7.916416e-05 7.346435e-05 7.865699e-05 6.995782e-05 7.762975e-05 6.587127e-05 7.597251e-05 6.137116e-05 7.360919e-05 5.664655e-05 7.050931e-05 5.188357e-05 6.669466e-05 4.724094e-05 6.223917e-05 4.283140e-05 5.726171e-05 3.871255e-05 5.191341e-05 3.488917e-05 4.636192e-05 3.132578e-05 4.077555e-05 2.796591e-05 3.530966e-05 2.475278e-05 3.009695e-05 2.164655e-05 2.524218e-05 1.863455e-05 2.082136e-05 1.573358e-05 1.688422e-05 1.298529e-05 1.345884e-05 1.044721e-05 1.055687e-05 8.181987e-06 8.178010e-06 6.247422e-06 6.313139e-06 4.688532e-06 4.945724e-06 3.532386e-06 4.051886e-06 
1.387897e-06 2.752873e-06 1.071505e-06 2.897271e-06 1.324399e-06 3.581768e-06 2.053434e-06 4.700947e-06 3.149732e-06 6.140681e-06 4.494096e-06 7.780767e-06 5.962782e-06 9.499093e-06 7.433871e-06 1.117749e-05 8.794473e-06 1.270931e-05 9.948853e-06 1.400846e-05 1.082749e-05 1.501973e-05 1.139692e-05 1.572981e-05 1.166995e-05 1.617820e-05 1.171556e-05 1.646678e-05 1.166697e-05 1.676593e-05 1.172532e-05 1.731414e-05 1.215551e-05 1.840706e-05 1.326988e-05 2.037262e-05 1.539684e-05 2.353032e-05 1.883445e-05 2.813779e-05 2.379454e-05 3.433289e-05 3.034852e-05 4.208493e-05 3.838955e-05 5.116958e-05 4.762450e-05 6.117862e-05 5.760297e-05 7.156703e-05 6.778007e-05 8.172955e-05 7.760022e-05 9.109029e-05 8.658227e-05 9.918533e-05 9.438610e-05 1.057208e-04 1.008462e-04 1.105957e-04 1.059676e-04 1.138902e-04 1.098877e-04 1.158243e-04 1.128186e-04 1.167029e-04 1.149827e-04 1.168576e-04 1.165580e-04 1.165974e-04 1.176428e-04 1.161750e-04 1.182446e-04 1.157679e-04 1.182923e-04 1.154743e-04 1.176651e-04 1.153165e-04 1.162308e-04 1.152493e-04 1.138836e-04 1.151695e-04 1.105753e-04 1.149270e-04 1.063329e-04 1.143371e-04 1.012621e-04 1.131974e-04 9.553549e-05 1.113086e-04 8.936853e-05 1.084981e-04 8.298842e-05 1.046435e-04 7.660080e-05 9.969137e-05 7.036142e-05 9.366838e-05 6.435872e-05 8.668143e-05 5.861148e-05 7.890872e-05 5.308208e-05 7.058270e-05 4.770205e-05 6.196825e-05 4.240270e-05 5.333906e-05 3.714245e-05 4.495522e-05 3.192436e-05 3.704478e-05 2.680042e-05 2.979131e-05 2.186371e-05 2.332838e-05 1.723239e-05 1.774026e-05 1.303045e-05 1.306745e-05 9.370170e-06 9.314518e-06 6.338824e-06 6.458272e-06 3.990962e-06 4.454698e-06 2.345714e-06 3.243867e-06 
4.819135e-06 6.484832e-06 4.039659e-06 6.314050e-06 4.002116e-06 6.855714e-06 4.603592e-06 7.988336e-06 5.713913e-06 9.572539e-06 7.183537e-06 1.145547e-05 8.852456e-06 1.347769e-05 1.056010e-05 1.548241e-05 1.215621e-05 1.732677e-05 1.351267e-05 1.889481e-05 1.453606e-05 2.011161e-05 1.518084e-05 2.095793e-05 1.546276e-05 2.148463e-05 1.547171e-05 2.182520e-05 1.538237e-05 2.220411e-05 1.545964e-05 2.293686e-05 1.605388e-05 2.441648e-05 1.758042e-05 2.708110e-05 2.047833e-05 3.136004e-05 2.514831e-05 3.760162e-05 3.187688e-05 4.599421e-05 4.076202e-05 5.649906e-05 5.166094e-05 6.881564e-05 6.417895e-05 8.239489e-05 7.770937e-05 9.650404e-05 9.152032e-05 1.103319e-04 1.048701e-04 1.231119e-04 1.171238e-04 1.342341e-04 1.278437e-04 1.433234e-04 1.368330e-04 1.502679e-04 1.441269e-04 1.551986e-04 1.499370e-04 1.584302e-04 1.545665e-04 1.603807e-04 1.583187e-04 1.614886e-04 1.614178e-04 1.621446e-04 1.639595e-04 1.626440e-04 1.658961e-04 1.631645e-04 1.670558e-04 1.637644e-04 1.671888e-04 1.643943e-04 1.660276e-04 1.649160e-04 1.633481e-04 1.651245e-04 1.590215e-04 1.647697e-04 1.530477e-04 1.635815e-04 1.455670e-04 1.612966e-04 1.368480e-04 1.576897e-04 1.272550e-04 1.526046e-04 1.172006e-04 1.459807e-04 1.070909e-04 1.378691e-04 9.727198e-05 1.284322e-04 8.798859e-05 1.179281e-04 7.936324e-05 1.066818e-04 7.140050e-05 9.504989e-05 6.401481e-05 8.338672e-05 5.707384e-05 7.201491e-05 5.044528e-05 6.120572e-05 4.403545e-05 5.116901e-05 3.781189e-05 4.205268e-05 3.180757e-05 3.394928e-05 2.610985e-05 2.690685e-05 2.083997e-05 2.094073e-05 1.612942e-05 1.604362e-05 1.209854e-05 1.219234e-05 8.840177e-06 9.350772e-06 6.409440e-06 7.469717e-06 
9.407428e-07 3.297785e-06 3.168275e-07 3.453466e-06 6.676984e-07 4.527261e-06 1.835142e-06 6.344698e-06 3.635622e-06 8.716772e-06 5.869028e-06 1.144381e-05 8.328021e-06 1.432217e-05 1.080851e-05 1.715401e-05 1.312163e-05 1.976006e-05 1.510736e-05 2.199507e-05 1.664961e-05 2.376515e-05 1.769239e-05 2.504618e-05 1.825656e-05 2.590209e-05 1.845602e-05 2.650107e-05 1.851152e-05 2.712674e-05 1.875826e-05 2.817939e-05 1.964128e-05 3.016038e-05 2.169097e-05 3.363253e-05 2.547213e-05 3.915227e-05 3.150504e-05 4.717695e-05 4.016738e-05 5.796184e-05 5.159656e-05 7.147094e-05 6.561954e-05 8.732914e-05 8.173579e-05 1.048366e-04 9.916669e-05 1.230504e-04 1.169663e-04 1.409192e-04 1.341696e-04 1.574408e-04 1.499430e-04 1.718077e-04 1.637008e-04 1.835069e-04 1.751629e-04 1.923596e-04 1.843446e-04 1.984969e-04 1.914884e-04 2.022886e-04 1.969588e-04 2.042455e-04 2.011300e-04 2.049200e-04 2.042896e-04 2.048233e-04 2.065798e-04 2.043700e-04 2.079811e-04 2.038511e-04 2.083379e-04 2.034282e-04 2.074138e-04 2.031425e-04 2.049609e-04 2.029268e-04 2.007885e-04 2.026196e-04 1.948169e-04 2.019780e-04 1.871084e-04 2.006965e-04 1.778711e-04 1.984324e-04 1.674362e-04 1.948425e-04 1.562138e-04 1.896269e-04 1.446349e-04 1.825733e-04 1.330899e-04 1.735937e-04 1.218753e-04 1.627451e-04 1.111590e-04 1.502290e-04 1.009742e-04 1.363733e-04 9.124328e-05 1.215992e-04 8.182648e-05 1.063813e-04 7.258117e-05 9.120376e-05 6.341564e-05 7.652112e-05 5.432309e-05 6.272544e-05 4.538959e-05 5.012535e-05 3.677819e-05 3.893779e-05 2.869754e-05 2.929151e-05 2.136558e-05 2.123901e-05 1.497717e-05 1.477256e-05 9.680974e-06 9.839991e-06 5.567045e-06 6.357561e-06 2.663669e-06 4.218534e-06 
5.279299e-06 7.878189e-06 3.917343e-06 7.449418e-06 3.715679e-06 8.125046e-06 4.515566e-06 9.724392e-06 6.117709e-06 1.203903e-05 8.294126e-06 1.483909e-05 1.080150e-05 1.788357e-05 1.339615e-05 2.093455e-05 1.585059e-05 2.377460e-05 1.797143e-05 2.622672e-05 1.961830e-05 2.817583e-05 2.072311e-05 2.959066e-05 2.130938e-05 3.054507e-05 2.151073e-05 3.123695e-05 2.158722e-05 3.200205e-05 2.193531e-05 3.331697e-05 2.308482e-05 3.578312e-05 2.567248e-05 4.008170e-05 3.038289e-05 4.689299e-05 3.785326e-05 5.678283e-05 4.855185e-05 7.007375e-05 6.265467e-05 8.673168e-05 7.995575e-05 1.063041e-04 9.984427e-05 1.279372e-04 1.213663e-04 1.504777e-04 1.433650e-04 1.726429e-04 1.646670e-04 1.932180e-04 1.842716e-04 2.112368e-04 2.014953e-04 2.261037e-04 2.160393e-04 2.376379e-04 2.279719e-04 2.460375e-04 2.376353e-04 2.517831e-04 2.455069e-04 2.555096e-04 2.520506e-04 2.578771e-04 2.575915e-04 2.594652e-04 2.622390e-04 2.607045e-04 2.658683e-04 2.618476e-04 2.681579e-04 2.629711e-04 2.686694e-04 2.639965e-04 2.669477e-04 2.647190e-04 2.626224e-04 2.648359e-04 2.554906e-04 2.639755e-04 2.455700e-04 2.617291e-04 2.331150e-04 2.576911e-04 2.185949e-04 2.515086e-04 2.026397e-04 2.429353e-04 1.859601e-04 2.318806e-04 1.692554e-04 2.184405e-04 1.531221e-04 2.028984e-04 1.379797e-04 1.856967e-04 1.240314e-04 1.673839e-04 1.112698e-04 1.485526e-04 9.952556e-05 1.297798e-04 8.854641e-05 1.115800e-04 7.808255e-05 9.437427e-05 6.795638e-05 7.847700e-05 5.810143e-05 6.409830e-05 4.856735e-05 5.135798e-05 3.949748e-05 4.030608e-05 3.109093e-05 3.094437e-05 2.356130e-05 2.324414e-05 1.710101e-05 1.715766e-05 1.185564e-05 1.262279e-05 7.909329e-06 9.562008e-06 
-1.683590e-06 1.800458e-06 -2.762358e-06 1.830648e-06 -2.423671e-06 3.182703e-06 -8.955851e-07 5.615280e-06 1.560593e-06 8.866572e-06 4.661803e-06 1.265860e-05 8.115655e-06 1.670607e-05 1.163479e-05 2.073020e-05 1.495378e-05 2.447716e-05 1.784846e-05 2.774047e-05 2.015717e-05 3.038582e-05 2.180292e-05 3.237690e-05 2.281576e-05 3.380055e-05 2.335430e-05 3.488941e-05 2.372510e-05 3.603916e-05 2.439588e-05 3.781434e-05 2.599478e-05 4.093284e-05 2.928307e-05 4.621625e-05 3.508833e-05 5.449581e-05 4.419169e-05 6.647557e-05 5.717918e-05 8.257277e-05 7.428749e-05 1.027742e-04 9.528843e-05 1.265543e-04 1.194555e-04 1.528905e-04 1.456356e-04 1.803851e-04 1.724185e-04 2.074705e-04 1.983648e-04 2.326497e-04 2.222360e-04 2.547156e-04 2.431710e-04 2.729007e-04 2.607694e-04 2.869315e-04 2.750707e-04 2.969884e-04 2.864443e-04 3.035945e-04 2.954267e-04 3.074689e-04 3.025484e-04 3.093809e-04 3.081908e-04 3.100330e-04 3.125015e-04 3.099872e-04 3.153788e-04 3.096349e-04 3.165197e-04 3.091973e-04 3.155125e-04 3.087413e-04 3.119484e-04 3.081944e-04 3.055277e-04 3.073568e-04 2.961412e-04 3.059097e-04 2.839151e-04 3.034324e-04 2.692132e-04 2.994350e-04 2.525982e-04 2.934119e-04 2.347596e-04 2.849135e-04 2.164203e-04 2.736230e-04 1.982367e-04 2.594196e-04 1.807090e-04 2.424126e-04 1.641209e-04 2.229391e-04 1.485230e-04 2.015293e-04 1.337705e-04 1.788500e-04 1.196053e-04 1.556386e-04 1.057605e-04 1.326354e-04 9.205509e-05 1.105223e-04 7.845339e-05 8.987381e-05 6.507712e-05 7.112622e-05 5.217528e-05 5.456871e-05 4.006864e-05 4.035328e-05 2.908811e-05 2.851833e-05 1.952299e-05 1.901759e-05 1.158667e-05 1.174731e-05 5.401054e-06 6.567039e-06 9.957301e-07 3.312366e-06 
3.207033e-06 6.876531e-06 1.024553e-06 5.965546e-06 4.764850e-07 6.593516e-06 1.341938e-06 8.522373e-06 3.347070e-06 1.147526e-05 6.180764e-06 1.514430e-05 9.512324e-06 1.920455e-05 1.301167e-05 2.333354e-05 1.637210e-05 2.723584e-05 1.933490e-05 3.067083e-05 2.171477e-05 3.348205e-05 2.342466e-05 3.562602e-05 2.449927e-05 3.719929e-05 2.511728e-05 3.846273e-05 2.562213e-05 3.986124e-05 2.653854e-05 4.203336e-05 2.857651e-05 4.579943e-05 3.260716e-05 5.211098e-05 3.959184e-05 6.194605e-05 5.045304e-05 7.614841e-05 6.589652e-05 9.523366e-05 8.622117e-05 1.192105e-04 1.111736e-04 1.474761e-04 1.399035e-04 1.788320e-04 1.710497e-04 2.116314e-04 2.029477e-04 2.440299e-04 2.339089e-04 2.742778e-04 2.625009e-04 3.009836e-04 2.877584e-04 3.232905e-04 3.092783e-04 3.409331e-04 3.271853e-04 3.541800e-04 3.419877e-04 3.636885e-04 3.543680e-04 3.703183e-04 3.649627e-04 3.749481e-04 3.741801e-04 3.783317e-04 3.820939e-04 3.810115e-04 3.884266e-04 3.832901e-04 3.926176e-04 3.852454e-04 3.939510e-04 3.867657e-04 3.917113e-04 3.875867e-04 3.853354e-04 3.873218e-04 3.745340e-04 3.854881e-04 3.593672e-04 3.815385e-04 3.402636e-04 3.749119e-04 3.179846e-04 3.651050e-04 2.935389e-04 3.517613e-04 2.680619e-04 3.347576e-04 2.426724e-04 3.142610e-04 2.183270e-04 2.907341e-04 1.956963e-04 2.648838e-04 1.750924e-04 2.375698e-04 1.564723e-04 2.096992e-04 1.395195e-04 1.821323e-04 1.237802e-04 1.556128e-04 1.088121e-04 1.307268e-04 9.430276e-05 1.078891e-04 8.013141e-05 8.735352e-05 6.637032e-05 6.923906e-05 5.324051e-05 5.356652e-05 4.104507e-05 4.029452e-05 3.010179e-05 2.934866e-05 2.068902e-05 2.063934e-05 1.301042e-05 1.406794e-05 7.177687e-06 9.523901e-06 
-7.589092e-06 -2.765828e-06 -9.333723e-06 -3.072609e-06 -9.170695e-06 -1.620434e-06 -7.405083e-06 1.286223e-06 -4.380231e-06 5.316129e-06 -4.646923e-07 1.011483e-05 3.962364e-06 1.531525e-05 8.529161e-06 2.055585e-05 1.289355e-05 2.550588e-05 1.676901e-05 2.989597e-05 1.995259e-05 3.355150e-05 2.235277e-05 3.642562e-05 2.401536e-05 3.862978e-05 2.514743e-05 4.046094e-05 2.614006e-05 4.242443e-05 2.758859e-05 4.524833e-05 3.030249e-05 4.987674e-05 3.528628e-05 5.742042e-05 4.366647e-05 6.904207e-05 5.654567e-05 8.576896e-05 7.479060e-05 1.082575e-04 9.879761e-05 1.365692e-04 1.283072e-04 1.700337e-04 1.623400e-04 2.072585e-04 1.992943e-04 2.463003e-04 2.371922e-04 2.849628e-04 2.740140e-04 3.211455e-04 3.080331e-04 3.531566e-04 3.380671e-04 3.799211e-04 3.635898e-04 4.010488e-04 3.846897e-04 4.167672e-04 4.019016e-04 4.277580e-04 4.159646e-04 4.349481e-04 4.275721e-04 4.393101e-04 4.371698e-04 4.417103e-04 4.448448e-04 4.428248e-04 4.503195e-04 4.431178e-04 4.530391e-04 4.428597e-04 4.523195e-04 4.421554e-04 4.475180e-04 4.409596e-04 4.381877e-04 4.390745e-04 4.241936e-04 4.361402e-04 4.057720e-04 4.316368e-04 3.835286e-04 4.249175e-04 3.583751e-04 4.152833e-04 3.314181e-04 4.020963e-04 3.038160e-04 3.849082e-04 2.766262e-04 3.635683e-04 2.506611e-04 3.382788e-04 2.263828e-04 3.095836e-04 2.038650e-04 2.783033e-04 1.828456e-04 2.454410e-04 1.628626e-04 2.120802e-04 1.434340e-04 1.792862e-04 1.242222e-04 1.480179e-04 1.051340e-04 1.190583e-04 8.633561e-05 9.297243e-05 6.819481e-05 7.009994e-05 5.118362e-05 5.057839e-05 3.577731e-05 3.438715e-05 2.237577e-05 2.139772e-05 1.125784e-05 1.141824e-05 2.566549e-06 4.225053e-06 -3.683802e-06 -4.202405e-07 
-2.558781e-06 2.392313e-06 -5.889867e-06 6.697785e-07 -7.041290e-06 9.766487e-07 -6.306240e-06 3.019629e-06 -4.041223e-06 6.453824e-06 -6.472379e-07 1.089153e-05 3.451859e-06 1.591985e-05 7.835104e-06 2.112676e-05 1.211449e-05 2.613446e-05 1.596791e-05 3.063702e-05 1.917214e-05 3.443887e-05 2.163252e-05 3.748993e-05 2.340756e-05 3.991558e-05 2.472959e-05 4.204217e-05 2.602547e-05 4.442058e-05 2.793986e-05 4.784637e-05 3.135491e-05 5.336383e-05 3.738400e-05 6.222564e-05 4.730440e-05 7.577405e-05 6.239793e-05 9.522669e-05 8.370102e-05 1.213927e-04 1.117160e-04 1.543933e-04 1.461762e-04 1.934858e-04 1.859593e-04 2.370683e-04 2.292027e-04 2.828859e-04 2.736028e-04 3.283918e-04 3.168223e-04 3.711673e-04 3.568937e-04 4.092941e-04 3.925173e-04 4.415950e-04 4.231854e-04 4.677015e-04 4.491194e-04 4.879598e-04 4.710512e-04 5.032192e-04 4.899179e-04 5.145706e-04 5.065451e-04 5.230979e-04 5.213934e-04 5.296936e-04 5.344186e-04 5.349624e-04 5.450675e-04 5.392095e-04 5.523968e-04 5.424830e-04 5.552736e-04 5.446336e-04 5.526085e-04 5.453577e-04 5.435746e-04 5.442171e-04 5.277780e-04 5.406456e-04 5.053600e-04 5.339667e-04 4.770178e-04 5.234452e-04 4.439457e-04 5.083883e-04 4.077074e-04 4.882898e-04 3.700601e-04 4.629829e-04 3.327442e-04 4.327477e-04 2.972588e-04 3.983248e-04 2.646549e-04 3.608229e-04 2.354010e-04 3.215564e-04 2.093749e-04 2.818701e-04 1.859974e-04 2.429949e-04 1.644692e-04 2.059535e-04 1.440283e-04 1.715127e-04 1.241488e-04 1.401759e-04 1.046330e-04 1.122065e-04 8.559696e-05 8.767666e-05 6.738244e-05 6.652702e-05 5.044121e-05 4.862614e-05 3.522817e-05 3.381626e-05 2.212411e-05 2.193978e-05 1.139245e-05 1.284633e-05 3.164138e-06 6.385605e-06 
-1.810011e-05 -1.162635e-05 -2.078997e-05 -1.257972e-05 -2.103080e-05 -1.129960e-05 -1.921443e-05 -8.147669e-06 -1.577128e-05 -3.519565e-06 -1.115810e-05 2.156277e-06 -5.842706e-06 8.430381e-06 -2.826476e-07 1.485555e-05 5.103651e-06 2.102103e-05 9.971809e-06 2.659433e-05 1.408839e-05 3.136546e-05 1.736438e-05 3.528727e-05 1.988126e-05 3.850788e-05 2.191016e-05 4.139599e-05 2.393027e-05 4.456459e-05 2.665406e-05 4.889653e-05 3.105710e-05 5.556110e-05 3.838832e-05 6.598739e-05 5.011387e-05 8.174569e-05 6.774669e-05 1.043052e-04 9.255326e-05 1.346914e-04 1.251971e-04 1.731352e-04 1.654371e-04 2.188410e-04 2.120065e-04 2.699773e-04 2.627397e-04 3.239156e-04 3.149281e-04 3.776588e-04 3.658070e-04 4.283394e-04 4.130345e-04 4.736574e-04 4.550413e-04 5.121582e-04 4.911729e-04 5.433086e-04 5.216109e-04 5.673846e-04 5.471171e-04 5.852321e-04 5.686818e-04 5.979771e-04 5.871677e-04 6.067606e-04 6.030338e-04 6.125537e-04 6.161972e-04 6.160766e-04 6.260527e-04 6.178088e-04 6.316267e-04 6.180474e-04 6.318126e-04 6.169576e-04 6.256216e-04 6.145811e-04 6.124030e-04 6.107996e-04 5.920010e-04 6.052797e-04 5.648328e-04 5.974372e-04 5.318776e-04 5.864589e-04 4.945773e-04 5.714020e-04 4.546675e-04 5.513723e-04 4.139670e-04 5.257425e-04 3.741503e-04 4.943394e-04 3.365235e-04 4.575316e-04 3.018377e-04 4.161930e-04 2.702006e-04 3.715771e-04 2.411427e-04 3.251598e-04 2.138430e-04 2.784895e-04 1.874436e-04 2.330531e-04 1.613377e-04 1.901561e-04 1.353362e-04 1.508250e-04 1.096783e-04 1.157493e-04 8.491616e-05 8.527910e-05 6.174169e-05 5.947245e-05 4.082251e-05 3.817551e-05 2.268714e-05 2.110798e-05 7.671078e-06 7.934022e-06 -4.087447e-06 -1.691836e-06 -1.262180e-05 -8.104305e-06 
-1.343539e-05 -6.896608e-06 -1.834137e-05 -9.895043e-06 -2.044175e-05 -1.030629e-05 -2.011718e-05 -8.476896e-06 -1.781816e-05 -4.820263e-06 -1.404476e-05 1.923721e-07 -9.322126e-06 6.053468e-06 -4.168691e-06 1.225341e-05 9.435196e-07 1.832587e-05 5.633851e-06 2.389975e-05 9.656942e-06 2.875010e-05 1.293765e-05 3.283966e-05 1.559148e-05 3.634586e-05 1.793247e-05 3.967687e-05 2.048058e-05 4.348903e-05 2.398558e-05 4.871822e-05 2.947271e-05 5.661840e-05 3.828402e-05 6.876447e-05 5.205014e-05 8.694755e-05 7.251805e-05 1.129064e-04 1.012081e-04 1.479132e-04 1.389702e-04 1.923296e-04 1.855955e-04 2.453035e-04 2.396497e-04 3.047449e-04 2.986228e-04 3.676152e-04 3.593655e-04 4.304498e-04 4.186836e-04 4.899606e-04 4.739185e-04 5.435564e-04 5.233604e-04 5.896612e-04 5.664037e-04 6.277844e-04 6.034331e-04 6.583647e-04 6.354956e-04 6.824637e-04 6.638573e-04 7.014033e-04 6.895558e-04 7.164364e-04 7.130508e-04 7.285197e-04 7.340472e-04 7.382231e-04 7.515206e-04 7.457632e-04 7.639209e-04 7.511044e-04 7.694857e-04 7.540573e-04 7.665815e-04 7.543244e-04 7.540117e-04 7.514853e-04 7.312508e-04 7.449538e-04 6.985800e-04 7.339516e-04 6.571072e-04 7.175469e-04 6.086716e-04 6.947897e-04 5.556554e-04 6.649464e-04 5.007354e-04 6.277762e-04 4.465900e-04 5.837391e-04 3.955601e-04 5.340250e-04 3.493006e-04 4.803788e-04 3.085195e-04 4.248026e-04 2.729326e-04 3.692606e-04 2.414873e-04 3.154703e-04 2.127830e-04 2.647890e-04 1.855264e-04 2.181739e-04 1.588629e-04 1.761891e-04 1.325046e-04 1.390516e-04 1.066676e-04 1.067113e-04 8.189746e-05 7.894876e-05 5.886763e-05 5.547002e-05 3.821480e-05 3.597762e-05 2.043599e-05 2.020832e-05 5.844415e-06 7.939113e-06 -5.432916e-06 -1.028813e-06 
-3.479651e-05 -2.623800e-05 -3.878580e-05 -2.828125e-05 -3.974211e-05 -2.758069e-05 -3.815583e-05 -2.454651e-05 -3.454946e-05 -1.963190e-05 -2.947014e-05 -1.333652e-05 -2.347661e-05 -6.194479e-06 -1.711474e-05 1.255574e-06 -1.087943e-05 8.517446e-06 -5.165475e-06 1.519670e-05 -2.159335e-07 2.106181e-05 3.919650e-06 2.609393e-05 7.406593e-06 3.051500e-05 1.062506e-05 3.479610e-05 1.416413e-05 3.966463e-05 1.883814e-05 4.613573e-05 2.574497e-05 5.557309e-05 3.634379e-05 6.973075e-05 5.246842e-05 9.067584e-05 7.616424e-05 1.204984e-04 1.092918e-04 1.608121e-04 1.529743e-04 2.121896e-04 2.070920e-04 2.737602e-04 2.700494e-04 3.431551e-04 3.389397e-04 4.168465e-04 4.100690e-04 4.907736e-04 4.796712e-04 5.610603e-04 5.445987e-04 6.246244e-04 6.028044e-04 6.795400e-04 6.535127e-04 7.251051e-04 6.970734e-04 7.616524e-04 7.345736e-04 7.901978e-04 7.673267e-04 8.120399e-04 7.963704e-04 8.284142e-04 8.220903e-04 8.402770e-04 8.440539e-04 8.482548e-04 8.610846e-04 8.527301e-04 8.715309e-04 8.539805e-04 8.736348e-04 8.522708e-04 8.658973e-04 8.478396e-04 8.473789e-04 8.407888e-04 8.179078e-04 8.309364e-04 7.781838e-04 8.177056e-04 7.297565e-04 8.001097e-04 6.748714e-04 7.768796e-04 6.162143e-04 7.467454e-04 5.566072e-04 7.088161e-04 4.986864e-04 6.629154e-04 4.445597e-04 6.097194e-04 3.954698e-04 5.506506e-04 3.515841e-04 4.876228e-04 3.120608e-04 4.227781e-04 2.754332e-04 3.582852e-04 2.401779e-04 2.961793e-04 2.052325e-04 2.382075e-04 1.702705e-04 1.856867e-04 1.356799e-04 1.394174e-04 1.023261e-04 9.968729e-05 7.123935e-05 6.636462e-05 4.334804e-05 3.904078e-05 1.932082e-05 1.717506e-05 -4.827006e-07 2.053062e-07 -1.598460e-05 -1.238917e-05 -2.732541e-05 -2.106769e-05 
-3.112672e-05 -2.257784e-05 -3.814164e-05 -2.749409e-05 -4.164639e-05 -2.919065e-05 -4.213032e-05 -2.806671e-05 -4.015272e-05 -2.460686e-05 -3.632483e-05 -1.937302e-05 -3.128481e-05 -1.297916e-05 -2.565962e-05 -6.046703e-06 -2.001132e-05 8.585955e-07 -1.477228e-05 7.301543e-06 -1.018147e-05 1.304987e-05 -6.239814e-06 1.812536e-05 -2.700192e-06 2.281931e-05 9.067943e-07 2.767609e-05 5.235441e-06 3.347512e-05 1.112370e-05 4.125898e-05 1.967040e-05 5.243066e-05 3.237516e-05 6.886517e-05 5.122898e-05 9.289101e-05 7.858369e-05 1.269880e-04 1.166945e-04 1.731790e-04 1.670203e-04 2.323015e-04 2.295561e-04 3.034691e-04 3.025112e-04 3.839827e-04 3.825031e-04 4.697479e-04 4.652098e-04 5.560514e-04 5.462571e-04 6.384386e-04 6.220597e-04 7.134401e-04 6.903927e-04 7.789838e-04 7.505742e-04 8.344433e-04 8.032614e-04 8.803790e-04 8.499564e-04 9.180903e-04 8.923655e-04 9.491148e-04 9.317680e-04 9.747941e-04 9.685341e-04 9.960036e-04 1.001903e-03 1.013095e-03 1.030072e-03 1.026029e-03 1.050538e-03 1.034590e-03 1.060593e-03 1.038554e-03 1.057807e-03 1.037723e-03 1.040460e-03 1.031829e-03 1.007847e-03 1.020393e-03 9.604751e-04 1.002604e-03 9.000741e-04 9.773088e-04 8.294453e-04 9.431830e-04 7.521755e-04 8.991126e-04 6.723007e-04 8.447077e-04 5.939271e-04 7.807189e-04 5.207408e-04 7.090969e-04 4.554009e-04 6.326357e-04 3.990081e-04 5.544002e-04 3.509571e-04 4.772283e-04 3.093243e-04 4.034528e-04 2.716464e-04 3.348110e-04 2.357455e-04 2.724419e-04 2.002820e-04 2.169193e-04 1.649046e-04 1.683234e-04 1.300638e-04 1.263633e-04 9.666235e-05 9.053362e-05 6.570894e-05 6.026680e-05 3.807437e-05 3.504296e-05 1.436954e-05 1.444122e-05 -5.079520e-06 -1.860923e-06 -2.020110e-05 -1.412109e-05 
-5.950963e-05 -4.828999e-05 -6.523728e-05 -5.205244e-05 -6.733475e-05 -5.253600e-05 -6.640336e-05 -5.018771e-05 -6.306086e-05 -4.550989e-05 -5.794576e-05 -3.907153e-05 -5.171117e-05 -3.149749e-05 -4.499798e-05 -2.343064e-05 -3.838255e-05 -1.546527e-05 -3.230283e-05 -8.058368e-06 -2.697833e-05 -1.437057e-06 -2.234982e-05 4.469758e-06 -1.806569e-05 1.004863e-05 -1.352560e-05 1.596331e-05 -7.955548e-06 2.309930e-05 -4.453654e-07 3.256816e-05 1.013101e-05 4.583225e-05 2.532241e-05 6.490331e-05 4.729839e-05 9.241810e-05 7.878571e-05 1.313478e-04 1.225554e-04 1.842663e-04 1.805406e-04 2.524077e-04 2.529519e-04 3.349412e-04 3.378259e-04 4.288205e-04 4.312393e-04 5.292843e-04 5.281072e-04 6.308033e-04 6.232645e-04 7.281352e-04 7.124735e-04 8.171764e-04 7.930865e-04 8.954199e-04 8.642347e-04 9.619803e-04 9.265617e-04 1.017269e-03 9.816314e-04 1.062475e-03 1.031188e-03 1.099011e-03 1.076444e-03 1.128063e-03 1.117567e-03 1.150345e-03 1.153483e-03 1.166131e-03 1.182054e-03 1.175491e-03 1.200550e-03 1.178596e-03 1.206223e-03 1.175881e-03 1.196827e-03 1.167978e-03 1.171008e-03 1.155456e-03 1.128572e-03 1.138505e-03 1.070636e-03 1.116690e-03 9.996090e-04 1.088856e-03 9.189541e-04 1.053270e-03 8.327885e-04 1.008071e-03 7.454527e-04 9.519503e-04 6.610936e-04 8.847806e-04 5.831623e-04 8.078362e-04 5.137856e-04 7.234919e-04 4.532572e-04 6.346799e-04 4.000493e-04 5.444559e-04 3.514989e-04 4.557811e-04 3.048855e-04 3.713904e-04 2.583849e-04 2.936060e-04 2.115137e-04 2.241081e-04 1.649961e-04 1.637786e-04 1.202629e-04 1.127140e-04 7.887916e-05 7.040205e-05 4.212176e-05 3.598068e-05 1.078194e-05 8.481766e-06 -1.484124e-05 -1.300080e-05 -3.483971e-05 -2.923215e-05 -4.956422e-05 -4.082833e-05 
-5.760726e-05 -4.649736e-05 -6.738432e-05 -5.420981e-05 -7.289144e-05 -5.799598e-05 -7.475427e-05 -5.831128e-05 -7.365893e-05 -5.571862e-05 -7.034313e-05 -5.088377e-05 -6.557583e-05 -4.454796e-05 -6.011306e-05 -3.747093e-05 -5.462331e-05 -3.034126e-05 -4.958785e-05 -2.366206e-05 -4.519734e-05 -1.763645e-05 -4.128149e-05 -1.209221e-05 -3.731094e-05 -6.484595e-06 -3.248931e-05 1.333730e-08 -2.590075e-05 8.386862e-06 -1.660979e-05 1.974351e-05 -3.578591e-06 3.548176e-05 1.464848e-05 5.763298e-05 4.032301e-05 8.910258e-05 7.655613e-05 1.334243e-04 1.267468e-04 1.938657e-04 1.934429e-04 2.721805e-04 2.771433e-04 3.676178e-04 3.756645e-04 4.766945e-04 4.843961e-04 5.938298e-04 5.973210e-04 7.125469e-04 7.083777e-04 8.267820e-04 8.127013e-04 9.319054e-04 9.074101e-04 1.025236e-03 9.917965e-04 1.106020e-03 1.066964e-03 1.174988e-03 1.135081e-03 1.233708e-03 1.198456e-03 1.283886e-03 1.258647e-03 1.326797e-03 1.315790e-03 1.362966e-03 1.368317e-03 1.392190e-03 1.413155e-03 1.413868e-03 1.446330e-03 1.427441e-03 1.463714e-03 1.432673e-03 1.461724e-03 1.429637e-03 1.437875e-03 1.418472e-03 1.391203e-03 1.399040e-03 1.322543e-03 1.370639e-03 1.234568e-03 1.331886e-03 1.131520e-03 1.280878e-03 1.018750e-03 1.215815e-03 9.022795e-04 1.135980e-03 7.883989e-04 1.042612e-03 6.830144e-04 9.390258e-04 5.905489e-04 8.298219e-04 5.127958e-04 7.197297e-04 4.485039e-04 6.127686e-04 3.940991e-04 5.119730e-04 3.452018e-04 4.194519e-04 2.981636e-04 3.364889e-04 2.509788e-04 2.635918e-04 2.033800e-04 2.005678e-04 1.563463e-04 1.466975e-04 1.114110e-04 1.009892e-04 7.008122e-05 6.243028e-05 3.350265e-05 3.015878e-05 2.352236e-06 3.527882e-06 -2.312288e-05 -1.791538e-05 -4.300594e-05 -3.449777e-05 