# vtk DataFile Version 2.0
Comment goes here
ASCII

DATASET STRUCTURED_POINTS
FIELD FieldData 1
TIME 1 1 double
0.06500000
DIMENSIONS    128   128   1

ORIGIN    0.000   0.000   0.000
SPACING   0.039062 0.039062   1.000

POINT_DATA   16384
SCALARS Omega double
LOOKUP_TABLE default

-2.720871e-14 -3.215262e-14 -2.430246e-14 -1.563320e-14 -9.843225e-15 4.408955e-15 1.162388e-14 1.205660e-14 1.420923e-14 6.455770e-15 5.717212e-15 9.175584e-15 1.104608e-14 1.269462e-14 1.097452e-15 -1.038628e-14 -2.967622e-14 -2.486508e-14 -1.760282e-14 -2.477727e-14 -3.383699e-14 -2.179827e-14 -2.373547e-14 -2.812291e-14 -3.105450e-14 -6.278914e-15 2.332291e-15 2.873505e-14 -2.022088e-15 -1.660651e-14 -3.073712e-14 1.646198e-14 -2.754356e-14 -4.938316e-15 -6.902013e-15 -3.894555e-15 -1.083283e-14 -3.053100e-14 -4.387722e-14 -5.785648e-14 -6.046728e-14 9.863074e-15 1.716563e-14 6.572271e-15 -3.160581e-15 4.961254e-15 1.591814e-14 -2.897564e-14 3.954843e-14 1.143479e-14 3.819864e-14 4.086937e-14 4.453898e-14 4.424301e-14 2.293242e-14 4.001558e-14 6.402973e-14 7.017986e-14 6.640596e-14 4.930260e-14 5.271150e-14 2.490703e-14 2.755264e-14 1.185088e-14 -2.067027e-15 -1.566083e-14 -3.742326e-14 -4.182765e-14 -2.645272e-14 -9.658028e-15 -2.605874e-14 -1.528322e-15 1.375599e-14 -1.093687e-15 2.887251e-15 -3.188635e-14 -1.930308e-14 5.137819e-15 -2.675905e-14 -2.526899e-14 1.634760e-14 1.816954e-14 -1.170064e-14 4.159339e-14 3.183138e-14 1.082724e-14 2.750334e-15 -4.282667e-14 6.949577e-15 8.300499e-15 6.147344e-15 5.045143e-15 2.150855e-14 2.317908e-14 2.189021e-14 8.537127e-15 1.197303e-14 -8.948052e-15 3.007286e-14 2.823435e-14 1.324258e-14 4.793101e-15 9.129483e-16 -2.333213e-15 4.281717e-14 2.313990e-14 1.255592e-14 -4.820691e-15 2.301347e-14 5.034912e-15 3.533267e-14 2.013166e-14 4.167471e-14 4.480932e-14 8.283267e-15 -8.056246e-15 -5.457232e-15 -1.691978e-14 -1.811649e-14 -7.340065e-15 -1.580517e-14 -2.014515e-14 -9.794351e-15 -1.962552e-14 -1.361666e-14 -1.114760e-14 -1.406430e-14 -2.126063e-14 
3.128470e-06 2.783283e-06 2.979208e-06 2.661788e-06 2.965025e-06 2.672833e-06 3.052763e-06 2.786275e-06 3.207479e-06 2.970368e-06 3.393941e-06 3.193105e-06 3.578320e-06 3.423677e-06 3.730159e-06 3.634162e-06 3.824610e-06 3.801490e-06 3.844925e-06 3.909762e-06 3.785111e-06 3.952938e-06 3.652640e-06 3.937844e-06 3.471021e-06 3.887285e-06 3.281943e-06 3.842799e-06 3.146436e-06 3.866202e-06 3.144197e-06 4.038682e-06 3.369948e-06 4.456027e-06 3.925665e-06 5.218856e-06 4.908132e-06 6.417804e-06 6.392546e-06 8.115320e-06 8.414727e-06 1.032769e-05 1.095609e-05 1.301212e-05 1.393611e-05 1.606362e-05 1.721600e-05 1.932422e-05 2.061451e-05 2.260408e-05 2.393352e-05 2.571039e-05 2.698807e-05 2.847759e-05 2.963406e-05 3.079234e-05 3.178762e-05 3.260776e-05 3.343244e-05 3.394485e-05 3.461464e-05 3.488173e-05 3.542743e-05 3.553415e-05 3.598977e-05 3.603174e-05 3.642356e-05 3.649440e-05 3.683331e-05 3.701264e-05 3.729105e-05 3.763420e-05 3.782787e-05 3.835824e-05 3.843213e-05 3.913715e-05 3.905386e-05 3.988519e-05 3.961396e-05 4.049258e-05 4.001690e-05 4.084290e-05 4.016519e-05 4.083128e-05 3.997380e-05 4.038071e-05 3.938251e-05 3.945370e-05 3.836432e-05 3.805724e-05 3.692844e-05 3.624011e-05 3.511733e-05 3.408318e-05 3.299857e-05 3.168506e-05 3.065360e-05 2.914628e-05 2.816597e-05 2.655598e-05 2.561187e-05 2.398366e-05 2.305465e-05 2.147722e-05 2.054368e-05 1.906636e-05 1.811662e-05 1.676902e-05 1.580339e-05 1.459827e-05 1.362974e-05 1.256722e-05 1.161945e-05 1.069136e-05 9.794704e-06 8.988149e-06 8.174967e-06 7.474935e-06 6.775255e-06 6.166318e-06 5.604421e-06 5.071777e-06 4.664039e-06 4.194131e-06 3.948009e-06 3.528920e-06 3.442851e-06 3.064601e-06 
6.682781e-06 5.965283e-06 6.323564e-06 5.648153e-06 6.212355e-06 5.579694e-06 6.294226e-06 5.710098e-06 6.508560e-06 5.984243e-06 6.792046e-06 6.344519e-06 7.082345e-06 6.734047e-06 7.322332e-06 7.100297e-06 7.464829e-06 7.399174e-06 7.477716e-06 7.599696e-06 7.349281e-06 7.689344e-06 7.093602e-06 7.680033e-06 6.755672e-06 7.614382e-06 6.415708e-06 7.571384e-06 6.191636e-06 7.669820e-06 6.238076e-06 8.066929e-06 6.739485e-06 8.949382e-06 7.895111e-06 1.051420e-05 9.894455e-06 1.293932e-05 1.288462e-05 1.634709e-05 1.693456e-05 2.076791e-05 2.200469e-05 2.611397e-05 2.793144e-05 3.217258e-05 3.443442e-05 3.862470e-05 4.114825e-05 4.508752e-05 4.767425e-05 5.117302e-05 5.364131e-05 5.654953e-05 5.876220e-05 6.099254e-05 6.287309e-05 6.441411e-05 6.594891e-05 6.686605e-05 6.809323e-05 6.851850e-05 6.950742e-05 6.962034e-05 7.044719e-05 7.045038e-05 7.117570e-05 7.126853e-05 7.192114e-05 7.227417e-05 7.284437e-05 7.357703e-05 7.401954e-05 7.518303e-05 7.542818e-05 7.699583e-05 7.696577e-05 7.883261e-05 7.845866e-05 8.045153e-05 7.968887e-05 8.158707e-05 8.042387e-05 8.198832e-05 8.044813e-05 8.145520e-05 7.959272e-05 7.986703e-05 7.775900e-05 7.719939e-05 7.493259e-05 7.352633e-05 7.118516e-05 6.900771e-05 6.666347e-05 6.386403e-05 6.156765e-05 5.834360e-05 5.612300e-05 5.268883e-05 5.055109e-05 4.710827e-05 4.504586e-05 4.175935e-05 3.975866e-05 3.674365e-05 3.479360e-05 3.211305e-05 3.021197e-05 2.788289e-05 2.604223e-05 2.404726e-05 2.229200e-05 2.059249e-05 1.895847e-05 1.750636e-05 1.603564e-05 1.478226e-05 1.351760e-05 1.241923e-05 1.139867e-05 1.041911e-05 9.671402e-06 8.782477e-06 8.323864e-06 7.504765e-06 7.336990e-06 6.573230e-06 
9.133581e-06 8.073927e-06 8.655145e-06 7.681275e-06 8.589644e-06 7.693508e-06 8.836835e-06 8.019564e-06 9.291182e-06 8.563715e-06 9.846207e-06 9.229499e-06 1.039955e-05 9.924073e-06 1.085892e-05 1.056325e-05 1.114889e-05 1.107739e-05 1.121855e-05 1.141841e-05 1.104956e-05 1.156775e-05 1.066430e-05 1.154535e-05 1.013356e-05 1.141905e-05 9.582895e-06 1.131292e-05 9.196192e-06 1.141241e-05 9.214028e-06 1.196229e-05 9.923287e-06 1.325312e-05 1.163440e-05 1.559243e-05 1.464405e-05 1.925982e-05 1.918525e-05 2.445099e-05 2.537234e-05 3.122164e-05 3.315380e-05 3.944658e-05 4.228806e-05 4.880880e-05 5.235370e-05 5.882721e-05 6.279778e-05 6.892142e-05 7.301454e-05 7.850064e-05 8.243789e-05 8.705727e-05 9.062671e-05 9.424347e-05 9.732429e-05 9.991509e-05 1.024805e-04 1.041355e-04 1.062355e-04 1.071422e-04 1.088720e-04 1.092867e-04 1.107496e-04 1.109613e-04 1.122348e-04 1.125271e-04 1.136394e-04 1.142537e-04 1.151748e-04 1.162794e-04 1.169275e-04 1.185942e-04 1.188549e-04 1.210458e-04 1.207993e-04 1.233675e-04 1.225171e-04 1.252211e-04 1.237174e-04 1.262505e-04 1.241055e-04 1.261374e-04 1.234266e-04 1.246510e-04 1.215031e-04 1.216835e-04 1.182593e-04 1.172641e-04 1.137302e-04 1.115509e-04 1.080522e-04 1.048001e-04 1.014373e-04 9.732057e-05 9.413882e-05 8.942542e-05 8.641482e-05 8.138994e-05 7.849940e-05 7.342669e-05 7.058606e-05 6.568014e-05 6.282487e-05 5.823818e-05 5.533005e-05 5.115300e-05 4.819230e-05 4.446263e-05 4.149003e-05 3.820635e-05 3.529582e-05 3.243118e-05 2.967711e-05 2.719026e-05 2.469257e-05 2.253607e-05 2.038668e-05 1.851214e-05 1.678467e-05 1.514594e-05 1.388944e-05 1.244446e-05 1.168067e-05 1.039263e-05 1.011601e-05 8.954153e-06 
1.292671e-05 1.143457e-05 1.212854e-05 1.072606e-05 1.184313e-05 1.053113e-05 1.195979e-05 1.074932e-05 1.235603e-05 1.126945e-05 1.290361e-05 1.197530e-05 1.347595e-05 1.275214e-05 1.395677e-05 1.349397e-05 1.424990e-05 1.411175e-05 1.428971e-05 1.454271e-05 1.405204e-05 1.476095e-05 1.356501e-05 1.478923e-05 1.291903e-05 1.471143e-05 1.227536e-05 1.468423e-05 1.187120e-05 1.494475e-05 1.201838e-05 1.580944e-05 1.309083e-05 1.765768e-05 1.549570e-05 2.089453e-05 1.962450e-05 2.589125e-05 2.578627e-05 3.290943e-05 3.413284e-05 4.202381e-05 4.459367e-05 5.306516e-05 5.684149e-05 6.560392e-05 7.030521e-05 7.898715e-05 8.423507e-05 9.242662e-05 9.781007e-05 1.051208e-04 1.102647e-04 1.163834e-04 1.210060e-04 1.257491e-04 1.296955e-04 1.330342e-04 1.362803e-04 1.383432e-04 1.409711e-04 1.420229e-04 1.441773e-04 1.445805e-04 1.464169e-04 1.465819e-04 1.482195e-04 1.485517e-04 1.500399e-04 1.508876e-04 1.521936e-04 1.538023e-04 1.548181e-04 1.572953e-04 1.578642e-04 1.611580e-04 1.611101e-04 1.650072e-04 1.641974e-04 1.683418e-04 1.666810e-04 1.706155e-04 1.680886e-04 1.713153e-04 1.679840e-04 1.700344e-04 1.660268e-04 1.665316e-04 1.620201e-04 1.607652e-04 1.559405e-04 1.528983e-04 1.479426e-04 1.432731e-04 1.383381e-04 1.323594e-04 1.275513e-04 1.206858e-04 1.160604e-04 1.087673e-04 1.043352e-04 9.704528e-05 9.278557e-05 8.584958e-05 8.172827e-05 7.538801e-05 7.137680e-05 6.576037e-05 6.185137e-05 5.698784e-05 5.320159e-05 4.904717e-05 4.543327e-05 4.190049e-05 3.853189e-05 3.551538e-05 3.247834e-05 2.987373e-05 2.725608e-05 2.497128e-05 2.285104e-05 2.081111e-05 1.924718e-05 1.739466e-05 1.642025e-05 1.471325e-05 1.433209e-05 1.274164e-05 
1.436253e-05 1.251539e-05 1.346170e-05 1.176589e-05 1.327446e-05 1.171501e-05 1.363122e-05 1.220889e-05 1.435372e-05 1.308636e-05 1.526193e-05 1.418523e-05 1.618234e-05 1.534942e-05 1.695795e-05 1.643729e-05 1.746020e-05 1.733161e-05 1.760208e-05 1.795110e-05 1.735205e-05 1.826373e-05 1.674772e-05 1.830140e-05 1.590833e-05 1.817536e-05 1.504506e-05 1.809063e-05 1.446711e-05 1.835584e-05 1.458006e-05 1.938239e-05 1.587071e-05 2.166487e-05 1.887126e-05 2.573479e-05 2.409777e-05 3.208480e-05 3.196448e-05 4.107065e-05 4.268641e-05 5.280985e-05 5.619332e-05 6.710545e-05 7.208300e-05 8.342263e-05 8.963603e-05 1.009348e-04 1.078989e-04 1.186365e-04 1.258222e-04 1.355004e-04 1.424236e-04 1.506424e-04 1.569375e-04 1.634560e-04 1.689191e-04 1.736893e-04 1.782812e-04 1.814496e-04 1.852639e-04 1.871441e-04 1.903496e-04 1.913735e-04 1.941470e-04 1.948032e-04 1.972696e-04 1.980387e-04 2.002294e-04 2.015226e-04 2.033617e-04 2.054672e-04 2.067861e-04 2.098285e-04 2.104033e-04 2.143200e-04 2.139240e-04 2.184631e-04 2.169199e-04 2.216635e-04 2.188907e-04 2.233042e-04 2.193387e-04 2.228424e-04 2.178409e-04 2.198944e-04 2.141116e-04 2.142960e-04 2.080437e-04 2.061263e-04 1.997218e-04 1.956898e-04 1.894043e-04 1.834608e-04 1.774778e-04 1.700011e-04 1.643956e-04 1.558724e-04 1.506141e-04 1.415611e-04 1.365426e-04 1.274356e-04 1.225156e-04 1.137387e-04 1.087899e-04 1.006122e-04 9.555968e-05 8.813688e-05 8.297973e-05 7.637238e-05 7.118488e-05 6.538398e-05 6.030041e-05 5.525240e-05 5.044182e-05 4.606896e-05 4.170755e-05 3.792234e-05 3.416929e-05 3.088372e-05 2.786397e-05 2.499506e-05 2.278950e-05 2.026237e-05 1.890464e-05 1.665427e-05 1.613193e-05 1.410426e-05 
1.825276e-05 1.586926e-05 1.685179e-05 1.461705e-05 1.626210e-05 1.417578e-05 1.631527e-05 1.439232e-05 1.682427e-05 1.509731e-05 1.759253e-05 1.611390e-05 1.842523e-05 1.726755e-05 1.914282e-05 1.839710e-05 1.959642e-05 1.936722e-05 1.968436e-05 2.008234e-05 1.936914e-05 2.050222e-05 1.869358e-05 2.065907e-05 1.779536e-05 2.067590e-05 1.691910e-05 2.078430e-05 1.642402e-05 2.133814e-05 1.678366e-05 2.281577e-05 1.857059e-05 2.580033e-05 2.241667e-05 3.092728e-05 2.894126e-05 3.879395e-05 3.864748e-05 4.983841e-05 5.180102e-05 6.421141e-05 6.832063e-05 8.167769e-05 8.771639e-05 1.015829e-04 1.091050e-04 1.229087e-04 1.313118e-04 1.444128e-04 1.530425e-04 1.648253e-04 1.730875e-04 1.830565e-04 1.905093e-04 1.983658e-04 2.047728e-04 2.104587e-04 2.157924e-04 2.194942e-04 2.238942e-04 2.260106e-04 2.297107e-04 2.307932e-04 2.340352e-04 2.347123e-04 2.376699e-04 2.385655e-04 2.412912e-04 2.429451e-04 2.453520e-04 2.481496e-04 2.500290e-04 2.541444e-04 2.552133e-04 2.605735e-04 2.605386e-04 2.668152e-04 2.654381e-04 2.720728e-04 2.692211e-04 2.754878e-04 2.711623e-04 2.762614e-04 2.705958e-04 2.737681e-04 2.670044e-04 2.676466e-04 2.600945e-04 2.578530e-04 2.498438e-04 2.446709e-04 2.365133e-04 2.286729e-04 2.206180e-04 2.106402e-04 2.028586e-04 1.914512e-04 1.840264e-04 1.719609e-04 1.648994e-04 1.528974e-04 1.461522e-04 1.347954e-04 1.282975e-04 1.179781e-04 1.116689e-04 1.025831e-04 9.643886e-05 8.861516e-05 8.266065e-05 7.600780e-05 7.031679e-05 6.467568e-05 5.936107e-05 5.454910e-05 4.974597e-05 4.558824e-05 4.143424e-05 3.778091e-05 3.439792e-05 3.113036e-05 2.860981e-05 2.563939e-05 2.403245e-05 2.129582e-05 2.060824e-05 1.806200e-05 
1.823004e-05 1.547128e-05 1.674707e-05 1.421793e-05 1.631530e-05 1.399126e-05 1.669202e-05 1.457135e-05 1.762288e-05 1.572923e-05 1.885049e-05 1.723501e-05 2.012566e-05 1.886750e-05 2.122191e-05 2.042600e-05 2.195305e-05 2.174438e-05 2.219309e-05 2.270752e-05 2.189673e-05 2.326960e-05 2.111871e-05 2.347390e-05 2.003040e-05 2.347350e-05 1.893286e-05 2.355163e-05 1.826488e-05 2.413810e-05 1.860288e-05 2.581382e-05 2.064472e-05 2.929097e-05 2.516563e-05 3.535379e-05 3.293482e-05 4.475161e-05 4.459090e-05 5.805080e-05 6.049228e-05 7.547469e-05 8.057876e-05 9.677702e-05 1.042906e-04 1.211963e-04 1.305832e-04 1.475197e-04 1.580497e-04 1.742534e-04 1.851309e-04 1.998629e-04 2.103643e-04 2.230245e-04 2.326111e-04 2.428310e-04 2.512120e-04 2.589045e-04 2.660394e-04 2.714016e-04 2.774462e-04 2.809192e-04 2.861339e-04 2.883310e-04 2.929755e-04 2.945942e-04 2.988332e-04 3.005628e-04 3.044045e-04 3.068374e-04 3.101158e-04 3.136711e-04 3.160747e-04 3.209378e-04 3.220761e-04 3.281607e-04 3.276525e-04 3.345921e-04 3.321543e-04 3.393306e-04 3.348482e-04 3.414605e-04 3.350231e-04 3.401939e-04 3.320924e-04 3.349968e-04 3.256809e-04 3.256760e-04 3.156826e-04 3.124111e-04 3.022762e-04 2.957233e-04 2.858952e-04 2.763855e-04 2.671567e-04 2.552930e-04 2.467672e-04 2.333240e-04 2.254259e-04 2.112230e-04 2.037491e-04 1.895358e-04 1.822318e-04 1.686051e-04 1.612476e-04 1.486164e-04 1.410766e-04 1.296679e-04 1.219434e-04 1.118347e-04 1.040467e-04 9.520895e-05 8.757193e-05 7.990994e-05 7.268767e-05 6.607192e-05 5.953206e-05 5.382088e-05 4.819828e-05 4.325184e-05 3.872439e-05 3.441285e-05 3.109011e-05 2.729795e-05 2.521960e-05 2.184772e-05 2.098810e-05 1.795471e-05 
2.210262e-05 1.864655e-05 1.984201e-05 1.661269e-05 1.874235e-05 1.573540e-05 1.857389e-05 1.580504e-05 1.908055e-05 1.659042e-05 1.999184e-05 1.785070e-05 2.103830e-05 1.934865e-05 2.197048e-05 2.086582e-05 2.258115e-05 2.221942e-05 2.272927e-05 2.328106e-05 2.236401e-05 2.399687e-05 2.154632e-05 2.440891e-05 2.046680e-05 2.467783e-05 1.945910e-05 2.510633e-05 1.900911e-05 2.616054e-05 1.975716e-05 2.848106e-05 2.248507e-05 3.286821e-05 2.807285e-05 4.022140e-05 3.740821e-05 5.141827e-05 5.124277e-05 6.713875e-05 7.001185e-05 8.766785e-05 9.366224e-05 1.127349e-04 1.215468e-04 1.414504e-04 1.524356e-04 1.723781e-04 1.846607e-04 2.037392e-04 2.163689e-04 2.337033e-04 2.458233e-04 2.606955e-04 2.716784e-04 2.836446e-04 2.931683e-04 3.021216e-04 3.101700e-04 3.163467e-04 3.231419e-04 3.270756e-04 3.329648e-04 3.354042e-04 3.407292e-04 3.425338e-04 3.475159e-04 3.495452e-04 3.542084e-04 3.572136e-04 3.613631e-04 3.658895e-04 3.691472e-04 3.754528e-04 3.773395e-04 3.853386e-04 3.853812e-04 3.946226e-04 3.924593e-04 4.021523e-04 3.976109e-04 4.067069e-04 3.998399e-04 4.071660e-04 3.982388e-04 4.026678e-04 3.921083e-04 3.927331e-04 3.810598e-04 3.773415e-04 3.650879e-04 3.569473e-04 3.445960e-04 3.324326e-04 3.203650e-04 3.049950e-04 2.934614e-04 2.759848e-04 2.650964e-04 2.467165e-04 2.364626e-04 2.183004e-04 2.085863e-04 1.915323e-04 1.822299e-04 1.668642e-04 1.578621e-04 1.444488e-04 1.356918e-04 1.242320e-04 1.157411e-04 1.060564e-04 9.792947e-05 8.974848e-05 8.214365e-05 7.517278e-05 6.828166e-05 6.225167e-05 5.626930e-05 5.095840e-05 4.605597e-05 4.129507e-05 3.759923e-05 3.326638e-05 3.084641e-05 2.685681e-05 2.571906e-05 2.201507e-05 
2.005342e-05 1.620396e-05 1.775491e-05 1.423183e-05 1.689425e-05 1.365904e-05 1.715064e-05 1.419510e-05 1.818915e-05 1.554007e-05 1.966978e-05 1.739372e-05 2.126118e-05 1.946743e-05 2.265996e-05 2.149955e-05 2.361576e-05 2.327435e-05 2.395989e-05 2.464390e-05 2.363437e-05 2.555124e-05 2.271732e-05 2.605398e-05 2.144196e-05 2.634796e-05 2.020897e-05 2.679169e-05 1.959399e-05 2.793057e-05 2.034995e-05 3.051349e-05 2.339654e-05 3.548376e-05 2.977828e-05 4.391807e-05 4.056684e-05 5.689062e-05 5.669485e-05 7.526371e-05 7.873793e-05 9.944447e-05 1.066992e-04 1.291804e-04 1.398717e-04 1.634731e-04 1.768442e-04 2.006587e-04 2.156714e-04 2.386523e-04 2.541775e-04 2.752971e-04 2.903173e-04 3.087314e-04 3.225037e-04 3.376816e-04 3.498255e-04 3.616204e-04 3.721142e-04 3.807654e-04 3.898607e-04 3.959376e-04 4.040186e-04 4.083230e-04 4.157487e-04 4.191973e-04 4.261620e-04 4.296646e-04 4.361095e-04 4.404537e-04 4.460480e-04 4.517978e-04 4.559920e-04 4.634053e-04 4.655442e-04 4.745144e-04 4.739815e-04 4.840154e-04 4.803744e-04 4.906181e-04 4.837206e-04 4.930471e-04 4.830826e-04 4.902383e-04 4.777192e-04 4.815120e-04 4.671978e-04 4.666912e-04 4.514674e-04 4.461404e-04 4.308751e-04 4.207136e-04 4.061176e-04 3.916178e-04 3.781364e-04 3.602173e-04 3.479800e-04 3.278221e-04 3.166643e-04 2.955122e-04 2.850658e-04 2.640440e-04 2.538699e-04 2.338565e-04 2.235806e-04 2.051570e-04 1.945715e-04 1.780397e-04 1.671460e-04 1.525867e-04 1.415793e-04 1.289207e-04 1.181302e-04 1.072099e-04 9.702755e-05 8.763938e-05 7.844678e-05 7.037197e-05 6.248924e-05 5.551639e-05 4.917277e-05 4.310921e-05 3.843376e-05 3.311111e-05 3.013715e-05 2.541324e-05 2.408981e-05 1.984852e-05 
2.380235e-05 1.902077e-05 2.031867e-05 1.587024e-05 1.841428e-05 1.428495e-05 1.779194e-05 1.399185e-05 1.811945e-05 1.469199e-05 1.904411e-05 1.607548e-05 2.021227e-05 1.783847e-05 2.129475e-05 1.970277e-05 2.201776e-05 2.143812e-05 2.219706e-05 2.288626e-05 2.177127e-05 2.398533e-05 2.082945e-05 2.479356e-05 1.962954e-05 2.551255e-05 1.860818e-05 2.651281e-05 1.838636e-05 2.836320e-05 1.977447e-05 3.185872e-05 2.377017e-05 3.802595e-05 3.152644e-05 4.807071e-05 4.425511e-05 6.323287e-05 6.304179e-05 8.454211e-05 8.858632e-05 1.125195e-04 1.209345e-04 1.469174e-04 1.592985e-04 1.866005e-04 2.020512e-04 2.296335e-04 2.469244e-04 2.735709e-04 2.913709e-04 3.158768e-04 3.329974e-04 3.543656e-04 3.699559e-04 3.875538e-04 4.012030e-04 4.148480e-04 4.265778e-04 4.365438e-04 4.467022e-04 4.536577e-04 4.627475e-04 4.676457e-04 4.761321e-04 4.800767e-04 4.882186e-04 4.923226e-04 5.000642e-04 5.053129e-04 5.122615e-04 5.193867e-04 5.248797e-04 5.342493e-04 5.374937e-04 5.490257e-04 5.492739e-04 5.623885e-04 5.591054e-04 5.727389e-04 5.657191e-04 5.784203e-04 5.678297e-04 5.779413e-04 5.642787e-04 5.701817e-04 5.541801e-04 5.545528e-04 5.370540e-04 5.310960e-04 5.129311e-04 5.005106e-04 4.824070e-04 4.641054e-04 4.466221e-04 4.236605e-04 4.071511e-04 3.811983e-04 3.658031e-04 3.386949e-04 3.243669e-04 2.978046e-04 2.843679e-04 2.596748e-04 2.469033e-04 2.248996e-04 2.125946e-04 1.936001e-04 1.816502e-04 1.655842e-04 1.539956e-04 1.405218e-04 1.294172e-04 1.180848e-04 1.076764e-04 9.802854e-05 8.857657e-05 8.021557e-05 7.198305e-05 6.459670e-05 5.781051e-05 5.117190e-05 4.599522e-05 3.994786e-05 3.646534e-05 3.090391e-05 2.911750e-05 2.397060e-05 
1.902415e-05 1.384435e-05 1.559174e-05 1.086010e-05 1.404121e-05 9.698294e-06 1.396794e-05 9.992041e-06 1.495134e-05 1.136655e-05 1.656223e-05 1.344807e-05 1.837786e-05 1.587754e-05 2.000704e-05 1.833023e-05 2.112523e-05 2.054126e-05 2.151631e-05 2.233456e-05 2.111419e-05 2.365169e-05 2.003576e-05 2.457695e-05 1.859907e-05 2.535852e-05 1.732727e-05 2.643050e-05 1.694674e-05 2.844282e-05 1.838979e-05 3.229820e-05 2.280021e-05 3.917473e-05 3.151470e-05 5.048734e-05 4.597146e-05 6.773513e-05 6.750426e-05 9.221524e-05 9.703044e-05 1.246540e-04 1.347132e-04 1.648735e-04 1.797257e-04 2.116301e-04 2.302297e-04 2.627096e-04 2.836088e-04 3.152743e-04 3.369040e-04 3.663676e-04 3.873313e-04 4.134394e-04 4.327449e-04 4.547572e-04 4.719341e-04 4.896164e-04 5.046987e-04 5.183225e-04 5.317144e-04 5.419771e-04 5.542417e-04 5.621391e-04 5.737641e-04 5.804390e-04 5.916339e-04 5.982249e-04 6.087953e-04 6.162956e-04 6.256252e-04 6.347580e-04 6.419041e-04 6.530155e-04 6.568969e-04 6.698698e-04 6.695008e-04 6.837034e-04 6.784175e-04 6.927130e-04 6.823248e-04 6.951703e-04 6.800430e-04 6.896859e-04 6.706930e-04 6.754415e-04 6.538345e-04 6.523467e-04 6.295572e-04 6.210846e-04 5.984949e-04 5.830280e-04 5.617501e-04 5.400368e-04 5.207413e-04 4.941675e-04 4.770047e-04 4.473542e-04 4.319959e-04 4.011388e-04 3.869356e-04 3.565349e-04 3.427438e-04 3.140586e-04 3.000694e-04 2.738916e-04 2.593846e-04 2.360852e-04 2.210839e-04 2.007166e-04 1.855408e-04 1.679521e-04 1.531095e-04 1.380293e-04 1.240894e-04 1.111956e-04 9.868338e-05 8.764498e-05 7.697257e-05 6.747627e-05 5.891321e-05 5.067920e-05 4.435284e-05 3.714181e-05 3.305500e-05 2.666899e-05 2.472402e-05 1.900352e-05 
2.253231e-05 1.609104e-05 1.733704e-05 1.137673e-05 1.422464e-05 8.711186e-06 1.282032e-05 7.746403e-06 1.270530e-05 8.106281e-06 1.343278e-05 9.404393e-06 1.455113e-05 1.126468e-05 1.563673e-05 1.334641e-05 1.633688e-05 1.537356e-05 1.641922e-05 1.716643e-05 1.581975e-05 1.867106e-05 1.467844e-05 1.998223e-05 1.335413e-05 2.135966e-05 1.241950e-05 2.324513e-05 1.264953e-05 2.629428e-05 1.502335e-05 3.142965e-05 2.074521e-05 3.989380e-05 3.125411e-05 5.324154e-05 4.815344e-05 7.319200e-05 7.299251e-05 1.012996e-04 1.068958e-04 1.384986e-04 1.501379e-04 1.846740e-04 2.018314e-04 2.384394e-04 2.598799e-04 2.972366e-04 3.212490e-04 3.577500e-04 3.824886e-04 4.165151e-04 4.403544e-04 4.705494e-04 4.923599e-04 5.178424e-04 5.371256e-04 5.576024e-04 5.744653e-04 5.902329e-04 6.052214e-04 6.170798e-04 6.309226e-04 6.400328e-04 6.533585e-04 6.610756e-04 6.741667e-04 6.818690e-04 6.945094e-04 7.034354e-04 7.148890e-04 7.259865e-04 7.351173e-04 7.489024e-04 7.544086e-04 7.708360e-04 7.715380e-04 7.899033e-04 7.850101e-04 8.039259e-04 7.932117e-04 8.107065e-04 7.945549e-04 8.083156e-04 7.876286e-04 7.953521e-04 7.713613e-04 7.711390e-04 7.451875e-04 7.358383e-04 7.091962e-04 6.904950e-04 6.642369e-04 6.370103e-04 6.119427e-04 5.780002e-04 5.546202e-04 5.164880e-04 4.949720e-04 4.554535e-04 4.356922e-04 3.973667e-04 3.790527e-04 3.438694e-04 3.266183e-04 2.957011e-04 2.791728e-04 2.528525e-04 2.368423e-04 2.148497e-04 1.993328e-04 1.810503e-04 1.661767e-04 1.508674e-04 1.369179e-04 1.238859e-04 1.112071e-04 9.988115e-05 8.881789e-05 7.877472e-05 6.961528e-05 6.056458e-05 5.350563e-05 4.525788e-05 4.038996e-05 3.282208e-05 3.013049e-05 2.315789e-05 
1.419455e-05 7.376325e-06 9.207587e-06 2.992501e-06 6.605877e-06 9.030299e-07 5.895365e-06 6.576291e-07 6.565001e-06 1.802189e-06 8.088515e-06 3.885329e-06 9.938892e-06 6.473125e-06 1.162008e-05 9.174425e-06 1.271693e-05 1.167631e-05 1.295803e-05 1.378497e-05 1.227893e-05 1.546311e-05 1.086765e-05 1.685429e-05 9.177639e-06 1.829103e-05 7.906941e-06 2.029750e-05 7.964713e-06 2.361199e-05 1.046086e-05 2.925081e-05 1.674041e-05 3.859805e-05 2.843098e-05 5.344345e-05 4.740770e-05 7.584975e-05 7.556583e-05 1.077737e-04 1.143752e-04 1.504973e-04 1.643365e-04 2.040690e-04 2.245654e-04 2.670003e-04 2.927109e-04 3.363733e-04 3.652783e-04 4.083436e-04 4.382658e-04 4.788811e-04 5.079149e-04 5.445255e-04 5.713651e-04 6.029584e-04 6.270501e-04 6.532728e-04 6.747712e-04 6.959157e-04 7.154725e-04 7.323635e-04 7.508109e-04 7.646368e-04 7.826429e-04 7.947688e-04 8.125409e-04 8.243282e-04 8.414309e-04 8.540759e-04 8.694160e-04 8.838089e-04 8.957996e-04 9.123960e-04 9.192675e-04 9.379625e-04 9.381412e-04 9.581624e-04 9.506233e-04 9.704911e-04 9.550033e-04 9.726246e-04 9.498386e-04 9.627672e-04 9.341338e-04 9.399659e-04 9.075124e-04 9.043234e-04 8.703358e-04 8.570487e-04 8.237136e-04 8.003273e-04 7.693849e-04 7.370242e-04 7.094938e-04 6.702595e-04 6.463085e-04 6.029182e-04 5.819317e-04 5.372172e-04 5.180691e-04 4.744886e-04 4.559344e-04 4.152659e-04 3.963252e-04 3.596015e-04 3.398044e-04 3.074314e-04 2.868721e-04 2.588165e-04 2.380381e-04 2.140002e-04 1.937896e-04 1.733299e-04 1.545090e-04 1.371315e-04 1.204013e-04 1.056089e-04 9.146808e-05 7.879946e-05 6.752617e-05 5.657827e-05 4.825450e-05 3.869124e-05 3.324580e-05 2.479630e-05 2.204880e-05 1.449880e-05 
1.730968e-05 8.781905e-06 9.765507e-06 1.926092e-06 4.906352e-06 -2.316855e-06 2.263921e-06 -4.388662e-06 1.318010e-06 -4.756989e-06 1.511288e-06 -3.895937e-06 2.274259e-06 -2.262264e-06 3.066211e-06 -2.638542e-07 3.435001e-06 1.780443e-06 3.091290e-06 3.685466e-06 1.982819e-06 5.438624e-06 3.458414e-07 7.220121e-06 -1.288022e-06 9.398381e-06 -2.133592e-06 1.251422e-05 -1.214195e-06 1.729174e-05 2.612364e-06 2.471830e-05 1.070940e-05 3.619048e-05 2.477096e-05 5.362877e-05 4.685427e-05 7.938787e-05 7.916396e-05 1.158306e-04 1.235224e-04 1.646167e-04 1.806727e-04 2.259705e-04 2.497201e-04 2.982635e-04 3.279961e-04 3.781226e-04 4.114405e-04 4.610420e-04 4.953743e-04 5.422862e-04 5.754101e-04 6.178018e-04 6.482317e-04 6.848972e-04 7.120587e-04 7.425536e-04 7.667207e-04 7.913477e-04 8.133824e-04 8.330654e-04 8.540354e-04 8.701357e-04 8.909001e-04 9.050137e-04 9.258634e-04 9.396251e-04 9.600594e-04 9.749636e-04 9.936701e-04 1.010906e-03 1.025967e-03 1.046254e-03 1.055537e-03 1.078931e-03 1.080564e-03 1.106268e-03 1.099063e-03 1.125310e-03 1.109041e-03 1.133163e-03 1.108607e-03 1.127363e-03 1.096107e-03 1.106210e-03 1.070298e-03 1.068990e-03 1.030543e-03 1.016084e-03 9.770117e-04 9.490088e-04 9.108754e-04 8.704763e-04 8.344425e-04 7.843200e-04 7.511019e-04 6.951141e-04 6.649512e-04 6.074380e-04 5.801278e-04 5.250434e-04 5.000709e-04 4.502846e-04 4.270128e-04 3.840112e-04 3.618729e-04 3.258774e-04 3.045164e-04 2.748622e-04 2.541980e-04 2.297774e-04 2.099925e-04 1.896188e-04 1.710853e-04 1.537189e-04 1.368953e-04 1.217388e-04 1.070685e-04 9.356962e-05 8.140360e-05 6.920922e-05 5.976464e-05 4.865887e-05 4.200940e-05 3.185662e-05 2.794535e-05 1.864772e-05 
4.490728e-06 -4.353511e-06 -2.600058e-06 -1.064178e-05 -6.751473e-06 -1.412852e-05 -8.550687e-06 -1.535522e-05 -8.602543e-06 -1.486046e-05 -7.539393e-06 -1.317915e-05 -6.011095e-06 -1.082797e-05 -4.646289e-06 -8.272295e-06 -3.980658e-06 -5.874181e-06 -4.358343e-06 -3.829231e-06 -5.828237e-06 -2.110615e-06 -8.071038e-06 -4.442439e-07 -1.039404e-05 1.669395e-06 -1.180612e-05 4.901761e-06 -1.113445e-05 1.007000e-05 -7.092847e-06 1.821756e-05 1.786860e-06 3.082685e-05 1.734828e-05 5.004663e-05 4.194945e-05 7.867977e-05 7.828016e-05 1.197079e-04 1.287251e-04 1.753889e-04 1.944527e-04 2.462833e-04 2.746570e-04 3.306812e-04 3.663491e-04 4.247171e-04 4.648260e-04 5.231354e-04 5.646339e-04 6.204081e-04 6.606840e-04 7.118391e-04 7.491834e-04 7.943582e-04 8.281572e-04 8.668485e-04 8.974874e-04 9.300029e-04 9.585340e-04 9.858219e-04 1.013492e-03 1.036919e-03 1.064666e-03 1.085790e-03 1.113800e-03 1.134167e-03 1.161608e-03 1.182581e-03 1.207580e-03 1.230205e-03 1.250126e-03 1.274995e-03 1.286955e-03 1.314028e-03 1.315507e-03 1.343900e-03 1.333303e-03 1.361124e-03 1.338152e-03 1.362550e-03 1.328311e-03 1.345829e-03 1.302682e-03 1.309856e-03 1.261038e-03 1.255078e-03 1.204207e-03 1.183555e-03 1.134080e-03 1.098748e-03 1.053415e-03 1.005094e-03 9.654963e-04 9.074082e-04 8.737441e-04 8.101108e-04 7.812817e-04 7.164721e-04 6.905436e-04 6.282184e-04 6.031110e-04 5.457349e-04 5.198849e-04 4.687159e-04 4.414673e-04 3.968460e-04 3.684765e-04 3.301718e-04 3.016284e-04 2.690969e-04 2.416128e-04 2.141566e-04 1.889071e-04 1.657704e-04 1.436564e-04 1.240948e-04 1.056633e-04 8.899719e-05 7.446236e-05 6.011182e-05 4.942820e-05 3.692443e-05 2.987262e-05 1.885020e-05 1.511048e-05 5.287489e-06 
6.994152e-06 -4.152065e-06 -3.713883e-06 -1.387912e-05 -1.103091e-05 -2.035498e-05 -1.554295e-05 -2.414436e-05 -1.789207e-05 -2.582803e-05 -1.876802e-05 -2.598452e-05 -1.888643e-05 -2.516524e-05 -1.894111e-05 -2.385537e-05 -1.952087e-05 -2.241644e-05 -2.099399e-05 -2.101648e-05 -2.338315e-05 -1.956797e-05 -2.627620e-05 -1.770535e-05 -2.882564e-05 -1.482868e-05 -2.986303e-05 -1.020231e-05 -2.808490e-05 -3.030123e-06 -2.218110e-05 7.620552e-06 -1.075364e-05 2.312095e-05 7.997435e-06 4.567895e-05 3.658670e-05 7.846818e-05 7.814562e-05 1.251213e-04 1.356686e-04 1.885846e-04 2.108190e-04 2.698144e-04 3.028914e-04 3.669830e-04 4.084953e-04 4.755937e-04 5.221250e-04 5.894356e-04 6.373581e-04 7.019710e-04 7.482226e-04 8.076770e-04 8.503113e-04 9.029847e-04 9.413847e-04 9.866446e-04 1.021389e-03 1.059532e-03 1.091987e-03 1.124047e-03 1.155798e-03 1.183305e-03 1.215553e-03 1.240298e-03 1.273332e-03 1.297152e-03 1.330000e-03 1.354602e-03 1.385007e-03 1.411827e-03 1.436587e-03 1.466620e-03 1.482242e-03 1.515779e-03 1.519260e-03 1.555512e-03 1.545027e-03 1.581796e-03 1.557136e-03 1.590784e-03 1.553404e-03 1.579310e-03 1.531958e-03 1.545358e-03 1.491414e-03 1.488320e-03 1.431099e-03 1.408966e-03 1.351295e-03 1.309444e-03 1.253558e-03 1.193512e-03 1.141103e-03 1.066790e-03 1.018956e-03 9.363574e-04 8.934869e-04 8.094762e-04 7.712453e-04 6.919988e-04 6.575656e-04 5.873132e-04 5.556342e-04 4.962266e-04 4.663676e-04 4.176251e-04 3.889821e-04 3.494540e-04 3.218502e-04 2.895921e-04 2.632498e-04 2.363864e-04 2.118034e-04 1.888212e-04 1.666039e-04 1.464287e-04 1.271356e-04 1.090811e-04 9.311643e-05 7.677971e-05 6.434742e-05 4.950079e-05 4.061068e-05 2.711333e-05 2.161756e-05 9.355606e-06 