# vtk DataFile Version 2.0
Comment goes here
ASCII

DATASET STRUCTURED_POINTS
FIELD FieldData 1
TIME 1 1 double
0.10500000
DIMENSIONS    128   128   1

ORIGIN    0.000   0.000   0.000
SPACING   0.039062 0.039062   1.000

POINT_DATA   16384
SCALARS Omega double
LOOKUP_TABLE default

3.900851e-14 4.997141e-14 3.269438e-14 3.473812e-14 3.858886e-14 4.386247e-14 3.635920e-14 4.113937e-14 3.091829e-14 4.517238e-14 3.376952e-14 1.328943e-14 2.062651e-14 1.609133e-14 9.470875e-15 -9.097292e-15 -3.325012e-14 -4.440441e-14 -3.481406e-14 -4.366113e-14 -5.298662e-14 -3.895170e-14 -3.417840e-14 -1.958198e-14 -3.640124e-14 -3.249841e-14 -4.825030e-14 -4.187995e-14 -2.829682e-14 6.446332e-15 -1.304614e-14 -1.487600e-14 -3.068478e-14 -3.048866e-14 -9.419572e-15 -3.761807e-14 -3.394789e-14 -3.948005e-14 -2.338894e-14 2.249007e-14 2.026235e-14 6.342723e-14 9.160869e-14 6.343119e-14 3.825616e-14 4.892735e-14 5.970253e-14 9.225969e-15 1.050864e-14 -1.063714e-14 2.954808e-14 4.794772e-14 2.764728e-14 2.642162e-14 -5.684704e-15 1.200546e-14 4.400219e-15 -1.510499e-14 5.475093e-14 -2.347646e-14 -8.572771e-15 -3.885111e-14 -7.308198e-14 2.598173e-14 -5.597733e-14 -7.105169e-14 -5.926677e-14 -2.640811e-14 -3.340593e-14 -2.433447e-14 -7.601496e-15 -1.015571e-14 -1.343254e-14 -2.750028e-14 -3.121307e-14 -1.300226e-14 3.388129e-14 7.285056e-14 6.866476e-14 4.218987e-14 -4.514542e-15 -4.684393e-14 -2.808250e-14 6.129028e-14 3.781147e-14 4.826232e-14 2.079150e-14 3.551413e-14 5.182789e-14 -4.044013e-14 -2.362175e-14 4.048924e-14 3.290256e-14 -8.079171e-14 -3.675549e-15 4.585906e-14 -6.935852e-14 -5.536392e-14 -1.498104e-13 -1.445865e-13 2.119222e-15 -1.432593e-14 -1.162166e-13 -1.371626e-14 -3.858539e-14 -4.520333e-14 -4.996095e-14 -1.646149e-13 -1.319041e-13 -4.706651e-14 -2.299218e-14 5.216624e-15 -1.100382e-14 -2.418369e-14 -2.145785e-14 -8.493239e-14 -3.638128e-14 2.783881e-15 1.481066e-15 -8.704572e-15 6.182695e-16 1.284047e-14 1.783940e-15 4.347771e-14 3.552480e-14 7.951150e-14 6.662619e-14 5.190673e-14 
3.508451e-06 3.343593e-06 3.010694e-06 2.999563e-06 2.768685e-06 2.838573e-06 2.759024e-06 2.837104e-06 2.948621e-06 2.963238e-06 3.296066e-06 3.179386e-06 3.753673e-06 3.445580e-06 4.270232e-06 3.723030e-06 4.794445e-06 3.977711e-06 5.278944e-06 4.183766e-06 5.684724e-06 4.326587e-06 5.985782e-06 4.405521e-06 6.173635e-06 4.436190e-06 6.261342e-06 4.452326e-06 6.286445e-06 4.506822e-06 6.312035e-06 4.671270e-06 6.424912e-06 5.032921e-06 6.729730e-06 5.687858e-06 7.338334e-06 6.729680e-06 8.354468e-06 8.234189e-06 9.855527e-06 1.024234e-05 1.187471e-05 1.274526e-05 1.438804e-05 1.567603e-05 1.731050e-05 1.891171e-05 2.050386e-05 2.228710e-05 2.379559e-05 2.561821e-05 2.700542e-05 2.873056e-05 2.997334e-05 3.148591e-05 3.258292e-05 3.380137e-05 3.477464e-05 3.565699e-05 3.654720e-05 3.709095e-05 3.794753e-05 3.818451e-05 3.905297e-05 3.904078e-05 3.995041e-05 3.976218e-05 4.071687e-05 4.043102e-05 4.140528e-05 4.109597e-05 4.203720e-05 4.176589e-05 4.260260e-05 4.241073e-05 4.306550e-05 4.296821e-05 4.337340e-05 4.335456e-05 4.346834e-05 4.347756e-05 4.329759e-05 4.325034e-05 4.282259e-05 4.260444e-05 4.202499e-05 4.150094e-05 4.090920e-05 3.993789e-05 3.950113e-05 3.795295e-05 3.784334e-05 3.562005e-05 3.598757e-05 3.304015e-05 3.398613e-05 3.032745e-05 3.188430e-05 2.759357e-05 2.971562e-05 2.493313e-05 2.750125e-05 2.241354e-05 2.525311e-05 2.007124e-05 2.297951e-05 1.791421e-05 2.069117e-05 1.592971e-05 1.840564e-05 1.409445e-05 1.614922e-05 1.238480e-05 1.395617e-05 1.078459e-05 1.186606e-05 9.289292e-06 9.920081e-06 7.906468e-06 8.157507e-06 6.653145e-06 6.612610e-06 5.551269e-06 5.312376e-06 4.622572e-06 4.274919e-06 3.883885e-06 
4.383137e-06 4.034482e-06 3.328497e-06 3.312025e-06 2.839524e-06 3.006574e-06 2.861673e-06 3.064149e-06 3.323489e-06 3.416420e-06 4.139296e-06 3.985859e-06 5.212461e-06 4.691298e-06 6.439528e-06 5.453611e-06 7.715501e-06 6.201383e-06 8.940480e-06 6.876527e-06 1.002772e-05 7.439940e-06 1.091295e-05 7.877294e-06 1.156443e-05 8.204981e-06 1.199286e-05 8.475803e-06 1.225957e-05 8.783368e-06 1.248095e-05 9.263266e-06 1.282648e-05 1.008835e-05 1.350773e-05 1.145539e-05 1.475658e-05 1.356155e-05 1.679308e-05 1.657190e-05 1.978664e-05 2.058277e-05 2.381769e-05 2.558929e-05 2.884937e-05 3.146669e-05 3.471817e-05 3.797318e-05 4.114877e-05 4.477708e-05 4.779211e-05 5.150417e-05 5.427914e-05 5.779534e-05 6.027817e-05 6.336124e-05 6.554257e-05 6.802183e-05 6.993874e-05 7.172273e-05 7.344977e-05 7.452672e-05 7.615656e-05 7.658474e-05 7.820330e-05 7.809454e-05 7.975681e-05 7.925679e-05 8.096897e-05 8.023719e-05 8.194933e-05 8.114046e-05 8.275139e-05 8.199856e-05 8.337290e-05 8.277285e-05 8.376718e-05 8.336710e-05 8.386150e-05 8.364810e-05 8.357780e-05 8.346982e-05 8.285170e-05 8.269811e-05 8.164669e-05 8.123295e-05 7.996147e-05 7.902565e-05 7.782942e-05 7.608855e-05 7.531051e-05 7.249533e-05 7.247720e-05 6.837128e-05 6.939758e-05 6.387454e-05 6.611994e-05 5.917202e-05 6.266352e-05 5.441500e-05 5.901861e-05 4.972021e-05 5.515673e-05 4.516049e-05 5.104793e-05 4.076648e-05 4.667995e-05 3.653745e-05 4.207323e-05 3.245745e-05 3.728747e-05 2.851178e-05 3.241864e-05 2.469979e-05 2.758836e-05 2.104158e-05 2.292920e-05 1.757811e-05 1.857007e-05 1.436592e-05 1.462445e-05 1.146850e-05 1.118274e-05 8.946660e-06 8.308669e-06 6.849784e-06 6.038670e-06 5.209230e-06 
1.018200e-05 9.660000e-06 8.638248e-06 8.579175e-06 7.874203e-06 8.059859e-06 7.818751e-06 8.030214e-06 8.371882e-06 8.392907e-06 9.408625e-06 9.033504e-06 1.078505e-05 9.830548e-06 1.234647e-05 1.066646e-05 1.393772e-05 1.143848e-05 1.541529e-05 1.206897e-05 1.666076e-05 1.251458e-05 1.759482e-05 1.277416e-05 1.819091e-05 1.289533e-05 1.848744e-05 1.297982e-05 1.859676e-05 1.318656e-05 1.870877e-05 1.373079e-05 1.908591e-05 1.487562e-05 2.004612e-05 1.691235e-05 2.193098e-05 2.012676e-05 2.505933e-05 2.475253e-05 2.967108e-05 3.091849e-05 3.587166e-05 3.860171e-05 4.359114e-05 4.760094e-05 5.257156e-05 5.754210e-05 6.239048e-05 6.792019e-05 7.251944e-05 7.817158e-05 8.240574e-05 8.776133e-05 9.155911e-05 9.626563e-05 9.962323e-05 1.034305e-04 1.064166e-04 1.091949e-04 1.119356e-04 1.136756e-04 1.163239e-04 1.171200e-04 1.198162e-04 1.198417e-04 1.226751e-04 1.221504e-04 1.251309e-04 1.242934e-04 1.273392e-04 1.264147e-04 1.293594e-04 1.285369e-04 1.311552e-04 1.305647e-04 1.326127e-04 1.323059e-04 1.335698e-04 1.335038e-04 1.338501e-04 1.338767e-04 1.332949e-04 1.331593e-04 1.317900e-04 1.311421e-04 1.292835e-04 1.277056e-04 1.257930e-04 1.228433e-04 1.214017e-04 1.166715e-04 1.162437e-04 1.094194e-04 1.104804e-04 1.014021e-04 1.042744e-04 9.297720e-05 9.776527e-05 8.449500e-05 9.105538e-05 7.625237e-05 8.420785e-05 6.845991e-05 7.725722e-05 6.122953e-05 7.022776e-05 5.458282e-05 6.315258e-05 4.847575e-05 5.608743e-05 4.283167e-05 4.911589e-05 3.757374e-05 4.234599e-05 3.264956e-05 3.590089e-05 2.804415e-05 2.990728e-05 2.378089e-05 2.448426e-05 1.991278e-05 1.973438e-05 1.650807e-05 1.573729e-05 1.363408e-05 1.254555e-05 1.134279e-05 
8.007428e-06 7.258354e-06 5.803824e-06 5.720956e-06 4.752719e-06 5.038692e-06 4.743340e-06 5.101483e-06 5.632230e-06 5.770677e-06 7.248099e-06 6.889514e-06 9.397799e-06 8.294378e-06 1.187413e-05 9.826290e-06 1.446604e-05 1.134228e-05 1.697174e-05 1.272650e-05 1.921482e-05 1.390125e-05 2.106301e-05 1.483812e-05 2.244876e-05 1.556941e-05 2.338957e-05 1.619945e-05 2.400532e-05 1.691388e-05 2.452830e-05 1.798331e-05 2.530068e-05 1.975568e-05 2.675374e-05 2.263119e-05 2.936454e-05 2.701559e-05 3.359025e-05 3.325351e-05 3.978717e-05 4.155163e-05 4.812971e-05 5.190920e-05 5.854946e-05 6.407682e-05 7.071413e-05 7.756075e-05 8.405763e-05 9.167858e-05 9.785952e-05 1.056580e-04 1.113574e-04 1.187570e-04 1.238666e-04 1.303779e-04 1.348790e-04 1.401492e-04 1.441206e-04 1.479589e-04 1.515576e-04 1.539355e-04 1.573557e-04 1.583873e-04 1.618078e-04 1.617165e-04 1.652494e-04 1.643280e-04 1.679816e-04 1.665527e-04 1.702155e-04 1.685948e-04 1.720468e-04 1.705098e-04 1.734583e-04 1.722104e-04 1.743451e-04 1.734943e-04 1.745541e-04 1.740864e-04 1.739268e-04 1.736876e-04 1.723371e-04 1.720245e-04 1.697200e-04 1.688940e-04 1.660850e-04 1.641986e-04 1.615134e-04 1.579667e-04 1.561407e-04 1.503552e-04 1.501263e-04 1.416301e-04 1.436175e-04 1.321286e-04 1.367164e-04 1.222080e-04 1.294604e-04 1.121927e-04 1.218232e-04 1.023326e-04 1.137374e-04 9.278216e-05 1.051339e-04 8.360339e-05 9.598477e-05 7.479001e-05 8.633550e-05 6.630270e-05 7.631805e-05 5.810509e-05 6.614180e-05 5.019143e-05 5.606788e-05 4.260053e-05 4.637593e-05 3.541555e-05 3.733245e-05 2.875231e-05 2.916681e-05 2.274082e-05 2.205718e-05 1.750507e-05 1.612530e-05 1.314505e-05 1.143723e-05 9.723484e-06 
1.578622e-05 1.482220e-05 1.304212e-05 1.285579e-05 1.163916e-05 1.186706e-05 1.145573e-05 1.173166e-05 1.232267e-05 1.228185e-05 1.402927e-05 1.332105e-05 1.633278e-05 1.464146e-05 1.897180e-05 1.604298e-05 2.168351e-05 1.735212e-05 2.422411e-05 1.843959e-05 2.639169e-05 1.923530e-05 2.804992e-05 1.974069e-05 2.915117e-05 2.003848e-05 2.975708e-05 2.030032e-05 3.005405e-05 2.079194e-05 3.036043e-05 2.187295e-05 3.112002e-05 2.398569e-05 3.287567e-05 2.762532e-05 3.621715e-05 3.328492e-05 4.170210e-05 4.137590e-05 4.975757e-05 5.213443e-05 6.058026e-05 6.553588e-05 7.406126e-05 8.124401e-05 8.976079e-05 9.861745e-05 1.069481e-04 1.167820e-04 1.247043e-04 1.347575e-04 1.420671e-04 1.516126e-04 1.581836e-04 1.666094e-04 1.724362e-04 1.793064e-04 1.845121e-04 1.895979e-04 1.944076e-04 1.976860e-04 2.023709e-04 2.039966e-04 2.088041e-04 2.090656e-04 2.141497e-04 2.134179e-04 2.187892e-04 2.174660e-04 2.229697e-04 2.214420e-04 2.267712e-04 2.253694e-04 2.301110e-04 2.290716e-04 2.327788e-04 2.322099e-04 2.344889e-04 2.343389e-04 2.349388e-04 2.349726e-04 2.338631e-04 2.336533e-04 2.310768e-04 2.300182e-04 2.265047e-04 2.238575e-04 2.201917e-04 2.151582e-04 2.122957e-04 2.041234e-04 2.030612e-04 1.911612e-04 1.927795e-04 1.768381e-04 1.817407e-04 1.618031e-04 1.701914e-04 1.466950e-04 1.583073e-04 1.320548e-04 1.461919e-04 1.182626e-04 1.338978e-04 1.055138e-04 1.214623e-04 9.383489e-05 1.089441e-04 8.313161e-05 9.644778e-05 7.325186e-05 8.412975e-05 6.404673e-05 7.218900e-05 5.541581e-05 6.084693e-05 4.732982e-05 5.032510e-05 3.983052e-05 4.082585e-05 3.301339e-05 3.251844e-05 2.700044e-05 2.553035e-05 2.191110e-05 1.994247e-05 1.783673e-05 
1.004186e-05 8.784019e-06 6.495630e-06 6.241855e-06 4.730092e-06 5.035200e-06 4.574947e-06 4.993183e-06 5.813912e-06 5.902503e-06 8.190552e-06 7.523532e-06 1.141583e-05 9.607587e-06 1.517858e-05 1.191453e-05 1.915997e-05 1.423000e-05 2.305268e-05 1.638192e-05 2.658510e-05 1.825618e-05 2.954997e-05 1.981205e-05 3.183600e-05 2.109788e-05 3.345975e-05 2.226735e-05 3.459365e-05 2.359439e-05 3.558405e-05 2.548207e-05 3.695135e-05 2.845628e-05 3.936235e-05 3.313301e-05 4.356662e-05 4.015009e-05 5.029471e-05 5.006322e-05 6.012822e-05 6.322091e-05 7.336586e-05 7.964750e-05 8.992034e-05 9.897073e-05 1.092798e-04 1.204237e-04 1.305544e-04 1.429327e-04 1.526041e-04 1.652756e-04 1.742208e-04 1.862768e-04 1.943216e-04 2.049899e-04 2.121063e-04 2.208283e-04 2.271466e-04 2.336154e-04 2.393927e-04 2.435528e-04 2.491041e-04 2.511200e-04 2.567322e-04 2.569364e-04 2.627843e-04 2.616183e-04 2.677034e-04 2.656588e-04 2.717843e-04 2.693491e-04 2.751386e-04 2.727493e-04 2.777057e-04 2.757017e-04 2.792980e-04 2.778774e-04 2.796659e-04 2.788423e-04 2.785652e-04 2.781311e-04 2.758154e-04 2.753214e-04 2.713409e-04 2.701010e-04 2.651880e-04 2.623224e-04 2.575181e-04 2.520376e-04 2.485761e-04 2.395050e-04 2.386397e-04 2.251638e-04 2.279598e-04 2.095751e-04 2.167050e-04 1.933380e-04 2.049286e-04 1.769987e-04 1.925705e-04 1.609768e-04 1.795004e-04 1.455266e-04 1.655881e-04 1.307423e-04 1.507814e-04 1.166001e-04 1.351619e-04 1.030201e-04 1.189632e-04 8.992910e-05 1.025481e-04 7.730681e-05 8.635770e-05 6.520858e-05 7.085018e-05 5.376313e-05 5.644704e-05 4.315172e-05 4.349672e-05 3.357723e-05 3.225727e-05 2.523137e-05 2.289427e-05 1.826661e-05 1.548766e-05 1.277627e-05 
1.947712e-05 1.792072e-05 1.526551e-05 1.481213e-05 1.301907e-05 1.316186e-05 1.256092e-05 1.278502e-05 1.364911e-05 1.343401e-05 1.598361e-05 1.482045e-05 1.921858e-05 1.664130e-05 2.298055e-05 1.860725e-05 2.689261e-05 2.047099e-05 3.060391e-05 2.205276e-05 3.382262e-05 2.326117e-05 3.635019e-05 2.410826e-05 3.811413e-05 2.471967e-05 3.919683e-05 2.534203e-05 3.985787e-05 2.634896e-05 4.054601e-05 2.824370e-05 4.189439e-05 3.165035e-05 4.468890e-05 3.728013e-05 4.979869e-05 4.585905e-05 5.806283e-05 5.801280e-05 7.014182e-05 7.412300e-05 8.636085e-05 9.418919e-05 1.065872e-04 1.177417e-04 1.301845e-04 1.438438e-04 1.560698e-04 1.711985e-04 1.828704e-04 1.983419e-04 2.091462e-04 2.238798e-04 2.336234e-04 2.467088e-04 2.553844e-04 2.661709e-04 2.739705e-04 2.821102e-04 2.893824e-04 2.948265e-04 3.019892e-04 3.049463e-04 3.123764e-04 3.132486e-04 3.211749e-04 3.204852e-04 3.289098e-04 3.272319e-04 3.358976e-04 3.337933e-04 3.422046e-04 3.401685e-04 3.476638e-04 3.460709e-04 3.519342e-04 3.509865e-04 3.545821e-04 3.542557e-04 3.551673e-04 3.551652e-04 3.533181e-04 3.530423e-04 3.487905e-04 3.473492e-04 3.415048e-04 3.377679e-04 3.315590e-04 3.242710e-04 3.192163e-04 3.071601e-04 3.048668e-04 2.870608e-04 2.889678e-04 2.648597e-04 2.719699e-04 2.415869e-04 2.542488e-04 2.182648e-04 2.360621e-04 1.957582e-04 2.175476e-04 1.746662e-04 1.987640e-04 1.552799e-04 1.797547e-04 1.376117e-04 1.606104e-04 1.214788e-04 1.415058e-04 1.066108e-04 1.227029e-04 9.275227e-05 1.045260e-04 7.973446e-05 8.732251e-05 6.750882e-05 7.142524e-05 5.614221e-05 5.712370e-05 4.578527e-05 4.464807e-05 3.662751e-05 3.416237e-05 2.885137e-05 2.576269e-05 2.259395e-05 
9.512696e-06 7.570956e-06 4.320290e-06 3.727034e-06 1.595953e-06 1.762038e-06 1.105210e-06 1.436069e-06 2.558413e-06 2.453804e-06 5.615566e-06 4.486681e-06 9.893598e-06 7.196735e-06 1.497798e-05 1.026097e-05 2.044033e-05 1.339501e-05 2.586328e-05 1.637498e-05 3.087272e-05 1.905696e-05 3.517696e-05 2.139443e-05 3.861018e-05 2.345541e-05 4.117693e-05 2.544127e-05 4.309259e-05 2.770745e-05 4.481289e-05 3.078165e-05 4.704181e-05 3.536691e-05 5.070350e-05 4.231041e-05 5.686227e-05 5.251854e-05 6.658218e-05 6.681173e-05 8.073671e-05 8.573717e-05 9.980377e-05 1.093847e-04 1.237019e-04 1.372661e-04 1.517234e-04 1.683075e-04 1.825988e-04 2.009751e-04 2.146866e-04 2.335102e-04 2.462450e-04 2.642178e-04 2.757174e-04 2.917363e-04 3.019620e-04 3.152254e-04 3.243764e-04 3.344351e-04 3.428984e-04 3.496525e-04 3.578981e-04 3.615508e-04 3.700010e-04 3.709877e-04 3.798901e-04 3.787986e-04 3.881347e-04 3.856299e-04 3.950787e-04 3.918354e-04 4.008024e-04 3.974447e-04 4.051511e-04 4.021935e-04 4.078125e-04 4.055939e-04 4.084140e-04 4.070282e-04 4.066194e-04 4.058466e-04 4.022077e-04 4.014649e-04 3.951240e-04 3.934533e-04 3.854976e-04 3.816118e-04 3.736245e-04 3.660237e-04 3.599168e-04 3.470760e-04 3.448249e-04 3.254324e-04 3.287466e-04 3.019540e-04 3.119403e-04 2.775721e-04 2.944706e-04 2.531418e-04 2.762124e-04 2.293164e-04 2.569240e-04 2.064806e-04 2.363710e-04 1.847581e-04 2.144594e-04 1.640827e-04 1.913280e-04 1.443022e-04 1.673684e-04 1.252796e-04 1.431725e-04 1.069658e-04 1.194346e-04 8.943095e-05 9.684529e-05 7.285691e-05 7.600683e-05 5.750167e-05 5.738609e-05 4.365110e-05 4.130154e-05 3.157070e-05 2.793402e-05 2.146647e-05 1.734788e-05 1.345896e-05 
2.021425e-05 1.783536e-05 1.413945e-05 1.320731e-05 1.074130e-05 1.061155e-05 9.780733e-06 9.788839e-06 1.093804e-05 1.039642e-05 1.381911e-05 1.203843e-05 1.796904e-05 1.430232e-05 2.289444e-05 1.679894e-05 2.809507e-05 1.920279e-05 3.310348e-05 2.128761e-05 3.752999e-05 2.295310e-05 4.110877e-05 2.424004e-05 4.374055e-05 2.533547e-05 4.552860e-05 2.657328e-05 4.680621e-05 2.843719e-05 4.815408e-05 3.156819e-05 5.040183e-05 3.676761e-05 5.459966e-05 4.497305e-05 6.193932e-05 5.717886e-05 7.360731e-05 7.428412e-05 9.057458e-05 9.688283e-05 1.133607e-04 1.250483e-04 1.418395e-04 1.581867e-04 1.751576e-04 1.950243e-04 2.118101e-04 2.337558e-04 2.498676e-04 2.723246e-04 2.873021e-04 3.087673e-04 3.223263e-04 3.415332e-04 3.536640e-04 3.697036e-04 3.806897e-04 3.930653e-04 4.034196e-04 4.120370e-04 4.223703e-04 4.274798e-04 4.383371e-04 4.404465e-04 4.521485e-04 4.519297e-04 4.644577e-04 4.626594e-04 4.756082e-04 4.729821e-04 4.855930e-04 4.828288e-04 4.940964e-04 4.917562e-04 5.005920e-04 4.990344e-04 5.044625e-04 5.037564e-04 5.051156e-04 5.049529e-04 5.020796e-04 5.017078e-04 4.950731e-04 4.932765e-04 4.840450e-04 4.792016e-04 4.691873e-04 4.594203e-04 4.509154e-04 4.343408e-04 4.298192e-04 4.048603e-04 4.065802e-04 3.722934e-04 3.818649e-04 3.382022e-04 3.562166e-04 3.041552e-04 3.299849e-04 2.714778e-04 3.033260e-04 2.410685e-04 2.762767e-04 2.133291e-04 2.488694e-04 1.882178e-04 2.212374e-04 1.653927e-04 1.936678e-04 1.443923e-04 1.665896e-04 1.247986e-04 1.405150e-04 1.063463e-04 1.159646e-04 8.896485e-05 9.340560e-05 7.276112e-05 7.321522e-05 5.796351e-05 5.566858e-05 4.485044e-05 4.094229e-05 3.368236e-05 2.912299e-05 2.464894e-05 
5.238262e-06 2.353885e-06 -2.031283e-06 -3.211063e-06 -6.072830e-06 -6.271265e-06 -7.190527e-06 -7.148938e-06 -5.746751e-06 -6.233002e-06 -2.161335e-06 -3.950401e-06 3.092732e-06 -7.348663e-07 9.499916e-06 3.005556e-06 1.652151e-05 6.920104e-06 2.362557e-05 1.074333e-05 3.032783e-05 1.431725e-05 3.624223e-05 1.760728e-05 4.113721e-05 2.071468e-05 4.499326e-05 2.389165e-05 4.805644e-05 2.756499e-05 5.088216e-05 3.236832e-05 5.435873e-05 3.916852e-05 5.969074e-05 4.905492e-05 6.831368e-05 6.325155e-05 8.171566e-05 8.292813e-05 1.011700e-04 1.089277e-04 1.274278e-04 1.414799e-04 1.604600e-04 1.799997e-04 1.993416e-04 2.230574e-04 2.423361e-04 2.685517e-04 2.871705e-04 3.140496e-04 3.314308e-04 3.572033e-04 3.729712e-04 3.961340e-04 4.102362e-04 4.296924e-04 4.424236e-04 4.575445e-04 4.694699e-04 4.800842e-04 4.918843e-04 4.982135e-04 5.104903e-04 5.130555e-04 5.261482e-04 5.256717e-04 5.395235e-04 5.368397e-04 5.509477e-04 5.469296e-04 5.603880e-04 5.558818e-04 5.675133e-04 5.632675e-04 5.718195e-04 5.683951e-04 5.727722e-04 5.704322e-04 5.699372e-04 5.685263e-04 5.630775e-04 5.619186e-04 5.522114e-04 5.500507e-04 5.376242e-04 5.326633e-04 5.198330e-04 5.098757e-04 4.995084e-04 4.822345e-04 4.773616e-04 4.507013e-04 4.540104e-04 4.165575e-04 4.298450e-04 3.812179e-04 4.049370e-04 3.459936e-04 3.790389e-04 3.118786e-04 3.517066e-04 2.794329e-04 3.225166e-04 2.487963e-04 2.912986e-04 2.198107e-04 2.582873e-04 1.921942e-04 2.241371e-04 1.657034e-04 1.898054e-04 1.402412e-04 1.563660e-04 1.158956e-04 1.248260e-04 9.291732e-05 9.599998e-05 7.166011e-05 7.045877e-05 5.250720e-05 4.853782e-05 3.580383e-05 3.037925e-05 2.180666e-05 1.598113e-05 1.065386e-05 
1.668597e-05 1.315289e-05 8.199785e-06 6.489599e-06 3.212622e-06 2.556351e-06 1.414081e-06 9.974446e-07 2.400677e-06 1.351476e-06 5.678390e-06 3.091197e-06 1.067535e-05 5.672296e-06 1.676739e-05 8.588937e-06 2.331776e-05 1.143088e-05 2.972954e-05 1.393387e-05 3.550630e-05 1.601390e-05 4.031314e-05 1.777864e-05 4.402977e-05 1.951746e-05 4.678999e-05 2.168125e-05 4.900831e-05 2.487067e-05 5.139895e-05 2.984794e-05 5.498864e-05 3.756712e-05 6.110744e-05 4.918757e-05 7.132014e-05 6.601240e-05 8.725491e-05 8.930421e-05 1.103163e-04 1.199840e-04 1.413322e-04 1.582924e-04 1.802423e-04 2.035392e-04 2.259525e-04 2.540565e-04 2.764289e-04 3.073991e-04 3.290254e-04 3.607486e-04 3.809554e-04 4.114083e-04 4.297779e-04 4.572576e-04 4.737730e-04 4.970522e-04 5.121238e-04 5.305151e-04 5.448832e-04 5.582180e-04 5.727598e-04 5.813068e-04 5.967967e-04 6.011495e-04 6.180298e-04 6.189922e-04 6.372069e-04 6.356940e-04 6.546237e-04 6.515859e-04 6.700985e-04 6.664565e-04 6.830634e-04 6.796354e-04 6.927235e-04 6.901234e-04 6.982294e-04 6.967305e-04 6.988247e-04 6.982047e-04 6.939560e-04 6.933568e-04 6.833440e-04 6.811935e-04 6.670201e-04 6.610653e-04 6.453300e-04 6.328263e-04 6.189092e-04 5.969802e-04 5.886253e-04 5.547604e-04 5.554757e-04 5.080728e-04 5.204352e-04 4.592578e-04 4.842805e-04 4.107030e-04 4.474667e-04 3.644216e-04 4.101269e-04 3.217369e-04 3.722116e-04 2.831707e-04 3.337018e-04 2.485447e-04 2.947927e-04 2.172326e-04 2.559646e-04 1.884605e-04 2.179294e-04 1.615650e-04 1.814984e-04 1.361498e-04 1.474414e-04 1.121293e-04 1.163887e-04 8.968212e-05 8.879220e-05 6.915200e-05 6.493408e-05 5.093700e-05 4.495643e-05 3.539309e-05 2.889234e-05 2.276598e-05 
-4.223048e-06 -8.417586e-06 -1.415512e-05 -1.626611e-05 -2.002110e-05 -2.088625e-05 -2.220017e-05 -2.270294e-05 -2.112444e-05 -2.221614e-05 -1.728651e-05 -1.996563e-05 -1.124174e-05 -1.649125e-05 -3.601453e-06 -1.228980e-05 4.986358e-06 -7.771951e-06 1.387179e-05 -3.225166e-06 2.245396e-05 1.211210e-06 3.024530e-05 5.555021e-06 3.694244e-05 9.977931e-06 4.249561e-05 1.480204e-05 4.717182e-05 2.051524e-05 5.161144e-05 2.781931e-05 5.687532e-05 3.770169e-05 6.446120e-05 5.148278e-05 7.623986e-05 7.075976e-05 9.425121e-05 9.717946e-05 1.203392e-04 1.320448e-04 1.556885e-04 1.758612e-04 2.004097e-04 2.279938e-04 2.533354e-04 2.865885e-04 3.121278e-04 3.488111e-04 3.736802e-04 4.113414e-04 4.346929e-04 4.709752e-04 4.922599e-04 5.251663e-04 5.443102e-04 5.723792e-04 5.898139e-04 6.121865e-04 6.287313e-04 6.451250e-04 6.617571e-04 6.723756e-04 6.899480e-04 6.953628e-04 7.143378e-04 7.153721e-04 7.356314e-04 7.332658e-04 7.540408e-04 7.493460e-04 7.692854e-04 7.633656e-04 7.807248e-04 7.746447e-04 7.875620e-04 7.822283e-04 7.890476e-04 7.850393e-04 7.846457e-04 7.820100e-04 7.741460e-04 7.721998e-04 7.577214e-04 7.549116e-04 7.359254e-04 7.298103e-04 7.096279e-04 6.970426e-04 6.798976e-04 6.573393e-04 6.478448e-04 6.120569e-04 6.144313e-04 5.630838e-04 5.802624e-04 5.125718e-04 5.454180e-04 4.625400e-04 5.094276e-04 4.144984e-04 4.714703e-04 3.692421e-04 4.307652e-04 3.268829e-04 3.869942e-04 2.870723e-04 3.405610e-04 2.492988e-04 2.925791e-04 2.131476e-04 2.446184e-04 1.784544e-04 1.983458e-04 1.453405e-04 1.552113e-04 1.141580e-04 1.162689e-04 8.538696e-05 8.214338e-05 5.952577e-05 5.309711e-05 3.700091e-05 2.913636e-05 1.810708e-05 1.010974e-05 2.978172e-06 
7.247413e-06 2.095916e-06 -4.385771e-06 -7.279787e-06 -1.156700e-05 -1.307397e-05 -1.468926e-05 -1.577245e-05 -1.424654e-05 -1.598980e-05 -1.083951e-05 -1.442012e-05 -5.167244e-06 -1.177392e-05 1.999867e-06 -8.701627e-06 9.869050e-06 -5.710347e-06 1.769523e-05 -3.088479e-06 2.486499e-05 -8.575234e-07 3.098015e-05 1.232246e-06 3.592359e-05 3.659354e-06 3.989498e-05 7.061568e-06 4.341991e-05 1.218054e-05 4.735406e-05 1.986626e-05 5.290673e-05 3.115667e-05 6.167794e-05 4.738296e-05 7.564589e-05 7.018587e-05 9.700406e-05 1.013229e-04 1.277842e-04 1.422380e-04 1.693200e-04 1.935144e-04 2.217340e-04 2.544358e-04 2.836692e-04 3.228646e-04 3.524014e-04 3.955154e-04 4.243189e-04 4.685452e-04 4.956142e-04 5.382743e-04 5.629835e-04 6.018297e-04 6.241440e-04 6.575523e-04 6.780608e-04 7.050973e-04 7.248650e-04 7.452429e-04 7.655263e-04 7.794921e-04 8.013913e-04 8.095815e-04 8.337087e-04 8.370155e-04 8.632573e-04 8.627267e-04 8.901546e-04 8.869243e-04 9.138748e-04 9.091307e-04 9.334332e-04 9.283434e-04 9.476452e-04 9.432291e-04 9.553689e-04 9.522881e-04 9.556815e-04 9.539753e-04 9.479888e-04 9.468083e-04 9.320833e-04 9.294951e-04 9.081620e-04 9.011081e-04 8.768118e-04 8.613163e-04 8.389772e-04 8.106565e-04 7.959113e-04 7.507582e-04 7.490709e-04 6.843608e-04 6.999018e-04 6.149902e-04 6.495370e-04 5.463176e-04 5.985533e-04 4.814214e-04 5.469605e-04 4.222385e-04 4.944741e-04 3.693920e-04 4.409318e-04 3.223997e-04 3.866258e-04 2.801269e-04 3.323910e-04 2.412932e-04 2.794435e-04 2.048729e-04 2.290919e-04 1.703079e-04 1.824729e-04 1.375306e-04 1.404042e-04 1.068528e-04 1.033664e-04 7.879382e-05 7.156535e-05 5.391186e-05 4.502103e-05 3.267318e-05 2.363836e-05 1.537221e-05 
-2.059580e-05 -2.661267e-05 -3.397139e-05 -3.747881e-05 -4.237142e-05 -4.428844e-05 -4.625380e-05 -4.759926e-05 -4.611391e-05 -4.804783e-05 -4.250574e-05 -4.630881e-05 -3.605499e-05 -4.304566e-05 -2.745982e-05 -3.885238e-05 -1.747402e-05 -3.419164e-05 -6.867501e-06 -2.934067e-05 3.638070e-06 -2.435979e-05 1.345352e-05 -1.909566e-05 2.221262e-05 -1.321902e-05 2.985141e-05 -6.276462e-06 3.666826e-05 2.285403e-06 4.337698e-05 1.317205e-05 5.117702e-05 2.738654e-05 6.183610e-05 4.640679e-05 7.770832e-05 7.224226e-05 1.015512e-04 1.072020e-04 1.360454e-04 1.533264e-04 1.830851e-04 2.116471e-04 2.430861e-04 2.815841e-04 3.146169e-04 3.607668e-04 3.945322e-04 4.453718e-04 4.785737e-04 5.308601e-04 5.622295e-04 6.128614e-04 6.415795e-04 6.879437e-04 7.139001e-04 7.540817e-04 7.779081e-04 8.107520e-04 8.336383e-04 8.586927e-04 8.820458e-04 8.994353e-04 9.244697e-04 9.347475e-04 9.621012e-04 9.661192e-04 9.955820e-04 9.944044e-04 1.024824e-03 1.019688e-03 1.049076e-03 1.041374e-03 1.067180e-03 1.058400e-03 1.077900e-03 1.069478e-03 1.080201e-03 1.073267e-03 1.073451e-03 1.068491e-03 1.057532e-03 1.054036e-03 1.032895e-03 1.029060e-03 1.000526e-03 9.931196e-04 9.618461e-04 9.463453e-04 9.185285e-04 8.896454e-04 8.722974e-04 8.248849e-04 8.246762e-04 7.548548e-04 7.766588e-04 6.828819e-04 7.283686e-04 6.121346e-04 6.789353e-04 5.449266e-04 6.268160e-04 4.823509e-04 5.705281e-04 4.243716e-04 5.094562e-04 3.702522e-04 4.443162e-04 3.190808e-04 3.770602e-04 2.701816e-04 3.103242e-04 2.233168e-04 2.467309e-04 1.786885e-04 1.883510e-04 1.368116e-04 1.364714e-04 9.833882e-05 9.164149e-05 6.390104e-05 5.387351e-05 3.399378e-05 2.286998e-05 8.916223e-06 -1.799484e-06 -1.124648e-05 
-1.011040e-05 -1.751870e-05 -2.586392e-05 -3.047352e-05 -3.606997e-05 -3.881750e-05 -4.121740e-05 -4.321555e-05 -4.189795e-05 -4.448383e-05 -3.882651e-05 -4.353441e-05 -3.284275e-05 -4.129754e-05 -2.488606e-05 -3.861658e-05 -1.593619e-05 -3.612244e-05 -6.917447e-06 -3.411174e-05 1.423802e-06 -3.246692e-05 8.643145e-06 -3.065744e-05 1.468702e-05 -2.783974e-05 1.991485e-05 -2.302962e-05 2.505456e-05 -1.526757e-05 3.114286e-05 -3.665556e-06 3.953453e-05 1.274234e-05 5.202288e-05 3.529776e-05 7.098189e-05 6.594824e-05 9.930745e-05 1.071241e-04 1.399570e-04 1.611280e-04 1.951186e-04 2.292189e-04 2.653279e-04 3.108140e-04 3.489598e-04 4.032108e-04 4.423552e-04 5.019730e-04 5.405450e-04 6.018234e-04 6.382960e-04 6.977156e-04 7.311300e-04 7.857562e-04 8.160367e-04 8.637492e-04 8.917410e-04 9.312869e-04 9.585266e-04 9.894365e-04 1.017732e-03 1.040160e-03 1.071084e-03 1.085628e-03 1.120042e-03 1.127592e-03 1.165298e-03 1.166943e-03 1.206570e-03 1.203580e-03 1.242706e-03 1.236550e-03 1.272047e-03 1.264363e-03 1.292845e-03 1.285282e-03 1.303600e-03 1.297501e-03 1.303244e-03 1.299216e-03 1.291221e-03 1.288658e-03 1.267511e-03 1.264188e-03 1.232604e-03 1.224465e-03 1.187451e-03 1.168768e-03 1.133413e-03 1.097484e-03 1.072264e-03 1.012650e-03 1.006152e-03 9.182003e-04 9.373023e-04 8.195431e-04 8.674546e-04 7.224430e-04 7.973280e-04 6.316758e-04 7.265685e-04 5.500590e-04 6.543131e-04 4.782135e-04 5.800479e-04 4.150137e-04 5.042383e-04 3.584227e-04 4.284081e-04 3.063480e-04 3.547100e-04 2.572536e-04 2.853029e-04 2.104176e-04 2.218631e-04 1.658789e-04 1.653873e-04 1.241966e-04 1.162583e-04 8.615707e-05 7.443843e-05 5.252401e-05 3.966913e-05 2.387412e-05 1.160763e-05 5.176488e-07 
-4.585434e-05 -5.439913e-05 -6.371321e-05 -6.922625e-05 -7.564035e-05 -7.907472e-05 -8.217349e-05 -8.467770e-05 -8.386130e-05 -8.684472e-05 -8.130358e-05 -8.641910e-05 -7.517956e-05 -8.421872e-05 -6.626088e-05 -8.095573e-05 -5.540139e-05 -7.714168e-05 -4.349340e-05 -7.299854e-05 -3.138332e-05 -6.840693e-05 -1.975296e-05 -6.292259e-05 -8.993018e-06 -5.587377e-05 8.891275e-07 -4.651514e-05 1.029961e-05 -3.416290e-05 2.005448e-05 -1.819317e-05 3.143391e-05 2.195900e-06 4.636680e-05 2.841662e-05 6.765679e-05 6.284581e-05 9.895609e-05 1.087013e-04 1.441883e-04 1.692321e-04 2.064381e-04 2.464636e-04 2.867479e-04 3.400971e-04 3.834213e-04 4.471236e-04 4.921839e-04 5.623254e-04 6.071224e-04 6.794213e-04 7.220051e-04 7.924018e-04 8.315243e-04 8.966323e-04 9.321211e-04 9.894647e-04 1.022248e-03 1.070293e-03 1.102109e-03 1.140149e-03 1.173036e-03 1.201013e-03 1.236715e-03 1.255041e-03 1.294456e-03 1.303873e-03 1.346661e-03 1.348183e-03 1.392638e-03 1.387577e-03 1.430802e-03 1.420840e-03 1.459156e-03 1.446342e-03 1.475816e-03 1.462385e-03 1.479386e-03 1.467379e-03 1.469157e-03 1.459889e-03 1.445199e-03 1.438665e-03 1.408404e-03 1.402721e-03 1.360440e-03 1.351453e-03 1.303559e-03 1.284857e-03 1.240342e-03 1.203915e-03 1.173452e-03 1.111107e-03 1.105365e-03 1.010607e-03 1.037858e-03 9.077145e-04 9.712454e-04 8.075460e-04 9.039447e-04 7.136866e-04 8.329796e-04 6.275427e-04 7.554337e-04 5.486249e-04 6.700817e-04 4.754206e-04 5.782528e-04 4.063359e-04 4.834974e-04 3.403313e-04 3.903720e-04 2.771405e-04 3.030658e-04 2.171612e-04 2.244929e-04 1.611815e-04 1.560589e-04 1.100896e-04 9.793951e-05 6.465219e-05 4.956381e-05 2.538893e-05 1.005444e-05 -7.470153e-06 -2.148742e-05 -3.397169e-05 