# vtk DataFile Version 2.0
Comment goes here
ASCII

DATASET STRUCTURED_POINTS
FIELD FieldData 1
TIME 1 1 double
0.21500000
DIMENSIONS    128   128   1

ORIGIN    0.000   0.000   0.000
SPACING   0.039062 0.039062   1.000

POINT_DATA   16384
SCALARS Omega double
LOOKUP_TABLE default

-5.900582e-16 7.975752e-16 -8.301972e-15 -1.066948e-14 -4.200366e-15 -2.087792e-15 -1.863039e-15 1.769620e-15 6.055806e-15 3.879991e-15 3.658310e-15 -1.955070e-16 8.452304e-15 1.044847e-14 1.202215e-14 -2.891957e-15 -5.343490e-16 -6.794935e-15 -3.301847e-14 -4.251886e-15 -1.680845e-14 -4.037918e-14 -1.610801e-14 -5.719641e-15 -1.653432e-15 -5.333559e-15 2.496732e-15 3.564018e-14 2.545911e-14 4.614226e-15 2.030963e-14 -3.858611e-15 -1.817425e-14 -3.286819e-14 -5.538239e-14 -3.234562e-14 -7.439115e-14 -2.943177e-14 -2.744795e-14 -3.134648e-14 -4.358906e-14 -2.368075e-14 -5.441390e-14 -2.500538e-14 5.958844e-15 -2.710555e-14 9.713354e-15 -4.068800e-14 -1.066765e-14 -2.301419e-14 -4.266184e-15 -6.895028e-15 -1.133640e-14 8.326351e-15 -6.560710e-15 -5.572910e-15 1.600328e-14 2.741306e-14 4.180437e-14 1.687323e-14 1.508609e-14 4.689455e-14 4.827057e-14 4.699877e-14 2.546383e-14 1.589888e-14 -6.803228e-15 1.415026e-14 -1.533278e-15 -3.915845e-14 -1.729467e-14 -1.481278e-14 -4.311525e-14 -1.906176e-14 -2.785666e-14 3.833064e-14 -2.787598e-14 -5.110675e-14 8.512492e-15 -1.141983e-14 -2.644254e-15 4.663642e-15 -9.005730e-15 -9.370694e-15 2.953753e-15 1.917343e-14 8.441314e-15 3.944404e-14 3.087406e-14 7.470211e-14 8.271915e-14 5.928687e-14 1.764747e-15 7.302250e-16 2.044606e-14 3.902779e-15 1.955539e-14 -2.508212e-14 -1.453052e-14 -5.638314e-15 2.058339e-14 2.958419e-14 1.767089e-14 4.907078e-14 2.209142e-14 2.613754e-14 2.101206e-14 4.034820e-15 -6.009546e-15 -1.851808e-14 -1.198619e-14 -1.232841e-14 -2.136745e-14 -2.259146e-14 -2.270837e-14 -2.072302e-14 -1.807926e-14 -1.672109e-14 -3.171764e-15 -4.111625e-15 -1.697196e-15 5.904690e-15 1.642766e-15 -6.758179e-15 -9.337490e-15 -1.330893e-14 -1.171298e-14 -7.855876e-15 
8.478311e-06 8.191155e-06 7.933292e-06 7.709737e-06 7.503338e-06 7.341672e-06 7.164214e-06 7.060044e-06 6.890816e-06 6.837494e-06 6.658774e-06 6.647974e-06 6.445958e-06 6.468355e-06 6.233831e-06 6.279840e-06 6.008638e-06 6.069188e-06 5.762435e-06 5.829797e-06 5.494034e-06 5.562728e-06 5.209981e-06 5.277821e-06 4.925667e-06 4.994966e-06 4.666611e-06 4.745498e-06 4.469776e-06 4.573425e-06 4.384474e-06 4.535867e-06 4.472089e-06 4.701732e-06 4.803569e-06 5.147536e-06 5.453643e-06 5.949491e-06 6.491258e-06 7.171861e-06 7.966808e-06 8.852912e-06 9.898215e-06 1.099127e-05 1.225921e-05 1.353652e-05 1.497366e-05 1.638770e-05 1.791904e-05 1.940186e-05 2.093987e-05 2.241235e-05 2.386950e-05 2.525348e-05 2.655563e-05 2.778639e-05 2.888409e-05 2.992023e-05 3.079538e-05 3.162394e-05 3.229037e-05 3.292631e-05 3.342446e-05 3.390489e-05 3.429201e-05 3.466684e-05 3.500511e-05 3.532629e-05 3.567127e-05 3.598290e-05 3.637438e-05 3.670527e-05 3.716187e-05 3.752161e-05 3.803921e-05 3.841777e-05 3.897154e-05 3.934208e-05 3.989108e-05 4.021511e-05 4.070853e-05 4.094255e-05 4.132656e-05 4.142933e-05 4.165383e-05 4.159317e-05 4.161753e-05 4.137579e-05 4.117323e-05 4.075041e-05 4.031017e-05 3.972414e-05 3.905148e-05 3.833502e-05 3.744901e-05 3.664418e-05 3.557394e-05 3.472499e-05 3.350541e-05 3.265187e-05 3.131975e-05 3.049122e-05 2.908273e-05 2.829651e-05 2.684600e-05 2.610770e-05 2.464764e-05 2.395408e-05 2.251541e-05 2.185865e-05 2.047081e-05 1.984220e-05 1.853254e-05 1.792576e-05 1.671832e-05 1.613104e-05 1.504500e-05 1.447921e-05 1.352749e-05 1.298880e-05 1.217712e-05 1.167346e-05 1.100011e-05 1.054022e-05 9.996582e-06 9.588619e-06 9.160151e-06 8.810581e-06 
1.687573e-05 1.628723e-05 1.575910e-05 1.530092e-05 1.487748e-05 1.454636e-05 1.418228e-05 1.396949e-05 1.362308e-05 1.351533e-05 1.315088e-05 1.313143e-05 1.272107e-05 1.277108e-05 1.229614e-05 1.239612e-05 1.184807e-05 1.197949e-05 1.136042e-05 1.150731e-05 1.083020e-05 1.098104e-05 1.026988e-05 1.041966e-05 9.709619e-06 9.862320e-06 9.199837e-06 9.371102e-06 8.813936e-06 9.033620e-06 8.650222e-06 8.964017e-06 8.831515e-06 9.300511e-06 9.500315e-06 1.019717e-05 1.080736e-05 1.180815e-05 1.289244e-05 1.426423e-05 1.585863e-05 1.764432e-05 1.974396e-05 2.194765e-05 2.449740e-05 2.707440e-05 2.996713e-05 3.282234e-05 3.590716e-05 3.890400e-05 4.200452e-05 4.498344e-05 4.792310e-05 5.072628e-05 5.335544e-05 5.585198e-05 5.807082e-05 6.017678e-05 6.194861e-05 6.363741e-05 6.498993e-05 6.629125e-05 6.730567e-05 6.829381e-05 6.908513e-05 6.986013e-05 7.055306e-05 7.121904e-05 7.192482e-05 7.256997e-05 7.336810e-05 7.404985e-05 7.497718e-05 7.571431e-05 7.676216e-05 7.753407e-05 7.865231e-05 7.940475e-05 8.051110e-05 8.116655e-05 8.215909e-05 8.263017e-05 8.340107e-05 8.360508e-05 8.405399e-05 8.392659e-05 8.397233e-05 8.347849e-05 8.306759e-05 8.220798e-05 8.131917e-05 8.013051e-05 7.877460e-05 7.732367e-05 7.553909e-05 7.391124e-05 7.175646e-05 7.004116e-05 6.758596e-05 6.586274e-05 6.318053e-05 6.150846e-05 5.867117e-05 5.708421e-05 5.416022e-05 5.266863e-05 4.972279e-05 4.831922e-05 4.541368e-05 4.408163e-05 4.127596e-05 3.999791e-05 3.734777e-05 3.611133e-05 3.366588e-05 3.246702e-05 3.026561e-05 2.910914e-05 2.717839e-05 2.607637e-05 2.442822e-05 2.339730e-05 2.202857e-05 2.108687e-05 1.998027e-05 1.914464e-05 1.827095e-05 1.755471e-05 
2.534459e-05 2.443597e-05 2.362065e-05 2.290949e-05 2.225449e-05 2.173590e-05 2.117254e-05 2.083346e-05 2.029860e-05 2.011912e-05 1.955867e-05 1.951377e-05 1.888556e-05 1.894711e-05 1.822296e-05 1.836199e-05 1.752914e-05 1.771812e-05 1.678000e-05 1.699534e-05 1.597192e-05 1.619662e-05 1.512456e-05 1.535126e-05 1.428396e-05 1.451855e-05 1.352628e-05 1.379186e-05 1.296170e-05 1.330250e-05 1.273747e-05 1.322143e-05 1.303758e-05 1.375600e-05 1.407598e-05 1.513804e-05 1.607985e-05 1.760053e-05 1.926095e-05 2.134232e-05 2.377663e-05 2.648472e-05 2.968649e-05 3.302881e-05 3.691536e-05 4.082532e-05 4.523478e-05 4.956905e-05 5.427277e-05 5.882463e-05 6.355494e-05 6.808256e-05 7.257140e-05 7.683542e-05 8.085569e-05 8.465761e-05 8.805793e-05 9.127054e-05 9.399548e-05 9.657854e-05 9.867015e-05 1.006685e-04 1.022497e-04 1.037755e-04 1.050197e-04 1.062236e-04 1.073183e-04 1.083566e-04 1.094684e-04 1.104729e-04 1.117199e-04 1.127759e-04 1.142116e-04 1.153461e-04 1.169556e-04 1.181364e-04 1.198429e-04 1.209875e-04 1.226663e-04 1.236577e-04 1.251554e-04 1.258620e-04 1.270167e-04 1.273142e-04 1.279759e-04 1.277678e-04 1.278153e-04 1.270496e-04 1.264039e-04 1.250824e-04 1.237128e-04 1.218923e-04 1.198163e-04 1.175991e-04 1.148755e-04 1.123920e-04 1.091096e-04 1.064961e-04 1.027599e-04 1.001372e-04 9.605711e-05 9.351417e-05 8.919759e-05 8.678482e-05 8.233385e-05 8.006545e-05 7.557751e-05 7.344118e-05 6.901045e-05 6.698045e-05 6.269804e-05 6.074770e-05 5.669941e-05 5.481028e-05 5.107219e-05 4.923878e-05 4.587191e-05 4.410212e-05 4.114769e-05 3.946031e-05 3.693683e-05 3.535732e-05 3.325996e-05 3.181589e-05 3.011819e-05 2.883502e-05 2.749242e-05 2.639025e-05 
3.356149e-05 3.228897e-05 3.114836e-05 3.014994e-05 2.923056e-05 2.850012e-05 2.770907e-05 2.722944e-05 2.648127e-05 2.622592e-05 2.544735e-05 2.538267e-05 2.451643e-05 2.460446e-05 2.361213e-05 2.381352e-05 2.267751e-05 2.295458e-05 2.167924e-05 2.199931e-05 2.061138e-05 2.095031e-05 1.949902e-05 1.984527e-05 1.840236e-05 1.876182e-05 1.742155e-05 1.782294e-05 1.670204e-05 1.720238e-05 1.643893e-05 1.712752e-05 1.687737e-05 1.787578e-05 1.830435e-05 1.975972e-05 2.102717e-05 2.309627e-05 2.533532e-05 2.815923e-05 3.144745e-05 3.511979e-05 3.945165e-05 4.398716e-05 4.925358e-05 5.456602e-05 6.054961e-05 6.644744e-05 7.283904e-05 7.904317e-05 8.547969e-05 9.166201e-05 9.777921e-05 1.036140e-04 1.091031e-04 1.143198e-04 1.189749e-04 1.233993e-04 1.271448e-04 1.307210e-04 1.336135e-04 1.364008e-04 1.386058e-04 1.407545e-04 1.425054e-04 1.442174e-04 1.457657e-04 1.472501e-04 1.488179e-04 1.502503e-04 1.519938e-04 1.534866e-04 1.554750e-04 1.570620e-04 1.592727e-04 1.609085e-04 1.632364e-04 1.648086e-04 1.670856e-04 1.684360e-04 1.704561e-04 1.714077e-04 1.729546e-04 1.733408e-04 1.742145e-04 1.739068e-04 1.739464e-04 1.728765e-04 1.719776e-04 1.701507e-04 1.682741e-04 1.657700e-04 1.629408e-04 1.599011e-04 1.561999e-04 1.528040e-04 1.483502e-04 1.447845e-04 1.397184e-04 1.361462e-04 1.306134e-04 1.271533e-04 1.212953e-04 1.180118e-04 1.119631e-04 1.088712e-04 1.027615e-04 9.984090e-05 9.379713e-05 9.101089e-05 8.515803e-05 8.246977e-05 7.692696e-05 7.431319e-05 6.918701e-05 6.664284e-05 6.201920e-05 5.955829e-05 5.549552e-05 5.314607e-05 4.967071e-05 4.746943e-05 4.457556e-05 4.256139e-05 4.021329e-05 3.842181e-05 3.655891e-05 3.501811e-05 
4.191071e-05 4.023447e-05 3.873328e-05 3.740876e-05 3.619463e-05 3.521433e-05 3.416895e-05 3.351146e-05 3.252608e-05 3.215827e-05 3.113958e-05 3.101949e-05 2.989458e-05 2.997486e-05 2.869490e-05 2.892657e-05 2.746945e-05 2.780577e-05 2.617757e-05 2.657807e-05 2.481355e-05 2.524828e-05 2.341082e-05 2.386520e-05 2.204647e-05 2.252702e-05 2.084668e-05 2.138777e-05 1.999313e-05 2.066395e-05 1.972870e-05 2.063881e-05 2.035888e-05 2.165917e-05 2.224314e-05 2.411833e-05 2.576937e-05 2.841870e-05 3.130684e-05 3.491209e-05 3.913886e-05 4.382339e-05 4.938532e-05 5.517288e-05 6.193425e-05 6.871944e-05 7.640528e-05 8.394695e-05 9.216366e-05 1.001073e-04 1.083912e-04 1.163185e-04 1.242039e-04 1.316988e-04 1.387911e-04 1.455077e-04 1.515443e-04 1.572602e-04 1.621449e-04 1.667883e-04 1.705933e-04 1.742390e-04 1.771746e-04 1.800121e-04 1.823733e-04 1.846567e-04 1.867592e-04 1.887505e-04 1.908709e-04 1.927881e-04 1.951184e-04 1.970992e-04 1.997206e-04 2.018034e-04 2.046820e-04 2.068064e-04 2.098059e-04 2.118277e-04 2.147345e-04 2.164535e-04 2.190082e-04 2.202014e-04 2.221335e-04 2.225920e-04 2.236524e-04 2.232157e-04 2.232057e-04 2.217899e-04 2.205818e-04 2.181968e-04 2.157452e-04 2.124960e-04 2.088365e-04 2.049074e-04 2.001444e-04 1.957677e-04 1.900531e-04 1.854688e-04 1.789787e-04 1.743953e-04 1.673106e-04 1.628768e-04 1.553718e-04 1.511655e-04 1.434067e-04 1.394418e-04 1.315909e-04 1.278373e-04 1.200562e-04 1.164643e-04 1.089151e-04 1.054385e-04 9.827799e-05 9.488852e-05 8.825784e-05 8.495204e-05 7.896537e-05 7.576351e-05 7.049821e-05 6.743850e-05 6.292973e-05 6.006043e-05 5.630067e-05 5.367209e-05 5.061504e-05 4.827270e-05 4.584027e-05 4.381981e-05 
4.980932e-05 4.765225e-05 4.572390e-05 4.401245e-05 4.244579e-05 4.117157e-05 3.982130e-05 3.895897e-05 3.769147e-05 3.720124e-05 3.590174e-05 3.573283e-05 3.431136e-05 3.440614e-05 3.280227e-05 3.310076e-05 3.128689e-05 3.173146e-05 2.971481e-05 3.025499e-05 2.807820e-05 2.867569e-05 2.641651e-05 2.705082e-05 2.482136e-05 2.549665e-05 2.344254e-05 2.419573e-05 2.249556e-05 2.340524e-05 2.226906e-05 2.346312e-05 2.312824e-05 2.478650e-05 2.550682e-05 2.785356e-05 2.987880e-05 3.316037e-05 3.670276e-05 4.114863e-05 4.633907e-05 5.211046e-05 5.895223e-05 6.608911e-05 7.442226e-05 8.280449e-05 9.229533e-05 1.016325e-04 1.117982e-04 1.216563e-04 1.319253e-04 1.417885e-04 1.515851e-04 1.609383e-04 1.697744e-04 1.781882e-04 1.857388e-04 1.929360e-04 1.990822e-04 2.049713e-04 2.098013e-04 2.144712e-04 2.182420e-04 2.219222e-04 2.249926e-04 2.279908e-04 2.307428e-04 2.333744e-04 2.361396e-04 2.386656e-04 2.416701e-04 2.442520e-04 2.475871e-04 2.502655e-04 2.538832e-04 2.565794e-04 2.603095e-04 2.628448e-04 2.664261e-04 2.685552e-04 2.716738e-04 2.731258e-04 2.754562e-04 2.759786e-04 2.772227e-04 2.766229e-04 2.765442e-04 2.747244e-04 2.731731e-04 2.701512e-04 2.670771e-04 2.629891e-04 2.584404e-04 2.535205e-04 2.476275e-04 2.421681e-04 2.351167e-04 2.294174e-04 2.214192e-04 2.157364e-04 2.070053e-04 2.015165e-04 1.922568e-04 1.870486e-04 1.774551e-04 1.725340e-04 1.627999e-04 1.581200e-04 1.484436e-04 1.439394e-04 1.345244e-04 1.301390e-04 1.211864e-04 1.168894e-04 1.085822e-04 1.043760e-04 9.686266e-05 9.277935e-05 8.616089e-05 8.225355e-05 7.657625e-05 7.290884e-05 6.816421e-05 6.480158e-05 6.093213e-05 5.793204e-05 5.484069e-05 5.224798e-05 
5.788066e-05 5.517703e-05 5.276490e-05 5.060266e-05 4.863437e-05 4.700386e-05 4.530521e-05 4.417682e-05 4.258769e-05 4.191483e-05 4.029754e-05 4.002080e-05 3.826733e-05 3.831939e-05 3.635727e-05 3.666831e-05 3.446492e-05 3.496818e-05 3.253328e-05 3.317052e-05 3.055694e-05 3.128398e-05 2.858681e-05 2.937954e-05 2.673441e-05 2.759616e-05 2.517751e-05 2.614816e-05 2.416774e-05 2.533439e-05 2.403959e-05 2.554657e-05 2.521620e-05 2.727018e-05 2.820356e-05 3.106710e-05 3.356126e-05 3.752838e-05 4.183956e-05 4.719003e-05 5.348112e-05 6.041775e-05 6.870092e-05 7.728336e-05 8.737445e-05 9.746907e-05 1.089726e-04 1.202378e-04 1.325753e-04 1.444929e-04 1.569762e-04 1.689260e-04 1.808610e-04 1.922224e-04 2.030205e-04 2.132755e-04 2.225461e-04 2.313602e-04 2.389613e-04 2.462232e-04 2.522613e-04 2.580757e-04 2.628578e-04 2.674960e-04 2.714473e-04 2.752714e-04 2.788406e-04 2.822193e-04 2.857906e-04 2.890249e-04 2.928542e-04 2.961261e-04 3.003085e-04 3.036570e-04 3.081242e-04 3.114490e-04 3.159920e-04 3.190775e-04 3.233843e-04 3.259393e-04 3.296403e-04 3.313456e-04 3.340611e-04 3.346203e-04 3.360053e-04 3.351945e-04 3.349778e-04 3.326859e-04 3.306989e-04 3.269542e-04 3.231465e-04 3.181194e-04 3.125561e-04 3.065365e-04 2.993781e-04 2.927254e-04 2.841945e-04 2.772740e-04 2.676184e-04 2.607379e-04 2.502030e-04 2.435696e-04 2.323862e-04 2.260926e-04 2.144818e-04 2.085234e-04 1.967094e-04 1.910209e-04 1.792422e-04 1.737401e-04 1.622488e-04 1.568659e-04 1.459151e-04 1.406205e-04 1.304429e-04 1.252468e-04 1.160314e-04 1.109796e-04 1.028541e-04 9.801599e-05 9.103823e-05 8.649380e-05 8.065290e-05 7.648143e-05 7.170608e-05 6.797707e-05 6.414831e-05 6.091521e-05 
6.525818e-05 6.189095e-05 5.889514e-05 5.618865e-05 5.373106e-05 5.167481e-05 4.954977e-05 4.811006e-05 4.612852e-05 4.525185e-05 4.325095e-05 4.286862e-05 4.072020e-05 4.075400e-05 3.837177e-05 3.874032e-05 3.608537e-05 3.671054e-05 3.379466e-05 3.460782e-05 3.149438e-05 3.244244e-05 2.924496e-05 3.029683e-05 2.717613e-05 2.833054e-05 2.549152e-05 2.678725e-05 2.447634e-05 2.600483e-05 2.450789e-05 2.642637e-05 2.606499e-05 2.860523e-05 2.972636e-05 3.319081e-05 3.614300e-05 4.087931e-05 4.596954e-05 5.231799e-05 5.974950e-05 6.796733e-05 7.776901e-05 8.794760e-05 9.991571e-05 1.119158e-04 1.255920e-04 1.390220e-04 1.537253e-04 1.679766e-04 1.828904e-04 1.972272e-04 2.115253e-04 2.252071e-04 2.381886e-04 2.505954e-04 2.617955e-04 2.725253e-04 2.817752e-04 2.906909e-04 2.981163e-04 3.053364e-04 3.112974e-04 3.171359e-04 3.221281e-04 3.270040e-04 3.315449e-04 3.358814e-04 3.404078e-04 3.445462e-04 3.493413e-04 3.534816e-04 3.586399e-04 3.628157e-04 3.682441e-04 3.723287e-04 3.777754e-04 3.815116e-04 3.866111e-04 3.896575e-04 3.939831e-04 3.959688e-04 3.990860e-04 3.996695e-04 4.011865e-04 4.001118e-04 3.997236e-04 3.968686e-04 3.943899e-04 3.897982e-04 3.851811e-04 3.790671e-04 3.723976e-04 3.651182e-04 3.565912e-04 3.485858e-04 3.384628e-04 3.301723e-04 3.187366e-04 3.105245e-04 2.980480e-04 2.901476e-04 2.768807e-04 2.693818e-04 2.555651e-04 2.484404e-04 2.343268e-04 2.274819e-04 2.133526e-04 2.066811e-04 1.928453e-04 1.862704e-04 1.730458e-04 1.665415e-04 1.542230e-04 1.478160e-04 1.366438e-04 1.304024e-04 1.205380e-04 1.145556e-04 1.060719e-04 1.004506e-04 9.333433e-05 8.817189e-05 8.233604e-05 7.771628e-05 7.301697e-05 6.900355e-05 
7.282062e-05 6.869005e-05 6.502774e-05 6.168051e-05 5.866103e-05 5.608490e-05 5.346829e-05 5.162475e-05 4.919050e-05 4.801855e-05 4.557634e-05 4.499789e-05 4.239760e-05 4.232414e-05 3.946478e-05 3.980484e-05 3.664170e-05 3.730838e-05 3.385751e-05 3.477541e-05 3.111459e-05 3.222604e-05 2.849248e-05 2.976371e-05 2.614920e-05 2.757777e-05 2.432307e-05 2.594827e-05 2.333840e-05 2.525530e-05 2.361643e-05 2.599226e-05 2.568858e-05 2.877612e-05 3.020113e-05 3.433934e-05 3.789272e-05 4.348228e-05 4.952328e-05 5.696815e-05 6.574380e-05 7.536159e-05 8.692113e-05 9.884108e-05 1.129621e-04 1.270424e-04 1.431997e-04 1.589966e-04 1.763971e-04 1.932049e-04 2.108907e-04 2.278474e-04 2.448471e-04 2.610823e-04 2.765725e-04 2.913568e-04 3.047933e-04 3.176534e-04 3.288413e-04 3.396144e-04 3.487025e-04 3.575229e-04 3.649299e-04 3.721571e-04 3.784527e-04 3.845626e-04 3.903333e-04 3.958021e-04 4.015330e-04 4.067376e-04 4.127307e-04 4.178831e-04 4.242224e-04 4.293446e-04 4.359024e-04 4.408363e-04 4.473105e-04 4.517546e-04 4.577219e-04 4.612837e-04 4.662592e-04 4.685168e-04 4.720130e-04 4.725801e-04 4.741620e-04 4.727514e-04 4.720851e-04 4.685649e-04 4.654541e-04 4.598862e-04 4.542924e-04 4.469405e-04 4.389783e-04 4.302763e-04 4.201819e-04 4.106600e-04 3.987387e-04 3.889232e-04 3.754937e-04 3.658091e-04 3.511648e-04 3.418695e-04 3.262729e-04 3.174478e-04 3.011531e-04 2.927401e-04 2.760279e-04 2.678973e-04 2.510984e-04 2.431187e-04 2.266118e-04 2.186984e-04 2.028810e-04 1.950177e-04 1.802611e-04 1.724960e-04 1.591011e-04 1.515291e-04 1.396958e-04 1.324363e-04 1.222522e-04 1.154298e-04 1.068757e-04 1.006061e-04 9.357430e-05 8.795429e-05 8.227088e-05 7.737310e-05 
7.938833e-05 7.432741e-05 6.985807e-05 6.573455e-05 6.202791e-05 5.882776e-05 5.560568e-05 5.328544e-05 5.029232e-05 4.878315e-05 4.579783e-05 4.501142e-05 4.185872e-05 4.169487e-05 3.825656e-05 3.861183e-05 3.483588e-05 3.561229e-05 3.151887e-05 3.263173e-05 2.831463e-05 2.969897e-05 2.532215e-05 2.693852e-05 2.272883e-05 2.457008e-05 2.080838e-05 2.290996e-05 1.992334e-05 2.237865e-05 2.053567e-05 2.351620e-05 2.322450e-05 2.699953e-05 2.870021e-05 3.364453e-05 3.779183e-05 4.436495e-05 5.137808e-05 6.006101e-05 7.024244e-05 8.143206e-05 9.486382e-05 1.087466e-04 1.251960e-04 1.416412e-04 1.605166e-04 1.790316e-04 1.994179e-04 2.191910e-04 2.399719e-04 2.599978e-04 2.800358e-04 2.992925e-04 3.176232e-04 3.352509e-04 3.512389e-04 3.666772e-04 3.800960e-04 3.931474e-04 4.041705e-04 4.149826e-04 4.240925e-04 4.330716e-04 4.409172e-04 4.486002e-04 4.558397e-04 4.627579e-04 4.699233e-04 4.764886e-04 4.838960e-04 4.903289e-04 4.980444e-04 5.043489e-04 5.122031e-04 5.181828e-04 5.258175e-04 5.311196e-04 5.380503e-04 5.422257e-04 5.479079e-04 5.504791e-04 5.543723e-04 5.549053e-04 5.565324e-04 5.547080e-04 5.537077e-04 5.493866e-04 5.455549e-04 5.388244e-04 5.321378e-04 5.233248e-04 5.139341e-04 5.035687e-04 4.917594e-04 4.804840e-04 4.666097e-04 4.550527e-04 4.394649e-04 4.281174e-04 4.111211e-04 4.002594e-04 3.821136e-04 3.717920e-04 3.527508e-04 3.428600e-04 3.232259e-04 3.135854e-04 2.937443e-04 2.841912e-04 2.646076e-04 2.550541e-04 2.362276e-04 2.266791e-04 2.090795e-04 1.996210e-04 1.836276e-04 1.743949e-04 1.602565e-04 1.514066e-04 1.392286e-04 1.309162e-04 1.206721e-04 1.130348e-04 1.045914e-04 9.774133e-05 9.088875e-05 8.490813e-05 
8.612284e-05 7.998544e-05 7.459277e-05 6.955198e-05 6.505478e-05 6.109303e-05 5.717102e-05 5.423830e-05 5.059695e-05 4.861520e-05 4.499883e-05 4.386870e-05 4.007391e-05 3.968368e-05 3.557319e-05 3.580912e-05 3.132389e-05 3.208058e-05 2.724811e-05 2.843724e-05 2.337363e-05 2.493017e-05 1.983507e-05 2.172170e-05 1.686746e-05 1.907938e-05 1.479723e-05 1.737073e-05 1.403794e-05 1.706567e-05 1.509744e-05 1.875157e-05 1.859878e-05 2.315797e-05 2.530572e-05 3.117285e-05 3.612610e-05 4.381531e-05 5.205235e-05 6.212398e-05 7.400611e-05 8.694474e-05 1.025923e-04 1.186522e-04 1.378252e-04 1.568933e-04 1.789290e-04 2.004625e-04 2.243112e-04 2.473828e-04 2.717503e-04 2.951964e-04 3.187599e-04 3.413916e-04 3.630309e-04 3.838470e-04 4.028285e-04 4.211766e-04 4.372444e-04 4.528922e-04 4.662517e-04 4.793630e-04 4.905686e-04 5.015994e-04 5.113847e-04 5.209323e-04 5.300264e-04 5.386726e-04 5.476463e-04 5.558298e-04 5.649994e-04 5.729388e-04 5.823363e-04 5.900083e-04 5.994073e-04 6.065704e-04 6.155459e-04 6.217931e-04 6.297940e-04 6.346195e-04 6.410414e-04 6.439141e-04 6.481670e-04 6.486071e-04 6.501773e-04 6.478349e-04 6.463414e-04 6.410706e-04 6.363107e-04 6.282281e-04 6.202042e-04 6.097090e-04 5.986212e-04 5.863553e-04 5.725512e-04 5.592879e-04 5.431771e-04 5.296627e-04 5.116276e-04 4.984261e-04 4.787707e-04 4.661703e-04 4.451332e-04 4.331475e-04 4.109688e-04 3.994214e-04 3.764236e-04 3.650729e-04 3.417097e-04 3.303605e-04 3.072064e-04 2.957749e-04 2.734594e-04 2.619837e-04 2.410995e-04 2.297119e-04 2.107322e-04 1.996169e-04 1.828441e-04 1.721985e-04 1.577533e-04 1.477620e-04 1.356025e-04 1.264233e-04 1.163814e-04 1.081389e-04 9.996034e-05 9.274371e-05 
9.150034e-05 8.405498e-05 7.754746e-05 7.139761e-05 6.593571e-05 6.105913e-05 5.627456e-05 5.261381e-05 4.816783e-05 4.563483e-05 4.123218e-05 3.971544e-05 3.511997e-05 3.449480e-05 2.954649e-05 2.968713e-05 2.431811e-05 2.510997e-05 1.935586e-05 2.070543e-05 1.470838e-05 1.654925e-05 1.055121e-05 1.284691e-05 7.174404e-06 9.920779e-06 4.964798e-06 8.196145e-06 4.392406e-06 8.195662e-06 6.011081e-06 1.055154e-05 1.048107e-05 1.603782e-05 1.860873e-05 2.560648e-05 3.137395e-05 4.038357e-05 4.989085e-05 6.156672e-05 7.524806e-05 9.018872e-05 1.082216e-04 1.267793e-04 1.489316e-04 1.710347e-04 1.965760e-04 2.216392e-04 2.493728e-04 2.763420e-04 3.047707e-04 3.322981e-04 3.598829e-04 3.865795e-04 4.120171e-04 4.367090e-04 4.591496e-04 4.810679e-04 5.002196e-04 5.190841e-04 5.351866e-04 5.511738e-04 5.648615e-04 5.784798e-04 5.905783e-04 6.024907e-04 6.138028e-04 6.246455e-04 6.357771e-04 6.460146e-04 6.572728e-04 6.671157e-04 6.784866e-04 6.878747e-04 6.990640e-04 7.077004e-04 7.182083e-04 7.256222e-04 7.348271e-04 7.404483e-04 7.476851e-04 7.509229e-04 7.555528e-04 7.558771e-04 7.573518e-04 7.543794e-04 7.523008e-04 7.458813e-04 7.400537e-04 7.303424e-04 7.208041e-04 7.082936e-04 6.953092e-04 6.807851e-04 6.647804e-04 6.491834e-04 6.306330e-04 6.148549e-04 5.941665e-04 5.788512e-04 5.563055e-04 5.417365e-04 5.175196e-04 5.036361e-04 4.779462e-04 4.644689e-04 4.376375e-04 4.242392e-04 3.967996e-04 3.832478e-04 3.559157e-04 3.421435e-04 3.157191e-04 3.018220e-04 2.770592e-04 2.632438e-04 2.407369e-04 2.272583e-04 2.073773e-04 1.944890e-04 1.773714e-04 1.652960e-04 1.508785e-04 1.397968e-04 1.278667e-04 1.179157e-04 1.081634e-04 9.943792e-05 
9.700668e-05 8.804260e-05 8.025984e-05 7.279775e-05 6.622609e-05 6.023581e-05 5.445332e-05 4.986682e-05 4.448481e-05 4.120103e-05 3.587873e-05 3.377188e-05 2.823498e-05 2.716668e-05 2.122888e-05 2.106313e-05 1.464757e-05 1.526565e-05 8.420526e-06 9.732203e-06 2.635290e-06 4.584051e-06 -2.466266e-06 9.685772e-08 -6.508789e-06 -3.321754e-06 -9.013295e-06 -5.158865e-06 -9.425147e-06 -4.815615e-06 -7.126696e-06 -1.604911e-06 -1.419532e-06 5.284024e-06 8.528213e-06 1.684467e-05 2.374152e-05 3.428536e-05 4.543453e-05 5.895120e-05 7.485981e-05 9.207143e-05 1.129812e-04 1.343548e-04 1.600479e-04 1.855667e-04 2.152418e-04 2.442795e-04 2.765758e-04 3.079391e-04 3.411292e-04 3.732640e-04 4.055640e-04 4.368592e-04 4.667612e-04 4.958537e-04 5.223835e-04 5.483813e-04 5.712150e-04 5.937902e-04 6.132146e-04 6.325601e-04 6.493024e-04 6.659815e-04 6.809668e-04 6.957057e-04 7.098074e-04 7.232873e-04 7.371321e-04 7.498288e-04 7.636918e-04 7.757913e-04 7.895868e-04 8.009777e-04 8.143208e-04 8.246416e-04 8.369428e-04 8.456563e-04 8.562171e-04 8.626911e-04 8.707866e-04 8.743749e-04 8.793231e-04 8.794491e-04 8.806758e-04 8.769241e-04 8.740248e-04 8.662406e-04 8.590398e-04 8.474218e-04 8.360124e-04 8.211614e-04 8.058963e-04 7.887690e-04 7.701761e-04 7.519135e-04 7.305462e-04 7.122107e-04 6.884946e-04 6.708151e-04 6.449791e-04 6.282168e-04 6.003563e-04 5.843448e-04 5.545875e-04 5.389156e-04 5.075989e-04 4.918391e-04 4.596023e-04 4.434892e-04 4.112358e-04 3.947382e-04 3.634903e-04 3.467844e-04 3.174977e-04 3.008844e-04 2.742963e-04 2.581129e-04 2.346647e-04 2.192239e-04 1.990603e-04 1.846205e-04 1.676409e-04 1.544010e-04 1.403319e-04 1.284360e-04 1.168988e-04 1.064428e-04 
1.007484e-04 8.994934e-05 8.063457e-05 7.159173e-05 6.367120e-05 5.634312e-05 4.933257e-05 4.363831e-05 3.709113e-05 3.291504e-05 2.643757e-05 2.363831e-05 1.691141e-05 1.533599e-05 8.142276e-06 7.643959e-06 -1.041699e-07 3.518131e-07 -7.887619e-06 -6.563867e-06 -1.507460e-05 -1.292935e-05 -2.134602e-05 -1.838797e-05 -2.622658e-05 -2.243153e-05 -2.912642e-05 -2.443987e-05 -2.938550e-05 -2.371826e-05 -2.630644e-05 -1.951401e-05 -1.915129e-05 -1.098591e-05 -7.079853e-06 2.879976e-06 1.095207e-05 2.335533e-05 3.624632e-05 5.193933e-05 7.024127e-05 9.010231e-05 1.141466e-04 1.388033e-04 1.684128e-04 1.979436e-04 2.322565e-04 2.660113e-04 3.034888e-04 3.401218e-04 3.787701e-04 4.164830e-04 4.542275e-04 4.911368e-04 5.262242e-04 5.607294e-04 5.920347e-04 6.230845e-04 6.502432e-04 6.774418e-04 7.007930e-04 7.243442e-04 7.447203e-04 7.652475e-04 7.836832e-04 8.019844e-04 8.194262e-04 8.362332e-04 8.533206e-04 8.691191e-04 8.860786e-04 9.010208e-04 9.176756e-04 9.315846e-04 9.474426e-04 9.598770e-04 9.742490e-04 9.845914e-04 9.966982e-04 1.004244e-03 1.013300e-03 1.017339e-03 1.022622e-03 1.022522e-03 1.023433e-03 1.018743e-03 1.014874e-03 1.005432e-03 9.966370e-04 9.826985e-04 9.691436e-04 9.514503e-04 9.336073e-04 9.133420e-04 8.918747e-04 8.704418e-04 8.460004e-04 8.246785e-04 7.976930e-04 7.773025e-04 7.479019e-04 7.286444e-04 6.967681e-04 6.783085e-04 6.439606e-04 6.256942e-04 5.892010e-04 5.705660e-04 5.327002e-04 5.133998e-04 4.753141e-04 4.553844e-04 4.183955e-04 3.981396e-04 3.634679e-04 3.433251e-04 3.118911e-04 2.923145e-04 2.646458e-04 2.460259e-04 2.222702e-04 2.049082e-04 1.849128e-04 1.690249e-04 1.524365e-04 1.381695e-04 1.245226e-04 1.119677e-04 
1.045963e-04 9.166056e-05 8.059422e-05 6.967946e-05 6.020765e-05 5.125513e-05 4.282323e-05 3.573316e-05 2.782800e-05 2.246472e-05 1.463064e-05 1.083334e-05 2.698259e-06 2.983663e-07 -8.391251e-06 -9.547860e-06 -1.889018e-05 -1.892236e-05 -2.883320e-05 -2.781241e-05 -3.801814e-05 -3.596768e-05 -4.602011e-05 -4.292080e-05 -5.222860e-05 -4.802449e-05 -5.589671e-05 -5.050008e-05 -5.620140e-05 -4.949795e-05 -5.230870e-05 -4.415160e-05 -4.340803e-05 -3.357537e-05 -2.866039e-05 -1.676460e-05 -7.051498e-06 7.558953e-06 2.274815e-05 4.100024e-05 6.232811e-05 8.525997e-05 1.131516e-04 1.415747e-04 1.759044e-04 2.100172e-04 2.498637e-04 2.890003e-04 3.326259e-04 3.752732e-04 4.203792e-04 4.644637e-04 5.086426e-04 5.519750e-04 5.931975e-04 6.339168e-04 6.708965e-04 7.077824e-04 7.401236e-04 7.727134e-04 8.008278e-04 8.293414e-04 8.541867e-04 8.793086e-04 9.020393e-04 9.246323e-04 9.462613e-04 9.670909e-04 9.882458e-04 1.007783e-03 1.028605e-03 1.046942e-03 1.067123e-03 1.083996e-03 1.102904e-03 1.117780e-03 1.134605e-03 1.146784e-03 1.160659e-03 1.169371e-03 1.179453e-03 1.183930e-03 1.189463e-03 1.189026e-03 1.189396e-03 1.183553e-03 1.178365e-03 1.166949e-03 1.156103e-03 1.139428e-03 1.123198e-03 1.102173e-03 1.081195e-03 1.057280e-03 1.032402e-03 1.007323e-03 9.793145e-04 9.546059e-04 9.238808e-04 9.004514e-04 8.669731e-04 8.449210e-04 8.083941e-04 7.871543e-04 7.474073e-04 7.261346e-04 6.834859e-04 6.614702e-04 6.168846e-04 5.938184e-04 5.487870e-04 5.248144e-04 4.810364e-04 4.566290e-04 4.156508e-04 3.914166e-04 3.543678e-04 3.308889e-04 2.983786e-04 2.761243e-04 2.482803e-04 2.275876e-04 2.041762e-04 1.852699e-04 1.658318e-04 1.488529e-04 1.328158e-04 1.178437e-04 
1.062788e-04 9.077783e-05 7.761886e-05 6.445819e-05 5.310907e-05 4.220543e-05 3.202809e-05 2.325801e-05 1.366118e-05 6.866869e-06 -2.676839e-06 -7.674755e-06 -1.759709e-05 -2.097850e-05 -3.157115e-05 -3.349054e-05 -4.485930e-05 -4.542480e-05 -5.745913e-05 -5.672612e-05 -6.909558e-05 -6.707322e-05 -7.924642e-05 -7.590300e-05 -8.717637e-05 -8.243381e-05 -9.196965e-05 -8.569873e-05 -9.258894e-05 -8.462470e-05 -8.798519e-05 -7.815246e-05 -7.721014e-05 -6.530786e-05 -5.941471e-05 -4.511207e-05 -3.366104e-05 -1.633739e-05 1.345522e-06 2.268468e-05 4.732623e-05 7.390710e-05 1.060516e-04 1.389323e-04 1.785458e-04 2.181111e-04 2.642366e-04 3.098406e-04 3.605277e-04 4.104767e-04 4.630715e-04 5.149612e-04 5.666547e-04 6.179141e-04 6.663391e-04 7.147724e-04 7.584429e-04 8.026051e-04 8.410831e-04 8.804140e-04 9.141939e-04 9.489213e-04 9.791054e-04 1.009983e-03 1.037861e-03 1.065831e-03 1.092483e-03 1.118355e-03 1.144381e-03 1.168610e-03 1.194039e-03 1.216643e-03 1.241004e-03 1.261612e-03 1.284109e-03 1.302071e-03 1.321761e-03 1.336278e-03 1.352204e-03 1.362420e-03 1.373681e-03 1.378761e-03 1.384566e-03 1.383767e-03 1.383488e-03 1.376267e-03 1.369519e-03 1.355692e-03 1.342438e-03 1.322393e-03 1.303049e-03 1.277917e-03 1.253346e-03 1.224961e-03 1.196263e-03 1.166783e-03 1.134882e-03 1.106169e-03 1.071426e-03 1.044475e-03 1.006586e-03 9.813137e-04 9.396247e-04 9.151259e-04 8.692020e-04 8.443015e-04 7.944437e-04 7.682477e-04 7.156816e-04 6.878944e-04 6.345650e-04 6.054995e-04 5.536073e-04 5.239756e-04 4.754826e-04 4.461227e-04 4.024145e-04 3.740786e-04 3.358548e-04 3.091104e-04 2.764623e-04 2.516864e-04 2.242711e-04 2.016912e-04 1.789134e-04 1.586545e-04 1.398076e-04 1.219255e-04 