# vtk DataFile Version 2.0
Comment goes here
ASCII

DATASET STRUCTURED_POINTS
FIELD FieldData 1
TIME 1 1 double
0.24500000
DIMENSIONS    128   128   1

ORIGIN    0.000   0.000   0.000
SPACING   0.039062 0.039062   1.000

POINT_DATA   16384
SCALARS Omega double
LOOKUP_TABLE default

4.492774e-15 1.309442e-14 1.685430e-14 2.472119e-14 1.547320e-14 2.654104e-14 3.002633e-14 1.558140e-14 1.688332e-14 1.996564e-14 1.616921e-14 2.158756e-14 2.224467e-14 1.388877e-14 -4.110059e-15 -5.171617e-15 7.340034e-15 1.968570e-14 -8.734801e-15 8.159603e-15 -1.458375e-14 -4.516201e-15 -2.745983e-14 -8.664891e-15 5.705697e-15 2.234067e-15 -1.899934e-14 1.060591e-14 1.387739e-16 -1.777666e-14 6.320515e-15 -1.257458e-14 -2.675381e-14 -2.564050e-14 -3.343653e-14 -5.177447e-14 -4.338322e-14 -1.713105e-14 -2.486751e-14 -2.060010e-14 -4.359614e-14 -3.365750e-14 -6.554319e-15 -1.184289e-14 -9.618262e-19 8.861708e-16 1.088235e-14 -1.090295e-14 -1.314463e-14 -2.710240e-14 -1.340941e-14 -4.351662e-15 -2.349393e-14 -6.350979e-15 -1.113481e-15 2.430270e-14 1.744687e-14 1.373637e-14 2.856398e-14 3.913505e-14 6.044233e-14 3.881148e-14 3.423698e-14 -4.326035e-15 -1.233221e-14 -1.129163e-14 1.824710e-14 2.731370e-14 5.400832e-15 1.575708e-14 2.181856e-14 -1.552372e-14 3.238973e-15 -4.489336e-14 -1.863424e-14 -1.939053e-14 -1.843937e-15 9.812657e-15 5.312956e-15 1.050560e-14 -2.008165e-14 -2.222704e-14 -4.860506e-14 9.228709e-15 1.611015e-15 2.465848e-15 1.726446e-14 7.235364e-15 2.853985e-14 1.249486e-14 4.122471e-14 1.929016e-14 1.702394e-14 2.392498e-14 1.429256e-14 -1.401759e-14 2.350965e-14 -1.544993e-15 4.212138e-14 2.979403e-14 2.591437e-14 2.430938e-15 1.417437e-14 1.197819e-14 2.552693e-15 1.010708e-14 5.290470e-15 -5.689522e-15 -1.489335e-15 -1.596329e-14 -9.886905e-15 -9.232843e-15 -1.585207e-14 -1.164612e-14 -7.240353e-15 -1.512633e-14 -1.420993e-14 -1.509687e-14 -9.440302e-15 -1.969608e-15 8.393476e-16 5.667998e-15 7.731079e-15 -2.371029e-15 -3.248828e-16 2.908296e-15 -1.934964e-15 -2.324372e-15 
8.607007e-06 8.232096e-06 8.006904e-06 7.703231e-06 7.531153e-06 7.286336e-06 7.156027e-06 6.956883e-06 6.856793e-06 6.690153e-06 6.609239e-06 6.462727e-06 6.391099e-06 6.253835e-06 6.183347e-06 6.046552e-06 5.971337e-06 5.828833e-06 5.745830e-06 5.594480e-06 5.503986e-06 5.344129e-06 5.250415e-06 5.086395e-06 4.998396e-06 4.839250e-06 4.771295e-06 4.631564e-06 4.603995e-06 4.504496e-06 4.543917e-06 4.512104e-06 4.650855e-06 4.720227e-06 4.994594e-06 5.202561e-06 5.649319e-06 6.033119e-06 6.684312e-06 7.275052e-06 8.151469e-06 8.967088e-06 1.007161e-05 1.111028e-05 1.242282e-05 1.365871e-05 1.513449e-05 1.651762e-05 1.809014e-05 1.955124e-05 2.113998e-05 2.259976e-05 2.412148e-05 2.550276e-05 2.688399e-05 2.812379e-05 2.931188e-05 3.037084e-05 3.134096e-05 3.220799e-05 3.296476e-05 3.365608e-05 3.422968e-05 3.478270e-05 3.522069e-05 3.568453e-05 3.604132e-05 3.646601e-05 3.679235e-05 3.721905e-05 3.755345e-05 3.800726e-05 3.837052e-05 3.885682e-05 3.925012e-05 3.975445e-05 4.016078e-05 4.065184e-05 4.103996e-05 4.147478e-05 4.180484e-05 4.213537e-05 4.236536e-05 4.254527e-05 4.263738e-05 4.262854e-05 4.255463e-05 4.233219e-05 4.207769e-05 4.163310e-05 4.119865e-05 4.054027e-05 3.994085e-05 3.909186e-05 3.835360e-05 3.734774e-05 3.650310e-05 3.537928e-05 3.446183e-05 3.325878e-05 3.229883e-05 3.105113e-05 3.007318e-05 2.880916e-05 2.783145e-05 2.657325e-05 2.560898e-05 2.437382e-05 2.343324e-05 2.223534e-05 2.132770e-05 2.017979e-05 1.931458e-05 1.822873e-05 1.741591e-05 1.640348e-05 1.565293e-05 1.472399e-05 1.404447e-05 1.320692e-05 1.260503e-05 1.186386e-05 1.134322e-05 1.069997e-05 1.026081e-05 9.713446e-06 9.352619e-06 8.895694e-06 
1.724034e-05 1.648870e-05 1.603775e-05 1.543101e-05 1.508833e-05 1.460096e-05 1.434310e-05 1.394785e-05 1.375079e-05 1.342032e-05 1.326102e-05 1.296953e-05 1.282721e-05 1.255194e-05 1.240940e-05 1.213194e-05 1.197677e-05 1.168420e-05 1.150988e-05 1.119574e-05 1.100291e-05 1.066816e-05 1.046584e-05 1.011995e-05 9.926930e-06 9.589178e-06 9.435394e-06 9.136398e-06 9.064038e-06 8.847153e-06 8.911017e-06 8.832903e-06 9.099210e-06 9.228514e-06 9.771212e-06 1.018418e-05 1.107794e-05 1.185015e-05 1.315984e-05 1.435415e-05 1.612170e-05 1.777405e-05 2.000504e-05 2.211115e-05 2.476462e-05 2.727149e-05 3.025653e-05 3.306228e-05 3.624411e-05 3.920783e-05 4.242347e-05 4.538429e-05 4.846542e-05 5.126697e-05 5.406529e-05 5.658025e-05 5.898967e-05 6.113876e-05 6.310943e-05 6.487064e-05 6.641210e-05 6.781856e-05 6.899170e-05 7.011921e-05 7.101964e-05 7.196731e-05 7.270414e-05 7.357266e-05 7.424737e-05 7.511926e-05 7.580848e-05 7.673374e-05 7.747848e-05 7.846735e-05 7.926933e-05 8.029227e-05 8.111689e-05 8.211065e-05 8.289503e-05 8.377318e-05 8.443747e-05 8.510351e-05 8.556370e-05 8.592484e-05 8.610546e-05 8.608544e-05 8.593050e-05 8.547974e-05 8.496042e-05 8.406216e-05 8.318014e-05 8.185151e-05 8.063722e-05 7.892502e-05 7.743114e-05 7.540326e-05 7.369508e-05 7.142955e-05 6.957437e-05 6.714868e-05 6.520709e-05 6.269018e-05 6.071100e-05 5.815934e-05 5.617890e-05 5.363666e-05 5.168140e-05 4.918328e-05 4.727409e-05 4.484913e-05 4.300522e-05 4.067988e-05 3.892119e-05 3.672075e-05 3.506827e-05 3.301661e-05 3.149105e-05 2.960925e-05 2.822891e-05 2.653348e-05 2.531202e-05 2.381330e-05 2.275817e-05 2.145935e-05 2.057098e-05 1.946782e-05 1.873970e-05 1.782097e-05 
2.572097e-05 2.454336e-05 2.382578e-05 2.286895e-05 2.231661e-05 2.154297e-05 2.112139e-05 2.049091e-05 2.016503e-05 1.963771e-05 1.937407e-05 1.891228e-05 1.868095e-05 1.825164e-05 1.802798e-05 1.760451e-05 1.737083e-05 1.693450e-05 1.668163e-05 1.622299e-05 1.595184e-05 1.547193e-05 1.519533e-05 1.470716e-05 1.445179e-05 1.398232e-05 1.379091e-05 1.338342e-05 1.331659e-05 1.303314e-05 1.317034e-05 1.309308e-05 1.353127e-05 1.376104e-05 1.460967e-05 1.525997e-05 1.663083e-05 1.781567e-05 1.980729e-05 2.162310e-05 2.430068e-05 2.680454e-05 3.017933e-05 3.336818e-05 3.738135e-05 4.117840e-05 4.569530e-05 4.994914e-05 5.476796e-05 5.926713e-05 6.414244e-05 6.864417e-05 7.332166e-05 7.758912e-05 8.184415e-05 8.568390e-05 8.935535e-05 9.264633e-05 9.565811e-05 9.836580e-05 1.007315e-04 1.029047e-04 1.047156e-04 1.064675e-04 1.078670e-04 1.093460e-04 1.104977e-04 1.118544e-04 1.129100e-04 1.142674e-04 1.153412e-04 1.167731e-04 1.179255e-04 1.194460e-04 1.206783e-04 1.222420e-04 1.235012e-04 1.250121e-04 1.262028e-04 1.275305e-04 1.285323e-04 1.295318e-04 1.302184e-04 1.307503e-04 1.310085e-04 1.309590e-04 1.307052e-04 1.300007e-04 1.291927e-04 1.278095e-04 1.264514e-04 1.244170e-04 1.225565e-04 1.199433e-04 1.176617e-04 1.145738e-04 1.119711e-04 1.085270e-04 1.057053e-04 1.020220e-04 9.907243e-05 9.525313e-05 9.224796e-05 8.837621e-05 8.536846e-05 8.150906e-05 7.853686e-05 7.474064e-05 7.183423e-05 6.814415e-05 6.533210e-05 6.178796e-05 5.910067e-05 5.574114e-05 5.321112e-05 5.007311e-05 4.773264e-05 4.484892e-05 4.272652e-05 4.012282e-05 3.823981e-05 3.593239e-05 3.430042e-05 3.229456e-05 3.091453e-05 2.920429e-05 2.806654e-05 2.663542e-05 
3.427515e-05 3.266530e-05 3.167858e-05 3.037280e-05 2.961457e-05 2.856087e-05 2.798323e-05 2.712610e-05 2.668023e-05 2.596394e-05 2.560296e-05 2.497489e-05 2.465666e-05 2.407036e-05 2.376005e-05 2.317801e-05 2.285051e-05 2.224650e-05 2.188877e-05 2.124980e-05 2.086317e-05 2.019125e-05 1.979384e-05 1.910797e-05 1.873726e-05 1.807580e-05 1.779128e-05 1.721498e-05 1.710040e-05 1.669533e-05 1.685971e-05 1.673892e-05 1.731467e-05 1.761623e-05 1.875248e-05 1.963147e-05 2.148056e-05 2.309277e-05 2.578923e-05 2.826666e-05 3.190007e-05 3.532114e-05 3.990788e-05 4.426892e-05 4.972993e-05 5.492630e-05 6.107902e-05 6.690374e-05 7.347381e-05 7.963766e-05 8.629115e-05 9.246218e-05 9.885314e-05 1.047078e-04 1.105310e-04 1.158056e-04 1.208425e-04 1.253725e-04 1.295202e-04 1.332590e-04 1.365361e-04 1.395506e-04 1.420803e-04 1.445241e-04 1.464992e-04 1.485726e-04 1.502122e-04 1.521173e-04 1.536232e-04 1.555242e-04 1.570468e-04 1.590408e-04 1.606579e-04 1.627612e-04 1.644717e-04 1.666207e-04 1.683514e-04 1.704155e-04 1.720375e-04 1.738410e-04 1.751928e-04 1.765408e-04 1.774539e-04 1.781603e-04 1.784845e-04 1.783977e-04 1.780225e-04 1.770457e-04 1.759167e-04 1.740200e-04 1.721450e-04 1.693679e-04 1.668134e-04 1.632553e-04 1.601326e-04 1.559350e-04 1.523798e-04 1.477025e-04 1.438523e-04 1.388518e-04 1.348278e-04 1.296405e-04 1.255380e-04 1.202737e-04 1.161614e-04 1.109052e-04 1.068331e-04 1.016525e-04 9.766151e-05 9.261547e-05 8.874569e-05 8.389053e-05 8.018607e-05 7.557760e-05 7.208590e-05 6.777776e-05 6.454577e-05 6.058550e-05 5.765435e-05 5.407902e-05 5.147913e-05 4.831198e-05 4.605979e-05 4.330841e-05 4.140510e-05 3.906127e-05 3.749331e-05 3.553416e-05 
4.250452e-05 4.036087e-05 3.902079e-05 3.726896e-05 3.622414e-05 3.479982e-05 3.399113e-05 3.282587e-05 3.219346e-05 3.121884e-05 3.070569e-05 2.985732e-05 2.941260e-05 2.863396e-05 2.821602e-05 2.746171e-05 2.704086e-05 2.627934e-05 2.584046e-05 2.505611e-05 2.460116e-05 2.379616e-05 2.334684e-05 2.254324e-05 2.214405e-05 2.138659e-05 2.110811e-05 2.046807e-05 2.041017e-05 1.998966e-05 2.028342e-05 2.021843e-05 2.102495e-05 2.148432e-05 2.298754e-05 2.416417e-05 2.655506e-05 2.864646e-05 3.209700e-05 3.527438e-05 3.990304e-05 4.427278e-05 5.010742e-05 5.567311e-05 6.262104e-05 6.925752e-05 7.709349e-05 8.454348e-05 9.292336e-05 1.008221e-04 1.093236e-04 1.172493e-04 1.254328e-04 1.329726e-04 1.404488e-04 1.472647e-04 1.537545e-04 1.596344e-04 1.650053e-04 1.698874e-04 1.741613e-04 1.781277e-04 1.814588e-04 1.847014e-04 1.873315e-04 1.901011e-04 1.923040e-04 1.948526e-04 1.968794e-04 1.994102e-04 2.014461e-04 2.040773e-04 2.062157e-04 2.089638e-04 2.111993e-04 2.139807e-04 2.162179e-04 2.188660e-04 2.209410e-04 2.232335e-04 2.249427e-04 2.266348e-04 2.277666e-04 2.286256e-04 2.289926e-04 2.288300e-04 2.282956e-04 2.269929e-04 2.254921e-04 2.230161e-04 2.205633e-04 2.169688e-04 2.136533e-04 2.090711e-04 2.050389e-04 1.996519e-04 1.950784e-04 1.890912e-04 1.841518e-04 1.777614e-04 1.726075e-04 1.659832e-04 1.607308e-04 1.540059e-04 1.487366e-04 1.420133e-04 1.367852e-04 1.301449e-04 1.250067e-04 1.185225e-04 1.135252e-04 1.072696e-04 1.024713e-04 9.651802e-05 9.198254e-05 8.640348e-05 8.219433e-05 7.705336e-05 7.322591e-05 6.857289e-05 6.516784e-05 6.103408e-05 5.807334e-05 5.446958e-05 5.195499e-05 4.887149e-05 4.678594e-05 4.419436e-05 
5.083892e-05 4.814819e-05 4.644780e-05 4.424939e-05 4.292188e-05 4.113516e-05 4.010607e-05 3.864502e-05 3.783875e-05 3.661698e-05 3.596117e-05 3.489698e-05 3.432679e-05 3.334813e-05 3.281019e-05 3.185916e-05 3.131540e-05 3.035199e-05 2.978311e-05 2.878815e-05 2.819693e-05 2.717442e-05 2.658893e-05 2.556834e-05 2.504530e-05 2.408455e-05 2.371288e-05 2.290238e-05 2.280647e-05 2.227385e-05 2.261563e-05 2.252931e-05 2.350680e-05 2.407505e-05 2.591421e-05 2.737520e-05 3.031132e-05 3.290991e-05 3.715644e-05 4.110652e-05 4.681268e-05 5.224910e-05 5.945341e-05 6.638397e-05 7.497610e-05 8.324810e-05 9.295285e-05 1.022480e-04 1.126418e-04 1.225070e-04 1.330681e-04 1.429787e-04 1.531638e-04 1.626062e-04 1.719348e-04 1.804893e-04 1.886171e-04 1.960213e-04 2.027856e-04 2.089636e-04 2.143914e-04 2.194444e-04 2.237241e-04 2.278881e-04 2.313130e-04 2.348937e-04 2.377937e-04 2.410963e-04 2.437708e-04 2.470381e-04 2.497044e-04 2.530741e-04 2.558376e-04 2.593229e-04 2.621698e-04 2.656637e-04 2.684734e-04 2.717695e-04 2.743412e-04 2.771683e-04 2.792557e-04 2.813173e-04 2.826665e-04 2.836827e-04 2.840702e-04 2.838162e-04 2.830812e-04 2.814179e-04 2.794867e-04 2.763796e-04 2.732759e-04 2.687979e-04 2.646365e-04 2.589526e-04 2.539170e-04 2.472544e-04 2.415618e-04 2.341706e-04 2.280346e-04 2.201520e-04 2.137535e-04 2.055790e-04 1.990525e-04 1.907410e-04 1.841788e-04 1.758478e-04 1.693160e-04 1.610620e-04 1.546193e-04 1.465336e-04 1.402463e-04 1.324237e-04 1.263704e-04 1.189099e-04 1.131777e-04 1.061765e-04 1.008512e-04 9.439521e-05 8.955072e-05 8.370625e-05 7.939602e-05 7.420414e-05 7.045627e-05 6.593084e-05 6.274726e-05 5.887579e-05 5.623427e-05 5.298086e-05 
5.863840e-05 5.524033e-05 5.304683e-05 5.024828e-05 4.851036e-05 4.621727e-05 4.484820e-05 4.296068e-05 4.187318e-05 4.029134e-05 3.940269e-05 3.803255e-05 3.726939e-05 3.602867e-05 3.533145e-05 3.415468e-05 3.348177e-05 3.232451e-05 3.165580e-05 3.049751e-05 2.983765e-05 2.868371e-05 2.806520e-05 2.694879e-05 2.643532e-05 2.542024e-05 2.511056e-05 2.429583e-05 2.432793e-05 2.385397e-05 2.440847e-05 2.446297e-05 2.576332e-05 2.658270e-05 2.888808e-05 3.074864e-05 3.433463e-05 3.752750e-05 4.265070e-05 4.743785e-05 5.428530e-05 6.084078e-05 6.947237e-05 7.782153e-05 8.812069e-05 9.809590e-05 1.097466e-04 1.209778e-04 1.334818e-04 1.454312e-04 1.581681e-04 1.702070e-04 1.825261e-04 1.940354e-04 2.053592e-04 2.158311e-04 2.257446e-04 2.348594e-04 2.431650e-04 2.508269e-04 2.575537e-04 2.638791e-04 2.692479e-04 2.745130e-04 2.788679e-04 2.834309e-04 2.871566e-04 2.913726e-04 2.948154e-04 2.989635e-04 3.023703e-04 3.066040e-04 3.100888e-04 3.144149e-04 3.179523e-04 3.222370e-04 3.256784e-04 3.296735e-04 3.327788e-04 3.361628e-04 3.386411e-04 3.410655e-04 3.426197e-04 3.437577e-04 3.441278e-04 3.437196e-04 3.427215e-04 3.406101e-04 3.381640e-04 3.343179e-04 3.304617e-04 3.249779e-04 3.198591e-04 3.129445e-04 3.067920e-04 2.987248e-04 2.918047e-04 2.828864e-04 2.754546e-04 2.659641e-04 2.582304e-04 2.483957e-04 2.405091e-04 2.305009e-04 2.225580e-04 2.125035e-04 2.045717e-04 1.945775e-04 1.867219e-04 1.768949e-04 1.691962e-04 1.596543e-04 1.522135e-04 1.430837e-04 1.360145e-04 1.274226e-04 1.208371e-04 1.128942e-04 1.068880e-04 9.967929e-05 9.432029e-05 8.789821e-05 8.322145e-05 7.760391e-05 7.361147e-05 6.878394e-05 6.544844e-05 6.136832e-05 
6.655049e-05 6.242014e-05 5.971745e-05 5.631246e-05 5.416405e-05 5.137109e-05 4.967189e-05 4.737039e-05 4.601447e-05 4.408333e-05 4.296984e-05 4.129447e-05 4.033351e-05 3.881317e-05 3.793154e-05 3.648613e-05 3.563277e-05 3.420857e-05 3.335937e-05 3.193305e-05 3.109488e-05 2.967588e-05 2.889004e-05 2.752221e-05 2.686768e-05 2.563150e-05 2.522839e-05 2.424507e-05 2.425836e-05 2.369594e-05 2.433868e-05 2.441865e-05 2.595227e-05 2.695211e-05 2.967952e-05 3.192432e-05 3.616935e-05 4.000446e-05 4.607231e-05 5.181262e-05 5.993073e-05 6.779042e-05 7.803891e-05 8.805661e-05 1.003069e-04 1.122897e-04 1.261741e-04 1.396838e-04 1.546148e-04 1.690093e-04 1.842504e-04 1.987763e-04 2.135542e-04 2.274696e-04 2.410982e-04 2.537955e-04 2.657827e-04 2.768808e-04 2.869936e-04 2.963789e-04 3.046518e-04 3.124626e-04 3.191536e-04 3.257150e-04 3.312230e-04 3.369526e-04 3.417186e-04 3.470258e-04 3.514404e-04 3.566408e-04 3.609756e-04 3.662352e-04 3.706062e-04 3.759198e-04 3.802836e-04 3.854845e-04 3.896595e-04 3.944526e-04 3.981571e-04 4.021664e-04 4.050650e-04 4.078881e-04 4.096418e-04 4.109050e-04 4.112199e-04 4.106293e-04 4.093008e-04 4.066841e-04 4.036302e-04 3.989625e-04 3.942393e-04 3.876468e-04 3.814396e-04 3.731761e-04 3.657643e-04 3.561640e-04 3.478659e-04 3.372826e-04 3.283970e-04 3.171494e-04 3.079118e-04 2.962509e-04 2.868192e-04 2.749260e-04 2.653961e-04 2.534036e-04 2.438432e-04 2.318696e-04 2.223537e-04 2.105287e-04 2.011609e-04 1.896366e-04 1.805520e-04 1.694963e-04 1.608470e-04 1.504264e-04 1.423608e-04 1.327209e-04 1.253627e-04 1.166127e-04 1.100478e-04 1.022533e-04 9.652402e-05 8.970627e-05 8.481326e-05 7.895312e-05 7.486100e-05 6.990559e-05 
7.366363e-05 6.857188e-05 6.517026e-05 6.093849e-05 5.819601e-05 5.469499e-05 5.249189e-05 4.958504e-05 4.780203e-05 4.535289e-05 4.387774e-05 4.175804e-05 4.049211e-05 3.859021e-05 3.745484e-05 3.568364e-05 3.462597e-05 3.292922e-05 3.192701e-05 3.028315e-05 2.934839e-05 2.777200e-05 2.695353e-05 2.549555e-05 2.488154e-05 2.363025e-05 2.335118e-05 2.243590e-05 2.266861e-05 2.226698e-05 2.323924e-05 2.358673e-05 2.558021e-05 2.697719e-05 3.032382e-05 3.313137e-05 3.819507e-05 4.280889e-05 4.994414e-05 5.673864e-05 6.622312e-05 7.546837e-05 8.741884e-05 9.918757e-05 1.134817e-04 1.275760e-04 1.438099e-04 1.597382e-04 1.772429e-04 1.942650e-04 2.121893e-04 2.294254e-04 2.468675e-04 2.634449e-04 2.796011e-04 2.948020e-04 3.090945e-04 3.224654e-04 3.346181e-04 3.460192e-04 3.560670e-04 3.656515e-04 3.738872e-04 3.820239e-04 3.888992e-04 3.960608e-04 4.020713e-04 4.087165e-04 4.142943e-04 4.207702e-04 4.262069e-04 4.326864e-04 4.380953e-04 4.445556e-04 4.498703e-04 4.561075e-04 4.611094e-04 4.667784e-04 4.711407e-04 4.758099e-04 4.791502e-04 4.823629e-04 4.842987e-04 4.856347e-04 4.858376e-04 4.849708e-04 4.832168e-04 4.799631e-04 4.761716e-04 4.705195e-04 4.647726e-04 4.568872e-04 4.494196e-04 4.396139e-04 4.307689e-04 4.194449e-04 4.096049e-04 3.971774e-04 3.866897e-04 3.735187e-04 3.626428e-04 3.489968e-04 3.378908e-04 3.239502e-04 3.126975e-04 2.985907e-04 2.872487e-04 2.730978e-04 2.617460e-04 2.477018e-04 2.364677e-04 2.227199e-04 2.117780e-04 1.985421e-04 1.880909e-04 1.755813e-04 1.658125e-04 1.542147e-04 1.452853e-04 1.347367e-04 1.267526e-04 1.173335e-04 1.103447e-04 1.020799e-04 9.608467e-05 8.895050e-05 8.390428e-05 7.783780e-05 
8.087035e-05 7.477323e-05 7.063996e-05 6.556254e-05 6.221503e-05 5.800425e-05 5.529973e-05 5.179373e-05 4.958987e-05 4.662619e-05 4.478852e-05 4.221357e-05 4.062333e-05 3.830293e-05 3.686530e-05 3.469514e-05 3.334698e-05 3.126129e-05 2.997755e-05 2.795443e-05 2.675262e-05 2.481571e-05 2.375862e-05 2.197633e-05 2.117374e-05 1.965846e-05 1.926885e-05 1.817874e-05 1.841159e-05 1.795653e-05 1.907549e-05 1.952670e-05 2.185241e-05 2.355158e-05 2.745957e-05 3.081783e-05 3.672203e-05 4.219514e-05 5.050531e-05 5.853286e-05 6.957937e-05 8.048819e-05 9.442260e-05 1.083139e-04 1.250124e-04 1.416690e-04 1.606762e-04 1.795303e-04 2.000750e-04 2.202590e-04 2.413503e-04 2.618276e-04 2.824124e-04 3.021539e-04 3.212942e-04 3.394548e-04 3.564784e-04 3.725270e-04 3.871146e-04 4.008890e-04 4.130818e-04 4.247608e-04 4.348933e-04 4.449018e-04 4.534846e-04 4.623606e-04 4.699441e-04 4.782009e-04 4.852540e-04 4.932689e-04 5.000945e-04 5.080409e-04 5.147380e-04 5.225668e-04 5.290360e-04 5.364967e-04 5.424752e-04 5.491648e-04 5.542782e-04 5.597045e-04 5.635246e-04 5.671742e-04 5.692782e-04 5.706850e-04 5.707145e-04 5.695228e-04 5.672389e-04 5.632574e-04 5.585868e-04 5.518237e-04 5.448818e-04 5.355500e-04 5.266299e-04 5.151117e-04 5.046297e-04 4.914024e-04 4.798109e-04 4.653520e-04 4.530462e-04 4.377513e-04 4.250063e-04 4.091492e-04 3.961111e-04 3.798590e-04 3.665876e-04 3.500562e-04 3.365955e-04 3.199132e-04 3.063537e-04 2.897050e-04 2.762137e-04 2.598461e-04 2.466577e-04 2.308563e-04 2.182357e-04 2.032825e-04 1.914802e-04 1.776143e-04 1.668302e-04 1.542234e-04 1.445872e-04 1.333357e-04 1.249039e-04 1.150335e-04 1.077985e-04 9.927582e-05 9.317877e-05 8.592516e-05 
8.695146e-05 7.953620e-05 7.441221e-05 6.818682e-05 6.398147e-05 5.877232e-05 5.532366e-05 5.094880e-05 4.809770e-05 4.437582e-05 4.197414e-05 3.873530e-05 3.665477e-05 3.375279e-05 3.189422e-05 2.921893e-05 2.752063e-05 2.500760e-05 2.345156e-05 2.108705e-05 1.970230e-05 1.752299e-05 1.638655e-05 1.447598e-05 1.371291e-05 1.219791e-05 1.198167e-05 1.103228e-05 1.158612e-05 1.142116e-05 1.302134e-05 1.392044e-05 1.690126e-05 1.921996e-05 2.397725e-05 2.815483e-05 3.513684e-05 4.167890e-05 5.134760e-05 6.076472e-05 7.351488e-05 8.621208e-05 1.022539e-04 1.183919e-04 1.376286e-04 1.570031e-04 1.789525e-04 2.009429e-04 2.247454e-04 2.483672e-04 2.728943e-04 2.969510e-04 3.209898e-04 3.442835e-04 3.667476e-04 3.882896e-04 4.083982e-04 4.275631e-04 4.449424e-04 4.615321e-04 4.762217e-04 4.904304e-04 5.028026e-04 5.151038e-04 5.257247e-04 5.367147e-04 5.461867e-04 5.564264e-04 5.652501e-04 5.751388e-04 5.836211e-04 5.933248e-04 6.015432e-04 6.109783e-04 6.187930e-04 6.276565e-04 6.347550e-04 6.425824e-04 6.485383e-04 6.547748e-04 6.591108e-04 6.631864e-04 6.654369e-04 6.668401e-04 6.666149e-04 6.649625e-04 6.620085e-04 6.571069e-04 6.513627e-04 6.432498e-04 6.348764e-04 6.238287e-04 6.131966e-04 5.996857e-04 5.873073e-04 5.719058e-04 5.583227e-04 5.415832e-04 5.272468e-04 5.096000e-04 4.947950e-04 4.765070e-04 4.613495e-04 4.425542e-04 4.270592e-04 4.078410e-04 3.920223e-04 3.725059e-04 3.564598e-04 3.368643e-04 3.208031e-04 3.014439e-04 2.856753e-04 2.669219e-04 2.517924e-04 2.340073e-04 2.198389e-04 2.033246e-04 1.903668e-04 1.753344e-04 1.637429e-04 1.503055e-04 1.401421e-04 1.283247e-04 1.195725e-04 1.093306e-04 1.019133e-04 9.315084e-05 
9.308985e-05 8.428234e-05 7.810684e-05 7.069135e-05 6.559547e-05 5.936745e-05 5.515899e-05 4.990432e-05 4.639444e-05 4.189888e-05 3.891125e-05 3.497304e-05 3.235462e-05 2.879992e-05 2.643274e-05 2.313173e-05 2.094387e-05 1.782369e-05 1.579716e-05 1.284849e-05 1.102308e-05 8.299691e-06 6.773828e-06 4.387533e-06 3.317998e-06 1.432967e-06 1.034036e-06 -1.364317e-07 4.052175e-07 2.132455e-07 2.019257e-06 3.128843e-06 6.577832e-06 9.386647e-06 1.491633e-05 1.991052e-05 2.801492e-05 3.575997e-05 4.695722e-05 5.803848e-05 7.278722e-05 8.768667e-05 1.062511e-04 1.251810e-04 1.474806e-04 1.702300e-04 1.957359e-04 2.216000e-04 2.493348e-04 2.771707e-04 3.058330e-04 3.342405e-04 3.624249e-04 3.899999e-04 4.164482e-04 4.420345e-04 4.658461e-04 4.887173e-04 5.094649e-04 5.293943e-04 5.471253e-04 5.643388e-04 5.794745e-04 5.945122e-04 6.076815e-04 6.212121e-04 6.330685e-04 6.457057e-04 6.567720e-04 6.689336e-04 6.795050e-04 6.913382e-04 7.014521e-04 7.128244e-04 7.222852e-04 7.328267e-04 7.412625e-04 7.504362e-04 7.573660e-04 7.645484e-04 7.694486e-04 7.740108e-04 7.763796e-04 7.777661e-04 7.771884e-04 7.749930e-04 7.712089e-04 7.652432e-04 7.582123e-04 7.485555e-04 7.384963e-04 7.255049e-04 7.128823e-04 6.971357e-04 6.825750e-04 6.647549e-04 6.488968e-04 6.296327e-04 6.129807e-04 5.927241e-04 5.755539e-04 5.545374e-04 5.369091e-04 5.152069e-04 4.970692e-04 4.747203e-04 4.560512e-04 4.331815e-04 4.140967e-04 3.909843e-04 3.717703e-04 3.488343e-04 3.299074e-04 3.076380e-04 2.894587e-04 2.683290e-04 2.513136e-04 2.317073e-04 2.161676e-04 1.983421e-04 1.844617e-04 1.685452e-04 1.563871e-04 1.423977e-04 1.319284e-04 1.198015e-04 1.109190e-04 1.005323e-04 
9.772005e-05 8.710356e-05 7.953059e-05 7.051936e-05 6.419167e-05 5.655256e-05 5.125096e-05 4.474290e-05 4.025587e-05 3.464021e-05 3.077434e-05 2.582956e-05 2.242208e-05 1.796218e-05 1.489438e-05 1.078764e-05 7.995963e-06 4.178416e-06 1.660222e-06 -1.859934e-06 -4.045956e-06 -7.192626e-06 -8.927917e-06 -1.156503e-05 -1.267108e-05 -1.460944e-05 -1.484705e-05 -1.584878e-05 -1.492100e-05 -1.470142e-05 -1.226072e-05 -1.048374e-05 -6.136000e-06 -2.397071e-06 4.305467e-06 1.050521e-05 2.007473e-05 2.933811e-05 4.233595e-05 5.532259e-05 7.228076e-05 8.957493e-05 1.108430e-04 1.327528e-04 1.583094e-04 1.846665e-04 2.139754e-04 2.440284e-04 2.760182e-04 3.084830e-04 3.416836e-04 3.749518e-04 4.077523e-04 4.401941e-04 4.711425e-04 5.014085e-04 5.294620e-04 5.566992e-04 5.813594e-04 6.052918e-04 6.266021e-04 6.474720e-04 6.658957e-04 6.842987e-04 7.005226e-04 7.171898e-04 7.319132e-04 7.475006e-04 7.612607e-04 7.761930e-04 7.892626e-04 8.036558e-04 8.160212e-04 8.296833e-04 8.410826e-04 8.535691e-04 8.635632e-04 8.742600e-04 8.823081e-04 8.905206e-04 8.960484e-04 9.010880e-04 9.035525e-04 9.048199e-04 9.037768e-04 9.008443e-04 8.960251e-04 8.887157e-04 8.801068e-04 8.685558e-04 8.564527e-04 8.411225e-04 8.261169e-04 8.077293e-04 7.905988e-04 7.699772e-04 7.514929e-04 7.293610e-04 7.100889e-04 6.869123e-04 6.671030e-04 6.430529e-04 6.226764e-04 5.977312e-04 5.766347e-04 5.507595e-04 5.288629e-04 5.021752e-04 4.796118e-04 4.524584e-04 4.296057e-04 4.025318e-04 3.799403e-04 3.535831e-04 3.318520e-04 3.068167e-04 2.864748e-04 2.632394e-04 2.446687e-04 2.235414e-04 2.069544e-04 1.880770e-04 1.735331e-04 1.569125e-04 1.443548e-04 1.299013e-04 1.191952e-04 1.067562e-04 
1.023867e-04 8.984089e-05 8.076491e-05 7.007661e-05 6.244654e-05 5.334095e-05 4.689637e-05 3.909050e-05 3.358116e-05 2.679513e-05 2.199325e-05 1.596797e-05 1.168399e-05 6.204213e-06 2.303210e-06 -2.779913e-06 -6.366727e-06 -1.112134e-05 -1.439372e-05 -1.880538e-05 -2.169695e-05 -2.567465e-05 -2.805243e-05 -3.143304e-05 -3.308807e-05 -3.563522e-05 -3.627139e-05 -3.767591e-05 -3.691291e-05 -3.680310e-05 -3.419979e-05 -3.215601e-05 -2.723814e-05 -2.279224e-05 -1.505910e-05 -7.667550e-06 3.427189e-06 1.441287e-05 2.946949e-05 4.477736e-05 6.438824e-05 8.469325e-05 1.092785e-04 1.349682e-04 1.645473e-04 1.954688e-04 2.294703e-04 2.647822e-04 3.020003e-04 3.402188e-04 3.789658e-04 4.182115e-04 4.566246e-04 4.949881e-04 5.313887e-04 5.672943e-04 6.004836e-04 6.329437e-04 6.623561e-04 6.910584e-04 7.167485e-04 7.419769e-04 7.644665e-04 7.868979e-04 8.069414e-04 8.273880e-04 8.457263e-04 8.648917e-04 8.820589e-04 9.003656e-04 9.165853e-04 9.340994e-04 9.492770e-04 9.657234e-04 9.795075e-04 9.943459e-04 1.006217e-03 1.018740e-03 1.028095e-03 1.037530e-03 1.043750e-03 1.049346e-03 1.051857e-03 1.052973e-03 1.051312e-03 1.047505e-03 1.041405e-03 1.032521e-03 1.022009e-03 1.008260e-03 9.937287e-04 9.757136e-04 9.579131e-04 9.365303e-04 9.164215e-04 8.926606e-04 8.711612e-04 8.458386e-04 8.235639e-04 7.971275e-04 7.742632e-04 7.467720e-04 7.231494e-04 6.944403e-04 6.697710e-04 6.397170e-04 6.138614e-04 5.825895e-04 5.557297e-04 5.237022e-04 4.963583e-04 4.643054e-04 4.372176e-04 4.059775e-04 3.799293e-04 3.502773e-04 3.259379e-04 2.984658e-04 2.762989e-04 2.513696e-04 2.316145e-04 2.093770e-04 1.920807e-04 1.725185e-04 1.575891e-04 1.405745e-04 1.278324e-04 1.131697e-04 
1.051429e-04 9.012004e-05 7.908461e-05 6.618175e-05 5.679351e-05 4.569474e-05 3.765456e-05 2.804077e-05 2.106928e-05 1.263245e-05 6.486337e-06 -1.047929e-06 -6.556050e-06 -1.340115e-05 -1.838639e-05 -2.467327e-05 -2.917549e-05 -3.494866e-05 -3.894645e-05 -4.417791e-05 -4.760627e-05 -5.220987e-05 -5.495696e-05 -5.878133e-05 -6.065295e-05 -6.345269e-05 -6.412791e-05 -6.554252e-05 -6.456503e-05 -6.413659e-05 -6.096279e-05 -5.818603e-05 -5.225832e-05 -4.661586e-05 -3.739940e-05 -2.833902e-05 -1.529121e-05 -2.160859e-06 1.532229e-05 3.329725e-05 5.586083e-05 7.946345e-05 1.076286e-04 1.373807e-04 1.712655e-04 2.071003e-04 2.461582e-04 2.872027e-04 3.301325e-04 3.747310e-04 4.196344e-04 4.656296e-04 5.103721e-04 5.555440e-04 5.981859e-04 6.406914e-04 6.798421e-04 7.185195e-04 7.535180e-04 7.879872e-04 8.188806e-04 8.494438e-04 8.768020e-04 9.042011e-04 9.288383e-04 9.539521e-04 9.766432e-04 1.000208e-03 1.021472e-03 1.043893e-03 1.063888e-03 1.085163e-03 1.103699e-03 1.123457e-03 1.140078e-03 1.157671e-03 1.171766e-03 1.186390e-03 1.197288e-03 1.208085e-03 1.215115e-03 1.221270e-03 1.223817e-03 1.224645e-03 1.222215e-03 1.217256e-03 1.209576e-03 1.198705e-03 1.185846e-03 1.169375e-03 1.151861e-03 1.130567e-03 1.109360e-03 1.084377e-03 1.060688e-03 1.033224e-03 1.008165e-03 9.791476e-04 9.533926e-04 9.232302e-04 8.968654e-04 8.654544e-04 8.381183e-04 8.051025e-04 7.763274e-04 7.414611e-04 7.110331e-04 6.744583e-04 6.426239e-04 6.049471e-04 5.724012e-04 5.345740e-04 5.022808e-04 4.653731e-04 4.343261e-04 3.993033e-04 3.703267e-04 3.379040e-04 3.115475e-04 2.821436e-04 2.586706e-04 2.324380e-04 2.118758e-04 1.887686e-04 1.709809e-04 1.508264e-04 1.355794e-04 1.181324e-04 
1.080029e-04 9.031464e-05 7.714708e-05 6.188762e-05 5.061186e-05 3.740943e-05 2.767197e-05 1.615719e-05 7.635884e-06 -2.538201e-06 -1.010995e-05 -1.923681e-05 -2.604325e-05 -3.433062e-05 -4.046069e-05 -4.801840e-05 -5.348597e-05 -6.035108e-05 -6.514806e-05 -7.133398e-05 -7.547566e-05 -8.099410e-05 -8.449484e-05 -8.930109e-05 -9.206001e-05 -9.593698e-05 -9.760109e-05 -1.000721e-04 -9.999246e-05 -1.003515e-04 -9.768949e-05 -9.514241e-05 -8.906023e-05 -8.286863e-05 -7.266284e-05 -6.217324e-05 -4.725964e-05 -3.180547e-05 -1.160186e-05 9.599244e-06 3.573465e-05 6.352164e-05 9.615642e-05 1.311368e-04 1.704420e-04 2.125849e-04 2.579918e-04 3.063271e-04 3.563797e-04 4.089948e-04 4.615149e-04 5.158830e-04 5.683980e-04 6.219111e-04 6.721737e-04 7.226753e-04 7.690866e-04 8.152321e-04 8.570453e-04 8.984090e-04 9.356886e-04 9.726296e-04 1.006018e-03 1.039381e-03 1.069764e-03 1.100519e-03 1.128697e-03 1.157617e-03 1.184062e-03 1.211516e-03 1.236278e-03 1.262167e-03 1.284912e-03 1.308729e-03 1.328861e-03 1.349822e-03 1.366621e-03 1.383801e-03 1.396524e-03 1.408969e-03 1.416907e-03 1.423732e-03 1.426242e-03 1.426718e-03 1.423290e-03 1.416949e-03 1.407310e-03 1.394074e-03 1.378361e-03 1.358672e-03 1.337570e-03 1.312441e-03 1.287182e-03 1.258039e-03 1.230135e-03 1.198440e-03 1.169217e-03 1.135997e-03 1.106150e-03 1.071705e-03 1.041149e-03 1.005132e-03 9.732462e-04 9.350577e-04 9.011756e-04 8.604639e-04 8.243355e-04 7.813226e-04 7.433332e-04 6.988550e-04 6.599521e-04 6.152545e-04 5.766830e-04 5.331139e-04 4.961084e-04 4.548441e-04 4.203950e-04 3.822777e-04 3.510200e-04 3.165191e-04 2.887339e-04 2.579956e-04 2.336814e-04 2.066187e-04 1.855837e-04 1.619660e-04 1.439104e-04 1.234301e-04 