# vtk DataFile Version 2.0
Comment goes here
ASCII

DATASET STRUCTURED_POINTS
FIELD FieldData 1
TIME 1 1 double
0.22500000
DIMENSIONS    128   128   1

ORIGIN    0.000   0.000   0.000
SPACING   0.039062 0.039062   1.000

POINT_DATA   16384
SCALARS Omega double
LOOKUP_TABLE default

-4.424486e-15 -4.200150e-15 -6.619033e-15 -9.219359e-15 3.590573e-16 1.590562e-14 1.395058e-14 2.336803e-14 1.552148e-14 5.745319e-15 9.468451e-15 1.386211e-14 -1.055116e-15 4.140412e-15 9.936838e-15 1.219932e-14 -9.362525e-15 -4.676373e-15 -8.454188e-15 -3.623174e-14 -3.882189e-14 -4.251046e-14 -2.896987e-14 -2.168392e-14 -1.050883e-14 -2.679624e-14 -6.745440e-16 1.324486e-14 -6.211910e-15 -1.039678e-15 4.189996e-14 -2.495840e-14 -6.431402e-14 -4.787087e-14 -3.713715e-14 -4.731884e-14 -4.981296e-14 -4.493221e-14 -1.483483e-14 -3.935198e-14 -2.019724e-14 -2.312482e-14 -9.291135e-15 -3.658007e-14 -1.930369e-15 -2.778515e-14 9.941649e-15 6.920047e-15 2.037633e-14 3.810016e-16 1.191712e-14 -2.944940e-15 1.003588e-14 1.192981e-14 2.831612e-14 2.351173e-14 3.507721e-14 6.147017e-14 4.971841e-14 2.316772e-14 3.428695e-14 3.673954e-14 2.498291e-14 2.151455e-14 2.137636e-14 2.907099e-15 1.503384e-14 1.780006e-14 3.113280e-14 -3.603754e-14 2.819680e-15 -1.156080e-14 -4.257524e-14 -1.976767e-15 1.213239e-14 -1.844153e-14 -4.507306e-14 -2.007264e-15 -3.335644e-14 -4.092542e-14 9.398579e-15 8.613179e-15 6.731949e-15 -8.309837e-16 1.585279e-14 -1.159128e-14 7.963335e-15 1.240151e-14 1.523681e-14 6.174196e-14 6.881945e-14 4.410434e-14 7.535948e-14 1.456890e-14 -7.728868e-15 -1.410609e-14 1.690957e-14 -1.955650e-14 5.237867e-15 -3.699996e-15 -4.527078e-14 -1.596741e-14 -6.754889e-15 1.976510e-14 1.441074e-14 9.925598e-15 4.433664e-15 3.190438e-15 -5.776675e-15 -7.996020e-15 -1.764926e-14 -1.618047e-14 -2.341868e-14 -3.324022e-14 -2.083155e-14 -2.276029e-14 -1.719316e-14 -1.210127e-14 -1.024123e-14 -1.902091e-15 7.247077e-15 6.970026e-15 9.976628e-16 -1.026969e-15 -9.161029e-15 -6.281799e-15 -1.670075e-15 -3.763769e-15 
8.527367e-06 8.203909e-06 7.954291e-06 7.712650e-06 7.502951e-06 7.335552e-06 7.148920e-06 7.046938e-06 6.866632e-06 6.820671e-06 6.631061e-06 6.631770e-06 6.419317e-06 6.457884e-06 6.212054e-06 6.280606e-06 5.994705e-06 6.086618e-06 5.758527e-06 5.868731e-06 5.501560e-06 5.626935e-06 5.229594e-06 5.369577e-06 4.957280e-06 5.114757e-06 4.709428e-06 4.891886e-06 4.522339e-06 4.743103e-06 4.444760e-06 4.723884e-06 4.537662e-06 4.901883e-06 4.871796e-06 5.352878e-06 5.521997e-06 6.152966e-06 6.557694e-06 7.367000e-06 8.030211e-06 9.034576e-06 9.958864e-06 1.115640e-05 1.231918e-05 1.368475e-05 1.503710e-05 1.652182e-05 1.799211e-05 1.952790e-05 2.103046e-05 2.253924e-05 2.398645e-05 2.539226e-05 2.670779e-05 2.794906e-05 2.907919e-05 3.011830e-05 3.103890e-05 3.186698e-05 3.258474e-05 3.322072e-05 3.376860e-05 3.425305e-05 3.468134e-05 3.506685e-05 3.543200e-05 3.577218e-05 3.612577e-05 3.646539e-05 3.684515e-05 3.721286e-05 3.763715e-05 3.804177e-05 3.850772e-05 3.893826e-05 3.942326e-05 3.985200e-05 4.031793e-05 4.070574e-05 4.110490e-05 4.140783e-05 4.168981e-05 4.186594e-05 4.198454e-05 4.200016e-05 4.191967e-05 4.175399e-05 4.145385e-05 4.110156e-05 4.057886e-05 4.005004e-05 3.931936e-05 3.863680e-05 3.772736e-05 3.692194e-05 3.587268e-05 3.497788e-05 3.383164e-05 3.287844e-05 3.167660e-05 3.069017e-05 2.946875e-05 2.846731e-05 2.725529e-05 2.625114e-05 2.507062e-05 2.407243e-05 2.294005e-05 2.195550e-05 2.088419e-05 1.992190e-05 1.892232e-05 1.799276e-05 1.707392e-05 1.618921e-05 1.535848e-05 1.453132e-05 1.379391e-05 1.303628e-05 1.239454e-05 1.171644e-05 1.116933e-05 1.057781e-05 1.012063e-05 9.619332e-06 9.243764e-06 8.832876e-06 
1.703537e-05 1.638367e-05 1.588097e-05 1.539638e-05 1.497624e-05 1.464316e-05 1.427117e-05 1.407130e-05 1.371307e-05 1.362679e-05 1.324998e-05 1.325757e-05 1.283391e-05 1.291665e-05 1.242390e-05 1.256497e-05 1.198873e-05 1.217397e-05 1.150930e-05 1.172796e-05 1.098083e-05 1.122648e-05 1.041501e-05 1.068680e-05 9.842283e-06 1.014670e-05 9.314325e-06 9.667447e-06 8.906545e-06 9.336374e-06 8.719678e-06 9.267810e-06 8.879055e-06 9.600483e-06 9.529465e-06 1.048916e-05 1.082353e-05 1.208884e-05 1.290252e-05 1.453135e-05 1.587069e-05 1.789700e-05 1.976715e-05 2.218706e-05 2.454205e-05 2.730447e-05 3.004487e-05 3.305048e-05 3.603093e-05 3.914146e-05 4.218817e-05 4.524518e-05 4.818059e-05 5.103005e-05 5.369956e-05 5.621669e-05 5.851166e-05 6.062036e-05 6.249210e-05 6.417450e-05 6.563662e-05 6.693110e-05 6.805023e-05 6.903884e-05 6.991645e-05 7.070530e-05 7.145509e-05 7.215226e-05 7.287787e-05 7.357331e-05 7.435041e-05 7.510142e-05 7.596658e-05 7.679050e-05 7.773758e-05 7.861185e-05 7.959516e-05 8.046367e-05 8.140647e-05 8.219034e-05 8.299676e-05 8.360752e-05 8.417636e-05 8.452976e-05 8.476829e-05 8.479670e-05 8.463324e-05 8.429512e-05 8.368842e-05 8.297344e-05 8.191779e-05 8.084664e-05 7.937153e-05 7.799056e-05 7.615493e-05 7.452669e-05 7.240905e-05 7.060110e-05 6.828770e-05 6.636233e-05 6.393623e-05 6.194372e-05 5.947713e-05 5.745359e-05 5.500445e-05 5.297406e-05 5.058655e-05 4.856643e-05 4.627397e-05 4.427952e-05 4.210842e-05 4.015734e-05 3.812956e-05 3.624357e-05 3.437800e-05 3.258223e-05 3.089449e-05 2.921532e-05 2.771657e-05 2.617882e-05 2.487441e-05 2.349870e-05 2.238697e-05 2.118787e-05 2.025963e-05 1.924471e-05 1.848336e-05 1.765307e-05 
2.548764e-05 2.446655e-05 2.367760e-05 2.290925e-05 2.224553e-05 2.170709e-05 2.111721e-05 2.078215e-05 2.021497e-05 2.005513e-05 1.946284e-05 1.945022e-05 1.879133e-05 1.889959e-05 1.814176e-05 1.834736e-05 1.747001e-05 1.775311e-05 1.674972e-05 1.709499e-05 1.597505e-05 1.637276e-05 1.516347e-05 1.561121e-05 1.435889e-05 1.486416e-05 1.363536e-05 1.421910e-05 1.310108e-05 1.380159e-05 1.290151e-05 1.377755e-05 1.321929e-05 1.435042e-05 1.426763e-05 1.574972e-05 1.627383e-05 1.820800e-05 1.945094e-05 2.192579e-05 2.395897e-05 2.702840e-05 2.986168e-05 3.352318e-05 3.708940e-05 4.126917e-05 4.542003e-05 4.997080e-05 5.448794e-05 5.920268e-05 6.382404e-05 6.846426e-05 7.292159e-05 7.725465e-05 8.131419e-05 8.515115e-05 8.864850e-05 9.187366e-05 9.473508e-05 9.732052e-05 9.956633e-05 1.015689e-04 1.032992e-04 1.048414e-04 1.062087e-04 1.074489e-04 1.086235e-04 1.097229e-04 1.108595e-04 1.119516e-04 1.131623e-04 1.143314e-04 1.156696e-04 1.169400e-04 1.183948e-04 1.197311e-04 1.212326e-04 1.225497e-04 1.239819e-04 1.251608e-04 1.263793e-04 1.272876e-04 1.281404e-04 1.286522e-04 1.290006e-04 1.290156e-04 1.287525e-04 1.282099e-04 1.272745e-04 1.261608e-04 1.245456e-04 1.228943e-04 1.206452e-04 1.185280e-04 1.157351e-04 1.132479e-04 1.100304e-04 1.072758e-04 1.037642e-04 1.008355e-04 9.715466e-05 9.412630e-05 9.038418e-05 8.730867e-05 8.359134e-05 8.050321e-05 7.687624e-05 7.379993e-05 7.031321e-05 6.727150e-05 6.396488e-05 6.098491e-05 5.789226e-05 5.500783e-05 5.215867e-05 4.940896e-05 4.682783e-05 4.425374e-05 4.195823e-05 3.959790e-05 3.759643e-05 3.548128e-05 3.377139e-05 3.192337e-05 3.049105e-05 2.892136e-05 2.774136e-05 2.645052e-05 
3.387192e-05 3.246608e-05 3.137967e-05 3.032289e-05 2.941277e-05 2.867362e-05 2.786925e-05 2.741099e-05 2.664172e-05 2.642508e-05 2.562431e-05 2.560991e-05 2.471922e-05 2.486972e-05 2.384304e-05 2.412487e-05 2.293225e-05 2.331707e-05 2.194822e-05 2.241426e-05 2.088142e-05 2.141509e-05 1.975550e-05 2.035368e-05 1.863142e-05 1.930491e-05 1.761213e-05 1.839016e-05 1.684738e-05 1.778275e-05 1.653742e-05 1.771057e-05 1.693257e-05 1.845223e-05 1.832445e-05 2.032177e-05 2.102398e-05 2.363777e-05 2.532332e-05 2.867595e-05 3.144317e-05 3.561018e-05 3.947354e-05 4.445361e-05 4.932232e-05 5.501644e-05 6.068858e-05 6.689680e-05 7.307436e-05 7.951441e-05 8.583957e-05 9.218574e-05 9.829226e-05 1.042267e-04 1.097957e-04 1.150602e-04 1.198678e-04 1.243045e-04 1.282506e-04 1.318210e-04 1.349334e-04 1.377145e-04 1.401291e-04 1.422866e-04 1.442096e-04 1.459574e-04 1.476181e-04 1.491727e-04 1.507783e-04 1.523181e-04 1.540179e-04 1.556542e-04 1.575174e-04 1.592803e-04 1.612903e-04 1.631300e-04 1.651911e-04 1.669911e-04 1.689464e-04 1.705459e-04 1.722013e-04 1.734220e-04 1.745737e-04 1.752469e-04 1.757090e-04 1.757012e-04 1.753306e-04 1.745620e-04 1.732776e-04 1.717325e-04 1.695258e-04 1.672521e-04 1.641861e-04 1.612835e-04 1.574814e-04 1.540814e-04 1.497053e-04 1.459474e-04 1.411735e-04 1.371833e-04 1.321792e-04 1.280549e-04 1.229646e-04 1.187737e-04 1.137111e-04 1.094971e-04 1.045490e-04 1.003428e-04 9.557602e-05 9.140790e-05 8.687717e-05 8.278528e-05 7.853858e-05 7.457138e-05 7.065160e-05 6.686536e-05 6.330879e-05 5.976196e-05 5.659509e-05 5.334179e-05 5.057803e-05 4.766250e-05 4.529986e-05 4.275277e-05 4.077304e-05 3.860998e-05 3.697933e-05 3.520111e-05 
4.213444e-05 4.025910e-05 3.880687e-05 3.737736e-05 3.615237e-05 3.513008e-05 3.404368e-05 3.338417e-05 3.234799e-05 3.200430e-05 3.093542e-05 3.086111e-05 2.968730e-05 2.983883e-05 2.850364e-05 2.884220e-05 2.730967e-05 2.780251e-05 2.606128e-05 2.668275e-05 2.474947e-05 2.548248e-05 2.340442e-05 2.424280e-05 2.209988e-05 2.305251e-05 2.095868e-05 2.205544e-05 2.015911e-05 2.145808e-05 1.994092e-05 2.153483e-05 2.060693e-05 2.262567e-05 2.251480e-05 2.511964e-05 2.605199e-05 2.941805e-05 3.158926e-05 3.587526e-05 3.941389e-05 4.472273e-05 4.965258e-05 5.599140e-05 6.220283e-05 6.945449e-05 7.669549e-05 8.461274e-05 9.250727e-05 1.007356e-04 1.088297e-04 1.169567e-04 1.247846e-04 1.324060e-04 1.395618e-04 1.463481e-04 1.525466e-04 1.582951e-04 1.634087e-04 1.680685e-04 1.721323e-04 1.757982e-04 1.789834e-04 1.818622e-04 1.844281e-04 1.867864e-04 1.890199e-04 1.911267e-04 1.932854e-04 1.953604e-04 1.976273e-04 1.998051e-04 2.022623e-04 2.045758e-04 2.071976e-04 2.095797e-04 2.122424e-04 2.145441e-04 2.170487e-04 2.190669e-04 2.211691e-04 2.226804e-04 2.241247e-04 2.249196e-04 2.254740e-04 2.253881e-04 2.248749e-04 2.238127e-04 2.221328e-04 2.200803e-04 2.172263e-04 2.142501e-04 2.103056e-04 2.065377e-04 2.016617e-04 1.972729e-04 1.916729e-04 1.868414e-04 1.807409e-04 1.756239e-04 1.692334e-04 1.639506e-04 1.574485e-04 1.520790e-04 1.456053e-04 1.401978e-04 1.338588e-04 1.284484e-04 1.223273e-04 1.169515e-04 1.111188e-04 1.058277e-04 1.003471e-04 9.520631e-05 9.013615e-05 8.522138e-05 8.061140e-05 7.600070e-05 7.188731e-05 6.765184e-05 6.405359e-05 6.025055e-05 5.716540e-05 5.383368e-05 5.123829e-05 4.839710e-05 4.624809e-05 4.389782e-05 
5.025057e-05 4.787672e-05 4.603712e-05 4.422449e-05 4.267781e-05 4.137830e-05 4.001407e-05 3.917211e-05 3.787939e-05 3.743591e-05 3.610962e-05 3.600570e-05 3.455327e-05 3.473323e-05 3.308128e-05 3.349523e-05 3.159600e-05 3.220178e-05 3.003890e-05 3.080373e-05 2.839687e-05 2.929921e-05 2.670752e-05 2.773986e-05 2.506417e-05 2.623771e-05 2.362157e-05 2.497303e-05 2.260252e-05 2.420269e-05 2.230416e-05 2.426600e-05 2.310000e-05 2.558231e-05 2.543077e-05 2.863224e-05 2.977549e-05 3.391417e-05 3.659591e-05 4.187227e-05 4.625451e-05 5.280204e-05 5.891787e-05 6.675223e-05 7.446903e-05 8.345093e-05 9.245834e-05 1.022850e-04 1.121173e-04 1.223503e-04 1.324440e-04 1.425716e-04 1.523482e-04 1.618677e-04 1.708234e-04 1.793251e-04 1.871071e-04 1.943385e-04 2.007898e-04 2.066868e-04 2.118508e-04 2.165293e-04 2.206172e-04 2.243300e-04 2.276587e-04 2.307306e-04 2.336489e-04 2.364055e-04 2.392235e-04 2.419278e-04 2.448630e-04 2.476727e-04 2.508184e-04 2.537667e-04 2.570859e-04 2.600853e-04 2.634236e-04 2.662887e-04 2.694023e-04 2.718843e-04 2.744765e-04 2.763041e-04 2.780661e-04 2.789869e-04 2.796391e-04 2.794569e-04 2.787857e-04 2.773896e-04 2.752774e-04 2.726572e-04 2.690984e-04 2.653428e-04 2.604435e-04 2.557216e-04 2.496802e-04 2.442069e-04 2.372799e-04 2.312757e-04 2.237372e-04 2.173925e-04 2.094970e-04 2.029516e-04 1.949119e-04 1.882533e-04 1.802341e-04 1.735131e-04 1.656394e-04 1.588931e-04 1.512652e-04 1.445386e-04 1.372452e-04 1.306042e-04 1.237292e-04 1.172612e-04 1.108838e-04 1.046903e-04 9.887910e-05 9.306349e-05 8.786942e-05 8.252465e-05 7.797478e-05 7.317443e-05 6.926872e-05 6.506206e-05 6.177299e-05 5.818388e-05 5.545848e-05 5.248708e-05 
5.815975e-05 5.515391e-05 5.281926e-05 5.049001e-05 4.851320e-05 4.680484e-05 4.505498e-05 4.390440e-05 4.225055e-05 4.159188e-05 3.991059e-05 3.967922e-05 3.786236e-05 3.799828e-05 3.596106e-05 3.641129e-05 3.409976e-05 3.481987e-05 3.221751e-05 3.317251e-05 3.030526e-05 3.147061e-05 2.841023e-05 2.977413e-05 2.664000e-05 2.820822e-05 2.516793e-05 2.697205e-05 2.424096e-05 2.634958e-05 2.418879e-05 2.671940e-05 2.543006e-05 2.855660e-05 2.846701e-05 3.241635e-05 3.385706e-05 3.888726e-05 4.215090e-05 4.850808e-05 5.379548e-05 6.165326e-05 6.901480e-05 7.840977e-05 8.769815e-05 9.848097e-05 1.093337e-04 1.211552e-04 1.330195e-04 1.453625e-04 1.575648e-04 1.698187e-04 1.816650e-04 1.932265e-04 2.041120e-04 2.144872e-04 2.239885e-04 2.328715e-04 2.408002e-04 2.481099e-04 2.545176e-04 2.603873e-04 2.655241e-04 2.702490e-04 2.744887e-04 2.784474e-04 2.821978e-04 2.857671e-04 2.893867e-04 2.928671e-04 2.966021e-04 3.001683e-04 3.041179e-04 3.077979e-04 3.119086e-04 3.155905e-04 3.196735e-04 3.231334e-04 3.268983e-04 3.298414e-04 3.329390e-04 3.350476e-04 3.371166e-04 3.380981e-04 3.388130e-04 3.384437e-04 3.375576e-04 3.357165e-04 3.330964e-04 3.297832e-04 3.254295e-04 3.207630e-04 3.148092e-04 3.090025e-04 3.016918e-04 2.950101e-04 2.866524e-04 2.793616e-04 2.702832e-04 2.626059e-04 2.531049e-04 2.451959e-04 2.355159e-04 2.274642e-04 2.177907e-04 2.096425e-04 2.001164e-04 1.919072e-04 1.826453e-04 1.744280e-04 1.655394e-04 1.573984e-04 1.489917e-04 1.410417e-04 1.332212e-04 1.255945e-04 1.184512e-04 1.112801e-04 1.048813e-04 9.828223e-05 9.266359e-05 8.672639e-05 8.188853e-05 7.667138e-05 7.258057e-05 6.811009e-05 6.470169e-05 6.097613e-05 
6.579476e-05 6.210874e-05 5.924243e-05 5.637618e-05 5.395482e-05 5.184158e-05 4.970836e-05 4.827252e-05 4.626935e-05 4.543162e-05 4.340777e-05 4.308981e-05 4.091158e-05 4.104006e-05 3.860094e-05 3.911087e-05 3.634162e-05 3.717865e-05 3.405628e-05 3.517823e-05 3.173285e-05 3.311096e-05 2.943004e-05 3.105118e-05 2.728103e-05 2.915256e-05 2.549767e-05 2.765603e-05 2.437676e-05 2.690002e-05 2.430874e-05 2.733076e-05 2.578482e-05 2.950587e-05 2.939336e-05 3.407861e-05 3.579114e-05 4.174786e-05 4.563502e-05 5.316282e-05 5.946887e-05 6.878684e-05 7.757958e-05 8.874617e-05 9.985787e-05 1.127084e-04 1.257121e-04 1.398390e-04 1.540772e-04 1.688668e-04 1.835348e-04 1.982576e-04 2.125257e-04 2.264589e-04 2.396048e-04 2.521563e-04 2.636759e-04 2.744785e-04 2.841493e-04 2.931044e-04 3.009890e-04 3.082522e-04 3.146462e-04 3.205631e-04 3.259046e-04 3.309158e-04 3.356777e-04 3.402173e-04 3.448095e-04 3.492182e-04 3.539154e-04 3.583835e-04 3.632877e-04 3.678342e-04 3.728713e-04 3.773543e-04 3.822969e-04 3.864480e-04 3.909554e-04 3.944289e-04 3.980964e-04 4.005238e-04 4.029358e-04 4.039818e-04 4.047648e-04 4.041769e-04 4.030494e-04 4.006971e-04 3.975099e-04 3.934064e-04 3.881673e-04 3.824671e-04 3.753409e-04 3.683099e-04 3.595902e-04 3.515525e-04 3.416092e-04 3.328824e-04 3.220989e-04 3.129390e-04 3.016581e-04 2.922315e-04 2.807256e-04 2.711158e-04 2.595873e-04 2.498288e-04 2.384317e-04 2.285546e-04 2.174229e-04 2.074890e-04 1.967574e-04 1.868762e-04 1.766856e-04 1.670088e-04 1.574986e-04 1.481999e-04 1.394928e-04 1.307433e-04 1.229302e-04 1.148771e-04 1.080073e-04 1.007616e-04 9.483903e-05 8.847028e-05 8.345598e-05 7.799455e-05 7.381172e-05 6.925371e-05 
7.311347e-05 6.855690e-05 6.500516e-05 6.140995e-05 5.838810e-05 5.567844e-05 5.300514e-05 5.109749e-05 4.859064e-05 4.739948e-05 4.488616e-05 4.432903e-05 4.165668e-05 4.165849e-05 3.870697e-05 3.920301e-05 3.589643e-05 3.683403e-05 3.315097e-05 3.448950e-05 3.047031e-05 3.218066e-05 2.793112e-05 2.999625e-05 2.568766e-05 2.810659e-05 2.397340e-05 2.677069e-05 2.310678e-05 2.634811e-05 2.350250e-05 2.731428e-05 2.568507e-05 3.027192e-05 3.029393e-05 3.594363e-05 3.806190e-05 4.512485e-05 4.974589e-05 5.858022e-05 6.599923e-05 7.688397e-05 8.719872e-05 1.002338e-04 1.132696e-04 1.282945e-04 1.435700e-04 1.601332e-04 1.768908e-04 1.942896e-04 2.115926e-04 2.289796e-04 2.458579e-04 2.623866e-04 2.779952e-04 2.929692e-04 3.067189e-04 3.197036e-04 3.313354e-04 3.422089e-04 3.517953e-04 3.607300e-04 3.686118e-04 3.759978e-04 3.826746e-04 3.890078e-04 3.950131e-04 4.007765e-04 4.065643e-04 4.121291e-04 4.179937e-04 4.235567e-04 4.295938e-04 4.351567e-04 4.412639e-04 4.466488e-04 4.525553e-04 4.574468e-04 4.627595e-04 4.667605e-04 4.710198e-04 4.737140e-04 4.764517e-04 4.774649e-04 4.782629e-04 4.773198e-04 4.758655e-04 4.728338e-04 4.689669e-04 4.638830e-04 4.576247e-04 4.506908e-04 4.422452e-04 4.337924e-04 4.235120e-04 4.139335e-04 4.022550e-04 3.919247e-04 3.792909e-04 3.684956e-04 3.552904e-04 3.441983e-04 3.307157e-04 3.193912e-04 3.058425e-04 2.942971e-04 2.808443e-04 2.690973e-04 2.558923e-04 2.440165e-04 2.312254e-04 2.193635e-04 2.071688e-04 1.955201e-04 1.841055e-04 1.728949e-04 1.624212e-04 1.518646e-04 1.424494e-04 1.327272e-04 1.244326e-04 1.156752e-04 1.085057e-04 1.007909e-04 9.469799e-05 8.805561e-05 8.294643e-05 7.736691e-05 
7.996334e-05 7.446031e-05 7.016399e-05 6.580249e-05 6.215212e-05 5.884246e-05 5.562468e-05 5.326864e-05 5.026732e-05 4.876409e-05 4.577147e-05 4.502323e-05 4.185328e-05 4.177034e-05 3.827400e-05 3.877908e-05 3.486005e-05 3.589101e-05 3.151978e-05 3.303040e-05 2.825438e-05 3.021373e-05 2.516197e-05 2.755414e-05 2.243634e-05 2.526328e-05 2.036435e-05 2.365457e-05 1.932664e-05 2.315131e-05 1.980544e-05 2.430075e-05 2.239852e-05 2.778843e-05 2.782948e-05 3.443684e-05 3.693299e-05 4.516226e-05 5.058629e-05 6.086411e-05 6.956765e-05 8.224091e-05 9.435203e-05 1.095650e-04 1.248946e-04 1.424850e-04 1.604809e-04 1.799371e-04 1.997159e-04 2.202209e-04 2.406834e-04 2.612417e-04 2.812474e-04 3.008611e-04 3.194179e-04 3.372647e-04 3.536846e-04 3.692514e-04 3.832349e-04 3.963756e-04 4.080105e-04 4.189223e-04 4.286042e-04 4.377337e-04 4.460352e-04 4.539451e-04 4.614682e-04 4.686991e-04 4.759450e-04 4.829013e-04 4.901818e-04 4.970640e-04 5.044629e-04 5.112483e-04 5.186281e-04 5.250942e-04 5.321338e-04 5.379094e-04 5.441589e-04 5.487884e-04 5.537302e-04 5.567437e-04 5.598549e-04 5.608362e-04 5.616520e-04 5.603011e-04 5.584762e-04 5.546604e-04 5.500227e-04 5.438071e-04 5.363939e-04 5.280386e-04 5.180998e-04 5.080159e-04 4.959737e-04 4.846387e-04 4.710071e-04 4.588619e-04 4.441500e-04 4.315127e-04 4.161455e-04 4.031767e-04 3.874627e-04 3.741930e-04 3.583427e-04 3.447462e-04 3.289236e-04 3.150019e-04 2.993773e-04 2.852178e-04 2.699977e-04 2.557889e-04 2.412127e-04 2.272195e-04 2.135318e-04 2.000484e-04 1.874635e-04 1.747660e-04 1.634391e-04 1.517512e-04 1.417640e-04 1.312417e-04 1.226018e-04 1.133332e-04 1.059827e-04 9.799734e-05 9.182580e-05 8.510693e-05 
8.636697e-05 7.965825e-05 7.440749e-05 6.901557e-05 6.452187e-05 6.034468e-05 5.636353e-05 5.329326e-05 4.957790e-05 4.750749e-05 4.382140e-05 4.265055e-05 3.878305e-05 3.842373e-05 3.420818e-05 3.458884e-05 2.992137e-05 3.098857e-05 2.584444e-05 2.756137e-05 2.200575e-05 2.434818e-05 1.853962e-05 2.149205e-05 1.567859e-05 1.923452e-05 1.374425e-05 1.791444e-05 1.314353e-05 1.797473e-05 1.437650e-05 1.998035e-05 1.805720e-05 2.464356e-05 2.493877e-05 3.283947e-05 3.591709e-05 4.557823e-05 5.197393e-05 6.389539e-05 7.402644e-05 8.864362e-05 1.026870e-04 1.202186e-04 1.379920e-04 1.583046e-04 1.792016e-04 2.017462e-04 2.247653e-04 2.486220e-04 2.724999e-04 2.965256e-04 3.199443e-04 3.429825e-04 3.647948e-04 3.858879e-04 4.053000e-04 4.238465e-04 4.405155e-04 4.563368e-04 4.703645e-04 4.836741e-04 4.955096e-04 5.068019e-04 5.170866e-04 5.269809e-04 5.363770e-04 5.454582e-04 5.545024e-04 5.631939e-04 5.722012e-04 5.806928e-04 5.897211e-04 5.979540e-04 6.068197e-04 6.145188e-04 6.228445e-04 6.295794e-04 6.368565e-04 6.421139e-04 6.477684e-04 6.510285e-04 6.544869e-04 6.552969e-04 6.560527e-04 6.540959e-04 6.517763e-04 6.469298e-04 6.413579e-04 6.337298e-04 6.249685e-04 6.148960e-04 6.032540e-04 5.912494e-04 5.772325e-04 5.638753e-04 5.480856e-04 5.338909e-04 5.169055e-04 5.022157e-04 4.844915e-04 4.694397e-04 4.512832e-04 4.358410e-04 4.174459e-04 4.015304e-04 3.830545e-04 3.666427e-04 3.482789e-04 3.314805e-04 3.134899e-04 2.965574e-04 2.792551e-04 2.625399e-04 2.462492e-04 2.301325e-04 2.151326e-04 1.999600e-04 1.864477e-04 1.724881e-04 1.605619e-04 1.479924e-04 1.376565e-04 1.265683e-04 1.177478e-04 1.081618e-04 1.007214e-04 9.260707e-05 
9.202955e-05 8.399899e-05 7.770089e-05 7.121347e-05 6.582530e-05 6.076013e-05 5.599635e-05 5.222721e-05 4.779697e-05 4.519855e-05 4.081917e-05 3.927353e-05 3.468898e-05 3.409219e-05 2.909606e-05 2.936421e-05 2.382468e-05 2.489730e-05 1.877967e-05 2.061905e-05 1.400112e-05 1.658769e-05 9.664772e-06 1.299128e-05 6.070402e-06 1.013959e-05 3.624385e-06 8.454529e-06 2.824800e-06 8.466723e-06 4.258162e-06 1.082534e-05 8.615246e-06 1.632379e-05 1.672306e-05 2.592770e-05 2.956684e-05 4.076551e-05 4.825078e-05 6.202662e-05 7.384495e-05 9.073202e-05 1.071089e-04 1.274065e-04 1.481578e-04 1.717562e-04 1.961997e-04 2.224921e-04 2.494733e-04 2.774017e-04 3.054499e-04 3.336805e-04 3.612567e-04 3.884331e-04 4.142001e-04 4.391976e-04 4.622365e-04 4.843493e-04 5.042696e-04 5.232861e-04 5.402122e-04 5.563738e-04 5.708238e-04 5.846903e-04 5.973901e-04 6.096543e-04 6.213369e-04 6.326394e-04 6.438789e-04 6.546645e-04 6.657736e-04 6.762154e-04 6.872157e-04 6.972070e-04 7.078572e-04 7.170570e-04 7.269139e-04 7.348199e-04 7.433105e-04 7.493417e-04 7.558329e-04 7.594124e-04 7.632786e-04 7.639121e-04 7.646035e-04 7.619551e-04 7.590696e-04 7.530282e-04 7.463834e-04 7.371087e-04 7.267977e-04 7.147223e-04 7.011251e-04 6.868886e-04 6.706136e-04 6.549251e-04 6.366812e-04 6.201468e-04 6.005882e-04 5.835725e-04 5.631825e-04 5.457698e-04 5.248352e-04 5.069071e-04 4.855838e-04 4.669738e-04 4.454004e-04 4.260501e-04 4.044446e-04 3.844950e-04 3.631910e-04 3.429838e-04 3.223996e-04 3.024051e-04 2.829718e-04 2.636880e-04 2.457734e-04 2.276386e-04 2.114964e-04 1.948379e-04 1.805910e-04 1.656127e-04 1.532634e-04 1.400598e-04 1.295143e-04 1.180955e-04 1.091899e-04 9.950801e-05 
9.711603e-05 8.741882e-05 7.979305e-05 7.185432e-05 6.528160e-05 5.896156e-05 5.311479e-05 4.827365e-05 4.282068e-05 3.932546e-05 3.394420e-05 3.167595e-05 2.607616e-05 2.493764e-05 1.888879e-05 1.881077e-05 1.217218e-05 1.311552e-05 5.862669e-06 7.813521e-06 5.439362e-08 3.013475e-06 -5.008465e-06 -1.037863e-06 -8.953899e-06 -3.972503e-06 -1.130987e-05 -5.318422e-06 -1.152878e-05 -4.510093e-06 -8.998342e-06 -8.824539e-07 -3.025872e-06 6.361910e-06 7.209895e-06 1.820547e-05 2.271512e-05 3.584324e-05 4.467916e-05 6.060651e-05 7.433318e-05 9.371935e-05 1.126364e-04 1.359059e-04 1.598602e-04 1.869748e-04 2.152354e-04 2.455669e-04 2.768394e-04 3.092089e-04 3.418133e-04 3.746958e-04 4.068608e-04 4.386882e-04 4.688738e-04 4.983392e-04 5.254918e-04 5.517700e-04 5.754473e-04 5.982806e-04 6.186281e-04 6.382741e-04 6.558764e-04 6.729470e-04 6.886072e-04 7.038525e-04 7.183612e-04 7.324579e-04 7.464069e-04 7.598000e-04 7.734775e-04 7.863023e-04 7.996727e-04 8.117583e-04 8.245074e-04 8.354362e-04 8.470476e-04 8.562420e-04 8.660775e-04 8.728905e-04 8.802623e-04 8.840645e-04 8.883011e-04 8.885638e-04 8.890789e-04 8.854556e-04 8.818250e-04 8.742293e-04 8.662749e-04 8.549394e-04 8.427997e-04 8.282837e-04 8.124323e-04 7.955403e-04 7.767132e-04 7.583156e-04 7.373453e-04 7.181509e-04 6.957671e-04 6.761456e-04 6.528354e-04 6.327813e-04 6.087768e-04 5.880346e-04 5.634242e-04 5.417111e-04 5.166031e-04 4.938199e-04 4.684704e-04 4.448113e-04 4.196581e-04 3.955915e-04 3.711937e-04 3.473478e-04 3.242750e-04 3.012933e-04 2.800195e-04 2.584458e-04 2.392847e-04 2.195035e-04 2.025951e-04 1.848265e-04 1.701584e-04 1.544856e-04 1.419313e-04 1.283397e-04 1.176947e-04 1.061070e-04 
1.011173e-04 8.957927e-05 8.048280e-05 7.098381e-05 6.313771e-05 5.551053e-05 4.853333e-05 4.261336e-05 3.611408e-05 3.174552e-05 2.533951e-05 2.238307e-05 1.571777e-05 1.406017e-05 6.850198e-06 6.413134e-06 -1.520304e-06 -7.763507e-07 -9.470261e-06 -7.551176e-06 -1.687819e-05 -1.376928e-05 -2.343167e-05 -1.911184e-05 -2.865203e-05 -2.310147e-05 -3.192861e-05 -2.512683e-05 -3.255857e-05 -2.447223e-05 -2.978458e-05 -2.033977e-05 -2.280646e-05 -1.183624e-05 -1.073933e-05 2.089324e-06 7.472509e-06 2.271529e-05 3.310621e-05 5.151648e-05 6.755212e-05 8.992334e-05 1.119724e-04 1.388637e-04 1.667931e-04 1.982361e-04 2.312399e-04 2.665610e-04 3.031588e-04 3.410108e-04 3.792525e-04 4.178574e-04 4.556776e-04 4.931944e-04 5.288010e-04 5.636944e-04 5.958718e-04 6.271739e-04 6.554242e-04 6.828317e-04 7.073358e-04 7.311399e-04 7.525724e-04 7.734630e-04 7.927267e-04 8.115359e-04 8.294914e-04 8.469469e-04 8.642042e-04 8.807518e-04 8.975624e-04 9.132887e-04 9.295412e-04 9.441917e-04 9.594805e-04 9.725403e-04 9.862622e-04 9.970600e-04 1.008505e-03 1.016314e-03 1.024737e-03 1.028865e-03 1.033549e-03 1.033426e-03 1.033747e-03 1.029011e-03 1.024520e-03 1.015111e-03 1.005633e-03 9.918702e-04 9.775985e-04 9.602004e-04 9.417260e-04 9.217104e-04 8.999319e-04 8.783798e-04 8.542852e-04 8.320351e-04 8.064402e-04 7.838558e-04 7.572325e-04 7.341726e-04 7.066588e-04 6.826714e-04 6.542473e-04 6.288877e-04 5.996113e-04 5.727272e-04 5.429023e-04 5.147647e-04 4.849687e-04 4.562207e-04 4.272014e-04 3.986835e-04 3.711955e-04 3.437434e-04 3.184009e-04 2.926942e-04 2.698905e-04 2.463859e-04 2.262842e-04 2.052210e-04 1.877927e-04 1.692393e-04 1.543198e-04 1.382298e-04 1.255674e-04 1.118273e-04 
1.044645e-04 9.063232e-05 7.969430e-05 6.816063e-05 5.865298e-05 4.921978e-05 4.070325e-05 3.318440e-05 2.521034e-05 1.943906e-05 1.156779e-05 7.406724e-06 -7.610157e-07 -3.407628e-06 -1.218780e-05 -1.336457e-05 -2.294340e-05 -2.264477e-05 -3.304093e-05 -3.122736e-05 -4.227143e-05 -3.889534e-05 -5.022656e-05 -4.525310e-05 -5.632888e-05 -4.974042e-05 -5.986136e-05 -5.164882e-05 -6.000831e-05 -5.015961e-05 -5.591665e-05 -4.439777e-05 -4.674463e-05 -3.345002e-05 -3.163413e-05 -1.629256e-05 -9.582956e-06 8.344371e-06 2.069295e-05 4.203021e-05 6.072316e-05 8.642495e-05 1.119288e-04 1.427510e-04 1.750005e-04 2.111175e-04 2.492755e-04 2.900254e-04 3.324482e-04 3.763427e-04 4.208080e-04 4.658144e-04 5.099451e-04 5.539300e-04 5.956617e-04 6.368365e-04 6.747777e-04 7.120091e-04 7.456005e-04 7.785199e-04 8.079760e-04 8.368903e-04 8.629716e-04 8.886286e-04 9.123256e-04 9.356149e-04 9.578364e-04 9.795076e-04 1.000851e-03 1.021319e-03 1.041964e-03 1.061238e-03 1.080967e-03 1.098687e-03 1.116982e-03 1.132522e-03 1.148685e-03 1.161276e-03 1.174528e-03 1.183367e-03 1.192911e-03 1.197249e-03 1.202332e-03 1.201560e-03 1.201528e-03 1.195278e-03 1.189664e-03 1.177915e-03 1.166564e-03 1.149753e-03 1.132937e-03 1.111996e-03 1.090464e-03 1.066694e-03 1.041553e-03 1.016303e-03 9.887218e-04 9.629755e-04 9.338438e-04 9.079181e-04 8.776399e-04 8.511764e-04 8.197279e-04 7.919955e-04 7.592008e-04 7.295477e-04 6.954097e-04 6.636393e-04 6.285483e-04 5.950613e-04 5.597978e-04 5.254831e-04 4.910480e-04 4.570207e-04 4.243985e-04 3.917242e-04 3.616888e-04 3.311942e-04 3.042152e-04 2.764190e-04 2.526662e-04 2.278057e-04 2.072122e-04 1.853166e-04 1.676582e-04 1.486276e-04 1.335875e-04 1.172542e-04 
1.063475e-04 8.996481e-05 7.696915e-05 6.322501e-05 5.190812e-05 4.056252e-05 3.041134e-05 2.124330e-05 1.173041e-05 4.545849e-06 -4.850235e-06 -1.020588e-05 -1.996257e-05 -2.358852e-05 -3.408635e-05 -3.601602e-05 -4.748386e-05 -4.769265e-05 -6.016749e-05 -5.860320e-05 -7.191029e-05 -6.852968e-05 -8.227178e-05 -7.705343e-05 -9.059807e-05 -8.351920e-05 -9.599996e-05 -8.700343e-05 -9.737384e-05 -8.636400e-05 -9.351940e-05 -8.038571e-05 -8.330470e-05 -6.791635e-05 -6.573334e-05 -4.784695e-05 -3.980812e-05 -1.891174e-05 -4.275948e-06 2.050181e-05 4.247124e-05 7.223536e-05 1.020766e-04 1.377850e-04 1.754808e-04 2.174520e-04 2.621014e-04 3.096595e-04 3.593952e-04 4.108476e-04 4.630917e-04 5.160624e-04 5.680375e-04 6.200109e-04 6.693098e-04 7.181755e-04 7.631934e-04 8.076190e-04 8.477325e-04 8.872852e-04 9.227665e-04 9.577957e-04 9.895267e-04 1.020877e-03 1.049968e-03 1.078622e-03 1.106046e-03 1.132795e-03 1.159131e-03 1.184360e-03 1.209695e-03 1.233314e-03 1.257292e-03 1.278802e-03 1.300763e-03 1.319398e-03 1.338530e-03 1.353396e-03 1.368840e-03 1.379036e-03 1.389946e-03 1.394651e-03 1.400235e-03 1.398791e-03 1.398365e-03 1.390382e-03 1.383458e-03 1.368955e-03 1.355392e-03 1.334945e-03 1.315113e-03 1.289925e-03 1.264777e-03 1.236521e-03 1.207435e-03 1.177815e-03 1.146192e-03 1.116376e-03 1.083182e-03 1.053406e-03 1.018931e-03 9.885286e-04 9.525130e-04 9.203766e-04 8.824322e-04 8.476460e-04 8.077080e-04 7.700361e-04 7.286158e-04 6.886441e-04 6.467891e-04 6.057299e-04 5.647620e-04 5.240793e-04 4.852688e-04 4.463127e-04 4.106297e-04 3.744053e-04 3.424136e-04 3.095141e-04 2.813941e-04 2.520542e-04 2.276969e-04 2.018991e-04 1.810130e-04 1.585934e-04 1.407876e-04 1.215137e-04 