# vtk DataFile Version 2.0
Comment goes here
ASCII

DATASET STRUCTURED_POINTS
FIELD FieldData 1
TIME 1 1 double
0.01500000
DIMENSIONS    128   128   1

ORIGIN    0.000   0.000   0.000
SPACING   0.039062 0.039062   1.000

POINT_DATA   16384
SCALARS Omega double
LOOKUP_TABLE default

-3.178798e-14 -5.659412e-14 5.868934e-15 2.713523e-14 2.154773e-14 5.943561e-14 1.084191e-13 6.020880e-14 1.940515e-14 5.109359e-14 5.146744e-14 2.100323e-14 8.273946e-15 1.043945e-14 1.225986e-14 7.457865e-14 6.880602e-14 6.863761e-14 4.516608e-14 -2.133639e-14 -5.295271e-14 -4.789767e-14 -7.863849e-14 -1.283939e-13 -4.613287e-14 -2.524759e-15 2.953084e-14 -4.542525e-14 -1.821908e-14 -7.079582e-14 -1.046501e-13 -5.452035e-14 -3.286229e-14 3.553171e-14 9.598558e-14 9.976493e-14 6.140718e-14 -3.049668e-14 -4.672972e-14 -5.470259e-14 -9.432464e-14 -2.628654e-14 -2.086816e-14 4.167352e-14 6.442160e-14 -1.182759e-14 -3.226271e-14 2.784365e-14 -1.157230e-14 1.168675e-14 9.295889e-14 6.344929e-14 -2.262631e-14 3.985682e-14 1.160721e-14 -9.813112e-15 7.355111e-15 1.340506e-14 6.713837e-14 -2.437376e-15 6.823240e-14 1.022387e-13 2.314107e-14 1.579371e-13 8.026002e-14 1.036992e-13 7.671862e-14 1.204258e-14 -1.750297e-14 8.917366e-15 -3.396476e-14 -3.277245e-14 -3.297833e-14 -5.197934e-14 2.113734e-14 1.364875e-14 -1.979336e-14 8.411631e-15 1.216409e-14 -3.340115e-15 -3.713828e-14 3.980043e-14 3.206354e-14 9.030805e-15 -5.261915e-14 2.855145e-15 3.824839e-14 7.683245e-14 2.278049e-14 4.022563e-14 7.318971e-14 3.046948e-14 8.328956e-14 2.177155e-14 -3.286477e-15 -5.083458e-14 -4.333685e-14 2.749565e-14 7.571923e-14 7.516190e-14 5.390538e-14 5.932805e-14 6.508687e-15 -5.616357e-14 -6.516490e-14 -7.619184e-14 -6.032002e-14 -1.998833e-15 2.941505e-15 -2.172208e-14 -3.564122e-14 1.570608e-14 5.065783e-14 3.539427e-14 1.259432e-14 -2.503247e-14 -3.661023e-14 -1.171621e-14 4.874348e-15 5.098343e-14 2.311972e-14 -1.609058e-14 -1.832779e-14 -8.142789e-15 -3.847809e-14 -3.850555e-14 -4.256350e-14 -3.334811e-14 
-1.793578e-07 -6.877418e-08 -1.467260e-07 4.617487e-08 -1.190767e-07 1.790200e-07 -9.866028e-08 3.341449e-07 -8.863394e-08 5.139029e-07 -9.436309e-08 7.159643e-07 -1.251034e-07 9.301196e-07 -1.958668e-07 1.135066e-06 -3.290203e-07 1.296107e-06 -5.548273e-07 1.365063e-06 -9.098521e-07 1.283819e-06 -1.432103e-06 9.925638e-07 -2.152228e-06 4.427940e-07 -3.081166e-06 -3.865051e-07 -4.196358e-06 -1.473002e-06 -5.430403e-06 -2.740431e-06 -6.667145e-06 -4.058400e-06 -7.749668e-06 -5.255941e-06 -8.502037e-06 -6.148596e-06 -8.762438e-06 -6.574399e-06 -8.420846e-06 -6.430479e-06 -7.451464e-06 -5.700628e-06 -5.930258e-06 -4.465917e-06 -4.031263e-06 -2.894646e-06 -2.000911e-06 -1.213417e-06 -1.155720e-07 3.340782e-07 1.368112e-06 1.531081e-06 2.258874e-06 2.224892e-06 2.462640e-06 2.349675e-06 1.994465e-06 1.931302e-06 9.694632e-07 1.074945e-06 -4.236997e-07 -6.026029e-08 -1.959845e-06 -1.292963e-06 -3.416573e-06 -2.450857e-06 -4.608158e-06 -3.395695e-06 -5.408581e-06 -4.038557e-06 -5.761243e-06 -4.344393e-06 -5.675898e-06 -4.327166e-06 -5.215717e-06 -4.038395e-06 -4.478670e-06 -3.552506e-06 -3.577564e-06 -2.952144e-06 -2.622320e-06 -2.315787e-06 -1.706753e-06 -1.708968e-06 -9.007723e-07 -1.179421e-06 -2.477315e-07 -7.557714e-07 2.340916e-07 -4.489379e-07 5.472428e-07 -2.553159e-07 7.094445e-07 -1.608319e-07 7.477112e-07 -1.451334e-07 6.930643e-07 -1.853754e-07 5.763404e-07 -2.592568e-07 4.252827e-07 -3.471547e-07 2.628521e-07 -4.333541e-07 1.065589e-07 -5.064974e-07 -3.147079e-08 -5.594388e-07 -1.439598e-07 -5.887146e-07 -2.277034e-07 -5.938085e-07 -2.827075e-07 -5.763466e-07 -3.113355e-07 -5.393021e-07 -3.175167e-07 -4.862484e-07 -3.060418e-07 -4.206749e-07 -2.819617e-07 -3.453761e-07 -2.501055e-07 -2.619332e-07 -2.147354e-07 -1.703304e-07 
-1.227579e-06 -1.348653e-06 -1.672063e-06 -1.699421e-06 -2.253447e-06 -2.142475e-06 -2.983773e-06 -2.671137e-06 -3.868189e-06 -3.271087e-06 -4.901139e-06 -3.918586e-06 -6.061639e-06 -4.578490e-06 -7.308182e-06 -5.202388e-06 -8.574368e-06 -5.727603e-06 -9.766985e-06 -6.078275e-06 -1.076861e-05 -6.170032e-06 -1.144661e-05 -5.919589e-06 -1.166944e-05 -5.259632e-06 -1.132912e-05 -4.157572e-06 -1.036634e-05 -2.634463e-06 -8.792712e-06 -7.786067e-07 -6.703657e-06 1.252017e-06 -4.276749e-06 3.242531e-06 -1.753580e-06 4.949475e-06 5.928211e-07 6.140463e-06 2.499218e-06 6.637321e-06 3.754248e-06 6.353308e-06 4.233518e-06 5.316014e-06 3.921451e-06 3.670529e-06 2.916052e-06 1.661503e-06 1.415495e-06 -4.032406e-07 -3.118483e-07 -2.201457e-06 -1.969544e-06 -3.449138e-06 -3.280600e-06 -3.947550e-06 -4.031842e-06 -3.615691e-06 -4.106624e-06 -2.501662e-06 -3.499306e-06 -7.705567e-07 -2.308851e-06 1.328450e-06 -7.137481e-07 3.508419e-06 1.065200e-06 5.494084e-06 2.805298e-06 7.064027e-06 4.316895e-06 8.077855e-06 5.466680e-06 8.485095e-06 6.186952e-06 8.317227e-06 6.472087e-06 7.667717e-06 6.365945e-06 6.666468e-06 5.944831e-06 5.454687e-06 5.300198e-06 4.164458e-06 4.524010e-06 2.905145e-06 3.698225e-06 1.756793e-06 2.888623e-06 7.693765e-07 2.142438e-06 -3.386334e-08 1.488866e-06 -6.508417e-07 9.414950e-07 -1.094319e-06 5.017730e-07 -1.385954e-06 1.627989e-07 -1.551366e-06 -8.714907e-08 -1.616504e-06 -2.617638e-07 -1.605368e-06 -3.747869e-07 -1.538941e-06 -4.390674e-07 -1.435096e-06 -4.664722e-07 -1.309164e-06 -4.683771e-07 -1.174818e-06 -4.564136e-07 -1.044989e-06 -4.431859e-07 -9.325549e-07 -4.427558e-07 -8.506882e-07 -4.708253e-07 -8.128081e-07 -5.446276e-07 -8.321784e-07 -6.825946e-07 -9.212305e-07 -9.038563e-07 -1.090701e-06 
-5.400178e-07 -2.238997e-07 -4.518384e-07 1.067423e-07 -3.791365e-07 4.915383e-07 -3.283201e-07 9.451911e-07 -3.082471e-07 1.476972e-06 -3.340295e-07 2.082708e-06 -4.320852e-07 2.734839e-06 -6.459857e-07 3.372023e-06 -1.041840e-06 3.891066e-06 -1.710876e-06 4.145236e-06 -2.765806e-06 3.953654e-06 -4.327171e-06 3.125596e-06 -6.496936e-06 1.500569e-06 -9.319910e-06 -1.000204e-06 -1.273902e-05 -4.321631e-06 -1.655666e-05 -8.237945e-06 -2.041850e-05 -1.234840e-05 -2.383529e-05 -1.611741e-05 -2.624972e-05 -1.895941e-05 -2.714182e-05 -2.035413e-05 -2.615090e-05 -1.996522e-05 -2.318184e-05 -1.773064e-05 -1.846389e-05 -1.389838e-05 -1.254061e-05 -8.995443e-06 -6.188527e-06 -3.735753e-06 -2.814055e-07 1.111428e-06 4.368741e-06 4.861863e-06 7.157464e-06 7.034361e-06 7.789035e-06 7.422716e-06 6.313741e-06 6.110345e-06 3.098059e-06 3.430162e-06 -1.260552e-06 -1.162375e-07 -6.051890e-06 -3.959233e-06 -1.057776e-05 -7.559716e-06 -1.425885e-05 -1.048744e-05 -1.670651e-05 -1.246825e-05 -1.775184e-05 -1.339733e-05 -1.743430e-05 -1.332300e-05 -1.595931e-05 -1.240984e-05 -1.363851e-05 -1.089230e-05 -1.082652e-05 -9.028520e-06 -7.865558e-06 -7.061866e-06 -5.044748e-06 -5.193944e-06 -2.576790e-06 -3.570107e-06 -5.908043e-07 -2.275986e-06 8.620332e-07 -1.342414e-06 1.794479e-06 -7.557444e-07 2.265158e-06 -4.707110e-07 2.360048e-06 -4.235629e-07 2.176075e-06 -5.437842e-07 1.808315e-06 -7.633654e-07 1.341282e-06 -1.023172e-06 8.441000e-07 -1.276457e-06 3.688014e-07 -1.489949e-06 -4.913415e-08 -1.643158e-06 -3.888994e-07 -1.726566e-06 -6.418334e-07 -1.739294e-06 -8.087234e-07 -1.686641e-06 -8.972055e-07 -1.577703e-06 -9.193935e-07 -1.423188e-06 -8.897999e-07 -1.233430e-06 -8.235815e-07 -1.016604e-06 -7.351460e-07 -7.772097e-07 -6.371606e-07 -5.149028e-07 
-2.438294e-06 -2.706509e-06 -3.331630e-06 -3.423392e-06 -4.501442e-06 -4.327477e-06 -5.975104e-06 -5.406981e-06 -7.767504e-06 -6.635409e-06 -9.873336e-06 -7.967951e-06 -1.225709e-05 -9.337129e-06 -1.484157e-05 -1.064816e-05 -1.749717e-05 -1.177547e-05 -2.003544e-05 -1.256289e-05 -2.221180e-05 -1.283127e-05 -2.374226e-05 -1.239704e-05 -2.433676e-05 -1.110350e-05 -2.374804e-05 -8.862759e-06 -2.182873e-05 -5.700301e-06 -1.858383e-05 -1.789458e-06 -1.420351e-05 2.538637e-06 -9.062889e-06 6.820365e-06 -3.683317e-06 1.052194e-05 1.340471e-06 1.312923e-05 5.433573e-06 1.424639e-05 8.135720e-06 1.368050e-05 9.179047e-06 1.149258e-05 8.534622e-06 8.002734e-06 6.419976e-06 3.747295e-06 3.266542e-06 -6.043460e-07 -3.479960e-07 -4.358556e-06 -3.791963e-06 -6.912406e-06 -6.481519e-06 -7.853984e-06 -7.974128e-06 -7.029257e-06 -8.035971e-06 -4.562358e-06 -6.669961e-06 -8.251378e-07 -4.099285e-06 3.637338e-06 -7.116419e-07 8.208710e-06 3.021502e-06 1.230802e-05 6.631322e-06 1.547866e-05 9.725081e-06 1.744333e-05 1.203370e-05 1.811870e-05 1.342882e-05 1.759399e-05 1.391263e-05 1.608485e-05 1.358906e-05 1.387695e-05 1.262633e-05 1.127222e-05 1.122015e-05 8.546595e-06 9.563252e-06 5.923116e-06 7.824307e-06 3.560238e-06 6.136129e-06 1.552280e-06 4.591871e-06 -6.197145e-08 3.247017e-06 -1.286509e-06 2.125092e-06 -2.154381e-06 1.225283e-06 -2.715146e-06 5.305096e-07 -3.024719e-06 1.480923e-08 -3.138081e-06 -3.508005e-07 -3.104849e-06 -5.944744e-07 -2.967390e-06 -7.418030e-07 -2.760942e-06 -8.158830e-07 -2.515089e-06 -8.385870e-07 -2.255862e-06 -8.323170e-07 -2.007837e-06 -8.216075e-07 -1.795708e-06 -8.341722e-07 -1.645070e-06 -9.012626e-07 -1.582343e-06 -1.057411e-06 -1.633930e-06 -1.339738e-06 -1.824815e-06 -1.786983e-06 -2.176794e-06 
-9.058961e-07 -4.304980e-07 -7.922140e-07 7.174721e-08 -7.064833e-07 6.650118e-07 -6.584387e-07 1.378808e-06 -6.609856e-07 2.235956e-06 -7.361063e-07 3.239182e-06 -9.231813e-07 4.353502e-06 -1.289413e-06 5.486407e-06 -1.940716e-06 6.470364e-06 -3.029340e-06 7.054881e-06 -4.752079e-06 6.917376e-06 -7.331214e-06 5.701545e-06 -1.097126e-05 3.087252e-06 -1.578989e-05 -1.113619e-06 -2.173174e-05 -6.853923e-06 -2.848713e-05 -1.377123e-05 -3.544834e-05 -2.116638e-05 -4.173662e-05 -2.806744e-05 -4.631884e-05 -3.338390e-05 -4.820437e-05 -3.612502e-05 -4.668079e-05 -3.563010e-05 -4.152442e-05 -3.174709e-05 -3.312084e-05 -2.490644e-05 -2.245216e-05 -1.606588e-05 -1.094556e-05 -6.537392e-06 -2.165033e-07 2.260942e-06 8.232205e-06 9.068773e-06 1.328517e-05 1.300356e-05 1.440306e-05 1.369268e-05 1.168952e-05 1.129753e-05 5.831613e-06 6.435855e-06 -2.062765e-06 2.969068e-08 -1.068749e-05 -6.881570e-06 -1.877040e-05 -1.332209e-05 -2.526950e-05 -1.852152e-05 -2.950170e-05 -2.199838e-05 -3.119079e-05 -2.358066e-05 -3.044006e-05 -2.337243e-05 -2.764872e-05 -2.168384e-05 -2.339853e-05 -1.894487e-05 -1.833679e-05 -1.562128e-05 -1.307635e-05 -1.214578e-05 -8.124642e-06 -8.871217e-06 -3.845267e-06 -6.046638e-06 -4.491471e-07 -3.813343e-06 1.991861e-06 -2.215612e-06 3.517191e-06 -1.220581e-06 4.243598e-06 -7.421245e-07 4.331370e-06 -6.646515e-07 3.955175e-06 -8.638897e-07 3.281976e-06 -1.222853e-06 2.456710e-06 -1.642294e-06 1.595059e-06 -2.045887e-06 7.817725e-07 -2.381107e-06 7.272898e-08 -2.617129e-06 -5.009699e-07 -2.741087e-06 -9.281383e-07 -2.753750e-06 -1.212662e-06 -2.665272e-06 -1.369055e-06 -2.491319e-06 -1.418549e-06 -2.249624e-06 -1.385762e-06 -1.956908e-06 -1.295942e-06 -1.626112e-06 -1.172829e-06 -1.263969e-06 -1.037162e-06 -8.690357e-07 
-3.615101e-06 -4.080363e-06 -4.966189e-06 -5.194809e-06 -6.737982e-06 -6.596483e-06 -8.979555e-06 -8.271452e-06 -1.172476e-05 -1.018527e-05 -1.498067e-05 -1.227763e-05 -1.871136e-05 -1.445511e-05 -2.281761e-05 -1.658208e-05 -2.711550e-05 -1.847149e-05 -3.131979e-05 -1.987983e-05 -3.504076e-05 -2.051303e-05 -3.780445e-05 -2.005157e-05 -3.910413e-05 -1.820058e-05 -3.848331e-05 -1.476412e-05 -3.563983e-05 -9.730680e-06 -3.052766e-05 -3.346226e-06 -2.342655e-05 3.855348e-06 -1.495136e-05 1.108815e-05 -5.987752e-06 1.742306e-05 2.438635e-06 2.195214e-05 9.332515e-06 2.397143e-05 1.390112e-05 2.313722e-05 1.569178e-05 1.955682e-05 1.466890e-05 1.379247e-05 1.121890e-05 6.777343e-06 6.084831e-06 -3.385706e-07 2.434829e-07 -6.382662e-06 -5.254535e-06 -1.035807e-05 -9.455495e-06 -1.161044e-05 -1.165475e-05 -9.932752e-06 -1.150260e-05 -5.588531e-06 -9.043371e-06 7.510292e-07 -4.680670e-06 8.142505e-06 9.213948e-07 1.554828e-05 6.976341e-06 2.201756e-05 1.271979e-05 2.683188e-05 1.752899e-05 2.958832e-05 2.099631e-05 3.021244e-05 2.295046e-05 2.891047e-05 2.343241e-05 2.608326e-05 2.264207e-05 2.222755e-05 2.087340e-05 1.784640e-05 1.845322e-05 1.338265e-05 1.569288e-05 9.180026e-06 1.285664e-05 5.469967e-06 1.014588e-05 2.377741e-06 7.695980e-06 -5.946148e-08 5.581900e-06 -1.869293e-06 3.829028e-06 -3.120901e-06 2.426308e-06 -3.904582e-06 1.339585e-06 -4.315962e-06 5.234731e-07 -4.445078e-06 -6.944813e-08 -4.370144e-06 -4.828974e-07 -4.155369e-06 -7.547053e-07 -3.851965e-06 -9.176240e-07 -3.501266e-06 -1.002037e-06 -3.138761e-06 -1.039280e-06 -2.797951e-06 -1.064492e-06 -2.513191e-06 -1.118335e-06 -2.321078e-06 -1.247473e-06 -2.260337e-06 -1.504019e-06 -2.370433e-06 -1.944386e-06 -2.689293e-06 -2.627869e-06 -3.250511e-06 
-1.278515e-06 -7.183945e-07 -1.192309e-06 -1.227887e-07 -1.151116e-06 5.990061e-07 -1.167340e-06 1.498107e-06 -1.255919e-06 2.621773e-06 -1.441347e-06 3.995041e-06 -1.768607e-06 5.594364e-06 -2.318636e-06 7.314875e-06 -3.227284e-06 8.936935e-06 -4.703347e-06 1.010287e-05 -7.036448e-06 1.031974e-05 -1.058070e-05 9.005767e-06 -1.569862e-05 5.592697e-06 -2.265608e-05 -3.185169e-07 -3.147580e-05 -8.774924e-06 -4.178295e-05 -1.931331e-05 -5.270041e-05 -3.089242e-05 -6.286002e-05 -4.197200e-05 -7.057420e-05 -5.075673e-05 -7.416133e-05 -5.556546e-05 -7.235501e-05 -5.523330e-05 -6.468152e-05 -4.943049e-05 -5.168448e-05 -3.880049e-05 -3.491678e-05 -2.487293e-05 -1.668939e-05 -9.773138e-06 3.623992e-07 4.195282e-06 1.378643e-05 1.499070e-05 2.177300e-05 2.119566e-05 2.346468e-05 2.222842e-05 1.905919e-05 1.837387e-05 9.700830e-06 1.064752e-05 -2.796757e-06 5.411380e-07 -1.632216e-05 -1.028344e-05 -2.884742e-05 -2.028550e-05 -3.874375e-05 -2.826912e-05 -4.498114e-05 -3.350952e-05 -4.719262e-05 -3.577707e-05 -4.561500e-05 -3.527535e-05 -4.094089e-05 -3.252263e-05 -3.412776e-05 -2.821081e-05 -2.620783e-05 -2.307162e-05 -1.813167e-05 -1.777031e-05 -1.066281e-05 -1.283638e-05 -4.326353e-06 -8.631392e-06 5.957804e-07 -5.347896e-06 4.035743e-06 -3.030353e-06 6.090918e-06 -1.609073e-06 6.967819e-06 -9.390753e-07 6.928463e-06 -8.376486e-07 6.245728e-06 -1.116145e-06 5.171044e-06 -1.603378e-06 3.915016e-06 -2.159717e-06 2.639401e-06 -2.682648e-06 1.457528e-06 -3.105718e-06 4.398703e-07 -3.393413e-06 -3.781070e-07 -3.534284e-06 -9.877963e-07 -3.534033e-06 -1.400034e-06 -3.409387e-06 -1.638756e-06 -3.182998e-06 -1.735712e-06 -2.879154e-06 -1.726120e-06 -2.520041e-06 -1.645206e-06 -2.122336e-06 -1.525607e-06 -1.694046e-06 -1.395649e-06 -1.231727e-06 
-4.741787e-06 -5.472857e-06 -6.564856e-06 -7.034274e-06 -8.958067e-06 -8.990280e-06 -1.200109e-05 -1.132865e-05 -1.576046e-05 -1.401294e-05 -2.027491e-05 -1.697611e-05 -2.553217e-05 -2.011016e-05 -3.143657e-05 -2.325052e-05 -3.777032e-05 -2.615618e-05 -4.415636e-05 -2.849127e-05 -5.003744e-05 -2.981957e-05 -5.469033e-05 -2.962885e-05 -5.729346e-05 -2.740085e-05 -5.705593e-05 -2.273203e-05 -5.339495e-05 -1.548834e-05 -4.612356e-05 -5.951772e-06 -3.559140e-05 5.100062e-06 -2.272211e-05 1.643321e-05 -8.915503e-06 2.653418e-05 4.174619e-06 3.389504e-05 1.493616e-05 3.733613e-05 2.209500e-05 3.627969e-05 2.494348e-05 3.090236e-05 2.345660e-05 2.213023e-05 1.828175e-05 1.148187e-05 1.061390e-05 7.981861e-07 1.985035e-06 -8.082959e-06 -5.993927e-06 -1.364498e-05 -1.189663e-05 -1.494701e-05 -1.470697e-05 -1.177095e-05 -1.396816e-05 -4.635462e-06 -9.827524e-06 5.324852e-06 -2.968776e-06 1.659009e-05 5.551336e-06 2.754529e-05 1.452251e-05 3.676534e-05 2.280416e-05 4.323294e-05 2.950346e-05 4.644934e-05 3.407655e-05 4.642960e-05 3.634600e-05 4.360449e-05 3.644919e-05 3.866953e-05 3.474559e-05 3.242450e-05 3.171217e-05 2.563722e-05 2.785023e-05 1.895012e-05 2.361660e-05 1.283333e-05 1.938267e-05 7.577132e-06 1.541781e-05 3.311967e-06 1.189108e-05 4.313917e-08 8.884147e-06 -2.310187e-06 6.410132e-06 -3.878790e-06 4.434366e-06 -4.813743e-06 2.894415e-06 -5.264563e-06 1.717373e-06 -5.364992e-06 8.328000e-07 -5.225600e-06 1.802451e-07 -4.932221e-06 -2.888044e-07 -4.548971e-06 -6.135706e-07 -4.124258e-06 -8.293440e-07 -3.697977e-06 -9.733689e-07 -3.308096e-06 -1.089487e-06 -2.995361e-06 -1.230626e-06 -2.805479e-06 -1.459142e-06 -2.788855e-06 -1.845601e-06 -2.998371e-06 -2.466884e-06 -3.485896e-06 -3.404259e-06 -4.298210e-06 
-1.656884e-06 -1.109712e-06 -1.678092e-06 -5.396470e-07 -1.770456e-06 1.834513e-07 -1.949887e-06 1.139936e-06 -2.232499e-06 2.415803e-06 -2.640714e-06 4.081133e-06 -3.214754e-06 6.154752e-06 -4.032375e-06 8.554494e-06 -5.238374e-06 1.103819e-05 -7.080816e-06 1.314960e-05 -9.942364e-06 1.419446e-05 -1.434379e-05 1.327957e-05 -2.088814e-05 9.445660e-06 -3.011741e-05 1.904230e-06 -4.227795e-05 -9.652201e-06 -5.703823e-05 -2.474790e-05 -7.325681e-05 -4.194964e-05 -8.892888e-05 -5.893599e-05 -1.014128e-04 -7.286257e-05 -1.079469e-04 -8.096835e-05 -1.063438e-04 -8.126239e-05 -9.565285e-05 -7.308043e-05 -7.657000e-05 -5.733423e-05 -5.144678e-05 -3.637597e-05 -2.388328e-05 -1.352076e-05 1.985271e-06 7.635952e-06 2.231776e-05 2.392794e-05 3.430676e-05 3.318922e-05 3.666415e-05 3.457364e-05 2.976577e-05 2.858230e-05 1.545598e-05 1.682951e-05 -3.410948e-06 1.631127e-06 -2.356844e-05 -1.447645e-05 -4.193708e-05 -2.918251e-05 -5.610815e-05 -4.073498e-05 -6.463428e-05 -4.811822e-05 -6.710173e-05 -5.107184e-05 -6.400915e-05 -4.997909e-05 -5.651393e-05 -4.567354e-05 -4.612298e-05 -3.921818e-05 -3.439879e-05 -3.170307e-05 -2.272948e-05 -2.409120e-05 -1.218527e-05 -1.712418e-05 -3.460005e-06 -1.128500e-05 3.118254e-06 -6.806031e-06 7.530089e-06 -3.707662e-06 9.983076e-06 -1.853460e-06 1.082410e-05 -1.010214e-06 1.045916e-05 -9.039948e-07 9.289448e-06 -1.265950e-06 7.667810e-06 -1.864049e-06 5.875738e-06 -2.519783e-06 4.117625e-06 -3.111553e-06 2.526963e-06 -3.568581e-06 1.178739e-06 -3.859959e-06 1.033852e-07 -3.982825e-06 -7.005601e-07 -3.952143e-06 -1.256130e-06 -3.792918e-06 -1.599885e-06 -3.534544e-06 -1.775654e-06 -3.206532e-06 -1.829639e-06 -2.834859e-06 -1.806686e-06 -2.438459e-06 -1.747666e-06 -2.025657e-06 -1.687950e-06 -1.590559e-06 
-5.806496e-06 -6.882209e-06 -8.123546e-06 -8.961659e-06 -1.116390e-05 -1.155250e-05 -1.504797e-05 -1.464796e-05 -1.989243e-05 -1.821624e-05 -2.579462e-05 -2.219515e-05 -3.280305e-05 -2.648000e-05 -4.086968e-05 -3.090013e-05 -4.978473e-05 -3.518210e-05 -5.910283e-05 -3.890450e-05 -6.808223e-05 -4.146221e-05 -7.567164e-05 -4.207170e-05 -8.058391e-05 -3.985457e-05 -8.148420e-05 -3.402319e-05 -7.728393e-05 -2.415258e-05 -6.748069e-05 -1.046769e-05 -5.243826e-05 5.967887e-06 -3.349153e-05 2.327261e-05 -1.280519e-05 3.902664e-05 7.000818e-06 5.076176e-05 2.336159e-05 5.652724e-05 3.427264e-05 5.536520e-05 3.866244e-05 4.756215e-05 3.655799e-05 3.461808e-05 2.903178e-05 1.895634e-05 1.796721e-05 3.457034e-06 5.704210e-06 -9.077118e-06 -5.366301e-06 -1.641676e-05 -1.319394e-05 -1.727839e-05 -1.638739e-05 -1.151563e-05 -1.441048e-05 -1.012203e-07 -7.621943e-06 1.509489e-05 2.849357e-06 3.168786e-05 1.536713e-05 4.723962e-05 2.812717e-05 5.969574e-05 3.949272e-05 6.769999e-05 4.824984e-05 7.072686e-05 5.373687e-05 6.902865e-05 5.584229e-05 6.344361e-05 5.490093e-05 5.513831e-05 5.153660e-05 4.535530e-05 4.649843e-05 3.521599e-05 4.052537e-05 2.560037e-05 3.425464e-05 1.710121e-05 2.817521e-05 1.003596e-05 2.261738e-05 4.494155e-06 1.776620e-05 3.998131e-07 1.368776e-05 -2.426322e-06 1.036021e-05 -4.213824e-06 7.704784e-06 -5.202361e-06 5.614303e-06 -5.614111e-06 3.976952e-06 -5.637140e-06 2.693562e-06 -5.417962e-06 1.686644e-06 -5.061930e-06 9.008584e-07 -4.639952e-06 2.965592e-07 -4.199414e-06 -1.603466e-07 -3.776481e-06 -5.084791e-07 -3.406950e-06 -7.981797e-07 -3.133621e-06 -1.094644e-06 -3.009394e-06 -1.477434e-06 -3.096452e-06 -2.037765e-06 -3.462580e-06 -2.875186e-06 -4.175835e-06 -4.094922e-06 -5.298651e-06 
-2.037617e-06 -1.614060e-06 -2.278052e-06 -1.236692e-06 -2.631817e-06 -7.008239e-07 -3.122874e-06 1.086075e-07 -3.771791e-06 1.331521e-06 -4.597254e-06 3.112465e-06 -5.623317e-06 5.558872e-06 -6.899234e-06 8.671572e-06 -8.539500e-06 1.224818e-05 -1.078723e-05 1.577424e-05 -1.409073e-05 1.833834e-05 -1.916020e-05 1.862920e-05 -2.694607e-05 1.508192e-05 -3.846971e-05 6.218236e-06 -5.446666e-05 -8.840021e-06 -7.488432e-05 -2.980562e-05 -9.839332e-05 -5.482319e-05 -1.221594e-04 -8.046481e-05 -1.421032e-04 -1.022601e-04 -1.537124e-04 -1.156931e-04 -1.532245e-04 -1.173828e-04 -1.387984e-04 -1.060583e-04 -1.112585e-04 -8.300116e-05 -7.414078e-05 -5.182390e-05 -3.302290e-05 -1.767372e-05 5.655028e-06 1.388628e-05 3.594157e-05 3.801345e-05 5.355214e-05 5.147139e-05 5.661334e-05 5.309452e-05 4.584797e-05 4.378365e-05 2.422001e-05 2.609909e-05 -3.821848e-06 3.597478e-06 -3.329493e-05 -1.991276e-05 -5.961040e-05 -4.103985e-05 -7.929747e-05 -5.728943e-05 -9.041124e-05 -6.730224e-05 -9.259282e-05 -7.084975e-05 -8.683069e-05 -6.863638e-05 -7.503031e-05 -6.198730e-05 -5.952054e-05 -5.250774e-05 -4.260920e-05 -4.178404e-05 -2.625815e-05 -3.116822e-05 -1.190181e-05 -2.165782e-05 -3.958014e-07 -1.386095e-05 7.937094e-06 -8.024725e-06 1.320151e-05 -4.103359e-06 1.579784e-05 -1.845292e-06 1.628972e-05 -8.834259e-07 1.528820e-05 -8.166466e-07 1.336358e-05 -1.273942e-06 1.099002e-05 -1.955615e-06 8.521972e-06 -2.650330e-06 6.196356e-06 -3.231574e-06 4.150829e-06 -3.640930e-06 2.448348e-06 -3.866662e-06 1.100495e-06 -3.924361e-06 8.585711e-08 -3.842957e-06 -6.369498e-07 -3.656262e-06 -1.120362e-06 -3.398380e-06 -1.421516e-06 -3.100983e-06 -1.597523e-06 -2.790931e-06 -1.702057e-06 -2.487447e-06 -1.783280e-06 -2.198559e-06 -1.883109e-06 -1.916767e-06 
-6.809271e-06 -8.304410e-06 -9.655965e-06 -1.100142e-05 -1.337901e-05 -1.433868e-05 -1.814861e-05 -1.831667e-05 -2.415044e-05 -2.291317e-05 -3.157441e-05 -2.808324e-05 -4.058266e-05 -3.375021e-05 -5.124597e-05 -3.977670e-05 -6.344199e-05 -4.590495e-05 -7.672073e-05 -5.166578e-05 -9.016593e-05 -5.627802e-05 -1.023100e-04 -5.859331e-05 -1.111821e-04 -5.716612e-05 -1.145629e-04 -5.052029e-05 -1.104606e-04 -3.761563e-05 -9.772271e-05 -1.840296e-05 -7.658864e-05 5.751915e-06 -4.894868e-05 3.201285e-05 -1.814823e-05 5.651008e-05 1.165055e-05 7.518960e-05 3.636066e-05 8.481458e-05 5.283855e-05 8.379626e-05 5.948933e-05 7.260645e-05 5.648772e-05 5.368105e-05 4.562240e-05 3.088302e-05 2.985776e-05 8.696887e-06 1.273987e-05 -8.642782e-06 -2.232885e-06 -1.791250e-05 -1.217734e-05 -1.742846e-05 -1.525747e-05 -7.275416e-06 -1.092585e-05 1.078545e-05 6.168042e-08 3.370925e-05 1.586548e-05 5.779099e-05 3.397760e-05 7.939378e-05 5.174234e-05 9.561491e-05 6.685626e-05 1.047324e-04 7.772921e-05 1.063428e-04 8.363795e-05 1.012005e-04 8.467361e-05 9.085565e-05 8.154162e-05 7.722051e-05 7.529776e-05 6.218209e-05 6.709653e-05 4.732868e-05 5.800008e-05 3.381016e-05 4.886508e-05 2.231386e-05 4.030023e-05 1.312002e-05 3.267479e-05 6.198474e-06 2.615593e-05 1.314906e-06 2.075713e-05 -1.874143e-06 1.638676e-05 -3.747708e-06 1.289227e-05 -4.669746e-06 1.009864e-05 -4.957706e-06 7.840101e-06 -4.865492e-06 5.982472e-06 -4.577577e-06 4.433357e-06 -4.213011e-06 3.138978e-06 -3.838248e-06 2.070361e-06 -3.486112e-06 1.204673e-06 -3.176409e-06 5.082954e-07 -2.933389e-06 -7.379987e-08 -2.796804e-06 -6.211118e-07 -2.825680e-06 -1.234693e-06 -3.095972e-06 -2.031230e-06 -3.694183e-06 -3.137054e-06 -4.709065e-06 -4.684162e-06 -6.223033e-06 
-2.416864e-06 -2.222608e-06 -3.025255e-06 -2.259971e-06 -3.814683e-06 -2.176265e-06 -4.828783e-06 -1.823871e-06 -6.105190e-06 -9.987459e-07 -7.666790e-06 5.500306e-07 -9.515374e-06 3.080958e-06 -1.164025e-05 6.773800e-06 -1.406089e-05 1.158419e-05 -1.692273e-05 1.704651e-05 -2.064881e-05 2.206962e-05 -2.610952e-05 2.481988e-05 -3.471181e-05 2.282553e-05 -4.825883e-05 1.342804e-05 -6.844530e-05 -5.390935e-06 -9.598735e-05 -3.396833e-05 -1.296281e-04 -7.008196e-05 -1.654917e-04 -1.087165e-04 -1.972900e-04 -1.428081e-04 -2.175981e-04 -1.649077e-04 -2.199072e-04 -1.692518e-04 -2.007322e-04 -1.534938e-04 -1.609685e-04 -1.194817e-04 -1.060010e-04 -7.286103e-05 -4.455971e-05 -2.170931e-05 1.326450e-05 2.532493e-05 5.823837e-05 6.084909e-05 8.385956e-05 8.008952e-05 8.747894e-05 8.154149e-05 7.050102e-05 6.686297e-05 3.772996e-05 4.015473e-05 -3.885660e-06 6.886245e-06 -4.676313e-05 -2.724942e-05 -8.411052e-05 -5.732134e-05 -1.109979e-04 -7.983867e-05 -1.249132e-04 -9.305401e-05 -1.257668e-04 -9.690204e-05 -1.154352e-04 -9.265306e-05 -9.703295e-05 -8.240919e-05 -7.412789e-05 -6.858063e-05 -5.007896e-05 -5.344944e-05 -2.759395e-05 -3.887749e-05 -8.521912e-06 -2.616524e-05 6.160689e-06 -1.603494e-05 1.623397e-05 -8.698770e-06 2.205040e-05 -3.974336e-06 2.432942e-05 -1.418872e-06 2.396291e-05 -4.620933e-07 2.185195e-05 -5.231504e-07 1.878839e-05 -1.099630e-06 1.538749e-05 -1.819719e-06 1.206987e-05 -2.455164e-06 9.081596e-06 -2.901844e-06 6.535597e-06 -3.142288e-06 4.456714e-06 -3.206126e-06 2.818629e-06 -3.139851e-06 1.568400e-06 -2.989706e-06 6.404781e-07 -2.795431e-06 -3.561013e-08 -2.590033e-06 -5.304378e-07 -2.401215e-06 -9.110947e-07 -2.251927e-06 -1.238696e-06 -2.159132e-06 -1.567427e-06 -2.130745e-06 -1.945377e-06 -2.160786e-06 
-7.775247e-06 -9.739148e-06 -1.121305e-05 -1.319342e-05 -1.567458e-05 -1.743387e-05 -2.138374e-05 -2.246530e-05 -2.861064e-05 -2.827347e-05 -3.767455e-05 -3.483816e-05 -4.892007e-05 -4.213875e-05 -6.264429e-05 -5.013084e-05 -7.895199e-05 -5.866508e-05 -9.753001e-05 -6.732732e-05 -1.173687e-04 -7.521559e-05 -1.365183e-04 -8.073769e-05 -1.520307e-04 -8.158882e-05 -1.602596e-04 -7.509047e-05 -1.576106e-04 -5.896993e-05 -1.416382e-04 -3.242281e-05 -1.121382e-04 2.962088e-06 -7.174777e-05 4.292826e-05 -2.569191e-05 8.122904e-05 1.932993e-05 1.111273e-04 5.673644e-05 1.271986e-04 8.157817e-05 1.267990e-04 9.151878e-05 1.107371e-04 8.709652e-05 8.301971e-05 7.133701e-05 4.984983e-05 4.893665e-05 1.822880e-05 2.526691e-05 -5.462816e-06 5.406099e-06 -1.661767e-05 -6.662670e-06 -1.312324e-05 -8.608388e-06 4.403129e-06 -2.095789e-08 3.285610e-05 1.763487e-05 6.731387e-05 4.138813e-05 1.020404e-04 6.740863e-05 1.316316e-04 9.180387e-05 1.520374e-04 1.113688e-04 1.611935e-04 1.240951e-04 1.591230e-04 1.293345e-04 1.475539e-04 1.276353e-04 1.292486e-04 1.203670e-04 1.072846e-04 1.092814e-04 8.447115e-05 9.613046e-05 6.299126e-05 8.240717e-05 4.426842e-05 6.922019e-05 2.900498e-05 5.727690e-05 1.732262e-05 4.693456e-05 8.941536e-06 3.828112e-05 3.352809e-06 3.121831e-05 -4.275876e-08 2.553362e-05 -1.838622e-06 2.095931e-05 -2.565206e-06 1.722144e-05 -2.659925e-06 1.408094e-05 -2.453409e-06 1.136270e-05 -2.166787e-06 8.966762e-06 -1.920724e-06 6.857803e-06 -1.757536e-06 5.037537e-06 -1.673311e-06 3.510759e-06 -1.652227e-06 2.257278e-06 -1.694312e-06 1.217146e-06 -1.831253e-06 2.898489e-07 -2.129738e-06 -6.569369e-07 -2.685373e-06 -1.775057e-06 -3.611386e-06 -3.225099e-06 -5.025602e-06 -5.170134e-06 -7.037867e-06 
-2.795631e-06 -2.901948e-06 -3.961867e-06 -3.633275e-06 -5.413630e-06 -4.355116e-06 -7.237376e-06 -4.906123e-06 -9.517938e-06 -5.024597e-06 -1.231242e-05 -4.330738e-06 -1.561481e-05 -2.342833e-06 -1.932925e-05 1.436761e-06 -2.328898e-05 7.326469e-06 -2.737287e-05 1.514134e-05 -3.176211e-05 2.377764e-05 -3.731929e-05 3.084273e-05 -4.594753e-05 3.257750e-05 -6.063714e-05 2.436759e-05 -8.484650e-05 2.023780e-06 -1.210473e-04 -3.633018e-05 -1.687493e-04 -8.840638e-05 -2.228998e-04 -1.469172e-04 -2.737777e-04 -2.005620e-04 -3.089996e-04 -2.368651e-04 -3.171774e-04 -2.459058e-04 -2.918002e-04 -2.234572e-04 -2.337303e-04 -1.723350e-04 -1.513824e-04 -1.016136e-04 -5.867628e-05 -2.419874e-05 2.838217e-05 4.632157e-05 9.537937e-05 9.863141e-05 1.324709e-04 1.257696e-04 1.360415e-04 1.259917e-04 1.088358e-04 1.024031e-04 5.873777e-05 6.166106e-05 -3.330951e-06 1.222088e-05 -6.580806e-05 -3.741178e-05 -1.186625e-04 -8.010618e-05 -1.549618e-04 -1.110389e-04 -1.716105e-04 -1.280634e-04 -1.692138e-04 -1.315338e-04 -1.512263e-04 -1.237049e-04 -1.227156e-04 -1.079146e-04 -8.911618e-05 -8.777722e-05 -5.525648e-05 -6.655142e-05 -2.478626e-05 -4.675935e-05 1.726854e-08 -3.004237e-05 1.816531e-05 -1.719430e-05 2.971434e-05 -8.301260e-06 3.545971e-05 -2.930410e-06 3.662703e-05 -3.308063e-07 3.459508e-05 3.750015e-07 3.067081e-05 2.418275e-08 2.593215e-05 -7.111595e-07 2.114925e-05 -1.389967e-06 1.678265e-05 -1.802875e-06 1.303968e-05 -1.919780e-06 9.958040e-06 -1.812845e-06 7.484859e-06 -1.585983e-06 5.531831e-06 -1.330147e-06 4.003626e-06 -1.106938e-06 2.807794e-06 -9.514992e-07 1.856684e-06 -8.829430e-07 1.068202e-06 -9.139692e-07 3.673305e-07 -1.056223e-06 -3.125310e-07 -1.321308e-06 -1.030080e-06 -1.718511e-06 -1.839380e-06 -2.249850e-06 
-8.774895e-06 -1.120077e-05 -1.291346e-05 -1.561111e-05 -1.821280e-05 -2.098200e-05 -2.494336e-05 -2.731169e-05 -3.346286e-05 -3.457805e-05 -4.424915e-05 -4.277569e-05 -5.790683e-05 -5.195803e-05 -7.510783e-05 -6.224944e-05 -9.641222e-05 -7.376558e-05 -1.219227e-04 -8.637132e-05 -1.507745e-04 -9.925001e-05 -1.805738e-04 -1.103859e-04 -2.070476e-04 -1.162514e-04 -2.242809e-04 -1.121219e-04 -2.258460e-04 -9.332542e-05 -2.067625e-04 -5.726419e-05 -1.656684e-04 -5.407359e-06 -1.061811e-04 5.586813e-05 -3.661039e-05 1.163239e-04 3.204717e-05 1.645795e-04 8.903151e-05 1.914297e-04 1.265033e-04 1.924701e-04 1.411238e-04 1.691719e-04 1.342727e-04 1.282546e-04 1.111553e-04 7.979489e-05 7.928423e-05 3.478401e-05 4.681017e-05 2.819148e-06 2.104703e-05 -9.609192e-06 7.377418e-06 -3.942770e-08 8.595647e-06 2.981436e-05 2.467156e-05 7.458843e-05 5.291825e-05 1.263751e-04 8.857823e-05 1.763019e-04 1.258092e-04 2.163386e-04 1.589076e-04 2.408912e-04 1.834512e-04 2.477053e-04 1.970248e-04 2.378372e-04 1.993552e-04 2.148246e-04 1.919164e-04 1.834617e-04 1.772370e-04 1.486161e-04 1.581741e-04 1.143793e-04 1.373434e-04 8.364078e-05 1.167879e-04 5.802608e-05 9.786995e-05 3.807509e-05 8.132318e-05 2.353436e-05 6.738828e-05 1.366706e-05 5.596811e-05 7.519865e-06 4.676200e-05 4.116324e-06 3.936518e-05 2.571797e-06 3.333977e-05 2.145399e-06 2.827217e-05 2.256393e-06 2.382512e-05 2.488675e-06 1.977817e-05 2.590518e-06 1.604099e-05 2.461360e-06 1.262956e-05 2.116483e-06 9.612187e-06 1.632732e-06 7.047777e-06 1.090754e-06 4.939568e-06 5.310073e-07 3.216701e-06 -6.735976e-08 1.741216e-06 -7.861128e-07 3.295433e-07 -1.753607e-06 -1.223390e-06 -3.124783e-06 -3.125512e-06 -5.061007e-06 -5.577923e-06 -7.712053e-06 