# vtk DataFile Version 2.0
Comment goes here
ASCII

DATASET STRUCTURED_POINTS
FIELD FieldData 1
TIME 1 1 double
0.02500000
DIMENSIONS    128   128   1

ORIGIN    0.000   0.000   0.000
SPACING   0.039062 0.039062   1.000

POINT_DATA   16384
SCALARS Omega double
LOOKUP_TABLE default

-1.854829e-14 -1.035303e-14 1.404185e-14 2.795460e-14 3.329456e-14 3.791379e-14 2.089280e-14 2.010952e-14 1.263976e-14 2.240123e-14 3.260167e-14 5.059347e-14 2.479302e-14 1.246898e-14 1.869654e-15 2.398706e-14 3.809787e-14 3.888854e-14 -1.547034e-14 -1.456342e-14 -2.613973e-14 -3.100985e-15 -9.775497e-15 -4.729868e-14 -8.255689e-15 -2.281619e-14 -4.679885e-14 -3.442811e-14 -5.294220e-14 -1.726929e-14 -4.173874e-14 -2.801372e-15 -2.239426e-14 2.625878e-14 2.272533e-14 5.415433e-14 3.175697e-15 -2.267437e-14 -9.283829e-14 -1.094297e-13 -1.204473e-13 -8.074973e-14 -4.269771e-14 -1.405810e-14 -2.182206e-14 -5.776697e-14 -5.312618e-14 -2.675229e-14 -1.549862e-14 3.688234e-14 4.389990e-14 4.386796e-15 -9.716600e-15 2.666441e-15 -9.070218e-15 -1.063170e-14 1.876755e-14 1.729955e-14 1.799456e-14 1.420061e-14 1.814782e-14 5.601113e-14 -2.655834e-14 5.656219e-14 -6.753912e-15 -1.913858e-14 -1.141037e-13 -6.658083e-14 -8.741907e-14 -6.362164e-14 4.094037e-15 -9.102949e-15 4.864333e-14 -7.600175e-14 -5.270064e-14 -1.728298e-14 -6.492412e-15 5.541474e-14 -2.674600e-15 5.291376e-14 1.976860e-14 5.075944e-14 3.262841e-14 -2.044799e-14 -3.140333e-14 6.641907e-15 5.188486e-14 7.921831e-14 9.402486e-14 8.465909e-14 7.828077e-14 1.243005e-13 1.222628e-13 4.275163e-14 2.835227e-14 -1.935908e-14 1.910887e-17 1.877690e-14 5.789687e-14 5.778546e-14 3.312270e-14 -7.627661e-15 -1.850238e-14 -4.149175e-14 -4.548197e-14 -5.005550e-14 -3.205278e-14 -6.334801e-16 1.754233e-14 -1.000035e-14 -8.689497e-16 1.589316e-14 3.086543e-14 2.039914e-14 4.638801e-15 -4.615497e-14 -5.651851e-14 -4.568366e-14 -2.295005e-14 -2.416501e-14 -1.640991e-14 -1.739808e-14 -1.385417e-14 -6.161148e-15 1.738368e-14 3.109162e-14 2.430190e-14 1.152265e-14 
-1.941284e-06 -3.379837e-06 -1.552118e-06 -3.304201e-06 -1.163938e-06 -3.236918e-06 -8.022215e-07 -3.178843e-06 -4.984517e-07 -3.130160e-06 -2.898041e-07 -3.092089e-06 -2.176356e-07 -3.068963e-06 -3.244313e-07 -3.070204e-06 -6.490542e-07 -3.111428e-06 -1.220426e-06 -3.213792e-06 -2.050143e-06 -3.400750e-06 -3.124916e-06 -3.691874e-06 -4.400061e-06 -4.094171e-06 -5.795495e-06 -4.592457e-06 -7.195743e-06 -5.141327e-06 -8.455300e-06 -5.661919e-06 -9.410259e-06 -6.046282e-06 -9.896183e-06 -6.170802e-06 -9.770914e-06 -5.917708e-06 -8.939345e-06 -5.200983e-06 -7.375754e-06 -3.990898e-06 -5.138571e-06 -2.330776e-06 -2.373148e-06 -3.408486e-07 6.998757e-07 1.792983e-06 3.809951e-06 3.844091e-06 6.671982e-06 5.579135e-06 9.025558e-06 6.794569e-06 1.067108e-05 7.348760e-06 1.149646e-05 7.183997e-06 1.148994e-05 6.334836e-06 1.073720e-05 4.921725e-06 9.403677e-06 3.131302e-06 7.705413e-06 1.186894e-06 5.873881e-06 -6.856817e-07 4.121084e-06 -2.291005e-06 2.611227e-06 -3.489851e-06 1.443692e-06 -4.213524e-06 6.494025e-07 -4.464940e-06 1.995346e-07 -4.307651e-06 2.286822e-08 -3.846557e-06 2.673269e-08 -3.205360e-06 1.166643e-07 -2.505579e-06 2.113059e-07 -1.850571e-06 2.510337e-07 -1.316100e-06 2.005770e-07 -9.472547e-07 4.707209e-08 -7.603951e-07 -2.045793e-07 -7.483432e-07 -5.373254e-07 -8.870794e-07 -9.273090e-07 -1.142579e-06 -1.348244e-06 -1.476865e-06 -1.774576e-06 -1.852768e-06 -2.183486e-06 -2.237237e-06 -2.555941e-06 -2.603267e-06 -2.877039e-06 -2.930689e-06 -3.135910e-06 -3.206114e-06 -3.325337e-06 -3.422344e-06 -3.441261e-06 -3.577493e-06 -3.482266e-06 -3.674006e-06 -3.449095e-06 -3.717660e-06 -3.344259e-06 -3.716615e-06 -3.171783e-06 -3.680487e-06 -2.937125e-06 -3.619459e-06 -2.647336e-06 -3.543427e-06 -2.311473e-06 -3.461202e-06 
-5.131165e-06 -8.270617e-06 -4.850470e-06 -8.682424e-06 -4.672853e-06 -9.209890e-06 -4.633062e-06 -9.831545e-06 -4.764043e-06 -1.050830e-05 -5.093187e-06 -1.118412e-05 -5.637433e-06 -1.178941e-05 -6.397712e-06 -1.224752e-05 -7.353632e-06 -1.248393e-05 -8.459609e-06 -1.243689e-05 -9.643708e-06 -1.206765e-05 -1.081013e-05 -1.136744e-05 -1.184546e-05 -1.035921e-05 -1.262806e-05 -9.092655e-06 -1.303904e-05 -7.633316e-06 -1.297350e-05 -6.048894e-06 -1.235114e-05 -4.397283e-06 -1.112629e-05 -2.721230e-06 -9.297837e-06 -1.052438e-06 -6.918801e-06 5.758047e-07 -4.103412e-06 2.112489e-06 -1.027834e-06 3.476903e-06 2.080073e-06 4.558152e-06 4.964700e-06 5.229964e-06 7.379166e-06 5.378910e-06 9.128158e-06 4.938641e-06 1.010715e-05 3.919451e-06 1.032704e-05 2.422885e-06 9.915845e-06 6.351243e-07 9.095020e-06 -1.200761e-06 8.134904e-06 -2.827212e-06 7.299784e-06 -4.018563e-06 6.795985e-06 -4.620051e-06 6.735194e-06 -4.570998e-06 7.120460e-06 -3.908677e-06 7.855885e-06 -2.754525e-06 8.774989e-06 -1.288013e-06 9.679027e-06 2.851174e-07 1.037580e-05 1.763965e-06 1.071129e-05 2.978225e-06 1.058967e-05 3.805727e-06 9.980271e-06 4.180672e-06 8.913208e-06 4.093043e-06 7.466406e-06 3.580815e-06 5.748116e-06 2.717438e-06 3.878566e-06 1.597321e-06 1.973872e-06 3.217917e-07 1.342030e-07 -1.012602e-06 -1.563021e-06 -2.322439e-06 -3.065187e-06 -3.542181e-06 -4.342859e-06 -4.625743e-06 -5.385814e-06 -5.545629e-06 -6.198121e-06 -6.290529e-06 -6.793323e-06 -6.862231e-06 -7.190415e-06 -7.272517e-06 -7.410926e-06 -7.540462e-06 -7.477123e-06 -7.690335e-06 -7.411125e-06 -7.750076e-06 -7.234714e-06 -7.750201e-06 -6.969566e-06 -7.722902e-06 -6.637734e-06 -7.701096e-06 -6.262239e-06 -7.717204e-06 -5.867698e-06 -7.801471e-06 -5.480893e-06 -7.979728e-06 
-6.007395e-06 -1.022214e-05 -4.850105e-06 -1.001438e-05 -3.689210e-06 -9.834202e-06 -2.599890e-06 -9.682846e-06 -1.676214e-06 -9.558891e-06 -1.030610e-06 -9.463487e-06 -7.896257e-07 -9.406937e-06 -1.084855e-06 -9.415199e-06 -2.038446e-06 -9.533987e-06 -3.743543e-06 -9.827580e-06 -6.241187e-06 -1.036962e-05 -9.496488e-06 -1.122446e-05 -1.337789e-05 -1.242021e-05 -1.764412e-05 -1.391798e-05 -2.194340e-05 -1.558549e-05 -2.582931e-05 -1.718495e-05 -2.879591e-05 -1.838487e-05 -3.033256e-05 -1.880062e-05 -2.999439e-05 -1.806125e-05 -2.747960e-05 -1.589124e-05 -2.269968e-05 -1.218855e-05 -1.582668e-05 -7.078624e-06 -7.303083e-06 -9.278714e-07 2.193153e-06 5.690567e-06 1.182672e-05 1.207417e-05 2.071431e-05 1.749691e-05 2.804629e-05 2.132302e-05 3.319905e-05 2.310724e-05 3.581844e-05 2.266385e-05 3.586060e-05 2.009354e-05 3.358430e-05 1.576472e-05 2.949722e-05 1.025319e-05 2.426630e-05 4.250857e-06 1.860843e-05 -1.540955e-06 1.318137e-05 -6.514662e-06 8.494959e-06 -1.023764e-05 4.857660e-06 -1.249728e-05 2.365503e-06 -1.330402e-05 9.298375e-07 -1.285618e-05 3.319893e-07 -1.147898e-05 2.885708e-07 -9.553753e-06 5.120549e-07 -7.452959e-06 7.560030e-07 -5.491350e-06 8.406421e-07 -3.897856e-06 6.600529e-07 -2.807110e-06 1.756896e-07 -2.266222e-06 -5.979313e-07 -2.251171e-06 -1.610188e-06 -2.687500e-06 -2.790315e-06 -3.471204e-06 -4.060387e-06 -4.487082e-06 -5.344685e-06 -5.623079e-06 -6.575628e-06 -6.780143e-06 -7.696893e-06 -7.877886e-06 -8.664476e-06 -8.856759e-06 -9.446368e-06 -9.677712e-06 -1.002144e-05 -1.032027e-05 -1.037797e-05 -1.077978e-05 -1.051200e-05 -1.106446e-05 -1.042593e-05 -1.119235e-05 -1.012720e-05 -1.118847e-05 -9.627539e-06 -1.108214e-05 -8.942616e-06 -1.090426e-05 -8.092503e-06 -1.068481e-05 -7.102925e-06 -1.045039e-05 
-1.057800e-05 -1.665068e-05 -1.004253e-05 -1.752224e-05 -9.709487e-06 -1.864210e-05 -9.649522e-06 -1.996855e-05 -9.931235e-06 -2.142269e-05 -1.061359e-05 -2.288881e-05 -1.173558e-05 -2.422062e-05 -1.330399e-05 -2.525403e-05 -1.528120e-05 -2.582631e-05 -1.757575e-05 -2.579920e-05 -2.003878e-05 -2.508184e-05 -2.246874e-05 -2.364784e-05 -2.462516e-05 -2.154120e-05 -2.624981e-05 -1.886747e-05 -2.709178e-05 -1.577110e-05 -2.693257e-05 -1.240496e-05 -2.560838e-05 -8.902122e-06 -2.302973e-05 -5.361126e-06 -1.919971e-05 -1.851943e-06 -1.423148e-05 1.558307e-06 -8.361819e-06 4.770284e-06 -1.952873e-06 7.624783e-06 4.527634e-06 9.899024e-06 1.055441e-05 1.133576e-05 1.561909e-05 1.170170e-05 1.931883e-05 1.085961e-05 2.143809e-05 8.830908e-06 2.200021e-05 5.826613e-06 2.127083e-05 2.233025e-06 1.970765e-05 -1.447673e-06 1.786605e-05 -4.687528e-06 1.628352e-05 -7.030195e-06 1.537164e-05 -8.170961e-06 1.534209e-05 -8.001658e-06 1.618181e-05 -6.614234e-06 1.767833e-05 -4.268160e-06 1.948280e-05 -1.334217e-06 2.119112e-05 1.770781e-06 2.242281e-05 4.645897e-06 2.288261e-05 6.956040e-06 2.239699e-05 8.465296e-06 2.092443e-05 9.052030e-06 1.854344e-05 8.706724e-06 1.542472e-05 7.515638e-06 1.179516e-05 5.635020e-06 7.900953e-06 3.261285e-06 3.975669e-06 6.022826e-07 2.172945e-07 -2.146476e-06 -3.224444e-06 -4.818481e-06 -6.251115e-06 -7.285340e-06 -8.811247e-06 -9.459223e-06 -1.089149e-05 -1.129031e-05 -1.250610e-05 -1.276124e-05 -1.368694e-05 -1.388030e-05 -1.447534e-05 -1.467484e-05 -1.491636e-05 -1.518580e-05 -1.505545e-05 -1.546351e-05 -1.493698e-05 -1.556495e-05 -1.460402e-05 -1.555175e-05 -1.409899e-05 -1.548873e-05 -1.346473e-05 -1.544227e-05 -1.274576e-05 -1.547809e-05 -1.198958e-05 -1.565802e-05 -1.124796e-05 -1.603566e-05 
-1.063254e-05 -1.730635e-05 -8.741060e-06 -1.702519e-05 -6.821733e-06 -1.679942e-05 -4.995292e-06 -1.662676e-05 -3.416850e-06 -1.649822e-05 -2.276446e-06 -1.640706e-05 -1.793094e-06 -1.636085e-05 -2.200034e-06 -1.639431e-05 -3.719842e-06 -1.657891e-05 -6.529779e-06 -1.702376e-05 -1.072003e-05 -1.786228e-05 -1.624993e-05 -1.922109e-05 -2.290925e-05 -2.117201e-05 -3.029273e-05 -2.367451e-05 -3.779624e-05 -2.652311e-05 -4.464198e-05 -2.931877e-05 -4.993806e-05 -3.148312e-05 -5.277346e-05 -3.232684e-05 -5.234264e-05 -3.116921e-05 -4.808453e-05 -2.748840e-05 -3.981133e-05 -2.106797e-05 -2.779758e-05 -1.210038e-05 -1.280269e-05 -1.216014e-06 3.987853e-06 1.057560e-05 2.109948e-05 2.202398e-05 3.696247e-05 3.182775e-05 5.012862e-05 3.883917e-05 5.947211e-05 4.224460e-05 6.434016e-05 4.169005e-05 6.462922e-05 3.733232e-05 6.077586e-05 2.980942e-05 5.366548e-05 2.013623e-05 4.447508e-05 9.542714e-06 3.447805e-05 -7.181853e-07 2.484697e-05 -9.558678e-06 1.649152e-05 -1.620526e-05 9.961339e-06 -2.028116e-05 5.427016e-06 -2.181039e-05 2.732565e-06 -2.115106e-05 1.495974e-06 -1.888205e-05 1.226772e-06 -1.567423e-05 1.432348e-06 -1.217495e-05 1.694762e-06 -8.924085e-06 1.711959e-06 -6.308069e-06 1.307253e-06 -4.548687e-06 4.163500e-07 -3.717603e-06 -9.376697e-07 -3.766418e-06 -2.672790e-06 -4.563109e-06 -4.674254e-06 -5.928045e-06 -6.815657e-06 -7.665186e-06 -8.974129e-06 -9.586142e-06 -1.104003e-05 -1.152639e-05 -1.292210e-05 -1.335423e-05 -1.454930e-05 -1.497376e-05 -1.587027e-05 -1.632371e-05 -1.685156e-05 -1.737372e-05 -1.747508e-05 -1.811943e-05 -1.773537e-05 -1.857735e-05 -1.763698e-05 -1.877988e-05 -1.719223e-05 -1.877058e-05 -1.641956e-05 -1.859980e-05 -1.534287e-05 -1.832032e-05 -1.399209e-05 -1.798315e-05 -1.240531e-05 -1.763334e-05 
-1.666738e-05 -2.523023e-05 -1.593301e-05 -2.665694e-05 -1.549264e-05 -2.850033e-05 -1.545487e-05 -3.070191e-05 -1.592940e-05 -3.314247e-05 -1.701556e-05 -3.564018e-05 -1.878560e-05 -3.795783e-05 -2.126341e-05 -3.982152e-05 -2.440196e-05 -4.095107e-05 -2.806438e-05 -4.109910e-05 -3.201471e-05 -4.009242e-05 -3.592404e-05 -3.786591e-05 -3.939414e-05 -3.447864e-05 -4.199623e-05 -3.010429e-05 -4.331749e-05 -2.499507e-05 -4.300627e-05 -1.942772e-05 -4.080898e-05 -1.364909e-05 -3.659773e-05 -7.842274e-06 -3.039265e-05 -2.129038e-06 -2.238312e-05 3.390365e-06 -1.294597e-05 8.576377e-06 -2.649424e-06 1.319783e-05 7.774235e-06 1.691827e-05 1.750025e-05 1.933808e-05 2.572705e-05 2.008792e-05 3.181707e-05 1.894716e-05 3.542890e-05 1.594809e-05 3.660139e-05 1.142757e-05 3.575911e-05 6.002533e-06 3.362900e-05 4.699060e-07 3.108429e-05 -4.343733e-06 2.895463e-05 -7.741441e-06 2.785259e-05 -9.281347e-06 2.806100e-05 -8.839253e-06 2.950554e-05 -6.601411e-06 3.181011e-05 -3.001004e-06 3.440958e-05 1.376908e-06 3.668330e-05 5.897144e-06 3.807583e-05 9.964921e-06 3.818309e-05 1.309548e-05 3.679640e-05 1.495885e-05 3.390726e-05 1.539902e-05 2.968135e-05 1.442861e-05 2.441229e-05 1.220296e-05 1.846579e-05 8.979835e-06 1.222416e-05 5.072741e-06 6.039662e-06 8.061616e-07 2.018527e-07 -3.521123e-06 -5.078904e-06 -7.660979e-06 -9.673210e-06 -1.142848e-05 -1.352337e-05 -1.470373e-05 -1.662780e-05 -1.742584e-05 -1.902357e-05 -1.958253e-05 -2.077052e-05 -2.119840e-05 -2.193888e-05 -2.232409e-05 -2.260111e-05 -2.302778e-05 -2.282755e-05 -2.338932e-05 -2.268487e-05 -2.349653e-05 -2.223647e-05 -2.344317e-05 -2.154377e-05 -2.332736e-05 -2.066801e-05 -2.324990e-05 -1.967220e-05 -2.331149e-05 -1.862334e-05 -2.360839e-05 -1.759458e-05 -2.422600e-05 
-1.621730e-05 -2.477267e-05 -1.365970e-05 -2.452020e-05 -1.101754e-05 -2.436853e-05 -8.448867e-06 -2.430594e-05 -6.165826e-06 -2.430583e-05 -4.438753e-06 -2.433960e-05 -3.590624e-06 -2.439553e-05 -3.977602e-06 -2.450120e-05 -5.952845e-06 -2.474320e-05 -9.813538e-06 -2.527550e-05 -1.573507e-05 -2.630625e-05 -2.370053e-05 -2.805514e-05 -3.343703e-05 -3.068019e-05 -4.437186e-05 -3.418307e-05 -5.562135e-05 -3.831534e-05 -6.602348e-05 -4.251737e-05 -7.422267e-05 -4.592406e-05 -7.881004e-05 -4.746069e-05 -7.851295e-05 -4.602863e-05 -7.241250e-05 -4.074936e-05 -6.015136e-05 -3.120902e-05 -4.208319e-05 -1.763597e-05 -1.931870e-05 -9.570537e-07 6.357628e-06 1.728970e-05 3.269543e-05 3.517074e-05 5.727700e-05 5.065525e-05 7.785210e-05 6.193522e-05 9.264944e-05 6.770818e-05 1.006130e-04 6.737578e-05 1.015270e-04 6.112989e-05 9.601189e-05 4.991559e-05 8.539386e-05 3.527760e-05 7.146823e-05 1.911284e-05 5.619676e-05 3.368727e-06 4.139504e-05 -1.025853e-05 2.847253e-05 -2.056584e-05 1.827716e-05 -2.697624e-05 1.106844e-05 -2.954144e-05 6.606894e-06 -2.882807e-05 4.317763e-06 -2.573083e-05 3.475758e-06 -2.126707e-05 3.364981e-06 -1.639959e-05 3.388024e-06 -1.191472e-05 3.119129e-06 -8.361563e-06 2.311255e-06 -6.043360e-06 8.733014e-07 -5.045171e-06 -1.166769e-06 -5.281589e-06 -3.701342e-06 -6.551522e-06 -6.578360e-06 -8.590884e-06 -9.629415e-06 -1.111744e-05 -1.269016e-05 -1.386477e-05 -1.561362e-05 -1.660451e-05 -1.827756e-05 -1.915776e-05 -2.058720e-05 -2.139791e-05 -2.247480e-05 -2.324750e-05 -2.389716e-05 -2.467203e-05 -2.483211e-05 -2.567244e-05 -2.527452e-05 -2.627766e-05 -2.523233e-05 -2.653772e-05 -2.472293e-05 -2.651742e-05 -2.377037e-05 -2.629041e-05 -2.240386e-05 -2.593342e-05 -2.065824e-05 -2.552040e-05 -1.857688e-05 -2.511656e-05 
-2.374895e-05 -3.405899e-05 -2.291032e-05 -3.618199e-05 -2.244486e-05 -3.894798e-05 -2.250144e-05 -4.228956e-05 -2.323882e-05 -4.604929e-05 -2.481101e-05 -4.997162e-05 -2.734277e-05 -5.370783e-05 -3.089587e-05 -5.683887e-05 -3.542998e-05 -5.891823e-05 -4.076660e-05 -5.953264e-05 -4.656751e-05 -5.837137e-05 -5.233937e-05 -5.528938e-05 -5.747100e-05 -5.034545e-05 -6.130036e-05 -4.379902e-05 -6.319720e-05 -3.605906e-05 -6.264143e-05 -2.759486e-05 -5.928051e-05 -1.883643e-05 -5.296154e-05 -1.010231e-05 -4.374779e-05 -1.587162e-06 -3.193403e-05 6.582293e-06 -1.806550e-05 1.424692e-05 -2.946929e-06 2.111979e-05 1.238654e-05 2.674879e-05 2.676191e-05 3.056913e-05 3.902970e-05 3.204107e-05 4.826890e-05 3.083179e-05 5.398421e-05 2.697818e-05 5.623404e-05 2.096843e-05 5.563947e-05 1.370344e-05 5.325627e-05 6.338791e-06 5.033432e-05 4.957210e-08 4.802765e-05 -4.212093e-06 4.713714e-05 -5.895846e-06 4.795776e-05 -4.923778e-06 5.026609e-05 -1.649908e-06 5.343554e-05 3.258659e-06 5.662797e-05 8.971242e-06 5.899648e-05 1.463403e-05 5.984726e-05 1.948109e-05 5.873594e-05 2.291221e-05 5.549984e-05 2.454035e-05 5.024062e-05 2.421068e-05 4.327448e-05 2.199145e-05 3.506354e-05 1.813831e-05 2.614015e-05 1.303840e-05 1.703449e-05 7.144689e-06 8.215240e-06 9.127164e-07 5.013027e-08 -5.250432e-06 -7.211148e-06 -1.101930e-05 -1.343382e-05 -1.616451e-05 -1.858031e-05 -2.055127e-05 -2.268495e-05 -2.412690e-05 -2.582754e-05 -2.690270e-05 -2.811060e-05 -2.893519e-05 -2.964288e-05 -3.031006e-05 -3.052949e-05 -3.113054e-05 -3.086765e-05 -3.151035e-05 -3.074628e-05 -3.157027e-05 -3.024764e-05 -3.143693e-05 -2.944976e-05 -3.124229e-05 -2.842904e-05 -3.112268e-05 -2.726295e-05 -3.121626e-05 -2.603303e-05 -3.165808e-05 -2.482827e-05 -3.257200e-05 
-2.320354e-05 -3.272621e-05 -2.010101e-05 -3.265335e-05 -1.681293e-05 -3.275881e-05 -1.352023e-05 -3.301461e-05 -1.048316e-05 -3.336284e-05 -8.053112e-06 -3.373163e-05 -6.671435e-06 -3.406256e-05 -6.847602e-06 -3.434699e-05 -9.110999e-06 -3.466375e-05 -1.393487e-05 -3.520451e-05 -2.163772e-05 -3.626957e-05 -3.227479e-05 -3.821779e-05 -4.553804e-05 -4.136334e-05 -6.068470e-05 -4.582817e-05 -7.651260e-05 -5.138136e-05 -9.139706e-05 -5.731606e-05 -1.034009e-04 -6.242382e-05 -1.104653e-04 -6.511338e-05 -1.106793e-04 -6.368383e-05 -1.026025e-04 -5.670684e-05 -8.558677e-05 -4.342340e-05 -6.002009e-05 -2.404006e-05 -2.741563e-05 1.673491e-07 9.696673e-06 2.697826e-05 4.807056e-05 5.355157e-05 8.418068e-05 7.687334e-05 1.147131e-04 9.423315e-05 1.370217e-04 1.036426e-04 1.494775e-04 1.041318e-04 1.516626e-04 9.588739e-05 1.443843e-04 8.021515e-05 1.295056e-04 5.933276e-05 1.096133e-04 3.601461e-05 8.757312e-05 1.314067e-05 6.605520e-05 -6.769103e-06 4.713105e-05 -2.193489e-05 3.203464e-05 -3.152420e-05 2.112999e-05 -3.564679e-05 1.406208e-05 -3.516346e-05 1.001596e-05 -3.138688e-05 7.993133e-06 -2.576802e-05 7.035011e-06 -1.964173e-05 6.361202e-06 -1.406600e-05 5.425478e-06 -9.754467e-06 3.911904e-06 -7.080416e-06 1.697985e-06 -6.125535e-06 -1.193927e-06 -6.750274e-06 -4.644274e-06 -8.669712e-06 -8.477435e-06 -1.152447e-05 -1.249480e-05 -1.494018e-05 -1.649978e-05 -1.857167e-05 -2.031506e-05 -2.213069e-05 -2.379285e-05 -2.539854e-05 -2.681914e-05 -2.822692e-05 -2.931370e-05 -3.053141e-05 -3.122715e-05 -3.228157e-05 -3.253655e-05 -3.349039e-05 -3.324008e-05 -3.420457e-05 -3.335144e-05 -3.449601e-05 -3.289434e-05 -3.445424e-05 -3.189785e-05 -3.417941e-05 -3.039345e-05 -3.377541e-05 -2.841471e-05 -3.334256e-05 -2.600068e-05 -3.296977e-05 
-3.220727e-05 -4.312279e-05 -3.141310e-05 -4.612438e-05 -3.105357e-05 -5.008026e-05 -3.131902e-05 -5.493019e-05 -3.242723e-05 -6.048728e-05 -3.460745e-05 -6.641736e-05 -3.806768e-05 -7.223514e-05 -4.294342e-05 -7.732666e-05 -4.923237e-05 -8.100493e-05 -5.672760e-05 -8.259889e-05 -6.496996e-05 -8.156574e-05 -7.324337e-05 -7.760419e-05 -8.063013e-05 -7.073697e-05 -8.612459e-05 -6.132952e-05 -8.878012e-05 -5.002461e-05 -8.784723e-05 -3.759922e-05 -8.286356e-05 -2.478537e-05 -7.368261e-05 -1.212255e-05 -6.046247e-05 9.217386e-08 -4.365357e-05 1.172885e-05 -2.401028e-05 2.265743e-05 -2.612518e-06 3.257281e-05 1.915028e-05 4.090662e-05 3.968409e-05 4.688500e-05 5.740319e-05 4.972847e-05 7.101952e-05 4.892940e-05 7.983234e-05 4.450625e-05 8.392231e-05 3.713377e-05 8.416905e-05 2.808495e-05 8.205920e-05 1.898365e-05 7.932070e-05 1.143817e-05 7.748436e-05 6.674650e-06 7.750844e-05 5.290790e-06 7.958444e-05 7.198737e-06 8.317558e-05 1.174592e-05 8.725131e-05 1.793726e-05 9.061340e-05 2.466510e-05 9.219495e-05 3.088457e-05 9.125345e-05 3.572119e-05 8.744203e-05 3.853056e-05 8.078969e-05 3.893220e-05 7.163341e-05 3.682489e-05 6.053207e-05 3.237706e-05 4.817541e-05 2.598504e-05 3.529305e-05 1.820172e-05 2.257044e-05 9.648660e-06 1.058124e-05 9.302648e-07 -2.547841e-07 -7.434255e-06 -9.684674e-06 -1.505227e-05 -1.760905e-05 -2.167146e-05 -2.405084e-05 -2.717070e-05 -2.911603e-05 -3.153605e-05 -3.295550e-05 -3.483055e-05 -3.573443e-05 -3.716533e-05 -3.761210e-05 -3.867699e-05 -3.873209e-05 -3.951323e-05 -3.922016e-05 -3.982604e-05 -3.918680e-05 -3.977038e-05 -3.873132e-05 -3.950548e-05 -3.794580e-05 -3.919689e-05 -3.691845e-05 -3.901739e-05 -3.573662e-05 -3.914567e-05 -3.449031e-05 -3.976168e-05 -3.327689e-05 -4.103750e-05 
-3.208936e-05 -4.121561e-05 -2.864631e-05 -4.152803e-05 -2.486342e-05 -4.215123e-05 -2.092077e-05 -4.303591e-05 -1.710881e-05 -4.407680e-05 -1.385486e-05 -4.512922e-05 -1.173327e-05 -4.604542e-05 -1.144631e-05 -4.673060e-05 -1.376445e-05 -4.721008e-05 -1.942073e-05 -4.768826e-05 -2.896562e-05 -4.857057e-05 -4.260225e-05 -5.041716e-05 -6.003175e-05 -5.380706e-05 -8.034076e-05 -5.911582e-05 -1.019560e-04 -6.624634e-05 -1.226818e-04 -7.439094e-05 -1.398332e-04 -8.192775e-05 -1.504795e-04 -8.654595e-05 -1.518095e-04 -8.563719e-05 -1.415986e-04 -7.689338e-05 -1.187041e-04 -5.895344e-05 -8.346366e-05 -3.189891e-05 -3.786469e-05 2.561425e-06 1.459179e-05 4.127342e-05 6.932238e-05 8.012799e-05 1.212952e-04 1.147283e-04 1.657351e-04 1.410851e-04 1.987727e-04 1.562175e-04 2.179438e-04 1.585810e-04 2.224800e-04 1.482800e-04 2.133628e-04 1.270473e-04 1.931248e-04 9.798394e-05 1.654066e-04 6.506995e-05 1.343187e-04 3.250182e-05 1.037233e-04 3.975330e-06 7.660854e-05 -1.791592e-05 5.472058e-05 -3.200468e-05 3.853483e-05 -3.852255e-05 2.751864e-05 -3.877181e-05 2.054487e-05 -3.464335e-05 1.629822e-05 -2.814457e-05 1.356972e-05 -2.104968e-05 1.140990e-05 -1.470836e-05 9.166941e-06 -9.990237e-06 6.457782e-06 -7.318587e-06 3.113770e-06 -6.750249e-06 -8.746641e-07 -8.072608e-06 -5.405771e-06 -1.090169e-05 -1.030686e-05 -1.477222e-05 -1.536922e-05 -1.921303e-05 -2.037784e-05 -2.380229e-05 -2.513442e-05 -2.820027e-05 -2.947233e-05 -3.216107e-05 -3.326371e-05 -3.552875e-05 -3.642047e-05 -3.822493e-05 -3.889147e-05 -4.023388e-05 -4.065742e-05 -4.158870e-05 -4.172435e-05 -4.235981e-05 -4.211601e-05 -4.264558e-05 -4.186574e-05 -4.256428e-05 -4.100891e-05 -4.224664e-05 -3.957725e-05 -4.182837e-05 -3.759677e-05 -4.144174e-05 -3.509078e-05 -4.120596e-05 
-4.247483e-05 -5.231656e-05 -4.195254e-05 -5.641023e-05 -4.190313e-05 -6.188715e-05 -4.255587e-05 -6.872442e-05 -4.419759e-05 -7.672834e-05 -4.716024e-05 -8.549104e-05 -5.178133e-05 -9.436621e-05 -5.833028e-05 -1.024812e-04 -6.690227e-05 -1.088015e-04 -7.729711e-05 -1.122552e-04 -8.891843e-05 -1.119095e-04 -1.007405e-04 -1.071682e-04 -1.113833e-04 -9.793977e-05 -1.193039e-04 -8.471038e-05 -1.230620e-04 -6.847340e-05 -1.215720e-04 -5.050469e-05 -1.142527e-04 -3.204232e-05 -1.010357e-04 -1.399145e-05 -8.227708e-05 3.209897e-06 -5.866958e-05 1.949110e-05 -3.122909e-05 3.486056e-05 -1.348566e-06 4.907823e-05 2.916956e-05 6.146403e-05 5.820720e-05 7.095157e-05 8.360130e-05 7.638445e-05 1.035529e-04 7.694954e-05 1.170593e-04 7.258443e-05 1.242175e-04 6.419447e-05 1.262649e-04 5.356932e-05 1.252932e-04 4.299076e-05 1.236847e-04 3.464670e-05 1.234353e-04 3.006022e-05 1.255939e-04 2.974890e-05 1.300248e-04 3.322858e-05 1.355706e-04 3.931367e-05 1.405251e-04 4.653859e-05 1.432014e-04 5.351035e-05 1.423692e-04 5.909465e-05 1.374423e-04 6.245810e-05 1.284415e-04 6.305178e-05 1.158424e-04 6.060432e-05 1.004099e-04 5.513642e-05 8.306804e-05 4.696702e-05 6.479829e-05 3.667866e-05 4.655040e-05 2.503320e-05 2.915817e-05 1.285620e-05 1.327038e-05 9.208186e-07 -6.885439e-07 -1.014215e-05 -1.252112e-05 -1.989384e-05 -2.222618e-05 -2.809601e-05 -2.994686e-05 -3.468729e-05 -3.591165e-05 -3.973973e-05 -4.038096e-05 -4.340959e-05 -4.360767e-05 -4.589386e-05 -4.581491e-05 -4.739974e-05 -4.718946e-05 -4.812898e-05 -4.788564e-05 -4.827447e-05 -4.803374e-05 -4.802400e-05 -4.774824e-05 -4.756700e-05 -4.713358e-05 -4.710081e-05 -4.628750e-05 -4.683493e-05 -4.530333e-05 -4.699203e-05 -4.427322e-05 -4.780482e-05 -4.329371e-05 -4.950696e-05 
-4.344128e-05 -5.020463e-05 -3.999011e-05 -5.116631e-05 -3.598905e-05 -5.266084e-05 -3.157980e-05 -5.461936e-05 -2.705013e-05 -5.687487e-05 -2.288541e-05 -5.917285e-05 -1.980245e-05 -6.121393e-05 -1.874376e-05 -6.273491e-05 -2.081004e-05 -6.362173e-05 -2.711702e-05 -6.402908e-05 -3.858235e-05 -6.446063e-05 -5.567360e-05 -6.575238e-05 -7.816898e-05 -6.890990e-05 -1.049847e-04 -7.478422e-05 -1.341042e-04 -8.362988e-05 -1.626166e-04 -9.465917e-05 -1.868680e-04 -1.057676e-04 -2.027467e-04 -1.136181e-04 -2.061509e-04 -1.141909e-04 -1.936532e-04 -1.037312e-04 -1.632706e-04 -7.982790e-05 -1.151310e-04 -4.225601e-05 -5.179397e-05 6.702834e-06 2.191995e-05 6.254761e-05 9.956355e-05 1.193249e-04 1.739949e-04 1.706353e-04 2.383878e-04 2.106408e-04 2.871377e-04 2.349063e-04 3.165495e-04 2.409929e-04 3.252588e-04 2.287770e-04 3.143631e-04 2.004791e-04 2.872289e-04 1.603741e-04 2.489361e-04 1.141486e-04 2.053747e-04 6.793415e-05 1.621427e-04 2.718275e-05 1.235443e-04 -4.313759e-06 9.201097e-05 -2.494584e-05 6.810258e-05 -3.520075e-05 5.098875e-05 -3.707724e-05 3.912703e-05 -3.329010e-05 3.085538e-05 -2.656154e-05 2.475002e-05 -1.916566e-05 1.975017e-05 -1.273861e-05 1.513590e-05 -8.275397e-06 1.045351e-05 -6.219762e-06 5.447084e-06 -6.583606e-06 1.422050e-08 -9.068320e-06 -5.822229e-06 -1.318126e-05 -1.194095e-05 -1.834457e-05 -1.815532e-05 -2.398930e-05 -2.425097e-05 -2.962465e-05 -3.001982e-05 -3.487558e-05 -3.528399e-05 -3.949025e-05 -3.990769e-05 -4.332650e-05 -4.380017e-05 -4.632980e-05 -4.691347e-05 -4.851178e-05 -4.923747e-05 -4.993386e-05 -5.079259e-05 -5.069557e-05 -5.161998e-05 -5.092588e-05 -5.176967e-05 -5.077588e-05 -5.128832e-05 -5.041174e-05 -5.020900e-05 -5.000729e-05 -4.854553e-05 -4.973540e-05 -4.629362e-05 -4.975670e-05 
-5.504566e-05 -6.141450e-05 -5.513978e-05 -6.682567e-05 -5.571758e-05 -7.420454e-05 -5.703642e-05 -8.361826e-05 -5.945796e-05 -9.491445e-05 -6.344953e-05 -1.076393e-04 -6.954499e-05 -1.209732e-04 -7.824579e-05 -1.337117e-04 -8.985479e-05 -1.443261e-04 -1.042615e-04 -1.511265e-04 -1.207356e-04 -1.525299e-04 -1.378194e-04 -1.473975e-04 -1.534133e-04 -1.353584e-04 -1.650939e-04 -1.170072e-04 -1.706007e-04 -9.385941e-05 -1.683184e-04 -6.800941e-05 -1.575477e-04 -4.155950e-05 -1.384596e-04 -1.603412e-05 -1.118204e-04 7.938935e-06 -7.871687e-05 3.049851e-05 -4.048235e-05 5.202972e-05 1.168555e-06 7.253650e-05 4.397432e-05 9.124432e-05 8.515328e-05 1.066361e-04 1.217379e-04 1.169114e-04 1.511663e-04 1.206872e-04 1.719488e-04 1.176726e-04 1.841651e-04 1.090494e-04 1.895646e-04 9.736337e-05 1.911441e-04 8.589064e-05 1.922565e-04 7.766300e-05 1.955211e-04 7.452955e-05 2.019459e-04 7.666480e-05 2.106362e-04 8.273499e-05 2.192301e-04 9.059005e-05 2.248553e-04 9.808155e-05 2.251523e-04 1.036049e-04 2.189134e-04 1.062147e-04 2.061594e-04 1.054483e-04 1.878021e-04 1.011125e-04 1.651993e-04 9.319651e-05 1.398251e-04 8.191417e-05 1.131087e-04 6.777502e-05 8.637078e-05 5.158920e-05 6.077571e-05 3.437555e-05 3.726829e-05 1.720554e-05 1.651061e-05 1.041348e-06 -1.149835e-06 -1.338464e-05 -1.566452e-05 -2.562723e-05 -2.722573e-05 -3.552471e-05 -3.618388e-05 -4.314912e-05 -4.296097e-05 -4.873095e-05 -4.797749e-05 -5.258001e-05 -5.160355e-05 -5.502075e-05 -5.413816e-05 -5.635321e-05 -5.581205e-05 -5.684008e-05 -5.680425e-05 -5.671264e-05 -5.726135e-05 -5.618545e-05 -5.731196e-05 -5.547209e-05 -5.707381e-05 -5.479776e-05 -5.665522e-05 -5.440789e-05 -5.615451e-05 -5.457267e-05 -5.566087e-05 -5.558687e-05 -5.525993e-05 -5.776298e-05 
-5.790054e-05 -5.953465e-05 -5.496599e-05 -6.146465e-05 -5.122647e-05 -6.428925e-05 -4.672878e-05 -6.793786e-05 -4.170117e-05 -7.217807e-05 -3.664534e-05 -7.660635e-05 -3.241459e-05 -8.068681e-05 -3.024252e-05 -8.385849e-05 -3.167993e-05 -8.571473e-05 -3.840630e-05 -8.622582e-05 -5.191455e-05 -8.593504e-05 -7.311742e-05 -8.602612e-05 -1.019697e-04 -8.815992e-05 -1.372075e-04 -9.402290e-05 -1.762595e-04 -1.046193e-04 -2.153092e-04 -1.194596e-04 -2.494585e-04 -1.359317e-04 -2.730116e-04 -1.492198e-04 -2.800089e-04 -1.530522e-04 -2.651458e-04 -1.412371e-04 -2.249979e-04 -1.095186e-04 -1.591797e-04 -5.705037e-05 -7.095596e-05 1.306269e-05 3.298016e-05 9.427262e-05 1.434925e-04 1.778514e-04 2.504162e-04 2.544445e-04 3.440168e-04 3.155227e-04 4.162228e-04 3.545201e-04 4.615265e-04 3.676110e-04 4.775573e-04 3.541619e-04 4.653528e-04 3.168795e-04 4.292699e-04 2.615760e-04 3.763746e-04 1.963965e-04 3.151879e-04 1.304188e-04 2.539444e-04 7.183501e-05 1.989079e-04 2.627536e-05 1.534166e-04 -4.073096e-06 1.179923e-04 -2.023740e-05 9.127304e-05 -2.536191e-05 7.116765e-05 -2.335315e-05 5.570624e-05 -1.782151e-05 4.340138e-05 -1.154616e-05 3.323447e-05 -6.378275e-06 2.449127e-05 -3.370237e-06 1.661858e-05 -2.955541e-06 9.168310e-06 -5.102122e-06 1.811932e-06 -9.437153e-06 -5.626285e-06 -1.536685e-05 -1.316051e-05 -2.220283e-05 -2.067395e-05 -2.928347e-05 -2.797586e-05 -3.606574e-05 -3.485993e-05 -4.216904e-05 -4.114505e-05 -4.737167e-05 -4.669432e-05 -5.157827e-05 -5.141972e-05 -5.478159e-05 -5.528129e-05 -5.703382e-05 -5.828420e-05 -5.843063e-05 -6.047232e-05 -5.910340e-05 -6.191624e-05 -5.921423e-05 -6.269590e-05 -5.895068e-05 -6.288098e-05 -5.851989e-05 -6.251308e-05 -5.814218e-05 -6.159375e-05 -5.804313e-05 -6.008143e-05 -5.844220e-05 