# vtk DataFile Version 2.0
Comment goes here
ASCII

DATASET STRUCTURED_POINTS
FIELD FieldData 1
TIME 1 1 double
0.07500000
DIMENSIONS    128   128   1

ORIGIN    0.000   0.000   0.000
SPACING   0.039062 0.039062   1.000

POINT_DATA   16384
SCALARS Omega double
LOOKUP_TABLE default

1.679479e-15 1.113519e-14 2.158977e-14 2.504766e-14 2.603299e-14 3.321259e-14 3.536002e-14 3.340980e-14 4.136610e-14 3.012282e-14 2.897355e-14 2.488879e-14 1.819024e-14 1.726184e-16 -1.473418e-14 -2.703930e-14 -3.264104e-14 -5.838059e-14 -5.627405e-14 -4.030773e-14 -3.633458e-14 -4.629127e-14 -4.966960e-14 -4.220857e-14 -3.627336e-14 -1.134090e-14 2.676445e-14 1.519384e-14 -3.195228e-15 2.249158e-14 -1.325001e-14 7.494341e-15 -1.988725e-14 -3.566904e-15 -1.689495e-14 -3.844753e-14 -2.672567e-14 -2.113899e-14 7.027497e-16 2.381244e-14 -2.364422e-15 -9.834382e-15 1.372812e-14 -1.126211e-14 -3.454339e-14 -2.057425e-14 -1.484812e-14 -1.138297e-14 1.800714e-14 3.623754e-14 4.862900e-14 4.612607e-14 2.021971e-14 5.266767e-14 3.009421e-14 3.279862e-14 4.443247e-14 4.409809e-14 3.646321e-14 3.643697e-14 3.754162e-14 2.108084e-14 5.062258e-16 2.803431e-17 -6.958478e-15 -3.116517e-14 -3.240593e-14 -3.005851e-14 -4.441162e-14 -5.016397e-14 -3.872271e-14 -5.697960e-15 -1.329491e-14 -2.158824e-14 -3.122506e-14 -6.825244e-15 -5.382180e-16 -5.302624e-15 -7.847955e-15 -1.327340e-14 -1.196565e-14 5.079767e-14 1.204465e-14 1.095811e-14 -3.501709e-14 -8.317558e-15 3.199842e-14 2.055956e-15 -2.425470e-15 4.687850e-14 3.245707e-14 4.686990e-14 5.713889e-14 1.574040e-14 4.605371e-14 2.238039e-14 7.018362e-14 5.803460e-14 8.597501e-14 5.091501e-14 3.474683e-14 -3.788148e-14 -2.027441e-14 3.095900e-14 7.857215e-14 7.161547e-14 3.436121e-14 -2.447188e-14 1.457657e-15 7.846638e-15 1.669663e-14 2.070392e-14 -2.022622e-14 6.881591e-15 1.248302e-15 -3.264550e-14 -2.881626e-14 -9.425603e-15 -2.173660e-14 -1.200004e-14 -2.163459e-14 -2.308674e-14 -6.506947e-15 2.036753e-15 -6.729390e-15 -8.602934e-15 5.269209e-15 -5.288102e-15 
5.482319e-06 5.265458e-06 5.059338e-06 4.973570e-06 4.816034e-06 4.832823e-06 4.724176e-06 4.816625e-06 4.752493e-06 4.894916e-06 4.867754e-06 5.035932e-06 5.036021e-06 5.208090e-06 5.224174e-06 5.381966e-06 5.401802e-06 5.532397e-06 5.543510e-06 5.640756e-06 5.631696e-06 5.697460e-06 5.659758e-06 5.704757e-06 5.635573e-06 5.679699e-06 5.584916e-06 5.656959e-06 5.554142e-06 5.690763e-06 5.611107e-06 5.854758e-06 5.842987e-06 6.238351e-06 6.349629e-06 6.938255e-06 7.231718e-06 8.044912e-06 8.574329e-06 9.625148e-06 1.042833e-05 1.170433e-05 1.279384e-05 1.425277e-05 1.561057e-05 1.718104e-05 1.875918e-05 2.034720e-05 2.207497e-05 2.357583e-05 2.537190e-05 2.668512e-05 2.847190e-05 2.951609e-05 3.123268e-05 3.195707e-05 3.356784e-05 3.395821e-05 3.545509e-05 3.553337e-05 3.693184e-05 3.675015e-05 3.808012e-05 3.771120e-05 3.900506e-05 3.853140e-05 3.981178e-05 3.931556e-05 4.058509e-05 4.014028e-05 4.137525e-05 4.104231e-05 4.219153e-05 4.201411e-05 4.300380e-05 4.300635e-05 4.375089e-05 4.393588e-05 4.435369e-05 4.469785e-05 4.473012e-05 4.518029e-05 4.480914e-05 4.527945e-05 4.454147e-05 4.491464e-05 4.390508e-05 4.404032e-05 4.290539e-05 4.265379e-05 4.157055e-05 4.079652e-05 3.994378e-05 3.854850e-05 3.807474e-05 3.601610e-05 3.601217e-05 3.331595e-05 3.379918e-05 3.055847e-05 3.147211e-05 2.783463e-05 2.906222e-05 2.520879e-05 2.659927e-05 2.271826e-05 2.411503e-05 2.037848e-05 2.164552e-05 1.819112e-05 1.923100e-05 1.615258e-05 1.691403e-05 1.426053e-05 1.473625e-05 1.251742e-05 1.273488e-05 1.093115e-05 1.094002e-05 9.513339e-06 9.372826e-06 8.276528e-06 8.044998e-06 7.231064e-06 6.959050e-06 6.382530e-06 6.109172e-06 5.730035e-06 
1.109404e-05 1.066218e-05 1.024805e-05 1.008054e-05 9.775376e-06 9.814817e-06 9.616419e-06 9.808281e-06 9.704744e-06 9.996514e-06 9.969452e-06 1.031123e-05 1.033793e-05 1.068434e-05 1.073920e-05 1.105229e-05 1.110814e-05 1.136075e-05 1.139058e-05 1.156970e-05 1.154949e-05 1.165901e-05 1.157180e-05 1.163439e-05 1.147571e-05 1.153340e-05 1.131744e-05 1.143099e-05 1.119625e-05 1.144274e-05 1.125563e-05 1.172388e-05 1.167805e-05 1.246110e-05 1.267073e-05 1.385469e-05 1.444111e-05 1.609058e-05 1.716316e-05 1.930492e-05 2.093962e-05 2.354802e-05 2.576861e-05 2.875695e-05 3.152457e-05 3.474660e-05 3.796147e-05 4.122488e-05 4.474114e-05 4.783178e-05 5.148253e-05 5.419481e-05 5.782146e-05 5.998854e-05 6.346718e-05 6.498430e-05 6.824314e-05 6.907964e-05 7.210360e-05 7.230211e-05 7.512444e-05 7.478877e-05 7.747229e-05 7.674798e-05 7.936043e-05 7.841260e-05 8.100107e-05 7.999393e-05 8.256334e-05 8.164416e-05 8.414370e-05 8.343219e-05 8.575265e-05 8.533483e-05 8.731879e-05 8.724300e-05 8.870798e-05 8.898044e-05 8.975319e-05 9.033151e-05 9.028868e-05 9.107379e-05 9.018142e-05 9.101133e-05 8.935322e-05 9.000393e-05 8.778962e-05 8.798846e-05 8.553463e-05 8.498887e-05 8.267438e-05 8.111293e-05 7.931526e-05 7.653594e-05 7.556294e-05 7.147399e-05 7.150719e-05 6.615211e-05 6.721548e-05 6.077368e-05 6.273517e-05 5.549778e-05 5.810200e-05 5.042869e-05 5.335139e-05 4.561854e-05 4.852840e-05 4.108026e-05 4.369358e-05 3.680573e-05 3.892329e-05 3.278325e-05 3.430489e-05 2.901029e-05 2.992886e-05 2.549918e-05 2.587992e-05 2.227635e-05 2.222954e-05 1.937685e-05 1.903076e-05 1.683680e-05 1.631583e-05 1.468587e-05 1.409613e-05 1.294149e-05 1.236377e-05 1.160535e-05 
1.627268e-05 1.560633e-05 1.495816e-05 1.468721e-05 1.419117e-05 1.423041e-05 1.388635e-05 1.415530e-05 1.394935e-05 1.437086e-05 1.428006e-05 1.478099e-05 1.477618e-05 1.529025e-05 1.533788e-05 1.580987e-05 1.587340e-05 1.626410e-05 1.630605e-05 1.659698e-05 1.658257e-05 1.677983e-05 1.668267e-05 1.681942e-05 1.662952e-05 1.676676e-05 1.650000e-05 1.672557e-05 1.643304e-05 1.685840e-05 1.663283e-05 1.738694e-05 1.736300e-05 1.858186e-05 1.892729e-05 2.073800e-05 2.163420e-05 2.413349e-05 2.574677e-05 2.897651e-05 3.142520e-05 3.534975e-05 3.867492e-05 4.316741e-05 4.731586e-05 5.215966e-05 5.698560e-05 6.189415e-05 6.718110e-05 7.183427e-05 7.733273e-05 8.142281e-05 8.689471e-05 9.017208e-05 9.543095e-05 9.773943e-05 1.026768e-04 1.039717e-04 1.085642e-04 1.089106e-04 1.132075e-04 1.127618e-04 1.168570e-04 1.158369e-04 1.198320e-04 1.184835e-04 1.224500e-04 1.210167e-04 1.249645e-04 1.236645e-04 1.275219e-04 1.265329e-04 1.301422e-04 1.295935e-04 1.327253e-04 1.326919e-04 1.350771e-04 1.355725e-04 1.369513e-04 1.379150e-04 1.380952e-04 1.393776e-04 1.382932e-04 1.396435e-04 1.373993e-04 1.384652e-04 1.353530e-04 1.357025e-04 1.321787e-04 1.313470e-04 1.279701e-04 1.255280e-04 1.228656e-04 1.184963e-04 1.170217e-04 1.105869e-04 1.105899e-04 1.021680e-04 1.037035e-04 9.358812e-05 9.647373e-05 8.513340e-05 8.899638e-05 7.700416e-05 8.136292e-05 6.931360e-05 7.367178e-05 6.210472e-05 6.603493e-05 5.537701e-05 5.857747e-05 4.911386e-05 5.143093e-05 4.330362e-05 4.472285e-05 3.795085e-05 3.856607e-05 3.307799e-05 3.305035e-05 2.871986e-05 2.823753e-05 2.491451e-05 2.416035e-05 2.169353e-05 2.082384e-05 1.907399e-05 1.820829e-05 1.705316e-05 
2.180179e-05 2.090706e-05 2.002229e-05 1.966121e-05 1.900801e-05 1.906647e-05 1.863797e-05 1.900719e-05 1.877785e-05 1.935237e-05 1.928454e-05 1.996339e-05 2.001142e-05 2.070220e-05 2.081506e-05 2.144010e-05 2.156354e-05 2.206731e-05 2.214698e-05 2.250314e-05 2.248984e-05 2.270708e-05 2.256482e-05 2.269048e-05 2.240739e-05 2.252846e-05 2.212956e-05 2.237083e-05 2.193028e-05 2.244940e-05 2.209872e-05 2.307713e-05 2.300509e-05 2.463329e-05 2.507331e-05 2.752885e-05 2.873203e-05 3.215009e-05 3.434556e-05 3.878533e-05 4.213491e-05 4.754849e-05 5.210650e-05 5.832006e-05 6.401025e-05 7.072603e-05 7.734443e-05 8.416808e-05 9.141378e-05 9.790441e-05 1.054320e-04 1.111654e-04 1.186467e-04 1.232778e-04 1.304572e-04 1.337685e-04 1.404990e-04 1.424251e-04 1.486784e-04 1.493031e-04 1.551518e-04 1.546827e-04 1.602611e-04 1.589885e-04 1.644414e-04 1.626926e-04 1.681223e-04 1.662197e-04 1.716405e-04 1.698706e-04 1.751798e-04 1.737740e-04 1.787446e-04 1.778707e-04 1.821704e-04 1.819278e-04 1.851653e-04 1.855778e-04 1.873739e-04 1.883758e-04 1.884505e-04 1.898652e-04 1.881249e-04 1.896445e-04 1.862483e-04 1.874269e-04 1.828091e-04 1.830846e-04 1.779186e-04 1.766706e-04 1.717731e-04 1.684139e-04 1.646053e-04 1.586872e-04 1.566395e-04 1.479523e-04 1.480620e-04 1.366921e-04 1.390097e-04 1.253437e-04 1.295771e-04 1.142480e-04 1.198361e-04 1.036255e-04 1.098601e-04 9.358107e-05 9.974473e-05 8.413304e-05 8.961931e-05 7.525370e-05 7.964596e-05 6.690862e-05 7.000850e-05 5.908474e-05 6.089489e-05 5.180289e-05 5.247861e-05 4.511556e-05 4.490333e-05 3.909462e-05 3.827310e-05 3.381460e-05 3.264850e-05 2.933669e-05 2.804758e-05 2.569657e-05 2.444987e-05 2.289727e-05 
2.651882e-05 2.535408e-05 2.417387e-05 2.367510e-05 2.276970e-05 2.279636e-05 2.216171e-05 2.258052e-05 2.219097e-05 2.287289e-05 2.268904e-05 2.351052e-05 2.348394e-05 2.433199e-05 2.440760e-05 2.518769e-05 2.530547e-05 2.595058e-05 2.604822e-05 2.652753e-05 2.654574e-05 2.687141e-05 2.676309e-05 2.699408e-05 2.673764e-05 2.698047e-05 2.659633e-05 2.700252e-05 2.657007e-05 2.733050e-05 2.700089e-05 2.833577e-05 2.833474e-05 3.047702e-05 3.109169e-05 3.426130e-05 3.580773e-05 4.017561e-05 4.294866e-05 4.859405e-05 5.280837e-05 5.967817e-05 6.541440e-05 7.329714e-05 8.046995e-05 8.899641e-05 9.735599e-05 1.060328e-04 1.152032e-04 1.234759e-04 1.330219e-04 1.403561e-04 1.498624e-04 1.558234e-04 1.649659e-04 1.692804e-04 1.778729e-04 1.804598e-04 1.884661e-04 1.894324e-04 1.969446e-04 1.965509e-04 2.037393e-04 2.023474e-04 2.093966e-04 2.074107e-04 2.144527e-04 2.122679e-04 2.193266e-04 2.172912e-04 2.242456e-04 2.226413e-04 2.292158e-04 2.282499e-04 2.340353e-04 2.338374e-04 2.383442e-04 2.389567e-04 2.416992e-04 2.430548e-04 2.436570e-04 2.455437e-04 2.438500e-04 2.458762e-04 2.420413e-04 2.436215e-04 2.381504e-04 2.385321e-04 2.322472e-04 2.305918e-04 2.245204e-04 2.200324e-04 2.152319e-04 2.073096e-04 2.046681e-04 1.930375e-04 1.931006e-04 1.778955e-04 1.807640e-04 1.625263e-04 1.678519e-04 1.474537e-04 1.545305e-04 1.330364e-04 1.409601e-04 1.194665e-04 1.273157e-04 1.068028e-04 1.137980e-04 9.502396e-05 1.006308e-04 8.408140e-05 8.804694e-05 7.393960e-05 7.626814e-05 6.459650e-05 6.548587e-05 5.608559e-05 5.584743e-05 4.846492e-05 4.744948e-05 4.179961e-05 4.033787e-05 3.614405e-05 3.451190e-05 3.152750e-05 2.993052e-05 2.794507e-05 
3.169060e-05 3.026783e-05 2.879876e-05 2.818872e-05 2.710101e-05 2.713451e-05 2.641118e-05 2.692592e-05 2.652420e-05 2.736085e-05 2.722212e-05 2.822604e-05 2.828160e-05 2.930961e-05 2.948369e-05 3.041464e-05 3.062655e-05 3.137376e-05 3.154156e-05 3.206482e-05 3.211222e-05 3.242725e-05 3.229524e-05 3.247892e-05 3.214233e-05 3.233321e-05 3.182082e-05 3.221509e-05 3.163015e-05 3.247329e-05 3.200899e-05 3.358242e-05 3.352500e-05 3.612522e-05 3.683746e-05 4.074413e-05 4.262476e-05 4.805626e-05 5.147690e-05 5.853709e-05 6.376758e-05 7.239444e-05 7.953494e-05 8.946735e-05 9.840783e-05 1.091859e-04 1.196087e-04 1.306155e-04 1.420447e-04 1.525859e-04 1.644723e-04 1.738773e-04 1.856991e-04 1.934212e-04 2.047738e-04 2.104666e-04 2.211213e-04 2.246763e-04 2.345952e-04 2.361359e-04 2.454435e-04 2.452820e-04 2.542022e-04 2.527725e-04 2.615469e-04 2.593311e-04 2.681343e-04 2.655988e-04 2.744649e-04 2.720149e-04 2.807889e-04 2.787466e-04 2.870681e-04 2.856692e-04 2.929966e-04 2.923934e-04 2.980723e-04 2.983296e-04 3.017049e-04 3.027758e-04 3.033365e-04 3.050179e-04 3.025506e-04 3.044300e-04 2.991448e-04 3.005658e-04 2.931504e-04 2.932288e-04 2.847994e-04 2.825101e-04 2.744517e-04 2.687874e-04 2.625093e-04 2.526785e-04 2.493432e-04 2.349549e-04 2.352485e-04 2.164301e-04 2.204341e-04 1.978434e-04 2.050411e-04 1.797683e-04 1.891781e-04 1.625668e-04 1.729627e-04 1.463962e-04 1.565541e-04 1.312617e-04 1.401686e-04 1.170890e-04 1.240754e-04 1.037956e-04 1.085745e-04 9.134096e-05 9.396611e-05 7.974659e-05 8.052021e-05 6.909112e-05 6.845297e-05 5.948747e-05 5.791375e-05 5.105372e-05 4.898195e-05 4.388616e-05 4.167126e-05 3.803972e-05 3.593799e-05 3.351742e-05 
3.578729e-05 3.403704e-05 3.217302e-05 3.136948e-05 2.993471e-05 2.988493e-05 2.886485e-05 2.938419e-05 2.873716e-05 2.964386e-05 2.931256e-05 3.042955e-05 3.034689e-05 3.151006e-05 3.160143e-05 3.267246e-05 3.285649e-05 3.373774e-05 3.392838e-05 3.457685e-05 3.468922e-05 3.512692e-05 3.508904e-05 3.540790e-05 3.517918e-05 3.554018e-05 3.513575e-05 3.576320e-05 3.528065e-05 3.645284e-05 3.609489e-05 3.813062e-05 3.821452e-05 4.145234e-05 4.239571e-05 4.716023e-05 4.943613e-05 5.598795e-05 6.004984e-05 6.852193e-05 7.471102e-05 8.504466e-05 9.350303e-05 1.054036e-04 1.160201e-04 1.289534e-04 1.413629e-04 1.546032e-04 1.682446e-04 1.809694e-04 1.951890e-04 2.066017e-04 2.207757e-04 2.302268e-04 2.438713e-04 2.509508e-04 2.637927e-04 2.683741e-04 2.803693e-04 2.826005e-04 2.938993e-04 2.941474e-04 3.050193e-04 3.037887e-04 3.145248e-04 3.123680e-04 3.231818e-04 3.206241e-04 3.315662e-04 3.290561e-04 3.399571e-04 3.378483e-04 3.482985e-04 3.468542e-04 3.562262e-04 3.556310e-04 3.631517e-04 3.635080e-04 3.683802e-04 3.696721e-04 3.712396e-04 3.732637e-04 3.711965e-04 3.734774e-04 3.679361e-04 3.696683e-04 3.613937e-04 3.614553e-04 3.517362e-04 3.488060e-04 3.393039e-04 3.320774e-04 3.245345e-04 3.119918e-04 3.078869e-04 2.895400e-04 2.897839e-04 2.658273e-04 2.705814e-04 2.419001e-04 2.505683e-04 2.186002e-04 2.299913e-04 1.964854e-04 2.090923e-04 1.758274e-04 1.881418e-04 1.566744e-04 1.674540e-04 1.389457e-04 1.473785e-04 1.225241e-04 1.282725e-04 1.073233e-04 1.104666e-04 9.331973e-05 9.423470e-05 8.055293e-05 7.977558e-05 6.910506e-05 6.720753e-05 5.907140e-05 5.657324e-05 5.053157e-05 4.784999e-05 4.352758e-05 4.096129e-05 3.805073e-05 
4.023644e-05 3.817960e-05 3.595443e-05 3.500373e-05 3.334982e-05 3.328439e-05 3.216539e-05 3.277076e-05 3.212091e-05 3.318220e-05 3.291969e-05 3.422392e-05 3.425749e-05 3.560411e-05 3.583526e-05 3.705277e-05 3.737653e-05 3.834231e-05 3.864991e-05 3.930913e-05 3.949539e-05 3.987532e-05 3.985295e-05 4.006950e-05 3.979111e-05 4.004707e-05 3.953366e-05 4.010975e-05 3.948199e-05 4.072332e-05 4.022831e-05 4.252683e-05 4.254970e-05 4.631945e-05 4.736737e-05 5.300569e-05 5.565444e-05 6.348321e-05 6.828625e-05 7.847561e-05 8.585038e-05 9.833997e-05 1.084605e-04 1.229039e-04 1.356337e-04 1.513927e-04 1.662846e-04 1.824861e-04 1.988540e-04 2.145058e-04 2.315534e-04 2.456929e-04 2.626638e-04 2.745042e-04 2.908162e-04 2.998575e-04 3.151883e-04 3.212687e-04 3.355770e-04 3.388595e-04 3.523418e-04 3.532469e-04 3.662458e-04 3.653500e-04 3.782354e-04 3.761635e-04 3.892101e-04 3.865440e-04 3.998248e-04 3.970468e-04 4.103583e-04 4.078349e-04 4.206649e-04 4.186636e-04 4.302130e-04 4.289312e-04 4.381990e-04 4.377755e-04 4.437138e-04 4.441960e-04 4.459298e-04 4.471874e-04 4.442672e-04 4.458721e-04 4.385012e-04 4.396238e-04 4.287806e-04 4.281680e-04 4.155560e-04 4.116463e-04 3.994484e-04 3.906268e-04 3.811040e-04 3.660498e-04 3.610835e-04 3.391085e-04 3.398077e-04 3.110767e-04 3.175584e-04 2.831192e-04 2.945197e-04 2.561333e-04 2.708393e-04 2.306647e-04 2.466912e-04 2.069182e-04 2.223218e-04 1.848457e-04 1.980684e-04 1.642746e-04 1.743446e-04 1.450288e-04 1.516008e-04 1.270108e-04 1.302734e-04 1.102321e-04 1.107393e-04 9.479986e-05 9.328431e-05 8.087679e-05 7.808978e-05 6.863319e-05 6.523488e-05 5.820533e-05 5.470825e-05 4.966743e-05 4.642386e-05 4.301820e-05 
4.354129e-05 4.107077e-05 3.830723e-05 3.707828e-05 3.494187e-05 3.471444e-05 3.316923e-05 3.370958e-05 3.269161e-05 3.376346e-05 3.319558e-05 3.456282e-05 3.436112e-05 3.580063e-05 3.587508e-05 3.719691e-05 3.744959e-05 3.852048e-05 3.884509e-05 3.961039e-05 3.989682e-05 4.039583e-05 4.054281e-05 4.091403e-05 4.085202e-05 4.132779e-05 4.105169e-05 4.194519e-05 4.155369e-05 4.324301e-05 4.297656e-05 4.588807e-05 4.615231e-05 5.073953e-05 5.209711e-05 5.880454e-05 6.192026e-05 7.112146e-05 7.665717e-05 8.856655e-05 9.704231e-05 1.116178e-04 1.232757e-04 1.401456e-04 1.548608e-04 1.733085e-04 1.905824e-04 2.096098e-04 2.286532e-04 2.471161e-04 2.670024e-04 2.837864e-04 3.036323e-04 3.178277e-04 3.369537e-04 3.479854e-04 3.660174e-04 3.737034e-04 3.905967e-04 3.951287e-04 4.111161e-04 4.129749e-04 4.284582e-04 4.282908e-04 4.437037e-04 4.421940e-04 4.578624e-04 4.556269e-04 4.716499e-04 4.691782e-04 4.853448e-04 4.829950e-04 4.987458e-04 4.967828e-04 5.112256e-04 5.098724e-04 5.218622e-04 5.213218e-04 5.296172e-04 5.300258e-04 5.335271e-04 5.348243e-04 5.328702e-04 5.346168e-04 5.272767e-04 5.284948e-04 5.167614e-04 5.158933e-04 5.016775e-04 4.967367e-04 4.826133e-04 4.715342e-04 4.602689e-04 4.413739e-04 4.353448e-04 4.077894e-04 4.084637e-04 3.725140e-04 3.801346e-04 3.371889e-04 3.507604e-04 3.031113e-04 3.206831e-04 2.710991e-04 2.902463e-04 2.414941e-04 2.598475e-04 2.142778e-04 2.299580e-04 1.892382e-04 2.010994e-04 1.661265e-04 1.737923e-04 1.447628e-04 1.484985e-04 1.250810e-04 1.255760e-04 1.071220e-04 1.052596e-04 9.099590e-05 8.766309e-05 7.683315e-05 7.279579e-05 6.474150e-05 6.058458e-05 5.477459e-05 5.089394e-05 4.691517e-05 
4.678260e-05 4.393336e-05 4.072142e-05 3.929088e-05 3.689111e-05 3.661274e-05 3.495515e-05 3.556438e-05 3.455220e-05 3.577559e-05 3.530153e-05 3.685993e-05 3.681226e-05 3.843656e-05 3.869867e-05 4.015547e-05 4.060318e-05 4.172565e-05 4.222684e-05 4.294446e-05 4.336491e-05 4.372500e-05 4.394388e-05 4.411916e-05 4.405562e-05 4.433642e-05 4.398699e-05 4.476170e-05 4.424520e-05 4.597659e-05 4.557829e-05 4.878128e-05 4.898205e-05 5.419995e-05 5.566978e-05 6.343606e-05 6.697183e-05 7.774119e-05 8.414184e-05 9.818642e-05 1.080838e-04 1.253743e-04 1.390651e-04 1.591784e-04 1.765139e-04 1.986110e-04 2.189890e-04 2.418899e-04 2.643580e-04 2.867042e-04 3.101485e-04 3.306152e-04 3.539796e-04 3.714840e-04 3.939639e-04 4.078182e-04 4.289804e-04 4.389588e-04 4.587679e-04 4.650790e-04 4.838336e-04 4.870169e-04 5.052194e-04 5.059962e-04 5.241889e-04 5.233067e-04 5.419050e-04 5.400116e-04 5.591579e-04 5.567341e-04 5.761908e-04 5.735528e-04 5.926442e-04 5.900081e-04 6.076241e-04 6.051942e-04 6.198757e-04 6.179019e-04 6.280325e-04 6.267783e-04 6.308968e-04 6.304866e-04 6.276929e-04 6.278641e-04 6.182260e-04 6.180748e-04 6.028927e-04 6.007490e-04 5.825368e-04 5.760874e-04 5.582078e-04 5.449036e-04 5.309169e-04 5.085785e-04 5.014756e-04 4.689068e-04 4.704451e-04 4.278426e-04 4.381739e-04 3.871890e-04 4.048826e-04 3.483221e-04 3.707629e-04 3.120369e-04 3.360674e-04 2.785623e-04 3.011721e-04 2.477175e-04 2.665925e-04 2.191353e-04 2.329492e-04 1.924682e-04 2.008973e-04 1.675172e-04 1.710448e-04 1.442725e-04 1.438860e-04 1.228792e-04 1.197641e-04 1.035666e-04 9.886459e-05 8.657035e-05 8.123057e-05 7.207185e-05 6.678963e-05 6.016059e-05 5.538166e-05 5.082059e-05 
4.910632e-05 4.571788e-05 4.177292e-05 3.994002e-05 3.687246e-05 3.631649e-05 3.405260e-05 3.449355e-05 3.293820e-05 3.408157e-05 3.313596e-05 3.467693e-05 3.424425e-05 3.588720e-05 3.586979e-05 3.735946e-05 3.765217e-05 3.881078e-05 3.929531e-05 4.005733e-05 4.060262e-05 4.103814e-05 4.151132e-05 4.183077e-05 4.212225e-05 4.266092e-05 4.272501e-05 4.391405e-05 4.382350e-05 4.615991e-05 4.616673e-05 5.019261e-05 5.077813e-05 5.706703e-05 5.895369e-05 6.808444e-05 7.217891e-05 8.467012e-05 9.192220e-05 1.081151e-04 1.193113e-04 1.392221e-04 1.547713e-04 1.779677e-04 1.977541e-04 2.233151e-04 2.466777e-04 2.732737e-04 2.991262e-04 3.252086e-04 3.522644e-04 3.763178e-04 4.033541e-04 4.241423e-04 4.502298e-04 4.669751e-04 4.916185e-04 5.040756e-04 5.272414e-04 5.356587e-04 5.576969e-04 5.626867e-04 5.841780e-04 5.865350e-04 6.081030e-04 6.086179e-04 6.307432e-04 6.300570e-04 6.529195e-04 6.514545e-04 6.748201e-04 6.728057e-04 6.959627e-04 6.935434e-04 7.152934e-04 7.126685e-04 7.313896e-04 7.289041e-04 7.427230e-04 7.408247e-04 7.479352e-04 7.469523e-04 7.460777e-04 7.458518e-04 7.367642e-04 7.362750e-04 7.201972e-04 7.173757e-04 6.970679e-04 6.889663e-04 6.683716e-04 6.517276e-04 6.352097e-04 6.072645e-04 5.986307e-04 5.579318e-04 5.595322e-04 5.064405e-04 5.186245e-04 4.553551e-04 4.764524e-04 4.066537e-04 4.334717e-04 3.614973e-04 3.901549e-04 3.202557e-04 3.470775e-04 2.827288e-04 3.049401e-04 2.484440e-04 2.645158e-04 2.169164e-04 2.265516e-04 1.878103e-04 1.916703e-04 1.609930e-04 1.603079e-04 1.365065e-04 1.327003e-04 1.144977e-04 1.089062e-04 9.514091e-05 8.884869e-05 7.857338e-05 7.235728e-05 6.485477e-05 5.920046e-05 5.394804e-05 
5.050685e-05 4.663691e-05 4.214873e-05 4.003552e-05 3.665739e-05 3.599801e-05 3.360602e-05 3.408828e-05 3.254452e-05 3.383101e-05 3.300128e-05 3.473368e-05 3.449082e-05 3.631308e-05 3.653131e-05 3.812849e-05 3.867457e-05 3.982111e-05 4.054807e-05 4.115539e-05 4.190420e-05 4.205467e-05 4.266831e-05 4.262406e-05 4.297667e-05 4.315893e-05 4.320114e-05 4.414789e-05 4.396719e-05 4.628754e-05 4.617756e-05 5.052128e-05 5.104320e-05 5.808756e-05 6.009143e-05 7.052123e-05 7.508695e-05 8.952842e-05 9.780084e-05 1.166863e-04 1.296233e-04 1.530095e-04 1.711151e-04 1.985249e-04 2.216650e-04 2.520315e-04 2.794093e-04 3.111699e-04 3.414759e-04 3.728020e-04 4.044930e-04 4.335936e-04 4.652137e-04 4.906291e-04 5.210846e-04 5.418960e-04 5.706191e-04 5.865301e-04 6.135063e-04 6.247906e-04 6.504622e-04 6.578041e-04 6.828883e-04 6.871636e-04 7.124320e-04 7.144832e-04 7.405435e-04 7.410029e-04 7.681114e-04 7.673184e-04 7.952369e-04 7.932777e-04 8.211783e-04 8.180402e-04 8.444659e-04 8.402491e-04 8.631587e-04 8.582435e-04 8.752058e-04 8.702562e-04 8.788640e-04 8.745821e-04 8.730923e-04 8.697390e-04 8.578055e-04 8.546412e-04 8.338751e-04 8.287880e-04 8.028476e-04 7.924349e-04 7.664917e-04 7.467049e-04 7.263746e-04 6.935872e-04 6.836338e-04 6.357650e-04 6.389704e-04 5.762442e-04 5.927784e-04 5.178350e-04 5.453054e-04 4.626546e-04 4.968000e-04 4.118407e-04 4.476339e-04 3.655793e-04 3.983823e-04 3.233948e-04 3.498333e-04 2.845507e-04 3.029168e-04 2.483988e-04 2.585776e-04 2.145781e-04 2.176437e-04 1.830525e-04 1.807313e-04 1.540313e-04 1.482082e-04 1.278409e-04 1.202076e-04 1.048017e-04 9.667289e-05 8.514135e-05 7.741011e-05 6.895122e-05 6.213501e-05 5.617795e-05 
5.164686e-05 4.705716e-05 4.158079e-05 3.888782e-05 3.459423e-05 3.349276e-05 3.024737e-05 3.041368e-05 2.807884e-05 2.915278e-05 2.760705e-05 2.919856e-05 2.833944e-05 3.005755e-05 2.979297e-05 3.129334e-05 3.152735e-05 3.257099e-05 3.318953e-05 3.369974e-05 3.456307e-05 3.466377e-05 3.561152e-05 3.563143e-05 3.650563e-05 3.694277e-05 3.763304e-05 3.909154e-05 3.960506e-05 4.273294e-05 4.328645e-05 4.874490e-05 4.986133e-05 5.833260e-05 6.090043e-05 7.310023e-05 7.833561e-05 9.496708e-05 1.042329e-04 1.258382e-04 1.403347e-04 1.670662e-04 1.874853e-04 2.188899e-04 2.451664e-04 2.800940e-04 3.113590e-04 3.480598e-04 3.828176e-04 4.192141e-04 4.556801e-04 4.897302e-04 5.262190e-04 5.562661e-04 5.915190e-04 6.165365e-04 6.499107e-04 6.695904e-04 7.010835e-04 7.157628e-04 7.458912e-04 7.563535e-04 7.859371e-04 7.931429e-04 8.230531e-04 8.278682e-04 8.587887e-04 8.617734e-04 8.940057e-04 8.953277e-04 9.286517e-04 9.281626e-04 9.617442e-04 9.592147e-04 9.915463e-04 9.869829e-04 1.015875e-03 1.009774e-03 1.032481e-03 1.025841e-03 1.039437e-03 1.033412e-03 1.035496e-03 1.030695e-03 1.020310e-03 1.015984e-03 9.944530e-04 9.879657e-04 9.592117e-04 9.461767e-04 9.162539e-04 8.914523e-04 8.673009e-04 8.261397e-04 8.139111e-04 7.538888e-04 7.573751e-04 6.790018e-04 6.986835e-04 6.055386e-04 6.385639e-04 5.365238e-04 5.776041e-04 4.735575e-04 5.164365e-04 4.169125e-04 4.558909e-04 3.659746e-04 3.970203e-04 3.197794e-04 3.409844e-04 2.774422e-04 2.888576e-04 2.383889e-04 2.414609e-04 2.024000e-04 1.992800e-04 1.695318e-04 1.624768e-04 1.399882e-04 1.309616e-04 1.139978e-04 1.044809e-04 9.172433e-05 8.269271e-05 7.321750e-05 6.521440e-05 5.839668e-05 
5.040527e-05 4.519075e-05 3.907914e-05 3.599506e-05 3.134421e-05 3.006358e-05 2.666919e-05 2.683386e-05 2.450564e-05 2.570447e-05 2.428211e-05 2.605667e-05 2.540724e-05 2.728449e-05 2.728848e-05 2.883850e-05 2.937146e-05 3.028324e-05 3.120017e-05 3.136013e-05 3.248958e-05 3.203948e-05 3.319295e-05 3.254290e-05 3.354274e-05 3.332662e-05 3.405507e-05 3.504048e-05 3.551320e-05 3.850587e-05 3.897248e-05 4.476473e-05 4.582421e-05 5.520852e-05 5.789431e-05 7.170166e-05 7.745702e-05 9.652964e-05 1.070022e-04 1.320273e-04 1.486894e-04 1.799134e-04 2.036247e-04 2.405712e-04 2.712624e-04 3.126063e-04 3.492224e-04 3.929055e-04 4.336328e-04 4.771979e-04 5.198877e-04 5.609219e-04 6.035653e-04 6.401185e-04 6.812372e-04 7.121070e-04 7.509694e-04 7.757950e-04 8.124332e-04 8.315975e-04 8.666556e-04 8.810409e-04 9.155187e-04 9.261834e-04 9.611455e-04 9.689952e-04 1.005298e-03 1.010825e-03 1.048892e-03 1.052061e-03 1.091713e-03 1.092054e-03 1.132377e-03 1.129294e-03 1.168516e-03 1.161734e-03 1.197144e-03 1.187118e-03 1.215159e-03 1.203208e-03 1.219956e-03 1.207918e-03 1.210066e-03 1.199421e-03 1.185619e-03 1.176327e-03 1.148354e-03 1.137936e-03 1.101088e-03 1.084521e-03 1.046825e-03 1.017570e-03 9.879914e-04 9.399089e-04 9.261176e-04 8.555646e-04 8.619974e-04 7.692351e-04 7.960240e-04 6.853934e-04 7.284708e-04 6.073491e-04 6.596779e-04 5.367037e-04 5.902017e-04 4.734227e-04 5.209262e-04 4.164070e-04 4.530650e-04 3.642328e-04 3.880233e-04 3.157461e-04 3.271688e-04 2.703515e-04 2.716119e-04 2.280095e-04 2.220752e-04 1.890549e-04 1.788748e-04 1.539646e-04 1.419845e-04 1.231667e-04 1.111366e-04 9.692524e-05 8.591830e-05 7.529936e-05 6.584522e-05 5.815328e-05 
5.016371e-05 4.397129e-05 3.654357e-05 3.263133e-05 2.673763e-05 2.478753e-05 2.020267e-05 1.984705e-05 1.637781e-05 1.717677e-05 1.467961e-05 1.613062e-05 1.450910e-05 1.608794e-05 1.527612e-05 1.650776e-05 1.644536e-05 1.699711e-05 1.760296e-05 1.738083e-05 1.853253e-05 1.775025e-05 1.927778e-05 1.846499e-05 2.016484e-05 2.009624e-05 2.177268e-05 2.333460e-05 2.487800e-05 2.893151e-05 3.044534e-05 3.776365e-05 3.973509e-05 5.105557e-05 5.451495e-05 7.065219e-05 7.720623e-05 9.908575e-05 1.107055e-04 1.391919e-04 1.577417e-04 1.932716e-04 2.199319e-04 2.621210e-04 2.969539e-04 3.443991e-04 3.862532e-04 4.366513e-04 4.834369e-04 5.339876e-04 5.832012e-04 6.311471e-04 6.804530e-04 7.235835e-04 7.712807e-04 8.082664e-04 8.535356e-04 8.840252e-04 9.269310e-04 9.514184e-04 9.927136e-04 1.012230e-03 1.053048e-03 1.068766e-03 1.110284e-03 1.123115e-03 1.166263e-03 1.176533e-03 1.221768e-03 1.229086e-03 1.276258e-03 1.279655e-03 1.327901e-03 1.326274e-03 1.373883e-03 1.366646e-03 1.410869e-03 1.398556e-03 1.435520e-03 1.420010e-03 1.445045e-03 1.429076e-03 1.437735e-03 1.423637e-03 1.413346e-03 1.401355e-03 1.373130e-03 1.360088e-03 1.319424e-03 1.298727e-03 1.255018e-03 1.218138e-03 1.182596e-03 1.121746e-03 1.104472e-03 1.015324e-03 1.022524e-03 9.058765e-04 9.381713e-04 7.999788e-04 8.523938e-04 7.022942e-04 7.659092e-04 6.149246e-04 6.795216e-04 5.377205e-04 5.944242e-04 4.691876e-04 5.122353e-04 4.074674e-04 4.347385e-04 3.510298e-04 3.635004e-04 2.989696e-04 2.995768e-04 2.509859e-04 2.434202e-04 2.071917e-04 1.949660e-04 1.678842e-04 1.538064e-04 1.333572e-04 1.193632e-04 1.037840e-04 9.101017e-05 7.916720e-05 6.813606e-05 5.933659e-05 
4.530667e-05 3.829304e-05 3.015415e-05 2.569850e-05 1.940166e-05 1.716524e-05 1.239502e-05 1.197166e-05 8.475005e-06 9.363030e-06 6.958347e-06 8.566517e-06 7.131232e-06 8.821452e-06 8.266404e-06 9.436676e-06 9.674689e-06 9.877780e-06 1.079481e-05 9.871427e-06 1.130933e-05 9.494992e-06 1.125288e-05 9.207640e-06 1.106416e-05 9.789192e-06 1.154633e-05 1.219865e-05 1.375559e-05 1.743850e-05 1.891811e-05 2.656721e-05 2.851060e-05 4.095616e-05 4.453771e-05 6.268826e-05 6.980278e-05 9.474963e-05 1.077895e-04 1.406296e-04 1.619036e-04 2.032720e-04 2.342613e-04 2.838062e-04 3.246003e-04 3.807095e-04 4.298903e-04 4.898372e-04 5.448433e-04 6.052951e-04 6.630902e-04 7.207771e-04 7.785680e-04 8.308899e-04 8.866814e-04 9.320940e-04 9.849630e-04 1.023073e-03 1.073146e-03 1.104534e-03 1.152736e-03 1.178580e-03 1.226273e-03 1.247878e-03 1.296474e-03 1.314785e-03 1.365428e-03 1.380627e-03 1.433946e-03 1.445257e-03 1.501216e-03 1.507047e-03 1.564812e-03 1.563308e-03 1.620999e-03 1.610910e-03 1.665227e-03 1.646806e-03 1.692756e-03 1.668271e-03 1.699527e-03 1.672884e-03 1.683247e-03 1.658481e-03 1.644343e-03 1.623285e-03 1.586114e-03 1.566267e-03 1.513718e-03 1.487616e-03 1.432370e-03 1.389202e-03 1.345822e-03 1.274968e-03 1.255987e-03 1.151001e-03 1.163577e-03 1.024833e-03 1.068917e-03 9.038110e-04 9.723625e-04 7.932338e-04 8.744270e-04 6.952854e-04 7.759422e-04 6.092650e-04 6.782535e-04 5.327783e-04 5.832443e-04 4.631431e-04 4.930731e-04 3.983912e-04 4.097417e-04 3.376391e-04 3.347174e-04 2.809401e-04 2.687614e-04 2.288838e-04 2.119742e-04 1.821850e-04 1.639714e-04 1.413978e-04 1.240870e-04 1.067824e-04 9.153867e-05 7.829172e-05 6.553139e-05 5.562343e-05 