# vtk DataFile Version 2.0
Comment goes here
ASCII

DATASET STRUCTURED_POINTS
FIELD FieldData 1
TIME 1 1 double
0.06000000
DIMENSIONS    128   128   1

ORIGIN    0.000   0.000   0.000
SPACING   0.039062 0.039062   1.000

POINT_DATA   16384
SCALARS Omega double
LOOKUP_TABLE default

-3.115981e-14 -3.977644e-14 -3.598215e-14 -1.805614e-14 -1.166744e-14 -7.010796e-15 -4.030029e-15 6.875563e-15 8.376755e-17 6.150636e-15 1.183899e-14 1.023357e-14 -5.256838e-16 -7.660662e-15 -9.095540e-15 -1.993125e-14 -1.353678e-14 -1.353454e-14 -1.486842e-14 -2.575742e-14 -2.133423e-14 -1.656296e-14 -1.412891e-14 6.814680e-16 -1.453118e-14 8.260338e-15 -2.337035e-15 3.999896e-14 2.750768e-14 -7.772268e-15 2.632966e-14 2.875744e-14 2.601099e-14 2.075809e-14 -3.249522e-15 1.560143e-14 -2.142828e-15 -3.286536e-14 -6.211931e-14 -3.297878e-14 -2.685087e-14 -6.042498e-15 1.502328e-14 3.415167e-14 1.468997e-14 -9.641375e-15 2.990955e-14 -2.215417e-14 -2.504992e-15 4.473820e-14 3.298377e-14 4.741448e-14 4.722747e-14 5.394915e-14 3.070545e-14 4.761067e-14 4.662396e-14 6.256468e-14 6.659518e-14 5.193433e-14 2.719392e-14 8.596072e-15 2.205794e-15 -8.952626e-17 -5.869890e-15 -1.910406e-14 -2.996165e-14 -4.682941e-14 -3.656390e-14 -8.923993e-15 -3.249139e-14 2.305365e-15 2.142672e-14 9.287837e-15 -3.246137e-15 -7.359154e-15 -2.776405e-14 5.605351e-15 3.302938e-15 -7.642136e-16 2.690616e-14 1.902585e-14 1.339217e-14 8.607869e-14 1.262918e-14 -2.778492e-15 -2.841272e-14 -7.177538e-15 2.710351e-14 3.017060e-14 3.552436e-15 -2.088667e-14 4.670372e-15 -3.615876e-15 3.347866e-14 -2.199747e-14 8.064090e-15 -3.354448e-14 -2.835074e-14 -1.534259e-14 2.657581e-14 4.539472e-14 5.413174e-14 2.821089e-16 8.677704e-15 4.050361e-14 9.234456e-15 1.506451e-14 2.061231e-14 3.742006e-14 2.489395e-14 1.151721e-14 3.856128e-14 1.905377e-14 1.123996e-14 9.975848e-16 6.032806e-16 -1.282953e-14 -3.079571e-15 -6.287579e-15 -4.236898e-16 -2.489325e-15 -9.709558e-15 -1.829922e-14 -2.456279e-14 -2.558965e-14 -2.646696e-14 -3.407447e-14 
2.152560e-06 1.669430e-06 2.242890e-06 1.795821e-06 2.401149e-06 1.991399e-06 2.596411e-06 2.230332e-06 2.797563e-06 2.487814e-06 2.974259e-06 2.740882e-06 3.098271e-06 2.969383e-06 3.145258e-06 3.157071e-06 3.096960e-06 3.292890e-06 2.943745e-06 3.372495e-06 2.687401e-06 3.400079e-06 2.344009e-06 3.390540e-06 1.946623e-06 3.371879e-06 1.547383e-06 3.387482e-06 1.218412e-06 3.497493e-06 1.050598e-06 3.778081e-06 1.149074e-06 4.317119e-06 1.624338e-06 5.205110e-06 2.578597e-06 6.521201e-06 4.088310e-06 8.315894e-06 6.185733e-06 1.059399e-05 8.843801e-06 1.330256e-05 1.196917e-05 1.632849e-05 1.540696e-05 1.950817e-05 1.895802e-05 2.264863e-05 2.240601e-05 2.555619e-05 2.554869e-05 2.806617e-05 2.822672e-05 3.006734e-05 3.034367e-05 3.151601e-05 3.187399e-05 3.243769e-05 3.285826e-05 3.291735e-05 3.338829e-05 3.308135e-05 3.358625e-05 3.307524e-05 3.358236e-05 3.304131e-05 3.349491e-05 3.309902e-05 3.341537e-05 3.333006e-05 3.339953e-05 3.376899e-05 3.346483e-05 3.439958e-05 3.359267e-05 3.515690e-05 3.373475e-05 3.593468e-05 3.382185e-05 3.659798e-05 3.377403e-05 3.700019e-05 3.351127e-05 3.700299e-05 3.296347e-05 3.649681e-05 3.207916e-05 3.541831e-05 3.083193e-05 3.376115e-05 2.922400e-05 3.157739e-05 2.728646e-05 2.896884e-05 2.507630e-05 2.607024e-05 2.267024e-05 2.302854e-05 2.015655e-05 1.998321e-05 1.762580e-05 1.705154e-05 1.516232e-05 1.432094e-05 1.283753e-05 1.184802e-05 1.070613e-05 9.662473e-06 8.805052e-06 7.773374e-06 7.154814e-06 6.175789e-06 5.762112e-06 4.856248e-06 4.622966e-06 3.796602e-06 3.725624e-06 2.976307e-06 3.052909e-06 2.373526e-06 2.583879e-06 1.965510e-06 2.294899e-06 1.728635e-06 2.160265e-06 1.638387e-06 
4.470013e-06 3.475216e-06 4.580554e-06 3.653845e-06 4.824526e-06 3.970130e-06 5.143234e-06 4.375516e-06 5.477225e-06 4.823210e-06 5.768419e-06 5.270017e-06 5.962915e-06 5.678319e-06 6.014521e-06 6.018193e-06 5.888994e-06 6.269774e-06 5.568902e-06 6.426007e-06 5.058926e-06 6.495982e-06 4.391329e-06 6.508985e-06 3.631116e-06 6.519124e-06 2.880181e-06 6.609887e-06 2.279222e-06 6.897115e-06 2.005603e-06 7.527977e-06 2.264816e-06 8.672948e-06 3.273276e-06 1.050827e-05 5.231494e-06 1.318842e-05 8.289418e-06 1.681169e-05 1.250947e-05 2.138588e-05 1.783603e-05 2.680388e-05 2.408120e-05 3.283839e-05 3.093407e-05 3.916119e-05 3.799531e-05 4.538564e-05 4.483170e-05 5.112435e-05 5.103937e-05 5.604943e-05 5.630189e-05 5.994193e-05 6.043102e-05 6.272051e-05 6.338274e-05 6.444496e-05 6.524774e-05 6.529638e-05 6.622105e-05 6.554030e-05 6.655929e-05 6.548093e-05 6.653454e-05 6.541467e-05 6.639271e-05 6.558884e-05 6.632167e-05 6.616971e-05 6.643178e-05 6.722190e-05 6.674903e-05 6.869994e-05 6.721944e-05 7.045241e-05 6.772253e-05 7.223865e-05 6.809166e-05 7.375758e-05 6.813862e-05 7.468679e-05 6.767993e-05 7.472821e-05 6.656210e-05 7.365393e-05 6.468248e-05 7.134402e-05 6.200330e-05 6.780800e-05 5.855672e-05 6.318415e-05 5.444047e-05 5.771579e-05 4.980502e-05 5.171001e-05 4.483441e-05 4.548895e-05 3.972424e-05 3.934557e-05 3.466063e-05 3.351304e-05 2.980373e-05 2.815165e-05 2.527788e-05 2.335168e-05 2.116892e-05 1.914679e-05 1.752712e-05 1.553153e-05 1.437364e-05 1.247784e-05 1.170798e-05 9.947365e-06 9.514774e-06 7.898993e-06 7.768787e-06 6.292144e-06 6.438177e-06 5.087267e-06 5.486144e-06 4.244898e-06 4.871598e-06 3.724381e-06 4.549317e-06 3.482916e-06 
6.224263e-06 4.758161e-06 6.468935e-06 5.113287e-06 6.924235e-06 5.681341e-06 7.497278e-06 6.384799e-06 8.094342e-06 7.149149e-06 8.623661e-06 7.905377e-06 8.999475e-06 8.592875e-06 9.147447e-06 9.162799e-06 9.011416e-06 9.581951e-06 8.561256e-06 9.837318e-06 7.801453e-06 9.941468e-06 6.779819e-06 9.938902e-06 5.595595e-06 9.913175e-06 4.405796e-06 9.993817e-06 3.428058e-06 1.036089e-05 2.937302e-06 1.124353e-05 3.252684e-06 1.290784e-05 4.711336e-06 1.563023e-05 7.627275e-06 1.965515e-05 1.223808e-05 2.514192e-05 1.864775e-05 3.211147e-05 2.677923e-05 4.040805e-05 3.635190e-05 4.969042e-05 4.689534e-05 5.946091e-05 5.780197e-05 6.913016e-05 6.841046e-05 7.810528e-05 7.810217e-05 8.588154e-05 8.638967e-05 9.211749e-05 9.297824e-05 9.667809e-05 9.778967e-05 9.963951e-05 1.009471e-04 1.012588e-04 1.027285e-04 1.019181e-04 1.035024e-04 1.020567e-04 1.036593e-04 1.021025e-04 1.035507e-04 1.024130e-04 1.034450e-04 1.032304e-04 1.035017e-04 1.046537e-04 1.037649e-04 1.066292e-04 1.041720e-04 1.089563e-04 1.045746e-04 1.113101e-04 1.047649e-04 1.132799e-04 1.045069e-04 1.144198e-04 1.035671e-04 1.143100e-04 1.017434e-04 1.126192e-04 9.888947e-05 1.091586e-04 9.493297e-05 1.039162e-04 8.988554e-05 9.706064e-05 8.384394e-05 8.891389e-05 7.698177e-05 7.989829e-05 6.953237e-05 7.047099e-05 6.176464e-05 6.106227e-05 5.395529e-05 5.203024e-05 4.636233e-05 4.363821e-05 3.920416e-05 3.605319e-05 3.264727e-05 2.935937e-05 2.680305e-05 2.357853e-05 2.173184e-05 1.869081e-05 1.745151e-05 1.465166e-05 1.394737e-05 1.140348e-05 1.118146e-05 8.882381e-06 9.099939e-06 7.021316e-06 7.638249e-06 5.751021e-06 6.724345e-06 5.000022e-06 6.280507e-06 4.694452e-06 
8.484200e-06 6.458444e-06 8.646223e-06 6.761212e-06 9.089206e-06 7.350413e-06 9.695446e-06 8.128761e-06 1.034520e-05 9.002453e-06 1.092083e-05 9.884887e-06 1.131250e-05 1.070069e-05 1.142536e-05 1.139004e-05 1.118839e-05 1.191344e-05 1.056453e-05 1.225712e-05 9.561625e-06 1.243949e-05 8.243535e-06 1.251891e-05 6.740525e-06 1.260270e-05 5.257543e-06 1.285639e-05 4.078290e-06 1.351052e-05 3.561620e-06 1.486012e-05 4.125518e-06 1.725049e-05 6.213593e-06 2.104340e-05 1.024130e-05 2.656155e-05 1.652478e-05 3.401715e-05 2.520340e-05 4.343906e-05 3.617437e-05 5.461935e-05 4.906081e-05 6.709980e-05 6.322925e-05 8.021019e-05 7.786058e-05 9.315601e-05 9.206340e-05 1.051385e-04 1.050056e-04 1.154798e-04 1.160354e-04 1.237264e-04 1.247651e-04 1.297075e-04 1.311036e-04 1.335422e-04 1.352356e-04 1.355973e-04 1.375571e-04 1.364111e-04 1.385864e-04 1.365987e-04 1.388686e-04 1.367565e-04 1.388908e-04 1.373791e-04 1.390182e-04 1.387951e-04 1.394568e-04 1.411259e-04 1.402427e-04 1.442701e-04 1.412536e-04 1.479117e-04 1.422385e-04 1.515542e-04 1.428604e-04 1.545783e-04 1.427451e-04 1.563217e-04 1.415338e-04 1.561733e-04 1.389321e-04 1.536686e-04 1.347499e-04 1.485706e-04 1.289272e-04 1.409155e-04 1.215436e-04 1.310113e-04 1.128085e-04 1.193867e-04 1.030364e-04 1.067002e-04 9.260791e-05 9.363477e-05 8.192615e-05 8.080199e-05 7.137313e-05 6.867869e-05 6.127568e-05 5.758237e-05 5.188516e-05 4.768157e-05 4.337214e-05 3.902785e-05 3.583333e-05 3.159515e-05 2.930572e-05 2.531512e-05 2.378274e-05 2.010255e-05 1.922862e-05 1.587002e-05 1.558891e-05 1.253362e-05 1.279708e-05 1.001299e-05 1.077768e-05 8.228744e-06 9.447577e-06 7.099466e-06 8.715942e-06 6.539556e-06 
9.580579e-06 7.082006e-06 9.898918e-06 7.592224e-06 1.059100e-05 8.474967e-06 1.150167e-05 9.600854e-06 1.247348e-05 1.084537e-05 1.335105e-05 1.209302e-05 1.398780e-05 1.324235e-05 1.425541e-05 1.421168e-05 1.405562e-05 1.494577e-05 1.333414e-05 1.542336e-05 1.209567e-05 1.566576e-05 1.041877e-05 1.574697e-05 8.469434e-06 1.580502e-05 6.511621e-06 1.605366e-05 4.912283e-06 1.679132e-05 4.136935e-06 1.840132e-05 4.729742e-06 2.133496e-05 7.271409e-06 2.606928e-05 1.231061e-05 3.303604e-05 2.027196e-05 4.252847e-05 3.135451e-05 5.460501e-05 4.544503e-05 6.901745e-05 6.207436e-05 8.519107e-05 8.043849e-05 1.022727e-04 9.948966e-05 1.192438e-04 1.180828e-04 1.350749e-04 1.351454e-04 1.488877e-04 1.498329e-04 1.600865e-04 1.616357e-04 1.684332e-04 1.704188e-04 1.740539e-04 1.763930e-04 1.773845e-04 1.800312e-04 1.790726e-04 1.819544e-04 1.798589e-04 1.828121e-04 1.804595e-04 1.831784e-04 1.814656e-04 1.834779e-04 1.832693e-04 1.839473e-04 1.860198e-04 1.846298e-04 1.896081e-04 1.853971e-04 1.936801e-04 1.859880e-04 1.976745e-04 1.860567e-04 2.008859e-04 1.852237e-04 2.025515e-04 1.831240e-04 2.019545e-04 1.794505e-04 1.985335e-04 1.739892e-04 1.919786e-04 1.666445e-04 1.822937e-04 1.574532e-04 1.698038e-04 1.465879e-04 1.551049e-04 1.343463e-04 1.389652e-04 1.211275e-04 1.222038e-04 1.073937e-04 1.055790e-04 9.362395e-05 8.970865e-05 8.026643e-05 7.503396e-05 6.769995e-05 6.182252e-05 5.621063e-05 5.019694e-05 4.598574e-05 4.017431e-05 3.712150e-05 3.170410e-05 2.963937e-05 2.469787e-05 2.350494e-05 1.904890e-05 1.864523e-05 1.464296e-05 1.496225e-05 1.136291e-05 1.234216e-05 9.089710e-06 1.066079e-05 7.701958e-06 9.786360e-06 7.075242e-06 
1.155543e-05 8.427680e-06 1.164734e-05 8.742598e-06 1.219576e-05 9.514462e-06 1.302331e-05 1.059671e-05 1.394824e-05 1.184796e-05 1.479043e-05 1.313773e-05 1.537988e-05 1.435269e-05 1.556808e-05 1.540341e-05 1.524211e-05 1.623164e-05 1.434097e-05 1.681828e-05 1.287295e-05 1.719247e-05 1.093285e-05 1.744215e-05 8.717487e-06 1.772671e-05 6.537754e-06 1.829082e-05 4.825051e-06 1.947651e-05 4.127497e-06 2.172661e-05 5.088915e-06 2.556880e-05 8.401566e-06 3.156890e-05 1.472592e-05 4.024719e-05 2.457948e-05 5.196443e-05 3.821088e-05 6.680077e-05 5.548990e-05 8.446278e-05 7.584964e-05 1.042547e-04 9.830953e-05 1.251351e-04 1.215869e-04 1.458559e-04 1.442784e-04 1.651554e-04 1.650719e-04 1.819593e-04 1.829400e-04 1.955459e-04 1.972729e-04 2.056391e-04 2.079277e-04 2.124167e-04 2.151908e-04 2.164420e-04 2.196729e-04 2.185406e-04 2.221647e-04 2.196512e-04 2.234858e-04 2.206767e-04 2.243521e-04 2.223566e-04 2.252809e-04 2.251703e-04 2.265396e-04 2.292783e-04 2.281372e-04 2.344997e-04 2.298507e-04 2.403269e-04 2.312766e-04 2.459757e-04 2.318988e-04 2.504734e-04 2.311638e-04 2.527811e-04 2.285573e-04 2.519419e-04 2.236735e-04 2.472362e-04 2.162694e-04 2.383144e-04 2.062988e-04 2.252764e-04 1.939211e-04 2.086698e-04 1.794875e-04 1.894019e-04 1.635036e-04 1.685823e-04 1.465736e-04 1.473393e-04 1.293334e-04 1.266582e-04 1.123821e-04 1.072793e-04 9.622785e-05 8.966701e-05 8.125465e-05 7.403922e-05 6.771516e-05 6.042987e-05 5.574371e-05 4.875936e-05 4.538121e-05 3.889355e-05 3.660265e-05 3.068323e-05 2.934082e-05 2.398449e-05 2.350329e-05 1.866467e-05 1.898242e-05 1.460002e-05 1.565991e-05 1.167000e-05 1.340807e-05 9.751782e-06 1.208931e-05 8.716449e-06 
1.169529e-05 8.084041e-06 1.194690e-05 8.621478e-06 1.276895e-05 9.716550e-06 1.394359e-05 1.118751e-05 1.524782e-05 1.285918e-05 1.645894e-05 1.456881e-05 1.736400e-05 1.617341e-05 1.777368e-05 1.755840e-05 1.754042e-05 1.864732e-05 1.657974e-05 1.941242e-05 1.489291e-05 1.988605e-05 1.258873e-05 2.017316e-05 9.902311e-06 2.046569e-05 7.209083e-06 2.105847e-05 5.031890e-06 2.236421e-05 4.036936e-06 2.491992e-05 5.010480e-06 2.937155e-05 8.804790e-06 3.642133e-05 1.624334e-05 4.672810e-05 2.798565e-05 6.076686e-05 4.437067e-05 7.867586e-05 6.527699e-05 1.001365e-04 9.004671e-05 1.243325e-04 1.175100e-04 1.500169e-04 1.461208e-04 1.756807e-04 1.741789e-04 1.997903e-04 2.000899e-04 2.210329e-04 2.226006e-04 2.385163e-04 2.409584e-04 2.518793e-04 2.549667e-04 2.612984e-04 2.649356e-04 2.674020e-04 2.715503e-04 2.711204e-04 2.756960e-04 2.735076e-04 2.782781e-04 2.755694e-04 2.800696e-04 2.781188e-04 2.816095e-04 2.816747e-04 2.831574e-04 2.864053e-04 2.847003e-04 2.921135e-04 2.859993e-04 2.982587e-04 2.866560e-04 3.040114e-04 2.861874e-04 3.083413e-04 2.840958e-04 3.101375e-04 2.799299e-04 3.083589e-04 2.733330e-04 3.021978e-04 2.640782e-04 2.912303e-04 2.520911e-04 2.755156e-04 2.374637e-04 2.556113e-04 2.204601e-04 2.324904e-04 2.015125e-04 2.073784e-04 1.811993e-04 1.815544e-04 1.601992e-04 1.561721e-04 1.392247e-04 1.321400e-04 1.189470e-04 1.100764e-04 9.993178e-05 9.032758e-05 8.259943e-05 7.302298e-05 6.721490e-05 5.814255e-05 5.390146e-05 4.557677e-05 4.266874e-05 3.517079e-05 3.344464e-05 2.675178e-05 2.610399e-05 2.014274e-05 2.049010e-05 1.516744e-05 1.642899e-05 1.165069e-05 1.373708e-05 9.416831e-06 1.222446e-05 8.288139e-06 
1.313596e-05 8.803244e-06 1.296636e-05 8.954642e-06 1.347026e-05 9.764667e-06 1.440943e-05 1.103610e-05 1.553758e-05 1.257878e-05 1.660755e-05 1.421748e-05 1.738267e-05 1.580068e-05 1.765286e-05 1.721023e-05 1.725531e-05 1.837154e-05 1.609873e-05 1.926416e-05 1.418877e-05 1.993258e-05 1.165207e-05 2.049801e-05 8.756270e-06 2.117231e-05 5.924603e-06 2.227521e-05 3.743734e-06 2.425324e-05 2.961368e-06 2.769273e-05 4.464919e-06 3.331118e-05 9.226579e-06 4.190567e-05 1.819968e-05 5.424267e-05 3.216285e-05 7.089282e-05 5.153206e-05 9.204361e-05 7.618733e-05 1.173469e-04 1.053734e-04 1.458613e-04 1.377227e-04 1.761257e-04 1.714149e-04 2.063614e-04 2.044442e-04 2.347562e-04 2.349315e-04 2.597620e-04 2.614084e-04 2.803354e-04 2.830084e-04 2.960701e-04 2.995319e-04 3.072044e-04 3.113841e-04 3.145167e-04 3.194150e-04 3.191439e-04 3.247060e-04 3.223662e-04 3.283505e-04 3.253985e-04 3.312683e-04 3.292142e-04 3.340795e-04 3.344188e-04 3.370470e-04 3.411770e-04 3.400835e-04 3.491883e-04 3.428052e-04 3.577086e-04 3.446167e-04 3.656167e-04 3.448093e-04 3.715308e-04 3.426639e-04 3.739755e-04 3.375493e-04 3.715929e-04 3.290049e-04 3.633730e-04 3.168010e-04 3.488592e-04 3.009694e-04 3.282769e-04 2.818066e-04 3.025364e-04 2.598528e-04 2.730915e-04 2.358482e-04 2.416810e-04 2.106637e-04 2.100281e-04 1.852108e-04 1.795829e-04 1.603439e-04 1.513747e-04 1.367774e-04 1.259872e-04 1.150377e-04 1.036301e-04 9.545351e-05 8.425519e-05 7.818041e-05 6.767382e-05 6.324163e-05 5.364539e-05 5.057184e-05 4.193092e-05 4.005319e-05 3.231534e-05 3.153991e-05 2.460948e-05 2.487184e-05 1.864192e-05 1.987993e-05 1.424819e-05 1.638683e-05 1.126168e-05 1.420525e-05 9.508056e-06 
1.197273e-05 7.141821e-06 1.194783e-05 7.516200e-06 1.273586e-05 8.666831e-06 1.405586e-05 1.035836e-05 1.561692e-05 1.236360e-05 1.712377e-05 1.447114e-05 1.828881e-05 1.649547e-05 1.885121e-05 1.828931e-05 1.860327e-05 1.975739e-05 1.742175e-05 2.087051e-05 1.530064e-05 2.167894e-05 1.238105e-05 2.232520e-05 8.974349e-06 2.305791e-05 5.577195e-06 2.424944e-05 2.878625e-06 2.641801e-05 1.757676e-06 3.024725e-05 3.262905e-06 3.658469e-05 8.555444e-06 4.639080e-05 1.879357e-05 6.061416e-05 3.494943e-05 7.999274e-05 5.757936e-05 1.048204e-04 8.660555e-05 1.347508e-04 1.211859e-04 1.687179e-04 1.597350e-04 2.050189e-04 2.001138e-04 2.415567e-04 2.399522e-04 2.761829e-04 2.770253e-04 3.070545e-04 3.095914e-04 3.329184e-04 3.366153e-04 3.532633e-04 3.578375e-04 3.683212e-04 3.736914e-04 3.789365e-04 3.851061e-04 3.863487e-04 3.932506e-04 3.919411e-04 3.992779e-04 3.970037e-04 4.041164e-04 4.025432e-04 4.083416e-04 4.091579e-04 4.121365e-04 4.169774e-04 4.153307e-04 4.256585e-04 4.174929e-04 4.344221e-04 4.180433e-04 4.421249e-04 4.163630e-04 4.473677e-04 4.118824e-04 4.486475e-04 4.041457e-04 4.445559e-04 3.928478e-04 4.340106e-04 3.778498e-04 4.164804e-04 3.591795e-04 3.921442e-04 3.370325e-04 3.619206e-04 3.117844e-04 3.273382e-04 2.840089e-04 2.902720e-04 2.544792e-04 2.526254e-04 2.241279e-04 2.160537e-04 1.939559e-04 1.817967e-04 1.649166e-04 1.506375e-04 1.378088e-04 1.229563e-04 1.132114e-04 9.883380e-05 9.146704e-05 7.816002e-05 7.270780e-05 6.072255e-05 5.690258e-05 4.626616e-05 4.390962e-05 3.452631e-05 3.352164e-05 2.524385e-05 2.549856e-05 1.816874e-05 1.958764e-05 1.305854e-05 1.553348e-05 9.675198e-06 1.308074e-05 7.782039e-06 
1.259286e-05 6.925503e-06 1.188890e-05 6.664380e-06 1.212894e-05 7.301827e-06 1.301222e-05 8.587027e-06 1.422444e-05 1.027871e-05 1.544524e-05 1.215523e-05 1.636202e-05 1.402649e-05 1.669162e-05 1.574740e-05 1.620971e-05 1.723207e-05 1.478616e-05 1.846755e-05 1.242165e-05 1.952550e-05 9.280008e-06 2.057205e-05 5.711536e-06 2.187804e-05 2.265924e-06 2.383486e-05 -3.025144e-07 2.698011e-05 -1.035513e-06 3.202845e-05 1.215449e-06 3.988681e-05 7.739965e-06 5.161630e-05 1.985197e-05 6.830311e-05 3.868551e-05 9.082977e-05 6.492249e-05 1.195904e-04 9.852216e-05 1.542411e-04 1.385509e-04 1.935880e-04 1.831944e-04 2.356761e-04 2.299784e-04 2.780734e-04 2.761511e-04 3.182805e-04 3.191323e-04 3.541563e-04 3.569150e-04 3.842566e-04 3.883287e-04 4.080133e-04 4.131180e-04 4.257330e-04 4.318399e-04 4.384402e-04 4.456263e-04 4.476178e-04 4.558775e-04 4.549096e-04 4.639556e-04 4.618392e-04 4.709356e-04 4.695845e-04 4.774496e-04 4.788255e-04 4.836386e-04 4.896674e-04 4.891958e-04 5.016239e-04 4.934734e-04 5.136488e-04 4.956168e-04 5.242150e-04 4.947038e-04 5.314525e-04 4.898764e-04 5.333601e-04 4.804558e-04 5.280907e-04 4.660295e-04 5.142813e-04 4.464990e-04 4.913679e-04 4.220868e-04 4.597966e-04 3.933175e-04 4.210442e-04 3.609901e-04 3.773968e-04 3.261395e-04 3.315280e-04 2.899675e-04 2.860040e-04 2.537309e-04 2.428790e-04 2.186026e-04 2.034916e-04 1.855463e-04 1.684776e-04 1.552440e-04 1.379298e-04 1.280880e-04 1.116095e-04 1.042248e-04 8.913249e-05 8.362275e-05 7.009461e-05 6.614008e-05 5.413354e-05 5.157704e-05 4.094516e-05 3.970959e-05 3.027385e-05 3.030619e-05 2.189365e-05 2.313320e-05 1.558998e-05 1.795396e-05 1.114639e-05 1.452518e-05 8.337249e-06 
9.730234e-06 3.552441e-06 9.134506e-06 3.498646e-06 9.650299e-06 4.478255e-06 1.093331e-05 6.199707e-06 1.262205e-05 8.381214e-06 1.434188e-05 1.076006e-05 1.571891e-05 1.310628e-05 1.640552e-05 1.524029e-05 1.611787e-05 1.705280e-05 1.468205e-05 1.852397e-05 1.208185e-05 1.973851e-05 8.499254e-06 2.089487e-05 4.340178e-06 2.231136e-05 2.440700e-07 2.443764e-05 -2.916337e-06 2.788119e-05 -4.037233e-06 3.344956e-05 -1.791401e-06 4.218510e-05 5.331578e-06 5.534249e-05 1.890631e-05 7.425228e-05 4.033811e-05 1.000492e-04 7.053125e-05 1.333157e-04 1.095458e-04 1.737589e-04 1.563729e-04 2.200571e-04 2.089372e-04 2.699579e-04 2.643593e-04 3.206212e-04 3.194198e-04 3.691135e-04 3.710978e-04 4.129173e-04 4.170474e-04 4.503272e-04 4.559004e-04 4.806505e-04 4.873437e-04 5.041904e-04 5.119815e-04 5.220481e-04 5.310416e-04 5.358117e-04 5.460085e-04 5.472099e-04 5.582662e-04 5.577965e-04 5.688203e-04 5.687110e-04 5.781451e-04 5.805389e-04 5.861712e-04 5.932673e-04 5.923921e-04 6.063091e-04 5.960404e-04 6.185681e-04 5.962766e-04 6.285255e-04 5.923460e-04 6.343589e-04 5.836860e-04 6.341139e-04 5.699776e-04 6.259510e-04 5.511465e-04 6.084617e-04 5.273223e-04 5.810079e-04 4.987788e-04 5.439834e-04 4.658945e-04 4.988801e-04 4.291737e-04 4.480853e-04 3.893220e-04 3.944495e-04 3.473194e-04 3.407683e-04 3.044107e-04 2.893563e-04 2.619838e-04 2.418267e-04 2.213790e-04 1.990824e-04 1.837074e-04 1.614516e-04 1.497412e-04 1.288728e-04 1.198938e-04 1.010647e-04 9.426831e-05 7.764895e-05 7.274050e-05 5.822223e-05 5.504393e-05 4.239184e-05 4.083973e-05 2.978753e-05 2.976425e-05 2.006201e-05 2.145622e-05 1.288673e-05 1.556819e-05 7.946694e-06 1.176735e-05 4.935658e-06 
9.192169e-06 2.042528e-06 7.582405e-06 1.032866e-06 7.249999e-06 1.202919e-06 7.829236e-06 2.242680e-06 8.933620e-06 3.855352e-06 1.016166e-05 5.769686e-06 1.111218e-05 7.755713e-06 1.141229e-05 9.643761e-06 1.075896e-05 1.134518e-05 8.971172e-06 1.287133e-05 6.044206e-06 1.434623e-05 2.194197e-06 1.600981e-05 -2.117663e-06 1.821448e-05 -6.183237e-06 2.142717e-05 -9.057179e-06 2.625469e-05 -9.561213e-06 3.350172e-05 -6.278682e-06 4.423969e-05 2.430187e-06 5.982166e-05 1.832676e-05 8.175867e-05 4.304478e-05 1.114126e-04 7.769832e-05 1.495585e-04 1.224521e-04 1.959687e-04 1.762239e-04 2.491976e-04 2.366657e-04 3.066822e-04 3.004678e-04 3.651462e-04 3.639114e-04 4.211919e-04 4.235121e-04 4.719084e-04 4.765843e-04 5.153408e-04 5.215953e-04 5.507232e-04 5.582493e-04 5.784529e-04 5.873173e-04 5.998516e-04 6.102841e-04 6.167976e-04 6.289122e-04 6.313193e-04 6.448180e-04 6.452266e-04 6.591421e-04 6.598321e-04 6.723680e-04 6.757875e-04 6.843072e-04 6.930244e-04 6.942218e-04 7.107652e-04 7.010244e-04 7.275704e-04 7.034906e-04 7.414170e-04 7.004510e-04 7.498418e-04 6.909526e-04 7.501891e-04 6.743880e-04 7.399824e-04 6.505734e-04 7.173942e-04 6.197521e-04 6.817305e-04 5.825332e-04 6.337948e-04 5.398146e-04 5.759611e-04 4.927477e-04 5.118361e-04 4.427381e-04 4.455521e-04 3.914121e-04 3.809304e-04 3.404870e-04 3.208299e-04 2.915632e-04 2.668870e-04 2.459239e-04 2.196365e-04 2.044232e-04 1.788543e-04 1.674874e-04 1.439332e-04 1.351981e-04 1.141688e-04 1.074056e-04 8.891943e-05 8.383264e-05 6.766191e-05 6.414849e-05 4.998389e-05 4.801167e-05 3.555073e-05 3.508886e-05 2.406993e-05 2.505864e-05 1.526374e-05 1.760772e-05 8.852253e-06 1.242450e-05 4.545616e-06 
4.193945e-06 -3.468004e-06 2.626089e-06 -4.307795e-06 2.530987e-06 -3.818416e-06 3.501431e-06 -2.352543e-06 5.102793e-06 -2.514304e-07 6.872645e-06 2.165760e-06 8.334773e-06 4.620226e-06 9.032144e-06 6.899256e-06 8.580322e-06 8.886599e-06 6.736783e-06 1.059125e-05 3.473611e-06 1.216586e-05 -9.648214e-07 1.390750e-05 -6.036032e-06 1.624236e-05 -1.090916e-05 1.971129e-05 -1.449266e-05 2.498699e-05 -1.544807e-05 3.294666e-05 -1.217171e-05 4.478256e-05 -2.777879e-06 6.206566e-05 1.482337e-05 8.663713e-05 4.265364e-05 1.202479e-04 8.218628e-05 1.640038e-04 1.337922e-04 2.178182e-04 1.963414e-04 2.801188e-04 2.671591e-04 3.479576e-04 3.423958e-04 4.175085e-04 4.177033e-04 4.847904e-04 4.890164e-04 5.463987e-04 5.532217e-04 6.000529e-04 6.085609e-04 6.448496e-04 6.547014e-04 6.812028e-04 6.925064e-04 7.105391e-04 7.235955e-04 7.348526e-04 7.498199e-04 7.562303e-04 7.727648e-04 7.764373e-04 7.933784e-04 7.966245e-04 8.117966e-04 8.171924e-04 8.273928e-04 8.377981e-04 8.390137e-04 8.574487e-04 8.453069e-04 8.746130e-04 8.450343e-04 8.873199e-04 8.373008e-04 8.932625e-04 8.216754e-04 8.899621e-04 7.982116e-04 8.750509e-04 7.673743e-04 8.466978e-04 7.298854e-04 8.041301e-04 6.865249e-04 7.480904e-04 6.379875e-04 6.809934e-04 5.849058e-04 6.066089e-04 5.280608e-04 5.293241e-04 4.686316e-04 4.532655e-04 4.082756e-04 3.816313e-04 3.489490e-04 3.164233e-04 2.925678e-04 2.585485e-04 2.406849e-04 2.081191e-04 1.943107e-04 1.647789e-04 1.538993e-04 1.279569e-04 1.194488e-04 9.702219e-05 9.064753e-05 7.135956e-05 6.701185e-05 5.039689e-05 4.799154e-05 3.360920e-05 3.303640e-05 2.051414e-05 2.163045e-05 1.066539e-05 1.330283e-05 3.645789e-06 7.624031e-06 -9.392436e-07 
2.098308e-06 -6.685509e-06 -9.113920e-07 -8.885277e-06 -2.243654e-06 -9.587113e-06 -2.332349e-06 -9.170036e-06 -1.640783e-06 -7.994224e-06 -6.611562e-07 -6.386900e-06 9.959582e-08 -4.621936e-06 1.542633e-07 -2.892416e-06 -9.060569e-07 -1.278382e-06 -3.332826e-06 2.834835e-07 -7.134856e-06 2.016844e-06 -1.201140e-05 4.297823e-06 -1.732854e-05 7.620519e-06 -2.214717e-05 1.255659e-05 -2.527889e-05 1.975489e-05 -2.531707e-05 3.002917e-05 -2.060089e-05 4.453014e-05 -9.140794e-06 6.489733e-05 1.136609e-05 9.320687e-05 4.326962e-05 1.315753e-04 8.839987e-05 1.814695e-04 1.473606e-04 2.429889e-04 2.189939e-04 3.144557e-04 3.002895e-04 3.925212e-04 3.868186e-04 4.727627e-04 4.735506e-04 5.505590e-04 5.557926e-04 6.219698e-04 6.299846e-04 6.843835e-04 6.941674e-04 7.368059e-04 7.480532e-04 7.797771e-04 7.927383e-04 8.150011e-04 8.301777e-04 8.448197e-04 8.625624e-04 8.716593e-04 8.917322e-04 8.975512e-04 9.187364e-04 9.237981e-04 9.436290e-04 9.508243e-04 9.655331e-04 9.781836e-04 9.829179e-04 1.004641e-03 9.939637e-04 1.028241e-03 9.968952e-04 1.046360e-03 9.902354e-04 1.055805e-03 9.729986e-04 1.053080e-03 9.448380e-04 1.034856e-03 9.061081e-04 9.986382e-04 8.577751e-04 9.435191e-04 8.011864e-04 8.708364e-04 7.378469e-04 7.843981e-04 6.693733e-04 6.899805e-04 5.976228e-04 5.941002e-04 5.247852e-04 5.025271e-04 4.532419e-04 4.192019e-04 3.852170e-04 3.459438e-04 3.224275e-04 2.828539e-04 2.659094e-04 2.290273e-04 2.160539e-04 1.832078e-04 1.727722e-04 1.442013e-04 1.356886e-04 1.110469e-04 1.042963e-04 8.302595e-05 7.805738e-05 5.959999e-05 5.645245e-05 4.033740e-05 3.899846e-05 2.485607e-05 2.524805e-05 1.278811e-05 1.478150e-05 3.762646e-06 7.196601e-06 -2.599626e-06 
-5.483776e-06 -1.476189e-05 -8.564383e-06 -1.686317e-05 -9.748492e-06 -1.730878e-05 -9.504677e-06 -1.652112e-05 -8.342292e-06 -1.490971e-05 -6.821458e-06 -1.286019e-05 -5.542727e-06 -1.071040e-05 -5.106888e-06 -8.712131e-06 -6.039066e-06 -6.982175e-06 -8.681655e-06 -5.453379e-06 -1.307678e-05 -3.844900e-06 -1.887468e-05 -1.672769e-06 -2.530729e-05 1.690936e-06 -3.124327e-05 6.935822e-06 -3.529097e-05 1.477731e-05 -3.586505e-05 2.605252e-05 -3.113468e-05 4.196926e-05 -1.887155e-05 6.437766e-05 3.623459e-06 9.579435e-05 3.926096e-05 1.389486e-04 9.046445e-05 1.958913e-04 1.582382e-04 2.670318e-04 2.414372e-04 3.505755e-04 3.366237e-04 4.426462e-04 4.386095e-04 5.380417e-04 5.414814e-04 6.313266e-04 6.397559e-04 7.178997e-04 7.293276e-04 7.947485e-04 8.079943e-04 8.607482e-04 8.754894e-04 9.165104e-04 9.330916e-04 9.639015e-04 9.829663e-04 1.005403e-03 1.027413e-03 1.043461e-03 1.068171e-03 1.079944e-03 1.105909e-03 1.115786e-03 1.140023e-03 1.150885e-03 1.168807e-03 1.184235e-03 1.189926e-03 1.214167e-03 1.201014e-03 1.238541e-03 1.200194e-03 1.254843e-03 1.186401e-03 1.260220e-03 1.159521e-03 1.251586e-03 1.120351e-03 1.225897e-03 1.070415e-03 1.180710e-03 1.011611e-03 1.115009e-03 9.457183e-04 1.030053e-03 8.739850e-04 9.297610e-04 7.971201e-04 8.202214e-04 7.157999e-04 7.083570e-04 6.313469e-04 6.003573e-04 5.460201e-04 5.005993e-04 4.626968e-04 4.113942e-04 3.842111e-04 3.333791e-04 3.127625e-04 2.661498e-04 2.496376e-04 2.088162e-04 1.952434e-04 1.603533e-04 1.493209e-04 1.197668e-04 1.112036e-04 8.614547e-05 8.003838e-05 5.866396e-05 5.493845e-05 3.657392e-05 3.507098e-05 1.919569e-05 1.969584e-05 5.912005e-06 8.171604e-06 -3.838689e-06 -5.738506e-08 -1.057081e-05 
-9.601878e-06 -2.015518e-05 -1.466142e-05 -2.411673e-05 -1.758281e-05 -2.624069e-05 -1.887228e-05 -2.699137e-05 -1.907427e-05 -2.680587e-05 -1.878241e-05 -2.607972e-05 -1.863240e-05 -2.514137e-05 -1.926319e-05 -2.421230e-05 -2.123559e-05 -2.335415e-05 -2.490912e-05 -2.241357e-05 -3.029944e-05 -2.098799e-05 -3.696325e-05 -1.844324e-05 -4.396866e-05 -1.400392e-05 -4.998457e-05 -6.893446e-06 -5.345214e-05 3.569219e-06 -5.271486e-05 1.805698e-05 -4.595953e-05 3.758174e-05 -3.094902e-05 6.395700e-05 -4.782397e-06 9.998664e-05 3.592206e-05 1.489973e-04 9.420436e-05 2.137127e-04 1.715483e-04 2.949618e-04 2.668827e-04 3.908920e-04 3.763418e-04 4.970809e-04 4.939192e-04 6.074690e-04 6.127302e-04 7.157065e-04 7.264159e-04 8.164461e-04 8.302743e-04 9.062361e-04 9.218648e-04 9.838517e-04 1.001019e-03 1.050087e-03 1.069354e-03 1.107166e-03 1.129482e-03 1.157988e-03 1.184124e-03 1.205369e-03 1.235289e-03 1.251421e-03 1.283671e-03 1.297154e-03 1.328413e-03 1.342388e-03 1.367331e-03 1.385932e-03 1.397485e-03 1.425833e-03 1.415845e-03 1.459473e-03 1.419791e-03 1.483511e-03 1.407423e-03 1.493854e-03 1.377778e-03 1.485887e-03 1.331036e-03 1.455072e-03 1.268610e-03 1.397870e-03 1.192893e-03 1.312934e-03 1.106636e-03 1.202314e-03 1.012338e-03 1.072115e-03 9.121804e-04 9.318087e-04 8.085181e-04 7.920003e-04 7.043281e-04 6.616134e-04 6.030495e-04 5.460100e-04 5.079000e-04 4.468012e-04 4.212092e-04 3.629482e-04 3.441630e-04 2.922171e-04 2.769552e-04 2.322810e-04 2.191266e-04 1.812548e-04 1.698928e-04 1.377902e-04 1.283700e-04 1.009554e-04 9.369678e-05 7.006905e-05 6.508364e-05 4.456959e-05 4.182248e-05 2.393800e-05 2.327826e-05 7.662945e-06 8.875151e-06 -4.769139e-06 -1.918018e-06 -1.387220e-05 