# vtk DataFile Version 2.0
Comment goes here
ASCII

DATASET STRUCTURED_POINTS
FIELD FieldData 1
TIME 1 1 double
0.08500000
DIMENSIONS    128   128   1

ORIGIN    0.000   0.000   0.000
SPACING   0.039062 0.039062   1.000

POINT_DATA   16384
SCALARS Omega double
LOOKUP_TABLE default

3.782023e-14 4.640175e-14 4.826425e-14 4.913976e-14 5.883920e-14 6.057822e-14 5.614776e-14 5.957912e-14 5.322470e-14 5.366523e-14 2.729601e-14 7.845006e-15 -2.997690e-16 1.760425e-15 -7.329453e-15 -5.825959e-15 -4.064220e-14 -6.243013e-14 -6.083864e-14 -6.768230e-14 -6.726404e-14 -4.213530e-14 -3.735997e-14 -4.639674e-14 -3.370532e-14 2.838032e-15 -5.138323e-15 1.873386e-14 1.325714e-14 1.953416e-14 2.744211e-15 1.421273e-14 -2.009747e-14 1.173720e-14 1.414616e-14 -3.259723e-14 -2.056725e-14 -2.421393e-15 -1.214456e-14 -1.840269e-14 1.213127e-14 6.111290e-15 5.164028e-15 3.619583e-14 8.507995e-15 -1.016834e-14 1.020639e-14 -2.363059e-14 2.802755e-14 1.274176e-14 6.602911e-14 5.054914e-14 1.397655e-14 1.955998e-14 5.617130e-14 4.268649e-14 3.410528e-14 5.720633e-14 2.781729e-14 -2.684223e-14 3.262236e-15 -1.209935e-14 -1.759418e-14 -1.719695e-14 -3.773993e-14 -6.095850e-14 -5.958980e-14 -9.035801e-14 -1.479652e-14 7.312240e-15 3.925016e-14 -2.448593e-14 -7.689373e-14 -2.325145e-14 -8.912525e-14 -2.548434e-14 -5.985194e-14 -6.406697e-14 -2.442239e-14 4.277966e-15 2.223461e-14 3.703845e-14 -9.231271e-15 -3.926895e-15 1.710467e-14 1.641309e-14 2.844081e-14 5.583242e-14 -4.794407e-16 3.181810e-15 1.816255e-15 5.858512e-14 -3.319550e-14 -2.554696e-14 9.507748e-15 1.130003e-14 9.828464e-14 9.647220e-14 7.786691e-14 5.470654e-14 -7.885132e-14 1.849156e-14 1.020682e-14 5.131586e-14 -1.534729e-14 3.264954e-14 -1.193329e-14 2.461663e-14 -9.006457e-14 -2.727368e-14 1.508413e-14 -2.423588e-14 5.758051e-15 3.220337e-14 -2.021459e-14 2.471220e-14 6.745214e-15 1.830558e-14 8.427865e-15 -1.865025e-15 -1.863816e-14 -2.366233e-14 -1.380656e-14 1.303139e-14 3.187518e-14 4.437048e-14 4.482933e-14 2.687837e-14 
4.480178e-06 4.407001e-06 4.398590e-06 4.427064e-06 4.478729e-06 4.601967e-06 4.688353e-06 4.893771e-06 4.992511e-06 5.262297e-06 5.354786e-06 5.666665e-06 5.738707e-06 6.067081e-06 6.109398e-06 6.426944e-06 6.435522e-06 6.715312e-06 6.691578e-06 6.909720e-06 6.860585e-06 6.999315e-06 6.937125e-06 6.988160e-06 6.930654e-06 6.898481e-06 6.868761e-06 6.773371e-06 6.799788e-06 6.678210e-06 6.793840e-06 6.699687e-06 6.940847e-06 6.941154e-06 7.344329e-06 7.513198e-06 8.109985e-06 8.519236e-06 9.329519e-06 1.003743e-05 1.106189e-05 1.210206e-05 1.331601e-05 1.468894e-05 1.603968e-05 1.770954e-05 1.911903e-05 2.101688e-05 2.239026e-05 2.442355e-05 2.566222e-05 2.772853e-05 2.874516e-05 3.074709e-05 3.147915e-05 3.333706e-05 3.375598e-05 3.541607e-05 3.553003e-05 3.696670e-05 3.681698e-05 3.802973e-05 3.768192e-05 3.868864e-05 3.822085e-05 3.904933e-05 3.853999e-05 3.921985e-05 3.873710e-05 3.929367e-05 3.888771e-05 3.933855e-05 3.903739e-05 3.939162e-05 3.920005e-05 3.945997e-05 3.936091e-05 3.952513e-05 3.948275e-05 3.954982e-05 3.951365e-05 3.948540e-05 3.939526e-05 3.927914e-05 3.907073e-05 3.888076e-05 3.849184e-05 3.824784e-05 3.762483e-05 3.735011e-05 3.645441e-05 3.617224e-05 3.498545e-05 3.471491e-05 3.324187e-05 3.299422e-05 3.126313e-05 3.103950e-05 2.909893e-05 2.889026e-05 2.680368e-05 2.659304e-05 2.443184e-05 2.419863e-05 2.203514e-05 2.176006e-05 1.966148e-05 1.933100e-05 1.735501e-05 1.696429e-05 1.515646e-05 1.471028e-05 1.310306e-05 1.261488e-05 1.122779e-05 1.071765e-05 9.558213e-06 9.049950e-06 8.115215e-06 7.633727e-06 6.912018e-06 6.480908e-06 5.953698e-06 5.593430e-06 5.237216e-06 4.963814e-06 4.751892e-06 4.576106e-06 
1.050929e-05 1.029948e-05 1.022785e-05 1.022342e-05 1.026974e-05 1.045908e-05 1.057596e-05 1.093493e-05 1.107969e-05 1.157271e-05 1.170906e-05 1.229086e-05 1.239041e-05 1.300854e-05 1.305212e-05 1.365047e-05 1.362914e-05 1.415243e-05 1.406817e-05 1.446743e-05 1.433348e-05 1.457247e-05 1.441340e-05 1.447534e-05 1.432700e-05 1.422117e-05 1.413059e-05 1.389772e-05 1.392272e-05 1.363791e-05 1.384589e-05 1.361763e-05 1.408246e-05 1.404616e-05 1.484189e-05 1.514715e-05 1.633784e-05 1.712971e-05 1.875572e-05 2.015216e-05 2.221520e-05 2.428487e-05 2.673566e-05 2.948121e-05 3.221438e-05 3.556609e-05 3.842582e-05 4.224826e-05 4.504560e-05 4.915669e-05 5.169598e-05 5.589435e-05 5.800333e-05 6.209765e-05 6.365442e-05 6.748817e-05 6.843888e-05 7.190555e-05 7.226932e-05 7.531593e-05 7.517670e-05 7.779690e-05 7.728485e-05 7.950482e-05 7.877225e-05 8.063388e-05 7.983045e-05 8.137602e-05 8.062775e-05 8.188912e-05 8.128380e-05 8.227753e-05 8.185755e-05 8.258595e-05 8.234776e-05 8.280451e-05 8.270324e-05 8.288146e-05 8.283876e-05 8.273946e-05 8.265304e-05 8.229184e-05 8.204582e-05 8.145660e-05 8.093229e-05 8.016689e-05 7.925407e-05 7.837803e-05 7.698625e-05 7.607118e-05 7.414045e-05 7.325420e-05 7.076355e-05 6.996001e-05 6.693210e-05 6.624276e-05 6.274311e-05 6.217238e-05 5.830282e-05 5.782849e-05 5.371584e-05 5.329488e-05 4.907726e-05 4.865573e-05 4.446902e-05 4.399369e-05 3.996047e-05 3.938935e-05 3.561157e-05 3.492120e-05 3.147653e-05 3.066504e-05 2.760638e-05 2.669238e-05 2.404940e-05 2.306804e-05 2.084979e-05 1.984714e-05 1.804524e-05 1.707233e-05 1.566414e-05 1.477155e-05 1.372331e-05 1.295666e-05 1.222638e-05 1.162290e-05 1.116307e-05 1.074927e-05 
1.324065e-05 1.299787e-05 1.295879e-05 1.302685e-05 1.316933e-05 1.352767e-05 1.377534e-05 1.438620e-05 1.467178e-05 1.548160e-05 1.574923e-05 1.669084e-05 1.689805e-05 1.789405e-05 1.801332e-05 1.898082e-05 1.900072e-05 1.985767e-05 1.978339e-05 2.045664e-05 2.031005e-05 2.074463e-05 2.056399e-05 2.073344e-05 2.057300e-05 2.048940e-05 2.041917e-05 2.014161e-05 2.024692e-05 1.988650e-05 2.026662e-05 1.998547e-05 2.074950e-05 2.075155e-05 2.200966e-05 2.252165e-05 2.437009e-05 2.561306e-05 2.811345e-05 3.026806e-05 3.342422e-05 3.659614e-05 4.033458e-05 4.452809e-05 4.868926e-05 5.379680e-05 5.814283e-05 6.395478e-05 6.819545e-05 7.442929e-05 7.826225e-05 8.460498e-05 8.776206e-05 9.391604e-05 9.620516e-05 1.019272e-04 1.032604e-04 1.083865e-04 1.087885e-04 1.132404e-04 1.128370e-04 1.166129e-04 1.156041e-04 1.187571e-04 1.173805e-04 1.199930e-04 1.184863e-04 1.206453e-04 1.192142e-04 1.209927e-04 1.197879e-04 1.212348e-04 1.203394e-04 1.214779e-04 1.209048e-04 1.217383e-04 1.214346e-04 1.219564e-04 1.218129e-04 1.220175e-04 1.218811e-04 1.217748e-04 1.214628e-04 1.210706e-04 1.203873e-04 1.197556e-04 1.185113e-04 1.177052e-04 1.157362e-04 1.148322e-04 1.120206e-04 1.110954e-04 1.073859e-04 1.065026e-04 1.019122e-04 1.011089e-04 9.572751e-05 9.500951e-05 8.899038e-05 8.832958e-05 8.187170e-05 8.121407e-05 7.453990e-05 7.381900e-05 6.715227e-05 6.630547e-05 5.985239e-05 5.883538e-05 5.277138e-05 5.156757e-05 4.602982e-05 4.465325e-05 3.973802e-05 3.823029e-05 3.399405e-05 3.241722e-05 2.887993e-05 2.730776e-05 2.445771e-05 2.296701e-05 2.076634e-05 1.942961e-05 1.782017e-05 1.670005e-05 1.560917e-05 1.475457e-05 1.410045e-05 1.354412e-05 
2.063840e-05 2.016798e-05 1.999129e-05 1.994477e-05 2.000813e-05 2.036243e-05 2.057038e-05 2.127711e-05 2.154382e-05 2.253133e-05 2.278388e-05 2.396066e-05 2.414218e-05 2.540184e-05 2.547429e-05 2.670242e-05 2.664883e-05 2.773209e-05 2.755796e-05 2.839523e-05 2.812913e-05 2.864446e-05 2.833786e-05 2.849438e-05 2.822110e-05 2.803464e-05 2.789019e-05 2.744056e-05 2.754127e-05 2.697888e-05 2.745972e-05 2.700424e-05 2.801335e-05 2.794147e-05 2.962847e-05 3.024841e-05 3.274443e-05 3.435760e-05 3.774743e-05 4.060156e-05 4.489223e-05 4.913446e-05 5.422861e-05 5.986973e-05 6.555373e-05 7.245415e-05 7.840880e-05 8.629200e-05 9.212802e-05 1.006202e-04 1.059333e-04 1.146206e-04 1.190542e-04 1.275436e-04 1.308452e-04 1.388159e-04 1.408741e-04 1.481082e-04 1.489623e-04 1.553516e-04 1.551742e-04 1.607051e-04 1.597630e-04 1.644866e-04 1.630908e-04 1.670877e-04 1.655419e-04 1.688910e-04 1.674487e-04 1.702056e-04 1.690407e-04 1.712286e-04 1.704221e-04 1.720355e-04 1.715755e-04 1.725927e-04 1.723849e-04 1.727863e-04 1.726700e-04 1.724560e-04 1.722234e-04 1.714284e-04 1.708448e-04 1.695443e-04 1.683691e-04 1.666788e-04 1.646879e-04 1.627537e-04 1.597623e-04 1.577435e-04 1.536290e-04 1.516766e-04 1.463974e-04 1.446319e-04 1.382379e-04 1.367307e-04 1.293629e-04 1.281254e-04 1.200016e-04 1.189863e-04 1.103763e-04 1.094891e-04 1.006847e-04 9.980688e-05 9.109256e-05 9.010672e-05 8.173601e-05 8.054952e-05 7.273026e-05 7.129120e-05 6.417894e-05 6.248242e-05 5.618045e-05 5.426584e-05 4.882927e-05 4.677097e-05 4.221294e-05 4.010804e-05 3.640657e-05 3.436197e-05 3.146688e-05 2.958787e-05 2.742727e-05 2.580825e-05 2.429462e-05 2.301232e-05 2.204789e-05 2.115680e-05 
2.137722e-05 2.089426e-05 2.078162e-05 2.083644e-05 2.103071e-05 2.158926e-05 2.196211e-05 2.296148e-05 2.340019e-05 2.475067e-05 2.516193e-05 2.675052e-05 2.706380e-05 2.875949e-05 2.893001e-05 3.059158e-05 3.060236e-05 3.208895e-05 3.195187e-05 3.313652e-05 3.289213e-05 3.367778e-05 3.339428e-05 3.373137e-05 3.350312e-05 3.340706e-05 3.335332e-05 3.291961e-05 3.318352e-05 3.259717e-05 3.334402e-05 3.287930e-05 3.429108e-05 3.429734e-05 3.655969e-05 3.742988e-05 4.070811e-05 4.282996e-05 4.723375e-05 5.092880e-05 5.647111e-05 6.193265e-05 6.849361e-05 7.573857e-05 8.304775e-05 9.189675e-05 9.954501e-05 1.096388e-04 1.171228e-04 1.279737e-04 1.347667e-04 1.458330e-04 1.514667e-04 1.622337e-04 1.663722e-04 1.764201e-04 1.789090e-04 1.879555e-04 1.888366e-04 1.967471e-04 1.962376e-04 2.030072e-04 2.014510e-04 2.071671e-04 2.049712e-04 2.097676e-04 2.073365e-04 2.113511e-04 2.090316e-04 2.123753e-04 2.104178e-04 2.131586e-04 2.116980e-04 2.138604e-04 2.129127e-04 2.144894e-04 2.139609e-04 2.149317e-04 2.146351e-04 2.149874e-04 2.146618e-04 2.144086e-04 2.137427e-04 2.129347e-04 2.115937e-04 2.103233e-04 2.079805e-04 2.063762e-04 2.027483e-04 2.009609e-04 1.958439e-04 1.940247e-04 1.873257e-04 1.856014e-04 1.773573e-04 1.758067e-04 1.661861e-04 1.648246e-04 1.541095e-04 1.528875e-04 1.414398e-04 1.402554e-04 1.284748e-04 1.272007e-04 1.154835e-04 1.139984e-04 1.027038e-04 1.009206e-04 9.034873e-05 8.823284e-05 7.861335e-05 7.618755e-05 6.767690e-05 6.501486e-05 5.769979e-05 5.491212e-05 4.881671e-05 4.603423e-05 4.112900e-05 3.848691e-05 3.469899e-05 3.232383e-05 2.954744e-05 2.754764e-05 2.565424e-05 2.411389e-05 2.296136e-05 2.193656e-05 
2.995633e-05 2.912190e-05 2.877021e-05 2.860478e-05 2.862336e-05 2.909252e-05 2.933657e-05 3.036732e-05 3.070675e-05 3.219044e-05 3.251490e-05 3.431196e-05 3.453573e-05 3.648281e-05 3.654954e-05 3.846967e-05 3.835619e-05 4.007242e-05 3.979119e-05 4.114372e-05 4.074344e-05 4.160974e-05 4.117426e-05 4.149077e-05 4.113695e-05 4.092044e-05 4.079578e-05 4.016172e-05 4.044242e-05 3.961649e-05 4.050493e-05 3.982312e-05 4.154173e-05 4.143366e-05 4.420999e-05 4.516117e-05 4.919951e-05 5.169184e-05 5.713040e-05 6.156695e-05 6.842679e-05 7.505471e-05 8.319416e-05 9.204459e-05 1.011365e-04 1.119998e-04 1.215459e-04 1.339921e-04 1.433785e-04 1.568214e-04 1.654071e-04 1.791962e-04 1.864145e-04 1.999335e-04 2.053831e-04 2.181305e-04 2.216342e-04 2.332714e-04 2.348912e-04 2.452508e-04 2.452581e-04 2.543176e-04 2.531302e-04 2.609627e-04 2.590633e-04 2.657816e-04 2.636362e-04 2.693434e-04 2.673347e-04 2.720919e-04 2.704755e-04 2.742903e-04 2.731766e-04 2.760128e-04 2.753708e-04 2.771719e-04 2.768477e-04 2.775686e-04 2.773114e-04 2.769480e-04 2.764388e-04 2.750510e-04 2.739313e-04 2.716536e-04 2.695552e-04 2.665929e-04 2.631704e-04 2.597819e-04 2.547484e-04 2.512155e-04 2.443794e-04 2.409697e-04 2.322685e-04 2.291970e-04 2.187178e-04 2.161142e-04 2.040943e-04 2.019835e-04 1.887876e-04 1.870896e-04 1.731662e-04 1.717181e-04 1.575465e-04 1.561406e-04 1.421807e-04 1.406112e-04 1.272649e-04 1.253695e-04 1.129579e-04 1.106458e-04 9.940196e-05 9.666370e-05 8.673518e-05 8.363609e-05 7.509428e-05 7.175743e-05 6.460873e-05 6.119301e-05 5.539080e-05 5.206915e-05 4.752522e-05 4.446602e-05 4.106118e-05 3.841387e-05 3.600748e-05 3.389247e-05 3.233081e-05 3.083307e-05 
2.839356e-05 2.755006e-05 2.728770e-05 2.723866e-05 2.741456e-05 2.811256e-05 2.854484e-05 2.990173e-05 3.043118e-05 3.232062e-05 3.281589e-05 3.507756e-05 3.544030e-05 3.788676e-05 3.805632e-05 4.048353e-05 4.044065e-05 4.264278e-05 4.241145e-05 4.420025e-05 4.384710e-05 4.507520e-05 4.470662e-05 4.529323e-05 4.505115e-05 4.500790e-05 4.506580e-05 4.451968e-05 4.508007e-05 4.428905e-05 4.558198e-05 4.493786e-05 4.721672e-05 4.722821e-05 5.075586e-05 5.200573e-05 5.702377e-05 6.009796e-05 6.677627e-05 7.217146e-05 8.054475e-05 8.857126e-05 9.847977e-05 1.091842e-04 1.202411e-04 1.333724e-04 1.449773e-04 1.600101e-04 1.714145e-04 1.876274e-04 1.980425e-04 2.146325e-04 2.233541e-04 2.395591e-04 2.460817e-04 2.612828e-04 2.653732e-04 2.791560e-04 2.808744e-04 2.930421e-04 2.927092e-04 3.032523e-04 3.013736e-04 3.104113e-04 3.075802e-04 3.152914e-04 3.120910e-04 3.186521e-04 3.155745e-04 3.211151e-04 3.185075e-04 3.230910e-04 3.211315e-04 3.247587e-04 3.234568e-04 3.260880e-04 3.253002e-04 3.268865e-04 3.263398e-04 3.268553e-04 3.261744e-04 3.256432e-04 3.243792e-04 3.228930e-04 3.205593e-04 3.182813e-04 3.143977e-04 3.115533e-04 3.056992e-04 3.025520e-04 2.944244e-04 2.912407e-04 2.807062e-04 2.777130e-04 2.648425e-04 2.621865e-04 2.472587e-04 2.449780e-04 2.284496e-04 2.264677e-04 2.089152e-04 2.070622e-04 1.891108e-04 1.871688e-04 1.694251e-04 1.671842e-04 1.501847e-04 1.474926e-04 1.316728e-04 1.284658e-04 1.141474e-04 1.104574e-04 9.784945e-05 9.379073e-05 8.299759e-05 7.874201e-05 6.977658e-05 6.552526e-05 5.832392e-05 5.428184e-05 4.872072e-05 4.507701e-05 4.098827e-05 3.790278e-05 3.508996e-05 3.268516e-05 3.093663e-05 2.929351e-05 
3.793091e-05 3.657296e-05 3.593330e-05 3.552986e-05 3.540272e-05 3.590780e-05 3.609684e-05 3.741223e-05 3.774126e-05 3.971994e-05 4.003947e-05 4.249125e-05 4.268571e-05 4.538596e-05 4.538115e-05 4.808393e-05 4.785336e-05 5.030977e-05 4.987875e-05 5.186057e-05 5.130678e-05 5.263456e-05 5.208483e-05 5.265840e-05 5.228275e-05 5.211152e-05 5.211651e-05 5.134603e-05 5.197015e-05 5.090051e-05 5.241188e-05 5.150196e-05 5.419475e-05 5.404429e-05 5.822541e-05 5.952666e-05 6.548250e-05 6.893769e-05 7.687580e-05 8.308717e-05 9.305987e-05 1.024123e-04 1.142432e-04 1.268098e-04 1.400521e-04 1.555531e-04 1.695045e-04 1.873354e-04 2.011170e-04 2.204434e-04 2.331298e-04 2.530246e-04 2.637955e-04 2.833828e-04 2.916571e-04 3.102297e-04 3.157515e-04 3.328364e-04 3.356950e-04 3.510606e-04 3.516444e-04 3.652577e-04 3.641585e-04 3.761106e-04 3.740037e-04 3.844278e-04 3.819537e-04 3.909546e-04 3.886252e-04 3.962369e-04 3.943781e-04 4.005537e-04 3.992869e-04 4.039193e-04 4.031742e-04 4.061380e-04 4.056844e-04 4.068861e-04 4.063721e-04 4.057968e-04 4.047854e-04 4.025300e-04 4.005343e-04 3.968211e-04 3.933390e-04 3.885074e-04 3.830623e-04 3.775382e-04 3.697274e-04 3.639748e-04 3.535261e-04 3.479868e-04 3.348138e-04 3.298459e-04 3.140873e-04 3.099117e-04 2.919373e-04 2.886040e-04 2.689791e-04 2.663643e-04 2.457784e-04 2.436178e-04 2.227964e-04 2.207499e-04 2.003728e-04 1.981029e-04 1.787468e-04 1.759890e-04 1.580980e-04 1.547061e-04 1.385873e-04 1.345465e-04 1.203805e-04 1.157931e-04 1.036513e-04 9.870629e-05 8.857035e-05 8.350689e-05 7.528715e-05 7.036067e-05 6.391352e-05 5.936835e-05 5.451206e-05 5.056153e-05 4.709000e-05 4.390359e-05 4.159782e-05 3.929378e-05 
3.367450e-05 3.229643e-05 3.176736e-05 3.148205e-05 3.153004e-05 3.227638e-05 3.266365e-05 3.432811e-05 3.484720e-05 3.726628e-05 3.774643e-05 4.071084e-05 4.102537e-05 4.428759e-05 4.436149e-05 4.764855e-05 4.746498e-05 5.049751e-05 5.010136e-05 5.261943e-05 5.211622e-05 5.391084e-05 5.346044e-05 5.440852e-05 5.421496e-05 5.431457e-05 5.461556e-05 5.401786e-05 5.507804e-05 5.411133e-05 5.622151e-05 5.540071e-05 5.887941e-05 5.889108e-05 6.407697e-05 6.572831e-05 7.294873e-05 7.707330e-05 8.657876e-05 9.390448e-05 1.057756e-04 1.167794e-04 1.308321e-04 1.456194e-04 1.613460e-04 1.795949e-04 1.961738e-04 2.171660e-04 2.335528e-04 2.562869e-04 2.713694e-04 2.947283e-04 3.075100e-04 3.304371e-04 3.402010e-04 3.618445e-04 3.682596e-04 3.880546e-04 3.912031e-04 4.088835e-04 4.092091e-04 4.247593e-04 4.229565e-04 4.365242e-04 4.333981e-04 4.451964e-04 4.415243e-04 4.517455e-04 4.481666e-04 4.569257e-04 4.538736e-04 4.611881e-04 4.588668e-04 4.646718e-04 4.630658e-04 4.672528e-04 4.661551e-04 4.686214e-04 4.676657e-04 4.683625e-04 4.670522e-04 4.660222e-04 4.637619e-04 4.611615e-04 4.572965e-04 4.534000e-04 4.472722e-04 4.424550e-04 4.334780e-04 4.281799e-04 4.159270e-04 4.105962e-04 3.948873e-04 3.899134e-04 3.708738e-04 3.665197e-04 3.445914e-04 3.409411e-04 3.168329e-04 3.137754e-04 2.883654e-04 2.856265e-04 2.598445e-04 2.570633e-04 2.317849e-04 2.286104e-04 2.045832e-04 2.007602e-04 1.785670e-04 1.739864e-04 1.540373e-04 1.487438e-04 1.312855e-04 1.254508e-04 1.105846e-04 1.044641e-04 9.216709e-05 8.605356e-05 7.620201e-05 7.038735e-05 6.278104e-05 5.752864e-05 5.191497e-05 4.744278e-05 4.353869e-05 4.001052e-05 3.752082e-05 3.504314e-05 
4.388046e-05 4.177848e-05 4.068432e-05 3.987668e-05 3.945282e-05 3.988085e-05 3.987633e-05 4.141549e-05 4.160485e-05 4.406819e-05 4.425954e-05 4.740322e-05 4.744861e-05 5.098128e-05 5.078821e-05 5.438657e-05 5.392887e-05 5.726076e-05 5.658583e-05 5.934143e-05 5.857109e-05 6.050042e-05 5.982382e-05 6.077757e-05 6.043734e-05 6.040707e-05 6.068310e-05 5.983696e-05 6.103469e-05 5.974456e-05 6.219262e-05 6.104657e-05 6.510138e-05 6.489041e-05 7.093428e-05 7.259850e-05 8.101037e-05 8.553279e-05 9.661568e-05 1.048676e-04 1.187375e-04 1.313037e-04 1.477719e-04 1.648041e-04 1.833005e-04 2.044491e-04 2.240314e-04 2.484832e-04 2.679442e-04 2.945595e-04 3.126149e-04 3.401268e-04 3.556335e-04 3.828530e-04 3.950027e-04 4.209806e-04 4.294200e-04 4.535318e-04 4.583868e-04 4.803330e-04 4.821372e-04 5.018745e-04 5.014298e-04 5.190615e-04 5.172657e-04 5.329255e-04 5.306082e-04 5.443656e-04 5.421615e-04 5.539693e-04 5.522499e-04 5.619413e-04 5.608039e-04 5.681349e-04 5.674354e-04 5.721555e-04 5.715615e-04 5.734928e-04 5.725370e-04 5.716431e-04 5.697669e-04 5.661992e-04 5.627868e-04 5.569016e-04 5.513139e-04 5.436548e-04 5.352728e-04 5.265206e-04 5.148063e-04 5.057021e-04 4.902805e-04 4.815328e-04 4.622835e-04 4.544727e-04 4.316046e-04 4.250984e-04 3.991703e-04 3.940658e-04 3.659335e-04 3.620449e-04 3.327419e-04 3.296497e-04 3.002410e-04 2.973975e-04 2.688506e-04 2.657130e-04 2.388149e-04 2.349640e-04 2.102902e-04 2.055008e-04 1.834226e-04 1.776785e-04 1.583887e-04 1.518512e-04 1.353959e-04 1.283493e-04 1.146576e-04 1.074504e-04 9.636152e-05 8.935582e-05 8.064419e-05 7.417737e-05 6.757545e-05 6.193527e-05 5.715276e-05 5.256295e-05 4.930180e-05 4.591544e-05 
3.644425e-05 3.429866e-05 3.333338e-05 3.263148e-05 3.238993e-05 3.305564e-05 3.324101e-05 3.513517e-05 3.548874e-05 3.841052e-05 3.871908e-05 4.240878e-05 4.251500e-05 4.666099e-05 4.647587e-05 5.072865e-05 5.024340e-05 5.423900e-05 5.353253e-05 5.692591e-05 5.616392e-05 5.867048e-05 5.809357e-05 5.953498e-05 5.943704e-05 5.978673e-05 6.049008e-05 5.991447e-05 6.175207e-05 6.064442e-05 6.395848e-05 6.295988e-05 6.811636e-05 6.811130e-05 7.551321e-05 7.757901e-05 8.764816e-05 9.293871e-05 1.060390e-04 1.156019e-04 1.319050e-04 1.464647e-04 1.657967e-04 1.855668e-04 2.073007e-04 2.318910e-04 2.549431e-04 2.833991e-04 3.063512e-04 3.373187e-04 3.586410e-04 3.906080e-04 4.089230e-04 4.404692e-04 4.547860e-04 4.847800e-04 4.946427e-04 5.223460e-04 5.278656e-04 5.529373e-04 5.547122e-04 5.771303e-04 5.760847e-04 5.960207e-04 5.932061e-04 6.108878e-04 6.072927e-04 6.228904e-04 6.192951e-04 6.328526e-04 6.297506e-04 6.411717e-04 6.387570e-04 6.478418e-04 6.460423e-04 6.525550e-04 6.510811e-04 6.548270e-04 6.532125e-04 6.541054e-04 6.517330e-04 6.498451e-04 6.459682e-04 6.415574e-04 6.353356e-04 6.288475e-04 6.194109e-04 6.114531e-04 5.980041e-04 5.892899e-04 5.712362e-04 5.625022e-04 5.395987e-04 5.315003e-04 5.039572e-04 4.969570e-04 4.654648e-04 4.597371e-04 4.253861e-04 4.207754e-04 3.848877e-04 3.809531e-04 3.448866e-04 3.410313e-04 3.060149e-04 3.016562e-04 2.686908e-04 2.634095e-04 2.332333e-04 2.268539e-04 1.999518e-04 1.925444e-04 1.691755e-04 1.610018e-04 1.412317e-04 1.326677e-04 1.164008e-04 1.078635e-04 9.487687e-05 8.676841e-05 7.674713e-05 6.941895e-05 6.199152e-05 5.572561e-05 5.049479e-05 4.549684e-05 4.206385e-05 3.846349e-05 
4.693147e-05 4.379776e-05 4.201352e-05 4.058143e-05 3.964394e-05 3.983922e-05 3.943853e-05 4.110860e-05 4.096484e-05 4.388136e-05 4.375419e-05 4.761670e-05 4.731987e-05 5.176416e-05 5.118385e-05 5.579871e-05 5.491234e-05 5.926779e-05 5.815799e-05 6.184559e-05 6.070304e-05 6.338569e-05 6.249628e-05 6.396175e-05 6.367791e-05 6.388977e-05 6.459404e-05 6.373570e-05 6.581133e-05 6.432188e-05 6.814655e-05 6.674587e-05 7.271291e-05 7.240410e-05 8.095173e-05 8.297453e-05 9.458141e-05 1.002868e-04 1.153925e-04 1.260301e-04 1.448749e-04 1.613312e-04 1.837621e-04 2.063290e-04 2.316591e-04 2.599189e-04 2.869161e-04 3.197914e-04 3.468247e-04 3.827804e-04 4.080902e-04 4.454230e-04 4.674378e-04 5.045675e-04 5.221802e-04 5.578684e-04 5.706028e-04 6.040556e-04 6.120906e-04 6.429413e-04 6.470014e-04 6.752000e-04 6.763508e-04 7.020043e-04 7.014082e-04 7.246192e-04 7.233088e-04 7.440503e-04 7.427629e-04 7.608180e-04 7.599200e-04 7.748967e-04 7.743963e-04 7.858074e-04 7.854272e-04 7.928087e-04 7.920752e-04 7.951079e-04 7.934246e-04 7.920335e-04 7.887243e-04 7.831417e-04 7.774738e-04 7.682589e-04 7.594633e-04 7.474719e-04 7.347794e-04 7.210831e-04 7.037925e-04 6.895577e-04 6.671510e-04 6.534966e-04 6.257921e-04 6.136471e-04 5.809429e-04 5.709166e-04 5.340491e-04 5.263286e-04 4.865923e-04 4.809048e-04 4.398479e-04 4.355270e-04 3.947018e-04 3.908625e-04 3.516198e-04 3.473896e-04 3.107678e-04 3.054886e-04 2.721939e-04 2.655326e-04 2.359763e-04 2.279311e-04 2.022845e-04 1.931178e-04 1.713633e-04 1.615042e-04 1.434776e-04 1.334280e-04 1.188561e-04 1.091173e-04 9.765290e-05 8.867596e-05 7.993098e-05 7.208826e-05 6.566065e-05 5.923251e-05 5.472564e-05 4.989773e-05 
3.573534e-05 3.252397e-05 3.088341e-05 2.952777e-05 2.876455e-05 2.917057e-05 2.892482e-05 3.092734e-05 3.088416e-05 3.424583e-05 3.414315e-05 3.855349e-05 3.819687e-05 4.327620e-05 4.255940e-05 4.787266e-05 4.679969e-05 5.188423e-05 5.058582e-05 5.499458e-05 5.373030e-05 5.708687e-05 5.622570e-05 5.828409e-05 5.826244e-05 5.896319e-05 6.023053e-05 5.974865e-05 6.272247e-05 6.150871e-05 6.656487e-05 6.538239e-05 7.289264e-05 7.283795e-05 8.323228e-05 8.570571e-05 9.949973e-05 1.060779e-04 1.237993e-04 1.359870e-04 1.579818e-04 1.768847e-04 2.030622e-04 2.290858e-04 2.587187e-04 2.914099e-04 3.230975e-04 3.611966e-04 3.930298e-04 4.347150e-04 4.646003e-04 5.078417e-04 5.338858e-04 5.768000e-04 5.976456e-04 6.387605e-04 6.537894e-04 6.921691e-04 7.015359e-04 7.367632e-04 7.412700e-04 7.733207e-04 7.741812e-04 8.032414e-04 8.018002e-04 8.280797e-04 8.255511e-04 8.491340e-04 8.464143e-04 8.671796e-04 8.647642e-04 8.823899e-04 8.803928e-04 8.944331e-04 8.926690e-04 9.026703e-04 9.007413e-04 9.063586e-04 9.037020e-04 9.047912e-04 9.006854e-04 8.973643e-04 8.909205e-04 8.836009e-04 8.737784e-04 8.631663e-04 8.488390e-04 8.358959e-04 8.159848e-04 8.018465e-04 7.755180e-04 7.613750e-04 7.282786e-04 7.152218e-04 6.756911e-04 6.645311e-04 6.196461e-04 6.107350e-04 5.621853e-04 5.553135e-04 5.051004e-04 4.995504e-04 4.496501e-04 4.444216e-04 3.965298e-04 3.906500e-04 3.460617e-04 3.388494e-04 2.984510e-04 2.896415e-04 2.539619e-04 2.436855e-04 2.129550e-04 2.016242e-04 1.758252e-04 1.639977e-04 1.429080e-04 1.311721e-04 1.144113e-04 1.033082e-04 9.038948e-05 8.037203e-05 7.075419e-05 6.217008e-05 5.530189e-05 4.839337e-05 4.374472e-05 3.865626e-05 
4.599014e-05 4.146273e-05 3.866216e-05 3.632122e-05 3.456506e-05 3.431488e-05 3.322823e-05 3.488578e-05 3.412613e-05 3.742088e-05 3.668835e-05 4.126135e-05 4.031905e-05 4.572699e-05 4.443029e-05 5.016129e-05 4.849103e-05 5.399811e-05 5.208855e-05 5.684244e-05 5.499144e-05 5.854826e-05 5.719789e-05 5.927049e-05 5.895355e-05 5.947405e-05 6.073709e-05 5.990426e-05 6.323650e-05 6.155327e-05 6.736191e-05 6.567433e-05 7.433200e-05 7.386492e-05 8.580798e-05 8.815567e-05 1.039523e-04 1.109535e-04 1.312418e-04 1.446947e-04 1.699504e-04 1.912125e-04 2.214205e-04 2.510289e-04 2.854166e-04 3.228899e-04 3.598691e-04 4.037756e-04 4.411447e-04 4.894095e-04 5.247528e-04 5.750894e-04 6.062447e-04 6.565705e-04 6.820268e-04 7.307552e-04 7.498797e-04 7.960343e-04 8.090905e-04 8.522489e-04 8.602230e-04 9.003385e-04 9.046396e-04 9.418099e-04 9.439224e-04 9.781667e-04 9.793361e-04 1.010432e-03 1.011449e-03 1.038868e-03 1.039996e-03 1.062948e-03 1.063987e-03 1.081576e-03 1.082013e-03 1.093424e-03 1.092589e-03 1.097273e-03 1.094431e-03 1.092248e-03 1.086627e-03 1.077926e-03 1.068712e-03 1.054355e-03 1.040678e-03 1.021997e-03 1.002944e-03 9.816135e-04 9.562849e-04 9.341250e-04 9.017881e-04 8.805498e-04 8.408935e-04 8.220552e-04 7.754766e-04 7.600525e-04 7.078055e-04 6.961635e-04 6.402353e-04 6.319868e-04 5.747272e-04 5.688016e-04 5.124812e-04 5.074243e-04 4.539058e-04 4.482980e-04 3.989034e-04 3.917154e-04 3.472555e-04 3.380158e-04 2.988929e-04 2.876605e-04 2.539717e-04 2.411902e-04 2.128003e-04 1.991243e-04 1.757187e-04 1.618666e-04 1.429987e-04 1.296523e-04 1.147939e-04 1.025392e-04 9.112959e-05 8.042936e-05 7.191471e-05 6.310135e-05 5.695927e-05 5.024098e-05 
3.037969e-05 2.573125e-05 2.308299e-05 2.076619e-05 1.915316e-05 1.905014e-05 1.804448e-05 1.996372e-05 1.918625e-05 2.285653e-05 2.198394e-05 2.704607e-05 2.583196e-05 3.183542e-05 3.014421e-05 3.655761e-05 3.440531e-05 4.064871e-05 3.823851e-05 4.374041e-05 4.147613e-05 4.574965e-05 4.420943e-05 4.693314e-05 4.679473e-05 4.788051e-05 4.980994e-05 4.944905e-05 5.399271e-05 5.269077e-05 6.023199e-05 5.885744e-05 6.968560e-05 6.953823e-05 8.401256e-05 8.686049e-05 1.055563e-04 1.135341e-04 1.372155e-04 1.524995e-04 1.818403e-04 2.061416e-04 2.412849e-04 2.753460e-04 3.155244e-04 3.588418e-04 4.022662e-04 4.531615e-04 4.972514e-04 5.532511e-04 5.951223e-04 6.534914e-04 6.905291e-04 7.487805e-04 7.791244e-04 8.353705e-04 8.581925e-04 9.112812e-04 9.268087e-04 9.762571e-04 9.855729e-04 1.031363e-03 1.036058e-03 1.078375e-03 1.080147e-03 1.119125e-03 1.119421e-03 1.154952e-03 1.154722e-03 1.186366e-03 1.185987e-03 1.213012e-03 1.212385e-03 1.233923e-03 1.232648e-03 1.247889e-03 1.245429e-03 1.253793e-03 1.249516e-03 1.250770e-03 1.243902e-03 1.238231e-03 1.227775e-03 1.215816e-03 1.200527e-03 1.183375e-03 1.161816e-03 1.140966e-03 1.111670e-03 1.088905e-03 1.050662e-03 1.027880e-03 9.801420e-04 9.591499e-04 9.024189e-04 8.846455e-04 8.206291e-04 8.067871e-04 7.381560e-04 7.279836e-04 6.578139e-04 6.501162e-04 5.812912e-04 5.743491e-04 5.091683e-04 5.013325e-04 4.413996e-04 4.315718e-04 3.778754e-04 3.656923e-04 3.187445e-04 3.044814e-04 2.644244e-04 2.487575e-04 2.154259e-04 1.991912e-04 1.721597e-04 1.561799e-04 1.348233e-04 1.198102e-04 1.033823e-04 8.989669e-05 7.761081e-05 6.605760e-05 5.715135e-05 4.779273e-05 4.156756e-05 3.454398e-05 
3.974210e-05 3.337677e-05 2.911375e-05 2.550043e-05 2.250258e-05 2.151353e-05 1.933298e-05 2.075130e-05 1.896980e-05 2.248395e-05 2.072251e-05 2.591598e-05 2.386284e-05 3.020815e-05 2.766491e-05 3.453397e-05 3.147401e-05 3.817637e-05 3.480090e-05 4.065499e-05 3.742380e-05 4.185400e-05 3.946445e-05 4.210266e-05 4.139899e-05 4.216266e-05 4.398385e-05 4.311439e-05 4.813044e-05 4.620767e-05 5.483306e-05 5.281220e-05 6.528104e-05 6.458426e-05 8.118563e-05 8.379405e-05 1.051201e-04 1.135113e-04 1.404835e-04 1.572695e-04 1.908051e-04 2.181015e-04 2.585332e-04 2.973086e-04 3.438666e-04 3.935862e-04 4.442391e-04 5.029652e-04 5.547108e-04 6.195945e-04 6.690761e-04 7.370214e-04 7.812362e-04 8.495029e-04 8.863811e-04 9.529681e-04 9.816811e-04 1.045433e-03 1.066385e-03 1.126856e-03 1.141407e-03 1.198572e-03 1.208593e-03 1.262517e-03 1.269892e-03 1.320426e-03 1.326613e-03 1.373178e-03 1.378921e-03 1.420446e-03 1.425717e-03 1.460746e-03 1.464920e-03 1.491876e-03 1.494035e-03 1.511544e-03 1.510740e-03 1.517897e-03 1.513262e-03 1.509813e-03 1.500539e-03 1.486987e-03 1.472248e-03 1.449900e-03 1.428794e-03 1.399708e-03 1.371217e-03 1.338001e-03 1.301003e-03 1.266490e-03 1.219911e-03 1.186822e-03 1.130061e-03 1.100736e-03 1.034260e-03 1.010413e-03 9.361243e-04 9.185077e-04 8.395417e-04 8.276362e-04 7.476442e-04 7.396927e-04 6.620222e-04 6.555651e-04 5.827397e-04 5.754183e-04 5.090297e-04 4.992364e-04 4.401144e-04 4.272310e-04 3.756808e-04 3.599417e-04 3.159138e-04 2.980930e-04 2.612671e-04 2.423710e-04 2.122027e-04 1.932521e-04 1.690297e-04 1.509332e-04 1.318555e-04 1.153498e-04 1.006044e-04 8.623686e-05 7.506031e-05 6.319723e-05 5.490471e-05 4.575318e-05 