# vtk DataFile Version 2.0
Comment goes here
ASCII

DATASET STRUCTURED_POINTS
FIELD FieldData 1
TIME 1 1 double
0.00500000
DIMENSIONS    128   128   1

ORIGIN    0.000   0.000   0.000
SPACING   0.039062 0.039062   1.000

POINT_DATA   16384
SCALARS P double
LOOKUP_TABLE default

-3.140342e+01 -1.726671e+01 -3.171022e+01 -1.601385e+01 -3.205374e+01 -1.484894e+01 -3.243678e+01 -1.378641e+01 -3.286093e+01 -1.283940e+01 -3.332634e+01 -1.201956e+01 -3.383148e+01 -1.133673e+01 -3.437282e+01 -1.079859e+01 -3.494463e+01 -1.041034e+01 -3.553862e+01 -1.017429e+01 -3.614384e+01 -1.008958e+01 -3.674647e+01 -1.015187e+01 -3.732986e+01 -1.035325e+01 -3.787473e+01 -1.068224e+01 -3.835960e+01 -1.112404e+01 -3.876147e+01 -1.166109e+01 -3.905680e+01 -1.227376e+01 -3.922270e+01 -1.294142e+01 -3.923835e+01 -1.364362e+01 -3.908653e+01 -1.436134e+01 -3.875507e+01 -1.507829e+01 -3.823820e+01 -1.578204e+01 -3.753757e+01 -1.646482e+01 -3.666285e+01 -1.712407e+01 -3.563180e+01 -1.776248e+01 -3.446984e+01 -1.838756e+01 -3.320901e+01 -1.901081e+01 -3.188644e+01 -1.964650e+01 -3.054244e+01 -2.031010e+01 -2.921837e+01 -2.101670e+01 -2.795433e+01 -2.177932e+01 -2.678707e+01 -2.260743e+01 -2.574806e+01 -2.350579e+01 -2.486200e+01 -2.447364e+01 -2.414590e+01 -2.550442e+01 -2.360866e+01 -2.658589e+01 -2.325120e+01 -2.770073e+01 -2.306716e+01 -2.882749e+01 -2.304392e+01 -2.994178e+01 -2.316394e+01 -3.101755e+01 -2.340625e+01 -3.202848e+01 -2.374791e+01 -3.294919e+01 -2.416545e+01 -3.375636e+01 -2.463602e+01 -3.442953e+01 -2.513846e+01 -3.495180e+01 -2.565397e+01 -3.531021e+01 -2.616662e+01 -3.549586e+01 -2.666355e+01 -3.550397e+01 -2.713506e+01 -3.533362e+01 -2.757443e+01 -3.498757e+01 -2.797770e+01 -3.447179e+01 -2.834334e+01 -3.379516e+01 -2.867189e+01 -3.296898e+01 -2.896565e+01 -3.200658e+01 -2.922826e+01 -3.092294e+01 -2.946442e+01 -2.973433e+01 -2.967964e+01 -2.845793e+01 -2.987995e+01 -2.711162e+01 -3.007173e+01 -2.571366e+01 -3.026154e+01 -2.428250e+01 -3.045592e+01 -2.283662e+01 -3.066132e+01 -2.139432e+01 -3.088393e+01 -1.997361e+01 -3.112953e+01 -1.859207e+01 
-2.038344e+01 -4.370092e+00 -1.976681e+01 -2.151405e+00 -1.909807e+01 6.224142e-02 -1.838257e+01 2.253366e+00 -1.762540e+01 4.404656e+00 -1.683141e+01 6.499018e+00 -1.600512e+01 8.519666e+00 -1.515068e+01 1.045025e+01 -1.427178e+01 1.227506e+01 -1.337156e+01 1.397920e+01 -1.245256e+01 1.554890e+01 -1.151657e+01 1.697173e+01 -1.056472e+01 1.823686e+01 -9.597426e+00 1.933523e+01 -8.614655e+00 2.025965e+01 -7.616158e+00 2.100477e+01 -6.601925e+00 2.156694e+01 -5.572745e+00 2.194393e+01 -4.530858e+00 2.213453e+01 -3.480650e+00 2.213812e+01 -2.429297e+00 2.195423e+01 -1.387295e+00 2.158221e+01 -3.687680e-01 2.102093e+01 6.085054e-01 2.026881e+01 1.523398e+00 1.932398e+01 2.352087e+00 1.818467e+01 3.069037e+00 1.684989e+01 3.648258e+00 1.532019e+01 4.064755e+00 1.359854e+01 4.296054e+00 1.169123e+01 4.323691e+00 9.608640e+00 4.134522e+00 7.365864e+00 3.721758e+00 4.983012e+00 3.085607e+00 2.485215e+00 2.233491e+00 -9.771665e-02 1.179803e+00 -2.731985e+00 -5.475695e-02 -5.380770e+00 -1.444208e+00 -8.005411e+00 -2.958572e+00 -1.056670e+01 -4.565307e+00 -1.302618e+01 -6.230782e+00 -1.534740e+01 -7.921673e+00 -1.749701e+01 -9.606204e+00 -1.944557e+01 -1.125516e+01 -2.116825e+01 -1.284267e+01 -2.264518e+01 -1.434666e+01 -2.386161e+01 -1.574911e+01 -2.480783e+01 -1.703608e+01 -2.547896e+01 -1.819748e+01 -2.587456e+01 -1.922679e+01 -2.599819e+01 -2.012062e+01 -2.585688e+01 -2.087824e+01 -2.546065e+01 -2.150113e+01 -2.482193e+01 -2.199248e+01 -2.395514e+01 -2.235680e+01 -2.287618e+01 -2.259958e+01 -2.160209e+01 -2.272690e+01 -2.015066e+01 -2.274528e+01 -1.854017e+01 -2.266143e+01 -1.678918e+01 -2.248210e+01 -1.491632e+01 -2.221403e+01 -1.294020e+01 -2.186380e+01 -1.087929e+01 -2.143784e+01 -8.751904e+00 -2.094238e+01 -6.576188e+00 
-3.138707e+01 -1.723056e+01 -3.169196e+01 -1.596997e+01 -3.203408e+01 -1.479785e+01 -3.241631e+01 -1.372872e+01 -3.284037e+01 -1.277588e+01 -3.330654e+01 -1.195112e+01 -3.381342e+01 -1.126442e+01 -3.435763e+01 -1.072368e+01 -3.493354e+01 -1.033425e+01 -3.553301e+01 -1.009862e+01 -3.614513e+01 -1.001606e+01 -3.675607e+01 -1.008231e+01 -3.734909e+01 -1.028943e+01 -3.790471e+01 -1.062583e+01 -3.840110e+01 -1.107645e+01 -3.881479e+01 -1.162334e+01 -3.912160e+01 -1.224638e+01 -3.929797e+01 -1.292434e+01 -3.932230e+01 -1.363611e+01 -3.917663e+01 -1.436204e+01 -3.884812e+01 -1.508528e+01 -3.833049e+01 -1.579295e+01 -3.762506e+01 -1.647703e+01 -3.674146e+01 -1.713495e+01 -3.569770e+01 -1.776957e+01 -3.451969e+01 -1.838886e+01 -3.324024e+01 -1.900493e+01 -3.189744e+01 -1.963280e+01 -3.053270e+01 -2.028879e+01 -2.918850e+01 -2.098882e+01 -2.790604e+01 -2.174664e+01 -2.672300e+01 -2.257233e+01 -2.567159e+01 -2.347104e+01 -2.477700e+01 -2.444216e+01 -2.405645e+01 -2.547905e+01 -2.351874e+01 -2.656918e+01 -2.316447e+01 -2.769476e+01 -2.298675e+01 -2.883373e+01 -2.297229e+01 -2.996104e+01 -2.310281e+01 -3.104998e+01 -2.335659e+01 -3.207361e+01 -2.371001e+01 -3.300601e+01 -2.413896e+01 -3.382339e+01 -2.462013e+01 -3.450502e+01 -2.513197e+01 -3.503379e+01 -2.565546e+01 -3.539664e+01 -2.617453e+01 -3.558470e+01 -2.667632e+01 -3.559325e+01 -2.715120e+01 -3.542154e+01 -2.759255e+01 -3.507249e+01 -2.799658e+01 -3.455229e+01 -2.836194e+01 -3.387001e+01 -2.868936e+01 -3.303716e+01 -2.898130e+01 -3.206727e+01 -2.924155e+01 -3.097551e+01 -2.947497e+01 -2.977830e+01 -2.968717e+01 -2.849298e+01 -2.988430e+01 -2.713754e+01 -3.007281e+01 -2.573035e+01 -3.025934e+01 -2.428996e+01 -3.045051e+01 -2.283493e+01 -3.065283e+01 -2.138363e+01 -3.087253e+01 -1.995413e+01 -3.111549e+01 -1.856408e+01 
-2.044132e+01 -4.382886e+00 -1.981911e+01 -2.146562e+00 -1.914502e+01 8.457358e-02 -1.842440e+01 2.293021e+00 -1.766239e+01 4.461419e+00 -1.686387e+01 6.572587e+00 -1.603341e+01 8.609601e+00 -1.517525e+01 1.055593e+01 -1.429318e+01 1.239564e+01 -1.339043e+01 1.411358e+01 -1.246958e+01 1.569572e+01 -1.153249e+01 1.712939e+01 -1.058019e+01 1.840356e+01 -9.612960e+00 1.950910e+01 -8.630466e+00 2.043881e+01 -7.632029e+00 2.118752e+01 -6.617081e+00 2.175185e+01 -5.585752e+00 2.212994e+01 -4.539590e+00 2.232103e+01 -3.482318e+00 2.232496e+01 -2.420583e+00 2.214164e+01 -1.364556e+00 2.177064e+01 -3.283245e-01 2.121090e+01 6.700365e-01 2.046064e+01 1.608751e+00 1.951758e+01 2.463012e+00 1.837934e+01 3.206022e+00 1.704410e+01 3.810335e+00 1.551153e+01 4.249416e+00 1.378371e+01 4.499293e+00 1.186613e+01 4.540177e+00 9.768553e+00 4.357891e+00 7.505751e+00 3.944989e+00 5.097828e+00 3.301470e+00 2.570266e+00 2.434996e+00 -4.643811e-02 1.360629e+00 -2.717514e+00 1.000947e-01 -5.404959e+00 -1.319336e+00 -8.068814e+00 -2.866245e+00 -1.066855e+01 -4.506620e+00 -1.316450e+01 -6.205428e+00 -1.551910e+01 -7.928105e+00 -1.769813e+01 -9.641854e+00 -1.967154e+01 -1.131670e+01 -2.141409e+01 -1.292628e+01 -2.290578e+01 -1.444829e+01 -2.413192e+01 -1.586470e+01 -2.508303e+01 -1.716175e+01 -2.575461e+01 -1.832968e+01 -2.614666e+01 -1.936238e+01 -2.626324e+01 -2.025694e+01 -2.611194e+01 -2.101310e+01 -2.570326e+01 -2.163279e+01 -2.505014e+01 -2.211963e+01 -2.416744e+01 -2.247850e+01 -2.307147e+01 -2.271517e+01 -2.177958e+01 -2.283600e+01 -2.030987e+01 -2.284768e+01 -1.868085e+01 -2.275706e+01 -1.691123e+01 -2.257103e+01 -1.501978e+01 -2.229637e+01 -1.302518e+01 -2.193972e+01 -1.094595e+01 -2.150753e+01 -8.800440e+00 -2.100606e+01 -6.606770e+00 
-3.133759e+01 -1.712168e+01 -3.163668e+01 -1.583780e+01 -3.197447e+01 -1.464393e+01 -3.235418e+01 -1.355492e+01 -3.277785e+01 -1.258443e+01 -3.324616e+01 -1.174471e+01 -3.375812e+01 -1.104626e+01 -3.431078e+01 -1.049750e+01 -3.489893e+01 -1.010437e+01 -3.551476e+01 -9.869878e+00 -3.614756e+01 -9.793707e+00 -3.678354e+01 -9.871843e+00 -3.740569e+01 -1.009633e+01 -3.799390e+01 -1.045520e+01 -3.852533e+01 -1.093267e+01 -3.897505e+01 -1.150960e+01 -3.931705e+01 -1.216434e+01 -3.952557e+01 -1.287383e+01 -3.957670e+01 -1.361495e+01 -3.945016e+01 -1.436609e+01 -3.913102e+01 -1.510862e+01 -3.861139e+01 -1.582830e+01 -3.789162e+01 -1.651634e+01 -3.698118e+01 -1.717004e+01 -3.589875e+01 -1.779289e+01 -3.467183e+01 -1.839416e+01 -3.333555e+01 -1.898791e+01 -3.193098e+01 -1.959149e+01 -3.050288e+01 -2.022383e+01 -2.909721e+01 -2.090339e+01 -2.775851e+01 -2.164624e+01 -2.652738e+01 -2.246428e+01 -2.543831e+01 -2.336387e+01 -2.451795e+01 -2.434488e+01 -2.378411e+01 -2.540040e+01 -2.324533e+01 -2.651699e+01 -2.290117e+01 -2.767536e+01 -2.274307e+01 -2.885163e+01 -2.275568e+01 -3.001869e+01 -2.291845e+01 -3.114778e+01 -2.320736e+01 -3.221004e+01 -2.359664e+01 -3.317791e+01 -2.406035e+01 -3.402628e+01 -2.457366e+01 -3.473347e+01 -2.511394e+01 -3.528180e+01 -2.566146e+01 -3.565797e+01 -2.619982e+01 -3.585315e+01 -2.671613e+01 -3.586290e+01 -2.720096e+01 -3.568693e+01 -2.764811e+01 -3.532869e+01 -2.805426e+01 -3.479499e+01 -2.841861e+01 -3.409555e+01 -2.874246e+01 -3.324251e+01 -2.902878e+01 -3.224999e+01 -2.928184e+01 -3.113370e+01 -2.950691e+01 -2.991055e+01 -2.970996e+01 -2.859832e+01 -2.989744e+01 -2.721538e+01 -3.007607e+01 -2.578042e+01 -3.025270e+01 -2.431227e+01 -3.043416e+01 -2.282971e+01 -3.062714e+01 -2.135134e+01 -3.083808e+01 -1.989540e+01 -3.107304e+01 -1.847976e+01 
-2.055686e+01 -4.408326e+00 -1.992350e+01 -2.136731e+00 -1.923869e+01 1.293989e-01 -1.850782e+01 2.372540e+00 -1.773607e+01 4.575244e+00 -1.692841e+01 6.720155e+00 -1.608954e+01 8.790082e+00 -1.522386e+01 1.076813e+01 -1.433535e+01 1.263788e+01 -1.342746e+01 1.438369e+01 -1.250293e+01 1.599094e+01 -1.156367e+01 1.744647e+01 -1.061064e+01 1.873884e+01 -9.643833e+00 1.985868e+01 -8.662325e+00 2.079884e+01 -7.664572e+00 2.155443e+01 -6.648851e+00 2.212267e+01 -5.613924e+00 2.250251e+01 -4.559870e+00 2.269416e+01 -3.489009e+00 2.269839e+01 -2.406834e+00 2.251595e+01 -1.322798e+00 2.214695e+01 -2.508627e-01 2.159045e+01 7.903207e-01 2.084433e+01 1.777660e+00 1.990546e+01 2.684329e+00 1.877013e+01 3.480919e+00 1.743488e+01 4.136958e+00 1.589749e+01 4.622705e+00 1.415813e+01 4.911067e+00 1.222060e+01 4.979487e+00 1.009340e+01 4.811621e+00 7.790546e+00 4.398663e+00 5.332134e+00 3.740169e+00 2.744359e+00 2.844313e+00 5.913939e-02 1.727563e+00 -2.686732e+00 4.137929e-01 -5.452792e+00 -1.067033e+00 -8.196388e+00 -2.680506e+00 -1.087427e+01 -4.389560e+00 -1.344422e+01 -6.156274e+00 -1.586646e+01 -7.943539e+00 -1.810498e+01 -9.716484e+00 -2.012845e+01 -1.144361e+01 -2.191089e+01 -1.309756e+01 -2.343204e+01 -1.465560e+01 -2.467735e+01 -1.609975e+01 -2.563788e+01 -1.741664e+01 -2.630988e+01 -1.859721e+01 -2.669432e+01 -1.963624e+01 -2.679631e+01 -2.053177e+01 -2.662449e+01 -2.128454e+01 -2.619043e+01 -2.189743e+01 -2.550807e+01 -2.237489e+01 -2.459316e+01 -2.272253e+01 -2.346281e+01 -2.294675e+01 -2.213506e+01 -2.305439e+01 -2.062857e+01 -2.305252e+01 -1.896229e+01 -2.294829e+01 -1.715529e+01 -2.274877e+01 -1.522658e+01 -2.246088e+01 -1.319498e+01 -2.209136e+01 -1.107911e+01 -2.164671e+01 -8.897339e+00 -2.113320e+01 -6.667774e+00 
-3.125379e+01 -1.693882e+01 -3.154290e+01 -1.561583e+01 -3.187314e+01 -1.438535e+01 -3.224825e+01 -1.326276e+01 -3.267085e+01 -1.226236e+01 -3.314227e+01 -1.139715e+01 -3.366223e+01 -1.067849e+01 -3.422853e+01 -1.011577e+01 -3.483669e+01 -9.715894e+00 -3.547954e+01 -9.482830e+00 -3.614681e+01 -9.417045e+00 -3.682482e+01 -9.515018e+00 -3.749620e+01 -9.768841e+00 -3.813988e+01 -1.016601e+01 -3.873133e+01 -1.068950e+01 -3.924316e+01 -1.131823e+01 -3.964619e+01 -1.202785e+01 -3.991089e+01 -1.279211e+01 -4.000926e+01 -1.358436e+01 -3.991690e+01 -1.437947e+01 -3.961519e+01 -1.515566e+01 -3.909330e+01 -1.589625e+01 -3.834984e+01 -1.659099e+01 -3.739387e+01 -1.723697e+01 -3.624527e+01 -1.783873e+01 -3.493422e+01 -1.840785e+01 -3.349995e+01 -1.896177e+01 -3.198870e+01 -1.952202e+01 -3.045112e+01 -2.011208e+01 -2.893930e+01 -2.075496e+01 -2.750363e+01 -2.147081e+01 -2.618983e+01 -2.227477e+01 -2.503635e+01 -2.317529e+01 -2.407238e+01 -2.417306e+01 -2.331669e+01 -2.526067e+01 -2.277727e+01 -2.642298e+01 -2.245177e+01 -2.763807e+01 -2.232867e+01 -2.887876e+01 -2.238893e+01 -3.011434e+01 -2.260798e+01 -3.131246e+01 -2.295780e+01 -3.244094e+01 -2.340893e+01 -3.346937e+01 -2.393222e+01 -3.437045e+01 -2.450032e+01 -3.512088e+01 -2.508878e+01 -3.570208e+01 -2.567673e+01 -3.610039e+01 -2.624727e+01 -3.630714e+01 -2.678754e+01 -3.631841e+01 -2.728854e+01 -3.613470e+01 -2.774478e+01 -3.576046e+01 -2.815386e+01 -3.520357e+01 -2.851593e+01 -3.447484e+01 -2.883324e+01 -3.358748e+01 -2.910965e+01 -3.255662e+01 -2.935026e+01 -3.139890e+01 -2.956102e+01 -3.013204e+01 -2.974849e+01 -2.877455e+01 -2.991960e+01 -2.734542e+01 -3.008151e+01 -2.586387e+01 -3.024142e+01 -2.434919e+01 -3.040649e+01 -2.282052e+01 -3.058371e+01 -2.129680e+01 -3.077982e+01 -1.979661e+01 -3.100120e+01 -1.833808e+01 
-2.072964e+01 -4.446126e+00 -2.007953e+01 -2.121646e+00 -1.937862e+01 1.970081e-01 -1.863231e+01 2.492302e+00 -1.784585e+01 4.746677e+00 -1.702432e+01 6.942537e+00 -1.617263e+01 9.062294e+00 -1.529543e+01 1.108848e+01 -1.439704e+01 1.300397e+01 -1.348124e+01 1.479224e+01 -1.255109e+01 1.643780e+01 -1.160870e+01 1.792661e+01 -1.065498e+01 1.924654e+01 -9.689517e+00 2.038780e+01 -8.710580e+00 2.134324e+01 -7.715292e+00 2.210843e+01 -6.700116e+00 2.268151e+01 -5.661614e+00 2.306280e+01 -4.597462e+00 2.325407e+01 -3.507648e+00 2.325774e+01 -2.395700e+00 2.307596e+01 -1.269801e+00 2.270979e+01 -1.435919e-01 2.215859e+01 9.634611e-01 2.141974e+01 2.026247e+00 2.048878e+01 3.014773e+00 1.935991e+01 3.895489e+00 1.802696e+01 4.633099e+00 1.648467e+01 5.192726e+00 1.473011e+01 5.542255e+00 1.276429e+01 5.654671e+00 1.059352e+01 5.510137e+00 8.230637e+00 5.097652e+00 5.695613e+00 4.416070e+00 3.015762e+00 3.474413e+00 2.252653e-01 2.291430e+00 -2.635843e+00 8.944771e-01 -5.523165e+00 -6.821504e-01 -8.389745e+00 -2.399251e+00 -1.118802e+01 -4.214909e+00 -1.387172e+01 -6.086647e+00 -1.639762e+01 -7.973375e+00 -1.872696e+01 -9.837024e+00 -2.082648e+01 -1.164377e+01 -2.266910e+01 -1.336484e+01 -2.423423e+01 -1.497692e+01 -2.550768e+01 -1.646216e+01 -2.648137e+01 -1.780795e+01 -2.715284e+01 -1.900640e+01 -2.752456e+01 -2.005370e+01 -2.760331e+01 -2.094947e+01 -2.739940e+01 -2.169600e+01 -2.692604e+01 -2.229762e+01 -2.619869e+01 -2.276008e+01 -2.523447e+01 -2.309014e+01 -2.405169e+01 -2.329507e+01 -2.266945e+01 -2.338244e+01 -2.110722e+01 -2.335990e+01 -1.938463e+01 -2.323498e+01 -1.752126e+01 -2.301504e+01 -1.553644e+01 -2.270720e+01 -1.344925e+01 -2.231832e+01 -1.127839e+01 -2.185495e+01 -9.042237e+00 -2.132338e+01 -6.758874e+00 
-3.113367e+01 -1.667991e+01 -3.140819e+01 -1.530154e+01 -3.172716e+01 -1.401908e+01 -3.209502e+01 -1.284859e+01 -3.251521e+01 -1.180527e+01 -3.298998e+01 -1.090317e+01 -3.352012e+01 -1.015491e+01 -3.410452e+01 -9.571275e+00 -3.473984e+01 -9.160674e+00 -3.541994e+01 -8.928546e+00 -3.613536e+01 -8.876653e+00 -3.687275e+01 -9.002368e+00 -3.761444e+01 -9.298045e+00 -3.833814e+01 -9.750571e+00 -3.901703e+01 -1.034126e+01 -3.962025e+01 -1.104618e+01 -4.011394e+01 -1.183710e+01 -4.046297e+01 -1.268289e+01 -4.063313e+01 -1.355157e+01 -4.059373e+01 -1.441258e+01 -4.032042e+01 -1.523926e+01 -3.979780e+01 -1.601110e+01 -3.902165e+01 -1.671555e+01 -3.800032e+01 -1.734923e+01 -3.675533e+01 -1.791827e+01 -3.532085e+01 -1.843771e+01 -3.374223e+01 -1.893012e+01 -3.207349e+01 -1.942340e+01 -3.037418e+01 -1.994800e+01 -2.870566e+01 -2.053390e+01 -2.712717e+01 -2.120748e+01 -2.569214e+01 -2.198882e+01 -2.444496e+01 -2.288951e+01 -2.341855e+01 -2.391142e+01 -2.263301e+01 -2.504626e+01 -2.209529e+01 -2.627619e+01 -2.179999e+01 -2.757520e+01 -2.173094e+01 -2.891103e+01 -2.186343e+01 -3.024749e+01 -2.216680e+01 -3.154684e+01 -2.260702e+01 -3.277196e+01 -2.314913e+01 -3.388830e+01 -2.375936e+01 -3.486535e+01 -2.440673e+01 -3.567764e+01 -2.506424e+01 -3.630536e+01 -2.570952e+01 -3.673449e+01 -2.632511e+01 -3.695671e+01 -2.689834e+01 -3.696900e+01 -2.742099e+01 -3.677312e+01 -2.788875e+01 -3.637500e+01 -2.830059e+01 -3.578413e+01 -2.865813e+01 -3.501290e+01 -2.896504e+01 -3.407609e+01 -2.922649e+01 -3.299027e+01 -2.944869e+01 -3.177338e+01 -2.963858e+01 -3.044432e+01 -2.980354e+01 -2.902260e+01 -2.995116e+01 -2.752806e+01 -3.008914e+01 -2.598066e+01 -3.022519e+01 -2.440028e+01 -3.036687e+01 -2.280659e+01 -3.052159e+01 -2.121896e+01 -3.069650e+01 -1.965637e+01 -3.089839e+01 -1.813734e+01 
-2.095901e+01 -4.495882e+00 -2.028657e+01 -2.100958e+00 -1.956415e+01 2.877579e-01 -1.879716e+01 2.652770e+00 -1.799090e+01 4.976422e+00 -1.715059e+01 7.240832e+00 -1.628140e+01 9.427895e+00 -1.538837e+01 1.151938e+01 -1.447629e+01 1.349711e+01 -1.354951e+01 1.534337e+01 -1.261165e+01 1.704128e+01 -1.166520e+01 1.857548e+01 -1.071119e+01 1.993274e+01 -9.748856e+00 2.110254e+01 -8.775411e+00 2.207761e+01 -7.786190e+00 2.285416e+01 -6.775088e+00 2.343168e+01 -5.735445e+00 2.381249e+01 -4.661337e+00 2.400083e+01 -3.549172e+00 2.400165e+01 -2.399404e+00 2.381934e+01 -1.218118e+00 2.345653e+01 -1.825873e-02 2.291318e+01 1.179723e+00 2.218605e+01 2.347942e+00 2.126881e+01 3.451913e+00 2.015264e+01 4.452132e+00 1.882739e+01 5.306304e+00 1.728324e+01 5.972055e+00 1.551264e+01 6.409910e+00 1.351232e+01 6.586288e+00 1.128532e+01 6.476210e+00 8.842521e+00 6.065442e+00 6.203660e+00 5.351828e+00 3.397614e+00 4.345676e+00 4.618522e-01 3.069141e+00 -2.558863e+00 1.554732e+00 -5.614387e+00 -1.568863e-01 -8.651510e+00 -2.019528e+00 -1.161643e+01 -3.984268e+00 -1.445712e+01 -6.002118e+00 -1.712546e+01 -8.026384e+00 -1.957887e+01 -1.001456e+01 -2.178151e+01 -1.192971e+01 -2.370491e+01 -1.374122e+01 -2.532821e+01 -1.542517e+01 -2.663787e+01 -1.696413e+01 -2.762720e+01 -1.834672e+01 -2.829564e+01 -1.956683e+01 -2.864789e+01 -2.062281e+01 -2.869307e+01 -2.151653e+01 -2.844388e+01 -2.225249e+01 -2.791577e+01 -2.283707e+01 -2.712630e+01 -2.327783e+01 -2.609446e+01 -2.358300e+01 -2.484020e+01 -2.376107e+01 -2.338398e+01 -2.382057e+01 -2.174639e+01 -2.376982e+01 -1.994794e+01 -2.361686e+01 -1.800884e+01 -2.336939e+01 -1.594889e+01 -2.303477e+01 -1.378739e+01 -2.261996e+01 -1.154316e+01 -2.213158e+01 -9.234566e+00 -2.157593e+01 -6.879582e+00 
-3.097454e+01 -1.634216e+01 -3.122925e+01 -1.489159e+01 -3.153252e+01 -1.354104e+01 -3.188966e+01 -1.230747e+01 -3.230517e+01 -1.120716e+01 -3.278253e+01 -1.025553e+01 -3.332389e+01 -9.466867e+00 -3.392973e+01 -8.853873e+00 -3.459832e+01 -8.427085e+00 -3.532512e+01 -8.194114e+00 -3.610200e+01 -8.158726e+00 -3.691644e+01 -8.319834e+00 -3.775073e+01 -8.670498e+00 -3.858132e+01 -9.197115e+00 -3.937859e+01 -9.878985e+00 -4.010711e+01 -1.068847e+01 -4.072672e+01 -1.159193e+01 -4.119446e+01 -1.255142e+01 -4.146725e+01 -1.352725e+01 -4.150534e+01 -1.448102e+01 -4.127599e+01 -1.537887e+01 -4.075704e+01 -1.619460e+01 -3.993992e+01 -1.691219e+01 -3.883175e+01 -1.752749e+01 -3.745616e+01 -1.804868e+01 -3.585284e+01 -1.849575e+01 -3.407568e+01 -1.889859e+01 -3.218974e+01 -1.929424e+01 -3.026717e+01 -1.972325e+01 -2.838250e+01 -2.022560e+01 -2.660761e+01 -2.083670e+01 -2.500684e+01 -2.158369e+01 -2.363294e+01 -2.248264e+01 -2.252395e+01 -2.353692e+01 -2.170155e+01 -2.473679e+01 -2.117093e+01 -2.606037e+01 -2.092200e+01 -2.747555e+01 -2.093171e+01 -2.894272e+01 -2.116712e+01 -3.041785e+01 -2.158885e+01 -3.185554e+01 -2.215443e+01 -3.321186e+01 -2.282132e+01 -3.444663e+01 -2.354947e+01 -3.552511e+01 -2.430312e+01 -3.641909e+01 -2.505204e+01 -3.710733e+01 -2.577211e+01 -3.757562e+01 -2.644542e+01 -3.781634e+01 -2.705983e+01 -3.782789e+01 -2.760845e+01 -3.761390e+01 -2.808875e+01 -3.718242e+01 -2.850174e+01 -3.654515e+01 -2.885110e+01 -3.571668e+01 -2.914245e+01 -3.471385e+01 -2.938270e+01 -3.355514e+01 -2.957958e+01 -3.226020e+01 -2.974125e+01 -3.084943e+01 -2.987609e+01 -2.934364e+01 -2.999252e+01 -2.776376e+01 -3.009891e+01 -2.613063e+01 -3.020352e+01 -2.446489e+01 -3.031442e+01 -2.278682e+01 -3.043951e+01 -2.111631e+01 -3.058640e+01 -1.947278e+01 -3.076243e+01 -1.787523e+01 
-2.124412e+01 -4.557100e+00 -2.054381e+01 -2.074300e+00 -1.979449e+01 4.019716e-01 -1.900151e+01 2.854362e+00 -1.817021e+01 5.265177e+00 -1.730596e+01 7.616249e+00 -1.641423e+01 9.888865e+00 -1.550056e+01 1.206381e+01 -1.457044e+01 1.412155e+01 -1.362907e+01 1.604263e+01 -1.268098e+01 1.780826e+01 -1.172946e+01 1.940109e+01 -1.077598e+01 2.080613e+01 -9.819574e+00 2.201169e+01 -8.856347e+00 2.301014e+01 -7.879382e+00 2.379842e+01 -6.879119e+00 2.437792e+01 -5.844385e+00 2.475388e+01 -4.764055e+00 2.493417e+01 -3.629242e+00 2.492758e+01 -2.435715e+00 2.474195e+01 -1.186231e+00 2.438244e+01 1.076237e-01 2.385007e+01 1.424360e+00 2.314098e+01 2.732486e+00 2.224632e+01 3.991444e+00 2.115307e+01 5.153549e+00 1.984547e+01 6.166785e+00 1.830719e+01 6.978285e+00 1.652395e+01 7.538209e+00 1.448628e+01 7.803688e+00 1.219232e+01 7.742443e+00 9.649994e+00 7.335668e+00 6.878528e+00 6.579816e+00 3.908902e+00 5.487083e+00 7.831703e-01 4.084539e+00 -2.447255e+00 2.412046e+00 -5.724164e+00 5.192713e-01 -8.985620e+00 -1.537825e+00 -1.216919e+01 -3.700629e+00 -1.521500e+01 -5.911282e+00 -1.806835e+01 -8.115586e+00 -2.068167e+01 -1.026525e+01 -2.301588e+01 -1.231938e+01 -2.504095e+01 -1.424527e+01 -2.673594e+01 -1.601851e+01 -2.808849e+01 -1.762258e+01 -2.909404e+01 -1.904806e+01 -2.975474e+01 -2.029150e+01 -3.007840e+01 -2.135430e+01 -3.007733e+01 -2.224145e+01 -2.976739e+01 -2.296049e+01 -2.916699e+01 -2.352047e+01 -2.829640e+01 -2.393130e+01 -2.717701e+01 -2.420308e+01 -2.583083e+01 -2.434581e+01 -2.428003e+01 -2.436911e+01 -2.254659e+01 -2.428211e+01 -2.065208e+01 -2.409341e+01 -1.861748e+01 -2.381110e+01 -1.646308e+01 -2.344272e+01 -1.420846e+01 -2.299537e+01 -1.187251e+01 -2.247570e+01 -9.473514e+00 -2.188997e+01 -7.029241e+00 
-3.077307e+01 -1.592215e+01 -3.100199e+01 -1.438186e+01 -3.128424e+01 -1.294627e+01 -3.162617e+01 -1.163332e+01 -3.203352e+01 -1.046058e+01 -3.251127e+01 -9.445132e+00 -3.306338e+01 -8.603346e+00 -3.369235e+01 -7.950440e+00 -3.439875e+01 -7.499837e+00 -3.518036e+01 -7.262242e+00 -3.603123e+01 -7.244445e+00 -3.694044e+01 -7.447893e+00 -3.789088e+01 -7.867178e+00 -3.885803e+01 -8.488642e+00 -3.980916e+01 -9.289421e+00 -4.070325e+01 -1.023725e+01 -4.149191e+01 -1.129133e+01 -4.212158e+01 -1.240441e+01 -4.253695e+01 -1.352603e+01 -4.268549e+01 -1.460662e+01 -4.252246e+01 -1.560202e+01 -4.201589e+01 -1.647780e+01 -4.115082e+01 -1.721280e+01 -3.993221e+01 -1.780148e+01 -3.838632e+01 -1.825480e+01 -3.656015e+01 -1.859943e+01 -3.451924e+01 -1.887548e+01 -3.234372e+01 -1.913275e+01 -3.012315e+01 -1.942592e+01 -2.795028e+01 -1.980914e+01 -2.591441e+01 -2.033046e+01 -2.409504e+01 -2.102690e+01 -2.255627e+01 -2.192066e+01 -2.134291e+01 -2.301696e+01 -2.047842e+01 -2.430374e+01 -1.996499e+01 -2.575306e+01 -1.978548e+01 -2.732402e+01 -1.990687e+01 -2.896658e+01 -2.028460e+01 -3.062575e+01 -2.086718e+01 -3.224572e+01 -2.160064e+01 -3.377343e+01 -2.243239e+01 -3.516137e+01 -2.331420e+01 -3.636951e+01 -2.420435e+01 -3.736639e+01 -2.506880e+01 -3.812939e+01 -2.588161e+01 -3.864443e+01 -2.662473e+01 -3.890526e+01 -2.728724e+01 -3.891244e+01 -2.786435e+01 -3.867228e+01 -2.835619e+01 -3.819575e+01 -2.876664e+01 -3.749750e+01 -2.910221e+01 -3.659496e+01 -2.937109e+01 -3.550762e+01 -2.958244e+01 -3.425637e+01 -2.974583e+01 -3.286300e+01 -2.987091e+01 -3.134974e+01 -2.996723e+01 -2.973896e+01 -3.004411e+01 -2.805288e+01 -3.011067e+01 -2.631342e+01 -3.017576e+01 -2.454205e+01 -3.024801e+01 -2.275973e+01 -3.033585e+01 -2.098690e+01 -3.044742e+01 -1.924347e+01 -3.059063e+01 -1.754889e+01 
-2.158394e+01 -4.629235e+00 -2.085029e+01 -2.041376e+00 -2.006872e+01 5.398021e-01 -1.924444e+01 3.097262e+00 -1.838272e+01 5.613411e+00 -1.748906e+01 8.069861e+00 -1.656925e+01 1.044725e+01 -1.562945e+01 1.272518e+01 -1.467609e+01 1.488238e+01 -1.371562e+01 1.689708e+01 -1.275401e+01 1.874777e+01 -1.179597e+01 2.041418e+01 -1.084404e+01 2.187865e+01 -9.897515e+00 2.312749e+01 -8.951507e+00 2.415230e+01 -7.996461e+00 2.495077e+01 -7.018342e+00 2.552684e+01 -5.999792e+00 2.588992e+01 -4.922301e+00 2.605316e+01 -3.769246e+00 2.603108e+01 -2.529382e+00 2.583682e+01 -1.200271e+00 2.547943e+01 2.089444e-01 2.496183e+01 1.675849e+00 2.427957e+01 3.164418e+00 2.342057e+01 4.626092e+00 2.236609e+01 6.002196e+00 2.109261e+01 7.227510e+00 1.957469e+01 8.234782e+00 1.778845e+01 8.959841e+00 1.571554e+01 9.346896e+00 1.334687e+01 9.353477e+00 1.068595e+01 8.954400e+00 7.751041e+00 8.144241e+00 4.575889e+00 6.937961e+00 1.208860e+00 5.369620e+00 -2.289425e+00 3.489426e+00 -5.849612e+00 1.359570e+00 -9.397804e+00 -9.505716e-01 -1.285988e+01 -3.369284e+00 -1.616551e+01 -5.826926e+00 -1.925140e+01 -8.259555e+00 -2.206372e+01 -1.061158e+01 -2.455952e+01 -1.283741e+01 -2.670719e+01 -1.490207e+01 -2.848621e+01 -1.678112e+01 -2.988624e+01 -1.845974e+01 -3.090582e+01 -1.993153e+01 -3.155100e+01 -2.119692e+01 -3.183373e+01 -2.226152e+01 -3.177059e+01 -2.313461e+01 -3.138146e+01 -2.382764e+01 -3.068853e+01 -2.435316e+01 -2.971543e+01 -2.472393e+01 -2.848649e+01 -2.495235e+01 -2.702623e+01 -2.505012e+01 -2.535886e+01 -2.502810e+01 -2.350802e+01 -2.489626e+01 -2.149649e+01 -2.466377e+01 -1.934611e+01 -2.433905e+01 -1.707770e+01 -2.392984e+01 -1.471108e+01 -2.344331e+01 -1.226515e+01 -2.288609e+01 -9.757979e+00 -2.226437e+01 -7.207016e+00 
-3.052537e+01 -1.541597e+01 -3.072168e+01 -1.376769e+01 -3.097656e+01 -1.222913e+01 -3.129752e+01 -1.081924e+01 -3.169173e+01 -9.556971e+00 -3.216593e+01 -8.461332e+00 -3.272624e+01 -7.551192e+00 -3.337780e+01 -6.844941e+00 -3.412420e+01 -6.359809e+00 -3.496658e+01 -6.110797e+00 -3.590233e+01 -6.109145e+00 -3.692344e+01 -6.360364e+00 -3.801460e+01 -6.861970e+00 -3.915109e+01 -7.601219e+00 -4.029720e+01 -8.553285e+00 -4.140538e+01 -9.680413e+00 -4.241683e+01 -1.093258e+01 -4.326394e+01 -1.224996e+01 -4.387467e+01 -1.356719e+01 -4.417865e+01 -1.481901e+01 -4.411415e+01 -1.594664e+01 -4.363514e+01 -1.690382e+01 -4.271726e+01 -1.766184e+01 -4.136203e+01 -1.821296e+01 -3.959877e+01 -1.857161e+01 -3.748411e+01 -1.877352e+01 -3.509909e+01 -1.887273e+01 -3.254421e+01 -1.893665e+01 -2.993263e+01 -1.903960e+01 -2.738197e+01 -1.925539e+01 -2.500544e+01 -1.964969e+01 -2.290314e+01 -2.027323e+01 -2.115457e+01 -2.115646e+01 -1.981329e+01 -2.230680e+01 -1.890447e+01 -2.370836e+01 -1.842531e+01 -2.532430e+01 -1.834822e+01 -2.710108e+01 -1.862586e+01 -2.897399e+01 -1.919739e+01 -3.087302e+01 -1.999477e+01 -3.272834e+01 -2.094873e+01 -3.447494e+01 -2.199354e+01 -3.605606e+01 -2.307075e+01 -3.742532e+01 -2.413142e+01 -3.854771e+01 -2.513732e+01 -3.939952e+01 -2.606092e+01 -3.996758e+01 -2.688477e+01 -4.024794e+01 -2.760017e+01 -4.024444e+01 -2.820562e+01 -3.996714e+01 -2.870512e+01 -3.943092e+01 -2.910653e+01 -3.865425e+01 -2.942012e+01 -3.765817e+01 -2.965740e+01 -3.646544e+01 -2.983028e+01 -3.509988e+01 -2.995054e+01 -3.358584e+01 -3.002950e+01 -3.194774e+01 -3.007797e+01 -3.020975e+01 -3.010623e+01 -2.839559e+01 -3.012409e+01 -2.652833e+01 -3.014104e+01 -2.463037e+01 -3.016626e+01 -2.272338e+01 -3.020868e+01 -2.082832e+01 -3.027704e+01 -1.896558e+01 -3.037984e+01 -1.715498e+01 
-2.197723e+01 -4.711725e+00 -2.120497e+01 -2.002061e+00 -2.038594e+01 7.010554e-01 -1.952508e+01 3.381170e+00 -1.862747e+01 6.021037e+00 -1.769860e+01 8.602223e+00 -1.674456e+01 1.110477e+01 -1.577220e+01 1.350696e+01 -1.478917e+01 1.578537e+01 -1.380367e+01 1.791520e+01 -1.282385e+01 1.987115e+01 -1.185681e+01 2.162876e+01 -1.090721e+01 2.316626e+01 -9.975519e+00 2.446670e+01 -9.056401e+00 2.552002e+01 -8.137453e+00 2.632457e+01 -7.199008e+00 2.688760e+01 -6.215346e+00 2.722437e+01 -5.157533e+00 2.735578e+01 -3.997700e+00 2.730485e+01 -2.714156e+00 2.709264e+01 -1.296471e+00 2.673427e+01 2.503632e-01 2.623579e+01 1.903360e+00 2.559237e+01 3.620895e+00 2.478783e+01 5.344004e+00 2.379576e+01 6.999440e+00 2.258205e+01 8.504266e+00 2.110857e+01 9.771709e+00 1.933798e+01 1.071795e+01 1.723914e+01 1.126931e+01 1.479251e+01 1.136914e+01 1.199497e+01 1.098340e+01 8.863063e+00 1.010416e+01 5.434173e+00 8.750413e+00 1.765345e+00 6.966174e+00 -2.070063e+00 4.816168e+00 -5.987360e+00 2.379909e+00 -9.896353e+00 -2.549539e-01 -1.370725e+01 -2.999191e+00 -1.733594e+01 -5.767744e+00 -2.070818e+01 -8.484271e+00 -2.376245e+01 -1.108426e+01 -2.645142e+01 -1.351672e+01 -2.874222e+01 -1.574462e+01 -3.061561e+01 -1.774426e+01 -3.206452e+01 -1.950384e+01 -3.309213e+01 -2.102151e+01 -3.370979e+01 -2.230321e+01 -3.393505e+01 -2.336038e+01 -3.378993e+01 -2.420792e+01 -3.329943e+01 -2.486240e+01 -3.249036e+01 -2.534070e+01 -3.139041e+01 -2.565904e+01 -3.002744e+01 -2.583241e+01 -2.842887e+01 -2.587438e+01 -2.662134e+01 -2.579706e+01 -2.463031e+01 -2.561123e+01 -2.247994e+01 -2.532655e+01 -2.019298e+01 -2.495168e+01 -1.779075e+01 -2.449449e+01 -1.529325e+01 -2.396215e+01 -1.271926e+01 -2.336122e+01 -1.008650e+01 -2.269772e+01 -7.411879e+00 