# vtk DataFile Version 2.0
Comment goes here
ASCII

DATASET STRUCTURED_POINTS
FIELD FieldData 1
TIME 1 1 double
0.12500000
DIMENSIONS    128   128   1

ORIGIN    0.000   0.000   0.000
SPACING   0.039062 0.039062   1.000

POINT_DATA   16384
SCALARS P double
LOOKUP_TABLE default

-2.708566e+01 -2.665982e+01 -2.840425e+01 -2.783277e+01 -2.939382e+01 -2.868615e+01 -3.005346e+01 -2.922022e+01 -3.038486e+01 -2.943760e+01 -3.039197e+01 -2.934298e+01 -3.008079e+01 -2.894291e+01 -2.945918e+01 -2.824563e+01 -2.853667e+01 -2.726092e+01 -2.732437e+01 -2.600001e+01 -2.583485e+01 -2.447549e+01 -2.408210e+01 -2.270126e+01 -2.208144e+01 -2.069249e+01 -1.984952e+01 -1.846558e+01 -1.740427e+01 -1.603812e+01 -1.476484e+01 -1.342882e+01 -1.195160e+01 -1.065751e+01 -8.986057e+00 -7.745042e+00 -5.890794e+00 -4.713214e+00 -2.689404e+00 -1.584732e+00 5.935915e-01 1.616888e+00 3.932828e+00 4.867380e+00 7.302193e+00 8.141796e+00 1.067492e+01 1.141456e+01 1.402367e+01 1.465954e+01 1.732068e+01 1.785009e+01 2.053781e+01 2.095909e+01 2.364670e+01 2.395909e+01 2.661891e+01 2.682233e+01 2.942605e+01 2.952096e+01 3.203996e+01 3.202712e+01 3.443297e+01 3.431328e+01 3.657811e+01 3.635246e+01 3.844945e+01 3.811862e+01 4.002242e+01 3.958705e+01 4.127427e+01 4.073490e+01 4.218448e+01 4.154165e+01 4.273527e+01 4.198973e+01 4.291212e+01 4.206507e+01 4.270432e+01 4.175770e+01 4.210546e+01 4.106229e+01 4.111397e+01 3.997866e+01 3.973352e+01 3.851214e+01 3.797334e+01 3.667392e+01 3.584846e+01 3.448113e+01 3.337977e+01 3.195681e+01 3.059386e+01 2.912972e+01 2.752279e+01 2.603385e+01 2.420352e+01 2.270785e+01 2.067726e+01 1.919420e+01 1.698861e+01 1.553828e+01 1.318454e+01 1.178732e+01 9.313360e+00 7.989274e+00 5.423605e+00 4.191753e+00 1.562948e+00 4.409814e-01 -2.222776e+00 -3.219116e+00 -5.890430e+00 -6.747684e+00 -9.400274e+00 -1.010753e+01 -1.271648e+01 -1.326551e+01 -1.580748e+01 -1.619282e+01 -1.864611e+01 -1.886499e+01 -2.120963e+01 -2.126187e+01 -2.347963e+01 -2.336746e+01 -2.544180e+01 -2.516962e+01 
-2.776712e+01 -2.732189e+01 -2.906326e+01 -2.846974e+01 -3.003104e+01 -2.929887e+01 -3.067000e+01 -2.980999e+01 -3.098216e+01 -3.000609e+01 -3.097179e+01 -2.989216e+01 -3.064514e+01 -2.947500e+01 -3.001024e+01 -2.876300e+01 -2.907673e+01 -2.776605e+01 -2.785578e+01 -2.649540e+01 -2.635995e+01 -2.496361e+01 -2.460314e+01 -2.318451e+01 -2.260058e+01 -2.117312e+01 -2.036875e+01 -1.894568e+01 -1.792541e+01 -1.651956e+01 -1.528950e+01 -1.391326e+01 -1.248116e+01 -1.114636e+01 -9.521664e+00 -8.239472e+00 -6.433378e+00 -5.214167e+00 -3.239680e+00 -2.092925e+00 3.510647e-02 1.100938e+00 3.365790e+00 4.343330e+00 6.726404e+00 7.609446e+00 1.009030e+01 1.087382e+01 1.343023e+01 1.411040e+01 1.671850e+01 1.729258e+01 1.992699e+01 2.039327e+01 2.302738e+01 2.338499e+01 2.599120e+01 2.623998e+01 2.879004e+01 2.893029e+01 3.139573e+01 3.142803e+01 3.378051e+01 3.370558e+01 3.591738e+01 3.573586e+01 3.778032e+01 3.749273e+01 3.934470e+01 3.895139e+01 4.058769e+01 4.008889e+01 4.148871e+01 4.088464e+01 4.202990e+01 4.132100e+01 4.219673e+01 4.138387e+01 4.197844e+01 4.106326e+01 4.136866e+01 4.035389e+01 4.036584e+01 3.925565e+01 3.897373e+01 3.777402e+01 3.720169e+01 3.592036e+01 3.506491e+01 3.371204e+01 3.258449e+01 3.117241e+01 2.978727e+01 2.833056e+01 2.670559e+01 2.522086e+01 2.337672e+01 2.188239e+01 1.984221e+01 1.835803e+01 1.614699e+01 1.469360e+01 1.233836e+01 1.093671e+01 8.464935e+00 7.135643e+00 4.575496e+00 3.338294e+00 7.179086e-01 -4.089328e-01 -3.061876e+00 -4.062034e+00 -6.720695e+00 -7.580183e+00 -1.021888e+01 -1.092633e+01 -1.352076e+01 -1.406759e+01 -1.659503e+01 -1.697548e+01 -1.941486e+01 -1.962599e+01 -2.195791e+01 -2.199945e+01 -2.420622e+01 -2.408037e+01 -2.614595e+01 -2.585719e+01 
-2.725354e+01 -2.682376e+01 -2.857412e+01 -2.799793e+01 -2.956412e+01 -2.885111e+01 -3.022283e+01 -2.938372e+01 -3.055205e+01 -2.959852e+01 -3.055588e+01 -2.950031e+01 -3.024043e+01 -2.909575e+01 -2.961365e+01 -2.839316e+01 -2.868516e+01 -2.740239e+01 -2.746611e+01 -2.613472e+01 -2.596915e+01 -2.460279e+01 -2.420827e+01 -2.282052e+01 -2.219884e+01 -2.080313e+01 -1.995755e+01 -1.856703e+01 -1.750233e+01 -1.612985e+01 -1.485240e+01 -1.351035e+01 -1.202815e+01 -1.072838e+01 -9.051108e+00 -7.804841e+00 -5.943918e+00 -4.761570e+00 -2.730211e+00 -1.621311e+00 5.654449e-01 1.592383e+00 3.917642e+00 4.855215e+00 7.300221e+00 8.142211e+00 1.068637e+01 1.142778e+01 1.404871e+01 1.468575e+01 1.735943e+01 1.788947e+01 2.059034e+01 2.101179e+01 2.371303e+01 2.402522e+01 2.669899e+01 2.690196e+01 2.951976e+01 2.961406e+01 3.214709e+01 3.213358e+01 3.455317e+01 3.443285e+01 3.671092e+01 3.648472e+01 3.859423e+01 3.826294e+01 4.017834e+01 3.974260e+01 4.144027e+01 4.090056e+01 4.235928e+01 4.171605e+01 4.291731e+01 4.217119e+01 4.309958e+01 4.225162e+01 4.289512e+01 4.194711e+01 4.229729e+01 4.125207e+01 4.130428e+01 4.016610e+01 3.991959e+01 3.869441e+01 3.815234e+01 3.684809e+01 3.601751e+01 3.464428e+01 3.353602e+01 3.210611e+01 3.073462e+01 2.926254e+01 2.764557e+01 2.614783e+01 2.430616e+01 2.280101e+01 2.075799e+01 1.926501e+01 1.704612e+01 1.558571e+01 1.321806e+01 1.181085e+01 9.322631e+00 7.988939e+00 5.408902e+00 4.168096e+00 1.525046e+00 3.950149e-01 -2.282656e+00 -3.285976e+00 -5.970694e+00 -6.833696e+00 -9.499036e+00 -1.021071e+01 -1.283165e+01 -1.338373e+01 -1.593685e+01 -1.632387e+01 -1.878743e+01 -1.900667e+01 -2.136067e+01 -2.141203e+01 -2.363826e+01 -2.352406e+01 -2.560599e+01 -2.533076e+01 
-2.810269e+01 -2.764942e+01 -2.940234e+01 -2.879922e+01 -3.037058e+01 -2.962751e+01 -3.100729e+01 -3.013534e+01 -3.131479e+01 -3.032596e+01 -3.129762e+01 -3.020462e+01 -3.096225e+01 -2.977831e+01 -3.031690e+01 -2.905560e+01 -2.937138e+01 -2.804650e+01 -2.813696e+01 -2.676237e+01 -2.662628e+01 -2.521584e+01 -2.485333e+01 -2.342079e+01 -2.283339e+01 -2.139232e+01 -2.058300e+01 -1.914671e+01 -1.811996e+01 -1.670139e+01 -1.546326e+01 -1.407492e+01 -1.263311e+01 -1.128695e+01 -9.650860e+00 -8.358155e+00 -6.538936e+00 -5.310187e+00 -3.320802e+00 -2.165593e+00 -2.086831e-02 1.052244e+00 3.335587e+00 4.319172e+00 6.722510e+00 7.610336e+00 1.011316e+01 1.090023e+01 1.348021e+01 1.416275e+01 1.679585e+01 1.737125e+01 2.003189e+01 2.049860e+01 2.315988e+01 2.351722e+01 2.615123e+01 2.639924e+01 2.897737e+01 2.911658e+01 3.160993e+01 3.164112e+01 3.402094e+01 3.394497e+01 3.618309e+01 3.600072e+01 3.807004e+01 3.778183e+01 3.965677e+01 3.926304e+01 4.092001e+01 4.042085e+01 4.183867e+01 4.123414e+01 4.239439e+01 4.168466e+01 4.257209e+01 4.175772e+01 4.236049e+01 4.144279e+01 4.175271e+01 4.073407e+01 4.074677e+01 3.963104e+01 3.934606e+01 3.813887e+01 3.755971e+01 3.626877e+01 3.540282e+01 3.403811e+01 3.289656e+01 3.147044e+01 3.006806e+01 2.859523e+01 2.695010e+01 2.544745e+01 2.358061e+01 2.206691e+01 2.000194e+01 1.849743e+01 1.625996e+01 1.478582e+01 1.240304e+01 1.098079e+01 8.480853e+00 7.131721e+00 4.543270e+00 3.287542e+00 6.391684e-01 -5.043860e-01 -3.184599e+00 -4.199244e+00 -6.884116e+00 -7.755552e+00 -1.041913e+01 -1.113578e+01 -1.375357e+01 -1.430677e+01 -1.685590e+01 -1.723989e+01 -1.969921e+01 -1.991116e+01 -2.226126e+01 -2.230104e+01 -2.452425e+01 -2.439430e+01 -2.647462e+01 -2.617965e+01 
-2.775902e+01 -2.731728e+01 -2.908537e+01 -2.849494e+01 -3.007654e+01 -2.934736e+01 -3.073226e+01 -2.987544e+01 -3.105481e+01 -3.008236e+01 -3.104868e+01 -2.997328e+01 -3.072032e+01 -2.955517e+01 -3.007797e+01 -2.883659e+01 -2.913146e+01 -2.782759e+01 -2.789214e+01 -2.653960e+01 -2.637277e+01 -2.498539e+01 -2.458748e+01 -2.317898e+01 -2.255173e+01 -2.113567e+01 -2.028227e+01 -1.887198e+01 -1.779716e+01 -1.640562e+01 -1.511568e+01 -1.375546e+01 -1.225833e+01 -1.094148e+01 -9.246771e+00 -7.984688e+00 -6.103757e+00 -4.907049e+00 -2.853056e+00 -1.731425e+00 4.806293e-01 1.518523e+00 3.871752e+00 4.818402e+00 7.294018e+00 8.143161e+00 1.072048e+01 1.146714e+01 1.412364e+01 1.476412e+01 1.747553e+01 1.800738e+01 2.074783e+01 2.116971e+01 2.391198e+01 2.422350e+01 2.693928e+01 2.714079e+01 2.980102e+01 2.989341e+01 3.246870e+01 3.245314e+01 3.491417e+01 3.479189e+01 3.710991e+01 3.688202e+01 3.902931e+01 3.869668e+01 4.064705e+01 4.021027e+01 4.193949e+01 4.139886e+01 4.288513e+01 4.224083e+01 4.346515e+01 4.271744e+01 4.366396e+01 4.281344e+01 4.346979e+01 4.251773e+01 4.287523e+01 4.182399e+01 4.187783e+01 4.073118e+01 4.048052e+01 3.924403e+01 3.869208e+01 3.737340e+01 3.652736e+01 3.513642e+01 3.400736e+01 3.255652e+01 3.115925e+01 2.966320e+01 2.801594e+01 2.649162e+01 2.461570e+01 2.308190e+01 2.100133e+01 1.947834e+01 1.721932e+01 1.572834e+01 1.331873e+01 1.188126e+01 9.350017e+00 7.987239e+00 5.363866e+00 4.095960e+00 1.409966e+00 2.555443e-01 -2.464047e+00 -3.488453e+00 -6.213529e+00 -7.093869e+00 -9.797570e+00 -1.052255e+01 -1.317953e+01 -1.374075e+01 -1.632736e+01 -1.671938e+01 -1.921375e+01 -1.943399e+01 -2.181609e+01 -2.186469e+01 -2.411630e+01 -2.399590e+01 -2.610056e+01 -2.581606e+01 
-2.877747e+01 -2.830783e+01 -3.008377e+01 -2.946116e+01 -3.105259e+01 -3.028747e+01 -3.168448e+01 -3.078840e+01 -3.198237e+01 -3.096782e+01 -3.195135e+01 -3.083144e+01 -3.159835e+01 -3.038668e+01 -3.093197e+01 -2.964241e+01 -2.996229e+01 -2.860891e+01 -2.870083e+01 -2.729772e+01 -2.716039e+01 -2.572164e+01 -2.535511e+01 -2.389465e+01 -2.330037e+01 -2.183197e+01 -2.101279e+01 -1.954996e+01 -1.851029e+01 -1.706617e+01 -1.581196e+01 -1.439929e+01 -1.293813e+01 -1.156911e+01 -9.910283e+00 -8.596433e+00 -6.751003e+00 -5.503067e+00 -3.483913e+00 -2.311704e+00 -1.335968e-01 9.541378e-01 3.274492e+00 4.270189e+00 6.714120e+00 7.611494e+00 1.015837e+01 1.095246e+01 1.357974e+01 1.426692e+01 1.695024e+01 1.752812e+01 2.024148e+01 2.070885e+01 2.342480e+01 2.378138e+01 2.647136e+01 2.671763e+01 2.935228e+01 2.948922e+01 3.203882e+01 3.206763e+01 3.450256e+01 3.442442e+01 3.671562e+01 3.653152e+01 3.865099e+01 3.836158e+01 4.028286e+01 3.988839e+01 4.158707e+01 4.108740e+01 4.254154e+01 4.193633e+01 4.312686e+01 4.241575e+01 4.332683e+01 4.250976e+01 4.312910e+01 4.220669e+01 4.252576e+01 4.149968e+01 4.151391e+01 4.038736e+01 4.009621e+01 3.887425e+01 3.828131e+01 3.697124e+01 3.608410e+01 3.469570e+01 3.352590e+01 3.207154e+01 3.063437e+01 2.912903e+01 2.744321e+01 2.590430e+01 2.399166e+01 2.243873e+01 2.032370e+01 1.877796e+01 1.648717e+01 1.497093e+01 1.253255e+01 1.106852e+01 8.511767e+00 7.122392e+00 4.476879e+00 3.183598e+00 4.788437e-01 -6.985518e-01 -3.433648e+00 -4.477577e+00 -7.215146e+00 -8.110679e+00 -1.082422e+01 -1.155938e+01 -1.422400e+01 -1.478993e+01 -1.738250e+01 -1.777349e+01 -2.027271e+01 -2.048612e+01 -2.287256e+01 -2.290861e+01 -2.516464e+01 -2.502621e+01 -2.713595e+01 -2.682828e+01 
-2.860759e+01 -2.814545e+01 -2.994298e+01 -2.932835e+01 -3.093550e+01 -3.017897e+01 -3.158573e+01 -3.069903e+01 -3.189670e+01 -3.089239e+01 -3.187358e+01 -3.076484e+01 -3.152338e+01 -3.032386e+01 -3.085481e+01 -2.957840e+01 -2.987808e+01 -2.853884e+01 -2.860480e+01 -2.721685e+01 -2.704798e+01 -2.562538e+01 -2.522189e+01 -2.377862e+01 -2.314216e+01 -2.169202e+01 -2.082568e+01 -1.938223e+01 -1.829062e+01 -1.686713e+01 -1.555644e+01 -1.416575e+01 -1.264381e+01 -1.129828e+01 -9.574580e+00 -8.285930e+00 -6.371713e+00 -5.150879e+00 -3.059203e+00 -1.916193e+00 3.380150e-01 1.394282e+00 3.794163e+00 4.755994e+00 7.282721e+00 8.143762e+00 1.077652e+01 1.153183e+01 1.424785e+01 1.489389e+01 1.766852e+01 1.820313e+01 2.100999e+01 2.143224e+01 2.424344e+01 2.455346e+01 2.733987e+01 2.753858e+01 3.027023e+01 3.035909e+01 3.300554e+01 3.298626e+01 3.551710e+01 3.539137e+01 3.777671e+01 3.754593e+01 3.975693e+01 3.942211e+01 4.143146e+01 4.099311e+01 4.277553e+01 4.223369e+01 4.376643e+01 4.312078e+01 4.438399e+01 4.363413e+01 4.461125e+01 4.375699e+01 4.443505e+01 4.347680e+01 4.384668e+01 4.278591e+01 4.284252e+01 4.168218e+01 4.142458e+01 4.016953e+01 3.960096e+01 3.825835e+01 3.738625e+01 3.596576e+01 3.480163e+01 3.331564e+01 3.187487e+01 3.033845e+01 2.864006e+01 2.707080e+01 2.513707e+01 2.355474e+01 2.141079e+01 1.983689e+01 1.751013e+01 1.596725e+01 1.348684e+01 1.199799e+01 9.394195e+00 7.982033e+00 5.285647e+00 3.971770e+00 1.213500e+00 1.776465e-02 -2.772294e+00 -3.832340e+00 -6.625163e+00 -7.534716e+00 -1.030272e+01 -1.105001e+01 -1.376729e+01 -1.434374e+01 -1.698629e+01 -1.738649e+01 -1.993226e+01 -2.015390e+01 -2.258277e+01 -2.262642e+01 -2.492024e+01 -2.478910e+01 -2.693153e+01 -2.663113e+01 
-2.979871e+01 -2.930380e+01 -3.111407e+01 -3.046156e+01 -3.208289e+01 -3.128403e+01 -3.270674e+01 -3.177389e+01 -3.298952e+01 -3.193586e+01 -3.293714e+01 -3.177639e+01 -3.255721e+01 -3.130351e+01 -3.185888e+01 -3.052658e+01 -3.085268e+01 -2.945623e+01 -2.955042e+01 -2.810428e+01 -2.796519e+01 -2.648371e+01 -2.611126e+01 -2.460868e+01 -2.400418e+01 -2.249454e+01 -2.166071e+01 -2.015780e+01 -1.909888e+01 -1.761616e+01 -1.633795e+01 -1.488851e+01 -1.339843e+01 -1.199482e+01 -1.030201e+01 -8.956134e+00 -7.071488e+00 -5.794491e+00 -3.730751e+00 -2.532808e+00 -3.046422e-01 8.051885e-01 3.181116e+00 4.195049e+00 6.700022e+00 7.611671e+00 1.022490e+01 1.102934e+01 1.372797e+01 1.442179e+01 1.718099e+01 1.776219e+01 2.055531e+01 2.102316e+01 2.382193e+01 2.417683e+01 2.695168e+01 2.719479e+01 2.991525e+01 3.004827e+01 3.268334e+01 3.270814e+01 3.522687e+01 3.514518e+01 3.751713e+01 3.733033e+01 3.952610e+01 3.923498e+01 4.122681e+01 4.083152e+01 4.259371e+01 4.209376e+01 4.360321e+01 4.299764e+01 4.423428e+01 4.352189e+01 4.446900e+01 4.364875e+01 4.429334e+01 4.336472e+01 4.369776e+01 4.266133e+01 4.267793e+01 4.153582e+01 4.123533e+01 3.999171e+01 3.937780e+01 3.803929e+01 3.711989e+01 3.569590e+01 3.448309e+01 3.298601e+01 3.149583e+01 2.994105e+01 2.819322e+01 2.659896e+01 2.461648e+01 2.300349e+01 2.081217e+01 1.920319e+01 1.683113e+01 1.525023e+01 1.272719e+01 1.119898e+01 8.555746e+00 7.104571e+00 4.372313e+00 3.021423e+00 2.310735e-01 -9.981382e-01 -3.816422e+00 -4.905067e+00 -7.722365e+00 -8.654547e+00 -1.144353e+01 -1.220668e+01 -1.494186e+01 -1.552686e+01 -1.818475e+01 -1.858597e+01 -2.114508e+01 -2.136022e+01 -2.380110e+01 -2.383097e+01 -2.613608e+01 -2.598429e+01 -2.813794e+01 -2.781052e+01 
-2.980841e+01 -2.931676e+01 -3.115519e+01 -3.050574e+01 -3.214839e+01 -3.135269e+01 -3.278982e+01 -3.186047e+01 -3.308361e+01 -3.203397e+01 -3.303587e+01 -3.187983e+01 -3.265443e+01 -3.140623e+01 -3.194861e+01 -3.062268e+01 -3.092914e+01 -2.953997e+01 -2.960801e+01 -2.817010e+01 -2.799848e+01 -2.652625e+01 -2.611508e+01 -2.462280e+01 -2.397358e+01 -2.247538e+01 -2.159106e+01 -2.010083e+01 -1.898587e+01 -1.751723e+01 -1.617767e+01 -1.474389e+01 -1.318737e+01 -1.180124e+01 -1.003711e+01 -8.710812e+00 -6.750133e+00 -5.495103e+00 -3.350771e+00 -2.177474e+00 1.357142e-01 1.217958e+00 3.683214e+00 4.666414e+00 7.264888e+00 8.142538e+00 1.085326e+01 1.162044e+01 1.442032e+01 1.507373e+01 1.793760e+01 1.847550e+01 2.137627e+01 2.179834e+01 2.470716e+01 2.501429e+01 2.790089e+01 2.809488e+01 3.092793e+01 3.101112e+01 3.375872e+01 3.373363e+01 3.636378e+01 3.623279e+01 3.871397e+01 3.847897e+01 4.078070e+01 4.044291e+01 4.253628e+01 4.209613e+01 4.395437e+01 4.341149e+01 4.501047e+01 4.436383e+01 4.568250e+01 4.493072e+01 4.595148e+01 4.509318e+01 4.580222e+01 4.483652e+01 4.522410e+01 4.415112e+01 4.421174e+01 4.303318e+01 4.276573e+01 4.148538e+01 4.089319e+01 3.951740e+01 3.860821e+01 3.714626e+01 3.593216e+01 3.439645e+01 3.289367e+01 3.129977e+01 2.952845e+01 2.789491e+01 2.587871e+01 2.422672e+01 2.199234e+01 2.034521e+01 1.792182e+01 1.630421e+01 1.372284e+01 1.215997e+01 9.452817e+00 7.969556e+00 5.169276e+00 3.789307e+00 9.283507e-01 -3.266434e-01 -3.216633e+00 -4.327624e+00 -7.216318e+00 -8.167427e+00 -1.102620e+01 -1.180501e+01 -1.460723e+01 -1.520491e+01 -1.792607e+01 -1.833733e+01 -2.095513e+01 -2.117810e+01 -2.367239e+01 -2.370831e+01 -2.606103e+01 -2.591394e+01 -2.810898e+01 -2.778535e+01 
-3.117735e+01 -3.064740e+01 -3.250302e+01 -3.180931e+01 -3.347014e+01 -3.262508e+01 -3.408175e+01 -3.309877e+01 -3.434306e+01 -3.323626e+01 -3.426108e+01 -3.304503e+01 -3.384434e+01 -3.253389e+01 -3.310271e+01 -3.171281e+01 -3.204728e+01 -3.059288e+01 -3.069024e+01 -2.918623e+01 -2.904497e+01 -2.750608e+01 -2.712594e+01 -2.556677e+01 -2.494886e+01 -2.338378e+01 -2.253064e+01 -2.097381e+01 -1.988947e+01 -1.835477e+01 -1.704481e+01 -1.554576e+01 -1.401738e+01 -1.256705e+01 -1.082916e+01 -9.440002e+00 -7.503277e+00 -6.186979e+00 -4.063940e+00 -2.831219e+00 -5.363611e-01 6.032608e-01 3.053370e+00 4.091762e+00 6.678388e+00 7.608990e+00 1.031116e+01 1.112910e+01 1.392359e+01 1.462570e+01 1.748708e+01 1.807189e+01 2.097262e+01 2.144017e+01 2.435089e+01 2.470246e+01 2.759224e+01 2.783005e+01 3.066684e+01 3.079363e+01 3.354473e+01 3.356335e+01 3.619594e+01 3.610896e+01 3.859070e+01 3.840006e+01 4.069966e+01 4.040641e+01 4.249424e+01 4.209842e+01 4.394707e+01 4.344768e+01 4.503246e+01 4.442768e+01 4.572712e+01 4.501455e+01 4.601076e+01 4.518791e+01 4.586696e+01 4.493174e+01 4.528388e+01 4.423523e+01 4.425513e+01 4.309362e+01 4.278049e+01 4.150894e+01 4.086656e+01 3.949061e+01 3.852733e+01 3.705582e+01 3.578444e+01 3.422973e+01 3.266733e+01 3.104533e+01 2.921296e+01 2.754304e+01 2.546532e+01 2.376991e+01 2.147455e+01 1.977854e+01 1.729570e+01 1.562567e+01 1.298730e+01 1.137057e+01 8.609670e+00 7.073319e+00 4.223200e+00 2.793042e+00 -1.133809e-01 -1.413697e+00 -4.344530e+00 -5.494288e+00 -8.419175e+00 -9.401155e+00 -1.229166e+01 -1.309250e+01 -1.592236e+01 -1.653266e+01 -1.927791e+01 -1.969223e+01 -2.233120e+01 -2.254778e+01 -2.506106e+01 -2.508156e+01 -2.745181e+01 -2.728089e+01 -2.949271e+01 -2.913760e+01 
-3.137437e+01 -3.084307e+01 -3.273352e+01 -3.203766e+01 -3.372546e+01 -3.287787e+01 -3.435363e+01 -3.336806e+01 -3.462363e+01 -3.351449e+01 -3.454283e+01 -3.332490e+01 -3.412005e+01 -3.280836e+01 -3.336545e+01 -3.197507e+01 -3.229034e+01 -3.083631e+01 -3.090716e+01 -2.940444e+01 -2.922948e+01 -2.769287e+01 -2.727204e+01 -2.571621e+01 -2.505082e+01 -2.349025e+01 -2.258306e+01 -2.103206e+01 -1.988734e+01 -1.835997e+01 -1.698356e+01 -1.549362e+01 -1.389295e+01 -1.245381e+01 -1.063798e+01 -9.262485e+00 -7.242327e+00 -5.942572e+00 -3.730740e+00 -2.517849e+00 -1.289254e-01 9.871954e-01 3.536570e+00 4.547482e+00 7.238486e+00 8.137430e+00 1.094896e+01 1.173101e+01 1.463961e+01 1.530176e+01 1.828162e+01 1.882271e+01 2.184582e+01 2.226639e+01 2.530266e+01 2.560468e+01 2.862234e+01 2.880881e+01 3.177475e+01 3.184927e+01 3.472960e+01 3.469591e+01 3.745652e+01 3.731798e+01 3.992516e+01 3.968439e+01 4.210545e+01 4.176402e+01 4.396795e+01 4.352617e+01 4.548422e+01 4.494118e+01 4.662740e+01 4.598110e+01 4.737282e+01 4.662052e+01 4.769879e+01 4.683744e+01 4.758736e+01 4.661424e+01 4.702523e+01 4.593858e+01 4.600462e+01 4.480434e+01 4.452408e+01 4.321243e+01 4.258926e+01 4.117144e+01 4.021351e+01 3.869815e+01 3.741830e+01 3.581777e+01 3.423333e+01 3.256382e+01 3.069640e+01 2.897778e+01 2.685283e+01 2.510826e+01 2.275460e+01 2.100984e+01 1.845903e+01 1.674163e+01 1.402723e+01 1.236547e+01 9.522274e+00 7.944107e+00 5.007300e+00 3.539283e+00 5.436710e-01 -7.900101e-01 -3.810706e+00 -4.989025e+00 -8.002745e+00 -9.008404e+00 -1.198518e+01 -1.280494e+01 -1.571720e+01 -1.634197e+01 -1.916462e+01 -1.958939e+01 -2.229987e+01 -2.252342e+01 -2.510161e+01 -2.512616e+01 -2.755421e+01 -2.738500e+01 -2.964716e+01 -2.929196e+01 
-3.292800e+01 -3.235197e+01 -3.426356e+01 -3.351619e+01 -3.522577e+01 -3.432096e+01 -3.581958e+01 -3.477211e+01 -3.605188e+01 -3.487708e+01 -3.593111e+01 -3.464457e+01 -3.546694e+01 -3.408439e+01 -3.467010e+01 -3.320722e+01 -3.355231e+01 -3.202464e+01 -3.212622e+01 -3.054913e+01 -3.040546e+01 -2.879413e+01 -2.840471e+01 -2.677412e+01 -2.613982e+01 -2.450474e+01 -2.362784e+01 -2.200284e+01 -2.088711e+01 -1.928658e+01 -1.793733e+01 -1.637535e+01 -1.479952e+01 -1.328980e+01 -1.149598e+01 -1.005171e+01 -8.050253e+00 -6.683883e+00 -4.487005e+00 -3.209998e+00 -8.319158e-01 3.455350e-01 2.888450e+00 3.957697e+00 6.646762e+00 7.600956e+00 1.041505e+01 1.124932e+01 1.416480e+01 1.487632e+01 1.786702e+01 1.845501e+01 2.149234e+01 2.195784e+01 2.501101e+01 2.535657e+01 2.839291e+01 2.862219e+01 3.160761e+01 3.172485e+01 3.462438e+01 3.463383e+01 3.741225e+01 3.731766e+01 3.994013e+01 3.974429e+01 4.217706e+01 4.188138e+01 4.409243e+01 4.369684e+01 4.565649e+01 4.515936e+01 4.684089e+01 4.623921e+01 4.761934e+01 4.690911e+01 4.796844e+01 4.714518e+01 4.786854e+01 4.692797e+01 4.730474e+01 4.624352e+01 4.626779e+01 4.508434e+01 4.475511e+01 4.345036e+01 4.277154e+01 4.134969e+01 4.033014e+01 3.879919e+01 3.745262e+01 3.582477e+01 3.416956e+01 3.246141e+01 3.052032e+01 2.875270e+01 2.655247e+01 2.475006e+01 2.232083e+01 2.051145e+01 1.788611e+01 1.609976e+01 1.331316e+01 1.158084e+01 8.668924e+00 7.021438e+00 4.020354e+00 2.486997e+00 -5.677218e-01 -1.960264e+00 -5.034450e+00 -6.263041e+00 -9.324483e+00 -1.037020e+01 -1.338907e+01 -1.423757e+01 -1.718667e+01 -1.782831e+01 -2.068315e+01 -2.111282e+01 -2.385159e+01 -2.406841e+01 -2.667182e+01 -2.667867e+01 -2.912973e+01 -2.893274e+01 -3.121655e+01 -3.082454e+01 
-3.332207e+01 -3.273959e+01 -3.469272e+01 -3.393755e+01 -3.567972e+01 -3.476631e+01 -3.628864e+01 -3.523221e+01 -3.652694e+01 -3.534319e+01 -3.640354e+01 -3.510836e+01 -3.592853e+01 -3.453786e+01 -3.511298e+01 -3.364266e+01 -3.396888e+01 -3.243458e+01 -3.250913e+01 -3.092631e+01 -3.074759e+01 -2.913150e+01 -2.869922e+01 -2.706490e+01 -2.638012e+01 -2.474248e+01 -2.380773e+01 -2.218150e+01 -2.100082e+01 -1.940062e+01 -1.797960e+01 -1.641984e+01 -1.476565e+01 -1.326047e+01 -1.138192e+01 -9.944997e+00 -7.852591e+00 -6.496924e+00 -4.202965e+00 -2.940591e+00 -4.593256e-01 6.990197e-01 3.351223e+00 4.396436e+00 7.200894e+00 8.125814e+00 1.106134e+01 1.186099e+01 1.490377e+01 1.557546e+01 1.869898e+01 1.924231e+01 2.241742e+01 2.283408e+01 2.602918e+01 2.632260e+01 2.950398e+01 2.967885e+01 3.281114e+01 3.287283e+01 3.591960e+01 3.587350e+01 3.879791e+01 3.864882e+01 4.141434e+01 4.116591e+01 4.373706e+01 4.339137e+01 4.573442e+01 4.529172e+01 4.737539e+01 4.683406e+01 4.863009e+01 4.798683e+01 4.947055e+01 4.872078e+01 4.987151e+01 4.900994e+01 4.981142e+01 4.883280e+01 4.927343e+01 4.817342e+01 4.824647e+01 4.702250e+01 4.672633e+01 4.537850e+01 4.471656e+01 4.324843e+01 4.222934e+01 4.064859e+01 3.928607e+01 3.760493e+01 3.591768e+01 3.415310e+01 3.216454e+01 3.033808e+01 2.807595e+01 2.621334e+01 2.370917e+01 2.183948e+01 1.912790e+01 1.728254e+01 1.440042e+01 1.261181e+01 9.597334e+00 7.897561e+00 4.789225e+00 3.208691e+00 4.436455e-02 -1.389437e+00 -4.573350e+00 -5.836798e+00 -9.006042e+00 -1.008005e+01 -1.320301e+01 -1.407338e+01 -1.712133e+01 -1.777879e+01 -2.072602e+01 -2.116604e+01 -2.398980e+01 -2.421214e+01 -2.689245e+01 -2.690074e+01 -2.942016e+01 -2.922127e+01 -3.156459e+01 -3.116807e+01 
-3.506894e+01 -3.443415e+01 -3.641178e+01 -3.559672e+01 -3.736383e+01 -3.638431e+01 -3.793250e+01 -3.680497e+01 -3.812679e+01 -3.686804e+01 -3.795685e+01 -3.658373e+01 -3.743370e+01 -3.596296e+01 -3.656908e+01 -3.501722e+01 -3.537536e+01 -3.375858e+01 -3.386562e+01 -3.219983e+01 -3.205373e+01 -3.035454e+01 -2.995451e+01 -2.823727e+01 -2.758385e+01 -2.586376e+01 -2.495891e+01 -2.325102e+01 -2.209820e+01 -2.041742e+01 -1.902165e+01 -1.738274e+01 -1.575060e+01 -1.416811e+01 -1.230781e+01 -1.079585e+01 -8.717334e+00 -7.289374e+00 -5.004398e+00 -3.672930e+00 -1.195287e+00 2.854437e-02 2.682832e+00 3.789614e+00 6.602052e+00 7.584468e+00 1.053387e+01 1.138697e+01 1.444929e+01 1.517066e+01 1.831890e+01 1.890862e+01 2.211293e+01 2.257337e+01 2.580121e+01 2.613666e+01 2.935319e+01 2.956926e+01 3.273782e+01 3.284081e+01 3.592358e+01 3.591969e+01 3.887839e+01 3.877304e+01 4.156969e+01 4.136685e+01 4.396455e+01 4.366627e+01 4.602999e+01 4.563607e+01 4.773332e+01 4.724131e+01 4.904280e+01 4.844818e+01 4.992839e+01 4.922499e+01 5.036264e+01 4.954333e+01 5.032177e+01 4.937931e+01 4.978678e+01 4.871478e+01 4.874469e+01 4.753860e+01 4.718963e+01 4.584780e+01 4.512401e+01 4.364860e+01 4.255944e+01 4.095719e+01 3.951743e+01 3.780026e+01 3.602988e+01 3.421511e+01 3.213897e+01 3.024932e+01 2.789677e+01 2.595984e+01 2.336414e+01 2.141160e+01 1.860911e+01 1.667552e+01 1.370482e+01 1.182611e+01 8.726951e+00 6.938865e+00 3.751075e+00 2.087541e+00 -1.149986e+00 -2.658300e+00 -5.908503e+00 -7.235349e+00 -1.046371e+01 -1.158804e+01 -1.476304e+01 -1.566943e+01 -1.876280e+01 -1.944143e+01 -2.242818e+01 -2.287459e+01 -2.573288e+01 -2.594747e+01 -2.865832e+01 -2.864570e+01 -3.119273e+01 -3.096103e+01 -3.333005e+01 -3.289024e+01 
-3.567183e+01 -3.502485e+01 -3.705064e+01 -3.622159e+01 -3.802677e+01 -3.703211e+01 -3.860849e+01 -3.746524e+01 -3.880555e+01 -3.753095e+01 -3.862874e+01 -3.723999e+01 -3.808959e+01 -3.660369e+01 -3.720021e+01 -3.563386e+01 -3.597330e+01 -3.434282e+01 -3.442215e+01 -3.274353e+01 -3.256087e+01 -3.084977e+01 -3.040448e+01 -2.867635e+01 -2.796920e+01 -2.623932e+01 -2.527255e+01 -2.355613e+01 -2.233351e+01 -2.064574e+01 -1.917260e+01 -1.752864e+01 -1.581186e+01 -1.422676e+01 -1.227479e+01 -1.076331e+01 -8.586229e+00 -7.162563e+00 -4.772190e+00 -3.449614e+00 -8.596772e-01 3.498988e-01 3.123499e+00 4.210000e+00 7.148905e+00 8.104536e+00 1.118763e+01 1.200723e+01 1.521039e+01 1.589166e+01 1.918761e+01 1.973108e+01 2.308937e+01 2.349824e+01 2.688544e+01 2.716511e+01 3.054512e+01 3.070258e+01 3.403721e+01 3.408022e+01 3.732985e+01 3.726612e+01 4.039048e+01 4.022681e+01 4.318583e+01 4.292734e+01 4.568203e+01 4.533156e+01 4.784483e+01 4.740262e+01 4.964002e+01 4.910357e+01 5.103403e+01 5.039834e+01 5.199470e+01 5.125276e+01 5.249229e+01 5.163580e+01 5.250055e+01 5.152091e+01 5.199803e+01 5.088740e+01 5.096935e+01 4.972181e+01 4.940652e+01 4.801922e+01 4.731018e+01 4.578439e+01 4.469073e+01 4.303270e+01 4.156918e+01 3.979081e+01 3.797770e+01 3.609683e+01 3.395974e+01 3.200005e+01 2.956953e+01 2.756005e+01 2.487103e+01 2.284519e+01 1.993616e+01 1.793048e+01 1.484254e+01 1.289493e+01 9.670609e+00 7.818656e+00 4.500701e+00 2.779854e+00 -5.899401e-01 -2.147895e+00 -5.529739e+00 -6.897893e+00 -1.025482e+01 -1.141192e+01 -1.471032e+01 -1.564113e+01 -1.885102e+01 -1.954624e+01 -2.264131e+01 -2.309723e+01 -2.605466e+01 -2.627256e+01 -2.907274e+01 -2.905817e+01 -3.168433e+01 -3.144638e+01 -3.388418e+01 -3.343472e+01 
-3.762208e+01 -3.691372e+01 -3.896668e+01 -3.806798e+01 -3.990074e+01 -3.882981e+01 -4.043472e+01 -3.921005e+01 -4.058017e+01 -3.922028e+01 -4.034927e+01 -3.887246e+01 -3.975459e+01 -3.817873e+01 -3.880889e+01 -3.715140e+01 -3.752523e+01 -3.580300e+01 -3.591702e+01 -3.414645e+01 -3.399822e+01 -3.219533e+01 -3.178366e+01 -2.996417e+01 -2.928918e+01 -2.746864e+01 -2.653195e+01 -2.472586e+01 -2.353058e+01 -2.175445e+01 -2.030524e+01 -1.857463e+01 -1.687770e+01 -1.520812e+01 -1.327122e+01 -1.167798e+01 -9.510510e+00 -8.008416e+00 -5.621517e+00 -4.224466e+00 -1.631281e+00 -3.517599e-01 2.432274e+00 3.583732e+00 6.540533e+00 7.555868e+00 1.066436e+01 1.153841e+01 1.477420e+01 1.550496e+01 1.884023e+01 1.942887e+01 2.283228e+01 2.328293e+01 2.671986e+01 2.703909e+01 3.047203e+01 3.066812e+01 3.405724e+01 3.413929e+01 3.744320e+01 3.742011e+01 4.059672e+01 4.047624e+01 4.348364e+01 4.327144e+01 4.606887e+01 4.576789e+01 4.831658e+01 4.792659e+01 5.019058e+01 4.970811e+01 5.165501e+01 5.107355e+01 5.267511e+01 5.198566e+01 5.321835e+01 5.241031e+01 5.325564e+01 5.231783e+01 5.276274e+01 5.168466e+01 5.172169e+01 5.049483e+01 5.012228e+01 4.874146e+01 4.796350e+01 4.642804e+01 4.525478e+01 4.356961e+01 4.201704e+01 4.019347e+01 3.828339e+01 3.633959e+01 3.409937e+01 3.206033e+01 2.952252e+01 2.741959e+01 2.462128e+01 2.249117e+01 1.947311e+01 1.735636e+01 1.416186e+01 1.210093e+01 8.774597e+00 6.811782e+00 3.398155e+00 1.573459e+00 -1.884295e+00 -3.535045e+00 -6.996245e+00 -8.442871e+00 -1.187017e+01 -1.308909e+01 -1.644901e+01 -1.742361e+01 -2.068675e+01 -2.140730e+01 -2.454827e+01 -2.501143e+01 -2.800855e+01 -2.821662e+01 -3.105157e+01 -3.101157e+01 -3.366888e+01 -3.339164e+01 -3.585819e+01 -3.535746e+01 
-3.844763e+01 -3.772054e+01 -3.982806e+01 -3.890847e+01 -4.078456e+01 -3.969137e+01 -4.132871e+01 -4.008108e+01 -4.147303e+01 -4.009000e+01 -4.123047e+01 -3.973074e+01 -4.061419e+01 -3.901594e+01 -3.963738e+01 -3.795821e+01 -3.831338e+01 -3.657029e+01 -3.665579e+01 -3.486524e+01 -3.467873e+01 -3.285675e+01 -3.239720e+01 -3.055953e+01 -2.982729e+01 -2.798955e+01 -2.698655e+01 -2.516437e+01 -2.389411e+01 -2.210329e+01 -2.057083e+01 -1.882736e+01 -1.703927e+01 -1.535930e+01 -1.332364e+01 -1.172327e+01 -9.449598e+00 -7.944607e+00 -5.444052e+00 -4.049393e+00 -1.334929e+00 -6.415283e-02 2.849079e+00 3.984484e+00 7.078747e+00 8.069996e+00 1.132450e+01 1.216605e+01 1.555654e+01 1.624645e+01 1.974488e+01 2.028487e+01 2.385937e+01 2.425458e+01 2.786953e+01 2.812799e+01 3.174440e+01 3.187617e+01 3.545236e+01 3.546851e+01 3.896088e+01 3.887228e+01 4.223631e+01 4.205254e+01 4.524376e+01 4.497202e+01 4.794711e+01 4.759139e+01 5.030911e+01 4.986969e+01 5.229179e+01 5.176509e+01 5.385706e+01 5.323589e+01 5.496763e+01 5.424180e+01 5.558810e+01 5.474536e+01 5.568631e+01 5.471359e+01 5.523486e+01 5.411968e+01 5.421274e+01 5.294466e+01 5.260693e+01 5.117910e+01 5.041404e+01 4.882453e+01 4.764180e+01 4.589483e+01 4.431028e+01 4.241709e+01 4.045281e+01 3.843218e+01 3.611630e+01 3.399453e+01 3.136097e+01 2.917133e+01 2.625915e+01 2.404076e+01 2.089331e+01 1.868938e+01 1.535308e+01 1.320882e+01 9.731768e+00 7.691960e+00 4.122345e+00 2.229071e+00 -1.386349e+00 -3.095782e+00 -6.712991e+00 -8.207574e+00 -1.178630e+01 -1.304224e+01 -1.654657e+01 -1.754761e+01 -2.094623e+01 -2.168337e+01 -2.494949e+01 -2.542041e+01 -2.853142e+01 -2.873958e+01 -3.167660e+01 -3.163025e+01 -3.437758e+01 -3.408876e+01 -3.663330e+01 -3.611690e+01 