# vtk DataFile Version 2.0
Comment goes here
ASCII

DATASET STRUCTURED_POINTS
FIELD FieldData 1
TIME 1 1 double
0.03500000
DIMENSIONS    128   128   1

ORIGIN    0.000   0.000   0.000
SPACING   0.039062 0.039062   1.000

POINT_DATA   16384
SCALARS P double
LOOKUP_TABLE default

1.609900e+00 1.337703e+00 4.873851e-01 2.565721e-01 -7.456433e-01 -9.302158e-01 -2.073834e+00 -2.208575e+00 -3.482673e+00 -3.565305e+00 -4.958468e+00 -4.988086e+00 -6.488347e+00 -6.465474e+00 -8.060280e+00 -7.986930e+00 -9.663136e+00 -9.542863e+00 -1.128677e+01 -1.112469e+01 -1.292212e+01 -1.272491e+01 -1.456135e+01 -1.433716e+01 -1.619788e+01 -1.595623e+01 -1.782652e+01 -1.757806e+01 -1.944339e+01 -1.919963e+01 -2.104584e+01 -2.081877e+01 -2.263222e+01 -2.243392e+01 -2.420156e+01 -2.404373e+01 -2.575315e+01 -2.564659e+01 -2.728600e+01 -2.724017e+01 -2.879826e+01 -2.882082e+01 -3.028660e+01 -3.038306e+01 -3.174565e+01 -3.191900e+01 -3.316741e+01 -3.341793e+01 -3.454083e+01 -3.486590e+01 -3.585143e+01 -3.624551e+01 -3.708115e+01 -3.753580e+01 -3.820836e+01 -3.871241e+01 -3.920802e+01 -3.974783e+01 -4.005224e+01 -4.061210e+01 -4.071096e+01 -4.127360e+01 -4.115299e+01 -4.170024e+01 -4.134735e+01 -4.186093e+01 -4.126484e+01 -4.172720e+01 -4.087979e+01 -4.127504e+01 -4.017192e+01 -4.048678e+01 -3.912822e+01 -3.935282e+01 -3.774454e+01 -3.787319e+01 -3.602691e+01 -3.605852e+01 -3.399229e+01 -3.393063e+01 -3.166872e+01 -3.152227e+01 -2.909470e+01 -2.887621e+01 -2.631795e+01 -2.604365e+01 -2.339338e+01 -2.308203e+01 -2.038076e+01 -2.005244e+01 -1.734197e+01 -1.701684e+01 -1.433823e+01 -1.403538e+01 -1.142757e+01 -1.116396e+01 -8.662585e+00 -8.452220e+00 -6.088715e+00 -5.942112e+00 -3.743159e+00 -3.667052e+00 -1.654311e+00 -1.651646e+00 1.582228e-01 8.806660e-02 1.683160e+00 1.543972e+00 2.916729e+00 2.714947e+00 3.861626e+00 3.605755e+00 4.525859e+00 4.225879e+00 4.921575e+00 4.588371e+00 5.063945e+00 4.708802e+00 4.970169e+00 4.604336e+00 4.658629e+00 4.292967e+00 4.148200e+00 3.792914e+00 3.457738e+00 3.122172e+00 2.605698e+00 2.298195e+00 
1.707629e+00 1.436134e+00 5.089293e-01 2.777773e-01 -7.987304e-01 -9.844184e-01 -2.199227e+00 -2.335574e+00 -3.677263e+00 -3.761691e+00 -5.218371e+00 -5.249656e+00 -6.808922e+00 -6.787268e+00 -8.436181e+00 -8.363287e+00 -1.008839e+01 -9.967514e+00 -1.175488e+01 -1.159088e+01 -1.342621e+01 -1.322554e+01 -1.509430e+01 -1.486496e+01 -1.675255e+01 -1.650395e+01 -1.839588e+01 -1.813863e+01 -2.002070e+01 -1.976635e+01 -2.162483e+01 -2.138544e+01 -2.320715e+01 -2.299492e+01 -2.476734e+01 -2.459406e+01 -2.630532e+01 -2.618193e+01 -2.782070e+01 -2.775677e+01 -2.931217e+01 -2.931542e+01 -3.077683e+01 -3.085277e+01 -3.220957e+01 -3.236113e+01 -3.360253e+01 -3.382985e+01 -3.494463e+01 -3.524490e+01 -3.622125e+01 -3.658867e+01 -3.741407e+01 -3.783989e+01 -3.850110e+01 -3.897382e+01 -3.945696e+01 -3.996260e+01 -4.025338e+01 -4.077589e+01 -4.085999e+01 -4.138182e+01 -4.124540e+01 -4.174815e+01 -4.137856e+01 -4.184380e+01 -4.123035e+01 -4.164052e+01 -4.077543e+01 -4.111475e+01 -3.999407e+01 -4.024949e+01 -3.887404e+01 -3.903611e+01 -3.741222e+01 -3.747576e+01 -3.561586e+01 -3.558045e+01 -3.350336e+01 -3.337351e+01 -3.110426e+01 -3.088925e+01 -2.845864e+01 -2.817205e+01 -2.561574e+01 -2.527461e+01 -2.263190e+01 -2.225574e+01 -1.956813e+01 -1.917767e+01 -1.648732e+01 -1.610329e+01 -1.345145e+01 -1.309337e+01 -1.051900e+01 -1.020413e+01 -7.742752e+00 -7.485305e+00 -5.168110e+00 -4.978666e+00 -2.831976e+00 -2.717247e+00 -7.622748e-01 -7.251063e-01 1.022000e+00 9.823914e-01 2.510285e+00 2.397893e+00 3.699590e+00 3.521087e+00 4.593433e+00 4.357568e+00 5.200649e+00 4.917645e+00 5.534203e+00 5.215186e+00 5.610066e+00 5.266549e+00 5.446211e+00 5.089659e+00 5.061765e+00 4.703252e+00 4.476335e+00 4.126268e+00 3.709492e+00 3.377422e+00 2.780409e+00 2.474892e+00 
1.670524e+00 1.395550e+00 5.404281e-01 3.074305e-01 -6.997894e-01 -8.859319e-01 -2.034788e+00 -2.170463e+00 -3.450071e+00 -3.532980e+00 -4.931958e+00 -4.961172e+00 -6.467580e+00 -6.443601e+00 -8.044897e+00 -7.969726e+00 -9.652758e+00 -9.529944e+00 -1.128098e+01 -1.111566e+01 -1.292048e+01 -1.271937e+01 -1.456337e+01 -1.433469e+01 -1.620308e+01 -1.595646e+01 -1.783441e+01 -1.758064e+01 -1.945353e+01 -1.920430e+01 -2.105790e+01 -2.082541e+01 -2.264599e+01 -2.244253e+01 -2.421703e+01 -2.405450e+01 -2.577051e+01 -2.565993e+01 -2.730569e+01 -2.725671e+01 -2.882095e+01 -2.884142e+01 -3.031322e+01 -3.040876e+01 -3.177733e+01 -3.195103e+01 -3.320547e+01 -3.345764e+01 -3.458669e+01 -3.491472e+01 -3.590656e+01 -3.630487e+01 -3.714701e+01 -3.760707e+01 -3.828624e+01 -3.879675e+01 -3.929902e+01 -3.984616e+01 -4.015709e+01 -4.072489e+01 -4.082992e+01 -4.140083e+01 -4.128575e+01 -4.184126e+01 -4.149290e+01 -4.201435e+01 -4.142141e+01 -4.189083e+01 -4.104477e+01 -4.144590e+01 -4.034195e+01 -4.066112e+01 -3.929919e+01 -3.952624e+01 -3.791180e+01 -3.804081e+01 -3.618546e+01 -3.621527e+01 -3.413708e+01 -3.407149e+01 -3.179496e+01 -3.164264e+01 -2.919818e+01 -2.897221e+01 -2.639530e+01 -2.611237e+01 -2.344235e+01 -2.312173e+01 -2.040031e+01 -2.006263e+01 -1.733231e+01 -1.699828e+01 -1.430079e+01 -1.398998e+01 -1.136480e+01 -1.109455e+01 -8.577749e+00 -8.362352e+00 -5.985650e+00 -5.835756e+00 -3.625978e+00 -3.548342e+00 -1.527158e+00 -1.524640e+00 2.913906e-01 2.195874e-01 1.818744e+00 1.676644e+00 3.051605e+00 2.845916e+00 3.993205e+00 3.732712e+00 4.652106e+00 4.347056e+00 5.040984e+00 4.702507e+00 5.175491e+00 4.815081e+00 5.073238e+00 4.702315e+00 4.752941e+00 4.382502e+00 4.233734e+00 3.874085e+00 3.534658e+00 3.195213e+00 2.674292e+00 2.363443e+00 
1.828078e+00 1.550783e+00 6.134570e-01 3.776699e-01 -7.093571e-01 -8.984719e-01 -2.124255e+00 -2.262777e+00 -3.615961e+00 -3.701261e+00 -5.170011e+00 -5.200811e+00 -6.772758e+00 -6.749209e+00 -8.411419e+00 -8.335180e+00 -1.007416e+01 -9.948472e+00 -1.175022e+01 -1.157996e+01 -1.343007e+01 -1.322176e+01 -1.510555e+01 -1.486734e+01 -1.677002e+01 -1.651152e+01 -1.841844e+01 -1.815057e+01 -2.004734e+01 -1.978199e+01 -2.165475e+01 -2.140440e+01 -2.323988e+01 -2.301718e+01 -2.480282e+01 -2.462003e+01 -2.634397e+01 -2.621246e+01 -2.786347e+01 -2.779321e+01 -2.936054e+01 -2.935960e+01 -3.083278e+01 -3.090693e+01 -3.227552e+01 -3.242789e+01 -3.368125e+01 -3.391206e+01 -3.503911e+01 -3.534556e+01 -3.633455e+01 -3.671073e+01 -3.754914e+01 -3.798612e+01 -3.866060e+01 -3.914659e+01 -3.964306e+01 -4.016367e+01 -4.046748e+01 -4.100617e+01 -4.110253e+01 -4.164112e+01 -4.151561e+01 -4.203500e+01 -4.167423e+01 -4.215523e+01 -4.154773e+01 -4.197193e+01 -4.110910e+01 -4.145993e+01 -4.033704e+01 -4.060070e+01 -3.921786e+01 -3.938430e+01 -3.774738e+01 -3.781101e+01 -3.593220e+01 -3.589245e+01 -3.379067e+01 -3.365216e+01 -3.135292e+01 -3.112536e+01 -2.866025e+01 -2.835792e+01 -2.576370e+01 -2.540456e+01 -2.272185e+01 -2.232649e+01 -1.959823e+01 -1.918851e+01 -1.645826e+01 -1.605600e+01 -1.336634e+01 -1.299203e+01 -1.038302e+01 -1.005470e+01 -7.562708e+00 -7.295110e+00 -4.951873e+00 -4.755859e+00 -2.587958e+00 -2.470265e+00 -4.989109e-01 -4.621898e-01 1.296692e+00 1.253593e+00 2.789039e+00 2.670600e+00 3.976121e+00 3.789566e+00 4.862551e+00 4.617200e+00 5.458290e+00 5.164912e+00 5.777376e+00 5.447585e+00 5.836741e+00 5.482473e+00 5.655183e+00 5.288245e+00 5.252494e+00 4.884223e+00 4.648789e+00 4.289789e+00 3.864001e+00 3.523958e+00 2.917539e+00 2.605103e+00 
1.851935e+00 1.568598e+00 6.990833e-01 4.595061e-01 -5.626984e-01 -7.535763e-01 -1.918114e+00 -2.056618e+00 -3.352722e+00 -3.436488e+00 -4.852888e+00 -4.880914e+00 -6.405755e+00 -6.378478e+00 -7.999257e+00 -7.918626e+00 -9.622169e+00 -9.491722e+00 -1.126421e+01 -1.108913e+01 -1.291618e+01 -1.270329e+01 -1.457009e+01 -1.432784e+01 -1.621931e+01 -1.595765e+01 -1.785867e+01 -1.758883e+01 -1.948449e+01 -1.921868e+01 -2.109449e+01 -2.084551e+01 -2.268756e+01 -2.246837e+01 -2.426348e+01 -2.408664e+01 -2.582240e+01 -2.569959e+01 -2.736432e+01 -2.730577e+01 -2.888837e+01 -2.890244e+01 -3.039223e+01 -3.048492e+01 -3.187138e+01 -3.204605e+01 -3.331854e+01 -3.357565e+01 -3.472313e+01 -3.506009e+01 -3.607089e+01 -3.648199e+01 -3.734363e+01 -3.782009e+01 -3.851922e+01 -3.904932e+01 -3.957172e+01 -4.014107e+01 -4.047182e+01 -4.106375e+01 -4.118760e+01 -4.178367e+01 -4.168552e+01 -4.226620e+01 -4.193183e+01 -4.247728e+01 -4.189418e+01 -4.238523e+01 -4.154361e+01 -4.196276e+01 -4.085662e+01 -4.118906e+01 -3.981725e+01 -4.005187e+01 -3.841905e+01 -3.854927e+01 -3.666664e+01 -3.669099e+01 -3.457673e+01 -3.449916e+01 -3.217838e+01 -3.200815e+01 -2.951244e+01 -2.926362e+01 -2.663011e+01 -2.632077e+01 -2.359076e+01 -2.324178e+01 -2.045917e+01 -2.009288e+01 -1.730235e+01 -1.694113e+01 -1.418640e+01 -1.385131e+01 -1.117356e+01 -1.088313e+01 -8.319745e+00 -8.089085e+00 -5.672632e+00 -5.512826e+00 -3.270541e+00 -3.188392e+00 -1.141957e+00 -1.140036e+00 6.943149e-01 6.173522e-01 2.228476e+00 2.077387e+00 3.458702e+00 3.241027e+00 4.389883e+00 4.115263e+00 5.032275e+00 4.711779e+00 5.400174e+00 5.045671e+00 5.510687e+00 5.134306e+00 5.382669e+00 4.996346e+00 5.035844e+00 4.650976e+00 4.490116e+00 4.117302e+00 3.765073e+00 3.413936e+00 2.879649e+00 2.558725e+00 
2.068071e+00 1.779118e+00 8.215814e-01 5.764730e-01 -5.315421e-01 -7.275636e-01 -1.975242e+00 -2.118170e+00 -3.494296e+00 -3.581400e+00 -5.074262e+00 -5.104153e+00 -6.701464e+00 -6.674175e+00 -8.363020e+00 -8.280114e+00 -1.004694e+01 -9.911604e+00 -1.174226e+01 -1.155940e+01 -1.343923e+01 -1.321552e+01 -1.512953e+01 -1.487337e+01 -1.680643e+01 -1.652787e+01 -1.846493e+01 -1.817546e+01 -2.010179e+01 -1.981404e+01 -2.171547e+01 -2.144277e+01 -2.330585e+01 -2.306176e+01 -2.487383e+01 -2.467156e+01 -2.642082e+01 -2.627266e+01 -2.794805e+01 -2.786480e+01 -2.945584e+01 -2.944626e+01 -3.094282e+01 -3.101324e+01 -3.240526e+01 -3.255917e+01 -3.383634e+01 -3.407416e+01 -3.522568e+01 -3.554460e+01 -3.655889e+01 -3.695282e+01 -3.781737e+01 -3.827700e+01 -3.897826e+01 -3.949121e+01 -4.001468e+01 -4.056578e+01 -4.089614e+01 -4.146781e+01 -4.158933e+01 -4.216218e+01 -4.205918e+01 -4.261267e+01 -4.227034e+01 -4.278367e+01 -4.218890e+01 -4.264199e+01 -4.178447e+01 -4.215906e+01 -4.103240e+01 -4.131316e+01 -3.991604e+01 -4.009164e+01 -3.842885e+01 -3.849283e+01 -3.657609e+01 -3.652751e+01 -3.437591e+01 -3.421966e+01 -3.185962e+01 -3.160627e+01 -2.907103e+01 -2.873630e+01 -2.606493e+01 -2.566870e+01 -2.290455e+01 -2.246965e+01 -1.965863e+01 -1.920927e+01 -1.639790e+01 -1.595818e+01 -1.319175e+01 -1.278417e+01 -1.010502e+01 -9.749214e+00 -7.195407e+00 -6.907194e+00 -4.511574e+00 -4.302356e+00 -2.091997e+00 -1.968531e+00 3.540646e-02 7.090298e-02 1.852987e+00 1.802452e+00 3.352545e+00 3.221488e+00 4.534135e+00 4.330934e+00 5.404663e+00 5.139815e+00 5.976413e+00 5.661806e+00 6.265620e+00 5.913872e+00 6.291184e+00 5.915076e+00 6.073562e+00 5.685587e+00 5.633880e+00 5.245896e+00 4.993257e+00 4.616247e+00 4.172334e+00 3.816244e+00 3.190965e+00 2.864619e+00 
2.152722e+00 1.855353e+00 9.619155e-01 7.112895e-01 -3.357863e-01 -5.346398e-01 -1.725194e+00 -1.868504e+00 -3.191989e+00 -3.277276e+00 -4.722631e+00 -4.748767e+00 -6.304296e+00 -6.271590e+00 -7.924872e+00 -7.835170e+00 -9.573009e+00 -9.429804e+00 -1.123824e+01 -1.104676e+01 -1.291113e+01 -1.267839e+01 -1.458349e+01 -1.431829e+01 -1.624856e+01 -1.596139e+01 -1.790120e+01 -1.760400e+01 -1.953792e+01 -1.924381e+01 -2.115688e+01 -2.087972e+01 -2.275768e+01 -2.251155e+01 -2.434104e+01 -2.413967e+01 -2.590827e+01 -2.576445e+01 -2.746061e+01 -2.738559e+01 -2.899855e+01 -2.900153e+01 -3.052104e+01 -3.060871e+01 -3.202471e+01 -3.220089e+01 -3.350322e+01 -3.376861e+01 -3.494666e+01 -3.529868e+01 -3.634106e+01 -3.677381e+01 -3.766813e+01 -3.817241e+01 -3.890516e+01 -3.946857e+01 -4.002507e+01 -4.063230e+01 -4.099686e+01 -4.163004e+01 -4.178626e+01 -4.242545e+01 -4.235673e+01 -4.298065e+01 -4.267094e+01 -4.325777e+01 -4.269249e+01 -4.322095e+01 -4.238810e+01 -4.283854e+01 -4.172995e+01 -4.208556e+01 -4.069815e+01 -4.094613e+01 -3.928310e+01 -3.941566e+01 -3.748746e+01 -3.750256e+01 -3.532746e+01 -3.522927e+01 -3.283344e+01 -3.263220e+01 -3.004926e+01 -2.976082e+01 -2.703076e+01 -2.667559e+01 -2.384321e+01 -2.344502e+01 -2.055800e+01 -2.014215e+01 -1.724899e+01 -1.684077e+01 -1.398870e+01 -1.361177e+01 -1.084492e+01 -1.051988e+01 -7.877832e+00 -7.621190e+00 -5.137958e+00 -4.961507e+00 -2.664966e+00 -2.575541e+00 -4.873146e-01 -4.869353e-01 1.377373e+00 1.291057e+00 2.921359e+00 2.754416e+00 4.145453e+00 3.906892e+00 5.057466e+00 4.758424e+00 5.670608e+00 5.323569e+00 6.001965e+00 5.620065e+00 6.071134e+00 5.667569e+00 5.899070e+00 5.486637e+00 5.507178e+00 5.097927e+00 4.916628e+00 4.521633e+00 4.147892e+00 3.777102e+00 3.220464e+00 2.882626e+00 
2.425754e+00 2.119183e+00 1.131421e+00 8.722093e-01 -2.671493e-01 -4.736616e-01 -1.754029e+00 -1.903715e+00 -3.314119e+00 -3.404094e+00 -4.933040e+00 -4.961730e+00 -6.597082e+00 -6.564323e+00 -8.293214e+00 -8.200389e+00 -1.000918e+01 -9.859367e+00 -1.173369e+01 -1.153179e+01 -1.345661e+01 -1.320946e+01 -1.516930e+01 -1.488570e+01 -1.686483e+01 -1.655546e+01 -1.853821e+01 -1.821547e+01 -2.018653e+01 -1.986416e+01 -2.180888e+01 -2.150154e+01 -2.340613e+01 -2.312882e+01 -2.498050e+01 -2.474793e+01 -2.653498e+01 -2.636085e+01 -2.807251e+01 -2.796892e+01 -2.959514e+01 -2.957196e+01 -3.110319e+01 -3.116758e+01 -3.259435e+01 -3.275038e+01 -3.406298e+01 -3.431135e+01 -3.549943e+01 -3.583735e+01 -3.688964e+01 -3.731073e+01 -3.821478e+01 -3.870917e+01 -3.945120e+01 -4.000565e+01 -4.057053e+01 -4.116868e+01 -4.154011e+01 -4.216287e+01 -4.232365e+01 -4.294974e+01 -4.288237e+01 -4.348904e+01 -4.317641e+01 -4.374037e+01 -4.316683e+01 -4.366536e+01 -4.281786e+01 -4.323002e+01 -4.209948e+01 -4.240747e+01 -4.099021e+01 -4.118061e+01 -3.947964e+01 -3.954455e+01 -3.757068e+01 -3.750855e+01 -3.528105e+01 -3.509709e+01 -3.264378e+01 -3.234993e+01 -2.970667e+01 -2.932092e+01 -2.653040e+01 -2.607574e+01 -2.318571e+01 -2.268852e+01 -1.974965e+01 -1.923795e+01 -1.630150e+01 -1.580302e+01 -1.291854e+01 -1.245899e+01 -9.672400e+00 -9.273921e+00 -6.625924e+00 -6.306005e+00 -3.831086e+00 -3.601922e+00 -1.327823e+00 -1.196123e+00 8.561830e-01 8.889687e-01 2.704931e+00 2.642059e+00 4.212921e+00 4.061582e+00 5.383577e+00 5.154005e+00 6.227484e+00 5.932045e+00 6.760603e+00 6.412939e+00 7.002610e+00 6.616886e+00 6.975436e+00 6.565727e+00 6.702072e+00 6.281890e+00 6.205641e+00 5.787608e+00 5.508743e+00 5.104378e+00 4.633025e+00 4.252631e+00 3.598956e+00 3.251580e+00 
2.570456e+00 2.253263e+00 1.326491e+00 1.060234e+00 -2.142254e-02 -2.316126e-01 -1.458318e+00 -1.608546e+00 -2.970110e+00 -3.057732e+00 -4.543432e+00 -4.567125e+00 -6.165533e+00 -6.125393e+00 -7.824240e+00 -7.721924e+00 -9.508005e+00 -9.346892e+00 -1.120605e+01 -1.099138e+01 -1.290856e+01 -1.264758e+01 -1.460699e+01 -1.430894e+01 -1.629431e+01 -1.597043e+01 -1.796531e+01 -1.762859e+01 -1.961674e+01 -1.928162e+01 -2.124736e+01 -2.092922e+01 -2.285778e+01 -2.257237e+01 -2.445007e+01 -2.421285e+01 -2.602724e+01 -2.585265e+01 -2.759245e+01 -2.749322e+01 -2.914816e+01 -2.913475e+01 -3.069523e+01 -3.077530e+01 -3.223205e+01 -3.241007e+01 -3.375368e+01 -3.403070e+01 -3.525123e+01 -3.562471e+01 -3.671124e+01 -3.717501e+01 -3.811538e+01 -3.865964e+01 -3.944017e+01 -4.005162e+01 -4.065705e+01 -4.131911e+01 -4.173267e+01 -4.242576e+01 -4.262944e+01 -4.333153e+01 -4.330659e+01 -4.399386e+01 -4.372158e+01 -4.436934e+01 -4.383206e+01 -4.441589e+01 -4.359830e+01 -4.409533e+01 -4.298594e+01 -4.337632e+01 -4.196905e+01 -4.223736e+01 -4.053308e+01 -4.066964e+01 -3.867747e+01 -3.867933e+01 -3.641755e+01 -3.628906e+01 -3.378535e+01 -3.353824e+01 -3.082920e+01 -3.048195e+01 -2.761189e+01 -2.718861e+01 -2.420760e+01 -2.373630e+01 -2.069780e+01 -2.020843e+01 -1.716668e+01 -1.668898e+01 -1.369645e+01 -1.325797e+01 -1.036315e+01 -9.987555e+00 -7.233254e+00 -6.939097e+00 -4.361308e+00 -4.161338e+00 -1.788740e+00 -1.689720e+00 4.563099e-01 4.533000e-01 2.358243e+00 2.257161e+00 3.912611e+00 3.721559e+00 5.124305e+00 4.854526e+00 6.005566e+00 5.670437e+00 6.574018e+00 6.188111e+00 6.850850e+00 6.429133e+00 6.859263e+00 6.416455e+00 6.623209e+00 6.173303e+00 6.166446e+00 5.722382e+00 5.511876e+00 5.085347e+00 4.681143e+00 4.282505e+00 3.694437e+00 3.332687e+00 
2.898240e+00 2.567964e+00 1.540105e+00 1.261882e+00 8.102808e-02 -1.397080e-01 -1.463339e+00 -1.622318e+00 -3.078142e+00 -3.172269e+00 -4.749144e+00 -4.776568e+00 -6.462612e+00 -6.422858e+00 -8.205310e+00 -8.099456e+00 -9.964594e+00 -9.795487e+00 -1.172863e+01 -1.150110e+01 -1.348671e+01 -1.320775e+01 -1.522961e+01 -1.490849e+01 -1.695002e+01 -1.659827e+01 -1.864287e+01 -1.827408e+01 -2.030558e+01 -1.993508e+01 -2.193808e+01 -2.158239e+01 -2.354260e+01 -2.321879e+01 -2.512324e+01 -2.484812e+01 -2.668521e+01 -2.647453e+01 -2.823392e+01 -2.810161e+01 -2.977396e+01 -2.973143e+01 -3.130802e+01 -3.136359e+01 -3.283589e+01 -3.299441e+01 -3.435359e+01 -3.461615e+01 -3.585262e+01 -3.621642e+01 -3.731940e+01 -3.777772e+01 -3.873494e+01 -3.927718e+01 -4.007459e+01 -4.068638e+01 -4.130814e+01 -4.197156e+01 -4.240004e+01 -4.309396e+01 -4.331007e+01 -4.401066e+01 -4.399432e+01 -4.467579e+01 -4.440675e+01 -4.504233e+01 -4.450127e+01 -4.506447e+01 -4.423439e+01 -4.470043e+01 -4.356828e+01 -4.391571e+01 -4.247423e+01 -4.268653e+01 -4.093595e+01 -4.100300e+01 -3.895260e+01 -3.887183e+01 -3.654094e+01 -3.631796e+01 -3.373630e+01 -3.338492e+01 -3.059206e+01 -3.013359e+01 -2.717750e+01 -2.663941e+01 -2.357427e+01 -2.298820e+01 -1.987163e+01 -1.927116e+01 -1.616126e+01 -1.557944e+01 -1.253197e+01 -1.199912e+01 -9.065039e+00 -8.606890e+00 -5.830559e+00 -5.466916e+00 -2.884976e+00 -2.629033e+00 -2.699670e-01 -1.282039e-01 1.987505e+00 2.014901e+00 3.874156e+00 3.792476e+00 5.388645e+00 5.207598e+00 6.539428e+00 6.271969e+00 7.342462e+00 7.003648e+00 7.818984e+00 7.424933e+00 7.993515e+00 7.560536e+00 7.892186e+00 7.436105e+00 7.541427e+00 7.077106e+00 6.967015e+00 6.508051e+00 6.193457e+00 5.752022e+00 5.243645e+00 4.830446e+00 4.138744e+00 3.763051e+00 
3.101572e+00 2.758626e+00 1.789320e+00 1.502716e+00 3.770626e-01 1.520149e-01 -1.120650e+00 -1.280105e+00 -2.690136e+00 -2.781142e+00 -4.318335e+00 -4.339277e+00 -5.992633e+00 -5.943276e+00 -7.700785e+00 -7.582462e+00 -9.430957e+00 -9.246802e+00 -1.117189e+01 -1.092707e+01 -1.291317e+01 -1.261512e+01 -1.464562e+01 -1.430413e+01 -1.636172e+01 -1.598896e+01 -1.805603e+01 -1.766637e+01 -1.972549e+01 -1.933513e+01 -2.136958e+01 -2.099602e+01 -2.299020e+01 -2.265152e+01 -2.459132e+01 -2.430534e+01 -2.617828e+01 -2.596171e+01 -2.775691e+01 -2.762453e+01 -2.933243e+01 -2.929641e+01 -3.090843e+01 -3.097770e+01 -3.248570e+01 -3.266562e+01 -3.406133e+01 -3.435339e+01 -3.562788e+01 -3.602958e+01 -3.717272e+01 -3.767754e+01 -3.867756e+01 -3.927500e+01 -4.011813e+01 -4.079377e+01 -4.146410e+01 -4.219972e+01 -4.267915e+01 -4.345306e+01 -4.372151e+01 -4.450891e+01 -4.454481e+01 -4.531852e+01 -4.509956e+01 -4.583099e+01 -4.533526e+01 -4.599564e+01 -4.520316e+01 -4.576514e+01 -4.465963e+01 -4.509900e+01 -4.366994e+01 -4.396748e+01 -4.221218e+01 -4.235535e+01 -4.028079e+01 -4.026515e+01 -3.788935e+01 -3.771943e+01 -3.507198e+01 -3.476146e+01 -3.188311e+01 -3.145419e+01 -2.839536e+01 -2.787731e+01 -2.469560e+01 -2.412262e+01 -2.087974e+01 -2.028835e+01 -1.704671e+01 -1.647300e+01 -1.329243e+01 -1.276947e+01 -9.704469e+00 -9.260178e+00 -6.357874e+00 -6.013546e+00 -3.312456e+00 -3.081990e+00 -6.116145e-01 -5.014617e-01 1.717459e+00 1.707759e+00 3.662475e+00 3.539314e+00 5.223963e+00 4.998426e+00 6.412776e+00 6.099304e+00 7.247470e+00 6.862575e+00 7.751823e+00 7.312941e+00 7.952638e+00 7.477197e+00 7.877948e+00 7.382659e+00 7.555636e+00 7.056011e+00 7.012469e+00 6.522534e+00 6.273492e+00 5.805656e+00 5.361726e+00 4.926774e+00 4.298103e+00 3.905264e+00 
3.481488e+00 3.121302e+00 2.043731e+00 1.741454e+00 5.092850e-01 2.704069e-01 -1.106708e+00 -1.277767e+00 -2.789839e+00 -2.889713e+00 -4.526141e+00 -4.552591e+00 -6.301905e+00 -6.253980e+00 -8.103625e+00 -7.981908e+00 -9.918102e+00 -9.725015e+00 -1.173271e+01 -1.147284e+01 -1.353579e+01 -1.321622e+01 -1.531721e+01 -1.494772e+01 -1.706895e+01 -1.666205e+01 -1.878562e+01 -1.835649e+01 -2.046492e+01 -2.003097e+01 -2.210779e+01 -2.168807e+01 -2.371825e+01 -2.333261e+01 -2.530290e+01 -2.497102e+01 -2.687001e+01 -2.661042e+01 -2.842839e+01 -2.825750e+01 -2.998611e+01 -2.991735e+01 -3.154915e+01 -3.159238e+01 -3.312019e+01 -3.328124e+01 -3.469751e+01 -3.497795e+01 -3.627422e+01 -3.667126e+01 -3.783754e+01 -3.834402e+01 -3.936840e+01 -3.997282e+01 -4.084111e+01 -4.152776e+01 -4.222328e+01 -4.297234e+01 -4.347592e+01 -4.426374e+01 -4.455387e+01 -4.535339e+01 -4.540673e+01 -4.618821e+01 -4.598034e+01 -4.671240e+01 -4.621906e+01 -4.687010e+01 -4.606882e+01 -4.660872e+01 -4.548084e+01 -4.588304e+01 -4.441604e+01 -4.465955e+01 -4.284947e+01 -4.292088e+01 -4.077446e+01 -4.066956e+01 -3.820590e+01 -3.793065e+01 -3.518184e+01 -3.475255e+01 -3.176320e+01 -3.120576e+01 -2.803122e+01 -2.737938e+01 -2.408285e+01 -2.337568e+01 -2.002457e+01 -1.930346e+01 -1.596545e+01 -1.527092e+01 -1.201030e+01 -1.137907e+01 -8.253624e+00 -7.716298e+00 -4.775133e+00 -4.354539e+00 -1.636916e+00 -1.347382e+00 1.117590e+00 1.270180e+00 3.463062e+00 3.480538e+00 5.390545e+00 5.281232e+00 6.904882e+00 6.682116e+00 8.021742e+00 7.702302e+00 8.764587e+00 8.367221e+00 9.161858e+00 8.706006e+00 9.244550e+00 8.749324e+00 9.044278e+00 8.527729e+00 8.591851e+00 8.070492e+00 7.916322e+00 7.404884e+00 7.044455e+00 6.555814e+00 6.000514e+00 5.545755e+00 4.806324e+00 4.394875e+00 
3.741219e+00 3.366478e+00 2.345788e+00 2.033990e+00 8.553826e-01 6.117677e-01 -7.161608e-01 -8.874210e-01 -2.355826e+00 -2.451601e+00 -4.051052e+00 -4.069323e+00 -5.789470e+00 -5.729493e+00 -7.558766e+00 -7.421340e+00 -9.346698e+00 -9.134497e+00 -1.114129e+01 -1.085923e+01 -1.293121e+01 -1.258680e+01 -1.470626e+01 -1.430984e+01 -1.645803e+01 -1.602290e+01 -1.818054e+01 -1.772279e+01 -1.987075e+01 -1.940891e+01 -2.152893e+01 -2.108329e+01 -2.315863e+01 -2.275036e+01 -2.476626e+01 -2.441637e+01 -2.636032e+01 -2.608857e+01 -2.795025e+01 -2.777414e+01 -2.954507e+01 -2.947898e+01 -3.115202e+01 -3.120654e+01 -3.277520e+01 -3.295674e+01 -3.441442e+01 -3.472498e+01 -3.606425e+01 -3.650139e+01 -3.771329e+01 -3.827009e+01 -3.934353e+01 -4.000866e+01 -4.092999e+01 -4.168772e+01 -4.244037e+01 -4.327064e+01 -4.383499e+01 -4.471351e+01 -4.506701e+01 -4.596563e+01 -4.608313e+01 -4.697042e+01 -4.682498e+01 -4.766726e+01 -4.723136e+01 -4.799410e+01 -4.724138e+01 -4.789110e+01 -4.679859e+01 -4.730503e+01 -4.585582e+01 -4.619433e+01 -4.438040e+01 -4.453427e+01 -4.235915e+01 -4.232160e+01 -3.980248e+01 -3.957798e+01 -3.674677e+01 -3.635154e+01 -3.325453e+01 -3.271582e+01 -2.941184e+01 -2.876610e+01 -2.532327e+01 -2.461335e+01 -2.110489e+01 -2.037650e+01 -1.687612e+01 -1.617418e+01 -1.275177e+01 -1.211693e+01 -8.834991e+00 -8.300889e+00 -5.212080e+00 -4.803518e+00 -1.949320e+00 -1.681450e+00 9.080244e-01 1.029550e+00 3.334905e+00 3.312994e+00 5.324281e+00 5.168937e+00 6.884034e+00 6.610599e+00 8.033478e+00 7.660833e+00 8.799882e+00 8.348778e+00 9.215299e+00 8.706948e+00 9.313904e+00 8.768886e+00 9.129915e+00 8.567413e+00 8.696109e+00 8.133441e+00 8.042869e+00 7.495278e+00 7.197697e+00 6.678327e+00 6.185074e+00 5.705080e+00 5.026584e+00 4.595325e+00 
4.170159e+00 3.773794e+00 2.637314e+00 2.305831e+00 1.013049e+00 7.519040e-01 -6.883707e-01 -8.746272e-01 -2.453281e+00 -2.560949e+00 -4.268191e+00 -4.294494e+00 -6.119497e+00 -6.062783e+00 -7.993366e+00 -7.853438e+00 -9.875826e+00 -9.654375e+00 -1.175308e+01 -1.145419e+01 -1.361207e+01 -1.324267e+01 -1.544119e+01 -1.501151e+01 -1.723115e+01 -1.675488e+01 -1.897587e+01 -1.847010e+01 -2.067311e+01 -2.015795e+01 -2.232496e+01 -2.182278e+01 -2.393768e+01 -2.347205e+01 -2.552116e+01 -2.511561e+01 -2.708778e+01 -2.676453e+01 -2.865098e+01 -2.842967e+01 -3.022352e+01 -3.012022e+01 -3.181579e+01 -3.184226e+01 -3.343430e+01 -3.359757e+01 -3.508040e+01 -3.538257e+01 -3.674933e+01 -3.718757e+01 -3.842949e+01 -3.899611e+01 -4.010195e+01 -4.078447e+01 -4.174005e+01 -4.252121e+01 -4.330906e+01 -4.416690e+01 -4.476612e+01 -4.567402e+01 -4.606029e+01 -4.698731e+01 -4.713326e+01 -4.804474e+01 -4.792067e+01 -4.877931e+01 -4.835451e+01 -4.912195e+01 -4.836655e+01 -4.900551e+01 -4.789304e+01 -4.836985e+01 -4.688027e+01 -4.716762e+01 -4.529065e+01 -4.537030e+01 -4.310862e+01 -4.297374e+01 -4.034551e+01 -4.000221e+01 -3.704236e+01 -3.651016e+01 -3.327001e+01 -3.258098e+01 -2.912599e+01 -2.832255e+01 -2.472846e+01 -2.385997e+01 -2.020776e+01 -1.932647e+01 -1.569698e+01 -1.485370e+01 -1.132273e+01 -1.056291e+01 -7.197189e+00 -6.557862e+00 -3.412465e+00 -2.920257e+00 -3.736905e-02 2.922667e-01 2.883324e+00 3.045770e+00 5.327552e+00 5.327799e+00 7.293108e+00 7.143934e+00 8.793856e+00 8.513726e+00 9.855595e+00 9.466539e+00 1.051202e+01 1.003772e+01 1.080112e+01 1.026533e+01 1.076228e+01 1.018764e+01 1.043399e+01 9.841252e+00 9.852391e+00 9.259969e+00 9.050361e+00 8.474191e+00 8.057133e+00 7.510748e+00 6.898318e+00 6.393051e+00 5.596193e+00 5.141465e+00 
4.483076e+00 4.070468e+00 2.990090e+00 2.648161e+00 1.408327e+00 1.142234e+00 -2.495201e-01 -4.355034e-01 -1.971475e+00 -2.073887e+00 -3.745764e+00 -3.762020e+00 -5.560429e+00 -5.489038e+00 -7.403105e+00 -7.244019e+00 -9.261004e+00 -9.016093e+00 -1.112112e+01 -1.079472e+01 -1.297071e+01 -1.257017e+01 -1.479798e+01 -1.433412e+01 -1.659303e+01 -1.608039e+01 -1.834877e+01 -1.780557e+01 -2.006187e+01 -1.950959e+01 -2.173333e+01 -2.119591e+01 -2.336867e+01 -2.287138e+01 -2.497750e+01 -2.454559e+01 -2.657252e+01 -2.622977e+01 -2.816800e+01 -2.793546e+01 -2.977809e+01 -2.967293e+01 -3.141490e+01 -3.144973e+01 -3.308689e+01 -3.326936e+01 -3.479748e+01 -3.513014e+01 -3.654393e+01 -3.702431e+01 -3.831653e+01 -3.893726e+01 -4.009798e+01 -4.084683e+01 -4.186276e+01 -4.272263e+01 -4.357671e+01 -4.452550e+01 -4.519651e+01 -4.620708e+01 -4.666961e+01 -4.770984e+01 -4.793450e+01 -4.896779e+01 -4.892186e+01 -4.990810e+01 -4.955680e+01 -5.045395e+01 -4.976244e+01 -5.052883e+01 -4.946492e+01 -5.006197e+01 -4.859965e+01 -4.899509e+01 -4.711838e+01 -4.728940e+01 -4.499637e+01 -4.493250e+01 -4.223845e+01 -4.194367e+01 -3.888308e+01 -3.837674e+01 -3.500320e+01 -3.431929e+01 -3.070317e+01 -2.988803e+01 -2.611201e+01 -2.522047e+01 -2.137372e+01 -2.046428e+01 -1.663602e+01 -1.576575e+01 -1.203941e+01 -1.125924e+01 -7.707769e+00 -7.058882e+00 -3.741754e+00 -3.253289e+00 -2.152169e-01 9.652359e-02 2.825411e+00 2.956430e+00 5.359275e+00 5.316326e+00 7.387519e+00 7.185894e+00 8.928719e+00 8.589757e+00 1.001401e+01 9.562650e+00 1.068245e+01 1.014506e+01 1.097698e+01 1.037961e+01 1.094117e+01 1.030831e+01 1.061690e+01 9.970678e+00 1.004280e+01 9.402552e+00 9.253365e+00 8.635591e+00 8.278723e+00 7.697196e+00 7.144708e+00 6.610777e+00 5.873277e+00 5.396218e+00 
4.957448e+00 4.518703e+00 3.314772e+00 2.948894e+00 1.586976e+00 1.299231e+00 -2.130708e-01 -4.180566e-01 -2.072883e+00 -2.191013e+00 -3.979755e+00 -4.007528e+00 -5.920337e+00 -5.855088e+00 -7.880417e+00 -7.720756e+00 -9.844980e+00 -9.591396e+00 -1.179858e+01 -1.145416e+01 -1.372603e+01 -1.329723e+01 -1.561345e+01 -1.511073e+01 -1.744947e+01 -1.688775e+01 -1.922657e+01 -1.862527e+01 -2.094221e+01 -2.032487e+01 -2.259961e+01 -2.199291e+01 -2.420780e+01 -2.364026e+01 -2.578099e+01 -2.528126e+01 -2.733708e+01 -2.693223e+01 -2.889570e+01 -2.860959e+01 -3.047592e+01 -3.032794e+01 -3.209400e+01 -3.209822e+01 -3.376146e+01 -3.392624e+01 -3.548359e+01 -3.581153e+01 -3.725840e+01 -3.774653e+01 -3.907591e+01 -3.971591e+01 -4.091768e+01 -4.169597e+01 -4.275626e+01 -4.365402e+01 -4.455474e+01 -4.554773e+01 -4.626619e+01 -4.732456e+01 -4.783332e+01 -4.892163e+01 -4.918859e+01 -5.026624e+01 -5.025524e+01 -5.127750e+01 -5.094957e+01 -5.186936e+01 -5.118486e+01 -5.195529e+01 -5.087700e+01 -5.145468e+01 -4.995181e+01 -5.030051e+01 -4.835338e+01 -4.844779e+01 -4.605255e+01 -4.588167e+01 -4.305424e+01 -4.262385e+01 -3.940233e+01 -3.873594e+01 -3.518047e+01 -3.431843e+01 -3.050835e+01 -2.950496e+01 -2.553339e+01 -2.445227e+01 -2.041897e+01 -1.932739e+01 -1.533124e+01 -1.429410e+01 -1.042626e+01 -9.500780e+00 -5.839539e+00 -5.071168e+00 -1.678793e+00 -1.098753e+00 1.979609e+00 2.355014e+00 5.090743e+00 5.259306e+00 7.638494e+00 7.610102e+00 9.631018e+00 9.424931e+00 1.109519e+01 1.073706e+01 1.207086e+01 1.158982e+01 1.260543e+01 1.203166e+01 1.274937e+01 1.211209e+01 1.255259e+01 1.187876e+01 1.206201e+01 1.137550e+01 1.131998e+01 1.064126e+01 1.036359e+01 9.709768e+00 9.224577e+00 8.609632e+00 7.929627e+00 7.364869e+00 6.501030e+00 5.995573e+00 