# vtk DataFile Version 2.0
Comment goes here
ASCII

DATASET STRUCTURED_POINTS
FIELD FieldData 1
TIME 1 1 double
0.20000000
DIMENSIONS    128   128   1

ORIGIN    0.000   0.000   0.000
SPACING   0.039062 0.039062   1.000

POINT_DATA   16384
SCALARS P double
LOOKUP_TABLE default

2.407176e+00 2.612009e+00 2.024145e+00 2.212833e+00 1.579651e+00 1.750546e+00 1.077566e+00 1.229224e+00 5.221094e-01 6.533068e-01 -8.214247e-02 2.759547e-02 -7.302613e-01 -6.427480e-01 -1.416965e+00 -1.352204e+00 -2.136622e+00 -2.094903e+00 -2.883262e+00 -2.864637e+00 -3.650598e+00 -3.654885e+00 -4.432049e+00 -4.458841e+00 -5.220783e+00 -5.269461e+00 -6.009767e+00 -6.079508e+00 -6.791820e+00 -6.881620e+00 -7.559683e+00 -7.668374e+00 -8.306092e+00 -8.432362e+00 -9.023855e+00 -9.166278e+00 -9.705938e+00 -9.862992e+00 -1.034555e+01 -1.051564e+01 -1.093621e+01 -1.111772e+01 -1.147186e+01 -1.166314e+01 -1.194693e+01 -1.214631e+01 -1.235638e+01 -1.256222e+01 -1.269580e+01 -1.290645e+01 -1.296143e+01 -1.317527e+01 -1.315022e+01 -1.336563e+01 -1.325984e+01 -1.347518e+01 -1.328872e+01 -1.350233e+01 -1.323605e+01 -1.344622e+01 -1.310179e+01 -1.330674e+01 -1.288668e+01 -1.308457e+01 -1.259223e+01 -1.278114e+01 -1.222077e+01 -1.239870e+01 -1.177538e+01 -1.194029e+01 -1.125994e+01 -1.140979e+01 -1.067913e+01 -1.081191e+01 -1.003841e+01 -1.015218e+01 -9.343982e+00 -9.436962e+00 -8.602801e+00 -8.673414e+00 -7.822484e+00 -7.869413e+00 -7.011257e+00 -7.033493e+00 -6.177859e+00 -6.174730e+00 -5.331421e+00 -5.302613e+00 -4.481333e+00 -4.426893e+00 -3.637084e+00 -3.557412e+00 -2.808098e+00 -2.703927e+00 -2.003563e+00 -1.875932e+00 -1.232263e+00 -1.082487e+00 -5.024221e-01 -3.320663e-01 1.784287e-01 3.675818e-01 8.035613e-01 1.009536e+00 1.367129e+00 1.587783e+00 1.864214e+00 2.097261e+00 2.290843e+00 2.533876e+00 2.643972e+00 2.894495e+00 2.921455e+00 3.176906e+00 3.121987e+00 3.379770e+00 3.245042e+00 3.502555e+00 3.290798e+00 3.545467e+00 3.260067e+00 3.509377e+00 3.154228e+00 3.395751e+00 2.975170e+00 3.206587e+00 2.725233e+00 2.944368e+00 
2.147160e+00 2.369977e+00 1.757508e+00 1.964118e+00 1.305003e+00 1.493665e+00 7.935503e-01 9.627390e-01 2.274153e-01 3.758346e-01 -3.887720e-01 -2.621782e-01 -1.050016e+00 -9.460559e-01 -1.750953e+00 -1.670183e+00 -2.485857e+00 -2.428576e+00 -3.248647e+00 -3.214901e+00 -4.032906e+00 -4.022491e+00 -4.831910e+00 -4.844380e+00 -5.638666e+00 -5.673346e+00 -6.445964e+00 -6.501962e+00 -7.246432e+00 -7.322664e+00 -8.032609e+00 -8.127818e+00 -8.797021e+00 -8.909802e+00 -9.532262e+00 -9.661092e+00 -1.023108e+01 -1.037435e+01 -1.088648e+01 -1.104252e+01 -1.149179e+01 -1.165889e+01 -1.204076e+01 -1.221722e+01 -1.252766e+01 -1.271178e+01 -1.294731e+01 -1.313744e+01 -1.329519e+01 -1.348969e+01 -1.356746e+01 -1.376474e+01 -1.376101e+01 -1.395949e+01 -1.387348e+01 -1.407161e+01 -1.390330e+01 -1.409949e+01 -1.384966e+01 -1.404230e+01 -1.371257e+01 -1.389999e+01 -1.349281e+01 -1.367326e+01 -1.319195e+01 -1.336361e+01 -1.281237e+01 -1.297335e+01 -1.235725e+01 -1.250559e+01 -1.183054e+01 -1.196427e+01 -1.123703e+01 -1.135420e+01 -1.058228e+01 -1.068100e+01 -9.872631e+00 -9.951153e+00 -9.115177e+00 -9.171936e+00 -8.317703e+00 -8.351378e+00 -7.488621e+00 -7.498177e+00 -6.636869e+00 -6.621592e+00 -5.771794e+00 -5.731308e+00 -4.903008e+00 -4.837279e+00 -4.040224e+00 -3.949556e+00 -3.193086e+00 -3.078098e+00 -2.370989e+00 -2.232598e+00 -1.582906e+00 -1.422298e+00 -8.372278e-01 -6.558366e-01 -1.416278e-01 5.888804e-02 4.970497e-01 7.148280e-01 1.072867e+00 1.305861e+00 1.580837e+00 1.826835e+00 2.016938e+00 2.273584e+00 2.378092e+00 2.642913e+00 2.662134e+00 2.932563e+00 2.867747e+00 3.141160e+00 2.994399e+00 3.268144e+00 3.042268e+00 3.313700e+00 3.012169e+00 3.278688e+00 2.905488e+00 3.164568e+00 2.724120e+00 2.973343e+00 2.470419e+00 2.707501e+00 
2.439386e+00 2.645106e+00 2.054535e+00 2.244016e+00 1.608048e+00 1.779637e+00 1.103803e+00 1.256053e+00 5.460243e-01 6.777083e-01 -6.070995e-02 4.940724e-02 -7.114695e-01 -6.236861e-01 -1.400970e+00 -1.336049e+00 -2.123575e+00 -2.081807e+00 -2.873309e+00 -2.854745e+00 -3.643872e+00 -3.648330e+00 -4.428672e+00 -4.455742e+00 -5.220857e+00 -5.269915e+00 -6.013369e+00 -6.083586e+00 -6.798999e+00 -6.889362e+00 -7.570453e+00 -7.679785e+00 -8.320431e+00 -8.447407e+00 -9.041698e+00 -9.184880e+00 -9.727177e+00 -9.885030e+00 -1.037003e+01 -1.054095e+01 -1.096374e+01 -1.114609e+01 -1.150221e+01 -1.169433e+01 -1.197982e+01 -1.218003e+01 -1.239150e+01 -1.259816e+01 -1.273282e+01 -1.294429e+01 -1.299999e+01 -1.321465e+01 -1.318995e+01 -1.340618e+01 -1.330036e+01 -1.351654e+01 -1.332965e+01 -1.354412e+01 -1.327700e+01 -1.348805e+01 -1.314236e+01 -1.334823e+01 -1.292648e+01 -1.312533e+01 -1.263088e+01 -1.282077e+01 -1.225785e+01 -1.243680e+01 -1.181051e+01 -1.197644e+01 -1.129272e+01 -1.144358e+01 -1.070918e+01 -1.084292e+01 -1.006534e+01 -1.018000e+01 -9.367437e+00 -9.461203e+00 -8.622441e+00 -8.693711e+00 -7.838008e+00 -7.885443e+00 -7.022412e+00 -7.044984e+00 -6.184449e+00 -6.181478e+00 -5.333319e+00 -5.304489e+00 -4.478489e+00 -4.423852e+00 -3.629532e+00 -3.549496e+00 -2.795956e+00 -2.691267e+00 -1.987032e+00 -1.858744e+00 -1.211620e+00 -1.061063e+00 -4.780114e-01 -3.067626e-01 2.062091e-01 3.963533e-01 8.342745e-01 1.041326e+00 1.400314e+00 1.622118e+00 1.899402e+00 2.133657e+00 2.327567e+00 2.571855e+00 2.681783e+00 2.933591e+00 2.959927e+00 3.216678e+00 3.160726e+00 3.419805e+00 3.283684e+00 3.542474e+00 3.329014e+00 3.584926e+00 3.297562e+00 3.548065e+00 3.190738e+00 3.433391e+00 3.010455e+00 3.242931e+00 2.759079e+00 2.979190e+00 
2.212994e+00 2.437685e+00 1.819675e+00 2.027963e+00 1.363149e+00 1.553282e+00 8.473322e-01 1.017775e+00 2.764974e-01 4.259477e-01 -3.447221e-01 -2.173267e-01 -1.011328e+00 -9.068007e-01 -1.717954e+00 -1.636853e+00 -2.458867e+00 -2.401494e+00 -3.227971e+00 -3.194371e+00 -4.018831e+00 -4.008798e+00 -4.824693e+00 -4.837774e+00 -5.638527e+00 -5.674035e+00 -6.453071e+00 -6.510101e+00 -7.260893e+00 -7.338341e+00 -8.054464e+00 -8.151048e+00 -8.826227e+00 -8.940515e+00 -9.568690e+00 -9.699130e+00 -1.027451e+01 -1.041946e+01 -1.093660e+01 -1.109435e+01 -1.154819e+01 -1.171702e+01 -1.210295e+01 -1.228112e+01 -1.259506e+01 -1.278087e+01 -1.301928e+01 -1.321106e+01 -1.337104e+01 -1.356716e+01 -1.364646e+01 -1.384532e+01 -1.384238e+01 -1.404244e+01 -1.395644e+01 -1.415616e+01 -1.398706e+01 -1.418487e+01 -1.393343e+01 -1.412774e+01 -1.379554e+01 -1.398470e+01 -1.357418e+01 -1.375645e+01 -1.327093e+01 -1.344448e+01 -1.288816e+01 -1.305108e+01 -1.242904e+01 -1.257935e+01 -1.189754e+01 -1.203322e+01 -1.129845e+01 -1.141749e+01 -1.063734e+01 -1.073781e+01 -9.920589e+00 -1.000067e+01 -9.155341e+00 -9.213419e+00 -8.349451e+00 -8.384160e+00 -7.511428e+00 -7.521700e+00 -6.650331e+00 -6.635433e+00 -5.775650e+00 -5.735201e+00 -4.897156e+00 -4.831131e+00 -4.024737e+00 -3.933454e+00 -3.168213e+00 -3.052313e+00 -2.337148e+00 -2.197572e+00 -1.540675e+00 -1.378633e+00 -7.873195e-01 -6.042671e-01 -8.486410e-02 1.175206e-01 5.597700e-01 7.796052e-01 1.140600e+00 1.375818e+00 1.652623e+00 1.900990e+00 2.091830e+00 2.350963e+00 2.455180e+00 2.722573e+00 2.740556e+00 3.013612e+00 2.946705e+00 3.222762e+00 3.073163e+00 3.349533e+00 3.120178e+00 3.394181e+00 3.088632e+00 3.357633e+00 2.979971e+00 3.241415e+00 2.796143e+00 3.047587e+00 2.539548e+00 2.778686e+00 
2.536182e+00 2.744570e+00 2.145861e+00 2.337725e+00 1.693388e+00 1.867063e+00 1.182659e+00 1.336687e+00 6.179110e-01 7.510566e-01 3.726952e-03 1.149833e-01 -6.549575e-01 -5.663626e-01 -1.352851e+00 -1.287451e+00 -2.084308e+00 -2.042394e+00 -2.843332e+00 -2.824955e+00 -3.623594e+00 -3.628568e+00 -4.418458e+00 -4.446366e+00 -5.221018e+00 -5.271221e+00 -6.024142e+00 -6.095794e+00 -6.820534e+00 -6.912597e+00 -7.602800e+00 -7.714065e+00 -8.363523e+00 -8.492632e+00 -9.095346e+00 -9.240819e+00 -9.791058e+00 -9.951319e+00 -1.044369e+01 -1.061709e+01 -1.104659e+01 -1.123146e+01 -1.159353e+01 -1.178818e+01 -1.207879e+01 -1.228152e+01 -1.249719e+01 -1.270634e+01 -1.284422e+01 -1.305816e+01 -1.311604e+01 -1.333315e+01 -1.330953e+01 -1.352822e+01 -1.342233e+01 -1.364100e+01 -1.345284e+01 -1.366986e+01 -1.340024e+01 -1.361394e+01 -1.326448e+01 -1.347311e+01 -1.304629e+01 -1.324802e+01 -1.274720e+01 -1.294008e+01 -1.236950e+01 -1.255150e+01 -1.191629e+01 -1.208531e+01 -1.139146e+01 -1.154536e+01 -1.079970e+01 -1.093635e+01 -1.014650e+01 -1.026385e+01 -9.438137e+00 -9.534289e+00 -8.681661e+00 -8.754925e+00 -7.884834e+00 -7.933800e+00 -7.056071e+00 -7.079662e+00 -6.204344e+00 -6.201850e+00 -5.339061e+00 -5.310162e+00 -4.469924e+00 -4.414686e+00 -3.606758e+00 -3.525619e+00 -2.759330e+00 -2.653075e+00 -1.937162e+00 -1.806890e+00 -1.149350e+00 -9.964334e-01 -4.043853e-01 -2.304449e-01 2.899829e-01 4.831124e-01 9.268696e-01 1.137163e+00 1.500334e+00 1.725598e+00 2.005423e+00 2.243320e+00 2.438182e+00 2.686250e+00 2.795635e+00 3.051314e+00 3.075733e+00 3.336396e+00 3.277294e+00 3.540278e+00 3.399927e+00 3.662563e+00 3.443947e+00 3.703599e+00 3.410301e+00 3.664395e+00 3.300491e+00 3.546547e+00 3.116513e+00 3.352171e+00 2.860799e+00 3.083846e+00 
2.345003e+00 2.573456e+00 1.944330e+00 2.155985e+00 1.479748e+00 1.672831e+00 9.551958e-01 1.128154e+00 3.749569e-01 5.264739e-01 -2.563305e-01 -1.273282e-01 -9.336655e-01 -8.280000e-01 -1.651676e+00 -1.569913e+00 -2.404617e+00 -2.347061e+00 -3.186370e+00 -3.153066e+00 -3.990460e+00 -3.981196e+00 -4.810077e+00 -4.824388e+00 -5.638113e+00 -5.675292e+00 -6.467208e+00 -6.526320e+00 -7.289809e+00 -7.369711e+00 -8.098243e+00 -8.197605e+00 -8.884793e+00 -9.002128e+00 -9.641791e+00 -9.775482e+00 -1.036171e+01 -1.051005e+01 -1.103726e+01 -1.119848e+01 -1.166150e+01 -1.183381e+01 -1.222791e+01 -1.240953e+01 -1.273051e+01 -1.291971e+01 -1.316394e+01 -1.335902e+01 -1.352351e+01 -1.372284e+01 -1.380523e+01 -1.400725e+01 -1.400593e+01 -1.420911e+01 -1.412318e+01 -1.432604e+01 -1.415540e+01 -1.435641e+01 -1.410177e+01 -1.429940e+01 -1.396229e+01 -1.415491e+01 -1.373774e+01 -1.392363e+01 -1.342970e+01 -1.360703e+01 -1.304054e+01 -1.320737e+01 -1.257343e+01 -1.272771e+01 -1.203234e+01 -1.217196e+01 -1.142206e+01 -1.154491e+01 -1.074820e+01 -1.085222e+01 -1.001720e+01 -1.010045e+01 -9.236286e+00 -9.297048e+00 -8.413469e+00 -8.450278e+00 -7.557445e+00 -7.569167e+00 -6.677515e+00 -6.663380e+00 -5.783461e+00 -5.743079e+00 -4.885381e+00 -4.818746e+00 -3.993516e+00 -3.900982e+00 -3.118048e+00 -3.000302e+00 -2.268893e+00 -2.126926e+00 -1.455505e+00 -1.290575e+00 -6.866890e-01 -5.002952e-01 2.955304e-02 2.356940e-01 6.861441e-01 9.101128e-01 1.277012e+00 1.516701e+00 1.797128e+00 2.050258e+00 2.242513e+00 2.506647e+00 2.610199e+00 2.882772e+00 2.898180e+00 3.176524e+00 3.105332e+00 3.386712e+00 3.231332e+00 3.512986e+00 3.276571e+00 3.555746e+00 3.242067e+00 3.516061e+00 3.129390e+00 3.395588e+00 2.940596e+00 3.196502e+00 2.678173e+00 2.921441e+00 
2.698062e+00 2.910913e+00 2.298590e+00 2.494438e+00 1.836116e+00 2.013275e+00 1.314566e+00 1.471564e+00 7.381922e-01 8.737799e-01 1.115850e-01 2.247448e-01 -5.603158e-01 -4.703651e-01 -1.272212e+00 -1.206010e+00 -2.018442e+00 -1.976285e+00 -2.792981e+00 -2.774919e+00 -3.589453e+00 -3.595295e+00 -4.401152e+00 -4.430469e+00 -5.221080e+00 -5.273211e+00 -6.041984e+00 -6.116054e+00 -6.856424e+00 -6.951352e+00 -7.656833e+00 -7.771359e+00 -8.435601e+00 -8.568307e+00 -9.185159e+00 -9.334495e+00 -9.898073e+00 -1.006239e+01 -1.056714e+01 -1.074473e+01 -1.118549e+01 -1.137460e+01 -1.174669e+01 -1.194557e+01 -1.224479e+01 -1.245173e+01 -1.267449e+01 -1.288779e+01 -1.303112e+01 -1.324914e+01 -1.331073e+01 -1.353189e+01 -1.351013e+01 -1.373288e+01 -1.362693e+01 -1.384971e+01 -1.365948e+01 -1.388073e+01 -1.360696e+01 -1.382505e+01 -1.346933e+01 -1.368255e+01 -1.324730e+01 -1.345382e+01 -1.294239e+01 -1.314027e+01 -1.255691e+01 -1.274405e+01 -1.209392e+01 -1.226815e+01 -1.155733e+01 -1.171638e+01 -1.095184e+01 -1.109344e+01 -1.028298e+01 -1.040492e+01 -9.557099e+00 -9.657320e+00 -8.781371e+00 -8.858035e+00 -7.963730e+00 -8.015305e+00 -7.112826e+00 -7.138146e+00 -6.237928e+00 -6.236237e+00 -5.348798e+00 -5.319769e+00 -4.455538e+00 -4.399266e+00 -3.568406e+00 -3.485386e+00 -2.697614e+00 -2.588703e+00 -1.853119e+00 -1.719492e+00 -1.044416e+00 -8.875237e-01 -2.803469e-01 -1.018791e-01 4.310622e-01 6.292069e-01 1.082727e+00 1.298464e+00 1.668591e+00 1.899667e+00 2.183664e+00 2.427676e+00 2.624024e+00 2.878440e+00 2.986785e+00 3.248969e+00 3.270034e+00 3.537274e+00 3.472752e+00 3.742298e+00 3.594724e+00 3.863823e+00 3.636446e+00 3.902379e+00 3.599037e+00 3.859157e+00 3.484159e+00 3.735921e+00 3.293942e+00 3.534933e+00 3.030936e+00 3.258897e+00 
2.543859e+00 2.777987e+00 2.132106e+00 2.348835e+00 1.655409e+00 1.852935e+00 1.117735e+00 1.294481e+00 5.233797e-01 6.780092e-01 -1.230160e-01 8.406613e-03 -8.164530e-01 -7.090734e-01 -1.551557e+00 -1.468797e+00 -2.322569e+00 -2.264740e+00 -3.123342e+00 -3.090489e+00 -3.947345e+00 -3.939250e+00 -4.787687e+00 -4.803868e+00 -5.637146e+00 -5.676866e+00 -6.488214e+00 -6.550496e+00 -7.333157e+00 -7.416798e+00 -8.164082e+00 -8.267680e+00 -8.973030e+00 -9.095008e+00 -9.752058e+00 -9.890704e+00 -1.049335e+01 -1.064685e+01 -1.118933e+01 -1.135582e+01 -1.183275e+01 -1.201035e+01 -1.241684e+01 -1.260368e+01 -1.293536e+01 -1.312965e+01 -1.338273e+01 -1.358275e+01 -1.375409e+01 -1.395822e+01 -1.404535e+01 -1.425206e+01 -1.425324e+01 -1.446106e+01 -1.437531e+01 -1.458281e+01 -1.440992e+01 -1.461569e+01 -1.435629e+01 -1.455885e+01 -1.421441e+01 -1.441220e+01 -1.398507e+01 -1.417642e+01 -1.366986e+01 -1.385291e+01 -1.327112e+01 -1.344389e+01 -1.279202e+01 -1.295236e+01 -1.223653e+01 -1.238219e+01 -1.160942e+01 -1.173813e+01 -1.091636e+01 -1.102586e+01 -1.016385e+01 -1.025201e+01 -9.359272e+00 -9.424174e+00 -8.510823e+00 -8.550866e+00 -7.627494e+00 -7.641438e+00 -6.718957e+00 -6.705976e+00 -5.795436e+00 -5.755136e+00 -4.867540e+00 -4.799947e+00 -3.946060e+00 -3.851593e+00 -3.041743e+00 -2.921170e+00 -2.165055e+00 -2.019446e+00 -1.325955e+00 -1.156643e+00 -5.336779e-01 -3.422256e-01 2.034342e-01 4.152541e-01 8.780684e-01 1.108285e+00 1.484023e+00 1.730473e+00 2.016239e+00 2.276578e+00 2.470794e+00 2.742507e+00 2.844848e+00 3.125274e+00 3.136570e+00 3.422936e+00 3.345047e+00 3.634503e+00 3.470180e+00 3.759847e+00 3.512581e+00 3.799595e+00 3.473481e+00 3.755036e+00 3.354640e+00 3.628030e+00 3.158280e+00 3.420932e+00 2.887025e+00 3.136527e+00 
2.925838e+00 3.144970e+00 2.513481e+00 2.714932e+00 2.036959e+00 2.219016e+00 1.500231e+00 1.661402e+00 9.075653e-01 1.046584e+00 2.635547e-01 3.793890e-01 -4.268627e-01 -3.350064e-01 -1.158386e+00 -1.091058e+00 -1.925340e+00 -1.882843e+00 -2.721664e+00 -2.704051e+00 -3.540923e+00 -3.547997e+00 -4.376318e+00 -4.407635e+00 -5.220721e+00 -5.275593e+00 -6.066716e+00 -6.144224e+00 -6.906654e+00 -7.005662e+00 -7.732726e+00 -7.851900e+00 -8.537046e+00 -8.674878e+00 -9.311739e+00 -9.466581e+00 -1.004905e+01 -1.021914e+01 -1.074144e+01 -1.092497e+01 -1.138171e+01 -1.157683e+01 -1.196312e+01 -1.216799e+01 -1.247945e+01 -1.269229e+01 -1.292514e+01 -1.314424e+01 -1.329533e+01 -1.351905e+01 -1.358595e+01 -1.381273e+01 -1.379370e+01 -1.402205e+01 -1.391611e+01 -1.414458e+01 -1.395155e+01 -1.417864e+01 -1.389915e+01 -1.412334e+01 -1.375889e+01 -1.397851e+01 -1.353149e+01 -1.374475e+01 -1.321845e+01 -1.342339e+01 -1.282205e+01 -1.301652e+01 -1.234538e+01 -1.252706e+01 -1.179229e+01 -1.195875e+01 -1.116752e+01 -1.131627e+01 -1.047662e+01 -1.060521e+01 -9.726051e+00 -9.832174e+00 -8.923122e+00 -9.004717e+00 -8.076013e+00 -8.131361e+00 -7.193700e+00 -7.221506e+00 -6.285873e+00 -6.285316e+00 -5.362803e+00 -5.333553e+00 -4.435174e+00 -4.377381e+00 -3.513877e+00 -3.428128e+00 -2.609778e+00 -2.497044e+00 -1.733474e+00 -1.595049e+00 -8.950485e-01 -7.324964e-01 -1.038527e-01 8.103887e-02 6.316848e-01 8.369314e-01 1.304197e+00 1.527635e+00 1.907470e+00 2.146767e+00 2.436471e+00 2.689139e+00 2.887343e+00 3.150752e+00 3.257347e+00 3.528750e+00 3.544778e+00 3.821342e+00 3.748863e+00 4.027713e+00 3.869655e+00 4.147911e+00 3.907914e+00 4.182741e+00 3.865012e+00 4.133655e+00 3.742838e+00 4.002660e+00 3.543721e+00 3.792234e+00 3.270372e+00 3.505258e+00 
2.810543e+00 3.052293e+00 2.383927e+00 2.607466e+00 1.891021e+00 2.094505e+00 1.335822e+00 1.517646e+00 7.226333e-01 8.814348e-01 5.608704e-02 1.907547e-01 -6.588298e-01 -5.491507e-01 -1.416750e+00 -1.332652e+00 -2.211908e+00 -2.153713e+00 -3.038122e+00 -3.005882e+00 -3.888800e+00 -3.882289e+00 -4.756947e+00 -4.775664e+00 -5.635193e+00 -5.678365e+00 -6.515833e+00 -6.582427e+00 -7.390887e+00 -7.479623e+00 -8.252174e+00 -8.361548e+00 -9.091392e+00 -9.219708e+00 -9.900229e+00 -1.004564e+01 -1.067047e+01 -1.083101e+01 -1.139412e+01 -1.156777e+01 -1.206354e+01 -1.224829e+01 -1.267156e+01 -1.286544e+01 -1.321161e+01 -1.341274e+01 -1.367783e+01 -1.388443e+01 -1.406511e+01 -1.427558e+01 -1.436921e+01 -1.458207e+01 -1.458676e+01 -1.480062e+01 -1.471525e+01 -1.492882e+01 -1.475307e+01 -1.496505e+01 -1.469942e+01 -1.490846e+01 -1.455432e+01 -1.475897e+01 -1.431859e+01 -1.451721e+01 -1.399381e+01 -1.418457e+01 -1.358232e+01 -1.376315e+01 -1.308724e+01 -1.325587e+01 -1.251251e+01 -1.266650e+01 -1.186292e+01 -1.199972e+01 -1.114412e+01 -1.126121e+01 -1.036272e+01 -1.045768e+01 -9.526249e+00 -9.596897e+00 -8.643176e+00 -8.687691e+00 -7.722870e+00 -7.739864e+00 -6.775504e+00 -6.764079e+00 -5.811918e+00 -5.771679e+00 -4.843430e+00 -4.774470e+00 -3.881605e+00 -3.784448e+00 -2.937990e+00 -2.813528e+00 -2.023829e+00 -1.873255e+00 -1.149792e+00 -9.745420e-01 -3.257202e-01 -1.274412e-01 4.395750e-01 6.590446e-01 1.138463e+00 1.377093e+00 1.764578e+00 2.020141e+00 2.312840e+00 2.582910e+00 2.779427e+00 3.061385e+00 3.161696e+00 3.452753e+00 3.458083e+00 3.755315e+00 3.667979e+00 3.968376e+00 3.791605e+00 4.092124e+00 3.829890e+00 4.127510e+00 3.784359e+00 4.076131e+00 3.657037e+00 3.940131e+00 3.450370e+00 3.722109e+00 3.167164e+00 3.425054e+00 
3.220605e+00 3.447867e+00 2.791563e+00 3.000258e+00 2.296904e+00 2.485289e+00 1.740621e+00 1.907181e+00 1.126990e+00 1.270439e+00 4.605927e-01 5.798825e-01 -2.536469e-01 -1.593269e-01 -1.010439e+00 -9.416538e-01 -1.804100e+00 -1.761165e+00 -2.628539e+00 -2.611512e+00 -3.477250e+00 -3.485933e+00 -4.343323e+00 -4.377256e+00 -5.219471e+00 -5.277934e+00 -6.098063e+00 -6.180086e+00 -6.971185e+00 -7.075558e+00 -7.830711e+00 -7.956003e+00 -8.668386e+00 -8.812971e+00 -9.475931e+00 -9.638022e+00 -1.024515e+01 -1.042285e+01 -1.096807e+01 -1.115940e+01 -1.163704e+01 -1.184001e+01 -1.224489e+01 -1.245756e+01 -1.278505e+01 -1.300553e+01 -1.325162e+01 -1.347817e+01 -1.363950e+01 -1.387048e+01 -1.394442e+01 -1.417833e+01 -1.416299e+01 -1.439842e+01 -1.429268e+01 -1.452830e+01 -1.433182e+01 -1.456629e+01 -1.427959e+01 -1.451150e+01 -1.413594e+01 -1.436375e+01 -1.390163e+01 -1.412359e+01 -1.357814e+01 -1.379228e+01 -1.316774e+01 -1.337183e+01 -1.267346e+01 -1.286501e+01 -1.209915e+01 -1.227549e+01 -1.144949e+01 -1.160783e+01 -1.073010e+01 -1.086763e+01 -9.947491e+00 -1.006157e+01 -9.109173e+00 -9.197411e+00 -8.223611e+00 -8.284027e+00 -7.300199e+00 -7.331316e+00 -6.349177e+00 -6.350090e+00 -5.381495e+00 -5.351885e+00 -4.408622e+00 -4.348731e+00 -3.442314e+00 -3.352877e+00 -2.494334e+00 -2.376495e+00 -1.576157e+00 -1.431384e+00 -6.986757e-01 -5.286856e-01 1.280645e-01 3.213577e-01 8.950934e-01 1.109603e+00 1.594674e+00 1.828147e+00 2.220397e+00 2.470410e+00 2.767203e+00 3.031164e+00 3.231346e+00 3.506500e+00 3.610313e+00 3.893767e+00 3.902702e+00 4.191462e+00 4.108096e+00 4.399112e+00 4.226914e+00 4.517138e+00 4.260287e+00 4.546722e+00 4.209926e+00 4.489676e+00 4.078026e+00 4.348335e+00 3.867178e+00 4.125460e+00 3.580301e+00 3.824165e+00 
3.146305e+00 3.397672e+00 2.700976e+00 2.933093e+00 2.187731e+00 2.398714e+00 1.610591e+00 1.798802e+00 9.738519e-01 1.137902e+00 2.821200e-01 4.208728e-01 -4.596508e-01 -3.470741e-01 -1.246120e+00 -1.160333e+00 -2.071527e+00 -2.012873e+00 -2.929668e+00 -2.898207e+00 -3.813882e+00 -3.809387e+00 -4.717054e+00 -4.739007e+00 -5.631637e+00 -5.679226e+00 -6.549684e+00 -6.621808e+00 -7.462907e+00 -7.558189e+00 -8.362750e+00 -8.479558e+00 -9.240478e+00 -9.376956e+00 -1.008729e+01 -1.024140e+01 -1.089445e+01 -1.106404e+01 -1.165342e+01 -1.183627e+01 -1.235602e+01 -1.254991e+01 -1.299458e+01 -1.319739e+01 -1.356207e+01 -1.377179e+01 -1.405224e+01 -1.426706e+01 -1.445971e+01 -1.467803e+01 -1.478004e+01 -1.500044e+01 -1.500975e+01 -1.523098e+01 -1.514630e+01 -1.536723e+01 -1.518809e+01 -1.540762e+01 -1.513438e+01 -1.535134e+01 -1.498523e+01 -1.519834e+01 -1.474150e+01 -1.494922e+01 -1.440477e+01 -1.460527e+01 -1.397735e+01 -1.416851e+01 -1.346233e+01 -1.364168e+01 -1.286356e+01 -1.302839e+01 -1.218578e+01 -1.233320e+01 -1.143464e+01 -1.156172e+01 -1.061679e+01 -1.072071e+01 -9.739936e+00 -9.818151e+00 -8.812866e+00 -8.863242e+00 -7.845411e+00 -7.866356e+00 -6.848383e+00 -6.838911e+00 -5.833425e+00 -5.793167e+00 -4.812799e+00 -4.741960e+00 -3.799107e+00 -3.698383e+00 -2.804974e+00 -2.675447e+00 -1.842697e+00 -1.685734e+00 -9.239025e-01 -7.410819e-01 -5.924194e-02 1.476924e-01 7.418586e-01 9.710021e-01 1.471367e+00 1.720636e+00 2.122729e+00 2.389834e+00 2.690873e+00 2.973297e+00 3.172149e+00 3.467144e+00 3.564211e+00 3.868819e+00 3.865873e+00 4.176973e+00 4.076953e+00 4.391316e+00 4.198109e+00 4.512473e+00 4.230695e+00 4.541829e+00 4.176628e+00 4.481395e+00 4.038274e+00 4.333684e+00 3.818369e+00 4.101616e+00 3.519948e+00 3.788437e+00 
3.583701e+00 3.820979e+00 3.134096e+00 3.351700e+00 2.617169e+00 2.813328e+00 2.036938e+00 2.210116e+00 1.397668e+00 1.546561e+00 7.039114e-01 8.274497e-01 -3.945059e-02 5.790281e-02 -8.271603e-01 -7.565780e-01 -1.653547e+00 -1.610069e+00 -2.512495e+00 -2.496195e+00 -3.397430e+00 -3.408112e+00 -4.301318e+00 -4.338510e+00 -5.216681e+00 -5.279632e+00 -6.135632e+00 -6.223315e+00 -7.049932e+00 -7.161047e+00 -7.951056e+00 -8.084050e+00 -8.830285e+00 -8.983380e+00 -9.678822e+00 -9.850051e+00 -1.048791e+01 -1.067517e+01 -1.124899e+01 -1.145011e+01 -1.195384e+01 -1.216663e+01 -1.259475e+01 -1.281709e+01 -1.316464e+01 -1.339454e+01 -1.365722e+01 -1.389286e+01 -1.406707e+01 -1.430682e+01 -1.438971e+01 -1.463214e+01 -1.462162e+01 -1.486547e+01 -1.476024e+01 -1.500435e+01 -1.480391e+01 -1.504715e+01 -1.475184e+01 -1.499300e+01 -1.460404e+01 -1.484175e+01 -1.436128e+01 -1.459390e+01 -1.402505e+01 -1.425062e+01 -1.359757e+01 -1.381374e+01 -1.308181e+01 -1.328590e+01 -1.248153e+01 -1.267053e+01 -1.180138e+01 -1.197207e+01 -1.104692e+01 -1.119605e+01 -1.022476e+01 -1.034917e+01 -9.342572e+00 -9.439430e+00 -8.409156e+00 -8.476113e+00 -7.434405e+00 -7.469741e+00 -6.429247e+00 -6.431954e+00 -5.405496e+00 -5.375296e+00 -4.375647e+00 -4.312937e+00 -3.352593e+00 -3.258340e+00 -2.349287e+00 -2.224894e+00 -1.378373e+00 -1.225554e+00 -4.518205e-01 -2.724946e-01 4.194128e-01 6.231807e-01 1.225655e+00 1.451670e+00 1.958709e+00 2.204632e+00 2.611946e+00 2.875264e+00 3.180310e+00 3.458317e+00 3.660248e+00 3.950040e+00 4.049583e+00 4.348080e+00 4.347348e+00 4.651340e+00 4.553609e+00 4.859820e+00 4.669288e+00 4.974443e+00 4.695998e+00 4.996893e+00 4.635898e+00 4.929454e+00 4.491573e+00 4.774885e+00 4.265942e+00 4.536308e+00 3.962184e+00 4.217127e+00 
3.552622e+00 3.815647e+00 3.084654e+00 3.327151e+00 2.546904e+00 2.766951e+00 1.943403e+00 2.139332e+00 1.278414e+00 1.448809e+00 5.564867e-01 7.001832e-01 -2.174919e-01 -1.014013e-01 -1.038239e+00 -9.503985e-01 -1.900027e+00 -1.840807e+00 -2.796644e+00 -2.766127e+00 -3.721367e+00 -3.719336e+00 -4.666955e+00 -4.692879e+00 -5.625656e+00 -5.678686e+00 -6.589239e+00 -6.668202e+00 -7.549047e+00 -7.652450e+00 -8.496063e+00 -8.622115e+00 -9.421013e+00 -9.567655e+00 -1.031448e+01 -1.047944e+01 -1.116706e+01 -1.134791e+01 -1.196952e+01 -1.216377e+01 -1.271298e+01 -1.291816e+01 -1.338912e+01 -1.360286e+01 -1.399031e+01 -1.421046e+01 -1.450983e+01 -1.473450e+01 -1.494195e+01 -1.516953e+01 -1.528200e+01 -1.551118e+01 -1.552640e+01 -1.575611e+01 -1.567260e+01 -1.590198e+01 -1.571908e+01 -1.594730e+01 -1.566520e+01 -1.589137e+01 -1.551112e+01 -1.573420e+01 -1.525776e+01 -1.547637e+01 -1.490672e+01 -1.511910e+01 -1.446028e+01 -1.466419e+01 -1.392140e+01 -1.411417e+01 -1.329382e+01 -1.347237e+01 -1.258216e+01 -1.274312e+01 -1.179199e+01 -1.193188e+01 -1.092996e+01 -1.104540e+01 -1.000394e+01 -1.009184e+01 -9.023026e+00 -9.080852e+00 -7.997611e+00 -8.023495e+00 -6.939287e+00 -6.932145e+00 -5.860715e+00 -5.820243e+00 -4.775372e+00 -4.701973e+00 -3.697221e+00 -3.591867e+00 -2.640310e+00 -2.504371e+00 -1.618326e+00 -1.453421e+00 -6.441595e-01 -4.520453e-01 2.704866e-01 4.879622e-01 1.115403e+00 1.356289e+00 1.882073e+00 2.144261e+00 2.563749e+00 2.844908e+00 3.155430e+00 3.452952e+00 3.653746e+00 3.964731e+00 4.056786e+00 4.378061e+00 4.363898e+00 4.692080e+00 4.575479e+00 4.907049e+00 4.692768e+00 5.024173e+00 4.717673e+00 5.045409e+00 4.652607e+00 4.973300e+00 4.500373e+00 4.810834e+00 4.264059e+00 4.561328e+00 3.946977e+00 4.228348e+00 
4.016649e+00 4.265859e+00 3.542517e+00 3.770715e+00 2.999154e+00 3.204547e+00 2.390581e+00 2.571617e+00 1.721022e+00 1.876382e+00 9.949620e-01 1.123556e+00 2.172028e-01 3.181750e-01 -6.070676e-01 -5.343320e-01 -1.472220e+00 -1.428085e+00 -2.372139e+00 -2.356702e+00 -3.300189e+00 -3.313270e+00 -4.249205e+00 -4.290330e+00 -5.211499e+00 -5.279890e+00 -6.178886e+00 -6.273454e+00 -7.142738e+00 -7.262084e+00 -8.094050e+00 -8.236476e+00 -9.023536e+00 -9.187070e+00 -9.921749e+00 -1.010419e+01 -1.077923e+01 -1.097822e+01 -1.158667e+01 -1.179975e+01 -1.233512e+01 -1.255985e+01 -1.301616e+01 -1.325018e+01 -1.362209e+01 -1.386323e+01 -1.414611e+01 -1.439246e+01 -1.458242e+01 -1.483236e+01 -1.492629e+01 -1.517850e+01 -1.517410e+01 -1.542751e+01 -1.532327e+01 -1.557700e+01 -1.537223e+01 -1.562543e+01 -1.532028e+01 -1.557206e+01 -1.516752e+01 -1.541675e+01 -1.491477e+01 -1.516000e+01 -1.456354e+01 -1.480284e+01 -1.411596e+01 -1.434690e+01 -1.357491e+01 -1.379452e+01 -1.294400e+01 -1.314884e+01 -1.222773e+01 -1.241404e+01 -1.143158e+01 -1.159543e+01 -1.056215e+01 -1.069972e+01 -9.627286e+00 -9.735107e+00 -8.636110e+00 -8.711326e+00 -7.599096e+00 -7.639660e+00 -6.527994e+00 -6.532783e+00 -5.435701e+00 -5.404528e+00 -4.336015e+00 -4.269538e+00 -3.243301e+00 -3.142849e+00 -2.172066e+00 -2.039432e+00 -1.136491e+00 -9.737348e-01 -1.499538e-01 4.074619e-02 7.754066e-01 9.918195e-01 1.629031e+00 1.868871e+00 2.402167e+00 2.663037e+00 3.087960e+00 3.367280e+00 3.681429e+00 3.976380e+00 4.179339e+00 4.486841e+00 4.580004e+00 4.896741e+00 4.883063e+00 5.205546e+00 5.089239e+00 5.413892e+00 5.200114e+00 5.523369e+00 5.217928e+00 5.536311e+00 5.145405e+00 5.455610e+00 4.985616e+00 5.284559e+00 4.741879e+00 5.026724e+00 4.417683e+00 4.685861e+00 
4.031122e+00 4.307894e+00 3.536512e+00 3.791222e+00 2.970071e+00 3.200768e+00 2.335808e+00 2.540802e+00 1.637914e+00 1.815767e+00 8.808343e-01 1.030354e+00 6.934206e-02 1.895864e-01 -7.913853e-01 -7.011016e-01 -1.695694e+00 -1.635784e+00 -2.637396e+00 -2.607980e+00 -3.609723e+00 -3.610611e+00 -4.605307e+00 -4.635973e+00 -5.616178e+00 -5.675742e+00 -6.633783e+00 -6.720997e+00 -7.649029e+00 -7.762275e+00 -8.652357e+00 -8.789654e+00 -9.633835e+00 -9.792873e+00 -1.058329e+01 -1.076149e+01 -1.149047e+01 -1.168506e+01 -1.234527e+01 -1.255338e+01 -1.313791e+01 -1.335671e+01 -1.385922e+01 -1.408606e+01 -1.450085e+01 -1.473333e+01 -1.505546e+01 -1.529157e+01 -1.551690e+01 -1.575503e+01 -1.588024e+01 -1.611924e+01 -1.614183e+01 -1.638090e+01 -1.629920e+01 -1.653782e+01 -1.635097e+01 -1.658873e+01 -1.629670e+01 -1.653313e+01 -1.613673e+01 -1.637113e+01 -1.587210e+01 -1.610336e+01 -1.550443e+01 -1.573087e+01 -1.503592e+01 -1.525525e+01 -1.446940e+01 -1.467865e+01 -1.380838e+01 -1.400398e+01 -1.305723e+01 -1.323518e+01 -1.222132e+01 -1.237739e+01 -1.130724e+01 -1.143724e+01 -1.032291e+01 -1.042304e+01 -9.277756e+00 -9.344891e+00 -8.182783e+00 -8.214696e+00 -7.050517e+00 -7.046016e+00 -5.894875e+00 -5.853802e+00 -4.730886e+00 -4.653980e+00 -3.574275e+00 -3.462945e+00 -2.440950e+00 -2.297011e+00 -1.346423e+00 -1.171852e+00 -3.052352e-01 -1.020132e-01 6.695566e-01 8.994932e-01 1.566767e+00 1.821476e+00 2.377314e+00 2.654730e+00 3.094285e+00 3.392087e+00 3.712859e+00 4.028367e+00 4.230113e+00 4.560248e+00 4.644770e+00 4.986084e+00 4.956915e+00 5.305674e+00 5.167718e+00 5.520021e+00 5.279178e+00 5.631087e+00 5.293905e+00 5.641564e+00 5.214936e+00 5.554675e+00 5.045603e+00 5.373996e+00 4.789420e+00 5.103332e+00 4.450021e+00 4.746625e+00 