# vtk DataFile Version 2.0
Comment goes here
ASCII

DATASET STRUCTURED_POINTS
FIELD FieldData 1
TIME 1 1 double
0.07000000
DIMENSIONS    128   128   1

ORIGIN    0.000   0.000   0.000
SPACING   0.039062 0.039062   1.000

POINT_DATA   16384
SCALARS P double
LOOKUP_TABLE default

-3.106255e+01 -3.053715e+01 -2.945985e+01 -2.891370e+01 -2.792775e+01 -2.736609e+01 -2.647525e+01 -2.590286e+01 -2.510993e+01 -2.453120e+01 -2.383811e+01 -2.325713e+01 -2.266503e+01 -2.208561e+01 -2.159503e+01 -2.102078e+01 -2.063168e+01 -2.006609e+01 -1.977800e+01 -1.922449e+01 -1.903661e+01 -1.849856e+01 -1.840987e+01 -1.789066e+01 -1.790003e+01 -1.740308e+01 -1.750935e+01 -1.703807e+01 -1.724016e+01 -1.679795e+01 -1.709490e+01 -1.668512e+01 -1.707610e+01 -1.670203e+01 -1.718636e+01 -1.685114e+01 -1.742822e+01 -1.713484e+01 -1.780406e+01 -1.755526e+01 -1.831589e+01 -1.811421e+01 -1.896521e+01 -1.881289e+01 -1.975275e+01 -1.965177e+01 -2.067824e+01 -2.063033e+01 -2.174022e+01 -2.174687e+01 -2.293581e+01 -2.299824e+01 -2.426043e+01 -2.437964e+01 -2.570766e+01 -2.588443e+01 -2.726901e+01 -2.750385e+01 -2.893374e+01 -2.922689e+01 -3.068881e+01 -3.104014e+01 -3.251869e+01 -3.292765e+01 -3.440546e+01 -3.487096e+01 -3.632882e+01 -3.684913e+01 -3.826632e+01 -3.883891e+01 -4.019361e+01 -4.081508e+01 -4.208490e+01 -4.275085e+01 -4.391347e+01 -4.461845e+01 -4.565233e+01 -4.638978e+01 -4.727495e+01 -4.803721e+01 -4.875599e+01 -4.953436e+01 -5.007205e+01 -5.085691e+01 -5.120242e+01 -5.198338e+01 -5.212960e+01 -5.289576e+01 -5.283986e+01 -5.358003e+01 -5.332347e+01 -5.402653e+01 -5.357494e+01 -5.423014e+01 -5.359299e+01 -5.419031e+01 -5.338043e+01 -5.391093e+01 -5.294395e+01 -5.340008e+01 -5.229381e+01 -5.266962e+01 -5.144342e+01 -5.173478e+01 -5.040895e+01 -5.061360e+01 -4.920879e+01 -4.932634e+01 -4.786305e+01 -4.789491e+01 -4.639305e+01 -4.634223e+01 -4.482079e+01 -4.469164e+01 -4.316839e+01 -4.296637e+01 -4.145769e+01 -4.118903e+01 -3.970977e+01 -3.938123e+01 -3.794468e+01 -3.756323e+01 -3.618108e+01 -3.575374e+01 -3.443614e+01 -3.396972e+01 -3.272536e+01 -3.222639e+01 
-3.230749e+01 -3.174279e+01 -3.065777e+01 -3.007331e+01 -2.908183e+01 -2.848294e+01 -2.758895e+01 -2.698049e+01 -2.618696e+01 -2.557333e+01 -2.488232e+01 -2.426759e+01 -2.368037e+01 -2.306827e+01 -2.258544e+01 -2.197949e+01 -2.160107e+01 -2.100463e+01 -2.073020e+01 -2.014655e+01 -1.997531e+01 -1.940768e+01 -1.933862e+01 -1.879023e+01 -1.882222e+01 -1.829631e+01 -1.842815e+01 -1.792798e+01 -1.815856e+01 -1.768739e+01 -1.801568e+01 -1.757674e+01 -1.800184e+01 -1.759829e+01 -1.811943e+01 -1.775434e+01 -1.837083e+01 -1.804711e+01 -1.875825e+01 -1.847862e+01 -1.928356e+01 -1.905053e+01 -1.994815e+01 -1.976400e+01 -2.075268e+01 -2.061945e+01 -2.169688e+01 -2.161636e+01 -2.277930e+01 -2.275307e+01 -2.399712e+01 -2.402653e+01 -2.534587e+01 -2.543206e+01 -2.681928e+01 -2.696317e+01 -2.840902e+01 -2.861128e+01 -3.010454e+01 -3.036557e+01 -3.189293e+01 -3.221276e+01 -3.375881e+01 -3.413705e+01 -3.568433e+01 -3.612001e+01 -3.764916e+01 -3.814066e+01 -3.963072e+01 -4.017559e+01 -4.160438e+01 -4.219927e+01 -4.354396e+01 -4.418446e+01 -4.542216e+01 -4.610277e+01 -4.721128e+01 -4.792535e+01 -4.888391e+01 -4.962363e+01 -5.041374e+01 -5.117022e+01 -5.177634e+01 -5.253973e+01 -5.294989e+01 -5.370955e+01 -5.391587e+01 -5.466060e+01 -5.465953e+01 -5.537788e+01 -5.517032e+01 -5.585086e+01 -5.544201e+01 -5.607374e+01 -5.547281e+01 -5.604548e+01 -5.526523e+01 -5.576967e+01 -5.482583e+01 -5.525431e+01 -5.416494e+01 -5.451140e+01 -5.329627e+01 -5.355648e+01 -5.223637e+01 -5.240808e+01 -5.100423e+01 -5.108710e+01 -4.962065e+01 -4.961620e+01 -4.810775e+01 -4.801914e+01 -4.648837e+01 -4.632017e+01 -4.478554e+01 -4.454346e+01 -4.302201e+01 -4.271258e+01 -4.121980e+01 -4.085004e+01 -3.939979e+01 -3.897701e+01 -3.758152e+01 -3.711298e+01 -3.578288e+01 -3.527568e+01 -3.402007e+01 -3.348096e+01 
-3.103734e+01 -3.050911e+01 -2.942937e+01 -2.888057e+01 -2.789267e+01 -2.732851e+01 -2.643617e+01 -2.586143e+01 -2.506738e+01 -2.448645e+01 -2.379258e+01 -2.320950e+01 -2.261694e+01 -2.203549e+01 -2.154471e+01 -2.096849e+01 -2.057940e+01 -2.001187e+01 -1.972396e+01 -1.916853e+01 -1.898094e+01 -1.844099e+01 -1.835267e+01 -1.783157e+01 -1.784134e+01 -1.734252e+01 -1.744919e+01 -1.697608e+01 -1.717854e+01 -1.673455e+01 -1.703183e+01 -1.662035e+01 -1.701162e+01 -1.663595e+01 -1.712056e+01 -1.678386e+01 -1.736125e+01 -1.706652e+01 -1.773615e+01 -1.748615e+01 -1.824736e+01 -1.804462e+01 -1.889648e+01 -1.874324e+01 -1.968432e+01 -1.958257e+01 -2.061074e+01 -2.056221e+01 -2.167439e+01 -2.168053e+01 -2.287248e+01 -2.293451e+01 -2.420054e+01 -2.431947e+01 -2.565223e+01 -2.582883e+01 -2.721913e+01 -2.745395e+01 -2.889060e+01 -2.918390e+01 -3.065360e+01 -3.100529e+01 -3.249262e+01 -3.290221e+01 -3.438970e+01 -3.485615e+01 -3.632445e+01 -3.684608e+01 -3.827426e+01 -3.884861e+01 -4.021457e+01 -4.083829e+01 -4.211932e+01 -4.278805e+01 -4.396148e+01 -4.466977e+01 -4.571368e+01 -4.645497e+01 -4.734899e+01 -4.811559e+01 -4.884169e+01 -4.962484e+01 -5.016804e+01 -5.095801e+01 -5.130698e+01 -5.209329e+01 -5.224080e+01 -5.301241e+01 -5.295560e+01 -5.370116e+01 -5.344159e+01 -5.414981e+01 -5.369328e+01 -5.435326e+01 -5.370948e+01 -5.431105e+01 -5.349315e+01 -5.402725e+01 -5.305119e+01 -5.351014e+01 -5.239407e+01 -5.277188e+01 -5.153549e+01 -5.182796e+01 -5.049184e+01 -5.069674e+01 -4.928179e+01 -4.939879e+01 -4.792571e+01 -4.795628e+01 -4.644517e+01 -4.639242e+01 -4.486237e+01 -4.473079e+01 -4.319965e+01 -4.299480e+01 -4.147899e+01 -4.120726e+01 -3.972164e+01 -3.938987e+01 -3.794771e+01 -3.756299e+01 -3.617596e+01 -3.574538e+01 -3.442359e+01 -3.395404e+01 -3.270612e+01 -3.220415e+01 
-3.225434e+01 -3.168383e+01 -3.059368e+01 -3.000379e+01 -2.900820e+01 -2.840427e+01 -2.750709e+01 -2.689393e+01 -2.609803e+01 -2.548001e+01 -2.478736e+01 -2.416847e+01 -2.358025e+01 -2.296419e+01 -2.248089e+01 -2.187112e+01 -2.149269e+01 -2.089252e+01 -2.061842e+01 -2.003108e+01 -1.986044e+01 -1.928916e+01 -1.922086e+01 -1.866884e+01 -1.870166e+01 -1.817217e+01 -1.830486e+01 -1.780117e+01 -1.803255e+01 -1.755795e+01 -1.788698e+01 -1.744473e+01 -1.787052e+01 -1.746384e+01 -1.798566e+01 -1.761765e+01 -1.823489e+01 -1.790849e+01 -1.862056e+01 -1.833852e+01 -1.914473e+01 -1.890956e+01 -1.980897e+01 -1.962296e+01 -2.061414e+01 -2.047931e+01 -2.156019e+01 -2.147831e+01 -2.264588e+01 -2.261850e+01 -2.386858e+01 -2.389706e+01 -2.522406e+01 -2.530953e+01 -2.670622e+01 -2.684963e+01 -2.830691e+01 -2.850897e+01 -3.001573e+01 -3.027690e+01 -3.181986e+01 -3.214027e+01 -3.370396e+01 -3.408331e+01 -3.565011e+01 -3.608757e+01 -3.763784e+01 -3.813190e+01 -3.964427e+01 -4.019262e+01 -4.164440e+01 -4.224378e+01 -4.361148e+01 -4.425757e+01 -4.551757e+01 -4.620490e+01 -4.733421e+01 -4.805611e+01 -4.903320e+01 -4.978179e+01 -5.058742e+01 -5.135367e+01 -5.197165e+01 -5.274553e+01 -5.316342e+01 -5.393405e+01 -5.414366e+01 -5.489957e+01 -5.489728e+01 -5.562668e+01 -5.541352e+01 -5.610467e+01 -5.568618e+01 -5.632773e+01 -5.571361e+01 -5.629500e+01 -5.549861e+01 -5.601042e+01 -5.504817e+01 -5.548243e+01 -5.437309e+01 -5.472360e+01 -5.348758e+01 -5.375005e+01 -5.240877e+01 -5.258095e+01 -5.115617e+01 -5.123782e+01 -4.975113e+01 -4.974393e+01 -4.821628e+01 -4.812360e+01 -4.657492e+01 -4.640159e+01 -4.485052e+01 -4.460251e+01 -4.306617e+01 -4.275027e+01 -4.124418e+01 -4.086767e+01 -3.940568e+01 -3.897606e+01 -3.757034e+01 -3.709506e+01 -3.575615e+01 -3.524245e+01 -3.397936e+01 -3.343406e+01 
-3.096113e+01 -3.042439e+01 -2.933739e+01 -2.878061e+01 -2.778692e+01 -2.721529e+01 -2.631846e+01 -2.573672e+01 -2.493937e+01 -2.435183e+01 -2.365570e+01 -2.306633e+01 -2.247241e+01 -2.188491e+01 -2.139356e+01 -2.081144e+01 -2.042243e+01 -1.984910e+01 -1.956177e+01 -1.900059e+01 -1.881394e+01 -1.826827e+01 -1.818110e+01 -1.765432e+01 -1.766534e+01 -1.716089e+01 -1.726879e+01 -1.679014e+01 -1.699373e+01 -1.654438e+01 -1.684265e+01 -1.642603e+01 -1.681818e+01 -1.643766e+01 -1.692309e+01 -1.658191e+01 -1.716020e+01 -1.686139e+01 -1.753218e+01 -1.727855e+01 -1.804142e+01 -1.783550e+01 -1.868979e+01 -1.853384e+01 -1.947845e+01 -1.937443e+01 -2.040757e+01 -2.035715e+01 -2.147611e+01 -2.148072e+01 -2.268159e+01 -2.274244e+01 -2.401986e+01 -2.413794e+01 -2.548485e+01 -2.566095e+01 -2.706838e+01 -2.730311e+01 -2.876001e+01 -2.905370e+01 -3.054680e+01 -3.089952e+01 -3.241329e+01 -3.282467e+01 -3.434138e+01 -3.481058e+01 -3.631042e+01 -3.683595e+01 -3.829737e+01 -3.887695e+01 -4.027703e+01 -4.090746e+01 -4.222251e+01 -4.289954e+01 -4.410579e+01 -4.482403e+01 -4.589839e+01 -4.665124e+01 -4.757218e+01 -4.835186e+01 -4.910025e+01 -4.989781e+01 -5.045775e+01 -5.126321e+01 -5.162269e+01 -5.242520e+01 -5.257661e+01 -5.336471e+01 -5.330512e+01 -5.406700e+01 -5.379823e+01 -5.452211e+01 -5.405049e+01 -5.472499e+01 -5.406100e+01 -5.467548e+01 -5.383318e+01 -5.437816e+01 -5.337453e+01 -5.384204e+01 -5.269626e+01 -5.308006e+01 -5.181280e+01 -5.210863e+01 -5.074137e+01 -5.094700e+01 -4.950141e+01 -4.961666e+01 -4.811409e+01 -4.814068e+01 -4.660169e+01 -4.654305e+01 -4.498708e+01 -4.484807e+01 -4.329321e+01 -4.307978e+01 -4.154256e+01 -4.126146e+01 -3.975677e+01 -3.941521e+01 -3.795627e+01 -3.756165e+01 -3.616002e+01 -3.571967e+01 -3.438534e+01 -3.390633e+01 -3.264778e+01 -3.213680e+01 
-3.214678e+01 -3.156460e+01 -3.046430e+01 -2.986357e+01 -2.885985e+01 -2.824585e+01 -2.734238e+01 -2.671987e+01 -2.591932e+01 -2.529257e+01 -2.459672e+01 -2.396960e+01 -2.337945e+01 -2.275553e+01 -2.227139e+01 -2.165402e+01 -2.127564e+01 -2.066804e+01 -2.039470e+01 -1.980003e+01 -1.963065e+01 -1.905208e+01 -1.898537e+01 -1.842611e+01 -1.846066e+01 -1.792398e+01 -1.805840e+01 -1.754763e+01 -1.778064e+01 -1.729913e+01 -1.762962e+01 -1.718074e+01 -1.760784e+01 -1.719488e+01 -1.771795e+01 -1.734409e+01 -1.796268e+01 -1.763092e+01 -1.834469e+01 -1.805782e+01 -1.886638e+01 -1.862695e+01 -1.952971e+01 -1.933999e+01 -2.033596e+01 -2.019793e+01 -2.128549e+01 -2.120089e+01 -2.237748e+01 -2.234784e+01 -2.360976e+01 -2.363638e+01 -2.497848e+01 -2.506251e+01 -2.647797e+01 -2.662037e+01 -2.810042e+01 -2.830200e+01 -2.983573e+01 -3.009708e+01 -3.167131e+01 -3.199274e+01 -3.359188e+01 -3.397332e+01 -3.557945e+01 -3.602032e+01 -3.761325e+01 -3.811230e+01 -3.966985e+01 -4.022504e+01 -4.172344e+01 -4.233173e+01 -4.374618e+01 -4.440341e+01 -4.570880e+01 -4.640958e+01 -4.758132e+01 -4.831895e+01 -4.933386e+01 -5.010032e+01 -5.093763e+01 -5.172364e+01 -5.236584e+01 -5.316098e+01 -5.359461e+01 -5.438750e+01 -5.460377e+01 -5.538237e+01 -5.537750e+01 -5.612936e+01 -5.590468e+01 -5.661738e+01 -5.617911e+01 -5.684064e+01 -5.619952e+01 -5.679865e+01 -5.596932e+01 -5.649607e+01 -5.549632e+01 -5.594230e+01 -5.479233e+01 -5.515101e+01 -5.387262e+01 -5.413958e+01 -5.275542e+01 -5.292845e+01 -5.146137e+01 -5.154042e+01 -5.001291e+01 -4.999999e+01 -4.843368e+01 -4.833263e+01 -4.674796e+01 -4.656411e+01 -4.498004e+01 -4.471992e+01 -4.315375e+01 -4.282468e+01 -4.129198e+01 -4.090175e+01 -3.941632e+01 -3.897284e+01 -3.754673e+01 -3.705783e+01 -3.570140e+01 -3.517457e+01 -3.389663e+01 -3.333889e+01 
-3.083214e+01 -3.028119e+01 -2.918225e+01 -2.861218e+01 -2.760896e+01 -2.702495e+01 -2.612078e+01 -2.552745e+01 -2.472471e+01 -2.412625e+01 -2.342648e+01 -2.282672e+01 -2.223070e+01 -2.163319e+01 -2.114103e+01 -2.054915e+01 -2.016042e+01 -1.957747e+01 -1.929125e+01 -1.872052e+01 -1.853558e+01 -1.798037e+01 -1.789528e+01 -1.735899e+01 -1.737220e+01 -1.685832e+01 -1.696834e+01 -1.648042e+01 -1.668592e+01 -1.622754e+01 -1.652745e+01 -1.610218e+01 -1.649570e+01 -1.610704e+01 -1.659369e+01 -1.624498e+01 -1.682455e+01 -1.651892e+01 -1.719136e+01 -1.693167e+01 -1.769698e+01 -1.748578e+01 -1.834378e+01 -1.818332e+01 -1.913344e+01 -1.902563e+01 -2.006668e+01 -2.001314e+01 -2.114301e+01 -2.114510e+01 -2.236047e+01 -2.241935e+01 -2.371543e+01 -2.383206e+01 -2.520229e+01 -2.537750e+01 -2.681333e+01 -2.704779e+01 -2.853840e+01 -2.883262e+01 -3.036483e+01 -3.071907e+01 -3.227719e+01 -3.269138e+01 -3.425726e+01 -3.473085e+01 -3.628395e+01 -3.681580e+01 -3.833351e+01 -3.892163e+01 -4.037967e+01 -4.102116e+01 -4.239415e+01 -4.308496e+01 -4.434723e+01 -4.508207e+01 -4.620850e+01 -4.698075e+01 -4.794777e+01 -4.874949e+01 -4.953606e+01 -5.035799e+01 -5.094660e+01 -5.177828e+01 -5.215573e+01 -5.298572e+01 -5.314373e+01 -5.395985e+01 -5.389537e+01 -5.468502e+01 -5.440033e+01 -5.515088e+01 -5.465327e+01 -5.535248e+01 -5.465379e+01 -5.529023e+01 -5.440615e+01 -5.496965e+01 -5.391894e+01 -5.440094e+01 -5.320455e+01 -5.359846e+01 -5.227877e+01 -5.258015e+01 -5.116014e+01 -5.136683e+01 -4.986949e+01 -4.998156e+01 -4.842928e+01 -4.844888e+01 -4.686303e+01 -4.679417e+01 -4.519477e+01 -4.504293e+01 -4.344842e+01 -4.322025e+01 -4.164731e+01 -4.135021e+01 -3.981377e+01 -3.945555e+01 -3.796872e+01 -3.755731e+01 -3.613148e+01 -3.567462e+01 -3.431955e+01 -3.382461e+01 -3.254853e+01 -3.202242e+01 
-3.198224e+01 -3.138252e+01 -3.026723e+01 -2.965024e+01 -2.863457e+01 -2.800555e+01 -2.709287e+01 -2.645645e+01 -2.564914e+01 -2.500943e+01 -2.430900e+01 -2.366967e+01 -2.307685e+01 -2.244128e+01 -2.195611e+01 -2.132746e+01 -2.094940e+01 -2.033074e+01 -2.005877e+01 -1.945314e+01 -1.928589e+01 -1.869640e+01 -1.863228e+01 -1.806211e+01 -1.809945e+01 -1.755191e+01 -1.768906e+01 -1.716757e+01 -1.740308e+01 -1.691110e+01 -1.724378e+01 -1.678481e+01 -1.721379e+01 -1.679128e+01 -1.731604e+01 -1.693329e+01 -1.755363e+01 -1.721376e+01 -1.792969e+01 -1.763556e+01 -1.844717e+01 -1.820134e+01 -1.910862e+01 -1.891335e+01 -1.991594e+01 -1.977316e+01 -2.087013e+01 -2.078151e+01 -2.197104e+01 -2.193802e+01 -2.321714e+01 -2.324097e+01 -2.460522e+01 -2.468703e+01 -2.613023e+01 -2.627102e+01 -2.778493e+01 -2.798562e+01 -2.955971e+01 -2.982110e+01 -3.144234e+01 -3.176501e+01 -3.341773e+01 -3.380197e+01 -3.546779e+01 -3.591343e+01 -3.757136e+01 -3.807759e+01 -3.970423e+01 -4.026942e+01 -4.183937e+01 -4.246084e+01 -4.394729e+01 -4.462115e+01 -4.599665e+01 -4.671766e+01 -4.795507e+01 -4.871651e+01 -4.979009e+01 -5.058372e+01 -5.147023e+01 -5.228639e+01 -5.296619e+01 -5.379386e+01 -5.425189e+01 -5.507895e+01 -5.530545e+01 -5.611892e+01 -5.610987e+01 -5.689630e+01 -5.665349e+01 -5.739940e+01 -5.693021e+01 -5.762250e+01 -5.693932e+01 -5.756579e+01 -5.668530e+01 -5.723506e+01 -5.617728e+01 -5.664122e+01 -5.542861e+01 -5.579973e+01 -5.445623e+01 -5.472990e+01 -5.328007e+01 -5.345414e+01 -5.192250e+01 -5.199724e+01 -5.040762e+01 -5.038558e+01 -4.876065e+01 -4.864639e+01 -4.700731e+01 -4.680700e+01 -4.517320e+01 -4.489423e+01 -4.328324e+01 -4.293379e+01 -4.136122e+01 -4.094984e+01 -3.942938e+01 -3.896467e+01 -3.750815e+01 -3.699847e+01 -3.561598e+01 -3.506922e+01 -3.376925e+01 -3.319270e+01 
-3.064739e+01 -3.007646e+01 -2.896114e+01 -2.837250e+01 -2.735626e+01 -2.675500e+01 -2.584086e+01 -2.523145e+01 -2.442148e+01 -2.380791e+01 -2.310334e+01 -2.248922e+01 -2.189055e+01 -2.127919e+01 -2.078623e+01 -2.018083e+01 -1.979281e+01 -1.919649e+01 -1.891218e+01 -1.832810e+01 -1.814590e+01 -1.757733e+01 -1.749543e+01 -1.694577e+01 -1.696230e+01 -1.643510e+01 -1.654828e+01 -1.604721e+01 -1.625548e+01 -1.578429e+01 -1.608646e+01 -1.564891e+01 -1.604418e+01 -1.564396e+01 -1.613201e+01 -1.577262e+01 -1.635355e+01 -1.603827e+01 -1.671247e+01 -1.644424e+01 -1.721228e+01 -1.699370e+01 -1.785612e+01 -1.768939e+01 -1.864641e+01 -1.853337e+01 -1.958464e+01 -1.952682e+01 -2.067111e+01 -2.066973e+01 -2.190461e+01 -2.196074e+01 -2.328225e+01 -2.339681e+01 -2.479914e+01 -2.497296e+01 -2.644817e+01 -2.668204e+01 -2.821975e+01 -2.851438e+01 -3.010156e+01 -3.045755e+01 -3.207836e+01 -3.249603e+01 -3.413176e+01 -3.461104e+01 -3.624018e+01 -3.678042e+01 -3.837886e+01 -3.897858e+01 -4.052007e+01 -4.117678e+01 -4.263354e+01 -4.334352e+01 -4.468706e+01 -4.544520e+01 -4.664738e+01 -4.744707e+01 -4.848127e+01 -4.931432e+01 -5.015663e+01 -5.101335e+01 -5.164382e+01 -5.251309e+01 -5.291669e+01 -5.378621e+01 -5.395364e+01 -5.481017e+01 -5.473825e+01 -5.556802e+01 -5.525974e+01 -5.604886e+01 -5.551300e+01 -5.624798e+01 -5.549845e+01 -5.616666e+01 -5.522165e+01 -5.581186e+01 -5.469276e+01 -5.519559e+01 -5.392601e+01 -5.433431e+01 -5.293910e+01 -5.324820e+01 -5.175254e+01 -5.196037e+01 -5.038910e+01 -5.049612e+01 -4.887312e+01 -4.888217e+01 -4.722993e+01 -4.714584e+01 -4.548513e+01 -4.531440e+01 -4.366411e+01 -4.341437e+01 -4.179138e+01 -4.147102e+01 -3.989023e+01 -3.950795e+01 -3.798229e+01 -3.754675e+01 -3.608734e+01 -3.560688e+01 -3.422311e+01 -3.370556e+01 -3.240526e+01 -3.185779e+01 
-3.175683e+01 -3.113361e+01 -2.999880e+01 -2.936018e+01 -2.832901e+01 -2.768013e+01 -2.675558e+01 -2.610086e+01 -2.528494e+01 -2.462823e+01 -2.392210e+01 -2.326678e+01 -2.267081e+01 -2.201998e+01 -2.153386e+01 -2.089040e+01 -2.051320e+01 -1.987996e+01 -1.961028e+01 -1.899013e+01 -1.882617e+01 -1.822212e+01 -1.816187e+01 -1.757710e+01 -1.761848e+01 -1.705634e+01 -1.719738e+01 -1.666141e+01 -1.690037e+01 -1.639422e+01 -1.672977e+01 -1.625714e+01 -1.668840e+01 -1.625295e+01 -1.677957e+01 -1.638481e+01 -1.700690e+01 -1.665611e+01 -1.737418e+01 -1.707031e+01 -1.788511e+01 -1.763077e+01 -1.854307e+01 -1.834046e+01 -1.935079e+01 -1.920178e+01 -2.031017e+01 -2.021629e+01 -2.142194e+01 -2.138448e+01 -2.268544e+01 -2.270555e+01 -2.409836e+01 -2.417711e+01 -2.565649e+01 -2.579492e+01 -2.735341e+01 -2.755259e+01 -2.918026e+01 -2.944124e+01 -3.112535e+01 -3.144912e+01 -3.317394e+01 -3.356130e+01 -3.530795e+01 -3.575931e+01 -3.750578e+01 -3.802095e+01 -3.974223e+01 -4.032020e+01 -4.198867e+01 -4.262732e+01 -4.421337e+01 -4.490923e+01 -4.638211e+01 -4.713017e+01 -4.845914e+01 -4.925268e+01 -5.040826e+01 -5.123881e+01 -5.219419e+01 -5.305154e+01 -5.378400e+01 -5.465630e+01 -5.514842e+01 -5.602249e+01 -5.626308e+01 -5.712467e+01 -5.710937e+01 -5.794362e+01 -5.767497e+01 -5.846686e+01 -5.795393e+01 -5.868886e+01 -5.794654e+01 -5.861085e+01 -5.765877e+01 -5.824031e+01 -5.710175e+01 -5.759039e+01 -5.629099e+01 -5.667905e+01 -5.524576e+01 -5.552830e+01 -5.398839e+01 -5.416336e+01 -5.254358e+01 -5.261172e+01 -5.093770e+01 -5.090240e+01 -4.919817e+01 -4.906502e+01 -4.735266e+01 -4.712906e+01 -4.542856e+01 -4.512314e+01 -4.345228e+01 -4.307441e+01 -4.144880e+01 -4.100815e+01 -3.944126e+01 -3.894736e+01 -3.745069e+01 -3.691262e+01 -3.549585e+01 -3.492205e+01 -3.359317e+01 -3.299128e+01 
-3.040261e+01 -2.980592e+01 -2.867007e+01 -2.805765e+01 -2.702520e+01 -2.640198e+01 -2.547551e+01 -2.484573e+01 -2.402694e+01 -2.339429e+01 -2.268405e+01 -2.205181e+01 -2.145024e+01 -2.082141e+01 -2.032795e+01 -1.970543e+01 -1.931890e+01 -1.870557e+01 -1.842428e+01 -1.782314e+01 -1.764503e+01 -1.705927e+01 -1.698202e+01 -1.641504e+01 -1.643631e+01 -1.589178e+01 -1.600935e+01 -1.549110e+01 -1.570310e+01 -1.521513e+01 -1.552015e+01 -1.506648e+01 -1.546374e+01 -1.504834e+01 -1.553767e+01 -1.516431e+01 -1.574621e+01 -1.541836e+01 -1.609381e+01 -1.581455e+01 -1.658491e+01 -1.635686e+01 -1.722361e+01 -1.704893e+01 -1.801335e+01 -1.789376e+01 -1.895666e+01 -1.889349e+01 -2.005484e+01 -2.004914e+01 -2.130768e+01 -2.136033e+01 -2.271327e+01 -2.282508e+01 -2.426766e+01 -2.443947e+01 -2.596463e+01 -2.619734e+01 -2.779535e+01 -2.808997e+01 -2.974813e+01 -3.010566e+01 -3.180804e+01 -3.222938e+01 -3.395665e+01 -3.444239e+01 -3.617183e+01 -3.672203e+01 -3.842763e+01 -3.904154e+01 -4.069445e+01 -4.137020e+01 -4.293936e+01 -4.367375e+01 -4.512685e+01 -4.591504e+01 -4.721976e+01 -4.805516e+01 -4.918055e+01 -5.005473e+01 -5.097284e+01 -5.187551e+01 -5.256287e+01 -5.348206e+01 -5.392106e+01 -5.484326e+01 -5.502315e+01 -5.593371e+01 -5.585115e+01 -5.673469e+01 -5.639371e+01 -5.723462e+01 -5.664620e+01 -5.742922e+01 -5.661029e+01 -5.732114e+01 -5.629339e+01 -5.691938e+01 -5.570796e+01 -5.623853e+01 -5.487071e+01 -5.529793e+01 -5.380193e+01 -5.412082e+01 -5.252476e+01 -5.273340e+01 -5.106456e+01 -5.116401e+01 -4.944818e+01 -4.944223e+01 -4.770329e+01 -4.759801e+01 -4.585765e+01 -4.566092e+01 -4.393852e+01 -4.365939e+01 -4.197201e+01 -4.162022e+01 -3.998263e+01 -3.956809e+01 -3.799292e+01 -3.752529e+01 -3.602322e+01 -3.551163e+01 -3.409152e+01 -3.354436e+01 -3.221352e+01 -3.163828e+01 
-3.146522e+01 -3.081252e+01 -2.965404e+01 -2.898850e+01 -2.793867e+01 -2.726524e+01 -2.632653e+01 -2.564933e+01 -2.482332e+01 -2.414582e+01 -2.343321e+01 -2.275840e+01 -2.215917e+01 -2.148971e+01 -2.100310e+01 -2.034152e+01 -1.996613e+01 -1.931495e+01 -1.904886e+01 -1.841073e+01 -1.825162e+01 -1.762940e+01 -1.757469e+01 -1.697154e+01 -1.701859e+01 -1.643796e+01 -1.658430e+01 -1.602990e+01 -1.627342e+01 -1.574916e+01 -1.608827e+01 -1.559816e+01 -1.603195e+01 -1.557996e+01 -1.610826e+01 -1.569819e+01 -1.632154e+01 -1.595689e+01 -1.667643e+01 -1.636031e+01 -1.717764e+01 -1.691268e+01 -1.782960e+01 -1.761795e+01 -1.863617e+01 -1.847954e+01 -1.960034e+01 -1.950007e+01 -2.072399e+01 -2.068114e+01 -2.200758e+01 -2.202309e+01 -2.344992e+01 -2.352474e+01 -2.504794e+01 -2.518311e+01 -2.679631e+01 -2.699307e+01 -2.868720e+01 -2.894693e+01 -3.070979e+01 -3.103400e+01 -3.284995e+01 -3.324012e+01 -3.508979e+01 -3.554714e+01 -3.740732e+01 -3.793256e+01 -3.977626e+01 -4.036924e+01 -4.216601e+01 -4.282542e+01 -4.454197e+01 -4.526497e+01 -4.686618e+01 -4.764812e+01 -4.909830e+01 -4.993256e+01 -5.119709e+01 -5.207488e+01 -5.312200e+01 -5.403244e+01 -5.483505e+01 -5.576523e+01 -5.630259e+01 -5.723790e+01 -5.749684e+01 -5.842134e+01 -5.839705e+01 -5.929394e+01 -5.899007e+01 -5.984232e+01 -5.927041e+01 -6.006134e+01 -5.923982e+01 -5.995381e+01 -5.890652e+01 -5.952968e+01 -5.828434e+01 -5.880515e+01 -5.739179e+01 -5.780161e+01 -5.625122e+01 -5.654471e+01 -5.488804e+01 -5.506329e+01 -5.332998e+01 -5.338846e+01 -5.160639e+01 -5.155262e+01 -4.974745e+01 -4.958853e+01 -4.778344e+01 -4.752843e+01 -4.574401e+01 -4.540327e+01 -4.365749e+01 -4.324205e+01 -4.155039e+01 -4.107138e+01 -3.944696e+01 -3.891512e+01 -3.736893e+01 -3.679430e+01 -3.533541e+01 -3.472709e+01 -3.336286e+01 -3.272888e+01 
-3.009220e+01 -2.946392e+01 -2.830385e+01 -2.766253e+01 -2.661105e+01 -2.596138e+01 -2.502059e+01 -2.436643e+01 -2.353758e+01 -2.288220e+01 -2.216575e+01 -2.151195e+01 -2.090761e+01 -2.025796e+01 -1.976471e+01 -1.912169e+01 -1.873786e+01 -1.810404e+01 -1.782738e+01 -1.720552e+01 -1.703334e+01 -1.642652e+01 -1.635586e+01 -1.576752e+01 -1.579536e+01 -1.522928e+01 -1.535282e+01 -1.481310e+01 -1.502996e+01 -1.452094e+01 -1.482943e+01 -1.435552e+01 -1.475477e+01 -1.432033e+01 -1.481041e+01 -1.441957e+01 -1.500144e+01 -1.465796e+01 -1.533337e+01 -1.504051e+01 -1.581184e+01 -1.557226e+01 -1.644219e+01 -1.625797e+01 -1.722916e+01 -1.710183e+01 -1.817658e+01 -1.810717e+01 -1.928699e+01 -1.927626e+01 -2.056147e+01 -2.060999e+01 -2.199930e+01 -2.210769e+01 -2.359775e+01 -2.376679e+01 -2.535178e+01 -2.558250e+01 -2.725366e+01 -2.754738e+01 -2.929261e+01 -2.965090e+01 -3.145431e+01 -3.187883e+01 -3.372053e+01 -3.421278e+01 -3.606865e+01 -3.662969e+01 -3.847145e+01 -3.910152e+01 -4.089706e+01 -4.159522e+01 -4.330928e+01 -4.407302e+01 -4.566823e+01 -4.649320e+01 -4.793158e+01 -4.881129e+01 -5.005605e+01 -5.098177e+01 -5.199931e+01 -5.296007e+01 -5.372206e+01 -5.470473e+01 -5.518993e+01 -5.617951e+01 -5.637515e+01 -5.735510e+01 -5.725766e+01 -5.821046e+01 -5.782557e+01 -5.873332e+01 -5.807506e+01 -5.892016e+01 -5.800972e+01 -5.877564e+01 -5.763965e+01 -5.831169e+01 -5.698037e+01 -5.754639e+01 -5.605192e+01 -5.650294e+01 -5.487793e+01 -5.520855e+01 -5.348492e+01 -5.369345e+01 -5.190150e+01 -5.198987e+01 -5.015771e+01 -5.013107e+01 -4.828419e+01 -4.815035e+01 -4.631147e+01 -4.608018e+01 -4.426917e+01 -4.395144e+01 -4.218540e+01 -4.179275e+01 -4.008619e+01 -3.963012e+01 -3.799515e+01 -3.748663e+01 -3.593328e+01 -3.538241e+01 -3.391884e+01 -3.333466e+01 -3.196745e+01 -3.135785e+01 
-3.110058e+01 -3.041239e+01 -2.922660e+01 -2.852900e+01 -2.745779e+01 -2.675542e+01 -2.580068e+01 -2.509720e+01 -2.425998e+01 -2.355833e+01 -2.283887e+01 -2.214146e+01 -2.153927e+01 -2.084820e+01 -2.036201e+01 -1.967930e+01 -1.930716e+01 -1.863490e+01 -1.837427e+01 -1.771480e+01 -1.756266e+01 -1.691866e+01 -1.687169e+01 -1.624630e+01 -1.630112e+01 -1.569791e+01 -1.585135e+01 -1.527430e+01 -1.552368e+01 -1.497707e+01 -1.532046e+01 -1.480872e+01 -1.524510e+01 -1.477266e+01 -1.530205e+01 -1.487312e+01 -1.549657e+01 -1.511497e+01 -1.583444e+01 -1.550348e+01 -1.632165e+01 -1.604401e+01 -1.696397e+01 -1.674171e+01 -1.776666e+01 -1.760124e+01 -1.873409e+01 -1.862651e+01 -1.986948e+01 -1.982045e+01 -2.117467e+01 -2.118479e+01 -2.264986e+01 -2.271985e+01 -2.429337e+01 -2.442421e+01 -2.610136e+01 -2.629442e+01 -2.806735e+01 -2.832443e+01 -3.018184e+01 -3.050512e+01 -3.243171e+01 -3.282356e+01 -3.479959e+01 -3.526233e+01 -3.726335e+01 -3.779889e+01 -3.979562e+01 -4.040504e+01 -4.236356e+01 -4.304668e+01 -4.492909e+01 -4.568398e+01 -4.744942e+01 -4.827207e+01 -4.987832e+01 -5.076224e+01 -5.216774e+01 -5.310387e+01 -5.427003e+01 -5.524663e+01 -5.614034e+01 -5.714317e+01 -5.773902e+01 -5.875163e+01 -5.903372e+01 -6.003795e+01 -6.000092e+01 -6.097747e+01 -6.062659e+01 -6.155574e+01 -6.090613e+01 -6.176849e+01 -6.084355e+01 -6.162090e+01 -6.045031e+01 -6.112641e+01 -5.974396e+01 -6.030537e+01 -5.874690e+01 -5.918373e+01 -5.748542e+01 -5.779178e+01 -5.598879e+01 -5.616302e+01 -5.428854e+01 -5.433311e+01 -5.241769e+01 -5.233874e+01 -5.040991e+01 -5.021661e+01 -4.829871e+01 -4.800242e+01 -4.611659e+01 -4.573001e+01 -4.389430e+01 -4.343061e+01 -4.166018e+01 -4.113243e+01 -3.943982e+01 -3.886030e+01 -3.725575e+01 -3.663566e+01 -3.512740e+01 -3.447661e+01 -3.307116e+01 -3.239813e+01 
-2.970909e+01 -2.904344e+01 -2.785595e+01 -2.718083e+01 -2.610797e+01 -2.542766e+01 -2.447098e+01 -2.378884e+01 -2.294909e+01 -2.226775e+01 -2.154497e+01 -2.086661e+01 -2.026005e+01 -1.958663e+01 -1.909478e+01 -1.842823e+01 -1.804885e+01 -1.739128e+01 -1.712146e+01 -1.647533e+01 -1.631158e+01 -1.567982e+01 -1.561832e+01 -1.500439e+01 -1.504123e+01 -1.444912e+01 -1.458066e+01 -1.401482e+01 -1.423799e+01 -1.370323e+01 -1.401585e+01 -1.351714e+01 -1.391822e+01 -1.346048e+01 -1.395026e+01 -1.353813e+01 -1.411819e+01 -1.375583e+01 -1.442888e+01 -1.411980e+01 -1.488948e+01 -1.463639e+01 -1.550693e+01 -1.531178e+01 -1.628759e+01 -1.615159e+01 -1.723683e+01 -1.716060e+01 -1.835873e+01 -1.834252e+01 -1.965584e+01 -1.969979e+01 -2.112895e+01 -2.123329e+01 -2.277682e+01 -2.294217e+01 -2.459590e+01 -2.482340e+01 -2.657998e+01 -2.687134e+01 -2.871962e+01 -2.907711e+01 -3.100160e+01 -3.142787e+01 -3.340824e+01 -3.390602e+01 -3.591675e+01 -3.648846e+01 -3.849865e+01 -3.914593e+01 -4.111956e+01 -4.184274e+01 -4.373925e+01 -4.453689e+01 -4.631243e+01 -4.718085e+01 -4.878997e+01 -4.972294e+01 -5.112094e+01 -5.210945e+01 -5.325503e+01 -5.428727e+01 -5.514536e+01 -5.620679e+01 -5.675110e+01 -5.782478e+01 -5.803978e+01 -5.910679e+01 -5.898875e+01 -6.002879e+01 -5.958570e+01 -6.057786e+01 -5.982828e+01 -6.075187e+01 -5.972297e+01 -6.055848e+01 -5.928365e+01 -6.001370e+01 -5.853002e+01 -5.914032e+01 -5.748637e+01 -5.796651e+01 -5.618055e+01 -5.652459e+01 -5.464318e+01 -5.484981e+01 -5.290690e+01 -5.297929e+01 -5.100566e+01 -5.095089e+01 -4.897382e+01 -4.880207e+01 -4.684530e+01 -4.656892e+01 -4.465268e+01 -4.428524e+01 -4.242649e+01 -4.198190e+01 -4.019460e+01 -3.968638e+01 -3.798189e+01 -3.742261e+01 -3.581001e+01 -3.521095e+01 -3.369744e+01 -3.306841e+01 -3.165960e+01 -3.100887e+01 
-3.065442e+01 -2.992480e+01 -2.870866e+01 -2.797414e+01 -2.687936e+01 -2.614406e+01 -2.517189e+01 -2.443883e+01 -2.358977e+01 -2.286114e+01 -2.213492e+01 -2.141236e+01 -2.080798e+01 -2.009283e+01 -1.960852e+01 -1.890210e+01 -1.853527e+01 -1.783910e+01 -1.758647e+01 -1.690248e+01 -1.676015e+01 -1.609079e+01 -1.605448e+01 -1.540286e+01 -1.546820e+01 -1.483807e+01 -1.500093e+01 -1.439663e+01 -1.465354e+01 -1.407987e+01 -1.442833e+01 -1.389035e+01 -1.432915e+01 -1.383191e+01 -1.436126e+01 -1.390957e+01 -1.453114e+01 -1.412928e+01 -1.484603e+01 -1.449759e+01 -1.531356e+01 -1.502127e+01 -1.594119e+01 -1.570695e+01 -1.673586e+01 -1.656076e+01 -1.770357e+01 -1.758812e+01 -1.884915e+01 -1.879347e+01 -2.017601e+01 -2.018017e+01 -2.168599e+01 -2.175030e+01 -2.337915e+01 -2.350439e+01 -2.525343e+01 -2.544109e+01 -2.730426e+01 -2.755662e+01 -2.952399e+01 -2.984403e+01 -3.190109e+01 -3.229237e+01 -3.441934e+01 -3.488563e+01 -3.705691e+01 -3.760174e+01 -3.978554e+01 -4.041170e+01 -4.257007e+01 -4.327895e+01 -4.536827e+01 -4.615928e+01 -4.813143e+01 -4.900146e+01 -5.080566e+01 -5.174861e+01 -5.333399e+01 -5.434049e+01 -5.565918e+01 -5.671653e+01 -5.772706e+01 -5.881932e+01 -5.948981e+01 -6.059820e+01 -6.090896e+01 -6.201247e+01 -6.195742e+01 -6.303353e+01 -6.262039e+01 -6.364591e+01 -6.289494e+01 -6.384696e+01 -6.278862e+01 -6.364548e+01 -6.231749e+01 -6.305982e+01 -6.150414e+01 -6.211596e+01 -6.037602e+01 -6.084568e+01 -5.896424e+01 -5.928515e+01 -5.730278e+01 -5.747365e+01 -5.542769e+01 -5.545243e+01 -5.337647e+01 -5.326350e+01 -5.118708e+01 -5.094842e+01 -4.889703e+01 -4.854718e+01 -4.654234e+01 -4.609709e+01 -4.415668e+01 -4.363207e+01 -4.177065e+01 -4.118213e+01 -3.941133e+01 -3.877312e+01 -3.710210e+01 -3.642677e+01 -3.486264e+01 -3.416093e+01 -3.270910e+01 -3.198988e+01 