# vtk DataFile Version 2.0
Comment goes here
ASCII

DATASET STRUCTURED_POINTS
FIELD FieldData 1
TIME 1 1 double
0.09500000
DIMENSIONS    128   128   1

ORIGIN    0.000   0.000   0.000
SPACING   0.039062 0.039062   1.000

POINT_DATA   16384
SCALARS P double
LOOKUP_TABLE default

-1.321128e-01 -6.591050e-01 -1.066442e-01 -6.440671e-01 -1.395574e-01 -6.818616e-01 -2.277269e-01 -7.686376e-01 -3.663008e-01 -8.989449e-01 -5.489635e-01 -1.066018e+00 -7.682112e-01 -1.262069e+00 -1.015635e+00 -1.478585e+00 -1.282205e+00 -1.706620e+00 -1.558554e+00 -1.937084e+00 -1.835255e+00 -2.161018e+00 -2.103097e+00 -2.369857e+00 -2.353338e+00 -2.555676e+00 -2.577957e+00 -2.711407e+00 -2.769872e+00 -2.831031e+00 -2.923132e+00 -2.909735e+00 -3.033082e+00 -2.944038e+00 -3.096481e+00 -2.931866e+00 -3.111581e+00 -2.872603e+00 -3.078161e+00 -2.767095e+00 -2.997528e+00 -2.617625e+00 -2.872463e+00 -2.427853e+00 -2.707145e+00 -2.202737e+00 -2.507041e+00 -1.948425e+00 -2.278765e+00 -1.672128e+00 -2.029920e+00 -1.381973e+00 -1.768913e+00 -1.086834e+00 -1.504756e+00 -7.961402e-01 -1.246838e+00 -5.196594e-01 -1.004680e+00 -2.672427e-01 -7.876567e-01 -4.854035e-02 -6.047009e-01 1.273212e-01 -4.639723e-01 2.520960e-01 -3.725125e-01 3.188010e-01 -3.358855e-01 3.221124e-01 -3.578234e-01 2.587534e-01 -4.398978e-01 1.278468e-01 -5.812430e-01 -6.879939e-02 -7.783636e-01 -3.265091e-01 -1.025056e+00 -6.376933e-01 -1.312475e+00 -9.919712e-01 -1.629364e+00 -1.376478e+00 -1.962466e+00 -1.776363e+00 -2.297099e+00 -2.175462e+00 -2.617880e+00 -2.557120e+00 -2.909558e+00 -2.905098e+00 -3.157885e+00 -3.204508e+00 -3.350477e+00 -3.442699e+00 -3.477576e+00 -3.610019e+00 -3.532658e+00 -3.700387e+00 -3.512835e+00 -3.711623e+00 -3.419001e+00 -3.645516e+00 -3.255743e+00 -3.507627e+00 -3.030998e+00 -3.306848e+00 -2.755512e+00 -3.054770e+00 -2.442154e+00 -2.764916e+00 -2.105129e+00 -2.451907e+00 -1.759181e+00 -2.130639e+00 -1.418823e+00 -1.815506e+00 -1.097655e+00 -1.519742e+00 -8.077961e-01 -1.254893e+00 -5.594622e-01 -1.030433e+00 -3.606775e-01 -8.535330e-01 -2.171246e-01 -7.289628e-01 
5.602425e-01 6.943977e-02 5.957947e-01 9.570219e-02 5.735022e-01 6.925976e-02 4.964022e-01 -6.158537e-03 3.692227e-01 -1.252574e-01 1.981228e-01 -2.814549e-01 -9.579695e-03 -4.671705e-01 -2.456850e-01 -6.741139e-01 -5.013890e-01 -8.935699e-01 -7.675591e-01 -1.116677e+00 -1.035004e+00 -1.334697e+00 -1.294739e+00 -1.539262e+00 -1.538233e+00 -1.722620e+00 -1.757652e+00 -1.877837e+00 -1.946064e+00 -1.998988e+00 -2.097637e+00 -2.081308e+00 -2.207783e+00 -2.121308e+00 -2.273285e+00 -2.116861e+00 -2.292367e+00 -2.067241e+00 -2.264736e+00 -1.973141e+00 -2.191576e+00 -1.836647e+00 -2.075510e+00 -1.661190e+00 -1.920525e+00 -1.451469e+00 -1.731871e+00 -1.213360e+00 -1.515931e+00 -9.537902e-01 -1.280068e+00 -6.806075e-01 -1.032454e+00 -4.024150e-01 -7.818737e-01 -1.283877e-01 -5.375039e-01 1.319423e-01 -3.086712e-01 3.689334e-01 -1.045804e-01 5.731186e-01 6.598477e-02 7.355263e-01 1.949883e-01 8.480371e-01 2.754895e-01 9.037668e-01 3.020028e-01 8.974634e-01 2.708540e-01 8.258962e-01 1.805113e-01 6.882106e-01 3.186393e-02 4.862164e-01 -1.715820e-01 2.245728e-01 -4.236229e-01 -8.916316e-02 -7.154210e-01 -4.446552e-01 -1.035734e+00 -8.290921e-01 -1.371322e+00 -1.227684e+00 -1.707524e+00 -1.624335e+00 -2.028984e+00 -2.002463e+00 -2.320481e+00 -2.345907e+00 -2.567807e+00 -2.639868e+00 -2.758627e+00 -2.871788e+00 -2.883241e+00 -3.032119e+00 -2.935196e+00 -3.114888e+00 -2.911676e+00 -3.118024e+00 -2.813656e+00 -3.043427e+00 -2.645796e+00 -2.896756e+00 -2.416099e+00 -2.686987e+00 -2.135361e+00 -2.425775e+00 -1.816478e+00 -2.126684e+00 -1.473662e+00 -1.804350e+00 -1.121636e+00 -1.473660e+00 -7.748763e-01 -1.148979e+00 -4.469256e-01 -8.435035e-01 -1.498418e-01 -5.687310e-01 1.062227e-01 -3.340957e-01 3.132976e-01 -1.467408e-01 4.657366e-01 -1.142782e-02 
-1.152916e-01 -6.445757e-01 -9.021116e-02 -6.302205e-01 -1.242651e-01 -6.694166e-01 -2.142431e-01 -7.582164e-01 -3.551986e-01 -8.910647e-01 -5.407149e-01 -1.061086e+00 -7.631832e-01 -1.260380e+00 -1.014086e+00 -1.480319e+00 -1.284285e+00 -1.711846e+00 -1.564302e+00 -1.945759e+00 -1.844601e+00 -2.172992e+00 -2.115862e+00 -2.384881e+00 -2.369241e+00 -2.573406e+00 -2.596622e+00 -2.731417e+00 -2.790835e+00 -2.852827e+00 -2.945861e+00 -2.932769e+00 -3.056988e+00 -2.967723e+00 -3.120936e+00 -2.955596e+00 -3.135941e+00 -2.895767e+00 -3.101787e+00 -2.789095e+00 -3.019799e+00 -2.637889e+00 -2.892799e+00 -2.445854e+00 -2.725023e+00 -2.218000e+00 -2.522008e+00 -1.960540e+00 -2.290450e+00 -1.680760e+00 -2.038044e+00 -1.386874e+00 -1.773300e+00 -1.087850e+00 -1.505339e+00 -7.932250e-01 -1.243672e+00 -5.128834e-01 -9.979415e-01 -2.568042e-01 -7.776566e-01 -3.477573e-02 -5.918838e-01 1.439304e-01 -4.489191e-01 2.709194e-01 -3.559357e-01 3.390627e-01 -3.186185e-01 3.429023e-01 -3.408017e-01 2.790490e-01 -4.241299e-01 1.465475e-01 -5.677715e-01 -5.282632e-02 -7.682155e-01 -3.143711e-01 -1.019185e+00 -6.304062e-01 -1.311699e+00 -9.903893e-01 -1.634302e+00 -1.381225e+00 -1.973481e+00 -1.787773e+00 -2.314252e+00 -2.193535e+00 -2.640908e+00 -2.581501e+00 -2.937865e+00 -2.935078e+00 -3.190571e+00 -3.239063e+00 -3.386385e+00 -3.480546e+00 -3.515361e+00 -3.649697e+00 -3.570873e+00 -3.740353e+00 -3.550024e+00 -3.750351e+00 -3.453791e+00 -3.681594e+00 -3.286924e+00 -3.539839e+00 -3.057590e+00 -3.334238e+00 -2.776809e+00 -3.076679e+00 -2.457743e+00 -2.781000e+00 -2.114894e+00 -2.462128e+00 -1.763280e+00 -2.135235e+00 -1.417655e+00 -1.814955e+00 -1.091813e+00 -1.514708e+00 -7.980215e-01 -1.246172e+00 -5.465924e-01 -1.018904e+00 -3.456006e-01 -8.401106e-01 -2.007386e-01 -7.145532e-01 
5.932265e-01 9.821926e-02 6.280625e-01 1.232105e-01 6.035837e-01 9.409344e-02 5.229965e-01 1.478811e-02 3.912159e-01 -1.092041e-01 2.145989e-01 -2.710871e-01 6.682782e-04 -4.630619e-01 -2.421671e-01 -6.766192e-01 -5.048916e-01 -9.028270e-01 -7.781602e-01 -1.132612e+00 -1.052571e+00 -1.357029e+00 -1.318932e+00 -1.567520e+00 -1.568516e+00 -1.756153e+00 -1.793302e+00 -1.915837e+00 -1.986198e+00 -2.040514e+00 -2.141231e+00 -2.125313e+00 -2.253707e+00 -2.166672e+00 -2.320334e+00 -2.162420e+00 -2.339302e+00 -2.111822e+00 -2.310319e+00 -2.015589e+00 -2.234609e+00 -1.875857e+00 -2.114867e+00 -1.696130e+00 -1.955183e+00 -1.481207e+00 -1.760939e+00 -1.237083e+00 -1.538673e+00 -9.708294e-01 -1.295926e+00 -6.904565e-01 -1.041067e+00 -4.047528e-01 -7.830964e-01 -1.231008e-01 -5.314239e-01 1.447364e-01 -2.956245e-01 3.888636e-01 -8.516420e-02 5.995391e-01 9.090344e-02 7.675014e-01 2.242703e-01 8.843334e-01 3.077313e-01 9.428591e-01 3.355578e-01 9.375569e-01 3.038701e-01 8.649701e-01 2.109879e-01 7.240859e-01 5.773063e-02 5.166474e-01 -1.523672e-01 2.473618e-01 -4.129579e-01 -7.603380e-02 -7.149338e-01 -4.428822e-01 -1.046656e+00 -8.399142e-01 -1.394373e+00 -1.251761e+00 -1.742822e+00 -1.661661e+00 -2.075994e+00 -2.052318e+00 -2.378006e+00 -2.406872e+00 -2.634038e+00 -2.709884e+00 -2.831239e+00 -2.948284e+00 -2.959538e+00 -3.112169e+00 -3.012277e+00 -3.195403e+00 -2.986630e+00 -3.195960e+00 -2.883740e+00 -3.115968e+00 -2.708603e+00 -2.961485e+00 -2.469684e+00 -2.742012e+00 -2.178332e+00 -2.469804e+00 -1.848034e+00 -2.159050e+00 -1.493590e+00 -1.824999e+00 -1.130272e+00 -1.483087e+00 -7.730293e-01 -1.148151e+00 -4.357905e-01 -8.337476e-01 -1.308982e-01 -5.516371e-01 1.313100e-01 -3.114077e-01 3.427704e-01 -1.202638e-01 4.978238e-01 1.705196e-02 
-6.426634e-02 -6.004351e-01 -4.039870e-02 -5.881909e-01 -7.794013e-02 -6.316699e-01 -1.734212e-01 -7.266305e-01 -3.216081e-01 -8.671988e-01 -5.157787e-01 -1.046166e+00 -7.480064e-01 -1.255293e+00 -1.009449e+00 -1.485608e+00 -1.290638e+00 -1.727714e+00 -1.581762e+00 -1.972075e+00 -1.872955e+00 -2.209303e+00 -2.154571e+00 -2.430427e+00 -2.417457e+00 -2.627148e+00 -2.653204e+00 -2.792068e+00 -2.854385e+00 -2.918888e+00 -3.014761e+00 -3.002580e+00 -3.129451e+00 -3.039507e+00 -3.195065e+00 -3.027516e+00 -3.209785e+00 -2.965975e+00 -3.173402e+00 -2.855782e+00 -3.087309e+00 -2.699331e+00 -2.954450e+00 -2.500451e+00 -2.779231e+00 -2.264317e+00 -2.567400e+00 -1.997337e+00 -2.325902e+00 -1.707025e+00 -2.062712e+00 -1.401851e+00 -1.786648e+00 -1.091070e+00 -1.507166e+00 -7.845407e-01 -1.234129e+00 -4.924972e-01 -9.775631e-01 -2.253051e-01 -7.473710e-01 6.831582e-03 -5.530287e-01 1.942007e-01 -4.032449e-01 3.279554e-01 -3.055941e-01 4.005219e-01 -2.661320e-01 4.060297e-01 -2.890075e-01 3.407420e-01 -3.760943e-01 2.034571e-01 -5.266717e-01 -4.155682e-03 -7.371897e-01 -2.773263e-01 -1.001156e+00 -6.081031e-01 -1.309180e+00 -9.854559e-01 -1.649204e+00 -1.395589e+00 -2.006932e+00 -1.822476e+00 -2.366460e+00 -2.248594e+00 -2.711075e+00 -2.655839e+00 -3.024183e+00 -3.026539e+00 -3.290287e+00 -3.344509e+00 -3.495952e+00 -3.596043e+00 -3.630656e+00 -3.770766e+00 -3.687463e+00 -3.862263e+00 -3.663448e+00 -3.868429e+00 -3.559848e+00 -3.791522e+00 -3.381921e+00 -3.637905e+00 -3.138541e+00 -3.417530e+00 -2.841571e+00 -3.143208e+00 -2.505081e+00 -2.829738e+00 -2.144474e+00 -2.492983e+00 -1.775607e+00 -2.148966e+00 -1.413965e+00 -1.813037e+00 -1.073934e+00 -1.499182e+00 -7.682233e-01 -1.219480e+00 -5.074324e-01 -9.837302e-01 -2.997834e-01 -7.992345e-01 -1.509924e-01 -6.707300e-01 
6.602825e-01 1.568479e-01 6.935883e-01 1.791718e-01 6.646071e-01 1.445512e-01 5.768929e-01 5.729728e-02 4.357409e-01 -7.666984e-02 2.479089e-01 -2.501200e-01 2.133281e-02 -4.548138e-01 -2.351575e-01 -6.818005e-01 -5.121209e-01 -9.217111e-01 -7.997852e-01 -1.165044e+00 -1.088323e+00 -1.402440e+00 -1.368125e+00 -1.624951e+00 -1.630063e+00 -1.824283e+00 -1.865743e+00 -1.993028e+00 -2.067739e+00 -2.124857e+00 -2.229795e+00 -2.214687e+00 -2.346999e+00 -2.258803e+00 -2.415911e+00 -2.254952e+00 -2.434648e+00 -2.202376e+00 -2.402924e+00 -2.101830e+00 -2.322041e+00 -1.955546e+00 -2.194841e+00 -1.767180e+00 -2.025628e+00 -1.541731e+00 -1.820048e+00 -1.285436e+00 -1.584953e+00 -1.005653e+00 -1.328243e+00 -7.107187e-01 -1.058684e+00 -4.097923e-01 -7.857100e-01 -1.126724e-01 -5.191988e-01 1.704150e-01 -2.692257e-01 4.290640e-01 -4.578429e-02 6.529788e-01 1.415249e-01 8.323086e-01 2.838398e-01 9.580291e-01 3.734143e-01 1.022364e+00 4.040173e-01 1.019232e+00 3.713400e-01 9.447042e-01 2.733865e-01 7.974268e-01 1.108176e-01 5.789897e-01 -1.127899e-01 2.941808e-01 -3.908083e-01 -4.890922e-02 -7.135888e-01 -4.389769e-01 -1.068686e+00 -8.618182e-01 -1.441300e+00 -1.300875e+00 -1.814927e+00 -1.738005e+00 -2.172199e+00 -2.154439e+00 -2.495865e+00 -2.531854e+00 -2.769828e+00 -2.853489e+00 -2.980164e+00 -3.105197e+00 -3.116023e+00 -3.276343e+00 -3.170338e+00 -3.360461e+00 -3.140255e+00 -3.355616e+00 -3.027283e+00 -3.264427e+00 -2.837117e+00 -3.093790e+00 -2.579193e+00 -2.854296e+00 -2.266006e+00 -2.559450e+00 -1.912271e+00 -2.224743e+00 -1.534002e+00 -1.866677e+00 -1.147594e+00 -1.501823e+00 -7.689645e-01 -1.145965e+00 -4.128211e-01 -8.134031e-01 -9.207729e-02 -5.164106e-01 1.825635e-01 -2.648789e-01 4.028608e-01 -6.612277e-02 5.631420e-01 7.516615e-02 
2.266190e-02 -5.250120e-01 4.434285e-02 -5.164992e-01 7.682646e-04 -5.673808e-01 -1.041460e-01 -6.729099e-01 -2.646763e-01 -8.266702e-01 -4.735828e-01 -1.020889e+00 -7.224039e-01 -1.246753e+00 -1.001751e+00 -1.494714e+00 -1.301601e+00 -1.754802e+00 -1.611584e+00 -2.016915e+00 -1.921276e+00 -2.271122e+00 -2.220483e+00 -2.507936e+00 -2.499520e+00 -2.718580e+00 -2.749487e+00 -2.895234e+00 -2.962512e+00 -3.031246e+00 -3.131985e+00 -3.121307e+00 -3.252736e+00 -3.161590e+00 -3.321181e+00 -3.149836e+00 -3.335413e+00 -3.085397e+00 -3.295240e+00 -2.969240e+00 -3.202171e+00 -2.803905e+00 -3.059357e+00 -2.593436e+00 -2.871496e+00 -2.343283e+00 -2.644695e+00 -2.060185e+00 -2.386321e+00 -1.752037e+00 -2.104821e+00 -1.427737e+00 -1.809531e+00 -1.097021e+00 -1.510465e+00 -7.702795e-01 -1.218087e+00 -4.583355e-01 -9.430557e-01 -1.722011e-01 -6.959445e-01 7.721750e-02 -4.869219e-01 2.794606e-01 -3.253995e-01 4.249075e-01 -2.196421e-01 5.052151e-01 -1.763496e-01 5.137917e-01 -2.002264e-01 4.462831e-01 -2.935609e-01 3.010378e-01 -4.558489e-01 7.951196e-02 -6.835014e-01 -2.134371e-01 -9.696814e-01 -5.694178e-01 -1.304316e+00 -9.765791e-01 -1.674318e+00 -1.419928e+00 -2.064046e+00 -1.881903e+00 -2.455996e+00 -2.343201e+00 -2.831701e+00 -2.783802e+00 -3.172790e+00 -3.184139e+00 -3.462108e+00 -3.526302e+00 -3.684828e+00 -3.795189e+00 -3.829415e+00 -3.979467e+00 -3.888392e+00 -4.072287e+00 -3.858801e+00 -4.071660e+00 -3.742342e+00 -3.980479e+00 -3.545179e+00 -3.806186e+00 -3.277436e+00 -3.560149e+00 -2.952457e+00 -3.256793e+00 -2.585893e+00 -2.912598e+00 -2.194717e+00 -2.545051e+00 -1.796232e+00 -2.171634e+00 -1.407173e+00 -1.808927e+00 -1.042932e+00 -1.471869e+00 -7.169519e-01 -1.173203e+00 -4.403059e-01 -9.231168e-01 -2.214448e-01 -7.290564e-01 -6.610389e-02 -5.956925e-01 
7.636117e-01 2.474890e-01 7.943694e-01 2.654908e-01 7.583041e-01 2.222225e-01 6.595125e-01 1.226038e-01 5.038765e-01 -2.679999e-02 2.987670e-01 -2.180953e-01 5.274793e-02 -4.423722e-01 -2.247137e-01 -6.900100e-01 -5.235331e-01 -9.509757e-01 -8.332903e-01 -1.215116e+00 -1.143512e+00 -1.472443e+00 -1.443950e+00 -1.713410e+00 -1.724863e+00 -1.929172e+00 -1.977283e+00 -2.111829e+00 -2.193265e+00 -2.254638e+00 -2.366119e+00 -2.352191e+00 -2.490591e+00 -2.400544e+00 -2.563015e+00 -2.397315e+00 -2.581396e+00 -2.341720e+00 -2.545459e+00 -2.234577e+00 -2.456628e+00 -2.078274e+00 -2.317980e+00 -1.876700e+00 -2.134139e+00 -1.635157e+00 -1.911161e+00 -1.360251e+00 -1.656380e+00 -1.059769e+00 -1.378237e+00 -7.425407e-01 -1.086101e+00 -4.182809e-01 -7.900628e-01 -9.741274e-02 -5.007083e-01 2.091403e-01 -2.288713e-01 4.901999e-01 1.465128e-02 7.346255e-01 2.194211e-01 9.316616e-01 3.757214e-01 1.071342e+00 4.749621e-01 1.144949e+00 5.101190e-01 1.145512e+00 4.761931e-01 1.068334e+00 3.706648e-01 9.114934e-01 1.939088e-01 6.762939e-01 -5.047459e-02 3.676036e-01 -3.554615e-01 -5.976403e-03 -7.105900e-01 -4.321628e-01 -1.102174e+00 -8.953029e-01 -1.513772e+00 -1.376972e+00 -1.926922e+00 -1.856843e+00 -2.322098e+00 -2.313793e+00 -2.679857e+00 -2.727164e+00 -2.982056e+00 -3.078070e+00 -3.213052e+00 -3.350641e+00 -3.360753e+00 -3.533075e+00 -3.417437e+00 -3.618388e+00 -3.380232e+00 -3.604808e+00 -3.251242e+00 -3.495767e+00 -3.037305e+00 -3.299515e+00 -2.749420e+00 -3.028408e+00 -2.401920e+00 -2.697948e+00 -2.011471e+00 -2.325694e+00 -1.596006e+00 -1.930126e+00 -1.173674e+00 -1.529580e+00 -7.618944e-01 -1.141312e+00 -3.765654e-01 -7.807428e-01 -3.145826e-02 -4.609148e-01 2.621903e-01 -1.921508e-01 4.959008e-01 1.809975e-02 6.640121e-01 1.652578e-01 
1.483689e-01 -4.154777e-01 1.666274e-01 -4.126514e-01 1.141314e-01 -4.744644e-01 -4.547537e-03 -5.954309e-01 -1.829763e-01 -7.683513e-01 -4.131738e-01 -9.846457e-01 -6.859179e-01 -1.234682e+00 -9.910461e-01 -1.508093e+00 -1.317750e+00 -1.794092e+00 -1.654870e+00 -2.081778e+00 -1.991188e+00 -2.360439e+00 -2.315722e+00 -2.619848e+00 -2.618029e+00 -2.850544e+00 -2.888491e+00 -3.044099e+00 -3.118597e+00 -3.193347e+00 -3.301190e+00 -3.292580e+00 -3.430680e+00 -3.337696e+00 -3.503204e+00 -3.326288e+00 -3.516728e+00 -3.257693e+00 -3.471084e+00 -3.132982e+00 -3.367954e+00 -2.954907e+00 -3.210798e+00 -2.727826e+00 -3.004733e+00 -2.457585e+00 -2.756388e+00 -2.151392e+00 -2.473733e+00 -1.817679e+00 -2.165888e+00 -1.465949e+00 -1.842922e+00 -1.106609e+00 -1.515640e+00 -7.507931e-01 -1.195352e+00 -4.101525e-01 -8.936161e-01 -9.661143e-02 -6.219565e-01 1.779249e-01 -3.915345e-01 4.019222e-01 -2.127782e-01 5.646339e-01 -9.496283e-02 6.565818e-01 -4.574658e-02 6.700926e-01 -7.067828e-02 5.998639e-01 -1.726997e-01 4.435283e-01 -3.516813e-01 2.021624e-01 -6.040391e-01 -1.193167e-01 -9.224901e-01 -5.119325e-01 -1.296006e+00 -9.626718e-01 -1.710016e+00 -1.454799e+00 -2.146900e+00 -1.968489e+00 -2.586771e+00 -2.481772e+00 -3.008530e+00 -2.971749e+00 -3.391121e+00 -3.415984e+00 -3.714880e+00 -3.793959e+00 -3.962865e+00 -4.088448e+00 -4.122017e+00 -4.286682e+00 -4.184052e+00 -4.381173e+00 -4.145984e+00 -4.370133e+00 -4.010244e+00 -4.257446e+00 -3.784387e+00 -4.052220e+00 -3.480448e+00 -3.767977e+00 -3.114011e+00 -3.421584e+00 -2.703105e+00 -3.032045e+00 -2.267030e+00 -2.619253e+00 -1.825224e+00 -2.202838e+00 -1.396239e+00 -1.801157e+00 -9.969049e-01 -1.430504e+00 -6.416991e-01 -1.104545e+00 -3.423338e-01 -8.339838e-01 -1.075432e-01 -6.264192e-01 5.695602e-02 -4.863799e-01 
9.065776e-01 3.734476e-01 9.334440e-01 3.850634e-01 8.872976e-01 3.295124e-01 7.729996e-01 2.125671e-01 5.972450e-01 4.168349e-02 3.682423e-01 -1.743376e-01 9.540684e-02 -4.256756e-01 -2.109349e-01 -7.018023e-01 -5.398308e-01 -9.917859e-01 -8.799862e-01 -1.284589e+00 -1.220050e+00 -1.569364e+00 -1.548904e+00 -1.835745e+00 -1.855962e+00 -2.074129e+00 -2.131457e+00 -2.275942e+00 -2.366728e+00 -2.433868e+00 -2.554476e+00 -2.542051e+00 -2.688973e+00 -2.596238e+00 -2.766236e+00 -2.593873e+00 -2.784121e+00 -2.534142e+00 -2.742368e+00 -2.417962e+00 -2.642583e+00 -2.247938e+00 -2.488163e+00 -2.028279e+00 -2.284188e+00 -1.764704e+00 -2.037272e+00 -1.464317e+00 -1.755405e+00 -1.135483e+00 -1.447769e+00 -7.876880e-01 -1.124544e+00 -4.313873e-01 -7.967067e-01 -7.783644e-02 -4.757976e-01 2.611080e-01 -1.736757e-01 5.732273e-01 9.777102e-02 8.462330e-01 3.269566e-01 1.068125e+00 5.029810e-01 1.227625e+00 6.160694e-01 1.314681e+00 6.580642e-01 1.321042e+00 6.229560e-01 1.240874e+00 5.074282e-01 1.071377e+00 3.113761e-01 8.133657e-01 3.834764e-02 4.717269e-01 -3.041572e-01 5.569672e-02 -7.045974e-01 -4.211214e-01 -1.147575e+00 -9.410591e-01 -1.614337e+00 -1.483042e+00 -2.083614e+00 -2.023603e+00 -2.532761e+00 -2.538208e+00 -2.939143e+00 -3.002786e+00 -3.281625e+00 -3.395348e+00 -3.542047e+00 -3.697504e+00 -3.706511e+00 -3.895753e+00 -3.766355e+00 -3.982381e+00 -3.718710e+00 -3.955895e+00 -3.566591e+00 -3.820952e+00 -3.318536e+00 -3.587824e+00 -2.987852e+00 -3.271460e+00 -2.591553e+00 -2.890280e+00 -2.149126e+00 -2.464823e+00 -1.681244e+00 -2.016394e+00 -1.208539e+00 -1.565816e+00 -7.505193e-01 -1.132376e+00 -3.247097e-01 -7.330188e-01 5.397684e-02 -3.817938e-01 3.736262e-01 -8.955288e-02 6.254944e-01 1.361396e-01 8.039995e-01 2.909254e-01 
3.169728e-01 -2.677829e-01 3.301784e-01 -2.730969e-01 2.653693e-01 -3.499678e-01 1.280144e-01 -4.919061e-01 -7.450172e-02 -6.906642e-01 -3.332177e-01 -9.365951e-01 -6.379155e-01 -1.218992e+00 -9.774247e-01 -1.526416e+00 -1.339917e+00 -1.847013e+00 -1.713200e+00 -2.168827e+00 -2.085013e+00 -2.480118e+00 -2.443336e+00 -2.769676e+00 -2.776710e+00 -3.027130e+00 -3.074557e+00 -3.243235e+00 -3.327496e+00 -3.410141e+00 -3.527632e+00 -3.521606e+00 -3.668803e+00 -3.573163e+00 -3.746769e+00 -3.562219e+00 -3.759326e+00 -3.488097e+00 -3.706350e+00 -3.352018e+00 -3.589766e+00 -3.157032e+00 -3.413451e+00 -2.907916e+00 -3.183097e+00 -2.611044e+00 -2.906031e+00 -2.274243e+00 -2.591023e+00 -1.906645e+00 -2.248078e+00 -1.518528e+00 -1.888222e+00 -1.121163e+00 -1.523290e+00 -7.266396e-01 -1.165688e+00 -3.476703e-01 -8.281464e-01 2.637764e-03 -5.234327e-01 3.110715e-01 -2.640200e-01 5.646700e-01 -6.169705e-02 7.511676e-01 7.288672e-02 8.595266e-01 1.307422e-01 8.805539e-01 1.051153e-01 8.075784e-01 -7.909251e-03 6.371511e-01 -2.088176e-01 3.697077e-01 -4.941487e-01 1.011999e-02 -8.561226e-01 -4.319504e-01 -1.282495e+00 -9.419838e-01 -1.756718e+00 -1.500895e+00 -2.258458e+00 -2.085733e+00 -2.764512e+00 -2.670800e+00 -3.250068e+00 -3.229122e+00 -3.690253e+00 -3.734177e+00 -4.061823e+00 -4.161720e+00 -4.344816e+00 -4.491502e+00 -4.524006e+00 -4.708714e+00 -4.589986e+00 -4.804993e+00 -4.539773e+00 -4.778888e+00 -4.376888e+00 -4.635756e+00 -4.110920e+00 -4.387127e+00 -3.756651e+00 -4.049622e+00 -3.332856e+00 -3.643586e+00 -2.860910e+00 -3.191566e+00 -2.363359e+00 -2.716799e+00 -1.862563e+00 -2.241847e+00 -1.379531e+00 -1.787453e+00 -9.329947e-01 -1.371687e+00 -5.387557e-01 -1.009377e+00 -2.093038e-01 -7.118251e-01 4.633454e-02 -4.867436e-01 2.225514e-01 -3.383836e-01 
1.093778e+00 5.392384e-01 1.114938e+00 5.418184e-01 1.055129e+00 4.696630e-01 9.202350e-01 3.296764e-01 7.180139e-01 1.304762e-01 4.577536e-01 -1.179696e-01 1.499524e-01 -4.046780e-01 -1.939760e-01 -7.179667e-01 -5.619838e-01 -1.045759e+00 -9.416675e-01 -1.375888e+00 -1.320555e+00 -1.696400e+00 -1.686405e+00 -1.995870e+00 -2.027531e+00 -2.263708e+00 -2.333119e+00 -2.490456e+00 -2.593559e+00 -2.668053e+00 -2.800743e+00 -2.790062e+00 -2.948318e+00 -2.851829e+00 -3.031879e+00 -2.850588e+00 -3.049094e+00 -2.785494e+00 -2.999737e+00 -2.657610e+00 -2.885656e+00 -2.469830e+00 -2.710685e+00 -2.226790e+00 -2.480500e+00 -1.934744e+00 -2.202449e+00 -1.601432e+00 -1.885367e+00 -1.235947e+00 -1.539382e+00 -8.485971e-01 -1.175705e+00 -4.507587e-01 -8.064319e-01 -5.472367e-02 -4.443107e-01 3.264850e-01 -1.024995e-01 6.793367e-01 2.057216e-01 9.900781e-01 4.672876e-01 1.245098e+00 6.697515e-01 1.431386e+00 8.017632e-01 1.537099e+00 8.536237e-01 1.552220e+00 8.179090e-01 1.469303e+00 6.901351e-01 1.284248e+00 4.694240e-01 9.970564e-01 1.591040e-01 6.124762e-01 -2.328352e-01 1.404435e-01 -6.935285e-01 -4.037818e-01 -1.205355e+00 -9.998795e-01 -1.746465e+00 -1.623196e+00 -2.291753e+00 -2.245948e+00 -2.814251e+00 -2.838854e+00 -3.286855e+00 -3.373064e+00 -3.684224e+00 -3.822215e+00 -3.984658e+00 -4.164379e+00 -4.171729e+00 -4.383686e+00 -4.235492e+00 -4.471439e+00 -4.173135e+00 -4.426603e+00 -3.989020e+00 -4.255633e+00 -3.694133e+00 -3.971703e+00 -3.305052e+00 -3.593439e+00 -2.842547e+00 -3.143340e+00 -2.330013e+00 -2.646064e+00 -1.791865e+00 -2.126759e+00 -1.252063e+00 -1.609570e+00 -7.328711e-01 -1.116446e+00 -2.539035e-01 -6.662613e-01 1.685149e-01 -2.742841e-01 5.216902e-01 4.806143e-02 7.966464e-01 2.931827e-01 9.880141e-01 4.571222e-01 
5.339228e-01 -7.657238e-02 5.398876e-01 -9.317467e-02 4.586867e-01 -1.900410e-01 2.969686e-01 -3.593735e-01 6.333990e-02 -5.915850e-01 -2.320013e-01 -8.756824e-01 -5.775963e-01 -1.199617e+00 -9.610281e-01 -1.550611e+00 -1.369208e+00 -1.915480e+00 -1.788661e+00 -2.280947e+00 -2.205822e+00 -2.633974e+00 -2.607358e+00 -2.962099e+00 -2.980509e+00 -3.253782e+00 -3.313454e+00 -3.498732e+00 -3.595678e+00 -3.688215e+00 -3.818317e+00 -3.815304e+00 -3.974460e+00 -3.875071e+00 -4.059374e+00 -3.864699e+00 -4.070645e+00 -3.783512e+00 -4.008220e+00 -3.632943e+00 -3.874352e+00 -3.416441e+00 -3.673482e+00 -3.139332e+00 -3.412050e+00 -2.808666e+00 -3.098287e+00 -2.433049e+00 -2.741978e+00 -2.022480e+00 -2.354242e+00 -1.588192e+00 -1.947297e+00 -1.142500e+00 -1.534247e+00 -6.986524e-01 -1.128852e+00 -2.706527e-01 -7.452883e-01 1.269416e-01 -3.978705e-01 4.792911e-01 -1.007220e-01 7.716292e-01 1.326286e-01 9.897285e-01 2.897390e-01 1.120490e+00 3.598399e-01 1.152659e+00 3.345114e-01 1.077646e+00 2.084276e-01 8.904107e-01 -1.987979e-02 5.903420e-01 -3.473080e-01 1.820361e-01 -7.656162e-01 -3.241412e-01 -1.261119e+00 -9.118317e-01 -1.814753e+00 -1.558917e+00 -2.402615e+00 -2.238291e+00 -2.997026e+00 -2.919189e+00 -3.568087e+00 -3.569036e+00 -4.085647e+00 -4.155648e+00 -4.521474e+00 -4.649589e+00 -4.851408e+00 -5.026404e+00 -5.057224e+00 -5.268477e+00 -5.127999e+00 -5.366287e+00 -5.060830e+00 -5.318937e+00 -4.860836e+00 -5.133928e+00 -4.540507e+00 -4.826233e+00 -4.118482e+00 -4.416822e+00 -3.617953e+00 -3.930848e+00 -3.064871e+00 -3.395689e+00 -2.486145e+00 -2.839069e+00 -1.908006e+00 -2.287406e+00 -1.354640e+00 -1.764506e+00 -8.471716e-01 -1.290639e+00 -4.030012e-01 -8.820016e-01 -3.548145e-02 -5.505090e-01 2.461304e-01 -3.038657e-01 4.365040e-01 -1.458248e-01 
1.331137e+00 7.506728e-01 1.344124e+00 7.407689e-01 1.266291e+00 6.467769e-01 1.104847e+00 4.770549e-01 8.688965e-01 2.416805e-01 5.690621e-01 -4.793358e-02 2.171648e-01 -3.793799e-01 -1.740651e-01 -7.395674e-01 -5.912542e-01 -1.115020e+00 -1.020650e+00 -1.492177e+00 -1.448401e+00 -1.857715e+00 -1.860869e+00 -2.198878e+00 -2.244974e+00 -2.503827e+00 -2.588569e+00 -2.761985e+00 -2.880818e+00 -2.964344e+00 -3.112565e+00 -3.103733e+00 -3.276647e+00 -3.175005e+00 -3.368128e+00 -3.175144e+00 -3.384441e+00 -3.103297e+00 -3.325420e+00 -2.960727e+00 -3.193251e+00 -2.750719e+00 -2.992339e+00 -2.478454e+00 -2.729129e+00 -2.150857e+00 -2.411900e+00 -1.776453e+00 -2.050542e+00 -1.365216e+00 -1.656346e+00 -9.284391e-01 -1.241786e+00 -4.785948e-01 -8.203126e-01 -2.920463e-02 -4.061371e-01 4.053177e-01 -1.399449e-02 8.098618e-01 3.411315e-01 1.168883e+00 6.443438e-01 1.466762e+00 8.812475e-01 1.688287e+00 1.038465e+00 1.819276e+00 1.104264e+00 1.847347e+00 1.069286e+00 1.762819e+00 9.273737e-01 1.559698e+00 6.764332e-01 1.236677e+00 3.192626e-01 7.980541e-01 -1.357580e-01 2.544235e-01 -6.742474e-01 -3.769896e-01 -1.275815e+00 -1.072501e+00 -1.914588e+00 -1.802753e+00 -2.560337e+00 -2.534159e+00 -3.180219e+00 -3.230954e+00 -3.740982e+00 -3.857700e+00 -4.211465e+00 -4.381981e+00 -4.565061e+00 -4.776968e+00 -4.781863e+00 -5.023549e+00 -4.850212e+00 -5.111741e+00 -4.767468e+00 -5.041251e+00 -4.539961e+00 -4.821140e+00 -4.182154e+00 -4.468692e+00 -3.715190e+00 -4.007658e+00 -3.165011e+00 -3.466141e+00 -2.560301e+00 -2.874368e+00 -1.930458e+00 -2.262579e+00 -1.303796e+00 -1.659235e+00 -7.060834e-01 -1.089634e+00 -1.595084e-01 -5.749917e-01 3.179544e-01 -1.319498e-01 7.127977e-01 2.275390e-01 1.015936e+00 4.960424e-01 1.222442e+00 6.702852e-01 
8.061083e-01 1.649182e-01 8.018852e-01 1.329494e-01 6.993117e-01 1.009429e-02 5.065495e-01 -1.941887e-01 2.337304e-01 -4.686507e-01 -1.074371e-01 -8.006563e-01 -5.040024e-01 -1.176535e+00 -9.420627e-01 -1.581901e+00 -1.407028e+00 -2.001961e+00 -1.883887e+00 -2.421832e+00 -2.357495e+00 -2.826880e+00 -2.812897e+00 -3.203092e+00 -3.235710e+00 -3.537458e+00 -3.612536e+00 -3.818369e+00 -3.931405e+00 -4.035973e+00 -4.182203e+00 -4.182487e+00 -4.357050e+00 -4.252418e+00 -4.450590e+00 -4.242685e+00 -4.460153e+00 -4.152650e+00 -4.385799e+00 -3.984047e+00 -4.230236e+00 -3.740852e+00 -3.998645e+00 -3.429100e+00 -3.698436e+00 -3.056693e+00 -3.338979e+00 -2.633191e+00 -2.931326e+00 -2.169639e+00 -2.487951e+00 -1.678394e+00 -2.022509e+00 -1.172995e+00 -1.549618e+00 -6.680311e-01 -1.084642e+00 -1.790103e-01 -6.434756e-01 2.778057e-01 -2.422883e-01 6.856317e-01 1.027924e-01 1.027494e+00 3.760842e-01 1.286705e+00 5.628703e-01 1.447512e+00 6.500559e-01 1.495919e+00 6.269642e-01 1.420693e+00 4.862582e-01 1.214490e+00 2.249380e-01 8.750328e-01 -1.546678e-01 4.062144e-01 -6.440433e-01 -1.810175e-01 -1.227914e+00 -8.681829e-01 -1.884138e+00 -1.629369e+00 -2.584221e+00 -2.432050e+00 -3.294547e+00 -3.238697e+00 -3.978339e+00 -4.009122e+00 -4.598211e+00 -4.703364e+00 -5.119056e+00 -5.284830e+00 -5.510917e+00 -5.723271e+00 -5.751467e+00 -5.997243e+00 -5.827776e+00 -6.095728e+00 -5.737168e+00 -6.018733e+00 -5.487105e+00 -5.776859e+00 -5.094175e+00 -5.389941e+00 -4.582382e+00 -4.884985e+00 -3.980964e+00 -4.293713e+00 -3.322029e+00 -3.649992e+00 -2.638257e+00 -2.987447e+00 -1.960885e+00 -2.337453e+00 -1.318101e+00 -1.727627e+00 -7.339352e-01 -1.180858e+00 -2.276155e-01 -7.148395e-01 1.866426e-01 -3.420135e-01 4.995212e-01 -6.982933e-02 7.062487e-01 9.879761e-02 
1.626011e+00 1.014957e+00 1.627481e+00 9.880659e-01 1.526253e+00 8.658378e-01 1.331222e+00 6.584568e-01 1.053146e+00 3.777885e-01 7.042601e-01 3.698159e-02 2.979473e-01 -3.498647e-01 -1.515212e-01 -7.679923e-01 -6.292211e-01 -1.202262e+00 -1.119809e+00 -1.637445e+00 -1.607783e+00 -2.058548e+00 -2.077803e+00 -2.451177e+00 -2.515060e+00 -2.801941e+00 -2.905720e+00 -3.098855e+00 -3.237389e+00 -3.331728e+00 -3.499569e+00 -3.492483e+00 -3.684062e+00 -3.575376e+00 -3.785264e+00 -3.577116e+00 -3.800335e+00 -3.496878e+00 -3.729221e+00 -3.336217e+00 -3.574567e+00 -3.098936e+00 -3.341530e+00 -2.790907e+00 -3.037538e+00 -2.419889e+00 -2.672029e+00 -1.995348e+00 -2.256187e+00 -1.528305e+00 -1.802702e+00 -1.031191e+00 -1.325545e+00 -5.177369e-01 -8.397605e-01 -2.868971e-03 -3.612740e-01 4.974056e-01 9.332774e-02 9.661443e-01 5.070443e-01 1.385688e+00 8.627784e-01 1.737991e+00 1.143750e+00 2.005110e+00 1.334037e+00 2.169880e+00 1.419272e+00 2.216802e+00 1.387503e+00 2.133140e+00 1.230206e+00 1.910177e+00 9.434127e-01 1.544555e+00 5.288606e-01 1.039566e+00 -4.967794e-03 4.062407e-01 -6.420963e-01 -3.360033e-01 -1.358808e+00 -1.159335e+00 -2.124104e+00 -2.028318e+00 -2.901006e+00 -2.901644e+00 -3.648737e+00 -3.734762e+00 -4.325635e+00 -4.483193e+00 -4.892508e+00 -5.106166e+00 -5.315976e+00 -5.570100e+00 -5.571371e+00 -5.851463e+00 -5.644769e+00 -5.938624e+00 -5.533922e+00 -5.832485e+00 -5.248035e+00 -5.545879e+00 -4.806496e+00 -5.101890e+00 -4.236787e+00 -4.531379e+00 -3.571913e+00 -3.870087e+00 -2.847652e+00 -3.155684e+00 -2.099956e+00 -2.425074e+00 -1.362718e+00 -1.712203e+00 -6.660672e-01 -1.046479e+00 -3.525350e-02 -4.518308e-01 5.099287e-01 5.366771e-02 9.552393e-01 4.577160e-01 1.291740e+00 7.533801e-01 1.515305e+00 9.384913e-01 