# vtk DataFile Version 2.0
Comment goes here
ASCII

DATASET STRUCTURED_POINTS
FIELD FieldData 1
TIME 1 1 double
0.17500000
DIMENSIONS    128   128   1

ORIGIN    0.000   0.000   0.000
SPACING   0.039062 0.039062   1.000

POINT_DATA   16384
SCALARS P double
LOOKUP_TABLE default

2.813345e+00 3.153129e+00 2.805059e+00 3.130102e+00 2.773525e+00 3.081477e+00 2.719160e+00 3.008055e+00 2.642733e+00 2.910981e+00 2.545330e+00 2.791698e+00 2.428319e+00 2.651912e+00 2.293321e+00 2.493551e+00 2.142178e+00 2.318731e+00 1.976926e+00 2.129734e+00 1.799778e+00 1.928972e+00 1.613095e+00 1.718976e+00 1.419378e+00 1.502373e+00 1.221245e+00 1.281876e+00 1.021418e+00 1.060269e+00 8.227063e-01 8.403903e-01 6.279740e-01 6.251106e-01 4.401122e-01 4.173043e-01 2.619892e-01 2.198046e-01 9.639079e-02 3.534769e-02 -5.405402e-02 -1.334973e-01 -1.869586e-01 -2.844083e-01 -3.002719e-01 -4.153970e-01 -3.923723e-01 -5.248942e-01 -4.621558e-01 -6.118275e-01 -5.091081e-01 -6.756827e-01 -5.333543e-01 -7.165418e-01 -5.356792e-01 -7.350915e-01 -5.175115e-01 -7.325991e-01 -4.808714e-01 -7.108539e-01 -4.282809e-01 -6.720763e-01 -3.626403e-01 -6.187981e-01 -2.870765e-01 -5.537215e-01 -2.047723e-01 -4.795633e-01 -1.187872e-01 -3.988968e-01 -3.188061e-02 -3.139994e-01 5.364997e-02 -2.267180e-01 1.361032e-01 -1.383626e-01 2.144709e-01 -4.963523e-02 2.884878e-01 3.939571e-02 3.586293e-01 1.292744e-01 4.260538e-01 2.210863e-01 4.924920e-01 3.163408e-01 5.600891e-01 4.168137e-01 6.312114e-01 5.243608e-01 7.082307e-01 6.407176e-01 7.933050e-01 7.673011e-01 8.881745e-01 9.050323e-01 9.939887e-01 1.054195e+00 1.111182e+00 1.214344e+00 1.239407e+00 1.384273e+00 1.377526e+00 1.562041e+00 1.523669e+00 1.745051e+00 1.675332e+00 1.930183e+00 1.829525e+00 2.113943e+00 1.982932e+00 2.292643e+00 2.132080e+00 2.462567e+00 2.273510e+00 2.620135e+00 2.403915e+00 2.762032e+00 2.520264e+00 2.885320e+00 2.619891e+00 2.987512e+00 2.700555e+00 3.066612e+00 2.760479e+00 3.121143e+00 2.798355e+00 3.150140e+00 
2.622923e+00 2.957275e+00 2.622805e+00 2.942991e+00 2.599284e+00 2.902986e+00 2.552676e+00 2.837962e+00 2.483664e+00 2.748978e+00 2.393260e+00 2.637404e+00 2.282769e+00 2.504883e+00 2.153760e+00 2.353293e+00 2.008033e+00 2.184713e+00 1.847594e+00 2.001388e+00 1.674630e+00 1.805712e+00 1.491492e+00 1.600201e+00 1.300673e+00 1.387475e+00 1.104795e+00 1.170252e+00 9.065939e-01 9.513235e-01 7.088976e-01 7.335483e-01 5.146022e-01 5.198248e-01 3.266368e-01 3.130613e-01 1.479159e-01 1.161317e-01 -1.872246e-02 -6.818293e-02 -1.705931e-01 -2.372662e-01 -3.052517e-01 -3.887495e-01 -4.205912e-01 -5.206016e-01 -5.149387e-01 -6.312172e-01 -5.871467e-01 -7.194973e-01 -6.366679e-01 -7.849132e-01 -6.636075e-01 -8.275460e-01 -6.687436e-01 -8.480961e-01 -6.535127e-01 -8.478585e-01 -6.199561e-01 -8.286630e-01 -5.706279e-01 -7.927809e-01 -5.084690e-01 -7.428016e-01 -4.366522e-01 -6.814878e-01 -3.584068e-01 -6.116152e-01 -2.768354e-01 -5.358087e-01 -1.947322e-01 -4.563860e-01 -1.144178e-01 -3.752175e-01 -3.760023e-02 -2.936156e-01 3.472458e-02 -2.122603e-01 1.023252e-01 -1.311701e-01 1.657338e-01 -4.972216e-02 2.261884e-01 3.327737e-02 2.855216e-01 1.194741e-01 3.460005e-01 2.108051e-01 4.101297e-01 3.093082e-01 4.804315e-01 4.169148e-01 5.592210e-01 5.352445e-01 6.483956e-01 6.654186e-01 7.492557e-01 8.079101e-01 8.623737e-01 9.624438e-01 9.875200e-01 1.127955e+00 1.123652e+00 1.302611e+00 1.268963e+00 1.483884e+00 1.420982e+00 1.668683e+00 1.576719e+00 1.853503e+00 1.732824e+00 2.034606e+00 1.885764e+00 2.208194e+00 2.031990e+00 2.370577e+00 2.168085e+00 2.518307e+00 2.290893e+00 2.648300e+00 2.397610e+00 2.757911e+00 2.485855e+00 2.844989e+00 2.553706e+00 2.907901e+00 2.599719e+00 2.945533e+00 
2.824819e+00 3.165957e+00 2.816492e+00 3.142697e+00 2.784728e+00 3.093653e+00 2.729965e+00 3.019650e+00 2.652992e+00 2.921856e+00 2.554912e+00 2.801734e+00 2.437111e+00 2.661009e+00 2.301222e+00 2.501622e+00 2.149097e+00 2.325703e+00 1.982781e+00 2.135538e+00 1.804489e+00 1.933547e+00 1.616589e+00 1.722263e+00 1.421581e+00 1.504315e+00 1.222091e+00 1.282422e+00 1.020846e+00 1.059371e+00 8.206677e-01 8.380145e-01 6.244400e-01 6.212408e-01 4.350808e-01 4.119500e-01 2.554933e-01 2.130089e-01 8.850616e-02 2.719443e-02 -6.320297e-02 -1.428785e-01 -1.971955e-01 -2.948399e-01 -3.113689e-01 -4.266545e-01 -4.040547e-01 -5.367120e-01 -4.741104e-01 -6.239080e-01 -5.209965e-01 -6.877097e-01 -5.448291e-01 -7.281959e-01 -5.464024e-01 -7.460679e-01 -5.271742e-01 -7.426254e-01 -4.892131e-01 -7.197069e-01 -4.351071e-01 -6.795966e-01 -3.678360e-01 -6.249014e-01 -2.906163e-01 -5.584047e-01 -2.067246e-01 -4.829068e-01 -1.193120e-01 -4.010597e-01 -3.122130e-02 -3.152102e-01 5.518133e-02 -2.272595e-01 1.381460e-01 -1.385521e-01 2.166406e-01 -4.980174e-02 2.904036e-01 3.893729e-02 3.599428e-01 1.282484e-01 4.264759e-01 2.192801e-01 4.918166e-01 3.136244e-01 5.582107e-01 4.131531e-01 6.281344e-01 5.198245e-01 7.040705e-01 6.354733e-01 7.882791e-01 7.616047e-01 8.825849e-01 8.992080e-01 9.881976e-01 1.048610e+00 1.105583e+00 1.209380e+00 1.234393e+00 1.380296e+00 1.373463e+00 1.559375e+00 1.520869e+00 1.743957e+00 1.674037e+00 1.930841e+00 1.829893e+00 2.116449e+00 1.985037e+00 2.297006e+00 2.135915e+00 2.468719e+00 2.278994e+00 2.627937e+00 2.410907e+00 2.771294e+00 2.528578e+00 2.895813e+00 2.629309e+00 2.998982e+00 2.710842e+00 3.078799e+00 2.771394e+00 3.133787e+00 2.809662e+00 3.162991e+00 
2.645915e+00 2.982939e+00 2.645826e+00 2.968302e+00 2.621943e+00 2.927558e+00 2.574625e+00 2.861458e+00 2.504595e+00 2.771105e+00 2.412900e+00 2.657915e+00 2.300880e+00 2.523566e+00 2.170130e+00 2.369966e+00 2.022471e+00 2.199216e+00 1.859926e+00 2.013580e+00 1.684691e+00 1.815460e+00 1.499122e+00 1.607378e+00 1.305719e+00 1.391962e+00 1.107114e+00 1.171933e+00 9.060552e-01 9.500989e-01 7.053962e-01 7.293413e-01 5.080715e-01 5.125953e-01 3.170650e-01 3.028222e-01 1.353629e-01 1.029647e-01 -3.410940e-02 -8.411251e-02 -1.885665e-01 -2.556985e-01 -3.254574e-01 -4.093257e-01 -4.425687e-01 -5.428662e-01 -5.381304e-01 -6.546291e-01 -6.109159e-01 -7.434495e-01 -6.603252e-01 -8.087593e-01 -6.864441e-01 -8.506329e-01 -6.900695e-01 -8.698000e-01 -6.726969e-01 -8.676218e-01 -6.364663e-01 -8.460289e-01 -5.840660e-01 -8.074237e-01 -5.186004e-01 -7.545495e-01 -4.434252e-01 -6.903369e-01 -3.619616e-01 -6.177325e-01 -2.774999e-01 -5.395244e-01 -1.930054e-01 -4.581736e-01 -1.109397e-01 -3.756636e-01 -3.311124e-02 -2.933797e-01 3.943394e-02 -2.120276e-01 1.064706e-01 -1.315997e-01 1.685950e-01 -5.139485e-02 2.271652e-01 2.990811e-02 2.841817e-01 1.141230e-01 3.421162e-01 2.033841e-01 4.036980e-01 2.999399e-01 4.716766e-01 4.059282e-01 5.485775e-01 5.231533e-01 6.364739e-01 6.528823e-01 7.367932e-01 7.956833e-01 8.501763e-01 9.513170e-01 9.764001e-01 1.118695e+00 1.114370e+00 1.295903e+00 1.262174e+00 1.480290e+00 1.417204e+00 1.668606e+00 1.576301e+00 1.857171e+00 1.735943e+00 2.042072e+00 1.892431e+00 2.219348e+00 2.042065e+00 2.385164e+00 2.181303e+00 2.535960e+00 2.306891e+00 2.668569e+00 2.415957e+00 2.780294e+00 2.506081e+00 2.868960e+00 2.575327e+00 2.932933e+00 2.622255e+00 2.971118e+00 
2.859443e+00 3.204644e+00 2.850972e+00 3.180660e+00 2.818498e+00 3.130334e+00 2.762519e+00 3.054564e+00 2.683886e+00 2.954586e+00 2.583759e+00 2.831930e+00 2.463572e+00 2.688371e+00 2.324999e+00 2.525896e+00 2.169922e+00 2.346668e+00 2.000406e+00 2.152996e+00 1.818682e+00 1.947314e+00 1.627125e+00 1.732162e+00 1.428243e+00 1.510177e+00 1.224671e+00 1.284084e+00 1.019158e+00 1.056692e+00 8.145612e-01 8.308833e-01 6.138201e-01 6.096014e-01 4.199329e-01 3.958232e-01 2.359089e-01 1.925172e-01 6.470680e-02 2.584107e-03 -9.084703e-02 -1.712207e-01 -2.281547e-01 -3.263794e-01 -3.449550e-01 -4.607126e-01 -4.394341e-01 -5.724822e-01 -5.103312e-01 -6.604848e-01 -5.570272e-01 -7.241283e-01 -5.796089e-01 -7.634809e-01 -5.788978e-01 -7.792872e-01 -5.564396e-01 -7.729447e-01 -5.144498e-01 -7.464422e-01 -4.557166e-01 -7.022587e-01 -3.834643e-01 -6.432302e-01 -3.011831e-01 -5.723902e-01 -2.124369e-01 -4.927934e-01 -1.206581e-01 -4.073346e-01 -2.894572e-02 -3.185739e-01 6.012212e-02 -2.285800e-01 1.446455e-01 -1.388048e-01 2.235176e-01 -4.999842e-02 2.964874e-01 3.782610e-02 3.641606e-01 1.253720e-01 4.279371e-01 2.139809e-01 4.898853e-01 3.054986e-01 5.525605e-01 4.020935e-01 6.187785e-01 5.060389e-01 6.913639e-01 6.194769e-01 7.728918e-01 7.441844e-01 8.654477e-01 8.813622e-01 9.704259e-01 1.031470e+00 1.088387e+00 1.194119e+00 1.218983e+00 1.368040e+00 1.360960e+00 1.551117e+00 1.512228e+00 1.740492e+00 1.669992e+00 1.932721e+00 1.830926e+00 2.123959e+00 1.991364e+00 2.310169e+00 2.147503e+00 2.487313e+00 2.295589e+00 2.651536e+00 2.432073e+00 2.799310e+00 2.553739e+00 2.927542e+00 2.657797e+00 3.033654e+00 2.741941e+00 3.115616e+00 2.804371e+00 3.171962e+00 2.843802e+00 3.201771e+00 
2.692313e+00 3.034685e+00 2.692241e+00 3.019292e+00 2.667593e+00 2.977019e+00 2.618812e+00 2.908717e+00 2.546703e+00 2.815584e+00 2.452392e+00 2.699122e+00 2.337284e+00 2.561084e+00 2.203029e+00 2.403439e+00 2.051492e+00 2.228334e+00 1.884723e+00 2.038063e+00 1.704936e+00 1.835047e+00 1.514500e+00 1.621818e+00 1.315921e+00 1.401011e+00 1.111845e+00 1.175357e+00 9.050445e-01 9.476875e-01 6.984202e-01 7.209268e-01 4.949812e-01 4.980823e-01 2.978199e-01 2.822201e-01 1.100670e-01 7.642286e-02 -6.517314e-02 -1.162737e-01 -2.249098e-01 -2.929640e-01 -3.663707e-01 -4.509746e-01 -4.871217e-01 -5.879762e-01 -5.851897e-01 -7.020989e-01 -6.591817e-01 -7.920380e-01 -7.083854e-01 -8.571413e-01 -7.328430e-01 -8.974664e-01 -7.333870e-01 -9.138008e-01 -7.116317e-01 -9.076398e-01 -6.699181e-01 -8.811207e-01 -6.112100e-01 -8.369147e-01 -5.389473e-01 -7.780824e-01 -4.568630e-01 -7.079001e-01 -3.687744e-01 -6.296682e-01 -2.783604e-01 -5.465122e-01 -1.889407e-01 -4.611910e-01 -1.032712e-01 -3.759237e-01 -2.336980e-02 -2.922487e-01 4.961115e-02 -2.109277e-01 1.154566e-01 -1.319018e-01 1.748938e-01 -5.430927e-02 2.295280e-01 2.343325e-02 2.817079e-01 1.034883e-01 3.343297e-01 1.884001e-01 3.905910e-01 2.808560e-01 4.537146e-01 3.834252e-01 5.266646e-01 4.982971e-01 6.118803e-01 6.270439e-01 7.110524e-01 7.704307e-01 8.249619e-01 9.282920e-01 9.533963e-01 1.099486e+00 1.095147e+00 1.281928e+00 1.248084e+00 1.472703e+00 1.409299e+00 1.668227e+00 1.575290e+00 1.864460e+00 1.742175e+00 2.057122e+00 1.905909e+00 2.241913e+00 2.062485e+00 2.414709e+00 2.208104e+00 2.571720e+00 2.339316e+00 2.709610e+00 2.453119e+00 2.825584e+00 2.547014e+00 2.917421e+00 2.619041e+00 2.983495e+00 2.667775e+00 3.022751e+00 
2.917824e+00 3.269797e+00 2.909043e+00 3.244522e+00 2.875309e+00 3.191973e+00 2.817231e+00 3.113176e+00 2.735766e+00 3.009486e+00 2.632170e+00 2.882541e+00 2.507960e+00 2.734207e+00 2.364876e+00 2.566547e+00 2.204852e+00 2.381776e+00 2.029987e+00 2.182242e+00 1.842531e+00 1.970396e+00 1.644868e+00 1.748790e+00 1.439513e+00 1.520063e+00 1.229114e+00 1.286949e+00 1.016447e+00 1.052281e+00 8.044207e-01 8.189912e-01 5.960659e-01 5.901082e-01 3.945129e-01 3.687369e-01 2.029498e-01 1.580181e-01 2.455749e-02 -3.893458e-02 -1.375802e-01 -2.191221e-01 -2.805878e-01 -3.797679e-01 -4.019254e-01 -5.184388e-01 -4.995226e-01 -6.331697e-01 -5.719073e-01 -7.225800e-01 -6.183171e-01 -7.859696e-01 -6.387815e-01 -8.233836e-01 -6.341642e-01 -8.356368e-01 -6.061582e-01 -8.242938e-01 -5.572303e-01 -7.916009e-01 -4.905139e-01 -7.403737e-01 -4.096548e-01 -6.738451e-01 -3.186186e-01 -5.954824e-01 -2.214682e-01 -5.087836e-01 -1.221270e-01 -4.170671e-01 -2.414223e-02 -3.232666e-01 6.953576e-02 -2.297460e-01 1.567412e-01 -1.381487e-01 2.362331e-01 -4.929271e-02 3.077737e-01 3.687657e-02 3.721366e-01 1.212682e-01 4.310378e-01 2.055590e-01 4.869908e-01 2.920388e-01 5.430934e-01 3.833966e-01 6.027588e-01 4.824609e-01 6.694138e-01 5.919163e-01 7.461885e-01 7.140198e-01 8.356273e-01 8.503461e-01 9.394481e-01 1.001587e+00 1.058374e+00 1.167428e+00 1.192051e+00 1.346507e+00 1.339061e+00 1.536473e+00 1.497015e+00 1.734111e+00 1.662723e+00 1.935544e+00 1.832411e+00 2.136460e+00 2.001951e+00 2.332360e+00 2.167107e+00 2.518785e+00 2.323739e+00 2.691528e+00 2.467990e+00 2.846785e+00 2.596414e+00 2.981278e+00 2.706070e+00 3.092318e+00 2.794575e+00 3.177843e+00 2.860116e+00 3.236406e+00 2.901439e+00 3.267158e+00 
2.762951e+00 3.113351e+00 2.762798e+00 3.096694e+00 2.736891e+00 3.051998e+00 2.685806e+00 2.980269e+00 2.610478e+00 2.882853e+00 2.512153e+00 2.761384e+00 2.392340e+00 2.617733e+00 2.252772e+00 2.453959e+00 2.095376e+00 2.272277e+00 1.922244e+00 2.075026e+00 1.735613e+00 1.864651e+00 1.537861e+00 1.643690e+00 1.331498e+00 1.414779e+00 1.119178e+00 1.180655e+00 9.037042e-01 9.441736e-01 6.880350e-01 7.083152e-01 4.752858e-01 4.761892e-01 2.687095e-01 2.510179e-01 7.165699e-02 3.609737e-02 -1.124908e-01 -1.652697e-01 -2.804201e-01 -3.498706e-01 -4.290083e-01 -5.147036e-01 -5.554677e-01 -6.571162e-01 -6.574979e-01 -7.749480e-01 -7.334348e-01 -8.666662e-01 -7.823801e-01 -9.314773e-01 -8.042982e-01 -9.694049e-01 -8.000690e-01 -9.813211e-01 -7.714876e-01 -9.689275e-01 -7.212058e-01 -9.346833e-01 -6.526171e-01 -8.816811e-01 -5.696886e-01 -8.134801e-01 -4.767477e-01 -7.339025e-01 -3.782373e-01 -6.468079e-01 -2.784529e-01 -5.558577e-01 -1.812785e-01 -4.642857e-01 -8.994065e-02 -3.746889e-01 -6.795932e-03 -2.888555e-01 6.682820e-02 -2.076423e-01 1.307261e-01 -1.309159e-01 1.858280e-01 -5.756560e-02 2.341284e-01 1.440584e-02 2.785291e-01 8.771505e-02 3.226043e-01 1.655614e-01 3.703015e-01 2.513369e-01 4.256035e-01 3.483045e-01 4.921787e-01 4.592746e-01 5.730533e-01 5.863103e-01 6.703374e-01 7.304921e-01 7.850310e-01 8.917681e-01 9.169287e-01 1.068903e+00 1.064629e+00 1.259532e+00 1.225639e+00 1.460304e+00 1.396565e+00 1.667098e+00 1.573346e+00 1.875287e+00 1.751526e+00 2.080011e+00 1.926513e+00 2.276437e+00 2.093817e+00 2.459987e+00 2.249247e+00 2.626520e+00 2.389060e+00 2.772455e+00 2.510055e+00 2.894850e+00 2.609633e+00 2.991433e+00 2.685806e+00 3.060596e+00 2.737186e+00 3.101364e+00 
3.000979e+00 3.362432e+00 2.991607e+00 3.335163e+00 2.955949e+00 3.279318e+00 2.894779e+00 3.196107e+00 2.809206e+00 3.087063e+00 2.700629e+00 2.953977e+00 2.570685e+00 2.798850e+00 2.421210e+00 2.623846e+00 2.254206e+00 2.431259e+00 2.071818e+00 2.223482e+00 1.876316e+00 2.002990e+00 1.670088e+00 1.772335e+00 1.455649e+00 1.534150e+00 1.235646e+00 1.291166e+00 1.012880e+00 1.046236e+00 7.903217e-01 8.023470e-01 5.711177e-01 5.626402e-01 3.585803e-01 3.303966e-01 1.561520e-01 1.090039e-01 -3.266273e-02 -9.811234e-02 -2.043998e-01 -2.875906e-01 -3.557682e-01 -4.562647e-01 -4.838072e-01 -6.013157e-01 -5.860550e-01 -7.204311e-01 -6.607135e-01 -8.119551e-01 -7.067945e-01 -8.750156e-01 -7.242299e-01 -9.096127e-01 -7.139344e-01 -9.166572e-01 -6.778101e-01 -8.979540e-01 -6.186884e-01 -8.561267e-01 -5.402093e-01 -7.944874e-01 -4.466421e-01 -7.168567e-01 -3.426569e-01 -6.273469e-01 -2.330604e-01 -5.301173e-01 -1.225104e-01 -4.291207e-01 -1.522800e-02 -3.278534e-01 8.527327e-02 -2.291280e-01 1.764213e-01 -1.348830e-01 2.567640e-01 -4.604844e-02 3.260741e-01 3.752181e-02 3.853689e-01 1.170374e-01 4.368332e-01 1.946733e-01 4.836484e-01 2.733859e-01 5.297305e-01 3.566509e-01 5.793981e-01 4.481406e-01 6.369930e-01 5.513663e-01 7.064891e-01 6.693184e-01 7.911272e-01 8.041417e-01 8.931123e-01 9.568804e-01 1.013406e+00 1.127323e+00 1.151632e+00 1.313961e+00 1.306105e+00 1.514067e+00 1.473971e+00 1.723878e+00 1.651426e+00 1.938847e+00 1.834010e+00 2.153953e+00 2.016899e+00 2.363999e+00 2.195205e+00 2.563909e+00 2.364231e+00 2.748955e+00 2.519672e+00 2.914948e+00 2.657761e+00 3.058349e+00 2.775358e+00 3.176333e+00 2.869984e+00 3.266804e+00 2.939823e+00 3.328370e+00 2.983690e+00 3.360294e+00 
2.859088e+00 3.220198e+00 2.858619e+00 3.201608e+00 2.830816e+00 3.153430e+00 2.776447e+00 3.076890e+00 2.696634e+00 2.973545e+00 2.592787e+00 2.845215e+00 2.466560e+00 2.693927e+00 2.319801e+00 2.521866e+00 2.154520e+00 2.331338e+00 1.972858e+00 2.124735e+00 1.777077e+00 1.904523e+00 1.569552e+00 1.673240e+00 1.352783e+00 1.433503e+00 1.129417e+00 1.188037e+00 9.022718e-01 9.397070e-01 6.743687e-01 6.915514e-01 4.489497e-01 4.468023e-01 2.294761e-01 2.088866e-01 1.959734e-02 -1.860732e-02 -1.769201e-01 -2.320022e-01 -3.563040e-01 -4.276457e-01 -5.149270e-01 -6.020602e-01 -6.494867e-01 -7.521196e-01 -7.572014e-01 -8.752342e-01 -8.360032e-01 -9.695287e-01 -8.847103e-01 -1.033992e+00 -9.031592e-01 -1.068586e+00 -8.922819e-01 -1.074290e+00 -8.541174e-01 -1.053091e+00 -7.917505e-01 -1.007899e+00 -7.091806e-01 -9.424060e-01 -6.111221e-01 -8.608785e-01 -5.027499e-01 -7.679188e-01 -3.894030e-01 -6.681881e-01 -2.762635e-01 -5.661194e-01 -1.680319e-01 -4.656344e-01 -6.861995e-02 -3.698830e-01 1.911664e-02 -2.810243e-01 9.358474e-02 -2.000667e-01 1.545790e-01 -1.267832e-01 2.033108e-01 -5.971585e-02 2.423292e-01 3.722663e-03 2.753336e-01 6.704799e-02 3.068820e-01 1.344121e-01 3.420167e-01 2.102374e-01 3.858324e-01 2.988063e-01 4.430293e-01 4.038431e-01 5.174918e-01 5.281324e-01 6.119379e-01 6.732147e-01 7.276757e-01 8.391962e-01 8.644928e-01 1.024691e+00 1.020683e+00 1.226902e+00 1.193203e+00 1.441826e+00 1.377928e+00 1.664542e+00 1.569975e+00 1.889562e+00 1.764051e+00 2.111182e+00 1.954778e+00 2.323810e+00 2.136989e+00 2.522237e+00 2.305950e+00 2.701842e+00 2.457525e+00 2.858720e+00 2.588267e+00 2.989755e+00 2.695456e+00 3.092626e+00 2.777095e+00 3.165780e+00 2.831869e+00 3.208373e+00 
3.110342e+00 3.483976e+00 3.099928e+00 3.453810e+00 3.061508e+00 3.393396e+00 2.996083e+00 3.304202e+00 2.904977e+00 3.187995e+00 2.789779e+00 3.046776e+00 2.652286e+00 2.882722e+00 2.494461e+00 2.698135e+00 2.318394e+00 2.495405e+00 2.126282e+00 2.276979e+00 1.920410e+00 2.045348e+00 1.703158e+00 1.803051e+00 1.477013e+00 1.552689e+00 1.244600e+00 1.296965e+00 1.008725e+00 1.038724e+00 7.724120e-01 7.810046e-01 5.389376e-01 5.270719e-01 3.118410e-01 2.804289e-01 9.489729e-02 4.478950e-02 -1.079517e-01 -1.759950e-01 -2.927163e-01 -3.780580e-01 -4.555230e-01 -5.576827e-01 -5.928137e-01 -7.114988e-01 -7.015642e-01 -8.366913e-01 -7.795027e-01 -9.312015e-01 -8.253042e-01 -9.938984e-01 -8.387431e-01 -1.024701e+00 -8.207848e-01 -1.024638e+00 -7.736040e-01 -9.958352e-01 -7.005243e-01 -9.414320e-01 -6.058787e-01 -8.654229e-01 -4.947956e-01 -7.724422e-01 -3.729226e-01 -6.674976e-01 -2.461025e-01 -5.556715e-01 -1.200215e-01 -4.418064e-01 1.494437e-04 -3.301935e-01 1.100963e-01 -2.242853e-01 2.066615e-01 -1.264510e-01 2.880785e-01 -3.779640e-02 3.541166e-01 4.193420e-02 4.061193e-01 1.143569e-01 4.469213e-01 1.823381e-01 4.806412e-01 2.497712e-01 5.123546e-01 3.212487e-01 5.476701e-01 4.016494e-01 5.922388e-01 4.956726e-01 6.512437e-01 6.073655e-01 7.289212e-01 7.396932e-01 8.281659e-01 8.942018e-01 9.502644e-01 1.070817e+00 1.094785e+00 1.267799e+00 1.259634e+00 1.481863e+00 1.441257e+00 1.708431e+00 1.634956e+00 1.941988e+00 1.835279e+00 2.176491e+00 2.036413e+00 2.405767e+00 2.232567e+00 2.623875e+00 2.418276e+00 2.825394e+00 2.588647e+00 3.005625e+00 2.739502e+00 3.160710e+00 2.867462e+00 3.287674e+00 2.969961e+00 3.384414e+00 3.045212e+00 3.449640e+00 3.092147e+00 3.482798e+00 
2.982421e+00 3.356919e+00 2.981199e+00 3.335487e+00 2.950657e+00 3.282532e+00 2.891829e+00 3.199580e+00 2.806081e+00 3.088463e+00 2.695051e+00 2.951246e+00 2.560578e+00 2.790162e+00 2.404658e+00 2.607559e+00 2.229405e+00 2.405852e+00 2.037018e+00 2.187495e+00 1.829772e+00 1.954969e+00 1.610023e+00 1.710783e+00 1.380228e+00 1.457505e+00 1.142989e+00 1.197808e+00 9.011088e-01 9.345323e-01 6.576513e-01 6.707531e-01 4.159908e-01 4.098323e-01 1.798373e-01 1.554440e-01 -4.678041e-02 -8.844735e-02 -2.595862e-01 -3.176642e-01 -4.541875e-01 -5.279531e-01 -6.262617e-01 -7.151762e-01 -7.717884e-01 -8.755409e-01 -8.873060e-01 -1.005847e+00 -9.701686e-01 -1.103726e+00 -1.018779e+00 -1.167845e+00 -1.032771e+00 -1.198054e+00 -1.013122e+00 -1.195463e+00 -9.621810e-01 -1.162432e+00 -8.836047e-01 -1.102473e+00 -7.822037e-01 -1.020083e+00 -6.637025e-01 -9.204905e-01 -5.344274e-01 -8.093586e-01 -4.009413e-01 -6.924446e-01 -2.696441e-01 -5.752420e-01 -1.463649e-01 -4.626252e-01 -3.597158e-02 -3.585185e-01 5.797419e-02 -2.656120e-01 1.334899e-01 -1.851471e-01 1.903466e-01 -1.167931e-01 2.301220e-01 -5.863540e-02 2.561170e-01 -7.287019e-03 2.731279e-01 4.186813e-02 2.870809e-01 9.430807e-02 3.045493e-01 1.559016e-01 3.321913e-01 2.323699e-01 3.761597e-01 3.287318e-01 4.415441e-01 4.487930e-01 5.319080e-01 5.947386e-01 6.489726e-01 7.668824e-01 7.924840e-01 9.636008e-01 9.602704e-01 1.181458e+00 1.148475e+00 1.415499e+00 1.351921e+00 1.659657e+00 1.564556e+00 1.907229e+00 1.779914e+00 2.151342e+00 1.991546e+00 2.385371e+00 2.193379e+00 2.603271e+00 2.379978e+00 2.799809e+00 2.546718e+00 2.970695e+00 2.689867e+00 3.112624e+00 2.806594e+00 3.223258e+00 2.894934e+00 3.301160e+00 2.953704e+00 3.345693e+00 
3.247773e+00 3.636263e+00 3.235619e+00 3.602019e+00 3.193356e+00 3.535493e+00 3.122287e+00 3.438492e+00 3.024019e+00 3.313091e+00 2.900386e+00 3.161559e+00 2.753391e+00 2.986297e+00 2.585156e+00 2.789780e+00 2.397881e+00 2.574513e+00 2.193816e+00 2.343005e+00 1.975253e+00 2.097751e+00 1.744533e+00 1.841244e+00 1.504077e+00 1.576010e+00 1.256440e+00 1.304671e+00 1.004384e+00 1.030019e+00 7.509576e-01 7.551075e-01 4.995620e-01 4.833231e-01 2.539965e-01 2.184271e-01 1.845045e-02 -3.545530e-02 -2.025667e-01 -2.739134e-01 -4.043644e-01 -4.923993e-01 -5.822770e-01 -6.864407e-01 -7.319226e-01 -8.519003e-01 -8.494927e-01 -9.852568e-01 -9.320442e-01 -1.083877e+00 -9.777645e-01 -1.146249e+00 -9.861820e-01 -1.172156e+00 -9.582981e-01 -1.162761e+00 -8.966262e-01 -1.120603e+00 -8.051289e-01 -1.049497e+00 -6.890525e-01 -9.543469e-01 -5.546681e-01 -8.408715e-01 -4.089316e-01 -7.152807e-01 -2.590810e-01 -5.839008e-01 -1.121958e-01 -4.527810e-01 2.525684e-02 -3.272996e-01 1.478591e-01 -2.117960e-01 2.516334e-01 -1.092504e-01 3.343549e-01 -2.103946e-02 3.957560e-01 5.320855e-02 4.375964e-01 1.156345e-01 4.635773e-01 1.700280e-01 4.790899e-01 2.215571e-01 4.908029e-01 2.763527e-01 5.061113e-01 3.409703e-01 5.324894e-01 4.217726e-01 5.768082e-01 5.242922e-01 6.446911e-01 6.526462e-01 7.399830e-01 8.090781e-01 8.643977e-01 9.936865e-01 1.017387e+00 1.204377e+00 1.196236e+00 1.437043e+00 1.396372e+00 1.685935e+00 1.611814e+00 1.944162e+00 1.835716e+00 2.204256e+00 2.060902e+00 2.458705e+00 2.280360e+00 2.700418e+00 2.487629e+00 2.923078e+00 2.677069e+00 3.121360e+00 2.844018e+00 3.291043e+00 2.984844e+00 3.429016e+00 3.096924e+00 3.533228e+00 3.178564e+00 3.602574e+00 3.228900e+00 3.636779e+00 
3.135089e+00 3.525633e+00 3.132395e+00 3.500126e+00 3.097991e+00 3.440784e+00 3.033259e+00 3.349523e+00 2.939893e+00 3.228529e+00 2.819812e+00 3.080179e+00 2.675097e+00 2.906966e+00 2.507929e+00 2.711438e+00 2.320546e+00 2.496146e+00 2.115211e+00 2.263610e+00 1.894198e+00 2.016306e+00 1.659806e+00 1.756680e+00 1.414398e+00 1.487191e+00 1.160469e+00 1.210391e+00 9.007414e-01 9.290298e-01 6.382710e-01 6.461671e-01 3.765453e-01 3.652776e-01 1.195487e-01 9.031309e-02 -1.282281e-01 -1.742964e-01 -3.618570e-01 -4.237238e-01 -5.761259e-01 -6.529133e-01 -7.657761e-01 -8.568278e-01 -9.258054e-01 -1.030756e+00 -1.051810e+00 -1.170645e+00 -1.140333e+00 -1.273429e+00 -1.189181e+00 -1.337305e+00 -1.197675e+00 -1.361945e+00 -1.166814e+00 -1.348601e+00 -1.099326e+00 -1.300104e+00 -9.996018e-01 -1.220752e+00 -8.735092e-01 -1.116098e+00 -7.281006e-01 -9.926404e-01 -5.712273e-01 -8.574497e-01 -4.110816e-01 -7.177432e-01 -2.556952e-01 -5.804363e-01 -1.124209e-01 -4.516915e-01 1.256871e-02 -3.364941e-01 1.147322e-01 -2.382798e-01 1.915254e-01 -1.586436e-01 2.426467e-01 -9.715862e-02 2.701312e-01 -5.133303e-02 2.782681e-01 -1.672802e-02 2.733262e-01 1.274999e-02 2.630911e-01 4.438476e-02 2.562363e-01 8.603577e-02 2.615773e-01 1.454203e-01 2.872773e-01 2.293614e-01 3.400907e-01 3.430876e-01 4.247357e-01 4.896731e-01 5.434726e-01 6.696964e-01 6.959399e-01 8.811632e-01 8.792613e-01 1.119701e+00 1.088396e+00 1.378986e+00 1.316667e+00 1.651335e+00 1.556388e+00 1.928356e+00 1.799492e+00 2.201590e+00 2.038101e+00 2.463048e+00 2.264968e+00 2.705621e+00 2.473788e+00 2.923333e+00 2.659369e+00 3.111460e+00 2.817681e+00 3.266537e+00 2.945828e+00 3.386279e+00 3.041950e+00 3.469459e+00 3.105095e+00 3.515763e+00 
3.415553e+00 3.821534e+00 3.400630e+00 3.781651e+00 3.353118e+00 3.707114e+00 3.274716e+00 3.600156e+00 3.167388e+00 3.463241e+00 3.033280e+00 3.298973e+00 2.874653e+00 3.110030e+00 2.693825e+00 2.899101e+00 2.493124e+00 2.668831e+00 2.274860e+00 2.421791e+00 2.041309e+00 2.160460e+00 1.794732e+00 1.887240e+00 1.537418e+00 1.604512e+00 1.271775e+00 1.314729e+00 1.000438e+00 1.020545e+00 7.264082e-01 7.249552e-01 4.531770e-01 4.314342e-01 1.848197e-01 1.440230e-01 -7.398006e-02 -1.326526e-01 -3.179933e-01 -3.934620e-01 -5.416113e-01 -6.329531e-01 -7.391081e-01 -8.456305e-01 -9.049821e-01 -1.026305e+00 -1.034345e+00 -1.170473e+00 -1.123316e+00 -1.274693e+00 -1.169386e+00 -1.336906e+00 -1.171710e+00 -1.356674e+00 -1.131291e+00 -1.335304e+00 -1.051050e+00 -1.275854e+00 -9.357595e-01 -1.183013e+00 -7.918443e-01 -1.062864e+00 -6.270656e-01 -9.225481e-01 -4.500959e-01 -7.698561e-01 -2.700159e-01 -6.127583e-01 -9.575780e-02 -4.589092e-01 6.447277e-02 -3.151477e-01 2.037608e-01 -1.870221e-01 3.169949e-01 -7.836892e-02 4.012891e-01 9.022411e-03 4.562739e-01 7.562379e-02 4.842183e-01 1.242292e-01 4.899503e-01 1.598319e-01 4.805565e-01 1.893005e-01 4.648589e-01 2.208506e-01 4.526936e-01 2.633393e-01 4.540442e-01 3.254328e-01 4.781138e-01 4.147323e-01 5.324398e-01 5.369607e-01 6.221630e-01 6.953219e-01 7.495483e-01 8.901257e-01 9.138221e-01 1.118736e+00 1.111341e+00 1.375844e+00 1.336048e+00 1.654020e+00 1.580141e+00 1.944438e+00 1.834834e+00 2.237661e+00 2.091100e+00 2.524377e+00 2.340320e+00 2.795998e+00 2.574762e+00 3.045084e+00 2.787889e+00 3.265579e+00 2.974499e+00 3.452890e+00 3.130733e+00 3.603834e+00 3.253989e+00 3.716512e+00 3.342777e+00 3.790139e+00 3.396553e+00 3.824852e+00 
3.319681e+00 3.728880e+00 3.314410e+00 3.697633e+00 3.274646e+00 3.629882e+00 3.202222e+00 3.528035e+00 3.099241e+00 3.394724e+00 2.967981e+00 3.232712e+00 2.810820e+00 3.044813e+00 2.630170e+00 2.833823e+00 2.428418e+00 2.602455e+00 2.207894e+00 2.353301e+00 1.970851e+00 2.088808e+00 1.719480e+00 1.811299e+00 1.455967e+00 1.523039e+00 1.182601e+00 1.226349e+00 9.019123e-01 9.237701e-01 6.168526e-01 6.182496e-01 3.309616e-01 3.133171e-01 4.849895e-02 1.321227e-02 -2.255035e-01 -2.770769e-01 -4.852990e-01 -5.518940e-01 -7.246086e-01 -8.051230e-01 -9.369250e-01 -1.030514e+00 -1.115916e+00 -1.222097e+00 -1.255885e+00 -1.374643e+00 -1.352247e+00 -1.484103e+00 -1.401962e+00 -1.548008e+00 -1.403881e+00 -1.565742e+00 -1.358980e+00 -1.538707e+00 -1.270436e+00 -1.470322e+00 -1.143565e+00 -1.365893e+00 -9.855919e-01 -1.232340e+00 -8.052885e-01 -1.077813e+00 -6.124945e-01 -9.112185e-01 -4.175400e-01 -7.416906e-01 -2.306119e-01 -5.780213e-01 -6.109285e-02 -4.280905e-01 8.308571e-02 -2.983198e-01 1.960362e-01 -1.931822e-01 2.744086e-01 -1.148050e-01 3.177395e-01 -6.270268e-02 3.286119e-01 -3.368059e-02 3.125869e-01 -2.194574e-02 2.778793e-01 -1.945174e-02 2.347719e-01 -1.648489e-02 1.947928e-01 -2.470057e-03 1.697130e-01 3.306132e-02 1.704617e-01 9.943575e-02 2.060822e-01 2.038586e-01 2.828616e-01 3.506264e-01 4.037535e-01 5.406489e-01 5.681724e-01 7.713563e-01 7.721789e-01 1.037002e+00 1.009011e+00 1.329302e+00 1.269865e+00 1.638291e+00 1.544783e+00 1.953254e+00 1.823533e+00 2.263602e+00 2.096360e+00 2.559580e+00 2.354537e+00 2.832757e+00 2.590721e+00 3.076299e+00 2.799096e+00 3.285048e+00 2.975379e+00 3.455452e+00 3.116699e+00 3.585409e+00 3.221433e+00 3.674056e+00 3.289002e+00 3.721555e+00 
3.616379e+00 4.042406e+00 3.597212e+00 3.994839e+00 3.542625e+00 3.909931e+00 3.454815e+00 3.790452e+00 3.336192e+00 3.639338e+00 3.189285e+00 3.459605e+00 3.016671e+00 3.254270e+00 2.820908e+00 3.026281e+00 2.604483e+00 2.778455e+00 2.369764e+00 2.513430e+00 2.118990e+00 2.233641e+00 1.854280e+00 1.941335e+00 1.577700e+00 1.638645e+00 1.291382e+00 1.327722e+00 9.977008e-01 1.010935e+00 6.994842e-01 6.910934e-01 4.002274e-01 3.716745e-01 1.042648e-01 5.699323e-02 -1.831496e-01 -2.477329e-01 -4.558908e-01 -5.364588e-01 -7.071581e-01 -8.025401e-01 -9.298155e-01 -1.039103e+00 -1.116848e+00 -1.239521e+00 -1.261889e+00 -1.397935e+00 -1.359760e+00 -1.509775e+00 -1.406969e+00 -1.572200e+00 -1.402109e+00 -1.584428e+00 -1.346127e+00 -1.547915e+00 -1.242422e+00 -1.466361e+00 -1.096780e+00 -1.345570e+00 -9.171288e-01 -1.193145e+00 -7.131487e-01 -1.018067e+00 -4.957380e-01 -8.301796e-01 -2.763826e-01 -6.395984e-01 -6.645016e-02 -4.560880e-01 1.235466e-01 -2.884275e-01 2.846798e-01 -1.437982e-01 4.102813e-01 -2.722825e-02 4.965152e-01 5.886755e-02 5.427930e-01 1.150060e-01 5.519802e-01 1.447650e-01 5.303421e-01 1.546765e-01 4.871947e-01 1.538481e-01 4.342453e-01 1.532976e-01 3.846449e-01 1.650228e-01 3.518189e-01 2.008717e-01 3.481878e-01 2.713257e-01 3.839295e-01 3.843486e-01 4.659513e-01 5.444704e-01 5.972213e-01 7.522521e-01 7.765628e-01 1.004228e+00 9.989323e-01 1.293332e+00 1.256119e+00 1.609718e+00 1.537732e+00 1.941833e+00 1.832293e+00 2.277535e+00 2.128283e+00 2.605111e+00 2.414991e+00 2.914056e+00 2.683110e+00 3.195572e+00 2.925066e+00 3.442799e+00 3.135115e+00 3.650822e+00 3.309258e+00 3.816517e+00 3.445060e+00 3.938319e+00 3.541406e+00 4.015947e+00 3.598249e+00 4.050138e+00 