# vtk DataFile Version 2.0
Comment goes here
ASCII

DATASET STRUCTURED_POINTS
FIELD FieldData 1
TIME 1 1 double
0.10000000
DIMENSIONS    128   128   1

ORIGIN    0.000   0.000   0.000
SPACING   0.039062 0.039062   1.000

POINT_DATA   16384
SCALARS P double
LOOKUP_TABLE default

-1.292374e+01 -1.329914e+01 -1.264396e+01 -1.294953e+01 -1.235892e+01 -1.259135e+01 -1.207122e+01 -1.222727e+01 -1.178181e+01 -1.185848e+01 -1.149019e+01 -1.148484e+01 -1.119463e+01 -1.110513e+01 -1.089240e+01 -1.071725e+01 -1.058001e+01 -1.031847e+01 -1.025348e+01 -9.905602e+00 -9.908519e+00 -9.475230e+00 -9.540813e+00 -9.023896e+00 -9.146197e+00 -8.548291e+00 -8.720886e+00 -8.045440e+00 -8.261674e+00 -7.512891e+00 -7.766127e+00 -6.948901e+00 -7.232774e+00 -6.352623e+00 -6.661276e+00 -5.724287e+00 -6.052592e+00 -5.065370e+00 -5.409111e+00 -4.378752e+00 -4.734771e+00 -3.668841e+00 -4.035128e+00 -2.941662e+00 -3.317397e+00 -2.204896e+00 -2.590425e+00 -1.467865e+00 -1.864626e+00 -7.414500e-01 -1.151833e+00 -3.794281e-02 -4.651042e-01 6.291706e-01 1.815408e-01 1.245493e+00 7.734433e-01 1.796064e+00 1.295677e+00 2.265755e+00 1.733467e+00 2.639725e+00 2.072644e+00 2.903903e+00 2.300124e+00 3.045505e+00 2.404409e+00 3.053565e+00 2.376086e+00 2.919471e+00 2.208321e+00 2.637476e+00 1.897311e+00 2.205176e+00 1.442692e+00 1.623912e+00 8.478588e-01 8.990772e-01 1.201689e-01 4.027938e-02 -7.289913e-01 -9.386545e-01 -1.684319e+00 -2.019877e+00 -2.726901e+00 -3.181932e+00 -3.834728e+00 -4.400389e+00 -4.983409e+00 -5.648679e+00 -6.147069e+00 -6.899113e+00 -7.299384e+00 -8.124013e+00 -8.414692e+00 -9.296899e+00 -9.469114e+00 -1.039363e+01 -1.044159e+01 -1.139344e+01 -1.131475e+01 -1.227976e+01 -1.207558e+01 -1.304077e+01 -1.271579e+01 -1.366965e+01 -1.323187e+01 -1.416452e+01 -1.362485e+01 -1.452807e+01 -1.389987e+01 -1.476697e+01 -1.406541e+01 -1.489105e+01 -1.413250e+01 -1.491240e+01 -1.411385e+01 -1.484453e+01 -1.402296e+01 -1.470142e+01 -1.387332e+01 -1.449682e+01 -1.367777e+01 -1.424361e+01 -1.344792e+01 -1.395331e+01 -1.319383e+01 -1.363580e+01 
-1.233931e+01 -1.262015e+01 -1.200104e+01 -1.220708e+01 -1.165153e+01 -1.178002e+01 -1.129376e+01 -1.134207e+01 -1.092911e+01 -1.089488e+01 -1.055758e+01 -1.043886e+01 -1.017805e+01 -9.973438e+00 -9.788468e+00 -9.497253e+00 -9.386155e+00 -9.008398e+00 -8.968008e+00 -8.504610e+00 -8.530729e+00 -7.983460e+00 -8.071040e+00 -7.442530e+00 -7.585867e+00 -6.879574e+00 -7.072530e+00 -6.292678e+00 -6.528915e+00 -5.680422e+00 -5.953634e+00 -5.042031e+00 -5.346188e+00 -4.377546e+00 -4.707113e+00 -3.687979e+00 -4.038125e+00 -2.975477e+00 -3.342247e+00 -2.243464e+00 -2.623910e+00 -1.496763e+00 -1.889034e+00 -7.416922e-01 -1.145064e+00 1.389696e-02 -4.009594e-01 7.606239e-01 3.328715e-01 1.487652e+00 1.044695e+00 2.182827e+00 1.721642e+00 2.832882e+00 2.349955e+00 3.423711e+00 2.915296e+00 3.940703e+00 3.403109e+00 4.369131e+00 3.799026e+00 4.694594e+00 4.089313e+00 4.903497e+00 4.261346e+00 4.983557e+00 4.304103e+00 4.924338e+00 4.208667e+00 4.717778e+00 3.968717e+00 4.358711e+00 3.580994e+00 3.845345e+00 3.045707e+00 3.179670e+00 2.366866e+00 2.367772e+00 1.552494e+00 1.420007e+00 6.147028e-01 3.510026e-01 -4.304178e-01 -8.205350e-01 -1.563104e+00 -2.072238e+00 -2.760434e+00 -3.378719e+00 -3.997058e+00 -4.712425e+00 -5.246109e+00 -6.044675e+00 -6.480262e+00 -7.346818e+00 -7.672875e+00 -8.591449e+00 -8.799139e+00 -9.753582e+00 -9.837141e+00 -1.081171e+01 -1.076878e+01 -1.174865e+01 -1.158042e+01 -1.255211e+01 -1.226330e+01 -1.321496e+01 -1.281360e+01 -1.373515e+01 -1.323219e+01 -1.411534e+01 -1.352413e+01 -1.436225e+01 -1.369799e+01 -1.448589e+01 -1.376495e+01 -1.449861e+01 -1.373792e+01 -1.441418e+01 -1.363065e+01 -1.424689e+01 -1.345691e+01 -1.401080e+01 -1.322982e+01 -1.371909e+01 -1.296127e+01 -1.338360e+01 -1.266159e+01 -1.301449e+01 
-1.294188e+01 -1.331888e+01 -1.265975e+01 -1.296681e+01 -1.237300e+01 -1.260676e+01 -1.208421e+01 -1.224138e+01 -1.179425e+01 -1.187179e+01 -1.150256e+01 -1.149777e+01 -1.120733e+01 -1.111803e+01 -1.090574e+01 -1.073042e+01 -1.059424e+01 -1.033211e+01 -1.026873e+01 -9.919864e+00 -9.924877e+00 -9.490190e+00 -9.558258e+00 -9.039559e+00 -9.164628e+00 -8.564584e+00 -8.740118e+00 -8.062213e+00 -8.281435e+00 -7.529908e+00 -7.786059e+00 -6.965840e+00 -7.252435e+00 -6.369070e+00 -6.680144e+00 -5.739741e+00 -6.070072e+00 -5.079252e+00 -5.424550e+00 -4.390414e+00 -4.747472e+00 -3.677589e+00 -4.044376e+00 -2.946777e+00 -3.322481e+00 -2.205666e+00 -2.590673e+00 -1.463617e+00 -1.859432e+00 -7.315865e-01 -1.140694e+00 -2.197467e-02 -4.476488e-01 6.515905e-01 2.055258e-01 1.274542e+00 8.039876e-01 1.831723e+00 1.332610e+00 2.307793e+00 1.776404e+00 2.687684e+00 2.120980e+00 2.957093e+00 2.353036e+00 3.103003e+00 2.460860e+00 3.114224e+00 2.434842e+00 2.981935e+00 2.267970e+00 2.700210e+00 1.956297e+00 2.266497e+00 1.499357e+00 1.682045e+00 9.004924e-01 9.522086e-01 1.670761e-01 8.663604e-02 -6.894205e-01 -9.007269e-01 -1.653531e+00 -1.991827e+00 -2.706098e+00 -3.164919e+00 -3.824795e+00 -4.395203e+00 -4.984846e+00 -5.655683e+00 -6.159951e+00 -6.918203e+00 -7.323337e+00 -8.154609e+00 -8.448906e+00 -9.337969e+00 -9.512378e+00 -1.044375e+01 -1.049237e+01 -1.145087e+01 -1.137127e+01 -1.234255e+01 -1.213594e+01 -1.310690e+01 -1.277807e+01 -1.373712e+01 -1.329425e+01 -1.423148e+01 -1.368571e+01 -1.459291e+01 -1.395783e+01 -1.482836e+01 -1.411940e+01 -1.494800e+01 -1.418180e+01 -1.496427e+01 -1.415804e+01 -1.489098e+01 -1.406191e+01 -1.474243e+01 -1.390717e+01 -1.453259e+01 -1.370686e+01 -1.427451e+01 -1.347275e+01 -1.397988e+01 -1.321499e+01 -1.365864e+01 
-1.238196e+01 -1.266546e+01 -1.203865e+01 -1.224710e+01 -1.168537e+01 -1.181592e+01 -1.132497e+01 -1.137489e+01 -1.095872e+01 -1.092554e+01 -1.058646e+01 -1.046812e+01 -1.020689e+01 -1.000191e+01 -9.817807e+00 -9.525417e+00 -9.416366e+00 -9.036600e+00 -8.999309e+00 -8.533069e+00 -8.563189e+00 -8.012276e+00 -8.104581e+00 -7.471685e+00 -7.620273e+00 -6.908927e+00 -7.107444e+00 -6.321958e+00 -6.563837e+00 -5.709215e+00 -5.987921e+00 -5.069774e+00 -5.379052e+00 -4.403515e+00 -4.737625e+00 -3.711291e+00 -4.065226e+00 -2.995095e+00 -3.364762e+00 -2.258220e+00 -2.640583e+00 -1.505393e+00 -1.898562e+00 -7.428790e-01 -1.146151e+00 2.146439e-02 -3.923707e-01 7.781867e-01 3.522451e-01 1.516313e+00 1.075774e+00 2.223481e+00 1.765097e+00 2.886152e+00 2.406150e+00 3.489889e+00 2.984241e+00 4.019702e+00 3.484423e+00 4.460446e+00 3.891911e+00 4.797276e+00 4.192536e+00 5.016133e+00 4.373239e+00 5.104277e+00 4.422574e+00 5.050820e+00 4.331223e+00 4.847283e+00 4.092508e+00 4.488133e+00 3.702873e+00 3.971280e+00 3.162314e+00 3.298518e+00 2.474730e+00 2.475858e+00 1.648166e+00 1.513726e+00 6.948992e-01 4.269894e-01 -3.686539e-01 -7.652313e-01 -1.522236e+00 -2.039977e+00 -2.742278e+00 -3.371109e+00 -4.002645e+00 -4.730196e+00 -5.275592e+00 -6.087596e+00 -6.532872e+00 -7.413679e+00 -7.746937e+00 -8.680104e+00 -8.892150e+00 -9.861068e+00 -9.945916e+00 -1.093442e+01 -1.088964e+01 -1.188255e+01 -1.170942e+01 -1.269300e+01 -1.239646e+01 -1.335870e+01 -1.294713e+01 -1.387790e+01 -1.336270e+01 -1.425374e+01 -1.364877e+01 -1.449357e+01 -1.381454e+01 -1.460809e+01 -1.387188e+01 -1.461035e+01 -1.383436e+01 -1.451479e+01 -1.371635e+01 -1.433629e+01 -1.353213e+01 -1.408940e+01 -1.329523e+01 -1.378767e+01 -1.301787e+01 -1.344320e+01 -1.271057e+01 -1.306633e+01 
-1.299594e+01 -1.337775e+01 -1.270674e+01 -1.301829e+01 -1.241490e+01 -1.265269e+01 -1.212286e+01 -1.228345e+01 -1.183131e+01 -1.191148e+01 -1.153947e+01 -1.153637e+01 -1.124529e+01 -1.115663e+01 -1.094571e+01 -1.076985e+01 -1.063692e+01 -1.037304e+01 -1.031459e+01 -9.962723e+00 -9.974116e+00 -9.535210e+00 -9.610832e+00 -9.086754e+00 -9.220242e+00 -8.613747e+00 -8.798215e+00 -8.112895e+00 -8.341201e+00 -7.581408e+00 -7.846420e+00 -7.017189e+00 -7.312059e+00 -6.419028e+00 -6.737458e+00 -5.786801e+00 -6.123282e+00 -5.121661e+00 -5.471677e+00 -4.426212e+00 -4.786406e+00 -3.704664e+00 -4.072941e+00 -2.962945e+00 -3.338518e+00 -2.208757e+00 -2.592130e+00 -1.451580e+00 -1.844464e+00 -7.025925e-01 -1.107759e+00 2.547433e-02 -3.956042e-01 7.185639e-01 2.773394e-01 1.361592e+00 8.956755e-01 1.938811e+00 1.443668e+00 2.434235e+00 1.905681e+00 2.832110e+00 2.266662e+00 3.117427e+00 2.512640e+00 3.276465e+00 2.631261e+00 3.297355e+00 2.612309e+00 3.170642e+00 2.448235e+00 2.889842e+00 2.134648e+00 2.451960e+00 1.670763e+00 1.857945e+00 1.059764e+00 1.113038e+00 3.090546e-01 2.269932e-01 -5.696433e-01 -7.858895e-01 -1.560372e+00 -1.906939e+00 -2.643237e+00 -3.113529e+00 -3.794943e+00 -4.379742e+00 -4.989550e+00 -5.677272e+00 -6.199447e+00 -6.976534e+00 -7.396492e+00 -8.247916e+00 -8.553243e+00 -9.463098e+00 -9.644199e+00 -1.059633e+01 -1.064696e+01 -1.162558e+01 -1.154321e+01 -1.253345e+01 -1.231942e+01 -1.330777e+01 -1.296723e+01 -1.394188e+01 -1.348353e+01 -1.443448e+01 -1.387014e+01 -1.478923e+01 -1.413325e+01 -1.501399e+01 -1.428260e+01 -1.511996e+01 -1.433056e+01 -1.512063e+01 -1.429114e+01 -1.503081e+01 -1.417904e+01 -1.486565e+01 -1.400878e+01 -1.463986e+01 -1.379401e+01 -1.436707e+01 -1.354699e+01 -1.405933e+01 -1.327814e+01 -1.372682e+01 
-1.246653e+01 -1.275540e+01 -1.211317e+01 -1.232650e+01 -1.175239e+01 -1.188714e+01 -1.138684e+01 -1.144006e+01 -1.101750e+01 -1.098648e+01 -1.064390e+01 -1.052638e+01 -1.026440e+01 -1.005872e+01 -9.876454e+00 -9.581734e+00 -9.476896e+00 -9.093101e+00 -9.062152e+00 -8.590189e+00 -8.628478e+00 -8.070217e+00 -8.172162e+00 -7.530413e+00 -7.689713e+00 -6.968169e+00 -7.178030e+00 -6.381185e+00 -6.634575e+00 -5.767615e+00 -6.057527e+00 -5.126228e+00 -5.445948e+00 -4.456576e+00 -4.799946e+00 -3.759184e+00 -4.120832e+00 -3.035728e+00 -3.411280e+00 -2.289225e+00 -2.675457e+00 -1.524194e+00 -1.919139e+00 -7.467852e-01 -1.149780e+00 3.513943e-02 -3.765200e-01 8.119936e-01 3.898565e-01 1.572524e+00 1.137048e+00 2.303950e+00 1.851426e+00 2.992180e+00 2.518306e+00 3.622106e+00 3.122280e+00 4.177967e+00 3.647603e+00 4.643769e+00 4.078642e+00 5.003765e+00 4.400350e+00 5.242963e+00 4.598784e+00 5.347682e+00 4.661631e+00 5.306124e+00 4.578761e+00 5.108952e+00 4.342760e+00 4.749876e+00 3.949459e+00 4.226191e+00 3.398404e+00 3.539270e+00 2.693258e+00 2.694953e+00 1.842084e+00 1.703791e+00 8.574805e-01 5.811196e-01 -2.434827e-01 -6.531083e-01 -1.439554e+00 -1.974734e+00 -2.705840e+00 -3.356085e+00 -4.014604e+00 -4.766921e+00 -5.336292e+00 -6.175622e+00 -6.640749e+00 -7.550530e+00 -7.898551e+00 -8.861370e+00 -9.082351e+00 -1.008064e+01 -1.016814e+01 -1.118486e+01 -1.113629e+01 -1.215555e+01 -1.197237e+01 -1.297989e+01 -1.266753e+01 -1.365099e+01 -1.321856e+01 -1.416772e+01 -1.362753e+01 -1.453425e+01 -1.390121e+01 -1.475922e+01 -1.405012e+01 -1.485477e+01 -1.408753e+01 -1.483541e+01 -1.402840e+01 -1.471695e+01 -1.388833e+01 -1.451549e+01 -1.368268e+01 -1.424657e+01 -1.342582e+01 -1.392450e+01 -1.313059e+01 -1.356189e+01 -1.280789e+01 -1.316934e+01 
-1.308475e+01 -1.347465e+01 -1.278376e+01 -1.310290e+01 -1.248351e+01 -1.272815e+01 -1.218619e+01 -1.235261e+01 -1.189217e+01 -1.197687e+01 -1.160029e+01 -1.160016e+01 -1.130809e+01 -1.122059e+01 -1.101210e+01 -1.083543e+01 -1.070809e+01 -1.044130e+01 -1.039131e+01 -1.003441e+01 -1.005672e+01 -9.610707e+00 -9.699259e+00 -9.166107e+00 -9.313998e+00 -8.696626e+00 -8.896383e+00 -8.198573e+00 -8.442425e+00 -7.668731e+00 -7.948907e+00 -7.104553e+00 -7.413581e+00 -6.504361e+00 -6.835368e+00 -5.867570e+00 -6.214548e+00 -5.194902e+00 -5.552945e+00 -4.488595e+00 -4.854085e+00 -3.752589e+00 -4.123316e+00 -2.992667e+00 -3.367888e+00 -2.216550e+00 -2.596968e+00 -1.433906e+00 -1.821585e+00 -6.562887e-01 -1.054492e+00 1.030114e-01 -3.099551e-01 8.292090e-01 3.965425e-01 1.506340e+00 1.048661e+00 2.117653e+00 1.629628e+00 2.646062e+00 2.122709e+00 3.074648e+00 2.511719e+00 3.387206e+00 2.781559e+00 3.568818e+00 2.918772e+00 3.606449e+00 2.912113e+00 3.489559e+00 2.753104e+00 3.210703e+00 2.436585e+00 2.766105e+00 1.961204e+00 2.156177e+00 1.329844e+00 1.385934e+00 5.499325e-01 4.652768e-01 -3.664084e-01 -5.909181e-01 -1.402406e+00 -1.762945e+00 -2.536924e+00 -3.026682e+00 -3.745007e+00 -4.354290e+00 -4.998709e+00 -5.715202e+00 -6.268154e+00 -7.077353e+00 -7.522815e+00 -8.408588e+00 -8.732905e+00 -9.678165e+00 -9.870792e+00 -1.085821e+01 -1.091232e+01 -1.192503e+01 -1.183791e+01 -1.286015e+01 -1.263337e+01 -1.365098e+01 -1.329030e+01 -1.429105e+01 -1.380615e+01 -1.477991e+01 -1.418377e+01 -1.512249e+01 -1.443079e+01 -1.532828e+01 -1.455863e+01 -1.541028e+01 -1.458141e+01 -1.538381e+01 -1.451484e+01 -1.526538e+01 -1.437518e+01 -1.507166e+01 -1.417827e+01 -1.481860e+01 -1.393882e+01 -1.452075e+01 -1.366983e+01 -1.419080e+01 -1.338224e+01 -1.383932e+01 
-1.259154e+01 -1.288857e+01 -1.222311e+01 -1.244394e+01 -1.185122e+01 -1.199251e+01 -1.147820e+01 -1.153660e+01 -1.110454e+01 -1.107700e+01 -1.072928e+01 -1.061318e+01 -1.035024e+01 -1.014366e+01 -9.964363e+00 -9.666203e+00 -9.567976e+00 -9.178113e+00 -9.157035e+00 -8.676386e+00 -8.727351e+00 -8.157899e+00 -8.274790e+00 -7.619546e+00 -7.795447e+00 -7.058371e+00 -7.285812e+00 -6.471692e+00 -6.742923e+00 -5.857243e+00 -6.164523e+00 -5.213323e+00 -5.549225e+00 -4.538981e+00 -4.896685e+00 -3.834217e+00 -4.207784e+00 -3.100203e+00 -3.484810e+00 -2.339507e+00 -2.731635e+00 -1.556301e+00 -1.953859e+00 -7.565381e-01 -1.158918e+00 5.193711e-02 -3.561206e-01 8.593424e-01 4.433769e-01 1.654006e+00 1.226693e+00 2.422505e+00 1.979424e+00 3.149899e+00 2.685927e+00 3.820047e+00 3.329687e+00 4.416004e+00 3.893738e+00 4.920471e+00 4.361142e+00 5.316314e+00 4.715504e+00 5.587109e+00 4.941519e+00 5.717731e+00 5.025543e+00 5.694969e+00 4.956182e+00 5.508158e+00 4.724878e+00 5.149815e+00 4.326490e+00 4.616252e+00 3.759833e+00 3.908151e+00 3.028158e+00 3.031032e+00 2.139513e+00 1.995590e+00 1.106942e+00 8.178327e-01 -5.151401e-02 -4.810319e-01 -1.313088e+00 -1.875005e+00 -2.650844e+00 -3.334026e+00 -4.034536e+00 -4.825023e+00 -5.431766e+00 -6.313250e+00 -6.809361e+00 -7.763831e+00 -8.134919e+00 -9.143416e+00 -9.378369e+00 -1.042181e+01 -1.051345e+01 -1.157340e+01 -1.151893e+01 -1.257837e+01 -1.237953e+01 -1.342334e+01 -1.308634e+01 -1.410173e+01 -1.363685e+01 -1.461347e+01 -1.403452e+01 -1.496440e+01 -1.428793e+01 -1.516526e+01 -1.440975e+01 -1.523048e+01 -1.441549e+01 -1.517690e+01 -1.432228e+01 -1.502250e+01 -1.414769e+01 -1.478525e+01 -1.390872e+01 -1.448222e+01 -1.362102e+01 -1.412885e+01 -1.329835e+01 -1.373851e+01 -1.295217e+01 -1.332220e+01 
-1.320632e+01 -1.360769e+01 -1.288881e+01 -1.321882e+01 -1.257695e+01 -1.283149e+01 -1.227254e+01 -1.244748e+01 -1.197546e+01 -1.206684e+01 -1.168399e+01 -1.168829e+01 -1.139507e+01 -1.130939e+01 -1.110463e+01 -1.092691e+01 -1.080782e+01 -1.053697e+01 -1.049932e+01 -1.013529e+01 -1.017352e+01 -9.717379e+00 -9.824748e+00 -9.278652e+00 -9.447506e+00 -8.814623e+00 -9.036637e+00 -8.321049e+00 -8.587539e+00 -7.794112e+00 -8.096370e+00 -7.230613e+00 -7.560252e+00 -6.628196e+00 -6.977492e+00 -5.985594e+00 -6.347803e+00 -5.302879e+00 -5.672517e+00 -4.581730e+00 -4.954787e+00 -3.825661e+00 -4.199755e+00 -3.040221e+00 -3.414664e+00 -2.233123e+00 -2.608909e+00 -1.414291e+00 -1.793999e+00 -5.958113e-01 -9.834200e-01 2.082264e-01 -1.924130e-01 9.819839e-01 5.623505e-01 1.708226e+00 1.263167e+00 2.368752e+00 1.891768e+00 2.944889e+00 2.429835e+00 3.418045e+00 2.859555e+00 3.770290e+00 3.164199e+00 3.984977e+00 3.328723e+00 4.047388e+00 3.340380e+00 3.945399e+00 3.189337e+00 3.670141e+00 2.869282e+00 3.216665e+00 2.377996e+00 2.584542e+00 1.717867e+00 1.778390e+00 8.962882e-01 8.082501e-01 -7.410449e-02 -3.102324e-01 -1.175410e+00 -1.555898e+00 -2.384716e+00 -2.902470e+00 -3.674666e+00 -4.319306e+00 -5.014359e+00 -5.772497e+00 -6.370562e+00 -7.226285e+00 -7.709189e+00 -8.644713e+00 -8.996939e+00 -9.993402e+00 -1.020298e+01 -1.124129e+01 -1.130051e+01 -1.236220e+01 -1.226809e+01 -1.333606e+01 -1.309056e+01 -1.414968e+01 -1.375952e+01 -1.479699e+01 -1.427326e+01 -1.527880e+01 -1.463630e+01 -1.560206e+01 -1.485846e+01 -1.577875e+01 -1.495368e+01 -1.582459e+01 -1.493873e+01 -1.575763e+01 -1.483187e+01 -1.559692e+01 -1.465163e+01 -1.536133e+01 -1.441578e+01 -1.506859e+01 -1.414050e+01 -1.473455e+01 -1.383988e+01 -1.437279e+01 -1.352548e+01 -1.399435e+01 
-1.275463e+01 -1.306278e+01 -1.236616e+01 -1.259736e+01 -1.197980e+01 -1.213023e+01 -1.159730e+01 -1.166309e+01 -1.121850e+01 -1.119603e+01 -1.084169e+01 -1.072785e+01 -1.046395e+01 -1.025640e+01 -1.008150e+01 -9.778860e+00 -9.689989e+00 -9.291985e+00 -9.284735e+00 -8.792305e+00 -8.860964e+00 -8.276261e+00 -8.413991e+00 -7.740331e+00 -7.939377e+00 -7.181118e+00 -7.433078e+00 -6.595454e+00 -6.891576e+00 -5.980513e+00 -6.312028e+00 -5.333958e+00 -5.692430e+00 -4.654129e+00 -5.031805e+00 -3.940279e+00 -4.330409e+00 -3.192844e+00 -3.589968e+00 -2.413723e+00 -2.813895e+00 -1.606561e+00 -2.007506e+00 -7.769867e-01 -1.178169e+00 6.721336e-02 -3.353956e-01 9.160150e-01 5.091678e-01 1.757183e+00 1.341851e+00 2.576415e+00 2.147177e+00 3.357597e+00 2.908181e+00 4.083158e+00 3.606819e+00 4.734516e+00 4.224435e+00 5.292577e+00 4.742294e+00 5.738298e+00 5.142141e+00 6.053282e+00 5.406802e+00 6.220416e+00 5.520792e+00 6.224533e+00 5.470960e+00 6.053105e+00 5.247133e+00 5.696956e+00 4.842778e+00 5.150975e+00 4.255631e+00 4.414794e+00 3.488284e+00 3.493389e+00 2.548660e+00 2.397547e+00 1.450332e+00 1.144115e+00 2.126058e-01 -2.440296e-01 -1.139693e+00 -1.738358e+00 -2.576790e+00 -3.305468e+00 -4.064908e+00 -4.908271e+00 -5.567589e+00 -6.507544e+00 -7.047332e+00 -8.063776e+00 -8.467427e+00 -9.539171e+00 -9.793866e+00 -1.089962e+01 -1.099713e+01 -1.211647e+01 -1.205368e+01 -1.316795e+01 -1.294705e+01 -1.403997e+01 -1.366831e+01 -1.472646e+01 -1.421608e+01 -1.522900e+01 -1.459583e+01 -1.555591e+01 -1.481890e+01 -1.572104e+01 -1.490109e+01 -1.574218e+01 -1.486117e+01 -1.563951e+01 -1.471935e+01 -1.543409e+01 -1.449597e+01 -1.514653e+01 -1.421033e+01 -1.479600e+01 -1.387982e+01 -1.439945e+01 -1.351939e+01 -1.397120e+01 -1.314122e+01 -1.352274e+01 
-1.335770e+01 -1.377409e+01 -1.301896e+01 -1.336340e+01 -1.269251e+01 -1.296035e+01 -1.237955e+01 -1.256604e+01 -1.207927e+01 -1.217982e+01 -1.178914e+01 -1.179964e+01 -1.150530e+01 -1.142235e+01 -1.122287e+01 -1.104403e+01 -1.093623e+01 -1.066018e+01 -1.063929e+01 -1.026593e+01 -1.032568e+01 -9.856203e+00 -9.989011e+00 -9.425827e+00 -9.623029e+00 -8.969683e+00 -9.221812e+00 -8.482829e+00 -8.779967e+00 -7.960667e+00 -8.292827e+00 -7.399138e+00 -7.756676e+00 -6.794963e+00 -7.168985e+00 -6.145926e+00 -6.528673e+00 -5.451191e+00 -5.836372e+00 -4.711623e+00 -5.094686e+00 -3.930109e+00 -4.308423e+00 -3.111824e+00 -3.484770e+00 -2.264426e+00 -2.633387e+00 -1.398149e+00 -1.766399e+00 -5.257696e-01 -8.982628e-01 3.375557e-01 -4.552234e-02 1.174577e+00 7.735558e-01 1.966352e+00 1.539437e+00 2.692738e+00 2.231848e+00 3.332945e+00 2.830356e+00 3.866146e+00 3.314976e+00 4.272119e+00 3.666811e+00 4.531913e+00 3.868693e+00 4.628551e+00 3.905859e+00 4.547759e+00 3.766622e+00 4.278714e+00 3.443070e+00 3.814805e+00 2.931733e+00 3.154369e+00 2.234222e+00 2.301356e+00 1.357759e+00 1.265859e+00 3.155462e-01 6.443289e-02 -8.730977e-01 -1.279896e+00 -2.182932e+00 -2.737988e+00 -3.583365e+00 -4.275390e+00 -5.039452e+00 -5.853584e+00 -6.513301e+00 -7.431665e+00 -7.965844e+00 -8.968336e+00 -9.358833e+00 -1.042409e+01 -1.065692e+01 -1.176336e+01 -1.182958e+01 -1.295648e+01 -1.285277e+01 -1.398116e+01 -1.371002e+01 -1.482345e+01 -1.439299e+01 -1.547794e+01 -1.490132e+01 -1.594737e+01 -1.524193e+01 -1.624161e+01 -1.542784e+01 -1.637626e+01 -1.547661e+01 -1.637090e+01 -1.540873e+01 -1.624744e+01 -1.524599e+01 -1.602841e+01 -1.501005e+01 -1.573566e+01 -1.472124e+01 -1.538928e+01 -1.439772e+01 -1.500683e+01 -1.405489e+01 -1.460294e+01 -1.370512e+01 -1.418919e+01 
-1.295241e+01 -1.327487e+01 -1.253907e+01 -1.278389e+01 -1.213521e+01 -1.229786e+01 -1.174175e+01 -1.181760e+01 -1.135756e+01 -1.134221e+01 -1.097994e+01 -1.086957e+01 -1.060496e+01 -1.039665e+01 -1.022790e+01 -9.919846e+00 -9.843527e+00 -9.435260e+00 -9.446362e+00 -8.938852e+00 -9.030914e+00 -8.426568e+00 -8.591836e+00 -7.894412e+00 -8.124054e+00 -7.338489e+00 -7.622882e+00 -6.755059e+00 -7.084127e+00 -6.140609e+00 -6.504212e+00 -5.491983e+00 -5.880333e+00 -4.806583e+00 -5.210665e+00 -4.082645e+00 -4.494609e+00 -3.319568e+00 -3.733085e+00 -2.518297e+00 -2.928837e+00 -1.681699e+00 -2.086725e+00 -8.149009e-01 -1.213963e+00 7.445546e-02 -3.202700e-01 9.760718e-01 5.820998e-01 1.876999e+00 1.478459e+00 2.761788e+00 2.351931e+00 3.612784e+00 3.183813e+00 4.410543e+00 3.954052e+00 5.134336e+00 4.641784e+00 5.762730e+00 5.225932e+00 6.274203e+00 5.685829e+00 6.647803e+00 6.001868e+00 6.863829e+00 6.156169e+00 6.904555e+00 6.133268e+00 6.754985e+00 5.920844e+00 6.403663e+00 5.510457e+00 5.843498e+00 4.898314e+00 5.072597e+00 4.085986e+00 4.095048e+00 3.081066e+00 2.921564e+00 1.897644e+00 1.569923e+00 5.565486e-01 6.506942e-02 -9.147798e-01 -1.561197e+00 -2.482840e+00 -3.271040e+00 -4.109123e+00 -5.021940e+00 -5.751651e+00 -6.768549e+00 -7.366965e+00 -8.464960e+00 -8.912399e+00 -1.006720e+01 -1.034847e+01 -1.153572e+01 -1.164114e+01 -1.283767e+01 -1.276369e+01 -1.394859e+01 -1.369808e+01 -1.485354e+01 -1.443548e+01 -1.554729e+01 -1.497616e+01 -1.603384e+01 -1.532859e+01 -1.632514e+01 -1.550803e+01 -1.643944e+01 -1.553468e+01 -1.639925e+01 -1.543182e+01 -1.622936e+01 -1.522390e+01 -1.595501e+01 -1.493496e+01 -1.560029e+01 -1.458728e+01 -1.518707e+01 -1.420050e+01 -1.473420e+01 -1.379103e+01 -1.425713e+01 -1.337182e+01 -1.376782e+01 
-1.353479e+01 -1.397004e+01 -1.317022e+01 -1.353308e+01 -1.282654e+01 -1.311159e+01 -1.250411e+01 -1.270573e+01 -1.220109e+01 -1.231382e+01 -1.191390e+01 -1.193282e+01 -1.163764e+01 -1.155864e+01 -1.136638e+01 -1.118651e+01 -1.109354e+01 -1.081117e+01 -1.081209e+01 -1.042706e+01 -1.051476e+01 -1.002843e+01 -1.019427e+01 -9.609451e+00 -9.843493e+00 -9.164260e+00 -9.455568e+00 -8.687089e+00 -9.024133e+00 -8.172382e+00 -8.543496e+00 -7.614988e+00 -8.008863e+00 -7.010425e+00 -7.416612e+00 -6.355211e+00 -6.764593e+00 -5.647259e+00 -6.052465e+00 -4.886299e+00 -5.282042e+00 -4.074308e+00 -4.457614e+00 -3.215885e+00 -3.586214e+00 -2.318543e+00 -2.677780e+00 -1.392859e+00 -1.745186e+00 -4.524736e-01 -8.041226e-01 4.860884e-01 1.271891e-01 1.403752e+00 1.028419e+00 2.279370e+00 1.877666e+00 3.090296e+00 2.652080e+00 3.813029e+00 3.328517e+00 4.423896e+00 3.884231e+00 4.899756e+00 4.297560e+00 5.218725e+00 4.548630e+00 5.360931e+00 4.620077e+00 5.309310e+00 4.497796e+00 5.050447e+00 4.171721e+00 4.575467e+00 3.636637e+00 3.880935e+00 2.892966e+00 2.969720e+00 1.947496e+00 1.851750e+00 8.139497e-01 5.445319e-01 -4.867080e-01 -9.266567e-01 -1.926339e+00 -2.529047e+00 -3.470182e+00 -4.223211e+00 -5.077951e+00 -5.964495e+00 -6.705503e+00 -7.705037e+00 -8.307004e+00 -9.396255e+00 -9.837437e+00 -1.099160e+01 -1.125524e+01 -1.244934e+01 -1.252480e+01 -1.373501e+01 -1.361853e+01 -1.482337e+01 -1.451825e+01 -1.569953e+01 -1.521586e+01 -1.635915e+01 -1.571300e+01 -1.680784e+01 -1.602007e+01 -1.705968e+01 -1.615460e+01 -1.713532e+01 -1.613920e+01 -1.705973e+01 -1.599944e+01 -1.685999e+01 -1.576187e+01 -1.656335e+01 -1.545225e+01 -1.619551e+01 -1.509421e+01 -1.577953e+01 -1.470833e+01 -1.533503e+01 -1.431162e+01 -1.487785e+01 -1.391727e+01 -1.442004e+01 
-1.318027e+01 -1.352063e+01 -1.273752e+01 -1.299975e+01 -1.231368e+01 -1.249227e+01 -1.190848e+01 -1.199773e+01 -1.151948e+01 -1.151393e+01 -1.114263e+01 -1.103746e+01 -1.077270e+01 -1.056417e+01 -1.040375e+01 -1.008949e+01 -1.002947e+01 -9.608746e+00 -9.643428e+00 -9.117251e+00 -9.239295e+00 -8.610434e+00 -8.810973e+00 -8.083823e+00 -8.352688e+00 -7.533016e+00 -7.859039e+00 -6.953652e+00 -7.325058e+00 -6.341424e+00 -6.746293e+00 -5.692171e+00 -6.118944e+00 -5.002085e+00 -5.440085e+00 -4.268040e+00 -4.707962e+00 -3.488017e+00 -3.922375e+00 -2.661615e+00 -3.085093e+00 -1.790574e+00 -2.200275e+00 -8.792531e-01 -1.274825e+00 6.498527e-02 -3.186422e-01 1.031562e+00 6.552987e-01 2.006649e+00 1.631038e+00 2.973343e+00 2.589915e+00 3.912018e+00 3.511007e+00 4.800832e+00 4.371696e+00 5.616334e+00 5.148317e+00 6.334138e+00 5.816843e+00 6.929618e+00 6.353584e+00 7.378626e+00 6.735892e+00 7.658225e+00 6.942879e+00 7.747460e+00 6.956153e+00 7.628180e+00 6.760613e+00 7.285939e+00 6.345296e+00 6.710972e+00 5.704280e+00 5.899218e+00 4.837605e+00 4.853340e+00 3.752155e+00 3.583651e+00 2.462394e+00 2.108814e+00 9.908348e-01 4.561815e-01 -6.319075e-01 -1.338385e+00 -2.367612e+00 -3.231344e+00 -4.171600e+00 -5.173023e+00 -5.994566e+00 -7.109878e+00 -7.785024e+00 -8.987336e+00 -9.492212e+00 -1.075300e+01 -1.106917e+01 -1.235991e+01 -1.247569e+01 -1.376946e+01 -1.368077e+01 -1.495367e+01 -1.466432e+01 -1.589652e+01 -1.541782e+01 -1.659420e+01 -1.594403e+01 -1.705424e+01 -1.625573e+01 -1.729380e+01 -1.637365e+01 -1.733727e+01 -1.632413e+01 -1.721366e+01 -1.613656e+01 -1.695398e+01 -1.584105e+01 -1.658893e+01 -1.546641e+01 -1.614712e+01 -1.503872e+01 -1.565376e+01 -1.458033e+01 -1.512992e+01 -1.410933e+01 -1.459225e+01 -1.363946e+01 -1.405306e+01 
-1.373212e+01 -1.419049e+01 -1.333740e+01 -1.372327e+01 -1.297442e+01 -1.328130e+01 -1.264230e+01 -1.286340e+01 -1.233784e+01 -1.246650e+01 -1.205609e+01 -1.208626e+01 -1.179077e+01 -1.171742e+01 -1.153471e+01 -1.135416e+01 -1.128013e+01 -1.099034e+01 -1.101889e+01 -1.061964e+01 -1.074271e+01 -1.023561e+01 -1.044330e+01 -9.831702e+00 -1.011250e+01 -9.401274e+00 -9.742390e+00 -8.937622e+00 -9.325472e+00 -8.434061e+00 -8.854810e+00 -7.884100e+00 -8.324276e+00 -7.281721e+00 -7.728844e+00 -6.621780e+00 -7.064951e+00 -5.900500e+00 -6.330928e+00 -5.116039e+00 -5.527463e+00 -4.269075e+00 -4.658056e+00 -3.363337e+00 -3.729416e+00 -2.406036e+00 -2.751733e+00 -1.408106e+00 -1.738767e+00 -3.842410e-01 -7.077368e-01 6.473092e-01 3.210127e-01 1.665152e+00 1.324532e+00 2.645341e+00 2.277924e+00 3.562078e+00 3.155096e+00 4.388474e+00 3.929529e+00 5.097330e+00 4.575055e+00 5.661911e+00 5.066606e+00 6.056715e+00 5.380964e+00 6.258275e+00 5.497522e+00 6.246007e+00 5.399094e+00 6.003150e+00 5.072796e+00 5.517798e+00 4.511007e+00 4.784014e+00 3.712373e+00 3.802967e+00 2.682796e+00 2.583990e+00 1.436298e+00 1.145432e+00 -4.390094e-03 -4.848787e-01 -1.607680e+00 -2.269733e+00 -3.333585e+00 -4.163366e+00 -5.134923e+00 -6.113107e+00 -6.959299e+00 -8.061839e+00 -8.751811e+00 -9.951164e+00 -1.045828e+01 -1.172498e+01 -1.202871e+01 -1.333314e+01 -1.342056e+01 -1.473471e+01 -1.460149e+01 -1.590054e+01 -1.555115e+01 -1.681464e+01 -1.626195e+01 -1.747444e+01 -1.673854e+01 -1.788970e+01 -1.699630e+01 -1.808050e+01 -1.705908e+01 -1.807455e+01 -1.695642e+01 -1.790416e+01 -1.672075e+01 -1.760338e+01 -1.638489e+01 -1.720552e+01 -1.597986e+01 -1.674122e+01 -1.553340e+01 -1.623714e+01 -1.506900e+01 -1.571527e+01 -1.460540e+01 -1.519268e+01 -1.415661e+01 -1.468174e+01 
-1.343210e+01 -1.379450e+01 -1.295590e+01 -1.324011e+01 -1.251042e+01 -1.270959e+01 -1.209372e+01 -1.220068e+01 -1.170159e+01 -1.170939e+01 -1.132820e+01 -1.123068e+01 -1.096665e+01 -1.075896e+01 -1.060949e+01 -1.028848e+01 -1.024911e+01 -9.813641e+00 -9.877955e+00 -9.329116e+00 -9.488772e+00 -8.829844e+00 -9.074673e+00 -8.310953e+00 -8.629160e+00 -7.767603e+00 -8.146101e+00 -7.194832e+00 -7.619700e+00 -6.587467e+00 -7.044505e+00 -5.940149e+00 -6.415512e+00 -5.247541e+00 -5.728390e+00 -4.504716e+00 -4.979847e+00 -3.707724e+00 -4.168129e+00 -2.854279e+00 -3.293601e+00 -1.944501e+00 -2.359355e+00 -9.816022e-01 -1.371741e+00 2.755675e-02 -3.407512e-01 1.072133e+00 7.198058e-01 2.137234e+00 1.792400e+00 3.204123e+00 2.856121e+00 4.250676e+00 3.887235e+00 5.252026e+00 4.859903e+00 6.181319e+00 5.746966e+00 7.010519e+00 6.520759e+00 7.711204e+00 7.153901e+00 8.255346e+00 7.620048e+00 8.616075e+00 7.894645e+00 8.768477e+00 7.955689e+00 8.690462e+00 7.784582e+00 8.363757e+00 7.367070e+00 7.775038e+00 6.694325e+00 6.917196e+00 5.764111e+00 5.790677e+00 4.581987e+00 4.404793e+00 3.162417e+00 2.778832e+00 1.529600e+00 9.427691e-01 -2.821655e-01 -1.062659e+00 -2.228834e+00 -3.186726e+00 -4.257828e+00 -5.370476e+00 -6.310218e+00 -7.549499e+00 -8.323802e+00 -9.657575e+00 -1.023688e+01 -1.163089e+01 -1.199232e+01 -1.341237e+01 -1.354154e+01 -1.495564e+01 -1.484777e+01 -1.622803e+01 -1.588830e+01 -1.721232e+01 -1.665530e+01 -1.790694e+01 -1.715526e+01 -1.832462e+01 -1.740707e+01 -1.848989e+01 -1.743923e+01 -1.843574e+01 -1.728645e+01 -1.820003e+01 -1.698635e+01 -1.782202e+01 -1.657642e+01 -1.733954e+01 -1.609162e+01 -1.678680e+01 -1.556268e+01 -1.619302e+01 -1.501508e+01 -1.558177e+01 -1.446873e+01 -1.497083e+01 -1.393798e+01 -1.437256e+01 