# vtk DataFile Version 2.0
Comment goes here
ASCII

DATASET STRUCTURED_POINTS
FIELD FieldData 1
TIME 1 1 double
0.11000000
DIMENSIONS    128   128   1

ORIGIN    0.000   0.000   0.000
SPACING   0.039062 0.039062   1.000

POINT_DATA   16384
SCALARS P double
LOOKUP_TABLE default

1.904284e+01 1.862104e+01 2.018340e+01 1.976838e+01 2.129172e+01 2.088506e+01 2.235403e+01 2.195717e+01 2.335686e+01 2.297109e+01 2.428712e+01 2.391362e+01 2.513225e+01 2.477209e+01 2.588038e+01 2.553461e+01 2.652053e+01 2.619022e+01 2.704284e+01 2.672918e+01 2.743884e+01 2.714324e+01 2.770173e+01 2.742590e+01 2.782663e+01 2.757270e+01 2.781085e+01 2.758142e+01 2.765413e+01 2.745231e+01 2.735874e+01 2.718817e+01 2.692958e+01 2.679436e+01 2.637414e+01 2.627876e+01 2.570240e+01 2.565156e+01 2.492655e+01 2.492500e+01 2.406071e+01 2.411296e+01 2.312047e+01 2.323056e+01 2.212241e+01 2.229366e+01 2.108358e+01 2.131830e+01 2.002097e+01 2.032022e+01 1.895090e+01 1.931435e+01 1.788862e+01 1.831437e+01 1.684779e+01 1.733233e+01 1.584020e+01 1.637841e+01 1.487552e+01 1.546072e+01 1.396112e+01 1.458524e+01 1.310214e+01 1.375589e+01 1.230152e+01 1.297464e+01 1.156024e+01 1.224179e+01 1.087766e+01 1.155629e+01 1.025181e+01 1.091611e+01 9.679898e+00 1.031869e+01 9.158703e+00 9.761397e+00 8.685076e+00 9.241913e+00 8.256353e+00 8.758702e+00 7.870755e+00 8.311332e+00 7.527704e+00 7.900764e+00 7.228055e+00 7.529520e+00 6.974221e+00 7.201754e+00 6.770168e+00 6.923175e+00 6.621292e+00 6.700853e+00 6.534158e+00 6.542886e+00 6.516124e+00 6.457962e+00 6.574868e+00 6.454829e+00 6.717846e+00 6.541718e+00 6.951739e+00 6.725777e+00 7.281908e+00 7.012533e+00 7.711937e+00 7.405470e+00 8.243272e+00 7.905721e+00 8.875014e+00 8.511919e+00 9.603853e+00 9.220200e+00 1.042415e+01 1.002434e+01 1.132812e+01 1.091603e+01 1.230616e+01 1.188514e+01 1.334714e+01 1.292016e+01 1.443877e+01 1.400846e+01 1.556796e+01 1.513668e+01 1.672103e+01 1.629095e+01 1.788402e+01 1.745715e+01 
2.006596e+01 1.964132e+01 2.118912e+01 2.077163e+01 2.228484e+01 2.187614e+01 2.333935e+01 2.294088e+01 2.433909e+01 2.395208e+01 2.527075e+01 2.489630e+01 2.612150e+01 2.576053e+01 2.687907e+01 2.653247e+01 2.753205e+01 2.720069e+01 2.807009e+01 2.775495e+01 2.848417e+01 2.818644e+01 2.876694e+01 2.848811e+01 2.891293e+01 2.865495e+01 2.891893e+01 2.868422e+01 2.878412e+01 2.857566e+01 2.851028e+01 2.833165e+01 2.810190e+01 2.795717e+01 2.756609e+01 2.745981e+01 2.691253e+01 2.684953e+01 2.615324e+01 2.613842e+01 2.530220e+01 2.534034e+01 2.437497e+01 2.447042e+01 2.338817e+01 2.354460e+01 2.235900e+01 2.257912e+01 2.130462e+01 2.158993e+01 2.024163e+01 2.059225e+01 1.918560e+01 1.960008e+01 1.815054e+01 1.862582e+01 1.714865e+01 1.768002e+01 1.618995e+01 1.677114e+01 1.528222e+01 1.590550e+01 1.443094e+01 1.508731e+01 1.363934e+01 1.431877e+01 1.290864e+01 1.360032e+01 1.223830e+01 1.293097e+01 1.162640e+01 1.230862e+01 1.107004e+01 1.173052e+01 1.056579e+01 1.119371e+01 1.011013e+01 1.069543e+01 9.699947e+00 1.023358e+01 9.332865e+00 9.807054e+00 9.007632e+00 9.416056e+00 8.724362e+00 9.062303e+00 8.484685e+00 8.749123e+00 8.291789e+00 8.481426e+00 8.150331e+00 8.265549e+00 8.066219e+00 8.108970e+00 8.046276e+00 8.019907e+00 8.097803e+00 8.006819e+00 8.228070e+00 8.077863e+00 8.443771e+00 8.240325e+00 8.750494e+00 8.500094e+00 9.152249e+00 8.861213e+00 9.651099e+00 9.325553e+00 1.024691e+01 9.892620e+00 1.093726e+01 1.055952e+01 1.171745e+01 1.132106e+01 1.258071e+01 1.216993e+01 1.351838e+01 1.309702e+01 1.452029e+01 1.409172e+01 1.557500e+01 1.514224e+01 1.667014e+01 1.623593e+01 1.779270e+01 1.735949e+01 1.892921e+01 1.849927e+01 
1.903959e+01 1.861684e+01 2.018701e+01 1.977125e+01 2.130236e+01 2.089516e+01 2.237179e+01 2.197455e+01 2.338173e+01 2.299573e+01 2.431900e+01 2.394537e+01 2.517091e+01 2.481069e+01 2.592546e+01 2.557964e+01 2.657152e+01 2.624112e+01 2.709907e+01 2.678522e+01 2.749947e+01 2.720351e+01 2.776576e+01 2.748935e+01 2.789291e+01 2.763813e+01 2.787812e+01 2.764754e+01 2.772103e+01 2.751775e+01 2.742386e+01 2.725153e+01 2.699151e+01 2.685430e+01 2.643155e+01 2.633401e+01 2.575406e+01 2.570100e+01 2.497139e+01 2.496766e+01 2.409788e+01 2.414813e+01 2.314935e+01 2.325776e+01 2.214266e+01 2.231267e+01 2.109513e+01 2.132916e+01 2.002399e+01 2.032322e+01 1.894585e+01 1.930998e+01 1.787614e+01 1.830332e+01 1.682871e+01 1.731543e+01 1.581548e+01 1.635657e+01 1.484616e+01 1.543491e+01 1.392817e+01 1.455640e+01 1.306660e+01 1.372491e+01 1.226431e+01 1.294233e+01 1.152218e+01 1.220882e+01 1.083940e+01 1.152318e+01 1.021385e+01 1.088323e+01 9.642549e+00 1.028623e+01 9.122115e+00 9.729377e+00 8.649229e+00 9.210207e+00 8.221083e+00 8.727049e+00 7.835775e+00 8.279369e+00 7.492637e+00 7.868054e+00 7.192474e+00 7.495597e+00 6.937680e+00 7.166155e+00 6.732250e+00 6.885487e+00 6.581644e+00 6.660753e+00 6.492528e+00 6.500172e+00 6.472388e+00 6.412582e+00 6.529054e+00 6.406899e+00 6.670146e+00 6.491527e+00 6.902501e+00 6.673775e+00 7.231628e+00 6.959319e+00 7.661231e+00 7.351755e+00 8.192849e+00 7.852295e+00 8.825636e+00 8.459611e+00 9.556301e+00 9.169844e+00 1.037919e+01 9.976747e+00 1.128649e+01 1.087194e+01 1.226852e+01 1.184526e+01 1.331410e+01 1.288510e+01 1.441089e+01 1.397876e+01 1.554568e+01 1.511281e+01 1.670477e+01 1.627332e+01 1.787413e+01 1.744610e+01 
2.005473e+01 1.962808e+01 2.119150e+01 2.077247e+01 2.230127e+01 2.189147e+01 2.337012e+01 2.297094e+01 2.438428e+01 2.399691e+01 2.533025e+01 2.495569e+01 2.619493e+01 2.583403e+01 2.696579e+01 2.661931e+01 2.763109e+01 2.729978e+01 2.818015e+01 2.786484e+01 2.860359e+01 2.830535e+01 2.889372e+01 2.861393e+01 2.904479e+01 2.878526e+01 2.905328e+01 2.881639e+01 2.891821e+01 2.870691e+01 2.864125e+01 2.845914e+01 2.822686e+01 2.807812e+01 2.768229e+01 2.757159e+01 2.701744e+01 2.694981e+01 2.624464e+01 2.622523e+01 2.537829e+01 2.541213e+01 2.443444e+01 2.452617e+01 2.343025e+01 2.358380e+01 2.238347e+01 2.260179e+01 2.131179e+01 2.159659e+01 2.023233e+01 2.058386e+01 1.916109e+01 1.957798e+01 1.811245e+01 1.859166e+01 1.709886e+01 1.763563e+01 1.613052e+01 1.671846e+01 1.521526e+01 1.584647e+01 1.435849e+01 1.502378e+01 1.356334e+01 1.425242e+01 1.283079e+01 1.353260e+01 1.216003e+01 1.286304e+01 1.154882e+01 1.224132e+01 1.099391e+01 1.166437e+01 1.049152e+01 1.112888e+01 1.003781e+01 1.063179e+01 9.629350e+00 1.017071e+01 9.263515e+00 9.744311e+00 8.938846e+00 9.352620e+00 8.655317e+00 8.997254e+00 8.414495e+00 8.681515e+00 8.219577e+00 8.410366e+00 8.075308e+00 8.190279e+00 7.987758e+00 8.028936e+00 7.963974e+00 7.934822e+00 8.011533e+00 7.916710e+00 8.138007e+00 7.983087e+00 8.350405e+00 8.141570e+00 8.654614e+00 8.398352e+00 9.054908e+00 8.757734e+00 9.553557e+00 9.221778e+00 1.015058e+01 9.790117e+00 1.084362e+01 1.045991e+01 1.162802e+01 1.122594e+01 1.249695e+01 1.208086e+01 1.344171e+01 1.301544e+01 1.445198e+01 1.401897e+01 1.551623e+01 1.507951e+01 1.662198e+01 1.618428e+01 1.775607e+01 1.731988e+01 1.890493e+01 1.847249e+01 
1.902933e+01 1.860377e+01 2.019745e+01 1.977949e+01 2.133398e+01 2.092515e+01 2.242485e+01 2.202652e+01 2.345624e+01 2.306959e+01 2.441466e+01 2.404072e+01 2.528706e+01 2.492674e+01 2.606104e+01 2.571517e+01 2.672501e+01 2.639442e+01 2.726844e+01 2.695409e+01 2.768222e+01 2.738524e+01 2.795886e+01 2.768075e+01 2.809290e+01 2.783559e+01 2.808116e+01 2.784713e+01 2.792299e+01 2.771531e+01 2.762047e+01 2.744287e+01 2.717853e+01 2.703529e+01 2.660489e+01 2.650080e+01 2.590997e+01 2.585013e+01 2.510665e+01 2.509628e+01 2.420988e+01 2.425402e+01 2.323623e+01 2.333948e+01 2.220337e+01 2.236955e+01 2.112945e+01 2.136134e+01 2.003252e+01 2.033158e+01 1.892992e+01 1.929607e+01 1.783776e+01 1.826923e+01 1.677041e+01 1.726369e+01 1.574015e+01 1.628999e+01 1.475691e+01 1.535639e+01 1.382817e+01 1.446884e+01 1.295889e+01 1.363103e+01 1.215171e+01 1.284455e+01 1.140714e+01 1.210920e+01 1.072392e+01 1.142330e+01 1.009941e+01 1.078418e+01 9.530113e+00 1.018857e+01 9.012103e+00 9.633164e+00 8.541562e+00 9.115041e+00 8.115238e+00 8.632121e+00 7.730860e+00 8.183554e+00 7.387492e+00 7.770009e+00 7.085772e+00 7.393877e+00 6.828054e+00 7.059338e+00 6.618410e+00 6.772301e+00 6.462497e+00 6.540191e+00 6.367290e+00 6.371607e+00 6.340675e+00 6.275848e+00 6.390944e+00 6.262340e+00 6.526213e+00 6.340018e+00 6.753810e+00 6.516696e+00 7.079691e+00 6.798490e+00 7.507932e+00 7.189347e+00 8.040346e+00 7.690716e+00 8.676252e+00 8.301388e+00 9.412411e+00 9.017510e+00 1.024313e+01 9.832747e+00 1.116046e+01 1.073856e+01 1.215457e+01 1.172458e+01 1.321406e+01 1.277897e+01 1.432636e+01 1.388881e+01 1.547808e+01 1.504046e+01 1.665532e+01 1.621977e+01 1.784384e+01 1.741236e+01 
2.003111e+01 1.960049e+01 2.119531e+01 2.077325e+01 2.233338e+01 2.192144e+01 2.343111e+01 2.303060e+01 2.447438e+01 2.408637e+01 2.544924e+01 2.507459e+01 2.634212e+01 2.598147e+01 2.713989e+01 2.679378e+01 2.783019e+01 2.749911e+01 2.840163e+01 2.808614e+01 2.884415e+01 2.854503e+01 2.914934e+01 2.886772e+01 2.931081e+01 2.904828e+01 2.932451e+01 2.908328e+01 2.918902e+01 2.897201e+01 2.890580e+01 2.871666e+01 2.847931e+01 2.832239e+01 2.791701e+01 2.779727e+01 2.722924e+01 2.715211e+01 2.642900e+01 2.640013e+01 2.553154e+01 2.555652e+01 2.455392e+01 2.463794e+01 2.351440e+01 2.366195e+01 2.243184e+01 2.264637e+01 2.132507e+01 2.160869e+01 2.021222e+01 2.056549e+01 1.911020e+01 1.953191e+01 1.803413e+01 1.852125e+01 1.699698e+01 1.754466e+01 1.600929e+01 1.661089e+01 1.507898e+01 1.572626e+01 1.421138e+01 1.489471e+01 1.340931e+01 1.411792e+01 1.267330e+01 1.339561e+01 1.200198e+01 1.272591e+01 1.139244e+01 1.210576e+01 1.084073e+01 1.153138e+01 1.034235e+01 1.099880e+01 9.892790e+00 1.050431e+01 9.487991e+00 1.004495e+01 9.124799e+00 9.618919e+00 8.801342e+00 9.225893e+00 8.517311e+00 8.867278e+00 8.274140e+00 8.546322e+00 8.075050e+00 8.268100e+00 7.924968e+00 8.039356e+00 7.830293e+00 7.868198e+00 7.798538e+00 7.763662e+00 7.837845e+00 7.735161e+00 7.956419e+00 7.791873e+00 8.161914e+00 7.942098e+00 8.460837e+00 8.192657e+00 8.858002e+00 8.548376e+00 9.356111e+00 9.011714e+00 9.955476e+00 9.582549e+00 1.065391e+01 1.025814e+01 1.144677e+01 1.103325e+01 1.232715e+01 1.190037e+01 1.328618e+01 1.285010e+01 1.431335e+01 1.387143e+01 1.539685e+01 1.495220e+01 1.652397e+01 1.607933e+01 1.768130e+01 1.723917e+01 1.885504e+01 1.841766e+01 
1.901050e+01 1.858032e+01 2.021342e+01 1.979189e+01 2.138557e+01 2.097416e+01 2.251255e+01 2.211251e+01 2.358009e+01 2.319250e+01 2.457422e+01 2.419993e+01 2.548128e+01 2.512099e+01 2.628819e+01 2.594244e+01 2.698257e+01 2.665190e+01 2.755307e+01 2.723810e+01 2.798969e+01 2.769123e+01 2.828411e+01 2.800334e+01 2.843007e+01 2.816866e+01 2.842372e+01 2.818398e+01 2.826392e+01 2.804888e+01 2.795250e+01 2.776595e+01 2.749437e+01 2.734083e+01 2.689755e+01 2.678219e+01 2.617305e+01 2.610150e+01 2.533459e+01 2.531269e+01 2.439823e+01 2.443172e+01 2.338182e+01 2.347600e+01 2.230441e+01 2.246381e+01 2.118560e+01 2.141361e+01 2.004484e+01 2.034340e+01 1.890077e+01 1.927015e+01 1.777060e+01 1.820922e+01 1.666961e+01 1.717395e+01 1.561072e+01 1.617534e+01 1.460422e+01 1.522186e+01 1.365764e+01 1.431939e+01 1.277576e+01 1.347132e+01 1.196078e+01 1.267874e+01 1.121258e+01 1.194076e+01 1.052912e+01 1.125493e+01 9.906878e+00 1.061768e+01 9.341426e+00 1.002487e+01 8.827928e+00 9.472312e+00 8.361701e+00 8.956290e+00 7.938730e+00 8.474031e+00 7.556114e+00 8.024134e+00 7.212451e+00 7.606896e+00 6.908101e+00 7.224532e+00 6.645343e+00 6.881259e+00 6.428386e+00 6.583242e+00 6.263232e+00 6.338374e+00 6.157389e+00 6.155906e+00 6.119439e+00 6.045939e+00 6.158483e+00 6.018795e+00 6.283501e+00 6.084332e+00 6.502675e+00 6.251241e+00 6.822740e+00 6.526407e+00 7.248417e+00 6.914379e+00 7.781987e+00 7.417009e+00 8.423043e+00 8.033282e+00 9.168424e+00 8.759338e+00 1.001234e+01 9.588671e+00 1.094663e+01 1.051245e+01 1.196114e+01 1.151994e+01 1.304410e+01 1.259890e+01 1.418257e+01 1.373604e+01 1.536282e+01 1.491731e+01 1.657058e+01 1.612825e+01 1.779135e+01 1.735419e+01 
1.999277e+01 1.955631e+01 2.119858e+01 2.077212e+01 2.237963e+01 2.196464e+01 2.352125e+01 2.311894e+01 2.460879e+01 2.422007e+01 2.562771e+01 2.525319e+01 2.656365e+01 2.620370e+01 2.740265e+01 2.705745e+01 2.813134e+01 2.780098e+01 2.873729e+01 2.842190e+01 2.920932e+01 2.890923e+01 2.953794e+01 2.925384e+01 2.971571e+01 2.944886e+01 2.973772e+01 2.949008e+01 2.960190e+01 2.937627e+01 2.930933e+01 2.910943e+01 2.886442e+01 2.869486e+01 2.827496e+01 2.814117e+01 2.755198e+01 2.746001e+01 2.670952e+01 2.666579e+01 2.576416e+01 2.577512e+01 2.473452e+01 2.480629e+01 2.364059e+01 2.377852e+01 2.250299e+01 2.271132e+01 2.134229e+01 2.162378e+01 2.017823e+01 2.053390e+01 1.902911e+01 1.945801e+01 1.791120e+01 1.841033e+01 1.683830e+01 1.740261e+01 1.582141e+01 1.644390e+01 1.486862e+01 1.554051e+01 1.398507e+01 1.469604e+01 1.317310e+01 1.391163e+01 1.243255e+01 1.318623e+01 1.176111e+01 1.251704e+01 1.115484e+01 1.189996e+01 1.060869e+01 1.133017e+01 1.011705e+01 1.080262e+01 9.674352e+00 1.031260e+01 9.275564e+00 9.856279e+00 8.916714e+00 9.431098e+00 8.595288e+00 9.036194e+00 8.310539e+00 8.672644e+00 8.063695e+00 8.343611e+00 7.858016e+00 8.054341e+00 7.698712e+00 7.812007e+00 7.592708e+00 7.625385e+00 7.548247e+00 7.504380e+00 7.574370e+00 7.459425e+00 7.680279e+00 7.500790e+00 7.874658e+00 7.637857e+00 8.164988e+00 7.878438e+00 8.556939e+00 8.228188e+00 9.053883e+00 8.690176e+00 9.656588e+00 9.264654e+00 1.036309e+01 9.949015e+00 1.116878e+01 1.073794e+01 1.206660e+01 1.162371e+01 1.304739e+01 1.259654e+01 1.410028e+01 1.364503e+01 1.521310e+01 1.475659e+01 1.637271e+01 1.591772e+01 1.756535e+01 1.711438e+01 1.877684e+01 1.833213e+01 
1.898047e+01 1.854399e+01 2.023274e+01 1.980638e+01 2.145546e+01 2.104062e+01 2.263372e+01 2.223156e+01 2.375273e+01 2.336414e+01 2.479779e+01 2.442339e+01 2.575445e+01 2.539460e+01 2.660860e+01 2.626350e+01 2.734679e+01 2.701651e+01 2.795645e+01 2.764110e+01 2.842629e+01 2.812619e+01 2.874673e+01 2.846258e+01 2.891032e+01 2.864341e+01 2.891222e+01 2.866456e+01 2.875052e+01 2.852504e+01 2.842663e+01 2.822722e+01 2.794543e+01 2.777695e+01 2.731536e+01 2.718353e+01 2.654825e+01 2.645945e+01 2.565909e+01 2.562010e+01 2.466554e+01 2.468312e+01 2.358732e+01 2.366787e+01 2.244555e+01 2.259462e+01 2.126195e+01 2.148383e+01 2.005803e+01 2.035541e+01 1.885432e+01 1.922799e+01 1.766969e+01 1.811830e+01 1.652070e+01 1.704074e+01 1.542120e+01 1.600694e+01 1.438196e+01 1.502566e+01 1.341061e+01 1.410264e+01 1.251161e+01 1.324082e+01 1.168648e+01 1.244052e+01 1.093417e+01 1.169984e+01 1.025145e+01 1.101515e+01 9.633512e+00 1.038160e+01 9.074550e+00 9.793745e+00 8.568383e+00 9.246107e+00 8.109068e+00 8.733794e+00 7.691468e+00 8.253021e+00 7.311766e+00 7.801582e+00 6.967879e+00 7.379223e+00 6.659761e+00 6.987897e+00 6.389585e+00 6.631876e+00 6.161760e+00 6.317698e+00 5.982800e+00 6.053948e+00 5.861009e+00 5.850850e+00 5.806005e+00 5.719702e+00 5.828101e+00 5.672168e+00 5.937572e+00 5.719487e+00 6.143881e+00 5.871667e+00 6.454925e+00 6.136737e+00 6.876381e+00 6.520133e+00 7.411213e+00 7.024286e+00 8.059393e+00 7.648435e+00 8.817848e+00 8.388678e+00 9.680614e+00 9.238214e+00 1.063916e+01 1.018775e+01 1.168283e+01 1.122597e+01 1.279931e+01 1.234004e+01 1.397509e+01 1.351606e+01 1.519592e+01 1.473949e+01 1.644706e+01 1.599537e+01 1.771357e+01 1.726859e+01 
1.993614e+01 1.949210e+01 2.119830e+01 2.076622e+01 2.243758e+01 2.201885e+01 2.363877e+01 2.323444e+01 2.478654e+01 2.439730e+01 2.586551e+01 2.549169e+01 2.686035e+01 2.650193e+01 2.775592e+01 2.741260e+01 2.853752e+01 2.820884e+01 2.919125e+01 2.887670e+01 2.970437e+01 2.940364e+01 3.006583e+01 2.977899e+01 3.026672e+01 2.999449e+01 3.030084e+01 3.004480e+01 3.016516e+01 2.992793e+01 2.986019e+01 2.964554e+01 2.939024e+01 2.920313e+01 2.876351e+01 2.861001e+01 2.799200e+01 2.787905e+01 2.709120e+01 2.702633e+01 2.607957e+01 2.607048e+01 2.497796e+01 2.503204e+01 2.380876e+01 2.393265e+01 2.259512e+01 2.279419e+01 2.136004e+01 2.163797e+01 2.012553e+01 2.048399e+01 1.891185e+01 1.935026e+01 1.773686e+01 1.825224e+01 1.661547e+01 1.720251e+01 1.555936e+01 1.621049e+01 1.457676e+01 1.528243e+01 1.367254e+01 1.442147e+01 1.284834e+01 1.362793e+01 1.210293e+01 1.289965e+01 1.143273e+01 1.223250e+01 1.083231e+01 1.162096e+01 1.029506e+01 1.105867e+01 9.813792e+00 1.053911e+01 9.381454e+00 1.005616e+01 8.991674e+00 9.604734e+00 8.639331e+00 9.181255e+00 8.321012e+00 8.784083e+00 8.035363e+00 8.413829e+00 7.783322e+00 8.073531e+00 7.568206e+00 7.768674e+00 7.395630e+00 7.507037e+00 7.273262e+00 7.298345e+00 7.210395e+00 7.153753e+00 7.217357e+00 7.085156e+00 7.304790e+00 7.104396e+00 7.482858e+00 7.222417e+00 7.760447e+00 7.448453e+00 8.144444e+00 7.789336e+00 8.639168e+00 8.248989e+00 9.246009e+00 8.828158e+00 9.963296e+00 9.524384e+00 1.078640e+01 1.033219e+01 1.170799e+01 1.124347e+01 1.271848e+01 1.224790e+01 1.380647e+01 1.333348e+01 1.495920e+01 1.448698e+01 1.616299e+01 1.569434e+01 1.740355e+01 1.694096e+01 1.866622e+01 1.821192e+01 
1.893544e+01 1.849112e+01 2.025225e+01 1.981998e+01 2.154112e+01 2.112224e+01 2.278661e+01 2.238214e+01 2.397322e+01 2.358386e+01 2.508541e+01 2.471149e+01 2.610765e+01 2.574913e+01 2.702459e+01 2.668113e+01 2.782127e+01 2.749235e+01 2.848349e+01 2.816854e+01 2.899822e+01 2.869685e+01 2.935414e+01 2.906635e+01 2.954214e+01 2.926862e+01 2.955592e+01 2.929827e+01 2.939249e+01 2.915343e+01 2.905262e+01 2.883614e+01 2.854110e+01 2.835248e+01 2.786686e+01 2.771257e+01 2.704288e+01 2.693036e+01 2.608584e+01 2.602314e+01 2.501560e+01 2.501096e+01 2.385448e+01 2.391578e+01 2.262643e+01 2.276067e+01 2.135607e+01 2.156883e+01 2.006775e+01 2.036275e+01 1.878460e+01 1.916332e+01 1.752771e+01 1.798917e+01 1.631542e+01 1.685606e+01 1.516278e+01 1.577650e+01 1.408122e+01 1.475953e+01 1.307841e+01 1.381073e+01 1.215833e+01 1.293233e+01 1.132156e+01 1.212357e+01 1.056568e+01 1.138117e+01 9.885851e+00 1.069983e+01 9.275448e+00 1.007296e+01 8.726786e+00 9.493293e+00 8.231841e+00 8.953615e+00 7.782944e+00 8.447428e+00 7.373443e+00 7.969557e+00 6.998270e+00 7.516695e+00 6.654418e+00 7.087832e+00 6.341291e+00 6.684555e+00 6.060913e+00 6.311200e+00 5.817974e+00 5.974820e+00 5.619693e+00 5.684950e+00 5.475479e+00 5.453168e+00 5.396401e+00 5.292449e+00 5.394471e+00 5.216342e+00 5.481789e+00 5.238033e+00 5.669620e+00 5.369382e+00 5.967492e+00 5.620015e+00 6.382407e+00 5.996591e+00 6.918255e+00 6.502310e+00 7.575494e+00 7.136710e+00 8.351106e+00 7.895755e+00 9.238819e+00 8.772166e+00 1.022953e+01 9.755932e+00 1.131182e+01 1.083490e+01 1.247259e+01 1.199537e+01 1.369755e+01 1.322265e+01 1.497170e+01 1.450145e+01 1.627972e+01 1.581622e+01 1.760612e+01 1.715132e+01 
1.985629e+01 1.940313e+01 2.119030e+01 2.075159e+01 2.250388e+01 2.208093e+01 2.378117e+01 2.337488e+01 2.500608e+01 2.461690e+01 2.616225e+01 2.579015e+01 2.723310e+01 2.687758e+01 2.820204e+01 2.786218e+01 2.905263e+01 2.872722e+01 2.976903e+01 2.945674e+01 3.033643e+01 3.003604e+01 3.074165e+01 3.045237e+01 3.097377e+01 3.069554e+01 3.102481e+01 3.075861e+01 3.089035e+01 3.063849e+01 3.057005e+01 3.033633e+01 3.006802e+01 2.985784e+01 2.939298e+01 2.921324e+01 2.855818e+01 2.841703e+01 2.758104e+01 2.748751e+01 2.648257e+01 2.644607e+01 2.528658e+01 2.531631e+01 2.401877e+01 2.412308e+01 2.270563e+01 2.289145e+01 2.137345e+01 2.164574e+01 2.004728e+01 2.040858e+01 1.874998e+01 1.920017e+01 1.750149e+01 1.803763e+01 1.631820e+01 1.693458e+01 1.521259e+01 1.590088e+01 1.419308e+01 1.494263e+01 1.326407e+01 1.406230e+01 1.242619e+01 1.325907e+01 1.167679e+01 1.252926e+01 1.101049e+01 1.186698e+01 1.041986e+01 1.126473e+01 9.896168e+00 1.071413e+01 9.430167e+00 1.020666e+01 9.012802e+00 9.734373e+00 8.635921e+00 9.290499e+00 8.292888e+00 8.870085e+00 7.979100e+00 8.470459e+00 7.692399e+00 8.091601e+00 7.433339e+00 7.736374e+00 7.205307e+00 7.410574e+00 7.014466e+00 7.122788e+00 6.869493e+00 6.884033e+00 6.781110e+00 6.707166e+00 6.761414e+00 6.606099e+00 6.823032e+00 6.594846e+00 6.978174e+00 6.686506e+00 7.237659e+00 6.892269e+00 7.610040e+00 7.220567e+00 8.100906e+00 7.676453e+00 8.712447e+00 8.261286e+00 9.443319e+00 8.972722e+00 1.028878e+01 9.804986e+00 1.124107e+01 1.074934e+01 1.228994e+01 1.179468e+01 1.342317e+01 1.292811e+01 1.462724e+01 1.413557e+01 1.588767e+01 1.540219e+01 1.718952e+01 1.671269e+01 1.851753e+01 1.805156e+01 
1.887039e+01 1.841688e+01 2.026768e+01 1.982864e+01 2.163912e+01 2.121583e+01 2.296869e+01 2.256206e+01 2.424012e+01 2.385062e+01 2.543685e+01 2.506448e+01 2.654210e+01 2.618632e+01 2.753892e+01 2.719876e+01 2.841050e+01 2.808464e+01 2.914051e+01 2.882747e+01 2.971364e+01 2.941205e+01 3.011620e+01 2.982511e+01 3.033685e+01 3.005607e+01 3.036729e+01 3.009777e+01 3.020298e+01 2.994711e+01 2.984373e+01 2.960555e+01 2.929413e+01 2.907943e+01 2.856372e+01 2.837994e+01 2.766691e+01 2.752289e+01 2.662261e+01 2.652815e+01 2.545360e+01 2.541891e+01 2.418566e+01 2.422066e+01 2.284648e+01 2.296013e+01 2.146456e+01 2.166418e+01 2.006799e+01 2.035869e+01 1.868334e+01 1.906756e+01 1.733463e+01 1.781181e+01 1.604248e+01 1.660900e+01 1.482350e+01 1.547269e+01 1.368987e+01 1.441229e+01 1.264928e+01 1.343301e+01 1.170500e+01 1.253614e+01 1.085627e+01 1.171944e+01 1.009883e+01 1.097772e+01 9.425634e+00 1.030350e+01 8.827646e+00 9.687844e+00 8.294691e+00 9.121099e+00 7.816309e+00 8.593756e+00 7.382575e+00 8.097207e+00 6.984851e+00 7.624455e+00 6.616438e+00 7.170739e+00 6.273124e+00 6.734041e+00 5.953585e+00 6.315453e+00 5.659648e+00 5.919381e+00 5.396369e+00 5.553540e+00 5.171900e+00 5.228732e+00 4.997136e+00 4.958354e+00 4.885105e+00 4.757651e+00 4.850136e+00 4.642749e+00 4.906824e+00 4.629504e+00 5.068905e+00 4.732307e+00 5.348130e+00 4.962957e+00 5.753285e+00 5.329741e+00 6.289469e+00 5.836834e+00 6.957716e+00 6.484081e+00 7.754982e+00 7.267146e+00 8.674462e+00 8.177983e+00 9.706158e+00 9.205507e+00 1.083758e+01 1.033636e+01 1.205448e+01 1.155564e+01 1.334148e+01 1.284756e+01 1.468268e+01 1.419591e+01 1.606194e+01 1.558439e+01 1.746318e+01 1.699676e+01 
1.974689e+01 1.928329e+01 2.116912e+01 2.072304e+01 2.257400e+01 2.214668e+01 2.394502e+01 2.353721e+01 2.526521e+01 2.487712e+01 2.651711e+01 2.614832e+01 2.768273e+01 2.733217e+01 2.874367e+01 2.840965e+01 2.968136e+01 2.936173e+01 3.047748e+01 3.016980e+01 3.111453e+01 3.081639e+01 3.157653e+01 3.128592e+01 3.184984e+01 3.156559e+01 3.192404e+01 3.164625e+01 3.179277e+01 3.152323e+01 3.145445e+01 3.119692e+01 3.091281e+01 3.067321e+01 3.017719e+01 2.996346e+01 2.926241e+01 2.908431e+01 2.818842e+01 2.805699e+01 2.697954e+01 2.690650e+01 2.566353e+01 2.566048e+01 2.427037e+01 2.434800e+01 2.283098e+01 2.299830e+01 2.137596e+01 2.163960e+01 1.993428e+01 2.029797e+01 1.853218e+01 1.899638e+01 1.719225e+01 1.775403e+01 1.593275e+01 1.658581e+01 1.476713e+01 1.550208e+01 1.370391e+01 1.450866e+01 1.274682e+01 1.360706e+01 1.189510e+01 1.279490e+01 1.114413e+01 1.206650e+01 1.048615e+01 1.141359e+01 9.911079e+00 1.082612e+01 9.407441e+00 1.029308e+01 8.963261e+00 9.803390e+00 8.566933e+00 9.346666e+00 8.208012e+00 8.914017e+00 7.877918e+00 8.498701e+00 7.570528e+00 8.096696e+00 7.282640e+00 7.707149e+00 7.014307e+00 7.332668e+00 6.769003e+00 6.979433e+00 6.553593e+00 6.657079e+00 6.378082e+00 6.378322e+00 6.255096e+00 6.158299e+00 6.199108e+00 6.013634e+00 6.225430e+00 5.961290e+00 6.349045e+00 6.017290e+00 6.583391e+00 6.195468e+00 6.939254e+00 6.506381e+00 7.423883e+00 6.956537e+00 8.040464e+00 7.548009e+00 8.787967e+00 8.278471e+00 9.661377e+00 9.141589e+00 1.065220e+01 1.012766e+01 1.174917e+01 1.122440e+01 1.293896e+01 1.241769e+01 1.420691e+01 1.369228e+01 1.553756e+01 1.503229e+01 1.691508e+01 1.642161e+01 1.832352e+01 1.784403e+01 
1.877892e+01 1.831512e+01 2.027356e+01 1.982713e+01 2.174497e+01 2.131718e+01 2.317654e+01 2.276824e+01 2.455124e+01 2.416270e+01 2.585143e+01 2.548227e+01 2.705884e+01 2.670797e+01 2.815466e+01 2.782033e+01 2.911977e+01 2.879965e+01 2.993519e+01 2.962661e+01 3.058263e+01 3.028292e+01 3.104534e+01 3.075219e+01 3.130894e+01 3.102094e+01 3.136242e+01 3.107954e+01 3.119907e+01 3.092313e+01 3.081731e+01 3.055231e+01 3.022131e+01 2.997363e+01 2.942129e+01 2.919961e+01 2.843347e+01 2.824846e+01 2.727965e+01 2.714342e+01 2.598638e+01 2.591177e+01 2.458393e+01 2.458360e+01 2.310491e+01 2.319046e+01 2.158287e+01 2.176393e+01 2.005077e+01 2.033430e+01 1.853961e+01 1.892927e+01 1.707718e+01 1.757298e+01 1.568700e+01 1.628517e+01 1.438759e+01 1.508070e+01 1.319204e+01 1.396931e+01 1.210793e+01 1.295567e+01 1.113748e+01 1.203974e+01 1.027809e+01 1.121727e+01 9.523038e+00 1.048056e+01 8.862359e+00 9.819281e+00 8.283852e+00 9.221429e+00 7.774106e+00 8.674291e+00 7.319529e+00 8.165398e+00 6.907306e+00 7.683434e+00 6.526267e+00 7.219062e+00 6.167636e+00 6.765643e+00 5.825656e+00 6.319843e+00 5.498066e+00 5.882082e+00 5.186421e+00 5.456817e+00 4.896229e+00 5.052598e+00 4.636850e+00 4.681859e+00 4.421120e+00 4.360393e+00 4.264676e+00 4.106483e+00 4.184954e+00 3.939725e+00 4.199930e+00 3.879597e+00 4.326689e+00 3.943923e+00 4.579988e+00 4.147424e+00 4.970986e+00 4.500524e+00 5.506327e+00 5.008601e+00 6.187689e+00 5.671745e+00 7.011819e+00 6.485030e+00 7.971017e+00 7.439189e+00 9.053928e+00 8.521542e+00 1.024648e+01 9.717005e+00 1.153283e+01 1.100903e+01 1.289619e+01 1.238039e+01 1.431940e+01 1.381372e+01 1.578541e+01 1.529183e+01 1.727743e+01 1.679784e+01 
1.960001e+01 1.912495e+01 2.112790e+01 2.067399e+01 2.264218e+01 2.221065e+01 2.412572e+01 2.371725e+01 2.556074e+01 2.517531e+01 2.692860e+01 2.656538e+01 2.820972e+01 2.786700e+01 2.938359e+01 2.905881e+01 3.042907e+01 3.011888e+01 3.132477e+01 3.102532e+01 3.204973e+01 3.175700e+01 3.258433e+01 3.229464e+01 3.291129e+01 3.262191e+01 3.301690e+01 3.272663e+01 3.289207e+01 3.260188e+01 3.253346e+01 3.224692e+01 3.194414e+01 3.166772e+01 3.113411e+01 3.087709e+01 3.012018e+01 2.989438e+01 2.892552e+01 2.874467e+01 2.757877e+01 2.745764e+01 2.611278e+01 2.606619e+01 2.456312e+01 2.460487e+01 2.296645e+01 2.310831e+01 2.135888e+01 2.160970e+01 1.977443e+01 2.013945e+01 1.824364e+01 1.872405e+01 1.679244e+01 1.738524e+01 1.544133e+01 1.613941e+01 1.420491e+01 1.499741e+01 1.309171e+01 1.396461e+01 1.210443e+01 1.304115e+01 1.124041e+01 1.222257e+01 1.049239e+01 1.150055e+01 9.849476e+00 1.086375e+01 9.298137e+00 1.029883e+01 8.823360e+00 9.791408e+00 8.409704e+00 9.327135e+00 8.042330e+00 8.892584e+00 7.707911e+00 8.476149e+00 7.395428e+00 8.068818e+00 7.096840e+00 7.664836e+00 6.807620e+00 7.262250e+00 6.527164e+00 6.863296e+00 6.259025e+00 6.474597e+00 6.010951e+00 6.107110e+00 5.794654e+00 5.775750e+00 5.625254e+00 5.498659e+00 5.520384e+00 5.296090e+00 5.498963e+00 5.188978e+00 5.579717e+00 5.197303e+00 5.779619e+00 5.338454e+00 6.112428e+00 5.625799e+00 6.587551e+00 6.067682e+00 7.209360e+00 6.666957e+00 7.977059e+00 7.421100e+00 8.885045e+00 8.322793e+00 9.923643e+00 9.360839e+00 1.108006e+01 1.052121e+01 1.233935e+01 1.178806e+01 1.368531e+01 1.314456e+01 1.510118e+01 1.457355e+01 1.657007e+01 1.605790e+01 1.807521e+01 1.758063e+01 
1.865318e+01 1.817824e+01 2.026304e+01 1.980885e+01 2.185284e+01 2.142078e+01 2.340556e+01 2.299646e+01 2.490342e+01 2.451742e+01 2.632770e+01 2.596408e+01 2.765853e+01 2.731559e+01 2.887492e+01 2.855000e+01 2.995502e+01 2.964455e+01 3.087650e+01 3.057631e+01 3.161736e+01 3.132299e+01 3.215681e+01 3.186414e+01 3.247647e+01 3.218231e+01 3.256162e+01 3.226449e+01 3.240253e+01 3.210332e+01 3.199560e+01 3.169811e+01 3.134426e+01 3.105550e+01 3.045945e+01 3.018964e+01 2.935962e+01 2.912181e+01 2.807023e+01 2.787960e+01 2.662273e+01 2.649560e+01 2.505319e+01 2.500588e+01 2.340059e+01 2.344819e+01 2.170498e+01 2.186021e+01 2.000560e+01 2.027783e+01 1.833913e+01 1.873361e+01 1.673812e+01 1.725554e+01 1.522972e+01 1.586606e+01 1.383479e+01 1.458152e+01 1.256742e+01 1.341194e+01 1.143487e+01 1.236117e+01 1.043787e+01 1.142730e+01 9.571307e+00 1.060344e+01 8.825173e+00 9.878592e+00 8.185687e+00 9.238725e+00 7.636547e+00 8.667933e+00 7.160206e+00 8.149590e+00 6.739096e+00 7.667485e+00 6.356765e+00 7.206884e+00 5.998867e+00 6.755485e+00 5.654025e+00 6.304261e+00 5.314532e+00 5.848166e+00 4.976915e+00 5.386704e+00 4.642347e+00 4.924325e+00 4.316864e+00 4.470579e+00 4.011332e+00 4.039967e+00 3.741097e+00 3.651395e+00 3.525220e+00 3.327174e+00 3.385296e+00 3.091566e+00 3.343867e+00 2.968960e+00 3.422568e+00 2.981849e+00 3.640223e+00 3.148884e+00 4.011150e+00 3.483290e+00 4.543951e+00 3.991884e+00 5.240957e+00 4.674834e+00 6.098368e+00 5.526122e+00 7.107002e+00 6.534553e+00 8.253434e+00 7.685075e+00 9.521303e+00 8.960151e+00 1.089255e+01 1.034098e+01 1.234844e+01 1.180846e+01 1.387031e+01 1.334378e+01 1.543999e+01 1.492878e+01 1.703994e+01 1.654594e+01 