# vtk DataFile Version 2.0
Comment goes here
ASCII

DATASET STRUCTURED_POINTS
FIELD FieldData 1
TIME 1 1 double
0.01000000
DIMENSIONS    128   128   1

ORIGIN    0.000   0.000   0.000
SPACING   0.039062 0.039062   1.000

POINT_DATA   16384
SCALARS P double
LOOKUP_TABLE default

-1.010747e+01 -1.160466e+01 -1.163758e+01 -1.342108e+01 -1.325545e+01 -1.533168e+01 -1.496609e+01 -1.733697e+01 -1.677068e+01 -1.943293e+01 -1.866590e+01 -2.161041e+01 -2.064336e+01 -2.385468e+01 -2.268912e+01 -2.614515e+01 -2.478349e+01 -2.845539e+01 -2.690103e+01 -3.075339e+01 -2.901084e+01 -3.300220e+01 -3.107715e+01 -3.516075e+01 -3.306019e+01 -3.718513e+01 -3.491743e+01 -3.902996e+01 -3.660490e+01 -4.065006e+01 -3.807889e+01 -4.200207e+01 -3.929751e+01 -4.304618e+01 -4.022242e+01 -4.374760e+01 -4.082028e+01 -4.407791e+01 -4.106409e+01 -4.401608e+01 -4.093417e+01 -4.354915e+01 -4.041888e+01 -4.267264e+01 -3.951501e+01 -4.139066e+01 -3.822790e+01 -3.971578e+01 -3.657125e+01 -3.766869e+01 -3.456689e+01 -3.527782e+01 -3.224423e+01 -3.257876e+01 -2.963975e+01 -2.961364e+01 -2.679626e+01 -2.643043e+01 -2.376211e+01 -2.308205e+01 -2.059020e+01 -1.962539e+01 -1.733689e+01 -1.612005e+01 -1.406062e+01 -1.262696e+01 -1.082044e+01 -9.206753e+00 -7.674308e+00 -5.918041e+00 -4.677379e+00 -2.815622e+00 -1.880236e+00 5.126606e-02 6.727475e-01 2.640518e+00 2.944833e+00 4.918471e+00 4.908028e+00 6.860838e+00 6.543796e+00 8.453200e+00 7.843316e+00 9.691036e+00 8.807284e+00 1.057927e+01 9.445265e+00 1.113141e+01 9.774657e+00 1.136828e+01 9.819341e+00 1.131658e+01 9.608126e+00 1.100715e+01 9.173070e+00 1.047332e+01 8.547803e+00 9.749168e+00 7.765931e+00 8.868043e+00 6.859601e+00 7.861173e+00 5.858283e+00 6.756584e+00 4.787809e+00 5.578270e+00 3.669683e+00 4.345646e+00 2.520665e+00 3.073270e+00 1.352607e+00 1.770819e+00 1.725270e-01 4.432824e-01 -1.017118e+00 -9.086530e-01 -2.217993e+00 -2.288065e+00 -3.435305e+00 -3.701134e+00 -4.677131e+00 -5.156389e+00 -5.953650e+00 -6.663881e+00 -7.276339e+00 -8.234315e+00 -8.657115e+00 -9.878143e+00 
-1.535484e+01 -1.653928e+01 -1.727257e+01 -1.875640e+01 -1.930650e+01 -2.109593e+01 -2.145802e+01 -2.355472e+01 -2.372399e+01 -2.612438e+01 -2.609600e+01 -2.879057e+01 -2.855976e+01 -3.153257e+01 -3.109474e+01 -3.432306e+01 -3.367399e+01 -3.712820e+01 -3.626432e+01 -3.990803e+01 -3.882675e+01 -4.261733e+01 -4.131737e+01 -4.520672e+01 -4.368853e+01 -4.762419e+01 -4.589034e+01 -4.981687e+01 -4.787243e+01 -5.173298e+01 -4.958585e+01 -5.332384e+01 -5.098498e+01 -5.454574e+01 -5.202934e+01 -5.536172e+01 -5.268516e+01 -5.574284e+01 -5.292664e+01 -5.566925e+01 -5.273682e+01 -5.513069e+01 -5.210804e+01 -5.412668e+01 -5.104202e+01 -5.266637e+01 -4.954968e+01 -5.076805e+01 -4.765069e+01 -4.845861e+01 -4.537285e+01 -4.577277e+01 -4.275144e+01 -4.275235e+01 -3.982842e+01 -3.944543e+01 -3.665163e+01 -3.590546e+01 -3.327390e+01 -3.219035e+01 -2.975204e+01 -2.836131e+01 -2.614570e+01 -2.448168e+01 -2.251604e+01 -2.061543e+01 -1.892430e+01 -1.682565e+01 -1.543017e+01 -1.317284e+01 -1.209009e+01 -9.713229e+00 -8.955682e+00 -6.497108e+00 -6.072102e+00 -3.567385e+00 -3.476794e+00 -9.583979e-01 -1.198450e+00 1.304909e+00 7.436015e-01 3.207381e+00 2.339587e+00 4.743603e+00 3.589037e+00 5.917399e+00 4.500118e+00 6.740940e+00 5.088593e+00 7.233513e+00 5.376504e+00 7.420047e+00 5.390647e+00 7.329493e+00 5.160951e+00 6.993158e+00 4.718861e+00 6.443084e+00 4.095798e+00 5.710565e+00 3.321773e+00 4.824846e+00 2.424226e+00 3.812072e+00 1.427095e+00 2.694491e+00 3.501621e-01 1.489937e+00 -7.913390e-01 2.115720e-01 -1.986868e+00 -1.132120e+00 -3.230487e+00 -2.537128e+00 -4.520573e+00 -4.003511e+00 -5.859360e+00 -5.534845e+00 -7.252340e+00 -7.137537e+00 -8.707555e+00 -8.820042e+00 -1.023480e+01 -1.059200e+01 -1.184479e+01 -1.246332e+01 -1.354821e+01 -1.444323e+01 
-1.006884e+01 -1.156101e+01 -1.159504e+01 -1.337538e+01 -1.321049e+01 -1.528578e+01 -1.492056e+01 -1.729307e+01 -1.672678e+01 -1.939356e+01 -1.862614e+01 -2.157832e+01 -2.061045e+01 -2.383273e+01 -2.266588e+01 -2.613622e+01 -2.477275e+01 -2.846223e+01 -2.690550e+01 -3.077848e+01 -2.903296e+01 -3.304758e+01 -3.111894e+01 -3.522792e+01 -3.312313e+01 -3.727489e+01 -3.500229e+01 -3.914234e+01 -3.671172e+01 -4.078425e+01 -3.820685e+01 -4.215646e+01 -3.944500e+01 -4.321837e+01 -4.038704e+01 -4.393452e+01 -4.099896e+01 -4.427593e+01 -4.125319e+01 -4.422115e+01 -4.112964e+01 -4.375697e+01 -4.061641e+01 -4.287880e+01 -3.971021e+01 -4.159078e+01 -3.841638e+01 -3.990559e+01 -3.674879e+01 -3.784417e+01 -3.472949e+01 -3.543521e+01 -3.238823e+01 -3.271464e+01 -2.976187e+01 -2.972504e+01 -2.689368e+01 -2.651483e+01 -2.383254e+01 -2.313750e+01 -2.063199e+01 -1.965059e+01 -1.734905e+01 -1.611444e+01 -1.404296e+01 -1.259077e+01 -1.077358e+01 -9.141096e+00 -7.599754e+00 -5.824904e+00 -4.577482e+00 -2.697842e+00 -1.758150e+00 1.900823e-01 8.131752e-01 2.796131e+00 3.099219e+00 5.086188e+00 5.071646e+00 7.035729e+00 6.711794e+00 8.630328e+00 8.010948e+00 9.865688e+00 8.970126e+00 1.074717e+01 9.599409e+00 1.128889e+01 9.916865e+00 1.151243e+01 9.947154e+00 1.144531e+01 9.719917e+00 1.111923e+01 9.268051e+00 1.056835e+01 8.625983e+00 9.827535e+00 7.828034e+00 8.930789e+00 6.906961e+00 7.909895e+00 5.892711e+00 6.793290e+00 4.811462e+00 5.605242e+00 3.684925e+00 4.365301e+00 2.529938e+00 3.088038e+00 1.358316e+00 1.783030e+00 1.769405e-01 4.550757e-01 -1.011953e+00 -8.954090e-01 -2.210317e+00 -2.271832e+00 -3.423700e+00 -3.680749e+00 -4.660552e+00 -5.131100e+00 -5.931458e+00 -6.633368e+00 -7.248315e+00 -8.198702e+00 -8.623470e+00 -9.838004e+00 
-1.524626e+01 -1.642084e+01 -1.715907e+01 -1.863678e+01 -1.919174e+01 -2.097953e+01 -2.134645e+01 -2.344674e+01 -2.362080e+01 -2.603064e+01 -2.600695e+01 -2.871736e+01 -2.849100e+01 -3.148639e+01 -3.105258e+01 -3.431034e+01 -3.366462e+01 -3.715497e+01 -3.629347e+01 -3.997959e+01 -3.889936e+01 -4.273784e+01 -4.143725e+01 -4.537892e+01 -4.385805e+01 -4.784909e+01 -4.611017e+01 -5.009361e+01 -4.814140e+01 -5.205872e+01 -4.990090e+01 -5.369385e+01 -5.134122e+01 -5.495357e+01 -5.242028e+01 -5.579948e+01 -5.310297e+01 -5.620159e+01 -5.336255e+01 -5.613936e+01 -5.318146e+01 -5.560225e+01 -5.255183e+01 -5.458987e+01 -5.147550e+01 -5.311169e+01 -4.996376e+01 -5.118658e+01 -4.803686e+01 -4.884213e+01 -4.572331e+01 -4.611389e+01 -4.305921e+01 -4.304455e+01 -4.008742e+01 -3.968317e+01 -3.685678e+01 -3.608428e+01 -3.342122e+01 -3.230695e+01 -2.983878e+01 -2.841374e+01 -2.617047e+01 -2.446942e+01 -2.247898e+01 -2.053957e+01 -1.882714e+01 -1.668896e+01 -1.527629e+01 -1.297975e+01 -1.188451e+01 -9.469782e+00 -8.704899e+00 -6.210764e+00 -5.783916e+00 -3.246756e+00 -3.159974e+00 -6.128897e-01 -8.623634e-01 1.665513e+00 1.089411e+00 3.573362e+00 2.685835e+00 5.105736e+00 3.927107e+00 6.267357e+00 4.822425e+00 7.071618e+00 5.388872e+00 7.539277e+00 5.650002e+00 7.696876e+00 5.634228e+00 7.575030e+00 5.373098e+00 7.206658e+00 4.899592e+00 6.625291e+00 4.246509e+00 5.863514e+00 3.445029e+00 4.951628e+00 2.523511e+00 3.916566e+00 1.506550e+00 2.781095e+00 4.143191e-01 1.563301e+00 -7.378103e-01 2.763546e-01 -1.939388e+00 -1.071474e+00 -3.184766e+00 -2.476574e+00 -4.472784e+00 -3.939560e+00 -5.806270e+00 -5.464691e+00 -7.191423e+00 -7.059155e+00 -8.637073e+00 -8.732264e+00 -1.015387e+01 -1.049457e+01 -1.175341e+01 -1.235692e+01 -1.344731e+01 -1.432951e+01 
-9.951936e+00 -1.142866e+01 -1.146600e+01 -1.323645e+01 -1.307377e+01 -1.514589e+01 -1.478179e+01 -1.715893e+01 -1.659265e+01 -1.927279e+01 -1.850421e+01 -2.147925e+01 -2.050893e+01 -2.376409e+01 -2.259338e+01 -2.610677e+01 -2.473791e+01 -2.848037e+01 -2.691658e+01 -3.085179e+01 -2.909741e+01 -3.318236e+01 -3.124297e+01 -3.542875e+01 -3.331126e+01 -3.754426e+01 -3.525698e+01 -3.948038e+01 -3.703308e+01 -4.118858e+01 -3.859249e+01 -4.262217e+01 -3.989002e+01 -4.373819e+01 -4.088416e+01 -4.449908e+01 -4.153881e+01 -4.487419e+01 -4.182471e+01 -4.484083e+01 -4.172053e+01 -4.438501e+01 -4.121362e+01 -4.350186e+01 -4.030037e+01 -4.219559e+01 -3.898624e+01 -4.047928e+01 -3.728557e+01 -3.837454e+01 -3.522114e+01 -3.591093e+01 -3.282367e+01 -3.312544e+01 -3.013119e+01 -3.006187e+01 -2.718835e+01 -2.677009e+01 -2.404564e+01 -2.330526e+01 -2.075842e+01 -1.972686e+01 -1.738582e+01 -1.609743e+01 -1.398940e+01 -1.248116e+01 -1.063157e+01 -8.942192e+00 -7.373785e+00 -5.542697e+00 -4.274678e+00 -2.340931e+00 -1.388081e+00 6.107404e-01 1.238815e+00 3.267636e+00 3.567082e+00 5.594249e+00 5.567331e+00 7.565322e+00 7.220521e+00 9.166413e+00 8.518258e+00 1.039391e+01 9.462554e+00 1.125452e+01 1.006507e+01 1.176425e+01 1.034595e+01 1.194697e+01 1.033222e+01 1.183273e+01 1.005608e+01 1.145587e+01 9.552990e+00 1.085309e+01 8.859802e+00 1.006159e+01 8.013018e+00 9.117437e+00 7.047233e+00 8.054056e+00 5.993846e+00 6.901131e+00 4.880063e+00 5.683741e+00 3.728211e+00 4.421836e+00 2.555353e+00 3.130010e+00 1.373176e+00 1.817525e+00 1.881329e-01 4.885845e-01 -9.982219e-01 -8.572204e-01 -2.188718e+00 -2.224302e+00 -3.389935e+00 -3.620360e+00 -4.611467e+00 -5.055570e+00 -5.865117e+00 -6.541722e+00 -7.164052e+00 -8.091310e+00 -8.521917e+00 -9.716595e+00 
-1.502639e+01 -1.618048e+01 -1.692851e+01 -1.839319e+01 -1.895783e+01 -2.074163e+01 -2.111823e+01 -2.322504e+01 -2.340877e+01 -2.583699e+01 -2.582281e+01 -2.856456e+01 -2.834731e+01 -3.138774e+01 -3.096224e+01 -3.427903e+01 -3.364032e+01 -3.720342e+01 -3.634702e+01 -4.011873e+01 -3.904098e+01 -4.297634e+01 -4.167487e+01 -4.572251e+01 -4.419665e+01 -4.830001e+01 -4.655126e+01 -5.065018e+01 -4.868269e+01 -5.271522e+01 -5.053616e+01 -5.444062e+01 -5.206051e+01 -5.577743e+01 -5.321030e+01 -5.668430e+01 -5.394774e+01 -5.712906e+01 -5.424410e+01 -5.708984e+01 -5.408069e+01 -5.655560e+01 -5.344926e+01 -5.552611e+01 -5.235193e+01 -5.401163e+01 -5.080082e+01 -5.203222e+01 -4.881737e+01 -4.961694e+01 -4.643157e+01 -4.680297e+01 -4.368115e+01 -4.363481e+01 -4.061080e+01 -4.016343e+01 -3.727132e+01 -3.644546e+01 -3.371883e+01 -3.254235e+01 -3.001383e+01 -2.851928e+01 -2.622008e+01 -2.444397e+01 -2.240329e+01 -2.038524e+01 -1.862956e+01 -1.641125e+01 -1.496363e+01 -1.258763e+01 -1.146691e+01 -8.975502e+00 -8.195608e+00 -5.629529e+00 -5.198831e+00 -2.596147e+00 -2.517014e+00 8.786778e-02 -1.806856e-01 2.396410e+00 1.790287e+00 4.314519e+00 3.386924e+00 5.838312e+00 4.610816e+00 6.974363e+00 5.473296e+00 7.738603e+00 5.994175e+00 8.154822e+00 6.200135e+00 8.252894e+00 6.122912e+00 8.066850e+00 5.797382e+00 7.632923e+00 5.259667e+00 6.987678e+00 4.545378e+00 6.166332e+00 3.688068e+00 5.201321e+00 2.717952e+00 4.121166e+00 1.660939e+00 2.949660e+00 5.379703e-01 1.705378e+00 -6.353280e-01 4.014765e-01 -1.848715e+00 -9.542294e-01 -3.097159e+00 -2.358960e+00 -4.380446e+00 -3.814474e+00 -5.702629e+00 -5.326424e+00 -7.071345e+00 -6.903582e+00 -8.497023e+00 -8.556994e+00 -9.992032e+00 -1.029905e+01 -1.156977e+01 -1.214251e+01 -1.324370e+01 -1.409950e+01 
-9.753608e+00 -1.120331e+01 -1.124609e+01 -1.299882e+01 -1.283979e+01 -1.490544e+01 -1.454327e+01 -1.692704e+01 -1.636089e+01 -1.906244e+01 -1.829207e+01 -2.130466e+01 -2.033043e+01 -2.364020e+01 -2.246324e+01 -2.604866e+01 -2.467095e+01 -2.850252e+01 -2.692707e+01 -3.096733e+01 -2.919829e+01 -3.340227e+01 -3.144505e+01 -3.576108e+01 -3.362249e+01 -3.799348e+01 -3.568177e+01 -4.004687e+01 -3.757178e+01 -4.186836e+01 -3.924113e+01 -4.340691e+01 -4.064028e+01 -4.461544e+01 -4.172361e+01 -4.545283e+01 -4.245141e+01 -4.588551e+01 -4.279151e+01 -4.588871e+01 -4.272048e+01 -4.544723e+01 -4.222444e+01 -4.455569e+01 -4.129932e+01 -4.321854e+01 -3.995087e+01 -4.144962e+01 -3.819423e+01 -3.927168e+01 -3.605347e+01 -3.671579e+01 -3.356097e+01 -3.382069e+01 -3.075671e+01 -3.063219e+01 -2.768762e+01 -2.720253e+01 -2.440684e+01 -2.358966e+01 -2.097279e+01 -1.985625e+01 -1.744811e+01 -1.606859e+01 -1.389830e+01 -1.229503e+01 -1.039008e+01 -8.604211e+00 -6.989432e+00 -5.062959e+00 -3.759519e+00 -1.734049e+00 -7.584340e-01 1.326045e+00 1.962926e+00 4.069244e+00 4.362750e+00 6.457610e+00 6.409805e+00 8.464607e+00 8.084389e+00 1.007576e+01 9.378676e+00 1.128869e+01 1.029642e+01 1.211243e+01 1.085206e+01 1.256630e+01 1.106933e+01 1.267818e+01 1.097942e+01 1.248252e+01 1.061895e+01 1.201819e+01 1.002779e+01 1.132631e+01 9.246993e+00 1.044809e+01 8.316774e+00 9.423078e+00 7.274864e+00 8.287508e+00 6.155101e+00 7.073143e+00 4.986407e+00 5.806401e+00 3.792110e+00 4.507863e+00 2.589600e+00 3.192104e+00 1.390302e+00 1.867811e+00 1.998923e-01 5.381342e-01 -9.812638e-01 -7.987636e-01 -2.157512e+00 -2.149020e+00 -3.337195e+00 -3.522277e+00 -4.531847e+00 -4.930813e+00 -5.755338e+00 -6.388625e+00 -7.022976e+00 -7.910475e+00 -8.350593e+00 -9.510919e+00 
-1.468980e+01 -1.581120e+01 -1.657367e+01 -1.801689e+01 -1.859593e+01 -2.037190e+01 -2.076304e+01 -2.287800e+01 -2.307640e+01 -2.553086e+01 -2.553130e+01 -2.831915e+01 -2.811607e+01 -3.122372e+01 -3.081135e+01 -3.421704e+01 -3.358963e+01 -3.726300e+01 -3.641512e+01 -4.031717e+01 -3.924409e+01 -4.332753e+01 -4.202569e+01 -4.623576e+01 -4.470331e+01 -4.897914e+01 -4.721645e+01 -5.149285e+01 -4.950306e+01 -5.371272e+01 -5.150221e+01 -5.557799e+01 -5.315679e+01 -5.703413e+01 -5.441612e+01 -5.803517e+01 -5.523815e+01 -5.854563e+01 -5.559117e+01 -5.854165e+01 -5.545481e+01 -5.801150e+01 -5.482034e+01 -5.695542e+01 -5.369052e+01 -5.538503e+01 -5.207884e+01 -5.332233e+01 -5.000872e+01 -5.079869e+01 -4.751243e+01 -4.785385e+01 -4.463023e+01 -4.453497e+01 -4.140949e+01 -4.089587e+01 -3.790393e+01 -3.699627e+01 -3.417291e+01 -3.290110e+01 -3.028055e+01 -2.867947e+01 -2.629475e+01 -2.440360e+01 -2.228586e+01 -2.014722e+01 -1.832503e+01 -1.598382e+01 -1.448226e+01 -1.198442e+01 -1.082424e+01 -8.215355e+00 -7.412059e+00 -4.735956e+00 -4.299049e+00 -1.596443e+00 -1.528855e+00 1.163795e+00 8.660248e-01 3.517404e+00 2.865151e+00 5.449642e+00 4.460402e+00 6.958279e+00 5.655588e+00 8.052844e+00 6.465441e+00 8.753296e+00 6.914095e+00 9.088231e+00 7.033177e+00 9.092774e+00 6.859660e+00 8.806325e+00 6.433626e+00 8.270290e+00 5.796100e+00 7.525955e+00 4.987052e+00 6.612597e+00 4.043679e+00 5.565916e+00 2.999025e+00 4.416831e+00 1.880966e+00 3.190656e+00 7.115612e-01 1.906645e+00 -4.932430e-01 5.778631e-01 -1.723596e+00 -7.886357e-01 -2.975467e+00 -2.191402e+00 -4.250147e+00 -3.633988e+00 -5.553601e+00 -5.124201e+00 -6.895681e+00 -6.673255e+00 -8.289272e+00 -8.294844e+00 -9.749367e+00 -1.000416e+01 -1.129210e+01 -1.181688e+01 -1.293378e+01 -1.374808e+01 
-9.468589e+00 -1.087775e+01 -1.092795e+01 -1.265320e+01 -1.249925e+01 -1.455330e+01 -1.419390e+01 -1.658469e+01 -1.601893e+01 -1.874862e+01 -1.797602e+01 -2.103996e+01 -2.006059e+01 -2.344639e+01 -2.226103e+01 -2.594782e+01 -2.455809e+01 -2.851601e+01 -2.692455e+01 -3.111464e+01 -2.932531e+01 -3.369982e+01 -3.171781e+01 -3.622106e+01 -3.405303e+01 -3.862281e+01 -3.627695e+01 -4.084647e+01 -3.833250e+01 -4.283267e+01 -4.016188e+01 -4.452390e+01 -4.170905e+01 -4.586701e+01 -4.292231e+01 -4.681558e+01 -4.375663e+01 -4.733184e+01 -4.417560e+01 -4.738807e+01 -4.415280e+01 -4.696736e+01 -4.367266e+01 -4.606386e+01 -4.273063e+01 -4.468246e+01 -4.133297e+01 -4.283824e+01 -3.949616e+01 -4.055572e+01 -3.724619e+01 -3.786810e+01 -3.461780e+01 -3.481657e+01 -3.165372e+01 -3.144972e+01 -2.840405e+01 -2.782304e+01 -2.492556e+01 -2.399824e+01 -2.128092e+01 -2.004251e+01 -1.753771e+01 -1.602740e+01 -1.376705e+01 -1.202728e+01 -1.004190e+01 -8.117364e+00 -6.434909e+00 -4.371328e+00 -3.015917e+00 -8.586845e-01 1.506243e-01 2.357942e+00 3.008261e+00 5.225363e+00 5.510847e+00 7.701983e+00 7.624376e+00 9.759347e+00 9.328161e+00 1.138295e+01 1.061524e+01 1.257225e+01 1.149200e+01 1.333985e+01 1.197708e+01 1.371002e+01 1.209959e+01 1.371663e+01 1.189691e+01 1.340071e+01 1.141225e+01 1.280786e+01 1.069203e+01 1.198565e+01 9.783400e+00 1.098120e+01 8.732021e+00 9.839068e+00 7.580129e+00 8.599527e+00 6.365036e+00 7.297261e+00 5.118052e+00 5.960523e+00 3.863842e+00 4.610689e+00 2.620161e+00 3.262201e+00 1.397939e+00 1.922809e+00 2.016432e-01 5.940655e-01 -9.701498e-01 -7.279858e-01 -2.124020e+00 -2.052001e+00 -3.270873e+00 -3.390431e+00 -4.425039e+00 -4.758569e+00 -5.603339e+00 -6.173564e+00 -6.824137e+00 -7.653414e+00 -8.106372e+00 -9.215939e+00 
-1.422823e+01 -1.530237e+01 -1.608359e+01 -1.749451e+01 -1.809250e+01 -1.985451e+01 -2.026507e+01 -2.238769e+01 -2.260600e+01 -2.509281e+01 -2.511339e+01 -2.796090e+01 -2.777766e+01 -3.097420e+01 -3.058057e+01 -3.410537e+01 -3.349451e+01 -3.731700e+01 -3.648217e+01 -4.056172e+01 -3.949668e+01 -4.378282e+01 -4.248234e+01 -4.691562e+01 -4.537616e+01 -4.988963e+01 -4.810992e+01 -5.263127e+01 -5.061298e+01 -5.506713e+01 -5.281550e+01 -5.712754e+01 -5.465185e+01 -5.874991e+01 -5.606381e+01 -5.988179e+01 -5.700336e+01 -6.048305e+01 -5.743467e+01 -6.052723e+01 -5.733520e+01 -6.000197e+01 -5.669592e+01 -5.890851e+01 -5.552070e+01 -5.726062e+01 -5.382530e+01 -5.508328e+01 -5.163604e+01 -5.241120e+01 -4.898846e+01 -4.928759e+01 -4.592622e+01 -4.576317e+01 -4.250026e+01 -4.189542e+01 -3.876805e+01 -3.774806e+01 -3.479311e+01 -3.339048e+01 -3.064435e+01 -2.889703e+01 -2.639517e+01 -2.434594e+01 -2.212224e+01 -1.981778e+01 -1.790371e+01 -1.539343e+01 -1.381703e+01 -1.115161e+01 -9.936367e+00 -7.166110e+00 -6.329860e+00 -3.502981e+00 -3.056917e+00 -2.179187e-01 -1.658358e-01 2.645898e+00 2.308037e+00 5.059318e+00 4.343441e+00 7.007925e+00 5.933515e+00 8.491900e+00 7.085291e+00 9.525057e+00 7.818421e+00 1.013317e+01 8.163268e+00 1.035174e+01 8.158547e+00 1.022340e+01 7.848689e+00 9.795170e+00 7.281160e+00 9.115766e+00 6.503870e+00 8.233074e+00 5.562866e+00 7.191997e+00 4.500371e+00 6.032701e+00 3.353270e+00 4.789326e+00 2.152049e+00 3.489163e+00 9.201803e-01 2.152263e+00 -3.260857e-01 7.914293e-01 -1.577571e+00 -5.874598e-01 -2.831738e+00 -1.984888e+00 -4.092044e+00 -3.406944e+00 -5.367135e+00 -4.864445e+00 -6.669946e+00 -6.371964e+00 -8.016730e+00 -7.946821e+00 -9.426062e+00 -9.608027e+00 -1.091781e+01 -1.137521e+01 -1.251210e+01 -1.326749e+01 
-9.089411e+00 -1.044170e+01 -1.050114e+01 -1.218632e+01 -1.203886e+01 -1.407346e+01 -1.371782e+01 -1.611356e+01 -1.554866e+01 -1.831118e+01 -1.753624e+01 -2.066389e+01 -1.967854e+01 -2.316117e+01 -2.196567e+01 -2.578356e+01 -2.437899e+01 -2.850209e+01 -2.689060e+01 -3.127811e+01 -2.946312e+01 -3.406370e+01 -3.205011e+01 -3.680270e+01 -3.459698e+01 -3.943239e+01 -3.704268e+01 -4.188582e+01 -3.932191e+01 -4.409470e+01 -4.136792e+01 -4.599249e+01 -4.311569e+01 -4.751761e+01 -4.450504e+01 -4.861635e+01 -4.548360e+01 -4.924525e+01 -4.600917e+01 -4.937271e+01 -4.605145e+01 -4.897980e+01 -4.559278e+01 -4.806031e+01 -4.462827e+01 -4.662008e+01 -4.316519e+01 -4.467610e+01 -4.122205e+01 -4.225541e+01 -3.882754e+01 -3.939406e+01 -3.601955e+01 -3.613639e+01 -3.284434e+01 -3.253443e+01 -2.935596e+01 -2.864761e+01 -2.561572e+01 -2.454236e+01 -2.169165e+01 -2.029159e+01 -1.765768e+01 -1.597369e+01 -1.359235e+01 -1.167105e+01 -9.577010e+00 -7.467818e+00 -5.693384e+00 -3.447155e+00 -2.020611e+00 3.120296e-01 1.367972e+00 3.738460e+00 4.408086e+00 6.771731e+00 7.047455e+00 9.365068e+00 9.248156e+00 1.148731e+01 1.098812e+01 1.312394e+01 1.226163e+01 1.427704e+01 1.307883e+01 1.496428e+01 1.346428e+01 1.521695e+01 1.345468e+01 1.507731e+01 1.309611e+01 1.459558e+01 1.244090e+01 1.382667e+01 1.154448e+01 1.282705e+01 1.046239e+01 1.165182e+01 9.247619e+00 1.035230e+01 7.948419e+00 8.974076e+00 6.606647e+00 7.555612e+00 5.256652e+00 6.127428e+00 3.924690e+00 4.711763e+00 2.628796e+00 3.322673e+00 1.379046e+00 1.966474e+00 1.781181e-01 6.424380e-01 -9.779302e-01 -6.563265e-01 -2.098748e+00 -1.941893e+00 -3.198699e+00 -3.230476e+00 -4.295839e+00 -4.541364e+00 -5.410891e+00 -5.895859e+00 -6.566226e+00 -7.316204e+00 -7.784853e+00 -8.824516e+00 
-1.363058e+01 -1.463959e+01 -1.544339e+01 -1.680784e+01 -1.742910e+01 -1.916775e+01 -1.960264e+01 -2.172942e+01 -2.197315e+01 -2.449584e+01 -2.454264e+01 -2.746147e+01 -2.730459e+01 -3.061075e+01 -3.024258e+01 -3.391698e+01 -3.332929e+01 -3.734143e+01 -3.652575e+01 -4.083315e+01 -3.978121e+01 -4.432943e+01 -4.303379e+01 -4.775720e+01 -4.621199e+01 -5.103549e+01 -4.923718e+01 -5.407871e+01 -5.202694e+01 -5.680081e+01 -5.449918e+01 -5.911975e+01 -5.657647e+01 -6.096192e+01 -5.819028e+01 -6.226601e+01 -5.928449e+01 -6.298584e+01 -5.981796e+01 -6.309186e+01 -5.976566e+01 -6.257137e+01 -5.911862e+01 -6.142753e+01 -5.788288e+01 -5.967761e+01 -5.607767e+01 -5.735091e+01 -5.373349e+01 -5.448673e+01 -5.089029e+01 -5.113281e+01 -4.759612e+01 -4.734422e+01 -4.390618e+01 -4.318278e+01 -3.988242e+01 -3.871686e+01 -3.559328e+01 -3.402117e+01 -3.111338e+01 -2.917643e+01 -2.652302e+01 -2.426850e+01 -2.190694e+01 -1.938683e+01 -1.735253e+01 -1.462221e+01 -1.294725e+01 -1.006376e+01 -8.775460e+00 -5.795493e+00 -4.915000e+00 -1.892772e+00 -1.433698e+00 1.581112e+00 1.613691e+00 4.577722e+00 4.187871e+00 7.065419e+00 6.266461e+00 9.030267e+00 7.844380e+00 1.047583e+01 8.933159e+00 1.142187e+01 9.559270e+00 1.190221e+01 9.761669e+00 1.196185e+01 9.588775e+00 1.165366e+01 9.095173e+00 1.103500e+01 8.338277e+00 1.016437e+01 7.375207e+00 9.098433e+00 6.260030e+00 7.889465e+00 5.041512e+00 6.583387e+00 3.761440e+00 5.218382e+00 2.453522e+00 3.824106e+00 1.142847e+00 2.421407e+00 -1.541788e-01 1.022511e+00 -1.429482e+00 -3.684495e-01 -2.682670e+00 -1.754646e+00 -3.920167e+00 -3.145587e+00 -5.154207e+00 -4.556058e+00 -6.401767e+00 -6.005010e+00 -7.683470e+00 -7.514434e+00 -9.022490e+00 -9.108233e+00 -1.044346e+01 -1.081109e+01 -1.197140e+01 -1.264730e+01 
-8.606336e+00 -9.881663e+00 -9.951975e+00 -1.158069e+01 -1.144112e+01 -1.344473e+01 -1.309402e+01 -1.548917e+01 -1.492599e+01 -1.772306e+01 -1.694616e+01 -2.014770e+01 -1.915609e+01 -2.275525e+01 -2.154844e+01 -2.552746e+01 -2.410578e+01 -2.843478e+01 -2.679967e+01 -3.143588e+01 -2.959020e+01 -3.447786e+01 -3.242610e+01 -3.749723e+01 -3.524568e+01 -4.042184e+01 -3.797863e+01 -4.317366e+01 -4.054868e+01 -4.567232e+01 -4.287711e+01 -4.783911e+01 -4.488667e+01 -4.960108e+01 -4.650575e+01 -5.089481e+01 -4.767213e+01 -5.166939e+01 -4.833611e+01 -5.188844e+01 -4.846245e+01 -5.153083e+01 -4.803127e+01 -5.059040e+01 -4.703773e+01 -4.907486e+01 -4.549098e+01 -4.700412e+01 -4.341258e+01 -4.440871e+01 -4.083493e+01 -4.132838e+01 -3.779995e+01 -3.781122e+01 -3.435815e+01 -3.391321e+01 -3.056817e+01 -2.969823e+01 -2.649656e+01 -2.523809e+01 -2.221766e+01 -2.061247e+01 -1.781308e+01 -1.590823e+01 -1.337068e+01 -1.121799e+01 -8.982644e+00 -6.637634e+00 -4.742682e+00 -2.262979e+00 -7.424200e-01 1.814315e+00 2.932713e+00 5.511129e+00 6.207715e+00 8.757134e+00 9.021881e+00 1.149843e+01 1.133190e+01 1.370014e+01 1.311381e+01 1.534777e+01 1.436369e+01 1.644711e+01 1.509687e+01 1.702280e+01 1.534608e+01 1.711577e+01 1.515840e+01 1.677976e+01 1.459168e+01 1.607738e+01 1.371055e+01 1.507603e+01 1.258245e+01 1.384391e+01 1.127394e+01 1.244660e+01 9.847530e+00 1.094411e+01 8.359150e+00 9.388709e+00 6.856308e+00 7.823474e+00 5.376979e+00 6.281526e+00 3.949135e+00 4.785864e+00 2.590827e+00 3.349718e+00 1.310714e+00 1.977268e+00 1.089084e-01 6.646279e-01 -1.021967e+00 -5.990133e-01 -2.095621e+00 -1.830188e+00 -3.130898e+00 -3.049933e+00 -4.150604e+00 -4.282597e+00 -5.180374e+00 -5.554693e+00 -6.247588e+00 -6.893777e+00 -7.380327e+00 -8.327336e+00 
-1.288279e+01 -1.380452e+01 -1.463412e+01 -1.593354e+01 -1.658207e+01 -1.828358e+01 -1.874769e+01 -2.087097e+01 -2.114599e+01 -2.370446e+01 -2.378427e+01 -2.678326e+01 -2.666034e+01 -3.009526e+01 -2.976073e+01 -3.361520e+01 -3.305909e+01 -3.730333e+01 -3.651497e+01 -4.110466e+01 -4.007317e+01 -4.494910e+01 -4.366415e+01 -4.875287e+01 -4.720551e+01 -5.242123e+01 -5.060486e+01 -5.585255e+01 -5.376403e+01 -5.894367e+01 -5.658430e+01 -6.159574e+01 -5.897223e+01 -6.372027e+01 -6.084534e+01 -6.524418e+01 -6.213686e+01 -6.611360e+01 -6.279898e+01 -6.629556e+01 -6.280409e+01 -6.577787e+01 -6.214433e+01 -6.456724e+01 -6.082946e+01 -6.268642e+01 -5.888411e+01 -6.017097e+01 -5.634474e+01 -5.706642e+01 -5.325712e+01 -5.342613e+01 -4.967462e+01 -4.931021e+01 -4.565732e+01 -4.478519e+01 -4.127197e+01 -3.992434e+01 -3.659232e+01 -3.480821e+01 -3.169946e+01 -2.952485e+01 -2.668175e+01 -2.416933e+01 -2.163396e+01 -1.884233e+01 -1.665528e+01 -1.364750e+01 -1.184631e+01 -8.687783e+00 -7.305064e+00 -4.060989e+00 -3.122466e+00 1.449080e-01 6.221925e-01 3.856257e+00 3.865354e+00 7.017447e+00 6.562356e+00 9.593480e+00 8.689329e+00 1.157113e+01 1.024367e+01 1.295861e+01 1.124309e+01 1.378384e+01 1.172334e+01 1.409154e+01 1.173498e+01 1.393946e+01 1.133943e+01 1.339415e+01 1.060474e+01 1.252661e+01 9.601427e+00 1.140815e+01 8.398547e+00 1.010672e+01 7.060443e+00 8.683938e+00 5.644101e+00 7.192861e+00 4.197303e+00 5.676516e+00 2.757528e+00 4.167186e+00 1.351533e+00 2.686345e+00 -4.463622e-03 1.245104e+00 -1.304147e+00 -1.549431e-01 -2.550139e+00 -1.520618e+00 -3.752831e+00 -2.865911e+00 -4.929115e+00 -4.210689e+00 -6.101103e+00 -5.579402e+00 -7.294882e+00 -6.999837e+00 -8.539308e+00 -8.501916e+00 -9.864872e+00 -1.011652e+01 -1.130257e+01 -1.187432e+01 
-8.007292e+00 -9.180814e+00 -9.263369e+00 -1.081433e+01 -1.068411e+01 -1.264025e+01 -1.229594e+01 -1.468030e+01 -1.412020e+01 -1.694943e+01 -1.617163e+01 -1.945405e+01 -1.845668e+01 -2.219020e+01 -2.097174e+01 -2.514180e+01 -2.370152e+01 -2.827923e+01 -2.661758e+01 -3.155828e+01 -2.967735e+01 -3.492011e+01 -3.282387e+01 -3.829208e+01 -3.598664e+01 -4.158988e+01 -3.908345e+01 -4.472093e+01 -4.202369e+01 -4.758883e+01 -4.471269e+01 -5.009863e+01 -4.705689e+01 -5.216223e+01 -4.896937e+01 -5.370339e+01 -5.037492e+01 -5.466171e+01 -5.121415e+01 -5.499507e+01 -5.144596e+01 -5.468027e+01 -5.104830e+01 -5.371226e+01 -5.001738e+01 -5.210200e+01 -4.836564e+01 -4.987392e+01 -4.611924e+01 -4.706342e+01 -4.331566e+01 -4.371490e+01 -4.000183e+01 -3.988072e+01 -3.623312e+01 -3.562101e+01 -3.207310e+01 -3.100413e+01 -2.759391e+01 -2.610756e+01 -2.287675e+01 -2.101852e+01 -1.801212e+01 -1.583389e+01 -1.309915e+01 -1.065899e+01 -8.243669e+00 -5.604810e+00 -3.554976e+00 -7.838560e-01 8.587464e-01 3.695116e+00 4.895812e+00 7.732956e+00 8.466672e+00 1.124583e+01 1.149915e+01 1.417013e+01 1.394260e+01 1.646597e+01 1.577057e+01 1.811897e+01 1.698160e+01 1.914005e+01 1.759822e+01 1.956343e+01 1.766423e+01 1.944310e+01 1.724075e+01 1.884823e+01 1.640137e+01 1.785793e+01 1.522698e+01 1.655598e+01 1.380070e+01 1.502587e+01 1.220331e+01 1.334649e+01 1.050935e+01 1.158875e+01 8.784265e+00 9.813059e+00 7.082328e+00 8.067873e+00 5.445613e+00 6.389065e+00 3.903723e+00 4.800052e+00 2.474198e+00 3.312510e+00 1.163429e+00 1.927500e+00 -3.208969e-02 6.368396e-01 -1.124333e+00 -5.754113e-01 -2.132261e+00 -1.731458e+00 -3.080375e+00 -2.858348e+00 -3.997360e+00 -3.986639e+00 -4.914842e+00 -5.149173e+00 -5.866255e+00 -6.379917e+00 -6.885774e+00 -7.712848e+00 
-1.196783e+01 -1.277478e+01 -1.363261e+01 -1.484283e+01 -1.552219e+01 -1.716708e+01 -1.766527e+01 -1.977186e+01 -2.008440e+01 -2.267349e+01 -2.279396e+01 -2.587787e+01 -2.579784e+01 -2.937803e+01 -2.908713e+01 -3.315157e+01 -3.263773e+01 -3.715848e+01 -3.640829e+01 -4.133959e+01 -4.033891e+01 -4.561615e+01 -4.435090e+01 -4.989097e+01 -4.834819e+01 -5.405147e+01 -5.222051e+01 -5.797481e+01 -5.584869e+01 -6.153476e+01 -5.911160e+01 -6.460978e+01 -6.189408e+01 -6.709123e+01 -6.409489e+01 -6.889053e+01 -6.563326e+01 -6.994418e+01 -6.645325e+01 -7.021586e+01 -6.652513e+01 -6.969555e+01 -6.584395e+01 -6.839628e+01 -6.442599e+01 -6.634938e+01 -6.230416e+01 -6.359951e+01 -5.952338e+01 -6.020050e+01 -5.613704e+01 -5.621257e+01 -5.220470e+01 -5.170121e+01 -4.779156e+01 -4.673747e+01 -4.296896e+01 -4.139918e+01 -3.781572e+01 -3.577261e+01 -3.241958e+01 -2.995369e+01 -2.687801e+01 -2.404827e+01 -2.129778e+01 -1.817092e+01 -1.579299e+01 -1.244183e+01 -1.048133e+01 -6.982173e+00 -5.478937e+00 -1.908230e+00 -8.943504e-01 2.674979e+00 3.177641e+00 6.679766e+00 6.661557e+00 1.004082e+01 9.505500e+00 1.271865e+01 1.168367e+01 1.470110e+01 1.319694e+01 1.600278e+01 1.407143e+01 1.666265e+01 1.435543e+01 1.674011e+01 1.411504e+01 1.630991e+01 1.342890e+01 1.545662e+01 1.238275e+01 1.426900e+01 1.106403e+01 1.283480e+01 9.557054e+00 1.123628e+01 7.939054e+00 9.546639e+00 6.277088e+00 7.827503e+00 4.626036e+00 6.127462e+00 3.027554e+00 4.481504e+00 1.509897e+00 2.911270e+00 8.845325e-02 1.425915e+00 -1.233186e+00 2.339138e-02 -2.461825e+00 -1.308018e+00 -3.613088e+00 -2.588085e+00 -4.709806e+00 -3.843041e+00 -5.780480e+00 -5.104083e+00 -6.857848e+00 -6.405994e+00 -7.977595e+00 -7.785888e+00 -9.177176e+00 -9.282028e+00 -1.049470e+01 -1.093266e+01 