# vtk DataFile Version 2.0
Comment goes here
ASCII

DATASET STRUCTURED_POINTS
FIELD FieldData 1
TIME 1 1 double
0.03000000
DIMENSIONS    128   128   1

ORIGIN    0.000   0.000   0.000
SPACING   0.039062 0.039062   1.000

POINT_DATA   16384
SCALARS P double
LOOKUP_TABLE default

2.863400e+00 5.005977e-01 2.364136e+00 -1.472292e-01 1.738999e+00 -8.962156e-01 1.002693e+00 -1.730716e+00 1.699159e-01 -2.635286e+00 -7.449408e-01 -3.594985e+00 -1.728066e+00 -4.595658e+00 -2.766467e+00 -5.624179e+00 -3.848181e+00 -6.668681e+00 -4.962450e+00 -7.718752e+00 -6.099866e+00 -8.765603e+00 -7.252487e+00 -9.802203e+00 -8.413905e+00 -1.082337e+01 -9.579286e+00 -1.182583e+01 -1.074535e+01 -1.280818e+01 -1.191029e+01 -1.377079e+01 -1.307365e+01 -1.471568e+01 -1.423610e+01 -1.564615e+01 -1.539911e+01 -1.656650e+01 -1.656462e+01 -1.748150e+01 -1.773453e+01 -1.839586e+01 -1.891018e+01 -1.931359e+01 -2.009177e+01 -2.023733e+01 -2.127777e+01 -2.116772e+01 -2.246432e+01 -2.210274e+01 -2.364469e+01 -2.303718e+01 -2.480887e+01 -2.396225e+01 -2.594329e+01 -2.486531e+01 -2.703074e+01 -2.572991e+01 -2.805053e+01 -2.653603e+01 -2.897893e+01 -2.726063e+01 -2.978989e+01 -2.787848e+01 -3.045605e+01 -2.836331e+01 -3.094998e+01 -2.868913e+01 -3.124565e+01 -2.883170e+01 -3.131992e+01 -2.877010e+01 -3.115409e+01 -2.848814e+01 -3.073519e+01 -2.797560e+01 -3.005711e+01 -2.722916e+01 -2.912122e+01 -2.625283e+01 -2.793667e+01 -2.505806e+01 -2.652008e+01 -2.366320e+01 -2.489490e+01 -2.209276e+01 -2.309036e+01 -2.037623e+01 -2.114014e+01 -1.854672e+01 -1.908097e+01 -1.663963e+01 -1.695114e+01 -1.469119e+01 -1.478918e+01 -1.273733e+01 -1.263264e+01 -1.081253e+01 -1.051709e+01 -8.948992e+00 -8.475372e+00 -7.176012e+00 -6.536979e+00 -5.519463e+00 -4.727689e+00 -4.001500e+00 -3.069303e+00 -2.640369e+00 -1.579539e+00 -1.450333e+00 -2.720103e-01 -4.416901e-01 8.436924e-01 3.791289e-01 1.761848e+00 1.009388e+00 2.480381e+00 1.449809e+00 3.000586e+00 1.704286e+00 3.326791e+00 1.779542e+00 3.465998e+00 1.684761e+00 3.427487e+00 1.431193e+00 3.222414e+00 1.031749e+00 
3.308958e+00 9.810872e-01 2.792343e+00 3.138745e-01 2.154241e+00 -4.502566e-01 1.409487e+00 -1.295537e+00 5.728543e-01 -2.206445e+00 -3.412453e-01 -3.168015e+00 -1.319040e+00 -4.166110e+00 -2.347635e+00 -5.187677e+00 -3.415224e+00 -6.220966e+00 -4.511260e+00 -7.255725e+00 -5.626599e+00 -8.283363e+00 -6.753598e+00 -9.297082e+00 -7.886192e+00 -1.029196e+01 -9.019904e+00 -1.126500e+01 -1.015183e+01 -1.221509e+01 -1.128056e+01 -1.314291e+01 -1.240601e+01 -1.405079e+01 -1.352922e+01 -1.494238e+01 -1.465207e+01 -1.582230e+01 -1.577685e+01 -1.669571e+01 -1.690585e+01 -1.756769e+01 -1.804081e+01 -1.844266e+01 -1.918232e+01 -1.932372e+01 -2.032924e+01 -2.021196e+01 -2.147812e+01 -2.110583e+01 -2.262262e+01 -2.200059e+01 -2.375310e+01 -2.288788e+01 -2.485631e+01 -2.375546e+01 -2.591531e+01 -2.458719e+01 -2.690960e+01 -2.536332e+01 -2.781555e+01 -2.606095e+01 -2.860714e+01 -2.665495e+01 -2.925696e+01 -2.711904e+01 -2.973747e+01 -2.742718e+01 -3.002251e+01 -2.755506e+01 -3.008882e+01 -2.748171e+01 -2.991760e+01 -2.719093e+01 -2.949586e+01 -2.667258e+01 -2.881756e+01 -2.592345e+01 -2.788424e+01 -2.494780e+01 -2.670524e+01 -2.375730e+01 -2.529749e+01 -2.237061e+01 -2.368469e+01 -2.081248e+01 -2.189631e+01 -1.911258e+01 -1.996621e+01 -1.730412e+01 -1.793115e+01 -1.542244e+01 -1.582935e+01 -1.350363e+01 -1.369914e+01 -1.158330e+01 -1.157776e+01 -9.695540e+00 -9.500347e+00 -7.872069e+00 -7.499249e+00 -6.141626e+00 -5.603419e+00 -4.529507e+00 -3.838059e+00 -3.057278e+00 -2.224397e+00 -1.742599e+00 -7.795796e-01 -5.991700e-01 4.833277e-01 3.632522e-01 1.555259e+00 1.138747e+00 2.430991e+00 1.725058e+00 3.108919e+00 2.123358e+00 3.590775e+00 2.337961e+00 3.881301e+00 2.375979e+00 3.987877e+00 2.246953e+00 3.920131e+00 1.962458e+00 3.689526e+00 1.535696e+00 
2.931159e+00 5.567547e-01 2.425106e+00 -9.843579e-02 1.793005e+00 -8.548635e-01 1.049723e+00 -1.696724e+00 2.100991e-01 -2.608431e+00 -7.113508e-01 -3.574921e+00 -1.700711e+00 -4.581929e+00 -2.744906e+00 -5.616239e+00 -3.831904e+00 -6.665909e+00 -4.950899e+00 -7.720467e+00 -6.092453e+00 -8.771079e+00 -7.248605e+00 -9.810686e+00 -8.412950e+00 -1.083410e+01 -9.580667e+00 -1.183805e+01 -1.074851e+01 -1.282118e+01 -1.191474e+01 -1.378393e+01 -1.307898e+01 -1.472842e+01 -1.424199e+01 -1.565810e+01 -1.540542e+01 -1.657745e+01 -1.657135e+01 -1.749145e+01 -1.774190e+01 -1.840506e+01 -1.891862e+01 -1.932255e+01 -2.010196e+01 -2.024683e+01 -2.129062e+01 -2.117880e+01 -2.248093e+01 -2.211666e+01 -2.366636e+01 -2.305537e+01 -2.483700e+01 -2.398625e+01 -2.597934e+01 -2.489666e+01 -2.707609e+01 -2.577007e+01 -2.810640e+01 -2.658624e+01 -2.904625e+01 -2.732179e+01 -2.986918e+01 -2.795105e+01 -3.054732e+01 -2.844719e+01 -3.105264e+01 -2.878358e+01 -3.135846e+01 -2.893535e+01 -3.144099e+01 -2.888093e+01 -3.128092e+01 -2.860357e+01 -3.086480e+01 -2.809262e+01 -3.018615e+01 -2.734449e+01 -2.924622e+01 -2.636313e+01 -2.805417e+01 -2.516010e+01 -2.662689e+01 -2.375410e+01 -2.498824e+01 -2.217008e+01 -2.316801e+01 -2.043809e+01 -2.120050e+01 -1.859190e+01 -1.912309e+01 -1.666749e+01 -1.697472e+01 -1.470173e+01 -1.479449e+01 -1.273101e+01 -1.262045e+01 -1.079029e+01 -1.048858e+01 -8.912113e+00 -8.432025e+00 -7.126038e+00 -6.480523e+00 -5.458133e+00 -4.660002e+00 -3.930676e+00 -2.992354e+00 -2.561981e+00 -1.495330e+00 -1.366327e+00 -1.825261e-01 -3.539813e-01 9.365267e-01 4.686960e-01 1.856207e+00 1.099077e+00 2.574573e+00 1.538026e+00 3.093078e+00 1.789600e+00 3.416234e+00 1.860709e+00 3.551239e+00 1.760736e+00 3.507577e+00 1.501133e+00 3.296610e+00 1.095017e+00 
3.440253e+00 1.089309e+00 2.909875e+00 4.071948e-01 2.257710e+00 -3.719484e-01 1.498919e+00 -1.232032e+00 6.485673e-01 -2.157249e+00 -2.786862e-01 -3.132385e+00 -1.268860e+00 -4.143087e+00 -2.308892e+00 -5.176122e+00 -3.386845e+00 -6.219593e+00 -4.492080e+00 -7.263132e+00 -5.615395e+00 -8.298066e+00 -6.749126e+00 -9.317544e+00 -7.887213e+00 -1.031663e+01 -9.025225e+00 -1.129236e+01 -1.016034e+01 -1.224371e+01 -1.129125e+01 -1.317149e+01 -1.241806e+01 -1.407824e+01 -1.354203e+01 -1.496790e+01 -1.466531e+01 -1.584544e+01 -1.579056e+01 -1.671646e+01 -1.692045e+01 -1.758651e+01 -1.805715e+01 -1.846057e+01 -1.920175e+01 -1.934226e+01 -2.035358e+01 -2.023319e+01 -2.150961e+01 -2.113228e+01 -2.266386e+01 -2.203515e+01 -2.380696e+01 -2.293367e+01 -2.492574e+01 -2.381564e+01 -2.600316e+01 -2.466476e+01 -2.701839e+01 -2.546084e+01 -2.794724e+01 -2.618032e+01 -2.876284e+01 -2.679714e+01 -2.943674e+01 -2.728390e+01 -2.994018e+01 -2.761326e+01 -3.024565e+01 -2.775959e+01 -3.032856e+01 -2.770060e+01 -3.016888e+01 -2.741896e+01 -2.975262e+01 -2.690363e+01 -2.907303e+01 -2.615091e+01 -2.813137e+01 -2.516492e+01 -2.693711e+01 -2.395764e+01 -2.550768e+01 -2.254839e+01 -2.386771e+01 -2.096290e+01 -2.204777e+01 -1.923201e+01 -2.008302e+01 -1.739020e+01 -1.801155e+01 -1.547406e+01 -1.587286e+01 -1.352085e+01 -1.370643e+01 -1.156722e+01 -1.155045e+01 -9.648092e+00 -9.440873e+00 -7.795873e+00 -7.410645e+00 -6.039809e+00 -5.489158e+00 -4.405558e+00 -3.701905e+00 -2.914918e+00 -2.070280e+00 -1.585672e+00 -6.114869e-01 -4.315424e-01 6.614479e-01 5.377759e-01 1.739583e+00 1.316507e+00 2.617895e+00 1.902613e+00 3.295046e+00 2.297546e+00 3.773091e+00 2.505952e+00 4.057137e+00 2.535316e+00 4.154960e+00 2.395577e+00 4.076597e+00 2.098721e+00 3.833929e+00 1.658358e+00 
3.134726e+00 7.254136e-01 2.608121e+00 4.794971e-02 1.954961e+00 -7.309689e-01 1.190598e+00 -1.595060e+00 3.303026e-01 -2.528313e+00 -6.110387e-01 -3.515288e+00 -1.619198e+00 -4.541400e+00 -2.680845e+00 -5.593161e+00 -3.783753e+00 -6.658403e+00 -4.916969e+00 -7.726474e+00 -6.070960e+00 -8.788406e+00 -7.237718e+00 -9.837053e+00 -8.410835e+00 -1.086720e+01 -9.585540e+00 -1.187560e+01 -1.075869e+01 -1.286101e+01 -1.192871e+01 -1.382410e+01 -1.309547e+01 -1.476726e+01 -1.426007e+01 -1.569440e+01 -1.542458e+01 -1.661054e+01 -1.659160e+01 -1.752133e+01 -1.776385e+01 -1.843244e+01 -1.894359e+01 -1.934897e+01 -2.013196e+01 -2.027465e+01 -2.132838e+01 -2.121115e+01 -2.252984e+01 -2.215736e+01 -2.373034e+01 -2.310881e+01 -2.492037e+01 -2.405711e+01 -2.608651e+01 -2.498969e+01 -2.721134e+01 -2.588975e+01 -2.827351e+01 -2.673641e+01 -2.924812e+01 -2.750528e+01 -3.010750e+01 -2.816932e+01 -3.082218e+01 -2.870000e+01 -3.136233e+01 -2.906878e+01 -3.169925e+01 -2.924877e+01 -3.180715e+01 -2.921644e+01 -3.166486e+01 -2.895330e+01 -3.125739e+01 -2.844737e+01 -3.057720e+01 -2.769424e+01 -2.962505e+01 -2.669764e+01 -2.841026e+01 -2.546954e+01 -2.695047e+01 -2.402961e+01 -2.527086e+01 -2.240425e+01 -2.340289e+01 -2.062528e+01 -2.138283e+01 -1.872836e+01 -1.925006e+01 -1.675142e+01 -1.704546e+01 -1.473308e+01 -1.480989e+01 -1.271136e+01 -1.258291e+01 -1.072249e+01 -1.040172e+01 -8.800091e+00 -8.300406e+00 -6.974510e+00 -6.309393e+00 -5.272383e+00 -4.455066e+00 -3.716355e+00 -2.759579e+00 -2.324936e+00 -1.240774e+00 -1.112444e+00 8.780498e-02 -8.905288e-02 1.216817e+00 7.390973e-01 2.140942e+00 1.369709e+00 2.858646e+00 1.804072e+00 3.371870e+00 2.046751e+00 3.685680e+00 2.105218e+00 3.807870e+00 1.989458e+00 3.748545e+00 1.711543e+00 3.519687e+00 1.285207e+00 
3.703383e+00 1.306087e+00 3.145100e+00 5.938018e-01 2.464467e+00 -2.157017e-01 1.677300e+00 -1.105693e+00 7.992429e-01 -2.059795e+00 -1.545437e-01 -3.062291e+00 -1.169661e+00 -4.098404e+00 -2.232712e+00 -5.154539e+00 -3.331501e+00 -6.218507e+00 -4.455208e+00 -7.279708e+00 -5.594519e+00 -8.329301e+00 -6.741724e+00 -9.360334e+00 -7.890779e+00 -1.036784e+01 -9.037335e+00 -1.134890e+01 -1.017872e+01 -1.230264e+01 -1.131387e+01 -1.323017e+01 -1.244321e+01 -1.413441e+01 -1.356844e+01 -1.501987e+01 -1.469229e+01 -1.589227e+01 -1.581809e+01 -1.675804e+01 -1.694934e+01 -1.762377e+01 -1.808912e+01 -1.849548e+01 -1.923947e+01 -1.937794e+01 -2.040070e+01 -2.027382e+01 -2.157069e+01 -2.118302e+01 -2.274425e+01 -2.210193e+01 -2.391252e+01 -2.302290e+01 -2.506258e+01 -2.393387e+01 -2.617721e+01 -2.481820e+01 -2.723494e+01 -2.565488e+01 -2.821041e+01 -2.641900e+01 -2.907510e+01 -2.708261e+01 -2.979840e+01 -2.761599e+01 -3.034901e+01 -2.798914e+01 -3.069668e+01 -2.817365e+01 -3.081401e+01 -2.814451e+01 -3.067840e+01 -2.788199e+01 -3.027375e+01 -2.737322e+01 -2.959187e+01 -2.661341e+01 -2.863338e+01 -2.560643e+01 -2.740803e+01 -2.436488e+01 -2.593437e+01 -2.290952e+01 -2.423886e+01 -2.126810e+01 -2.235448e+01 -1.947391e+01 -2.031906e+01 -1.756408e+01 -1.817345e+01 -1.557780e+01 -1.595977e+01 -1.355472e+01 -1.371983e+01 -1.153356e+01 -1.149381e+01 -9.550959e+00 -9.319238e+00 -7.640674e+00 -7.230252e+00 -5.832950e+00 -5.257103e+00 -4.154150e+00 -3.425852e+00 -2.626521e+00 -1.758206e+00 -1.268080e+00 -2.714694e-01 -9.258749e-02 1.021420e+00 8.903987e-01 2.111778e+00 1.675400e+00 2.994993e+00 2.260821e+00 3.670272e+00 2.648688e+00 4.140328e+00 2.844324e+00 4.411013e+00 2.855974e+00 4.490908e+00 2.694388e+00 4.390888e+00 2.372386e+00 4.123674e+00 1.904410e+00 
3.474967e+00 1.007126e+00 2.913486e+00 2.919291e-01 2.224660e+00 -5.250324e-01 1.424657e+00 -1.426676e+00 5.294685e-01 -2.396279e+00 -4.453989e-01 -3.417782e+00 -1.485199e+00 -4.476064e+00 -2.576180e+00 -5.557186e+00 -3.705791e+00 -6.648608e+00 -4.862844e+00 -7.739380e+00 -6.037648e+00 -8.820307e+00 -7.222117e+00 -9.884094e+00 -8.409840e+00 -1.092546e+01 -9.596119e+00 -1.194120e+01 -1.077797e+01 -1.293025e+01 -1.195409e+01 -1.389358e+01 -1.312474e+01 -1.483412e+01 -1.429157e+01 -1.575649e+01 -1.545734e+01 -1.666661e+01 -1.662556e+01 -1.757125e+01 -1.779997e+01 -1.847738e+01 -1.898399e+01 -1.939146e+01 -2.018002e+01 -2.031866e+01 -2.138870e+01 -2.126200e+01 -2.260821e+01 -2.222162e+01 -2.383350e+01 -2.319398e+01 -2.505573e+01 -2.417133e+01 -2.626180e+01 -2.514123e+01 -2.743404e+01 -2.608646e+01 -2.855031e+01 -2.698511e+01 -2.958427e+01 -2.781107e+01 -3.050615e+01 -2.853496e+01 -3.128380e+01 -2.912533e+01 -3.188418e+01 -2.955032e+01 -3.227514e+01 -2.977948e+01 -3.242736e+01 -2.978585e+01 -3.231637e+01 -2.954788e+01 -3.192447e+01 -2.905120e+01 -3.124222e+01 -2.828993e+01 -3.026951e+01 -2.726744e+01 -2.901593e+01 -2.599643e+01 -2.750049e+01 -2.449830e+01 -2.575065e+01 -2.280203e+01 -2.380091e+01 -2.094255e+01 -2.169094e+01 -1.895889e+01 -1.946365e+01 -1.689230e+01 -1.716328e+01 -1.478450e+01 -1.483370e+01 -1.267617e+01 -1.251702e+01 -1.060578e+01 -1.025247e+01 -8.608691e+00 -8.075701e+00 -6.716539e+00 -6.018236e+00 -4.956880e+00 -4.107194e+00 -3.352945e+00 -2.365138e+00 -1.923544e+00 -8.100426e-01 -6.830483e-01 5.446617e-01 3.585426e-01 1.689961e+00 1.195470e+00 2.621063e+00 1.826003e+00 3.337127e+00 2.252166e+00 3.840934e+00 2.479387e+00 4.138495e+00 2.516104e+00 4.238624e+00 2.373327e+00 4.152483e+00 2.064186e+00 3.893111e+00 1.603459e+00 
4.099398e+00 1.632065e+00 3.498315e+00 8.735988e-01 2.774118e+00 1.771093e-02 1.943619e+00 -9.178987e-01 1.023339e+00 -1.915993e+00 2.918908e-02 -2.960108e+00 -1.023806e+00 -4.034826e+00 -2.121747e+00 -5.126020e+00 -3.252062e+00 -6.221063e+00 -4.403663e+00 -7.309014e+00 -5.567075e+00 -8.380777e+00 -6.734522e+00 -9.429236e+00 -7.899986e+00 -1.044936e+01 -9.059234e+00 -1.143830e+01 -1.020981e+01 -1.239537e+01 -1.135098e+01 -1.332207e+01 -1.248364e+01 -1.422192e+01 -1.361015e+01 -1.510028e+01 -1.473406e+01 -1.596396e+01 -1.585976e+01 -1.682072e+01 -1.699200e+01 -1.767869e+01 -1.813527e+01 -1.854560e+01 -1.929313e+01 -1.942795e+01 -2.046743e+01 -2.033016e+01 -2.165752e+01 -2.125366e+01 -2.285947e+01 -2.219612e+01 -2.406533e+01 -2.315074e+01 -2.526263e+01 -2.410571e+01 -2.643396e+01 -2.504398e+01 -2.755695e+01 -2.594334e+01 -2.860451e+01 -2.677678e+01 -2.954555e+01 -2.751349e+01 -3.034611e+01 -2.812008e+01 -3.097091e+01 -2.856238e+01 -3.138529e+01 -2.880749e+01 -3.155739e+01 -2.882603e+01 -3.146047e+01 -2.859442e+01 -3.107498e+01 -2.809680e+01 -3.039038e+01 -2.732659e+01 -2.940627e+01 -2.628729e+01 -2.813284e+01 -2.499254e+01 -2.659046e+01 -2.346539e+01 -2.480861e+01 -2.173694e+01 -2.282413e+01 -1.984444e+01 -2.067916e+01 -1.782922e+01 -1.841893e+01 -1.573459e+01 -1.608969e+01 -1.360394e+01 -1.373687e+01 -1.147917e+01 -1.140364e+01 -9.399517e+00 -9.129906e+00 -7.400713e+00 -6.951551e+00 -5.514464e+00 -4.900063e+00 -3.768143e+00 -3.002297e+00 -2.184628e+00 -1.280391e+00 -7.822532e-01 2.482333e-01 4.251859e-01 1.570794e+00 1.428355e+00 2.679017e+00 2.222241e+00 3.568931e+00 2.805939e+00 4.240592e+00 3.182364e+00 4.697732e+00 3.357892e+00 4.947359e+00 3.341944e+00 4.999298e+00 3.146521e+00 4.865716e+00 2.785730e+00 4.560624e+00 2.275291e+00 
3.953282e+00 1.402773e+00 3.341657e+00 6.334566e-01 2.601699e+00 -2.379437e-01 1.750733e+00 -1.193217e+00 8.057666e-01 -2.214640e+00 -2.168237e-01 -3.285288e+00 -1.301568e+00 -4.389298e+00 -2.434134e+00 -5.512108e+00 -3.601525e+00 -6.640664e+00 -4.792230e+00 -7.763599e+00 -5.996353e+00 -8.871399e+00 -7.205701e+00 -9.956545e+00 -8.413852e+00 -1.101364e+01 -9.616196e+00 -1.203952e+01 -1.080996e+01 -1.303329e+01 -1.199417e+01 -1.399637e+01 -1.316962e+01 -1.493237e+01 -1.433868e+01 -1.584688e+01 -1.550512e+01 -1.674715e+01 -1.667369e+01 -1.764155e+01 -1.784963e+01 -1.853890e+01 -1.903806e+01 -1.944773e+01 -2.024322e+01 -2.037528e+01 -2.146761e+01 -2.132667e+01 -2.271118e+01 -2.230386e+01 -2.397038e+01 -2.330483e+01 -2.523749e+01 -2.432281e+01 -2.649992e+01 -2.534569e+01 -2.773981e+01 -2.635575e+01 -2.893394e+01 -2.732964e+01 -3.005399e+01 -2.823887e+01 -3.106716e+01 -2.905062e+01 -3.193738e+01 -2.972918e+01 -3.262690e+01 -3.023769e+01 -3.309835e+01 -3.054042e+01 -3.331706e+01 -3.060513e+01 -3.325359e+01 -3.040559e+01 -3.288602e+01 -2.992378e+01 -3.220199e+01 -2.915158e+01 -3.120006e+01 -2.809176e+01 -2.989022e+01 -2.675817e+01 -2.829357e+01 -2.517493e+01 -2.644116e+01 -2.337497e+01 -2.437207e+01 -2.139798e+01 -2.213119e+01 -1.928807e+01 -1.976670e+01 -1.709147e+01 -1.732784e+01 -1.485444e+01 -1.486286e+01 -1.262153e+01 -1.241749e+01 -1.043434e+01 -1.003383e+01 -8.330607e+00 -7.749636e+00 -6.343752e+00 -5.597905e+00 -4.502532e+00 -3.606708e+00 -2.830937e+00 -1.799120e+00 -1.348152e+00 -1.932527e-01 -6.858898e-02 1.197657e+00 9.980263e-01 2.365091e+00 1.846499e+00 3.305028e+00 2.475932e+00 4.017647e+00 2.889417e+00 4.506948e+00 3.093644e+00 4.780324e+00 3.098456e+00 4.848069e+00 2.916354e+00 4.722872e+00 2.561990e+00 4.419297e+00 2.051653e+00 
4.629821e+00 2.068149e+00 3.969889e+00 1.246367e+00 3.185985e+00 3.270468e-01 2.296268e+00 -6.708055e-01 1.318438e+00 -1.728802e+00 2.694153e-01 -2.829485e+00 -8.349445e-01 -3.956592e+00 -1.980084e+00 -5.095295e+00 -3.152937e+00 -6.232395e+00 -4.342076e+00 -7.356500e+00 -5.537825e+00 -8.458172e+00 -6.732329e+00 -9.530067e+00 -7.919607e+00 -1.056705e+01 -9.095563e+00 -1.156628e+01 -1.025800e+01 -1.252733e+01 -1.140659e+01 -1.345213e+01 -1.254283e+01 -1.434500e+01 -1.366988e+01 -1.521236e+01 -1.479243e+01 -1.606251e+01 -1.591625e+01 -1.690505e+01 -1.704780e+01 -1.775026e+01 -1.819357e+01 -1.860826e+01 -1.935925e+01 -1.948804e+01 -2.054894e+01 -2.039650e+01 -2.176413e+01 -2.133736e+01 -2.300275e+01 -2.231019e+01 -2.425832e+01 -2.330949e+01 -2.551913e+01 -2.432401e+01 -2.676771e+01 -2.533629e+01 -2.798055e+01 -2.632253e+01 -2.912830e+01 -2.725298e+01 -3.017637e+01 -2.809278e+01 -3.108608e+01 -2.880340e+01 -3.181647e+01 -2.934463e+01 -3.232653e+01 -2.967709e+01 -3.257787e+01 -2.976498e+01 -3.253762e+01 -2.957898e+01 -3.218113e+01 -2.909881e+01 -3.149433e+01 -2.831522e+01 -3.047529e+01 -2.723116e+01 -2.913486e+01 -2.586184e+01 -2.749616e+01 -2.423381e+01 -2.559318e+01 -2.238313e+01 -2.346847e+01 -2.035291e+01 -2.117052e+01 -1.819064e+01 -1.875090e+01 -1.594552e+01 -1.626170e+01 -1.366619e+01 -1.375338e+01 -1.139893e+01 -1.127321e+01 -9.186428e+00 -8.864168e+00 -7.066988e+00 -6.564402e+00 -5.074155e+00 -4.406925e+00 -3.236540e+00 -2.419545e+00 -1.577786e+00 -6.248947e-01 -1.165895e-01 9.595009e-01 1.133243e+00 2.321113e+00 2.162707e+00 3.452252e+00 2.967443e+00 4.349846e+00 3.547512e+00 5.015133e+00 3.907071e+00 5.453272e+00 4.053967e+00 5.672882e+00 3.999260e+00 5.685520e+00 3.756693e+00 5.505141e+00 3.342154e+00 5.147540e+00 2.773122e+00 
4.571550e+00 1.913501e+00 3.893167e+00 1.072363e+00 3.085391e+00 1.289345e-01 2.167058e+00 -8.971080e-01 1.156492e+00 -1.986756e+00 7.119243e-02 -3.121974e+00 -1.072447e+00 -4.285960e+00 -2.259361e+00 -5.463367e+00 -3.475998e+00 -6.640495e+00 -4.710457e+00 -7.805452e+00 -5.952591e+00 -8.948308e+00 -7.194081e+00 -1.006124e+01 -8.428487e+00 -1.113866e+01 -9.651292e+00 -1.217737e+01 -1.085993e+01 -1.317667e+01 -1.205383e+01 -1.413843e+01 -1.323437e+01 -1.506709e+01 -1.440483e+01 -1.596950e+01 -1.557022e+01 -1.685461e+01 -1.673692e+01 -1.773293e+01 -1.791217e+01 -1.861582e+01 -1.910342e+01 -1.951459e+01 -2.031746e+01 -2.043944e+01 -2.155939e+01 -2.139835e+01 -2.283168e+01 -2.239594e+01 -2.413299e+01 -2.343239e+01 -2.545726e+01 -2.450243e+01 -2.679284e+01 -2.559460e+01 -2.812181e+01 -2.669069e+01 -2.941974e+01 -2.776564e+01 -3.065572e+01 -2.878780e+01 -3.179299e+01 -2.971979e+01 -3.279014e+01 -3.052001e+01 -3.360293e+01 -3.114469e+01 -3.418663e+01 -3.155056e+01 -3.449900e+01 -3.169788e+01 -3.450336e+01 -3.155365e+01 -3.417174e+01 -3.109451e+01 -3.348748e+01 -3.030905e+01 -3.244715e+01 -2.919923e+01 -3.106135e+01 -2.778057e+01 -2.935428e+01 -2.608120e+01 -2.736215e+01 -2.413982e+01 -2.513077e+01 -2.200302e+01 -2.271245e+01 -1.972215e+01 -2.016287e+01 -1.735041e+01 -1.753814e+01 -1.494025e+01 -1.489246e+01 -1.254137e+01 -1.227631e+01 -1.019940e+01 -9.735413e+00 -7.955086e+00 -7.310101e+00 -5.843956e+00 -5.035128e+00 -3.896187e+00 -2.939643e+00 -2.136634e+00 -1.047271e+00 -5.848907e-01 6.237735e-01 7.446342e-01 2.060560e+00 1.842609e+00 3.255263e+00 2.704611e+00 4.204913e+00 3.330878e+00 4.911072e+00 3.725950e+00 5.379400e+00 3.898232e+00 5.619155e+00 3.859467e+00 5.642631e+00 3.624168e+00 5.464569e+00 3.209031e+00 5.101575e+00 2.632357e+00 
5.296566e+00 2.615431e+00 4.560166e+00 1.711670e+00 3.698991e+00 7.104887e-01 2.732911e+00 -3.674592e-01 1.681121e+00 -1.502343e+00 5.618040e-01 -2.675467e+00 -6.081491e-01 -3.869530e+00 -1.813371e+00 -5.068846e+00 -3.040200e+00 -6.259523e+00 -4.276814e+00 -7.429620e+00 -5.513312e+00 -8.569276e+00 -6.741764e+00 -9.670838e+00 -7.956235e+00 -1.072898e+01 -9.152786e+00 -1.174086e+01 -1.032950e+01 -1.270620e+01 -1.148647e+01 -1.362745e+01 -1.262585e+01 -1.450975e+01 -1.375177e+01 -1.536091e+01 -1.487024e+01 -1.619105e+01 -1.598883e+01 -1.701216e+01 -1.711620e+01 -1.783737e+01 -1.826146e+01 -1.867999e+01 -1.943322e+01 -1.955243e+01 -2.063864e+01 -2.046497e+01 -2.188219e+01 -2.142453e+01 -2.316454e+01 -2.243340e+01 -2.448134e+01 -2.348808e+01 -2.582221e+01 -2.457833e+01 -2.716987e+01 -2.568640e+01 -2.849963e+01 -2.678670e+01 -2.977936e+01 -2.784597e+01 -3.096991e+01 -2.882410e+01 -3.202642e+01 -2.967563e+01 -3.290018e+01 -3.035208e+01 -3.354140e+01 -3.080502e+01 -3.390254e+01 -3.098959e+01 -3.394198e+01 -3.086826e+01 -3.362775e+01 -3.041438e+01 -3.294068e+01 -2.961487e+01 -3.187663e+01 -2.847190e+01 -3.044740e+01 -2.700302e+01 -2.868012e+01 -2.523986e+01 -2.661528e+01 -2.322567e+01 -2.430365e+01 -2.101194e+01 -2.180268e+01 -1.865476e+01 -1.917272e+01 -1.621144e+01 -1.647379e+01 -1.373761e+01 -1.376297e+01 -1.128520e+01 -1.109266e+01 -8.901147e+00 -8.509629e+00 -6.626812e+00 -6.054598e+00 -4.497822e+00 -3.762273e+00 -2.544144e+00 -1.661474e+00 -7.902349e-01 2.246811e-01 7.448373e-01 1.878619e+00 2.047303e+00 3.288180e+00 3.108604e+00 4.446457e+00 3.925247e+00 5.351568e+00 4.498568e+00 6.006318e+00 4.834372e+00 6.417757e+00 4.942458e+00 6.596636e+00 4.836058e+00 6.556802e+00 4.531217e+00 6.314558e+00 4.046157e+00 5.888031e+00 3.400648e+00 
5.332034e+00 2.540628e+00 4.568508e+00 1.608242e+00 3.674632e+00 5.736419e-01 2.671117e+00 -5.416884e-01 1.577918e+00 -1.717167e+00 4.139038e-01 -2.933416e+00 -8.034121e-01 -4.172508e+00 -2.058091e+00 -5.418168e+00 -3.335937e+00 -6.655935e+00 -4.624607e+00 -7.873299e+00 -5.913688e+00 -9.059827e+00 -7.194730e+00 -1.020729e+01 -8.461271e+00 -1.130980e+01 -9.708866e+00 -1.236402e+01 -1.093514e+01 -1.336934e+01 -1.213987e+01 -1.432807e+01 -1.332507e+01 -1.524554e+01 -1.449502e+01 -1.613008e+01 -1.565618e+01 -1.699274e+01 -1.681696e+01 -1.784679e+01 -1.798717e+01 -1.870689e+01 -1.917729e+01 -1.958806e+01 -2.039750e+01 -2.050444e+01 -2.165648e+01 -2.146793e+01 -2.296014e+01 -2.248678e+01 -2.431029e+01 -2.356426e+01 -2.570333e+01 -2.469739e+01 -2.712915e+01 -2.587586e+01 -2.857012e+01 -2.708118e+01 -3.000053e+01 -2.828633e+01 -3.138645e+01 -2.945581e+01 -3.268611e+01 -3.054641e+01 -3.385118e+01 -3.150877e+01 -3.482871e+01 -3.228979e+01 -3.556404e+01 -3.283586e+01 -3.600438e+01 -3.309680e+01 -3.610293e+01 -3.302999e+01 -3.582305e+01 -3.260446e+01 -3.514193e+01 -3.180413e+01 -3.405331e+01 -3.062977e+01 -3.256860e+01 -2.909938e+01 -3.071644e+01 -2.724685e+01 -2.854052e+01 -2.511918e+01 -2.609614e+01 -2.277268e+01 -2.344605e+01 -2.026881e+01 -2.065619e+01 -1.767020e+01 -1.779192e+01 -1.503746e+01 -1.491506e+01 -1.242679e+01 -1.208204e+01 -9.888705e+00 -9.342811e+00 -7.467387e+00 -6.740613e+00 -5.200671e+00 -4.312044e+00 -3.120224e+00 -2.087337e+00 -1.251780e+00 -9.062663e-02 3.846775e-01 1.659855e+00 1.774806e+00 3.151619e+00 2.909801e+00 4.377750e+00 3.786250e+00 5.336657e+00 4.405864e+00 6.031703e+00 4.775084e+00 6.470718e+00 4.904554e+00 6.665392e+00 4.808495e+00 6.630617e+00 4.504033e+00 6.383789e+00 4.010499e+00 5.944127e+00 3.348766e+00 
6.101833e+00 3.275075e+00 5.269335e+00 2.268725e+00 4.311510e+00 1.165499e+00 3.250327e+00 -1.194799e-02 2.106791e+00 -1.242051e+00 9.006105e-01 -2.504643e+00 -3.500896e-01 -3.781204e+00 -1.628993e+00 -5.055052e+00 -2.921761e+00 -6.311505e+00 -4.216143e+00 -7.537994e+00 -5.502023e+00 -8.724162e+00 -6.771423e+00 -9.861968e+00 -8.018479e+00 -1.094580e+01 -9.239417e+00 -1.197266e+01 -1.043257e+01 -1.294234e+01 -1.159842e+01 -1.385769e+01 -1.273976e+01 -1.472475e+01 -1.386174e+01 -1.555282e+01 -1.497185e+01 -1.635429e+01 -1.607982e+01 -1.714412e+01 -1.719709e+01 -1.793908e+01 -1.833611e+01 -1.875667e+01 -1.950935e+01 -1.961378e+01 -2.072805e+01 -2.052527e+01 -2.200078e+01 -2.150240e+01 -2.333200e+01 -2.255126e+01 -2.472052e+01 -2.367132e+01 -2.615808e+01 -2.485404e+01 -2.762814e+01 -2.608177e+01 -2.910496e+01 -2.732705e+01 -3.055319e+01 -2.855245e+01 -3.192814e+01 -2.971122e+01 -3.317696e+01 -3.074890e+01 -3.424073e+01 -3.160596e+01 -3.505779e+01 -3.222158e+01 -3.556795e+01 -3.253827e+01 -3.571736e+01 -3.250697e+01 -3.546363e+01 -3.209190e+01 -3.478028e+01 -3.127455e+01 -3.365999e+01 -3.005600e+01 -3.211593e+01 -2.845721e+01 -3.018101e+01 -2.651721e+01 -2.790505e+01 -2.428952e+01 -2.535048e+01 -2.183743e+01 -2.258722e+01 -1.922896e+01 -1.968760e+01 -1.653226e+01 -1.672209e+01 -1.381199e+01 -1.375612e+01 -1.112702e+01 -1.084828e+01 -8.529214e+00 -8.049521e+00 -6.063223e+00 -5.403288e+00 -3.766772e+00 -2.945905e+00 -1.671127e+00 -7.071027e-01 1.984877e-01 1.289599e+00 1.822664e+00 3.026663e+00 3.187715e+00 4.492422e+00 4.285643e+00 5.680961e+00 5.114046e+00 6.591911e+00 5.675891e+00 7.230093e+00 5.979105e+00 7.604992e+00 6.036013e+00 7.730112e+00 5.862651e+00 7.622236e+00 5.478014e+00 7.300668e+00 4.903295e+00 6.786482e+00 4.161159e+00 
6.237252e+00 3.285510e+00 5.367978e+00 2.240299e+00 4.367725e+00 1.093454e+00 3.259467e+00 -1.313809e-01 2.065099e+00 -1.411768e+00 8.051151e-01 -2.726766e+00 -5.016686e-01 -4.057161e+00 -1.838317e+00 -5.385632e+00 -3.189923e+00 -6.696879e+00 -4.543692e+00 -7.977706e+00 -5.888958e+00 -9.217100e+00 -7.217169e+00 -1.040632e+01 -8.521847e+00 -1.153904e+01 -9.798584e+00 -1.261158e+01 -1.104511e+01 -1.362322e+01 -1.226144e+01 -1.457653e+01 -1.345011e+01 -1.547771e+01 -1.461638e+01 -1.633673e+01 -1.576836e+01 -1.716715e+01 -1.691682e+01 -1.798566e+01 -1.807478e+01 -1.881116e+01 -1.925665e+01 -1.966349e+01 -2.047703e+01 -2.056196e+01 -2.174933e+01 -2.152368e+01 -2.308418e+01 -2.256183e+01 -2.448771e+01 -2.368397e+01 -2.595992e+01 -2.489043e+01 -2.749312e+01 -2.617281e+01 -2.907061e+01 -2.751284e+01 -3.066560e+01 -2.888151e+01 -3.224075e+01 -3.023882e+01 -3.374828e+01 -3.153435e+01 -3.513111e+01 -3.270881e+01 -3.632497e+01 -3.369676e+01 -3.726187e+01 -3.443061e+01 -3.787462e+01 -3.484568e+01 -3.810229e+01 -3.488591e+01 -3.789599e+01 -3.450951e+01 -3.722408e+01 -3.369368e+01 -3.607616e+01 -3.243752e+01 -3.446486e+01 -3.076263e+01 -3.242518e+01 -2.871125e+01 -3.001146e+01 -2.634223e+01 -2.729247e+01 -2.372560e+01 -2.434549e+01 -2.093668e+01 -2.125039e+01 -1.805077e+01 -1.808464e+01 -1.513888e+01 -1.491967e+01 -1.226517e+01 -1.181885e+01 -9.485645e+00 -8.836805e+00 -6.848089e+00 -6.019643e+00 -4.392556e+00 -3.405643e+00 -2.152054e+00 -1.025941e+00 -1.530935e-01 1.094953e+00 1.584009e+00 2.938894e+00 3.045032e+00 4.493974e+00 4.221831e+00 5.754423e+00 5.112248e+00 6.720386e+00 5.719870e+00 7.397526e+00 6.053567e+00 7.796446e+00 6.126858e+00 7.931952e+00 5.957138e+00 7.822241e+00 5.564848e+00 7.488059e+00 4.972640e+00 6.951897e+00 4.204594e+00 
7.047958e+00 4.048163e+00 6.097244e+00 2.916219e+00 5.021165e+00 1.688625e+00 3.844183e+00 3.903991e-01 2.589446e+00 -9.548763e-01 1.278444e+00 -2.325344e+00 -6.926793e-02 -3.701100e+00 -1.436300e+00 -5.064368e+00 -2.807579e+00 -6.399606e+00 -4.170431e+00 -7.693579e+00 -5.514581e+00 -8.935391e+00 -6.832079e+00 -1.011653e+01 -8.117190e+00 -1.123098e+01 -9.366305e+00 -1.227535e+01 -1.057793e+01 -1.324928e+01 -1.175281e+01 -1.415578e+01 -1.289419e+01 -1.500164e+01 -1.400813e+01 -1.579780e+01 -1.510374e+01 -1.655920e+01 -1.619317e+01 -1.730448e+01 -1.729127e+01 -1.805501e+01 -1.841473e+01 -1.883367e+01 -1.958101e+01 -1.966319e+01 -2.080672e+01 -2.056445e+01 -2.210595e+01 -2.155452e+01 -2.348839e+01 -2.264476e+01 -2.495736e+01 -2.383887e+01 -2.650795e+01 -2.513113e+01 -2.812524e+01 -2.650471e+01 -2.978287e+01 -2.793047e+01 -3.144210e+01 -2.936628e+01 -3.305169e+01 -3.075735e+01 -3.454878e+01 -3.203771e+01 -3.586126e+01 -3.313327e+01 -3.691159e+01 -3.396642e+01 -3.762222e+01 -3.446220e+01 -3.792222e+01 -3.455524e+01 -3.775439e+01 -3.419680e+01 -3.708173e+01 -3.336052e+01 -3.589229e+01 -3.204598e+01 -3.420124e+01 -3.027916e+01 -3.204985e+01 -2.810985e+01 -2.950138e+01 -2.560633e+01 -2.663477e+01 -2.284854e+01 -2.353734e+01 -1.992088e+01 -2.029761e+01 -1.690587e+01 -1.699960e+01 -1.387958e+01 -1.371899e+01 -1.090903e+01 -1.052131e+01 -8.051337e+00 -7.461813e+00 -5.354255e+00 -4.586281e+00 -2.857236e+00 -1.932262e+00 -5.925342e-01 4.699080e-01 1.414023e+00 2.596464e+00 3.142718e+00 4.429978e+00 4.579946e+00 5.959360e+00 5.718342e+00 7.179884e+00 6.556820e+00 8.093053e+00 7.100383e+00 8.706225e+00 7.359658e+00 9.031989e+00 7.350197e+00 9.087349e+00 7.091606e+00 8.892808e+00 6.606609e+00 8.471429e+00 5.920117e+00 7.847946e+00 5.058368e+00 