# vtk DataFile Version 2.0
Comment goes here
ASCII

DATASET STRUCTURED_POINTS
FIELD FieldData 1
TIME 1 1 double
0.18500000
DIMENSIONS    128   128   1

ORIGIN    0.000   0.000   0.000
SPACING   0.039062 0.039062   1.000

POINT_DATA   16384
SCALARS P double
LOOKUP_TABLE default

-2.198224e+00 -1.812443e+00 -1.506949e+00 -1.103000e+00 -7.891382e-01 -3.698304e-01 -4.939729e-02 3.824355e-01 7.074937e-01 1.148978e+00 1.476529e+00 1.924739e+00 2.252436e+00 2.704382e+00 3.029653e+00 3.482266e+00 3.802313e+00 4.252440e+00 4.564253e+00 5.008652e+00 5.309041e+00 5.744379e+00 6.030027e+00 6.452885e+00 6.720408e+00 7.127290e+00 7.373317e+00 7.760671e+00 7.981925e+00 8.346162e+00 8.539554e+00 8.877083e+00 9.039797e+00 9.347056e+00 9.476629e+00 9.750133e+00 9.844526e+00 1.008091e+01 1.013856e+01 1.033464e+01 1.035448e+01 1.050730e+01 1.048880e+01 1.059568e+01 1.053881e+01 1.059746e+01 1.050268e+01 1.051120e+01 1.037943e+01 1.033641e+01 1.016897e+01 1.007354e+01 9.872135e+00 9.724015e+00 9.490664e+00 9.290243e+00 9.027246e+00 8.775594e+00 8.485513e+00 8.184427e+00 7.870066e+00 7.522079e+00 7.186471e+00 6.794862e+00 6.441265e+00 6.010040e+00 5.641940e+00 5.175797e+00 4.796902e+00 4.301185e+00 3.915416e+00 3.396038e+00 3.007514e+00 2.470869e+00 2.083871e+00 1.536723e+00 1.155645e+00 6.050056e-01 2.342917e-01 -3.127226e-01 -6.686595e-01 -1.204976e+00 -1.541847e+00 -2.060589e+00 -2.374334e+00 -2.868975e+00 -3.155861e+00 -3.620366e+00 -3.877094e+00 -4.306047e+00 -4.529838e+00 -4.918547e+00 -5.107215e+00 -5.451786e+00 -5.603787e+00 -5.901170e+00 -6.015622e+00 -6.263623e+00 -6.340297e+00 -6.537556e+00 -6.576835e+00 -6.722781e+00 -6.725597e+00 -6.820376e+00 -6.788124e+00 -6.832513e+00 -6.766952e+00 -6.762263e+00 -6.665411e+00 -6.613397e+00 -6.487428e+00 -6.390187e+00 -6.237343e+00 -6.097232e+00 -5.919746e+00 -5.739305e+00 -5.539341e+00 -5.321238e+00 -5.100855e+00 -4.847829e+00 -4.608968e+00 -4.323800e+00 -4.068280e+00 -3.753765e+00 -3.483303e+00 -3.142239e+00 -2.858482e+00 -2.493664e+00 
-2.179104e+00 -1.795396e+00 -1.489428e+00 -1.086721e+00 -7.727036e-01 -3.538838e-01 -3.354618e-02 3.984728e-01 7.232529e-01 1.165516e+00 1.492676e+00 1.942176e+00 2.269441e+00 2.723104e+00 3.047970e+00 3.502650e+00 3.822384e+00 4.274852e+00 4.586504e+00 5.033447e+00 5.333882e+00 5.771902e+00 6.057851e+00 6.483469e+00 6.751588e+00 7.161260e+00 7.408210e+00 7.798337e+00 8.020868e+00 8.387827e+00 8.582868e+00 8.923039e+00 9.087785e+00 9.397585e+00 9.529580e+00 9.805510e+00 9.902715e+00 1.014140e+01 1.020224e+01 1.040049e+01 1.042391e+01 1.057875e+01 1.056419e+01 1.067296e+01 1.062039e+01 1.068075e+01 1.059061e+01 1.060067e+01 1.047386e+01 1.043219e+01 1.027001e+01 1.017571e+01 9.979836e+00 9.832593e+00 9.605014e+00 9.405177e+00 9.148161e+00 8.896755e+00 8.612828e+00 8.311596e+00 8.003520e+00 7.654941e+00 7.325706e+00 6.932996e+00 6.585819e+00 6.152919e+00 5.791241e+00 5.322784e+00 4.950275e+00 4.451535e+00 4.072084e+00 3.548908e+00 3.166605e+00 2.625322e+00 2.244434e+00 1.691750e+00 1.316665e+00 7.595421e-01 3.947105e-01 -1.597731e-01 -5.099211e-01 -1.054713e+00 -1.385862e+00 -1.914085e+00 -2.222141e+00 -2.727244e+00 -3.008440e+00 -3.484336e+00 -3.735336e+00 -4.176529e+00 -4.394525e+00 -4.796214e+00 -4.979002e+00 -5.337157e+00 -5.483187e+00 -5.794600e+00 -5.903000e+00 -6.165301e+00 -6.235868e+00 -6.447510e+00 -6.480673e+00 -6.640895e+00 -6.637641e+00 -6.746403e+00 -6.708196e+00 -6.766099e+00 -6.694770e+00 -6.702968e+00 -6.600610e+00 -6.560718e+00 -6.429577e+00 -6.343577e+00 -6.185961e+00 -6.056122e+00 -5.874316e+00 -5.703116e+00 -5.499325e+00 -5.289391e+00 -5.065701e+00 -4.819760e+00 -4.578119e+00 -4.298957e+00 -4.041181e+00 -3.731617e+00 -3.459404e+00 -3.122276e+00 -2.837239e+00 -2.475394e+00 
-2.213868e+00 -1.826704e+00 -1.520381e+00 -1.115041e+00 -8.002950e-01 -3.795802e-01 -5.818341e-02 3.750801e-01 7.012002e-01 1.144147e+00 1.472872e+00 1.922583e+00 2.251573e+00 2.705064e+00 3.031747e+00 3.485952e+00 3.807520e+00 4.259287e+00 4.572712e+00 5.018798e+00 5.320864e+00 5.757930e+00 6.045286e+00 6.469906e+00 6.739126e+00 7.147794e+00 7.395464e+00 7.784614e+00 8.007411e+00 8.373440e+00 8.568231e+00 8.907528e+00 9.071456e+00 9.380441e+00 9.511013e+00 9.786177e+00 9.881329e+00 1.011928e+01 1.017744e+01 1.037497e+01 1.039506e+01 1.054919e+01 1.053068e+01 1.063871e+01 1.058159e+01 1.064117e+01 1.054593e+01 1.055515e+01 1.042271e+01 1.038012e+01 1.021185e+01 1.011655e+01 9.914156e+00 9.765860e+00 9.531373e+00 9.330433e+00 9.066173e+00 8.813644e+00 8.522183e+00 8.219850e+00 7.903993e+00 7.554388e+00 7.217170e+00 6.823577e+00 6.468255e+00 6.034695e+00 5.664755e+00 5.195953e+00 4.815106e+00 4.316440e+00 3.928618e+00 3.406046e+00 3.015385e+00 2.475356e+00 2.086159e+00 1.535503e+00 1.152200e+00 5.979979e-01 2.250732e-01 -3.254827e-01 -6.835683e-01 -1.223327e+00 -1.562233e+00 -2.084242e+00 -2.399854e+00 -2.897513e+00 -3.186049e+00 -3.653261e+00 -3.911377e+00 -4.342674e+00 -4.567554e+00 -4.958206e+00 -5.147642e+00 -5.493734e+00 -5.646173e+00 -5.944649e+00 -6.059213e+00 -6.307891e+00 -6.384370e+00 -6.581913e+00 -6.620725e+00 -6.766597e+00 -6.768715e+00 -6.863105e+00 -6.829974e+00 -6.873706e+00 -6.807136e+00 -6.801572e+00 -6.703631e+00 -6.650569e+00 -6.523479e+00 -6.425060e+00 -6.271101e+00 -6.129718e+00 -5.951151e+00 -5.769380e+00 -5.568388e+00 -5.348918e+00 -5.127572e+00 -4.873161e+00 -4.633399e+00 -4.346841e+00 -4.090473e+00 -3.774571e+00 -3.503300e+00 -3.160853e+00 -2.876304e+00 -2.510105e+00 
-2.210918e+00 -1.824373e+00 -1.516808e+00 -1.111243e+00 -7.955218e-01 -3.738084e-01 -5.161245e-02 3.833499e-01 7.101830e-01 1.155453e+00 1.484891e+00 1.937473e+00 2.267256e+00 2.724088e+00 3.051713e+00 3.509652e+00 3.832368e+00 4.288187e+00 4.603009e+00 5.053390e+00 5.357132e+00 5.798667e+00 6.087990e+00 6.517184e+00 6.788665e+00 7.201951e+00 7.452162e+00 7.845917e+00 8.071516e+00 8.442085e+00 8.639912e+00 8.983640e+00 9.150811e+00 9.464076e+00 9.598068e+00 9.877328e+00 9.976054e+00 1.021789e+01 1.027975e+01 1.048091e+01 1.050483e+01 1.066230e+01 1.064775e+01 1.075880e+01 1.070575e+01 1.076801e+01 1.067695e+01 1.068844e+01 1.056032e+01 1.051954e+01 1.035571e+01 1.026172e+01 1.006389e+01 9.916331e+00 9.686513e+00 9.485685e+00 9.226182e+00 8.973072e+00 8.686425e+00 8.382756e+00 8.071733e+00 7.719978e+00 7.387567e+00 6.990953e+00 6.640368e+00 6.202865e+00 5.837547e+00 5.363838e+00 4.987461e+00 4.482889e+00 4.099358e+00 3.569858e+00 3.183296e+00 2.635306e+00 2.250026e+00 1.690375e+00 1.310833e+00 7.466214e-01 3.773508e-01 -1.841956e-01 -5.386673e-01 -1.090344e+00 -1.425596e+00 -1.960377e+00 -2.272204e+00 -2.783396e+00 -3.067925e+00 -3.549317e+00 -3.803120e+00 -4.249111e+00 -4.469304e+00 -4.875016e+00 -5.059344e+00 -5.420700e+00 -5.567593e+00 -5.881370e+00 -5.989965e+00 -6.253806e+00 -6.323942e+00 -6.536342e+00 -6.568512e+00 -6.728773e+00 -6.724056e+00 -6.832216e+00 -6.792176e+00 -6.848926e+00 -6.775504e+00 -6.782089e+00 -6.677483e+00 -6.635607e+00 -6.502161e+00 -6.413893e+00 -6.253993e+00 -6.121675e+00 -5.937668e+00 -5.763843e+00 -5.557973e+00 -5.345321e+00 -5.119692e+00 -4.870977e+00 -4.627538e+00 -4.345573e+00 -4.086121e+00 -3.773742e+00 -3.499942e+00 -3.159995e+00 -2.873419e+00 -2.508749e+00 
-2.260840e+00 -1.869535e+00 -1.560752e+00 -1.151247e+00 -8.338699e-01 -4.089427e-01 -8.467458e-02 3.528732e-01 6.821646e-01 1.129492e+00 1.461730e+00 1.915939e+00 2.248810e+00 2.706930e+00 3.037859e+00 3.496838e+00 3.822988e+00 4.279677e+00 4.597966e+00 5.049116e+00 5.356248e+00 5.798506e+00 6.091024e+00 6.520940e+00 6.795298e+00 7.209336e+00 7.461980e+00 7.856535e+00 8.084004e+00 8.455425e+00 8.654451e+00 8.999073e+00 9.166680e+00 9.480862e+00 9.614455e+00 9.894622e+00 9.992064e+00 1.023476e+01 1.029443e+01 1.049635e+01 1.051718e+01 1.067527e+01 1.065673e+01 1.076820e+01 1.071033e+01 1.077275e+01 1.067608e+01 1.068744e+01 1.055298e+01 1.051174e+01 1.034091e+01 1.024608e+01 1.004067e+01 9.891864e+00 9.653955e+00 9.451476e+00 9.183423e+00 8.928271e+00 8.632666e+00 8.326594e+00 8.006252e+00 7.651785e+00 7.309739e+00 6.910178e+00 6.549681e+00 6.109092e+00 5.733628e+00 5.256812e+00 4.870103e+00 4.362543e+00 3.968546e+00 3.436339e+00 3.039238e+00 2.488998e+00 2.093172e+00 1.531921e+00 1.141900e+00 5.769337e-01 1.973291e-01 -3.639298e-01 -7.285125e-01 -1.278675e+00 -1.623738e+00 -2.155618e+00 -2.476883e+00 -2.983662e+00 -3.277192e+00 -3.752577e+00 -4.014890e+00 -4.453257e+00 -4.681428e+00 -5.077932e+00 -5.269681e+00 -5.620342e+00 -5.774085e+00 -6.075833e+00 -6.190710e+00 -6.441395e+00 -6.517258e+00 -6.715618e+00 -6.752984e+00 -6.898592e+00 -6.898566e+00 -6.991743e+00 -6.955922e+00 -6.997636e+00 -6.927989e+00 -6.919749e+00 -6.818500e+00 -6.762248e+00 -6.631757e+00 -6.529765e+00 -6.372430e+00 -6.227205e+00 -6.045376e+00 -5.859587e+00 -5.655506e+00 -5.431917e+00 -5.207680e+00 -4.949104e+00 -4.706647e+00 -4.415914e+00 -4.157020e+00 -3.836952e+00 -3.563275e+00 -3.216679e+00 -2.929781e+00 -2.559443e+00 
-2.274627e+00 -1.882421e+00 -1.571716e+00 -1.160448e+00 -8.413682e-01 -4.138826e-01 -8.801126e-02 3.528232e-01 6.837320e-01 1.135004e+00 1.468979e+00 1.927718e+00 2.262536e+00 2.725698e+00 3.058857e+00 3.523313e+00 3.852028e+00 4.314553e+00 4.635769e+00 5.093036e+00 5.403459e+00 5.852038e+00 6.148191e+00 6.584557e+00 6.862850e+00 7.283392e+00 7.540215e+00 7.941258e+00 8.173079e+00 8.550905e+00 8.754383e+00 9.105265e+00 9.277351e+00 9.597590e+00 9.735625e+00 1.002159e+01 1.012339e+01 1.037157e+01 1.043547e+01 1.064252e+01 1.066744e+01 1.083023e+01 1.081565e+01 1.093134e+01 1.087730e+01 1.094339e+01 1.085046e+01 1.086486e+01 1.073407e+01 1.069516e+01 1.052797e+01 1.043467e+01 1.023287e+01 1.008473e+01 9.850413e+00 9.647637e+00 9.383146e+00 9.126651e+00 8.834558e+00 8.526023e+00 8.209105e+00 7.850987e+00 7.512229e+00 7.107777e+00 6.750380e+00 6.303623e+00 5.931019e+00 5.446738e+00 5.062608e+00 4.546284e+00 4.154562e+00 3.612310e+00 3.217179e+00 2.655651e+00 2.261521e+00 1.687800e+00 1.299261e+00 7.207251e-01 3.424799e-01 -2.333438e-01 -5.965688e-01 -1.162166e+00 -1.505731e+00 -2.053768e+00 -2.373242e+00 -2.896738e+00 -3.188030e+00 -3.680515e+00 -3.940000e+00 -4.395661e+00 -4.620300e+00 -5.034102e+00 -5.221534e+00 -5.589307e+00 -5.737916e+00 -6.056405e+00 -6.165350e+00 -6.432231e+00 -6.501434e+00 -6.715288e+00 -6.745383e+00 -6.905644e+00 -6.897895e+00 -7.004764e+00 -6.960950e+00 -7.015300e+00 -6.937587e+00 -6.940854e+00 -6.831658e+00 -6.785731e+00 -6.647593e+00 -6.554714e+00 -6.390185e+00 -6.252848e+00 -6.064397e+00 -5.885274e+00 -5.675227e+00 -5.457099e+00 -5.227597e+00 -4.973305e+00 -4.726291e+00 -4.438703e+00 -4.175933e+00 -3.857918e+00 -3.580990e+00 -3.235404e+00 -2.945800e+00 -2.575488e+00 
-2.339264e+00 -1.941078e+00 -1.628283e+00 -1.211863e+00 -8.901817e-01 -4.582626e-01 -1.292761e-01 3.153845e-01 6.499123e-01 1.104515e+00 1.442585e+00 1.904269e+00 2.243607e+00 2.709433e+00 3.047465e+00 3.514398e+00 3.848245e+00 4.313142e+00 4.639628e+00 5.099231e+00 5.414923e+00 5.865858e+00 6.167118e+00 6.605897e+00 6.888965e+00 7.311998e+00 7.573086e+00 7.976701e+00 8.212107e+00 8.592574e+00 8.798794e+00 9.152357e+00 9.326205e+00 9.649123e+00 9.787830e+00 1.007642e+01 1.017772e+01 1.042840e+01 1.049061e+01 1.069995e+01 1.072198e+01 1.088677e+01 1.086814e+01 1.098546e+01 1.092626e+01 1.099352e+01 1.089441e+01 1.090942e+01 1.077153e+01 1.073261e+01 1.055748e+01 1.046349e+01 1.025300e+01 1.010343e+01 9.859780e+00 9.654793e+00 9.380393e+00 9.120906e+00 8.818385e+00 8.506094e+00 8.178278e+00 7.815689e+00 7.465602e+00 7.056043e+00 6.686924e+00 6.234536e+00 5.849858e+00 5.359567e+00 4.963059e+00 4.440526e+00 4.036184e+00 3.487734e+00 3.079819e+00 2.512346e+00 2.105362e+00 1.526213e+00 1.124859e+00 5.416974e-01 1.507987e-01 -4.285611e-01 -8.041476e-01 -1.371910e+00 -1.727412e+00 -2.275988e+00 -2.606846e+00 -3.129039e+00 -3.431044e+00 -3.920227e+00 -4.189656e+00 -4.639931e+00 -4.873668e+00 -5.279995e+00 -5.475631e+00 -5.833922e+00 -5.989821e+00 -6.296984e+00 -6.412315e+00 -6.666261e+00 -6.740984e+00 -6.940586e+00 -6.975395e+00 -7.120416e+00 -7.116649e+00 -7.207643e+00 -7.167161e+00 -7.205347e+00 -7.130400e+00 -7.117543e+00 -7.010623e+00 -6.948911e+00 -6.812623e+00 -6.704548e+00 -6.541491e+00 -6.389756e+00 -6.202430e+00 -6.009862e+00 -5.800603e+00 -5.570090e+00 -5.341038e+00 -5.075483e+00 -4.828566e+00 -4.530855e+00 -4.267804e+00 -3.940790e+00 -3.663175e+00 -3.309671e+00 -3.018940e+00 -2.641721e+00 
-2.370396e+00 -1.969729e+00 -1.654449e+00 -1.234664e+00 -9.106717e-01 -4.745670e-01 -1.432888e-01 3.063159e-01 6.432591e-01 1.103500e+00 1.444237e+00 1.912185e+00 2.254550e+00 2.727194e+00 3.068693e+00 3.542923e+00 3.880722e+00 4.353318e+00 4.684255e+00 5.151876e+00 5.472493e+00 5.931679e+00 6.238281e+00 6.685458e+00 6.974196e+00 7.405689e+00 7.672664e+00 8.084715e+00 8.326098e+00 8.714896e+00 8.927055e+00 9.288766e+00 9.468393e+00 9.799199e+00 9.943421e+00 1.023956e+01 1.034604e+01 1.060387e+01 1.067085e+01 1.088686e+01 1.091325e+01 1.108416e+01 1.106948e+01 1.119227e+01 1.113666e+01 1.120865e+01 1.111280e+01 1.113171e+01 1.099682e+01 1.096084e+01 1.078851e+01 1.069638e+01 1.048855e+01 1.033965e+01 1.009852e+01 9.892909e+00 9.620901e+00 9.359385e+00 9.059114e+00 8.743295e+00 8.417544e+00 8.049856e+00 7.701591e+00 7.285311e+00 6.917704e+00 6.456946e+00 6.073406e+00 5.573096e+00 5.177300e+00 4.643127e+00 4.239045e+00 3.677394e+00 3.269291e+00 2.687145e+00 2.279575e+00 1.684400e+00 1.282156e+00 6.817600e-01 2.898065e-01 -3.078184e-01 -6.844443e-01 -1.271303e+00 -1.627617e+00 -2.195899e+00 -2.527114e+00 -3.069385e+00 -3.371061e+00 -3.880450e+00 -4.148651e+00 -4.619014e+00 -4.850449e+00 -5.276506e+00 -5.468646e+00 -5.846081e+00 -5.997238e+00 -6.322755e+00 -6.432119e+00 -6.703451e+00 -6.771080e+00 -6.986950e+00 -7.013704e+00 -7.173758e+00 -7.161199e+00 -7.265900e+00 -7.216148e+00 -7.266660e+00 -7.182239e+00 -7.180298e+00 -7.063972e+00 -7.011755e+00 -6.866376e+00 -6.766390e+00 -6.594764e+00 -6.449739e+00 -6.254526e+00 -6.067327e+00 -5.850973e+00 -5.624536e+00 -5.389230e+00 -5.126511e+00 -4.874183e+00 -4.578126e+00 -4.310465e+00 -3.983981e+00 -3.702473e+00 -3.348436e+00 -3.054420e+00 -2.675664e+00 
-2.449341e+00 -2.041576e+00 -1.723351e+00 -1.297310e+00 -9.697771e-01 -5.281321e-01 -1.926866e-01 2.618716e-01 6.036217e-01 1.068358e+00 1.414530e+00 1.886639e+00 2.235027e+00 2.711614e+00 3.059652e+00 3.537711e+00 3.882458e+00 4.358857e+00 4.697010e+00 5.168481e+00 5.496404e+00 5.959540e+00 6.273333e+00 6.724592e+00 7.020180e+00 7.455897e+00 7.729143e+00 8.145552e+00 8.392391e+00 8.785649e+00 9.002230e+00 9.368453e+00 9.551276e+00 9.886580e+00 1.003262e+01 1.033316e+01 1.043998e+01 1.070201e+01 1.076781e+01 1.098772e+01 1.101140e+01 1.118579e+01 1.116691e+01 1.129264e+01 1.123144e+01 1.130569e+01 1.120299e+01 1.122336e+01 1.108047e+01 1.104503e+01 1.086371e+01 1.077110e+01 1.055339e+01 1.040290e+01 1.015112e+01 9.942755e+00 9.659420e+00 9.393944e+00 9.081726e+00 8.760752e+00 8.422482e+00 8.048487e+00 7.687163e+00 7.263505e+00 6.882327e+00 6.413248e+00 6.015657e+00 5.506256e+00 5.095976e+00 4.552162e+00 4.133229e+00 3.561650e+00 3.138425e+00 2.546373e+00 2.123531e+00 1.518821e+00 1.101303e+00 4.921229e-01 8.506667e-02 -5.201978e-01 -9.115678e-01 -1.504528e+00 -1.875033e+00 -2.447508e+00 -2.792168e+00 -3.336404e+00 -3.650605e+00 -4.159481e+00 -4.439136e+00 -4.906354e+00 -5.148056e+00 -5.568289e+00 -5.769435e+00 -6.138439e+00 -6.297314e+00 -6.611972e+00 -6.727789e+00 -6.986114e+00 -7.058996e+00 -7.260070e+00 -7.290979e+00 -7.434859e+00 -7.425487e+00 -7.513073e+00 -7.465683e+00 -7.498573e+00 -7.415832e+00 -7.396172e+00 -7.280978e+00 -7.211311e+00 -7.066628e+00 -6.949772e+00 -6.778494e+00 -6.617426e+00 -6.422269e+00 -6.220041e+00 -6.003478e+00 -5.763148e+00 -5.527369e+00 -5.251962e+00 -4.998874e+00 -4.691354e+00 -4.422606e+00 -4.085860e+00 -3.802888e+00 -3.439732e+00 -3.143817e+00 -2.757004e+00 
-2.498468e+00 -2.086581e+00 -1.765465e+00 -1.334397e+00 -1.004099e+00 -5.565790e-01 -2.182994e-01 2.429244e-01 5.877573e-01 1.059891e+00 1.409553e+00 1.889730e+00 2.242144e+00 2.727400e+00 3.080091e+00 3.567346e+00 3.917420e+00 4.403462e+00 4.747612e+00 5.229085e+00 5.563625e+00 6.037028e+00 6.357958e+00 6.819651e+00 7.122753e+00 7.568971e+00 7.849935e+00 8.276811e+00 8.531381e+00 8.934975e+00 9.159104e+00 9.535437e+00 9.725444e+00 1.007054e+01 1.022325e+01 1.053318e+01 1.064603e+01 1.091695e+01 1.098808e+01 1.121630e+01 1.124458e+01 1.142659e+01 1.141163e+01 1.154418e+01 1.148627e+01 1.156642e+01 1.146645e+01 1.149167e+01 1.135107e+01 1.131929e+01 1.113989e+01 1.104960e+01 1.083354e+01 1.068387e+01 1.043352e+01 1.022432e+01 9.942222e+00 9.674124e+00 9.362935e+00 9.037446e+00 8.699940e+00 8.319450e+00 7.958550e+00 7.526366e+00 7.145180e+00 6.665527e+00 6.267407e+00 5.745402e+00 5.333997e+00 4.775610e+00 4.354914e+00 3.766892e+00 3.341273e+00 2.731046e+00 2.305243e+00 1.680801e+00 1.259883e+00 6.296300e-01 2.189252e-01 -4.085046e-01 -8.035219e-01 -1.419461e+00 -1.793317e+00 -2.389283e+00 -2.736677e+00 -3.304598e+00 -3.620590e+00 -4.153025e+00 -4.433226e+00 -4.923563e+00 -5.164315e+00 -5.606932e+00 -5.805456e+00 -6.195840e+00 -6.350341e+00 -6.685147e+00 -6.794862e+00 -7.071912e+00 -7.137097e+00 -7.355332e+00 -7.377179e+00 -7.536558e+00 -7.517063e+00 -7.618431e+00 -7.560215e+00 -7.605155e+00 -7.511262e+00 -7.501932e+00 -7.375626e+00 -7.314614e+00 -7.159188e+00 -7.049369e+00 -6.867990e+00 -6.712414e+00 -6.508003e+00 -6.309800e+00 -6.084958e+00 -5.847268e+00 -5.604245e+00 -5.330173e+00 -5.070866e+00 -4.763450e+00 -4.489441e+00 -4.151645e+00 -3.864253e+00 -3.498961e+00 -3.199317e+00 -2.809345e+00 
-2.591351e+00 -2.171367e+00 -1.846500e+00 -1.408200e+00 -1.073455e+00 -6.194188e-01 -2.759344e-01 1.912401e-01 5.420770e-01 1.019745e+00 1.376221e+00 1.861657e+00 2.221668e+00 2.712041e+00 3.073042e+00 3.565389e+00 3.924368e+00 4.415573e+00 4.769057e+00 5.255842e+00 5.599929e+00 6.078844e+00 6.409274e+00 6.876708e+00 7.188971e+00 7.641158e+00 7.930634e+00 8.363682e+00 8.625802e+00 9.035722e+00 9.266146e+00 9.648887e+00 9.843677e+00 1.019517e+01 1.035095e+01 1.066715e+01 1.078123e+01 1.105818e+01 1.112862e+01 1.136247e+01 1.138816e+01 1.157525e+01 1.155587e+01 1.169278e+01 1.162875e+01 1.171238e+01 1.160476e+01 1.163239e+01 1.148279e+01 1.145220e+01 1.126263e+01 1.117215e+01 1.094492e+01 1.079355e+01 1.053117e+01 1.031868e+01 1.002378e+01 9.750749e+00 9.426053e+00 9.093966e+00 8.742290e+00 8.353572e+00 7.977856e+00 7.535898e+00 7.139259e+00 6.648426e+00 6.234232e+00 5.699839e+00 5.271776e+00 4.700051e+00 4.262183e+00 3.660193e+00 3.216994e+00 2.592553e+00 2.148911e+00 1.510450e+00 1.071630e+00 4.280386e-01 -4.048717e-04 -6.399706e-01 -1.052308e+00 -1.678653e+00 -2.069144e+00 -2.673278e+00 -3.036356e+00 -3.609757e+00 -3.940236e+00 -4.475102e+00 -4.768381e+00 -5.257860e+00 -5.510119e+00 -5.948496e+00 -6.156853e+00 -6.539674e+00 -6.702300e+00 -7.026432e+00 -7.142601e+00 -7.406213e+00 -7.476279e+00 -7.678762e+00 -7.704076e+00 -7.845908e+00 -7.828663e+00 -7.911240e+00 -7.854271e+00 -7.879720e+00 -7.786289e+00 -7.757277e+00 -7.630846e+00 -7.550408e+00 -7.394441e+00 -7.265827e+00 -7.083616e+00 -6.910168e+00 -6.704720e+00 -6.489780e+00 -6.263733e+00 -6.010577e+00 -5.766181e+00 -5.477981e+00 -5.217098e+00 -4.896904e+00 -4.621056e+00 -4.271792e+00 -3.982220e+00 -3.606695e+00 -3.304439e+00 -2.905365e+00 
-2.659161e+00 -2.233358e+00 -1.905393e+00 -1.460350e+00 -1.122581e+00 -6.609269e-01 -3.142493e-01 1.613697e-01 5.157951e-01 1.002682e+00 1.363339e+00 1.858713e+00 2.223656e+00 2.724622e+00 3.091413e+00 3.594934e+00 3.960615e+00 4.463493e+00 4.824574e+00 5.323436e+00 5.675932e+00 6.167226e+00 6.506730e+00 6.986731e+00 7.308526e+00 7.773355e+00 8.072572e+00 8.518217e+00 8.790013e+00 9.212369e+00 9.452130e+00 9.847036e+00 1.005057e+01 1.041385e+01 1.057756e+01 1.090507e+01 1.102611e+01 1.131378e+01 1.139014e+01 1.163402e+01 1.166456e+01 1.186088e+01 1.184532e+01 1.199053e+01 1.192939e+01 1.202023e+01 1.191471e+01 1.194831e+01 1.180017e+01 1.177412e+01 1.158552e+01 1.149795e+01 1.127133e+01 1.112106e+01 1.085902e+01 1.064560e+01 1.035081e+01 1.007468e+01 9.749844e+00 9.412339e+00 9.060206e+00 8.663651e+00 8.287053e+00 7.834784e+00 7.436709e+00 6.933078e+00 6.516761e+00 5.967124e+00 5.536139e+00 4.946811e+00 4.505153e+00 3.883340e+00 3.435479e+00 2.789183e+00 2.340079e+00 1.677969e+00 1.233046e+00 5.642953e-01 1.293608e-01 -5.365487e-01 -9.554358e-01 -1.608944e+00 -2.005646e+00 -2.637371e+00 -3.005884e+00 -3.606897e+00 -3.941588e+00 -4.503679e+00 -4.799529e+00 -5.315453e+00 -5.568288e+00 -6.031969e+00 -6.238658e+00 -6.645325e+00 -6.803918e+00 -7.150177e+00 -7.259975e+00 -7.543793e+00 -7.605330e+00 -7.825963e+00 -7.840899e+00 -7.998751e+00 -7.969696e+00 -8.066145e+00 -7.996420e+00 -8.033623e+00 -7.926997e+00 -7.907691e+00 -7.768113e+00 -7.695429e+00 -7.526794e+00 -7.404096e+00 -7.210049e+00 -7.040799e+00 -6.824598e+00 -6.612260e+00 -6.376699e+00 -6.124667e+00 -5.872049e+00 -5.583605e+00 -5.315764e+00 -4.994056e+00 -4.712412e+00 -4.360451e+00 -4.066086e+00 -3.686759e+00 -3.380511e+00 -2.976597e+00 
-2.765652e+00 -2.330895e+00 -1.998456e+00 -1.545354e+00 -1.202300e+00 -7.333070e-01 -3.804306e-01 1.019851e-01 4.635985e-01 9.569139e-01 1.325787e+00 1.827387e+00 2.201566e+00 2.708706e+00 3.085692e+00 3.595469e+00 3.972177e+00 4.481501e+00 4.854249e+00 5.359832e+00 5.724372e+00 6.222715e+00 6.574319e+00 7.061718e+00 7.395297e+00 7.867863e+00 8.178143e+00 8.631825e+00 8.913558e+00 9.344179e+00 9.592362e+00 9.995666e+00 1.020577e+01 1.057746e+01 1.074563e+01 1.108142e+01 1.120463e+01 1.150029e+01 1.157645e+01 1.182785e+01 1.185585e+01 1.205902e+01 1.203869e+01 1.218986e+01 1.212191e+01 1.221762e+01 1.210347e+01 1.214060e+01 1.198227e+01 1.195820e+01 1.175809e+01 1.167076e+01 1.143153e+01 1.127957e+01 1.100399e+01 1.078683e+01 1.047769e+01 1.019567e+01 9.855724e+00 9.510148e+00 9.142178e+00 8.735390e+00 8.342211e+00 7.877632e+00 7.462208e+00 6.944340e+00 6.509893e+00 5.944312e+00 5.494430e+00 4.887748e+00 4.426488e+00 3.786289e+00 3.318238e+00 2.652982e+00 2.183284e+00 1.502181e+00 1.036500e+00 3.493391e-01 -1.062232e-01 -7.892926e-01 -1.228343e+00 -1.897067e+00 -2.313111e+00 -2.957431e+00 -3.344111e+00 -3.954480e+00 -4.305831e+00 -4.873535e+00 -5.184248e+00 -5.701697e+00 -5.967380e+00 -6.428343e+00 -6.645723e+00 -7.045485e+00 -7.212572e+00 -7.547997e+00 -7.664145e+00 -7.933642e+00 -7.999532e+00 -8.202934e+00 -8.220454e+00 -8.358833e+00 -8.330873e+00 -8.406309e+00 -8.336498e+00 -8.351833e+00 -8.244250e+00 -8.202850e+00 -8.061723e+00 -7.967265e+00 -7.796723e+00 -7.653013e+00 -7.456873e+00 -7.267711e+00 -7.049341e+00 -6.818426e+00 -6.580666e+00 -6.311529e+00 -6.056675e+00 -5.752656e+00 -5.482487e+00 -5.146726e+00 -4.862573e+00 -4.498017e+00 -4.200848e+00 -3.810281e+00 -3.500806e+00 -3.086872e+00 
-2.852870e+00 -2.410547e+00 -2.075058e+00 -1.613448e+00 -1.267361e+00 -7.889578e-01 -4.327591e-01 5.992925e-02 4.254354e-01 9.298453e-01 1.303429e+00 1.816897e+00 2.196802e+00 2.716529e+00 3.100391e+00 3.623402e+00 4.008198e+00 4.531319e+00 4.913341e+00 5.433181e+00 5.808068e+00 6.321012e+00 6.683829e+00 7.186047e+00 7.531423e+00 8.018888e+00 8.341205e+00 8.809728e+00 9.103360e+00 9.548628e+00 9.808194e+00 1.022582e+01 1.044644e+01 1.083201e+01 1.100954e+01 1.135866e+01 1.148986e+01 1.179818e+01 1.188086e+01 1.214414e+01 1.217717e+01 1.239132e+01 1.237461e+01 1.253571e+01 1.247012e+01 1.257452e+01 1.246169e+01 1.250609e+01 1.234826e+01 1.232979e+01 1.212958e+01 1.204595e+01 1.180622e+01 1.165581e+01 1.137944e+01 1.116145e+01 1.085130e+01 1.056584e+01 1.022466e+01 9.872861e+00 9.503319e+00 9.087413e+00 8.692178e+00 8.215513e+00 7.797358e+00 7.264432e+00 6.826382e+00 6.242827e+00 5.788298e+00 5.160844e+00 4.693775e+00 4.030185e+00 3.555132e+00 2.864106e+00 2.386284e+00 1.677331e+00 1.202599e+00 4.858645e-01 2.063828e-02 -6.933167e-01 -1.142214e+00 -1.842677e+00 -2.268229e+00 -2.944648e+00 -3.339909e+00 -3.982225e+00 -4.340625e+00 -4.939613e+00 -5.255270e+00 -5.802853e+00 -6.070884e+00 -6.560389e+00 -6.777171e+00 -7.203505e+00 -7.366870e+00 -7.726599e+00 -7.835931e+00 -8.127248e+00 -8.183464e+00 -8.406077e+00 -8.411485e+00 -8.566420e+00 -8.524480e+00 -8.613845e+00 -8.528841e+00 -8.555567e+00 -8.432257e+00 -8.399842e+00 -8.243102e+00 -8.155384e+00 -7.969903e+00 -7.830865e+00 -7.620902e+00 -7.434523e+00 -7.203753e+00 -6.973902e+00 -6.725336e+00 -6.455702e+00 -6.191680e+00 -5.885743e+00 -5.607983e+00 -5.269003e+00 -4.978682e+00 -4.609709e+00 -4.307578e+00 -3.911480e+00 -3.597981e+00 -3.177471e+00 
-2.972678e+00 -2.520716e+00 -2.180156e+00 -1.709841e+00 -1.357737e+00 -8.713536e-01 -5.080422e-01 -7.888038e-03 3.659467e-01 8.775118e-01 1.260717e+00 1.781223e+00 2.172063e+00 2.698885e+00 3.094949e+00 3.625267e+00 4.023402e+00 4.554168e+00 4.950447e+00 5.478363e+00 5.868113e+00 6.389619e+00 6.767507e+00 7.278790e+00 7.638972e+00 8.135984e+00 8.472326e+00 8.950818e+00 9.257160e+00 9.712728e+00 9.983182e+00 1.041132e+01 1.064056e+01 1.103670e+01 1.122024e+01 1.157981e+01 1.171420e+01 1.203266e+01 1.211561e+01 1.238850e+01 1.241893e+01 1.264191e+01 1.261990e+01 1.278880e+01 1.271547e+01 1.282635e+01 1.270366e+01 1.275293e+01 1.258348e+01 1.256800e+01 1.235473e+01 1.227193e+01 1.201798e+01 1.186603e+01 1.157451e+01 1.135240e+01 1.102629e+01 1.073402e+01 1.037612e+01 1.001476e+01 9.627726e+00 9.199501e+00 8.785944e+00 8.294285e+00 7.856901e+00 7.306462e+00 6.848209e+00 6.244861e+00 5.769135e+00 5.119938e+00 4.630719e+00 3.943865e+00 3.445835e+00 2.730563e+00 2.229149e+00 1.495619e+00 9.969788e-01 2.560946e-01 -2.329813e-01 -9.698125e-01 -1.442069e+00 -2.163237e+00 -2.611194e+00 -3.305248e+00 -3.721492e+00 -4.377543e+00 -4.755061e+00 -5.363190e+00 -5.695718e+00 -6.247361e+00 -6.529716e+00 -7.017970e+00 -7.246345e+00 -7.666170e+00 -7.838340e+00 -8.186634e+00 -8.302063e+00 -8.577595e+00 -8.637407e+00 -8.840643e+00 -8.847467e+00 -8.980301e+00 -8.937990e+00 -9.003432e+00 -8.916703e+00 -8.918550e+00 -8.792585e+00 -8.735118e+00 -8.575173e+00 -8.462887e+00 -8.273961e+00 -8.111359e+00 -7.897934e+00 -7.689373e+00 -7.455258e+00 -7.204850e+00 -6.953103e+00 -6.664670e+00 -6.397606e+00 -6.074660e+00 -5.793911e+00 -5.439670e+00 -5.146287e+00 -4.763700e+00 -4.458274e+00 -4.050066e+00 -3.732864e+00 -3.301575e+00 
-3.080066e+00 -2.618748e+00 -2.275505e+00 -1.794880e+00 -1.440041e+00 -9.424216e-01 -5.759462e-01 -6.365377e-02 3.141255e-01 8.387045e-01 1.226944e+00 1.761305e+00 2.158523e+00 2.699994e+00 3.103953e+00 3.649649e+00 4.057277e+00 4.604062e+00 5.011405e+00 5.555871e+00 5.958106e+00 6.496565e+00 6.888087e+00 7.416574e+00 7.791161e+00 8.305468e+00 8.656519e+00 9.152232e+00 9.473075e+00 9.945630e+00 1.022986e+01 1.067460e+01 1.091642e+01 1.132865e+01 1.152319e+01 1.189821e+01 1.204173e+01 1.237491e+01 1.246500e+01 1.275175e+01 1.278732e+01 1.302318e+01 1.300444e+01 1.318507e+01 1.311337e+01 1.323464e+01 1.311226e+01 1.317033e+01 1.300018e+01 1.299163e+01 1.277700e+01 1.269896e+01 1.244325e+01 1.229355e+01 1.200006e+01 1.177742e+01 1.144921e+01 1.115334e+01 1.079319e+01 1.042494e+01 1.003538e+01 9.596819e+00 9.180224e+00 8.674712e+00 8.233501e+00 7.665689e+00 7.202527e+00 6.578359e+00 6.096377e+00 5.423062e+00 4.926048e+00 4.211998e+00 3.704552e+00 2.959297e+00 2.446907e+00 1.680969e+00 1.170014e+00 3.947316e-01 -1.076098e-01 -8.803264e-01 -1.366251e+00 -2.124227e+00 -2.585572e+00 -3.316745e+00 -3.745320e+00 -4.438162e+00 -4.826140e+00 -5.470098e+00 -5.810430e+00 -6.396335e+00 -6.683163e+00 -7.203571e+00 -7.432589e+00 -7.882011e+00 -8.050739e+00 -8.425725e+00 -8.533654e+00 -8.832746e+00 -8.881314e+00 -9.104863e+00 -9.097274e+00 -9.247170e+00 -9.188052e+00 -9.267391e+00 -9.162350e+00 -9.175091e+00 -9.030225e+00 -8.980859e+00 -8.802277e+00 -8.695542e+00 -8.488964e+00 -8.329615e+00 -8.100075e+00 -7.892712e+00 -7.644380e+00 -7.393344e+00 -7.129458e+00 -6.838769e+00 -6.561660e+00 -6.235004e+00 -5.946186e+00 -5.586922e+00 -5.287222e+00 -4.898417e+00 -4.588129e+00 -4.172595e+00 -3.851640e+00 -3.411986e+00 
-3.212950e+00 -2.741517e+00 -2.392783e+00 -1.903021e+00 -1.541591e+00 -1.035563e+00 -6.611865e-01 -1.409671e-01 2.461979e-01 7.784617e-01 1.177701e+00 1.719731e+00 2.129624e+00 2.678955e+00 3.097246e+00 3.651173e+00 4.074665e+00 4.630199e+00 5.054696e+00 5.608535e+00 6.028848e+00 6.577363e+00 6.987395e+00 7.526636e+00 7.919569e+00 8.445291e+00 8.813857e+00 9.321566e+00 9.658399e+00 1.014341e+01 1.044144e+01 1.089895e+01 1.115179e+01 1.157692e+01 1.177925e+01 1.216710e+01 1.231492e+01 1.266061e+01 1.275138e+01 1.305009e+01 1.308283e+01 1.332977e+01 1.330494e+01 1.349548e+01 1.341480e+01 1.354445e+01 1.341065e+01 1.347522e+01 1.329169e+01 1.328740e+01 1.305787e+01 1.298150e+01 1.270976e+01 1.255884e+01 1.224845e+01 1.202146e+01 1.167563e+01 1.137210e+01 1.099364e+01 1.061432e+01 1.020568e+01 9.752639e+00 9.316061e+00 8.792717e+00 8.330461e+00 7.741622e+00 7.256210e+00 6.608070e+00 6.102550e+00 5.402671e+00 4.880839e+00 4.138109e+00 3.604687e+00 2.829250e+00 2.289972e+00 1.493117e+00 9.547296e-01 1.487137e-01 -3.811297e-01 -1.183336e+00 -1.696280e+00 -2.481347e+00 -2.968625e+00 -3.723308e+00 -4.176119e+00 -4.887770e+00 -5.297707e+00 -5.954822e+00 -6.314325e+00 -6.907056e+00 -7.209869e+00 -7.730439e+00 -7.972005e+00 -8.414981e+00 -8.592744e+00 -8.955117e+00 -9.068677e+00 -9.349759e+00 -9.400847e+00 -9.602001e+00 -9.594264e+00 -9.718523e+00 -9.657138e+00 -9.708772e+00 -9.599941e+00 -9.584011e+00 -9.434409e+00 -9.356374e+00 -9.172620e+00 -9.038006e+00 -8.826222e+00 -8.640380e+00 -8.405879e+00 -8.173818e+00 -7.920920e+00 -7.647222e+00 -7.379202e+00 -7.067989e+00 -6.787120e+00 -6.442067e+00 -6.149733e+00 -5.774105e+00 -5.470952e+00 -5.067661e+00 -4.753768e+00 -4.325433e+00 -4.000485e+00 -3.549492e+00 