# vtk DataFile Version 2.0
Comment goes here
ASCII

DATASET STRUCTURED_POINTS
FIELD FieldData 1
TIME 1 1 double
0.23500000
DIMENSIONS    128   128   1

ORIGIN    0.000   0.000   0.000
SPACING   0.039062 0.039062   1.000

POINT_DATA   16384
SCALARS P double
LOOKUP_TABLE default

3.862610e+00 4.052812e+00 3.876344e+00 4.076182e+00 3.908231e+00 4.116624e+00 3.958032e+00 4.173705e+00 4.025194e+00 4.246660e+00 4.108856e+00 4.334412e+00 4.207873e+00 4.435593e+00 4.320830e+00 4.548579e+00 4.446079e+00 4.671526e+00 4.581768e+00 4.802414e+00 4.725884e+00 4.939096e+00 4.876300e+00 5.079347e+00 5.030814e+00 5.220921e+00 5.187210e+00 5.361603e+00 5.343297e+00 5.499258e+00 5.496959e+00 5.631883e+00 5.646196e+00 5.757643e+00 5.789159e+00 5.874908e+00 5.924178e+00 5.982276e+00 6.049778e+00 6.078595e+00 6.164700e+00 6.162968e+00 6.267904e+00 6.234767e+00 6.358572e+00 6.293622e+00 6.436113e+00 6.339426e+00 6.500161e+00 6.372321e+00 6.550569e+00 6.392687e+00 6.587408e+00 6.401124e+00 6.610958e+00 6.398428e+00 6.621693e+00 6.385563e+00 6.620266e+00 6.363622e+00 6.607481e+00 6.333786e+00 6.584259e+00 6.297276e+00 6.551602e+00 6.255299e+00 6.510543e+00 6.208998e+00 6.462105e+00 6.159396e+00 6.407245e+00 6.107354e+00 6.346816e+00 6.053534e+00 6.281529e+00 5.998366e+00 6.211921e+00 5.942042e+00 6.138349e+00 5.884518e+00 6.060985e+00 5.825525e+00 5.979833e+00 5.764612e+00 5.894762e+00 5.701190e+00 5.805550e+00 5.634589e+00 5.711936e+00 5.564135e+00 5.613684e+00 5.489212e+00 5.510646e+00 5.409346e+00 5.402823e+00 5.324263e+00 5.290413e+00 5.233947e+00 5.173858e+00 5.138685e+00 5.053868e+00 5.039086e+00 4.931426e+00 4.936088e+00 4.807784e+00 4.830938e+00 4.684435e+00 4.725165e+00 4.563071e+00 4.620521e+00 4.445538e+00 4.518928e+00 4.333774e+00 4.422403e+00 4.229743e+00 4.332989e+00 4.135381e+00 4.252683e+00 4.052528e+00 4.183369e+00 3.982879e+00 4.126757e+00 3.927934e+00 4.084331e+00 3.888957e+00 4.057308e+00 3.866947e+00 4.046605e+00 
3.862466e+00 4.049113e+00 3.869452e+00 4.065349e+00 3.894397e+00 4.098508e+00 3.937099e+00 4.148191e+00 3.997040e+00 4.213663e+00 4.073395e+00 4.293876e+00 4.165048e+00 4.387494e+00 4.270620e+00 4.492924e+00 4.388498e+00 4.608357e+00 4.516868e+00 4.731811e+00 4.653759e+00 4.861180e+00 4.797085e+00 4.994287e+00 4.944697e+00 5.128939e+00 5.094431e+00 5.262980e+00 5.244157e+00 5.394339e+00 5.391824e+00 5.521084e+00 5.535502e+00 5.641455e+00 5.673417e+00 5.753899e+00 5.803973e+00 5.857096e+00 5.925776e+00 5.949972e+00 6.037642e+00 6.031707e+00 6.138601e+00 6.101741e+00 6.227903e+00 6.159767e+00 6.305010e+00 6.205725e+00 6.369596e+00 6.239792e+00 6.421543e+00 6.262366e+00 6.460931e+00 6.274050e+00 6.488033e+00 6.275622e+00 6.503297e+00 6.268013e+00 6.507332e+00 6.252267e+00 6.500883e+00 6.229498e+00 6.484796e+00 6.200848e+00 6.459986e+00 6.167432e+00 6.427389e+00 6.130291e+00 6.387918e+00 6.090337e+00 6.342420e+00 6.048314e+00 6.291629e+00 6.004757e+00 6.236133e+00 5.959970e+00 6.176349e+00 5.914015e+00 6.112512e+00 5.866710e+00 6.044672e+00 5.817658e+00 5.972718e+00 5.766275e+00 5.896407e+00 5.711847e+00 5.815411e+00 5.653588e+00 5.729373e+00 5.590716e+00 5.637972e+00 5.522524e+00 5.540986e+00 5.448460e+00 5.438355e+00 5.368192e+00 5.330235e+00 5.281667e+00 5.217037e+00 5.189154e+00 5.099458e+00 5.091264e+00 4.978485e+00 4.988955e+00 4.855386e+00 4.883515e+00 4.731683e+00 4.776521e+00 4.609113e+00 4.669789e+00 4.489571e+00 4.565309e+00 4.375051e+00 4.465174e+00 4.267582e+00 4.371502e+00 4.169162e+00 4.286365e+00 4.081696e+00 4.211717e+00 4.006942e+00 4.149336e+00 3.946459e+00 4.100768e+00 3.901568e+00 4.067287e+00 3.873319e+00 4.049856e+00 
3.853127e+00 4.043757e+00 3.866772e+00 4.067131e+00 3.898744e+00 4.107764e+00 3.948805e+00 4.165218e+00 4.016397e+00 4.238723e+00 4.100652e+00 4.327186e+00 4.200412e+00 4.429224e+00 4.314246e+00 4.543190e+00 4.440483e+00 4.667214e+00 4.577248e+00 4.799247e+00 4.722500e+00 4.937110e+00 4.874082e+00 5.078547e+00 5.029765e+00 5.221282e+00 5.187303e+00 5.363071e+00 5.344481e+00 5.501756e+00 5.499163e+00 5.635311e+00 5.649332e+00 5.761888e+00 5.793127e+00 5.879846e+00 5.928870e+00 5.987777e+00 6.055085e+00 6.084524e+00 6.170508e+00 6.169195e+00 6.274101e+00 6.241159e+00 6.365048e+00 6.300053e+00 6.442759e+00 6.345773e+00 6.506869e+00 6.378469e+00 6.557234e+00 6.398529e+00 6.593929e+00 6.406564e+00 6.617238e+00 6.403385e+00 6.627646e+00 6.389972e+00 6.625817e+00 6.367440e+00 6.612571e+00 6.336993e+00 6.588848e+00 6.299879e+00 6.555671e+00 6.257329e+00 6.514100e+00 6.210513e+00 6.465179e+00 6.160476e+00 6.409888e+00 6.108100e+00 6.349100e+00 6.054057e+00 6.283537e+00 5.998788e+00 6.213746e+00 5.942482e+00 6.140082e+00 5.885085e+00 6.062711e+00 5.826315e+00 5.981622e+00 5.765696e+00 5.896662e+00 5.702608e+00 5.807581e+00 5.636349e+00 5.714091e+00 5.566208e+00 5.615922e+00 5.491535e+00 5.512898e+00 5.411821e+00 5.404991e+00 5.326764e+00 5.292380e+00 5.236326e+00 5.175494e+00 5.140782e+00 5.055034e+00 5.040737e+00 4.931989e+00 4.937134e+00 4.807619e+00 4.831238e+00 4.683435e+00 4.724597e+00 4.561155e+00 4.618994e+00 4.442650e+00 4.516382e+00 4.329886e+00 4.418814e+00 4.224861e+00 4.328369e+00 4.129539e+00 4.247076e+00 4.045789e+00 4.176853e+00 3.975332e+00 4.119437e+00 3.919691e+00 4.076337e+00 3.880149e+00 4.048791e+00 3.857722e+00 4.037730e+00 
3.843728e+00 4.031181e+00 3.850496e+00 4.047390e+00 3.875574e+00 4.080898e+00 3.918761e+00 4.131297e+00 3.979529e+00 4.197837e+00 4.057037e+00 4.279444e+00 4.150143e+00 4.374744e+00 4.257434e+00 4.482101e+00 4.377253e+00 4.599650e+00 4.507734e+00 4.725352e+00 4.646851e+00 4.857036e+00 4.792461e+00 4.992464e+00 4.942355e+00 5.129380e+00 5.094314e+00 5.265571e+00 5.246158e+00 5.398918e+00 5.395795e+00 5.527449e+00 5.541263e+00 5.649375e+00 5.680765e+00 5.763125e+00 5.812693e+00 5.867368e+00 5.935647e+00 5.961026e+00 6.048444e+00 6.043285e+00 6.150117e+00 6.113590e+00 6.239922e+00 6.171644e+00 6.317326e+00 6.217400e+00 6.382010e+00 6.251051e+00 6.433861e+00 6.273012e+00 6.472969e+00 6.283908e+00 6.499616e+00 6.284547e+00 6.514269e+00 6.275893e+00 6.517560e+00 6.259030e+00 6.510262e+00 6.235120e+00 6.493261e+00 6.205352e+00 6.467511e+00 6.170893e+00 6.433996e+00 6.132832e+00 6.393673e+00 6.092128e+00 6.347431e+00 6.049559e+00 6.296041e+00 6.005687e+00 6.240116e+00 5.960829e+00 6.180088e+00 5.915041e+00 6.116187e+00 5.868126e+00 6.048451e+00 5.819648e+00 5.976734e+00 5.768977e+00 5.900749e+00 5.715335e+00 5.820113e+00 5.657867e+00 5.734408e+00 5.595715e+00 5.643247e+00 5.528098e+00 5.546347e+00 5.454395e+00 5.443594e+00 5.374216e+00 5.335101e+00 5.287466e+00 5.221252e+00 5.194386e+00 5.102732e+00 5.095583e+00 4.980534e+00 4.992029e+00 4.855949e+00 4.885043e+00 4.730536e+00 4.776251e+00 4.606081e+00 4.667529e+00 4.484536e+00 4.560938e+00 4.367957e+00 4.458642e+00 4.258435e+00 4.362831e+00 4.158031e+00 4.275649e+00 4.068708e+00 4.199115e+00 3.992277e+00 4.135065e+00 3.930345e+00 4.085093e+00 3.884272e+00 4.050514e+00 3.855140e+00 4.032324e+00 
3.824492e+00 4.016391e+00 3.837866e+00 4.039775e+00 3.870092e+00 4.080981e+00 3.920933e+00 4.139563e+00 3.989823e+00 4.214727e+00 4.075871e+00 4.305344e+00 4.177878e+00 4.409975e+00 4.294363e+00 4.526907e+00 4.423592e+00 4.654191e+00 4.563612e+00 4.789690e+00 4.712300e+00 4.931129e+00 4.867410e+00 5.076158e+00 5.026626e+00 5.222405e+00 5.187616e+00 5.367542e+00 5.348091e+00 5.509335e+00 5.505851e+00 5.645698e+00 5.658828e+00 5.774738e+00 5.805128e+00 5.894781e+00 5.943050e+00 6.004402e+00 6.071108e+00 6.102439e+00 6.188036e+00 6.187997e+00 6.292797e+00 6.260456e+00 6.384580e+00 6.319461e+00 6.462799e+00 6.364926e+00 6.527093e+00 6.397017e+00 6.577327e+00 6.416149e+00 6.613584e+00 6.422965e+00 6.636165e+00 6.418319e+00 6.645580e+00 6.403243e+00 6.642529e+00 6.378915e+00 6.627880e+00 6.346611e+00 6.602631e+00 6.307655e+00 6.567875e+00 6.263362e+00 6.524742e+00 6.214977e+00 6.474350e+00 6.163618e+00 6.417748e+00 6.110224e+00 6.355866e+00 6.055509e+00 6.289469e+00 5.999935e+00 6.219127e+00 5.943690e+00 6.145196e+00 5.886694e+00 6.067819e+00 5.828613e+00 5.986938e+00 5.768902e+00 5.902337e+00 5.706851e+00 5.813682e+00 5.641654e+00 5.720591e+00 5.572489e+00 5.622702e+00 5.498597e+00 5.519743e+00 5.419366e+00 5.411607e+00 5.334406e+00 5.298407e+00 5.243616e+00 5.180529e+00 5.147229e+00 5.058658e+00 5.045839e+00 4.933791e+00 4.940409e+00 4.807220e+00 4.832248e+00 4.680511e+00 4.722975e+00 4.555452e+00 4.614460e+00 4.433998e+00 4.508757e+00 4.318207e+00 4.408024e+00 4.210169e+00 4.314449e+00 4.111939e+00 4.230165e+00 4.025472e+00 4.157185e+00 3.952566e+00 4.097332e+00 3.894815e+00 4.052189e+00 3.853562e+00 4.023056e+00 3.829868e+00 4.010911e+00 
3.805877e+00 3.994911e+00 3.812200e+00 4.011062e+00 3.837542e+00 4.045271e+00 3.881703e+00 4.097119e+00 3.944142e+00 4.165823e+00 4.023982e+00 4.250252e+00 4.120031e+00 4.348963e+00 4.230803e+00 4.460225e+00 4.354553e+00 4.582068e+00 4.489314e+00 4.712329e+00 4.632945e+00 4.848712e+00 4.783183e+00 4.988845e+00 4.937699e+00 5.130346e+00 5.094160e+00 5.270888e+00 5.250284e+00 5.408253e+00 5.403895e+00 5.540388e+00 5.552966e+00 5.665446e+00 5.695657e+00 5.781818e+00 5.830335e+00 5.888155e+00 5.955593e+00 5.983378e+00 6.070249e+00 6.066677e+00 6.173347e+00 6.137516e+00 6.264154e+00 6.195616e+00 6.342149e+00 6.240956e+00 6.407024e+00 6.273757e+00 6.458677e+00 6.294471e+00 6.497213e+00 6.303766e+00 6.522936e+00 6.302506e+00 6.536345e+00 6.291723e+00 6.538118e+00 6.272584e+00 6.529089e+00 6.246341e+00 6.510216e+00 6.214287e+00 6.482543e+00 6.177692e+00 6.447145e+00 6.137748e+00 6.405075e+00 6.095505e+00 6.357310e+00 6.051818e+00 6.304695e+00 6.007304e+00 6.247900e+00 5.962304e+00 6.187381e+00 5.916871e+00 6.123371e+00 5.870767e+00 6.055870e+00 5.823488e+00 5.984671e+00 5.774301e+00 5.909394e+00 5.722300e+00 5.829539e+00 5.666487e+00 5.744562e+00 5.605848e+00 5.653941e+00 5.539449e+00 5.557267e+00 5.466526e+00 5.454311e+00 5.386569e+00 5.345099e+00 5.299391e+00 5.229957e+00 5.205182e+00 5.109548e+00 5.104538e+00 4.984876e+00 4.998459e+00 4.857281e+00 4.888331e+00 4.728399e+00 4.775882e+00 4.600116e+00 4.663113e+00 4.474502e+00 4.552224e+00 4.353738e+00 4.445530e+00 4.240047e+00 4.345371e+00 4.135615e+00 4.254033e+00 4.042524e+00 4.173668e+00 3.962692e+00 4.106227e+00 3.897820e+00 4.053406e+00 3.849348e+00 4.016600e+00 3.818424e+00 3.996867e+00 
3.776143e+00 3.970103e+00 3.789046e+00 3.993495e+00 3.821689e+00 4.035664e+00 3.873843e+00 4.096151e+00 3.944922e+00 4.174122e+00 4.033997e+00 4.268385e+00 4.139806e+00 4.377412e+00 4.260783e+00 4.499377e+00 4.395081e+00 4.632196e+00 4.540622e+00 4.773578e+00 4.695139e+00 4.921089e+00 4.856232e+00 5.072210e+00 5.021432e+00 5.224410e+00 5.188265e+00 5.375213e+00 5.354308e+00 5.522257e+00 5.517255e+00 5.663355e+00 5.674956e+00 5.796536e+00 5.825457e+00 5.920078e+00 5.967026e+00 6.032527e+00 6.098161e+00 6.132714e+00 6.217598e+00 6.219749e+00 6.324304e+00 6.293022e+00 6.417477e+00 6.352200e+00 6.496540e+00 6.397219e+00 6.561139e+00 6.428277e+00 6.611145e+00 6.445829e+00 6.646657e+00 6.450570e+00 6.667999e+00 6.443422e+00 6.675722e+00 6.425507e+00 6.670583e+00 6.398107e+00 6.653531e+00 6.362623e+00 6.625667e+00 6.320512e+00 6.588198e+00 6.273226e+00 6.542381e+00 6.222149e+00 6.489462e+00 6.168520e+00 6.430610e+00 6.113382e+00 6.366856e+00 6.057522e+00 6.299042e+00 6.001440e+00 6.227780e+00 5.945324e+00 6.153427e+00 5.889048e+00 6.076087e+00 5.832195e+00 5.995626e+00 5.774096e+00 5.911710e+00 5.713884e+00 5.823865e+00 5.650577e+00 5.731547e+00 5.583159e+00 5.634223e+00 5.510680e+00 5.531462e+00 5.432348e+00 5.423011e+00 5.347623e+00 5.308874e+00 5.256287e+00 5.189362e+00 5.158504e+00 5.065129e+00 5.054851e+00 4.937186e+00 4.946322e+00 4.806885e+00 4.834309e+00 4.675885e+00 4.720550e+00 4.546100e+00 4.607068e+00 4.419630e+00 4.496092e+00 4.298689e+00 4.389964e+00 4.185526e+00 4.291055e+00 4.082350e+00 4.201676e+00 3.991265e+00 4.124003e+00 3.914200e+00 4.060004e+00 3.852865e+00 4.011387e+00 3.808702e+00 3.979553e+00 3.782855e+00 3.965560e+00 
3.748151e+00 3.939477e+00 3.753780e+00 3.955528e+00 3.779512e+00 3.990804e+00 3.825153e+00 4.044864e+00 3.890137e+00 4.116877e+00 3.973540e+00 4.205632e+00 4.074089e+00 4.309573e+00 4.190193e+00 4.426830e+00 4.319971e+00 4.555266e+00 4.461297e+00 4.692531e+00 4.611853e+00 4.836128e+00 4.769188e+00 4.983481e+00 4.930784e+00 5.132012e+00 5.094131e+00 5.279211e+00 5.256786e+00 5.422707e+00 5.416443e+00 5.560325e+00 5.570979e+00 5.690132e+00 5.718489e+00 5.810466e+00 5.857308e+00 5.919954e+00 5.986023e+00 6.017517e+00 6.103461e+00 6.102364e+00 6.208687e+00 6.173981e+00 6.300986e+00 6.232125e+00 6.379858e+00 6.276809e+00 6.445009e+00 6.308295e+00 6.496351e+00 6.327086e+00 6.534007e+00 6.333914e+00 6.558308e+00 6.329725e+00 6.569798e+00 6.315651e+00 6.569221e+00 6.292983e+00 6.557503e+00 6.263119e+00 6.535718e+00 6.227506e+00 6.505044e+00 6.187582e+00 6.466705e+00 6.144698e+00 6.421904e+00 6.100051e+00 6.371761e+00 6.054621e+00 6.317241e+00 6.009108e+00 6.259101e+00 5.963901e+00 6.197848e+00 5.919044e+00 6.133712e+00 5.874244e+00 6.066643e+00 5.828885e+00 5.996332e+00 5.782077e+00 5.922254e+00 5.732717e+00 5.843729e+00 5.679575e+00 5.760005e+00 5.621394e+00 5.670351e+00 5.556995e+00 5.574150e+00 5.485388e+00 5.470997e+00 5.405871e+00 5.360775e+00 5.318114e+00 5.243719e+00 5.222224e+00 5.120456e+00 5.118778e+00 4.992013e+00 5.008825e+00 4.859805e+00 4.893859e+00 4.725592e+00 4.775766e+00 4.591418e+00 4.656746e+00 4.459538e+00 4.539222e+00 4.332334e+00 4.425741e+00 4.212229e+00 4.318879e+00 4.101604e+00 4.221139e+00 4.002722e+00 4.134877e+00 3.917667e+00 4.062223e+00 3.848281e+00 4.005022e+00 3.796126e+00 3.964792e+00 3.762448e+00 3.942687e+00 
3.707127e+00 3.903857e+00 3.719330e+00 3.927240e+00 3.752546e+00 3.970771e+00 3.806555e+00 4.033974e+00 3.880751e+00 4.115963e+00 3.974150e+00 4.215454e+00 4.085403e+00 4.330795e+00 4.212820e+00 4.459996e+00 4.354399e+00 4.600777e+00 4.507875e+00 4.750628e+00 4.670768e+00 4.906875e+00 4.840456e+00 5.066756e+00 5.014245e+00 5.227504e+00 5.189445e+00 5.386425e+00 5.363443e+00 5.540973e+00 5.533776e+00 5.688814e+00 5.698176e+00 5.827870e+00 5.854614e+00 5.956355e+00 6.001316e+00 6.072784e+00 6.136769e+00 6.175982e+00 6.259716e+00 6.265071e+00 6.369140e+00 6.339465e+00 6.464256e+00 6.398858e+00 6.544497e+00 6.443217e+00 6.609517e+00 6.472779e+00 6.659191e+00 6.488050e+00 6.693630e+00 6.489794e+00 6.713188e+00 6.479028e+00 6.718462e+00 6.456995e+00 6.710293e+00 6.425130e+00 6.689742e+00 6.385009e+00 6.658057e+00 6.338288e+00 6.616615e+00 6.286627e+00 6.566864e+00 6.231609e+00 6.510241e+00 6.174660e+00 6.448097e+00 6.116977e+00 6.381617e+00 6.059460e+00 6.311761e+00 6.002667e+00 6.239202e+00 5.946787e+00 6.164309e+00 5.891634e+00 6.087127e+00 5.836667e+00 6.007407e+00 5.781034e+00 5.924645e+00 5.723642e+00 5.838153e+00 5.663241e+00 5.747142e+00 5.598530e+00 5.650829e+00 5.528270e+00 5.548536e+00 5.451404e+00 5.439797e+00 5.367161e+00 5.324445e+00 5.275151e+00 5.202681e+00 5.175435e+00 5.075116e+00 5.068564e+00 4.942784e+00 4.955583e+00 4.807126e+00 4.838004e+00 4.669944e+00 4.717749e+00 4.533338e+00 4.597070e+00 4.399624e+00 4.478452e+00 4.271246e+00 4.364509e+00 4.150686e+00 4.257882e+00 4.040380e+00 4.161138e+00 3.942639e+00 4.076687e+00 3.859583e+00 4.006705e+00 3.793086e+00 3.953075e+00 3.744731e+00 3.917342e+00 3.715775e+00 3.900678e+00 
3.669382e+00 3.863607e+00 3.674035e+00 3.879504e+00 3.700275e+00 3.916226e+00 3.747917e+00 3.973308e+00 3.816369e+00 4.049853e+00 3.904641e+00 4.144545e+00 4.011356e+00 4.255678e+00 4.134779e+00 4.381188e+00 4.272843e+00 4.518708e+00 4.423202e+00 4.665627e+00 4.583287e+00 4.819165e+00 4.750383e+00 4.976458e+00 4.921704e+00 5.134648e+00 5.094485e+00 5.290971e+00 5.266061e+00 5.442842e+00 5.433943e+00 5.587918e+00 5.595874e+00 5.724150e+00 5.749871e+00 5.849814e+00 5.894235e+00 5.963516e+00 6.027555e+00 6.064186e+00 6.148685e+00 6.151065e+00 6.256725e+00 6.223681e+00 6.350995e+00 6.281835e+00 6.431022e+00 6.325587e+00 6.496527e+00 6.355250e+00 6.547434e+00 6.371387e+00 6.583878e+00 6.374806e+00 6.606220e+00 6.366558e+00 6.615053e+00 6.347912e+00 6.611208e+00 6.320325e+00 6.595732e+00 6.285393e+00 6.569860e+00 6.244787e+00 6.534961e+00 6.200179e+00 6.492472e+00 6.153150e+00 6.443815e+00 6.105113e+00 6.390315e+00 6.057222e+00 6.333117e+00 6.010310e+00 6.273110e+00 5.964830e+00 6.210875e+00 5.920827e+00 6.146645e+00 5.877929e+00 6.080302e+00 5.835368e+00 6.011393e+00 5.792031e+00 5.939184e+00 5.746534e+00 5.862735e+00 5.697320e+00 5.781000e+00 5.642781e+00 5.692937e+00 5.581388e+00 5.597635e+00 5.511821e+00 5.494426e+00 5.433101e+00 5.382990e+00 5.344693e+00 5.263431e+00 5.246583e+00 5.136324e+00 5.139324e+00 5.002732e+00 5.024036e+00 4.864181e+00 4.902371e+00 4.722609e+00 4.776446e+00 4.580292e+00 4.648745e+00 4.439750e+00 4.522009e+00 4.303644e+00 4.399117e+00 4.174680e+00 4.282968e+00 4.055510e+00 4.176376e+00 3.948648e+00 4.081970e+00 3.856399e+00 4.002122e+00 3.780800e+00 3.938883e+00 3.723576e+00 3.893935e+00 3.686102e+00 3.868557e+00 
3.616072e+00 3.816158e+00 3.627303e+00 3.839494e+00 3.661233e+00 3.884799e+00 3.717657e+00 3.951579e+00 3.795946e+00 4.038880e+00 3.895051e+00 4.145307e+00 4.013511e+00 4.269040e+00 4.149476e+00 4.407876e+00 4.300737e+00 4.559274e+00 4.464774e+00 4.720424e+00 4.638823e+00 4.888324e+00 4.819953e+00 5.059878e+00 5.005157e+00 5.231994e+00 5.191449e+00 5.401680e+00 5.375956e+00 5.566140e+00 5.556000e+00 5.722845e+00 5.729162e+00 5.869585e+00 5.893319e+00 6.004496e+00 6.046659e+00 6.126070e+00 6.187670e+00 6.233135e+00 6.315121e+00 6.324843e+00 6.428029e+00 6.400644e+00 6.525636e+00 6.460269e+00 6.607390e+00 6.503721e+00 6.672947e+00 6.531281e+00 6.722181e+00 6.543508e+00 6.755202e+00 6.541248e+00 6.772383e+00 6.525630e+00 6.774379e+00 6.498054e+00 6.762128e+00 6.460154e+00 6.736840e+00 6.413748e+00 6.699958e+00 6.360761e+00 6.653098e+00 6.303138e+00 6.597971e+00 6.242745e+00 6.536285e+00 6.181269e+00 6.469648e+00 6.120126e+00 6.399470e+00 6.060376e+00 6.326875e+00 6.002665e+00 6.252637e+00 5.947189e+00 6.177134e+00 5.893680e+00 6.100343e+00 5.841432e+00 6.021852e+00 5.789348e+00 5.940922e+00 5.736016e+00 5.856562e+00 5.679818e+00 5.767644e+00 5.619054e+00 5.673025e+00 5.552085e+00 5.571682e+00 5.477473e+00 5.462844e+00 5.394127e+00 5.346105e+00 5.301413e+00 5.221512e+00 5.199249e+00 5.089615e+00 5.088150e+00 4.951488e+00 4.969235e+00 4.808697e+00 4.844190e+00 4.663250e+00 4.715196e+00 4.517508e+00 4.584826e+00 4.374086e+00 4.455921e+00 4.235746e+00 4.331469e+00 4.105288e+00 4.214477e+00 3.985450e+00 4.107858e+00 3.878823e+00 4.014333e+00 3.787774e+00 3.936348e+00 3.714392e+00 3.876018e+00 3.660441e+00 3.835072e+00 3.627326e+00 3.814826e+00 
3.567965e+00 3.765550e+00 3.571311e+00 3.781218e+00 3.598164e+00 3.819783e+00 3.648350e+00 3.880755e+00 3.721249e+00 3.963159e+00 3.815796e+00 4.065547e+00 3.930487e+00 4.186022e+00 4.063401e+00 4.322275e+00 4.212234e+00 4.471637e+00 4.374347e+00 4.631149e+00 4.546840e+00 4.797653e+00 4.726639e+00 4.967896e+00 4.910594e+00 5.138641e+00 5.095595e+00 5.306783e+00 5.278674e+00 5.469449e+00 5.457100e+00 5.624081e+00 5.628449e+00 5.768491e+00 5.790645e+00 5.900885e+00 5.941964e+00 6.019860e+00 6.081021e+00 6.124382e+00 6.206725e+00 6.213746e+00 6.318241e+00 6.287544e+00 6.414945e+00 6.345639e+00 6.496396e+00 6.388143e+00 6.562332e+00 6.415423e+00 6.612674e+00 6.428103e+00 6.647558e+00 6.427077e+00 6.667358e+00 6.413515e+00 6.672720e+00 6.388852e+00 6.664570e+00 6.354760e+00 6.644111e+00 6.313097e+00 6.612788e+00 6.265832e+00 6.572230e+00 6.214953e+00 6.524163e+00 6.162363e+00 6.470315e+00 6.109766e+00 6.412300e+00 6.058567e+00 6.351516e+00 6.009783e+00 6.289043e+00 5.963966e+00 6.225570e+00 5.921166e+00 6.161344e+00 5.880915e+00 6.096156e+00 5.842245e+00 6.029364e+00 5.803748e+00 5.959951e+00 5.763659e+00 5.886617e+00 5.719976e+00 5.807907e+00 5.670610e+00 5.722351e+00 5.613547e+00 5.628627e+00 5.547016e+00 5.525702e+00 5.469652e+00 5.412973e+00 5.380633e+00 5.290363e+00 5.279782e+00 5.158383e+00 5.167621e+00 5.018146e+00 5.045373e+00 4.871337e+00 4.914911e+00 4.720146e+00 4.778675e+00 4.567164e+00 4.639540e+00 4.415274e+00 4.500680e+00 4.267515e+00 4.365419e+00 4.126970e+00 4.237090e+00 3.996647e+00 4.118908e+00 3.879385e+00 4.013862e+00 3.777773e+00 3.924633e+00 3.694094e+00 3.853527e+00 3.630275e+00 3.802431e+00 3.587855e+00 3.772783e+00 
3.501151e+00 3.705013e+00 3.511080e+00 3.728232e+00 3.545842e+00 3.775735e+00 3.605256e+00 3.847010e+00 3.688674e+00 3.941028e+00 3.794973e+00 4.056256e+00 3.922561e+00 4.190675e+00 4.069389e+00 4.341809e+00 4.232986e+00 4.506783e+00 4.410506e+00 4.682393e+00 4.598808e+00 4.865209e+00 4.794549e+00 5.051687e+00 4.994305e+00 5.238300e+00 5.194691e+00 5.421663e+00 5.392484e+00 5.598651e+00 5.584731e+00 5.766489e+00 5.768822e+00 5.922808e+00 5.942532e+00 6.065671e+00 6.104025e+00 6.193556e+00 6.251821e+00 6.305329e+00 6.384748e+00 6.400197e+00 6.501888e+00 6.477665e+00 6.602529e+00 6.537512e+00 6.686141e+00 6.579782e+00 6.752370e+00 6.604789e+00 6.801063e+00 6.613141e+00 6.832308e+00 6.605762e+00 6.846478e+00 6.583911e+00 6.844275e+00 6.549174e+00 6.826748e+00 6.503437e+00 6.795291e+00 6.448830e+00 6.751602e+00 6.387636e+00 6.697616e+00 6.322183e+00 6.635399e+00 6.254720e+00 6.567032e+00 6.187291e+00 6.494478e+00 6.121609e+00 6.419457e+00 6.058958e+00 6.343329e+00 6.000111e+00 6.267006e+00 5.945278e+00 6.190895e+00 5.894096e+00 6.114879e+00 5.845644e+00 6.038338e+00 5.798499e+00 5.960210e+00 5.750830e+00 5.879100e+00 5.700526e+00 5.793411e+00 5.645347e+00 5.701507e+00 5.583107e+00 5.601893e+00 5.511855e+00 5.493377e+00 5.430055e+00 5.375225e+00 5.336745e+00 5.247276e+00 5.231645e+00 5.110004e+00 5.115226e+00 4.964539e+00 4.988713e+00 4.812630e+00 4.854038e+00 4.656565e+00 4.713735e+00 4.499065e+00 4.570813e+00 4.343148e+00 4.428596e+00 4.191998e+00 4.290567e+00 4.048829e+00 4.160212e+00 3.916773e+00 4.040889e+00 3.798772e+00 3.935712e+00 3.697505e+00 3.847470e+00 3.615327e+00 3.778557e+00 3.554221e+00 3.730930e+00 3.515774e+00 3.706081e+00 
3.441810e+00 3.643027e+00 3.443458e+00 3.658358e+00 3.471002e+00 3.699181e+00 3.524294e+00 3.764979e+00 3.602689e+00 3.854692e+00 3.705039e+00 3.966718e+00 3.829694e+00 4.098934e+00 3.974511e+00 4.248723e+00 4.136888e+00 4.413036e+00 4.313817e+00 4.588467e+00 4.501966e+00 4.771363e+00 4.697785e+00 4.957957e+00 4.897644e+00 5.144511e+00 5.097969e+00 5.327469e+00 5.295391e+00 5.503584e+00 5.486866e+00 5.670028e+00 5.669764e+00 5.824450e+00 5.841910e+00 5.964997e+00 6.001583e+00 6.090288e+00 6.147466e+00 6.199362e+00 6.278578e+00 6.291615e+00 6.394192e+00 6.366734e+00 6.493769e+00 6.424658e+00 6.576915e+00 6.465559e+00 6.643371e+00 6.489846e+00 6.693033e+00 6.498195e+00 6.726003e+00 6.491578e+00 6.742642e+00 6.471290e+00 6.743627e+00 6.438959e+00 6.729990e+00 6.396522e+00 6.703118e+00 6.346170e+00 6.664725e+00 6.290263e+00 6.616781e+00 6.231213e+00 6.561406e+00 6.171346e+00 6.500739e+00 6.112769e+00 6.436797e+00 6.057229e+00 6.371324e+00 6.005994e+00 6.305671e+00 5.959764e+00 6.240685e+00 5.918608e+00 6.176642e+00 5.881942e+00 6.113226e+00 5.848548e+00 6.049545e+00 5.816633e+00 5.984205e+00 5.783932e+00 5.915425e+00 5.747856e+00 5.841197e+00 5.705672e+00 5.759469e+00 5.654709e+00 5.668355e+00 5.592585e+00 5.566328e+00 5.517411e+00 5.452399e+00 5.427977e+00 5.326249e+00 5.323887e+00 5.188305e+00 5.205625e+00 5.039759e+00 5.074560e+00 4.882520e+00 4.932875e+00 4.719119e+00 4.783447e+00 4.552582e+00 4.629683e+00 4.386271e+00 4.475332e+00 4.223725e+00 4.324304e+00 4.068513e+00 4.180489e+00 3.924096e+00 4.047614e+00 3.793718e+00 3.929115e+00 3.680322e+00 3.828049e+00 3.586483e+00 3.747033e+00 3.514371e+00 3.688196e+00 3.465720e+00 3.653161e+00 
3.360039e+00 3.567872e+00 3.368258e+00 3.590861e+00 3.403931e+00 3.640994e+00 3.466919e+00 3.717744e+00 3.556563e+00 3.820008e+00 3.671669e+00 3.946101e+00 3.810496e+00 4.093764e+00 3.970765e+00 4.260196e+00 4.149681e+00 4.442099e+00 4.343990e+00 4.635773e+00 4.550062e+00 4.837226e+00 4.764018e+00 5.042330e+00 4.981877e+00 5.246983e+00 5.199725e+00 5.447283e+00 5.413879e+00 5.639682e+00 5.621029e+00 5.821098e+00 5.818338e+00 5.988988e+00 6.003481e+00 6.141353e+00 6.174629e+00 6.276702e+00 6.330392e+00 6.393986e+00 6.469720e+00 6.492512e+00 6.591810e+00 6.571876e+00 6.696028e+00 6.631917e+00 6.781867e+00 6.672708e+00 6.848941e+00 6.694578e+00 6.897033e+00 6.698158e+00 6.926157e+00 6.684434e+00 6.936646e+00 6.654793e+00 6.929222e+00 6.611033e+00 6.905050e+00 6.555352e+00 6.865743e+00 6.490275e+00 6.813326e+00 6.418553e+00 6.750149e+00 6.343020e+00 6.678756e+00 6.266437e+00 6.601732e+00 6.191322e+00 6.521524e+00 6.119796e+00 6.440275e+00 6.053445e+00 6.359672e+00 5.993218e+00 6.280826e+00 5.939363e+00 6.204193e+00 5.891398e+00 6.129543e+00 5.848133e+00 6.055982e+00 5.807731e+00 5.982029e+00 5.767816e+00 5.905744e+00 5.725625e+00 5.824901e+00 5.678206e+00 5.737201e+00 5.622640e+00 5.640502e+00 5.556282e+00 5.533045e+00 5.477001e+00 5.413654e+00 5.383385e+00 5.281888e+00 5.274895e+00 5.138128e+00 5.151947e+00 4.983593e+00 5.015920e+00 4.820286e+00 4.869082e+00 4.650884e+00 4.714453e+00 4.478589e+00 4.555629e+00 4.306958e+00 4.396571e+00 4.139723e+00 4.241406e+00 3.980631e+00 4.094236e+00 3.833305e+00 3.958973e+00 3.701123e+00 3.839221e+00 3.587139e+00 3.738173e+00 3.494021e+00 3.658558e+00 3.424013e+00 3.602598e+00 3.378909e+00 3.571985e+00 
3.288298e+00 3.493163e+00 3.287772e+00 3.508008e+00 3.316047e+00 3.551514e+00 3.373016e+00 3.623147e+00 3.458024e+00 3.721760e+00 3.569843e+00 3.845586e+00 3.706663e+00 3.992238e+00 3.866088e+00 4.158737e+00 4.045158e+00 4.341562e+00 4.240404e+00 4.536741e+00 4.447940e+00 4.739985e+00 4.663600e+00 4.946851e+00 4.883112e+00 5.152943e+00 5.102289e+00 5.354108e+00 5.317232e+00 5.546621e+00 5.524490e+00 5.727317e+00 5.721186e+00 5.893670e+00 5.905058e+00 6.043794e+00 6.074435e+00 6.176389e+00 6.228150e+00 6.290642e+00 6.365413e+00 6.386112e+00 6.485681e+00 6.462631e+00 6.588547e+00 6.520237e+00 6.673674e+00 6.559152e+00 6.740784e+00 6.579806e+00 6.789702e+00 6.582889e+00 6.820433e+00 6.569422e+00 6.833269e+00 6.540818e+00 6.828884e+00 6.498915e+00 6.808401e+00 6.445966e+00 6.773423e+00 6.384584e+00 6.726004e+00 6.317632e+00 6.668558e+00 6.248080e+00 6.603729e+00 6.178822e+00 6.534215e+00 6.112501e+00 6.462576e+00 6.051324e+00 6.391038e+00 5.996908e+00 6.321326e+00 5.950162e+00 6.254514e+00 5.911198e+00 6.190938e+00 5.879301e+00 6.130149e+00 5.852942e+00 6.070940e+00 5.829842e+00 6.011424e+00 5.807092e+00 5.949182e+00 5.781334e+00 5.881465e+00 5.748981e+00 5.805437e+00 5.706492e+00 5.718449e+00 5.650657e+00 5.618305e+00 5.578883e+00 5.503498e+00 5.489437e+00 5.373388e+00 5.381631e+00 5.228301e+00 5.255910e+00 5.069545e+00 5.113850e+00 4.899346e+00 4.958063e+00 4.720705e+00 4.792023e+00 4.537228e+00 4.619846e+00 4.352912e+00 4.446042e+00 4.171945e+00 4.275275e+00 3.998515e+00 4.112148e+00 3.836646e+00 3.961018e+00 3.690078e+00 3.825864e+00 3.562167e+00 3.710188e+00 3.455835e+00 3.616962e+00 3.373527e+00 3.548594e+00 3.317197e+00 3.506912e+00 
3.189853e+00 3.401567e+00 3.195852e+00 3.424150e+00 3.232456e+00 3.477337e+00 3.299595e+00 3.560604e+00 3.396619e+00 3.672781e+00 3.522275e+00 3.812023e+00 3.674674e+00 3.975811e+00 3.851277e+00 4.160954e+00 4.048907e+00 4.363645e+00 4.263803e+00 4.579554e+00 4.491716e+00 4.803970e+00 4.728063e+00 5.031996e+00 4.968129e+00 5.258774e+00 5.207295e+00 5.479722e+00 5.441267e+00 5.690746e+00 5.666280e+00 5.888394e+00 5.879225e+00 6.069934e+00 6.077694e+00 6.233350e+00 6.259941e+00 6.377259e+00 6.424759e+00 6.500781e+00 6.571322e+00 6.603402e+00 6.699028e+00 6.684855e+00 6.807367e+00 6.745054e+00 6.895855e+00 6.784078e+00 6.964039e+00 6.802225e+00 7.011561e+00 6.800093e+00 7.038280e+00 6.778686e+00 7.044410e+00 6.739497e+00 7.030643e+00 6.684559e+00 6.998247e+00 6.616438e+00 6.949091e+00 6.538162e+00 6.885612e+00 6.453086e+00 6.810703e+00 6.364712e+00 6.727547e+00 6.276479e+00 6.639402e+00 6.191538e+00 6.549371e+00 6.112552e+00 6.460176e+00 6.041517e+00 6.373952e+00 5.979627e+00 6.292089e+00 5.927190e+00 6.215123e+00 5.883593e+00 6.142692e+00 5.847314e+00 6.073555e+00 5.815994e+00 6.005683e+00 5.786561e+00 5.936416e+00 5.755409e+00 5.862691e+00 5.718645e+00 5.781315e+00 5.672376e+00 5.689273e+00 5.613030e+00 5.584038e+00 5.537672e+00 5.463842e+00 5.444287e+00 5.327878e+00 5.331990e+00 5.176413e+00 5.201137e+00 5.010805e+00 5.053326e+00 4.833417e+00 4.891294e+00 4.647460e+00 4.718723e+00 4.456787e+00 4.539992e+00 4.265659e+00 4.359905e+00 4.078519e+00 4.183419e+00 3.899787e+00 4.015410e+00 3.733691e+00 3.860477e+00 3.584133e+00 3.722802e+00 3.454606e+00 3.606056e+00 3.348135e+00 3.513343e+00 3.267254e+00 3.447180e+00 3.213988e+00 3.409482e+00 