# vtk DataFile Version 2.0
Comment goes here
ASCII

DATASET STRUCTURED_POINTS
FIELD FieldData 1
TIME 1 1 double
0.22000000
DIMENSIONS    128   128   1

ORIGIN    0.000   0.000   0.000
SPACING   0.039062 0.039062   1.000

POINT_DATA   16384
SCALARS P double
LOOKUP_TABLE default

3.072692e+00 3.151326e+00 3.344191e+00 3.398247e+00 3.594773e+00 3.624464e+00 3.822999e+00 3.828782e+00 4.027670e+00 4.010222e+00 4.207801e+00 4.167993e+00 4.362588e+00 4.301467e+00 4.491378e+00 4.410136e+00 4.593639e+00 4.493588e+00 4.668930e+00 4.551473e+00 4.716874e+00 4.583478e+00 4.737140e+00 4.589311e+00 4.729433e+00 4.568690e+00 4.693498e+00 4.521352e+00 4.629124e+00 4.447068e+00 4.536179e+00 4.345671e+00 4.414639e+00 4.217100e+00 4.264636e+00 4.061451e+00 4.086507e+00 3.879032e+00 3.880850e+00 3.670418e+00 3.648568e+00 3.436511e+00 3.390920e+00 3.178584e+00 3.109550e+00 2.898313e+00 2.806507e+00 2.597802e+00 2.484251e+00 2.279586e+00 2.145644e+00 1.946613e+00 1.793917e+00 1.602217e+00 1.432636e+00 1.250065e+00 1.065641e+00 8.940996e-01 6.969873e-01 5.384622e-01 3.308735e-01 1.874149e-01 -2.843435e-02 -1.547449e-01 -3.766771e-01 -4.837700e-01 -7.096772e-01 -7.955459e-01 -1.023409e+00 -1.086169e+00 -1.314066e+00 -1.352015e+00 -1.578119e+00 -1.589802e+00 -1.812367e+00 -1.796642e+00 -2.013985e+00 -1.970075e+00 -2.180563e+00 -2.108105e+00 -2.310130e+00 -2.209212e+00 -2.401184e+00 -2.272366e+00 -2.452705e+00 -2.297026e+00 -2.464169e+00 -2.283133e+00 -2.435550e+00 -2.231105e+00 -2.367326e+00 -2.141817e+00 -2.260470e+00 -2.016593e+00 -2.116439e+00 -1.857175e+00 -1.937157e+00 -1.665709e+00 -1.724987e+00 -1.444708e+00 -1.482691e+00 -1.197017e+00 -1.213391e+00 -9.257709e-01 -9.205063e-01 -6.343425e-01 -6.076946e-01 -3.262827e-01 -2.787800e-01 -5.258527e-03 6.231941e-02 3.250133e-01 4.116651e-01 6.608324e-01 7.653685e-01 9.985769e-01 1.119655e+00 1.334761e+00 1.470922e+00 1.666084e+00 1.815783e+00 1.989468e+00 2.151101e+00 2.302092e+00 2.474021e+00 2.601406e+00 2.781975e+00 2.885145e+00 
3.004293e+00 3.088213e+00 3.276099e+00 3.335281e+00 3.526665e+00 3.561289e+00 3.754534e+00 3.765025e+00 3.958491e+00 3.945499e+00 4.137542e+00 4.101917e+00 4.290879e+00 4.233645e+00 4.417850e+00 4.340182e+00 4.517931e+00 4.421125e+00 4.590695e+00 4.476138e+00 4.635784e+00 4.504931e+00 4.652896e+00 4.507242e+00 4.641770e+00 4.482828e+00 4.602189e+00 4.431468e+00 4.533991e+00 4.352986e+00 4.437096e+00 4.247273e+00 4.311538e+00 4.114332e+00 4.157509e+00 3.954328e+00 3.975413e+00 3.767638e+00 3.765910e+00 3.554910e+00 3.529970e+00 3.317116e+00 3.268913e+00 3.055593e+00 2.984440e+00 2.772079e+00 2.678653e+00 2.468730e+00 2.354054e+00 2.148122e+00 2.013538e+00 1.813234e+00 1.660361e+00 1.467416e+00 1.298098e+00 1.114342e+00 9.305906e-01 7.579439e-01 5.618826e-01 4.023446e-01 1.961498e-01 5.177435e-02 -1.623725e-01 -2.895096e-01 -5.094638e-01 -6.173060e-01 -8.409904e-01 -9.275503e-01 -1.152974e+00 -1.216389e+00 -1.441656e+00 -1.480247e+00 -1.703552e+00 -1.715888e+00 -1.935509e+00 -1.920459e+00 -2.134740e+00 -2.091536e+00 -2.298869e+00 -2.227144e+00 -2.425955e+00 -2.325782e+00 -2.514518e+00 -2.386429e+00 -2.563557e+00 -2.408549e+00 -2.572559e+00 -2.392087e+00 -2.541509e+00 -2.337457e+00 -2.470887e+00 -2.245537e+00 -2.361669e+00 -2.117649e+00 -2.215311e+00 -1.955539e+00 -2.033734e+00 -1.761356e+00 -1.819299e+00 -1.537623e+00 -1.574765e+00 -1.287196e+00 -1.303253e+00 -1.013225e+00 -1.008184e+00 -7.190995e-01 -6.932173e-01 -4.083906e-01 -3.621854e-01 -8.478707e-02 -1.901666e-02 2.479709e-01 3.323355e-01 5.861580e-01 6.879636e-01 9.261269e-01 1.044071e+00 1.264365e+00 1.397028e+00 1.597545e+00 1.743421e+00 1.922563e+00 2.080085e+00 2.236571e+00 2.404133e+00 2.536994e+00 2.712969e+00 2.821543e+00 
3.081757e+00 3.160390e+00 3.354060e+00 3.407992e+00 3.605332e+00 3.634790e+00 3.834149e+00 3.839599e+00 4.039325e+00 4.021455e+00 4.219891e+00 4.179585e+00 4.375055e+00 4.313371e+00 4.504179e+00 4.422320e+00 4.606739e+00 4.506029e+00 4.682302e+00 4.564154e+00 4.730492e+00 4.596384e+00 4.750980e+00 4.602425e+00 4.743464e+00 4.581990e+00 4.707678e+00 4.534804e+00 4.643398e+00 4.460620e+00 4.550474e+00 4.359254e+00 4.428861e+00 4.230621e+00 4.278668e+00 4.074793e+00 4.100211e+00 3.892051e+00 3.894065e+00 3.682951e+00 3.661119e+00 3.448373e+00 3.402616e+00 3.189575e+00 3.120193e+00 2.908227e+00 2.815898e+00 2.606433e+00 2.492199e+00 2.286732e+00 2.151969e+00 1.952090e+00 1.798461e+00 1.605863e+00 1.435264e+00 1.251748e+00 1.066251e+00 8.937228e-01 6.955109e-01 5.359672e-01 3.272772e-01 1.827848e-01 -3.414688e-02 -1.614856e-01 -3.844658e-01 -4.925558e-01 -7.194672e-01 -8.062731e-01 -1.035093e+00 -1.098699e+00 -1.327507e+00 -1.366178e+00 -1.593153e+00 -1.605405e+00 -1.828808e+00 -1.813470e+00 -2.031630e+00 -1.987899e+00 -2.199190e+00 -2.126685e+00 -2.329507e+00 -2.228306e+00 -2.421069e+00 -2.291730e+00 -2.472850e+00 -2.316416e+00 -2.484322e+00 -2.302310e+00 -2.455460e+00 -2.249837e+00 -2.386742e+00 -2.159881e+00 -2.279147e+00 -2.033773e+00 -2.134143e+00 -1.873270e+00 -1.953666e+00 -1.680532e+00 -1.740097e+00 -1.458091e+00 -1.496225e+00 -1.208817e+00 -1.225200e+00 -9.358717e-01 -9.304758e-01 -6.426598e-01 -6.157475e-01 -3.327661e-01 -2.848782e-01 -9.892805e-03 5.817557e-02 3.222087e-01 4.094387e-01 6.598055e-01 7.649899e-01 9.992477e-01 1.121027e+00 1.337026e+00 1.473926e+00 1.669821e+00 1.820284e+00 1.994545e+00 2.156959e+00 2.308370e+00 2.481089e+00 2.608745e+00 2.790110e+00 2.893410e+00 
3.022717e+00 3.106675e+00 3.296155e+00 3.355126e+00 3.548120e+00 3.582307e+00 3.777183e+00 3.787035e+00 3.982161e+00 3.968350e+00 4.162086e+00 4.125485e+00 4.316178e+00 4.257837e+00 4.443809e+00 4.364925e+00 4.544475e+00 4.446365e+00 4.617761e+00 4.501835e+00 4.663318e+00 4.531049e+00 4.680839e+00 4.533741e+00 4.670053e+00 4.509653e+00 4.630725e+00 4.458545e+00 4.562663e+00 4.380206e+00 4.465752e+00 4.274491e+00 4.339986e+00 4.141358e+00 4.185514e+00 3.980924e+00 4.002696e+00 3.793519e+00 3.792153e+00 3.579748e+00 3.554821e+00 3.340545e+00 3.291996e+00 3.077222e+00 3.005366e+00 2.791502e+00 2.697032e+00 2.485543e+00 2.369512e+00 2.161935e+00 2.025728e+00 1.823691e+00 1.668976e+00 1.474207e+00 1.302884e+00 1.117216e+00 9.313525e-01 7.567190e-01 5.584931e-01 3.969150e-01 1.885520e-01 4.211459e-02 -1.741639e-01 -3.033439e-01 -5.253633e-01 -6.351806e-01 -8.608452e-01 -9.492569e-01 -1.176568e+00 -1.241652e+00 -1.468717e+00 -1.508733e+00 -1.733756e+00 -1.747214e+00 -1.968488e+00 -1.954204e+00 -2.170090e+00 -2.127248e+00 -2.336154e+00 -2.264353e+00 -2.464716e+00 -2.364008e+00 -2.554278e+00 -2.425188e+00 -2.603825e+00 -2.447359e+00 -2.612837e+00 -2.430472e+00 -2.581295e+00 -2.374954e+00 -2.509685e+00 -2.281696e+00 -2.398990e+00 -2.152038e+00 -2.250686e+00 -1.987752e+00 -2.066721e+00 -1.791017e+00 -1.849492e+00 -1.564394e+00 -1.601807e+00 -1.310786e+00 -1.326845e+00 -1.033400e+00 -1.028094e+00 -7.356879e-01 -7.092879e-01 -4.212896e-01 -3.743360e-01 -9.396480e-02 -2.724408e-02 2.424768e-01 3.279614e-01 5.842450e-01 6.873072e-01 9.276351e-01 1.046941e+00 1.269088e+00 1.403190e+00 1.605239e+00 1.752608e+00 1.932962e+00 2.092013e+00 2.249396e+00 2.418510e+00 2.551965e+00 2.729507e+00 2.838388e+00 
3.109059e+00 3.187677e+00 3.383761e+00 3.437313e+00 3.637089e+00 3.665834e+00 3.867661e+00 3.872099e+00 4.074338e+00 4.055192e+00 4.256193e+00 4.214382e+00 4.412480e+00 4.349095e+00 4.542594e+00 4.458875e+00 4.646045e+00 4.543347e+00 4.722419e+00 4.602188e+00 4.771352e+00 4.635096e+00 4.792510e+00 4.641770e+00 4.785576e+00 4.621905e+00 4.750254e+00 4.575190e+00 4.686276e+00 4.501330e+00 4.593435e+00 4.400080e+00 4.471626e+00 4.271286e+00 4.320887e+00 4.114944e+00 4.141467e+00 3.931261e+00 3.933877e+00 3.720721e+00 3.698950e+00 3.484145e+00 3.437890e+00 3.222747e+00 3.152310e+00 2.938170e+00 2.844256e+00 2.632516e+00 2.516213e+00 2.308348e+00 2.171097e+00 1.968677e+00 1.812219e+00 1.616929e+00 1.443248e+00 1.256891e+00 1.068149e+00 8.926479e-01 6.911127e-01 5.284978e-01 3.164834e-01 1.688690e-01 -5.132479e-02 -1.817729e-01 -4.079064e-01 -5.190163e-01 -7.489437e-01 -8.385921e-01 -1.070280e+00 -1.136456e+00 -1.367991e+00 -1.408862e+00 -1.638440e+00 -1.652427e+00 -1.878337e+00 -1.864181e+00 -2.084782e+00 -2.041607e+00 -2.255301e+00 -2.182671e+00 -2.387877e+00 -2.285835e+00 -2.480970e+00 -2.350064e+00 -2.533536e+00 -2.374824e+00 -2.545036e+00 -2.360076e+00 -2.515442e+00 -2.306262e+00 -2.445239e+00 -2.214290e+00 -2.335420e+00 -2.085520e+00 -2.187480e+00 -1.921745e+00 -2.003398e+00 -1.725172e+00 -1.785611e+00 -1.498390e+00 -1.536981e+00 -1.244339e+00 -1.260748e+00 -9.662665e-01 -9.604694e-01 -6.676705e-01 -6.399535e-01 -3.522405e-01 -3.031820e-01 -2.378623e-02 4.577048e-02 3.138355e-01 4.028177e-01 6.567934e-01 7.639388e-01 1.001351e+00 1.125249e+00 1.343928e+00 1.483057e+00 1.681151e+00 1.833918e+00 2.009899e+00 2.174660e+00 2.327325e+00 2.502417e+00 2.630879e+00 2.814631e+00 2.918312e+00 
3.059784e+00 3.143796e+00 3.336456e+00 3.394983e+00 3.591191e+00 3.624480e+00 3.822614e+00 3.831161e+00 4.029602e+00 4.014128e+00 4.211247e+00 4.172672e+00 4.366824e+00 4.306245e+00 4.495756e+00 4.414417e+00 4.597579e+00 4.496841e+00 4.671905e+00 4.553221e+00 4.718399e+00 4.583282e+00 4.736752e+00 4.586750e+00 4.726670e+00 4.563341e+00 4.687876e+00 4.512769e+00 4.620123e+00 4.434759e+00 4.523223e+00 4.329086e+00 4.397086e+00 4.195617e+00 4.241772e+00 4.034370e+00 4.057551e+00 3.845580e+00 3.844963e+00 3.629761e+00 3.604873e+00 3.387770e+00 3.338527e+00 3.120863e+00 3.047584e+00 2.830733e+00 2.734147e+00 2.519539e+00 2.400760e+00 2.189904e+00 2.050402e+00 1.844904e+00 1.686451e+00 1.488031e+00 1.312641e+00 1.123139e+00 9.329978e-01 7.543696e-01 5.517670e-01 3.860780e-01 1.733394e-01 2.273826e-02 -1.978325e-01 -3.311465e-01 -5.573144e-01 -6.711366e-01 -9.007688e-01 -9.929433e-01 -1.224028e+00 -1.292510e+00 -1.523159e+00 -1.566086e+00 -1.794529e+00 -1.810285e+00 -2.034848e+00 -2.022141e+00 -2.241222e+00 -2.199140e+00 -2.411182e+00 -2.339252e+00 -2.542716e+00 -2.440946e+00 -2.634289e+00 -2.503190e+00 -2.684861e+00 -2.525456e+00 -2.693896e+00 -2.507711e+00 -2.661370e+00 -2.450403e+00 -2.587774e+00 -2.354452e+00 -2.474110e+00 -2.221233e+00 -2.321889e+00 -2.052566e+00 -2.133111e+00 -1.850689e+00 -1.910248e+00 -1.618239e+00 -1.656204e+00 -1.358216e+00 -1.374276e+00 -1.073937e+00 -1.068088e+00 -7.689845e-01 -7.415274e-01 -4.471383e-01 -3.986601e-01 -1.123030e-01 -4.365029e-02 2.315691e-01 3.193258e-01 5.805548e-01 6.861609e-01 9.308328e-01 1.052889e+00 1.278748e+00 1.415750e+00 1.620864e+00 1.771235e+00 1.954007e+00 2.116126e+00 2.275293e+00 2.447516e+00 2.582144e+00 2.762822e+00 2.872297e+00 
3.154921e+00 3.233478e+00 3.433576e+00 3.486457e+00 3.690280e+00 3.717797e+00 3.923725e+00 3.926438e+00 4.132851e+00 4.111539e+00 4.316808e+00 4.272449e+00 4.474921e+00 4.408665e+00 4.606654e+00 4.519796e+00 4.711567e+00 4.605520e+00 4.789283e+00 4.665548e+00 4.839459e+00 4.699593e+00 4.861755e+00 4.707348e+00 4.855829e+00 4.688474e+00 4.821330e+00 4.642601e+00 4.757919e+00 4.569352e+00 4.665293e+00 4.468376e+00 4.543234e+00 4.339399e+00 4.391665e+00 4.182287e+00 4.210713e+00 3.997115e+00 4.000779e+00 3.784245e+00 3.762599e+00 3.544393e+00 3.497306e+00 3.278691e+00 3.206471e+00 2.988740e+00 2.892135e+00 2.676634e+00 2.556813e+00 2.344972e+00 2.203489e+00 1.996846e+00 1.835580e+00 1.635800e+00 1.456886e+00 1.265778e+00 1.071533e+00 8.910441e-01 6.838867e-01 5.161012e-01 2.984776e-01 1.455910e-01 -8.009020e-02 -2.158048e-01 -4.472245e-01 -5.634641e-01 -7.984290e-01 -8.929200e-01 -1.129382e+00 -1.199949e+00 -1.436007e+00 -1.480651e+00 -1.714537e+00 -1.731513e+00 -1.961567e+00 -1.949465e+00 -2.174104e+00 -2.131919e+00 -2.349597e+00 -2.276796e+00 -2.485968e+00 -2.382535e+00 -2.581635e+00 -2.448101e+00 -2.635524e+00 -2.472974e+00 -2.647076e+00 -2.457136e+00 -2.616259e+00 -2.401063e+00 -2.543565e+00 -2.305701e+00 -2.430011e+00 -2.172456e+00 -2.277136e+00 -2.003181e+00 -2.086984e+00 -1.800155e+00 -1.862087e+00 -1.566061e+00 -1.605431e+00 -1.303959e+00 -1.320405e+00 -1.017235e+00 -1.010746e+00 -7.095530e-01 -6.804545e-01 -3.847794e-01 -3.337179e-01 -4.690903e-02 2.518641e-02 3.000193e-01 3.919810e-01 6.520051e-01 7.624748e-01 1.005164e+00 1.132641e+00 1.355794e+00 1.498679e+00 1.700434e+00 1.857068e+00 2.035903e+00 2.204597e+00 2.359329e+00 2.538387e+00 2.668163e+00 2.855897e+00 2.960181e+00 
3.115929e+00 3.199968e+00 3.397387e+00 3.455190e+00 3.656201e+00 3.688083e+00 3.891086e+00 3.897616e+00 4.101012e+00 4.082982e+00 4.285164e+00 4.243569e+00 4.442906e+00 4.378913e+00 4.573739e+00 4.488662e+00 4.677263e+00 4.572532e+00 4.753136e+00 4.630268e+00 4.801044e+00 4.661613e+00 4.820675e+00 4.666283e+00 4.811703e+00 4.643954e+00 4.773788e+00 4.594270e+00 4.706595e+00 4.516857e+00 4.609819e+00 4.411365e+00 4.483241e+00 4.277517e+00 4.326779e+00 4.115178e+00 4.140562e+00 3.924427e+00 3.924997e+00 3.705635e+00 3.680839e+00 3.459536e+00 3.409249e+00 3.187295e+00 3.111844e+00 2.890556e+00 2.790722e+00 2.571475e+00 2.448471e+00 2.232725e+00 2.088155e+00 1.877480e+00 1.713282e+00 1.509381e+00 1.327749e+00 1.132466e+00 9.357726e-01 7.511007e-01 5.418114e-01 3.698793e-01 1.504773e-01 -6.470099e-03 -2.335528e-01 -3.731901e-01 -6.056254e-01 -7.255943e-01 -9.611942e-01 -1.059164e+00 -1.295898e+00 -1.369635e+00 -1.605632e+00 -1.653075e+00 -1.886606e+00 -1.905950e+00 -2.135401e+00 -2.125177e+00 -2.349011e+00 -2.308157e+00 -2.524876e+00 -2.452808e+00 -2.660915e+00 -2.557569e+00 -2.755540e+00 -2.621405e+00 -2.807672e+00 -2.643801e+00 -2.816751e+00 -2.624745e+00 -2.782745e+00 -2.564720e+00 -2.706150e+00 -2.464686e+00 -2.587994e+00 -2.326072e+00 -2.429835e+00 -2.150761e+00 -2.233749e+00 -1.941079e+00 -2.002318e+00 -1.699775e+00 -1.738592e+00 -1.429991e+00 -1.446047e+00 -1.135216e+00 -1.128521e+00 -8.192329e-01 -7.901337e-01 -4.860383e-01 -4.352008e-01 -1.397640e-01 -6.813244e-02 2.154146e-01 3.066619e-01 5.753671e-01 6.848668e-01 9.360912e-01 1.062343e+00 1.293784e+00 1.435194e+00 1.644902e+00 1.799819e+00 1.986199e+00 2.152949e+00 2.314761e+00 2.491662e+00 2.628009e+00 2.813394e+00 2.923712e+00 
3.219886e+00 3.298282e+00 3.503975e+00 3.555836e+00 3.765295e+00 3.791013e+00 4.002649e+00 4.002864e+00 4.215091e+00 4.190665e+00 4.401885e+00 4.353878e+00 4.562465e+00 4.492109e+00 4.696390e+00 4.605061e+00 4.803299e+00 4.692491e+00 4.882874e+00 4.754164e+00 4.934798e+00 4.789818e+00 4.958733e+00 4.799139e+00 4.954296e+00 4.781740e+00 4.921062e+00 4.737168e+00 4.858583e+00 4.664926e+00 4.766415e+00 4.564508e+00 4.644178e+00 4.435462e+00 4.491618e+00 4.277459e+00 4.308684e+00 4.090380e+00 4.095607e+00 3.874401e+00 3.852979e+00 3.630078e+00 3.581824e+00 3.358423e+00 3.283650e+00 3.060963e+00 2.960483e+00 2.739781e+00 2.614885e+00 2.397528e+00 2.249936e+00 2.037408e+00 1.869205e+00 1.663141e+00 1.476690e+00 1.278894e+00 1.076744e+00 8.892009e-01 6.739921e-01 4.988584e-01 2.732343e-01 1.128200e-01 -1.206511e-01 -2.639189e-01 -5.028030e-01 -6.264314e-01 -8.684696e-01 -9.699656e-01 -1.213092e+00 -1.290041e+00 -1.532382e+00 -1.582536e+00 -1.822383e+00 -1.843754e+00 -2.079535e+00 -2.070486e+00 -2.300709e+00 -2.260045e+00 -2.483250e+00 -2.410293e+00 -2.625001e+00 -2.519646e+00 -2.724319e+00 -2.587071e+00 -2.780088e+00 -2.612072e+00 -2.791726e+00 -2.594671e+00 -2.759191e+00 -2.535386e+00 -2.682981e+00 -2.435217e+00 -2.564143e+00 -2.295631e+00 -2.404269e+00 -2.118556e+00 -2.205493e+00 -1.906368e+00 -1.970476e+00 -1.661878e+00 -1.702376e+00 -1.388311e+00 -1.404802e+00 -1.089256e+00 -1.081743e+00 -7.686109e-01 -7.374885e-01 -4.305056e-01 -3.765254e-01 -7.920652e-02 -3.429382e-03 2.809793e-01 3.772413e-01 6.458029e-01 7.610475e-01 1.011164e+00 1.143757e+00 1.373187e+00 1.521416e+00 1.728284e+00 1.890396e+00 2.073195e+00 2.247435e+00 2.405014e+00 2.589642e+00 2.721198e+00 2.914508e+00 3.019566e+00 
3.191814e+00 3.275783e+00 3.479522e+00 3.536248e+00 3.743628e+00 3.773523e+00 3.982978e+00 3.986704e+00 4.196672e+00 4.175122e+00 4.384028e+00 4.338294e+00 4.544534e+00 4.475881e+00 4.677803e+00 4.587640e+00 4.783528e+00 4.673377e+00 4.861434e+00 4.732899e+00 4.911242e+00 4.765979e+00 4.932636e+00 4.772322e+00 4.925249e+00 4.751552e+00 4.888654e+00 4.703215e+00 4.822388e+00 4.626797e+00 4.725990e+00 4.521774e+00 4.599048e+00 4.387665e+00 4.441281e+00 4.224114e+00 4.252611e+00 4.030978e+00 4.033256e+00 3.808418e+00 3.783808e+00 3.556989e+00 3.505306e+00 3.277721e+00 3.199299e+00 2.972184e+00 2.867877e+00 2.642524e+00 2.513685e+00 2.291479e+00 2.139908e+00 1.922363e+00 1.750234e+00 1.539019e+00 1.348788e+00 1.145751e+00 9.400554e-01 7.472298e-01 5.287898e-01 3.483897e-01 1.199113e-01 -4.568866e-02 -2.815935e-01 -4.298944e-01 -6.707692e-01 -7.992005e-01 -1.042785e+00 -1.148771e+00 -1.393016e+00 -1.474056e+00 -1.717123e+00 -1.770879e+00 -2.011109e+00 -2.035505e+00 -2.271378e+00 -2.264693e+00 -2.494777e+00 -2.455738e+00 -2.678632e+00 -2.606488e+00 -2.820766e+00 -2.715354e+00 -2.919525e+00 -2.781303e+00 -2.973779e+00 -2.803841e+00 -2.982939e+00 -2.782993e+00 -2.946956e+00 -2.719287e+00 -2.866330e+00 -2.613736e+00 -2.742114e+00 -2.467830e+00 -2.575924e+00 -2.283532e+00 -2.369931e+00 -2.063275e+00 -2.126858e+00 -1.809952e+00 -1.849950e+00 -1.526894e+00 -1.542931e+00 -1.217827e+00 -1.209933e+00 -8.868079e-01 -8.554070e-01 -5.381430e-01 -4.840168e-01 -1.762839e-01 -1.005217e-01 1.942784e-01 2.903406e-01 5.691220e-01 6.839638e-01 9.439917e-01 1.075968e+00 1.314882e+00 1.462274e+00 1.678101e+00 1.839160e+00 2.030314e+00 2.203290e+00 2.368566e+00 2.551733e+00 2.690291e+00 2.881956e+00 2.993304e+00 
3.304717e+00 3.382775e+00 3.595616e+00 3.646027e+00 3.862675e+00 3.885938e+00 4.104852e+00 4.101713e+00 4.321357e+00 4.292785e+00 4.511612e+00 4.458774e+00 4.675198e+00 4.599432e+00 4.811807e+00 4.714597e+00 4.921191e+00 4.804134e+00 5.003113e+00 4.867889e+00 5.057302e+00 4.905638e+00 5.083419e+00 4.917061e+00 5.081034e+00 4.901714e+00 5.049623e+00 4.859032e+00 4.988589e+00 4.788354e+00 4.897296e+00 4.688963e+00 4.775137e+00 4.560162e+00 4.621613e+00 4.401353e+00 4.436420e+00 4.212142e+00 4.219553e+00 3.992443e+00 3.971401e+00 3.742585e+00 3.692830e+00 3.463405e+00 3.385252e+00 3.156326e+00 3.050674e+00 2.823406e+00 2.691712e+00 2.467359e+00 2.311581e+00 2.091544e+00 1.914054e+00 1.699916e+00 1.503395e+00 1.296948e+00 1.084272e+00 8.875394e-01 6.616573e-01 4.768873e-01 2.407150e-01 7.036675e-02 -1.733085e-01 -3.266035e-01 -5.751939e-01 -7.086874e-01 -9.598502e-01 -1.070752e+00 -1.322407e+00 -1.407976e+00 -1.658296e+00 -1.715942e+00 -1.963321e+00 -1.990717e+00 -2.233712e+00 -2.228910e+00 -2.466177e+00 -2.427713e+00 -2.657926e+00 -2.584918e+00 -2.806704e+00 -2.698921e+00 -2.910794e+00 -2.768708e+00 -2.969032e+00 -2.793822e+00 -2.980805e+00 -2.774342e+00 -2.946053e+00 -2.710847e+00 -2.865281e+00 -2.604400e+00 -2.739560e+00 -2.456538e+00 -2.570542e+00 -2.269271e+00 -2.360466e+00 -2.045091e+00 -2.112151e+00 -1.786963e+00 -1.828980e+00 -1.498321e+00 -1.514847e+00 -1.183022e+00 -1.174092e+00 -8.452838e-01 -8.113928e-01 -4.895926e-01 -4.316494e-01 -1.205910e-01 -3.984851e-02 2.570444e-01 3.590677e-01 6.387242e-01 7.603235e-01 1.020055e+00 1.159413e+00 1.396931e+00 1.552177e+00 1.765596e+00 1.934860e+00 2.122695e+00 2.304133e+00 2.465285e+00 2.657108e+00 2.790843e+00 2.991321e+00 3.097252e+00 
3.288327e+00 3.372040e+00 3.583625e+00 3.638826e+00 3.854103e+00 3.881327e+00 4.098778e+00 4.098815e+00 4.316931e+00 4.290797e+00 4.508056e+00 4.456967e+00 4.671809e+00 4.597155e+00 4.807956e+00 4.711266e+00 4.916315e+00 4.799231e+00 4.996709e+00 4.860946e+00 5.048909e+00 4.896228e+00 5.072603e+00 4.904776e+00 5.067369e+00 4.886148e+00 5.032669e+00 4.839764e+00 4.967874e+00 4.764927e+00 4.872301e+00 4.660875e+00 4.745286e+00 4.526852e+00 4.586269e+00 4.362202e+00 4.394892e+00 4.166475e+00 4.171107e+00 3.939541e+00 3.915279e+00 3.681706e+00 3.628276e+00 3.393807e+00 3.311547e+00 3.077303e+00 2.967166e+00 2.734320e+00 2.597849e+00 2.367677e+00 2.206941e+00 1.980869e+00 1.798369e+00 1.578012e+00 1.376563e+00 1.163761e+00 9.463675e-01 7.431982e-01 5.129254e-01 3.217068e-01 8.156301e-02 -9.516530e-02 -3.423270e-01 -5.018418e-01 -7.533977e-01 -8.928495e-01 -1.146450e+00 -1.262939e+00 -1.516525e+00 -1.607193e+00 -1.858980e+00 -1.921120e+00 -2.169561e+00 -2.200726e+00 -2.444450e+00 -2.442579e+00 -2.680315e+00 -2.643839e+00 -2.874336e+00 -2.802282e+00 -3.024228e+00 -2.916294e+00 -3.128256e+00 -2.984858e+00 -3.185234e+00 -3.007520e+00 -3.194532e+00 -2.984361e+00 -3.156078e+00 -2.915966e+00 -3.070369e+00 -2.803408e+00 -2.938478e+00 -2.648242e+00 -2.762076e+00 -2.452514e+00 -2.543441e+00 -2.218775e+00 -2.285465e+00 -1.950086e+00 -1.991637e+00 -1.650014e+00 -1.665999e+00 -1.322587e+00 -1.313074e+00 -9.722293e-01 -9.377539e-01 -6.036593e-01 -5.451743e-01 -2.217625e-01 -1.405643e-01 1.685442e-01 2.708978e-01 5.624470e-01 6.842195e-01 9.553557e-01 1.094706e+00 1.343001e+00 1.498046e+00 1.721504e+00 1.890367e+00 2.087423e+00 2.268263e+00 2.437764e+00 2.628800e+00 2.769986e+00 2.969503e+00 3.081980e+00 
3.410411e+00 3.487845e+00 3.709342e+00 3.757766e+00 3.983101e+00 4.003144e+00 4.230847e+00 4.223387e+00 4.451998e+00 4.418138e+00 4.646181e+00 4.587219e+00 4.813173e+00 4.730582e+00 4.952845e+00 4.848240e+00 5.065099e+00 4.940208e+00 5.149815e+00 5.006444e+00 5.206788e+00 5.046788e+00 5.235687e+00 5.060917e+00 5.236028e+00 5.048320e+00 5.207158e+00 5.008290e+00 5.148286e+00 4.939954e+00 5.058522e+00 4.842320e+00 4.936957e+00 4.714359e+00 4.782756e+00 4.555114e+00 4.595278e+00 4.363819e+00 4.374195e+00 4.140030e+00 4.119612e+00 3.883763e+00 3.832176e+00 3.595609e+00 3.513168e+00 3.276838e+00 3.164556e+00 2.929467e+00 2.789026e+00 2.556288e+00 2.389965e+00 2.160855e+00 1.971415e+00 1.747432e+00 1.537991e+00 1.320898e+00 1.094772e+00 8.866280e-01 6.471840e-01 4.503458e-01 2.008638e-01 1.797521e-02 -2.384685e-01 -4.045162e-01 -6.651353e-01 -8.112653e-01 -1.073616e+00 -1.196650e+00 -1.458648e+00 -1.555414e+00 -1.815314e+00 -1.882769e+00 -2.139116e+00 -2.174482e+00 -2.426036e+00 -2.426943e+00 -2.672578e+00 -2.637198e+00 -2.875798e+00 -2.802971e+00 -3.033326e+00 -2.922651e+00 -3.143366e+00 -2.995265e+00 -3.204699e+00 -3.020428e+00 -3.216676e+00 -2.998300e+00 -3.179217e+00 -2.929541e+00 -3.092817e+00 -2.815284e+00 -2.958565e+00 -2.657135e+00 -2.778164e+00 -2.457184e+00 -2.553960e+00 -2.218033e+00 -2.288955e+00 -1.942825e+00 -1.986804e+00 -1.635241e+00 -1.651768e+00 -1.299476e+00 -1.288638e+00 -9.401646e-01 -9.026086e-01 -5.622674e-01 -4.991302e-01 -1.709298e-01 -8.373687e-02 2.286780e-01 3.381207e-01 6.315148e-01 7.612269e-01 1.032805e+00 1.180724e+00 1.428147e+00 1.592202e+00 1.813581e+00 1.991749e+00 2.185640e+00 2.375975e+00 2.541352e+00 2.742006e+00 2.878233e+00 3.087460e+00 3.194263e+00 
3.406596e+00 3.489738e+00 3.710652e+00 3.763750e+00 3.988395e+00 4.012137e+00 4.239067e+00 4.234396e+00 4.462182e+00 4.430269e+00 4.657462e+00 4.599676e+00 4.824785e+00 4.742667e+00 4.964117e+00 4.859345e+00 5.075450e+00 4.949810e+00 5.158736e+00 5.014084e+00 5.213825e+00 5.052051e+00 5.240418e+00 5.063411e+00 5.238030e+00 5.047647e+00 5.205983e+00 5.004021e+00 5.143430e+00 4.931598e+00 5.049401e+00 4.829309e+00 4.922896e+00 4.696035e+00 4.762981e+00 4.530719e+00 4.568922e+00 4.332500e+00 4.340310e+00 4.100857e+00 4.077200e+00 3.835746e+00 3.780224e+00 3.537742e+00 3.450687e+00 3.208138e+00 3.090632e+00 2.849024e+00 2.702866e+00 2.463317e+00 2.290936e+00 2.054742e+00 1.859080e+00 1.627770e+00 1.412127e+00 1.187512e+00 9.553860e-01 7.395862e-01 4.945025e-01 2.899562e-01 3.532311e-02 -1.552288e-01 -4.162449e-01 -5.897986e-01 -8.543623e-01 -1.007714e+00 -1.273372e+00 -1.403206e+00 -1.667901e+00 -1.770896e+00 -2.032941e+00 -2.105901e+00 -2.363920e+00 -2.403913e+00 -2.656757e+00 -2.661267e+00 -2.907908e+00 -2.874971e+00 -3.114386e+00 -3.042729e+00 -3.273787e+00 -3.162919e+00 -3.384284e+00 -3.234566e+00 -3.444631e+00 -3.257289e+00 -3.454154e+00 -3.231249e+00 -3.412751e+00 -3.157107e+00 -3.320897e+00 -3.035996e+00 -3.179671e+00 -2.869530e+00 -2.990782e+00 -2.659823e+00 -2.756613e+00 -2.409536e+00 -2.480241e+00 -2.121913e+00 -2.165444e+00 -1.800793e+00 -1.816665e+00 -1.450584e+00 -1.438924e+00 -1.076183e+00 -1.037696e+00 -6.828512e-01 -6.187362e-01 -2.760490e-01 -1.878942e-01 1.387425e-01 2.490742e-01 5.561961e-01 6.866771e-01 9.712894e-01 1.119822e+00 1.379421e+00 1.543913e+00 1.776490e+00 1.954904e+00 2.158930e+00 2.349321e+00 2.523723e+00 2.724250e+00 2.868378e+00 3.077307e+00 3.190899e+00 
3.538196e+00 3.614589e+00 3.846181e+00 3.891941e+00 4.127383e+00 4.143302e+00 4.381222e+00 4.368337e+00 4.607382e+00 4.566954e+00 4.805751e+00 4.739239e+00 4.976361e+00 4.885395e+00 5.119315e+00 5.005670e+00 5.234720e+00 5.100283e+00 5.322611e+00 5.169345e+00 5.382885e+00 5.212789e+00 5.415235e+00 5.230307e+00 5.419112e+00 5.221313e+00 5.393712e+00 5.184928e+00 5.337991e+00 5.120007e+00 5.250731e+00 5.025202e+00 5.130623e+00 4.899057e+00 4.976394e+00 4.740137e+00 4.786948e+00 4.547182e+00 4.561523e+00 4.319267e+00 4.299840e+00 4.055981e+00 4.002248e+00 3.757577e+00 3.669839e+00 3.425107e+00 3.304523e+00 3.060517e+00 2.909069e+00 2.666689e+00 2.487083e+00 2.247428e+00 2.042954e+00 1.807393e+00 1.581750e+00 1.351988e+00 1.109080e+00 8.872021e-01 6.309508e-01 4.194347e-01 1.535991e-01 -4.469014e-02 -3.166594e-01 -4.985101e-01 -7.735767e-01 -9.354990e-01 -1.211102e+00 -1.349425e+00 -1.623493e+00 -1.734489e+00 -2.005411e+00 -2.085447e+00 -2.351998e+00 -2.397703e+00 -2.658939e+00 -2.667381e+00 -2.922503e+00 -2.891371e+00 -3.139575e+00 -3.067335e+00 -3.307663e+00 -3.193684e+00 -3.424891e+00 -3.269528e+00 -3.489990e+00 -3.294601e+00 -3.502274e+00 -3.269187e+00 -3.461633e+00 -3.194049e+00 -3.368538e+00 -3.070395e+00 -3.224066e+00 -2.899881e+00 -3.029946e+00 -2.684650e+00 -2.788618e+00 -2.427395e+00 -2.503274e+00 -2.131426e+00 -2.177883e+00 -1.800710e+00 -1.817159e+00 -1.439854e+00 -1.426471e+00 -1.054027e+00 -1.011689e+00 -6.488152e-01 -5.789872e-01 -2.300278e-01 -1.346192e-01 1.965127e-01 3.153019e-01 6.251764e-01 7.649971e-01 1.050699e+00 1.209171e+00 1.468310e+00 1.643110e+00 1.873814e+00 2.062735e+00 2.263622e+00 2.464603e+00 2.634753e+00 2.845888e+00 2.984797e+00 3.204333e+00 3.311877e+00 
3.547987e+00 3.630090e+00 3.861743e+00 3.912000e+00 4.147400e+00 4.166687e+00 4.404491e+00 4.393936e+00 4.632821e+00 4.593778e+00 4.832408e+00 4.766428e+00 5.003410e+00 4.912213e+00 5.146055e+00 5.031499e+00 5.260564e+00 5.124610e+00 5.347070e+00 5.191741e+00 5.405540e+00 5.232884e+00 5.435704e+00 5.247755e+00 5.437010e+00 5.235750e+00 5.408609e+00 5.195939e+00 5.349376e+00 5.127092e+00 5.257972e+00 5.027745e+00 5.132951e+00 4.896304e+00 4.972893e+00 4.731190e+00 4.776557e+00 4.530997e+00 4.543057e+00 4.294675e+00 4.272026e+00 4.021713e+00 3.963769e+00 3.712315e+00 3.619394e+00 3.367542e+00 3.240890e+00 2.989420e+00 2.831169e+00 2.580976e+00 2.394040e+00 2.146229e+00 1.934139e+00 1.690104e+00 1.456812e+00 1.218304e+00 9.679585e-01 7.371306e-01 4.738670e-01 2.532907e-01 -1.896153e-02 -2.263066e-01 -5.039798e-01 -6.947465e-01 -9.747431e-01 -1.145287e+00 -1.425039e+00 -1.571519e+00 -1.848995e+00 -1.967501e+00 -2.241167e+00 -2.327872e+00 -2.596612e+00 -2.647950e+00 -2.910941e+00 -2.923794e+00 -3.180367e+00 -3.152250e+00 -3.401722e+00 -3.330957e+00 -3.572472e+00 -3.458321e+00 -3.690708e+00 -3.533457e+00 -3.755125e+00 -3.556105e+00 -3.765005e+00 -3.526551e+00 -3.720204e+00 -3.445553e+00 -3.621155e+00 -3.314303e+00 -3.468905e+00 -3.134441e+00 -3.265169e+00 -2.908112e+00 -3.012403e+00 -2.638049e+00 -2.713869e+00 -2.327664e+00 -2.373673e+00 -1.981102e+00 -1.996743e+00 -1.603231e+00 -1.588737e+00 -1.199555e+00 -1.155881e+00 -7.760458e-01 -7.047459e-01 -3.389226e-01 -2.419934e-01 1.055921e-01 2.258717e-01 5.515049e-01 6.927213e-01 9.932455e-01 1.152971e+00 1.425807e+00 1.601687e+00 1.844827e+00 2.034639e+00 2.246620e+00 2.448299e+00 2.628164e+00 2.839812e+00 2.987060e+00 3.206938e+00 3.321479e+00 
3.689541e+00 3.764305e+00 4.007336e+00 4.049587e+00 4.296443e+00 4.307165e+00 4.556612e+00 4.537030e+00 4.787857e+00 4.739418e+00 4.990400e+00 4.914745e+00 5.164588e+00 5.063535e+00 5.310829e+00 5.186340e+00 5.429497e+00 5.283649e+00 5.520846e+00 5.355789e+00 5.584919e+00 5.402834e+00 5.621461e+00 5.424516e+00 5.629860e+00 5.420169e+00 5.609125e+00 5.388709e+00 5.557902e+00 5.328657e+00 5.474544e+00 5.238210e+00 5.357226e+00 5.115359e+00 5.204097e+00 4.958050e+00 5.013463e+00 4.764367e+00 4.783982e+00 4.532748e+00 4.514860e+00 4.262204e+00 4.206039e+00 3.952520e+00 3.858348e+00 3.604445e+00 3.473607e+00 3.219811e+00 3.054681e+00 2.801599e+00 2.605457e+00 2.353928e+00 2.130768e+00 1.881970e+00 1.636263e+00 1.391797e+00 1.128232e+00 8.901869e-01 6.134136e-01 3.843980e-01 9.879918e-02 -1.180640e-01 -4.085586e-01 -6.096700e-01 -9.017142e-01 -1.083074e+00 -1.373976e+00 -1.531295e+00 -1.819028e+00 -1.947874e+00 -2.231031e+00 -2.327012e+00 -2.604706e+00 -2.663677e+00 -2.935394e+00 -2.953688e+00 -3.219105e+00 -3.193762e+00 -3.452536e+00 -3.381521e+00 -3.633078e+00 -3.515452e+00 -3.758793e+00 -3.594820e+00 -3.828374e+00 -3.619555e+00 -3.841110e+00 -3.590125e+00 -3.796853e+00 -3.507433e+00 -3.696021e+00 -3.372761e+00 -3.539632e+00 -3.187772e+00 -3.329387e+00 -2.954596e+00 -3.067767e+00 -2.675950e+00 -2.758137e+00 -2.355277e+00 -2.404815e+00 -1.996844e+00 -2.013060e+00 -1.605757e+00 -1.588976e+00 -1.187869e+00 -1.139313e+00 -7.495875e-01 -6.711977e-01 -2.976032e-01 -1.918285e-01 1.614018e-01 2.918240e-01 6.210336e-01 7.732677e-01 1.075411e+00 1.246672e+00 1.519320e+00 1.706976e+00 1.948296e+00 2.149927e+00 2.358641e+00 2.572064e+00 2.747398e+00 2.970659e+00 3.112288e+00 3.343649e+00 3.451639e+00 