# vtk DataFile Version 2.0
Comment goes here
ASCII

DATASET STRUCTURED_POINTS
FIELD FieldData 1
TIME 1 1 double
0.20500000
DIMENSIONS    128   128   1

ORIGIN    0.000   0.000   0.000
SPACING   0.039062 0.039062   1.000

POINT_DATA   16384
SCALARS P double
LOOKUP_TABLE default

9.013741e+00 8.495911e+00 8.523962e+00 7.964481e+00 7.951387e+00 7.355995e+00 7.303834e+00 6.678752e+00 6.589567e+00 5.941413e+00 5.817180e+00 5.152889e+00 4.995505e+00 4.322242e+00 4.133512e+00 3.458589e+00 3.240231e+00 2.571017e+00 2.324666e+00 1.668495e+00 1.395718e+00 7.597950e-01 4.621124e-01 -1.465898e-01 -4.676779e-01 -1.042518e+00 -1.385500e+00 -1.920271e+00 -2.283586e+00 -2.772617e+00 -3.154607e+00 -3.592863e+00 -3.991725e+00 -4.374897e+00 -4.788626e+00 -5.113215e+00 -5.539553e+00 -5.802935e+00 -6.239311e+00 -6.439793e+00 -6.883280e+00 -7.020128e+00 -7.467399e+00 -7.540848e+00 -7.988148e+00 -7.999385e+00 -8.442520e+00 -8.393637e+00 -8.827979e+00 -8.721902e+00 -9.142415e+00 -8.982808e+00 -9.384095e+00 -9.175237e+00 -9.551610e+00 -9.298253e+00 -9.643824e+00 -9.351041e+00 -9.659831e+00 -9.332855e+00 -9.598922e+00 -9.242982e+00 -9.460563e+00 -9.080737e+00 -9.244397e+00 -8.845477e+00 -8.950273e+00 -8.536656e+00 -8.578292e+00 -8.153905e+00 -8.128891e+00 -7.697153e+00 -7.602957e+00 -7.166779e+00 -7.001957e+00 -6.563788e+00 -6.328101e+00 -5.890003e+00 -5.584504e+00 -5.148270e+00 -4.775351e+00 -4.342641e+00 -3.906051e+00 -3.478538e+00 -2.983344e+00 -2.562866e+00 -2.015374e+00 -1.604069e+00 -1.011690e+00 -6.121046e-01 1.683032e-02 4.016645e-01 1.058123e+00 1.424664e+00 2.099171e+00 2.443386e+00 3.126295e+00 3.443728e+00 4.125507e+00 4.411389e+00 5.082884e+00 5.332281e+00 5.984963e+00 6.192946e+00 6.819109e+00 6.980934e+00 7.573855e+00 7.685142e+00 8.239175e+00 8.296076e+00 8.806699e+00 8.806041e+00 9.269848e+00 9.209246e+00 9.623894e+00 9.501836e+00 9.865958e+00 9.681854e+00 9.994940e+00 9.749142e+00 1.001141e+01 9.705206e+00 9.917484e+00 9.553048e+00 9.716616e+00 9.296987e+00 9.413474e+00 8.942474e+00 
8.983615e+00 8.454639e+00 8.508592e+00 7.937762e+00 7.949995e+00 7.343180e+00 7.315670e+00 6.679219e+00 6.613914e+00 5.954572e+00 5.853358e+00 5.178184e+00 5.042862e+00 4.359147e+00 4.191426e+00 3.506603e+00 3.308097e+00 2.629654e+00 2.401891e+00 1.737277e+00 1.481710e+00 8.382419e-01 5.562676e-01 -5.897506e-02 -3.659881e-01 -9.462626e-01 -1.276942e+00 -1.815948e+00 -2.168880e+00 -2.660862e+00 -3.034539e+00 -3.474389e+00 -3.867166e+00 -4.250516e+00 -4.660545e+00 -4.983852e+00 -5.409030e+00 -5.669646e+00 -6.107552e+00 -6.303784e+00 -6.751627e+00 -6.882762e+00 -7.337337e+00 -7.403660e+00 -7.861311e+00 -7.864082e+00 -8.320686e+00 -8.262100e+00 -8.713066e+00 -8.596175e+00 -9.036463e+00 -8.865081e+00 -9.289247e+00 -9.067820e+00 -9.470077e+00 -9.203543e+00 -9.577848e+00 -9.271473e+00 -9.611634e+00 -9.270848e+00 -9.570651e+00 -9.200876e+00 -9.454224e+00 -9.060723e+00 -9.261790e+00 -8.849523e+00 -8.992915e+00 -8.566426e+00 -8.647349e+00 -8.210688e+00 -8.225114e+00 -7.781793e+00 -7.726617e+00 -7.279611e+00 -7.152802e+00 -6.704593e+00 -6.505322e+00 -6.057984e+00 -5.786725e+00 -5.342037e+00 -5.000638e+00 -4.560232e+00 -4.151945e+00 -3.717459e+00 -3.246921e+00 -2.820155e+00 -2.293322e+00 -1.876383e+00 -1.300407e+00 -8.958239e-01 -2.788762e-01 1.103218e-01 7.592657e-01 1.129521e+00 1.800942e+00 2.148186e+00 2.832303e+00 3.152030e+00 3.839089e+00 4.126469e+00 4.807030e+00 5.057063e+00 5.722254e+00 5.929945e+00 6.571684e+00 6.732232e+00 7.343398e+00 7.452379e+00 8.026929e+00 8.080468e+00 8.613489e+00 8.608406e+00 9.096122e+00 9.030048e+00 9.469773e+00 9.341233e+00 9.731289e+00 9.539749e+00 9.879350e+00 9.625238e+00 9.914364e+00 9.599052e+00 9.838312e+00 9.464086e+00 9.654583e+00 9.224591e+00 9.367795e+00 8.885978e+00 
9.058242e+00 8.537786e+00 8.564773e+00 8.002392e+00 7.988236e+00 7.389713e+00 7.336516e+00 6.708114e+00 6.617934e+00 5.966313e+00 5.841139e+00 5.173275e+00 5.015005e+00 4.338108e+00 4.148547e+00 3.469970e+00 3.250830e+00 2.577988e+00 2.330893e+00 1.671165e+00 1.397672e+00 7.583074e-01 4.599193e-01 -1.520599e-01 -4.738625e-01 -1.051767e+00 -1.395495e+00 -1.933068e+00 -2.297185e+00 -2.788711e+00 -3.171585e+00 -3.611982e+00 -4.011838e+00 -4.396757e+00 -4.811617e+00 -5.137523e+00 -5.565154e+00 -5.829396e+00 -6.267253e+00 -6.468119e+00 -6.913291e+00 -7.050043e+00 -7.499214e+00 -7.572093e+00 -8.021515e+00 -8.031728e+00 -8.477200e+00 -8.426873e+00 -8.863754e+00 -8.755863e+00 -9.179091e+00 -9.017358e+00 -9.421502e+00 -9.210276e+00 -9.589602e+00 -9.333713e+00 -9.682278e+00 -9.386880e+00 -9.698642e+00 -9.369048e+00 -9.637995e+00 -9.279510e+00 -9.499804e+00 -9.117574e+00 -9.283700e+00 -8.882572e+00 -8.989508e+00 -8.573917e+00 -8.617288e+00 -8.191180e+00 -8.167424e+00 -7.734219e+00 -7.640734e+00 -7.203322e+00 -7.038609e+00 -6.599398e+00 -6.363176e+00 -5.924172e+00 -5.617465e+00 -5.180394e+00 -4.805591e+00 -4.372037e+00 -3.932902e+00 -3.504463e+00 -3.006108e+00 -2.584554e+00 -2.033350e+00 -1.620764e+00 -1.024210e+00 -6.231040e-01 1.035519e-02 3.969661e-01 1.058171e+00 1.426735e+00 2.106072e+00 2.452521e+00 3.140205e+00 3.460027e+00 4.146390e+00 4.434745e+00 5.110512e+00 5.362379e+00 6.018918e+00 6.229277e+00 6.858807e+00 7.022823e+00 7.618567e+00 7.731777e+00 8.288069e+00 8.346551e+00 8.858871e+00 8.859394e+00 9.324363e+00 9.264500e+00 9.679818e+00 9.558033e+00 9.922388e+00 9.738081e+00 1.005103e+01 9.804558e+00 1.006639e+01 9.759052e+00 9.970654e+00 9.604661e+00 9.767380e+00 9.345799e+00 9.461319e+00 8.988011e+00 
9.073411e+00 8.539057e+00 8.590989e+00 8.014231e+00 8.024439e+00 7.411232e+00 7.381746e+00 6.738525e+00 6.671327e+00 6.004923e+00 5.901919e+00 5.219477e+00 5.082480e+00 4.391374e+00 4.222091e+00 3.529842e+00 3.329880e+00 2.644064e+00 2.414931e+00 1.743090e+00 1.486214e+00 8.357559e-01 5.525020e-01 -6.939589e-02 -3.776985e-01 -9.641952e-01 -1.296220e+00 -1.840916e+00 -2.195298e+00 -2.692342e+00 -3.067632e+00 -3.511823e+00 -3.906431e+00 -4.293315e+00 -4.705452e+00 -5.031415e+00 -5.459033e+00 -5.721370e+00 -6.162099e+00 -6.359077e+00 -6.810168e+00 -6.941063e+00 -7.399340e+00 -7.464448e+00 -7.926269e+00 -7.926891e+00 -8.388132e+00 -8.326532e+00 -8.782578e+00 -8.661908e+00 -9.107675e+00 -8.931871e+00 -9.361850e+00 -9.135504e+00 -9.543820e+00 -9.272029e+00 -9.652535e+00 -9.340732e+00 -9.687111e+00 -9.340894e+00 -9.646792e+00 -9.271743e+00 -9.530909e+00 -9.132432e+00 -9.338879e+00 -8.922048e+00 -9.070218e+00 -8.639659e+00 -8.724593e+00 -8.284398e+00 -8.301908e+00 -7.855589e+00 -7.802425e+00 -7.352915e+00 -7.226916e+00 -6.776614e+00 -6.576849e+00 -6.127711e+00 -5.854583e+00 -5.408248e+00 -5.063577e+00 -4.621519e+00 -4.208575e+00 -3.772274e+00 -3.295763e+00 -2.866877e+00 -2.332876e+00 -1.913395e+00 -1.329229e+00 -9.216061e-01 -2.956671e-01 9.710084e-02 7.555801e-01 1.129915e+00 1.811133e+00 2.162896e+00 2.856782e+00 3.181350e+00 3.877866e+00 4.170257e+00 4.859704e+00 5.114740e+00 5.788024e+00 6.000524e+00 6.649392e+00 6.814366e+00 7.431581e+00 7.544433e+00 8.123892e+00 8.180599e+00 8.717385e+00 8.714650e+00 9.205030e+00 9.140399e+00 9.581773e+00 9.453722e+00 9.844521e+00 9.652500e+00 9.992069e+00 9.736518e+00 1.002497e+01 9.707302e+00 9.945391e+00 9.567939e+00 9.756893e+00 9.322878e+00 9.464284e+00 8.977726e+00 
9.192072e+00 8.663698e+00 8.687459e+00 8.116335e+00 8.098970e+00 7.491009e+00 7.434689e+00 6.796280e+00 6.703111e+00 6.041043e+00 5.913041e+00 5.234417e+00 5.073491e+00 4.385646e+00 4.193597e+00 3.504016e+00 3.282538e+00 2.598765e+00 2.349457e+00 1.679007e+00 1.403383e+00 7.536467e-01 4.531619e-01 -1.686964e-01 -4.926199e-01 -1.079765e+00 -1.425705e+00 -1.971735e+00 -2.338230e+00 -2.837283e+00 -3.222782e+00 -3.669642e+00 -4.072453e+00 -4.462645e+00 -4.880874e+00 -5.210756e+00 -5.642248e+00 -5.909085e+00 -6.351365e+00 -6.553392e+00 -7.003605e+00 -7.140062e+00 -7.594931e+00 -7.666078e+00 -8.121868e+00 -8.128974e+00 -8.581472e+00 -8.526766e+00 -8.971288e+00 -8.857891e+00 -9.289300e+00 -9.121118e+00 -9.533877e+00 -9.315470e+00 -9.703710e+00 -9.440143e+00 -9.797754e+00 -9.494429e+00 -9.815178e+00 -9.477652e+00 -9.755315e+00 -9.389128e+00 -9.617637e+00 -9.228140e+00 -9.401744e+00 -8.993952e+00 -9.107385e+00 -8.685851e+00 -8.734503e+00 -8.303235e+00 -8.283316e+00 -7.845731e+00 -7.754437e+00 -7.313361e+00 -7.149020e+00 -6.706738e+00 -6.468935e+00 -6.027281e+00 -5.716960e+00 -5.277449e+00 -4.896979e+00 -4.460965e+00 -4.014159e+00 -3.583009e+00 -3.075102e+00 -2.650377e+00 -2.087942e+00 -1.671554e+00 -1.062365e+00 -6.567095e-01 -9.549759e-03 3.824009e-01 1.057982e+00 1.432647e+00 2.126615e+00 2.479822e+00 3.181964e+00 3.509029e+00 4.209267e+00 4.505123e+00 5.193809e+00 5.453174e+00 6.121366e+00 6.338940e+00 6.978620e+00 7.149292e+00 7.753532e+00 7.872581e+00 8.435648e+00 8.498931e+00 9.016317e+00 9.020426e+00 9.488833e+00 9.431215e+00 9.848481e+00 9.727525e+00 1.009251e+01 9.907594e+00 1.022006e+01 9.971549e+00 1.023199e+01 9.921244e+00 1.013075e+01 9.760056e+00 9.920169e+00 9.492695e+00 9.605265e+00 9.124989e+00 
9.253673e+00 8.708476e+00 8.756297e+00 8.167595e+00 8.173703e+00 7.547626e+00 7.514150e+00 6.857304e+00 6.786295e+00 6.105681e+00 5.999089e+00 5.302022e+00 5.161675e+00 4.455701e+00 4.283306e+00 3.576116e+00 3.373258e+00 2.672606e+00 2.440759e+00 1.754367e+00 1.494907e+00 8.303731e-01 5.445997e-01 -9.070606e-02 -4.015419e-01 -1.000581e+00 -1.335244e+00 -1.891417e+00 -2.248645e+00 -2.755904e+00 -3.134360e+00 -3.587316e+00 -3.985526e+00 -4.379553e+00 -4.795849e+00 -5.127180e+00 -5.559628e+00 -5.825442e+00 -6.271775e+00 -6.470260e+00 -6.927816e+00 -7.058217e+00 -7.523882e+00 -7.586517e+00 -8.056683e+00 -8.052935e+00 -8.523472e+00 -8.455746e+00 -8.921994e+00 -8.793640e+00 -9.250430e+00 -9.065636e+00 -9.507327e+00 -9.270980e+00 -9.691523e+00 -9.409047e+00 -9.802078e+00 -9.479251e+00 -9.838205e+00 -9.480967e+00 -9.799204e+00 -9.413466e+00 -9.684427e+00 -9.275881e+00 -9.493254e+00 -9.067213e+00 -9.225103e+00 -8.786362e+00 -8.879475e+00 -8.432212e+00 -8.456037e+00 -8.003766e+00 -7.954752e+00 -7.500316e+00 -7.376039e+00 -6.921668e+00 -6.720983e+00 -6.268389e+00 -5.991554e+00 -5.542079e+00 -5.190849e+00 -4.745641e+00 -4.323315e+00 -3.883528e+00 -3.394949e+00 -2.961939e+00 -2.413428e+00 -1.988943e+00 -1.388177e+00 -9.745053e-01 -3.303267e-01 6.960059e-02 7.474322e-01 1.129996e+00 1.831100e+00 2.192015e+00 2.905721e+00 3.240123e+00 3.955813e+00 4.258402e+00 4.965841e+00 5.231073e+00 5.920716e+00 6.143017e+00 6.806259e+00 6.980256e+00 7.609627e+00 7.730370e+00 8.319650e+00 8.382811e+00 8.927082e+00 8.929125e+00 9.424752e+00 9.363055e+00 9.807612e+00 9.680556e+00 1.007271e+01 9.879714e+00 1.021908e+01 9.960613e+00 1.024759e+01 9.925143e+00 1.016076e+01 9.776786e+00 9.962536e+00 9.520396e+00 9.658103e+00 9.161977e+00 
9.416207e+00 8.874492e+00 8.892770e+00 8.306931e+00 8.284137e+00 7.660302e+00 7.598721e+00 6.943493e+00 6.845308e+00 6.165688e+00 6.032957e+00 5.336257e+00 5.170907e+00 4.464673e+00 4.268496e+00 3.560426e+00 3.335085e+00 2.632944e+00 2.379988e+00 1.691516e+00 1.412395e+00 7.452144e-01 4.413011e-01 -1.971831e-01 -5.245655e-01 -1.127272e+00 -1.476815e+00 -2.037096e+00 -2.407464e+00 -2.919214e+00 -3.308994e+00 -3.766763e+00 -4.174404e+00 -4.573503e+00 -4.997257e+00 -5.333858e+00 -5.771706e+00 -6.042928e+00 -6.492516e+00 -6.696497e+00 -7.155070e+00 -7.291012e+00 -7.755360e+00 -7.823552e+00 -8.289968e+00 -8.291778e+00 -8.756031e+00 -8.693866e+00 -9.151202e+00 -9.028426e+00 -9.473586e+00 -9.294416e+00 -9.721685e+00 -9.491046e+00 -9.894325e+00 -9.617686e+00 -9.990584e+00 -9.673771e+00 -1.000973e+01 -9.658728e+00 -9.951169e+00 -9.571914e+00 -9.814380e+00 -9.412584e+00 -9.598918e+00 -9.179886e+00 -9.304412e+00 -8.872905e+00 -8.930605e+00 -8.490737e+00 -8.477439e+00 -8.032624e+00 -7.945173e+00 -7.498127e+00 -7.334550e+00 -6.887343e+00 -6.646994e+00 -6.201157e+00 -5.884834e+00 -5.441512e+00 -5.051540e+00 -4.611682e+00 -4.151952e+00 -3.716519e+00 -3.192470e+00 -2.762649e+00 -2.181192e+00 -1.758592e+00 -1.127968e+00 -7.147826e-01 -4.435707e-02 3.565253e-01 1.056533e+00 1.441480e+00 2.160308e+00 2.524966e+00 3.251662e+00 3.591047e+00 4.314819e+00 4.623469e+00 5.334029e+00 5.606202e+00 6.294074e+00 6.523981e+00 7.180745e+00 7.362794e+00 7.981267e+00 8.110294e+00 8.684636e+00 8.756116e+00 9.281854e+00 9.292078e+00 9.766064e+00 9.712269e+00 1.013259e+01 1.001304e+01 1.037886e+01 1.019290e+01 1.050433e+01 1.025236e+01 1.051026e+01 1.019373e+01 1.039954e+01 1.002089e+01 1.017647e+01 9.739044e+00 9.846533e+00 9.354506e+00 
9.525725e+00 8.964044e+00 9.005530e+00 8.398692e+00 8.398523e+00 7.752920e+00 7.713371e+00 7.035869e+00 6.959091e+00 6.256947e+00 6.144946e+00 5.425728e+00 5.280357e+00 4.551862e+00 4.374823e+00 3.645000e+00 3.437845e+00 2.714711e+00 2.478856e+00 1.770406e+00 1.507151e+00 8.212630e-01 5.318102e-01 -1.238527e-01 -4.383725e-01 -1.056471e+00 -1.394961e+00 -1.968593e+00 -2.329949e+00 -2.852763e+00 -3.235819e+00 -3.702136e+00 -4.105600e+00 -4.510525e+00 -4.932914e+00 -5.272445e+00 -5.712005e+00 -5.983130e+00 -6.437760e+00 -6.638541e+00 -7.105716e+00 -7.235343e+00 -7.712050e+00 -7.770871e+00 -8.253557e+00 -8.243075e+00 -8.727609e+00 -8.650443e+00 -9.132102e+00 -8.991906e+00 -9.465392e+00 -9.266742e+00 -9.726215e+00 -9.474456e+00 -9.913605e+00 -9.614669e+00 -1.002680e+01 -9.687006e+00 -1.006517e+01 -9.690995e+00 -1.002812e+01 -9.625987e+00 -9.915047e+00 -9.491102e+00 -9.725279e+00 -9.285212e+00 -9.458098e+00 -9.006971e+00 -9.112756e+00 -8.654888e+00 -8.688559e+00 -8.227467e+00 -8.185005e+00 -7.723394e+00 -7.601962e+00 -7.141789e+00 -6.939904e+00 -6.482493e+00 -6.200176e+00 -5.746395e+00 -5.385286e+00 -4.935760e+00 -4.499193e+00 -4.054547e+00 -3.547561e+00 -3.108668e+00 -2.537954e+00 -2.106166e+00 -1.479942e+00 -1.057279e+00 -3.850857e-01 2.562976e-02 7.332091e-01 1.128296e+00 1.859972e+00 2.234912e+00 2.979073e+00 3.328617e+00 4.073728e+00 4.392070e+00 5.127060e+00 5.408068e+00 6.122683e+00 6.360164e+00 7.045259e+00 7.233230e+00 7.880977e+00 8.013932e+00 8.617947e+00 8.691086e+00 9.246464e+00 9.255882e+00 9.759157e+00 9.701981e+00 1.015102e+01 1.002549e+01 1.041934e+01 1.022484e+01 1.056355e+01 1.030061e+01 1.058502e+01 1.025526e+01 1.048684e+01 1.009290e+01 1.027355e+01 9.819016e+00 9.950920e+00 9.440226e+00 
9.732245e+00 9.171547e+00 9.181927e+00 8.575180e+00 8.544622e+00 7.898259e+00 7.829202e+00 7.150126e+00 7.044854e+00 6.340360e+00 6.200986e+00 5.478679e+00 5.307146e+00 4.574865e+00 4.372948e+00 3.638687e+00 3.408004e+00 2.679831e+00 2.421863e+00 1.707833e+00 1.423934e+00 7.319978e-01 4.234243e-01 -2.386761e-01 -5.707402e-01 -1.195575e+00 -1.549983e+00 -2.130551e+00 -2.506148e+00 -3.035994e+00 -3.431564e+00 -3.904900e+00 -4.319102e+00 -4.730926e+00 -5.162221e+00 -5.508429e+00 -5.955003e+00 -6.232495e+00 -6.692175e+00 -6.898940e+00 -7.369122e+00 -7.504297e+00 -7.981876e+00 -8.045785e+00 -8.527101e+00 -8.521251e+00 -9.002055e+00 -8.929099e+00 -9.404544e+00 -9.268200e+00 -9.732857e+00 -9.537792e+00 -9.985695e+00 -9.737365e+00 -1.016208e+01 -9.866551e+00 -1.026130e+01 -9.925010e+00 -1.028277e+01 -9.912330e+00 -1.022600e+01 -9.827949e+00 -1.009051e+01 -9.671093e+00 -9.875819e+00 -9.440764e+00 -9.581380e+00 -9.135760e+00 -9.206664e+00 -8.754754e+00 -8.751211e+00 -8.296427e+00 -8.214770e+00 -7.759661e+00 -7.597473e+00 -7.143788e+00 -6.900073e+00 -6.448887e+00 -6.124215e+00 -5.676116e+00 -5.272734e+00 -4.828056e+00 -4.349944e+00 -3.909028e+00 -3.361908e+00 -2.925370e+00 -2.316633e+00 -1.885617e+00 -1.224179e+00 -8.005644e-01 -9.663753e-02 3.168171e-01 1.052026e+00 1.451617e+00 2.206274e+00 2.587376e+00 3.349431e+00 3.706607e+00 4.464214e+00 4.791405e+00 5.533331e+00 5.824104e+00 6.540086e+00 6.787922e+00 7.468958e+00 7.667547e+00 8.306096e+00 8.449617e+00 9.039703e+00 9.123073e+00 9.660295e+00 9.679373e+00 1.016083e+01 1.011256e+01 1.053671e+01 1.041919e+01 1.078570e+01 1.059822e+01 1.090771e+01 1.065075e+01 1.090461e+01 1.057979e+01 1.077996e+01 1.038992e+01 1.053875e+01 1.008711e+01 1.018714e+01 9.678361e+00 
9.891510e+00 9.307433e+00 9.340158e+00 8.708723e+00 8.699950e+00 8.027905e+00 7.980096e+00 7.274651e+00 7.190080e+00 6.458831e+00 6.339576e+00 5.590422e+00 5.438360e+00 4.679434e+00 4.496249e+00 3.735838e+00 3.523037e+00 2.769503e+00 2.528426e+00 1.790126e+00 1.521967e+00 8.071563e-01 5.129849e-01 -1.702819e-01 -4.894951e-01 -1.133472e+00 -1.476819e+00 -2.074189e+00 -2.440780e+00 -2.984777e+00 -3.373682e+00 -3.858223e+00 -4.268405e+00 -4.688216e+00 -5.118451e+00 -5.469195e+00 -5.917985e+00 -6.196380e+00 -6.661859e+00 -6.865776e+00 -7.345619e+00 -7.474160e+00 -7.965506e+00 -8.019048e+00 -8.518428e+00 -8.498631e+00 -9.001923e+00 -8.911693e+00 -9.414099e+00 -9.257510e+00 -9.753558e+00 -9.535724e+00 -1.001931e+01 -9.746216e+00 -1.021067e+01 -9.888963e+00 -1.032715e+01 -9.963901e+00 -1.036835e+01 -9.970795e+00 -1.033384e+01 -9.909133e+00 -1.022309e+01 -9.778039e+00 -1.003541e+01 -9.576234e+00 -9.769907e+00 -9.302048e+00 -9.425495e+00 -8.953482e+00 -9.000995e+00 -8.528350e+00 -8.495256e+00 -8.024490e+00 -7.907364e+00 -7.440042e+00 -7.236914e+00 -6.773800e+00 -6.484338e+00 -6.025608e+00 -5.651268e+00 -5.196784e+00 -4.740918e+00 -4.290528e+00 -3.758425e+00 -3.312287e+00 -2.711135e+00 -2.270013e+00 -1.608776e+00 -1.174292e+00 -4.634850e-01 -3.829224e-02 7.103380e-01 1.122472e+00 1.896347e+00 2.290568e+00 3.076734e+00 3.447232e+00 4.232848e+00 4.573080e+00 5.345886e+00 5.648869e+00 6.397612e+00 6.656256e+00 7.371036e+00 7.578486e+00 8.250994e+00 8.400953e+00 9.024599e+00 9.111605e+00 9.681539e+00 9.701181e+00 1.021421e+01 1.016328e+01 1.061772e+01 1.049427e+01 1.088973e+01 1.069314e+01 1.103028e+01 1.076117e+01 1.104148e+01 1.070169e+01 1.092725e+01 1.051967e+01 1.069295e+01 1.022152e+01 1.034520e+01 9.814670e+00 
1.014236e+01 9.556723e+00 9.556573e+00 8.922414e+00 8.881599e+00 8.205748e+00 8.126894e+00 7.416642e+00 7.302151e+00 6.565168e+00 6.417215e+00 5.661477e+00 5.482014e+00 4.715729e+00 4.506504e+00 3.738043e+00 3.500611e+00 2.738428e+00 2.474175e+00 1.726728e+00 1.436888e+00 7.125471e-01 3.982232e-01 -2.948287e-01 -6.326333e-01 -1.286512e+00 -1.646862e+00 -2.254100e+00 -2.636080e+00 -3.189756e+00 -3.592416e+00 -4.086286e+00 -4.508566e+00 -4.937201e+00 -5.377850e+00 -5.736768e+00 -6.194252e+00 -6.480044e+00 -6.952447e+00 -7.162885e+00 -7.647817e+00 -7.781936e+00 -8.276447e+00 -8.334601e+00 -8.835108e+00 -8.818977e+00 -9.321219e+00 -9.233781e+00 -9.732800e+00 -9.578243e+00 -1.006839e+01 -9.851985e+00 -1.032697e+01 -1.005489e+01 -1.050785e+01 -1.018697e+01 -1.061059e+01 -1.024821e+01 -1.063486e+01 -1.023843e+01 -1.058033e+01 -1.015723e+01 -1.044662e+01 -1.000381e+01 -1.023318e+01 -9.777002e+00 -9.939289e+00 -9.475254e+00 -9.564072e+00 -9.096679e+00 -9.106537e+00 -8.639207e+00 -8.565737e+00 -8.100792e+00 -7.940964e+00 -7.479704e+00 -7.232030e+00 -6.774887e+00 -6.439601e+00 -5.986373e+00 -5.565579e+00 -5.115723e+00 -4.613491e+00 -4.166461e+00 -3.588861e+00 -3.144453e+00 -2.499504e+00 -2.058186e+00 -1.355704e+00 -9.188955e-01 -1.702467e-01 2.594899e-01 1.041747e+00 1.460613e+00 2.263164e+00 2.666150e+00 3.475424e+00 3.856452e+00 4.659143e+00 5.011310e+00 5.794873e+00 6.110771e+00 6.863871e+00 7.135949e+00 7.848802e+00 8.069748e+00 8.734347e+00 8.897432e+00 9.507655e+00 9.607041e+00 1.015863e+01 1.018959e+01 1.068003e+01 1.063913e+01 1.106744e+01 1.095259e+01 1.131910e+01 1.112957e+01 1.143566e+01 1.117205e+01 1.141983e+01 1.108397e+01 1.127610e+01 1.087098e+01 1.101042e+01 1.054001e+01 1.062985e+01 1.009901e+01 
1.035353e+01 9.740774e+00 9.762049e+00 9.099195e+00 9.079301e+00 8.373541e+00 8.315158e+00 7.574136e+00 7.479678e+00 6.711408e+00 6.583024e+00 5.795815e+00 5.635402e+00 4.837794e+00 4.647008e+00 3.847702e+00 3.627985e+00 2.835773e+00 2.588364e+00 1.812048e+00 1.538010e+00 7.863167e-01 4.865507e-01 -2.319697e-01 -5.566944e-01 -1.233780e+00 -1.582794e+00 -2.210594e+00 -2.583284e+00 -3.154492e+00 -3.550238e+00 -4.058239e+00 -4.476338e+00 -4.915353e+00 -5.354928e+00 -5.720169e+00 -6.180065e+00 -6.467873e+00 -6.946547e+00 -7.154524e+00 -7.649930e+00 -7.777039e+00 -8.286530e+00 -8.333165e+00 -8.853402e+00 -8.821411e+00 -9.348299e+00 -9.240956e+00 -9.769609e+00 -9.591531e+00 -1.011627e+01 -9.873277e+00 -1.038767e+01 -1.008659e+01 -1.058350e+01 -1.023193e+01 -1.070366e+01 -1.030969e+01 -1.074808e+01 -1.031998e+01 -1.071660e+01 -1.026250e+01 -1.060885e+01 -1.013643e+01 -1.042411e+01 -9.940339e+00 -1.016130e+01 -9.672153e+00 -9.818949e+00 -9.329238e+00 -9.395244e+00 -8.908509e+00 -8.888182e+00 -8.406670e+00 -8.295797e+00 -7.820538e+00 -7.616477e+00 -7.147461e+00 -6.849376e+00 -6.385820e+00 -5.994878e+00 -5.535569e+00 -5.055098e+00 -4.598793e+00 -4.034367e+00 -3.580209e+00 -2.939641e+00 -2.487556e+00 -1.780777e+00 -1.331811e+00 -5.706301e-01 -1.271887e-01 6.750844e-01 1.109123e+00 1.938161e+00 2.357477e+00 3.198502e+00 3.596501e+00 4.434891e+00 4.803999e+00 5.625882e+00 5.957931e+00 6.750711e+00 7.037371e+00 7.790148e+00 8.023368e+00 8.727222e+00 8.899636e+00 9.547753e+00 9.653017e+00 1.024068e+01 1.027373e+01 1.079817e+01 1.075537e+01 1.121556e+01 1.109479e+01 1.149112e+01 1.129175e+01 1.162576e+01 1.134860e+01 1.162265e+01 1.126981e+01 1.148681e+01 1.106160e+01 1.122475e+01 1.073152e+01 1.084414e+01 1.028815e+01 
1.064923e+01 1.003229e+01 1.001870e+01 9.350219e+00 9.296461e+00 8.583768e+00 8.492674e+00 7.743531e+00 7.617627e+00 6.840161e+00 6.681676e+00 5.884305e+00 5.695191e+00 4.886566e+00 4.668524e+00 3.857465e+00 3.611967e+00 2.807394e+00 2.535707e+00 1.746564e+00 1.449771e+00 6.849425e-01 3.639623e-01 -3.678279e-01 -7.122162e-01 -1.402516e+00 -1.769640e+00 -2.410393e+00 -2.799642e+00 -3.383331e+00 -3.794092e+00 -4.313885e+00 -4.745466e+00 -5.195373e+00 -5.646902e+00 -6.021936e+00 -6.492254e+00 -6.788585e+00 -7.276124e+00 -7.491219e+00 -7.993884e+00 -8.126622e+00 -8.641681e+00 -8.692428e+00 -9.216421e+00 -9.187061e+00 -9.715734e+00 -9.609646e+00 -1.013791e+01 -9.959885e+00 -1.048184e+01 -1.023792e+01 -1.074686e+01 -1.044417e+01 -1.093269e+01 -1.057915e+01 -1.103928e+01 -1.064330e+01 -1.106663e+01 -1.063683e+01 -1.101470e+01 -1.055953e+01 -1.088324e+01 -1.041067e+01 -1.067173e+01 -1.018890e+01 -1.037922e+01 -9.892238e+00 -1.000443e+01 -9.518109e+00 -9.545711e+00 -9.063482e+00 -9.001205e+00 -8.525096e+00 -8.369094e+00 -7.899801e+00 -7.647912e+00 -7.184992e+00 -6.836966e+00 -6.379133e+00 -5.936835e+00 -5.482333e+00 -4.949892e+00 -4.496939e+00 -3.880825e+00 -3.428067e+00 -2.737074e+00 -2.284028e+00 -1.529125e+00 -1.076554e+00 -2.706116e-01 1.792082e-01 1.021840e+00 1.464990e+00 2.329018e+00 2.759966e+00 3.629777e+00 4.041562e+00 4.901887e+00 5.286439e+00 6.122985e+00 6.471553e+00 7.271563e+00 7.575192e+00 8.327867e+00 8.577889e+00 9.274655e+00 9.463132e+00 1.009774e+01 1.021784e+01 1.078628e+01 1.083255e+01 1.133289e+01 1.130142e+01 1.173351e+01 1.162199e+01 1.198710e+01 1.179484e+01 1.209533e+01 1.182314e+01 1.206212e+01 1.171218e+01 1.189322e+01 1.146893e+01 1.159580e+01 1.110165e+01 1.117812e+01 1.061950e+01 
1.091474e+01 1.026656e+01 1.027338e+01 9.571823e+00 9.538063e+00 8.790876e+00 8.719458e+00 7.934798e+00 7.828278e+00 7.014653e+00 6.875244e+00 6.041443e+00 5.871043e+00 5.026081e+00 4.826302e+00 3.979364e+00 3.751557e+00 2.911939e+00 2.657221e+00 1.834255e+00 1.553529e+00 7.565031e-01 4.504717e-01 -3.114645e-01 -6.422748e-01 -1.360226e+00 -1.715438e+00 -2.380892e+00 -2.760232e+00 -3.365204e+00 -3.768442e+00 -4.305636e+00 -4.732497e+00 -5.195482e+00 -5.645539e+00 -6.028927e+00 -6.501479e+00 -6.801106e+00 -7.295037e+00 -7.508127e+00 -8.021771e+00 -8.147077e+00 -8.678083e+00 -8.715989e+00 -9.261208e+00 -9.213772e+00 -9.769170e+00 -9.640112e+00 -1.020072e+01 -9.995336e+00 -1.055522e+01 -1.028024e+01 -1.083257e+01 -1.049590e+01 -1.103297e+01 -1.064345e+01 -1.115686e+01 -1.072389e+01 -1.120463e+01 -1.073782e+01 -1.117653e+01 -1.068531e+01 -1.107241e+01 -1.056565e+01 -1.089164e+01 -1.037727e+01 -1.063295e+01 -1.011767e+01 -1.029441e+01 -9.783427e+00 -9.873444e+00 -9.370341e+00 -9.366970e+00 -8.873653e+00 -8.771647e+00 -8.288438e+00 -8.084255e+00 -7.610101e+00 -7.302200e+00 -6.835011e+00 -6.424117e+00 -5.961212e+00 -5.450543e+00 -4.989169e+00 -4.384590e+00 -3.922478e+00 -3.232545e+00 -2.768445e+00 -2.004303e+00 -1.538447e+00 -7.135703e-01 -2.480015e-01 6.222527e-01 1.083517e+00 1.982505e+00 2.433507e+00 3.344022e+00 3.777091e+00 4.682138e+00 5.088287e+00 5.971849e+00 6.341290e+00 7.189008e+00 7.511729e+00 8.311422e+00 8.577769e+00 9.319774e+00 9.520968e+00 1.019826e+01 1.032682e+01 1.093495e+01 1.098500e+01 1.152185e+01 1.148926e+01 1.195475e+01 1.183721e+01 1.223284e+01 1.202981e+01 1.235827e+01 1.207083e+01 1.233565e+01 1.196636e+01 1.217150e+01 1.172421e+01 1.187381e+01 1.135345e+01 1.145163e+01 1.086405e+01 
1.125594e+01 1.060079e+01 1.057055e+01 9.860330e+00 9.790724e+00 9.033353e+00 8.927440e+00 8.131229e+00 7.991653e+00 7.165255e+00 6.994280e+00 6.146624e+00 5.946178e+00 5.086421e+00 4.858134e+00 3.995610e+00 3.740845e+00 2.885011e+00 2.604891e+00 1.765260e+00 1.460691e+00 6.467514e-01 3.184358e-01 -4.604421e-01 -8.119890e-01 -1.546666e+00 -1.921088e+00 -2.602790e+00 -2.999846e+00 -3.620313e+00 -4.039813e+00 -4.591470e+00 -5.033187e+00 -5.509323e+00 -5.972877e+00 -6.367844e+00 -6.852565e+00 -7.161971e+00 -7.666752e+00 -7.887641e+00 -8.410791e+00 -8.541800e+00 -9.080895e+00 -9.122368e+00 -9.674133e+00 -9.628180e+00 -1.018839e+01 -1.005888e+01 -1.062233e+01 -1.041478e+01 -1.097524e+01 -1.069669e+01 -1.124699e+01 -1.090575e+01 -1.143782e+01 -1.104316e+01 -1.154820e+01 -1.111001e+01 -1.157864e+01 -1.110700e+01 -1.152950e+01 -1.103429e+01 -1.140080e+01 -1.089127e+01 -1.119205e+01 -1.067645e+01 -1.090218e+01 -1.038738e+01 -1.052940e+01 -1.002067e+01 -1.007127e+01 -9.572089e+00 -9.524822e+00 -9.036826e+00 -8.886784e+00 -8.409875e+00 -8.153993e+00 -7.686562e+00 -7.323907e+00 -6.863203e+00 -6.395251e+00 -5.937871e+00 -5.368730e+00 -4.911195e+00 -4.247758e+00 -3.787125e+00 -3.039102e+00 -2.573561e+00 -1.753355e+00 -1.282745e+00 -4.051464e-01 6.867303e-02 9.869826e-01 1.459946e+00 2.401070e+00 2.866937e+00 3.812563e+00 4.263166e+00 5.195424e+00 5.621105e+00 6.523396e+00 6.913580e+00 7.771298e+00 8.115137e+00 8.916204e+00 9.203223e+00 9.938400e+00 1.015908e+01 1.082204e+01 1.096828e+01 1.155549e+01 1.162093e+01 1.213131e+01 1.211150e+01 1.254604e+01 1.243850e+01 1.279978e+01 1.260391e+01 1.289562e+01 1.261257e+01 1.283910e+01 1.247155e+01 1.263764e+01 1.218961e+01 1.230003e+01 1.177665e+01 1.183601e+01 1.124334e+01 
1.157846e+01 1.088751e+01 1.087650e+01 1.012840e+01 1.007779e+01 9.280928e+00 9.193861e+00 8.356996e+00 8.236165e+00 7.368361e+00 7.216018e+00 6.326602e+00 6.144619e+00 5.243140e+00 5.033053e+00 4.129240e+00 3.892289e+00 2.996005e+00 2.733159e+00 1.854345e+00 1.566323e+00 7.149197e-01 4.021989e-01 -4.119424e-01 -7.491154e-01 -1.516344e+00 -1.877934e+00 -2.588937e+00 -2.975081e+00 -3.621038e+00 -4.031983e+00 -4.604748e+00 -5.040755e+00 -5.533063e+00 -5.994282e+00 -6.399965e+00 -6.886281e+00 -7.200499e+00 -7.711362e+00 -7.930819e+00 -8.465068e+00 -8.588200e+00 -9.143892e+00 -9.171020e+00 -9.745280e+00 -9.678685e+00 -1.026759e+01 -1.011152e+01 -1.071001e+01 -1.047060e+01 -1.107249e+01 -1.075758e+01 -1.135554e+01 -1.097443e+01 -1.156009e+01 -1.112317e+01 -1.168724e+01 -1.120561e+01 -1.173809e+01 -1.122310e+01 -1.171342e+01 -1.117619e+01 -1.161352e+01 -1.106443e+01 -1.143791e+01 -1.088620e+01 -1.118520e+01 -1.063854e+01 -1.085298e+01 -1.031711e+01 -1.043777e+01 -9.916359e+00 -9.935163e+00 -9.429690e+00 -9.340063e+00 -8.849929e+00 -8.647141e+00 -8.169913e+00 -7.851448e+00 -7.383287e+00 -6.949200e+00 -6.485434e+00 -5.938683e+00 -5.474496e+00 -4.821192e+00 -4.352367e+00 -3.601908e+00 -3.125558e+00 -2.290569e+00 -1.805779e+00 -9.018389e-01 -4.101292e-01 5.447570e-01 1.039196e+00 2.025351e+00 2.515699e+00 3.512704e+00 3.989821e+00 4.977544e+00 5.430511e+00 6.390115e+00 6.806945e+00 7.721778e+00 8.090200e+00 8.946467e+00 9.254699e+00 1.004186e+01 1.027930e+01 1.099019e+01 1.114790e+01 1.177856e+01 1.184969e+01 1.239901e+01 1.237889e+01 1.284811e+01 1.273429e+01 1.312643e+01 1.291856e+01 1.323790e+01 1.293753e+01 1.318905e+01 1.279937e+01 1.298840e+01 1.251397e+01 1.264582e+01 1.209235e+01 1.217207e+01 1.154619e+01 
1.196582e+01 1.126494e+01 1.121446e+01 1.045449e+01 1.036590e+01 9.555443e+00 9.432007e+00 8.580009e+00 8.424452e+00 7.540151e+00 7.354740e+00 6.447629e+00 6.234231e+00 5.314024e+00 5.074163e+00 4.150764e+00 3.885667e+00 2.969132e+00 2.679756e+00 1.780239e+00 1.467290e+00 5.949730e-01 2.589103e-01 -5.760836e-01 -9.350419e-01 -1.722765e+00 -2.104628e+00 -2.835443e+00 -3.240411e+00 -3.905153e+00 -4.333553e+00 -4.923722e+00 -5.375909e+00 -5.883881e+00 -6.360099e+00 -6.779370e+00 -7.279586e+00 -7.605012e+00 -8.128731e+00 -8.356775e+00 -8.902844e+00 -9.031783e+00 -9.598205e+00 -9.628300e+00 -1.021207e+01 -1.014566e+01 -1.074265e+01 -1.058416e+01 -1.118903e+01 -1.094490e+01 -1.155107e+01 -1.122956e+01 -1.182927e+01 -1.144018e+01 -1.202459e+01 -1.157891e+01 -1.213821e+01 -1.164766e+01 -1.217132e+01 -1.164790e+01 -1.212487e+01 -1.158030e+01 -1.199932e+01 -1.144454e+01 -1.179437e+01 -1.123905e+01 -1.150882e+01 -1.096091e+01 -1.114041e+01 -1.060577e+01 -1.068579e+01 -1.016797e+01 -1.014059e+01 -9.640776e+00 -9.499731e+00 -9.016787e+00 -8.757815e+00 -8.288597e+00 -7.909814e+00 -7.449619e+00 -6.951881e+00 -6.495085e+00 -5.882332e+00 -5.423144e+00 -4.702659e+00 -4.235951e+00 -3.418481e+00 -2.940604e+00 -2.040293e+00 -1.549786e+00 -5.838434e-01 -8.196582e-02 9.299249e-01 1.438930e+00 2.475469e+00 2.984407e+00 4.023722e+00 4.522786e+00 5.543576e+00 6.020943e+00 7.003585e+00 7.446212e+00 8.373712e+00 8.768214e+00 9.626898e+00 9.960414e+00 1.074030e+01 1.100126e+01 1.169609e+01 1.187480e+01 1.248180e+01 1.257080e+01 1.309017e+01 1.308446e+01 1.351881e+01 1.341577e+01 1.376944e+01 1.356873e+01 1.384718e+01 1.355048e+01 1.375975e+01 1.337047e+01 1.351674e+01 1.303970e+01 1.312896e+01 1.257017e+01 1.260801e+01 1.197437e+01 