# vtk DataFile Version 2.0
Comment goes here
ASCII

DATASET STRUCTURED_POINTS
FIELD FieldData 1
TIME 1 1 double
0.02500000
DIMENSIONS    128   128   1

ORIGIN    0.000   0.000   0.000
SPACING   0.039062 0.039062   1.000

POINT_DATA   16384
SCALARS P double
LOOKUP_TABLE default

-2.190332e+01 -2.036060e+01 -2.456963e+01 -2.310082e+01 -2.718810e+01 -2.580910e+01 -2.974042e+01 -2.846691e+01 -3.220887e+01 -3.105601e+01 -3.457638e+01 -3.355843e+01 -3.682655e+01 -3.595657e+01 -3.894378e+01 -3.823328e+01 -4.091342e+01 -4.037208e+01 -4.272198e+01 -4.235738e+01 -4.435735e+01 -4.417475e+01 -4.580900e+01 -4.581119e+01 -4.706818e+01 -4.725533e+01 -4.812805e+01 -4.849769e+01 -4.898373e+01 -4.953067e+01 -4.963223e+01 -5.034860e+01 -5.007230e+01 -5.094755e+01 -5.030412e+01 -5.132509e+01 -5.032895e+01 -5.147991e+01 -5.014862e+01 -5.141141e+01 -4.976511e+01 -5.111925e+01 -4.918000e+01 -5.060289e+01 -4.839410e+01 -4.986132e+01 -4.740719e+01 -4.889280e+01 -4.621784e+01 -4.769485e+01 -4.482361e+01 -4.626451e+01 -4.322140e+01 -4.459877e+01 -4.140811e+01 -4.269536e+01 -3.938156e+01 -4.055370e+01 -3.714171e+01 -3.817613e+01 -3.469191e+01 -3.556922e+01 -3.204038e+01 -3.274512e+01 -2.920145e+01 -2.972266e+01 -2.619663e+01 -2.652833e+01 -2.305533e+01 -2.319662e+01 -1.981494e+01 -1.976988e+01 -1.652037e+01 -1.629756e+01 -1.322290e+01 -1.283472e+01 -9.978428e+00 -9.440074e+00 -6.845232e+00 -6.173604e+00 -3.881460e+00 -3.093985e+00 -1.142539e+00 -2.560671e-01 1.321245e+00 2.291380e+00 3.466794e+00 4.507479e+00 5.259729e+00 6.360494e+00 6.675312e+00 7.828457e+00 7.698747e+00 8.899208e+00 8.324904e+00 9.569904e+00 8.557574e+00 9.846119e+00 8.408369e+00 9.740656e+00 7.895398e+00 9.272210e+00 7.041864e+00 8.463985e+00 5.874675e+00 7.342381e+00 4.423161e+00 5.935797e+00 2.717956e+00 4.273613e+00 7.900732e-01 2.385366e+00 -1.329816e+00 3.001179e-01 -3.611903e+00 -1.953985e+00 -6.027588e+00 -4.349992e+00 -8.549671e+00 -6.862281e+00 -1.115241e+01 -9.466582e+00 -1.381152e+01 -1.213991e+01 -1.650403e+01 -1.486044e+01 -1.920819e+01 -1.760734e+01 
-2.026127e+01 -1.872324e+01 -2.278515e+01 -2.132590e+01 -2.526886e+01 -2.390453e+01 -2.769608e+01 -2.644260e+01 -3.005123e+01 -2.892396e+01 -3.231934e+01 -3.133274e+01 -3.448611e+01 -3.365334e+01 -3.653786e+01 -3.587045e+01 -3.846160e+01 -3.796915e+01 -4.024518e+01 -3.993504e+01 -4.187735e+01 -4.175444e+01 -4.334796e+01 -4.341463e+01 -4.464812e+01 -4.490402e+01 -4.577029e+01 -4.621237e+01 -4.670843e+01 -4.733095e+01 -4.745798e+01 -4.825260e+01 -4.801585e+01 -4.897165e+01 -4.838020e+01 -4.948383e+01 -4.855024e+01 -4.978597e+01 -4.852586e+01 -4.987570e+01 -4.830719e+01 -4.975102e+01 -4.789420e+01 -4.940989e+01 -4.728628e+01 -4.884989e+01 -4.648189e+01 -4.806794e+01 -4.547840e+01 -4.706019e+01 -4.427210e+01 -4.582220e+01 -4.285852e+01 -4.434926e+01 -4.123296e+01 -4.263713e+01 -3.939139e+01 -4.068300e+01 -3.733163e+01 -3.848667e+01 -3.505467e+01 -3.605200e+01 -3.256615e+01 -3.338831e+01 -2.987779e+01 -3.051174e+01 -2.700863e+01 -2.744623e+01 -2.398580e+01 -2.422420e+01 -2.084489e+01 -2.088643e+01 -1.762949e+01 -1.748143e+01 -1.439017e+01 -1.406400e+01 -1.118272e+01 -1.069321e+01 -8.065882e+00 -7.429948e+00 -5.098730e+00 -4.334253e+00 -2.337992e+00 -1.462615e+00 1.645178e-01 1.134399e+00 2.364063e+00 3.414084e+00 4.224623e+00 5.342948e+00 5.719894e+00 6.897411e+00 6.833642e+00 8.063883e+00 7.559461e+00 8.838297e+00 7.900035e+00 9.225200e+00 7.866024e+00 9.236551e+00 7.474736e+00 8.890364e+00 6.748695e+00 8.209292e+00 5.714227e+00 7.219282e+00 4.400151e+00 5.948349e+00 2.836637e+00 4.425528e+00 1.054248e+00 2.680010e+00 -9.168078e-01 7.404885e-01 -3.047225e+00 -1.365321e+00 -5.308976e+00 -3.610983e+00 -7.675531e+00 -5.971513e+00 -1.012195e+01 -8.423417e+00 -1.262489e+01 -1.094466e+01 -1.516250e+01 -1.351454e+01 -1.771436e+01 -1.611357e+01 
-2.191962e+01 -2.036888e+01 -2.459516e+01 -2.311828e+01 -2.722253e+01 -2.583556e+01 -2.978342e+01 -2.850222e+01 -3.226014e+01 -3.110002e+01 -3.463558e+01 -3.361100e+01 -3.689332e+01 -3.601750e+01 -3.901769e+01 -3.830230e+01 -4.099396e+01 -4.044884e+01 -4.280857e+01 -4.244140e+01 -4.444931e+01 -4.426545e+01 -4.590558e+01 -4.590789e+01 -4.716860e+01 -4.735730e+01 -4.823151e+01 -4.860414e+01 -4.908946e+01 -4.964084e+01 -4.973955e+01 -5.046177e+01 -5.018064e+01 -5.106312e+01 -5.041307e+01 -5.144258e+01 -5.043827e+01 -5.159900e+01 -5.025827e+01 -5.153195e+01 -4.987519e+01 -5.124122e+01 -4.929077e+01 -5.072638e+01 -4.850588e+01 -4.998643e+01 -4.752028e+01 -4.901959e+01 -4.633243e+01 -4.782322e+01 -4.493967e+01 -4.639410e+01 -4.333855e+01 -4.472885e+01 -4.152550e+01 -4.282471e+01 -3.949782e+01 -4.068058e+01 -3.725485e+01 -3.829822e+01 -3.479938e+01 -3.568364e+01 -3.213907e+01 -3.284850e+01 -2.928782e+01 -2.981135e+01 -2.626696e+01 -2.659856e+01 -2.310590e+01 -2.324477e+01 -1.984234e+01 -1.979281e+01 -1.652182e+01 -1.629283e+01 -1.319647e+01 -1.280087e+01 -9.923247e+00 -9.376767e+00 -6.761630e+00 -6.081704e+00 -3.770964e+00 -2.975525e+00 -1.007791e+00 -1.141142e-01 1.476664e+00 2.452932e+00 3.638611e+00 4.684174e+00 5.443260e+00 6.547599e+00 6.865750e+00 8.021238e+00 7.891428e+00 9.093174e+00 8.515532e+00 9.761001e+00 8.742384e+00 1.003086e+01 8.584227e+00 9.916204e+00 8.059849e+00 9.436382e+00 7.193118e+00 8.615237e+00 6.011559e+00 7.479741e+00 4.545045e+00 6.058787e+00 2.824656e+00 4.382156e+00 8.817563e-01 2.479691e+00 -1.252728e+00 3.806711e-01 -3.548820e+00 -1.886620e+00 -5.977826e+00 -4.295163e+00 -8.512507e+00 -6.819324e+00 -1.112714e+01 -9.434862e+00 -1.379747e+01 -1.211885e+01 -1.650060e+01 -1.484955e+01 -1.921485e+01 -1.760620e+01 
-2.028811e+01 -1.873383e+01 -2.282860e+01 -2.135297e+01 -2.532808e+01 -2.394758e+01 -2.777036e+01 -2.650126e+01 -3.013991e+01 -2.899796e+01 -3.242183e+01 -3.142186e+01 -3.460182e+01 -3.375736e+01 -3.666618e+01 -3.598910e+01 -3.860188e+01 -3.810206e+01 -4.039666e+01 -4.008171e+01 -4.203919e+01 -4.191422e+01 -4.351921e+01 -4.358665e+01 -4.482772e+01 -4.508728e+01 -4.595714e+01 -4.640575e+01 -4.690138e+01 -4.753325e+01 -4.765595e+01 -4.846262e+01 -4.821785e+01 -4.918828e+01 -4.858544e+01 -4.970614e+01 -4.875818e+01 -5.001327e+01 -4.873624e+01 -5.010754e+01 -4.852007e+01 -4.998723e+01 -4.810989e+01 -4.965052e+01 -4.750528e+01 -4.909511e+01 -4.670475e+01 -4.831790e+01 -4.570554e+01 -4.731483e+01 -4.450358e+01 -4.608100e+01 -4.309378e+01 -4.461103e+01 -4.147061e+01 -4.289976e+01 -3.962896e+01 -4.094325e+01 -3.756541e+01 -3.874009e+01 -3.527969e+01 -3.629291e+01 -3.277623e+01 -3.360993e+01 -3.006578e+01 -3.070648e+01 -2.716677e+01 -2.760615e+01 -2.410625e+01 -2.434153e+01 -2.092030e+01 -2.095421e+01 -1.765368e+01 -1.749414e+01 -1.435866e+01 -1.401807e+01 -1.109323e+01 -1.058741e+01 -7.918571e+00 -7.265580e+00 -4.896301e+00 -4.115087e+00 -2.085501e+00 -1.194637e+00 4.600147e-01 1.443424e+00 2.694019e+00 3.755169e+00 4.579587e+00 5.706478e+00 6.090119e+00 7.273729e+00 7.209639e+00 8.443805e+00 7.932467e+00 9.213511e+00 8.262353e+00 9.588551e+00 8.211244e+00 9.582196e+00 7.797821e+00 9.213810e+00 7.045967e+00 8.507347e+00 5.983270e+00 7.489937e+00 4.639660e+00 6.190611e+00 3.046227e+00 4.639238e+00 1.234265e+00 2.865654e+00 -7.654804e-01 8.990161e-01 -2.923336e+00 -1.232654e+00 -5.211057e+00 -3.502757e+00 -7.602015e+00 -5.886253e+00 -1.007127e+01 -8.359687e+00 -1.259553e+01 -1.090112e+01 -1.515308e+01 -1.349001e+01 -1.772362e+01 -1.610702e+01 
-2.196894e+01 -2.039403e+01 -2.467216e+01 -2.317092e+01 -2.732618e+01 -2.591515e+01 -2.991280e+01 -2.860834e+01 -3.241434e+01 -3.123230e+01 -3.481365e+01 -3.376902e+01 -3.709416e+01 -3.620068e+01 -3.924003e+01 -3.850986e+01 -4.123630e+01 -4.067968e+01 -4.306911e+01 -4.269414e+01 -4.472603e+01 -4.453834e+01 -4.619623e+01 -4.619888e+01 -4.747079e+01 -4.766413e+01 -4.854281e+01 -4.892443e+01 -4.940753e+01 -4.997224e+01 -5.006228e+01 -5.080210e+01 -5.050629e+01 -5.141050e+01 -5.074038e+01 -5.179559e+01 -5.076652e+01 -5.195669e+01 -5.058734e+01 -5.189387e+01 -5.020547e+01 -5.160736e+01 -4.962307e+01 -5.109705e+01 -4.884124e+01 -5.036205e+01 -4.785971e+01 -4.940042e+01 -4.667663e+01 -4.820908e+01 -4.528862e+01 -4.678401e+01 -4.369121e+01 -4.512070e+01 -4.187945e+01 -4.321496e+01 -3.984898e+01 -4.106400e+01 -3.759730e+01 -3.866780e+01 -3.512534e+01 -3.603066e+01 -3.243908e+01 -3.316276e+01 -2.955112e+01 -3.008162e+01 -2.648207e+01 -2.681327e+01 -2.326140e+01 -2.339281e+01 -1.992775e+01 -1.986441e+01 -1.652848e+01 -1.628048e+01 -1.311838e+01 -1.270001e+01 -9.757728e+00 -9.186322e+00 -6.509633e+00 -5.804301e+00 -3.437155e+00 -2.617387e+00 -6.002709e-01 3.153469e-01 1.946913e+00 2.941775e+00 4.158489e+00 5.218749e+00 5.998429e+00 7.113430e+00 7.441525e+00 8.603882e+00 8.473597e+00 9.678966e+00 9.091039e+00 1.033764e+01 9.299827e+00 1.058783e+01 9.114164e+00 1.044495e+01 8.554917e+00 9.930383e+00 7.647995e+00 9.069917e+00 6.422805e+00 7.892267e+00 4.910854e+00 6.427813e+00 3.144572e+00 4.707541e+00 1.156372e+00 2.762209e+00 -1.022065e+00 6.217388e-01 -3.360267e+00 -1.685186e+00 -5.829267e+00 -4.131354e+00 -8.401739e+00 -6.691104e+00 -1.105200e+01 -9.340295e+00 -1.375594e+01 -1.205619e+01 -1.649087e+01 -1.481730e+01 -1.923534e+01 -1.760313e+01 
-2.034284e+01 -1.875577e+01 -2.291643e+01 -2.140773e+01 -2.544738e+01 -2.403419e+01 -2.791969e+01 -2.661901e+01 -3.031802e+01 -2.914635e+01 -3.262756e+01 -3.160050e+01 -3.483404e+01 -3.396586e+01 -3.692370e+01 -3.622697e+01 -3.888340e+01 -3.836862e+01 -4.070071e+01 -4.037598e+01 -4.236408e+01 -4.223487e+01 -4.386303e+01 -4.393199e+01 -4.518835e+01 -4.545527e+01 -4.633230e+01 -4.679406e+01 -4.728875e+01 -4.793941e+01 -4.805327e+01 -4.888417e+01 -4.862308e+01 -4.962294e+01 -4.899694e+01 -5.015197e+01 -4.917482e+01 -5.046882e+01 -4.915750e+01 -5.057194e+01 -4.894608e+01 -5.046019e+01 -4.854138e+01 -5.013224e+01 -4.794339e+01 -4.958609e+01 -4.715076e+01 -4.881863e+01 -4.616050e+01 -4.782539e+01 -4.496786e+01 -4.660062e+01 -4.356653e+01 -4.513754e+01 -4.194923e+01 -4.342911e+01 -4.010866e+01 -4.146909e+01 -3.803885e+01 -3.925351e+01 -3.573681e+01 -3.678240e+01 -3.320445e+01 -3.406164e+01 -3.045040e+01 -3.110479e+01 -2.749175e+01 -2.793460e+01 -2.435530e+01 -2.458396e+01 -2.107812e+01 -2.109610e+01 -1.770730e+01 -1.752388e+01 -1.429867e+01 -1.392815e+01 -1.091477e+01 -1.037521e+01 -7.621932e+00 -6.933734e+00 -4.487034e+00 -3.671397e+00 -1.574074e+00 -6.515064e-01 1.058989e+00 2.069922e+00 3.362861e+00 4.446461e+00 5.298799e+00 6.442758e+00 6.839650e+00 8.035175e+00 7.970049e+00 9.211639e+00 8.685882e+00 9.970830e+00 8.993164e+00 1.032089e+01 8.906532e+00 1.027781e+01 8.447522e+00 9.863767e+00 7.642817e+00 9.105377e+00 6.522586e+00 8.032174e+00 5.119006e+00 6.675251e+00 3.465026e+00 5.066143e+00 1.593390e+00 3.235969e+00 -4.640943e-01 1.214800e+00 -2.677044e+00 -9.687593e-01 -5.016804e+00 -3.287800e+00 -7.456578e+00 -5.717201e+00 -9.971442e+00 -8.233602e+00 -1.253827e+01 -1.081529e+01 -1.513557e+01 -1.344202e+01 -1.774333e+01 -1.609483e+01 
-2.205260e+01 -2.043691e+01 -2.480179e+01 -2.325944e+01 -2.750017e+01 -2.604848e+01 -3.012967e+01 -2.878588e+01 -3.267266e+01 -3.145352e+01 -3.511191e+01 -3.403329e+01 -3.743062e+01 -3.650717e+01 -3.961262e+01 -3.885732e+01 -4.164252e+01 -4.106637e+01 -4.350601e+01 -4.311771e+01 -4.519016e+01 -4.499586e+01 -4.668378e+01 -4.668687e+01 -4.797764e+01 -4.817868e+01 -4.906478e+01 -4.946143e+01 -4.994057e+01 -5.052761e+01 -5.060274e+01 -5.137206e+01 -5.105114e+01 -5.199183e+01 -5.128745e+01 -5.238580e+01 -5.131461e+01 -5.255422e+01 -5.113626e+01 -5.249803e+01 -5.075603e+01 -5.221829e+01 -5.017681e+01 -5.171547e+01 -4.940018e+01 -5.098895e+01 -4.842588e+01 -5.003658e+01 -4.725155e+01 -4.885458e+01 -4.587270e+01 -4.743758e+01 -4.428308e+01 -4.577916e+01 -4.247537e+01 -4.387263e+01 -4.044231e+01 -4.171230e+01 -3.817818e+01 -3.929498e+01 -3.568061e+01 -3.662187e+01 -3.295253e+01 -3.370046e+01 -3.000415e+01 -3.054636e+01 -2.685468e+01 -2.718483e+01 -2.353357e+01 -2.365170e+01 -2.008101e+01 -1.999341e+01 -1.654750e+01 -1.626621e+01 -1.299248e+01 -1.253432e+01 -9.481994e+00 -8.867173e+00 -6.085610e+00 -5.336183e+00 -2.872917e+00 -2.011118e+00 9.007434e-02 1.043362e+00 2.744228e+00 3.770735e+00 5.039980e+00 6.124933e+00 6.939217e+00 8.071772e+00 8.416230e+00 9.589482e+00 9.457782e+00 1.066840e+01 1.006239e+01 1.130996e+01 1.023899e+01 1.152524e+01 1.000526e+01 1.133315e+01 9.385709e+00 1.075860e+01 8.409779e+00 9.830725e+00 7.110102e+00 8.581208e+00 5.520965e+00 7.042951e+00 3.677061e+00 5.248951e+00 1.612536e+00 3.231473e+00 -6.396961e-01 1.021481e+00 -3.048380e+00 -1.351718e+00 -5.584145e+00 -3.860631e+00 -8.219559e+00 -6.479597e+00 -1.092907e+01 -9.184685e+00 -1.368883e+01 -1.195351e+01 -1.647653e+01 -1.476503e+01 -1.927111e+01 -1.759922e+01 
-2.042753e+01 -1.879055e+01 -2.305049e+01 -2.149137e+01 -2.562839e+01 -2.416529e+01 -2.814560e+01 -2.679663e+01 -3.058702e+01 -2.936985e+01 -3.293800e+01 -3.186940e+01 -3.518430e+01 -3.427972e+01 -3.731210e+01 -3.658519e+01 -3.930807e+01 -3.877027e+01 -4.115948e+01 -4.081967e+01 -4.285445e+01 -4.271865e+01 -4.438211e+01 -4.445329e+01 -4.573289e+01 -4.601093e+01 -4.689878e+01 -4.738047e+01 -4.787352e+01 -4.855268e+01 -4.865276e+01 -4.952039e+01 -4.923407e+01 -5.027848e+01 -4.961677e+01 -5.082376e+01 -4.980169e+01 -5.115458e+01 -4.979062e+01 -5.127037e+01 -4.958571e+01 -5.117097e+01 -4.918882e+01 -5.085590e+01 -4.860067e+01 -5.032375e+01 -4.782030e+01 -4.957152e+01 -4.684446e+01 -4.859424e+01 -4.566742e+01 -4.738488e+01 -4.428106e+01 -4.593456e+01 -4.267540e+01 -4.423333e+01 -4.083967e+01 -4.227129e+01 -3.876382e+01 -4.004033e+01 -3.644050e+01 -3.753622e+01 -3.386737e+01 -3.476092e+01 -3.104951e+01 -3.172496e+01 -2.800167e+01 -2.844950e+01 -2.475000e+01 -2.496773e+01 -2.133300e+01 -2.132532e+01 -1.780136e+01 -1.757977e+01 -1.421661e+01 -1.379841e+01 -1.064856e+01 -1.005542e+01 -7.171840e+00 -6.427995e+00 -3.861814e+00 -2.992087e+00 -7.903664e-01 1.816312e-01 1.977945e+00 3.031343e+00 4.389018e+00 5.506756e+00 6.401353e+00 7.570716e+00 7.987093e+00 9.199751e+00 9.132032e+00 1.038364e+01 9.834720e+00 1.112418e+01 1.010490e+01 1.143351e+01 9.961574e+00 1.133200e+01 9.430814e+00 1.084625e+01 8.543717e+00 1.000706e+01 7.334458e+00 8.847674e+00 5.838664e+00 7.402318e+00 4.092092e+00 5.705043e+00 2.129644e+00 3.788862e+00 -1.532680e-02 1.685166e+00 -2.311434e+00 -5.766174e-01 -4.729474e+00 -2.969182e+00 -7.242468e+00 -5.467347e+00 -9.825584e+00 -8.047950e+00 -1.245598e+01 -1.068966e+01 -1.511257e+01 -1.337275e+01 -1.777584e+01 -1.607883e+01 
-2.217269e+01 -2.049891e+01 -2.498594e+01 -2.338493e+01 -2.774624e+01 -2.623647e+01 -3.043579e+01 -2.903572e+01 -3.303700e+01 -3.176467e+01 -3.553252e+01 -3.440513e+01 -3.790524e+01 -3.693871e+01 -4.013846e+01 -3.934699e+01 -4.221615e+01 -4.161182e+01 -4.412328e+01 -4.371570e+01 -4.584619e+01 -4.564219e+01 -4.737303e+01 -4.737649e+01 -4.869413e+01 -4.890588e+01 -4.980233e+01 -5.022012e+01 -5.069319e+01 -5.131171e+01 -5.136498e+01 -5.217596e+01 -5.181851e+01 -5.281073e+01 -5.205670e+01 -5.321609e+01 -5.208402e+01 -5.339364e+01 -5.190568e+01 -5.334579e+01 -5.152682e+01 -5.307487e+01 -5.095160e+01 -5.258236e+01 -5.018240e+01 -5.186815e+01 -4.921912e+01 -5.092995e+01 -4.805878e+01 -4.976301e+01 -4.669535e+01 -4.836013e+01 -4.512007e+01 -4.671212e+01 -4.332214e+01 -4.480864e+01 -4.129000e+01 -4.263959e+01 -3.901304e+01 -4.019700e+01 -3.648379e+01 -3.747721e+01 -3.370042e+01 -3.448342e+01 -3.066924e+01 -3.122809e+01 -2.740710e+01 -2.773504e+01 -2.394313e+01 -2.404086e+01 -2.031960e+01 -2.019527e+01 -1.659165e+01 -1.626024e+01 -1.282566e+01 -1.230780e+01 -9.096428e+00 -8.416713e+00 -5.483332e+00 -4.668319e+00 -2.065890e+00 -1.142000e+00 1.080746e+00 2.089160e+00 3.889891e+00 4.962095e+00 6.306590e+00 7.426496e+00 8.289780e+00 9.446381e+00 9.813239e+00 1.100048e+01 1.086539e+01 1.208159e+01 1.144817e+01 1.269507e+01 1.157514e+01 1.285686e+01 1.126928e+01 1.259117e+01 1.056057e+01 1.192817e+01 9.483684e+00 1.090189e+01 8.075965e+00 9.548349e+00 6.375690e+00 7.904026e+00 4.420745e+00 6.004738e+00 2.247669e+00 3.884820e+00 -1.089687e-01 1.576616e+00 -2.616911e+00 -8.897756e-01 -5.246320e+00 -3.486567e+00 -7.969722e+00 -6.188187e+00 -1.076183e+01 -8.971084e+00 -1.359927e+01 -1.181345e+01 -1.646033e+01 -1.469493e+01 -1.932460e+01 -1.759624e+01 
-2.054528e+01 -1.884035e+01 -2.323348e+01 -2.160561e+01 -2.587353e+01 -2.434224e+01 -2.845029e+01 -2.703520e+01 -3.094901e+01 -2.966939e+01 -3.335527e+01 -3.222955e+01 -3.565488e+01 -3.470013e+01 -3.783390e+01 -3.706531e+01 -3.987873e+01 -3.930910e+01 -4.177625e+01 -4.141551e+01 -4.351402e+01 -4.336897e+01 -4.508060e+01 -4.515462e+01 -4.646585e+01 -4.675891e+01 -4.766130e+01 -4.817000e+01 -4.866043e+01 -4.937820e+01 -4.945895e+01 -5.037625e+01 -5.005484e+01 -5.115943e+01 -5.044826e+01 -5.172535e+01 -5.064123e+01 -5.207358e+01 -5.063706e+01 -5.220499e+01 -5.043956e+01 -5.212097e+01 -5.005216e+01 -5.182247e+01 -4.947689e+01 -5.130910e+01 -4.871351e+01 -5.057823e+01 -4.775867e+01 -4.962444e+01 -4.660546e+01 -4.843907e+01 -4.524338e+01 -4.701045e+01 -4.365873e+01 -4.532452e+01 -4.183579e+01 -4.336616e+01 -3.975858e+01 -4.112118e+01 -3.741325e+01 -3.857893e+01 -3.479105e+01 -3.573534e+01 -3.189149e+01 -3.259611e+01 -2.872547e+01 -2.917962e+01 -2.531779e+01 -2.551906e+01 -2.170866e+01 -2.166338e+01 -1.795384e+01 -1.767666e+01 -1.412303e+01 -1.363572e+01 -1.029675e+01 -9.626346e+00 -6.561853e+00 -5.738220e+00 -3.006182e+00 -2.059521e+00 2.868224e-01 1.328368e+00 3.243052e+00 4.355316e+00 5.801600e+00 6.965666e+00 7.917249e+00 9.119993e+00 9.561489e+00 1.079545e+01 1.072217e+01 1.198485e+01 1.140202e+01 1.269483e+01 1.161644e+01 1.294346e+01 1.139084e+01 1.275754e+01 1.075791e+01 1.217000e+01 9.754983e+00 1.121752e+01 8.421852e+00 9.938501e+00 6.798865e+00 8.371430e+00 4.925552e+00 6.553706e+00 2.839642e+00 4.520803e+00 5.764546e-01 2.305779e+00 -1.831415e+00 -6.096388e-02 -4.354168e+00 -2.551711e+00 -6.964713e+00 -5.141322e+00 -9.638461e+00 -7.807006e+00 -1.235305e+01 -1.052805e+01 -1.508805e+01 -1.328548e+01 -1.782463e+01 -1.606174e+01 
-2.233204e+01 -2.058185e+01 -2.522709e+01 -2.354876e+01 -2.806670e+01 -2.648022e+01 -3.083344e+01 -2.935889e+01 -3.350984e+01 -3.216699e+01 -3.607837e+01 -3.488616e+01 -3.852146e+01 -3.749757e+01 -4.082171e+01 -3.998197e+01 -4.296216e+01 -4.232013e+01 -4.492671e+01 -4.449320e+01 -4.670062e+01 -4.648340e+01 -4.827105e+01 -4.827459e+01 -4.962758e+01 -4.985304e+01 -5.076274e+01 -5.120790e+01 -5.167222e+01 -5.233166e+01 -5.235503e+01 -5.322019e+01 -5.281328e+01 -5.387258e+01 -5.305168e+01 -5.429059e+01 -5.307685e+01 -5.447784e+01 -5.289633e+01 -5.443885e+01 -5.251751e+01 -5.417797e+01 -5.194646e+01 -5.369826e+01 -5.118690e+01 -5.300051e+01 -5.023922e+01 -5.208247e+01 -4.909981e+01 -5.093834e+01 -4.776076e+01 -4.955859e+01 -4.621001e+01 -4.793032e+01 -4.443205e+01 -4.603822e+01 -4.240934e+01 -4.386604e+01 -4.012433e+01 -4.139889e+01 -3.756216e+01 -3.862604e+01 -3.471388e+01 -3.554416e+01 -3.157987e+01 -3.216071e+01 -2.817306e+01 -2.849691e+01 -2.452161e+01 -2.458996e+01 -2.067035e+01 -2.049383e+01 -1.668069e+01 -1.627841e+01 -1.262879e+01 -1.202687e+01 -8.601968e+00 -7.831301e+00 -4.693657e+00 -3.787304e+00 -9.976331e-01 1.196956e-02 2.397915e+00 3.481483e+00 5.415667e+00 6.549051e+00 7.993259e+00 9.158668e+00 1.008581e+01 1.127223e+01 1.166683e+01 1.286964e+01 1.272754e+01 1.394761e+01 1.327511e+01 1.451741e+01 1.332992e+01 1.460205e+01 1.292258e+01 1.423326e+01 1.209078e+01 1.344858e+01 1.087644e+01 1.228874e+01 9.323243e+00 1.079553e+01 7.474770e+00 9.010132e+00 5.373031e+00 6.971981e+00 3.057568e+00 4.717974e+00 5.649326e-01 2.282095e+00 -2.071502e+00 -3.047081e-01 -4.821487e+00 -3.014435e+00 -7.657675e+00 -5.821795e+00 -1.055529e+01 -8.703873e+00 -1.349173e+01 -1.163974e+01 -1.644616e+01 -1.461005e+01 -1.939910e+01 -1.759657e+01 
-2.070007e+01 -1.890800e+01 -2.346888e+01 -2.175259e+01 -2.618587e+01 -2.456663e+01 -2.883654e+01 -2.733593e+01 -3.140665e+01 -3.004602e+01 -3.388205e+01 -3.268203e+01 -3.624863e+01 -3.522848e+01 -3.849231e+01 -3.766927e+01 -4.059912e+01 -3.998780e+01 -4.255534e+01 -4.216714e+01 -4.434781e+01 -4.419050e+01 -4.596421e+01 -4.604169e+01 -4.739353e+01 -4.770578e+01 -4.862654e+01 -4.916981e+01 -4.965628e+01 -5.042335e+01 -5.047836e+01 -5.145894e+01 -5.109125e+01 -5.227233e+01 -5.149621e+01 -5.286226e+01 -5.169693e+01 -5.323003e+01 -5.169885e+01 -5.337865e+01 -5.150823e+01 -5.331184e+01 -5.113090e+01 -5.303274e+01 -5.057100e+01 -5.254271e+01 -4.982964e+01 -5.184005e+01 -4.890375e+01 -5.091904e+01 -4.778523e+01 -4.976929e+01 -4.646064e+01 -4.837558e+01 -4.491150e+01 -4.671848e+01 -4.311541e+01 -4.477572e+01 -4.104813e+01 -4.252457e+01 -3.868657e+01 -3.994514e+01 -3.601257e+01 -3.702435e+01 -3.301724e+01 -3.376041e+01 -2.970535e+01 -3.016701e+01 -2.609903e+01 -2.627662e+01 -2.224029e+01 -2.214222e+01 -1.819155e+01 -1.783684e+01 -1.403389e+01 -1.345063e+01 -9.862933e+00 -9.085789e+00 -5.782861e+00 -4.849819e+00 -1.899264e+00 -8.481700e-01 1.688148e+00 2.822791e+00 4.892032e+00 6.081564e+00 7.642320e+00 8.865468e+00 9.889152e+00 1.113254e+01 1.160375e+01 1.286148e+01 1.277747e+01 1.404994e+01 1.341942e+01 1.471178e+01 1.355325e+01 1.487357e+01 1.321347e+01 1.457111e+01 1.244186e+01 1.384599e+01 1.128425e+01 1.274276e+01 9.787807e+00 1.130651e+01 7.998977e+00 9.581183e+00 5.962018e+00 7.608323e+00 3.718085e+00 5.426359e+00 1.304763e+00 3.070246e+00 -1.244062e+00 5.713975e-01 -3.898081e+00 -2.042171e+00 -6.630287e+00 -4.745564e+00 -9.416596e+00 -7.516640e+00 -1.223543e+01 -1.033560e+01 -1.506729e+01 -1.318456e+01 -1.789435e+01 -1.604713e+01 
-2.253406e+01 -2.068781e+01 -2.552813e+01 -2.375239e+01 -2.846416e+01 -2.678079e+01 -3.132523e+01 -2.975636e+01 -3.409405e+01 -3.266162e+01 -3.675287e+01 -3.547812e+01 -3.928352e+01 -3.818639e+01 -4.166764e+01 -4.076613e+01 -4.388698e+01 -4.319656e+01 -4.592394e+01 -4.545701e+01 -4.776220e+01 -4.752768e+01 -4.938744e+01 -4.939053e+01 -5.078811e+01 -5.103027e+01 -5.195610e+01 -5.243510e+01 -5.288721e+01 -5.359735e+01 -5.358133e+01 -5.451368e+01 -5.404229e+01 -5.518481e+01 -5.427727e+01 -5.561490e+01 -5.429587e+01 -5.581048e+01 -5.410894e+01 -5.577915e+01 -5.372710e+01 -5.552816e+01 -5.315929e+01 -5.506300e+01 -5.241136e+01 -5.438606e+01 -5.148470e+01 -5.349551e+01 -5.037530e+01 -5.238450e+01 -4.907313e+01 -5.104078e+01 -4.756203e+01 -4.944683e+01 -4.582044e+01 -4.758079e+01 -4.382281e+01 -4.541814e+01 -4.154206e+01 -4.293439e+01 -3.895293e+01 -4.010865e+01 -3.603615e+01 -3.692798e+01 -3.278312e+01 -3.339206e+01 -2.920054e+01 -2.951760e+01 -2.531434e+01 -2.534176e+01 -2.117212e+01 -2.092375e+01 -1.684354e+01 -1.634411e+01 -1.241812e+01 -1.170136e+01 -8.000573e+00 -7.106272e+00 -3.704061e+00 -2.674456e+00 3.576781e-01 1.481702e+00 4.078333e+00 5.260672e+00 7.366042e+00 8.577971e+00 1.014863e+01 1.137030e+01 1.237661e+01 1.359734e+01 1.402384e+01 1.524143e+01 1.508620e+01 1.630539e+01 1.557868e+01 1.680913e+01 1.553149e+01 1.678572e+01 1.498590e+01 1.627727e+01 1.399008e+01 1.533118e+01 1.259558e+01 1.399700e+01 1.085435e+01 1.232390e+01 8.816614e+00 1.035892e+01 6.529411e+00 8.145832e+00 4.035792e+00 5.724492e+00 1.374481e+00 3.130640e+00 -1.420085e+00 3.959917e-01 -4.317461e+00 -2.451467e+00 -7.290750e+00 -5.387048e+00 -1.031606e+01 -8.388851e+00 -1.337197e+01 -1.143723e+01 -1.643891e+01 -1.451425e+01 -1.949871e+01 -1.760314e+01 
-2.089678e+01 -1.899686e+01 -2.376084e+01 -2.193475e+01 -2.656897e+01 -2.484016e+01 -2.930754e+01 -2.769998e+01 -3.196293e+01 -3.050064e+01 -3.452137e+01 -3.322778e+01 -3.696886e+01 -3.586608e+01 -3.929113e+01 -3.839913e+01 -4.147374e+01 -4.080952e+01 -4.350219e+01 -4.307906e+01 -4.536226e+01 -4.518926e+01 -4.704041e+01 -4.712200e+01 -4.852432e+01 -4.886038e+01 -4.980359e+01 -5.038971e+01 -5.087039e+01 -5.169834e+01 -5.172005e+01 -5.277844e+01 -5.235152e+01 -5.362626e+01 -5.276741e+01 -5.424209e+01 -5.297364e+01 -5.462962e+01 -5.297865e+01 -5.479496e+01 -5.279218e+01 -5.474520e+01 -5.242367e+01 -5.448686e+01 -5.188052e+01 -5.402409e+01 -5.116622e+01 -5.335700e+01 -5.027871e+01 -5.248016e+01 -4.920895e+01 -5.138145e+01 -4.794020e+01 -5.004154e+01 -4.644802e+01 -4.843421e+01 -4.470133e+01 -4.652775e+01 -4.266475e+01 -4.428776e+01 -4.030227e+01 -4.168119e+01 -3.758223e+01 -3.868183e+01 -3.448322e+01 -3.527641e+01 -3.100034e+01 -3.147083e+01 -2.715083e+01 -2.729537e+01 -2.297813e+01 -2.280763e+01 -1.855319e+01 -1.809255e+01 -1.397253e+01 -1.325867e+01 -9.352804e+00 -8.431193e+00 -4.822526e+00 -3.742632e+00 -5.121204e-01 6.774672e-01 3.456161e+00 4.712160e+00 6.976997e+00 8.264776e+00 9.968362e+00 1.126383e+01 1.237495e+01 1.366493e+01 1.416870e+01 1.544998e+01 1.534681e+01 1.662428e+01 1.592797e+01 1.721221e+01 1.594764e+01 1.725240e+01 1.545295e+01 1.679289e+01 1.449797e+01 1.588681e+01 1.313963e+01 1.458882e+01 1.143452e+01 1.295247e+01 9.436606e+00 1.102831e+01 7.195764e+00 8.862754e+00 4.757040e+00 6.497537e+00 2.160410e+00 3.969581e+00 -5.590628e-01 1.311180e+00 -3.370832e+00 -1.449621e+00 -6.248334e+00 -4.288526e+00 -9.168396e+00 -7.184436e+00 -1.211063e+01 -1.011888e+01 -1.505688e+01 -1.307548e+01 -1.799067e+01 -1.603939e+01 
-2.278256e+01 -2.081901e+01 -2.589217e+01 -2.399713e+01 -2.894134e+01 -2.713890e+01 -3.191384e+01 -3.022864e+01 -3.479263e+01 -3.324936e+01 -3.755973e+01 -3.618252e+01 -4.019623e+01 -3.900793e+01 -4.268249e+01 -4.170387e+01 -4.499851e+01 -4.424753e+01 -4.712462e+01 -4.661569e+01 -4.904223e+01 -4.878570e+01 -5.073486e+01 -5.073676e+01 -5.218919e+01 -5.245119e+01 -5.339605e+01 -5.391571e+01 -5.435112e+01 -5.512228e+01 -5.505537e+01 -5.606851e+01 -5.551484e+01 -5.675738e+01 -5.574003e+01 -5.719639e+01 -5.574464e+01 -5.739613e+01 -5.554408e+01 -5.736857e+01 -5.515358e+01 -5.712518e+01 -5.458625e+01 -5.667506e+01 -5.385118e+01 -5.602316e+01 -5.295171e+01 -5.516876e+01 -5.188390e+01 -5.410428e+01 -5.063551e+01 -5.281447e+01 -4.918565e+01 -5.127630e+01 -4.750515e+01 -4.945964e+01 -4.555810e+01 -4.732907e+01 -4.330460e+01 -4.484704e+01 -4.070497e+01 -4.197836e+01 -3.772516e+01 -3.869602e+01 -3.434322e+01 -3.498779e+01 -3.055592e+01 -3.086269e+01 -2.638475e+01 -2.635644e+01 -2.187994e+01 -2.153435e+01 -1.712163e+01 -1.649100e+01 -1.221738e+01 -1.134596e+01 -7.295930e+00 -6.235943e+00 -2.497897e+00 -1.304462e+00 2.035227e+00 3.309448e+00 6.172187e+00 7.481755e+00 9.801514e+00 1.111170e+01 1.283835e+01 1.412695e+01 1.522797e+01 1.648541e+01 1.694598e+01 1.817396e+01 1.799576e+01 1.920484e+01 1.840392e+01 1.961056e+01 1.821465e+01 1.943822e+01 1.748387e+01 1.874398e+01 1.627382e+01 1.758825e+01 1.464848e+01 1.603178e+01 1.267018e+01 1.413289e+01 1.039722e+01 1.194561e+01 7.882483e+00 9.518637e+00 5.172838e+00 6.895012e+00 2.309144e+00 4.112145e+00 -6.733788e-01 1.202229e+00 -3.744529e+00 -1.807182e+00 -6.878374e+00 -4.892492e+00 -1.005247e+01 -8.033342e+00 -1.324707e+01 -1.121189e+01 -1.644444e+01 -1.441214e+01 -1.962816e+01 -1.761927e+01 
-2.114095e+01 -1.911068e+01 -2.411398e+01 -2.215467e+01 -2.702676e+01 -2.516438e+01 -2.986673e+01 -2.812820e+01 -3.262106e+01 -3.103370e+01 -3.527648e+01 -3.386728e+01 -3.781915e+01 -3.661389e+01 -4.023461e+01 -3.925682e+01 -4.250781e+01 -4.177765e+01 -4.462324e+01 -4.415654e+01 -4.656528e+01 -4.637268e+01 -4.831864e+01 -4.840522e+01 -4.986911e+01 -5.023438e+01 -5.120444e+01 -5.184282e+01 -5.231533e+01 -5.321703e+01 -5.319641e+01 -5.434835e+01 -5.384697e+01 -5.523361e+01 -5.427124e+01 -5.587512e+01 -5.447806e+01 -5.627989e+01 -5.447997e+01 -5.645833e+01 -5.429164e+01 -5.642246e+01 -5.392775e+01 -5.618372e+01 -5.340067e+01 -5.575066e+01 -5.271786e+01 -5.512660e+01 -5.187948e+01 -5.430743e+01 -5.087627e+01 -5.327976e+01 -4.968810e+01 -5.201978e+01 -4.828348e+01 -5.049303e+01 -4.662031e+01 -4.865569e+01 -4.464847e+01 -4.645759e+01 -4.231420e+01 -4.384738e+01 -3.956659e+01 -4.077967e+01 -3.636571e+01 -3.722377e+01 -3.269157e+01 -3.317289e+01 -2.855277e+01 -2.865227e+01 -2.399298e+01 -2.372441e+01 -1.909379e+01 -1.848985e+01 -1.397258e+01 -1.308246e+01 -8.775245e+00 -7.659697e+00 -3.664414e+00 -2.389189e+00 1.194768e+00 2.565997e+00 5.648936e+00 7.060852e+00 9.568602e+00 1.097877e+01 1.285647e+01 1.423763e+01 1.545134e+01 1.679146e+01 1.732783e+01 1.862826e+01 1.849268e+01 1.976518e+01 1.897890e+01 2.024195e+01 1.883870e+01 2.011397e+01 1.813652e+01 1.944578e+01 1.694272e+01 1.830550e+01 1.532848e+01 1.676060e+01 1.336205e+01 1.487485e+01 1.110635e+01 1.270654e+01 8.617620e+00 1.030752e+01 5.945019e+00 7.722950e+00 3.130770e+00 4.991545e+00 2.107283e-01 2.146108e+00 -2.784843e+00 -7.857655e-01 -5.830403e+00 -3.780916e+00 -8.904269e+00 -6.819836e+00 -1.198780e+01 -9.885921e+00 -1.506467e+01 -1.296478e+01 -1.812023e+01 -1.604363e+01 