# vtk DataFile Version 2.0
Comment goes here
ASCII

DATASET STRUCTURED_POINTS
FIELD FieldData 1
TIME 1 1 double
0.05000000
DIMENSIONS    128   128   1

ORIGIN    0.000   0.000   0.000
SPACING   0.039062 0.039062   1.000

POINT_DATA   16384
SCALARS P double
LOOKUP_TABLE default

-1.476154e+01 -1.319587e+01 -1.228455e+01 -1.084697e+01 -9.846856e+00 -8.547948e+00 -7.462888e+00 -6.312709e+00 -5.146996e+00 -4.155050e+00 -2.913602e+00 -2.088759e+00 -7.773116e-01 -1.277141e-01 1.247004e+00 1.714055e+00 3.144169e+00 3.422351e+00 4.898718e+00 4.982833e+00 6.494962e+00 6.381096e+00 7.917111e+00 7.602795e+00 9.149452e+00 8.633815e+00 1.017658e+01 9.460492e+00 1.098365e+01 1.006986e+01 1.155672e+01 1.044993e+01 1.188304e+01 1.059000e+01 1.195142e+01 1.048092e+01 1.175256e+01 1.011544e+01 1.127940e+01 9.488466e+00 1.052742e+01 8.597382e+00 9.494956e+00 7.442286e+00 8.183476e+00 6.026265e+00 6.597835e+00 4.355641e+00 4.746505e+00 2.440199e+00 2.641781e+00 2.933936e-01 2.999442e-01 -2.067476e+00 -2.258626e+00 -4.621152e+00 -5.009412e+00 -7.342381e+00 -7.923809e+00 -1.020199e+01 -1.096931e+01 -1.316710e+01 -1.410981e+01 -1.620151e+01 -1.730614e+01 -1.926622e+01 -2.051666e+01 -2.232023e+01 -2.369816e+01 -2.532141e+01 -2.680680e+01 -2.822756e+01 -2.979922e+01 -3.099756e+01 -3.263369e+01 -3.359254e+01 -3.527121e+01 -3.597697e+01 -3.767662e+01 -3.811966e+01 -3.981948e+01 -3.999455e+01 -4.167476e+01 -4.158125e+01 -4.322330e+01 -4.286528e+01 -4.445201e+01 -4.383807e+01 -4.535382e+01 -4.449667e+01 -4.592734e+01 -4.484331e+01 -4.617642e+01 -4.488474e+01 -4.610954e+01 -4.463163e+01 -4.573913e+01 -4.409779e+01 -4.508087e+01 -4.329957e+01 -4.415296e+01 -4.225523e+01 -4.297549e+01 -4.098443e+01 -4.156987e+01 -3.950775e+01 -3.995826e+01 -3.784630e+01 -3.816317e+01 -3.602143e+01 -3.620706e+01 -3.405438e+01 -3.411205e+01 -3.196613e+01 -3.189970e+01 -2.977713e+01 -2.959080e+01 -2.750717e+01 -2.720528e+01 -2.517531e+01 -2.476214e+01 -2.279974e+01 -2.227944e+01 -2.039784e+01 -1.977433e+01 -1.798615e+01 -1.726315e+01 -1.558046e+01 
-1.428277e+01 -1.265901e+01 -1.178893e+01 -1.029236e+01 -9.332982e+00 -7.974064e+00 -6.929189e+00 -5.717925e+00 -4.591781e+00 -3.537661e+00 -2.335117e+00 -1.447048e+00 -1.737930e-01 5.399926e-01 1.877262e+00 2.409321e+00 3.802754e+00 4.146566e+00 5.587026e+00 5.737141e+00 7.214127e+00 7.166329e+00 8.667932e+00 8.419396e+00 9.932317e+00 9.481777e+00 1.099139e+01 1.033929e+01 1.182978e+01 1.097841e+01 1.243292e+01 1.138654e+01 1.278743e+01 1.155234e+01 1.288146e+01 1.146606e+01 1.270506e+01 1.111983e+01 1.225054e+01 1.050804e+01 1.151279e+01 9.627561e+00 1.048966e+01 8.478118e+00 9.182190e+00 7.062511e+00 7.594936e+00 5.386886e+00 5.736181e+00 3.460971e+00 3.618148e+00 1.298277e+00 1.257172e+00 -1.083726e+00 -1.326195e+00 -3.663510e+00 -4.107142e+00 -6.415450e+00 -7.056656e+00 -9.309917e+00 -1.014171e+01 -1.231349e+01 -1.332559e+01 -1.538936e+01 -1.656837e+01 -1.849785e+01 -1.982763e+01 -2.159725e+01 -2.305925e+01 -2.464463e+01 -2.621845e+01 -2.759702e+01 -2.926088e+01 -3.041246e+01 -3.214379e+01 -3.305126e+01 -3.482724e+01 -3.547709e+01 -3.727513e+01 -3.765803e+01 -3.945619e+01 -3.956733e+01 -4.134471e+01 -4.118403e+01 -4.292100e+01 -4.249320e+01 -4.417166e+01 -4.348599e+01 -4.508946e+01 -4.415933e+01 -4.567313e+01 -4.451552e+01 -4.592681e+01 -4.456158e+01 -4.585948e+01 -4.430857e+01 -4.548421e+01 -4.377087e+01 -4.481742e+01 -4.296549e+01 -4.387810e+01 -4.191138e+01 -4.268716e+01 -4.062889e+01 -4.126672e+01 -3.913925e+01 -3.963960e+01 -3.746413e+01 -3.782883e+01 -3.562530e+01 -3.585724e+01 -3.364434e+01 -3.374718e+01 -3.154237e+01 -3.152030e+01 -2.933990e+01 -2.919735e+01 -2.705668e+01 -2.679813e+01 -2.471161e+01 -2.434144e+01 -2.232269e+01 -2.184508e+01 -1.990706e+01 -1.932593e+01 -1.748098e+01 -1.680004e+01 -1.506001e+01 
-1.475349e+01 -1.318202e+01 -1.226862e+01 -1.082550e+01 -9.823189e+00 -8.519007e+00 -7.431544e+00 -6.276384e+00 -5.107965e+00 -4.111367e+00 -2.866819e+00 -2.037701e+00 -7.226731e-01 -6.924057e-02 1.309612e+00 1.779987e+00 3.214847e+00 3.495761e+00 4.977519e+00 5.063691e+00 6.581865e+00 6.469294e+00 8.011992e+00 7.698122e+00 9.252059e+00 8.735939e+00 1.028651e+01 9.568942e+00 1.110033e+01 1.018401e+01 1.167941e+01 1.056901e+01 1.201083e+01 1.071307e+01 1.208322e+01 1.060691e+01 1.188711e+01 1.024313e+01 1.141531e+01 9.616520e+00 1.066316e+01 8.724344e+00 9.628892e+00 7.566601e+00 8.313868e+00 6.146295e+00 6.722868e+00 4.469671e+00 4.864310e+00 2.546456e+00 2.750451e+00 3.900674e-01 3.975659e-01 -1.982205e+00 -2.173939e+00 -4.549075e+00 -4.939473e+00 -7.285210e+00 -7.870305e+00 -1.016130e+01 -1.093373e+01 -1.314424e+01 -1.409341e+01 -1.619755e+01 -1.730981e+01 -1.928189e+01 -2.054092e+01 -2.235583e+01 -2.374308e+01 -2.537675e+01 -2.687198e+01 -2.830198e+01 -2.988376e+01 -3.108991e+01 -3.273622e+01 -3.370120e+01 -3.538994e+01 -3.609993e+01 -3.780941e+01 -3.825462e+01 -3.996391e+01 -4.013902e+01 -4.182825e+01 -4.173264e+01 -4.338322e+01 -4.302104e+01 -4.461576e+01 -4.399576e+01 -4.551889e+01 -4.465404e+01 -4.609141e+01 -4.499833e+01 -4.633737e+01 -4.503563e+01 -4.626550e+01 -4.477684e+01 -4.588849e+01 -4.423601e+01 -4.522226e+01 -4.342972e+01 -4.428527e+01 -4.237643e+01 -4.309787e+01 -4.109598e+01 -4.168169e+01 -3.960914e+01 -4.005911e+01 -3.793719e+01 -3.825284e+01 -3.610164e+01 -3.628553e+01 -3.412390e+01 -3.417945e+01 -3.202505e+01 -3.195627e+01 -2.982567e+01 -2.963690e+01 -2.754565e+01 -2.724131e+01 -2.520409e+01 -2.478855e+01 -2.281924e+01 -2.229666e+01 -2.040847e+01 -1.978279e+01 -1.798829e+01 -1.726321e+01 -1.557446e+01 
-1.426787e+01 -1.263267e+01 -1.175849e+01 -1.025095e+01 -9.287240e+00 -7.917839e+00 -6.868215e+00 -5.647004e+00 -4.515503e+00 -3.452043e+00 -2.243344e+00 -1.346639e+00 -6.625892e-02 6.553374e-01 2.000853e+00 2.539755e+00 3.942668e+00 4.292196e+00 5.743444e+00 5.897978e+00 7.387082e+00 7.342225e+00 8.857251e+00 8.610002e+00 1.013757e+01 9.686490e+00 1.121183e+01 1.055722e+01 1.206433e+01 1.120835e+01 1.268013e+01 1.162696e+01 1.304549e+01 1.180137e+01 1.314819e+01 1.172152e+01 1.297794e+01 1.137925e+01 1.252671e+01 1.076866e+01 1.178914e+01 9.886389e+00 1.076280e+01 8.731944e+00 9.448552e+00 7.307942e+00 7.850776e+00 5.620377e+00 5.977634e+00 3.678859e+00 3.841279e+00 1.496830e+00 1.458029e+00 -9.082559e-01 -1.151503e+00 -3.514801e+00 -3.962359e+00 -6.297015e+00 -6.945268e+00 -9.224978e+00 -1.006682e+01 -1.226484e+01 -1.328976e+01 -1.537921e+01 -1.657352e+01 -1.852770e+01 -1.987487e+01 -2.166772e+01 -2.314878e+01 -2.475542e+01 -2.634949e+01 -2.774680e+01 -2.943165e+01 -3.059891e+01 -3.235153e+01 -3.327113e+01 -3.506831e+01 -3.572634e+01 -3.754513e+01 -3.793196e+01 -3.975017e+01 -3.986084e+01 -4.165735e+01 -4.149182e+01 -4.324683e+01 -4.281002e+01 -4.450525e+01 -4.380678e+01 -4.542559e+01 -4.447940e+01 -4.600694e+01 -4.483062e+01 -4.625389e+01 -4.486798e+01 -4.617593e+01 -4.460305e+01 -4.578669e+01 -4.405072e+01 -4.510315e+01 -4.322849e+01 -4.414488e+01 -4.215577e+01 -4.293331e+01 -4.085333e+01 -4.149110e+01 -3.934281e+01 -3.984152e+01 -3.764624e+01 -3.800802e+01 -3.578574e+01 -3.601379e+01 -3.378319e+01 -3.388149e+01 -3.165997e+01 -3.163299e+01 -2.943681e+01 -2.928921e+01 -2.713360e+01 -2.687007e+01 -2.476934e+01 -2.439438e+01 -2.236209e+01 -2.187993e+01 -1.992896e+01 -1.934353e+01 -1.748617e+01 -1.680110e+01 -1.504916e+01 
-1.472917e+01 -1.314031e+01 -1.222075e+01 -1.076100e+01 -9.752184e+00 -8.432161e+00 -7.337585e+00 -6.167447e+00 -4.991010e+00 -3.980407e+00 -2.726648e+00 -1.884649e+00 -5.589545e-01 1.060514e-01 1.497250e+00 1.977675e+00 3.426731e+00 3.715930e+00 5.213843e+00 5.306273e+00 6.842595e+00 6.733991e+00 8.296782e+00 7.984326e+00 9.560170e+00 9.042669e+00 1.061674e+01 9.894793e+00 1.145100e+01 1.052712e+01 1.204829e+01 1.092705e+01 1.239516e+01 1.108324e+01 1.247972e+01 1.098596e+01 1.229202e+01 1.062740e+01 1.182442e+01 1.000197e+01 1.107187e+01 9.106609e+00 1.003226e+01 7.941007e+00 8.706668e+00 6.507907e+00 7.099643e+00 4.813329e+00 5.219422e+00 2.866820e+00 3.078153e+00 6.816754e-01 6.920769e-01 -1.724854e+00 -1.918323e+00 -4.331404e+00 -4.728248e+00 -7.112414e+00 -7.708594e+00 -1.003816e+01 -1.082609e+01 -1.307491e+01 -1.404362e+01 -1.618533e+01 -1.732066e+01 -1.932899e+01 -2.061401e+01 -2.246318e+01 -2.387865e+01 -2.554385e+01 -2.706881e+01 -2.852683e+01 -3.013915e+01 -3.136898e+01 -3.304601e+01 -3.402958e+01 -3.574869e+01 -3.647153e+01 -3.821059e+01 -3.866242e+01 -4.040018e+01 -4.057540e+01 -4.229179e+01 -4.218977e+01 -4.386601e+01 -4.349116e+01 -4.510991e+01 -4.447150e+01 -4.601683e+01 -4.512858e+01 -4.658611e+01 -4.546556e+01 -4.682248e+01 -4.549020e+01 -4.673538e+01 -4.521414e+01 -4.633828e+01 -4.465213e+01 -4.564787e+01 -4.382140e+01 -4.468339e+01 -4.274103e+01 -4.346593e+01 -4.143143e+01 -4.201781e+01 -3.991391e+01 -4.036210e+01 -3.821026e+01 -3.852209e+01 -3.634250e+01 -3.652099e+01 -3.433247e+01 -3.438153e+01 -3.220170e+01 -3.212577e+01 -2.997109e+01 -2.977488e+01 -2.766080e+01 -2.734905e+01 -2.529012e+01 -2.486739e+01 -2.287740e+01 -2.234797e+01 -2.044001e+01 -1.980783e+01 -1.799441e+01 -1.726311e+01 -1.555622e+01 
-1.423778e+01 -1.257970e+01 -1.169749e+01 -1.016798e+01 -9.195798e+00 -7.805390e+00 -6.746468e+00 -5.505297e+00 -4.363276e+00 -3.281046e+00 -2.060217e+00 -1.146127e+00 1.483499e-01 8.857036e-01 2.247589e+00 2.800333e+00 4.222127e+00 4.583257e+00 6.056048e+00 6.219593e+00 7.732958e+00 7.694157e+00 9.236106e+00 8.991594e+00 1.054858e+01 1.009657e+01 1.165356e+01 1.099404e+01 1.253462e+01 1.166951e+01 1.317611e+01 1.210939e+01 1.356352e+01 1.230134e+01 1.368390e+01 1.223464e+01 1.352623e+01 1.190053e+01 1.308187e+01 1.129257e+01 1.234486e+01 1.040691e+01 1.131231e+01 9.242622e+00 9.984643e+00 7.801961e+00 8.365921e+00 6.090609e+00 6.464055e+00 4.117931e+00 4.291041e+00 1.897211e+00 1.863154e+00 -5.541400e-01 -7.988943e-01 -3.214414e+00 -3.669866e+00 -6.057506e+00 -6.719990e+00 -9.052934e+00 -9.915093e+00 -1.216600e+01 -1.321688e+01 -1.535814e+01 -1.658344e+01 -1.858751e+01 -1.996990e+01 -2.180977e+01 -2.332941e+01 -2.497912e+01 -2.661417e+01 -2.804950e+01 -2.977677e+01 -3.097591e+01 -3.277149e+01 -3.371579e+01 -3.555567e+01 -3.623035e+01 -3.809093e+01 -3.848574e+01 -4.034428e+01 -4.045396e+01 -4.228893e+01 -4.211350e+01 -4.390473e+01 -4.344952e+01 -4.517844e+01 -4.445386e+01 -4.610352e+01 -4.512457e+01 -4.667976e+01 -4.546535e+01 -4.691272e+01 -4.548476e+01 -4.681292e+01 -4.519546e+01 -4.639514e+01 -4.461336e+01 -4.567751e+01 -4.375693e+01 -4.468074e+01 -4.264650e+01 -4.342737e+01 -4.130370e+01 -4.194108e+01 -3.975098e+01 -4.024610e+01 -3.801111e+01 -3.836671e+01 -3.610691e+01 -3.632684e+01 -3.406086e+01 -3.414976e+01 -3.189488e+01 -3.185780e+01 -2.963012e+01 -2.947223e+01 -2.728679e+01 -2.701316e+01 -2.488410e+01 -2.449947e+01 -2.244018e+01 -2.194890e+01 -1.997211e+01 -1.937809e+01 -1.749598e+01 -1.680275e+01 -1.502701e+01 
-1.468805e+01 -1.307022e+01 -1.214066e+01 -1.065316e+01 -9.633840e+00 -8.287343e+00 -7.181246e+00 -5.986032e+00 -4.796556e+00 -3.762460e+00 -2.493649e+00 -1.629988e+00 -2.867743e-01 3.977506e-01 1.809326e+00 2.306759e+00 3.779349e+00 4.082633e+00 5.607426e+00 5.710575e+00 7.277186e+00 7.175476e+00 8.771890e+00 8.462053e+00 1.007464e+01 9.555060e+00 1.116863e+01 1.043954e+01 1.203751e+01 1.110114e+01 1.266572e+01 1.152644e+01 1.303889e+01 1.170332e+01 1.314425e+01 1.162128e+01 1.297104e+01 1.127181e+01 1.251085e+01 1.064871e+01 1.175798e+01 9.748330e+00 1.070975e+01 8.569886e+00 9.366773e+00 7.115675e+00 7.733196e+00 5.391335e+00 5.816952e+00 3.406090e+00 3.629982e+00 1.173007e+00 1.188451e+00 -1.290763e+00 -1.487067e+00 -3.963765e+00 -4.371459e+00 -6.820097e+00 -7.435027e+00 -9.829370e+00 -1.064358e+01 -1.295683e+01 -1.395869e+01 -1.616370e+01 -1.733818e+01 -1.940771e+01 -2.073683e+01 -2.264396e+01 -2.410728e+01 -2.582594e+01 -2.740124e+01 -2.890684e+01 -3.057079e+01 -3.184094e+01 -3.356979e+01 -3.458508e+01 -3.635526e+01 -3.710006e+01 -3.888876e+01 -3.935191e+01 -4.113738e+01 -4.131280e+01 -4.307462e+01 -4.296162e+01 -4.468081e+01 -4.428425e+01 -4.594322e+01 -4.527329e+01 -4.685587e+01 -4.592760e+01 -4.741902e+01 -4.625156e+01 -4.763855e+01 -4.625425e+01 -4.752518e+01 -4.594856e+01 -4.709368e+01 -4.535047e+01 -4.636206e+01 -4.447827e+01 -4.535086e+01 -4.335205e+01 -4.408241e+01 -4.199316e+01 -4.258024e+01 -4.042381e+01 -4.086851e+01 -3.866669e+01 -3.897158e+01 -3.674461e+01 -3.691354e+01 -3.468024e+01 -3.471793e+01 -3.249577e+01 -3.240744e+01 -3.021272e+01 -3.000376e+01 -2.785172e+01 -2.752735e+01 -2.543235e+01 -2.499751e+01 -2.297312e+01 -2.243226e+01 -2.049143e+01 -1.984851e+01 -1.800360e+01 -1.726211e+01 -1.552501e+01 
-1.419185e+01 -1.249947e+01 -1.160565e+01 -1.004316e+01 -9.058755e+00 -7.636736e+00 -6.564376e+00 -5.293101e+00 -4.135799e+00 -3.025186e+00 -1.786623e+00 -8.461659e-01 4.690593e-01 1.230392e+00 2.616524e+00 3.190419e+00 4.640333e+00 5.019288e+00 6.524317e+00 6.701818e+00 8.251630e+00 8.222351e+00 9.804880e+00 9.564891e+00 1.116634e+01 1.071332e+01 1.231822e+01 1.165166e+01 1.324303e+01 1.236444e+01 1.392397e+01 1.283702e+01 1.434535e+01 1.305604e+01 1.449307e+01 1.300979e+01 1.435505e+01 1.268857e+01 1.392166e+01 1.208512e+01 1.318607e+01 1.119486e+01 1.214466e+01 1.001623e+01 1.079723e+01 8.550909e+00 9.147342e+00 6.804115e+00 7.202516e+00 4.784822e+00 4.974491e+00 2.506037e+00 2.479439e+00 -1.494600e-02 -2.618285e-01 -2.756308e+00 -3.223704e+00 -5.691531e+00 -6.375711e+00 -8.789329e+00 -9.682565e+00 -1.201375e+01 -1.310441e+01 -1.532448e+01 -1.659727e+01 -1.867744e+01 -2.011382e+01 -2.202557e+01 -2.360429e+01 -2.532005e+01 -2.701776e+01 -2.851154e+01 -3.030357e+01 -3.155181e+01 -3.341283e+01 -3.439524e+01 -3.630003e+01 -3.700045e+01 -3.892437e+01 -3.933154e+01 -4.125110e+01 -4.135923e+01 -4.325230e+01 -4.306147e+01 -4.490743e+01 -4.442364e+01 -4.620350e+01 -4.543839e+01 -4.713473e+01 -4.610503e+01 -4.770213e+01 -4.642881e+01 -4.791272e+01 -4.641995e+01 -4.777871e+01 -4.609274e+01 -4.731661e+01 -4.546467e+01 -4.654632e+01 -4.455568e+01 -4.549032e+01 -4.338749e+01 -4.417281e+01 -4.198301e+01 -4.261906e+01 -4.036588e+01 -4.085475e+01 -3.856005e+01 -3.890545e+01 -3.658935e+01 -3.679622e+01 -3.447724e+01 -3.455123e+01 -3.224644e+01 -3.219354e+01 -2.991877e+01 -2.974493e+01 -2.751493e+01 -2.722578e+01 -2.505441e+01 -2.465508e+01 -2.255546e+01 -2.205048e+01 -2.003509e+01 -1.942835e+01 -1.750919e+01 -1.680400e+01 -1.499263e+01 
-1.462923e+01 -1.297085e+01 -1.202794e+01 -1.050151e+01 -9.468173e+00 -8.084466e+00 -6.962960e+00 -5.732404e+00 -4.525381e+00 -3.458067e+00 -2.168837e+00 -1.274437e+00 9.274325e-02 8.050844e-01 2.244752e+00 2.766550e+00 4.271807e+00 4.595406e+00 6.157729e+00 6.276499e+00 7.885604e+00 7.794151e+00 9.437925e+00 9.132319e+00 1.079682e+01 1.027483e+01 1.194436e+01 1.120565e+01 1.286293e+01 1.190931e+01 1.353564e+01 1.237119e+01 1.394682e+01 1.257803e+01 1.408240e+01 1.251825e+01 1.393045e+01 1.218234e+01 1.348149e+01 1.156321e+01 1.272891e+01 1.065644e+01 1.166922e+01 9.460562e+00 1.030238e+01 7.977252e+00 8.631972e+00 6.211595e+00 6.665484e+00 4.172332e+00 4.414527e+00 1.872146e+00 1.895099e+00 -6.720280e-01 -8.721698e-01 -3.438698e+00 -3.861801e+00 -6.401568e+00 -7.043334e+00 -9.529392e+00 -1.038132e+01 -1.278601e+01 -1.383555e+01 -1.613061e+01 -1.736145e+01 -1.951830e+01 -2.091085e+01 -2.290098e+01 -2.443304e+01 -2.622851e+01 -2.787599e+01 -2.945020e+01 -3.118796e+01 -3.251642e+01 -3.431909e+01 -3.538039e+01 -3.722309e+01 -3.799983e+01 -3.985873e+01 -4.033841e+01 -4.219112e+01 -4.236686e+01 -4.419262e+01 -4.406364e+01 -4.584323e+01 -4.541502e+01 -4.713068e+01 -4.641479e+01 -4.805000e+01 -4.706347e+01 -4.860293e+01 -4.736736e+01 -4.879708e+01 -4.733747e+01 -4.864503e+01 -4.698857e+01 -4.816342e+01 -4.633830e+01 -4.737217e+01 -4.540647e+01 -4.629364e+01 -4.421454e+01 -4.495194e+01 -4.278517e+01 -4.337230e+01 -4.114182e+01 -4.158049e+01 -3.930841e+01 -3.960233e+01 -3.730898e+01 -3.746324e+01 -3.516732e+01 -3.518792e+01 -3.290667e+01 -3.279997e+01 -3.054939e+01 -3.032177e+01 -2.811680e+01 -2.777423e+01 -2.562893e+01 -2.517684e+01 -2.310451e+01 -2.254759e+01 -2.056092e+01 -1.990312e+01 -1.801426e+01 -1.725886e+01 -1.547955e+01 
-1.412909e+01 -1.239102e+01 -1.148258e+01 -9.876038e+00 -8.876293e+00 -7.411942e+00 -6.322646e+00 -5.010928e+00 -3.834212e+00 -2.685330e+00 -1.424010e+00 -4.478549e-01 8.942683e-01 1.688223e+00 3.106082e+00 3.708918e+00 5.195929e+00 5.599455e+00 7.147306e+00 7.344258e+00 8.942759e+00 8.927020e+00 1.056402e+01 1.033086e+01 1.199222e+01 1.153856e+01 1.320825e+01 1.253288e+01 1.419309e+01 1.329693e+01 1.492835e+01 1.381466e+01 1.539672e+01 1.407124e+01 1.558250e+01 1.405359e+01 1.547212e+01 1.375078e+01 1.505461e+01 1.315440e+01 1.432199e+01 1.225892e+01 1.326964e+01 1.106191e+01 1.189654e+01 9.564346e+00 1.020558e+01 7.770768e+00 8.203734e+00 5.689593e+00 5.902356e+00 3.333385e+00 3.317405e+00 7.191812e-01 4.697306e-01 -2.131169e+00 -2.614671e+00 -5.190708e+00 -5.904476e+00 -8.427180e+00 -9.362985e+00 -1.180301e+01 -1.294827e+01 -1.527555e+01 -1.661360e+01 -1.879762e+01 -2.030818e+01 -2.231842e+01 -2.397824e+01 -2.578482e+01 -2.756841e+01 -2.914286e+01 -3.102340e+01 -3.233965e+01 -3.428984e+01 -3.532521e+01 -3.731809e+01 -3.805437e+01 -4.006398e+01 -4.048839e+01 -4.249023e+01 -4.259618e+01 -4.456745e+01 -4.435506e+01 -4.627465e+01 -4.575086e+01 -4.759931e+01 -4.677754e+01 -4.853689e+01 -4.743639e+01 -4.909018e+01 -4.773492e+01 -4.926833e+01 -4.768573e+01 -4.908589e+01 -4.730541e+01 -4.856180e+01 -4.661359e+01 -4.771842e+01 -4.563217e+01 -4.658059e+01 -4.438468e+01 -4.517485e+01 -4.289577e+01 -4.352861e+01 -4.119069e+01 -4.166954e+01 -3.929493e+01 -3.962498e+01 -3.723380e+01 -3.742152e+01 -3.503204e+01 -3.508459e+01 -3.271353e+01 -3.263822e+01 -3.030100e+01 -3.010487e+01 -2.781581e+01 -2.750532e+01 -2.527786e+01 -2.485863e+01 -2.270552e+01 -2.218229e+01 -2.011570e+01 -1.949228e+01 -1.752392e+01 -1.680331e+01 -1.494456e+01 
-1.455139e+01 -1.284089e+01 -1.188193e+01 -1.030537e+01 -9.255248e+00 -7.823454e+00 -6.683424e+00 -5.407028e+00 -4.178704e+00 -3.068121e+00 -1.753803e+00 -8.191656e-01 5.778243e-01 1.326783e+00 2.801788e+00 3.355880e+00 4.902628e+00 5.253396e+00 6.863774e+00 7.003716e+00 8.667597e+00 8.590407e+00 1.029556e+01 9.996403e+00 1.172849e+01 1.120426e+01 1.294691e+01 1.219653e+01 1.393150e+01 1.295615e+01 1.466359e+01 1.346693e+01 1.512570e+01 1.371404e+01 1.530206e+01 1.368446e+01 1.517915e+01 1.336739e+01 1.474611e+01 1.275460e+01 1.399514e+01 1.184069e+01 1.292175e+01 1.062333e+01 1.152504e+01 9.103400e+00 9.807893e+00 7.285265e+00 7.777171e+00 5.176976e+00 5.443998e+00 2.790618e+00 2.824048e+00 1.427032e-01 -6.210944e-02 -2.745396e+00 -3.188674e+00 -5.847041e+00 -6.524333e+00 -9.130018e+00 -1.003213e+01 -1.255643e+01 -1.366954e+01 -1.608286e+01 -1.738888e+01 -1.966092e+01 -2.113808e+01 -2.323817e+01 -2.486177e+01 -2.675950e+01 -2.850283e+01 -3.016881e+01 -3.200421e+01 -3.341103e+01 -3.531089e+01 -3.643430e+01 -3.837191e+01 -3.919196e+01 -4.114225e+01 -4.164444e+01 -4.358432e+01 -4.376059e+01 -4.566899e+01 -4.551835e+01 -4.737602e+01 -4.690483e+01 -4.869393e+01 -4.791566e+01 -4.961937e+01 -4.855390e+01 -5.015623e+01 -4.882863e+01 -5.031452e+01 -4.875363e+01 -5.010936e+01 -4.834612e+01 -4.955993e+01 -4.762592e+01 -4.868861e+01 -4.661474e+01 -4.752016e+01 -4.533572e+01 -4.608102e+01 -4.381316e+01 -4.439865e+01 -4.207212e+01 -4.250094e+01 -4.013816e+01 -4.041567e+01 -3.803693e+01 -3.817005e+01 -3.579377e+01 -3.579027e+01 -3.343333e+01 -3.330122e+01 -3.097918e+01 -3.072617e+01 -2.845354e+01 -2.808663e+01 -2.587705e+01 -2.540229e+01 -2.326867e+01 -2.269104e+01 -2.064573e+01 -1.996914e+01 -1.802401e+01 -1.725138e+01 -1.541795e+01 
-1.404812e+01 -1.225299e+01 -1.132774e+01 -9.666041e+00 -8.648712e+00 -7.131161e+00 -6.022343e+00 -4.659588e+00 -3.460217e+00 -2.262813e+00 -9.745396e-01 4.712059e-02 1.421573e+00 2.257367e+00 3.713867e+00 4.354093e+00 5.886795e+00 6.322363e+00 7.923452e+00 8.146110e+00 9.805610e+00 9.808198e+00 1.151386e+01 1.129059e+01 1.302786e+01 1.257461e+01 1.432671e+01 1.364134e+01 1.538943e+01 1.447204e+01 1.619547e+01 1.504871e+01 1.672537e+01 1.535464e+01 1.696133e+01 1.537495e+01 1.688785e+01 1.509709e+01 1.649224e+01 1.451125e+01 1.576504e+01 1.361068e+01 1.470041e+01 1.239195e+01 1.329632e+01 1.085510e+01 1.155482e+01 9.003854e+00 9.482184e+00 6.845850e+00 7.089194e+00 4.392974e+00 4.391419e+00 1.661769e+00 1.409594e+00 -1.326085e+00 -1.829988e+00 -4.543298e+00 -5.295123e+00 -7.956572e+00 -8.947469e+00 -1.152642e+01 -1.274256e+01 -1.520725e+01 -1.663015e+01 -1.894793e+01 -2.055496e+01 -2.269268e+01 -2.445784e+01 -2.638258e+01 -2.827745e+01 -2.995739e+01 -3.195224e+01 -3.335783e+01 -3.542265e+01 -3.652789e+01 -3.863345e+01 -3.941722e+01 -4.153586e+01 -4.198318e+01 -4.408925e+01 -4.419235e+01 -4.626240e+01 -4.602134e+01 -4.803391e+01 -4.745688e+01 -4.939213e+01 -4.849504e+01 -5.033443e+01 -4.914001e+01 -5.086612e+01 -4.940259e+01 -5.099930e+01 -4.929863e+01 -5.075166e+01 -4.884771e+01 -5.014531e+01 -4.807220e+01 -4.920577e+01 -4.699641e+01 -4.796100e+01 -4.564612e+01 -4.644047e+01 -4.404809e+01 -4.467441e+01 -4.222963e+01 -4.269305e+01 -4.021823e+01 -4.052603e+01 -3.804108e+01 -3.820191e+01 -3.572467e+01 -3.574775e+01 -3.329437e+01 -3.318885e+01 -3.077413e+01 -3.054850e+01 -2.818620e+01 -2.784794e+01 -2.555095e+01 -2.510634e+01 -2.288690e+01 -2.234087e+01 -2.021072e+01 -1.956695e+01 -1.753745e+01 -1.679847e+01 -1.488071e+01 
-1.445270e+01 -1.267859e+01 -1.170182e+01 -1.006386e+01 -8.995220e+00 -7.504297e+00 -6.343695e+00 -5.010663e+00 -3.758332e+00 -2.594004e+00 -1.250897e+00 -2.659722e-01 1.165833e+00 1.960881e+00 3.477805e+00 4.072889e+00 5.669511e+00 6.055143e+00 7.723912e+00 7.891456e+00 9.622480e+00 9.564439e+00 1.134537e+01 1.105570e+01 1.287169e+01 1.234615e+01 1.417997e+01 1.341643e+01 1.524864e+01 1.424745e+01 1.605670e+01 1.482092e+01 1.658431e+01 1.511999e+01 1.681349e+01 1.512979e+01 1.672871e+01 1.483790e+01 1.631740e+01 1.423471e+01 1.557028e+01 1.331367e+01 1.448169e+01 1.207145e+01 1.304974e+01 1.050801e+01 1.127643e+01 8.626800e+00 9.167845e+00 6.434932e+00 6.734398e+00 3.943591e+00 3.991190e+00 1.168527e+00 9.584846e-01 -1.869318e+00 -2.337777e+00 -5.143175e+00 -5.865478e+00 -8.619891e+00 -9.585976e+00 -1.225959e+01 -1.345402e+01 -1.601570e+01 -1.741804e+01 -1.983538e+01 -2.142089e+01 -2.366056e+01 -2.540117e+01 -2.742951e+01 -2.929496e+01 -3.107887e+01 -3.303805e+01 -3.454620e+01 -3.656843e+01 -3.777263e+01 -3.982886e+01 -4.070558e+01 -4.276919e+01 -4.330109e+01 -4.534832e+01 -4.552554e+01 -4.753533e+01 -4.735648e+01 -4.930995e+01 -4.878249e+01 -5.066210e+01 -4.980215e+01 -5.159090e+01 -5.042228e+01 -5.210329e+01 -5.065595e+01 -5.221260e+01 -5.052065e+01 -5.193723e+01 -5.003680e+01 -5.129957e+01 -4.922681e+01 -5.032508e+01 -4.811455e+01 -4.904150e+01 -4.672511e+01 -4.747815e+01 -4.508466e+01 -4.566529e+01 -4.322023e+01 -4.363350e+01 -4.115942e+01 -4.141308e+01 -3.893000e+01 -3.903352e+01 -3.655936e+01 -3.652301e+01 -3.407405e+01 -3.390801e+01 -3.149923e+01 -3.121298e+01 -2.885828e+01 -2.846014e+01 -2.617260e+01 -2.566940e+01 -2.346144e+01 -2.285848e+01 -2.074199e+01 -2.004302e+01 -1.802951e+01 -1.723693e+01 -1.533760e+01 
-1.394707e+01 -1.208361e+01 -1.114045e+01 -9.412447e+00 -8.376491e+00 -6.794701e+00 -5.665006e+00 -4.240304e+00 -3.016241e+00 -1.759598e+00 -4.412939e-01 6.362854e-01 2.047524e+00 2.935116e+00 4.436392e+00 5.123314e+00 6.709768e+00 7.185797e+00 8.850288e+00 9.105915e+00 1.083878e+01 1.086551e+01 1.265440e+01 1.244507e+01 1.427495e+01 1.382408e+01 1.567723e+01 1.498142e+01 1.683770e+01 1.589597e+01 1.773306e+01 1.654722e+01 1.834105e+01 1.691600e+01 1.864118e+01 1.698515e+01 1.861550e+01 1.674011e+01 1.824916e+01 1.616937e+01 1.753097e+01 1.526480e+01 1.645362e+01 1.402178e+01 1.501395e+01 1.243932e+01 1.321301e+01 1.052014e+01 1.105623e+01 8.270869e+00 8.553582e+00 5.702386e+00 5.719975e+00 2.830353e+00 2.575726e+00 -3.241079e-01 -8.528330e-01 -3.733661e+00 -4.532746e+00 -7.364079e+00 -8.423946e+00 -1.117377e+01 -1.247904e+01 -1.511369e+01 -1.664348e+01 -1.912772e+01 -2.085631e+01 -2.315374e+01 -2.505149e+01 -2.712524e+01 -2.915980e+01 -3.097363e+01 -3.311132e+01 -3.463102e+01 -3.683824e+01 -3.803325e+01 -4.027782e+01 -4.112297e+01 -4.337510e+01 -4.385227e+01 -4.608517e+01 -4.618476e+01 -4.837454e+01 -4.809646e+01 -5.022168e+01 -4.957570e+01 -5.161651e+01 -5.062190e+01 -5.255923e+01 -5.124357e+01 -5.305879e+01 -5.145612e+01 -5.313121e+01 -5.127973e+01 -5.279821e+01 -5.073780e+01 -5.208589e+01 -4.985592e+01 -5.102373e+01 -4.866123e+01 -4.964351e+01 -4.718209e+01 -4.797843e+01 -4.544775e+01 -4.606220e+01 -4.348803e+01 -4.392827e+01 -4.133289e+01 -4.160915e+01 -3.901196e+01 -3.913588e+01 -3.655395e+01 -3.653758e+01 -3.398622e+01 -3.384108e+01 -3.133428e+01 -3.107074e+01 -2.862145e+01 -2.824830e+01 -2.586873e+01 -2.539297e+01 -2.309472e+01 -2.252148e+01 -2.031573e+01 -1.964841e+01 -1.754606e+01 -1.678650e+01 -1.479827e+01 
-1.433076e+01 -1.248164e+01 -1.148657e+01 -9.775911e+00 -8.688400e+00 -7.127118e+00 -5.945315e+00 -4.544506e+00 -3.266849e+00 -2.037778e+00 -6.634714e-01 3.824819e-01 1.852984e+00 2.704440e+00 4.268972e+00 4.914731e+00 6.568998e+00 6.998276e+00 8.735493e+00 8.938216e+00 1.074883e+01 1.071598e+01 1.258752e+01 1.231150e+01 1.422852e+01 1.370358e+01 1.564778e+01 1.487042e+01 1.682086e+01 1.579026e+01 1.772372e+01 1.644214e+01 1.833352e+01 1.680661e+01 1.862947e+01 1.686648e+01 1.859355e+01 1.660737e+01 1.821109e+01 1.601809e+01 1.747115e+01 1.509082e+01 1.636675e+01 1.382117e+01 1.489491e+01 1.220811e+01 1.305667e+01 1.025398e+01 1.085713e+01 7.964701e+00 8.305721e+00 5.350105e+00 5.416593e+00 2.424662e+00 2.209271e+00 -7.916641e-01 -1.290557e+00 -4.272431e+00 -5.050227e+00 -7.983793e+00 -9.029422e+00 -1.188382e+01 -1.317980e+01 -1.592224e+01 -1.744510e+01 -2.004077e+01 -2.176189e+01 -2.417419e+01 -2.606097e+01 -2.825213e+01 -3.026951e+01 -3.220163e+01 -3.431382e+01 -3.595031e+01 -3.812255e+01 -3.942987e+01 -4.163000e+01 -4.257967e+01 -4.477924e+01 -4.534984e+01 -4.752461e+01 -4.770364e+01 -4.983319e+01 -4.961846e+01 -5.168512e+01 -5.108549e+01 -5.307278e+01 -5.210790e+01 -5.399901e+01 -5.269815e+01 -5.447512e+01 -5.287499e+01 -5.451883e+01 -5.266084e+01 -5.415270e+01 -5.208001e+01 -5.340301e+01 -5.115781e+01 -5.229888e+01 -4.992038e+01 -5.087158e+01 -4.839480e+01 -4.915392e+01 -4.660927e+01 -4.717959e+01 -4.459311e+01 -4.498246e+01 -4.237649e+01 -4.259602e+01 -3.998989e+01 -4.005264e+01 -3.746345e+01 -3.738303e+01 -3.482617e+01 -3.461570e+01 -3.210531e+01 -3.177655e+01 -2.932577e+01 -2.888863e+01 -2.650986e+01 -2.597208e+01 -2.367712e+01 -2.304426e+01 -2.084442e+01 -2.011996e+01 -1.802623e+01 -1.721181e+01 -1.523502e+01 
-1.382351e+01 -1.188059e+01 -1.091988e+01 -9.114410e+00 -8.060355e+00 -6.403106e+00 -5.252787e+00 -3.754865e+00 -2.505649e+00 -1.178496e+00 1.714491e-01 1.316107e+00 2.767299e+00 3.717570e+00 5.268716e+00 6.012720e+00 7.660255e+00 8.186366e+00 9.924058e+00 1.022120e+01 1.203983e+01 1.209782e+01 1.398500e+01 1.379493e+01 1.573499e+01 1.528966e+01 1.726377e+01 1.655813e+01 1.854452e+01 1.757613e+01 1.955042e+01 1.831993e+01 2.025563e+01 1.876723e+01 2.063626e+01 1.889800e+01 2.067127e+01 1.869523e+01 2.034327e+01 1.814543e+01 1.963896e+01 1.723896e+01 1.854949e+01 1.596998e+01 1.707047e+01 1.433642e+01 1.520191e+01 1.233989e+01 1.294823e+01 9.985719e+00 1.031832e+01 7.283320e+00 7.326023e+00 4.246888e+00 3.990728e+00 8.963444e-01 3.382973e-01 -2.741522e+00 -3.597956e+00 -6.631929e+00 -7.776374e+00 -1.073121e+01 -1.214636e+01 -1.498636e+01 -1.664834e+01 -1.933530e+01 -2.121436e+01 -2.370787e+01 -2.576956e+01 -2.802780e+01 -3.023451e+01 -3.221549e+01 -3.452826e+01 -3.619156e+01 -3.857199e+01 -3.988085e+01 -4.229289e+01 -4.321651e+01 -4.562786e+01 -4.614365e+01 -4.852642e+01 -4.862206e+01 -5.095253e+01 -5.062743e+01 -5.288502e+01 -5.215099e+01 -5.431657e+01 -5.319738e+01 -5.525172e+01 -5.378160e+01 -5.570448e+01 -5.392551e+01 -5.569607e+01 -5.365498e+01 -5.525322e+01 -5.299802e+01 -5.440690e+01 -5.198382e+01 -5.319130e+01 -5.064257e+01 -5.164288e+01 -4.900541e+01 -4.979935e+01 -4.710442e+01 -4.769872e+01 -4.497238e+01 -4.537838e+01 -4.264233e+01 -4.287440e+01 -4.014697e+01 -4.022087e+01 -3.751792e+01 -3.744942e+01 -3.478505e+01 -3.458879e+01 -3.197589e+01 -3.166457e+01 -2.911512e+01 -2.869908e+01 -2.622441e+01 -2.571144e+01 -2.332238e+01 -2.271772e+01 -2.042478e+01 -1.973133e+01 -1.754481e+01 -1.676344e+01 -1.469356e+01 