# vtk DataFile Version 2.0
Comment goes here
ASCII

DATASET STRUCTURED_POINTS
FIELD FieldData 1
TIME 1 1 double
0.08500000
DIMENSIONS    128   128   1

ORIGIN    0.000   0.000   0.000
SPACING   0.039062 0.039062   1.000

POINT_DATA   16384
SCALARS P double
LOOKUP_TABLE default

2.280508e+01 2.172232e+01 2.199818e+01 2.069343e+01 2.093057e+01 1.941867e+01 1.961741e+01 1.791362e+01 1.807441e+01 1.619426e+01 1.631764e+01 1.427687e+01 1.436340e+01 1.217793e+01 1.222816e+01 9.914083e+00 9.928552e+00 7.502116e+00 7.481346e+00 4.959012e+00 4.903525e+00 2.301993e+00 2.212345e+00 -4.514014e-01 -5.745753e-01 -3.283228e+00 -3.439167e+00 -6.175055e+00 -6.362814e+00 -9.107871e+00 -9.326264e+00 -1.206201e+01 -1.230956e+01 -1.501710e+01 -1.529199e+01 -1.795201e+01 -1.825205e+01 -2.084485e+01 -2.116746e+01 -2.367297e+01 -2.401520e+01 -2.641305e+01 -2.677155e+01 -2.904115e+01 -2.941225e+01 -3.153283e+01 -3.191255e+01 -3.386335e+01 -3.424748e+01 -3.600782e+01 -3.639198e+01 -3.794147e+01 -3.832115e+01 -3.963991e+01 -4.001057e+01 -4.107949e+01 -4.143658e+01 -4.223765e+01 -4.257668e+01 -4.309333e+01 -4.340992e+01 -4.362754e+01 -4.391743e+01 -4.382379e+01 -4.408289e+01 -4.366877e+01 -4.389318e+01 -4.315289e+01 -4.333892e+01 -4.227093e+01 -4.241513e+01 -4.102261e+01 -4.112180e+01 -3.941314e+01 -3.946446e+01 -3.745359e+01 -3.745455e+01 -3.516122e+01 -3.510975e+01 -3.255948e+01 -3.245402e+01 -2.967785e+01 -2.951746e+01 -2.655149e+01 -2.633591e+01 -2.322053e+01 -2.295029e+01 -1.972918e+01 -1.940570e+01 -1.612471e+01 -1.575033e+01 -1.245624e+01 -1.203426e+01 -8.773488e+00 -8.308144e+00 -5.125518e+00 -4.621924e+00 -1.559606e+00 -1.023640e+00 1.879803e+00 2.441650e+00 5.151946e+00 5.732753e+00 8.220403e+00 8.813015e+00 1.105355e+01 1.165079e+01 1.362481e+01 1.421968e+01 1.591276e+01 1.649862e+01 1.790102e+01 1.847176e+01 1.957809e+01 2.012823e+01 2.093700e+01 2.146179e+01 2.197498e+01 2.247044e+01 2.269301e+01 2.315593e+01 2.309534e+01 2.352327e+01 2.318907e+01 2.358023e+01 2.298363e+01 2.333687e+01 2.249042e+01 
2.358070e+01 2.243863e+01 2.274233e+01 2.137772e+01 2.164505e+01 2.007326e+01 2.030431e+01 1.854109e+01 1.873602e+01 1.679738e+01 1.695643e+01 1.485854e+01 1.498196e+01 1.274113e+01 1.282915e+01 1.046184e+01 1.051465e+01 8.037465e+00 8.055223e+00 5.484939e+00 5.467814e+00 2.821430e+00 2.769620e+00 6.439545e-02 -2.182299e-02 -2.768321e+00 -2.888534e+00 -5.658392e+00 -5.811993e+00 -8.586920e+00 -8.773047e+00 -1.153435e+01 -1.175183e+01 -1.448043e+01 -1.472773e+01 -1.740413e+01 -1.767933e+01 -2.028367e+01 -2.058444e+01 -2.309652e+01 -2.342011e+01 -2.581946e+01 -2.616272e+01 -2.842866e+01 -2.878810e+01 -3.089984e+01 -3.127161e+01 -3.320838e+01 -3.358838e+01 -3.532956e+01 -3.571348e+01 -3.723878e+01 -3.762218e+01 -3.891187e+01 -3.929019e+01 -4.032537e+01 -4.069401e+01 -4.145694e+01 -4.181131e+01 -4.228576e+01 -4.262130e+01 -4.279303e+01 -4.310524e+01 -4.296249e+01 -4.324696e+01 -4.278100e+01 -4.303344e+01 -4.223913e+01 -4.245537e+01 -4.133177e+01 -4.150785e+01 -4.005875e+01 -4.019094e+01 -3.842535e+01 -3.851020e+01 -3.644274e+01 -3.647716e+01 -3.412820e+01 -3.410959e+01 -3.150531e+01 -3.143160e+01 -2.860368e+01 -2.847351e+01 -2.545864e+01 -2.527143e+01 -2.211057e+01 -2.186662e+01 -1.860401e+01 -1.830460e+01 -1.498660e+01 -1.463402e+01 -1.130786e+01 -1.090543e+01 -7.617944e+00 -7.169959e+00 -3.966338e+00 -3.477980e+00 -4.006881e-01 1.221006e-01 3.034265e+00 3.584956e+00 6.297567e+00 6.869239e+00 9.352730e+00 9.938273e+00 1.216819e+01 1.276052e+01 1.471759e+01 1.530981e+01 1.697980e+01 1.756543e+01 1.893890e+01 1.951196e+01 2.058389e+01 2.113905e+01 2.190839e+01 2.244103e+01 2.291024e+01 2.341648e+01 2.359106e+01 2.406773e+01 2.395572e+01 2.440039e+01 2.401191e+01 2.442276e+01 2.376963e+01 2.414541e+01 2.324076e+01 
2.293349e+01 2.184348e+01 2.211924e+01 2.080704e+01 2.104406e+01 1.952460e+01 1.972323e+01 1.801181e+01 1.817252e+01 1.628470e+01 1.640804e+01 1.435958e+01 1.444611e+01 1.225292e+01 1.230321e+01 9.981338e+00 9.995904e+00 7.561599e+00 7.540941e+00 5.010630e+00 4.955245e+00 2.345596e+00 2.256008e+00 -4.160263e-01 -5.392175e-01 -3.256357e+00 -3.412427e+00 -6.157023e+00 -6.345062e+00 -9.099065e+00 -9.317920e+00 -1.206286e+01 -1.231108e+01 -1.502807e+01 -1.530385e+01 -1.797356e+01 -1.827474e+01 -2.087745e+01 -2.120145e+01 -2.371707e+01 -2.406092e+01 -2.646906e+01 -2.682940e+01 -2.910940e+01 -2.948255e+01 -3.161361e+01 -3.199555e+01 -3.395682e+01 -3.434332e+01 -3.611404e+01 -3.650068e+01 -3.806036e+01 -3.844260e+01 -3.977123e+01 -4.014449e+01 -4.122279e+01 -4.158251e+01 -4.239226e+01 -4.273392e+01 -4.325834e+01 -4.357753e+01 -4.380174e+01 -4.409417e+01 -4.400566e+01 -4.426722e+01 -4.385645e+01 -4.408320e+01 -4.334418e+01 -4.353240e+01 -4.246327e+01 -4.260948e+01 -4.121316e+01 -4.131413e+01 -3.959879e+01 -3.965160e+01 -3.763106e+01 -3.763318e+01 -3.532716e+01 -3.527645e+01 -3.271057e+01 -3.260544e+01 -2.981101e+01 -2.965045e+01 -2.666394e+01 -2.644766e+01 -2.330995e+01 -2.303846e+01 -1.979384e+01 -1.946856e+01 -1.616353e+01 -1.578682e+01 -1.246884e+01 -1.204406e+01 -8.760191e+00 -8.291639e+00 -5.087311e+00 -4.580203e+00 -1.498073e+00 -9.583977e-01 1.962581e+00 2.528212e+00 5.253506e+00 5.838052e+00 8.338024e+00 8.934221e+00 1.118437e+01 1.178495e+01 1.376597e+01 1.436385e+01 1.606144e+01 1.664995e+01 1.805459e+01 1.862758e+01 1.973412e+01 2.028610e+01 2.109334e+01 2.161957e+01 2.212975e+01 2.262628e+01 2.284461e+01 2.330828e+01 2.324247e+01 2.367088e+01 2.333069e+01 2.372211e+01 2.311896e+01 2.347228e+01 2.261886e+01 
2.383601e+01 2.267889e+01 2.298261e+01 2.160259e+01 2.186992e+01 2.028253e+01 2.051361e+01 1.873468e+01 1.892974e+01 1.697533e+01 1.713464e+01 1.502094e+01 1.514473e+01 1.288806e+01 1.297655e+01 1.059331e+01 1.064667e+01 8.153423e+00 8.171766e+00 5.585231e+00 5.568670e+00 2.905774e+00 2.854439e+00 1.323803e-01 4.647624e-02 -2.717237e+00 -2.837374e+00 -5.624875e+00 -5.778712e+00 -8.571743e+00 -8.758487e+00 -1.153838e+01 -1.175691e+01 -1.450457e+01 -1.475341e+01 -1.744933e+01 -1.772658e+01 -2.035087e+01 -2.065420e+01 -2.318661e+01 -2.351325e+01 -2.593324e+01 -2.628003e+01 -2.856682e+01 -2.893021e+01 -3.106290e+01 -3.143900e+01 -3.339668e+01 -3.378132e+01 -3.554319e+01 -3.593202e+01 -3.747756e+01 -3.786607e+01 -3.917528e+01 -3.955886e+01 -4.061252e+01 -4.098653e+01 -4.176650e+01 -4.212630e+01 -4.261590e+01 -4.295688e+01 -4.314135e+01 -4.345897e+01 -4.332597e+01 -4.361576e+01 -4.315595e+01 -4.341354e+01 -4.262116e+01 -4.284232e+01 -4.171582e+01 -4.189649e+01 -4.043914e+01 -4.057547e+01 -3.879588e+01 -3.888429e+01 -3.679682e+01 -3.683411e+01 -3.445912e+01 -3.444254e+01 -3.180642e+01 -3.173379e+01 -2.886872e+01 -2.873855e+01 -2.568201e+01 -2.549364e+01 -2.228758e+01 -2.204127e+01 -1.873113e+01 -1.842818e+01 -1.506163e+01 -1.470439e+01 -1.133002e+01 -1.092193e+01 -7.587896e+00 -7.133425e+00 -3.886102e+00 -3.390653e+00 -2.735100e-01 2.567319e-01 3.204118e+00 3.762373e+00 6.505046e+00 7.084150e+00 9.592259e+00 1.018489e+01 1.243393e+01 1.303281e+01 1.500365e+01 1.560177e+01 1.728049e+01 1.787126e+01 1.924884e+01 1.982625e+01 2.089818e+01 2.145690e+01 2.222268e+01 2.275811e+01 2.322076e+01 2.372909e+01 2.389463e+01 2.437280e+01 2.424977e+01 2.469543e+01 2.429440e+01 2.470584e+01 2.403903e+01 2.441511e+01 2.349595e+01 
2.331889e+01 2.220702e+01 2.248246e+01 2.114786e+01 2.138449e+01 1.984231e+01 2.004057e+01 1.830625e+01 1.846670e+01 1.655588e+01 1.667910e+01 1.460755e+01 1.469413e+01 1.247775e+01 1.252823e+01 1.018302e+01 1.019790e+01 7.740023e+00 7.719731e+00 5.165521e+00 5.110475e+00 2.476506e+00 2.387135e+00 -3.097344e-01 -4.329403e-01 -3.175515e+00 -3.331941e+00 -6.102644e+00 -6.291490e+00 -9.072322e+00 -9.292534e+00 -1.206506e+01 -1.231527e+01 -1.506059e+01 -1.533906e+01 -1.803784e+01 -1.834244e+01 -2.097491e+01 -2.130307e+01 -2.384906e+01 -2.419779e+01 -2.663682e+01 -2.700272e+01 -2.931400e+01 -2.969331e+01 -3.185587e+01 -3.224450e+01 -3.423729e+01 -3.463090e+01 -3.643291e+01 -3.682700e+01 -3.841740e+01 -3.880734e+01 -4.016572e+01 -4.054684e+01 -4.165345e+01 -4.202109e+01 -4.285713e+01 -4.320670e+01 -4.375470e+01 -4.408171e+01 -4.432599e+01 -4.462609e+01 -4.455327e+01 -4.482225e+01 -4.442185e+01 -4.465569e+01 -4.392075e+01 -4.411561e+01 -4.304336e+01 -4.319564e+01 -4.178814e+01 -4.189450e+01 -4.015926e+01 -4.021663e+01 -3.816708e+01 -3.817274e+01 -3.582853e+01 -3.578020e+01 -3.316727e+01 -3.306317e+01 -3.021356e+01 -3.005256e+01 -2.700390e+01 -2.678557e+01 -2.358027e+01 -2.330506e+01 -1.998924e+01 -1.965855e+01 -1.628072e+01 -1.589699e+01 -1.250668e+01 -1.207340e+01 -8.719662e+00 -8.241388e+00 -4.971454e+00 -4.453688e+00 -1.311735e+00 -7.608127e-01 2.213039e+00 2.790141e+00 5.560571e+00 6.156447e+00 8.693410e+00 9.300462e+00 1.157940e+01 1.219007e+01 1.419190e+01 1.479889e+01 1.650981e+01 1.710628e+01 1.851741e+01 1.909714e+01 2.020409e+01 2.076156e+01 2.156394e+01 2.209447e+01 2.259535e+01 2.309508e+01 2.330045e+01 2.376634e+01 2.368466e+01 2.411444e+01 2.375613e+01 2.414826e+01 2.352529e+01 2.387883e+01 2.300438e+01 
2.434690e+01 2.315948e+01 2.346318e+01 2.205221e+01 2.231950e+01 2.070080e+01 2.093194e+01 1.912154e+01 1.931684e+01 1.733090e+01 1.749068e+01 1.534541e+01 1.546994e+01 1.318162e+01 1.327108e+01 1.085606e+01 1.091055e+01 8.385262e+00 8.404834e+00 5.785864e+00 5.770500e+00 3.074648e+00 3.024342e+00 2.686728e-01 1.834762e-01 -2.614618e+00 -2.734527e+00 -5.557278e+00 -5.711519e+00 -8.540738e+00 -8.728659e+00 -1.154571e+01 -1.176632e+01 -1.455212e+01 -1.480401e+01 -1.753902e+01 -1.782034e+01 -2.048459e+01 -2.079304e+01 -2.336619e+01 -2.369897e+01 -2.616033e+01 -2.651421e+01 -2.884283e+01 -2.921417e+01 -3.138892e+01 -3.177372e+01 -3.377340e+01 -3.416739e+01 -3.597084e+01 -3.636955e+01 -3.795584e+01 -3.835462e+01 -3.970321e+01 -4.009738e+01 -4.118839e+01 -4.157319e+01 -4.238771e+01 -4.275842e+01 -4.327885e+01 -4.363077e+01 -4.384130e+01 -4.416980e+01 -4.405693e+01 -4.435743e+01 -4.391056e+01 -4.417855e+01 -4.339065e+01 -4.362175e+01 -4.249002e+01 -4.267998e+01 -4.120658e+01 -4.135132e+01 -3.954398e+01 -3.963968e+01 -3.751224e+01 -3.755542e+01 -3.512815e+01 -3.511578e+01 -3.241550e+01 -3.234514e+01 -2.940504e+01 -2.927497e+01 -2.613408e+01 -2.594344e+01 -2.264579e+01 -2.239478e+01 -1.898826e+01 -1.867816e+01 -1.521317e+01 -1.484648e+01 -1.137440e+01 -1.095481e+01 -7.526484e+00 -7.058825e+00 -3.723088e+00 -3.213213e+00 -1.558282e-02 5.298193e-01 3.548186e+00 4.121814e+00 6.924898e+00 7.519088e+00 1.007649e+01 1.068347e+01 1.297062e+01 1.358275e+01 1.558083e+01 1.619083e+01 1.788659e+01 1.848769e+01 1.987301e+01 2.045912e+01 2.153052e+01 2.209632e+01 2.285443e+01 2.339541e+01 2.384439e+01 2.435686e+01 2.450383e+01 2.498490e+01 2.483940e+01 2.528695e+01 2.486046e+01 2.527300e+01 2.457849e+01 2.495511e+01 2.400669e+01 
2.396172e+01 2.281311e+01 2.308790e+01 2.171577e+01 2.195164e+01 2.037147e+01 2.056905e+01 1.879651e+01 1.895647e+01 1.700730e+01 1.713032e+01 1.502033e+01 1.510701e+01 1.285205e+01 1.290291e+01 1.051889e+01 1.053436e+01 8.037299e+00 8.017712e+00 5.423784e+00 5.369415e+00 2.695024e+00 2.606135e+00 -1.320258e-01 -2.551288e-01 -3.040014e+00 -3.196910e+00 -6.011064e+00 -6.201141e+00 -9.026655e+00 -9.249034e+00 -1.206752e+01 -1.232098e+01 -1.511355e+01 -1.539646e+01 -1.814374e+01 -1.845403e+01 -2.113618e+01 -2.147129e+01 -2.406803e+01 -2.442494e+01 -2.691560e+01 -2.729084e+01 -2.965443e+01 -3.004410e+01 -3.225940e+01 -3.265927e+01 -3.470488e+01 -3.511047e+01 -3.696497e+01 -3.737159e+01 -3.901363e+01 -3.941651e+01 -4.082504e+01 -4.121934e+01 -4.237380e+01 -4.275474e+01 -4.363536e+01 -4.399822e+01 -4.458640e+01 -4.492655e+01 -4.520528e+01 -4.551825e+01 -4.547266e+01 -4.575412e+01 -4.537211e+01 -4.561788e+01 -4.489083e+01 -4.509691e+01 -4.402040e+01 -4.418300e+01 -4.275763e+01 -4.287316e+01 -4.110525e+01 -4.117040e+01 -3.907262e+01 -3.908440e+01 -3.667622e+01 -3.663205e+01 -3.393992e+01 -3.383774e+01 -3.089492e+01 -3.073332e+01 -2.757941e+01 -2.735776e+01 -2.403782e+01 -2.375642e+01 -2.031971e+01 -1.997994e+01 -1.647850e+01 -1.608290e+01 -1.256981e+01 -1.212214e+01 -8.649942e+00 -8.155137e+00 -4.774168e+00 -4.238257e+00 -9.952952e-01 -4.252147e-01 2.637641e+00 3.234270e+00 6.080391e+00 6.695530e+00 9.294221e+00 9.919691e+00 1.224635e+01 1.287410e+01 1.491011e+01 1.553246e+01 1.726487e+01 1.787473e+01 1.929583e+01 1.988683e+01 2.099356e+01 2.156018e+01 2.235355e+01 2.289118e+01 2.337569e+01 2.388063e+01 2.406362e+01 2.453305e+01 2.442422e+01 2.485616e+01 2.446703e+01 2.486020e+01 2.420371e+01 2.455745e+01 2.364756e+01 
2.511383e+01 2.388048e+01 2.418399e+01 2.272627e+01 2.299336e+01 2.132750e+01 2.155864e+01 1.970093e+01 1.989656e+01 1.786329e+01 1.802381e+01 1.583123e+01 1.595691e+01 1.362123e+01 1.371223e+01 1.124966e+01 1.130600e+01 8.732801e+00 8.754369e+00 6.086923e+00 6.073534e+00 3.328419e+00 3.279850e+00 4.739212e-01 3.899874e-01 -2.459553e+00 -2.578921e+00 -5.454457e+00 -5.609124e+00 -8.492576e+00 -8.682112e+00 -1.155491e+01 -1.177850e+01 -1.462156e+01 -1.487795e+01 -1.767168e+01 -1.795910e+01 -2.068344e+01 -2.099960e+01 -2.363403e+01 -2.397610e+01 -2.649974e+01 -2.686437e+01 -2.925601e+01 -2.963942e+01 -3.187760e+01 -3.227562e+01 -3.433873e+01 -3.474691e+01 -3.661329e+01 -3.702695e+01 -3.867503e+01 -3.908938e+01 -4.049785e+01 -4.090802e+01 -4.205604e+01 -4.245716e+01 -4.332466e+01 -4.371186e+01 -4.427987e+01 -4.464835e+01 -4.489946e+01 -4.524444e+01 -4.516336e+01 -4.548011e+01 -4.505429e+01 -4.533813e+01 -4.455852e+01 -4.480482e+01 -4.366666e+01 -4.387088e+01 -4.237453e+01 -4.253225e+01 -4.068399e+01 -4.079101e+01 -3.860376e+01 -3.865617e+01 -3.614998e+01 -3.614431e+01 -3.334659e+01 -3.327997e+01 -3.022542e+01 -3.009574e+01 -2.682579e+01 -2.663191e+01 -2.319383e+01 -2.293576e+01 -1.938132e+01 -1.906036e+01 -1.544423e+01 -1.506307e+01 -1.144106e+01 -1.100378e+01 -7.430987e+00 -6.942988e+00 -3.472065e+00 -2.939921e+00 3.804202e-01 9.492153e-01 4.075394e+00 4.672711e+00 7.567117e+00 8.184501e+00 1.081596e+01 1.144494e+01 1.378884e+01 1.442121e+01 1.645936e+01 1.708741e+01 1.880764e+01 1.942435e+01 2.081999e+01 2.141916e+01 2.248841e+01 2.306475e+01 2.380999e+01 2.435913e+01 2.478630e+01 2.530478e+01 2.542267e+01 2.590789e+01 2.572760e+01 2.617776e+01 2.571213e+01 2.612610e+01 2.538929e+01 2.576648e+01 2.477356e+01 
2.486259e+01 2.366194e+01 2.393556e+01 2.251044e+01 2.274508e+01 2.111144e+01 2.130794e+01 1.948174e+01 1.964096e+01 1.763808e+01 1.776080e+01 1.559707e+01 1.568393e+01 1.337512e+01 1.342662e+01 1.098847e+01 1.100493e+01 8.453243e+00 8.434848e+00 5.785561e+00 5.732381e+00 3.001638e+00 2.913690e+00 1.179364e-01 -4.747266e-03 -2.848688e+00 -3.005973e+00 -5.880828e+00 -6.072385e+00 -8.960378e+00 -9.185586e+00 -1.206840e+01 -1.232626e+01 -1.518502e+01 -1.547406e+01 -1.828935e+01 -1.860759e+01 -2.135946e+01 -2.170437e+01 -2.437236e+01 -2.474085e+01 -2.730409e+01 -2.769256e+01 -3.012977e+01 -3.053415e+01 -3.282375e+01 -3.323960e+01 -3.535975e+01 -3.578233e+01 -3.771106e+01 -3.813546e+01 -3.985072e+01 -4.027192e+01 -4.175178e+01 -4.216475e+01 -4.338757e+01 -4.378733e+01 -4.473201e+01 -4.511366e+01 -4.575997e+01 -4.611874e+01 -4.644780e+01 -4.677904e+01 -4.677385e+01 -4.707305e+01 -4.671914e+01 -4.698193e+01 -4.626822e+01 -4.649036e+01 -4.540999e+01 -4.558740e+01 -4.413871e+01 -4.426751e+01 -4.245494e+01 -4.253145e+01 -4.036645e+01 -4.038726e+01 -3.788889e+01 -3.785102e+01 -3.504633e+01 -3.494726e+01 -3.187125e+01 -3.170917e+01 -2.840431e+01 -2.817824e+01 -2.469345e+01 -2.440346e+01 -2.079272e+01 -2.044011e+01 -1.676064e+01 -1.634809e+01 -1.265835e+01 -1.218998e+01 -8.547617e+00 -8.028958e+00 -4.488915e+00 -3.926764e+00 -5.396175e-01 5.818028e-02 3.247492e+00 3.872349e+00 6.825378e+00 7.468305e+00 1.015352e+01 1.080548e+01 1.319834e+01 1.385056e+01 1.593325e+01 1.657749e+01 1.833844e+01 1.896725e+01 2.040050e+01 2.100734e+01 2.211184e+01 2.269119e+01 2.347005e+01 2.401743e+01 2.447719e+01 2.498917e+01 2.513915e+01 2.561325e+01 2.546492e+01 2.589955e+01 2.546601e+01 2.586030e+01 2.515582e+01 2.550955e+01 2.454920e+01 
2.613724e+01 2.484182e+01 2.514477e+01 2.362412e+01 2.389073e+01 2.216162e+01 2.239260e+01 2.047164e+01 2.066762e+01 1.857125e+01 1.873273e+01 1.647720e+01 1.660450e+01 1.420590e+01 1.429911e+01 1.177344e+01 1.183246e+01 9.195715e+00 9.220238e+00 6.488503e+00 6.478089e+00 3.667624e+00 3.621748e+00 7.491047e-01 6.672446e-01 -2.250644e+00 -2.368912e+00 -5.314649e+00 -5.469537e+00 -8.425202e+00 -8.616600e+00 -1.156370e+01 -1.179107e+01 -1.471054e+01 -1.497282e+01 -1.784499e+01 -1.814053e+01 -2.094520e+01 -2.127172e+01 -2.398820e+01 -2.434279e+01 -2.694990e+01 -2.732908e+01 -2.980527e+01 -3.020504e+01 -3.252844e+01 -3.294439e+01 -3.509287e+01 -3.552025e+01 -3.747153e+01 -3.790542e+01 -3.963713e+01 -4.007248e+01 -4.156231e+01 -4.199405e+01 -4.321993e+01 -4.364302e+01 -4.458333e+01 -4.499277e+01 -4.562672e+01 -4.601754e+01 -4.632556e+01 -4.669283e+01 -4.665717e+01 -4.699597e+01 -4.660138e+01 -4.690678e+01 -4.614133e+01 -4.640842e+01 -4.526450e+01 -4.548834e+01 -4.396365e+01 -4.413937e+01 -4.223801e+01 -4.236087e+01 -4.009427e+01 -4.015976e+01 -3.754745e+01 -3.755146e+01 -3.462157e+01 -3.456060e+01 -3.134981e+01 -3.122118e+01 -2.777428e+01 -2.757637e+01 -2.394518e+01 -2.367775e+01 -1.991957e+01 -1.958387e+01 -1.575953e+01 -1.535849e+01 -1.153010e+01 -1.106837e+01 -7.297094e+00 -6.780893e+00 -3.124807e+00 -2.561746e+00 9.259664e-01 1.527223e+00 4.799655e+00 5.429779e+00 8.447209e+00 9.096609e+00 1.182693e+01 1.248615e+01 1.490488e+01 1.556490e+01 1.765485e+01 1.830742e+01 2.005811e+01 2.069586e+01 2.210275e+01 2.271937e+01 2.378308e+01 2.437334e+01 2.509878e+01 2.565853e+01 2.605409e+01 2.658022e+01 2.665703e+01 2.714737e+01 2.691865e+01 2.737187e+01 2.685231e+01 2.726775e+01 2.647309e+01 2.685066e+01 2.579727e+01 
2.602208e+01 2.475346e+01 2.502518e+01 2.353120e+01 2.376391e+01 2.206108e+01 2.225596e+01 2.036057e+01 2.051871e+01 1.844679e+01 1.856910e+01 1.633645e+01 1.642363e+01 1.404586e+01 1.409836e+01 1.159099e+01 1.160900e+01 8.987517e+00 8.971017e+00 6.250998e+00 6.199776e+00 3.397011e+00 3.310746e+00 4.413309e-01 3.196787e-01 -2.599871e+00 -2.757174e+00 -5.709840e+00 -5.902856e+00 -8.871044e+00 -9.099518e+00 -1.206501e+01 -1.232825e+01 -1.527220e+01 -1.556896e+01 -1.847187e+01 -1.880031e+01 -2.164209e+01 -2.199969e+01 -2.475969e+01 -2.514328e+01 -2.780032e+01 -2.820612e+01 -3.073860e+01 -3.116227e+01 -3.354817e+01 -3.398496e+01 -3.620193e+01 -3.664678e+01 -3.867217e+01 -3.911982e+01 -4.093076e+01 -4.137590e+01 -4.294940e+01 -4.338672e+01 -4.469978e+01 -4.512406e+01 -4.615390e+01 -4.656004e+01 -4.728437e+01 -4.766742e+01 -4.806490e+01 -4.842001e+01 -4.847079e+01 -4.879323e+01 -4.847968e+01 -4.876485e+01 -4.807248e+01 -4.831584e+01 -4.723435e+01 -4.743149e+01 -4.595596e+01 -4.610255e+01 -4.423468e+01 -4.432658e+01 -4.207585e+01 -4.210913e+01 -3.949380e+01 -3.946486e+01 -3.651260e+01 -3.641833e+01 -3.316636e+01 -3.300433e+01 -2.949897e+01 -2.926767e+01 -2.556318e+01 -2.526231e+01 -2.141921e+01 -2.104991e+01 -1.713267e+01 -1.669777e+01 -1.277233e+01 -1.227641e+01 -8.407575e+00 -7.856972e+00 -4.106008e+00 -3.508615e+00 6.874930e-02 7.037984e-01 4.058861e+00 4.721609e+00 7.813615e+00 8.493737e+00 1.129025e+01 1.197750e+01 1.445428e+01 1.513891e+01 1.727945e+01 1.795250e+01 1.974728e+01 2.040083e+01 2.184644e+01 2.247376e+01 2.357195e+01 2.416755e+01 2.492433e+01 2.548395e+01 2.590868e+01 2.642926e+01 2.653387e+01 2.701343e+01 2.681176e+01 2.724925e+01 2.675644e+01 2.715159e+01 2.638364e+01 2.673679e+01 2.571017e+01 
2.741739e+01 2.604304e+01 2.634481e+01 2.474459e+01 2.501021e+01 2.320149e+01 2.343201e+01 2.143175e+01 2.162805e+01 1.945282e+01 1.961552e+01 1.728153e+01 1.741098e+01 1.493412e+01 1.503035e+01 1.242631e+01 1.248906e+01 9.773460e+00 9.802165e+00 6.990655e+00 6.984534e+00 4.092947e+00 4.051070e+00 1.095541e+00 1.016930e+00 -1.985978e+00 -2.102224e+00 -5.135415e+00 -5.289988e+00 -8.335751e+00 -8.528982e+00 -1.156894e+01 -1.180066e+01 -1.481575e+01 -1.508518e+01 -1.805567e+01 -1.836130e+01 -2.126679e+01 -2.160638e+01 -2.442592e+01 -2.479645e+01 -2.750853e+01 -2.790629e+01 -3.048898e+01 -3.090966e+01 -3.334059e+01 -3.377942e+01 -3.603587e+01 -3.648774e+01 -3.854670e+01 -3.900632e+01 -4.084451e+01 -4.130652e+01 -4.290045e+01 -4.335955e+01 -4.468566e+01 -4.513658e+01 -4.617141e+01 -4.660898e+01 -4.732945e+01 -4.774858e+01 -4.813238e+01 -4.852798e+01 -4.855417e+01 -4.892110e+01 -4.857084e+01 -4.890392e+01 -4.816143e+01 -4.845536e+01 -4.730907e+01 -4.755846e+01 -4.600234e+01 -4.620171e+01 -4.423664e+01 -4.438054e+01 -4.201564e+01 -4.209877e+01 -3.935258e+01 -3.936997e+01 -3.627125e+01 -3.621850e+01 -3.280642e+01 -3.268001e+01 -2.900376e+01 -2.880141e+01 -2.491895e+01 -2.463993e+01 -2.061611e+01 -2.026158e+01 -1.616563e+01 -1.573882e+01 -1.164153e+01 -1.114780e+01 -7.118600e+00 -6.565309e+00 -2.669601e+00 -2.065810e+00 1.637280e+00 2.281274e+00 5.740534e+00 6.413732e+00 9.586845e+00 1.027810e+01 1.313199e+01 1.383049e+01 1.634114e+01 1.703685e+01 1.918870e+01 1.987262e+01 2.165764e+01 2.232203e+01 2.373874e+01 2.437717e+01 2.542951e+01 2.603690e+01 2.673318e+01 2.730573e+01 2.765762e+01 2.819271e+01 2.821440e+01 2.871045e+01 2.841787e+01 2.887419e+01 2.828442e+01 2.870100e+01 2.783176e+01 2.820912e+01 2.707836e+01 
2.744042e+01 2.608718e+01 2.635592e+01 2.477674e+01 2.500658e+01 2.321858e+01 2.341111e+01 2.143091e+01 2.158753e+01 1.943127e+01 1.955306e+01 1.723647e+01 1.732418e+01 1.486263e+01 1.491665e+01 1.232529e+01 1.234565e+01 9.639546e+00 9.625940e+00 6.820193e+00 6.772048e+00 3.881951e+00 3.798503e+00 8.396841e-01 7.200865e-01 -2.291358e+00 -2.447899e+00 -5.495290e+00 -5.689372e+00 -8.755358e+00 -8.987218e+00 -1.205372e+01 -1.232308e+01 -1.537126e+01 -1.567721e+01 -1.868749e+01 -1.902834e+01 -2.198046e+01 -2.235372e+01 -2.522674e+01 -2.562913e+01 -2.840157e+01 -2.882903e+01 -3.147887e+01 -3.192671e+01 -3.443146e+01 -3.489450e+01 -3.723122e+01 -3.770394e+01 -3.984928e+01 -4.032600e+01 -4.225616e+01 -4.273114e+01 -4.442193e+01 -4.488956e+01 -4.631643e+01 -4.677120e+01 -4.790938e+01 -4.834597e+01 -4.917070e+01 -4.958394e+01 -5.007083e+01 -5.045569e+01 -5.058127e+01 -5.093280e+01 -5.067534e+01 -5.098864e+01 -5.032914e+01 -5.059934e+01 -4.952282e+01 -4.974508e+01 -4.824208e+01 -4.841159e+01 -4.647981e+01 -4.659180e+01 -4.423774e+01 -4.428761e+01 -4.152805e+01 -4.151140e+01 -3.837445e+01 -3.828735e+01 -3.481289e+01 -3.465205e+01 -3.089137e+01 -3.065451e+01 -2.666900e+01 -2.635519e+01 -2.221416e+01 -2.182424e+01 -1.760206e+01 -1.713895e+01 -1.291168e+01 -1.238056e+01 -8.222628e+00 -7.630914e+00 -3.612018e+00 -2.969098e+00 8.482980e-01 1.531509e+00 5.093948e+00 5.805602e+00 9.069600e+00 9.797548e+00 1.272983e+01 1.346222e+01 1.603934e+01 1.676513e+01 1.897265e+01 1.968195e+01 2.151335e+01 2.219769e+01 2.365311e+01 2.430556e+01 2.539058e+01 2.600576e+01 2.673020e+01 2.730423e+01 2.768112e+01 2.821148e+01 2.825610e+01 2.874148e+01 2.847065e+01 2.891075e+01 2.834216e+01 2.873746e+01 2.788923e+01 2.824081e+01 2.713110e+01 
2.895391e+01 2.748299e+01 2.778261e+01 2.608564e+01 2.634952e+01 2.444454e+01 2.467413e+01 2.257845e+01 2.277493e+01 2.050520e+01 2.066937e+01 1.824163e+01 1.837388e+01 1.580373e+01 1.590400e+01 1.320672e+01 1.327452e+01 1.046518e+01 1.049965e+01 7.593333e+00 7.593242e+00 4.605196e+00 4.569093e+00 1.514895e+00 1.441206e+00 -1.663074e+00 -1.775888e+00 -4.913553e+00 -5.066819e+00 -8.220439e+00 -8.415086e+00 -1.156643e+01 -1.180280e+01 -1.493281e+01 -1.521049e+01 -1.829932e+01 -1.861701e+01 -2.164404e+01 -2.199951e+01 -2.494346e+01 -2.533355e+01 -2.817253e+01 -2.859320e+01 -3.130481e+01 -3.175133e+01 -3.431268e+01 -3.477975e+01 -3.716750e+01 -3.764951e+01 -3.983986e+01 -4.033106e+01 -4.229975e+01 -4.279438e+01 -4.451664e+01 -4.500909e+01 -4.645971e+01 -4.694451e+01 -4.809789e+01 -4.856972e+01 -4.940008e+01 -4.985373e+01 -5.033544e+01 -5.076568e+01 -5.087382e+01 -5.127534e+01 -5.098649e+01 -5.135382e+01 -5.064714e+01 -5.097456e+01 -4.983319e+01 -5.011474e+01 -4.852746e+01 -4.875694e+01 -4.671998e+01 -4.689106e+01 -4.441005e+01 -4.451639e+01 -4.160804e+01 -4.164350e+01 -3.833691e+01 -3.829591e+01 -3.463319e+01 -3.451101e+01 -3.054694e+01 -3.034027e+01 -2.614089e+01 -2.584829e+01 -2.148855e+01 -2.111089e+01 -1.667132e+01 -1.621216e+01 -1.177520e+01 -1.124082e+01 -6.886946e+00 -6.286254e+00 -2.090519e+00 -1.434559e+00 2.536240e+00 3.234920e+00 6.924207e+00 7.652327e+00 1.101478e+01 1.175909e+01 1.476083e+01 1.550877e+01 1.812686e+01 1.886704e+01 2.108844e+01 2.181102e+01 2.363128e+01 2.432808e+01 2.574992e+01 2.641446e+01 2.744630e+01 2.807378e+01 2.872836e+01 2.931551e+01 2.960873e+01 3.015362e+01 3.010353e+01 3.060537e+01 3.023129e+01 3.069022e+01 3.001212e+01 3.042899e+01 2.946692e+01 2.984306e+01 2.861689e+01 
2.911715e+01 2.766182e+01 2.792608e+01 2.624482e+01 2.647053e+01 2.458109e+01 2.477034e+01 2.268966e+01 2.284420e+01 2.058845e+01 2.070958e+01 1.829430e+01 1.838284e+01 1.582305e+01 1.587930e+01 1.318966e+01 1.321344e+01 1.040841e+01 1.039908e+01 7.493118e+00 7.449630e+00 4.457383e+00 4.378402e+00 1.314876e+00 1.198907e+00 -1.920355e+00 -2.074806e+00 -5.233573e+00 -5.427811e+00 -8.609047e+00 -8.843975e+00 -1.202977e+01 -1.230568e+01 -1.547721e+01 -1.579361e+01 -1.893119e+01 -1.928664e+01 -2.236975e+01 -2.276178e+01 -2.576919e+01 -2.619433e+01 -2.910414e+01 -2.955797e+01 -3.234773e+01 -3.282506e+01 -3.547177e+01 -3.596683e+01 -3.844698e+01 -3.895364e+01 -4.124315e+01 -4.175513e+01 -4.382927e+01 -4.434037e+01 -4.617369e+01 -4.667789e+01 -4.824418e+01 -4.873567e+01 -5.000795e+01 -5.048119e+01 -5.143182e+01 -5.188145e+01 -5.248243e+01 -5.290324e+01 -5.312669e+01 -5.351351e+01 -5.333251e+01 -5.368015e+01 -5.306987e+01 -5.337308e+01 -5.231231e+01 -5.256576e+01 -5.103881e+01 -5.123708e+01 -4.923594e+01 -4.937356e+01 -4.690022e+01 -4.697171e+01 -4.404035e+01 -4.404035e+01 -4.067904e+01 -4.060248e+01 -3.685414e+01 -3.669656e+01 -3.261874e+01 -3.237669e+01 -2.804010e+01 -2.771171e+01 -2.319741e+01 -2.278294e+01 -1.817852e+01 -1.768086e+01 -1.307601e+01 -1.250103e+01 -7.982952e+00 -7.339502e+00 -2.988926e+00 -2.288429e+00 1.823591e+00 2.567769e+00 6.381968e+00 7.155389e+00 1.062527e+01 1.141332e+01 1.450511e+01 1.529382e+01 1.798570e+01 1.876236e+01 2.104309e+01 2.179670e+01 2.366403e+01 2.438550e+01 2.584445e+01 2.652671e+01 2.758792e+01 2.822583e+01 2.890411e+01 2.949433e+01 2.980733e+01 3.034812e+01 3.031531e+01 3.080626e+01 3.044808e+01 3.088988e+01 3.022706e+01 3.062118e+01 2.967432e+01 3.002279e+01 2.881200e+01 
3.074545e+01 2.915940e+01 2.945549e+01 2.764407e+01 2.790512e+01 2.588699e+01 2.611497e+01 2.390772e+01 2.410416e+01 2.172443e+01 2.189032e+01 1.935391e+01 1.948970e+01 1.681173e+01 1.691727e+01 1.411241e+01 1.418695e+01 1.126959e+01 1.131185e+01 8.296300e+00 8.304520e+00 5.205258e+00 5.177319e+00 2.009187e+00 1.942750e+00 -1.278832e+00 -1.386139e+00 -4.644996e+00 -4.795345e+00 -8.074410e+00 -8.269528e+00 -1.155075e+01 -1.179167e+01 -1.505600e+01 -1.534280e+01 -1.857022e+01 -1.890190e+01 -2.207150e+01 -2.244583e+01 -2.553592e+01 -2.594951e+01 -2.893776e+01 -2.938611e+01 -3.224961e+01 -3.272737e+01 -3.544267e+01 -3.594386e+01 -3.848701e+01 -3.900531e+01 -4.135177e+01 -4.188080e+01 -4.400533e+01 -4.453885e+01 -4.641540e+01 -4.694746e+01 -4.854907e+01 -4.907399e+01 -5.037274e+01 -5.088513e+01 -5.185217e+01 -5.234676e+01 -5.295258e+01 -5.342410e+01 -5.363898e+01 -5.408197e+01 -5.387680e+01 -5.428551e+01 -5.363296e+01 -5.400124e+01 -5.287743e+01 -5.319867e+01 -5.158527e+01 -5.185240e+01 -4.973908e+01 -4.994468e+01 -4.733175e+01 -4.746817e+01 -4.436917e+01 -4.442880e+01 -4.087255e+01 -4.084815e+01 -3.687999e+01 -3.676520e+01 -3.244689e+01 -3.223689e+01 -2.764500e+01 -2.733719e+01 -2.256002e+01 -2.215474e+01 -1.728797e+01 -1.678903e+01 -1.193061e+01 -1.134549e+01 -6.590555e+00 -5.930211e+00 -1.366372e+00 -6.445816e-01 3.651640e+00 4.419233e+00 8.384777e+00 9.181788e+00 1.276809e+01 1.357847e+01 1.675133e+01 1.756023e+01 2.029879e+01 2.109320e+01 2.338832e+01 2.415739e+01 2.600970e+01 2.674483e+01 2.816276e+01 2.885760e+01 2.985544e+01 3.050564e+01 3.110189e+01 3.170494e+01 3.192081e+01 3.247572e+01 3.233398e+01 3.284103e+01 3.236509e+01 3.282550e+01 3.203871e+01 3.245440e+01 3.137958e+01 3.175289e+01 3.041200e+01 
3.105058e+01 2.947482e+01 2.973262e+01 2.793190e+01 2.815182e+01 2.614448e+01 2.632923e+01 2.413243e+01 2.428418e+01 2.191402e+01 2.203433e+01 1.950603e+01 1.959580e+01 1.692384e+01 1.698328e+01 1.418165e+01 1.421031e+01 1.129270e+01 1.128951e+01 8.269520e+00 8.232858e+00 5.124289e+00 5.052103e+00 1.869144e+00 1.759104e+00 -1.483423e+00 -1.633722e+00 -4.920169e+00 -5.112962e+00 -8.426703e+00 -8.663783e+00 -1.198711e+01 -1.226955e+01 -1.558365e+01 -1.591152e+01 -1.919653e+01 -1.956871e+01 -2.280381e+01 -2.321787e+01 -2.638139e+01 -2.683360e+01 -2.990319e+01 -3.038863e+01 -3.334135e+01 -3.385410e+01 -3.666648e+01 -3.719995e+01 -3.984793e+01 -4.039517e+01 -4.285401e+01 -4.340801e+01 -4.565216e+01 -4.620609e+01 -4.820890e+01 -4.875629e+01 -5.048988e+01 -5.102462e+01 -5.245969e+01 -5.297606e+01 -5.408181e+01 -5.457432e+01 -5.531861e+01 -5.578192e+01 -5.613163e+01 -5.656040e+01 -5.648223e+01 -5.687097e+01 -5.633268e+01 -5.667574e+01 -5.564794e+01 -5.593943e+01 -5.439794e+01 -5.463176e+01 -5.256052e+01 -5.273035e+01 -5.012458e+01 -5.022394e+01 -4.709344e+01 -4.711572e+01 -4.348757e+01 -4.342629e+01 -3.934657e+01 -3.919564e+01 -3.472969e+01 -3.448399e+01 -2.971464e+01 -2.937076e+01 -2.439471e+01 -2.395187e+01 -1.887445e+01 -1.833531e+01 -1.326437e+01 -1.263556e+01 -7.675282e+00 -6.967495e+00 -2.212913e+00 -1.440378e+00 3.026676e+00 3.847205e+00 7.960600e+00 8.811130e+00 1.252131e+01 1.338392e+01 1.665741e+01 1.751535e+01 2.033327e+01 2.117177e+01 2.352775e+01 2.433448e+01 2.623230e+01 2.699755e+01 2.844881e+01 2.916548e+01 3.018747e+01 3.085087e+01 3.146471e+01 3.207234e+01 3.230144e+01 3.285262e+01 3.272152e+01 3.321705e+01 3.275047e+01 3.319231e+01 3.241453e+01 3.280540e+01 3.173982e+01 3.208294e+01 3.075180e+01 