# vtk DataFile Version 2.0
Comment goes here
ASCII

DATASET STRUCTURED_POINTS
FIELD FieldData 1
TIME 1 1 double
0.14500000
DIMENSIONS    128   128   1

ORIGIN    0.000   0.000   0.000
SPACING   0.039062 0.039062   1.000

POINT_DATA   16384
SCALARS P double
LOOKUP_TABLE default

-9.754498e+00 -8.758910e+00 -9.644084e+00 -8.533323e+00 -9.467599e+00 -8.253463e+00 -9.230517e+00 -7.925325e+00 -8.938179e+00 -7.554629e+00 -8.595570e+00 -7.146625e+00 -8.207156e+00 -6.705947e+00 -7.776766e+00 -6.236519e+00 -7.307534e+00 -5.741524e+00 -6.801906e+00 -5.223438e+00 -6.261711e+00 -4.684115e+00 -5.688283e+00 -4.124934e+00 -5.082647e+00 -3.546988e+00 -4.445729e+00 -2.951302e+00 -3.778604e+00 -2.339068e+00 -3.082742e+00 -1.711874e+00 -2.360244e+00 -1.071917e+00 -1.614058e+00 -4.221683e-01 -8.481353e-01 2.335053e-01 -6.753733e-02 8.902869e-01 7.215234e-01 1.542421e+00 1.511718e+00 2.183292e+00 2.294704e+00 2.805561e+00 3.061289e+00 3.401357e+00 3.801652e+00 3.962500e+00 4.505602e+00 4.480750e+00 5.162864e+00 4.948062e+00 5.763368e+00 5.356823e+00 6.297543e+00 5.700084e+00 6.756576e+00 5.971740e+00 7.132653e+00 6.166688e+00 7.419148e+00 6.280935e+00 7.610775e+00 6.311664e+00 7.703689e+00 6.257265e+00 7.695534e+00 6.117328e+00 7.585461e+00 5.892611e+00 7.374092e+00 5.584987e+00 7.063469e+00 5.197379e+00 6.656968e+00 4.733688e+00 6.159210e+00 4.198723e+00 5.575956e+00 3.598139e+00 4.914011e+00 2.938378e+00 4.181129e+00 2.226621e+00 3.385920e+00 1.470744e+00 2.537775e+00 6.792764e-01 1.646775e+00 -1.386505e-01 7.236110e-01 -9.733640e-01 -2.205157e-01 -1.814738e+00 -1.174015e+00 -2.652310e+00 -2.125051e+00 -3.475431e+00 -3.061723e+00 -4.273452e+00 -3.972274e+00 -5.035951e+00 -4.845328e+00 -5.752976e+00 -5.670151e+00 -6.415305e+00 -6.436908e+00 -7.014705e+00 -7.136914e+00 -7.544170e+00 -7.762857e+00 -7.998109e+00 -8.308964e+00 -8.372498e+00 -8.771118e+00 -8.664949e+00 -9.146896e+00 -8.874719e+00 -9.435539e+00 -9.002641e+00 -9.637851e+00 -9.050997e+00 -9.756034e+00 -9.023323e+00 -9.793476e+00 -8.924184e+00 
-9.077959e+00 -7.966352e+00 -8.983845e+00 -7.752532e+00 -8.822542e+00 -7.483653e+00 -8.599386e+00 -7.165599e+00 -8.319621e+00 -6.804020e+00 -7.988190e+00 -6.404135e+00 -7.609552e+00 -5.970584e+00 -7.187566e+00 -5.507327e+00 -6.725421e+00 -5.017606e+00 -6.225640e+00 -4.503971e+00 -5.690138e+00 -3.968358e+00 -5.120339e+00 -3.412228e+00 -4.517354e+00 -2.836753e+00 -3.882185e+00 -2.243025e+00 -3.215971e+00 -1.632288e+00 -2.520226e+00 -1.006172e+00 -1.797085e+00 -3.668950e-01 -1.049508e+00 2.825583e-01 -2.814524e-01 9.383197e-01 5.020214e-01 1.595576e+00 1.294705e+00 2.248578e+00 2.089269e+00 2.890713e+00 2.877363e+00 3.514641e+00 3.649777e+00 4.112484e+00 4.396664e+00 4.676052e+00 5.107796e+00 5.197091e+00 5.772855e+00 5.667540e+00 6.381727e+00 6.079779e+00 6.924797e+00 6.426856e+00 7.393217e+00 6.702678e+00 7.779147e+00 6.902165e+00 8.075945e+00 7.021364e+00 8.278322e+00 7.057508e+00 8.382432e+00 7.009049e+00 8.385927e+00 6.875641e+00 8.287958e+00 6.658102e+00 8.089137e+00 6.358354e+00 7.791475e+00 5.979345e+00 7.398288e+00 5.524974e+00 6.914102e+00 5.000012e+00 6.344546e+00 4.410030e+00 5.696249e+00 3.761344e+00 4.976750e+00 3.060963e+00 4.194409e+00 2.316546e+00 3.358334e+00 1.536371e+00 2.478308e+00 7.292910e-01 1.564717e+00 -9.531903e-02 6.284630e-01 -9.276328e-01 -3.191394e-01 -1.757476e+00 -1.266494e+00 -2.574462e+00 -2.201887e+00 -3.368166e+00 -3.113687e+00 -4.128337e+00 -3.990575e+00 -4.845129e+00 -4.821794e+00 -5.509361e+00 -5.597409e+00 -6.112766e+00 -6.308566e+00 -6.648230e+00 -6.947708e+00 -7.109996e+00 -7.508769e+00 -7.493811e+00 -7.987289e+00 -7.797017e+00 -8.380479e+00 -8.018571e+00 -8.687200e+00 -8.158991e+00 -8.907879e+00 -8.220242e+00 -9.044363e+00 -8.205561e+00 -9.099712e+00 -8.119235e+00 
-9.791392e+00 -8.790327e+00 -9.678449e+00 -8.561863e+00 -9.499357e+00 -8.279122e+00 -9.259709e+00 -7.948211e+00 -8.964947e+00 -7.574942e+00 -8.620138e+00 -7.164636e+00 -8.229806e+00 -6.721971e+00 -7.797805e+00 -6.250888e+00 -7.327270e+00 -5.754560e+00 -6.820616e+00 -5.235419e+00 -6.279612e+00 -4.695254e+00 -5.705511e+00 -4.135359e+00 -5.099237e+00 -3.556723e+00 -4.461603e+00 -2.960263e+00 -3.793569e+00 -2.347065e+00 -3.096492e+00 -1.718620e+00 -2.372378e+00 -1.077045e+00 -1.624098e+00 -4.252584e-01 -8.555540e-01 2.328971e-01 -7.179266e-02 8.925976e-01 7.209572e-01 1.548049e+00 1.515317e+00 2.192566e+00 2.302861e+00 2.818721e+00 3.074293e+00 3.418531e+00 3.819665e+00 3.983698e+00 4.528650e+00 4.505861e+00 5.190829e+00 4.976858e+00 5.795997e+00 5.388971e+00 6.334453e+00 5.735160e+00 6.797274e+00 6.009251e+00 7.176551e+00 6.206090e+00 7.465591e+00 6.321655e+00 7.659060e+00 6.353116e+00 7.753087e+00 6.298869e+00 7.745317e+00 6.158522e+00 7.634911e+00 5.932859e+00 7.422522e+00 5.623784e+00 7.110230e+00 5.234254e+00 6.701456e+00 4.768202e+00 6.200867e+00 4.230467e+00 5.614273e+00 3.626730e+00 4.948524e+00 2.963453e+00 4.211413e+00 2.247839e+00 3.411593e+00 1.487782e+00 2.558492e+00 6.918348e-01 1.662234e+00 -1.308392e-01 7.335602e-01 -9.705257e-01 -2.162719e-01 -1.817042e+00 -1.175599e+00 -2.659850e+00 -2.132499e+00 -3.488210e+00 -3.074968e+00 -4.291366e+00 -3.991134e+00 -5.058775e+00 -4.869497e+00 -5.780359e+00 -5.699197e+00 -6.446775e+00 -6.470277e+00 -7.049675e+00 -7.173949e+00 -7.581957e+00 -7.802817e+00 -8.037964e+00 -8.351053e+00 -8.413632e+00 -8.814519e+00 -8.706570e+00 -9.190805e+00 -8.916062e+00 -9.479196e+00 -9.043004e+00 -9.680572e+00 -9.089762e+00 -9.797236e+00 -9.059982e+00 -9.832693e+00 -8.958350e+00 
-9.152699e+00 -8.029835e+00 -9.053714e+00 -7.810414e+00 -8.887333e+00 -7.535883e+00 -8.659131e+00 -7.212348e+00 -8.374561e+00 -6.845647e+00 -8.038732e+00 -6.441148e+00 -7.656224e+00 -6.003585e+00 -7.230957e+00 -5.536959e+00 -6.766129e+00 -5.044495e+00 -6.264208e+00 -4.528668e+00 -5.726998e+00 -3.991289e+00 -5.155768e+00 -3.433653e+00 -4.551431e+00 -2.856732e+00 -3.914770e+00 -2.261404e+00 -3.246692e+00 -1.648703e+00 -2.548490e+00 -1.020062e+00 -1.822103e+00 -3.775421e-01 -1.070336e+00 2.759851e-01 -2.970443e-01 9.367037e-01 4.927503e-01 1.599790e+00 1.292809e+00 2.259419e+00 2.095707e+00 2.908846e+00 2.892934e+00 3.540549e+00 3.675068e+00 4.146430e+00 4.432008e+00 4.718060e+00 5.153250e+00 5.246937e+00 5.828188e+00 5.724766e+00 6.446430e+00 6.143709e+00 6.998099e+00 6.496633e+00 7.474121e+00 6.777302e+00 7.866469e+00 6.980535e+00 8.168364e+00 7.102319e+00 8.374423e+00 7.139871e+00 8.480760e+00 7.091655e+00 8.485025e+00 6.957370e+00 8.386406e+00 6.737895e+00 8.185580e+00 6.435221e+00 7.884643e+00 6.052375e+00 7.487007e+00 5.593326e+00 6.997298e+00 5.062908e+00 6.421240e+00 4.466749e+00 5.765551e+00 3.811207e+00 5.037850e+00 3.103327e+00 4.246567e+00 2.350803e+00 3.400880e+00 1.561950e+00 2.510645e+00 7.456705e-01 1.586329e+00 -8.858805e-02 6.389371e-01 -9.308998e-01 -3.200865e-01 -1.770957e+00 -1.278985e+00 -2.598203e+00 -2.225852e+00 -3.402012e+00 -3.148833e+00 -4.171901e+00 -4.036367e+00 -4.897781e+00 -4.877444e+00 -5.570227e+00 -5.661887e+00 -6.180742e+00 -6.380622e+00 -6.722018e+00 -7.025916e+00 -7.188150e+00 -7.591578e+00 -7.574797e+00 -8.073092e+00 -7.879277e+00 -8.467676e+00 -8.100590e+00 -8.774267e+00 -8.239361e+00 -8.993431e+00 -8.297715e+00 -9.127201e+00 -8.279094e+00 -9.178862e+00 -8.188020e+00 
-9.902318e+00 -8.884742e+00 -9.781660e+00 -8.647525e+00 -9.594629e+00 -8.356032e+00 -9.347180e+00 -8.016707e+00 -9.045066e+00 -7.635647e+00 -8.693603e+00 -7.218390e+00 -8.297486e+00 -6.769749e+00 -7.860655e+00 -6.293717e+00 -7.386241e+00 -5.793426e+00 -6.876565e+00 -5.271187e+00 -6.333218e+00 -4.728585e+00 -5.757200e+00 -4.166645e+00 -5.149123e+00 -3.586047e+00 -4.509457e+00 -2.987373e+00 -3.838803e+00 -2.371378e+00 -3.138179e+00 -1.739257e+00 -2.409292e+00 -1.092882e+00 -1.654776e+00 -4.350066e-01 -8.783864e-01 2.306029e-01 -8.511686e-02 8.990997e-01 7.187515e-01 1.564570e+00 1.525686e+00 2.220120e+00 2.327014e+00 2.858040e+00 3.113112e+00 3.470013e+00 3.873650e+00 4.047375e+00 4.597880e+00 4.581395e+00 5.274951e+00 5.063552e+00 5.894238e+00 5.485810e+00 6.445651e+00 5.840855e+00 6.919927e+00 6.122301e+00 7.308877e+00 6.324845e+00 7.605598e+00 6.444374e+00 7.804616e+00 6.478029e+00 7.901991e+00 6.424223e+00 7.895358e+00 6.282620e+00 7.783928e+00 6.054087e+00 7.568442e+00 5.740627e+00 7.251099e+00 5.345299e+00 6.835459e+00 4.872137e+00 6.326335e+00 4.326068e+00 5.729678e+00 3.712849e+00 5.052472e+00 3.039007e+00 4.302637e+00 2.311801e+00 3.488943e+00 1.539180e+00 2.620933e+00 7.297648e-01 1.708854e+00 -1.071942e-01 7.635871e-01 -9.618587e-01 -2.034349e-01 -1.823876e+00 -1.180336e+00 -2.682488e+00 -2.154932e+00 -3.526674e+00 -3.114909e+00 -4.345354e+00 -4.048045e+00 -5.127620e+00 -4.942462e+00 -5.863009e+00 -5.786911e+00 -6.541798e+00 -6.571070e+00 -7.155293e+00 -7.285824e+00 -7.696099e+00 -7.923521e+00 -8.158348e+00 -8.478168e+00 -8.537860e+00 -8.945558e+00 -8.832229e+00 -9.323321e+00 -9.040830e+00 -9.610883e+00 -9.164743e+00 -9.809355e+00 -9.206601e+00 -9.921346e+00 -9.170381e+00 -9.950719e+00 -9.061143e+00 
-9.302717e+00 -8.157175e+00 -9.193733e+00 -7.926308e+00 -9.016959e+00 -7.640249e+00 -8.778457e+00 -7.305561e+00 -8.484109e+00 -6.928472e+00 -8.139366e+00 -6.514649e+00 -7.749054e+00 -6.069023e+00 -7.317223e+00 -5.595677e+00 -6.847081e+00 -5.097800e+00 -6.340987e+00 -4.577714e+00 -5.800521e+00 -4.036971e+00 -5.226624e+00 -3.476520e+00 -4.619804e+00 -2.896919e+00 -3.980386e+00 -2.298604e+00 -3.308800e+00 -1.682166e+00 -2.605880e+00 -1.048634e+00 -1.873155e+00 -3.997361e-01 -1.113107e+00 2.618880e-01 -3.293792e-01 9.325330e-01 4.730877e-01 1.607354e+00 1.287996e+00 2.280373e+00 2.107722e+00 2.944568e+00 2.923428e+00 3.592040e+00 3.725254e+00 4.214240e+00 4.502580e+00 4.802240e+00 5.244330e+00 5.347033e+00 5.939309e+00 5.839835e+00 6.576550e+00 6.272372e+00 7.145646e+00 6.637135e+00 7.637059e+00 6.927598e+00 8.042384e+00 7.138382e+00 8.354563e+00 7.265358e+00 8.568033e+00 7.305710e+00 8.678825e+00 7.257943e+00 8.684596e+00 7.121846e+00 8.584615e+00 6.898427e+00 8.379697e+00 6.589831e+00 8.072117e+00 6.199241e+00 7.665489e+00 5.730774e+00 7.164641e+00 5.189395e+00 6.575493e+00 4.580840e+00 5.904942e+00 3.911551e+00 5.160763e+00 3.188641e+00 4.351529e+00 2.419863e+00 3.486546e+00 1.613601e+00 2.575806e+00 7.788494e-01 1.629935e+00 -7.480930e-02 6.601349e-01 -9.372545e-01 -3.218956e-01 -1.797912e+00 -1.304079e+00 -2.645886e+00 -2.274120e+00 -3.470135e+00 -3.219710e+00 -4.259708e+00 -4.128788e+00 -5.004013e+00 -4.989828e+00 -5.693115e+00 -5.792148e+00 -6.318049e+00 -6.526219e+00 -6.871099e+00 -7.183942e+00 -7.346054e+00 -7.758869e+00 -7.738390e+00 -8.246364e+00 -8.045378e+00 -8.643662e+00 -8.266106e+00 -8.949861e+00 -8.401420e+00 -9.165807e+00 -8.453777e+00 -9.293922e+00 -8.427040e+00 -9.337959e+00 -8.326220e+00 
-1.008800e+01 -9.042644e+00 -9.954052e+00 -8.790423e+00 -9.753390e+00 -8.483967e+00 -9.492594e+00 -8.130306e+00 -9.177954e+00 -7.736025e+00 -8.815212e+00 -7.307031e+00 -8.409358e+00 -6.848376e+00 -7.964484e+00 -6.364136e+00 -7.483710e+00 -5.857380e+00 -6.969197e+00 -5.330201e+00 -6.422222e+00 -4.783831e+00 -5.843349e+00 -4.218830e+00 -5.232650e+00 -3.635329e+00 -4.589989e+00 -3.033327e+00 -3.915346e+00 -2.412999e+00 -3.209139e+00 -1.775016e+00 -2.472551e+00 -1.120824e+00 -1.707807e+00 -4.528804e-01 -9.183957e-01 2.251800e-01 -1.092193e-01 9.084725e-01 7.133528e-01 1.590874e+00 1.541521e+00 2.265127e+00 2.366185e+00 2.923030e+00 3.177156e+00 3.555681e+00 3.963438e+00 4.153783e+00 4.713557e+00 4.707959e+00 5.415918e+00 5.209076e+00 6.059170e+00 5.648545e+00 6.632557e+00 6.018589e+00 7.126235e+00 6.312464e+00 7.531544e+00 6.524614e+00 7.841224e+00 6.650787e+00 8.049572e+00 6.688083e+00 8.152538e+00 6.634953e+00 8.147754e+00 6.491169e+00 8.034522e+00 6.257748e+00 7.813746e+00 5.936871e+00 7.487838e+00 5.531776e+00 7.060600e+00 5.046669e+00 6.537096e+00 4.486630e+00 5.923521e+00 3.857540e+00 5.227086e+00 3.166031e+00 4.455917e+00 2.419442e+00 3.618971e+00 1.625808e+00 2.725972e+00 7.938427e-01 1.787361e+00 -6.706697e-02 8.142432e-01 -9.468888e-01 -1.816727e-01 -1.834996e+00 -1.188160e+00 -2.720259e+00 -2.192598e+00 -3.591193e+00 -3.182152e+00 -4.436157e+00 -4.143997e+00 -5.243614e+00 -5.065601e+00 -6.002435e+00 -5.935046e+00 -6.702236e+00 -6.741365e+00 -7.333714e+00 -7.474877e+00 -7.888966e+00 -8.127481e+00 -8.361753e+00 -8.692889e+00 -8.747690e+00 -9.166782e+00 -9.044350e+00 -9.546855e+00 -9.251264e+00 -9.832782e+00 -9.369837e+00 -1.002608e+01 -9.403165e+00 -1.012988e+01 -9.355800e+00 -1.014868e+01 -9.233447e+00 
-9.529085e+00 -8.349113e+00 -9.404450e+00 -8.100450e+00 -9.211480e+00 -7.796531e+00 -8.956999e+00 -7.444632e+00 -8.647556e+00 -7.051589e+00 -8.289142e+00 -6.623538e+00 -7.886961e+00 -6.165717e+00 -7.445272e+00 -5.682337e+00 -6.967298e+00 -5.176530e+00 -6.455225e+00 -4.650376e+00 -5.910277e+00 -4.105018e+00 -5.332881e+00 -3.540851e+00 -4.722901e+00 -2.957779e+00 -4.079936e+00 -2.355527e+00 -3.403655e+00 -1.733981e+00 -2.694159e+00 -1.093520e+00 -1.952325e+00 -4.353378e-01 -1.180115e+00 2.382982e-01 -3.808303e-01 9.238635e-01 4.407222e-01 1.616481e+00 1.278156e+00 2.309929e+00 2.123534e+00 2.996749e+00 2.967504e+00 3.668441e+00 3.799518e+00 4.315738e+00 4.608135e+00 4.928928e+00 5.381383e+00 5.498203e+00 6.107143e+00 6.014017e+00 6.773547e+00 6.467408e+00 7.369362e+00 6.850293e+00 7.884334e+00 7.155705e+00 8.309479e+00 7.377959e+00 8.637313e+00 7.512768e+00 8.862008e+00 7.557282e+00 8.979482e+00 7.510078e+00 8.987419e+00 7.371107e+00 8.885229e+00 7.141593e+00 8.673960e+00 6.823929e+00 8.356177e+00 6.421546e+00 7.935814e+00 5.938798e+00 7.418021e+00 5.380852e+00 6.809023e+00 4.753601e+00 6.115988e+00 4.063611e+00 5.346920e+00 3.318080e+00 4.510592e+00 2.524834e+00 3.616489e+00 1.692336e+00 2.674787e+00 8.296979e-01 1.696326e+00 -5.331444e-02 6.925873e-01 -9.463020e-01 -3.243642e-01 -1.838297e+00 -1.341973e+00 -2.717885e+00 -2.347347e+00 -3.573389e+00 -3.327479e+00 -4.393122e+00 -4.269526e+00 -5.165697e+00 -5.161142e+00 -5.880380e+00 -5.990846e+00 -6.527451e+00 -6.748387e+00 -7.098548e+00 -7.425076e+00 -7.586973e+00 -8.014060e+00 -7.987909e+00 -8.510507e+00 -8.298553e+00 -8.911687e+00 -8.518137e+00 -9.216949e+00 -8.647857e+00 -9.427591e+00 -8.690696e+00 -9.546649e+00 -8.651186e+00 -9.578610e+00 -8.535100e+00 
-1.034965e+01 -9.264834e+00 -1.019616e+01 -8.990709e+00 -9.975555e+00 -8.662502e+00 -9.695331e+00 -8.288095e+00 -9.362563e+00 -7.874791e+00 -8.983623e+00 -7.429043e+00 -8.563935e+00 -6.956248e+00 -8.107810e+00 -6.460612e+00 -7.618360e+00 -5.945106e+00 -7.097504e+00 -5.411498e+00 -6.546059e+00 -4.860495e+00 -5.963932e+00 -4.291957e+00 -5.350389e+00 -3.705195e+00 -4.704391e+00 -3.099324e+00 -4.024980e+00 -2.473648e+00 -3.311676e+00 -1.828040e+00 -2.564869e+00 -1.163300e+00 -1.786161e+00 -4.814397e-01 -9.786409e-01 2.141113e-01 -1.470672e-01 9.184117e-01 7.020638e-01 1.625025e+00 1.560558e+00 2.326147e+00 2.418678e+00 3.012836e+00 3.265397e+00 3.675320e+00 4.088731e+00 4.303353e+00 4.876131e+00 4.886604e+00 5.614905e+00 5.415033e+00 6.292639e+00 5.879246e+00 6.897602e+00 6.270796e+00 7.419108e+00 6.582422e+00 7.847817e+00 6.808227e+00 8.175968e+00 6.943771e+00 8.397542e+00 6.986114e+00 8.508349e+00 6.933795e+00 8.506041e+00 6.786759e+00 8.390073e+00 6.546267e+00 8.161608e+00 6.214766e+00 7.823387e+00 5.795772e+00 7.379577e+00 5.293744e+00 6.835614e+00 4.713981e+00 6.198047e+00 4.062538e+00 5.474410e+00 3.346177e+00 4.673110e+00 2.572337e+00 3.803351e+00 1.749139e+00 2.875091e+00 8.854044e-01 1.899009e+00 -9.323193e-03 8.864952e-01 -9.247654e-01 -1.503783e-01 -1.849928e+00 -1.198910e+00 -2.773171e+00 -2.245872e+00 -3.682341e+00 -3.277680e+00 -4.564986e+00 -4.280634e+00 -5.408644e+00 -5.241238e+00 -6.201193e+00 -6.146574e+00 -6.931259e+00 -6.984710e+00 -7.588626e+00 -7.745110e+00 -8.164622e+00 -8.418997e+00 -8.652451e+00 -8.999642e+00 -9.047425e+00 -9.482551e+00 -9.347084e+00 -9.865528e+00 -9.551199e+00 -1.014862e+01 -9.661660e+00 -1.033394e+01 -9.682259e+00 -1.042542e+01 -9.618399e+00 -1.042849e+01 -9.476742e+00 
-9.833411e+00 -8.606743e+00 -9.686652e+00 -8.333148e+00 -9.470920e+00 -8.004321e+00 -9.194115e+00 -7.628549e+00 -8.863726e+00 -7.213521e+00 -8.486501e+00 -6.766033e+00 -8.068186e+00 -6.291758e+00 -7.613329e+00 -5.795091e+00 -7.125179e+00 -5.279079e+00 -6.605675e+00 -4.745459e+00 -6.055536e+00 -4.194783e+00 -5.474450e+00 -3.626652e+00 -4.861357e+00 -3.040020e+00 -4.214807e+00 -2.433586e+00 -3.533374e+00 -1.806201e+00 -2.816093e+00 -1.157301e+00 -2.062891e+00 -4.872984e-01 -1.274974e+00 2.020907e-01 -4.551397e-01 9.076071e-01 3.920055e-01 1.624332e+00 1.259955e+00 2.345693e+00 2.140331e+00 3.063598e+00 3.023044e+00 3.768682e+00 3.896563e+00 4.450644e+00 4.748280e+00 5.098646e+00 5.564945e+00 5.701739e+00 6.333126e+00 6.249291e+00 7.039687e+00 6.731377e+00 7.672236e+00 7.139115e+00 8.219519e+00 7.464931e+00 8.671755e+00 7.702743e+00 9.020885e+00 7.848063e+00 9.260735e+00 7.898027e+00 9.387098e+00 7.851350e+00 9.397725e+00 7.708235e+00 9.292257e+00 7.470238e+00 9.072098e+00 7.140117e+00 8.740243e+00 6.721672e+00 8.301091e+00 6.219590e+00 7.760257e+00 5.639318e+00 7.124388e+00 4.986963e+00 6.401019e+00 4.269236e+00 5.598457e+00 3.493423e+00 4.725714e+00 2.667413e+00 3.792483e+00 1.799730e+00 2.809138e+00 8.995986e-01 1.786765e+00 -2.301050e-02 7.371751e-01 -9.573559e-01 -3.271024e-01 -1.891957e+00 -1.392882e+00 -2.814697e+00 -2.446465e+00 -3.713015e+00 -3.473866e+00 -4.574188e+00 -4.461133e+00 -5.385694e+00 -5.394750e+00 -6.135644e+00 -6.262080e+00 -6.813224e+00 -7.051820e+00 -7.409138e+00 -7.754428e+00 -7.915980e+00 -8.362461e+00 -8.328511e+00 -8.870810e+00 -8.643823e+00 -9.276794e+00 -8.861361e+00 -9.580131e+00 -8.982827e+00 -9.782772e+00 -9.011966e+00 -9.888635e+00 -8.954263e+00 -9.903260e+00 -8.816577e+00 
-1.068894e+01 -9.552397e+00 -1.050866e+01 -9.248519e+00 -1.026090e+01 -8.890919e+00 -9.954376e+00 -8.488643e+00 -9.597256e+00 -8.049972e+00 -9.196766e+00 -7.582108e+00 -8.758930e+00 -7.090924e+00 -8.288361e+00 -6.580805e+00 -7.788162e+00 -6.054586e+00 -7.259919e+00 -5.513589e+00 -6.703811e+00 -4.957783e+00 -6.118835e+00 -4.386050e+00 -5.503128e+00 -3.796544e+00 -4.854382e+00 -3.187133e+00 -4.170318e+00 -2.555879e+00 -3.449187e+00 -1.901525e+00 -2.690256e+00 -1.223946e+00 -1.894243e+00 -5.245173e-01 -1.063666e+00 1.936265e-01 -2.030713e-01 9.254669e-01 6.808733e-01 1.664125e+00 1.579427e+00 2.401024e+00 2.481967e+00 3.126184e+00 3.376300e+00 3.828606e+00 4.249074e+00 4.496723e+00 5.086252e+00 5.118878e+00 5.873631e+00 5.683784e+00 6.597342e+00 6.180949e+00 7.244329e+00 6.601024e+00 7.802773e+00 6.936078e+00 8.262429e+00 7.179772e+00 8.614885e+00 7.327456e+00 8.853726e+00 7.376179e+00 8.974611e+00 7.324634e+00 8.975260e+00 7.173047e+00 8.855376e+00 6.923036e+00 8.616508e+00 6.577445e+00 8.261873e+00 6.140179e+00 7.796158e+00 5.616050e+00 7.225314e+00 5.010648e+00 6.556373e+00 4.330249e+00 5.797287e+00 3.581761e+00 4.956817e+00 2.772716e+00 4.044457e+00 1.911299e+00 3.070416e+00 1.006411e+00 2.045631e+00 6.774191e-02 9.818016e-01 -8.941647e-01 -1.085824e-01 -1.867878e+00 -1.212241e+00 -2.841110e+00 -2.315172e+00 -3.800832e+00 -3.402801e+00 -4.733498e+00 -4.460245e+00 -5.625369e+00 -5.472674e+00 -6.462944e+00 -6.425773e+00 -7.233455e+00 -7.306249e+00 -7.925392e+00 -8.102355e+00 -8.528999e+00 -8.804353e+00 -9.036691e+00 -9.404892e+00 -9.443354e+00 -9.899237e+00 -9.746491e+00 -1.028535e+01 -9.946216e+00 -1.056380e+01 -1.004511e+01 -1.073755e+01 -1.004793e+01 -1.081166e+01 -9.961270e+00 -1.079282e+01 -9.793117e+00 
-1.021783e+01 -8.931490e+00 -1.004131e+01 -8.624714e+00 -9.795178e+00 -8.262929e+00 -9.488765e+00 -7.855768e+00 -9.130823e+00 -7.412064e+00 -8.729115e+00 -6.939501e+00 -8.290112e+00 -6.444337e+00 -7.818757e+00 -5.931213e+00 -7.318336e+00 -5.403069e+00 -6.790457e+00 -4.861173e+00 -6.235154e+00 -4.305273e+00 -5.651107e+00 -3.733872e+00 -5.035990e+00 -3.144617e+00 -4.386910e+00 -2.534774e+00 -3.700923e+00 -1.901760e+00 -2.975587e+00 -1.243685e+00 -2.209508e+00 -5.598638e-01 -1.402833e+00 1.487613e-01 -5.576518e-01 8.793100e-01 3.217213e-01 1.626810e+00 1.228625e+00 2.384206e+00 2.154086e+00 3.142531e+00 3.087011e+00 3.891221e+00 4.014527e+00 4.618549e+00 4.922437e+00 5.312132e+00 5.795753e+00 5.959467e+00 6.619272e+00 6.548455e+00 7.378152e+00 7.067881e+00 8.058452e+00 7.507811e+00 8.647599e+00 7.859892e+00 9.134776e+00 8.117549e+00 9.511195e+00 8.276082e+00 9.770266e+00 8.332655e+00 9.907663e+00 8.286222e+00 9.921283e+00 8.137372e+00 9.811129e+00 7.888150e+00 9.579122e+00 7.541835e+00 9.228874e+00 7.102741e+00 8.765437e+00 6.576009e+00 8.195055e+00 5.967458e+00 7.524942e+00 5.283458e+00 6.763102e+00 4.530876e+00 5.918204e+00 3.717068e+00 4.999524e+00 2.849932e+00 4.016948e+00 1.937997e+00 2.981030e+00 9.905475e-01 1.903076e+00 1.773964e-02 7.952414e-01 -9.693116e-01 -3.294164e-01 -1.958508e+00 -1.456944e+00 -2.936843e+00 -2.572606e+00 -3.890593e+00 -3.661127e+00 -4.805638e+00 -4.707059e+00 -5.667909e+00 -5.695275e+00 -6.463915e+00 -6.611534e+00 -7.181331e+00 -7.443074e+00 -7.809554e+00 -8.179158e+00 -8.340193e+00 -8.811524e+00 -8.767431e+00 -9.334683e+00 -9.088220e+00 -9.746033e+00 -9.302310e+00 -1.004581e+01 -9.412112e+00 -1.023688e+01 -9.422415e+00 -1.032436e+01 -9.340012e+00 -1.031523e+01 -9.173239e+00 
-1.110800e+01 -9.906665e+00 -1.089234e+01 -9.563888e+00 -1.060894e+01 -9.168089e+00 -1.026818e+01 -8.729843e+00 -9.879625e+00 -8.258719e+00 -9.451642e+00 -7.762907e+00 -8.991045e+00 -7.248912e+00 -8.502856e+00 -6.721363e+00 -7.990168e+00 -6.182918e+00 -7.454135e+00 -5.634306e+00 -6.894084e+00 -5.074507e+00 -6.307788e+00 -4.501074e+00 -5.691859e+00 -3.910582e+00 -5.042265e+00 -3.299190e+00 -4.354924e+00 -2.663249e+00 -3.626348e+00 -1.999941e+00 -2.854262e+00 -1.307859e+00 -2.038166e+00 -5.874927e-01 -1.179785e+00 1.584331e-01 -2.833644e-01 9.247973e-01 6.442033e-01 1.704114e+00 1.593445e+00 2.486748e+00 2.552542e+00 3.261297e+00 3.507733e+00 4.015092e+00 4.443826e+00 4.734778e+00 5.344800e+00 5.406918e+00 6.194437e+00 6.018570e+00 6.976949e+00 6.557800e+00 7.677549e+00 7.014102e+00 8.282951e+00 7.378700e+00 8.781758e+00 7.644736e+00 9.164754e+00 7.807346e+00 9.425063e+00 7.863632e+00 9.558206e+00 7.812555e+00 9.562054e+00 7.654770e+00 9.436701e+00 7.392416e+00 9.184256e+00 7.028896e+00 8.808608e+00 6.568652e+00 8.315156e+00 6.016969e+00 7.710550e+00 5.379816e+00 7.002449e+00 4.663727e+00 6.199332e+00 3.875759e+00 5.310372e+00 3.023497e+00 4.345370e+00 2.115125e+00 3.314770e+00 1.159547e+00 2.229731e+00 1.665328e-01 1.102231e+00 -8.531384e-01 -5.481552e-02 -1.887566e+00 -1.227484e+00 -2.923698e+00 -2.400841e+00 -3.947411e+00 -3.559068e+00 -4.943734e+00 -4.685735e+00 -5.897236e+00 -5.764234e+00 -6.792545e+00 -6.778348e+00 -7.614991e+00 -7.712917e+00 -8.351283e+00 -8.554519e+00 -8.990169e+00 -9.292097e+00 -9.522986e+00 -9.917442e+00 -9.944043e+00 -1.042550e+01 -1.025080e+01 -1.081445e+01 -1.044387e+01 -1.108562e+01 -1.052677e+01 -1.124313e+01 -1.050558e+01 -1.129352e+01 -1.038850e+01 -1.124523e+01 -1.018528e+01 
-1.068500e+01 -9.325070e+00 -1.046953e+01 -8.975376e+00 -1.018391e+01 -8.571237e+00 -9.839347e+00 -8.124031e+00 -9.446232e+00 -7.644080e+00 -9.013649e+00 -7.140225e+00 -8.549018e+00 -6.619494e+00 -8.057805e+00 -6.086862e+00 -7.543353e+00 -5.545132e+00 -7.006844e+00 -4.994957e+00 -6.447410e+00 -4.435017e+00 -5.862395e+00 -3.862347e+00 -5.247780e+00 -3.272826e+00 -4.598730e+00 -2.661776e+00 -3.910253e+00 -2.024652e+00 -3.177904e+00 -1.357751e+00 -2.398485e+00 -6.588740e-01 -1.570695e+00 7.210394e-02 -6.956503e-01 8.328307e-01 2.227506e-01 1.618270e+00 1.177655e+00 2.420711e+00 2.159300e+00 3.229997e+00 3.155256e+00 4.033941e+00 4.150860e+00 4.818891e+00 5.129799e+00 5.570391e+00 6.074783e+00 6.273863e+00 6.968270e+00 6.915281e+00 7.793185e+00 7.481751e+00 8.533578e+00 7.961995e+00 9.175187e+00 8.346698e+00 9.705891e+00 8.628711e+00 1.011601e+01 8.803129e+00 1.039850e+01 8.867242e+00 1.054894e+01 8.820391e+00 1.056551e+01 8.663749e+00 1.044876e+01 8.400053e+00 1.020135e+01 8.033317e+00 9.827759e+00 7.568552e+00 9.333932e+00 7.011513e+00 8.726956e+00 6.368489e+00 8.014779e+00 5.646167e+00 7.205988e+00 4.851564e+00 6.309663e+00 3.992045e+00 5.335331e+00 3.075417e+00 4.293015e+00 2.110094e+00 3.193354e+00 1.105302e+00 2.047790e+00 7.129560e-02 8.687631e-01 -9.804547e-01 -3.301272e-01 -2.037159e+00 -1.534044e+00 -3.084726e+00 -2.726980e+00 -4.107949e+00 -3.892000e+00 -5.090880e+00 -5.011679e+00 -6.017370e+00 -6.068720e+00 -6.871767e+00 -7.046700e+00 -7.639672e+00 -7.930852e+00 -8.308698e+00 -8.708808e+00 -8.869114e+00 -9.371190e+00 -9.314323e+00 -9.912002e+00 -9.641107e+00 -1.032877e+01 -9.849649e+00 -1.062246e+01 -9.943332e+00 -1.079716e+01 -9.928362e+00 -1.085964e+01 -9.813277e+00 -1.081879e+01 -9.608366e+00 
-1.160937e+01 -1.032916e+01 -1.134793e+01 -9.936628e+00 -1.101880e+01 -9.492296e+00 -1.063444e+01 -9.008697e+00 -1.020625e+01 -8.497056e+00 -9.744046e+00 -7.966836e+00 -9.255676e+00 -7.425377e+00 -8.746705e+00 -6.877634e+00 -8.220234e+00 -6.326052e+00 -7.676860e+00 -5.770593e+00 -7.114810e+00 -5.208934e+00 -6.530244e+00 -4.636866e+00 -5.917753e+00 -4.048848e+00 -5.271000e+00 -3.438728e+00 -4.583485e+00 -2.800541e+00 -3.849373e+00 -2.129336e+00 -3.064304e+00 -1.421957e+00 -2.226125e+00 -6.776797e-01 -1.335477e+00 1.013344e-01 -3.961917e-01 9.098274e-01 5.845549e-01 1.739489e+00 1.596316e+00 2.579250e+00 2.625691e+00 3.415786e+00 3.656833e+00 4.234189e+00 4.672122e+00 5.018720e+00 5.652927e+00 5.753592e+00 6.580405e+00 6.423706e+00 7.436284e+00 7.015280e+00 8.203560e+00 7.516356e+00 8.867094e+00 7.917140e+00 9.414072e+00 8.210191e+00 9.834312e+00 8.390466e+00 1.012043e+01 8.455236e+00 1.026787e+01 8.403906e+00 1.027479e+01 8.237769e+00 1.014187e+01 7.959712e+00 9.872026e+00 7.573910e+00 9.470077e+00 7.085537e+00 8.942391e+00 6.500505e+00 8.296541e+00 5.825254e+00 7.540994e+00 5.066621e+00 6.684875e+00 4.231788e+00 5.737815e+00 3.328310e+00 4.709903e+00 2.364247e+00 3.611743e+00 1.348355e+00 2.454604e+00 2.903380e-01 1.250634e+00 -7.988944e-01 1.309738e-02 -1.907000e+00 -1.243429e+00 -3.020076e+00 -2.502953e+00 -4.122674e+00 -3.748138e+00 -5.198025e+00 -4.960578e+00 -6.228477e+00 -6.121323e+00 -7.196165e+00 -7.211602e+00 -8.083842e+00 -8.213715e+00 -8.875795e+00 -9.111955e+00 -9.558734e+00 -9.893456e+00 -1.012253e+01 -1.054886e+01 -1.056074e+01 -1.107269e+01 -1.087080e+01 -1.146349e+01 -1.105400e+01 -1.172356e+01 -1.111517e+01 -1.185863e+01 -1.106215e+01 -1.187725e+01 -1.090526e+01 -1.179011e+01 -1.065655e+01 
-1.123806e+01 -9.789437e+00 -1.097240e+01 -9.385153e+00 -1.063634e+01 -8.927516e+00 -1.024347e+01 -8.430129e+00 -9.806242e+00 -7.905209e+00 -9.335453e+00 -7.363088e+00 -8.839742e+00 -6.811793e+00 -8.325265e+00 -6.256747e+00 -7.795460e+00 -5.700598e+00 -7.250974e+00 -5.143216e+00 -6.689779e+00 -4.581887e+00 -6.107479e+00 -4.011711e+00 -5.497822e+00 -3.426210e+00 -4.853400e+00 -2.818100e+00 -4.166487e+00 -2.180187e+00 -3.429946e+00 -1.506299e+00 -2.638156e+00 -7.921806e-01 -1.787853e+00 -3.624230e-02 -8.788234e-01 7.598910e-01 8.561182e-02 1.591104e+00 1.098368e+00 2.448805e+00 2.148647e+00 3.321233e+00 3.222256e+00 4.194018e+00 4.302170e+00 5.050934e+00 5.369288e+00 5.874767e+00 6.403303e+00 6.648216e+00 7.383632e+00 7.354742e+00 8.290317e+00 7.979309e+00 9.104840e+00 8.508960e+00 9.810821e+00 8.933220e+00 1.039453e+01 9.244305e+00 1.084525e+01 9.437164e+00 1.115542e+01 9.509368e+00 1.132066e+01 9.460873e+00 1.133961e+01 9.293702e+00 1.121362e+01 9.011575e+00 1.094642e+01 8.619519e+00 1.054368e+01 8.123490e+00 1.001255e+01 7.530047e+00 9.361232e+00 6.846081e+00 8.598624e+00 6.078642e+00 7.734019e+00 5.234869e+00 6.776944e+00 4.322026e+00 5.737122e+00 3.347663e+00 4.624579e+00 2.319866e+00 3.449859e+00 1.247586e+00 2.224344e+00 1.409956e-01 9.606008e-01 -9.881806e-01 -3.272995e-01 -2.126433e+00 -1.623568e+00 -3.258398e+00 -2.910678e+00 -4.367019e+00 -4.169599e+00 -5.433969e+00 -5.380319e+00 -6.440344e+00 -6.522639e+00 -7.367569e+00 -7.577170e+00 -8.198437e+00 -8.526416e+00 -8.918131e+00 -9.355781e+00 -9.515109e+00 -1.005439e+01 -9.981742e+00 -1.061559e+01 -1.031462e+01 -1.103711e+01 -1.051455e+01 -1.132094e+01 -1.058624e+01 -1.147285e+01 -1.053782e+01 -1.150180e+01 -1.038011e+01 -1.141917e+01 -1.012595e+01 
-1.219597e+01 -1.082150e+01 -1.187606e+01 -1.036617e+01 -1.148898e+01 -9.861013e+00 -1.104986e+01 -9.321031e+00 -1.057237e+01 -8.759542e+00 -1.006820e+01 -8.187641e+00 -9.546521e+00 -7.613750e+00 -9.013617e+00 -7.043278e+00 -8.472631e+00 -6.478428e+00 -7.923482e+00 -5.918193e+00 -7.362987e+00 -5.358575e+00 -6.785222e+00 -4.793044e+00 -6.182122e+00 -4.213257e+00 -5.544302e+00 -3.609966e+00 -4.862043e+00 -2.974079e+00 -4.126370e+00 -2.297764e+00 -3.330121e+00 -1.575484e+00 -2.468918e+00 -8.048631e-01 -1.541939e+00 1.270425e-02 -5.524413e-01 8.717754e-01 4.920300e-01 1.762924e+00 1.579748e+00 2.673141e+00 2.695216e+00 3.586522e+00 3.819846e+00 4.485165e+00 4.932832e+00 5.350178e+00 6.012141e+00 6.162700e+00 7.035540e+00 6.904847e+00 7.981577e+00 7.560504e+00 8.830448e+00 8.115926e+00 9.564719e+00 8.560125e+00 1.016985e+01 8.885047e+00 1.063456e+01 9.085563e+00 1.095093e+01 9.159302e+00 1.111443e+01 9.106375e+00 1.112372e+01 8.929006e+00 1.098035e+01 8.631135e+00 1.068838e+01 8.218003e+00 1.025391e+01 7.695765e+00 9.684606e+00 7.071152e+00 8.989265e+00 6.351202e+00 8.177383e+00 5.543089e+00 7.258866e+00 4.654065e+00 6.243837e+00 3.691523e+00 5.142603e+00 2.663188e+00 3.965770e+00 1.577417e+00 2.724503e+00 4.435860e-01 1.430885e+00 -7.274829e-01 9.833548e-02 -1.923130e+00 -1.258004e+00 -3.128572e+00 -2.621013e+00 -4.326814e+00 -3.971546e+00 -5.498835e+00 -5.288711e+00 -6.624108e+00 -6.550482e+00 -7.681445e+00 -7.734665e+00 -8.650116e+00 -8.820102e+00 -9.511111e+00 -9.787960e+00 -1.024837e+01 -1.062292e+01 -1.084980e+01 -1.131406e+01 -1.130795e+01 -1.185543e+01 -1.162032e+01 -1.224604e+01 -1.178916e+01 -1.248963e+01 -1.182108e+01 -1.259408e+01 -1.172629e+01 -1.257059e+01 -1.151789e+01 -1.243280e+01 -1.121090e+01 