# vtk DataFile Version 2.0
Comment goes here
ASCII

DATASET STRUCTURED_POINTS
FIELD FieldData 1
TIME 1 1 double
0.10500000
DIMENSIONS    128   128   1

ORIGIN    0.000   0.000   0.000
SPACING   0.039062 0.039062   1.000

POINT_DATA   16384
SCALARS P double
LOOKUP_TABLE default

1.107283e+01 1.216263e+01 1.215072e+01 1.325192e+01 1.324195e+01 1.434531e+01 1.433792e+01 1.543456e+01 1.543030e+01 1.651175e+01 1.651101e+01 1.756911e+01 1.757201e+01 1.859889e+01 1.860530e+01 1.959333e+01 1.960282e+01 2.054458e+01 2.055651e+01 2.144476e+01 2.145836e+01 2.228599e+01 2.230045e+01 2.306049e+01 2.307514e+01 2.376075e+01 2.377516e+01 2.437970e+01 2.439382e+01 2.491087e+01 2.492512e+01 2.534861e+01 2.536393e+01 2.568823e+01 2.570607e+01 2.592618e+01 2.594846e+01 2.606014e+01 2.608910e+01 2.608909e+01 2.612715e+01 2.601331e+01 2.606289e+01 2.583440e+01 2.589766e+01 2.555511e+01 2.563377e+01 2.517930e+01 2.527444e+01 2.471172e+01 2.482364e+01 2.415788e+01 2.428598e+01 2.352380e+01 2.366656e+01 2.281590e+01 2.297087e+01 2.204075e+01 2.220465e+01 2.120498e+01 2.137382e+01 2.031517e+01 2.048442e+01 1.937776e+01 1.954255e+01 1.839910e+01 1.855445e+01 1.738543e+01 1.752651e+01 1.634307e+01 1.646540e+01 1.527851e+01 1.537821e+01 1.419861e+01 1.427258e+01 1.311080e+01 1.315690e+01 1.202329e+01 1.204045e+01 1.094519e+01 1.093349e+01 9.886666e+00 9.847331e+00 8.858917e+00 8.794267e+00 7.874141e+00 7.787476e+00 6.945336e+00 6.840759e+00 6.086005e+00 5.968192e+00 5.309755e+00 5.183687e+00 4.629804e+00 4.500476e+00 4.058430e+00 3.930560e+00 3.606407e+00 3.484171e+00 3.282478e+00 3.169283e+00 3.092900e+00 2.991231e+00 3.041126e+00 2.952469e+00 3.127645e+00 3.052495e+00 3.349999e+00 3.287954e+00 3.702971e+00 3.652893e+00 4.178934e+00 4.139158e+00 4.768301e+00 4.736870e+00 5.460052e+00 5.434950e+00 6.242264e+00 6.221618e+00 7.102613e+00 7.084858e+00 8.028802e+00 8.012785e+00 9.008894e+00 8.993920e+00 1.003154e+01 1.001736e+01 1.108609e+01 
1.103844e+01 1.209475e+01 1.213762e+01 1.320605e+01 1.325078e+01 1.432219e+01 1.436921e+01 1.543484e+01 1.548450e+01 1.653598e+01 1.658842e+01 1.761770e+01 1.767282e+01 1.867214e+01 1.872953e+01 1.969137e+01 1.975033e+01 2.066735e+01 2.072696e+01 2.159200e+01 2.165116e+01 2.245719e+01 2.251480e+01 2.325489e+01 2.330996e+01 2.397734e+01 2.402914e+01 2.461718e+01 2.466535e+01 2.516768e+01 2.521238e+01 2.562292e+01 2.566484e+01 2.597799e+01 2.601838e+01 2.622911e+01 2.626973e+01 2.637380e+01 2.641677e+01 2.641089e+01 2.645858e+01 2.634058e+01 2.639539e+01 2.616438e+01 2.622853e+01 2.588506e+01 2.596037e+01 2.550647e+01 2.559419e+01 2.503343e+01 2.513409e+01 2.447152e+01 2.458480e+01 2.382689e+01 2.395159e+01 2.310607e+01 2.324012e+01 2.231580e+01 2.245633e+01 2.146287e+01 2.160632e+01 2.055402e+01 2.069632e+01 1.959589e+01 1.973264e+01 1.859499e+01 1.872170e+01 1.755778e+01 1.767009e+01 1.649076e+01 1.658466e+01 1.540061e+01 1.547270e+01 1.429441e+01 1.434203e+01 1.317979e+01 1.320126e+01 1.206519e+01 1.205987e+01 1.095995e+01 1.092833e+01 9.874485e+00 9.818171e+00 8.820263e+00 8.741950e+00 7.809765e+00 7.713091e+00 6.856286e+00 6.745656e+00 5.973639e+00 5.853984e+00 5.175743e+00 5.052249e+00 4.476123e+00 4.353929e+00 3.887346e+00 3.771248e+00 3.420449e+00 3.314629e+00 3.084393e+00 2.992191e+00 2.885601e+00 2.809364e+00 2.827631e+00 2.768639e+00 2.911009e+00 2.869494e+00 3.133248e+00 3.108493e+00 3.489038e+00 3.479557e+00 3.970603e+00 3.974361e+00 4.568167e+00 4.582828e+00 5.270487e+00 5.293662e+00 6.065408e+00 6.094863e+00 6.940367e+00 6.974198e+00 7.882843e+00 7.919580e+00 8.880689e+00 8.919349e+00 9.922370e+00 9.962438e+00 1.099708e+01 
1.104904e+01 1.214366e+01 1.213152e+01 1.323747e+01 1.322738e+01 1.433541e+01 1.432804e+01 1.542927e+01 1.542521e+01 1.651115e+01 1.651080e+01 1.757330e+01 1.757678e+01 1.860797e+01 1.861511e+01 1.960737e+01 1.961771e+01 2.056362e+01 2.057647e+01 2.146878e+01 2.148328e+01 2.231486e+01 2.233014e+01 2.309402e+01 2.310932e+01 2.379864e+01 2.381346e+01 2.442154e+01 2.443579e+01 2.495616e+01 2.497021e+01 2.539674e+01 2.541155e+01 2.573853e+01 2.575558e+01 2.597793e+01 2.599918e+01 2.611257e+01 2.614037e+01 2.614144e+01 2.617830e+01 2.606484e+01 2.611329e+01 2.588441e+01 2.594671e+01 2.560297e+01 2.568095e+01 2.522445e+01 2.531926e+01 2.475370e+01 2.486568e+01 2.419631e+01 2.432488e+01 2.355840e+01 2.370203e+01 2.284646e+01 2.300267e+01 2.206715e+01 2.223260e+01 2.122716e+01 2.139778e+01 2.033311e+01 2.050426e+01 1.939146e+01 1.955818e+01 1.840854e+01 1.856576e+01 1.739061e+01 1.753339e+01 1.634394e+01 1.646772e+01 1.527498e+01 1.537579e+01 1.419054e+01 1.426524e+01 1.309801e+01 1.314444e+01 1.200558e+01 1.202264e+01 1.092234e+01 1.091013e+01 9.858472e+00 9.818242e+00 8.825229e+00 8.759363e+00 7.834889e+00 7.746762e+00 6.900563e+00 6.794365e+00 6.035898e+00 5.916402e+00 5.254663e+00 5.126945e+00 4.570248e+00 4.439390e+00 3.995096e+00 3.865891e+00 3.540129e+00 3.416807e+00 3.214203e+00 3.100201e+00 3.023646e+00 2.921454e+00 2.971932e+00 2.883014e+00 3.059521e+00 2.984330e+00 3.283874e+00 3.221951e+00 3.639660e+00 3.589801e+00 4.119109e+00 4.079582e+00 4.712479e+00 4.681270e+00 5.408598e+00 5.383642e+00 6.195403e+00 6.174802e+00 7.060457e+00 7.042634e+00 7.991375e+00 7.975186e+00 8.976165e+00 8.960939e+00 1.000345e+01 9.988974e+00 1.106258e+01 
1.099003e+01 1.205588e+01 1.209851e+01 1.317633e+01 1.322104e+01 1.430167e+01 1.434896e+01 1.542365e+01 1.547393e+01 1.653429e+01 1.658775e+01 1.762573e+01 1.768225e+01 1.869011e+01 1.874924e+01 1.971945e+01 1.978041e+01 2.070564e+01 2.076738e+01 2.164047e+01 2.170174e+01 2.251563e+01 2.257518e+01 2.332293e+01 2.337960e+01 2.405437e+01 2.410727e+01 2.470239e+01 2.475107e+01 2.526003e+01 2.530458e+01 2.572120e+01 2.576230e+01 2.608082e+01 2.611978e+01 2.633500e+01 2.637369e+01 2.648120e+01 2.652191e+01 2.651823e+01 2.656353e+01 2.644634e+01 2.649884e+01 2.626713e+01 2.632926e+01 2.598349e+01 2.605726e+01 2.559944e+01 2.568625e+01 2.511997e+01 2.522045e+01 2.455085e+01 2.466473e+01 2.389842e+01 2.402449e+01 2.316939e+01 2.330551e+01 2.237064e+01 2.251382e+01 2.150909e+01 2.165563e+01 2.059157e+01 2.073721e+01 1.962476e+01 1.976491e+01 1.861517e+01 1.874514e+01 1.756924e+01 1.768448e+01 1.649339e+01 1.658972e+01 1.539423e+01 1.546810e+01 1.427873e+01 1.432738e+01 1.315445e+01 1.317613e+01 1.202975e+01 1.202381e+01 1.091397e+01 1.088091e+01 9.817539e+00 9.759058e+00 8.752030e+00 8.670938e+00 7.730089e+00 7.630181e+00 6.765245e+00 6.651110e+00 5.871605e+00 5.748374e+00 5.063423e+00 4.936480e+00 4.354577e+00 4.229244e+00 3.757981e+00 3.639208e+00 3.284977e+00 3.177054e+00 2.944764e+00 2.851092e+00 2.743917e+00 2.666844e+00 2.686039e+00 2.626796e+00 2.771596e+00 2.730317e+00 2.997938e+00 2.973780e+00 3.359515e+00 3.350845e+00 3.848252e+00 3.852891e+00 4.454051e+00 4.469534e+00 5.165350e+00 5.189184e+00 5.969701e+00 5.999588e+00 6.854302e+00 6.888313e+00 7.806448e+00 7.843133e+00 8.813879e+00 8.852303e+00 9.865002e+00 9.904731e+00 1.094901e+01 
1.097735e+01 1.208647e+01 1.207361e+01 1.319385e+01 1.318335e+01 1.430541e+01 1.429809e+01 1.541309e+01 1.540962e+01 1.650905e+01 1.650987e+01 1.758559e+01 1.759082e+01 1.863496e+01 1.864436e+01 1.964931e+01 1.966229e+01 2.062064e+01 2.063630e+01 2.154079e+01 2.155807e+01 2.240156e+01 2.241935e+01 2.319481e+01 2.321211e+01 2.391262e+01 2.392871e+01 2.454748e+01 2.456210e+01 2.509251e+01 2.510598e+01 2.554170e+01 2.555494e+01 2.589006e+01 2.590466e+01 2.613381e+01 2.615192e+01 2.627051e+01 2.629472e+01 2.629912e+01 2.633228e+01 2.622003e+01 2.626498e+01 2.603498e+01 2.609432e+01 2.574701e+01 2.582285e+01 2.536029e+01 2.545401e+01 2.487992e+01 2.499202e+01 2.431178e+01 2.444175e+01 2.366228e+01 2.380856e+01 2.293817e+01 2.309815e+01 2.214632e+01 2.231649e+01 2.129362e+01 2.146964e+01 2.038680e+01 2.056376e+01 1.943239e+01 1.960502e+01 1.843673e+01 1.859964e+01 1.740603e+01 1.755399e+01 1.634644e+01 1.647462e+01 1.526429e+01 1.536851e+01 1.416625e+01 1.424320e+01 1.305958e+01 1.310697e+01 1.195236e+01 1.196908e+01 1.085365e+01 1.083984e+01 9.773685e+00 9.730700e+00 8.723852e+00 8.654250e+00 7.716679e+00 7.624066e+00 6.765627e+00 6.654466e+00 5.884780e+00 5.760134e+00 5.088407e+00 4.955646e+00 4.390424e+00 4.254903e+00 3.803787e+00 3.670525e+00 3.339870e+00 3.213264e+00 3.007882e+00 2.891460e+00 2.814370e+00 2.710630e+00 2.762869e+00 2.673212e+00 2.853744e+00 2.778489e+00 3.084215e+00 3.022723e+00 3.448589e+00 3.399452e+00 3.938654e+00 3.899937e+00 4.544194e+00 4.513698e+00 5.253565e+00 5.229087e+00 6.054283e+00 6.033834e+00 6.933556e+00 6.915531e+00 7.878739e+00 7.862022e+00 8.877674e+00 8.861672e+00 9.918905e+00 9.903523e+00 1.099178e+01 
1.089262e+01 1.197761e+01 1.201968e+01 1.311635e+01 1.316092e+01 1.426006e+01 1.430783e+01 1.540066e+01 1.545217e+01 1.653030e+01 1.658582e+01 1.764121e+01 1.770061e+01 1.872553e+01 1.878826e+01 1.977520e+01 1.984030e+01 2.078196e+01 2.084812e+01 2.173732e+01 2.180300e+01 2.263266e+01 2.269624e+01 2.345937e+01 2.351936e+01 2.420902e+01 2.426424e+01 2.487360e+01 2.492336e+01 2.544574e+01 2.548998e+01 2.591892e+01 2.595833e+01 2.628775e+01 2.632375e+01 2.654813e+01 2.658281e+01 2.669736e+01 2.673336e+01 2.673424e+01 2.677455e+01 2.665911e+01 2.670678e+01 2.647375e+01 2.653164e+01 2.618131e+01 2.625185e+01 2.578615e+01 2.587104e+01 2.529362e+01 2.539371e+01 2.470990e+01 2.482500e+01 2.404169e+01 2.417057e+01 2.329607e+01 2.343645e+01 2.248024e+01 2.262888e+01 2.160136e+01 2.175424e+01 2.066643e+01 2.081893e+01 1.968222e+01 1.982935e+01 1.865526e+01 1.879192e+01 1.759191e+01 1.771314e+01 1.649845e+01 1.659975e+01 1.538130e+01 1.545881e+01 1.424724e+01 1.429799e+01 1.310364e+01 1.312574e+01 1.195872e+01 1.195147e+01 1.082176e+01 1.078573e+01 9.703245e+00 9.640288e+00 8.614944e+00 8.528115e+00 7.569834e+00 7.463256e+00 6.581926e+00 6.460568e+00 5.665930e+00 5.535336e+00 4.836794e+00 4.702761e+00 4.109134e+00 3.977365e+00 3.496580e+00 3.372345e+00 3.011117e+00 2.898932e+00 2.662442e+00 2.565827e+00 2.457441e+00 2.378748e+00 2.399812e+00 2.340162e+00 2.489889e+00 2.449213e+00 2.724684e+00 2.701867e+00 3.098137e+00 3.091241e+00 3.601553e+00 3.608092e+00 4.224158e+00 4.241396e+00 4.953727e+00 4.978959e+00 5.777213e+00 5.808008e+00 6.681318e+00 6.715699e+00 7.652971e+00 7.689522e+00 8.679677e+00 8.717575e+00 9.749740e+00 9.788722e+00 1.085236e+01 
1.085687e+01 1.199026e+01 1.197607e+01 1.312020e+01 1.310894e+01 1.425445e+01 1.424714e+01 1.538512e+01 1.538261e+01 1.650456e+01 1.650737e+01 1.760514e+01 1.761339e+01 1.867913e+01 1.869245e+01 1.971857e+01 1.973614e+01 2.071525e+01 2.073587e+01 2.166069e+01 2.168290e+01 2.254629e+01 2.256854e+01 2.336340e+01 2.338426e+01 2.410355e+01 2.412195e+01 2.475870e+01 2.477407e+01 2.532143e+01 2.533391e+01 2.578522e+01 2.579575e+01 2.614471e+01 2.615502e+01 2.639582e+01 2.640841e+01 2.653597e+01 2.655387e+01 2.656409e+01 2.659070e+01 2.648068e+01 2.651944e+01 2.628774e+01 2.634182e+01 2.598862e+01 2.606065e+01 2.558792e+01 2.567968e+01 2.509121e+01 2.520347e+01 2.450485e+01 2.463720e+01 2.383574e+01 2.398655e+01 2.309107e+01 2.325755e+01 2.227811e+01 2.245640e+01 2.140405e+01 2.158938e+01 2.047584e+01 2.066280e+01 1.950011e+01 1.968291e+01 1.848323e+01 1.865592e+01 1.743127e+01 1.758812e+01 1.635022e+01 1.648595e+01 1.524618e+01 1.535622e+01 1.412553e+01 1.420628e+01 1.299530e+01 1.304430e+01 1.186338e+01 1.187946e+01 1.073875e+01 1.072210e+01 9.631698e+00 9.583884e+00 8.553851e+00 8.477730e+00 7.518154e+00 7.417733e+00 6.538670e+00 6.418883e+00 5.630240e+00 5.496665e+00 4.808007e+00 4.666527e+00 4.086810e+00 3.943256e+00 3.480509e+00 3.340300e+00 3.001276e+00 2.869096e+00 2.658942e+00 2.538475e+00 2.460435e+00 2.354194e+00 2.409401e+00 2.318660e+00 2.506026e+00 2.430866e+00 2.747100e+00 2.686556e+00 3.126285e+00 3.078585e+00 3.634591e+00 3.597436e+00 4.260962e+00 4.231831e+00 4.992933e+00 4.969374e+00 5.817282e+00 5.797153e+00 6.720614e+00 6.702261e+00 7.689841e+00 7.672198e+00 8.712526e+00 8.695143e+00 9.777094e+00 9.760088e+00 1.087291e+01 
1.074503e+01 1.185889e+01 1.189992e+01 1.302498e+01 1.306918e+01 1.419615e+01 1.424454e+01 1.536462e+01 1.541795e+01 1.652276e+01 1.658142e+01 1.766295e+01 1.772680e+01 1.877734e+01 1.884570e+01 1.985778e+01 1.992942e+01 2.089575e+01 2.096895e+01 2.188236e+01 2.195509e+01 2.280849e+01 2.287857e+01 2.366489e+01 2.373028e+01 2.444246e+01 2.450147e+01 2.513246e+01 2.518401e+01 2.572683e+01 2.577065e+01 2.621844e+01 2.625518e+01 2.660141e+01 2.663266e+01 2.687124e+01 2.689949e+01 2.702505e+01 2.705348e+01 2.706161e+01 2.709387e+01 2.698140e+01 2.702127e+01 2.678648e+01 2.683754e+01 2.648045e+01 2.654574e+01 2.606816e+01 2.614991e+01 2.555557e+01 2.565495e+01 2.494945e+01 2.506641e+01 2.425713e+01 2.439038e+01 2.348622e+01 2.363325e+01 2.264442e+01 2.280162e+01 2.173927e+01 2.190211e+01 2.077806e+01 2.094131e+01 1.976767e+01 1.992573e+01 1.871466e+01 1.886177e+01 1.762524e+01 1.775586e+01 1.650547e+01 1.661453e+01 1.536147e+01 1.544466e+01 1.419967e+01 1.425367e+01 1.302712e+01 1.304983e+01 1.185179e+01 1.184244e+01 1.068285e+01 1.064210e+01 9.530833e+00 9.460786e+00 8.407786e+00 8.311889e+00 7.327201e+00 7.210089e+00 6.303834e+00 6.171084e+00 5.353347e+00 5.211162e+00 4.491794e+00 4.346631e+00 3.734967e+00 3.593140e+00 3.097653e+00 2.964937e+00 2.592865e+00 2.474140e+00 2.231105e+00 2.130076e+00 2.019760e+00 1.938776e+00 1.962674e+00 1.902670e+00 2.059961e+00 2.020530e+00 2.308077e+00 2.287657e+00 2.700136e+00 2.696288e+00 3.226436e+00 3.236178e+00 3.875119e+00 3.895278e+00 4.632904e+00 4.660437e+00 5.485795e+00 5.518060e+00 6.419721e+00 6.454670e+00 7.421047e+00 7.457328e+00 8.476934e+00 8.513906e+00 9.575545e+00 9.613220e+00 1.070611e+01 
1.068608e+01 1.185368e+01 1.183737e+01 1.301511e+01 1.300255e+01 1.418100e+01 1.417356e+01 1.534379e+01 1.534258e+01 1.649609e+01 1.650178e+01 1.763044e+01 1.764314e+01 1.873914e+01 1.875830e+01 1.981408e+01 1.983857e+01 2.084677e+01 2.087490e+01 2.182826e+01 2.185799e+01 2.274934e+01 2.277846e+01 2.360065e+01 2.362707e+01 2.437291e+01 2.439495e+01 2.505724e+01 2.507388e+01 2.564543e+01 2.565655e+01 2.613024e+01 2.613676e+01 2.650572e+01 2.650961e+01 2.676737e+01 2.677160e+01 2.691238e+01 2.692070e+01 2.693967e+01 2.695630e+01 2.684991e+01 2.687920e+01 2.664544e+01 2.669145e+01 2.633015e+01 2.639628e+01 2.590923e+01 2.599789e+01 2.538896e+01 2.550129e+01 2.477643e+01 2.491216e+01 2.407923e+01 2.423666e+01 2.330521e+01 2.348122e+01 2.246222e+01 2.265244e+01 2.155790e+01 2.175691e+01 2.059950e+01 2.080116e+01 1.959383e+01 1.979153e+01 1.854722e+01 1.873425e+01 1.746561e+01 1.763547e+01 1.635470e+01 1.650144e+01 1.522018e+01 1.533867e+01 1.406803e+01 1.415425e+01 1.290487e+01 1.295610e+01 1.173827e+01 1.175325e+01 1.057705e+01 1.055607e+01 9.431546e+00 9.376457e+00 8.313702e+00 8.227812e+00 7.237058e+00 7.124975e+00 6.216557e+00 6.083925e+00 5.268171e+00 5.121337e+00 4.408351e+00 4.253975e+00 3.653335e+00 3.497966e+00 3.018353e+00 2.868012e+00 2.516797e+00 2.376598e+00 2.159441e+00 2.033297e+00 1.953795e+00 1.844226e+00 1.903660e+00 1.811736e+00 2.008945e+00 1.934365e+00 2.265762e+00 2.207057e+00 2.666787e+00 2.621614e+00 3.201832e+00 3.167332e+00 3.858567e+00 3.831729e+00 4.623294e+00 4.601289e+00 5.481693e+00 5.462152e+00 6.419483e+00 6.400684e+00 7.422939e+00 7.403903e+00 8.479242e+00 8.459739e+00 9.576674e+00 9.557145e+00 1.070466e+01 
1.054546e+01 1.169812e+01 1.173738e+01 1.290049e+01 1.294387e+01 1.410809e+01 1.415706e+01 1.531357e+01 1.536923e+01 1.650968e+01 1.657260e+01 1.768901e+01 1.775909e+01 1.884380e+01 1.892017e+01 1.996577e+01 2.004679e+01 2.104604e+01 2.112944e+01 2.207522e+01 2.215821e+01 2.304341e+01 2.312304e+01 2.394052e+01 2.401389e+01 2.475644e+01 2.482112e+01 2.548143e+01 2.553575e+01 2.610644e+01 2.614976e+01 2.662345e+01 2.665636e+01 2.702584e+01 2.705020e+01 2.730860e+01 2.732745e+01 2.746858e+01 2.748591e+01 2.750452e+01 2.752496e+01 2.741708e+01 2.744549e+01 2.720880e+01 2.724979e+01 2.688385e+01 2.694140e+01 2.644784e+01 2.652490e+01 2.590757e+01 2.600577e+01 2.527066e+01 2.539016e+01 2.454529e+01 2.468471e+01 2.373988e+01 2.389636e+01 2.286280e+01 2.303215e+01 2.192214e+01 2.209909e+01 2.092555e+01 2.110405e+01 1.988012e+01 2.005364e+01 1.879237e+01 1.895428e+01 1.766835e+01 1.781222e+01 1.651374e+01 1.663374e+01 1.533420e+01 1.542537e+01 1.413564e+01 1.419416e+01 1.292458e+01 1.294805e+01 1.170860e+01 1.169616e+01 1.049662e+01 1.044907e+01 9.299217e+00 9.218993e+00 8.128783e+00 8.019891e+00 6.999502e+00 6.867315e+00 5.927178e+00 5.778150e+00 4.928832e+00 4.770121e+00 4.022115e+00 3.861139e+00 3.224535e+00 3.068497e+00 2.552576e+00 2.407989e+00 2.020761e+00 1.893031e+00 1.640781e+00 1.533874e+00 1.420755e+00 1.336999e+00 1.364733e+00 1.304772e+00 1.472490e+00 1.435400e+00 1.739645e+00 1.723188e+00 2.158079e+00 2.159067e+00 2.716599e+00 2.731315e+00 3.401762e+00 3.426387e+00 4.198750e+00 4.229752e+00 5.092212e+00 5.126651e+00 6.066988e+00 6.102722e+00 7.108669e+00 7.144450e+00 8.203963e+00 8.239428e+00 9.340883e+00 9.376450e+00 1.050876e+01 
1.046285e+01 1.167482e+01 1.165529e+01 1.287651e+01 1.286185e+01 1.408285e+01 1.407496e+01 1.528678e+01 1.528715e+01 1.648131e+01 1.649083e+01 1.765925e+01 1.767803e+01 1.881296e+01 1.884026e+01 1.993420e+01 1.996843e+01 2.101408e+01 2.105290e+01 2.204305e+01 2.208358e+01 2.301107e+01 2.305014e+01 2.390776e+01 2.394233e+01 2.472276e+01 2.475025e+01 2.544601e+01 2.546473e+01 2.606818e+01 2.607760e+01 2.658105e+01 2.658202e+01 2.697781e+01 2.697264e+01 2.725342e+01 2.724577e+01 2.740474e+01 2.739936e+01 2.743069e+01 2.743301e+01 2.733218e+01 2.734785e+01 2.711208e+01 2.714643e+01 2.677497e+01 2.683252e+01 2.632692e+01 2.641092e+01 2.577516e+01 2.588731e+01 2.512776e+01 2.526799e+01 2.439331e+01 2.455974e+01 2.358055e+01 2.376960e+01 2.269810e+01 2.290468e+01 2.175422e+01 2.197201e+01 2.075660e+01 2.097839e+01 1.971224e+01 1.993033e+01 1.862745e+01 1.883405e+01 1.750793e+01 1.769551e+01 1.635894e+01 1.652063e+01 1.518561e+01 1.531552e+01 1.399327e+01 1.408679e+01 1.278791e+01 1.284197e+01 1.157659e+01 1.158981e+01 1.036784e+01 1.034065e+01 9.171980e+00 9.106613e+00 8.001341e+00 7.901737e+00 6.870244e+00 6.741848e+00 5.794830e+00 5.644285e+00 4.792639e+00 4.627382e+00 3.881973e+00 3.709763e+00 3.081061e+00 2.909465e+00 2.407094e+00 2.242987e+00 1.875215e+00 1.724321e+00 1.497561e+00 1.364101e+00 1.282469e+00 1.168954e+00 1.233952e+00 1.141135e+00 1.351497e+00 1.278502e+00 1.630219e+00 1.574824e+00 2.061347e+00 2.020376e+00 2.632970e+00 2.602749e+00 3.330933e+00 3.307743e+00 4.139792e+00 4.120276e+00 5.043703e+00 5.025176e+00 6.027176e+00 6.007832e+00 7.075640e+00 7.054635e+00 8.175800e+00 8.153228e+00 9.315798e+00 9.292571e+00 1.048519e+01 
1.029152e+01 1.149316e+01 1.152950e+01 1.274052e+01 1.278227e+01 1.399328e+01 1.404254e+01 1.524474e+01 1.530313e+01 1.648818e+01 1.655658e+01 1.771660e+01 1.779494e+01 1.892235e+01 1.900953e+01 2.009703e+01 2.019090e+01 2.123135e+01 2.132885e+01 2.231519e+01 2.241253e+01 2.333769e+01 2.343076e+01 2.428756e+01 2.437228e+01 2.515336e+01 2.522620e+01 2.592395e+01 2.598236e+01 2.658891e+01 2.663173e+01 2.713903e+01 2.716673e+01 2.756669e+01 2.758146e+01 2.786617e+01 2.787184e+01 2.803395e+01 2.803567e+01 2.806876e+01 2.807255e+01 2.797156e+01 2.798380e+01 2.774549e+01 2.777226e+01 2.739557e+01 2.744215e+01 2.692842e+01 2.699877e+01 2.635197e+01 2.644835e+01 2.567502e+01 2.579783e+01 2.490688e+01 2.505458e+01 2.405702e+01 2.422625e+01 2.313473e+01 2.332050e+01 2.214884e+01 2.234486e+01 2.110748e+01 2.130655e+01 2.001800e+01 2.021236e+01 1.888689e+01 1.906868e+01 1.771989e+01 1.788154e+01 1.652218e+01 1.665683e+01 1.529872e+01 1.540053e+01 1.405463e+01 1.411913e+01 1.279566e+01 1.282004e+01 1.152874e+01 1.151200e+01 1.026238e+01 1.020547e+01 9.007106e+00 8.912934e+00 7.775685e+00 7.649012e+00 6.583190e+00 6.430402e+00 5.446817e+00 5.275576e+00 4.385443e+00 4.204232e+00 3.418927e+00 3.236506e+00 2.567181e+00 2.391997e+00 1.849076e+00 1.688682e+00 1.281287e+00 1.141816e+00 8.771848e-01 7.629561e-01 6.459261e-01 5.592140e-01 5.918366e-01 5.328446e-01 7.141849e-01 6.812238e-01 1.007371e+00 9.972170e-01 1.461499e+00 1.469882e+00 2.063256e+00 2.085407e+00 2.796958e+00 2.828153e+00 3.645656e+00 3.681683e+00 4.592143e+00 4.629661e+00 5.619806e+00 5.656562e+00 6.713233e+00 6.748145e+00 7.858591e+00 7.891697e+00 9.043761e+00 9.076065e+00 1.025829e+01 
1.018441e+01 1.145117e+01 1.142688e+01 1.270167e+01 1.268374e+01 1.395702e+01 1.394806e+01 1.521089e+01 1.521298e+01 1.645693e+01 1.647129e+01 1.768835e+01 1.771515e+01 1.889766e+01 1.893591e+01 2.007649e+01 2.012402e+01 2.121546e+01 2.126905e+01 2.230426e+01 2.235985e+01 2.333173e+01 2.338486e+01 2.428620e+01 2.433243e+01 2.515577e+01 2.519127e+01 2.592885e+01 2.595090e+01 2.659460e+01 2.660204e+01 2.714341e+01 2.713700e+01 2.756739e+01 2.754986e+01 2.786070e+01 2.783667e+01 2.801984e+01 2.799544e+01 2.804369e+01 2.802607e+01 2.793355e+01 2.793019e+01 2.769300e+01 2.771100e+01 2.732758e+01 2.737299e+01 2.684451e+01 2.692179e+01 2.625232e+01 2.636387e+01 2.556040e+01 2.570637e+01 2.477860e+01 2.495687e+01 2.391686e+01 2.412318e+01 2.298484e+01 2.321310e+01 2.199160e+01 2.223421e+01 2.094537e+01 2.119373e+01 1.985344e+01 2.009839e+01 1.872206e+01 1.895437e+01 1.755658e+01 1.776737e+01 1.636163e+01 1.654283e+01 1.514152e+01 1.528624e+01 1.390064e+01 1.400351e+01 1.264403e+01 1.270149e+01 1.137794e+01 1.138846e+01 1.011040e+01 1.007457e+01 8.851600e+00 8.772169e+00 7.614271e+00 7.496021e+00 6.413711e+00 6.263221e+00 5.267634e+00 5.092904e+00 4.195693e+00 4.005651e+00 3.218718e+00 3.022637e+00 2.357696e+00 2.164556e+00 1.632561e+00 1.450413e+00 1.060914e+00 8.963186e-01 6.568044e-01 5.143969e-01 4.297305e-01 3.119746e-01 3.839789e-01 2.911446e-01 5.184075e-01 4.487731e-01 8.266920e-01 7.769432e-01 1.297998e+00 1.263765e+00 1.917977e+00 1.894432e+00 2.669937e+00 2.652375e+00 3.536038e+00 3.520375e+00 4.498385e+00 4.481519e+00 5.539901e+00 5.519931e+00 6.644949e+00 6.621240e+00 7.799682e+00 7.772793e+00 8.992147e+00 8.963651e+00 1.021218e+01 
9.980177e+00 1.124128e+01 1.127300e+01 1.254199e+01 1.258079e+01 1.384826e+01 1.389717e+01 1.515435e+01 1.521569e+01 1.645435e+01 1.652945e+01 1.774181e+01 1.783074e+01 1.900936e+01 1.911075e+01 2.024849e+01 2.035953e+01 2.144940e+01 2.156599e+01 2.260109e+01 2.271806e+01 2.369142e+01 2.380306e+01 2.470754e+01 2.480810e+01 2.563621e+01 2.572060e+01 2.646442e+01 2.652882e+01 2.717995e+01 2.722240e+01 2.777195e+01 2.779271e+01 2.823145e+01 2.823318e+01 2.855185e+01 2.853944e+01 2.872913e+01 2.870933e+01 2.876201e+01 2.874282e+01 2.865193e+01 2.864182e+01 2.840283e+01 2.840994e+01 2.802087e+01 2.805224e+01 2.751405e+01 2.757500e+01 2.689176e+01 2.698540e+01 2.616433e+01 2.629135e+01 2.534258e+01 2.550117e+01 2.443735e+01 2.462341e+01 2.345912e+01 2.366655e+01 2.241765e+01 2.263879e+01 2.132175e+01 2.154783e+01 2.017905e+01 2.040071e+01 1.899599e+01 1.920379e+01 1.777791e+01 1.796278e+01 1.652924e+01 1.668297e+01 1.525396e+01 1.536958e+01 1.395603e+01 1.402821e+01 1.264006e+01 1.266544e+01 1.131197e+01 1.128935e+01 9.979572e+00 9.910093e+00 8.653166e+00 8.540338e+00 7.345900e+00 7.195474e+00 6.073917e+00 5.893627e+00 4.856207e+00 4.655343e+00 3.714111e+00 3.502959e+00 2.670484e+00 2.459642e+00 1.748542e+00 1.548172e+00 9.704767e-01 7.895593e-01 3.559616e-01 2.016332e-01 -7.927142e-02 -2.022230e-01 -3.246208e-01 -4.140286e-01 -3.753959e-01 -4.317149e-01 -2.330773e-01 -2.591105e-01 9.498096e-02 9.459324e-02 5.963592e-01 6.158094e-01 1.254761e+00 1.287808e+00 2.051406e+00 2.092072e+00 2.966437e+00 3.009594e+00 3.980176e+00 4.021959e+00 5.074121e+00 5.112162e+00 6.231622e+00 6.265096e+00 7.438236e+00 7.467754e+00 8.681793e+00 8.709172e+00 9.952234e+00 
9.847309e+00 1.117964e+01 1.114842e+01 1.248708e+01 1.246414e+01 1.379958e+01 1.378855e+01 1.511189e+01 1.511563e+01 1.641853e+01 1.643878e+01 1.771335e+01 1.775044e+01 1.898916e+01 1.904182e+01 2.023746e+01 2.030280e+01 2.144835e+01 2.152197e+01 2.261051e+01 2.268682e+01 2.371141e+01 2.378410e+01 2.473761e+01 2.480034e+01 2.567526e+01 2.572237e+01 2.651069e+01 2.653797e+01 2.723102e+01 2.723639e+01 2.782484e+01 2.780882e+01 2.828279e+01 2.824865e+01 2.859801e+01 2.855169e+01 2.876649e+01 2.871608e+01 2.878716e+01 2.874216e+01 2.866185e+01 2.863228e+01 2.839507e+01 2.839049e+01 2.799369e+01 2.802226e+01 2.746647e+01 2.753421e+01 2.682359e+01 2.693385e+01 2.607616e+01 2.622934e+01 2.523569e+01 2.542926e+01 2.431364e+01 2.454239e+01 2.332099e+01 2.357741e+01 2.226785e+01 2.254267e+01 2.116320e+01 2.144594e+01 2.001463e+01 2.029423e+01 1.882833e+01 1.909371e+01 1.760916e+01 1.784971e+01 1.636089e+01 1.656700e+01 1.508662e+01 1.525012e+01 1.378940e+01 1.390395e+01 1.247289e+01 1.253429e+01 1.114211e+01 1.114860e+01 9.804200e+00 9.756577e+00 8.469041e+00 8.370708e+00 7.149709e+00 7.006546e+00 5.862676e+00 5.682757e+00 4.627662e+00 4.420801e+00 3.467111e+00 3.244252e+00 2.405267e+00 2.177744e+00 1.466896e+00 1.245617e+00 6.757278e-01 4.703620e-01 5.279021e-02 -1.289627e-01 -3.851908e-01 -5.381524e-01 -6.271082e-01 -7.489190e-01 -6.683203e-01 -7.594346e-01 -5.108982e-01 -5.742717e-01 -1.632368e-01 -2.037527e-01 3.609034e-01 3.371804e-01 1.043764e+00 1.030393e+00 1.865153e+00 1.856076e+00 2.803997e+00 2.794151e+00 3.839686e+00 3.825435e+00 4.953116e+00 4.932467e+00 6.127352e+00 6.099986e+00 7.347958e+00 7.315089e+00 8.602998e+00 8.567109e+00 9.882817e+00 
9.607766e+00 1.093917e+01 1.096377e+01 1.230102e+01 1.233486e+01 1.366859e+01 1.371593e+01 1.503748e+01 1.510167e+01 1.640294e+01 1.648598e+01 1.775937e+01 1.786156e+01 1.909983e+01 1.921956e+01 2.041579e+01 2.054943e+01 2.169688e+01 2.183897e+01 2.293099e+01 2.307453e+01 2.410436e+01 2.424144e+01 2.520209e+01 2.532463e+01 2.620861e+01 2.630927e+01 2.710841e+01 2.718155e+01 2.788684e+01 2.792931e+01 2.853088e+01 2.854259e+01 2.902982e+01 2.901400e+01 2.937585e+01 2.933887e+01 2.956437e+01 2.951521e+01 2.959415e+01 2.954354e+01 2.946727e+01 2.942659e+01 2.918878e+01 2.916900e+01 2.876638e+01 2.877696e+01 2.820985e+01 2.825790e+01 2.753051e+01 2.762023e+01 2.674067e+01 2.687302e+01 2.585304e+01 2.602580e+01 2.488022e+01 2.508823e+01 2.383421e+01 2.406985e+01 2.272601e+01 2.297975e+01 2.156524e+01 2.182628e+01 2.035994e+01 2.061684e+01 1.911647e+01 1.935775e+01 1.783959e+01 1.805429e+01 1.653273e+01 1.671091e+01 1.519845e+01 1.533171e+01 1.383909e+01 1.392099e+01 1.245759e+01 1.248402e+01 1.105831e+01 1.102780e+01 9.647948e+00 9.561850e+00 8.236270e+00 8.098837e+00 6.836709e+00 6.654965e+00 5.466652e+00 5.250092e+00 4.147348e+00 3.907428e+00 2.903366e+00 2.652797e+00 1.761585e+00 1.513465e+00 7.497337e-01 5.165733e-01 -1.054079e-01 -3.126590e-01 -7.799782e-01 -9.528090e-01 -1.254941e+00 -1.387937e+00 -1.517675e+00 -1.608862e+00 -1.563008e+00 -1.613815e+00 -1.393525e+00 -1.408367e+00 -1.019101e+00 -1.004645e+00 -4.557384e-01 -4.199639e-01 2.760911e-01 3.248946e-01 1.153340e+00 1.207487e+00 2.152227e+00 2.205372e+00 3.249825e+00 3.297442e+00 4.425236e+00 4.464851e+00 5.660325e+00 5.691511e+00 6.940024e+00 6.964202e+00 8.252276e+00 8.272382e+00 9.587717e+00 
9.447455e+00 1.085649e+01 1.081532e+01 1.222839e+01 1.219793e+01 1.360556e+01 1.359082e+01 1.498425e+01 1.498922e+01 1.636025e+01 1.638743e+01 1.772835e+01 1.777837e+01 1.908185e+01 1.915319e+01 2.041223e+01 2.050114e+01 2.170898e+01 2.180955e+01 2.295958e+01 2.306416e+01 2.414973e+01 2.424951e+01 2.526374e+01 2.534969e+01 2.628518e+01 2.634904e+01 2.719762e+01 2.723301e+01 2.798548e+01 2.798893e+01 2.863494e+01 2.860655e+01 2.913471e+01 2.907846e+01 2.947661e+01 2.940021e+01 2.965601e+01 2.957023e+01 2.967194e+01 2.958958e+01 2.952697e+01 2.946159e+01 2.922695e+01 2.919145e+01 2.878045e+01 2.878587e+01 2.819825e+01 2.825271e+01 2.749270e+01 2.760072e+01 2.667708e+01 2.683930e+01 2.576500e+01 2.597826e+01 2.476986e+01 2.502755e+01 2.370432e+01 2.399700e+01 2.257984e+01 2.289596e+01 2.140632e+01 2.173300e+01 2.019181e+01 2.051554e+01 1.894241e+01 1.924974e+01 1.766230e+01 1.794047e+01 1.635406e+01 1.659154e+01 1.501916e+01 1.520616e+01 1.365870e+01 1.378762e+01 1.227434e+01 1.234017e+01 1.086926e+01 1.086990e+01 9.449179e+00 9.385667e+00 8.023277e+00 7.899816e+00 6.604857e+00 6.428723e+00 5.211719e+00 4.992933e+00 3.866099e+00 3.616876e+00 2.594087e+00 2.328072e+00 1.424508e+00 1.155829e+00 3.872876e-01 1.294897e-01 -4.885895e-01 -7.236177e-01 -1.177309e+00 -1.380305e+00 -1.658389e+00 -1.823452e+00 -1.918474e+00 -2.043440e+00 -1.952462e+00 -2.038862e+00 -1.763796e+00 -1.816380e+00 -1.363855e+00 -1.389757e+00 -7.705598e-01 -7.782413e-01 -6.441280e-03 -4.585364e-03 9.035008e-01 9.069888e-01 1.933842e+00 1.932608e+00 3.060431e+00 3.050168e+00 4.261615e+00 4.240267e+00 5.518942e+00 5.486667e+00 6.817406e+00 6.776332e+00 8.145306e+00 8.099157e+00 9.493833e+00 