# vtk DataFile Version 2.0
Comment goes here
ASCII

DATASET STRUCTURED_POINTS
FIELD FieldData 1
TIME 1 1 double
0.15000000
DIMENSIONS    128   128   1

ORIGIN    0.000   0.000   0.000
SPACING   0.039062 0.039062   1.000

POINT_DATA   16384
SCALARS P double
LOOKUP_TABLE default

-6.173564e+00 -6.729031e+00 -6.424321e+00 -6.999959e+00 -6.605302e+00 -7.196212e+00 -6.718394e+00 -7.319642e+00 -6.765618e+00 -7.372243e+00 -6.748958e+00 -7.355979e+00 -6.670223e+00 -7.272666e+00 -6.530955e+00 -7.123885e+00 -6.332385e+00 -6.910953e+00 -6.075443e+00 -6.634947e+00 -5.760821e+00 -6.296765e+00 -5.389069e+00 -5.897236e+00 -4.960742e+00 -5.437262e+00 -4.476562e+00 -4.917975e+00 -3.937599e+00 -4.340908e+00 -3.345450e+00 -3.708159e+00 -2.702396e+00 -3.022535e+00 -2.011545e+00 -2.287667e+00 -1.276923e+00 -1.508091e+00 -5.035301e-01 -6.892812e-01 3.026509e-01 1.623572e-01 1.134696e+00 1.039542e+00 1.984822e+00 1.934206e+00 2.844508e+00 2.837621e+00 3.704642e+00 3.740546e+00 4.555697e+00 4.633390e+00 5.387908e+00 5.506384e+00 6.191461e+00 6.349745e+00 6.956675e+00 7.153836e+00 7.674175e+00 7.909308e+00 8.335042e+00 8.607229e+00 8.930963e+00 9.239190e+00 9.454337e+00 9.797400e+00 9.898387e+00 1.027476e+01 1.025723e+01 1.066496e+01 1.052596e+01 1.096249e+01 1.070067e+01 1.116278e+01 1.077854e+01 1.126220e+01 1.075782e+01 1.125819e+01 1.063792e+01 1.114930e+01 1.041940e+01 1.093530e+01 1.010399e+01 1.061726e+01 9.694634e+00 1.019760e+01 9.195516e+00 9.680182e+00 8.612028e+00 9.070342e+00 7.950780e+00 8.374877e+00 7.219554e+00 7.602023e+00 6.427240e+00 6.761366e+00 5.583733e+00 5.863709e+00 4.699783e+00 4.920875e+00 3.786817e+00 3.945471e+00 2.856708e+00 2.950601e+00 1.921520e+00 1.949547e+00 9.932264e-01 9.554392e-01 8.341403e-02 -1.908366e-02 -7.969959e-01 -9.621836e-01 -1.638011e+00 -1.863101e+00 -2.430784e+00 -2.712375e+00 -3.167784e+00 -3.502003e+00 -3.842889e+00 -4.225522e+00 -4.451426e+00 -4.878019e+00 -4.990136e+00 -5.456078e+00 -5.457078e+00 -5.957654e+00 -5.851481e+00 -6.381915e+00 
-5.670202e+00 -6.147719e+00 -5.937236e+00 -6.433787e+00 -6.132237e+00 -6.643169e+00 -6.257014e+00 -6.777622e+00 -6.313559e+00 -6.839091e+00 -6.303870e+00 -6.829540e+00 -6.229813e+00 -6.750819e+00 -6.093018e+00 -6.604582e+00 -5.894834e+00 -6.392246e+00 -5.636329e+00 -6.115004e+00 -5.318343e+00 -5.773891e+00 -4.941585e+00 -5.369874e+00 -4.506765e+00 -4.903998e+00 -4.014756e+00 -4.377532e+00 -3.466768e+00 -3.792136e+00 -2.864522e+00 -3.150026e+00 -2.210411e+00 -2.454112e+00 -1.507632e+00 -1.708119e+00 -7.602913e-01 -9.166627e-01 2.654616e-02 -8.529321e-02 8.468416e-01 7.795153e-01 1.693620e+00 1.670412e+00 2.559050e+00 2.579261e+00 3.434558e+00 3.497259e+00 4.310976e+00 4.415088e+00 5.178712e+00 5.323073e+00 6.027925e+00 6.211356e+00 6.848720e+00 7.070062e+00 7.631318e+00 7.889460e+00 8.366240e+00 8.660105e+00 9.044454e+00 9.372968e+00 9.657522e+00 1.001955e+01 1.019772e+01 1.059195e+01 1.065812e+01 1.108301e+01 1.103272e+01 1.148628e+01 1.131645e+01 1.179620e+01 1.150525e+01 1.200808e+01 1.159615e+01 1.211819e+01 1.158724e+01 1.212386e+01 1.147775e+01 1.202354e+01 1.126806e+01 1.181685e+01 1.095974e+01 1.150474e+01 1.055557e+01 1.108950e+01 1.005954e+01 1.057485e+01 9.476900e+00 9.965984e+00 8.814109e+00 9.269560e+00 8.078839e+00 8.493703e+00 7.279897e+00 7.647902e+00 6.427137e+00 6.742893e+00 5.531321e+00 5.790472e+00 4.603943e+00 4.803263e+00 3.657005e+00 3.794440e+00 2.702760e+00 2.777410e+00 1.753431e+00 1.765483e+00 8.209111e-01 7.715326e-01 -8.352651e-02 -1.923191e-01 -9.495013e-01 -1.114988e+00 -1.767757e+00 -1.986660e+00 -2.530338e+00 -2.798959e+00 -3.230710e+00 -3.545045e+00 -3.863800e+00 -4.219634e+00 -4.425977e+00 -4.818958e+00 -4.914968e+00 -5.340651e+00 -5.329716e+00 -5.783594e+00 
-6.210160e+00 -6.768130e+00 -6.460295e+00 -7.038447e+00 -6.640470e+00 -7.233900e+00 -6.752662e+00 -7.356432e+00 -6.798977e+00 -7.408114e+00 -6.781460e+00 -7.390972e+00 -6.701962e+00 -7.306856e+00 -6.562046e+00 -7.157364e+00 -6.362941e+00 -6.943807e+00 -6.105551e+00 -6.667232e+00 -5.790521e+00 -6.328492e+00 -5.418339e+00 -5.928352e+00 -4.989486e+00 -5.467645e+00 -4.504604e+00 -4.947426e+00 -3.964684e+00 -4.369158e+00 -3.371248e+00 -3.734871e+00 -2.726518e+00 -3.047320e+00 -2.033557e+00 -2.310101e+00 -1.296365e+00 -1.527733e+00 -5.199414e-01 -7.056960e-01 2.897130e-01 1.495811e-01 1.125635e+00 1.030773e+00 1.979985e+00 1.929755e+00 2.844170e+00 2.837727e+00 3.708999e+00 3.745371e+00 4.564857e+00 4.643018e+00 5.401889e+00 5.520817e+00 6.210197e+00 6.368911e+00 6.980016e+00 7.177595e+00 7.701894e+00 7.937460e+00 8.366850e+00 8.639520e+00 8.966509e+00 9.275323e+00 9.493226e+00 9.837038e+00 9.940181e+00 1.031754e+01 1.030146e+01 1.071046e+01 1.057213e+01 1.101029e+01 1.074826e+01 1.121240e+01 1.082701e+01 1.131312e+01 1.080663e+01 1.130986e+01 1.068648e+01 1.120113e+01 1.046713e+01 1.098664e+01 1.015028e+01 1.066742e+01 9.738892e+00 1.024588e+01 9.237124e+00 9.725847e+00 8.650381e+00 9.112656e+00 7.985292e+00 8.413124e+00 7.249673e+00 7.635529e+00 6.452467e+00 6.789527e+00 5.603639e+00 5.886014e+00 4.714035e+00 4.936935e+00 3.795190e+00 3.955038e+00 2.859106e+00 2.953582e+00 1.917985e+00 1.946013e+00 9.839399e-01 9.456230e-01 6.869743e-02 -3.479650e-02 -8.166968e-01 -9.832746e-01 -1.662145e+00 -1.888944e+00 -2.458721e+00 -2.742270e+00 -3.198844e+00 -3.535207e+00 -3.876377e+00 -4.261286e+00 -4.486661e+00 -4.915620e+00 -5.026479e+00 -5.494845e+00 -5.493957e+00 -5.996997e+00 -5.888413e+00 -6.421334e+00 
-5.745536e+00 -6.227800e+00 -6.011455e+00 -6.512789e+00 -6.204920e+00 -6.720663e+00 -6.327927e+00 -6.853365e+00 -6.382635e+00 -6.912998e+00 -6.371175e+00 -6.901650e+00 -6.295502e+00 -6.821252e+00 -6.157294e+00 -6.673495e+00 -5.957902e+00 -6.459788e+00 -5.698348e+00 -6.181276e+00 -5.379390e+00 -5.838904e+00 -5.001616e+00 -5.433526e+00 -4.565595e+00 -4.966047e+00 -4.072044e+00 -4.437590e+00 -3.522016e+00 -3.849674e+00 -2.917088e+00 -3.204384e+00 -2.259531e+00 -2.504524e+00 -1.552453e+00 -1.753747e+00 -7.999086e-01 -9.566346e-01 -6.954048e-03 -1.187411e-01 8.203383e-01 7.534128e-01 1.674920e+00 1.652394e+00 2.548848e+00 2.569950e+00 3.433412e+00 3.497141e+00 4.319284e+00 4.424493e+00 5.196700e+00 5.342171e+00 6.055642e+00 6.240157e+00 6.886040e+00 7.108425e+00 7.677953e+00 7.937105e+00 8.421747e+00 8.716630e+00 9.108260e+00 9.437867e+00 9.728936e+00 1.009222e+01 1.027595e+01 1.067174e+01 1.074231e+01 1.116915e+01 1.112193e+01 1.157799e+01 1.140969e+01 1.189259e+01 1.160150e+01 1.210821e+01 1.169433e+01 1.222104e+01 1.168624e+01 1.222833e+01 1.157644e+01 1.212844e+01 1.136526e+01 1.192091e+01 1.105426e+01 1.160659e+01 1.064618e+01 1.118773e+01 1.014501e+01 1.066798e+01 9.555995e+00 1.005254e+01 8.885639e+00 9.348103e+00 8.141664e+00 8.562860e+00 7.332977e+00 7.706433e+00 6.469565e+00 6.789741e+00 5.562371e+00 5.824811e+00 4.623106e+00 4.824544e+00 3.664026e+00 3.802422e+00 2.697661e+00 2.772179e+00 1.736523e+00 1.747450e+00 7.927887e-01 7.414198e-01 -1.220083e-01 -2.335151e-01 -9.972634e-01 -1.166046e+00 -1.823548e+00 -2.046196e+00 -2.592795e+00 -2.865492e+00 -3.298422e+00 -3.617068e+00 -3.935375e+00 -4.295682e+00 -4.500101e+00 -4.897662e+00 -4.990452e+00 -5.420789e+00 -5.405539e+00 -5.864124e+00 
-6.320268e+00 -6.885754e+00 -6.568439e+00 -7.154138e+00 -6.746100e+00 -7.347099e+00 -6.855518e+00 -7.466861e+00 -6.899041e+00 -7.515730e+00 -6.878909e+00 -7.495911e+00 -6.797104e+00 -7.409372e+00 -6.655249e+00 -7.257755e+00 -6.454563e+00 -7.042351e+00 -6.195873e+00 -6.764118e+00 -5.879681e+00 -6.423762e+00 -5.506284e+00 -6.021861e+00 -5.075932e+00 -5.559028e+00 -4.589024e+00 -5.036087e+00 -4.046303e+00 -4.454276e+00 -3.449066e+00 -3.815425e+00 -2.799350e+00 -3.122128e+00 -2.100079e+00 -2.377871e+00 -1.355181e+00 -1.587123e+00 -5.696451e-01 -7.553786e-01 2.504692e-01 1.108586e-01 1.098079e+00 1.004132e+00 1.965172e+00 1.916136e+00 2.842938e+00 2.837858e+00 3.721939e+00 3.759744e+00 4.592295e+00 4.671878e+00 5.443881e+00 5.564169e+00 6.266535e+00 6.426533e+00 7.050243e+00 7.249056e+00 7.785327e+00 8.022150e+00 8.462604e+00 8.736673e+00 9.073530e+00 9.384040e+00 9.610313e+00 9.956309e+00 1.006602e+01 1.044625e+01 1.043463e+01 1.084740e+01 1.071115e+01 1.115415e+01 1.089157e+01 1.136175e+01 1.097299e+01 1.146644e+01 1.095360e+01 1.146547e+01 1.083274e+01 1.135724e+01 1.061091e+01 1.114132e+01 1.028978e+01 1.081862e+01 9.872274e+00 1.039145e+01 9.362547e+00 9.863571e+00 8.766020e+00 9.240308e+00 8.089372e+00 8.528531e+00 7.340521e+00 7.736643e+00 6.528564e+00 6.874506e+00 5.663682e+00 5.953306e+00 4.756999e+00 4.985350e+00 3.820389e+00 3.983814e+00 2.866240e+00 2.962435e+00 1.907175e+00 1.935157e+00 9.557397e-01 9.157680e-01 2.408039e-02 -8.247587e-02 -8.763736e-01 -1.047197e+00 -1.735202e+00 -1.967201e+00 -2.543238e+00 -2.832724e+00 -3.292750e+00 -3.635596e+00 -3.977553e+00 -4.369330e+00 -4.593033e+00 -5.029121e+00 -5.136109e+00 -5.611773e+00 -5.605115e+00 -6.115558e+00 -5.999631e+00 -6.540022e+00 
-5.896901e+00 -6.388667e+00 -6.160390e+00 -6.671295e+00 -6.350593e+00 -6.875968e+00 -6.469898e+00 -7.005012e+00 -6.520803e+00 -7.060854e+00 -6.505708e+00 -7.045831e+00 -6.426757e+00 -6.962042e+00 -6.285724e+00 -6.811252e+00 -6.083959e+00 -6.594853e+00 -5.822394e+00 -6.313886e+00 -5.501607e+00 -5.969114e+00 -5.121943e+00 -5.561146e+00 -4.683671e+00 -5.090604e+00 -4.187188e+00 -4.558308e+00 -3.633221e+00 -3.965477e+00 -3.023048e+00 -3.313928e+00 -2.358686e+00 -2.606247e+00 -1.643059e+00 -1.845936e+00 -8.801141e-01 -1.037502e+00 -7.488931e-02 -1.865124e-01 7.664730e-01 7.004174e-01 1.636771e+00 1.615683e+00 2.527837e+00 2.550795e+00 3.430675e+00 3.496528e+00 4.335630e+00 4.443090e+00 5.232583e+00 5.380317e+00 6.111159e+00 6.297863e+00 6.960931e+00 7.185394e+00 7.771624e+00 8.032761e+00 8.533301e+00 8.830152e+00 9.236527e+00 9.568226e+00 9.872517e+00 1.023822e+01 1.043326e+01 1.083201e+01 1.091159e+01 1.134222e+01 1.130130e+01 1.176224e+01 1.159718e+01 1.208628e+01 1.179503e+01 1.230946e+01 1.189176e+01 1.242783e+01 1.188537e+01 1.243845e+01 1.177497e+01 1.233950e+01 1.156085e+01 1.213036e+01 1.124450e+01 1.181170e+01 1.082861e+01 1.138562e+01 1.031715e+01 1.085571e+01 9.715371e+00 1.022709e+01 9.029821e+00 9.506541e+00 8.268340e+00 8.702394e+00 7.440021e+00 7.824531e+00 6.555124e+00 6.884234e+00 5.624951e+00 5.894007e+00 4.661657e+00 4.867313e+00 3.678011e+00 3.818264e+00 2.687116e+00 2.761263e+00 1.702073e+00 1.710619e+00 7.356447e-01 6.801523e-01 -2.000974e-01 -3.171764e-01 -1.094088e+00 -1.269598e+00 -1.936545e+00 -2.166800e+00 -2.719173e+00 -3.000120e+00 -3.435297e+00 -3.762641e+00 -4.079903e+00 -4.449208e+00 -4.649600e+00 -5.056357e+00 -5.142509e+00 -5.582174e+00 -5.558086e+00 -6.026094e+00 
-6.504854e+00 -7.082881e+00 -6.749410e+00 -7.347703e+00 -6.922571e+00 -7.536202e+00 -7.027095e+00 -7.651088e+00 -7.065753e+00 -7.695071e+00 -7.041121e+00 -7.670666e+00 -6.955403e+00 -7.580037e+00 -6.810328e+00 -7.424906e+00 -6.607096e+00 -7.206520e+00 -6.346394e+00 -6.925680e+00 -6.028476e+00 -6.582839e+00 -5.653302e+00 -6.178243e+00 -5.220723e+00 -5.712117e+00 -4.730703e+00 -5.184884e+00 -4.183558e+00 -4.597385e+00 -3.580190e+00 -3.951102e+00 -2.922309e+00 -3.248344e+00 -2.212600e+00 -2.492407e+00 -1.454863e+00 -1.687675e+00 -6.540726e-01 -8.396631e-01 1.836113e-01 4.499050e-02 1.050897e+00 9.585999e-01 1.939471e+00 1.892549e+00 2.840150e+00 2.837454e+00 3.743068e+00 3.783351e+00 4.637890e+00 4.719902e+00 5.514030e+00 5.636603e+00 6.360872e+00 6.522981e+00 7.167983e+00 7.368775e+00 7.925301e+00 8.164092e+00 8.623308e+00 8.899536e+00 9.253172e+00 9.566307e+00 9.806868e+00 1.015628e+01 1.027726e+01 1.066206e+01 1.065820e+01 1.107704e+01 1.094453e+01 1.139544e+01 1.113216e+01 1.161234e+01 1.121809e+01 1.172378e+01 1.120044e+01 1.172680e+01 1.107844e+01 1.161955e+01 1.085252e+01 1.140139e+01 1.052429e+01 1.107300e+01 1.009661e+01 1.063651e+01 9.573597e+00 1.009556e+01 8.960701e+00 9.455452e+00 8.264674e+00 8.723121e+00 7.493592e+00 7.907177e+00 6.656804e+00 7.017825e+00 5.764849e+00 6.066734e+00 4.829321e+00 5.066834e+00 3.862667e+00 4.032034e+00 2.877939e+00 2.976890e+00 1.888482e+00 1.916209e+00 9.075904e-01 8.646348e-01 -5.185991e-02 -1.637719e-01 -9.777752e-01 -1.155930e+00 -1.859177e+00 -2.100085e+00 -2.686482e+00 -2.986080e+00 -3.451704e+00 -3.805536e+00 -4.148576e+00 -4.551943e+00 -4.772574e+00 -5.220647e+00 -5.320856e+00 -5.808751e+00 -5.792121e+00 -6.314945e+00 -6.186409e+00 -6.739276e+00 
-6.125693e+00 -6.631723e+00 -6.385021e+00 -6.910295e+00 -6.569853e+00 -7.109699e+00 -6.683188e+00 -7.232857e+00 -6.728055e+00 -7.282702e+00 -6.707278e+00 -7.261963e+00 -6.623294e+00 -7.172995e+00 -6.478023e+00 -7.017678e+00 -6.272813e+00 -6.797371e+00 -6.008447e+00 -6.512944e+00 -5.685220e+00 -6.164868e+00 -5.303082e+00 -5.753364e+00 -4.861831e+00 -5.278597e+00 -4.361344e+00 -4.740903e+00 -3.801833e+00 -4.141025e+00 -3.184097e+00 -3.480352e+00 -2.509752e+00 -2.761121e+00 -1.781425e+00 -1.986590e+00 -1.002895e+00 -1.161155e+00 -1.791724e-01 -2.903976e-01 6.834905e-01 6.189147e-01 1.577650e+00 1.558905e+00 2.494782e+00 2.520712e+00 3.425443e+00 3.494658e+00 4.359465e+00 4.470452e+00 5.286181e+00 5.437413e+00 6.194653e+00 6.384688e+00 7.073907e+00 7.301467e+00 7.913155e+00 8.177174e+00 8.701994e+00 9.001630e+00 9.430583e+00 9.765185e+00 1.008979e+01 1.045882e+01 1.067131e+01 1.107420e+01 1.116777e+01 1.160376e+01 1.157276e+01 1.204072e+01 1.188092e+01 1.237911e+01 1.208795e+01 1.261383e+01 1.219063e+01 1.274071e+01 1.218686e+01 1.275655e+01 1.207566e+01 1.265926e+01 1.185721e+01 1.244791e+01 1.153290e+01 1.212292e+01 1.110534e+01 1.168615e+01 1.057843e+01 1.114100e+01 9.957432e+00 1.049255e+01 9.248941e+00 9.747637e+00 8.460957e+00 8.914803e+00 7.602842e+00 8.004315e+00 6.685261e+00 7.028015e+00 5.720057e+00 5.999131e+00 4.720065e+00 4.931999e+00 3.698856e+00 3.841718e+00 2.670419e+00 2.743739e+00 1.648787e+00 1.653424e+00 6.476405e-01 5.855933e-01 -3.200990e-01 -4.459063e-01 -1.242641e+00 -1.428585e+00 -2.109648e+00 -2.351615e+00 -2.912472e+00 -3.206039e+00 -3.644300e+00 -3.984878e+00 -4.300191e+00 -4.683126e+00 -4.877023e+00 -5.297659e+00 -5.373346e+00 -5.827050e+00 -5.789169e+00 -6.271335e+00 
-6.765526e+00 -7.361133e+00 -7.004291e+00 -7.620233e+00 -7.170475e+00 -7.801823e+00 -7.267564e+00 -7.909324e+00 -7.298958e+00 -7.946044e+00 -7.267718e+00 -7.914950e+00 -7.176381e+00 -7.818491e+00 -7.026827e+00 -7.658498e+00 -6.820222e+00 -7.436149e+00 -6.557042e+00 -7.152008e+00 -6.237168e+00 -6.806141e+00 -5.860051e+00 -6.398291e+00 -5.424939e+00 -5.928106e+00 -4.931145e+00 -5.395395e+00 -4.378337e+00 -4.800408e+00 -3.766828e+00 -4.144096e+00 -3.097830e+00 -3.428347e+00 -2.373679e+00 -2.656169e+00 -1.597978e+00 -1.831815e+00 -7.756824e-01 -9.608401e-01 8.689481e-02 -5.007816e-02 9.821514e-01 8.924400e-01 1.901326e+00 1.857634e+00 2.834680e+00 2.835569e+00 3.771720e+00 3.815674e+00 4.701445e+00 4.786992e+00 5.612592e+00 5.738413e+00 6.493894e+00 6.658904e+00 7.334309e+00 7.537705e+00 8.123229e+00 8.364501e+00 8.850662e+00 9.129541e+00 9.507379e+00 9.823741e+00 1.008503e+01 1.043874e+01 1.057622e+01 1.096693e+01 1.097458e+01 1.140150e+01 1.127481e+01 1.173647e+01 1.147268e+01 1.196667e+01 1.156507e+01 1.208787e+01 1.154996e+01 1.209679e+01 1.142649e+01 1.199125e+01 1.119496e+01 1.177026e+01 1.085686e+01 1.143415e+01 1.041497e+01 1.098478e+01 9.873335e+00 1.042558e+01 9.237405e+00 9.761764e+00 8.514018e+00 9.000361e+00 7.711446e+00 8.150245e+00 6.839379e+00 7.222099e+00 5.908853e+00 6.228286e+00 4.932128e+00 5.182628e+00 3.922479e+00 4.100111e+00 2.893923e+00 2.996490e+00 1.860870e+00 1.887845e+00 8.377203e-01 7.900887e-01 -1.615671e-01 -2.815289e-01 -1.123911e+00 -1.312889e+00 -2.037505e+00 -2.291410e+00 -2.892149e+00 -3.206366e+00 -3.679491e+00 -4.049085e+00 -4.393154e+00 -4.813042e+00 -5.028759e+00 -5.493823e+00 -5.583834e+00 -6.088994e+00 -6.057635e+00 -6.597877e+00 -6.450895e+00 -7.021272e+00 
-6.434016e+00 -6.959071e+00 -6.686800e+00 -7.231241e+00 -6.863543e+00 -7.422715e+00 -6.968113e+00 -7.537257e+00 -7.004290e+00 -7.578516e+00 -6.975497e+00 -7.549767e+00 -6.884580e+00 -7.453724e+00 -6.733665e+00 -7.292418e+00 -6.524088e+00 -7.067155e+00 -6.256414e+00 -6.778553e+00 -5.930524e+00 -6.426655e+00 -5.545797e+00 -6.011116e+00 -5.101341e+00 -5.531438e+00 -4.596286e+00 -4.987252e+00 -4.030094e+00 -4.378615e+00 -3.402870e+00 -3.706290e+00 -2.715648e+00 -2.972010e+00 -1.970628e+00 -2.178684e+00 -1.171350e+00 -1.330539e+00 -3.227825e-01 -4.331842e-01 5.686608e-01 5.063965e-01 1.495189e+00 1.479935e+00 2.447770e+00 2.478033e+00 3.416322e+00 3.490368e+00 4.389954e+00 4.505940e+00 5.357223e+00 5.513336e+00 6.306407e+00 6.500991e+00 7.225771e+00 7.457435e+00 8.103820e+00 8.371508e+00 8.929515e+00 9.232539e+00 9.692466e+00 1.003048e+01 1.038308e+01 1.075598e+01 1.099269e+01 1.140045e+01 1.151361e+01 1.195611e+01 1.193922e+01 1.241596e+01 1.226397e+01 1.277380e+01 1.248341e+01 1.302428e+01 1.259420e+01 1.316292e+01 1.259410e+01 1.318617e+01 1.248200e+01 1.309152e+01 1.225793e+01 1.287767e+01 1.192314e+01 1.254459e+01 1.148010e+01 1.209379e+01 1.093261e+01 1.152842e+01 1.028586e+01 1.085343e+01 9.546524e+00 1.007567e+01 8.722761e+00 9.203971e+00 7.824273e+00 8.249099e+00 6.862250e+00 7.223655e+00 5.849269e+00 6.141867e+00 4.799099e+00 5.019293e+00 3.726429e+00 3.872415e+00 2.646498e+00 2.718170e+00 1.574662e+00 1.573418e+00 5.259132e-01 4.544010e-01 -4.856109e-01 -6.237763e-01 -1.447085e+00 -1.647607e+00 -2.347384e+00 -2.605540e+00 -3.177367e+00 -3.488224e+00 -3.930041e+00 -4.288611e+00 -4.600592e+00 -5.001938e+00 -5.186302e+00 -5.625587e+00 -5.686351e+00 -6.158848e+00 -6.101552e+00 -6.602624e+00 
-7.104539e+00 -7.722769e+00 -7.334551e+00 -7.973200e+00 -7.490561e+00 -8.144726e+00 -7.577058e+00 -8.241746e+00 -7.598302e+00 -8.268382e+00 -7.558026e+00 -8.228214e+00 -7.459217e+00 -8.124079e+00 -7.303957e+00 -7.957949e+00 -7.093365e+00 -7.730895e+00 -6.827615e+00 -7.443140e+00 -6.506059e+00 -7.094203e+00 -6.127428e+00 -6.683114e+00 -5.690117e+00 -6.208699e+00 -5.192521e+00 -5.669906e+00 -4.633393e+00 -5.066146e+00 -4.012208e+00 -4.397623e+00 -3.329489e+00 -3.665627e+00 -2.587070e+00 -2.872763e+00 -1.788288e+00 -2.023105e+00 -9.380748e-01 -1.122261e+00 -4.295973e-02 -1.773453e-01 8.890184e-01 8.031273e-01 1.848475e+00 1.809428e+00 2.824904e+00 2.830852e+00 3.806949e+00 3.855993e+00 4.782694e+00 4.873039e+00 5.739964e+00 5.870059e+00 6.666610e+00 6.835265e+00 7.550782e+00 7.757244e+00 8.381151e+00 8.625129e+00 9.147111e+00 9.428735e+00 9.838924e+00 1.015863e+01 1.044783e+01 1.080618e+01 1.096613e+01 1.136355e+01 1.138721e+01 1.182371e+01 1.170557e+01 1.218040e+01 1.191683e+01 1.242819e+01 1.201773e+01 1.256248e+01 1.200611e+01 1.257959e+01 1.188097e+01 1.247684e+01 1.164242e+01 1.225277e+01 1.129181e+01 1.190722e+01 1.083173e+01 1.144160e+01 1.026614e+01 1.085903e+01 9.600428e+00 1.016457e+01 8.841490e+00 9.365302e+00 7.997820e+00 8.470408e+00 7.079512e+00 7.491184e+00 6.098236e+00 6.440901e+00 5.067119e+00 5.334585e+00 4.000541e+00 4.188677e+00 2.913830e+00 3.020581e+00 1.822856e+00 1.848129e+00 7.435512e-01 6.889916e-01 -3.086201e-01 -4.399351e-01 -1.319200e+00 -1.523098e+00 -2.275232e+00 -2.546783e+00 -3.165668e+00 -3.499493e+00 -3.981658e+00 -4.372181e+00 -4.716701e+00 -5.158334e+00 -5.366644e+00 -5.853907e+00 -5.929555e+00 -6.457134e+00 -6.405485e+00 -6.968242e+00 -6.796147e+00 -7.389089e+00 
-6.824683e+00 -7.373502e+00 -7.067610e+00 -7.636000e+00 -7.232685e+00 -7.816045e+00 -7.324951e+00 -7.918538e+00 -7.349199e+00 -7.948080e+00 -7.309652e+00 -7.908677e+00 -7.209704e+00 -7.803514e+00 -7.051751e+00 -7.634817e+00 -6.837108e+00 -7.403803e+00 -6.566027e+00 -7.110734e+00 -6.237819e+00 -6.755056e+00 -5.851065e+00 -6.335633e+00 -5.403918e+00 -5.851048e+00 -4.894469e+00 -5.299955e+00 -4.321135e+00 -4.681451e+00 -3.683062e+00 -3.995436e+00 -2.980480e+00 -3.242945e+00 -2.215002e+00 -2.426400e+00 -1.389838e+00 -1.549798e+00 -5.099054e-01 -6.187868e-01 4.181576e-01 3.593511e-01 1.386082e+00 1.375808e+00 2.384142e+00 2.420448e+00 3.401391e+00 3.482070e+00 4.425959e+00 4.548708e+00 5.445365e+00 5.607962e+00 6.446846e+00 6.647316e+00 7.417664e+00 7.654432e+00 8.345402e+00 8.617399e+00 9.218202e+00 9.524926e+00 1.002498e+01 1.036647e+01 1.075557e+01 1.113233e+01 1.140086e+01 1.181363e+01 1.195281e+01 1.240235e+01 1.240456e+01 1.289126e+01 1.275036e+01 1.327394e+01 1.298560e+01 1.354472e+01 1.310680e+01 1.369874e+01 1.311157e+01 1.373198e+01 1.299863e+01 1.364142e+01 1.276783e+01 1.342515e+01 1.242018e+01 1.308260e+01 1.195796e+01 1.261474e+01 1.138479e+01 1.202428e+01 1.070574e+01 1.131596e+01 9.927459e+00 1.049661e+01 9.058290e+00 9.575349e+00 8.108305e+00 8.563560e+00 7.089334e+00 7.474807e+00 6.014874e+00 6.324629e+00 4.899911e+00 5.130199e+00 3.760610e+00 3.909857e+00 2.613891e+00 2.682543e+00 1.476907e+00 1.467150e+00 3.664415e-01 2.818520e-01 -7.017058e-01 -8.565423e-01 -1.713296e+00 -1.933155e+00 -2.656138e+00 -2.935478e+00 -3.520438e+00 -3.853657e+00 -4.298988e+00 -4.680596e+00 -4.987183e+00 -5.411904e+00 -5.582891e+00 -6.045692e+00 -6.086185e+00 -6.582262e+00 -6.498994e+00 -7.023713e+00 
-7.524794e+00 -8.170657e+00 -7.742005e+00 -8.408393e+00 -7.883650e+00 -8.565735e+00 -7.955549e+00 -8.648371e+00 -7.963096e+00 -8.661495e+00 -7.910914e+00 -8.609493e+00 -7.802582e+00 -8.495702e+00 -7.640450e+00 -8.322269e+00 -7.425560e+00 -8.090110e+00 -7.157674e+00 -7.798974e+00 -6.835419e+00 -7.447627e+00 -6.456545e+00 -7.034120e+00 -6.018279e+00 -6.556155e+00 -5.517750e+00 -6.011496e+00 -4.952461e+00 -5.398406e+00 -4.320741e+00 -4.716066e+00 -3.622170e+00 -3.964952e+00 -2.857909e+00 -3.147121e+00 -2.030937e+00 -2.266406e+00 -1.146161e+00 -1.328492e+00 -2.104121e-01 -3.408810e-01 7.676758e-01 6.872548e-01 1.777876e+00 1.745305e+00 2.808657e+00 2.821528e+00 3.847512e+00 3.903397e+00 4.881324e+00 4.977968e+00 5.896719e+00 6.032228e+00 6.880415e+00 7.053420e+00 7.819523e+00 8.029299e+00 8.701811e+00 8.948332e+00 9.515912e+00 9.799822e+00 1.025148e+01 1.057396e+01 1.089927e+01 1.126184e+01 1.145124e+01 1.185539e+01 1.190051e+01 1.234736e+01 1.224139e+01 1.273126e+01 1.246936e+01 1.300129e+01 1.258099e+01 1.315244e+01 1.257399e+01 1.318049e+01 1.244714e+01 1.308214e+01 1.220036e+01 1.285524e+01 1.183474e+01 1.249895e+01 1.135265e+01 1.201405e+01 1.075782e+01 1.140318e+01 1.005550e+01 1.067107e+01 9.252594e+00 9.824799e+00 8.357793e+00 8.873896e+00 7.381635e+00 7.830374e+00 6.336537e+00 6.708648e+00 5.236703e+00 5.525290e+00 4.097928e+00 4.298645e+00 2.937249e+00 3.048298e+00 1.772475e+00 1.794422e+00 6.215920e-01 5.570371e-01 -4.979055e-01 -6.447490e-01 -1.569699e+00 -1.793465e+00 -2.579280e+00 -2.873897e+00 -3.514473e+00 -3.873548e+00 -4.365786e+00 -4.782914e+00 -5.126586e+00 -5.595555e+00 -5.793070e+00 -6.307975e+00 -6.364078e+00 -6.919359e+00 -6.840765e+00 -7.431179e+00 -7.226180e+00 -7.846736e+00 
-7.301226e+00 -7.878479e+00 -7.529718e+00 -8.126784e+00 -7.678385e+00 -8.290779e+00 -7.753807e+00 -8.376844e+00 -7.762097e+00 -8.390822e+00 -7.708521e+00 -8.337660e+00 -7.597185e+00 -8.221148e+00 -7.430831e+00 -8.043750e+00 -7.210734e+00 -7.806550e+00 -6.936724e+00 -7.509316e+00 -6.607330e+00 -7.150679e+00 -6.220056e+00 -6.728431e+00 -5.771756e+00 -6.239904e+00 -5.259105e+00 -5.682424e+00 -4.679109e+00 -5.053787e+00 -4.029607e+00 -4.352723e+00 -3.309745e+00 -3.579317e+00 -2.520349e+00 -2.735341e+00 -1.664192e+00 -1.824479e+00 -7.461316e-01 -8.524318e-01 2.268862e-01 1.731087e-01 1.245947e+00 1.242608e+00 2.300395e+00 2.344939e+00 3.378140e+00 3.467724e+00 4.466022e+00 4.597716e+00 5.550207e+00 5.721216e+00 6.616583e+00 6.824470e+00 7.651133e+00 7.894029e+00 8.640271e+00 8.917043e+00 9.571129e+00 9.881479e+00 1.043177e+01 1.077624e+01 1.121137e+01 1.159124e+01 1.190028e+01 1.231733e+01 1.249011e+01 1.294629e+01 1.297372e+01 1.347071e+01 1.334520e+01 1.388393e+01 1.359978e+01 1.417994e+01 1.373386e+01 1.435343e+01 1.374488e+01 1.439981e+01 1.363138e+01 1.431535e+01 1.339294e+01 1.409738e+01 1.303030e+01 1.374451e+01 1.254541e+01 1.325695e+01 1.194158e+01 1.263680e+01 1.122365e+01 1.188836e+01 1.039817e+01 1.101837e+01 9.473570e+00 1.003622e+01 8.460307e+00 8.953985e+00 7.370928e+00 7.786421e+00 6.220046e+00 6.550718e+00 5.024165e+00 5.266131e+00 3.801350e+00 3.953425e+00 2.570729e+00 2.634181e+00 1.351835e+00 1.329986e+00 1.638491e-01 6.158242e-02 -9.751972e-01 -1.151960e+00 -2.049175e+00 -2.293962e+00 -3.044484e+00 -3.350683e+00 -3.950494e+00 -4.311658e+00 -4.759759e+00 -5.169795e+00 -5.468012e+00 -5.921269e+00 -6.073960e+00 -6.565225e+00 -6.578914e+00 -7.103353e+00 -6.986321e+00 -7.539372e+00 
-8.029828e+00 -8.708248e+00 -8.228745e+00 -8.927826e+00 -8.350514e+00 -9.065585e+00 -8.402682e+00 -9.128876e+00 -8.392113e+00 -9.124271e+00 -8.324577e+00 -9.057186e+00 -8.204418e+00 -8.931596e+00 -8.034330e+00 -8.749860e+00 -7.815250e+00 -8.512671e+00 -7.546385e+00 -8.219138e+00 -7.225395e+00 -7.867008e+00 -6.848705e+00 -7.453014e+00 -6.411966e+00 -6.973342e+00 -5.910605e+00 -6.424157e+00 -5.340430e+00 -5.802175e+00 -4.698233e+00 -5.105202e+00 -3.982326e+00 -4.332619e+00 -3.192979e+00 -3.485755e+00 -2.332706e+00 -2.568128e+00 -1.406398e+00 -1.585535e+00 -4.213013e-01 -5.460044e-01 6.131467e-01 5.404041e-01 1.685601e+00 1.661903e+00 2.783176e+00 2.805375e+00 3.891867e+00 3.956815e+00 4.997002e+00 5.101800e+00 6.083677e+00 6.225929e+00 7.137173e+00 7.315214e+00 8.143313e+00 8.356396e+00 9.088757e+00 9.337154e+00 9.961233e+00 1.024623e+01 1.074968e+01 1.107344e+01 1.144435e+01 1.180965e+01 1.203681e+01 1.244661e+01 1.251996e+01 1.297692e+01 1.288793e+01 1.339384e+01 1.313607e+01 1.369123e+01 1.326084e+01 1.386356e+01 1.325977e+01 1.390594e+01 1.313144e+01 1.381429e+01 1.287547e+01 1.358553e+01 1.249263e+01 1.321786e+01 1.198491e+01 1.271116e+01 1.135569e+01 1.206731e+01 1.060994e+01 1.129056e+01 9.754457e+00 1.038781e+01 8.798026e+00 9.368916e+00 7.751631e+00 8.246707e+00 6.628525e+00 7.036983e+00 5.444203e+00 5.758254e+00 4.216212e+00 4.431307e+00 2.963780e+00 3.078560e+00 1.707240e+00 1.723255e+00 4.672918e-01 3.885173e-01 -7.358641e-01 -9.036235e-01 -1.883425e+00 -2.133170e+00 -2.958824e+00 -3.282952e+00 -3.948403e+00 -4.339210e+00 -4.841868e+00 -5.291911e+00 -5.632471e+00 -6.134797e+00 -6.316948e+00 -6.865188e+00 -6.895224e+00 -7.483593e+00 -7.369968e+00 -7.993183e+00 -7.746028e+00 -8.399184e+00 
-7.867886e+00 -8.478100e+00 -8.075699e+00 -8.706051e+00 -8.201692e+00 -8.847907e+00 -8.254423e+00 -8.911944e+00 -8.241701e+00 -8.905584e+00 -8.170125e+00 -8.834972e+00 -8.044715e+00 -8.704658e+00 -7.868651e+00 -8.517395e+00 -7.643146e+00 -8.274072e+00 -7.367462e+00 -7.973786e+00 -7.039090e+00 -7.614077e+00 -6.654084e+00 -7.191293e+00 -6.207560e+00 -6.701093e+00 -5.694291e+00 -6.139018e+00 -5.109379e+00 -5.501120e+00 -4.448922e+00 -4.784562e+00 -3.710616e+00 -3.988161e+00 -2.894245e+00 -3.112818e+00 -2.002018e+00 -2.161809e+00 -1.038728e+00 -1.140912e+00 -1.174757e-02 -5.836971e-02 1.069144e+00 1.075310e+00 2.192060e+00 2.247682e+00 3.343408e+00 3.444810e+00 4.508356e+00 4.651764e+00 5.671328e+00 5.853152e+00 6.816495e+00 7.033632e+00 7.928231e+00 8.178355e+00 8.991510e+00 9.273326e+00 9.992231e+00 1.030564e+01 1.091746e+01 1.126363e+01 1.175560e+01 1.213681e+01 1.249646e+01 1.291586e+01 1.313127e+01 1.359246e+01 1.365267e+01 1.415909e+01 1.405461e+01 1.460888e+01 1.433223e+01 1.493553e+01 1.448184e+01 1.513320e+01 1.450073e+01 1.519658e+01 1.438721e+01 1.512106e+01 1.414057e+01 1.490292e+01 1.376113e+01 1.453966e+01 1.325039e+01 1.403042e+01 1.261117e+01 1.337638e+01 1.184790e+01 1.258114e+01 1.096685e+01 1.165118e+01 9.976395e+00 1.059605e+01 8.887315e+00 9.428625e+00 7.712917e+00 8.165053e+00 6.469103e+00 6.824563e+00 5.174234e+00 5.429044e+00 3.848777e+00 4.002387e+00 2.514712e+00 2.569614e+00 1.194706e+00 1.155852e+00 -8.887153e-02 -2.147756e-01 -1.315018e+00 -1.520229e+00 -2.465095e+00 -2.741488e+00 -3.523663e+00 -3.863252e+00 -4.479036e+00 -4.874340e+00 -5.323539e+00 -5.767774e+00 -6.053443e+00 -6.540579e+00 -6.668649e+00 -7.193353e+00 -7.172169e+00 -7.729677e+00 -7.569492e+00 -8.155433e+00 
-8.623791e+00 -9.339510e+00 -8.797032e+00 -9.533605e+00 -8.891705e+00 -9.644736e+00 -8.917559e+00 -9.682363e+00 -8.883328e+00 -9.654803e+00 -8.796246e+00 -9.568772e+00 -8.661635e+00 -9.429046e+00 -8.482631e+00 -9.238244e+00 -8.260032e+00 -8.996751e+00 -7.992321e+00 -8.702820e+00 -7.675872e+00 -8.352841e+00 -7.305352e+00 -7.941790e+00 -6.874304e+00 -7.463821e+00 -6.375870e+00 -6.912965e+00 -5.803589e+00 -6.283865e+00 -5.152195e+00 -5.572496e+00 -4.418322e+00 -4.776785e+00 -3.601070e+00 -3.897100e+00 -2.702362e+00 -2.936553e+00 -1.727100e+00 -1.901114e+00 -6.831070e-01 -7.995198e-01 4.191016e-01 3.569783e-01 1.566701e+00 1.555030e+00 2.745037e+00 2.779701e+00 3.938169e+00 4.015057e+00 5.129435e+00 5.244757e+00 6.301998e+00 6.452627e+00 7.439349e+00 7.623148e+00 8.525733e+00 8.741829e+00 9.546486e+00 9.795459e+00 1.048828e+01 1.077220e+01 1.133928e+01 1.166156e+01 1.208918e+01 1.245427e+01 1.272922e+01 1.314206e+01 1.325210e+01 1.371747e+01 1.365187e+01 1.417359e+01 1.392381e+01 1.450397e+01 1.406430e+01 1.470249e+01 1.407074e+01 1.476347e+01 1.394146e+01 1.468176e+01 1.367573e+01 1.445307e+01 1.327384e+01 1.407432e+01 1.273725e+01 1.354408e+01 1.206878e+01 1.286311e+01 1.127292e+01 1.203484e+01 1.035610e+01 1.106582e+01 9.327074e+00 9.966092e+00 8.197180e+00 8.749375e+00 6.980546e+00 7.433104e+00 5.694153e+00 6.038180e+00 4.357687e+00 4.588475e+00 2.993133e+00 3.110055e+00 1.624095e+00 1.630161e+00 2.748404e-01 1.759969e-01 -1.030835e+00 -1.226560e+00 -2.270819e+00 -2.554202e+00 -3.425818e+00 -3.787235e+00 -4.480251e+00 -4.910321e+00 -5.422834e+00 -5.912852e+00 -6.246774e+00 -6.788944e+00 -6.949624e+00 -7.537118e+00 -7.532842e+00 -8.159725e+00 -8.001156e+00 -8.662224e+00 -8.361812e+00 -9.052391e+00 