# vtk DataFile Version 2.0
Comment goes here
ASCII

DATASET STRUCTURED_POINTS
FIELD FieldData 1
TIME 1 1 double
0.13000000
DIMENSIONS    128   128   1

ORIGIN    0.000   0.000   0.000
SPACING   0.039062 0.039062   1.000

POINT_DATA   16384
SCALARS P double
LOOKUP_TABLE default

-8.099055e+00 -9.100942e+00 -8.166364e+00 -8.989304e+00 -8.043824e+00 -8.682094e+00 -7.738097e+00 -8.187468e+00 -7.257660e+00 -7.515367e+00 -6.612568e+00 -6.677288e+00 -5.814205e+00 -5.686039e+00 -4.875052e+00 -4.555496e+00 -3.808431e+00 -3.300356e+00 -2.628267e+00 -1.935880e+00 -1.348838e+00 -4.776517e-01 1.545456e-02 1.058664e+00 1.450308e+00 2.657545e+00 2.941714e+00 4.303805e+00 4.476126e+00 5.982760e+00 6.040579e+00 7.680344e+00 7.622776e+00 9.383187e+00 9.211117e+00 1.107864e+01 1.079469e+01 1.275478e+01 1.236322e+01 1.440030e+01 1.390698e+01 1.600453e+01 1.541669e+01 1.755724e+01 1.688341e+01 1.904862e+01 1.829839e+01 2.046914e+01 1.965301e+01 2.180952e+01 2.093865e+01 2.306064e+01 2.214666e+01 2.421354e+01 2.326827e+01 2.525938e+01 2.429465e+01 2.618951e+01 2.521683e+01 2.699544e+01 2.602583e+01 2.766894e+01 2.671266e+01 2.820211e+01 2.726846e+01 2.858746e+01 2.768459e+01 2.881799e+01 2.795281e+01 2.888739e+01 2.806545e+01 2.879010e+01 2.801564e+01 2.852156e+01 2.779752e+01 2.807840e+01 2.740657e+01 2.745867e+01 2.683985e+01 2.666211e+01 2.609636e+01 2.569039e+01 2.517729e+01 2.454743e+01 2.408637e+01 2.323963e+01 2.283006e+01 2.177609e+01 2.141776e+01 2.016874e+01 1.986195e+01 1.843241e+01 1.817812e+01 1.658481e+01 1.638471e+01 1.464634e+01 1.450283e+01 1.263981e+01 1.255593e+01 1.059000e+01 1.056925e+01 8.523194e+00 8.569278e+00 6.466493e+00 6.583095e+00 4.447211e+00 4.637670e+00 2.492182e+00 2.759204e+00 6.271129e-01 9.725004e-01 -1.124005e+00 -6.995835e-01 -2.739389e+00 -2.236581e+00 -4.199862e+00 -3.620749e+00 -5.489120e+00 -4.837281e+00 -6.593907e+00 -5.874419e+00 -7.504068e+00 -6.723461e+00 -8.212532e+00 -7.378697e+00 -8.715214e+00 -7.837279e+00 -9.010875e+00 
-6.975701e+00 -8.068554e+00 -7.148691e+00 -8.061413e+00 -7.125677e+00 -7.852085e+00 -6.912650e+00 -7.448126e+00 -6.517599e+00 -6.859059e+00 -5.950256e+00 -6.096121e+00 -5.221829e+00 -5.171993e+00 -4.344735e+00 -4.100532e+00 -3.332335e+00 -2.896503e+00 -2.198659e+00 -1.575303e+00 -9.581486e-01 -1.526931e-01 3.746026e-01 1.355458e+00 1.785082e+00 2.933412e+00 3.259068e+00 4.565771e+00 4.782811e+00 6.237648e+00 6.343160e+00 7.934798e+00 7.927652e+00 9.643693e+00 9.524549e+00 1.135155e+01 1.112283e+01 1.304632e+01 1.271211e+01 1.471663e+01 1.428261e+01 1.635170e+01 1.582498e+01 1.794125e+01 1.733022e+01 1.947539e+01 1.878954e+01 2.094454e+01 2.019425e+01 2.233933e+01 2.153570e+01 2.365058e+01 2.280513e+01 2.486920e+01 2.399370e+01 2.598624e+01 2.509243e+01 2.699288e+01 2.609220e+01 2.788043e+01 2.698381e+01 2.864041e+01 2.775798e+01 2.926460e+01 2.840549e+01 2.974509e+01 2.891727e+01 3.007439e+01 2.928452e+01 3.024554e+01 2.949887e+01 3.025225e+01 2.955264e+01 3.008907e+01 2.943901e+01 2.975158e+01 2.915232e+01 2.923661e+01 2.868838e+01 2.854255e+01 2.804474e+01 2.766957e+01 2.722107e+01 2.661999e+01 2.621941e+01 2.539849e+01 2.504454e+01 2.401244e+01 2.370414e+01 2.247206e+01 2.220900e+01 2.079056e+01 2.057309e+01 1.898417e+01 1.881348e+01 1.707205e+01 1.695022e+01 1.507607e+01 1.500597e+01 1.302044e+01 1.300560e+01 1.093123e+01 1.097562e+01 8.835778e+00 8.943549e+00 6.762056e+00 6.937207e+00 4.737945e+00 4.984025e+00 2.790556e+00 3.110355e+00 9.455807e-01 1.340858e+00 -7.732833e-01 -3.020222e-01 -2.344805e+00 -1.798475e+00 -3.750577e+00 -3.131617e+00 -4.975259e+00 -4.287668e+00 -6.006705e+00 -5.256029e+00 -6.835994e+00 -6.029257e+00 -7.457380e+00 -6.602972e+00 -7.868169e+00 
-8.199376e+00 -9.204928e+00 -8.264467e+00 -9.090279e+00 -8.138619e+00 -8.778986e+00 -7.828617e+00 -8.279320e+00 -7.343060e+00 -7.601350e+00 -6.692128e+00 -6.756698e+00 -5.887337e+00 -5.758301e+00 -4.941295e+00 -4.620170e+00 -3.867459e+00 -3.357133e+00 -2.679881e+00 -1.984585e+00 -1.392968e+00 -5.182383e-01 -2.123840e-02 1.026123e+00 1.420898e+00 2.632869e+00 2.919342e+00 4.286725e+00 4.460476e+00 5.972937e+00 6.031287e+00 7.677397e+00 7.619455e+00 9.386713e+00 9.213380e+00 1.108824e+01 1.080217e+01 1.277007e+01 1.237560e+01 1.442096e+01 1.392398e+01 1.603024e+01 1.543809e+01 1.758777e+01 1.690906e+01 1.908376e+01 1.832819e+01 2.050874e+01 1.968691e+01 2.185346e+01 2.097665e+01 2.310881e+01 2.218877e+01 2.426586e+01 2.331454e+01 2.531576e+01 2.434511e+01 2.624985e+01 2.527152e+01 2.705963e+01 2.608475e+01 2.773685e+01 2.677580e+01 2.827356e+01 2.733572e+01 2.866223e+01 2.775582e+01 2.889581e+01 2.802778e+01 2.896789e+01 2.814381e+01 2.887285e+01 2.809691e+01 2.860601e+01 2.788110e+01 2.816389e+01 2.749169e+01 2.754441e+01 2.692561e+01 2.674714e+01 2.618168e+01 2.577365e+01 2.526096e+01 2.462771e+01 2.416703e+01 2.331561e+01 2.290626e+01 2.184636e+01 2.148801e+01 2.023185e+01 1.992472e+01 1.848695e+01 1.823195e+01 1.662942e+01 1.642824e+01 1.467981e+01 1.453489e+01 1.266110e+01 1.257556e+01 1.059834e+01 1.057578e+01 8.518095e+00 8.562364e+00 6.447787e+00 6.562706e+00 4.415061e+00 4.604112e+00 2.447071e+00 2.713097e+00 5.698191e-01 9.147431e-01 -1.192444e+00 -7.678575e-01 -2.817727e+00 -2.314056e+00 -4.286695e+00 -3.705982e+00 -5.582945e+00 -4.928756e+00 -6.693167e+00 -5.970593e+00 -7.607200e+00 -6.822809e+00 -8.318002e+00 -7.479740e+00 -8.821549e+00 -7.938616e+00 -9.116684e+00 
-7.181638e+00 -8.282361e+00 -7.351061e+00 -8.269988e+00 -7.322100e+00 -8.053083e+00 -7.101003e+00 -7.639460e+00 -6.696029e+00 -7.038913e+00 -6.117183e+00 -6.262954e+00 -5.375957e+00 -5.324547e+00 -4.485052e+00 -4.237839e+00 -3.458113e+00 -3.017884e+00 -2.309452e+00 -1.680364e+00 -1.053780e+00 -2.413146e-01 2.940531e-01 1.283139e+00 1.719308e+00 2.877033e+00 3.207570e+00 4.524780e+00 4.744939e+00 6.211351e+00 6.318165e+00 7.922408e+00 7.914734e+00 9.644380e+00 9.522912e+00 1.136449e+01 1.113172e+01 1.307075e+01 1.273086e+01 1.475184e+01 1.431065e+01 1.639710e+01 1.586188e+01 1.799634e+01 1.737566e+01 1.953978e+01 1.884333e+01 2.101791e+01 2.025631e+01 2.242146e+01 2.160602e+01 2.374128e+01 2.288378e+01 2.496832e+01 2.408079e+01 2.609364e+01 2.518808e+01 2.710841e+01 2.619653e+01 2.800392e+01 2.709689e+01 2.877166e+01 2.787984e+01 2.940334e+01 2.853606e+01 2.989098e+01 2.905635e+01 3.022699e+01 2.943174e+01 3.040428e+01 2.965369e+01 3.041639e+01 2.971426e+01 3.025767e+01 2.960637e+01 2.992346e+01 2.932406e+01 2.941034e+01 2.886282e+01 2.871639e+01 2.821987e+01 2.784148e+01 2.739453e+01 2.678763e+01 2.638858e+01 2.555926e+01 2.520652e+01 2.416351e+01 2.385586e+01 2.261046e+01 2.234731e+01 2.091327e+01 2.069486e+01 1.908826e+01 1.891575e+01 1.715478e+01 1.703029e+01 1.513503e+01 1.506156e+01 1.305367e+01 1.303497e+01 1.093734e+01 1.097763e+01 8.814011e+00 8.917744e+00 6.712338e+00 6.883826e+00 4.660889e+00 4.903988e+00 2.687431e+00 3.005210e+00 8.182460e-01 1.212702e+00 -9.224676e-01 -4.506474e-01 -2.513084e+00 -1.964693e+00 -3.934916e+00 -3.312330e+00 -5.172452e+00 -4.479670e+00 -6.213480e+00 -5.456100e+00 -7.049101e+00 -6.234243e+00 -7.673661e+00 -6.809852e+00 -8.084619e+00 
-8.501615e+00 -9.518143e+00 -8.559931e+00 -9.394344e+00 -8.424038e+00 -9.070674e+00 -8.101081e+00 -8.555767e+00 -7.600032e+00 -7.860060e+00 -6.931452e+00 -6.995555e+00 -6.107242e+00 -5.975583e+00 -5.140405e+00 -4.814550e+00 -4.044791e+00 -3.527689e+00 -2.834847e+00 -2.130797e+00 -1.525362e+00 -6.399751e-01 -1.312136e-01 9.286285e-01 1.332862e+00 2.559059e+00 2.852490e+00 4.235769e+00 4.413836e+00 5.943799e+00 6.003745e+00 7.668907e+00 7.609826e+00 9.397641e+00 9.220483e+00 1.111737e+01 1.082489e+01 1.281625e+01 1.241295e+01 1.448315e+01 1.397513e+01 1.610757e+01 1.550240e+01 1.767949e+01 1.698605e+01 1.918929e+01 1.841758e+01 2.062762e+01 1.978856e+01 2.198532e+01 2.109055e+01 2.325337e+01 2.231500e+01 2.442285e+01 2.345323e+01 2.548494e+01 2.449640e+01 2.643094e+01 2.543552e+01 2.725230e+01 2.626151e+01 2.794070e+01 2.696524e+01 2.848808e+01 2.753761e+01 2.888676e+01 2.796972e+01 2.912954e+01 2.825298e+01 2.920978e+01 2.837928e+01 2.912160e+01 2.834127e+01 2.886000e+01 2.813253e+01 2.842113e+01 2.774793e+01 2.780250e+01 2.718391e+01 2.700328e+01 2.643882e+01 2.602459e+01 2.551325e+01 2.486981e+01 2.441041e+01 2.354487e+01 2.313634e+01 2.205853e+01 2.170021e+01 2.042257e+01 2.011444e+01 1.865187e+01 1.839473e+01 1.676443e+01 1.655995e+01 1.478116e+01 1.463194e+01 1.272568e+01 1.263505e+01 1.062377e+01 1.059567e+01 8.502887e+00 8.541569e+00 6.391430e+00 6.501152e+00 4.318048e+00 4.502737e+00 2.310875e+00 2.573793e+00 3.968177e-01 7.402532e-01 -1.399091e+00 -9.740805e-01 -3.054227e+00 -2.548011e+00 -4.548787e+00 -3.963286e+00 -5.866062e+00 -5.204810e+00 -6.992595e+00 -6.260729e+00 -7.918211e+00 -7.122412e+00 -8.635967e+00 -7.784353e+00 -9.142025e+00 -8.244012e+00 -9.435477e+00 
-7.596274e+00 -8.712700e+00 -7.758314e+00 -8.689612e+00 -7.717194e+00 -8.457287e+00 -7.479682e+00 -8.024062e+00 -7.054578e+00 -7.400271e+00 -6.452444e+00 -6.597982e+00 -5.685332e+00 -5.630728e+00 -4.766518e+00 -4.513236e+00 -3.710218e+00 -3.261142e+00 -2.531314e+00 -1.890706e+00 -1.245066e+00 -4.185223e-01 1.331592e-01 1.138764e+00 1.588157e+00 2.764725e+00 3.105120e+00 4.443391e+00 4.669843e+00 6.159442e+00 6.268870e+00 7.898353e+00 7.889595e+00 9.646474e+00 9.520285e+00 1.139105e+01 1.115006e+01 1.312019e+01 1.276881e+01 1.482276e+01 1.436708e+01 1.648829e+01 1.593589e+01 1.810681e+01 1.746664e+01 1.966875e+01 1.895090e+01 2.116480e+01 2.038032e+01 2.258580e+01 2.174649e+01 2.392273e+01 2.304086e+01 2.516659e+01 2.425472e+01 2.630847e+01 2.537914e+01 2.733953e+01 2.640498e+01 2.825101e+01 2.732292e+01 2.903432e+01 2.812352e+01 2.968106e+01 2.879728e+01 3.018310e+01 2.933475e+01 3.053266e+01 2.972664e+01 3.072239e+01 2.996401e+01 3.074550e+01 3.003846e+01 3.059594e+01 2.994236e+01 3.026858e+01 2.966914e+01 2.975944e+01 2.921362e+01 2.906601e+01 2.857236e+01 2.818754e+01 2.774400e+01 2.712542e+01 2.672970e+01 2.588352e+01 2.553344e+01 2.446850e+01 2.416235e+01 2.289015e+01 2.262694e+01 2.116152e+01 2.094126e+01 1.929905e+01 1.912283e+01 1.732251e+01 1.719255e+01 1.525475e+01 1.517435e+01 1.312137e+01 1.309468e+01 1.095016e+01 1.098195e+01 8.770392e+00 8.865735e+00 6.612126e+00 6.775981e+00 4.505342e+00 4.742197e+00 2.479151e+00 2.792651e+00 5.610430e-01 9.536702e-01 -1.223766e+00 -7.509521e-01 -2.852854e+00 -2.300400e+00 -4.306974e+00 -3.677138e+00 -5.570283e+00 -4.867067e+00 -6.630449e+00 -5.859560e+00 -7.478631e+00 -6.647394e+00 -8.109382e+00 -7.226603e+00 -8.520476e+00 
-9.009602e+00 -1.004436e+01 -9.056228e+00 -9.904917e+00 -8.903178e+00 -9.560209e+00 -8.558205e+00 -9.019477e+00 -8.030906e+00 -8.293776e+00 -7.332474e+00 -7.395745e+00 -6.475459e+00 -6.339365e+00 -5.473520e+00 -5.139712e+00 -4.341172e+00 -3.812698e+00 -3.093525e+00 -2.374800e+00 -1.746018e+00 -8.427814e-01 -3.141453e-01 7.665866e-01 1.186802e+00 2.436792e+00 2.741973e+00 4.151821e+00 4.337168e+00 5.896363e+00 5.958985e+00 7.655948e+00 7.594916e+00 9.417034e+00 9.233382e+00 1.116702e+01 1.086369e+01 1.289419e+01 1.247595e+01 1.458763e+01 1.406093e+01 1.623710e+01 1.560991e+01 1.783285e+01 1.711451e+01 1.936551e+01 1.856654e+01 2.082597e+01 1.995782e+01 2.220524e+01 2.128013e+01 2.349440e+01 2.252507e+01 2.468460e+01 2.368405e+01 2.576703e+01 2.474824e+01 2.673293e+01 2.570863e+01 2.757368e+01 2.655600e+01 2.828083e+01 2.728104e+01 2.884615e+01 2.787441e+01 2.926174e+01 2.832683e+01 2.952009e+01 2.862927e+01 2.961423e+01 2.877313e+01 2.953782e+01 2.875039e+01 2.928535e+01 2.855395e+01 2.885234e+01 2.817789e+01 2.823562e+01 2.761784e+01 2.743363e+01 2.687131e+01 2.644672e+01 2.593811e+01 2.527757e+01 2.482073e+01 2.393151e+01 2.352468e+01 2.241682e+01 2.205878e+01 2.074505e+01 2.043537e+01 1.893111e+01 1.867037e+01 1.699333e+01 1.678323e+01 1.495333e+01 1.479666e+01 1.283570e+01 1.273622e+01 1.066755e+01 1.062977e+01 8.477847e+00 8.506728e+00 6.296687e+00 6.397252e+00 4.154452e+00 4.331404e+00 2.080969e+00 2.338297e+00 1.046941e-01 4.453186e-01 -1.748000e+00 -1.322518e+00 -3.453416e+00 -2.943093e+00 -4.990966e+00 -4.397526e+00 -6.343450e+00 -5.670377e+00 -7.497179e+00 -6.749698e+00 -8.441984e+00 -7.626978e+00 -9.171114e+00 -8.297000e+00 -9.681065e+00 -8.757633e+00 -9.971373e+00 
-8.225166e+00 -9.365047e+00 -8.375498e+00 -9.325246e+00 -8.315469e+00 -9.069123e+00 -8.052643e+00 -8.605804e+00 -7.596638e+00 -7.946441e+00 -6.958853e+00 -7.103937e+00 -6.152192e+00 -6.092684e+00 -5.190793e+00 -4.928283e+00 -4.089741e+00 -3.627258e+00 -2.864785e+00 -2.206752e+00 -1.532029e+00 -6.842193e-01 -1.076370e-01 9.228904e-01 1.392465e+00 2.597432e+00 2.952859e+00 4.322837e+00 4.558865e+00 6.083337e+00 6.196717e+00 7.864128e+00 7.853664e+00 9.651449e+00 9.518001e+00 1.143260e+01 1.117902e+01 1.319586e+01 1.282690e+01 1.493039e+01 1.445255e+01 1.662605e+01 1.604742e+01 1.827323e+01 1.760331e+01 1.986270e+01 1.911219e+01 2.138542e+01 2.056604e+01 2.283248e+01 2.195673e+01 2.419499e+01 2.327592e+01 2.546406e+01 2.451501e+01 2.663080e+01 2.566514e+01 2.768634e+01 2.671714e+01 2.862186e+01 2.766161e+01 2.942866e+01 2.848892e+01 3.009819e+01 2.918930e+01 3.062210e+01 2.975294e+01 3.099231e+01 3.017008e+01 3.120111e+01 3.043118e+01 3.124124e+01 3.052713e+01 3.110602e+01 3.044948e+01 3.078961e+01 3.019071e+01 3.028719e+01 2.974464e+01 2.959531e+01 2.910673e+01 2.871225e+01 2.827461e+01 2.763842e+01 2.724842e+01 2.637677e+01 2.603131e+01 2.493322e+01 2.462978e+01 2.331703e+01 2.305402e+01 2.154105e+01 2.131809e+01 1.962188e+01 1.943995e+01 1.757988e+01 1.744139e+01 1.543895e+01 1.534760e+01 1.322610e+01 1.318675e+01 1.097092e+01 1.098920e+01 8.704743e+00 8.786692e+00 6.459825e+00 6.611437e+00 4.268357e+00 4.495123e+00 2.161555e+00 2.468025e+00 1.687851e-01 5.581990e-01 -1.683165e+00 -1.209174e+00 -3.370663e+00 -2.812268e+00 -4.873627e+00 -4.232916e+00 -6.175742e+00 -5.456736e+00 -7.264532e+00 -6.473123e+00 -8.131286e+00 -7.275127e+00 -8.770909e+00 -7.859244e+00 -9.181690e+00 
-9.729759e+00 -1.078992e+01 -9.759170e+00 -1.062772e+01 -9.581221e+00 -1.025269e+01 -9.204530e+00 -9.674912e+00 -8.639572e+00 -8.906313e+00 -7.898428e+00 -7.960419e+00 -6.994555e+00 -6.852125e+00 -5.942537e+00 -5.597451e+00 -4.757830e+00 -4.213273e+00 -3.456494e+00 -2.717044e+00 -2.054902e+00 -1.126484e+00 -5.694411e-01 5.407273e-01 9.837834e-01 2.267263e+00 2.589228e+00 4.036428e+00 4.232151e+00 5.832398e+00 5.898797e+00 7.640384e+00 7.576503e+00 9.446723e+00 9.253725e+00 1.123888e+01 1.091998e+01 1.300537e+01 1.256573e+01 1.473561e+01 1.418219e+01 1.641977e+01 1.576112e+01 1.804853e+01 1.729463e+01 1.961290e+01 1.877498e+01 2.110410e+01 2.019439e+01 2.251339e+01 2.154493e+01 2.383202e+01 2.281843e+01 2.505123e+01 2.400643e+01 2.616218e+01 2.510012e+01 2.715607e+01 2.609044e+01 2.802415e+01 2.696801e+01 2.875779e+01 2.772327e+01 2.934854e+01 2.834651e+01 2.978820e+01 2.882798e+01 3.006888e+01 2.915805e+01 3.018310e+01 2.932735e+01 3.012393e+01 2.932699e+01 2.988509e+01 2.914886e+01 2.946125e+01 2.878591e+01 2.884823e+01 2.823256e+01 2.804337e+01 2.748510e+01 2.704593e+01 2.654217e+01 2.585750e+01 2.540518e+01 2.448247e+01 2.407880e+01 2.292839e+01 2.257130e+01 2.120640e+01 2.089484e+01 1.933140e+01 1.906564e+01 1.732218e+01 1.710391e+01 1.520132e+01 1.503366e+01 1.299488e+01 1.288220e+01 1.073184e+01 1.067954e+01 8.443452e+00 8.457545e+00 6.162289e+00 6.248956e+00 3.921305e+00 4.086411e+00 1.752820e+00 2.001437e+00 -3.124299e-01 2.355103e-02 -2.246129e+00 -1.820490e+00 -4.023040e+00 -3.507255e+00 -5.621479e+00 -5.017000e+00 -7.023577e+00 -6.333840e+00 -8.215377e+00 -7.445754e+00 -9.186772e+00 -8.344459e+00 -9.931340e+00 -9.025201e+00 -1.044611e+01 -9.486480e+00 -1.073127e+01 
-9.076721e+00 -1.024767e+01 -9.210232e+00 -1.018438e+01 -9.123721e+00 -9.895262e+00 -8.825838e+00 -9.390523e+00 -8.327307e+00 -8.682406e+00 -7.640647e+00 -7.784934e+00 -6.779901e+00 -6.713645e+00 -5.760365e+00 -5.485321e+00 -4.598302e+00 -4.117686e+00 -3.310639e+00 -2.629097e+00 -1.914645e+00 -1.038195e+00 -4.275906e-01 6.364468e-01 1.133588e+00 2.376676e+00 2.752614e+00 4.165087e+00 4.414145e+00 5.985288e+00 6.103984e+00 7.822093e+00 7.809197e+00 9.661612e+00 9.518139e+00 1.149125e+01 1.122038e+01 1.329958e+01 1.290654e+01 1.507621e+01 1.456808e+01 1.681151e+01 1.619706e+01 1.849641e+01 1.778587e+01 2.012213e+01 1.932705e+01 2.168008e+01 2.081305e+01 2.316164e+01 2.223611e+01 2.455812e+01 2.358818e+01 2.586074e+01 2.486083e+01 2.706065e+01 2.604527e+01 2.814894e+01 2.713231e+01 2.911670e+01 2.811242e+01 2.995508e+01 2.897577e+01 3.065533e+01 2.971222e+01 3.120885e+01 3.031151e+01 3.160721e+01 3.076325e+01 3.184221e+01 3.105711e+01 3.190596e+01 3.118304e+01 3.179100e+01 3.113144e+01 3.149049e+01 3.089351e+01 3.099846e+01 3.046165e+01 3.031015e+01 2.982983e+01 2.942245e+01 2.899417e+01 2.833435e+01 2.795339e+01 2.704748e+01 2.670939e+01 2.556662e+01 2.526773e+01 2.390023e+01 2.363805e+01 2.206079e+01 2.183439e+01 2.006506e+01 1.987527e+01 1.793418e+01 1.778362e+01 1.569343e+01 1.558647e+01 1.337185e+01 1.331431e+01 1.100155e+01 1.100031e+01 8.616785e+00 8.679300e+00 6.252925e+00 6.386678e+00 3.945311e+00 4.157227e+00 1.728128e+00 2.024050e+00 -3.666206e-01 1.761343e-02 -2.309974e+00 -1.835000e+00 -4.076656e+00 -3.510615e+00 -5.645485e+00 -4.990255e+00 -6.999572e+00 -6.259229e+00 -8.126320e+00 -7.307047e+00 -9.017282e+00 -8.127208e+00 -9.667915e+00 -8.716910e+00 -1.007727e+01 
-1.067115e+01 -1.176371e+01 -1.067693e+01 -1.157080e+01 -1.046545e+01 -1.115528e+01 -1.004644e+01 -1.052835e+01 -9.431497e+00 -9.703040e+00 -8.633859e+00 -8.694018e+00 -7.668139e+00 -7.517353e+00 -6.550116e+00 -6.190283e+00 -5.296475e+00 -4.730954e+00 -3.924526e+00 -3.158109e+00 -2.451891e+00 -1.490758e+00 -8.961658e-01 2.521896e-01 7.254362e-01 2.052292e+00 2.396419e+00 3.891921e+00 4.101304e+00 5.754555e+00 5.825859e+00 7.624983e+00 7.557224e+00 9.489408e+00 9.283938e+00 1.133543e+01 1.099585e+01 1.315192e+01 1.268393e+01 1.492882e+01 1.434006e+01 1.665690e+01 1.595668e+01 1.832743e+01 1.752661e+01 1.993202e+01 1.904272e+01 2.146232e+01 2.049776e+01 2.290993e+01 2.188423e+01 2.426632e+01 2.319424e+01 2.552279e+01 2.441947e+01 2.667052e+01 2.555120e+01 2.770060e+01 2.658026e+01 2.860412e+01 2.749711e+01 2.937224e+01 2.829185e+01 2.999622e+01 2.895434e+01 3.046751e+01 2.947423e+01 3.077775e+01 2.984111e+01 3.091887e+01 3.004464e+01 3.088315e+01 3.007480e+01 3.066336e+01 2.992212e+01 3.025300e+01 2.957804e+01 2.964655e+01 2.903535e+01 2.883985e+01 2.828866e+01 2.783063e+01 2.733495e+01 2.661894e+01 2.617412e+01 2.520779e+01 2.480959e+01 2.360366e+01 2.324879e+01 2.181701e+01 2.150356e+01 1.986265e+01 1.959042e+01 1.775990e+01 1.753057e+01 1.553258e+01 1.534973e+01 1.320871e+01 1.307759e+01 1.081987e+01 1.074713e+01 8.400407e+00 8.393565e+00 5.986353e+00 6.053215e+00 3.614213e+00 3.762273e+00 1.319745e+00 1.555586e+00 -8.631977e-01 -5.344369e-01 -2.903670e+00 -2.478704e+00 -4.774399e+00 -4.252074e+00 -6.452289e+00 -5.833726e+00 -7.918675e+00 -7.207281e+00 -9.159340e+00 -8.360729e+00 -1.016437e+01 -9.286197e+00 -1.092789e+01 -9.979637e+00 -1.144769e+01 -1.044046e+01 -1.172493e+01 
-1.016227e+01 -1.137171e+01 -1.027275e+01 -1.127706e+01 -1.015106e+01 -1.094465e+01 -9.807246e+00 -1.038604e+01 -9.253417e+00 -9.614847e+00 -8.503499e+00 -8.646490e+00 -7.572961e+00 -7.497943e+00 -6.478553e+00 -6.187470e+00 -5.238032e+00 -4.734334e+00 -3.869844e+00 -3.158458e+00 -2.392772e+00 -1.480045e+00 -8.255535e-01 2.808418e-01 8.135316e-01 2.104703e+00 2.507053e+00 3.973010e+00 4.238781e+00 5.868541e+00 5.993950e+00 7.775621e+00 7.759411e+00 9.680231e+00 9.523641e+00 1.156997e+01 1.127663e+01 1.343389e+01 1.300966e+01 1.526225e+01 1.471499e+01 1.704617e+01 1.638552e+01 1.877733e+01 1.801449e+01 2.044764e+01 1.959518e+01 2.204904e+01 2.112066e+01 2.357332e+01 2.258367e+01 2.501204e+01 2.397650e+01 2.635655e+01 2.529095e+01 2.759798e+01 2.651831e+01 2.872737e+01 2.764938e+01 2.973569e+01 2.867449e+01 3.061393e+01 2.958354e+01 3.135312e+01 3.036601e+01 3.194436e+01 3.101105e+01 3.237885e+01 3.150753e+01 3.264781e+01 3.184417e+01 3.274262e+01 3.200968e+01 3.265483e+01 3.199304e+01 3.237634e+01 3.178377e+01 3.189968e+01 3.137239e+01 3.121835e+01 3.075089e+01 3.032736e+01 2.991333e+01 2.922375e+01 2.885647e+01 2.790728e+01 2.758045e+01 2.638113e+01 2.608947e+01 2.465252e+01 2.439232e+01 2.273330e+01 2.250286e+01 2.064033e+01 2.044025e+01 1.839568e+01 1.822890e+01 1.602644e+01 1.589820e+01 1.356432e+01 1.348179e+01 1.104481e+01 1.101660e+01 8.506111e+00 8.541657e+00 5.987853e+00 6.096679e+00 3.529636e+00 3.720639e+00 1.169652e+00 1.450427e+00 -1.056581e+00 -6.802996e-01 -3.117251e+00 -2.641997e+00 -4.984983e+00 -4.409805e+00 -6.637263e+00 -5.963811e+00 -8.056581e+00 -7.289063e+00 -9.230331e+00 -8.375361e+00 -1.015054e+01 -9.216921e+00 -1.081352e+01 -9.811964e+00 -1.121939e+01 
-1.184552e+01 -1.297730e+01 -1.182010e+01 -1.274455e+01 -1.156527e+01 -1.227724e+01 -1.109216e+01 -1.158790e+01 -1.041375e+01 -1.069091e+01 -9.544649e+00 -9.602303e+00 -8.500884e+00 -8.339575e+00 -7.299694e+00 -6.921466e+00 -5.959286e+00 -5.367700e+00 -4.498549e+00 -3.698668e+00 -2.936708e+00 -1.935045e+00 -1.292933e+00 -9.735549e-02 4.140966e-01 1.794481e+00 2.166619e+00 3.721596e+00 3.948177e+00 5.666549e+00 5.743912e+00 7.613594e+00 7.540736e+00 9.548801e+00 9.327347e+00 1.146002e+01 1.109409e+01 1.333667e+01 1.283271e+01 1.516948e+01 1.453598e+01 1.695008e+01 1.619736e+01 1.867062e+01 1.781057e+01 2.032346e+01 1.936934e+01 2.190087e+01 2.086711e+01 2.339489e+01 2.229690e+01 2.479722e+01 2.365118e+01 2.609925e+01 2.492184e+01 2.729210e+01 2.610019e+01 2.836673e+01 2.717700e+01 2.931402e+01 2.814250e+01 3.012488e+01 2.898646e+01 3.079026e+01 2.969818e+01 3.130121e+01 3.026664e+01 3.164887e+01 3.068049e+01 3.182449e+01 3.092823e+01 3.181942e+01 3.099840e+01 3.162527e+01 3.087984e+01 3.123405e+01 3.056205e+01 3.063853e+01 3.003568e+01 2.983259e+01 2.929310e+01 2.881183e+01 2.832905e+01 2.757425e+01 2.714135e+01 2.612090e+01 2.573166e+01 2.445668e+01 2.410615e+01 2.259102e+01 2.227608e+01 2.053840e+01 2.025822e+01 1.831872e+01 1.807497e+01 1.595734e+01 1.575420e+01 1.348478e+01 1.332875e+01 1.093606e+01 1.083548e+01 8.349678e+00 8.314111e+00 5.766263e+00 5.805764e+00 3.227092e+00 3.351382e+00 7.725194e-01 9.902179e-01 -1.559483e+00 -1.241526e+00 -3.734550e+00 -3.311762e+00 -5.722833e+00 -5.193233e+00 -7.499535e+00 -6.863870e+00 -9.045121e+00 -8.306837e+00 -1.034523e+01 -9.510317e+00 -1.139037e+01 -1.046714e+01 -1.217550e+01 -1.117429e+01 -1.269958e+01 -1.163246e+01 -1.296502e+01 
-1.149615e+01 -1.275123e+01 -1.157596e+01 -1.261595e+01 -1.140896e+01 -1.222853e+01 -1.100689e+01 -1.160219e+01 -1.038355e+01 -1.075218e+01 -9.554540e+00 -9.695564e+00 -8.537031e+00 -8.451035e+00 -7.349516e+00 -7.038648e+00 -6.011568e+00 -5.479549e+00 -4.543518e+00 -3.795625e+00 -2.966067e+00 -2.009069e+00 -1.299837e+00 -1.418780e-01 4.351357e-01 1.784681e+00 2.219901e+00 3.750599e+00 4.037062e+00 5.737573e+00 5.871122e+00 7.729322e+00 7.708686e+00 9.711712e+00 9.538460e+00 1.167270e+01 1.135108e+01 1.360206e+01 1.313877e+01 1.549102e+01 1.489492e+01 1.733178e+01 1.661362e+01 1.911708e+01 1.828922e+01 2.083974e+01 1.991598e+01 2.249241e+01 2.148777e+01 2.406739e+01 2.299794e+01 2.555650e+01 2.443920e+01 2.695119e+01 2.580359e+01 2.824257e+01 2.708251e+01 2.942153e+01 2.826674e+01 3.047891e+01 2.934646e+01 3.140551e+01 3.031129e+01 3.219215e+01 3.115028e+01 3.282965e+01 3.185196e+01 3.330880e+01 3.240433e+01 3.362027e+01 3.279497e+01 3.375459e+01 3.301115e+01 3.370214e+01 3.304007e+01 3.345332e+01 3.286916e+01 3.299875e+01 3.248655e+01 3.232971e+01 3.188163e+01 3.143871e+01 3.104576e+01 3.032018e+01 2.997305e+01 2.897134e+01 2.866124e+01 2.739306e+01 2.711255e+01 2.559078e+01 2.533448e+01 2.357531e+01 2.334046e+01 2.136345e+01 2.115030e+01 1.897828e+01 1.879022e+01 1.644916e+01 1.629259e+01 1.381121e+01 1.369514e+01 1.110439e+01 1.103979e+01 8.372141e+00 8.371114e+00 5.659725e+00 5.734569e+00 3.012408e+00 3.174664e+00 4.736627e-01 7.332482e-01 -1.916427e+00 -1.551922e+00 -4.122428e+00 -3.648230e+00 -6.114399e+00 -5.528819e+00 -7.868313e+00 -7.172797e+00 -9.366091e+00 -8.565110e+00 -1.059535e+01 -9.696160e+00 -1.154896e+01 -1.056128e+01 -1.222445e+01 -1.116013e+01 -1.262348e+01 
-1.326736e+01 -1.444489e+01 -1.320168e+01 -1.416177e+01 -1.289223e+01 -1.362996e+01 -1.235181e+01 -1.286356e+01 -1.159502e+01 -1.187850e+01 -1.063805e+01 -1.069240e+01 -9.498564e+00 -9.324410e+00 -8.195512e+00 -7.795028e+00 -6.748922e+00 -6.125895e+00 -5.179616e+00 -4.339439e+00 -3.508835e+00 -2.458448e+00 -1.757763e+00 -5.055380e-01 5.300975e-02 1.497438e+00 1.904052e+00 3.529977e+00 3.777612e+00 5.573437e+00 5.658027e+00 7.611401e+00 7.531950e+00 9.629837e+00 9.388360e+00 1.161701e+01 1.121836e+01 1.356322e+01 1.301478e+01 1.546031e+01 1.477171e+01 1.730117e+01 1.648393e+01 1.907915e+01 1.814645e+01 2.078766e+01 1.975409e+01 2.241977e+01 2.130115e+01 2.396803e+01 2.278129e+01 2.542440e+01 2.418740e+01 2.678031e+01 2.551159e+01 2.802676e+01 2.674524e+01 2.915450e+01 2.787901e+01 3.015414e+01 2.890292e+01 3.101632e+01 2.980632e+01 3.173167e+01 3.057800e+01 3.229086e+01 3.120611e+01 3.268452e+01 3.167829e+01 3.290316e+01 3.198167e+01 3.293715e+01 3.210308e+01 3.277670e+01 3.202928e+01 3.241207e+01 3.174735e+01 3.183381e+01 3.124521e+01 3.103330e+01 3.051232e+01 3.000337e+01 2.954044e+01 2.873917e+01 2.832458e+01 2.723908e+01 2.686394e+01 2.550572e+01 2.516283e+01 2.354692e+01 2.323153e+01 2.137650e+01 2.108691e+01 1.901488e+01 1.875271e+01 1.648924e+01 1.625950e+01 1.383326e+01 1.364409e+01 1.108638e+01 1.094844e+01 8.292543e+00 8.218201e+00 5.498474e+00 5.500813e+00 2.751761e+00 2.843495e+00 9.880349e-02 2.912606e-01 -2.417071e+00 -2.114812e+00 -4.757151e+00 -4.338890e+00 -6.888427e+00 -6.351199e+00 -8.784158e+00 -8.128340e+00 -1.042398e+01 -9.653180e+00 -1.179363e+01 -1.091444e+01 -1.288443e+01 -1.190608e+01 -1.369267e+01 -1.262662e+01 -1.421887e+01 -1.307849e+01 -1.446720e+01 
-1.309578e+01 -1.440325e+01 -1.313547e+01 -1.421633e+01 -1.291122e+01 -1.376048e+01 -1.243683e+01 -1.305086e+01 -1.172805e+01 -1.210458e+01 -1.080240e+01 -1.094061e+01 -9.678970e+00 -9.579569e+00 -8.378284e+00 -8.043609e+00 -6.922055e+00 -6.356121e+00 -5.332891e+00 -4.541398e+00 -3.633878e+00 -2.624136e+00 -1.848033e+00 -6.288205e-01 2.322548e-03 1.420976e+00 1.896247e+00 3.503300e+00 3.814804e+00 5.598437e+00 5.741559e+00 7.689352e+00 7.662849e+00 9.761858e+00 9.567778e+00 1.180450e+01 1.144795e+01 1.380817e+01 1.329696e+01 1.576552e+01 1.510978e+01 1.767029e+01 1.688213e+01 1.951667e+01 1.860984e+01 2.129872e+01 2.028843e+01 2.301000e+01 2.191275e+01 2.464336e+01 2.347687e+01 2.619091e+01 2.497395e+01 2.764411e+01 2.639630e+01 2.899395e+01 2.773543e+01 3.023112e+01 2.898209e+01 3.134625e+01 3.012631e+01 3.232993e+01 3.115745e+01 3.317281e+01 3.206412e+01 3.386551e+01 3.283419e+01 3.439849e+01 3.345475e+01 3.476187e+01 3.391211e+01 3.494533e+01 3.419186e+01 3.493797e+01 3.427908e+01 3.472838e+01 3.415865e+01 3.430487e+01 3.381570e+01 3.365592e+01 3.323634e+01 3.277080e+01 3.240839e+01 3.164049e+01 3.132245e+01 3.025873e+01 2.997298e+01 2.862321e+01 2.835942e+01 2.673679e+01 2.648731e+01 2.460860e+01 2.436925e+01 2.225502e+01 2.202559e+01 1.970024e+01 1.948465e+01 1.697632e+01 1.678253e+01 1.412273e+01 1.396220e+01 1.118520e+01 1.107208e+01 8.214049e+00 8.164044e+00 5.261990e+00 5.291118e+00 2.381744e+00 2.505065e+00 -3.763247e-01 -1.458519e-01 -2.966281e+00 -2.618699e+00 -5.348189e+00 -4.877128e+00 -7.489080e+00 -6.892031e+00 -9.363327e+00 -8.641628e+00 -1.095250e+01 -1.011111e+01 -1.224488e+01 -1.129197e+01 -1.323467e+01 -1.218126e+01 -1.392126e+01 -1.278066e+01 -1.430834e+01 
-1.495393e+01 -1.618336e+01 -1.483708e+01 -1.583760e+01 -1.445999e+01 -1.522691e+01 -1.383738e+01 -1.436719e+01 -1.298564e+01 -1.327607e+01 -1.192273e+01 -1.197290e+01 -1.066812e+01 -1.047865e+01 -9.242680e+00 -8.815847e+00 -7.668557e+00 -7.008374e+00 -5.968893e+00 -5.081149e+00 -4.167421e+00 -3.059612e+00 -2.287899e+00 -9.690717e-01 -3.534030e-01 1.166081e+00 1.614427e+00 3.323179e+00 3.596125e+00 5.481999e+00 5.574979e+00 7.625286e+00 7.537354e+00 9.738965e+00 9.472707e+00 1.181201e+01 1.137326e+01 1.383602e+01 1.323346e+01 1.580450e+01 1.504919e+01 1.771213e+01 1.681710e+01 1.955395e+01 1.853385e+01 2.132475e+01 2.019566e+01 2.301861e+01 2.179791e+01 2.462867e+01 2.333500e+01 2.614712e+01 2.480026e+01 2.756534e+01 2.618603e+01 2.887407e+01 2.748373e+01 3.006373e+01 2.868391e+01 3.112461e+01 2.977634e+01 3.204701e+01 3.075002e+01 3.282129e+01 3.159314e+01 3.343782e+01 3.229309e+01 3.388680e+01 3.283635e+01 3.415806e+01 3.320856e+01 3.424093e+01 3.339456e+01 3.412408e+01 3.337863e+01 3.379567e+01 3.314488e+01 3.324358e+01 3.267783e+01 3.245595e+01 3.196317e+01 3.142203e+01 3.098880e+01 3.013315e+01 2.974593e+01 2.858400e+01 2.823032e+01 2.677397e+01 2.644363e+01 2.470847e+01 2.439451e+01 2.240011e+01 2.209962e+01 1.986961e+01 1.958414e+01 1.714621e+01 1.688187e+01 1.426753e+01 1.403464e+01 1.127866e+01 1.109102e+01 8.230637e+00 8.104405e+00 5.178230e+00 5.130574e+00 2.177344e+00 2.224991e+00 -7.176938e-01 -5.598377e-01 -3.456640e+00 -3.176625e+00 -5.995330e+00 -5.584947e+00 -8.296982e+00 -7.752149e+00 -1.033276e+01 -9.653560e+00 -1.208168e+01 -1.127213e+01 -1.353008e+01 -1.259767e+01 -1.467070e+01 -1.362597e+01 -1.550180e+01 -1.435772e+01 -1.602614e+01 -1.479770e+01 -1.625018e+01 