# vtk DataFile Version 2.0
Comment goes here
ASCII

DATASET STRUCTURED_POINTS
FIELD FieldData 1
TIME 1 1 double
0.24000000
DIMENSIONS    128   128   1

ORIGIN    0.000   0.000   0.000
SPACING   0.039062 0.039062   1.000

POINT_DATA   16384
SCALARS P double
LOOKUP_TABLE default

4.766596e+00 4.395015e+00 4.502074e+00 4.157203e+00 4.251675e+00 3.935779e+00 4.017469e+00 3.732463e+00 3.801054e+00 3.548513e+00 3.603554e+00 3.384731e+00 3.425629e+00 3.241469e+00 3.267495e+00 3.118651e+00 3.128947e+00 3.015801e+00 3.009400e+00 2.932084e+00 2.907937e+00 2.866358e+00 2.823375e+00 2.817242e+00 2.754340e+00 2.783190e+00 2.699352e+00 2.762585e+00 2.656923e+00 2.753828e+00 2.625654e+00 2.755435e+00 2.604333e+00 2.766131e+00 2.592026e+00 2.784931e+00 2.588156e+00 2.811210e+00 2.592556e+00 2.844745e+00 2.605507e+00 2.885737e+00 2.627742e+00 2.934809e+00 2.660421e+00 2.992967e+00 2.705079e+00 3.061541e+00 2.763547e+00 3.142102e+00 2.837842e+00 3.236349e+00 2.930049e+00 3.345996e+00 3.042172e+00 3.472638e+00 3.176001e+00 3.617616e+00 3.332955e+00 3.781895e+00 3.513953e+00 3.965943e+00 3.719291e+00 4.169635e+00 3.948538e+00 4.392177e+00 4.200471e+00 4.632053e+00 4.473032e+00 4.887015e+00 4.763327e+00 5.154095e+00 5.067662e+00 5.429649e+00 5.381610e+00 5.709443e+00 5.700123e+00 5.988759e+00 6.017668e+00 6.262532e+00 6.328391e+00 6.525500e+00 6.626303e+00 6.772381e+00 6.905472e+00 6.998042e+00 7.160224e+00 7.197679e+00 7.385335e+00 7.366979e+00 7.576202e+00 7.502272e+00 7.729000e+00 7.600651e+00 7.840799e+00 7.660067e+00 7.909645e+00 7.679385e+00 7.934607e+00 7.658407e+00 7.915773e+00 7.597852e+00 7.854216e+00 7.499305e+00 7.751915e+00 7.365137e+00 7.611657e+00 7.198399e+00 7.436910e+00 7.002702e+00 7.231680e+00 6.782083e+00 7.000373e+00 6.540875e+00 6.747647e+00 6.283576e+00 6.478277e+00 6.014731e+00 6.197029e+00 5.738819e+00 5.908555e+00 5.460164e+00 5.617297e+00 5.182852e+00 5.327410e+00 4.910667e+00 5.042705e+00 4.647043e+00 
4.632774e+00 4.254744e+00 4.368601e+00 4.017069e+00 4.117876e+00 3.795140e+00 3.882668e+00 3.590674e+00 3.664576e+00 3.404933e+00 3.464733e+00 3.238723e+00 3.283813e+00 3.092412e+00 3.122049e+00 2.965940e+00 2.979261e+00 2.858857e+00 2.854893e+00 2.770358e+00 2.748067e+00 2.699341e+00 2.657645e+00 2.644471e+00 2.582306e+00 2.604261e+00 2.520634e+00 2.577159e+00 2.471213e+00 2.561643e+00 2.432727e+00 2.556316e+00 2.404055e+00 2.559997e+00 2.384363e+00 2.571804e+00 2.373177e+00 2.591217e+00 2.370439e+00 2.618121e+00 2.376537e+00 2.652822e+00 2.392308e+00 2.696042e+00 2.419008e+00 2.748876e+00 2.458259e+00 2.812732e+00 2.511963e+00 2.889237e+00 2.582193e+00 2.980134e+00 2.671070e+00 3.087158e+00 2.780618e+00 3.211902e+00 2.912622e+00 3.355693e+00 3.068484e+00 3.519460e+00 3.249089e+00 3.703623e+00 3.454681e+00 3.907998e+00 3.684777e+00 4.131725e+00 3.938090e+00 4.373223e+00 4.212499e+00 4.630180e+00 4.505051e+00 4.899570e+00 4.811997e+00 5.177702e+00 5.128864e+00 5.460305e+00 5.450570e+00 5.742636e+00 5.771558e+00 6.019618e+00 6.085960e+00 6.285988e+00 6.387781e+00 6.536468e+00 6.671094e+00 6.765939e+00 6.930229e+00 6.969607e+00 7.159968e+00 7.143170e+00 7.355711e+00 7.282964e+00 7.513629e+00 7.386079e+00 7.630780e+00 7.450452e+00 7.705188e+00 7.474924e+00 7.735886e+00 7.459261e+00 7.722917e+00 7.404135e+00 7.667297e+00 7.311077e+00 7.570941e+00 7.182395e+00 7.436567e+00 7.021073e+00 7.267565e+00 6.830653e+00 7.067871e+00 6.615102e+00 6.841814e+00 6.378686e+00 6.593984e+00 6.125840e+00 6.329090e+00 5.861047e+00 6.051844e+00 5.588735e+00 5.766844e+00 5.313181e+00 5.478490e+00 5.038431e+00 5.190904e+00 4.768235e+00 4.907866e+00 4.506000e+00 
4.760400e+00 4.387482e+00 4.494568e+00 4.148547e+00 4.243104e+00 3.926241e+00 4.008085e+00 3.722288e+00 3.791108e+00 3.537948e+00 3.593295e+00 3.374014e+00 3.415296e+00 3.230830e+00 3.257310e+00 3.108302e+00 3.119111e+00 3.005929e+00 3.000083e+00 2.922846e+00 2.899274e+00 2.857872e+00 2.815459e+00 2.809584e+00 2.747216e+00 2.776390e+00 2.693015e+00 2.756621e+00 2.651317e+00 2.748630e+00 2.620671e+00 2.750887e+00 2.599824e+00 2.762077e+00 2.587804e+00 2.781184e+00 2.584006e+00 2.807561e+00 2.588251e+00 2.840977e+00 2.600818e+00 2.881640e+00 2.622454e+00 2.930191e+00 2.654348e+00 2.987667e+00 2.698076e+00 3.055444e+00 2.755522e+00 3.135143e+00 2.828768e+00 3.228526e+00 2.919963e+00 3.337370e+00 3.031189e+00 3.463336e+00 3.164303e+00 3.607829e+00 3.320796e+00 3.771872e+00 3.501645e+00 3.955981e+00 3.707195e+00 4.160070e+00 3.937053e+00 4.383366e+00 4.190012e+00 4.624364e+00 4.464018e+00 4.880809e+00 4.756158e+00 5.149707e+00 5.062703e+00 5.427375e+00 5.379173e+00 5.709526e+00 5.700451e+00 5.991374e+00 6.020922e+00 6.267776e+00 6.334641e+00 6.533388e+00 6.635520e+00 6.782838e+00 6.917530e+00 7.010907e+00 7.174901e+00 7.212707e+00 7.402321e+00 7.383853e+00 7.595113e+00 7.520612e+00 7.749390e+00 7.620030e+00 7.862181e+00 7.680030e+00 7.931511e+00 7.699466e+00 7.956447e+00 7.678147e+00 7.937096e+00 7.616817e+00 7.874564e+00 7.517099e+00 7.770883e+00 7.381416e+00 7.628900e+00 7.212878e+00 7.452149e+00 7.015159e+00 7.244710e+00 6.792361e+00 7.011058e+00 6.548883e+00 6.755918e+00 6.289281e+00 6.484128e+00 6.018155e+00 6.200511e+00 5.740033e+00 5.909764e+00 5.459281e+00 5.616372e+00 5.180019e+00 5.324522e+00 4.906062e+00 5.038053e+00 4.640864e+00 
4.621043e+00 4.240307e+00 4.354258e+00 4.000394e+00 4.101406e+00 3.776705e+00 3.864568e+00 3.570964e+00 3.645346e+00 3.384433e+00 3.444864e+00 3.217909e+00 3.263777e+00 3.071735e+00 3.102286e+00 2.945818e+00 2.960165e+00 2.839658e+00 2.836799e+00 2.752388e+00 2.731237e+00 2.682829e+00 2.642256e+00 2.629559e+00 2.568438e+00 2.590998e+00 2.508267e+00 2.565492e+00 2.460224e+00 2.551422e+00 2.422895e+00 2.547300e+00 2.395072e+00 2.551867e+00 2.375848e+00 2.564181e+00 2.364699e+00 2.583683e+00 2.361543e+00 2.610244e+00 2.366769e+00 2.644188e+00 2.381245e+00 2.686276e+00 2.406289e+00 2.737672e+00 2.443608e+00 2.799872e+00 2.495214e+00 2.874613e+00 2.563307e+00 2.963761e+00 2.650145e+00 3.069177e+00 2.757898e+00 3.192589e+00 2.888494e+00 3.335445e+00 3.043468e+00 3.498788e+00 3.223822e+00 3.683132e+00 3.429897e+00 3.888363e+00 3.661275e+00 4.113666e+00 3.916704e+00 4.357472e+00 4.194063e+00 4.617451e+00 4.490359e+00 4.890526e+00 4.801770e+00 5.172924e+00 5.123717e+00 5.460265e+00 5.450977e+00 5.747673e+00 5.777830e+00 6.029915e+00 6.098227e+00 6.301565e+00 6.405981e+00 6.557173e+00 6.694970e+00 6.791445e+00 6.959337e+00 6.999430e+00 7.193692e+00 7.176680e+00 7.393288e+00 7.319409e+00 7.554177e+00 7.424616e+00 7.673335e+00 7.490181e+00 7.748745e+00 7.514924e+00 7.779437e+00 7.498625e+00 7.765488e+00 7.442004e+00 7.707984e+00 7.346667e+00 7.608939e+00 7.215022e+00 7.471187e+00 7.050168e+00 7.298255e+00 6.855774e+00 7.094214e+00 6.635934e+00 6.863536e+00 6.395041e+00 6.610943e+00 6.137647e+00 6.341267e+00 5.868346e+00 6.059330e+00 5.591660e+00 5.769828e+00 5.311951e+00 5.477240e+00 5.033334e+00 5.185756e+00 4.759619e+00 4.899211e+00 4.494258e+00 
4.741561e+00 4.364636e+00 4.471788e+00 4.122323e+00 4.217124e+00 3.897366e+00 3.979663e+00 3.691504e+00 3.761007e+00 3.505995e+00 3.562264e+00 3.341619e+00 3.384057e+00 3.198686e+00 3.226539e+00 3.077051e+00 3.089415e+00 2.976140e+00 2.971982e+00 2.894995e+00 2.873179e+00 2.832323e+00 2.791653e+00 2.786569e+00 2.725838e+00 2.755996e+00 2.674049e+00 2.738786e+00 2.634591e+00 2.733140e+00 2.605864e+00 2.737388e+00 2.586475e+00 2.750092e+00 2.575341e+00 2.770140e+00 2.571776e+00 2.796820e+00 2.575555e+00 2.829878e+00 2.586957e+00 2.869536e+00 2.606770e+00 2.916492e+00 2.636268e+00 2.971881e+00 2.677155e+00 3.037211e+00 2.731475e+00 3.114266e+00 2.801500e+00 3.204992e+00 2.889592e+00 3.311363e+00 2.998052e+00 3.435239e+00 3.128958e+00 3.578221e+00 3.284005e+00 3.741506e+00 3.464359e+00 3.925761e+00 3.670512e+00 4.131014e+00 3.902181e+00 4.356565e+00 4.158219e+00 4.600938e+00 4.436575e+00 4.861853e+00 4.734287e+00 5.136246e+00 5.047515e+00 5.420313e+00 5.371619e+00 5.709601e+00 5.701274e+00 5.999121e+00 6.030613e+00 6.283496e+00 6.353415e+00 6.557124e+00 6.663295e+00 6.814368e+00 6.953923e+00 7.049742e+00 7.219239e+00 7.258107e+00 7.453662e+00 7.434851e+00 7.652286e+00 7.576053e+00 7.811042e+00 7.678618e+00 7.926831e+00 7.740381e+00 7.997614e+00 7.760162e+00 8.022453e+00 7.737796e+00 8.001512e+00 7.674099e+00 7.936009e+00 7.570819e+00 7.828126e+00 7.430531e+00 7.680898e+00 7.256528e+00 7.498067e+00 7.052677e+00 7.283928e+00 6.823281e+00 7.043171e+00 6.572930e+00 6.780728e+00 6.306364e+00 6.501623e+00 6.028347e+00 6.210846e+00 5.743553e+00 5.913241e+00 5.456472e+00 5.613412e+00 5.171332e+00 5.315647e+00 4.892032e+00 5.023864e+00 4.622096e+00 
4.597088e+00 4.210944e+00 4.325056e+00 3.966538e+00 4.067938e+00 3.739316e+00 3.827837e+00 3.531024e+00 3.606362e+00 3.342924e+00 3.404621e+00 3.175793e+00 3.223231e+00 3.029930e+00 3.062332e+00 2.905173e+00 2.921605e+00 2.800923e+00 2.800318e+00 2.716187e+00 2.697371e+00 2.649632e+00 2.611367e+00 2.599661e+00 2.540695e+00 2.564496e+00 2.483631e+00 2.542282e+00 2.438445e+00 2.531197e+00 2.403519e+00 2.529566e+00 2.377466e+00 2.535968e+00 2.359230e+00 2.549334e+00 2.348182e+00 2.569028e+00 2.344187e+00 2.594893e+00 2.347639e+00 2.627282e+00 2.359469e+00 2.667041e+00 2.381116e+00 2.715471e+00 2.414465e+00 2.774252e+00 2.461749e+00 2.845345e+00 2.525429e+00 2.930864e+00 2.608047e+00 3.032939e+00 2.712068e+00 3.153561e+00 2.839715e+00 3.294436e+00 2.992796e+00 3.456837e+00 3.172555e+00 3.641473e+00 3.379529e+00 3.848374e+00 3.613438e+00 4.076816e+00 3.873100e+00 4.325258e+00 4.156395e+00 4.591331e+00 4.460254e+00 4.871856e+00 4.780703e+00 5.162895e+00 5.112945e+00 5.459845e+00 5.451476e+00 5.757557e+00 5.790240e+00 6.050488e+00 6.122819e+00 6.332870e+00 6.442633e+00 6.598901e+00 6.743162e+00 6.842940e+00 7.018164e+00 7.059702e+00 7.261899e+00 7.244444e+00 7.469315e+00 7.393132e+00 7.636226e+00 7.502580e+00 7.759441e+00 7.570550e+00 7.836857e+00 7.595821e+00 7.867500e+00 7.578202e+00 7.851522e+00 7.518513e+00 7.790153e+00 7.418517e+00 7.685608e+00 7.280829e+00 7.540968e+00 7.108786e+00 7.360032e+00 6.906313e+00 7.147159e+00 6.677769e+00 6.907103e+00 6.427800e+00 6.644859e+00 6.161202e+00 6.365508e+00 5.882786e+00 6.074093e+00 5.597270e+00 5.775503e+00 5.309178e+00 5.474380e+00 5.022769e+00 5.175045e+00 4.741966e+00 4.881441e+00 4.470315e+00 
4.709326e+00 4.325732e+00 4.432947e+00 4.077756e+00 4.172928e+00 3.848364e+00 3.931392e+00 3.639317e+00 3.709947e+00 3.451877e+00 3.509685e+00 3.286799e+00 3.331184e+00 3.144342e+00 3.174520e+00 3.024276e+00 3.039287e+00 2.925908e+00 2.924636e+00 2.848122e+00 2.829322e+00 2.789434e+00 2.751773e+00 2.748066e+00 2.690178e+00 2.722033e+00 2.642587e+00 2.709257e+00 2.607034e+00 2.707679e+00 2.581657e+00 2.715385e+00 2.564827e+00 2.730722e+00 2.555263e+00 2.752410e+00 2.552137e+00 2.779627e+00 2.555145e+00 2.812071e+00 2.564561e+00 2.849992e+00 2.581244e+00 2.894186e+00 2.606612e+00 2.945953e+00 2.642585e+00 3.007027e+00 2.691486e+00 3.079474e+00 2.755914e+00 3.165554e+00 2.838592e+00 3.267583e+00 2.942200e+00 3.387766e+00 3.069196e+00 3.528035e+00 3.221633e+00 3.689893e+00 3.400994e+00 3.874264e+00 3.608034e+00 4.081376e+00 3.842656e+00 4.310658e+00 4.103820e+00 4.560679e+00 4.389484e+00 4.829125e+00 4.696600e+00 5.112808e+00 5.021145e+00 5.407720e+00 5.358205e+00 5.709129e+00 5.702095e+00 6.011696e+00 6.046524e+00 6.309641e+00 6.384791e+00 6.596926e+00 6.710005e+00 6.867453e+00 7.015317e+00 7.115280e+00 7.294169e+00 7.334835e+00 7.540520e+00 7.521117e+00 7.749065e+00 7.669880e+00 7.915424e+00 7.777787e+00 8.036281e+00 7.842521e+00 8.109486e+00 7.862850e+00 8.134100e+00 7.838652e+00 8.110387e+00 7.770878e+00 8.039758e+00 7.661485e+00 7.924665e+00 7.513321e+00 7.768464e+00 7.329991e+00 7.575256e+00 7.115699e+00 7.349710e+00 6.875089e+00 7.096885e+00 6.613080e+00 6.822058e+00 6.334721e+00 6.530573e+00 6.045055e+00 6.227701e+00 5.748999e+00 5.918527e+00 5.451252e+00 5.607857e+00 5.156215e+00 5.300143e+00 4.867930e+00 4.999433e+00 4.590036e+00 
4.559913e+00 4.165670e+00 4.279953e+00 3.914472e+00 4.016401e+00 3.681925e+00 3.771396e+00 3.469804e+00 3.546558e+00 3.279374e+00 3.342975e+00 3.111386e+00 3.161210e+00 2.966077e+00 3.001311e+00 2.843182e+00 2.862827e+00 2.741957e+00 2.744846e+00 2.661218e+00 2.646042e+00 2.599396e+00 2.564751e+00 2.554620e+00 2.499061e+00 2.524808e+00 2.446924e+00 2.507788e+00 2.406278e+00 2.501418e+00 2.375188e+00 2.503729e+00 2.351978e+00 2.513041e+00 2.335358e+00 2.528089e+00 2.324532e+00 2.548107e+00 2.319277e+00 2.572896e+00 2.319991e+00 2.602851e+00 2.327703e+00 2.638948e+00 2.344041e+00 2.682704e+00 2.371161e+00 2.736085e+00 2.411644e+00 2.801398e+00 2.468353e+00 2.881149e+00 2.544276e+00 2.977881e+00 2.642341e+00 3.094004e+00 2.765225e+00 3.231624e+00 2.915169e+00 3.392375e+00 3.093795e+00 3.577268e+00 3.301947e+00 3.786564e+00 3.539563e+00 4.019680e+00 3.805577e+00 4.275121e+00 4.097870e+00 4.550463e+00 4.413258e+00 4.842368e+00 4.747539e+00 5.146646e+00 5.095573e+00 5.458348e+00 5.451422e+00 5.771903e+00 5.808514e+00 6.081286e+00 6.159854e+00 6.380201e+00 6.498250e+00 6.662301e+00 6.816563e+00 6.921399e+00 7.107954e+00 7.151693e+00 7.366133e+00 7.347979e+00 7.585576e+00 7.505837e+00 7.761724e+00 7.621788e+00 7.891129e+00 7.693418e+00 7.971557e+00 7.719439e+00 8.002032e+00 7.699715e+00 7.982829e+00 7.635224e+00 7.915408e+00 7.527984e+00 7.802306e+00 7.380932e+00 7.646991e+00 7.197783e+00 7.453692e+00 6.982863e+00 7.227214e+00 6.740939e+00 6.972752e+00 6.477055e+00 6.695716e+00 6.196374e+00 6.401571e+00 5.904041e+00 6.095696e+00 5.605066e+00 5.783269e+00 5.304222e+00 5.469171e+00 5.005976e+00 5.157923e+00 4.714422e+00 4.853622e+00 4.433241e+00 
4.662418e+00 4.269508e+00 4.376713e+00 4.013536e+00 4.109151e+00 3.777895e+00 3.861896e+00 3.564385e+00 3.636569e+00 3.374272e+00 3.434243e+00 3.208285e+00 3.255437e+00 3.066613e+00 3.100124e+00 2.948913e+00 2.967748e+00 2.854326e+00 2.857253e+00 2.781516e+00 2.767132e+00 2.728722e+00 2.695499e+00 2.693844e+00 2.640185e+00 2.674536e+00 2.598853e+00 2.668335e+00 2.569136e+00 2.672798e+00 2.548785e+00 2.685645e+00 2.535816e+00 2.704908e+00 2.528654e+00 2.729051e+00 2.526254e+00 2.757086e+00 2.528196e+00 2.788642e+00 2.534738e+00 2.824001e+00 2.546840e+00 2.864102e+00 2.566132e+00 2.910487e+00 2.594848e+00 2.965224e+00 2.635714e+00 3.030785e+00 2.691809e+00 3.109898e+00 2.766387e+00 3.205375e+00 2.862684e+00 3.319928e+00 2.983715e+00 3.455983e+00 3.132060e+00 3.615487e+00 3.309672e+00 3.799749e+00 3.517693e+00 4.009289e+00 3.756309e+00 4.243727e+00 4.024634e+00 4.501707e+00 4.320650e+00 4.780864e+00 4.641185e+00 5.077836e+00 4.981955e+00 5.388323e+00 5.337647e+00 5.707180e+00 5.702055e+00 6.028568e+00 6.068271e+00 6.346120e+00 6.428894e+00 6.653157e+00 6.776288e+00 6.942911e+00 7.102850e+00 7.208771e+00 7.401286e+00 7.444527e+00 7.664881e+00 7.644608e+00 7.887749e+00 7.804291e+00 8.065049e+00 7.919883e+00 8.193150e+00 7.988847e+00 8.269747e+00 8.009881e+00 8.293904e+00 7.982930e+00 8.266042e+00 7.909153e+00 8.187864e+00 7.790823e+00 8.062223e+00 7.631196e+00 7.892960e+00 7.434339e+00 7.684706e+00 7.204954e+00 7.442675e+00 6.948179e+00 7.172463e+00 6.669416e+00 6.879851e+00 6.374155e+00 6.570637e+00 6.067833e+00 6.250490e+00 5.755714e+00 5.924833e+00 5.442785e+00 5.598750e+00 5.133688e+00 5.276918e+00 4.832659e+00 4.963562e+00 4.543492e+00 
4.507989e+00 4.102975e+00 4.217353e+00 3.842629e+00 3.945159e+00 3.602928e+00 3.693596e+00 3.385692e+00 3.464302e+00 3.192196e+00 3.258344e+00 3.023163e+00 3.076223e+00 2.878753e+00 2.917869e+00 2.758570e+00 2.782657e+00 2.661679e+00 2.669436e+00 2.586638e+00 2.576575e+00 2.531557e+00 2.502041e+00 2.494182e+00 2.443500e+00 2.472006e+00 2.398447e+00 2.462403e+00 2.364350e+00 2.462783e+00 2.338820e+00 2.470748e+00 2.319768e+00 2.484253e+00 2.305565e+00 2.501742e+00 2.295172e+00 2.522267e+00 2.288237e+00 2.545562e+00 2.285160e+00 2.572078e+00 2.287100e+00 2.602974e+00 2.295948e+00 2.640065e+00 2.314240e+00 2.685721e+00 2.345041e+00 2.742739e+00 2.391785e+00 2.814173e+00 2.458082e+00 2.903149e+00 2.547510e+00 3.012668e+00 2.663394e+00 3.145401e+00 2.808581e+00 3.303491e+00 2.985230e+00 3.488380e+00 3.194622e+00 3.700656e+00 3.437009e+00 3.939936e+00 3.711491e+00 4.204795e+00 4.015958e+00 4.492736e+00 4.347072e+00 4.800206e+00 4.700312e+00 5.122660e+00 5.070071e+00 5.454676e+00 5.449802e+00 5.790095e+00 5.832211e+00 6.122217e+00 6.209499e+00 6.444014e+00 6.573616e+00 6.748370e+00 6.916554e+00 7.028332e+00 7.230634e+00 7.277375e+00 7.508791e+00 7.489640e+00 7.744839e+00 7.660162e+00 7.933693e+00 7.785057e+00 8.071547e+00 7.861660e+00 8.155990e+00 7.888599e+00 8.186055e+00 7.865822e+00 8.162196e+00 7.794541e+00 8.086213e+00 7.677141e+00 7.961105e+00 7.517027e+00 7.790896e+00 7.318448e+00 7.580425e+00 7.086300e+00 7.335124e+00 6.825922e+00 7.060804e+00 6.542908e+00 6.763453e+00 6.242929e+00 6.449055e+00 5.931581e+00 6.123445e+00 5.614266e+00 5.792183e+00 5.296089e+00 5.460473e+00 4.981786e+00 5.133086e+00 4.675675e+00 4.814325e+00 4.381614e+00 
4.599010e+00 4.194162e+00 4.301183e+00 3.927790e+00 4.023841e+00 3.684047e+00 3.769206e+00 3.464782e+00 3.538921e+00 3.271279e+00 3.334040e+00 3.104240e+00 3.155018e+00 2.963777e+00 3.001707e+00 2.849408e+00 2.873362e+00 2.760065e+00 2.768662e+00 2.694126e+00 2.685758e+00 2.649468e+00 2.622345e+00 2.623553e+00 2.575770e+00 2.613545e+00 2.543166e+00 2.616453e+00 2.521613e+00 2.629300e+00 2.508323e+00 2.649301e+00 2.500819e+00 2.674040e+00 2.497112e+00 2.701629e+00 2.495853e+00 2.730841e+00 2.496450e+00 2.761203e+00 2.499138e+00 2.793042e+00 2.505008e+00 2.827484e+00 2.515970e+00 2.866402e+00 2.534685e+00 2.912316e+00 2.564429e+00 2.968257e+00 2.608932e+00 3.037586e+00 2.672172e+00 3.123800e+00 2.758147e+00 3.230305e+00 2.870635e+00 3.360198e+00 3.012940e+00 3.516045e+00 3.187663e+00 3.699679e+00 3.396482e+00 3.912027e+00 3.639973e+00 4.152974e+00 3.917475e+00 4.421272e+00 4.227006e+00 4.714494e+00 4.565238e+00 5.029049e+00 4.927536e+00 5.360240e+00 5.308053e+00 5.702379e+00 5.699883e+00 6.048943e+00 6.095275e+00 6.392777e+00 6.485884e+00 6.726329e+00 6.863061e+00 7.041921e+00 7.218168e+00 7.332026e+00 7.542909e+00 7.589564e+00 7.829644e+00 7.808177e+00 8.071691e+00 7.982492e+00 8.263581e+00 8.108327e+00 8.401258e+00 8.182850e+00 8.482208e+00 8.204667e+00 8.505514e+00 8.173836e+00 8.471829e+00 8.091808e+00 8.383270e+00 7.961308e+00 8.243260e+00 7.786160e+00 8.056311e+00 7.571079e+00 7.827788e+00 7.321444e+00 7.563655e+00 7.043073e+00 7.270231e+00 6.742010e+00 6.953973e+00 6.424335e+00 6.621278e+00 6.096005e+00 6.278334e+00 5.762725e+00 5.930995e+00 5.429854e+00 5.584696e+00 5.102332e+00 5.244394e+00 4.784639e+00 4.914531e+00 4.480759e+00 
4.439228e+00 4.020797e+00 4.135078e+00 3.748864e+00 3.851975e+00 3.500131e+00 3.592177e+00 3.276478e+00 3.357348e+00 3.079205e+00 3.148544e+00 2.909010e+00 2.966198e+00 2.765973e+00 2.810108e+00 2.649547e+00 2.679441e+00 2.558561e+00 2.572746e+00 2.491249e+00 2.488002e+00 2.445304e+00 2.422698e+00 2.417971e+00 2.373939e+00 2.406174e+00 2.338607e+00 2.406677e+00 2.313535e+00 2.416273e+00 2.295710e+00 2.431985e+00 2.282479e+00 2.451259e+00 2.271746e+00 2.472143e+00 2.262132e+00 2.493434e+00 2.253106e+00 2.514766e+00 2.245059e+00 2.536663e+00 2.239320e+00 2.560527e+00 2.238123e+00 2.588568e+00 2.244511e+00 2.623697e+00 2.262193e+00 2.669361e+00 2.295360e+00 2.729351e+00 2.348456e+00 2.807577e+00 2.425930e+00 2.907829e+00 2.531973e+00 3.033536e+00 2.670250e+00 3.187530e+00 2.843643e+00 3.371831e+00 3.054029e+00 3.587467e+00 3.302083e+00 3.834334e+00 3.587140e+00 4.111104e+00 3.907110e+00 4.415188e+00 4.258461e+00 4.742754e+00 4.636259e+00 5.088800e+00 5.034278e+00 5.447273e+00 5.445170e+00 5.811247e+00 5.860690e+00 6.173130e+00 6.271966e+00 6.524919e+00 6.669810e+00 6.858478e+00 7.045052e+00 7.165835e+00 7.388888e+00 7.439490e+00 7.693220e+00 7.672708e+00 7.950969e+00 7.859794e+00 8.156351e+00 7.996319e+00 8.305087e+00 8.079286e+00 8.394538e+00 8.107224e+00 8.423760e+00 8.080203e+00 8.393474e+00 7.999773e+00 8.305948e+00 7.868826e+00 8.164826e+00 7.691410e+00 7.974890e+00 7.472505e+00 7.741803e+00 7.217770e+00 7.471842e+00 6.933310e+00 7.171631e+00 6.625439e+00 6.847913e+00 6.300487e+00 6.507342e+00 5.964628e+00 6.156329e+00 5.623756e+00 5.800915e+00 5.283383e+00 5.446689e+00 4.948579e+00 5.098732e+00 4.623923e+00 4.761584e+00 4.313483e+00 
4.516685e+00 4.097311e+00 4.203840e+00 3.818046e+00 3.914418e+00 3.564287e+00 3.650713e+00 3.337954e+00 3.414403e+00 3.140363e+00 3.206537e+00 2.972203e+00 3.027509e+00 2.833510e+00 2.877039e+00 2.723647e+00 2.754164e+00 2.641302e+00 2.657246e+00 2.584500e+00 2.584010e+00 2.550661e+00 2.531616e+00 2.536686e+00 2.496780e+00 2.539091e+00 2.475934e+00 2.554187e+00 2.465424e+00 2.578281e+00 2.461736e+00 2.607905e+00 2.461726e+00 2.640037e+00 2.462842e+00 2.672309e+00 2.463320e+00 2.703168e+00 2.462329e+00 2.731999e+00 2.460063e+00 2.759179e+00 2.457774e+00 2.786079e+00 2.457739e+00 2.815000e+00 2.463169e+00 2.849060e+00 2.478062e+00 2.892019e+00 2.506999e+00 2.948076e+00 2.554911e+00 3.021628e+00 2.626799e+00 3.116998e+00 2.727447e+00 3.238174e+00 2.861122e+00 3.388538e+00 3.031284e+00 3.570621e+00 3.240327e+00 3.785894e+00 3.489354e+00 4.034597e+00 3.778010e+00 4.315630e+00 4.104375e+00 4.626499e+00 4.464929e+00 4.963321e+00 4.854590e+00 5.320894e+00 5.266822e+00 5.692823e+00 5.693813e+00 6.071707e+00 6.126717e+00 6.449362e+00 6.555952e+00 6.817103e+00 6.971541e+00 7.166054e+00 7.363490e+00 7.487485e+00 7.722176e+00 7.773163e+00 8.038740e+00 8.015693e+00 8.305444e+00 8.208833e+00 8.515994e+00 8.347758e+00 8.665776e+00 8.429253e+00 8.752017e+00 8.451818e+00 8.773844e+00 8.415675e+00 8.732238e+00 8.322692e+00 8.629895e+00 8.176214e+00 8.471013e+00 7.980838e+00 8.261016e+00 7.742147e+00 8.006248e+00 7.466422e+00 7.713661e+00 7.160371e+00 7.390521e+00 6.830869e+00 7.044147e+00 6.484745e+00 6.681695e+00 6.128601e+00 6.309991e+00 5.768687e+00 5.935412e+00 5.410803e+00 5.563809e+00 5.060245e+00 5.200461e+00 4.721769e+00 4.850056e+00 4.399577e+00 
4.350933e+00 3.916482e+00 4.030320e+00 3.630419e+00 3.733968e+00 3.370704e+00 3.464218e+00 3.139300e+00 3.222782e+00 2.937553e+00 3.010720e+00 2.766156e+00 2.828409e+00 2.625117e+00 2.675512e+00 2.513726e+00 2.550960e+00 2.430545e+00 2.452953e+00 2.373416e+00 2.378992e+00 2.339515e+00 2.325959e+00 2.325447e+00 2.290242e+00 2.327395e+00 2.267919e+00 2.341320e+00 2.254981e+00 2.363197e+00 2.247585e+00 2.389267e+00 2.242321e+00 2.416297e+00 2.236460e+00 2.441800e+00 2.228167e+00 2.464223e+00 2.216660e+00 2.483065e+00 2.202306e+00 2.498938e+00 2.186648e+00 2.513550e+00 2.172360e+00 2.529631e+00 2.163134e+00 2.550787e+00 2.163515e+00 2.581316e+00 2.178671e+00 2.625964e+00 2.214129e+00 2.689662e+00 2.275474e+00 2.777234e+00 2.368026e+00 2.893097e+00 2.496520e+00 3.040985e+00 2.664792e+00 3.223677e+00 2.875500e+00 3.442780e+00 3.129886e+00 3.698559e+00 3.427600e+00 3.989820e+00 3.766599e+00 4.313868e+00 4.143108e+00 4.666520e+00 4.551673e+00 5.042192e+00 4.985285e+00 5.434036e+00 5.435570e+00 5.834140e+00 5.893059e+00 6.233775e+00 6.347501e+00 6.623684e+00 6.788232e+00 6.994412e+00 7.204578e+00 7.336662e+00 7.586269e+00 7.641663e+00 7.923856e+00 7.901535e+00 8.209098e+00 8.109624e+00 8.435299e+00 8.260788e+00 8.597569e+00 8.351605e+00 8.692987e+00 8.380488e+00 8.720666e+00 8.347694e+00 8.681699e+00 8.255237e+00 8.579004e+00 8.106706e+00 8.417091e+00 7.907014e+00 8.201760e+00 7.662109e+00 7.939767e+00 7.378660e+00 7.638484e+00 7.063757e+00 7.305588e+00 6.724637e+00 6.948771e+00 6.368452e+00 6.575524e+00 6.002086e+00 6.192954e+00 5.632023e+00 5.807671e+00 5.264255e+00 5.425712e+00 4.904227e+00 5.052504e+00 4.556819e+00 4.692850e+00 4.226330e+00 
4.412386e+00 3.975951e+00 4.081514e+00 3.681186e+00 3.777630e+00 3.415417e+00 3.503116e+00 3.180659e+00 3.259711e+00 2.978289e+00 3.048483e+00 2.809008e+00 2.869783e+00 2.672794e+00 2.723208e+00 2.568859e+00 2.607565e+00 2.495617e+00 2.520849e+00 2.450686e+00 2.460274e+00 2.430923e+00 2.422339e+00 2.432523e+00 2.402957e+00 2.451173e+00 2.397653e+00 2.482268e+00 2.401808e+00 2.521171e+00 2.410947e+00 2.563507e+00 2.421037e+00 2.605448e+00 2.428776e+00 2.643980e+00 2.431842e+00 2.677116e+00 2.429077e+00 2.704043e+00 2.420608e+00 2.725195e+00 2.407885e+00 2.742254e+00 2.393646e+00 2.758071e+00 2.381806e+00 2.776524e+00 2.377277e+00 2.802318e+00 2.385737e+00 2.840729e+00 2.413338e+00 2.897312e+00 2.466376e+00 2.977581e+00 2.550937e+00 3.086676e+00 2.672536e+00 3.229039e+00 2.835755e+00 3.408110e+00 3.043925e+00 3.626068e+00 3.298844e+00 3.883623e+00 3.600568e+00 4.179880e+00 3.947275e+00 4.512266e+00 4.335219e+00 4.876540e+00 4.758762e+00 5.266869e+00 5.210503e+00 5.675976e+00 5.681483e+00 6.095344e+00 6.161465e+00 6.515490e+00 6.639289e+00 6.926284e+00 7.103276e+00 7.317315e+00 7.541680e+00 7.678301e+00 7.943169e+00 7.999513e+00 8.297297e+00 8.272202e+00 8.594960e+00 8.488996e+00 8.828789e+00 8.644235e+00 8.993458e+00 8.734215e+00 9.085877e+00 8.757316e+00 9.105257e+00 8.714010e+00 9.053044e+00 8.606737e+00 8.932728e+00 8.439690e+00 8.749554e+00 8.218502e+00 8.510157e+00 7.949902e+00 8.222169e+00 7.641351e+00 7.893823e+00 7.300695e+00 7.533589e+00 6.935858e+00 7.149865e+00 6.554589e+00 6.750729e+00 6.164275e+00 6.343771e+00 5.771800e+00 5.935969e+00 5.383472e+00 5.533640e+00 5.004976e+00 5.142412e+00 4.641370e+00 4.767232e+00 4.297087e+00 
4.239749e+00 3.786733e+00 3.899595e+00 3.483868e+00 3.587555e+00 3.211123e+00 3.306075e+00 2.970575e+00 3.056945e+00 2.763652e+00 2.841260e+00 2.591077e+00 2.659371e+00 2.452815e+00 2.510824e+00 2.348006e+00 2.394312e+00 2.274923e+00 2.307639e+00 2.230959e+00 2.247742e+00 2.212663e+00 2.210756e+00 2.215838e+00 2.192161e+00 2.235720e+00 2.186996e+00 2.267224e+00 2.190151e+00 2.305243e+00 2.196686e+00 2.344988e+00 2.202186e+00 2.382316e+00 2.203079e+00 2.414028e+00 2.196917e+00 2.438106e+00 2.182578e+00 2.453861e+00 2.160388e+00 2.462012e+00 2.132150e+00 2.464658e+00 2.101091e+00 2.465184e+00 2.071727e+00 2.468092e+00 2.049658e+00 2.478761e+00 2.041302e+00 2.503165e+00 2.053566e+00 2.547540e+00 2.093487e+00 2.618036e+00 2.167838e+00 2.720348e+00 2.282734e+00 2.859366e+00 2.443242e+00 3.038851e+00 2.653036e+00 3.261161e+00 2.914102e+00 3.527041e+00 3.226514e+00 3.835480e+00 3.588301e+00 4.183658e+00 3.995405e+00 4.566964e+00 4.441729e+00 4.979089e+00 4.919285e+00 5.412195e+00 5.418414e+00 5.857140e+00 5.928103e+00 6.303765e+00 6.436358e+00 6.741233e+00 6.930639e+00 7.158417e+00 7.398349e+00 7.544324e+00 7.827338e+00 7.888547e+00 8.206418e+00 8.181724e+00 8.525849e+00 8.415958e+00 8.777763e+00 8.585187e+00 8.956489e+00 8.685448e+00 9.058770e+00 8.715026e+00 9.083822e+00 8.674453e+00 9.033260e+00 8.566386e+00 8.910889e+00 8.395356e+00 8.722384e+00 8.167433e+00 8.474888e+00 7.889839e+00 8.176585e+00 7.570549e+00 7.836262e+00 7.217912e+00 7.462919e+00 6.840314e+00 7.065431e+00 6.445916e+00 6.652293e+00 6.042445e+00 6.231433e+00 5.637069e+00 5.810106e+00 5.236313e+00 5.394840e+00 4.846036e+00 4.991426e+00 4.471424e+00 4.604934e+00 4.117019e+00 
4.282369e+00 3.826409e+00 3.930328e+00 3.513399e+00 3.609492e+00 3.233513e+00 3.322355e+00 2.988896e+00 3.070752e+00 2.781028e+00 2.855810e+00 2.610672e+00 2.677887e+00 2.477792e+00 2.536490e+00 2.381473e+00 2.430201e+00 2.319856e+00 2.356625e+00 2.290097e+00 2.312381e+00 2.288388e+00 2.293162e+00 2.310048e+00 2.293878e+00 2.349711e+00 2.308887e+00 2.401583e+00 2.332313e+00 2.459791e+00 2.358416e+00 2.518760e+00 2.381990e+00 2.573594e+00 2.398735e+00 2.620425e+00 2.405588e+00 2.656687e+00 2.400953e+00 2.681303e+00 2.384857e+00 2.694771e+00 2.358989e+00 2.699163e+00 2.326659e+00 2.698024e+00 2.292662e+00 2.696198e+00 2.263069e+00 2.699585e+00 2.244936e+00 2.714829e+00 2.245965e+00 2.748965e+00 2.274099e+00 2.809024e+00 2.337092e+00 2.901624e+00 2.442055e+00 3.032566e+00 2.595019e+00 3.206460e+00 2.800526e+00 3.426396e+00 3.061280e+00 3.693697e+00 3.377885e+00 4.007737e+00 3.748669e+00 4.365864e+00 4.169619e+00 4.763402e+00 4.634424e+00 5.193743e+00 5.134610e+00 5.648517e+00 5.659791e+00 6.117831e+00 6.197991e+00 6.590579e+00 6.736063e+00 7.054818e+00 7.260176e+00 7.498198e+00 7.756359e+00 7.908456e+00 8.211086e+00 8.273942e+00 8.611876e+00 8.584157e+00 8.947860e+00 8.830263e+00 9.210292e+00 9.005518e+00 9.392937e+00 9.105601e+00 9.492323e+00 9.128769e+00 9.507811e+00 9.075855e+00 9.441500e+00 8.950102e+00 9.297964e+00 8.756843e+00 9.083850e+00 8.503098e+00 8.807399e+00 8.197102e+00 8.477924e+00 7.847837e+00 8.105297e+00 7.464590e+00 7.699500e+00 7.056585e+00 7.270253e+00 6.632686e+00 6.826736e+00 6.201193e+00 6.377412e+00 5.769714e+00 5.929928e+00 5.345104e+00 5.491090e+00 4.933457e+00 5.066876e+00 4.540129e+00 4.662480e+00 4.169779e+00 