# vtk DataFile Version 2.0
Comment goes here
ASCII

DATASET STRUCTURED_POINTS
FIELD FieldData 1
TIME 1 1 double
0.16000000
DIMENSIONS    128   128   1

ORIGIN    0.000   0.000   0.000
SPACING   0.039062 0.039062   1.000

POINT_DATA   16384
SCALARS P double
LOOKUP_TABLE default

2.240303e-01 1.447140e+00 -1.221709e+00 1.891316e-01 -2.513552e+00 -9.315029e-01 -3.645488e+00 -1.909674e+00 -4.613060e+00 -2.741606e+00 -5.413137e+00 -3.424634e+00 -6.043712e+00 -3.957032e+00 -6.503715e+00 -4.337866e+00 -6.792874e+00 -4.566876e+00 -6.911604e+00 -4.644404e+00 -6.860938e+00 -4.571353e+00 -6.642502e+00 -4.349180e+00 -6.258511e+00 -3.979915e+00 -5.711806e+00 -3.466206e+00 -5.005904e+00 -2.811373e+00 -4.145066e+00 -2.019473e+00 -3.134378e+00 -1.095361e+00 -1.979819e+00 -4.475294e-02 -6.883417e-01 1.125731e+00 7.320654e-01 2.408527e+00 2.272325e+00 3.795102e+00 3.922227e+00 5.275944e+00 5.670408e+00 6.840560e+00 7.504333e+00 8.477491e+00 9.410307e+00 1.017433e+01 1.137350e+01 1.191776e+01 1.337797e+01 1.369358e+01 1.540677e+01 1.548680e+01 1.744198e+01 1.728166e+01 1.946484e+01 1.906175e+01 2.145590e+01 2.081009e+01 2.339514e+01 2.250929e+01 2.526218e+01 2.414165e+01 2.703652e+01 2.568936e+01 2.869769e+01 2.713470e+01 3.022562e+01 2.846022e+01 3.160088e+01 2.964905e+01 3.280497e+01 3.068509e+01 3.382072e+01 3.155338e+01 3.463260e+01 3.224039e+01 3.522706e+01 3.273431e+01 3.559295e+01 3.302543e+01 3.572184e+01 3.310645e+01 3.560833e+01 3.297278e+01 3.525038e+01 3.262281e+01 3.464951e+01 3.205815e+01 3.381096e+01 3.128374e+01 3.274375e+01 3.030791e+01 3.146061e+01 2.914237e+01 2.997783e+01 2.780196e+01 2.831496e+01 2.630445e+01 2.649435e+01 2.467010e+01 2.454072e+01 2.292120e+01 2.248049e+01 2.108150e+01 2.034116e+01 1.917561e+01 1.815063e+01 1.722844e+01 1.593660e+01 1.526454e+01 1.372587e+01 1.330761e+01 1.154392e+01 1.138004e+01 9.414391e+00 9.502519e+00 7.358831e+00 7.693802e+00 5.396444e+00 5.970517e+00 3.544008e+00 4.347120e+00 1.815869e+00 2.835914e+00 
8.114998e-01 2.048201e+00 -6.787595e-01 7.463118e-01 -2.012941e+00 -4.159129e-01 -3.184779e+00 -1.433155e+00 -4.189625e+00 -2.301465e+00 -5.024215e+00 -3.018057e+00 -5.686448e+00 -3.581124e+00 -6.175202e+00 -3.989678e+00 -6.490178e+00 -4.243433e+00 -6.631788e+00 -4.342722e+00 -6.601075e+00 -4.288450e+00 -6.399684e+00 -4.082086e+00 -6.029858e+00 -3.725679e+00 -5.494464e+00 -3.221897e+00 -4.797050e+00 -2.574085e+00 -3.941907e+00 -1.786326e+00 -2.934143e+00 -8.635014e-01 -1.779764e+00 1.886458e-01 -4.857388e-01 1.363468e+00 9.399284e-01 2.653375e+00 2.488149e+00 4.049810e+00 4.148709e+00 5.543238e+00 5.910239e+00 7.123148e+00 7.760208e+00 8.778065e+00 9.684925e+00 1.049557e+01 1.166956e+01 1.226233e+01 1.369818e+01 1.406413e+01 1.575383e+01 1.588596e+01 1.781857e+01 1.771202e+01 1.987362e+01 1.952587e+01 2.189945e+01 2.131045e+01 2.387598e+01 2.304826e+01 2.578270e+01 2.472146e+01 2.759889e+01 2.631203e+01 2.930388e+01 2.780198e+01 3.087727e+01 2.917354e+01 3.229925e+01 3.040941e+01 3.355087e+01 3.149302e+01 3.461440e+01 3.240882e+01 3.547368e+01 3.314263e+01 3.611447e+01 3.368192e+01 3.652486e+01 3.401620e+01 3.669560e+01 3.413736e+01 3.662049e+01 3.403999e+01 3.629667e+01 3.372170e+01 3.572488e+01 3.318333e+01 3.490966e+01 3.242918e+01 3.385945e+01 3.146706e+01 3.258652e+01 3.030827e+01 3.110686e+01 2.896747e+01 2.943992e+01 2.746240e+01 2.760812e+01 2.581347e+01 2.563645e+01 2.404332e+01 2.355174e+01 2.217619e+01 2.138209e+01 2.023736e+01 1.915610e+01 1.825244e+01 1.690224e+01 1.624682e+01 1.464817e+01 1.424504e+01 1.242021e+01 1.227033e+01 1.024284e+01 1.034421e+01 8.138422e+00 8.486191e+00 6.126885e+00 6.713613e+00 4.225673e+00 5.041553e+00 2.449714e+00 3.482850e+00 
1.506328e-01 1.381370e+00 -1.299079e+00 1.199845e-01 -2.593997e+00 -1.003259e+00 -3.728222e+00 -1.983371e+00 -4.697401e+00 -2.816668e+00 -5.498507e+00 -3.500571e+00 -6.129617e+00 -4.033427e+00 -6.589734e+00 -4.414356e+00 -6.878641e+00 -4.643140e+00 -6.996790e+00 -4.720145e+00 -6.945235e+00 -4.646285e+00 -6.725606e+00 -4.423011e+00 -6.340110e+00 -4.052340e+00 -5.791567e+00 -3.536897e+00 -5.083466e+00 -2.879976e+00 -4.220036e+00 -2.085606e+00 -3.206325e+00 -1.158616e+00 -2.048278e+00 -1.046944e-01 -7.528136e-01 1.069557e+00 6.721095e-01 2.356590e+00 2.217437e+00 3.747880e+00 3.872979e+00 5.233921e+00 5.627377e+00 6.804217e+00 7.468099e+00 8.447302e+00 9.381443e+00 1.015076e+01 1.135256e+01 1.190124e+01 1.336548e+01 1.368454e+01 1.540320e+01 1.548561e+01 1.744777e+01 1.728866e+01 1.948036e+01 1.907723e+01 2.148142e+01 2.083429e+01 2.343086e+01 2.254235e+01 2.530820e+01 2.418364e+01 2.709277e+01 2.574025e+01 2.876402e+01 2.719434e+01 3.030171e+01 2.852835e+01 3.168624e+01 2.972524e+01 3.289897e+01 3.076880e+01 3.392252e+01 3.164390e+01 3.474119e+01 3.233683e+01 3.534126e+01 3.283563e+01 3.571139e+01 3.313043e+01 3.584299e+01 3.321376e+01 3.573052e+01 3.308090e+01 3.537181e+01 3.273014e+01 3.476833e+01 3.216301e+01 3.392528e+01 3.138442e+01 3.285170e+01 3.040276e+01 3.156042e+01 2.922978e+01 3.006787e+01 2.788050e+01 2.839381e+01 2.637286e+01 2.656086e+01 2.472737e+01 2.459402e+01 2.296659e+01 2.252004e+01 2.111458e+01 2.036675e+01 1.919626e+01 1.816240e+01 1.723681e+01 1.593494e+01 1.526105e+01 1.371148e+01 1.329291e+01 1.151768e+01 1.135497e+01 9.377356e+00 9.468047e+00 7.312154e+00 7.650968e+00 5.341328e+00 5.920399e+00 3.481656e+00 4.290786e+00 1.747447e+00 2.774386e+00 
6.628360e-01 1.914654e+00 -8.356942e-01 6.057155e-01 -2.176279e+00 -5.619551e-01 -3.352881e+00 -1.583246e+00 -4.361077e+00 -2.454407e+00 -5.197811e+00 -3.172831e+00 -5.861166e+00 -3.736862e+00 -6.350173e+00 -4.145633e+00 -6.664649e+00 -4.398945e+00 -6.805087e+00 -4.497186e+00 -6.772575e+00 -4.441283e+00 -6.568773e+00 -4.232700e+00 -6.195907e+00 -3.873459e+00 -5.656809e+00 -3.366186e+00 -4.954972e+00 -2.714174e+00 -4.094619e+00 -1.921450e+00 -3.080790e+00 -9.928425e-01 -1.919416e+00 6.595583e-02 -6.174032e-01 1.248337e+00 8.173056e-01 2.546741e+00 2.375669e+00 3.952628e+00 4.047507e+00 5.456473e+00 5.821471e+00 7.047760e+00 7.685032e+00 8.714999e+00 9.624484e+00 1.044575e+01 1.162496e+01 1.222663e+01 1.367048e+01 1.404340e+01 1.574401e+01 1.588097e+01 1.782750e+01 1.772348e+01 1.990205e+01 1.955436e+01 2.194800e+01 2.135647e+01 2.394506e+01 2.311216e+01 2.587252e+01 2.480342e+01 2.770945e+01 2.641205e+01 2.943490e+01 2.791984e+01 3.102819e+01 2.930878e+01 3.246919e+01 3.056129e+01 3.373862e+01 3.166051e+01 3.481838e+01 3.259058e+01 3.569195e+01 3.333696e+01 3.634471e+01 3.388678e+01 3.676438e+01 3.422922e+01 3.694137e+01 3.435582e+01 3.686914e+01 3.426087e+01 3.654459e+01 3.394173e+01 3.596827e+01 3.339907e+01 3.514463e+01 3.263712e+01 3.408214e+01 3.166370e+01 3.279322e+01 3.049026e+01 3.129414e+01 2.913173e+01 2.960474e+01 2.760623e+01 2.774799e+01 2.593468e+01 2.574946e+01 2.414027e+01 2.363668e+01 2.224789e+01 2.143842e+01 2.028343e+01 1.918397e+01 1.827314e+01 1.690244e+01 1.624296e+01 1.462204e+01 1.421792e+01 1.236954e+01 1.222164e+01 1.016978e+01 1.027594e+01 8.045339e+00 8.400500e+00 6.016260e+00 6.612731e+00 4.099998e+00 4.927699e+00 2.311406e+00 3.358156e+00 
-7.057816e-02 1.183178e+00 -1.532104e+00 -8.824335e-02 -2.836141e+00 -1.219218e+00 -3.977122e+00 -2.205058e+00 -4.951028e+00 -3.042367e+00 -5.755132e+00 -3.728825e+00 -6.387776e+00 -4.262996e+00 -6.848181e+00 -4.644171e+00 -7.136295e+00 -4.872254e+00 -7.252681e+00 -4.947683e+00 -7.198454e+00 -4.871396e+00 -6.975254e+00 -4.644832e+00 -6.585261e+00 -4.269962e+00 -6.031231e+00 -3.749343e+00 -5.316567e+00 -3.086186e+00 -4.445395e+00 -2.284434e+00 -3.422652e+00 -1.348831e+00 -2.254174e+00 -2.849915e-01 -9.467763e-01 9.005465e-01 4.916717e-01 2.200280e+00 2.052189e+00 3.605715e+00 3.724637e+00 5.107354e+00 5.497687e+00 6.694699e+00 7.358812e+00 8.356261e+00 9.294283e+00 1.007958e+01 1.128919e+01 1.185126e+01 1.332750e+01 1.365701e+01 1.539207e+01 1.548169e+01 1.746478e+01 1.730938e+01 1.952662e+01 1.912346e+01 2.155780e+01 2.090672e+01 2.353795e+01 2.264145e+01 2.544626e+01 2.430963e+01 2.726171e+01 2.589304e+01 2.896333e+01 2.737351e+01 3.053045e+01 2.873311e+01 3.194298e+01 2.995438e+01 3.318177e+01 3.102066e+01 3.422892e+01 3.191634e+01 3.506816e+01 3.262721e+01 3.568523e+01 3.314082e+01 3.606824e+01 3.344678e+01 3.620811e+01 3.353717e+01 3.609886e+01 3.340685e+01 3.573798e+01 3.305379e+01 3.512668e+01 3.247928e+01 3.427008e+01 3.168817e+01 3.317732e+01 3.068890e+01 3.186146e+01 2.949349e+01 3.033941e+01 2.811737e+01 2.863152e+01 2.657910e+01 2.676123e+01 2.489991e+01 2.475444e+01 2.310321e+01 2.263889e+01 2.121397e+01 2.044342e+01 1.925804e+01 1.819726e+01 1.726147e+01 1.592929e+01 1.524991e+01 1.366740e+01 1.324799e+01 1.143790e+01 1.127880e+01 9.265091e+00 9.363576e+00 7.170912e+00 7.521381e+00 5.174764e+00 5.768968e+00 3.293423e+00 4.120747e+00 1.541072e+00 2.588833e+00 
3.633898e-01 1.645719e+00 -1.151467e+00 3.228821e-01 -2.504632e+00 -8.554766e-01 -3.690540e+00 -1.884671e+00 -4.705230e+00 -2.761358e+00 -5.546071e+00 -3.483294e+00 -6.211521e+00 -4.049133e+00 -6.700917e+00 -4.458252e+00 -7.014312e+00 -4.710626e+00 -7.152359e+00 -4.806747e+00 -7.116237e+00 -4.747585e+00 -6.907625e+00 -4.534588e+00 -6.528718e+00 -4.169720e+00 -5.982264e+00 -3.655516e+00 -5.271643e+00 -2.995159e+00 -4.400941e+00 -2.192559e+00 -3.375050e+00 -1.252431e+00 -2.199754e+00 -1.803693e-01 -8.818220e-01 1.017102e+00 5.709236e-01 2.332482e+00 2.149540e+00 3.757269e+00 3.843917e+00 5.281952e+00 5.642747e+00 6.896008e+00 7.533508e+00 8.587919e+00 9.502466e+00 1.034519e+01 1.153469e+01 1.215438e+01 1.361409e+01 1.400115e+01 1.572346e+01 1.587028e+01 1.784459e+01 1.774576e+01 1.995831e+01 1.961084e+01 2.204465e+01 2.144815e+01 2.408298e+01 2.323975e+01 2.605217e+01 2.496732e+01 2.793083e+01 2.661229e+01 2.969749e+01 2.815600e+01 3.133090e+01 2.957997e+01 3.281028e+01 3.086607e+01 3.411567e+01 3.199684e+01 3.522828e+01 3.295578e+01 3.613080e+01 3.372765e+01 3.680788e+01 3.429890e+01 3.724647e+01 3.465797e+01 3.743625e+01 3.479574e+01 3.737006e+01 3.470588e+01 3.704423e+01 3.438523e+01 3.645893e+01 3.383409e+01 3.561844e+01 3.305650e+01 3.453123e+01 3.206032e+01 3.321004e+01 3.085731e+01 3.167171e+01 2.946293e+01 2.993689e+01 2.789609e+01 2.802962e+01 2.617872e+01 2.597672e+01 2.433519e+01 2.380709e+01 2.239166e+01 2.155092e+01 2.037533e+01 1.923892e+01 1.831372e+01 1.690148e+01 1.623392e+01 1.456796e+01 1.416197e+01 1.226604e+01 1.212228e+01 1.002128e+01 1.013723e+01 7.856671e+00 8.226863e+00 5.792494e+00 6.408724e+00 3.846204e+00 4.697834e+00 2.032487e+00 3.106750e+00 
-4.426728e-01 8.499092e-01 -1.923537e+00 -4.379141e-01 -3.242400e+00 -1.581444e+00 -4.394285e+00 -2.576516e+00 -5.375736e+00 -3.420230e+00 -6.184546e+00 -4.110708e+00 -6.819509e+00 -4.646883e+00 -7.280212e+00 -5.028336e+00 -7.566881e+00 -5.255171e+00 -7.680263e+00 -5.327942e+00 -7.621567e+00 -5.247623e+00 -7.392447e+00 -5.015624e+00 -6.995024e+00 -4.633829e+00 -6.431943e+00 -4.104671e+00 -5.706452e+00 -3.431215e+00 -4.822495e+00 -2.617250e+00 -3.784818e+00 -1.667374e+00 -2.599066e+00 -5.870693e-01 -1.271877e+00 6.172311e-01 1.890336e-01 1.938103e+00 1.774811e+00 3.367100e+00 3.475407e+00 4.894747e+00 5.279545e+00 6.510535e+00 7.174704e+00 8.202938e+00 9.147117e+00 9.959433e+00 1.118179e+01 1.176653e+01 1.326253e+01 1.360981e+01 1.537202e+01 1.547397e+01 1.749187e+01 1.734289e+01 1.960273e+01 1.919970e+01 2.168442e+01 2.102688e+01 2.371611e+01 2.280636e+01 2.567644e+01 2.451968e+01 2.754380e+01 2.614814e+01 2.929654e+01 2.767300e+01 3.091324e+01 2.907570e+01 3.237302e+01 3.033810e+01 3.365585e+01 3.144277e+01 3.474293e+01 3.237331e+01 3.561707e+01 3.311466e+01 3.626306e+01 3.365350e+01 3.666812e+01 3.397859e+01 3.682226e+01 3.408122e+01 3.671877e+01 3.395551e+01 3.635452e+01 3.359884e+01 3.573029e+01 3.301212e+01 3.485104e+01 3.220004e+01 3.372600e+01 3.117114e+01 3.236869e+01 2.993787e+01 3.079675e+01 2.851638e+01 2.903162e+01 2.692623e+01 2.709809e+01 2.518993e+01 2.502361e+01 2.333236e+01 2.283763e+01 2.138005e+01 2.057076e+01 1.936043e+01 1.825391e+01 1.730112e+01 1.591754e+01 1.522912e+01 1.359089e+01 1.317026e+01 1.130137e+01 1.114855e+01 9.074059e+00 9.185899e+00 6.931420e+00 7.301735e+00 4.893066e+00 5.512950e+00 2.975743e+00 3.833866e+00 1.193392e+00 2.276334e+00 
-9.110741e-02 1.237694e+00 -1.629901e+00 -1.054783e-01 -3.001357e+00 -1.299347e+00 -4.200657e+00 -2.339899e+00 -5.224562e+00 -3.224425e+00 -6.071104e+00 -3.951249e+00 -6.739317e+00 -4.519499e+00 -7.229006e+00 -4.928925e+00 -7.540581e+00 -5.179760e+00 -7.674931e+00 -5.272649e+00 -7.633360e+00 -5.208612e+00 -7.417574e+00 -4.989063e+00 -7.029699e+00 -4.615863e+00 -6.472351e+00 -4.091394e+00 -5.748719e+00 -3.418659e+00 -4.862672e+00 -2.601380e+00 -3.818866e+00 -1.644093e+00 -2.622854e+00 -5.522336e-01 -1.281189e+00 6.678010e-01 1.984936e-01 2.008602e+00 1.807404e+00 3.461726e+00 3.535544e+00 5.017679e+00 5.371669e+00 6.665929e+00 7.303272e+00 8.394915e+00 9.316578e+00 1.019207e+01 1.139656e+01 1.204384e+01 1.352696e+01 1.393576e+01 1.569037e+01 1.585242e+01 1.786826e+01 1.777760e+01 2.004111e+01 1.969427e+01 2.218848e+01 2.158471e+01 2.428923e+01 2.343059e+01 2.632161e+01 2.521310e+01 2.826353e+01 2.691312e+01 3.009273e+01 2.851133e+01 3.178709e+01 2.998853e+01 3.332489e+01 3.132577e+01 3.468514e+01 3.250468e+01 3.584795e+01 3.350777e+01 3.679487e+01 3.431878e+01 3.750938e+01 3.492305e+01 3.797724e+01 3.530793e+01 3.818703e+01 3.546323e+01 3.813055e+01 3.538164e+01 3.780328e+01 3.505917e+01 3.720476e+01 3.449553e+01 3.633893e+01 3.369443e+01 3.521428e+01 3.266377e+01 3.384399e+01 3.141571e+01 3.224574e+01 2.996657e+01 3.044147e+01 2.833646e+01 2.845686e+01 2.654890e+01 2.632068e+01 2.463009e+01 2.406400e+01 2.260820e+01 2.171924e+01 2.051248e+01 1.931929e+01 1.837244e+01 1.689657e+01 1.621698e+01 1.448220e+01 1.407367e+01 1.210530e+01 1.196814e+01 9.792446e+00 9.923625e+00 7.567314e+00 7.960680e+00 5.450468e+00 6.097027e+00 3.459335e+00 4.347579e+00 1.608296e+00 2.724555e+00 
-9.708161e-01 3.771025e-01 -2.477982e+00 -9.329759e-01 -3.816806e+00 -2.093368e+00 -4.983179e+00 -3.100689e+00 -5.974481e+00 -3.952766e+00 -6.789262e+00 -4.648363e+00 -7.426964e+00 -5.186948e+00 -7.887704e+00 -5.568510e+00 -8.172093e+00 -5.793434e+00 -8.281134e+00 -5.862428e+00 -8.216157e+00 -5.776503e+00 -7.978820e+00 -5.537005e+00 -7.571146e+00 -5.145679e+00 -6.995601e+00 -4.604760e+00 -6.255194e+00 -3.917091e+00 -5.353598e+00 -3.086224e+00 -4.295270e+00 -2.116539e+00 -3.085574e+00 -1.013325e+00 -1.730887e+00 2.171389e-01 -2.386957e-01 1.567542e+00 1.382327e+00 3.029506e+00 3.122265e+00 4.593582e+00 4.969921e+00 6.249248e+00 6.912789e+00 7.984925e+00 8.937055e+00 9.788005e+00 1.102760e+01 1.164487e+01 1.316805e+01 1.354093e+01 1.534080e+01 1.546066e+01 1.752709e+01 1.738766e+01 1.970714e+01 1.930472e+01 2.186020e+01 2.119390e+01 2.396479e+01 2.303662e+01 2.599882e+01 2.481383e+01 2.793980e+01 2.650615e+01 2.976515e+01 2.809404e+01 3.145239e+01 2.955806e+01 3.297951e+01 3.087910e+01 3.432526e+01 3.203866e+01 3.546956e+01 3.301918e+01 3.639388e+01 3.380441e+01 3.708166e+01 3.437976e+01 3.751876e+01 3.473277e+01 3.769396e+01 3.485351e+01 3.759939e+01 3.473506e+01 3.723099e+01 3.437390e+01 3.658889e+01 3.377031e+01 3.567775e+01 3.292870e+01 3.450692e+01 3.185774e+01 3.309052e+01 3.057045e+01 3.144725e+01 2.908401e+01 2.960011e+01 2.741947e+01 2.757586e+01 2.560120e+01 2.540425e+01 2.365623e+01 2.311726e+01 2.161339e+01 2.074805e+01 1.950250e+01 1.833006e+01 1.735340e+01 1.589604e+01 1.519515e+01 1.347719e+01 1.305527e+01 1.110250e+01 1.095912e+01 8.798181e+00 8.929502e+00 6.587371e+00 6.986377e+00 4.489952e+00 5.146772e+00 2.522563e+00 3.424826e+00 6.987455e-01 1.831957e+00 
-7.071361e-01 6.849681e-01 -2.276763e+00 -6.843184e-01 -3.671484e+00 -1.897857e+00 -4.887548e+00 -2.952593e+00 -5.922736e+00 -3.846713e+00 -6.776007e+00 -4.579332e+00 -7.447186e+00 -5.150232e+00 -7.936721e+00 -5.559665e+00 -8.245499e+00 -5.808210e+00 -8.374718e+00 -5.896701e+00 -8.325838e+00 -5.826206e+00 -8.100572e+00 -5.598066e+00 -7.700936e+00 -5.213975e+00 -7.129335e+00 -4.676080e+00 -6.388681e+00 -3.987117e+00 -5.482520e+00 -3.150530e+00 -4.415172e+00 -2.170597e+00 -3.191861e+00 -1.052528e+00 -1.818832e+00 1.974573e-01 -3.034582e-01 1.572076e+00 1.345685e+00 3.062956e+00 3.118752e+00 4.660631e+00 5.004593e+00 6.354550e+00 6.990724e+00 8.133090e+00 9.063323e+00 9.983591e+00 1.120724e+01 1.189237e+01 1.340602e+01 1.384477e+01 1.564194e+01 1.582517e+01 1.789610e+01 1.781706e+01 2.014848e+01 1.980304e+01 2.237806e+01 2.176496e+01 2.456299e+01 2.368397e+01 2.668071e+01 2.554062e+01 2.870819e+01 2.731503e+01 3.062213e+01 2.898706e+01 3.239925e+01 3.053651e+01 3.401655e+01 3.194334e+01 3.545165e+01 3.318796e+01 3.668317e+01 3.425155e+01 3.769112e+01 3.511643e+01 3.845733e+01 3.576642e+01 3.896596e+01 3.618736e+01 3.920400e+01 3.636753e+01 3.916178e+01 3.629823e+01 3.883355e+01 3.597426e+01 3.821789e+01 3.539442e+01 3.731821e+01 3.456190e+01 3.614297e+01 3.348459e+01 3.470587e+01 3.217519e+01 3.302577e+01 3.065113e+01 3.112636e+01 2.893426e+01 2.903563e+01 2.705029e+01 2.678513e+01 2.502804e+01 2.440895e+01 2.289852e+01 2.194271e+01 2.069391e+01 1.942238e+01 1.844652e+01 1.688324e+01 1.618780e+01 1.435887e+01 1.394745e+01 1.188035e+01 1.175278e+01 9.475663e+00 9.628171e+00 7.169342e+00 7.594811e+00 4.982281e+00 5.670600e+00 2.931778e+00 3.870222e+00 1.031717e+00 2.205354e+00 
-1.662337e+00 -2.415585e-01 -3.201927e+00 -1.578975e+00 -4.564987e+00 -2.759772e+00 -5.748614e+00 -3.781641e+00 -6.751326e+00 -4.643404e+00 -7.572698e+00 -5.344694e+00 -8.213045e+00 -5.885690e+00 -8.673172e+00 -6.266919e+00 -8.954198e+00 -6.489118e+00 -9.057439e+00 -6.553178e+00 -8.984364e+00 -6.460130e+00 -8.736608e+00 -6.211206e+00 -8.316034e+00 -5.807929e+00 -7.724841e+00 -5.252248e+00 -6.965696e+00 -4.546673e+00 -6.041885e+00 -3.694429e+00 -4.957464e+00 -2.699585e+00 -3.717407e+00 -1.567167e+00 -2.327734e+00 -3.032417e-01 -7.956223e-01 1.085024e+00 8.705044e-01 2.589342e+00 2.660911e+00 4.200290e+00 4.564507e+00 5.907327e+00 6.568816e+00 7.698809e+00 8.659969e+00 9.562016e+00 1.082271e+01 1.148317e+01 1.304041e+01 1.344748e+01 1.529512e+01 1.543915e+01 1.756764e+01 1.744144e+01 1.983758e+01 1.943670e+01 2.208353e+01 2.140646e+01 2.428315e+01 2.333152e+01 2.641338e+01 2.519206e+01 2.845065e+01 2.696783e+01 3.037115e+01 2.863828e+01 3.215103e+01 3.018283e+01 3.376682e+01 3.158109e+01 3.519567e+01 3.281318e+01 3.641582e+01 3.386003e+01 3.740696e+01 3.470378e+01 3.815071e+01 3.532819e+01 3.863115e+01 3.571909e+01 3.883532e+01 3.586493e+01 3.875377e+01 3.575728e+01 3.838111e+01 3.539135e+01 3.771651e+01 3.476651e+01 3.676413e+01 3.388668e+01 3.553341e+01 3.276066e+01 3.403918e+01 3.140215e+01 3.230158e+01 2.982972e+01 3.034569e+01 2.806641e+01 2.820093e+01 2.613914e+01 2.590025e+01 2.407790e+01 2.347905e+01 2.191474e+01 2.097407e+01 1.968271e+01 1.842219e+01 1.741476e+01 1.585928e+01 1.514272e+01 1.331922e+01 1.289640e+01 1.083308e+01 1.070294e+01 8.428547e+00 8.586310e+00 6.129581e+00 6.567080e+00 3.956326e+00 4.662372e+00 1.925179e+00 2.885986e+00 4.904013e-02 1.248666e+00 
-1.493477e+00 -2.004372e-02 -3.099797e+00 -1.420270e+00 -4.521705e+00 -2.656693e+00 -5.756899e+00 -3.727558e+00 -6.804526e+00 -4.632250e+00 -7.664767e+00 -5.370924e+00 -8.338484e+00 -5.944217e+00 -8.826949e+00 -6.353019e+00 -9.131645e+00 -6.598334e+00 -9.254150e+00 -6.681211e+00 -9.196085e+00 -6.602743e+00 -8.959142e+00 -6.364136e+00 -8.545152e+00 -5.966819e+00 -7.956211e+00 -5.412599e+00 -7.194834e+00 -4.703823e+00 -6.264120e+00 -3.843550e+00 -5.167924e+00 -2.835698e+00 -3.911024e+00 -1.685175e+00 -2.499256e+00 -3.979686e-01 -9.396414e-01 1.018798e+00 7.595249e-01 2.556841e+00 2.588604e+00 4.206719e+00 4.536568e+00 5.957848e+00 6.590971e+00 7.798531e+00 8.737942e+00 9.715988e+00 1.096218e+01 1.169638e+01 1.324699e+01 1.372483e+01 1.557430e+01 1.578547e+01 1.792473e+01 1.786142e+01 2.027765e+01 1.993489e+01 2.261133e+01 2.198718e+01 2.490302e+01 2.399879e+01 2.712916e+01 2.594950e+01 2.926556e+01 2.781853e+01 3.128762e+01 2.958467e+01 3.317058e+01 3.122650e+01 3.488984e+01 3.272260e+01 3.642127e+01 3.405185e+01 3.774160e+01 3.519373e+01 3.882881e+01 3.612872e+01 3.966265e+01 3.683869e+01 4.022512e+01 3.730743e+01 4.050111e+01 3.752123e+01 4.047898e+01 3.746945e+01 4.015120e+01 3.714520e+01 3.951503e+01 3.654597e+01 3.857302e+01 3.567414e+01 3.733349e+01 3.453748e+01 3.581074e+01 3.314929e+01 3.402508e+01 3.152848e+01 3.200252e+01 2.969912e+01 2.977414e+01 2.768991e+01 2.737519e+01 2.553319e+01 2.484390e+01 2.326386e+01 2.222018e+01 2.091804e+01 1.954419e+01 1.853183e+01 1.685503e+01 1.614009e+01 1.418953e+01 1.377536e+01 1.158132e+01 1.146708e+01 9.060197e+00 9.241089e+00 6.651679e+00 7.119291e+00 4.376967e+00 5.119687e+00 2.253052e+00 3.256533e+00 2.930274e-01 1.540671e+00 
-2.526819e+00 -1.014310e+00 -4.103772e+00 -2.383066e+00 -5.494155e+00 -3.586749e+00 -6.696673e+00 -4.624486e+00 -7.711347e+00 -5.496406e+00 -8.539076e+00 -6.203264e+00 -9.181289e+00 -6.746147e+00 -9.639660e+00 -7.126248e+00 -9.915925e+00 -7.344731e+00 -1.001177e+01 -7.402677e+00 -9.928803e+00 -7.301099e+00 -9.668579e+00 -7.041033e+00 -9.232714e+00 -6.623671e+00 -8.623022e+00 -6.050539e+00 -7.841692e+00 -5.323690e+00 -6.891480e+00 -4.445889e+00 -5.775903e+00 -3.420788e+00 -4.499414e+00 -2.253065e+00 -3.067564e+00 -9.485180e-01 -1.487129e+00 4.858689e-01 2.337922e-01 2.041907e+00 2.085698e+00 3.710203e+00 4.057640e+00 5.480185e+00 6.137188e+00 7.340124e+00 8.310419e+00 9.277167e+00 1.056191e+01 1.127736e+01 1.287476e+01 1.332567e+01 1.523061e+01 1.540599e+01 1.760972e+01 1.750120e+01 1.999099e+01 1.959313e+01 2.235217e+01 2.166270e+01 2.466990e+01 2.368995e+01 2.691995e+01 2.565416e+01 2.907741e+01 2.753398e+01 3.111694e+01 2.930766e+01 3.301307e+01 3.095321e+01 3.474045e+01 3.244869e+01 3.627428e+01 3.377248e+01 3.759067e+01 3.490362e+01 3.866709e+01 3.582223e+01 3.948284e+01 3.650991e+01 4.001966e+01 3.695033e+01 4.026230e+01 3.712976e+01 4.019920e+01 3.703772e+01 3.982313e+01 3.666768e+01 3.913189e+01 3.601767e+01 3.812884e+01 3.509087e+01 3.682339e+01 3.389604e+01 3.523121e+01 3.244774e+01 3.337418e+01 3.076627e+01 3.128008e+01 2.887725e+01 2.898188e+01 2.681100e+01 2.651669e+01 2.460142e+01 2.392454e+01 2.228488e+01 2.124691e+01 1.989874e+01 1.852524e+01 1.748009e+01 1.579954e+01 1.506439e+01 1.310715e+01 1.268444e+01 1.048181e+01 1.036962e+01 7.952989e+00 8.145302e+00 5.545607e+00 6.032711e+00 3.279970e+00 4.048937e+00 1.171995e+00 2.207189e+00 -7.664055e-01 5.171963e-01 
-2.461322e+00 -8.869749e-01 -4.108764e+00 -2.321653e+00 -5.560351e+00 -3.582893e+00 -6.815692e+00 -4.670653e+00 -7.875708e+00 -5.585867e+00 -8.742141e+00 -6.330021e+00 -9.417157e+00 -6.904819e+00 -9.903044e+00 -7.311936e+00 -1.020201e+01 -7.552871e+00 -1.031605e+01 -7.628893e+00 -1.024695e+01 -7.541070e+00 -9.996305e+00 -7.290369e+00 -9.565668e+00 -6.877827e+00 -8.956685e+00 -6.304753e+00 -8.171317e+00 -5.572955e+00 -7.212057e+00 -4.684957e+00 -6.082142e+00 -3.644201e+00 -4.785757e+00 -2.455199e+00 -3.328211e+00 -1.123644e+00 -1.716073e+00 3.435289e-01 4.271907e-02 1.938133e+00 1.938785e+00 3.650738e+00 3.961255e+00 5.470712e+00 6.097740e+00 7.386259e+00 8.334320e+00 9.384456e+00 1.065554e+01 1.145128e+01 1.304441e+01 1.357164e+01 1.548247e+01 1.572934e+01 1.794976e+01 1.790716e+01 2.042497e+01 2.008681e+01 2.288549e+01 2.224900e+01 2.530754e+01 2.437347e+01 2.766636e+01 2.643910e+01 2.993635e+01 2.842403e+01 3.209135e+01 3.030579e+01 3.410485e+01 3.206150e+01 3.595030e+01 3.366811e+01 3.760145e+01 3.510261e+01 3.903270e+01 3.634243e+01 4.021954e+01 3.736574e+01 4.113908e+01 3.815197e+01 4.177061e+01 3.868232e+01 4.209625e+01 3.894042e+01 4.210175e+01 3.891309e+01 4.177723e+01 3.859112e+01 4.111800e+01 3.797010e+01 4.012536e+01 3.705123e+01 3.880721e+01 3.584187e+01 3.717850e+01 3.435602e+01 3.526127e+01 3.261432e+01 3.308446e+01 3.064378e+01 3.068316e+01 2.847695e+01 2.809750e+01 2.615087e+01 2.537118e+01 2.370556e+01 2.254980e+01 2.118240e+01 1.967902e+01 1.862250e+01 1.680295e+01 1.606514e+01 1.396262e+01 1.354649e+01 1.119488e+01 1.109871e+01 8.531671e+00 8.749289e+00 5.999625e+00 6.520909e+00 3.620114e+00 4.431487e+00 1.409514e+00 2.494526e+00 -6.202976e-01 7.196144e-01 
-3.576208e+00 -1.951380e+00 -5.193851e+00 -3.354010e+00 -6.613057e+00 -4.581650e+00 -7.834628e+00 -5.635290e+00 -8.860507e+00 -6.516731e+00 -9.693266e+00 -7.228146e+00 -1.033571e+01 -7.771737e+00 -1.079058e+01 -8.149502e+00 -1.106033e+01 -8.363090e+00 -1.114705e+01 -8.413762e+00 -1.105246e+01 -8.302439e+00 -1.077797e+01 -8.029838e+00 -1.032479e+01 -7.596660e+00 -9.694212e+00 -7.003835e+00 -8.887762e+00 -6.252779e+00 -7.907487e+00 -5.345639e+00 -6.756190e+00 -4.285516e+00 -5.437650e+00 -3.076637e+00 -3.956817e+00 -1.724470e+00 -2.319957e+00 -2.357863e-01 -5.347679e-01 1.381330e+00 1.389543e+00 3.117503e+00 3.442209e+00 4.962104e+00 5.610868e+00 6.903300e+00 7.881548e+00 8.928087e+00 1.023866e+01 1.102231e+01 1.266498e+01 1.317069e+01 1.514170e+01 1.535679e+01 1.764844e+01 1.756305e+01 2.016333e+01 1.977076e+01 2.266309e+01 2.196013e+01 2.512320e+01 2.411033e+01 2.751803e+01 2.619958e+01 2.982108e+01 2.820531e+01 3.200523e+01 3.010428e+01 3.404300e+01 3.187289e+01 3.590689e+01 3.348731e+01 3.756971e+01 3.492386e+01 3.900500e+01 3.615930e+01 4.018748e+01 3.717125e+01 4.109360e+01 3.793866e+01 4.170213e+01 3.844241e+01 4.199489e+01 3.866595e+01 4.195751e+01 3.859613e+01 4.158029e+01 3.822397e+01 4.085906e+01 3.754562e+01 3.979595e+01 3.656308e+01 3.840010e+01 3.528488e+01 3.668805e+01 3.372649e+01 3.468380e+01 3.191030e+01 3.241853e+01 2.986527e+01 2.992973e+01 2.762607e+01 2.725999e+01 2.523180e+01 2.445539e+01 2.272445e+01 2.156363e+01 2.014712e+01 1.863213e+01 1.754225e+01 1.570624e+01 1.495002e+01 1.282773e+01 1.240702e+01 1.003361e+01 9.945337e+00 7.355487e+00 7.591982e+00 4.819235e+00 5.368783e+00 2.445129e+00 3.292549e+00 2.482191e-01 1.375508e+00 -1.761065e+00 -3.741077e-01 
-3.624394e+00 -1.927588e+00 -5.315458e+00 -3.398469e+00 -6.797326e+00 -4.684772e+00 -8.072083e+00 -5.788664e+00 -9.142900e+00 -6.713045e+00 -1.001347e+01 -7.461059e+00 -1.068755e+01 -8.035709e+00 -1.116865e+01 -8.439602e+00 -1.145980e+01 -8.674792e+00 -1.156348e+01 -8.742748e+00 -1.148157e+01 -8.644416e+00 -1.121550e+01 -8.380380e+00 -1.076635e+01 -7.951093e+00 -1.013516e+01 -7.357158e+00 -9.323121e+00 -6.599636e+00 -8.331920e+00 -5.680333e+00 -7.163978e+00 -4.602058e+00 -5.822721e+00 -3.368821e+00 -4.312783e+00 -1.985958e+00 -2.640172e+00 -4.601885e-01 -8.123875e-01 1.200383e+00 1.161505e+00 2.986316e+00 3.270832e+00 4.886892e+00 5.503279e+00 6.890184e+00 7.844886e+00 8.983106e+00 1.028003e+01 1.115144e+01 1.279142e+01 1.337985e+01 1.536013e+01 1.565185e+01 1.796561e+01 1.794982e+01 2.058572e+01 2.025496e+01 2.319687e+01 2.254732e+01 2.577410e+01 2.480581e+01 2.829122e+01 2.700829e+01 3.072105e+01 2.913166e+01 3.303558e+01 3.115201e+01 3.520627e+01 3.304478e+01 3.720429e+01 3.478499e+01 3.900088e+01 3.634746e+01 4.056766e+01 3.770715e+01 4.187715e+01 3.883949e+01 4.290322e+01 3.972088e+01 4.362175e+01 4.032928e+01 4.401141e+01 4.064495e+01 4.405448e+01 4.065132e+01 4.373791e+01 4.033606e+01 4.305436e+01 3.969211e+01 4.200320e+01 3.871879e+01 4.059151e+01 3.742275e+01 3.883474e+01 3.581855e+01 3.675699e+01 3.392897e+01 3.439082e+01 3.178462e+01 3.177644e+01 2.942313e+01 2.896034e+01 2.688763e+01 2.599337e+01 2.422491e+01 2.292859e+01 2.148327e+01 1.981888e+01 1.871033e+01 1.671480e+01 1.595109e+01 1.366270e+01 1.324631e+01 1.070340e+01 1.063137e+01 7.871327e+00 8.135717e+00 5.194228e+00 5.782664e+00 2.693358e+00 3.589725e+00 3.839918e-01 1.569154e+00 -1.723825e+00 -2.713057e-01 
-4.824921e+00 -3.065054e+00 -6.484438e+00 -4.502151e+00 -7.931899e+00 -5.752982e+00 -9.170793e+00 -6.820919e+00 -1.020548e+01 -7.709861e+00 -1.104059e+01 -8.423724e+00 -1.168060e+01 -8.966065e+00 -1.212950e+01 -9.339819e+00 -1.239059e+01 -9.547162e+00 -1.246637e+01 -9.589494e+00 -1.235859e+01 -9.467525e+00 -1.206838e+01 -9.181471e+00 -1.159641e+01 -8.731325e+00 -1.094319e+01 -8.117179e+00 -1.010937e+01 -7.339577e+00 -9.096049e+00 -6.399838e+00 -7.905113e+00 -5.300346e+00 -6.539476e+00 -4.044761e+00 -5.003332e+00 -2.638157e+00 -3.302320e+00 -1.087074e+00 -1.443651e+00 6.004939e-01 5.638203e-01 2.415152e+00 2.709548e+00 4.346183e+00 4.981264e+00 6.381613e+00 7.364961e+00 8.508269e+00 9.844873e+00 1.071180e+01 1.240346e+01 1.297666e+01 1.502142e+01 1.528609e+01 1.767767e+01 1.762209e+01 2.034945e+01 1.996539e+01 2.301235e+01 2.229542e+01 2.564049e+01 2.459038e+01 2.820663e+01 2.682732e+01 3.068246e+01 2.898222e+01 3.303879e+01 3.103023e+01 3.524582e+01 3.294580e+01 3.727352e+01 3.470297e+01 3.909191e+01 3.627565e+01 4.067149e+01 3.763789e+01 4.198373e+01 3.876436e+01 4.300156e+01 3.963075e+01 4.370010e+01 4.021447e+01 4.405744e+01 4.049538e+01 4.405555e+01 4.045678e+01 4.368142e+01 4.008644e+01 4.292808e+01 3.937776e+01 4.179579e+01 3.833094e+01 4.029300e+01 3.695391e+01 3.843704e+01 3.526299e+01 3.625439e+01 3.328310e+01 3.378041e+01 3.104735e+01 3.105838e+01 2.859605e+01 2.813798e+01 2.597506e+01 2.507319e+01 2.323377e+01 2.191983e+01 2.042274e+01 1.873309e+01 1.759141e+01 1.556519e+01 1.478598e+01 1.246343e+01 1.204775e+01 9.468831e+00 9.412051e+00 6.615370e+00 6.907675e+00 3.929804e+00 4.556868e+00 1.431977e+00 2.375736e+00 -8.645182e-01 3.749340e-01 -2.951443e+00 -1.439468e+00 