# vtk DataFile Version 2.0
Comment goes here
ASCII

DATASET STRUCTURED_POINTS
FIELD FieldData 1
TIME 1 1 double
0.15500000
DIMENSIONS    128   128   1

ORIGIN    0.000   0.000   0.000
SPACING   0.039062 0.039062   1.000

POINT_DATA   16384
SCALARS P double
LOOKUP_TABLE default

-6.399873e-02 -2.273740e+00 -7.810917e-01 -2.965848e+00 -1.412261e+00 -3.556365e+00 -1.954229e+00 -4.042604e+00 -2.404487e+00 -4.422596e+00 -2.761188e+00 -4.694988e+00 -3.023044e+00 -4.858963e+00 -3.189269e+00 -4.914196e+00 -3.259525e+00 -4.860832e+00 -3.233915e+00 -4.699503e+00 -3.112994e+00 -4.431363e+00 -2.897799e+00 -4.058141e+00 -2.589906e+00 -3.582213e+00 -2.191481e+00 -3.006674e+00 -1.705347e+00 -2.335401e+00 -1.135029e+00 -1.573108e+00 -4.847989e-01 -7.253833e-01 2.403113e-01 2.012996e-01 1.034512e+00 1.199595e+00 1.891283e+00 2.261323e+00 2.803428e+00 3.377530e+00 3.763140e+00 4.538567e+00 4.762092e+00 5.734195e+00 5.791531e+00 6.953682e+00 6.842378e+00 8.185929e+00 7.905330e+00 9.419582e+00 8.970949e+00 1.064315e+01 1.002976e+01 1.184510e+01 1.107229e+01 1.301400e+01 1.208919e+01 1.413856e+01 1.307121e+01 1.520777e+01 1.400931e+01 1.621096e+01 1.489464e+01 1.713784e+01 1.571860e+01 1.797865e+01 1.647286e+01 1.872417e+01 1.714943e+01 1.936585e+01 1.774070e+01 1.989585e+01 1.823951e+01 2.030722e+01 1.863926e+01 2.059393e+01 1.893400e+01 2.075107e+01 1.911861e+01 2.077497e+01 1.918889e+01 2.066332e+01 1.914176e+01 2.041534e+01 1.897544e+01 2.003193e+01 1.868954e+01 1.951573e+01 1.828529e+01 1.887124e+01 1.776560e+01 1.810483e+01 1.713510e+01 1.722474e+01 1.640026e+01 1.624099e+01 1.556923e+01 1.516524e+01 1.465182e+01 1.401056e+01 1.365928e+01 1.279123e+01 1.260409e+01 1.152239e+01 1.149967e+01 1.021969e+01 1.036007e+01 8.898993e+00 9.199610e+00 7.575960e+00 8.032549e+00 6.265771e+00 6.872767e+00 4.982817e+00 5.733473e+00 3.740459e+00 4.626968e+00 2.550859e+00 3.564467e+00 1.424859e+00 2.555985e+00 3.719318e-01 1.610278e+00 -5.998104e-01 7.348507e-01 -1.483564e+00 
7.659339e-01 -1.420945e+00 -5.202678e-03 -2.165485e+00 -6.872009e-01 -2.805108e+00 -1.276462e+00 -3.336845e+00 -1.770233e+00 -3.758511e+00 -2.166482e+00 -4.068599e+00 -2.463801e+00 -4.266187e+00 -2.661326e+00 -4.350890e+00 -2.758683e+00 -4.322826e+00 -2.755972e+00 -4.182629e+00 -2.653767e+00 -3.931474e+00 -2.453148e+00 -3.571134e+00 -2.155747e+00 -3.104036e+00 -1.763799e+00 -2.533337e+00 -1.280199e+00 -1.862982e+00 -7.085532e-01 -1.097759e+00 -5.321337e-02 -2.433306e-01 6.807073e-01 6.937546e-01 1.487339e+00 1.706074e+00 2.360083e+00 2.785370e+00 3.291664e+00 3.922611e+00 4.274198e+00 5.108067e+00 5.299280e+00 6.331412e+00 6.358072e+00 7.581826e+00 7.441407e+00 8.848109e+00 8.539881e+00 1.011880e+01 9.643945e+00 1.138226e+01 1.074398e+01 1.262685e+01 1.183038e+01 1.384093e+01 1.289359e+01 1.501303e+01 1.392416e+01 1.613189e+01 1.491277e+01 1.718656e+01 1.585027e+01 1.816644e+01 1.672771e+01 1.906138e+01 1.753637e+01 1.986172e+01 1.826777e+01 2.055842e+01 1.891379e+01 2.114310e+01 1.946669e+01 2.160816e+01 1.991923e+01 2.194691e+01 2.026476e+01 2.215372e+01 2.049742e+01 2.222415e+01 2.061224e+01 2.215510e+01 2.060537e+01 2.194501e+01 2.047424e+01 2.159399e+01 2.021772e+01 2.110398e+01 1.983634e+01 2.047884e+01 1.933241e+01 1.972439e+01 1.871011e+01 1.884849e+01 1.797554e+01 1.786090e+01 1.713669e+01 1.677323e+01 1.620340e+01 1.559868e+01 1.518710e+01 1.435183e+01 1.410069e+01 1.304830e+01 1.295814e+01 1.170441e+01 1.177421e+01 1.033677e+01 1.056405e+01 8.961932e+00 9.342854e+00 7.596014e+00 8.125463e+00 6.254376e+00 6.926074e+00 4.951349e+00 5.757957e+00 3.700027e+00 4.633254e+00 2.512133e+00 3.562835e+00 1.397948e+00 2.556233e+00 3.663023e-01 1.621637e+00 -5.753700e-01 
-1.055007e-01 -2.323463e+00 -8.247984e-01 -3.017449e+00 -1.457717e+00 -3.609411e+00 -2.001032e+00 -4.096717e+00 -2.452285e+00 -4.477442e+00 -2.809669e+00 -4.750267e+00 -3.071929e+00 -4.914397e+00 -3.238297e+00 -4.969515e+00 -3.308446e+00 -4.915764e+00 -3.282475e+00 -4.753763e+00 -3.160928e+00 -4.484641e+00 -2.944825e+00 -4.110105e+00 -2.635719e+00 -3.632501e+00 -2.235756e+00 -3.054899e+00 -1.747739e+00 -2.381156e+00 -1.175182e+00 -1.615975e+00 -5.223526e-01 -7.649410e-01 2.057134e-01 1.654636e-01 1.003211e+00 1.167875e+00 1.863595e+00 2.234083e+00 2.779636e+00 3.355097e+00 3.743487e+00 4.521224e+00 4.746777e+00 5.722171e+00 5.780707e+00 6.947157e+00 6.836151e+00 8.185024e+00 7.903761e+00 9.424364e+00 8.974064e+00 1.065363e+01 1.003754e+01 1.186126e+01 1.108471e+01 1.303574e+01 1.210618e+01 1.416578e+01 1.309270e+01 1.524030e+01 1.403520e+01 1.624859e+01 1.492481e+01 1.718035e+01 1.575292e+01 1.802577e+01 1.651118e+01 1.877558e+01 1.719157e+01 1.942118e+01 1.778643e+01 1.995470e+01 1.828857e+01 2.036909e+01 1.869132e+01 2.065829e+01 1.898867e+01 2.081731e+01 1.917540e+01 2.084238e+01 1.924725e+01 2.073115e+01 1.920105e+01 2.048276e+01 1.903494e+01 2.009805e+01 1.874846e+01 1.957963e+01 1.834279e+01 1.893197e+01 1.782078e+01 1.816147e+01 1.718709e+01 1.727639e+01 1.644818e+01 1.628684e+01 1.561228e+01 1.520456e+01 1.468927e+01 1.404278e+01 1.369051e+01 1.281592e+01 1.262864e+01 1.153927e+01 1.151723e+01 1.022867e+01 1.037049e+01 8.900152e+00 9.202910e+00 7.569538e+00 8.028910e+00 6.252148e+00 6.862509e+00 4.962487e+00 5.717030e+00 3.714006e+00 4.604863e+00 2.518919e+00 3.537281e+00 1.388097e+00 2.524326e+00 3.310122e-01 1.574758e+00 -6.442473e-01 6.960618e-01 -1.530918e+00 
6.801043e-01 -1.523370e+00 -9.584396e-02 -2.272025e+00 -7.816598e-01 -2.914820e+00 -1.373860e+00 -3.448902e+00 -1.869798e+00 -3.872186e+00 -2.267536e+00 -4.183242e+00 -2.565737e+00 -4.381201e+00 -2.763585e+00 -4.465701e+00 -2.860732e+00 -4.436862e+00 -2.857277e+00 -4.295296e+00 -2.753779e+00 -4.042140e+00 -2.551287e+00 -3.679118e+00 -2.251394e+00 -3.208606e+00 -1.856295e+00 -2.633713e+00 -1.368852e+00 -1.958347e+00 -7.926489e-01 -1.187275e+00 -1.320295e-01 -3.261529e-01 6.078818e-01 6.184515e-01 1.421185e+00 1.639079e+00 2.301232e+00 2.727414e+00 3.240682e+00 3.874350e+00 4.231574e+00 5.070069e+00 5.265415e+00 6.304146e+00 6.333278e+00 7.565656e+00 7.425906e+00 8.843291e+00 8.533814e+00 1.012548e+01 9.647376e+00 1.140050e+01 1.075692e+01 1.265660e+01 1.185277e+01 1.388206e+01 1.292534e+01 1.506534e+01 1.396515e+01 1.619510e+01 1.496286e+01 1.726032e+01 1.590929e+01 1.825033e+01 1.679544e+01 1.915491e+01 1.761257e+01 1.996434e+01 1.835213e+01 2.066945e+01 1.900594e+01 2.126176e+01 1.956613e+01 2.173356e+01 2.002535e+01 2.207802e+01 2.037683e+01 2.228934e+01 2.061451e+01 2.236291e+01 2.073326e+01 2.229549e+01 2.072903e+01 2.208534e+01 2.059905e+01 2.173245e+01 2.034206e+01 2.123863e+01 1.995843e+01 2.060769e+01 1.945037e+01 1.984545e+01 1.882201e+01 1.895981e+01 1.807947e+01 1.796068e+01 1.723086e+01 1.685984e+01 1.628615e+01 1.567076e+01 1.525704e+01 1.440835e+01 1.415670e+01 1.308857e+01 1.299945e+01 1.172810e+01 1.180040e+01 1.034394e+01 1.057508e+01 8.952999e+00 9.339033e+00 7.571706e+00 8.107414e+00 6.215686e+00 6.894685e+00 4.899473e+00 5.714319e+00 3.636298e+00 4.578594e+00 2.437955e+00 3.498454e+00 1.314733e+00 2.483447e+00 2.754260e-01 1.541726e+00 -6.726143e-01 
-2.305421e-01 -2.473149e+00 -9.564023e-01 -3.172714e+00 -1.594517e+00 -3.768960e+00 -2.141826e+00 -4.259421e+00 -2.596022e+00 -4.642311e+00 -2.955424e+00 -4.916413e+00 -3.218876e+00 -5.080999e+00 -3.385667e+00 -5.135778e+00 -3.455496e+00 -5.080882e+00 -3.428454e+00 -4.916882e+00 -3.305047e+00 -4.644844e+00 -3.086238e+00 -4.266389e+00 -2.773513e+00 -3.783780e+00 -2.368952e+00 -3.200007e+00 -1.875299e+00 -2.518865e+00 -1.296029e+00 -1.745020e+00 -6.353934e-01 -8.840502e-01 1.015558e-01 5.753975e-02 9.089685e-01 1.072328e+00 1.780226e+00 2.152016e+00 2.707996e+00 3.287498e+00 3.684310e+00 4.468944e+00 4.700662e+00 5.685907e+00 5.748110e+00 6.927442e+00 6.817389e+00 8.182225e+00 7.899018e+00 9.438682e+00 8.983404e+00 1.068511e+01 1.006093e+01 1.190979e+01 1.112202e+01 1.310109e+01 1.215723e+01 1.424757e+01 1.315724e+01 1.533806e+01 1.411294e+01 1.636173e+01 1.501543e+01 1.730816e+01 1.585602e+01 1.816743e+01 1.662632e+01 1.893016e+01 1.731820e+01 1.958759e+01 1.792391e+01 2.013170e+01 1.843609e+01 2.055526e+01 1.884791e+01 2.085200e+01 1.915314e+01 2.101670e+01 1.934633e+01 2.104540e+01 1.942297e+01 2.093549e+01 1.937965e+01 2.068592e+01 1.921423e+01 2.029735e+01 1.892606e+01 1.977226e+01 1.851614e+01 1.911510e+01 1.798722e+01 1.833227e+01 1.734392e+01 1.743216e+01 1.659277e+01 1.642509e+01 1.574215e+01 1.532312e+01 1.480221e+01 1.413987e+01 1.378468e+01 1.289022e+01 1.270260e+01 1.158998e+01 1.157003e+01 1.025552e+01 1.040171e+01 8.903377e+00 9.212615e+00 7.549879e+00 8.017659e+00 6.210768e+00 6.831283e+00 4.900900e+00 5.667161e+00 3.633988e+00 4.537949e+00 2.422415e+00 3.455091e+00 1.277126e+00 2.428714e+00 2.075891e-01 1.467581e+00 -7.781830e-01 5.791134e-01 -1.673554e+00 
5.072829e-01 -1.729343e+00 -2.781786e-01 -2.486107e+00 -9.715170e-01 -3.135133e+00 -1.569489e+00 -3.673808e+00 -2.069672e+00 -4.100252e+00 -2.470317e+00 -4.413194e+00 -2.770235e+00 -4.611869e+00 -2.968706e+00 -4.695964e+00 -3.065429e+00 -4.665597e+00 -3.060504e+00 -4.521330e+00 -2.954449e+00 -4.264217e+00 -2.748247e+00 -3.895879e+00 -2.443405e+00 -3.418584e+00 -2.042036e+00 -2.835338e+00 -1.546927e+00 -2.149971e+00 -9.616137e-01 -1.367198e+00 -2.904214e-01 -4.926712e-01 4.615041e-01 4.670119e-01 1.288201e+00 1.504315e+00 2.182921e+00 2.610805e+00 3.138191e+00 3.777222e+00 4.145887e+00 4.993568e+00 5.197338e+00 6.249216e+00 6.283433e+00 7.533025e+00 7.394733e+00 8.833471e+00 8.521582e+00 1.013877e+01 9.654207e+00 1.143700e+01 1.078280e+01 1.271620e+01 1.189761e+01 1.396451e+01 1.298894e+01 1.517022e+01 1.404727e+01 1.632184e+01 1.506320e+01 1.740823e+01 1.602750e+01 1.841859e+01 1.693114e+01 1.934254e+01 1.776525e+01 2.017021e+01 1.852123e+01 2.089225e+01 1.919069e+01 2.149997e+01 1.976560e+01 2.198540e+01 2.023835e+01 2.234142e+01 2.060188e+01 2.256192e+01 2.084978e+01 2.264196e+01 2.097657e+01 2.257795e+01 2.097780e+01 2.236783e+01 2.085033e+01 2.201128e+01 2.059253e+01 2.150992e+01 2.020448e+01 2.086738e+01 1.968819e+01 2.008950e+01 1.904769e+01 1.918426e+01 1.828915e+01 1.816183e+01 1.742083e+01 1.703440e+01 1.645306e+01 1.581596e+01 1.539802e+01 1.452206e+01 1.426947e+01 1.316938e+01 1.308244e+01 1.177539e+01 1.185279e+01 1.035784e+01 1.059680e+01 8.934374e+00 9.330735e+00 7.522063e+00 8.070395e+00 6.137074e+00 6.830780e+00 4.794350e+00 5.625775e+00 3.507396e+00 4.467930e+00 2.288139e+00 3.368331e+00 1.146883e+00 2.336546e+00 9.232855e-02 1.380645e+00 -8.683441e-01 
-4.407371e-01 -2.724357e+00 -1.177358e+00 -3.433025e+00 -1.823954e+00 -4.036235e+00 -2.377756e+00 -4.531805e+00 -2.836720e+00 -4.918189e+00 -3.199384e+00 -5.194350e+00 -3.464755e+00 -5.359671e+00 -3.632226e+00 -5.413898e+00 -3.701532e+00 -5.357138e+00 -3.672742e+00 -5.189882e+00 -3.546294e+00 -4.913070e+00 -3.323046e+00 -4.528175e+00 -3.004360e+00 -4.037305e+00 -2.592194e+00 -3.443310e+00 -2.089186e+00 -2.749874e+00 -1.498739e+00 -1.961594e+00 -8.250731e-01 -1.084031e+00 -7.326392e-02 -1.237315e-01 7.507618e-01 9.117859e-01 1.640256e+00 2.014073e+00 2.587713e+00 3.173824e+00 3.584953e+00 4.380975e+00 4.623235e+00 5.624816e+00 5.693373e+00 6.894121e+00 6.785859e+00 8.177284e+00 7.890988e+00 9.462449e+00 8.998962e+00 1.073765e+01 1.009999e+01 1.199091e+01 1.118437e+01 1.321037e+01 1.224254e+01 1.438440e+01 1.326509e+01 1.550162e+01 1.424286e+01 1.655103e+01 1.516685e+01 1.752205e+01 1.602833e+01 1.840455e+01 1.681879e+01 1.918896e+01 1.752996e+01 1.986630e+01 1.815391e+01 2.042826e+01 1.868303e+01 2.086733e+01 1.911019e+01 2.117688e+01 1.942881e+01 2.135132e+01 1.963306e+01 2.138630e+01 1.971798e+01 2.127882e+01 1.967971e+01 2.102747e+01 1.951569e+01 2.063260e+01 1.922491e+01 2.009649e+01 1.880802e+01 1.942344e+01 1.826760e+01 1.861992e+01 1.760821e+01 1.769452e+01 1.683646e+01 1.665790e+01 1.596103e+01 1.552267e+01 1.499249e+01 1.430311e+01 1.394318e+01 1.301492e+01 1.282688e+01 1.167476e+01 1.165849e+01 1.029994e+01 1.045361e+01 8.907893e+00 9.228130e+00 7.515774e+00 7.997769e+00 6.140067e+00 6.777706e+00 4.796227e+00 5.582215e+00 3.498405e+00 4.424396e+00 2.259263e+00 3.315979e+00 1.089864e+00 2.267223e+00 -3.488295e-04 1.286881e+00 -1.003506e+00 3.822481e-01 -1.913204e+00 
2.451272e-01 -2.041117e+00 -5.543169e-01 -2.809731e+00 -1.258648e+00 -3.467812e+00 -1.865007e+00 -4.013127e+00 -2.371325e+00 -4.444120e+00 -2.776153e+00 -4.759763e+00 -3.078527e+00 -4.959453e+00 -3.277876e+00 -5.042945e+00 -3.373962e+00 -5.010344e+00 -3.366877e+00 -4.862123e+00 -3.257066e+00 -4.599198e+00 -3.045394e+00 -4.223016e+00 -2.733228e+00 -3.735662e+00 -2.322536e+00 -3.139977e+00 -1.815983e+00 -2.439658e+00 -1.217017e+00 -1.639341e+00 -5.299312e-01 -7.446564e-01 2.400984e-01 2.377466e-01 1.087017e+00 1.300214e+00 2.003920e+00 2.434132e+00 2.983123e+00 3.630003e+00 4.016251e+00 4.877546e+00 5.094353e+00 6.165821e+00 6.208027e+00 7.483356e+00 7.347551e+00 8.818290e+00 8.503005e+00 1.015851e+01 9.664386e+00 1.149178e+01 1.082170e+01 1.280587e+01 1.196502e+01 1.408865e+01 1.308459e+01 1.532817e+01 1.417076e+01 1.651277e+01 1.521408e+01 1.763109e+01 1.620528e+01 1.867214e+01 1.713523e+01 1.962536e+01 1.799499e+01 2.048062e+01 1.877576e+01 2.122834e+01 1.946896e+01 2.185948e+01 2.006626e+01 2.236571e+01 2.055969e+01 2.273947e+01 2.094171e+01 2.297418e+01 2.120543e+01 2.306435e+01 2.134476e+01 2.300587e+01 2.135466e+01 2.279614e+01 2.123138e+01 2.243440e+01 2.097273e+01 2.192187e+01 2.057832e+01 2.126198e+01 2.004980e+01 2.046047e+01 1.939103e+01 1.952552e+01 1.860822e+01 1.846765e+01 1.770992e+01 1.729966e+01 1.670697e+01 1.603637e+01 1.561227e+01 1.469432e+01 1.444054e+01 1.329135e+01 1.320791e+01 1.184611e+01 1.193141e+01 1.037756e+01 1.062851e+01 8.904485e+00 9.316601e+00 7.444969e+00 8.012501e+00 6.016008e+00 6.732037e+00 4.633172e+00 5.489721e+00 3.310367e+00 4.298512e+00 2.059714e+00 3.169690e+00 8.915107e-01 2.112830e+00 -1.857108e-01 1.135848e+00 -1.165060e+00 
-7.388008e-01 -3.079689e+00 -1.490096e+00 -3.800680e+00 -2.148179e+00 -4.413252e+00 -2.710715e+00 -4.915652e+00 -3.176055e+00 -5.306687e+00 -3.543063e+00 -5.585583e+00 -3.810985e+00 -5.751876e+00 -3.979356e+00 -5.805366e+00 -4.047955e+00 -5.746107e+00 -4.016811e+00 -5.574457e+00 -3.886241e+00 -5.291157e+00 -3.656937e+00 -4.897448e+00 -3.330065e+00 -4.395196e+00 -2.907385e+00 -3.787032e+00 -2.391369e+00 -3.076466e+00 -1.785300e+00 -2.267986e+00 -1.093350e+00 -1.367127e+00 -3.206210e-01 -3.804881e-01 5.268502e-01 6.842686e-01 1.442127e+00 1.818475e+00 2.417444e+00 3.012539e+00 3.444313e+00 4.256049e+00 4.513644e+00 5.537915e+00 5.615890e+00 6.846502e+00 6.741189e+00 8.169793e+00 7.879504e+00 9.495529e+00 9.020748e+00 1.081135e+01 1.015489e+01 1.210495e+01 1.127203e+01 1.336414e+01 1.236245e+01 1.457700e+01 1.341668e+01 1.573191e+01 1.442542e+01 1.681761e+01 1.537965e+01 1.782331e+01 1.627052e+01 1.873863e+01 1.708940e+01 1.955372e+01 1.782785e+01 2.025931e+01 1.847767e+01 2.084670e+01 1.903094e+01 2.130797e+01 1.948008e+01 2.163598e+01 1.981804e+01 2.182462e+01 2.003837e+01 2.186894e+01 2.013549e+01 2.176537e+01 2.010489e+01 2.151195e+01 1.994337e+01 2.110857e+01 1.964933e+01 2.055714e+01 1.922296e+01 1.986180e+01 1.866652e+01 1.902903e+01 1.798444e+01 1.806769e+01 1.718348e+01 1.698896e+01 1.627267e+01 1.580621e+01 1.526324e+01 1.453472e+01 1.416840e+01 1.319132e+01 1.300303e+01 1.179402e+01 1.178325e+01 1.036144e+01 1.052598e+01 8.912338e+00 9.248392e+00 7.465121e+00 7.967443e+00 6.037339e+00 6.699374e+00 4.645310e+00 5.459332e+00 3.303816e+00 4.261050e+00 2.025897e+00 3.116654e+00 8.227607e-01 2.036562e+00 -2.962185e-01 1.029480e+00 -1.323411e+00 1.024925e-01 -2.252780e+00 
-1.099195e-01 -2.462085e+00 -9.274397e-01 -3.245888e+00 -1.645857e+00 -3.915475e+00 -2.262872e+00 -4.469162e+00 -2.776924e+00 -4.905851e+00 -3.186988e+00 -5.224857e+00 -3.492416e+00 -5.425794e+00 -3.692832e+00 -5.508501e+00 -3.788078e+00 -5.473044e+00 -3.778213e+00 -5.319755e+00 -3.663559e+00 -5.049329e+00 -3.444794e+00 -4.662946e+00 -3.123062e+00 -4.162418e+00 -2.700109e+00 -3.550330e+00 -2.178406e+00 -2.830180e+00 -1.561268e+00 -2.006479e+00 -8.529305e-01 -1.084826e+00 -5.860386e-02 -7.193593e-02 8.155276e-01 1.024375e+00 1.762341e+00 2.195239e+00 2.773852e+00 3.430824e+00 3.841326e+00 4.720457e+00 4.955416e+00 6.052755e+00 6.106307e+00 7.415785e+00 7.283877e+00 8.797218e+00 8.477837e+00 1.018449e+01 9.677864e+00 1.156494e+01 1.087370e+01 1.292594e+01 1.205525e+01 1.425504e+01 1.321258e+01 1.553999e+01 1.433598e+01 1.676886e+01 1.541594e+01 1.793005e+01 1.644313e+01 1.901235e+01 1.740835e+01 2.000495e+01 1.830254e+01 2.089745e+01 1.911673e+01 2.167990e+01 1.984205e+01 2.234287e+01 2.046981e+01 2.287752e+01 2.099150e+01 2.327571e+01 2.139901e+01 2.353016e+01 2.168470e+01 2.363468e+01 2.184169e+01 2.358436e+01 2.186407e+01 2.337588e+01 2.174724e+01 2.300777e+01 2.148817e+01 2.248070e+01 2.108579e+01 2.179772e+01 2.054120e+01 2.096447e+01 1.985801e+01 1.998929e+01 1.904241e+01 1.888321e+01 1.810332e+01 1.765986e+01 1.705228e+01 1.633522e+01 1.590325e+01 1.492723e+01 1.467227e+01 1.345534e+01 1.337702e+01 1.193991e+01 1.203622e+01 1.040161e+01 1.066903e+01 8.860833e+00 9.294448e+00 7.337082e+00 7.930707e+00 5.848512e+00 6.594796e+00 4.411544e+00 5.302079e+00 3.040621e+00 4.066053e+00 1.748083e+00 2.898229e+00 5.441759e-01 1.808138e+00 -5.628508e-01 8.034360e-01 -1.566558e+00 
-1.128586e+00 -3.542804e+00 -1.898034e+00 -4.278875e+00 -2.570180e+00 -4.902790e+00 -3.143307e+00 -5.413393e+00 -3.616317e+00 -5.809984e+00 -3.988521e+00 -6.092138e+00 -4.259488e+00 -6.259599e+00 -4.428935e+00 -6.312217e+00 -4.496688e+00 -6.249957e+00 -4.462695e+00 -6.072968e+00 -4.327087e+00 -5.781693e+00 -4.090297e+00 -5.377025e+00 -3.753196e+00 -4.860478e+00 -3.317250e+00 -4.234358e+00 -2.784678e+00 -3.501920e+00 -2.158583e+00 -2.667494e+00 -1.443054e+00 -1.736565e+00 -6.432237e-01 -7.158072e-01 2.347247e-01 3.869291e-01 1.183595e+00 1.562676e+00 2.195268e+00 2.801447e+00 3.260822e+00 4.092365e+00 4.370690e+00 5.423816e+00 5.514826e+00 6.783619e+00 6.682882e+00 8.159198e+00 7.864371e+00 9.537755e+00 9.048817e+00 1.090643e+01 1.022587e+01 1.225244e+01 1.138538e+01 1.356321e+01 1.251749e+01 1.482645e+01 1.361258e+01 1.603022e+01 1.466132e+01 1.716301e+01 1.565460e+01 1.821372e+01 1.658349e+01 1.917172e+01 1.743925e+01 2.002683e+01 1.821322e+01 2.076937e+01 1.889690e+01 2.139022e+01 1.948194e+01 2.188087e+01 1.996023e+01 2.223355e+01 2.032402e+01 2.244142e+01 2.056610e+01 2.249872e+01 2.068002e+01 2.240110e+01 2.066036e+01 2.214581e+01 2.050302e+01 2.173204e+01 2.020556e+01 2.116120e+01 1.976751e+01 2.043711e+01 1.919062e+01 1.956627e+01 1.847914e+01 1.855783e+01 1.763994e+01 1.742365e+01 1.668255e+01 1.617812e+01 1.561904e+01 1.483786e+01 1.446383e+01 1.342132e+01 1.323329e+01 1.194826e+01 1.194524e+01 1.043918e+01 1.061841e+01 8.914655e+00 9.271779e+00 7.394779e+00 7.923972e+00 5.898565e+00 6.592699e+00 4.443494e+00 5.294275e+00 3.045171e+00 4.043270e+00 1.717111e+00 2.852301e+00 4.706646e-01 1.731948e+00 -6.849420e-01 6.907995e-01 -1.742462e+00 -2.644084e-01 -2.696411e+00 
-5.626792e-01 -2.996798e+00 -1.401811e+00 -3.798539e+00 -2.136858e+00 -4.481548e+00 -2.766301e+00 -5.044892e+00 -3.289273e+00 -5.488089e+00 -3.705318e+00 -5.810913e+00 -4.014206e+00 -6.013249e+00 -4.215806e+00 -6.095029e+00 -4.310042e+00 -6.056236e+00 -4.296897e+00 -5.896979e+00 -4.176495e+00 -5.617620e+00 -3.949223e+00 -5.218946e+00 -3.615894e+00 -4.702365e+00 -3.177918e+00 -4.070095e+00 -2.637482e+00 -3.325342e+00 -1.997693e+00 -2.472437e+00 -1.262697e+00 -1.516925e+00 -4.377372e-01 -4.656018e-01 4.708318e-01 6.734990e-01 1.455592e+00 1.891171e+00 2.508156e+00 3.177140e+00 3.619301e+00 4.520203e+00 4.779138e+00 5.908394e+00 5.977296e+00 7.329165e+00 7.203112e+00 8.769571e+00 8.445805e+00 1.021645e+01 9.694635e+00 1.165660e+01 1.093902e+01 1.307691e+01 1.216861e+01 1.446448e+01 1.337335e+01 1.580672e+01 1.454343e+01 1.709140e+01 1.566933e+01 1.830665e+01 1.674167e+01 1.944101e+01 1.775124e+01 2.048340e+01 1.868886e+01 2.142310e+01 1.954536e+01 2.224977e+01 2.031158e+01 2.295349e+01 2.097835e+01 2.352478e+01 2.153654e+01 2.395476e+01 2.197725e+01 2.423526e+01 2.229190e+01 2.435912e+01 2.247253e+01 2.432037e+01 2.251209e+01 2.411467e+01 2.240477e+01 2.373957e+01 2.214643e+01 2.319494e+01 2.173499e+01 2.248327e+01 2.117078e+01 2.160996e+01 2.045695e+01 2.058352e+01 1.959967e+01 1.941561e+01 1.860828e+01 1.812095e+01 1.749520e+01 1.671702e+01 1.627580e+01 1.522367e+01 1.496793e+01 1.366251e+01 1.359135e+01 1.205623e+01 1.216709e+01 1.042781e+01 1.071662e+01 8.799803e+00 9.261093e+00 7.193616e+00 7.820657e+00 5.628931e+00 6.413827e+00 4.123268e+00 5.057069e+00 2.691719e+00 3.764531e+00 1.346848e+00 2.547952e+00 9.874901e-02 1.416725e+00 -1.044783e+00 3.780750e-01 -2.077984e+00 
-1.615129e+00 -4.118422e+00 -2.405585e+00 -4.871674e+00 -3.093766e+00 -5.508328e+00 -3.678803e+00 -6.028034e+00 -4.160338e+00 -6.430740e+00 -4.538279e+00 -6.716484e+00 -4.812608e+00 -6.885262e+00 -4.983268e+00 -6.936966e+00 -5.050118e+00 -6.871411e+00 -5.012963e+00 -6.688429e+00 -4.871652e+00 -6.388029e+00 -4.626231e+00 -5.970601e+00 -4.277137e+00 -5.437151e+00 -3.825408e+00 -4.789524e+00 -3.272894e+00 -4.030614e+00 -2.622432e+00 -3.164522e+00 -1.877981e+00 -2.196661e+00 -1.044704e+00 -1.133795e+00 -1.289720e-01 1.597634e-02 8.616753e-01 1.243292e+00 1.918643e+00 2.537648e+00 3.032433e+00 3.887554e+00 4.192837e+00 5.280714e+00 5.389145e+00 6.704232e+00 6.610362e+00 8.144812e+00 7.845413e+00 9.588960e+00 9.083317e+00 1.102317e+01 1.031333e+01 1.243410e+01 1.152502e+01 1.380865e+01 1.270833e+01 1.513413e+01 1.385358e+01 1.639824e+01 1.495137e+01 1.758917e+01 1.599259e+01 1.869554e+01 1.696828e+01 1.970639e+01 1.786957e+01 2.061123e+01 1.868762e+01 2.139992e+01 1.941358e+01 2.206280e+01 2.003859e+01 2.259069e+01 2.055387e+01 2.297499e+01 2.095081e+01 2.320793e+01 2.122120e+01 2.328270e+01 2.135743e+01 2.319385e+01 2.135289e+01 2.293756e+01 2.120224e+01 2.251207e+01 2.090190e+01 2.191801e+01 2.045042e+01 2.115874e+01 1.984885e+01 2.024064e+01 1.910111e+01 1.917325e+01 1.821416e+01 1.796924e+01 1.719810e+01 1.664432e+01 1.606612e+01 1.521685e+01 1.483419e+01 1.370741e+01 1.352066e+01 1.213812e+01 1.214563e+01 1.053195e+01 1.073026e+01 8.911921e+00 9.295937e+00 7.300349e+00 7.863526e+00 5.718167e+00 6.452663e+00 4.184360e+00 5.081174e+00 2.715560e+00 3.764678e+00 1.325836e+00 2.516358e+00 2.663901e-02 1.346925e+00 -1.173090e+00 2.647143e-01 -2.266694e+00 -7.240841e-01 -3.249491e+00 
-1.119301e+00 -3.650976e+00 -1.982791e+00 -4.472586e+00 -2.736248e+00 -5.170198e+00 -3.379208e+00 -5.743877e+00 -3.911729e+00 -6.193955e+00 -4.334100e+00 -6.520788e+00 -4.646616e+00 -6.724595e+00 -4.849445e+00 -6.805390e+00 -4.942575e+00 -6.763007e+00 -4.925846e+00 -6.597208e+00 -4.799070e+00 -6.307865e+00 -4.562201e+00 -5.895198e+00 -4.215557e+00 -5.360034e+00 -3.760065e+00 -4.704070e+00 -3.197492e+00 -3.930102e+00 -2.530645e+00 -3.042202e+00 -1.763524e+00 -2.045834e+00 -9.014070e-01 -9.478964e-01 4.913867e-02 2.432989e-01 1.080307e+00 1.518105e+00 2.183174e+00 2.865670e+00 3.347870e+00 4.274106e+00 4.563787e+00 5.730690e+00 5.819817e+00 7.222080e+00 7.104584e+00 8.734539e+00 8.406671e+00 1.025415e+01 9.714802e+00 1.176702e+01 1.101799e+01 1.325944e+01 1.230562e+01 1.471801e+01 1.356748e+01 1.612972e+01 1.479374e+01 1.748201e+01 1.597488e+01 1.876276e+01 1.710160e+01 1.996026e+01 1.816469e+01 2.106316e+01 1.915493e+01 2.206045e+01 2.006298e+01 2.294134e+01 2.087935e+01 2.369536e+01 2.159432e+01 2.431229e+01 2.219805e+01 2.478231e+01 2.268063e+01 2.509616e+01 2.303232e+01 2.524540e+01 2.324375e+01 2.522269e+01 2.330637e+01 2.502229e+01 2.321279e+01 2.464040e+01 2.295732e+01 2.407575e+01 2.253649e+01 2.333000e+01 2.194953e+01 2.240812e+01 2.119890e+01 2.131877e+01 2.029061e+01 2.007431e+01 1.923444e+01 1.869081e+01 1.804398e+01 1.718774e+01 1.673636e+01 1.558742e+01 1.533181e+01 1.391432e+01 1.385289e+01 1.219419e+01 1.232369e+01 1.045308e+01 1.076873e+01 8.716395e+00 9.212073e+00 7.008024e+00 7.676335e+00 5.349600e+00 6.181999e+00 3.760006e+00 4.746887e+00 2.255081e+00 3.385891e+00 8.475626e-01 2.110924e+00 -4.527789e-01 9.310708e-01 -1.638860e+00 -1.471310e-01 -2.705899e+00 
-2.204711e+00 -4.812326e+00 -3.018155e+00 -5.583967e+00 -3.723516e+00 -6.233967e+00 -4.321057e+00 -6.763041e+00 -4.811397e+00 -7.171980e+00 -5.195213e+00 -7.461407e+00 -5.473012e+00 -7.631618e+00 -5.644997e+00 -7.682525e+00 -5.711031e+00 -7.613698e+00 -5.670685e+00 -7.424500e+00 -5.523381e+00 -7.114313e+00 -5.268601e+00 -6.682813e+00 -4.906157e+00 -6.130288e+00 -4.436473e+00 -5.457939e+00 -3.860870e+00 -4.668156e+00 -3.181800e+00 -3.764724e+00 -2.403031e+00 -2.752949e+00 -1.529746e+00 -1.639712e+00 -5.685575e-01 -4.334322e-01 4.725472e-01 8.560199e-01 1.584348e+00 2.217474e+00 2.756587e+00 3.638650e+00 3.978210e+00 5.106380e+00 5.237634e+00 6.606850e+00 6.523022e+00 8.125851e+00 7.822540e+00 9.649015e+00 9.124571e+00 1.116204e+01 1.041788e+01 1.265087e+01 1.169173e+01 1.410185e+01 1.293589e+01 1.550179e+01 1.414060e+01 1.683803e+01 1.529654e+01 1.809845e+01 1.639465e+01 1.927140e+01 1.742600e+01 2.034566e+01 1.838171e+01 2.131037e+01 1.925275e+01 2.215496e+01 2.002992e+01 2.286915e+01 2.070379e+01 2.344296e+01 2.126478e+01 2.386681e+01 2.170322e+01 2.413171e+01 2.200962e+01 2.422954e+01 2.217493e+01 2.415337e+01 2.219091e+01 2.389795e+01 2.205061e+01 2.346017e+01 2.174890e+01 2.283955e+01 2.128296e+01 2.203874e+01 2.065283e+01 2.106387e+01 1.986186e+01 1.992482e+01 1.891702e+01 1.863526e+01 1.782910e+01 1.721253e+01 1.661262e+01 1.567727e+01 1.528560e+01 1.405278e+01 1.386896e+01 1.236429e+01 1.238580e+01 1.063799e+01 1.086047e+01 8.900105e+00 9.317554e+00 7.175858e+00 7.780842e+00 5.488651e+00 6.272464e+00 3.859359e+00 4.812160e+00 2.305863e+00 3.416810e+00 8.428266e-01 2.100216e+00 -5.182977e-01 8.731123e-01 -1.769073e+00 -2.566296e-01 -2.903733e+00 -1.283658e+00 -3.918745e+00 
-1.787331e+00 -4.431513e+00 -2.676832e+00 -5.273813e+00 -3.449445e+00 -5.986228e+00 -4.106106e+00 -6.570132e+00 -4.648082e+00 -7.026898e+00 -5.076613e+00 -7.357616e+00 -5.392649e+00 -7.562896e+00 -5.596696e+00 -7.642809e+00 -5.688771e+00 -7.596930e+00 -5.668468e+00 -7.424499e+00 -5.535116e+00 -7.124677e+00 -5.288030e+00 -6.696871e+00 -4.926817e+00 -6.141089e+00 -4.451706e+00 -5.458299e+00 -3.863862e+00 -4.650726e+00 -3.165661e+00 -3.722088e+00 -2.360885e+00 -2.677732e+00 -1.454837e+00 -1.524686e+00 -4.543579e-01 -2.716209e-01 6.322428e-01 1.071250e+00 1.795340e+00 2.492335e+00 3.024210e+00 3.978870e+00 4.307303e+00 5.517162e+00 5.632541e+00 7.092861e+00 6.987626e+00 8.691227e+00 8.360314e+00 1.029740e+01 9.738662e+00 1.189663e+01 1.111119e+01 1.347448e+01 1.246700e+01 1.501698e+01 1.379576e+01 1.651066e+01 1.508766e+01 1.794265e+01 1.633332e+01 1.930058e+01 1.752360e+01 2.057256e+01 1.864944e+01 2.174704e+01 1.970167e+01 2.281271e+01 2.067084e+01 2.375841e+01 2.154715e+01 2.457303e+01 2.232031e+01 2.524553e+01 2.297960e+01 2.576500e+01 2.351396e+01 2.612079e+01 2.391215e+01 2.630285e+01 2.416309e+01 2.630208e+01 2.425625e+01 2.611083e+01 2.418218e+01 2.572352e+01 2.393312e+01 2.513724e+01 2.350368e+01 2.435241e+01 2.289153e+01 2.337333e+01 2.209807e+01 2.220863e+01 2.112894e+01 2.087151e+01 1.999438e+01 1.937968e+01 1.870935e+01 1.775510e+01 1.729326e+01 1.602329e+01 1.576939e+01 1.421247e+01 1.416404e+01 1.235239e+01 1.250529e+01 1.047313e+01 1.082176e+01 8.603824e+00 9.141251e+00 6.771535e+00 7.489614e+00 5.000363e+00 5.889796e+00 3.310829e+00 4.361249e+00 1.719581e+00 2.919654e+00 2.394009e-01 1.576958e+00 -1.120542e+00 3.416502e-01 -2.354251e+00 -7.807869e-01 -3.458356e+00 
-2.904911e+00 -5.631351e+00 -3.742133e+00 -6.421389e+00 -4.464710e+00 -7.084304e+00 -5.074394e+00 -7.622191e+00 -5.573076e+00 -8.036921e+00 -5.962406e+00 -8.329844e+00 -6.243540e+00 -8.501606e+00 -6.416975e+00 -8.552090e+00 -6.482522e+00 -8.480483e+00 -6.439382e+00 -8.285470e+00 -6.286346e+00 -7.965533e+00 -6.022087e+00 -7.519343e+00 -5.645522e+00 -6.946182e+00 -5.156206e+00 -6.246362e+00 -4.554711e+00 -5.421582e+00 -3.842947e+00 -4.475197e+00 -3.024401e+00 -3.412374e+00 -2.104266e+00 -2.240140e+00 -1.089463e+00 -9.673322e-01 1.143942e-02 3.955256e-01 1.188406e+00 1.836412e+00 2.430181e+00 3.342044e+00 3.724606e+00 4.898144e+00 5.058960e+00 6.489743e+00 6.420314e+00 8.101482e+00 7.795859e+00 9.717904e+00 9.173185e+00 1.132373e+01 1.054048e+01 1.290407e+01 1.188665e+01 1.444458e+01 1.320132e+01 1.593157e+01 1.447480e+01 1.735203e+01 1.569791e+01 1.869356e+01 1.686179e+01 1.994431e+01 1.795773e+01 2.109286e+01 1.897691e+01 2.212806e+01 1.991022e+01 2.303892e+01 2.074811e+01 2.381451e+01 2.148057e+01 2.444396e+01 2.209706e+01 2.491649e+01 2.258666e+01 2.522166e+01 2.293830e+01 2.534959e+01 2.314104e+01 2.529150e+01 2.318461e+01 2.504017e+01 2.305990e+01 2.459064e+01 2.275969e+01 2.394088e+01 2.227928e+01 2.309239e+01 2.161723e+01 2.205084e+01 2.077601e+01 2.082639e+01 1.976245e+01 1.943387e+01 1.858807e+01 1.789265e+01 1.726905e+01 1.622621e+01 1.582595e+01 1.446139e+01 1.428303e+01 1.262743e+01 1.266733e+01 1.075475e+01 1.100741e+01 8.873715e+00 9.332017e+00 7.013314e+00 7.668781e+00 5.200101e+00 6.043020e+00 3.457300e+00 4.476853e+00 1.804261e+00 2.988644e+00 2.562391e-01 1.592798e+00 -1.175509e+00 2.998776e-01 -2.483389e+00 -8.830500e-01 -3.662952e+00 -1.951889e+00 -4.712282e+00 