# vtk DataFile Version 2.0
Comment goes here
ASCII

DATASET STRUCTURED_POINTS
FIELD FieldData 1
TIME 1 1 double
0.04500000
DIMENSIONS    128   128   1

ORIGIN    0.000   0.000   0.000
SPACING   0.039062 0.039062   1.000

POINT_DATA   16384
SCALARS P double
LOOKUP_TABLE default

1.625033e+01 1.759278e+01 1.938158e+01 2.059767e+01 2.243591e+01 2.352002e+01 2.539516e+01 2.634141e+01 2.824055e+01 2.904274e+01 3.095254e+01 3.160413e+01 3.351076e+01 3.400495e+01 3.589415e+01 3.622392e+01 3.808107e+01 3.823937e+01 4.004966e+01 4.002958e+01 4.177817e+01 4.157321e+01 4.324543e+01 4.284977e+01 4.443137e+01 4.384014e+01 4.531748e+01 4.452709e+01 4.588740e+01 4.489585e+01 4.612730e+01 4.493447e+01 4.602637e+01 4.463431e+01 4.557712e+01 4.399028e+01 4.477566e+01 4.300112e+01 4.362188e+01 4.166949e+01 4.211954e+01 4.000209e+01 4.027638e+01 3.800962e+01 3.810406e+01 3.570674e+01 3.561821e+01 3.311204e+01 3.283831e+01 3.024784e+01 2.978768e+01 2.714016e+01 2.649340e+01 2.381849e+01 2.298619e+01 2.031567e+01 1.930032e+01 1.666767e+01 1.547342e+01 1.291331e+01 1.154623e+01 9.093939e+00 7.562340e+00 5.253048e+00 3.567697e+00 1.435718e+00 -3.898885e-01 -2.311967e+00 -4.261436e+00 -5.943654e+00 -7.997593e+00 -9.413529e+00 -1.154957e+01 -1.267721e+01 -1.487016e+01 -1.569270e+01 -1.791485e+01 -1.842132e+01 -2.064292e+01 -2.082860e+01 -2.301856e+01 -2.288518e+01 -2.501180e+01 -2.456746e+01 -2.659940e+01 -2.585816e+01 -2.776540e+01 -2.674666e+01 -2.850146e+01 -2.722912e+01 -2.880694e+01 -2.730837e+01 -2.868857e+01 -2.699355e+01 -2.815998e+01 -2.629956e+01 -2.724082e+01 -2.524639e+01 -2.595587e+01 -2.385816e+01 -2.433386e+01 -2.216229e+01 -2.240637e+01 -2.018845e+01 -2.020671e+01 -1.796766e+01 -1.776884e+01 -1.553137e+01 -1.512649e+01 -1.291075e+01 -1.231240e+01 -1.013600e+01 -9.357777e+00 -7.235912e+00 -6.291874e+00 -4.237577e+00 -3.141848e+00 -1.166210e+00 6.729074e-02 1.954827e+00 3.312550e+00 5.103894e+00 6.572725e+00 8.260835e+00 9.828072e+00 1.140667e+01 1.305993e+01 1.452322e+01 
1.698829e+01 1.837551e+01 2.015456e+01 2.141700e+01 2.324748e+01 2.437918e+01 2.624856e+01 2.724326e+01 2.913861e+01 2.998971e+01 3.189762e+01 3.259814e+01 3.450470e+01 3.504735e+01 3.693817e+01 3.731543e+01 3.917577e+01 3.938004e+01 4.119493e+01 4.121876e+01 4.297319e+01 4.280950e+01 4.448866e+01 4.413104e+01 4.572053e+01 4.516357e+01 4.664963e+01 4.588922e+01 4.725896e+01 4.629260e+01 4.753415e+01 4.636129e+01 4.746393e+01 4.608624e+01 4.704045e+01 4.546211e+01 4.625957e+01 4.448745e+01 4.512105e+01 4.316492e+01 4.362863e+01 4.150126e+01 4.179012e+01 3.950738e+01 3.961737e+01 3.719822e+01 3.712623e+01 3.459269e+01 3.433650e+01 3.171354e+01 3.127186e+01 2.858721e+01 2.795976e+01 2.524366e+01 2.443134e+01 2.171618e+01 2.072128e+01 1.804120e+01 1.686759e+01 1.425796e+01 1.291143e+01 1.040820e+01 8.896719e+00 6.535735e+00 4.869745e+00 2.685954e+00 8.786031e-01 -1.094824e+00 -3.027473e+00 -4.760051e+00 -6.798919e+00 -8.263766e+00 -1.038676e+01 -1.156148e+01 -1.374365e+01 -1.461109e+01 -1.682492e+01 -1.737384e+01 -1.958974e+01 -1.981521e+01 -2.200216e+01 -2.190572e+01 -2.403209e+01 -2.362167e+01 -2.565612e+01 -2.494564e+01 -2.685809e+01 -2.586684e+01 -2.762949e+01 -2.638120e+01 -2.796938e+01 -2.649130e+01 -2.788426e+01 -2.620601e+01 -2.738741e+01 -2.553995e+01 -2.649817e+01 -2.451276e+01 -2.524095e+01 -2.314826e+01 -2.364415e+01 -2.147353e+01 -2.173901e+01 -1.951794e+01 -1.955849e+01 -1.731220e+01 -1.713626e+01 -1.488753e+01 -1.450578e+01 -1.227483e+01 -1.169956e+01 -9.504115e+00 -8.748621e+00 -6.604033e+00 -5.682080e+00 -3.601542e+00 -2.526993e+00 -5.217839e-01 6.916788e-01 2.611915e+00 3.950955e+00 5.777909e+00 7.229596e+00 8.955996e+00 1.050778e+01 1.212710e+01 1.376673e+01 1.527291e+01 
1.627576e+01 1.762126e+01 1.941654e+01 2.063574e+01 2.248056e+01 2.356788e+01 2.544978e+01 2.639938e+01 2.830548e+01 2.911117e+01 3.102813e+01 3.168334e+01 3.359732e+01 3.409519e+01 3.599188e+01 3.632531e+01 3.819001e+01 3.835184e+01 4.016965e+01 4.015284e+01 4.190878e+01 4.170670e+01 4.338600e+01 4.299264e+01 4.458092e+01 4.399128e+01 4.547481e+01 4.468512e+01 4.605103e+01 4.505916e+01 4.629557e+01 4.510126e+01 4.619746e+01 4.480263e+01 4.574908e+01 4.415810e+01 4.494649e+01 4.316636e+01 4.378953e+01 4.183008e+01 4.228201e+01 4.015599e+01 4.043168e+01 3.815487e+01 3.825029e+01 3.584148e+01 3.575351e+01 3.323450e+01 3.296092e+01 3.035638e+01 2.989595e+01 2.723325e+01 2.658574e+01 2.389475e+01 2.306115e+01 2.037386e+01 1.935655e+01 1.670669e+01 1.550969e+01 1.293226e+01 1.156151e+01 9.092109e+00 7.555756e+00 5.229942e+00 3.538616e+00 1.391097e+00 -4.418350e-01 -2.378065e+00 -4.336303e+00 -6.030880e+00 -8.095081e+00 -9.521202e+00 -1.166898e+01 -1.280430e+01 -1.501036e+01 -1.583781e+01 -1.807425e+01 -1.858268e+01 -2.081948e+01 -2.100412e+01 -2.320979e+01 -2.307243e+01 -2.521482e+01 -2.476373e+01 -2.681101e+01 -2.606054e+01 -2.798215e+01 -2.695211e+01 -2.871982e+01 -2.743454e+01 -2.902338e+01 -2.751071e+01 -2.889972e+01 -2.718993e+01 -2.836276e+01 -2.648737e+01 -2.743253e+01 -2.542332e+01 -2.613429e+01 -2.402234e+01 -2.449729e+01 -2.231229e+01 -2.255366e+01 -2.032330e+01 -2.033723e+01 -1.808685e+01 -1.788245e+01 -1.563482e+01 -1.522345e+01 -1.299872e+01 -1.239330e+01 -1.020903e+01 -9.423444e+00 -7.294751e+00 -6.343272e+00 -4.283081e+00 -3.179991e+00 -1.199267e+00 4.141691e-02 1.933368e+00 3.298056e+00 5.093284e+00 6.568865e+00 8.260469e+00 9.834279e+00 1.141611e+01 1.307584e+01 1.454223e+01 
1.703527e+01 1.842893e+01 2.022088e+01 2.148988e+01 2.333352e+01 2.447202e+01 2.635494e+01 2.735675e+01 2.926608e+01 3.012461e+01 3.204694e+01 3.275517e+01 3.467655e+01 3.522707e+01 3.713301e+01 3.751813e+01 3.939373e+01 3.960562e+01 4.143569e+01 4.146664e+01 4.323593e+01 4.307855e+01 4.477201e+01 4.441957e+01 4.602255e+01 4.546929e+01 4.696782e+01 4.620931e+01 4.759032e+01 4.662374e+01 4.787526e+01 4.669978e+01 4.781102e+01 4.642808e+01 4.738952e+01 4.580309e+01 4.660650e+01 4.482331e+01 4.546166e+01 4.349139e+01 4.395879e+01 4.181418e+01 4.210578e+01 3.980273e+01 3.991461e+01 3.747218e+01 3.740131e+01 3.484168e+01 3.458585e+01 3.193423e+01 3.149211e+01 2.877654e+01 2.814776e+01 2.539886e+01 2.458415e+01 2.183478e+01 2.083621e+01 1.812105e+01 1.694224e+01 1.429728e+01 1.294371e+01 1.040560e+01 8.884951e+00 6.490292e+00 4.812691e+00 2.597237e+00 7.755689e-01 -1.226685e+00 -3.176562e+00 -4.934315e+00 -6.993426e+00 -8.479034e+00 -1.062526e+01 -1.181566e+01 -1.402385e+01 -1.490138e+01 -1.714365e+01 -1.769673e+01 -1.994292e+01 -2.016649e+01 -2.238482e+01 -2.228057e+01 -2.443849e+01 -2.401472e+01 -2.607987e+01 -2.535110e+01 -2.729236e+01 -2.627863e+01 -2.806721e+01 -2.679317e+01 -2.840355e+01 -2.689741e+01 -2.830816e+01 -2.660051e+01 -2.779489e+01 -2.591760e+01 -2.688386e+01 -2.486898e+01 -2.560041e+01 -2.347929e+01 -2.397398e+01 -2.177650e+01 -2.203688e+01 -1.979090e+01 -1.982311e+01 -1.755412e+01 -1.736731e+01 -1.509817e+01 -1.470374e+01 -1.245469e+01 -1.186559e+01 -9.654252e+00 -8.884311e+00 -6.725895e+00 -5.789321e+00 -3.696805e+00 -2.607773e+00 -5.921867e-01 6.354318e-01 2.564716e+00 3.917502e+00 5.752457e+00 7.217489e+00 8.951124e+00 1.051593e+01 1.214199e+01 1.379444e+01 1.530711e+01 
1.635196e+01 1.770657e+01 1.952117e+01 2.074964e+01 2.261414e+01 2.371108e+01 2.561319e+01 2.657285e+01 2.849980e+01 2.931601e+01 3.125448e+01 3.192060e+01 3.385669e+01 3.436569e+01 3.628492e+01 3.662944e+01 3.851689e+01 3.868945e+01 4.052989e+01 4.052305e+01 4.230117e+01 4.210785e+01 4.380849e+01 4.342223e+01 4.503065e+01 4.444592e+01 4.594808e+01 4.516066e+01 4.654343e+01 4.555072e+01 4.680205e+01 4.560339e+01 4.671248e+01 4.530944e+01 4.626678e+01 4.466344e+01 4.546079e+01 4.366395e+01 4.429431e+01 4.231366e+01 4.277118e+01 4.061944e+01 4.089928e+01 3.859227e+01 3.869055e+01 3.624721e+01 3.616090e+01 3.360326e+01 3.333017e+01 3.068322e+01 3.022202e+01 2.751360e+01 2.686393e+01 2.412444e+01 2.328704e+01 2.054915e+01 1.952607e+01 1.682431e+01 1.561919e+01 1.298944e+01 1.160780e+01 9.086690e+00 7.536213e+00 5.160425e+00 3.451295e+00 1.256735e+00 -5.980787e-01 -2.577176e+00 -4.561678e+00 -6.293717e+00 -8.388722e+00 -9.845736e+00 -1.202882e+01 -1.318744e+01 -1.543302e+01 -1.627536e+01 -1.855497e+01 -1.906936e+01 -2.135212e+01 -2.153358e+01 -2.378683e+01 -2.363734e+01 -2.582756e+01 -2.535594e+01 -2.744972e+01 -2.667121e+01 -2.863642e+01 -2.757200e+01 -2.937887e+01 -2.805427e+01 -2.967651e+01 -2.812106e+01 -2.953670e+01 -2.778215e+01 -2.897420e+01 -2.705347e+01 -2.801027e+01 -2.595638e+01 -2.667161e+01 -2.451666e+01 -2.498908e+01 -2.276356e+01 -2.299648e+01 -2.072865e+01 -2.072923e+01 -1.844479e+01 -1.822325e+01 -1.594512e+01 -1.551393e+01 -1.326225e+01 -1.263535e+01 -1.042753e+01 -9.619615e+00 -7.470535e+00 -6.496562e+00 -4.418806e+00 -3.293528e+00 -1.297677e+00 -3.539402e-02 1.869665e+00 3.255245e+00 5.061992e+00 6.557782e+00 8.259738e+00 9.853206e+00 1.144462e+01 1.312366e+01 1.459923e+01 
1.712902e+01 1.853537e+01 2.035298e+01 2.163496e+01 2.350481e+01 2.465684e+01 2.656675e+01 2.758278e+01 2.952002e+01 3.039348e+01 3.234469e+01 3.306845e+01 3.501957e+01 3.558601e+01 3.752234e+01 3.792340e+01 3.982969e+01 4.005711e+01 4.191776e+01 4.196324e+01 4.376252e+01 4.361808e+01 4.534037e+01 4.499861e+01 4.662877e+01 4.608325e+01 4.760687e+01 4.685246e+01 4.825612e+01 4.728939e+01 4.856086e+01 4.738040e+01 4.850881e+01 4.711556e+01 4.809140e+01 4.648894e+01 4.730413e+01 4.549888e+01 4.614660e+01 4.414807e+01 4.462271e+01 4.244356e+01 4.274053e+01 4.039674e+01 4.051234e+01 3.802316e+01 3.795450e+01 3.534244e+01 3.508736e+01 3.237809e+01 3.193519e+01 2.915736e+01 2.852606e+01 2.571107e+01 2.489178e+01 2.207341e+01 2.106775e+01 1.828178e+01 1.709284e+01 1.437649e+01 1.300915e+01 1.040049e+01 8.861788e+00 6.398949e+00 4.698384e+00 2.418753e+00 5.686464e-01 -1.492093e+00 -3.476324e+00 -5.285204e+00 -7.384828e+00 -8.912633e+00 -1.110551e+01 -1.232780e+01 -1.458842e+01 -1.548645e+01 -1.778618e+01 -1.834767e+01 -2.065519e+01 -2.087485e+01 -2.315683e+01 -2.303661e+01 -2.525862e+01 -2.480757e+01 -2.693515e+01 -2.616901e+01 -2.816888e+01 -2.710930e+01 -2.895060e+01 -2.762410e+01 -2.927951e+01 -2.771627e+01 -2.916301e+01 -2.739563e+01 -2.861610e+01 -2.667830e+01 -2.766050e+01 -2.558598e+01 -2.632349e+01 -2.414496e+01 -2.463665e+01 -2.238505e+01 -2.263451e+01 -2.033846e+01 -2.035323e+01 -1.803866e+01 -1.782939e+01 -1.551939e+01 -1.509894e+01 -1.281372e+01 -1.219636e+01 -9.953377e+00 -9.154077e+00 -6.968194e+00 -6.002040e+00 -3.885799e+00 -2.767589e+00 -7.315071e-01 5.245180e-01 2.471626e+00 3.851902e+00 5.702586e+00 7.194231e+00 8.942071e+00 1.053280e+01 1.217208e+01 1.385004e+01 1.537544e+01 
1.647867e+01 1.784816e+01 1.969471e+01 2.093842e+01 2.283552e+01 2.394836e+01 2.588403e+01 2.686043e+01 2.882210e+01 2.965591e+01 3.163030e+01 3.231477e+01 3.428786e+01 3.481566e+01 3.677273e+01 3.713609e+01 3.906178e+01 3.925264e+01 4.113120e+01 4.114146e+01 4.295695e+01 4.277876e+01 4.451536e+01 4.414143e+01 4.578378e+01 4.520776e+01 4.674124e+01 4.595809e+01 4.736913e+01 4.637546e+01 4.765173e+01 4.644619e+01 4.757675e+01 4.616032e+01 4.713569e+01 4.551196e+01 4.632408e+01 4.449951e+01 4.514165e+01 4.312569e+01 4.359231e+01 4.139763e+01 4.168422e+01 3.932671e+01 3.942964e+01 3.692846e+01 3.684488e+01 3.422244e+01 3.395021e+01 3.123206e+01 3.076974e+01 2.798445e+01 2.733142e+01 2.451031e+01 2.366689e+01 2.084374e+01 1.981146e+01 1.702211e+01 1.580394e+01 1.308579e+01 1.168648e+01 9.077897e+00 7.504350e+00 5.043898e+00 3.305515e+00 1.031141e+00 -8.598212e-01 -2.911762e+00 -4.939870e+00 -6.735657e+00 -8.882050e+00 -1.039170e+01 -1.263394e+01 -1.383231e+01 -1.614438e+01 -1.701214e+01 -1.936466e+01 -1.988919e+01 -2.224980e+01 -2.242578e+01 -2.475987e+01 -2.458956e+01 -2.686119e+01 -2.635434e+01 -2.852740e+01 -2.770085e+01 -2.974039e+01 -2.861715e+01 -3.049073e+01 -2.909895e+01 -3.077794e+01 -2.914954e+01 -3.061021e+01 -2.877950e+01 -3.000378e+01 -2.800609e+01 -2.898199e+01 -2.685244e+01 -2.757408e+01 -2.534654e+01 -2.581372e+01 -2.352000e+01 -2.373758e+01 -2.140688e+01 -2.138388e+01 -1.904245e+01 -1.879106e+01 -1.646207e+01 -1.599667e+01 -1.370019e+01 -1.303645e+01 -1.078963e+01 -9.943713e+00 -7.760981e+00 -6.748952e+00 -4.642317e+00 -3.479710e+00 -1.459086e+00 -1.606534e-01 1.765791e+00 3.186182e+00 5.011662e+00 6.541000e+00 8.259766e+00 9.885773e+00 1.149276e+01 1.320370e+01 1.469423e+01 
1.726906e+01 1.869399e+01 2.054970e+01 2.185083e+01 2.375968e+01 2.493181e+01 2.688200e+01 2.791931e+01 2.989837e+01 3.079433e+01 3.278895e+01 3.353628e+01 3.553227e+01 3.612298e+01 3.810530e+01 3.853082e+01 4.048369e+01 4.073505e+01 4.264218e+01 4.271023e+01 4.455510e+01 4.443088e+01 4.619704e+01 4.587213e+01 4.754362e+01 4.701051e+01 4.857220e+01 4.782473e+01 4.926262e+01 4.829636e+01 4.959787e+01 4.841053e+01 4.956463e+01 4.815639e+01 4.915365e+01 4.752747e+01 4.836003e+01 4.652189e+01 4.718334e+01 4.514245e+01 4.562761e+01 4.339656e+01 4.370127e+01 4.129610e+01 4.141707e+01 3.885732e+01 3.879189e+01 3.610055e+01 3.584666e+01 3.305008e+01 3.260622e+01 2.973399e+01 2.909927e+01 2.618392e+01 2.535826e+01 2.243496e+01 2.141928e+01 1.852545e+01 1.732201e+01 1.449676e+01 1.310952e+01 1.039304e+01 8.827999e+00 6.260784e+00 4.526443e+00 2.148392e+00 2.561464e-01 -1.894445e+00 -3.929923e+00 -5.817478e+00 -7.977916e+00 -9.570748e+00 -1.183405e+01 -1.310554e+01 -1.544573e+01 -1.637538e+01 -1.876274e+01 -1.933714e+01 -2.173858e+01 -2.195204e+01 -2.433183e+01 -2.418668e+01 -2.650743e+01 -2.601392e+01 -2.823784e+01 -2.741365e+01 -2.950399e+01 -2.837331e+01 -3.029588e+01 -2.888818e+01 -3.061281e+01 -2.896144e+01 -3.046315e+01 -2.860382e+01 -2.986371e+01 -2.783305e+01 -2.883873e+01 -2.667299e+01 -2.741857e+01 -2.515253e+01 -2.563821e+01 -2.330441e+01 -2.353567e+01 -2.116383e+01 -2.115049e+01 -1.876721e+01 -1.852231e+01 -1.615094e+01 -1.568968e+01 -1.335038e+01 -1.268914e+01 -1.039902e+01 -9.554506e+00 -7.327903e+00 -6.316542e+00 -4.165300e+00 -3.002810e+00 -9.366423e-01 3.622132e-01 2.335363e+00 3.756849e+00 5.630428e+00 7.161781e+00 8.930253e+00 1.055952e+01 1.221801e+01 1.393382e+01 1.547779e+01 
1.665537e+01 1.804507e+01 1.993579e+01 2.120037e+01 2.314265e+01 2.427749e+01 2.625984e+01 2.725962e+01 2.926978e+01 3.012840e+01 3.215319e+01 3.286371e+01 3.488896e+01 3.544366e+01 3.745425e+01 3.784473e+01 3.982469e+01 4.004209e+01 4.197485e+01 4.201008e+01 4.387877e+01 4.372285e+01 4.551066e+01 4.515513e+01 4.684573e+01 4.628302e+01 4.786094e+01 4.708480e+01 4.853580e+01 4.754173e+01 4.885306e+01 4.763870e+01 4.879924e+01 4.736470e+01 4.836505e+01 4.671324e+01 4.754564e+01 4.568250e+01 4.634066e+01 4.427535e+01 4.475425e+01 4.249930e+01 4.279495e+01 4.036635e+01 4.047554e+01 3.789277e+01 3.781293e+01 3.509891e+01 3.482798e+01 3.200905e+01 3.154547e+01 2.865119e+01 2.799396e+01 2.505692e+01 2.420579e+01 2.126133e+01 2.021701e+01 1.730281e+01 1.606731e+01 1.322292e+01 1.179990e+01 9.066097e+00 7.461280e+00 4.879362e+00 3.100958e+00 7.118101e-01 -1.229027e+00 -3.385960e+00 -5.474709e+00 -7.362589e+00 -9.580970e+00 -1.116682e+01 -1.349251e+01 -1.474850e+01 -1.715497e+01 -1.805962e+01 -2.051623e+01 -2.105545e+01 -2.352779e+01 -2.369567e+01 -2.614626e+01 -2.594546e+01 -2.833479e+01 -2.777647e+01 -3.006438e+01 -2.916769e+01 -3.131498e+01 -3.010605e+01 -3.207620e+01 -3.058678e+01 -3.234762e+01 -3.061349e+01 -3.213862e+01 -3.019790e+01 -3.146766e+01 -2.935922e+01 -3.036121e+01 -2.812324e+01 -2.885228e+01 -2.652113e+01 -2.697872e+01 -2.458809e+01 -2.478152e+01 -2.236187e+01 -2.230300e+01 -1.988132e+01 -1.958535e+01 -1.718506e+01 -1.666924e+01 -1.431029e+01 -1.359284e+01 -1.129192e+01 -1.039113e+01 -8.161992e+00 -7.095503e+00 -4.949291e+00 -3.733715e+00 -1.679353e+00 -3.300221e-01 1.625373e+00 3.094437e+00 4.945157e+00 6.521134e+00 8.262482e+00 9.933537e+00 1.156145e+01 1.331646e+01 1.482716e+01 
1.745455e+01 1.890341e+01 2.080913e+01 2.213516e+01 2.409537e+01 2.529393e+01 2.729744e+01 2.836303e+01 3.039772e+01 3.132387e+01 3.337656e+01 3.415580e+01 3.621210e+01 3.683597e+01 3.888038e+01 3.933957e+01 4.135555e+01 4.164010e+01 4.361038e+01 4.370996e+01 4.561686e+01 4.552117e+01 4.734702e+01 4.704617e+01 4.877383e+01 4.825883e+01 4.987210e+01 4.913534e+01 5.061940e+01 4.965509e+01 5.099685e+01 4.980147e+01 5.098969e+01 4.956237e+01 5.058777e+01 4.893062e+01 4.978575e+01 4.790414e+01 4.858317e+01 4.648592e+01 4.698438e+01 4.468393e+01 4.499837e+01 4.251086e+01 4.263855e+01 3.998387e+01 3.992257e+01 3.712434e+01 3.687214e+01 3.395764e+01 3.351290e+01 3.051288e+01 2.987430e+01 2.682283e+01 2.598963e+01 2.292373e+01 2.189589e+01 1.885515e+01 1.763376e+01 1.465985e+01 1.324751e+01 1.038351e+01 8.784801e+00 6.074407e+00 4.296360e+00 1.782949e+00 -1.644181e-01 -2.438902e+00 -4.542083e+00 -6.538386e+00 -8.779899e+00 -1.046281e+01 -1.282080e+01 -1.416054e+01 -1.660853e+01 -1.758207e+01 -2.008896e+01 -2.068120e+01 -2.321154e+01 -2.341612e+01 -2.593082e+01 -2.575060e+01 -2.820805e+01 -2.765497e+01 -3.001257e+01 -2.910710e+01 -3.132304e+01 -3.009303e+01 -3.212828e+01 -3.060750e+01 -3.242765e+01 -3.065396e+01 -3.223088e+01 -3.024445e+01 -3.155736e+01 -2.939891e+01 -3.043497e+01 -2.814427e+01 -2.889848e+01 -2.651316e+01 -2.698775e+01 -2.454247e+01 -2.474582e+01 -2.227172e+01 -2.221704e+01 -1.974153e+01 -1.944538e+01 -1.699208e+01 -1.647303e+01 -1.406194e+01 -1.333932e+01 -1.098703e+01 -1.008001e+01 -7.800048e+00 -6.726850e+00 -4.530075e+00 -3.307622e+00 -1.202601e+00 1.537218e-01 2.160266e+00 3.636594e+00 5.539362e+00 7.123197e+00 8.917891e+00 1.059784e+01 1.228076e+01 1.404619e+01 1.561387e+01 
1.688116e+01 1.829574e+01 2.024220e+01 2.153280e+01 2.353233e+01 2.469496e+01 2.673680e+01 2.776650e+01 2.983884e+01 3.072959e+01 3.281939e+01 3.356404e+01 3.565696e+01 3.624724e+01 3.832762e+01 3.875432e+01 4.080534e+01 4.105848e+01 4.306242e+01 4.313158e+01 4.507026e+01 4.494495e+01 4.680014e+01 4.647028e+01 4.822427e+01 4.768062e+01 4.931674e+01 4.855145e+01 5.005450e+01 4.906156e+01 5.041820e+01 4.919389e+01 5.039281e+01 4.893610e+01 4.996806e+01 4.828094e+01 4.913865e+01 4.722640e+01 4.790427e+01 4.577562e+01 4.626943e+01 4.393675e+01 4.424329e+01 4.172268e+01 4.183941e+01 3.915071e+01 3.907548e+01 3.624229e+01 3.597319e+01 3.302280e+01 3.255812e+01 2.952136e+01 2.885962e+01 2.577070e+01 2.491086e+01 2.180708e+01 2.074879e+01 1.767020e+01 1.641415e+01 1.340307e+01 1.195142e+01 9.051821e+00 7.408657e+00 4.665415e+00 2.837273e+00 2.952037e-01 -1.708369e+00 -4.005644e+00 -6.171515e+00 -8.182889e+00 -1.049377e+01 -1.218211e+01 -1.461605e+01 -1.594976e+01 -1.847976e+01 -1.943425e+01 -2.202818e+01 -2.258723e+01 -2.520802e+01 -2.536480e+01 -2.797110e+01 -2.772875e+01 -3.027611e+01 -2.964773e+01 -3.209027e+01 -3.109826e+01 -3.339075e+01 -3.206561e+01 -3.416569e+01 -3.254427e+01 -3.441469e+01 -3.253819e+01 -3.414874e+01 -3.206058e+01 -3.338939e+01 -3.113328e+01 -3.216748e+01 -2.978573e+01 -3.052132e+01 -2.805357e+01 -2.849464e+01 -2.597698e+01 -2.613440e+01 -2.359888e+01 -2.348868e+01 -2.096310e+01 -2.060475e+01 -1.811275e+01 -1.752756e+01 -1.508879e+01 -1.429851e+01 -1.192899e+01 -1.095472e+01 -8.667202e+00 -7.528684e+00 -5.333104e+00 -4.048267e+00 -1.952199e+00 -5.370172e-01 1.453857e+00 2.985299e+00 4.866728e+00 6.502004e+00 8.270718e+00 9.998719e+00 1.165200e+01 1.346253e+01 1.499783e+01 
1.768415e+01 1.916148e+01 2.112836e+01 2.248445e+01 2.450778e+01 2.573873e+01 2.780818e+01 2.890893e+01 3.101292e+01 3.197713e+01 3.410266e+01 3.492260e+01 3.705510e+01 3.772171e+01 3.984503e+01 4.034804e+01 4.244462e+01 4.277278e+01 4.482399e+01 4.496539e+01 4.695194e+01 4.689449e+01 4.879701e+01 4.852889e+01 5.032855e+01 4.983880e+01 5.151794e+01 5.079700e+01 5.233966e+01 5.137996e+01 5.277233e+01 5.156874e+01 5.279937e+01 5.134966e+01 5.240950e+01 5.071470e+01 5.159695e+01 4.966162e+01 5.036138e+01 4.819385e+01 4.870769e+01 4.632018e+01 4.664569e+01 4.405446e+01 4.418979e+01 4.141513e+01 4.135865e+01 3.842495e+01 3.817500e+01 3.511062e+01 3.466543e+01 3.150262e+01 3.086036e+01 2.763504e+01 2.679401e+01 2.354550e+01 2.250442e+01 1.927506e+01 1.803347e+01 1.486812e+01 1.342685e+01 1.037226e+01 8.733929e+00 5.837938e+00 4.007566e+00 1.318090e+00 -6.962743e-01 -3.132472e+00 -5.319061e+00 -7.457792e+00 -9.800428e+00 -1.160168e+01 -1.407912e+01 -1.550876e+01 -1.809416e+01 -1.912559e+01 -2.178628e+01 -2.240194e+01 -2.509948e+01 -2.529201e+01 -2.798292e+01 -2.775576e+01 -3.039270e+01 -2.976011e+01 -3.229379e+01 -3.128009e+01 -3.366161e+01 -3.229976e+01 -3.448324e+01 -3.281289e+01 -3.475800e+01 -3.282328e+01 -3.449743e+01 -3.234457e+01 -3.372446e+01 -3.139965e+01 -3.247195e+01 -3.001959e+01 -3.078077e+01 -2.824213e+01 -2.869749e+01 -2.610985e+01 -2.627201e+01 -2.366820e+01 -2.355521e+01 -2.096351e+01 -2.059691e+01 -1.804113e+01 -1.744412e+01 -1.494391e+01 -1.413984e+01 -1.171099e+01 -1.072220e+01 -8.377141e+00 -7.224169e+00 -4.972375e+00 -3.673565e+00 -1.522079e+00 -9.346334e-02 1.952620e+00 3.497188e+00 5.434230e+00 7.082779e+00 8.908116e+00 1.065014e+01 1.236163e+01 1.418762e+01 1.578320e+01 
1.715458e+01 1.859782e+01 2.061064e+01 2.193176e+01 2.399985e+01 2.519567e+01 2.730927e+01 2.837534e+01 3.052331e+01 3.145372e+01 3.362329e+01 3.441062e+01 3.658722e+01 3.722255e+01 3.938982e+01 3.986286e+01 4.200283e+01 4.230220e+01 4.439561e+01 4.450913e+01 4.653596e+01 4.645117e+01 4.839124e+01 4.809593e+01 4.992962e+01 4.941238e+01 5.112134e+01 5.037221e+01 5.193994e+01 5.095096e+01 5.236333e+01 5.112905e+01 5.237453e+01 5.089246e+01 5.196213e+01 5.023310e+01 5.112041e+01 4.914886e+01 4.984929e+01 4.764342e+01 4.815395e+01 4.572593e+01 4.604451e+01 4.341052e+01 4.353556e+01 4.071588e+01 4.064590e+01 3.766490e+01 3.739824e+01 3.428433e+01 3.381911e+01 3.060463e+01 2.993877e+01 2.665986e+01 2.579130e+01 2.248766e+01 2.141467e+01 1.812920e+01 1.685077e+01 1.362920e+01 1.214552e+01 9.035782e+00 7.348771e+00 4.400250e+00 2.514173e+00 -2.232942e-01 -2.301143e+00 -4.778512e+00 -7.037051e+00 -9.207579e+00 -1.163112e+01 -1.345211e+01 -1.601957e+01 -1.745425e+01 -2.013844e+01 -2.115788e+01 -2.392505e+01 -2.450999e+01 -2.731981e+01 -2.746201e+01 -3.026814e+01 -2.997125e+01 -3.272266e+01 -3.200233e+01 -3.464532e+01 -3.352841e+01 -3.600936e+01 -3.453235e+01 -3.680072e+01 -3.500749e+01 -3.701894e+01 -3.495805e+01 -3.667706e+01 -3.439909e+01 -3.580084e+01 -3.335589e+01 -3.442705e+01 -3.186276e+01 -3.260124e+01 -2.996134e+01 -3.037511e+01 -2.769856e+01 -2.780372e+01 -2.512434e+01 -2.494282e+01 -2.228926e+01 -2.184648e+01 -1.924243e+01 -1.856520e+01 -1.602976e+01 -1.514449e+01 -1.269267e+01 -1.162411e+01 -9.267295e+00 -8.037721e+00 -5.784229e+00 -4.413096e+00 -2.268708e+00 -7.725895e-01 1.258889e+00 2.866062e+00 4.782273e+00 6.488805e+00 8.288328e+00 1.008424e+01 1.176610e+01 1.364258e+01 1.520581e+01 
1.795577e+01 1.946508e+01 2.150315e+01 2.289367e+01 2.499099e+01 2.625979e+01 2.840720e+01 2.954983e+01 3.173656e+01 3.274686e+01 3.496020e+01 3.583017e+01 3.805533e+01 3.877516e+01 4.099519e+01 4.155341e+01 4.374939e+01 4.413309e+01 4.628457e+01 4.647983e+01 4.856533e+01 4.855770e+01 5.055550e+01 5.033069e+01 5.221965e+01 5.176412e+01 5.352453e+01 5.282627e+01 5.444060e+01 5.348972e+01 5.494323e+01 5.373258e+01 5.501358e+01 5.353923e+01 5.463910e+01 5.290073e+01 5.381367e+01 5.181486e+01 5.253735e+01 5.028578e+01 5.081597e+01 4.832361e+01 4.866060e+01 4.594377e+01 4.608699e+01 4.316647e+01 4.311518e+01 4.001619e+01 3.976911e+01 3.652131e+01 3.607654e+01 3.271390e+01 3.206893e+01 2.862956e+01 2.778154e+01 2.430748e+01 2.325352e+01 1.979037e+01 1.852803e+01 1.512453e+01 1.365233e+01 1.035972e+01 8.677729e+00 5.548986e+00 3.659527e+00 7.482697e-01 -1.343314e+00 -3.984141e+00 -6.268610e+00 -8.588381e+00 -1.105163e+01 -1.300395e+01 -1.562599e+01 -1.717082e+01 -1.992485e+01 -2.103063e+01 -2.388238e+01 -2.452808e+01 -2.743557e+01 -2.761224e+01 -3.052636e+01 -3.023812e+01 -3.310396e+01 -3.236809e+01 -3.512728e+01 -3.397329e+01 -3.656716e+01 -3.503497e+01 -3.740810e+01 -3.554543e+01 -3.764923e+01 -3.550863e+01 -3.730442e+01 -3.494019e+01 -3.640131e+01 -3.386681e+01 -3.497953e+01 -3.232500e+01 -3.308814e+01 -3.035931e+01 -3.078277e+01 -2.801998e+01 -2.812251e+01 -2.536042e+01 -2.516691e+01 -2.243461e+01 -2.197344e+01 -1.929475e+01 -1.859536e+01 -1.598926e+01 -1.508024e+01 -1.256138e+01 -1.146909e+01 -9.048375e+00 -7.796110e+00 -5.481216e+00 -4.088895e+00 -1.884867e+00 -3.690650e-01 1.721104e+00 3.346836e+00 5.321637e+00 7.046262e+00 8.905122e+00 1.071951e+01 1.246226e+01 1.435852e+01 1.598493e+01 
1.747334e+01 1.894786e+01 2.103635e+01 2.239159e+01 2.453849e+01 2.577235e+01 2.796927e+01 2.907795e+01 3.131472e+01 3.229251e+01 3.455675e+01 3.539592e+01 3.767284e+01 3.836368e+01 4.063603e+01 4.116693e+01 4.341523e+01 4.377299e+01 4.597592e+01 4.614615e+01 4.828120e+01 4.824890e+01 5.029322e+01 5.004343e+01 5.197476e+01 5.149331e+01 5.329098e+01 5.256521e+01 5.421098e+01 5.323045e+01 5.470915e+01 5.346626e+01 5.476613e+01 5.325661e+01 5.436926e+01 5.259251e+01 5.351260e+01 5.147204e+01 5.219663e+01 4.989983e+01 5.042767e+01 4.788651e+01 4.821723e+01 4.544799e+01 4.558142e+01 4.260483e+01 4.254041e+01 3.938170e+01 3.911818e+01 3.580701e+01 3.534231e+01 3.191277e+01 3.124406e+01 2.773448e+01 2.685842e+01 2.331126e+01 2.222438e+01 1.868590e+01 1.738506e+01 1.390499e+01 1.238789e+01 9.018899e+00 7.284666e+00 4.081642e+00 2.131551e+00 -8.494388e-01 -3.011169e+00 -5.714217e+00 -8.079453e+00 -1.045054e+01 -1.300612e+01 -1.499518e+01 -1.772171e+01 -1.928503e+01 -2.215568e+01 -2.325835e+01 -2.623792e+01 -2.685627e+01 -2.990068e+01 -3.002431e+01 -3.308099e+01 -3.271402e+01 -3.572328e+01 -3.488464e+01 -3.778226e+01 -3.650482e+01 -3.922558e+01 -3.755400e+01 -4.003602e+01 -3.802370e+01 -4.021276e+01 -3.791823e+01 -3.977154e+01 -3.725485e+01 -3.874365e+01 -3.606319e+01 -3.717386e+01 -3.438394e+01 -3.511748e+01 -3.226673e+01 -3.263687e+01 -2.976752e+01 -2.979789e+01 -2.694558e+01 -2.666642e+01 -2.386046e+01 -2.330535e+01 -2.056919e+01 -1.977226e+01 -1.712408e+01 -1.611775e+01 -1.357110e+01 -1.238463e+01 -9.949047e+00 -8.607700e+00 -6.289391e+00 -4.814196e+00 -2.616641e+00 -1.024563e+00 1.050823e+00 2.746404e+00 4.699665e+00 6.488299e+00 8.320347e+00 1.019377e+01 1.190583e+01 1.385718e+01 1.545028e+01 
1.826634e+01 1.980977e+01 2.192753e+01 2.335581e+01 2.553671e+01 2.684818e+01 2.908469e+01 3.027569e+01 3.255818e+01 3.362282e+01 3.593909e+01 3.686910e+01 3.920409e+01 3.998879e+01 4.232459e+01 4.295099e+01 4.526694e+01 4.572008e+01 4.799328e+01 4.825666e+01 5.046269e+01 5.051892e+01 5.263284e+01 5.246440e+01 5.446190e+01 5.405201e+01 5.591056e+01 5.524406e+01 5.694400e+01 5.600811e+01 5.753347e+01 5.631854e+01 5.765738e+01 5.615741e+01 5.730185e+01 5.551491e+01 5.646067e+01 5.438916e+01 5.513479e+01 5.278564e+01 5.333158e+01 5.071639e+01 5.106393e+01 4.819909e+01 4.834949e+01 4.525625e+01 4.521002e+01 4.191454e+01 4.167098e+01 3.820432e+01 3.776137e+01 3.415945e+01 3.351376e+01 2.981719e+01 2.896445e+01 2.521836e+01 2.415366e+01 2.040743e+01 1.912587e+01 1.543273e+01 1.392993e+01 1.034646e+01 8.619265e+00 5.204608e+00 3.251842e+00 6.663755e-02 -2.110008e+00 -5.005055e+00 -7.399928e+00 -9.945933e+00 -1.254811e+01 -1.469031e+01 -1.748212e+01 -1.917252e+01 -2.212801e+01 -2.332823e+01 -2.641184e+01 -2.709583e+01 -3.026165e+01 -3.041803e+01 -3.360994e+01 -3.324345e+01 -3.639665e+01 -3.552846e+01 -3.857237e+01 -3.723900e+01 -4.010146e+01 -3.835229e+01 -4.096463e+01 -3.885835e+01 -4.116051e+01 -3.876098e+01 -4.070594e+01 -3.807810e+01 -3.963481e+01 -3.684120e+01 -3.799580e+01 -3.509390e+01 -3.584900e+01 -3.288976e+01 -3.326211e+01 -3.028921e+01 -3.030639e+01 -2.735630e+01 -2.705279e+01 -2.415516e+01 -2.356866e+01 -2.074694e+01 -1.991515e+01 -1.718724e+01 -1.614544e+01 -1.352440e+01 -1.230384e+01 -9.798518e+00 -8.425667e+00 -6.041413e+00 -4.537740e+00 -2.277067e+00 -6.593804e-01 1.477374e+00 3.196320e+00 5.210325e+00 7.021041e+00 8.914341e+00 1.080973e+01 1.258464e+01 1.455913e+01 1.621768e+01 
1.783401e+01 1.934093e+01 2.151261e+01 2.290444e+01 2.513891e+01 2.641492e+01 2.870571e+01 2.986295e+01 3.220122e+01 3.323430e+01 3.560826e+01 3.650917e+01 3.890382e+01 3.966188e+01 4.205892e+01 4.266090e+01 4.503890e+01 4.546936e+01 4.780424e+01 4.804599e+01 5.031192e+01 5.034673e+01 5.251719e+01 5.232661e+01 5.437574e+01 5.394207e+01 5.584600e+01 5.515318e+01 5.689128e+01 5.592579e+01 5.748155e+01 5.623315e+01 5.759461e+01 5.605686e+01 5.721655e+01 5.538722e+01 5.634159e+01 5.422289e+01 5.497141e+01 5.257017e+01 5.311416e+01 5.044191e+01 5.078344e+01 4.785651e+01 4.799738e+01 4.483697e+01 4.477795e+01 4.141019e+01 4.115057e+01 3.760651e+01 3.714399e+01 3.345959e+01 3.279039e+01 2.900644e+01 2.812563e+01 2.428763e+01 2.318961e+01 1.934761e+01 1.802660e+01 1.423491e+01 1.268554e+01 9.002326e+00 7.220265e+00 3.706927e+00 1.689608e+00 -1.590224e+00 -3.842674e+00 -6.824564e+00 -9.308160e+00 -1.192881e+01 -1.463424e+01 -1.683398e+01 -1.974485e+01 -2.147063e+01 -2.456157e+01 -2.577021e+01 -2.900512e+01 -2.966668e+01 -3.299750e+01 -3.309815e+01 -3.646473e+01 -3.600882e+01 -3.934028e+01 -3.835096e+01 -4.156885e+01 -4.008704e+01 -4.311025e+01 -4.119174e+01 -4.394254e+01 -4.165374e+01 -4.406410e+01 -4.147701e+01 -4.349408e+01 -4.068127e+01 -4.227117e+01 -3.930162e+01 -4.045086e+01 -3.738699e+01 -3.810149e+01 -3.499761e+01 -3.529973e+01 -3.220145e+01 -3.212570e+01 -2.907030e+01 -2.865853e+01 -2.567557e+01 -2.497248e+01 -2.208468e+01 -2.113397e+01 -1.835805e+01 -1.719975e+01 -1.454725e+01 -1.321600e+01 -1.069404e+01 -9.218392e+00 -6.830463e+00 -5.232877e+00 -2.979555e+00 -1.276929e+00 8.433660e-01 2.638856e+00 4.629157e+00 6.509062e+00 8.373172e+00 1.033172e+01 1.207359e+01 1.410668e+01 1.572980e+01 