# vtk DataFile Version 2.0
Comment goes here
ASCII

DATASET STRUCTURED_POINTS
FIELD FieldData 1
TIME 1 1 double
0.02000000
DIMENSIONS    128   128   1

ORIGIN    0.000   0.000   0.000
SPACING   0.039062 0.039062   1.000

POINT_DATA   16384
SCALARS P double
LOOKUP_TABLE default

-1.202037e+01 -1.241143e+01 -1.534195e+01 -1.569549e+01 -1.857638e+01 -1.889985e+01 -2.170004e+01 -2.200192e+01 -2.469191e+01 -2.498139e+01 -2.753361e+01 -2.782026e+01 -3.020942e+01 -3.050281e+01 -3.270626e+01 -3.301560e+01 -3.501369e+01 -3.534746e+01 -3.712380e+01 -3.748937e+01 -3.903109e+01 -3.943437e+01 -4.073223e+01 -4.117737e+01 -4.222575e+01 -4.271489e+01 -4.351162e+01 -4.404469e+01 -4.459080e+01 -4.516541e+01 -4.546460e+01 -4.607608e+01 -4.613409e+01 -4.677555e+01 -4.659949e+01 -4.726197e+01 -4.685952e+01 -4.753228e+01 -4.691091e+01 -4.758170e+01 -4.674798e+01 -4.740346e+01 -4.636249e+01 -4.698858e+01 -4.574361e+01 -4.632598e+01 -4.487834e+01 -4.540288e+01 -4.375210e+01 -4.420541e+01 -4.234970e+01 -4.271963e+01 -4.065665e+01 -4.093285e+01 -3.866063e+01 -3.883512e+01 -3.635323e+01 -3.642090e+01 -3.373162e+01 -3.369074e+01 -3.080025e+01 -3.065284e+01 -2.757220e+01 -2.732428e+01 -2.407023e+01 -2.373185e+01 -2.032720e+01 -1.991232e+01 -1.638601e+01 -1.591203e+01 -1.229880e+01 -1.178598e+01 -8.125602e+00 -7.596211e+00 -3.932512e+00 -3.409863e+00 2.105691e-01 7.031685e-01 4.232361e+00 4.672665e+00 8.062695e+00 8.430506e+00 1.163488e+01 1.191291e+01 1.488785e+01 1.506238e+01 1.776791e+01 1.782932e+01 2.023021e+01 2.017313e+01 2.223962e+01 2.206304e+01 2.377132e+01 2.347837e+01 2.481092e+01 2.440852e+01 2.535417e+01 2.485255e+01 2.540648e+01 2.481850e+01 2.498197e+01 2.432249e+01 2.410251e+01 2.338764e+01 2.279646e+01 2.204286e+01 2.109747e+01 2.032165e+01 1.904313e+01 1.826085e+01 1.667380e+01 1.589954e+01 1.403144e+01 1.327798e+01 1.115864e+01 1.043673e+01 8.097711e+00 7.415888e+00 4.890080e+00 4.254527e+00 1.575693e+00 9.902352e-01 -1.807350e+00 -2.341201e+00 -5.223078e+00 -5.706007e+00 -8.637829e+00 -9.072554e+00 
-1.247823e+01 -1.312873e+01 -1.580626e+01 -1.642150e+01 -1.904006e+01 -1.962594e+01 -2.215469e+01 -2.271787e+01 -2.512770e+01 -2.567532e+01 -2.793919e+01 -2.847859e+01 -3.057192e+01 -3.111029e+01 -3.301141e+01 -3.355553e+01 -3.524597e+01 -3.580189e+01 -3.726678e+01 -3.783953e+01 -3.906776e+01 -3.966114e+01 -4.064552e+01 -4.126184e+01 -4.199903e+01 -4.263899e+01 -4.312934e+01 -4.379188e+01 -4.403903e+01 -4.472133e+01 -4.473167e+01 -4.542914e+01 -4.521110e+01 -4.591752e+01 -4.548080e+01 -4.618844e+01 -4.554311e+01 -4.624292e+01 -4.539858e+01 -4.608052e+01 -4.504553e+01 -4.569876e+01 -4.447962e+01 -4.509286e+01 -4.369378e+01 -4.425565e+01 -4.267844e+01 -4.317781e+01 -4.142202e+01 -4.184844e+01 -3.991181e+01 -4.025591e+01 -3.813516e+01 -3.838917e+01 -3.608097e+01 -3.623915e+01 -3.374133e+01 -3.380054e+01 -3.111329e+01 -3.107340e+01 -2.820058e+01 -2.806487e+01 -2.501503e+01 -2.479043e+01 -2.157767e+01 -2.127488e+01 -1.791936e+01 -1.755266e+01 -1.408069e+01 -1.366760e+01 -1.011137e+01 -9.672018e+00 -6.068910e+00 -5.625264e+00 -2.016848e+00 -1.591743e+00 1.977452e+00 2.361335e+00 5.845208e+00 6.166370e+00 9.518673e+00 9.757758e+00 1.293348e+01 1.307410e+01 1.603073e+01 1.606009e+01 1.875875e+01 1.866811e+01 2.107446e+01 2.085930e+01 2.294426e+01 2.260428e+01 2.434454e+01 2.388347e+01 2.526180e+01 2.468699e+01 2.569237e+01 2.501430e+01 2.564187e+01 2.487352e+01 2.512437e+01 2.428053e+01 2.416139e+01 2.325799e+01 2.278076e+01 2.183418e+01 2.101542e+01 2.004179e+01 1.890216e+01 1.791687e+01 1.648051e+01 1.549764e+01 1.379163e+01 1.282361e+01 1.087734e+01 9.934652e+00 7.779378e+00 6.870380e+00 4.538697e+00 3.669547e+00 1.194991e+00 3.696500e-01 -2.213680e+00 -2.993369e+00 -5.651147e+00 -6.385318e+00 -9.083305e+00 -9.773888e+00 
-1.205292e+01 -1.244085e+01 -1.538742e+01 -1.573715e+01 -1.863346e+01 -1.895259e+01 -2.176739e+01 -2.206457e+01 -2.476820e+01 -2.505279e+01 -2.761751e+01 -2.789925e+01 -3.029959e+01 -3.058825e+01 -3.280140e+01 -3.310640e+01 -3.511256e+01 -3.544257e+01 -3.722527e+01 -3.758784e+01 -3.913414e+01 -3.953537e+01 -4.083604e+01 -4.128020e+01 -4.232972e+01 -4.281906e+01 -4.361544e+01 -4.414992e+01 -4.469441e+01 -4.527167e+01 -4.556827e+01 -4.618359e+01 -4.623840e+01 -4.688477e+01 -4.670527e+01 -4.737361e+01 -4.696784e+01 -4.764721e+01 -4.702298e+01 -4.770092e+01 -4.686504e+01 -4.752797e+01 -4.648570e+01 -4.711930e+01 -4.587392e+01 -4.646359e+01 -4.501632e+01 -4.554768e+01 -4.389780e+01 -4.435718e+01 -4.250254e+01 -4.287751e+01 -4.081528e+01 -4.109522e+01 -3.882288e+01 -3.899957e+01 -3.651611e+01 -3.658422e+01 -3.389138e+01 -3.384902e+01 -3.095250e+01 -3.080161e+01 -2.771214e+01 -2.745874e+01 -2.419285e+01 -2.384711e+01 -2.042762e+01 -2.000372e+01 -1.645976e+01 -1.597542e+01 -1.234210e+01 -1.181800e+01 -8.135610e+00 -7.594502e+00 -3.907478e+00 -3.373188e+00 2.711959e-01 7.748496e-01 4.327921e+00 4.778215e+00 8.191373e+00 8.567697e+00 1.179383e+01 1.207857e+01 1.507334e+01 1.525256e+01 1.797557e+01 1.803951e+01 2.045515e+01 2.039846e+01 2.247673e+01 2.229847e+01 2.401542e+01 2.371892e+01 2.505694e+01 2.464937e+01 2.559736e+01 2.508923e+01 2.564247e+01 2.504701e+01 2.520694e+01 2.453936e+01 2.431321e+01 2.358999e+01 2.299029e+01 2.222842e+01 2.127246e+01 2.048875e+01 1.919792e+01 1.840840e+01 1.680761e+01 1.602696e+01 1.414397e+01 1.338513e+01 1.125001e+01 1.052385e+01 8.168418e+00 7.483513e+00 4.940859e+00 4.303414e+00 1.607486e+00 1.021299e+00 -1.793461e+00 -2.326933e+00 -5.225918e+00 -5.707441e+00 -8.656162e+00 -9.088555e+00 
-1.254928e+01 -1.319482e+01 -1.590430e+01 -1.651349e+01 -1.916263e+01 -1.974166e+01 -2.229927e+01 -2.285510e+01 -2.529169e+01 -2.583176e+01 -2.811990e+01 -2.865187e+01 -3.076660e+01 -3.129799e+01 -3.321728e+01 -3.375517e+01 -3.546027e+01 -3.601102e+01 -3.748683e+01 -3.805575e+01 -3.929109e+01 -3.988220e+01 -4.086992e+01 -4.148574e+01 -4.222274e+01 -4.286407e+01 -4.335108e+01 -4.401692e+01 -4.425813e+01 -4.494562e+01 -4.494810e+01 -4.565256e+01 -4.542555e+01 -4.614056e+01 -4.569457e+01 -4.641216e+01 -4.575807e+01 -4.646891e+01 -4.561705e+01 -4.631074e+01 -4.527002e+01 -4.593535e+01 -4.471264e+01 -4.533794e+01 -4.393753e+01 -4.451100e+01 -4.293451e+01 -4.344459e+01 -4.169107e+01 -4.212683e+01 -4.019327e+01 -4.054489e+01 -3.842700e+01 -3.868623e+01 -3.637954e+01 -3.654019e+01 -3.404131e+01 -3.409982e+01 -3.140780e+01 -3.136371e+01 -2.848136e+01 -2.833778e+01 -2.527289e+01 -2.503674e+01 -2.180297e+01 -2.148513e+01 -1.810256e+01 -1.771773e+01 -1.421301e+01 -1.377933e+01 -1.018533e+01 -9.723734e+00 -6.078834e+00 -5.612233e+00 -1.959224e+00 -1.511455e+00 2.103779e+00 2.509032e+00 6.038996e+00 6.379310e+00 9.776401e+00 1.003163e+01 1.324959e+01 1.340272e+01 1.639796e+01 1.643580e+01 1.916853e+01 1.908215e+01 2.151732e+01 2.130222e+01 2.341025e+01 2.306635e+01 2.482363e+01 2.435503e+01 2.574420e+01 2.515877e+01 2.616886e+01 2.547770e+01 2.610405e+01 2.532080e+01 2.556484e+01 2.470499e+01 2.457388e+01 2.365406e+01 2.316022e+01 2.219743e+01 2.135799e+01 2.036896e+01 1.920517e+01 1.820577e+01 1.674235e+01 1.574705e+01 1.401164e+01 1.303314e+01 1.105567e+01 1.010463e+01 7.916813e+00 7.001682e+00 4.636533e+00 3.763459e+00 1.254892e+00 4.277587e-01 -2.189787e+00 -2.969271e+00 -5.661156e+00 -6.393309e+00 -9.124991e+00 -9.811960e+00 
-1.215191e+01 -1.253030e+01 -1.552520e+01 -1.586336e+01 -1.880608e+01 -1.911204e+01 -2.197086e+01 -2.225376e+01 -2.499850e+01 -2.526822e+01 -2.787059e+01 -2.813743e+01 -3.057146e+01 -3.084577e+01 -3.308814e+01 -3.337994e+01 -3.541041e+01 -3.572897e+01 -3.753076e+01 -3.788421e+01 -3.944422e+01 -3.983915e+01 -4.114819e+01 -4.158931e+01 -4.264212e+01 -4.313197e+01 -4.392705e+01 -4.446579e+01 -4.500512e+01 -4.559038e+01 -4.587888e+01 -4.650580e+01 -4.655065e+01 -4.721191e+01 -4.702175e+01 -4.770782e+01 -4.729181e+01 -4.799120e+01 -4.735814e+01 -4.805777e+01 -4.721528e+01 -4.790083e+01 -4.685463e+01 -4.751102e+01 -4.626453e+01 -4.687637e+01 -4.543046e+01 -4.598256e+01 -4.433578e+01 -4.481363e+01 -4.296267e+01 -4.335302e+01 -4.129359e+01 -4.158500e+01 -3.931288e+01 -3.949636e+01 -3.700876e+01 -3.707834e+01 -3.437529e+01 -3.432858e+01 -3.141432e+01 -3.125298e+01 -2.813715e+01 -2.786720e+01 -2.456578e+01 -2.419773e+01 -2.073353e+01 -2.028222e+01 -1.668495e+01 -1.616912e+01 -1.247501e+01 -1.191659e+01 -8.167522e+00 -7.590748e+00 -3.833060e+00 -3.263328e+00 4.536126e-01 9.909134e-01 4.616300e+00 5.096984e+00 8.580153e+00 8.982348e+00 1.227430e+01 1.257939e+01 1.563415e+01 1.582753e+01 1.860331e+01 1.867487e+01 2.113504e+01 2.107941e+01 2.319319e+01 2.300973e+01 2.475272e+01 2.444530e+01 2.579975e+01 2.537633e+01 2.633124e+01 2.580326e+01 2.635425e+01 2.573599e+01 2.588505e+01 2.519283e+01 2.494791e+01 2.419928e+01 2.357375e+01 2.278673e+01 2.179878e+01 2.099112e+01 1.966309e+01 1.885160e+01 1.720930e+01 1.640932e+01 1.448140e+01 1.370633e+01 1.152366e+01 1.078467e+01 8.379778e+00 7.685618e+00 5.092236e+00 4.449137e+00 1.701764e+00 1.113444e+00 -1.752993e+00 -2.285250e+00 -5.235700e+00 -5.712909e+00 -8.712466e+00 -9.137753e+00 
-1.269385e+01 -1.332919e+01 -1.610291e+01 -1.669973e+01 -1.941040e+01 -1.997544e+01 -2.259116e+01 -2.313198e+01 -2.562248e+01 -2.614715e+01 -2.848421e+01 -2.900102e+01 -3.115890e+01 -3.167602e+01 -3.363195e+01 -3.415710e+01 -3.589172e+01 -3.643186e+01 -3.792962e+01 -3.849064e+01 -3.974015e+01 -4.032655e+01 -4.132077e+01 -4.193545e+01 -4.267169e+01 -4.331572e+01 -4.379551e+01 -4.446797e+01 -4.469663e+01 -4.539463e+01 -4.538064e+01 -4.609926e+01 -4.585348e+01 -4.658594e+01 -4.612061e+01 -4.685843e+01 -4.618611e+01 -4.691935e+01 -4.605188e+01 -4.676945e+01 -4.571695e+01 -4.640689e+01 -4.517695e+01 -4.582680e+01 -4.442394e+01 -4.502106e+01 -4.344650e+01 -4.397845e+01 -4.223024e+01 -4.268518e+01 -4.075872e+01 -4.112588e+01 -3.901485e+01 -3.928498e+01 -3.698251e+01 -3.714850e+01 -3.464868e+01 -3.470609e+01 -3.200552e+01 -3.195323e+01 -2.905258e+01 -2.889327e+01 -2.579871e+01 -2.553924e+01 -2.226349e+01 -2.191512e+01 -1.847813e+01 -1.805639e+01 -1.448547e+01 -1.400978e+01 -1.033924e+01 -9.832207e+00 -6.102493e+00 -5.588961e+00 -1.845406e+00 -1.351295e+00 2.357419e+00 2.806356e+00 6.429859e+00 6.809284e+00 1.029720e+01 1.058533e+01 1.388887e+01 1.406745e+01 1.714081e+01 1.719582e+01 1.999740e+01 1.991951e+01 2.241285e+01 2.219765e+01 2.435216e+01 2.400003e+01 2.579148e+01 2.530731e+01 2.671813e+01 2.611086e+01 2.713018e+01 2.641216e+01 2.703575e+01 2.622200e+01 2.645198e+01 2.555944e+01 2.540387e+01 2.445056e+01 2.392293e+01 2.292717e+01 2.204577e+01 2.102547e+01 1.981276e+01 1.878475e+01 1.726666e+01 1.624620e+01 1.445149e+01 1.345186e+01 1.141150e+01 1.044369e+01 8.190359e+00 7.262964e+00 4.830505e+00 3.949656e+00 1.372727e+00 5.421404e-01 -2.144153e+00 -2.923053e+00 -5.683457e+00 -6.411362e+00 -9.210742e+00 -9.890245e+00 
-1.232136e+01 -1.268342e+01 -1.575938e+01 -1.607777e+01 -1.909839e+01 -1.938189e+01 -2.231464e+01 -2.257318e+01 -2.538702e+01 -2.563136e+01 -2.829710e+01 -2.853848e+01 -3.102921e+01 -3.127896e+01 -3.357049e+01 -3.383965e+01 -3.591100e+01 -3.620987e+01 -3.804366e+01 -3.838134e+01 -3.996417e+01 -4.034815e+01 -4.167086e+01 -4.210660e+01 -4.316433e+01 -4.365490e+01 -4.444701e+01 -4.499286e+01 -4.552256e+01 -4.612135e+01 -4.639518e+01 -4.704178e+01 -4.706880e+01 -4.775538e+01 -4.754622e+01 -4.826249e+01 -4.782830e+01 -4.856182e+01 -4.791320e+01 -4.864977e+01 -4.779574e+01 -4.851985e+01 -4.746703e+01 -4.816231e+01 -4.691430e+01 -4.756404e+01 -4.612122e+01 -4.670884e+01 -4.506848e+01 -4.557807e+01 -4.373487e+01 -4.415177e+01 -4.209886e+01 -4.241025e+01 -4.014043e+01 -4.033598e+01 -3.784333e+01 -3.791591e+01 -3.519744e+01 -3.514376e+01 -3.220110e+01 -3.202230e+01 -2.886317e+01 -2.856525e+01 -2.520458e+01 -2.479858e+01 -2.125917e+01 -2.076107e+01 -1.707366e+01 -1.650390e+01 -1.270671e+01 -1.208944e+01 -8.227115e+00 -7.589125e+00 -3.711338e+00 -3.080771e+00 7.594779e-01 1.354502e+00 5.102708e+00 5.635467e+00 9.237426e+00 9.683864e+00 1.308735e+01 1.342715e+01 1.658339e+01 1.680079e+01 1.966571e+01 1.975002e+01 2.228522e+01 2.223107e+01 2.440453e+01 2.421180e+01 2.599840e+01 2.567194e+01 2.705367e+01 2.660280e+01 2.756886e+01 2.700665e+01 2.755328e+01 2.689583e+01 2.702599e+01 2.629149e+01 2.601436e+01 2.522225e+01 2.455265e+01 2.372271e+01 2.268040e+01 2.183196e+01 2.044089e+01 1.959210e+01 1.787966e+01 1.704692e+01 1.504323e+01 1.424075e+01 1.197802e+01 1.121747e+01 8.729449e+00 8.019823e+00 5.341278e+00 4.688840e+00 1.855177e+00 1.263487e+00 -1.689574e+00 -2.219543e+00 -5.256236e+00 -5.725925e+00 -8.810673e+00 -9.223732e+00 
-1.291684e+01 -1.353626e+01 -1.640718e+01 -1.698475e+01 -1.978862e+01 -2.033196e+01 -2.303580e+01 -2.355336e+01 -2.612572e+01 -2.662653e+01 -2.903795e+01 -2.953126e+01 -3.175478e+01 -3.224973e+01 -3.426140e+01 -3.476670e+01 -3.654616e+01 -3.706972e+01 -3.860066e+01 -3.914924e+01 -4.041991e+01 -4.099879e+01 -4.200222e+01 -4.261491e+01 -4.334906e+01 -4.399703e+01 -4.446461e+01 -4.514713e+01 -4.535522e+01 -4.606928e+01 -4.602859e+01 -4.676895e+01 -4.649292e+01 -4.725220e+01 -4.675580e+01 -4.752475e+01 -4.682326e+01 -4.759099e+01 -4.669868e+01 -4.745303e+01 -4.638195e+01 -4.710984e+01 -4.586883e+01 -4.655657e+01 -4.515055e+01 -4.578426e+01 -4.421385e+01 -4.477979e+01 -4.304150e+01 -4.352642e+01 -4.161317e+01 -4.200485e+01 -3.990704e+01 -4.019472e+01 -3.790169e+01 -3.807675e+01 -3.557851e+01 -3.563513e+01 -3.292433e+01 -3.286023e+01 -2.993410e+01 -2.975123e+01 -2.661327e+01 -2.631833e+01 -2.297974e+01 -2.258451e+01 -1.906500e+01 -1.858628e+01 -1.491423e+01 -1.437343e+01 -1.058547e+01 -1.000784e+01 -6.147730e+00 -5.561180e+00 -1.678305e+00 -1.112071e+00 2.740447e+00 3.257326e+00 7.024599e+00 7.464757e+00 1.109209e+01 1.143118e+01 1.486585e+01 1.508366e+01 1.827649e+01 1.835775e+01 2.126438e+01 2.119921e+01 2.378106e+01 2.356519e+01 2.579018e+01 2.542474e+01 2.726778e+01 2.675894e+01 2.820212e+01 2.756052e+01 2.859319e+01 2.783317e+01 2.845178e+01 2.759053e+01 2.779830e+01 2.685499e+01 2.666141e+01 2.565624e+01 2.507648e+01 2.402981e+01 2.308399e+01 2.201553e+01 2.072797e+01 1.965608e+01 1.805456e+01 1.699568e+01 1.511070e+01 1.407893e+01 1.194307e+01 1.094990e+01 8.597241e+00 7.651468e+00 5.117110e+00 4.224795e+00 1.544483e+00 7.090560e-01 -2.081137e+00 -2.858710e+00 -5.722642e+00 -6.443641e+00 -9.345325e+00 -1.001303e+01 
-1.256799e+01 -1.290627e+01 -1.609677e+01 -1.638648e+01 -1.951731e+01 -1.976827e+01 -2.280576e+01 -2.302903e+01 -2.594089e+01 -2.614844e+01 -2.890416e+01 -2.910856e+01 -3.167988e+01 -3.189387e+01 -3.425529e+01 -3.449138e+01 -3.662075e+01 -3.689073e+01 -3.876975e+01 -3.908417e+01 -4.069892e+01 -4.106660e+01 -4.240787e+01 -4.283536e+01 -4.389885e+01 -4.439005e+01 -4.517630e+01 -4.573211e+01 -4.624616e+01 -4.686428e+01 -4.711503e+01 -4.778996e+01 -4.778928e+01 -4.851241e+01 -4.827396e+01 -4.903389e+01 -4.857184e+01 -4.935472e+01 -4.868242e+01 -4.947245e+01 -4.860111e+01 -4.938104e+01 -4.831868e+01 -4.907032e+01 -4.782096e+01 -4.852571e+01 -4.708901e+01 -4.772834e+01 -4.609972e+01 -4.665575e+01 -4.482696e+01 -4.528300e+01 -4.324330e+01 -4.358448e+01 -4.132218e+01 -4.153622e+01 -3.904061e+01 -3.911861e+01 -3.638207e+01 -3.631932e+01 -3.333947e+01 -3.313623e+01 -2.991781e+01 -2.957993e+01 -2.613626e+01 -2.567549e+01 -2.202932e+01 -2.146326e+01 -1.764689e+01 -1.699851e+01 -1.305315e+01 -1.234988e+01 -8.324370e+00 -7.596835e+00 -3.545854e+00 -2.826287e+00 1.191732e+00 1.871133e+00 5.796220e+00 6.404960e+00 1.017772e+01 1.068852e+01 1.425207e+01 1.464211e+01 1.794366e+01 1.819553e+01 2.118776e+01 2.128997e+01 2.393199e+01 2.387923e+01 2.613730e+01 2.593029e+01 2.777829e+01 2.742335e+01 2.884301e+01 2.835148e+01 2.933233e+01 2.871972e+01 2.925894e+01 2.854401e+01 2.864600e+01 2.784974e+01 2.752552e+01 2.667010e+01 2.593665e+01 2.504443e+01 2.392380e+01 2.301640e+01 2.153489e+01 2.063239e+01 1.881967e+01 1.793999e+01 1.582833e+01 1.498675e+01 1.261027e+01 1.181916e+01 9.213293e+00 8.481957e+00 5.682904e+00 5.017590e+00 2.061995e+00 1.465994e+00 -1.609359e+00 -2.135550e+00 -5.293947e+00 -5.752404e+00 -8.957375e+00 -9.352504e+00 
-1.322564e+01 -1.382259e+01 -1.682469e+01 -1.737531e+01 -2.030516e+01 -2.081821e+01 -2.364135e+01 -2.412653e+01 -2.680992e+01 -2.727748e+01 -2.978995e+01 -3.025046e+01 -3.256329e+01 -3.302724e+01 -3.511477e+01 -3.559222e+01 -3.743258e+01 -3.793275e+01 -3.950849e+01 -4.003939e+01 -4.133810e+01 -4.190610e+01 -4.292085e+01 -4.353034e+01 -4.425987e+01 -4.491290e+01 -4.536157e+01 -4.605768e+01 -4.623500e+01 -4.697107e+01 -4.689093e+01 -4.766122e+01 -4.734075e+01 -4.813707e+01 -4.759522e+01 -4.840719e+01 -4.766318e+01 -4.847860e+01 -4.755029e+01 -4.835553e+01 -4.725787e+01 -4.803827e+01 -4.678199e+01 -4.752228e+01 -4.611295e+01 -4.679757e+01 -4.523510e+01 -4.584856e+01 -4.412727e+01 -4.465449e+01 -4.276379e+01 -4.319052e+01 -4.111609e+01 -4.142949e+01 -3.915512e+01 -3.934439e+01 -3.685416e+01 -3.691142e+01 -3.419215e+01 -3.411335e+01 -3.115711e+01 -3.094300e+01 -2.774938e+01 -2.740626e+01 -2.398416e+01 -2.352442e+01 -1.989316e+01 -1.933532e+01 -1.552488e+01 -1.489318e+01 -1.094357e+01 -1.026703e+01 -6.226873e+00 -5.537856e+00 -1.462422e+00 -7.949440e-01 3.256248e+00 3.868406e+00 7.834027e+00 8.359158e+00 1.217842e+01 1.258854e+01 1.620329e+01 1.647543e+01 1.983187e+01 1.994905e+01 2.299907e+01 2.295074e+01 2.565296e+01 2.543512e+01 2.775551e+01 2.737044e+01 2.928278e+01 2.873854e+01 3.022458e+01 2.953423e+01 3.058368e+01 2.976438e+01 3.037471e+01 2.944673e+01 2.962273e+01 2.860839e+01 2.836159e+01 2.728416e+01 2.663211e+01 2.551480e+01 2.448019e+01 2.334522e+01 2.195502e+01 2.082281e+01 1.910736e+01 1.799594e+01 1.598815e+01 1.491272e+01 1.264732e+01 1.162001e+01 9.132968e+00 8.162765e+00 5.490823e+00 4.583628e+00 1.763936e+00 9.227267e-01 -2.007416e+00 -2.782345e+00 -5.785681e+00 -6.496447e+00 -9.535917e+00 -1.018675e+01 
-1.290120e+01 -1.320736e+01 -1.654693e+01 -1.679807e+01 -2.007255e+01 -2.027982e+01 -2.345409e+01 -2.362998e+01 -2.667012e+01 -2.682819e+01 -2.970190e+01 -2.985643e+01 -3.253357e+01 -3.269917e+01 -3.515239e+01 -3.534354e+01 -3.754900e+01 -3.777950e+01 -3.971753e+01 -3.999992e+01 -4.165573e+01 -4.200067e+01 -4.336487e+01 -4.378049e+01 -4.484941e+01 -4.534076e+01 -4.611649e+01 -4.668511e+01 -4.717514e+01 -4.781883e+01 -4.803534e+01 -4.874806e+01 -4.870684e+01 -4.947892e+01 -4.919794e+01 -5.001642e+01 -4.951416e+01 -5.036327e+01 -4.965704e+01 -5.051883e+01 -4.962306e+01 -5.047796e+01 -4.940277e+01 -5.023018e+01 -4.898034e+01 -4.975921e+01 -4.833352e+01 -4.904281e+01 -4.743419e+01 -4.805343e+01 -4.624955e+01 -4.675937e+01 -4.474405e+01 -4.512684e+01 -4.288200e+01 -4.312275e+01 -4.063082e+01 -4.071807e+01 -3.796476e+01 -3.789168e+01 -3.486876e+01 -3.463421e+01 -3.134207e+01 -3.095147e+01 -2.740104e+01 -2.686698e+01 -2.308089e+01 -2.242314e+01 -1.843589e+01 -1.768087e+01 -1.353799e+01 -1.271771e+01 -8.474020e+00 -7.624443e+00 -3.341716e+00 -2.500843e+00 1.754903e+00 2.549169e+00 6.710411e+00 7.422325e+00 1.142260e+01 1.202044e+01 1.579659e+01 1.625414e+01 1.974809e+01 2.004574e+01 2.320592e+01 2.333121e+01 2.611356e+01 2.606135e+01 2.842995e+01 2.820219e+01 3.012974e+01 2.973488e+01 3.120278e+01 3.065500e+01 3.165336e+01 3.097152e+01 3.149885e+01 3.070541e+01 3.076812e+01 2.988788e+01 2.949958e+01 2.855846e+01 2.773907e+01 2.676292e+01 2.553766e+01 2.455120e+01 2.294957e+01 2.197543e+01 2.003019e+01 1.908828e+01 1.683453e+01 1.594150e+01 1.341589e+01 1.258492e+01 9.825026e+00 9.065737e+00 6.109592e+00 5.428126e+00 2.313885e+00 1.713092e+00 -1.521179e+00 -2.041492e+00 -5.357955e+00 -5.800737e+00 -9.161868e+00 -9.532537e+00 
-1.363003e+01 -1.419692e+01 -1.736550e+01 -1.788035e+01 -2.097041e+01 -2.144344e+01 -2.441871e+01 -2.486113e+01 -2.768648e+01 -2.811015e+01 -3.075214e+01 -3.116928e+01 -3.359680e+01 -3.401962e+01 -3.620465e+01 -3.664497e+01 -3.856348e+01 -3.903228e+01 -4.066510e+01 -4.117203e+01 -4.250569e+01 -4.305863e+01 -4.408603e+01 -4.469057e+01 -4.541137e+01 -4.607040e+01 -4.649105e+01 -4.720447e+01 -4.733771e+01 -4.810228e+01 -4.796629e+01 -4.877560e+01 -4.839259e+01 -4.923732e+01 -4.863175e+01 -4.950002e+01 -4.869664e+01 -4.957447e+01 -4.859619e+01 -4.946801e+01 -4.833392e+01 -4.918309e+01 -4.790671e+01 -4.871592e+01 -4.730390e+01 -4.805555e+01 -4.650697e+01 -4.718342e+01 -4.548976e+01 -4.607362e+01 -4.421949e+01 -4.469397e+01 -4.265859e+01 -4.300806e+01 -4.076750e+01 -4.097820e+01 -3.850817e+01 -3.856926e+01 -3.584833e+01 -3.575313e+01 -3.276603e+01 -3.251335e+01 -2.925401e+01 -2.884933e+01 -2.532335e+01 -2.477964e+01 -2.100576e+01 -2.034376e+01 -1.635419e+01 -1.560195e+01 -1.144152e+01 -1.063323e+01 -6.357442e+00 -5.531639e+00 -1.203964e+00 -4.012938e-01 3.909917e+00 4.649117e+00 8.873782e+00 9.511849e+00 1.358105e+01 1.408506e+01 1.793350e+01 1.827687e+01 2.184480e+01 2.200833e+01 2.524295e+01 2.521534e+01 2.807176e+01 2.784955e+01 3.029140e+01 2.987858e+01 3.187832e+01 3.128555e+01 3.282461e+01 3.206828e+01 3.313696e+01 3.223806e+01 3.283524e+01 3.181819e+01 3.195082e+01 3.084214e+01 3.052455e+01 2.935162e+01 2.860456e+01 2.739437e+01 2.624401e+01 2.502207e+01 2.349890e+01 2.228833e+01 2.042607e+01 1.924691e+01 1.708159e+01 1.595038e+01 1.351948e+01 1.244905e+01 9.790924e+00 8.790392e+00 5.943770e+00 5.018716e+00 2.022412e+00 1.175133e+00 -1.932133e+00 -2.702289e+00 -5.881989e+00 -6.578271e+00 -9.792123e+00 -1.042002e+01 
-1.333315e+01 -1.359765e+01 -1.712212e+01 -1.732352e+01 -2.077658e+01 -2.092762e+01 -2.427237e+01 -2.438729e+01 -2.758775e+01 -2.768201e+01 -3.070358e+01 -3.079359e+01 -3.360363e+01 -3.370633e+01 -3.627497e+01 -3.640735e+01 -3.870835e+01 -3.888687e+01 -4.089857e+01 -4.113840e+01 -4.284463e+01 -4.315893e+01 -4.454982e+01 -4.494885e+01 -4.602138e+01 -4.651181e+01 -4.726994e+01 -4.785424e+01 -4.830865e+01 -4.898473e+01 -4.915199e+01 -4.991311e+01 -4.981431e+01 -5.064936e+01 -5.030835e+01 -5.120227e+01 -5.064355e+01 -5.157803e+01 -5.082445e+01 -5.177871e+01 -5.084931e+01 -5.180079e+01 -5.070882e+01 -5.163395e+01 -5.038540e+01 -5.126007e+01 -4.985282e+01 -5.065296e+01 -4.907668e+01 -4.977864e+01 -4.801559e+01 -4.859663e+01 -4.662324e+01 -4.706222e+01 -4.485158e+01 -4.512981e+01 -4.265481e+01 -4.275726e+01 -3.999422e+01 -3.991094e+01 -3.684335e+01 -3.657097e+01 -3.319294e+01 -3.273600e+01 -2.905503e+01 -2.842694e+01 -2.446545e+01 -2.368870e+01 -1.948428e+01 -1.858991e+01 -1.419414e+01 -1.322033e+01 -8.696340e+00 -7.686369e+00 -3.105699e+00 -2.105402e+00 2.455623e+00 3.400591e+00 7.864368e+00 8.711188e+00 1.300200e+01 1.371303e+01 1.775966e+01 1.830427e+01 2.204200e+01 2.239779e+01 2.576981e+01 2.592321e+01 2.888162e+01 2.882793e+01 3.133425e+01 3.107721e+01 3.310275e+01 3.265375e+01 3.417969e+01 3.355673e+01 3.457401e+01 3.380046e+01 3.430943e+01 3.341264e+01 3.342243e+01 3.243226e+01 3.195993e+01 3.090725e+01 2.997666e+01 2.889188e+01 2.753248e+01 2.644431e+01 2.468980e+01 2.362414e+01 2.151129e+01 2.049048e+01 1.805801e+01 1.710035e+01 1.438806e+01 1.350761e+01 1.055570e+01 9.762310e+00 6.610967e+00 5.910493e+00 2.599603e+00 1.994206e+00 -1.436749e+00 -1.948233e+00 -5.460196e+00 -5.881882e+00 -9.436192e+00 -9.774791e+00 
-1.414217e+01 -1.467005e+01 -1.804203e+01 -1.851087e+01 -2.179726e+01 -2.221907e+01 -2.538138e+01 -2.576916e+01 -2.876969e+01 -2.913725e+01 -3.193963e+01 -3.230120e+01 -3.487117e+01 -3.524108e+01 -3.754742e+01 -3.793970e+01 -3.995535e+01 -4.038321e+01 -4.208648e+01 -4.256177e+01 -4.393748e+01 -4.447006e+01 -4.551059e+01 -4.610769e+01 -4.681363e+01 -4.747930e+01 -4.785963e+01 -4.859432e+01 -4.866596e+01 -4.946626e+01 -4.925304e+01 -5.011167e+01 -4.964259e+01 -5.054872e+01 -4.985573e+01 -5.079544e+01 -4.991085e+01 -5.086782e+01 -4.982154e+01 -5.077773e+01 -4.959464e+01 -5.053093e+01 -4.922858e+01 -5.012523e+01 -4.871202e+01 -4.954903e+01 -4.802318e+01 -4.878045e+01 -4.712984e+01 -4.778730e+01 -4.599022e+01 -4.652801e+01 -4.455503e+01 -4.495395e+01 -4.277062e+01 -4.301296e+01 -4.058349e+01 -4.065425e+01 -3.794572e+01 -3.783433e+01 -3.482114e+01 -3.452335e+01 -3.119143e+01 -3.071113e+01 -2.706134e+01 -2.641191e+01 -2.246215e+01 -2.166705e+01 -1.745269e+01 -1.654496e+01 -1.211760e+01 -1.113843e+01 -6.563119e+00 -5.559441e+00 -9.109498e-01 6.754578e-02 4.708931e+00 5.613020e+00 1.016561e+01 1.094964e+01 1.533397e+01 1.595850e+01 2.010024e+01 2.053402e+01 2.436608e+01 2.458726e+01 2.805120e+01 2.804773e+01 3.109458e+01 3.086402e+01 3.345473e+01 3.300346e+01 3.510908e+01 3.445137e+01 3.605307e+01 3.520973e+01 3.629869e+01 3.529578e+01 3.587279e+01 3.474013e+01 3.481504e+01 3.358465e+01 3.317546e+01 3.188005e+01 3.101179e+01 2.968321e+01 2.838662e+01 2.705460e+01 2.536473e+01 2.405575e+01 2.201068e+01 2.074723e+01 1.838691e+01 1.718708e+01 1.455238e+01 1.342969e+01 1.056179e+01 9.525341e+00 6.465269e+00 5.520046e+00 2.308464e+00 1.455754e+00 -1.867097e+00 -2.629250e+00 -6.023515e+00 -6.699841e+00 -1.012596e+01 -1.072354e+01 
-1.387860e+01 -1.409050e+01 -1.783723e+01 -1.797620e+01 -2.164458e+01 -2.172518e+01 -2.527622e+01 -2.531471e+01 -2.870991e+01 -2.872399e+01 -3.192581e+01 -3.193439e+01 -3.490697e+01 -3.492983e+01 -3.763992e+01 -3.769719e+01 -4.011522e+01 -4.022672e+01 -4.232815e+01 -4.251252e+01 -4.427904e+01 -4.455274e+01 -4.597351e+01 -4.634973e+01 -4.742220e+01 -4.790984e+01 -4.864019e+01 -4.924301e+01 -4.964594e+01 -5.036203e+01 -5.045979e+01 -5.128150e+01 -5.110228e+01 -5.201650e+01 -5.159210e+01 -5.258098e+01 -5.194409e+01 -5.298599e+01 -5.216718e+01 -5.323765e+01 -5.226241e+01 -5.333522e+01 -5.222133e+01 -5.326922e+01 -5.202471e+01 -5.302006e+01 -5.164190e+01 -5.255706e+01 -5.103093e+01 -5.183856e+01 -5.013960e+01 -5.081296e+01 -4.890779e+01 -4.942128e+01 -4.727105e+01 -4.760115e+01 -4.516565e+01 -4.529238e+01 -4.253484e+01 -4.244369e+01 -3.933592e+01 -3.902001e+01 -3.554726e+01 -3.500940e+01 -3.117419e+01 -3.042845e+01 -2.625285e+01 -2.532508e+01 -2.085102e+01 -1.977826e+01 -1.506576e+01 -1.389446e+01 -9.018192e+00 -7.801473e+00 -2.846277e+00 -1.640529e+00 3.303474e+00 4.442208e+00 9.284219e+00 1.030374e+01 1.495621e+01 1.581116e+01 2.019286e+01 2.084697e+01 2.488513e+01 2.531265e+01 2.894430e+01 2.913053e+01 3.230334e+01 3.224443e+01 3.491705e+01 3.461934e+01 3.676162e+01 3.624047e+01 3.783345e+01 3.711195e+01 3.814776e+01 3.725515e+01 3.773657e+01 3.670659e+01 3.664637e+01 3.551542e+01 3.493517e+01 3.374050e+01 3.266928e+01 3.144718e+01 2.991993e+01 2.870414e+01 2.676002e+01 2.558048e+01 2.326133e+01 2.214331e+01 1.949236e+01 1.845600e+01 1.551685e+01 1.457705e+01 1.139298e+01 1.055963e+01 7.173240e+00 6.451577e+00 2.904601e+00 2.295736e+00 -1.370902e+00 -1.869476e+00 -5.615530e+00 -6.009442e+00 -9.795147e+00 -1.009272e+01 
-1.477641e+01 -1.525469e+01 -1.886886e+01 -1.927980e+01 -2.280087e+01 -2.315850e+01 -2.654539e+01 -2.686485e+01 -3.007673e+01 -3.037403e+01 -3.337087e+01 -3.366263e+01 -3.640606e+01 -3.670919e+01 -3.916370e+01 -3.949492e+01 -4.162926e+01 -4.200461e+01 -4.379341e+01 -4.422754e+01 -4.565298e+01 -4.615838e+01 -4.721167e+01 -4.779781e+01 -4.848029e+01 -4.915286e+01 -4.947649e+01 -5.023671e+01 -5.022368e+01 -5.106796e+01 -5.074943e+01 -5.166933e+01 -5.108332e+01 -5.206594e+01 -5.125441e+01 -5.228314e+01 -5.128862e+01 -5.234406e+01 -5.120604e+01 -5.226698e+01 -5.101840e+01 -5.206269e+01 -5.072682e+01 -5.173193e+01 -5.031992e+01 -5.126321e+01 -4.977256e+01 -5.063131e+01 -4.904545e+01 -4.979667e+01 -4.808580e+01 -4.870610e+01 -4.682931e+01 -4.729513e+01 -4.520391e+01 -4.549229e+01 -4.313516e+01 -4.322533e+01 -4.055347e+01 -4.042912e+01 -3.740248e+01 -3.705456e+01 -3.364775e+01 -3.307726e+01 -2.928442e+01 -2.850467e+01 -2.434246e+01 -2.338011e+01 -1.888839e+01 -1.778304e+01 -1.302293e+01 -1.182515e+01 -6.875018e+00 -5.643133e+00 -5.932085e-01 6.108358e-01 5.664254e+00 6.779264e+00 1.173930e+01 1.270900e+01 1.748277e+01 1.825926e+01 2.276132e+01 2.330752e+01 2.746207e+01 2.775305e+01 3.149519e+01 3.151842e+01 3.479467e+01 3.454941e+01 3.731786e+01 3.681397e+01 3.904423e+01 3.830078e+01 3.997392e+01 3.901756e+01 4.012595e+01 3.898925e+01 3.953622e+01 3.825594e+01 3.825510e+01 3.687033e+01 3.634452e+01 3.489476e+01 3.387458e+01 3.239791e+01 3.092003e+01 2.945144e+01 2.755682e+01 2.612693e+01 2.385913e+01 2.249332e+01 1.989713e+01 1.861515e+01 1.573551e+01 1.455144e+01 1.143277e+01 1.035540e+01 7.041247e+00 6.074538e+00 2.607479e+00 1.751250e+00 -1.826995e+00 -2.576461e+00 -6.224792e+00 -6.874142e+00 -1.055180e+01 -1.111009e+01 
-1.455486e+01 -1.470153e+01 -1.870964e+01 -1.877170e+01 -2.269427e+01 -2.268833e+01 -2.648401e+01 -2.642851e+01 -3.005580e+01 -2.997094e+01 -3.338869e+01 -3.329625e+01 -3.646445e+01 -3.638754e+01 -3.926843e+01 -3.923102e+01 -4.179053e+01 -4.181667e+01 -4.402607e+01 -4.413890e+01 -4.597664e+01 -4.619703e+01 -4.765043e+01 -4.799555e+01 -4.906217e+01 -4.954401e+01 -5.023250e+01 -5.085664e+01 -5.118662e+01 -5.195145e+01 -5.195253e+01 -5.284911e+01 -5.255881e+01 -5.357135e+01 -5.303214e+01 -5.413902e+01 -5.339469e+01 -5.456983e+01 -5.366154e+01 -5.487584e+01 -5.383810e+01 -5.506073e+01 -5.391786e+01 -5.511728e+01 -5.388051e+01 -5.502507e+01 -5.369073e+01 -5.474892e+01 -5.329782e+01 -5.423823e+01 -5.263648e+01 -5.342780e+01 -5.162907e+01 -5.224030e+01 -5.018975e+01 -5.059112e+01 -4.823064e+01 -4.839532e+01 -4.567002e+01 -4.557681e+01 -4.244210e+01 -4.207859e+01 -3.850704e+01 -3.787291e+01 -3.385991e+01 -3.296938e+01 -2.853644e+01 -2.741940e+01 -2.261458e+01 -2.131590e+01 -1.621115e+01 -1.478831e+01 -9.474341e+00 -7.993712e+00 -2.573489e+00 -1.105641e+00 4.312350e+00 5.697523e+00 1.100540e+01 1.224334e+01 1.733872e+01 1.837411e+01 2.316363e+01 2.395321e+01 2.835469e+01 2.886882e+01 3.281240e+01 3.303541e+01 3.646392e+01 3.639359e+01 3.926263e+01 3.890898e+01 4.118689e+01 4.057061e+01 4.223848e+01 4.138925e+01 4.244077e+01 4.139542e+01 4.183655e+01 4.063700e+01 4.048517e+01 3.917624e+01 3.845899e+01 3.708609e+01 3.583931e+01 3.444616e+01 3.271192e+01 3.133859e+01 2.916302e+01 2.784436e+01 2.527570e+01 2.404035e+01 2.112734e+01 1.999737e+01 1.678809e+01 1.577905e+01 1.232027e+01 1.144167e+01 7.778524e+00 7.034521e+00 3.210571e+00 2.600689e+00 -1.341843e+00 -1.821947e+00 -5.841816e+00 -6.199714e+00 -1.025623e+01 -1.050221e+01 