# vtk DataFile Version 2.0
Comment goes here
ASCII

DATASET STRUCTURED_POINTS
FIELD FieldData 1
TIME 1 1 double
0.11500000
DIMENSIONS    128   128   1

ORIGIN    0.000   0.000   0.000
SPACING   0.039062 0.039062   1.000

POINT_DATA   16384
SCALARS P double
LOOKUP_TABLE default

-4.339144e+00 -4.138230e+00 -4.853537e+00 -4.552808e+00 -5.228695e+00 -4.833135e+00 -5.467521e+00 -4.982841e+00 -5.574049e+00 -5.006586e+00 -5.553274e+00 -4.909900e+00 -5.410995e+00 -4.699039e+00 -5.153681e+00 -4.380850e+00 -4.788338e+00 -3.962649e+00 -4.322393e+00 -3.452102e+00 -3.763567e+00 -2.857101e+00 -3.119758e+00 -2.185633e+00 -2.398904e+00 -1.445644e+00 -1.608846e+00 -6.448931e-01 -7.571803e-01 2.092070e-01 1.488917e-01 1.109738e+00 1.102704e+00 2.050416e+00 2.098246e+00 3.025709e+00 3.130247e+00 4.030900e+00 4.194213e+00 5.062101e+00 5.286384e+00 6.116188e+00 6.403633e+00 7.190662e+00 7.543275e+00 8.283422e+00 8.702799e+00 9.392471e+00 9.879548e+00 1.051556e+01 1.107035e+01 1.164981e+01 1.227111e+01 1.279131e+01 1.347650e+01 1.393476e+01 1.467957e+01 1.507315e+01 1.587152e+01 1.619757e+01 1.704161e+01 1.729709e+01 1.817704e+01 1.835876e+01 1.926316e+01 1.936781e+01 2.028366e+01 2.030792e+01 2.122096e+01 2.116163e+01 2.205669e+01 2.191088e+01 2.277229e+01 2.253760e+01 2.334965e+01 2.302443e+01 2.377181e+01 2.335533e+01 2.402364e+01 2.351638e+01 2.409257e+01 2.349637e+01 2.396917e+01 2.328743e+01 2.364771e+01 2.288551e+01 2.312659e+01 2.229081e+01 2.240865e+01 2.150794e+01 2.150125e+01 2.054599e+01 2.041624e+01 1.941839e+01 1.916966e+01 1.814253e+01 1.778131e+01 1.673926e+01 1.627411e+01 1.523220e+01 1.467335e+01 1.364687e+01 1.300579e+01 1.200991e+01 1.129882e+01 1.034809e+01 9.579536e+00 8.687552e+00 7.873981e+00 7.053056e+00 6.206472e+00 5.467378e+00 4.599082e+00 3.950887e+00 3.071287e+00 2.521274e+00 1.639769e+00 1.193425e+00 3.183636e-01 -2.057399e-02 -8.818900e-01 -1.111335e+00 -1.952604e+00 -2.072001e+00 -2.887851e+00 -2.898033e+00 -3.683932e+00 -3.586977e+00 
-3.982131e+00 -3.805768e+00 -4.507406e+00 -4.229523e+00 -4.891746e+00 -4.517130e+00 -5.138138e+00 -4.672333e+00 -5.250720e+00 -4.699921e+00 -5.234604e+00 -4.605566e+00 -5.095712e+00 -4.395667e+00 -4.840632e+00 -4.077213e+00 -4.476482e+00 -3.657654e+00 -4.010786e+00 -3.144779e+00 -3.451353e+00 -2.546588e+00 -2.806147e+00 -1.871167e+00 -2.083165e+00 -1.126545e+00 -1.290288e+00 -3.205520e-01 -4.351458e-01 5.393355e-01 4.750352e-01 1.446146e+00 1.433567e+00 2.393548e+00 2.434419e+00 3.375968e+00 3.472300e+00 4.388651e+00 4.542692e+00 5.427678e+00 5.641812e+00 6.489901e+00 6.766510e+00 7.572804e+00 7.914081e+00 8.674282e+00 9.082001e+00 9.792347e+00 1.026761e+01 1.092478e+01 1.146774e+01 1.206872e+01 1.267832e+01 1.322033e+01 1.389404e+01 1.437435e+01 1.510799e+01 1.552384e+01 1.631142e+01 1.665995e+01 1.749359e+01 1.777177e+01 1.864174e+01 1.884638e+01 1.974121e+01 1.986899e+01 2.077565e+01 2.082322e+01 2.172742e+01 2.169151e+01 2.257802e+01 2.245564e+01 2.330875e+01 2.309734e+01 2.390127e+01 2.359898e+01 2.433839e+01 2.394422e+01 2.460467e+01 2.411879e+01 2.468720e+01 2.411110e+01 2.457618e+01 2.391288e+01 2.426552e+01 2.351971e+01 2.375324e+01 2.293140e+01 2.304182e+01 2.215222e+01 2.213831e+01 2.119098e+01 2.105430e+01 2.006092e+01 1.980567e+01 1.877933e+01 1.841212e+01 1.736707e+01 1.689661e+01 1.584787e+01 1.528456e+01 1.424750e+01 1.360296e+01 1.259291e+01 1.187954e+01 1.091132e+01 1.014180e+01 9.229355e+00 8.416273e+00 7.572314e+00 6.727768e+00 5.963519e+00 5.098871e+00 4.423876e+00 3.549550e+00 2.971573e+00 2.096940e+00 1.621941e+00 7.552724e-01 3.874422e-01 -4.640837e-01 -7.222395e-01 -1.552486e+00 -1.700028e+00 -2.503824e+00 -2.541243e+00 -3.314290e+00 -3.243361e+00 
-4.420905e+00 -4.218066e+00 -4.934745e+00 -4.631553e+00 -5.308457e+00 -4.909962e+00 -5.545061e+00 -5.057037e+00 -5.648704e+00 -5.077548e+00 -5.624485e+00 -4.977124e+00 -5.478302e+00 -4.762117e+00 -5.216716e+00 -4.439462e+00 -4.846822e+00 -4.016564e+00 -4.376130e+00 -3.501173e+00 -3.812449e+00 -2.901268e+00 -3.163763e+00 -2.224926e+00 -2.438099e+00 -1.480187e+00 -1.643392e+00 -6.749026e-01 -7.873293e-01 1.834197e-01 1.228020e-01 1.087777e+00 1.080261e+00 2.031818e+00 2.078984e+00 3.009962e+00 3.113672e+00 4.017478e+00 4.179838e+00 5.050500e+00 5.273770e+00 6.105971e+00 6.392430e+00 7.181495e+00 7.533257e+00 8.275116e+00 8.693904e+00 9.385012e+00 9.871895e+00 1.050913e+01 1.106425e+01 1.164478e+01 1.226707e+01 1.278825e+01 1.347518e+01 1.393438e+01 1.468177e+01 1.507631e+01 1.587813e+01 1.620517e+01 1.705354e+01 1.731006e+01 1.819518e+01 1.837798e+01 1.928830e+01 1.939403e+01 2.031644e+01 2.034173e+01 2.126181e+01 2.120340e+01 2.210580e+01 2.196072e+01 2.282957e+01 2.259534e+01 2.341470e+01 2.308957e+01 2.384394e+01 2.342709e+01 2.410185e+01 2.359367e+01 2.417558e+01 2.357783e+01 2.405542e+01 2.337145e+01 2.373546e+01 2.297030e+01 2.321393e+01 2.237442e+01 2.249356e+01 2.158838e+01 2.158171e+01 2.062125e+01 2.049026e+01 1.948656e+01 1.923539e+01 1.820187e+01 1.783712e+01 1.678827e+01 1.631866e+01 1.526967e+01 1.470561e+01 1.367197e+01 1.302511e+01 1.202216e+01 1.130493e+01 1.034741e+01 9.572547e+00 8.674216e+00 7.854355e+00 7.027666e+00 6.174974e+00 5.430815e+00 4.556727e+00 3.904252e+00 3.019278e+00 2.465824e+00 1.579436e+00 1.130513e+00 2.511030e-01 -8.955384e-02 -9.546663e-01 -1.184996e+00 -2.029513e+00 -2.149003e+00 -2.967573e+00 -2.977110e+00 -3.765236e+00 -3.666963e+00 
-4.147456e+00 -3.967468e+00 -4.671566e+00 -4.388950e+00 -5.052926e+00 -4.672605e+00 -5.294764e+00 -4.822412e+00 -5.401455e+00 -4.843388e+00 -5.378328e+00 -4.741412e+00 -5.231510e+00 -4.523080e+00 -4.967777e+00 -4.195564e+00 -4.594426e+00 -3.766490e+00 -4.119155e+00 -3.243819e+00 -3.549944e+00 -2.635726e+00 -2.894931e+00 -1.950476e+00 -2.162291e+00 -1.196283e+00 -1.360086e+00 -3.811657e-01 -4.961267e-01 4.872176e-01 4.221924e-01 1.401727e+00 1.388037e+00 2.355894e+00 2.395270e+00 3.344052e+00 3.438547e+00 4.361416e+00 4.513363e+00 5.404112e+00 5.616029e+00 6.469117e+00 6.743568e+00 7.554126e+00 7.893526e+00 8.657320e+00 9.063698e+00 9.777058e+00 1.025179e+01 1.091150e+01 1.145500e+01 1.205821e+01 1.266967e+01 1.321369e+01 1.389081e+01 1.437303e+01 1.511176e+01 1.552953e+01 1.632398e+01 1.667449e+01 1.751678e+01 1.779704e+01 1.867735e+01 1.888416e+01 1.979085e+01 1.992083e+01 2.084064e+01 2.089035e+01 2.180866e+01 2.177471e+01 2.267594e+01 2.255518e+01 2.342320e+01 2.321291e+01 2.403153e+01 2.372966e+01 2.448310e+01 2.408849e+01 2.476187e+01 2.427449e+01 2.485434e+01 2.427552e+01 2.475020e+01 2.408282e+01 2.444290e+01 2.369155e+01 2.393014e+01 2.310122e+01 2.321418e+01 2.231596e+01 2.230201e+01 2.134456e+01 2.120529e+01 2.020042e+01 1.994016e+01 1.890116e+01 1.852675e+01 1.746810e+01 1.698856e+01 1.592559e+01 1.535167e+01 1.430013e+01 1.364385e+01 1.261941e+01 1.189360e+01 1.091146e+01 1.012920e+01 9.203653e+00 8.377893e+00 7.521958e+00 6.665138e+00 5.890286e+00 5.014040e+00 4.330006e+00 3.444967e+00 2.859638e+00 1.975322e+00 1.494719e+00 6.194823e-01 2.477986e-01 -6.111484e-01 -8.714513e-01 -1.707985e+00 -1.856051e+00 -2.665049e+00 -2.701478e+00 -3.478716e+00 -3.405411e+00 
-4.667458e+00 -4.458765e+00 -5.179495e+00 -4.868835e+00 -5.548731e+00 -5.141356e+00 -5.778539e+00 -5.280415e+00 -5.873403e+00 -5.291105e+00 -5.838740e+00 -5.179361e+00 -5.680743e+00 -4.951815e+00 -5.406247e+00 -4.615672e+00 -5.022606e+00 -4.178591e+00 -4.537586e+00 -3.648577e+00 -3.959249e+00 -3.033867e+00 -3.295838e+00 -2.342809e+00 -2.555654e+00 -1.583723e+00 -1.746908e+00 -7.647486e-01 -8.775668e-01 1.063245e-01 4.481647e-02 1.022232e+00 1.013271e+00 1.976404e+00 2.021561e+00 2.963115e+00 3.064302e+00 3.977582e+00 4.137020e+00 5.016005e+00 5.236147e+00 6.075516e+00 6.358908e+00 7.154045e+00 7.503133e+00 8.250075e+00 8.666963e+00 9.362318e+00 9.848484e+00 1.048931e+01 1.104531e+01 1.162898e+01 1.225412e+01 1.277818e+01 1.347026e+01 1.393226e+01 1.468733e+01 1.508471e+01 1.589689e+01 1.622690e+01 1.708829e+01 1.734795e+01 1.824864e+01 1.843470e+01 1.936290e+01 1.947192e+01 2.041415e+01 2.044261e+01 2.138397e+01 2.132840e+01 2.225301e+01 2.211020e+01 2.300156e+01 2.276877e+01 2.361031e+01 2.328551e+01 2.406106e+01 2.364316e+01 2.433747e+01 2.382659e+01 2.442580e+01 2.382347e+01 2.431560e+01 2.362495e+01 2.400027e+01 2.322621e+01 2.347758e+01 2.262688e+01 2.274995e+01 2.183127e+01 2.182465e+01 2.084852e+01 2.071374e+01 1.969239e+01 1.943381e+01 1.838096e+01 1.800550e+01 1.693606e+01 1.645289e+01 1.538252e+01 1.480259e+01 1.374732e+01 1.308289e+01 1.205859e+01 1.132272e+01 1.034467e+01 9.550697e+00 8.633183e+00 7.794293e+00 6.950197e+00 6.079051e+00 5.319614e+00 4.428050e+00 3.762684e+00 2.861522e+00 2.297724e+00 1.396651e+00 9.400007e-01 4.753578e-02 -2.982445e-01 -1.174733e+00 -1.407663e+00 -2.261893e+00 -2.381593e+00 -3.208279e+00 -3.215808e+00 -4.010558e+00 -3.908251e+00 
-4.480687e+00 -4.293287e+00 -5.002172e+00 -4.709932e+00 -5.377282e+00 -4.985403e+00 -5.609744e+00 -5.124160e+00 -5.704400e+00 -5.131669e+00 -5.667020e+00 -5.014233e+00 -5.504136e+00 -4.778832e+00 -5.222901e+00 -4.433001e+00 -4.830965e+00 -3.984713e+00 -4.336365e+00 -3.442269e+00 -3.747418e+00 -2.814188e+00 -3.072610e+00 -2.109094e+00 -2.320470e+00 -1.335572e+00 -1.499430e+00 -5.020215e-01 -6.176668e-01 3.835204e-01 3.170732e-01 1.313565e+00 1.297651e+00 2.281352e+00 2.317697e+00 3.281014e+00 3.371748e+00 4.307695e+00 4.455318e+00 5.357599e+00 5.564899e+00 6.427956e+00 6.697866e+00 7.516888e+00 7.852278e+00 8.623162e+00 9.026585e+00 9.745856e+00 1.021924e+01 1.088393e+01 1.142827e+01 1.203577e+01 1.265076e+01 1.319867e+01 1.388244e+01 1.436839e+01 1.511723e+01 1.553877e+01 1.634694e+01 1.670140e+01 1.756104e+01 1.784548e+01 1.874662e+01 1.895780e+01 1.988846e+01 2.002291e+01 2.096932e+01 2.102341e+01 2.197031e+01 2.194040e+01 2.287147e+01 2.275410e+01 2.365238e+01 2.344448e+01 2.429289e+01 2.399204e+01 2.477393e+01 2.437858e+01 2.507820e+01 2.458797e+01 2.519104e+01 2.460691e+01 2.510106e+01 2.442561e+01 2.480079e+01 2.403839e+01 2.428725e+01 2.344416e+01 2.356224e+01 2.264670e+01 2.263260e+01 2.165480e+01 2.151019e+01 2.048215e+01 2.021165e+01 1.914704e+01 1.875794e+01 1.767179e+01 1.717371e+01 1.608197e+01 1.548642e+01 1.440554e+01 1.372538e+01 1.267181e+01 1.192070e+01 1.091038e+01 1.010225e+01 9.150199e+00 8.298759e+00 7.418622e+00 6.536988e+00 5.740747e+00 4.841104e+00 4.138875e+00 3.232275e+00 2.632193e+00 1.728439e+00 1.236638e+00 3.442507e-01 -3.507655e-02 -9.088330e-01 -1.173325e+00 -2.022363e+00 -2.171341e+00 -2.990644e+00 -3.024939e+00 -3.810442e+00 -3.732223e+00 
-5.082621e+00 -4.863899e+00 -5.591172e+00 -5.267805e+00 -5.952480e+00 -5.530060e+00 -6.170519e+00 -5.655335e+00 -6.250344e+00 -5.649269e+00 -6.197902e+00 -5.518301e+00 -6.019872e+00 -5.269531e+00 -5.723541e+00 -4.910598e+00 -5.316689e+00 -4.449579e+00 -4.807492e+00 -3.894894e+00 -4.204428e+00 -3.255204e+00 -3.516171e+00 -2.539304e+00 -2.751472e+00 -1.755985e+00 -1.919017e+00 -9.138781e-01 -1.027254e+00 -2.126477e-02 -8.419680e-02 9.141299e-01 9.027718e-01 1.885348e+00 1.927102e+00 2.886390e+00 2.983238e+00 3.912367e+00 4.066720e+00 4.959571e+00 5.174202e+00 6.025456e+00 6.303365e+00 7.108500e+00 7.452703e+00 8.207947e+00 8.621210e+00 9.323438e+00 9.807954e+00 1.045455e+01 1.101158e+01 1.160027e+01 1.222981e+01 1.275846e+01 1.345887e+01 1.392536e+01 1.469309e+01 1.509510e+01 1.592451e+01 1.625944e+01 1.714265e+01 1.740757e+01 1.833448e+01 1.852607e+01 1.948445e+01 1.959911e+01 2.057486e+01 2.060880e+01 2.158623e+01 2.153563e+01 2.249789e+01 2.235914e+01 2.328871e+01 2.305860e+01 2.393779e+01 2.361382e+01 2.442535e+01 2.400596e+01 2.473347e+01 2.421832e+01 2.484695e+01 2.423715e+01 2.475397e+01 2.405233e+01 2.444685e+01 2.365800e+01 2.392247e+01 2.305307e+01 2.318276e+01 2.224147e+01 2.223483e+01 2.123233e+01 2.109100e+01 2.003988e+01 1.976854e+01 1.868304e+01 1.828922e+01 1.718492e+01 1.667855e+01 1.557196e+01 1.496494e+01 1.387298e+01 1.317860e+01 1.211811e+01 1.135051e+01 1.033771e+01 9.511259e+00 8.561295e+00 7.690151e+00 6.816660e+00 5.914317e+00 5.129141e+00 4.208119e+00 3.521103e+00 2.592738e+00 2.011644e+00 1.085976e+00 6.164870e-01 -2.977645e-01 -6.519628e-01 -1.547361e+00 -1.784441e+00 -2.654745e+00 -2.774566e+00 -3.614621e+00 -3.618543e+00 -4.424147e+00 -4.314844e+00 
-4.987012e+00 -4.788075e+00 -5.503805e+00 -5.196724e+00 -5.868810e+00 -5.459213e+00 -6.086516e+00 -5.580736e+00 -6.162485e+00 -5.567445e+00 -6.103149e+00 -5.426269e+00 -5.915642e+00 -5.164763e+00 -5.607671e+00 -4.790992e+00 -5.187399e+00 -4.313432e+00 -4.663361e+00 -3.740879e+00 -4.044366e+00 -3.082359e+00 -3.339409e+00 -2.347027e+00 -2.557558e+00 -1.544032e+00 -1.707805e+00 -6.823643e-01 -7.989026e-01 2.293474e-01 1.608456e-01 1.183052e+00 1.163802e+00 2.171510e+00 2.203211e+00 3.188514e+00 3.273392e+00 4.229061e+00 4.369861e+00 5.289455e+00 5.489371e+00 6.367303e+00 6.629831e+00 7.461382e+00 7.790105e+00 8.571381e+00 8.969673e+00 9.697508e+00 1.016819e+01 1.084000e+01 1.138493e+01 1.199855e+01 1.261827e+01 1.317171e+01 1.386505e+01 1.435635e+01 1.512012e+01 1.554713e+01 1.637587e+01 1.673615e+01 1.762203e+01 1.791273e+01 1.884552e+01 1.906338e+01 2.003058e+01 2.017194e+01 2.115900e+01 2.121995e+01 2.221063e+01 2.218713e+01 2.316394e+01 2.305205e+01 2.399675e+01 2.379285e+01 2.468702e+01 2.438811e+01 2.521370e+01 2.481766e+01 2.555760e+01 2.506346e+01 2.570221e+01 2.511042e+01 2.563447e+01 2.494715e+01 2.534551e+01 2.456666e+01 2.483124e+01 2.396688e+01 2.409275e+01 2.315106e+01 2.313662e+01 2.212794e+01 2.197497e+01 2.091167e+01 2.062522e+01 1.952156e+01 1.910963e+01 1.798142e+01 1.745462e+01 1.631881e+01 1.568982e+01 1.456399e+01 1.384694e+01 1.274873e+01 1.195864e+01 1.090519e+01 1.005730e+01 9.064726e+00 8.173937e+00 7.256872e+00 6.337341e+00 5.508558e+00 4.573313e+00 3.843509e+00 2.904234e+00 2.281908e+00 1.348826e+00 8.402704e-01 -7.787058e-02 -4.684905e-01 -1.364366e+00 -1.634867e+00 -2.502470e+00 -2.652465e+00 -3.486965e+00 -3.517662e+00 -4.315258e+00 -4.229248e+00 
-5.672794e+00 -5.439448e+00 -6.175429e+00 -5.833708e+00 -6.524635e+00 -6.080628e+00 -6.725259e+00 -6.185711e+00 -6.783168e+00 -6.155368e+00 -6.705051e+00 -5.996744e+00 -6.498263e+00 -5.717579e+00 -6.170707e+00 -5.326102e+00 -5.730734e+00 -4.830952e+00 -5.187077e+00 -4.241105e+00 -4.548772e+00 -3.565801e+00 -3.825086e+00 -2.814453e+00 -3.025403e+00 -1.996522e+00 -2.159087e+00 -1.121350e+00 -1.235292e+00 -1.979478e-01 -2.627312e-01 7.652590e-01 7.505797e-01 1.760704e+00 1.797590e+00 2.781945e+00 2.872447e+00 3.823891e+00 3.970670e+00 4.882932e+00 5.089215e+00 5.956967e+00 6.226404e+00 7.045269e+00 7.381714e+00 8.148205e+00 8.555404e+00 9.266802e+00 9.748012e+00 1.040219e+01 1.095976e+01 1.155497e+01 1.218988e+01 1.272454e+01 1.343601e+01 1.390844e+01 1.469357e+01 1.510183e+01 1.595532e+01 1.629706e+01 1.721108e+01 1.748341e+01 1.844757e+01 1.864711e+01 1.964858e+01 1.977146e+01 2.079521e+01 2.083726e+01 2.186643e+01 2.182331e+01 2.283969e+01 2.270718e+01 2.369171e+01 2.346595e+01 2.439934e+01 2.407712e+01 2.494047e+01 2.451953e+01 2.529489e+01 2.477424e+01 2.544524e+01 2.482539e+01 2.537779e+01 2.466101e+01 2.508316e+01 2.427372e+01 2.455701e+01 2.366133e+01 2.380044e+01 2.282718e+01 2.282034e+01 2.178039e+01 2.162937e+01 2.053581e+01 2.024580e+01 1.911361e+01 1.869298e+01 1.753874e+01 1.699859e+01 1.584001e+01 1.519363e+01 1.404899e+01 1.331121e+01 1.219876e+01 1.138529e+01 1.032265e+01 9.449416e+00 8.452994e+00 7.535550e+00 6.620088e+00 5.673138e+00 4.851347e+00 3.888388e+00 3.170727e+00 2.203819e+00 1.598408e+00 6.380708e-01 1.507126e-01 -7.940778e-01 -1.159783e+00 -2.081527e+00 -2.324003e+00 -3.216554e+00 -3.336037e+00 -4.194455e+00 -4.192765e+00 -5.013148e+00 -4.893465e+00 
-5.674263e+00 -5.459137e+00 -6.183347e+00 -5.855706e+00 -6.533481e+00 -6.099542e+00 -6.730210e+00 -6.196848e+00 -6.780071e+00 -6.154697e+00 -6.690384e+00 -5.980852e+00 -6.469076e+00 -5.683615e+00 -6.124567e+00 -5.271731e+00 -5.665680e+00 -4.754316e+00 -5.101575e+00 -4.140792e+00 -4.441692e+00 -3.440837e+00 -3.695690e+00 -2.664303e+00 -2.873347e+00 -1.821100e+00 -1.984428e+00 -9.210345e-01 -1.038492e+00 2.641830e-02 -4.465187e-02 1.012385e+00 9.887116e-01 2.028903e+00 2.054246e+00 3.069224e+00 3.145904e+00 4.128081e+00 4.259149e+00 5.201867e+00 5.391058e+00 6.288677e+00 6.540270e+00 7.388200e+00 7.706774e+00 8.501425e+00 8.891522e+00 9.630184e+00 1.009589e+01 1.077655e+01 1.132101e+01 1.194211e+01 1.256708e+01 1.312728e+01 1.383259e+01 1.433051e+01 1.511373e+01 1.554768e+01 1.640379e+01 1.677166e+01 1.769288e+01 1.799195e+01 1.896770e+01 1.919467e+01 2.021172e+01 2.036269e+01 2.140541e+01 2.147605e+01 2.252682e+01 2.251252e+01 2.355222e+01 2.344837e+01 2.445697e+01 2.425920e+01 2.521638e+01 2.492087e+01 2.580669e+01 2.541050e+01 2.620603e+01 2.570738e+01 2.639532e+01 2.579391e+01 2.635919e+01 2.565647e+01 2.608677e+01 2.528621e+01 2.557239e+01 2.467966e+01 2.481611e+01 2.383927e+01 2.382412e+01 2.277363e+01 2.260882e+01 2.149754e+01 2.118869e+01 2.003168e+01 1.958781e+01 1.840200e+01 1.783511e+01 1.663882e+01 1.596326e+01 1.477567e+01 1.400742e+01 1.284788e+01 1.200384e+01 1.089119e+01 9.988452e+00 8.940379e+00 7.995550e+00 7.028057e+00 6.056725e+00 5.183692e+00 4.200038e+00 3.432950e+00 2.449501e+00 1.797332e+00 8.248534e-01 2.940701e-01 -6.584241e-01 -1.063739e+00 -1.988892e+00 -2.266847e+00 -3.158809e+00 -3.309468e+00 -4.163709e+00 -4.188833e+00 -5.001949e+00 -4.904742e+00 
-6.447005e+00 -6.193819e+00 -6.940190e+00 -6.573887e+00 -7.272076e+00 -6.799400e+00 -7.448673e+00 -6.876968e+00 -7.476915e+00 -6.814009e+00 -7.364450e+00 -6.618565e+00 -7.119485e+00 -6.299172e+00 -6.750678e+00 -5.864785e+00 -6.267079e+00 -5.324717e+00 -5.678086e+00 -4.688616e+00 -4.993418e+00 -3.966432e+00 -4.223073e+00 -3.168355e+00 -3.377250e+00 -2.304715e+00 -2.466212e+00 -1.385814e+00 -1.500079e+00 -4.216748e-01 -4.885537e-01 5.782741e-01 5.594255e-01 1.605565e+00 1.636045e+00 2.653071e+00 2.734967e+00 3.715337e+00 3.851602e+00 4.788821e+00 4.983258e+00 5.871977e+00 6.129111e+00 6.965147e+00 7.289976e+00 8.070246e+00 8.467873e+00 9.190240e+00 9.665408e+00 1.032845e+01 1.088502e+01 1.148776e+01 1.212813e+01 1.266973e+01 1.339435e+01 1.387380e+01 1.468067e+01 1.509657e+01 1.598092e+01 1.633123e+01 1.728531e+01 1.756727e+01 1.858031e+01 1.879041e+01 1.984874e+01 1.998278e+01 2.107013e+01 2.112338e+01 2.222130e+01 2.218872e+01 2.327712e+01 2.315365e+01 2.421143e+01 2.399230e+01 2.499800e+01 2.467906e+01 2.561157e+01 2.518963e+01 2.602888e+01 2.550202e+01 2.622962e+01 2.559754e+01 2.619744e+01 2.546168e+01 2.592069e+01 2.508499e+01 2.539329e+01 2.446370e+01 2.461520e+01 2.360031e+01 2.359289e+01 2.250387e+01 2.233947e+01 2.118999e+01 2.087450e+01 1.968054e+01 1.922349e+01 1.800299e+01 1.741708e+01 1.618940e+01 1.548986e+01 1.427513e+01 1.347892e+01 1.229737e+01 1.142238e+01 1.029353e+01 9.357816e+00 8.299849e+00 7.320867e+00 6.350017e+00 5.344103e+00 4.474243e+00 3.456178e+00 2.698567e+00 1.681343e+00 1.044535e+00 3.926108e-02 -4.708364e-01 -1.454904e+00 -1.834865e+00 -2.790206e+00 -3.038853e+00 -3.959507e+00 -4.077630e+00 -4.958999e+00 -4.949076e+00 -5.787705e+00 -5.653626e+00 
-6.552969e+00 -6.316259e+00 -7.049986e+00 -6.695368e+00 -7.379217e+00 -6.913676e+00 -7.547587e+00 -6.978690e+00 -7.562884e+00 -6.898653e+00 -7.433535e+00 -6.682354e+00 -7.168440e+00 -6.339000e+00 -6.776868e+00 -5.878134e+00 -6.268408e+00 -5.309610e+00 -5.652944e+00 -4.643576e+00 -4.940651e+00 -3.890475e+00 -4.141978e+00 -3.061005e+00 -3.267587e+00 -2.166037e+00 -2.328235e+00 -1.216446e+00 -1.334564e+00 -2.228602e-01 -2.968080e-01 8.046920e-01 7.755859e-01 1.857191e+00 1.874368e+00 2.927063e+00 2.992895e+00 4.008581e+00 4.126462e+00 5.098160e+00 5.272501e+00 6.194486e+00 6.430585e+00 7.298437e+00 7.602205e+00 8.412755e+00 8.790319e+00 9.541493e+00 9.998676e+00 1.068926e+01 1.123098e+01 1.186031e+01 1.248997e+01 1.305759e+01 1.377648e+01 1.428180e+01 1.508855e+01 1.553058e+01 1.642077e+01 1.679783e+01 1.776378e+01 1.807336e+01 1.910406e+01 1.934277e+01 2.042402e+01 2.058766e+01 2.170237e+01 2.178603e+01 2.291475e+01 2.291307e+01 2.403451e+01 2.394197e+01 2.503373e+01 2.484493e+01 2.588421e+01 2.559429e+01 2.655863e+01 2.616353e+01 2.703156e+01 2.652845e+01 2.728057e+01 2.666813e+01 2.728720e+01 2.656599e+01 2.703791e+01 2.621063e+01 2.652488e+01 2.559669e+01 2.574673e+01 2.472545e+01 2.470900e+01 2.360525e+01 2.342444e+01 2.225161e+01 2.191285e+01 2.068704e+01 2.020072e+01 1.894032e+01 1.832029e+01 1.704551e+01 1.630839e+01 1.504056e+01 1.420486e+01 1.296562e+01 1.205083e+01 1.086134e+01 9.887026e+00 8.767117e+00 7.752142e+00 6.719655e+00 5.681503e+00 4.751767e+00 3.706104e+00 2.891612e+00 1.852016e+00 1.162304e+00 1.401758e-01 -4.181303e-01 -1.413511e+00 -1.836520e+00 -2.797839e+00 -3.084125e+00 -4.005818e+00 -4.156103e+00 -5.034102e+00 -5.050933e+00 -5.882412e+00 -5.769839e+00 
-7.416954e+00 -7.137874e+00 -7.895649e+00 -7.497750e+00 -8.203585e+00 -7.694448e+00 -8.348263e+00 -7.735981e+00 -8.337955e+00 -7.631010e+00 -8.181478e+00 -7.388657e+00 -7.888046e+00 -7.018393e+00 -7.467191e+00 -6.529984e+00 -6.928736e+00 -5.933493e+00 -6.282814e+00 -5.239310e+00 -5.539902e+00 -4.458180e+00 -4.710844e+00 -3.601210e+00 -3.806817e+00 -2.679803e+00 -2.839223e+00 -1.705494e+00 -1.819460e+00 -6.896671e-01 -7.585841e-01 3.568518e-01 3.331473e-01 1.424292e+00 1.446787e+00 2.504480e+00 2.575215e+00 3.591345e+00 3.713572e+00 4.681310e+00 4.859529e+00 5.773478e+00 6.013332e+00 6.869568e+00 7.177559e+00 7.973554e+00 8.356604e+00 9.091024e+00 9.555893e+00 1.022830e+01 1.078091e+01 1.139139e+01 1.203611e+01 1.258488e+01 1.332381e+01 1.381081e+01 1.464323e+01 1.506777e+01 1.598965e+01 1.635017e+01 1.735389e+01 1.764778e+01 1.872209e+01 1.894568e+01 2.007582e+01 2.022444e+01 2.139251e+01 2.146069e+01 2.264615e+01 2.262791e+01 2.380823e+01 2.369741e+01 2.484879e+01 2.463944e+01 2.573762e+01 2.542434e+01 2.644539e+01 2.602377e+01 2.694483e+01 2.641178e+01 2.721189e+01 2.656598e+01 2.722672e+01 2.646858e+01 2.697475e+01 2.610730e+01 2.644749e+01 2.547630e+01 2.564336e+01 2.457684e+01 2.456819e+01 2.341776e+01 2.323553e+01 2.201559e+01 2.166656e+01 2.039436e+01 1.988962e+01 1.858486e+01 1.793926e+01 1.662347e+01 1.585482e+01 1.455064e+01 1.367878e+01 1.240906e+01 1.145481e+01 1.024166e+01 9.225872e+00 8.089810e+00 7.032464e+00 5.991690e+00 4.911214e+00 3.981094e+00 2.893889e+00 2.086663e+00 1.006847e+00 3.315534e-01 -7.291017e-01 -1.266515e+00 -2.298497e+00 -2.694933e+00 -3.690797e+00 -3.945683e+00 -4.899807e+00 -5.014733e+00 -5.923039e+00 -5.901396e+00 -6.761074e+00 -6.607710e+00 
-7.636397e+00 -7.371716e+00 -8.115190e+00 -7.726262e+00 -8.415821e+00 -7.910596e+00 -8.546954e+00 -7.933850e+00 -8.517919e+00 -7.805689e+00 -8.338469e+00 -7.536113e+00 -8.018627e+00 -7.135351e+00 -7.568612e+00 -6.613821e+00 -6.998835e+00 -5.982158e+00 -6.319945e+00 -5.251279e+00 -5.542903e+00 -4.432453e+00 -4.679032e+00 -3.537343e+00 -3.740036e+00 -2.577973e+00 -2.737898e+00 -1.566578e+00 -1.684671e+00 -5.153106e-01 -5.921079e-01 5.642038e-01 5.288331e-01 1.661428e+00 1.668576e+00 2.767540e+00 2.819526e+00 3.876036e+00 3.976596e+00 4.983208e+00 5.137553e+00 6.088404e+00 6.303113e+00 7.194001e+00 7.476718e+00 8.305042e+00 8.663991e+00 9.428554e+00 9.871885e+00 1.057257e+01 1.110760e+01 1.174497e+01 1.237737e+01 1.295220e+01 1.368520e+01 1.419804e+01 1.503174e+01 1.548249e+01 1.641334e+01 1.680094e+01 1.782143e+01 1.814365e+01 1.924220e+01 1.949557e+01 2.065673e+01 2.083658e+01 2.204139e+01 2.214209e+01 2.336867e+01 2.338385e+01 2.460815e+01 2.453108e+01 2.572764e+01 2.555164e+01 2.669448e+01 2.641328e+01 2.747675e+01 2.708493e+01 2.804454e+01 2.753788e+01 2.837111e+01 2.774699e+01 2.843403e+01 2.769182e+01 2.821629e+01 2.735766e+01 2.770721e+01 2.673656e+01 2.690343e+01 2.582817e+01 2.580953e+01 2.464034e+01 2.443850e+01 2.318944e+01 2.281181e+01 2.150020e+01 2.095896e+01 1.960508e+01 1.891656e+01 1.754307e+01 1.672691e+01 1.535799e+01 1.443603e+01 1.309642e+01 1.209160e+01 1.080552e+01 9.740679e+00 8.530800e+00 7.427720e+00 6.314284e+00 5.192874e+00 4.193055e+00 3.070818e+00 2.198338e+00 1.090093e+00 3.551105e-01 -7.270542e-01 -1.317839e+00 -2.364442e+00 -2.807512e+00 -3.811430e+00 -4.106078e+00 -5.062231e+00 -5.210131e+00 -6.115142e+00 -6.119926e+00 -6.971786e+00 -6.838643e+00 
-8.597056e+00 -8.284920e+00 -9.054229e+00 -8.616709e+00 -9.329759e+00 -8.775471e+00 -9.433006e+00 -8.770947e+00 -9.373863e+00 -8.613283e+00 -9.162520e+00 -8.312845e+00 -8.809328e+00 -7.880130e+00 -8.324752e+00 -7.325759e+00 -7.719408e+00 -6.660546e+00 -7.004160e+00 -5.895616e+00 -6.190252e+00 -5.042539e+00 -5.289428e+00 -4.113429e+00 -4.313987e+00 -3.120954e+00 -3.276720e+00 -2.078195e+00 -2.190678e+00 -9.983305e-01 -1.068748e+00 1.058879e-01 7.695049e-02 1.222821e+00 1.235799e+00 2.342720e+00 2.399441e+00 3.458492e+00 3.562454e+00 4.566315e+00 4.722823e+00 5.666000e+00 5.882083e+00 6.760987e+00 7.045092e+00 7.857940e+00 8.219386e+00 8.965948e+00 9.414183e+00 1.009537e+01 1.063910e+01 1.125648e+01 1.190269e+01 1.245792e+01 1.321103e+01 1.370533e+01 1.456634e+01 1.500003e+01 1.596592e+01 1.633808e+01 1.740145e+01 1.770968e+01 1.885868e+01 1.909907e+01 2.031753e+01 2.048480e+01 2.175271e+01 2.184040e+01 2.313453e+01 2.313543e+01 2.443011e+01 2.433662e+01 2.560466e+01 2.540930e+01 2.662286e+01 2.631868e+01 2.745026e+01 2.703130e+01 2.805457e+01 2.751624e+01 2.840696e+01 2.774643e+01 2.848320e+01 2.769982e+01 2.826487e+01 2.736053e+01 2.774039e+01 2.671988e+01 2.690599e+01 2.577739e+01 2.576650e+01 2.454142e+01 2.433588e+01 2.302956e+01 2.263728e+01 2.126849e+01 2.070259e+01 1.929327e+01 1.857140e+01 1.714596e+01 1.628938e+01 1.487374e+01 1.390607e+01 1.252656e+01 1.147251e+01 1.015465e+01 9.038725e+00 7.806104e+00 6.651526e+00 5.524877e+00 4.352707e+00 3.349256e+00 2.177859e+00 1.311000e+00 1.557885e-01 -5.649599e-01 -1.691533e+00 -2.260329e+00 -3.348593e+00 -3.762910e+00 -4.805679e+00 -5.065854e+00 -6.058072e+00 -6.166825e+00 -7.105192e+00 -7.067156e+00 -7.949763e+00 -7.771057e+00 
-8.940576e+00 -8.640246e+00 -9.392644e+00 -8.960903e+00 -9.654852e+00 -9.100836e+00 -9.738006e+00 -9.071152e+00 -9.653281e+00 -8.883186e+00 -9.411963e+00 -8.548309e+00 -9.025315e+00 -8.077846e+00 -8.504544e+00 -7.483096e+00 -7.860867e+00 -6.775441e+00 -7.105655e+00 -5.966515e+00 -6.250615e+00 -5.068399e+00 -5.307969e+00 -4.093778e+00 -4.290571e+00 -3.056007e+00 -3.211881e+00 -1.968999e+00 -2.085752e+00 -8.469031e-01 -9.259818e-01 2.964668e-01 2.543485e-01 1.448405e+00 1.443711e+00 2.598219e+00 2.633016e+00 3.738127e+00 3.816427e+00 4.864022e+00 4.991938e+00 5.975929e+00 6.161616e+00 7.078074e+00 7.331389e+00 8.178479e+00 8.510388e+00 9.288104e+00 9.709846e+00 1.041958e+01 1.094167e+01 1.158567e+01 1.221683e+01 1.279755e+01 1.354366e+01 1.406317e+01 1.492635e+01 1.538581e+01 1.636368e+01 1.676286e+01 1.784817e+01 1.818520e+01 1.936568e+01 1.963695e+01 2.089552e+01 2.109580e+01 2.241109e+01 2.253373e+01 2.388078e+01 2.391809e+01 2.526930e+01 2.521304e+01 2.653909e+01 2.638090e+01 2.765182e+01 2.738371e+01 2.856987e+01 2.818468e+01 2.925771e+01 2.874952e+01 2.968324e+01 2.904779e+01 2.981907e+01 2.905415e+01 2.964371e+01 2.874962e+01 2.914277e+01 2.812282e+01 2.831014e+01 2.717106e+01 2.714894e+01 2.590133e+01 2.567226e+01 2.433082e+01 2.390346e+01 2.248701e+01 2.187581e+01 2.040701e+01 1.963156e+01 1.813620e+01 1.722011e+01 1.572616e+01 1.469570e+01 1.323197e+01 1.211458e+01 1.070936e+01 9.532161e+00 8.211841e+00 7.000357e+00 5.788271e+00 4.565435e+00 3.481058e+00 2.266581e+00 1.325077e+00 1.351754e-01 -6.526806e-01 -1.805261e+00 -2.432872e+00 -3.538606e+00 -4.003134e+00 -5.055338e+00 -5.357163e+00 -6.351544e+00 -6.493691e+00 -7.427883e+00 -7.415464e+00 -8.288591e+00 -8.128298e+00 
-1.000443e+01 -9.650663e+00 -1.043048e+01 -9.944051e+00 -1.066286e+01 -1.005363e+01 -1.071317e+01 -9.991204e+00 -1.059323e+01 -9.768657e+00 -1.031480e+01 -9.397734e+00 -9.889454e+00 -8.889996e+00 -9.328576e+00 -8.256875e+00 -8.643501e+00 -7.509839e+00 -7.845714e+00 -6.660637e+00 -6.947127e+00 -5.721582e+00 -5.960346e+00 -4.705809e+00 -4.898880e+00 -3.627408e+00 -3.777168e+00 -2.501360e+00 -2.610362e+00 -1.343182e+00 -1.413814e+00 -1.682652e-01 -2.022603e-01 1.009079e+00 1.011222e+00 2.176741e+00 2.216340e+00 3.325963e+00 3.406628e+00 4.452308e+00 4.580216e+00 5.556279e+00 5.740154e+00 6.643431e+00 6.894199e+00 7.723915e+00 8.054028e+00 8.811453e+00 9.233926e+00 9.921824e+00 1.044907e+01 1.107102e+01 1.171360e+01 1.227324e+01 1.303864e+01 1.353895e+01 1.443050e+01 1.487317e+01 1.588927e+01 1.627421e+01 1.740778e+01 1.773288e+01 1.897129e+01 1.923234e+01 2.055763e+01 2.074848e+01 2.213791e+01 2.225082e+01 2.367773e+01 2.370385e+01 2.513861e+01 2.506851e+01 2.647963e+01 2.630389e+01 2.765911e+01 2.736884e+01 2.863623e+01 2.822355e+01 2.937250e+01 2.883097e+01 2.983317e+01 2.915823e+01 2.998857e+01 2.917792e+01 2.981538e+01 2.886948e+01 2.929795e+01 2.822049e+01 2.842952e+01 2.722794e+01 2.721337e+01 2.589931e+01 2.566367e+01 2.425326e+01 2.380582e+01 2.231967e+01 2.167615e+01 2.013901e+01 1.932077e+01 1.776074e+01 1.679354e+01 1.524089e+01 1.415337e+01 1.263903e+01 1.146099e+01 1.001498e+01 8.775693e+00 7.425606e+00 6.152393e+00 4.922182e+00 3.639359e+00 2.548524e+00 1.276770e+00 3.399944e-01 -9.038735e-01 -1.676688e+00 -2.879614e+00 -3.483000e+00 -4.635366e+00 -5.067748e+00 -6.162924e+00 -6.425985e+00 -7.459821e+00 -7.557857e+00 -8.528184e+00 -8.467497e+00 -9.373654e+00 -9.162021e+00 