# vtk DataFile Version 2.0
Comment goes here
ASCII

DATASET STRUCTURED_POINTS
FIELD FieldData 1
TIME 1 1 double
0.16500000
DIMENSIONS    128   128   1

ORIGIN    0.000   0.000   0.000
SPACING   0.039062 0.039062   1.000

POINT_DATA   16384
SCALARS P double
LOOKUP_TABLE default

-2.496872e-01 -8.456746e-01 -1.035021e+00 -1.571642e+00 -1.758820e+00 -2.232517e+00 -2.416814e+00 -2.824635e+00 -3.004952e+00 -3.344482e+00 -3.519355e+00 -3.788653e+00 -3.956279e+00 -4.153831e+00 -4.312110e+00 -4.436795e+00 -4.583377e+00 -4.634458e+00 -4.766806e+00 -4.743929e+00 -4.859383e+00 -4.762601e+00 -4.858452e+00 -4.688258e+00 -4.761828e+00 -4.519201e+00 -4.567920e+00 -4.254372e+00 -4.275861e+00 -3.893487e+00 -3.885632e+00 -3.437150e+00 -3.398181e+00 -2.886963e+00 -2.815522e+00 -2.245606e+00 -2.140809e+00 -1.516890e+00 -1.378387e+00 -7.057911e-01 -5.338153e-01 1.815541e-01 3.861422e-01 1.137873e+00 1.373550e+00 2.154812e+00 2.419365e+00 3.223007e+00 3.513520e+00 4.332184e+00 4.645035e+00 5.471262e+00 5.802147e+00 6.628483e+00 6.972450e+00 7.791544e+00 8.143060e+00 8.947747e+00 9.300789e+00 1.008415e+01 1.043233e+01 1.118773e+01 1.152445e+01 1.224557e+01 1.256419e+01 1.324502e+01 1.353905e+01 1.417387e+01 1.443723e+01 1.502057e+01 1.524776e+01 1.577442e+01 1.596075e+01 1.642573e+01 1.656751e+01 1.696603e+01 1.706073e+01 1.738823e+01 1.743460e+01 1.768680e+01 1.768493e+01 1.785792e+01 1.780920e+01 1.789956e+01 1.780664e+01 1.781157e+01 1.767823e+01 1.759575e+01 1.742668e+01 1.725579e+01 1.705635e+01 1.679720e+01 1.657318e+01 1.622722e+01 1.598453e+01 1.555463e+01 1.529900e+01 1.478948e+01 1.452627e+01 1.394287e+01 1.367683e+01 1.302664e+01 1.276175e+01 1.205308e+01 1.179246e+01 1.103460e+01 1.078052e+01 9.983484e+00 9.737368e+00 8.911660e+00 8.674158e+00 7.830469e+00 7.601587e+00 6.750534e+00 6.529770e+00 5.681657e+00 5.468150e+00 4.632770e+00 4.425443e+00 3.611919e+00 3.409625e+00 2.626303e+00 2.427943e+00 1.682329e+00 1.486961e+00 7.856978e-01 5.926189e-01 -5.849913e-02 
2.265902e-01 -3.509218e-01 -5.860098e-01 -1.102741e+00 -1.337135e+00 -1.789610e+00 -2.022250e+00 -2.407617e+00 -2.637077e+00 -2.953031e+00 -3.177538e+00 -3.422255e+00 -3.639719e+00 -3.811805e+00 -4.019862e+00 -4.118316e+00 -4.314372e+00 -4.338570e+00 -4.519865e+00 -4.469561e+00 -4.633231e+00 -4.508577e+00 -4.651726e+00 -4.453305e+00 -4.573083e+00 -4.301954e+00 -4.395636e+00 -4.053382e+00 -4.118444e+00 -3.707224e+00 -3.741421e+00 -3.264010e+00 -3.265451e+00 -2.725274e+00 -2.692488e+00 -2.093632e+00 -2.025631e+00 -1.372839e+00 -1.269178e+00 -5.678207e-01 -4.286427e-01 3.153278e-01 4.892452e-01 1.269371e+00 1.476581e+00 2.285986e+00 2.524344e+00 3.355834e+00 3.622487e+00 4.468660e+00 4.760040e+00 5.613399e+00 5.925242e+00 6.778300e+00 7.105686e+00 7.951064e+00 8.288477e+00 9.118983e+00 9.460404e+00 1.026910e+01 1.060813e+01 1.138836e+01 1.171836e+01 1.246380e+01 1.277808e+01 1.348269e+01 1.377471e+01 1.443275e+01 1.469632e+01 1.530232e+01 1.553184e+01 1.608053e+01 1.627118e+01 1.675752e+01 1.690547e+01 1.732463e+01 1.742717e+01 1.777452e+01 1.783022e+01 1.810140e+01 1.811010e+01 1.830112e+01 1.826399e+01 1.837133e+01 1.829074e+01 1.831152e+01 1.819094e+01 1.812311e+01 1.796687e+01 1.780938e+01 1.762247e+01 1.737547e+01 1.716325e+01 1.682820e+01 1.659614e+01 1.617596e+01 1.592935e+01 1.542847e+01 1.517220e+01 1.459650e+01 1.433486e+01 1.369164e+01 1.342819e+01 1.272596e+01 1.246347e+01 1.171176e+01 1.145217e+01 1.066127e+01 1.040576e+01 9.586444e+00 9.335502e+00 8.498718e+00 8.252292e+00 7.408897e+00 7.166506e+00 6.327022e+00 6.087908e+00 5.262311e+00 5.025581e+00 4.223143e+00 3.987894e+00 3.217069e+00 2.982498e+00 2.250862e+00 2.016358e+00 1.330586e+00 1.095803e+00 4.616849e-01 
-2.782925e-01 -8.764190e-01 -1.065943e+00 -1.604363e+00 -1.791911e+00 -2.267102e+00 -2.451958e+00 -2.861001e+00 -3.042057e+00 -3.382567e+00 -3.558342e+00 -3.828400e+00 -3.997071e+00 -4.195179e+00 -4.354620e+00 -4.479664e+00 -4.627498e+00 -4.678740e+00 -4.812396e+00 -4.789475e+00 -4.906258e+00 -4.809211e+00 -4.906379e+00 -4.735679e+00 -4.810514e+00 -4.567118e+00 -4.617013e+00 -4.302411e+00 -4.324948e+00 -3.941216e+00 -3.934246e+00 -3.484088e+00 -3.445806e+00 -2.932587e+00 -2.861602e+00 -2.289360e+00 -2.184759e+00 -1.558203e+00 -1.419607e+00 -7.440874e-01 -5.717060e-01 1.468415e-01 3.521676e-01 1.107289e+00 1.344051e+00 2.128867e+00 2.394861e+00 3.202169e+00 3.494480e+00 4.316865e+00 4.631865e+00 5.461815e+00 5.795178e+00 6.625193e+00 6.971934e+00 7.794621e+00 8.149161e+00 8.957323e+00 9.313576e+00 1.010027e+01 1.045178e+01 1.121036e+01 1.155042e+01 1.227457e+01 1.259645e+01 1.328016e+01 1.357727e+01 1.421483e+01 1.448096e+01 1.506693e+01 1.529648e+01 1.582565e+01 1.601384e+01 1.648122e+01 1.662427e+01 1.702507e+01 1.712040e+01 1.745004e+01 1.749637e+01 1.775052e+01 1.774794e+01 1.792264e+01 1.787258e+01 1.796433e+01 1.786952e+01 1.787544e+01 1.773975e+01 1.765777e+01 1.748600e+01 1.731503e+01 1.711271e+01 1.685283e+01 1.662586e+01 1.627848e+01 1.603291e+01 1.560086e+01 1.534256e+01 1.483017e+01 1.456460e+01 1.397765e+01 1.370962e+01 1.305530e+01 1.278884e+01 1.207553e+01 1.181378e+01 1.105090e+01 1.079612e+01 9.993838e+00 9.747394e+00 8.916342e+00 8.678836e+00 7.829839e+00 7.601209e+00 6.745002e+00 6.524671e+00 5.671659e+00 5.458689e+00 4.618742e+00 4.411989e+00 3.594284e+00 3.392536e+00 2.605451e+00 2.407557e+00 1.658607e+00 1.463582e+00 7.594049e-01 5.665142e-01 -8.711617e-02 
1.697275e-01 -4.120009e-01 -6.478026e-01 -1.168048e+00 -1.403528e+00 -1.858892e+00 -2.092978e+00 -2.480678e+00 -2.711922e+00 -3.029717e+00 -3.256313e+00 -3.502430e+00 -3.722247e+00 -3.895326e+00 -4.105950e+00 -4.205008e+00 -4.403789e+00 -4.428202e+00 -4.612317e+00 -4.561825e+00 -4.728341e+00 -4.603068e+00 -4.749020e+00 -4.549508e+00 -4.671972e+00 -4.399235e+00 -4.495411e+00 -4.150988e+00 -4.218278e+00 -3.804287e+00 -3.840376e+00 -3.359562e+00 -3.362489e+00 -2.818260e+00 -2.786490e+00 -2.182936e+00 -2.115423e+00 -1.457312e+00 -1.353555e+00 -6.463046e-01 -5.063984e-01 2.439740e-01 4.192910e-01 1.206243e+00 1.415554e+00 2.232112e+00 2.473292e+00 3.312153e+00 3.582351e+00 4.436005e+00 4.731638e+00 5.592480e+00 5.909247e+00 6.769694e+00 7.102611e+00 7.955201e+00 8.298659e+00 9.136137e+00 9.483994e+00 1.029938e+01 1.064508e+01 1.143170e+01 1.176843e+01 1.251995e+01 1.284082e+01 1.355122e+01 1.384947e+01 1.451304e+01 1.478226e+01 1.539354e+01 1.562791e+01 1.618167e+01 1.637618e+01 1.686739e+01 1.701805e+01 1.744184e+01 1.754584e+01 1.789754e+01 1.795337e+01 1.822854e+01 1.823608e+01 1.843060e+01 1.839108e+01 1.850127e+01 1.841722e+01 1.844004e+01 1.831510e+01 1.824831e+01 1.808707e+01 1.792945e+01 1.773717e+01 1.748869e+01 1.727101e+01 1.693305e+01 1.669570e+01 1.627112e+01 1.601963e+01 1.551286e+01 1.525231e+01 1.466934e+01 1.440415e+01 1.375242e+01 1.348622e+01 1.277447e+01 1.251003e+01 1.174804e+01 1.148727e+01 1.068561e+01 1.042960e+01 9.599336e+00 9.348453e+00 8.500810e+00 8.254864e+00 7.400945e+00 7.159310e+00 6.309843e+00 6.071622e+00 5.236744e+00 5.000914e+00 4.190006e+00 3.955551e+00 3.177130e+00 2.943157e+00 2.204819e+00 1.970645e+00 1.279047e+00 1.044274e+00 4.051660e-01 
-3.643001e-01 -9.688110e-01 -1.158862e+00 -1.702646e+00 -1.891308e+00 -2.370949e+00 -2.557492e+00 -2.970176e+00 -3.153462e+00 -3.496890e+00 -3.675391e+00 -3.947716e+00 -4.119546e+00 -4.319315e+00 -4.482272e+00 -4.608396e+00 -4.760015e+00 -4.811751e+00 -4.949365e+00 -4.926326e+00 -5.047136e+00 -4.949314e+00 -5.050466e+00 -4.878272e+00 -4.956937e+00 -4.711260e+00 -4.764716e+00 -4.446975e+00 -4.472693e+00 -4.084903e+00 -4.080623e+00 -3.625443e+00 -3.589255e+00 -3.070027e+00 -3.000441e+00 -2.421211e+00 -2.317222e+00 -1.682735e+00 -1.543884e+00 -8.595591e-01 -6.859806e-01 4.214323e-02 2.496685e-01 1.015010e+00 1.255020e+00 2.050551e+00 2.320870e+00 3.139226e+00 3.436942e+00 4.270543e+00 4.592006e+00 5.433178e+00 5.774005e+00 6.615100e+00 6.970209e+00 7.803709e+00 8.167381e+00 8.985991e+00 9.351955e+00 1.014867e+01 1.051023e+01 1.127836e+01 1.162855e+01 1.236179e+01 1.269355e+01 1.338591e+01 1.369233e+01 1.433813e+01 1.461267e+01 1.520651e+01 1.544324e+01 1.597995e+01 1.617378e+01 1.664838e+01 1.679530e+01 1.720297e+01 1.730021e+01 1.763631e+01 1.768251e+01 1.794258e+01 1.793784e+01 1.811774e+01 1.806361e+01 1.815961e+01 1.805902e+01 1.806800e+01 1.792512e+01 1.784473e+01 1.766475e+01 1.749362e+01 1.728248e+01 1.702048e+01 1.678451e+01 1.643288e+01 1.617857e+01 1.574006e+01 1.547365e+01 1.495261e+01 1.467987e+01 1.408222e+01 1.380818e+01 1.314133e+01 1.287016e+01 1.214281e+01 1.187769e+01 1.109965e+01 1.084278e+01 1.002461e+01 9.777246e+00 8.930029e+00 8.692582e+00 7.827540e+00 7.599740e+00 6.727972e+00 6.509011e+00 5.641225e+00 5.429938e+00 4.576238e+00 4.371266e+00 3.540989e+00 3.340931e+00 2.542545e+00 2.346090e+00 1.587140e+00 1.393175e+00 6.802739e-01 4.879689e-01 -1.731708e-01 
5.558362e-02 -5.345077e-01 -7.717355e-01 -1.298938e+00 -1.536600e+00 -1.997672e+00 -2.234672e+00 -2.626979e+00 -2.861822e+00 -3.183253e+00 -3.414067e+00 -3.662951e+00 -3.887523e+00 -4.062572e+00 -4.278385e+00 -4.378651e+00 -4.582944e+00 -4.607805e+00 -4.797626e+00 -4.746789e+00 -4.919070e+00 -4.792596e+00 -4.944227e+00 -4.742579e+00 -4.870488e+00 -4.594583e+00 -4.695819e+00 -4.347100e+00 -4.418919e+00 -3.999416e+00 -4.039357e+00 -3.551750e+00 -3.557715e+00 -3.005379e+00 -2.975702e+00 -2.362730e+00 -2.296245e+00 -1.627452e+00 -1.523549e+00 -8.044448e-01 -6.631224e-01 1.001393e-01 2.782250e-01 1.078929e+00 1.292425e+00 2.123395e+00 2.370215e+00 3.223930e+00 3.501233e+00 4.369956e+00 4.674133e+00 5.550041e+00 5.876719e+00 6.752027e+00 7.096098e+00 7.963176e+00 8.318847e+00 9.170311e+00 9.531195e+00 1.035998e+01 1.071921e+01 1.151860e+01 1.186901e+01 1.263267e+01 1.296694e+01 1.368889e+01 1.399982e+01 1.467441e+01 1.495514e+01 1.557697e+01 1.582123e+01 1.638514e+01 1.658753e+01 1.708849e+01 1.724467e+01 1.767779e+01 1.778474e+01 1.814524e+01 1.820133e+01 1.848460e+01 1.848973e+01 1.869141e+01 1.864696e+01 1.876306e+01 1.867185e+01 1.869895e+01 1.856505e+01 1.850052e+01 1.832901e+01 1.817127e+01 1.796797e+01 1.771666e+01 1.748779e+01 1.714406e+01 1.689590e+01 1.646249e+01 1.620105e+01 1.568243e+01 1.541318e+01 1.481552e+01 1.454315e+01 1.387420e+01 1.360248e+01 1.287142e+01 1.260314e+01 1.182030e+01 1.155726e+01 1.073380e+01 1.047691e+01 9.624475e+00 9.373849e+00 8.504240e+00 8.259398e+00 7.384223e+00 7.144242e+00 6.274649e+00 6.038341e+00 5.184789e+00 4.950870e+00 4.122958e+00 3.890185e+00 3.096550e+00 2.863844e+00 2.112114e+00 1.878650e+00 1.175444e+00 9.407217e-01 2.916941e-01 
-5.082824e-01 -1.123322e+00 -1.314242e+00 -1.866849e+00 -2.057379e+00 -2.544329e+00 -2.733719e+00 -3.152374e+00 -3.339431e+00 -3.687649e+00 -3.870763e+00 -4.146816e+00 -4.323994e+00 -4.526511e+00 -4.695423e+00 -4.823352e+00 -4.981386e+00 -5.033977e+00 -5.178302e+00 -5.155121e+00 -5.282763e+00 -5.183717e+00 -5.291636e+00 -5.117029e+00 -5.202205e+00 -4.952800e+00 -5.012319e+00 -4.689414e+00 -4.720555e+00 -4.326053e+00 -4.326372e+00 -3.862847e+00 -3.830258e+00 -3.301010e+00 -3.233857e+00 -2.642937e+00 -2.540062e+00 -1.892277e+00 -1.753080e+00 -1.053969e+00 -8.784628e-01 -1.342348e-01 7.690451e-02 8.594470e-01 1.104839e+00 1.918410e+00 2.195930e+00 3.032886e+00 3.339638e+00 4.192112e+00 4.524411e+00 5.384451e+00 5.737826e+00 6.597527e+00 6.966741e+00 7.818371e+00 8.197472e+00 9.033567e+00 9.415974e+00 1.022942e+01 1.060804e+01 1.139210e+01 1.175951e+01 1.250786e+01 1.285649e+01 1.356319e+01 1.388554e+01 1.454500e+01 1.483394e+01 1.544085e+01 1.568987e+01 1.623914e+01 1.644265e+01 1.692931e+01 1.708286e+01 1.750207e+01 1.760260e+01 1.794959e+01 1.799557e+01 1.826570e+01 1.825724e+01 1.844606e+01 1.838489e+01 1.848828e+01 1.837772e+01 1.839210e+01 1.823684e+01 1.815937e+01 1.796525e+01 1.779411e+01 1.756778e+01 1.730242e+01 1.705101e+01 1.669238e+01 1.642307e+01 1.597378e+01 1.569349e+01 1.515791e+01 1.487295e+01 1.425722e+01 1.397302e+01 1.328494e+01 1.300588e+01 1.225472e+01 1.198404e+01 1.118025e+01 1.092004e+01 1.007494e+01 9.826225e+00 8.951618e+00 8.714506e+00 7.822321e+00 7.596156e+00 6.698117e+00 6.481692e+00 5.589023e+00 5.380777e+00 4.503975e+00 4.302181e+00 3.450847e+00 3.253782e+00 2.436528e+00 2.242611e+00 1.467017e+00 1.274922e+00 5.475482e-01 3.562890e-01 -3.172702e-01 
-1.166770e-01 -7.191298e-01 -9.584960e-01 -1.495946e+00 -1.736911e+00 -2.206365e+00 -2.447795e+00 -2.846856e+00 -3.087181e+00 -3.413941e+00 -3.651189e+00 -3.904139e+00 -4.135967e+00 -4.313929e+00 -4.537669e+00 -4.639751e+00 -4.852466e+00 -4.878043e+00 -5.076592e+00 -5.025315e+00 -5.206421e+00 -5.078253e+00 -5.238586e+00 -5.033851e+00 -5.170114e+00 -4.889577e+00 -4.998590e+00 -4.643534e+00 -4.722325e+00 -4.294637e+00 -4.340528e+00 -3.842776e+00 -3.853459e+00 -3.288956e+00 -3.262570e+00 -2.635409e+00 -2.570604e+00 -1.885670e+00 -1.781670e+00 -1.044615e+00 -9.012701e-01 -1.184573e-01 6.370316e-02 8.852890e-01 1.105012e+00 1.957878e+00 2.213147e+00 3.089426e+00 3.377423e+00 4.269023e+00 4.586109e+00 5.484863e+00 5.826565e+00 6.724377e+00 7.085409e+00 7.974382e+00 8.348681e+00 9.221230e+00 9.602040e+00 1.045097e+01 1.083096e+01 1.164950e+01 1.202093e+01 1.280276e+01 1.315768e+01 1.389689e+01 1.422741e+01 1.491845e+01 1.521699e+01 1.585460e+01 1.611420e+01 1.669330e+01 1.690791e+01 1.742353e+01 1.758831e+01 1.803553e+01 1.814705e+01 1.852097e+01 1.857743e+01 1.887317e+01 1.887449e+01 1.908729e+01 1.903509e+01 1.916049e+01 1.905805e+01 1.909204e+01 1.894407e+01 1.888341e+01 1.869580e+01 1.853827e+01 1.831773e+01 1.806247e+01 1.781613e+01 1.746388e+01 1.719890e+01 1.675222e+01 1.647537e+01 1.593877e+01 1.565613e+01 1.503603e+01 1.475271e+01 1.405738e+01 1.377737e+01 1.301670e+01 1.274277e+01 1.192793e+01 1.166172e+01 1.080481e+01 1.054691e+01 9.660521e+00 9.410637e+00 8.507451e+00 8.264636e+00 7.357054e+00 7.119908e+00 6.219727e+00 5.986612e+00 5.104776e+00 4.874000e+00 4.020430e+00 3.790406e+00 2.973906e+00 2.743275e+00 1.971502e+00 1.739228e+00 1.018722e+00 7.841542e-01 1.204044e-01 
-7.111858e-01 -1.340718e+00 -1.532834e+00 -2.097540e+00 -2.290718e+00 -2.787659e+00 -2.981111e+00 -3.407919e+00 -3.600370e+00 -3.955132e+00 -4.144853e+00 -4.426020e+00 -4.610863e+00 -4.817182e+00 -4.994636e+00 -5.125106e+00 -5.292346e+00 -5.346205e+00 -5.500170e+00 -5.476907e+00 -5.614370e+00 -5.513764e+00 -5.631422e+00 -5.453608e+00 -5.548166e+00 -5.293717e+00 -5.361987e+00 -5.032006e+00 -5.070996e+00 -4.667211e+00 -4.674214e+00 -4.199067e+00 -4.171748e+00 -3.628461e+00 -3.564929e+00 -2.957556e+00 -2.856435e+00 -2.189867e+00 -2.050359e+00 -1.330302e+00 -1.152243e+00 -3.851603e-01 -1.690732e-01 6.379099e-01 8.907661e-01 1.729986e+00 2.017570e+00 2.880970e+00 3.200419e+00 4.079705e+00 4.427304e+00 5.314113e+00 5.685277e+00 6.571330e+00 6.960615e+00 7.837860e+00 8.238998e+00 9.099728e+00 9.505702e+00 1.034264e+01 1.074581e+01 1.155216e+01 1.194442e+01 1.271387e+01 1.308688e+01 1.381358e+01 1.415902e+01 1.483751e+01 1.514738e+01 1.577250e+01 1.603946e+01 1.660625e+01 1.682392e+01 1.732751e+01 1.749078e+01 1.792630e+01 1.803165e+01 1.839420e+01 1.843984e+01 1.872448e+01 1.871054e+01 1.891238e+01 1.884086e+01 1.895522e+01 1.882998e+01 1.885258e+01 1.867909e+01 1.860636e+01 1.839143e+01 1.822084e+01 1.797220e+01 1.770256e+01 1.742848e+01 1.706026e+01 1.676905e+01 1.630462e+01 1.600417e+01 1.544793e+01 1.514533e+01 1.450374e+01 1.420501e+01 1.348645e+01 1.319627e+01 1.241085e+01 1.213250e+01 1.129168e+01 1.102709e+01 1.014326e+01 9.893108e+00 8.979182e+00 8.743058e+00 7.812008e+00 7.588686e+00 6.653149e+00 6.440819e+00 5.512766e+00 5.309282e+00 4.399764e+00 4.202864e+00 3.321846e+00 3.129341e+00 2.285614e+00 2.095543e+00 1.296709e+00 1.107449e+00 3.599677e-01 1.703161e-01 -5.204151e-01 
-3.483024e-01 -9.668756e-01 -1.209096e+00 -1.759839e+00 -2.005271e+00 -2.485554e+00 -2.733000e+00 -3.140765e+00 -3.388556e+00 -3.722186e+00 -3.968208e+00 -4.226421e+00 -4.468156e+00 -4.649927e+00 -4.884502e+00 -4.989013e+00 -5.213255e+00 -5.239874e+00 -5.450379e+00 -5.398673e+00 -5.591882e+00 -5.461662e+00 -5.633945e+00 -5.425334e+00 -5.573086e+00 -5.286614e+00 -5.406343e+00 -5.043055e+00 -5.131482e+00 -4.693045e+00 -4.747194e+00 -4.236005e+00 -4.253285e+00 -3.672555e+00 -3.650838e+00 -3.004648e+00 -2.942341e+00 -2.235665e+00 -2.131765e+00 -1.370449e+00 -1.224603e+00 -4.153033e-01 -2.278630e-01 6.220540e-01 8.499820e-01 1.732575e+00 1.999078e+00 2.905989e+00 3.208300e+00 4.130933e+00 4.465390e+00 5.395089e+00 5.757109e+00 6.685331e+00 7.069403e+00 7.987880e+00 8.387592e+00 9.288455e+00 9.696560e+00 1.057244e+01 1.098097e+01 1.182502e+01 1.222547e+01 1.303142e+01 1.341495e+01 1.417701e+01 1.453475e+01 1.524756e+01 1.557091e+01 1.622941e+01 1.651042e+01 1.710971e+01 1.734143e+01 1.787666e+01 1.805346e+01 1.851971e+01 1.863762e+01 1.902983e+01 1.908674e+01 1.939970e+01 1.939555e+01 1.962397e+01 1.956072e+01 1.969942e+01 1.958100e+01 1.962513e+01 1.945719e+01 1.940259e+01 1.919216e+01 1.903573e+01 1.879079e+01 1.853086e+01 1.825989e+01 1.789659e+01 1.760800e+01 1.714359e+01 1.684526e+01 1.628425e+01 1.598313e+01 1.533234e+01 1.503411e+01 1.430254e+01 1.401145e+01 1.321001e+01 1.292881e+01 1.206990e+01 1.179994e+01 1.089700e+01 1.063837e+01 9.705342e+00 9.457148e+00 8.507987e+00 8.268593e+00 7.316806e+00 7.084130e+00 6.142408e+00 5.914170e+00 4.994114e+00 4.768059e+00 3.880006e+00 3.654075e+00 2.807023e+00 2.579484e+00 1.781093e+00 1.550633e+00 8.072923e-01 5.730721e-01 -1.099896e-01 
-9.743181e-01 -1.622028e+00 -1.815659e+00 -2.395457e+00 -2.592101e+00 -3.101459e+00 -3.300269e+00 -3.737191e+00 -3.936778e+00 -4.299670e+00 -4.498144e+00 -4.785701e+00 -4.980710e+00 -5.191839e+00 -5.380628e+00 -5.514396e+00 -5.693866e+00 -5.749486e+00 -5.916269e+00 -5.893117e+00 -6.043655e+00 -5.941324e+00 -6.071962e+00 -5.890342e+00 -5.997428e+00 -5.736812e+00 -5.816793e+00 -5.477999e+00 -5.527527e+00 -5.112023e+00 -5.128047e+00 -4.638072e+00 -4.617929e+00 -4.056585e+00 -3.998079e+00 -3.369404e+00 -3.270876e+00 -2.579865e+00 -2.440258e+00 -1.692842e+00 -1.511757e+00 -7.147419e-01 -4.924951e-01 3.465515e-01 6.088727e-01 1.481766e+00 1.782247e+00 2.680360e+00 3.016203e+00 3.930657e+00 4.298131e+00 5.219991e+00 5.614394e+00 6.534863e+00 6.950504e+00 7.861094e+00 8.291313e+00 9.183984e+00 9.621207e+00 1.048848e+01 1.092433e+01 1.175932e+01 1.218482e+01 1.298126e+01 1.338703e+01 1.413923e+01 1.451581e+01 1.521853e+01 1.555673e+01 1.620507e+01 1.649637e+01 1.708560e+01 1.732253e+01 1.784794e+01 1.802449e+01 1.848124e+01 1.859319e+01 1.897624e+01 1.902143e+01 1.932548e+01 1.930401e+01 1.952358e+01 1.943784e+01 1.956744e+01 1.942201e+01 1.945641e+01 1.925786e+01 1.919243e+01 1.894891e+01 1.878007e+01 1.850086e+01 1.822648e+01 1.792144e+01 1.754129e+01 1.722028e+01 1.673633e+01 1.640861e+01 1.582529e+01 1.549907e+01 1.482325e+01 1.450530e+01 1.374620e+01 1.344160e+01 1.261049e+01 1.232257e+01 1.143231e+01 1.116270e+01 1.022724e+01 9.976043e+00 9.009834e+00 8.775926e+00 7.793376e+00 7.574704e+00 6.589697e+00 6.383604e+00 5.409108e+00 5.212640e+00 4.260429e+00 4.070598e+00 3.151082e+00 2.965085e+00 2.087250e+00 1.902626e+00 1.074057e+00 8.888047e-01 1.157719e-01 -7.157561e-02 -7.839816e-01 
-6.409463e-01 -1.279043e+00 -1.524850e+00 -2.091575e+00 -2.342698e+00 -2.835928e+00 -3.091084e+00 -3.509221e+00 -3.766602e+00 -4.108423e+00 -4.365734e+00 -4.630262e+00 -4.884762e+00 -5.071173e+00 -5.319725e+00 -5.427296e+00 -5.666425e+00 -5.694505e+00 -5.920474e+00 -5.868506e+00 -6.077392e+00 -5.944970e+00 -6.132758e+00 -5.919716e+00 -6.082402e+00 -5.788935e+00 -5.922626e+00 -5.549432e+00 -5.650453e+00 -5.198879e+00 -5.263874e+00 -4.736059e+00 -4.762078e+00 -4.161073e+00 -4.145651e+00 -3.475502e+00 -3.416734e+00 -2.682518e+00 -2.579117e+00 -1.786932e+00 -1.638283e+00 -7.951750e-01 -6.013952e-01 2.847569e-01 5.227621e-01 1.443411e+00 1.723884e+00 2.670008e+00 2.990275e+00 3.952591e+00 4.308997e+00 5.278185e+00 5.666040e+00 6.632957e+00 7.046500e+00 8.002373e+00 8.434774e+00 9.371358e+00 9.814762e+00 1.072445e+01 1.117009e+01 1.204599e+01 1.248434e+01 1.332024e+01 1.374130e+01 1.453162e+01 1.492522e+01 1.566489e+01 1.602107e+01 1.670537e+01 1.701480e+01 1.763917e+01 1.789363e+01 1.845343e+01 1.864624e+01 1.913661e+01 1.926299e+01 1.967872e+01 1.973616e+01 2.007162e+01 2.006002e+01 2.030924e+01 2.023100e+01 2.038784e+01 2.024777e+01 2.030621e+01 2.011123e+01 2.006583e+01 1.982455e+01 1.967090e+01 1.939310e+01 1.912836e+01 1.882435e+01 1.844779e+01 1.812771e+01 1.764107e+01 1.731433e+01 1.672213e+01 1.639685e+01 1.570641e+01 1.538903e+01 1.461035e+01 1.430544e+01 1.345083e+01 1.316103e+01 1.224462e+01 1.197082e+01 1.100791e+01 1.074947e+01 9.755852e+00 9.510978e+00 8.502337e+00 8.268441e+00 7.259756e+00 7.033817e+00 6.038946e+00 5.817827e+00 4.849198e+00 4.629905e+00 3.698348e+00 3.478219e+00 2.592924e+00 2.369764e+00 1.538325e+00 1.310486e+00 5.390314e-01 3.054572e-01 -4.011831e-01 
-1.299330e+00 -1.968502e+00 -2.163964e+00 -2.761454e+00 -2.962444e+00 -3.486280e+00 -3.691859e+00 -4.140550e+00 -4.349178e+00 -4.721552e+00 -4.931128e+00 -5.226203e+00 -5.434118e+00 -5.651009e+00 -5.854203e+00 -5.992060e+00 -6.187087e+00 -6.245082e+00 -6.428188e+00 -6.405538e+00 -6.572747e+00 -6.468780e+00 -6.615997e+00 -6.430257e+00 -6.553373e+00 -6.285757e+00 -6.380763e+00 -6.031682e+00 -6.094779e+00 -5.665326e+00 -5.693031e+00 -5.185143e+00 -5.174387e+00 -4.590980e+00 -4.539188e+00 -3.884256e+00 -3.789419e+00 -3.068076e+00 -2.928815e+00 -2.147280e+00 -1.962901e+00 -1.128426e+00 -8.989784e-01 -1.971697e-02 2.539443e-01 1.169115e+00 1.485260e+00 2.426952e+00 2.782902e+00 3.741452e+00 4.133498e+00 5.099214e+00 5.522552e+00 6.485943e+00 6.934621e+00 7.886618e+00 8.353520e+00 9.285648e+00 9.762530e+00 1.066704e+01 1.114463e+01 1.201455e+01 1.248272e+01 1.331190e+01 1.375994e+01 1.454290e+01 1.495987e+01 1.569174e+01 1.606686e+01 1.674316e+01 1.706632e+01 1.768272e+01 1.794498e+01 1.849706e+01 1.869112e+01 1.917418e+01 1.929488e+01 1.970374e+01 1.974838e+01 2.007731e+01 2.004592e+01 2.028871e+01 2.018413e+01 2.033422e+01 2.016203e+01 2.021286e+01 1.998106e+01 1.992655e+01 1.964513e+01 1.948018e+01 1.916053e+01 1.888168e+01 1.853583e+01 1.814179e+01 1.778170e+01 1.727388e+01 1.691069e+01 1.629343e+01 1.593684e+01 1.521760e+01 1.487537e+01 1.406448e+01 1.374217e+01 1.285252e+01 1.255341e+01 1.159980e+01 1.132504e+01 1.032352e+01 1.007240e+01 9.039512e+00 8.809873e+00 7.761944e+00 7.550572e+00 6.503127e+00 6.306214e+00 5.273497e+00 5.087017e+00 4.081686e+00 3.901712e+00 2.934688e+00 2.757634e+00 1.838073e+00 1.660867e+00 7.962461e-01 6.164357e-01 -1.872944e-01 -3.714813e-01 -1.109694e+00 
-9.966580e-01 -1.657181e+00 -1.907337e+00 -2.492244e+00 -2.750372e+00 -3.258217e+00 -3.522913e+00 -3.952710e+00 -4.221990e+00 -4.573031e+00 -4.844371e+00 -5.116074e+00 -5.386459e+00 -5.578261e+00 -5.844230e+00 -5.955519e+00 -6.213231e+00 -6.243323e+00 -6.488625e+00 -6.436788e+00 -6.665307e+00 -6.530831e+00 -6.738073e+00 -6.520386e+00 -6.701849e+00 -6.400676e+00 -6.551967e+00 -6.167516e+00 -6.284469e+00 -5.817626e+00 -5.896416e+00 -5.348944e+00 -5.386179e+00 -4.760884e+00 -4.753693e+00 -4.054542e+00 -4.000644e+00 -3.232832e+00 -3.130590e+00 -2.300529e+00 -2.149008e+00 -1.264250e+00 -1.063270e+00 -1.323640e-01 1.174372e-01 1.085145e+00 1.382235e+00 2.376843e+00 2.718705e+00 3.730025e+00 4.113066e+00 5.130898e+00 5.550356e+00 6.564760e+00 7.014625e+00 8.016164e+00 8.489139e+00 9.469078e+00 9.956594e+00 1.090704e+01 1.139934e+01 1.231333e+01 1.279965e+01 1.367110e+01 1.413994e+01 1.496361e+01 1.540309e+01 1.617438e+01 1.657275e+01 1.728747e+01 1.763359e+01 1.828769e+01 1.857163e+01 1.916087e+01 1.937447e+01 1.989420e+01 2.003159e+01 2.047648e+01 2.053451e+01 2.089847e+01 2.087698e+01 2.115316e+01 2.105511e+01 2.123611e+01 2.106744e+01 2.114566e+01 2.091499e+01 2.088321e+01 2.060129e+01 2.045326e+01 2.013229e+01 1.986353e+01 1.951629e+01 1.912475e+01 1.876378e+01 1.825046e+01 1.788720e+01 1.725653e+01 1.690066e+01 1.616060e+01 1.581954e+01 1.498145e+01 1.466008e+01 1.373822e+01 1.343895e+01 1.244978e+01 1.217277e+01 1.113410e+01 1.087764e+01 9.807782e+00 9.568811e+00 8.485712e+00 8.260323e+00 7.180882e+00 6.964800e+00 5.904343e+00 5.693317e+00 4.665266e+00 4.455370e+00 3.471095e+00 3.258932e+00 2.327759e+00 2.110591e+00 1.239926e+00 1.015729e+00 2.112708e-01 -2.124396e-02 -7.552588e-01 
-1.688187e+00 -2.381546e+00 -2.579176e+00 -3.196414e+00 -3.402724e+00 -3.942611e+00 -4.156529e+00 -4.618234e+00 -4.838017e+00 -5.220919e+00 -5.444206e+00 -5.747736e+00 -5.971602e+00 -6.195137e+00 -6.416150e+00 -6.558942e+00 -6.773235e+00 -6.834391e+00 -7.037740e+00 -7.016255e+00 -7.204173e+00 -7.099011e+00 -7.266859e+00 -7.077084e+00 -7.220191e+00 -6.945152e+00 -7.058943e+00 -6.698478e+00 -6.778603e+00 -6.333271e+00 -6.375723e+00 -5.847024e+00 -5.848241e+00 -5.238806e+00 -5.195763e+00 -4.509494e+00 -4.419766e+00 -3.661907e+00 -3.523732e+00 -2.700860e+00 -2.513185e+00 -1.633126e+00 -1.395666e+00 -4.673344e-01 -1.806403e-01 7.861827e-01 1.120645e+00 2.115576e+00 2.495323e+00 3.507671e+00 3.929090e+00 4.948163e+00 5.406398e+00 6.421801e+00 6.910653e+00 7.912556e+00 8.424420e+00 9.403785e+00 9.929640e+00 1.087838e+01 1.140787e+01 1.231895e+01 1.284055e+01 1.370794e+01 1.420926e+01 1.502790e+01 1.549608e+01 1.626163e+01 1.668383e+01 1.739245e+01 1.775646e+01 1.840446e+01 1.869937e+01 1.928285e+01 1.949963e+01 2.001418e+01 2.014633e+01 2.058674e+01 2.063078e+01 2.099085e+01 2.094667e+01 2.121924e+01 2.109024e+01 2.126739e+01 2.106038e+01 2.113378e+01 2.085869e+01 2.082021e+01 2.048949e+01 2.033196e+01 1.995978e+01 1.967779e+01 1.927915e+01 1.886990e+01 1.845960e+01 1.792356e+01 1.751523e+01 1.685666e+01 1.646194e+01 1.568897e+01 1.531691e+01 1.444141e+01 1.409810e+01 1.313514e+01 1.282370e+01 1.179072e+01 1.151153e+01 1.042743e+01 1.017858e+01 9.062682e+00 8.840514e+00 7.711693e+00 7.511421e+00 6.387295e+00 6.203574e+00 5.099968e+00 4.927383e+00 3.857996e+00 3.691435e+00 2.667717e+00 2.502645e+00 1.533841e+00 1.366466e+00 4.597886e-01 2.871502e-01 -5.519690e-01 -7.319675e-01 -1.499585e+00 
-1.417867e+00 -2.103026e+00 -2.358360e+00 -2.962984e+00 -3.229557e+00 -3.753091e+00 -4.029336e+00 -4.471587e+00 -4.755298e+00 -5.116215e+00 -5.404597e+00 -5.684098e+00 -5.973808e+00 -6.171654e+00 -6.458849e+00 -6.574565e+00 -6.854963e+00 -6.887810e+00 -7.156762e+00 -7.105762e+00 -7.358349e+00 -7.222378e+00 -7.453518e+00 -7.231448e+00 -7.436029e+00 -7.126935e+00 -7.299952e+00 -6.903352e+00 -7.040042e+00 -6.556175e+00 -6.652143e+00 -6.082228e+00 -6.133561e+00 -5.480032e+00 -5.483380e+00 -4.750064e+00 -4.702708e+00 -3.894919e+00 -3.794817e+00 -2.919355e+00 -2.765189e+00 -1.830254e+00 -1.621477e+00 -6.364850e-01 -3.733894e-01 6.512743e-01 9.674704e-01 2.020757e+00 2.387793e+00 3.458328e+00 3.872767e+00 4.949202e+00 5.406283e+00 6.477636e+00 6.971142e+00 8.027109e+00 8.549263e+00 9.580477e+00 1.012190e+01 1.112011e+01 1.166990e+01 1.262807e+01 1.317391e+01 1.408621e+01 1.461474e+01 1.547640e+01 1.597359e+01 1.678072e+01 1.723247e+01 1.798169e+01 1.837448e+01 1.906254e+01 1.938416e+01 2.000753e+01 2.024781e+01 2.080225e+01 2.095380e+01 2.143397e+01 2.149273e+01 2.189206e+01 2.185771e+01 2.216827e+01 2.204441e+01 2.225719e+01 2.205125e+01 2.215653e+01 2.187937e+01 2.186747e+01 2.153268e+01 2.139482e+01 2.101784e+01 2.074715e+01 2.034415e+01 1.993669e+01 1.952338e+01 1.897900e+01 1.856957e+01 1.789249e+01 1.749865e+01 1.669768e+01 1.632805e+01 1.541635e+01 1.507614e+01 1.407061e+01 1.376174e+01 1.268201e+01 1.240351e+01 1.127081e+01 1.101939e+01 9.855356e+00 9.626185e+00 8.451737e+00 8.239115e+00 7.073592e+00 6.871594e+00 5.732120e+00 5.535081e+00 4.436219e+00 4.239077e+00 3.192726e+00 2.991228e+00 2.006724e+00 1.797525e+00 8.818806e-01 6.625668e-01 -1.792038e-01 -4.101397e-01 -1.174658e+00 
-2.143136e+00 -2.862641e+00 -3.062838e+00 -3.701156e+00 -3.913898e+00 -4.470768e+00 -4.694796e+00 -5.170235e+00 -5.403550e+00 -5.797634e+00 -6.037558e+00 -6.350240e+00 -6.593470e+00 -6.824453e+00 -7.067121e+00 -7.215776e+00 -7.453513e+00 -7.518855e+00 -7.746877e+00 -7.727599e+00 -7.940803e+00 -7.835375e+00 -8.028462e+00 -7.835299e+00 -8.002915e+00 -7.720606e+00 -7.857491e+00 -7.485080e+00 -7.586215e+00 -7.123510e+00 -7.184259e+00 -6.632130e+00 -6.648357e+00 -6.009010e+00 -5.977164e+00 -5.254337e+00 -5.171517e+00 -4.370586e+00 -4.234589e+00 -3.362574e+00 -3.171929e+00 -2.237385e+00 -1.991403e+00 -1.004223e+00 -7.030617e-01 3.258019e-01 6.810424e-01 1.739914e+00 2.147061e+00 3.223917e+00 3.679566e+00 4.762417e+00 5.261761e+00 6.339032e+00 6.875689e+00 7.936564e+00 8.502443e+00 9.537157e+00 1.012239e+01 1.112244e+01 1.171540e+01 1.267366e+01 1.326115e+01 1.417186e+01 1.473939e+01 1.559805e+01 1.613033e+01 1.693343e+01 1.741496e+01 1.815962e+01 1.857546e+01 1.925897e+01 1.959557e+01 2.021490e+01 2.046089e+01 2.101219e+01 2.115927e+01 2.163743e+01 2.168097e+01 2.207936e+01 2.201895e+01 2.232929e+01 2.216898e+01 2.238155e+01 2.212976e+01 2.223389e+01 2.190303e+01 2.188781e+01 2.149356e+01 2.134890e+01 2.090919e+01 2.062693e+01 2.016069e+01 1.973580e+01 1.926164e+01 1.869324e+01 1.822812e+01 1.752014e+01 1.707828e+01 1.623978e+01 1.583181e+01 1.487670e+01 1.450930e+01 1.345561e+01 1.313149e+01 1.200027e+01 1.171860e+01 1.053259e+01 1.028967e+01 9.071928e+00 8.862009e+00 7.634690e+00 7.450846e+00 6.234218e+00 6.069082e+00 4.880881e+00 4.727268e+00 3.582357e+00 3.433707e+00 2.344016e+00 2.194674e+00 1.169365e+00 1.014731e+00 6.050093e-02 -1.029213e-01 -9.814511e-01 -1.156071e+00 -1.955940e+00 