# vtk DataFile Version 2.0
Comment goes here
ASCII

DATASET STRUCTURED_POINTS
FIELD FieldData 1
TIME 1 1 double
0.06000000
DIMENSIONS    128   128   1

ORIGIN    0.000   0.000   0.000
SPACING   0.039062 0.039062   1.000

POINT_DATA   16384
SCALARS P double
LOOKUP_TABLE default

-7.521093e+01 -7.334315e+01 -7.201675e+01 -7.009948e+01 -6.879235e+01 -6.683956e+01 -6.555634e+01 -6.358065e+01 -6.232490e+01 -6.033780e+01 -5.911227e+01 -5.712433e+01 -5.593124e+01 -5.395229e+01 -5.279363e+01 -5.083297e+01 -4.971074e+01 -4.777735e+01 -4.669375e+01 -4.479644e+01 -4.375410e+01 -4.190170e+01 -4.090378e+01 -3.910530e+01 -3.815561e+01 -3.642038e+01 -3.552344e+01 -3.386123e+01 -3.302232e+01 -3.144343e+01 -3.066858e+01 -2.918393e+01 -2.847990e+01 -2.710104e+01 -2.647525e+01 -2.521438e+01 -2.467484e+01 -2.354475e+01 -2.309993e+01 -2.211387e+01 -2.177259e+01 -2.094414e+01 -2.071541e+01 -2.005822e+01 -1.995103e+01 -1.947859e+01 -1.950171e+01 -1.922702e+01 -1.938874e+01 -1.932397e+01 -1.963184e+01 -1.978795e+01 -2.024845e+01 -2.063481e+01 -2.125302e+01 -2.187701e+01 -2.265625e+01 -2.352287e+01 -2.446429e+01 -2.557575e+01 -2.667797e+01 -2.803334e+01 -2.929202e+01 -3.088686e+01 -3.229441e+01 -3.412044e+01 -3.566567e+01 -3.771049e+01 -3.937844e+01 -4.162531e+01 -4.339716e+01 -4.582487e+01 -4.767798e+01 -5.026081e+01 -5.216902e+01 -5.487686e+01 -5.681088e+01 -5.960952e+01 -6.153763e+01 -6.438920e+01 -6.627808e+01 -6.914177e+01 -7.095753e+01 -7.379045e+01 -7.549976e+01 -7.825809e+01 -7.982939e+01 -8.246957e+01 -8.387423e+01 -8.635442e+01 -8.756784e+01 -8.984922e+01 -9.085171e+01 -9.289988e+01 -9.367734e+01 -9.546340e+01 -9.600771e+01 -9.750923e+01 -9.781827e+01 -9.901979e+01 -9.909728e+01 -9.999053e+01 -9.984547e+01 -1.004292e+02 -1.000751e+02 -1.003545e+02 -9.980865e+01 -9.979454e+01 -9.907691e+01 -9.878496e+01 -9.791715e+01 -9.736658e+01 -9.637096e+01 -9.558357e+01 -9.448240e+01 -9.348151e+01 -9.229622e+01 -9.110573e+01 -8.985634e+01 -8.850002e+01 -8.720472e+01 -8.570557e+01 -8.438048e+01 -8.276031e+01 -8.141935e+01 -7.969849e+01 -7.835338e+01 -7.655054e+01 
-7.551123e+01 -7.366315e+01 -7.228695e+01 -7.038932e+01 -6.903433e+01 -6.710091e+01 -6.577170e+01 -6.381495e+01 -6.251500e+01 -6.054628e+01 -5.927826e+01 -5.730802e+01 -5.607408e+01 -5.411208e+01 -5.291413e+01 -5.096964e+01 -4.980962e+01 -4.789159e+01 -4.677169e+01 -4.488894e+01 -4.381178e+01 -4.197318e+01 -4.094193e+01 -3.915655e+01 -3.817509e+01 -3.645230e+01 -3.552525e+01 -3.387489e+01 -3.300765e+01 -3.144009e+01 -3.063884e+01 -2.916507e+01 -2.843676e+01 -2.706842e+01 -2.642066e+01 -2.517003e+01 -2.461106e+01 -2.349101e+01 -2.302952e+01 -2.205341e+01 -2.169847e+01 -2.087996e+01 -2.064080e+01 -1.999366e+01 -1.987952e+01 -1.941736e+01 -1.943722e+01 -1.917316e+01 -1.933552e+01 -1.928187e+01 -1.959446e+01 -1.976231e+01 -2.023176e+01 -2.063063e+01 -2.126211e+01 -2.189953e+01 -2.269639e+01 -2.357750e+01 -2.454088e+01 -2.566802e+01 -2.679642e+01 -2.816878e+01 -2.945767e+01 -3.107090e+01 -3.251237e+01 -3.435825e+01 -3.594068e+01 -3.800683e+01 -3.971470e+01 -4.198432e+01 -4.379809e+01 -4.624988e+01 -4.814607e+01 -5.075412e+01 -5.270556e+01 -5.543950e+01 -5.741580e+01 -6.024106e+01 -6.220931e+01 -6.508762e+01 -6.701322e+01 -6.990330e+01 -7.175111e+01 -7.460959e+01 -7.634506e+01 -7.912763e+01 -8.071812e+01 -8.338082e+01 -8.479682e+01 -8.729744e+01 -8.851369e+01 -9.081323e+01 -9.180970e+01 -9.387370e+01 -9.463624e+01 -9.643594e+01 -9.695668e+01 -9.846990e+01 -9.874730e+01 -9.995899e+01 -9.999752e+01 -1.008999e+02 -1.007095e+02 -1.013018e+02 -1.008972e+02 -1.011852e+02 -1.005846e+02 -1.005796e+02 -9.980417e+01 -9.952219e+01 -9.859448e+01 -9.805507e+01 -9.699840e+01 -9.622350e+01 -9.506093e+01 -9.407393e+01 -9.282756e+01 -9.165234e+01 -9.034272e+01 -8.900293e+01 -8.764868e+01 -8.616715e+01 -8.478468e+01 -8.318300e+01 -8.178643e+01 -8.008471e+01 -7.868590e+01 -7.690259e+01 
-7.524077e+01 -7.336516e+01 -7.203562e+01 -7.011126e+01 -6.880166e+01 -6.684241e+01 -6.555727e+01 -6.357567e+01 -6.231839e+01 -6.032584e+01 -5.909902e+01 -5.710598e+01 -5.591171e+01 -5.392793e+01 -5.276808e+01 -5.080276e+01 -4.967923e+01 -4.774125e+01 -4.665617e+01 -4.475427e+01 -4.371019e+01 -4.185313e+01 -4.085317e+01 -3.904991e+01 -3.809785e+01 -3.635765e+01 -3.545800e+01 -3.379059e+01 -3.294864e+01 -3.136429e+01 -3.058609e+01 -2.909571e+01 -2.838804e+01 -2.700318e+01 -2.637352e+01 -2.510641e+01 -2.456281e+01 -2.342629e+01 -2.297728e+01 -2.198468e+01 -2.163917e+01 -2.080417e+01 -2.057124e+01 -1.990761e+01 -1.979635e+01 -1.931774e+01 -1.933703e+01 -1.905658e+01 -1.921485e+01 -1.914492e+01 -1.944985e+01 -1.960156e+01 -2.005980e+01 -2.044272e+01 -2.105952e+01 -2.168121e+01 -2.246006e+01 -2.332571e+01 -2.426794e+01 -2.537994e+01 -2.648436e+01 -2.784196e+01 -2.910440e+01 -3.070331e+01 -3.211633e+01 -3.394841e+01 -3.550093e+01 -3.755389e+01 -3.923100e+01 -4.148819e+01 -4.327103e+01 -4.571126e+01 -4.757711e+01 -5.017463e+01 -5.209710e+01 -5.482167e+01 -5.677118e+01 -5.958837e+01 -6.153279e+01 -6.440442e+01 -6.630994e+01 -6.919477e+01 -7.102694e+01 -7.388155e+01 -7.560646e+01 -7.838640e+01 -7.997190e+01 -8.263295e+01 -8.404987e+01 -8.654946e+01 -8.777276e+01 -9.007142e+01 -9.108106e+01 -9.314379e+01 -9.392547e+01 -9.572293e+01 -9.626847e+01 -9.777792e+01 -9.808533e+01 -9.929121e+01 -9.936442e+01 -1.002585e+02 -1.001069e+02 -1.006882e+02 -1.003258e+02 -1.005999e+02 -1.000443e+02 -1.000226e+02 -9.929430e+01 -9.899289e+01 -9.811404e+01 -9.755272e+01 -9.654608e+01 -9.574715e+01 -9.463536e+01 -9.362259e+01 -9.242734e+01 -9.122503e+01 -8.996657e+01 -8.859877e+01 -8.729542e+01 -8.578536e+01 -8.445329e+01 -8.282292e+01 -8.147605e+01 -7.974578e+01 -7.839579e+01 -7.658433e+01 
-7.556880e+01 -7.370529e+01 -7.232285e+01 -7.041122e+01 -6.905136e+01 -6.710520e+01 -6.577221e+01 -6.380379e+01 -6.250086e+01 -6.052134e+01 -5.925082e+01 -5.727046e+01 -5.603423e+01 -5.406260e+01 -5.286234e+01 -5.090852e+01 -4.974595e+01 -4.781873e+01 -4.669587e+01 -4.480392e+01 -4.372324e+01 -4.187530e+01 -4.083990e+01 -3.904489e+01 -3.805860e+01 -3.632580e+01 -3.539321e+01 -3.373238e+01 -3.285890e+01 -3.128035e+01 -3.047222e+01 -2.898691e+01 -2.825112e+01 -2.687070e+01 -2.621497e+01 -2.495178e+01 -2.438445e+01 -2.325145e+01 -2.278135e+01 -2.179206e+01 -2.142841e+01 -2.059669e+01 -2.034890e+01 -1.968877e+01 -1.956627e+01 -1.909162e+01 -1.910364e+01 -1.882793e+01 -1.898321e+01 -1.891908e+01 -1.922566e+01 -1.938458e+01 -1.984940e+01 -2.024125e+01 -2.086985e+01 -2.150254e+01 -2.229863e+01 -2.317767e+01 -2.414278e+01 -2.527089e+01 -2.640390e+01 -2.778062e+01 -2.907736e+01 -3.069866e+01 -3.215152e+01 -3.400947e+01 -3.560706e+01 -3.768953e+01 -3.941643e+01 -4.170680e+01 -4.354343e+01 -4.602044e+01 -4.794309e+01 -5.058077e+01 -5.256186e+01 -5.532960e+01 -5.733809e+01 -6.020088e+01 -6.220299e+01 -6.512190e+01 -6.708203e+01 -7.001489e+01 -7.189671e+01 -7.479905e+01 -7.656679e+01 -7.939301e+01 -8.101280e+01 -8.371754e+01 -8.515871e+01 -8.769834e+01 -8.893470e+01 -9.126884e+01 -9.227965e+01 -9.437266e+01 -9.514337e+01 -9.696559e+01 -9.748826e+01 -9.901694e+01 -9.929027e+01 -1.005102e+02 -1.005392e+02 -1.014428e+02 -1.012382e+02 -1.018252e+02 -1.014027e+02 -1.016797e+02 -1.010585e+02 -1.010379e+02 -1.002401e+02 -9.993898e+01 -9.898827e+01 -9.842716e+01 -9.734767e+01 -9.654961e+01 -9.536514e+01 -9.435441e+01 -9.308760e+01 -9.188884e+01 -9.056067e+01 -8.919810e+01 -8.782743e+01 -8.632430e+01 -8.492765e+01 -8.330583e+01 -8.189731e+01 -8.017701e+01 -7.876836e+01 -7.696808e+01 
-7.532874e+01 -7.342972e+01 -7.209089e+01 -7.014531e+01 -6.882847e+01 -6.684995e+01 -6.555918e+01 -6.355997e+01 -6.229821e+01 -6.028942e+01 -5.905885e+01 -5.705063e+01 -5.585295e+01 -5.385475e+01 -5.269146e+01 -5.071220e+01 -4.958489e+01 -4.763322e+01 -4.654376e+01 -4.462817e+01 -4.357892e+01 -4.170796e+01 -4.070191e+01 -3.888434e+01 -3.792518e+01 -3.617011e+01 -3.526233e+01 -3.357936e+01 -3.272827e+01 -3.112756e+01 -3.033927e+01 -2.883169e+01 -2.811307e+01 -2.671019e+01 -2.606885e+01 -2.478298e+01 -2.422712e+01 -2.307125e+01 -2.260961e+01 -2.159729e+01 -2.123899e+01 -2.038422e+01 -2.013859e+01 -1.945551e+01 -1.933194e+01 -1.883463e+01 -1.884233e+01 -1.854444e+01 -1.869222e+01 -1.860660e+01 -1.890258e+01 -1.904092e+01 -1.949220e+01 -1.986463e+01 -2.047698e+01 -2.109161e+01 -2.186907e+01 -2.273165e+01 -2.367613e+01 -2.478959e+01 -2.590045e+01 -2.726456e+01 -2.853816e+01 -3.014912e+01 -3.157847e+01 -3.342856e+01 -3.500291e+01 -3.708022e+01 -3.878483e+01 -4.107294e+01 -4.288891e+01 -4.536673e+01 -4.727100e+01 -4.991268e+01 -5.187825e+01 -5.465322e+01 -5.664959e+01 -5.952278e+01 -6.151660e+01 -6.444886e+01 -6.640483e+01 -6.935363e+01 -7.123560e+01 -7.415591e+01 -7.592818e+01 -7.877364e+01 -8.040228e+01 -8.312660e+01 -8.458078e+01 -8.713925e+01 -8.839252e+01 -9.074360e+01 -9.177488e+01 -9.388177e+01 -9.467615e+01 -9.650809e+01 -9.705724e+01 -9.859059e+01 -9.889284e+01 -1.001117e+02 -1.001717e+02 -1.010682e+02 -1.008964e+02 -1.014702e+02 -1.010820e+02 -1.013399e+02 -1.007546e+02 -1.007095e+02 -9.994879e+01 -9.961846e+01 -9.870607e+01 -9.811196e+01 -9.707192e+01 -9.623790e+01 -9.509394e+01 -9.404515e+01 -9.281986e+01 -9.158175e+01 -9.029596e+01 -8.889351e+01 -8.756593e+01 -8.602300e+01 -8.466998e+01 -8.300894e+01 -8.164439e+01 -7.988587e+01 -7.852130e+01 -7.668406e+01 
-7.568083e+01 -7.378660e+01 -7.239194e+01 -7.045247e+01 -6.908319e+01 -6.711173e+01 -6.577150e+01 -6.377995e+01 -6.247132e+01 -6.047042e+01 -5.919517e+01 -5.719477e+01 -5.595422e+01 -5.396351e+01 -5.275884e+01 -5.078654e+01 -4.961904e+01 -4.767360e+01 -4.654495e+01 -4.463473e+01 -4.354714e+01 -4.168061e+01 -4.063699e+01 -3.882283e+01 -3.782689e+01 -3.607417e+01 -3.513048e+01 -3.344877e+01 -3.256278e+01 -3.096227e+01 -3.014030e+01 -2.863190e+01 -2.788108e+01 -2.647645e+01 -2.580468e+01 -2.451626e+01 -2.393208e+01 -2.277304e+01 -2.228558e+01 -2.126972e+01 -2.088848e+01 -2.003009e+01 -1.976483e+01 -1.907843e+01 -1.893899e+01 -1.843906e+01 -1.843512e+01 -1.813576e+01 -1.827661e+01 -1.819117e+01 -1.848540e+01 -1.862608e+01 -1.908130e+01 -1.945874e+01 -2.008119e+01 -2.070406e+01 -2.149823e+01 -2.237278e+01 -2.334098e+01 -2.447068e+01 -2.561256e+01 -2.699766e+01 -2.830980e+01 -2.994694e+01 -3.142237e+01 -3.330424e+01 -3.493204e+01 -3.704700e+01 -3.881201e+01 -4.114381e+01 -4.302638e+01 -4.555391e+01 -4.752992e+01 -5.022710e+01 -5.226811e+01 -5.510389e+01 -5.717759e+01 -6.011609e+01 -6.218697e+01 -6.518797e+01 -6.721831e+01 -7.023784e+01 -7.218892e+01 -7.518026e+01 -7.701376e+01 -7.992868e+01 -8.160817e+01 -8.439843e+01 -8.589091e+01 -8.850990e+01 -8.978718e+01 -9.219170e+01 -9.323159e+01 -9.538353e+01 -9.617065e+01 -9.803844e+01 -9.856472e+01 -1.001245e+02 -1.003891e+02 -1.016253e+02 -1.016345e+02 -1.025399e+02 -1.023060e+02 -1.028817e+02 -1.024222e+02 -1.026763e+02 -1.020129e+02 -1.019599e+02 -1.011166e+02 -1.007759e+02 -9.977830e+01 -9.917279e+01 -9.804692e+01 -9.720164e+01 -9.597276e+01 -9.491383e+01 -9.360575e+01 -9.235930e+01 -9.099379e+01 -8.958523e+01 -8.818162e+01 -8.663502e+01 -8.521004e+01 -8.354777e+01 -8.211547e+01 -8.035800e+01 -7.892986e+01 -7.709571e+01 
-7.547016e+01 -7.353232e+01 -7.217848e+01 -7.019780e+01 -6.886940e+01 -6.685907e+01 -6.555942e+01 -6.353120e+01 -6.226248e+01 -6.022695e+01 -5.899060e+01 -5.695740e+01 -5.575443e+01 -5.373251e+01 -5.256383e+01 -5.056166e+01 -4.942832e+01 -4.745410e+01 -4.635756e+01 -4.441940e+01 -4.336168e+01 -4.146778e+01 -4.045165e+01 -3.861044e+01 -3.763948e+01 -3.585979e+01 -3.493844e+01 -3.322963e+01 -3.236324e+01 -3.073533e+01 -2.993011e+01 -2.839386e+01 -2.765686e+01 -2.622386e+01 -2.556288e+01 -2.424557e+01 -2.366910e+01 -2.248070e+01 -2.199778e+01 -2.095226e+01 -2.057237e+01 -1.968422e+01 -1.941711e+01 -1.870113e+01 -1.855668e+01 -1.802768e+01 -1.801565e+01 -1.768810e+01 -1.781793e+01 -1.770558e+01 -1.798610e+01 -1.810155e+01 -1.854067e+01 -1.889498e+01 -1.949933e+01 -2.010157e+01 -2.087612e+01 -2.173297e+01 -2.268060e+01 -2.379591e+01 -2.491694e+01 -2.629136e+01 -2.758308e+01 -2.921364e+01 -3.066984e+01 -3.254959e+01 -3.416015e+01 -3.627778e+01 -3.802829e+01 -4.036783e+01 -4.223935e+01 -4.477994e+01 -4.674891e+01 -4.946459e+01 -5.150303e+01 -5.436269e+01 -5.643854e+01 -5.940610e+01 -6.148391e+01 -6.451866e+01 -6.656057e+01 -6.961778e+01 -7.158474e+01 -7.461663e+01 -7.646981e+01 -7.942678e+01 -8.112913e+01 -8.396127e+01 -8.547910e+01 -8.813795e+01 -8.944234e+01 -9.188278e+01 -9.295082e+01 -9.513285e+01 -9.594856e+01 -9.783894e+01 -9.839376e+01 -9.996728e+01 -1.002601e+02 -1.015003e+02 -1.015371e+02 -1.024366e+02 -1.022298e+02 -1.027897e+02 -1.023570e+02 -1.025863e+02 -1.019495e+02 -1.018636e+02 -1.010473e+02 -1.006669e+02 -9.969719e+01 -9.904669e+01 -9.794976e+01 -9.705570e+01 -9.585718e+01 -9.474707e+01 -9.347098e+01 -9.217223e+01 -9.084044e+01 -8.937951e+01 -8.801135e+01 -8.641317e+01 -8.502525e+01 -8.331286e+01 -8.191901e+01 -8.011335e+01 -7.872480e+01 -7.684467e+01 
-7.584100e+01 -7.390101e+01 -7.248876e+01 -7.050796e+01 -6.912532e+01 -6.711641e+01 -6.576609e+01 -6.374035e+01 -6.242394e+01 -6.039148e+01 -5.910984e+01 -5.707988e+01 -5.583347e+01 -5.381461e+01 -5.260386e+01 -5.060426e+01 -4.942982e+01 -4.745743e+01 -4.632044e+01 -4.438318e+01 -4.328545e+01 -4.139136e+01 -4.033553e+01 -3.849292e+01 -3.748256e+01 -3.570017e+01 -3.473981e+01 -3.302694e+01 -3.212209e+01 -3.048873e+01 -2.964583e+01 -2.810279e+01 -2.732920e+01 -2.588813e+01 -2.519202e+01 -2.386551e+01 -2.325576e+01 -2.205728e+01 -2.154338e+01 -2.048719e+01 -2.007912e+01 -1.918012e+01 -1.888816e+01 -1.816164e+01 -1.799622e+01 -1.745755e+01 -1.742904e+01 -1.709334e+01 -1.721179e+01 -1.709347e+01 -1.736838e+01 -1.748077e+01 -1.792072e+01 -1.827560e+01 -1.888791e+01 -1.949511e+01 -2.028543e+01 -2.115234e+01 -2.212420e+01 -2.325542e+01 -2.440970e+01 -2.580656e+01 -2.714101e+01 -2.880119e+01 -3.030989e+01 -3.222703e+01 -3.389986e+01 -3.606313e+01 -3.788538e+01 -4.027914e+01 -4.223116e+01 -4.483463e+01 -4.689173e+01 -4.967875e+01 -5.181125e+01 -5.475016e+01 -5.692381e+01 -5.997753e+01 -6.215416e+01 -6.528051e+01 -6.741914e+01 -7.057145e+01 -7.262959e+01 -7.575769e+01 -7.769297e+01 -8.074453e+01 -8.251649e+01 -8.543869e+01 -8.701058e+01 -8.975210e+01 -9.109257e+01 -9.360569e+01 -9.469021e+01 -9.693286e+01 -9.774477e+01 -9.968236e+01 -1.002134e+02 -1.018202e+02 -1.020704e+02 -1.033303e+02 -1.033078e+02 -1.042145e+02 -1.039342e+02 -1.044906e+02 -1.039732e+02 -1.041903e+02 -1.034607e+02 -1.033564e+02 -1.024422e+02 -1.020395e+02 -1.009693e+02 -1.002946e+02 -9.909727e+01 -9.817886e+01 -9.688193e+01 -9.574880e+01 -9.437778e+01 -9.305836e+01 -9.163620e+01 -9.015762e+01 -8.870436e+01 -8.709190e+01 -8.562448e+01 -8.390122e+01 -8.243356e+01 -8.062029e+01 -7.916343e+01 -7.727863e+01 
-7.565707e+01 -7.366535e+01 -7.229148e+01 -7.026229e+01 -6.891876e+01 -6.686460e+01 -6.555358e+01 -6.348548e+01 -6.220805e+01 -6.013582e+01 -5.889234e+01 -5.682487e+01 -5.561537e+01 -5.356092e+01 -5.238542e+01 -5.035179e+01 -4.921061e+01 -4.720539e+01 -4.609939e+01 -4.413015e+01 -4.306091e+01 -4.113534e+01 -4.010531e+01 -3.823138e+01 -3.724397e+01 -3.543013e+01 -3.448975e+01 -3.274501e+01 -3.185707e+01 -3.019119e+01 -2.936206e+01 -2.778566e+01 -2.702263e+01 -2.554730e+01 -2.485848e+01 -2.349680e+01 -2.289104e+01 -2.165659e+01 -2.114337e+01 -2.005066e+01 -1.963995e+01 -1.870421e+01 -1.840635e+01 -1.764329e+01 -1.746883e+01 -1.689433e+01 -1.685380e+01 -1.648351e+01 -1.658723e+01 -1.643617e+01 -1.669396e+01 -1.677606e+01 -1.719695e+01 -1.752460e+01 -1.811646e+01 -1.870008e+01 -1.946922e+01 -2.031680e+01 -2.126750e+01 -2.238421e+01 -2.351822e+01 -2.490596e+01 -2.622195e+01 -2.787894e+01 -2.937194e+01 -3.129234e+01 -3.295319e+01 -3.512665e+01 -3.694151e+01 -3.935281e+01 -4.130280e+01 -4.393147e+01 -4.599244e+01 -4.881247e+01 -5.095508e+01 -5.393476e+01 -5.612475e+01 -5.922665e+01 -6.142558e+01 -6.460683e+01 -6.677309e+01 -6.998590e+01 -7.207613e+01 -7.526874e+01 -7.723947e+01 -8.035752e+01 -8.216705e+01 -8.515528e+01 -8.676556e+01 -8.956993e+01 -9.094837e+01 -9.351828e+01 -9.463924e+01 -9.692987e+01 -9.777578e+01 -9.975013e+01 -1.003121e+02 -1.019426e+02 -1.022203e+02 -1.034898e+02 -1.034914e+02 -1.043931e+02 -1.041341e+02 -1.046715e+02 -1.041729e+02 -1.043583e+02 -1.036460e+02 -1.034989e+02 -1.026013e+02 -1.021469e+02 -1.010937e+02 -1.003605e+02 -9.918128e+01 -9.819986e+01 -9.692291e+01 -9.572421e+01 -9.437557e+01 -9.298978e+01 -9.159272e+01 -9.004840e+01 -8.862305e+01 -8.694659e+01 -8.550984e+01 -8.372510e+01 -8.229066e+01 -8.041894e+01 -7.899748e+01 -7.705755e+01 
-7.603960e+01 -7.403926e+01 -7.260496e+01 -7.056992e+01 -6.917095e+01 -6.711307e+01 -6.575079e+01 -6.368045e+01 -6.235510e+01 -6.028153e+01 -5.899270e+01 -5.692426e+01 -5.567124e+01 -5.361571e+01 -5.239787e+01 -5.036269e+01 -4.917981e+01 -4.717224e+01 -4.602476e+01 -4.405211e+01 -4.294130e+01 -4.101105e+01 -3.993921e+01 -3.805918e+01 -3.702968e+01 -3.520815e+01 -3.422550e+01 -3.247140e+01 -3.154118e+01 -2.986421e+01 -2.899310e+01 -2.740386e+01 -2.659950e+01 -2.510964e+01 -2.438057e+01 -2.300282e+01 -2.235838e+01 -2.110660e+01 -2.055679e+01 -1.944586e+01 -1.900123e+01 -1.804690e+01 -1.771842e+01 -1.693702e+01 -1.673591e+01 -1.614407e+01 -1.608160e+01 -1.569579e+01 -1.578304e+01 -1.561916e+01 -1.586680e+01 -1.593971e+01 -1.635764e+01 -1.668069e+01 -1.727770e+01 -1.786225e+01 -1.864560e+01 -1.950061e+01 -2.047551e+01 -2.160709e+01 -2.277616e+01 -2.418712e+01 -2.554980e+01 -2.723928e+01 -2.879117e+01 -3.075412e+01 -3.248636e+01 -3.471316e+01 -3.661181e+01 -3.908776e+01 -4.113334e+01 -4.383825e+01 -4.600542e+01 -4.891320e+01 -5.117070e+01 -5.424905e+01 -5.656004e+01 -5.977039e+01 -6.209305e+01 -6.539071e+01 -6.767946e+01 -7.101411e+01 -7.322111e+01 -7.653783e+01 -7.861493e+01 -8.185559e+01 -8.375650e+01 -8.686179e+01 -8.854432e+01 -9.145608e+01 -9.288429e+01 -9.554818e+01 -9.669417e+01 -9.906233e+01 -9.990756e+01 -1.019410e+02 -1.024769e+02 -1.041472e+02 -1.043754e+02 -1.056658e+02 -1.055969e+02 -1.065024e+02 -1.061555e+02 -1.066819e+02 -1.060820e+02 -1.062447e+02 -1.054218e+02 -1.052436e+02 -1.042299e+02 -1.037390e+02 -1.025678e+02 -1.017958e+02 -1.004997e+02 -9.947939e+01 -9.808901e+01 -9.685337e+01 -9.539655e+01 -9.397710e+01 -9.247831e+01 -9.090448e+01 -8.938459e+01 -8.768316e+01 -8.615932e+01 -8.435424e+01 -8.284007e+01 -8.095239e+01 -7.945824e+01 -7.750630e+01 
-7.587795e+01 -7.381783e+01 -7.242003e+01 -7.032958e+01 -6.896849e+01 -6.685924e+01 -6.553550e+01 -6.341743e+01 -6.213062e+01 -6.001248e+01 -5.876153e+01 -5.665123e+01 -5.543484e+01 -5.333970e+01 -5.215674e+01 -5.008370e+01 -4.893351e+01 -4.688940e+01 -4.577204e+01 -4.376372e+01 -4.268021e+01 -4.071471e+01 -3.966712e+01 -3.775184e+01 -3.674338e+01 -3.488622e+01 -3.392128e+01 -3.213078e+01 -3.121488e+01 -2.950044e+01 -2.864019e+01 -2.701218e+01 -2.621518e+01 -2.468515e+01 -2.395992e+01 -2.254061e+01 -2.189647e+01 -2.060191e+01 -2.004887e+01 -1.889426e+01 -1.844295e+01 -1.744448e+01 -1.710596e+01 -1.628057e+01 -1.606623e+01 -1.543123e+01 -1.535257e+01 -1.492520e+01 -1.499365e+01 -1.479061e+01 -1.501729e+01 -1.505425e+01 -1.544963e+01 -1.574074e+01 -1.631432e+01 -1.687176e+01 -1.763161e+01 -1.846510e+01 -1.941741e+01 -2.053381e+01 -2.168228e+01 -2.308515e+01 -2.443037e+01 -2.611954e+01 -2.765832e+01 -2.962946e+01 -3.135409e+01 -3.359820e+01 -3.549584e+01 -3.799881e+01 -4.005082e+01 -4.279290e+01 -4.497456e+01 -4.792992e+01 -5.021019e+01 -5.334653e+01 -5.568835e+01 -5.896671e+01 -6.132763e+01 -6.470245e+01 -6.703577e+01 -7.045529e+01 -7.271169e+01 -7.611890e+01 -7.824845e+01 -8.158249e+01 -8.353695e+01 -8.673514e+01 -8.847037e+01 -9.147076e+01 -9.294895e+01 -9.569322e+01 -9.688486e+01 -9.932128e+01 -1.002066e+02 -1.022927e+02 -1.028623e+02 -1.045673e+02 -1.048224e+02 -1.061280e+02 -1.060796e+02 -1.069805e+02 -1.066482e+02 -1.071512e+02 -1.065614e+02 -1.066837e+02 -1.058677e+02 -1.056348e+02 -1.046264e+02 -1.040695e+02 -1.029035e+02 -1.020573e+02 -1.007678e+02 -9.966826e+01 -9.828696e+01 -9.696962e+01 -9.552523e+01 -9.402392e+01 -9.254146e+01 -9.088741e+01 -8.938797e+01 -8.760930e+01 -8.610998e+01 -8.423153e+01 -8.274568e+01 -8.078904e+01 -7.932654e+01 -7.731024e+01 
-7.626322e+01 -7.418867e+01 -7.272917e+01 -7.062781e+01 -6.921090e+01 -6.709343e+01 -6.571866e+01 -6.359423e+01 -6.226008e+01 -6.013674e+01 -5.884112e+01 -5.672610e+01 -5.546676e+01 -5.336682e+01 -5.214180e+01 -5.006342e+01 -4.887136e+01 -4.682099e+01 -4.566141e+01 -4.364559e+01 -4.251913e+01 -4.054466e+01 -3.945318e+01 -3.752723e+01 -3.647391e+01 -3.460420e+01 -3.359353e+01 -3.178845e+01 -3.082619e+01 -2.909502e+01 -2.818812e+01 -2.654118e+01 -2.569769e+01 -2.414652e+01 -2.337545e+01 -2.193296e+01 -2.124420e+01 -1.992469e+01 -1.932887e+01 -1.814799e+01 -1.765639e+01 -1.663096e+01 -1.625538e+01 -1.540314e+01 -1.515574e+01 -1.449491e+01 -1.438806e+01 -1.393692e+01 -1.398300e+01 -1.375936e+01 -1.397047e+01 -1.399118e+01 -1.437890e+01 -1.465928e+01 -1.523427e+01 -1.578768e+01 -1.655926e+01 -1.739661e+01 -1.837222e+01 -1.950155e+01 -2.068613e+01 -2.211215e+01 -2.350746e+01 -2.523117e+01 -2.683497e+01 -2.885313e+01 -3.065840e+01 -3.296302e+01 -3.495710e+01 -3.753492e+01 -3.969881e+01 -4.253062e+01 -4.483842e+01 -4.789851e+01 -5.031714e+01 -5.357274e+01 -5.606209e+01 -5.947301e+01 -6.198654e+01 -6.550510e+01 -6.799111e+01 -7.156242e+01 -7.396586e+01 -7.752879e+01 -7.979356e+01 -8.328228e+01 -8.535404e+01 -8.870034e+01 -9.052933e+01 -9.366558e+01 -9.520945e+01 -9.807202e+01 -9.929818e+01 -1.018310e+02 -1.027183e+02 -1.048762e+02 -1.054159e+02 -1.071668e+02 -1.073624e+02 -1.086887e+02 -1.085551e+02 -1.094538e+02 -1.090153e+02 -1.094968e+02 -1.087850e+02 -1.088708e+02 -1.079224e+02 -1.076423e+02 -1.064963e+02 -1.058859e+02 -1.045814e+02 -1.036793e+02 -1.022539e+02 -1.010991e+02 -9.958754e+01 -9.821796e+01 -9.665091e+01 -9.510208e+01 -9.350584e+01 -9.180998e+01 -9.020626e+01 -8.839191e+01 -8.679796e+01 -8.488991e+01 -8.331878e+01 -8.133825e+01 -7.979921e+01 -7.776413e+01 
-7.611744e+01 -7.397526e+01 -7.255109e+01 -7.038764e+01 -6.900810e+01 -6.683355e+01 -6.549728e+01 -6.332020e+01 -6.202480e+01 -5.985258e+01 -5.859514e+01 -5.643441e+01 -5.521195e+01 -5.306885e+01 -5.187877e+01 -4.975920e+01 -4.859960e+01 -4.650945e+01 -4.537944e+01 -4.332470e+01 -4.222457e+01 -4.021151e+01 -3.914291e+01 -3.717818e+01 -3.614412e+01 -3.423495e+01 -3.323983e+01 -3.139413e+01 -3.044366e+01 -2.867030e+01 -2.777141e+01 -2.608041e+01 -2.524112e+01 -2.364387e+01 -2.287319e+01 -2.138260e+01 -2.069044e+01 -1.932101e+01 -1.871805e+01 -1.748585e+01 -1.698344e+01 -1.590590e+01 -1.551597e+01 -1.461161e+01 -1.434654e+01 -1.363448e+01 -1.350696e+01 -1.300648e+01 -1.302927e+01 -1.275922e+01 -1.294499e+01 -1.292327e+01 -1.328427e+01 -1.352723e+01 -1.407498e+01 -1.459697e+01 -1.534180e+01 -1.615469e+01 -1.710522e+01 -1.821797e+01 -1.938048e+01 -2.079874e+01 -2.217642e+01 -2.390205e+01 -2.549417e+01 -2.752480e+01 -2.932580e+01 -3.165430e+01 -3.365288e+01 -3.626674e+01 -3.844496e+01 -4.132565e+01 -4.365833e+01 -4.678059e+01 -4.923485e+01 -5.256604e+01 -5.510137e+01 -5.860099e+01 -6.116983e+01 -6.478924e+01 -6.733825e+01 -7.102088e+01 -7.349279e+01 -7.717493e+01 -7.951108e+01 -8.312338e+01 -8.526664e+01 -8.873649e+01 -9.063431e+01 -9.388898e+01 -9.549642e+01 -9.846683e+01 -9.974907e+01 -1.023738e+02 -1.033080e+02 -1.055372e+02 -1.061135e+02 -1.079115e+02 -1.081331e+02 -1.094806e+02 -1.093628e+02 -1.102565e+02 -1.098249e+02 -1.102766e+02 -1.095647e+02 -1.095988e+02 -1.086453e+02 -1.082956e+02 -1.071419e+02 -1.064481e+02 -1.051357e+02 -1.041407e+02 -1.027092e+02 -1.014561e+02 -9.994186e+01 -9.847214e+01 -9.690704e+01 -9.525904e+01 -9.367012e+01 -9.187823e+01 -9.028753e+01 -8.838180e+01 -8.680650e+01 -8.481268e+01 -8.326543e+01 -8.120518e+01 -7.969465e+01 -7.758601e+01 
-7.649444e+01 -7.433284e+01 -7.284680e+01 -7.066821e+01 -6.923359e+01 -6.704712e+01 -6.566113e+01 -6.347434e+01 -6.213322e+01 -5.995260e+01 -5.865213e+01 -5.648351e+01 -5.521953e+01 -5.306838e+01 -5.183723e+01 -4.970893e+01 -4.850786e+01 -4.640785e+01 -4.523527e+01 -4.316921e+01 -4.202498e+01 -3.999886e+01 -3.888436e+01 -3.690459e+01 -3.582281e+01 -3.389637e+01 -3.285185e+01 -3.098647e+01 -2.998522e+01 -2.818957e+01 -2.723895e+01 -2.552290e+01 -2.463146e+01 -2.300634e+01 -2.218369e+01 -2.066252e+01 -1.991920e+01 -1.851676e+01 -1.786415e+01 -1.659703e+01 -1.604724e+01 -1.493361e+01 -1.449939e+01 -1.355872e+01 -1.325335e+01 -1.250593e+01 -1.234306e+01 -1.180945e+01 -1.180294e+01 -1.150337e+01 -1.166707e+01 -1.162085e+01 -1.196834e+01 -1.219326e+01 -1.273747e+01 -1.324931e+01 -1.400214e+01 -1.481417e+01 -1.578587e+01 -1.690848e+01 -1.810701e+01 -1.954724e+01 -2.097745e+01 -2.273859e+01 -2.440124e+01 -2.648237e+01 -2.837306e+01 -3.076844e+01 -3.287655e+01 -3.557492e+01 -3.788249e+01 -4.086628e+01 -4.334714e+01 -4.659159e+01 -4.921074e+01 -5.268302e+01 -5.539648e+01 -5.905490e+01 -6.181024e+01 -6.560383e+01 -6.834147e+01 -7.220992e+01 -7.486525e+01 -7.873968e+01 -8.124600e+01 -8.505059e+01 -8.734260e+01 -9.099729e+01 -9.301491e+01 -9.643914e+01 -9.813122e+01 -1.012485e+02 -1.025761e+02 -1.053189e+02 -1.062573e+02 -1.085718e+02 -1.091121e+02 -1.109612e+02 -1.111099e+02 -1.124753e+02 -1.122528e+02 -1.131348e+02 -1.125733e+02 -1.129887e+02 -1.121288e+02 -1.121080e+02 -1.109954e+02 -1.105782e+02 -1.092608e+02 -1.084927e+02 -1.070174e+02 -1.059462e+02 -1.043572e+02 -1.030300e+02 -1.013666e+02 -9.982772e+01 -9.812417e+01 -9.641381e+01 -9.469837e+01 -9.285194e+01 -9.114712e+01 -8.919500e+01 -8.751782e+01 -8.548552e+01 -8.384803e+01 -8.175659e+01 -8.016650e+01 -7.803306e+01 
-7.635592e+01 -7.411927e+01 -7.266828e+01 -7.042148e+01 -6.902464e+01 -6.677600e+01 -6.542936e+01 -6.318563e+01 -6.188431e+01 -5.965114e+01 -5.838991e+01 -5.617235e+01 -5.494615e+01 -5.274890e+01 -5.155331e+01 -4.938105e+01 -4.821266e+01 -4.607019e+01 -4.492694e+01 -4.281927e+01 -4.170065e+01 -3.963314e+01 -3.854031e+01 -3.651876e+01 -3.545456e+01 -3.348533e+01 -3.245425e+01 -3.054446e+01 -2.955250e+01 -2.771028e+01 -2.676482e+01 -2.499961e+01 -2.410922e+01 -2.243211e+01 -2.160641e+01 -2.003039e+01 -1.927995e+01 -1.782005e+01 -1.715631e+01 -1.582963e+01 -1.526477e+01 -1.409028e+01 -1.363722e+01 -1.263539e+01 -1.230763e+01 -1.149993e+01 -1.131147e+01 -1.071972e+01 -1.068490e+01 -1.033066e+01 -1.046395e+01 -1.036781e+01 -1.068357e+01 -1.086460e+01 -1.137677e+01 -1.185193e+01 -1.257360e+01 -1.335732e+01 -1.430015e+01 -1.540391e+01 -1.657749e+01 -1.800941e+01 -1.942036e+01 -2.118479e+01 -2.283574e+01 -2.493283e+01 -2.682128e+01 -2.924634e+01 -3.136338e+01 -3.410620e+01 -3.643531e+01 -3.947926e+01 -4.199520e+01 -4.531628e+01 -4.798431e+01 -5.155011e+01 -5.432572e+01 -5.809446e+01 -6.092381e+01 -6.484364e+01 -6.766486e+01 -7.167365e+01 -7.441910e+01 -7.844495e+01 -8.104434e+01 -8.500710e+01 -8.739131e+01 -9.120527e+01 -9.331043e+01 -9.688830e+01 -9.865976e+01 -1.019177e+02 -1.033134e+02 -1.061765e+02 -1.071696e+02 -1.095774e+02 -1.101576e+02 -1.120682e+02 -1.122414e+02 -1.136341e+02 -1.134216e+02 -1.142966e+02 -1.137324e+02 -1.141088e+02 -1.132362e+02 -1.131486e+02 -1.120165e+02 -1.115103e+02 -1.101700e+02 -1.092967e+02 -1.077984e+02 -1.066115e+02 -1.050020e+02 -1.035540e+02 -1.018750e+02 -1.002146e+02 -9.850176e+01 -9.667273e+01 -9.495531e+01 -9.299549e+01 -9.129634e+01 -8.923775e+01 -8.757371e+01 -8.544276e+01 -8.382532e+01 -8.164335e+01 -8.007938e+01 -7.786338e+01 
-7.671144e+01 -7.445146e+01 -7.293983e+01 -7.067474e+01 -6.922496e+01 -6.696174e+01 -6.556809e+01 -6.331221e+01 -6.196811e+01 -5.972416e+01 -5.842275e+01 -5.619481e+01 -5.492957e+01 -5.272160e+01 -5.148682e+01 -4.930289e+01 -4.809411e+01 -4.593855e+01 -4.475288e+01 -4.263037e+01 -4.146675e+01 -3.938236e+01 -3.824167e+01 -3.620095e+01 -3.508603e+01 -3.309507e+01 -3.201062e+01 -3.007626e+01 -2.902869e+01 -2.715877e+01 -2.615599e+01 -2.435968e+01 -2.341090e+01 -2.169912e+01 -2.081466e+01 -1.920038e+01 -1.839156e+01 -1.689009e+01 -1.616910e+01 -1.479810e+01 -1.417798e+01 -1.295729e+01 -1.245184e+01 -1.140311e+01 -1.102682e+01 -1.017294e+01 -9.940907e+00 -9.305295e+00 -9.233069e+00 -8.838959e+00 -8.942379e+00 -8.812090e+00 -9.107049e+00 -9.261338e+00 -9.763481e+00 -1.022098e+01 -1.094529e+01 -1.172206e+01 -1.268228e+01 -1.379142e+01 -1.499934e+01 -1.645063e+01 -1.791511e+01 -1.971465e+01 -2.144048e+01 -2.359021e+01 -2.557675e+01 -2.807385e+01 -3.031357e+01 -3.314963e+01 -3.562655e+01 -3.878652e+01 -4.147484e+01 -4.493581e+01 -4.779875e+01 -5.152863e+01 -5.451787e+01 -5.847402e+01 -6.152998e+01 -6.565815e+01 -6.871129e+01 -7.294507e+01 -7.591836e+01 -8.017952e+01 -8.299214e+01 -8.719219e+01 -8.976412e+01 -9.380741e+01 -9.606456e+01 -9.985305e+01 -1.017323e+02 -1.051717e+02 -1.066252e+02 -1.096321e+02 -1.106307e+02 -1.131389e+02 -1.136735e+02 -1.156393e+02 -1.157206e+02 -1.171251e+02 -1.167819e+02 -1.176305e+02 -1.169056e+02 -1.172249e+02 -1.161712e+02 -1.160041e+02 -1.146798e+02 -1.140800e+02 -1.125445e+02 -1.115710e+02 -1.098812e+02 -1.085940e+02 -1.068018e+02 -1.052580e+02 -1.034087e+02 -1.016604e+02 -9.979203e+01 -9.788475e+01 -9.602758e+01 -9.400019e+01 -9.217718e+01 -9.006174e+01 -8.828917e+01 -8.611148e+01 -8.439979e+01 -8.218019e+01 -8.053484e+01 -7.828905e+01 