# vtk DataFile Version 2.0
Comment goes here
ASCII

DATASET STRUCTURED_POINTS
FIELD FieldData 1
TIME 1 1 double
0.23000000
DIMENSIONS    128   128   1

ORIGIN    0.000   0.000   0.000
SPACING   0.039062 0.039062   1.000

POINT_DATA   16384
SCALARS P double
LOOKUP_TABLE default

-2.028952e+00 -1.830098e+00 -1.870970e+00 -1.646868e+00 -1.669275e+00 -1.421210e+00 -1.424654e+00 -1.154101e+00 -1.138262e+00 -8.468988e-01 -8.116527e-01 -5.013797e-01 -4.468256e-01 -1.197837e-01 -4.626478e-02 2.951465e-01 3.870212e-01 7.401297e-01 8.494701e-01 1.211323e+00 1.336949e+00 1.704312e+00 1.844758e+00 2.214129e+00 2.367655e+00 2.735286e+00 2.899910e+00 3.261849e+00 3.435383e+00 3.787527e+00 3.967635e+00 4.305794e+00 4.490051e+00 4.810030e+00 4.995993e+00 5.293673e+00 5.478948e+00 5.750382e+00 5.932688e+00 6.174186e+00 6.351415e+00 6.559633e+00 6.729894e+00 6.901910e+00 7.063559e+00 7.196942e+00 7.348598e+00 7.441465e+00 7.582011e+00 7.633065e+00 7.761633e+00 7.770191e+00 7.886137e+00 7.852139e+00 7.955009e+00 7.879015e+00 7.968502e+00 7.851676e+00 7.927583e+00 7.771657e+00 7.833855e+00 7.641092e+00 7.689484e+00 7.462620e+00 7.497121e+00 7.239306e+00 7.259818e+00 6.974549e+00 6.980960e+00 6.672008e+00 6.664193e+00 6.335527e+00 6.313364e+00 5.969080e+00 5.932471e+00 5.576712e+00 5.525610e+00 5.162502e+00 5.096944e+00 4.730524e+00 4.650663e+00 4.284823e+00 4.190954e+00 3.829393e+00 3.721977e+00 3.368157e+00 3.247836e+00 2.904956e+00 2.772562e+00 2.443536e+00 2.300089e+00 1.987542e+00 1.834237e+00 1.540506e+00 1.378703e+00 1.105845e+00 9.370390e-01 6.868484e-01 5.126511e-01 2.866784e-01 1.087847e-01 -9.164420e-02 -2.714824e-01 -4.452470e-01 -6.252488e-01 -7.714178e-01 -9.497990e-01 -1.067617e+00 -1.242613e+00 -1.331492e+00 -1.501378e+00 -1.560889e+00 -1.723994e+00 -1.753865e+00 -1.908589e+00 -1.908700e+00 -2.053522e+00 -2.023905e+00 -2.157389e+00 -2.098228e+00 -2.219031e+00 -2.130659e+00 -2.237537e+00 -2.120438e+00 -2.212247e+00 -2.067056e+00 -2.142763e+00 -1.970266e+00 
-2.195440e+00 -1.994846e+00 -2.037055e+00 -1.811604e+00 -1.835708e+00 -1.586727e+00 -1.592191e+00 -1.321191e+00 -1.307654e+00 -1.016343e+00 -9.836432e-01 -6.739428e-01 -6.221420e-01 -2.962078e-01 -2.256126e-01 1.141490e-01 2.029644e-01 5.538824e-01 6.600604e-01 1.019191e+00 1.141582e+00 1.505710e+00 1.642875e+00 2.008523e+00 2.158749e+00 2.522207e+00 2.683531e+00 3.040890e+00 3.211146e+00 3.558357e+00 3.735227e+00 4.068159e+00 4.249238e+00 4.563764e+00 4.746625e+00 5.038703e+00 5.220970e+00 5.486728e+00 5.666144e+00 5.901973e+00 6.076453e+00 6.279087e+00 6.446768e+00 6.613363e+00 6.772634e+00 6.900830e+00 7.050346e+00 7.138324e+00 7.277008e+00 7.323524e+00 7.450551e+00 7.454964e+00 7.569734e+00 7.532013e+00 7.634115e+00 7.554837e+00 7.644007e+00 7.524337e+00 7.600417e+00 7.442077e+00 7.504969e+00 7.310199e+00 7.359834e+00 7.131338e+00 7.167647e+00 6.908536e+00 6.931428e+00 6.645155e+00 6.654514e+00 6.344803e+00 6.340491e+00 6.011266e+00 5.993137e+00 5.648448e+00 5.616372e+00 5.260327e+00 5.214217e+00 4.850908e+00 4.790755e+00 4.424198e+00 4.350101e+00 3.984177e+00 3.896375e+00 3.534778e+00 3.433673e+00 3.079875e+00 2.966048e+00 2.623262e+00 2.497480e+00 2.168646e+00 2.031863e+00 1.719636e+00 1.572982e+00 1.279729e+00 1.124496e+00 8.523087e-01 6.899259e-01 4.406287e-01 2.726397e-01 4.780852e-02 -1.241556e-01 -3.231772e-01 -4.974255e-01 -6.695092e-01 -8.443168e-01 -9.885345e-01 -1.162167e+00 -1.277778e+00 -1.448512e+00 -1.534955e+00 -1.701098e+00 -1.757981e+00 -1.917886e+00 -1.944985e+00 -2.097066e+00 -2.094314e+00 -2.237052e+00 -2.204544e+00 -2.336500e+00 -2.274481e+00 -2.394300e+00 -2.303170e+00 -2.409586e+00 -2.289893e+00 -2.381739e+00 -2.234181e+00 -2.310392e+00 -2.135816e+00 
-2.051585e+00 -1.852202e+00 -1.893426e+00 -1.668700e+00 -1.691370e+00 -1.442579e+00 -1.446189e+00 -1.174797e+00 -1.159013e+00 -8.666896e-01 -8.313779e-01 -5.200135e-01 -4.652615e-01 -1.369902e-01 -6.313276e-02 2.796510e-01 3.720105e-01 7.266360e-01 8.366083e-01 1.200119e+00 1.326521e+00 1.695675e+00 1.837028e+00 2.208307e+00 2.362858e+00 2.732494e+00 2.898236e+00 3.262248e+00 3.436967e+00 3.791217e+00 3.972546e+00 4.312807e+00 4.498287e+00 4.820321e+00 5.007476e+00 5.307122e+00 5.493527e+00 5.766795e+00 5.950143e+00 6.193300e+00 6.371462e+00 6.581127e+00 6.752197e+00 6.925415e+00 7.087743e+00 7.222058e+00 7.374263e+00 7.467770e+00 7.608743e+00 7.660132e+00 7.789018e+00 7.797601e+00 7.913773e+00 7.879492e+00 7.982514e+00 7.905938e+00 7.995524e+00 7.877831e+00 7.953803e+00 7.796748e+00 7.858994e+00 7.664863e+00 7.713300e+00 7.484862e+00 7.519411e+00 7.259848e+00 7.280417e+00 6.993263e+00 6.999736e+00 6.688798e+00 6.681044e+00 6.350330e+00 6.328216e+00 5.981858e+00 5.945270e+00 5.587449e+00 5.536327e+00 5.171199e+00 5.105565e+00 4.737197e+00 4.657189e+00 4.289500e+00 4.195401e+00 3.832110e+00 3.724374e+00 3.368958e+00 3.248225e+00 2.903891e+00 2.770993e+00 2.440661e+00 2.296621e+00 1.982915e+00 1.828940e+00 1.534189e+00 1.371647e+00 1.097903e+00 9.283038e-01 6.773500e-01 5.023170e-01 2.756933e-01 9.693535e-02 -1.040427e-01 -2.847611e-01 -4.589822e-01 -6.398686e-01 -7.864094e-01 -9.656692e-01 -1.083781e+00 -1.259641e+00 -1.348738e+00 -1.519466e+00 -1.579124e+00 -1.743043e+00 -1.772991e+00 -1.928496e+00 -1.928615e+00 -2.074180e+00 -2.044502e+00 -2.178689e+00 -2.119395e+00 -2.240857e+00 -2.152280e+00 -2.259767e+00 -2.142389e+00 -2.234754e+00 -2.089205e+00 -2.165407e+00 -1.992472e+00 
-2.239971e+00 -2.038273e+00 -2.081221e+00 -1.854481e+00 -1.879150e+00 -1.628681e+00 -1.634514e+00 -1.361807e+00 -1.348420e+00 -1.055165e+00 -1.022372e+00 -7.104735e-01 -6.583134e-01 -3.299133e-01 -2.586755e-01 8.383017e-02 1.735827e-01 5.275255e-01 6.349376e-01 9.973671e-01 1.121281e+00 1.488964e+00 1.627921e+00 1.997351e+00 2.149603e+00 2.517025e+00 2.680566e+00 3.042018e+00 3.214626e+00 3.565988e+00 3.745282e+00 4.082350e+00 4.265856e+00 4.584420e+00 4.769646e+00 5.065577e+00 5.250084e+00 5.519428e+00 5.700904e+00 5.939971e+00 6.116288e+00 6.321740e+00 6.491007e+00 6.659936e+00 6.820528e+00 6.950524e+00 7.101099e+00 7.190302e+00 7.329798e+00 7.376943e+00 7.504561e+00 7.508996e+00 7.624172e+00 7.585871e+00 7.688235e+00 7.607790e+00 7.697121e+00 7.575727e+00 7.651905e+00 7.491327e+00 7.554291e+00 7.356818e+00 7.406526e+00 7.174920e+00 7.211320e+00 6.948758e+00 6.971766e+00 6.681769e+00 6.691266e+00 6.377630e+00 6.373463e+00 6.040185e+00 6.022185e+00 5.673388e+00 5.641396e+00 5.281255e+00 5.235152e+00 4.867826e+00 4.807571e+00 4.437133e+00 4.362797e+00 3.993177e+00 3.904975e+00 3.539911e+00 3.438229e+00 3.081222e+00 2.966633e+00 2.620917e+00 2.494191e+00 2.162715e+00 2.024815e+00 1.710235e+00 1.562307e+00 1.266983e+00 1.110340e+00 8.363500e-01 6.724460e-01 4.215971e-01 2.520011e-01 2.585027e-02 -1.477817e-01 -3.479095e-01 -5.238625e-01 -6.968563e-01 -8.733838e-01 -1.018330e+00 -1.193678e+00 -1.309850e+00 -1.482279e+00 -1.569122e+00 -1.736925e+00 -1.794056e+00 -1.955576e+00 -1.982774e+00 -2.136413e+00 -2.133617e+00 -2.277848e+00 -2.245152e+00 -2.378527e+00 -2.316178e+00 -2.437333e+00 -2.345729e+00 -2.453390e+00 -2.333076e+00 -2.426063e+00 -2.277732e+00 -2.354966e+00 -2.179457e+00 
-2.119666e+00 -1.918708e+00 -1.960993e+00 -1.734408e+00 -1.757880e+00 -1.506919e+00 -1.511038e+00 -1.237138e+00 -1.221534e+00 -9.263366e-01 -8.908387e-01 -5.762076e-01 -5.208709e-01 -1.889161e-01 -1.140484e-01 2.328517e-01 3.266644e-01 6.858444e-01 7.977172e-01 1.166212e+00 1.294950e+00 1.669492e+00 1.813586e+00 2.190613e+00 2.348260e+00 2.723937e+00 2.893063e+00 3.263327e+00 3.441633e+00 3.802242e+00 3.987266e+00 4.333875e+00 4.523058e+00 4.851302e+00 5.042065e+00 5.347653e+00 5.537476e+00 5.816284e+00 6.002780e+00 6.250951e+00 6.431926e+00 6.645965e+00 6.819471e+00 6.996324e+00 7.160689e+00 7.297817e+00 7.451664e+00 7.547104e+00 7.689347e+00 7.741748e+00 7.871571e+00 7.880229e+00 7.997058e+00 7.961920e+00 8.065379e+00 7.987041e+00 8.076906e+00 7.956592e+00 8.032745e+00 7.872273e+00 7.934652e+00 7.736388e+00 7.784952e+00 7.551756e+00 7.586450e+00 7.321607e+00 7.342348e+00 7.049500e+00 7.056166e+00 6.739234e+00 6.731673e+00 6.394778e+00 6.372822e+00 6.020208e+00 5.983702e+00 5.619657e+00 5.568491e+00 5.197274e+00 5.131423e+00 4.757189e+00 4.676748e+00 4.303492e+00 4.208711e+00 3.840214e+00 3.731523e+00 3.371308e+00 3.249336e+00 2.900638e+00 2.766220e+00 2.431970e+00 2.286147e+00 1.968965e+00 1.812967e+00 1.515167e+00 1.350397e+00 1.074004e+00 9.020099e-01 6.487770e-01 4.712232e-01 2.426568e-01 6.129279e-02 -1.413235e-01 -3.246946e-01 -5.002779e-01 -6.838286e-01 -8.314790e-01 -1.013384e+00 -1.132370e+00 -1.310830e+00 -1.400581e+00 -1.573841e+00 -1.633939e+00 -1.800305e+00 -1.830484e+00 -1.988337e+00 -1.988479e+00 -2.136281e+00 -2.106417e+00 -2.242718e+00 -2.183029e+00 -2.306471e+00 -2.217284e+00 -2.326604e+00 -2.208393e+00 -2.302430e+00 -2.155816e+00 -2.233510e+00 -2.059263e+00 
-2.329395e+00 -2.125503e+00 -2.169950e+00 -1.940649e+00 -1.966474e+00 -1.713044e+00 -1.719642e+00 -1.443539e+00 -1.430476e+00 -1.133352e+00 -1.100393e+00 -7.841147e-01 -7.312537e-01 -3.979312e-01 -3.254193e-01 2.257236e-02 1.141970e-01 4.741968e-01 5.840860e-01 9.531322e-01 1.080113e+00 1.454938e+00 1.597512e+00 1.974549e+00 2.130901e+00 2.506309e+00 2.674342e+00 3.044045e+00 3.221422e+00 3.581164e+00 3.765374e+00 4.110797e+00 4.299228e+00 4.625952e+00 4.815972e+00 5.119696e+00 5.308737e+00 5.585334e+00 5.770972e+00 6.016589e+00 6.196610e+00 6.407761e+00 6.580215e+00 6.753863e+00 6.917099e+00 7.050731e+00 7.203410e+00 7.295091e+00 7.436184e+00 7.484598e+00 7.613365e+00 7.617841e+00 7.733790e+00 7.694310e+00 7.797157e+00 7.714350e+00 7.803962e+00 7.679083e+00 7.755423e+00 7.590319e+00 7.653400e+00 7.450462e+00 7.500299e+00 7.262409e+00 7.298985e+00 7.029450e+00 7.052696e+00 6.755178e+00 6.764965e+00 6.443406e+00 6.439552e+00 6.098095e+00 6.080382e+00 5.723298e+00 5.691506e+00 5.323109e+00 5.277053e+00 4.901633e+00 4.841203e+00 4.462951e+00 4.388159e+00 4.011109e+00 3.922120e+00 3.550090e+00 3.447260e+00 3.083813e+00 2.967699e+00 2.616112e+00 2.487487e+00 2.150727e+00 2.010576e+00 1.691296e+00 1.540799e+00 1.241346e+00 1.081859e+00 8.042792e-01 6.373067e-01 3.833726e-01 2.105364e-01 -1.823537e-02 -1.952276e-01 -3.975511e-01 -5.769360e-01 -7.517356e-01 -9.317226e-01 -1.078115e+00 -1.256912e+00 -1.374194e+00 -1.550029e+00 -1.637665e+00 -1.808804e+00 -1.866425e+00 -2.031186e+00 -2.058580e+00 -2.215346e+00 -2.212458e+00 -2.359685e+00 -2.326613e+00 -2.462837e+00 -2.399830e+00 -2.523669e+00 -2.431121e+00 -2.541282e+00 -2.419734e+00 -2.515015e+00 -2.365147e+00 -2.444445e+00 -2.267081e+00 
-2.233748e+00 -2.030190e+00 -2.074280e+00 -1.844623e+00 -1.869472e+00 -1.614926e+00 -1.619933e+00 -1.341888e+00 -1.326623e+00 -1.026667e+00 -9.908964e-01 -6.708469e-01 -6.145656e-01 -2.764895e-01 -1.999567e-01 1.537984e-01 2.500295e-01 6.168111e-01 7.318661e-01 1.108698e+00 1.241364e+00 1.624938e+00 1.773658e+00 2.160337e+00 2.323222e+00 2.709065e+00 2.883926e+00 3.264724e+00 3.449118e+00 3.820455e+00 4.011754e+00 4.369085e+00 4.564553e+00 4.903297e+00 5.100179e+00 5.415816e+00 5.611430e+00 5.899612e+00 6.091427e+00 6.348084e+00 6.533796e+00 6.755238e+00 6.932825e+00 7.115828e+00 7.283588e+00 7.425476e+00 7.582036e+00 7.680742e+00 7.825058e+00 7.879168e+00 8.010495e+00 8.019275e+00 8.137133e+00 8.100541e+00 8.204660e+00 8.123336e+00 8.213602e+00 8.088850e+00 8.165248e+00 7.998995e+00 8.061553e+00 7.856300e+00 7.905047e+00 7.663809e+00 7.698734e+00 7.424970e+00 7.446006e+00 7.143542e+00 7.150556e+00 6.823504e+00 6.816303e+00 6.468980e+00 6.447336e+00 6.084175e+00 6.047856e+00 5.673329e+00 5.622141e+00 5.240674e+00 5.174508e+00 4.790410e+00 4.709286e+00 4.326683e+00 4.230788e+00 3.853565e+00 3.743290e+00 3.375045e+00 3.251003e+00 2.895018e+00 2.758050e+00 2.417273e+00 2.268446e+00 1.945489e+00 1.786080e+00 1.483226e+00 1.314698e+00 1.033924e+00 8.578916e-01 6.008957e-01 4.190943e-01 1.873245e-01 1.573081e-03 -2.037429e-01 -3.915754e-01 -5.694039e-01 -7.574304e-01 -9.069112e-01 -1.093255e+00 -1.213687e+00 -1.396504e+00 -1.487336e+00 -1.664838e+00 -1.725664e+00 -1.896128e+00 -1.926690e+00 -2.088473e+00 -2.088654e+00 -2.240199e+00 -2.210030e+00 -2.349869e+00 -2.289527e+00 -2.416285e+00 -2.326088e+00 -2.438483e+00 -2.318895e+00 -2.415741e+00 -2.267367e+00 -2.347575e+00 -2.171163e+00 
-2.464432e+00 -2.257286e+00 -2.304036e+00 -2.070937e+00 -2.098556e+00 -1.840733e+00 -1.848541e+00 -1.567394e+00 -1.554880e+00 -1.251997e+00 -1.218848e+00 -8.960388e-01 -8.421731e-01 -5.014937e-01 -4.271003e-01 -7.088752e-02 2.353850e-02 3.926402e-01 5.062663e-01 8.852828e-01 1.016917e+00 1.402533e+00 1.550617e+00 1.939177e+00 2.101797e+00 2.489328e+00 2.664242e+00 3.046495e+00 3.231190e+00 3.603700e+00 3.795459e+00 4.153626e+00 4.349618e+00 4.688803e+00 4.886176e+00 5.201806e+00 5.397791e+00 5.685473e+00 5.877466e+00 6.133094e+00 6.318747e+00 6.538606e+00 6.715878e+00 6.896736e+00 7.063935e+00 7.203120e+00 7.358918e+00 7.454378e+00 7.597800e+00 7.648146e+00 7.778545e+00 7.783075e+00 7.900082e+00 7.858793e+00 7.962258e+00 7.875836e+00 7.965766e+00 7.835558e+00 7.912054e+00 7.740034e+00 7.803222e+00 7.591941e+00 7.641927e+00 7.394447e+00 7.431272e+00 7.151102e+00 7.174717e+00 6.865736e+00 6.875996e+00 6.542367e+00 6.539041e+00 6.185135e+00 6.167927e+00 5.798236e+00 5.766827e+00 5.385881e+00 5.339977e+00 4.952267e+00 4.891649e+00 4.501548e+00 4.426130e+00 4.037827e+00 3.947699e+00 3.565140e+00 3.460603e+00 3.087447e+00 2.969038e+00 2.608618e+00 2.477118e+00 2.132429e+00 1.988857e+00 1.662548e+00 1.508139e+00 1.202526e+00 1.038708e+00 7.557883e-01 5.841458e-01 3.256316e-01 1.478687e-01 -8.478750e-02 -2.668825e-01 -4.724569e-01 -6.570461e-01 -8.345184e-01 -1.019745e+00 -1.168278e+00 -1.352291e+00 -1.471217e+00 -1.652197e+00 -1.741008e+00 -1.917180e+00 -1.975526e+00 -2.145174e+00 -2.172856e+00 -2.334337e+00 -2.331309e+00 -2.483055e+00 -2.449420e+00 -2.589941e+00 -2.525950e+00 -2.653842e+00 -2.559887e+00 -2.673830e+00 -2.550444e+00 -2.649204e+00 -2.497052e+00 -2.579487e+00 -2.399370e+00 
-2.394744e+00 -2.187600e+00 -2.234292e+00 -2.000399e+00 -2.027258e+00 -1.767762e+00 -1.774103e+00 -1.490325e+00 -1.475624e+00 -1.169076e+00 -1.133004e+00 -8.054284e-01 -7.478918e-01 -4.012873e-01 -3.224670e-01 4.086989e-02 1.404753e-01 5.179184e-01 6.374567e-01 1.026021e+00 1.164260e+00 1.560587e+00 1.715902e+00 2.116252e+00 2.286637e+00 2.686916e+00 2.870010e+00 3.265803e+00 3.458953e+00 3.845592e+00 4.045923e+00 4.418573e+00 4.623088e+00 4.976847e+00 5.182529e+00 5.512550e+00 5.716469e+00 6.018077e+00 6.217495e+00 6.486307e+00 6.678757e+00 6.910800e+00 7.094154e+00 7.285961e+00 7.458471e+00 7.607169e+00 7.767475e+00 7.870849e+00 8.017973e+00 8.074517e+00 8.207827e+00 8.216769e+00 8.335926e+00 8.297238e+00 8.402134e+00 8.316525e+00 8.407212e+00 8.276099e+00 8.352718e+00 8.178187e+00 8.240902e+00 8.025648e+00 8.074591e+00 7.821855e+00 7.857082e+00 7.570572e+00 7.592039e+00 7.275846e+00 7.283398e+00 6.941911e+00 6.935296e+00 6.573108e+00 6.552004e+00 6.173822e+00 6.137880e+00 5.748437e+00 5.697334e+00 5.301303e+00 5.234799e+00 4.836708e+00 4.754708e+00 4.358871e+00 4.261470e+00 3.871921e+00 3.759452e+00 3.379897e+00 3.252946e+00 2.886732e+00 2.746151e+00 2.396246e+00 2.243149e+00 1.912144e+00 1.747877e+00 1.438007e+00 1.264122e+00 9.772887e-01 7.955022e-01 5.333167e-01 3.454687e-01 1.092891e-01 -8.269885e-02 -2.917287e-01 -4.858924e-01 -6.668109e-01 -8.611783e-01 -1.013182e+00 -1.205803e+00 -1.328232e+00 -1.517204e+00 -1.609533e+00 -1.793017e+00 -1.854857e+00 -2.031092e+00 -2.062190e+00 -2.229504e+00 -2.229746e+00 -2.386557e+00 -2.355972e+00 -2.500791e+00 -2.439548e+00 -2.570979e+00 -2.479389e+00 -2.596126e+00 -2.474637e+00 -2.575461e+00 -2.424658e+00 -2.508440e+00 -2.329040e+00 
-2.646158e+00 -2.434742e+00 -2.484668e+00 -2.246587e+00 -2.276713e+00 -2.013125e+00 -2.022670e+00 -1.734891e+00 -1.723233e+00 -1.412766e+00 -1.379476e+00 -1.048038e+00 -9.929269e-01 -6.424944e-01 -5.656547e-01 -1.985016e-01 -1.003591e-01 2.809037e-01 3.995478e-01 7.919392e-01 9.298757e-01 1.330022e+00 1.485617e+00 1.889749e+00 2.060951e+00 2.464918e+00 2.649288e+00 3.048604e+00 3.243375e+00 3.633283e+00 3.835448e+00 4.211012e+00 4.417425e+00 4.773642e+00 4.981139e+00 5.313057e+00 5.518573e+00 5.821428e+00 6.022110e+00 6.291443e+00 6.484748e+00 6.716528e+00 6.900289e+00 7.091012e+00 7.263487e+00 7.410262e+00 7.570142e+00 7.670759e+00 7.817154e+00 7.870125e+00 8.002526e+00 8.007113e+00 8.125328e+00 8.081549e+00 8.185628e+00 8.094246e+00 8.184404e+00 8.046897e+00 8.123427e+00 7.941947e+00 8.005145e+00 7.782460e+00 7.832559e+00 7.571985e+00 7.609109e+00 7.314431e+00 7.338560e+00 7.013950e+00 7.024916e+00 6.674845e+00 6.672340e+00 6.301489e+00 6.285100e+00 5.898268e+00 5.867531e+00 5.469542e+00 5.424000e+00 5.019622e+00 4.958899e+00 4.552754e+00 4.476618e+00 4.073112e+00 3.981539e+00 3.584794e+00 3.478012e+00 3.091811e+00 2.970329e+00 2.598087e+00 2.462699e+00 2.107440e+00 1.959217e+00 1.623577e+00 1.463840e+00 1.150083e+00 9.803648e-01 6.904127e-01 5.124131e-01 2.478862e-01 6.342704e-02 -1.743170e-01 -3.633345e-01 -5.731616e-01 -7.647966e-01 -9.457644e-01 -1.138069e+00 -1.289403e+00 -1.480451e+00 -1.601531e+00 -1.789437e+00 -1.879788e+00 -2.062727e+00 -2.122022e+00 -2.298236e+00 -2.326292e+00 -2.494103e+00 -2.490884e+00 -2.648693e+00 -2.614310e+00 -2.760602e+00 -2.695309e+00 -2.828651e+00 -2.732839e+00 -2.851877e+00 -2.726070e+00 -2.829532e+00 -2.674377e+00 -2.761072e+00 -2.577340e+00 
-2.603927e+00 -2.392265e+00 -2.442436e+00 -2.203205e+00 -2.232797e+00 -1.967061e+00 -1.975276e+00 -1.684255e+00 -1.670440e+00 -1.355543e+00 -1.319236e+00 -9.820941e-01 -9.230696e-01 -5.655814e-01 -4.839056e-01 -1.082854e-01 -4.370377e-03 3.868045e-01 5.121494e-01 9.158970e-01 1.061425e+00 1.474329e+00 1.638333e+00 2.056531e+00 2.236849e+00 2.656045e+00 2.850090e+00 3.265597e+00 3.470421e+00 3.877232e+00 4.089621e+00 4.482506e+00 4.699096e+00 5.072723e+00 5.290131e+00 5.639204e+00 5.854160e+00 6.173558e+00 6.383031e+00 6.667953e+00 6.869253e+00 7.115344e+00 7.306201e+00 7.509669e+00 7.688275e+00 7.845983e+00 8.011006e+00 8.120548e+00 8.271111e+00 8.330857e+00 8.466490e+00 8.475621e+00 8.596190e+00 8.554703e+00 8.660331e+00 8.569025e+00 8.660001e+00 8.520449e+00 8.597133e+00 8.411634e+00 8.474382e+00 8.245892e+00 8.294982e+00 8.027044e+00 8.062622e+00 7.759276e+00 7.781329e+00 7.447020e+00 7.455361e+00 7.094843e+00 7.089133e+00 6.707368e+00 6.687149e+00 6.289207e+00 6.253959e+00 5.844924e+00 5.794137e+00 5.379007e+00 5.312255e+00 4.895853e+00 4.812874e+00 4.399763e+00 4.300523e+00 3.894939e+00 3.779684e+00 3.385475e+00 3.254760e+00 2.875352e+00 2.730051e+00 2.368431e+00 2.209722e+00 1.868448e+00 1.697781e+00 1.379005e+00 1.198060e+00 9.035733e-01 7.142084e-01 4.454939e-01 2.496946e-01 7.980597e-03 -1.921917e-01 -4.058796e-01 -6.083327e-01 -7.931314e-01 -9.957810e-01 -1.150962e+00 -1.351763e+00 -1.476716e+00 -1.673690e+00 -1.767921e+00 -1.959167e+00 -2.022302e+00 -2.206016e+00 -2.237805e+00 -2.412279e+00 -2.412608e+00 -2.576235e+00 -2.545129e+00 -2.696397e+00 -2.634018e+00 -2.771508e+00 -2.678158e+00 -2.800536e+00 -2.676648e+00 -2.782661e+00 -2.628793e+00 -2.717264e+00 -2.534099e+00 
-2.875990e+00 -2.659351e+00 -2.713418e+00 -2.469247e+00 -2.502699e+00 -2.232060e+00 -2.243982e+00 -1.948080e+00 -1.937701e+00 -1.617913e+00 -1.584646e+00 -1.242565e+00 -1.186064e+00 -8.235455e-01 -7.437637e-01 -3.629836e-01 -2.602392e-01 1.362533e-01 2.612173e-01 6.704492e-01 8.164157e-01 1.234954e+00 1.400202e+00 1.824138e+00 2.006439e+00 2.431401e+00 2.628055e+00 3.049246e+00 3.257149e+00 3.669429e+00 3.885174e+00 4.283161e+00 4.503175e+00 4.881378e+00 5.102065e+00 5.455033e+00 5.672926e+00 5.995398e+00 6.207303e+00 6.494355e+00 6.697466e+00 6.944652e+00 7.136636e+00 7.340098e+00 7.519149e+00 7.675717e+00 7.840563e+00 7.947820e+00 8.097698e+00 8.154033e+00 8.288632e+00 8.293261e+00 8.412640e+00 8.365614e+00 8.470105e+00 8.372292e+00 8.462395e+00 8.315447e+00 8.391725e+00 8.198027e+00 8.261008e+00 8.023612e+00 8.073709e+00 7.796259e+00 7.833706e+00 7.520348e+00 7.545164e+00 7.200453e+00 7.212431e+00 6.841235e+00 6.839960e+00 6.447361e+00 6.432253e+00 6.023445e+00 5.993830e+00 5.574025e+00 5.529216e+00 5.103539e+00 5.042932e+00 4.616332e+00 4.539494e+00 4.116659e+00 4.023407e+00 3.608685e+00 3.499147e+00 3.096487e+00 2.971134e+00 2.584047e+00 2.443701e+00 2.075241e+00 1.921052e+00 1.573824e+00 1.407236e+00 1.083424e+00 9.061164e-01 6.075272e-01 4.213615e-01 1.494816e-01 -4.356029e-02 -2.875087e-01 -4.853755e-01 -7.003822e-01 -9.009989e-01 -1.086225e+00 -1.287529e+00 -1.442280e+00 -1.642248e+00 -1.765960e+00 -1.962631e+00 -2.054867e+00 -2.246352e+00 -2.306808e+00 -2.491304e+00 -2.519812e+00 -2.695600e+00 -2.692137e+00 -2.857588e+00 -2.822272e+00 -2.975842e+00 -2.908933e+00 -3.049158e+00 -2.951049e+00 -3.076542e+00 -2.947750e+00 -3.057193e+00 -2.898348e+00 -2.990491e+00 -2.802330e+00 
-2.862910e+00 -2.645872e+00 -2.700500e+00 -2.454920e+00 -2.488090e+00 -2.214924e+00 -2.225685e+00 -1.926026e+00 -1.913556e+00 -1.588666e+00 -1.552321e+00 -1.203678e+00 -1.143050e+00 -7.724060e-01 -6.873928e-01 -2.968364e-01 -1.877174e-01 2.202594e-01 3.527521e-01 7.751932e-01 9.298136e-01 1.363250e+00 1.538200e+00 1.978626e+00 2.171548e+00 2.614422e+00 2.822433e+00 3.262720e+00 3.482484e+00 3.914738e+00 4.142584e+00 4.561060e+00 4.793128e+00 5.191929e+00 5.424340e+00 5.797581e+00 6.026604e+00 6.368585e+00 6.590795e+00 6.896168e+00 7.108580e+00 7.372499e+00 7.572657e+00 7.790913e+00 7.976942e+00 8.146064e+00 8.316681e+00 8.434017e+00 8.588493e+00 8.652265e+00 8.790360e+00 8.799692e+00 8.921562e+00 8.876484e+00 8.982571e+00 8.884006e+00 8.974921e+00 8.824644e+00 8.901052e+00 8.701636e+00 8.764151e+00 8.518892e+00 8.567989e+00 8.280815e+00 8.316763e+00 7.992139e+00 8.014964e+00 7.657786e+00 7.667256e+00 7.282741e+00 7.278392e+00 6.871971e+00 6.853151e+00 6.430359e+00 6.396309e+00 5.962674e+00 5.912619e+00 5.473558e+00 5.406812e+00 4.967524e+00 4.883592e+00 4.448966e+00 4.347632e+00 3.922158e+00 3.803556e+00 3.391262e+00 3.255907e+00 2.860316e+00 2.709116e+00 2.333229e+00 2.167459e+00 1.813770e+00 1.635027e+00 1.305565e+00 1.115708e+00 8.120996e-01 6.131816e-01 3.367246e-01 1.309248e-01 -1.173337e-01 -3.277706e-01 -5.469662e-01 -7.597834e-01 -9.491820e-01 -1.162154e+00 -1.321119e+00 -1.532084e+00 -1.660063e+00 -1.866950e+00 -1.963476e+00 -2.164317e+00 -2.229026e+00 -2.421965e+00 -2.454605e+00 -2.637900e+00 -2.638351e+00 -2.810370e+00 -2.778648e+00 -2.937861e+00 -2.874125e+00 -3.019092e+00 -2.923635e+00 -3.052997e+00 -2.926238e+00 -3.038705e+00 -2.881179e+00 -2.975520e+00 -2.787868e+00 
-3.155676e+00 -2.932939e+00 -2.992235e+00 -2.740965e+00 -2.778702e+00 -2.499844e+00 -2.514938e+00 -2.209549e+00 -2.201033e+00 -1.870324e+00 -1.837401e+00 -1.482786e+00 -1.424892e+00 -1.048056e+00 -9.649442e-01 -5.679114e-01 -4.597364e-01 -4.495160e-02 8.764620e-02 5.172480e-01 6.730661e-01 1.114002e+00 1.291226e+00 1.739430e+00 1.935619e+00 2.386448e+00 2.598566e+00 3.046836e+00 3.271332e+00 3.711409e+00 3.944351e+00 4.370277e+00 4.607513e+00 5.013168e+00 5.250523e+00 5.629803e+00 5.863272e+00 6.210277e+00 6.436208e+00 6.745420e+00 6.960662e+00 7.227102e+00 7.429113e+00 7.648480e+00 7.835380e+00 8.004153e+00 8.174733e+00 8.290244e+00 8.443925e+00 8.504414e+00 8.641164e+00 8.645796e+00 8.766023e+00 8.714895e+00 8.819314e+00 8.713433e+00 8.802935e+00 8.644175e+00 8.719687e+00 8.510730e+00 8.573094e+00 8.317355e+00 8.367225e+00 8.068760e+00 8.106517e+00 7.769927e+00 7.795639e+00 7.425959e+00 7.439362e+00 7.041957e+00 7.042485e+00 6.622936e+00 6.609776e+00 6.173776e+00 6.145960e+00 5.699200e+00 5.655720e+00 5.203782e+00 5.143714e+00 4.691962e+00 4.614593e+00 4.168072e+00 4.073003e+00 3.636348e+00 3.523573e+00 3.100939e+00 2.970887e+00 2.565899e+00 2.419438e+00 2.035174e+00 1.873575e+00 1.512581e+00 1.337461e+00 1.001795e+00 8.150430e-01 5.063413e-01 3.100347e-01 2.959211e-02 -1.740749e-01 -4.252248e-01 -6.340075e-01 -8.550214e-01 -1.066676e+00 -1.256849e+00 -1.469173e+00 -1.627905e+00 -1.838762e+00 -1.965552e+00 -2.172891e+00 -2.267339e+00 -2.469204e+00 -2.531022e+00 -2.725558e+00 -2.754592e+00 -2.940043e+00 -2.936277e+00 -3.110982e+00 -3.074546e+00 -3.236935e+00 -3.168100e+00 -3.316683e+00 -3.215850e+00 -3.349205e+00 -3.216890e+00 -3.333654e+00 -3.170473e+00 -3.269334e+00 -3.075986e+00 
-3.173632e+00 -2.950451e+00 -3.010647e+00 -2.757823e+00 -2.795568e+00 -2.513922e+00 -2.528078e+00 -2.218536e+00 -2.208060e+00 -1.871691e+00 -1.835695e+00 -1.473767e+00 -1.411591e+00 -1.025647e+00 -9.369484e-01 -5.288885e-01 -4.137470e-01 1.407832e-02 1.550626e-01 5.997647e-01 7.653786e-01 1.223456e+00 1.411809e+00 1.879099e+00 2.087601e+00 2.559270e+00 2.784661e+00 3.255244e+00 3.493682e+00 3.957175e+00 4.204382e+00 4.654380e+00 4.905838e+00 5.335715e+00 5.586878e+00 5.989995e+00 6.236518e+00 6.606430e+00 6.844369e+00 7.175034e+00 7.401016e+00 7.686970e+00 7.898306e+00 8.134818e+00 8.329563e+00 8.512751e+00 8.689701e+00 8.816617e+00 8.975261e+00 9.043947e+00 9.184368e+00 9.193883e+00 9.316633e+00 9.267059e+00 9.373015e+00 9.265432e+00 9.355641e+00 9.192084e+00 9.267619e+00 9.051008e+00 9.112829e+00 8.846883e+00 8.895728e+00 8.584861e+00 8.621163e+00 8.270368e+00 8.294199e+00 7.908932e+00 7.919995e+00 7.506048e+00 7.503703e+00 7.067086e+00 7.050416e+00 6.597235e+00 6.565146e+00 6.101484e+00 6.052835e+00 5.584630e+00 5.518372e+00 5.051299e+00 4.966615e+00 4.505971e+00 4.402399e+00 3.952998e+00 3.830520e+00 3.396613e+00 3.255701e+00 2.840921e+00 2.682539e+00 2.289888e+00 2.115454e+00 1.747323e+00 1.558644e+00 1.216875e+00 1.016055e+00 7.020343e-01 4.913873e-01 2.061506e-01 -1.188947e-02 -2.675465e-01 -4.905001e-01 -7.159292e-01 -9.413334e-01 -1.135965e+00 -1.361422e+00 -1.524726e+00 -1.747937e+00 -1.879419e+00 -2.098208e+00 -2.197420e+00 -2.409743e+00 -2.476314e+00 -2.680264e+00 -2.713928e+00 -2.907734e+00 -2.908354e+00 -3.090365e+00 -3.057948e+00 -3.226625e+00 -3.161325e+00 -3.315217e+00 -3.217325e+00 -3.355055e+00 -3.224985e+00 -3.345230e+00 -3.183498e+00 -3.284974e+00 -3.092181e+00 
-3.487266e+00 -3.257658e+00 -3.323417e+00 -3.064169e+00 -3.107329e+00 -2.819238e+00 -2.838504e+00 -2.522440e+00 -2.516594e+00 -2.173546e+00 -2.141510e+00 -1.772649e+00 -1.713567e+00 -1.320333e+00 -1.233670e+00 -8.178655e-01 -7.035317e-01 -2.674283e-01 -1.258939e-01 3.276629e-01 4.952537e-01 9.627560e-01 1.154503e+00 1.631722e+00 1.844933e+00 2.326901e+00 2.558118e+00 3.039176e+00 3.284270e+00 3.758160e+00 4.012500e+00 4.472529e+00 4.731199e+00 5.170436e+00 5.428487e+00 5.839994e+00 6.092707e+00 6.469770e+00 6.712889e+00 7.049238e+00 7.279165e+00 7.569164e+00 7.783090e+00 8.021889e+00 8.217860e+00 8.401512e+00 8.578424e+00 8.703964e+00 8.861501e+00 8.926993e+00 9.065511e+00 9.070070e+00 9.190452e+00 9.134240e+00 9.237723e+00 9.121922e+00 9.209919e+00 9.036684e+00 9.110610e+00 8.882996e+00 8.944110e+00 8.665984e+00 8.715255e+00 8.391186e+00 8.429194e+00 8.064340e+00 8.091212e+00 7.691198e+00 7.706593e+00 7.277389e+00 7.280527e+00 6.828327e+00 6.818072e+00 6.349176e+00 6.324154e+00 5.844845e+00 5.803602e+00 5.320025e+00 5.261197e+00 4.779232e+00 4.701717e+00 4.226859e+00 4.129964e+00 3.667210e+00 3.550755e+00 3.104511e+00 2.968882e+00 2.542906e+00 2.389048e+00 1.986429e+00 1.815794e+00 1.438974e+00 1.253430e+00 9.042756e-01 7.059964e-01 3.858923e-01 1.772493e-01 -1.127830e-01 -3.293198e-01 -5.885076e-01 -8.104496e-01 -1.038171e+00 -1.263070e+00 -1.458786e+00 -1.684273e+00 -1.847496e+00 -2.071306e+00 -2.201592e+00 -2.421578e+00 -2.518551e+00 -2.732687e+00 -2.796066e+00 -3.002447e+00 -3.032075e+00 -3.228910e+00 -3.224779e+00 -3.410383e+00 -3.372637e+00 -3.545421e+00 -3.474348e+00 -3.632802e+00 -3.528824e+00 -3.671501e+00 -3.535146e+00 -3.660643e+00 -3.492521e+00 -3.599462e+00 -3.400241e+00 
-3.538327e+00 -3.308345e+00 -3.375381e+00 -3.114561e+00 -3.158079e+00 -2.867080e+00 -2.885710e+00 -2.565247e+00 -2.557666e+00 -2.208553e+00 -2.173552e+00 -1.796774e+00 -1.733350e+00 -1.330156e+00 -1.237629e+00 -8.096422e-01 -6.877912e-01 -2.371373e-01 -8.634646e-02 3.842220e-01 5.628298e-01 1.049819e+00 1.254277e+00 1.753370e+00 1.980818e+00 2.486844e+00 2.733550e+00 3.240517e+00 3.501983e+00 4.003187e+00 4.274338e+00 4.762532e+00 5.037970e+00 5.505599e+00 5.779894e+00 6.219353e+00 6.487344e+00 6.891246e+00 7.148307e+00 7.509738e+00 7.751996e+00 8.064726e+00 8.289206e+00 8.547869e+00 8.752553e+00 8.952771e+00 9.136593e+00 9.275066e+00 9.437824e+00 9.512387e+00 9.654611e+00 9.664256e+00 9.787041e+00 9.731919e+00 9.836726e+00 9.718119e+00 9.806579e+00 9.626846e+00 9.700570e+00 9.463066e+00 9.523474e+00 9.232444e+00 9.280621e+00 8.941078e+00 8.977667e+00 8.595253e+00 8.620388e+00 8.201239e+00 8.214532e+00 7.765137e+00 7.765706e+00 7.292776e+00 7.279337e+00 6.789670e+00 6.760670e+00 6.261026e+00 6.214815e+00 5.711776e+00 5.646803e+00 5.146632e+00 5.061640e+00 4.570148e+00 4.464339e+00 3.986745e+00 3.859903e+00 3.400735e+00 3.253285e+00 2.816306e+00 2.649307e+00 2.237493e+00 2.052578e+00 1.668156e+00 1.467425e+00 1.111961e+00 8.978559e-01 5.723867e-01 3.475695e-01 5.276016e-02 -1.800051e-01 -4.437067e-01 -6.816447e-01 -9.138765e-01 -1.154273e+00 -1.354669e+00 -1.594921e+00 -1.763072e+00 -2.000724e+00 -2.136177e+00 -2.368938e+00 -2.471240e+00 -2.696989e+00 -2.765734e+00 -2.982522e+00 -3.017404e+00 -3.223436e+00 -3.224289e+00 -3.417912e+00 -3.384730e+00 -3.564408e+00 -3.497347e+00 -3.661636e+00 -3.560998e+00 -3.708518e+00 -3.574725e+00 -3.704134e+00 -3.537695e+00 -3.647660e+00 -3.449147e+00 