# vtk DataFile Version 2.0
Comment goes here
ASCII

DATASET STRUCTURED_POINTS
FIELD FieldData 1
TIME 1 1 double
0.18000000
DIMENSIONS    128   128   1

ORIGIN    0.000   0.000   0.000
SPACING   0.039062 0.039062   1.000

POINT_DATA   16384
SCALARS P double
LOOKUP_TABLE default

-3.068298e-01 -6.489387e-01 6.330330e-02 -2.985314e-01 4.337117e-01 5.634244e-02 8.029517e-01 4.143887e-01 1.169746e+00 7.744105e-01 1.532915e+00 1.135247e+00 1.891317e+00 1.495714e+00 2.243786e+00 1.854557e+00 2.589088e+00 2.210398e+00 2.925871e+00 2.561704e+00 3.252636e+00 2.906750e+00 3.567708e+00 3.243606e+00 3.869227e+00 3.570119e+00 4.155140e+00 3.883916e+00 4.423208e+00 4.182415e+00 4.671024e+00 4.462846e+00 4.896038e+00 4.722274e+00 5.095588e+00 4.957642e+00 5.266940e+00 5.165806e+00 5.407333e+00 5.343584e+00 5.514019e+00 5.487800e+00 5.584321e+00 5.595340e+00 5.615681e+00 5.663208e+00 5.605723e+00 5.688587e+00 5.552316e+00 5.668917e+00 5.453649e+00 5.601974e+00 5.308312e+00 5.485958e+00 5.115386e+00 5.319603e+00 4.874532e+00 5.102276e+00 4.586091e+00 4.834093e+00 4.251173e+00 4.516018e+00 3.871743e+00 4.149962e+00 3.450689e+00 3.738856e+00 2.991868e+00 3.286697e+00 2.500127e+00 2.798559e+00 1.981284e+00 2.280563e+00 1.442073e+00 1.739800e+00 8.900441e-01 1.184200e+00 3.334213e-01 6.223599e-01 -2.190873e-01 6.332110e-02 -7.585152e-01 -4.836906e-01 -1.275897e+00 -1.009549e+00 -1.762549e+00 -1.505524e+00 -2.210355e+00 -1.963578e+00 -2.612047e+00 -2.376634e+00 -2.961453e+00 -2.738807e+00 -3.253710e+00 -3.045581e+00 -3.485405e+00 -3.293918e+00 -3.654658e+00 -3.482284e+00 -3.761118e+00 -3.610612e+00 -3.805887e+00 -3.680182e+00 -3.791378e+00 -3.693449e+00 -3.721107e+00 -3.653828e+00 -3.599459e+00 -3.565443e+00 -3.431428e+00 -3.432890e+00 -3.222359e+00 -3.260992e+00 -2.977710e+00 -3.054593e+00 -2.702845e+00 -2.818384e+00 -2.402871e+00 -2.556769e+00 -2.082508e+00 -2.273775e+00 -1.746022e+00 -1.973002e+00 -1.397178e+00 -1.657604e+00 -1.039243e+00 -1.330303e+00 -6.750074e-01 -9.934236e-01 
-3.543753e-01 -6.857748e-01 1.278166e-02 -3.377149e-01 3.809756e-01 1.550504e-02 7.487376e-01 3.725658e-01 1.114762e+00 7.322423e-01 1.477840e+00 1.093343e+00 1.836798e+00 1.454654e+00 2.190441e+00 1.814888e+00 2.537502e+00 2.172635e+00 2.876599e+00 2.526331e+00 3.206204e+00 2.874222e+00 3.524613e+00 3.214345e+00 3.829939e+00 3.544520e+00 4.120101e+00 3.862344e+00 4.392835e+00 4.165211e+00 4.645712e+00 4.450321e+00 4.876157e+00 4.714720e+00 5.081490e+00 4.955329e+00 5.258958e+00 5.168984e+00 5.405780e+00 5.352484e+00 5.519193e+00 5.502639e+00 5.596498e+00 5.616315e+00 5.635117e+00 5.690498e+00 5.632647e+00 5.722350e+00 5.586926e+00 5.709284e+00 5.496106e+00 5.649041e+00 5.358728e+00 5.539783e+00 5.173815e+00 5.380195e+00 4.940963e+00 5.169585e+00 4.660433e+00 4.908003e+00 4.333249e+00 4.596338e+00 3.961279e+00 4.236420e+00 3.547303e+00 3.831091e+00 3.095071e+00 3.384257e+00 2.609312e+00 2.900900e+00 2.095729e+00 2.387049e+00 1.560943e+00 1.849707e+00 1.012398e+00 1.296722e+00 4.582193e-01 7.366184e-01 -9.296791e-02 1.783732e-01 -6.322634e-01 -3.688357e-01 -1.150747e+00 -8.959150e-01 -1.639754e+00 -1.394150e+00 -2.091163e+00 -1.855499e+00 -2.497672e+00 -2.272857e+00 -2.853047e+00 -2.640295e+00 -3.152334e+00 -2.953229e+00 -3.392009e+00 -3.208529e+00 -3.570054e+00 -3.404557e+00 -3.685968e+00 -3.541121e+00 -3.740690e+00 -3.619367e+00 -3.736462e+00 -3.641608e+00 -3.676632e+00 -3.611108e+00 -3.565418e+00 -3.531848e+00 -3.407660e+00 -3.408282e+00 -3.208559e+00 -3.245104e+00 -2.973448e+00 -3.047042e+00 -2.707583e+00 -2.818685e+00 -2.415982e+00 -2.564354e+00 -2.103298e+00 -2.288011e+00 -1.773744e+00 -1.993206e+00 -1.431054e+00 -1.683063e+00 -1.078476e+00 -1.360288e+00 -7.187947e-01 -1.027198e+00 
-3.080010e-01 -6.521079e-01 6.294186e-02 -3.010005e-01 4.340477e-01 5.449992e-02 8.039109e-01 4.131344e-01 1.171290e+00 7.737390e-01 1.535039e+00 1.135182e+00 1.894045e+00 1.496306e+00 2.247166e+00 1.855875e+00 2.593185e+00 2.212528e+00 2.930764e+00 2.564740e+00 3.258410e+00 2.910795e+00 3.574450e+00 3.248758e+00 3.877020e+00 3.576474e+00 4.164060e+00 3.891560e+00 4.433320e+00 4.191424e+00 4.682380e+00 4.473280e+00 4.908675e+00 4.734180e+00 5.109528e+00 4.971050e+00 5.282188e+00 5.180731e+00 5.423877e+00 5.360020e+00 5.531830e+00 5.505724e+00 5.603347e+00 5.614705e+00 5.635845e+00 5.683938e+00 5.626920e+00 5.710575e+00 5.574404e+00 5.692014e+00 5.476448e+00 5.625985e+00 5.331597e+00 5.510636e+00 5.138881e+00 5.344645e+00 4.897911e+00 5.127320e+00 4.608977e+00 4.858719e+00 4.273144e+00 4.539757e+00 3.892337e+00 4.172302e+00 3.469417e+00 3.759257e+00 3.008229e+00 3.304610e+00 2.513623e+00 2.813450e+00 1.991444e+00 2.291933e+00 1.448475e+00 1.747216e+00 8.923401e-01 1.187317e+00 3.313576e-01 6.209467e-01 -2.256478e-01 5.727833e-02 -7.695768e-01 -4.943159e-01 -1.291320e+00 -1.024557e+00 -1.782047e+00 -1.524567e+00 -2.233500e+00 -1.986169e+00 -2.638283e+00 -2.402169e+00 -2.990121e+00 -2.766597e+00 -3.284077e+00 -3.074883e+00 -3.516702e+00 -3.323974e+00 -3.686118e+00 -3.512361e+00 -3.792013e+00 -3.640035e+00 -3.835566e+00 -3.708367e+00 -3.819288e+00 -3.719920e+00 -3.746818e+00 -3.678230e+00 -3.622670e+00 -3.587545e+00 -3.451964e+00 -3.452579e+00 -3.240167e+00 -3.278261e+00 -2.992838e+00 -3.069521e+00 -2.715428e+00 -2.831118e+00 -2.413102e+00 -2.567502e+00 -2.090623e+00 -2.282726e+00 -1.752274e+00 -1.980399e+00 -1.401822e+00 -1.663667e+00 -1.042522e+00 -1.335236e+00 -6.771390e-01 -9.974024e-01 
-3.575016e-01 -6.928293e-01 1.129513e-02 -3.433489e-01 3.809087e-01 1.114909e-02 7.499448e-01 3.694142e-01 1.117169e+00 7.302859e-01 1.481438e+00 1.092631e+00 1.841634e+00 1.455286e+00 2.196611e+00 1.817003e+00 2.545136e+00 2.176405e+00 2.885854e+00 2.531946e+00 3.217250e+00 2.881882e+00 3.537622e+00 3.224250e+00 3.845077e+00 3.556858e+00 4.137518e+00 3.877289e+00 4.412660e+00 4.182908e+00 4.668046e+00 4.470893e+00 4.901073e+00 4.738257e+00 5.109031e+00 4.981889e+00 5.289133e+00 5.198594e+00 5.438567e+00 5.385136e+00 5.554532e+00 5.538283e+00 5.634288e+00 5.654860e+00 5.675210e+00 5.731796e+00 5.674836e+00 5.766190e+00 5.630939e+00 5.755375e+00 5.541588e+00 5.697001e+00 5.405238e+00 5.589128e+00 5.220813e+00 5.430325e+00 4.987806e+00 5.219786e+00 4.706380e+00 4.957444e+00 4.377464e+00 4.644086e+00 4.002845e+00 4.281456e+00 3.585249e+00 3.872340e+00 3.128395e+00 3.420624e+00 2.637021e+00 2.931313e+00 2.116880e+00 2.410511e+00 1.574687e+00 1.865342e+00 1.018026e+00 1.303834e+00 4.552121e-01 7.347313e-01 -1.049028e-01 1.672759e-01 -6.531556e-01 -3.890652e-01 -1.180341e+00 -9.248960e-01 -1.677505e+00 -1.431205e+00 -2.136242e+00 -1.899674e+00 -2.548995e+00 -2.322969e+00 -2.909322e+00 -2.694984e+00 -3.212122e+00 -3.011028e+00 -3.453790e+00 -3.267943e+00 -3.632312e+00 -3.464135e+00 -3.747260e+00 -3.599529e+00 -3.799717e+00 -3.675441e+00 -3.792122e+00 -3.694400e+00 -3.728059e+00 -3.659907e+00 -3.612000e+00 -3.576188e+00 -3.449035e+00 -3.447927e+00 -3.244603e+00 -3.280026e+00 -3.004242e+00 -3.077383e+00 -2.733375e+00 -2.844722e+00 -2.437140e+00 -2.586454e+00 -2.120274e+00 -2.306595e+00 -1.787028e+00 -2.008714e+00 -1.441140e+00 -1.695921e+00 -1.085836e+00 -1.370889e+00 -7.238556e-01 -1.035886e+00 
-3.113721e-01 -6.615148e-01 6.196045e-02 -3.083445e-01 4.351192e-01 4.899940e-02 8.068144e-01 4.093646e-01 1.175915e+00 7.716867e-01 1.541375e+00 1.134924e+00 1.902167e+00 1.497995e+00 2.257224e+00 1.859726e+00 2.605382e+00 2.218803e+00 2.945340e+00 2.573733e+00 3.275627e+00 2.922810e+00 3.594573e+00 3.264101e+00 3.900305e+00 3.595433e+00 4.190736e+00 3.914399e+00 4.463585e+00 4.218369e+00 4.716390e+00 4.504516e+00 4.946543e+00 4.769847e+00 5.151320e+00 5.011240e+00 5.327923e+00 5.225486e+00 5.473520e+00 5.409331e+00 5.585293e+00 5.559523e+00 5.660479e+00 5.672853e+00 5.696422e+00 5.746217e+00 5.690629e+00 5.776666e+00 5.640830e+00 5.761479e+00 5.545054e+00 5.698246e+00 5.401708e+00 5.584957e+00 5.209673e+00 5.420116e+00 4.968406e+00 5.202854e+00 4.678042e+00 4.933054e+00 4.339503e+00 4.611471e+00 3.954594e+00 4.239844e+00 3.526090e+00 3.820992e+00 3.057792e+00 3.358871e+00 2.554566e+00 2.858605e+00 2.022332e+00 2.326465e+00 1.468019e+00 1.769796e+00 8.994703e-01 1.196889e+00 3.252930e-01 6.167959e-01 -2.453351e-01 3.909344e-02 -8.029102e-01 -5.264001e-01 -1.337885e+00 -1.069940e+00 -1.840978e+00 -1.582191e+00 -2.303498e+00 -2.054552e+00 -2.717658e+00 -2.479474e+00 -3.076864e+00 -2.850716e+00 -3.375953e+00 -3.163550e+00 -3.611365e+00 -3.414878e+00 -3.781227e+00 -3.603267e+00 -3.885354e+00 -3.728894e+00 -3.925152e+00 -3.793399e+00 -3.903449e+00 -3.799687e+00 -3.824251e+00 -3.751664e+00 -3.692471e+00 -3.653962e+00 -3.513624e+00 -3.511653e+00 -3.293537e+00 -3.329986e+00 -3.038089e+00 -3.114157e+00 -2.752980e+00 -2.869127e+00 -2.443562e+00 -2.599483e+00 -2.114715e+00 -2.309354e+00 -1.770777e+00 -2.002370e+00 -1.415516e+00 -1.681658e+00 -1.052145e+00 -1.349863e+00 -6.833535e-01 -1.009201e+00 
-3.634757e-01 -7.067432e-01 8.523088e-03 -3.544948e-01 3.808984e-01 2.487943e-03 7.524089e-01 3.630947e-01 1.121965e+00 7.262963e-01 1.488556e+00 1.091078e+00 1.851181e+00 1.456377e+00 2.208786e+00 1.821029e+00 2.560214e+00 2.183719e+00 2.904159e+00 2.542940e+00 3.239132e+00 2.896967e+00 3.563437e+00 3.243832e+00 3.875163e+00 3.581325e+00 4.172183e+00 3.906988e+00 4.452166e+00 4.218141e+00 4.712599e+00 4.511903e+00 4.950821e+00 4.785227e+00 5.164059e+00 5.034939e+00 5.349464e+00 5.257779e+00 5.504156e+00 5.450441e+00 5.625266e+00 5.609620e+00 5.709973e+00 5.732052e+00 5.755558e+00 5.814562e+00 5.759447e+00 5.854118e+00 5.719275e+00 5.847898e+00 5.632955e+00 5.793369e+00 5.498759e+00 5.688378e+00 5.315413e+00 5.531265e+00 5.082201e+00 5.320982e+00 4.799076e+00 5.057227e+00 4.466774e+00 4.740569e+00 4.086918e+00 4.372574e+00 3.662110e+00 3.955905e+00 3.196007e+00 3.494402e+00 2.693357e+00 2.993112e+00 2.160007e+00 2.458282e+00 1.602859e+00 1.897286e+00 1.029782e+00 1.318508e+00 4.494682e-01 7.311482e-01 -1.287630e-01 1.449836e-01 -6.952134e-01 -4.299232e-01 -1.240095e+00 -9.835534e-01 -1.753851e+00 -1.506282e+00 -2.227496e+00 -1.989224e+00 -2.652946e+00 -2.424565e+00 -3.023326e+00 -2.805837e+00 -3.333224e+00 -3.128131e+00 -3.578880e+00 -3.388229e+00 -3.758277e+00 -3.584633e+00 -3.871148e+00 -3.717509e+00 -3.918874e+00 -3.788538e+00 -3.904308e+00 -3.800693e+00 -3.831523e+00 -3.757971e+00 -3.705518e+00 -3.665100e+00 -3.531906e+00 -3.527242e+00 -3.316608e+00 -3.349721e+00 -3.065581e+00 -3.137786e+00 -2.784585e+00 -2.896426e+00 -2.479006e+00 -2.630235e+00 -2.153737e+00 -2.343329e+00 -1.813104e+00 -2.039306e+00 -1.460848e+00 -1.721251e+00 -1.100142e+00 -1.391760e+00 -7.336254e-01 -1.052995e+00 
-3.165144e-01 -6.768573e-01 6.066647e-02 -3.203751e-01 4.371133e-01 3.991847e-02 8.117354e-01 4.030533e-01 1.183589e+00 7.681349e-01 1.551800e+00 1.134273e+00 1.915488e+00 1.500517e+00 2.273706e+00 1.865798e+00 2.625383e+00 2.228880e+00 2.969283e+00 2.588320e+00 3.303965e+00 2.942434e+00 3.627766e+00 3.289286e+00 3.938789e+00 3.626674e+00 4.234908e+00 3.952143e+00 4.513780e+00 4.263000e+00 4.772876e+00 4.556347e+00 5.009510e+00 4.829114e+00 5.220880e+00 5.078100e+00 5.404108e+00 5.300014e+00 5.556281e+00 5.491518e+00 5.674491e+00 5.649264e+00 5.755874e+00 5.769937e+00 5.797657e+00 5.850298e+00 5.797202e+00 5.887235e+00 5.752068e+00 5.877830e+00 5.660079e+00 5.819435e+00 5.519410e+00 5.709772e+00 5.328687e+00 5.547049e+00 5.087096e+00 5.330087e+00 4.794508e+00 5.058465e+00 4.451595e+00 4.732660e+00 4.059948e+00 4.354179e+00 3.622184e+00 3.925683e+00 3.142026e+00 3.451065e+00 2.624349e+00 2.935502e+00 2.075196e+00 2.385446e+00 1.501737e+00 1.808562e+00 9.121805e-01 1.213596e+00 3.156227e-01 6.101866e-01 -2.781566e-01 8.601420e-03 -8.589596e-01 -5.805721e-01 -1.416483e+00 -1.146784e+00 -1.940666e+00 -1.679900e+00 -2.422062e+00 -2.170589e+00 -2.852202e+00 -2.610675e+00 -3.223934e+00 -2.993450e+00 -3.531702e+00 -3.313906e+00 -3.771747e+00 -3.568876e+00 -3.942212e+00 -3.757063e+00 -4.043132e+00 -3.878969e+00 -4.076321e+00 -3.936719e+00 -4.045160e+00 -3.933813e+00 -3.954308e+00 -3.874813e+00 -3.809371e+00 -3.765013e+00 -3.616547e+00 -3.610109e+00 -3.382296e+00 -3.415901e+00 -3.113034e+00 -3.188036e+00 -2.814891e+00 -2.931810e+00 -2.493525e+00 -2.652037e+00 -2.154007e+00 -2.352965e+00 -1.800756e+00 -2.038251e+00 -1.437533e+00 -1.710972e+00 -1.067465e+00 -1.373668e+00 -6.931064e-01 -1.028406e+00 
-3.717382e-01 -7.271266e-01 4.865254e-03 -3.709122e-01 3.811860e-01 -1.038374e-02 7.562204e-01 3.535655e-01 1.129104e+00 7.201088e-01 1.499029e+00 1.088413e+00 1.865171e+00 1.457571e+00 2.226624e+00 1.826544e+00 2.582339e+00 2.194112e+00 2.931087e+00 2.558827e+00 3.271417e+00 2.918989e+00 3.601637e+00 3.272625e+00 3.919809e+00 3.617486e+00 4.223751e+00 3.951056e+00 4.511058e+00 4.270577e+00 4.779133e+00 4.573078e+00 5.025223e+00 4.855420e+00 5.246458e+00 5.114331e+00 5.439898e+00 5.346457e+00 5.602568e+00 5.548396e+00 5.731495e+00 5.716734e+00 5.823749e+00 5.848084e+00 5.876472e+00 5.939118e+00 5.886927e+00 5.986616e+00 5.852547e+00 5.987523e+00 5.771003e+00 5.939026e+00 5.640290e+00 5.838649e+00 5.458825e+00 5.684373e+00 5.225565e+00 5.474772e+00 4.940136e+00 5.209169e+00 4.602964e+00 4.887784e+00 4.215405e+00 4.511894e+00 3.779860e+00 4.083957e+00 3.299873e+00 3.607723e+00 2.780193e+00 3.088289e+00 2.226799e+00 2.532108e+00 1.646867e+00 1.946932e+00 1.048697e+00 1.341687e+00 4.415594e-01 7.262761e-01 -1.645099e-01 1.113107e-01 -7.589791e-01 -4.922153e-01 -1.331147e+00 -1.073305e+00 -1.870514e+00 -1.621363e+00 -2.367172e+00 -2.126609e+00 -2.812201e+00 -2.580464e+00 -3.198037e+00 -2.975888e+00 -3.518777e+00 -3.307628e+00 -3.770407e+00 -3.572373e+00 -3.950916e+00 -3.768789e+00 -4.060293e+00 -3.897437e+00 -4.100405e+00 -3.960579e+00 -4.074770e+00 -3.961909e+00 -3.988246e+00 -3.906215e+00 -3.846671e+00 -3.799021e+00 -3.656483e+00 -3.646240e+00 -3.424363e+00 -3.453855e+00 -3.156919e+00 -3.227651e+00 -2.860426e+00 -2.973020e+00 -2.540638e+00 -2.694821e+00 -2.202675e+00 -2.397311e+00 -1.850962e+00 -2.084119e+00 -1.489229e+00 -1.758269e+00 -1.120546e+00 -1.422230e+00 -7.473929e-01 -1.077989e+00 
-3.227108e-01 -6.976331e-01 5.956741e-02 -3.367858e-01 4.403309e-01 2.737412e-02 8.187798e-01 3.941412e-01 1.194243e+00 7.628660e-01 1.566091e+00 1.132876e+00 1.933655e+00 1.503408e+00 2.296163e+00 1.873544e+00 2.652674e+00 2.242157e+00 3.002040e+00 2.607874e+00 3.342864e+00 2.969043e+00 3.673485e+00 3.323713e+00 3.991972e+00 3.669640e+00 4.296130e+00 4.004295e+00 4.583528e+00 4.324890e+00 4.851532e+00 4.628421e+00 5.097346e+00 4.911706e+00 5.318055e+00 5.171433e+00 5.510674e+00 5.404202e+00 5.672177e+00 5.606561e+00 5.799542e+00 5.775041e+00 5.889773e+00 5.906185e+00 5.939937e+00 5.996576e+00 5.947203e+00 6.042881e+00 5.908889e+00 6.041903e+00 5.822530e+00 5.990663e+00 5.685968e+00 5.886492e+00 5.497457e+00 5.727166e+00 5.255789e+00 5.511050e+00 4.960436e+00 5.237266e+00 4.611694e+00 4.905869e+00 4.210833e+00 4.518012e+00 3.760220e+00 4.076101e+00 3.263440e+00 3.583917e+00 2.725366e+00 3.046687e+00 2.152194e+00 2.471107e+00 1.551424e+00 1.865290e+00 9.317799e-01 1.238635e+00 3.030580e-01 6.016268e-01 -3.240916e-01 -3.445559e-02 -9.384573e-01 -6.578928e-01 -1.528622e+00 -1.256941e+00 -2.083371e+00 -1.820282e+00 -2.592131e+00 -2.337485e+00 -3.045411e+00 -2.799441e+00 -3.435216e+00 -3.198741e+00 -3.755399e+00 -3.529963e+00 -4.001904e+00 -3.789836e+00 -4.172899e+00 -3.977281e+00 -4.268761e+00 -4.093303e+00 -4.291927e+00 -4.140769e+00 -4.246620e+00 -4.124081e+00 -4.138487e+00 -4.048791e+00 -3.974178e+00 -3.921185e+00 -3.760914e+00 -3.747885e+00 -3.506084e+00 -3.535495e+00 -3.216888e+00 -3.290309e+00 -2.900070e+00 -3.018099e+00 -2.561716e+00 -2.723983e+00 -2.207148e+00 -2.412358e+00 -1.840878e+00 -2.086894e+00 -1.466627e+00 -1.750577e+00 -1.087381e+00 -1.405773e+00 -7.054785e-01 -1.054322e+00 
-3.814460e-01 -7.533963e-01 9.143328e-04 -3.922510e-01 3.821172e-01 -2.734190e-02 7.614916e-01 3.407398e-01 1.138485e+00 7.114471e-01 1.512571e+00 1.084197e+00 1.883169e+00 1.458295e+00 2.249569e+00 1.832877e+00 2.610877e+00 2.206847e+00 2.965961e+00 2.578840e+00 3.313419e+00 2.947185e+00 3.651560e+00 3.309895e+00 3.978400e+00 3.664666e+00 4.291677e+00 4.008892e+00 4.588877e+00 4.339700e+00 4.867279e+00 4.653993e+00 5.124000e+00 4.948500e+00 5.356042e+00 5.219825e+00 5.560343e+00 5.464488e+00 5.733808e+00 5.678966e+00 5.873343e+00 5.859718e+00 5.975876e+00 6.003202e+00 6.038383e+00 6.105904e+00 6.057914e+00 6.164362e+00 6.031636e+00 6.175213e+00 5.956896e+00 6.135265e+00 5.831307e+00 6.041596e+00 5.652856e+00 5.891686e+00 5.420039e+00 5.683572e+00 5.132013e+00 5.416036e+00 4.788758e+00 5.088793e+00 4.391236e+00 4.702686e+00 3.941543e+00 4.259859e+00 3.443041e+00 3.763904e+00 2.900451e+00 3.219958e+00 2.319905e+00 2.634733e+00 1.708940e+00 2.016483e+00 1.076425e+00 1.374877e+00 4.324240e-01 7.207907e-01 -2.120341e-01 6.600579e-02 -8.452519e-01 -5.771685e-01 -1.455240e+00 -1.196342e+00 -2.030151e+00 -1.779533e+00 -2.558758e+00 -2.315671e+00 -3.030935e+00 -2.795079e+00 -3.438116e+00 -3.209887e+00 -3.773687e+00 -3.554352e+00 -4.033268e+00 -3.825040e+00 -4.214858e+00 -4.020866e+00 -4.318831e+00 -4.142980e+00 -4.347772e+00 -4.194508e+00 -4.306179e+00 -4.180197e+00 -4.200055e+00 -4.105983e+00 -4.036453e+00 -3.978543e+00 -3.823001e+00 -3.804854e+00 -3.567456e+00 -3.591823e+00 -3.277331e+00 -3.345975e+00 -2.959606e+00 -3.073239e+00 -2.620524e+00 -2.778816e+00 -2.265487e+00 -2.467124e+00 -1.899021e+00 -2.141801e+00 -1.524807e+00 -1.805760e+00 -1.145749e+00 -1.461270e+00 -7.640735e-01 -1.110054e+00 
-3.289539e-01 -7.231437e-01 5.936146e-02 -3.571648e-01 4.451685e-01 1.150275e-02 8.280611e-01 3.825096e-01 1.207734e+00 7.555333e-01 1.583884e+00 1.130192e+00 1.956124e+00 1.505969e+00 2.323910e+00 1.882145e+00 2.686475e+00 2.257739e+00 3.042782e+00 2.631467e+00 3.391487e+00 3.001709e+00 3.730925e+00 3.366497e+00 4.059107e+00 3.723516e+00 4.373742e+00 4.070129e+00 4.672268e+00 4.403415e+00 4.951905e+00 4.720221e+00 5.209705e+00 5.017215e+00 5.442610e+00 5.290940e+00 5.647493e+00 5.537862e+00 5.821199e+00 5.754397e+00 5.960571e+00 5.936938e+00 6.062461e+00 6.081861e+00 6.123748e+00 6.185542e+00 6.141363e+00 6.244375e+00 6.112317e+00 6.254814e+00 6.033774e+00 6.213438e+00 5.903128e+00 6.117063e+00 5.718129e+00 5.962875e+00 5.477030e+00 5.748610e+00 5.178749e+00 5.472752e+00 4.823057e+00 5.134754e+00 4.410753e+00 4.735255e+00 3.943845e+00 4.276278e+00 3.425691e+00 3.761408e+00 2.861123e+00 3.195903e+00 2.256507e+00 2.586750e+00 1.619751e+00 1.942634e+00 9.602460e-01 1.273818e+00 2.887107e-01 5.919225e-01 -3.830370e-01 -9.039903e-02 -1.042409e+00 -7.598728e-01 -1.676460e+00 -1.403103e+00 -2.272373e+00 -2.007119e+00 -2.818001e+00 -2.559953e+00 -3.302414e+00 -3.051181e+00 -3.716427e+00 -3.472407e+00 -4.053049e+00 -3.817627e+00 -4.307807e+00 -4.083441e+00 -4.478909e+00 -4.269091e+00 -4.567230e+00 -4.376317e+00 -4.576105e+00 -4.409053e+00 -4.510969e+00 -4.373000e+00 -4.378876e+00 -4.275109e+00 -4.187955e+00 -4.123061e+00 -3.946855e+00 -3.924758e+00 -3.664244e+00 -3.687898e+00 -3.348386e+00 -3.419635e+00 -3.006830e+00 -3.126353e+00 -2.646203e+00 -2.813540e+00 -2.272122e+00 -2.485747e+00 -1.889175e+00 -2.146619e+00 -1.500986e+00 -1.798976e+00 -1.110309e+00 -1.444921e+00 -7.191604e-01 -1.085962e+00 
-3.914702e-01 -7.847807e-01 -2.555479e-03 -4.180673e-01 3.841201e-01 -4.825721e-02 7.683261e-01 3.244549e-01 1.149919e+00 6.998871e-01 1.528739e+00 1.077780e+00 1.904519e+00 1.457719e+00 2.276808e+00 1.839059e+00 2.644904e+00 2.220870e+00 3.007800e+00 2.601884e+00 3.364152e+00 2.980468e+00 3.712258e+00 3.354607e+00 4.050066e+00 3.721912e+00 4.375193e+00 4.079649e+00 4.684973e+00 4.424786e+00 4.976512e+00 4.754051e+00 5.246751e+00 5.063999e+00 5.492531e+00 5.351071e+00 5.710638e+00 5.611643e+00 5.897843e+00 5.842056e+00 6.050916e+00 6.038629e+00 6.166636e+00 6.197661e+00 6.241789e+00 6.315426e+00 6.273178e+00 6.388176e+00 6.257645e+00 6.412172e+00 6.192127e+00 6.383744e+00 6.073740e+00 6.299387e+00 5.899903e+00 6.155913e+00 5.668494e+00 5.950637e+00 5.378031e+00 5.681596e+00 5.027877e+00 5.347800e+00 4.618440e+00 4.949473e+00 4.151376e+00 4.488295e+00 3.629761e+00 3.967597e+00 3.058233e+00 3.392513e+00 2.443077e+00 2.770056e+00 1.792257e+00 2.109100e+00 1.115363e+00 1.420272e+00 4.234720e-01 7.157226e-01 -2.710859e-01 8.788791e-03 -9.550660e-01 -6.864506e-01 -1.614746e+00 -1.355715e+00 -2.236453e+00 -1.985125e+00 -2.807145e+00 -2.561838e+00 -3.315030e+00 -3.074655e+00 -3.750151e+00 -3.514564e+00 -4.104900e+00 -3.875145e+00 -4.374384e+00 -4.152810e+00 -4.556628e+00 -4.346845e+00 -4.652560e+00 -4.459244e+00 -4.665785e+00 -4.494364e+00 -4.602184e+00 -4.458437e+00 -4.469375e+00 -4.359002e+00 -4.276100e+00 -4.204318e+00 -4.031616e+00 -4.002813e+00 -3.745133e+00 -3.762619e+00 -3.425364e+00 -3.491217e+00 -3.080189e+00 -3.195209e+00 -2.716452e+00 -2.880193e+00 -2.339869e+00 -2.550741e+00 -1.955041e+00 -2.210450e+00 -1.565525e+00 -1.862037e+00 -1.173955e+00 -1.507467e+00 -7.821914e-01 -1.148091e+00 
-3.339480e-01 -7.525038e-01 6.092015e-02 -3.810168e-01 4.520884e-01 -7.571227e-03 8.396609e-01 3.679410e-01 1.223801e+00 7.456149e-01 1.604623e+00 1.125438e+00 1.982098e+00 1.507207e+00 2.355967e+00 1.890452e+00 2.725682e+00 2.274376e+00 3.090341e+00 2.657805e+00 3.448663e+00 3.039154e+00 3.798962e+00 3.416418e+00 4.139166e+00 3.787182e+00 4.466837e+00 4.148654e+00 4.779234e+00 4.497727e+00 5.073376e+00 4.831046e+00 5.346113e+00 5.145080e+00 5.594203e+00 5.436197e+00 5.814357e+00 5.700703e+00 6.003277e+00 5.934877e+00 6.157665e+00 6.134973e+00 6.274219e+00 6.297201e+00 6.349618e+00 6.417715e+00 6.380521e+00 6.492599e+00 6.363580e+00 6.517887e+00 6.295489e+00 6.489616e+00 6.173079e+00 6.403936e+00 5.993443e+00 6.257265e+00 5.754117e+00 6.046499e+00 5.453281e+00 5.769260e+00 5.089985e+00 5.424173e+00 4.664383e+00 5.011150e+00 4.177958e+00 4.531659e+00 3.633727e+00 3.988961e+00 3.036404e+00 3.388287e+00 2.392514e+00 2.736942e+00 1.710441e+00 2.044305e+00 1.000383e+00 1.321726e+00 2.742245e-01 5.822858e-01 -4.547197e-01 -1.595649e-01 -1.172064e+00 -8.884950e-01 -1.862840e+00 -1.588897e+00 -2.512085e+00 -2.245574e+00 -3.105518e+00 -2.844462e+00 -3.630240e+00 -3.373341e+00 -4.075427e+00 -3.822463e+00 -4.432921e+00 -4.185034e+00 -4.697669e+00 -4.457490e+00 -4.867946e+00 -4.639542e+00 -4.945329e+00 -4.733977e+00 -4.934421e+00 -4.746232e+00 -4.842353e+00 -4.683814e+00 -4.678134e+00 -4.555611e+00 -4.451925e+00 -4.371198e+00 -4.174309e+00 -4.140190e+00 -3.855655e+00 -3.871713e+00 -3.505604e+00 -3.574012e+00 -3.132711e+00 -3.254211e+00 -2.744244e+00 -2.918204e+00 -2.346121e+00 -2.570666e+00 -1.942952e+00 -2.215137e+00 -1.538159e+00 -1.854161e+00 -1.134136e+00 -1.489449e+00 -7.324356e-01 -1.122047e+00 
-4.004000e-01 -8.203317e-01 -4.609410e-03 -4.478483e-01 3.876708e-01 -7.303134e-02 7.767730e-01 3.044268e-01 1.163071e+00 6.848030e-01 1.546865e+00 1.068245e+00 1.928282e+00 1.454685e+00 2.307193e+00 1.843756e+00 2.683133e+00 2.234732e+00 3.055249e+00 2.626466e+00 3.422259e+00 3.017362e+00 3.782436e+00 3.405358e+00 4.133622e+00 3.787944e+00 4.473262e+00 4.162202e+00 4.798475e+00 4.524877e+00 5.106130e+00 4.872462e+00 5.392939e+00 5.201284e+00 5.655534e+00 5.507585e+00 5.890530e+00 5.787576e+00 6.094556e+00 6.037462e+00 6.264255e+00 6.253438e+00 6.396266e+00 6.431650e+00 6.487187e+00 6.568165e+00 6.533552e+00 6.658928e+00 6.531830e+00 6.699764e+00 6.478457e+00 6.686418e+00 6.369930e+00 6.614654e+00 6.202937e+00 6.480422e+00 5.974545e+00 6.280081e+00 5.682428e+00 6.010677e+00 5.325116e+00 5.670253e+00 4.902261e+00 5.258177e+00 4.414893e+00 4.775450e+00 3.865658e+00 4.224993e+00 3.259011e+00 3.611857e+00 2.601367e+00 2.943362e+00 1.901162e+00 2.229119e+00 1.168843e+00 1.480938e+00 4.167420e-01 7.125878e-01 -3.411676e-01 -6.058725e-02 -1.089650e+00 -8.221929e-01 -1.812718e+00 -1.555445e+00 -2.494273e+00 -2.243929e+00 -3.118846e+00 -2.872408e+00 -3.672382e+00 -3.427626e+00 -4.143022e+00 -3.899014e+00 -4.521789e+00 -4.279242e+00 -4.803090e+00 -4.564532e+00 -4.984994e+00 -4.754711e+00 -5.069208e+00 -4.852970e+00 -5.060770e+00 -4.865387e+00 -4.967489e+00 -4.800253e+00 -4.799208e+00 -4.667301e+00 -4.566975e+00 -4.476925e+00 -4.282233e+00 -4.239465e+00 -3.956103e+00 -3.964635e+00 -3.598829e+00 -3.661107e+00 -3.219398e+00 -3.336272e+00 -2.825340e+00 -2.996150e+00 -2.422682e+00 -2.645420e+00 -2.016020e+00 -2.287535e+00 -1.608665e+00 -1.924890e+00 -1.202834e+00 -1.559004e+00 -7.998618e-01 -1.190709e+00 
-3.361203e-01 -7.846611e-01 6.525848e-02 -4.077968e-01 4.615743e-01 -2.978127e-02 8.535726e-01 3.500637e-01 1.242001e+00 7.323498e-01 1.627489e+00 1.117520e+00 2.010446e+00 1.505757e+00 2.390971e+00 1.896901e+00 2.768776e+00 2.290379e+00 3.143127e+00 2.685150e+00 3.512804e+00 3.079663e+00 3.876086e+00 3.471854e+00 4.230768e+00 3.859158e+00 4.574211e+00 4.238571e+00 4.903417e+00 4.606722e+00 5.215130e+00 4.959983e+00 5.505938e+00 5.294568e+00 5.772366e+00 5.606624e+00 6.010943e+00 5.892290e+00 6.218230e+00 6.147714e+00 6.390809e+00 6.369036e+00 6.525244e+00 6.552330e+00 6.618029e+00 6.693542e+00 6.665538e+00 6.788434e+00 6.664014e+00 6.832562e+00 6.609596e+00 6.821313e+00 6.498407e+00 6.750008e+00 6.326710e+00 6.614082e+00 6.091112e+00 6.409334e+00 5.788818e+00 6.132241e+00 5.417919e+00 5.780309e+00 4.977689e+00 5.352445e+00 4.468878e+00 4.849317e+00 3.893986e+00 4.273678e+00 3.257493e+00 3.630629e+00 2.566036e+00 2.927785e+00 1.828505e+00 2.175329e+00 1.056050e+00 1.385929e+00 2.619647e-01 5.744956e-01 -5.385647e-01 -2.422252e-01 -1.328865e+00 -1.046236e+00 -2.091344e+00 -1.819024e+00 -2.808215e+00 -2.542429e+00 -3.462346e+00 -3.199579e+00 -4.038184e+00 -3.775828e+00 -4.522664e+00 -4.259595e+00 -4.906025e+00 -4.643015e+00 -5.182418e+00 -4.922325e+00 -5.350214e+00 -5.097913e+00 -5.411977e+00 -5.174037e+00 -5.374077e+00 -5.158233e+00 -5.246002e+00 -5.060502e+00 -5.039449e+00 -4.892369e+00 -4.767331e+00 -4.665949e+00 -4.442814e+00 -4.393102e+00 -4.078479e+00 -4.084775e+00 -3.685701e+00 -3.750545e+00 -3.274244e+00 -3.398378e+00 -2.852079e+00 -3.034572e+00 -2.425382e+00 -2.663836e+00 -1.998665e+00 -2.289464e+00 -1.574983e+00 -1.913560e+00 -1.156184e+00 -1.537267e+00 -7.431671e-01 -1.161003e+00 
-4.065580e-01 -8.589492e-01 -4.187604e-03 -4.810524e-01 3.932417e-01 -1.016493e-01 7.867626e-01 2.801869e-01 1.177386e+00 6.652953e-01 1.565975e+00 1.054322e+00 1.953141e+00 1.447622e+00 2.339145e+00 1.845173e+00 2.723813e+00 2.246497e+00 3.106475e+00 2.650595e+00 3.485917e+00 3.055908e+00 3.860362e+00 3.460299e+00 4.227496e+00 3.861082e+00 4.584519e+00 4.255083e+00 4.928247e+00 4.638737e+00 5.255225e+00 5.008214e+00 5.561858e+00 5.359544e+00 5.844520e+00 5.688722e+00 6.099635e+00 5.991785e+00 6.323701e+00 6.264821e+00 6.513268e+00 6.503940e+00 6.664876e+00 6.705192e+00 6.774971e+00 6.864472e+00 6.839824e+00 6.977423e+00 6.855492e+00 7.039394e+00 6.817828e+00 7.045440e+00 6.722563e+00 6.990425e+00 6.565463e+00 6.869206e+00 6.342554e+00 6.676902e+00 6.050404e+00 6.409247e+00 5.686442e+00 6.062987e+00 5.249295e+00 5.636310e+00 4.739127e+00 5.129256e+00 4.157947e+00 4.544110e+00 3.509885e+00 3.885704e+00 2.801402e+00 3.161633e+00 2.041429e+00 2.382345e+00 1.241393e+00 1.561069e+00 4.151258e-01 7.135779e-01 -4.213729e-01 -1.422401e-01 -1.250355e+00 -9.870097e-01 -2.052922e+00 -1.800676e+00 -2.809804e+00 -2.563470e+00 -3.502302e+00 -3.256956e+00 -4.113321e+00 -3.865105e+00 -4.628412e+00 -4.375244e+00 -5.036718e+00 -4.778819e+00 -5.331687e+00 -5.071821e+00 -5.511452e+00 -5.254856e+00 -5.578816e+00 -5.332806e+00 -5.540817e+00 -5.314144e+00 -5.407939e+00 -5.210001e+00 -5.193080e+00 -5.033089e+00 -4.910408e+00 -4.796650e+00 -4.574267e+00 -4.513515e+00 -4.198250e+00 -4.195391e+00 -3.794509e+00 -3.852381e+00 -3.373337e+00 -3.492757e+00 -2.942999e+00 -3.122927e+00 -2.509759e+00 -2.747560e+00 -2.078057e+00 -2.369802e+00 -1.650765e+00 -1.991532e+00 -1.229473e+00 -1.613631e+00 -8.147801e-01 -1.236234e+00 
-3.336481e-01 -8.184321e-01 7.348630e-02 -4.369626e-01 4.740662e-01 -5.518330e-02 8.696237e-01 3.282766e-01 1.261615e+00 7.146527e-01 1.651293e+00 1.104938e+00 2.039598e+00 1.499782e+00 2.427059e+00 1.899404e+00 2.813706e+00 2.303505e+00 3.199002e+00 2.711200e+00 3.581791e+00 3.120976e+00 3.960289e+00 3.530674e+00 4.332100e+00 3.937521e+00 4.694293e+00 4.338203e+00 5.043514e+00 4.728991e+00 5.376125e+00 5.105879e+00 5.688365e+00 5.464743e+00 5.976473e+00 5.801464e+00 6.236776e+00 6.112004e+00 6.465718e+00 6.392418e+00 6.659811e+00 6.638794e+00 6.815551e+00 6.847142e+00 6.929297e+00 7.013263e+00 6.997161e+00 7.132618e+00 7.014947e+00 7.200250e+00 6.978143e+00 7.210788e+00 6.882015e+00 7.158539e+00 6.721777e+00 7.037695e+00 6.492845e+00 6.842641e+00 6.191159e+00 6.568347e+00 5.813546e+00 6.210824e+00 5.358095e+00 5.767604e+00 4.824548e+00 5.238226e+00 4.214650e+00 4.624672e+00 3.532466e+00 3.931736e+00 2.784642e+00 3.167286e+00 1.980571e+00 2.342394e+00 1.132467e+00 1.471290e+00 2.552876e-01 5.711280e-01 -6.334985e-01 -3.384659e-01 -1.514354e+00 -1.236079e+00 -2.366332e+00 -2.099420e+00 -3.167962e+00 -2.906420e+00 -3.898334e+00 -3.636458e+00 -4.538316e+00 -4.271613e+00 -5.071792e+00 -4.797818e+00 -5.486794e+00 -5.205764e+00 -5.776363e+00 -5.491435e+00 -5.939007e+00 -5.656192e+00 -5.978672e+00 -5.706362e+00 -5.904195e+00 -5.652403e+00 -5.728326e+00 -5.507752e+00 -5.466454e+00 -5.287516e+00 -5.135218e+00 -5.007190e+00 -4.751194e+00 -4.681549e+00 -4.329808e+00 -4.323811e+00 -3.884567e+00 -3.945126e+00 -3.426627e+00 -3.554361e+00 -2.964663e+00 -3.158133e+00 -2.504981e+00 -2.761010e+00 -2.051778e+00 -2.365820e+00 -1.607492e+00 -1.973982e+00 -1.173166e+00 -1.585843e+00 -7.487964e-01 -1.200975e+00 