# vtk DataFile Version 2.0
Comment goes here
ASCII

DATASET STRUCTURED_POINTS
FIELD FieldData 1
TIME 1 1 double
0.09000000
DIMENSIONS    128   128   1

ORIGIN    0.000   0.000   0.000
SPACING   0.039062 0.039062   1.000

POINT_DATA   16384
SCALARS P double
LOOKUP_TABLE default

4.608052e+00 4.245014e+00 3.643761e+00 3.080934e+00 2.569787e+00 1.818416e+00 1.402201e+00 4.744781e-01 1.581182e-01 -9.330659e-01 -1.144663e+00 -2.385939e+00 -2.488012e+00 -3.865726e+00 -3.853809e+00 -5.354189e+00 -5.224272e+00 -6.833570e+00 -6.582271e+00 -8.286879e+00 -7.911613e+00 -9.698159e+00 -9.197303e+00 -1.105272e+01 -1.042578e+01 -1.233734e+01 -1.158508e+01 -1.354042e+01 -1.266501e+01 -1.465210e+01 -1.365720e+01 -1.566428e+01 -1.455514e+01 -1.657068e+01 -1.535413e+01 -1.736670e+01 -1.605123e+01 -1.804936e+01 -1.664504e+01 -1.861712e+01 -1.713561e+01 -1.906968e+01 -1.752411e+01 -1.940779e+01 -1.781268e+01 -1.963301e+01 -1.800411e+01 -1.974749e+01 -1.810163e+01 -1.975374e+01 -1.810870e+01 -1.965451e+01 -1.802876e+01 -1.945263e+01 -1.786511e+01 -1.915089e+01 -1.762077e+01 -1.875202e+01 -1.729841e+01 -1.825870e+01 -1.690033e+01 -1.767357e+01 -1.642849e+01 -1.699935e+01 -1.588451e+01 -1.623893e+01 -1.526985e+01 -1.539549e+01 -1.458585e+01 -1.447267e+01 -1.383391e+01 -1.347465e+01 -1.301562e+01 -1.240635e+01 -1.213297e+01 -1.127346e+01 -1.118847e+01 -1.008256e+01 -1.018537e+01 -8.841206e+00 -9.127796e+00 -7.557950e+00 -8.020948e+00 -6.242365e+00 -6.871244e+00 -4.905056e+00 -5.686457e+00 -3.557637e+00 -4.475816e+00 -2.212684e+00 -3.250055e+00 -8.836637e-01 -2.021404e+00 4.151823e-01 -8.035088e-01 1.668985e+00 3.887312e-01 2.862444e+00 1.539409e+00 3.980070e+00 2.631935e+00 5.006468e+00 3.649431e+00 5.926666e+00 4.575185e+00 6.726465e+00 5.393138e+00 7.392814e+00 6.088382e+00 7.914186e+00 6.647646e+00 8.280927e+00 7.059733e+00 8.485574e+00 7.315897e+00 8.523109e+00 7.410127e+00 8.391144e+00 7.339333e+00 8.090021e+00 7.103426e+00 7.622822e+00 6.705291e+00 6.995304e+00 6.150677e+00 6.215751e+00 5.447993e+00 5.294765e+00 
4.313407e+00 3.998106e+00 3.373131e+00 2.856961e+00 2.321280e+00 1.615415e+00 1.173951e+00 2.905266e-01 -5.170142e-02 -1.099847e+00 -1.337837e+00 -2.537389e+00 -2.666287e+00 -4.003650e+00 -4.018899e+00 -5.480373e+00 -5.377873e+00 -6.949796e+00 -6.726075e+00 -8.394943e+00 -8.047325e+00 -9.799887e+00 -9.326662e+00 -1.114999e+01 -1.055057e+01 -1.243209e+01 -1.170716e+01 -1.363468e+01 -1.278630e+01 -1.474796e+01 -1.377972e+01 -1.576396e+01 -1.468099e+01 -1.667646e+01 -1.548551e+01 -1.748095e+01 -1.619042e+01 -1.817452e+01 -1.679441e+01 -1.875569e+01 -1.729757e+01 -1.922422e+01 -1.770115e+01 -1.958086e+01 -1.800728e+01 -1.982716e+01 -1.821878e+01 -1.996525e+01 -1.833886e+01 -1.999759e+01 -1.837092e+01 -1.992684e+01 -1.831833e+01 -1.975569e+01 -1.818425e+01 -1.948678e+01 -1.797157e+01 -1.912264e+01 -1.768275e+01 -1.866569e+01 -1.731985e+01 -1.811827e+01 -1.688450e+01 -1.748275e+01 -1.637801e+01 -1.676159e+01 -1.580139e+01 -1.595750e+01 -1.515552e+01 -1.507358e+01 -1.444125e+01 -1.411343e+01 -1.365962e+01 -1.308131e+01 -1.281196e+01 -1.198225e+01 -1.190015e+01 -1.082213e+01 -1.092677e+01 -9.607847e+00 -9.895291e+00 -8.347295e+00 -8.810313e+00 -7.049480e+00 -7.677715e+00 -5.724537e+00 -6.504832e+00 -4.383737e+00 -5.300580e+00 -3.039469e+00 -4.075524e+00 -1.705177e+00 -2.841885e+00 -3.952525e-01 -1.613457e+00 8.751201e-01 -4.054441e-01 2.090180e+00 7.658071e-01 3.233854e+00 1.883154e+00 4.290079e+00 2.929083e+00 5.243158e+00 3.886199e+00 6.078151e+00 4.737738e+00 6.781279e+00 5.468103e+00 7.340328e+00 6.063369e+00 7.745017e+00 6.511744e+00 7.987330e+00 6.803953e+00 8.061782e+00 6.933536e+00 7.965598e+00 6.897034e+00 7.698816e+00 6.694064e+00 7.264292e+00 6.327293e+00 6.667620e+00 5.802312e+00 5.916983e+00 5.127431e+00 5.022929e+00 
4.657801e+00 4.289760e+00 3.686242e+00 3.117909e+00 2.604513e+00 1.847259e+00 1.428839e+00 4.949664e-01 1.764858e-01 -9.210191e-01 -1.134601e+00 -2.382288e+00 -2.486150e+00 -3.870295e+00 -3.859905e+00 -5.366679e+00 -5.237958e+00 -6.853568e+00 -6.603061e+00 -8.313864e+00 -7.938914e+00 -9.731518e+00 -9.230435e+00 -1.109176e+01 -1.046398e+01 -1.238131e+01 -1.162756e+01 -1.358854e+01 -1.271094e+01 -1.470356e+01 -1.370574e+01 -1.571832e+01 -1.460550e+01 -1.662654e+01 -1.540556e+01 -1.742371e+01 -1.610306e+01 -1.810692e+01 -1.669671e+01 -1.867473e+01 -1.718666e+01 -1.912696e+01 -1.757421e+01 -1.946448e+01 -1.786162e+01 -1.968894e+01 -1.805182e+01 -1.980260e+01 -1.814815e+01 -1.980808e+01 -1.815416e+01 -1.970818e+01 -1.807337e+01 -1.950577e+01 -1.790915e+01 -1.920367e+01 -1.766454e+01 -1.880460e+01 -1.734222e+01 -1.831118e+01 -1.694444e+01 -1.772601e+01 -1.647311e+01 -1.705169e+01 -1.592977e+01 -1.629101e+01 -1.531575e+01 -1.544703e+01 -1.463227e+01 -1.452326e+01 -1.388058e+01 -1.352375e+01 -1.306213e+01 -1.245328e+01 -1.217876e+01 -1.131746e+01 -1.123284e+01 -1.012279e+01 -1.022748e+01 -8.876775e+00 -9.166714e+00 -7.587942e+00 -8.055678e+00 -6.265895e+00 -6.900759e+00 -4.921301e+00 -5.709749e+00 -3.565876e+00 -4.491944e+00 -2.212340e+00 -3.258192e+00 -8.743306e-01 -2.020888e+00 4.337115e-01 -7.938788e-01 1.696702e+00 4.077025e-01 2.899121e+00 1.567697e+00 4.025258e+00 2.669257e+00 5.059514e+00 3.695251e+00 5.986727e+00 4.628732e+00 6.792540e+00 5.453433e+00 7.463771e+00 6.154272e+00 7.988793e+00 6.717846e+00 8.357891e+00 7.132869e+00 8.563572e+00 7.390551e+00 8.600824e+00 7.484881e+00 8.467292e+00 7.412805e+00 8.163383e+00 7.174307e+00 7.692265e+00 6.772375e+00 7.059802e+00 6.212878e+00 6.274396e+00 5.504367e+00 5.346781e+00 
4.414752e+00 4.089539e+00 3.459941e+00 2.932832e+00 2.392559e+00 1.674989e+00 1.229022e+00 3.333525e-01 -1.320872e-02 -1.073941e+00 -1.315992e+00 -2.528302e+00 -2.660869e+00 -4.011021e+00 -4.029415e+00 -5.503591e+00 -5.403572e+00 -6.988015e+00 -6.765967e+00 -8.447104e+00 -8.100210e+00 -9.864746e+00 -9.391158e+00 -1.122615e+01 -1.062515e+01 -1.251804e+01 -1.179021e+01 -1.372883e+01 -1.287616e+01 -1.484873e+01 -1.387472e+01 -1.586977e+01 -1.477954e+01 -1.678583e+01 -1.558612e+01 -1.759254e+01 -1.629176e+01 -1.828716e+01 -1.689536e+01 -1.886841e+01 -1.739724e+01 -1.933625e+01 -1.779888e+01 -1.969170e+01 -1.810270e+01 -1.993653e+01 -1.831176e+01 -2.007306e+01 -1.842950e+01 -2.010394e+01 -1.845953e+01 -2.003197e+01 -1.840537e+01 -1.985994e+01 -1.827032e+01 -1.959052e+01 -1.805731e+01 -1.922622e+01 -1.776881e+01 -1.876939e+01 -1.740682e+01 -1.822224e+01 -1.697286e+01 -1.758694e+01 -1.646805e+01 -1.686575e+01 -1.589319e+01 -1.606113e+01 -1.524889e+01 -1.517590e+01 -1.453572e+01 -1.421340e+01 -1.375440e+01 -1.317763e+01 -1.290595e+01 -1.207339e+01 -1.199195e+01 -1.090642e+01 -1.101469e+01 -9.683433e+00 -9.977440e+00 -8.412295e+00 -8.884619e+00 -7.102023e+00 -7.742027e+00 -5.762849e+00 -6.557011e+00 -4.406228e+00 -5.338598e+00 -3.044818e+00 -4.097576e+00 -1.692402e+00 -2.846486e+00 -3.637779e-01 -1.599535e+00 9.254244e-01 -3.724078e-01 2.158975e+00 8.180202e-01 3.320333e+00 1.954060e+00 4.392986e+00 3.017662e+00 5.360830e+00 3.990927e+00 6.208573e+00 4.856648e+00 6.922148e+00 5.598855e+00 7.489125e+00 6.203339e+00 7.899082e+00 6.658117e+00 8.143939e+00 6.953819e+00 8.218216e+00 7.083980e+00 8.119213e+00 7.045217e+00 7.847099e+00 6.837299e+00 7.404910e+00 6.463100e+00 6.798462e+00 5.928467e+00 6.036187e+00 5.241996e+00 5.128902e+00 
4.807451e+00 4.424271e+00 3.813955e+00 3.228987e+00 2.708824e+00 1.933817e+00 1.508748e+00 5.563365e-01 2.314482e-01 -8.850960e-01 -1.104688e+00 -2.371670e+00 -2.480964e+00 -3.884454e+00 -3.878716e+00 -5.404714e+00 -5.279652e+00 -6.914227e+00 -6.666167e+00 -8.395576e+00 -8.021642e+00 -9.832424e+00 -9.330722e+00 -1.120977e+01 -1.057955e+01 -1.251415e+01 -1.175597e+01 -1.373383e+01 -1.284967e+01 -1.485889e+01 -1.385230e+01 -1.588130e+01 -1.475745e+01 -1.679494e+01 -1.556065e+01 -1.759546e+01 -1.625926e+01 -1.828022e+01 -1.685231e+01 -1.884808e+01 -1.734027e+01 -1.929921e+01 -1.772484e+01 -1.963482e+01 -1.800866e+01 -1.985691e+01 -1.819504e+01 -1.996804e+01 -1.828768e+01 -1.997112e+01 -1.829044e+01 -1.986917e+01 -1.820708e+01 -1.966518e+01 -1.804113e+01 -1.936202e+01 -1.779573e+01 -1.896238e+01 -1.747354e+01 -1.846876e+01 -1.707675e+01 -1.788355e+01 -1.660706e+01 -1.720907e+01 -1.606574e+01 -1.644777e+01 -1.545380e+01 -1.560233e+01 -1.477205e+01 -1.467585e+01 -1.402131e+01 -1.367200e+01 -1.320257e+01 -1.259519e+01 -1.231721e+01 -1.145070e+01 -1.136715e+01 -1.024480e+01 -1.035515e+01 -8.984817e+00 -9.284906e+00 -7.679254e+00 -8.161352e+00 -6.337771e+00 -6.990786e+00 -4.971228e+00 -5.781050e+00 -3.591656e+00 -4.541639e+00 -2.212199e+00 -3.283755e+00 -8.470239e-01 -2.020286e+00 4.888246e-01 -7.656985e-01 1.779607e+00 4.641653e-01 3.009128e+00 1.652377e+00 4.161012e+00 2.781298e+00 5.219032e+00 3.833030e+00 6.167461e+00 4.789907e+00 6.991453e+00 5.635030e+00 7.677433e+00 6.352796e+00 8.213481e+00 6.929398e+00 8.589690e+00 7.353287e+00 8.798483e+00 7.615540e+00 8.834864e+00 7.710147e+00 8.696590e+00 7.634173e+00 8.384258e+00 7.387825e+00 7.901301e+00 6.974400e+00 7.253904e+00 6.400143e+00 6.450835e+00 5.674023e+00 5.503219e+00 
4.618277e+00 4.272972e+00 3.634117e+00 3.084889e+00 2.535393e+00 1.794198e+00 1.339157e+00 4.188125e-01 6.349347e-02 -1.022571e+00 -1.272854e+00 -2.510817e+00 -2.650847e+00 -4.026689e+00 -4.051508e+00 -5.551174e+00 -5.456258e+00 -7.065805e+00 -6.847243e+00 -8.552959e+00 -8.207643e+00 -9.996144e+00 -9.521951e+00 -1.138025e+01 -1.077622e+01 -1.269178e+01 -1.195826e+01 -1.391900e+01 -1.305781e+01 -1.505208e+01 -1.406659e+01 -1.608313e+01 -1.497838e+01 -1.700620e+01 -1.578892e+01 -1.781718e+01 -1.649583e+01 -1.851368e+01 -1.709841e+01 -1.909485e+01 -1.759747e+01 -1.956111e+01 -1.799500e+01 -1.991395e+01 -1.829395e+01 -2.015561e+01 -1.849789e+01 -2.028883e+01 -1.861075e+01 -2.031666e+01 -1.863655e+01 -2.024217e+01 -1.857915e+01 -2.006834e+01 -1.844210e+01 -1.979794e+01 -1.822845e+01 -1.943343e+01 -1.794067e+01 -1.897699e+01 -1.758065e+01 -1.843059e+01 -1.714967e+01 -1.779601e+01 -1.664849e+01 -1.707506e+01 -1.607746e+01 -1.626967e+01 -1.543666e+01 -1.538214e+01 -1.472606e+01 -1.441524e+01 -1.394573e+01 -1.337247e+01 -1.309606e+01 -1.225814e+01 -1.217800e+01 -1.107761e+01 -1.119328e+01 -9.837350e+00 -1.014469e+01 -8.545069e+00 -9.036305e+00 -7.209816e+00 -7.873745e+00 -5.842019e+00 -6.664367e+00 -4.453505e+00 -5.417424e+00 -3.057473e+00 -4.144149e+00 -1.668408e+00 -2.857742e+00 -3.019316e-01 -1.573253e+00 1.025408e+00 -3.073586e-01 2.296421e+00 9.219830e-01 3.493605e+00 2.095961e+00 4.599535e+00 3.195425e+00 5.597276e+00 4.201448e+00 6.470820e+00 5.095917e+00 7.205521e+00 5.862108e+00 7.788512e+00 6.485240e+00 8.209096e+00 6.952947e+00 8.459063e+00 7.255672e+00 8.532954e+00 7.386947e+00 8.428221e+00 7.343556e+00 8.145305e+00 7.125578e+00 7.687614e+00 6.736319e+00 7.061413e+00 6.182145e+00 6.275639e+00 5.472236e+00 5.341659e+00 
5.058214e+00 4.649362e+00 4.027700e+00 3.414617e+00 2.883108e+00 2.078172e+00 1.641906e+00 6.582994e-01 3.225769e-01 -8.259543e-01 -1.055751e+00 -2.355108e+00 -2.473666e+00 -3.909577e+00 -3.911820e+00 -5.470002e+00 -5.351273e+00 -7.017566e+00 -6.773817e+00 -8.534305e+00 -8.162290e+00 -1.000340e+01 -9.500866e+00 -1.140943e+01 -1.077532e+01 -1.273865e+01 -1.197322e+01 -1.397911e+01 -1.308414e+01 -1.512083e+01 -1.409970e+01 -1.615588e+01 -1.501366e+01 -1.707832e+01 -1.582182e+01 -1.788414e+01 -1.652195e+01 -1.857115e+01 -1.711360e+01 -1.913873e+01 -1.759784e+01 -1.958764e+01 -1.797701e+01 -1.991968e+01 -1.825444e+01 -2.013747e+01 -1.843407e+01 -2.024410e+01 -1.852022e+01 -2.024296e+01 -1.851728e+01 -2.013743e+01 -1.842945e+01 -1.993075e+01 -1.826054e+01 -1.962589e+01 -1.801385e+01 -1.922547e+01 -1.769205e+01 -1.873180e+01 -1.729715e+01 -1.814689e+01 -1.683053e+01 -1.747259e+01 -1.629305e+01 -1.671075e+01 -1.568509e+01 -1.586340e+01 -1.500681e+01 -1.493295e+01 -1.425825e+01 -1.392237e+01 -1.343964e+01 -1.283544e+01 -1.255153e+01 -1.167688e+01 -1.159513e+01 -1.045251e+01 -1.057248e+01 -9.169407e+00 -9.486756e+00 -7.835954e+00 -8.342505e+00 -6.461925e+00 -7.145855e+00 -5.058496e+00 -5.904720e+00 -3.638228e+00 -4.628927e+00 -2.214998e+00 -3.330279e+00 -8.038762e-01 -2.022511e+00 5.790522e-01 -7.211539e-01 1.916920e+00 5.567216e-01 3.192369e+00 1.792860e+00 4.387884e+00 2.968263e+00 5.486163e+00 4.063708e+00 6.470515e+00 5.060305e+00 7.325269e+00 5.940075e+00 8.036184e+00 6.686524e+00 8.590849e+00 7.285173e+00 8.979044e+00 7.724026e+00 9.193057e+00 7.993953e+00 9.227926e+00 8.088952e+00 9.081601e+00 8.006306e+00 8.755014e+00 7.746612e+00 8.252051e+00 7.313700e+00 7.579445e+00 6.714457e+00 6.746580e+00 5.958571e+00 5.765250e+00 
4.925649e+00 4.549526e+00 3.896762e+00 3.313753e+00 2.750317e+00 1.973156e+00 1.504330e+00 5.465132e-01 1.778243e-01 -9.466334e-01 -1.209547e+00 -2.486324e+00 -2.637868e+00 -4.052521e+00 -4.087322e+00 -5.625446e+00 -5.538537e+00 -7.185906e+00 -6.972923e+00 -8.715612e+00 -8.373000e+00 -1.019748e+01 -9.722692e+00 -1.161593e+01 -1.100760e+01 -1.295708e+01 -1.221523e+01 -1.420898e+01 -1.333515e+01 -1.536174e+01 -1.435911e+01 -1.640759e+01 -1.528108e+01 -1.734082e+01 -1.609714e+01 -1.815775e+01 -1.680543e+01 -1.885657e+01 -1.740591e+01 -1.943705e+01 -1.790010e+01 -1.990036e+01 -1.829081e+01 -2.024871e+01 -1.858181e+01 -2.048507e+01 -1.877748e+01 -2.061289e+01 -1.888250e+01 -2.063578e+01 -1.890155e+01 -2.055728e+01 -1.883902e+01 -2.038069e+01 -1.869884e+01 -2.010888e+01 -1.848425e+01 -1.974429e+01 -1.819776e+01 -1.928886e+01 -1.784106e+01 -1.874412e+01 -1.741507e+01 -1.811128e+01 -1.692002e+01 -1.739144e+01 -1.635554e+01 -1.658573e+01 -1.572087e+01 -1.569557e+01 -1.501505e+01 -1.472289e+01 -1.423717e+01 -1.367034e+01 -1.338661e+01 -1.254150e+01 -1.246332e+01 -1.134112e+01 -1.146814e+01 -1.007523e+01 -1.040309e+01 -8.751308e+00 -9.271682e+00 -7.378427e+00 -8.079231e+00 -5.967296e+00 -6.833081e+00 -4.530307e+00 -5.542817e+00 -3.081493e+00 -4.220352e+00 -1.636426e+00 -2.879911e+00 -2.120197e-01 -1.537863e+00 1.173745e+00 -2.124384e-01 2.502174e+00 1.076703e+00 3.754267e+00 2.308994e+00 4.911180e+00 3.463565e+00 5.954696e+00 4.519894e+00 6.867705e+00 5.458463e+00 7.634677e+00 6.261394e+00 8.242093e+00 6.913032e+00 8.678838e+00 7.400438e+00 8.936526e+00 7.713786e+00 9.009740e+00 7.846626e+00 8.896181e+00 7.796016e+00 8.596720e+00 7.562536e+00 8.115342e+00 7.150167e+00 7.459005e+00 6.566083e+00 6.637430e+00 5.820364e+00 5.662815e+00 
5.412096e+00 4.966383e+00 4.328801e+00 3.675541e+00 3.127998e+00 2.280446e+00 1.828256e+00 8.003583e-01 4.491357e-01 -7.447090e-01 -9.891927e-01 -2.334326e+00 -2.466307e+00 -3.947984e+00 -3.961888e+00 -5.565431e+00 -5.456072e+00 -7.166998e+00 -6.929785e+00 -8.733931e+00 -8.365081e+00 -1.024870e+01 -9.745453e+00 -1.169531e+01 -1.105612e+01 -1.305954e+01 -1.228428e+01 -1.432916e+01 -1.341927e+01 -1.549412e+01 -1.445274e+01 -1.654655e+01 -1.537863e+01 -1.748084e+01 -1.619317e+01 -1.829347e+01 -1.689472e+01 -1.898290e+01 -1.748358e+01 -1.954930e+01 -1.796171e+01 -1.999425e+01 -1.833240e+01 -2.032049e+01 -1.859996e+01 -2.053149e+01 -1.876931e+01 -2.063118e+01 -1.884566e+01 -2.062363e+01 -1.883418e+01 -2.051278e+01 -1.873969e+01 -2.030224e+01 -1.856647e+01 -1.999513e+01 -1.831803e+01 -1.959399e+01 -1.799706e+01 -1.910082e+01 -1.760534e+01 -1.851712e+01 -1.714382e+01 -1.784402e+01 -1.661265e+01 -1.708252e+01 -1.601140e+01 -1.623365e+01 -1.533921e+01 -1.529880e+01 -1.459504e+01 -1.427991e+01 -1.377792e+01 -1.317980e+01 -1.288725e+01 -1.200235e+01 -1.192310e+01 -1.075273e+01 -1.088651e+01 -9.437566e+00 -9.779813e+00 -8.065077e+00 -8.606965e+00 -6.645165e+00 -7.373807e+00 -5.189452e+00 -6.088325e+00 -3.711257e+00 -4.760810e+00 -2.225519e+00 -3.403926e+00 -7.486319e-01 -2.032652e+00 7.017898e-01 -6.640864e-01 2.107221e+00 6.828893e-01 3.448598e+00 1.988060e+00 4.706735e+00 3.230428e+00 5.862770e+00 4.388832e+00 6.898616e+00 5.442591e+00 7.797421e+00 6.372167e+00 8.543998e+00 7.159783e+00 9.125244e+00 7.790000e+00 9.530506e+00 8.250205e+00 9.751893e+00 8.530984e+00 9.784512e+00 8.626381e+00 9.626606e+00 8.534016e+00 9.279603e+00 8.255072e+00 8.748050e+00 7.794170e+00 8.039472e+00 7.159131e+00 7.164147e+00 6.360683e+00 6.134819e+00 
5.339350e+00 4.920872e+00 4.249510e+00 3.620337e+00 3.038113e+00 2.212013e+00 1.724474e+00 7.158393e-01 3.288776e-01 -8.475055e-01 -1.127797e+00 -2.456950e+00 -2.624453e+00 -4.091374e+00 -4.140137e+00 -5.729955e+00 -5.654397e+00 -7.352505e+00 -7.147635e+00 -8.939818e+00 -8.601453e+00 -1.047399e+01 -9.998986e+00 -1.193875e+01 -1.132520e+01 -1.331970e+01 -1.256715e+01 -1.460459e+01 -1.371420e+01 -1.578342e+01 -1.475810e+01 -1.684855e+01 -1.569307e+01 -1.779469e+01 -1.651571e+01 -1.861873e+01 -1.722487e+01 -1.931963e+01 -1.782140e+01 -1.989810e+01 -1.830788e+01 -2.035632e+01 -1.868824e+01 -2.069756e+01 -1.896741e+01 -2.092585e+01 -1.915091e+01 -2.104557e+01 -1.924449e+01 -2.106119e+01 -1.925374e+01 -2.097691e+01 -1.918384e+01 -2.079647e+01 -1.903923e+01 -2.052296e+01 -1.882346e+01 -2.015873e+01 -1.853907e+01 -1.970541e+01 -1.818751e+01 -1.916393e+01 -1.776920e+01 -1.853470e+01 -1.728359e+01 -1.781780e+01 -1.672936e+01 -1.701323e+01 -1.610458e+01 -1.612118e+01 -1.540697e+01 -1.514235e+01 -1.463422e+01 -1.407820e+01 -1.378426e+01 -1.293125e+01 -1.285567e+01 -1.170534e+01 -1.184797e+01 -1.040586e+01 -1.076207e+01 -9.039934e+00 -9.600637e+00 -7.616611e+00 -8.368485e+00 -6.146961e+00 -7.072898e+00 -4.644135e+00 -5.723883e+00 -3.123324e+00 -4.334288e+00 -1.601622e+00 -2.919767e+00 -9.776187e-02 -1.498562e+00 1.368245e+00 -9.110736e-02 2.775576e+00 1.280520e+00 4.103124e+00 2.593265e+00 5.330055e+00 3.823835e+00 6.436369e+00 4.949474e+00 7.403448e+00 5.948712e+00 8.214555e+00 6.802080e+00 8.855295e+00 7.492734e+00 9.314009e+00 8.006978e+00 9.582092e+00 8.334649e+00 9.654216e+00 8.469362e+00 9.528452e+00 8.408599e+00 9.206282e+00 8.153659e+00 8.692501e+00 7.709487e+00 7.995037e+00 7.084390e+00 7.124682e+00 6.289695e+00 6.094779e+00 
5.871882e+00 5.377202e+00 4.719078e+00 4.012771e+00 3.444344e+00 2.540788e+00 2.067683e+00 9.817880e-01 6.100497e-01 -6.429578e-01 -9.070311e-01 -2.311788e+00 -2.461824e+00 -4.002987e+00 -4.032742e+00 -5.695126e+00 -5.598703e+00 -7.367409e+00 -7.139485e+00 -9.000023e+00 -8.636087e+00 -1.057448e+01 -1.007108e+01 -1.207398e+01 -1.142893e+01 -1.348366e+01 -1.269629e+01 -1.479092e+01 -1.386222e+01 -1.598553e+01 -1.491834e+01 -1.705980e+01 -1.585887e+01 -1.800850e+01 -1.668060e+01 -1.882879e+01 -1.738270e+01 -1.952003e+01 -1.796651e+01 -2.008345e+01 -1.843518e+01 -2.052185e+01 -1.879333e+01 -2.083916e+01 -1.904660e+01 -2.104008e+01 -1.920124e+01 -2.112968e+01 -1.926370e+01 -2.111301e+01 -1.924020e+01 -2.099477e+01 -1.913648e+01 -2.077908e+01 -1.895740e+01 -2.046929e+01 -1.870682e+01 -2.006786e+01 -1.838745e+01 -1.957638e+01 -1.800078e+01 -1.899564e+01 -1.754713e+01 -1.832581e+01 -1.702579e+01 -1.756667e+01 -1.643517e+01 -1.671791e+01 -1.577303e+01 -1.577948e+01 -1.503684e+01 -1.475191e+01 -1.422402e+01 -1.363666e+01 -1.333234e+01 -1.243641e+01 -1.236031e+01 -1.115541e+01 -1.130754e+01 -9.799627e+00 -1.017517e+01 -8.377009e+00 -8.966286e+00 -6.897585e+00 -7.686259e+00 -5.373538e+00 -6.343115e+00 -3.819198e+00 -4.947729e+00 -2.250936e+00 -3.513921e+00 -6.869502e-01 -2.058363e+00 8.530484e-01 -6.003085e-01 2.348257e+00 8.388585e-01 3.777275e+00 2.236222e+00 5.118640e+00 3.568039e+00 6.351378e+00 4.810498e+00 7.455539e+00 5.940496e+00 8.412700e+00 6.936392e+00 9.206440e+00 7.778706e+00 9.822761e+00 8.450741e+00 1.025046e+01 8.939086e+00 1.048145e+01 9.234000e+00 1.051094e+01 9.329631e+00 1.033761e+01 9.224098e+00 9.963565e+00 8.919413e+00 9.394246e+00 8.421282e+00 8.638250e+00 7.738802e+00 7.707041e+00 6.884092e+00 6.614628e+00 
5.862657e+00 5.389203e+00 4.694497e+00 4.005825e+00 3.399774e+00 2.510933e+00 1.999442e+00 9.259287e-01 5.153834e-01 -7.270733e-01 -1.029980e+00 -2.425596e+00 -2.614055e+00 -4.147142e+00 -4.214442e+00 -5.869548e+00 -5.809301e+00 -7.571340e+00 -7.377723e+00 -9.232103e+00 -8.900112e+00 -1.083285e+01 -1.035855e+01 -1.235638e+01 -1.173715e+01 -1.378762e+01 -1.302238e+01 -1.511386e+01 -1.420326e+01 -1.632498e+01 -1.527158e+01 -1.741352e+01 -1.622188e+01 -1.837469e+01 -1.705142e+01 -1.920619e+01 -1.776002e+01 -1.990801e+01 -1.834973e+01 -2.048213e+01 -1.882451e+01 -2.093208e+01 -1.918983e+01 -2.126257e+01 -1.945215e+01 -2.147902e+01 -1.961854e+01 -2.158714e+01 -1.969615e+01 -2.159252e+01 -1.969185e+01 -2.150027e+01 -1.961181e+01 -2.131475e+01 -1.946124e+01 -2.103934e+01 -1.924408e+01 -2.067634e+01 -1.896295e+01 -2.022694e+01 -1.861899e+01 -1.969130e+01 -1.821197e+01 -1.906875e+01 -1.774034e+01 -1.835800e+01 -1.720148e+01 -1.755751e+01 -1.659191e+01 -1.666582e+01 -1.590761e+01 -1.568195e+01 -1.514438e+01 -1.460574e+01 -1.429826e+01 -1.343824e+01 -1.336588e+01 -1.218206e+01 -1.234499e+01 -1.084165e+01 -1.123494e+01 -9.423587e+00 -1.003717e+01 -7.936826e+00 -8.755737e+00 -6.392848e+00 -7.397743e+00 -4.805764e+00 -5.973686e+00 -3.192277e+00 -4.497622e+00 -1.571504e+00 -2.987110e+00 3.536862e-02 -1.462916e+00 1.605591e+00 5.153405e-02 3.115469e+00 1.530883e+00 4.541064e+00 2.948716e+00 5.858898e+00 4.278493e+00 7.046630e+00 5.494483e+00 8.083677e+00 6.572648e+00 8.951765e+00 7.491448e+00 9.635396e+00 8.232524e+00 1.012225e+01 8.781237e+00 1.040349e+01 9.127052e+00 1.047394e+01 9.263736e+00 1.033220e+01 9.189389e+00 9.980587e+00 8.906317e+00 9.424972e+00 8.420763e+00 8.674557e+00 7.742546e+00 7.741538e+00 6.884628e+00 6.640736e+00 
6.441114e+00 5.884184e+00 5.200823e+00 4.427573e+00 3.833183e+00 2.859344e+00 2.359974e+00 1.201611e+00 8.038662e-01 -5.228111e-01 -8.119445e-01 -2.290736e+00 -2.464100e+00 -4.078945e+00 -4.129431e+00 -5.864533e+00 -5.785324e+00 -7.625267e+00 -7.410092e+00 -9.339970e+00 -8.983375e+00 -1.098891e+01 -1.048654e+01 -1.255420e+01 -1.190304e+01 -1.402016e+01 -1.321882e+01 -1.537362e+01 -1.442253e+01 -1.660417e+01 -1.550575e+01 -1.770427e+01 -1.646306e+01 -1.866925e+01 -1.729196e+01 -1.949715e+01 -1.799270e+01 -2.018851e+01 -1.856799e+01 -2.074600e+01 -1.902255e+01 -2.117398e+01 -1.936274e+01 -2.147803e+01 -1.959598e+01 -2.166447e+01 -1.973026e+01 -2.173988e+01 -1.977367e+01 -2.171061e+01 -1.973387e+01 -2.158241e+01 -1.961773e+01 -2.136012e+01 -1.943098e+01 -2.104741e+01 -1.917794e+01 -2.064664e+01 -1.886136e+01 -2.015890e+01 -1.848237e+01 -1.958404e+01 -1.804051e+01 -1.892094e+01 -1.753391e+01 -1.816780e+01 -1.695946e+01 -1.732252e+01 -1.631317e+01 -1.638310e+01 -1.559050e+01 -1.534816e+01 -1.478675e+01 -1.421733e+01 -1.389755e+01 -1.299169e+01 -1.291928e+01 -1.167415e+01 -1.184962e+01 -1.026978e+01 -1.068805e+01 -8.786077e+00 -9.436391e+00 -7.233164e+00 -8.099300e+00 -5.623899e+00 -6.684742e+00 -3.973886e+00 -5.204281e+00 -2.301351e+00 -3.673214e+00 -6.268682e-01 -2.110439e+00 1.027074e+00 -5.380852e-01 2.636646e+00 1.019121e+00 4.177351e+00 2.534660e+00 5.624733e+00 3.981145e+00 6.955077e+00 5.331278e+00 8.146038e+00 6.558800e+00 9.177216e+00 7.639359e+00 1.003065e+01 8.551307e+00 1.069124e+01 9.276369e+00 1.114714e+01 9.800173e+00 1.139005e+01 1.011262e+01 1.141537e+01 1.020808e+01 1.122236e+01 1.008539e+01 1.081403e+01 9.747675e+00 1.019700e+01 9.202100e+00 9.381241e+00 8.459426e+00 8.379747e+00 7.533571e+00 7.208120e+00 
6.499613e+00 5.957216e+00 5.234329e+00 4.471648e+00 3.836464e+00 2.870067e+00 2.328972e+00 1.175645e+00 7.356631e-01 -5.877684e-01 -9.191736e-01 -2.395987e+00 -2.611126e+00 -4.224830e+00 -4.316022e+00 -6.050471e+00 -6.010300e+00 -7.849822e+00 -7.671405e+00 -9.600929e+00 -9.278207e+00 -1.128340e+01 -1.081143e+01 -1.287885e+01 -1.225408e+01 -1.437124e+01 -1.359180e+01 -1.574731e+01 -1.481320e+01 -1.699672e+01 -1.591004e+01 -1.811226e+01 -1.687730e+01 -1.908977e+01 -1.771310e+01 -1.992801e+01 -1.841848e+01 -2.062834e+01 -1.899709e+01 -2.119438e+01 -1.945469e+01 -2.163145e+01 -1.979871e+01 -2.194614e+01 -2.003765e+01 -2.214571e+01 -2.018055e+01 -2.223758e+01 -2.023645e+01 -2.222887e+01 -2.021383e+01 -2.212589e+01 -2.012023e+01 -2.193383e+01 -1.996182e+01 -2.165651e+01 -1.974314e+01 -2.129617e+01 -1.946688e+01 -2.085346e+01 -1.913384e+01 -2.032755e+01 -1.874295e+01 -1.971635e+01 -1.829141e+01 -1.901681e+01 -1.777491e+01 -1.822535e+01 -1.718799e+01 -1.733834e+01 -1.652438e+01 -1.635256e+01 -1.577745e+01 -1.526572e+01 -1.494070e+01 -1.407690e+01 -1.400825e+01 -1.278702e+01 -1.297546e+01 -1.139924e+01 -1.183953e+01 -9.919330e+00 -1.060017e+01 -8.355987e+00 -9.260298e+00 -6.721120e+00 -7.826618e+00 -5.029993e+00 -6.310144e+00 -3.301220e+00 -4.726430e+00 -1.556540e+00 -3.095508e+00 1.796418e-01 -1.441472e+00 1.880953e+00 2.082714e-01 3.519913e+00 1.824019e+00 5.068875e+00 3.374926e+00 6.500941e+00 4.830207e+00 7.790792e+00 6.160291e+00 8.915391e+00 7.337867e+00 9.854574e+00 8.338795e+00 1.059153e+01 9.142852e+00 1.111317e+01 9.734290e+00 1.141043e+01 1.010220e+01 1.147841e+01 1.024065e+01 1.131643e+01 1.014863e+01 1.092790e+01 9.829803e+00 1.032010e+01 9.292135e+00 9.503857e+00 8.547394e+00 8.493146e+00 7.610628e+00 7.304626e+00 
7.124055e+00 6.490171e+00 5.776759e+00 4.921442e+00 4.295701e+00 3.236248e+00 2.704781e+00 1.458575e+00 1.028714e+00 -3.869203e-01 -7.073219e-01 -2.275232e+00 -2.478027e+00 -4.181332e+00 -4.258323e+00 -6.080511e+00 -6.023720e+00 -7.948754e+00 -7.750713e+00 -9.763163e+00 -9.417222e+00 -1.150241e+01 -1.100306e+01 -1.314720e+01 -1.249038e+01 -1.468074e+01 -1.386415e+01 -1.608915e+01 -1.511247e+01 -1.736171e+01 -1.622687e+01 -1.849108e+01 -1.720233e+01 -1.947328e+01 -1.803729e+01 -2.030752e+01 -1.873338e+01 -2.099588e+01 -1.929506e+01 -2.154288e+01 -1.972913e+01 -2.195494e+01 -2.004416e+01 -2.223977e+01 -2.024988e+01 -2.240583e+01 -2.035654e+01 -2.246164e+01 -2.037433e+01 -2.241529e+01 -2.031279e+01 -2.227393e+01 -2.018031e+01 -2.204335e+01 -1.998373e+01 -2.172767e+01 -1.972798e+01 -2.132919e+01 -1.941593e+01 -2.084835e+01 -1.904826e+01 -2.028384e+01 -1.862354e+01 -1.963286e+01 -1.813842e+01 -1.889155e+01 -1.758789e+01 -1.805543e+01 -1.696566e+01 -1.711999e+01 -1.626463e+01 -1.608131e+01 -1.547739e+01 -1.493658e+01 -1.459674e+01 -1.368473e+01 -1.361631e+01 -1.232688e+01 -1.253119e+01 -1.086683e+01 -1.133857e+01 -9.311373e+00 -1.003848e+01 -7.670644e+00 -8.634488e+00 -5.958256e+00 -7.134298e+00 -4.191371e+00 -5.550235e+00 -2.390563e+00 -3.899429e+00 -5.794693e-01 -2.203660e+00 1.215797e+00 -4.888265e-01 2.967447e+00 1.215937e+00 4.646945e+00 2.879375e+00 6.225979e+00 4.469353e+00 7.677348e+00 5.954086e+00 8.975730e+00 7.303293e+00 1.009830e+01 8.489224e+00 1.102526e+01 9.487545e+00 1.174022e+01 1.027807e+01 1.223059e+01 1.084531e+01 1.248787e+01 1.117883e+01 1.250778e+01 1.127339e+01 1.229032e+01 1.112881e+01 1.183971e+01 1.074976e+01 1.116406e+01 1.014529e+01 1.027509e+01 9.328273e+00 9.187700e+00 8.314904e+00 7.919456e+00 
7.254983e+00 6.628080e+00 5.872031e+00 5.019461e+00 4.349482e+00 3.289536e+00 2.712644e+00 1.463555e+00 9.875857e-01 -4.325963e-01 -7.992121e-01 -2.372719e+00 -2.621193e+00 -4.330622e+00 -4.452066e+00 -6.280474e+00 -6.266183e+00 -8.197193e+00 -8.038957e+00 -1.005690e+01 -9.747334e+00 -1.183742e+01 -1.137030e+01 -1.351879e+01 -1.288940e+01 -1.508376e+01 -1.428921e+01 -1.651826e+01 -1.555776e+01 -1.781170e+01 -1.668676e+01 -1.895712e+01 -1.767173e+01 -1.995120e+01 -1.851185e+01 -2.079405e+01 -1.920978e+01 -2.148883e+01 -1.977116e+01 -2.204123e+01 -2.020410e+01 -2.245893e+01 -2.051853e+01 -2.275091e+01 -2.072557e+01 -2.292683e+01 -2.083678e+01 -2.299634e+01 -2.086359e+01 -2.296850e+01 -2.081660e+01 -2.285125e+01 -2.070510e+01 -2.265090e+01 -2.053655e+01 -2.237184e+01 -2.031624e+01 -2.201630e+01 -2.004705e+01 -2.158429e+01 -1.972936e+01 -2.107374e+01 -1.936107e+01 -2.048072e+01 -1.893778e+01 -1.979991e+01 -1.845310e+01 -1.902510e+01 -1.789904e+01 -1.814983e+01 -1.726648e+01 -1.716799e+01 -1.654571e+01 -1.607449e+01 -1.572697e+01 -1.486582e+01 -1.480114e+01 -1.354068e+01 -1.376042e+01 -1.210042e+01 -1.259911e+01 -1.054962e+01 -1.131449e+01 -8.896509e+00 -9.907760e+00 -7.153343e+00 -8.384876e+00 -5.336712e+00 -6.757302e+00 -3.467576e+00 -5.042399e+00 -1.571023e+00 -3.263361e+00 3.243558e-01 -1.448644e+00 2.187439e+00 3.691060e-01 3.985792e+00 2.154464e+00 5.686968e+00 3.870814e+00 7.259722e+00 5.481909e+00 8.675028e+00 6.953311e+00 9.906874e+00 8.253625e+00 1.093285e+01 9.355527e+00 1.173463e+01 1.023657e+01 1.229830e+01 1.087975e+01 1.261459e+01 1.127383e+01 1.267904e+01 1.141343e+01 1.249193e+01 1.129877e+01 1.205811e+01 1.093537e+01 1.138666e+01 1.033340e+01 1.049044e+01 9.507127e+00 9.385620e+00 8.474192e+00 8.091111e+00 