# vtk DataFile Version 2.0
Comment goes here
ASCII

DATASET STRUCTURED_POINTS
FIELD FieldData 1
TIME 1 1 double
0.01500000
DIMENSIONS    128   128   1

ORIGIN    0.000   0.000   0.000
SPACING   0.039062 0.039062   1.000

POINT_DATA   16384
SCALARS P double
LOOKUP_TABLE default

-1.662560e+01 -1.077344e+01 -2.077183e+01 -1.431399e+01 -2.508499e+01 -1.807662e+01 -2.951777e+01 -2.202036e+01 -3.402129e+01 -2.610257e+01 -3.854557e+01 -3.027939e+01 -4.304017e+01 -3.450630e+01 -4.745484e+01 -3.873870e+01 -5.174032e+01 -4.293256e+01 -5.584925e+01 -4.704521e+01 -5.973704e+01 -5.103605e+01 -6.336279e+01 -5.486731e+01 -6.669026e+01 -5.850469e+01 -6.968852e+01 -6.191800e+01 -7.233267e+01 -6.508142e+01 -7.460412e+01 -6.797375e+01 -7.649073e+01 -7.057830e+01 -7.798661e+01 -7.288255e+01 -7.909155e+01 -7.487760e+01 -7.981030e+01 -7.655746e+01 -8.015160e+01 -7.791820e+01 -8.012703e+01 -7.895714e+01 -7.974995e+01 -7.967209e+01 -7.903441e+01 -8.006074e+01 -7.799434e+01 -8.012033e+01 -7.664293e+01 -7.984760e+01 -7.499229e+01 -7.923892e+01 -7.305348e+01 -7.829083e+01 -7.083676e+01 -7.700066e+01 -6.835213e+01 -7.536737e+01 -6.561001e+01 -7.339239e+01 -6.262201e+01 -7.108043e+01 -5.940167e+01 -6.844025e+01 -5.596521e+01 -6.548517e+01 -5.233206e+01 -6.223351e+01 -4.852526e+01 -5.870869e+01 -4.457170e+01 -5.493927e+01 -4.050210e+01 -5.095868e+01 -3.635092e+01 -4.680488e+01 -3.215600e+01 -4.251986e+01 -2.795816e+01 -3.814903e+01 -2.380067e+01 -3.374053e+01 -1.972854e+01 -2.934448e+01 -1.578786e+01 -2.501214e+01 -1.202500e+01 -2.079506e+01 -8.485689e+00 -1.674413e+01 -5.214211e+00 -1.290869e+01 -2.252454e+00 -9.335578e+00 3.609398e-01 -6.068262e+00 2.591385e+00 -3.146062e+00 4.409060e+00 -6.034595e-01 5.789479e+00 1.530435e+00 6.713923e+00 3.232257e+00 7.169697e+00 4.484607e+00 7.150232e+00 5.276103e+00 6.655035e+00 5.601299e+00 5.689521e+00 5.460488e+00 4.264733e+00 4.859416e+00 2.397011e+00 3.808939e+00 1.076058e-01 2.324649e+00 -2.577709e+00 4.264970e-01 -5.629026e+00 -1.861582e+00 -9.012678e+00 -4.512016e+00 -1.269159e+01 -7.493926e+00 
-7.787216e+00 -2.239143e+00 -1.157792e+01 -5.422838e+00 -1.547811e+01 -8.769639e+00 -1.944128e+01 -1.223919e+01 -2.341998e+01 -1.579015e+01 -2.736642e+01 -1.938080e+01 -3.123320e+01 -2.296961e+01 -3.497401e+01 -2.651597e+01 -3.854456e+01 -2.998091e+01 -4.190342e+01 -3.332790e+01 -4.501300e+01 -3.652359e+01 -4.784044e+01 -3.953859e+01 -5.035842e+01 -4.234799e+01 -5.254588e+01 -4.493187e+01 -5.438844e+01 -4.727547e+01 -5.587858e+01 -4.936917e+01 -5.701550e+01 -5.120812e+01 -5.780466e+01 -5.279163e+01 -5.825696e+01 -5.412231e+01 -5.838766e+01 -5.520502e+01 -5.821512e+01 -5.604571e+01 -5.775936e+01 -5.665027e+01 -5.704075e+01 -5.702354e+01 -5.607868e+01 -5.716850e+01 -5.489064e+01 -5.708576e+01 -5.349142e+01 -5.677339e+01 -5.189285e+01 -5.622714e+01 -5.010379e+01 -5.544096e+01 -4.813057e+01 -5.440778e+01 -4.597763e+01 -5.312056e+01 -4.364847e+01 -5.157331e+01 -4.114663e+01 -4.976227e+01 -3.847675e+01 -4.768686e+01 -3.564557e+01 -4.535059e+01 -3.266274e+01 -4.276172e+01 -2.954151e+01 -3.993369e+01 -2.629914e+01 -3.688530e+01 -2.295719e+01 -3.364075e+01 -1.954143e+01 -3.022939e+01 -1.608177e+01 -2.668532e+01 -1.261179e+01 -2.304683e+01 -9.168298e+00 -1.935580e+01 -5.790664e+00 -1.565686e+01 -2.520071e+00 -1.199655e+01 6.013252e-01 -8.422429e+00 3.531310e+00 -4.982037e+00 6.228566e+00 -1.721924e+00 8.653645e+00 1.313357e+00 1.076992e+01 4.082213e+00 1.254446e+01 6.546883e+00 1.394883e+01 8.674198e+00 1.495975e+01 1.043619e+01 1.555955e+01 1.181056e+01 1.573656e+01 1.278092e+01 1.548520e+01 1.333693e+01 1.480600e+01 1.347424e+01 1.370545e+01 1.319432e+01 1.219573e+01 1.250416e+01 1.029438e+01 1.141595e+01 8.023885e+00 9.946680e+00 5.411233e+00 8.117688e+00 2.487506e+00 5.954268e+00 -7.125725e-01 3.485240e+00 -4.151061e+00 7.425467e-01 
-1.652029e+01 -1.064373e+01 -2.068917e+01 -1.420374e+01 -2.502596e+01 -1.798684e+01 -2.948314e+01 -2.195183e+01 -3.401156e+01 -2.605587e+01 -3.856097e+01 -3.025484e+01 -4.308056e+01 -3.450392e+01 -4.751971e+01 -3.875818e+01 -5.182874e+01 -4.297326e+01 -5.595985e+01 -4.710611e+01 -5.986798e+01 -5.111578e+01 -6.351185e+01 -5.496419e+01 -6.685483e+01 -5.861682e+01 -6.986573e+01 -6.204325e+01 -7.251945e+01 -6.521762e+01 -7.479737e+01 -6.811877e+01 -7.668746e+01 -7.073014e+01 -7.818402e+01 -7.303946e+01 -7.928722e+01 -7.503814e+01 -8.000225e+01 -7.672057e+01 -8.033832e+01 -7.808316e+01 -8.030754e+01 -7.912358e+01 -7.992371e+01 -7.983987e+01 -7.920131e+01 -8.022989e+01 -7.815454e+01 -8.029091e+01 -7.679676e+01 -8.001957e+01 -7.514011e+01 -7.941206e+01 -7.319555e+01 -7.846464e+01 -7.097314e+01 -7.717430e+01 -6.848262e+01 -7.553964e+01 -6.573407e+01 -7.356171e+01 -6.273876e+01 -7.124493e+01 -5.950994e+01 -6.859777e+01 -5.606353e+01 -6.563339e+01 -5.241877e+01 -6.236999e+01 -4.859858e+01 -5.883099e+01 -4.462978e+01 -5.504502e+01 -4.054315e+01 -5.104565e+01 -3.637325e+01 -4.687107e+01 -3.215812e+01 -4.256354e+01 -2.793884e+01 -3.816879e+01 -2.375895e+01 -3.373533e+01 -1.966385e+01 -2.931370e+01 -1.570004e+01 -2.495559e+01 -1.191428e+01 -2.071303e+01 -8.352794e+00 -1.663738e+01 -5.060305e+00 -1.277845e+01 -2.079150e+00 -9.183516e+00 5.516166e-01 -5.896463e+00 2.797050e+00 -2.956950e+00 4.627033e+00 -3.997309e-01 6.016867e+00 1.745893e+00 6.947701e+00 3.456450e+00 7.406788e+00 4.714512e+00 7.387583e+00 5.508737e+00 6.889681e+00 5.833781e+00 5.918634e+00 5.690080e+00 4.485655e+00 5.083553e+00 2.607276e+00 4.025243e+00 3.049453e-01 2.530938e+00 -2.395366e+00 6.207736e-01 -5.463562e+00 -1.681134e+00 -8.865794e+00 -4.347045e+00 -1.256481e+01 -7.345921e+00 
-7.634234e+00 -2.038730e+00 -1.147001e+01 -5.261324e+00 -1.541671e+01 -8.648441e+00 -1.942725e+01 -1.215922e+01 -2.345360e+01 -1.575177e+01 -2.744730e+01 -1.938376e+01 -3.136015e+01 -2.301296e+01 -3.514504e+01 -2.659805e+01 -3.875678e+01 -3.009931e+01 -4.215304e+01 -3.347947e+01 -4.529535e+01 -3.670452e+01 -4.815008e+01 -3.974448e+01 -5.068929e+01 -4.257407e+01 -5.289149e+01 -4.517317e+01 -5.474213e+01 -4.752709e+01 -5.623385e+01 -4.962652e+01 -5.736629e+01 -5.146721e+01 -5.814568e+01 -5.304928e+01 -5.858391e+01 -5.437632e+01 -5.869745e+01 -5.545421e+01 -5.850593e+01 -5.628996e+01 -5.803067e+01 -5.689037e+01 -5.729318e+01 -5.726102e+01 -5.631383e+01 -5.740535e+01 -5.511076e+01 -5.732411e+01 -5.369913e+01 -5.701523e+01 -5.209078e+01 -5.647399e+01 -5.029426e+01 -5.569363e+01 -4.831532e+01 -5.466623e+01 -4.615762e+01 -5.338373e+01 -4.382374e+01 -5.183919e+01 -4.131628e+01 -5.002786e+01 -3.863896e+01 -4.794837e+01 -3.579768e+01 -4.560355e+01 -3.280143e+01 -4.300119e+01 -2.966297e+01 -4.015447e+01 -2.639929e+01 -3.708217e+01 -2.303184e+01 -3.380862e+01 -1.958656e+01 -3.036351e+01 -1.609362e+01 -2.678142e+01 -1.258711e+01 -2.310131e+01 -9.104441e+00 -1.936579e+01 -5.685727e+00 -1.562035e+01 -2.372997e+00 -1.191248e+01 7.906671e-01 -8.290725e+00 3.762074e+00 -4.803657e+00 6.498916e+00 -1.498845e+00 8.960778e+00 1.578186e+00 1.111013e+01 4.384953e+00 1.291325e+01 6.882926e+00 1.434103e+01 9.038316e+00 1.536970e+01 1.082271e+01 1.598128e+01 1.221352e+01 1.616391e+01 1.319426e+01 1.591204e+01 1.375463e+01 1.522636e+01 1.389047e+01 1.411360e+01 1.360350e+01 1.258631e+01 1.290110e+01 1.066242e+01 1.179585e+01 8.364852e+00 1.030516e+01 5.721038e+00 8.450787e+00 2.762500e+00 6.258460e+00 -4.756051e-01 3.757409e+00 -3.954908e+00 9.799865e-01 
-1.620321e+01 -1.025345e+01 -2.044022e+01 -1.387203e+01 -2.484812e+01 -1.771670e+01 -2.937875e+01 -2.174570e+01 -3.398221e+01 -2.591550e+01 -3.860733e+01 -3.018121e+01 -4.320229e+01 -3.449713e+01 -4.771531e+01 -3.881734e+01 -5.209543e+01 -4.309641e+01 -5.629350e+01 -4.729020e+01 -6.026312e+01 -5.135671e+01 -6.396171e+01 -5.525687e+01 -6.735152e+01 -5.895537e+01 -7.040049e+01 -6.242127e+01 -7.308299e+01 -6.562848e+01 -7.538026e+01 -6.855593e+01 -7.728053e+01 -7.118753e+01 -7.877883e+01 -7.351175e+01 -7.987638e+01 -7.552100e+01 -8.057974e+01 -7.721077e+01 -8.089964e+01 -7.857863e+01 -8.084975e+01 -7.962323e+01 -8.044533e+01 -8.034341e+01 -7.970205e+01 -8.073750e+01 -7.863503e+01 -8.080287e+01 -7.725810e+01 -8.053591e+01 -7.558350e+01 -7.993220e+01 -7.362189e+01 -7.898711e+01 -7.138271e+01 -7.769661e+01 -6.887481e+01 -7.605816e+01 -6.610729e+01 -7.407171e+01 -6.309037e+01 -7.174069e+01 -5.983634e+01 -6.907278e+01 -5.636028e+01 -6.608057e+01 -5.268081e+01 -6.278197e+01 -4.882045e+01 -5.920035e+01 -4.480590e+01 -5.536457e+01 -4.066805e+01 -5.130866e+01 -3.644182e+01 -4.707146e+01 -3.216581e+01 -4.269605e+01 -2.788186e+01 -3.822915e+01 -2.363444e+01 -3.372041e+01 -1.947003e+01 -2.922157e+01 -1.543634e+01 -2.478570e+01 -1.158146e+01 -2.046621e+01 -7.952965e+00 -1.631592e+01 -4.596990e+00 -1.238605e+01 -1.557222e+00 -8.725255e+00 1.126029e+00 -5.378640e+00 3.416722e+00 -2.386913e+00 5.283851e+00 2.143498e-01 6.702066e+00 2.395272e+00 7.652121e+00 4.132064e+00 8.121124e+00 5.407219e+00 8.102613e+00 6.209533e+00 7.596459e+00 6.533976e+00 6.608639e+00 6.381430e+00 5.150895e+00 5.758346e+00 3.240343e+00 4.676345e+00 8.990369e-01 3.151800e+00 -1.846457e+00 1.205416e+00 -4.965472e+00 -1.138151e+00 -8.423623e+00 -3.850658e+00 -1.218314e+01 -6.900590e+00 
-7.326398e+00 -1.636072e+00 -1.125283e+01 -4.936929e+00 -1.529306e+01 -8.405186e+00 -1.939898e+01 -1.199899e+01 -2.352134e+01 -1.567536e+01 -2.761030e+01 -1.939069e+01 -3.161616e+01 -2.310142e+01 -3.549010e+01 -2.676473e+01 -3.918512e+01 -3.033937e+01 -4.265705e+01 -3.378657e+01 -4.586564e+01 -3.707090e+01 -4.877561e+01 -4.016122e+01 -5.135772e+01 -4.303139e+01 -5.358956e+01 -4.566088e+01 -5.545625e+01 -4.803512e+01 -5.695068e+01 -5.014547e+01 -5.807345e+01 -5.198887e+01 -5.883229e+01 -5.356713e+01 -5.924123e+01 -5.488584e+01 -5.931918e+01 -5.595309e+01 -5.908846e+01 -5.677804e+01 -5.857304e+01 -5.736946e+01 -5.779686e+01 -5.773442e+01 -5.678227e+01 -5.787733e+01 -5.554881e+01 -5.779927e+01 -5.411235e+01 -5.749780e+01 -5.248473e+01 -5.696727e+01 -5.067386e+01 -5.619943e+01 -4.868425e+01 -5.518453e+01 -4.651791e+01 -5.391248e+01 -4.417554e+01 -5.237424e+01 -4.165774e+01 -5.056316e+01 -3.896632e+01 -4.847613e+01 -3.610550e+01 -4.611465e+01 -3.308288e+01 -4.348555e+01 -2.991022e+01 -4.060150e+01 -2.660395e+01 -3.748119e+01 -2.318538e+01 -3.414928e+01 -1.968071e+01 -3.063615e+01 -1.612075e+01 -2.697740e+01 -1.254053e+01 -2.321326e+01 -8.978742e+00 -1.938787e+01 -5.477001e+00 -1.554848e+01 -2.079053e+00 -1.174447e+01 1.170137e+00 -8.026411e+00 4.225394e+00 -4.444957e+00 7.042389e+00 -1.049757e+00 9.578732e+00 2.111676e+00 1.179505e+01 4.995043e+00 1.365599e+01 7.560248e+00 1.513112e+01 9.772248e+00 1.619562e+01 1.160172e+01 1.683089e+01 1.302552e+01 1.702476e+01 1.402698e+01 1.677174e+01 1.459590e+01 1.607281e+01 1.472849e+01 1.493529e+01 1.442710e+01 1.337245e+01 1.369982e+01 1.140304e+01 1.256005e+01 9.050879e+00 1.102607e+01 6.344295e+00 9.120509e+00 3.315696e+00 6.869946e+00 1.101402e-03 4.304434e+00 -3.560272e+00 1.457133e+00 
-1.567084e+01 -9.599144e+00 -2.002206e+01 -1.331593e+01 -2.454924e+01 -1.726389e+01 -2.920315e+01 -2.140033e+01 -3.393264e+01 -2.568060e+01 -3.868511e+01 -3.005855e+01 -4.340701e+01 -3.448699e+01 -4.804458e+01 -3.891831e+01 -5.254470e+01 -4.330527e+01 -5.685590e+01 -4.760183e+01 -6.092943e+01 -5.176414e+01 -6.472049e+01 -5.575145e+01 -6.818935e+01 -5.952704e+01 -7.130240e+01 -6.305902e+01 -7.403305e+01 -6.632086e+01 -7.636228e+01 -6.929169e+01 -7.827879e+01 -7.195621e+01 -7.977883e+01 -7.430421e+01 -8.086551e+01 -7.632989e+01 -8.154778e+01 -7.803071e+01 -8.183906e+01 -7.940625e+01 -8.175576e+01 -8.045699e+01 -8.131569e+01 -8.118316e+01 -8.053666e+01 -8.158393e+01 -7.943534e+01 -8.165685e+01 -7.802640e+01 -8.139784e+01 -7.632220e+01 -8.080139e+01 -7.433284e+01 -7.986134e+01 -7.206661e+01 -7.857178e+01 -6.953082e+01 -7.692818e+01 -6.673279e+01 -7.492858e+01 -6.368090e+01 -7.257468e+01 -6.038572e+01 -6.987276e+01 -5.686090e+01 -6.683447e+01 -5.312397e+01 -6.347720e+01 -4.919679e+01 -5.982428e+01 -4.510583e+01 -5.590496e+01 -4.088221e+01 -5.175406e+01 -3.656144e+01 -4.741152e+01 -3.218309e+01 -4.292187e+01 -2.779029e+01 -3.833346e+01 -2.342909e+01 -3.369783e+01 -1.914780e+01 -2.906882e+01 -1.499616e+01 -2.450174e+01 -1.102450e+01 -2.005240e+01 -7.282756e+00 -1.577609e+01 -3.819442e+00 -1.172646e+01 -6.805722e-01 -7.954513e+00 2.091390e+00 -4.507448e+00 4.458522e+00 -1.427768e+00 6.388296e+00 1.247551e+00 7.854264e+00 3.487670e+00 8.836523e+00 5.268278e+00 9.321964e+00 6.571770e+00 9.304304e+00 7.387216e+00 8.783923e+00 7.710159e+00 7.767558e+00 7.542275e+00 6.267883e+00 6.890949e+00 4.303029e+00 5.768803e+00 1.896093e+00 4.193214e+00 -9.253490e-01 2.185855e+00 -4.129675e+00 -2.277192e-01 -7.681609e+00 -3.018431e+00 -1.154255e+01 -6.153988e+00 
-6.859929e+00 -1.027474e+00 -1.092355e+01 -4.446873e+00 -1.510544e+01 -8.038106e+00 -1.935596e+01 -1.175787e+01 -2.362406e+01 -1.556153e+01 -2.785788e+01 -1.940363e+01 -3.200538e+01 -2.323852e+01 -3.601517e+01 -2.702109e+01 -3.983745e+01 -3.070773e+01 -4.342516e+01 -3.425725e+01 -4.673521e+01 -3.763202e+01 -4.972973e+01 -4.079896e+01 -5.237732e+01 -4.373054e+01 -5.465411e+01 -4.640554e+01 -5.654459e+01 -4.880949e+01 -5.804201e+01 -5.093478e+01 -5.914839e+01 -5.278023e+01 -5.987391e+01 -5.435032e+01 -6.023588e+01 -5.565389e+01 -6.025719e+01 -5.670257e+01 -5.996443e+01 -5.750899e+01 -5.938582e+01 -5.808507e+01 -5.854918e+01 -5.844034e+01 -5.748003e+01 -5.858075e+01 -5.620012e+01 -5.850788e+01 -5.472640e+01 -5.821872e+01 -5.307068e+01 -5.770604e+01 -5.123976e+01 -5.695922e+01 -4.923613e+01 -5.596554e+01 -4.705916e+01 -5.471167e+01 -4.470645e+01 -5.318527e+01 -4.217544e+01 -5.137660e+01 -3.946493e+01 -4.927990e+01 -3.657644e+01 -4.689454e+01 -3.351543e+01 -4.422592e+01 -3.029213e+01 -4.128592e+01 -2.692211e+01 -3.809314e+01 -2.342649e+01 -3.467278e+01 -1.983188e+01 -3.105631e+01 -1.617012e+01 -2.728089e+01 -1.247774e+01 -2.338874e+01 -8.795342e+00 -1.942636e+01 -5.166870e+00 -1.544362e+01 -1.638707e+00 -1.149283e+01 1.741291e+00 -7.627669e+00 4.924879e+00 -3.902010e+00 7.864597e+00 -3.687184e-01 1.051499e+01 2.921607e+00 1.283381e+01 5.921852e+00 1.478319e+01 8.589495e+00 1.633060e+01 1.088756e+01 1.744970e+01 1.278534e+01 1.812087e+01 1.425890e+01 1.833158e+01 1.529128e+01 1.807640e+01 1.587255e+01 1.735692e+01 1.599956e+01 1.618136e+01 1.567561e+01 1.456414e+01 1.490996e+01 1.252534e+01 1.371732e+01 1.009015e+01 1.211731e+01 7.288293e+00 1.013389e+01 4.153503e+00 7.794922e+00 7.230939e-01 5.131689e+00 -2.962471e+00 2.178536e+00 
-1.491732e+01 -8.675015e+00 -1.942976e+01 -1.253050e+01 -2.412544e+01 -1.662442e+01 -2.895371e+01 -2.091284e+01 -3.386177e+01 -2.534962e+01 -3.879497e+01 -2.988683e+01 -4.369735e+01 -3.447516e+01 -4.851236e+01 -3.906461e+01 -5.318374e+01 -4.360527e+01 -5.765660e+01 -4.804833e+01 -6.187876e+01 -5.234715e+01 -6.580204e+01 -5.645843e+01 -6.938373e+01 -6.034332e+01 -7.258788e+01 -6.396845e+01 -7.538639e+01 -6.730661e+01 -7.775977e+01 -7.033717e+01 -7.969741e+01 -7.304603e+01 -8.119739e+01 -7.542503e+01 -8.226567e+01 -7.747106e+01 -8.291482e+01 -7.918469e+01 -8.316235e+01 -8.056861e+01 -8.302884e+01 -8.162610e+01 -8.253598e+01 -8.235957e+01 -8.170482e+01 -8.276947e+01 -8.055432e+01 -8.285363e+01 -7.910039e+01 -8.260719e+01 -7.735549e+01 -8.202301e+01 -7.532877e+01 -8.109249e+01 -7.302673e+01 -7.980689e+01 -7.045426e+01 -7.815865e+01 -6.761592e+01 -7.614291e+01 -6.451732e+01 -7.375878e+01 -6.116645e+01 -7.101052e+01 -5.757479e+01 -6.790834e+01 -5.375826e+01 -6.446891e+01 -4.973777e+01 -6.071557e+01 -4.553949e+01 -5.667815e+01 -4.119487e+01 -5.239264e+01 -3.674033e+01 -4.790062e+01 -3.221686e+01 -4.324864e+01 -2.766942e+01 -3.848743e+01 -2.314632e+01 -3.367118e+01 -1.869846e+01 -2.885671e+01 -1.437853e+01 -2.410255e+01 -1.024005e+01 -1.946793e+01 -6.336386e+00 -1.501173e+01 -2.719514e+00 -1.079116e+01 5.611407e-01 -6.860616e+00 3.459955e+00 -3.270392e+00 5.936250e+00 -6.559761e-02 7.955291e+00 2.714774e+00 9.489052e+00 5.038518e+00 1.051673e+01 6.880629e+00 1.102496e+01 8.223434e+00 1.100779e+01 9.056480e+00 1.046645e+01 9.376223e+00 9.408828e+00 9.185563e+00 7.849025e+00 8.493297e+00 5.806688e+00 7.313531e+00 3.306438e+00 5.665111e+00 3.773103e-01 3.571098e+00 -2.947727e+00 1.058318e+00 -6.632166e+00 -1.843003e+00 -1.063627e+01 -5.099527e+00 
-6.229072e+00 -2.073218e-01 -1.047783e+01 -3.786880e+00 -1.485110e+01 -7.544407e+00 -1.929723e+01 -1.143473e+01 -2.376289e+01 -1.541107e+01 -2.819351e+01 -1.942548e+01 -3.253393e+01 -2.342946e+01 -3.672920e+01 -2.737479e+01 -4.072564e+01 -3.121446e+01 -4.447213e+01 -3.490390e+01 -4.792148e+01 -3.840220e+01 -5.103206e+01 -4.167348e+01 -5.376928e+01 -4.468809e+01 -5.610701e+01 -4.742366e+01 -5.802872e+01 -4.986579e+01 -5.952806e+01 -5.200822e+01 -6.060899e+01 -5.385250e+01 -6.128516e+01 -5.540693e+01 -6.157865e+01 -5.668510e+01 -6.151807e+01 -5.770383e+01 -6.113625e+01 -5.848094e+01 -6.046762e+01 -5.903295e+01 -5.954565e+01 -5.937303e+01 -5.840045e+01 -5.950939e+01 -5.705692e+01 -5.944432e+01 -5.553357e+01 -5.917392e+01 -5.384202e+01 -5.868859e+01 -5.198733e+01 -5.797420e+01 -4.996897e+01 -5.701366e+01 -4.778233e+01 -5.578891e+01 -4.542054e+01 -5.428286e+01 -4.287642e+01 -5.248136e+01 -4.014440e+01 -5.037485e+01 -3.722220e+01 -4.795979e+01 -3.411223e+01 -4.523954e+01 -3.082263e+01 -4.222499e+01 -2.736780e+01 -3.893468e+01 -2.376867e+01 -3.539463e+01 -2.005253e+01 -3.163785e+01 -1.625263e+01 -2.770371e+01 -1.240761e+01 -2.363718e+01 -8.560736e+00 -1.948794e+01 -4.759131e+00 -1.530948e+01 -1.052798e+00 -1.115810e+01 2.506412e+00 -7.091768e+00 5.865996e+00 -3.168817e+00 8.974124e+00 5.533996e-01 1.178104e+01 4.019966e+00 1.424047e+01 7.179823e+00 1.631101e+01 9.987070e+00 1.795723e+01 1.240206e+01 1.915065e+01 1.439221e+01 1.987038e+01 1.593254e+01 2.010339e+01 1.700585e+01 1.984453e+01 1.760262e+01 1.909626e+01 1.772072e+01 1.786819e+01 1.736488e+01 1.617645e+01 1.654607e+01 1.404299e+01 1.528085e+01 1.149494e+01 1.359072e+01 8.563935e+00 1.150146e+01 5.285516e+00 9.042663e+00 1.698697e+00 6.247233e+00 -2.154446e+00 3.151051e+00 
-1.393429e+01 -7.472858e+00 -1.865622e+01 -1.150864e+01 -2.357106e+01 -1.579250e+01 -2.862651e+01 -2.027898e+01 -3.376771e+01 -2.492014e+01 -3.893747e+01 -2.966576e+01 -4.407674e+01 -3.446382e+01 -4.912528e+01 -3.926111e+01 -5.402259e+01 -4.400414e+01 -5.870919e+01 -4.864024e+01 -6.312807e+01 -5.311889e+01 -6.722637e+01 -5.739315e+01 -7.095713e+01 -6.142113e+01 -7.428097e+01 -6.516723e+01 -7.716758e+01 -6.860323e+01 -7.959670e+01 -7.170879e+01 -8.155865e+01 -7.447147e+01 -8.305404e+01 -7.688608e+01 -8.409286e+01 -7.895344e+01 -8.469287e+01 -8.067862e+01 -8.487746e+01 -8.206891e+01 -8.467317e+01 -8.313170e+01 -8.410724e+01 -8.387256e+01 -8.320531e+01 -8.429381e+01 -8.198957e+01 -8.439366e+01 -8.047757e+01 -8.416610e+01 -7.868177e+01 -8.360150e+01 -7.660984e+01 -8.268780e+01 -7.426555e+01 -8.141210e+01 -7.165024e+01 -7.976254e+01 -6.876450e+01 -7.773012e+01 -6.560993e+01 -7.531037e+01 -6.219087e+01 -7.250471e+01 -5.851579e+01 -6.932145e+01 -5.459839e+01 -6.577635e+01 -5.045831e+01 -6.189277e+01 -4.612139e+01 -5.770144e+01 -4.161957e+01 -5.324000e+01 -3.699056e+01 -4.855225e+01 -3.227725e+01 -4.368743e+01 -2.752707e+01 -3.869937e+01 -2.279127e+01 -3.364574e+01 -1.812416e+01 -2.858723e+01 -1.358230e+01 -2.358658e+01 -9.223496e+00 -1.870764e+01 -5.105678e+00 -1.401405e+01 -1.285564e+00 -9.567887e+00 2.182773e+00 -5.428178e+00 5.249379e+00 -1.649434e+00 7.869815e+00 1.719693e+00 1.000635e+01 4.637501e+00 1.162887e+01 7.070014e+00 1.271544e+01 8.991394e+00 1.325248e+01 1.038401e+01 1.323464e+01 1.123821e+01 1.266439e+01 1.155182e+01 1.155139e+01 1.132952e+01 9.911729e+00 1.058211e+01 7.767183e+00 9.325760e+00 5.144456e+00 7.581311e+00 2.074530e+00 5.373669e+00 -1.407875e+00 2.731306e+00 -5.264705e+00 -3.141099e-01 -9.454846e+00 -3.727968e+00 
-5.426002e+00 8.320045e-01 -9.909653e+00 -2.951031e+00 -1.452602e+01 -6.920085e+00 -1.922114e+01 -1.102778e+01 -2.393892e+01 -1.522472e+01 -2.862146e+01 -1.945986e+01 -3.320967e+01 -2.368110e+01 -3.764401e+01 -2.783607e+01 -4.186569e+01 -3.187331e+01 -4.581808e+01 -3.574358e+01 -4.944844e+01 -3.940144e+01 -5.270985e+01 -4.280699e+01 -5.556318e+01 -4.592747e+01 -5.797901e+01 -4.873874e+01 -5.993910e+01 -5.122625e+01 -6.143745e+01 -5.338549e+01 -6.248056e+01 -5.522161e+01 -6.308673e+01 -5.674829e+01 -6.328460e+01 -5.798574e+01 -6.311077e+01 -5.895813e+01 -6.260677e+01 -5.969061e+01 -6.181575e+01 -6.020628e+01 -6.077906e+01 -6.052348e+01 -5.953320e+01 -6.065360e+01 -5.810744e+01 -6.059985e+01 -5.652225e+01 -6.035699e+01 -5.478884e+01 -5.991201e+01 -5.290965e+01 -5.924573e+01 -5.087973e+01 -5.833492e+01 -4.868881e+01 -5.715489e+01 -4.632370e+01 -5.568199e+01 -4.377080e+01 -5.389605e+01 -4.101854e+01 -5.178245e+01 -3.805948e+01 -4.933371e+01 -3.489199e+01 -4.655063e+01 -3.152142e+01 -4.344286e+01 -2.796081e+01 -4.002902e+01 -2.423094e+01 -3.633634e+01 -2.036010e+01 -3.239998e+01 -1.638353e+01 -2.826224e+01 -1.234262e+01 -2.397163e+01 -8.284126e+00 -1.958195e+01 -4.259265e+00 -1.515132e+01 -3.227270e-01 -1.074118e+01 3.468437e+00 -6.415065e+00 7.056128e+00 -2.237177e+00 1.038272e+01 1.729180e+00 1.339271e+01 5.423335e+00 1.603446e+01 8.788969e+00 1.826181e+01 1.177569e+01 2.003552e+01 1.434036e+01 2.132434e+01 1.644801e+01 2.210577e+01 1.807241e+01 2.236630e+01 1.919619e+01 2.210132e+01 1.981060e+01 2.131465e+01 1.991503e+01 2.001789e+01 1.951625e+01 1.822956e+01 1.862762e+01 1.597422e+01 1.726821e+01 1.328156e+01 1.546201e+01 1.018569e+01 1.323717e+01 6.724472e+00 1.062547e+01 2.939002e+00 7.661804e+00 -1.126715e+00 4.383876e+00 
-1.271087e+01 -5.981989e+00 -1.769200e+01 -1.024101e+01 -2.287837e+01 -1.476033e+01 -2.821591e+01 -1.949285e+01 -3.364743e+01 -2.438855e+01 -3.911276e+01 -2.939453e+01 -4.454908e+01 -3.445542e+01 -4.989150e+01 -3.951393e+01 -5.507414e+01 -4.451191e+01 -6.003142e+01 -4.939155e+01 -6.469993e+01 -5.409707e+01 -6.902038e+01 -5.857651e+01 -7.293993e+01 -6.278364e+01 -7.641440e+01 -6.667971e+01 -7.941022e+01 -7.023491e+01 -8.190594e+01 -7.342919e+01 -8.389296e+01 -7.625240e+01 -8.537534e+01 -7.870346e+01 -8.636863e+01 -8.078878e+01 -8.689781e+01 -8.251986e+01 -8.699442e+01 -8.391056e+01 -8.669339e+01 -8.497415e+01 -8.602966e+01 -8.572073e+01 -8.503518e+01 -8.615526e+01 -8.373654e+01 -8.627641e+01 -8.215338e+01 -8.607648e+01 -8.029795e+01 -8.554225e+01 -7.817558e+01 -8.465665e+01 -7.578606e+01 -8.340099e+01 -7.312561e+01 -8.175739e+01 -7.018920e+01 -7.971120e+01 -6.697289e+01 -7.725308e+01 -6.347601e+01 -7.438072e+01 -5.970297e+01 -7.109997e+01 -5.566457e+01 -6.742550e+01 -5.137884e+01 -6.338083e+01 -4.687130e+01 -5.899805e+01 -4.217470e+01 -5.431702e+01 -3.732850e+01 -4.938448e+01 -3.237808e+01 -4.425309e+01 -2.737399e+01 -3.898055e+01 -2.237115e+01 -3.362881e+01 -1.742814e+01 -2.826331e+01 -1.260634e+01 -2.295212e+01 -7.969006e+00 -1.776490e+01 -3.579994e+00 -1.277150e+01 4.977851e-01 -8.040350e+00 4.204105e+00 -3.636625e+00 7.483271e+00 3.796041e-01 1.028587e+01 3.955034e+00 1.257026e+01 7.044477e+00 1.430368e+01 9.611758e+00 1.546285e+01 1.163014e+01 1.603411e+01 1.308228e+01 1.601317e+01 1.395980e+01 1.540435e+01 1.426255e+01 1.421980e+01 1.399773e+01 1.247841e+01 1.317889e+01 1.020482e+01 1.182496e+01 7.428475e+00 9.959402e+00 4.182855e+00 7.609474e+00 5.048415e-01 4.805672e+00 -3.565679e+00 1.581363e+00 -7.986041e+00 -2.027413e+00 
-4.440690e+00 2.100247e+00 -9.211045e+00 -1.931569e+00 -1.412462e+01 -6.159656e+00 -1.912494e+01 -1.053420e+01 -2.415279e+01 -1.500284e+01 -2.914641e+01 -1.951085e+01 -3.404194e+01 -2.400169e+01 -3.877415e+01 -2.841780e+01 -4.327772e+01 -3.270190e+01 -4.748884e+01 -3.679853e+01 -5.134731e+01 -4.065612e+01 -5.479899e+01 -4.422911e+01 -5.779840e+01 -4.748027e+01 -6.031126e+01 -5.038265e+01 -6.231672e+01 -5.292119e+01 -6.380886e+01 -5.509344e+01 -6.479726e+01 -5.690931e+01 -6.530640e+01 -5.838970e+01 -6.537375e+01 -5.956395e+01 -6.504677e+01 -6.046643e+01 -6.437895e+01 -6.113255e+01 -6.342540e+01 -6.159463e+01 -6.223833e+01 -6.187817e+01 -6.086297e+01 -6.199898e+01 -5.933441e+01 -6.196147e+01 -5.767563e+01 -6.175836e+01 -5.589696e+01 -6.137174e+01 -5.399690e+01 -6.077531e+01 -5.196417e+01 -5.993731e+01 -4.978056e+01 -5.882400e+01 -4.742414e+01 -5.740288e+01 -4.487261e+01 -5.564583e+01 -4.210637e+01 -5.353154e+01 -3.911115e+01 -5.104755e+01 -3.588009e+01 -4.819144e+01 -3.241514e+01 -4.497152e+01 -2.872770e+01 -4.140677e+01 -2.483866e+01 -3.752619e+01 -2.077782e+01 -3.336788e+01 -1.658308e+01 -2.897794e+01 -1.229941e+01 -2.440930e+01 -7.977909e+00 -1.972082e+01 -3.674851e+00 -1.497630e+01 5.492547e-01 -1.024354e+01 4.630827e+00 -5.593043e+00 8.504637e+00 -1.096522e+00 1.210557e+01 3.175033e+00 1.537067e+01 7.153459e+00 1.824124e+01 1.077558e+01 2.066495e+01 1.398521e+01 2.259763e+01 1.673474e+01 2.400456e+01 1.898628e+01 2.486134e+01 2.071223e+01 2.515408e+01 2.189526e+01 2.487916e+01 2.252794e+01 2.404247e+01 2.261186e+01 2.265844e+01 2.215670e+01 2.074888e+01 2.117905e+01 1.834179e+01 1.970131e+01 1.547025e+01 1.775069e+01 1.217149e+01 1.535831e+01 8.486161e+00 1.255860e+01 4.457829e+00 9.388772e+00 1.326588e-01 5.888585e+00 
-1.123347e+01 -4.189146e+00 -1.652505e+01 -8.715749e+00 -2.203722e+01 -1.351774e+01 -2.771414e+01 -1.854644e+01 -3.349623e+01 -2.374962e+01 -3.932000e+01 -2.907137e+01 -4.511822e+01 -3.445234e+01 -5.082043e+01 -3.983025e+01 -5.635395e+01 -4.514098e+01 -6.164542e+01 -5.032005e+01 -6.662297e+01 -5.530464e+01 -7.121873e+01 -6.003591e+01 -7.537179e+01 -6.446159e+01 -7.903121e+01 -6.853838e+01 -8.215873e+01 -7.223403e+01 -8.473098e+01 -7.552871e+01 -8.674062e+01 -7.841525e+01 -8.819624e+01 -8.089826e+01 -8.912098e+01 -8.299197e+01 -8.954968e+01 -8.471699e+01 -8.952518e+01 -8.609646e+01 -8.909393e+01 -8.715204e+01 -8.830149e+01 -8.790021e+01 -8.718846e+01 -8.834959e+01 -8.578724e+01 -8.849941e+01 -8.412009e+01 -8.833942e+01 -8.219859e+01 -8.785125e+01 -8.002447e+01 -8.701073e+01 -7.759169e+01 -8.579107e+01 -7.488921e+01 -8.416615e+01 -7.190421e+01 -8.211370e+01 -6.862515e+01 -7.961799e+01 -6.504466e+01 -7.667185e+01 -6.116178e+01 -7.327809e+01 -5.698363e+01 -6.945014e+01 -5.252634e+01 -6.521204e+01 -4.781522e+01 -6.059783e+01 -4.288432e+01 -5.565045e+01 -3.777551e+01 -5.042044e+01 -3.253741e+01 -4.496473e+01 -2.722440e+01 -3.934564e+01 -2.189580e+01 -3.363012e+01 -1.661521e+01 -2.788924e+01 -1.144987e+01 -2.219746e+01 -6.469752e+00 -1.663165e+01 -1.746177e+00 -1.126955e+01 2.649957e+00 -6.187781e+00 6.650406e+00 -1.459527e+00 1.019196e+01 2.847882e+00 1.321873e+01 6.675137e+00 1.568404e+01 9.972652e+00 1.755187e+01 1.270163e+01 1.879744e+01 1.483448e+01 1.940735e+01 1.635458e+01 1.937897e+01 1.725556e+01 1.871943e+01 1.754020e+01 1.744435e+01 1.721920e+01 1.557646e+01 1.630983e+01 1.314420e+01 1.483468e+01 1.018058e+01 1.282054e+01 6.722158e+00 1.029760e+01 2.808418e+00 7.298754e+00 -1.518694e+00 3.859270e+00 -6.214891e+00 1.668035e-02 
-3.260757e+00 3.609414e+00 -8.371839e+00 -7.186300e-01 -1.363933e+01 -5.255770e+00 -1.900424e+01 -9.949724e+00 -2.440409e+01 -1.474492e+01 -2.977281e+01 -1.958248e+01 -3.504100e+01 -2.440059e+01 -4.013657e+01 -2.913530e+01 -4.498601e+01 -3.372188e+01 -4.951628e+01 -3.809676e+01 -5.365735e+01 -4.220004e+01 -5.734531e+01 -4.597836e+01 -6.052580e+01 -4.938798e+01 -6.315753e+01 -5.239768e+01 -6.521551e+01 -5.499109e+01 -6.669333e+01 -5.716808e+01 -6.760429e+01 -5.894466e+01 -6.798081e+01 -6.035136e+01 -6.787213e+01 -6.142999e+01 -6.734040e+01 -6.222901e+01 -6.645538e+01 -6.279806e+01 -6.528852e+01 -6.318228e+01 -6.390686e+01 -6.341717e+01 -6.236746e+01 -6.352454e+01 -6.071315e+01 -6.351028e+01 -5.896997e+01 -6.336405e+01 -5.714654e+01 -6.306089e+01 -5.523552e+01 -6.256446e+01 -5.321658e+01 -6.183128e+01 -5.106041e+01 -6.081531e+01 -4.873320e+01 -5.947235e+01 -4.620097e+01 -5.776387e+01 -4.343354e+01 -5.566003e+01 -4.040781e+01 -5.314209e+01 -3.711029e+01 -5.020383e+01 -3.353881e+01 -4.685220e+01 -2.970312e+01 -4.310705e+01 -2.562467e+01 -3.900010e+01 -2.133560e+01 -3.457345e+01 -1.687739e+01 -2.987800e+01 -1.229952e+01 -2.497211e+01 -7.658325e+00 -1.992059e+01 -3.016123e+00 -1.479394e+01 1.559618e+00 -9.667511e+00 5.997338e+00 -4.620411e+00 1.022290e+01 2.662596e-01 1.416167e+01 4.911680e+00 1.774103e+01 9.238015e+00 2.089318e+01 1.317324e+01 2.355783e+01 1.665371e+01 2.568449e+01 1.962625e+01 2.723417e+01 2.204950e+01 2.818034e+01 2.389443e+01 2.850903e+01 2.514423e+01 2.821829e+01 2.579354e+01 2.731711e+01 2.584723e+01 2.582392e+01 2.531898e+01 2.376500e+01 2.422974e+01 2.117290e+01 2.260626e+01 1.808503e+01 2.047985e+01 1.454249e+01 1.788528e+01 1.058925e+01 1.486008e+01 6.271628e+00 1.144406e+01 1.638082e+00 7.679141e+00 