# vtk DataFile Version 2.0
Comment goes here
ASCII

DATASET STRUCTURED_POINTS
FIELD FieldData 1
TIME 1 1 double
0.21000000
DIMENSIONS    128   128   1

ORIGIN    0.000   0.000   0.000
SPACING   0.039062 0.039062   1.000

POINT_DATA   16384
SCALARS P double
LOOKUP_TABLE default

-7.452062e+00 -7.160936e+00 -7.692867e+00 -7.414027e+00 -7.896592e+00 -7.630132e+00 -8.059539e+00 -7.805158e+00 -8.177917e+00 -7.935033e+00 -8.247966e+00 -8.015825e+00 -8.266088e+00 -8.043876e+00 -8.228996e+00 -8.015941e+00 -8.133856e+00 -7.929336e+00 -7.978442e+00 -7.782073e+00 -7.761280e+00 -7.572995e+00 -7.481772e+00 -7.301893e+00 -7.140313e+00 -6.969597e+00 -6.738369e+00 -6.578040e+00 -6.278531e+00 -6.130291e+00 -5.764531e+00 -5.630544e+00 -5.201213e+00 -5.084077e+00 -4.594478e+00 -4.497171e+00 -3.951188e+00 -3.876994e+00 -3.279041e+00 -3.231465e+00 -2.586424e+00 -2.569094e+00 -1.882255e+00 -1.898804e+00 -1.175800e+00 -1.229750e+00 -4.765068e-01 -5.711359e-01 2.061804e-01 6.796962e-02 8.629871e-01 6.788053e-01 1.484974e+00 1.253083e+00 2.063695e+00 1.783141e+00 2.591339e+00 2.262080e+00 3.060866e+00 2.683890e+00 3.466137e+00 3.043550e+00 3.802018e+00 3.337119e+00 4.064485e+00 3.561798e+00 4.250704e+00 3.715974e+00 4.359093e+00 3.799231e+00 4.389363e+00 3.812343e+00 4.342529e+00 3.757228e+00 4.220889e+00 3.636875e+00 4.027970e+00 3.455239e+00 3.768431e+00 3.217107e+00 3.447938e+00 2.927940e+00 3.072990e+00 2.593690e+00 2.650721e+00 2.220601e+00 2.188674e+00 1.815014e+00 1.694559e+00 1.383167e+00 1.176010e+00 9.310151e-01 6.403507e-01 4.640737e-01 9.439101e-02 -1.270013e-02 -4.557451e-01 -4.949861e-01 -1.004735e+00 -9.791328e-01 -1.548120e+00 -1.462144e+00 -2.082308e+00 -1.941624e+00 -2.604520e+00 -2.415683e+00 -3.112690e+00 -2.882825e+00 -3.605327e+00 -3.341813e+00 -4.081360e+00 -3.791531e+00 -4.539963e+00 -4.230860e+00 -4.980394e+00 -4.658551e+00 -5.401843e+00 -5.073135e+00 -5.803306e+00 -5.472843e+00 -6.183486e+00 -5.855554e+00 -6.540720e+00 -6.218773e+00 -6.872944e+00 -6.559620e+00 -7.177682e+00 -6.874861e+00 
-7.444390e+00 -7.100487e+00 -7.683669e+00 -7.350787e+00 -7.885444e+00 -7.563810e+00 -8.046041e+00 -7.735502e+00 -8.161695e+00 -7.861828e+00 -8.228670e+00 -7.938893e+00 -8.243394e+00 -7.963075e+00 -8.202608e+00 -7.931170e+00 -8.103509e+00 -7.840532e+00 -7.943904e+00 -7.689214e+00 -7.722354e+00 -7.476104e+00 -7.438302e+00 -7.201034e+00 -7.092184e+00 -6.864879e+00 -6.685513e+00 -6.469617e+00 -6.220926e+00 -6.018357e+00 -5.702197e+00 -5.515332e+00 -5.134215e+00 -4.965852e+00 -4.522922e+00 -4.376224e+00 -3.875213e+00 -3.753634e+00 -3.198815e+00 -3.106010e+00 -2.502139e+00 -2.441860e+00 -1.794115e+00 -1.770099e+00 -1.084019e+00 -1.099864e+00 -3.813001e-01 -4.403332e-01 3.045979e-01 1.994530e-01 9.644037e-01 8.107651e-01 1.589182e+00 1.385346e+00 2.170484e+00 1.915561e+00 2.700495e+00 2.394534e+00 3.172163e+00 2.816264e+00 3.579324e+00 3.175736e+00 3.916812e+00 3.468997e+00 4.180560e+00 3.693228e+00 4.367681e+00 3.846783e+00 4.476533e+00 3.929205e+00 4.506762e+00 3.941221e+00 4.459316e+00 3.884695e+00 4.336430e+00 3.762569e+00 4.141577e+00 3.578752e+00 3.879378e+00 3.337998e+00 3.555476e+00 3.045750e+00 3.176371e+00 2.707956e+00 2.749227e+00 2.330882e+00 2.281640e+00 1.920910e+00 1.781404e+00 1.484341e+00 1.256260e+00 1.027210e+00 7.136614e-01 5.551313e-01 1.605583e-01 7.316962e-02 -3.967757e-01 -4.142412e-01 -9.528699e-01 -9.033370e-01 -1.503126e+00 -1.391015e+00 -2.043826e+00 -1.874783e+00 -2.572084e+00 -2.352670e+00 -3.085753e+00 -2.823117e+00 -3.583282e+00 -3.284841e+00 -4.063560e+00 -3.736700e+00 -4.525744e+00 -4.177561e+00 -4.969092e+00 -4.606184e+00 -5.392805e+00 -5.021113e+00 -5.795901e+00 -5.420606e+00 -6.177111e+00 -5.802575e+00 -6.534801e+00 -6.164560e+00 -6.866941e+00 -6.503725e+00 -7.171084e+00 -6.816873e+00 
-7.469383e+00 -7.177985e+00 -7.711989e+00 -7.433121e+00 -7.917600e+00 -7.651300e+00 -8.082461e+00 -7.828372e+00 -8.202719e+00 -7.960202e+00 -8.274545e+00 -8.042792e+00 -8.294270e+00 -8.072413e+00 -8.258534e+00 -8.045755e+00 -8.164434e+00 -7.960066e+00 -8.009677e+00 -7.813297e+00 -7.792727e+00 -7.604240e+00 -7.512941e+00 -7.332646e+00 -7.170676e+00 -6.999317e+00 -6.767379e+00 -6.606177e+00 -6.305637e+00 -6.156301e+00 -5.789194e+00 -5.653905e+00 -5.222925e+00 -5.104307e+00 -4.612777e+00 -4.513841e+00 -3.965669e+00 -3.889741e+00 -3.289369e+00 -3.240004e+00 -2.592343e+00 -2.573220e+00 -1.883588e+00 -1.898401e+00 -1.172457e+00 -1.224789e+00 -4.684815e-01 -5.616763e-01 2.188102e-01 8.178165e-02 8.800627e-01 6.967425e-01 1.506260e+00 1.274842e+00 2.088881e+00 1.808348e+00 2.620047e+00 2.290300e+00 3.092655e+00 2.714633e+00 3.500507e+00 3.076281e+00 3.838420e+00 3.371269e+00 4.102325e+00 3.596777e+00 4.289358e+00 3.751183e+00 4.397914e+00 3.834076e+00 4.427700e+00 3.846252e+00 4.379738e+00 3.789663e+00 4.256356e+00 3.667352e+00 4.061124e+00 3.483339e+00 3.798771e+00 3.242494e+00 3.475044e+00 2.950368e+00 3.096543e+00 2.613008e+00 2.670517e+00 2.236762e+00 2.204627e+00 1.828069e+00 1.706707e+00 1.393257e+00 1.184507e+00 9.383585e-01 6.454555e-01 4.689499e-01 9.644451e-02 -9.973266e-03 -4.563423e-01 -4.940748e-01 -1.007552e+00 -9.797108e-01 -1.552726e+00 -1.463914e+00 -2.088298e+00 -1.944335e+00 -2.611542e+00 -2.419144e+00 -3.120460e+00 -2.886912e+00 -3.613646e+00 -3.346471e+00 -4.090110e+00 -3.796774e+00 -4.549112e+00 -4.236758e+00 -4.989985e+00 -4.665227e+00 -5.411983e+00 -5.080748e+00 -5.814152e+00 -5.481575e+00 -6.195226e+00 -5.865600e+00 -6.553561e+00 -6.230326e+00 -6.887092e+00 -6.572861e+00 -7.193331e+00 -6.889945e+00 
-7.479486e+00 -7.134918e+00 -7.722343e+00 -7.389270e+00 -7.927865e+00 -7.606404e+00 -8.092266e+00 -7.782151e+00 -8.211654e+00 -7.912350e+00 -8.282157e+00 -7.992973e+00 -8.300060e+00 -8.020259e+00 -8.261957e+00 -7.990868e+00 -8.164904e+00 -7.902019e+00 -8.006575e+00 -7.751647e+00 -7.785412e+00 -7.538535e+00 -7.500761e+00 -7.262436e+00 -7.152988e+00 -6.924173e+00 -6.743565e+00 -6.525704e+00 -6.275122e+00 -6.070151e+00 -5.751464e+00 -5.561795e+00 -5.177541e+00 -5.006027e+00 -4.559385e+00 -4.409260e+00 -3.904012e+00 -3.778816e+00 -3.219287e+00 -3.122774e+00 -2.513776e+00 -2.449809e+00 -1.796571e+00 -1.769005e+00 -1.077120e+00 -1.089679e+00 -3.650374e-01 -4.211807e-01 3.300666e-01 2.272792e-01 9.987617e-01 8.468112e-01 1.631960e+00 1.429009e+00 2.221069e+00 1.966100e+00 2.758138e+00 2.451084e+00 3.235990e+00 2.877858e+00 3.648346e+00 3.241315e+00 3.989940e+00 3.537436e+00 4.256619e+00 3.763358e+00 4.445427e+00 3.917414e+00 4.554680e+00 3.999157e+00 4.584005e+00 4.009350e+00 4.534366e+00 3.949927e+00 4.408049e+00 3.823928e+00 4.208613e+00 3.635393e+00 3.940805e+00 3.389232e+00 3.610433e+00 3.091064e+00 3.224196e+00 2.747033e+00 2.789480e+00 2.363604e+00 2.314126e+00 1.947356e+00 1.806173e+00 1.504775e+00 1.273600e+00 1.042054e+00 7.240730e-01 5.649328e-01 1.647184e-01 7.855906e-02 -3.980651e-01 -4.125959e-01 -9.587391e-01 -9.047771e-01 -1.512697e+00 -1.394934e+00 -2.056271e+00 -1.880665e+00 -2.586677e+00 -2.360116e+00 -3.101904e+00 -2.831860e+00 -3.600565e+00 -3.294754e+00 -4.081724e+00 -3.747792e+00 -4.544708e+00 -4.189961e+00 -4.988928e+00 -4.620122e+00 -5.413718e+00 -5.036898e+00 -5.818197e+00 -5.438597e+00 -6.201165e+00 -5.823158e+00 -6.561025e+00 -6.188119e+00 -6.895748e+00 -6.530618e+00 -7.202866e+00 -6.847413e+00 
-7.521230e+00 -7.229071e+00 -7.769291e+00 -7.490394e+00 -7.980617e+00 -7.714853e+00 -8.151284e+00 -7.898126e+00 -8.277248e+00 -8.035888e+00 -8.354476e+00 -8.123939e+00 -8.379084e+00 -8.158344e+00 -8.347489e+00 -8.135581e+00 -8.256575e+00 -8.052698e+00 -8.103845e+00 -7.907463e+00 -7.887584e+00 -7.698510e+00 -7.606998e+00 -7.425465e+00 -7.262336e+00 -7.089050e+00 -6.854982e+00 -6.691155e+00 -6.387512e+00 -6.234872e+00 -5.863710e+00 -5.724490e+00 -5.288543e+00 -5.165444e+00 -4.668095e+00 -4.564231e+00 -4.009464e+00 -3.928288e+00 -3.320630e+00 -3.265840e+00 -2.610291e+00 -2.585730e+00 -1.887694e+00 -1.897232e+00 -1.162448e+00 -1.209857e+00 -4.443411e-01 -5.331644e-01 2.568462e-01 1.234336e-01 9.315150e-01 7.508478e-01 1.570416e+00 1.340484e+00 2.164809e+00 1.884399e+00 2.706606e+00 2.375444e+00 3.188516e+00 2.807389e+00 3.604164e+00 3.175036e+00 3.948214e+00 3.474307e+00 4.216469e+00 3.702312e+00 4.405963e+00 3.857402e+00 4.515029e+00 3.939184e+00 4.543352e+00 3.948512e+00 4.491980e+00 3.887451e+00 4.363323e+00 3.759199e+00 4.161090e+00 3.567979e+00 3.890208e+00 3.318902e+00 3.556679e+00 3.017797e+00 3.167408e+00 2.671010e+00 2.729987e+00 2.285195e+00 2.252448e+00 1.867091e+00 1.742996e+00 1.423305e+00 1.209740e+00 9.601075e-01 6.604255e-01 4.832578e-01 1.022016e-01 -2.129434e-03 -4.585680e-01 -4.916707e-01 -1.016439e+00 -9.817463e-01 -1.566951e+00 -1.469479e+00 -2.106626e+00 -1.952663e+00 -2.632895e+00 -2.429654e+00 -3.143980e+00 -2.899231e+00 -3.638723e+00 -3.360440e+00 -4.116399e+00 -3.812436e+00 -4.576524e+00 -4.254340e+00 -5.018661e+00 -4.685105e+00 -5.442259e+00 -5.103411e+00 -5.846511e+00 -5.507586e+00 -6.230252e+00 -5.895557e+00 -6.591887e+00 -6.264819e+00 -6.929355e+00 -6.612441e+00 -7.240128e+00 -6.935090e+00 
-7.549447e+00 -7.203656e+00 -7.799557e+00 -7.466215e+00 -8.012688e+00 -7.691687e+00 -8.184825e+00 -7.875672e+00 -8.311821e+00 -8.013753e+00 -8.389525e+00 -8.101631e+00 -8.413932e+00 -8.135265e+00 -8.381340e+00 -8.111032e+00 -8.288514e+00 -8.025884e+00 -8.132854e+00 -7.877507e+00 -7.912561e+00 -7.664471e+00 -7.626781e+00 -7.386365e+00 -7.275735e+00 -7.043905e+00 -6.860812e+00 -6.639005e+00 -6.384630e+00 -6.174817e+00 -5.851050e+00 -5.655719e+00 -5.265150e+00 -5.087262e+00 -4.633150e+00 -4.476086e+00 -3.962307e+00 -3.829780e+00 -3.260773e+00 -3.156735e+00 -2.537425e+00 -2.465961e+00 -1.801691e+00 -1.766897e+00 -1.063358e+00 -1.069210e+00 -3.323812e-01 -3.826075e-01 3.812970e-01 2.833627e-01 1.067925e+00 9.194868e-01 1.718110e+00 1.517056e+00 2.322971e+00 2.068024e+00 2.874284e+00 2.565142e+00 3.364621e+00 3.002092e+00 3.787472e+00 3.373590e+00 4.137366e+00 3.675479e+00 4.409973e+00 3.904802e+00 4.602202e+00 4.059854e+00 4.712273e+00 4.140201e+00 4.739778e+00 4.146681e+00 4.685706e+00 4.081365e+00 4.552437e+00 3.947492e+00 4.343708e+00 3.749365e+00 4.064519e+00 3.492210e+00 3.721010e+00 3.182010e+00 3.320282e+00 2.825303e+00 2.870182e+00 2.428966e+00 2.379045e+00 1.999983e+00 1.855419e+00 1.545217e+00 1.307773e+00 1.071191e+00 7.442147e-01 5.839000e-01 1.722309e-01 8.866387e-02 -4.015207e-01 -4.099708e-01 -9.713627e-01 -9.082709e-01 -1.532676e+00 -1.403298e+00 -2.081900e+00 -1.892838e+00 -2.616462e+00 -2.375283e+00 -3.134642e+00 -2.849484e+00 -3.635396e+00 -3.314586e+00 -4.118148e+00 -3.769861e+00 -4.582577e+00 -4.214546e+00 -5.028413e+00 -4.647709e+00 -5.455258e+00 -5.068129e+00 -5.862436e+00 -5.474219e+00 -6.248886e+00 -5.863965e+00 -6.613081e+00 -6.234904e+00 -6.953001e+00 -6.584122e+00 -7.266122e+00 -6.908280e+00 
-7.607251e+00 -7.314000e+00 -7.864566e+00 -7.585807e+00 -8.085608e+00 -7.820929e+00 -8.266166e+00 -8.014752e+00 -8.401875e+00 -8.162628e+00 -8.488350e+00 -8.260016e+00 -8.521340e+00 -8.302625e+00 -8.496888e+00 -8.286577e+00 -8.411508e+00 -8.208576e+00 -8.262357e+00 -8.066073e+00 -8.047407e+00 -7.857428e+00 -7.765608e+00 -7.582053e+00 -7.417019e+00 -7.240528e+00 -7.002915e+00 -6.834686e+00 -6.525851e+00 -6.367647e+00 -5.989679e+00 -5.843819e+00 -5.399525e+00 -5.268843e+00 -4.761711e+00 -4.649494e+00 -4.083640e+00 -3.993554e+00 -3.373652e+00 -3.309641e+00 -2.640846e+00 -2.607025e+00 -1.894891e+00 -1.895427e+00 -1.145833e+00 -1.184816e+00 -4.038899e-01 -4.851976e-01 3.207314e-01 1.935779e-01 1.018023e+00 8.420074e-01 1.678347e+00 1.451109e+00 2.292592e+00 2.012586e+00 2.852326e+00 2.518971e+00 3.349935e+00 2.963759e+00 3.778752e+00 3.341522e+00 4.133178e+00 3.648006e+00 4.408795e+00 3.880206e+00 4.602465e+00 4.036422e+00 4.712407e+00 4.116284e+00 4.738261e+00 4.120748e+00 4.681117e+00 4.052060e+00 4.543514e+00 3.913680e+00 4.329394e+00 3.710178e+00 4.044014e+00 3.447077e+00 3.693810e+00 3.130676e+00 3.286205e+00 2.767834e+00 2.829384e+00 2.365736e+00 2.332013e+00 1.931639e+00 1.802946e+00 1.472632e+00 1.250910e+00 9.953970e-01 6.842031e-01 5.060126e-01 1.104232e-01 9.797935e-03 -4.637544e-01 -4.887844e-01 -1.032729e+00 -9.861613e-01 -1.592045e+00 -1.479617e+00 -2.138381e+00 -1.967204e+00 -2.669456e+00 -2.447605e+00 -3.183875e+00 -2.919962e+00 -3.680923e+00 -3.383695e+00 -4.160338e+00 -3.838314e+00 -4.622080e+00 -4.283253e+00 -5.066112e+00 -4.717722e+00 -5.492215e+00 -5.140593e+00 -5.899832e+00 -5.550316e+00 -6.287966e+00 -5.944870e+00 -6.655101e+00 -6.321742e+00 -6.999180e+00 -6.677929e+00 -7.317601e+00 -7.009971e+00 
-7.653794e+00 -7.306435e+00 -7.915031e+00 -7.581566e+00 -8.139865e+00 -7.819841e+00 -8.323931e+00 -8.016506e+00 -8.462690e+00 -8.166754e+00 -8.551564e+00 -8.265868e+00 -8.586100e+00 -8.309376e+00 -8.562137e+00 -8.293220e+00 -8.475991e+00 -8.213930e+00 -8.324636e+00 -8.068807e+00 -8.105895e+00 -7.856088e+00 -7.818601e+00 -7.575102e+00 -7.462743e+00 -7.226394e+00 -7.039584e+00 -6.811812e+00 -6.551717e+00 -6.334547e+00 -6.003094e+00 -5.799128e+00 -5.398989e+00 -5.211360e+00 -4.745917e+00 -4.578226e+00 -4.051513e+00 -3.907738e+00 -3.324369e+00 -3.208766e+00 -2.573848e+00 -2.490838e+00 -1.809890e+00 -1.763932e+00 -1.042804e+00 -1.038262e+00 -2.830653e-01 -3.240703e-01 4.588804e-01 3.685752e-01 1.172797e+00 1.029970e+00 1.848830e+00 1.650950e+00 2.477662e+00 2.223046e+00 3.050663e+00 2.738639e+00 3.560021e+00 3.191081e+00 3.998877e+00 3.574816e+00 4.361444e+00 3.885475e+00 4.643121e+00 4.119956e+00 4.840598e+00 4.276487e+00 4.951947e+00 4.354649e+00 4.976690e+00 4.355389e+00 4.915846e+00 4.280984e+00 4.771934e+00 4.134976e+00 4.548948e+00 3.922066e+00 4.252274e+00 3.647969e+00 3.888558e+00 3.319227e+00 3.465522e+00 2.942995e+00 2.991725e+00 2.526790e+00 2.476282e+00 2.078233e+00 1.928537e+00 1.604782e+00 1.357733e+00 1.113475e+00 7.726741e-01 6.107153e-01 1.814228e-01 1.020894e-01 -4.089557e-01 -4.077409e-01 -9.925689e-01 -9.150832e-01 -1.564785e+00 -1.417185e+00 -2.122224e+00 -1.912138e+00 -2.662662e+00 -2.398731e+00 -3.184852e+00 -2.876262e+00 -3.688301e+00 -3.344335e+00 -4.173009e+00 -3.802660e+00 -4.639213e+00 -4.250865e+00 -5.087144e+00 -4.688339e+00 -5.516819e+00 -5.114101e+00 -5.927879e+00 -5.526721e+00 -6.319468e+00 -5.924255e+00 -6.690165e+00 -6.304231e+00 -7.037951e+00 -6.663653e+00 -7.360215e+00 -6.999031e+00 
-7.726828e+00 -7.432427e+00 -7.997448e+00 -7.719281e+00 -8.232501e+00 -7.969747e+00 -8.427364e+00 -8.178793e+00 -8.577209e+00 -8.341314e+00 -8.677149e+00 -8.452274e+00 -8.722401e+00 -8.506869e+00 -8.708465e+00 -8.500703e+00 -8.631317e+00 -8.429976e+00 -8.487605e+00 -8.291674e+00 -8.274845e+00 -8.083754e+00 -7.991606e+00 -7.805309e+00 -7.637665e+00 -7.456707e+00 -7.214135e+00 -7.039691e+00 -6.723537e+00 -6.557422e+00 -6.169825e+00 -6.014483e+00 -5.558355e+00 -5.416809e+00 -4.895797e+00 -4.771588e+00 -4.190004e+00 -4.087100e+00 -3.449840e+00 -3.372534e+00 -2.684984e+00 -2.637779e+00 -1.905718e+00 -1.893203e+00 -1.122709e+00 -1.149425e+00 -3.467956e-01 -4.170943e-01 4.112136e-01 2.933174e-01 1.140733e+00 9.717180e-01 1.831573e+00 1.608577e+00 2.474105e+00 2.195093e+00 3.059409e+00 2.723347e+00 3.579415e+00 3.186441e+00 4.027038e+00 3.578618e+00 4.396304e+00 3.895368e+00 4.682475e+00 4.133515e+00 4.882152e+00 4.291279e+00 4.993381e+00 4.368316e+00 5.015726e+00 4.365717e+00 4.950318e+00 4.285983e+00 4.799870e+00 4.132950e+00 4.568643e+00 3.911677e+00 4.262366e+00 3.628286e+00 3.888091e+00 3.289760e+00 3.453998e+00 2.903707e+00 2.969134e+00 2.478090e+00 2.443102e+00 2.020936e+00 1.885713e+00 1.540045e+00 1.306618e+00 1.042714e+00 7.149405e-01 5.354946e-01 1.189473e-01 2.400746e-02 -4.742227e-01 -4.871732e-01 -1.058741e+00 -9.945534e-01 -1.630172e+00 -1.495672e+00 -2.185444e+00 -1.988978e+00 -2.722723e+00 -2.473652e+00 -3.241204e+00 -2.949391e+00 -3.740846e+00 -3.416174e+00 -4.222085e+00 -3.874036e+00 -4.685544e+00 -4.322874e+00 -5.131776e+00 -4.762268e+00 -5.561041e+00 -5.191366e+00 -5.973146e+00 -5.608787e+00 -6.367323e+00 -6.012581e+00 -6.742164e+00 -6.400212e+00 -7.095605e+00 -6.768572e+00 -7.424931e+00 -7.114017e+00 
-7.791763e+00 -7.442826e+00 -8.068307e+00 -7.735212e+00 -8.309296e+00 -7.991118e+00 -8.509886e+00 -8.205302e+00 -8.664996e+00 -8.372425e+00 -8.769464e+00 -8.487196e+00 -8.818215e+00 -8.544543e+00 -8.806454e+00 -8.539803e+00 -8.729867e+00 -8.468917e+00 -8.584833e+00 -8.328640e+00 -8.368637e+00 -8.116736e+00 -8.079667e+00 -7.832164e+00 -7.717587e+00 -7.475223e+00 -7.283470e+00 -7.047660e+00 -6.779878e+00 -6.552721e+00 -6.210888e+00 -5.995144e+00 -5.582052e+00 -5.381091e+00 -4.900301e+00 -4.718026e+00 -4.173797e+00 -4.014552e+00 -3.411750e+00 -3.280205e+00 -2.624201e+00 -2.525230e+00 -1.821797e+00 -1.760350e+00 -1.015563e+00 -9.965270e-01 -2.166808e-01 -2.447371e-01 5.637188e-01 4.842479e-01 1.314748e+00 1.180059e+00 2.025933e+00 1.832912e+00 2.687376e+00 2.433774e+00 3.289897e+00 2.974517e+00 3.825171e+00 3.448048e+00 4.285864e+00 3.848435e+00 4.665754e+00 4.171016e+00 4.959863e+00 4.412484e+00 5.164571e+00 4.570962e+00 5.277728e+00 4.646046e+00 5.298744e+00 4.638818e+00 5.228654e+00 4.551827e+00 5.070149e+00 4.389023e+00 4.827560e+00 4.155654e+00 4.506788e+00 3.858104e+00 4.115173e+00 3.503697e+00 3.661297e+00 3.100447e+00 3.154717e+00 2.656778e+00 2.605643e+00 2.181211e+00 2.024556e+00 1.682054e+00 1.421807e+00 1.167084e+00 8.072047e-01 6.432845e-01 1.896367e-01 1.166236e-01 -4.232462e-01 -4.080801e-01 -1.025249e+00 -9.272054e-01 -1.611738e+00 -1.438282e+00 -2.179614e+00 -1.939861e+00 -2.727177e+00 -2.431314e+00 -3.253886e+00 -2.912591e+00 -3.760057e+00 -3.383963e+00 -4.246532e+00 -3.845766e+00 -4.714346e+00 -4.298181e+00 -5.164442e+00 -4.741040e+00 -5.597415e+00 -5.173695e+00 -6.013337e+00 -5.594919e+00 -6.411629e+00 -6.002859e+00 -6.790997e+00 -6.395021e+00 -7.149413e+00 -6.768290e+00 -7.484136e+00 -7.118964e+00 
-7.879036e+00 -7.583822e+00 -8.167374e+00 -7.890663e+00 -8.421156e+00 -8.161582e+00 -8.635210e+00 -8.390997e+00 -8.804095e+00 -8.573193e+00 -8.922255e+00 -8.702479e+00 -8.984197e+00 -8.773364e+00 -8.984691e+00 -8.780753e+00 -8.918985e+00 -8.720160e+00 -8.783031e+00 -8.587933e+00 -8.573718e+00 -8.381471e+00 -8.289088e+00 -8.099423e+00 -7.928529e+00 -7.741860e+00 -7.492924e+00 -7.310397e+00 -6.984745e+00 -6.808247e+00 -6.408086e+00 -6.240225e+00 -5.768615e+00 -5.612674e+00 -5.073483e+00 -4.933336e+00 -4.331153e+00 -4.211170e+00 -3.551203e+00 -3.456138e+00 -2.744096e+00 -2.678960e+00 -1.920933e+00 -1.890865e+00 -1.093208e+00 -1.103337e+00 -2.725789e-01 -3.278764e-01 5.293600e-01 4.242295e-01 1.301270e+00 1.142117e+00 2.032251e+00 1.815537e+00 2.712002e+00 2.435031e+00 3.330973e+00 2.992087e+00 3.880501e+00 3.479288e+00 4.352952e+00 3.890440e+00 4.741855e+00 4.220688e+00 5.042032e+00 4.466618e+00 5.249729e+00 4.626333e+00 5.362737e+00 4.699504e+00 5.380493e+00 4.687392e+00 5.304158e+00 4.592823e+00 5.136647e+00 4.420121e+00 4.882626e+00 4.174993e+00 4.548432e+00 3.864360e+00 4.141939e+00 3.496130e+00 3.672338e+00 3.078931e+00 3.149851e+00 2.621791e+00 2.585367e+00 2.133799e+00 1.990025e+00 1.623745e+00 1.374763e+00 1.099783e+00 7.498643e-01 5.691241e-01 1.245330e-01 3.780447e-02 -4.934445e-01 -4.894561e-01 -1.097933e+00 -1.009292e+00 -1.684542e+00 -1.519618e+00 -2.250582e+00 -2.019464e+00 -2.794877e+00 -2.508729e+00 -3.317478e+00 -2.987896e+00 -3.819313e+00 -3.457732e+00 -4.301802e+00 -3.919006e+00 -4.766497e+00 -4.372239e+00 -5.214756e+00 -4.817515e+00 -5.647492e+00 -5.254338e+00 -6.064982e+00 -5.681545e+00 -6.466753e+00 -6.097267e+00 -6.851524e+00 -6.498925e+00 -7.217198e+00 -6.883258e+00 -7.560901e+00 -7.246376e+00 
-7.962251e+00 -7.612189e+00 -8.258707e+00 -7.926955e+00 -8.520796e+00 -8.205813e+00 -8.743053e+00 -8.442902e+00 -8.919701e+00 -8.632192e+00 -9.044815e+00 -8.767647e+00 -9.112512e+00 -8.843411e+00 -9.117160e+00 -8.854020e+00 -9.053611e+00 -8.794631e+00 -8.917448e+00 -8.661264e+00 -8.705233e+00 -8.451043e+00 -8.414751e+00 -8.162419e+00 -8.045218e+00 -7.795353e+00 -7.597450e+00 -7.351449e+00 -7.073961e+00 -6.834023e+00 -6.478995e+00 -6.248089e+00 -5.818479e+00 -5.600285e+00 -5.099901e+00 -4.898721e+00 -4.332134e+00 -4.152781e+00 -3.525208e+00 -3.372881e+00 -2.690057e+00 -2.570213e+00 -1.838256e+00 -1.756468e+00 -9.817611e-01 -9.435796e-01 -1.326609e-01 -1.434653e-01 6.970434e-01 6.322012e-01 1.495639e+00 1.372204e+00 2.251878e+00 2.065973e+00 2.955130e+00 2.703757e+00 3.595528e+00 3.276781e+00 4.164100e+00 3.777381e+00 4.652903e+00 4.199142e+00 5.055155e+00 4.537010e+00 5.365376e+00 4.787402e+00 5.579527e+00 4.948291e+00 5.695140e+00 5.019270e+00 5.711447e+00 5.001577e+00 5.629471e+00 4.898096e+00 5.452087e+00 4.713295e+00 5.184034e+00 4.453118e+00 4.831860e+00 4.124826e+00 4.403796e+00 3.736768e+00 3.909548e+00 3.298102e+00 3.359999e+00 2.818466e+00 2.766831e+00 2.307605e+00 2.142069e+00 1.774978e+00 1.497582e+00 1.229378e+00 8.445616e-01 6.785841e-01 1.930380e-01 1.290818e-01 -4.485330e-01 -4.141063e-01 -1.073553e+00 -9.474774e-01 -1.677406e+00 -1.468977e+00 -2.257421e+00 -1.977815e+00 -2.812659e+00 -2.474191e+00 -3.343593e+00 -2.958973e+00 -3.851682e+00 -3.433352e+00 -4.338938e+00 -3.898520e+00 -4.807498e+00 -4.355393e+00 -5.259257e+00 -4.804394e+00 -5.695573e+00 -5.245293e+00 -6.117071e+00 -5.677118e+00 -6.523511e+00 -6.098115e+00 -6.913741e+00 -6.505744e+00 -7.285694e+00 -6.896722e+00 -7.636439e+00 -7.267069e+00 
-8.062580e+00 -7.767426e+00 -8.373534e+00 -8.099694e+00 -8.651321e+00 -8.396738e+00 -8.890081e+00 -8.652286e+00 -9.083592e+00 -8.859856e+00 -9.225449e+00 -9.012923e+00 -9.309252e+00 -9.105112e+00 -9.328825e+00 -9.130419e+00 -9.278469e+00 -9.083461e+00 -9.153221e+00 -8.959739e+00 -8.949136e+00 -8.755906e+00 -8.663552e+00 -8.470015e+00 -8.295329e+00 -8.101732e+00 -7.845041e+00 -7.652488e+00 -7.315089e+00 -7.125561e+00 -6.709747e+00 -6.526072e+00 -6.035106e+00 -5.860897e+00 -5.298946e+00 -5.138508e+00 -4.510540e+00 -4.368755e+00 -3.680402e+00 -3.562602e+00 -2.820012e+00 -2.731841e+00 -1.941524e+00 -1.888806e+00 -1.057491e+00 -1.046083e+00 -1.805964e-01 -2.162436e-01 6.765806e-01 5.884009e-01 1.501772e+00 1.356024e+00 2.283203e+00 2.075483e+00 3.009752e+00 2.736499e+00 3.671091e+00 3.329823e+00 4.257828e+00 3.847382e+00 4.761642e+00 4.282425e+00 5.175423e+00 4.629651e+00 5.493425e+00 4.885325e+00 5.711415e+00 5.047380e+00 5.826826e+00 5.115486e+00 5.838893e+00 5.091090e+00 5.748763e+00 4.977409e+00 5.559573e+00 4.779373e+00 5.276459e+00 4.503510e+00 4.906512e+00 4.157759e+00 4.458640e+00 3.751228e+00 3.943337e+00 3.293877e+00 3.372359e+00 2.796147e+00 2.758301e+00 2.268543e+00 2.114083e+00 1.721190e+00 1.452387e+00 1.163398e+00 7.850714e-01 6.032730e-01 1.226252e-01 4.741073e-02 -5.262874e-01 -4.992886e-01 -1.155129e+00 -1.033660e+00 -1.759608e+00 -1.554167e+00 -2.337596e+00 -2.060662e+00 -2.888866e+00 -2.554055e+00 -3.414687e+00 -3.035916e+00 -3.917334e+00 -3.508088e+00 -4.399582e+00 -3.972318e+00 -4.864232e+00 -4.429954e+00 -5.313709e+00 -4.881721e+00 -5.749760e+00 -5.327565e+00 -6.173251e+00 -5.766578e+00 -6.584056e+00 -6.196968e+00 -6.981019e+00 -6.616082e+00 -7.361977e+00 -7.020452e+00 -7.723820e+00 -7.405861e+00 
-8.163751e+00 -7.813627e+00 -8.485272e+00 -8.156458e+00 -8.774045e+00 -8.464231e+00 -9.023830e+00 -8.730315e+00 -9.227979e+00 -8.947825e+00 -9.379616e+00 -9.109790e+00 -9.471836e+00 -9.209360e+00 -9.497943e+00 -9.240045e+00 -9.451717e+00 -9.195982e+00 -9.327699e+00 -9.072230e+00 -9.121503e+00 -8.865064e+00 -8.830113e+00 -8.572255e+00 -8.452147e+00 -8.193305e+00 -7.988073e+00 -7.729624e+00 -7.440335e+00 -7.184607e+00 -6.813399e+00 -6.563631e+00 -6.113682e+00 -5.873955e+00 -5.349410e+00 -5.124527e+00 -4.530382e+00 -4.325746e+00 -3.667694e+00 -3.489161e+00 -2.773427e+00 -2.627166e+00 -1.860335e+00 -1.752682e+00 -9.415406e-01 -8.788528e-01 -3.025936e-02 -1.876938e-02 8.604420e-01 8.147851e-01 1.717853e+00 1.609557e+00 2.529792e+00 2.354021e+00 3.284756e+00 3.037548e+00 3.972054e+00 3.650570e+00 4.581929e+00 4.184720e+00 5.105691e+00 4.632974e+00 5.535856e+00 4.989783e+00 5.866301e+00 5.251196e+00 6.092427e+00 5.414972e+00 6.211332e+00 5.480665e+00 6.221966e+00 5.449683e+00 6.125282e+00 5.325295e+00 5.924328e+00 5.112594e+00 5.624305e+00 4.818390e+00 5.232534e+00 4.451040e+00 4.758347e+00 4.020201e+00 4.212869e+00 3.536507e+00 3.608691e+00 3.011180e+00 2.959420e+00 2.455578e+00 2.279128e+00 1.880703e+00 1.581720e+00 1.296706e+00 8.802619e-01 7.124384e-01 1.863328e-01 1.350790e-01 -4.905210e-01 -4.300925e-01 -1.143170e+00 -9.797634e-01 -1.767064e+00 -1.512481e+00 -2.360161e+00 -2.028390e+00 -2.922624e+00 -2.528848e+00 -3.456349e+00 -3.015982e+00 -3.964390e+00 -3.492229e+00 -4.450356e+00 -3.959920e+00 -4.917853e+00 -4.420929e+00 -5.370021e+00 -4.876419e+00 -5.809188e+00 -5.326673e+00 -6.236650e+00 -5.771012e+00 -6.652557e+00 -6.207772e+00 -7.055888e+00 -6.634333e+00 -7.444492e+00 -7.047177e+00 -7.815164e+00 -7.441965e+00 
-8.275721e+00 -7.982190e+00 -8.614805e+00 -8.345950e+00 -8.922591e+00 -8.675503e+00 -9.192366e+00 -8.963738e+00 -9.416960e+00 -9.203234e+00 -9.588918e+00 -9.386436e+00 -9.700709e+00 -9.505863e+00 -9.744971e+00 -9.554359e+00 -9.714794e+00 -9.525388e+00 -9.604037e+00 -9.413350e+00 -9.407663e+00 -9.213913e+00 -9.122083e+00 -8.924338e+00 -8.745454e+00 -8.543743e+00 -8.277933e+00 -8.073311e+00 -7.721823e+00 -7.516394e+00 -7.081631e+00 -6.878505e+00 -6.364000e+00 -6.167214e+00 -5.577537e+00 -5.391938e+00 -4.732565e+00 -4.563668e+00 -3.840802e+00 -3.694646e+00 -2.915023e+00 -2.798021e+00 -1.968711e+00 -1.887506e+00 -1.015727e+00 -9.770494e-01 -7.001456e-02 -8.053804e-02 8.546590e-01 7.884732e-01 1.744917e+00 1.616995e+00 2.587951e+00 2.392810e+00 3.371669e+00 3.104653e+00 4.084831e+00 3.742380e+00 4.717170e+00 4.297121e+00 5.259530e+00 4.761433e+00 5.704015e+00 5.129447e+00 6.044151e+00 5.397009e+00 6.275077e+00 5.561805e+00 6.393725e+00 5.623464e+00 6.399016e+00 5.583625e+00 6.292014e+00 5.445955e+00 6.076054e+00 5.216107e+00 5.756801e+00 4.901607e+00 5.342232e+00 4.511666e+00 4.842515e+00 4.056901e+00 4.269778e+00 3.548980e+00 3.637738e+00 3.000175e+00 2.961200e+00 2.422848e+00 2.255435e+00 1.828895e+00 1.535454e+00 1.229175e+00 8.152392e-01 6.329951e-01 1.070158e-01 4.769224e-02 -5.793693e-01 -5.216111e-01 -1.236859e+00 -1.072059e+00 -1.861342e+00 -1.602903e+00 -2.451520e+00 -2.115159e+00 -3.008521e+00 -2.611136e+00 -3.535321e+00 -3.093895e+00 -4.036057e+00 -3.566720e+00 -4.515335e+00 -4.032640e+00 -4.977608e+00 -4.494060e+00 -5.426670e+00 -4.952495e+00 -5.865308e+00 -5.408417e+00 -6.295084e+00 -5.861192e+00 -6.716252e+00 -6.309084e+00 -7.127756e+00 -6.749310e+00 -7.527296e+00 -7.178120e+00 -7.911437e+00 -7.590883e+00 
-8.394260e+00 -8.045914e+00 -8.746697e+00 -8.423194e+00 -9.068538e+00 -8.766634e+00 -9.352602e+00 -9.068684e+00 -9.591192e+00 -9.321423e+00 -9.776270e+00 -9.516739e+00 -9.899674e+00 -9.646547e+00 -9.953381e+00 -9.703066e+00 -9.929807e+00 -9.679130e+00 -9.822163e+00 -9.568550e+00 -9.624826e+00 -9.366487e+00 -9.333726e+00 -9.069810e+00 -8.946685e+00 -8.677407e+00 -8.463704e+00 -8.190413e+00 -7.887133e+00 -7.612326e+00 -7.221720e+00 -6.948987e+00 -6.474532e+00 -6.208457e+00 -5.654751e+00 -5.400770e+00 -4.773379e+00 -4.537618e+00 -3.842877e+00 -3.631990e+00 -2.876780e+00 -2.697787e+00 -1.889311e+00 -1.749450e+00 -8.950308e-01 -8.016106e-01 9.148428e-02 1.312217e-01 1.055898e+00 1.034933e+00 1.984329e+00 1.896036e+00 2.863514e+00 2.701871e+00 3.680943e+00 3.440776e+00 4.424968e+00 4.102238e+00 5.084915e+00 4.677043e+00 5.651205e+00 5.157426e+00 6.115492e+00 5.537210e+00 6.470844e+00 5.811967e+00 6.711930e+00 5.979149e+00 6.835246e+00 6.038221e+00 6.839325e+00 5.990741e+00 6.724940e+00 5.840409e+00 6.495270e+00 5.593045e+00 6.155998e+00 5.256499e+00 5.715335e+00 4.840470e+00 5.183930e+00 4.356243e+00 4.574659e+00 3.816322e+00 3.902264e+00 3.233965e+00 3.182831e+00 2.622633e+00 2.433114e+00 1.995365e+00 1.669726e+00 1.364127e+00 9.082507e-01 7.392070e-01 1.623682e-01 1.287094e-01 -5.569030e-01 -4.617628e-01 -1.241738e+00 -1.029196e+00 -1.887730e+00 -1.573004e+00 -2.493765e+00 -2.094649e+00 -3.061584e+00 -2.597098e+00 -3.595089e+00 -3.084198e+00 -4.099532e+00 -3.560056e+00 -4.580681e+00 -4.028486e+00 -5.044076e+00 -4.492580e+00 -5.494449e+00 -4.954411e+00 -5.935317e+00 -5.414856e+00 -6.368760e+00 -5.873547e+00 -6.795338e+00 -6.328880e+00 -7.214120e+00 -6.778088e+00 -7.622780e+00 -7.217336e+00 -8.017729e+00 -7.641828e+00 
-8.516185e+00 -8.226703e+00 -8.889681e+00 -8.628786e+00 -9.234333e+00 -8.998097e+00 -9.542416e+00 -9.326537e+00 -9.805623e+00 -9.605569e+00 -1.001524e+01 -9.826390e+00 -1.016236e+01 -9.980164e+00 -1.023815e+01 -1.005829e+01 -1.023418e+01 -1.005277e+01 -1.014279e+01 -9.956582e+00 -9.957541e+00 -9.764103e+00 -9.673619e+00 -9.471539e+00 -9.288250e+00 -9.077279e+00 -8.801027e+00 -8.582164e+00 -8.214121e+00 -7.989628e+00 -7.532341e+00 -7.305696e+00 -6.763051e+00 -6.538829e+00 -5.915938e+00 -5.699662e+00 -5.002679e+00 -4.800642e+00 -4.036533e+00 -3.855623e+00 -3.031907e+00 -2.879445e+00 -2.003932e+00 -1.887517e+00 -9.680688e-01 -8.954465e-01 6.023021e-02 8.130443e-02 1.065797e+00 1.027703e+00 2.033970e+00 1.929391e+00 2.950755e+00 2.772892e+00 3.802960e+00 3.545787e+00 4.578295e+00 4.236875e+00 5.265485e+00 4.836334e+00 5.854385e+00 5.335879e+00 6.336141e+00 5.728930e+00 6.703369e+00 6.010782e+00 6.950380e+00 6.178771e+00 7.073426e+00 6.232418e+00 7.070946e+00 6.173534e+00 6.943799e+00 6.006279e+00 6.695458e+00 5.737141e+00 6.332135e+00 5.374838e+00 5.862811e+00 4.930123e+00 5.299156e+00 4.415487e+00 4.655293e+00 3.844747e+00 3.947401e+00 3.232519e+00 3.193127e+00 2.593586e+00 2.410813e+00 1.942179e+00 1.618563e+00 1.291228e+00 8.332229e-01 6.516505e-01 6.936809e-02 3.177864e-02 -6.615565e-01 -5.629954e-01 -1.351823e+00 -1.130284e+00 -1.997628e+00 -1.670472e+00 -2.598893e+00 -2.186213e+00 -3.158687e+00 -2.681759e+00 -3.682379e+00 -3.162195e+00 -4.176666e+00 -3.632721e+00 -4.648613e+00 -4.098030e+00 -5.104823e+00 -4.561843e+00 -5.550820e+00 -5.026622e+00 -5.990637e+00 -5.493423e+00 -6.426625e+00 -5.961879e+00 -6.859407e+00 -6.430254e+00 -7.287956e+00 -6.895553e+00 -7.709729e+00 -7.353643e+00 -8.120832e+00 -7.799375e+00 