# vtk DataFile Version 2.0
Comment goes here
ASCII

DATASET STRUCTURED_POINTS
FIELD FieldData 1
TIME 1 1 double
0.19000000
DIMENSIONS    128   128   1

ORIGIN    0.000   0.000   0.000
SPACING   0.039062 0.039062   1.000

POINT_DATA   16384
SCALARS P double
LOOKUP_TABLE default

3.498035e+00 3.564873e+00 4.157531e+00 4.224837e+00 4.793408e+00 4.859989e+00 5.400294e+00 5.465097e+00 5.973013e+00 6.035143e+00 6.506606e+00 6.565346e+00 6.996364e+00 7.051184e+00 7.437866e+00 7.488432e+00 7.827028e+00 7.873211e+00 8.160159e+00 8.202030e+00 8.434025e+00 8.471843e+00 8.645902e+00 8.680105e+00 8.793645e+00 8.824820e+00 8.875737e+00 8.904587e+00 8.891333e+00 8.918638e+00 8.840291e+00 8.866856e+00 8.723183e+00 8.749791e+00 8.541292e+00 8.568640e+00 8.296583e+00 8.325229e+00 7.991661e+00 8.021966e+00 7.629706e+00 7.661785e+00 7.214401e+00 7.248084e+00 6.749849e+00 6.784652e+00 6.240492e+00 6.275604e+00 5.691031e+00 5.725321e+00 5.106357e+00 5.138401e+00 4.491501e+00 4.519624e+00 3.851595e+00 3.873939e+00 3.191859e+00 3.206462e+00 2.517598e+00 2.522491e+00 1.834223e+00 1.827531e+00 1.147269e+00 1.127318e+00 4.624316e-01 4.278486e-01 -2.144134e-01 -2.646061e-01 -8.771927e-01 -9.435037e-01 -1.519640e+00 -1.602054e+00 -2.135319e+00 -2.233273e+00 -2.717684e+00 -2.830061e+00 -3.260154e+00 -3.385320e+00 -3.756229e+00 -3.892084e+00 -4.199628e+00 -4.343686e+00 -4.584437e+00 -4.733930e+00 -4.905283e+00 -5.057263e+00 -5.157495e+00 -5.308957e+00 -5.337264e+00 -5.485255e+00 -5.441777e+00 -5.583504e+00 -5.469321e+00 -5.602241e+00 -5.419347e+00 -5.541246e+00 -5.292494e+00 -5.401536e+00 -5.090561e+00 -5.185328e+00 -4.816441e+00 -4.895942e+00 -4.474014e+00 -4.537684e+00 -4.068015e+00 -4.115694e+00 -3.603882e+00 -3.635779e+00 -3.087598e+00 -3.104253e+00 -2.525531e+00 -2.527768e+00 -1.924300e+00 -1.913175e+00 -1.290642e+00 -1.267397e+00 -6.313141e-01 -5.973279e-01 4.698287e-02 9.023723e-02 7.376626e-01 7.886590e-01 1.434288e+00 1.491483e+00 2.130589e+00 2.192456e+00 2.820476e+00 2.885533e+00 
3.481232e+00 3.545452e+00 4.141796e+00 4.207047e+00 4.779458e+00 4.844507e+00 5.388784e+00 5.452537e+00 5.964542e+00 6.026065e+00 6.501725e+00 6.560262e+00 6.995584e+00 7.050569e+00 7.441665e+00 7.492734e+00 7.835857e+00 7.882851e+00 8.174450e+00 8.217413e+00 8.454191e+00 8.493364e+00 8.672347e+00 8.708148e+00 8.826762e+00 8.859766e+00 8.915913e+00 8.946815e+00 8.938950e+00 8.968523e+00 8.895727e+00 8.924776e+00 8.786811e+00 8.816116e+00 8.613476e+00 8.643735e+00 8.377675e+00 8.409445e+00 8.081993e+00 8.115632e+00 7.729581e+00 7.765200e+00 7.324085e+00 7.361501e+00 6.869556e+00 6.908266e+00 6.370368e+00 6.409538e+00 5.831141e+00 5.869608e+00 5.256670e+00 5.292970e+00 4.651873e+00 4.684284e+00 4.021757e+00 4.048365e+00 3.371400e+00 3.390185e+00 2.705960e+00 2.714885e+00 2.030689e+00 2.027808e+00 1.350961e+00 1.334526e+00 6.723098e-01 6.408692e-01 4.533347e-04 -4.705062e-02 -6.586836e-01 -7.228411e-01 -1.298968e+00 -1.379847e+00 -1.914081e+00 -2.011196e+00 -2.497563e+00 -2.609876e+00 -3.042893e+00 -3.168840e+00 -3.543596e+00 -3.681139e+00 -3.993372e+00 -4.140074e+00 -4.386251e+00 -4.539374e+00 -4.716756e+00 -4.873364e+00 -4.980070e+00 -5.137144e+00 -5.172198e+00 -5.326743e+00 -5.290104e+00 -5.439256e+00 -5.331822e+00 -5.472941e+00 -5.296532e+00 -5.427280e+00 -5.184589e+00 -5.302989e+00 -4.997512e+00 -5.101986e+00 -4.737923e+00 -4.827316e+00 -4.409456e+00 -4.483038e+00 -4.016630e+00 -4.074082e+00 -3.564703e+00 -3.606091e+00 -3.059517e+00 -3.085256e+00 -2.507346e+00 -2.518154e+00 -1.914748e+00 -1.911601e+00 -1.288441e+00 -1.272522e+00 -6.351939e-01 -6.078448e-01 3.825639e-02 7.557982e-02 7.252666e-01 7.710389e-01 1.419329e+00 1.471994e+00 2.114096e+00 2.172103e+00 2.803395e+00 2.865231e+00 
3.506936e+00 3.574411e+00 4.169172e+00 4.237056e+00 4.807698e+00 4.874789e+00 5.417141e+00 5.482379e+00 5.992317e+00 6.054801e+00 6.528255e+00 6.587260e+00 7.020226e+00 7.075219e+00 7.463786e+00 7.514431e+00 7.854821e+00 7.900987e+00 8.189608e+00 8.231369e+00 8.464876e+00 8.502499e+00 8.677869e+00 8.711801e+00 8.826410e+00 8.857251e+00 8.908956e+00 8.937429e+00 8.924644e+00 8.951551e+00 8.873322e+00 8.899498e+00 8.755568e+00 8.781821e+00 8.572677e+00 8.599736e+00 8.326641e+00 8.355091e+00 8.020096e+00 8.050327e+00 7.656266e+00 7.688415e+00 7.238877e+00 7.272789e+00 6.772079e+00 6.807277e+00 6.260353e+00 6.296025e+00 5.708436e+00 5.743438e+00 5.121248e+00 5.154132e+00 4.503834e+00 4.532894e+00 3.861335e+00 3.884671e+00 3.198969e+00 3.214570e+00 2.522030e+00 2.527875e+00 1.835913e+00 1.830072e+00 1.146139e+00 1.126886e+00 4.583862e-01 4.243028e-01 -2.214762e-01 -2.714064e-01 -8.873748e-01 -9.536873e-01 -1.533029e+00 -1.615723e+00 -2.151979e+00 -2.250488e+00 -2.737631e+00 -2.850827e+00 -3.283352e+00 -3.409569e+00 -3.782571e+00 -3.919669e+00 -4.228927e+00 -4.374372e+00 -4.616425e+00 -4.767390e+00 -4.939605e+00 -5.093088e+00 -5.193720e+00 -5.346658e+00 -5.374894e+00 -5.524282e+00 -5.480262e+00 -5.623260e+00 -5.508080e+00 -5.642109e+00 -5.457789e+00 -5.580606e+00 -5.330040e+00 -5.439794e+00 -5.126666e+00 -5.221931e+00 -4.850610e+00 -4.930397e+00 -4.505820e+00 -4.569573e+00 -4.097105e+00 -4.144679e+00 -3.629981e+00 -3.661607e+00 -3.110508e+00 -3.126749e+00 -2.545128e+00 -2.546833e+00 -1.940521e+00 -1.928772e+00 -1.303479e+00 -1.279542e+00 -6.407990e-01 -6.060771e-01 4.078774e-02 8.480118e-02 7.346757e-01 7.864357e-01 1.434416e+00 1.492364e+00 2.133738e+00 2.196330e+00 2.826548e+00 2.892291e+00 
3.498244e+00 3.563777e+00 4.164357e+00 4.230805e+00 4.807382e+00 4.873492e+00 5.421877e+00 5.486540e+00 6.002597e+00 6.064864e+00 6.544509e+00 6.603612e+00 7.042827e+00 7.098191e+00 7.493050e+00 7.544305e+00 7.891009e+00 7.937994e+00 8.232928e+00 8.275694e+00 8.515487e+00 8.554285e+00 8.735883e+00 8.771153e+00 8.891900e+00 8.924245e+00 8.981963e+00 9.012116e+00 9.005187e+00 9.033969e+00 8.961412e+00 8.989681e+00 8.851211e+00 8.879805e+00 8.675889e+00 8.705569e+00 8.437451e+00 8.468834e+00 8.138553e+00 8.172052e+00 7.782431e+00 7.818201e+00 7.372821e+00 7.410712e+00 6.913864e+00 6.953390e+00 6.410020e+00 6.450343e+00 5.865980e+00 5.905912e+00 5.286592e+00 5.324622e+00 4.676808e+00 4.711148e+00 4.041646e+00 4.070299e+00 3.386179e+00 3.407026e+00 2.715540e+00 2.726439e+00 2.034947e+00 2.033844e+00 1.349740e+00 1.334780e+00 6.654168e-01 6.350558e-01 -1.232605e-02 -5.922338e-02 -6.775673e-01 -7.416461e-01 -1.324154e+00 -1.405510e+00 -1.945716e+00 -2.043866e+00 -2.535716e+00 -2.649594e+00 -3.087525e+00 -3.215511e+00 -3.594531e+00 -3.734510e+00 -4.050281e+00 -4.199723e+00 -4.448638e+00 -4.604696e+00 -4.783957e+00 -4.943585e+00 -5.051264e+00 -5.211331e+00 -5.246425e+00 -5.403831e+00 -5.366292e+00 -5.518084e+00 -5.408830e+00 -5.552289e+00 -5.373188e+00 -5.505917e+00 -5.259734e+00 -5.379716e+00 -5.070044e+00 -5.175679e+00 -4.806833e+00 -4.896962e+00 -4.473857e+00 -4.547761e+00 -4.075778e+00 -4.133165e+00 -3.618008e+00 -3.658980e+00 -3.106544e+00 -3.131559e+00 -2.547803e+00 -2.557629e+00 -1.948475e+00 -1.944139e+00 -1.315389e+00 -1.298123e+00 -6.554006e-01 -6.265973e-01 2.468610e-02 6.352703e-02 7.181831e-01 7.654956e-01 1.418555e+00 1.472747e+00 2.119443e+00 2.178932e+00 2.814670e+00 2.877916e+00 
3.533722e+00 3.603117e+00 4.204173e+00 4.273799e+00 4.850650e+00 4.919280e+00 5.467770e+00 5.534320e+00 6.050330e+00 6.113879e+00 6.593319e+00 6.653126e+00 7.091955e+00 7.147470e+00 7.541716e+00 7.592598e+00 7.938403e+00 7.984518e+00 8.278190e+00 8.319619e+00 8.557701e+00 8.594728e+00 8.774074e+00 8.807177e+00 8.925035e+00 8.954857e+00 9.008961e+00 9.036282e+00 9.024932e+00 9.050623e+00 8.972771e+00 8.997747e+00 8.853063e+00 8.878222e+00 8.667148e+00 8.693309e+00 8.417093e+00 8.444933e+00 8.105642e+00 8.135630e+00 7.736143e+00 7.768486e+00 7.312459e+00 7.347052e+00 6.838878e+00 6.875266e+00 6.320011e+00 6.357376e+00 5.760701e+00 5.797863e+00 5.165951e+00 5.201393e+00 4.540859e+00 4.572774e+00 3.890586e+00 3.916946e+00 3.220338e+00 3.238987e+00 2.535380e+00 2.544134e+00 1.841057e+00 1.837822e+00 1.142835e+00 1.125725e+00 4.463472e-01 4.138013e-01 -2.425677e-01 -2.916831e-01 -9.178364e-01 -9.841394e-01 -1.573142e+00 -1.656673e+00 -2.201940e+00 -2.302133e+00 -2.797515e+00 -2.913192e+00 -3.353056e+00 -3.482466e+00 -3.861785e+00 -4.002661e+00 -4.317098e+00 -4.466755e+00 -4.712743e+00 -4.868185e+00 -5.043005e+00 -5.201053e+00 -5.302897e+00 -5.460314e+00 -5.488336e+00 -5.641958e+00 -5.596301e+00 -5.743149e+00 -5.624950e+00 -5.762333e+00 -5.573695e+00 -5.699287e+00 -5.443225e+00 -5.555124e+00 -5.235475e+00 -5.332233e+00 -4.953549e+00 -5.034183e+00 -4.601596e+00 -4.665580e+00 -4.184653e+00 -4.231892e+00 -3.708478e+00 -3.739267e+00 -3.179368e+00 -3.194342e+00 -2.603984e+00 -2.604068e+00 -1.989199e+00 -1.975553e+00 -1.341962e+00 -1.315928e+00 -6.691972e-01 -6.322472e-01 2.227773e-02 6.858675e-02 7.258001e-01 7.798669e-01 1.434891e+00 1.495107e+00 2.143269e+00 2.208050e+00 2.844846e+00 2.912661e+00 
3.532433e+00 3.600615e+00 4.209644e+00 4.278503e+00 4.863398e+00 4.931647e+00 5.488246e+00 5.554742e+00 6.078913e+00 6.142680e+00 6.630319e+00 6.690563e+00 7.137603e+00 7.193731e+00 7.596166e+00 7.647794e+00 8.001723e+00 8.048688e+00 8.350363e+00 8.392724e+00 8.638624e+00 8.676656e+00 8.863564e+00 8.897745e+00 9.022836e+00 9.053827e+00 9.114759e+00 9.143370e+00 9.138374e+00 9.165520e+00 9.093486e+00 9.120136e+00 8.980685e+00 9.007799e+00 8.801338e+00 8.829801e+00 8.557557e+00 8.588111e+00 8.252144e+00 8.285317e+00 7.888511e+00 7.924552e+00 7.470581e+00 7.509410e+00 7.002687e+00 7.043850e+00 6.489461e+00 6.532115e+00 5.935742e+00 5.978649e+00 5.346488e+00 5.388044e+00 4.726718e+00 4.765001e+00 4.081473e+00 4.114315e+00 3.415809e+00 3.440889e+00 2.734806e+00 2.749764e+00 2.043611e+00 2.046168e+00 1.347479e+00 1.335564e+00 6.518344e-01 6.237105e-01 -3.767635e-02 -8.330492e-02 -7.151457e-01 -7.790378e-01 -1.374383e+00 -1.456694e+00 -2.008923e+00 -2.109171e+00 -2.612067e+00 -2.729128e+00 -3.176966e+00 -3.309109e+00 -3.696733e+00 -3.841682e+00 -4.164596e+00 -4.319624e+00 -4.574077e+00 -4.736119e+00 -4.919185e+00 -5.084963e+00 -5.194617e+00 -5.360773e+00 -5.395950e+00 -5.559174e+00 -5.519814e+00 -5.676962e+00 -5.564021e+00 -5.712221e+00 -5.527661e+00 -5.664395e+00 -5.411131e+00 -5.534300e+00 -5.216122e+00 -5.324084e+00 -4.945544e+00 -5.037133e+00 -4.603407e+00 -4.677932e+00 -4.194671e+00 -4.251892e+00 -3.725062e+00 -3.765157e+00 -3.200895e+00 -3.224414e+00 -2.628885e+00 -2.636697e+00 -2.015988e+00 -2.009223e+00 -1.369255e+00 -1.349250e+00 -6.957208e-01 -6.639648e-01 -2.317727e-03 3.959803e-02 7.041783e-01 7.546064e-01 1.417182e+00 1.474459e+00 2.130312e+00 2.192792e+00 2.837390e+00 2.903479e+00 
3.578629e+00 3.651256e+00 4.262767e+00 4.335324e+00 4.922499e+00 4.993717e+00 5.552436e+00 5.621194e+00 6.147342e+00 6.212685e+00 6.702146e+00 6.763301e+00 7.211968e+00 7.268363e+00 7.672164e+00 7.723441e+00 8.078381e+00 8.124402e+00 8.426620e+00 8.467474e+00 8.713320e+00 8.749321e+00 8.935433e+00 8.967106e+00 9.090517e+00 9.118578e+00 9.176805e+00 9.202128e+00 9.193278e+00 9.216853e+00 9.139710e+00 9.162590e+00 9.016700e+00 9.039932e+00 8.825660e+00 8.850224e+00 8.568792e+00 8.595521e+00 8.249024e+00 8.278533e+00 7.869925e+00 7.902539e+00 7.435599e+00 7.471299e+00 6.950574e+00 6.988951e+00 6.419684e+00 6.459913e+00 5.847964e+00 5.888803e+00 5.240555e+00 5.280371e+00 4.602646e+00 4.639460e+00 3.939427e+00 3.970994e+00 3.256083e+00 3.279991e+00 2.557814e+00 2.571602e+00 1.849874e+00 1.851160e+00 1.137627e+00 1.124249e+00 4.266151e-01 3.967625e-01 -2.773850e-01 -3.250496e-01 -9.683100e-01 -1.034550e+00 -1.639787e+00 -1.724717e+00 -2.285142e+00 -2.388192e+00 -2.897442e+00 -3.017354e+00 -3.469585e+00 -3.604453e+00 -3.994429e+00 -4.141770e+00 -4.464953e+00 -4.621819e+00 -4.874462e+00 -5.037562e+00 -5.216793e+00 -5.382641e+00 -5.486541e+00 -5.651602e+00 -5.679264e+00 -5.840097e+00 -5.791665e+00 -5.945056e+00 -5.821734e+00 -5.964799e+00 -5.768830e+00 -5.899104e+00 -5.633710e+00 -5.749207e+00 -5.418493e+00 -5.517731e+00 -5.126560e+00 -5.208573e+00 -4.762413e+00 -4.826730e+00 -4.331492e+00 -4.378104e+00 -3.839971e+00 -3.869284e+00 -3.294556e+00 -3.307332e+00 -2.702286e+00 -2.699583e+00 -2.070360e+00 -2.053472e+00 -1.405999e+00 -1.376394e+00 -7.163292e-01 -6.755967e-01 -8.313298e-03 4.188289e-02 7.112974e-01 7.692624e-01 1.435982e+00 1.500025e+00 2.159448e+00 2.227916e+00 2.875622e+00 2.946923e+00 
3.584129e+00 3.656332e+00 4.277977e+00 4.350498e+00 4.947834e+00 5.019331e+00 5.588242e+00 5.657524e+00 6.193891e+00 6.259937e+00 6.759626e+00 6.821606e+00 7.280477e+00 7.337765e+00 7.751696e+00 7.803888e+00 8.168814e+00 8.215739e+00 8.527712e+00 8.569437e+00 8.824702e+00 8.861534e+00 9.056618e+00 9.089093e+00 9.220906e+00 9.249771e+00 9.315711e+00 9.341893e+00 9.339953e+00 9.364511e+00 9.293382e+00 9.317454e+00 9.176605e+00 9.201341e+00 8.991086e+00 9.017571e+00 8.739110e+00 8.768280e+00 8.423710e+00 8.456276e+00 8.048577e+00 8.084942e+00 7.617936e+00 7.658130e+00 7.136421e+00 7.180050e+00 6.608942e+00 6.655156e+00 6.040570e+00 6.088059e+00 5.436436e+00 5.483454e+00 4.801661e+00 4.846076e+00 4.141317e+00 4.180693e+00 3.460423e+00 3.492126e+00 2.763969e+00 2.785295e+00 2.056972e+00 2.065290e+00 1.344547e+00 1.337445e+00 6.319871e-01 6.074185e-01 -7.515763e-02 -1.187403e-01 -7.710138e-01 -8.345502e-01 -1.449345e+00 -1.533087e+00 -2.103547e+00 -2.207013e+00 -2.726681e+00 -2.848657e+00 -3.311557e+00 -3.450132e+00 -3.850858e+00 -4.003504e+00 -4.337316e+00 -4.500997e+00 -4.763913e+00 -4.935215e+00 -5.124110e+00 -5.299395e+00 -5.412085e+00 -5.587640e+00 -5.622960e+00 -5.795143e+00 -5.753004e+00 -5.918382e+00 -5.799793e+00 -5.955254e+00 -5.762320e+00 -5.905164e+00 -5.641032e+00 -5.769036e+00 -5.437806e+00 -5.549268e+00 -5.155862e+00 -5.249611e+00 -4.799618e+00 -4.875007e+00 -4.374502e+00 -4.431381e+00 -3.886744e+00 -3.925412e+00 -3.343154e+00 -3.364305e+00 -2.750912e+00 -2.755573e+00 -2.117384e+00 -2.106849e+00 -1.449963e+00 -1.425728e+00 -7.559491e-01 -7.196531e-01 -4.246561e-02 4.162156e-03 6.835888e-01 7.387781e-01 1.415564e+00 1.477543e+00 2.147057e+00 2.214089e+00 2.871898e+00 2.942308e+00 
3.642044e+00 3.719258e+00 4.345323e+00 4.422041e+00 5.023619e+00 5.098513e+00 5.671541e+00 5.743438e+00 6.283816e+00 6.351710e+00 6.855286e+00 6.918362e+00 7.380940e+00 7.438590e+00 7.855955e+00 7.907791e+00 8.275753e+00 8.321628e+00 8.636080e+00 8.676092e+00 8.933098e+00 8.967595e+00 9.163485e+00 9.193058e+00 9.324537e+00 9.350001e+00 9.414272e+00 9.436636e+00 9.431514e+00 9.451938e+00 9.375962e+00 9.395696e+00 9.248225e+00 9.268544e+00 9.049828e+00 9.071943e+00 8.783170e+00 8.808149e+00 8.451457e+00 8.480129e+00 8.058588e+00 8.091465e+00 7.609033e+00 7.646229e+00 7.107682e+00 7.148858e+00 6.559704e+00 6.604032e+00 5.970415e+00 6.016570e+00 5.345168e+00 5.391347e+00 4.689274e+00 4.733252e+00 4.007962e+00 4.047175e+00 3.306374e+00 3.338034e+00 2.589599e+00 2.610832e+00 1.862737e+00 1.870737e+00 1.130983e+00 1.123176e+00 3.997205e-01 3.739228e-01 -3.253835e-01 -3.708154e-01 -1.038303e+00 -1.104350e+00 -1.732604e+00 -1.819494e+00 -2.401432e+00 -2.508591e+00 -3.037553e+00 -3.163603e+00 -3.633439e+00 -3.776246e+00 -4.181417e+00 -4.338176e+00 -4.673852e+00 -4.841218e+00 -5.103387e+00 -5.277631e+00 -5.463192e+00 -5.640373e+00 -5.747235e+00 -5.923378e+00 -5.950535e+00 -6.121796e+00 -6.069383e+00 -6.232199e+00 -6.101512e+00 -6.252726e+00 -6.046207e+00 -6.183157e+00 -5.904329e+00 -6.024912e+00 -5.678274e+00 -5.780968e+00 -5.371845e+00 -5.455714e+00 -4.990077e+00 -5.054739e+00 -4.539009e+00 -4.584590e+00 -4.025439e+00 -4.052513e+00 -3.456676e+00 -3.466194e+00 -2.840311e+00 -2.833526e+00 -2.184019e+00 -2.162416e+00 -1.495399e+00 -1.460632e+00 -7.818641e-01 -7.356904e-01 -5.056955e-02 5.197122e-03 6.916225e-01 7.551562e-01 1.438146e+00 1.507644e+00 2.182715e+00 2.256427e+00 2.919290e+00 2.995541e+00 
3.653808e+00 3.731465e+00 4.369815e+00 4.447299e+00 5.061150e+00 5.137049e+00 5.722358e+00 5.795418e+00 6.348089e+00 6.417231e+00 6.933098e+00 6.997437e+00 7.472264e+00 7.531130e+00 7.960635e+00 8.013589e+00 8.393486e+00 8.440340e+00 8.766401e+00 8.807228e+00 9.075371e+00 9.110514e+00 9.316905e+00 9.346973e+00 9.488144e+00 9.513996e+00 9.586977e+00 9.609696e+00 9.612141e+00 9.632986e+00 9.563297e+00 9.583644e+00 9.441073e+00 9.462337e+00 9.247069e+00 9.270616e+00 8.983813e+00 9.010865e+00 8.654678e+00 8.686206e+00 8.263758e+00 8.300390e+00 7.815716e+00 7.857649e+00 7.315623e+00 7.362552e+00 6.768791e+00 6.819870e+00 6.180624e+00 6.234447e+00 5.556498e+00 5.611123e+00 4.901672e+00 4.954676e+00 4.221253e+00 4.269824e+00 3.520191e+00 3.561252e+00 2.803329e+00 2.833688e+00 2.075479e+00 2.092000e+00 1.341527e+00 1.341312e+00 6.065551e-01 5.871151e-01 -1.240508e-01 -1.646280e-01 -8.444940e-01 -9.074089e-01 -1.548500e+00 -1.634141e+00 -2.229286e+00 -2.337179e+00 -2.879592e+00 -3.008390e+00 -3.491756e+00 -3.639292e+00 -4.057862e+00 -4.221243e+00 -4.569934e+00 -4.745679e+00 -5.020185e+00 -5.204387e+00 -5.401293e+00 -5.589798e+00 -5.706686e+00 -5.895279e+00 -5.930830e+00 -6.115407e+00 -6.069475e+00 -6.246197e+00 -6.119857e+00 -6.285282e+00 -6.080830e+00 -6.232010e+00 -5.952915e+00 -6.087465e+00 -5.738264e+00 -5.854406e+00 -5.440551e+00 -5.537115e+00 -5.064783e+00 -5.141195e+00 -4.617069e+00 -4.673309e+00 -4.104355e+00 -4.140901e+00 -3.534158e+00 -3.551912e+00 -2.914313e+00 -2.914527e+00 -2.252756e+00 -2.236951e+00 -1.557343e+00 -1.527238e+00 -8.357290e-01 -7.931702e-01 -9.528289e-02 -4.218566e-02 6.569497e-01 7.186505e-01 1.414251e+00 1.482643e+00 2.170214e+00 2.243437e+00 2.918701e+00 2.994978e+00 
3.724484e+00 3.807702e+00 4.452324e+00 4.534486e+00 5.154486e+00 5.234193e+00 5.825596e+00 5.901607e+00 6.460340e+00 6.531585e+00 7.053458e+00 7.119063e+00 7.599767e+00 7.659069e+00 8.094203e+00 8.146775e+00 8.531887e+00 8.577556e+00 8.908212e+00 8.947080e+00 9.218956e+00 9.251409e+00 9.460408e+00 9.487112e+00 9.629494e+00 9.651391e+00 9.723919e+00 9.742193e+00 9.742278e+00 9.758314e+00 9.684150e+00 9.699470e+00 9.550158e+00 9.566340e+00 9.341974e+00 9.360555e+00 9.062276e+00 9.084648e+00 8.714658e+00 8.741957e+00 8.303493e+00 8.336492e+00 7.833762e+00 7.872771e+00 7.310871e+00 7.355660e+00 6.740461e+00 6.790211e+00 6.128242e+00 6.181522e+00 5.479855e+00 5.534640e+00 4.800777e+00 4.854507e+00 4.096274e+00 4.145950e+00 3.371407e+00 3.413726e+00 2.631089e+00 2.662608e+00 1.880176e+00 1.897498e+00 1.123592e+00 1.123570e+00 3.664702e-01 3.463978e-01 -3.857153e-01 -4.279121e-01 -1.127026e+00 -1.192636e+00 -1.850975e+00 -1.940387e+00 -2.550493e+00 -2.663132e+00 -3.217950e+00 -3.352273e+00 -3.845251e+00 -3.998801e+00 -4.423994e+00 -4.593515e+00 -4.945700e+00 -5.127295e+00 -5.402088e+00 -5.591417e+00 -5.785398e+00 -5.977889e+00 -6.088716e+00 -6.279786e+00 -6.306301e+00 -6.491554e+00 -6.433860e+00 -6.609264e+00 -6.468770e+00 -6.630799e+00 -6.410207e+00 -6.555944e+00 -6.259189e+00 -6.386385e+00 -6.018504e+00 -6.125601e+00 -5.692560e+00 -5.778675e+00 -5.287144e+00 -5.352032e+00 -4.809140e+00 -4.853122e+00 -4.266215e+00 -4.290102e+00 -3.666513e+00 -3.671517e+00 -3.018375e+00 -3.006018e+00 -2.330110e+00 -2.302140e+00 -1.609817e+00 -1.568132e+00 -8.652698e-01 -8.118488e-01 -1.038534e-01 -4.070500e-02 6.674516e-01 7.383342e-01 1.442051e+00 1.518723e+00 2.213694e+00 2.294286e+00 2.976417e+00 3.059154e+00 
3.742078e+00 3.826695e+00 4.485723e+00 4.569538e+00 5.203900e+00 5.285418e+00 5.891182e+00 5.969071e+00 6.542183e+00 6.615289e+00 7.151551e+00 7.218919e+00 7.713980e+00 7.774875e+00 8.224252e+00 8.278184e+00 8.677302e+00 8.724049e+00 9.068314e+00 9.107947e+00 9.392840e+00 9.425736e+00 9.646937e+00 9.673786e+00 9.827321e+00 9.849120e+00 9.931514e+00 9.949542e+00 9.957986e+00 9.973761e+00 9.906261e+00 9.921471e+00 9.776987e+00 9.793404e+00 9.571942e+00 9.591315e+00 9.293991e+00 9.317927e+00 8.946973e+00 8.976808e+00 8.535544e+00 8.572222e+00 8.064979e+00 8.108934e+00 7.540956e+00 7.592022e+00 6.969341e+00 7.026689e+00 6.355999e+00 6.418107e+00 5.706633e+00 5.771307e+00 5.026685e+00 5.091118e+00 4.321287e+00 4.382163e+00 3.595275e+00 3.648920e+00 2.853257e+00 2.895821e+00 2.099734e+00 2.127396e+00 1.339243e+00 1.348435e+00 5.765302e-01 5.641593e-01 -1.832822e-01 -2.196305e-01 -9.345462e-01 -9.964336e-01 -1.670976e+00 -1.758984e+00 -2.385590e+00 -2.499248e+00 -3.070717e+00 -3.208500e+00 -3.718080e+00 -3.877468e+00 -4.318961e+00 -4.496561e+00 -4.864434e+00 -5.056153e+00 -5.345663e+00 -5.546917e+00 -5.754250e+00 -5.960190e+00 -6.082594e+00 -6.288330e+00 -6.324254e+00 -6.525063e+00 -6.474263e+00 -6.665775e+00 -6.529388e+00 -6.707729e+00 -6.488295e+00 -6.650201e+00 -6.351611e+00 -6.494497e+00 -6.121879e+00 -6.243878e+00 -5.803406e+00 -5.903367e+00 -5.402020e+00 -5.479482e+00 -4.924771e+00 -4.979902e+00 -4.379590e+00 -4.413115e+00 -3.774953e+00 -3.788059e+00 -3.119569e+00 -3.113813e+00 -2.422121e+00 -2.399330e+00 -1.691065e+00 -1.653248e+00 -9.344920e-01 -8.837640e-01 -1.600597e-01 -9.857447e-02 6.250307e-01 6.951322e-01 1.414014e+00 1.490643e+00 2.200511e+00 2.281663e+00 2.978467e+00 3.062241e+00 
3.826568e+00 3.917280e+00 4.584323e+00 4.673281e+00 5.315631e+00 5.401353e+00 6.015163e+00 6.096326e+00 6.677572e+00 6.753028e+00 7.297485e+00 7.366277e+00 7.869505e+00 7.930899e+00 8.388264e+00 8.441768e+00 8.848487e+00 8.893888e+00 9.245102e+00 9.282490e+00 9.573371e+00 9.603161e+00 9.829047e+00 9.851991e+00 1.000855e+01 1.002574e+01 1.010914e+01 1.012197e+01 1.012908e+01 1.013923e+01 1.006778e+01 1.007712e+01 9.925862e+00 9.936361e+00 9.705187e+00 9.718824e+00 9.408812e+00 9.427419e+00 9.040866e+00 9.065996e+00 8.606368e+00 8.639156e+00 8.111008e+00 8.152042e+00 7.560896e+00 7.610112e+00 6.962322e+00 7.018928e+00 6.321531e+00 6.383971e+00 5.644546e+00 5.710517e+00 4.937053e+00 5.003562e+00 4.204347e+00 4.267824e+00 3.451352e+00 3.507812e+00 2.682703e+00 2.727943e+00 1.902885e+00 1.932717e+00 1.116410e+00 1.126911e+00 3.280160e-01 3.157732e-01 -4.571351e-01 -4.947835e-01 -1.233278e+00 -1.298045e+00 -1.993912e+00 -2.086409e+00 -2.731724e+00 -2.851380e+00 -3.438599e+00 -3.583646e+00 -4.105707e+00 -4.273256e+00 -4.723693e+00 -4.909872e+00 -5.282947e+00 -5.483112e+00 -5.773950e+00 -5.982934e+00 -6.187674e+00 -6.400061e+00 -6.516010e+00 -6.726404e+00 -6.752171e+00 -6.955448e+00 -6.891068e+00 -7.082587e+00 -6.929585e+00 -7.105352e+00 -6.866759e+00 -7.023539e+00 -6.703822e+00 -6.839201e+00 -6.444118e+00 -6.556510e+00 -6.092887e+00 -6.181507e+00 -5.656956e+00 -5.721755e+00 -5.144361e+00 -5.185938e+00 -4.563945e+00 -4.583436e+00 -3.924964e+00 -3.923932e+00 -3.236744e+00 -3.217068e+00 -2.508407e+00 -2.472175e+00 -1.748673e+00 -1.698095e+00 -9.657408e-01 -9.030755e-01 -1.672484e-01 -9.474361e-02 6.397217e-01 7.198710e-01 1.448588e+00 1.534270e+00 2.253194e+00 2.342401e+00 3.047715e+00 3.138556e+00 
3.849646e+00 3.942817e+00 4.626326e+00 4.717920e+00 5.376675e+00 5.465103e+00 6.095330e+00 6.179169e+00 6.776888e+00 6.854893e+00 7.415880e+00 7.487006e+00 8.006777e+00 8.070202e+00 8.544031e+00 8.599188e+00 9.022141e+00 9.068752e+00 9.435767e+00 9.473878e+00 9.779874e+00 9.809884e+00 1.004991e+01 1.007259e+01 1.024200e+01 1.025851e+01 1.035316e+01 1.036501e+01 1.038146e+01 1.039050e+01 1.032624e+01 1.033454e+01 1.018813e+01 1.019795e+01 9.969162e+00 9.982739e+00 9.672638e+00 9.692100e+00 9.303033e+00 9.330211e+00 8.865770e+00 8.902040e+00 8.366959e+00 8.413091e+00 7.813106e+00 7.869136e+00 7.210831e+00 7.275973e+00 6.566613e+00 6.639216e+00 5.886590e+00 5.964145e+00 5.176428e+00 5.255636e+00 4.441271e+00 4.518165e+00 3.685766e+00 3.755889e+00 2.914168e+00 2.972799e+00 2.130509e+00 2.172918e+00 1.338804e+00 1.360533e+00 5.432947e-01 5.404387e-01 -2.513143e-01 -2.818465e-01 -1.039638e+00 -1.099897e+00 -1.815438e+00 -1.906267e+00 -2.571524e+00 -2.692464e+00 -3.299730e+00 -3.449015e+00 -3.991002e+00 -4.165633e+00 -4.635580e+00 -4.831490e+00 -5.223285e+00 -5.435562e+00 -5.743890e+00 -5.967046e+00 -6.187553e+00 -6.415818e+00 -6.545290e+00 -6.772890e+00 -6.809430e+00 -7.030846e+00 -6.974039e+00 -7.184218e+00 -7.035247e+00 -7.229777e+00 -6.991470e+00 -7.166696e+00 -6.843490e+00 -6.996591e+00 -6.594390e+00 -6.723409e+00 -6.249347e+00 -6.353180e+00 -5.815314e+00 -5.893666e+00 -5.300614e+00 -5.353920e+00 -4.714501e+00 -4.743821e+00 -4.066718e+00 -4.073625e+00 -3.367116e+00 -3.353566e+00 -2.625327e+00 -2.593543e+00 -1.850543e+00 -1.802907e+00 -1.051371e+00 -9.903335e-01 -2.357818e-01 -1.637882e-01 5.888859e-01 6.694473e-01 1.415865e+00 1.502702e+00 2.238874e+00 2.329812e+00 3.052010e+00 3.145012e+00 
3.948977e+00 4.048757e+00 4.741889e+00 4.839072e+00 5.507567e+00 5.600582e+00 6.240773e+00 6.328204e+00 6.936153e+00 7.016752e+00 7.588207e+00 7.660918e+00 8.191291e+00 8.255276e+00 8.739658e+00 8.794336e+00 9.227536e+00 9.272620e+00 9.649247e+00 9.684788e+00 9.999369e+00 1.002580e+01 1.027294e+01 1.029109e+01 1.046568e+01 1.047681e+01 1.057425e+01 1.058000e+01 1.059643e+01 1.059883e+01 1.053136e+01 1.053274e+01 1.037965e+01 1.038250e+01 1.014341e+01 1.015026e+01 9.826202e+00 9.839471e+00 9.432863e+00 9.454668e+00 8.969298e+00 9.001269e+00 8.442156e+00 8.485270e+00 7.858509e+00 7.912941e+00 7.225515e+00 7.290539e+00 6.550135e+00 6.624060e+00 5.838895e+00 5.919074e+00 5.097738e+00 5.180630e+00 4.331967e+00 4.413271e+00 3.546279e+00 3.621125e+00 2.744892e+00 2.808084e+00 1.931736e+00 1.978045e+00 1.110708e+00 1.135181e+00 2.859499e-01 2.842328e-01 -5.378695e-01 -5.692292e-01 -1.355296e+00 -1.418585e+00 -2.159885e+00 -2.256024e+00 -2.944079e+00 -3.072506e+00 -3.699179e+00 -3.857835e+00 -4.415438e+00 -4.600852e+00 -5.082269e+00 -5.289750e+00 -5.688586e+00 -5.912488e+00 -6.223227e+00 -6.457286e+00 -6.675479e+00 -6.913158e+00 -7.035616e+00 -7.270460e+00 -7.295447e+00 -7.521393e+00 -7.448801e+00 -7.660435e+00 -7.491897e+00 -7.684646e+00 -7.423588e+00 -7.593839e+00 -7.245409e+00 -7.390567e+00 -6.961465e+00 -7.079949e+00 -6.578140e+00 -6.669326e+00 -6.103677e+00 -6.167803e+00 -5.547666e+00 -5.585711e+00 -4.920513e+00 -4.934053e+00 -4.232934e+00 -4.223995e+00 -3.495517e+00 -3.466437e+00 -2.718395e+00 -2.671697e+00 -1.911030e+00 -1.849312e+00 -1.082100e+00 -1.007958e+00 -2.394840e-01 -1.554512e-01 6.096809e-01 7.011770e-01 1.458904e+00 1.555564e+00 2.302212e+00 2.401876e+00 3.134016e+00 3.234672e+00 
3.977275e+00 4.080689e+00 4.792248e+00 4.893156e+00 5.580023e+00 5.676737e+00 6.335356e+00 6.426352e+00 7.052859e+00 7.136785e+00 7.726948e+00 7.802646e+00 8.351841e+00 8.418371e+00 8.921584e+00 8.978269e+00 9.430131e+00 9.476600e+00 9.871469e+00 9.907707e+00 1.023979e+01 1.026620e+01 1.052973e+01 1.054715e+01 1.073660e+01 1.074635e+01 1.085671e+01 1.086059e+01 1.088759e+01 1.088782e+01 1.082825e+01 1.082743e+01 1.067931e+01 1.068027e+01 1.044309e+01 1.044874e+01 1.012349e+01 1.013663e+01 9.725839e+00 9.748969e+00 9.256595e+00 9.291676e+00 8.723000e+00 8.771265e+00 8.132678e+00 8.194459e+00 7.493260e+00 7.567862e+00 6.812044e+00 6.897676e+00 6.095733e+00 6.189503e+00 5.350268e+00 5.448259e+00 4.580772e+00 4.678184e+00 3.791595e+00 3.882965e+00 2.986471e+00 3.065945e+00 2.168742e+00 2.230402e+00 1.341664e+00 1.379878e+00 5.087289e-01 5.185140e-01 -3.259966e-01 -3.486329e-01 -1.157562e+00 -1.215327e+00 -1.979882e+00 -2.073973e+00 -2.785571e+00 -2.915550e+00 -3.565889e+00 -3.729666e+00 -4.310815e+00 -4.504754e+00 -5.009261e+00 -5.228392e+00 -5.649422e+00 -5.887741e+00 -6.219239e+00 -6.470069e+00 -6.706963e+00 -6.963329e+00 -7.101761e+00 -7.356750e+00 -7.394321e+00 -7.641398e+00 -7.577404e+00 -7.810670e+00 -7.646288e+00 -7.860670e+00 -7.599061e+00 -7.790441e+00 -7.436723e+00 -7.602012e+00 -7.163100e+00 -7.300259e+00 -6.784560e+00 -6.892578e+00 -6.309581e+00 -6.388405e+00 -5.748199e+00 -5.798631e+00 -5.111423e+00 -5.134979e+00 -4.410660e+00 -4.409418e+00 -3.657214e+00 -3.633654e+00 -2.861905e+00 -2.818755e+00 -2.034801e+00 -1.974908e+00 -1.185087e+00 -1.111312e+00 -3.210414e-01 -2.361771e-01 5.499138e-01 6.431939e-01 1.421098e+00 1.520272e+00 2.286429e+00 2.389143e+00 3.140270e+00 3.244341e+00 
4.092394e+00 4.202903e+00 4.925521e+00 5.032445e+00 5.730691e+00 5.832363e+00 6.502820e+00 6.597723e+00 7.236582e+00 7.323353e+00 7.926357e+00 8.003812e+00 8.566220e+00 8.633387e+00 9.149971e+00 9.206133e+00 9.671214e+00 9.715968e+00 1.012350e+01 1.015682e+01 1.050052e+01 1.052281e+01 1.079635e+01 1.080851e+01 1.100578e+01 1.100923e+01 1.112460e+01 1.112129e+01 1.114994e+01 1.114232e+01 1.108054e+01 1.107148e+01 1.091695e+01 1.090960e+01 1.066159e+01 1.065923e+01 1.031867e+01 1.032448e+01 9.894008e+00 9.910846e+00 9.394693e+00 9.424864e+00 8.828677e+00 8.873692e+00 8.204320e+00 8.264706e+00 7.529952e+00 7.605103e+00 6.813482e+00 6.901569e+00 6.062086e+00 6.160051e+00 5.282022e+00 5.385645e+00 4.478561e+00 4.582614e+00 3.656049e+00 3.754526e+00 2.818081e+00 2.904506e+00 1.967780e+00 2.035565e+00 1.108144e+00 1.150988e+00 2.424322e-01 2.547311e-01 -6.254396e-01 -6.481925e-01 -1.490533e+00 -1.551399e+00 -2.346589e+00 -2.446912e+00 -3.185826e+00 -3.325073e+00 -3.998874e+00 -4.174602e+00 -4.774850e+00 -4.982820e+00 -5.501606e+00 -5.736032e+00 -6.166138e+00 -6.420046e+00 -6.755133e+00 -7.020803e+00 -7.255636e+00 -7.525066e+00 -7.655768e+00 -7.921131e+00 -7.945449e+00 -8.199485e+00 -8.117047e+00 -8.353379e+00 -8.165889e+00 -8.379242e+00 -8.090578e+00 -8.276908e+00 -7.893075e+00 -8.049613e+00 -7.578534e+00 -7.703753e+00 -7.154902e+00 -7.248433e+00 -6.632340e+00 -6.694832e+00 -6.022528e+00 -6.055480e+00 -5.337942e+00 -5.343515e+00 -4.591188e+00 -4.572016e+00 -3.794453e+00 -3.753459e+00 -2.959102e+00 -2.899348e+00 -2.095449e+00 -2.020009e+00 -1.212671e+00 -1.124542e+00 -3.188420e-01 -2.208821e-01 5.789462e-01 6.840515e-01 1.474418e+00 1.584169e+00 2.361920e+00 2.474004e+00 3.236235e+00 3.348516e+00 