# vtk DataFile Version 2.0
Comment goes here
ASCII

DATASET STRUCTURED_POINTS
FIELD FieldData 1
TIME 1 1 double
0.08000000
DIMENSIONS    128   128   1

ORIGIN    0.000   0.000   0.000
SPACING   0.039062 0.039062   1.000

POINT_DATA   16384
SCALARS P double
LOOKUP_TABLE default

-8.327116e+00 -8.122846e+00 -7.401848e+00 -7.413667e+00 -6.669659e+00 -6.893489e+00 -6.133143e+00 -6.564142e+00 -5.793983e+00 -6.426655e+00 -5.653053e+00 -6.481330e+00 -5.710495e+00 -6.727805e+00 -5.965775e+00 -7.165077e+00 -6.417697e+00 -7.791505e+00 -7.064408e+00 -8.604783e+00 -7.903352e+00 -9.601884e+00 -8.931217e+00 -1.077897e+01 -1.014384e+01 -1.213130e+01 -1.153612e+01 -1.365307e+01 -1.310183e+01 -1.533728e+01 -1.483355e+01 -1.717553e+01 -1.672241e+01 -1.915790e+01 -1.875801e+01 -2.127271e+01 -2.092817e+01 -2.350633e+01 -2.321881e+01 -2.584310e+01 -2.561377e+01 -2.826510e+01 -2.809471e+01 -3.075212e+01 -3.064100e+01 -3.328163e+01 -3.322972e+01 -3.582880e+01 -3.583569e+01 -3.836663e+01 -3.843163e+01 -4.086621e+01 -4.098834e+01 -4.329702e+01 -4.347510e+01 -4.562746e+01 -4.586009e+01 -4.782533e+01 -4.811098e+01 -4.985864e+01 -5.019561e+01 -5.169630e+01 -5.208277e+01 -5.330905e+01 -5.374303e+01 -5.467032e+01 -5.514962e+01 -5.575712e+01 -5.627927e+01 -5.655086e+01 -5.711303e+01 -5.703807e+01 -5.763689e+01 -5.721089e+01 -5.784234e+01 -5.706742e+01 -5.772664e+01 -5.661172e+01 -5.729290e+01 -5.585364e+01 -5.654993e+01 -5.480833e+01 -5.551180e+01 -5.349559e+01 -5.419728e+01 -5.193902e+01 -5.262909e+01 -5.016513e+01 -5.083306e+01 -4.820232e+01 -4.883728e+01 -4.608008e+01 -4.667124e+01 -4.382814e+01 -4.436508e+01 -4.147586e+01 -4.194894e+01 -3.905171e+01 -3.945244e+01 -3.658296e+01 -3.690427e+01 -3.409546e+01 -3.433192e+01 -3.161355e+01 -3.176150e+01 -2.916001e+01 -2.921758e+01 -2.675610e+01 -2.672316e+01 -2.442150e+01 -2.429955e+01 -2.217439e+01 -2.196635e+01 -2.003140e+01 -1.974142e+01 -1.800762e+01 -1.764084e+01 -1.611658e+01 -1.567888e+01 -1.437025e+01 -1.386805e+01 -1.277905e+01 -1.221913e+01 -1.135190e+01 -1.074120e+01 -1.009627e+01 -9.441833e+00 -9.018296e+00 
-7.601484e+00 -7.367264e+00 -6.710845e+00 -6.694307e+00 -6.012924e+00 -6.209568e+00 -5.510067e+00 -5.914684e+00 -5.203731e+00 -5.810508e+00 -5.094587e+00 -5.897191e+00 -5.182595e+00 -6.174229e+00 -5.467055e+00 -6.640494e+00 -5.946624e+00 -7.294225e+00 -6.619303e+00 -8.133001e+00 -7.482406e+00 -9.153682e+00 -8.532488e+00 -1.035232e+01 -9.765259e+00 -1.172404e+01 -1.117546e+01 -1.326291e+01 -1.275676e+01 -1.496178e+01 -1.450155e+01 -1.681213e+01 -1.640084e+01 -1.880385e+01 -1.844405e+01 -2.092508e+01 -2.061884e+01 -2.316203e+01 -2.291097e+01 -2.549884e+01 -2.530414e+01 -2.791743e+01 -2.777985e+01 -3.039741e+01 -3.031738e+01 -3.291610e+01 -3.289372e+01 -3.544854e+01 -3.548365e+01 -3.796766e+01 -3.805989e+01 -4.044452e+01 -4.059331e+01 -4.284861e+01 -4.305332e+01 -4.514841e+01 -4.540827e+01 -4.731190e+01 -4.762609e+01 -4.930730e+01 -4.967494e+01 -5.110386e+01 -5.152400e+01 -5.267271e+01 -5.314428e+01 -5.398776e+01 -5.450950e+01 -5.502661e+01 -5.559695e+01 -5.577130e+01 -5.638821e+01 -5.620907e+01 -5.686989e+01 -5.633283e+01 -5.703405e+01 -5.614144e+01 -5.687854e+01 -5.563976e+01 -5.640699e+01 -5.483840e+01 -5.562871e+01 -5.375323e+01 -5.455822e+01 -5.240469e+01 -5.321467e+01 -5.081692e+01 -5.162106e+01 -4.901682e+01 -4.980348e+01 -4.703311e+01 -4.779016e+01 -4.489540e+01 -4.561070e+01 -4.263349e+01 -4.329528e+01 -4.027663e+01 -4.087402e+01 -3.785315e+01 -3.837652e+01 -3.539006e+01 -3.583137e+01 -3.291292e+01 -3.326595e+01 -3.044572e+01 -3.070623e+01 -2.801088e+01 -2.817660e+01 -2.562925e+01 -2.569983e+01 -2.332013e+01 -2.329701e+01 -2.110130e+01 -2.098747e+01 -1.898897e+01 -1.878875e+01 -1.699785e+01 -1.671663e+01 -1.514108e+01 -1.478502e+01 -1.343026e+01 -1.300611e+01 -1.187545e+01 -1.139030e+01 -1.048524e+01 -9.946353e+00 -9.266787e+00 -8.681486e+00 -8.225925e+00 
-8.239040e+00 -8.036468e+00 -7.312145e+00 -7.326036e+00 -6.578700e+00 -6.804915e+00 -6.041248e+00 -6.474898e+00 -5.701434e+00 -6.336986e+00 -5.560108e+00 -6.391474e+00 -5.617406e+00 -6.638000e+00 -5.872799e+00 -7.075582e+00 -6.325116e+00 -7.702611e+00 -6.972538e+00 -8.516830e+00 -7.812560e+00 -9.515271e+00 -8.841932e+00 -1.069417e+01 -1.005657e+01 -1.204887e+01 -1.145142e+01 -1.357364e+01 -1.302039e+01 -1.526159e+01 -1.475611e+01 -1.710444e+01 -1.664983e+01 -1.909233e+01 -1.869123e+01 -2.121367e+01 -2.086821e+01 -2.345496e+01 -2.316677e+01 -2.580055e+01 -2.557082e+01 -2.823259e+01 -2.806204e+01 -3.073090e+01 -3.061983e+01 -3.327289e+01 -3.322123e+01 -3.583368e+01 -3.584101e+01 -3.838617e+01 -3.845176e+01 -4.090124e+01 -4.102412e+01 -4.334818e+01 -4.352713e+01 -4.569507e+01 -4.592868e+01 -4.790939e+01 -4.819611e+01 -4.995872e+01 -5.029687e+01 -5.181156e+01 -5.219931e+01 -5.343818e+01 -5.387356e+01 -5.481156e+01 -5.529241e+01 -5.590829e+01 -5.643219e+01 -5.670941e+01 -5.727357e+01 -5.720116e+01 -5.780228e+01 -5.737550e+01 -5.800962e+01 -5.723047e+01 -5.789278e+01 -5.677021e+01 -5.745494e+01 -5.600476e+01 -5.670506e+01 -5.494958e+01 -5.565748e+01 -5.362488e+01 -5.433135e+01 -5.205472e+01 -5.274978e+01 -5.026606e+01 -5.093908e+01 -4.828779e+01 -4.892775e+01 -4.614982e+01 -4.674573e+01 -4.388225e+01 -4.442353e+01 -4.151476e+01 -4.199162e+01 -3.907605e+01 -3.947989e+01 -3.659356e+01 -3.691725e+01 -3.409326e+01 -3.433132e+01 -3.159954e+01 -3.174832e+01 -2.913523e+01 -2.919288e+01 -2.672155e+01 -2.668801e+01 -2.437820e+01 -2.425503e+01 -2.212330e+01 -2.191352e+01 -1.997346e+01 -1.968130e+01 -1.794370e+01 -1.757440e+01 -1.604751e+01 -1.560702e+01 -1.429679e+01 -1.379161e+01 -1.270189e+01 -1.213885e+01 -1.127167e+01 -1.065776e+01 -1.001353e+01 -9.355821e+00 -8.933529e+00 
-7.425462e+00 -7.195116e+00 -6.531837e+00 -6.519867e+00 -5.831650e+00 -6.033433e+00 -5.327143e+00 -5.737376e+00 -5.019698e+00 -5.632503e+00 -4.909943e+00 -5.718945e+00 -4.997824e+00 -5.996211e+00 -5.282659e+00 -6.463212e+00 -5.763154e+00 -7.118258e+00 -6.437389e+00 -7.959028e+00 -7.302778e+00 -8.982503e+00 -8.356004e+00 -1.018488e+01 -9.592921e+00 -1.156146e+01 -1.100844e+01 -1.310648e+01 -1.259638e+01 -1.481300e+01 -1.434935e+01 -1.667269e+01 -1.625851e+01 -1.867562e+01 -1.831347e+01 -2.081012e+01 -2.050206e+01 -2.306257e+01 -2.281019e+01 -2.541722e+01 -2.522167e+01 -2.785607e+01 -2.771806e+01 -3.035875e+01 -3.027867e+01 -3.290253e+01 -3.288043e+01 -3.546231e+01 -3.549797e+01 -3.801077e+01 -3.810377e+01 -4.051861e+01 -4.066837e+01 -4.295487e+01 -4.316069e+01 -4.528742e+01 -4.554852e+01 -4.748356e+01 -4.779910e+01 -4.951069e+01 -4.987982e+01 -5.133721e+01 -5.175899e+01 -5.293331e+01 -5.340676e+01 -5.427203e+01 -5.479598e+01 -5.533009e+01 -5.590310e+01 -5.608883e+01 -5.670903e+01 -5.653492e+01 -5.719982e+01 -5.666093e+01 -5.736719e+01 -5.646563e+01 -5.720886e+01 -5.595406e+01 -5.672860e+01 -5.513725e+01 -5.593606e+01 -5.403173e+01 -5.484631e+01 -5.265874e+01 -5.347922e+01 -5.104336e+01 -5.185865e+01 -4.921345e+01 -5.001154e+01 -4.719865e+01 -4.796703e+01 -4.502945e+01 -4.575556e+01 -4.273636e+01 -4.340807e+01 -4.034926e+01 -4.095534e+01 -3.789690e+01 -3.842747e+01 -3.540665e+01 -3.585349e+01 -3.290424e+01 -3.326107e+01 -3.041380e+01 -3.067636e+01 -2.795779e+01 -2.812389e+01 -2.555704e+01 -2.562647e+01 -2.323081e+01 -2.320518e+01 -2.099680e+01 -2.087932e+01 -1.887116e+01 -1.866634e+01 -1.686847e+01 -1.658191e+01 -1.500177e+01 -1.463981e+01 -1.328252e+01 -1.285207e+01 -1.172066e+01 -1.122894e+01 -1.032462e+01 -9.778999e+00 -9.101423e+00 -8.509300e+00 -8.056763e+00 
-7.974537e+00 -7.777126e+00 -7.042810e+00 -7.062975e+00 -6.305638e+00 -6.539055e+00 -5.765408e+00 -6.207042e+00 -5.423647e+00 -6.067862e+00 -5.281137e+00 -6.121774e+00 -5.337987e+00 -6.368430e+00 -5.593692e+00 -6.806902e+00 -6.047150e+00 -7.435685e+00 -6.696653e+00 -8.252661e+00 -7.539845e+00 -9.255046e+00 -8.573662e+00 -1.043929e+01 -9.794230e+00 -1.180099e+01 -1.119676e+01 -1.333469e+01 -1.277538e+01 -1.503378e+01 -1.452303e+01 -1.689027e+01 -1.643122e+01 -1.889463e+01 -1.848992e+01 -2.103553e+01 -2.068729e+01 -2.329971e+01 -2.300956e+01 -2.567175e+01 -2.544082e+01 -2.813392e+01 -2.796288e+01 -3.066607e+01 -3.055519e+01 -3.324559e+01 -3.319472e+01 -3.584737e+01 -3.585604e+01 -3.844397e+01 -3.851139e+01 -4.100579e+01 -4.113092e+01 -4.350139e+01 -4.368296e+01 -4.589800e+01 -4.613456e+01 -4.816203e+01 -4.845201e+01 -5.025988e+01 -5.060156e+01 -5.215871e+01 -5.255028e+01 -5.382741e+01 -5.426696e+01 -5.523756e+01 -5.572302e+01 -5.636446e+01 -5.689354e+01 -5.718800e+01 -5.775809e+01 -5.769356e+01 -5.830154e+01 -5.787253e+01 -5.851463e+01 -5.772276e+01 -5.839435e+01 -5.724863e+01 -5.794404e+01 -5.646078e+01 -5.717316e+01 -5.537564e+01 -5.609692e+01 -5.401464e+01 -5.473554e+01 -5.240321e+01 -5.311343e+01 -5.056980e+01 -5.125823e+01 -4.854471e+01 -4.919985e+01 -4.635918e+01 -4.696949e+01 -4.404444e+01 -4.459885e+01 -4.163108e+01 -4.211938e+01 -3.914852e+01 -3.956178e+01 -3.662471e+01 -3.695556e+01 -3.408593e+01 -3.432880e+01 -3.155677e+01 -3.170799e+01 -2.906010e+01 -2.911794e+01 -2.661716e+01 -2.658173e+01 -2.424756e+01 -2.412066e+01 -2.196935e+01 -2.175426e+01 -1.979898e+01 -1.950021e+01 -1.775135e+01 -1.737440e+01 -1.583976e+01 -1.539083e+01 -1.407593e+01 -1.356173e+01 -1.247001e+01 -1.189754e+01 -1.103064e+01 -1.040704e+01 -9.765019e+00 -9.097449e+00 -8.678976e+00 
-7.072891e+00 -6.850432e+00 -6.173397e+00 -6.170674e+00 -5.468759e+00 -5.680903e+00 -4.961009e+00 -5.382531e+00 -4.651376e+00 -5.276268e+00 -4.540396e+00 -5.362205e+00 -4.627991e+00 -5.639873e+00 -4.913517e+00 -6.108265e+00 -5.395778e+00 -6.765835e+00 -6.073010e+00 -7.610457e+00 -6.942838e+00 -8.639365e+00 -8.002198e+00 -9.849053e+00 -9.247240e+00 -1.123515e+01 -1.067320e+01 -1.279229e+01 -1.227426e+01 -1.451390e+01 -1.404337e+01 -1.639205e+01 -1.597209e+01 -1.841723e+01 -1.805039e+01 -2.057812e+01 -2.026645e+01 -2.286143e+01 -2.260646e+01 -2.525168e+01 -2.505447e+01 -2.773103e+01 -2.759223e+01 -3.027918e+01 -3.019905e+01 -3.287328e+01 -3.285177e+01 -3.548797e+01 -3.552478e+01 -3.809545e+01 -3.819006e+01 -4.066573e+01 -4.081746e+01 -4.316691e+01 -4.337499e+01 -4.556568e+01 -4.582927e+01 -4.782791e+01 -4.814616e+01 -4.991940e+01 -5.029146e+01 -5.180673e+01 -5.223175e+01 -5.345827e+01 -5.393538e+01 -5.484517e+01 -5.537340e+01 -5.594241e+01 -5.652061e+01 -5.672983e+01 -5.735644e+01 -5.719292e+01 -5.786583e+01 -5.732355e+01 -5.803976e+01 -5.712029e+01 -5.787572e+01 -5.658854e+01 -5.737772e+01 -5.574023e+01 -5.655613e+01 -5.459321e+01 -5.542718e+01 -5.317044e+01 -5.401223e+01 -5.149891e+01 -5.233685e+01 -4.960845e+01 -5.042982e+01 -4.753066e+01 -4.832211e+01 -4.529775e+01 -4.604587e+01 -4.294172e+01 -4.363360e+01 -4.049367e+01 -4.111738e+01 -3.798325e+01 -3.852838e+01 -3.543844e+01 -3.589644e+01 -3.288540e+01 -3.324980e+01 -3.034843e+01 -3.061501e+01 -2.785007e+01 -2.801679e+01 -2.541111e+01 -2.547807e+01 -2.305072e+01 -2.301989e+01 -2.078645e+01 -2.066145e+01 -1.863426e+01 -1.842006e+01 -1.660854e+01 -1.631111e+01 -1.472209e+01 -1.434817e+01 -1.298610e+01 -1.254292e+01 -1.141025e+01 -1.090528e+01 -1.000268e+01 -9.443505e+00 -8.770113e+00 -8.164277e+00 -7.717961e+00 
-7.532794e+00 -7.344217e+00 -6.593187e+00 -6.623997e+00 -5.849943e+00 -6.095505e+00 -5.305177e+00 -5.760220e+00 -4.960223e+00 -5.618935e+00 -4.815739e+00 -5.671854e+00 -4.871797e+00 -5.918645e+00 -5.127930e+00 -6.358474e+00 -5.583150e+00 -6.990004e+00 -6.235938e+00 -7.811359e+00 -7.084194e+00 -8.820061e+00 -8.125164e+00 -1.001293e+01 -9.355343e+00 -1.138597e+01 -1.077034e+01 -1.293421e+01 -1.236475e+01 -1.465153e+01 -1.413196e+01 -1.653044e+01 -1.606396e+01 -1.856192e+01 -1.815120e+01 -2.073514e+01 -2.038228e+01 -2.303726e+01 -2.274385e+01 -2.545322e+01 -2.522032e+01 -2.796554e+01 -2.779375e+01 -3.055418e+01 -3.044366e+01 -3.319643e+01 -3.314695e+01 -3.586691e+01 -3.587788e+01 -3.853761e+01 -3.860814e+01 -4.117809e+01 -4.130704e+01 -4.375578e+01 -4.394178e+01 -4.623641e+01 -4.647794e+01 -4.858465e+01 -4.888007e+01 -5.076484e+01 -5.111239e+01 -5.274187e+01 -5.313978e+01 -5.448225e+01 -5.492867e+01 -5.595517e+01 -5.644818e+01 -5.713363e+01 -5.767118e+01 -5.799557e+01 -5.857534e+01 -5.852479e+01 -5.914401e+01 -5.871171e+01 -5.936697e+01 -5.855386e+01 -5.924084e+01 -5.805599e+01 -5.876921e+01 -5.722982e+01 -5.796248e+01 -5.609345e+01 -5.683731e+01 -5.467044e+01 -5.541583e+01 -5.298869e+01 -5.372467e+01 -5.107915e+01 -5.179385e+01 -4.897463e+01 -4.965563e+01 -4.670858e+01 -4.734345e+01 -4.431420e+01 -4.489098e+01 -4.182361e+01 -4.233136e+01 -3.926742e+01 -3.969661e+01 -3.667437e+01 -3.701727e+01 -3.407126e+01 -3.432212e+01 -3.148293e+01 -3.163811e+01 -2.893234e+01 -2.899030e+01 -2.644069e+01 -2.640184e+01 -2.402745e+01 -2.389403e+01 -2.171050e+01 -2.148624e+01 -1.950608e+01 -1.919598e+01 -1.742882e+01 -1.703883e+01 -1.549174e+01 -1.502849e+01 -1.370624e+01 -1.317680e+01 -1.208215e+01 -1.149380e+01 -1.062773e+01 -9.987848e+00 -9.349821e+00 -8.665722e+00 -8.253892e+00 
-6.542747e+00 -6.332470e+00 -5.634713e+00 -5.646136e+00 -4.923605e+00 -5.151496e+00 -4.411131e+00 -4.849727e+00 -4.098284e+00 -4.741386e+00 -3.985463e+00 -4.826505e+00 -4.072552e+00 -5.104644e+00 -4.358963e+00 -5.574921e+00 -4.843653e+00 -6.236005e+00 -5.525098e+00 -7.086071e+00 -6.401244e+00 -8.122736e+00 -7.469417e+00 -9.342948e+00 -8.726217e+00 -1.074286e+01 -1.016738e+01 -1.231766e+01 -1.178763e+01 -1.406139e+01 -1.358050e+01 -1.596674e+01 -1.553810e+01 -1.802480e+01 -1.765097e+01 -2.022486e+01 -1.990783e+01 -2.255413e+01 -2.229535e+01 -2.499757e+01 -2.479798e+01 -2.753761e+01 -2.739772e+01 -3.015407e+01 -3.007399e+01 -3.282399e+01 -3.280352e+01 -3.552164e+01 -3.556030e+01 -3.821854e+01 -3.831566e+01 -4.088366e+01 -4.103842e+01 -4.348369e+01 -4.369522e+01 -4.598356e+01 -4.625092e+01 -4.834696e+01 -4.866925e+01 -5.053720e+01 -5.091358e+01 -5.251812e+01 -5.294783e+01 -5.425514e+01 -5.473751e+01 -5.571651e+01 -5.625087e+01 -5.687445e+01 -5.746005e+01 -5.770637e+01 -5.834220e+01 -5.819591e+01 -5.888042e+01 -5.833378e+01 -5.906459e+01 -5.811823e+01 -5.889175e+01 -5.755520e+01 -5.836633e+01 -5.665804e+01 -5.749984e+01 -5.544676e+01 -5.631033e+01 -5.394703e+01 -5.482154e+01 -5.218889e+01 -5.306175e+01 -5.020531e+01 -5.106264e+01 -4.803090e+01 -4.885803e+01 -4.570060e+01 -4.648276e+01 -4.324871e+01 -4.397169e+01 -4.070811e+01 -4.135893e+01 -3.810981e+01 -3.867722e+01 -3.548267e+01 -3.595759e+01 -3.285339e+01 -3.322913e+01 -3.024653e+01 -3.051892e+01 -2.768466e+01 -2.785197e+01 -2.518850e+01 -2.525128e+01 -2.277703e+01 -2.273787e+01 -2.046757e+01 -2.033075e+01 -1.827580e+01 -1.804696e+01 -1.621578e+01 -1.590157e+01 -1.429996e+01 -1.390768e+01 -1.253916e+01 -1.207653e+01 -1.094262e+01 -1.041750e+01 -9.518046e+00 -8.938324e+00 -8.271713e+00 -7.645145e+00 -7.208588e+00 
-6.912505e+00 -6.736780e+00 -5.962235e+00 -6.008336e+00 -5.210781e+00 -5.473645e+00 -4.659872e+00 -5.133895e+00 -4.310554e+00 -4.989691e+00 -4.163314e+00 -5.041147e+00 -4.218164e+00 -5.287954e+00 -4.474694e+00 -5.729411e+00 -4.932085e+00 -6.364420e+00 -5.589086e+00 -7.191446e+00 -6.443963e+00 -8.208448e+00 -7.494411e+00 -9.412776e+00 -8.737447e+00 -1.080103e+01 -1.016927e+01 -1.236892e+01 -1.178510e+01 -1.411101e+01 -1.357900e+01 -1.602059e+01 -1.554367e+01 -1.808935e+01 -1.767022e+01 -2.030720e+01 -1.994793e+01 -2.266193e+01 -2.236405e+01 -2.513903e+01 -2.490350e+01 -2.772142e+01 -2.754872e+01 -3.038926e+01 -3.027940e+01 -3.311977e+01 -3.307237e+01 -3.588721e+01 -3.590153e+01 -3.866283e+01 -3.873784e+01 -4.141505e+01 -4.154947e+01 -4.410969e+01 -4.430202e+01 -4.671045e+01 -4.695902e+01 -4.917944e+01 -4.948251e+01 -5.147806e+01 -5.183383e+01 -5.356792e+01 -5.397460e+01 -5.541201e+01 -5.586786e+01 -5.697598e+01 -5.747928e+01 -5.822945e+01 -5.877847e+01 -5.914736e+01 -5.974024e+01 -5.971116e+01 -6.034568e+01 -5.990976e+01 -6.058307e+01 -5.974017e+01 -6.044847e+01 -5.920772e+01 -5.994590e+01 -5.832571e+01 -5.908709e+01 -5.711480e+01 -5.789090e+01 -5.560176e+01 -5.638234e+01 -5.381815e+01 -5.459136e+01 -5.179873e+01 -5.255149e+01 -4.957995e+01 -5.029849e+01 -4.719857e+01 -4.786904e+01 -4.469055e+01 -4.529970e+01 -4.209023e+01 -4.262600e+01 -3.942981e+01 -3.988183e+01 -3.673909e+01 -3.709910e+01 -3.404552e+01 -3.430754e+01 -3.137420e+01 -3.153466e+01 -2.874814e+01 -2.880581e+01 -2.618843e+01 -2.614423e+01 -2.371432e+01 -2.357111e+01 -2.134341e+01 -2.110564e+01 -1.909161e+01 -1.876499e+01 -1.697321e+01 -1.656436e+01 -1.500082e+01 -1.451698e+01 -1.318539e+01 -1.263415e+01 -1.153626e+01 -1.092532e+01 -1.006119e+01 -9.398221e+00 -8.766473e+00 -8.059025e+00 -7.657079e+00 
-5.833567e+00 -5.640179e+00 -4.914646e+00 -4.945438e+00 -4.195302e+00 -4.444565e+00 -3.676795e+00 -4.138411e+00 -3.359796e+00 -4.027321e+00 -3.244514e+00 -4.111236e+00 -3.330778e+00 -4.389757e+00 -3.618083e+00 -4.862167e+00 -4.105595e+00 -5.527425e+00 -4.792121e+00 -6.384118e+00 -5.676046e+00 -7.430382e+00 -6.755232e+00 -8.663788e+00 -8.026897e+00 -1.008120e+01 -9.487470e+00 -1.167858e+01 -1.113241e+01 -1.345082e+01 -1.295602e+01 -1.539146e+01 -1.495123e+01 -1.749247e+01 -1.710936e+01 -1.974394e+01 -1.941988e+01 -2.213385e+01 -2.187016e+01 -2.464776e+01 -2.444522e+01 -2.726857e+01 -2.712747e+01 -2.997629e+01 -2.989653e+01 -3.274791e+01 -3.272905e+01 -3.555725e+01 -3.559859e+01 -3.837497e+01 -3.847564e+01 -4.116871e+01 -4.132771e+01 -4.390334e+01 -4.411960e+01 -4.654134e+01 -4.681380e+01 -4.904351e+01 -4.937117e+01 -5.136968e+01 -5.175170e+01 -5.347987e+01 -5.391557e+01 -5.533540e+01 -5.582434e+01 -5.690034e+01 -5.744225e+01 -5.814295e+01 -5.873768e+01 -5.903714e+01 -5.968442e+01 -5.956382e+01 -6.026299e+01 -5.971196e+01 -6.046156e+01 -5.947932e+01 -6.027658e+01 -5.887263e+01 -5.971301e+01 -5.790726e+01 -5.878405e+01 -5.660636e+01 -5.751038e+01 -5.499956e+01 -5.591916e+01 -5.312131e+01 -5.404259e+01 -5.100910e+01 -5.191645e+01 -4.870184e+01 -4.957864e+01 -4.623825e+01 -4.706774e+01 -4.365578e+01 -4.442191e+01 -4.098973e+01 -4.167796e+01 -3.827283e+01 -3.887076e+01 -3.553505e+01 -3.603288e+01 -3.280367e+01 -3.319445e+01 -3.010348e+01 -3.038317e+01 -2.745702e+01 -2.762436e+01 -2.488481e+01 -2.494109e+01 -2.240555e+01 -2.235424e+01 -2.003620e+01 -1.988257e+01 -1.779207e+01 -1.754272e+01 -1.568680e+01 -1.534927e+01 -1.373233e+01 -1.331475e+01 -1.193898e+01 -1.144973e+01 -1.031541e+01 -9.762888e+00 -8.868716e+00 -8.261193e+00 -7.604564e+00 -6.950062e+00 -6.527311e+00 
-6.111939e+00 -5.953564e+00 -5.148606e+00 -5.215024e+00 -4.387108e+00 -4.672716e+00 -3.828657e+00 -4.327437e+00 -3.473917e+00 -4.179527e+00 -3.323142e+00 -4.228981e+00 -3.376269e+00 -4.475514e+00 -3.632963e+00 -4.918595e+00 -4.092627e+00 -5.557437e+00 -4.754372e+00 -6.390955e+00 -5.616945e+00 -7.417686e+00 -6.678638e+00 -8.635672e+00 -7.937162e+00 -1.004232e+01 -9.389491e+00 -1.163420e+01 -1.103169e+01 -1.340687e+01 -1.285871e+01 -1.535459e+01 -1.486418e+01 -1.747007e+01 -1.704014e+01 -1.974418e+01 -1.937678e+01 -2.216564e+01 -2.186218e+01 -2.472071e+01 -2.448200e+01 -2.739289e+01 -2.721924e+01 -3.016269e+01 -3.005391e+01 -3.300734e+01 -3.296286e+01 -3.590072e+01 -3.591961e+01 -3.881322e+01 -3.889425e+01 -4.171185e+01 -4.185353e+01 -4.456040e+01 -4.476106e+01 -4.731990e+01 -4.757770e+01 -4.994916e+01 -5.026218e+01 -5.240562e+01 -5.277195e+01 -5.464647e+01 -5.506429e+01 -5.662990e+01 -5.709755e+01 -5.831665e+01 -5.883266e+01 -5.967161e+01 -6.023471e+01 -6.066551e+01 -6.127445e+01 -6.127640e+01 -6.192977e+01 -6.149103e+01 -6.218685e+01 -6.130563e+01 -6.204091e+01 -6.072627e+01 -6.149653e+01 -5.976855e+01 -6.056735e+01 -5.845670e+01 -5.927535e+01 -5.682208e+01 -5.764956e+01 -5.490143e+01 -5.572458e+01 -5.273483e+01 -5.353886e+01 -5.036379e+01 -5.113295e+01 -4.782955e+01 -4.854801e+01 -4.517178e+01 -4.582442e+01 -4.242764e+01 -4.300085e+01 -3.963132e+01 -4.011360e+01 -3.681388e+01 -3.719627e+01 -3.400340e+01 -3.427968e+01 -3.122521e+01 -3.139195e+01 -2.850224e+01 -2.855869e+01 -2.585529e+01 -2.580314e+01 -2.330331e+01 -2.314633e+01 -2.086348e+01 -2.060711e+01 -1.855130e+01 -1.820225e+01 -1.638058e+01 -1.594640e+01 -1.436340e+01 -1.385216e+01 -1.251015e+01 -1.193012e+01 -1.082953e+01 -1.018893e+01 -9.328612e+00 -8.635507e+00 -8.012995e+00 -7.275186e+00 -6.886941e+00 
-4.943543e+00 -4.772295e+00 -4.011828e+00 -4.067634e+00 -3.282829e+00 -3.559401e+00 -2.757220e+00 -3.248008e+00 -2.435249e+00 -3.133520e+00 -2.316879e+00 -3.215754e+00 -2.401868e+00 -3.494354e+00 -2.689821e+00 -3.968812e+00 -3.180178e+00 -4.638457e+00 -3.872176e+00 -5.502401e+00 -4.764768e+00 -6.559448e+00 -5.856511e+00 -7.807971e+00 -7.145425e+00 -9.245750e+00 -8.628826e+00 -1.086978e+01 -1.030314e+01 -1.267602e+01 -1.216368e+01 -1.465916e+01 -1.420441e+01 -1.681231e+01 -1.641771e+01 -1.912668e+01 -1.879405e+01 -2.159126e+01 -2.132174e+01 -2.419247e+01 -2.398660e+01 -2.691389e+01 -2.677168e+01 -2.973591e+01 -2.965695e+01 -3.263552e+01 -3.261908e+01 -3.558612e+01 -3.563121e+01 -3.855740e+01 -3.866288e+01 -4.151542e+01 -4.168002e+01 -4.442276e+01 -4.464519e+01 -4.723891e+01 -4.751789e+01 -4.992087e+01 -5.025527e+01 -5.242404e+01 -5.281293e+01 -5.470334e+01 -5.514611e+01 -5.671460e+01 -5.721105e+01 -5.841625e+01 -5.896661e+01 -5.977109e+01 -6.037596e+01 -6.074816e+01 -6.140832e+01 -6.132449e+01 -6.204053e+01 -6.148660e+01 -6.225841e+01 -6.123144e+01 -6.205754e+01 -6.056680e+01 -6.144362e+01 -5.951089e+01 -6.043215e+01 -5.809126e+01 -5.904749e+01 -5.634304e+01 -5.732152e+01 -5.430683e+01 -5.529182e+01 -5.202636e+01 -5.299981e+01 -4.954633e+01 -5.048885e+01 -4.691051e+01 -4.780253e+01 -4.416040e+01 -4.498330e+01 -4.133433e+01 -4.207143e+01 -3.846703e+01 -3.910442e+01 -3.558969e+01 -3.611667e+01 -3.273010e+01 -3.313947e+01 -2.991314e+01 -3.020114e+01 -2.716115e+01 -2.732725e+01 -2.449429e+01 -2.454084e+01 -2.193081e+01 -2.186255e+01 -1.948722e+01 -1.931076e+01 -1.717831e+01 -1.690159e+01 -1.501719e+01 -1.464897e+01 -1.301522e+01 -1.256468e+01 -1.118203e+01 -1.065842e+01 -9.525551e+00 -8.937931e+00 -8.052113e+00 -7.409210e+00 -6.766566e+00 -6.076700e+00 -5.672469e+00 
-5.129046e+00 -4.993121e+00 -4.150753e+00 -4.242996e+00 -3.377783e+00 -3.691938e+00 -2.810674e+00 -3.340233e+00 -2.449601e+00 -3.187879e+00 -2.294523e+00 -3.234706e+00 -2.345277e+00 -3.480452e+00 -2.601629e+00 -3.924795e+00 -3.063266e+00 -4.567335e+00 -3.729756e+00 -5.407549e+00 -4.600464e+00 -6.444699e+00 -5.674437e+00 -7.677702e+00 -6.950261e+00 -9.104974e+00 -8.425893e+00 -1.072423e+01 -1.009847e+01 -1.253223e+01 -1.196408e+01 -1.452453e+01 -1.401753e+01 -1.669515e+01 -1.625206e+01 -1.903625e+01 -1.865906e+01 -2.153776e+01 -2.122772e+01 -2.418700e+01 -2.394474e+01 -2.696834e+01 -2.679389e+01 -2.986282e+01 -2.975576e+01 -3.284788e+01 -3.280736e+01 -3.589704e+01 -3.592189e+01 -3.897979e+01 -3.906855e+01 -4.206151e+01 -4.221245e+01 -4.510360e+01 -4.531480e+01 -4.806381e+01 -4.833318e+01 -5.089679e+01 -5.122218e+01 -5.355498e+01 -5.393428e+01 -5.598981e+01 -5.642108e+01 -5.815318e+01 -5.863479e+01 -5.999925e+01 -6.053002e+01 -6.148652e+01 -6.206571e+01 -6.257989e+01 -6.320711e+01 -6.325274e+01 -6.392770e+01 -6.348868e+01 -6.421071e+01 -6.328280e+01 -6.405019e+01 -6.264214e+01 -6.345144e+01 -6.158544e+01 -6.243073e+01 -6.014187e+01 -6.101428e+01 -5.834918e+01 -5.923667e+01 -5.625119e+01 -5.713882e+01 -5.389524e+01 -5.476579e+01 -5.132961e+01 -5.216457e+01 -4.860141e+01 -4.938214e+01 -4.575501e+01 -4.646384e+01 -4.283103e+01 -4.345227e+01 -3.986594e+01 -4.038661e+01 -3.689208e+01 -3.730236e+01 -3.393804e+01 -3.423148e+01 -3.102913e+01 -3.120262e+01 -2.818797e+01 -2.824153e+01 -2.543492e+01 -2.537129e+01 -2.278838e+01 -2.261261e+01 -2.026502e+01 -1.998393e+01 -1.787981e+01 -1.750144e+01 -1.564599e+01 -1.517913e+01 -1.357500e+01 -1.302880e+01 -1.167654e+01 -1.106009e+01 -9.958487e+00 -9.280689e+00 -8.427069e+00 -7.696426e+00 -7.086978e+00 -6.311566e+00 -5.941577e+00 
-3.870638e+00 -3.727439e+00 -2.924799e+00 -3.011770e+00 -2.185178e+00 -2.495356e+00 -1.651705e+00 -2.178055e+00 -1.324096e+00 -2.059559e+00 -1.202001e+00 -2.139523e+00 -1.285097e+00 -2.417633e+00 -1.573123e+00 -2.893634e+00 -2.065869e+00 -3.567307e+00 -2.763111e+00 -4.438410e+00 -3.664518e+00 -5.506576e+00 -4.769513e+00 -6.771172e+00 -6.077118e+00 -8.231125e+00 -7.585761e+00 -9.884705e+00 -9.293069e+00 -1.172926e+01 -1.119563e+01 -1.376093e+01 -1.328873e+01 -1.597429e+01 -1.556606e+01 -1.836199e+01 -1.801941e+01 -2.091436e+01 -2.063832e+01 -2.361903e+01 -2.340972e+01 -2.646051e+01 -2.631757e+01 -2.941982e+01 -2.934244e+01 -3.247415e+01 -3.246121e+01 -3.559654e+01 -3.564670e+01 -3.875571e+01 -3.886748e+01 -4.191593e+01 -4.208773e+01 -4.503713e+01 -4.526736e+01 -4.807520e+01 -4.836230e+01 -5.098250e+01 -5.132509e+01 -5.370884e+01 -5.410580e+01 -5.620263e+01 -5.665334e+01 -5.841258e+01 -5.891704e+01 -6.028963e+01 -6.084862e+01 -6.178924e+01 -6.240429e+01 -6.287379e+01 -6.354706e+01 -6.351493e+01 -6.424877e+01 -6.369564e+01 -6.449194e+01 -6.341169e+01 -6.427091e+01 -6.267222e+01 -6.359237e+01 -6.149931e+01 -6.247493e+01 -5.992654e+01 -6.094799e+01 -5.799668e+01 -5.904980e+01 -5.575871e+01 -5.682525e+01 -5.326475e+01 -5.432325e+01 -5.056718e+01 -5.159438e+01 -4.771629e+01 -4.868868e+01 -4.475860e+01 -4.565404e+01 -4.173597e+01 -4.253497e+01 -3.868535e+01 -3.937203e+01 -3.563898e+01 -3.620163e+01 -3.262498e+01 -3.305618e+01 -2.966798e+01 -2.996452e+01 -2.678982e+01 -2.695229e+01 -2.401005e+01 -2.404232e+01 -2.134630e+01 -2.125488e+01 -1.881448e+01 -1.860781e+01 -1.642878e+01 -1.611656e+01 -1.420168e+01 -1.379426e+01 -1.214383e+01 -1.165174e+01 -1.026405e+01 -9.697597e+00 -8.569388e+00 -7.938409e+00 -7.065180e+00 -6.378926e+00 -5.755262e+00 -5.022350e+00 -4.642179e+00 
-3.961581e+00 -3.853930e+00 -2.967080e+00 -3.091218e+00 -2.181722e+00 -2.530647e+00 -1.605202e+00 -2.171849e+00 -1.237079e+00 -2.014383e+00 -1.076942e+00 -2.057862e+00 -1.124510e+00 -2.302040e+00 -1.379669e+00 -2.746838e+00 -1.842466e+00 -3.392327e+00 -2.513038e+00 -4.238666e+00 -3.391511e+00 -5.285997e+00 -4.477863e+00 -6.534310e+00 -5.771760e+00 -7.983264e+00 -7.272367e+00 -9.631968e+00 -8.978135e+00 -1.147872e+01 -1.088656e+01 -1.352067e+01 -1.299392e+01 -1.575353e+01 -1.529497e+01 -1.817109e+01 -1.778260e+01 -2.076486e+01 -2.044748e+01 -2.352361e+01 -2.327765e+01 -2.643289e+01 -2.625806e+01 -2.947462e+01 -2.937014e+01 -3.262664e+01 -3.259136e+01 -3.586233e+01 -3.589478e+01 -3.915031e+01 -3.924875e+01 -4.245423e+01 -4.261666e+01 -4.573276e+01 -4.595696e+01 -4.893981e+01 -4.922337e+01 -5.202501e+01 -5.236542e+01 -5.493463e+01 -5.532944e+01 -5.761282e+01 -5.805983e+01 -6.000335e+01 -6.050088e+01 -6.205182e+01 -6.259889e+01 -6.370814e+01 -6.430464e+01 -6.492933e+01 -6.557600e+01 -6.568227e+01 -6.638040e+01 -6.594619e+01 -6.669698e+01 -6.571439e+01 -6.651814e+01 -6.499521e+01 -6.585014e+01 -6.381156e+01 -6.471276e+01 -6.219948e+01 -6.313802e+01 -6.020539e+01 -6.116797e+01 -5.788284e+01 -5.885205e+01 -5.528887e+01 -5.624410e+01 -5.248070e+01 -5.339954e+01 -4.951294e+01 -5.037286e+01 -4.643574e+01 -4.721560e+01 -4.329373e+01 -4.397509e+01 -4.012576e+01 -4.069378e+01 -3.696527e+01 -3.740916e+01 -3.384098e+01 -3.415416e+01 -3.077777e+01 -3.095772e+01 -2.779756e+01 -2.784540e+01 -2.491992e+01 -2.483994e+01 -2.216254e+01 -2.196156e+01 -1.954143e+01 -1.922809e+01 -1.707095e+01 -1.665506e+01 -1.476368e+01 -1.425565e+01 -1.263037e+01 -1.204065e+01 -1.067985e+01 -1.001862e+01 -8.919053e+00 -8.195963e+00 -7.353141e+00 -6.577178e+00 -5.985676e+00 -5.165175e+00 -4.818882e+00 
-2.612743e+00 -2.504261e+00 -1.652168e+00 -1.777028e+00 -9.015236e-01 -1.252016e+00 -3.598146e-01 -9.283731e-01 -2.609581e-02 -8.053240e-01 1.003654e-01 -8.823040e-01 1.999371e-02 -1.159039e+00 -2.671230e-01 -1.635566e+00 -7.612038e-01 -2.312207e+00 -1.462693e+00 -3.189495e+00 -2.372134e+00 -4.268059e+00 -3.490014e+00 -5.548472e+00 -4.816574e+00 -7.031060e+00 -6.351601e+00 -8.715661e+00 -8.094191e+00 -1.060133e+01 -1.004249e+01 -1.268602e+01 -1.219340e+01 -1.496615e+01 -1.454227e+01 -1.743621e+01 -1.708254e+01 -2.008828e+01 -1.980535e+01 -2.291158e+01 -2.269910e+01 -2.589192e+01 -2.574902e+01 -2.901130e+01 -2.893666e+01 -3.224739e+01 -3.223940e+01 -3.557310e+01 -3.562999e+01 -3.895624e+01 -3.907612e+01 -4.235924e+01 -4.254016e+01 -4.573909e+01 -4.597907e+01 -4.904750e+01 -4.934459e+01 -5.223134e+01 -5.258376e+01 -5.523355e+01 -5.563986e+01 -5.799446e+01 -5.845381e+01 -6.045362e+01 -6.096611e+01 -6.255223e+01 -6.311915e+01 -6.423597e+01 -6.485994e+01 -6.545816e+01 -6.614312e+01 -6.618298e+01 -6.693370e+01 -6.638841e+01 -6.720964e+01 -6.606832e+01 -6.696351e+01 -6.523356e+01 -6.620327e+01 -6.391147e+01 -6.495175e+01 -6.214394e+01 -6.324515e+01 -5.998416e+01 -6.113041e+01 -5.749257e+01 -5.866211e+01 -5.473255e+01 -5.589912e+01 -5.176652e+01 -5.290136e+01 -4.865294e+01 -4.972713e+01 -4.544437e+01 -4.643100e+01 -4.218660e+01 -4.306249e+01 -3.891868e+01 -3.966555e+01 -3.567357e+01 -3.627855e+01 -3.247914e+01 -3.293484e+01 -2.935926e+01 -2.966341e+01 -2.633480e+01 -2.648968e+01 -2.342435e+01 -2.343599e+01 -2.064472e+01 -2.052204e+01 -1.801110e+01 -1.776497e+01 -1.553702e+01 -1.517946e+01 -1.323426e+01 -1.277766e+01 -1.111268e+01 -1.056924e+01 -9.180195e+00 -8.561486e+00 -7.442744e+00 -6.759494e+00 -5.904474e+00 -5.166470e+00 -4.567951e+00 -3.784063e+00 -3.434448e+00 