# vtk DataFile Version 2.0
Comment goes here
ASCII

DATASET STRUCTURED_POINTS
FIELD FieldData 1
TIME 1 1 double
0.12000000
DIMENSIONS    128   128   1

ORIGIN    0.000   0.000   0.000
SPACING   0.039062 0.039062   1.000

POINT_DATA   16384
SCALARS P double
LOOKUP_TABLE default

-2.526261e+01 -2.619023e+01 -2.712590e+01 -2.789063e+01 -2.872548e+01 -2.932785e+01 -3.005942e+01 -3.050127e+01 -3.112738e+01 -3.141156e+01 -3.193022e+01 -3.206035e+01 -3.246961e+01 -3.244995e+01 -3.274786e+01 -3.258306e+01 -3.276763e+01 -3.246265e+01 -3.253189e+01 -3.209189e+01 -3.204384e+01 -3.147415e+01 -3.130698e+01 -3.061303e+01 -3.032518e+01 -2.951254e+01 -2.910280e+01 -2.817718e+01 -2.764489e+01 -2.661219e+01 -2.595734e+01 -2.482370e+01 -2.404712e+01 -2.281896e+01 -2.192241e+01 -2.060649e+01 -1.959282e+01 -1.819635e+01 -1.706955e+01 -1.560024e+01 -1.436560e+01 -1.283172e+01 -1.149589e+01 -9.906418e+00 -8.477466e+00 -6.842146e+00 -5.329651e+00 -3.659113e+00 -2.074213e+00 -3.800668e-01 1.264511e+00 2.969588e+00 4.659520e+00 6.361715e+00 8.081113e+00 9.765443e+00 1.149694e+01 1.314726e+01 1.487215e+01 1.647123e+01 1.816965e+01 1.969930e+01 2.135053e+01 2.279180e+01 2.437457e+01 2.570800e+01 2.720093e+01 2.840693e+01 2.978894e+01 3.084816e+01 3.209898e+01 3.299277e+01 3.409344e+01 3.480436e+01 3.573775e+01 3.625005e+01 3.700136e+01 3.730152e+01 3.785868e+01 3.793592e+01 3.829003e+01 3.813673e+01 3.828234e+01 3.789449e+01 3.782979e+01 3.720726e+01 3.693421e+01 3.608100e+01 3.560527e+01 3.452962e+01 3.386047e+01 3.257480e+01 3.172480e+01 3.024552e+01 2.923021e+01 2.757742e+01 2.641477e+01 2.461176e+01 2.332170e+01 2.139436e+01 1.999814e+01 1.797426e+01 1.649384e+01 1.440236e+01 1.285979e+01 1.073002e+01 9.146907e+00 7.007744e+00 5.404733e+00 3.283980e+00 1.680378e+00 -3.958712e-01 -1.982405e+00 -3.990256e+00 -5.543900e+00 -7.462019e+00 -8.968875e+00 -1.077872e+01 -1.222681e+01 -1.391272e+01 -1.529191e+01 -1.684113e+01 -1.814301e+01 -1.954555e+01 -2.076320e+01 -2.201171e+01 -2.313956e+01 -2.422905e+01 
-2.395612e+01 -2.492129e+01 -2.590021e+01 -2.670022e+01 -2.757447e+01 -2.820976e+01 -2.897661e+01 -2.944895e+01 -3.010606e+01 -3.041827e+01 -3.096349e+01 -3.111923e+01 -3.155053e+01 -3.155405e+01 -3.186943e+01 -3.172542e+01 -3.192286e+01 -3.163630e+01 -3.171381e+01 -3.128987e+01 -3.124551e+01 -3.068951e+01 -3.052148e+01 -2.983883e+01 -2.954561e+01 -2.874185e+01 -2.832230e+01 -2.740308e+01 -2.685663e+01 -2.582779e+01 -2.515456e+01 -2.402216e+01 -2.322313e+01 -2.199353e+01 -2.107064e+01 -1.975055e+01 -1.870688e+01 -1.730346e+01 -1.614329e+01 -1.466420e+01 -1.339312e+01 -1.184664e+01 -1.047166e+01 -8.866772e+00 -7.396338e+00 -5.742823e+00 -4.186931e+00 -2.495473e+00 -8.656868e-01 8.520255e-01 2.542548e+00 4.273735e+00 6.010247e+00 7.740971e+00 9.507180e+00 1.122231e+01 1.300047e+01 1.468370e+01 1.645475e+01 1.808866e+01 1.983243e+01 2.139860e+01 2.309411e+01 2.457333e+01 2.619908e+01 2.757162e+01 2.910600e+01 3.035195e+01 3.177370e+01 3.287334e+01 3.416200e+01 3.509628e+01 3.623270e+01 3.698372e+01 3.795056e+01 3.850208e+01 3.928428e+01 3.962224e+01 4.020746e+01 4.032050e+01 4.069952e+01 4.057941e+01 4.074640e+01 4.038851e+01 4.034127e+01 3.974485e+01 3.948492e+01 3.865339e+01 3.818600e+01 3.712707e+01 3.646107e+01 3.518667e+01 3.433428e+01 3.286048e+01 3.183692e+01 3.018356e+01 2.900663e+01 2.719692e+01 2.588646e+01 2.394632e+01 2.252365e+01 2.048110e+01 1.896839e+01 1.685272e+01 1.527238e+01 1.311339e+01 1.148755e+01 9.314752e+00 7.664689e+00 5.506582e+00 3.852344e+00 1.735774e+00 9.583472e-02 -1.954528e+00 -3.563487e+00 -5.525540e+00 -7.088751e+00 -8.943219e+00 -1.044785e+01 -1.217841e+01 -1.361353e+01 -1.520682e+01 -1.656324e+01 -1.800877e+01 -1.927894e+01 -2.056892e+01 -2.174666e+01 -2.287579e+01 
-2.540115e+01 -2.632939e+01 -2.726659e+01 -2.803107e+01 -2.886714e+01 -2.946854e+01 -3.020109e+01 -3.064139e+01 -3.126833e+01 -3.155049e+01 -3.206989e+01 -3.219767e+01 -3.260762e+01 -3.258534e+01 -3.288392e+01 -3.271632e+01 -3.290154e+01 -3.259363e+01 -3.266349e+01 -3.222047e+01 -3.217297e+01 -3.160019e+01 -3.143345e+01 -3.073637e+01 -3.044875e+01 -2.963292e+01 -2.922318e+01 -2.829430e+01 -2.776169e+01 -2.672565e+01 -2.607012e+01 -2.493302e+01 -2.415532e+01 -2.292357e+01 -2.202542e+01 -2.070574e+01 -1.968992e+01 -1.828950e+01 -1.715998e+01 -1.568647e+01 -1.444849e+01 -1.291013e+01 -1.157029e+01 -9.976007e+00 -8.542350e+00 -6.901838e+00 -5.383916e+00 -3.707751e+00 -2.116682e+00 -4.164264e-01 1.235068e+00 2.946774e+00 4.644359e+00 6.353724e+00 8.081478e+00 9.773523e+00 1.151402e+01 1.317258e+01 1.490700e+01 1.651479e+01 1.822317e+01 1.976190e+01 2.142336e+01 2.287396e+01 2.446705e+01 2.580990e+01 2.731301e+01 2.852835e+01 2.992017e+01 3.098842e+01 3.224845e+01 3.315072e+01 3.425976e+01 3.497837e+01 3.591905e+01 3.643801e+01 3.719530e+01 3.750086e+01 3.806252e+01 3.814365e+01 3.850063e+01 3.834953e+01 3.849628e+01 3.810876e+01 3.804342e+01 3.741925e+01 3.714377e+01 3.628689e+01 3.580701e+01 3.472565e+01 3.405073e+01 3.275738e+01 3.190016e+01 3.041137e+01 2.938758e+01 2.772365e+01 2.655152e+01 2.473601e+01 2.343574e+01 2.149485e+01 2.008796e+01 1.804984e+01 1.655857e+01 1.445254e+01 1.289920e+01 1.075494e+01 9.161390e+00 7.008142e+00 5.395241e+00 3.261131e+00 1.648346e+00 -4.402624e-01 -2.035150e+00 -4.054154e+00 -5.615246e+00 -7.543161e+00 -9.056527e+00 -1.087472e+01 -1.232839e+01 -1.402119e+01 -1.540508e+01 -1.695974e+01 -1.826547e+01 -1.967209e+01 -2.089286e+01 -2.214416e+01 -2.327450e+01 -2.436563e+01 
-2.423884e+01 -2.520543e+01 -2.618774e+01 -2.698737e+01 -2.786429e+01 -2.849770e+01 -2.926670e+01 -2.973595e+01 -3.039485e+01 -3.070303e+01 -3.124982e+01 -3.140081e+01 -3.183356e+01 -3.183182e+01 -3.214856e+01 -3.199893e+01 -3.219768e+01 -3.190526e+01 -3.198398e+01 -3.155402e+01 -3.151071e+01 -3.094858e+01 -3.078134e+01 -3.009247e+01 -2.979966e+01 -2.898957e+01 -2.856992e+01 -2.764425e+01 -2.709706e+01 -2.606159e+01 -2.538684e+01 -2.424760e+01 -2.344614e+01 -2.220942e+01 -2.128309e+01 -1.995554e+01 -1.890731e+01 -1.749601e+01 -1.633007e+01 -1.484261e+01 -1.356448e+01 -1.200904e+01 -1.062565e+01 -9.011113e+00 -7.530858e+00 -5.866903e+00 -4.299730e+00 -2.596939e+00 -9.543840e-01 7.756486e-01 2.480428e+00 4.224997e+00 5.977222e+00 7.722434e+00 9.505734e+00 1.123647e+01 1.303296e+01 1.473286e+01 1.652331e+01 1.817483e+01 1.993882e+01 2.152338e+01 2.323961e+01 2.473776e+01 2.638435e+01 2.777606e+01 2.933101e+01 3.059597e+01 3.203755e+01 3.315564e+01 3.446292e+01 3.541462e+01 3.656798e+01 3.733490e+01 3.831654e+01 3.888194e+01 3.967638e+01 4.002571e+01 4.062026e+01 4.074169e+01 4.112681e+01 4.101172e+01 4.118139e+01 4.082479e+01 4.077668e+01 4.017758e+01 3.991321e+01 3.907488e+01 3.859959e+01 3.752969e+01 3.685252e+01 3.556312e+01 3.469657e+01 3.320398e+01 3.216366e+01 3.048812e+01 2.929230e+01 2.745753e+01 2.612657e+01 2.415913e+01 2.271488e+01 2.064350e+01 1.910871e+01 1.696344e+01 1.536106e+01 1.317247e+01 1.152513e+01 9.323463e+00 7.652877e+00 5.467306e+00 3.793887e+00 1.651825e+00 -5.677803e-03 -2.079108e+00 -3.703830e+00 -5.686203e+00 -7.263281e+00 -9.135129e+00 -1.065172e+01 -1.239665e+01 -1.384188e+01 -1.544656e+01 -1.681137e+01 -1.826545e+01 -1.954244e+01 -2.083834e+01 -2.202154e+01 -2.315419e+01 
-2.581838e+01 -2.674834e+01 -2.769003e+01 -2.845364e+01 -2.929323e+01 -2.989159e+01 -3.062699e+01 -3.106250e+01 -3.169186e+01 -3.196787e+01 -3.248944e+01 -3.261003e+01 -3.302205e+01 -3.299183e+01 -3.329243e+01 -3.311636e+01 -3.330356e+01 -3.298683e+01 -3.305856e+01 -3.260648e+01 -3.256065e+01 -3.197863e+01 -3.181321e+01 -3.110672e+01 -3.081990e+01 -2.999450e+01 -2.958482e+01 -2.864617e+01 -2.811269e+01 -2.706663e+01 -2.640910e+01 -2.526166e+01 -2.448066e+01 -2.323817e+01 -2.233525e+01 -2.100434e+01 -1.998214e+01 -1.856989e+01 -1.743224e+01 -1.594619e+01 -1.469820e+01 -1.314646e+01 -1.179462e+01 -1.018597e+01 -8.738223e+00 -7.082186e+00 -5.548002e+00 -3.855003e+00 -2.245434e+00 -5.268898e-01 1.145366e+00 2.876934e+00 4.597512e+00 6.328388e+00 8.081269e+00 9.796482e+00 1.156406e+01 1.324737e+01 1.501056e+01 1.664453e+01 1.838298e+01 1.994905e+01 2.164140e+01 2.312014e+01 2.474438e+01 2.611569e+01 2.764958e+01 2.889311e+01 3.031464e+01 3.141018e+01 3.269809e+01 3.362605e+01 3.476041e+01 3.550236e+01 3.646508e+01 3.700429e+01 3.777970e+01 3.810166e+01 3.867696e+01 3.876997e+01 3.913566e+01 3.899132e+01 3.914152e+01 3.875514e+01 3.868785e+01 3.805882e+01 3.777600e+01 3.690809e+01 3.641563e+01 3.531706e+01 3.462467e+01 3.330813e+01 3.242904e+01 3.091150e+01 2.986205e+01 2.816442e+01 2.696360e+01 2.511026e+01 2.377906e+01 2.179717e+01 2.035798e+01 1.827678e+01 1.675268e+01 1.460262e+01 1.301676e+01 1.082865e+01 9.203600e+00 7.007780e+00 5.365039e+00 3.190593e+00 1.550136e+00 -5.757595e-01 -2.195785e+00 -4.248390e+00 -5.831858e+00 -7.789246e+00 -9.322132e+00 -1.116542e+01 -1.263578e+01 -1.434922e+01 -1.574708e+01 -1.731801e+01 -1.863523e+01 -2.005395e+01 -2.128398e+01 -2.254353e+01 -2.368121e+01 -2.477711e+01 
-2.480770e+01 -2.577681e+01 -2.676567e+01 -2.756423e+01 -2.844627e+01 -2.907564e+01 -2.984875e+01 -3.031155e+01 -3.097388e+01 -3.127375e+01 -3.182358e+01 -3.196487e+01 -3.240045e+01 -3.238802e+01 -3.270749e+01 -3.254649e+01 -3.274789e+01 -3.244365e+01 -3.252488e+01 -3.208282e+01 -3.204172e+01 -3.146729e+01 -3.130177e+01 -3.060044e+01 -3.030860e+01 -2.948586e+01 -2.906618e+01 -2.812762e+01 -2.757908e+01 -2.653041e+01 -2.585275e+01 -2.469987e+01 -2.389368e+01 -2.264278e+01 -2.170968e+01 -2.036728e+01 -1.931002e+01 -1.788305e+01 -1.670566e+01 -1.520154e+01 -1.390938e+01 -1.233611e+01 -1.093597e+01 -9.302232e+00 -7.802383e+00 -6.117648e+00 -4.527942e+00 -2.802577e+00 -1.134489e+00 6.201085e-01 2.353435e+00 4.124720e+00 5.908446e+00 7.682630e+00 9.500239e+00 1.126222e+01 1.309558e+01 1.482890e+01 1.665840e+01 1.834533e+01 2.015005e+01 2.177165e+01 2.352966e+01 2.506600e+01 2.675469e+01 2.818510e+01 2.978161e+01 3.108504e+01 3.256673e+01 3.372218e+01 3.506717e+01 3.605419e+01 3.724188e+01 3.804107e+01 3.905273e+01 3.964636e+01 4.046565e+01 4.083816e+01 4.145164e+01 4.159027e+01 4.198780e+01 4.188307e+01 4.205820e+01 4.170442e+01 4.165458e+01 4.105024e+01 4.077691e+01 3.992497e+01 3.943367e+01 3.834172e+01 3.764189e+01 3.632223e+01 3.542697e+01 3.389640e+01 3.282212e+01 3.110167e+01 2.986757e+01 2.798203e+01 2.660951e+01 2.458674e+01 2.309880e+01 2.096899e+01 1.938950e+01 1.718426e+01 1.553730e+01 1.328877e+01 1.159798e+01 9.337917e+00 7.625923e+00 5.384855e+00 3.672800e+00 1.479305e+00 -2.135064e-01 -2.333391e+00 -3.989728e+00 -6.012930e+00 -7.617745e+00 -9.524414e+00 -1.106486e+01 -1.283847e+01 -1.430379e+01 -1.593112e+01 -1.731253e+01 -1.878349e+01 -2.007392e+01 -2.138137e+01 -2.257526e+01 -2.371466e+01 
-2.651921e+01 -2.745153e+01 -2.840032e+01 -2.916195e+01 -3.000708e+01 -3.059989e+01 -3.133976e+01 -3.176684e+01 -3.240001e+01 -3.266537e+01 -3.319042e+01 -3.329871e+01 -3.371407e+01 -3.367037e+01 -3.397431e+01 -3.378395e+01 -3.397449e+01 -3.364293e+01 -3.371791e+01 -3.325064e+01 -3.320777e+01 -3.261030e+01 -3.244729e+01 -3.172513e+01 -3.143985e+01 -3.059853e+01 -3.018917e+01 -2.923430e+01 -2.869959e+01 -2.763689e+01 -2.697625e+01 -2.581166e+01 -2.502535e+01 -2.376505e+01 -2.285435e+01 -2.150484e+01 -2.047215e+01 -1.904033e+01 -1.788925e+01 -1.638246e+01 -1.511791e+01 -1.354404e+01 -1.217232e+01 -1.053988e+01 -9.068761e+00 -7.387026e+00 -5.825807e+00 -4.104915e+00 -2.464540e+00 -7.156467e-01 9.912423e-01 2.755832e+00 4.514839e+00 6.281550e+00 8.076508e+00 9.830408e+00 1.164342e+01 1.336817e+01 1.517970e+01 1.685760e+01 1.864668e+01 2.025873e+01 2.200320e+01 2.352934e+01 2.520624e+01 2.662558e+01 2.821155e+01 2.950278e+01 3.097461e+01 3.211642e+01 3.345160e+01 3.442319e+01 3.560052e+01 3.638219e+01 3.738238e+01 3.795610e+01 3.876233e+01 3.911237e+01 3.971088e+01 3.982434e+01 4.020487e+01 4.007231e+01 4.022843e+01 3.984430e+01 3.977374e+01 3.913683e+01 3.884154e+01 3.795524e+01 3.744142e+01 3.631393e+01 3.559186e+01 3.423621e+01 3.331994e+01 3.175378e+01 3.066075e+01 2.890606e+01 2.765650e+01 2.573902e+01 2.435533e+01 2.230391e+01 2.080993e+01 1.865566e+01 1.707595e+01 1.485125e+01 1.321034e+01 1.094797e+01 9.269717e+00 7.001872e+00 5.308838e+00 3.066261e+00 1.379279e+00 -8.094640e-01 -2.471632e+00 -4.580727e+00 -6.201584e+00 -8.208367e+00 -9.773745e+00 -1.165892e+01 -1.315694e+01 -1.490466e+01 -1.632559e+01 -1.792336e+01 -1.925941e+01 -2.069792e+01 -2.194303e+01 -2.321586e+01 -2.436539e+01 -2.546874e+01 
-2.566955e+01 -2.664165e+01 -2.763973e+01 -2.843589e+01 -2.932509e+01 -2.994762e+01 -3.072643e+01 -3.117887e+01 -3.184598e+01 -3.213279e+01 -3.268690e+01 -3.281314e+01 -3.325281e+01 -3.322393e+01 -3.354747e+01 -3.336911e+01 -3.357455e+01 -3.325239e+01 -3.333753e+01 -3.287722e+01 -3.283968e+01 -3.224677e+01 -3.208412e+01 -3.136413e+01 -3.107408e+01 -3.023245e+01 -2.981304e+01 -2.885526e+01 -2.830505e+01 -2.723669e+01 -2.655498e+01 -2.538180e+01 -2.456879e+01 -2.329680e+01 -2.235377e+01 -2.098928e+01 -1.991871e+01 -1.846844e+01 -1.727407e+01 -1.574519e+01 -1.443216e+01 -1.283240e+01 -1.140728e+01 -9.745018e+00 -8.215899e+00 -6.500261e+00 -4.876834e+00 -3.117855e+00 -1.411479e+00 3.797634e-01 2.155982e+00 3.967214e+00 5.798374e+00 7.615988e+00 9.485376e+00 1.129432e+01 1.318344e+01 1.496717e+01 1.685586e+01 1.859633e+01 2.046292e+01 2.214068e+01 2.396229e+01 2.555667e+01 2.730956e+01 2.879893e+01 3.045893e+01 3.182110e+01 3.336415e+01 3.457680e+01 3.597954e+01 3.702075e+01 3.826108e+01 3.910993e+01 4.016767e+01 4.080485e+01 4.166232e+01 4.207074e+01 4.271335e+01 4.287877e+01 4.329543e+01 4.320709e+01 4.339066e+01 4.304175e+01 4.298930e+01 4.237746e+01 4.209042e+01 4.121811e+01 4.070227e+01 3.957696e+01 3.884237e+01 3.747665e+01 3.653734e+01 3.494878e+01 3.382237e+01 3.203322e+01 3.074036e+01 2.877705e+01 2.734079e+01 2.523321e+01 2.367829e+01 2.145889e+01 1.981098e+01 1.751382e+01 1.579871e+01 1.345839e+01 1.170132e+01 9.351958e+00 7.576936e+00 5.251178e+00 3.480482e+00 1.208701e+00 -5.375220e-01 -2.727890e+00 -4.431863e+00 -6.516769e+00 -8.163189e+00 -1.012223e+01 -1.169825e+01 -1.351475e+01 -1.500987e+01 -1.667078e+01 -1.807661e+01 -1.957234e+01 -2.088237e+01 -2.220645e+01 -2.341579e+01 -2.456452e+01 
-2.751182e+01 -2.844633e+01 -2.940426e+01 -3.016203e+01 -3.101419e+01 -3.159819e+01 -3.234369e+01 -3.275805e+01 -3.339606e+01 -3.364570e+01 -3.417526e+01 -3.426565e+01 -3.468552e+01 -3.462240e+01 -3.493100e+01 -3.472022e+01 -3.491557e+01 -3.456297e+01 -3.464275e+01 -3.415407e+01 -3.411570e+01 -3.349656e+01 -3.333735e+01 -3.259328e+01 -3.231062e+01 -3.144711e+01 -3.103869e+01 -3.006122e+01 -2.952525e+01 -2.843943e+01 -2.777484e+01 -2.658643e+01 -2.579306e+01 -2.450805e+01 -2.358680e+01 -2.221150e+01 -2.116442e+01 -1.970548e+01 -1.853590e+01 -1.700039e+01 -1.571293e+01 -1.410842e+01 -1.270912e+01 -1.104377e+01 -9.540125e+00 -7.822797e+00 -6.223889e+00 -4.464307e+00 -2.780878e+00 -9.897973e-01 7.656266e-01 2.576248e+00 4.389265e+00 6.206096e+00 8.060367e+00 9.868566e+00 1.174581e+01 1.352894e+01 1.540902e+01 1.714902e+01 1.901008e+01 2.068737e+01 2.250612e+01 2.409974e+01 2.585185e+01 2.733977e+01 2.900029e+01 3.035983e+01 3.190381e+01 3.311204e+01 3.451514e+01 3.554954e+01 3.678870e+01 3.762773e+01 3.868188e+01 3.930563e+01 4.015632e+01 4.054724e+01 4.117929e+01 4.132278e+01 4.172477e+01 4.160985e+01 4.177460e+01 4.139444e+01 4.131924e+01 4.067170e+01 4.035851e+01 3.944644e+01 3.890188e+01 3.773341e+01 3.696857e+01 3.555716e+01 3.458733e+01 3.295161e+01 3.179578e+01 2.995925e+01 2.863950e+01 2.662993e+01 2.517069e+01 2.301935e+01 2.144662e+01 1.918734e+01 1.752782e+01 1.519590e+01 1.347618e+01 1.110727e+01 9.353031e+00 6.982051e+00 5.217418e+00 2.877530e+00 1.124561e+00 -1.153658e+00 -2.875337e+00 -5.064538e+00 -6.737924e+00 -8.814413e+00 -1.042517e+01 -1.236912e+01 -1.390550e+01 -1.570095e+01 -1.715360e+01 -1.878838e+01 -2.015009e+01 -2.161548e+01 -2.288090e+01 -2.417135e+01 -2.533662e+01 -2.644934e+01 
-2.683473e+01 -2.780924e+01 -2.881851e+01 -2.960992e+01 -3.050764e+01 -3.111960e+01 -3.190514e+01 -3.234243e+01 -3.301523e+01 -3.328345e+01 -3.384279e+01 -3.394799e+01 -3.439284e+01 -3.434127e+01 -3.467016e+01 -3.446809e+01 -3.467908e+01 -3.433265e+01 -3.442335e+01 -3.393849e+01 -3.390618e+01 -3.328859e+01 -3.313037e+01 -3.238554e+01 -3.209854e+01 -3.123186e+01 -3.081349e+01 -2.983028e+01 -2.927848e+01 -2.818413e+01 -2.749760e+01 -2.629764e+01 -2.547607e+01 -2.417625e+01 -2.322047e+01 -2.182687e+01 -2.073895e+01 -1.925800e+01 -1.804135e+01 -1.647990e+01 -1.513937e+01 -1.350477e+01 -1.204664e+01 -1.034685e+01 -8.778948e+00 -7.022624e+00 -5.354401e+00 -3.551090e+00 -1.793718e+00 4.597722e-02 1.879493e+00 3.743714e+00 5.638437e+00 7.513878e+00 9.452871e+00 1.132461e+01 1.328894e+01 1.514033e+01 1.710910e+01 1.892173e+01 2.087228e+01 2.262604e+01 2.453420e+01 2.620741e+01 2.804787e+01 2.961762e+01 3.136443e+01 3.280694e+01 3.443407e+01 3.572518e+01 3.720718e+01 3.832298e+01 3.963567e+01 4.055310e+01 4.167427e+01 4.237184e+01 4.328196e+01 4.374043e+01 4.442325e+01 4.462637e+01 4.506950e+01 4.500463e+01 4.519997e+01 4.485875e+01 4.480284e+01 4.418170e+01 4.387588e+01 4.297651e+01 4.242695e+01 4.125661e+01 4.047419e+01 3.904583e+01 3.804587e+01 3.637808e+01 3.517988e+01 3.329659e+01 3.192283e+01 2.985274e+01 2.832879e+01 2.610460e+01 2.445765e+01 2.211505e+01 2.037325e+01 1.794975e+01 1.614134e+01 1.367503e+01 1.182745e+01 9.355774e+00 7.494977e+00 5.053549e+00 3.203370e+00 8.250587e-01 -9.932111e-01 -3.279049e+00 -5.046915e+00 -7.214930e+00 -8.916783e+00 -1.094588e+01 -1.256894e+01 -1.444229e+01 -1.597642e+01 -1.768135e+01 -1.911881e+01 -2.064644e+01 -2.198154e+01 -2.332642e+01 -2.455521e+01 -2.571489e+01 
-2.880773e+01 -2.974307e+01 -3.071131e+01 -3.146218e+01 -3.232210e+01 -3.289296e+01 -3.364461e+01 -3.404097e+01 -3.468434e+01 -3.491235e+01 -3.544712e+01 -3.551331e+01 -3.593867e+01 -3.584965e+01 -3.616421e+01 -3.592651e+01 -3.612828e+01 -3.574820e+01 -3.583461e+01 -3.531817e+01 -3.528623e+01 -3.463917e+01 -3.448561e+01 -3.371346e+01 -3.343501e+01 -3.254313e+01 -3.213676e+01 -3.113049e+01 -3.059371e+01 -2.947843e+01 -2.880952e+01 -2.759078e+01 -2.678901e+01 -2.547258e+01 -2.453835e+01 -2.313028e+01 -2.206525e+01 -2.057190e+01 -1.937901e+01 -1.780712e+01 -1.649067e+01 -1.484739e+01 -1.341306e+01 -1.170606e+01 -1.016101e+01 -8.398610e+00 -6.751557e+00 -4.942896e+00 -3.204283e+00 -1.359527e+00 4.583351e-01 2.327751e+00 4.210524e+00 6.091661e+00 8.022853e+00 9.901061e+00 1.186196e+01 1.372072e+01 1.569042e+01 1.751129e+01 1.946681e+01 2.122943e+01 2.314602e+01 2.482830e+01 2.667976e+01 2.825817e+01 3.001746e+01 3.146744e+01 3.310724e+01 3.440378e+01 3.589726e+01 3.701546e+01 3.833707e+01 3.925292e+01 4.037914e+01 4.107023e+01 4.198038e+01 4.242668e+01 4.310365e+01 4.328823e+01 4.371907e+01 4.362886e+01 4.380528e+01 4.343171e+01 4.335045e+01 4.269003e+01 4.235303e+01 4.140784e+01 4.082226e+01 3.960025e+01 3.877831e+01 3.729346e+01 3.625208e+01 3.452430e+01 3.328459e+01 3.133941e+01 2.992594e+01 2.779385e+01 2.623385e+01 2.394944e+01 2.227186e+01 1.987271e+01 1.810716e+01 1.563255e+01 1.380841e+01 1.129796e+01 9.443395e+00 6.935750e+00 5.076993e+00 2.608607e+00 7.693351e-01 -1.626511e+00 -3.425554e+00 -5.719489e+00 -7.460684e+00 -9.627699e+00 -1.129656e+01 -1.331619e+01 -1.490121e+01 -1.675751e+01 -1.824991e+01 -1.993119e+01 -2.132460e+01 -2.282307e+01 -2.411314e+01 -2.542448e+01 -2.660848e+01 -2.773129e+01 
-2.831706e+01 -2.929199e+01 -3.031335e+01 -3.109629e+01 -3.200294e+01 -3.259929e+01 -3.339176e+01 -3.380797e+01 -3.448669e+01 -3.472981e+01 -3.529485e+01 -3.537220e+01 -3.582306e+01 -3.574192e+01 -3.607740e+01 -3.584483e+01 -3.606301e+01 -3.568568e+01 -3.578391e+01 -3.526807e+01 -3.524314e+01 -3.459463e+01 -3.444296e+01 -3.366723e+01 -3.338515e+01 -3.248742e+01 -3.207147e+01 -3.105683e+01 -3.050411e+01 -2.937767e+01 -2.868610e+01 -2.745309e+01 -2.662169e+01 -2.528758e+01 -2.431659e+01 -2.288715e+01 -2.177819e+01 -2.025950e+01 -1.901560e+01 -1.741412e+01 -1.603975e+01 -1.436238e+01 -1.286348e+01 -1.111763e+01 -9.501675e+00 -7.695374e+00 -5.971473e+00 -4.113594e+00 -2.292618e+00 -3.930860e-01 1.512163e+00 3.442108e+00 5.416733e+00 7.364261e+00 9.391130e+00 1.134158e+01 1.340125e+01 1.533793e+01 1.740865e+01 1.931274e+01 2.137061e+01 2.322118e+01 2.524037e+01 2.701450e+01 2.896769e+01 3.064079e+01 3.249968e+01 3.404590e+01 3.578187e+01 3.717469e+01 3.875954e+01 3.997241e+01 4.137918e+01 4.238624e+01 4.359004e+01 4.436693e+01 4.534573e+01 4.587040e+01 4.660579e+01 4.685927e+01 4.733710e+01 4.730430e+01 4.751522e+01 4.718565e+01 4.712545e+01 4.649390e+01 4.616378e+01 4.523085e+01 4.463747e+01 4.341000e+01 4.256535e+01 4.105669e+01 3.997775e+01 3.820776e+01 3.691605e+01 3.491081e+01 3.343171e+01 3.122295e+01 2.958488e+01 2.720905e+01 2.544248e+01 2.293962e+01 2.107604e+01 1.848831e+01 1.655919e+01 1.392938e+01 1.196514e+01 9.335145e+00 7.364275e+00 4.773709e+00 2.822077e+00 3.070930e-01 -1.602550e+00 -4.010119e+00 -5.858404e+00 -8.131584e+00 -9.902584e+00 -1.201949e+01 -1.370060e+01 -1.564437e+01 -1.722605e+01 -1.898459e+01 -2.046000e+01 -2.202555e+01 -2.339015e+01 -2.475872e+01 -2.600985e+01 -2.718067e+01 
-3.042177e+01 -3.135497e+01 -3.233354e+01 -3.307292e+01 -3.394026e+01 -3.449220e+01 -3.524964e+01 -3.562142e+01 -3.626999e+01 -3.646936e+01 -3.700956e+01 -3.704437e+01 -3.747594e+01 -3.735388e+01 -3.767568e+01 -3.740407e+01 -3.761407e+01 -3.719977e+01 -3.729507e+01 -3.674438e+01 -3.672137e+01 -3.604015e+01 -3.589478e+01 -3.508845e+01 -3.481652e+01 -3.389026e+01 -3.348777e+01 -3.244667e+01 -3.191017e+01 -3.075934e+01 -3.008628e+01 -2.883097e+01 -2.801992e+01 -2.666562e+01 -2.571640e+01 -2.426889e+01 -2.318268e+01 -2.164799e+01 -2.042735e+01 -1.881183e+01 -1.746065e+01 -1.577095e+01 -1.429450e+01 -1.253769e+01 -1.094267e+01 -9.126326e+00 -7.420983e+00 -5.553442e+00 -3.747738e+00 -1.838347e+00 5.578544e-02 1.996356e+00 3.964779e+00 5.924204e+00 7.950349e+00 9.914339e+00 1.197905e+01 1.393110e+01 1.601260e+01 1.793384e+01 2.000778e+01 2.187696e+01 2.391672e+01 2.571034e+01 2.768741e+01 2.938003e+01 3.126462e+01 3.282932e+01 3.459106e+01 3.600007e+01 3.760889e+01 3.883431e+01 4.026136e+01 4.127597e+01 4.249455e+01 4.327269e+01 4.425920e+01 4.477763e+01 4.551241e+01 4.575116e+01 4.621923e+01 4.616249e+01 4.635413e+01 4.599100e+01 4.590219e+01 4.522736e+01 4.486000e+01 4.387442e+01 4.323637e+01 4.194765e+01 4.105255e+01 3.947525e+01 3.834214e+01 3.649773e+01 3.515048e+01 3.306706e+01 3.153352e+01 2.924513e+01 2.755621e+01 2.510180e+01 2.329029e+01 2.071243e+01 1.881183e+01 1.615509e+01 1.419841e+01 1.150769e+01 9.526373e+00 6.845246e+00 4.868226e+00 2.237467e+00 2.904786e-01 -2.253144e+00 -4.147990e+00 -6.572562e+00 -8.396951e+00 -1.067589e+01 -1.241525e+01 -1.452745e+01 -1.617072e+01 -1.810037e+01 -1.963963e+01 -2.137589e+01 -2.280594e+01 -2.434237e+01 -2.566023e+01 -2.699419e+01 -2.819865e+01 -2.933069e+01 
-3.013394e+01 -3.110534e+01 -3.213833e+01 -3.290717e+01 -3.382193e+01 -3.439590e+01 -3.519446e+01 -3.558208e+01 -3.626615e+01 -3.647632e+01 -3.704696e+01 -3.708857e+01 -3.754597e+01 -3.742754e+01 -3.777085e+01 -3.750039e+01 -3.772765e+01 -3.731245e+01 -3.742067e+01 -3.686730e+01 -3.685257e+01 -3.616694e+01 -3.602475e+01 -3.521219e+01 -3.493775e+01 -3.400320e+01 -3.359192e+01 -3.254011e+01 -3.198793e+01 -3.082359e+01 -3.012744e+01 -2.885543e+01 -2.801347e+01 -2.663892e+01 -2.565074e+01 -2.417906e+01 -2.304577e+01 -2.148267e+01 -2.020689e+01 -1.855841e+01 -1.714421e+01 -1.541670e+01 -1.386962e+01 -1.206980e+01 -1.039688e+01 -8.531989e+00 -6.741836e+00 -4.819837e+00 -2.922862e+00 -9.527329e-01 1.038639e+00 3.046552e+00 5.117610e+00 7.151214e+00 9.284719e+00 1.132981e+01 1.350582e+01 1.554580e+01 1.774159e+01 1.975723e+01 2.194741e+01 2.391682e+01 2.607355e+01 2.797230e+01 3.006571e+01 3.186714e+01 3.386596e+01 3.554164e+01 3.741391e+01 3.893428e+01 4.064830e+01 4.198346e+01 4.350868e+01 4.462922e+01 4.593727e+01 4.681518e+01 4.788083e+01 4.849044e+01 4.929246e+01 4.961135e+01 5.013332e+01 5.014321e+01 5.037412e+01 5.006175e+01 4.999646e+01 4.935437e+01 4.899388e+01 4.802116e+01 4.737270e+01 4.607552e+01 4.515243e+01 4.354449e+01 4.236590e+01 4.046853e+01 3.905880e+01 3.690077e+01 3.528875e+01 3.290563e+01 3.112368e+01 2.855682e+01 2.663968e+01 2.393479e+01 2.191830e+01 1.912369e+01 1.704352e+01 1.420820e+01 1.209860e+01 9.270324e+00 7.163063e+00 4.386624e+00 2.310138e+00 -3.741050e-01 -2.395277e+00 -4.952406e+00 -6.897891e+00 -9.299017e+00 -1.115262e+01 -1.337505e+01 -1.512452e+01 -1.715158e+01 -1.878829e+01 -2.060886e+01 -2.212726e+01 -2.373518e+01 -2.513229e+01 -2.652562e+01 -2.780050e+01 -2.898074e+01 
-3.237212e+01 -3.329806e+01 -3.428545e+01 -3.500668e+01 -3.587978e+01 -3.640514e+01 -3.716685e+01 -3.750585e+01 -3.815857e+01 -3.832088e+01 -3.886613e+01 -3.886125e+01 -3.929947e+01 -3.913637e+01 -3.946673e+01 -3.915367e+01 -3.937404e+01 -3.891846e+01 -3.902547e+01 -3.843397e+01 -3.842319e+01 -3.770162e+01 -3.756789e+01 -3.672149e+01 -3.645935e+01 -3.549297e+01 -3.509710e+01 -3.401544e+01 -3.348118e+01 -3.228895e+01 -3.161265e+01 -3.031478e+01 -2.949415e+01 -2.809582e+01 -2.713006e+01 -2.563676e+01 -2.452656e+01 -2.294401e+01 -2.169154e+01 -2.002565e+01 -1.863442e+01 -1.689128e+01 -1.536609e+01 -1.355201e+01 -1.189898e+01 -1.002062e+01 -8.247314e+00 -6.311924e+00 -4.427611e+00 -2.443403e+00 -4.593757e-01 1.564083e+00 3.634117e+00 5.685436e+00 7.824997e+00 9.890511e+00 1.208007e+01 1.414345e+01 1.636027e+01 1.840227e+01 2.062042e+01 2.261877e+01 2.480937e+01 2.673888e+01 2.887052e+01 3.070339e+01 3.274284e+01 3.444921e+01 3.636222e+01 3.791086e+01 3.966321e+01 4.102242e+01 4.258104e+01 4.371955e+01 4.505366e+01 4.594170e+01 4.702392e+01 4.763418e+01 4.844159e+01 4.875027e+01 4.926528e+01 4.925302e+01 4.946407e+01 4.911692e+01 4.901899e+01 4.832925e+01 4.792417e+01 4.689117e+01 4.618763e+01 4.481836e+01 4.383179e+01 4.214136e+01 4.089348e+01 3.890519e+01 3.742338e+01 3.516850e+01 3.348481e+01 3.100189e+01 2.915195e+01 2.648560e+01 2.450719e+01 2.170646e+01 1.963809e+01 1.675448e+01 1.463389e+01 1.171921e+01 9.582012e+00 6.686280e+00 4.564821e+00 1.734351e+00 -3.430985e-01 -3.067145e+00 -5.076870e+00 -7.659488e+00 -9.582459e+00 -1.199529e+01 -1.381701e+01 -1.603838e+01 -1.774853e+01 -1.976310e+01 -2.135502e+01 -2.315326e+01 -2.462336e+01 -2.620076e+01 -2.754790e+01 -2.890417e+01 -3.012911e+01 -3.126735e+01 
-3.230628e+01 -3.326769e+01 -3.431001e+01 -3.505677e+01 -3.597717e+01 -3.651981e+01 -3.732222e+01 -3.767185e+01 -3.835958e+01 -3.852735e+01 -3.910273e+01 -3.909942e+01 -3.956350e+01 -3.939912e+01 -3.975146e+01 -3.943509e+01 -3.967369e+01 -3.921330e+01 -3.933462e+01 -3.873709e+01 -3.873629e+01 -3.800749e+01 -3.787878e+01 -3.702375e+01 -3.676085e+01 -3.578406e+01 -3.538079e+01 -3.428646e+01 -3.373729e+01 -3.252962e+01 -3.183018e+01 -3.051357e+01 -2.966101e+01 -2.824018e+01 -2.723336e+01 -2.571341e+01 -2.455292e+01 -2.293920e+01 -2.162729e+01 -1.992538e+01 -1.846577e+01 -1.668142e+01 -1.507921e+01 -1.321835e+01 -1.148002e+01 -9.548848e+00 -7.682347e+00 -5.687631e+00 -3.702650e+00 -1.652070e+00 4.396148e-01 2.536991e+00 4.721108e+00 6.854296e+00 9.113684e+00 1.126926e+01 1.358356e+01 1.574521e+01 1.809067e+01 2.023885e+01 2.258834e+01 2.470012e+01 2.702338e+01 2.907253e+01 3.133658e+01 3.329390e+01 3.546375e+01 3.729760e+01 3.933714e+01 4.101420e+01 4.288725e+01 4.437342e+01 4.604488e+01 4.730632e+01 4.874340e+01 4.974756e+01 5.092092e+01 5.163761e+01 5.252247e+01 5.292492e+01 5.350197e+01 5.356786e+01 5.382401e+01 5.353650e+01 5.346536e+01 5.281404e+01 5.241635e+01 5.139815e+01 5.068182e+01 4.930186e+01 4.828188e+01 4.655403e+01 4.525217e+01 4.319943e+01 4.164360e+01 3.929795e+01 3.752138e+01 3.492323e+01 3.296331e+01 3.016027e+01 2.805719e+01 2.510233e+01 2.289753e+01 1.984719e+01 1.758174e+01 1.449304e+01 1.220611e+01 9.134434e+00 6.861926e+00 3.858706e+00 1.632229e+00 -1.256883e+00 -3.410664e+00 -6.147012e+00 -8.206641e+00 -1.075918e+01 -1.270833e+01 -1.505368e+01 -1.688080e+01 -1.900286e+01 -2.070063e+01 -2.258986e+01 -2.415453e+01 -2.580708e+01 -2.723780e+01 -2.865448e+01 -2.995258e+01 -3.113795e+01 
-3.468024e+01 -3.559103e+01 -3.658377e+01 -3.727763e+01 -3.815305e+01 -3.864184e+01 -3.940485e+01 -3.970080e+01 -4.035548e+01 -4.047064e+01 -4.101981e+01 -4.096559e+01 -4.141055e+01 -4.119744e+01 -4.153774e+01 -4.117506e+01 -4.140840e+01 -4.090421e+01 -4.102657e+01 -4.038767e+01 -4.039348e+01 -3.962559e+01 -3.950820e+01 -3.861616e+01 -3.836839e+01 -3.735652e+01 -3.697127e+01 -3.584368e+01 -3.531466e+01 -3.407555e+01 -3.339777e+01 -3.205165e+01 -3.122181e+01 -2.977357e+01 -2.879019e+01 -2.724507e+01 -2.610848e+01 -2.447193e+01 -2.318399e+01 -2.146155e+01 -2.002544e+01 -1.822258e+01 -1.664262e+01 -1.476476e+01 -1.304635e+01 -1.109898e+01 -9.248769e+00 -7.237718e+00 -5.263921e+00 -3.195831e+00 -1.108730e+00 1.008401e+00 3.195897e+00 5.352072e+00 7.623872e+00 9.806449e+00 1.214281e+01 1.433593e+01 1.671316e+01 1.889730e+01 2.128767e+01 2.343947e+01 2.581142e+01 2.790369e+01 3.022229e+01 3.222437e+01 3.445208e+01 3.633046e+01 3.842817e+01 4.014735e+01 4.207560e+01 4.359912e+01 4.531949e+01 4.661107e+01 4.808756e+01 4.911230e+01 5.031277e+01 5.103832e+01 5.193570e+01 5.233343e+01 5.290682e+01 5.295295e+01 5.318845e+01 5.286511e+01 5.275643e+01 5.205272e+01 5.160152e+01 5.051452e+01 4.973052e+01 4.826616e+01 4.716696e+01 4.534072e+01 4.395136e+01 4.178859e+01 4.014083e+01 3.767665e+01 3.580787e+01 3.308645e+01 3.103828e+01 2.811145e+01 2.592809e+01 2.285332e+01 2.057970e+01 1.741754e+01 1.509745e+01 1.190872e+01 9.583083e+00 6.426089e+00 4.131518e+00 1.059656e+00 -1.172536e+00 -4.112665e+00 -6.256958e+00 -9.026698e+00 -1.106343e+01 -1.363253e+01 -1.554758e+01 -1.789406e+01 -1.967829e+01 -2.178784e+01 -2.343638e+01 -2.530148e+01 -2.681295e+01 -2.843180e+01 -2.980752e+01 -3.118301e+01 -3.242627e+01 -3.356486e+01 