# vtk DataFile Version 2.0
Comment goes here
ASCII

DATASET STRUCTURED_POINTS
FIELD FieldData 1
TIME 1 1 double
0.13500000
DIMENSIONS    128   128   1

ORIGIN    0.000   0.000   0.000
SPACING   0.039062 0.039062   1.000

POINT_DATA   16384
SCALARS P double
LOOKUP_TABLE default

-9.026607e+00 -7.546489e+00 -8.896417e+00 -7.388448e+00 -8.691315e+00 -7.171293e+00 -8.420138e+00 -6.903802e+00 -8.091705e+00 -6.594520e+00 -7.714499e+00 -6.251459e+00 -7.296380e+00 -5.881849e+00 -6.844369e+00 -5.491934e+00 -6.364478e+00 -5.086848e+00 -5.861612e+00 -4.670541e+00 -5.339539e+00 -4.245782e+00 -4.800919e+00 -3.814215e+00 -4.247402e+00 -3.376482e+00 -3.679771e+00 -2.932384e+00 -3.098143e+00 -2.481086e+00 -2.502195e+00 -2.021347e+00 -1.891413e+00 -1.551758e+00 -1.265356e+00 -1.070981e+00 -6.239073e-01 -5.779869e-01 3.248001e-02 -7.225450e-02 7.025762e-01 4.460444e-01 1.384201e+00 9.759053e-01 2.074101e+00 1.515390e+00 2.767882e+00 2.061573e+00 3.460002e+00 2.610528e+00 4.143825e+00 3.157365e+00 4.811736e+00 3.696305e+00 5.455296e+00 4.220789e+00 6.065455e+00 4.723615e+00 6.632779e+00 5.197091e+00 7.147696e+00 5.633209e+00 7.600749e+00 6.023818e+00 7.982835e+00 6.360798e+00 8.285428e+00 6.636241e+00 8.500781e+00 6.842620e+00 8.622110e+00 6.972973e+00 8.643750e+00 7.021078e+00 8.561297e+00 6.981645e+00 8.371747e+00 6.850509e+00 8.073619e+00 6.624835e+00 7.667073e+00 6.303319e+00 7.154035e+00 5.886390e+00 6.538293e+00 5.376388e+00 5.825590e+00 4.777705e+00 5.023668e+00 4.096876e+00 4.142275e+00 3.342598e+00 3.193102e+00 2.525658e+00 2.189640e+00 1.658761e+00 1.146950e+00 7.562536e-01 8.134320e-02 -1.662511e-01 -9.900287e-01 -1.092344e+00 -2.049651e+00 -2.005348e+00 -3.080174e+00 -2.888890e+00 -4.064956e+00 -3.727463e+00 -4.988597e+00 -4.506964e+00 -5.837412e+00 -5.215148e+00 -6.599837e+00 -5.841996e+00 -7.266716e+00 -6.379963e+00 -7.831488e+00 -6.824096e+00 -8.290239e+00 -7.172040e+00 -8.641644e+00 -7.423920e+00 -8.886808e+00 -7.582135e+00 -9.029010e+00 -7.651070e+00 -9.073394e+00 -7.636755e+00 
-7.125719e+00 -5.650889e+00 -7.128507e+00 -5.623160e+00 -7.051203e+00 -5.530892e+00 -6.901770e+00 -5.382075e+00 -6.688350e+00 -5.184653e+00 -6.418918e+00 -4.946197e+00 -6.100970e+00 -4.673621e+00 -5.741273e+00 -4.372960e+00 -5.345673e+00 -4.049207e+00 -4.918966e+00 -3.706225e+00 -4.464842e+00 -3.346715e+00 -3.985902e+00 -2.972266e+00 -3.483730e+00 -2.583451e+00 -2.959036e+00 -2.179992e+00 -2.411844e+00 -1.760949e+00 -1.841717e+00 -1.324956e+00 -1.248016e+00 -8.704618e-01 -6.301601e-01 -3.959777e-01 1.210320e-02 9.968289e-02 6.784506e-01 6.171855e-01 1.367761e+00 1.156486e+00 2.077933e+00 1.716676e+00 2.805754e+00 2.295878e+00 3.546823e+00 2.891176e+00 4.295541e+00 3.498601e+00 5.045155e+00 4.113158e+00 5.787868e+00 4.728895e+00 6.514997e+00 5.339008e+00 7.217173e+00 5.935967e+00 7.884565e+00 6.511670e+00 8.507123e+00 7.057604e+00 9.074817e+00 7.565007e+00 9.577872e+00 8.025043e+00 1.000698e+01 8.428961e+00 1.035349e+01 8.768264e+00 1.060958e+01 9.034879e+00 1.076842e+01 9.221326e+00 1.082427e+01 9.320907e+00 1.077266e+01 9.327898e+00 1.061050e+01 9.237764e+00 1.033619e+01 9.047375e+00 9.949793e+00 8.755234e+00 9.453147e+00 8.361688e+00 8.850004e+00 7.869124e+00 8.146127e+00 7.282111e+00 7.349360e+00 6.607489e+00 6.469630e+00 5.854363e+00 5.518884e+00 5.034011e+00 4.510925e+00 4.159668e+00 3.461159e+00 3.246211e+00 2.386237e+00 2.309735e+00 1.303613e+00 1.367047e+00 2.310284e-01 4.350988e-01 -8.140392e-01 -4.695946e-01 -1.814939e+00 -1.331532e+00 -2.756379e+00 -2.136744e+00 -3.624894e+00 -2.873232e+00 -4.409220e+00 -3.531300e+00 -5.100565e+00 -4.103758e+00 -5.692744e+00 -4.586005e+00 -6.182201e+00 -4.975992e+00 -6.567914e+00 -5.274071e+00 -6.851199e+00 -5.482754e+00 -7.035433e+00 -5.606408e+00 
-9.070447e+00 -7.582587e+00 -8.936120e+00 -7.420303e+00 -8.726666e+00 -7.198803e+00 -8.451098e+00 -6.927037e+00 -8.118400e+00 -6.613702e+00 -7.737196e+00 -6.266941e+00 -7.315461e+00 -5.894084e+00 -6.860303e+00 -5.501447e+00 -6.377788e+00 -5.094203e+00 -5.872845e+00 -4.676310e+00 -5.349231e+00 -4.250511e+00 -4.809566e+00 -3.818402e+00 -4.255433e+00 -3.380548e+00 -3.687528e+00 -2.936656e+00 -3.105860e+00 -2.485788e+00 -2.509988e+00 -2.026586e+00 -1.899275e+00 -1.557529e+00 -1.273157e+00 -1.077171e+00 -6.314053e-01 -5.843800e-01 2.563184e-02 -7.854949e-02 6.968084e-01 4.402193e-01 1.380006e+00 9.709732e-01 2.072006e+00 1.511805e+00 2.768423e+00 2.059798e+00 3.463693e+00 2.611015e+00 4.151132e+00 3.160539e+00 4.823051e+00 3.702543e+00 5.470919e+00 4.230411e+00 6.085580e+00 4.736869e+00 6.657485e+00 5.214153e+00 7.176946e+00 5.654175e+00 7.634394e+00 6.048703e+00 8.020619e+00 6.389533e+00 8.326998e+00 6.668671e+00 8.545697e+00 6.878505e+00 8.669850e+00 7.011980e+00 8.693720e+00 7.062778e+00 8.612833e+00 7.025508e+00 8.424118e+00 6.895899e+00 8.126027e+00 6.671008e+00 7.718660e+00 6.349427e+00 7.203883e+00 5.931493e+00 6.585439e+00 5.419468e+00 5.869040e+00 4.817696e+00 5.062423e+00 4.132699e+00 4.175365e+00 3.373207e+00 3.219622e+00 2.550085e+00 2.208796e+00 1.676173e+00 1.158102e+00 7.660014e-01 8.404923e-02 -1.645927e-01 -9.959790e-01 -1.098940e+00 -2.064212e+00 -2.020089e+00 -3.103033e+00 -2.911385e+00 -4.095542e+00 -3.757063e+00 -5.026102e+00 -4.542787e+00 -5.880827e+00 -5.256130e+00 -6.647999e+00 -5.886942e+00 -7.318367e+00 -6.427607e+00 -7.885331e+00 -6.873162e+00 -8.344994e+00 -7.221295e+00 -8.696100e+00 -7.472223e+00 -8.939865e+00 -7.628477e+00 -9.079714e+00 -7.694602e+00 -9.120964e+00 -7.676809e+00 
-7.217519e+00 -5.727542e+00 -7.213110e+00 -5.692307e+00 -7.127962e+00 -5.592124e+00 -6.970416e+00 -5.435350e+00 -6.748967e+00 -5.230260e+00 -6.471897e+00 -4.984711e+00 -6.146966e+00 -4.705850e+00 -5.781140e+00 -4.399881e+00 -5.380401e+00 -4.071902e+00 -4.949614e+00 -3.725811e+00 -4.492471e+00 -3.364283e+00 -4.011506e+00 -2.988816e+00 -3.508182e+00 -2.599845e+00 -2.983036e+00 -2.196908e+00 -2.435880e+00 -1.778852e+00 -1.866038e+00 -1.344083e+00 -1.272618e+00 -8.908128e-01 -6.547874e-01 -4.173259e-01 -1.205229e-02 7.777517e-02 6.554789e-01 5.953404e-01 1.346864e+00 1.135476e+00 2.060134e+00 1.697388e+00 2.792155e+00 2.279266e+00 3.538550e+00 2.878223e+00 4.293679e+00 3.490274e+00 5.050700e+00 4.110373e+00 5.801673e+00 4.732484e+00 6.537736e+00 5.349688e+00 7.249312e+00 5.954326e+00 7.926348e+00 6.538155e+00 8.558569e+00 7.092509e+00 9.135731e+00 7.608474e+00 9.647854e+00 8.077056e+00 1.008545e+01 8.489345e+00 1.043969e+01 8.836678e+00 1.070262e+01 9.110804e+00 1.086725e+01 9.304056e+00 1.092771e+01 9.409530e+00 1.087940e+01 9.421284e+00 1.071907e+01 9.334550e+00 1.044499e+01 9.145966e+00 1.005707e+01 8.853809e+00 9.557017e+00 8.458228e+00 8.948463e+00 7.961452e+00 8.237102e+00 7.367961e+00 7.430763e+00 6.684584e+00 6.539433e+00 5.920520e+00 5.575207e+00 5.087241e+00 4.552135e+00 4.198291e+00 3.485964e+00 3.268957e+00 2.393775e+00 2.315824e+00 1.293521e+00 1.356252e+00 2.034862e-01 4.077692e-01 -8.583006e-01 -5.125444e-01 -1.874660e+00 -1.388666e+00 -2.829828e+00 -2.206184e+00 -3.709953e+00 -2.952756e+00 -4.503493e+00 -3.618459e+00 -5.201491e+00 -4.195999e+00 -5.797719e+00 -4.680793e+00 -6.288692e+00 -5.070914e+00 -6.673560e+00 -5.366930e+00 -6.953895e+00 -5.571647e+00 -7.133393e+00 -5.689773e+00 
-9.202420e+00 -7.691217e+00 -9.055494e+00 -7.516016e+00 -8.832800e+00 -7.281308e+00 -8.543897e+00 -6.996562e+00 -8.198262e+00 -6.670940e+00 -7.804947e+00 -6.312977e+00 -7.372278e+00 -5.930307e+00 -6.907624e+00 -5.529465e+00 -6.417217e+00 -5.115740e+00 -5.906050e+00 -4.693109e+00 -5.377852e+00 -4.264245e+00 -4.835120e+00 -3.830583e+00 -4.279231e+00 -3.392460e+00 -3.710609e+00 -2.949296e+00 -3.128938e+00 -2.499828e+00 -2.533416e+00 -2.042353e+00 -1.923033e+00 -1.575004e+00 -1.296851e+00 -1.096000e+00 -6.542906e-01 -6.039059e-01 4.611764e-03 -9.785132e-02 6.789676e-01 4.222759e-01 1.366847e+00 9.556777e-01 2.065142e+00 1.500540e+00 2.769488e+00 2.053973e+00 3.474257e+00 2.612009e+00 4.172616e+00 3.169637e+00 4.856651e+00 3.720893e+00 5.517550e+00 4.258977e+00 6.145830e+00 4.776410e+00 6.731594e+00 5.265198e+00 7.264801e+00 5.717015e+00 7.735540e+00 6.123380e+00 8.134281e+00 6.475845e+00 8.452108e+00 6.766159e+00 8.680924e+00 6.986451e+00 8.813627e+00 7.129391e+00 8.844258e+00 7.188373e+00 8.768139e+00 7.157699e+00 8.581995e+00 7.032779e+00 8.284083e+00 6.810342e+00 7.874308e+00 6.488664e+00 7.354362e+00 6.067790e+00 6.727839e+00 5.549744e+00 6.000355e+00 4.938716e+00 5.179626e+00 4.241183e+00 4.275503e+00 3.465962e+00 3.299938e+00 2.624162e+00 2.266862e+00 1.729022e+00 1.191958e+00 7.956265e-01 9.233352e-02 -1.594959e-01 -1.013921e+00 -1.118887e+00 -2.108252e+00 -2.064747e+00 -3.172230e+00 -2.979572e+00 -4.188159e+00 -3.846794e+00 -5.139675e+00 -4.651374e+00 -6.012282e+00 -5.380323e+00 -6.793795e+00 -6.023098e+00 -7.474672e+00 -6.571871e+00 -8.048196e+00 -7.021648e+00 -8.510526e+00 -7.370256e+00 -8.860622e+00 -7.618197e+00 -9.100042e+00 -7.768406e+00 -9.232663e+00 -7.825920e+00 -9.264323e+00 -7.797502e+00 
-7.402255e+00 -5.881741e+00 -7.383058e+00 -5.831104e+00 -7.281840e+00 -5.714723e+00 -7.107715e+00 -5.541700e+00 -6.869892e+00 -5.320985e+00 -6.577288e+00 -5.061019e+00 -6.238187e+00 -4.769416e+00 -5.859966e+00 -4.452726e+00 -5.448882e+00 -4.116258e+00 -5.009936e+00 -3.763979e+00 -4.546817e+00 -3.398503e+00 -4.061927e+00 -3.021144e+00 -3.556473e+00 -2.632044e+00 -3.030636e+00 -2.230363e+00 -2.483791e+00 -1.814513e+00 -1.914773e+00 -1.382425e+00 -1.322169e+00 -9.318317e-01 -7.046288e-01 -4.605502e-01 -6.116567e-02 3.324713e-02 6.085540e-01 5.507863e-01 1.303955e+00 1.092481e+00 2.023341e+00 1.657764e+00 2.763742e+00 2.244967e+00 3.520823e+00 2.851255e+00 4.288869e+00 3.472613e+00 5.060845e+00 4.103881e+00 5.828518e+00 4.738847e+00 6.582656e+00 5.370364e+00 7.313253e+00 5.990505e+00 8.009802e+00 6.590735e+00 8.661569e+00 7.162085e+00 9.257869e+00 7.695332e+00 9.788315e+00 8.181170e+00 1.024305e+01 8.610371e+00 1.061292e+01 8.973942e+00 1.088966e+01 9.263285e+00 1.106601e+01 9.470356e+00 1.113585e+01 9.587841e+00 1.109428e+01 9.609353e+00 1.093777e+01 9.529658e+00 1.066429e+01 9.344910e+00 1.027346e+01 9.052921e+00 9.766697e+00 8.653422e+00 9.147391e+00 8.148312e+00 8.421074e+00 7.541868e+00 7.595526e+00 6.840889e+00 6.680842e+00 6.054743e+00 5.689407e+00 5.195300e+00 4.635762e+00 4.276724e+00 3.536347e+00 3.315137e+00 2.409122e+00 2.328138e+00 1.273064e+00 1.334218e+00 1.475726e-01 3.520959e-01 -9.481842e-01 -5.999819e-01 -1.995937e+00 -1.504920e+00 -2.978951e+00 -2.347395e+00 -3.882580e+00 -3.114363e+00 -4.694712e+00 -3.795443e+00 -5.406059e+00 -4.383135e+00 -6.010314e+00 -4.872897e+00 -6.504148e+00 -5.263066e+00 -6.887069e+00 -5.554665e+00 -7.161180e+00 -5.751100e+00 -7.330839e+00 -5.857790e+00 
-9.423891e+00 -7.873385e+00 -9.255322e+00 -7.676026e+00 -9.009953e+00 -7.418719e+00 -8.698271e+00 -7.111820e+00 -8.330594e+00 -6.765282e+00 -7.916702e+00 -6.388303e+00 -7.465520e+00 -5.989041e+00 -6.984855e+00 -5.574392e+00 -6.481219e+00 -5.149842e+00 -5.959717e+00 -4.719399e+00 -5.424016e+00 -4.285601e+00 -4.876399e+00 -3.849609e+00 -4.317888e+00 -3.411355e+00 -3.748433e+00 -2.969766e+00 -3.167156e+00 -2.523013e+00 -2.572637e+00 -2.068804e+00 -1.963216e+00 -1.604669e+00 -1.337318e+00 -1.128262e+00 -6.937564e-01 -6.376225e-01 -3.203139e-02 -1.314315e-01 6.474135e-01 3.907870e-01 1.342975e+00 9.284987e-01 2.051735e+00 1.480045e+00 2.769368e+00 2.042583e+00 3.490134e+00 2.612082e+00 4.206940e+00 3.183372e+00 4.911483e+00 3.750244e+00 5.594462e+00 4.305588e+00 6.245827e+00 4.841566e+00 6.855082e+00 5.349795e+00 7.411582e+00 5.821542e+00 7.904831e+00 6.247918e+00 8.324759e+00 6.620059e+00 8.661964e+00 6.929298e+00 8.907914e+00 7.167329e+00 9.055115e+00 7.326372e+00 9.097252e+00 7.399341e+00 9.029309e+00 7.380024e+00 8.847677e+00 7.263287e+00 8.550279e+00 7.045300e+00 8.136691e+00 6.723783e+00 7.608291e+00 6.298269e+00 6.968408e+00 5.770358e+00 6.222470e+00 5.143949e+00 5.378129e+00 4.425416e+00 4.445339e+00 3.623705e+00 3.436364e+00 2.750321e+00 2.365677e+00 1.819176e+00 1.249752e+00 8.463048e-01 1.067167e-01 -1.505806e-01 -1.044121e+00 -1.152654e+00 -2.182856e+00 -2.140648e+00 -3.289646e+00 -3.095581e+00 -4.345418e+00 -3.999493e+00 -5.332546e+00 -4.836130e+00 -6.235474e+00 -5.591533e+00 -7.041222e+00 -6.254487e+00 -7.739746e+00 -6.816810e+00 -8.324142e+00 -7.273473e+00 -8.790683e+00 -7.622557e+00 -9.138710e+00 -7.865070e+00 -9.370390e+00 -8.004655e+00 -9.490381e+00 -8.047203e+00 -9.505423e+00 -8.000425e+00 
-7.682210e+00 -6.115272e+00 -7.639824e+00 -6.040541e+00 -7.513531e+00 -5.898926e+00 -7.313640e+00 -5.700681e+00 -7.050464e+00 -5.455798e+00 -6.733893e+00 -5.173615e+00 -6.373029e+00 -4.862470e+00 -5.975872e+00 -4.529439e+00 -5.549100e+00 -4.180147e+00 -5.097918e+00 -3.818664e+00 -4.626006e+00 -3.447499e+00 -4.135547e+00 -3.067664e+00 -3.627343e+00 -2.678840e+00 -3.101013e+00 -2.279589e+00 -2.555247e+00 -1.867636e+00 -1.988109e+00 -1.440170e+00 -1.397377e+00 -9.941735e-01 -7.808870e-01 -5.267364e-01 -1.368819e-01 -3.536367e-02 5.356633e-01 4.817531e-01 1.236749e+00 1.025502e+00 1.965107e+00 1.595665e+00 2.718022e+00 2.190787e+00 3.491227e+00 2.808111e+00 4.278885e+00 3.443562e+00 5.073655e+00 4.091802e+00 5.866842e+00 4.746336e+00 6.648622e+00 5.399653e+00 7.408318e+00 6.043411e+00 8.134708e+00 6.668622e+00 8.816346e+00 7.265855e+00 9.441868e+00 7.825421e+00 1.000027e+01 8.337547e+00 1.048113e+01 8.792537e+00 1.087482e+01 9.180915e+00 1.117264e+01 9.493567e+00 1.136693e+01 9.721890e+00 1.145117e+01 9.857955e+00 1.142007e+01 9.894701e+00 1.126968e+01 9.826167e+00 1.099749e+01 9.647755e+00 1.060265e+01 9.356537e+00 1.008611e+01 8.951566e+00 9.450870e+00 8.434195e+00 8.702162e+00 7.808348e+00 7.847653e+00 7.080738e+00 6.897562e+00 6.260965e+00 5.864687e+00 5.361485e+00 4.764306e+00 4.397419e+00 3.613922e+00 3.386185e+00 2.432859e+00 2.346967e+00 1.241699e+00 1.300041e+00 6.159933e-02 2.659995e-01 -1.086474e+00 -7.350668e-01 -2.182532e+00 -1.684373e+00 -3.208308e+00 -2.565164e+00 -4.147915e+00 -3.363306e+00 -4.988348e+00 -4.067713e+00 -5.719825e+00 -4.670587e+00 -6.335933e+00 -5.167474e+00 -6.833607e+00 -5.557150e+00 -7.212943e+00 -5.841368e+00 -7.476891e+00 -6.024490e+00 -7.630853e+00 -6.113053e+00 
-9.737129e+00 -8.130747e+00 -9.536883e+00 -7.901019e+00 -9.258466e+00 -7.610824e+00 -8.913710e+00 -7.271803e+00 -8.514149e+00 -6.895049e+00 -8.070618e+00 -6.490717e+00 -7.592896e+00 -6.067718e+00 -7.089427e+00 -5.633464e+00 -6.567120e+00 -5.193719e+00 -6.031227e+00 -4.752521e+00 -5.485323e+00 -4.312202e+00 -4.931363e+00 -3.873503e+00 -4.369840e+00 -3.435758e+00 -3.800000e+00 -2.997152e+00 -3.220138e+00 -2.555028e+00 -2.627919e+00 -2.106218e+00 -2.020737e+00 -1.647379e+00 -1.396074e+00 -1.175330e+00 -7.518587e-01 -6.873555e-01 -8.679882e-02 -1.814798e-01 5.993176e-01 3.432984e-01 1.305372e+00 8.868247e-01 2.028726e+00 1.447663e+00 2.765117e+00 2.023029e+00 3.508636e+00 2.608794e+00 4.251804e+00 3.199546e+00 4.985741e+00 3.788710e+00 5.700409e+00 4.368715e+00 6.384928e+00 4.931196e+00 7.027914e+00 5.467206e+00 7.617837e+00 5.967436e+00 8.143360e+00 6.422414e+00 8.593643e+00 6.822700e+00 8.958599e+00 7.159050e+00 9.229096e+00 7.422565e+00 9.397113e+00 7.604843e+00 9.455852e+00 7.698129e+00 9.399837e+00 7.695485e+00 9.224999e+00 7.590997e+00 8.928788e+00 7.380014e+00 8.510297e+00 7.059433e+00 7.970429e+00 6.628008e+00 7.312089e+00 6.086673e+00 6.540383e+00 5.438853e+00 5.662817e+00 4.690717e+00 4.689437e+00 3.851349e+00 3.632905e+00 2.932786e+00 2.508446e+00 1.949902e+00 1.333656e+00 9.201024e-01 1.281429e-01 -1.371576e-01 -1.086998e+00 -1.201030e+00 -2.289860e+00 -2.250067e+00 -3.458506e+00 -3.263087e+00 -4.571809e+00 -4.220060e+00 -5.610271e+00 -5.102930e+00 -6.556767e+00 -5.896315e+00 -7.397146e+00 -6.588023e+00 -8.120649e+00 -7.169383e+00 -8.720122e+00 -7.635345e+00 -9.192038e+00 -7.984400e+00 -9.536330e+00 -8.218334e+00 -9.756085e+00 -8.341854e+00 -9.857131e+00 -8.362121e+00 -9.847544e+00 -8.288246e+00 
-8.060823e+00 -6.430808e+00 -7.985595e+00 -6.322057e+00 -7.824014e+00 -6.145006e+00 -7.588053e+00 -5.911514e+00 -7.289559e+00 -5.633017e+00 -6.939774e+00 -5.320092e+00 -6.548923e+00 -4.982075e+00 -6.125868e+00 -4.626766e+00 -5.677863e+00 -4.260216e+00 -5.210384e+00 -3.886623e+00 -4.727081e+00 -3.508326e+00 -4.229815e+00 -3.125902e+00 -3.718807e+00 -2.738357e+00 -3.192872e+00 -2.343402e+00 -2.649724e+00 -1.937778e+00 -2.086339e+00 -1.517628e+00 -1.499346e+00 -1.078874e+00 -8.854389e-01 -6.175899e-01 -2.417706e-01 -1.303459e-01 4.336604e-01 3.854767e-01 1.141670e+00 9.314237e-01 1.881597e+00 1.507759e+00 2.651092e+00 2.113318e+00 3.445983e+00 2.745438e+00 4.260252e+00 3.399947e+00 5.086119e+00 4.071242e+00 5.914220e+00 4.752415e+00 6.733884e+00 5.435438e+00 7.533471e+00 6.111375e+00 8.300747e+00 6.770614e+00 9.023264e+00 7.403087e+00 9.688717e+00 7.998480e+00 1.028526e+01 8.546406e+00 1.080173e+01 9.036558e+00 1.122788e+01 9.458838e+00 1.155446e+01 9.803465e+00 1.177331e+01 1.006111e+01 1.187742e+01 1.022301e+01 1.186097e+01 1.028121e+01 1.171944e+01 1.022872e+01 1.144970e+01 1.005989e+01 1.105021e+01 9.770723e+00 1.052124e+01 9.359271e+00 9.865169e+00 8.826053e+00 9.086739e+00 8.174429e+00 8.193378e+00 7.410911e+00 7.195395e+00 6.545359e+00 6.106097e+00 5.591001e+00 4.941735e+00 4.564267e+00 3.721277e+00 3.484392e+00 2.465956e+00 2.372803e+00 1.198628e+00 1.252322e+00 -5.704253e-02 1.462266e-01 -1.277513e+00 -9.227556e-01 -2.440329e+00 -1.933425e+00 -3.525039e+00 -2.866995e+00 -4.513991e+00 -3.707800e+00 -5.392942e+00 -4.443791e+00 -6.151436e+00 -5.066789e+00 -6.782956e+00 -5.572518e+00 -7.284859e+00 -5.960421e+00 -7.658114e+00 -6.233325e+00 -7.906905e+00 -6.396974e+00 -8.038127e+00 -6.459493e+00 
-1.014530e+01 -8.465585e+00 -9.901901e+00 -8.191870e+00 -9.578705e+00 -7.857197e+00 -9.189350e+00 -7.474934e+00 -8.747004e+00 -7.057696e+00 -8.263906e+00 -6.616921e+00 -7.750980e+00 -6.162517e+00 -7.217517e+00 -5.702586e+00 -6.670947e+00 -5.243248e+00 -6.116709e+00 -4.788561e+00 -5.558230e+00 -4.340557e+00 -4.997005e+00 -3.899379e+00 -4.432782e+00 -3.463521e+00 -3.863840e+00 -3.030142e+00 -3.287328e+00 -2.595437e+00 -2.699661e+00 -2.155037e+00 -2.096935e+00 -1.704409e+00 -1.475349e+00 -1.239242e+00 -8.316193e-01 -7.557951e-01 -1.633696e-01 -2.512139e-01 5.305157e-01 2.762108e-01 1.249589e+00 8.268327e-01 1.991606e+00 1.399508e+00 2.752393e+00 1.991522e+00 3.525807e+00 2.598597e+00 4.303831e+00 3.214973e+00 5.076774e+00 3.833562e+00 5.833581e+00 4.446153e+00 6.562208e+00 5.043659e+00 7.250052e+00 5.616375e+00 7.884377e+00 6.154221e+00 8.452715e+00 6.646977e+00 8.943213e+00 7.084466e+00 9.344904e+00 7.456720e+00 9.647906e+00 7.754104e+00 9.843553e+00 7.967437e+00 9.924466e+00 8.088114e+00 9.884608e+00 8.108259e+00 9.719337e+00 8.020921e+00 9.425483e+00 7.820336e+00 9.001480e+00 7.502252e+00 8.447557e+00 7.064310e+00 7.765979e+00 6.506463e+00 6.961333e+00 5.831396e+00 6.040822e+00 5.044901e+00 5.014512e+00 4.156155e+00 3.895505e+00 3.177842e+00 2.699967e+00 2.126088e+00 1.446966e+00 1.020148e+00 1.581055e-01 -1.181381e-01 -1.143074e+00 -1.265125e+00 -2.431897e+00 -2.396327e+00 -3.683509e+00 -3.487496e+00 -4.873917e+00 -4.515717e+00 -5.981015e+00 -5.460437e+00 -6.985507e+00 -6.304316e+00 -7.871643e+00 -7.033860e+00 -8.627713e+00 -7.639770e+00 -9.246275e+00 -8.117034e+00 -9.724134e+00 -8.464778e+00 -1.006210e+01 -8.685911e+00 -1.026457e+01 -8.786642e+00 -1.033901e+01 -8.775900e+00 -1.029533e+01 -8.664714e+00 
-8.542713e+00 -6.831902e+00 -8.423229e+00 -6.677475e+00 -8.214461e+00 -6.453169e+00 -7.930579e+00 -6.172946e+00 -7.585442e+00 -5.850137e+00 -7.192064e+00 -5.496944e+00 -6.762137e+00 -5.124004e+00 -6.305650e+00 -4.740052e+00 -5.830595e+00 -4.351686e+00 -5.342793e+00 -3.963248e+00 -4.845827e+00 -3.576822e+00 -4.341105e+00 -3.192369e+00 -3.828048e+00 -2.807966e+00 -3.304373e+00 -2.420154e+00 -2.766477e+00 -2.024344e+00 -2.209865e+00 -1.615264e+00 -1.629630e+00 -1.187421e+00 -1.020927e+00 -7.355327e-01 -3.794538e-01 -2.549343e-01 2.981061e-01 2.580626e-01 1.013668e+00 8.058684e-01 1.767399e+00 1.389375e+00 2.557441e+00 2.007791e+00 3.379755e+00 2.658558e+00 4.228074e+00 3.337355e+00 5.094008e+00 4.038195e+00 5.967270e+00 4.753596e+00 6.836022e+00 5.474817e+00 7.687307e+00 6.192123e+00 8.507518e+00 6.895073e+00 9.282867e+00 7.572777e+00 9.999814e+00 8.214128e+00 1.064543e+01 8.807987e+00 1.120765e+01 9.343318e+00 1.167547e+01 9.809280e+00 1.203901e+01 1.019530e+01 1.228954e+01 1.049117e+01 1.241950e+01 1.068712e+01 1.242248e+01 1.077400e+01 1.229322e+01 1.074353e+01 1.202778e+01 1.058861e+01 1.162370e+01 1.030378e+01 1.108027e+01 9.885664e+00 1.039893e+01 9.333570e+00 9.583674e+00 8.649973e+00 8.641457e+00 7.840991e+00 7.582566e+00 6.916709e+00 6.420855e+00 5.891296e+00 5.173783e+00 4.782875e+00 3.862209e+00 3.613093e+00 2.509910e+00 2.406412e+00 1.142818e+00 1.189122e+00 -2.119815e-01 -1.182513e-02 -1.527415e+00 -1.170086e+00 -2.777644e+00 -2.261165e+00 -3.939238e+00 -3.263525e+00 -4.992161e+00 -4.159459e+00 -5.920525e+00 -4.935675e+00 -6.713028e+00 -5.583564e+00 -7.363096e+00 -6.099176e+00 -7.868733e+00 -6.482942e+00 -8.232162e+00 -6.739200e+00 -8.459284e+00 -6.875600e+00 -8.559039e+00 -6.902428e+00 
-1.065247e+01 -8.880760e+00 -1.035248e+01 -8.549539e+00 -9.970943e+00 -8.157057e+00 -9.523816e+00 -7.718891e+00 -9.026358e+00 -7.249610e+00 -8.492615e+00 -6.762295e+00 -7.934973e+00 -6.268130e+00 -7.363804e+00 -5.776094e+00 -6.787197e+00 -5.292746e+00 -6.210812e+00 -4.822145e+00 -5.637855e+00 -4.365891e+00 -5.069188e+00 -3.923311e+00 -4.503558e+00 -3.491753e+00 -3.937943e+00 -3.066994e+00 -3.367973e+00 -2.643699e+00 -2.788410e+00 -2.215915e+00 -2.193645e+00 -1.777545e+00 -1.578192e+00 -1.322808e+00 -9.371755e-01 -8.466379e-01 -2.667869e-01 -3.450398e-01 4.352914e-01 1.846072e-01 1.169513e+00 7.433106e-01 1.934174e+00 1.330296e+00 2.725223e+00 1.942923e+00 3.536210e+00 2.576694e+00 4.358391e+00 3.225366e+00 5.180977e+00 3.881149e+00 5.991529e+00 4.534970e+00 6.776441e+00 5.176784e+00 7.521480e+00 5.795896e+00 8.212323e+00 6.381254e+00 8.835041e+00 6.921705e+00 9.376505e+00 7.406195e+00 9.824683e+00 7.823904e+00 1.016882e+01 8.164344e+00 1.039951e+01 8.417427e+00 1.050875e+01 8.573539e+00 1.048989e+01 8.623652e+00 1.033759e+01 8.559506e+00 1.004794e+01 8.373883e+00 9.618512e+00 8.060984e+00 9.048591e+00 7.616906e+00 8.339512e+00 7.040193e+00 7.495046e+00 6.332409e+00 6.521830e+00 5.498686e+00 5.429782e+00 4.548164e+00 4.232415e+00 3.494247e+00 2.946985e+00 2.354610e+00 1.594401e+00 1.150900e+00 1.988465e-01 -9.189001e-02 -1.212904e+00 -1.346369e+00 -2.612463e+00 -2.583954e+00 -3.971038e+00 -3.776241e+00 -5.260755e+00 -4.896419e+00 -6.455982e+00 -5.920578e+00 -7.534514e+00 -6.828795e+00 -8.478498e+00 -7.605891e+00 -9.275022e+00 -8.241834e+00 -9.916355e+00 -8.731777e+00 -1.039985e+01 -9.075796e+00 -1.072758e+01 -9.278388e+00 -1.090575e+01 -9.347821e+00 -1.094404e+01 -9.295394e+00 -1.085484e+01 -9.134677e+00 
-9.133684e+00 -7.322951e+00 -8.956197e+00 -7.108914e+00 -8.686122e+00 -6.823399e+00 -8.340430e+00 -6.483048e+00 -7.935541e+00 -6.103597e+00 -7.486711e+00 -5.699303e+00 -7.007495e+00 -5.282446e+00 -6.509298e+00 -4.862945e+00 -6.001044e+00 -4.448071e+00 -5.488963e+00 -4.042312e+00 -4.976521e+00 -3.647383e+00 -4.464504e+00 -3.262395e+00 -3.951254e+00 -2.884173e+00 -3.433033e+00 -2.507690e+00 -2.904495e+00 -2.126594e+00 -2.359222e+00 -1.733760e+00 -1.790299e+00 -1.321853e+00 -1.190887e+00 -8.838422e-01 -5.547839e-01 -4.134791e-01 1.230437e-01 9.429266e-02 8.459602e-01 6.429856e-01 1.615226e+00 1.234288e+00 2.429651e+00 1.867870e+00 3.285371e+00 2.541281e+00 4.175786e+00 3.249971e+00 5.091678e+00 3.987415e+00 6.021511e+00 4.745342e+00 6.951872e+00 5.514047e+00 7.868037e+00 6.282743e+00 8.754576e+00 7.039913e+00 9.595952e+00 7.773632e+00 1.037705e+01 8.471839e+00 1.108360e+01 9.122516e+00 1.170248e+01 9.713805e+00 1.222182e+01 1.023405e+01 1.263110e+01 1.067181e+01 1.292104e+01 1.101587e+01 1.308350e+01 1.125527e+01 1.311140e+01 1.137943e+01 1.299868e+01 1.137840e+01 1.274034e+01 1.124321e+01 1.233269e+01 1.096641e+01 1.177369e+01 1.054267e+01 1.106342e+01 9.969538e+00 1.020468e+01 9.248142e+00 9.203589e+00 8.383882e+00 8.070189e+00 7.386944e+00 6.818833e+00 6.272566e+00 5.468384e+00 5.060978e+00 4.042069e+00 3.776954e+00 2.566957e+00 2.448948e+00 1.073044e+00 1.107881e+00 -4.080090e-01 -2.143671e-01 -1.844383e+00 -1.486599e+00 -3.205695e+00 -2.679915e+00 -4.464527e+00 -3.769141e+00 -5.597706e+00 -4.733928e+00 -6.587233e+00 -5.559449e+00 -7.420800e+00 -6.236663e+00 -8.091886e+00 -6.762200e+00 -8.599493e+00 -7.137923e+00 -8.947607e+00 -7.370268e+00 -9.144472e+00 -7.469450e+00 -9.201754e+00 -7.448610e+00 
-1.126351e+01 -9.379630e+00 -1.089098e+01 -8.974941e+00 -1.043519e+01 -8.509072e+00 -9.915001e+00 -8.000365e+00 -9.348285e+00 -7.465828e+00 -8.751341e+00 -6.920591e+00 -8.138388e+00 -6.377435e+00 -7.521144e+00 -5.846427e+00 -6.908512e+00 -5.334662e+00 -6.306404e+00 -4.846159e+00 -5.717711e+00 -4.381920e+00 -5.142436e+00 -3.940162e+00 -4.577998e+00 -3.516705e+00 -4.019666e+00 -3.105496e+00 -3.461090e+00 -2.699197e+00 -2.894897e+00 -2.289800e+00 -2.313287e+00 -1.869211e+00 -1.708620e+00 -1.429784e+00 -1.073981e+00 -9.647799e-01 -4.037101e-01 -4.687699e-01 3.060791e-01 6.201725e-02 1.057038e+00 6.294135e-01 1.848192e+00 1.233104e+00 2.675674e+00 1.870519e+00 3.532639e+00 2.536849e+00 4.409372e+00 3.225187e+00 5.293617e+00 3.926790e+00 6.171084e+00 4.631436e+00 7.026088e+00 5.327829e+00 7.842252e+00 6.004006e+00 8.603196e+00 6.647706e+00 9.293147e+00 7.246667e+00 9.897418e+00 7.788824e+00 1.040273e+01 8.262421e+00 1.079737e+01 8.656047e+00 1.107121e+01 8.958625e+00 1.121560e+01 9.159408e+00 1.122326e+01 9.248021e+00 1.108815e+01 9.214602e+00 1.080545e+01 9.050081e+00 1.037163e+01 8.746621e+00 9.784711e+00 8.298212e+00 9.044691e+00 7.701396e+00 8.154074e+00 6.956068e+00 7.118521e+00 6.066256e+00 5.947482e+00 5.040806e+00 4.654733e+00 3.893832e+00 3.258710e+00 2.644859e+00 1.782537e+00 1.318548e+00 2.536592e-01 -5.602141e-02 -1.296950e+00 -1.446516e+00 -2.836006e+00 -2.818897e+00 -4.329459e+00 -4.139210e+00 -5.744244e+00 -5.375443e+00 -7.050032e+00 -6.499251e+00 -8.220779e+00 -7.487353e+00 -9.235922e+00 -8.322474e+00 -1.008109e+01 -8.993779e+00 -1.074833e+01 -9.496821e+00 -1.123588e+01 -9.833098e+00 -1.154762e+01 -1.000932e+01 -1.169224e+01 -1.003655e+01 -1.168236e+01 -9.929178e+00 -1.153357e+01 -9.704077e+00 
-9.840727e+00 -7.909151e+00 -9.588484e+00 -7.618646e+00 -9.240140e+00 -7.255254e+00 -8.816161e+00 -6.838950e+00 -8.336146e+00 -6.388453e+00 -7.818137e+00 -5.920571e+00 -7.277995e+00 -5.449630e+00 -6.728887e+00 -4.987006e+00 -6.180882e+00 -4.540791e+00 -5.640694e+00 -4.115616e+00 -5.111598e+00 -3.712669e+00 -4.593536e+00 -3.329907e+00 -4.083418e+00 -2.962475e+00 -3.575593e+00 -2.603279e+00 -3.062451e+00 -2.243657e+00 -2.535095e+00 -1.874093e+00 -1.984044e+00 -1.484899e+00 -1.399914e+00 -1.066838e+00 -7.740781e-01 -6.116725e-01 -9.929843e-02 -1.126330e-01 6.296722e-01 4.351729e-01 1.415538e+00 1.034429e+00 2.257998e+00 1.685367e+00 3.153435e+00 2.385644e+00 4.094810e+00 3.130363e+00 5.071800e+00 3.912248e+00 6.071185e+00 4.721953e+00 7.077441e+00 5.548481e+00 8.073492e+00 6.379657e+00 9.041508e+00 7.202590e+00 9.963692e+00 8.004080e+00 1.082295e+01 8.770935e+00 1.160340e+01 9.490160e+00 1.229069e+01 1.014903e+01 1.287211e+01 1.073508e+01 1.333653e+01 1.123597e+01 1.367421e+01 1.163943e+01 1.387651e+01 1.193316e+01 1.393572e+01 1.210491e+01 1.384486e+01 1.214265e+01 1.359767e+01 1.203503e+01 1.318886e+01 1.177194e+01 1.261455e+01 1.134537e+01 1.187285e+01 1.075037e+01 1.096475e+01 9.986036e+00 9.895000e+00 9.056537e+00 8.672935e+00 7.971890e+00 7.313236e+00 6.748465e+00 5.836309e+00 5.409048e+00 4.268268e+00 3.982378e+00 2.640380e+00 2.502122e+00 9.879538e-01 1.005317e+00 -6.512825e-01 -4.695951e-01 -2.239171e+00 -1.884948e+00 -3.739264e+00 -3.206008e+00 -5.118864e+00 -4.402850e+00 -6.350712e+00 -5.451769e+00 -7.414167e+00 -6.336107e+00 -8.295789e+00 -7.046486e+00 -8.989347e+00 -7.580528e+00 -9.495356e+00 -7.942166e+00 -9.820278e+00 -8.140714e+00 -9.975516e+00 -8.189799e+00 -9.976324e+00 -8.106271e+00 
-1.198409e+01 -9.965941e+00 -1.151989e+01 -9.468746e+00 -1.097098e+01 -8.911108e+00 -1.035978e+01 -8.314754e+00 -9.707384e+00 -7.699679e+00 -9.032843e+00 -7.083532e+00 -8.352634e+00 -6.481069e+00 -7.680135e+00 -5.903697e+00 -7.025250e+00 -5.359158e+00 -6.394175e+00 -4.851379e+00 -5.789353e+00 -4.380540e+00 -5.209648e+00 -3.943370e+00 -4.650726e+00 -3.533657e+00 -4.105623e+00 -3.142940e+00 -3.565439e+00 -2.761281e+00 -3.020078e+00 -2.378048e+00 -2.458980e+00 -1.982634e+00 -1.871802e+00 -1.565076e+00 -1.249058e+00 -1.116567e+00 -5.827405e-01 -6.299075e-01 1.330741e-01 -9.989324e-02 9.016231e-01 4.763403e-01 1.722928e+00 1.099050e+00 2.593407e+00 1.765734e+00 3.505714e+00 2.471141e+00 4.448857e+00 3.207453e+00 5.408624e+00 3.964643e+00 6.368254e+00 4.730957e+00 7.309303e+00 5.493460e+00 8.212583e+00 6.238580e+00 9.059068e+00 6.952576e+00 9.830679e+00 7.621887e+00 1.051087e+01 8.233344e+00 1.108496e+01 8.774223e+00 1.154027e+01 9.232198e+00 1.186600e+01 9.595204e+00 1.205302e+01 9.851303e+00 1.209352e+01 9.988611e+00 1.198076e+01 9.995362e+00 1.170890e+01 9.860175e+00 1.127304e+01 9.572555e+00 1.066950e+01 9.123640e+00 9.896363e+00 8.507161e+00 8.954234e+00 7.720546e+00 7.847151e+00 6.766043e+00 6.583557e+00 5.651746e+00 5.177159e+00 4.392348e+00 3.647554e+00 3.009495e+00 2.020446e+00 1.531582e+00 3.273362e-01 -7.061080e-03 -1.395398e+00 -1.567627e+00 -3.108033e+00 -3.108842e+00 -4.769533e+00 -4.589351e+00 -6.339905e+00 -5.970232e+00 -7.782568e+00 -7.217303e+00 -9.066451e+00 -8.302972e+00 -1.016755e+01 -9.207413e+00 -1.106978e+01 -9.919010e+00 -1.176517e+01 -1.043414e+01 -1.225338e+01 -1.075641e+01 -1.254085e+01 -1.089562e+01 -1.263966e+01 -1.086654e+01 -1.256632e+01 -1.068763e+01 -1.234053e+01 -1.037992e+01 