# vtk DataFile Version 2.0
Comment goes here
ASCII

DATASET STRUCTURED_POINTS
FIELD FieldData 1
TIME 1 1 double
0.22500000
DIMENSIONS    128   128   1

ORIGIN    0.000   0.000   0.000
SPACING   0.039062 0.039062   1.000

POINT_DATA   16384
SCALARS P double
LOOKUP_TABLE default

6.103483e+00 6.264313e+00 6.237284e+00 6.385542e+00 6.356199e+00 6.491045e+00 6.459680e+00 6.580280e+00 6.547248e+00 6.652776e+00 6.618500e+00 6.708148e+00 6.673118e+00 6.746102e+00 6.710868e+00 6.766442e+00 6.731598e+00 6.769059e+00 6.735227e+00 6.753930e+00 6.721735e+00 6.721102e+00 6.691140e+00 6.670678e+00 6.643490e+00 6.602803e+00 6.578839e+00 6.517654e+00 6.497250e+00 6.415432e+00 6.398785e+00 6.296370e+00 6.283521e+00 6.160739e+00 6.151569e+00 6.008871e+00 6.003103e+00 5.841189e+00 5.838398e+00 5.658239e+00 5.657875e+00 5.460732e+00 5.462146e+00 5.249585e+00 5.252067e+00 5.025960e+00 5.028775e+00 4.791304e+00 4.793735e+00 4.547379e+00 4.548762e+00 4.296279e+00 4.296046e+00 4.040441e+00 4.038147e+00 3.782640e+00 3.777990e+00 3.525963e+00 3.518827e+00 3.273769e+00 3.264188e+00 3.029629e+00 3.017812e+00 2.797251e+00 2.783557e+00 2.580380e+00 2.565299e+00 2.382702e+00 2.366822e+00 2.207720e+00 2.191691e+00 2.058642e+00 2.043137e+00 1.938268e+00 1.923944e+00 1.848882e+00 1.836339e+00 1.792165e+00 1.781915e+00 1.769128e+00 1.761568e+00 1.780072e+00 1.775459e+00 1.824573e+00 1.823013e+00 1.901501e+00 1.902948e+00 2.009071e+00 2.013330e+00 2.144916e+00 2.151655e+00 2.306187e+00 2.314960e+00 2.489669e+00 2.499941e+00 2.691909e+00 2.703088e+00 2.909341e+00 2.920808e+00 3.138411e+00 3.149552e+00 3.375684e+00 3.385916e+00 3.617932e+00 3.626727e+00 3.862197e+00 3.869097e+00 4.105836e+00 4.110461e+00 4.346528e+00 4.348579e+00 4.582271e+00 4.581528e+00 4.811357e+00 4.807669e+00 5.032333e+00 5.025609e+00 5.243957e+00 5.234156e+00 5.445157e+00 5.432280e+00 5.634983e+00 5.619067e+00 5.812579e+00 5.793693e+00 5.977154e+00 5.955400e+00 6.127965e+00 
6.146251e+00 6.301146e+00 6.273031e+00 6.415317e+00 6.384969e+00 6.513869e+00 6.481557e+00 6.596288e+00 6.562346e+00 6.662126e+00 6.626962e+00 6.711018e+00 6.675112e+00 6.742692e+00 6.706587e+00 6.756969e+00 6.721262e+00 6.753763e+00 6.719083e+00 6.733076e+00 6.700059e+00 6.694986e+00 6.664244e+00 6.639629e+00 6.611720e+00 6.567190e+00 6.542585e+00 6.477889e+00 6.456940e+00 6.371976e+00 6.354895e+00 6.249735e+00 6.236572e+00 6.111488e+00 6.102128e+00 5.957620e+00 5.951780e+00 5.788601e+00 5.785844e+00 5.605022e+00 5.604777e+00 5.407632e+00 5.409221e+00 5.197375e+00 5.200052e+00 4.975435e+00 4.978423e+00 4.743265e+00 4.745800e+00 4.502622e+00 4.503993e+00 4.255582e+00 4.255172e+00 4.004554e+00 4.001873e+00 3.752270e+00 3.746981e+00 3.501766e+00 3.493703e+00 3.256338e+00 3.245515e+00 3.019490e+00 3.006094e+00 2.794852e+00 2.779232e+00 2.586090e+00 2.568735e+00 2.396803e+00 2.378309e+00 2.230409e+00 2.211441e+00 2.090026e+00 2.071280e+00 1.978363e+00 1.960521e+00 1.897610e+00 1.881306e+00 1.849355e+00 1.835134e+00 1.834513e+00 1.822804e+00 1.853287e+00 1.844382e+00 1.905154e+00 1.899194e+00 1.988888e+00 1.985860e+00 2.102609e+00 2.102347e+00 2.243859e+00 2.246063e+00 2.409706e+00 2.413959e+00 2.596864e+00 2.602661e+00 2.801820e+00 2.808598e+00 3.020968e+00 3.028137e+00 3.250733e+00 3.257706e+00 3.487678e+00 3.493902e+00 3.728597e+00 3.733568e+00 3.970574e+00 3.973859e+00 4.211028e+00 4.212266e+00 4.447714e+00 4.446623e+00 4.678722e+00 4.675090e+00 4.902442e+00 4.896121e+00 5.117521e+00 5.108419e+00 5.322820e+00 5.310889e+00 5.517363e+00 5.502589e+00 5.700294e+00 5.682694e+00 5.870838e+00 5.850458e+00 6.028276e+00 6.005191e+00 6.171928e+00 
6.110019e+00 6.271241e+00 6.244070e+00 6.392728e+00 6.363224e+00 6.498479e+00 6.466931e+00 6.587947e+00 6.554710e+00 6.660656e+00 6.626154e+00 6.716217e+00 6.680942e+00 6.754334e+00 6.718840e+00 6.774804e+00 6.739693e+00 6.777521e+00 6.743423e+00 6.762460e+00 6.730011e+00 6.729668e+00 6.699478e+00 6.679251e+00 6.651871e+00 6.611353e+00 6.587247e+00 6.526149e+00 6.505664e+00 6.423841e+00 6.407179e+00 6.304652e+00 6.291862e+00 6.168849e+00 6.159810e+00 6.016751e+00 6.011182e+00 5.848767e+00 5.846235e+00 5.665428e+00 5.665371e+00 5.467428e+00 5.469182e+00 5.255667e+00 5.258502e+00 5.031291e+00 5.034454e+00 4.795733e+00 4.798487e+00 4.550745e+00 4.552408e+00 4.298417e+00 4.298403e+00 4.041188e+00 4.039042e+00 3.781844e+00 3.777261e+00 3.523491e+00 3.516337e+00 3.269517e+00 3.259836e+00 3.023531e+00 3.011537e+00 2.789286e+00 2.775350e+00 2.570581e+00 2.555209e+00 2.371156e+00 2.354953e+00 2.194574e+00 2.178210e+00 2.044101e+00 2.028269e+00 1.922587e+00 1.907962e+00 1.832362e+00 1.819563e+00 1.775141e+00 1.764694e+00 1.751956e+00 1.744267e+00 1.763114e+00 1.758448e+00 1.808183e+00 1.806649e+00 1.886010e+00 1.887558e+00 1.994772e+00 1.999201e+00 2.132053e+00 2.139021e+00 2.294945e+00 2.303993e+00 2.480172e+00 2.490750e+00 2.684215e+00 2.695714e+00 2.903447e+00 2.915232e+00 3.134258e+00 3.145700e+00 3.373166e+00 3.383671e+00 3.616909e+00 3.625939e+00 3.862508e+00 3.869599e+00 4.107307e+00 4.112078e+00 4.348990e+00 4.351142e+00 4.585565e+00 4.584881e+00 4.815341e+00 4.811674e+00 5.036886e+00 5.030152e+00 5.248985e+00 5.239147e+00 5.450585e+00 5.437650e+00 5.640760e+00 5.624768e+00 5.818670e+00 5.799692e+00 5.983536e+00 5.961675e+00 6.134625e+00 
6.159316e+00 6.314922e+00 6.286551e+00 6.429576e+00 6.398931e+00 6.528595e+00 6.495939e+00 6.611456e+00 6.577121e+00 6.677701e+00 6.642095e+00 6.726954e+00 6.690561e+00 6.758931e+00 6.722305e+00 6.773449e+00 6.737199e+00 6.770417e+00 6.735192e+00 6.749837e+00 6.716296e+00 6.711785e+00 6.680568e+00 6.656402e+00 6.628092e+00 6.583872e+00 6.558967e+00 6.494416e+00 6.473290e+00 6.388279e+00 6.371161e+00 6.265734e+00 6.252685e+00 6.127091e+00 6.117997e+00 5.972713e+00 5.967284e+00 5.803046e+00 5.800829e+00 5.618652e+00 5.619049e+00 5.420247e+00 5.422550e+00 5.208744e+00 5.212169e+00 4.985295e+00 4.989024e+00 4.751325e+00 4.754554e+00 4.508573e+00 4.510551e+00 4.259107e+00 4.259183e+00 4.005339e+00 4.002995e+00 3.750021e+00 3.744902e+00 3.496227e+00 3.488158e+00 3.247310e+00 3.236305e+00 3.006845e+00 2.993106e+00 2.778554e+00 2.762453e+00 2.566206e+00 2.548262e+00 2.373514e+00 2.354359e+00 2.204010e+00 2.184351e+00 2.060927e+00 2.041500e+00 1.947077e+00 1.928605e+00 1.864742e+00 1.847892e+00 1.815574e+00 1.800924e+00 1.800533e+00 1.788534e+00 1.819833e+00 1.810790e+00 1.872934e+00 1.866993e+00 1.958560e+00 1.955703e+00 2.074755e+00 2.074804e+00 2.218959e+00 2.221593e+00 2.388122e+00 2.392897e+00 2.578828e+00 2.585208e+00 2.787431e+00 2.794820e+00 3.010201e+00 3.017977e+00 3.243447e+00 3.250996e+00 3.483642e+00 3.490385e+00 3.727508e+00 3.732926e+00 3.972091e+00 3.975738e+00 4.214789e+00 4.216302e+00 4.453367e+00 4.452466e+00 4.685939e+00 4.682420e+00 4.910936e+00 4.904660e+00 5.127053e+00 5.117939e+00 5.333202e+00 5.321211e+00 5.528456e+00 5.513584e+00 5.712001e+00 5.694272e+00 5.883100e+00 5.862561e+00 6.041058e+00 6.017786e+00 6.185212e+00 
6.129617e+00 6.292010e+00 6.264418e+00 6.414275e+00 6.384290e+00 6.520772e+00 6.488678e+00 6.610942e+00 6.577091e+00 6.684296e+00 6.649113e+00 6.740430e+00 6.704414e+00 6.779034e+00 6.742752e+00 6.799900e+00 6.763976e+00 6.802916e+00 6.768008e+00 6.788057e+00 6.754835e+00 6.755375e+00 6.724486e+00 6.704977e+00 6.677012e+00 6.637011e+00 6.612471e+00 6.551650e+00 6.530912e+00 6.449086e+00 6.432379e+00 6.329530e+00 6.316914e+00 6.193220e+00 6.184578e+00 6.040446e+00 6.035482e+00 5.871573e+00 5.869831e+00 5.687086e+00 5.687965e+00 5.487627e+00 5.490415e+00 5.274041e+00 5.277955e+00 5.047426e+00 5.051653e+00 4.809174e+00 4.812914e+00 4.561002e+00 4.563520e+00 4.304988e+00 4.305648e+00 4.043577e+00 4.041882e+00 3.779586e+00 3.775207e+00 3.516178e+00 3.508970e+00 3.256827e+00 3.246838e+00 3.005257e+00 2.992723e+00 2.765360e+00 2.750685e+00 2.541093e+00 2.524830e+00 2.336370e+00 2.319180e+00 2.154933e+00 2.137545e+00 2.000220e+00 1.983389e+00 1.875243e+00 1.859702e+00 1.782467e+00 1.768887e+00 1.723712e+00 1.712663e+00 1.700075e+00 1.691996e+00 1.711884e+00 1.707059e+00 1.758681e+00 1.757225e+00 1.839240e+00 1.841098e+00 1.951626e+00 1.956576e+00 2.093271e+00 2.100941e+00 2.261092e+00 2.270981e+00 2.451617e+00 2.463128e+00 2.661130e+00 2.673605e+00 2.885816e+00 2.898571e+00 3.121894e+00 3.134254e+00 3.365743e+00 3.377076e+00 3.613993e+00 3.623734e+00 3.863601e+00 3.871268e+00 4.111882e+00 4.117087e+00 4.356525e+00 4.358974e+00 4.595575e+00 4.595061e+00 4.827397e+00 4.823788e+00 5.050628e+00 5.043856e+00 5.264125e+00 5.254172e+00 5.466907e+00 5.453794e+00 5.658110e+00 5.641887e+00 5.836947e+00 5.817692e+00 6.002677e+00 5.980494e+00 6.154593e+00 
6.185418e+00 6.342443e+00 6.313564e+00 6.458065e+00 6.426829e+00 6.558027e+00 6.524685e+00 6.641782e+00 6.606660e+00 6.708850e+00 6.672356e+00 6.758831e+00 6.721456e+00 6.791424e+00 6.753739e+00 6.806427e+00 6.769073e+00 6.803746e+00 6.767409e+00 6.783379e+00 6.748766e+00 6.745405e+00 6.713210e+00 6.689970e+00 6.660833e+00 6.617263e+00 6.591735e+00 6.527503e+00 6.506006e+00 6.420927e+00 6.403726e+00 6.297792e+00 6.284970e+00 6.158377e+00 6.149824e+00 6.003007e+00 5.998418e+00 5.832076e+00 5.830963e+00 5.646086e+00 5.647801e+00 5.445687e+00 5.449456e+00 5.231724e+00 5.236686e+00 5.005284e+00 5.010538e+00 4.767738e+00 4.772394e+00 4.520781e+00 4.524008e+00 4.266460e+00 4.267536e+00 4.007194e+00 4.005544e+00 3.745774e+00 3.741003e+00 3.485346e+00 3.477262e+00 3.229377e+00 3.217998e+00 2.981590e+00 2.967145e+00 2.745891e+00 2.728798e+00 2.526261e+00 2.507102e+00 2.326642e+00 2.306126e+00 2.150805e+00 2.129721e+00 2.002216e+00 1.981387e+00 1.883905e+00 1.864135e+00 1.798334e+00 1.780365e+00 1.747299e+00 1.731769e+00 1.731846e+00 1.719251e+00 1.752215e+00 1.742891e+00 1.807831e+00 1.801931e+00 1.897318e+00 1.894815e+00 2.018560e+00 2.019250e+00 2.168790e+00 2.172308e+00 2.344713e+00 2.350560e+00 2.542644e+00 2.550221e+00 2.758667e+00 2.767310e+00 2.988790e+00 2.997810e+00 3.229091e+00 3.237815e+00 3.475851e+00 3.483651e+00 3.725656e+00 3.731976e+00 3.975463e+00 3.979838e+00 4.222642e+00 4.224703e+00 4.464975e+00 4.464447e+00 4.700635e+00 4.697329e+00 4.928135e+00 4.921937e+00 5.146275e+00 5.137125e+00 5.354073e+00 5.341955e+00 5.550703e+00 5.535630e+00 5.735441e+00 5.717449e+00 5.907620e+00 5.886764e+00 6.066600e+00 6.042955e+00 6.211750e+00 
6.162246e+00 6.326582e+00 6.298291e+00 6.450147e+00 6.419364e+00 6.557898e+00 6.524896e+00 6.649253e+00 6.614376e+00 6.723696e+00 6.687369e+00 6.780795e+00 6.743528e+00 6.820222e+00 6.782603e+00 6.841751e+00 6.804441e+00 6.845267e+00 6.808972e+00 6.830746e+00 6.796194e+00 6.798245e+00 6.766149e+00 6.747881e+00 6.718900e+00 6.679806e+00 6.654508e+00 6.594195e+00 6.573013e+00 6.491227e+00 6.474432e+00 6.371088e+00 6.358765e+00 6.233976e+00 6.226009e+00 6.080123e+00 6.076199e+00 5.909826e+00 5.909443e+00 5.723486e+00 5.725979e+00 5.521655e+00 5.526231e+00 5.305087e+00 5.310868e+00 5.074794e+00 5.080861e+00 4.832087e+00 4.837539e+00 4.578631e+00 4.582631e+00 4.316471e+00 4.318298e+00 4.048061e+00 4.047150e+00 3.776263e+00 3.772239e+00 3.504338e+00 3.497036e+00 3.235903e+00 3.225380e+00 2.974875e+00 2.961402e+00 2.725382e+00 2.709426e+00 2.491656e+00 2.473848e+00 2.277907e+00 2.259005e+00 2.088184e+00 2.069022e+00 1.926228e+00 1.907665e+00 1.795326e+00 1.778198e+00 1.698181e+00 1.683250e+00 1.636796e+00 1.624706e+00 1.612381e+00 1.603627e+00 1.625301e+00 1.620201e+00 1.675054e+00 1.673736e+00 1.760293e+00 1.762687e+00 1.878882e+00 1.884733e+00 2.027995e+00 2.036876e+00 2.204240e+00 2.215581e+00 2.403812e+00 2.416933e+00 2.622650e+00 2.636806e+00 2.856612e+00 2.871030e+00 3.101623e+00 3.115552e+00 3.353819e+00 3.366561e+00 3.609654e+00 3.620596e+00 3.865971e+00 3.874604e+00 4.120045e+00 4.125971e+00 4.369582e+00 4.372513e+00 4.612693e+00 4.612443e+00 4.847845e+00 4.844311e+00 5.073801e+00 5.066947e+00 5.289545e+00 5.279384e+00 5.494223e+00 5.480800e+00 5.687080e+00 5.670464e+00 5.867416e+00 5.847695e+00 6.034557e+00 6.011837e+00 6.187834e+00 
6.224494e+00 6.383633e+00 6.354005e+00 6.500720e+00 6.468607e+00 6.602115e+00 6.567751e+00 6.687237e+00 6.650934e+00 6.755566e+00 6.717728e+00 6.806663e+00 6.767792e+00 6.840194e+00 6.800888e+00 6.855938e+00 6.816880e+00 6.853787e+00 6.815724e+00 6.833739e+00 6.797454e+00 6.795882e+00 6.762153e+00 6.740371e+00 6.709929e+00 6.667404e+00 6.640886e+00 6.577203e+00 6.555108e+00 6.469998e+00 6.452649e+00 6.346019e+00 6.333535e+00 6.205503e+00 6.197781e+00 6.048714e+00 6.045427e+00 5.875966e+00 5.876575e+00 5.687668e+00 5.691445e+00 5.484367e+00 5.490434e+00 5.266800e+00 5.274175e+00 5.035951e+00 5.043601e+00 4.793097e+00 4.799998e+00 4.539864e+00 4.545058e+00 4.278260e+00 4.280911e+00 4.010706e+00 4.010148e+00 3.740045e+00 3.735822e+00 3.469533e+00 3.461423e+00 3.202804e+00 3.190833e+00 2.943811e+00 2.928249e+00 2.696740e+00 2.678080e+00 2.465901e+00 2.444826e+00 2.255596e+00 2.232935e+00 2.069970e+00 2.046644e+00 1.912855e+00 1.889821e+00 1.787620e+00 1.765812e+00 1.697020e+00 1.677295e+00 1.643074e+00 1.626165e+00 1.626966e+00 1.613442e+00 1.648983e+00 1.639222e+00 1.708492e+00 1.702663e+00 1.803962e+00 1.802023e+00 1.933029e+00 1.934731e+00 2.092599e+00 2.097510e+00 2.278989e+00 2.286523e+00 2.488093e+00 2.497547e+00 2.715565e+00 2.726168e+00 2.957002e+00 2.967960e+00 3.208118e+00 3.218663e+00 3.464898e+00 3.474325e+00 3.723711e+00 3.731409e+00 3.981391e+00 3.986864e+00 4.235266e+00 4.238138e+00 4.483158e+00 4.483168e+00 4.723338e+00 4.720325e+00 4.954464e+00 4.948350e+00 5.175502e+00 5.166267e+00 5.385642e+00 5.373307e+00 5.584220e+00 5.568827e+00 5.770652e+00 5.752258e+00 5.944382e+00 5.923049e+00 6.104849e+00 6.080650e+00 6.251469e+00 
6.207836e+00 6.374875e+00 6.345620e+00 6.500272e+00 6.468386e+00 6.609804e+00 6.575538e+00 6.702849e+00 6.666533e+00 6.778847e+00 6.740902e+00 6.837325e+00 6.798273e+00 6.877921e+00 6.838382e+00 6.900390e+00 6.861074e+00 6.904607e+00 6.866291e+00 6.890555e+00 6.854053e+00 6.858304e+00 6.824428e+00 6.807987e+00 6.777499e+00 6.739772e+00 6.713338e+00 6.653836e+00 6.631976e+00 6.550346e+00 6.533398e+00 6.429455e+00 6.417542e+00 6.291305e+00 6.284318e+00 6.136048e+00 6.133644e+00 5.963878e+00 5.965493e+00 5.775075e+00 5.779949e+00 5.570060e+00 5.577277e+00 5.349448e+00 5.357988e+00 5.114117e+00 5.122910e+00 4.865262e+00 4.873250e+00 4.604455e+00 4.610655e+00 4.333692e+00 4.337252e+00 4.055422e+00 4.055675e+00 3.772571e+00 3.769073e+00 3.488527e+00 3.481086e+00 3.207113e+00 3.195796e+00 2.932520e+00 2.917652e+00 2.669219e+00 2.651357e+00 2.421841e+00 2.401739e+00 2.195031e+00 2.173589e+00 1.993292e+00 1.971498e+00 1.820809e+00 1.799682e+00 1.681282e+00 1.661807e+00 1.577769e+00 1.560839e+00 1.512541e+00 1.498914e+00 1.486982e+00 1.477233e+00 1.501514e+00 1.496011e+00 1.555572e+00 1.554459e+00 1.647628e+00 1.650819e+00 1.775256e+00 1.782442e+00 1.935244e+00 1.945917e+00 2.123743e+00 2.137227e+00 2.336447e+00 2.351940e+00 2.568789e+00 2.585412e+00 2.816137e+00 2.832991e+00 3.073984e+00 3.090197e+00 3.338111e+00 3.352890e+00 3.604713e+00 3.617375e+00 3.870481e+00 3.880476e+00 4.132637e+00 4.139559e+00 4.388928e+00 4.392504e+00 4.637577e+00 4.637656e+00 4.877218e+00 4.873743e+00 5.106803e+00 5.099788e+00 5.325516e+00 5.315022e+00 5.532689e+00 5.518802e+00 5.727730e+00 5.710546e+00 5.910068e+00 5.889690e+00 6.079120e+00 6.055653e+00 6.234270e+00 
6.276426e+00 6.438360e+00 6.407757e+00 6.557425e+00 6.524167e+00 6.660776e+00 6.625063e+00 6.747773e+00 6.709894e+00 6.817833e+00 6.778184e+00 6.870462e+00 6.829553e+00 6.905278e+00 6.863741e+00 6.922027e+00 6.880604e+00 6.920589e+00 6.880113e+00 6.900965e+00 6.862324e+00 6.863257e+00 6.827352e+00 6.807642e+00 6.775334e+00 6.734339e+00 6.706391e+00 6.643579e+00 6.620603e+00 6.535585e+00 6.517992e+00 6.410558e+00 6.398520e+00 6.268680e+00 6.262107e+00 6.110129e+00 6.108666e+00 5.935112e+00 5.938146e+00 5.743906e+00 5.750597e+00 5.536911e+00 5.546233e+00 5.314709e+00 5.325508e+00 5.078131e+00 5.089186e+00 4.828318e+00 4.838414e+00 4.566785e+00 4.574781e+00 4.295475e+00 4.300371e+00 4.016799e+00 4.017798e+00 3.733659e+00 3.730215e+00 3.449450e+00 3.441301e+00 3.168032e+00 3.155213e+00 2.893669e+00 2.876510e+00 2.630939e+00 2.610039e+00 2.384610e+00 2.360798e+00 2.159489e+00 2.133766e+00 1.960249e+00 1.933727e+00 1.791247e+00 1.765075e+00 1.656335e+00 1.631631e+00 1.558687e+00 1.536470e+00 1.500643e+00 1.481782e+00 1.483590e+00 1.468755e+00 1.507883e+00 1.497513e+00 1.572814e+00 1.567098e+00 1.676634e+00 1.675507e+00 1.816627e+00 1.819777e+00 1.989231e+00 1.996129e+00 2.190213e+00 2.200145e+00 2.414862e+00 2.426978e+00 2.658217e+00 2.671589e+00 2.915288e+00 2.928970e+00 3.181271e+00 3.194358e+00 3.451734e+00 3.463409e+00 3.722748e+00 3.732327e+00 3.990981e+00 3.997927e+00 4.253725e+00 4.257657e+00 4.508873e+00 4.509555e+00 4.754858e+00 4.752177e+00 4.990559e+00 4.984494e+00 5.215192e+00 5.205785e+00 5.428198e+00 5.415525e+00 5.629150e+00 5.613297e+00 5.817660e+00 5.798712e+00 5.993328e+00 5.971356e+00 6.155695e+00 6.130768e+00 6.304237e+00 
6.266256e+00 6.436743e+00 6.406276e+00 6.564525e+00 6.531246e+00 6.676398e+00 6.640523e+00 6.771677e+00 6.733508e+00 6.849732e+00 6.809680e+00 6.910030e+00 6.868628e+00 6.952162e+00 6.910067e+00 6.975853e+00 6.933841e+00 6.980972e+00 6.939915e+00 6.967511e+00 6.928344e+00 6.935568e+00 6.899240e+00 6.885307e+00 6.852726e+00 6.816924e+00 6.788896e+00 6.730610e+00 6.707780e+00 6.626523e+00 6.609324e+00 6.504777e+00 6.493390e+00 6.365444e+00 6.359772e+00 6.208568e+00 6.208231e+00 6.034206e+00 6.038555e+00 5.842473e+00 5.850618e+00 5.633607e+00 5.644465e+00 5.408031e+00 5.420384e+00 5.166432e+00 5.178997e+00 4.909836e+00 4.921340e+00 4.639676e+00 4.648929e+00 4.357861e+00 4.363829e+00 4.066823e+00 4.068695e+00 3.769550e+00 3.766786e+00 3.469592e+00 3.461957e+00 3.171034e+00 3.158614e+00 2.878433e+00 2.861626e+00 2.596719e+00 2.576210e+00 2.331062e+00 2.307774e+00 2.086707e+00 2.061740e+00 1.868775e+00 1.843336e+00 1.682071e+00 1.657395e+00 1.530865e+00 1.508145e+00 1.418707e+00 1.399021e+00 1.348249e+00 1.332505e+00 1.321118e+00 1.310002e+00 1.337819e+00 1.331767e+00 1.397707e+00 1.396884e+00 1.499006e+00 1.503299e+00 1.638888e+00 1.647918e+00 1.813606e+00 1.826752e+00 2.018680e+00 2.035117e+00 2.249107e+00 2.267860e+00 2.499611e+00 2.519616e+00 2.764883e+00 2.785057e+00 3.039818e+00 3.059124e+00 3.319710e+00 3.337219e+00 3.600410e+00 3.615345e+00 3.878414e+00 3.890175e+00 4.150895e+00 4.159069e+00 4.415681e+00 4.420026e+00 4.671177e+00 4.671597e+00 4.916263e+00 4.912775e+00 5.150175e+00 5.142870e+00 5.372383e+00 5.361392e+00 5.582482e+00 5.567947e+00 5.780104e+00 5.762159e+00 5.964848e+00 5.943614e+00 6.136249e+00 6.111831e+00 6.293757e+00 
6.341007e+00 6.506404e+00 6.474631e+00 6.627996e+00 6.593350e+00 6.733872e+00 6.696503e+00 6.823305e+00 6.783463e+00 6.895621e+00 6.853678e+00 6.950239e+00 6.906714e+00 6.986712e+00 6.942276e+00 7.004746e+00 6.960215e+00 7.004204e+00 6.960523e+00 6.985098e+00 6.943299e+00 6.947559e+00 6.908711e+00 6.891803e+00 6.856947e+00 6.818087e+00 6.788163e+00 6.726667e+00 6.702446e+00 6.617767e+00 6.599783e+00 6.491556e+00 6.480062e+00 6.348147e+00 6.343077e+00 6.187614e+00 6.188573e+00 6.010018e+00 6.016299e+00 5.815462e+00 5.826072e+00 5.604146e+00 5.617861e+00 5.376442e+00 5.391872e+00 5.132966e+00 5.148636e+00 4.874664e+00 4.889095e+00 4.602889e+00 4.614689e+00 4.319473e+00 4.327420e+00 4.026792e+00 4.029909e+00 3.727806e+00 3.725421e+00 3.426073e+00 3.417866e+00 3.125734e+00 3.111754e+00 2.831455e+00 2.812113e+00 2.548325e+00 2.524368e+00 2.281721e+00 2.254178e+00 2.037127e+00 2.007239e+00 1.819929e+00 1.789066e+00 1.635192e+00 1.604765e+00 1.487430e+00 1.458806e+00 1.380388e+00 1.354809e+00 1.316851e+00 1.295366e+00 1.298490e+00 1.281901e+00 1.325758e+00 1.314586e+00 1.397854e+00 1.392312e+00 1.512736e+00 1.512727e+00 1.667213e+00 1.672342e+00 1.857092e+00 1.866693e+00 2.077385e+00 2.090570e+00 2.322559e+00 2.338273e+00 2.586808e+00 2.603906e+00 2.864343e+00 2.881667e+00 3.149657e+00 3.166112e+00 3.437754e+00 3.452374e+00 3.724319e+00 3.736317e+00 4.005819e+00 4.014612e+00 4.279522e+00 4.284732e+00 4.543454e+00 4.544892e+00 4.796301e+00 4.793926e+00 5.037267e+00 5.031150e+00 5.265929e+00 5.256202e+00 5.482087e+00 5.468906e+00 5.685631e+00 5.669145e+00 5.876442e+00 5.856772e+00 6.054319e+00 6.031549e+00 6.218934e+00 6.193121e+00 6.369824e+00 
6.337282e+00 6.511948e+00 6.480052e+00 6.642705e+00 6.607773e+00 6.757532e+00 6.719722e+00 6.855644e+00 6.815215e+00 6.936312e+00 6.893650e+00 6.998914e+00 6.954556e+00 7.042973e+00 6.997618e+00 7.068176e+00 7.022684e+00 7.074386e+00 7.029753e+00 7.061620e+00 7.018940e+00 7.030021e+00 6.990429e+00 6.979808e+00 6.944411e+00 6.911228e+00 6.881028e+00 6.824504e+00 6.800321e+00 6.719797e+00 6.702199e+00 6.597180e+00 6.586430e+00 6.456637e+00 6.452660e+00 6.298079e+00 6.300450e+00 6.121384e+00 6.129343e+00 5.926452e+00 5.938936e+00 5.713275e+00 5.728977e+00 5.482019e+00 5.499458e+00 5.233110e+00 5.250719e+00 4.967333e+00 4.983544e+00 4.685919e+00 4.699266e+00 4.390639e+00 4.399841e+00 4.083872e+00 4.087921e+00 3.768663e+00 3.766886e+00 3.448745e+00 3.440850e+00 3.128524e+00 3.114620e+00 2.813018e+00 2.793605e+00 2.507752e+00 2.483686e+00 2.218600e+00 2.191036e+00 1.951591e+00 1.921900e+00 1.712677e+00 1.682359e+00 1.507483e+00 1.478067e+00 1.341048e+00 1.314002e+00 1.217585e+00 1.194232e+00 1.140264e+00 1.121708e+00 1.111041e+00 1.098116e+00 1.130545e+00 1.123773e+00 1.198028e+00 1.197600e+00 1.311389e+00 1.317158e+00 1.467265e+00 1.478757e+00 1.661196e+00 1.677639e+00 1.887850e+00 1.908218e+00 2.141289e+00 2.164372e+00 2.415281e+00 2.439759e+00 2.703605e+00 2.728145e+00 3.000354e+00 3.023691e+00 3.300183e+00 3.321205e+00 3.598497e+00 3.616304e+00 3.891561e+00 3.905494e+00 4.176522e+00 4.186170e+00 4.451353e+00 4.456529e+00 4.714743e+00 4.715442e+00 4.965940e+00 4.962287e+00 5.204582e+00 5.196783e+00 5.430539e+00 5.418823e+00 5.643763e+00 5.628352e+00 5.844178e+00 5.825258e+00 6.031607e+00 6.009317e+00 6.205723e+00 6.180162e+00 6.366044e+00 
6.417907e+00 6.587421e+00 6.554327e+00 6.712146e+00 6.675913e+00 6.821193e+00 6.781894e+00 6.913704e+00 6.871524e+00 6.988870e+00 6.944143e+00 7.045993e+00 6.999232e+00 7.084534e+00 7.036452e+00 7.104144e+00 7.055650e+00 7.104674e+00 7.056854e+00 7.086157e+00 7.040234e+00 7.048777e+00 7.006045e+00 6.992818e+00 6.954561e+00 6.918603e+00 6.886006e+00 6.826437e+00 6.800490e+00 6.716560e+00 6.697973e+00 6.589114e+00 6.578250e+00 6.444132e+00 6.440962e+00 6.281555e+00 6.285642e+00 6.101263e+00 6.111772e+00 5.903131e+00 5.918872e+00 5.687099e+00 5.706586e+00 5.453255e+00 5.474787e+00 5.201927e+00 5.223691e+00 4.933789e+00 4.953955e+00 4.649954e+00 4.666796e+00 4.352086e+00 4.364080e+00 4.042478e+00 4.048404e+00 3.724129e+00 3.723147e+00 3.400776e+00 3.392487e+00 3.076897e+00 3.061364e+00 2.757651e+00 2.735399e+00 2.448781e+00 2.420754e+00 2.156445e+00 2.123943e+00 1.887010e+00 1.851594e+00 1.646801e+00 1.610188e+00 1.441819e+00 1.405770e+00 1.277459e+00 1.243669e+00 1.158230e+00 1.128232e+00 1.087517e+00 1.062596e+00 1.067377e+00 1.048507e+00 1.098410e+00 1.086212e+00 1.179695e+00 1.174415e+00 1.308816e+00 1.310313e+00 1.481958e+00 1.489725e+00 1.694094e+00 1.707285e+00 1.939234e+00 1.956724e+00 2.210741e+00 2.231201e+00 2.501686e+00 2.523674e+00 2.805208e+00 2.827275e+00 3.114864e+00 3.135658e+00 3.424923e+00 3.443277e+00 3.730580e+00 3.745578e+00 4.028070e+00 4.039076e+00 4.314680e+00 4.321336e+00 4.588663e+00 4.590858e+00 4.849088e+00 4.846900e+00 5.095638e+00 5.089271e+00 5.328397e+00 5.318117e+00 5.547656e+00 5.533732e+00 5.753735e+00 5.736400e+00 5.946860e+00 5.926283e+00 6.127078e+00 6.103357e+00 6.294211e+00 6.267380e+00 6.447859e+00 
6.420547e+00 6.600113e+00 6.566621e+00 6.734501e+00 6.697703e+00 6.852976e+00 6.812945e+00 6.954608e+00 6.911528e+00 7.038520e+00 6.992732e+00 7.103965e+00 7.055998e+00 7.150370e+00 7.100968e+00 7.177378e+00 7.127498e+00 7.184848e+00 7.135644e+00 7.172841e+00 7.125616e+00 7.141576e+00 7.097715e+00 7.091366e+00 7.052244e+00 7.022545e+00 6.989432e+00 6.935399e+00 6.909355e+00 6.830109e+00 6.811891e+00 6.706711e+00 6.696700e+00 6.565086e+00 6.563242e+00 6.404982e+00 6.410826e+00 6.226051e+00 6.238679e+00 6.027916e+00 6.046042e+00 5.810251e+00 5.832276e+00 5.572880e+00 5.596978e+00 5.315881e+00 5.340107e+00 5.039707e+00 5.062108e+00 4.745299e+00 4.764039e+00 4.434212e+00 4.447682e+00 4.108719e+00 4.115645e+00 3.771894e+00 3.771424e+00 3.427665e+00 3.419430e+00 3.080814e+00 3.064951e+00 2.736927e+00 2.714071e+00 2.402272e+00 2.373512e+00 2.083626e+00 2.050425e+00 1.788033e+00 1.752127e+00 1.522525e+00 1.485800e+00 1.293803e+00 1.258177e+00 1.107922e+00 1.075223e+00 9.699733e-01 9.418391e-01 8.838163e-01 8.616056e-01 8.518548e-01 8.365853e-01 8.748887e-01 8.671935e-01 9.520478e-01 9.521505e-01 1.080813e+00 1.088521e+00 1.257126e+00 1.271843e+00 1.475592e+00 1.496348e+00 1.729754e+00 1.755259e+00 2.012437e+00 2.041165e+00 2.316139e+00 2.346426e+00 2.633431e+00 2.663601e+00 2.957349e+00 2.985829e+00 3.281713e+00 3.307148e+00 3.601375e+00 3.622706e+00 3.912339e+00 3.928840e+00 4.211771e+00 4.223054e+00 4.497904e+00 4.503875e+00 4.769856e+00 4.770652e+00 5.027411e+00 5.023323e+00 5.270777e+00 5.262170e+00 5.500366e+00 5.487613e+00 5.716604e+00 5.700033e+00 5.919797e+00 5.899658e+00 6.110034e+00 6.086489e+00 6.287150e+00 6.260279e+00 6.450725e+00 
6.506612e+00 6.680892e+00 6.646396e+00 6.809450e+00 6.771501e+00 6.922428e+00 6.880981e+00 7.018774e+00 6.973913e+00 7.097487e+00 7.049479e+00 7.157706e+00 7.107042e+00 7.198768e+00 7.146199e+00 7.220256e+00 7.166798e+00 7.222009e+00 7.168929e+00 7.204107e+00 7.152873e+00 7.166822e+00 7.119026e+00 7.110547e+00 7.067804e+00 7.035717e+00 6.999542e+00 6.942726e+00 6.914411e+00 6.831855e+00 6.812351e+00 6.703226e+00 6.693054e+00 6.556785e+00 6.555973e+00 6.392312e+00 6.400369e+00 6.209459e+00 6.225392e+00 6.007812e+00 6.030174e+00 5.786977e+00 5.813940e+00 5.546670e+00 5.576132e+00 5.286838e+00 5.316537e+00 5.007776e+00 5.035428e+00 4.710264e+00 4.733697e+00 4.395700e+00 4.412993e+00 4.066228e+00 4.075834e+00 3.724842e+00 3.725697e+00 3.375458e+00 3.367053e+00 3.022935e+00 3.005356e+00 2.673037e+00 2.646953e+00 2.332310e+00 2.298934e+00 2.007909e+00 1.968899e+00 1.707334e+00 1.664678e+00 1.438123e+00 1.394000e+00 1.207503e+00 1.164133e+00 1.022026e+00 9.815333e-01 8.872144e-01 8.515032e-01 8.072483e-01 7.779029e-01 7.847076e-01 7.629194e-01 8.203974e-01 8.069155e-01 9.132642e-01 9.083690e-01 1.060413e+00 1.063910e+00 1.257226e+00 1.268460e+00 1.497587e+00 1.515480e+00 1.774193e+00 1.797309e+00 2.078955e+00 2.105593e+00 2.403449e+00 2.431769e+00 2.739399e+00 2.767558e+00 3.079129e+00 3.105425e+00 3.415953e+00 3.438952e+00 3.744457e+00 3.763077e+00 4.060627e+00 4.074183e+00 4.361847e+00 4.370031e+00 4.646748e+00 4.649578e+00 4.914976e+00 4.912713e+00 5.166903e+00 5.159950e+00 5.403325e+00 5.392136e+00 5.625191e+00 5.610196e+00 5.833389e+00 5.814932e+00 6.028579e+00 6.006891e+00 6.211104e+00 6.186293e+00 6.380953e+00 6.353013e+00 6.537767e+00 
6.515482e+00 6.700671e+00 6.665490e+00 6.839450e+00 6.800650e+00 6.962394e+00 6.919916e+00 7.068355e+00 7.022269e+00 7.156249e+00 7.106814e+00 7.225147e+00 7.172867e+00 7.274354e+00 7.220010e+00 7.303449e+00 7.248115e+00 7.312302e+00 7.257326e+00 7.301048e+00 7.248004e+00 7.270028e+00 7.220631e+00 7.219706e+00 7.175694e+00 7.150560e+00 7.113567e+00 7.062988e+00 7.034401e+00 6.957218e+00 6.938056e+00 6.833259e+00 6.824070e+00 6.690879e+00 6.691676e+00 6.529623e+00 6.539862e+00 6.348861e+00 6.367458e+00 6.147866e+00 6.173247e+00 5.925909e+00 5.956097e+00 5.682370e+00 5.715091e+00 5.416866e+00 5.449685e+00 5.129397e+00 5.159858e+00 4.820500e+00 4.846277e+00 4.491404e+00 4.510451e+00 4.144184e+00 4.154877e+00 3.781892e+00 3.783138e+00 3.408643e+00 3.399966e+00 3.029647e+00 3.011221e+00 2.651169e+00 2.623809e+00 2.280400e+00 2.245504e+00 1.925252e+00 1.884695e+00 1.594070e+00 1.550068e+00 1.295275e+00 1.250228e+00 1.036974e+00 9.933052e-01 8.265436e-01 7.865476e-01 6.702339e-01 6.359481e-01 5.728139e-01 5.459164e-01 5.372857e-01 5.190229e-01 5.646897e-01 5.558295e-01 6.540125e-01 6.548189e-01 8.022065e-01 8.124316e-01 1.004322e+00 1.023215e+00 1.253751e+00 1.280090e+00 1.542570e+00 1.574723e+00 1.861979e+00 1.898000e+00 2.202801e+00 2.240564e+00 2.556015e+00 2.593376e+00 2.913266e+00 2.948236e+00 3.267302e+00 3.298199e+00 3.612287e+00 3.637848e+00 3.943950e+00 3.963385e+00 4.259570e+00 4.272546e+00 4.557809e+00 4.564390e+00 4.838440e+00 4.838981e+00 5.102016e+00 5.097050e+00 5.349539e+00 5.339664e+00 5.582153e+00 5.567936e+00 5.800905e+00 5.782816e+00 6.006573e+00 5.984943e+00 6.199567e+00 6.174578e+00 6.379892e+00 6.351587e+00 6.547164e+00 