# vtk DataFile Version 2.0
Comment goes here
ASCII

DATASET STRUCTURED_POINTS
FIELD FieldData 1
TIME 1 1 double
0.21500000
DIMENSIONS    128   128   1

ORIGIN    0.000   0.000   0.000
SPACING   0.039062 0.039062   1.000

POINT_DATA   16384
SCALARS P double
LOOKUP_TABLE default

-3.218454e+00 -3.486873e+00 -3.168566e+00 -3.445857e+00 -3.123548e+00 -3.406865e+00 -3.082445e+00 -3.368707e+00 -3.043856e+00 -3.329781e+00 -3.006008e+00 -3.288161e+00 -2.966849e+00 -3.241689e+00 -2.924145e+00 -3.188087e+00 -2.875597e+00 -3.125075e+00 -2.818957e+00 -3.050497e+00 -2.752158e+00 -2.962449e+00 -2.673431e+00 -2.859400e+00 -2.581429e+00 -2.740309e+00 -2.475321e+00 -2.604719e+00 -2.354884e+00 -2.452834e+00 -2.220559e+00 -2.285569e+00 -2.073479e+00 -2.104565e+00 -1.915472e+00 -1.912176e+00 -1.749026e+00 -1.711425e+00 -1.577225e+00 -1.505920e+00 -1.403657e+00 -1.299755e+00 -1.232295e+00 -1.097379e+00 -1.067366e+00 -9.034521e-01 -9.132016e-01 -7.226854e-01 -7.740847e-01 -5.596833e-01 -6.540958e-01 -4.187822e-01 -5.569671e-01 -3.038991e-01 -4.859479e-01 -2.183948e-01 -4.436876e-01 -1.649562e-01 -4.321390e-01 -1.455030e-01 -4.524871e-01 -1.611214e-01 -5.051034e-01 -2.120278e-01 -5.895279e-01 -2.975629e-01 -7.044791e-01 -4.162144e-01 -8.478897e-01 -5.656687e-01 -1.016968e+00 -7.428856e-01 -1.208278e+00 -9.441938e-01 -1.417842e+00 -1.165401e+00 -1.641258e+00 -1.401915e+00 -1.873818e+00 -1.648873e+00 -2.110648e+00 -1.901270e+00 -2.346840e+00 -2.154092e+00 -2.577594e+00 -2.402450e+00 -2.798347e+00 -2.641700e+00 -3.004908e+00 -2.867575e+00 -3.193578e+00 -3.076300e+00 -3.361259e+00 -3.264698e+00 -3.505546e+00 -3.430279e+00 -3.624794e+00 -3.571317e+00 -3.718164e+00 -3.686885e+00 -3.785626e+00 -3.776865e+00 -3.827934e+00 -3.841928e+00 -3.846569e+00 -3.883461e+00 -3.843643e+00 -3.903478e+00 -3.821777e+00 -3.904491e+00 -3.783965e+00 -3.889367e+00 -3.733423e+00 -3.861172e+00 -3.673433e+00 -3.823014e+00 -3.607198e+00 -3.777897e+00 -3.537708e+00 -3.728583e+00 -3.467622e+00 -3.677486e+00 -3.399180e+00 -3.626575e+00 -3.334127e+00 -3.577316e+00 -3.273670e+00 -3.530629e+00 
-3.322826e+00 -3.566884e+00 -3.276953e+00 -3.529893e+00 -3.236490e+00 -3.495569e+00 -3.200486e+00 -3.462729e+00 -3.167542e+00 -3.429776e+00 -3.135890e+00 -3.394786e+00 -3.103478e+00 -3.355600e+00 -3.068066e+00 -3.309932e+00 -3.027340e+00 -3.255485e+00 -2.979034e+00 -3.190078e+00 -2.921046e+00 -3.111769e+00 -2.851567e+00 -3.018980e+00 -2.769194e+00 -2.910608e+00 -2.673031e+00 -2.786122e+00 -2.562777e+00 -2.645640e+00 -2.438782e+00 -2.489976e+00 -2.302082e+00 -2.320661e+00 -2.154393e+00 -2.139927e+00 -1.998086e+00 -1.950663e+00 -1.836121e+00 -1.756338e+00 -1.671955e+00 -1.560900e+00 -1.509430e+00 -1.368647e+00 -1.352640e+00 -1.184085e+00 -1.205784e+00 -1.011776e+00 -1.073017e+00 -8.561761e-01 -9.582990e-01 -7.214815e-01 -8.652505e-01 -6.114806e-01 -7.970230e-01 -5.294204e-01 -7.561839e-01 -4.778927e-01 -7.446234e-01 -4.587445e-01 -7.634862e-01 -4.730150e-01 -8.131279e-01 -5.209024e-01 -8.930997e-01 -6.017597e-01 -1.002159e+00 -7.141194e-01 -1.138305e+00 -8.557451e-01 -1.298842e+00 -1.023706e+00 -1.480456e+00 -1.214469e+00 -1.679317e+00 -1.424011e+00 -1.891190e+00 -1.647930e+00 -2.111555e+00 -1.881574e+00 -2.335739e+00 -2.120160e+00 -2.559042e+00 -2.358908e+00 -2.776873e+00 -2.593156e+00 -2.984876e+00 -2.818486e+00 -3.179054e+00 -3.030840e+00 -3.355888e+00 -3.226630e+00 -3.512434e+00 -3.402839e+00 -3.646416e+00 -3.557112e+00 -3.756292e+00 -3.687819e+00 -3.841288e+00 -3.794099e+00 -3.901415e+00 -3.875872e+00 -3.937437e+00 -3.933812e+00 -3.950822e+00 -3.969292e+00 -3.943647e+00 -3.984290e+00 -3.918488e+00 -3.981272e+00 -3.878282e+00 -3.963049e+00 -3.826182e+00 -3.932630e+00 -3.765410e+00 -3.893069e+00 -3.699112e+00 -3.847320e+00 -3.630226e+00 -3.798103e+00 -3.561371e+00 -3.747795e+00 -3.494750e+00 -3.698342e+00 -3.432084e+00 -3.651192e+00 -3.374563e+00 -3.607253e+00 
-3.216275e+00 -3.486010e+00 -3.166655e+00 -3.445386e+00 -3.122142e+00 -3.407006e+00 -3.081748e+00 -3.369647e+00 -3.044034e+00 -3.331665e+00 -3.007183e+00 -3.291086e+00 -2.969094e+00 -3.245699e+00 -2.927480e+00 -3.193171e+00 -2.879984e+00 -3.131163e+00 -2.824303e+00 -3.057462e+00 -2.758313e+00 -2.970107e+00 -2.680194e+00 -2.867517e+00 -2.588550e+00 -2.748606e+00 -2.482515e+00 -2.612882e+00 -2.361836e+00 -2.460527e+00 -2.226939e+00 -2.292445e+00 -2.078956e+00 -2.110282e+00 -1.919730e+00 -1.916413e+00 -1.751776e+00 -1.713893e+00 -1.578221e+00 -1.506381e+00 -1.402704e+00 -1.298030e+00 -1.229265e+00 -1.093359e+00 -1.062201e+00 -8.971023e-01 -9.059186e-01 -7.140521e-01 -7.647757e-01 -5.488919e-01 -6.429264e-01 -4.060340e-01 -5.441711e-01 -2.894653e-01 -4.718190e-01 -2.026067e-01 -4.285691e-01 -1.481935e-01 -4.164118e-01 -1.281800e-01 -4.365564e-01 -1.436721e-01 -4.893845e-01 -1.948905e-01 -5.744323e-01 -2.811647e-01 -6.904009e-01 -4.009577e-01 -8.351932e-01 -5.519186e-01 -1.005976e+00 -7.309598e-01 -1.199264e+00 -9.343545e-01 -1.411022e+00 -1.157850e+00 -1.636784e+00 -1.396789e+00 -1.871775e+00 -1.646243e+00 -2.111053e+00 -1.901142e+00 -2.349643e+00 -2.156406e+00 -2.582673e+00 -2.407079e+00 -2.805517e+00 -2.648458e+00 -3.013922e+00 -2.876215e+00 -3.204134e+00 -3.086522e+00 -3.373010e+00 -3.276155e+00 -3.518109e+00 -3.442591e+00 -3.637768e+00 -3.584082e+00 -3.731142e+00 -3.699696e+00 -3.798216e+00 -3.789334e+00 -3.839776e+00 -3.853695e+00 -3.857351e+00 -3.894220e+00 -3.853114e+00 -3.912985e+00 -3.829759e+00 -3.912576e+00 -3.790356e+00 -3.895940e+00 -3.738199e+00 -3.866222e+00 -3.676643e+00 -3.826603e+00 -3.608958e+00 -3.780152e+00 -3.538191e+00 -3.729690e+00 -3.467046e+00 -3.677669e+00 -3.397795e+00 -3.626090e+00 -3.332202e+00 -3.576434e+00 -3.271481e+00 -3.529623e+00 
-3.317935e+00 -3.564523e+00 -3.272598e+00 -3.528310e+00 -3.233140e+00 -3.495207e+00 -3.198549e+00 -3.463959e+00 -3.167353e+00 -3.432891e+00 -3.137696e+00 -3.399985e+00 -3.107430e+00 -3.362977e+00 -3.074209e+00 -3.319472e+00 -3.035610e+00 -3.267058e+00 -2.989252e+00 -3.203441e+00 -2.932925e+00 -3.126568e+00 -2.864715e+00 -3.034758e+00 -2.783125e+00 -2.926819e+00 -2.687183e+00 -2.802153e+00 -2.576534e+00 -2.660829e+00 -2.451495e+00 -2.503643e+00 -2.313099e+00 -2.332132e+00 -2.163090e+00 -2.148569e+00 -2.003892e+00 -1.955909e+00 -1.838546e+00 -1.757717e+00 -1.670617e+00 -1.558057e+00 -1.504072e+00 -1.361365e+00 -1.343144e+00 -1.172296e+00 -1.192179e+00 -9.955676e-01 -1.055481e+00 -8.357910e-01 -9.371530e-01 -6.973116e-01 -8.409492e-01 -5.840532e-01 -7.701376e-01 -4.993792e-01 -7.273817e-01 -4.459748e-01 -7.146440e-01 -4.257525e-01 -7.331150e-01 -4.397884e-01 -7.831690e-01 -4.882867e-01 -8.643482e-01 -5.705775e-01 -9.753746e-01 -6.851429e-01 -1.114189e+00 -8.296725e-01 -1.278013e+00 -1.001142e+00 -1.463436e+00 -1.195911e+00 -1.666516e+00 -1.409838e+00 -1.882893e+00 -1.638397e+00 -2.107922e+00 -1.876810e+00 -2.336794e+00 -2.120170e+00 -2.564680e+00 -2.363570e+00 -2.786857e+00 -2.602227e+00 -2.998847e+00 -2.831605e+00 -3.196535e+00 -3.047534e+00 -3.376298e+00 -3.246325e+00 -3.535104e+00 -3.424874e+00 -3.670613e+00 -3.580757e+00 -3.781240e+00 -3.712304e+00 -3.866207e+00 -3.818644e+00 -3.925547e+00 -3.899724e+00 -3.960086e+00 -3.956278e+00 -3.971384e+00 -3.989776e+00 -3.961636e+00 -4.002318e+00 -3.933556e+00 -3.996511e+00 -3.890228e+00 -3.975321e+00 -3.834959e+00 -3.941910e+00 -3.771113e+00 -3.899478e+00 -3.701967e+00 -3.851106e+00 -3.630570e+00 -3.799626e+00 -3.559631e+00 -3.747498e+00 -3.491417e+00 -3.696726e+00 -3.427687e+00 -3.648790e+00 -3.369650e+00 -3.604608e+00 
-3.209496e+00 -3.483189e+00 -3.160706e+00 -3.443767e+00 -3.117738e+00 -3.407262e+00 -3.079510e+00 -3.372342e+00 -3.044466e+00 -3.337240e+00 -3.010658e+00 -3.299836e+00 -2.975833e+00 -3.257761e+00 -2.937542e+00 -3.208511e+00 -2.893261e+00 -3.149573e+00 -2.840512e+00 -3.078558e+00 -2.777002e+00 -2.993335e+00 -2.700752e+00 -2.892166e+00 -2.610222e+00 -2.773830e+00 -2.504429e+00 -2.637728e+00 -2.383038e+00 -2.483970e+00 -2.246425e+00 -2.313431e+00 -2.095721e+00 -2.127771e+00 -1.932808e+00 -1.929424e+00 -1.760288e+00 -1.721552e+00 -1.581413e+00 -1.507958e+00 -1.399989e+00 -1.292978e+00 -1.220247e+00 -1.081343e+00 -1.046702e+00 -8.780178e-01 -8.839875e-01 -6.880366e-01 -7.366917e-01 -5.163245e-01 -6.091921e-01 -3.675256e-01 -5.054957e-01 -2.458384e-01 -4.290940e-01 -1.548674e-01 -3.828367e-01 -9.749470e-02 -3.688282e-01 -7.577972e-02 -3.883509e-01 -9.088775e-02 -4.418172e-01 -1.430518e-01 -5.287515e-01 -2.315678e-01 -6.478018e-01 -3.548222e-01 -7.967797e-01 -5.103502e-01 -9.727276e-01 -6.949192e-01 -1.172007e+00 -9.046341e-01 -1.390409e+00 -1.135057e+00 -1.623275e+00 -1.381339e+00 -1.865630e+00 -1.638350e+00 -2.112323e+00 -1.900820e+00 -2.358170e+00 -2.163473e+00 -2.598095e+00 -2.421158e+00 -2.827273e+00 -2.668981e+00 -3.041266e+00 -2.902438e+00 -3.236152e+00 -3.117535e+00 -3.408647e+00 -3.310909e+00 -3.556205e+00 -3.479930e+00 -3.677099e+00 -3.622784e+00 -3.770473e+00 -3.738527e+00 -3.836352e+00 -3.827102e+00 -3.875621e+00 -3.889311e+00 -3.889954e+00 -3.926745e+00 -3.881714e+00 -3.941681e+00 -3.853814e+00 -3.936930e+00 -3.809561e+00 -3.915679e+00 -3.752483e+00 -3.881316e+00 -3.686164e+00 -3.837249e+00 -3.614075e+00 -3.786747e+00 -3.539433e+00 -3.732796e+00 -3.465080e+00 -3.677978e+00 -3.393383e+00 -3.624379e+00 -3.326163e+00 -3.573526e+00 -3.264658e+00 -3.526354e+00 
-3.307673e+00 -3.559342e+00 -3.263454e+00 -3.524740e+00 -3.226068e+00 -3.494146e+00 -3.194380e+00 -3.466168e+00 -3.166767e+00 -3.438964e+00 -3.141199e+00 -3.410328e+00 -3.115329e+00 -3.377787e+00 -3.086601e+00 -3.338723e+00 -3.052367e+00 -3.290491e+00 -3.010018e+00 -3.230564e+00 -2.957116e+00 -3.156662e+00 -2.891535e+00 -3.066897e+00 -2.811587e+00 -2.959895e+00 -2.716143e+00 -2.834913e+00 -2.604731e+00 -2.691925e+00 -2.477607e+00 -2.531682e+00 -2.335793e+00 -2.355741e+00 -2.181085e+00 -2.166449e+00 -2.016021e+00 -1.966902e+00 -1.843808e+00 -1.760855e+00 -1.668226e+00 -1.552614e+00 -1.493500e+00 -1.346893e+00 -1.324146e+00 -1.148653e+00 -1.164812e+00 -9.629271e-01 -1.020105e+00 -7.946463e-01 -8.944223e-01 -6.484592e-01 -7.917887e-01 -5.285663e-01 -7.157101e-01 -4.385694e-01 -6.690460e-01 -3.813431e-01 -6.539056e-01 -3.589343e-01 -6.715726e-01 -3.724927e-01 -7.224583e-01 -4.222344e-01 -8.060860e-01 -5.074409e-01 -9.211054e-01 -6.264906e-01 -1.065335e+00 -7.769207e-01 -1.235833e+00 -9.555153e-01 -1.428986e+00 -1.158414e+00 -1.640624e+00 -1.381234e+00 -1.866141e+00 -1.619200e+00 -2.100627e+00 -1.867279e+00 -2.339009e+00 -2.120310e+00 -2.576191e+00 -2.373136e+00 -2.807188e+00 -2.620730e+00 -3.027268e+00 -2.858317e+00 -3.232082e+00 -3.081501e+00 -3.417791e+00 -3.286383e+00 -3.581186e+00 -3.469679e+00 -3.719786e+00 -3.628824e+00 -3.831926e+00 -3.762061e+00 -3.916807e+00 -3.868497e+00 -3.974516e+00 -3.948129e+00 -4.006001e+00 -4.001820e+00 -4.013007e+00 -4.031231e+00 -3.997976e+00 -4.038718e+00 -3.963905e+00 -4.027183e+00 -3.914186e+00 -3.999907e+00 -3.852434e+00 -3.960368e+00 -3.782311e+00 -3.912064e+00 -3.707359e+00 -3.858343e+00 -3.630855e+00 -3.802254e+00 -3.555685e+00 -3.746429e+00 -3.484247e+00 -3.692988e+00 -3.418378e+00 -3.643474e+00 -3.359314e+00 -3.598822e+00 
-3.197382e+00 -3.477707e+00 -3.150056e+00 -3.440383e+00 -3.109771e+00 -3.407123e+00 -3.075284e+00 -3.376414e+00 -3.044843e+00 -3.346274e+00 -3.016273e+00 -3.314339e+00 -2.987068e+00 -3.277972e+00 -2.954506e+00 -3.234381e+00 -2.915774e+00 -3.180755e+00 -2.868100e+00 -3.114404e+00 -2.808899e+00 -3.032906e+00 -2.735918e+00 -2.934254e+00 -2.647373e+00 -2.816992e+00 -2.542077e+00 -2.680336e+00 -2.419546e+00 -2.524272e+00 -2.280076e+00 -2.349620e+00 -2.124789e+00 -2.158062e+00 -1.955634e+00 -1.952134e+00 -1.775360e+00 -1.735174e+00 -1.587435e+00 -1.511239e+00 -1.395946e+00 -1.284974e+00 -1.205459e+00 -1.061472e+00 -1.020855e+00 -8.460947e-01 -8.471604e-01 -6.442895e-01 -6.893582e-01 -4.613963e-01 -5.522076e-01 -3.024561e-01 -4.400696e-01 -1.720307e-01 -3.567470e-01 -7.403822e-02 -3.053470e-01 -1.161251e-02 -2.881679e-01 1.300783e-02 -3.066166e-01 -1.443140e-03 -3.611569e-01 -5.521798e-02 -4.512917e-01 -1.475528e-01 -5.755770e-01 -2.767010e-01 -7.316679e-01 -4.400002e-01 -9.163928e-01 -6.339684e-01 -1.125853e+00 -8.544218e-01 -1.355540e+00 -1.096608e+00 -1.600470e+00 -1.355347e+00 -1.855328e+00 -1.625175e+00 -2.114612e+00 -1.900487e+00 -2.372785e+00 -2.175672e+00 -2.624424e+00 -2.445253e+00 -2.864367e+00 -2.704018e+00 -3.087860e+00 -2.947158e+00 -3.290693e+00 -3.170397e+00 -3.469339e+00 -3.370127e+00 -3.621066e+00 -3.543528e+00 -3.744034e+00 -3.688670e+00 -3.837362e+00 -3.804581e+00 -3.901145e+00 -3.891275e+00 -3.936433e+00 -3.949728e+00 -3.945156e+00 -3.981797e+00 -3.930003e+00 -3.990100e+00 -3.894271e+00 -3.977845e+00 -3.841673e+00 -3.948640e+00 -3.776148e+00 -3.906287e+00 -3.701668e+00 -3.854587e+00 -3.622050e+00 -3.797151e+00 -3.540805e+00 -3.737248e+00 -3.461000e+00 -3.677674e+00 -3.385164e+00 -3.620658e+00 -3.315214e+00 -3.567805e+00 -3.252418e+00 -3.520061e+00 
-3.291063e+00 -3.550406e+00 -3.248639e+00 -3.518357e+00 -3.214519e+00 -3.491704e+00 -3.187378e+00 -3.468842e+00 -3.165363e+00 -3.447675e+00 -3.146175e+00 -3.425707e+00 -3.127169e+00 -3.400147e+00 -3.105461e+00 -3.368032e+00 -3.078060e+00 -3.326364e+00 -3.042002e+00 -3.272251e+00 -2.994501e+00 -3.203064e+00 -2.933098e+00 -3.116588e+00 -2.855805e+00 -3.011166e+00 -2.761247e+00 -2.885827e+00 -2.648768e+00 -2.740390e+00 -2.518520e+00 -2.575539e+00 -2.371510e+00 -2.392850e+00 -2.209614e+00 -2.194792e+00 -2.035538e+00 -1.984670e+00 -1.852750e+00 -1.766537e+00 -1.665366e+00 -1.545074e+00 -1.478008e+00 -1.325425e+00 -1.295635e+00 -1.113025e+00 -1.123364e+00 -9.134020e-01 -9.662732e-01 -7.319806e-01 -8.292144e-01 -5.738809e-01 -7.166332e-01 -4.437333e-01 -6.324038e-01 -3.455091e-01 -5.796883e-01 -2.823770e-01 -5.608220e-01 -2.565911e-01 -5.772313e-01 -2.694132e-01 -6.293833e-01 -3.210758e-01 -7.167702e-01 -4.107817e-01 -8.379275e-01 -5.367446e-01 -9.904839e-01 -6.962619e-01 -1.171240e+00 -8.858180e-01 -1.376273e+00 -1.101209e+00 -1.601059e+00 -1.337682e+00 -1.840609e+00 -1.590077e+00 -2.089616e+00 -1.852973e+00 -2.342598e+00 -2.120825e+00 -2.594053e+00 -2.388100e+00 -2.838596e+00 -2.649397e+00 -3.071110e+00 -2.899583e+00 -3.286880e+00 -3.133911e+00 -3.481736e+00 -3.348157e+00 -3.652185e+00 -3.538750e+00 -3.795527e+00 -3.702899e+00 -3.909962e+00 -3.838700e+00 -3.994655e+00 -3.945219e+00 -4.049768e+00 -4.022527e+00 -4.076438e+00 -4.071680e+00 -4.076708e+00 -4.094650e+00 -4.053402e+00 -4.094194e+00 -4.009967e+00 -4.073678e+00 -3.950279e+00 -4.036883e+00 -3.878439e+00 -3.987786e+00 -3.798572e+00 -3.930350e+00 -3.714634e+00 -3.868333e+00 -3.630251e+00 -3.805124e+00 -3.548580e+00 -3.743613e+00 -3.472212e+00 -3.686093e+00 -3.403100e+00 -3.634199e+00 -3.342520e+00 -3.588884e+00 
-3.178679e+00 -3.468368e+00 -3.133579e+00 -3.434184e+00 -3.097281e+00 -3.405723e+00 -3.068311e+00 -3.381214e+00 -3.044636e+00 -3.358367e+00 -3.023756e+00 -3.334468e+00 -3.002805e+00 -3.306495e+00 -2.978667e+00 -3.271243e+00 -2.948113e+00 -3.225471e+00 -2.907945e+00 -3.166052e+00 -2.855155e+00 -3.090139e+00 -2.787088e+00 -2.995329e+00 -2.701597e+00 -2.879821e+00 -2.597195e+00 -2.742557e+00 -2.473177e+00 -2.583334e+00 -2.329713e+00 -2.402886e+00 -2.167907e+00 -2.202925e+00 -1.989807e+00 -1.986130e+00 -1.798368e+00 -1.756096e+00 -1.597377e+00 -1.517242e+00 -1.391330e+00 -1.274669e+00 -1.185277e+00 -1.033996e+00 -9.846416e-01 -8.011624e-01 -7.950187e-01 -5.822197e-01 -6.219677e-01 -3.831122e-01 -4.708051e-01 -2.094606e-01 -3.464066e-01 -6.635657e-02 -2.530279e-01 4.182440e-02 -1.941493e-01 1.115822e-01 -1.723499e-01 1.404180e-01 -1.892155e-01 1.269217e-01 -2.452826e-01 7.081549e-02 -3.400201e-01 -2.704505e-02 -4.718476e-01 -1.647140e-01 -6.381902e-01 -3.392365e-01 -8.355639e-01 -5.467630e-01 -1.059690e+00 -7.826876e-01 -1.305628e+00 -1.041801e+00 -1.567926e+00 -1.318451e+00 -1.840779e+00 -1.606694e+00 -2.118183e+00 -1.900449e+00 -2.394100e+00 -2.193639e+00 -2.662610e+00 -2.480323e+00 -2.918069e+00 -2.754836e+00 -3.155264e+00 -3.011926e+00 -3.369565e+00 -3.246905e+00 -3.557083e+00 -3.455799e+00 -3.714803e+00 -3.635496e+00 -3.840713e+00 -3.783882e+00 -3.933884e+00 -3.899931e+00 -3.994506e+00 -3.983756e+00 -4.023872e+00 -4.036585e+00 -4.024290e+00 -4.060674e+00 -3.998938e+00 -4.059150e+00 -3.951680e+00 -4.035814e+00 -3.886836e+00 -3.994900e+00 -3.808953e+00 -3.940827e+00 -3.722572e+00 -3.877971e+00 -3.632016e+00 -3.810442e+00 -3.541214e+00 -3.741913e+00 -3.453559e+00 -3.675485e+00 -3.371803e+00 -3.613587e+00 -3.297991e+00 -3.557922e+00 -3.233429e+00 -3.509446e+00 
-3.266601e+00 -3.536272e+00 -3.226799e+00 -3.507893e+00 -3.197334e+00 -3.486831e+00 -3.176620e+00 -3.471189e+00 -3.162491e+00 -3.458525e+00 -3.152280e+00 -3.445947e+00 -3.142933e+00 -3.430227e+00 -3.131119e+00 -3.407931e+00 -3.113372e+00 -3.375567e+00 -3.086238e+00 -3.329742e+00 -3.046443e+00 -3.267336e+00 -2.991061e+00 -3.185675e+00 -2.917682e+00 -3.082698e+00 -2.824576e+00 -2.957109e+00 -2.710823e+00 -2.808506e+00 -2.576423e+00 -2.637465e+00 -2.422357e+00 -2.445591e+00 -2.250604e+00 -2.235511e+00 -2.064108e+00 -2.010822e+00 -1.866697e+00 -1.775994e+00 -1.662956e+00 -1.536227e+00 -1.458066e+00 -1.297271e+00 -1.257608e+00 -1.065221e+00 -1.067352e+00 -8.463001e-01 -8.930371e-01 -6.466213e-01 -7.401521e-01 -4.719658e-01 -6.137286e-01 -3.275652e-01 -5.181538e-01 -2.179073e-01 -4.570096e-01 -1.465710e-01 -4.329443e-01 -1.160974e-01 -4.475799e-01 -1.279028e-01 -5.014580e-01 -1.822366e-01 -5.940240e-01 -2.781863e-01 -7.236508e-01 -4.137278e-01 -8.876986e-01 -5.858164e-01 -1.082608e+00 -7.905124e-01 -1.304023e+00 -1.023130e+00 -1.546927e+00 -1.278400e+00 -1.805807e+00 -1.550634e+00 -2.074805e+00 -1.833884e+00 -2.347886e+00 -2.122088e+00 -2.618992e+00 -2.409205e+00 -2.882198e+00 -2.689339e+00 -3.131855e+00 -2.956864e+00 -3.362747e+00 -3.206555e+00 -3.570239e+00 -3.433728e+00 -3.750431e+00 -3.634401e+00 -3.900305e+00 -3.805443e+00 -4.017856e+00 -3.944729e+00 -4.102185e+00 -4.051247e+00 -4.153551e+00 -4.125161e+00 -4.173356e+00 -4.167801e+00 -4.164062e+00 -4.181578e+00 -4.129045e+00 -4.169825e+00 -4.072394e+00 -4.136583e+00 -3.998678e+00 -4.086345e+00 -3.912689e+00 -4.023799e+00 -3.819204e+00 -3.953564e+00 -3.722757e+00 -3.879974e+00 -3.627454e+00 -3.806883e+00 -3.536824e+00 -3.737529e+00 -3.453714e+00 -3.674433e+00 -3.380222e+00 -3.619348e+00 -3.317671e+00 -3.573234e+00 
-3.151580e+00 -3.453440e+00 -3.109651e+00 -3.423652e+00 -3.078885e+00 -3.401813e+00 -3.057496e+00 -3.385809e+00 -3.043081e+00 -3.372940e+00 -3.032713e+00 -3.360034e+00 -3.023045e+00 -3.343558e+00 -3.010444e+00 -3.319759e+00 -2.991125e+00 -3.284818e+00 -2.961317e+00 -3.235021e+00 -2.917439e+00 -3.166944e+00 -2.856287e+00 -3.077643e+00 -2.775216e+00 -2.964842e+00 -2.672321e+00 -2.827096e+00 -2.546586e+00 -2.663939e+00 -2.398002e+00 -2.475980e+00 -2.227641e+00 -2.264960e+00 -2.037674e+00 -2.033747e+00 -1.831339e+00 -1.786282e+00 -1.612849e+00 -1.527471e+00 -1.387256e+00 -1.263032e+00 -1.160271e+00 -9.992969e-01 -9.380503e-01 -7.429895e-01 -7.269648e-01 -5.009810e-01 -5.333559e-01 -2.800364e-01 -3.632947e-01 -8.656326e-02 -2.223539e-01 7.362777e-02 -1.154005e-01 1.955404e-01 -4.641727e-02 2.751786e-01 -1.836002e-02 3.096929e-01 -3.305288e-02 2.974812e-01 -9.112650e-02 2.382378e-01 -1.919993e-01 1.329506e-01 -3.339022e-01 -1.615499e-02 -5.139443e-01 -2.057177e-01 -7.282165e-01 -4.313820e-01 -9.719249e-01 -6.879667e-01 -1.239548e+00 -9.696471e-01 -1.525010e+00 -1.270139e+00 -1.821851e+00 -1.582871e+00 -2.123411e+00 -1.901146e+00 -2.422988e+00 -2.218278e+00 -2.714012e+00 -2.527729e+00 -2.990199e+00 -2.823238e+00 -3.245722e+00 -3.098965e+00 -3.475380e+00 -3.349654e+00 -3.674775e+00 -3.570814e+00 -3.840495e+00 -3.758913e+00 -3.970265e+00 -3.911554e+00 -4.063074e+00 -4.027618e+00 -4.119233e+00 -4.107337e+00 -4.140365e+00 -4.152285e+00 -4.129298e+00 -4.165270e+00 -4.089897e+00 -4.150141e+00 -4.026819e+00 -4.111527e+00 -3.945229e+00 -4.054537e+00 -3.850513e+00 -3.984448e+00 -3.747992e+00 -3.906420e+00 -3.642674e+00 -3.825239e+00 -3.539047e+00 -3.745117e+00 -3.440926e+00 -3.669546e+00 -3.351348e+00 -3.601206e+00 -3.272513e+00 -3.541916e+00 -3.205759e+00 -3.492627e+00 
-3.232212e+00 -3.514950e+00 -3.196063e+00 -3.491596e+00 -3.172912e+00 -3.478076e+00 -3.160834e+00 -3.472117e+00 -3.157252e+00 -3.470826e+00 -3.159033e+00 -3.470803e+00 -3.162592e+00 -3.468257e+00 -3.164024e+00 -3.459144e+00 -3.159243e+00 -3.439327e+00 -3.144154e+00 -3.404753e+00 -3.114835e+00 -3.351650e+00 -3.067735e+00 -3.276727e+00 -2.999875e+00 -3.177378e+00 -2.909042e+00 -3.051864e+00 -2.793954e+00 -2.899472e+00 -2.654395e+00 -2.720629e+00 -2.491300e+00 -2.516962e+00 -2.306779e+00 -2.291303e+00 -2.104084e+00 -2.047633e+00 -1.887522e+00 -1.790971e+00 -1.662303e+00 -1.527205e+00 -1.434350e+00 -1.262888e+00 -1.210073e+00 -1.004997e+00 -9.961118e-01 -7.606720e-01 -7.990848e-01 -5.369465e-01 -6.253249e-01 -3.404785e-01 -4.806395e-01 -1.772979e-01 -3.700925e-01 -5.257792e-02 -2.978181e-01 2.955958e-02 -2.668739e-01 6.619513e-02 -2.791362e-01 5.571331e-02 -3.352390e-01 -2.150421e-03 -4.345599e-01 -1.063197e-01 -5.752506e-01 -2.544426e-01 -7.543108e-01 -4.430081e-01 -9.677009e-01 -6.675026e-01 -1.210487e+00 -9.225954e-01 -1.477009e+00 -1.202336e+00 -1.761062e+00 -1.500348e+00 -2.056080e+00 -1.810009e+00 -2.355314e+00 -2.124604e+00 -2.651999e+00 -2.437460e+00 -2.939514e+00 -2.742057e+00 -3.211533e+00 -3.032148e+00 -3.462182e+00 -3.301883e+00 -3.686208e+00 -3.545966e+00 -3.879159e+00 -3.759841e+00 -4.037566e+00 -3.939897e+00 -4.159122e+00 -4.083670e+00 -4.242819e+00 -4.190013e+00 -4.289030e+00 -4.259198e+00 -4.299504e+00 -4.292915e+00 -4.277275e+00 -4.294175e+00 -4.226473e+00 -4.267110e+00 -4.152071e+00 -4.216686e+00 -4.059581e+00 -4.148380e+00 -3.954737e+00 -4.067843e+00 -3.843189e+00 -3.980580e+00 -3.730239e+00 -3.891682e+00 -3.620616e+00 -3.805607e+00 -3.518321e+00 -3.726033e+00 -3.426518e+00 -3.655760e+00 -3.347475e+00 -3.596667e+00 -3.282551e+00 -3.549711e+00 
-3.113668e+00 -3.430610e+00 -3.076109e+00 -3.406760e+00 -3.052739e+00 -3.393724e+00 -3.041379e+00 -3.388945e+00 -3.039157e+00 -3.389213e+00 -3.042607e+00 -3.390774e+00 -3.047783e+00 -3.389453e+00 -3.050390e+00 -3.380799e+00 -3.045937e+00 -3.360255e+00 -3.029915e+00 -3.323346e+00 -2.997997e+00 -3.265894e+00 -2.946253e+00 -3.184241e+00 -2.871378e+00 -3.075472e+00 -2.770906e+00 -2.937628e+00 -2.643395e+00 -2.769879e+00 -2.488588e+00 -2.572655e+00 -2.307501e+00 -2.347722e+00 -2.102458e+00 -2.098185e+00 -1.877057e+00 -1.828430e+00 -1.636067e+00 -1.543999e+00 -1.385269e+00 -1.251409e+00 -1.131236e+00 -9.579238e-01 -8.810885e-01 -6.712914e-01 -6.422102e-01 -3.994533e-01 -4.219643e-01 -1.502471e-01 -2.274064e-01 6.889173e-02 -6.501567e-02 2.512133e-01 5.954817e-02 3.909106e-01 1.416520e-01 4.833411e-01 1.778554e-01 5.252005e-01 1.660300e-01 5.146416e-01 1.054292e-01 4.513317e-01 -3.292639e-03 3.364441e-01 -1.581133e-01 1.725851e-01 -3.557241e-01 -3.633692e-02 -5.916563e-01 -2.852922e-01 -8.604440e-01 -5.683409e-01 -1.155813e+00 -8.788584e-01 -1.470884e+00 -1.209755e+00 -1.798372e+00 -1.553671e+00 -2.130784e+00 -1.903150e+00 -2.460595e+00 -2.250766e+00 -2.780418e+00 -2.589249e+00 -3.083166e+00 -2.911598e+00 -3.362222e+00 -3.211219e+00 -3.611634e+00 -3.482108e+00 -3.826322e+00 -3.719066e+00 -4.002312e+00 -3.917959e+00 -4.136950e+00 -4.075970e+00 -4.229081e+00 -4.191810e+00 -4.279153e+00 -4.265848e+00 -4.289219e+00 -4.300112e+00 -4.262813e+00 -4.298159e+00 -4.204727e+00 -4.264824e+00 -4.120696e+00 -4.205868e+00 -4.017029e+00 -4.127587e+00 -3.900233e+00 -4.036410e+00 -3.776661e+00 -3.938531e+00 -3.652208e+00 -3.839611e+00 -3.532075e+00 -3.744542e+00 -3.420598e+00 -3.657300e+00 -3.321153e+00 -3.580854e+00 -3.236108e+00 -3.517142e+00 -3.166820e+00 -3.467080e+00 
-3.185184e+00 -3.483836e+00 -3.154001e+00 -3.467180e+00 -3.139177e+00 -3.463551e+00 -3.138362e+00 -3.470194e+00 -3.148473e+00 -3.483667e+00 -3.165797e+00 -3.499940e+00 -3.186098e+00 -3.514521e+00 -3.204751e+00 -3.522604e+00 -3.216896e+00 -3.519239e+00 -3.217619e+00 -3.499530e+00 -3.202165e+00 -3.458862e+00 -3.166172e+00 -3.393140e+00 -3.105912e+00 -3.299036e+00 -3.018527e+00 -3.174221e+00 -2.902247e+00 -3.017560e+00 -2.756558e+00 -2.829266e+00 -2.582318e+00 -2.610981e+00 -2.381793e+00 -2.365791e+00 -2.158631e+00 -2.098166e+00 -1.917752e+00 -1.813825e+00 -1.665175e+00 -1.519546e+00 -1.407787e+00 -1.222919e+00 -1.153067e+00 -9.320573e-01 -9.087870e-01 -6.552886e-01 -6.826979e-01 -4.008320e-01 -4.822208e-01 -1.764785e-01 -3.141599e-01 1.071142e-02 -1.844447e-01 1.546812e-01 -9.791337e-02 2.506101e-01 -5.814233e-02 2.950950e-01 -6.732583e-02 2.862707e-01 -1.262086e-01 2.238646e-01 -2.340723e-01 1.091805e-01 -3.887751e-01 -5.498724e-02 -5.868442e-01 -2.645044e-01 -8.236145e-01 -5.140988e-01 -1.093407e+00 -7.975964e-01 -1.389734e+00 -1.108170e+00 -1.705517e+00 -1.438576e+00 -2.033299e+00 -1.781360e+00 -2.365451e+00 -2.129023e+00 -2.694340e+00 -2.474141e+00 -3.012497e+00 -2.809456e+00 -3.312757e+00 -3.127969e+00 -3.588423e+00 -3.423049e+00 -3.833443e+00 -3.688602e+00 -4.042624e+00 -3.919293e+00 -4.211874e+00 -4.110826e+00 -4.338443e+00 -4.260231e+00 -4.421135e+00 -4.366131e+00 -4.460442e+00 -4.428897e+00 -4.458559e+00 -4.450687e+00 -4.419277e+00 -4.435322e+00 -4.347742e+00 -4.388011e+00 -4.250117e+00 -4.314979e+00 -4.133180e+00 -4.223025e+00 -4.003909e+00 -4.119083e+00 -3.869101e+00 -4.009814e+00 -3.735038e+00 -3.901279e+00 -3.607234e+00 -3.798690e+00 -3.490264e+00 -3.706253e+00 -3.387658e+00 -3.627085e+00 -3.301866e+00 -3.563188e+00 -3.234262e+00 -3.515477e+00 
-3.061851e+00 -3.396911e+00 -3.030189e+00 -3.380920e+00 -3.016493e+00 -3.379321e+00 -3.018095e+00 -3.389018e+00 -3.031550e+00 -3.406175e+00 -3.052742e+00 -3.426334e+00 -3.076992e+00 -3.444533e+00 -3.099196e+00 -3.455464e+00 -3.113986e+00 -3.453646e+00 -3.115923e+00 -3.433645e+00 -3.099730e+00 -3.390317e+00 -3.060545e+00 -3.319077e+00 -2.994196e+00 -3.216176e+00 -2.897472e+00 -3.078968e+00 -2.768367e+00 -2.906133e+00 -2.606275e+00 -2.697850e+00 -2.412122e+00 -2.455899e+00 -2.188415e+00 -2.183673e+00 -1.939206e+00 -1.886119e+00 -1.669973e+00 -1.569585e+00 -1.387427e+00 -1.241608e+00 -1.099253e+00 -9.106418e-01 -8.138014e-01 -5.857418e-01 -5.397579e-01 -2.762175e-01 -2.857910e-01 8.723710e-03 -6.021103e-02 2.603327e-01 1.293508e-01 4.706588e-01 2.762303e-01 6.328595e-01 3.749740e-01 7.414669e-01 4.215330e-01 7.925986e-01 4.134004e-01 7.841019e-01 3.496920e-01 7.156221e-01 2.311646e-01 5.885888e-01 6.017384e-02 4.061199e-01 -1.594281e-01 1.728497e-01 -4.224502e-01 -1.053054e-01 -7.225653e-01 -4.214211e-01 -1.052543e+00 -7.678525e-01 -1.404497e+00 -1.136505e+00 -1.770122e+00 -1.519065e+00 -2.140913e+00 -1.907175e+00 -2.508352e+00 -2.292554e+00 -2.864072e+00 -2.667080e+00 -3.200006e+00 -3.022871e+00 -3.508560e+00 -3.352403e+00 -3.782814e+00 -3.648698e+00 -4.016780e+00 -3.905596e+00 -4.205702e+00 -4.118106e+00 -4.346367e+00 -4.282778e+00 -4.437376e+00 -4.398033e+00 -4.479317e+00 -4.464370e+00 -4.474792e+00 -4.484406e+00 -4.428273e+00 -4.462707e+00 -4.345800e+00 -4.405442e+00 -4.234555e+00 -4.319906e+00 -4.102368e+00 -4.213985e+00 -3.957227e+00 -4.095621e+00 -3.806817e+00 -3.972352e+00 -3.658158e+00 -3.850936e+00 -3.517325e+00 -3.737101e+00 -3.389277e+00 -3.635381e+00 -3.277767e+00 -3.549062e+00 -3.185323e+00 -3.480175e+00 -3.113282e+00 -3.429555e+00 
-3.122105e+00 -3.439646e+00 -3.097556e+00 -3.431774e+00 -3.093518e+00 -3.440874e+00 -3.107118e+00 -3.463617e+00 -3.134667e+00 -3.495892e+00 -3.171756e+00 -3.532915e+00 -3.213369e+00 -3.569353e+00 -3.254009e+00 -3.599470e+00 -3.287862e+00 -3.617310e+00 -3.308998e+00 -3.616924e+00 -3.311611e+00 -3.592622e+00 -3.290294e+00 -3.539276e+00 -3.240344e+00 -3.452616e+00 -3.158059e+00 -3.329529e+00 -3.041012e+00 -3.168317e+00 -2.888283e+00 -2.968891e+00 -2.700604e+00 -2.732892e+00 -2.480430e+00 -2.463712e+00 -2.231897e+00 -2.166431e+00 -1.960707e+00 -1.847657e+00 -1.673907e+00 -1.515294e+00 -1.379614e+00 -1.178247e+00 -1.086677e+00 -8.460740e-01 -8.043060e-01 -5.286101e-01 -5.416921e-01 -2.355805e-01 -3.076348e-01 2.378600e-02 -1.101949e-01 2.411216e-01 4.361114e-02 4.092495e-01 1.480660e-01 5.224646e-01 1.989498e-01 5.767543e-01 1.936783e-01 5.699454e-01 1.313789e-01 5.017704e-01 1.290344e-02 3.738447e-01 -1.592227e-01 1.895537e-01 -3.809159e-01 -4.614329e-02 -6.467074e-01 -3.269786e-01 -9.499672e-01 -6.456862e-01 -1.283161e+00 -9.943237e-01 -1.638119e+00 -1.364572e+00 -2.006297e+00 -1.747982e+00 -2.379001e+00 -2.136144e+00 -2.747575e+00 -2.520791e+00 -3.103548e+00 -2.893837e+00 -3.438763e+00 -3.247416e+00 -3.745514e+00 -3.573952e+00 -4.016736e+00 -3.866323e+00 -4.246254e+00 -4.118140e+00 -4.429108e+00 -4.324127e+00 -4.561898e+00 -4.480556e+00 -4.643107e+00 -4.585649e+00 -4.673326e+00 -4.639854e+00 -4.655312e+00 -4.645922e+00 -4.593857e+00 -4.608751e+00 -4.495466e+00 -4.535017e+00 -4.367894e+00 -4.432642e+00 -4.219603e+00 -4.310194e+00 -4.059205e+00 -4.176291e+00 -3.894971e+00 -4.039083e+00 -3.734416e+00 -3.905844e+00 -3.584012e+00 -3.782697e+00 -3.449003e+00 -3.674455e+00 -3.333321e+00 -3.584564e+00 -3.239583e+00 -3.515121e+00 -3.169129e+00 -3.466940e+00 