# vtk DataFile Version 2.0
Comment goes here
ASCII

DATASET STRUCTURED_POINTS
FIELD FieldData 1
TIME 1 1 double
0.16500000
DIMENSIONS    128   128   1

ORIGIN    0.000   0.000   0.000
SPACING   0.039062 0.039062   1.000

POINT_DATA   16384
VECTORS u double

-0.001164 0.000000 0.000000 0.006547 0.000000 0.000000 0.010614 0.000000 0.000000 0.018718 0.000000 0.000000 0.023748 0.000000 0.000000 0.032132 0.000000 0.000000 0.038006 0.000000 0.000000 0.046527 0.000000 0.000000 0.053093 0.000000 0.000000 0.061583 0.000000 0.000000 0.068660 0.000000 0.000000 0.076929 0.000000 0.000000 0.084315 0.000000 0.000000 0.092158 0.000000 0.000000 0.099637 0.000000 0.000000 0.106845 0.000000 0.000000 0.114195 0.000000 0.000000 0.120558 0.000000 0.000000 0.127560 0.000000 0.000000 0.132877 0.000000 0.000000 0.139326 0.000000 0.000000 0.143415 0.000000 0.000000 0.149125 0.000000 0.000000 0.151826 0.000000 0.000000 0.156642 0.000000 0.000000 0.157829 0.000000 0.000000 0.161627 0.000000 0.000000 0.161209 0.000000 0.000000 0.163905 0.000000 0.000000 0.161831 0.000000 0.000000 0.163382 0.000000 0.000000 0.159642 0.000000 0.000000 0.160044 0.000000 0.000000 0.154670 0.000000 0.000000 0.153956 0.000000 0.000000 0.147017 0.000000 0.000000 0.145255 0.000000 0.000000 0.136856 0.000000 0.000000 0.134141 0.000000 0.000000 0.124419 0.000000 0.000000 0.120869 0.000000 0.000000 0.109984 0.000000 0.000000 0.105731 0.000000 0.000000 0.093864 0.000000 0.000000 0.089050 0.000000 0.000000 0.076397 0.000000 0.000000 0.071166 0.000000 0.000000 0.057934 0.000000 0.000000 0.052429 0.000000 0.000000 0.038831 0.000000 0.000000 0.033189 0.000000 0.000000 0.019439 0.000000 0.000000 0.013790 0.000000 0.000000 0.000103 0.000000 0.000000 -0.005434 0.000000 0.000000 -0.018846 0.000000 0.000000 -0.024161 0.000000 0.000000 -0.037091 0.000000 0.000000 -0.042087 0.000000 0.000000 -0.054336 0.000000 0.000000 -0.058923 0.000000 0.000000 -0.070303 0.000000 0.000000 -0.074405 0.000000 0.000000 -0.084740 0.000000 0.000000 -0.088290 0.000000 0.000000 -0.097423 0.000000 0.000000 -0.100368 0.000000 0.000000 -0.108162 0.000000 0.000000 -0.110460 0.000000 0.000000 -0.116804 0.000000 0.000000 -0.118431 0.000000 0.000000 -0.123244 0.000000 0.000000 -0.124192 0.000000 0.000000 -0.127428 0.000000 0.000000 -0.127713 0.000000 0.000000 -0.129364 0.000000 0.000000 -0.129022 0.000000 0.000000 -0.129120 0.000000 0.000000 -0.128214 0.000000 0.000000 -0.126834 0.000000 0.000000 -0.125451 0.000000 0.000000 -0.122707 0.000000 0.000000 -0.120959 0.000000 0.000000 -0.117003 0.000000 0.000000 -0.115025 0.000000 0.000000 -0.110040 0.000000 0.000000 -0.107981 0.000000 0.000000 -0.102174 0.000000 0.000000 -0.100193 0.000000 0.000000 -0.093785 0.000000 0.000000 -0.092042 0.000000 0.000000 -0.085254 0.000000 0.000000 -0.083900 0.000000 0.000000 -0.076944 0.000000 0.000000 -0.076110 0.000000 0.000000 -0.069177 0.000000 0.000000 -0.068964 0.000000 0.000000 -0.062215 0.000000 0.000000 -0.062684 0.000000 0.000000 -0.056239 0.000000 0.000000 -0.057411 0.000000 0.000000 -0.051344 0.000000 0.000000 -0.053189 0.000000 0.000000 -0.047531 0.000000 0.000000 -0.049974 0.000000 0.000000 -0.044708 0.000000 0.000000 -0.047629 0.000000 0.000000 -0.042700 0.000000 0.000000 -0.045942 0.000000 0.000000 -0.041261 0.000000 0.000000 -0.044641 0.000000 0.000000 -0.040094 0.000000 0.000000 -0.043411 0.000000 0.000000 -0.038872 0.000000 0.000000 -0.041919 0.000000 0.000000 -0.037258 0.000000 0.000000 -0.039834 0.000000 0.000000 -0.034928 0.000000 0.000000 -0.036849 0.000000 0.000000 -0.031588 0.000000 0.000000 -0.032694 0.000000 0.000000 -0.026994 0.000000 0.000000 -0.027159 0.000000 0.000000 -0.020959 0.000000 0.000000 -0.020094 0.000000 0.000000 -0.013370 0.000000 0.000000 -0.011428 0.000000 0.000000 -0.004188 0.000000 0.000000 
0.000765 -0.005368 0.000000 0.008495 -0.005889 0.000000 0.012511 -0.006085 0.000000 0.020624 -0.006567 0.000000 0.025602 -0.006707 0.000000 0.033987 -0.007129 0.000000 0.039811 -0.007198 0.000000 0.048325 -0.007544 0.000000 0.054842 -0.007528 0.000000 0.063319 -0.007783 0.000000 0.070349 -0.007673 0.000000 0.078598 -0.007827 0.000000 0.085940 -0.007615 0.000000 0.093759 -0.007661 0.000000 0.101195 -0.007343 0.000000 0.108372 -0.007279 0.000000 0.115681 -0.006856 0.000000 0.122007 -0.006683 0.000000 0.128969 -0.006160 0.000000 0.134244 -0.005883 0.000000 0.140652 -0.005269 0.000000 0.144693 -0.004899 0.000000 0.150361 -0.004206 0.000000 0.153008 -0.003758 0.000000 0.157780 -0.003001 0.000000 0.158906 -0.002492 0.000000 0.162657 -0.001690 0.000000 0.162173 -0.001139 0.000000 0.164819 -0.000311 0.000000 0.162673 0.000262 0.000000 0.164171 0.001094 0.000000 0.160352 0.001669 0.000000 0.160698 0.002486 0.000000 0.155240 0.003044 0.000000 0.154466 0.003826 0.000000 0.147439 0.004350 0.000000 0.145615 0.005080 0.000000 0.137124 0.005557 0.000000 0.134346 0.006219 0.000000 0.124527 0.006636 0.000000 0.120912 0.007218 0.000000 0.109927 0.007569 0.000000 0.105609 0.008060 0.000000 0.093640 0.008341 0.000000 0.088761 0.008733 0.000000 0.076004 0.008942 0.000000 0.070709 0.009231 0.000000 0.057372 0.009368 0.000000 0.051804 0.009552 0.000000 0.038098 0.009620 0.000000 0.032396 0.009696 0.000000 0.018537 0.009700 0.000000 0.012829 0.009668 0.000000 -0.000967 0.009612 0.000000 -0.006560 0.009474 0.000000 -0.020081 0.009364 0.000000 -0.025451 0.009123 0.000000 -0.038490 0.008963 0.000000 -0.043536 0.008622 0.000000 -0.055894 0.008418 0.000000 -0.060529 0.007984 0.000000 -0.072014 0.007741 0.000000 -0.076160 0.007219 0.000000 -0.086598 0.006943 0.000000 -0.090187 0.006342 0.000000 -0.099418 0.006039 0.000000 -0.102395 0.005369 0.000000 -0.110280 0.005046 0.000000 -0.112604 0.004321 0.000000 -0.119031 0.003985 0.000000 -0.120673 0.003220 0.000000 -0.125559 0.002881 0.000000 -0.126512 0.002092 0.000000 -0.129808 0.001760 0.000000 -0.130085 0.000968 0.000000 -0.131781 0.000654 0.000000 -0.131416 -0.000122 0.000000 -0.131542 -0.000404 0.000000 -0.130598 -0.001143 0.000000 -0.129226 -0.001382 0.000000 -0.127788 -0.002063 0.000000 -0.125032 -0.002246 0.000000 -0.123212 -0.002852 0.000000 -0.119222 -0.002967 0.000000 -0.117153 -0.003481 0.000000 -0.112113 -0.003522 0.000000 -0.109947 -0.003933 0.000000 -0.104063 -0.003894 0.000000 -0.101959 -0.004195 0.000000 -0.095452 -0.004076 0.000000 -0.093574 -0.004266 0.000000 -0.086667 -0.004071 0.000000 -0.085169 -0.004155 0.000000 -0.078077 -0.003895 0.000000 -0.077093 -0.003883 0.000000 -0.070009 -0.003573 0.000000 -0.069645 -0.003481 0.000000 -0.062732 -0.003140 0.000000 -0.063054 -0.002988 0.000000 -0.056437 -0.002637 0.000000 -0.057468 -0.002447 0.000000 -0.051226 -0.002111 0.000000 -0.052942 -0.001906 0.000000 -0.047108 -0.001608 0.000000 -0.049434 -0.001411 0.000000 -0.043996 -0.001172 0.000000 -0.046818 -0.001004 0.000000 -0.041722 -0.000843 0.000000 -0.044884 -0.000720 0.000000 -0.040046 -0.000651 0.000000 -0.043364 -0.000583 0.000000 -0.038673 -0.000615 0.000000 -0.041947 -0.000611 0.000000 -0.037278 -0.000746 0.000000 -0.040300 -0.000807 0.000000 -0.035524 -0.001042 0.000000 -0.038093 -0.001165 0.000000 -0.033086 -0.001493 0.000000 -0.035014 -0.001670 0.000000 -0.029669 -0.002077 0.000000 -0.030796 -0.002297 0.000000 -0.025025 -0.002768 0.000000 -0.025222 -0.003017 0.000000 -0.018967 -0.003532 0.000000 -0.018142 -0.003794 0.000000 -0.011376 -0.004333 0.000000 -0.009479 -0.004591 0.000000 -0.002210 -0.005132 0.000000 
-0.001922 -0.010705 0.000000 0.005829 -0.011746 0.000000 0.009936 -0.012129 0.000000 0.018096 -0.013092 0.000000 0.023185 -0.013363 0.000000 0.031640 -0.014208 0.000000 0.037591 -0.014338 0.000000 0.046196 -0.015032 0.000000 0.052853 -0.014994 0.000000 0.061437 -0.015507 0.000000 0.068616 -0.015280 0.000000 0.076986 -0.015591 0.000000 0.084481 -0.015160 0.000000 0.092429 -0.015255 0.000000 0.100019 -0.014614 0.000000 0.107332 -0.014486 0.000000 0.114791 -0.013635 0.000000 0.121254 -0.013288 0.000000 0.128359 -0.012237 0.000000 0.133768 -0.011683 0.000000 0.140309 -0.010448 0.000000 0.144477 -0.009709 0.000000 0.150266 -0.008316 0.000000 0.153031 -0.007419 0.000000 0.157907 -0.005898 0.000000 0.159140 -0.004878 0.000000 0.162980 -0.003267 0.000000 0.162587 -0.002162 0.000000 0.165305 -0.000500 0.000000 0.163236 0.000649 0.000000 0.164789 0.002320 0.000000 0.161034 0.003473 0.000000 0.161418 0.005113 0.000000 0.156009 0.006231 0.000000 0.155262 0.007801 0.000000 0.148270 0.008851 0.000000 0.146460 0.010315 0.000000 0.137994 0.011270 0.000000 0.135221 0.012597 0.000000 0.125418 0.013434 0.000000 0.121801 0.014600 0.000000 0.110825 0.015303 0.000000 0.106502 0.016287 0.000000 0.094537 0.016848 0.000000 0.089650 0.017636 0.000000 0.076894 0.018052 0.000000 0.071591 0.018633 0.000000 0.058253 0.018905 0.000000 0.052679 0.019273 0.000000 0.038973 0.019408 0.000000 0.033267 0.019561 0.000000 0.019409 0.019566 0.000000 0.013700 0.019504 0.000000 -0.000093 0.019389 0.000000 -0.005684 0.019115 0.000000 -0.019200 0.018891 0.000000 -0.024565 0.018408 0.000000 -0.037594 0.018086 0.000000 -0.042633 0.017404 0.000000 -0.054977 0.016992 0.000000 -0.059603 0.016121 0.000000 -0.071070 0.015631 0.000000 -0.075205 0.014584 0.000000 -0.085620 0.014027 0.000000 -0.089197 0.012820 0.000000 -0.098398 0.012208 0.000000 -0.101363 0.010863 0.000000 -0.109213 0.010209 0.000000 -0.111523 0.008750 0.000000 -0.117907 0.008070 0.000000 -0.119538 0.006528 0.000000 -0.124374 0.005839 0.000000 -0.125316 0.004249 0.000000 -0.128556 0.003573 0.000000 -0.128822 0.001972 0.000000 -0.130456 0.001331 0.000000 -0.130083 -0.000238 0.000000 -0.130144 -0.000819 0.000000 -0.129194 -0.002316 0.000000 -0.127757 -0.002810 0.000000 -0.126318 -0.004194 0.000000 -0.123498 -0.004576 0.000000 -0.121684 -0.005810 0.000000 -0.117636 -0.006058 0.000000 -0.115583 -0.007109 0.000000 -0.110495 -0.007207 0.000000 -0.108356 -0.008051 0.000000 -0.102439 -0.007987 0.000000 -0.100378 -0.008611 0.000000 -0.093859 -0.008385 0.000000 -0.092041 -0.008785 0.000000 -0.085146 -0.008405 0.000000 -0.083727 -0.008590 0.000000 -0.076675 -0.008076 0.000000 -0.075790 -0.008068 0.000000 -0.068778 -0.007448 0.000000 -0.068533 -0.007277 0.000000 -0.061724 -0.006590 0.000000 -0.062184 -0.006295 0.000000 -0.055701 -0.005586 0.000000 -0.056887 -0.005211 0.000000 -0.050806 -0.004527 0.000000 -0.052689 -0.004119 0.000000 -0.047038 -0.003507 0.000000 -0.049541 -0.003111 0.000000 -0.044303 -0.002617 0.000000 -0.047302 -0.002274 0.000000 -0.042417 -0.001934 0.000000 -0.045751 -0.001676 0.000000 -0.041126 -0.001520 0.000000 -0.044607 -0.001373 0.000000 -0.040123 -0.001417 0.000000 -0.043543 -0.001395 0.000000 -0.039070 -0.001647 0.000000 -0.042216 -0.001754 0.000000 -0.037618 -0.002208 0.000000 -0.040286 -0.002438 0.000000 -0.035434 -0.003078 0.000000 -0.037434 -0.003417 0.000000 -0.032217 -0.004218 0.000000 -0.033386 -0.004644 0.000000 -0.027714 -0.005574 0.000000 -0.027924 -0.006058 0.000000 -0.021737 -0.007080 0.000000 -0.020896 -0.007591 0.000000 -0.014168 -0.008663 0.000000 -0.012227 -0.009166 0.000000 -0.004965 -0.010244 0.000000 
-0.000739 -0.016162 0.000000 0.007070 -0.017747 0.000000 0.011164 -0.018353 0.000000 0.019389 -0.019816 0.000000 0.024484 -0.020251 0.000000 0.033011 -0.021535 0.000000 0.038986 -0.021754 0.000000 0.047668 -0.022806 0.000000 0.054366 -0.022769 0.000000 0.063031 -0.023546 0.000000 0.070264 -0.023222 0.000000 0.078717 -0.023692 0.000000 0.086275 -0.023058 0.000000 0.094304 -0.023200 0.000000 0.101963 -0.022246 0.000000 0.109350 -0.022050 0.000000 0.116877 -0.020778 0.000000 0.123405 -0.020251 0.000000 0.130573 -0.018674 0.000000 0.136032 -0.017833 0.000000 0.142625 -0.015978 0.000000 0.146825 -0.014856 0.000000 0.152650 -0.012759 0.000000 0.155425 -0.011400 0.000000 0.160319 -0.009110 0.000000 0.161537 -0.007565 0.000000 0.165373 -0.005137 0.000000 0.164939 -0.003465 0.000000 0.167629 -0.000960 0.000000 0.165492 0.000778 0.000000 0.166994 0.003297 0.000000 0.163144 0.005040 0.000000 0.163455 0.007511 0.000000 0.157927 0.009201 0.000000 0.157086 0.011565 0.000000 0.149953 0.013152 0.000000 0.148033 0.015356 0.000000 0.139405 0.016796 0.000000 0.136509 0.018795 0.000000 0.126528 0.020056 0.000000 0.122780 0.021810 0.000000 0.111613 0.022869 0.000000 0.107153 0.024349 0.000000 0.094987 0.025192 0.000000 0.089963 0.026376 0.000000 0.076999 0.027000 0.000000 0.071561 0.027872 0.000000 0.058010 0.028280 0.000000 0.052304 0.028832 0.000000 0.038383 0.029033 0.000000 0.032550 0.029260 0.000000 0.018476 0.029266 0.000000 0.012648 0.029170 0.000000 -0.001360 0.028996 0.000000 -0.007063 0.028581 0.000000 -0.020792 0.028244 0.000000 -0.026261 0.027517 0.000000 -0.039499 0.027032 0.000000 -0.044635 0.026005 0.000000 -0.057181 0.025388 0.000000 -0.061895 0.024077 0.000000 -0.073557 0.023343 0.000000 -0.077770 0.021768 0.000000 -0.088367 0.020935 0.000000 -0.092012 0.019120 0.000000 -0.101381 0.018205 0.000000 -0.104400 0.016183 0.000000 -0.112398 0.015206 0.000000 -0.114748 0.013016 0.000000 -0.121258 0.012000 0.000000 -0.122909 0.009686 0.000000 -0.127843 0.008659 0.000000 -0.128785 0.006274 0.000000 -0.132090 0.005267 0.000000 -0.132332 0.002868 0.000000 -0.133997 0.001916 0.000000 -0.133572 -0.000434 0.000000 -0.133626 -0.001293 0.000000 -0.132595 -0.003531 0.000000 -0.131110 -0.004258 0.000000 -0.129560 -0.006322 0.000000 -0.126654 -0.006880 0.000000 -0.124700 -0.008713 0.000000 -0.120528 -0.009068 0.000000 -0.118308 -0.010623 0.000000 -0.113061 -0.010749 0.000000 -0.110734 -0.011989 0.000000 -0.104629 -0.011871 0.000000 -0.102363 -0.012775 0.000000 -0.095632 -0.012413 0.000000 -0.093601 -0.012978 0.000000 -0.086479 -0.012385 0.000000 -0.084846 -0.012626 0.000000 -0.077560 -0.011831 0.000000 -0.076471 -0.011780 0.000000 -0.069224 -0.010830 0.000000 -0.068792 -0.010536 0.000000 -0.061756 -0.009488 0.000000 -0.062055 -0.009011 0.000000 -0.055358 -0.007934 0.000000 -0.056414 -0.007342 0.000000 -0.050139 -0.006309 0.000000 -0.051927 -0.005674 0.000000 -0.046104 -0.004756 0.000000 -0.048548 -0.004147 0.000000 -0.043162 -0.003411 0.000000 -0.046138 -0.002890 0.000000 -0.041129 -0.002394 0.000000 -0.044474 -0.002010 0.000000 -0.039746 -0.001795 0.000000 -0.043265 -0.001586 0.000000 -0.038699 -0.001679 0.000000 -0.042180 -0.001665 0.000000 -0.037639 -0.002073 0.000000 -0.040864 -0.002259 0.000000 -0.036210 -0.002973 0.000000 -0.038965 -0.003349 0.000000 -0.034067 -0.004344 0.000000 -0.036157 -0.004887 0.000000 -0.030898 -0.006125 0.000000 -0.032154 -0.006800 0.000000 -0.026442 -0.008230 0.000000 -0.026730 -0.008994 0.000000 -0.020502 -0.010560 0.000000 -0.019726 -0.011364 0.000000 -0.012953 -0.013002 0.000000 -0.011063 -0.013793 0.000000 -0.003750 -0.015437 0.000000 
-0.004234 -0.021525 0.000000 0.003637 -0.023649 0.000000 0.007865 -0.024448 0.000000 0.016196 -0.026412 0.000000 0.021465 -0.026985 0.000000 0.030136 -0.028710 0.000000 0.036318 -0.028996 0.000000 0.045179 -0.030412 0.000000 0.052111 -0.030356 0.000000 0.060982 -0.031405 0.000000 0.068469 -0.030965 0.000000 0.077148 -0.031602 0.000000 0.084971 -0.030748 0.000000 0.093240 -0.030942 0.000000 0.101167 -0.029659 0.000000 0.108798 -0.029400 0.000000 0.116589 -0.027690 0.000000 0.123357 -0.026984 0.000000 0.130775 -0.024864 0.000000 0.136463 -0.023736 0.000000 0.143285 -0.021241 0.000000 0.147694 -0.019734 0.000000 0.153721 -0.016916 0.000000 0.156679 -0.015088 0.000000 0.161741 -0.012010 0.000000 0.163111 -0.009931 0.000000 0.167078 -0.006669 0.000000 0.166763 -0.004419 0.000000 0.169547 -0.001053 0.000000 0.167492 0.001285 0.000000 0.169050 0.004668 0.000000 0.165247 0.007011 0.000000 0.165578 0.010330 0.000000 0.160063 0.012601 0.000000 0.159211 0.015775 0.000000 0.152060 0.017904 0.000000 0.150104 0.020863 0.000000 0.141432 0.022794 0.000000 0.138478 0.025474 0.000000 0.128431 0.027162 0.000000 0.124612 0.029515 0.000000 0.113362 0.030930 0.000000 0.108823 0.032913 0.000000 0.096561 0.034038 0.000000 0.091455 0.035624 0.000000 0.078387 0.036454 0.000000 0.072868 0.037622 0.000000 0.059209 0.038162 0.000000 0.053428 0.038900 0.000000 0.039397 0.039162 0.000000 0.033495 0.039467 0.000000 0.019314 0.039468 0.000000 0.013425 0.039341 0.000000 -0.000688 0.039101 0.000000 -0.006444 0.038546 0.000000 -0.020270 0.038088 0.000000 -0.025783 0.037116 0.000000 -0.039113 0.036460 0.000000 -0.044285 0.035086 0.000000 -0.056913 0.034252 0.000000 -0.061655 0.032496 0.000000 -0.073387 0.031506 0.000000 -0.077622 0.029394 0.000000 -0.088275 0.028269 0.000000 -0.091935 0.025834 0.000000 -0.101343 0.024597 0.000000 -0.104370 0.021880 0.000000 -0.112388 0.020557 0.000000 -0.114738 0.017610 0.000000 -0.121245 0.016231 0.000000 -0.122887 0.013113 0.000000 -0.127794 0.011715 0.000000 -0.128716 0.008497 0.000000 -0.131969 0.007120 0.000000 -0.132181 0.003879 0.000000 -0.133767 0.002572 0.000000 -0.133301 -0.000609 0.000000 -0.133250 -0.001796 0.000000 -0.132169 -0.004832 0.000000 -0.130557 -0.005844 0.000000 -0.128949 -0.008650 0.000000 -0.125898 -0.009437 0.000000 -0.123881 -0.011936 0.000000 -0.119555 -0.012450 0.000000 -0.117273 -0.014576 0.000000 -0.111871 -0.014781 0.000000 -0.109488 -0.016483 0.000000 -0.103236 -0.016358 0.000000 -0.100930 -0.017608 0.000000 -0.094071 -0.017147 0.000000 -0.092022 -0.017938 0.000000 -0.084803 -0.017159 0.000000 -0.083182 -0.017509 0.000000 -0.075839 -0.016452 0.000000 -0.074798 -0.016404 0.000000 -0.067542 -0.015127 0.000000 -0.067199 -0.014745 0.000000 -0.060207 -0.013328 0.000000 -0.060637 -0.012693 0.000000 -0.054040 -0.011226 0.000000 -0.055269 -0.010430 0.000000 -0.049144 -0.009014 0.000000 -0.051143 -0.008153 0.000000 -0.045518 -0.006886 0.000000 -0.048202 -0.006054 0.000000 -0.043052 -0.005027 0.000000 -0.046290 -0.004307 0.000000 -0.041543 -0.003598 0.000000 -0.045158 -0.003059 0.000000 -0.040707 -0.002728 0.000000 -0.044495 -0.002420 0.000000 -0.040206 -0.002503 0.000000 -0.043941 -0.002455 0.000000 -0.039668 -0.002963 0.000000 -0.043121 -0.003183 0.000000 -0.038712 -0.004106 0.000000 -0.041661 -0.004581 0.000000 -0.036976 -0.005886 0.000000 -0.039218 -0.006586 0.000000 -0.034133 -0.008221 0.000000 -0.035495 -0.009099 0.000000 -0.029912 -0.010998 0.000000 -0.030256 -0.011999 0.000000 -0.024109 -0.014083 0.000000 -0.023340 -0.015140 0.000000 -0.016599 -0.017326 0.000000 -0.014665 -0.018369 0.000000 -0.007337 -0.020568 0.000000 
-0.003822 -0.027135 0.000000 0.004144 -0.029847 0.000000 0.008398 -0.030912 0.000000 0.016849 -0.033416 0.000000 0.022183 -0.034192 0.000000 0.030997 -0.036388 0.000000 0.037282 -0.036797 0.000000 0.046305 -0.038598 0.000000 0.053371 -0.038571 0.000000 0.062420 -0.039904 0.000000 0.070066 -0.039387 0.000000 0.078932 -0.040195 0.000000 0.086932 -0.039150 0.000000 0.095390 -0.039395 0.000000 0.103502 -0.037805 0.000000 0.111317 -0.037473 0.000000 0.119292 -0.035337 0.000000 0.126229 -0.034437 0.000000 0.133819 -0.031779 0.000000 0.139652 -0.030343 0.000000 0.146625 -0.027209 0.000000 0.151148 -0.025292 0.000000 0.157295 -0.021744 0.000000 0.160329 -0.019420 0.000000 0.165474 -0.015543 0.000000 0.166876 -0.012902 0.000000 0.170883 -0.008789 0.000000 0.170553 -0.005933 0.000000 0.173331 -0.001690 0.000000 0.171212 0.001275 0.000000 0.172719 0.005542 0.000000 0.168804 0.008511 0.000000 0.169043 0.012694 0.000000 0.163370 0.015568 0.000000 0.162388 0.019568 0.000000 0.155039 0.022259 0.000000 0.152920 0.025985 0.000000 0.144015 0.028422 0.000000 0.140875 0.031795 0.000000 0.130566 0.033922 0.000000 0.126544 0.036879 0.000000 0.115009 0.038658 0.000000 0.110258 0.041150 0.000000 0.097694 0.042560 0.000000 0.092374 0.044550 0.000000 0.078993 0.045587 0.000000 0.073263 0.047050 0.000000 0.059283 0.047721 0.000000 0.053299 0.048644 0.000000 0.038943 0.048965 0.000000 0.032850 0.049343 0.000000 0.018343 0.049337 0.000000 0.012273 0.049172 0.000000 -0.002163 0.048865 0.000000 -0.008085 0.048164 0.000000 -0.022231 0.047583 0.000000 -0.027898 0.046360 0.000000 -0.041539 0.045533 0.000000 -0.046852 0.043805 0.000000 -0.059781 0.042758 0.000000 -0.064651 0.040551 0.000000 -0.076669 0.039310 0.000000 -0.081018 0.036656 0.000000 -0.091938 0.035247 0.000000 -0.095695 0.032188 0.000000 -0.105345 0.030640 0.000000 -0.108451 0.027228 0.000000 -0.116679 0.025574 0.000000 -0.119086 0.021873 0.000000 -0.125765 0.020149 0.000000 -0.127437 0.016235 0.000000 -0.132471 0.014488 0.000000 -0.133391 0.010449 0.000000 -0.136720 0.008731 0.000000 -0.136892 0.004666 0.000000 -0.138497 0.003036 0.000000 -0.137952 -0.000950 0.000000 -0.137860 -0.002426 0.000000 -0.136655 -0.006224 0.000000 -0.134941 -0.007478 0.000000 -0.133166 -0.010981 0.000000 -0.129952 -0.011947 0.000000 -0.127726 -0.015057 0.000000 -0.123181 -0.015676 0.000000 -0.120652 -0.018307 0.000000 -0.114982 -0.018534 0.000000 -0.112324 -0.020623 0.000000 -0.105766 -0.020430 0.000000 -0.103165 -0.021940 0.000000 -0.095975 -0.021321 0.000000 -0.093626 -0.022246 0.000000 -0.086063 -0.021225 0.000000 -0.084151 -0.021590 0.000000 -0.076467 -0.020216 0.000000 -0.075158 -0.020077 0.000000 -0.067577 -0.018429 0.000000 -0.067004 -0.017871 0.000000 -0.059715 -0.016050 0.000000 -0.059964 -0.015179 0.000000 -0.053106 -0.013303 0.000000 -0.054211 -0.012238 0.000000 -0.047871 -0.010435 0.000000 -0.049807 -0.009300 0.000000 -0.044014 -0.007696 0.000000 -0.046697 -0.006613 0.000000 -0.041423 -0.005324 0.000000 -0.044717 -0.004399 0.000000 -0.039889 -0.003525 0.000000 -0.043611 -0.002846 0.000000 -0.039114 -0.002459 0.000000 -0.043046 -0.002087 0.000000 -0.038739 -0.002232 0.000000 -0.042646 -0.002203 0.000000 -0.038373 -0.002893 0.000000 -0.042012 -0.003214 0.000000 -0.037613 -0.004433 0.000000 -0.040750 -0.005085 0.000000 -0.036076 -0.006787 0.000000 -0.038496 -0.007730 0.000000 -0.033416 -0.009848 0.000000 -0.034935 -0.011021 0.000000 -0.029345 -0.013469 0.000000 -0.029818 -0.014797 0.000000 -0.023647 -0.017476 0.000000 -0.022972 -0.018875 0.000000 -0.016185 -0.021676 0.000000 -0.014307 -0.023055 0.000000 -0.006909 -0.025868 0.000000 
-0.008217 -0.032577 0.000000 -0.000143 -0.035869 0.000000 0.004293 -0.037152 0.000000 0.012913 -0.040196 0.000000 0.018489 -0.041133 0.000000 0.027528 -0.043809 0.000000 0.034105 -0.044304 0.000000 0.043402 -0.046501 0.000000 0.050802 -0.046471 0.000000 0.060164 -0.048100 0.000000 0.068176 -0.047477 0.000000 0.077382 -0.048468 0.000000 0.085768 -0.047206 0.000000 0.094583 -0.047512 0.000000 0.103087 -0.045587 0.000000 0.111264 -0.045190 0.000000 0.119622 -0.042601 0.000000 0.126912 -0.041511 0.000000 0.134866 -0.038287 0.000000 0.141031 -0.036542 0.000000 0.148335 -0.032737 0.000000 0.153156 -0.030404 0.000000 0.159590 -0.026097 0.000000 0.162879 -0.023267 0.000000 0.168257 -0.018557 0.000000 0.169863 -0.015340 0.000000 0.174045 -0.010345 0.000000 0.173861 -0.006867 0.000000 0.176754 -0.001713 0.000000 0.174722 0.001897 0.000000 0.176283 0.007076 0.000000 0.172397 0.010688 0.000000 0.172634 0.015764 0.000000 0.166935 0.019256 0.000000 0.165900 0.024106 0.000000 0.158476 0.027372 0.000000 0.156264 0.031887 0.000000 0.147240 0.034838 0.000000 0.143976 0.038923 0.000000 0.133513 0.041493 0.000000 0.129345 0.045072 0.000000 0.117629 0.047216 0.000000 0.112721 0.050228 0.000000 0.099957 0.051922 0.000000 0.094476 0.054325 0.000000 0.080882 0.055565 0.000000 0.074996 0.057331 0.000000 0.060797 0.058126 0.000000 0.054664 0.059240 0.000000 0.040088 0.059612 0.000000 0.033859 0.060068 0.000000 0.019133 0.060045 0.000000 0.012943 0.059846 0.000000 -0.001706 0.059460 0.000000 -0.007736 0.058615 0.000000 -0.022086 0.057901 0.000000 -0.027846 0.056424 0.000000 -0.041680 0.055413 0.000000 -0.047072 0.053327 0.000000 -0.060179 0.052051 0.000000 -0.065116 0.049384 0.000000 -0.077295 0.047873 0.000000 -0.081698 0.044663 0.000000 -0.092756 0.042946 0.000000 -0.096555 0.039241 0.000000 -0.106317 0.037353 0.000000 -0.109451 0.033214 0.000000 -0.117758 0.031191 0.000000 -0.120176 0.026695 0.000000 -0.126896 0.024582 0.000000 -0.128562 0.019819 0.000000 -0.133594 0.017669 0.000000 -0.134488 0.012746 0.000000 -0.137768 0.010621 0.000000 -0.137891 0.005657 0.000000 -0.139398 0.003631 0.000000 -0.138779 -0.001247 0.000000 -0.138540 -0.003093 0.000000 -0.137237 -0.007751 0.000000 -0.135330 -0.009334 0.000000 -0.133435 -0.013639 0.000000 -0.129990 -0.014877 0.000000 -0.127627 -0.018707 0.000000 -0.122822 -0.019524 0.000000 -0.120148 -0.022774 0.000000 -0.114203 -0.023110 0.000000 -0.111400 -0.025700 0.000000 -0.104569 -0.025516 0.000000 -0.101838 -0.027398 0.000000 -0.094394 -0.026687 0.000000 -0.091942 -0.027849 0.000000 -0.084162 -0.026634 0.000000 -0.082189 -0.027105 0.000000 -0.074342 -0.025445 0.000000 -0.073027 -0.025293 0.000000 -0.065351 -0.023281 0.000000 -0.064835 -0.022607 0.000000 -0.057529 -0.020368 0.000000 -0.057904 -0.019301 0.000000 -0.051112 -0.016979 0.000000 -0.052413 -0.015665 0.000000 -0.046219 -0.013418 0.000000 -0.048416 -0.012011 0.000000 -0.042842 -0.009996 0.000000 -0.045842 -0.008644 0.000000 -0.040849 -0.007006 0.000000 -0.044500 -0.005841 0.000000 -0.039999 -0.004705 0.000000 -0.044101 -0.003835 0.000000 -0.039958 -0.003292 0.000000 -0.044276 -0.002795 0.000000 -0.040330 -0.002902 0.000000 -0.044610 -0.002821 0.000000 -0.040686 -0.003598 0.000000 -0.044667 -0.003943 0.000000 -0.040589 -0.005368 0.000000 -0.044022 -0.006119 0.000000 -0.039626 -0.008140 0.000000 -0.042284 -0.009246 0.000000 -0.037429 -0.011782 0.000000 -0.039120 -0.013170 0.000000 -0.033693 -0.016115 0.000000 -0.034267 -0.017697 0.000000 -0.028192 -0.020930 0.000000 -0.027544 -0.022602 0.000000 -0.020784 -0.025991 0.000000 -0.018860 -0.027645 0.000000 -0.011420 -0.031053 0.000000 
-0.008642 -0.038412 0.000000 -0.000435 -0.042357 0.000000 0.004067 -0.043968 0.000000 0.012863 -0.047611 0.000000 0.018567 -0.048807 0.000000 0.027823 -0.052005 0.000000 0.034585 -0.052671 0.000000 0.044134 -0.055296 0.000000 0.051768 -0.055333 0.000000 0.061410 -0.057277 0.000000 0.069694 -0.056606 0.000000 0.079200 -0.057787 0.000000 0.087885 -0.056351 0.000000 0.097006 -0.056714 0.000000 0.105822 -0.054485 0.000000 0.114300 -0.054008 0.000000 0.122967 -0.050986 0.000000 0.130540 -0.049681 0.000000 0.138784 -0.045898 0.000000 0.145200 -0.043812 0.000000 0.152760 -0.039334 0.000000 0.157787 -0.036547 0.000000 0.164430 -0.031467 0.000000 0.167867 -0.028088 0.000000 0.173398 -0.022527 0.000000 0.175086 -0.018690 0.000000 0.179355 -0.012787 0.000000 0.179183 -0.008642 0.000000 0.182092 -0.002551 0.000000 0.180000 0.001746 0.000000 0.181508 0.007867 0.000000 0.177490 0.012160 0.000000 0.177609 0.018157 0.000000 0.171711 0.022301 0.000000 0.170502 0.028027 0.000000 0.162818 0.031896 0.000000 0.160383 0.037221 0.000000 0.151049 0.040710 0.000000 0.147527 0.045522 0.000000 0.136711 0.048552 0.000000 0.132263 0.052763 0.000000 0.120161 0.055282 0.000000 0.114960 0.058822 0.000000 0.101787 0.060805 0.000000 0.096011 0.063625 0.000000 0.081992 0.065067 0.000000 0.075817 0.067136 0.000000 0.061184 0.068052 0.000000 0.054776 0.069353 0.000000 0.039761 0.069771 0.000000 0.033272 0.070298 0.000000 0.018109 0.070253 0.000000 0.011677 0.070011 0.000000 -0.003406 0.069543 0.000000 -0.009658 0.068544 0.000000 -0.024436 0.067693 0.000000 -0.030400 0.065954 0.000000 -0.044651 0.064759 0.000000 -0.050230 0.062305 0.000000 -0.063740 0.060802 0.000000 -0.068846 0.057666 0.000000 -0.081407 0.055892 0.000000 -0.085961 0.052117 0.000000 -0.097376 0.050105 0.000000 -0.101306 0.045749 0.000000 -0.111389 0.043536 0.000000 -0.114630 0.038669 0.000000 -0.123216 0.036299 0.000000 -0.125713 0.031011 0.000000 -0.132659 0.028535 0.000000 -0.134368 0.022933 0.000000 -0.139562 0.020414 0.000000 -0.140457 0.014623 0.000000 -0.143827 0.012134 0.000000 -0.143901 0.006296 0.000000 -0.145419 0.003924 0.000000 -0.144696 -0.001808 0.000000 -0.144383 -0.003967 0.000000 -0.142916 -0.009433 0.000000 -0.140849 -0.011280 0.000000 -0.138729 -0.016321 0.000000 -0.135040 -0.017755 0.000000 -0.132394 -0.022225 0.000000 -0.127268 -0.023156 0.000000 -0.124259 -0.026926 0.000000 -0.117928 -0.027282 0.000000 -0.114751 -0.030258 0.000000 -0.107485 -0.029992 0.000000 -0.104356 -0.032116 0.000000 -0.096446 -0.031218 0.000000 -0.093593 -0.032478 0.000000 -0.085339 -0.030977 0.000000 -0.082982 -0.031410 0.000000 -0.074673 -0.029379 0.000000 -0.073013 -0.029068 0.000000 -0.064910 -0.026621 0.000000 -0.064108 -0.025694 0.000000 -0.056425 -0.022981 0.000000 -0.056592 -0.021595 0.000000 -0.049487 -0.018794 0.000000 -0.050666 -0.017130 0.000000 -0.044232 -0.014431 0.000000 -0.046400 -0.012677 0.000000 -0.040660 -0.010270 0.000000 -0.043721 -0.008605 0.000000 -0.038634 -0.006666 0.000000 -0.042428 -0.005250 0.000000 -0.037894 -0.003924 0.000000 -0.042209 -0.002887 0.000000 -0.038084 -0.002283 0.000000 -0.042666 -0.001715 0.000000 -0.038775 -0.001899 0.000000 -0.043350 -0.001848 0.000000 -0.039503 -0.002836 0.000000 -0.043791 -0.003311 0.000000 -0.039797 -0.005078 0.000000 -0.043529 -0.006048 0.000000 -0.039210 -0.008525 0.000000 -0.042144 -0.009927 0.000000 -0.037346 -0.013012 0.000000 -0.039274 -0.014757 0.000000 -0.033877 -0.018323 0.000000 -0.034638 -0.020298 0.000000 -0.028557 -0.024199 0.000000 -0.028038 -0.026282 0.000000 -0.021233 -0.030360 0.000000 -0.019374 -0.032419 0.000000 -0.011845 -0.036511 0.000000 