# vtk DataFile Version 2.0
Comment goes here
ASCII

DATASET STRUCTURED_POINTS
FIELD FieldData 1
TIME 1 1 double
0.03500000
DIMENSIONS    128   128   1

ORIGIN    0.000   0.000   0.000
SPACING   0.039062 0.039062   1.000

POINT_DATA   16384
VECTORS u double

0.801203 0.000000 0.000000 0.828028 0.000000 0.000000 0.851471 0.000000 0.000000 0.875380 0.000000 0.000000 0.896323 0.000000 0.000000 0.917167 0.000000 0.000000 0.935471 0.000000 0.000000 0.953075 0.000000 0.000000 0.968576 0.000000 0.000000 0.982739 0.000000 0.000000 0.995251 0.000000 0.000000 1.005754 0.000000 0.000000 1.015070 0.000000 0.000000 1.021682 0.000000 0.000000 1.027586 0.000000 0.000000 1.030071 0.000000 0.000000 1.032341 0.000000 0.000000 1.030471 0.000000 0.000000 1.028894 0.000000 0.000000 1.022457 0.000000 0.000000 1.016835 0.000000 0.000000 1.005650 0.000000 0.000000 0.995811 0.000000 0.000000 0.979736 0.000000 0.000000 0.965542 0.000000 0.000000 0.944488 0.000000 0.000000 0.925847 0.000000 0.000000 0.899782 0.000000 0.000000 0.876651 0.000000 0.000000 0.845612 0.000000 0.000000 0.818006 0.000000 0.000000 0.782100 0.000000 0.000000 0.750092 0.000000 0.000000 0.709500 0.000000 0.000000 0.673227 0.000000 0.000000 0.628203 0.000000 0.000000 0.587863 0.000000 0.000000 0.538734 0.000000 0.000000 0.494588 0.000000 0.000000 0.441747 0.000000 0.000000 0.394121 0.000000 0.000000 0.338027 0.000000 0.000000 0.287307 0.000000 0.000000 0.228479 0.000000 0.000000 0.175111 0.000000 0.000000 0.114125 0.000000 0.000000 0.058618 0.000000 0.000000 -0.003899 0.000000 0.000000 -0.060978 0.000000 0.000000 -0.124346 0.000000 0.000000 -0.182370 0.000000 0.000000 -0.245867 0.000000 0.000000 -0.304154 0.000000 0.000000 -0.367015 0.000000 0.000000 -0.424830 0.000000 0.000000 -0.486256 0.000000 0.000000 -0.542820 0.000000 0.000000 -0.601985 0.000000 0.000000 -0.656484 0.000000 0.000000 -0.712549 0.000000 0.000000 -0.764149 0.000000 0.000000 -0.816272 0.000000 0.000000 -0.864137 0.000000 0.000000 -0.911494 0.000000 0.000000 -0.954808 0.000000 0.000000 -0.996615 0.000000 0.000000 -1.034606 0.000000 0.000000 -1.070141 0.000000 0.000000 -1.102107 0.000000 0.000000 -1.130735 0.000000 0.000000 -1.156073 0.000000 0.000000 -1.177271 0.000000 0.000000 -1.195501 0.000000 0.000000 -1.208883 0.000000 0.000000 -1.219669 0.000000 0.000000 -1.225002 0.000000 0.000000 -1.228172 0.000000 0.000000 -1.225391 0.000000 0.000000 -1.220948 0.000000 0.000000 -1.210166 0.000000 0.000000 -1.198286 0.000000 0.000000 -1.179789 0.000000 0.000000 -1.160821 0.000000 0.000000 -1.135063 0.000000 0.000000 -1.109510 0.000000 0.000000 -1.077092 0.000000 0.000000 -1.045592 0.000000 0.000000 -1.007238 0.000000 0.000000 -0.970536 0.000000 0.000000 -0.927064 0.000000 0.000000 -0.885974 0.000000 0.000000 -0.838259 0.000000 0.000000 -0.793636 0.000000 0.000000 -0.742578 0.000000 0.000000 -0.695279 0.000000 0.000000 -0.641767 0.000000 0.000000 -0.592620 0.000000 0.000000 -0.537504 0.000000 0.000000 -0.487284 0.000000 0.000000 -0.431348 0.000000 0.000000 -0.380755 0.000000 0.000000 -0.324702 0.000000 0.000000 -0.274347 0.000000 0.000000 -0.218787 0.000000 0.000000 -0.169184 0.000000 0.000000 -0.114630 0.000000 0.000000 -0.066200 0.000000 0.000000 -0.013069 0.000000 0.000000 0.033861 0.000000 0.000000 0.085242 0.000000 0.000000 0.130426 0.000000 0.000000 0.179808 0.000000 0.000000 0.223074 0.000000 0.000000 0.270275 0.000000 0.000000 0.311506 0.000000 0.000000 0.356396 0.000000 0.000000 0.395522 0.000000 0.000000 0.438012 0.000000 0.000000 0.474989 0.000000 0.000000 0.515015 0.000000 0.000000 0.549820 0.000000 0.000000 0.587329 0.000000 0.000000 0.619943 0.000000 0.000000 0.654886 0.000000 0.000000 0.685284 0.000000 0.000000 0.717602 0.000000 0.000000 0.745747 0.000000 0.000000 0.775367 0.000000 0.000000 
0.802892 -0.026330 0.000000 0.829658 -0.025134 0.000000 0.853099 -0.023676 0.000000 0.876947 -0.022426 0.000000 0.897892 -0.020893 0.000000 0.918673 -0.019574 0.000000 0.936985 -0.017954 0.000000 0.954522 -0.016553 0.000000 0.970036 -0.014832 0.000000 0.984130 -0.013337 0.000000 0.996657 -0.011507 0.000000 1.007088 -0.009910 0.000000 1.016423 -0.007964 0.000000 1.022958 -0.006258 0.000000 1.028883 -0.004194 0.000000 1.031287 -0.002378 0.000000 1.033581 -0.000200 0.000000 1.031624 0.001724 0.000000 1.030071 0.004007 0.000000 1.023542 0.006029 0.000000 1.017945 0.008404 0.000000 1.006661 0.010512 0.000000 0.996846 0.012957 0.000000 0.980667 0.015134 0.000000 0.966497 0.017624 0.000000 0.945333 0.019848 0.000000 0.926713 0.022353 0.000000 0.900535 0.024598 0.000000 0.877423 0.027085 0.000000 0.846266 0.029323 0.000000 0.818676 0.031756 0.000000 0.782650 0.033957 0.000000 0.750653 0.036300 0.000000 0.709939 0.038433 0.000000 0.673672 0.040649 0.000000 0.628525 0.042682 0.000000 0.588183 0.044735 0.000000 0.538930 0.046637 0.000000 0.494775 0.048493 0.000000 0.441810 0.050234 0.000000 0.394164 0.051860 0.000000 0.337947 0.053407 0.000000 0.287194 0.054774 0.000000 0.228243 0.056098 0.000000 0.174828 0.057177 0.000000 0.113720 0.058247 0.000000 0.058149 0.059012 0.000000 -0.004488 0.059798 0.000000 -0.061650 0.060223 0.000000 -0.125138 0.060696 0.000000 -0.183263 0.060760 0.000000 -0.246879 0.060892 0.000000 -0.305286 0.060574 0.000000 -0.368264 0.060338 0.000000 -0.426218 0.059621 0.000000 -0.487758 0.058995 0.000000 -0.544477 0.057865 0.000000 -0.603752 0.056832 0.000000 -0.658419 0.055282 0.000000 -0.714585 0.053832 0.000000 -0.766361 0.051861 0.000000 -0.818575 0.049994 0.000000 -0.866618 0.047611 0.000000 -0.914051 0.045336 0.000000 -0.957539 0.042561 0.000000 -0.999403 0.039899 0.000000 -1.037556 0.036763 0.000000 -1.073123 0.033751 0.000000 -1.105232 0.030297 0.000000 -1.133863 0.026983 0.000000 -1.159317 0.023268 0.000000 -1.180485 0.019714 0.000000 -1.198798 0.015806 0.000000 -1.212111 0.012084 0.000000 -1.222944 0.008059 0.000000 -1.228169 0.004252 0.000000 -1.231346 0.000195 0.000000 -1.228418 -0.003612 0.000000 -1.223940 -0.007613 0.000000 -1.212974 -0.011331 0.000000 -1.201020 -0.015188 0.000000 -1.182306 -0.018733 0.000000 -1.163229 -0.022363 0.000000 -1.137225 -0.025656 0.000000 -1.111535 -0.028986 0.000000 -1.078851 -0.031959 0.000000 -1.047192 -0.034927 0.000000 -1.008560 -0.037528 0.000000 -0.971685 -0.040087 0.000000 -0.927931 -0.042281 0.000000 -0.886664 -0.044402 0.000000 -0.838672 -0.046169 0.000000 -0.793873 -0.047840 0.000000 -0.742551 -0.049179 0.000000 -0.695085 -0.050406 0.000000 -0.641328 -0.051329 0.000000 -0.592030 -0.052132 0.000000 -0.536693 -0.052668 0.000000 -0.486340 -0.053078 0.000000 -0.430211 -0.053265 0.000000 -0.379506 -0.053323 0.000000 -0.323291 -0.053204 0.000000 -0.272845 -0.052958 0.000000 -0.217153 -0.052581 0.000000 -0.167482 -0.052078 0.000000 -0.112826 -0.051492 0.000000 -0.064347 -0.050781 0.000000 -0.011142 -0.050031 0.000000 0.035819 -0.049155 0.000000 0.087248 -0.048283 0.000000 0.132448 -0.047283 0.000000 0.181855 -0.046324 0.000000 0.225125 -0.045233 0.000000 0.272331 -0.044216 0.000000 0.313557 -0.043061 0.000000 0.358437 -0.042008 0.000000 0.397550 -0.040808 0.000000 0.440017 -0.039734 0.000000 0.476978 -0.038501 0.000000 0.516970 -0.037415 0.000000 0.551758 -0.036157 0.000000 0.589225 -0.035061 0.000000 0.621822 -0.033778 0.000000 0.656716 -0.032671 0.000000 0.687100 -0.031358 0.000000 0.719365 -0.030232 0.000000 0.747500 -0.028883 0.000000 0.777063 -0.027728 0.000000 
0.803796 -0.052595 0.000000 0.830682 -0.050208 0.000000 0.854180 -0.047289 0.000000 0.878164 -0.044793 0.000000 0.899175 -0.041726 0.000000 0.920107 -0.039092 0.000000 0.938493 -0.035849 0.000000 0.956196 -0.033051 0.000000 0.971792 -0.029608 0.000000 0.986064 -0.026622 0.000000 0.998679 -0.022958 0.000000 1.009298 -0.019766 0.000000 1.018723 -0.015870 0.000000 1.025452 -0.012460 0.000000 1.031466 -0.008329 0.000000 1.034065 -0.004697 0.000000 1.036443 -0.000337 0.000000 1.034678 0.003510 0.000000 1.033200 0.008082 0.000000 1.026854 0.012127 0.000000 1.021319 0.016881 0.000000 1.010204 0.021099 0.000000 1.000433 0.025994 0.000000 0.984403 0.030349 0.000000 0.970256 0.035334 0.000000 0.949217 0.039783 0.000000 0.930597 0.044798 0.000000 0.904514 0.049290 0.000000 0.881377 0.054268 0.000000 0.850284 0.058747 0.000000 0.822641 0.063617 0.000000 0.786644 0.068023 0.000000 0.754569 0.072711 0.000000 0.713850 0.076982 0.000000 0.677477 0.081415 0.000000 0.632290 0.085488 0.000000 0.591819 0.089595 0.000000 0.542492 0.093408 0.000000 0.498185 0.097120 0.000000 0.445114 0.100611 0.000000 0.397296 0.103863 0.000000 0.340941 0.106971 0.000000 0.289998 0.109704 0.000000 0.230881 0.112366 0.000000 0.177260 0.114523 0.000000 0.115959 0.116679 0.000000 0.060168 0.118208 0.000000 -0.002687 0.119798 0.000000 -0.060079 0.120649 0.000000 -0.123809 0.121614 0.000000 -0.182175 0.121741 0.000000 -0.246054 0.122023 0.000000 -0.304708 0.121385 0.000000 -0.367969 0.120932 0.000000 -0.426174 0.119494 0.000000 -0.488013 0.118259 0.000000 -0.544983 0.115994 0.000000 -0.604569 0.113942 0.000000 -0.659485 0.110833 0.000000 -0.715970 0.107942 0.000000 -0.767989 0.103990 0.000000 -0.820523 0.100257 0.000000 -0.868796 0.095477 0.000000 -0.916545 0.090921 0.000000 -0.960246 0.085352 0.000000 -1.002413 0.080017 0.000000 -1.040755 0.073720 0.000000 -1.076607 0.067676 0.000000 -1.108875 0.060740 0.000000 -1.137764 0.054085 0.000000 -1.163343 0.046622 0.000000 -1.184734 0.039481 0.000000 -1.203132 0.031627 0.000000 -1.216630 0.024146 0.000000 -1.227502 0.016058 0.000000 -1.232866 0.008402 0.000000 -1.236037 0.000249 0.000000 -1.233200 -0.007406 0.000000 -1.228668 -0.015444 0.000000 -1.217742 -0.022920 0.000000 -1.205688 -0.030668 0.000000 -1.186965 -0.037791 0.000000 -1.167745 -0.045081 0.000000 -1.141686 -0.051694 0.000000 -1.115814 -0.058375 0.000000 -1.083033 -0.064343 0.000000 -1.051162 -0.070291 0.000000 -1.012400 -0.075507 0.000000 -0.975289 -0.080629 0.000000 -0.931379 -0.085022 0.000000 -0.889862 -0.089259 0.000000 -0.841698 -0.092790 0.000000 -0.796646 -0.096121 0.000000 -0.745144 -0.098788 0.000000 -0.697430 -0.101223 0.000000 -0.643493 -0.103055 0.000000 -0.593959 -0.104636 0.000000 -0.538450 -0.105690 0.000000 -0.487880 -0.106481 0.000000 -0.431593 -0.106834 0.000000 -0.380694 -0.106921 0.000000 -0.324337 -0.106661 0.000000 -0.273723 -0.106137 0.000000 -0.217907 -0.105363 0.000000 -0.168095 -0.104327 0.000000 -0.113333 -0.103135 0.000000 -0.064739 -0.101684 0.000000 -0.011443 -0.100166 0.000000 0.035609 -0.098390 0.000000 0.087114 -0.096630 0.000000 0.132386 -0.094608 0.000000 0.181858 -0.092677 0.000000 0.225182 -0.090476 0.000000 0.272447 -0.088432 0.000000 0.313715 -0.086106 0.000000 0.358650 -0.083993 0.000000 0.397796 -0.081580 0.000000 0.440318 -0.079428 0.000000 0.477308 -0.076953 0.000000 0.517360 -0.074779 0.000000 0.552174 -0.072255 0.000000 0.589709 -0.070064 0.000000 0.622334 -0.067492 0.000000 0.657306 -0.065278 0.000000 0.687723 -0.062649 0.000000 0.720078 -0.060400 0.000000 0.748252 -0.057698 0.000000 0.777920 -0.055392 0.000000 
0.808077 -0.079093 0.000000 0.834964 -0.075518 0.000000 0.858515 -0.071158 0.000000 0.882512 -0.067420 0.000000 0.903594 -0.062836 0.000000 0.924551 -0.058892 0.000000 0.943026 -0.054043 0.000000 0.960764 -0.049851 0.000000 0.976466 -0.044700 0.000000 0.990780 -0.040225 0.000000 1.003513 -0.034741 0.000000 1.014177 -0.029953 0.000000 1.023730 -0.024118 0.000000 1.030501 -0.019001 0.000000 1.036647 -0.012807 0.000000 1.039280 -0.007355 0.000000 1.041788 -0.000813 0.000000 1.040043 0.004966 0.000000 1.038689 0.011830 0.000000 1.032342 0.017911 0.000000 1.026917 0.025054 0.000000 1.015775 0.031398 0.000000 1.006097 0.038758 0.000000 0.990009 0.045311 0.000000 0.975932 0.052811 0.000000 0.954798 0.059507 0.000000 0.936221 0.067056 0.000000 0.910006 0.073818 0.000000 0.886881 0.081315 0.000000 0.855616 0.088058 0.000000 0.827953 0.095395 0.000000 0.791744 0.102029 0.000000 0.759614 0.109095 0.000000 0.718644 0.115525 0.000000 0.682179 0.122208 0.000000 0.636705 0.128340 0.000000 0.596104 0.134533 0.000000 0.546456 0.140271 0.000000 0.501979 0.145871 0.000000 0.448554 0.151123 0.000000 0.400525 0.156033 0.000000 0.343787 0.160705 0.000000 0.292589 0.164834 0.000000 0.233063 0.168836 0.000000 0.179142 0.172099 0.000000 0.117405 0.175339 0.000000 0.061267 0.177658 0.000000 -0.002048 0.180045 0.000000 -0.059835 0.181346 0.000000 -0.124047 0.182792 0.000000 -0.182855 0.183005 0.000000 -0.247236 0.183425 0.000000 -0.306379 0.182489 0.000000 -0.370157 0.181803 0.000000 -0.428893 0.179664 0.000000 -0.491260 0.177805 0.000000 -0.548797 0.174422 0.000000 -0.608914 0.171334 0.000000 -0.664420 0.166683 0.000000 -0.721430 0.162336 0.000000 -0.774049 0.156414 0.000000 -0.827089 0.150802 0.000000 -0.875956 0.143634 0.000000 -0.924178 0.136785 0.000000 -0.968446 0.128429 0.000000 -1.011036 0.120408 0.000000 -1.049898 0.110956 0.000000 -1.086104 0.101871 0.000000 -1.118825 0.091454 0.000000 -1.147982 0.081450 0.000000 -1.173923 0.070239 0.000000 -1.195481 0.059503 0.000000 -1.214134 0.047701 0.000000 -1.227682 0.036454 0.000000 -1.238689 0.024296 0.000000 -1.243979 0.012786 0.000000 -1.247154 0.000528 0.000000 -1.244113 -0.010981 0.000000 -1.239456 -0.023071 0.000000 -1.228199 -0.034311 0.000000 -1.215893 -0.045965 0.000000 -1.196720 -0.056676 0.000000 -1.177133 -0.067642 0.000000 -1.150521 -0.077586 0.000000 -1.124185 -0.087638 0.000000 -1.090768 -0.096611 0.000000 -1.058358 -0.105560 0.000000 -1.018900 -0.113401 0.000000 -0.981201 -0.121108 0.000000 -0.936562 -0.127708 0.000000 -0.894434 -0.134083 0.000000 -0.845534 -0.139385 0.000000 -0.799872 -0.144395 0.000000 -0.747654 -0.148395 0.000000 -0.699354 -0.152056 0.000000 -0.644742 -0.154800 0.000000 -0.594665 -0.157175 0.000000 -0.538539 -0.158747 0.000000 -0.487485 -0.159935 0.000000 -0.430651 -0.160451 0.000000 -0.379334 -0.160579 0.000000 -0.322508 -0.160175 0.000000 -0.271547 -0.159387 0.000000 -0.215343 -0.158209 0.000000 -0.165254 -0.156653 0.000000 -0.110183 -0.154848 0.000000 -0.061378 -0.152670 0.000000 -0.007848 -0.150378 0.000000 0.039355 -0.147713 0.000000 0.091030 -0.145060 0.000000 0.136402 -0.142028 0.000000 0.185988 -0.139120 0.000000 0.229370 -0.135822 0.000000 0.276702 -0.132748 0.000000 0.317997 -0.129264 0.000000 0.362964 -0.126089 0.000000 0.402116 -0.122476 0.000000 0.444644 -0.119246 0.000000 0.481628 -0.115543 0.000000 0.521669 -0.112281 0.000000 0.556474 -0.108506 0.000000 0.593989 -0.105221 0.000000 0.626608 -0.101376 0.000000 0.661559 -0.098059 0.000000 0.691979 -0.094130 0.000000 0.724318 -0.090761 0.000000 0.752508 -0.086724 0.000000 0.782167 -0.083272 0.000000 
0.811550 -0.105392 0.000000 0.838618 -0.100646 0.000000 0.862279 -0.094836 0.000000 0.886487 -0.089872 0.000000 0.907704 -0.083765 0.000000 0.928901 -0.078525 0.000000 0.947534 -0.072063 0.000000 0.965540 -0.066490 0.000000 0.981419 -0.059623 0.000000 0.996024 -0.053669 0.000000 1.008951 -0.046355 0.000000 1.019922 -0.039982 0.000000 1.029676 -0.032195 0.000000 1.036764 -0.025377 0.000000 1.043112 -0.017108 0.000000 1.046061 -0.009839 0.000000 1.048764 -0.001100 0.000000 1.047322 0.006609 0.000000 1.046147 0.015782 0.000000 1.040079 0.023899 0.000000 1.034806 0.033448 0.000000 1.023909 0.041919 0.000000 1.014348 0.051760 0.000000 0.998458 0.060515 0.000000 0.984454 0.070545 0.000000 0.963464 0.079494 0.000000 0.944910 0.089591 0.000000 0.918775 0.098631 0.000000 0.895619 0.108658 0.000000 0.864365 0.117675 0.000000 0.836613 0.127488 0.000000 0.800345 0.136362 0.000000 0.768067 0.145811 0.000000 0.726965 0.154416 0.000000 0.690294 0.163353 0.000000 0.644616 0.171563 0.000000 0.603753 0.179844 0.000000 0.553832 0.187533 0.000000 0.509039 0.195021 0.000000 0.455277 0.202065 0.000000 0.406879 0.208630 0.000000 0.349743 0.214906 0.000000 0.298129 0.220429 0.000000 0.238146 0.225814 0.000000 0.183763 0.230181 0.000000 0.121517 0.234554 0.000000 0.064874 0.237661 0.000000 0.000999 0.240900 0.000000 -0.057334 0.242648 0.000000 -0.122152 0.244634 0.000000 -0.181544 0.244930 0.000000 -0.246573 0.245547 0.000000 -0.306333 0.244307 0.000000 -0.370796 0.243446 0.000000 -0.430176 0.240597 0.000000 -0.493258 0.238162 0.000000 -0.551458 0.233648 0.000000 -0.612311 0.229565 0.000000 -0.668488 0.223349 0.000000 -0.726243 0.217571 0.000000 -0.779527 0.209648 0.000000 -0.833305 0.202165 0.000000 -0.882817 0.192566 0.000000 -0.931753 0.183411 0.000000 -0.976626 0.172210 0.000000 -1.019888 0.161469 0.000000 -1.059296 0.148788 0.000000 -1.096111 0.136602 0.000000 -1.129298 0.122617 0.000000 -1.158981 0.109184 0.000000 -1.185292 0.094121 0.000000 -1.207274 0.079692 0.000000 -1.226183 0.063828 0.000000 -1.240036 0.048701 0.000000 -1.251172 0.032354 0.000000 -1.256636 0.016867 0.000000 -1.259806 0.000384 0.000000 -1.256801 -0.015104 0.000000 -1.252000 -0.031359 0.000000 -1.240639 -0.046483 0.000000 -1.228056 -0.062146 0.000000 -1.208645 -0.076551 0.000000 -1.188657 -0.091280 0.000000 -1.161684 -0.104642 0.000000 -1.134841 -0.118128 0.000000 -1.100958 -0.130170 0.000000 -1.067955 -0.142159 0.000000 -1.027949 -0.152664 0.000000 -0.989597 -0.162967 0.000000 -0.944356 -0.171789 0.000000 -0.901541 -0.180287 0.000000 -0.852011 -0.187351 0.000000 -0.805658 -0.194001 0.000000 -0.752807 -0.199306 0.000000 -0.703836 -0.204134 0.000000 -0.648613 -0.207744 0.000000 -0.597906 -0.210838 0.000000 -0.541211 -0.212871 0.000000 -0.489585 -0.214370 0.000000 -0.432238 -0.214985 0.000000 -0.380419 -0.215064 0.000000 -0.323144 -0.214448 0.000000 -0.271757 -0.213302 0.000000 -0.215173 -0.211656 0.000000 -0.164734 -0.209488 0.000000 -0.109349 -0.207011 0.000000 -0.060268 -0.204019 0.000000 -0.006486 -0.200900 0.000000 0.040928 -0.197268 0.000000 0.092801 -0.193676 0.000000 0.138326 -0.189565 0.000000 0.188065 -0.185645 0.000000 0.231555 -0.181190 0.000000 0.279007 -0.177059 0.000000 0.320375 -0.172367 0.000000 0.365439 -0.168112 0.000000 0.404640 -0.163260 0.000000 0.447254 -0.158940 0.000000 0.484274 -0.153978 0.000000 0.524397 -0.149625 0.000000 0.559235 -0.144575 0.000000 0.596840 -0.140198 0.000000 0.629497 -0.135062 0.000000 0.664553 -0.130649 0.000000 0.695022 -0.125407 0.000000 0.727486 -0.120929 0.000000 0.755743 -0.115547 0.000000 0.785553 -0.110961 0.000000 
0.818393 -0.132158 0.000000 0.845522 -0.126247 0.000000 0.869289 -0.119027 0.000000 0.893585 -0.112845 0.000000 0.914942 -0.105251 0.000000 0.936254 -0.098723 0.000000 0.955062 -0.090683 0.000000 0.973206 -0.083736 0.000000 0.989288 -0.075184 0.000000 1.004049 -0.067756 0.000000 1.017202 -0.058638 0.000000 1.028339 -0.050679 0.000000 1.038335 -0.040960 0.000000 1.045589 -0.032437 0.000000 1.052186 -0.022104 0.000000 1.055289 -0.013007 0.000000 1.058237 -0.002074 0.000000 1.056927 0.007584 0.000000 1.055980 0.019073 0.000000 1.050009 0.029251 0.000000 1.044939 0.041224 0.000000 1.034090 0.051857 0.000000 1.024695 0.064209 0.000000 1.008795 0.075204 0.000000 0.994913 0.087805 0.000000 0.973845 0.099051 0.000000 0.955361 0.111745 0.000000 0.929075 0.123110 0.000000 0.905928 0.135725 0.000000 0.874448 0.147064 0.000000 0.846642 0.159416 0.000000 0.810069 0.170576 0.000000 0.777671 0.182475 0.000000 0.736188 0.193297 0.000000 0.699329 0.204556 0.000000 0.653198 0.214881 0.000000 0.612077 0.225317 0.000000 0.561634 0.234986 0.000000 0.516513 0.244427 0.000000 0.462165 0.253283 0.000000 0.413367 0.261566 0.000000 0.355586 0.269456 0.000000 0.303498 0.276431 0.000000 0.242815 0.283202 0.000000 0.187882 0.288729 0.000000 0.124884 0.294228 0.000000 0.067613 0.298176 0.000000 0.002937 0.302253 0.000000 -0.056103 0.304496 0.000000 -0.121767 0.307002 0.000000 -0.181946 0.307426 0.000000 -0.247862 0.308214 0.000000 -0.308484 0.306712 0.000000 -0.373871 0.305647 0.000000 -0.434180 0.302126 0.000000 -0.498213 0.299086 0.000000 -0.557399 0.293474 0.000000 -0.619216 0.288365 0.000000 -0.676418 0.280614 0.000000 -0.735135 0.273374 0.000000 -0.789460 0.263476 0.000000 -0.844175 0.254092 0.000000 -0.894715 0.242082 0.000000 -0.944538 0.230594 0.000000 -0.990393 0.216563 0.000000 -1.034461 0.203078 0.000000 -1.074769 0.187179 0.000000 -1.112278 0.171873 0.000000 -1.146247 0.154324 0.000000 -1.176480 0.137444 0.000000 -1.203419 0.118531 0.000000 -1.225777 0.100394 0.000000 -1.245127 0.080463 0.000000 -1.259159 0.061444 0.000000 -1.270527 0.040896 0.000000 -1.275952 0.021420 0.000000 -1.279129 0.000693 0.000000 -1.275859 -0.018787 0.000000 -1.270837 -0.039233 0.000000 -1.258989 -0.058255 0.000000 -1.245964 -0.077959 0.000000 -1.225856 -0.096075 0.000000 -1.205226 -0.114603 0.000000 -1.177372 -0.131402 0.000000 -1.149717 -0.148364 0.000000 -1.114802 -0.163496 0.000000 -1.080856 -0.178569 0.000000 -1.039711 -0.191759 0.000000 -1.000328 -0.204702 0.000000 -0.953885 -0.215764 0.000000 -0.909999 -0.226428 0.000000 -0.859251 -0.235268 0.000000 -0.811830 -0.243599 0.000000 -0.757789 -0.250218 0.000000 -0.707793 -0.256250 0.000000 -0.651448 -0.260729 0.000000 -0.599794 -0.264577 0.000000 -0.542073 -0.267068 0.000000 -0.489600 -0.268908 0.000000 -0.431345 -0.269617 0.000000 -0.378798 -0.269673 0.000000 -0.320746 -0.268837 0.000000 -0.268755 -0.267358 0.000000 -0.211529 -0.265232 0.000000 -0.160609 -0.262477 0.000000 -0.104713 -0.259315 0.000000 -0.055267 -0.255533 0.000000 -0.001095 -0.251574 0.000000 0.046580 -0.246999 0.000000 0.098734 -0.242457 0.000000 0.144433 -0.237292 0.000000 0.194364 -0.232350 0.000000 0.237957 -0.226764 0.000000 0.285527 -0.221568 0.000000 0.326945 -0.215695 0.000000 0.372073 -0.210355 0.000000 0.411289 -0.204291 0.000000 0.453929 -0.198879 0.000000 0.490945 -0.192686 0.000000 0.531073 -0.187243 0.000000 0.565901 -0.180949 0.000000 0.603504 -0.175483 0.000000 0.636159 -0.169088 0.000000 0.671216 -0.163584 0.000000 0.701701 -0.157063 0.000000 0.734180 -0.151482 0.000000 0.762478 -0.144791 0.000000 0.792324 -0.139079 0.000000 
0.824383 -0.158590 0.000000 0.851751 -0.151541 0.000000 0.875683 -0.142899 0.000000 0.900264 -0.135526 0.000000 0.921827 -0.126435 0.000000 0.943471 -0.118644 0.000000 0.962522 -0.109014 0.000000 0.981041 -0.100717 0.000000 0.997401 -0.090466 0.000000 1.012572 -0.081583 0.000000 1.026029 -0.070645 0.000000 1.037602 -0.061116 0.000000 1.047919 -0.049445 0.000000 1.055621 -0.039228 0.000000 1.062544 -0.026808 0.000000 1.066093 -0.015890 0.000000 1.069356 -0.002737 0.000000 1.068471 0.008866 0.000000 1.067816 0.022700 0.000000 1.062232 0.034940 0.000000 1.057413 0.049367 0.000000 1.046896 0.062162 0.000000 1.037698 0.077055 0.000000 1.022056 0.090297 0.000000 1.008303 0.105495 0.000000 0.987406 0.119046 0.000000 0.968972 0.134361 0.000000 0.942757 0.148063 0.000000 0.919577 0.163285 0.000000 0.888059 0.176962 0.000000 0.860129 0.191867 0.000000 0.823407 0.205333 0.000000 0.790792 0.219692 0.000000 0.749048 0.232757 0.000000 0.711881 0.246343 0.000000 0.665380 0.258815 0.000000 0.623861 0.271408 0.000000 0.572944 0.283098 0.000000 0.527339 0.294490 0.000000 0.472418 0.305211 0.000000 0.423055 0.315209 0.000000 0.364609 0.324775 0.000000 0.311876 0.333200 0.000000 0.250444 0.341430 0.000000 0.194790 0.348113 0.000000 0.130962 0.354823 0.000000 0.072897 0.359607 0.000000 0.007318 0.364616 0.000000 -0.052588 0.367353 0.000000 -0.119226 0.370476 0.000000 -0.180336 0.371025 0.000000 -0.247290 0.372085 0.000000 -0.308905 0.370315 0.000000 -0.375387 0.369142 0.000000 -0.436742 0.364939 0.000000 -0.501916 0.361381 0.000000 -0.562186 0.354651 0.000000 -0.625177 0.348585 0.000000 -0.683485 0.339267 0.000000 -0.743386 0.330612 0.000000 -0.798816 0.318689 0.000000 -0.854705 0.307420 0.000000 -0.906321 0.292928 0.000000 -0.957277 0.279089 0.000000 -1.004148 0.262133 0.000000 -1.049276 0.245845 0.000000 -1.090506 0.226606 0.000000 -1.128970 0.208080 0.000000 -1.163732 0.186819 0.000000 -1.194778 0.166355 0.000000 -1.222347 0.143418 0.000000 -1.245346 0.121400 0.000000 -1.265136 0.097210 0.000000 -1.279607 0.074101 0.000000 -1.291201 0.049147 0.000000 -1.296843 0.025469 0.000000 -1.300017 0.000292 0.000000 -1.296730 -0.023396 0.000000 -1.291471 -0.048230 0.000000 -1.279369 -0.071356 0.000000 -1.265880 -0.095279 0.000000 -1.245292 -0.117289 0.000000 -1.223988 -0.139764 0.000000 -1.195449 -0.160151 0.000000 -1.166939 -0.180697 0.000000 -1.131167 -0.199030 0.000000 -1.096222 -0.217250 0.000000 -1.054086 -0.233192 0.000000 -1.013606 -0.248793 0.000000 -0.966085 -0.262118 0.000000 -0.921050 -0.274921 0.000000 -0.869185 -0.285521 0.000000 -0.820610 -0.295463 0.000000 -0.765460 -0.303343 0.000000 -0.714349 -0.310475 0.000000 -0.656942 -0.315744 0.000000 -0.604247 -0.320214 0.000000 -0.545544 -0.323064 0.000000 -0.492135 -0.325097 0.000000 -0.433003 -0.325787 0.000000 -0.379640 -0.325663 0.000000 -0.320829 -0.324491 0.000000 -0.268153 -0.322520 0.000000 -0.210291 -0.319802 0.000000 -0.158816 -0.316304 0.000000 -0.102405 -0.312353 0.000000 -0.052527 -0.307637 0.000000 0.002050 -0.302747 0.000000 0.050046 -0.297097 0.000000 0.102509 -0.291529 0.000000 0.148435 -0.285194 0.000000 0.198595 -0.279169 0.000000 0.242339 -0.272354 0.000000 0.290078 -0.266048 0.000000 0.331590 -0.258913 0.000000 0.376845 -0.252456 0.000000 0.416118 -0.245116 0.000000 0.458861 -0.238595 0.000000 0.495912 -0.231122 0.000000 0.536137 -0.224582 0.000000 0.570996 -0.217006 0.000000 0.608703 -0.210456 0.000000 0.641398 -0.202774 0.000000 0.676580 -0.196191 0.000000 0.707125 -0.188371 0.000000 0.739760 -0.181706 0.000000 0.768148 -0.173691 0.000000 0.798188 -0.166876 0.000000 
0.833729 -0.185720 0.000000 0.861215 -0.177547 0.000000 0.885306 -0.167540 0.000000 0.910051 -0.158990 0.000000 0.931826 -0.148458 0.000000 0.953678 -0.139418 0.000000 0.972991 -0.128252 0.000000 0.991756 -0.118615 0.000000 1.008423 -0.106715 0.000000 1.023872 -0.096385 0.000000 1.037671 -0.083668 0.000000 1.049541 -0.072569 0.000000 1.060225 -0.058980 0.000000 1.068228 -0.047061 0.000000 1.075526 -0.032576 0.000000 1.079363 -0.019819 0.000000 1.082995 -0.004453 0.000000 1.082367 0.009124 0.000000 1.082057 0.025313 0.000000 1.076677 0.039654 0.000000 1.072164 0.056561 0.000000 1.061781 0.071572 0.000000 1.052833 0.089048 0.000000 1.037238 0.104599 0.000000 1.023666 0.122455 0.000000 1.002715 0.138381 0.000000 0.984381 0.156393 0.000000 0.958001 0.172506 0.000000 0.934831 0.190423 0.000000 0.903033 0.206512 0.000000 0.875018 0.224068 0.000000 0.837897 0.239912 0.000000 0.805099 0.256834 0.000000 0.762841 0.272208 0.000000 0.725392 0.288225 0.000000 0.678265 0.302901 0.000000 0.636364 0.317753 0.000000 0.584718 0.331508 0.000000 0.538629 0.344952 0.000000 0.482884 0.357567 0.000000 0.432935 0.369375 0.000000 0.373577 0.380634 0.000000 0.320154 0.390597 0.000000 0.257727 0.400288 0.000000 0.201276 0.408210 0.000000 0.136377 0.416121 0.000000 0.077404 0.421820 0.000000 0.010680 0.427737 0.000000 -0.050246 0.431040 0.000000 -0.118099 0.434750 0.000000 -0.180341 0.435491 0.000000 -0.248576 0.436783 0.000000 -0.311432 0.434809 0.000000 -0.379252 0.433483 0.000000 -0.441948 0.428655 0.000000 -0.508507 0.424530 0.000000 -0.570202 0.416735 0.000000 -0.634606 0.409663 0.000000 -0.694398 0.398824 0.000000 -0.755719 0.388706 0.000000 -0.812660 0.374795 0.000000 -0.869942 0.361596 0.000000 -0.923054 0.344653 0.000000 -0.975339 0.328421 0.000000 -1.023643 0.308563 0.000000 -1.069993 0.289437 0.000000 -1.112541 0.266872 0.000000 -1.152070 0.245098 0.000000 -1.187979 0.220133 0.000000 -1.219887 0.196060 0.000000 -1.248379 0.169099 0.000000 -1.271990 0.143183 0.000000 -1.292433 0.114724 0.000000 -1.307226 0.087509 0.000000 -1.319165 0.058132 0.000000 -1.324812 0.030236 0.000000 -1.327999 0.000580 0.000000 -1.324386 -0.027333 0.000000 -1.318802 -0.056594 0.000000 -1.306043 -0.083845 0.000000 -1.291903 -0.112036 0.000000 -1.270346 -0.137967 0.000000 -1.248094 -0.164446 0.000000 -1.218311 -0.188452 0.000000 -1.188601 -0.212647 0.000000 -1.151361 -0.234213 0.000000 -1.115023 -0.255650 0.000000 -1.071259 -0.274375 0.000000 -1.029259 -0.292703 0.000000 -0.980017 -0.308320 0.000000 -0.933406 -0.323327 0.000000 -0.879798 -0.335708 0.000000 -0.829656 -0.347324 0.000000 -0.772805 -0.356479 0.000000 -0.720198 -0.364768 0.000000 -0.661189 -0.370831 0.000000 -0.607117 -0.375974 0.000000 -0.546958 -0.379180 0.000000 -0.492325 -0.381450 0.000000 -0.431912 -0.382112 0.000000 -0.377503 -0.381846 0.000000 -0.317604 -0.380324 0.000000 -0.264066 -0.377897 0.000000 -0.205313 -0.374569 0.000000 -0.153160 -0.370363 0.000000 -0.096046 -0.365604 0.000000 -0.045660 -0.359988 0.000000 0.009446 -0.354147 0.000000 0.057799 -0.347458 0.000000 0.110639 -0.340846 0.000000 0.156795 -0.333377 0.000000 0.207206 -0.326254 0.000000 0.251080 -0.318247 0.000000 0.298970 -0.310820 0.000000 0.340539 -0.302462 0.000000 0.385872 -0.294882 0.000000 0.425152 -0.286307 0.000000 0.467926 -0.278674 0.000000 0.504960 -0.269963 0.000000 0.545191 -0.262327 0.000000 0.580030 -0.253515 0.000000 0.617738 -0.245885 0.000000 0.650426 -0.236965 0.000000 0.685622 -0.229311 0.000000 0.716187 -0.220243 0.000000 0.748862 -0.212505 0.000000 0.777310 -0.203220 0.000000 0.807427 -0.195314 0.000000 