# vtk DataFile Version 2.0
Comment goes here
ASCII

DATASET STRUCTURED_POINTS
FIELD FieldData 1
TIME 1 1 double
0.11000000
DIMENSIONS    128   128   1

ORIGIN    0.000   0.000   0.000
SPACING   0.039062 0.039062   1.000

POINT_DATA   16384
VECTORS u double

-0.391029 -0.000000 0.000000 -0.336071 -0.000000 0.000000 -0.279389 -0.000000 0.000000 -0.224116 -0.000000 0.000000 -0.167764 -0.000000 0.000000 -0.112740 -0.000000 0.000000 -0.057263 -0.000000 0.000000 -0.002994 -0.000000 0.000000 0.051118 -0.000000 0.000000 0.104183 -0.000000 0.000000 0.156496 -0.000000 0.000000 0.207962 -0.000000 0.000000 0.258092 -0.000000 0.000000 0.307613 0.000000 0.000000 0.355223 0.000000 0.000000 0.402500 0.000000 0.000000 0.447298 0.000000 0.000000 0.492071 0.000000 0.000000 0.533805 0.000000 0.000000 0.575852 0.000000 0.000000 0.614309 0.000000 0.000000 0.653439 0.000000 0.000000 0.688440 0.000000 0.000000 0.724495 0.000000 0.000000 0.755892 0.000000 0.000000 0.788737 0.000000 0.000000 0.816416 0.000000 0.000000 0.845940 0.000000 0.000000 0.869812 0.000000 0.000000 0.895924 0.000000 0.000000 0.915928 0.000000 0.000000 0.938553 0.000000 0.000000 0.954647 0.000000 0.000000 0.973723 0.000000 0.000000 0.985888 0.000000 0.000000 1.001361 0.000000 0.000000 1.009592 0.000000 0.000000 1.021414 0.000000 0.000000 1.025719 0.000000 0.000000 1.033845 0.000000 0.000000 1.034238 0.000000 0.000000 1.038622 0.000000 0.000000 1.035126 0.000000 0.000000 1.035719 0.000000 0.000000 1.028356 0.000000 0.000000 1.025105 0.000000 0.000000 1.013900 0.000000 0.000000 1.006751 0.000000 0.000000 0.991727 0.000000 0.000000 0.980622 0.000000 0.000000 0.961804 0.000000 0.000000 0.946689 0.000000 0.000000 0.924105 0.000000 0.000000 0.904932 0.000000 0.000000 0.878616 0.000000 0.000000 0.855351 0.000000 0.000000 0.825346 0.000000 0.000000 0.797975 0.000000 0.000000 0.764346 0.000000 0.000000 0.732883 0.000000 0.000000 0.695717 0.000000 0.000000 0.660213 0.000000 0.000000 0.619631 0.000000 0.000000 0.580183 0.000000 0.000000 0.536345 0.000000 0.000000 0.493104 0.000000 0.000000 0.446217 0.000000 0.000000 0.399393 0.000000 0.000000 0.349721 0.000000 0.000000 0.299590 0.000000 0.000000 0.247454 0.000000 0.000000 0.194366 0.000000 0.000000 0.140153 0.000000 0.000000 0.084529 0.000000 0.000000 0.028691 0.000000 0.000000 -0.028970 0.000000 0.000000 -0.085916 0.000000 0.000000 -0.145039 0.000000 0.000000 -0.202509 0.000000 0.000000 -0.262452 0.000000 0.000000 -0.319801 0.000000 0.000000 -0.379851 0.000000 0.000000 -0.436381 0.000000 0.000000 -0.495769 0.000000 0.000000 -0.550735 0.000000 0.000000 -0.608644 0.000000 0.000000 -0.661269 0.000000 0.000000 -0.716850 0.000000 0.000000 -0.766337 0.000000 0.000000 -0.818728 0.000000 0.000000 -0.864279 0.000000 0.000000 -0.912625 0.000000 0.000000 -0.953465 0.000000 0.000000 -0.996940 0.000000 0.000000 -1.032339 0.000000 0.000000 -1.070175 0.000000 0.000000 -1.099474 0.000000 0.000000 -1.130987 0.000000 0.000000 -1.153620 0.000000 0.000000 -1.178237 0.000000 0.000000 -1.193757 0.000000 0.000000 -1.211037 0.000000 0.000000 -1.219136 0.000000 0.000000 -1.228791 0.000000 0.000000 -1.229311 -0.000000 0.000000 -1.231215 -0.000000 0.000000 -1.224160 -0.000000 0.000000 -1.218356 -0.000000 0.000000 -1.203889 -0.000000 0.000000 -1.190582 -0.000000 0.000000 -1.169018 -0.000000 0.000000 -1.148568 -0.000000 0.000000 -1.120359 -0.000000 0.000000 -1.093257 -0.000000 0.000000 -1.058971 -0.000000 0.000000 -1.025819 -0.000000 0.000000 -0.986117 -0.000000 0.000000 -0.947601 -0.000000 0.000000 -0.903208 -0.000000 0.000000 -0.860068 -0.000000 0.000000 -0.811748 -0.000000 0.000000 -0.764751 -0.000000 0.000000 -0.713282 -0.000000 0.000000 -0.663201 -0.000000 0.000000 -0.609354 -0.000000 0.000000 -0.556942 -0.000000 0.000000 -0.501461 -0.000000 0.000000 -0.447439 -0.000000 0.000000 
-0.391076 -0.055684 0.000000 -0.336104 -0.055820 0.000000 -0.279366 -0.055977 0.000000 -0.224086 -0.055813 0.000000 -0.167687 -0.055688 0.000000 -0.112662 -0.055250 0.000000 -0.057145 -0.054873 0.000000 -0.002881 -0.054191 0.000000 0.051266 -0.053589 0.000000 0.104322 -0.052689 0.000000 0.156664 -0.051889 0.000000 0.208118 -0.050798 0.000000 0.258272 -0.049826 0.000000 0.307778 -0.048566 0.000000 0.355409 -0.047443 0.000000 0.402670 -0.046037 0.000000 0.447486 -0.044785 0.000000 0.492243 -0.043254 0.000000 0.533993 -0.041890 0.000000 0.576025 -0.040252 0.000000 0.614496 -0.038794 0.000000 0.653614 -0.037066 0.000000 0.688627 -0.035528 0.000000 0.724672 -0.033726 0.000000 0.756082 -0.032121 0.000000 0.788921 -0.030262 0.000000 0.816611 -0.028602 0.000000 0.846134 -0.026698 0.000000 0.870017 -0.024992 0.000000 0.896133 -0.023058 0.000000 0.916147 -0.021314 0.000000 0.938782 -0.019360 0.000000 0.954888 -0.017585 0.000000 0.973979 -0.015620 0.000000 0.986156 -0.013819 0.000000 1.001651 -0.011852 0.000000 1.009894 -0.010027 0.000000 1.021746 -0.008063 0.000000 1.026063 -0.006215 0.000000 1.034225 -0.004260 0.000000 1.034631 -0.002389 0.000000 1.039057 -0.000444 0.000000 1.035573 0.001452 0.000000 1.036214 0.003385 0.000000 1.028864 0.005307 0.000000 1.025666 0.007228 0.000000 1.014472 0.009177 0.000000 1.007379 0.011087 0.000000 0.992365 0.013064 0.000000 0.981319 0.014961 0.000000 0.962509 0.016966 0.000000 0.947454 0.018850 0.000000 0.924873 0.020878 0.000000 0.905759 0.022745 0.000000 0.879442 0.024791 0.000000 0.856232 0.026635 0.000000 0.826221 0.028688 0.000000 0.798901 0.030500 0.000000 0.765259 0.032546 0.000000 0.733840 0.034314 0.000000 0.696653 0.036335 0.000000 0.661186 0.038043 0.000000 0.620574 0.040015 0.000000 0.581153 0.041643 0.000000 0.537276 0.043540 0.000000 0.494051 0.045064 0.000000 0.447116 0.046856 0.000000 0.400297 0.048248 0.000000 0.350567 0.049901 0.000000 0.300431 0.051133 0.000000 0.248228 0.052612 0.000000 0.195122 0.053651 0.000000 0.140833 0.054918 0.000000 0.085181 0.055731 0.000000 0.029259 0.056749 0.000000 -0.028440 0.057303 0.000000 -0.085477 0.058035 0.000000 -0.144649 0.058297 0.000000 -0.202215 0.058706 0.000000 -0.262214 0.058646 0.000000 -0.319663 0.058700 0.000000 -0.379777 0.058290 0.000000 -0.436408 0.057959 0.000000 -0.495866 0.057177 0.000000 -0.550933 0.056438 0.000000 -0.608917 0.055267 0.000000 -0.661639 0.054103 0.000000 -0.717299 0.052534 0.000000 -0.766877 0.050939 0.000000 -0.819348 0.048971 0.000000 -0.864982 0.046948 0.000000 -0.913405 0.044593 0.000000 -0.954319 0.042157 0.000000 -0.997868 0.039437 0.000000 -1.033328 0.036618 0.000000 -1.071231 0.033567 0.000000 -1.100575 0.030406 0.000000 -1.132147 0.027073 0.000000 -1.154809 0.023625 0.000000 -1.179474 0.020069 0.000000 -1.195004 0.016400 0.000000 -1.212321 0.012689 0.000000 -1.220411 0.008877 0.000000 -1.230088 0.005088 0.000000 -1.230582 0.001212 0.000000 -1.232495 -0.002575 0.000000 -1.225397 -0.006430 0.000000 -1.219588 -0.010136 0.000000 -1.205063 -0.013887 0.000000 -1.191739 -0.017435 0.000000 -1.170104 -0.021007 0.000000 -1.149627 -0.024330 0.000000 -1.121337 -0.027656 0.000000 -1.094201 -0.030694 0.000000 -1.059827 -0.033719 0.000000 -1.026637 -0.036427 0.000000 -0.986843 -0.039109 0.000000 -0.948286 -0.041455 0.000000 -0.903801 -0.043767 0.000000 -0.860620 -0.045730 0.000000 -0.812211 -0.047658 0.000000 -0.765177 -0.049233 0.000000 -0.713623 -0.050775 0.000000 -0.663509 -0.051964 0.000000 -0.609583 -0.053130 0.000000 -0.557144 -0.053946 0.000000 -0.501592 -0.054752 0.000000 -0.447548 -0.055216 0.000000 
-0.391633 -0.111445 0.000000 -0.336365 -0.111709 0.000000 -0.279381 -0.112017 0.000000 -0.223827 -0.111680 0.000000 -0.167202 -0.111424 0.000000 -0.111925 -0.110542 0.000000 -0.056204 -0.109782 0.000000 -0.001711 -0.108411 0.000000 0.052619 -0.107203 0.000000 0.105882 -0.105398 0.000000 0.158387 -0.103795 0.000000 0.210026 -0.101607 0.000000 0.260323 -0.099661 0.000000 0.309995 -0.097137 0.000000 0.357751 -0.094892 0.000000 0.405157 -0.092077 0.000000 0.450081 -0.089573 0.000000 0.494965 -0.086507 0.000000 0.536807 -0.083782 0.000000 0.578948 -0.080503 0.000000 0.617495 -0.077589 0.000000 0.656705 -0.074131 0.000000 0.691779 -0.071058 0.000000 0.727900 -0.067455 0.000000 0.759356 -0.064248 0.000000 0.792256 -0.060529 0.000000 0.819979 -0.057213 0.000000 0.849549 -0.053406 0.000000 0.873452 -0.049999 0.000000 0.899602 -0.046130 0.000000 0.919625 -0.042649 0.000000 0.942281 -0.038740 0.000000 0.958386 -0.035197 0.000000 0.977488 -0.031268 0.000000 0.989656 -0.027672 0.000000 1.005153 -0.023738 0.000000 1.013380 -0.020095 0.000000 1.025225 -0.016168 0.000000 1.029521 -0.012479 0.000000 1.037671 -0.008568 0.000000 1.038054 -0.004832 0.000000 1.042462 -0.000942 0.000000 1.038954 0.002843 0.000000 1.039573 0.006710 0.000000 1.032198 0.010548 0.000000 1.028975 0.014392 0.000000 1.017757 0.018287 0.000000 1.010636 0.022107 0.000000 0.995600 0.026060 0.000000 0.984522 0.029856 0.000000 0.965691 0.033866 0.000000 0.950599 0.037636 0.000000 0.927998 0.041694 0.000000 0.908843 0.045432 0.000000 0.882503 0.049527 0.000000 0.859245 0.053220 0.000000 0.829209 0.057331 0.000000 0.801831 0.060963 0.000000 0.768158 0.065061 0.000000 0.736669 0.068606 0.000000 0.699443 0.072654 0.000000 0.663891 0.076079 0.000000 0.623228 0.080033 0.000000 0.583705 0.083298 0.000000 0.539763 0.087102 0.000000 0.496416 0.090160 0.000000 0.449398 0.093754 0.000000 0.402435 0.096549 0.000000 0.352602 0.099867 0.000000 0.302297 0.102339 0.000000 0.249969 0.105308 0.000000 0.196669 0.107395 0.000000 0.142230 0.109941 0.000000 0.086357 0.111574 0.000000 0.030259 0.113621 0.000000 -0.027688 0.114736 0.000000 -0.084925 0.116209 0.000000 -0.144371 0.116738 0.000000 -0.202164 0.117565 0.000000 -0.262462 0.117448 0.000000 -0.320161 0.117563 0.000000 -0.380595 0.116745 0.000000 -0.437498 0.116089 0.000000 -0.497293 0.114525 0.000000 -0.552649 0.113051 0.000000 -0.610982 0.110706 0.000000 -0.664005 0.108382 0.000000 -0.720018 0.105238 0.000000 -0.769902 0.102049 0.000000 -0.822722 0.098105 0.000000 -0.868660 0.094058 0.000000 -0.917418 0.089337 0.000000 -0.958624 0.084462 0.000000 -1.002482 0.079008 0.000000 -1.038212 0.073363 0.000000 -1.076390 0.067247 0.000000 -1.105971 0.060916 0.000000 -1.137771 0.054233 0.000000 -1.160627 0.047327 0.000000 -1.185464 0.040196 0.000000 -1.201139 0.032847 0.000000 -1.218563 0.025407 0.000000 -1.226740 0.017768 0.000000 -1.236457 0.010171 0.000000 -1.236976 0.002407 0.000000 -1.238858 -0.005185 0.000000 -1.231723 -0.012907 0.000000 -1.225814 -0.020334 0.000000 -1.211191 -0.027849 0.000000 -1.197704 -0.034959 0.000000 -1.175914 -0.042112 0.000000 -1.155217 -0.048767 0.000000 -1.126724 -0.055426 0.000000 -1.099321 -0.061510 0.000000 -1.064705 -0.067564 0.000000 -1.031211 -0.072984 0.000000 -0.991146 -0.078351 0.000000 -0.952260 -0.083042 0.000000 -0.907484 -0.087666 0.000000 -0.863960 -0.091590 0.000000 -0.815251 -0.095444 0.000000 -0.767868 -0.098588 0.000000 -0.716015 -0.101668 0.000000 -0.665556 -0.104040 0.000000 -0.611337 -0.106365 0.000000 -0.558564 -0.107992 0.000000 -0.502731 -0.109595 0.000000 -0.448371 -0.110516 0.000000 
-0.392270 -0.167690 0.000000 -0.336676 -0.168072 0.000000 -0.279337 -0.168515 0.000000 -0.223494 -0.167992 0.000000 -0.166549 -0.167589 0.000000 -0.111020 -0.166248 0.000000 -0.055014 -0.165088 0.000000 -0.000302 -0.163014 0.000000 0.054279 -0.161181 0.000000 0.107729 -0.158456 0.000000 0.160454 -0.156033 0.000000 0.212252 -0.152734 0.000000 0.262741 -0.149795 0.000000 0.312547 -0.145993 0.000000 0.360469 -0.142606 0.000000 0.407988 -0.138368 0.000000 0.453055 -0.134593 0.000000 0.498034 -0.129979 0.000000 0.539997 -0.125873 0.000000 0.582217 -0.120939 0.000000 0.620866 -0.116551 0.000000 0.660144 -0.111350 0.000000 0.695303 -0.106723 0.000000 0.731481 -0.101303 0.000000 0.763006 -0.096477 0.000000 0.795955 -0.090885 0.000000 0.823733 -0.085894 0.000000 0.853346 -0.080171 0.000000 0.877292 -0.075045 0.000000 0.903482 -0.069230 0.000000 0.923536 -0.063994 0.000000 0.946233 -0.058121 0.000000 0.962359 -0.052792 0.000000 0.981503 -0.046890 0.000000 0.993685 -0.041483 0.000000 1.009228 -0.035576 0.000000 1.017463 -0.030099 0.000000 1.029360 -0.024205 0.000000 1.033661 -0.018661 0.000000 1.041870 -0.012792 0.000000 1.042255 -0.007180 0.000000 1.046730 -0.001344 0.000000 1.043224 0.004341 0.000000 1.043917 0.010141 0.000000 1.036543 0.015905 0.000000 1.033402 0.021668 0.000000 1.022185 0.027516 0.000000 1.015149 0.033244 0.000000 1.000112 0.039178 0.000000 0.989121 0.044870 0.000000 0.970285 0.050889 0.000000 0.955278 0.056542 0.000000 0.932665 0.062635 0.000000 0.913587 0.068240 0.000000 0.887225 0.074389 0.000000 0.864032 0.079929 0.000000 0.833959 0.086102 0.000000 0.806626 0.091552 0.000000 0.772896 0.097708 0.000000 0.741428 0.103029 0.000000 0.704121 0.109113 0.000000 0.668558 0.114258 0.000000 0.627786 0.120200 0.000000 0.588217 0.125108 0.000000 0.544131 0.130829 0.000000 0.500697 0.135428 0.000000 0.453500 0.140836 0.000000 0.406404 0.145044 0.000000 0.356351 0.150039 0.000000 0.305866 0.153766 0.000000 0.253277 0.158240 0.000000 0.199748 0.161390 0.000000 0.145006 0.165230 0.000000 0.088855 0.167702 0.000000 0.032413 0.170794 0.000000 -0.025860 0.172488 0.000000 -0.083481 0.174719 0.000000 -0.143299 0.175535 0.000000 -0.201511 0.176796 0.000000 -0.262223 0.176643 0.000000 -0.320373 0.176833 0.000000 -0.381257 0.175627 0.000000 -0.438635 0.174657 0.000000 -0.498911 0.172328 0.000000 -0.554759 0.170127 0.000000 -0.613593 0.166623 0.000000 -0.667114 0.163139 0.000000 -0.723639 0.158431 0.000000 -0.774016 0.153643 0.000000 -0.827345 0.147729 0.000000 -0.873757 0.141645 0.000000 -0.923007 0.134557 0.000000 -0.964654 0.127221 0.000000 -1.008972 0.119025 0.000000 -1.045094 0.110525 0.000000 -1.083683 0.101326 0.000000 -1.113594 0.091787 0.000000 -1.145742 0.081729 0.000000 -1.168851 0.071318 0.000000 -1.193958 0.060580 0.000000 -1.209798 0.049499 0.000000 -1.227404 0.038291 0.000000 -1.235651 0.026771 0.000000 -1.245453 0.015324 0.000000 -1.245943 0.003613 0.000000 -1.247812 -0.007829 0.000000 -1.240550 -0.019474 0.000000 -1.234533 -0.030668 0.000000 -1.219690 -0.041997 0.000000 -1.206006 -0.052711 0.000000 -1.183916 -0.063494 0.000000 -1.162944 -0.073520 0.000000 -1.134082 -0.083552 0.000000 -1.106341 -0.092713 0.000000 -1.071304 -0.101829 0.000000 -1.037425 -0.109986 0.000000 -0.996903 -0.118060 0.000000 -0.957603 -0.125116 0.000000 -0.912351 -0.132067 0.000000 -0.868400 -0.137964 0.000000 -0.819210 -0.143750 0.000000 -0.771402 -0.148469 0.000000 -0.719077 -0.153087 0.000000 -0.668207 -0.156642 0.000000 -0.613536 -0.160121 0.000000 -0.560375 -0.162552 0.000000 -0.504117 -0.164945 0.000000 -0.449399 -0.166314 0.000000 
-0.393393 -0.224167 0.000000 -0.337190 -0.224642 0.000000 -0.279303 -0.225199 0.000000 -0.222902 -0.224468 0.000000 -0.165459 -0.223898 0.000000 -0.109425 -0.222077 0.000000 -0.052970 -0.220500 0.000000 0.002195 -0.217704 0.000000 0.057176 -0.215234 0.000000 0.111029 -0.211572 0.000000 0.164108 -0.208318 0.000000 0.216263 -0.203895 0.000000 0.267063 -0.199956 0.000000 0.317183 -0.194865 0.000000 0.365375 -0.190333 0.000000 0.413169 -0.184663 0.000000 0.458468 -0.179618 0.000000 0.503684 -0.173449 0.000000 0.545845 -0.167966 0.000000 0.588269 -0.161372 0.000000 0.627083 -0.155515 0.000000 0.666532 -0.148567 0.000000 0.701824 -0.142395 0.000000 0.738144 -0.135158 0.000000 0.769773 -0.128723 0.000000 0.802838 -0.121256 0.000000 0.830691 -0.114604 0.000000 0.860396 -0.106965 0.000000 0.884392 -0.100135 0.000000 0.910652 -0.092375 0.000000 0.930733 -0.085400 0.000000 0.953481 -0.077563 0.000000 0.969615 -0.070468 0.000000 0.988795 -0.062594 0.000000 1.000968 -0.055396 0.000000 1.016535 -0.047517 0.000000 1.024749 -0.040227 0.000000 1.036661 -0.032366 0.000000 1.040932 -0.024988 0.000000 1.049150 -0.017162 0.000000 1.049500 -0.009693 0.000000 1.053980 -0.001911 0.000000 1.050436 0.005656 0.000000 1.051133 0.013390 0.000000 1.043721 0.021064 0.000000 1.040582 0.028750 0.000000 1.029329 0.036539 0.000000 1.022294 0.044180 0.000000 1.007222 0.052088 0.000000 0.996227 0.059683 0.000000 0.977357 0.067709 0.000000 0.962339 0.075255 0.000000 0.939690 0.083386 0.000000 0.920589 0.090872 0.000000 0.894184 0.099082 0.000000 0.870951 0.106487 0.000000 0.840824 0.114737 0.000000 0.813428 0.122025 0.000000 0.779627 0.130259 0.000000 0.748065 0.137381 0.000000 0.710662 0.145523 0.000000 0.674969 0.152414 0.000000 0.634069 0.160374 0.000000 0.594325 0.166953 0.000000 0.550073 0.174622 0.000000 0.506414 0.180791 0.000000 0.459005 0.188047 0.000000 0.411629 0.193697 0.000000 0.361314 0.200404 0.000000 0.310488 0.205414 0.000000 0.257582 0.211427 0.000000 0.203649 0.215665 0.000000 0.148532 0.220833 0.000000 0.091911 0.224167 0.000000 0.035035 0.228337 0.000000 -0.023773 0.230630 0.000000 -0.081888 0.233648 0.000000 -0.142304 0.234768 0.000000 -0.201066 0.236489 0.000000 -0.262435 0.236310 0.000000 -0.321188 0.236598 0.000000 -0.382782 0.235008 0.000000 -0.440807 0.233743 0.000000 -0.501834 0.230648 0.000000 -0.558365 0.227733 0.000000 -0.617980 0.223061 0.000000 -0.672207 0.218427 0.000000 -0.729525 0.212139 0.000000 -0.780614 0.205754 0.000000 -0.834730 0.197847 0.000000 -0.881843 0.189721 0.000000 -0.931851 0.180234 0.000000 -0.974165 0.170427 0.000000 -1.019188 0.159449 0.000000 -1.055920 0.148075 0.000000 -1.095136 0.135748 0.000000 -1.125576 0.122975 0.000000 -1.158248 0.109490 0.000000 -1.181784 0.095543 0.000000 -1.207290 0.081143 0.000000 -1.223435 0.066292 0.000000 -1.241298 0.051259 0.000000 -1.249714 0.035817 0.000000 -1.259621 0.020464 0.000000 -1.260135 0.004766 0.000000 -1.261951 -0.010579 0.000000 -1.254567 -0.026187 0.000000 -1.248343 -0.041194 0.000000 -1.233239 -0.056375 0.000000 -1.219205 -0.070733 0.000000 -1.196727 -0.085174 0.000000 -1.175280 -0.098601 0.000000 -1.145922 -0.112029 0.000000 -1.117601 -0.124288 0.000000 -1.081982 -0.136480 0.000000 -1.047446 -0.147385 0.000000 -1.006279 -0.158173 0.000000 -0.966269 -0.167594 0.000000 -0.920335 -0.176869 0.000000 -0.875646 -0.184731 0.000000 -0.825758 -0.192441 0.000000 -0.777208 -0.198721 0.000000 -0.724190 -0.204864 0.000000 -0.672592 -0.209582 0.000000 -0.617249 -0.214197 0.000000 -0.563390 -0.217410 0.000000 -0.506494 -0.220571 0.000000 -0.451118 -0.222364 0.000000 
-0.394549 -0.281618 0.000000 -0.337710 -0.282162 0.000000 -0.279165 -0.282803 0.000000 -0.222194 -0.281837 0.000000 -0.164160 -0.281067 0.000000 -0.107623 -0.278737 0.000000 -0.050641 -0.276707 0.000000 0.004963 -0.273160 0.000000 0.060409 -0.270016 0.000000 0.114643 -0.265388 0.000000 0.168130 -0.261267 0.000000 0.220612 -0.255689 0.000000 0.271769 -0.250715 0.000000 0.322168 -0.244306 0.000000 0.370670 -0.238592 0.000000 0.418701 -0.231461 0.000000 0.464267 -0.225109 0.000000 0.509685 -0.217356 0.000000 0.552072 -0.210458 0.000000 0.594666 -0.202177 0.000000 0.633670 -0.194813 0.000000 0.673262 -0.186091 0.000000 0.708710 -0.178335 0.000000 0.745151 -0.169252 0.000000 0.776905 -0.161171 0.000000 0.810072 -0.151803 0.000000 0.838022 -0.143452 0.000000 0.867813 -0.133872 0.000000 0.891880 -0.125301 0.000000 0.918216 -0.115572 0.000000 0.938346 -0.106823 0.000000 0.961163 -0.097002 0.000000 0.977326 -0.088106 0.000000 0.996573 -0.078243 0.000000 1.008759 -0.069223 0.000000 1.024394 -0.059357 0.000000 1.032611 -0.050226 0.000000 1.044597 -0.040388 0.000000 1.048863 -0.031149 0.000000 1.057162 -0.021360 0.000000 1.057503 -0.012011 0.000000 1.062076 -0.002280 0.000000 1.058521 0.007188 0.000000 1.059321 0.016855 0.000000 1.051899 0.026456 0.000000 1.048871 0.036061 0.000000 1.037608 0.045804 0.000000 1.030692 0.055351 0.000000 1.015609 0.065245 0.000000 1.004735 0.074735 0.000000 0.985849 0.084777 0.000000 0.970947 0.094209 0.000000 0.948273 0.104385 0.000000 0.929274 0.113745 0.000000 0.902830 0.124026 0.000000 0.879676 0.133289 0.000000 0.849486 0.143626 0.000000 0.822136 0.152749 0.000000 0.788240 0.163071 0.000000 0.756681 0.171994 0.000000 0.719142 0.182209 0.000000 0.683397 0.190851 0.000000 0.642312 0.200844 0.000000 0.602452 0.209104 0.000000 0.557957 0.218740 0.000000 0.514109 0.226496 0.000000 0.466392 0.235622 0.000000 0.418748 0.242735 0.000000 0.368054 0.251180 0.000000 0.316875 0.257499 0.000000 0.263516 0.265080 0.000000 0.209142 0.270440 0.000000 0.153495 0.276967 0.000000 0.096345 0.281199 0.000000 0.038862 0.286479 0.000000 -0.020562 0.289410 0.000000 -0.079357 0.293250 0.000000 -0.140472 0.294714 0.000000 -0.199982 0.296927 0.000000 -0.262128 0.296764 0.000000 -0.321688 0.297179 0.000000 -0.384126 0.295247 0.000000 -0.443010 0.293710 0.000000 -0.504936 0.289886 0.000000 -0.562359 0.286272 0.000000 -0.622912 0.280464 0.000000 -0.678049 0.274684 0.000000 -0.736326 0.266839 0.000000 -0.788322 0.258848 0.000000 -0.843391 0.248958 0.000000 -0.891382 0.238766 0.000000 -0.942314 0.226878 0.000000 -0.985450 0.214558 0.000000 -1.031336 0.200781 0.000000 -1.068808 0.186473 0.000000 -1.108795 0.170982 0.000000 -1.139863 0.154899 0.000000 -1.173185 0.137937 0.000000 -1.197210 0.120361 0.000000 -1.223219 0.102231 0.000000 -1.239692 0.083507 0.000000 -1.257888 0.064570 0.000000 -1.266456 0.045093 0.000000 -1.276513 0.025745 0.000000 -1.276994 0.005944 0.000000 -1.278773 -0.013397 0.000000 -1.271173 -0.033082 0.000000 -1.264728 -0.051995 0.000000 -1.249236 -0.071135 0.000000 -1.234811 -0.089223 0.000000 -1.211791 -0.107419 0.000000 -1.189805 -0.124325 0.000000 -1.159775 -0.141230 0.000000 -1.130796 -0.156653 0.000000 -1.094405 -0.171984 0.000000 -1.059122 -0.185689 0.000000 -1.017116 -0.199237 0.000000 -0.976303 -0.211061 0.000000 -0.929492 -0.222690 0.000000 -0.883975 -0.232540 0.000000 -0.833203 -0.242188 0.000000 -0.783827 -0.250037 0.000000 -0.729940 -0.257704 0.000000 -0.677542 -0.263583 0.000000 -0.621366 -0.269323 0.000000 -0.566751 -0.273307 0.000000 -0.509072 -0.277216 0.000000 -0.452997 -0.279415 0.000000 
-0.396142 -0.339454 0.000000 -0.338377 -0.340026 0.000000 -0.278979 -0.340715 0.000000 -0.221167 -0.339473 0.000000 -0.162361 -0.338470 0.000000 -0.105067 -0.335596 0.000000 -0.047394 -0.333085 0.000000 0.008885 -0.328754 0.000000 0.064945 -0.324914 0.000000 0.119776 -0.319293 0.000000 0.173806 -0.314287 0.000000 0.226813 -0.307533 0.000000 0.278444 -0.301512 0.000000 0.329304 -0.293767 0.000000 0.378218 -0.286866 0.000000 0.426649 -0.278260 0.000000 0.472571 -0.270602 0.000000 0.518333 -0.261254 0.000000 0.561023 -0.252947 0.000000 0.603911 -0.242970 0.000000 0.643166 -0.234111 0.000000 0.683007 -0.223608 0.000000 0.718659 -0.214285 0.000000 0.755307 -0.203352 0.000000 0.787219 -0.193643 0.000000 0.820553 -0.182373 0.000000 0.848620 -0.172346 0.000000 0.878545 -0.160823 0.000000 0.902689 -0.150538 0.000000 0.929128 -0.138841 0.000000 0.949301 -0.128346 0.000000 0.972196 -0.116543 0.000000 0.988372 -0.105878 0.000000 1.007676 -0.094028 0.000000 1.019851 -0.083218 0.000000 1.035529 -0.071369 0.000000 1.043716 -0.060430 0.000000 1.055734 -0.048618 0.000000 1.059957 -0.037553 0.000000 1.068285 -0.025802 0.000000 1.068575 -0.014606 0.000000 1.073175 -0.002929 0.000000 1.069567 0.008411 0.000000 1.070395 0.020012 0.000000 1.062921 0.031513 0.000000 1.059924 0.043041 0.000000 1.048612 0.054718 0.000000 1.041726 0.066179 0.000000 1.026597 0.078045 0.000000 1.015751 0.089443 0.000000 0.996820 0.101497 0.000000 0.981937 0.112831 0.000000 0.959215 0.125058 0.000000 0.940218 0.136315 0.000000 0.913716 0.148681 0.000000 0.890537 0.159831 0.000000 0.860270 0.172277 0.000000 0.832859 0.183271 0.000000 0.798857 0.195714 0.000000 0.767188 0.206479 0.000000 0.729503 0.218807 0.000000 0.693589 0.229245 0.000000 0.652305 0.241320 0.000000 0.612205 0.251307 0.000000 0.567449 0.262965 0.000000 0.523279 0.272356 0.000000 0.475227 0.283409 0.000000 0.427170 0.292035 0.000000 0.376060 0.302276 0.000000 0.324371 0.309952 0.000000 0.270506 0.319160 0.000000 0.215519 0.325686 0.000000 0.159273 0.333630 0.000000 0.101405 0.338800 0.000000 0.043228 0.345244 0.000000 -0.017020 0.348849 0.000000 -0.076603 0.353558 0.000000 -0.138645 0.355394 0.000000 -0.199034 0.358144 0.000000 -0.262202 0.358016 0.000000 -0.322724 0.358596 0.000000 -0.386270 0.356329 0.000000 -0.446187 0.354553 0.000000 -0.509291 0.349998 0.000000 -0.567805 0.345709 0.000000 -0.629586 0.338752 0.000000 -0.685850 0.331840 0.000000 -0.745379 0.322412 0.000000 -0.798513 0.312820 0.000000 -0.854830 0.300907 0.000000 -0.903940 0.288643 0.000000 -0.956077 0.274301 0.000000 -1.000278 0.259449 0.000000 -1.047289 0.242807 0.000000 -1.085734 0.225534 0.000000 -1.126724 0.206802 0.000000 -1.158636 0.187365 0.000000 -1.192800 0.166837 0.000000 -1.217503 0.145577 0.000000 -1.244156 0.123625 0.000000 -1.261110 0.100962 0.000000 -1.279724 0.078023 0.000000 -1.288551 0.054441 0.000000 -1.298781 0.031002 0.000000 -1.299287 0.007026 0.000000 -1.300986 -0.016400 0.000000 -1.293176 -0.040232 0.000000 -1.286404 -0.063131 0.000000 -1.270476 -0.086292 0.000000 -1.255497 -0.108178 0.000000 -1.231837 -0.130181 0.000000 -1.209098 -0.150617 0.000000 -1.178257 -0.171038 0.000000 -1.148362 -0.189658 0.000000 -1.111024 -0.208154 0.000000 -1.074704 -0.224674 0.000000 -1.031656 -0.240992 0.000000 -0.989727 -0.255217 0.000000 -0.941818 -0.269197 0.000000 -0.895147 -0.281020 0.000000 -0.843259 -0.292590 0.000000 -0.792728 -0.301984 0.000000 -0.737739 -0.311149 0.000000 -0.684214 -0.318155 0.000000 -0.626975 -0.324988 0.000000 -0.571285 -0.329704 0.000000 -0.512603 -0.334325 0.000000 -0.455522 -0.336887 0.000000 
-0.397689 -0.398763 0.000000 -0.338972 -0.399325 0.000000 -0.278614 -0.400013 0.000000 -0.219951 -0.398455 0.000000 -0.160284 -0.397167 0.000000 -0.102239 -0.393703 0.000000 -0.043802 -0.390659 0.000000 0.013133 -0.385499 0.000000 0.069868 -0.380907 0.000000 0.125268 -0.374249 0.000000 0.179889 -0.368304 0.000000 0.233386 -0.360328 0.000000 0.285533 -0.353206 0.000000 0.336812 -0.344080 0.000000 0.386174 -0.335938 0.000000 0.434964 -0.325813 0.000000 0.481270 -0.316793 0.000000 0.527337 -0.305808 0.000000 0.570354 -0.296036 0.000000 0.613499 -0.284321 0.000000 0.653029 -0.273909 0.000000 0.693086 -0.261584 0.000000 0.728963 -0.250635 0.000000 0.765791 -0.237812 0.000000 0.797882 -0.226417 0.000000 0.831366 -0.213204 0.000000 0.859569 -0.201444 0.000000 0.889618 -0.187941 0.000000 0.913860 -0.175885 0.000000 0.940405 -0.162184 0.000000 0.960641 -0.149890 0.000000 0.983628 -0.136073 0.000000 0.999838 -0.123587 0.000000 1.019229 -0.109723 0.000000 1.031415 -0.097076 0.000000 1.047179 -0.083222 0.000000 1.055359 -0.070431 0.000000 1.067469 -0.056629 0.000000 1.071675 -0.043700 0.000000 1.080104 -0.029977 0.000000 1.080372 -0.016901 0.000000 1.085088 -0.003272 0.000000 1.081456 0.009968 0.000000 1.082416 0.023501 0.000000 1.074920 0.036927 0.000000 1.072069 0.050370 0.000000 1.060738 0.064002 0.000000 1.054008 0.077366 0.000000 1.038862 0.091220 0.000000 1.028175 0.104512 0.000000 1.009224 0.118591 0.000000 0.994495 0.131814 0.000000 0.971743 0.146104 0.000000 0.952882 0.159245 0.000000 0.926330 0.173707 0.000000 0.903257 0.186735 0.000000 0.872909 0.201304 0.000000 0.845555 0.214162 0.000000 0.811430 0.228741 0.000000 0.779755 0.241348 0.000000 0.741889 0.255808 0.000000 0.705891 0.268049 0.000000 0.664355 0.282228 0.000000 0.624078 0.293960 0.000000 0.578985 0.307666 0.000000 0.534533 0.318718 0.000000 0.486051 0.331731 0.000000 0.437595 0.341903 0.000000 0.385950 0.353979 0.000000 0.333738 0.363053 0.000000 0.279228 0.373932 0.000000 0.223590 0.381673 0.000000 0.166586 0.391081 0.000000 0.107937 0.397244 0.000000 0.048888 0.404904 0.000000 -0.012269 0.409241 0.000000 -0.072834 0.414875 0.000000 -0.135909 0.417145 0.000000 -0.197382 0.420483 0.000000 -0.261697 0.420455 0.000000 -0.323397 0.421247 0.000000 -0.388192 0.418709 0.000000 -0.449364 0.416731 0.000000 -0.513801 0.411504 0.000000 -0.573627 0.406567 0.000000 -0.636803 0.398510 0.000000 -0.694411 0.390477 0.000000 -0.755368 0.379502 0.000000 -0.809846 0.368299 0.000000 -0.867589 0.354385 0.000000 -0.918009 0.340013 0.000000 -0.971528 0.323216 0.000000 -1.016964 0.305770 0.000000 -1.065270 0.286237 0.000000 -1.104831 0.265909 0.000000 -1.146982 0.243885 0.000000 -1.179846 0.220975 0.000000 -1.214989 0.196804 0.000000 -1.240439 0.171717 0.000000 -1.267849 0.145838 0.000000 -1.285309 0.119076 0.000000 -1.304423 0.092011 0.000000 -1.313491 0.064149 0.000000 -1.323942 0.036481 0.000000 -1.324410 0.008149 0.000000 -1.326043 -0.019509 0.000000 -1.317917 -0.047664 0.000000 -1.310799 -0.074695 0.000000 -1.294294 -0.102042 0.000000 -1.278709 -0.127862 0.000000 -1.254239 -0.153818 0.000000 -1.230670 -0.177906 0.000000 -1.198824 -0.201966 0.000000 -1.167920 -0.223886 0.000000 -1.129429 -0.245642 0.000000 -1.091967 -0.265058 0.000000 -1.047666 -0.284214 0.000000 -1.004514 -0.300898 0.000000 -0.955301 -0.317269 0.000000 -0.907373 -0.331099 0.000000 -0.854170 -0.344607 0.000000 -0.802390 -0.355558 0.000000 -0.746115 -0.366218 0.000000 -0.691384 -0.374347 0.000000 -0.632917 -0.382251 0.000000 -0.576091 -0.387679 0.000000 -0.516258 -0.392980 0.000000 -0.458127 -0.395876 0.000000 