# vtk DataFile Version 2.0
Comment goes here
ASCII

DATASET STRUCTURED_POINTS
FIELD FieldData 1
TIME 1 1 double
0.18500000
DIMENSIONS    128   128   1

ORIGIN    0.000   0.000   0.000
SPACING   0.039062 0.039062   1.000

POINT_DATA   16384
VECTORS u double

-0.002734 -0.000000 0.000000 0.002631 -0.000000 0.000000 0.009362 -0.000000 0.000000 0.015387 -0.000000 0.000000 0.022599 -0.000000 0.000000 0.029158 -0.000000 0.000000 0.036705 -0.000000 0.000000 0.043646 -0.000000 0.000000 0.051358 -0.000000 0.000000 0.058508 -0.000000 0.000000 0.066198 -0.000000 0.000000 0.073366 -0.000000 0.000000 0.080835 -0.000000 0.000000 0.087821 -0.000000 0.000000 0.094864 -0.000000 0.000000 0.101465 -0.000000 0.000000 0.107881 -0.000000 0.000000 0.113898 -0.000000 0.000000 0.119495 -0.000000 0.000000 0.124740 -0.000000 0.000000 0.129345 -0.000000 0.000000 0.133650 -0.000000 0.000000 0.137113 -0.000000 0.000000 0.140337 -0.000000 0.000000 0.142540 -0.000000 0.000000 0.144572 -0.000000 0.000000 0.145432 -0.000000 0.000000 0.146198 -0.000000 0.000000 0.145673 -0.000000 0.000000 0.145136 -0.000000 0.000000 0.143223 -0.000000 0.000000 0.141386 -0.000000 0.000000 0.138124 -0.000000 0.000000 0.135028 -0.000000 0.000000 0.130491 -0.000000 0.000000 0.126214 -0.000000 0.000000 0.120512 -0.000000 0.000000 0.115163 -0.000000 0.000000 0.108433 -0.000000 0.000000 0.102149 -0.000000 0.000000 0.094553 -0.000000 0.000000 0.087491 -0.000000 0.000000 0.079206 -0.000000 0.000000 0.071540 -0.000000 0.000000 0.062754 -0.000000 0.000000 0.054669 -0.000000 0.000000 0.045573 -0.000000 0.000000 0.037257 -0.000000 0.000000 0.028042 -0.000000 0.000000 0.019681 -0.000000 0.000000 0.010533 -0.000000 0.000000 0.002307 -0.000000 0.000000 -0.006600 -0.000000 0.000000 -0.014518 -0.000000 0.000000 -0.023023 -0.000000 0.000000 -0.030477 -0.000000 0.000000 -0.038433 -0.000000 0.000000 -0.045281 -0.000000 0.000000 -0.052561 -0.000000 0.000000 -0.058681 -0.000000 0.000000 -0.065177 -0.000000 0.000000 -0.070468 -0.000000 0.000000 -0.076094 -0.000000 0.000000 -0.080478 -0.000000 0.000000 -0.085171 -0.000000 0.000000 -0.088595 -0.000000 0.000000 -0.092313 -0.000000 0.000000 -0.094750 -0.000000 0.000000 -0.097480 -0.000000 0.000000 -0.098929 -0.000000 0.000000 -0.100680 -0.000000 0.000000 -0.101171 -0.000000 0.000000 -0.101980 -0.000000 0.000000 -0.101568 -0.000000 0.000000 -0.101497 -0.000000 0.000000 -0.100267 -0.000000 0.000000 -0.099402 -0.000000 0.000000 -0.097462 -0.000000 0.000000 -0.095912 -0.000000 0.000000 -0.093396 -0.000000 0.000000 -0.091288 -0.000000 0.000000 -0.088347 -0.000000 0.000000 -0.085821 -0.000000 0.000000 -0.082618 -0.000000 0.000000 -0.079825 -0.000000 0.000000 -0.076529 -0.000000 0.000000 -0.073618 -0.000000 0.000000 -0.070397 -0.000000 0.000000 -0.067513 -0.000000 0.000000 -0.064520 -0.000000 0.000000 -0.061792 -0.000000 0.000000 -0.059164 -0.000000 0.000000 -0.056699 -0.000000 0.000000 -0.054543 -0.000000 0.000000 -0.052421 -0.000000 0.000000 -0.050809 -0.000000 0.000000 -0.049078 -0.000000 0.000000 -0.048042 -0.000000 0.000000 -0.046712 -0.000000 0.000000 -0.046245 -0.000000 0.000000 -0.045291 -0.000000 0.000000 -0.045341 -0.000000 0.000000 -0.044703 -0.000000 0.000000 -0.045184 -0.000000 0.000000 -0.044773 -0.000000 0.000000 -0.045563 -0.000000 0.000000 -0.045264 -0.000000 0.000000 -0.046220 -0.000000 0.000000 -0.045900 -0.000000 0.000000 -0.046862 -0.000000 0.000000 -0.046381 -0.000000 0.000000 -0.047182 -0.000000 0.000000 -0.046398 -0.000000 0.000000 -0.046876 -0.000000 0.000000 -0.045655 -0.000000 0.000000 -0.045657 -0.000000 0.000000 -0.043882 -0.000000 0.000000 -0.043275 -0.000000 0.000000 -0.040847 -0.000000 0.000000 -0.039525 -0.000000 0.000000 -0.036374 -0.000000 0.000000 -0.034260 -0.000000 0.000000 -0.030344 -0.000000 0.000000 -0.027394 -0.000000 0.000000 -0.022705 -0.000000 0.000000 -0.018912 -0.000000 0.000000 -0.013474 -0.000000 0.000000 -0.008863 -0.000000 0.000000 
-0.002841 -0.005747 0.000000 0.002537 -0.006048 0.000000 0.009258 -0.006378 0.000000 0.015299 -0.006618 0.000000 0.022507 -0.006886 0.000000 0.029084 -0.007053 0.000000 0.036633 -0.007244 0.000000 0.043594 -0.007327 0.000000 0.051312 -0.007431 0.000000 0.058483 -0.007420 0.000000 0.066183 -0.007429 0.000000 0.073372 -0.007318 0.000000 0.080854 -0.007227 0.000000 0.087860 -0.007015 0.000000 0.094919 -0.006822 0.000000 0.101537 -0.006508 0.000000 0.107971 -0.006216 0.000000 0.114001 -0.005807 0.000000 0.119616 -0.005421 0.000000 0.124872 -0.004925 0.000000 0.129493 -0.004455 0.000000 0.133804 -0.003884 0.000000 0.137281 -0.003343 0.000000 0.140506 -0.002713 0.000000 0.142720 -0.002117 0.000000 0.144747 -0.001446 0.000000 0.145616 -0.000813 0.000000 0.146371 -0.000120 0.000000 0.145851 0.000531 0.000000 0.145296 0.001225 0.000000 0.143385 0.001875 0.000000 0.141525 0.002550 0.000000 0.138260 0.003179 0.000000 0.135136 0.003816 0.000000 0.130594 0.004407 0.000000 0.126284 0.004990 0.000000 0.120573 0.005526 0.000000 0.115187 0.006039 0.000000 0.108447 0.006507 0.000000 0.102122 0.006940 0.000000 0.094515 0.007329 0.000000 0.087411 0.007673 0.000000 0.079114 0.007975 0.000000 0.071404 0.008226 0.000000 0.062607 0.008436 0.000000 0.054477 0.008590 0.000000 0.045371 0.008706 0.000000 0.037010 0.008765 0.000000 0.027787 0.008788 0.000000 0.019383 0.008755 0.000000 0.010228 0.008687 0.000000 0.001962 0.008566 0.000000 -0.006949 0.008413 0.000000 -0.014905 0.008211 0.000000 -0.023410 0.007979 0.000000 -0.030898 0.007705 0.000000 -0.038852 0.007402 0.000000 -0.045730 0.007064 0.000000 -0.053004 0.006700 0.000000 -0.059149 0.006308 0.000000 -0.065635 0.005894 0.000000 -0.070946 0.005459 0.000000 -0.076558 0.005005 0.000000 -0.080956 0.004538 0.000000 -0.085631 0.004058 0.000000 -0.089061 0.003571 0.000000 -0.092758 0.003078 0.000000 -0.095195 0.002583 0.000000 -0.097899 0.002090 0.000000 -0.099342 0.001600 0.000000 -0.101064 0.001121 0.000000 -0.101541 0.000650 0.000000 -0.102317 0.000199 0.000000 -0.101884 -0.000241 0.000000 -0.101777 -0.000651 0.000000 -0.100519 -0.001048 0.000000 -0.099615 -0.001402 0.000000 -0.097643 -0.001745 0.000000 -0.096052 -0.002033 0.000000 -0.093498 -0.002312 0.000000 -0.091347 -0.002525 0.000000 -0.088364 -0.002733 0.000000 -0.085797 -0.002864 0.000000 -0.082550 -0.002998 0.000000 -0.079717 -0.003044 0.000000 -0.076376 -0.003103 0.000000 -0.073428 -0.003066 0.000000 -0.070162 -0.003053 0.000000 -0.067245 -0.002938 0.000000 -0.064211 -0.002860 0.000000 -0.061457 -0.002678 0.000000 -0.058791 -0.002546 0.000000 -0.056308 -0.002310 0.000000 -0.054118 -0.002139 0.000000 -0.051987 -0.001867 0.000000 -0.050348 -0.001672 0.000000 -0.048617 -0.001383 0.000000 -0.047561 -0.001183 0.000000 -0.046240 -0.000899 0.000000 -0.045759 -0.000711 0.000000 -0.044824 -0.000452 0.000000 -0.044867 -0.000294 0.000000 -0.044258 -0.000079 0.000000 -0.044737 0.000035 0.000000 -0.044362 0.000190 0.000000 -0.045156 0.000245 0.000000 -0.044898 0.000328 0.000000 -0.045862 0.000318 0.000000 -0.045589 0.000321 0.000000 -0.046561 0.000240 0.000000 -0.046129 0.000160 0.000000 -0.046941 0.000009 0.000000 -0.046208 -0.000153 0.000000 -0.046696 -0.000371 0.000000 -0.045525 -0.000609 0.000000 -0.045536 -0.000887 0.000000 -0.043809 -0.001191 0.000000 -0.043209 -0.001517 0.000000 -0.040826 -0.001875 0.000000 -0.039508 -0.002237 0.000000 -0.036397 -0.002633 0.000000 -0.034284 -0.003015 0.000000 -0.030403 -0.003433 0.000000 -0.027450 -0.003819 0.000000 -0.022790 -0.004241 0.000000 -0.018990 -0.004616 0.000000 -0.013574 -0.005024 0.000000 -0.008954 -0.005370 0.000000 
-0.003413 -0.011491 0.000000 0.002000 -0.012099 0.000000 0.008791 -0.012761 0.000000 0.014878 -0.013249 0.000000 0.022164 -0.013785 0.000000 0.028799 -0.014126 0.000000 0.036431 -0.014510 0.000000 0.043459 -0.014680 0.000000 0.051265 -0.014889 0.000000 0.058510 -0.014871 0.000000 0.066299 -0.014889 0.000000 0.073567 -0.014671 0.000000 0.081138 -0.014488 0.000000 0.088226 -0.014065 0.000000 0.095370 -0.013678 0.000000 0.102070 -0.013052 0.000000 0.108582 -0.012464 0.000000 0.114692 -0.011646 0.000000 0.120377 -0.010870 0.000000 0.125706 -0.009876 0.000000 0.130385 -0.008932 0.000000 0.134762 -0.007789 0.000000 0.138283 -0.006702 0.000000 0.141563 -0.005439 0.000000 0.143806 -0.004241 0.000000 0.145876 -0.002896 0.000000 0.146758 -0.001623 0.000000 0.147542 -0.000235 0.000000 0.147018 0.001074 0.000000 0.146479 0.002466 0.000000 0.144548 0.003771 0.000000 0.142690 0.005125 0.000000 0.139390 0.006389 0.000000 0.136256 0.007666 0.000000 0.131664 0.008853 0.000000 0.127333 0.010021 0.000000 0.121561 0.011097 0.000000 0.116144 0.012126 0.000000 0.109334 0.013065 0.000000 0.102970 0.013932 0.000000 0.095285 0.014712 0.000000 0.088136 0.015401 0.000000 0.079757 0.016006 0.000000 0.072000 0.016507 0.000000 0.063117 0.016927 0.000000 0.054939 0.017236 0.000000 0.045747 0.017467 0.000000 0.037337 0.017584 0.000000 0.028030 0.017627 0.000000 0.019578 0.017559 0.000000 0.010342 0.017421 0.000000 0.002031 0.017177 0.000000 -0.006957 0.016867 0.000000 -0.014954 0.016461 0.000000 -0.023531 0.015993 0.000000 -0.031056 0.015441 0.000000 -0.039076 0.014831 0.000000 -0.045985 0.014152 0.000000 -0.053319 0.013419 0.000000 -0.059489 0.012632 0.000000 -0.066029 0.011797 0.000000 -0.071359 0.010923 0.000000 -0.077017 0.010010 0.000000 -0.081428 0.009072 0.000000 -0.086141 0.008106 0.000000 -0.089578 0.007128 0.000000 -0.093304 0.006134 0.000000 -0.095741 0.005141 0.000000 -0.098465 0.004147 0.000000 -0.099901 0.003164 0.000000 -0.101634 0.002199 0.000000 -0.102096 0.001253 0.000000 -0.102874 0.000344 0.000000 -0.102420 -0.000540 0.000000 -0.102306 -0.001365 0.000000 -0.101021 -0.002162 0.000000 -0.100102 -0.002876 0.000000 -0.098096 -0.003564 0.000000 -0.096482 -0.004145 0.000000 -0.093891 -0.004704 0.000000 -0.091712 -0.005134 0.000000 -0.088689 -0.005550 0.000000 -0.086089 -0.005815 0.000000 -0.082801 -0.006081 0.000000 -0.079933 -0.006174 0.000000 -0.076554 -0.006288 0.000000 -0.073571 -0.006214 0.000000 -0.070272 -0.006183 0.000000 -0.067323 -0.005951 0.000000 -0.064263 -0.005789 0.000000 -0.061481 -0.005420 0.000000 -0.058800 -0.005149 0.000000 -0.056295 -0.004672 0.000000 -0.054103 -0.004320 0.000000 -0.051957 -0.003770 0.000000 -0.050329 -0.003371 0.000000 -0.048592 -0.002787 0.000000 -0.047561 -0.002376 0.000000 -0.046243 -0.001802 0.000000 -0.045800 -0.001416 0.000000 -0.044876 -0.000892 0.000000 -0.044970 -0.000566 0.000000 -0.044378 -0.000130 0.000000 -0.044918 0.000104 0.000000 -0.044564 0.000419 0.000000 -0.045427 0.000537 0.000000 -0.045193 0.000706 0.000000 -0.046229 0.000690 0.000000 -0.045979 0.000699 0.000000 -0.047025 0.000540 0.000000 -0.046614 0.000380 0.000000 -0.047497 0.000079 0.000000 -0.046780 -0.000245 0.000000 -0.047333 -0.000682 0.000000 -0.046172 -0.001160 0.000000 -0.046240 -0.001717 0.000000 -0.044513 -0.002327 0.000000 -0.043960 -0.002983 0.000000 -0.041568 -0.003701 0.000000 -0.040284 -0.004429 0.000000 -0.037153 -0.005224 0.000000 -0.035061 -0.005994 0.000000 -0.031150 -0.006833 0.000000 -0.028204 -0.007613 0.000000 -0.023503 -0.008460 0.000000 -0.019695 -0.009216 0.000000 -0.014228 -0.010036 0.000000 -0.009587 -0.010734 0.000000 
-0.004208 -0.017334 0.000000 0.001266 -0.018251 0.000000 0.008107 -0.019256 0.000000 0.014273 -0.019992 0.000000 0.021629 -0.020806 0.000000 0.028359 -0.021320 0.000000 0.036078 -0.021904 0.000000 0.043213 -0.022161 0.000000 0.051120 -0.022482 0.000000 0.058481 -0.022454 0.000000 0.066382 -0.022487 0.000000 0.073772 -0.022157 0.000000 0.081459 -0.021886 0.000000 0.088669 -0.021247 0.000000 0.095931 -0.020667 0.000000 0.102749 -0.019721 0.000000 0.109376 -0.018838 0.000000 0.115594 -0.017601 0.000000 0.121384 -0.016435 0.000000 0.126808 -0.014933 0.000000 0.131580 -0.013511 0.000000 0.136034 -0.011782 0.000000 0.139630 -0.010145 0.000000 0.142965 -0.008236 0.000000 0.145263 -0.006431 0.000000 0.147365 -0.004398 0.000000 0.148277 -0.002479 0.000000 0.149068 -0.000381 0.000000 0.148550 0.001593 0.000000 0.147993 0.003695 0.000000 0.146044 0.005664 0.000000 0.144142 0.007708 0.000000 0.140801 0.009613 0.000000 0.137599 0.011542 0.000000 0.132947 0.013330 0.000000 0.128527 0.015093 0.000000 0.122678 0.016714 0.000000 0.117154 0.018267 0.000000 0.110253 0.019681 0.000000 0.103769 0.020989 0.000000 0.095983 0.022163 0.000000 0.088703 0.023201 0.000000 0.080218 0.024112 0.000000 0.072324 0.024866 0.000000 0.063333 0.025497 0.000000 0.055015 0.025961 0.000000 0.045717 0.026308 0.000000 0.037168 0.026482 0.000000 0.027760 0.026547 0.000000 0.019173 0.026443 0.000000 0.009843 0.026234 0.000000 0.001405 0.025865 0.000000 -0.007668 0.025398 0.000000 -0.015783 0.024786 0.000000 -0.024434 0.024081 0.000000 -0.032064 0.023249 0.000000 -0.040146 0.022331 0.000000 -0.047147 0.021307 0.000000 -0.054529 0.020205 0.000000 -0.060775 0.019019 0.000000 -0.067349 0.017763 0.000000 -0.072738 0.016447 0.000000 -0.078414 0.015074 0.000000 -0.082865 0.013661 0.000000 -0.087580 0.012208 0.000000 -0.091039 0.010735 0.000000 -0.094751 0.009240 0.000000 -0.097188 0.007744 0.000000 -0.099881 0.006249 0.000000 -0.101296 0.004769 0.000000 -0.102981 0.003316 0.000000 -0.103402 0.001890 0.000000 -0.104115 0.000523 0.000000 -0.103599 -0.000809 0.000000 -0.103404 -0.002050 0.000000 -0.102037 -0.003252 0.000000 -0.101023 -0.004327 0.000000 -0.098918 -0.005364 0.000000 -0.097198 -0.006238 0.000000 -0.094492 -0.007082 0.000000 -0.092200 -0.007727 0.000000 -0.089052 -0.008356 0.000000 -0.086334 -0.008752 0.000000 -0.082916 -0.009154 0.000000 -0.079931 -0.009292 0.000000 -0.076422 -0.009465 0.000000 -0.073329 -0.009348 0.000000 -0.069906 -0.009301 0.000000 -0.066858 -0.008947 0.000000 -0.063687 -0.008703 0.000000 -0.060823 -0.008142 0.000000 -0.058049 -0.007732 0.000000 -0.055485 -0.007008 0.000000 -0.053222 -0.006476 0.000000 -0.051043 -0.005641 0.000000 -0.049371 -0.005037 0.000000 -0.047628 -0.004152 0.000000 -0.046580 -0.003531 0.000000 -0.045285 -0.002659 0.000000 -0.044854 -0.002078 0.000000 -0.043979 -0.001282 0.000000 -0.044111 -0.000792 0.000000 -0.043592 -0.000131 0.000000 -0.044192 0.000221 0.000000 -0.043933 0.000699 0.000000 -0.044873 0.000874 0.000000 -0.044748 0.001131 0.000000 -0.045874 0.001105 0.000000 -0.045743 0.001117 0.000000 -0.046882 0.000875 0.000000 -0.046593 0.000632 0.000000 -0.047570 0.000175 0.000000 -0.046972 -0.000318 0.000000 -0.047613 -0.000979 0.000000 -0.046562 -0.001703 0.000000 -0.046706 -0.002546 0.000000 -0.045078 -0.003471 0.000000 -0.044585 -0.004463 0.000000 -0.042274 -0.005551 0.000000 -0.041034 -0.006651 0.000000 -0.037964 -0.007856 0.000000 -0.035895 -0.009019 0.000000 -0.032023 -0.010289 0.000000 -0.029079 -0.011466 0.000000 -0.024394 -0.012750 0.000000 -0.020567 -0.013890 0.000000 -0.015094 -0.015133 0.000000 -0.010411 -0.016186 0.000000 
-0.005480 -0.023168 0.000000 0.000076 -0.024414 0.000000 0.007049 -0.025769 0.000000 0.013326 -0.026771 0.000000 0.020834 -0.027871 0.000000 0.027699 -0.028574 0.000000 0.035588 -0.029364 0.000000 0.042880 -0.029722 0.000000 0.050969 -0.030157 0.000000 0.058503 -0.030133 0.000000 0.066594 -0.030179 0.000000 0.074167 -0.029748 0.000000 0.082047 -0.029385 0.000000 0.089444 -0.028537 0.000000 0.096894 -0.027758 0.000000 0.103897 -0.026496 0.000000 0.110700 -0.025309 0.000000 0.117095 -0.023654 0.000000 0.123044 -0.022084 0.000000 0.128628 -0.020072 0.000000 0.133534 -0.018158 0.000000 0.138127 -0.015839 0.000000 0.141828 -0.013634 0.000000 0.145275 -0.011072 0.000000 0.147644 -0.008641 0.000000 0.149827 -0.005910 0.000000 0.150774 -0.003326 0.000000 0.151613 -0.000508 0.000000 0.151092 0.002149 0.000000 0.150549 0.004972 0.000000 0.148560 0.007622 0.000000 0.146639 0.010367 0.000000 0.143223 0.012931 0.000000 0.139972 0.015521 0.000000 0.135213 0.017925 0.000000 0.130715 0.020290 0.000000 0.124734 0.022469 0.000000 0.119109 0.024551 0.000000 0.112054 0.026450 0.000000 0.105450 0.028202 0.000000 0.097496 0.029777 0.000000 0.090083 0.031166 0.000000 0.081419 0.032386 0.000000 0.073383 0.033392 0.000000 0.064210 0.034237 0.000000 0.055746 0.034852 0.000000 0.046266 0.035313 0.000000 0.037573 0.035541 0.000000 0.027986 0.035623 0.000000 0.019260 0.035476 0.000000 0.009760 0.035189 0.000000 0.001190 0.034688 0.000000 -0.008042 0.034055 0.000000 -0.016277 0.033228 0.000000 -0.025074 0.032274 0.000000 -0.032812 0.031153 0.000000 -0.041024 0.029913 0.000000 -0.048118 0.028535 0.000000 -0.055615 0.027048 0.000000 -0.061938 0.025452 0.000000 -0.068608 0.023759 0.000000 -0.074056 0.021989 0.000000 -0.079811 0.020138 0.000000 -0.084302 0.018238 0.000000 -0.089075 0.016279 0.000000 -0.092554 0.014298 0.000000 -0.096303 0.012283 0.000000 -0.098740 0.010271 0.000000 -0.101449 0.008255 0.000000 -0.102842 0.006264 0.000000 -0.104520 0.004304 0.000000 -0.104898 0.002387 0.000000 -0.105583 0.000541 0.000000 -0.105002 -0.001251 0.000000 -0.104758 -0.002927 0.000000 -0.103307 -0.004542 0.000000 -0.102223 -0.005995 0.000000 -0.100017 -0.007389 0.000000 -0.098210 -0.008570 0.000000 -0.095389 -0.009703 0.000000 -0.092996 -0.010574 0.000000 -0.089724 -0.011416 0.000000 -0.086896 -0.011950 0.000000 -0.083351 -0.012484 0.000000 -0.080253 -0.012668 0.000000 -0.076620 -0.012890 0.000000 -0.073418 -0.012730 0.000000 -0.069881 -0.012653 0.000000 -0.066734 -0.012170 0.000000 -0.063468 -0.011824 0.000000 -0.060520 -0.011058 0.000000 -0.057675 -0.010488 0.000000 -0.055047 -0.009499 0.000000 -0.052745 -0.008762 0.000000 -0.050527 -0.007622 0.000000 -0.048848 -0.006786 0.000000 -0.047094 -0.005578 0.000000 -0.046076 -0.004719 0.000000 -0.044797 -0.003528 0.000000 -0.044431 -0.002722 0.000000 -0.043598 -0.001635 0.000000 -0.043826 -0.000953 0.000000 -0.043372 -0.000049 0.000000 -0.044095 0.000444 0.000000 -0.043917 0.001099 0.000000 -0.045000 0.001352 0.000000 -0.044968 0.001707 0.000000 -0.046249 0.001685 0.000000 -0.046215 0.001707 0.000000 -0.047514 0.001391 0.000000 -0.047319 0.001068 0.000000 -0.048452 0.000458 0.000000 -0.047938 -0.000203 0.000000 -0.048723 -0.001092 0.000000 -0.047743 -0.002066 0.000000 -0.048012 -0.003201 0.000000 -0.046433 -0.004448 0.000000 -0.046043 -0.005786 0.000000 -0.043759 -0.007253 0.000000 -0.042592 -0.008739 0.000000 -0.039524 -0.010363 0.000000 -0.037497 -0.011936 0.000000 -0.033600 -0.013649 0.000000 -0.030667 -0.015241 0.000000 -0.025929 -0.016972 0.000000 -0.022081 -0.018516 0.000000 -0.016526 -0.020192 0.000000 -0.011791 -0.021619 0.000000 
-0.007005 -0.029201 0.000000 -0.001338 -0.030780 0.000000 0.005747 -0.032506 0.000000 0.012169 -0.033777 0.000000 0.019824 -0.035179 0.000000 0.026863 -0.036074 0.000000 0.034928 -0.037085 0.000000 0.042418 -0.037542 0.000000 0.050707 -0.038105 0.000000 0.058457 -0.038079 0.000000 0.066764 -0.038150 0.000000 0.074563 -0.037610 0.000000 0.082669 -0.037163 0.000000 0.090294 -0.036094 0.000000 0.097970 -0.035120 0.000000 0.105196 -0.033527 0.000000 0.112215 -0.032036 0.000000 0.118818 -0.029945 0.000000 0.124965 -0.027968 0.000000 0.130733 -0.025423 0.000000 0.135811 -0.023010 0.000000 0.140556 -0.020076 0.000000 0.144395 -0.017293 0.000000 0.147957 -0.014052 0.000000 0.150423 -0.010982 0.000000 0.152677 -0.007528 0.000000 0.153678 -0.004264 0.000000 0.154542 -0.000699 0.000000 0.154029 0.002657 0.000000 0.153464 0.006227 0.000000 0.151437 0.009574 0.000000 0.149449 0.013044 0.000000 0.145953 0.016281 0.000000 0.142592 0.019552 0.000000 0.137715 0.022586 0.000000 0.133070 0.025572 0.000000 0.126937 0.028321 0.000000 0.121133 0.030946 0.000000 0.113902 0.033340 0.000000 0.107094 0.035547 0.000000 0.098945 0.037530 0.000000 0.091309 0.039278 0.000000 0.082441 0.040811 0.000000 0.074171 0.042075 0.000000 0.064789 0.043135 0.000000 0.056087 0.043904 0.000000 0.046402 0.044481 0.000000 0.037472 0.044762 0.000000 0.027689 0.044860 0.000000 0.018733 0.044669 0.000000 0.009049 0.044303 0.000000 0.000263 0.043667 0.000000 -0.009137 0.042865 0.000000 -0.017572 0.041819 0.000000 -0.026517 0.040616 0.000000 -0.034434 0.039199 0.000000 -0.042773 0.037637 0.000000 -0.050022 0.035898 0.000000 -0.057622 0.034024 0.000000 -0.064074 0.032012 0.000000 -0.070822 0.029881 0.000000 -0.076369 0.027650 0.000000 -0.082175 0.025320 0.000000 -0.086735 0.022926 0.000000 -0.091531 0.020460 0.000000 -0.095046 0.017963 0.000000 -0.098789 0.015426 0.000000 -0.101227 0.012890 0.000000 -0.103899 0.010352 0.000000 -0.105258 0.007840 0.000000 -0.106870 0.005373 0.000000 -0.107177 0.002953 0.000000 -0.107765 0.000627 0.000000 -0.107078 -0.001634 0.000000 -0.106708 -0.003746 0.000000 -0.105117 -0.005787 0.000000 -0.103882 -0.007617 0.000000 -0.101505 -0.009377 0.000000 -0.099525 -0.010866 0.000000 -0.096509 -0.012296 0.000000 -0.093926 -0.013393 0.000000 -0.090441 -0.014456 0.000000 -0.087415 -0.015125 0.000000 -0.083647 -0.015797 0.000000 -0.080351 -0.016023 0.000000 -0.076496 -0.016300 0.000000 -0.073105 -0.016087 0.000000 -0.069359 -0.015985 0.000000 -0.066042 -0.015361 0.000000 -0.062589 -0.014917 0.000000 -0.059500 -0.013935 0.000000 -0.056502 -0.013205 0.000000 -0.053771 -0.011938 0.000000 -0.051357 -0.010996 0.000000 -0.049080 -0.009537 0.000000 -0.047338 -0.008471 0.000000 -0.045572 -0.006924 0.000000 -0.044542 -0.005828 0.000000 -0.043299 -0.004305 0.000000 -0.042971 -0.003277 0.000000 -0.042221 -0.001887 0.000000 -0.042535 -0.001018 0.000000 -0.042205 0.000138 0.000000 -0.043054 0.000766 0.000000 -0.043033 0.001604 0.000000 -0.044273 0.001926 0.000000 -0.044424 0.002380 0.000000 -0.045881 0.002352 0.000000 -0.046044 0.002381 0.000000 -0.047528 0.001980 0.000000 -0.047533 0.001570 0.000000 -0.048848 0.000794 0.000000 -0.048528 -0.000047 0.000000 -0.049481 -0.001175 0.000000 -0.048677 -0.002414 0.000000 -0.049094 -0.003855 0.000000 -0.047667 -0.005440 0.000000 -0.047395 -0.007137 0.000000 -0.045231 -0.009002 0.000000 -0.044148 -0.010886 0.000000 -0.041165 -0.012950 0.000000 -0.039184 -0.014943 0.000000 -0.035333 -0.017120 0.000000 -0.032406 -0.019137 0.000000 -0.027673 -0.021337 0.000000 -0.023790 -0.023293 0.000000 -0.018200 -0.025422 0.000000 -0.013391 -0.027232 0.000000 
-0.009033 -0.035222 0.000000 -0.003231 -0.037166 0.000000 0.004049 -0.039276 0.000000 0.010649 -0.040848 0.000000 0.018534 -0.042565 0.000000 0.025791 -0.043678 0.000000 0.034116 -0.044919 0.000000 0.041857 -0.045501 0.000000 0.050430 -0.046196 0.000000 0.058455 -0.046190 0.000000 0.067061 -0.046286 0.000000 0.075151 -0.045653 0.000000 0.083561 -0.045117 0.000000 0.091484 -0.043838 0.000000 0.099459 -0.042659 0.000000 0.106978 -0.040741 0.000000 0.114280 -0.038931 0.000000 0.121161 -0.036404 0.000000 0.127563 -0.034000 0.000000 0.133584 -0.030918 0.000000 0.138879 -0.027981 0.000000 0.143841 -0.024423 0.000000 0.147850 -0.021034 0.000000 0.151584 -0.017100 0.000000 0.154167 -0.013361 0.000000 0.156543 -0.009165 0.000000 0.157601 -0.005191 0.000000 0.158533 -0.000859 0.000000 0.158017 0.003227 0.000000 0.157464 0.007564 0.000000 0.155375 0.011637 0.000000 0.153344 0.015851 0.000000 0.149730 0.019788 0.000000 0.146276 0.023759 0.000000 0.141231 0.027447 0.000000 0.136448 0.031068 0.000000 0.130106 0.034406 0.000000 0.124126 0.037586 0.000000 0.116653 0.040489 0.000000 0.109638 0.043159 0.000000 0.101224 0.045561 0.000000 0.093361 0.047670 0.000000 0.084212 0.049524 0.000000 0.075702 0.051044 0.000000 0.066034 0.052320 0.000000 0.057087 0.053239 0.000000 0.047117 0.053928 0.000000 0.037945 0.054254 0.000000 0.027886 0.054361 0.000000 0.018696 0.054115 0.000000 0.008750 0.053660 0.000000 -0.000257 0.052874 0.000000 -0.009900 0.051890 0.000000 -0.018538 0.050608 0.000000 -0.027704 0.049136 0.000000 -0.035802 0.047409 0.000000 -0.044338 0.045501 0.000000 -0.051743 0.043383 0.000000 -0.059513 0.041099 0.000000 -0.066094 0.038651 0.000000 -0.072984 0.036055 0.000000 -0.078631 0.033342 0.000000 -0.084548 0.030504 0.000000 -0.089176 0.027595 0.000000 -0.094052 0.024589 0.000000 -0.097601 0.021556 0.000000 -0.101390 0.018464 0.000000 -0.103828 0.015382 0.000000 -0.106512 0.012287 0.000000 -0.107836 0.009235 0.000000 -0.109422 0.006223 0.000000 -0.109658 0.003282 0.000000 -0.110185 0.000442 0.000000 -0.109391 -0.002308 0.000000 -0.108925 -0.004888 0.000000 -0.107193 -0.007369 0.000000 -0.105830 -0.009607 0.000000 -0.103281 -0.011746 0.000000 -0.101145 -0.013567 0.000000 -0.097933 -0.015302 0.000000 -0.095171 -0.016643 0.000000 -0.091472 -0.017927 0.000000 -0.088255 -0.018744 0.000000 -0.084266 -0.019548 0.000000 -0.080773 -0.019819 0.000000 -0.076701 -0.020136 0.000000 -0.073120 -0.019867 0.000000 -0.069173 -0.019716 0.000000 -0.065683 -0.018940 0.000000 -0.062058 -0.018365 0.000000 -0.058824 -0.017145 0.000000 -0.055694 -0.016217 0.000000 -0.052855 -0.014644 0.000000 -0.050359 -0.013453 0.000000 -0.048017 -0.011641 0.000000 -0.046251 -0.010295 0.000000 -0.044467 -0.008374 0.000000 -0.043472 -0.006991 0.000000 -0.042260 -0.005099 0.000000 -0.042026 -0.003800 0.000000 -0.041352 -0.002071 0.000000 -0.041814 -0.000970 0.000000 -0.041599 0.000470 0.000000 -0.042641 0.001273 0.000000 -0.042768 0.002319 0.000000 -0.044235 0.002743 0.000000 -0.044553 0.003315 0.000000 -0.046258 0.003304 0.000000 -0.046596 0.003354 0.000000 -0.048335 0.002880 0.000000 -0.048514 0.002388 0.000000 -0.050076 0.001452 0.000000 -0.049915 0.000430 0.000000 -0.051097 -0.000942 0.000000 -0.050429 -0.002453 0.000000 -0.051045 -0.004211 0.000000 -0.049722 -0.006147 0.000000 -0.049610 -0.008222 0.000000 -0.047513 -0.010499 0.000000 -0.046545 -0.012805 0.000000 -0.043586 -0.015327 0.000000 -0.041672 -0.017768 0.000000 -0.037799 -0.020428 0.000000 -0.034888 -0.022901 0.000000 -0.030089 -0.025588 0.000000 -0.026170 -0.027989 0.000000 -0.020469 -0.030591 0.000000 -0.015573 -0.032814 0.000000 
-0.011362 -0.041544 0.000000 -0.005396 -0.043862 0.000000 0.002062 -0.046386 0.000000 0.008877 -0.048263 0.000000 0.016990 -0.050322 0.000000 0.024506 -0.051656 0.000000 0.033101 -0.053150 0.000000 0.041138 -0.053855 0.000000 0.050015 -0.054703 0.000000 0.058364 -0.054710 0.000000 0.067298 -0.054847 0.000000 0.075729 -0.054110 0.000000 0.084480 -0.053496 0.000000 0.092749 -0.051992 0.000000 0.101064 -0.050613 0.000000 0.108921 -0.048348 0.000000 0.116550 -0.046219 0.000000 0.123746 -0.043228 0.000000 0.130448 -0.040391 0.000000 0.136750 -0.036739 0.000000 0.142304 -0.033266 0.000000 0.147500 -0.029047 0.000000 0.151716 -0.025037 0.000000 0.155628 -0.020369 0.000000 0.158355 -0.015941 0.000000 0.160845 -0.010962 0.000000 0.161981 -0.006254 0.000000 0.162958 -0.001115 0.000000 0.162450 0.003726 0.000000 0.161872 0.008870 0.000000 0.159722 0.013694 0.000000 0.157599 0.018688 0.000000 0.153860 0.023349 0.000000 0.150249 0.028052 0.000000 0.145022 0.032414 0.000000 0.140026 0.036697 0.000000 0.133453 0.040643 0.000000 0.127214 0.044400 0.000000 0.119472 0.047827 0.000000 0.112162 0.050976 0.000000 0.103453 0.053807 0.000000 0.095268 0.056290 0.000000 0.085809 0.058470 0.000000 0.076962 0.060253 0.000000 0.066979 0.061750 0.000000 0.057689 0.062821 0.000000 0.047409 0.063623 0.000000 0.037897 0.063994 0.000000 0.027540 0.064108 0.000000 0.018022 0.063804 0.000000 0.007799 0.063256 0.000000 -0.001518 0.062317 0.000000 -0.011415 0.061146 0.000000 -0.020338 0.059623 0.000000 -0.029730 0.057880 0.000000 -0.038083 0.055833 0.000000 -0.046813 0.053578 0.000000 -0.054439 0.051073 0.000000 -0.062369 0.048375 0.000000 -0.069134 0.045483 0.000000 -0.076147 0.042418 0.000000 -0.081937 0.039214 0.000000 -0.087939 0.035866 0.000000 -0.092666 0.032430 0.000000 -0.097587 0.028885 0.000000 -0.101188 0.025301 0.000000 -0.104980 0.021654 0.000000 -0.107421 0.018011 0.000000 -0.110064 0.014359 0.000000 -0.111339 0.010750 0.000000 -0.112841 0.007195 0.000000 -0.112976 0.003715 0.000000 -0.113373 0.000361 0.000000 -0.112427 -0.002894 0.000000 -0.111788 -0.005944 0.000000 -0.109855 -0.008882 0.000000 -0.108278 -0.011528 0.000000 -0.105485 -0.014062 0.000000 -0.103101 -0.016214 0.000000 -0.099606 -0.018270 0.000000 -0.096571 -0.019853 0.000000 -0.092562 -0.021372 0.000000 -0.089057 -0.022331 0.000000 -0.084743 -0.023279 0.000000 -0.080960 -0.023587 0.000000 -0.076565 -0.023953 0.000000 -0.072705 -0.023615 0.000000 -0.068453 -0.023422 0.000000 -0.064712 -0.022476 0.000000 -0.060815 -0.021776 0.000000 -0.057372 -0.020298 0.000000 -0.054021 -0.019174 0.000000 -0.051027 -0.017273 0.000000 -0.048374 -0.015834 0.000000 -0.045942 -0.013645 0.000000 -0.044090 -0.012021 0.000000 -0.042286 -0.009702 0.000000 -0.041284 -0.008035 0.000000 -0.040125 -0.005751 0.000000 -0.039960 -0.004185 0.000000 -0.039408 -0.002099 0.000000 -0.040009 -0.000771 0.000000 -0.039977 0.000966 0.000000 -0.041219 0.001935 0.000000 -0.041577 0.003197 0.000000 -0.043290 0.003711 0.000000 -0.043875 0.004403 0.000000 -0.045855 0.004395 0.000000 -0.046479 0.004459 0.000000 -0.048505 0.003897 0.000000 -0.048972 0.003310 0.000000 -0.050816 0.002195 0.000000 -0.050931 0.000975 0.000000 -0.052373 -0.000661 0.000000 -0.051955 -0.002467 0.000000 -0.052796 -0.004562 0.000000 -0.051685 -0.006875 0.000000 -0.051754 -0.009347 0.000000 -0.049822 -0.012066 0.000000 -0.048982 -0.014812 0.000000 -0.046134 -0.017823 0.000000 -0.044291 -0.020729 0.000000 -0.040472 -0.023903 0.000000 -0.037571 -0.026848 0.000000 -0.032765 -0.030055 0.000000 -0.028797 -0.032913 0.000000 -0.023030 -0.036019 0.000000 -0.018026 -0.038667 0.000000 