# vtk DataFile Version 2.0
Comment goes here
ASCII

DATASET STRUCTURED_POINTS
FIELD FieldData 1
TIME 1 1 double
0.05000000
DIMENSIONS    128   128   1

ORIGIN    0.000   0.000   0.000
SPACING   0.039062 0.039062   1.000

POINT_DATA   16384
VECTORS u double

0.504431 0.000000 0.000000 0.533925 0.000000 0.000000 0.567859 0.000000 0.000000 0.595042 0.000000 0.000000 0.626961 0.000000 0.000000 0.651773 0.000000 0.000000 0.681589 0.000000 0.000000 0.703958 0.000000 0.000000 0.731566 0.000000 0.000000 0.751404 0.000000 0.000000 0.776678 0.000000 0.000000 0.793878 0.000000 0.000000 0.816667 0.000000 0.000000 0.831107 0.000000 0.000000 0.851240 0.000000 0.000000 0.862783 0.000000 0.000000 0.880072 0.000000 0.000000 0.888567 0.000000 0.000000 0.902809 0.000000 0.000000 0.908102 0.000000 0.000000 0.919086 0.000000 0.000000 0.921022 0.000000 0.000000 0.928536 0.000000 0.000000 0.926965 0.000000 0.000000 0.930802 0.000000 0.000000 0.925587 0.000000 0.000000 0.925554 0.000000 0.000000 0.916578 0.000000 0.000000 0.912502 0.000000 0.000000 0.899673 0.000000 0.000000 0.891407 0.000000 0.000000 0.874669 0.000000 0.000000 0.862099 0.000000 0.000000 0.841428 0.000000 0.000000 0.824480 0.000000 0.000000 0.799895 0.000000 0.000000 0.778536 0.000000 0.000000 0.750101 0.000000 0.000000 0.724344 0.000000 0.000000 0.692169 0.000000 0.000000 0.662079 0.000000 0.000000 0.626323 0.000000 0.000000 0.592016 0.000000 0.000000 0.552885 0.000000 0.000000 0.514533 0.000000 0.000000 0.472285 0.000000 0.000000 0.430118 0.000000 0.000000 0.385064 0.000000 0.000000 0.339371 0.000000 0.000000 0.291872 0.000000 0.000000 0.243006 0.000000 0.000000 0.193477 0.000000 0.000000 0.141853 0.000000 0.000000 0.090764 0.000000 0.000000 0.036865 0.000000 0.000000 -0.015262 0.000000 0.000000 -0.070890 0.000000 0.000000 -0.123479 0.000000 0.000000 -0.180225 0.000000 0.000000 -0.232653 0.000000 0.000000 -0.289845 0.000000 0.000000 -0.341444 0.000000 0.000000 -0.398358 0.000000 0.000000 -0.448423 0.000000 0.000000 -0.504290 0.000000 0.000000 -0.552094 0.000000 0.000000 -0.606112 0.000000 0.000000 -0.650917 0.000000 0.000000 -0.702267 0.000000 0.000000 -0.743344 0.000000 0.000000 -0.791208 0.000000 0.000000 -0.827854 0.000000 0.000000 -0.871440 0.000000 0.000000 -0.903002 0.000000 0.000000 -0.941560 0.000000 0.000000 -0.967458 0.000000 0.000000 -1.000312 0.000000 0.000000 -1.020061 0.000000 0.000000 -1.046626 0.000000 0.000000 -1.059854 0.000000 0.000000 -1.079664 0.000000 0.000000 -1.086133 0.000000 0.000000 -1.098857 0.000000 0.000000 -1.098471 0.000000 0.000000 -1.103929 0.000000 0.000000 -1.096746 0.000000 0.000000 -1.094920 0.000000 0.000000 -1.081144 0.000000 0.000000 -1.072180 0.000000 0.000000 -1.052160 0.000000 0.000000 -1.036362 0.000000 0.000000 -1.010575 0.000000 0.000000 -0.988394 0.000000 0.000000 -0.957424 0.000000 0.000000 -0.929438 0.000000 0.000000 -0.893954 0.000000 0.000000 -0.860839 0.000000 0.000000 -0.821564 0.000000 0.000000 -0.784070 0.000000 0.000000 -0.741754 0.000000 0.000000 -0.700665 0.000000 0.000000 -0.656061 0.000000 0.000000 -0.612167 0.000000 0.000000 -0.565999 0.000000 0.000000 -0.520067 0.000000 0.000000 -0.473014 0.000000 0.000000 -0.425759 0.000000 0.000000 -0.378439 0.000000 0.000000 -0.330511 0.000000 0.000000 -0.283467 0.000000 0.000000 -0.235433 0.000000 0.000000 -0.189129 0.000000 0.000000 -0.141471 0.000000 0.000000 -0.096293 0.000000 0.000000 -0.049407 0.000000 0.000000 -0.005666 0.000000 0.000000 0.040134 0.000000 0.000000 0.082199 0.000000 0.000000 0.126669 0.000000 0.000000 0.166875 0.000000 0.000000 0.209836 0.000000 0.000000 0.248049 0.000000 0.000000 0.289367 0.000000 0.000000 0.325492 0.000000 0.000000 0.365069 0.000000 0.000000 0.399036 0.000000 0.000000 0.436796 0.000000 0.000000 0.468551 0.000000 0.000000 
0.504321 -0.032687 0.000000 0.533799 -0.031714 0.000000 0.567684 -0.030559 0.000000 0.594852 -0.029551 0.000000 0.626722 -0.028365 0.000000 0.651520 -0.027314 0.000000 0.681290 -0.026093 0.000000 0.703648 -0.024989 0.000000 0.731213 -0.023723 0.000000 0.751043 -0.022556 0.000000 0.776278 -0.021237 0.000000 0.793475 -0.019995 0.000000 0.816230 -0.018614 0.000000 0.830671 -0.017287 0.000000 0.850779 -0.015838 0.000000 0.862326 -0.014416 0.000000 0.879597 -0.012892 0.000000 0.888102 -0.011369 0.000000 0.902335 -0.009768 0.000000 0.907641 -0.008139 0.000000 0.918626 -0.006460 0.000000 0.920578 -0.004725 0.000000 0.928102 -0.002971 0.000000 0.926551 -0.001133 0.000000 0.930409 0.000689 0.000000 0.925215 0.002624 0.000000 0.925213 0.004504 0.000000 0.916259 0.006526 0.000000 0.912225 0.008452 0.000000 0.899420 0.010547 0.000000 0.891206 0.012502 0.000000 0.874489 0.014654 0.000000 0.861981 0.016620 0.000000 0.841330 0.018810 0.000000 0.824452 0.020766 0.000000 0.799884 0.022972 0.000000 0.778603 0.024897 0.000000 0.750182 0.027096 0.000000 0.724510 0.028966 0.000000 0.692345 0.031132 0.000000 0.662343 0.032923 0.000000 0.626592 0.035032 0.000000 0.592376 0.036719 0.000000 0.553246 0.038741 0.000000 0.514983 0.040300 0.000000 0.472733 0.042207 0.000000 0.430652 0.043611 0.000000 0.385591 0.045374 0.000000 0.339977 0.046596 0.000000 0.292468 0.048183 0.000000 0.243672 0.049198 0.000000 0.194130 0.050576 0.000000 0.142565 0.051356 0.000000 0.091461 0.052494 0.000000 0.037605 0.053013 0.000000 -0.014539 0.053877 0.000000 -0.070139 0.054109 0.000000 -0.122746 0.054668 0.000000 -0.179483 0.054587 0.000000 -0.231928 0.054810 0.000000 -0.289132 0.054395 0.000000 -0.340747 0.054256 0.000000 -0.397691 0.053490 0.000000 -0.447772 0.052966 0.000000 -0.503689 0.051836 0.000000 -0.551508 0.050911 0.000000 -0.605592 0.049412 0.000000 -0.650411 0.048078 0.000000 -0.701843 0.046213 0.000000 -0.742932 0.044471 0.000000 -0.790890 0.042255 0.000000 -0.827549 0.040116 0.000000 -0.871235 0.037574 0.000000 -0.902810 0.035060 0.000000 -0.941473 0.032228 0.000000 -0.967385 0.029376 0.000000 -1.000341 0.026301 0.000000 -1.020104 0.023157 0.000000 -1.046766 0.019897 0.000000 -1.060009 0.016519 0.000000 -1.079905 0.013139 0.000000 -1.086390 0.009596 0.000000 -1.099186 0.006169 0.000000 -1.098817 0.002536 0.000000 -1.104329 -0.000863 0.000000 -1.097162 -0.004505 0.000000 -1.095372 -0.007801 0.000000 -1.081610 -0.011370 0.000000 -1.072662 -0.014492 0.000000 -1.052654 -0.017909 0.000000 -1.036853 -0.020793 0.000000 -1.011072 -0.023984 0.000000 -0.988872 -0.026575 0.000000 -0.957903 -0.029478 0.000000 -0.929882 -0.031735 0.000000 -0.894392 -0.034299 0.000000 -0.861232 -0.036195 0.000000 -0.821944 -0.038385 0.000000 -0.784398 -0.039905 0.000000 -0.742064 -0.041702 0.000000 -0.700919 -0.042847 0.000000 -0.656291 -0.044249 0.000000 -0.612342 -0.045031 0.000000 -0.566147 -0.046050 0.000000 -0.520163 -0.046493 0.000000 -0.473083 -0.047154 0.000000 -0.425783 -0.047287 0.000000 -0.378436 -0.047624 0.000000 -0.330471 -0.047486 0.000000 -0.283402 -0.047539 0.000000 -0.235342 -0.047169 0.000000 -0.189017 -0.046981 0.000000 -0.141344 -0.046418 0.000000 -0.096152 -0.046032 0.000000 -0.049262 -0.045314 0.000000 -0.005511 -0.044771 0.000000 0.040282 -0.043932 0.000000 0.082350 -0.043268 0.000000 0.126803 -0.042338 0.000000 0.167007 -0.041583 0.000000 0.209941 -0.040587 0.000000 0.248147 -0.039766 0.000000 0.289430 -0.038721 0.000000 0.325545 -0.037851 0.000000 0.365081 -0.036772 0.000000 0.399035 -0.035864 0.000000 0.436750 -0.034758 0.000000 0.468489 -0.033817 0.000000 
0.506533 -0.065309 0.000000 0.536053 -0.063364 0.000000 0.570023 -0.061053 0.000000 0.597236 -0.059037 0.000000 0.629197 -0.056668 0.000000 0.654046 -0.054568 0.000000 0.683914 -0.052128 0.000000 0.706328 -0.049923 0.000000 0.734000 -0.047395 0.000000 0.753891 -0.045065 0.000000 0.779239 -0.042432 0.000000 0.796501 -0.039953 0.000000 0.819375 -0.037197 0.000000 0.833884 -0.034548 0.000000 0.854112 -0.031655 0.000000 0.865728 -0.028818 0.000000 0.883119 -0.025776 0.000000 0.891691 -0.022737 0.000000 0.906039 -0.019539 0.000000 0.911410 -0.016291 0.000000 0.922500 -0.012937 0.000000 0.924511 -0.009477 0.000000 0.932128 -0.005972 0.000000 0.930625 -0.002306 0.000000 0.934559 0.001336 0.000000 0.929402 0.005195 0.000000 0.929456 0.008955 0.000000 0.920525 0.012988 0.000000 0.916522 0.016840 0.000000 0.903724 0.021019 0.000000 0.895515 0.024931 0.000000 0.878787 0.029225 0.000000 0.866255 0.033159 0.000000 0.845574 0.037529 0.000000 0.828642 0.041445 0.000000 0.804025 0.045849 0.000000 0.782659 0.049702 0.000000 0.754169 0.054093 0.000000 0.728381 0.057837 0.000000 0.696127 0.062167 0.000000 0.665978 0.065753 0.000000 0.630118 0.069968 0.000000 0.595725 0.073346 0.000000 0.556464 0.077392 0.000000 0.517998 0.080513 0.000000 0.475595 0.084332 0.000000 0.433283 0.087142 0.000000 0.388048 0.090674 0.000000 0.342179 0.093123 0.000000 0.294472 0.096305 0.000000 0.245397 0.098338 0.000000 0.195634 0.101107 0.000000 0.143769 0.102670 0.000000 0.092419 0.104960 0.000000 0.038246 0.105999 0.000000 -0.014169 0.107744 0.000000 -0.070102 0.108208 0.000000 -0.123004 0.109344 0.000000 -0.180085 0.109182 0.000000 -0.232847 0.109648 0.000000 -0.290401 0.108818 0.000000 -0.342351 0.108560 0.000000 -0.399651 0.107026 0.000000 -0.450080 0.105997 0.000000 -0.506348 0.103735 0.000000 -0.554520 0.101903 0.000000 -0.608947 0.098904 0.000000 -0.654118 0.096251 0.000000 -0.705876 0.092521 0.000000 -0.747304 0.089048 0.000000 -0.795566 0.084616 0.000000 -0.832537 0.080345 0.000000 -0.876497 0.075262 0.000000 -0.908349 0.070238 0.000000 -0.947247 0.064574 0.000000 -0.973388 0.058868 0.000000 -1.006534 0.052719 0.000000 -1.026467 0.046425 0.000000 -1.053267 0.039905 0.000000 -1.066614 0.033139 0.000000 -1.086589 0.026381 0.000000 -1.093105 0.019280 0.000000 -1.105918 0.012427 0.000000 -1.105505 0.005144 0.000000 -1.110972 -0.001655 0.000000 -1.103686 -0.008958 0.000000 -1.101787 -0.015552 0.000000 -1.087837 -0.022709 0.000000 -1.078721 -0.028957 0.000000 -1.058463 -0.035809 0.000000 -1.042439 -0.041581 0.000000 -1.016360 -0.047981 0.000000 -0.993890 -0.053170 0.000000 -0.962587 -0.058990 0.000000 -0.934261 -0.063511 0.000000 -0.898415 -0.068650 0.000000 -0.864926 -0.072447 0.000000 -0.825275 -0.076835 0.000000 -0.787388 -0.079880 0.000000 -0.744698 -0.083479 0.000000 -0.703213 -0.085773 0.000000 -0.658246 -0.088577 0.000000 -0.613969 -0.090144 0.000000 -0.567462 -0.092179 0.000000 -0.521171 -0.093065 0.000000 -0.473810 -0.094380 0.000000 -0.426231 -0.094647 0.000000 -0.378639 -0.095312 0.000000 -0.330426 -0.095034 0.000000 -0.283149 -0.095129 0.000000 -0.234874 -0.094384 0.000000 -0.188378 -0.093997 0.000000 -0.140522 -0.092866 0.000000 -0.095189 -0.092083 0.000000 -0.048146 -0.090641 0.000000 -0.004284 -0.089543 0.000000 0.041637 -0.087860 0.000000 0.083793 -0.086521 0.000000 0.128354 -0.084657 0.000000 0.168626 -0.083138 0.000000 0.211653 -0.081141 0.000000 0.249915 -0.079490 0.000000 0.291281 -0.077398 0.000000 0.327442 -0.075651 0.000000 0.367056 -0.073490 0.000000 0.401051 -0.071669 0.000000 0.438843 -0.069455 0.000000 0.470622 -0.067571 0.000000 
0.508528 -0.098117 0.000000 0.538055 -0.095204 0.000000 0.572011 -0.091741 0.000000 0.599236 -0.088724 0.000000 0.631191 -0.085175 0.000000 0.656061 -0.082031 0.000000 0.685934 -0.078375 0.000000 0.708380 -0.075074 0.000000 0.736071 -0.071286 0.000000 0.756007 -0.067795 0.000000 0.781390 -0.063847 0.000000 0.798709 -0.060131 0.000000 0.821635 -0.055998 0.000000 0.836213 -0.052024 0.000000 0.856509 -0.047682 0.000000 0.868205 -0.043423 0.000000 0.885678 -0.038855 0.000000 0.894338 -0.034289 0.000000 0.908781 -0.029486 0.000000 0.914244 -0.024600 0.000000 0.925440 -0.019561 0.000000 0.927543 -0.014353 0.000000 0.935273 -0.009085 0.000000 0.933859 -0.003564 0.000000 0.937910 0.001912 0.000000 0.932834 0.007727 0.000000 0.933006 0.013381 0.000000 0.924144 0.019460 0.000000 0.920257 0.025254 0.000000 0.907511 0.031555 0.000000 0.899411 0.037439 0.000000 0.882717 0.043914 0.000000 0.870286 0.049833 0.000000 0.849615 0.056423 0.000000 0.832772 0.062315 0.000000 0.808141 0.068955 0.000000 0.786848 0.074753 0.000000 0.758317 0.081374 0.000000 0.732583 0.087008 0.000000 0.700260 0.093535 0.000000 0.670144 0.098932 0.000000 0.634185 0.105285 0.000000 0.599799 0.110372 0.000000 0.560411 0.116469 0.000000 0.521921 0.121169 0.000000 0.479361 0.126922 0.000000 0.436992 0.131158 0.000000 0.391569 0.136478 0.000000 0.345606 0.140172 0.000000 0.297680 0.144964 0.000000 0.248470 0.148036 0.000000 0.198459 0.152204 0.000000 0.146414 0.154572 0.000000 0.094786 0.158018 0.000000 0.040385 0.159600 0.000000 -0.012334 0.162225 0.000000 -0.068544 0.162944 0.000000 -0.121776 0.164650 0.000000 -0.179183 0.164430 0.000000 -0.232297 0.165127 0.000000 -0.290225 0.163900 0.000000 -0.342544 0.163506 0.000000 -0.400259 0.161218 0.000000 -0.451068 0.159663 0.000000 -0.507787 0.156276 0.000000 -0.556344 0.153511 0.000000 -0.611250 0.149009 0.000000 -0.656798 0.145006 0.000000 -0.709050 0.139399 0.000000 -0.750841 0.134160 0.000000 -0.799598 0.127489 0.000000 -0.836908 0.121047 0.000000 -0.881347 0.113386 0.000000 -0.913501 0.105810 0.000000 -0.952847 0.097267 0.000000 -0.979244 0.088663 0.000000 -1.012789 0.079381 0.000000 -1.032922 0.069890 0.000000 -1.060056 0.060043 0.000000 -1.073538 0.049842 0.000000 -1.093769 0.039631 0.000000 -1.100349 0.028925 0.000000 -1.113326 0.018569 0.000000 -1.112903 0.007590 0.000000 -1.118435 -0.002682 0.000000 -1.111064 -0.013690 0.000000 -1.109128 -0.023649 0.000000 -1.095020 -0.034437 0.000000 -1.085766 -0.043866 0.000000 -1.065283 -0.054190 0.000000 -1.049029 -0.062895 0.000000 -1.022665 -0.072533 0.000000 -0.999884 -0.080349 0.000000 -0.968248 -0.089107 0.000000 -0.939545 -0.095907 0.000000 -0.903332 -0.103634 0.000000 -0.869420 -0.109334 0.000000 -0.829381 -0.115923 0.000000 -0.791045 -0.120482 0.000000 -0.747959 -0.125877 0.000000 -0.706020 -0.129298 0.000000 -0.660665 -0.133493 0.000000 -0.615946 -0.135815 0.000000 -0.569070 -0.138849 0.000000 -0.522366 -0.140144 0.000000 -0.474667 -0.142094 0.000000 -0.426716 -0.142459 0.000000 -0.378823 -0.143429 0.000000 -0.330288 -0.142976 0.000000 -0.282753 -0.143091 0.000000 -0.234210 -0.141940 0.000000 -0.187499 -0.141333 0.000000 -0.139430 -0.139606 0.000000 -0.093927 -0.138408 0.000000 -0.046723 -0.136219 0.000000 -0.002730 -0.134554 0.000000 0.043304 -0.132008 0.000000 0.085554 -0.129985 0.000000 0.130187 -0.127172 0.000000 0.170524 -0.124883 0.000000 0.213589 -0.121876 0.000000 0.251891 -0.119393 0.000000 0.293270 -0.116248 0.000000 0.329454 -0.113626 0.000000 0.369063 -0.110381 0.000000 0.403070 -0.107651 0.000000 0.440848 -0.104329 0.000000 0.472635 -0.101508 0.000000 
0.512837 -0.130730 0.000000 0.542429 -0.126847 0.000000 0.576504 -0.122234 0.000000 0.603802 -0.118217 0.000000 0.635890 -0.113493 0.000000 0.660846 -0.109311 0.000000 0.690871 -0.104447 0.000000 0.713417 -0.100060 0.000000 0.741279 -0.095022 0.000000 0.761330 -0.090384 0.000000 0.786902 -0.085134 0.000000 0.804350 -0.080198 0.000000 0.827481 -0.074701 0.000000 0.842199 -0.069422 0.000000 0.862712 -0.063647 0.000000 0.874555 -0.057988 0.000000 0.892252 -0.051909 0.000000 0.901061 -0.045840 0.000000 0.915727 -0.039445 0.000000 0.921335 -0.032950 0.000000 0.932747 -0.026236 0.000000 0.934986 -0.019310 0.000000 0.942916 -0.012288 0.000000 0.941622 -0.004943 0.000000 0.945850 0.002360 0.000000 0.940872 0.010099 0.000000 0.941189 0.017645 0.000000 0.932398 0.025737 0.000000 0.928618 0.033473 0.000000 0.915910 0.041865 0.000000 0.907874 0.049725 0.000000 0.891180 0.058350 0.000000 0.878764 0.066260 0.000000 0.858055 0.075043 0.000000 0.841175 0.082919 0.000000 0.816464 0.091773 0.000000 0.795078 0.099526 0.000000 0.766423 0.108358 0.000000 0.740541 0.115895 0.000000 0.708049 0.124606 0.000000 0.677728 0.131828 0.000000 0.641555 0.140313 0.000000 0.606907 0.147121 0.000000 0.567258 0.155270 0.000000 0.528449 0.161563 0.000000 0.485582 0.169261 0.000000 0.442836 0.174934 0.000000 0.397057 0.182061 0.000000 0.350661 0.187011 0.000000 0.302331 0.193441 0.000000 0.252632 0.197560 0.000000 0.202164 0.203164 0.000000 0.149578 0.206343 0.000000 0.097441 0.210989 0.000000 0.042447 0.213119 0.000000 -0.010832 0.216674 0.000000 -0.067683 0.217650 0.000000 -0.121524 0.219982 0.000000 -0.179615 0.219703 0.000000 -0.233383 0.220690 0.000000 -0.292030 0.219065 0.000000 -0.345041 0.218594 0.000000 -0.403501 0.215550 0.000000 -0.455028 0.213526 0.000000 -0.512507 0.209011 0.000000 -0.561795 0.205365 0.000000 -0.617460 0.199358 0.000000 -0.663734 0.194051 0.000000 -0.716729 0.186564 0.000000 -0.759220 0.179595 0.000000 -0.808686 0.170683 0.000000 -0.846647 0.162095 0.000000 -0.891741 0.151855 0.000000 -0.924474 0.141738 0.000000 -0.964402 0.130317 0.000000 -0.991280 0.118810 0.000000 -1.025314 0.106398 0.000000 -1.045811 0.093691 0.000000 -1.073322 0.080521 0.000000 -1.087033 0.066852 0.000000 -1.107512 0.053192 0.000000 -1.114173 0.038838 0.000000 -1.127260 0.024981 0.000000 -1.126763 0.010253 0.000000 -1.132259 -0.003494 0.000000 -1.124661 -0.018265 0.000000 -1.122540 -0.031595 0.000000 -1.108062 -0.046071 0.000000 -1.098481 -0.058694 0.000000 -1.077499 -0.072547 0.000000 -1.060787 -0.084199 0.000000 -1.033820 -0.097126 0.000000 -1.010469 -0.107587 0.000000 -0.978151 -0.119328 0.000000 -0.948792 -0.128427 0.000000 -0.911847 -0.138775 0.000000 -0.877219 -0.146398 0.000000 -0.836428 -0.155210 0.000000 -0.797347 -0.161302 0.000000 -0.753518 -0.168504 0.000000 -0.710833 -0.173067 0.000000 -0.664766 -0.178651 0.000000 -0.619328 -0.181739 0.000000 -0.571793 -0.185759 0.000000 -0.524417 -0.187468 0.000000 -0.476125 -0.190030 0.000000 -0.427567 -0.190491 0.000000 -0.379157 -0.191739 0.000000 -0.330089 -0.191104 0.000000 -0.282115 -0.191207 0.000000 -0.233117 -0.189638 0.000000 -0.186044 -0.188777 0.000000 -0.137597 -0.186438 0.000000 -0.091803 -0.184790 0.000000 -0.044292 -0.181838 0.000000 -0.000072 -0.179570 0.000000 0.046206 -0.176144 0.000000 0.088630 -0.173405 0.000000 0.133456 -0.169627 0.000000 0.173923 -0.166540 0.000000 0.217143 -0.162508 0.000000 0.255543 -0.159171 0.000000 0.297050 -0.154960 0.000000 0.333310 -0.151443 0.000000 0.373031 -0.147106 0.000000 0.407103 -0.143453 0.000000 0.444986 -0.139019 0.000000 0.476835 -0.135251 0.000000 
0.516933 -0.163712 0.000000 0.546553 -0.158871 0.000000 0.580641 -0.153115 0.000000 0.607978 -0.148111 0.000000 0.640097 -0.142219 0.000000 0.665107 -0.137012 0.000000 0.695185 -0.130946 0.000000 0.717806 -0.125482 0.000000 0.745747 -0.119198 0.000000 0.765895 -0.113418 0.000000 0.791575 -0.106867 0.000000 0.809142 -0.100710 0.000000 0.832410 -0.093847 0.000000 0.847268 -0.087255 0.000000 0.867943 -0.080038 0.000000 0.879943 -0.072962 0.000000 0.897825 -0.065361 0.000000 0.906802 -0.057764 0.000000 0.921671 -0.049761 0.000000 0.927453 -0.041620 0.000000 0.939080 -0.033211 0.000000 0.941490 -0.024522 0.000000 0.949640 -0.015721 0.000000 0.948507 -0.006498 0.000000 0.952953 0.002662 0.000000 0.948119 0.012387 0.000000 0.948645 0.021855 0.000000 0.939972 0.032032 0.000000 0.936385 0.041741 0.000000 0.923763 0.052299 0.000000 0.915898 0.062169 0.000000 0.899252 0.073023 0.000000 0.886978 0.082958 0.000000 0.866274 0.094012 0.000000 0.849502 0.103907 0.000000 0.824748 0.115052 0.000000 0.803433 0.124794 0.000000 0.774684 0.135911 0.000000 0.748830 0.145382 0.000000 0.716191 0.156348 0.000000 0.685850 0.165426 0.000000 0.649476 0.176107 0.000000 0.614754 0.184669 0.000000 0.574849 0.194926 0.000000 0.535909 0.202846 0.000000 0.492728 0.212535 0.000000 0.449789 0.219683 0.000000 0.403639 0.228653 0.000000 0.356980 0.234898 0.000000 0.308222 0.242993 0.000000 0.258187 0.248202 0.000000 0.207234 0.255259 0.000000 0.154231 0.259295 0.000000 0.101554 0.265148 0.000000 0.046062 0.267874 0.000000 -0.007813 0.272356 0.000000 -0.065245 0.273636 0.000000 -0.119732 0.276582 0.000000 -0.178485 0.276288 0.000000 -0.232944 0.277542 0.000000 -0.292331 0.275558 0.000000 -0.346068 0.274976 0.000000 -0.405337 0.271206 0.000000 -0.457615 0.268670 0.000000 -0.515958 0.263043 0.000000 -0.566006 0.258463 0.000000 -0.622574 0.250948 0.000000 -0.669601 0.244276 0.000000 -0.723516 0.234885 0.000000 -0.766731 0.226117 0.000000 -0.817108 0.214915 0.000000 -0.855744 0.204103 0.000000 -0.901714 0.191213 0.000000 -0.935048 0.178470 0.000000 -0.975785 0.164073 0.000000 -1.003171 0.149575 0.000000 -1.037917 0.133912 0.000000 -1.058808 0.117898 0.000000 -1.086905 0.101264 0.000000 -1.100877 0.084033 0.000000 -1.121792 0.066771 0.000000 -1.128569 0.048673 0.000000 -1.141920 0.031160 0.000000 -1.141387 0.012589 0.000000 -1.146962 -0.004785 0.000000 -1.139175 -0.023408 0.000000 -1.136943 -0.040248 0.000000 -1.122128 -0.058496 0.000000 -1.112250 -0.074429 0.000000 -1.090797 -0.091884 0.000000 -1.073617 -0.106574 0.000000 -1.046062 -0.122851 0.000000 -1.022093 -0.136018 0.000000 -0.989096 -0.150785 0.000000 -0.958999 -0.162212 0.000000 -0.921310 -0.175207 0.000000 -0.885862 -0.184752 0.000000 -0.844291 -0.195795 0.000000 -0.804344 -0.203393 0.000000 -0.759729 -0.212392 0.000000 -0.716171 -0.218050 0.000000 -0.669341 -0.224998 0.000000 -0.623057 -0.228789 0.000000 -0.574803 -0.233760 0.000000 -0.526640 -0.235812 0.000000 -0.477692 -0.238944 0.000000 -0.428427 -0.239427 0.000000 -0.379437 -0.240907 0.000000 -0.329758 -0.240018 0.000000 -0.281288 -0.240063 0.000000 -0.231780 -0.238011 0.000000 -0.184299 -0.236853 0.000000 -0.135444 -0.233847 0.000000 -0.089326 -0.231713 0.000000 -0.041503 -0.227950 0.000000 0.002964 -0.225052 0.000000 0.049469 -0.220710 0.000000 0.092072 -0.217235 0.000000 0.137052 -0.212466 0.000000 0.177643 -0.208569 0.000000 0.220958 -0.203496 0.000000 0.259440 -0.199300 0.000000 0.300998 -0.194015 0.000000 0.337309 -0.189607 0.000000 0.377053 -0.184174 0.000000 0.411158 -0.179606 0.000000 0.449050 -0.174061 0.000000 0.480924 -0.169358 0.000000 
0.523324 -0.196359 0.000000 0.553027 -0.190556 0.000000 0.587264 -0.183659 0.000000 0.614698 -0.177672 0.000000 0.646990 -0.170622 0.000000 0.672119 -0.164399 0.000000 0.702401 -0.157146 0.000000 0.725166 -0.150622 0.000000 0.753343 -0.143111 0.000000 0.773661 -0.136212 0.000000 0.799610 -0.128382 0.000000 0.817371 -0.121033 0.000000 0.840936 -0.112826 0.000000 0.856008 -0.104956 0.000000 0.877004 -0.096322 0.000000 0.889231 -0.087869 0.000000 0.907450 -0.078768 0.000000 0.916661 -0.069687 0.000000 0.931871 -0.060096 0.000000 0.937885 -0.050358 0.000000 0.949845 -0.040272 0.000000 0.952475 -0.029870 0.000000 0.960941 -0.019306 0.000000 0.960005 -0.008256 0.000000 0.964735 0.002749 0.000000 0.960066 0.014407 0.000000 0.960834 0.025792 0.000000 0.952284 0.037998 0.000000 0.948886 0.049682 0.000000 0.936337 0.062352 0.000000 0.928599 0.074236 0.000000 0.911970 0.087269 0.000000 0.899754 0.099239 0.000000 0.879004 0.112519 0.000000 0.862215 0.124445 0.000000 0.837350 0.137842 0.000000 0.815938 0.149590 0.000000 0.787011 0.162962 0.000000 0.760977 0.174388 0.000000 0.728091 0.187586 0.000000 0.697486 0.198543 0.000000 0.660795 0.211409 0.000000 0.625723 0.221747 0.000000 0.585430 0.234115 0.000000 0.546054 0.243683 0.000000 0.502413 0.255381 0.000000 0.458950 0.264023 0.000000 0.412266 0.274869 0.000000 0.364995 0.282428 0.000000 0.315626 0.292234 0.000000 0.264890 0.298548 0.000000 0.213247 0.307119 0.000000 0.159457 0.312023 0.000000 0.106009 0.319158 0.000000 0.049644 0.322486 0.000000 -0.005081 0.327981 0.000000 -0.063468 0.329569 0.000000 -0.118884 0.333223 0.000000 -0.178667 0.332915 0.000000 -0.234126 0.334535 0.000000 -0.294608 0.332189 0.000000 -0.349405 0.331600 0.000000 -0.409820 0.327096 0.000000 -0.463203 0.324148 0.000000 -0.522726 0.317402 0.000000 -0.573901 0.311981 0.000000 -0.631660 0.302953 0.000000 -0.679809 0.294993 0.000000 -0.734901 0.283694 0.000000 -0.779202 0.273188 0.000000 -0.830712 0.259695 0.000000 -0.870360 0.246701 0.000000 -0.917387 0.231160 0.000000 -0.951625 0.215809 0.000000 -0.993309 0.198440 0.000000 -1.021452 0.180942 0.000000 -1.057004 0.162034 0.000000 -1.078470 0.142679 0.000000 -1.107199 0.122590 0.000000 -1.121537 0.101739 0.000000 -1.142884 0.080884 0.000000 -1.149797 0.058966 0.000000 -1.163357 0.037799 0.000000 -1.162720 0.015294 0.000000 -1.168267 -0.005707 0.000000 -1.160137 -0.028284 0.000000 -1.157639 -0.048642 0.000000 -1.142255 -0.070764 0.000000 -1.131879 -0.090025 0.000000 -1.109656 -0.111180 0.000000 -1.091765 -0.128934 0.000000 -1.063275 -0.148650 0.000000 -1.038412 -0.164554 0.000000 -1.004355 -0.182422 0.000000 -0.973223 -0.196213 0.000000 -0.934397 -0.211913 0.000000 -0.897816 -0.223416 0.000000 -0.855078 -0.236728 0.000000 -0.813950 -0.245864 0.000000 -0.768181 -0.256677 0.000000 -0.723444 -0.263456 0.000000 -0.675511 -0.271765 0.000000 -0.628094 -0.276277 0.000000 -0.578820 -0.282176 0.000000 -0.529605 -0.284579 0.000000 -0.479743 -0.288243 0.000000 -0.429533 -0.288746 0.000000 -0.379749 -0.290409 0.000000 -0.329248 -0.289253 0.000000 -0.280109 -0.289184 0.000000 -0.229908 -0.286627 0.000000 -0.181879 -0.285113 0.000000 -0.132457 -0.281412 0.000000 -0.085905 -0.278731 0.000000 -0.037631 -0.274127 0.000000 0.007169 -0.270541 0.000000 0.054023 -0.265252 0.000000 0.096875 -0.260988 0.000000 0.142122 -0.255198 0.000000 0.182894 -0.250446 0.000000 0.226413 -0.244304 0.000000 0.265026 -0.239211 0.000000 0.306744 -0.232830 0.000000 0.343153 -0.227499 0.000000 0.383032 -0.220955 0.000000 0.417217 -0.215450 0.000000 0.455235 -0.208785 0.000000 0.487185 -0.203134 0.000000 
0.529511 -0.229554 0.000000 0.559253 -0.222810 0.000000 0.593525 -0.214786 0.000000 0.621017 -0.207838 0.000000 0.653371 -0.199640 0.000000 0.678583 -0.192423 0.000000 0.708962 -0.183993 0.000000 0.731842 -0.176425 0.000000 0.760158 -0.167693 0.000000 0.780624 -0.159684 0.000000 0.806754 -0.150577 0.000000 0.824698 -0.142036 0.000000 0.848487 -0.132483 0.000000 0.863772 -0.123323 0.000000 0.885030 -0.113262 0.000000 0.897496 -0.103408 0.000000 0.916006 -0.092791 0.000000 0.925474 -0.082186 0.000000 0.941000 -0.070984 0.000000 0.947277 -0.059594 0.000000 0.959567 -0.047801 0.000000 0.962456 -0.035617 0.000000 0.971254 -0.023251 0.000000 0.970562 -0.010292 0.000000 0.975616 0.002601 0.000000 0.971163 0.016289 0.000000 0.972236 0.029637 0.000000 0.963862 0.043980 0.000000 0.960739 0.057688 0.000000 0.948317 0.072586 0.000000 0.940816 0.086536 0.000000 0.924255 0.101868 0.000000 0.912228 0.115924 0.000000 0.891480 0.131551 0.000000 0.874826 0.145561 0.000000 0.849891 0.161328 0.000000 0.828553 0.175132 0.000000 0.799481 0.190872 0.000000 0.773453 0.204302 0.000000 0.740344 0.219839 0.000000 0.709671 0.232723 0.000000 0.672676 0.247869 0.000000 0.637458 0.260033 0.000000 0.596780 0.274596 0.000000 0.557170 0.285863 0.000000 0.513061 0.299639 0.000000 0.469271 0.309830 0.000000 0.422035 0.322608 0.000000 0.374337 0.331538 0.000000 0.324331 0.343098 0.000000 0.273061 0.350580 0.000000 0.220697 0.360692 0.000000 0.166258 0.366533 0.000000 0.112003 0.374961 0.000000 0.054872 0.378964 0.000000 -0.000744 0.385468 0.000000 -0.060017 0.387439 0.000000 -0.116401 0.391781 0.000000 -0.177188 0.391530 0.000000 -0.233686 0.393482 0.000000 -0.295282 0.390837 0.000000 -0.351176 0.390189 0.000000 -0.412804 0.385003 0.000000 -0.467324 0.381576 0.000000 -0.528141 0.373741 0.000000 -0.580471 0.367397 0.000000 -0.639578 0.356857 0.000000 -0.688874 0.347516 0.000000 -0.745337 0.334277 0.000000 -0.790744 0.321927 0.000000 -0.843611 0.306074 0.000000 -0.884293 0.290779 0.000000 -0.932621 0.272478 0.000000 -0.967783 0.254392 0.000000 -1.010668 0.233900 0.000000 -1.039590 0.213269 0.000000 -1.076196 0.190930 0.000000 -1.098266 0.168093 0.000000 -1.127860 0.144332 0.000000 -1.142598 0.119717 0.000000 -1.164581 0.095031 0.000000 -1.171670 0.069147 0.000000 -1.185607 0.044082 0.000000 -1.184909 0.017499 0.000000 -1.190554 -0.007368 0.000000 -1.182125 -0.034037 0.000000 -1.179437 -0.058130 0.000000 -1.163527 -0.084256 0.000000 -1.152679 -0.107028 0.000000 -1.129722 -0.131998 0.000000 -1.111099 -0.152956 0.000000 -1.081696 -0.176204 0.000000 -1.055877 -0.194937 0.000000 -1.020768 -0.215974 0.000000 -0.988500 -0.232171 0.000000 -0.948525 -0.250614 0.000000 -0.910687 -0.264071 0.000000 -0.866750 -0.279660 0.000000 -0.824301 -0.290290 0.000000 -0.777329 -0.302897 0.000000 -0.731267 -0.310719 0.000000 -0.682168 -0.320348 0.000000 -0.633475 -0.325480 0.000000 -0.583110 -0.332249 0.000000 -0.532712 -0.334889 0.000000 -0.481862 -0.339016 0.000000 -0.430595 -0.339421 0.000000 -0.379947 -0.341192 0.000000 -0.328536 -0.339658 0.000000 -0.278664 -0.339403 0.000000 -0.227711 -0.336241 0.000000 -0.179084 -0.334304 0.000000 -0.129063 -0.329821 0.000000 -0.082041 -0.326539 0.000000 -0.033312 -0.321024 0.000000 0.011841 -0.316706 0.000000 0.059023 -0.310416 0.000000 0.102127 -0.305334 0.000000 0.147595 -0.298485 0.000000 0.188538 -0.292860 0.000000 0.232194 -0.285627 0.000000 0.270916 -0.279631 0.000000 0.312710 -0.272143 0.000000 0.349186 -0.265895 0.000000 0.389103 -0.258238 0.000000 0.423330 -0.251809 0.000000 0.461368 -0.244028 0.000000 0.493351 -0.237447 0.000000 