# vtk DataFile Version 2.0
Comment goes here
ASCII

DATASET STRUCTURED_POINTS
FIELD FieldData 1
TIME 1 1 double
0.06500000
DIMENSIONS    128   128   1

ORIGIN    0.000   0.000   0.000
SPACING   0.039062 0.039062   1.000

POINT_DATA   16384
VECTORS u double

0.000032 0.000000 0.000000 0.031897 0.000000 0.000000 0.063335 0.000000 0.000000 0.094744 0.000000 0.000000 0.125501 0.000000 0.000000 0.156164 0.000000 0.000000 0.185962 0.000000 0.000000 0.215610 0.000000 0.000000 0.244185 0.000000 0.000000 0.272564 0.000000 0.000000 0.299668 0.000000 0.000000 0.326545 0.000000 0.000000 0.351941 0.000000 0.000000 0.377097 0.000000 0.000000 0.400566 0.000000 0.000000 0.423798 0.000000 0.000000 0.445133 0.000000 0.000000 0.466254 0.000000 0.000000 0.485267 0.000000 0.000000 0.504107 0.000000 0.000000 0.520626 0.000000 0.000000 0.537035 0.000000 0.000000 0.550910 0.000000 0.000000 0.564756 0.000000 0.000000 0.575859 0.000000 0.000000 0.587034 0.000000 0.000000 0.595265 0.000000 0.000000 0.603685 0.000000 0.000000 0.608971 0.000000 0.000000 0.614576 0.000000 0.000000 0.616874 0.000000 0.000000 0.619633 0.000000 0.000000 0.618934 0.000000 0.000000 0.618842 0.000000 0.000000 0.615167 0.000000 0.000000 0.612247 0.000000 0.000000 0.605649 0.000000 0.000000 0.599953 0.000000 0.000000 0.590514 0.000000 0.000000 0.582117 0.000000 0.000000 0.569951 0.000000 0.000000 0.558952 0.000000 0.000000 0.544196 0.000000 0.000000 0.530718 0.000000 0.000000 0.513532 0.000000 0.000000 0.497715 0.000000 0.000000 0.478281 0.000000 0.000000 0.460283 0.000000 0.000000 0.438798 0.000000 0.000000 0.418789 0.000000 0.000000 0.395465 0.000000 0.000000 0.373629 0.000000 0.000000 0.348690 0.000000 0.000000 0.325220 0.000000 0.000000 0.298898 0.000000 0.000000 0.273996 0.000000 0.000000 0.246531 0.000000 0.000000 0.220403 0.000000 0.000000 0.192043 0.000000 0.000000 0.164900 0.000000 0.000000 0.135894 0.000000 0.000000 0.107951 0.000000 0.000000 0.078550 0.000000 0.000000 0.050024 0.000000 0.000000 0.020480 0.000000 0.000000 -0.008411 0.000000 0.000000 -0.037849 0.000000 0.000000 -0.066888 0.000000 0.000000 -0.095976 0.000000 0.000000 -0.124944 0.000000 0.000000 -0.153444 0.000000 0.000000 -0.182123 0.000000 0.000000 -0.209805 0.000000 0.000000 -0.237976 0.000000 0.000000 -0.264618 0.000000 0.000000 -0.292058 0.000000 0.000000 -0.317448 0.000000 0.000000 -0.343929 0.000000 0.000000 -0.367860 0.000000 0.000000 -0.393150 0.000000 0.000000 -0.415422 0.000000 0.000000 -0.439279 0.000000 0.000000 -0.459695 0.000000 0.000000 -0.481867 0.000000 0.000000 -0.500230 0.000000 0.000000 -0.520459 0.000000 0.000000 -0.536573 0.000000 0.000000 -0.554596 0.000000 0.000000 -0.568265 0.000000 0.000000 -0.583817 0.000000 0.000000 -0.594848 0.000000 0.000000 -0.607673 0.000000 0.000000 -0.615880 0.000000 0.000000 -0.625735 0.000000 0.000000 -0.630948 0.000000 0.000000 -0.637618 0.000000 0.000000 -0.639690 0.000000 0.000000 -0.642996 0.000000 0.000000 -0.641813 0.000000 0.000000 -0.641623 0.000000 0.000000 -0.637113 0.000000 0.000000 -0.633352 0.000000 0.000000 -0.625494 0.000000 0.000000 -0.618150 0.000000 0.000000 -0.606980 0.000000 0.000000 -0.596107 0.000000 0.000000 -0.581720 0.000000 0.000000 -0.567439 0.000000 0.000000 -0.549987 0.000000 0.000000 -0.532485 0.000000 0.000000 -0.512176 0.000000 0.000000 -0.491695 0.000000 0.000000 -0.468784 0.000000 0.000000 -0.445615 0.000000 0.000000 -0.420397 0.000000 0.000000 -0.394870 0.000000 0.000000 -0.367667 0.000000 0.000000 -0.340137 0.000000 0.000000 -0.311293 0.000000 0.000000 -0.282130 0.000000 0.000000 -0.251996 0.000000 0.000000 -0.221575 0.000000 0.000000 -0.190506 0.000000 0.000000 -0.159198 0.000000 0.000000 -0.127544 0.000000 0.000000 -0.095710 0.000000 0.000000 -0.063807 0.000000 0.000000 -0.031794 0.000000 0.000000 
0.000883 -0.031845 0.000000 0.032830 -0.031652 0.000000 0.064319 -0.031424 0.000000 0.095792 -0.031083 0.000000 0.126589 -0.030710 0.000000 0.157302 -0.030230 0.000000 0.187130 -0.029723 0.000000 0.216814 -0.029111 0.000000 0.245413 -0.028477 0.000000 0.273818 -0.027741 0.000000 0.300939 -0.026990 0.000000 0.327832 -0.026137 0.000000 0.353242 -0.025276 0.000000 0.378405 -0.024312 0.000000 0.401885 -0.023350 0.000000 0.425117 -0.022284 0.000000 0.446460 -0.021228 0.000000 0.467575 -0.020067 0.000000 0.486594 -0.018927 0.000000 0.505424 -0.017680 0.000000 0.521947 -0.016464 0.000000 0.538340 -0.015142 0.000000 0.552217 -0.013861 0.000000 0.566043 -0.012475 0.000000 0.577147 -0.011139 0.000000 0.588298 -0.009703 0.000000 0.596527 -0.008325 0.000000 0.604919 -0.006853 0.000000 0.610201 -0.005445 0.000000 0.615774 -0.003952 0.000000 0.618067 -0.002529 0.000000 0.620789 -0.001030 0.000000 0.620084 0.000396 0.000000 0.619951 0.001884 0.000000 0.616268 0.003297 0.000000 0.613303 0.004759 0.000000 0.606697 0.006147 0.000000 0.600951 0.007567 0.000000 0.591505 0.008918 0.000000 0.583054 0.010282 0.000000 0.570882 0.011582 0.000000 0.559827 0.012877 0.000000 0.545066 0.014117 0.000000 0.531528 0.015332 0.000000 0.514340 0.016501 0.000000 0.498462 0.017626 0.000000 0.479028 0.018716 0.000000 0.460968 0.019742 0.000000 0.439486 0.020747 0.000000 0.419415 0.021666 0.000000 0.396097 0.022580 0.000000 0.374201 0.023388 0.000000 0.349270 0.024205 0.000000 0.325742 0.024896 0.000000 0.299431 0.025612 0.000000 0.274472 0.026183 0.000000 0.247021 0.026796 0.000000 0.220839 0.027244 0.000000 0.192492 0.027752 0.000000 0.165299 0.028075 0.000000 0.136305 0.028475 0.000000 0.108315 0.028672 0.000000 0.078924 0.028963 0.000000 0.050353 0.029035 0.000000 0.020814 0.029218 0.000000 -0.008121 0.029165 0.000000 -0.037560 0.029238 0.000000 -0.066644 0.029063 0.000000 -0.095741 0.029028 0.000000 -0.124757 0.028734 0.000000 -0.153277 0.028590 0.000000 -0.182010 0.028181 0.000000 -0.209725 0.027926 0.000000 -0.237957 0.027407 0.000000 -0.264649 0.027041 0.000000 -0.292161 0.026415 0.000000 -0.317618 0.025936 0.000000 -0.344184 0.025206 0.000000 -0.368202 0.024611 0.000000 -0.393589 0.023781 0.000000 -0.415969 0.023064 0.000000 -0.439936 0.022136 0.000000 -0.460478 0.021294 0.000000 -0.482772 0.020268 0.000000 -0.501278 0.019296 0.000000 -0.521636 0.018172 0.000000 -0.537905 0.017068 0.000000 -0.556058 0.015846 0.000000 -0.569888 0.014611 0.000000 -0.585564 0.013292 0.000000 -0.596753 0.011928 0.000000 -0.609688 0.010516 0.000000 -0.618041 0.009031 0.000000 -0.627983 0.007534 0.000000 -0.633322 0.005942 0.000000 -0.640049 0.004371 0.000000 -0.642218 0.002689 0.000000 -0.645544 0.001061 0.000000 -0.644424 -0.000687 0.000000 -0.644214 -0.002350 0.000000 -0.639729 -0.004136 0.000000 -0.635906 -0.005809 0.000000 -0.628036 -0.007601 0.000000 -0.620591 -0.009257 0.000000 -0.609373 -0.011022 0.000000 -0.598363 -0.012630 0.000000 -0.583897 -0.014334 0.000000 -0.569451 -0.015866 0.000000 -0.551895 -0.017477 0.000000 -0.534208 -0.018906 0.000000 -0.513777 -0.020395 0.000000 -0.493098 -0.021696 0.000000 -0.470055 -0.023040 0.000000 -0.446684 -0.024194 0.000000 -0.421330 -0.025373 0.000000 -0.395604 -0.026365 0.000000 -0.368268 -0.027366 0.000000 -0.340548 -0.028187 0.000000 -0.311578 -0.029004 0.000000 -0.282239 -0.029648 0.000000 -0.251990 -0.030277 0.000000 -0.221411 -0.030745 0.000000 -0.190240 -0.031188 0.000000 -0.158792 -0.031481 0.000000 -0.127049 -0.031744 0.000000 -0.095095 -0.031868 0.000000 -0.063118 -0.031958 0.000000 -0.031004 -0.031919 0.000000 
0.000299 -0.063834 0.000000 0.032319 -0.063435 0.000000 0.063904 -0.062962 0.000000 0.095457 -0.062270 0.000000 0.126354 -0.061510 0.000000 0.157152 -0.060541 0.000000 0.187081 -0.059513 0.000000 0.216855 -0.058283 0.000000 0.245554 -0.057004 0.000000 0.274051 -0.055526 0.000000 0.301272 -0.054014 0.000000 0.328259 -0.052303 0.000000 0.353765 -0.050573 0.000000 0.379023 -0.048643 0.000000 0.402595 -0.046711 0.000000 0.425919 -0.044576 0.000000 0.447350 -0.042459 0.000000 0.468555 -0.040134 0.000000 0.487654 -0.037848 0.000000 0.506569 -0.035352 0.000000 0.523164 -0.032916 0.000000 0.539638 -0.030270 0.000000 0.553576 -0.027703 0.000000 0.567477 -0.024930 0.000000 0.578631 -0.022255 0.000000 0.589848 -0.019381 0.000000 0.598115 -0.016621 0.000000 0.606564 -0.013674 0.000000 0.611871 -0.010855 0.000000 0.617492 -0.007866 0.000000 0.619796 -0.005016 0.000000 0.622557 -0.002016 0.000000 0.621847 0.000839 0.000000 0.621744 0.003816 0.000000 0.618042 0.006648 0.000000 0.615097 0.009571 0.000000 0.608457 0.012352 0.000000 0.602722 0.015192 0.000000 0.593228 0.017897 0.000000 0.584781 0.020623 0.000000 0.572546 0.023228 0.000000 0.561486 0.025816 0.000000 0.546650 0.028298 0.000000 0.533101 0.030725 0.000000 0.515825 0.033066 0.000000 0.499929 0.035312 0.000000 0.480396 0.037494 0.000000 0.462312 0.039542 0.000000 0.440721 0.041552 0.000000 0.420620 0.043389 0.000000 0.397184 0.045214 0.000000 0.375252 0.046827 0.000000 0.350196 0.048459 0.000000 0.326626 0.049839 0.000000 0.300183 0.051270 0.000000 0.275177 0.052410 0.000000 0.247590 0.053633 0.000000 0.221356 0.054529 0.000000 0.192871 0.055540 0.000000 0.165620 0.056187 0.000000 0.136488 0.056984 0.000000 0.108437 0.057381 0.000000 0.078910 0.057962 0.000000 0.050276 0.058109 0.000000 0.020607 0.058474 0.000000 -0.008393 0.058374 0.000000 -0.037953 0.058523 0.000000 -0.067101 0.058181 0.000000 -0.096308 0.058113 0.000000 -0.125386 0.057536 0.000000 -0.154001 0.057253 0.000000 -0.182790 0.056448 0.000000 -0.210582 0.055947 0.000000 -0.238864 0.054924 0.000000 -0.265613 0.054203 0.000000 -0.293166 0.052969 0.000000 -0.318659 0.052023 0.000000 -0.345257 0.050584 0.000000 -0.369289 0.049406 0.000000 -0.394700 0.047767 0.000000 -0.417071 0.046346 0.000000 -0.441052 0.044509 0.000000 -0.461566 0.042836 0.000000 -0.483868 0.040800 0.000000 -0.502329 0.038864 0.000000 -0.522690 0.036627 0.000000 -0.538902 0.034422 0.000000 -0.557057 0.031982 0.000000 -0.570822 0.029506 0.000000 -0.586503 0.026865 0.000000 -0.597627 0.024123 0.000000 -0.610572 0.021288 0.000000 -0.618864 0.018296 0.000000 -0.628827 0.015281 0.000000 -0.634114 0.012065 0.000000 -0.640873 0.008896 0.000000 -0.643002 0.005495 0.000000 -0.646374 0.002206 0.000000 -0.645226 -0.001330 0.000000 -0.645074 -0.004695 0.000000 -0.640574 -0.008307 0.000000 -0.636819 -0.011693 0.000000 -0.628944 -0.015316 0.000000 -0.621572 -0.018664 0.000000 -0.610355 -0.022228 0.000000 -0.599420 -0.025476 0.000000 -0.584957 -0.028912 0.000000 -0.570583 -0.032001 0.000000 -0.553028 -0.035244 0.000000 -0.535404 -0.038119 0.000000 -0.514967 -0.041110 0.000000 -0.494340 -0.043722 0.000000 -0.471282 -0.046414 0.000000 -0.447949 -0.048725 0.000000 -0.422569 -0.051080 0.000000 -0.396865 -0.053062 0.000000 -0.369490 -0.055056 0.000000 -0.341775 -0.056690 0.000000 -0.312754 -0.058309 0.000000 -0.283404 -0.059588 0.000000 -0.253093 -0.060829 0.000000 -0.222486 -0.061751 0.000000 -0.191243 -0.062618 0.000000 -0.159755 -0.063191 0.000000 -0.127931 -0.063697 0.000000 -0.095924 -0.063931 0.000000 -0.063859 -0.064091 0.000000 -0.031681 -0.064001 0.000000 
0.001448 -0.095845 0.000000 0.033702 -0.095257 0.000000 0.065483 -0.094562 0.000000 0.097244 -0.093533 0.000000 0.128317 -0.092405 0.000000 0.159298 -0.090958 0.000000 0.189389 -0.089426 0.000000 0.219323 -0.087584 0.000000 0.248169 -0.085674 0.000000 0.276807 -0.083459 0.000000 0.304162 -0.081197 0.000000 0.331272 -0.078630 0.000000 0.356902 -0.076040 0.000000 0.382267 -0.073142 0.000000 0.405951 -0.070247 0.000000 0.429369 -0.067039 0.000000 0.450902 -0.063864 0.000000 0.472185 -0.060371 0.000000 0.491375 -0.056941 0.000000 0.510355 -0.053190 0.000000 0.527029 -0.049532 0.000000 0.543552 -0.045554 0.000000 0.557556 -0.041699 0.000000 0.571491 -0.037529 0.000000 0.582696 -0.033511 0.000000 0.593931 -0.029188 0.000000 0.602234 -0.025041 0.000000 0.610684 -0.020609 0.000000 0.616008 -0.016374 0.000000 0.621613 -0.011877 0.000000 0.623917 -0.007594 0.000000 0.626643 -0.003081 0.000000 0.625916 0.001209 0.000000 0.625759 0.005689 0.000000 0.622022 0.009944 0.000000 0.619007 0.014344 0.000000 0.612316 0.018522 0.000000 0.606494 0.022796 0.000000 0.596936 0.026860 0.000000 0.588384 0.030964 0.000000 0.576073 0.034877 0.000000 0.564896 0.038773 0.000000 0.549973 0.042502 0.000000 0.536294 0.046156 0.000000 0.518925 0.049673 0.000000 0.502888 0.053054 0.000000 0.483256 0.056334 0.000000 0.465023 0.059417 0.000000 0.443329 0.062439 0.000000 0.423074 0.065203 0.000000 0.399532 0.067948 0.000000 0.377442 0.070376 0.000000 0.352278 0.072831 0.000000 0.328548 0.074908 0.000000 0.301997 0.077061 0.000000 0.276831 0.078777 0.000000 0.249134 0.080618 0.000000 0.222741 0.081964 0.000000 0.194145 0.083487 0.000000 0.166737 0.084457 0.000000 0.137493 0.085658 0.000000 0.109287 0.086249 0.000000 0.079647 0.087125 0.000000 0.050859 0.087338 0.000000 0.021074 0.087886 0.000000 -0.008078 0.087725 0.000000 -0.037759 0.087947 0.000000 -0.067059 0.087418 0.000000 -0.096391 0.087313 0.000000 -0.125624 0.086426 0.000000 -0.154371 0.085994 0.000000 -0.183321 0.084762 0.000000 -0.211255 0.084001 0.000000 -0.239707 0.082437 0.000000 -0.266610 0.081343 0.000000 -0.294347 0.079461 0.000000 -0.320009 0.078027 0.000000 -0.346807 0.075836 0.000000 -0.371026 0.074053 0.000000 -0.396655 0.071563 0.000000 -0.419233 0.069417 0.000000 -0.443452 0.066632 0.000000 -0.464194 0.064109 0.000000 -0.486750 0.061030 0.000000 -0.505457 0.058119 0.000000 -0.526085 0.054745 0.000000 -0.542556 0.051435 0.000000 -0.560981 0.047766 0.000000 -0.575011 0.044057 0.000000 -0.590953 0.040096 0.000000 -0.602336 0.035996 0.000000 -0.615521 0.031754 0.000000 -0.624053 0.027287 0.000000 -0.634219 0.022784 0.000000 -0.639712 0.017987 0.000000 -0.646624 0.013259 0.000000 -0.648913 0.008189 0.000000 -0.652374 0.003285 0.000000 -0.651328 -0.001987 0.000000 -0.651195 -0.007002 0.000000 -0.646731 -0.012390 0.000000 -0.642919 -0.017440 0.000000 -0.635011 -0.022848 0.000000 -0.627506 -0.027846 0.000000 -0.616189 -0.033173 0.000000 -0.605050 -0.038028 0.000000 -0.590425 -0.043171 0.000000 -0.575786 -0.047795 0.000000 -0.558015 -0.052656 0.000000 -0.540076 -0.056966 0.000000 -0.519382 -0.061458 0.000000 -0.498404 -0.065381 0.000000 -0.475059 -0.069431 0.000000 -0.451353 -0.072907 0.000000 -0.425669 -0.076458 0.000000 -0.399582 -0.079444 0.000000 -0.371898 -0.082456 0.000000 -0.343803 -0.084923 0.000000 -0.314477 -0.087375 0.000000 -0.284759 -0.089310 0.000000 -0.254155 -0.091195 0.000000 -0.223201 -0.092595 0.000000 -0.191681 -0.093920 0.000000 -0.159871 -0.094794 0.000000 -0.127789 -0.095575 0.000000 -0.095490 -0.095940 0.000000 -0.063188 -0.096201 0.000000 -0.030748 -0.096077 0.000000 
0.001119 -0.128284 0.000000 0.033601 -0.127470 0.000000 0.065628 -0.126503 0.000000 0.097614 -0.125105 0.000000 0.128928 -0.123564 0.000000 0.160130 -0.121613 0.000000 0.190454 -0.119537 0.000000 0.220605 -0.117063 0.000000 0.249678 -0.114488 0.000000 0.278527 -0.111519 0.000000 0.306100 -0.108479 0.000000 0.333415 -0.105043 0.000000 0.359253 -0.101568 0.000000 0.384815 -0.097692 0.000000 0.408696 -0.093814 0.000000 0.432301 -0.089526 0.000000 0.454017 -0.085275 0.000000 0.475478 -0.080608 0.000000 0.494834 -0.076018 0.000000 0.513977 -0.071006 0.000000 0.530799 -0.066113 0.000000 0.547470 -0.060798 0.000000 0.561600 -0.055642 0.000000 0.575665 -0.050070 0.000000 0.586971 -0.044695 0.000000 0.598316 -0.038918 0.000000 0.606694 -0.033373 0.000000 0.615231 -0.027449 0.000000 0.620602 -0.021784 0.000000 0.626272 -0.015775 0.000000 0.628592 -0.010046 0.000000 0.631359 -0.004015 0.000000 0.630617 0.001723 0.000000 0.630477 0.007709 0.000000 0.626695 0.013399 0.000000 0.623674 0.019277 0.000000 0.616908 0.024865 0.000000 0.611058 0.030573 0.000000 0.601395 0.036006 0.000000 0.592796 0.041486 0.000000 0.580353 0.046716 0.000000 0.569109 0.051916 0.000000 0.554030 0.056900 0.000000 0.540269 0.061774 0.000000 0.522720 0.066472 0.000000 0.506586 0.070981 0.000000 0.486755 0.075360 0.000000 0.468412 0.079470 0.000000 0.446501 0.083502 0.000000 0.426124 0.087185 0.000000 0.402352 0.090846 0.000000 0.380128 0.094081 0.000000 0.354721 0.097352 0.000000 0.330849 0.100120 0.000000 0.304044 0.102987 0.000000 0.278727 0.105273 0.000000 0.250769 0.107723 0.000000 0.224217 0.109518 0.000000 0.195356 0.111543 0.000000 0.167783 0.112839 0.000000 0.138272 0.114434 0.000000 0.109895 0.115228 0.000000 0.079991 0.116390 0.000000 0.051029 0.116682 0.000000 0.020986 0.117411 0.000000 -0.008341 0.117207 0.000000 -0.038269 0.117503 0.000000 -0.067744 0.116813 0.000000 -0.097309 0.116678 0.000000 -0.126713 0.115516 0.000000 -0.155674 0.114950 0.000000 -0.184792 0.113332 0.000000 -0.212916 0.112334 0.000000 -0.241531 0.110279 0.000000 -0.268599 0.108843 0.000000 -0.296492 0.106367 0.000000 -0.322293 0.104483 0.000000 -0.349241 0.101601 0.000000 -0.373572 0.099254 0.000000 -0.399346 0.095974 0.000000 -0.422011 0.093144 0.000000 -0.446370 0.089470 0.000000 -0.467177 0.086134 0.000000 -0.489868 0.082063 0.000000 -0.508624 0.078199 0.000000 -0.529383 0.073726 0.000000 -0.545890 0.069318 0.000000 -0.564445 0.064437 0.000000 -0.578502 0.059479 0.000000 -0.594573 0.054190 0.000000 -0.605978 0.048690 0.000000 -0.619291 0.043005 0.000000 -0.627843 0.036994 0.000000 -0.638135 0.030940 0.000000 -0.643646 0.024471 0.000000 -0.650679 0.018097 0.000000 -0.652983 0.011245 0.000000 -0.656557 0.004622 0.000000 -0.655520 -0.002510 0.000000 -0.655484 -0.009292 0.000000 -0.651018 -0.016583 0.000000 -0.647283 -0.023413 0.000000 -0.639356 -0.030729 0.000000 -0.631902 -0.037486 0.000000 -0.620542 -0.044683 0.000000 -0.609423 -0.051240 0.000000 -0.594728 -0.058177 0.000000 -0.580072 -0.064411 0.000000 -0.562202 -0.070954 0.000000 -0.544209 -0.076751 0.000000 -0.523385 -0.082781 0.000000 -0.502316 -0.088045 0.000000 -0.478811 -0.093465 0.000000 -0.454979 -0.098115 0.000000 -0.429108 -0.102851 0.000000 -0.402865 -0.106832 0.000000 -0.374972 -0.110834 0.000000 -0.346696 -0.114111 0.000000 -0.317143 -0.117353 0.000000 -0.287225 -0.119910 0.000000 -0.256380 -0.122387 0.000000 -0.225212 -0.124225 0.000000 -0.193444 -0.125948 0.000000 -0.161411 -0.127082 0.000000 -0.129078 -0.128078 0.000000 -0.096550 -0.128532 0.000000 -0.063997 -0.128834 0.000000 -0.031327 -0.128637 0.000000 
0.002614 -0.160773 0.000000 0.035483 -0.159766 0.000000 0.067848 -0.158575 0.000000 0.100182 -0.156833 0.000000 0.131808 -0.154921 0.000000 0.163324 -0.152484 0.000000 0.193937 -0.149901 0.000000 0.224371 -0.146808 0.000000 0.253711 -0.143596 0.000000 0.282815 -0.139882 0.000000 0.310638 -0.136085 0.000000 0.338182 -0.131783 0.000000 0.364252 -0.127440 0.000000 0.390020 -0.122585 0.000000 0.414116 -0.117733 0.000000 0.437906 -0.112360 0.000000 0.459819 -0.107040 0.000000 0.481441 -0.101188 0.000000 0.500976 -0.095441 0.000000 0.520258 -0.089154 0.000000 0.537236 -0.083025 0.000000 0.554022 -0.076355 0.000000 0.568283 -0.069894 0.000000 0.582437 -0.062900 0.000000 0.593846 -0.056162 0.000000 0.605253 -0.048910 0.000000 0.613702 -0.041956 0.000000 0.622271 -0.034518 0.000000 0.627681 -0.027414 0.000000 0.633350 -0.019866 0.000000 0.635676 -0.012681 0.000000 0.638410 -0.005106 0.000000 0.637639 0.002090 0.000000 0.637434 0.009611 0.000000 0.633589 0.016747 0.000000 0.630471 0.024131 0.000000 0.623610 0.031138 0.000000 0.617633 0.038309 0.000000 0.607847 0.045122 0.000000 0.599092 0.052006 0.000000 0.586501 0.058563 0.000000 0.575076 0.065096 0.000000 0.559827 0.071343 0.000000 0.545862 0.077466 0.000000 0.528127 0.083355 0.000000 0.511771 0.089019 0.000000 0.491740 0.094509 0.000000 0.473158 0.099671 0.000000 0.451038 0.104726 0.000000 0.430411 0.109353 0.000000 0.406420 0.113944 0.000000 0.383939 0.118006 0.000000 0.358309 0.122110 0.000000 0.334173 0.125585 0.000000 0.307141 0.129183 0.000000 0.281558 0.132052 0.000000 0.253369 0.135128 0.000000 0.226550 0.137377 0.000000 0.197455 0.139921 0.000000 0.169618 0.141541 0.000000 0.139871 0.143545 0.000000 0.111232 0.144531 0.000000 0.081090 0.145991 0.000000 0.051869 0.146343 0.000000 0.021587 0.147257 0.000000 -0.007997 0.146981 0.000000 -0.038164 0.147349 0.000000 -0.067896 0.146457 0.000000 -0.097700 0.146282 0.000000 -0.127363 0.144792 0.000000 -0.156567 0.144072 0.000000 -0.185949 0.142005 0.000000 -0.214321 0.140740 0.000000 -0.243211 0.138120 0.000000 -0.270534 0.136304 0.000000 -0.298719 0.133154 0.000000 -0.324787 0.130776 0.000000 -0.352049 0.127116 0.000000 -0.376665 0.124157 0.000000 -0.402778 0.120002 0.000000 -0.425751 0.116441 0.000000 -0.450476 0.111797 0.000000 -0.471614 0.107608 0.000000 -0.494698 0.102477 0.000000 -0.513807 0.097634 0.000000 -0.534979 0.092011 0.000000 -0.551858 0.086497 0.000000 -0.570833 0.080378 0.000000 -0.585271 0.074186 0.000000 -0.601754 0.067572 0.000000 -0.613533 0.060714 0.000000 -0.627229 0.053619 0.000000 -0.636129 0.046131 0.000000 -0.646754 0.038587 0.000000 -0.652567 0.030532 0.000000 -0.659860 0.022596 0.000000 -0.662397 0.014067 0.000000 -0.666139 0.005822 0.000000 -0.665251 -0.003059 0.000000 -0.665276 -0.011504 0.000000 -0.660861 -0.020591 0.000000 -0.657072 -0.029102 0.000000 -0.649090 -0.038230 0.000000 -0.641466 -0.046659 0.000000 -0.629949 -0.055651 0.000000 -0.618550 -0.063843 0.000000 -0.603601 -0.072522 0.000000 -0.588568 -0.080321 0.000000 -0.570360 -0.088520 0.000000 -0.551908 -0.095783 0.000000 -0.530680 -0.103352 0.000000 -0.509091 -0.109955 0.000000 -0.485133 -0.116767 0.000000 -0.460742 -0.122610 0.000000 -0.434389 -0.128571 0.000000 -0.407568 -0.133580 0.000000 -0.379179 -0.138625 0.000000 -0.350324 -0.142753 0.000000 -0.320278 -0.146847 0.000000 -0.289795 -0.150072 0.000000 -0.258471 -0.153207 0.000000 -0.226765 -0.155531 0.000000 -0.194540 -0.157721 0.000000 -0.162002 -0.159160 0.000000 -0.129240 -0.160436 0.000000 -0.096247 -0.161021 0.000000 -0.063295 -0.161424 0.000000 -0.030199 -0.161193 0.000000 
0.002545 -0.193966 0.000000 0.035799 -0.192704 0.000000 0.068560 -0.191203 0.000000 0.101267 -0.189065 0.000000 0.133275 -0.186706 0.000000 0.165150 -0.183742 0.000000 0.196130 -0.180583 0.000000 0.226909 -0.176837 0.000000 0.256602 -0.172933 0.000000 0.286038 -0.168446 0.000000 0.314198 -0.163845 0.000000 0.342059 -0.158657 0.000000 0.368451 -0.153406 0.000000 0.394520 -0.147556 0.000000 0.418919 -0.141699 0.000000 0.442994 -0.135228 0.000000 0.465188 -0.128811 0.000000 0.487076 -0.121765 0.000000 0.506867 -0.114835 0.000000 0.526392 -0.107266 0.000000 0.543596 -0.099877 0.000000 0.560599 -0.091845 0.000000 0.575054 -0.084057 0.000000 0.589395 -0.075633 0.000000 0.600960 -0.067511 0.000000 0.612521 -0.058774 0.000000 0.621085 -0.050391 0.000000 0.629773 -0.041428 0.000000 0.635253 -0.032864 0.000000 0.641003 -0.023769 0.000000 0.643351 -0.015105 0.000000 0.646129 -0.005978 0.000000 0.645332 0.002699 0.000000 0.645132 0.011758 0.000000 0.641214 0.020363 0.000000 0.638064 0.029256 0.000000 0.631083 0.037704 0.000000 0.625039 0.046336 0.000000 0.615089 0.054547 0.000000 0.606234 0.062832 0.000000 0.593439 0.070733 0.000000 0.581885 0.078590 0.000000 0.566396 0.086114 0.000000 0.552276 0.093474 0.000000 0.534267 0.100563 0.000000 0.517733 0.107368 0.000000 0.497400 0.113972 0.000000 0.478621 0.120172 0.000000 0.456175 0.126249 0.000000 0.435333 0.131802 0.000000 0.410995 0.137318 0.000000 0.388284 0.142193 0.000000 0.362289 0.147119 0.000000 0.337909 0.151288 0.000000 0.310499 0.155602 0.000000 0.284660 0.159045 0.000000 0.256082 0.162731 0.000000 0.228997 0.165431 0.000000 0.199506 0.168476 0.000000 0.171393 0.170424 0.000000 0.141247 0.172820 0.000000 0.112326 0.174009 0.000000 0.081787 0.175753 0.000000 0.052280 0.176185 0.000000 0.021609 0.177277 0.000000 -0.008264 0.176959 0.000000 -0.038808 0.177401 0.000000 -0.068827 0.176349 0.000000 -0.098990 0.176146 0.000000 -0.128939 0.174382 0.000000 -0.158476 0.173535 0.000000 -0.188140 0.171087 0.000000 -0.216818 0.169596 0.000000 -0.245984 0.166492 0.000000 -0.273582 0.164351 0.000000 -0.302037 0.160620 0.000000 -0.328348 0.157813 0.000000 -0.355876 0.153479 0.000000 -0.380703 0.149983 0.000000 -0.407079 0.145060 0.000000 -0.430233 0.140842 0.000000 -0.455220 0.135334 0.000000 -0.476515 0.130356 0.000000 -0.499859 0.124257 0.000000 -0.519106 0.118481 0.000000 -0.540538 0.111777 0.000000 -0.557540 0.105172 0.000000 -0.576773 0.097850 0.000000 -0.591324 0.090400 0.000000 -0.608061 0.082451 0.000000 -0.619947 0.074165 0.000000 -0.633889 0.065602 0.000000 -0.642890 0.056519 0.000000 -0.653748 0.047378 0.000000 -0.659651 0.037576 0.000000 -0.667157 0.027927 0.000000 -0.669770 0.017525 0.000000 -0.673695 0.007475 0.000000 -0.672857 -0.003373 0.000000 -0.673027 -0.013682 0.000000 -0.668627 -0.024787 0.000000 -0.664932 -0.035183 0.000000 -0.656922 -0.046334 0.000000 -0.649332 -0.056627 0.000000 -0.637734 -0.067599 0.000000 -0.626302 -0.077589 0.000000 -0.611214 -0.088160 0.000000 -0.596077 -0.097652 0.000000 -0.577671 -0.107613 0.000000 -0.559047 -0.116432 0.000000 -0.537562 -0.125598 0.000000 -0.515737 -0.133591 0.000000 -0.491471 -0.141813 0.000000 -0.466787 -0.148860 0.000000 -0.440082 -0.156026 0.000000 -0.412922 -0.162042 0.000000 -0.384148 -0.168078 0.000000 -0.354921 -0.173013 0.000000 -0.324465 -0.177882 0.000000 -0.293587 -0.181716 0.000000 -0.261841 -0.185417 0.000000 -0.229728 -0.188156 0.000000 -0.197075 -0.190711 0.000000 -0.164128 -0.192382 0.000000 -0.130940 -0.193834 0.000000 -0.097540 -0.194477 0.000000 -0.064170 -0.194882 0.000000 -0.030676 -0.194547 0.000000 
0.004456 -0.227249 0.000000 0.038245 -0.225780 0.000000 0.071485 -0.224042 0.000000 0.104678 -0.221547 0.000000 0.137131 -0.218804 0.000000 0.169446 -0.215340 0.000000 0.200841 -0.211660 0.000000 0.232020 -0.207280 0.000000 0.262101 -0.202725 0.000000 0.291902 -0.197477 0.000000 0.320425 -0.192106 0.000000 0.348620 -0.186036 0.000000 0.375352 -0.179901 0.000000 0.401726 -0.173053 0.000000 0.426443 -0.166207 0.000000 0.450793 -0.158629 0.000000 0.473281 -0.151122 0.000000 0.495416 -0.142866 0.000000 0.515473 -0.134757 0.000000 0.535215 -0.125884 0.000000 0.552654 -0.117232 0.000000 0.569840 -0.107813 0.000000 0.584494 -0.098690 0.000000 0.598981 -0.088807 0.000000 0.610704 -0.079289 0.000000 0.622371 -0.069034 0.000000 0.631046 -0.059208 0.000000 0.639797 -0.048685 0.000000 0.645339 -0.038644 0.000000 0.651107 -0.027964 0.000000 0.653465 -0.017806 0.000000 0.656212 -0.007087 0.000000 0.655374 0.003087 0.000000 0.655096 0.013728 0.000000 0.651085 0.023815 0.000000 0.647810 0.034262 0.000000 0.640688 0.044164 0.000000 0.634474 0.054304 0.000000 0.624339 0.063926 0.000000 0.615273 0.073656 0.000000 0.602254 0.082912 0.000000 0.590452 0.092139 0.000000 0.574706 0.100953 0.000000 0.560305 0.109595 0.000000 0.542014 0.117898 0.000000 0.525171 0.125886 0.000000 0.504535 0.133620 0.000000 0.485425 0.140897 0.000000 0.462658 0.148015 0.000000 0.441469 0.154532 0.000000 0.416799 0.160993 0.000000 0.393727 0.166713 0.000000 0.367391 0.172485 0.000000 0.342643 0.177375 0.000000 0.314883 0.182432 0.000000 0.288671 0.186469 0.000000 0.259739 0.190791 0.000000 0.232279 0.193953 0.000000 0.202431 0.197525 0.000000 0.173944 0.199800 0.000000 0.143439 0.202612 0.000000 0.114147 0.203991 0.000000 0.083248 0.206037 0.000000 0.053374 0.206521 0.000000 0.022343 0.207801 0.000000 -0.007891 0.207398 0.000000 -0.038792 0.207912 0.000000 -0.069170 0.206640 0.000000 -0.099687 0.206393 0.000000 -0.129993 0.204277 0.000000 -0.159881 0.203273 0.000000 -0.189908 0.200346 0.000000 -0.218935 0.198584 0.000000 -0.248476 0.194884 0.000000 -0.276426 0.192358 0.000000 -0.305277 0.187920 0.000000 -0.331949 0.184615 0.000000 -0.359900 0.179471 0.000000 -0.385105 0.175360 0.000000 -0.411941 0.169532 0.000000 -0.435498 0.164582 0.000000 -0.460983 0.158079 0.000000 -0.482712 0.152247 0.000000 -0.506595 0.145068 0.000000 -0.526308 0.138312 0.000000 -0.548310 0.130445 0.000000 -0.565807 0.122732 0.000000 -0.585627 0.114162 0.000000 -0.600689 0.105474 0.000000 -0.618009 0.096194 0.000000 -0.630402 0.086542 0.000000 -0.644894 0.076562 0.000000 -0.654372 0.065989 0.000000 -0.665714 0.055348 0.000000 -0.672034 0.043942 0.000000 -0.679928 0.032715 0.000000 -0.682866 0.020605 0.000000 -0.687052 0.008910 0.000000 -0.686422 -0.003728 0.000000 -0.686704 -0.015734 0.000000 -0.682375 -0.028686 0.000000 -0.678631 -0.040807 0.000000 -0.670545 -0.053830 0.000000 -0.662742 -0.065847 0.000000 -0.650921 -0.078681 0.000000 -0.639120 -0.090363 0.000000 -0.623674 -0.102747 0.000000 -0.608029 -0.113864 0.000000 -0.589147 -0.125550 0.000000 -0.569900 -0.135892 0.000000 -0.547845 -0.146661 0.000000 -0.525312 -0.156046 0.000000 -0.500408 -0.165717 0.000000 -0.474960 -0.174000 0.000000 -0.447575 -0.182436 0.000000 -0.419624 -0.189514 0.000000 -0.390153 -0.196627 0.000000 -0.360132 -0.202436 0.000000 -0.328984 -0.208180 0.000000 -0.297332 -0.212696 0.000000 -0.264914 -0.217067 0.000000 -0.232061 -0.220297 0.000000 -0.198768 -0.223321 0.000000 -0.165127 -0.225296 0.000000 -0.131337 -0.227023 0.000000 -0.097297 -0.227791 0.000000 -0.063366 -0.228288 0.000000 -0.029285 -0.227907 0.000000 