# vtk DataFile Version 2.0
Comment goes here
ASCII

DATASET STRUCTURED_POINTS
FIELD FieldData 1
TIME 1 1 double
0.08500000
DIMENSIONS    128   128   1

ORIGIN    0.000   0.000   0.000
SPACING   0.039062 0.039062   1.000

POINT_DATA   16384
VECTORS u double

-0.333545 0.000000 0.000000 -0.286878 0.000000 0.000000 -0.236357 0.000000 0.000000 -0.189443 0.000000 0.000000 -0.138885 0.000000 0.000000 -0.092162 0.000000 0.000000 -0.042006 0.000000 0.000000 0.004125 0.000000 0.000000 0.053472 0.000000 0.000000 0.098640 0.000000 0.000000 0.146805 0.000000 0.000000 0.190670 0.000000 0.000000 0.237309 0.000000 0.000000 0.279561 0.000000 0.000000 0.324357 0.000000 0.000000 0.364714 0.000000 0.000000 0.407375 0.000000 0.000000 0.445580 0.000000 0.000000 0.485845 0.000000 0.000000 0.521666 0.000000 0.000000 0.559294 0.000000 0.000000 0.592525 0.000000 0.000000 0.627304 0.000000 0.000000 0.657764 0.000000 0.000000 0.689504 0.000000 0.000000 0.717037 0.000000 0.000000 0.745577 0.000000 0.000000 0.770050 0.000000 0.000000 0.795249 0.000000 0.000000 0.816553 0.000000 0.000000 0.838295 0.000000 0.000000 0.856343 0.000000 0.000000 0.874532 0.000000 0.000000 0.889255 0.000000 0.000000 0.903813 0.000000 0.000000 0.915158 0.000000 0.000000 0.926022 0.000000 0.000000 0.933949 0.000000 0.000000 0.941066 0.000000 0.000000 0.945545 0.000000 0.000000 0.948868 0.000000 0.000000 0.949874 0.000000 0.000000 0.949363 0.000000 0.000000 0.946874 0.000000 0.000000 0.942491 0.000000 0.000000 0.936488 0.000000 0.000000 0.928195 0.000000 0.000000 0.918660 0.000000 0.000000 0.906425 0.000000 0.000000 0.893340 0.000000 0.000000 0.877135 0.000000 0.000000 0.860488 0.000000 0.000000 0.840295 0.000000 0.000000 0.820084 0.000000 0.000000 0.795901 0.000000 0.000000 0.772137 0.000000 0.000000 0.743985 0.000000 0.000000 0.716700 0.000000 0.000000 0.684631 0.000000 0.000000 0.653886 0.000000 0.000000 0.617992 0.000000 0.000000 0.583883 0.000000 0.000000 0.544306 0.000000 0.000000 0.506974 0.000000 0.000000 0.463911 0.000000 0.000000 0.423548 0.000000 0.000000 0.377260 0.000000 0.000000 0.334115 0.000000 0.000000 0.284932 0.000000 0.000000 0.239316 0.000000 0.000000 0.187640 0.000000 0.000000 0.139927 0.000000 0.000000 0.086234 0.000000 0.000000 0.036863 0.000000 0.000000 -0.018302 0.000000 0.000000 -0.068829 0.000000 0.000000 -0.124855 0.000000 0.000000 -0.175980 0.000000 0.000000 -0.232199 0.000000 0.000000 -0.283312 0.000000 0.000000 -0.339009 0.000000 0.000000 -0.389458 0.000000 0.000000 -0.443888 0.000000 0.000000 -0.492990 0.000000 0.000000 -0.545388 0.000000 0.000000 -0.592449 0.000000 0.000000 -0.642050 0.000000 0.000000 -0.686371 0.000000 0.000000 -0.732431 0.000000 0.000000 -0.773333 0.000000 0.000000 -0.815142 0.000000 0.000000 -0.851980 0.000000 0.000000 -0.888888 0.000000 0.000000 -0.921070 0.000000 0.000000 -0.952500 0.000000 0.000000 -0.979506 0.000000 0.000000 -1.004975 0.000000 0.000000 -1.026372 0.000000 0.000000 -1.045501 0.000000 0.000000 -1.060958 0.000000 0.000000 -1.073487 0.000000 0.000000 -1.082787 0.000000 0.000000 -1.088581 0.000000 0.000000 -1.091624 0.000000 0.000000 -1.090678 0.000000 0.000000 -1.087486 0.000000 0.000000 -1.079916 0.000000 0.000000 -1.070629 0.000000 0.000000 -1.056674 0.000000 0.000000 -1.041542 0.000000 0.000000 -1.021545 0.000000 0.000000 -1.000916 0.000000 0.000000 -0.975309 0.000000 0.000000 -0.949612 0.000000 0.000000 -0.918902 0.000000 0.000000 -0.888633 0.000000 0.000000 -0.853378 0.000000 0.000000 -0.819075 0.000000 0.000000 -0.779870 0.000000 0.000000 -0.742100 0.000000 0.000000 -0.699552 0.000000 0.000000 -0.658894 0.000000 0.000000 -0.613612 0.000000 0.000000 -0.570639 0.000000 0.000000 -0.523219 0.000000 0.000000 -0.478490 0.000000 0.000000 -0.429504 0.000000 0.000000 -0.383554 0.000000 0.000000 
-0.332553 -0.048338 0.000000 -0.285894 -0.048594 0.000000 -0.235277 -0.048717 0.000000 -0.188376 -0.048736 0.000000 -0.137734 -0.048641 0.000000 -0.091025 -0.048440 0.000000 -0.040798 -0.048143 0.000000 0.005316 -0.047739 0.000000 0.054723 -0.047258 0.000000 0.099873 -0.046666 0.000000 0.148088 -0.046015 0.000000 0.191935 -0.045252 0.000000 0.238612 -0.044446 0.000000 0.280847 -0.043524 0.000000 0.325671 -0.042576 0.000000 0.366011 -0.041509 0.000000 0.408692 -0.040433 0.000000 0.446880 -0.039235 0.000000 0.487155 -0.038043 0.000000 0.522960 -0.036725 0.000000 0.560590 -0.035430 0.000000 0.593805 -0.034005 0.000000 0.628576 -0.032619 0.000000 0.659021 -0.031100 0.000000 0.690745 -0.029637 0.000000 0.718262 -0.028036 0.000000 0.746776 -0.026506 0.000000 0.771233 -0.024836 0.000000 0.796397 -0.023252 0.000000 0.817685 -0.021523 0.000000 0.839384 -0.019895 0.000000 0.857414 -0.018119 0.000000 0.875552 -0.016456 0.000000 0.890256 -0.014641 0.000000 0.904755 -0.012952 0.000000 0.916081 -0.011104 0.000000 0.926878 -0.009396 0.000000 0.934785 -0.007522 0.000000 0.941829 -0.005798 0.000000 0.946287 -0.003901 0.000000 0.949532 -0.002165 0.000000 0.950517 -0.000247 0.000000 0.949923 0.001500 0.000000 0.947413 0.003436 0.000000 0.942943 0.005193 0.000000 0.936920 0.007148 0.000000 0.928538 0.008914 0.000000 0.918983 0.010885 0.000000 0.906657 0.012660 0.000000 0.893553 0.014645 0.000000 0.877256 0.016426 0.000000 0.860593 0.018420 0.000000 0.840307 0.020202 0.000000 0.820082 0.022197 0.000000 0.795806 0.023974 0.000000 0.772031 0.025958 0.000000 0.743786 0.027719 0.000000 0.716492 0.029677 0.000000 0.684332 0.031407 0.000000 0.653580 0.033319 0.000000 0.617597 0.035001 0.000000 0.583484 0.036843 0.000000 0.543817 0.038454 0.000000 0.506484 0.040198 0.000000 0.463332 0.041713 0.000000 0.422970 0.043326 0.000000 0.376594 0.044717 0.000000 0.333452 0.046164 0.000000 0.284182 0.047400 0.000000 0.238569 0.048646 0.000000 0.186807 0.049694 0.000000 0.139098 0.050703 0.000000 0.085319 0.051532 0.000000 0.035952 0.052268 0.000000 -0.019298 0.052846 0.000000 -0.069823 0.053277 0.000000 -0.125933 0.053575 0.000000 -0.177055 0.053672 0.000000 -0.233357 0.053666 0.000000 -0.284467 0.053405 0.000000 -0.340245 0.053073 0.000000 -0.390692 0.052439 0.000000 -0.445198 0.051766 0.000000 -0.494299 0.050750 0.000000 -0.546767 0.049729 0.000000 -0.593825 0.048331 0.000000 -0.643488 0.046961 0.000000 -0.687805 0.045190 0.000000 -0.733915 0.043481 0.000000 -0.774810 0.041356 0.000000 -0.816656 0.039324 0.000000 -0.853484 0.036873 0.000000 -0.890412 0.034545 0.000000 -0.922580 0.031806 0.000000 -0.954011 0.029218 0.000000 -0.980998 0.026237 0.000000 -1.006446 0.023433 0.000000 -1.027820 0.020263 0.000000 -1.046906 0.017293 0.000000 -1.062335 0.013993 0.000000 -1.074798 0.010914 0.000000 -1.084064 0.007547 0.000000 -1.089770 0.004419 0.000000 -1.092776 0.001048 0.000000 -1.091720 -0.002069 0.000000 -1.088488 -0.005381 0.000000 -1.080792 -0.008428 0.000000 -1.071463 -0.011621 0.000000 -1.057366 -0.014543 0.000000 -1.042193 -0.017565 0.000000 -1.022041 -0.020313 0.000000 -1.001372 -0.023118 0.000000 -0.975604 -0.025652 0.000000 -0.949871 -0.028203 0.000000 -0.918996 -0.030490 0.000000 -0.888694 -0.032762 0.000000 -0.853275 -0.034779 0.000000 -0.818945 -0.036754 0.000000 -0.779579 -0.038487 0.000000 -0.741789 -0.040159 0.000000 -0.699087 -0.041603 0.000000 -0.658415 -0.042970 0.000000 -0.612989 -0.044127 0.000000 -0.570008 -0.045197 0.000000 -0.522454 -0.046075 0.000000 -0.477724 -0.046857 0.000000 -0.428616 -0.047468 0.000000 -0.382670 -0.047979 0.000000 
-0.334160 -0.096776 0.000000 -0.287257 -0.097276 0.000000 -0.236499 -0.097518 0.000000 -0.189367 -0.097543 0.000000 -0.138589 -0.097350 0.000000 -0.091664 -0.096936 0.000000 -0.041306 -0.096341 0.000000 0.005010 -0.095522 0.000000 0.054545 -0.094557 0.000000 0.099882 -0.093364 0.000000 0.148219 -0.092062 0.000000 0.192240 -0.090525 0.000000 0.239036 -0.088912 0.000000 0.281430 -0.087059 0.000000 0.326370 -0.085164 0.000000 0.366856 -0.083021 0.000000 0.409650 -0.080870 0.000000 0.447970 -0.078463 0.000000 0.488354 -0.076080 0.000000 0.524278 -0.073435 0.000000 0.562013 -0.070845 0.000000 0.595335 -0.067986 0.000000 0.630208 -0.065216 0.000000 0.660746 -0.062169 0.000000 0.692568 -0.059241 0.000000 0.720167 -0.056031 0.000000 0.748776 -0.052971 0.000000 0.773304 -0.049621 0.000000 0.798561 -0.046452 0.000000 0.819909 -0.042986 0.000000 0.841699 -0.039729 0.000000 0.859781 -0.036168 0.000000 0.878009 -0.032842 0.000000 0.892759 -0.029203 0.000000 0.907349 -0.025825 0.000000 0.918714 -0.022123 0.000000 0.929604 -0.018705 0.000000 0.937547 -0.014951 0.000000 0.944686 -0.011502 0.000000 0.949177 -0.007703 0.000000 0.952520 -0.004230 0.000000 0.953537 -0.000391 0.000000 0.953045 0.003103 0.000000 0.950567 0.006980 0.000000 0.946201 0.010493 0.000000 0.940208 0.014405 0.000000 0.931931 0.017937 0.000000 0.922404 0.021881 0.000000 0.910183 0.025429 0.000000 0.897103 0.029401 0.000000 0.880907 0.032960 0.000000 0.864262 0.036949 0.000000 0.844070 0.040511 0.000000 0.823853 0.044501 0.000000 0.799660 0.048052 0.000000 0.775879 0.052020 0.000000 0.747701 0.055538 0.000000 0.720386 0.059454 0.000000 0.688271 0.062912 0.000000 0.657477 0.066736 0.000000 0.621513 0.070096 0.000000 0.587334 0.073779 0.000000 0.547657 0.077000 0.000000 0.510230 0.080485 0.000000 0.467036 0.083514 0.000000 0.426549 0.086738 0.000000 0.380095 0.089518 0.000000 0.336795 0.092412 0.000000 0.287411 0.094883 0.000000 0.241608 0.097375 0.000000 0.189694 0.099471 0.000000 0.141762 0.101488 0.000000 0.087796 0.103146 0.000000 0.038174 0.104617 0.000000 -0.017296 0.105774 0.000000 -0.068103 0.106635 0.000000 -0.124463 0.107233 0.000000 -0.175893 0.107424 0.000000 -0.232469 0.107412 0.000000 -0.283907 0.106888 0.000000 -0.339979 0.106225 0.000000 -0.390767 0.104952 0.000000 -0.445579 0.103607 0.000000 -0.495031 0.101569 0.000000 -0.547810 0.099526 0.000000 -0.595219 0.096721 0.000000 -0.645194 0.093980 0.000000 -0.689855 0.090427 0.000000 -0.736268 0.087005 0.000000 -0.777493 0.082741 0.000000 -0.819628 0.078674 0.000000 -0.856761 0.073756 0.000000 -0.893958 0.069096 0.000000 -0.926400 0.063599 0.000000 -0.958072 0.058418 0.000000 -0.985294 0.052435 0.000000 -1.010952 0.046821 0.000000 -1.032514 0.040459 0.000000 -1.051773 0.034515 0.000000 -1.067339 0.027892 0.000000 -1.079935 0.021730 0.000000 -1.089285 0.014973 0.000000 -1.095082 0.008712 0.000000 -1.098114 0.001950 0.000000 -1.097108 -0.004288 0.000000 -1.093846 -0.010929 0.000000 -1.086158 -0.017025 0.000000 -1.076746 -0.023426 0.000000 -1.062619 -0.029271 0.000000 -1.047314 -0.035325 0.000000 -1.027099 -0.040821 0.000000 -1.006255 -0.046437 0.000000 -0.980395 -0.051501 0.000000 -0.954451 -0.056608 0.000000 -0.923462 -0.061177 0.000000 -0.892922 -0.065721 0.000000 -0.857372 -0.069749 0.000000 -0.822785 -0.073696 0.000000 -0.783275 -0.077156 0.000000 -0.745217 -0.080492 0.000000 -0.702364 -0.083374 0.000000 -0.661419 -0.086099 0.000000 -0.615839 -0.088407 0.000000 -0.572587 -0.090534 0.000000 -0.524880 -0.092284 0.000000 -0.479884 -0.093838 0.000000 -0.430626 -0.095054 0.000000 -0.384424 -0.096063 0.000000 
-0.333766 -0.145504 0.000000 -0.286637 -0.146255 0.000000 -0.235546 -0.146607 0.000000 -0.188208 -0.146646 0.000000 -0.137128 -0.146344 0.000000 -0.090017 -0.145723 0.000000 -0.039384 -0.144818 0.000000 0.007099 -0.143589 0.000000 0.056880 -0.142129 0.000000 0.102368 -0.140341 0.000000 0.150926 -0.138373 0.000000 0.195083 -0.136069 0.000000 0.242077 -0.133636 0.000000 0.284594 -0.130858 0.000000 0.329708 -0.128002 0.000000 0.370304 -0.124789 0.000000 0.413250 -0.121548 0.000000 0.451669 -0.117939 0.000000 0.492183 -0.114351 0.000000 0.528194 -0.110384 0.000000 0.566037 -0.106487 0.000000 0.599434 -0.102199 0.000000 0.634393 -0.098031 0.000000 0.664994 -0.093461 0.000000 0.696882 -0.089058 0.000000 0.724531 -0.084244 0.000000 0.753184 -0.079643 0.000000 0.777750 -0.074621 0.000000 0.803031 -0.069857 0.000000 0.824406 -0.064661 0.000000 0.846201 -0.059767 0.000000 0.864300 -0.054429 0.000000 0.882515 -0.049433 0.000000 0.897272 -0.043980 0.000000 0.911834 -0.038907 0.000000 0.923200 -0.033360 0.000000 0.934049 -0.028229 0.000000 0.941987 -0.022603 0.000000 0.949075 -0.017428 0.000000 0.953557 -0.011736 0.000000 0.956842 -0.006525 0.000000 0.957848 -0.000772 0.000000 0.957291 0.004470 0.000000 0.954801 0.010280 0.000000 0.950366 0.015552 0.000000 0.944361 0.021417 0.000000 0.936011 0.026718 0.000000 0.926472 0.032634 0.000000 0.914172 0.037961 0.000000 0.901080 0.043921 0.000000 0.884800 0.049267 0.000000 0.868139 0.055257 0.000000 0.847855 0.060611 0.000000 0.827618 0.066607 0.000000 0.803321 0.071947 0.000000 0.779512 0.077917 0.000000 0.751215 0.083212 0.000000 0.723860 0.089107 0.000000 0.691608 0.094316 0.000000 0.660759 0.100077 0.000000 0.624634 0.105144 0.000000 0.590381 0.110699 0.000000 0.550517 0.115558 0.000000 0.512992 0.120819 0.000000 0.469579 0.125394 0.000000 0.428969 0.130266 0.000000 0.382263 0.134470 0.000000 0.338810 0.138848 0.000000 0.289138 0.142587 0.000000 0.243151 0.146362 0.000000 0.190914 0.149540 0.000000 0.142766 0.152601 0.000000 0.088442 0.155120 0.000000 0.038573 0.157360 0.000000 -0.017288 0.159124 0.000000 -0.068371 0.160444 0.000000 -0.125150 0.161365 0.000000 -0.176882 0.161678 0.000000 -0.233899 0.161680 0.000000 -0.285661 0.160915 0.000000 -0.342188 0.159933 0.000000 -0.393316 0.158040 0.000000 -0.448588 0.156030 0.000000 -0.498387 0.152981 0.000000 -0.551621 0.149918 0.000000 -0.599377 0.145714 0.000000 -0.649788 0.141597 0.000000 -0.694786 0.136265 0.000000 -0.741606 0.131119 0.000000 -0.783148 0.124715 0.000000 -0.825647 0.118592 0.000000 -0.863068 0.111203 0.000000 -0.900574 0.104183 0.000000 -0.933263 0.095921 0.000000 -0.965180 0.088113 0.000000 -0.992600 0.079117 0.000000 -1.018427 0.070653 0.000000 -1.040132 0.061084 0.000000 -1.059477 0.052118 0.000000 -1.075124 0.042156 0.000000 -1.087721 0.032860 0.000000 -1.097086 0.022694 0.000000 -1.102797 0.013248 0.000000 -1.105780 0.003074 0.000000 -1.104603 -0.006338 0.000000 -1.101229 -0.016331 0.000000 -1.093292 -0.025528 0.000000 -1.083712 -0.035160 0.000000 -1.069268 -0.043976 0.000000 -1.053745 -0.053085 0.000000 -1.033156 -0.061372 0.000000 -1.012055 -0.069822 0.000000 -0.985777 -0.077455 0.000000 -0.959548 -0.085136 0.000000 -0.928110 -0.092019 0.000000 -0.897267 -0.098852 0.000000 -0.861252 -0.104916 0.000000 -0.826355 -0.110851 0.000000 -0.786377 -0.116056 0.000000 -0.748009 -0.121070 0.000000 -0.704696 -0.125401 0.000000 -0.663449 -0.129495 0.000000 -0.617425 -0.132959 0.000000 -0.573887 -0.136156 0.000000 -0.525759 -0.138778 0.000000 -0.480495 -0.141111 0.000000 -0.430843 -0.142929 0.000000 -0.384393 -0.144445 0.000000 
-0.335972 -0.194533 0.000000 -0.288361 -0.195496 0.000000 -0.236891 -0.195947 0.000000 -0.189104 -0.195962 0.000000 -0.137668 -0.195541 0.000000 -0.090139 -0.194679 0.000000 -0.039173 -0.193457 0.000000 0.007697 -0.191786 0.000000 0.057792 -0.189827 0.000000 0.103637 -0.187411 0.000000 0.152490 -0.184777 0.000000 0.196975 -0.181675 0.000000 0.244246 -0.178423 0.000000 0.287064 -0.174690 0.000000 0.332438 -0.170874 0.000000 0.373308 -0.166563 0.000000 0.416498 -0.162234 0.000000 0.455165 -0.157396 0.000000 0.495907 -0.152605 0.000000 0.532141 -0.147289 0.000000 0.570196 -0.142085 0.000000 0.603789 -0.136343 0.000000 0.638944 -0.130776 0.000000 0.669717 -0.124657 0.000000 0.701784 -0.118778 0.000000 0.729581 -0.112333 0.000000 0.758398 -0.106190 0.000000 0.783088 -0.099468 0.000000 0.808519 -0.093108 0.000000 0.829997 -0.086156 0.000000 0.851930 -0.079622 0.000000 0.870113 -0.072483 0.000000 0.888457 -0.065814 0.000000 0.903283 -0.058522 0.000000 0.917967 -0.051752 0.000000 0.929390 -0.044338 0.000000 0.940358 -0.037492 0.000000 0.948345 -0.029976 0.000000 0.955551 -0.023072 0.000000 0.960078 -0.015470 0.000000 0.963482 -0.008520 0.000000 0.964530 -0.000840 0.000000 0.964094 0.006150 0.000000 0.961645 0.013905 0.000000 0.957334 0.020934 0.000000 0.951369 0.028760 0.000000 0.943144 0.035826 0.000000 0.933642 0.043720 0.000000 0.921464 0.050821 0.000000 0.908404 0.058773 0.000000 0.892238 0.065901 0.000000 0.875599 0.073894 0.000000 0.855414 0.081032 0.000000 0.835183 0.089035 0.000000 0.810962 0.096157 0.000000 0.787136 0.104125 0.000000 0.758884 0.111190 0.000000 0.731481 0.119062 0.000000 0.699232 0.126013 0.000000 0.668296 0.133709 0.000000 0.632125 0.140475 0.000000 0.597738 0.147897 0.000000 0.557769 0.154388 0.000000 0.520057 0.161423 0.000000 0.476473 0.167537 0.000000 0.435615 0.174055 0.000000 0.388667 0.179677 0.000000 0.344903 0.185537 0.000000 0.294916 0.190542 0.000000 0.248551 0.195599 0.000000 0.195924 0.199856 0.000000 0.147332 0.203960 0.000000 0.092545 0.207339 0.000000 0.042169 0.210347 0.000000 -0.014221 0.212719 0.000000 -0.065871 0.214497 0.000000 -0.123238 0.215744 0.000000 -0.175588 0.216174 0.000000 -0.233242 0.216191 0.000000 -0.285664 0.215177 0.000000 -0.342863 0.213879 0.000000 -0.394681 0.211353 0.000000 -0.450647 0.208678 0.000000 -0.501152 0.204601 0.000000 -0.555087 0.200516 0.000000 -0.603550 0.194888 0.000000 -0.654652 0.189389 0.000000 -0.700342 0.182246 0.000000 -0.747827 0.175367 0.000000 -0.790028 0.166783 0.000000 -0.833149 0.158594 0.000000 -0.871179 0.148683 0.000000 -0.909248 0.139291 0.000000 -0.942478 0.128205 0.000000 -0.974884 0.117756 0.000000 -1.002763 0.105682 0.000000 -1.028992 0.094353 0.000000 -1.051056 0.081509 0.000000 -1.070707 0.069507 0.000000 -1.086605 0.056136 0.000000 -1.099404 0.043691 0.000000 -1.108903 0.030049 0.000000 -1.114709 0.017406 0.000000 -1.117706 0.003755 0.000000 -1.116517 -0.008838 0.000000 -1.113041 -0.022239 0.000000 -1.104992 -0.034542 0.000000 -1.095199 -0.047450 0.000000 -1.080549 -0.059238 0.000000 -1.064714 -0.071437 0.000000 -1.043839 -0.082510 0.000000 -1.022342 -0.093816 0.000000 -0.995713 -0.104009 0.000000 -0.969018 -0.114275 0.000000 -0.937180 -0.123458 0.000000 -0.905822 -0.132578 0.000000 -0.869373 -0.140661 0.000000 -0.833927 -0.148572 0.000000 -0.793496 -0.155502 0.000000 -0.754563 -0.162173 0.000000 -0.710791 -0.167933 0.000000 -0.668979 -0.173369 0.000000 -0.622500 -0.177970 0.000000 -0.578407 -0.182201 0.000000 -0.529836 -0.185676 0.000000 -0.484036 -0.188753 0.000000 -0.433961 -0.191155 0.000000 -0.387001 -0.193140 0.000000 
-0.336123 -0.244144 0.000000 -0.288053 -0.245335 0.000000 -0.236013 -0.245865 0.000000 -0.187804 -0.245870 0.000000 -0.135847 -0.245309 0.000000 -0.087934 -0.244218 0.000000 -0.036493 -0.242654 0.000000 0.010727 -0.240554 0.000000 0.061253 -0.238069 0.000000 0.107417 -0.235039 0.000000 0.156661 -0.231711 0.000000 0.201436 -0.227824 0.000000 0.249060 -0.223725 0.000000 0.292141 -0.219050 0.000000 0.337833 -0.214246 0.000000 0.378942 -0.208849 0.000000 0.422415 -0.203405 0.000000 0.461296 -0.197348 0.000000 0.502287 -0.191326 0.000000 0.538711 -0.184672 0.000000 0.576981 -0.178135 0.000000 0.610741 -0.170948 0.000000 0.646076 -0.163958 0.000000 0.676990 -0.156301 0.000000 0.709204 -0.148922 0.000000 0.737117 -0.140858 0.000000 0.766047 -0.133150 0.000000 0.790830 -0.124742 0.000000 0.816341 -0.116766 0.000000 0.837890 -0.108072 0.000000 0.859872 -0.099883 0.000000 0.878106 -0.090957 0.000000 0.896473 -0.082603 0.000000 0.911332 -0.073490 0.000000 0.926017 -0.065014 0.000000 0.937458 -0.055750 0.000000 0.948408 -0.047183 0.000000 0.956403 -0.037796 0.000000 0.963578 -0.029161 0.000000 0.968106 -0.019667 0.000000 0.971469 -0.010976 0.000000 0.972515 -0.001385 0.000000 0.972032 0.007355 0.000000 0.969580 0.017041 0.000000 0.965216 0.025829 0.000000 0.959248 0.035607 0.000000 0.950965 0.044445 0.000000 0.941460 0.054313 0.000000 0.929218 0.063198 0.000000 0.916152 0.073147 0.000000 0.899912 0.082072 0.000000 0.883262 0.092081 0.000000 0.862987 0.101027 0.000000 0.842733 0.111059 0.000000 0.818401 0.119994 0.000000 0.794534 0.129994 0.000000 0.766141 0.138867 0.000000 0.738672 0.148759 0.000000 0.706243 0.157501 0.000000 0.675208 0.167184 0.000000 0.638810 0.175703 0.000000 0.604282 0.185055 0.000000 0.564030 0.193240 0.000000 0.526128 0.202115 0.000000 0.482198 0.209836 0.000000 0.441095 0.218072 0.000000 0.393732 0.225182 0.000000 0.349663 0.232600 0.000000 0.299186 0.238940 0.000000 0.252452 0.245354 0.000000 0.199263 0.250759 0.000000 0.150236 0.255980 0.000000 0.094815 0.260282 0.000000 0.043940 0.264126 0.000000 -0.013151 0.267164 0.000000 -0.065360 0.269461 0.000000 -0.123487 0.271083 0.000000 -0.176449 0.271682 0.000000 -0.234909 0.271755 0.000000 -0.287987 0.270536 0.000000 -0.346026 0.268950 0.000000 -0.398531 0.265824 0.000000 -0.455352 0.262501 0.000000 -0.506562 0.257421 0.000000 -0.561347 0.252316 0.000000 -0.610516 0.245279 0.000000 -0.662443 0.238389 0.000000 -0.708820 0.229440 0.000000 -0.757082 0.220804 0.000000 -0.799933 0.210037 0.000000 -0.843760 0.199743 0.000000 -0.882382 0.187301 0.000000 -0.921063 0.175483 0.000000 -0.954810 0.161557 0.000000 -0.987714 0.148397 0.000000 -1.016014 0.133224 0.000000 -1.042610 0.118946 0.000000 -1.064987 0.102800 0.000000 -1.084860 0.087667 0.000000 -1.100949 0.070853 0.000000 -1.113816 0.055157 0.000000 -1.123380 0.037999 0.000000 -1.129098 0.022051 0.000000 -1.132031 0.004882 0.000000 -1.130604 -0.011003 0.000000 -1.126940 -0.027856 0.000000 -1.118510 -0.043371 0.000000 -1.108415 -0.059602 0.000000 -1.093260 -0.074461 0.000000 -1.077023 -0.089795 0.000000 -1.055540 -0.103744 0.000000 -1.033559 -0.117949 0.000000 -1.006240 -0.130778 0.000000 -0.979002 -0.143669 0.000000 -0.946418 -0.155216 0.000000 -0.914475 -0.166660 0.000000 -0.877249 -0.176811 0.000000 -0.841198 -0.186728 0.000000 -0.799981 -0.195419 0.000000 -0.760442 -0.203774 0.000000 -0.715894 -0.210985 0.000000 -0.673488 -0.217786 0.000000 -0.626259 -0.223532 0.000000 -0.581596 -0.228820 0.000000 -0.532313 -0.233148 0.000000 -0.485976 -0.236986 0.000000 -0.435232 -0.239964 0.000000 -0.387772 -0.242434 0.000000 
-0.338874 -0.294252 0.000000 -0.290084 -0.295606 0.000000 -0.237428 -0.296195 0.000000 -0.188550 -0.296128 0.000000 -0.136018 -0.295412 0.000000 -0.087486 -0.294033 0.000000 -0.035510 -0.292118 0.000000 0.012280 -0.289532 0.000000 0.063305 -0.286517 0.000000 0.109993 -0.282818 0.000000 0.159703 -0.278796 0.000000 0.204959 -0.274074 0.000000 0.253018 -0.269128 0.000000 0.296540 -0.263464 0.000000 0.342637 -0.257675 0.000000 0.384148 -0.251145 0.000000 0.427997 -0.244589 0.000000 0.467242 -0.237268 0.000000 0.508580 -0.230019 0.000000 0.545329 -0.221983 0.000000 0.583918 -0.214115 0.000000 0.617964 -0.205438 0.000000 0.653589 -0.197026 0.000000 0.684751 -0.187785 0.000000 0.717225 -0.178905 0.000000 0.745350 -0.169176 0.000000 0.774511 -0.159903 0.000000 0.799470 -0.149763 0.000000 0.825186 -0.140168 0.000000 0.846878 -0.129688 0.000000 0.869042 -0.119839 0.000000 0.887390 -0.109083 0.000000 0.905921 -0.099040 0.000000 0.920870 -0.088066 0.000000 0.935704 -0.077879 0.000000 0.947218 -0.066730 0.000000 0.958309 -0.056437 0.000000 0.966365 -0.045146 0.000000 0.973676 -0.034775 0.000000 0.978258 -0.023362 0.000000 0.981759 -0.012929 0.000000 0.982856 -0.001403 0.000000 0.982514 0.009086 0.000000 0.980113 0.020721 0.000000 0.975894 0.031266 0.000000 0.969978 0.043011 0.000000 0.961842 0.053614 0.000000 0.952387 0.065467 0.000000 0.940289 0.076129 0.000000 0.927268 0.088080 0.000000 0.911160 0.098792 0.000000 0.894543 0.110818 0.000000 0.874380 0.121561 0.000000 0.854137 0.133621 0.000000 0.829884 0.144356 0.000000 0.805996 0.156385 0.000000 0.777635 0.167053 0.000000 0.750100 0.178960 0.000000 0.717642 0.189477 0.000000 0.686483 0.201142 0.000000 0.649981 0.211401 0.000000 0.615259 0.222677 0.000000 0.574814 0.232542 0.000000 0.536637 0.243254 0.000000 0.492414 0.252570 0.000000 0.450944 0.262521 0.000000 0.403179 0.271109 0.000000 0.358646 0.280083 0.000000 0.307653 0.287753 0.000000 0.260353 0.295522 0.000000 0.206533 0.302072 0.000000 0.156838 0.308408 0.000000 0.100675 0.313635 0.000000 0.049034 0.318313 0.000000 -0.008903 0.322019 0.000000 -0.061969 0.324832 0.000000 -0.121033 0.326833 0.000000 -0.174933 0.327597 0.000000 -0.234405 0.327729 0.000000 -0.288485 0.326293 0.000000 -0.347591 0.324423 0.000000 -0.401146 0.320679 0.000000 -0.459067 0.316709 0.000000 -0.511353 0.310596 0.000000 -0.567245 0.304470 0.000000 -0.617493 0.295983 0.000000 -0.670508 0.287694 0.000000 -0.717943 0.276885 0.000000 -0.767246 0.266480 0.000000 -0.811105 0.253460 0.000000 -0.855901 0.241043 0.000000 -0.895454 0.225986 0.000000 -0.935006 0.211719 0.000000 -0.969579 0.194856 0.000000 -1.003232 0.178960 0.000000 -1.032227 0.160578 0.000000 -1.059429 0.143325 0.000000 -1.082348 0.123759 0.000000 -1.102667 0.105469 0.000000 -1.119127 0.085092 0.000000 -1.132268 0.066122 0.000000 -1.142020 0.045331 0.000000 -1.147836 0.026058 0.000000 -1.150770 0.005261 0.000000 -1.149265 -0.013930 0.000000 -1.145419 -0.034333 0.000000 -1.136746 -0.053067 0.000000 -1.126296 -0.072700 0.000000 -1.110749 -0.090629 0.000000 -1.094004 -0.109158 0.000000 -1.071999 -0.125975 0.000000 -1.049381 -0.143116 0.000000 -1.021438 -0.158566 0.000000 -0.993461 -0.174097 0.000000 -0.960176 -0.187984 0.000000 -0.927422 -0.201747 0.000000 -0.889445 -0.213938 0.000000 -0.852538 -0.225839 0.000000 -0.810546 -0.236258 0.000000 -0.770132 -0.246261 0.000000 -0.724805 -0.254887 0.000000 -0.681529 -0.263004 0.000000 -0.633536 -0.269862 0.000000 -0.588024 -0.276148 0.000000 -0.538005 -0.281297 0.000000 -0.490855 -0.285834 0.000000 -0.439411 -0.289359 0.000000 -0.391182 -0.292249 0.000000 
-0.339483 -0.345242 0.000000 -0.289998 -0.346782 0.000000 -0.236537 -0.347398 0.000000 -0.187023 -0.347280 0.000000 -0.133754 -0.346372 0.000000 -0.084642 -0.344726 0.000000 -0.031994 -0.342421 0.000000 0.016326 -0.339369 0.000000 0.067964 -0.335783 0.000000 0.115135 -0.331437 0.000000 0.165403 -0.326677 0.000000 0.211100 -0.321139 0.000000 0.259667 -0.315305 0.000000 0.303591 -0.308670 0.000000 0.350149 -0.301854 0.000000 0.392025 -0.294209 0.000000 0.436289 -0.286499 0.000000 0.475863 -0.277931 0.000000 0.517570 -0.269413 0.000000 0.554612 -0.260010 0.000000 0.593523 -0.250770 0.000000 0.627826 -0.240619 0.000000 0.663726 -0.230746 0.000000 0.695108 -0.219937 0.000000 0.727809 -0.209520 0.000000 0.756116 -0.198144 0.000000 0.785457 -0.187270 0.000000 0.810562 -0.175417 0.000000 0.836413 -0.164174 0.000000 0.858216 -0.151928 0.000000 0.880473 -0.140395 0.000000 0.898901 -0.127835 0.000000 0.917487 -0.116083 0.000000 0.932490 -0.103274 0.000000 0.947349 -0.091362 0.000000 0.958896 -0.078356 0.000000 0.969988 -0.066330 0.000000 0.978061 -0.053163 0.000000 0.985357 -0.041054 0.000000 0.989948 -0.027750 0.000000 0.993422 -0.015574 0.000000 0.994524 -0.002140 0.000000 0.994149 0.010098 0.000000 0.991753 0.023661 0.000000 0.987498 0.035964 0.000000 0.981587 0.049660 0.000000 0.973412 0.062035 0.000000 0.963964 0.075866 0.000000 0.951820 0.088317 0.000000 0.938804 0.102276 0.000000 0.922638 0.114798 0.000000 0.906016 0.128861 0.000000 0.885775 0.141433 0.000000 0.865512 0.155555 0.000000 0.841149 0.168135 0.000000 0.817214 0.182243 0.000000 0.788698 0.194764 0.000000 0.761078 0.208752 0.000000 0.728408 0.221117 0.000000 0.697113 0.234846 0.000000 0.660325 0.246927 0.000000 0.625404 0.260222 0.000000 0.584588 0.271862 0.000000 0.546136 0.284516 0.000000 0.501444 0.295528 0.000000 0.459614 0.307306 0.000000 0.411274 0.317481 0.000000 0.366285 0.328126 0.000000 0.314605 0.337233 0.000000 0.266750 0.346474 0.000000 0.212127 0.354274 0.000000 0.161777 0.361838 0.000000 0.104699 0.368087 0.000000 0.052303 0.373705 0.000000 -0.006654 0.378167 0.000000 -0.060568 0.381591 0.000000 -0.120744 0.384046 0.000000 -0.175574 0.385055 0.000000 -0.236234 0.385308 0.000000 -0.291314 0.383721 0.000000 -0.351661 0.381611 0.000000 -0.406267 0.377300 0.000000 -0.465457 0.372707 0.000000 -0.518822 0.365599 0.000000 -0.575982 0.358456 0.000000 -0.627313 0.348542 0.000000 -0.681562 0.338838 0.000000 -0.730055 0.326178 0.000000 -0.780527 0.313966 0.000000 -0.825389 0.298692 0.000000 -0.871253 0.284092 0.000000 -0.911725 0.266406 0.000000 -0.952211 0.249608 0.000000 -0.987587 0.229783 0.000000 -1.022010 0.211046 0.000000 -1.051666 0.189421 0.000000 -1.079445 0.169067 0.000000 -1.102858 0.146037 0.000000 -1.123542 0.124446 0.000000 -1.140312 0.100454 0.000000 -1.153591 0.078050 0.000000 -1.163457 0.053567 0.000000 -1.169181 0.030802 0.000000 -1.172031 0.006312 0.000000 -1.170209 -0.016354 0.000000 -1.166087 -0.040376 0.000000 -1.156888 -0.062493 0.000000 -1.145987 -0.085599 0.000000 -1.129727 -0.106753 0.000000 -1.112377 -0.128545 0.000000 -1.089505 -0.148367 0.000000 -1.066157 -0.168510 0.000000 -1.037228 -0.186699 0.000000 -1.008427 -0.204931 0.000000 -0.974074 -0.221255 0.000000 -0.940435 -0.237391 0.000000 -0.901346 -0.251695 0.000000 -0.863523 -0.265627 0.000000 -0.820407 -0.277825 0.000000 -0.779075 -0.289515 0.000000 -0.732641 -0.299587 0.000000 -0.688467 -0.309055 0.000000 -0.639406 -0.317037 0.000000 -0.593033 -0.324351 0.000000 -0.542001 -0.330317 0.000000 -0.494041 -0.335580 0.000000 -0.441650 -0.339637 0.000000 -0.392667 -0.342971 0.000000 