# vtk DataFile Version 2.0
Comment goes here
ASCII

DATASET STRUCTURED_POINTS
FIELD FieldData 1
TIME 1 1 double
0.16000000
DIMENSIONS    128   128   1

ORIGIN    0.000   0.000   0.000
SPACING   0.039062 0.039062   1.000

POINT_DATA   16384
VECTORS u double

-0.079357 0.000000 0.000000 -0.068342 0.000000 0.000000 -0.060085 0.000000 0.000000 -0.048352 0.000000 0.000000 -0.039072 0.000000 0.000000 -0.026770 0.000000 0.000000 -0.016618 0.000000 0.000000 -0.003924 0.000000 0.000000 0.006917 0.000000 0.000000 0.019803 0.000000 0.000000 0.031127 0.000000 0.000000 0.043990 0.000000 0.000000 0.055572 0.000000 0.000000 0.068182 0.000000 0.000000 0.079787 0.000000 0.000000 0.091910 0.000000 0.000000 0.103298 0.000000 0.000000 0.114703 0.000000 0.000000 0.125638 0.000000 0.000000 0.136101 0.000000 0.000000 0.146360 0.000000 0.000000 0.155676 0.000000 0.000000 0.165056 0.000000 0.000000 0.173042 0.000000 0.000000 0.181367 0.000000 0.000000 0.187871 0.000000 0.000000 0.194999 0.000000 0.000000 0.199903 0.000000 0.000000 0.205727 0.000000 0.000000 0.208951 0.000000 0.000000 0.213404 0.000000 0.000000 0.214908 0.000000 0.000000 0.217962 0.000000 0.000000 0.217743 0.000000 0.000000 0.219407 0.000000 0.000000 0.217500 0.000000 0.000000 0.217816 0.000000 0.000000 0.214289 0.000000 0.000000 0.213327 0.000000 0.000000 0.208276 0.000000 0.000000 0.206130 0.000000 0.000000 0.199674 0.000000 0.000000 0.196455 0.000000 0.000000 0.188732 0.000000 0.000000 0.184560 0.000000 0.000000 0.175721 0.000000 0.000000 0.170723 0.000000 0.000000 0.160929 0.000000 0.000000 0.155233 0.000000 0.000000 0.144649 0.000000 0.000000 0.138382 0.000000 0.000000 0.127174 0.000000 0.000000 0.120459 0.000000 0.000000 0.108794 0.000000 0.000000 0.101749 0.000000 0.000000 0.089794 0.000000 0.000000 0.082530 0.000000 0.000000 0.070447 0.000000 0.000000 0.063071 0.000000 0.000000 0.051019 0.000000 0.000000 0.043633 0.000000 0.000000 0.031765 0.000000 0.000000 0.024464 0.000000 0.000000 0.012928 0.000000 0.000000 0.005801 0.000000 0.000000 -0.005265 0.000000 0.000000 -0.012135 0.000000 0.000000 -0.022603 0.000000 0.000000 -0.029142 0.000000 0.000000 -0.038900 0.000000 0.000000 -0.045046 0.000000 0.000000 -0.053997 0.000000 0.000000 -0.059701 0.000000 0.000000 -0.067770 0.000000 0.000000 -0.073001 0.000000 0.000000 -0.080137 0.000000 0.000000 -0.084882 0.000000 0.000000 -0.091060 0.000000 0.000000 -0.095330 0.000000 0.000000 -0.100550 0.000000 0.000000 -0.104377 0.000000 0.000000 -0.108670 0.000000 0.000000 -0.112106 0.000000 0.000000 -0.115525 0.000000 0.000000 -0.118644 0.000000 0.000000 -0.121265 0.000000 0.000000 -0.124153 0.000000 0.000000 -0.126069 0.000000 0.000000 -0.128819 0.000000 0.000000 -0.130130 0.000000 0.000000 -0.132838 0.000000 0.000000 -0.133647 0.000000 0.000000 -0.136397 0.000000 0.000000 -0.136799 0.000000 0.000000 -0.139662 0.000000 0.000000 -0.139735 0.000000 0.000000 -0.142753 0.000000 0.000000 -0.142555 0.000000 0.000000 -0.145740 0.000000 0.000000 -0.145301 0.000000 0.000000 -0.148630 0.000000 0.000000 -0.147949 0.000000 0.000000 -0.151360 0.000000 0.000000 -0.150407 0.000000 0.000000 -0.153805 0.000000 0.000000 -0.152521 0.000000 0.000000 -0.155779 0.000000 0.000000 -0.154083 0.000000 0.000000 -0.157051 0.000000 0.000000 -0.154845 0.000000 0.000000 -0.157358 0.000000 0.000000 -0.154536 0.000000 0.000000 -0.156424 0.000000 0.000000 -0.152879 0.000000 0.000000 -0.153976 0.000000 0.000000 -0.149609 0.000000 0.000000 -0.149763 0.000000 0.000000 -0.144491 0.000000 0.000000 -0.143572 0.000000 0.000000 -0.137331 0.000000 0.000000 -0.135236 0.000000 0.000000 -0.127991 0.000000 0.000000 -0.124651 0.000000 0.000000 -0.116394 0.000000 0.000000 -0.111777 0.000000 0.000000 -0.102533 0.000000 0.000000 -0.096645 0.000000 0.000000 -0.086471 0.000000 0.000000 
-0.077544 -0.009064 0.000000 -0.066570 -0.009636 0.000000 -0.058346 -0.009995 0.000000 -0.046657 -0.010507 0.000000 -0.037410 -0.010791 0.000000 -0.025155 -0.011227 0.000000 -0.015038 -0.011423 0.000000 -0.002393 -0.011767 0.000000 0.008412 -0.011864 0.000000 0.021250 -0.012105 0.000000 0.032538 -0.012093 0.000000 0.045351 -0.012222 0.000000 0.056898 -0.012096 0.000000 0.069457 -0.012107 0.000000 0.081026 -0.011864 0.000000 0.093099 -0.011756 0.000000 0.104450 -0.011396 0.000000 0.115803 -0.011170 0.000000 0.126699 -0.010699 0.000000 0.137110 -0.010361 0.000000 0.147327 -0.009787 0.000000 0.156589 -0.009348 0.000000 0.165923 -0.008683 0.000000 0.173854 -0.008156 0.000000 0.182129 -0.007415 0.000000 0.188576 -0.006816 0.000000 0.195648 -0.006016 0.000000 0.200493 -0.005364 0.000000 0.206255 -0.004524 0.000000 0.209418 -0.003839 0.000000 0.213804 -0.002978 0.000000 0.215245 -0.002279 0.000000 0.218225 -0.001418 0.000000 0.217943 -0.000723 0.000000 0.219527 0.000121 0.000000 0.217556 0.000795 0.000000 0.217787 0.001606 0.000000 0.214195 0.002244 0.000000 0.213145 0.003006 0.000000 0.208029 0.003598 0.000000 0.205792 0.004301 0.000000 0.199272 0.004838 0.000000 0.195958 0.005471 0.000000 0.188172 0.005947 0.000000 0.183905 0.006505 0.000000 0.175004 0.006918 0.000000 0.169911 0.007396 0.000000 0.160056 0.007745 0.000000 0.154266 0.008140 0.000000 0.143622 0.008426 0.000000 0.137262 0.008737 0.000000 0.125996 0.008962 0.000000 0.119190 0.009190 0.000000 0.107469 0.009355 0.000000 0.100337 0.009500 0.000000 0.088327 0.009609 0.000000 0.080979 0.009673 0.000000 0.068844 0.009729 0.000000 0.061389 0.009714 0.000000 0.049287 0.009719 0.000000 0.041827 0.009627 0.000000 0.029913 0.009585 0.000000 0.022545 0.009419 0.000000 0.010966 0.009331 0.000000 0.003781 0.009096 0.000000 -0.007322 0.008968 0.000000 -0.014240 0.008669 0.000000 -0.024739 0.008504 0.000000 -0.031315 0.008148 0.000000 -0.041096 0.007952 0.000000 -0.047265 0.007548 0.000000 -0.056229 0.007328 0.000000 -0.061942 0.006887 0.000000 -0.070012 0.006650 0.000000 -0.075235 0.006183 0.000000 -0.082359 0.005941 0.000000 -0.087079 0.005461 0.000000 -0.093228 0.005224 0.000000 -0.097454 0.004745 0.000000 -0.102630 0.004524 0.000000 -0.106393 0.004060 0.000000 -0.110624 0.003865 0.000000 -0.113976 0.003428 0.000000 -0.117317 0.003269 0.000000 -0.120332 0.002870 0.000000 -0.122859 0.002754 0.000000 -0.125625 0.002402 0.000000 -0.127430 0.002333 0.000000 -0.130044 0.002031 0.000000 -0.131231 0.002009 0.000000 -0.133789 0.001758 0.000000 -0.134464 0.001780 0.000000 -0.137055 0.001576 0.000000 -0.137315 0.001632 0.000000 -0.140013 0.001468 0.000000 -0.139941 0.001546 0.000000 -0.142793 0.001410 0.000000 -0.142450 0.001494 0.000000 -0.145473 0.001373 0.000000 -0.144892 0.001445 0.000000 -0.148065 0.001324 0.000000 -0.147250 0.001365 0.000000 -0.150515 0.001229 0.000000 -0.149439 0.001222 0.000000 -0.152705 0.001057 0.000000 -0.151310 0.000987 0.000000 -0.154452 0.000781 0.000000 -0.152661 0.000636 0.000000 -0.155530 0.000381 0.000000 -0.153245 0.000154 0.000000 -0.155678 -0.000155 0.000000 -0.152793 -0.000467 0.000000 -0.154619 -0.000829 0.000000 -0.151027 -0.001224 0.000000 -0.152080 -0.001635 0.000000 -0.147683 -0.002106 0.000000 -0.147809 -0.002559 0.000000 -0.142521 -0.003096 0.000000 -0.141588 -0.003580 0.000000 -0.135345 -0.004168 0.000000 -0.133249 -0.004670 0.000000 -0.126014 -0.005293 0.000000 -0.122683 -0.005798 0.000000 -0.114446 -0.006437 0.000000 -0.109847 -0.006931 0.000000 -0.100631 -0.007566 0.000000 -0.094768 -0.008031 0.000000 -0.084629 -0.008644 0.000000 
-0.080349 -0.018059 0.000000 -0.069274 -0.019198 0.000000 -0.060957 -0.019914 0.000000 -0.049149 -0.020935 0.000000 -0.039792 -0.021502 0.000000 -0.027402 -0.022372 0.000000 -0.017159 -0.022762 0.000000 -0.004366 -0.023451 0.000000 0.006578 -0.023643 0.000000 0.019573 -0.024126 0.000000 0.031009 -0.024101 0.000000 0.043986 -0.024360 0.000000 0.055686 -0.024107 0.000000 0.068413 -0.024129 0.000000 0.080138 -0.023642 0.000000 0.092378 -0.023423 0.000000 0.103883 -0.022704 0.000000 0.115399 -0.022249 0.000000 0.126446 -0.021307 0.000000 0.137012 -0.020628 0.000000 0.147373 -0.019479 0.000000 0.156780 -0.018596 0.000000 0.166248 -0.017265 0.000000 0.174310 -0.016206 0.000000 0.182707 -0.014722 0.000000 0.189269 -0.013519 0.000000 0.196450 -0.011917 0.000000 0.201394 -0.010607 0.000000 0.207252 -0.008926 0.000000 0.210496 -0.007549 0.000000 0.214963 -0.005827 0.000000 0.216468 -0.004422 0.000000 0.219518 -0.002698 0.000000 0.219282 -0.001302 0.000000 0.220924 0.000387 0.000000 0.218984 0.001740 0.000000 0.219264 0.003361 0.000000 0.215689 0.004642 0.000000 0.214681 0.006166 0.000000 0.209569 0.007353 0.000000 0.207369 0.008757 0.000000 0.200844 0.009834 0.000000 0.197564 0.011099 0.000000 0.189765 0.012053 0.000000 0.185529 0.013168 0.000000 0.176611 0.013994 0.000000 0.171549 0.014948 0.000000 0.161672 0.015645 0.000000 0.155913 0.016434 0.000000 0.145244 0.017004 0.000000 0.138916 0.017626 0.000000 0.127624 0.018072 0.000000 0.120850 0.018526 0.000000 0.109103 0.018854 0.000000 0.102002 0.019143 0.000000 0.089965 0.019357 0.000000 0.082648 0.019483 0.000000 0.070485 0.019590 0.000000 0.063059 0.019557 0.000000 0.050929 0.019562 0.000000 0.043495 0.019374 0.000000 0.031554 0.019282 0.000000 0.024208 0.018946 0.000000 0.012603 0.018764 0.000000 0.005435 0.018288 0.000000 -0.005695 0.018022 0.000000 -0.012602 0.017417 0.000000 -0.023127 0.017075 0.000000 -0.029697 0.016356 0.000000 -0.039502 0.015950 0.000000 -0.045672 0.015133 0.000000 -0.054661 0.014677 0.000000 -0.060381 0.013783 0.000000 -0.068476 0.013293 0.000000 -0.073713 0.012347 0.000000 -0.080861 0.011844 0.000000 -0.085602 0.010870 0.000000 -0.091779 0.010375 0.000000 -0.096033 0.009402 0.000000 -0.101239 0.008939 0.000000 -0.105039 0.007994 0.000000 -0.109305 0.007584 0.000000 -0.112705 0.006693 0.000000 -0.116086 0.006356 0.000000 -0.119162 0.005542 0.000000 -0.121737 0.005292 0.000000 -0.124577 0.004572 0.000000 -0.126442 0.004419 0.000000 -0.129145 0.003801 0.000000 -0.130406 0.003745 0.000000 -0.133070 0.003232 0.000000 -0.133832 0.003266 0.000000 -0.136548 0.002851 0.000000 -0.136910 0.002958 0.000000 -0.139751 0.002626 0.000000 -0.139795 0.002780 0.000000 -0.142808 0.002509 0.000000 -0.142595 0.002679 0.000000 -0.145792 0.002442 0.000000 -0.145353 0.002592 0.000000 -0.148712 0.002358 0.000000 -0.148046 0.002451 0.000000 -0.151505 0.002189 0.000000 -0.150581 0.002189 0.000000 -0.154042 0.001872 0.000000 -0.152799 0.001748 0.000000 -0.156132 0.001350 0.000000 -0.154484 0.001078 0.000000 -0.157535 0.000584 0.000000 -0.155382 0.000148 0.000000 -0.157980 -0.000452 0.000000 -0.155211 -0.001059 0.000000 -0.157182 -0.001765 0.000000 -0.153686 -0.002539 0.000000 -0.154860 -0.003345 0.000000 -0.150535 -0.004271 0.000000 -0.150754 -0.005162 0.000000 -0.145513 -0.006221 0.000000 -0.144645 -0.007176 0.000000 -0.138422 -0.008339 0.000000 -0.136362 -0.009332 0.000000 -0.129120 -0.010566 0.000000 -0.125796 -0.011567 0.000000 -0.117527 -0.012836 0.000000 -0.112907 -0.013815 0.000000 -0.103634 -0.015079 0.000000 -0.097723 -0.016002 0.000000 -0.087504 -0.017224 0.000000 
-0.079520 -0.027295 0.000000 -0.068427 -0.029027 0.000000 -0.060084 -0.030120 0.000000 -0.048246 -0.031672 0.000000 -0.038848 -0.032538 0.000000 -0.026417 -0.033860 0.000000 -0.016119 -0.034459 0.000000 -0.003275 -0.035505 0.000000 0.007736 -0.035803 0.000000 0.020790 -0.036536 0.000000 0.032303 -0.036506 0.000000 0.045344 -0.036900 0.000000 0.057127 -0.036523 0.000000 0.069921 -0.036559 0.000000 0.081730 -0.035828 0.000000 0.094036 -0.035501 0.000000 0.105622 -0.034418 0.000000 0.117199 -0.033733 0.000000 0.128319 -0.032312 0.000000 0.138937 -0.031288 0.000000 0.149357 -0.029555 0.000000 0.158802 -0.028223 0.000000 0.168313 -0.026213 0.000000 0.176397 -0.024615 0.000000 0.184815 -0.022374 0.000000 0.191380 -0.020559 0.000000 0.198558 -0.018140 0.000000 0.203483 -0.016165 0.000000 0.209313 -0.013626 0.000000 0.212517 -0.011550 0.000000 0.216930 -0.008950 0.000000 0.218373 -0.006833 0.000000 0.221344 -0.004231 0.000000 0.221026 -0.002129 0.000000 0.222568 0.000419 0.000000 0.220529 0.002456 0.000000 0.220689 0.004900 0.000000 0.217000 0.006828 0.000000 0.215855 0.009126 0.000000 0.210619 0.010910 0.000000 0.208271 0.013026 0.000000 0.201612 0.014643 0.000000 0.198176 0.016550 0.000000 0.190239 0.017982 0.000000 0.185843 0.019660 0.000000 0.176783 0.020899 0.000000 0.171560 0.022335 0.000000 0.161539 0.023381 0.000000 0.155621 0.024568 0.000000 0.144810 0.025422 0.000000 0.138326 0.026358 0.000000 0.126893 0.027027 0.000000 0.119969 0.027711 0.000000 0.108082 0.028204 0.000000 0.100836 0.028639 0.000000 0.088663 0.028963 0.000000 0.081208 0.029153 0.000000 0.068912 0.029318 0.000000 0.061356 0.029269 0.000000 0.049099 0.029283 0.000000 0.041543 0.029002 0.000000 0.029480 0.028872 0.000000 0.022021 0.028370 0.000000 0.010303 0.028105 0.000000 0.003034 0.027394 0.000000 -0.008198 0.027004 0.000000 -0.015192 0.026101 0.000000 -0.025806 0.025599 0.000000 -0.032446 0.024524 0.000000 -0.042324 0.023927 0.000000 -0.048544 0.022707 0.000000 -0.057585 0.022036 0.000000 -0.063331 0.020702 0.000000 -0.071454 0.019982 0.000000 -0.076691 0.018569 0.000000 -0.083841 0.017831 0.000000 -0.088553 0.016379 0.000000 -0.094702 0.015654 0.000000 -0.098896 0.014206 0.000000 -0.104044 0.013530 0.000000 -0.107754 0.012125 0.000000 -0.111931 0.011531 0.000000 -0.115210 0.010209 0.000000 -0.118475 0.009725 0.000000 -0.121402 0.008521 0.000000 -0.123835 0.008170 0.000000 -0.126505 0.007107 0.000000 -0.128207 0.006901 0.000000 -0.130723 0.005994 0.000000 -0.131806 0.005934 0.000000 -0.134274 0.005184 0.000000 -0.134851 0.005258 0.000000 -0.137370 0.004654 0.000000 -0.137547 0.004835 0.000000 -0.140197 0.004354 0.000000 -0.140064 0.004602 0.000000 -0.142900 0.004210 0.000000 -0.142523 0.004478 0.000000 -0.145565 0.004131 0.000000 -0.144981 0.004365 0.000000 -0.148210 0.004017 0.000000 -0.147423 0.004159 0.000000 -0.150781 0.003764 0.000000 -0.149760 0.003759 0.000000 -0.153150 0.003275 0.000000 -0.151835 0.003077 0.000000 -0.155126 0.002466 0.000000 -0.153430 0.002039 0.000000 -0.156464 0.001278 0.000000 -0.154284 0.000599 0.000000 -0.156888 -0.000325 0.000000 -0.154109 -0.001265 0.000000 -0.156101 -0.002353 0.000000 -0.152609 -0.003546 0.000000 -0.153815 -0.004787 0.000000 -0.149503 -0.006212 0.000000 -0.149761 -0.007581 0.000000 -0.144537 -0.009205 0.000000 -0.143707 -0.010671 0.000000 -0.137503 -0.012451 0.000000 -0.135478 -0.013973 0.000000 -0.128251 -0.015858 0.000000 -0.124955 -0.017392 0.000000 -0.116695 -0.019326 0.000000 -0.112092 -0.020823 0.000000 -0.102821 -0.022749 0.000000 -0.096914 -0.024161 0.000000 -0.086687 -0.026019 0.000000 
-0.083359 -0.036319 0.000000 -0.072102 -0.038635 0.000000 -0.063605 -0.040095 0.000000 -0.051569 -0.042172 0.000000 -0.041981 -0.043331 0.000000 -0.029324 -0.045100 0.000000 -0.018806 -0.045904 0.000000 -0.005711 -0.047306 0.000000 0.005545 -0.047708 0.000000 0.018868 -0.048692 0.000000 0.030644 -0.048655 0.000000 0.043967 -0.049184 0.000000 0.056025 -0.048683 0.000000 0.069107 -0.048732 0.000000 0.081195 -0.047756 0.000000 0.093787 -0.047315 0.000000 0.105649 -0.045868 0.000000 0.117504 -0.044946 0.000000 0.128889 -0.043044 0.000000 0.139768 -0.041666 0.000000 0.150436 -0.039345 0.000000 0.160120 -0.037552 0.000000 0.169854 -0.034859 0.000000 0.178148 -0.032708 0.000000 0.186761 -0.029705 0.000000 0.193502 -0.027262 0.000000 0.200843 -0.024020 0.000000 0.205907 -0.021362 0.000000 0.211865 -0.017959 0.000000 0.215171 -0.015166 0.000000 0.219679 -0.011683 0.000000 0.221186 -0.008836 0.000000 0.224221 -0.005351 0.000000 0.223931 -0.002526 0.000000 0.225508 0.000885 0.000000 0.223464 0.003619 0.000000 0.223635 0.006889 0.000000 0.219913 0.009475 0.000000 0.218762 0.012547 0.000000 0.213468 0.014938 0.000000 0.211099 0.017765 0.000000 0.204365 0.019928 0.000000 0.200900 0.022473 0.000000 0.192873 0.024386 0.000000 0.188444 0.026624 0.000000 0.179284 0.028278 0.000000 0.174026 0.030192 0.000000 0.163901 0.031583 0.000000 0.157950 0.033164 0.000000 0.147029 0.034299 0.000000 0.140516 0.035543 0.000000 0.128972 0.036429 0.000000 0.122021 0.037337 0.000000 0.110024 0.037987 0.000000 0.102755 0.038562 0.000000 0.090473 0.038985 0.000000 0.082996 0.039233 0.000000 0.070594 0.039442 0.000000 0.063016 0.039370 0.000000 0.050655 0.039375 0.000000 0.043077 0.038993 0.000000 0.030914 0.038804 0.000000 0.023433 0.038124 0.000000 0.011619 0.037751 0.000000 0.004326 0.036789 0.000000 -0.006996 0.036247 0.000000 -0.014015 0.035025 0.000000 -0.024711 0.034330 0.000000 -0.031377 0.032874 0.000000 -0.041328 0.032048 0.000000 -0.047572 0.030394 0.000000 -0.056675 0.029464 0.000000 -0.062443 0.027653 0.000000 -0.070617 0.026654 0.000000 -0.075873 0.024734 0.000000 -0.083060 0.023706 0.000000 -0.087787 0.021730 0.000000 -0.093961 0.020718 0.000000 -0.098167 0.018744 0.000000 -0.103329 0.017796 0.000000 -0.107047 0.015880 0.000000 -0.111230 0.015041 0.000000 -0.114520 0.013237 0.000000 -0.117784 0.012548 0.000000 -0.120727 0.010903 0.000000 -0.123161 0.010395 0.000000 -0.125855 0.008944 0.000000 -0.127565 0.008637 0.000000 -0.130122 0.007400 0.000000 -0.131225 0.007297 0.000000 -0.133756 0.006277 0.000000 -0.134371 0.006362 0.000000 -0.136980 0.005547 0.000000 -0.137219 0.005785 0.000000 -0.139992 0.005143 0.000000 -0.139948 0.005483 0.000000 -0.142940 0.004968 0.000000 -0.142681 0.005344 0.000000 -0.145913 0.004900 0.000000 -0.145475 0.005238 0.000000 -0.148925 0.004800 0.000000 -0.148307 0.005022 0.000000 -0.151911 0.004526 0.000000 -0.151077 0.004558 0.000000 -0.154731 0.003946 0.000000 -0.153613 0.003723 0.000000 -0.157175 0.002946 0.000000 -0.155678 0.002417 0.000000 -0.158980 0.001438 0.000000 -0.156991 0.000571 0.000000 -0.159849 -0.000627 0.000000 -0.157244 -0.001845 0.000000 -0.159468 -0.003265 0.000000 -0.156124 -0.004825 0.000000 -0.157529 -0.006451 0.000000 -0.153332 -0.008326 0.000000 -0.153751 -0.010128 0.000000 -0.148606 -0.012274 0.000000 -0.147893 -0.014209 0.000000 -0.141727 -0.016569 0.000000 -0.139772 -0.018584 0.000000 -0.132541 -0.021089 0.000000 -0.129267 -0.023123 0.000000 -0.120961 -0.025699 0.000000 -0.116332 -0.027689 0.000000 -0.106973 -0.030257 0.000000 -0.100995 -0.032136 0.000000 -0.090640 -0.034617 0.000000 
-0.083541 -0.045833 0.000000 -0.072206 -0.048782 0.000000 -0.063624 -0.050653 0.000000 -0.051484 -0.053296 0.000000 -0.041779 -0.054784 0.000000 -0.028992 -0.057035 0.000000 -0.018327 -0.058071 0.000000 -0.005081 -0.059855 0.000000 0.006348 -0.060382 0.000000 0.019840 -0.061635 0.000000 0.031809 -0.061605 0.000000 0.045314 -0.062281 0.000000 0.057577 -0.061663 0.000000 0.070846 -0.061729 0.000000 0.083144 -0.060508 0.000000 0.095922 -0.059955 0.000000 0.107990 -0.058135 0.000000 0.120021 -0.056972 0.000000 0.131596 -0.054576 0.000000 0.142634 -0.052836 0.000000 0.153470 -0.049907 0.000000 0.163286 -0.047641 0.000000 0.173156 -0.044241 0.000000 0.181550 -0.041521 0.000000 0.190259 -0.037728 0.000000 0.197063 -0.034641 0.000000 0.204456 -0.030546 0.000000 0.209542 -0.027188 0.000000 0.215506 -0.022890 0.000000 0.218791 -0.019365 0.000000 0.223259 -0.014966 0.000000 0.224703 -0.011375 0.000000 0.227652 -0.006976 0.000000 0.227261 -0.003417 0.000000 0.228712 0.000887 0.000000 0.226532 0.004328 0.000000 0.226543 0.008451 0.000000 0.222656 0.011702 0.000000 0.221316 0.015571 0.000000 0.215834 0.018573 0.000000 0.213257 0.022130 0.000000 0.206317 0.024842 0.000000 0.202632 0.028042 0.000000 0.194387 0.030438 0.000000 0.189731 0.033249 0.000000 0.180346 0.035317 0.000000 0.174860 0.037718 0.000000 0.164507 0.039457 0.000000 0.158331 0.041439 0.000000 0.147182 0.042856 0.000000 0.140450 0.044415 0.000000 0.128680 0.045522 0.000000 0.121518 0.046659 0.000000 0.109298 0.047471 0.000000 0.101826 0.048190 0.000000 0.089325 0.048722 0.000000 0.081655 0.049032 0.000000 0.069040 0.049298 0.000000 0.061279 0.049208 0.000000 0.048711 0.049221 0.000000 0.040961 0.048743 0.000000 0.028600 0.048516 0.000000 0.020958 0.047666 0.000000 0.008958 0.047212 0.000000 0.001519 0.046009 0.000000 -0.009974 0.045344 0.000000 -0.017120 0.043816 0.000000 -0.027968 0.042961 0.000000 -0.034739 0.041141 0.000000 -0.044816 0.040123 0.000000 -0.051139 0.038054 0.000000 -0.060337 0.036908 0.000000 -0.066153 0.034644 0.000000 -0.074385 0.033411 0.000000 -0.079651 0.031012 0.000000 -0.086857 0.029745 0.000000 -0.091552 0.027279 0.000000 -0.097700 0.026034 0.000000 -0.101831 0.023573 0.000000 -0.106921 0.022410 0.000000 -0.110521 0.020026 0.000000 -0.114587 0.019003 0.000000 -0.117716 0.016764 0.000000 -0.120822 0.015933 0.000000 -0.123568 0.013898 0.000000 -0.125807 0.013299 0.000000 -0.128276 0.011511 0.000000 -0.129764 0.011168 0.000000 -0.132077 0.009653 0.000000 -0.132941 0.009568 0.000000 -0.135222 0.008331 0.000000 -0.135594 0.008483 0.000000 -0.137959 0.007502 0.000000 -0.137963 0.007846 0.000000 -0.140511 0.007082 0.000000 -0.140250 0.007551 0.000000 -0.143049 0.006943 0.000000 -0.142603 0.007451 0.000000 -0.145682 0.006925 0.000000 -0.145091 0.007376 0.000000 -0.148436 0.006849 0.000000 -0.147706 0.007145 0.000000 -0.151254 0.006535 0.000000 -0.150349 0.006579 0.000000 -0.153994 0.005810 0.000000 -0.152844 0.005521 0.000000 -0.156440 0.004531 0.000000 -0.154945 0.003845 0.000000 -0.158317 0.002591 0.000000 -0.156356 0.001468 0.000000 -0.159310 -0.000072 0.000000 -0.156752 -0.001647 0.000000 -0.159087 -0.003473 0.000000 -0.155801 -0.005485 0.000000 -0.157322 -0.007578 0.000000 -0.153185 -0.009990 0.000000 -0.153714 -0.012308 0.000000 -0.148622 -0.015063 0.000000 -0.148006 -0.017549 0.000000 -0.141882 -0.020572 0.000000 -0.140002 -0.023159 0.000000 -0.132794 -0.026363 0.000000 -0.129569 -0.028972 0.000000 -0.121264 -0.032261 0.000000 -0.116653 -0.034811 0.000000 -0.107271 -0.038087 0.000000 -0.101277 -0.040493 0.000000 -0.090872 -0.043654 0.000000 
-0.088490 -0.054985 0.000000 -0.076924 -0.058551 0.000000 -0.068122 -0.060816 0.000000 -0.055702 -0.064017 0.000000 -0.045723 -0.065823 0.000000 -0.032614 -0.068552 0.000000 -0.021629 -0.069815 0.000000 -0.008024 -0.071981 0.000000 0.003762 -0.072629 0.000000 0.017641 -0.074153 0.000000 0.029996 -0.074129 0.000000 0.043907 -0.074952 0.000000 0.056574 -0.074216 0.000000 0.070259 -0.074299 0.000000 0.082967 -0.072832 0.000000 0.096158 -0.072161 0.000000 0.108630 -0.069966 0.000000 0.121060 -0.068553 0.000000 0.133023 -0.065658 0.000000 0.144435 -0.063540 0.000000 0.155629 -0.059997 0.000000 0.165783 -0.057238 0.000000 0.175972 -0.053123 0.000000 0.184658 -0.049811 0.000000 0.193639 -0.045218 0.000000 0.200682 -0.041459 0.000000 0.208293 -0.036499 0.000000 0.213561 -0.032412 0.000000 0.219687 -0.027208 0.000000 0.223093 -0.022918 0.000000 0.227667 -0.017595 0.000000 0.229173 -0.013229 0.000000 0.232177 -0.007909 0.000000 0.231792 -0.003586 0.000000 0.233251 0.001614 0.000000 0.231026 0.005788 0.000000 0.231006 0.010765 0.000000 0.227031 0.014702 0.000000 0.225630 0.019368 0.000000 0.220024 0.022997 0.000000 0.217365 0.027282 0.000000 0.210273 0.030553 0.000000 0.206492 0.034403 0.000000 0.198075 0.037287 0.000000 0.193318 0.040665 0.000000 0.183748 0.043148 0.000000 0.178161 0.046031 0.000000 0.167615 0.048113 0.000000 0.161341 0.050489 0.000000 0.149997 0.052180 0.000000 0.143173 0.054045 0.000000 0.131207 0.055362 0.000000 0.123960 0.056719 0.000000 0.111546 0.057679 0.000000 0.103995 0.058535 0.000000 0.091303 0.059156 0.000000 0.083560 0.059519 0.000000 0.070758 0.059819 0.000000 0.062926 0.059699 0.000000 0.050177 0.059693 0.000000 0.042359 0.059104 0.000000 0.029823 0.058806 0.000000 0.022115 0.057766 0.000000 0.009948 0.057190 0.000000 0.002444 0.055721 0.000000 -0.009203 0.054886 0.000000 -0.016412 0.053019 0.000000 -0.027400 0.051948 0.000000 -0.034229 0.049723 0.000000 -0.044428 0.048448 0.000000 -0.050801 0.045915 0.000000 -0.060100 0.044477 0.000000 -0.065954 0.041701 0.000000 -0.074263 0.040152 0.000000 -0.079554 0.037205 0.000000 -0.086809 0.035607 0.000000 -0.091514 0.032574 0.000000 -0.097683 0.030997 0.000000 -0.101807 0.027966 0.000000 -0.106892 0.026486 0.000000 -0.110471 0.023546 0.000000 -0.114508 0.022236 0.000000 -0.117606 0.019473 0.000000 -0.120668 0.018399 0.000000 -0.123378 0.015888 0.000000 -0.125564 0.015104 0.000000 -0.128003 0.012900 0.000000 -0.129440 0.012438 0.000000 -0.131738 0.010577 0.000000 -0.132564 0.010442 0.000000 -0.134858 0.008930 0.000000 -0.135215 0.009100 0.000000 -0.137633 0.007916 0.000000 -0.137655 0.008336 0.000000 -0.140302 0.007431 0.000000 -0.140102 0.008022 0.000000 -0.143054 0.007321 0.000000 -0.142713 0.007977 0.000000 -0.146002 0.007389 0.000000 -0.145563 0.007992 0.000000 -0.149170 0.007414 0.000000 -0.148633 0.007840 0.000000 -0.152489 0.007170 0.000000 -0.151813 0.007298 0.000000 -0.155800 0.006441 0.000000 -0.154902 0.006169 0.000000 -0.158861 0.005047 0.000000 -0.157627 0.004293 0.000000 -0.161367 0.002849 0.000000 -0.159663 0.001564 0.000000 -0.162972 -0.000232 0.000000 -0.160652 -0.002068 0.000000 -0.163314 -0.004216 0.000000 -0.160235 -0.006590 0.000000 -0.162041 -0.009067 0.000000 -0.158069 -0.011934 0.000000 -0.158830 -0.014691 0.000000 -0.153853 -0.017982 0.000000 -0.153408 -0.020950 0.000000 -0.147342 -0.024574 0.000000 -0.145567 -0.027671 0.000000 -0.138359 -0.031521 0.000000 -0.135170 -0.034654 0.000000 -0.126805 -0.038615 0.000000 -0.122161 -0.041683 0.000000 -0.112659 -0.045634 0.000000 -0.106566 -0.048535 0.000000 -0.095984 -0.052353 0.000000 
-0.089744 -0.064893 0.000000 -0.078041 -0.069150 0.000000 -0.069094 -0.071875 0.000000 -0.056494 -0.075694 0.000000 -0.046318 -0.077872 0.000000 -0.032988 -0.081129 0.000000 -0.021759 -0.082661 0.000000 -0.007899 -0.085246 0.000000 0.004172 -0.086047 0.000000 0.018337 -0.087869 0.000000 0.031007 -0.087871 0.000000 0.045224 -0.088859 0.000000 0.058226 -0.088014 0.000000 0.072227 -0.088122 0.000000 0.085279 -0.086408 0.000000 0.098785 -0.085618 0.000000 0.111595 -0.083038 0.000000 0.124326 -0.081365 0.000000 0.136606 -0.077951 0.000000 0.148292 -0.075441 0.000000 0.159768 -0.071255 0.000000 0.170157 -0.067984 0.000000 0.180581 -0.063116 0.000000 0.189452 -0.059188 0.000000 0.198609 -0.053752 0.000000 0.205779 -0.049295 0.000000 0.213501 -0.043425 0.000000 0.218832 -0.038582 0.000000 0.224998 -0.032422 0.000000 0.228402 -0.027345 0.000000 0.232946 -0.021046 0.000000 0.234386 -0.015884 0.000000 0.237293 -0.009595 0.000000 0.236782 -0.004490 0.000000 0.238084 0.001652 0.000000 0.235681 0.006573 0.000000 0.235454 0.012446 0.000000 0.231256 0.017078 0.000000 0.229608 0.022577 0.000000 0.223744 0.026838 0.000000 0.220810 0.031881 0.000000 0.213434 0.035715 0.000000 0.209361 0.040239 0.000000 0.200643 0.043612 0.000000 0.195585 0.047576 0.000000 0.185705 0.050473 0.000000 0.179818 0.053852 0.000000 0.168956 0.056277 0.000000 0.162389 0.059057 0.000000 0.150729 0.061025 0.000000 0.143621 0.063205 0.000000 0.131342 0.064735 0.000000 0.123823 0.066319 0.000000 0.111101 0.067435 0.000000 0.103289 0.068433 0.000000 0.090295 0.069157 0.000000 0.082303 0.069578 0.000000 0.069205 0.069932 0.000000 0.061137 0.069788 0.000000 0.048100 0.069789 0.000000 0.040058 0.069097 0.000000 0.027245 0.068760 0.000000 0.019326 0.067541 0.000000 0.006896 0.066883 0.000000 -0.000802 0.065161 0.000000 -0.012693 0.064201 0.000000 -0.020076 0.062012 0.000000 -0.031282 0.060778 0.000000 -0.038257 0.058169 0.000000 -0.048641 0.056695 0.000000 -0.055128 0.053726 0.000000 -0.064570 0.052061 0.000000 -0.070497 0.048806 0.000000 -0.078899 0.047010 0.000000 -0.084214 0.043558 0.000000 -0.091507 0.041705 0.000000 -0.096182 0.038153 0.000000 -0.102328 0.036328 0.000000 -0.106363 0.032783 0.000000 -0.111361 0.031073 0.000000 -0.114791 0.027642 0.000000 -0.118680 0.026138 0.000000 -0.121573 0.022923 0.000000 -0.124428 0.021704 0.000000 -0.126884 0.018794 0.000000 -0.128816 0.017924 0.000000 -0.130963 0.015386 0.000000 -0.132109 0.014903 0.000000 -0.134093 0.012778 0.000000 -0.134608 0.012688 0.000000 -0.136584 0.010982 0.000000 -0.136628 0.011257 0.000000 -0.138742 0.009942 0.000000 -0.138467 0.010516 0.000000 -0.140844 0.009530 0.000000 -0.140379 0.010303 0.000000 -0.143112 0.009554 0.000000 -0.142552 0.010398 0.000000 -0.145684 0.009774 0.000000 -0.145082 0.010544 0.000000 -0.148604 0.009920 0.000000 -0.147965 0.010464 0.000000 -0.151810 0.009714 0.000000 -0.151091 0.009890 0.000000 -0.155136 0.008899 0.000000 -0.154251 0.008581 0.000000 -0.158328 0.007257 0.000000 -0.157154 0.006350 0.000000 -0.161058 0.004627 0.000000 -0.159448 0.003072 0.000000 -0.162952 0.000917 0.000000 -0.160747 -0.001304 0.000000 -0.163619 -0.003891 0.000000 -0.160660 -0.006758 0.000000 -0.162674 -0.009743 0.000000 -0.158816 -0.013201 0.000000 -0.159769 -0.016523 0.000000 -0.154888 -0.020484 0.000000 -0.154605 -0.024060 0.000000 -0.148608 -0.028414 0.000000 -0.146955 -0.032141 0.000000 -0.139783 -0.036759 0.000000 -0.136668 -0.040527 0.000000 -0.128298 -0.045270 0.000000 -0.123677 -0.048957 0.000000 -0.114127 -0.053682 0.000000 -0.108001 -0.057168 0.000000 -0.097327 -0.061730 0.000000 