# vtk DataFile Version 2.0
Comment goes here
ASCII

DATASET STRUCTURED_POINTS
FIELD FieldData 1
TIME 1 1 double
0.07500000
DIMENSIONS    128   128   1

ORIGIN    0.000   0.000   0.000
SPACING   0.039062 0.039062   1.000

POINT_DATA   16384
VECTORS u double

-0.248305 0.000000 0.000000 -0.211073 0.000000 0.000000 -0.173522 0.000000 0.000000 -0.135883 0.000000 0.000000 -0.098451 0.000000 0.000000 -0.060831 0.000000 0.000000 -0.023909 0.000000 0.000000 0.013292 0.000000 0.000000 0.049346 0.000000 0.000000 0.085757 0.000000 0.000000 0.120612 0.000000 0.000000 0.155890 0.000000 0.000000 0.189244 0.000000 0.000000 0.223075 0.000000 0.000000 0.254655 0.000000 0.000000 0.286752 0.000000 0.000000 0.316315 0.000000 0.000000 0.346425 0.000000 0.000000 0.373756 0.000000 0.000000 0.401654 0.000000 0.000000 0.426571 0.000000 0.000000 0.452066 0.000000 0.000000 0.474417 0.000000 0.000000 0.497352 0.000000 0.000000 0.517019 0.000000 0.000000 0.537275 0.000000 0.000000 0.554172 0.000000 0.000000 0.571663 0.000000 0.000000 0.585737 0.000000 0.000000 0.600415 0.000000 0.000000 0.611647 0.000000 0.000000 0.623497 0.000000 0.000000 0.631895 0.000000 0.000000 0.640935 0.000000 0.000000 0.646535 0.000000 0.000000 0.652809 0.000000 0.000000 0.655669 0.000000 0.000000 0.659245 0.000000 0.000000 0.659444 0.000000 0.000000 0.660408 0.000000 0.000000 0.658034 0.000000 0.000000 0.656483 0.000000 0.000000 0.651636 0.000000 0.000000 0.647676 0.000000 0.000000 0.640456 0.000000 0.000000 0.634194 0.000000 0.000000 0.624703 0.000000 0.000000 0.616242 0.000000 0.000000 0.604576 0.000000 0.000000 0.594014 0.000000 0.000000 0.580262 0.000000 0.000000 0.567690 0.000000 0.000000 0.551933 0.000000 0.000000 0.537428 0.000000 0.000000 0.519738 0.000000 0.000000 0.503367 0.000000 0.000000 0.483807 0.000000 0.000000 0.465627 0.000000 0.000000 0.444253 0.000000 0.000000 0.424308 0.000000 0.000000 0.401172 0.000000 0.000000 0.379499 0.000000 0.000000 0.354652 0.000000 0.000000 0.331280 0.000000 0.000000 0.304779 0.000000 0.000000 0.279735 0.000000 0.000000 0.251643 0.000000 0.000000 0.224959 0.000000 0.000000 0.195357 0.000000 0.000000 0.167073 0.000000 0.000000 0.136064 0.000000 0.000000 0.106239 0.000000 0.000000 0.073960 0.000000 0.000000 0.042679 0.000000 0.000000 0.009304 0.000000 0.000000 -0.023306 0.000000 0.000000 -0.057555 0.000000 0.000000 -0.091320 0.000000 0.000000 -0.126166 0.000000 0.000000 -0.160851 0.000000 0.000000 -0.195960 0.000000 0.000000 -0.231261 0.000000 0.000000 -0.266239 0.000000 0.000000 -0.301779 0.000000 0.000000 -0.336177 0.000000 0.000000 -0.371508 0.000000 0.000000 -0.404824 0.000000 0.000000 -0.439430 0.000000 0.000000 -0.471127 0.000000 0.000000 -0.504437 0.000000 0.000000 -0.533956 0.000000 0.000000 -0.565362 0.000000 0.000000 -0.592144 0.000000 0.000000 -0.621023 0.000000 0.000000 -0.644527 0.000000 0.000000 -0.670271 0.000000 0.000000 -0.690000 0.000000 0.000000 -0.712039 0.000000 0.000000 -0.727560 0.000000 0.000000 -0.745394 0.000000 0.000000 -0.756358 0.000000 0.000000 -0.769575 0.000000 0.000000 -0.775732 0.000000 0.000000 -0.784030 0.000000 0.000000 -0.785240 0.000000 0.000000 -0.788439 0.000000 0.000000 -0.784673 0.000000 0.000000 -0.782718 0.000000 0.000000 -0.774059 0.000000 0.000000 -0.767019 0.000000 0.000000 -0.753653 0.000000 0.000000 -0.741710 0.000000 0.000000 -0.723918 0.000000 0.000000 -0.707354 0.000000 0.000000 -0.685494 0.000000 0.000000 -0.664674 0.000000 0.000000 -0.639163 0.000000 0.000000 -0.614517 0.000000 0.000000 -0.585818 0.000000 0.000000 -0.557818 0.000000 0.000000 -0.526419 0.000000 0.000000 -0.495565 0.000000 0.000000 -0.461967 0.000000 0.000000 -0.428770 0.000000 0.000000 -0.393471 0.000000 0.000000 -0.358439 0.000000 0.000000 -0.321929 0.000000 0.000000 -0.285558 0.000000 0.000000 
-0.248779 -0.037243 0.000000 -0.211450 -0.037391 0.000000 -0.173860 -0.037595 0.000000 -0.136126 -0.037535 0.000000 -0.098654 -0.037526 0.000000 -0.060943 -0.037271 0.000000 -0.023978 -0.037062 0.000000 0.013311 -0.036628 0.000000 0.049408 -0.036232 0.000000 0.085902 -0.035633 0.000000 0.120798 -0.035066 0.000000 0.156154 -0.034316 0.000000 0.189548 -0.033592 0.000000 0.223450 -0.032705 0.000000 0.255067 -0.031839 0.000000 0.287230 -0.030830 0.000000 0.316825 -0.029836 0.000000 0.346993 -0.028721 0.000000 0.374351 -0.027615 0.000000 0.402299 -0.026407 0.000000 0.427235 -0.025206 0.000000 0.452772 -0.023923 0.000000 0.475134 -0.022643 0.000000 0.498103 -0.021301 0.000000 0.517772 -0.019961 0.000000 0.538051 -0.018576 0.000000 0.554941 -0.017194 0.000000 0.572447 -0.015783 0.000000 0.586504 -0.014376 0.000000 0.601187 -0.012955 0.000000 0.612392 -0.011541 0.000000 0.624239 -0.010124 0.000000 0.632601 -0.008719 0.000000 0.641630 -0.007320 0.000000 0.647186 -0.005937 0.000000 0.653442 -0.004567 0.000000 0.656252 -0.003218 0.000000 0.659804 -0.001887 0.000000 0.659947 -0.000581 0.000000 0.660883 0.000705 0.000000 0.658451 0.001962 0.000000 0.656869 0.003199 0.000000 0.651964 0.004404 0.000000 0.647971 0.005590 0.000000 0.640695 0.006741 0.000000 0.634401 0.007877 0.000000 0.624858 0.008976 0.000000 0.616367 0.010064 0.000000 0.604655 0.011114 0.000000 0.594068 0.012157 0.000000 0.580277 0.013162 0.000000 0.567685 0.014165 0.000000 0.551899 0.015131 0.000000 0.537381 0.016098 0.000000 0.519671 0.017030 0.000000 0.503296 0.017965 0.000000 0.483727 0.018870 0.000000 0.465550 0.019777 0.000000 0.444180 0.020659 0.000000 0.424246 0.021540 0.000000 0.401125 0.022405 0.000000 0.379471 0.023260 0.000000 0.354650 0.024109 0.000000 0.331304 0.024937 0.000000 0.304838 0.025772 0.000000 0.279826 0.026568 0.000000 0.251778 0.027388 0.000000 0.225129 0.028143 0.000000 0.195577 0.028943 0.000000 0.167328 0.029646 0.000000 0.136375 0.030417 0.000000 0.106581 0.031052 0.000000 0.074359 0.031780 0.000000 0.043103 0.032328 0.000000 0.009786 0.032993 0.000000 -0.022811 0.033430 0.000000 -0.057006 0.034007 0.000000 -0.090772 0.034306 0.000000 -0.125569 0.034765 0.000000 -0.160274 0.034897 0.000000 -0.195342 0.035205 0.000000 -0.230684 0.035140 0.000000 -0.265631 0.035259 0.000000 -0.301235 0.034969 0.000000 -0.335612 0.034864 0.000000 -0.371030 0.034324 0.000000 -0.404337 0.033961 0.000000 -0.439051 0.033152 0.000000 -0.470753 0.032503 0.000000 -0.504188 0.031415 0.000000 -0.533724 0.030463 0.000000 -0.565268 0.029094 0.000000 -0.592077 0.027831 0.000000 -0.621103 0.026192 0.000000 -0.644643 0.024624 0.000000 -0.670534 0.022736 0.000000 -0.690306 0.020884 0.000000 -0.712487 0.018780 0.000000 -0.728056 0.016677 0.000000 -0.746018 0.014399 0.000000 -0.757033 0.012090 0.000000 -0.770361 0.009687 0.000000 -0.776568 0.007228 0.000000 -0.784956 0.004754 0.000000 -0.786212 0.002204 0.000000 -0.789476 -0.000284 0.000000 -0.785751 -0.002860 0.000000 -0.783836 -0.005307 0.000000 -0.775211 -0.007850 0.000000 -0.768184 -0.010203 0.000000 -0.754846 -0.012654 0.000000 -0.742892 -0.014868 0.000000 -0.725119 -0.017178 0.000000 -0.708522 -0.019212 0.000000 -0.686671 -0.021340 0.000000 -0.665801 -0.023165 0.000000 -0.640291 -0.025079 0.000000 -0.615579 -0.026673 0.000000 -0.586872 -0.028350 0.000000 -0.558794 -0.029699 0.000000 -0.527381 -0.031126 0.000000 -0.496440 -0.032226 0.000000 -0.462821 -0.033398 0.000000 -0.429531 -0.034248 0.000000 -0.394206 -0.035165 0.000000 -0.359077 -0.035771 0.000000 -0.322535 -0.036440 0.000000 -0.286068 -0.036812 0.000000 
-0.248885 -0.074617 0.000000 -0.211426 -0.074918 0.000000 -0.173666 -0.075324 0.000000 -0.135813 -0.075206 0.000000 -0.098188 -0.075184 0.000000 -0.060368 -0.074676 0.000000 -0.023265 -0.074254 0.000000 0.014121 -0.073385 0.000000 0.050341 -0.072591 0.000000 0.086923 -0.071391 0.000000 0.121929 -0.070252 0.000000 0.157364 -0.068749 0.000000 0.190854 -0.067296 0.000000 0.224827 -0.065519 0.000000 0.256529 -0.063780 0.000000 0.288755 -0.061758 0.000000 0.318424 -0.059763 0.000000 0.348646 -0.057526 0.000000 0.376069 -0.055306 0.000000 0.404062 -0.052884 0.000000 0.429055 -0.050473 0.000000 0.454628 -0.047899 0.000000 0.477038 -0.045331 0.000000 0.500034 -0.042638 0.000000 0.519744 -0.039948 0.000000 0.540041 -0.037169 0.000000 0.556965 -0.034395 0.000000 0.574480 -0.031563 0.000000 0.588565 -0.028741 0.000000 0.603250 -0.025888 0.000000 0.614477 -0.023052 0.000000 0.626319 -0.020209 0.000000 0.634699 -0.017390 0.000000 0.643716 -0.014585 0.000000 0.649287 -0.011812 0.000000 0.655527 -0.009066 0.000000 0.658349 -0.006362 0.000000 0.661882 -0.003695 0.000000 0.662035 -0.001079 0.000000 0.662950 0.001496 0.000000 0.660527 0.004013 0.000000 0.658924 0.006487 0.000000 0.654026 0.008898 0.000000 0.650012 0.011268 0.000000 0.642742 0.013570 0.000000 0.636427 0.015838 0.000000 0.626888 0.018034 0.000000 0.618378 0.020203 0.000000 0.606667 0.022299 0.000000 0.596061 0.024377 0.000000 0.582268 0.026383 0.000000 0.569657 0.028379 0.000000 0.553864 0.030304 0.000000 0.539325 0.032227 0.000000 0.521603 0.034085 0.000000 0.505205 0.035944 0.000000 0.485616 0.037745 0.000000 0.467413 0.039548 0.000000 0.446013 0.041304 0.000000 0.426050 0.043055 0.000000 0.402889 0.044775 0.000000 0.381200 0.046475 0.000000 0.356326 0.048167 0.000000 0.332940 0.049812 0.000000 0.306406 0.051478 0.000000 0.281348 0.053060 0.000000 0.253215 0.054698 0.000000 0.226511 0.056201 0.000000 0.196857 0.057801 0.000000 0.168543 0.059202 0.000000 0.137467 0.060747 0.000000 0.107598 0.062016 0.000000 0.075232 0.063478 0.000000 0.043888 0.064574 0.000000 0.010402 0.065915 0.000000 -0.022296 0.066791 0.000000 -0.056682 0.067961 0.000000 -0.090565 0.068564 0.000000 -0.125578 0.069502 0.000000 -0.160415 0.069773 0.000000 -0.195721 0.070410 0.000000 -0.231209 0.070289 0.000000 -0.266413 0.070551 0.000000 -0.302178 0.069981 0.000000 -0.336825 0.069795 0.000000 -0.372415 0.068726 0.000000 -0.405999 0.068021 0.000000 -0.440891 0.066415 0.000000 -0.472867 0.065137 0.000000 -0.506481 0.062971 0.000000 -0.536281 0.061080 0.000000 -0.567997 0.058353 0.000000 -0.595049 0.055835 0.000000 -0.624233 0.052566 0.000000 -0.647985 0.049431 0.000000 -0.674014 0.045663 0.000000 -0.693959 0.041953 0.000000 -0.716249 0.037750 0.000000 -0.731944 0.033532 0.000000 -0.749983 0.028977 0.000000 -0.761072 0.024342 0.000000 -0.774439 0.019535 0.000000 -0.780668 0.014595 0.000000 -0.789056 0.009644 0.000000 -0.790280 0.004520 0.000000 -0.793506 -0.000461 0.000000 -0.789698 -0.005640 0.000000 -0.787709 -0.010540 0.000000 -0.778956 -0.015651 0.000000 -0.771825 -0.020365 0.000000 -0.758319 -0.025292 0.000000 -0.746235 -0.029727 0.000000 -0.728264 -0.034370 0.000000 -0.711518 -0.038447 0.000000 -0.689448 -0.042721 0.000000 -0.668414 -0.046380 0.000000 -0.642672 -0.050222 0.000000 -0.617789 -0.053419 0.000000 -0.588845 -0.056784 0.000000 -0.560596 -0.059492 0.000000 -0.528946 -0.062354 0.000000 -0.497837 -0.064560 0.000000 -0.463989 -0.066909 0.000000 -0.430538 -0.068615 0.000000 -0.394995 -0.070453 0.000000 -0.359715 -0.071670 0.000000 -0.322970 -0.073010 0.000000 -0.286361 -0.073757 0.000000 
-0.249941 -0.112177 0.000000 -0.212158 -0.112610 0.000000 -0.174149 -0.113208 0.000000 -0.135987 -0.113014 0.000000 -0.098125 -0.112971 0.000000 -0.060013 -0.112193 0.000000 -0.022687 -0.111551 0.000000 0.014973 -0.110234 0.000000 0.051402 -0.109034 0.000000 0.088239 -0.107221 0.000000 0.123439 -0.105507 0.000000 0.159109 -0.103241 0.000000 0.192777 -0.101056 0.000000 0.226966 -0.098381 0.000000 0.258827 -0.095766 0.000000 0.291247 -0.092725 0.000000 0.321057 -0.089727 0.000000 0.351449 -0.086365 0.000000 0.378991 -0.083031 0.000000 0.407131 -0.079393 0.000000 0.432219 -0.075771 0.000000 0.457913 -0.071906 0.000000 0.480395 -0.068050 0.000000 0.503485 -0.064006 0.000000 0.523240 -0.059968 0.000000 0.543604 -0.055797 0.000000 0.560546 -0.051633 0.000000 0.578100 -0.047383 0.000000 0.592178 -0.043146 0.000000 0.606876 -0.038867 0.000000 0.618070 -0.034610 0.000000 0.629900 -0.030346 0.000000 0.638225 -0.026116 0.000000 0.647208 -0.021908 0.000000 0.652704 -0.017748 0.000000 0.658890 -0.013630 0.000000 0.661622 -0.009574 0.000000 0.665086 -0.005574 0.000000 0.665138 -0.001649 0.000000 0.665973 0.002213 0.000000 0.663441 0.005988 0.000000 0.661752 0.009700 0.000000 0.656743 0.013316 0.000000 0.652641 0.016873 0.000000 0.645262 0.020326 0.000000 0.638862 0.023731 0.000000 0.629220 0.027025 0.000000 0.620630 0.030285 0.000000 0.608826 0.033431 0.000000 0.598148 0.036555 0.000000 0.584275 0.039566 0.000000 0.571603 0.042570 0.000000 0.555743 0.045463 0.000000 0.541157 0.048358 0.000000 0.523383 0.051151 0.000000 0.506951 0.053952 0.000000 0.487326 0.056662 0.000000 0.469104 0.059380 0.000000 0.447681 0.062023 0.000000 0.427712 0.064665 0.000000 0.404540 0.067255 0.000000 0.382857 0.069822 0.000000 0.357981 0.072369 0.000000 0.334609 0.074857 0.000000 0.308080 0.077365 0.000000 0.283040 0.079759 0.000000 0.254913 0.082225 0.000000 0.228226 0.084501 0.000000 0.198572 0.086911 0.000000 0.170268 0.089036 0.000000 0.139182 0.091362 0.000000 0.109305 0.093288 0.000000 0.076911 0.095490 0.000000 0.045534 0.097157 0.000000 0.011996 0.099177 0.000000 -0.020772 0.100514 0.000000 -0.055240 0.102276 0.000000 -0.089238 0.103202 0.000000 -0.124368 0.104615 0.000000 -0.159373 0.105039 0.000000 -0.194833 0.106000 0.000000 -0.230549 0.105832 0.000000 -0.265945 0.106228 0.000000 -0.301999 0.105381 0.000000 -0.336874 0.105101 0.000000 -0.372810 0.103497 0.000000 -0.406655 0.102437 0.000000 -0.441943 0.100020 0.000000 -0.474203 0.098094 0.000000 -0.508251 0.094828 0.000000 -0.538348 0.091979 0.000000 -0.570520 0.087862 0.000000 -0.597871 0.084066 0.000000 -0.627512 0.079128 0.000000 -0.651552 0.074405 0.000000 -0.678018 0.068710 0.000000 -0.698225 0.063119 0.000000 -0.720913 0.056766 0.000000 -0.736834 0.050411 0.000000 -0.755212 0.043527 0.000000 -0.766479 0.036547 0.000000 -0.780113 0.029283 0.000000 -0.786464 0.021844 0.000000 -0.795034 0.014366 0.000000 -0.796321 0.006655 0.000000 -0.799641 -0.000865 0.000000 -0.795834 -0.008657 0.000000 -0.793850 -0.016049 0.000000 -0.785039 -0.023734 0.000000 -0.777828 -0.030840 0.000000 -0.764211 -0.038244 0.000000 -0.751972 -0.044923 0.000000 -0.733841 -0.051895 0.000000 -0.716876 -0.058029 0.000000 -0.694607 -0.064444 0.000000 -0.673304 -0.069941 0.000000 -0.647332 -0.075703 0.000000 -0.622142 -0.080499 0.000000 -0.592947 -0.085543 0.000000 -0.564365 -0.089599 0.000000 -0.532451 -0.093885 0.000000 -0.500996 -0.097183 0.000000 -0.466877 -0.100697 0.000000 -0.433076 -0.103242 0.000000 -0.397262 -0.105988 0.000000 -0.361635 -0.107796 0.000000 -0.324623 -0.109795 0.000000 -0.287676 -0.110897 0.000000 
-0.250600 -0.150135 0.000000 -0.212459 -0.150710 0.000000 -0.174072 -0.151495 0.000000 -0.135577 -0.151231 0.000000 -0.097368 -0.151158 0.000000 -0.058949 -0.150114 0.000000 -0.021307 -0.149240 0.000000 0.016637 -0.147474 0.000000 0.053352 -0.145857 0.000000 0.090449 -0.143428 0.000000 0.125907 -0.141123 0.000000 0.161814 -0.138088 0.000000 0.195714 -0.135152 0.000000 0.230116 -0.131569 0.000000 0.262183 -0.128061 0.000000 0.294792 -0.123987 0.000000 0.324783 -0.119965 0.000000 0.355342 -0.115460 0.000000 0.383040 -0.110988 0.000000 0.411320 -0.106113 0.000000 0.436540 -0.101255 0.000000 0.462348 -0.096075 0.000000 0.484937 -0.090903 0.000000 0.508114 -0.085482 0.000000 0.527952 -0.080068 0.000000 0.548376 -0.074475 0.000000 0.565377 -0.068892 0.000000 0.582965 -0.063195 0.000000 0.597080 -0.057516 0.000000 0.611785 -0.051781 0.000000 0.622997 -0.046076 0.000000 0.634811 -0.040363 0.000000 0.643135 -0.034698 0.000000 0.652083 -0.029063 0.000000 0.657563 -0.023494 0.000000 0.663699 -0.017984 0.000000 0.666403 -0.012559 0.000000 0.669805 -0.007211 0.000000 0.669820 -0.001965 0.000000 0.670585 0.003193 0.000000 0.668012 0.008234 0.000000 0.666249 0.013186 0.000000 0.661195 0.018009 0.000000 0.657019 0.022749 0.000000 0.649596 0.027350 0.000000 0.643123 0.031880 0.000000 0.633437 0.036266 0.000000 0.624778 0.040597 0.000000 0.612932 0.044781 0.000000 0.602191 0.048928 0.000000 0.588277 0.052928 0.000000 0.575546 0.056911 0.000000 0.559645 0.060750 0.000000 0.545006 0.064587 0.000000 0.527189 0.068291 0.000000 0.510708 0.072001 0.000000 0.491036 0.075593 0.000000 0.472767 0.079193 0.000000 0.451289 0.082696 0.000000 0.431274 0.086196 0.000000 0.408037 0.089630 0.000000 0.386306 0.093033 0.000000 0.361352 0.096414 0.000000 0.337927 0.099713 0.000000 0.311299 0.103048 0.000000 0.286198 0.106227 0.000000 0.257948 0.109512 0.000000 0.231187 0.112541 0.000000 0.201381 0.115759 0.000000 0.172985 0.118593 0.000000 0.141710 0.121710 0.000000 0.111716 0.124287 0.000000 0.079091 0.127249 0.000000 0.047565 0.129489 0.000000 0.013749 0.132220 0.000000 -0.019207 0.134027 0.000000 -0.054006 0.136427 0.000000 -0.088237 0.137691 0.000000 -0.123751 0.139636 0.000000 -0.159040 0.140238 0.000000 -0.194939 0.141586 0.000000 -0.230992 0.141401 0.000000 -0.266875 0.142001 0.000000 -0.303317 0.140910 0.000000 -0.338719 0.140606 0.000000 -0.375089 0.138506 0.000000 -0.409488 0.137154 0.000000 -0.445245 0.133963 0.000000 -0.478069 0.131445 0.000000 -0.512606 0.127116 0.000000 -0.543257 0.123349 0.000000 -0.575919 0.117876 0.000000 -0.603793 0.112826 0.000000 -0.633904 0.106247 0.000000 -0.658413 0.099937 0.000000 -0.685308 0.092337 0.000000 -0.705911 0.084849 0.000000 -0.728965 0.076359 0.000000 -0.745191 0.067830 0.000000 -0.763855 0.058622 0.000000 -0.775324 0.049243 0.000000 -0.789149 0.039519 0.000000 -0.795591 0.029516 0.000000 -0.804251 0.019501 0.000000 -0.805517 0.009127 0.000000 -0.808824 -0.000947 0.000000 -0.804888 -0.011431 0.000000 -0.802791 -0.021335 0.000000 -0.793752 -0.031673 0.000000 -0.786339 -0.041194 0.000000 -0.772407 -0.051149 0.000000 -0.759889 -0.060097 0.000000 -0.741374 -0.069465 0.000000 -0.724070 -0.077681 0.000000 -0.701364 -0.086294 0.000000 -0.679677 -0.093655 0.000000 -0.653233 -0.101384 0.000000 -0.627632 -0.107804 0.000000 -0.597947 -0.114562 0.000000 -0.568940 -0.119988 0.000000 -0.536533 -0.125723 0.000000 -0.504652 -0.130134 0.000000 -0.470049 -0.134830 0.000000 -0.435830 -0.138230 0.000000 -0.399552 -0.141894 0.000000 -0.363523 -0.144309 0.000000 -0.326072 -0.146968 0.000000 -0.288744 -0.148438 0.000000 
-0.252215 -0.188462 0.000000 -0.213519 -0.189138 0.000000 -0.174672 -0.190090 0.000000 -0.135652 -0.189718 0.000000 -0.097009 -0.189600 0.000000 -0.058097 -0.188254 0.000000 -0.020049 -0.187137 0.000000 0.018355 -0.184892 0.000000 0.055447 -0.182846 0.000000 0.092972 -0.179776 0.000000 0.128777 -0.176872 0.000000 0.165078 -0.173048 0.000000 0.199294 -0.169357 0.000000 0.234056 -0.164850 0.000000 0.266408 -0.160443 0.000000 0.299340 -0.155325 0.000000 0.329582 -0.150277 0.000000 0.360425 -0.144622 0.000000 0.388337 -0.139009 0.000000 0.416861 -0.132894 0.000000 0.442256 -0.126800 0.000000 0.468264 -0.120303 0.000000 0.490986 -0.113815 0.000000 0.514318 -0.107021 0.000000 0.534245 -0.100230 0.000000 0.554778 -0.093223 0.000000 0.571824 -0.086222 0.000000 0.589474 -0.079086 0.000000 0.603591 -0.071967 0.000000 0.618314 -0.064784 0.000000 0.629486 -0.057636 0.000000 0.641276 -0.050484 0.000000 0.649523 -0.043388 0.000000 0.658410 -0.036336 0.000000 0.663781 -0.029363 0.000000 0.669823 -0.022469 0.000000 0.672393 -0.015680 0.000000 0.675677 -0.008991 0.000000 0.675539 -0.002429 0.000000 0.676169 0.004021 0.000000 0.673431 0.010324 0.000000 0.671523 0.016517 0.000000 0.666301 0.022545 0.000000 0.661978 0.028473 0.000000 0.654389 0.034223 0.000000 0.647773 0.039890 0.000000 0.637931 0.045370 0.000000 0.629138 0.050790 0.000000 0.617149 0.056018 0.000000 0.606288 0.061211 0.000000 0.592249 0.066211 0.000000 0.579416 0.071201 0.000000 0.563410 0.076003 0.000000 0.548688 0.080815 0.000000 0.530787 0.085448 0.000000 0.514243 0.090106 0.000000 0.494506 0.094603 0.000000 0.476196 0.099126 0.000000 0.454672 0.103515 0.000000 0.434634 0.107917 0.000000 0.411365 0.112223 0.000000 0.389628 0.116508 0.000000 0.364649 0.120748 0.000000 0.341231 0.124909 0.000000 0.314581 0.129094 0.000000 0.289491 0.133110 0.000000 0.261214 0.137235 0.000000 0.234460 0.141068 0.000000 0.204611 0.145113 0.000000 0.176206 0.148707 0.000000 0.144862 0.152630 0.000000 0.114831 0.155907 0.000000 0.082099 0.159641 0.000000 0.050491 0.162500 0.000000 0.016520 0.165949 0.000000 -0.016579 0.168269 0.000000 -0.051591 0.171306 0.000000 -0.086044 0.172947 0.000000 -0.121836 0.175418 0.000000 -0.157438 0.176226 0.000000 -0.193684 0.177952 0.000000 -0.230150 0.177768 0.000000 -0.266451 0.178553 0.000000 -0.303408 0.177225 0.000000 -0.339294 0.176873 0.000000 -0.376276 0.174266 0.000000 -0.411211 0.172593 0.000000 -0.447666 0.168601 0.000000 -0.481064 0.165455 0.000000 -0.516360 0.160017 0.000000 -0.547602 0.155292 0.000000 -0.581056 0.148397 0.000000 -0.609513 0.142051 0.000000 -0.640414 0.133749 0.000000 -0.665474 0.125808 0.000000 -0.693118 0.116208 0.000000 -0.714215 0.106777 0.000000 -0.737942 0.096046 0.000000 -0.754581 0.085301 0.000000 -0.773810 0.073660 0.000000 -0.785592 0.061841 0.000000 -0.799848 0.049550 0.000000 -0.806491 0.036947 0.000000 -0.815431 0.024292 0.000000 -0.816778 0.011227 0.000000 -0.820206 -0.001494 0.000000 -0.816230 -0.014689 0.000000 -0.814099 -0.027185 0.000000 -0.804905 -0.040187 0.000000 -0.797311 -0.052185 0.000000 -0.783120 -0.064694 0.000000 -0.770293 -0.075955 0.000000 -0.751431 -0.087714 0.000000 -0.733709 -0.098039 0.000000 -0.710586 -0.108837 0.000000 -0.688398 -0.118071 0.000000 -0.661485 -0.127748 0.000000 -0.635324 -0.135786 0.000000 -0.605134 -0.144235 0.000000 -0.575530 -0.151012 0.000000 -0.542600 -0.158173 0.000000 -0.510106 -0.163667 0.000000 -0.474975 -0.169519 0.000000 -0.440142 -0.173739 0.000000 -0.403343 -0.178295 0.000000 -0.366711 -0.181276 0.000000 -0.328754 -0.184573 0.000000 -0.290845 -0.186369 0.000000 
-0.253370 -0.227461 0.000000 -0.214090 -0.228254 0.000000 -0.174654 -0.229362 0.000000 -0.135089 -0.228894 0.000000 -0.095906 -0.228713 0.000000 -0.056487 -0.227074 0.000000 -0.017946 -0.225692 0.000000 0.020926 -0.222970 0.000000 0.058467 -0.220473 0.000000 0.096421 -0.216758 0.000000 0.132633 -0.213229 0.000000 0.169328 -0.208606 0.000000 0.203910 -0.204130 0.000000 0.239028 -0.198683 0.000000 0.271706 -0.193346 0.000000 0.304957 -0.187161 0.000000 0.335485 -0.181050 0.000000 0.366607 -0.174215 0.000000 0.394766 -0.167424 0.000000 0.423527 -0.160031 0.000000 0.449128 -0.152659 0.000000 0.475330 -0.144805 0.000000 0.498217 -0.136956 0.000000 0.521697 -0.128741 0.000000 0.541748 -0.120527 0.000000 0.562382 -0.112055 0.000000 0.579512 -0.103588 0.000000 0.597218 -0.094962 0.000000 0.611379 -0.086356 0.000000 0.626114 -0.077676 0.000000 0.637295 -0.069039 0.000000 0.649057 -0.060401 0.000000 0.657281 -0.051832 0.000000 0.666106 -0.043321 0.000000 0.671427 -0.034908 0.000000 0.677380 -0.026596 0.000000 0.679879 -0.018412 0.000000 0.683052 -0.010357 0.000000 0.682829 -0.002457 0.000000 0.683335 0.005300 0.000000 0.680503 0.012879 0.000000 0.678465 0.020315 0.000000 0.673146 0.027554 0.000000 0.668691 0.034661 0.000000 0.661007 0.041555 0.000000 0.654263 0.048339 0.000000 0.644330 0.054901 0.000000 0.635418 0.061379 0.000000 0.623344 0.067630 0.000000 0.612375 0.073828 0.000000 0.598257 0.079800 0.000000 0.585327 0.085749 0.000000 0.569247 0.091478 0.000000 0.554440 0.097211 0.000000 0.536468 0.102735 0.000000 0.519849 0.108282 0.000000 0.500042 0.113641 0.000000 0.481664 0.119027 0.000000 0.460065 0.124258 0.000000 0.439967 0.129503 0.000000 0.416612 0.134637 0.000000 0.394816 0.139748 0.000000 0.369737 0.144811 0.000000 0.346257 0.149782 0.000000 0.319484 0.154787 0.000000 0.294323 0.159595 0.000000 0.265890 0.164543 0.000000 0.239049 0.169144 0.000000 0.209003 0.174013 0.000000 0.180485 0.178342 0.000000 0.148892 0.183085 0.000000 0.118709 0.187049 0.000000 0.085666 0.191589 0.000000 0.053856 0.195068 0.000000 0.019500 0.199291 0.000000 -0.013867 0.202138 0.000000 -0.049346 0.205891 0.000000 -0.084144 0.207937 0.000000 -0.120491 0.211030 0.000000 -0.156526 0.212086 0.000000 -0.193416 0.214299 0.000000 -0.230410 0.214168 0.000000 -0.267437 0.215259 0.000000 -0.305016 0.213753 0.000000 -0.341698 0.213474 0.000000 -0.379388 0.210424 0.000000 -0.415171 0.208543 0.000000 -0.452401 0.203816 0.000000 -0.486671 0.200139 0.000000 -0.522787 0.193655 0.000000 -0.554894 0.188045 0.000000 -0.589178 0.179787 0.000000 -0.618458 0.172184 0.000000 -0.650163 0.162207 0.000000 -0.675970 0.152641 0.000000 -0.704354 0.141077 0.000000 -0.726088 0.129673 0.000000 -0.750455 0.116725 0.000000 -0.767591 0.103698 0.000000 -0.787327 0.089634 0.000000 -0.799447 0.075281 0.000000 -0.814054 0.060418 0.000000 -0.820861 0.045100 0.000000 -0.829982 0.029788 0.000000 -0.831315 0.013901 0.000000 -0.834749 -0.001495 0.000000 -0.830589 -0.017538 0.000000 -0.828297 -0.032661 0.000000 -0.818760 -0.048461 0.000000 -0.810854 -0.062978 0.000000 -0.796185 -0.078167 0.000000 -0.782916 -0.091786 0.000000 -0.763464 -0.106048 0.000000 -0.745197 -0.118526 0.000000 -0.721402 -0.131605 0.000000 -0.698593 -0.142756 0.000000 -0.670953 -0.154459 0.000000 -0.644122 -0.164155 0.000000 -0.613178 -0.174355 0.000000 -0.582881 -0.182521 0.000000 -0.549191 -0.191148 0.000000 -0.516001 -0.197759 0.000000 -0.480125 -0.204794 0.000000 -0.444609 -0.209863 0.000000 -0.407092 -0.215325 0.000000 -0.369804 -0.218897 0.000000 -0.331167 -0.222835 0.000000 -0.292635 -0.224978 0.000000 
-0.255493 -0.267007 0.000000 -0.215423 -0.267854 0.000000 -0.175314 -0.269091 0.000000 -0.135005 -0.268467 0.000000 -0.095191 -0.268202 0.000000 -0.055077 -0.266214 0.000000 -0.015948 -0.264550 0.000000 0.023572 -0.261305 0.000000 0.061657 -0.258342 0.000000 0.100213 -0.253943 0.000000 0.136927 -0.249779 0.000000 0.174175 -0.244325 0.000000 0.209215 -0.239057 0.000000 0.244838 -0.232646 0.000000 0.277928 -0.226373 0.000000 0.311634 -0.219104 0.000000 0.342525 -0.211927 0.000000 0.374049 -0.203903 0.000000 0.402518 -0.195929 0.000000 0.431624 -0.187256 0.000000 0.457480 -0.178602 0.000000 0.483964 -0.169392 0.000000 0.507047 -0.160182 0.000000 0.530744 -0.150552 0.000000 0.550929 -0.140915 0.000000 0.571714 -0.130987 0.000000 0.588915 -0.121057 0.000000 0.606704 -0.110952 0.000000 0.620874 -0.100863 0.000000 0.635628 -0.090700 0.000000 0.646759 -0.080579 0.000000 0.658480 -0.070471 0.000000 0.666601 -0.060436 0.000000 0.675331 -0.050481 0.000000 0.680502 -0.040637 0.000000 0.686316 -0.030921 0.000000 0.688628 -0.021352 0.000000 0.691628 -0.011941 0.000000 0.691192 -0.002712 0.000000 0.691501 0.006347 0.000000 0.688441 0.015194 0.000000 0.686192 0.023874 0.000000 0.680640 0.032318 0.000000 0.675973 0.040612 0.000000 0.668060 0.048651 0.000000 0.661110 0.056567 0.000000 0.650961 0.064215 0.000000 0.641857 0.071775 0.000000 0.629588 0.079061 0.000000 0.618446 0.086298 0.000000 0.604158 0.093259 0.000000 0.591080 0.100210 0.000000 0.574857 0.106890 0.000000 0.559929 0.113594 0.000000 0.541842 0.120039 0.000000 0.525132 0.126532 0.000000 0.505235 0.132788 0.000000 0.486795 0.139103 0.000000 0.465129 0.145213 0.000000 0.444995 0.151370 0.000000 0.421591 0.157373 0.000000 0.399782 0.163382 0.000000 0.374663 0.169308 0.000000 0.351188 0.175163 0.000000 0.324374 0.181028 0.000000 0.299226 0.186704 0.000000 0.270742 0.192509 0.000000 0.243910 0.197955 0.000000 0.213787 0.203678 0.000000 0.185257 0.208818 0.000000 0.153547 0.214406 0.000000 0.123313 0.219132 0.000000 0.090096 0.224495 0.000000 0.058170 0.228666 0.000000 0.023568 0.233671 0.000000 -0.010002 0.237114 0.000000 -0.045815 0.241583 0.000000 -0.080928 0.244093 0.000000 -0.117711 0.247801 0.000000 -0.154193 0.249151 0.000000 -0.191625 0.251835 0.000000 -0.229214 0.251789 0.000000 -0.266890 0.253159 0.000000 -0.305217 0.251486 0.000000 -0.342646 0.251245 0.000000 -0.381231 0.247738 0.000000 -0.417842 0.245606 0.000000 -0.456093 0.240101 0.000000 -0.491248 0.235841 0.000000 -0.528477 0.228239 0.000000 -0.561492 0.221683 0.000000 -0.596938 0.211962 0.000000 -0.627113 0.203037 0.000000 -0.659976 0.191260 0.000000 -0.686623 0.179999 0.000000 -0.716105 0.166325 0.000000 -0.738585 0.152877 0.000000 -0.763934 0.137550 0.000000 -0.781690 0.122173 0.000000 -0.802242 0.105516 0.000000 -0.814824 0.088568 0.000000 -0.830044 0.070963 0.000000 -0.837136 0.052875 0.000000 -0.846642 0.034746 0.000000 -0.848074 0.015995 0.000000 -0.851656 -0.002220 0.000000 -0.847409 -0.021142 0.000000 -0.845032 -0.039014 0.000000 -0.835232 -0.057629 0.000000 -0.827027 -0.074760 0.000000 -0.811938 -0.092633 0.000000 -0.798182 -0.108676 0.000000 -0.778180 -0.125433 0.000000 -0.759273 -0.140102 0.000000 -0.734823 -0.155441 0.000000 -0.711259 -0.168519 0.000000 -0.682890 -0.182219 0.000000 -0.655225 -0.193561 0.000000 -0.623506 -0.205476 0.000000 -0.592329 -0.214999 0.000000 -0.557843 -0.225054 0.000000 -0.523755 -0.232734 0.000000 -0.487083 -0.240911 0.000000 -0.450676 -0.246772 0.000000 -0.412380 -0.253100 0.000000 -0.374225 -0.257201 0.000000 -0.334837 -0.261743 0.000000 -0.295473 -0.264167 0.000000 