# vtk DataFile Version 2.0
Comment goes here
ASCII

DATASET STRUCTURED_POINTS
FIELD FieldData 1
TIME 1 1 double
0.00500000
DIMENSIONS    128   128   1

ORIGIN    0.000   0.000   0.000
SPACING   0.039062 0.039062   1.000

POINT_DATA   16384
VECTORS u double

0.074654 -0.000000 0.000000 0.083026 0.000000 0.000000 0.085497 -0.000000 0.000000 0.093069 -0.000000 0.000000 0.096201 -0.000000 0.000000 0.102882 0.000000 0.000000 0.106651 0.000000 0.000000 0.112354 0.000000 0.000000 0.116713 0.000000 0.000000 0.121355 0.000000 0.000000 0.126236 -0.000000 0.000000 0.129737 -0.000000 0.000000 0.135050 -0.000000 0.000000 0.137336 0.000000 0.000000 0.142968 0.000000 0.000000 0.143971 0.000000 0.000000 0.149786 0.000000 0.000000 0.149443 0.000000 0.000000 0.155287 0.000000 0.000000 0.153542 0.000000 0.000000 0.159240 0.000000 0.000000 0.156047 0.000000 0.000000 0.161414 0.000000 0.000000 0.156738 0.000000 0.000000 0.161580 -0.000000 0.000000 0.155400 -0.000000 0.000000 0.159524 -0.000000 0.000000 0.151839 -0.000000 0.000000 0.155064 -0.000000 0.000000 0.145894 -0.000000 0.000000 0.148061 0.000000 0.000000 0.137456 0.000000 0.000000 0.138438 0.000000 0.000000 0.126479 -0.000000 0.000000 0.126197 0.000000 0.000000 0.113001 0.000000 0.000000 0.111430 0.000000 0.000000 0.097156 0.000000 0.000000 0.094329 0.000000 0.000000 0.079173 0.000000 0.000000 0.075191 0.000000 0.000000 0.059387 -0.000000 0.000000 0.054409 0.000000 0.000000 0.038222 -0.000000 0.000000 0.032464 -0.000000 0.000000 0.016179 0.000000 0.000000 0.009895 0.000000 0.000000 -0.006189 -0.000000 0.000000 -0.012719 0.000000 0.000000 -0.028309 -0.000000 0.000000 -0.034797 0.000000 0.000000 -0.049613 -0.000000 0.000000 -0.055787 0.000000 0.000000 -0.069581 0.000000 0.000000 -0.075199 0.000000 0.000000 -0.087758 0.000000 0.000000 -0.092623 0.000000 0.000000 -0.103785 -0.000000 0.000000 -0.107756 0.000000 0.000000 -0.117409 0.000000 0.000000 -0.120406 0.000000 0.000000 -0.128486 -0.000000 0.000000 -0.130491 0.000000 0.000000 -0.136984 -0.000000 0.000000 -0.138032 0.000000 0.000000 -0.142967 0.000000 0.000000 -0.143142 0.000000 0.000000 -0.146578 0.000000 0.000000 -0.146000 0.000000 0.000000 -0.148023 -0.000000 0.000000 -0.146836 0.000000 0.000000 -0.147548 -0.000000 0.000000 -0.145909 0.000000 0.000000 -0.145418 -0.000000 0.000000 -0.143486 0.000000 0.000000 -0.141903 -0.000000 0.000000 -0.139830 -0.000000 0.000000 -0.137259 -0.000000 0.000000 -0.135184 -0.000000 0.000000 -0.131723 -0.000000 0.000000 -0.129768 0.000000 0.000000 -0.125501 -0.000000 0.000000 -0.123767 0.000000 0.000000 -0.118767 -0.000000 0.000000 -0.117335 0.000000 0.000000 -0.111663 0.000000 0.000000 -0.110592 0.000000 0.000000 -0.104298 -0.000000 0.000000 -0.103627 0.000000 0.000000 -0.096751 0.000000 0.000000 -0.096500 0.000000 0.000000 -0.089074 0.000000 0.000000 -0.089248 0.000000 0.000000 -0.081297 0.000000 0.000000 -0.081885 0.000000 0.000000 -0.073433 0.000000 0.000000 -0.074410 0.000000 0.000000 -0.065480 -0.000000 0.000000 -0.066810 -0.000000 0.000000 -0.057428 0.000000 0.000000 -0.059063 0.000000 0.000000 -0.049258 0.000000 0.000000 -0.051141 0.000000 0.000000 -0.040949 -0.000000 0.000000 -0.043014 0.000000 0.000000 -0.032482 0.000000 0.000000 -0.034654 0.000000 0.000000 -0.023836 -0.000000 0.000000 -0.026037 -0.000000 0.000000 -0.014996 -0.000000 0.000000 -0.017140 -0.000000 0.000000 -0.005950 -0.000000 0.000000 -0.007953 0.000000 0.000000 0.003306 0.000000 0.000000 0.001532 0.000000 0.000000 0.012772 -0.000000 0.000000 0.011311 -0.000000 0.000000 0.022437 0.000000 0.000000 0.021370 0.000000 0.000000 0.032286 0.000000 0.000000 0.031686 0.000000 0.000000 0.042293 0.000000 0.000000 0.042224 0.000000 0.000000 0.052421 0.000000 0.000000 0.052939 0.000000 0.000000 0.062626 0.000000 0.000000 0.063773 -0.000000 0.000000 0.072851 -0.000000 0.000000 
0.056535 -0.005088 0.000000 0.067435 -0.005421 0.000000 0.066302 -0.005022 0.000000 0.076693 -0.005352 0.000000 0.076006 -0.004907 0.000000 0.085794 -0.005225 0.000000 0.085547 -0.004736 0.000000 0.094640 -0.005031 0.000000 0.094812 -0.004500 0.000000 0.103118 -0.004761 0.000000 0.103672 -0.004191 0.000000 0.111097 -0.004407 0.000000 0.111981 -0.003800 0.000000 0.118434 -0.003959 0.000000 0.119579 -0.003317 0.000000 0.124968 -0.003409 0.000000 0.126290 -0.002736 0.000000 0.130521 -0.002750 0.000000 0.131924 -0.002049 0.000000 0.134906 -0.001977 0.000000 0.136282 -0.001253 0.000000 0.137923 -0.001087 0.000000 0.139156 -0.000345 0.000000 0.139370 -0.000083 0.000000 0.140340 0.000669 0.000000 0.139048 0.001028 0.000000 0.139639 0.001781 0.000000 0.136772 0.002230 0.000000 0.136879 0.002972 0.000000 0.132386 0.003502 0.000000 0.131921 0.004219 0.000000 0.125775 0.004811 0.000000 0.124678 0.005488 0.000000 0.116882 0.006121 0.000000 0.115128 0.006739 0.000000 0.105722 0.007384 0.000000 0.103328 0.007923 0.000000 0.092393 0.008550 0.000000 0.089423 0.008991 0.000000 0.077086 0.009569 0.000000 0.073650 0.009893 0.000000 0.060082 0.010391 0.000000 0.056334 0.010582 0.000000 0.041749 0.010973 0.000000 0.037879 0.011021 0.000000 0.022527 0.011284 0.000000 0.018751 0.011184 0.000000 0.002906 0.011307 0.000000 -0.000553 0.011060 0.000000 -0.016600 0.011039 0.000000 -0.019524 0.010652 0.000000 -0.035486 0.010495 0.000000 -0.037679 0.009984 0.000000 -0.053279 0.009706 0.000000 -0.054582 0.009089 0.000000 -0.069569 0.008712 0.000000 -0.069872 0.008014 0.000000 -0.084029 0.007567 0.000000 -0.083276 0.006812 0.000000 -0.096426 0.006325 0.000000 -0.094620 0.005539 0.000000 -0.106630 0.005042 0.000000 -0.103827 0.004249 0.000000 -0.114607 0.003771 0.000000 -0.110910 0.002991 0.000000 -0.120409 0.002555 0.000000 -0.115961 0.001806 0.000000 -0.124161 0.001429 0.000000 -0.119131 0.000723 0.000000 -0.126044 0.000418 0.000000 -0.120616 -0.000238 0.000000 -0.126270 -0.000464 0.000000 -0.120633 -0.001065 0.000000 -0.125073 -0.001211 0.000000 -0.119407 -0.001758 0.000000 -0.122683 -0.001828 0.000000 -0.117158 -0.002322 0.000000 -0.119324 -0.002323 0.000000 -0.114087 -0.002768 0.000000 -0.115195 -0.002708 0.000000 -0.110374 -0.003111 0.000000 -0.110472 -0.003000 0.000000 -0.106167 -0.003367 0.000000 -0.105300 -0.003216 0.000000 -0.101590 -0.003552 0.000000 -0.099794 -0.003372 0.000000 -0.096733 -0.003682 0.000000 -0.094041 -0.003483 0.000000 -0.091663 -0.003774 0.000000 -0.088101 -0.003563 0.000000 -0.086421 -0.003839 0.000000 -0.082013 -0.003626 0.000000 -0.081028 -0.003888 0.000000 -0.075794 -0.003681 0.000000 -0.075488 -0.003932 0.000000 -0.069450 -0.003737 0.000000 -0.069794 -0.003976 0.000000 -0.062974 -0.003800 0.000000 -0.063926 -0.004026 0.000000 -0.056351 -0.003874 0.000000 -0.057860 -0.004085 0.000000 -0.049562 -0.003961 0.000000 -0.051569 -0.004154 0.000000 -0.042588 -0.004063 0.000000 -0.045025 -0.004234 0.000000 -0.035410 -0.004180 0.000000 -0.038203 -0.004323 0.000000 -0.028011 -0.004309 0.000000 -0.031079 -0.004420 0.000000 -0.020377 -0.004448 0.000000 -0.023639 -0.004523 0.000000 -0.012502 -0.004594 0.000000 -0.015872 -0.004628 0.000000 -0.004382 -0.004742 0.000000 -0.007775 -0.004733 0.000000 0.003979 -0.004889 0.000000 0.000646 -0.004833 0.000000 0.012570 -0.005029 0.000000 0.009376 -0.004924 0.000000 0.021374 -0.005158 0.000000 0.018393 -0.005003 0.000000 0.030368 -0.005269 0.000000 0.027664 -0.005064 0.000000 0.039517 -0.005358 0.000000 0.037148 -0.005102 0.000000 0.048780 -0.005417 0.000000 0.046793 -0.005112 0.000000 0.058107 -0.005440 0.000000 
0.074673 -0.009329 0.000000 0.083092 -0.009767 0.000000 0.085566 -0.009258 0.000000 0.093183 -0.009704 0.000000 0.096329 -0.009101 0.000000 0.103053 -0.009542 0.000000 0.106845 -0.008846 0.000000 0.112590 -0.009265 0.000000 0.116983 -0.008477 0.000000 0.121664 -0.008859 0.000000 0.126590 -0.007980 0.000000 0.130128 -0.008309 0.000000 0.135498 -0.007337 0.000000 0.137818 -0.007598 0.000000 0.143518 -0.006533 0.000000 0.144552 -0.006711 0.000000 0.150446 -0.005554 0.000000 0.150130 -0.005635 0.000000 0.156060 -0.004385 0.000000 0.154338 -0.004358 0.000000 0.160130 -0.003017 0.000000 0.156955 -0.002874 0.000000 0.162418 -0.001447 0.000000 0.157752 -0.001184 0.000000 0.162690 0.000322 0.000000 0.156512 0.000701 0.000000 0.160726 0.002276 0.000000 0.153031 0.002760 0.000000 0.156335 0.004386 0.000000 0.147141 0.004958 0.000000 0.149371 0.006611 0.000000 0.138725 0.007243 0.000000 0.139748 0.008893 0.000000 0.127729 0.009550 0.000000 0.127460 0.011160 0.000000 0.114186 0.011800 0.000000 0.112596 0.013329 0.000000 0.098224 0.013905 0.000000 0.095348 0.015308 0.000000 0.080075 0.015773 0.000000 0.076012 0.017004 0.000000 0.060076 0.017316 0.000000 0.054992 0.018333 0.000000 0.038661 0.018454 0.000000 0.032775 0.019222 0.000000 0.016342 0.019129 0.000000 0.009918 0.019621 0.000000 -0.006314 0.019304 0.000000 -0.012987 0.019507 0.000000 -0.028716 0.018972 0.000000 -0.035341 0.018886 0.000000 -0.050282 0.018155 0.000000 -0.056577 0.017793 0.000000 -0.070476 0.016903 0.000000 -0.076192 0.016290 0.000000 -0.088833 0.015290 0.000000 -0.093769 0.014460 0.000000 -0.104987 0.013404 0.000000 -0.108998 0.012398 0.000000 -0.118681 0.011344 0.000000 -0.121689 0.010204 0.000000 -0.129776 0.009206 0.000000 -0.131762 0.007976 0.000000 -0.138242 0.007083 0.000000 -0.139248 0.005802 0.000000 -0.144152 0.005051 0.000000 -0.144268 0.003753 0.000000 -0.147661 0.003171 0.000000 -0.147011 0.001882 0.000000 -0.148983 0.001485 0.000000 -0.147718 0.000227 0.000000 -0.148375 0.000017 0.000000 -0.146656 -0.001198 0.000000 -0.146111 -0.001226 0.000000 -0.144103 -0.002389 0.000000 -0.142467 -0.002249 0.000000 -0.140324 -0.003360 0.000000 -0.137705 -0.003071 0.000000 -0.135570 -0.004129 0.000000 -0.132066 -0.003714 0.000000 -0.130060 -0.004723 0.000000 -0.125756 -0.004206 0.000000 -0.123983 -0.005172 0.000000 -0.118952 -0.004578 0.000000 -0.117491 -0.005506 0.000000 -0.111794 -0.004857 0.000000 -0.110703 -0.005753 0.000000 -0.104390 -0.005070 0.000000 -0.103708 -0.005940 0.000000 -0.096816 -0.005242 0.000000 -0.096563 -0.006089 0.000000 -0.089123 -0.005393 0.000000 -0.089303 -0.006218 0.000000 -0.081340 -0.005539 0.000000 -0.081940 -0.006344 0.000000 -0.073477 -0.005695 0.000000 -0.074473 -0.006477 0.000000 -0.065530 -0.005868 0.000000 -0.066884 -0.006623 0.000000 -0.057486 -0.006066 0.000000 -0.059150 -0.006789 0.000000 -0.049327 -0.006291 0.000000 -0.051243 -0.006974 0.000000 -0.041029 -0.006544 0.000000 -0.043131 -0.007178 0.000000 -0.032571 -0.006823 0.000000 -0.034784 -0.007399 0.000000 -0.023934 -0.007123 0.000000 -0.026176 -0.007633 0.000000 -0.015099 -0.007440 0.000000 -0.017286 -0.007875 0.000000 -0.006056 -0.007767 0.000000 -0.008101 -0.008120 0.000000 0.003202 -0.008097 0.000000 0.001386 -0.008361 0.000000 0.012672 -0.008421 0.000000 0.011171 -0.008591 0.000000 0.022346 -0.008730 0.000000 0.021241 -0.008805 0.000000 0.032208 -0.009017 0.000000 0.031574 -0.008993 0.000000 0.042232 -0.009271 0.000000 0.042136 -0.009149 0.000000 0.052383 -0.009484 0.000000 0.052880 -0.009263 0.000000 0.062616 -0.009645 0.000000 0.063749 -0.009327 0.000000 0.072875 -0.009743 0.000000 
0.056511 -0.015304 0.000000 0.067506 -0.016315 0.000000 0.066365 -0.015113 0.000000 0.076849 -0.016115 0.000000 0.076168 -0.014777 0.000000 0.086050 -0.015742 0.000000 0.085824 -0.014272 0.000000 0.095009 -0.015168 0.000000 0.095218 -0.013574 0.000000 0.103615 -0.014368 0.000000 0.104222 -0.012655 0.000000 0.111740 -0.013315 0.000000 0.112692 -0.011490 0.000000 0.119238 -0.011979 0.000000 0.120466 -0.010051 0.000000 0.125947 -0.010337 0.000000 0.127366 -0.008314 0.000000 0.131690 -0.008365 0.000000 0.133202 -0.006258 0.000000 0.136274 -0.006047 0.000000 0.137766 -0.003869 0.000000 0.139494 -0.003375 0.000000 0.140846 -0.001143 0.000000 0.141139 -0.000355 0.000000 0.142226 0.001910 0.000000 0.141001 0.002992 0.000000 0.141699 0.005261 0.000000 0.138882 0.006621 0.000000 0.139076 0.008862 0.000000 0.134611 0.010466 0.000000 0.134206 0.012636 0.000000 0.128057 0.014434 0.000000 0.126985 0.016484 0.000000 0.119150 0.018408 0.000000 0.117378 0.020282 0.000000 0.107891 0.022247 0.000000 0.105433 0.023885 0.000000 0.094372 0.025799 0.000000 0.091291 0.027140 0.000000 0.078782 0.028904 0.000000 0.075192 0.029892 0.000000 0.061410 0.031411 0.000000 0.057472 0.031998 0.000000 0.042638 0.033190 0.000000 0.038554 0.033341 0.000000 0.022927 0.034142 0.000000 0.018926 0.033840 0.000000 0.002793 0.034211 0.000000 -0.000885 0.033461 0.000000 -0.017222 0.033393 0.000000 -0.020341 0.032219 0.000000 -0.036579 0.031732 0.000000 -0.038931 0.030178 0.000000 -0.054782 0.029320 0.000000 -0.056196 0.027446 0.000000 -0.071399 0.026289 0.000000 -0.071758 0.024167 0.000000 -0.086091 0.022797 0.000000 -0.085337 0.020506 0.000000 -0.098620 0.019015 0.000000 -0.096757 0.016633 0.000000 -0.108858 0.015116 0.000000 -0.105950 0.012715 0.000000 -0.116781 0.011257 0.000000 -0.112942 0.008902 0.000000 -0.122458 0.007574 0.000000 -0.117841 0.005314 0.000000 -0.126031 0.004172 0.000000 -0.120817 0.002045 0.000000 -0.127700 0.001125 0.000000 -0.122084 -0.000846 0.000000 -0.127695 -0.001525 0.000000 -0.121876 -0.003329 0.000000 -0.126264 -0.003765 0.000000 -0.120431 -0.005402 0.000000 -0.123653 -0.005606 0.000000 -0.117979 -0.007083 0.000000 -0.120093 -0.007077 0.000000 -0.114730 -0.008408 0.000000 -0.115789 -0.008218 0.000000 -0.110866 -0.009421 0.000000 -0.110921 -0.009078 0.000000 -0.106539 -0.010171 0.000000 -0.105634 -0.009708 0.000000 -0.101869 -0.010710 0.000000 -0.100041 -0.010159 0.000000 -0.096947 -0.011087 0.000000 -0.094228 -0.010478 0.000000 -0.091835 -0.011348 0.000000 -0.088250 -0.010708 0.000000 -0.086572 -0.011531 0.000000 -0.082143 -0.010887 0.000000 -0.081174 -0.011671 0.000000 -0.075920 -0.011044 0.000000 -0.075643 -0.011795 0.000000 -0.069583 -0.011205 0.000000 -0.069967 -0.011923 0.000000 -0.063121 -0.011388 0.000000 -0.064123 -0.012070 0.000000 -0.056516 -0.011607 0.000000 -0.058085 -0.012245 0.000000 -0.049747 -0.011869 0.000000 -0.051822 -0.012452 0.000000 -0.042793 -0.012176 0.000000 -0.045304 -0.012691 0.000000 -0.035631 -0.012527 0.000000 -0.038503 -0.012961 0.000000 -0.028245 -0.012917 0.000000 -0.031397 -0.013255 0.000000 -0.020619 -0.013338 0.000000 -0.023966 -0.013566 0.000000 -0.012746 -0.013779 0.000000 -0.016201 -0.013885 0.000000 -0.004623 -0.014229 0.000000 -0.008099 -0.014203 0.000000 0.003748 -0.014674 0.000000 0.000336 -0.014507 0.000000 0.012357 -0.015100 0.000000 0.009089 -0.014786 0.000000 0.021186 -0.015491 0.000000 0.018138 -0.015027 0.000000 0.030212 -0.015831 0.000000 0.027451 -0.015215 0.000000 0.039402 -0.016102 0.000000 0.036987 -0.015336 0.000000 0.048717 -0.016286 0.000000 0.046695 -0.015371 0.000000 0.058105 -0.016364 0.000000 
0.074722 -0.018730 0.000000 0.083283 -0.019620 0.000000 0.085765 -0.018601 0.000000 0.093519 -0.019508 0.000000 0.096702 -0.018302 0.000000 0.103558 -0.019197 0.000000 0.107419 -0.017806 0.000000 0.113288 -0.018659 0.000000 0.117782 -0.017084 0.000000 0.122582 -0.017863 0.000000 0.127644 -0.016104 0.000000 0.131293 -0.016778 0.000000 0.136833 -0.014835 0.000000 0.139257 -0.015372 0.000000 0.145160 -0.013243 0.000000 0.146289 -0.013612 0.000000 0.152417 -0.011297 0.000000 0.152186 -0.011470 0.000000 0.158378 -0.008969 0.000000 0.156727 -0.008922 0.000000 0.162802 -0.006237 0.000000 0.159681 -0.005954 0.000000 0.165438 -0.003092 0.000000 0.160805 -0.002564 0.000000 0.166036 0.000461 0.000000 0.159863 0.001228 0.000000 0.164356 0.004395 0.000000 0.156631 0.005383 0.000000 0.160181 0.008657 0.000000 0.150916 0.009828 0.000000 0.153339 0.013164 0.000000 0.142573 0.014464 0.000000 0.143721 0.017800 0.000000 0.131526 0.019157 0.000000 0.131300 0.022419 0.000000 0.117789 0.023745 0.000000 0.116148 0.026848 0.000000 0.101479 0.028047 0.000000 0.098453 0.030897 0.000000 0.082827 0.031873 0.000000 0.078520 0.034376 0.000000 0.062182 0.035036 0.000000 0.056770 0.037105 0.000000 0.040004 0.037372 0.000000 0.033726 0.038933 0.000000 0.016841 0.038757 0.000000 0.009987 0.039755 0.000000 -0.006693 0.039114 0.000000 -0.013805 0.039521 0.000000 -0.029958 0.038428 0.000000 -0.037002 0.038243 0.000000 -0.052323 0.036744 0.000000 -0.058989 0.035996 0.000000 -0.073207 0.034168 0.000000 -0.079224 0.032907 0.000000 -0.092112 0.030852 0.000000 -0.097261 0.029151 0.000000 -0.108649 0.026983 0.000000 -0.112780 0.024927 0.000000 -0.122554 0.022764 0.000000 -0.125588 0.020442 0.000000 -0.133693 0.018399 0.000000 -0.135621 0.015900 0.000000 -0.142056 0.014075 0.000000 -0.142932 0.011479 0.000000 -0.147740 0.009950 0.000000 -0.147669 0.007326 0.000000 -0.150930 0.006147 0.000000 -0.150058 0.003551 0.000000 -0.151874 0.002752 0.000000 -0.150368 0.000222 0.000000 -0.150858 -0.000192 0.000000 -0.148897 -0.002628 0.000000 -0.148184 -0.002670 0.000000 -0.145943 -0.005001 0.000000 -0.144149 -0.004701 0.000000 -0.141795 -0.006920 0.000000 -0.139030 -0.006320 0.000000 -0.136711 -0.008432 0.000000 -0.133078 -0.007578 0.000000 -0.130920 -0.009591 0.000000 -0.126506 -0.008534 0.000000 -0.124613 -0.010459 0.000000 -0.119491 -0.009248 0.000000 -0.117942 -0.011098 0.000000 -0.112171 -0.009779 0.000000 -0.111022 -0.011567 0.000000 -0.104650 -0.010182 0.000000 -0.103938 -0.011917 0.000000 -0.097000 -0.010505 0.000000 -0.096741 -0.012196 0.000000 -0.089264 -0.010790 0.000000 -0.089460 -0.012441 0.000000 -0.081464 -0.011070 0.000000 -0.082101 -0.012681 0.000000 -0.073605 -0.011371 0.000000 -0.074656 -0.012939 0.000000 -0.065677 -0.011712 0.000000 -0.067103 -0.013228 0.000000 -0.057661 -0.012104 0.000000 -0.059412 -0.013557 0.000000 -0.049534 -0.012554 0.000000 -0.051550 -0.013928 0.000000 -0.041269 -0.013062 0.000000 -0.043482 -0.014340 0.000000 -0.032841 -0.013623 0.000000 -0.035174 -0.014786 0.000000 -0.024228 -0.014230 0.000000 -0.026597 -0.015259 0.000000 -0.015410 -0.014871 0.000000 -0.017728 -0.015748 0.000000 -0.006375 -0.015532 0.000000 -0.008551 -0.016243 0.000000 0.002884 -0.016199 0.000000 0.000940 -0.016732 0.000000 0.012367 -0.016855 0.000000 0.010745 -0.017200 0.000000 0.022067 -0.017483 0.000000 0.020851 -0.017634 0.000000 0.031967 -0.018066 0.000000 0.031235 -0.018019 0.000000 0.042043 -0.018584 0.000000 0.041865 -0.018339 0.000000 0.052262 -0.019020 0.000000 0.052696 -0.018578 0.000000 0.062580 -0.019352 0.000000 0.063671 -0.018715 0.000000 0.072943 -0.019560 0.000000 
0.056451 -0.025644 0.000000 0.067636 -0.027358 0.000000 0.066476 -0.025350 0.000000 0.077148 -0.027052 0.000000 0.076479 -0.024816 0.000000 0.086546 -0.026458 0.000000 0.086362 -0.024003 0.000000 0.095731 -0.025532 0.000000 0.096014 -0.022868 0.000000 0.104595 -0.024230 0.000000 0.105307 -0.021367 0.000000 0.113009 -0.022504 0.000000 0.114098 -0.019454 0.000000 0.120830 -0.020307 0.000000 0.122225 -0.017083 0.000000 0.127893 -0.017594 0.000000 0.129508 -0.014211 0.000000 0.134018 -0.014326 0.000000 0.135749 -0.010800 0.000000 0.139005 -0.010470 0.000000 0.140734 -0.006822 0.000000 0.142639 -0.006011 0.000000 0.144235 -0.002268 0.000000 0.144692 -0.000953 0.000000 0.146019 0.002852 0.000000 0.144935 0.004672 0.000000 0.145853 0.008493 0.000000 0.143144 0.010796 0.000000 0.143522 0.014577 0.000000 0.139118 0.017308 0.000000 0.138842 0.020979 0.000000 0.132693 0.024052 0.000000 0.131678 0.027531 0.000000 0.123768 0.030829 0.000000 0.121967 0.034019 0.000000 0.112319 0.037399 0.000000 0.109736 0.040196 0.000000 0.098422 0.043494 0.000000 0.095117 0.045792 0.000000 0.082261 0.048837 0.000000 0.078355 0.050536 0.000000 0.064139 0.053161 0.000000 0.059809 0.054176 0.000000 0.044467 0.056234 0.000000 0.039939 0.056504 0.000000 0.023749 0.057881 0.000000 0.019283 0.057375 0.000000 0.002559 0.058003 0.000000 -0.001571 0.056726 0.000000 -0.018499 0.056590 0.000000 -0.022025 0.054584 0.000000 -0.038826 0.053719 0.000000 -0.041507 0.051062 0.000000 -0.057870 0.049554 0.000000 -0.059512 0.046351 0.000000 -0.075155 0.044327 0.000000 -0.075627 0.040704 0.000000 -0.090315 0.038315 0.000000 -0.089556 0.034411 0.000000 -0.103104 0.031823 0.000000 -0.101123 0.027772 0.000000 -0.113400 0.025149 0.000000 -0.110275 0.021078 0.000000 -0.121202 0.018568 0.000000 -0.117067 0.014585 0.000000 -0.126611 0.012312 0.000000 -0.121643 0.008504 0.000000 -0.129807 0.006560 0.000000 -0.124213 0.002989 0.000000 -0.131028 0.001436 0.000000 -0.125028 -0.001861 0.000000 -0.130545 -0.002996 0.000000 -0.124355 -0.006003 0.000000 -0.128636 -0.006719 0.000000 -0.122462 -0.009437 0.000000 -0.125573 -0.009755 0.000000 -0.119598 -0.012202 0.000000 -0.121604 -0.012160 0.000000 -0.115988 -0.014360 0.000000 -0.116948 -0.014009 0.000000 -0.111822 -0.015992 0.000000 -0.111789 -0.015385 0.000000 -0.107253 -0.017186 0.000000 -0.106272 -0.016379 0.000000 -0.102400 -0.018030 0.000000 -0.100509 -0.017078 0.000000 -0.097350 -0.018608 0.000000 -0.094578 -0.017563 0.000000 -0.092158 -0.018998 0.000000 -0.088529 -0.017905 0.000000 -0.086856 -0.019267 0.000000 -0.082387 -0.018168 0.000000 -0.081454 -0.019471 0.000000 -0.076160 -0.018403 0.000000 -0.075944 -0.019654 0.000000 -0.069840 -0.018650 0.000000 -0.070308 -0.019852 0.000000 -0.063410 -0.018942 0.000000 -0.064516 -0.020086 0.000000 -0.056845 -0.019298 0.000000 -0.058535 -0.020372 0.000000 -0.050118 -0.019731 0.000000 -0.052330 -0.020716 0.000000 -0.043204 -0.020244 0.000000 -0.045865 -0.021119 0.000000 -0.036078 -0.020835 0.000000 -0.039110 -0.021574 0.000000 -0.028718 -0.021493 0.000000 -0.032038 -0.022072 0.000000 -0.021109 -0.022206 0.000000 -0.024628 -0.022601 0.000000 -0.013242 -0.022956 0.000000 -0.016868 -0.023145 0.000000 -0.005111 -0.023721 0.000000 -0.008755 -0.023686 0.000000 0.003280 -0.024479 0.000000 -0.000292 -0.024207 0.000000 0.011922 -0.025206 0.000000 0.008507 -0.024686 0.000000 0.020801 -0.025875 0.000000 0.017620 -0.025104 0.000000 0.029891 -0.026460 0.000000 0.027016 -0.025435 0.000000 0.039164 -0.026933 0.000000 0.036655 -0.025654 0.000000 0.048579 -0.027262 0.000000 0.046487 -0.025734 0.000000 0.058089 -0.027415 0.000000 
0.074779 -0.028276 0.000000 0.083576 -0.029645 0.000000 0.086071 -0.028113 0.000000 0.094053 -0.029510 0.000000 0.097296 -0.027699 0.000000 0.104371 -0.029080 0.000000 0.108344 -0.026992 0.000000 0.114423 -0.028311 0.000000 0.119085 -0.025947 0.000000 0.124083 -0.027157 0.000000 0.129370 -0.024518 0.000000 0.133206 -0.025570 0.000000 0.139029 -0.022655 0.000000 0.141628 -0.023499 0.000000 0.147872 -0.020306 0.000000 0.149161 -0.020895 0.000000 0.155686 -0.017422 0.000000 0.155597 -0.017711 0.000000 0.162234 -0.013956 0.000000 0.160704 -0.013907 0.000000 0.167261 -0.009871 0.000000 0.164235 -0.009455 0.000000 0.170497 -0.005146 0.000000 0.165925 -0.004348 0.000000 0.171661 0.000218 0.000000 0.165505 0.001394 0.000000 0.170479 0.006186 0.000000 0.162715 0.007713 0.000000 0.166692 0.012684 0.000000 0.157318 0.014509 0.000000 0.160084 0.019589 0.000000 0.149124 0.021628 0.000000 0.150498 0.026726 0.000000 0.138014 0.028867 0.000000 0.137870 0.033868 0.000000 0.123966 0.035976 0.000000 0.122244 0.040745 0.000000 0.107075 0.042666 0.000000 0.103796 0.047058 0.000000 0.087571 0.048634 0.000000 0.082844 0.052498 0.000000 0.065822 0.053582 0.000000 0.059843 0.056777 0.000000 0.042331 0.057243 0.000000 0.035373 0.059650 0.000000 0.017712 0.059413 0.000000 0.010109 0.060945 0.000000 -0.007342 0.059968 0.000000 -0.015219 0.060579 0.000000 -0.032101 0.058881 0.000000 -0.039873 0.058570 0.000000 -0.055846 0.056227 0.000000 -0.063155 0.055039 0.000000 -0.077918 0.052173 0.000000 -0.084452 0.050193 0.000000 -0.097759 0.046968 0.000000 -0.103273 0.044311 0.000000 -0.114943 0.040911 0.000000 -0.119273 0.037715 0.000000 -0.129193 0.034331 0.000000 -0.132263 0.030739 0.000000 -0.140387 0.027551 0.000000 -0.142203 0.023702 0.000000 -0.148548 0.020867 0.000000 -0.149188 0.016887 0.000000 -0.153820 0.014526 0.000000 -0.153421 0.010522 0.000000 -0.156444 0.008718 0.000000 -0.155182 0.004772 0.000000 -0.156724 0.003566 0.000000 -0.154800 -0.000261 0.000000 -0.155000 -0.000865 0.000000 -0.152619 -0.004537 0.000000 -0.151618 -0.004564 0.000000 -0.148980 -0.008064 0.000000 -0.146913 -0.007564 0.000000 -0.144200 -0.010889 0.000000 -0.141188 -0.009930 0.000000 -0.138559 -0.013088 0.000000 -0.134710 -0.011745 0.000000 -0.132297 -0.014751 0.000000 -0.127700 -0.013103 0.000000 -0.125607 -0.015976 0.000000 -0.120335 -0.014100 0.000000 -0.118640 -0.016861 0.000000 -0.112750 -0.014829 0.000000 -0.111507 -0.017498 0.000000 -0.105040 -0.015373 0.000000 -0.104280 -0.017967 0.000000 -0.097269 -0.015807 0.000000 -0.097004 -0.018338 0.000000 -0.089467 -0.016193 0.000000 -0.089695 -0.018668 0.000000 -0.081648 -0.016580 0.000000 -0.082349 -0.019001 0.000000 -0.073802 -0.017008 0.000000 -0.074948 -0.019369 0.000000 -0.065911 -0.017504 0.000000 -0.067459 -0.019793 0.000000 -0.057947 -0.018085 0.000000 -0.059845 -0.020283 0.000000 -0.049878 -0.018759 0.000000 -0.052063 -0.020842 0.000000 -0.041671 -0.019526 0.000000 -0.044072 -0.021466 0.000000 -0.033296 -0.020378 0.000000 -0.035832 -0.022146 0.000000 -0.024726 -0.021303 0.000000 -0.027310 -0.022867 0.000000 -0.015939 -0.022281 0.000000 -0.018477 -0.023616 0.000000 -0.006919 -0.023292 0.000000 -0.009316 -0.024374 0.000000 0.002343 -0.024313 0.000000 0.000182 -0.025123 0.000000 0.011847 -0.025318 0.000000 0.010018 -0.025842 0.000000 0.021587 -0.026282 0.000000 0.020181 -0.026512 0.000000 0.031550 -0.027179 0.000000 0.030650 -0.027110 0.000000 0.041712 -0.027980 0.000000 0.041392 -0.027612 0.000000 0.052043 -0.028659 0.000000 0.052366 -0.027993 0.000000 0.062501 -0.029184 0.000000 0.063518 -0.028225 0.000000 0.073033 -0.029524 0.000000 
0.056330 -0.036187 0.000000 0.067799 -0.038649 0.000000 0.066611 -0.035826 0.000000 0.077563 -0.038278 0.000000 0.076910 -0.035134 0.000000 0.087253 -0.037506 0.000000 0.087131 -0.034055 0.000000 0.096776 -0.036273 0.000000 0.097168 -0.032528 0.000000 0.106024 -0.034515 0.000000 0.106894 -0.030490 0.000000 0.114873 -0.032163 0.000000 0.116169 -0.027875 0.000000 0.123179 -0.029150 0.000000 0.124829 -0.024616 0.000000 0.130778 -0.025408 0.000000 0.132693 -0.020646 0.000000 0.137485 -0.020874 0.000000 0.139554 -0.015907 0.000000 0.143090 -0.015498 0.000000 0.145186 -0.010353 0.000000 0.147364 -0.009247 0.000000 0.149342 -0.003958 0.000000 0.150056 -0.002117 0.000000 0.151760 0.003271 0.000000 0.150903 0.005855 0.000000 0.152173 0.011284 0.000000 0.149642 0.014583 0.000000 0.150318 0.019974 0.000000 0.146023 0.023916 0.000000 0.145962 0.029173 0.000000 0.139830 0.033638 0.000000 0.138917 0.038640 0.000000 0.130910 0.043458 0.000000 0.129076 0.048067 0.000000 0.119196 0.053025 0.000000 0.116427 0.057086 0.000000 0.104734 0.061942 0.000000 0.101085 0.065296 0.000000 0.087702 0.069789 0.000000 0.083303 0.072285 0.000000 0.068418 0.076162 0.000000 0.063471 0.077667 0.000000 0.047340 0.080703 0.000000 0.042109 0.081123 0.000000 0.025044 0.083145 0.000000 0.019838 0.082428 0.000000 0.002193 0.083332 0.000000 -0.002658 0.081485 0.000000 -0.020507 0.081244 0.000000 -0.024679 0.078329 0.000000 -0.042358 0.077001 0.000000 -0.045560 0.073134 0.000000 -0.062715 0.070851 0.000000 -0.064717 0.066192 0.000000 -0.081036 0.063148 0.000000 -0.081684 0.057888 0.000000 -0.096911 0.054316 0.000000 -0.096136 0.048661 0.000000 -0.110080 0.044813 0.000000 -0.107903 0.038967 0.000000 -0.120437 0.035089 0.000000 -0.116959 0.029239 0.000000 -0.128017 0.025553 0.000000 -0.123408 0.019857 0.000000 -0.132975 0.016545 0.000000 -0.127452 0.011128 0.000000 -0.135556 0.008322 0.000000 -0.129365 0.003269 0.000000 -0.136062 0.001053 0.000000 -0.129458 -0.003586 0.000000 -0.134821 -0.005177 0.000000 -0.128054 -0.009385 0.000000 -0.132163 -0.010357 0.000000 -0.125462 -0.014143 0.000000 -0.128398 -0.014536 0.000000 -0.121964 -0.017927 0.000000 -0.123803 -0.017801 0.000000 -0.117803 -0.020839 0.000000 -0.118611 -0.020271 0.000000 -0.113180 -0.023003 0.000000 -0.113015 -0.022075 0.000000 -0.108250 -0.024551 0.000000 -0.107158 -0.023346 0.000000 -0.103129 -0.025614 0.000000 -0.101146 -0.024212 0.000000 -0.097894 -0.026317 0.000000 -0.095047 -0.024789 0.000000 -0.092592 -0.026770 0.000000 -0.088900 -0.025181 0.000000 -0.087242 -0.027068 0.000000 -0.082718 -0.025477 0.000000 -0.081841 -0.027291 0.000000 -0.076494 -0.025748 0.000000 -0.076372 -0.027500 0.000000 -0.070209 -0.026052 0.000000 -0.070804 -0.027743 0.000000 -0.063834 -0.026431 0.000000 -0.065097 -0.028050 0.000000 -0.057335 -0.026912 0.000000 -0.059209 -0.028441 0.000000 -0.050678 -0.027512 0.000000 -0.053097 -0.028923 0.000000 -0.043828 -0.028235 0.000000 -0.046718 -0.029494 0.000000 -0.036757 -0.029074 0.000000 -0.040034 -0.030145 0.000000 -0.029440 -0.030016 0.000000 -0.033016 -0.030860 0.000000 -0.021858 -0.031039 0.000000 -0.025639 -0.031621 0.000000 -0.014000 -0.032117 0.000000 -0.017889 -0.032406 0.000000 -0.005860 -0.033220 0.000000 -0.009760 -0.033190 0.000000 0.002560 -0.034315 0.000000 -0.001256 -0.033947 0.000000 0.011253 -0.035368 0.000000 0.007611 -0.034649 0.000000 0.020203 -0.036344 0.000000 0.016818 -0.035266 0.000000 0.029389 -0.037203 0.000000 0.026338 -0.035765 0.000000 0.038783 -0.037907 0.000000 0.036130 -0.036112 0.000000 0.048348 -0.038413 0.000000 0.046147 -0.036266 0.000000 0.058038 -0.038677 0.000000 