# vtk DataFile Version 2.0
Comment goes here
ASCII

DATASET STRUCTURED_POINTS
FIELD FieldData 1
TIME 1 1 double
0.23000000
DIMENSIONS    128   128   1

ORIGIN    0.000   0.000   0.000
SPACING   0.039062 0.039062   1.000

POINT_DATA   16384
VECTORS u double

-0.071072 -0.000000 0.000000 -0.059641 -0.000000 0.000000 -0.047282 -0.000000 0.000000 -0.035371 -0.000000 0.000000 -0.022588 -0.000000 0.000000 -0.010388 -0.000000 0.000000 0.002621 -0.000000 0.000000 0.014909 -0.000000 0.000000 0.027933 -0.000000 0.000000 0.040099 -0.000000 0.000000 0.052923 -0.000000 0.000000 0.064756 -0.000000 0.000000 0.077165 -0.000000 0.000000 0.088455 -0.000000 0.000000 0.100237 -0.000000 0.000000 0.110785 -0.000000 0.000000 0.121743 -0.000000 0.000000 0.131364 -0.000000 0.000000 0.141318 -0.000000 0.000000 0.149851 -0.000000 0.000000 0.158646 -0.000000 0.000000 0.165958 -0.000000 0.000000 0.173469 -0.000000 0.000000 0.179458 -0.000000 0.000000 0.185596 -0.000000 0.000000 0.190199 -0.000000 0.000000 0.194910 -0.000000 0.000000 0.198101 -0.000000 0.000000 0.201370 -0.000000 0.000000 0.203159 -0.000000 0.000000 0.205009 -0.000000 0.000000 0.205444 -0.000000 0.000000 0.205930 -0.000000 0.000000 0.205091 -0.000000 0.000000 0.204298 -0.000000 0.000000 0.202291 -0.000000 0.000000 0.200329 -0.000000 0.000000 0.197279 -0.000000 0.000000 0.194275 -0.000000 0.000000 0.190321 -0.000000 0.000000 0.186413 -0.000000 0.000000 0.181701 -0.000000 0.000000 0.177029 -0.000000 0.000000 0.171705 -0.000000 0.000000 0.166408 -0.000000 0.000000 0.160611 -0.000000 0.000000 0.154820 -0.000000 0.000000 0.148678 -0.000000 0.000000 0.142512 -0.000000 0.000000 0.136139 -0.000000 0.000000 0.129700 -0.000000 0.000000 0.123193 -0.000000 0.000000 0.116567 -0.000000 0.000000 0.110003 -0.000000 0.000000 0.103256 -0.000000 0.000000 0.096695 -0.000000 0.000000 0.089875 -0.000000 0.000000 0.083357 -0.000000 0.000000 0.076495 -0.000000 0.000000 0.070044 -0.000000 0.000000 0.063158 -0.000000 0.000000 0.056783 -0.000000 0.000000 0.049876 -0.000000 0.000000 0.043574 -0.000000 0.000000 0.036642 -0.000000 0.000000 0.030402 -0.000000 0.000000 0.023433 -0.000000 0.000000 0.017239 -0.000000 0.000000 0.010219 -0.000000 0.000000 0.004050 -0.000000 0.000000 -0.003033 -0.000000 0.000000 -0.009197 -0.000000 0.000000 -0.016353 -0.000000 0.000000 -0.022530 -0.000000 0.000000 -0.029762 -0.000000 0.000000 -0.035963 -0.000000 0.000000 -0.043268 -0.000000 0.000000 -0.049499 -0.000000 0.000000 -0.056863 -0.000000 0.000000 -0.063121 -0.000000 0.000000 -0.070519 -0.000000 0.000000 -0.076792 -0.000000 0.000000 -0.084187 -0.000000 0.000000 -0.090452 -0.000000 0.000000 -0.097798 -0.000000 0.000000 -0.104018 -0.000000 0.000000 -0.111255 -0.000000 0.000000 -0.117383 -0.000000 0.000000 -0.124440 -0.000000 0.000000 -0.130415 -0.000000 0.000000 -0.137211 -0.000000 0.000000 -0.142960 -0.000000 0.000000 -0.149402 -0.000000 0.000000 -0.154839 -0.000000 0.000000 -0.160827 -0.000000 0.000000 -0.165857 -0.000000 0.000000 -0.171283 -0.000000 0.000000 -0.175802 -0.000000 0.000000 -0.180555 -0.000000 0.000000 -0.184452 -0.000000 0.000000 -0.188419 -0.000000 0.000000 -0.191583 -0.000000 0.000000 -0.194654 -0.000000 0.000000 -0.196975 -0.000000 0.000000 -0.199045 -0.000000 0.000000 -0.200417 -0.000000 0.000000 -0.201392 -0.000000 0.000000 -0.201724 -0.000000 0.000000 -0.201522 -0.000000 0.000000 -0.200733 -0.000000 0.000000 -0.199290 -0.000000 0.000000 -0.197321 -0.000000 0.000000 -0.194592 -0.000000 0.000000 -0.191402 -0.000000 0.000000 -0.187366 -0.000000 0.000000 -0.182939 -0.000000 0.000000 -0.177596 -0.000000 0.000000 -0.171940 -0.000000 0.000000 -0.165318 -0.000000 0.000000 -0.158468 -0.000000 0.000000 -0.150618 -0.000000 0.000000 -0.142633 -0.000000 0.000000 -0.133632 -0.000000 0.000000 -0.124598 -0.000000 0.000000 -0.114549 -0.000000 0.000000 -0.104575 -0.000000 0.000000 -0.093602 -0.000000 0.000000 -0.082822 -0.000000 0.000000 
-0.071073 -0.011591 0.000000 -0.059611 -0.011895 0.000000 -0.047222 -0.012135 0.000000 -0.035280 -0.012347 0.000000 -0.022464 -0.012492 0.000000 -0.010232 -0.012604 0.000000 0.002811 -0.012648 0.000000 0.015131 -0.012656 0.000000 0.028190 -0.012595 0.000000 0.040389 -0.012495 0.000000 0.053248 -0.012329 0.000000 0.065113 -0.012121 0.000000 0.077555 -0.011849 0.000000 0.088875 -0.011536 0.000000 0.100690 -0.011165 0.000000 0.111265 -0.010753 0.000000 0.122252 -0.010290 0.000000 0.131897 -0.009788 0.000000 0.141877 -0.009244 0.000000 0.150429 -0.008664 0.000000 0.159245 -0.008053 0.000000 0.166571 -0.007412 0.000000 0.174098 -0.006750 0.000000 0.180096 -0.006064 0.000000 0.186244 -0.005370 0.000000 0.190849 -0.004657 0.000000 0.195564 -0.003951 0.000000 0.198751 -0.003230 0.000000 0.202017 -0.002529 0.000000 0.203797 -0.001819 0.000000 0.205637 -0.001143 0.000000 0.206059 -0.000461 0.000000 0.206529 0.000177 0.000000 0.205671 0.000816 0.000000 0.204857 0.001400 0.000000 0.202827 0.001985 0.000000 0.200840 0.002506 0.000000 0.197763 0.003027 0.000000 0.194730 0.003479 0.000000 0.190748 0.003931 0.000000 0.186807 0.004310 0.000000 0.182065 0.004692 0.000000 0.177359 0.004998 0.000000 0.172004 0.005310 0.000000 0.166671 0.005547 0.000000 0.160844 0.005794 0.000000 0.155017 0.005966 0.000000 0.148846 0.006154 0.000000 0.142643 0.006269 0.000000 0.136243 0.006406 0.000000 0.129769 0.006473 0.000000 0.123236 0.006567 0.000000 0.116576 0.006595 0.000000 0.109988 0.006656 0.000000 0.103209 0.006654 0.000000 0.096626 0.006691 0.000000 0.089777 0.006669 0.000000 0.083239 0.006690 0.000000 0.076352 0.006656 0.000000 0.069883 0.006669 0.000000 0.062974 0.006631 0.000000 0.056583 0.006641 0.000000 0.049657 0.006604 0.000000 0.043341 0.006617 0.000000 0.036392 0.006586 0.000000 0.030140 0.006604 0.000000 0.023158 0.006582 0.000000 0.016953 0.006607 0.000000 0.009923 0.006594 0.000000 0.003744 0.006626 0.000000 -0.003346 0.006624 0.000000 -0.009518 0.006660 0.000000 -0.016679 0.006666 0.000000 -0.022863 0.006704 0.000000 -0.030097 0.006717 0.000000 -0.036305 0.006753 0.000000 -0.043610 0.006768 0.000000 -0.049846 0.006797 0.000000 -0.057208 0.006811 0.000000 -0.063471 0.006828 0.000000 -0.070866 0.006835 0.000000 -0.077143 0.006834 0.000000 -0.084535 0.006830 0.000000 -0.090803 0.006805 0.000000 -0.098145 0.006783 0.000000 -0.104368 0.006729 0.000000 -0.111601 0.006683 0.000000 -0.117731 0.006593 0.000000 -0.124784 0.006516 0.000000 -0.130762 0.006385 0.000000 -0.137554 0.006272 0.000000 -0.143305 0.006095 0.000000 -0.149744 0.005940 0.000000 -0.155183 0.005713 0.000000 -0.161168 0.005509 0.000000 -0.166200 0.005228 0.000000 -0.171625 0.004972 0.000000 -0.176145 0.004636 0.000000 -0.180897 0.004325 0.000000 -0.184795 0.003932 0.000000 -0.188762 0.003566 0.000000 -0.191925 0.003117 0.000000 -0.194997 0.002696 0.000000 -0.197315 0.002195 0.000000 -0.199385 0.001721 0.000000 -0.200755 0.001174 0.000000 -0.201729 0.000653 0.000000 -0.202055 0.000065 0.000000 -0.201851 -0.000495 0.000000 -0.201056 -0.001116 0.000000 -0.199609 -0.001706 0.000000 -0.197631 -0.002349 0.000000 -0.194897 -0.002959 0.000000 -0.191695 -0.003613 0.000000 -0.187651 -0.004232 0.000000 -0.183210 -0.004885 0.000000 -0.177856 -0.005499 0.000000 -0.172185 -0.006139 0.000000 -0.165549 -0.006736 0.000000 -0.158680 -0.007350 0.000000 -0.150813 -0.007917 0.000000 -0.142807 -0.008493 0.000000 -0.133787 -0.009017 0.000000 -0.124729 -0.009542 0.000000 -0.114657 -0.010012 0.000000 -0.104658 -0.010473 0.000000 -0.093658 -0.010877 0.000000 -0.082851 -0.011265 0.000000 
-0.071703 -0.023240 0.000000 -0.060185 -0.023851 0.000000 -0.047734 -0.024331 0.000000 -0.035729 -0.024758 0.000000 -0.022846 -0.025048 0.000000 -0.010545 -0.025275 0.000000 0.002568 -0.025363 0.000000 0.014961 -0.025380 0.000000 0.028093 -0.025258 0.000000 0.040366 -0.025058 0.000000 0.053298 -0.024724 0.000000 0.065235 -0.024307 0.000000 0.077749 -0.023762 0.000000 0.089139 -0.023135 0.000000 0.101020 -0.022389 0.000000 0.111660 -0.021562 0.000000 0.122707 -0.020632 0.000000 0.132410 -0.019625 0.000000 0.142441 -0.018532 0.000000 0.151041 -0.017369 0.000000 0.159898 -0.016142 0.000000 0.167260 -0.014853 0.000000 0.174817 -0.013525 0.000000 0.180838 -0.012145 0.000000 0.187003 -0.010753 0.000000 0.191618 -0.009320 0.000000 0.196337 -0.007902 0.000000 0.199522 -0.006453 0.000000 0.202780 -0.005047 0.000000 0.204546 -0.003620 0.000000 0.206367 -0.002261 0.000000 0.206763 -0.000891 0.000000 0.207206 0.000388 0.000000 0.206314 0.001671 0.000000 0.205467 0.002844 0.000000 0.203396 0.004018 0.000000 0.201371 0.005064 0.000000 0.198251 0.006110 0.000000 0.195179 0.007016 0.000000 0.191152 0.007923 0.000000 0.187173 0.008683 0.000000 0.182388 0.009448 0.000000 0.177647 0.010061 0.000000 0.172253 0.010687 0.000000 0.166891 0.011160 0.000000 0.161029 0.011655 0.000000 0.155179 0.011998 0.000000 0.148980 0.012373 0.000000 0.142763 0.012603 0.000000 0.136341 0.012875 0.000000 0.129860 0.013007 0.000000 0.123314 0.013193 0.000000 0.116654 0.013248 0.000000 0.110061 0.013366 0.000000 0.103289 0.013362 0.000000 0.096708 0.013432 0.000000 0.089872 0.013387 0.000000 0.083342 0.013425 0.000000 0.076472 0.013356 0.000000 0.070016 0.013378 0.000000 0.063127 0.013300 0.000000 0.056754 0.013317 0.000000 0.049849 0.013242 0.000000 0.043553 0.013264 0.000000 0.036626 0.013201 0.000000 0.030396 0.013234 0.000000 0.023433 0.013188 0.000000 0.017249 0.013235 0.000000 0.010235 0.013209 0.000000 0.004076 0.013269 0.000000 -0.003002 0.013263 0.000000 -0.009158 0.013333 0.000000 -0.016312 0.013344 0.000000 -0.022482 0.013418 0.000000 -0.029717 0.013442 0.000000 -0.035915 0.013512 0.000000 -0.043227 0.013542 0.000000 -0.049460 0.013599 0.000000 -0.056835 0.013625 0.000000 -0.063100 0.013658 0.000000 -0.070515 0.013672 0.000000 -0.076801 0.013669 0.000000 -0.084220 0.013660 0.000000 -0.090502 0.013610 0.000000 -0.097878 0.013565 0.000000 -0.104122 0.013456 0.000000 -0.111394 0.013363 0.000000 -0.117553 0.013184 0.000000 -0.124651 0.013031 0.000000 -0.130663 0.012769 0.000000 -0.137504 0.012543 0.000000 -0.143296 0.012190 0.000000 -0.149788 0.011878 0.000000 -0.155273 0.011425 0.000000 -0.161314 0.011017 0.000000 -0.166397 0.010457 0.000000 -0.171878 0.009945 0.000000 -0.176452 0.009272 0.000000 -0.181261 0.008650 0.000000 -0.185214 0.007865 0.000000 -0.189237 0.007131 0.000000 -0.192456 0.006235 0.000000 -0.195579 0.005390 0.000000 -0.197951 0.004389 0.000000 -0.200069 0.003440 0.000000 -0.201488 0.002343 0.000000 -0.202503 0.001301 0.000000 -0.202874 0.000123 0.000000 -0.202704 -0.000999 0.000000 -0.201946 -0.002242 0.000000 -0.200525 -0.003425 0.000000 -0.198575 -0.004713 0.000000 -0.195858 -0.005936 0.000000 -0.192676 -0.007246 0.000000 -0.188639 -0.008485 0.000000 -0.184207 -0.009794 0.000000 -0.178851 -0.011025 0.000000 -0.173178 -0.012308 0.000000 -0.166530 -0.013505 0.000000 -0.159650 -0.014736 0.000000 -0.151761 -0.015873 0.000000 -0.143734 -0.017026 0.000000 -0.134682 -0.018078 0.000000 -0.125593 -0.019130 0.000000 -0.115481 -0.020072 0.000000 -0.105441 -0.020998 0.000000 -0.094394 -0.021807 0.000000 -0.083537 -0.022586 0.000000 
-0.072339 -0.034943 0.000000 -0.060704 -0.035865 0.000000 -0.048129 -0.036591 0.000000 -0.035998 -0.037235 0.000000 -0.022982 -0.037675 0.000000 -0.010548 -0.038018 0.000000 0.002705 -0.038154 0.000000 0.015235 -0.038180 0.000000 0.028511 -0.038000 0.000000 0.040923 -0.037700 0.000000 0.053998 -0.037198 0.000000 0.066073 -0.036572 0.000000 0.078726 -0.035753 0.000000 0.090247 -0.034808 0.000000 0.102261 -0.033686 0.000000 0.113021 -0.032440 0.000000 0.124189 -0.031039 0.000000 0.133996 -0.029521 0.000000 0.144132 -0.027875 0.000000 0.152818 -0.026121 0.000000 0.161760 -0.024272 0.000000 0.169187 -0.022330 0.000000 0.176805 -0.020328 0.000000 0.182867 -0.018249 0.000000 0.189069 -0.016151 0.000000 0.193700 -0.013991 0.000000 0.198430 -0.011854 0.000000 0.201605 -0.009673 0.000000 0.204849 -0.007553 0.000000 0.206582 -0.005406 0.000000 0.208366 -0.003360 0.000000 0.208707 -0.001300 0.000000 0.209091 0.000625 0.000000 0.208127 0.002555 0.000000 0.207203 0.004318 0.000000 0.205046 0.006080 0.000000 0.202931 0.007651 0.000000 0.199714 0.009219 0.000000 0.196543 0.010578 0.000000 0.192414 0.011937 0.000000 0.188330 0.013074 0.000000 0.183442 0.014218 0.000000 0.178596 0.015134 0.000000 0.173101 0.016067 0.000000 0.167637 0.016771 0.000000 0.161680 0.017506 0.000000 0.155733 0.018015 0.000000 0.149448 0.018571 0.000000 0.143142 0.018908 0.000000 0.136644 0.019309 0.000000 0.130084 0.019500 0.000000 0.123473 0.019773 0.000000 0.116745 0.019848 0.000000 0.110099 0.020020 0.000000 0.103270 0.020007 0.000000 0.096647 0.020108 0.000000 0.089766 0.020035 0.000000 0.083204 0.020089 0.000000 0.076300 0.019982 0.000000 0.069822 0.020013 0.000000 0.062908 0.019893 0.000000 0.056520 0.019919 0.000000 0.049598 0.019805 0.000000 0.043294 0.019840 0.000000 0.036356 0.019744 0.000000 0.030122 0.019798 0.000000 0.023153 0.019729 0.000000 0.016968 0.019804 0.000000 0.009952 0.019767 0.000000 0.003793 0.019864 0.000000 -0.003288 0.019857 0.000000 -0.009443 0.019970 0.000000 -0.016599 0.019991 0.000000 -0.022771 0.020109 0.000000 -0.030009 0.020150 0.000000 -0.036211 0.020263 0.000000 -0.043530 0.020313 0.000000 -0.049769 0.020406 0.000000 -0.057155 0.020452 0.000000 -0.063431 0.020508 0.000000 -0.070861 0.020536 0.000000 -0.077162 0.020539 0.000000 -0.084601 0.020531 0.000000 -0.090904 0.020463 0.000000 -0.098305 0.020403 0.000000 -0.104576 0.020245 0.000000 -0.111880 0.020113 0.000000 -0.118071 0.019849 0.000000 -0.125205 0.019626 0.000000 -0.131256 0.019239 0.000000 -0.138140 0.018905 0.000000 -0.143976 0.018379 0.000000 -0.150515 0.017917 0.000000 -0.156050 0.017239 0.000000 -0.162143 0.016632 0.000000 -0.167279 0.015792 0.000000 -0.172815 0.015028 0.000000 -0.177444 0.014019 0.000000 -0.182310 0.013088 0.000000 -0.186320 0.011908 0.000000 -0.190398 0.010807 0.000000 -0.193671 0.009460 0.000000 -0.196847 0.008191 0.000000 -0.199270 0.006685 0.000000 -0.201435 0.005258 0.000000 -0.202898 0.003608 0.000000 -0.203953 0.002039 0.000000 -0.204359 0.000266 0.000000 -0.204220 -0.001423 0.000000 -0.203485 -0.003295 0.000000 -0.202083 -0.005077 0.000000 -0.200145 -0.007016 0.000000 -0.197433 -0.008859 0.000000 -0.194248 -0.010833 0.000000 -0.190202 -0.012701 0.000000 -0.185753 -0.014672 0.000000 -0.180372 -0.016528 0.000000 -0.174666 -0.018460 0.000000 -0.167978 -0.020265 0.000000 -0.161050 -0.022119 0.000000 -0.153106 -0.023834 0.000000 -0.145014 -0.025572 0.000000 -0.135892 -0.027158 0.000000 -0.126724 -0.028743 0.000000 -0.116526 -0.030164 0.000000 -0.106394 -0.031560 0.000000 -0.095247 -0.032781 0.000000 -0.084285 -0.033955 0.000000 
-0.073615 -0.046820 0.000000 -0.061836 -0.048061 0.000000 -0.049105 -0.049038 0.000000 -0.036814 -0.049905 0.000000 -0.023631 -0.050498 0.000000 -0.011025 -0.050962 0.000000 0.002405 -0.051147 0.000000 0.015114 -0.051185 0.000000 0.028572 -0.050945 0.000000 0.041166 -0.050546 0.000000 0.054424 -0.049874 0.000000 0.066679 -0.049035 0.000000 0.079511 -0.047937 0.000000 0.091204 -0.046669 0.000000 0.103386 -0.045163 0.000000 0.114305 -0.043490 0.000000 0.125625 -0.041608 0.000000 0.135573 -0.039568 0.000000 0.145839 -0.037354 0.000000 0.154642 -0.034997 0.000000 0.163689 -0.032510 0.000000 0.171203 -0.029898 0.000000 0.178896 -0.027206 0.000000 0.185015 -0.024409 0.000000 0.191259 -0.021586 0.000000 0.195914 -0.018681 0.000000 0.200655 -0.015806 0.000000 0.203821 -0.012873 0.000000 0.207045 -0.010023 0.000000 0.208738 -0.007136 0.000000 0.210473 -0.004387 0.000000 0.210748 -0.001617 0.000000 0.211059 0.000968 0.000000 0.210006 0.003560 0.000000 0.208991 0.005925 0.000000 0.206728 0.008290 0.000000 0.204509 0.010395 0.000000 0.201177 0.012498 0.000000 0.197895 0.014316 0.000000 0.193646 0.016135 0.000000 0.189452 0.017654 0.000000 0.184446 0.019183 0.000000 0.179494 0.020403 0.000000 0.173887 0.021647 0.000000 0.168327 0.022581 0.000000 0.162270 0.023558 0.000000 0.156241 0.024230 0.000000 0.149869 0.024965 0.000000 0.143496 0.025406 0.000000 0.136929 0.025932 0.000000 0.130319 0.026178 0.000000 0.123656 0.026532 0.000000 0.116896 0.026622 0.000000 0.110214 0.026841 0.000000 0.103370 0.026814 0.000000 0.096729 0.026937 0.000000 0.089846 0.026830 0.000000 0.083281 0.026891 0.000000 0.076388 0.026739 0.000000 0.069919 0.026770 0.000000 0.063026 0.026602 0.000000 0.056657 0.026627 0.000000 0.049762 0.026468 0.000000 0.043485 0.026506 0.000000 0.036575 0.026373 0.000000 0.030372 0.026437 0.000000 0.023431 0.026342 0.000000 0.017278 0.026436 0.000000 0.010286 0.026384 0.000000 0.004158 0.026508 0.000000 -0.002905 0.026498 0.000000 -0.009034 0.026645 0.000000 -0.016181 0.026672 0.000000 -0.022332 0.026829 0.000000 -0.029573 0.026883 0.000000 -0.035762 0.027033 0.000000 -0.043094 0.027100 0.000000 -0.049330 0.027224 0.000000 -0.056742 0.027287 0.000000 -0.063026 0.027364 0.000000 -0.070495 0.027403 0.000000 -0.076815 0.027409 0.000000 -0.084306 0.027402 0.000000 -0.090641 0.027314 0.000000 -0.098105 0.027237 0.000000 -0.104421 0.027030 0.000000 -0.111800 0.026858 0.000000 -0.118050 0.026510 0.000000 -0.125271 0.026216 0.000000 -0.131393 0.025703 0.000000 -0.138373 0.025263 0.000000 -0.144293 0.024565 0.000000 -0.150937 0.023953 0.000000 -0.156567 0.023052 0.000000 -0.162770 0.022246 0.000000 -0.168010 0.021129 0.000000 -0.173660 0.020110 0.000000 -0.178400 0.018767 0.000000 -0.183380 0.017525 0.000000 -0.187503 0.015953 0.000000 -0.191693 0.014482 0.000000 -0.195079 0.012684 0.000000 -0.198361 0.010988 0.000000 -0.200890 0.008977 0.000000 -0.203152 0.007068 0.000000 -0.204713 0.004862 0.000000 -0.205852 0.002762 0.000000 -0.206343 0.000389 0.000000 -0.206270 -0.001873 0.000000 -0.205605 -0.004379 0.000000 -0.204251 -0.006766 0.000000 -0.202362 -0.009363 0.000000 -0.199679 -0.011833 0.000000 -0.196522 -0.014477 0.000000 -0.192482 -0.016981 0.000000 -0.188039 -0.019624 0.000000 -0.182643 -0.022111 0.000000 -0.176919 -0.024702 0.000000 -0.170192 -0.027122 0.000000 -0.163222 -0.029608 0.000000 -0.155217 -0.031908 0.000000 -0.147061 -0.034240 0.000000 -0.137856 -0.036368 0.000000 -0.128602 -0.038495 0.000000 -0.118301 -0.040402 0.000000 -0.108060 -0.042277 0.000000 -0.096791 -0.043915 0.000000 -0.085701 -0.045494 0.000000 
-0.074909 -0.058808 0.000000 -0.062924 -0.060375 0.000000 -0.049975 -0.061612 0.000000 -0.037461 -0.062709 0.000000 -0.024042 -0.063464 0.000000 -0.011199 -0.064054 0.000000 0.002479 -0.064294 0.000000 0.015435 -0.064347 0.000000 0.029148 -0.064051 0.000000 0.041992 -0.063553 0.000000 0.055507 -0.062712 0.000000 0.068008 -0.061658 0.000000 0.081091 -0.060278 0.000000 0.093019 -0.058683 0.000000 0.105438 -0.056787 0.000000 0.116574 -0.054680 0.000000 0.128110 -0.052307 0.000000 0.138248 -0.049735 0.000000 0.148701 -0.046944 0.000000 0.157660 -0.043971 0.000000 0.166858 -0.040833 0.000000 0.174490 -0.037538 0.000000 0.182293 -0.034140 0.000000 0.188485 -0.030612 0.000000 0.194794 -0.027050 0.000000 0.199478 -0.023387 0.000000 0.204237 -0.019760 0.000000 0.207386 -0.016062 0.000000 0.210584 -0.012470 0.000000 0.212217 -0.008834 0.000000 0.213884 -0.005370 0.000000 0.214060 -0.001886 0.000000 0.214266 0.001367 0.000000 0.213083 0.004623 0.000000 0.211932 0.007596 0.000000 0.209514 0.010562 0.000000 0.207137 0.013202 0.000000 0.203633 0.015834 0.000000 0.200178 0.018109 0.000000 0.195749 0.020380 0.000000 0.191375 0.022274 0.000000 0.186188 0.024176 0.000000 0.181057 0.025692 0.000000 0.175276 0.027234 0.000000 0.169544 0.028389 0.000000 0.163324 0.029592 0.000000 0.157136 0.030416 0.000000 0.150618 0.031316 0.000000 0.144103 0.031848 0.000000 0.137410 0.032486 0.000000 0.130677 0.032774 0.000000 0.123909 0.033196 0.000000 0.117046 0.033289 0.000000 0.110282 0.033546 0.000000 0.103357 0.033493 0.000000 0.096654 0.033632 0.000000 0.089711 0.033482 0.000000 0.083104 0.033548 0.000000 0.076168 0.033344 0.000000 0.069674 0.033375 0.000000 0.062755 0.033155 0.000000 0.056375 0.033183 0.000000 0.049466 0.032977 0.000000 0.043188 0.033027 0.000000 0.036276 0.032857 0.000000 0.030079 0.032942 0.000000 0.023141 0.032823 0.000000 0.016999 0.032950 0.000000 0.010012 0.032888 0.000000 0.003895 0.033055 0.000000 -0.003163 0.033049 0.000000 -0.009281 0.033246 0.000000 -0.016428 0.033289 0.000000 -0.022573 0.033501 0.000000 -0.029818 0.033579 0.000000 -0.036007 0.033784 0.000000 -0.043351 0.033881 0.000000 -0.049595 0.034054 0.000000 -0.057029 0.034147 0.000000 -0.063329 0.034261 0.000000 -0.070830 0.034325 0.000000 -0.077177 0.034350 0.000000 -0.084710 0.034357 0.000000 -0.091083 0.034263 0.000000 -0.098603 0.034184 0.000000 -0.104969 0.033940 0.000000 -0.112414 0.033742 0.000000 -0.118726 0.033320 0.000000 -0.126025 0.032970 0.000000 -0.132223 0.032340 0.000000 -0.139291 0.031805 0.000000 -0.145299 0.030943 0.000000 -0.152041 0.030191 0.000000 -0.157769 0.029072 0.000000 -0.164079 0.028075 0.000000 -0.169426 0.026683 0.000000 -0.175188 0.025418 0.000000 -0.180041 0.023739 0.000000 -0.185135 0.022190 0.000000 -0.189373 0.020221 0.000000 -0.193676 0.018382 0.000000 -0.197175 0.016127 0.000000 -0.200564 0.014003 0.000000 -0.203199 0.011476 0.000000 -0.205558 0.009081 0.000000 -0.207213 0.006308 0.000000 -0.208435 0.003669 0.000000 -0.209002 0.000684 0.000000 -0.208995 -0.002161 0.000000 -0.208385 -0.005314 0.000000 -0.207075 -0.008319 0.000000 -0.205218 -0.011589 0.000000 -0.202553 -0.014699 0.000000 -0.199402 -0.018029 0.000000 -0.195354 -0.021184 0.000000 -0.190888 -0.024512 0.000000 -0.185456 -0.027648 0.000000 -0.179681 -0.030910 0.000000 -0.172890 -0.033962 0.000000 -0.165840 -0.037094 0.000000 -0.157741 -0.039994 0.000000 -0.149478 -0.042933 0.000000 -0.140151 -0.045617 0.000000 -0.130762 -0.048299 0.000000 -0.120311 -0.050705 0.000000 -0.109911 -0.053070 0.000000 -0.098467 -0.055139 0.000000 -0.087193 -0.057131 0.000000 
-0.076863 -0.071089 0.000000 -0.064643 -0.072995 0.000000 -0.051442 -0.074501 0.000000 -0.038669 -0.075838 0.000000 -0.024978 -0.076760 0.000000 -0.011858 -0.077483 0.000000 0.002108 -0.077781 0.000000 0.015354 -0.077854 0.000000 0.029364 -0.077502 0.000000 0.042503 -0.076905 0.000000 0.056317 -0.075890 0.000000 0.069110 -0.074619 0.000000 0.082484 -0.072948 0.000000 0.094693 -0.071017 0.000000 0.107387 -0.068717 0.000000 0.118782 -0.066162 0.000000 0.130568 -0.063281 0.000000 0.140934 -0.060159 0.000000 0.151602 -0.056767 0.000000 0.160750 -0.053154 0.000000 0.170120 -0.049340 0.000000 0.177894 -0.045333 0.000000 0.185820 -0.041201 0.000000 0.192103 -0.036911 0.000000 0.198483 -0.032579 0.000000 0.203202 -0.028124 0.000000 0.207978 -0.023715 0.000000 0.211109 -0.019219 0.000000 0.214271 -0.014854 0.000000 0.215836 -0.010436 0.000000 0.217420 -0.006230 0.000000 0.217483 -0.002000 0.000000 0.217566 0.001945 0.000000 0.216233 0.005894 0.000000 0.214928 0.009494 0.000000 0.212333 0.013085 0.000000 0.209779 0.016277 0.000000 0.206081 0.019457 0.000000 0.202438 0.022200 0.000000 0.197809 0.024938 0.000000 0.193246 0.027215 0.000000 0.187860 0.029501 0.000000 0.182548 0.031315 0.000000 0.176579 0.033160 0.000000 0.170681 0.034533 0.000000 0.164292 0.035966 0.000000 0.157958 0.036936 0.000000 0.151294 0.037998 0.000000 0.144659 0.038615 0.000000 0.137846 0.039359 0.000000 0.131021 0.039679 0.000000 0.124162 0.040162 0.000000 0.117235 0.040248 0.000000 0.110408 0.040530 0.000000 0.103446 0.040442 0.000000 0.096706 0.040583 0.000000 0.089750 0.040380 0.000000 0.083131 0.040434 0.000000 0.076202 0.040168 0.000000 0.069717 0.040183 0.000000 0.062821 0.039901 0.000000 0.056466 0.039916 0.000000 0.049591 0.039654 0.000000 0.043350 0.039697 0.000000 0.036476 0.039482 0.000000 0.030323 0.039572 0.000000 0.023424 0.039422 0.000000 0.017328 0.039566 0.000000 0.010376 0.039487 0.000000 0.004303 0.039683 0.000000 -0.002729 0.039675 0.000000 -0.008809 0.039910 0.000000 -0.015943 0.039963 0.000000 -0.022058 0.040218 0.000000 -0.029305 0.040317 0.000000 -0.035477 0.040566 0.000000 -0.042841 0.040688 0.000000 -0.049081 0.040902 0.000000 -0.056553 0.041021 0.000000 -0.062865 0.041165 0.000000 -0.070423 0.041251 0.000000 -0.076800 0.041290 0.000000 -0.084410 0.041309 0.000000 -0.090832 0.041206 0.000000 -0.098446 0.041122 0.000000 -0.104881 0.040841 0.000000 -0.112438 0.040615 0.000000 -0.118840 0.040121 0.000000 -0.126268 0.039712 0.000000 -0.132575 0.038969 0.000000 -0.139788 0.038339 0.000000 -0.145925 0.037315 0.000000 -0.152824 0.036423 0.000000 -0.158699 0.035090 0.000000 -0.165175 0.033903 0.000000 -0.170683 0.032238 0.000000 -0.176619 0.030726 0.000000 -0.181642 0.028715 0.000000 -0.186912 0.026857 0.000000 -0.191325 0.024494 0.000000 -0.195800 0.022283 0.000000 -0.199472 0.019572 0.000000 -0.203024 0.017013 0.000000 -0.205824 0.013971 0.000000 -0.208331 0.011082 0.000000 -0.210136 0.007738 0.000000 -0.211486 0.004551 0.000000 -0.212183 0.000949 0.000000 -0.212278 -0.002490 0.000000 -0.211772 -0.006299 0.000000 -0.210535 -0.009933 0.000000 -0.208751 -0.013886 0.000000 -0.206126 -0.017649 0.000000 -0.203014 -0.021676 0.000000 -0.198973 -0.025495 0.000000 -0.194509 -0.029522 0.000000 -0.189048 -0.033318 0.000000 -0.183238 -0.037268 0.000000 -0.176382 -0.040963 0.000000 -0.169260 -0.044757 0.000000 -0.161061 -0.048270 0.000000 -0.152689 -0.051830 0.000000 -0.143227 -0.055084 0.000000 -0.133694 -0.058335 0.000000 -0.123076 -0.061253 0.000000 -0.112498 -0.064122 0.000000 -0.100856 -0.066633 0.000000 -0.089374 -0.069051 0.000000 
-0.078857 -0.083540 0.000000 -0.066339 -0.085796 0.000000 -0.052822 -0.087586 0.000000 -0.039724 -0.089174 0.000000 -0.025690 -0.090276 0.000000 -0.012224 -0.091140 0.000000 0.002104 -0.091506 0.000000 0.015711 -0.091603 0.000000 0.030094 -0.091200 0.000000 0.043601 -0.090505 0.000000 0.057791 -0.089319 0.000000 0.070947 -0.087825 0.000000 0.084690 -0.085861 0.000000 0.097247 -0.083586 0.000000 0.110290 -0.080876 0.000000 0.122007 -0.077860 0.000000 0.134110 -0.074459 0.000000 0.144760 -0.070769 0.000000 0.155703 -0.066760 0.000000 0.165085 -0.062489 0.000000 0.174676 -0.057977 0.000000 0.182626 -0.053238 0.000000 0.190712 -0.048349 0.000000 0.197105 -0.043275 0.000000 0.203579 -0.038149 0.000000 0.208340 -0.032883 0.000000 0.213141 -0.027668 0.000000 0.216245 -0.022356 0.000000 0.219365 -0.017197 0.000000 0.220839 -0.011983 0.000000 0.222318 -0.007018 0.000000 0.222234 -0.002032 0.000000 0.222158 0.002617 0.000000 0.220629 0.007262 0.000000 0.219121 0.011496 0.000000 0.216295 0.015710 0.000000 0.213506 0.019454 0.000000 0.209554 0.023174 0.000000 0.205656 0.026382 0.000000 0.200760 0.029572 0.000000 0.195935 0.032223 0.000000 0.190284 0.034874 0.000000 0.184712 0.036973 0.000000 0.178490 0.039101 0.000000 0.172344 0.040676 0.000000 0.165721 0.042315 0.000000 0.159161 0.043413 0.000000 0.152289 0.044615 0.000000 0.145455 0.045296 0.000000 0.138464 0.046124 0.000000 0.131470 0.046458 0.000000 0.124466 0.046982 0.000000 0.117403 0.047042 0.000000 0.110464 0.047335 0.000000 0.103397 0.047195 0.000000 0.096578 0.047328 0.000000 0.089547 0.047058 0.000000 0.082877 0.047095 0.000000 0.075902 0.046758 0.000000 0.069391 0.046757 0.000000 0.062471 0.046406 0.000000 0.056111 0.046413 0.000000 0.049230 0.046093 0.000000 0.042999 0.046141 0.000000 0.036133 0.045883 0.000000 0.030000 0.045994 0.000000 0.023116 0.045818 0.000000 0.017045 0.045998 0.000000 0.010110 0.045912 0.000000 0.004063 0.046159 0.000000 -0.002955 0.046161 0.000000 -0.009013 0.046460 0.000000 -0.016139 0.046538 0.000000 -0.022239 0.046863 0.000000 -0.029490 0.046998 0.000000 -0.035656 0.047320 0.000000 -0.043037 0.047485 0.000000 -0.049283 0.047766 0.000000 -0.056787 0.047931 0.000000 -0.063120 0.048131 0.000000 -0.070726 0.048260 0.000000 -0.077140 0.048336 0.000000 -0.084816 0.048389 0.000000 -0.091292 0.048299 0.000000 -0.098989 0.048232 0.000000 -0.105497 0.047933 0.000000 -0.113157 0.047701 0.000000 -0.119651 0.047150 0.000000 -0.127198 0.046705 0.000000 -0.133618 0.045860 0.000000 -0.140966 0.045155 0.000000 -0.147235 0.043979 0.000000 -0.154285 0.042965 0.000000 -0.160310 0.041424 0.000000 -0.166950 0.040060 0.000000 -0.172622 0.038126 0.000000 -0.178730 0.036377 0.000000 -0.183928 0.034032 0.000000 -0.189374 0.031873 0.000000 -0.193965 0.029109 0.000000 -0.198615 0.026529 0.000000 -0.202461 0.023351 0.000000 -0.206181 0.020355 0.000000 -0.209145 0.016784 0.000000 -0.211805 0.013393 0.000000 -0.213756 0.009463 0.000000 -0.215237 0.005716 0.000000 -0.216056 0.001477 0.000000 -0.216254 -0.002572 0.000000 -0.215840 -0.007057 0.000000 -0.214673 -0.011341 0.000000 -0.212944 -0.015998 0.000000 -0.210353 -0.020436 0.000000 -0.207257 -0.025183 0.000000 -0.203208 -0.029689 0.000000 -0.198720 -0.034437 0.000000 -0.193210 -0.038919 0.000000 -0.187333 -0.043576 0.000000 -0.180385 -0.047940 0.000000 -0.173154 -0.052415 0.000000 -0.164821 -0.056566 0.000000 -0.156297 -0.060767 0.000000 -0.146661 -0.064612 0.000000 -0.136936 -0.068450 0.000000 -0.126103 -0.071901 0.000000 -0.115295 -0.075290 0.000000 -0.103401 -0.078263 0.000000 -0.091654 -0.081123 0.000000 