# vtk DataFile Version 2.0
Comment goes here
ASCII

DATASET STRUCTURED_POINTS
FIELD FieldData 1
TIME 1 1 double
0.02500000
DIMENSIONS    128   128   1

ORIGIN    0.000   0.000   0.000
SPACING   0.039062 0.039062   1.000

POINT_DATA   16384
VECTORS u double

0.645453 0.000000 0.000000 0.664037 0.000000 0.000000 0.687684 0.000000 0.000000 0.704035 0.000000 0.000000 0.726487 0.000000 0.000000 0.740439 0.000000 0.000000 0.761467 0.000000 0.000000 0.772832 0.000000 0.000000 0.792161 0.000000 0.000000 0.800731 0.000000 0.000000 0.818048 0.000000 0.000000 0.823598 0.000000 0.000000 0.838556 0.000000 0.000000 0.840855 0.000000 0.000000 0.853077 0.000000 0.000000 0.851894 0.000000 0.000000 0.860988 0.000000 0.000000 0.856098 0.000000 0.000000 0.861670 0.000000 0.000000 0.852867 0.000000 0.000000 0.854531 0.000000 0.000000 0.841636 0.000000 0.000000 0.839033 0.000000 0.000000 0.821904 0.000000 0.000000 0.814720 0.000000 0.000000 0.793261 0.000000 0.000000 0.781241 0.000000 0.000000 0.755411 0.000000 0.000000 0.738375 0.000000 0.000000 0.708195 0.000000 0.000000 0.686050 0.000000 0.000000 0.651610 0.000000 0.000000 0.624362 0.000000 0.000000 0.585827 0.000000 0.000000 0.553587 0.000000 0.000000 0.511199 0.000000 0.000000 0.474187 0.000000 0.000000 0.428265 0.000000 0.000000 0.386812 0.000000 0.000000 0.337759 0.000000 0.000000 0.292302 0.000000 0.000000 0.240598 0.000000 0.000000 0.191675 0.000000 0.000000 0.137881 0.000000 0.000000 0.086126 0.000000 0.000000 0.030876 0.000000 0.000000 -0.022991 0.000000 0.000000 -0.078992 0.000000 0.000000 -0.134177 0.000000 0.000000 -0.190162 0.000000 0.000000 -0.245809 0.000000 0.000000 -0.300958 0.000000 0.000000 -0.356165 0.000000 0.000000 -0.409616 0.000000 0.000000 -0.463455 0.000000 0.000000 -0.514326 0.000000 0.000000 -0.565859 0.000000 0.000000 -0.613267 0.000000 0.000000 -0.661579 0.000000 0.000000 -0.704662 0.000000 0.000000 -0.748881 0.000000 0.000000 -0.786833 0.000000 0.000000 -0.826165 0.000000 0.000000 -0.858261 0.000000 0.000000 -0.892017 0.000000 0.000000 -0.917644 0.000000 0.000000 -0.945269 0.000000 0.000000 -0.963957 0.000000 0.000000 -0.985050 0.000000 0.000000 -0.996496 0.000000 0.000000 -1.010831 0.000000 0.000000 -1.014907 0.000000 0.000000 -1.022440 0.000000 0.000000 -1.019209 0.000000 0.000000 -1.020076 0.000000 0.000000 -1.009783 0.000000 0.000000 -1.004287 0.000000 0.000000 -0.987345 0.000000 0.000000 -0.975942 0.000000 0.000000 -0.952911 0.000000 0.000000 -0.936171 0.000000 0.000000 -0.907728 0.000000 0.000000 -0.886312 0.000000 0.000000 -0.853214 0.000000 0.000000 -0.827832 0.000000 0.000000 -0.790880 0.000000 0.000000 -0.762261 0.000000 0.000000 -0.722267 0.000000 0.000000 -0.691121 0.000000 0.000000 -0.648874 0.000000 0.000000 -0.615871 0.000000 0.000000 -0.572115 0.000000 0.000000 -0.537859 0.000000 0.000000 -0.493269 0.000000 0.000000 -0.458290 0.000000 0.000000 -0.413458 0.000000 0.000000 -0.378200 0.000000 0.000000 -0.333634 0.000000 0.000000 -0.298455 0.000000 0.000000 -0.254573 0.000000 0.000000 -0.219749 0.000000 0.000000 -0.176882 0.000000 0.000000 -0.142612 0.000000 0.000000 -0.101016 0.000000 0.000000 -0.067434 0.000000 0.000000 -0.027294 0.000000 0.000000 0.005524 0.000000 0.000000 0.044080 0.000000 0.000000 0.076099 0.000000 0.000000 0.112991 0.000000 0.000000 0.144211 0.000000 0.000000 0.179390 0.000000 0.000000 0.209833 0.000000 0.000000 0.243276 0.000000 0.000000 0.272975 0.000000 0.000000 0.304671 0.000000 0.000000 0.333662 0.000000 0.000000 0.363603 0.000000 0.000000 0.391915 0.000000 0.000000 0.420089 0.000000 0.000000 0.447740 0.000000 0.000000 0.474123 0.000000 0.000000 0.501106 0.000000 0.000000 0.525658 0.000000 0.000000 0.551942 0.000000 0.000000 0.574600 0.000000 0.000000 0.600121 0.000000 0.000000 0.620798 0.000000 0.000000 
0.642294 -0.021620 0.000000 0.660846 -0.021115 0.000000 0.684532 -0.019999 0.000000 0.700868 -0.019402 0.000000 0.723370 -0.018202 0.000000 0.737326 -0.017490 0.000000 0.758414 -0.016196 0.000000 0.769803 -0.015347 0.000000 0.789203 -0.013949 0.000000 0.797818 -0.012943 0.000000 0.815216 -0.011434 0.000000 0.820835 -0.010254 0.000000 0.835883 -0.008628 0.000000 0.838273 -0.007261 0.000000 0.850595 -0.005519 0.000000 0.849527 -0.003956 0.000000 0.858730 -0.002102 0.000000 0.853978 -0.000341 0.000000 0.859666 0.001616 0.000000 0.851023 0.003570 0.000000 0.852810 0.005616 0.000000 0.840096 0.007749 0.000000 0.837623 0.009866 0.000000 0.820693 0.012156 0.000000 0.813646 0.014321 0.000000 0.792403 0.016740 0.000000 0.780525 0.018925 0.000000 0.754925 0.021433 0.000000 0.738037 0.023608 0.000000 0.708097 0.026163 0.000000 0.686108 0.028292 0.000000 0.651916 0.030844 0.000000 0.624832 0.032891 0.000000 0.586548 0.035387 0.000000 0.554480 0.037314 0.000000 0.512342 0.039700 0.000000 0.475512 0.041467 0.000000 0.429836 0.043687 0.000000 0.388573 0.045253 0.000000 0.339757 0.047255 0.000000 0.294497 0.048580 0.000000 0.243017 0.050313 0.000000 0.194297 0.051359 0.000000 0.140707 0.052774 0.000000 0.089158 0.053502 0.000000 0.034087 0.054558 0.000000 -0.019577 0.054934 0.000000 -0.075428 0.055593 0.000000 -0.130418 0.055585 0.000000 -0.186289 0.055816 0.000000 -0.241755 0.055398 0.000000 -0.296829 0.055178 0.000000 -0.351878 0.054329 0.000000 -0.405297 0.053645 0.000000 -0.459006 0.052355 0.000000 -0.509891 0.051202 0.000000 -0.561330 0.049470 0.000000 -0.608797 0.047860 0.000000 -0.657056 0.045697 0.000000 -0.700242 0.043651 0.000000 -0.744453 0.041085 0.000000 -0.782547 0.038642 0.000000 -0.821918 0.035714 0.000000 -0.854187 0.032926 0.000000 -0.888029 0.029692 0.000000 -0.913854 0.026626 0.000000 -0.941606 0.023157 0.000000 -0.960508 0.019891 0.000000 -0.981765 0.016269 0.000000 -0.993428 0.012890 0.000000 -1.007957 0.009206 0.000000 -1.012247 0.005805 0.000000 -1.019996 0.002151 0.000000 -1.016966 -0.001182 0.000000 -1.018062 -0.004713 0.000000 -1.007950 -0.007894 0.000000 -1.002690 -0.011219 0.000000 -0.985907 -0.014173 0.000000 -0.974739 -0.017217 0.000000 -0.951843 -0.019885 0.000000 -0.935333 -0.022591 0.000000 -0.907001 -0.024930 0.000000 -0.885806 -0.027257 0.000000 -0.852799 -0.029240 0.000000 -0.827627 -0.031167 0.000000 -0.790749 -0.032786 0.000000 -0.762327 -0.034307 0.000000 -0.722396 -0.035570 0.000000 -0.691434 -0.036696 0.000000 -0.649244 -0.037625 0.000000 -0.616411 -0.038380 0.000000 -0.572709 -0.039006 0.000000 -0.538612 -0.039423 0.000000 -0.494075 -0.039785 0.000000 -0.459243 -0.039905 0.000000 -0.414469 -0.040045 0.000000 -0.379346 -0.039912 0.000000 -0.334843 -0.039872 0.000000 -0.299787 -0.039531 0.000000 -0.255975 -0.039353 0.000000 -0.221263 -0.038845 0.000000 -0.178473 -0.038568 0.000000 -0.144304 -0.037933 0.000000 -0.102791 -0.037589 0.000000 -0.069298 -0.036861 0.000000 -0.029247 -0.036479 0.000000 0.003492 -0.035687 0.000000 0.041956 -0.035288 0.000000 0.073906 -0.034455 0.000000 0.110702 -0.034056 0.000000 0.141863 -0.033200 0.000000 0.176946 -0.032811 0.000000 0.207340 -0.031943 0.000000 0.240686 -0.031571 0.000000 0.270346 -0.030697 0.000000 0.301947 -0.030343 0.000000 0.330909 -0.029466 0.000000 0.360759 -0.029127 0.000000 0.389052 -0.028243 0.000000 0.417139 -0.027912 0.000000 0.444780 -0.027017 0.000000 0.471084 -0.026683 0.000000 0.498066 -0.025767 0.000000 0.522548 -0.025418 0.000000 0.548841 -0.024471 0.000000 0.571439 -0.024089 0.000000 0.596979 -0.023099 0.000000 0.617610 -0.022666 0.000000 
0.647004 -0.043236 0.000000 0.665658 -0.042238 0.000000 0.689398 -0.040022 0.000000 0.705831 -0.038838 0.000000 0.728398 -0.036458 0.000000 0.742446 -0.035044 0.000000 0.763610 -0.032477 0.000000 0.775080 -0.030789 0.000000 0.794565 -0.028015 0.000000 0.803247 -0.026013 0.000000 0.820738 -0.023017 0.000000 0.826404 -0.020666 0.000000 0.841549 -0.017439 0.000000 0.843964 -0.014713 0.000000 0.856382 -0.011253 0.000000 0.855311 -0.008135 0.000000 0.864603 -0.004451 0.000000 0.859816 -0.000936 0.000000 0.865580 0.002955 0.000000 0.856867 0.006856 0.000000 0.858710 0.010927 0.000000 0.845886 0.015187 0.000000 0.843441 0.019402 0.000000 0.826360 0.023977 0.000000 0.819304 0.028291 0.000000 0.797865 0.033121 0.000000 0.785936 0.037478 0.000000 0.760094 0.042488 0.000000 0.743105 0.046827 0.000000 0.712879 0.051929 0.000000 0.690731 0.056181 0.000000 0.656210 0.061276 0.000000 0.628906 0.065368 0.000000 0.590251 0.070351 0.000000 0.557901 0.074206 0.000000 0.515351 0.078968 0.000000 0.478175 0.082506 0.000000 0.432052 0.086939 0.000000 0.390381 0.090079 0.000000 0.341087 0.094076 0.000000 0.295360 0.096740 0.000000 0.243377 0.100200 0.000000 0.194137 0.102310 0.000000 0.140025 0.105139 0.000000 0.087911 0.106620 0.000000 0.032308 0.108734 0.000000 -0.021956 0.109515 0.000000 -0.078341 0.110842 0.000000 -0.133954 0.110860 0.000000 -0.190350 0.111337 0.000000 -0.246448 0.110540 0.000000 -0.302026 0.110122 0.000000 -0.357699 0.108468 0.000000 -0.411591 0.107128 0.000000 -0.465898 0.104594 0.000000 -0.517211 0.102324 0.000000 -0.569203 0.098906 0.000000 -0.617041 0.095725 0.000000 -0.665788 0.091445 0.000000 -0.709275 0.087398 0.000000 -0.753891 0.082305 0.000000 -0.792205 0.077465 0.000000 -0.831883 0.071641 0.000000 -0.864283 0.066110 0.000000 -0.898318 0.059667 0.000000 -0.924179 0.053577 0.000000 -0.952004 0.046654 0.000000 -0.970845 0.040159 0.000000 -0.992052 0.032920 0.000000 -1.003559 0.026192 0.000000 -1.017917 0.018819 0.000000 -1.021962 0.012039 0.000000 -1.029427 0.004718 0.000000 -1.026073 -0.001934 0.000000 -1.026788 -0.009016 0.000000 -1.016287 -0.015371 0.000000 -1.010566 -0.022043 0.000000 -0.993344 -0.027952 0.000000 -0.981654 -0.034064 0.000000 -0.958285 -0.039406 0.000000 -0.941216 -0.044841 0.000000 -0.912394 -0.049527 0.000000 -0.890623 -0.054203 0.000000 -0.857123 -0.058179 0.000000 -0.831378 -0.062049 0.000000 -0.794020 -0.065300 0.000000 -0.765045 -0.068354 0.000000 -0.724656 -0.070893 0.000000 -0.693175 -0.073152 0.000000 -0.650558 -0.075023 0.000000 -0.617252 -0.076535 0.000000 -0.573158 -0.077800 0.000000 -0.538639 -0.078633 0.000000 -0.493751 -0.079369 0.000000 -0.458550 -0.079606 0.000000 -0.413465 -0.079897 0.000000 -0.378028 -0.079626 0.000000 -0.333253 -0.079558 0.000000 -0.297936 -0.078868 0.000000 -0.253887 -0.078525 0.000000 -0.218963 -0.077502 0.000000 -0.175970 -0.076959 0.000000 -0.141633 -0.075682 0.000000 -0.099944 -0.075006 0.000000 -0.066323 -0.073544 0.000000 -0.026119 -0.072790 0.000000 0.006715 -0.071202 0.000000 0.045312 -0.070414 0.000000 0.077331 -0.068746 0.000000 0.114247 -0.067957 0.000000 0.145456 -0.066244 0.000000 0.180647 -0.065477 0.000000 0.211073 -0.063741 0.000000 0.244522 -0.063006 0.000000 0.274203 -0.061261 0.000000 0.305903 -0.060563 0.000000 0.334878 -0.058811 0.000000 0.364826 -0.058143 0.000000 0.393130 -0.056381 0.000000 0.421316 -0.055728 0.000000 0.448969 -0.053944 0.000000 0.475372 -0.053287 0.000000 0.502372 -0.051464 0.000000 0.526954 -0.050775 0.000000 0.553271 -0.048892 0.000000 0.575972 -0.048138 0.000000 0.601544 -0.046170 0.000000 0.622277 -0.045315 0.000000 
0.645371 -0.065000 0.000000 0.664061 -0.063509 0.000000 0.687933 -0.060172 0.000000 0.704433 -0.058402 0.000000 0.727164 -0.054817 0.000000 0.741308 -0.052701 0.000000 0.762669 -0.048830 0.000000 0.774266 -0.046303 0.000000 0.793979 -0.042116 0.000000 0.802817 -0.039116 0.000000 0.820564 -0.034591 0.000000 0.826413 -0.031065 0.000000 0.841837 -0.026189 0.000000 0.844460 -0.022094 0.000000 0.857174 -0.016866 0.000000 0.856330 -0.012177 0.000000 0.865929 -0.006608 0.000000 0.861385 -0.001318 0.000000 0.867458 0.004565 0.000000 0.858996 0.010440 0.000000 0.861141 0.016597 0.000000 0.848572 0.023018 0.000000 0.846414 0.029392 0.000000 0.829583 0.036293 0.000000 0.822790 0.042816 0.000000 0.801591 0.050108 0.000000 0.789893 0.056696 0.000000 0.764274 0.064264 0.000000 0.747479 0.070823 0.000000 0.717452 0.078536 0.000000 0.695456 0.084962 0.000000 0.661104 0.092669 0.000000 0.633908 0.098851 0.000000 0.595386 0.106393 0.000000 0.563098 0.112214 0.000000 0.520642 0.119426 0.000000 0.483483 0.124765 0.000000 0.437410 0.131481 0.000000 0.395711 0.136219 0.000000 0.346418 0.142276 0.000000 0.300622 0.146291 0.000000 0.248586 0.151537 0.000000 0.199236 0.154710 0.000000 0.145016 0.159000 0.000000 0.092752 0.161219 0.000000 0.036982 0.164425 0.000000 -0.017470 0.165584 0.000000 -0.074084 0.167591 0.000000 -0.129923 0.167593 0.000000 -0.186609 0.168310 0.000000 -0.242971 0.167075 0.000000 -0.298901 0.166429 0.000000 -0.354872 0.163895 0.000000 -0.409172 0.161844 0.000000 -0.463810 0.157975 0.000000 -0.515579 0.154508 0.000000 -0.567930 0.149300 0.000000 -0.616258 0.144444 0.000000 -0.665384 0.137931 0.000000 -0.709381 0.131755 0.000000 -0.754387 0.124016 0.000000 -0.793211 0.116633 0.000000 -0.833273 0.107792 0.000000 -0.866161 0.099361 0.000000 -0.900562 0.089588 0.000000 -0.926867 0.080312 0.000000 -0.955024 0.069822 0.000000 -0.974241 0.059939 0.000000 -0.995732 0.048983 0.000000 -1.007529 0.038755 0.000000 -1.022112 0.027609 0.000000 -1.026347 0.017315 0.000000 -1.033969 0.006263 0.000000 -1.030700 -0.003821 0.000000 -1.031499 -0.014500 0.000000 -1.020977 -0.024116 0.000000 -1.015272 -0.034162 0.000000 -0.997929 -0.043085 0.000000 -0.986193 -0.052276 0.000000 -0.962620 -0.060323 0.000000 -0.945455 -0.068483 0.000000 -0.916363 -0.075523 0.000000 -0.894459 -0.082528 0.000000 -0.860646 -0.088484 0.000000 -0.834748 -0.094270 0.000000 -0.797054 -0.099119 0.000000 -0.767921 -0.103671 0.000000 -0.727195 -0.107440 0.000000 -0.695564 -0.110794 0.000000 -0.652627 -0.113549 0.000000 -0.619188 -0.115779 0.000000 -0.574807 -0.117619 0.000000 -0.540181 -0.118831 0.000000 -0.495048 -0.119874 0.000000 -0.459771 -0.120191 0.000000 -0.414489 -0.120567 0.000000 -0.379007 -0.120124 0.000000 -0.334086 -0.119964 0.000000 -0.298754 -0.118896 0.000000 -0.254609 -0.118326 0.000000 -0.219696 -0.116763 0.000000 -0.176653 -0.115898 0.000000 -0.142350 -0.113958 0.000000 -0.100653 -0.112899 0.000000 -0.067082 -0.110687 0.000000 -0.026904 -0.109517 0.000000 0.005868 -0.107119 0.000000 0.044412 -0.105904 0.000000 0.076363 -0.103390 0.000000 0.113205 -0.102180 0.000000 0.144345 -0.099600 0.000000 0.179450 -0.098428 0.000000 0.209811 -0.095818 0.000000 0.243167 -0.094701 0.000000 0.272791 -0.092078 0.000000 0.304398 -0.091019 0.000000 0.333330 -0.088389 0.000000 0.363190 -0.087379 0.000000 0.391467 -0.084734 0.000000 0.419577 -0.083751 0.000000 0.447221 -0.081073 0.000000 0.473564 -0.080086 0.000000 0.500579 -0.077349 0.000000 0.525121 -0.076317 0.000000 0.551478 -0.073489 0.000000 0.574162 -0.072362 0.000000 0.599803 -0.069404 0.000000 0.620544 -0.068126 0.000000 
0.651622 -0.086753 0.000000 0.670486 -0.084800 0.000000 0.694504 -0.080394 0.000000 0.711188 -0.078070 0.000000 0.734100 -0.073334 0.000000 0.748433 -0.070549 0.000000 0.770008 -0.065435 0.000000 0.781794 -0.062099 0.000000 0.801752 -0.056566 0.000000 0.810773 -0.052598 0.000000 0.828790 -0.046613 0.000000 0.834808 -0.041939 0.000000 0.850520 -0.035485 0.000000 0.853288 -0.030050 0.000000 0.866299 -0.023123 0.000000 0.865569 -0.016890 0.000000 0.875462 -0.009506 0.000000 0.870990 -0.002464 0.000000 0.877339 0.005344 0.000000 0.868900 0.013172 0.000000 0.871288 0.021351 0.000000 0.858682 0.029914 0.000000 0.856718 0.038391 0.000000 0.839785 0.047601 0.000000 0.833119 0.056283 0.000000 0.811746 0.066017 0.000000 0.800094 0.074795 0.000000 0.774223 0.084903 0.000000 0.757378 0.093650 0.000000 0.727019 0.103951 0.000000 0.704867 0.112530 0.000000 0.670100 0.122825 0.000000 0.642633 0.131086 0.000000 0.603615 0.141161 0.000000 0.570936 0.148949 0.000000 0.527904 0.158583 0.000000 0.490233 0.165738 0.000000 0.443507 0.174710 0.000000 0.401179 0.181071 0.000000 0.351160 0.189166 0.000000 0.304622 0.194572 0.000000 0.251797 0.201586 0.000000 0.201602 0.205879 0.000000 0.146535 0.211623 0.000000 0.093336 0.214654 0.000000 0.036672 0.218957 0.000000 -0.018790 0.220582 0.000000 -0.076332 0.223295 0.000000 -0.133237 0.223386 0.000000 -0.190869 0.224385 0.000000 -0.248331 0.222831 0.000000 -0.305208 0.222024 0.000000 -0.362286 0.218740 0.000000 -0.417513 0.216066 0.000000 -0.473236 0.211000 0.000000 -0.525888 0.206444 0.000000 -0.579270 0.199585 0.000000 -0.628411 0.193180 0.000000 -0.678479 0.184568 0.000000 -0.723192 0.176400 0.000000 -0.769016 0.166134 0.000000 -0.808431 0.156351 0.000000 -0.849157 0.144591 0.000000 -0.882487 0.133400 0.000000 -0.917369 0.120372 0.000000 -0.943945 0.108039 0.000000 -0.972379 0.094028 0.000000 -0.991684 0.080867 0.000000 -1.013236 0.066209 0.000000 -1.024932 0.052572 0.000000 -1.039358 0.037637 0.000000 -1.043307 0.023896 0.000000 -1.050564 0.009071 0.000000 -1.046835 -0.004404 0.000000 -1.047084 -0.018739 0.000000 -1.035949 -0.031599 0.000000 -1.029535 -0.045090 0.000000 -1.011457 -0.057030 0.000000 -0.998892 -0.069373 0.000000 -0.974491 -0.080144 0.000000 -0.956415 -0.091099 0.000000 -0.926439 -0.100522 0.000000 -0.903584 -0.109920 0.000000 -0.868864 -0.117890 0.000000 -0.842013 -0.125641 0.000000 -0.803421 -0.132127 0.000000 -0.773366 -0.138213 0.000000 -0.731778 -0.143250 0.000000 -0.699285 -0.147720 0.000000 -0.655544 -0.151398 0.000000 -0.621322 -0.154354 0.000000 -0.576210 -0.156807 0.000000 -0.540893 -0.158393 0.000000 -0.495111 -0.159779 0.000000 -0.459243 -0.160165 0.000000 -0.413397 -0.160661 0.000000 -0.377424 -0.160029 0.000000 -0.332025 -0.159811 0.000000 -0.296298 -0.158345 0.000000 -0.251754 -0.157582 0.000000 -0.216535 -0.155458 0.000000 -0.173165 -0.154305 0.000000 -0.138634 -0.151683 0.000000 -0.096672 -0.150274 0.000000 -0.062940 -0.147293 0.000000 -0.022550 -0.145740 0.000000 0.010328 -0.142518 0.000000 0.049042 -0.140909 0.000000 0.081056 -0.137539 0.000000 0.118037 -0.135939 0.000000 0.149208 -0.132489 0.000000 0.184431 -0.130942 0.000000 0.214802 -0.127458 0.000000 0.248263 -0.125987 0.000000 0.277885 -0.122492 0.000000 0.309593 -0.121101 0.000000 0.338520 -0.117603 0.000000 0.368482 -0.116280 0.000000 0.396759 -0.112767 0.000000 0.424978 -0.111483 0.000000 0.452634 -0.107932 0.000000 0.479097 -0.106644 0.000000 0.506142 -0.103020 0.000000 0.530816 -0.101674 0.000000 0.557227 -0.097933 0.000000 0.580057 -0.096462 0.000000 0.605780 -0.092553 0.000000 0.626683 -0.090883 0.000000 
0.651455 -0.108803 0.000000 0.670422 -0.106391 0.000000 0.694664 -0.100874 0.000000 0.711494 -0.097998 0.000000 0.734686 -0.092062 0.000000 0.749209 -0.088609 0.000000 0.771119 -0.082191 0.000000 0.783136 -0.078047 0.000000 0.803482 -0.071095 0.000000 0.812771 -0.066153 0.000000 0.831223 -0.058626 0.000000 0.837543 -0.052795 0.000000 0.853727 -0.044669 0.000000 0.856824 -0.037873 0.000000 0.870335 -0.029146 0.000000 0.869949 -0.021339 0.000000 0.880356 -0.012029 0.000000 0.876236 -0.003196 0.000000 0.883096 0.006655 0.000000 0.875006 0.016491 0.000000 0.877885 0.026814 0.000000 0.865613 0.037588 0.000000 0.864102 0.048290 0.000000 0.847476 0.059892 0.000000 0.841209 0.070855 0.000000 0.820105 0.083133 0.000000 0.808781 0.094218 0.000000 0.783131 0.106980 0.000000 0.766530 0.118027 0.000000 0.736333 0.131047 0.000000 0.714332 0.141881 0.000000 0.679661 0.154903 0.000000 0.652246 0.165336 0.000000 0.613250 0.178090 0.000000 0.580522 0.187924 0.000000 0.537432 0.200128 0.000000 0.499612 0.209163 0.000000 0.452742 0.220536 0.000000 0.410168 0.228565 0.000000 0.359918 0.238833 0.000000 0.313042 0.245655 0.000000 0.259893 0.254557 0.000000 0.209274 0.259971 0.000000 0.153790 0.267266 0.000000 0.100085 0.271082 0.000000 0.042910 0.276551 0.000000 -0.013132 0.278587 0.000000 -0.071281 0.282038 0.000000 -0.128834 0.282131 0.000000 -0.187164 0.283404 0.000000 -0.245334 0.281413 0.000000 -0.302993 0.280385 0.000000 -0.360832 0.276200 0.000000 -0.416912 0.272794 0.000000 -0.473434 0.266349 0.000000 -0.526994 0.260541 0.000000 -0.581196 0.251823 0.000000 -0.631275 0.243653 0.000000 -0.682165 0.232712 0.000000 -0.727815 0.222292 0.000000 -0.774438 0.209255 0.000000 -0.814753 0.196774 0.000000 -0.856225 0.181848 0.000000 -0.890380 0.167573 0.000000 -0.925925 0.151047 0.000000 -0.953211 0.135322 0.000000 -0.982197 0.117562 0.000000 -1.002060 0.100795 0.000000 -1.024028 0.082231 0.000000 -1.036101 0.064877 0.000000 -1.050789 0.045983 0.000000 -1.054913 0.028522 0.000000 -1.062271 0.009791 0.000000 -1.058509 -0.007302 0.000000 -1.058696 -0.025386 0.000000 -1.047329 -0.041664 0.000000 -1.040704 -0.058654 0.000000 -1.022213 -0.073729 0.000000 -1.009309 -0.089242 0.000000 -0.984346 -0.102800 0.000000 -0.965834 -0.116535 0.000000 -0.935184 -0.128353 0.000000 -0.911830 -0.140103 0.000000 -0.876367 -0.150056 0.000000 -0.848987 -0.159712 0.000000 -0.809627 -0.167766 0.000000 -0.779045 -0.175314 0.000000 -0.736702 -0.181521 0.000000 -0.703713 -0.187028 0.000000 -0.659262 -0.191511 0.000000 -0.624597 -0.195113 0.000000 -0.578846 -0.198047 0.000000 -0.543154 -0.199930 0.000000 -0.496820 -0.201524 0.000000 -0.460652 -0.201905 0.000000 -0.414352 -0.202385 0.000000 -0.378156 -0.201497 0.000000 -0.332401 -0.201090 0.000000 -0.296525 -0.199167 0.000000 -0.251721 -0.198089 0.000000 -0.216418 -0.195352 0.000000 -0.172877 -0.193799 0.000000 -0.138318 -0.190451 0.000000 -0.096262 -0.188593 0.000000 -0.062547 -0.184808 0.000000 -0.022128 -0.182785 0.000000 0.010700 -0.178711 0.000000 0.049392 -0.176633 0.000000 0.081334 -0.172384 0.000000 0.118256 -0.170332 0.000000 0.149343 -0.165994 0.000000 0.184482 -0.164022 0.000000 0.214767 -0.159650 0.000000 0.248133 -0.157784 0.000000 0.277677 -0.153408 0.000000 0.309288 -0.151654 0.000000 0.338153 -0.147278 0.000000 0.368027 -0.145618 0.000000 0.396265 -0.141229 0.000000 0.424413 -0.139627 0.000000 0.452061 -0.135192 0.000000 0.478478 -0.133593 0.000000 0.505550 -0.129068 0.000000 0.530209 -0.127403 0.000000 0.556691 -0.122730 0.000000 0.579542 -0.120915 0.000000 0.605382 -0.116030 0.000000 0.626346 -0.113969 0.000000 
0.659201 -0.130829 0.000000 0.678417 -0.128009 0.000000 0.702897 -0.121466 0.000000 0.720000 -0.118092 0.000000 0.743490 -0.111049 0.000000 0.758305 -0.106982 0.000000 0.780570 -0.099362 0.000000 0.792892 -0.094462 0.000000 0.813646 -0.086201 0.000000 0.823242 -0.080338 0.000000 0.842149 -0.071384 0.000000 0.848766 -0.064444 0.000000 0.865441 -0.054766 0.000000 0.868813 -0.046657 0.000000 0.882834 -0.036249 0.000000 0.882688 -0.026911 0.000000 0.893606 -0.015792 0.000000 0.889675 -0.005205 0.000000 0.897026 0.006574 0.000000 0.889060 0.018384 0.000000 0.892385 0.030744 0.000000 0.880159 0.043697 0.000000 0.879023 0.056528 0.000000 0.862351 0.070493 0.000000 0.856363 0.083654 0.000000 0.835110 0.098446 0.000000 0.823943 0.111769 0.000000 0.798034 0.127154 0.000000 0.781447 0.140447 0.000000 0.750874 0.156149 0.000000 0.728727 0.169202 0.000000 0.693558 0.184911 0.000000 0.665823 0.197497 0.000000 0.626206 0.212885 0.000000 0.592979 0.224767 0.000000 0.549145 0.239493 0.000000 0.510644 0.250428 0.000000 0.462912 0.264154 0.000000 0.419480 0.273895 0.000000 0.368252 0.286292 0.000000 0.320349 0.294597 0.000000 0.266115 0.305354 0.000000 0.214314 0.311983 0.000000 0.157647 0.320812 0.000000 0.102622 0.325534 0.000000 0.044178 0.332174 0.000000 -0.013303 0.334772 0.000000 -0.072788 0.338996 0.000000 -0.131873 0.339269 0.000000 -0.191590 0.340886 0.000000 -0.251353 0.338660 0.000000 -0.310423 0.337521 0.000000 -0.369881 0.332659 0.000000 -0.427367 0.328669 0.000000 -0.485493 0.321081 0.000000 -0.540417 0.314206 0.000000 -0.596163 0.303867 0.000000 -0.647524 0.294149 0.000000 -0.699845 0.281108 0.000000 -0.746652 0.268672 0.000000 -0.794540 0.253072 0.000000 -0.835841 0.238138 0.000000 -0.878362 0.220218 0.000000 -0.913290 0.203100 0.000000 -0.949623 0.183204 0.000000 -0.977431 0.164311 0.000000 -1.006908 0.142877 0.000000 -1.027015 0.122698 0.000000 -1.049155 0.100249 0.000000 -1.061179 0.079333 0.000000 -1.075714 0.056449 0.000000 -1.079498 0.035378 0.000000 -1.086389 0.012666 0.000000 -1.082010 -0.007979 0.000000 -1.081446 -0.029919 0.000000 -1.069216 -0.049591 0.000000 -1.061600 -0.070206 0.000000 -1.042043 -0.088425 0.000000 -1.027963 -0.107240 0.000000 -1.001782 -0.123620 0.000000 -0.981968 -0.140260 0.000000 -0.950006 -0.154526 0.000000 -0.925287 -0.168737 0.000000 -0.888471 -0.180733 0.000000 -0.859723 -0.192381 0.000000 -0.819022 -0.202069 0.000000 -0.787121 -0.211138 0.000000 -0.743492 -0.218582 0.000000 -0.709275 -0.225160 0.000000 -0.663628 -0.230513 0.000000 -0.627858 -0.234770 0.000000 -0.581026 -0.238250 0.000000 -0.544370 -0.240418 0.000000 -0.497085 -0.242281 0.000000 -0.460104 -0.242633 0.000000 -0.412989 -0.243157 0.000000 -0.376129 -0.241980 0.000000 -0.329694 -0.241443 0.000000 -0.293296 -0.239025 0.000000 -0.247939 -0.237689 0.000000 -0.212244 -0.234302 0.000000 -0.168263 -0.232406 0.000000 -0.133426 -0.228297 0.000000 -0.091029 -0.226044 0.000000 -0.057131 -0.221427 0.000000 -0.016452 -0.218987 0.000000 0.016481 -0.214039 0.000000 0.055370 -0.211543 0.000000 0.087358 -0.206402 0.000000 0.124428 -0.203948 0.000000 0.155520 -0.198716 0.000000 0.190777 -0.196367 0.000000 0.221040 -0.191109 0.000000 0.254506 -0.188897 0.000000 0.284017 -0.183647 0.000000 0.315724 -0.181577 0.000000 0.344557 -0.176342 0.000000 0.374532 -0.174392 0.000000 0.402752 -0.169153 0.000000 0.431016 -0.167279 0.000000 0.458669 -0.161997 0.000000 0.485223 -0.160133 0.000000 0.512333 -0.154752 0.000000 0.537155 -0.152815 0.000000 0.563716 -0.147265 0.000000 0.586759 -0.145154 0.000000 0.612727 -0.139357 0.000000 0.633911 -0.136956 0.000000 
0.660403 -0.153308 0.000000 0.679787 -0.150087 0.000000 0.704582 -0.142458 0.000000 0.721912 -0.138591 0.000000 0.745798 -0.130367 0.000000 0.760898 -0.125690 0.000000 0.783639 -0.116778 0.000000 0.796300 -0.111123 0.000000 0.817607 -0.101445 0.000000 0.827591 -0.094656 0.000000 0.847119 -0.084150 0.000000 0.854163 -0.076087 0.000000 0.871516 -0.064716 0.000000 0.875344 -0.055266 0.000000 0.890083 -0.043022 0.000000 0.890409 -0.032111 0.000000 0.902063 -0.019016 0.000000 0.898606 -0.006616 0.000000 0.906687 0.007270 0.000000 0.899179 0.021132 0.000000 0.903201 0.035715 0.000000 0.891400 0.050950 0.000000 0.890901 0.066097 0.000000 0.874605 0.082552 0.000000 0.869165 0.098096 0.000000 0.848222 0.115553 0.000000 0.837492 0.131294 0.000000 0.811812 0.149476 0.000000 0.795528 0.165187 0.000000 0.765090 0.183767 0.000000 0.743098 0.199197 0.000000 0.707958 0.217807 0.000000 0.680223 0.232688 0.000000 0.640520 0.250934 0.000000 0.607133 0.264985 0.000000 0.563093 0.282463 0.000000 0.524275 0.295396 0.000000 0.476210 0.311700 0.000000 0.432309 0.323225 0.000000 0.380620 0.337963 0.000000 0.332105 0.347791 0.000000 0.277278 0.360592 0.000000 0.224732 0.368440 0.000000 0.167340 0.378958 0.000000 0.111448 0.384551 0.000000 0.052147 0.392475 0.000000 -0.006312 0.395554 0.000000 -0.066785 0.400608 0.000000 -0.126947 0.400933 0.000000 -0.187775 0.402884 0.000000 -0.248702 0.400246 0.000000 -0.308996 0.398913 0.000000 -0.369687 0.393145 0.000000 -0.428492 0.388406 0.000000 -0.487899 0.379399 0.000000 -0.544209 0.371211 0.000000 -0.601257 0.358930 0.000000 -0.654034 0.347335 0.000000 -0.707644 0.331840 0.000000 -0.755852 0.316987 0.000000 -0.804975 0.298445 0.000000 -0.847607 0.280597 0.000000 -0.891264 0.259296 0.000000 -0.927393 0.238834 0.000000 -0.964716 0.215188 0.000000 -0.993537 0.192607 0.000000 -1.023812 0.167146 0.000000 -1.044687 0.143042 0.000000 -1.067396 0.116395 0.000000 -1.079900 0.091437 0.000000 -1.094747 0.064301 0.000000 -1.098696 0.039196 0.000000 -1.105630 0.012303 0.000000 -1.101094 -0.012244 0.000000 -1.100311 -0.038180 0.000000 -1.087616 -0.061510 0.000000 -1.079542 -0.085827 0.000000 -1.059247 -0.107367 0.000000 -1.044507 -0.129503 0.000000 -1.017367 -0.148795 0.000000 -0.996743 -0.168311 0.000000 -0.963662 -0.185035 0.000000 -0.938039 -0.201637 0.000000 -0.900013 -0.215619 0.000000 -0.870324 -0.229162 0.000000 -0.828385 -0.240368 0.000000 -0.795560 -0.250844 0.000000 -0.750725 -0.259367 0.000000 -0.715645 -0.266892 0.000000 -0.668873 -0.272928 0.000000 -0.632335 -0.277716 0.000000 -0.584494 -0.281535 0.000000 -0.547187 -0.283870 0.000000 -0.499035 -0.285791 0.000000 -0.461528 -0.286001 0.000000 -0.413699 -0.286359 0.000000 -0.376442 -0.284792 0.000000 -0.329445 -0.283923 0.000000 -0.292770 -0.280922 0.000000 -0.246998 -0.279141 0.000000 -0.211134 -0.275028 0.000000 -0.166871 -0.272618 0.000000 -0.131955 -0.267685 0.000000 -0.089391 -0.264887 0.000000 -0.055489 -0.259385 0.000000 -0.014738 -0.256397 0.000000 0.018145 -0.250533 0.000000 0.057031 -0.247509 0.000000 0.088931 -0.241443 0.000000 0.125944 -0.238495 0.000000 0.156927 -0.232343 0.000000 0.192091 -0.229542 0.000000 0.222239 -0.223379 0.000000 0.255596 -0.220761 0.000000 0.284999 -0.214625 0.000000 0.316595 -0.212193 0.000000 0.345339 -0.206087 0.000000 0.375218 -0.203813 0.000000 0.403380 -0.197712 0.000000 0.431571 -0.195544 0.000000 0.459208 -0.189399 0.000000 0.485724 -0.187258 0.000000 0.512870 -0.181001 0.000000 0.537698 -0.178786 0.000000 0.564353 -0.172334 0.000000 0.587452 -0.169925 0.000000 0.613582 -0.163182 0.000000 0.634877 -0.160443 0.000000 