# vtk DataFile Version 2.0
Comment goes here
ASCII

DATASET STRUCTURED_POINTS
FIELD FieldData 1
TIME 1 1 double
0.01500000
DIMENSIONS    128   128   1

ORIGIN    0.000   0.000   0.000
SPACING   0.039062 0.039062   1.000

POINT_DATA   16384
VECTORS u double

0.271303 0.000000 0.000000 0.287053 -0.000000 0.000000 0.301267 -0.000000 0.000000 0.316203 -0.000000 0.000000 0.330971 -0.000000 0.000000 0.344869 -0.000000 0.000000 0.359972 -0.000000 0.000000 0.372576 0.000000 0.000000 0.387751 0.000000 0.000000 0.398778 0.000000 0.000000 0.413718 0.000000 0.000000 0.422861 0.000000 0.000000 0.437221 0.000000 0.000000 0.444158 0.000000 0.000000 0.457562 0.000000 0.000000 0.461961 0.000000 0.000000 0.474012 0.000000 0.000000 0.475543 0.000000 0.000000 0.485834 0.000000 0.000000 0.484179 0.000000 0.000000 0.492307 0.000000 0.000000 0.487174 0.000000 0.000000 0.492756 0.000000 0.000000 0.483894 0.000000 0.000000 0.486583 0.000000 0.000000 0.473796 0.000000 0.000000 0.473299 0.000000 0.000000 0.456463 0.000000 0.000000 0.452556 0.000000 0.000000 0.431632 0.000000 0.000000 0.424177 0.000000 0.000000 0.399228 0.000000 0.000000 0.388182 0.000000 0.000000 0.359379 0.000000 0.000000 0.344804 0.000000 0.000000 0.312439 0.000000 0.000000 0.294507 0.000000 0.000000 0.258987 0.000000 0.000000 0.237981 0.000000 0.000000 0.199832 0.000000 0.000000 0.176139 0.000000 0.000000 0.135992 0.000000 0.000000 0.110094 0.000000 0.000000 0.068671 0.000000 0.000000 0.041134 0.000000 0.000000 -0.000772 0.000000 0.000000 -0.029319 0.000000 0.000000 -0.070874 0.000000 0.000000 -0.099759 0.000000 0.000000 -0.140112 0.000000 0.000000 -0.168646 0.000000 0.000000 -0.206964 0.000000 0.000000 -0.234466 0.000000 0.000000 -0.269966 0.000000 0.000000 -0.295792 0.000000 0.000000 -0.327770 0.000000 0.000000 -0.351338 0.000000 0.000000 -0.379195 0.000000 0.000000 -0.400010 0.000000 0.000000 -0.423278 0.000000 0.000000 -0.440951 0.000000 0.000000 -0.459307 0.000000 0.000000 -0.473570 0.000000 0.000000 -0.486840 0.000000 0.000000 -0.497556 0.000000 0.000000 -0.505720 0.000000 0.000000 -0.512879 0.000000 0.000000 -0.516062 0.000000 0.000000 -0.519778 0.000000 0.000000 -0.518233 0.000000 0.000000 -0.518729 0.000000 0.000000 -0.512818 0.000000 0.000000 -0.510409 -0.000000 0.000000 -0.500577 -0.000000 0.000000 -0.495646 -0.000000 0.000000 -0.482399 0.000000 0.000000 -0.475376 -0.000000 0.000000 -0.459249 -0.000000 0.000000 -0.450582 -0.000000 0.000000 -0.432118 0.000000 0.000000 -0.422256 -0.000000 0.000000 -0.401983 0.000000 0.000000 -0.391353 -0.000000 0.000000 -0.369766 0.000000 0.000000 -0.358756 -0.000000 0.000000 -0.336303 0.000000 0.000000 -0.325252 -0.000000 0.000000 -0.302323 0.000000 0.000000 -0.291508 0.000000 0.000000 -0.268433 0.000000 0.000000 -0.258068 0.000000 0.000000 -0.235110 0.000000 0.000000 -0.225343 0.000000 0.000000 -0.202702 0.000000 0.000000 -0.193614 0.000000 0.000000 -0.171430 0.000000 0.000000 -0.163044 0.000000 0.000000 -0.141403 0.000000 0.000000 -0.133684 0.000000 0.000000 -0.112624 0.000000 0.000000 -0.105490 0.000000 0.000000 -0.085011 0.000000 0.000000 -0.078342 0.000000 0.000000 -0.058411 0.000000 0.000000 -0.052058 0.000000 0.000000 -0.032623 0.000000 0.000000 -0.026414 0.000000 0.000000 -0.007408 0.000000 0.000000 -0.001164 0.000000 0.000000 0.017483 0.000000 0.000000 0.023946 0.000000 0.000000 0.042303 0.000000 0.000000 0.049159 0.000000 0.000000 0.067287 0.000000 0.000000 0.074699 0.000000 0.000000 0.092639 0.000000 0.000000 0.100748 0.000000 0.000000 0.118526 0.000000 0.000000 0.127448 0.000000 0.000000 0.145063 0.000000 0.000000 0.154881 0.000000 0.000000 0.172305 0.000000 0.000000 0.183069 0.000000 0.000000 0.200243 0.000000 0.000000 0.211963 0.000000 0.000000 0.228798 0.000000 0.000000 0.241442 0.000000 0.000000 0.257813 0.000000 0.000000 
0.259949 -0.014620 0.000000 0.274700 -0.014982 0.000000 0.288788 -0.014575 0.000000 0.302757 -0.014852 0.000000 0.317409 -0.014333 0.000000 0.330381 -0.014501 0.000000 0.345379 -0.013854 0.000000 0.357110 -0.013890 0.000000 0.372188 -0.013101 0.000000 0.382407 -0.012983 0.000000 0.397260 -0.012042 0.000000 0.405673 -0.011752 0.000000 0.419957 -0.010648 0.000000 0.426254 -0.010171 0.000000 0.439596 -0.008902 0.000000 0.443458 -0.008225 0.000000 0.455462 -0.006791 0.000000 0.456573 -0.005911 0.000000 0.466835 -0.004318 0.000000 0.464891 -0.003236 0.000000 0.473013 -0.001498 0.000000 0.467735 -0.000224 0.000000 0.473338 0.001640 0.000000 0.464486 0.003087 0.000000 0.467232 0.005049 0.000000 0.454622 0.006642 0.000000 0.454224 0.008667 0.000000 0.437741 0.010371 0.000000 0.433984 0.012415 0.000000 0.413597 0.014189 0.000000 0.406350 0.016202 0.000000 0.382127 0.017998 0.000000 0.371352 0.019924 0.000000 0.343467 0.021689 0.000000 0.329233 0.023470 0.000000 0.297972 0.025149 0.000000 0.280454 0.026726 0.000000 0.246219 0.028263 0.000000 0.225697 0.029578 0.000000 0.189001 0.030921 0.000000 0.165860 0.031920 0.000000 0.127314 0.033022 0.000000 0.102030 0.033660 0.000000 0.062333 0.034480 0.000000 0.035462 0.034722 0.000000 -0.004622 0.035227 0.000000 -0.032463 0.035051 0.000000 -0.072130 0.035220 0.000000 -0.100284 0.034619 0.000000 -0.138718 0.034443 0.000000 -0.166509 0.033426 0.000000 -0.202913 0.032910 0.000000 -0.229678 0.031501 0.000000 -0.263302 0.030663 0.000000 -0.288411 0.028902 0.000000 -0.318585 0.027773 0.000000 -0.341473 0.025713 0.000000 -0.367628 0.024336 0.000000 -0.387814 0.022042 0.000000 -0.409510 0.020471 0.000000 -0.426620 0.018014 0.000000 -0.443556 0.016310 0.000000 -0.457334 0.013767 0.000000 -0.469356 0.011993 0.000000 -0.479674 0.009440 0.000000 -0.486776 0.007662 0.000000 -0.493633 0.005171 0.000000 -0.495950 0.003449 0.000000 -0.499464 0.001085 0.000000 -0.497253 -0.000525 0.000000 -0.497652 -0.002708 0.000000 -0.491276 -0.004160 0.000000 -0.488873 -0.006120 0.000000 -0.478774 -0.007381 0.000000 -0.473951 -0.009089 0.000000 -0.460625 -0.010135 0.000000 -0.453804 -0.011575 0.000000 -0.437777 -0.012397 0.000000 -0.429400 -0.013565 0.000000 -0.411200 -0.014163 0.000000 -0.401705 -0.015067 0.000000 -0.381845 -0.015451 0.000000 -0.371648 -0.016109 0.000000 -0.350606 -0.016298 0.000000 -0.340083 -0.016731 0.000000 -0.318289 -0.016752 0.000000 -0.307765 -0.016990 0.000000 -0.285592 -0.016872 0.000000 -0.275332 -0.016945 0.000000 -0.253093 -0.016720 0.000000 -0.243299 -0.016662 0.000000 -0.221241 -0.016363 0.000000 -0.212048 -0.016204 0.000000 -0.190357 -0.015864 0.000000 -0.181837 -0.015636 0.000000 -0.160640 -0.015285 0.000000 -0.152806 -0.015014 0.000000 -0.132179 -0.014680 0.000000 -0.124989 -0.014390 0.000000 -0.104960 -0.014097 0.000000 -0.098328 -0.013807 0.000000 -0.078890 -0.013574 0.000000 -0.072691 -0.013300 0.000000 -0.053808 -0.013142 0.000000 -0.047889 -0.012894 0.000000 -0.029504 -0.012822 0.000000 -0.023695 -0.012607 0.000000 -0.005741 -0.012625 0.000000 0.000139 -0.012446 0.000000 0.017735 -0.012555 0.000000 0.023867 -0.012410 0.000000 0.041174 -0.012607 0.000000 0.047732 -0.012492 0.000000 0.064806 -0.012770 0.000000 0.071950 -0.012676 0.000000 0.088837 -0.013025 0.000000 0.096704 -0.012943 0.000000 0.113428 -0.013350 0.000000 0.122132 -0.013268 0.000000 0.138692 -0.013717 0.000000 0.148314 -0.013621 0.000000 0.164685 -0.014094 0.000000 0.175271 -0.013969 0.000000 0.191398 -0.014447 0.000000 0.202955 -0.014277 0.000000 0.218752 -0.014739 0.000000 0.231247 -0.014507 0.000000 0.246595 -0.014931 0.000000 
0.271252 -0.028104 0.000000 0.287098 -0.028839 0.000000 0.301397 -0.028057 0.000000 0.316446 -0.028621 0.000000 0.331322 -0.027624 0.000000 0.345348 -0.027970 0.000000 0.360583 -0.026728 0.000000 0.373329 -0.026810 0.000000 0.388657 -0.025297 0.000000 0.399837 -0.025072 0.000000 0.414950 -0.023266 0.000000 0.424254 -0.022697 0.000000 0.438802 -0.020581 0.000000 0.445905 -0.019638 0.000000 0.459508 -0.017204 0.000000 0.464072 -0.015866 0.000000 0.476326 -0.013115 0.000000 0.478016 -0.011373 0.000000 0.488508 -0.008318 0.000000 0.486999 -0.006178 0.000000 0.495319 -0.002843 0.000000 0.490312 -0.000326 0.000000 0.496067 0.003248 0.000000 0.487303 0.006106 0.000000 0.490138 0.009865 0.000000 0.477414 0.013008 0.000000 0.477028 0.016881 0.000000 0.460211 0.020240 0.000000 0.456374 0.024144 0.000000 0.435420 0.027634 0.000000 0.427986 0.031471 0.000000 0.402950 0.034997 0.000000 0.391873 0.038660 0.000000 0.362926 0.042119 0.000000 0.348265 0.045495 0.000000 0.315695 0.048779 0.000000 0.297622 0.051753 0.000000 0.261840 0.054756 0.000000 0.240640 0.057218 0.000000 0.202175 0.059838 0.000000 0.178240 0.061687 0.000000 0.137732 0.063830 0.000000 0.111552 0.064981 0.000000 0.069733 0.066568 0.000000 0.041881 0.066955 0.000000 -0.000443 0.067925 0.000000 -0.029326 0.067508 0.000000 -0.071305 0.067821 0.000000 -0.100535 0.066588 0.000000 -0.141304 0.066226 0.000000 -0.170179 0.064195 0.000000 -0.208889 0.063168 0.000000 -0.236714 0.060389 0.000000 -0.272566 0.058734 0.000000 -0.298683 0.055283 0.000000 -0.330959 0.053061 0.000000 -0.354774 0.049043 0.000000 -0.382866 0.046342 0.000000 -0.403875 0.041882 0.000000 -0.427306 0.038806 0.000000 -0.445112 0.034045 0.000000 -0.463554 0.030714 0.000000 -0.477887 0.025800 0.000000 -0.491167 0.022340 0.000000 -0.501887 0.017420 0.000000 -0.509990 0.013959 0.000000 -0.517091 0.009173 0.000000 -0.520148 0.005832 0.000000 -0.523752 0.001304 0.000000 -0.522026 -0.001812 0.000000 -0.522365 -0.005977 0.000000 -0.516230 -0.008779 0.000000 -0.513629 -0.012502 0.000000 -0.503545 -0.014923 0.000000 -0.498400 -0.018149 0.000000 -0.484885 -0.020147 0.000000 -0.477637 -0.022848 0.000000 -0.461238 -0.024404 0.000000 -0.452347 -0.026577 0.000000 -0.433620 -0.027695 0.000000 -0.423544 -0.029355 0.000000 -0.403024 -0.030057 0.000000 -0.392200 -0.031239 0.000000 -0.370389 -0.031565 0.000000 -0.359210 -0.032317 0.000000 -0.336562 -0.032318 0.000000 -0.325371 -0.032697 0.000000 -0.302278 -0.032432 0.000000 -0.291357 -0.032499 0.000000 -0.268149 -0.032033 0.000000 -0.257711 -0.031852 0.000000 -0.234653 -0.031251 0.000000 -0.224844 -0.030884 0.000000 -0.202133 -0.030211 0.000000 -0.193035 -0.029716 0.000000 -0.170808 -0.029031 0.000000 -0.162439 -0.028462 0.000000 -0.140779 -0.027817 0.000000 -0.133100 -0.027218 0.000000 -0.112041 -0.026661 0.000000 -0.104967 -0.026070 0.000000 -0.084504 -0.025637 0.000000 -0.077910 -0.025082 0.000000 -0.058006 -0.024802 0.000000 -0.051737 -0.024304 0.000000 -0.032335 -0.024194 0.000000 -0.026217 -0.023764 0.000000 -0.007247 -0.023835 0.000000 -0.001094 -0.023476 0.000000 0.017519 -0.023728 0.000000 0.023894 -0.023438 0.000000 0.042222 -0.023864 0.000000 0.048997 -0.023633 0.000000 0.067102 -0.024218 0.000000 0.074443 -0.024031 0.000000 0.092372 -0.024755 0.000000 0.100424 -0.024591 0.000000 0.118201 -0.025427 0.000000 0.127081 -0.025264 0.000000 0.144710 -0.026182 0.000000 0.154504 -0.025993 0.000000 0.171957 -0.026957 0.000000 0.182716 -0.026713 0.000000 0.199935 -0.027684 0.000000 0.211672 -0.027354 0.000000 0.228568 -0.028292 0.000000 0.241250 -0.027844 0.000000 0.257700 -0.028703 0.000000 
0.259813 -0.044018 0.000000 0.274747 -0.045127 0.000000 0.289007 -0.043924 0.000000 0.303190 -0.044777 0.000000 0.318061 -0.043235 0.000000 0.331277 -0.043762 0.000000 0.346539 -0.041834 0.000000 0.358541 -0.041964 0.000000 0.373926 -0.039609 0.000000 0.384438 -0.039276 0.000000 0.399636 -0.036459 0.000000 0.408358 -0.035604 0.000000 0.423017 -0.032299 0.000000 0.429632 -0.030876 0.000000 0.443368 -0.027069 0.000000 0.447548 -0.025044 0.000000 0.459955 -0.020735 0.000000 0.461371 -0.018093 0.000000 0.472031 -0.013301 0.000000 0.470367 -0.010047 0.000000 0.478866 -0.004810 0.000000 0.473827 -0.000973 0.000000 0.479771 0.004649 0.000000 0.471103 0.009015 0.000000 0.474135 0.014938 0.000000 0.461639 0.019752 0.000000 0.461457 0.025869 0.000000 0.445004 0.031026 0.000000 0.441379 0.037207 0.000000 0.420924 0.042578 0.000000 0.413713 0.048671 0.000000 0.389316 0.054111 0.000000 0.378474 0.059949 0.000000 0.350301 0.065297 0.000000 0.335893 0.070702 0.000000 0.304231 0.075791 0.000000 0.286431 0.080580 0.000000 0.251684 0.085245 0.000000 0.230779 0.089242 0.000000 0.193469 0.093321 0.000000 0.169852 0.096363 0.000000 0.130607 0.099711 0.000000 0.104768 0.101659 0.000000 0.064307 0.104150 0.000000 0.036819 0.104898 0.000000 -0.004069 0.106434 0.000000 -0.032568 0.105913 0.000000 -0.073051 0.106430 0.000000 -0.101879 0.104618 0.000000 -0.141111 0.104087 0.000000 -0.169567 0.101011 0.000000 -0.206720 0.099445 0.000000 -0.234113 0.095178 0.000000 -0.268408 0.092632 0.000000 -0.294084 0.087295 0.000000 -0.324824 0.083864 0.000000 -0.348192 0.077620 0.000000 -0.374789 0.073437 0.000000 -0.395350 0.066481 0.000000 -0.417347 0.061708 0.000000 -0.434712 0.054262 0.000000 -0.451801 0.049084 0.000000 -0.465707 0.041380 0.000000 -0.477735 0.035993 0.000000 -0.488054 0.028263 0.000000 -0.495023 0.022866 0.000000 -0.501760 0.015329 0.000000 -0.503819 0.010110 0.000000 -0.507108 0.002963 0.000000 -0.504535 -0.001912 0.000000 -0.504619 -0.008504 0.000000 -0.497801 -0.012896 0.000000 -0.495018 -0.018805 0.000000 -0.484422 -0.022610 0.000000 -0.479176 -0.027749 0.000000 -0.465325 -0.030899 0.000000 -0.458062 -0.035222 0.000000 -0.441506 -0.037686 0.000000 -0.432690 -0.041184 0.000000 -0.413978 -0.042966 0.000000 -0.404068 -0.045663 0.000000 -0.383730 -0.046796 0.000000 -0.373157 -0.048744 0.000000 -0.351685 -0.049288 0.000000 -0.340836 -0.050559 0.000000 -0.318669 -0.050592 0.000000 -0.307879 -0.051273 0.000000 -0.285395 -0.050886 0.000000 -0.274934 -0.051074 0.000000 -0.252447 -0.050366 0.000000 -0.242517 -0.050158 0.000000 -0.220273 -0.049230 0.000000 -0.211008 -0.048724 0.000000 -0.189189 -0.047674 0.000000 -0.180657 -0.046960 0.000000 -0.159385 -0.045881 0.000000 -0.151593 -0.045043 0.000000 -0.130935 -0.044019 0.000000 -0.123833 -0.043127 0.000000 -0.103812 -0.042230 0.000000 -0.097304 -0.041344 0.000000 -0.077903 -0.040631 0.000000 -0.071856 -0.039798 0.000000 -0.053029 -0.039315 0.000000 -0.047282 -0.038565 0.000000 -0.028964 -0.038342 0.000000 -0.023336 -0.037696 0.000000 -0.005453 -0.037748 0.000000 0.000246 -0.037212 0.000000 0.017774 -0.037542 0.000000 0.023732 -0.037112 0.000000 0.040979 -0.037710 0.000000 0.047377 -0.037372 0.000000 0.064409 -0.038216 0.000000 0.071413 -0.037946 0.000000 0.088277 -0.039005 0.000000 0.096032 -0.038773 0.000000 0.112755 -0.040008 0.000000 0.121377 -0.039777 0.000000 0.137964 -0.041139 0.000000 0.147539 -0.040868 0.000000 0.163965 -0.042306 0.000000 0.174544 -0.041948 0.000000 0.190756 -0.043403 0.000000 0.202348 -0.042910 0.000000 0.218262 -0.044317 0.000000 0.230835 -0.043639 0.000000 0.246335 -0.044933 0.000000 
0.271058 -0.056516 0.000000 0.287192 -0.058032 0.000000 0.301747 -0.056501 0.000000 0.317134 -0.057675 0.000000 0.332338 -0.055712 0.000000 0.346749 -0.056448 0.000000 0.362381 -0.053992 0.000000 0.375555 -0.054197 0.000000 0.391345 -0.051194 0.000000 0.402988 -0.050782 0.000000 0.418621 -0.047186 0.000000 0.428414 -0.046078 0.000000 0.443530 -0.041855 0.000000 0.451135 -0.039989 0.000000 0.465340 -0.035120 0.000000 0.470405 -0.032453 0.000000 0.483277 -0.026939 0.000000 0.485450 -0.023450 0.000000 0.496555 -0.017313 0.000000 0.495490 -0.013012 0.000000 0.504393 -0.006303 0.000000 0.499771 -0.001231 0.000000 0.506055 0.005972 0.000000 0.497592 0.011742 0.000000 0.500876 0.019329 0.000000 0.488345 0.025686 0.000000 0.488303 0.033516 0.000000 0.471549 0.040319 0.000000 0.467927 0.048223 0.000000 0.446884 0.055300 0.000000 0.439520 0.063079 0.000000 0.414229 0.070236 0.000000 0.403061 0.077674 0.000000 0.373679 0.084700 0.000000 0.358761 0.091565 0.000000 0.325575 0.098242 0.000000 0.307078 0.104300 0.000000 0.270503 0.110408 0.000000 0.248718 0.115433 0.000000 0.209298 0.120765 0.000000 0.184632 0.124549 0.000000 0.143030 0.128914 0.000000 0.115993 0.131281 0.000000 0.072973 0.134517 0.000000 0.044167 0.135331 0.000000 0.000574 0.137312 0.000000 -0.029329 0.136490 0.000000 -0.072599 0.137131 0.000000 -0.102877 0.134648 0.000000 -0.144912 0.133914 0.000000 -0.174821 0.129804 0.000000 -0.214722 0.127714 0.000000 -0.243527 0.122077 0.000000 -0.280449 0.118704 0.000000 -0.307451 0.111698 0.000000 -0.340634 0.107170 0.000000 -0.365203 0.099009 0.000000 -0.394005 0.093500 0.000000 -0.415604 0.084441 0.000000 -0.439526 0.078168 0.000000 -0.457737 0.068499 0.000000 -0.476437 0.061709 0.000000 -0.490977 0.051734 0.000000 -0.504284 0.044686 0.000000 -0.515014 0.034708 0.000000 -0.522923 0.027666 0.000000 -0.529847 0.017970 0.000000 -0.532513 0.011179 0.000000 -0.535773 0.002020 0.000000 -0.533492 -0.004300 0.000000 -0.533347 -0.012711 0.000000 -0.526530 -0.018380 0.000000 -0.523342 -0.025881 0.000000 -0.512489 -0.030765 0.000000 -0.506688 -0.037246 0.000000 -0.492357 -0.041260 0.000000 -0.484423 -0.046668 0.000000 -0.467199 -0.049776 0.000000 -0.457626 -0.054104 0.000000 -0.438098 -0.056317 0.000000 -0.427374 -0.059603 0.000000 -0.406105 -0.060968 0.000000 -0.394691 -0.063285 0.000000 -0.372204 -0.063886 0.000000 -0.360514 -0.065333 0.000000 -0.337276 -0.065275 0.000000 -0.325665 -0.065970 0.000000 -0.302079 -0.065377 0.000000 -0.290836 -0.065448 0.000000 -0.267233 -0.064451 0.000000 -0.256575 -0.064026 0.000000 -0.233218 -0.062760 0.000000 -0.223289 -0.061968 0.000000 -0.200370 -0.060561 0.000000 -0.191243 -0.059520 0.000000 -0.168891 -0.058095 0.000000 -0.160577 -0.056911 0.000000 -0.138863 -0.055577 0.000000 -0.131311 -0.054342 0.000000 -0.110258 -0.053190 0.000000 -0.103369 -0.051979 0.000000 -0.082957 -0.051085 0.000000 -0.076593 -0.049956 0.000000 -0.056773 -0.049376 0.000000 -0.050765 -0.048368 0.000000 -0.031466 -0.048140 0.000000 -0.025623 -0.047275 0.000000 -0.006763 -0.047416 0.000000 -0.000888 -0.046703 0.000000 0.017619 -0.047214 0.000000 0.023726 -0.046644 0.000000 0.041962 -0.047510 0.000000 0.048491 -0.047062 0.000000 0.066528 -0.048254 0.000000 0.073654 -0.047898 0.000000 0.091545 -0.049373 0.000000 0.099421 -0.049069 0.000000 0.117198 -0.050773 0.000000 0.125949 -0.050473 0.000000 0.143618 -0.052344 0.000000 0.153338 -0.051994 0.000000 0.170876 -0.053961 0.000000 0.181620 -0.053504 0.000000 0.198974 -0.055488 0.000000 0.210757 -0.054860 0.000000 0.227839 -0.056779 0.000000 0.240635 -0.055916 0.000000 0.257322 -0.057680 0.000000 
0.259461 -0.073888 0.000000 0.274762 -0.075816 0.000000 0.289364 -0.073866 0.000000 0.303980 -0.075368 0.000000 0.319288 -0.072850 0.000000 0.332997 -0.073805 0.000000 0.348789 -0.070640 0.000000 0.361339 -0.070928 0.000000 0.377342 -0.067042 0.000000 0.388447 -0.066551 0.000000 0.404340 -0.061885 0.000000 0.413689 -0.060513 0.000000 0.429107 -0.055020 0.000000 0.436367 -0.052685 0.000000 0.450906 -0.046339 0.000000 0.455730 -0.042981 0.000000 0.468959 -0.035780 0.000000 0.470997 -0.031370 0.000000 0.482470 -0.023342 0.000000 0.481378 -0.017885 0.000000 0.490649 -0.009091 0.000000 0.486103 -0.002634 0.000000 0.492745 0.006828 0.000000 0.484461 0.014194 0.000000 0.488081 0.024185 0.000000 0.475827 0.032325 0.000000 0.476092 0.042666 0.000000 0.459710 0.051401 0.000000 0.456361 0.061871 0.000000 0.435782 0.070985 0.000000 0.428651 0.081327 0.000000 0.403911 0.090570 0.000000 0.392940 0.100498 0.000000 0.364193 0.109596 0.000000 0.349436 0.118806 0.000000 0.316965 0.127475 0.000000 0.298597 0.135653 0.000000 0.262816 0.143605 0.000000 0.241135 0.150446 0.000000 0.202583 0.157407 0.000000 0.178000 0.162632 0.000000 0.137338 0.168350 0.000000 0.110370 0.171716 0.000000 0.068357 0.175976 0.000000 0.039613 0.177297 0.000000 -0.002911 0.179929 0.000000 -0.032749 0.179087 0.000000 -0.074895 0.179978 0.000000 -0.105096 0.176931 0.000000 -0.145955 0.176031 0.000000 -0.175767 0.170821 0.000000 -0.214447 0.168151 0.000000 -0.243123 0.160904 0.000000 -0.278786 0.156556 0.000000 -0.305618 0.147480 0.000000 -0.337513 0.141616 0.000000 -0.361861 0.130991 0.000000 -0.389356 0.123838 0.000000 -0.410681 0.112002 0.000000 -0.433288 0.103841 0.000000 -0.451171 0.091174 0.000000 -0.468566 0.082324 0.000000 -0.482729 0.069227 0.000000 -0.494761 0.060030 0.000000 -0.505074 0.046902 0.000000 -0.511762 0.037700 0.000000 -0.518247 0.024920 0.000000 -0.519770 0.016036 0.000000 -0.522587 0.003941 0.000000 -0.519267 -0.004337 0.000000 -0.518700 -0.015465 0.000000 -0.510972 -0.022901 0.000000 -0.507403 -0.032846 0.000000 -0.495789 -0.039263 0.000000 -0.489672 -0.047881 0.000000 -0.474748 -0.053165 0.000000 -0.466579 -0.060380 0.000000 -0.448944 -0.064483 0.000000 -0.439232 -0.070286 0.000000 -0.419478 -0.073218 0.000000 -0.408721 -0.077656 0.000000 -0.387414 -0.079479 0.000000 -0.376075 -0.082645 0.000000 -0.353733 -0.083465 0.000000 -0.342227 -0.085487 0.000000 -0.319307 -0.085440 0.000000 -0.307982 -0.086470 0.000000 -0.284873 -0.085715 0.000000 -0.274008 -0.085919 0.000000 -0.251026 -0.084626 0.000000 -0.240826 -0.084174 0.000000 -0.218214 -0.082516 0.000000 -0.208810 -0.081572 0.000000 -0.186741 -0.079719 0.000000 -0.178191 -0.078439 0.000000 -0.156777 -0.076548 0.000000 -0.149074 -0.075072 0.000000 -0.128366 -0.073284 0.000000 -0.121447 -0.071733 0.000000 -0.101449 -0.070172 0.000000 -0.095200 -0.068644 0.000000 -0.075879 -0.067407 0.000000 -0.070147 -0.065981 0.000000 -0.051441 -0.065144 0.000000 -0.046045 -0.063872 0.000000 -0.027871 -0.063483 0.000000 -0.022613 -0.062398 0.000000 -0.004880 -0.062483 0.000000 0.000448 -0.061595 0.000000 0.017833 -0.062156 0.000000 0.023436 -0.061456 0.000000 0.040560 -0.062476 0.000000 0.046633 -0.061938 0.000000 0.063573 -0.063379 0.000000 0.070295 -0.062963 0.000000 0.087106 -0.064772 0.000000 0.094632 -0.064426 0.000000 0.111351 -0.066536 0.000000 0.119806 -0.066197 0.000000 0.136442 -0.068528 0.000000 0.145922 -0.068126 0.000000 0.162456 -0.070588 0.000000 0.173016 -0.070046 0.000000 0.189400 -0.072540 0.000000 0.201057 -0.071775 0.000000 0.217207 -0.074195 0.000000 0.229935 -0.073122 0.000000 0.245735 -0.075356 0.000000 
0.270597 -0.085542 0.000000 0.287214 -0.087936 0.000000 0.302195 -0.085719 0.000000 0.318149 -0.087598 0.000000 0.333901 -0.084729 0.000000 0.348960 -0.085949 0.000000 0.365259 -0.082334 0.000000 0.379152 -0.082750 0.000000 0.395722 -0.078303 0.000000 0.408145 -0.077780 0.000000 0.424659 -0.072428 0.000000 0.435278 -0.070845 0.000000 0.451358 -0.064533 0.000000 0.459815 -0.061788 0.000000 0.475044 -0.054484 0.000000 0.480963 -0.050506 0.000000 0.494889 -0.042205 0.000000 0.497888 -0.036961 0.000000 0.510040 -0.027694 0.000000 0.509741 -0.021191 0.000000 0.519644 -0.011029 0.000000 0.515689 -0.003326 0.000000 0.522883 0.007615 0.000000 0.514949 0.016405 0.000000 0.519008 0.027962 0.000000 0.506825 0.037674 0.000000 0.507380 0.049633 0.000000 0.490754 0.060050 0.000000 0.487512 0.072152 0.000000 0.466341 0.083009 0.000000 0.459107 0.094950 0.000000 0.433401 0.105948 0.000000 0.422091 0.117392 0.000000 0.391989 0.128204 0.000000 0.376643 0.138793 0.000000 0.342423 0.149080 0.000000 0.323212 0.158449 0.000000 0.285299 0.167871 0.000000 0.262525 0.175666 0.000000 0.221486 0.183899 0.000000 0.195579 0.189794 0.000000 0.152117 0.196544 0.000000 0.123622 0.200261 0.000000 0.078557 0.205273 0.000000 0.048122 0.206599 0.000000 0.002366 0.209674 0.000000 -0.029279 0.208474 0.000000 -0.074754 0.209479 0.000000 -0.106823 0.205708 0.000000 -0.151021 0.204585 0.000000 -0.182701 0.198296 0.000000 -0.224639 0.195071 0.000000 -0.255123 0.186416 0.000000 -0.293873 0.181199 0.000000 -0.322392 0.170425 0.000000 -0.357124 0.163413 0.000000 -0.382982 0.150852 0.000000 -0.412995 0.142319 0.000000 -0.435602 0.128373 0.000000 -0.460355 0.118658 0.000000 -0.479254 0.103778 0.000000 -0.498384 0.093267 0.000000 -0.513271 0.077929 0.000000 -0.526608 0.067032 0.000000 -0.537343 0.051710 0.000000 -0.544904 0.040838 0.000000 -0.551509 0.025978 0.000000 -0.553491 0.015519 0.000000 -0.556144 0.001516 0.000000 -0.552896 -0.008188 0.000000 -0.551909 -0.021006 0.000000 -0.543910 -0.029677 0.000000 -0.539701 -0.041063 0.000000 -0.527521 -0.048495 0.000000 -0.520588 -0.058287 0.000000 -0.504855 -0.064353 0.000000 -0.495739 -0.072473 0.000000 -0.477104 -0.077124 0.000000 -0.466359 -0.083570 0.000000 -0.445466 -0.086827 0.000000 -0.433634 -0.091667 0.000000 -0.411093 -0.093614 0.000000 -0.398675 -0.096966 0.000000 -0.375045 -0.097735 0.000000 -0.362488 -0.099760 0.000000 -0.338259 -0.099521 0.000000 -0.325940 -0.100405 0.000000 -0.301527 -0.099351 0.000000 -0.289747 -0.099294 0.000000 -0.265487 -0.097633 0.000000 -0.254465 -0.096838 0.000000 -0.230616 -0.094776 0.000000 -0.220492 -0.093440 0.000000 -0.197236 -0.091179 0.000000 -0.188072 -0.089485 0.000000 -0.165524 -0.087212 0.000000 -0.157314 -0.085322 0.000000 -0.135525 -0.083204 0.000000 -0.128199 -0.081259 0.000000 -0.107169 -0.079437 0.000000 -0.100606 -0.077549 0.000000 -0.080294 -0.076138 0.000000 -0.074330 -0.074394 0.000000 -0.054664 -0.073478 0.000000 -0.049104 -0.071937 0.000000 -0.029991 -0.071572 0.000000 -0.024623 -0.070266 0.000000 -0.005960 -0.070477 0.000000 -0.000562 -0.069416 0.000000 0.017758 -0.070202 0.000000 0.023406 -0.069371 0.000000 0.041481 -0.070708 0.000000 0.047588 -0.070075 0.000000 0.065503 -0.071915 0.000000 0.072261 -0.071432 0.000000 0.090082 -0.073710 0.000000 0.097658 -0.073313 0.000000 0.115427 -0.075948 0.000000 0.123958 -0.075565 0.000000 0.141690 -0.078460 0.000000 0.151278 -0.078008 0.000000 0.168957 -0.081056 0.000000 0.179668 -0.080447 0.000000 0.197244 -0.083529 0.000000 0.209101 -0.082668 0.000000 0.226491 -0.085657 0.000000 0.239474 -0.084445 0.000000 0.256557 -0.087207 0.000000 
0.258732 -0.104545 0.000000 0.274586 -0.107413 0.000000 0.289702 -0.104801 0.000000 0.304970 -0.107074 0.000000 0.320938 -0.103661 0.000000 0.335393 -0.105163 0.000000 0.351989 -0.100832 0.000000 0.365370 -0.101391 0.000000 0.382313 -0.096036 0.000000 0.394323 -0.095488 0.000000 0.411277 -0.089017 0.000000 0.421586 -0.087213 0.000000 0.438165 -0.079557 0.000000 0.446417 -0.076371 0.000000 0.462189 -0.067486 0.000000 0.468010 -0.062826 0.000000 0.482507 -0.052705 0.000000 0.485510 -0.046521 0.000000 0.498243 -0.035195 0.000000 0.498044 -0.027490 0.000000 0.508516 -0.015039 0.000000 0.504749 -0.005873 0.000000 0.512479 0.007568 0.000000 0.504809 0.018069 0.000000 0.509353 0.032309 0.000000 0.497500 0.043953 0.000000 0.498471 0.058737 0.000000 0.482230 0.071269 0.000000 0.479323 0.086284 0.000000 0.458581 0.099390 0.000000 0.451593 0.114267 0.000000 0.426353 0.127586 0.000000 0.415198 0.141911 0.000000 0.385593 0.155045 0.000000 0.370312 0.168372 0.000000 0.336619 0.180905 0.000000 0.317389 0.192777 0.000000 0.280031 0.204292 0.000000 0.257163 0.214259 0.000000 0.216710 0.224354 0.000000 0.190644 0.232001 0.000000 0.147803 0.240307 0.000000 0.119098 0.245276 0.000000 0.074693 0.251476 0.000000 0.044013 0.253488 0.000000 -0.001038 0.257331 0.000000 -0.032946 0.256207 0.000000 -0.077662 0.257523 0.000000 -0.109991 0.253197 0.000000 -0.153367 0.251909 0.000000 -0.185282 0.244439 0.000000 -0.226328 0.240572 0.000000 -0.256995 0.230139 0.000000 -0.294777 0.223825 0.000000 -0.323404 0.210731 0.000000 -0.357085 0.202206 0.000000 -0.382955 0.186862 0.000000 -0.411834 0.176458 0.000000 -0.434341 0.159361 0.000000 -0.457882 0.147492 0.000000 -0.476561 0.129203 0.000000 -0.494415 0.116342 0.000000 -0.508963 0.097451 0.000000 -0.520980 0.084101 0.000000 -0.531268 0.065198 0.000000 -0.537495 0.051866 0.000000 -0.543566 0.033507 0.000000 -0.544233 0.020670 0.000000 -0.546295 0.003347 0.000000 -0.541791 -0.008573 0.000000 -0.540190 -0.024451 0.000000 -0.531031 -0.035109 0.000000 -0.526222 -0.049235 0.000000 -0.513015 -0.058376 0.000000 -0.505532 -0.070547 0.000000 -0.488937 -0.078014 0.000000 -0.479351 -0.088131 0.000000 -0.460043 -0.093862 0.000000 -0.448937 -0.101924 0.000000 -0.427577 -0.105943 0.000000 -0.415509 -0.112029 0.000000 -0.392715 -0.114438 0.000000 -0.380198 -0.118693 0.000000 -0.356529 -0.119652 0.000000 -0.344014 -0.122273 0.000000 -0.319953 -0.121988 0.000000 -0.307813 -0.123202 0.000000 -0.283763 -0.121909 0.000000 -0.272290 -0.121959 0.000000 -0.248570 -0.119909 0.000000 -0.237970 -0.119045 0.000000 -0.214816 -0.116490 0.000000 -0.205214 -0.114952 0.000000 -0.182786 -0.112138 0.000000 -0.174225 -0.110151 0.000000 -0.152614 -0.107306 0.000000 -0.145067 -0.105071 0.000000 -0.124302 -0.102400 0.000000 -0.117680 -0.100089 0.000000 -0.097739 -0.097765 0.000000 -0.091901 -0.095519 0.000000 -0.072724 -0.093683 0.000000 -0.067487 -0.091612 0.000000 -0.048984 -0.090369 0.000000 -0.044138 -0.088545 0.000000 -0.026200 -0.087964 0.000000 -0.021518 -0.086430 0.000000 -0.004029 -0.086545 0.000000 0.000723 -0.085312 0.000000 0.017878 -0.086124 0.000000 0.022930 -0.085178 0.000000 0.039857 -0.086658 0.000000 0.045426 -0.085960 0.000000 0.062217 -0.088052 0.000000 0.068500 -0.087542 0.000000 0.085225 -0.090169 0.000000 0.092394 -0.089771 0.000000 0.109099 -0.092836 0.000000 0.117295 -0.092460 0.000000 0.133999 -0.095848 0.000000 0.143326 -0.095393 0.000000 0.160018 -0.098978 0.000000 0.170543 -0.098333 0.000000 0.187179 -0.101973 0.000000 0.198929 -0.101022 0.000000 0.215430 -0.104568 0.000000 0.228385 -0.103188 0.000000 0.244638 -0.106479 0.000000 