# vtk DataFile Version 2.0
Comment goes here
ASCII

DATASET STRUCTURED_POINTS
FIELD FieldData 1
TIME 1 1 double
0.15000000
DIMENSIONS    128   128   1

ORIGIN    0.000   0.000   0.000
SPACING   0.039062 0.039062   1.000

POINT_DATA   16384
VECTORS u double

-0.192696 0.000000 0.000000 -0.177001 0.000000 0.000000 -0.161399 0.000000 0.000000 -0.144168 0.000000 0.000000 -0.127868 0.000000 0.000000 -0.109319 0.000000 0.000000 -0.092522 0.000000 0.000000 -0.072892 0.000000 0.000000 -0.055815 0.000000 0.000000 -0.035359 0.000000 0.000000 -0.018229 0.000000 0.000000 0.002786 0.000000 0.000000 0.019729 0.000000 0.000000 0.041029 0.000000 0.000000 0.057542 0.000000 0.000000 0.078849 0.000000 0.000000 0.094690 0.000000 0.000000 0.115727 0.000000 0.000000 0.130659 0.000000 0.000000 0.151160 0.000000 0.000000 0.164958 0.000000 0.000000 0.184666 0.000000 0.000000 0.197124 0.000000 0.000000 0.215803 0.000000 0.000000 0.226738 0.000000 0.000000 0.244176 0.000000 0.000000 0.253431 0.000000 0.000000 0.269444 0.000000 0.000000 0.276897 0.000000 0.000000 0.291333 0.000000 0.000000 0.296895 0.000000 0.000000 0.309631 0.000000 0.000000 0.313251 0.000000 0.000000 0.324199 0.000000 0.000000 0.325860 0.000000 0.000000 0.334963 0.000000 0.000000 0.334685 0.000000 0.000000 0.341914 0.000000 0.000000 0.339748 0.000000 0.000000 0.345099 0.000000 0.000000 0.341124 0.000000 0.000000 0.344617 0.000000 0.000000 0.338937 0.000000 0.000000 0.340608 0.000000 0.000000 0.333348 0.000000 0.000000 0.333248 0.000000 0.000000 0.324547 0.000000 0.000000 0.322740 0.000000 0.000000 0.312750 0.000000 0.000000 0.309306 0.000000 0.000000 0.298187 0.000000 0.000000 0.293185 0.000000 0.000000 0.281103 0.000000 0.000000 0.274627 0.000000 0.000000 0.261751 0.000000 0.000000 0.253888 0.000000 0.000000 0.240387 0.000000 0.000000 0.231230 0.000000 0.000000 0.217273 0.000000 0.000000 0.206921 0.000000 0.000000 0.192673 0.000000 0.000000 0.181227 0.000000 0.000000 0.166851 0.000000 0.000000 0.154415 0.000000 0.000000 0.140066 0.000000 0.000000 0.126752 0.000000 0.000000 0.112577 0.000000 0.000000 0.098495 0.000000 0.000000 0.084632 0.000000 0.000000 0.069895 0.000000 0.000000 0.056466 0.000000 0.000000 0.041187 0.000000 0.000000 0.028302 0.000000 0.000000 0.012589 0.000000 0.000000 0.000337 0.000000 0.000000 -0.015704 0.000000 0.000000 -0.027250 0.000000 0.000000 -0.043520 0.000000 0.000000 -0.054311 0.000000 0.000000 -0.070715 0.000000 0.000000 -0.080722 0.000000 0.000000 -0.097173 0.000000 0.000000 -0.106384 0.000000 0.000000 -0.122798 0.000000 0.000000 -0.131218 0.000000 0.000000 -0.147514 0.000000 0.000000 -0.155160 0.000000 0.000000 -0.171253 0.000000 0.000000 -0.178148 0.000000 0.000000 -0.193948 0.000000 0.000000 -0.200115 0.000000 0.000000 -0.215524 0.000000 0.000000 -0.220978 0.000000 0.000000 -0.235882 0.000000 0.000000 -0.240628 0.000000 0.000000 -0.254896 0.000000 0.000000 -0.258921 0.000000 0.000000 -0.272408 0.000000 0.000000 -0.275679 0.000000 0.000000 -0.288218 0.000000 0.000000 -0.290683 0.000000 0.000000 -0.302098 0.000000 0.000000 -0.303683 0.000000 0.000000 -0.313789 0.000000 0.000000 -0.314408 0.000000 0.000000 -0.323017 0.000000 0.000000 -0.322574 0.000000 0.000000 -0.329504 0.000000 0.000000 -0.327901 0.000000 0.000000 -0.332985 0.000000 0.000000 -0.330129 0.000000 0.000000 -0.333223 0.000000 0.000000 -0.329035 0.000000 0.000000 -0.330021 0.000000 0.000000 -0.324441 0.000000 0.000000 -0.323237 0.000000 0.000000 -0.316228 0.000000 0.000000 -0.312788 0.000000 0.000000 -0.304342 0.000000 0.000000 -0.298660 0.000000 0.000000 -0.288798 0.000000 0.000000 -0.280906 0.000000 0.000000 -0.269680 0.000000 0.000000 -0.259647 0.000000 0.000000 -0.247137 0.000000 0.000000 -0.235069 0.000000 0.000000 -0.221385 0.000000 0.000000 -0.207420 0.000000 0.000000 
-0.191923 -0.015209 0.000000 -0.176207 -0.015649 0.000000 -0.160632 -0.016417 0.000000 -0.143390 -0.016765 0.000000 -0.127114 -0.017424 0.000000 -0.108563 -0.017673 0.000000 -0.091785 -0.018213 0.000000 -0.072161 -0.018354 0.000000 -0.055098 -0.018767 0.000000 -0.034653 -0.018793 0.000000 -0.017533 -0.019072 0.000000 0.003467 -0.018979 0.000000 0.020404 -0.019121 0.000000 0.041686 -0.018907 0.000000 0.058197 -0.018910 0.000000 0.079484 -0.018574 0.000000 0.095327 -0.018439 0.000000 0.116342 -0.017985 0.000000 0.131279 -0.017716 0.000000 0.151755 -0.017149 0.000000 0.165562 -0.016753 0.000000 0.185243 -0.016083 0.000000 0.197711 -0.015569 0.000000 0.216361 -0.014807 0.000000 0.227306 -0.014186 0.000000 0.244713 -0.013347 0.000000 0.253978 -0.012634 0.000000 0.269958 -0.011733 0.000000 0.277419 -0.010944 0.000000 0.291818 -0.009999 0.000000 0.297387 -0.009149 0.000000 0.310084 -0.008178 0.000000 0.313708 -0.007284 0.000000 0.324613 -0.006305 0.000000 0.326278 -0.005382 0.000000 0.335334 -0.004413 0.000000 0.335057 -0.003475 0.000000 0.342236 -0.002531 0.000000 0.340069 -0.001593 0.000000 0.345367 -0.000688 0.000000 0.341390 0.000241 0.000000 0.344826 0.001094 0.000000 0.339144 0.002004 0.000000 0.340754 0.002795 0.000000 0.333493 0.003680 0.000000 0.333329 0.004400 0.000000 0.324628 0.005254 0.000000 0.322753 0.005899 0.000000 0.312765 0.006717 0.000000 0.309249 0.007281 0.000000 0.298136 0.008060 0.000000 0.293057 0.008542 0.000000 0.280983 0.009279 0.000000 0.274426 0.009676 0.000000 0.261561 0.010370 0.000000 0.253613 0.010682 0.000000 0.240125 0.011329 0.000000 0.230880 0.011557 0.000000 0.216939 0.012155 0.000000 0.206492 0.012300 0.000000 0.192263 0.012847 0.000000 0.180719 0.012911 0.000000 0.166363 0.013406 0.000000 0.153828 0.013392 0.000000 0.139501 0.013832 0.000000 0.126084 0.013745 0.000000 0.111932 0.014128 0.000000 0.097747 0.013973 0.000000 0.083908 0.014300 0.000000 0.069070 0.014083 0.000000 0.055667 0.014354 0.000000 0.040289 0.014082 0.000000 0.027430 0.014299 0.000000 0.011626 0.013982 0.000000 -0.000599 0.014146 0.000000 -0.016722 0.013794 0.000000 -0.028242 0.013908 0.000000 -0.044582 0.013531 0.000000 -0.055347 0.013598 0.000000 -0.071807 0.013205 0.000000 -0.081787 0.013229 0.000000 -0.098277 0.012831 0.000000 -0.107461 0.012813 0.000000 -0.123895 0.012417 0.000000 -0.132290 0.012358 0.000000 -0.148584 0.011971 0.000000 -0.156206 0.011869 0.000000 -0.172276 0.011494 0.000000 -0.179149 0.011348 0.000000 -0.194905 0.010984 0.000000 -0.201052 0.010788 0.000000 -0.216395 0.010432 0.000000 -0.221834 0.010179 0.000000 -0.236650 0.009825 0.000000 -0.241386 0.009507 0.000000 -0.255548 0.009147 0.000000 -0.259568 0.008756 0.000000 -0.272931 0.008379 0.000000 -0.276203 0.007905 0.000000 -0.288606 0.007502 0.000000 -0.291077 0.006940 0.000000 -0.302345 0.006500 0.000000 -0.303942 0.005845 0.000000 -0.313894 0.005362 0.000000 -0.314531 0.004614 0.000000 -0.322982 0.004083 0.000000 -0.322562 0.003243 0.000000 -0.329335 0.002663 0.000000 -0.327759 0.001741 0.000000 -0.332690 0.001114 0.000000 -0.329865 0.000119 0.000000 -0.332813 -0.000547 0.000000 -0.328659 -0.001601 0.000000 -0.329510 -0.002297 0.000000 -0.323965 -0.003392 0.000000 -0.322639 -0.004106 0.000000 -0.315666 -0.005224 0.000000 -0.312119 -0.005943 0.000000 -0.303710 -0.007064 0.000000 -0.297935 -0.007772 0.000000 -0.288110 -0.008877 0.000000 -0.280141 -0.009559 0.000000 -0.268951 -0.010630 0.000000 -0.258856 -0.011271 0.000000 -0.246381 -0.012289 0.000000 -0.234266 -0.012876 0.000000 -0.220615 -0.013825 0.000000 -0.206616 -0.014344 0.000000 
-0.194001 -0.030409 0.000000 -0.178209 -0.031292 0.000000 -0.162516 -0.032817 0.000000 -0.145176 -0.033518 0.000000 -0.128776 -0.034827 0.000000 -0.110108 -0.035329 0.000000 -0.093203 -0.036402 0.000000 -0.073447 -0.036687 0.000000 -0.056254 -0.037508 0.000000 -0.035665 -0.037564 0.000000 -0.018416 -0.038120 0.000000 0.002737 -0.037937 0.000000 0.019800 -0.038219 0.000000 0.041240 -0.037793 0.000000 0.057874 -0.037798 0.000000 0.079319 -0.037129 0.000000 0.095278 -0.036858 0.000000 0.116450 -0.035953 0.000000 0.131494 -0.035413 0.000000 0.152122 -0.034282 0.000000 0.166024 -0.033488 0.000000 0.185850 -0.032149 0.000000 0.198400 -0.031118 0.000000 0.217185 -0.029595 0.000000 0.228197 -0.028352 0.000000 0.245727 -0.026672 0.000000 0.255044 -0.025245 0.000000 0.271134 -0.023441 0.000000 0.278631 -0.021860 0.000000 0.293127 -0.019968 0.000000 0.298715 -0.018266 0.000000 0.311496 -0.016321 0.000000 0.315123 -0.014530 0.000000 0.326100 -0.012570 0.000000 0.327752 -0.010721 0.000000 0.336869 -0.008779 0.000000 0.336566 -0.006902 0.000000 0.343796 -0.005012 0.000000 0.341590 -0.003131 0.000000 0.346933 -0.001321 0.000000 0.342905 0.000541 0.000000 0.346380 0.002246 0.000000 0.340638 0.004071 0.000000 0.342283 0.005651 0.000000 0.334952 0.007425 0.000000 0.334822 0.008865 0.000000 0.326044 0.010576 0.000000 0.324201 0.011863 0.000000 0.314131 0.013503 0.000000 0.310648 0.014630 0.000000 0.299446 0.016192 0.000000 0.294402 0.017152 0.000000 0.282236 0.018631 0.000000 0.275715 0.019423 0.000000 0.262754 0.020813 0.000000 0.254845 0.021435 0.000000 0.241259 0.022733 0.000000 0.232054 0.023187 0.000000 0.218014 0.024387 0.000000 0.207611 0.024675 0.000000 0.193282 0.025773 0.000000 0.181783 0.025900 0.000000 0.167329 0.026891 0.000000 0.154839 0.026863 0.000000 0.140416 0.027744 0.000000 0.127046 0.027568 0.000000 0.112803 0.028336 0.000000 0.098664 0.028024 0.000000 0.084739 0.028677 0.000000 0.069946 0.028242 0.000000 0.056463 0.028781 0.000000 0.041129 0.028237 0.000000 0.028199 0.028664 0.000000 0.012433 0.028029 0.000000 0.000146 0.028348 0.000000 -0.015945 0.027643 0.000000 -0.027516 0.027860 0.000000 -0.043833 0.027105 0.000000 -0.054639 0.027225 0.000000 -0.071087 0.026440 0.000000 -0.081100 0.026470 0.000000 -0.097592 0.025674 0.000000 -0.106801 0.025618 0.000000 -0.123256 0.024829 0.000000 -0.131668 0.024689 0.000000 -0.148005 0.023916 0.000000 -0.155640 0.023692 0.000000 -0.171777 0.022943 0.000000 -0.178661 0.022629 0.000000 -0.194511 0.021903 0.000000 -0.200670 0.021490 0.000000 -0.216135 0.020781 0.000000 -0.221587 0.020255 0.000000 -0.236556 0.019552 0.000000 -0.241309 0.018898 0.000000 -0.255651 0.018182 0.000000 -0.259692 0.017383 0.000000 -0.273260 0.016635 0.000000 -0.276558 0.015675 0.000000 -0.289186 0.014873 0.000000 -0.291687 0.013739 0.000000 -0.303195 0.012866 0.000000 -0.304824 0.011549 0.000000 -0.315023 0.010588 0.000000 -0.315690 0.009088 0.000000 -0.324389 0.008031 0.000000 -0.323995 0.006353 0.000000 -0.331008 0.005197 0.000000 -0.329452 0.003355 0.000000 -0.334608 0.002107 0.000000 -0.331792 0.000123 0.000000 -0.334944 -0.001206 0.000000 -0.330786 -0.003303 0.000000 -0.331813 -0.004694 0.000000 -0.326251 -0.006871 0.000000 -0.325070 -0.008299 0.000000 -0.318065 -0.010520 0.000000 -0.314629 -0.011957 0.000000 -0.306172 -0.014184 0.000000 -0.300474 -0.015600 0.000000 -0.290587 -0.017794 0.000000 -0.282660 -0.019159 0.000000 -0.271393 -0.021284 0.000000 -0.261308 -0.022569 0.000000 -0.248743 -0.024590 0.000000 -0.236606 -0.025766 0.000000 -0.222854 -0.027650 0.000000 -0.208805 -0.028692 0.000000 
-0.194525 -0.045805 0.000000 -0.178616 -0.047134 0.000000 -0.162860 -0.049449 0.000000 -0.145402 -0.050505 0.000000 -0.128926 -0.052492 0.000000 -0.110139 -0.053246 0.000000 -0.093145 -0.054875 0.000000 -0.073268 -0.055303 0.000000 -0.055976 -0.056549 0.000000 -0.035265 -0.056630 0.000000 -0.017908 -0.057474 0.000000 0.003366 -0.057196 0.000000 0.020546 -0.057625 0.000000 0.042106 -0.056980 0.000000 0.058860 -0.056989 0.000000 0.080422 -0.055978 0.000000 0.096502 -0.055570 0.000000 0.117786 -0.054201 0.000000 0.132949 -0.053388 0.000000 0.153679 -0.051679 0.000000 0.167694 -0.050481 0.000000 0.187611 -0.048459 0.000000 0.200264 -0.046904 0.000000 0.219127 -0.044604 0.000000 0.230227 -0.042729 0.000000 0.247819 -0.040194 0.000000 0.257208 -0.038041 0.000000 0.273342 -0.035320 0.000000 0.280891 -0.032937 0.000000 0.295412 -0.030083 0.000000 0.301033 -0.027518 0.000000 0.313819 -0.024586 0.000000 0.317459 -0.021889 0.000000 0.328422 -0.018934 0.000000 0.330067 -0.016151 0.000000 0.339152 -0.013226 0.000000 0.338823 -0.010402 0.000000 0.346005 -0.007556 0.000000 0.343758 -0.004729 0.000000 0.349037 -0.002003 0.000000 0.344956 0.000794 0.000000 0.348354 0.003361 0.000000 0.342548 0.006101 0.000000 0.344107 0.008480 0.000000 0.336704 0.011141 0.000000 0.336478 0.013309 0.000000 0.327624 0.015875 0.000000 0.325677 0.017812 0.000000 0.315529 0.020270 0.000000 0.311935 0.021966 0.000000 0.300655 0.024306 0.000000 0.295493 0.025752 0.000000 0.283250 0.027966 0.000000 0.276604 0.029158 0.000000 0.263569 0.031240 0.000000 0.255528 0.032177 0.000000 0.241872 0.034119 0.000000 0.232529 0.034802 0.000000 0.218422 0.036598 0.000000 0.207873 0.037032 0.000000 0.193483 0.038675 0.000000 0.181832 0.038865 0.000000 0.167321 0.040349 0.000000 0.154675 0.040305 0.000000 0.140201 0.041625 0.000000 0.126670 0.041358 0.000000 0.112383 0.042510 0.000000 0.098083 0.042037 0.000000 0.084120 0.043018 0.000000 0.069168 0.042358 0.000000 0.055656 0.043171 0.000000 0.040167 0.042347 0.000000 0.027217 0.042995 0.000000 0.011305 0.042034 0.000000 -0.000991 0.042524 0.000000 -0.017217 0.041457 0.000000 -0.028787 0.041796 0.000000 -0.045223 0.040653 0.000000 -0.056018 0.040853 0.000000 -0.072568 0.039666 0.000000 -0.082559 0.039734 0.000000 -0.099134 0.038532 0.000000 -0.108313 0.038476 0.000000 -0.124831 0.037284 0.000000 -0.133208 0.037107 0.000000 -0.149588 0.035943 0.000000 -0.157186 0.035642 0.000000 -0.173346 0.034515 0.000000 -0.180195 0.034082 0.000000 -0.196050 0.032992 0.000000 -0.202180 0.032411 0.000000 -0.217635 0.031349 0.000000 -0.223069 0.030600 0.000000 -0.238014 0.029546 0.000000 -0.242762 0.028602 0.000000 -0.257068 0.027530 0.000000 -0.261121 0.026365 0.000000 -0.274645 0.025245 0.000000 -0.277970 0.023832 0.000000 -0.290546 0.022630 0.000000 -0.293089 0.020949 0.000000 -0.304539 0.019637 0.000000 -0.306224 0.017674 0.000000 -0.316359 0.016229 0.000000 -0.317092 0.013980 0.000000 -0.325721 0.012388 0.000000 -0.325399 0.009863 0.000000 -0.332335 0.008120 0.000000 -0.330853 0.005340 0.000000 -0.335926 0.003455 0.000000 -0.333181 0.000454 0.000000 -0.336242 -0.001553 0.000000 -0.332149 -0.004731 0.000000 -0.333080 -0.006832 0.000000 -0.327573 -0.010136 0.000000 -0.326290 -0.012293 0.000000 -0.319327 -0.015665 0.000000 -0.315784 -0.017836 0.000000 -0.307355 -0.021218 0.000000 -0.301547 -0.023358 0.000000 -0.291672 -0.026692 0.000000 -0.283633 -0.028753 0.000000 -0.272363 -0.031982 0.000000 -0.262164 -0.033921 0.000000 -0.249580 -0.036991 0.000000 -0.237328 -0.038765 0.000000 -0.223542 -0.041626 0.000000 -0.209377 -0.043197 0.000000 
-0.197941 -0.061170 0.000000 -0.181855 -0.062957 0.000000 -0.165889 -0.066030 0.000000 -0.148221 -0.067452 0.000000 -0.131519 -0.070091 0.000000 -0.112493 -0.071110 0.000000 -0.095261 -0.073273 0.000000 -0.075121 -0.073856 0.000000 -0.057583 -0.075511 0.000000 -0.036592 -0.075632 0.000000 -0.018984 -0.076751 0.000000 0.002584 -0.076391 0.000000 0.020014 -0.076958 0.000000 0.041874 -0.076107 0.000000 0.058874 -0.076114 0.000000 0.080736 -0.074772 0.000000 0.097053 -0.074222 0.000000 0.118631 -0.072399 0.000000 0.134015 -0.071307 0.000000 0.155028 -0.069027 0.000000 0.169243 -0.067420 0.000000 0.189425 -0.064719 0.000000 0.202253 -0.062634 0.000000 0.221358 -0.059558 0.000000 0.232606 -0.057045 0.000000 0.250414 -0.053653 0.000000 0.259917 -0.050767 0.000000 0.276237 -0.047125 0.000000 0.283867 -0.043930 0.000000 0.298545 -0.040109 0.000000 0.304211 -0.036672 0.000000 0.317123 -0.032747 0.000000 0.320774 -0.029133 0.000000 0.331836 -0.025178 0.000000 0.333458 -0.021451 0.000000 0.342617 -0.017536 0.000000 0.342235 -0.013755 0.000000 0.349469 -0.009947 0.000000 0.347141 -0.006163 0.000000 0.352453 -0.002519 0.000000 0.348267 0.001224 0.000000 0.351685 0.004654 0.000000 0.345754 0.008319 0.000000 0.347321 0.011495 0.000000 0.339777 0.015054 0.000000 0.339551 0.017945 0.000000 0.330544 0.021377 0.000000 0.328593 0.023959 0.000000 0.318280 0.027246 0.000000 0.314679 0.029504 0.000000 0.303227 0.032634 0.000000 0.298057 0.034557 0.000000 0.285636 0.037520 0.000000 0.278983 0.039103 0.000000 0.265766 0.041889 0.000000 0.257717 0.043132 0.000000 0.243878 0.045733 0.000000 0.234526 0.046637 0.000000 0.220236 0.049042 0.000000 0.209680 0.049614 0.000000 0.195108 0.051815 0.000000 0.183449 0.052062 0.000000 0.168761 0.054049 0.000000 0.156106 0.053983 0.000000 0.141461 0.055748 0.000000 0.127923 0.055387 0.000000 0.113473 0.056924 0.000000 0.099164 0.056286 0.000000 0.085052 0.057593 0.000000 0.070090 0.056706 0.000000 0.056444 0.057781 0.000000 0.040944 0.056676 0.000000 0.027878 0.057526 0.000000 0.011953 0.056237 0.000000 -0.000440 0.056870 0.000000 -0.016681 0.055439 0.000000 -0.028328 0.055866 0.000000 -0.044785 0.054335 0.000000 -0.055636 0.054570 0.000000 -0.072215 0.052981 0.000000 -0.082242 0.053036 0.000000 -0.098859 0.051429 0.000000 -0.108059 0.051315 0.000000 -0.124635 0.049723 0.000000 -0.133019 0.049445 0.000000 -0.149480 0.047894 0.000000 -0.157077 0.047450 0.000000 -0.173347 0.045952 0.000000 -0.180193 0.045333 0.000000 -0.196191 0.043889 0.000000 -0.202322 0.043074 0.000000 -0.217956 0.041670 0.000000 -0.223400 0.040634 0.000000 -0.238562 0.039244 0.000000 -0.243333 0.037953 0.000000 -0.257896 0.036541 0.000000 -0.261986 0.034959 0.000000 -0.275801 0.033484 0.000000 -0.279180 0.031576 0.000000 -0.292077 0.029993 0.000000 -0.294687 0.027732 0.000000 -0.306477 0.026001 0.000000 -0.308239 0.023369 0.000000 -0.318723 0.021457 0.000000 -0.319538 0.018450 0.000000 -0.328512 0.016338 0.000000 -0.328269 0.012967 0.000000 -0.335536 0.010650 0.000000 -0.334122 0.006946 0.000000 -0.339499 0.004435 0.000000 -0.336806 0.000440 0.000000 -0.340134 -0.002238 0.000000 -0.336069 -0.006465 0.000000 -0.337222 -0.009271 0.000000 -0.331716 -0.013662 0.000000 -0.330603 -0.016545 0.000000 -0.323612 -0.021025 0.000000 -0.320185 -0.023928 0.000000 -0.311697 -0.028420 0.000000 -0.305950 -0.031283 0.000000 -0.295985 -0.035709 0.000000 -0.287952 -0.038469 0.000000 -0.276563 -0.042754 0.000000 -0.266319 -0.045352 0.000000 -0.253589 -0.049425 0.000000 -0.241244 -0.051804 0.000000 -0.227287 -0.055602 0.000000 -0.212985 -0.057709 0.000000 
-0.199776 -0.076934 0.000000 -0.183478 -0.079186 0.000000 -0.167358 -0.083084 0.000000 -0.149465 -0.084875 0.000000 -0.132586 -0.088221 0.000000 -0.113324 -0.089504 0.000000 -0.095894 -0.092247 0.000000 -0.075508 -0.092981 0.000000 -0.057754 -0.095078 0.000000 -0.036508 -0.095229 0.000000 -0.018670 -0.096649 0.000000 0.003157 -0.096194 0.000000 0.020828 -0.096915 0.000000 0.042948 -0.095840 0.000000 0.060193 -0.095852 0.000000 0.082312 -0.094157 0.000000 0.098873 -0.093464 0.000000 0.120698 -0.091163 0.000000 0.136318 -0.089785 0.000000 0.157564 -0.086908 0.000000 0.172000 -0.084878 0.000000 0.192395 -0.081469 0.000000 0.205422 -0.078837 0.000000 0.224714 -0.074956 0.000000 0.236131 -0.071784 0.000000 0.254095 -0.067505 0.000000 0.263734 -0.063865 0.000000 0.280177 -0.059271 0.000000 0.287905 -0.055244 0.000000 0.302669 -0.050426 0.000000 0.308394 -0.046097 0.000000 0.321356 -0.041149 0.000000 0.325026 -0.036601 0.000000 0.336102 -0.031618 0.000000 0.337706 -0.026933 0.000000 0.346846 -0.022004 0.000000 0.346411 -0.017254 0.000000 0.353595 -0.012461 0.000000 0.351183 -0.007713 0.000000 0.356421 -0.003130 0.000000 0.352126 0.001562 0.000000 0.355447 0.005875 0.000000 0.349386 0.010465 0.000000 0.350839 0.014457 0.000000 0.343150 0.018911 0.000000 0.342796 0.022542 0.000000 0.333633 0.026833 0.000000 0.331541 0.030076 0.000000 0.321067 0.034184 0.000000 0.317316 0.037019 0.000000 0.305701 0.040928 0.000000 0.300371 0.043342 0.000000 0.287788 0.047041 0.000000 0.280965 0.049028 0.000000 0.267589 0.052506 0.000000 0.259362 0.054065 0.000000 0.245367 0.057310 0.000000 0.235829 0.058444 0.000000 0.221388 0.061445 0.000000 0.210635 0.062160 0.000000 0.195920 0.064906 0.000000 0.184055 0.065212 0.000000 0.169232 0.067692 0.000000 0.156364 0.067604 0.000000 0.141593 0.069809 0.000000 0.127835 0.069346 0.000000 0.113271 0.071268 0.000000 0.098740 0.070457 0.000000 0.084528 0.072093 0.000000 0.069345 0.070966 0.000000 0.055615 0.072317 0.000000 0.039899 0.070914 0.000000 0.026767 0.071986 0.000000 0.010637 0.070352 0.000000 -0.001801 0.071158 0.000000 -0.018233 0.069345 0.000000 -0.029903 0.069900 0.000000 -0.046532 0.067961 0.000000 -0.057384 0.068283 0.000000 -0.074115 0.066273 0.000000 -0.084123 0.066378 0.000000 -0.100869 0.064348 0.000000 -0.110032 0.064251 0.000000 -0.126714 0.062245 0.000000 -0.135051 0.061952 0.000000 -0.151596 0.060001 0.000000 -0.159141 0.059509 0.000000 -0.175476 0.057631 0.000000 -0.182272 0.056926 0.000000 -0.198322 0.055121 0.000000 -0.204412 0.054176 0.000000 -0.220088 0.052427 0.000000 -0.225508 0.051206 0.000000 -0.240707 0.049479 0.000000 -0.245476 0.047936 0.000000 -0.260074 0.046184 0.000000 -0.264190 0.044270 0.000000 -0.278038 0.042438 0.000000 -0.281471 0.040107 0.000000 -0.294400 0.038137 0.000000 -0.297091 0.035349 0.000000 -0.308912 0.033189 0.000000 -0.310777 0.029919 0.000000 -0.321287 0.027528 0.000000 -0.322220 0.023769 0.000000 -0.331211 0.021119 0.000000 -0.331094 0.016887 0.000000 -0.338364 0.013973 0.000000 -0.337075 0.009303 0.000000 -0.342438 0.006139 0.000000 -0.339861 0.001090 0.000000 -0.343154 -0.002289 0.000000 -0.339188 -0.007643 0.000000 -0.340282 -0.011186 0.000000 -0.334852 -0.016754 0.000000 -0.333658 -0.020396 0.000000 -0.326715 -0.026083 0.000000 -0.323184 -0.029750 0.000000 -0.314714 -0.035454 0.000000 -0.308840 -0.039070 0.000000 -0.298862 -0.044689 0.000000 -0.290682 -0.048175 0.000000 -0.279249 -0.053615 0.000000 -0.268839 -0.056895 0.000000 -0.256036 -0.062066 0.000000 -0.243507 -0.065067 0.000000 -0.229449 -0.069886 0.000000 -0.214948 -0.072543 0.000000 
-0.204587 -0.092640 0.000000 -0.188008 -0.095375 0.000000 -0.171582 -0.100043 0.000000 -0.153361 -0.102224 0.000000 -0.136151 -0.106232 0.000000 -0.116522 -0.107802 0.000000 -0.098740 -0.111089 0.000000 -0.077956 -0.111997 0.000000 -0.059835 -0.114510 0.000000 -0.038166 -0.114716 0.000000 -0.019951 -0.116416 0.000000 0.002316 -0.115889 0.000000 0.020366 -0.116749 0.000000 0.042934 -0.115472 0.000000 0.060555 -0.115479 0.000000 0.083121 -0.113451 0.000000 0.100044 -0.112608 0.000000 0.122307 -0.109845 0.000000 0.138268 -0.108173 0.000000 0.159932 -0.104709 0.000000 0.174679 -0.102251 0.000000 0.195464 -0.098140 0.000000 0.208764 -0.094952 0.000000 0.228409 -0.090267 0.000000 0.240055 -0.086426 0.000000 0.258331 -0.081256 0.000000 0.268148 -0.076849 0.000000 0.284856 -0.071296 0.000000 0.292710 -0.066422 0.000000 0.307690 -0.060598 0.000000 0.313485 -0.055360 0.000000 0.326617 -0.049379 0.000000 0.330302 -0.043879 0.000000 0.341503 -0.037857 0.000000 0.343070 -0.032194 0.000000 0.352293 -0.026241 0.000000 0.351775 -0.020504 0.000000 0.359007 -0.014720 0.000000 0.356470 -0.008989 0.000000 0.361725 -0.003461 0.000000 0.357268 0.002198 0.000000 0.360584 0.007394 0.000000 0.354331 0.012927 0.000000 0.355762 0.017731 0.000000 0.347857 0.023097 0.000000 0.347468 0.027462 0.000000 0.338071 0.032631 0.000000 0.335937 0.036524 0.000000 0.325214 0.041471 0.000000 0.321415 0.044870 0.000000 0.309541 0.049579 0.000000 0.304161 0.052470 0.000000 0.291312 0.056926 0.000000 0.284437 0.059302 0.000000 0.270791 0.063493 0.000000 0.262510 0.065354 0.000000 0.248244 0.069266 0.000000 0.238649 0.070616 0.000000 0.223939 0.074236 0.000000 0.213128 0.075082 0.000000 0.198147 0.078395 0.000000 0.186222 0.078750 0.000000 0.171139 0.081740 0.000000 0.158209 0.081622 0.000000 0.143190 0.084277 0.000000 0.129368 0.083708 0.000000 0.114570 0.086018 0.000000 0.099975 0.085030 0.000000 0.085547 0.086988 0.000000 0.070300 0.085619 0.000000 0.056377 0.087227 0.000000 0.040599 0.085523 0.000000 0.027301 0.086788 0.000000 0.011110 0.084805 0.000000 -0.001463 0.085740 0.000000 -0.017955 0.083541 0.000000 -0.029728 0.084165 0.000000 -0.046418 0.081817 0.000000 -0.057340 0.082152 0.000000 -0.074135 0.079720 0.000000 -0.084183 0.079790 0.000000 -0.101003 0.077338 0.000000 -0.110178 0.077160 0.000000 -0.126951 0.074742 0.000000 -0.135280 0.074327 0.000000 -0.151939 0.071984 0.000000 -0.159464 0.071331 0.000000 -0.175947 0.069084 0.000000 -0.182720 0.068178 0.000000 -0.198957 0.066028 0.000000 -0.205032 0.064841 0.000000 -0.220942 0.062766 0.000000 -0.226364 0.061253 0.000000 -0.241848 0.059213 0.000000 -0.246643 0.057320 0.000000 -0.261576 0.055255 0.000000 -0.265746 0.052924 0.000000 -0.279979 0.050765 0.000000 -0.283494 0.047938 0.000000 -0.296847 0.045613 0.000000 -0.299647 0.042244 0.000000 -0.311919 0.039686 0.000000 -0.313913 0.035743 0.000000 -0.324884 0.032900 0.000000 -0.325957 0.028374 0.000000 -0.335405 0.025212 0.000000 -0.335426 0.020121 0.000000 -0.343129 0.016632 0.000000 -0.341965 0.011019 0.000000 -0.347720 0.007220 0.000000 -0.345242 0.001156 0.000000 -0.348874 -0.002911 0.000000 -0.344973 -0.009336 0.000000 -0.346340 -0.013607 0.000000 -0.340933 -0.020287 0.000000 -0.339937 -0.024682 0.000000 -0.332972 -0.031500 0.000000 -0.329562 -0.035929 0.000000 -0.321022 -0.042764 0.000000 -0.315191 -0.047134 0.000000 -0.305096 -0.053867 0.000000 -0.296883 -0.058082 0.000000 -0.285287 -0.064597 0.000000 -0.274773 -0.068565 0.000000 -0.261765 -0.074757 0.000000 -0.249067 -0.078391 0.000000 -0.234766 -0.084161 0.000000 -0.220036 -0.087382 0.000000 
-0.207773 -0.108962 0.000000 -0.190885 -0.112191 0.000000 -0.174212 -0.117730 0.000000 -0.155658 -0.120306 0.000000 -0.138168 -0.125060 0.000000 -0.118184 -0.126915 0.000000 -0.100092 -0.130813 0.000000 -0.078933 -0.131886 0.000000 -0.060476 -0.134868 0.000000 -0.038418 -0.135113 0.000000 -0.019847 -0.137131 0.000000 0.002821 -0.136511 0.000000 0.021241 -0.137533 0.000000 0.044214 -0.136028 0.000000 0.062211 -0.136039 0.000000 0.085180 -0.133646 0.000000 0.102476 -0.132650 0.000000 0.125129 -0.129387 0.000000 0.141450 -0.127410 0.000000 0.163484 -0.123319 0.000000 0.178567 -0.120410 0.000000 0.199691 -0.115554 0.000000 0.213291 -0.111783 0.000000 0.233237 -0.106248 0.000000 0.245139 -0.101705 0.000000 0.263669 -0.095598 0.000000 0.273690 -0.090390 0.000000 0.290601 -0.083832 0.000000 0.298601 -0.078078 0.000000 0.313729 -0.071201 0.000000 0.319610 -0.065023 0.000000 0.332834 -0.057966 0.000000 0.336545 -0.051487 0.000000 0.347785 -0.044386 0.000000 0.349320 -0.037723 0.000000 0.358533 -0.030708 0.000000 0.357929 -0.023968 0.000000 0.365108 -0.017156 0.000000 0.362438 -0.010432 0.000000 0.367604 -0.003928 0.000000 0.362976 0.002703 0.000000 0.366172 0.008812 0.000000 0.359717 0.015288 0.000000 0.361003 0.020931 0.000000 0.352875 0.027204 0.000000 0.352322 0.032329 0.000000 0.342686 0.038365 0.000000 0.340374 0.042933 0.000000 0.329404 0.048706 0.000000 0.325414 0.052692 0.000000 0.313289 0.058182 0.000000 0.307707 0.061571 0.000000 0.294608 0.066765 0.000000 0.287520 0.069550 0.000000 0.273627 0.074433 0.000000 0.265121 0.076612 0.000000 0.250614 0.081170 0.000000 0.240783 0.082749 0.000000 0.225838 0.086966 0.000000 0.214778 0.087952 0.000000 0.199571 0.091812 0.000000 0.187384 0.092220 0.000000 0.172087 0.095705 0.000000 0.158883 0.095554 0.000000 0.143662 0.098650 0.000000 0.129558 0.097966 0.000000 0.114575 0.100661 0.000000 0.099693 0.099480 0.000000 0.085099 0.101768 0.000000 0.069565 0.100136 0.000000 0.055501 0.102017 0.000000 0.039442 0.099989 0.000000 0.026031 0.101475 0.000000 0.009571 0.099116 0.000000 -0.003084 0.100223 0.000000 -0.019827 0.097609 0.000000 -0.031647 0.098362 0.000000 -0.048565 0.095573 0.000000 -0.059501 0.096000 0.000000 -0.076497 0.093116 0.000000 -0.086526 0.093246 0.000000 -0.103519 0.090344 0.000000 -0.112649 0.090200 0.000000 -0.129567 0.087346 0.000000 -0.137830 0.086940 0.000000 -0.154613 0.084185 0.000000 -0.162061 0.083517 0.000000 -0.178650 0.080887 0.000000 -0.185348 0.079936 0.000000 -0.201680 0.077433 0.000000 -0.207694 0.076162 0.000000 -0.223695 0.073759 0.000000 -0.229081 0.072112 0.000000 -0.244659 0.069758 0.000000 -0.249453 0.067665 0.000000 -0.264488 0.065288 0.000000 -0.268698 0.062672 0.000000 -0.283040 0.060186 0.000000 -0.286639 0.056975 0.000000 -0.300110 0.054290 0.000000 -0.303034 0.050421 0.000000 -0.315427 0.047455 0.000000 -0.317578 0.042885 0.000000 -0.328669 0.039572 0.000000 -0.329921 0.034289 0.000000 -0.339477 0.030588 0.000000 -0.339687 0.024611 0.000000 -0.347477 0.020511 0.000000 -0.346498 0.013893 0.000000 -0.352311 0.009417 0.000000 -0.350002 0.002243 0.000000 -0.353655 -0.002559 0.000000 -0.349893 -0.010177 0.000000 -0.351241 -0.015226 0.000000 -0.345936 -0.023157 0.000000 -0.344878 -0.028357 0.000000 -0.337970 -0.036458 0.000000 -0.334455 -0.041701 0.000000 -0.325926 -0.049825 0.000000 -0.319948 -0.054996 0.000000 -0.309816 -0.062997 0.000000 -0.301418 -0.067984 0.000000 -0.289739 -0.075725 0.000000 -0.279003 -0.080417 0.000000 -0.265867 -0.087771 0.000000 -0.252916 -0.092067 0.000000 -0.238444 -0.098917 0.000000 -0.223432 -0.102721 0.000000 