# vtk DataFile Version 2.0
Comment goes here
ASCII

DATASET STRUCTURED_POINTS
FIELD FieldData 1
TIME 1 1 double
0.21000000
DIMENSIONS    128   128   1

ORIGIN    0.000   0.000   0.000
SPACING   0.039062 0.039062   1.000

POINT_DATA   16384
VECTORS u double

-0.044821 -0.000000 0.000000 -0.034527 -0.000000 0.000000 -0.021372 -0.000000 0.000000 -0.010515 -0.000000 0.000000 0.002967 -0.000000 0.000000 0.014231 -0.000000 0.000000 0.027850 -0.000000 0.000000 0.039344 -0.000000 0.000000 0.052897 -0.000000 0.000000 0.064429 -0.000000 0.000000 0.077704 -0.000000 0.000000 0.089073 -0.000000 0.000000 0.101855 -0.000000 0.000000 0.112852 -0.000000 0.000000 0.124929 -0.000000 0.000000 0.135348 -0.000000 0.000000 0.146513 -0.000000 0.000000 0.156156 -0.000000 0.000000 0.166217 -0.000000 0.000000 0.174898 -0.000000 0.000000 0.183685 -0.000000 0.000000 0.191240 -0.000000 0.000000 0.198607 -0.000000 0.000000 0.204899 -0.000000 0.000000 0.210732 -0.000000 0.000000 0.215655 -0.000000 0.000000 0.219876 -0.000000 0.000000 0.223357 -0.000000 0.000000 0.225927 -0.000000 0.000000 0.227930 -0.000000 0.000000 0.228847 -0.000000 0.000000 0.229372 -0.000000 0.000000 0.228674 -0.000000 0.000000 0.227757 -0.000000 0.000000 0.225515 -0.000000 0.000000 0.223221 -0.000000 0.000000 0.219540 -0.000000 0.000000 0.215964 -0.000000 0.000000 0.210973 -0.000000 0.000000 0.206230 -0.000000 0.000000 0.200080 -0.000000 0.000000 0.194304 -0.000000 0.000000 0.187159 -0.000000 0.000000 0.180494 -0.000000 0.000000 0.172525 -0.000000 0.000000 0.165122 -0.000000 0.000000 0.156502 -0.000000 0.000000 0.148512 -0.000000 0.000000 0.139408 -0.000000 0.000000 0.130981 -0.000000 0.000000 0.121549 -0.000000 0.000000 0.112826 -0.000000 0.000000 0.103212 -0.000000 0.000000 0.094325 -0.000000 0.000000 0.084653 -0.000000 0.000000 0.075724 -0.000000 0.000000 0.066100 -0.000000 0.000000 0.057238 -0.000000 0.000000 0.047750 -0.000000 0.000000 0.039049 -0.000000 0.000000 0.029761 -0.000000 0.000000 0.021305 -0.000000 0.000000 0.012264 -0.000000 0.000000 0.004121 -0.000000 0.000000 -0.004646 -0.000000 0.000000 -0.012419 -0.000000 0.000000 -0.020896 -0.000000 0.000000 -0.028256 -0.000000 0.000000 -0.036443 -0.000000 0.000000 -0.043358 -0.000000 0.000000 -0.051260 -0.000000 0.000000 -0.057711 -0.000000 0.000000 -0.065339 -0.000000 0.000000 -0.071317 -0.000000 0.000000 -0.078683 -0.000000 0.000000 -0.084189 -0.000000 0.000000 -0.091304 -0.000000 0.000000 -0.096349 -0.000000 0.000000 -0.103217 -0.000000 0.000000 -0.107820 -0.000000 0.000000 -0.114438 -0.000000 0.000000 -0.118627 -0.000000 0.000000 -0.124983 -0.000000 0.000000 -0.128787 -0.000000 0.000000 -0.134859 -0.000000 0.000000 -0.138311 -0.000000 0.000000 -0.144064 -0.000000 0.000000 -0.147194 -0.000000 0.000000 -0.152584 -0.000000 0.000000 -0.155419 -0.000000 0.000000 -0.160387 -0.000000 0.000000 -0.162944 -0.000000 0.000000 -0.167425 -0.000000 0.000000 -0.169711 -0.000000 0.000000 -0.173628 -0.000000 0.000000 -0.175636 -0.000000 0.000000 -0.178908 -0.000000 0.000000 -0.180613 -0.000000 0.000000 -0.183156 -0.000000 0.000000 -0.184518 -0.000000 0.000000 -0.186244 -0.000000 0.000000 -0.187207 -0.000000 0.000000 -0.188033 -0.000000 0.000000 -0.188528 -0.000000 0.000000 -0.188375 -0.000000 0.000000 -0.188323 -0.000000 0.000000 -0.187120 -0.000000 0.000000 -0.186435 -0.000000 0.000000 -0.184124 -0.000000 0.000000 -0.182722 -0.000000 0.000000 -0.179258 -0.000000 0.000000 -0.177055 -0.000000 0.000000 -0.172411 -0.000000 0.000000 -0.169336 -0.000000 0.000000 -0.163503 -0.000000 0.000000 -0.159498 -0.000000 0.000000 -0.152486 -0.000000 0.000000 -0.147511 -0.000000 0.000000 -0.139353 -0.000000 0.000000 -0.133391 -0.000000 0.000000 -0.124140 -0.000000 0.000000 -0.117195 -0.000000 0.000000 -0.106927 -0.000000 0.000000 -0.099032 -0.000000 0.000000 -0.087844 -0.000000 0.000000 -0.079056 -0.000000 0.000000 -0.067068 -0.000000 0.000000 -0.057471 -0.000000 0.000000 
-0.045235 -0.011472 0.000000 -0.034908 -0.011724 0.000000 -0.021750 -0.012006 0.000000 -0.010857 -0.012170 0.000000 0.002633 -0.012373 0.000000 0.013934 -0.012441 0.000000 0.027564 -0.012556 0.000000 0.039096 -0.012523 0.000000 0.052663 -0.012543 0.000000 0.064234 -0.012404 0.000000 0.077526 -0.012322 0.000000 0.088933 -0.012076 0.000000 0.101734 -0.011890 0.000000 0.112768 -0.011537 0.000000 0.124865 -0.011248 0.000000 0.135319 -0.010792 0.000000 0.146504 -0.010404 0.000000 0.156178 -0.009852 0.000000 0.166260 -0.009371 0.000000 0.174968 -0.008734 0.000000 0.183775 -0.008171 0.000000 0.191353 -0.007461 0.000000 0.198738 -0.006829 0.000000 0.205047 -0.006063 0.000000 0.210897 -0.005378 0.000000 0.215831 -0.004572 0.000000 0.220068 -0.003851 0.000000 0.223554 -0.003025 0.000000 0.226137 -0.002286 0.000000 0.228139 -0.001460 0.000000 0.229069 -0.000721 0.000000 0.229588 0.000086 0.000000 0.228901 0.000808 0.000000 0.227972 0.001579 0.000000 0.225740 0.002268 0.000000 0.223431 0.002988 0.000000 0.219759 0.003629 0.000000 0.216163 0.004284 0.000000 0.211182 0.004867 0.000000 0.206417 0.005446 0.000000 0.200278 0.005963 0.000000 0.194478 0.006461 0.000000 0.187344 0.006905 0.000000 0.180654 0.007317 0.000000 0.172699 0.007686 0.000000 0.165270 0.008012 0.000000 0.156666 0.008305 0.000000 0.148651 0.008547 0.000000 0.139565 0.008766 0.000000 0.131112 0.008929 0.000000 0.121703 0.009077 0.000000 0.112954 0.009169 0.000000 0.103365 0.009251 0.000000 0.094454 0.009279 0.000000 0.084809 0.009301 0.000000 0.075856 0.009276 0.000000 0.066263 0.009243 0.000000 0.057378 0.009175 0.000000 0.047921 0.009094 0.000000 0.039200 0.008994 0.000000 0.029944 0.008872 0.000000 0.021468 0.008749 0.000000 0.012460 0.008592 0.000000 0.004298 0.008455 0.000000 -0.004436 0.008270 0.000000 -0.012227 0.008125 0.000000 -0.020673 0.007919 0.000000 -0.028049 0.007773 0.000000 -0.036207 0.007551 0.000000 -0.043138 0.007409 0.000000 -0.051013 0.007176 0.000000 -0.057478 0.007040 0.000000 -0.065084 0.006803 0.000000 -0.071074 0.006672 0.000000 -0.078422 0.006436 0.000000 -0.083939 0.006310 0.000000 -0.091041 0.006080 0.000000 -0.096095 0.005956 0.000000 -0.102957 0.005736 0.000000 -0.107568 0.005611 0.000000 -0.114186 0.005403 0.000000 -0.118380 0.005272 0.000000 -0.124744 0.005080 0.000000 -0.128552 0.004938 0.000000 -0.134639 0.004762 0.000000 -0.138093 0.004603 0.000000 -0.143868 0.004442 0.000000 -0.147000 0.004260 0.000000 -0.152418 0.004112 0.000000 -0.155255 0.003902 0.000000 -0.160257 0.003763 0.000000 -0.162817 0.003519 0.000000 -0.167336 0.003383 0.000000 -0.169626 0.003102 0.000000 -0.173586 0.002962 0.000000 -0.175598 0.002640 0.000000 -0.178917 0.002489 0.000000 -0.180627 0.002124 0.000000 -0.183218 0.001952 0.000000 -0.184587 0.001544 0.000000 -0.186363 0.001345 0.000000 -0.187333 0.000895 0.000000 -0.188208 0.000661 0.000000 -0.188711 0.000171 0.000000 -0.188606 -0.000103 0.000000 -0.188561 -0.000627 0.000000 -0.187404 -0.000944 0.000000 -0.186726 -0.001498 0.000000 -0.184458 -0.001857 0.000000 -0.183060 -0.002433 0.000000 -0.179636 -0.002833 0.000000 -0.177435 -0.003423 0.000000 -0.172826 -0.003859 0.000000 -0.169750 -0.004454 0.000000 -0.163948 -0.004919 0.000000 -0.159938 -0.005508 0.000000 -0.152953 -0.005993 0.000000 -0.147969 -0.006566 0.000000 -0.139833 -0.007060 0.000000 -0.133857 -0.007607 0.000000 -0.124624 -0.008098 0.000000 -0.117661 -0.008606 0.000000 -0.107407 -0.009082 0.000000 -0.099489 -0.009541 0.000000 -0.088310 -0.009988 0.000000 -0.079496 -0.010388 0.000000 -0.067512 -0.010792 0.000000 -0.057886 -0.011123 0.000000 
-0.045422 -0.022978 0.000000 -0.035061 -0.023485 0.000000 -0.021818 -0.024051 0.000000 -0.010883 -0.024383 0.000000 0.002695 -0.024791 0.000000 0.014047 -0.024931 0.000000 0.027768 -0.025162 0.000000 0.039357 -0.025099 0.000000 0.053016 -0.025138 0.000000 0.064649 -0.024863 0.000000 0.078032 -0.024699 0.000000 0.089504 -0.024208 0.000000 0.102394 -0.023835 0.000000 0.113494 -0.023131 0.000000 0.125673 -0.022551 0.000000 0.136192 -0.021639 0.000000 0.147453 -0.020859 0.000000 0.157188 -0.019756 0.000000 0.167335 -0.018790 0.000000 0.176098 -0.017515 0.000000 0.184957 -0.016384 0.000000 0.192582 -0.014963 0.000000 0.200005 -0.013694 0.000000 0.206350 -0.012159 0.000000 0.212222 -0.010784 0.000000 0.217181 -0.009171 0.000000 0.221422 -0.007723 0.000000 0.224921 -0.006070 0.000000 0.227492 -0.004586 0.000000 0.229494 -0.002932 0.000000 0.230394 -0.001449 0.000000 0.230901 0.000168 0.000000 0.230167 0.001616 0.000000 0.229216 0.003160 0.000000 0.226923 0.004541 0.000000 0.224582 0.005981 0.000000 0.220836 0.007267 0.000000 0.217201 0.008577 0.000000 0.212136 0.009746 0.000000 0.207326 0.010904 0.000000 0.201094 0.011940 0.000000 0.195245 0.012933 0.000000 0.188014 0.013823 0.000000 0.181274 0.014645 0.000000 0.173219 0.015384 0.000000 0.165740 0.016033 0.000000 0.157036 0.016620 0.000000 0.148972 0.017101 0.000000 0.139789 0.017539 0.000000 0.131290 0.017862 0.000000 0.121787 0.018158 0.000000 0.112998 0.018338 0.000000 0.103320 0.018501 0.000000 0.094373 0.018556 0.000000 0.084647 0.018597 0.000000 0.075664 0.018546 0.000000 0.065998 0.018478 0.000000 0.057087 0.018342 0.000000 0.047566 0.018178 0.000000 0.038824 0.017977 0.000000 0.029513 0.017731 0.000000 0.021023 0.017485 0.000000 0.011967 0.017170 0.000000 0.003796 0.016895 0.000000 -0.004977 0.016525 0.000000 -0.012772 0.016237 0.000000 -0.021251 0.015823 0.000000 -0.028627 0.015534 0.000000 -0.036810 0.015088 0.000000 -0.043736 0.014806 0.000000 -0.051632 0.014341 0.000000 -0.058088 0.014071 0.000000 -0.065710 0.013596 0.000000 -0.071687 0.013339 0.000000 -0.079048 0.012865 0.000000 -0.084549 0.012619 0.000000 -0.091661 0.012156 0.000000 -0.096696 0.011916 0.000000 -0.103565 0.011472 0.000000 -0.108156 0.011230 0.000000 -0.114780 0.010813 0.000000 -0.118953 0.010558 0.000000 -0.125321 0.010172 0.000000 -0.129109 0.009894 0.000000 -0.135198 0.009541 0.000000 -0.138634 0.009229 0.000000 -0.144410 0.008907 0.000000 -0.147527 0.008550 0.000000 -0.152945 0.008254 0.000000 -0.155771 0.007839 0.000000 -0.160773 0.007562 0.000000 -0.163327 0.007079 0.000000 -0.167845 0.006809 0.000000 -0.170135 0.006250 0.000000 -0.174093 0.005972 0.000000 -0.176112 0.005331 0.000000 -0.179428 0.005029 0.000000 -0.181152 0.004301 0.000000 -0.183738 0.003960 0.000000 -0.185128 0.003144 0.000000 -0.186896 0.002746 0.000000 -0.187894 0.001846 0.000000 -0.188759 0.001378 0.000000 -0.189294 0.000398 0.000000 -0.189175 -0.000150 0.000000 -0.189166 -0.001202 0.000000 -0.187992 -0.001835 0.000000 -0.187351 -0.002946 0.000000 -0.185062 -0.003666 0.000000 -0.183700 -0.004822 0.000000 -0.180250 -0.005625 0.000000 -0.178083 -0.006809 0.000000 -0.173443 -0.007685 0.000000 -0.170397 -0.008878 0.000000 -0.164558 -0.009812 0.000000 -0.160573 -0.010995 0.000000 -0.153545 -0.011969 0.000000 -0.148580 -0.013120 0.000000 -0.140394 -0.014112 0.000000 -0.134429 -0.015209 0.000000 -0.125140 -0.016196 0.000000 -0.118180 -0.017217 0.000000 -0.107863 -0.018172 0.000000 -0.099939 -0.019096 0.000000 -0.088692 -0.019993 0.000000 -0.079862 -0.020798 0.000000 -0.067803 -0.021610 0.000000 -0.058152 -0.022277 0.000000 
-0.046446 -0.034564 0.000000 -0.035983 -0.035328 0.000000 -0.022649 -0.036184 0.000000 -0.011598 -0.036683 0.000000 0.002083 -0.037302 0.000000 0.013561 -0.037514 0.000000 0.027395 -0.037867 0.000000 0.039119 -0.037771 0.000000 0.052898 -0.037835 0.000000 0.064672 -0.037420 0.000000 0.078180 -0.037177 0.000000 0.089795 -0.036437 0.000000 0.102811 -0.035880 0.000000 0.114052 -0.034817 0.000000 0.126355 -0.033946 0.000000 0.137009 -0.032572 0.000000 0.148387 -0.031400 0.000000 0.158246 -0.029734 0.000000 0.168500 -0.028281 0.000000 0.177373 -0.026356 0.000000 0.186325 -0.024654 0.000000 0.194042 -0.022509 0.000000 0.201540 -0.020598 0.000000 0.207957 -0.018280 0.000000 0.213885 -0.016208 0.000000 0.218891 -0.013772 0.000000 0.223168 -0.011591 0.000000 0.226690 -0.009095 0.000000 0.229274 -0.006860 0.000000 0.231276 -0.004362 0.000000 0.232168 -0.002128 0.000000 0.232652 0.000313 0.000000 0.231892 0.002493 0.000000 0.230896 0.004824 0.000000 0.228560 0.006902 0.000000 0.226156 0.009074 0.000000 0.222354 0.011010 0.000000 0.218641 0.012984 0.000000 0.213509 0.014742 0.000000 0.208610 0.016488 0.000000 0.202306 0.018044 0.000000 0.196360 0.019540 0.000000 0.189055 0.020876 0.000000 0.182213 0.022112 0.000000 0.174085 0.023220 0.000000 0.166504 0.024195 0.000000 0.157732 0.025073 0.000000 0.149567 0.025794 0.000000 0.140324 0.026448 0.000000 0.131728 0.026930 0.000000 0.122176 0.027370 0.000000 0.113294 0.027636 0.000000 0.103579 0.027876 0.000000 0.094546 0.027952 0.000000 0.084795 0.028009 0.000000 0.075733 0.027926 0.000000 0.066054 0.027819 0.000000 0.057074 0.027607 0.000000 0.047552 0.027357 0.000000 0.038748 0.027047 0.000000 0.029447 0.026674 0.000000 0.020902 0.026295 0.000000 0.011865 0.025819 0.000000 0.003647 0.025399 0.000000 -0.005099 0.024838 0.000000 -0.012934 0.024399 0.000000 -0.021381 0.023773 0.000000 -0.028790 0.023333 0.000000 -0.036940 0.022660 0.000000 -0.043891 0.022231 0.000000 -0.051755 0.021529 0.000000 -0.058229 0.021117 0.000000 -0.065821 0.020402 0.000000 -0.071810 0.020010 0.000000 -0.079148 0.019298 0.000000 -0.084654 0.018923 0.000000 -0.091751 0.018227 0.000000 -0.096785 0.017861 0.000000 -0.103649 0.017195 0.000000 -0.108234 0.016826 0.000000 -0.114864 0.016201 0.000000 -0.119028 0.015814 0.000000 -0.125414 0.015236 0.000000 -0.129189 0.014815 0.000000 -0.135310 0.014287 0.000000 -0.138733 0.013815 0.000000 -0.144554 0.013335 0.000000 -0.147660 0.012794 0.000000 -0.153135 0.012356 0.000000 -0.155953 0.011729 0.000000 -0.161023 0.011319 0.000000 -0.163576 0.010591 0.000000 -0.168171 0.010192 0.000000 -0.170468 0.009350 0.000000 -0.174511 0.008940 0.000000 -0.176547 0.007975 0.000000 -0.179952 0.007529 0.000000 -0.181702 0.006434 0.000000 -0.184381 0.005928 0.000000 -0.185805 0.004702 0.000000 -0.187666 0.004111 0.000000 -0.188706 0.002757 0.000000 -0.189661 0.002061 0.000000 -0.190244 0.000587 0.000000 -0.190209 -0.000231 0.000000 -0.190251 -0.001811 0.000000 -0.189153 -0.002759 0.000000 -0.188561 -0.004428 0.000000 -0.186338 -0.005508 0.000000 -0.185022 -0.007245 0.000000 -0.181626 -0.008450 0.000000 -0.179498 -0.010230 0.000000 -0.174898 -0.011545 0.000000 -0.171881 -0.013339 0.000000 -0.166067 -0.014743 0.000000 -0.162098 -0.016521 0.000000 -0.155080 -0.017987 0.000000 -0.150115 -0.019717 0.000000 -0.141925 -0.021211 0.000000 -0.135943 -0.022861 0.000000 -0.126634 -0.024347 0.000000 -0.119640 -0.025883 0.000000 -0.109287 -0.027323 0.000000 -0.101312 -0.028713 0.000000 -0.090014 -0.030065 0.000000 -0.081115 -0.031277 0.000000 -0.068991 -0.032502 0.000000 -0.059254 -0.033505 0.000000 
-0.047248 -0.046249 0.000000 -0.036683 -0.047282 0.000000 -0.023176 -0.048436 0.000000 -0.012003 -0.049114 0.000000 0.001863 -0.049950 0.000000 0.013481 -0.050243 0.000000 0.027508 -0.050721 0.000000 0.039387 -0.050603 0.000000 0.053366 -0.050691 0.000000 0.065305 -0.050145 0.000000 0.079014 -0.049822 0.000000 0.090800 -0.048839 0.000000 0.104012 -0.048092 0.000000 0.115426 -0.046675 0.000000 0.127917 -0.045507 0.000000 0.138738 -0.043671 0.000000 0.150289 -0.042097 0.000000 0.160305 -0.039869 0.000000 0.170712 -0.037917 0.000000 0.179724 -0.035340 0.000000 0.188803 -0.033052 0.000000 0.196636 -0.030178 0.000000 0.204232 -0.027610 0.000000 0.210739 -0.024504 0.000000 0.216729 -0.021718 0.000000 0.221797 -0.018454 0.000000 0.226099 -0.015521 0.000000 0.229651 -0.012176 0.000000 0.232223 -0.009172 0.000000 0.234225 -0.005826 0.000000 0.235067 -0.002825 0.000000 0.235521 0.000445 0.000000 0.234677 0.003372 0.000000 0.233624 0.006492 0.000000 0.231173 0.009281 0.000000 0.228688 0.012188 0.000000 0.224744 0.014782 0.000000 0.220932 0.017422 0.000000 0.215638 0.019777 0.000000 0.210626 0.022108 0.000000 0.204144 0.024189 0.000000 0.198076 0.026184 0.000000 0.190584 0.027970 0.000000 0.183616 0.029615 0.000000 0.175299 0.031093 0.000000 0.167590 0.032386 0.000000 0.158631 0.033556 0.000000 0.150343 0.034509 0.000000 0.140921 0.035377 0.000000 0.132208 0.036011 0.000000 0.122488 0.036592 0.000000 0.113498 0.036935 0.000000 0.103631 0.037249 0.000000 0.094500 0.037339 0.000000 0.084614 0.037409 0.000000 0.075467 0.037286 0.000000 0.065672 0.037138 0.000000 0.056618 0.036844 0.000000 0.046999 0.036504 0.000000 0.038133 0.036082 0.000000 0.028754 0.035578 0.000000 0.020160 0.035066 0.000000 0.011062 0.034424 0.000000 0.002807 0.033860 0.000000 -0.005985 0.033106 0.000000 -0.013845 0.032519 0.000000 -0.022326 0.031679 0.000000 -0.029748 0.031093 0.000000 -0.037921 0.030189 0.000000 -0.044876 0.029621 0.000000 -0.052755 0.028678 0.000000 -0.059223 0.028137 0.000000 -0.066826 0.027177 0.000000 -0.072800 0.026665 0.000000 -0.080145 0.025709 0.000000 -0.085628 0.025221 0.000000 -0.092732 0.024288 0.000000 -0.097738 0.023814 0.000000 -0.104610 0.022921 0.000000 -0.109160 0.022445 0.000000 -0.115802 0.021606 0.000000 -0.119928 0.021108 0.000000 -0.126330 0.020334 0.000000 -0.130067 0.019791 0.000000 -0.136208 0.019085 0.000000 -0.139596 0.018473 0.000000 -0.145441 0.017834 0.000000 -0.148517 0.017130 0.000000 -0.154020 0.016547 0.000000 -0.156818 0.015727 0.000000 -0.161920 0.015185 0.000000 -0.164464 0.014228 0.000000 -0.169095 0.013702 0.000000 -0.171396 0.012590 0.000000 -0.175478 0.012051 0.000000 -0.177532 0.010771 0.000000 -0.180976 0.010185 0.000000 -0.182762 0.008730 0.000000 -0.185478 0.008062 0.000000 -0.186952 0.006429 0.000000 -0.188848 0.005647 0.000000 -0.189951 0.003841 0.000000 -0.190936 0.002916 0.000000 -0.191592 0.000946 0.000000 -0.191580 -0.000143 0.000000 -0.191700 -0.002258 0.000000 -0.190616 -0.003524 0.000000 -0.190105 -0.005761 0.000000 -0.187884 -0.007206 0.000000 -0.186647 -0.009535 0.000000 -0.183239 -0.011149 0.000000 -0.181182 -0.013537 0.000000 -0.176557 -0.015302 0.000000 -0.173600 -0.017709 0.000000 -0.167745 -0.019595 0.000000 -0.163821 -0.021982 0.000000 -0.156745 -0.023952 0.000000 -0.151807 -0.026275 0.000000 -0.143541 -0.028284 0.000000 -0.137568 -0.030500 0.000000 -0.128166 -0.032499 0.000000 -0.121158 -0.034564 0.000000 -0.110695 -0.036500 0.000000 -0.102684 -0.038370 0.000000 -0.091258 -0.040190 0.000000 -0.082301 -0.041821 0.000000 -0.070034 -0.043471 0.000000 -0.060216 -0.044822 0.000000 
-0.048908 -0.058097 0.000000 -0.038172 -0.059400 0.000000 -0.024484 -0.060864 0.000000 -0.013115 -0.061722 0.000000 0.000952 -0.062786 0.000000 0.012788 -0.063159 0.000000 0.027032 -0.063773 0.000000 0.039147 -0.063629 0.000000 0.053354 -0.063752 0.000000 0.065540 -0.063068 0.000000 0.079485 -0.062672 0.000000 0.091523 -0.061436 0.000000 0.104972 -0.060506 0.000000 0.116635 -0.058721 0.000000 0.129357 -0.057258 0.000000 0.140418 -0.054944 0.000000 0.152187 -0.052966 0.000000 0.162424 -0.050156 0.000000 0.173028 -0.047701 0.000000 0.182237 -0.044447 0.000000 0.191485 -0.041567 0.000000 0.199482 -0.037937 0.000000 0.207213 -0.034701 0.000000 0.213847 -0.030778 0.000000 0.219934 -0.027266 0.000000 0.225086 -0.023142 0.000000 0.229444 -0.019446 0.000000 0.233038 -0.015219 0.000000 0.235623 -0.011433 0.000000 0.237622 -0.007206 0.000000 0.238438 -0.003425 0.000000 0.238848 0.000703 0.000000 0.237938 0.004390 0.000000 0.236804 0.008328 0.000000 0.234254 0.011838 0.000000 0.231655 0.015503 0.000000 0.227586 0.018765 0.000000 0.223633 0.022091 0.000000 0.218193 0.025049 0.000000 0.213020 0.027982 0.000000 0.206380 0.030593 0.000000 0.200138 0.033100 0.000000 0.192482 0.035336 0.000000 0.185333 0.037398 0.000000 0.176853 0.039246 0.000000 0.168963 0.040862 0.000000 0.159850 0.042320 0.000000 0.151383 0.043505 0.000000 0.141820 0.044583 0.000000 0.132937 0.045363 0.000000 0.123094 0.046080 0.000000 0.113944 0.046494 0.000000 0.103975 0.046874 0.000000 0.094697 0.046968 0.000000 0.084733 0.047042 0.000000 0.075453 0.046868 0.000000 0.065603 0.046669 0.000000 0.056430 0.046280 0.000000 0.046780 0.045841 0.000000 0.037811 0.045292 0.000000 0.028421 0.044647 0.000000 0.019738 0.043987 0.000000 0.010648 0.043171 0.000000 0.002318 0.042446 0.000000 -0.006451 0.041491 0.000000 -0.014373 0.040739 0.000000 -0.022819 0.039676 0.000000 -0.030290 0.038928 0.000000 -0.038423 0.037788 0.000000 -0.045413 0.037064 0.000000 -0.053250 0.035876 0.000000 -0.059742 0.035188 0.000000 -0.067305 0.033979 0.000000 -0.073291 0.033330 0.000000 -0.080604 0.032126 0.000000 -0.086087 0.031510 0.000000 -0.093170 0.030337 0.000000 -0.098165 0.029738 0.000000 -0.105031 0.028618 0.000000 -0.109562 0.028018 0.000000 -0.116214 0.026968 0.000000 -0.120314 0.026342 0.000000 -0.126745 0.025375 0.000000 -0.130452 0.024693 0.000000 -0.136641 0.023815 0.000000 -0.139998 0.023048 0.000000 -0.145911 0.022257 0.000000 -0.148960 0.021374 0.000000 -0.154550 0.020657 0.000000 -0.157329 0.019629 0.000000 -0.162535 0.018965 0.000000 -0.165072 0.017766 0.000000 -0.169822 0.017124 0.000000 -0.172132 0.015733 0.000000 -0.176342 0.015075 0.000000 -0.178424 0.013473 0.000000 -0.182005 0.012758 0.000000 -0.183836 0.010936 0.000000 -0.186692 0.010118 0.000000 -0.188231 0.008072 0.000000 -0.190265 0.007110 0.000000 -0.191448 0.004845 0.000000 -0.192565 0.003701 0.000000 -0.193312 0.001231 0.000000 -0.193422 -0.000122 0.000000 -0.193640 -0.002775 0.000000 -0.192664 -0.004354 0.000000 -0.192251 -0.007160 0.000000 -0.190119 -0.008967 0.000000 -0.188973 -0.011890 0.000000 -0.185634 -0.013914 0.000000 -0.183656 -0.016912 0.000000 -0.179077 -0.019128 0.000000 -0.176180 -0.022151 0.000000 -0.170346 -0.024522 0.000000 -0.166459 -0.027521 0.000000 -0.159378 -0.030000 0.000000 -0.154452 -0.032920 0.000000 -0.146154 -0.035451 0.000000 -0.140162 -0.038237 0.000000 -0.130701 -0.040757 0.000000 -0.123645 -0.043354 0.000000 -0.113097 -0.045797 0.000000 -0.105005 -0.048149 0.000000 -0.093469 -0.050448 0.000000 -0.084399 -0.052502 0.000000 -0.071996 -0.054587 0.000000 -0.062035 -0.056291 0.000000 
-0.050360 -0.070112 0.000000 -0.039453 -0.071706 0.000000 -0.025501 -0.073493 0.000000 -0.013928 -0.074550 0.000000 0.000423 -0.075852 0.000000 0.012491 -0.076323 0.000000 0.027036 -0.077079 0.000000 0.039406 -0.076925 0.000000 0.053924 -0.077085 0.000000 0.066383 -0.076275 0.000000 0.080643 -0.075804 0.000000 0.092963 -0.074326 0.000000 0.106724 -0.073205 0.000000 0.118670 -0.071060 0.000000 0.131692 -0.069290 0.000000 0.143027 -0.066500 0.000000 0.155074 -0.064103 0.000000 0.165568 -0.060710 0.000000 0.176419 -0.057730 0.000000 0.185856 -0.053796 0.000000 0.195310 -0.050298 0.000000 0.203500 -0.045907 0.000000 0.211389 -0.041974 0.000000 0.218172 -0.037225 0.000000 0.224363 -0.032958 0.000000 0.229616 -0.027964 0.000000 0.234020 -0.023473 0.000000 0.237662 -0.018355 0.000000 0.240235 -0.013757 0.000000 0.242232 -0.008640 0.000000 0.242976 -0.004050 0.000000 0.243335 0.000945 0.000000 0.242299 0.005416 0.000000 0.241070 0.010176 0.000000 0.238346 0.014430 0.000000 0.235614 0.018856 0.000000 0.231330 0.022805 0.000000 0.227214 0.026814 0.000000 0.221527 0.030390 0.000000 0.216167 0.033921 0.000000 0.209259 0.037072 0.000000 0.202815 0.040082 0.000000 0.194879 0.042775 0.000000 0.187521 0.045244 0.000000 0.178758 0.047463 0.000000 0.170659 0.049390 0.000000 0.161268 0.051136 0.000000 0.152599 0.052539 0.000000 0.142772 0.053824 0.000000 0.133697 0.054736 0.000000 0.123610 0.055584 0.000000 0.114284 0.056054 0.000000 0.104095 0.056496 0.000000 0.094658 0.056581 0.000000 0.084503 0.056654 0.000000 0.075082 0.056417 0.000000 0.065072 0.056161 0.000000 0.055778 0.055668 0.000000 0.045997 0.055124 0.000000 0.036927 0.054441 0.000000 0.027436 0.053651 0.000000 0.018670 0.052839 0.000000 0.009507 0.051844 0.000000 0.001113 0.050959 0.000000 -0.007706 0.049797 0.000000 -0.015674 0.048887 0.000000 -0.024151 0.047596 0.000000 -0.031652 0.046696 0.000000 -0.039800 0.045312 0.000000 -0.046804 0.044449 0.000000 -0.054646 0.043007 0.000000 -0.061135 0.042193 0.000000 -0.068699 0.040726 0.000000 -0.074668 0.039964 0.000000 -0.081981 0.038505 0.000000 -0.087434 0.037787 0.000000 -0.094519 0.036366 0.000000 -0.099473 0.035675 0.000000 -0.106346 0.034318 0.000000 -0.110827 0.033628 0.000000 -0.117495 0.032358 0.000000 -0.121539 0.031638 0.000000 -0.127995 0.030472 0.000000 -0.131644 0.029687 0.000000 -0.137870 0.028631 0.000000 -0.141172 0.027744 0.000000 -0.147133 0.026796 0.000000 -0.150134 0.025769 0.000000 -0.155782 0.024916 0.000000 -0.158526 0.023712 0.000000 -0.163800 0.022928 0.000000 -0.166320 0.021514 0.000000 -0.171145 0.020761 0.000000 -0.173461 0.019111 0.000000 -0.177752 0.018343 0.000000 -0.179865 0.016434 0.000000 -0.183529 0.015597 0.000000 -0.185416 0.013418 0.000000 -0.188356 0.012457 0.000000 -0.189974 0.010002 0.000000 -0.192088 0.008864 0.000000 -0.193372 0.006141 0.000000 -0.194562 0.004780 0.000000 -0.195426 0.001804 0.000000 -0.195597 0.000185 0.000000 -0.195943 -0.003017 0.000000 -0.195011 -0.004914 0.000000 -0.194729 -0.008305 0.000000 -0.192624 -0.010483 0.000000 -0.191603 -0.014020 0.000000 -0.188269 -0.016466 0.000000 -0.186404 -0.020094 0.000000 -0.181804 -0.022778 0.000000 -0.179002 -0.026440 0.000000 -0.173121 -0.029316 0.000000 -0.169305 -0.032950 0.000000 -0.162150 -0.035959 0.000000 -0.157264 -0.039499 0.000000 -0.148864 -0.042574 0.000000 -0.142879 -0.045953 0.000000 -0.133287 -0.049017 0.000000 -0.126203 -0.052168 0.000000 -0.115495 -0.055140 0.000000 -0.107339 -0.057998 0.000000 -0.095615 -0.060796 0.000000 -0.086444 -0.063294 0.000000 -0.073826 -0.065834 0.000000 -0.063729 -0.067910 0.000000 
-0.052708 -0.082372 0.000000 -0.041557 -0.084260 0.000000 -0.027331 -0.086389 0.000000 -0.015477 -0.087646 0.000000 -0.000824 -0.089205 0.000000 0.011558 -0.089772 0.000000 0.026428 -0.090688 0.000000 0.039138 -0.090517 0.000000 0.054000 -0.090729 0.000000 0.066818 -0.089786 0.000000 0.081431 -0.089252 0.000000 0.094119 -0.087518 0.000000 0.108235 -0.086213 0.000000 0.120547 -0.083689 0.000000 0.133915 -0.081615 0.000000 0.145602 -0.078326 0.000000 0.157974 -0.075507 0.000000 0.168795 -0.071500 0.000000 0.179939 -0.067989 0.000000 0.189666 -0.063339 0.000000 0.199372 -0.059211 0.000000 0.207804 -0.054016 0.000000 0.215893 -0.049372 0.000000 0.222861 -0.043751 0.000000 0.229193 -0.038710 0.000000 0.234569 -0.032798 0.000000 0.239051 -0.027492 0.000000 0.242752 -0.021434 0.000000 0.245337 -0.016002 0.000000 0.247327 -0.009947 0.000000 0.248021 -0.004528 0.000000 0.248312 0.001380 0.000000 0.247168 0.006655 0.000000 0.245815 0.012281 0.000000 0.242931 0.017293 0.000000 0.240028 0.022519 0.000000 0.235542 0.027166 0.000000 0.231216 0.031894 0.000000 0.225296 0.036095 0.000000 0.219699 0.040250 0.000000 0.212537 0.043946 0.000000 0.205837 0.047480 0.000000 0.197639 0.050630 0.000000 0.190016 0.053519 0.000000 0.180994 0.056108 0.000000 0.172629 0.058352 0.000000 0.162991 0.060380 0.000000 0.154063 0.062001 0.000000 0.144009 0.063485 0.000000 0.134688 0.064525 0.000000 0.124402 0.065493 0.000000 0.114845 0.066009 0.000000 0.104490 0.066500 0.000000 0.094842 0.066560 0.000000 0.084556 0.066618 0.000000 0.074946 0.066300 0.000000 0.064839 0.065973 0.000000 0.055378 0.065355 0.000000 0.045537 0.064692 0.000000 0.036322 0.063853 0.000000 0.026803 0.062903 0.000000 0.017914 0.061916 0.000000 0.008751 0.060728 0.000000 0.000255 0.059659 0.000000 -0.008541 0.058278 0.000000 -0.016592 0.057184 0.000000 -0.025028 0.055654 0.000000 -0.032592 0.054577 0.000000 -0.040689 0.052940 0.000000 -0.047738 0.051911 0.000000 -0.055525 0.050207 0.000000 -0.062041 0.049241 0.000000 -0.069553 0.047511 0.000000 -0.075531 0.046611 0.000000 -0.082801 0.044892 0.000000 -0.088246 0.044048 0.000000 -0.095303 0.042375 0.000000 -0.100234 0.041566 0.000000 -0.107099 0.039972 0.000000 -0.111542 0.039167 0.000000 -0.118225 0.037680 0.000000 -0.122221 0.036842 0.000000 -0.128718 0.035481 0.000000 -0.132314 0.034568 0.000000 -0.138606 0.033343 0.000000 -0.141854 0.032310 0.000000 -0.147908 0.031219 0.000000 -0.150862 0.030023 0.000000 -0.156629 0.029049 0.000000 -0.159338 0.027647 0.000000 -0.164754 0.026759 0.000000 -0.167259 0.025111 0.000000 -0.172245 0.024265 0.000000 -0.174570 0.022340 0.000000 -0.179038 0.021479 0.000000 -0.181188 0.019250 0.000000 -0.185040 0.018310 0.000000 -0.186994 0.015763 0.000000 -0.190125 0.014676 0.000000 -0.191840 0.011805 0.000000 -0.194143 0.010508 0.000000 -0.195548 0.007318 0.000000 -0.196917 0.005755 0.000000 -0.197921 0.002267 0.000000 -0.198257 0.000394 0.000000 -0.198752 -0.003361 0.000000 -0.197964 -0.005567 0.000000 -0.197833 -0.009548 0.000000 -0.195845 -0.012093 0.000000 -0.194966 -0.016245 0.000000 -0.191719 -0.019113 0.000000 -0.189979 -0.023376 0.000000 -0.185432 -0.026529 0.000000 -0.182727 -0.030834 0.000000 -0.176864 -0.034220 0.000000 -0.173110 -0.038493 0.000000 -0.165935 -0.042041 0.000000 -0.161073 -0.046206 0.000000 -0.152615 -0.049835 0.000000 -0.146611 -0.053813 0.000000 -0.136923 -0.057433 0.000000 -0.129774 -0.061146 0.000000 -0.118932 -0.064661 0.000000 -0.110665 -0.068030 0.000000 -0.098769 -0.071342 0.000000 -0.089442 -0.074291 0.000000 -0.076616 -0.077303 0.000000 -0.066317 -0.079756 0.000000 