# vtk DataFile Version 2.0
Comment goes here
ASCII

DATASET STRUCTURED_POINTS
FIELD FieldData 1
TIME 1 1 double
0.01000000
DIMENSIONS    128   128   1

ORIGIN    0.000   0.000   0.000
SPACING   0.039062 0.039062   1.000

POINT_DATA   16384
VECTORS u double

0.111667 -0.000000 0.000000 0.132161 -0.000000 0.000000 0.148236 -0.000000 0.000000 0.169328 -0.000000 0.000000 0.185955 -0.000000 0.000000 0.207394 -0.000000 0.000000 0.224342 0.000000 0.000000 0.245833 0.000000 0.000000 0.262821 -0.000000 0.000000 0.284026 -0.000000 0.000000 0.300724 -0.000000 0.000000 0.321261 -0.000000 0.000000 0.337291 -0.000000 0.000000 0.356740 -0.000000 0.000000 0.371687 -0.000000 0.000000 0.389596 -0.000000 0.000000 0.403012 0.000000 0.000000 0.418909 0.000000 0.000000 0.430329 0.000000 0.000000 0.443735 0.000000 0.000000 0.452692 0.000000 0.000000 0.463138 0.000000 0.000000 0.469183 0.000000 0.000000 0.476233 -0.000000 0.000000 0.478956 -0.000000 0.000000 0.482227 -0.000000 0.000000 0.481282 -0.000000 0.000000 0.480468 -0.000000 0.000000 0.475594 -0.000000 0.000000 0.470492 -0.000000 0.000000 0.461537 -0.000000 0.000000 0.452059 -0.000000 0.000000 0.438997 -0.000000 0.000000 0.425192 -0.000000 0.000000 0.408135 -0.000000 0.000000 0.390193 -0.000000 0.000000 0.369398 0.000000 0.000000 0.347653 -0.000000 0.000000 0.323517 -0.000000 0.000000 0.298441 -0.000000 0.000000 0.271492 -0.000000 0.000000 0.243674 -0.000000 0.000000 0.214553 -0.000000 0.000000 0.184682 -0.000000 0.000000 0.154117 -0.000000 0.000000 0.122949 -0.000000 0.000000 0.091721 -0.000000 0.000000 0.060047 -0.000000 0.000000 0.028959 -0.000000 0.000000 -0.002431 -0.000000 0.000000 -0.032591 -0.000000 0.000000 -0.062944 -0.000000 0.000000 -0.091440 -0.000000 0.000000 -0.120071 -0.000000 0.000000 -0.146250 -0.000000 0.000000 -0.172575 -0.000000 0.000000 -0.195893 -0.000000 0.000000 -0.219446 -0.000000 0.000000 -0.239489 -0.000000 0.000000 -0.259943 -0.000000 0.000000 -0.276439 -0.000000 0.000000 -0.293606 -0.000000 0.000000 -0.306426 -0.000000 0.000000 -0.320263 -0.000000 0.000000 -0.329420 0.000000 0.000000 -0.340011 0.000000 0.000000 -0.345644 0.000000 0.000000 -0.353189 -0.000000 0.000000 -0.355547 -0.000000 0.000000 -0.360336 -0.000000 0.000000 -0.359753 -0.000000 0.000000 -0.362144 -0.000000 0.000000 -0.359016 -0.000000 0.000000 -0.359402 -0.000000 0.000000 -0.354162 -0.000000 0.000000 -0.352950 -0.000000 0.000000 -0.346039 -0.000000 0.000000 -0.343622 -0.000000 0.000000 -0.335473 -0.000000 0.000000 -0.332212 -0.000000 0.000000 -0.323228 -0.000000 0.000000 -0.319434 -0.000000 0.000000 -0.309975 -0.000000 0.000000 -0.305899 -0.000000 0.000000 -0.296272 -0.000000 0.000000 -0.292096 -0.000000 0.000000 -0.282551 -0.000000 0.000000 -0.278392 -0.000000 0.000000 -0.269115 -0.000000 0.000000 -0.265024 -0.000000 0.000000 -0.256142 -0.000000 0.000000 -0.252110 -0.000000 0.000000 -0.243694 -0.000000 0.000000 -0.239661 0.000000 0.000000 -0.231728 0.000000 0.000000 -0.227595 -0.000000 0.000000 -0.220117 -0.000000 0.000000 -0.215756 -0.000000 0.000000 -0.208663 -0.000000 0.000000 -0.203928 -0.000000 0.000000 -0.197120 -0.000000 0.000000 -0.191855 -0.000000 0.000000 -0.185207 -0.000000 0.000000 -0.179257 0.000000 0.000000 -0.172627 -0.000000 0.000000 -0.165845 -0.000000 0.000000 -0.159080 -0.000000 0.000000 -0.151334 -0.000000 0.000000 -0.144279 -0.000000 0.000000 -0.135454 -0.000000 0.000000 -0.127955 -0.000000 0.000000 -0.117957 -0.000000 0.000000 -0.109872 -0.000000 0.000000 -0.098631 0.000000 0.000000 -0.089828 0.000000 0.000000 -0.077298 0.000000 0.000000 -0.067667 -0.000000 0.000000 -0.053829 -0.000000 0.000000 -0.043283 -0.000000 0.000000 -0.028143 -0.000000 0.000000 -0.016621 -0.000000 0.000000 -0.000214 -0.000000 0.000000 0.012312 -0.000000 0.000000 0.029920 -0.000000 0.000000 0.043445 -0.000000 0.000000 0.062159 -0.000000 0.000000 0.076636 -0.000000 0.000000 0.096324 -0.000000 0.000000 
0.115160 -0.017918 0.000000 0.135140 -0.018285 0.000000 0.151813 -0.018584 0.000000 0.172315 -0.018859 0.000000 0.189543 -0.019033 0.000000 0.210314 -0.019193 0.000000 0.227862 -0.019220 0.000000 0.248607 -0.019240 0.000000 0.266187 -0.019097 0.000000 0.286566 -0.018951 0.000000 0.303843 -0.018617 0.000000 0.323476 -0.018284 0.000000 0.340069 -0.017740 0.000000 0.358540 -0.017198 0.000000 0.374026 -0.016428 0.000000 0.390889 -0.015663 0.000000 0.404818 -0.014657 0.000000 0.419611 -0.013659 0.000000 0.431514 -0.012413 0.000000 0.443771 -0.011181 0.000000 0.453178 -0.009702 0.000000 0.462450 -0.008246 0.000000 0.468910 -0.006547 0.000000 0.474781 -0.004887 0.000000 0.477885 -0.002997 0.000000 0.479998 -0.001163 0.000000 0.479401 0.000879 0.000000 0.477480 0.002844 0.000000 0.472922 0.004988 0.000000 0.466795 0.007029 0.000000 0.458126 0.009216 0.000000 0.447739 0.011270 0.000000 0.434933 0.013434 0.000000 0.420366 0.015431 0.000000 0.403538 0.017499 0.000000 0.385010 0.019369 0.000000 0.364414 0.021270 0.000000 0.342285 0.022940 0.000000 0.318315 0.024606 0.000000 0.293072 0.026013 0.000000 0.266252 0.027383 0.000000 0.238496 0.028469 0.000000 0.209460 0.029496 0.000000 0.179878 0.030218 0.000000 0.149345 0.030867 0.000000 0.118685 0.031198 0.000000 0.087428 0.031451 0.000000 0.056463 0.031381 0.000000 0.025275 0.031239 0.000000 -0.005230 0.030775 0.000000 -0.035570 0.030256 0.000000 -0.064893 0.029424 0.000000 -0.093656 0.028564 0.000000 -0.121149 0.027405 0.000000 -0.147686 0.026252 0.000000 -0.172801 0.024821 0.000000 -0.196569 0.023436 0.000000 -0.218879 0.021798 0.000000 -0.239462 0.020248 0.000000 -0.258675 0.018475 0.000000 -0.275795 0.016832 0.000000 -0.291757 0.014994 0.000000 -0.305278 0.013328 0.000000 -0.317970 0.011497 0.000000 -0.327892 0.009874 0.000000 -0.337420 0.008112 0.000000 -0.343870 0.006589 0.000000 -0.350448 0.004951 0.000000 -0.353659 0.003574 0.000000 -0.357585 0.002103 0.000000 -0.357876 0.000904 0.000000 -0.359510 -0.000368 0.000000 -0.357260 -0.001371 0.000000 -0.356993 -0.002427 0.000000 -0.352617 -0.003226 0.000000 -0.350848 -0.004061 0.000000 -0.344774 -0.004664 0.000000 -0.341888 -0.005283 0.000000 -0.334533 -0.005705 0.000000 -0.330879 -0.006122 0.000000 -0.322634 -0.006389 0.000000 -0.318511 -0.006627 0.000000 -0.309726 -0.006768 0.000000 -0.305372 -0.006852 0.000000 -0.296347 -0.006901 0.000000 -0.291933 -0.006861 0.000000 -0.282911 -0.006852 0.000000 -0.278544 -0.006718 0.000000 -0.269709 -0.006684 0.000000 -0.265431 -0.006486 0.000000 -0.256908 -0.006457 0.000000 -0.252705 -0.006224 0.000000 -0.244565 -0.006224 0.000000 -0.240373 -0.005983 0.000000 -0.232635 -0.006033 0.000000 -0.228352 -0.005806 0.000000 -0.220990 -0.005920 0.000000 -0.216488 -0.005727 0.000000 -0.209436 -0.005914 0.000000 -0.204569 -0.005772 0.000000 -0.197732 -0.006037 0.000000 -0.192347 -0.005957 0.000000 -0.185603 -0.006299 0.000000 -0.179548 -0.006290 0.000000 -0.172760 -0.006706 0.000000 -0.165893 -0.006773 0.000000 -0.158913 -0.007255 0.000000 -0.151105 -0.007401 0.000000 -0.143782 -0.007940 0.000000 -0.134923 -0.008162 0.000000 -0.127107 -0.008748 0.000000 -0.117110 -0.009042 0.000000 -0.108661 -0.009663 0.000000 -0.097460 -0.010022 0.000000 -0.088252 -0.010666 0.000000 -0.075806 -0.011080 0.000000 -0.065733 -0.011734 0.000000 -0.052027 -0.012192 0.000000 -0.041004 -0.012843 0.000000 -0.026050 -0.013331 0.000000 -0.014020 -0.013964 0.000000 0.002142 -0.014467 0.000000 0.015203 -0.015067 0.000000 0.032506 -0.015566 0.000000 0.046587 -0.016119 0.000000 0.064929 -0.016596 0.000000 0.079981 -0.017083 0.000000 0.099229 -0.017515 0.000000 
0.110897 -0.035911 0.000000 0.131495 -0.036653 0.000000 0.147661 -0.037175 0.000000 0.168878 -0.037730 0.000000 0.185620 -0.038000 0.000000 0.207207 -0.038319 0.000000 0.224295 -0.038292 0.000000 0.245956 -0.038325 0.000000 0.263109 -0.037959 0.000000 0.284506 -0.037656 0.000000 0.301391 -0.036910 0.000000 0.322138 -0.036226 0.000000 0.338377 -0.035063 0.000000 0.358052 -0.033957 0.000000 0.373222 -0.032350 0.000000 0.391368 -0.030792 0.000000 0.405016 -0.028722 0.000000 0.421153 -0.026696 0.000000 0.432806 -0.024160 0.000000 0.446446 -0.021664 0.000000 0.455627 -0.018678 0.000000 0.466292 -0.015732 0.000000 0.472542 -0.012331 0.000000 0.479783 -0.008975 0.000000 0.482679 -0.005217 0.000000 0.486103 -0.001516 0.000000 0.485288 0.002518 0.000000 0.484577 0.006478 0.000000 0.479780 0.010685 0.000000 0.474720 0.014796 0.000000 0.465778 0.019057 0.000000 0.456276 0.023192 0.000000 0.443158 0.027372 0.000000 0.429257 0.031396 0.000000 0.412073 0.035356 0.000000 0.393964 0.039124 0.000000 0.372970 0.042725 0.000000 0.350990 0.046099 0.000000 0.326590 0.049213 0.000000 0.301218 0.052063 0.000000 0.273949 0.054576 0.000000 0.245787 0.056792 0.000000 0.216302 0.058618 0.000000 0.186054 0.060115 0.000000 0.155097 0.061193 0.000000 0.123533 0.061917 0.000000 0.091904 0.062222 0.000000 0.059834 0.062153 0.000000 0.028354 0.061693 0.000000 -0.003414 0.060845 0.000000 -0.033942 0.059663 0.000000 -0.064637 0.058086 0.000000 -0.093459 0.056256 0.000000 -0.122384 0.054029 0.000000 -0.148834 0.051652 0.000000 -0.175391 0.048883 0.000000 -0.198916 0.046078 0.000000 -0.222634 0.042894 0.000000 -0.242813 0.039796 0.000000 -0.263360 0.036333 0.000000 -0.279919 0.033082 0.000000 -0.297110 0.029482 0.000000 -0.309924 0.026213 0.000000 -0.323718 0.022614 0.000000 -0.332804 0.019450 0.000000 -0.343296 0.015978 0.000000 -0.348805 0.013028 0.000000 -0.356204 0.009789 0.000000 -0.358394 0.007138 0.000000 -0.363006 0.004217 0.000000 -0.362225 0.001924 0.000000 -0.364418 -0.000616 0.000000 -0.361075 -0.002517 0.000000 -0.361258 -0.004643 0.000000 -0.355796 -0.006144 0.000000 -0.354387 -0.007843 0.000000 -0.347260 -0.008960 0.000000 -0.344663 -0.010241 0.000000 -0.336313 -0.011009 0.000000 -0.332896 -0.011899 0.000000 -0.323732 -0.012368 0.000000 -0.319813 -0.012908 0.000000 -0.310200 -0.013139 0.000000 -0.306032 -0.013380 0.000000 -0.296281 -0.013438 0.000000 -0.292048 -0.013436 0.000000 -0.282408 -0.013389 0.000000 -0.278224 -0.013202 0.000000 -0.268884 -0.013113 0.000000 -0.264796 -0.012800 0.000000 -0.255880 -0.012726 0.000000 -0.251877 -0.012343 0.000000 -0.243453 -0.012332 0.000000 -0.239469 -0.011930 0.000000 -0.231551 -0.012021 0.000000 -0.227482 -0.011645 0.000000 -0.220038 -0.011864 0.000000 -0.215751 -0.011554 0.000000 -0.208708 -0.011919 0.000000 -0.204050 -0.011704 0.000000 -0.197305 -0.012223 0.000000 -0.192117 -0.012129 0.000000 -0.185541 -0.012798 0.000000 -0.179664 -0.012843 0.000000 -0.173110 -0.013655 0.000000 -0.166395 -0.013847 0.000000 -0.159708 -0.014788 0.000000 -0.152019 -0.015132 0.000000 -0.145040 -0.016182 0.000000 -0.136262 -0.016675 0.000000 -0.128835 -0.017813 0.000000 -0.118872 -0.018446 0.000000 -0.110852 -0.019650 0.000000 -0.099634 -0.020409 0.000000 -0.090886 -0.021653 0.000000 -0.078367 -0.022519 0.000000 -0.068780 -0.023779 0.000000 -0.054938 -0.024729 0.000000 -0.044422 -0.025977 0.000000 -0.029264 -0.026984 0.000000 -0.017756 -0.028192 0.000000 -0.001318 -0.029223 0.000000 0.011212 -0.030363 0.000000 0.028869 -0.031384 0.000000 0.042416 -0.032423 0.000000 0.061195 -0.033394 0.000000 0.075716 -0.034299 0.000000 0.095488 -0.035178 0.000000 
0.113685 -0.053925 0.000000 0.133876 -0.055048 0.000000 0.150735 -0.055966 0.000000 0.171490 -0.056819 0.000000 0.188954 -0.057362 0.000000 0.210022 -0.057868 0.000000 0.227856 -0.057969 0.000000 0.248940 -0.058054 0.000000 0.266856 -0.057646 0.000000 0.287615 -0.057233 0.000000 0.305274 -0.056250 0.000000 0.325324 -0.055269 0.000000 0.342337 -0.053653 0.000000 0.361253 -0.052043 0.000000 0.377191 -0.049744 0.000000 0.394517 -0.047457 0.000000 0.408914 -0.044442 0.000000 0.424174 -0.041449 0.000000 0.436545 -0.037706 0.000000 0.449254 -0.034003 0.000000 0.459111 -0.029548 0.000000 0.468798 -0.025160 0.000000 0.475667 -0.020038 0.000000 0.481895 -0.015024 0.000000 0.485345 -0.009317 0.000000 0.487734 -0.003771 0.000000 0.487395 0.002405 0.000000 0.485648 0.008352 0.000000 0.481240 0.014846 0.000000 0.475166 0.021030 0.000000 0.466522 0.027660 0.000000 0.456055 0.033890 0.000000 0.443136 0.040452 0.000000 0.428350 0.046516 0.000000 0.411266 0.052793 0.000000 0.392380 0.058472 0.000000 0.371389 0.064243 0.000000 0.348772 0.069320 0.000000 0.324278 0.074379 0.000000 0.298436 0.078654 0.000000 0.270982 0.082814 0.000000 0.242537 0.086115 0.000000 0.212782 0.089229 0.000000 0.182453 0.091424 0.000000 0.151147 0.093387 0.000000 0.119714 0.094391 0.000000 0.087663 0.095150 0.000000 0.055934 0.094931 0.000000 0.023967 0.094487 0.000000 -0.007260 0.093070 0.000000 -0.038329 0.091479 0.000000 -0.068300 0.088942 0.000000 -0.097712 0.086311 0.000000 -0.125753 0.082780 0.000000 -0.152832 0.079259 0.000000 -0.178374 0.074904 0.000000 -0.202558 0.070678 0.000000 -0.225161 0.065695 0.000000 -0.246022 0.060974 0.000000 -0.265390 0.055581 0.000000 -0.282646 0.050581 0.000000 -0.298626 0.044998 0.000000 -0.312146 0.039936 0.000000 -0.324732 0.034377 0.000000 -0.334528 0.029452 0.000000 -0.343843 0.024112 0.000000 -0.350059 0.019497 0.000000 -0.356338 0.014541 0.000000 -0.359231 0.010375 0.000000 -0.362799 0.005934 0.000000 -0.362710 0.002316 0.000000 -0.363952 -0.001518 0.000000 -0.361286 -0.004531 0.000000 -0.360620 -0.007706 0.000000 -0.355817 -0.010097 0.000000 -0.353664 -0.012597 0.000000 -0.347172 -0.014387 0.000000 -0.343937 -0.016230 0.000000 -0.336191 -0.017472 0.000000 -0.332239 -0.018703 0.000000 -0.323644 -0.019472 0.000000 -0.319282 -0.020158 0.000000 -0.310198 -0.020549 0.000000 -0.305671 -0.020771 0.000000 -0.296403 -0.020885 0.000000 -0.291884 -0.020733 0.000000 -0.282677 -0.020676 0.000000 -0.278268 -0.020242 0.000000 -0.269307 -0.020112 0.000000 -0.265044 -0.019490 0.000000 -0.256451 -0.019377 0.000000 -0.252312 -0.018652 0.000000 -0.244152 -0.018632 0.000000 -0.240062 -0.017885 0.000000 -0.232349 -0.018019 0.000000 -0.228196 -0.017318 0.000000 -0.220898 -0.017651 0.000000 -0.216542 -0.017057 0.000000 -0.209587 -0.017615 0.000000 -0.204873 -0.017175 0.000000 -0.198156 -0.017970 0.000000 -0.192922 -0.017721 0.000000 -0.186317 -0.018752 0.000000 -0.180404 -0.018721 0.000000 -0.173765 -0.019975 0.000000 -0.167026 -0.020175 0.000000 -0.160198 -0.021631 0.000000 -0.152500 -0.022068 0.000000 -0.145325 -0.023698 0.000000 -0.136555 -0.024367 0.000000 -0.128879 -0.026138 0.000000 -0.118947 -0.027025 0.000000 -0.110624 -0.028902 0.000000 -0.099463 -0.029987 0.000000 -0.090363 -0.031933 0.000000 -0.077932 -0.033187 0.000000 -0.067943 -0.035163 0.000000 -0.054225 -0.036550 0.000000 -0.043258 -0.038517 0.000000 -0.028265 -0.039996 0.000000 -0.016260 -0.041911 0.000000 -0.000029 -0.043435 0.000000 0.013043 -0.045254 0.000000 0.030446 -0.046770 0.000000 0.044577 -0.048445 0.000000 0.063054 -0.049896 0.000000 0.078198 -0.051376 0.000000 0.097616 -0.052696 0.000000 
0.108546 -0.072172 0.000000 0.129455 -0.073703 0.000000 0.145891 -0.074789 0.000000 0.167483 -0.075950 0.000000 0.184571 -0.076531 0.000000 0.206599 -0.077221 0.000000 0.224110 -0.077210 0.000000 0.246280 -0.077325 0.000000 0.263930 -0.076635 0.000000 0.285901 -0.076074 0.000000 0.303354 -0.074619 0.000000 0.324735 -0.073289 0.000000 0.341603 -0.070993 0.000000 0.361961 -0.068811 0.000000 0.377807 -0.065614 0.000000 0.396669 -0.062515 0.000000 0.411023 -0.058378 0.000000 0.427888 -0.054326 0.000000 0.440251 -0.049240 0.000000 0.454604 -0.044230 0.000000 0.464470 -0.038222 0.000000 0.475802 -0.032289 0.000000 0.482677 -0.025429 0.000000 0.490504 -0.018652 0.000000 0.493932 -0.011056 0.000000 0.497825 -0.003565 0.000000 0.497410 0.004604 0.000000 0.497018 0.012633 0.000000 0.492457 0.021167 0.000000 0.487534 0.029515 0.000000 0.478638 0.038168 0.000000 0.469069 0.046578 0.000000 0.455785 0.055077 0.000000 0.441599 0.063266 0.000000 0.424029 0.071325 0.000000 0.405415 0.079001 0.000000 0.383819 0.086334 0.000000 0.361127 0.093209 0.000000 0.335924 0.099549 0.000000 0.309655 0.105359 0.000000 0.281411 0.110475 0.000000 0.252203 0.114992 0.000000 0.221612 0.118701 0.000000 0.190212 0.121750 0.000000 0.158064 0.123932 0.000000 0.125296 0.125401 0.000000 0.092444 0.126002 0.000000 0.059172 0.125849 0.000000 0.026492 0.124887 0.000000 -0.006422 0.123142 0.000000 -0.038070 0.120704 0.000000 -0.069806 0.117469 0.000000 -0.099622 0.113708 0.000000 -0.129436 0.109149 0.000000 -0.156712 0.104273 0.000000 -0.183973 0.098609 0.000000 -0.208125 0.092866 0.000000 -0.232339 0.086358 0.000000 -0.252929 0.080024 0.000000 -0.273753 0.072957 0.000000 -0.290502 0.066318 0.000000 -0.307755 0.058983 0.000000 -0.320544 0.052318 0.000000 -0.334201 0.044996 0.000000 -0.343070 0.038561 0.000000 -0.353251 0.031509 0.000000 -0.358375 0.025524 0.000000 -0.365326 0.018960 0.000000 -0.367001 0.013598 0.000000 -0.371065 0.007697 0.000000 -0.369677 0.003078 0.000000 -0.371265 -0.002040 0.000000 -0.367262 -0.005849 0.000000 -0.366823 -0.010113 0.000000 -0.360687 -0.013100 0.000000 -0.358677 -0.016488 0.000000 -0.350893 -0.018687 0.000000 -0.347747 -0.021221 0.000000 -0.338785 -0.022708 0.000000 -0.334897 -0.024446 0.000000 -0.325187 -0.025325 0.000000 -0.320889 -0.026354 0.000000 -0.310813 -0.026751 0.000000 -0.306368 -0.027175 0.000000 -0.296243 -0.027226 0.000000 -0.291838 -0.027162 0.000000 -0.281917 -0.027004 0.000000 -0.277661 -0.026572 0.000000 -0.268131 -0.026337 0.000000 -0.264061 -0.025656 0.000000 -0.255042 -0.025459 0.000000 -0.251133 -0.024643 0.000000 -0.242685 -0.024582 0.000000 -0.238856 -0.023733 0.000000 -0.230985 -0.023886 0.000000 -0.227114 -0.023096 0.000000 -0.219776 -0.023518 0.000000 -0.215714 -0.022865 0.000000 -0.208826 -0.023588 0.000000 -0.204406 -0.023135 0.000000 -0.197852 -0.024173 0.000000 -0.192899 -0.023968 0.000000 -0.186540 -0.025316 0.000000 -0.180886 -0.025394 0.000000 -0.174565 -0.027033 0.000000 -0.168051 -0.027414 0.000000 -0.161601 -0.029314 0.000000 -0.154086 -0.030005 0.000000 -0.147339 -0.032127 0.000000 -0.138702 -0.033120 0.000000 -0.131494 -0.035421 0.000000 -0.121637 -0.036701 0.000000 -0.113814 -0.039133 0.000000 -0.102665 -0.040670 0.000000 -0.094086 -0.043185 0.000000 -0.081597 -0.044940 0.000000 -0.072143 -0.047486 0.000000 -0.058292 -0.049413 0.000000 -0.047867 -0.051938 0.000000 -0.032659 -0.053982 0.000000 -0.021196 -0.056429 0.000000 -0.004661 -0.058526 0.000000 0.007877 -0.060838 0.000000 0.025677 -0.062918 0.000000 0.039291 -0.065031 0.000000 0.058265 -0.067016 0.000000 0.072916 -0.068862 0.000000 0.092938 -0.070666 0.000000 
0.110648 -0.090442 0.000000 0.131259 -0.092393 0.000000 0.148488 -0.093994 0.000000 0.169748 -0.095499 0.000000 0.187683 -0.096478 0.000000 0.209343 -0.097407 0.000000 0.227751 -0.097650 0.000000 0.249515 -0.097875 0.000000 0.268107 -0.097267 0.000000 0.289631 -0.096656 0.000000 0.308060 -0.095085 0.000000 0.328950 -0.093518 0.000000 0.346816 -0.090878 0.000000 0.366633 -0.088248 0.000000 0.383487 -0.084452 0.000000 0.401753 -0.080672 0.000000 0.417104 -0.075660 0.000000 0.433313 -0.070676 0.000000 0.446642 -0.064422 0.000000 0.460273 -0.058222 0.000000 0.471052 -0.050746 0.000000 0.481592 -0.043367 0.000000 0.489304 -0.034741 0.000000 0.496269 -0.026279 0.000000 0.500432 -0.016637 0.000000 0.503395 -0.007250 0.000000 0.503593 0.003212 0.000000 0.502213 0.013305 0.000000 0.498122 0.024329 0.000000 0.492168 0.034849 0.000000 0.483584 0.046126 0.000000 0.472964 0.056743 0.000000 0.459825 0.067922 0.000000 0.444597 0.078273 0.000000 0.427000 0.088977 0.000000 0.407388 0.098682 0.000000 0.385596 0.108532 0.000000 0.361987 0.117216 0.000000 0.336427 0.125851 0.000000 0.309361 0.133166 0.000000 0.280614 0.140266 0.000000 0.250763 0.145915 0.000000 0.219540 0.151221 0.000000 0.187684 0.154972 0.000000 0.154797 0.158303 0.000000 0.121784 0.160011 0.000000 0.088110 0.161274 0.000000 0.054819 0.160883 0.000000 0.021260 0.160081 0.000000 -0.011442 0.157633 0.000000 -0.044002 0.154863 0.000000 -0.075295 0.150493 0.000000 -0.106032 0.145941 0.000000 -0.135188 0.139870 0.000000 -0.163371 0.133797 0.000000 -0.189780 0.126317 0.000000 -0.214808 0.119044 0.000000 -0.238002 0.110499 0.000000 -0.259423 0.102388 0.000000 -0.279095 0.093153 0.000000 -0.296620 0.084583 0.000000 -0.312626 0.075041 0.000000 -0.326133 0.066383 0.000000 -0.338489 0.056903 0.000000 -0.348015 0.048502 0.000000 -0.356880 0.039417 0.000000 -0.362608 0.031572 0.000000 -0.368264 0.023167 0.000000 -0.370495 0.016114 0.000000 -0.373320 0.008610 0.000000 -0.372447 0.002516 0.000000 -0.372880 -0.003933 0.000000 -0.369360 -0.008973 0.000000 -0.367871 -0.014281 0.000000 -0.362192 -0.018244 0.000000 -0.359252 -0.022391 0.000000 -0.351906 -0.025317 0.000000 -0.347958 -0.028338 0.000000 -0.339417 -0.030322 0.000000 -0.334856 -0.032301 0.000000 -0.325551 -0.033480 0.000000 -0.320708 -0.034533 0.000000 -0.311019 -0.035071 0.000000 -0.306146 -0.035341 0.000000 -0.296390 -0.035416 0.000000 -0.291662 -0.035059 0.000000 -0.282088 -0.034852 0.000000 -0.277601 -0.034029 0.000000 -0.268391 -0.033712 0.000000 -0.264167 -0.032578 0.000000 -0.255438 -0.032305 0.000000 -0.251435 -0.031009 0.000000 -0.243243 -0.030909 0.000000 -0.239366 -0.029585 0.000000 -0.231712 -0.029761 0.000000 -0.227828 -0.028527 0.000000 -0.220666 -0.029051 0.000000 -0.216612 -0.028007 0.000000 -0.209857 -0.028923 0.000000 -0.205457 -0.028149 0.000000 -0.198990 -0.029476 0.000000 -0.194066 -0.029033 0.000000 -0.187743 -0.030766 0.000000 -0.182122 -0.030696 0.000000 -0.175785 -0.032810 0.000000 -0.169307 -0.033139 0.000000 -0.162788 -0.035596 0.000000 -0.155312 -0.036330 0.000000 -0.148441 -0.039081 0.000000 -0.139849 -0.040212 0.000000 -0.132459 -0.043202 0.000000 -0.122658 -0.044706 0.000000 -0.114593 -0.047875 0.000000 -0.103515 -0.049715 0.000000 -0.094634 -0.053001 0.000000 -0.082234 -0.055130 0.000000 -0.072416 -0.058468 0.000000 -0.058677 -0.060826 0.000000 -0.047827 -0.064150 0.000000 -0.032757 -0.066668 0.000000 -0.020805 -0.069909 0.000000 -0.004438 -0.072508 0.000000 0.008651 -0.075592 0.000000 0.026253 -0.078184 0.000000 0.040479 -0.081033 0.000000 0.059222 -0.083521 0.000000 0.074548 -0.086049 0.000000 0.094307 -0.088326 0.000000 
0.104478 -0.109124 0.000000 0.125902 -0.111543 0.000000 0.142785 -0.113277 0.000000 0.164999 -0.115145 0.000000 0.182662 -0.116126 0.000000 0.205426 -0.117289 0.000000 0.223642 -0.117383 0.000000 0.246663 -0.117681 0.000000 0.265148 -0.116750 0.000000 0.288083 -0.116027 0.000000 0.306492 -0.113938 0.000000 0.328941 -0.112045 0.000000 0.346873 -0.108676 0.000000 0.368386 -0.105481 0.000000 0.385382 -0.100733 0.000000 0.405461 -0.096132 0.000000 0.421018 -0.089938 0.000000 0.439125 -0.083864 0.000000 0.452704 -0.076201 0.000000 0.468280 -0.068641 0.000000 0.479324 -0.059541 0.000000 0.491806 -0.050540 0.000000 0.499763 -0.040105 0.000000 0.508608 -0.029781 0.000000 0.512960 -0.018183 0.000000 0.517674 -0.006727 0.000000 0.517964 0.005786 0.000000 0.518136 0.018104 0.000000 0.514001 0.031212 0.000000 0.509332 0.044052 0.000000 0.500533 0.057373 0.000000 0.490865 0.070337 0.000000 0.477316 0.083444 0.000000 0.462655 0.096091 0.000000 0.444439 0.108534 0.000000 0.424972 0.120405 0.000000 0.402354 0.131735 0.000000 0.378448 0.142378 0.000000 0.351876 0.152175 0.000000 0.324072 0.161173 0.000000 0.294161 0.169072 0.000000 0.263160 0.176065 0.000000 0.230671 0.181781 0.000000 0.197296 0.186493 0.000000 0.163103 0.189833 0.000000 0.128267 0.192088 0.000000 0.093316 0.192967 0.000000 0.057979 0.192699 0.000000 0.023242 0.191147 0.000000 -0.011641 0.188403 0.000000 -0.045211 0.184558 0.000000 -0.078729 0.179499 0.000000 -0.110246 0.173601 0.000000 -0.141581 0.166488 0.000000 -0.170266 0.158864 0.000000 -0.198727 0.150045 0.000000 -0.223944 0.141088 0.000000 -0.248996 0.130973 0.000000 -0.270276 0.121117 0.000000 -0.291559 0.110154 0.000000 -0.308615 0.099850 0.000000 -0.325955 0.088496 0.000000 -0.338683 0.078181 0.000000 -0.352082 0.066878 0.000000 -0.360554 0.056953 0.000000 -0.370180 0.046101 0.000000 -0.374625 0.036908 0.000000 -0.380783 0.026847 0.000000 -0.381557 0.018653 0.000000 -0.384661 0.009649 0.000000 -0.382218 0.002638 0.000000 -0.382752 -0.005127 0.000000 -0.377609 -0.010858 0.000000 -0.376093 -0.017281 0.000000 -0.368795 -0.021719 0.000000 -0.365749 -0.026774 0.000000 -0.356839 -0.029981 0.000000 -0.352752 -0.033710 0.000000 -0.342747 -0.035810 0.000000 -0.338053 -0.038311 0.000000 -0.327419 -0.039473 0.000000 -0.322480 -0.040886 0.000000 -0.311620 -0.041312 0.000000 -0.306713 -0.041804 0.000000 -0.295961 -0.041710 0.000000 -0.291274 -0.041463 0.000000 -0.280887 -0.041065 0.000000 -0.276520 -0.040269 0.000000 -0.266680 -0.039771 0.000000 -0.262654 -0.038609 0.000000 -0.253473 -0.038191 0.000000 -0.249737 -0.036838 0.000000 -0.241262 -0.036651 0.000000 -0.237708 -0.035263 0.000000 -0.229927 -0.035425 0.000000 -0.226404 -0.034142 0.000000 -0.219256 -0.034734 0.000000 -0.215587 -0.033674 0.000000 -0.208969 -0.034743 0.000000 -0.204958 -0.034002 0.000000 -0.198736 -0.035565 0.000000 -0.194189 -0.035215 0.000000 -0.188203 -0.037260 0.000000 -0.182931 -0.037352 0.000000 -0.177007 -0.039848 0.000000 -0.170837 -0.040412 0.000000 -0.164792 -0.043309 0.000000 -0.157571 -0.044352 0.000000 -0.151221 -0.047590 0.000000 -0.142822 -0.049102 0.000000 -0.135988 -0.052612 0.000000 -0.126310 -0.054567 0.000000 -0.118824 -0.058277 0.000000 -0.107791 -0.060629 0.000000 -0.099501 -0.064465 0.000000 -0.087063 -0.067157 0.000000 -0.077839 -0.071042 0.000000 -0.063974 -0.074003 0.000000 -0.053709 -0.077858 0.000000 -0.038417 -0.081003 0.000000 -0.027035 -0.084748 0.000000 -0.010344 -0.087982 0.000000 0.002201 -0.091528 0.000000 0.020236 -0.094746 0.000000 0.033954 -0.098001 0.000000 0.053248 -0.101084 0.000000 0.068110 -0.103946 0.000000 0.088546 -0.106766 0.000000 
0.105872 -0.127797 0.000000 0.127107 -0.130700 0.000000 0.144886 -0.133092 0.000000 0.166898 -0.135376 0.000000 0.185539 -0.136904 0.000000 0.208087 -0.138387 0.000000 0.227359 -0.138888 0.000000 0.250148 -0.139380 0.000000 0.269761 -0.138686 0.000000 0.292443 -0.138000 0.000000 0.312042 -0.135943 0.000000 0.334212 -0.133899 0.000000 0.353380 -0.130323 0.000000 0.374577 -0.126757 0.000000 0.392836 -0.121527 0.000000 0.412550 -0.116307 0.000000 0.429372 -0.109325 0.000000 0.447051 -0.102362 0.000000 0.461866 -0.093577 0.000000 0.476934 -0.084842 0.000000 0.489153 -0.074271 0.000000 0.501030 -0.063806 0.000000 0.510064 -0.051543 0.000000 0.518193 -0.039476 0.000000 0.523486 -0.025704 0.000000 0.527365 -0.012254 0.000000 0.528424 0.002750 0.000000 0.527640 0.017268 0.000000 0.524070 0.033134 0.000000 0.518331 0.048316 0.000000 0.509869 0.064593 0.000000 0.499035 0.079960 0.000000 0.485578 0.096131 0.000000 0.469687 0.111149 0.000000 0.451313 0.126660 0.000000 0.430589 0.140767 0.000000 0.407568 0.155056 0.000000 0.382427 0.167695 0.000000 0.355221 0.180226 0.000000 0.326257 0.190881 0.000000 0.295506 0.201179 0.000000 0.263471 0.209405 0.000000 0.229967 0.217085 0.000000 0.195736 0.222540 0.000000 0.160391 0.227331 0.000000 0.124918 0.229797 0.000000 0.088721 0.231562 0.000000 0.052998 0.230957 0.000000 0.016964 0.229700 0.000000 -0.018030 0.226085 0.000000 -0.052905 0.221951 0.000000 -0.086251 0.215529 0.000000 -0.119041 0.208793 0.000000 -0.149923 0.199891 0.000000 -0.179813 0.190943 0.000000 -0.207555 0.179995 0.000000 -0.233879 0.169313 0.000000 -0.257972 0.156831 0.000000 -0.280241 0.144952 0.000000 -0.300362 0.131493 0.000000 -0.318277 0.118978 0.000000 -0.334295 0.105109 0.000000 -0.347751 0.092511 0.000000 -0.359717 0.078774 0.000000 -0.368792 0.066600 0.000000 -0.376926 0.053488 0.000000 -0.381862 0.042175 0.000000 -0.386520 0.030099 0.000000 -0.387694 0.019991 0.000000 -0.389336 0.009271 0.000000 -0.387223 0.000607 0.000000 -0.386376 -0.008542 0.000000 -0.381514 -0.015632 0.000000 -0.378732 -0.023095 0.000000 -0.371686 -0.028588 0.000000 -0.367514 -0.034347 0.000000 -0.358843 -0.038313 0.000000 -0.353787 -0.042431 0.000000 -0.344018 -0.045022 0.000000 -0.338520 -0.047629 0.000000 -0.328127 -0.049053 0.000000 -0.322547 -0.050331 0.000000 -0.311937 -0.050837 0.000000 -0.306544 -0.051000 0.000000 -0.296050 -0.050855 0.000000 -0.291018 -0.050134 0.000000 -0.280894 -0.049607 0.000000 -0.276306 -0.048235 0.000000 -0.266731 -0.047578 0.000000 -0.262587 -0.045785 0.000000 -0.253666 -0.045222 0.000000 -0.249894 -0.043221 0.000000 -0.241668 -0.042938 0.000000 -0.238140 -0.040921 0.000000 -0.230591 -0.041064 0.000000 -0.227137 -0.039198 0.000000 -0.220198 -0.039869 0.000000 -0.216622 -0.038294 0.000000 -0.210185 -0.039552 0.000000 -0.206279 -0.038381 0.000000 -0.200203 -0.040246 0.000000 -0.195761 -0.039566 0.000000 -0.189881 -0.042024 0.000000 -0.184709 -0.041892 0.000000 -0.178844 -0.044905 0.000000 -0.172767 -0.045354 0.000000 -0.166728 -0.048862 0.000000 -0.159593 -0.049901 0.000000 -0.153191 -0.053830 0.000000 -0.144872 -0.055445 0.000000 -0.137924 -0.059714 0.000000 -0.128323 -0.061870 0.000000 -0.120656 -0.066394 0.000000 -0.109703 -0.069038 0.000000 -0.101162 -0.073728 0.000000 -0.088811 -0.076791 0.000000 -0.079262 -0.081558 0.000000 -0.065493 -0.084956 0.000000 -0.054828 -0.089706 0.000000 -0.039646 -0.093342 0.000000 -0.027784 -0.097982 0.000000 -0.011219 -0.101744 0.000000 0.001887 -0.106172 0.000000 0.019780 -0.109937 0.000000 0.034141 -0.114046 0.000000 0.053277 -0.117677 0.000000 0.068865 -0.121347 0.000000 0.089128 -0.124695 0.000000 