# vtk DataFile Version 2.0
Comment goes here
ASCII

DATASET STRUCTURED_POINTS
FIELD FieldData 1
TIME 1 1 double
0.02000000
DIMENSIONS    128   128   1

ORIGIN    0.000   0.000   0.000
SPACING   0.039062 0.039062   1.000

POINT_DATA   16384
VECTORS u double

0.430717 0.000000 0.000000 0.457030 0.000000 0.000000 0.475696 0.000000 0.000000 0.500062 0.000000 0.000000 0.518432 0.000000 0.000000 0.540594 0.000000 0.000000 0.558484 0.000000 0.000000 0.578166 0.000000 0.000000 0.595357 0.000000 0.000000 0.612262 0.000000 0.000000 0.628500 0.000000 0.000000 0.642323 0.000000 0.000000 0.657319 0.000000 0.000000 0.667745 0.000000 0.000000 0.681186 0.000000 0.000000 0.687903 0.000000 0.000000 0.699452 0.000000 0.000000 0.702161 0.000000 0.000000 0.711473 0.000000 0.000000 0.709896 0.000000 0.000000 0.716627 0.000000 0.000000 0.710521 0.000000 0.000000 0.714340 0.000000 0.000000 0.703512 0.000000 0.000000 0.704117 0.000000 0.000000 0.688435 0.000000 0.000000 0.685568 0.000000 0.000000 0.664971 0.000000 0.000000 0.658433 0.000000 0.000000 0.632946 0.000000 0.000000 0.622607 0.000000 0.000000 0.592343 0.000000 0.000000 0.578158 0.000000 0.000000 0.543328 0.000000 0.000000 0.525339 0.000000 0.000000 0.486254 0.000000 0.000000 0.464600 0.000000 0.000000 0.421667 0.000000 0.000000 0.396581 0.000000 0.000000 0.350302 0.000000 0.000000 0.322112 0.000000 0.000000 0.273072 0.000000 0.000000 0.242196 0.000000 0.000000 0.191057 0.000000 0.000000 0.157990 0.000000 0.000000 0.105477 0.000000 0.000000 0.070783 0.000000 0.000000 0.017667 0.000000 0.000000 -0.018036 0.000000 0.000000 -0.070953 0.000000 0.000000 -0.107011 0.000000 0.000000 -0.158913 0.000000 0.000000 -0.194656 0.000000 0.000000 -0.244736 0.000000 0.000000 -0.279495 0.000000 0.000000 -0.326974 0.000000 0.000000 -0.360108 0.000000 0.000000 -0.404257 0.000000 0.000000 -0.435172 0.000000 0.000000 -0.475333 0.000000 0.000000 -0.503502 0.000000 0.000000 -0.539110 0.000000 0.000000 -0.564092 0.000000 0.000000 -0.594689 0.000000 0.000000 -0.616146 0.000000 0.000000 -0.641395 0.000000 0.000000 -0.659099 0.000000 0.000000 -0.678793 0.000000 0.000000 -0.692629 0.000000 0.000000 -0.706688 0.000000 0.000000 -0.716652 0.000000 0.000000 -0.725122 0.000000 0.000000 -0.731313 0.000000 0.000000 -0.734351 0.000000 0.000000 -0.736958 0.000000 0.000000 -0.734815 0.000000 0.000000 -0.734097 0.000000 0.000000 -0.727103 0.000000 0.000000 -0.723370 0.000000 0.000000 -0.711909 0.000000 0.000000 -0.705504 0.000000 0.000000 -0.689993 0.000000 0.000000 -0.681271 0.000000 0.000000 -0.662143 0.000000 0.000000 -0.651454 0.000000 0.000000 -0.629141 0.000000 0.000000 -0.616820 0.000000 0.000000 -0.591740 0.000000 0.000000 -0.578093 0.000000 0.000000 -0.550643 0.000000 0.000000 -0.535942 0.000000 0.000000 -0.506490 0.000000 0.000000 -0.490969 0.000000 0.000000 -0.459854 0.000000 0.000000 -0.443710 0.000000 0.000000 -0.411238 0.000000 0.000000 -0.394631 0.000000 0.000000 -0.361080 0.000000 0.000000 -0.344133 0.000000 0.000000 -0.309751 0.000000 0.000000 -0.292558 0.000000 0.000000 -0.257571 0.000000 0.000000 -0.240197 0.000000 0.000000 -0.204807 0.000000 0.000000 -0.187295 0.000000 0.000000 -0.151686 0.000000 0.000000 -0.134058 0.000000 0.000000 -0.098398 0.000000 0.000000 -0.080663 0.000000 0.000000 -0.045108 0.000000 0.000000 -0.027262 0.000000 0.000000 0.008042 0.000000 0.000000 0.026009 0.000000 0.000000 0.060922 0.000000 0.000000 0.079024 0.000000 0.000000 0.113408 0.000000 0.000000 0.131658 0.000000 0.000000 0.165374 0.000000 0.000000 0.183779 0.000000 0.000000 0.216686 0.000000 0.000000 0.235244 0.000000 0.000000 0.267189 0.000000 0.000000 0.285886 0.000000 0.000000 0.316707 0.000000 0.000000 0.335509 0.000000 0.000000 0.365029 0.000000 0.000000 0.383879 0.000000 0.000000 0.411903 0.000000 0.000000 
0.429107 -0.022564 0.000000 0.455222 -0.022489 0.000000 0.473826 -0.021516 0.000000 0.497999 -0.021368 0.000000 0.516284 -0.020266 0.000000 0.538261 -0.020026 0.000000 0.556041 -0.018786 0.000000 0.575545 -0.018436 0.000000 0.592600 -0.017048 0.000000 0.609340 -0.016572 0.000000 0.625414 -0.015030 0.000000 0.639086 -0.014410 0.000000 0.653891 -0.012711 0.000000 0.664186 -0.011933 0.000000 0.677410 -0.010079 0.000000 0.684020 -0.009133 0.000000 0.695331 -0.007129 0.000000 0.697961 -0.006011 0.000000 0.707016 -0.003867 0.000000 0.705395 -0.002577 0.000000 0.711855 -0.000313 0.000000 0.705745 0.001144 0.000000 0.709287 0.003504 0.000000 0.698501 0.005111 0.000000 0.698830 0.007539 0.000000 0.683238 0.009274 0.000000 0.680105 0.011732 0.000000 0.659651 0.013567 0.000000 0.652864 0.016013 0.000000 0.627574 0.017913 0.000000 0.617012 0.020301 0.000000 0.587001 0.022225 0.000000 0.572625 0.024507 0.000000 0.538102 0.026409 0.000000 0.519961 0.028537 0.000000 0.481234 0.030370 0.000000 0.459471 0.032294 0.000000 0.416942 0.034009 0.000000 0.391795 0.035683 0.000000 0.345958 0.037234 0.000000 0.317756 0.038615 0.000000 0.269189 0.039958 0.000000 0.238349 0.041008 0.000000 0.187706 0.042103 0.000000 0.154722 0.042790 0.000000 0.102716 0.043603 0.000000 0.068151 0.043905 0.000000 0.015545 0.044410 0.000000 -0.019989 0.044310 0.000000 -0.072401 0.044487 0.000000 -0.108254 0.043980 0.000000 -0.159666 0.043822 0.000000 -0.195172 0.042911 0.000000 -0.244783 0.042420 0.000000 -0.279281 0.041119 0.000000 -0.326318 0.040307 0.000000 -0.359170 0.038642 0.000000 -0.402910 0.037532 0.000000 -0.433527 0.035538 0.000000 -0.473316 0.034165 0.000000 -0.501178 0.031888 0.000000 -0.536453 0.030295 0.000000 -0.561125 0.027790 0.000000 -0.591431 0.026027 0.000000 -0.612579 0.023353 0.000000 -0.637583 0.021476 0.000000 -0.654984 0.018699 0.000000 -0.674479 0.016765 0.000000 -0.688024 0.013947 0.000000 -0.701933 0.012012 0.000000 -0.711625 0.009217 0.000000 -0.719994 0.007331 0.000000 -0.725937 0.004614 0.000000 -0.728925 0.002822 0.000000 -0.731313 0.000232 0.000000 -0.729173 -0.001430 0.000000 -0.728269 -0.003856 0.000000 -0.721330 -0.005363 0.000000 -0.717448 -0.007597 0.000000 -0.706093 -0.008933 0.000000 -0.699578 -0.010958 0.000000 -0.684223 -0.012117 0.000000 -0.675430 -0.013925 0.000000 -0.656504 -0.014908 0.000000 -0.645784 -0.016501 0.000000 -0.623715 -0.017317 0.000000 -0.611398 -0.018700 0.000000 -0.586599 -0.019364 0.000000 -0.572987 -0.020549 0.000000 -0.545848 -0.021076 0.000000 -0.531209 -0.022076 0.000000 -0.502092 -0.022486 0.000000 -0.486652 -0.023318 0.000000 -0.455888 -0.023629 0.000000 -0.439839 -0.024308 0.000000 -0.407727 -0.024540 0.000000 -0.391220 -0.025079 0.000000 -0.358032 -0.025249 0.000000 -0.341186 -0.025664 0.000000 -0.307164 -0.025787 0.000000 -0.290066 -0.026090 0.000000 -0.255431 -0.026180 0.000000 -0.238143 -0.026382 0.000000 -0.203092 -0.026451 0.000000 -0.185653 -0.026561 0.000000 -0.150369 -0.026618 0.000000 -0.132800 -0.026644 0.000000 -0.097449 -0.026698 0.000000 -0.079757 -0.026645 0.000000 -0.044494 -0.026701 0.000000 -0.026678 -0.026575 0.000000 0.008350 -0.026636 0.000000 0.026300 -0.026440 0.000000 0.060951 -0.026507 0.000000 0.079046 -0.026243 0.000000 0.113182 -0.026317 0.000000 0.131431 -0.025983 0.000000 0.164911 -0.026061 0.000000 0.183318 -0.025656 0.000000 0.215998 -0.025733 0.000000 0.234558 -0.025252 0.000000 0.266284 -0.025321 0.000000 0.284978 -0.024759 0.000000 0.315586 -0.024811 0.000000 0.334375 -0.024161 0.000000 0.363688 -0.024185 0.000000 0.382513 -0.023437 0.000000 0.410334 -0.023419 0.000000 
0.431647 -0.044888 0.000000 0.458078 -0.044719 0.000000 0.476818 -0.042778 0.000000 0.501313 -0.042458 0.000000 0.519773 -0.040261 0.000000 0.542075 -0.039757 0.000000 0.560074 -0.037284 0.000000 0.579903 -0.036559 0.000000 0.597221 -0.033795 0.000000 0.614281 -0.032814 0.000000 0.630662 -0.029746 0.000000 0.644642 -0.028478 0.000000 0.659795 -0.025100 0.000000 0.670378 -0.023519 0.000000 0.683985 -0.019834 0.000000 0.690853 -0.017921 0.000000 0.702575 -0.013941 0.000000 0.705423 -0.011685 0.000000 0.714907 -0.007434 0.000000 0.713451 -0.004839 0.000000 0.720347 -0.000351 0.000000 0.714338 0.002568 0.000000 0.718307 0.007245 0.000000 0.707546 0.010457 0.000000 0.708280 0.015263 0.000000 0.692628 0.018725 0.000000 0.689861 0.023587 0.000000 0.669253 0.027241 0.000000 0.662779 0.032077 0.000000 0.637234 0.035852 0.000000 0.626920 0.040573 0.000000 0.596550 0.044387 0.000000 0.582343 0.048899 0.000000 0.547358 0.052664 0.000000 0.529300 0.056868 0.000000 0.490012 0.060490 0.000000 0.468240 0.064292 0.000000 0.425057 0.067676 0.000000 0.399806 0.070984 0.000000 0.353234 0.074039 0.000000 0.324836 0.076769 0.000000 0.275465 0.079407 0.000000 0.244341 0.081484 0.000000 0.192840 0.083627 0.000000 0.159491 0.084989 0.000000 0.106592 0.086571 0.000000 0.071589 0.087171 0.000000 0.018071 0.088140 0.000000 -0.017958 0.087946 0.000000 -0.071283 0.088265 0.000000 -0.107676 0.087265 0.000000 -0.159983 0.086918 0.000000 -0.196059 0.085117 0.000000 -0.246529 0.084109 0.000000 -0.281609 0.081535 0.000000 -0.329452 0.079889 0.000000 -0.362884 0.076592 0.000000 -0.407361 0.074357 0.000000 -0.438540 0.070406 0.000000 -0.478983 0.067651 0.000000 -0.507373 0.063137 0.000000 -0.543208 0.059947 0.000000 -0.568361 0.054978 0.000000 -0.599125 0.051454 0.000000 -0.620698 0.046152 0.000000 -0.646050 0.042405 0.000000 -0.663812 0.036896 0.000000 -0.683544 0.033040 0.000000 -0.697382 0.027454 0.000000 -0.711418 0.023601 0.000000 -0.721333 0.018061 0.000000 -0.729724 0.014313 0.000000 -0.735822 0.008931 0.000000 -0.738732 0.005376 0.000000 -0.741210 0.000248 0.000000 -0.738903 -0.003044 0.000000 -0.738030 -0.007843 0.000000 -0.730844 -0.010821 0.000000 -0.726940 -0.015237 0.000000 -0.715270 -0.017870 0.000000 -0.708688 -0.021871 0.000000 -0.692960 -0.024148 0.000000 -0.684062 -0.027719 0.000000 -0.664718 -0.029646 0.000000 -0.653863 -0.032789 0.000000 -0.631340 -0.034386 0.000000 -0.618866 -0.037116 0.000000 -0.593588 -0.038411 0.000000 -0.579805 -0.040750 0.000000 -0.552171 -0.041778 0.000000 -0.537352 -0.043757 0.000000 -0.507732 -0.044556 0.000000 -0.492113 -0.046203 0.000000 -0.460844 -0.046813 0.000000 -0.444621 -0.048161 0.000000 -0.412010 -0.048618 0.000000 -0.395341 -0.049695 0.000000 -0.361664 -0.050035 0.000000 -0.344671 -0.050868 0.000000 -0.310177 -0.051120 0.000000 -0.292951 -0.051733 0.000000 -0.257863 -0.051924 0.000000 -0.240468 -0.052339 0.000000 -0.204986 -0.052490 0.000000 -0.187462 -0.052723 0.000000 -0.151769 -0.052853 0.000000 -0.134137 -0.052920 0.000000 -0.098400 -0.053042 0.000000 -0.080666 -0.052954 0.000000 -0.045038 -0.053079 0.000000 -0.027197 -0.052844 0.000000 0.008177 -0.052978 0.000000 0.026138 -0.052601 0.000000 0.061119 -0.052746 0.000000 0.079215 -0.052231 0.000000 0.113668 -0.052385 0.000000 0.131914 -0.051729 0.000000 0.165702 -0.051888 0.000000 0.184108 -0.051087 0.000000 0.217089 -0.051240 0.000000 0.235656 -0.050286 0.000000 0.267682 -0.050420 0.000000 0.286396 -0.049302 0.000000 0.317306 -0.049398 0.000000 0.336136 -0.048102 0.000000 0.365753 -0.048137 0.000000 0.384645 -0.046646 0.000000 0.412776 -0.046594 0.000000 
0.430982 -0.067866 0.000000 0.457332 -0.067660 0.000000 0.476087 -0.064750 0.000000 0.500516 -0.064324 0.000000 0.518986 -0.061028 0.000000 0.541238 -0.060327 0.000000 0.559239 -0.056614 0.000000 0.579036 -0.055583 0.000000 0.596345 -0.051426 0.000000 0.613390 -0.050012 0.000000 0.629750 -0.045391 0.000000 0.643732 -0.043543 0.000000 0.658851 -0.038447 0.000000 0.669453 -0.036123 0.000000 0.683009 -0.030555 0.000000 0.689915 -0.027723 0.000000 0.701566 -0.021699 0.000000 0.704469 -0.018343 0.000000 0.713863 -0.011896 0.000000 0.712479 -0.008016 0.000000 0.719262 -0.001200 0.000000 0.713342 0.003183 0.000000 0.717177 0.010296 0.000000 0.706519 0.015139 0.000000 0.707098 0.022457 0.000000 0.691563 0.027693 0.000000 0.688621 0.035107 0.000000 0.668142 0.040649 0.000000 0.661475 0.048032 0.000000 0.636071 0.053773 0.000000 0.625548 0.060986 0.000000 0.595327 0.066801 0.000000 0.580901 0.073699 0.000000 0.546072 0.079452 0.000000 0.527788 0.085884 0.000000 0.488658 0.091430 0.000000 0.466657 0.097248 0.000000 0.423634 0.102443 0.000000 0.398157 0.107506 0.000000 0.351742 0.112205 0.000000 0.323123 0.116383 0.000000 0.273904 0.120453 0.000000 0.242569 0.123633 0.000000 0.191211 0.126953 0.000000 0.157666 0.129039 0.000000 0.104898 0.131505 0.000000 0.069718 0.132425 0.000000 0.016319 0.133957 0.000000 -0.019864 0.133664 0.000000 -0.073083 0.134206 0.000000 -0.109602 0.132680 0.000000 -0.161814 0.132205 0.000000 -0.197983 0.129457 0.000000 -0.248366 0.127970 0.000000 -0.283501 0.124043 0.000000 -0.331261 0.121582 0.000000 -0.364703 0.116551 0.000000 -0.409095 0.113187 0.000000 -0.440235 0.107160 0.000000 -0.480585 0.102998 0.000000 -0.508883 0.096113 0.000000 -0.544612 0.091284 0.000000 -0.569618 0.083706 0.000000 -0.600258 0.078364 0.000000 -0.621630 0.070278 0.000000 -0.646839 0.064591 0.000000 -0.664350 0.056193 0.000000 -0.683920 0.050335 0.000000 -0.697465 0.041821 0.000000 -0.711326 0.035963 0.000000 -0.720914 0.027523 0.000000 -0.729124 0.021819 0.000000 -0.734875 0.013623 0.000000 -0.737609 0.008211 0.000000 -0.739734 0.000403 0.000000 -0.737265 -0.004611 0.000000 -0.736047 -0.011915 0.000000 -0.728725 -0.016453 0.000000 -0.724499 -0.023171 0.000000 -0.712728 -0.027186 0.000000 -0.705858 -0.033268 0.000000 -0.690072 -0.036742 0.000000 -0.680930 -0.042167 0.000000 -0.661575 -0.045108 0.000000 -0.650525 -0.049879 0.000000 -0.628042 -0.052314 0.000000 -0.615423 -0.056452 0.000000 -0.590234 -0.058425 0.000000 -0.576356 -0.061966 0.000000 -0.548855 -0.063528 0.000000 -0.533987 -0.066516 0.000000 -0.504539 -0.067726 0.000000 -0.488910 -0.070206 0.000000 -0.457846 -0.071121 0.000000 -0.441644 -0.073142 0.000000 -0.409262 -0.073820 0.000000 -0.392637 -0.075425 0.000000 -0.359205 -0.075919 0.000000 -0.342271 -0.077151 0.000000 -0.308030 -0.077507 0.000000 -0.290870 -0.078404 0.000000 -0.256036 -0.078664 0.000000 -0.238709 -0.079259 0.000000 -0.203477 -0.079457 0.000000 -0.186016 -0.079778 0.000000 -0.150566 -0.079943 0.000000 -0.132989 -0.080013 0.000000 -0.097483 -0.080169 0.000000 -0.079794 -0.080007 0.000000 -0.044384 -0.080170 0.000000 -0.026577 -0.079790 0.000000 0.008593 -0.079970 0.000000 0.026532 -0.079382 0.000000 0.061322 -0.079585 0.000000 0.079407 -0.078792 0.000000 0.113684 -0.079016 0.000000 0.131929 -0.078017 0.000000 0.165554 -0.078255 0.000000 0.183967 -0.077043 0.000000 0.216799 -0.077281 0.000000 0.235379 -0.075845 0.000000 0.267268 -0.076061 0.000000 0.286000 -0.074383 0.000000 0.316787 -0.074551 0.000000 0.335636 -0.072608 0.000000 0.365144 -0.072694 0.000000 0.384056 -0.070460 0.000000 0.412092 -0.070422 0.000000 
0.434410 -0.090128 0.000000 0.461195 -0.089824 0.000000 0.480154 -0.085962 0.000000 0.505036 -0.085358 0.000000 0.523770 -0.080983 0.000000 0.546489 -0.080010 0.000000 0.564818 -0.075082 0.000000 0.585091 -0.073665 0.000000 0.602792 -0.068149 0.000000 0.620316 -0.066218 0.000000 0.637130 -0.060088 0.000000 0.651585 -0.057579 0.000000 0.667214 -0.050821 0.000000 0.678270 -0.047677 0.000000 0.692385 -0.040296 0.000000 0.699710 -0.036478 0.000000 0.711955 -0.028495 0.000000 0.715226 -0.023982 0.000000 0.725233 -0.015443 0.000000 0.724147 -0.010238 0.000000 0.731545 -0.001214 0.000000 0.725834 0.004653 0.000000 0.730262 0.014067 0.000000 0.719708 0.020537 0.000000 0.720835 0.030219 0.000000 0.705279 0.037202 0.000000 0.702817 0.047008 0.000000 0.682179 0.054386 0.000000 0.675904 0.064149 0.000000 0.650190 0.071779 0.000000 0.639949 0.081317 0.000000 0.609264 0.089034 0.000000 0.594995 0.098154 0.000000 0.559545 0.105777 0.000000 0.541280 0.114282 0.000000 0.501378 0.121620 0.000000 0.479254 0.129316 0.000000 0.435316 0.136177 0.000000 0.409571 0.142877 0.000000 0.362114 0.149073 0.000000 0.333086 0.154607 0.000000 0.282717 0.159961 0.000000 0.250842 0.164177 0.000000 0.198247 0.168530 0.000000 0.164045 0.171302 0.000000 0.109979 0.174518 0.000000 0.074042 0.175750 0.000000 0.019310 0.177722 0.000000 -0.017710 0.177348 0.000000 -0.072267 0.178003 0.000000 -0.109678 0.175996 0.000000 -0.163206 0.175299 0.000000 -0.200295 0.171670 0.000000 -0.251944 0.169627 0.000000 -0.287999 0.164430 0.000000 -0.336946 0.161092 0.000000 -0.371281 0.154426 0.000000 -0.416753 0.149889 0.000000 -0.448732 0.141896 0.000000 -0.490031 0.136299 0.000000 -0.519090 0.127164 0.000000 -0.555616 0.120682 0.000000 -0.581284 0.110624 0.000000 -0.612554 0.103466 0.000000 -0.634473 0.092732 0.000000 -0.660135 0.085125 0.000000 -0.678069 0.073978 0.000000 -0.697915 0.066155 0.000000 -0.711755 0.054860 0.000000 -0.725716 0.047050 0.000000 -0.735477 0.035859 0.000000 -0.743622 0.028274 0.000000 -0.749431 0.017416 0.000000 -0.751951 0.010234 0.000000 -0.754032 -0.000097 0.000000 -0.751220 -0.006731 0.000000 -0.749872 -0.016383 0.000000 -0.742099 -0.022369 0.000000 -0.737673 -0.031234 0.000000 -0.725366 -0.036512 0.000000 -0.718244 -0.044526 0.000000 -0.701859 -0.049076 0.000000 -0.692428 -0.056215 0.000000 -0.672429 -0.060052 0.000000 -0.661069 -0.066323 0.000000 -0.637914 -0.069488 0.000000 -0.624978 -0.074924 0.000000 -0.599102 -0.077478 0.000000 -0.584909 -0.082129 0.000000 -0.556721 -0.084147 0.000000 -0.541550 -0.088072 0.000000 -0.511422 -0.089633 0.000000 -0.495509 -0.092897 0.000000 -0.463780 -0.094079 0.000000 -0.447320 -0.096745 0.000000 -0.414294 -0.097626 0.000000 -0.397440 -0.099753 0.000000 -0.363391 -0.100401 0.000000 -0.346260 -0.102043 0.000000 -0.311431 -0.102520 0.000000 -0.294108 -0.103727 0.000000 -0.258717 -0.104085 0.000000 -0.241261 -0.104898 0.000000 -0.205505 -0.105182 0.000000 -0.187948 -0.105635 0.000000 -0.152005 -0.105880 0.000000 -0.134363 -0.106003 0.000000 -0.098394 -0.106238 0.000000 -0.080667 -0.106053 0.000000 -0.044821 -0.106296 0.000000 -0.026998 -0.105821 0.000000 0.008585 -0.106086 0.000000 0.026523 -0.105331 0.000000 0.061710 -0.105622 0.000000 0.079784 -0.104592 0.000000 0.114443 -0.104906 0.000000 0.132676 -0.103599 0.000000 0.166676 -0.103925 0.000000 0.185082 -0.102332 0.000000 0.218289 -0.102652 0.000000 0.236876 -0.100756 0.000000 0.269144 -0.101041 0.000000 0.287907 -0.098820 0.000000 0.319081 -0.099034 0.000000 0.337993 -0.096460 0.000000 0.367902 -0.096557 0.000000 0.386916 -0.093593 0.000000 0.415369 -0.093520 0.000000 
0.434679 -0.113692 0.000000 0.461500 -0.113404 0.000000 0.480553 -0.108591 0.000000 0.505496 -0.107940 0.000000 0.524335 -0.102481 0.000000 0.547141 -0.101374 0.000000 0.565584 -0.095216 0.000000 0.585969 -0.093558 0.000000 0.603793 -0.086652 0.000000 0.621452 -0.084350 0.000000 0.638390 -0.076660 0.000000 0.653001 -0.073627 0.000000 0.668752 -0.065132 0.000000 0.679980 -0.061294 0.000000 0.694209 -0.051994 0.000000 0.701718 -0.047294 0.000000 0.714063 -0.037215 0.000000 0.717523 -0.031621 0.000000 0.727607 -0.020817 0.000000 0.726710 -0.014328 0.000000 0.734154 -0.002887 0.000000 0.728625 0.004465 0.000000 0.733062 0.016423 0.000000 0.722673 0.024566 0.000000 0.723764 0.036886 0.000000 0.708353 0.045710 0.000000 0.705806 0.058206 0.000000 0.685285 0.067563 0.000000 0.678869 0.080021 0.000000 0.653240 0.089727 0.000000 0.642803 0.101912 0.000000 0.612165 0.111756 0.000000 0.597644 0.123418 0.000000 0.562200 0.133166 0.000000 0.543631 0.144050 0.000000 0.503692 0.153457 0.000000 0.481214 0.163310 0.000000 0.437195 0.172126 0.000000 0.411052 0.180708 0.000000 0.363470 0.188689 0.000000 0.334010 0.195780 0.000000 0.283473 0.202698 0.000000 0.251137 0.208102 0.000000 0.198335 0.213750 0.000000 0.163653 0.217307 0.000000 0.109344 0.221508 0.000000 0.072921 0.223094 0.000000 0.017916 0.225709 0.000000 -0.019585 0.225242 0.000000 -0.074436 0.226174 0.000000 -0.112309 0.223619 0.000000 -0.166141 0.222822 0.000000 -0.203657 0.218195 0.000000 -0.255606 0.215674 0.000000 -0.292037 0.209045 0.000000 -0.341265 0.204864 0.000000 -0.375908 0.196358 0.000000 -0.421625 0.190638 0.000000 -0.453827 0.180438 0.000000 -0.495318 0.173355 0.000000 -0.524502 0.161698 0.000000 -0.561151 0.153478 0.000000 -0.586837 0.140644 0.000000 -0.618149 0.131552 0.000000 -0.639974 0.117860 0.000000 -0.665593 0.108187 0.000000 -0.683322 0.093972 0.000000 -0.703039 0.084020 0.000000 -0.716572 0.069623 0.000000 -0.730326 0.059685 0.000000 -0.739693 0.045429 0.000000 -0.747568 0.035774 0.000000 -0.752918 0.021952 0.000000 -0.755123 0.012811 0.000000 -0.756702 -0.000328 0.000000 -0.753552 -0.008771 0.000000 -0.751688 -0.021036 0.000000 -0.743577 -0.028651 0.000000 -0.738645 -0.039904 0.000000 -0.726021 -0.046615 0.000000 -0.718425 -0.056776 0.000000 -0.701762 -0.062558 0.000000 -0.691908 -0.071597 0.000000 -0.671684 -0.076467 0.000000 -0.659963 -0.084394 0.000000 -0.636644 -0.088405 0.000000 -0.623416 -0.095264 0.000000 -0.597440 -0.098493 0.000000 -0.583026 -0.104348 0.000000 -0.554799 -0.106888 0.000000 -0.539474 -0.111815 0.000000 -0.509365 -0.113766 0.000000 -0.493358 -0.117847 0.000000 -0.461695 -0.119311 0.000000 -0.445191 -0.122627 0.000000 -0.412271 -0.123700 0.000000 -0.395413 -0.126329 0.000000 -0.361496 -0.127099 0.000000 -0.344391 -0.129112 0.000000 -0.309714 -0.129659 0.000000 -0.292436 -0.131118 0.000000 -0.257207 -0.131511 0.000000 -0.239805 -0.132471 0.000000 -0.204214 -0.132769 0.000000 -0.186715 -0.133278 0.000000 -0.150934 -0.133528 0.000000 -0.133346 -0.133624 0.000000 -0.097532 -0.133865 0.000000 -0.079852 -0.133580 0.000000 -0.044152 -0.133839 0.000000 -0.026366 -0.133196 0.000000 0.009083 -0.133491 0.000000 0.026996 -0.132506 0.000000 0.062062 -0.132846 0.000000 0.080124 -0.131525 0.000000 0.114677 -0.131907 0.000000 0.132910 -0.130250 0.000000 0.166821 -0.130661 0.000000 0.185241 -0.128656 0.000000 0.218375 -0.129075 0.000000 0.236990 -0.126700 0.000000 0.269204 -0.127092 0.000000 0.288007 -0.124319 0.000000 0.319148 -0.124638 0.000000 0.338114 -0.121429 0.000000 0.368011 -0.121617 0.000000 0.387093 -0.117927 0.000000 0.415558 -0.117916 0.000000 
0.438922 -0.136071 0.000000 0.466296 -0.135697 0.000000 0.485618 -0.129957 0.000000 0.511146 -0.129141 0.000000 0.530336 -0.122629 0.000000 0.553755 -0.121259 0.000000 0.572634 -0.113910 0.000000 0.593655 -0.111873 0.000000 0.612000 -0.103631 0.000000 0.630309 -0.100816 0.000000 0.647853 -0.091637 0.000000 0.663114 -0.087941 0.000000 0.679547 -0.077801 0.000000 0.691409 -0.073134 0.000000 0.706384 -0.062034 0.000000 0.714489 -0.056331 0.000000 0.727627 -0.044300 0.000000 0.731624 -0.037526 0.000000 0.742525 -0.024630 0.000000 0.742079 -0.016785 0.000000 0.750337 -0.003128 0.000000 0.745145 0.005746 0.000000 0.750363 0.020019 0.000000 0.740172 0.029834 0.000000 0.741978 0.044539 0.000000 0.726600 0.055160 0.000000 0.724670 0.070076 0.000000 0.703996 0.081323 0.000000 0.698069 0.096194 0.000000 0.672083 0.107845 0.000000 0.661980 0.122392 0.000000 0.630773 0.134193 0.000000 0.616407 0.148118 0.000000 0.580180 0.159790 0.000000 0.561574 0.172790 0.000000 0.520642 0.184038 0.000000 0.497927 0.195812 0.000000 0.452718 0.206338 0.000000 0.426138 0.216602 0.000000 0.377189 0.226116 0.000000 0.347098 0.234604 0.000000 0.295042 0.242834 0.000000 0.261897 0.249315 0.000000 0.207454 0.256014 0.000000 0.171805 0.260293 0.000000 0.115767 0.265251 0.000000 0.078243 0.267177 0.000000 0.021459 0.270228 0.000000 -0.017245 0.269701 0.000000 -0.073890 0.270727 0.000000 -0.113032 0.267701 0.000000 -0.168632 0.266647 0.000000 -0.207446 0.261135 0.000000 -0.261096 0.258007 0.000000 -0.298814 0.250089 0.000000 -0.349634 0.244963 0.000000 -0.385512 0.234786 0.000000 -0.432675 0.227808 0.000000 -0.466019 0.215590 0.000000 -0.508774 0.206973 0.000000 -0.538972 0.192997 0.000000 -0.576671 0.183017 0.000000 -0.603213 0.167622 0.000000 -0.635339 0.156603 0.000000 -0.657841 0.140176 0.000000 -0.684023 0.128473 0.000000 -0.702239 0.111423 0.000000 -0.722264 0.099405 0.000000 -0.736093 0.082147 0.000000 -0.749909 0.070172 0.000000 -0.759389 0.053102 0.000000 -0.767098 0.041498 0.000000 -0.772394 0.024970 0.000000 -0.774230 0.014019 0.000000 -0.775615 -0.001667 0.000000 -0.771926 -0.011746 0.000000 -0.769751 -0.026358 0.000000 -0.760966 -0.035411 0.000000 -0.755638 -0.048790 0.000000 -0.742237 -0.056732 0.000000 -0.734187 -0.068786 0.000000 -0.716678 -0.075593 0.000000 -0.706337 -0.086293 0.000000 -0.685226 -0.091997 0.000000 -0.673008 -0.101363 0.000000 -0.648783 -0.106035 0.000000 -0.635066 -0.114127 0.000000 -0.608186 -0.117868 0.000000 -0.593304 -0.124770 0.000000 -0.564188 -0.127699 0.000000 -0.548429 -0.133507 0.000000 -0.517455 -0.135749 0.000000 -0.501054 -0.140566 0.000000 -0.468561 -0.142246 0.000000 -0.451709 -0.146169 0.000000 -0.417997 -0.147404 0.000000 -0.400840 -0.150527 0.000000 -0.366174 -0.151422 0.000000 -0.348820 -0.153826 0.000000 -0.313437 -0.154476 0.000000 -0.295961 -0.156234 0.000000 -0.260071 -0.156716 0.000000 -0.242519 -0.157890 0.000000 -0.206312 -0.158272 0.000000 -0.188708 -0.158915 0.000000 -0.152352 -0.159249 0.000000 -0.134700 -0.159404 0.000000 -0.098349 -0.159731 0.000000 -0.080640 -0.159433 0.000000 -0.044437 -0.159783 0.000000 -0.026649 -0.159057 0.000000 0.009276 -0.159448 0.000000 0.027170 -0.158310 0.000000 0.062691 -0.158750 0.000000 0.080723 -0.157208 0.000000 0.115720 -0.157693 0.000000 0.133922 -0.155743 0.000000 0.168270 -0.156256 0.000000 0.186670 -0.153886 0.000000 0.220245 -0.154400 0.000000 0.238860 -0.151585 0.000000 0.271526 -0.152058 0.000000 0.290362 -0.148764 0.000000 0.321972 -0.149141 0.000000 0.341015 -0.145323 0.000000 0.371405 -0.145536 0.000000 0.390618 -0.141139 0.000000 0.419605 -0.141106 0.000000 
0.440088 -0.160383 0.000000 0.467615 -0.160100 0.000000 0.487110 -0.153441 0.000000 0.512826 -0.152657 0.000000 0.532219 -0.145090 0.000000 0.555861 -0.143672 0.000000 0.574971 -0.135116 0.000000 0.596250 -0.132924 0.000000 0.614851 -0.123306 0.000000 0.633448 -0.120203 0.000000 0.651267 -0.109465 0.000000 0.666840 -0.105321 0.000000 0.683560 -0.093427 0.000000 0.695751 -0.088131 0.000000 0.711013 -0.075075 0.000000 0.719455 -0.068537 0.000000 0.732869 -0.054349 0.000000 0.737197 -0.046519 0.000000 0.748350 -0.031272 0.000000 0.748216 -0.022139 0.000000 0.756687 -0.005953 0.000000 0.751776 0.004440 0.000000 0.757151 0.021396 0.000000 0.747197 0.032951 0.000000 0.749092 0.050458 0.000000 0.733893 0.063019 0.000000 0.731969 0.080810 0.000000 0.711405 0.094164 0.000000 0.705393 0.111933 0.000000 0.679440 0.125816 0.000000 0.669152 0.143223 0.000000 0.637893 0.157328 0.000000 0.623241 0.174010 0.000000 0.586872 0.188000 0.000000 0.567878 0.203588 0.000000 0.526714 0.217104 0.000000 0.503514 0.231234 0.000000 0.457983 0.243915 0.000000 0.430829 0.256238 0.000000 0.381471 0.267730 0.000000 0.350726 0.277927 0.000000 0.298181 0.287899 0.000000 0.264315 0.295690 0.000000 0.209310 0.303842 0.000000 0.172888 0.308994 0.000000 0.116226 0.315069 0.000000 0.077895 0.317402 0.000000 0.020437 0.321197 0.000000 -0.019088 0.320590 0.000000 -0.076438 0.321961 0.000000 -0.116392 0.318361 0.000000 -0.172709 0.317236 0.000000 -0.212300 0.310659 0.000000 -0.266653 0.307042 0.000000 -0.305085 0.297583 0.000000 -0.356568 0.291562 0.000000 -0.393067 0.279399 0.000000 -0.440821 0.271145 0.000000 -0.474665 0.256537 0.000000 -0.517911 0.246308 0.000000 -0.548462 0.229595 0.000000 -0.586525 0.217719 0.000000 -0.613254 0.199312 0.000000 -0.645596 0.186180 0.000000 -0.668108 0.166543 0.000000 -0.694346 0.152585 0.000000 -0.712394 0.132214 0.000000 -0.732315 0.117874 0.000000 -0.745809 0.097268 0.000000 -0.759373 0.082981 0.000000 -0.768372 0.062617 0.000000 -0.775701 0.048778 0.000000 -0.780401 0.029085 0.000000 -0.781762 0.016032 0.000000 -0.782472 -0.002633 0.000000 -0.778246 -0.014635 0.000000 -0.775358 -0.031996 0.000000 -0.766011 -0.042764 0.000000 -0.759970 -0.058632 0.000000 -0.746020 -0.068066 0.000000 -0.737291 -0.082335 0.000000 -0.719272 -0.090408 0.000000 -0.708315 -0.103048 0.000000 -0.686757 -0.109796 0.000000 -0.674004 -0.120837 0.000000 -0.649410 -0.126347 0.000000 -0.635252 -0.135861 0.000000 -0.608085 -0.140255 0.000000 -0.592859 -0.148345 0.000000 -0.563539 -0.151764 0.000000 -0.547527 -0.158548 0.000000 -0.516425 -0.161140 0.000000 -0.499856 -0.166741 0.000000 -0.467300 -0.168656 0.000000 -0.450351 -0.173192 0.000000 -0.416629 -0.174569 0.000000 -0.399432 -0.178152 0.000000 -0.364797 -0.179119 0.000000 -0.347445 -0.181848 0.000000 -0.312122 -0.182518 0.000000 -0.294677 -0.184483 0.000000 -0.258864 -0.184952 0.000000 -0.241361 -0.186231 0.000000 -0.205239 -0.186581 0.000000 -0.187692 -0.187238 0.000000 -0.151423 -0.187536 0.000000 -0.133828 -0.187626 0.000000 -0.097561 -0.187925 0.000000 -0.079904 -0.187493 0.000000 -0.043775 -0.187830 0.000000 -0.026030 -0.186909 0.000000 0.009830 -0.187310 0.000000 0.027695 -0.185922 0.000000 0.063165 -0.186399 0.000000 0.081182 -0.184554 0.000000 0.116143 -0.185106 0.000000 0.134347 -0.182801 0.000000 0.168679 -0.183410 0.000000 0.187098 -0.180630 0.000000 0.220677 -0.181264 0.000000 0.239333 -0.177982 0.000000 0.272026 -0.178594 0.000000 0.290925 -0.174765 0.000000 0.322590 -0.175291 0.000000 0.341721 -0.170863 0.000000 0.372196 -0.171220 0.000000 0.391524 -0.166126 0.000000 0.420627 -0.166219 0.000000 