# vtk DataFile Version 2.0
Comment goes here
ASCII

DATASET STRUCTURED_POINTS
FIELD FieldData 1
TIME 1 1 double
0.13000000
DIMENSIONS    128   128   1

ORIGIN    0.000   0.000   0.000
SPACING   0.039062 0.039062   1.000

POINT_DATA   16384
VECTORS u double

-0.166733 -0.000000 0.000000 -0.137259 -0.000000 0.000000 -0.111608 -0.000000 0.000000 -0.081481 -0.000000 0.000000 -0.055956 -0.000000 0.000000 -0.025469 -0.000000 0.000000 -0.000334 -0.000000 0.000000 0.030235 -0.000000 0.000000 0.054731 -0.000000 0.000000 0.085122 0.000000 0.000000 0.108745 0.000000 0.000000 0.138712 0.000000 0.000000 0.161245 0.000000 0.000000 0.190556 0.000000 0.000000 0.211798 0.000000 0.000000 0.240233 0.000000 0.000000 0.259997 0.000000 0.000000 0.287347 0.000000 0.000000 0.305463 0.000000 0.000000 0.331528 0.000000 0.000000 0.347841 0.000000 0.000000 0.372432 0.000000 0.000000 0.386804 0.000000 0.000000 0.409738 0.000000 0.000000 0.422050 0.000000 0.000000 0.443156 0.000000 0.000000 0.453304 0.000000 0.000000 0.472419 0.000000 0.000000 0.480320 0.000000 0.000000 0.497294 0.000000 0.000000 0.502885 0.000000 0.000000 0.517576 0.000000 0.000000 0.520816 0.000000 0.000000 0.533097 0.000000 0.000000 0.533965 0.000000 0.000000 0.543721 0.000000 0.000000 0.542219 0.000000 0.000000 0.549352 0.000000 0.000000 0.545503 0.000000 0.000000 0.549930 0.000000 0.000000 0.543782 0.000000 0.000000 0.545440 0.000000 0.000000 0.537062 0.000000 0.000000 0.535906 0.000000 0.000000 0.525390 0.000000 0.000000 0.521399 0.000000 0.000000 0.508859 0.000000 0.000000 0.502037 0.000000 0.000000 0.487607 0.000000 0.000000 0.477984 0.000000 0.000000 0.461820 0.000000 0.000000 0.449454 0.000000 0.000000 0.431729 0.000000 0.000000 0.416705 0.000000 0.000000 0.397608 0.000000 0.000000 0.380043 0.000000 0.000000 0.359777 0.000000 0.000000 0.339816 0.000000 0.000000 0.318591 0.000000 0.000000 0.296406 0.000000 0.000000 0.274440 0.000000 0.000000 0.250231 0.000000 0.000000 0.227741 0.000000 0.000000 0.201730 0.000000 0.000000 0.178931 0.000000 0.000000 0.151360 0.000000 0.000000 0.128459 0.000000 0.000000 0.099587 0.000000 0.000000 0.076781 0.000000 0.000000 0.046879 0.000000 0.000000 0.024354 0.000000 0.000000 -0.006300 0.000000 0.000000 -0.028376 0.000000 0.000000 -0.059497 0.000000 0.000000 -0.080966 0.000000 0.000000 -0.112268 0.000000 0.000000 -0.132991 0.000000 0.000000 -0.164187 0.000000 0.000000 -0.184032 0.000000 0.000000 -0.214836 0.000000 0.000000 -0.233683 0.000000 0.000000 -0.263810 0.000000 0.000000 -0.281542 0.000000 0.000000 -0.310708 0.000000 0.000000 -0.327209 0.000000 0.000000 -0.355131 0.000000 0.000000 -0.370280 0.000000 0.000000 -0.396675 0.000000 0.000000 -0.410343 0.000000 0.000000 -0.434926 0.000000 0.000000 -0.446976 0.000000 0.000000 -0.469467 0.000000 0.000000 -0.479751 0.000000 0.000000 -0.499872 0.000000 0.000000 -0.508233 0.000000 0.000000 -0.525717 0.000000 0.000000 -0.531995 0.000000 0.000000 -0.546590 0.000000 0.000000 -0.550629 0.000000 0.000000 -0.562108 0.000000 0.000000 -0.563764 0.000000 0.000000 -0.571934 0.000000 0.000000 -0.571083 0.000000 0.000000 -0.575795 -0.000000 0.000000 -0.572345 -0.000000 0.000000 -0.573503 -0.000000 0.000000 -0.567404 -0.000000 0.000000 -0.564969 -0.000000 0.000000 -0.556218 -0.000000 0.000000 -0.550215 -0.000000 0.000000 -0.538861 -0.000000 0.000000 -0.529380 -0.000000 0.000000 -0.515524 -0.000000 0.000000 -0.502714 -0.000000 0.000000 -0.486511 -0.000000 0.000000 -0.470576 -0.000000 0.000000 -0.452226 -0.000000 0.000000 -0.433416 -0.000000 0.000000 -0.413157 -0.000000 0.000000 -0.391761 -0.000000 0.000000 -0.369861 -0.000000 0.000000 -0.346191 -0.000000 0.000000 -0.322940 -0.000000 0.000000 -0.297323 -0.000000 0.000000 -0.273021 -0.000000 0.000000 -0.245791 -0.000000 0.000000 -0.220742 -0.000000 0.000000 -0.192229 -0.000000 0.000000 
-0.163588 -0.027485 0.000000 -0.134178 -0.027562 0.000000 -0.108574 -0.027889 0.000000 -0.078522 -0.027826 0.000000 -0.053057 -0.028006 0.000000 -0.022653 -0.027811 0.000000 0.002411 -0.027852 0.000000 0.032892 -0.027532 0.000000 0.057307 -0.027443 0.000000 0.087607 -0.027007 0.000000 0.111143 -0.026795 0.000000 0.141017 -0.026250 0.000000 0.163458 -0.025922 0.000000 0.192677 -0.025276 0.000000 0.213822 -0.024838 0.000000 0.242166 -0.024100 0.000000 0.261830 -0.023557 0.000000 0.289092 -0.022733 0.000000 0.307105 -0.022091 0.000000 0.333085 -0.021189 0.000000 0.349294 -0.020452 0.000000 0.373802 -0.019482 0.000000 0.388068 -0.018653 0.000000 0.410924 -0.017623 0.000000 0.423127 -0.016709 0.000000 0.444159 -0.015627 0.000000 0.454195 -0.014632 0.000000 0.473240 -0.013508 0.000000 0.481026 -0.012437 0.000000 0.497933 -0.011282 0.000000 0.503407 -0.010141 0.000000 0.518035 -0.008965 0.000000 0.521154 -0.007760 0.000000 0.533375 -0.006574 0.000000 0.534118 -0.005312 0.000000 0.543817 -0.004127 0.000000 0.542186 -0.002815 0.000000 0.549265 -0.001642 0.000000 0.545284 -0.000289 0.000000 0.549660 0.000860 0.000000 0.543374 0.002245 0.000000 0.544983 0.003360 0.000000 0.536464 0.004767 0.000000 0.535261 0.005836 0.000000 0.524599 0.007253 0.000000 0.520563 0.008265 0.000000 0.507874 0.009681 0.000000 0.501007 0.010626 0.000000 0.486426 0.012026 0.000000 0.476758 0.012893 0.000000 0.460441 0.014265 0.000000 0.448029 0.015046 0.000000 0.430151 0.016374 0.000000 0.415080 0.017060 0.000000 0.395831 0.018331 0.000000 0.378218 0.018916 0.000000 0.357800 0.020114 0.000000 0.337790 0.020593 0.000000 0.316418 0.021705 0.000000 0.294183 0.022075 0.000000 0.272076 0.023088 0.000000 0.247816 0.023350 0.000000 0.225193 0.024250 0.000000 0.199131 0.024405 0.000000 0.176209 0.025185 0.000000 0.148588 0.025236 0.000000 0.125579 0.025887 0.000000 0.096659 0.025839 0.000000 0.073763 0.026354 0.000000 0.043816 0.026214 0.000000 0.021220 0.026590 0.000000 -0.009472 0.026365 0.000000 -0.031595 0.026598 0.000000 -0.062746 0.026295 0.000000 -0.084238 0.026386 0.000000 -0.115559 0.026012 0.000000 -0.136275 0.025959 0.000000 -0.167477 0.025521 0.000000 -0.187286 0.025325 0.000000 -0.218079 0.024825 0.000000 -0.236859 0.024487 0.000000 -0.266957 0.023930 0.000000 -0.284590 0.023449 0.000000 -0.313708 0.022834 0.000000 -0.330077 0.022211 0.000000 -0.357929 0.021535 0.000000 -0.372915 0.020772 0.000000 -0.399218 0.020031 0.000000 -0.412694 0.019126 0.000000 -0.437165 0.018317 0.000000 -0.448996 0.017270 0.000000 -0.471354 0.016387 0.000000 -0.481395 0.015202 0.000000 -0.501366 0.014241 0.000000 -0.509466 0.012922 0.000000 -0.526784 0.011881 0.000000 -0.532788 0.010437 0.000000 -0.547207 0.009317 0.000000 -0.550964 0.007759 0.000000 -0.562260 0.006567 0.000000 -0.563631 0.004913 0.000000 -0.571616 0.003659 0.000000 -0.570485 0.001931 0.000000 -0.575015 0.000631 0.000000 -0.571296 -0.001146 0.000000 -0.572280 -0.002471 0.000000 -0.565927 -0.004267 0.000000 -0.563330 -0.005593 0.000000 -0.554345 -0.007377 0.000000 -0.548198 -0.008678 0.000000 -0.536634 -0.010418 0.000000 -0.527028 -0.011668 0.000000 -0.512991 -0.013333 0.000000 -0.500077 -0.014507 0.000000 -0.483723 -0.016069 0.000000 -0.467708 -0.017143 0.000000 -0.449236 -0.018580 0.000000 -0.430372 -0.019534 0.000000 -0.410021 -0.020828 0.000000 -0.388595 -0.021648 0.000000 -0.366632 -0.022785 0.000000 -0.342955 -0.023461 0.000000 -0.319667 -0.024434 0.000000 -0.294065 -0.024959 0.000000 -0.269752 -0.025766 0.000000 -0.242555 -0.026140 0.000000 -0.217517 -0.026781 0.000000 -0.189054 -0.027004 0.000000 
-0.167291 -0.054876 0.000000 -0.137663 -0.055014 0.000000 -0.111872 -0.055656 0.000000 -0.081599 -0.055517 0.000000 -0.055941 -0.055869 0.000000 -0.025316 -0.055468 0.000000 -0.000056 -0.055545 0.000000 0.030643 -0.054896 0.000000 0.055256 -0.054715 0.000000 0.085770 -0.053835 0.000000 0.109501 -0.053410 0.000000 0.139585 -0.052315 0.000000 0.162218 -0.051659 0.000000 0.191640 -0.050364 0.000000 0.212974 -0.049489 0.000000 0.241514 -0.048008 0.000000 0.261363 -0.046926 0.000000 0.288813 -0.045275 0.000000 0.307006 -0.043994 0.000000 0.333166 -0.042189 0.000000 0.349549 -0.040717 0.000000 0.374230 -0.038774 0.000000 0.388663 -0.037122 0.000000 0.411683 -0.035058 0.000000 0.424045 -0.033234 0.000000 0.445232 -0.031068 0.000000 0.455422 -0.029081 0.000000 0.474613 -0.026832 0.000000 0.482546 -0.024693 0.000000 0.499589 -0.022381 0.000000 0.505202 -0.020102 0.000000 0.519957 -0.017747 0.000000 0.523207 -0.015340 0.000000 0.535545 -0.012964 0.000000 0.536412 -0.010443 0.000000 0.546217 -0.008068 0.000000 0.544703 -0.005448 0.000000 0.551877 -0.003098 0.000000 0.548005 -0.000394 0.000000 0.552464 0.001909 0.000000 0.546282 0.004677 0.000000 0.547961 0.006911 0.000000 0.539537 0.009722 0.000000 0.538391 0.011864 0.000000 0.527818 0.014698 0.000000 0.523826 0.016725 0.000000 0.511217 0.019556 0.000000 0.504381 0.021448 0.000000 0.489873 0.024249 0.000000 0.480222 0.025985 0.000000 0.463971 0.028729 0.000000 0.451561 0.030291 0.000000 0.433741 0.032949 0.000000 0.418659 0.034320 0.000000 0.399462 0.036863 0.000000 0.381824 0.038030 0.000000 0.361452 0.040428 0.000000 0.341404 0.041382 0.000000 0.320071 0.043607 0.000000 0.297787 0.044342 0.000000 0.275712 0.046368 0.000000 0.251392 0.046883 0.000000 0.228794 0.048685 0.000000 0.202662 0.048983 0.000000 0.179759 0.050542 0.000000 0.152059 0.050630 0.000000 0.129059 0.051929 0.000000 0.100052 0.051816 0.000000 0.077154 0.052843 0.000000 0.047112 0.052543 0.000000 0.024501 0.053288 0.000000 -0.006295 0.052815 0.000000 -0.028447 0.053274 0.000000 -0.059712 0.052643 0.000000 -0.081252 0.052812 0.000000 -0.112698 0.052037 0.000000 -0.133485 0.051918 0.000000 -0.164824 0.051011 0.000000 -0.184730 0.050603 0.000000 -0.215676 0.049573 0.000000 -0.234582 0.048878 0.000000 -0.264851 0.047731 0.000000 -0.282641 0.046750 0.000000 -0.311949 0.045487 0.000000 -0.328510 0.044221 0.000000 -0.356574 0.042838 0.000000 -0.371787 0.041289 0.000000 -0.398323 0.039779 0.000000 -0.412060 0.037947 0.000000 -0.436785 0.036302 0.000000 -0.448909 0.034189 0.000000 -0.471538 0.032400 0.000000 -0.481900 0.030012 0.000000 -0.502155 0.028071 0.000000 -0.510596 0.025418 0.000000 -0.528205 0.023322 0.000000 -0.534562 0.020422 0.000000 -0.549270 0.018175 0.000000 -0.553382 0.015053 0.000000 -0.564956 0.012667 0.000000 -0.566674 0.009357 0.000000 -0.574918 0.006854 0.000000 -0.574113 0.003399 0.000000 -0.578873 0.000811 0.000000 -0.575449 -0.002736 0.000000 -0.576626 -0.005369 0.000000 -0.570528 -0.008949 0.000000 -0.568081 -0.011581 0.000000 -0.559305 -0.015132 0.000000 -0.553258 -0.017711 0.000000 -0.541852 -0.021170 0.000000 -0.532296 -0.023643 0.000000 -0.518364 -0.026950 0.000000 -0.505451 -0.029268 0.000000 -0.489149 -0.032369 0.000000 -0.473087 -0.034487 0.000000 -0.454618 -0.037336 0.000000 -0.435665 -0.039215 0.000000 -0.415272 -0.041778 0.000000 -0.393719 -0.043389 0.000000 -0.371675 -0.045640 0.000000 -0.347841 -0.046965 0.000000 -0.324439 -0.048890 0.000000 -0.298656 -0.049916 0.000000 -0.274202 -0.051510 0.000000 -0.246806 -0.052235 0.000000 -0.221607 -0.053501 0.000000 -0.192933 -0.053928 0.000000 
-0.164675 -0.082755 0.000000 -0.134959 -0.082981 0.000000 -0.109078 -0.083952 0.000000 -0.078735 -0.083758 0.000000 -0.053008 -0.084289 0.000000 -0.022330 -0.083696 0.000000 0.002981 -0.083812 0.000000 0.033721 -0.082844 0.000000 0.058367 -0.082570 0.000000 0.088911 -0.081253 0.000000 0.112662 -0.080610 0.000000 0.142768 -0.078967 0.000000 0.165408 -0.077977 0.000000 0.194846 -0.076032 0.000000 0.216176 -0.074713 0.000000 0.244729 -0.072489 0.000000 0.264562 -0.070856 0.000000 0.292023 -0.068376 0.000000 0.310191 -0.066444 0.000000 0.336360 -0.063732 0.000000 0.352707 -0.061515 0.000000 0.377397 -0.058595 0.000000 0.391783 -0.056106 0.000000 0.414811 -0.053006 0.000000 0.427116 -0.050258 0.000000 0.448310 -0.047003 0.000000 0.458430 -0.044012 0.000000 0.477627 -0.040632 0.000000 0.485477 -0.037413 0.000000 0.502524 -0.033938 0.000000 0.508040 -0.030509 0.000000 0.522796 -0.026970 0.000000 0.525935 -0.023348 0.000000 0.538271 -0.019779 0.000000 0.539012 -0.015985 0.000000 0.548811 -0.012418 0.000000 0.547156 -0.008475 0.000000 0.554318 -0.004944 0.000000 0.550289 -0.000876 0.000000 0.554730 0.002584 0.000000 0.548375 0.006749 0.000000 0.550027 0.010105 0.000000 0.541415 0.014336 0.000000 0.540234 0.017555 0.000000 0.529458 0.021819 0.000000 0.525419 0.024866 0.000000 0.512594 0.029126 0.000000 0.505698 0.031970 0.000000 0.490960 0.036186 0.000000 0.481235 0.038796 0.000000 0.464744 0.042926 0.000000 0.452245 0.045275 0.000000 0.434176 0.049276 0.000000 0.418990 0.051340 0.000000 0.399536 0.055166 0.000000 0.381778 0.056925 0.000000 0.361148 0.060534 0.000000 0.340964 0.061974 0.000000 0.319373 0.065322 0.000000 0.296939 0.066435 0.000000 0.274611 0.069483 0.000000 0.250128 0.070267 0.000000 0.227288 0.072980 0.000000 0.200982 0.073441 0.000000 0.177851 0.075788 0.000000 0.149970 0.075936 0.000000 0.126760 0.077894 0.000000 0.097568 0.077744 0.000000 0.074484 0.079294 0.000000 0.044256 0.078866 0.000000 0.021487 0.079996 0.000000 -0.009492 0.079313 0.000000 -0.031773 0.080016 0.000000 -0.063214 0.079100 0.000000 -0.084849 0.079371 0.000000 -0.116460 0.078245 0.000000 -0.137308 0.078085 0.000000 -0.168798 0.076766 0.000000 -0.188730 0.076177 0.000000 -0.219810 0.074677 0.000000 -0.238707 0.073662 0.000000 -0.269091 0.071989 0.000000 -0.286840 0.070548 0.000000 -0.316243 0.068703 0.000000 -0.332732 0.066836 0.000000 -0.360868 0.064812 0.000000 -0.375980 0.062521 0.000000 -0.402566 0.060305 0.000000 -0.416177 0.057588 0.000000 -0.440929 0.055165 0.000000 -0.452904 0.052024 0.000000 -0.475537 0.049378 0.000000 -0.485730 0.045819 0.000000 -0.505965 0.042937 0.000000 -0.514220 0.038972 0.000000 -0.531786 0.035847 0.000000 -0.537941 0.031501 0.000000 -0.552581 0.028137 0.000000 -0.556477 0.023446 0.000000 -0.567960 0.019859 0.000000 -0.569449 0.014875 0.000000 -0.577578 0.011098 0.000000 -0.576532 0.005886 0.000000 -0.581154 0.001968 0.000000 -0.577480 -0.003394 0.000000 -0.578497 -0.007392 0.000000 -0.572142 -0.012812 0.000000 -0.569516 -0.016817 0.000000 -0.560478 -0.022200 0.000000 -0.554239 -0.026131 0.000000 -0.542570 -0.031380 0.000000 -0.532811 -0.035157 0.000000 -0.518618 -0.040178 0.000000 -0.505499 -0.043722 0.000000 -0.488943 -0.048432 0.000000 -0.472677 -0.051673 0.000000 -0.453967 -0.056002 0.000000 -0.434816 -0.058881 0.000000 -0.414197 -0.062774 0.000000 -0.392459 -0.065245 0.000000 -0.370209 -0.068663 0.000000 -0.346206 -0.070697 0.000000 -0.322620 -0.073619 0.000000 -0.296687 -0.075197 0.000000 -0.272072 -0.077616 0.000000 -0.244548 -0.078735 0.000000 -0.219212 -0.080655 0.000000 -0.190430 -0.081320 0.000000 
-0.168954 -0.110347 0.000000 -0.138861 -0.110611 0.000000 -0.112650 -0.111880 0.000000 -0.081936 -0.111588 0.000000 -0.055880 -0.112275 0.000000 -0.024840 -0.111457 0.000000 0.000794 -0.111595 0.000000 0.031884 -0.110283 0.000000 0.056846 -0.109905 0.000000 0.087728 -0.108130 0.000000 0.111785 -0.107267 0.000000 0.142216 -0.105061 0.000000 0.165152 -0.103738 0.000000 0.194903 -0.101131 0.000000 0.216516 -0.099372 0.000000 0.245370 -0.096395 0.000000 0.265474 -0.094220 0.000000 0.293223 -0.090903 0.000000 0.311648 -0.088331 0.000000 0.338094 -0.084705 0.000000 0.354684 -0.081753 0.000000 0.379637 -0.077851 0.000000 0.394251 -0.074537 0.000000 0.417529 -0.070391 0.000000 0.430046 -0.066733 0.000000 0.451477 -0.062382 0.000000 0.461791 -0.058398 0.000000 0.481211 -0.053879 0.000000 0.489238 -0.049591 0.000000 0.506493 -0.044944 0.000000 0.512169 -0.040374 0.000000 0.527116 -0.035642 0.000000 0.530397 -0.030814 0.000000 0.542906 -0.026041 0.000000 0.543771 -0.020983 0.000000 0.553726 -0.016212 0.000000 0.552176 -0.010954 0.000000 0.559474 -0.006231 0.000000 0.555532 -0.000806 0.000000 0.560088 0.003824 0.000000 0.553801 0.009379 0.000000 0.555546 0.013870 0.000000 0.546984 0.019516 0.000000 0.545871 0.023822 0.000000 0.535126 0.029513 0.000000 0.531130 0.033590 0.000000 0.518317 0.039277 0.000000 0.511437 0.043081 0.000000 0.496695 0.048711 0.000000 0.486958 0.052202 0.000000 0.470445 0.057719 0.000000 0.457905 0.060859 0.000000 0.439800 0.066204 0.000000 0.424543 0.068960 0.000000 0.405041 0.074074 0.000000 0.387184 0.076419 0.000000 0.366493 0.081242 0.000000 0.346185 0.083156 0.000000 0.324525 0.087632 0.000000 0.301941 0.089104 0.000000 0.279536 0.093178 0.000000 0.254881 0.094206 0.000000 0.231959 0.097831 0.000000 0.205463 0.098421 0.000000 0.182246 0.101555 0.000000 0.154157 0.101720 0.000000 0.130859 0.104331 0.000000 0.101444 0.104093 0.000000 0.078269 0.106155 0.000000 0.047806 0.105540 0.000000 0.024940 0.107036 0.000000 -0.006284 0.106075 0.000000 -0.028669 0.106995 0.000000 -0.060365 0.105719 0.000000 -0.082116 0.106058 0.000000 -0.113992 0.104496 0.000000 -0.134973 0.104256 0.000000 -0.166741 0.102433 0.000000 -0.186827 0.101615 0.000000 -0.218201 0.099551 0.000000 -0.237279 0.098159 0.000000 -0.267973 0.095864 0.000000 -0.285937 0.093902 0.000000 -0.315670 0.091378 0.000000 -0.332410 0.088847 0.000000 -0.360899 0.086087 0.000000 -0.376303 0.082987 0.000000 -0.403265 0.079976 0.000000 -0.417209 0.076310 0.000000 -0.442358 0.073028 0.000000 -0.454705 0.068798 0.000000 -0.477752 0.065226 0.000000 -0.488350 0.060440 0.000000 -0.509010 0.056560 0.000000 -0.517694 0.051239 0.000000 -0.535684 0.047043 0.000000 -0.542280 0.041218 0.000000 -0.557332 0.036712 0.000000 -0.561667 0.030432 0.000000 -0.573535 0.025639 0.000000 -0.575442 0.018974 0.000000 -0.583914 0.013937 0.000000 -0.583250 0.006976 0.000000 -0.588159 0.001759 0.000000 -0.584815 -0.005393 0.000000 -0.586049 -0.010708 0.000000 -0.579959 -0.017930 0.000000 -0.577473 -0.023245 0.000000 -0.568624 -0.030410 0.000000 -0.562442 -0.035620 0.000000 -0.550882 -0.042598 0.000000 -0.541098 -0.047595 0.000000 -0.526933 -0.054262 0.000000 -0.513709 -0.058943 0.000000 -0.497103 -0.065191 0.000000 -0.480660 -0.069463 0.000000 -0.461829 -0.075197 0.000000 -0.442439 -0.078985 0.000000 -0.421639 -0.084134 0.000000 -0.399611 -0.087378 0.000000 -0.377129 -0.091894 0.000000 -0.352798 -0.094553 0.000000 -0.328942 -0.098408 0.000000 -0.302655 -0.100464 0.000000 -0.277741 -0.103649 0.000000 -0.249847 -0.105095 0.000000 -0.224194 -0.107619 0.000000 -0.195035 -0.108465 0.000000 
-0.166824 -0.138930 0.000000 -0.136493 -0.139285 0.000000 -0.110057 -0.140877 0.000000 -0.079132 -0.140527 0.000000 -0.052878 -0.141385 0.000000 -0.021652 -0.140370 0.000000 0.004153 -0.140536 0.000000 0.035409 -0.138897 0.000000 0.060518 -0.138414 0.000000 0.091548 -0.136192 0.000000 0.115730 -0.135098 0.000000 0.146295 -0.132334 0.000000 0.169336 -0.130664 0.000000 0.199210 -0.127396 0.000000 0.220910 -0.125179 0.000000 0.249878 -0.121447 0.000000 0.270052 -0.118709 0.000000 0.297910 -0.114550 0.000000 0.316387 -0.111315 0.000000 0.342936 -0.106768 0.000000 0.359559 -0.103058 0.000000 0.384611 -0.098163 0.000000 0.399241 -0.093999 0.000000 0.422613 -0.088801 0.000000 0.435124 -0.084206 0.000000 0.456644 -0.078749 0.000000 0.466931 -0.073746 0.000000 0.486433 -0.068079 0.000000 0.494410 -0.062695 0.000000 0.511739 -0.056869 0.000000 0.517340 -0.051132 0.000000 0.532354 -0.045199 0.000000 0.535535 -0.039139 0.000000 0.548100 -0.033154 0.000000 0.548839 -0.026805 0.000000 0.558838 -0.020823 0.000000 0.557135 -0.014223 0.000000 0.564464 -0.008301 0.000000 0.560342 -0.001490 0.000000 0.564913 0.004315 0.000000 0.558418 0.011291 0.000000 0.560160 0.016922 0.000000 0.551364 0.024012 0.000000 0.550227 0.029413 0.000000 0.539221 0.036560 0.000000 0.535178 0.041674 0.000000 0.522080 0.048818 0.000000 0.515127 0.053592 0.000000 0.500075 0.060665 0.000000 0.490237 0.065046 0.000000 0.473393 0.071979 0.000000 0.460723 0.075921 0.000000 0.442269 0.082638 0.000000 0.426851 0.086099 0.000000 0.406986 0.092525 0.000000 0.388937 0.095473 0.000000 0.367876 0.101533 0.000000 0.347344 0.103943 0.000000 0.325311 0.109566 0.000000 0.302475 0.111423 0.000000 0.279703 0.116542 0.000000 0.254770 0.117844 0.000000 0.231491 0.122399 0.000000 0.204695 0.123155 0.000000 0.181139 0.127094 0.000000 0.152734 0.127322 0.000000 0.129122 0.130606 0.000000 0.099380 0.130334 0.000000 0.075920 0.132932 0.000000 0.045126 0.132195 0.000000 0.022010 0.134086 0.000000 -0.009545 0.132923 0.000000 -0.032141 0.134097 0.000000 -0.064162 0.132547 0.000000 -0.086084 0.132999 0.000000 -0.118274 0.131102 0.000000 -0.139383 0.130834 0.000000 -0.171451 0.128620 0.000000 -0.191624 0.127636 0.000000 -0.223279 0.125129 0.000000 -0.242407 0.123434 0.000000 -0.273361 0.120647 0.000000 -0.291340 0.118244 0.000000 -0.321311 0.115176 0.000000 -0.338036 0.112066 0.000000 -0.366740 0.108705 0.000000 -0.382103 0.104886 0.000000 -0.409257 0.101211 0.000000 -0.423138 0.096680 0.000000 -0.448453 0.092661 0.000000 -0.460719 0.087418 0.000000 -0.483907 0.083024 0.000000 -0.494407 0.077076 0.000000 -0.515178 0.072280 0.000000 -0.523749 0.065646 0.000000 -0.541818 0.060434 0.000000 -0.548283 0.053150 0.000000 -0.563377 0.047523 0.000000 -0.567560 0.039648 0.000000 -0.579427 0.033635 0.000000 -0.581160 0.025254 0.000000 -0.589585 0.018907 0.000000 -0.588720 0.010131 0.000000 -0.593531 0.003532 0.000000 -0.589955 -0.005503 0.000000 -0.591041 -0.012248 0.000000 -0.584687 -0.021388 0.000000 -0.582003 -0.028151 0.000000 -0.572860 -0.037230 0.000000 -0.566432 -0.043873 0.000000 -0.554551 -0.052724 0.000000 -0.544481 -0.059106 0.000000 -0.529973 -0.067567 0.000000 -0.516432 -0.073552 0.000000 -0.499468 -0.081481 0.000000 -0.482688 -0.086947 0.000000 -0.463493 -0.094223 0.000000 -0.443757 -0.099071 0.000000 -0.422594 -0.105602 0.000000 -0.400222 -0.109755 0.000000 -0.377388 -0.115476 0.000000 -0.352724 -0.118884 0.000000 -0.328533 -0.123762 0.000000 -0.301931 -0.126398 0.000000 -0.276706 -0.130423 0.000000 -0.248521 -0.132282 0.000000 -0.222584 -0.135466 0.000000 -0.193160 -0.136560 0.000000 
-0.171681 -0.167014 0.000000 -0.140810 -0.167378 0.000000 -0.113895 -0.169241 0.000000 -0.082446 -0.168766 0.000000 -0.055725 -0.169755 0.000000 -0.023993 -0.168488 0.000000 0.002265 -0.168656 0.000000 0.034004 -0.166647 0.000000 0.059549 -0.166044 0.000000 0.091042 -0.163343 0.000000 0.115641 -0.162014 0.000000 0.146649 -0.158667 0.000000 0.170088 -0.156653 0.000000 0.200385 -0.152705 0.000000 0.222463 -0.150040 0.000000 0.251837 -0.145537 0.000000 0.272369 -0.142252 0.000000 0.300615 -0.137238 0.000000 0.319428 -0.133357 0.000000 0.346349 -0.127878 0.000000 0.363286 -0.123429 0.000000 0.388692 -0.117532 0.000000 0.403611 -0.112538 0.000000 0.427321 -0.106275 0.000000 0.440096 -0.100764 0.000000 0.461934 -0.094188 0.000000 0.472459 -0.088187 0.000000 0.492260 -0.081358 0.000000 0.500446 -0.074897 0.000000 0.518054 -0.067875 0.000000 0.523837 -0.060988 0.000000 0.539107 -0.053836 0.000000 0.542440 -0.046561 0.000000 0.555238 -0.039345 0.000000 0.556099 -0.031721 0.000000 0.566306 -0.024508 0.000000 0.564696 -0.016580 0.000000 0.572204 -0.009438 0.000000 0.568145 -0.001255 0.000000 0.572866 0.005747 0.000000 0.566404 0.014131 0.000000 0.568263 0.020925 0.000000 0.559470 0.029449 0.000000 0.558415 0.035964 0.000000 0.547382 0.044562 0.000000 0.543382 0.050731 0.000000 0.530228 0.059328 0.000000 0.523277 0.065085 0.000000 0.508142 0.073601 0.000000 0.498263 0.078884 0.000000 0.481310 0.087233 0.000000 0.468554 0.091983 0.000000 0.449968 0.100076 0.000000 0.434420 0.104242 0.000000 0.414403 0.111988 0.000000 0.396181 0.115529 0.000000 0.374951 0.122835 0.000000 0.354205 0.125721 0.000000 0.331992 0.132500 0.000000 0.308904 0.134713 0.000000 0.285944 0.140883 0.000000 0.260725 0.142418 0.000000 0.237256 0.147906 0.000000 0.210145 0.148773 0.000000 0.186399 0.153516 0.000000 0.157655 0.153737 0.000000 0.133857 0.157685 0.000000 0.103756 0.157295 0.000000 0.080115 0.160410 0.000000 0.048946 0.159450 0.000000 0.025654 0.161707 0.000000 -0.006288 0.160227 0.000000 -0.029059 0.161612 0.000000 -0.061476 0.159661 0.000000 -0.083576 0.160171 0.000000 -0.116173 0.157795 0.000000 -0.137470 0.157432 0.000000 -0.169954 0.154674 0.000000 -0.190333 0.153443 0.000000 -0.222418 0.150333 0.000000 -0.241777 0.148242 0.000000 -0.273180 0.144797 0.000000 -0.291423 0.141851 0.000000 -0.321864 0.138074 0.000000 -0.338897 0.134276 0.000000 -0.368095 0.130154 0.000000 -0.383814 0.125503 0.000000 -0.411487 0.121011 0.000000 -0.425775 0.115506 0.000000 -0.451636 0.110610 0.000000 -0.464358 0.104251 0.000000 -0.488110 0.098914 0.000000 -0.499109 0.091712 0.000000 -0.520455 0.085902 0.000000 -0.529556 0.077878 0.000000 -0.548195 0.071577 0.000000 -0.555205 0.062777 0.000000 -0.570847 0.055989 0.000000 -0.575568 0.046483 0.000000 -0.587941 0.039239 0.000000 -0.590182 0.029132 0.000000 -0.599048 0.021497 0.000000 -0.598637 0.010922 0.000000 -0.603803 0.002994 0.000000 -0.600605 -0.007883 0.000000 -0.601943 -0.015975 0.000000 -0.595871 -0.026969 0.000000 -0.593324 -0.035073 0.000000 -0.584355 -0.045980 0.000000 -0.577943 -0.053929 0.000000 -0.566122 -0.064549 0.000000 -0.555948 -0.072173 0.000000 -0.541386 -0.082312 0.000000 -0.527628 -0.089448 0.000000 -0.510504 -0.098934 0.000000 -0.493408 -0.105439 0.000000 -0.473958 -0.114129 0.000000 -0.453822 -0.119883 0.000000 -0.432326 -0.127669 0.000000 -0.409490 -0.132584 0.000000 -0.386262 -0.139392 0.000000 -0.361087 -0.143408 0.000000 -0.336458 -0.149201 0.000000 -0.309318 -0.152290 0.000000 -0.283628 -0.157059 0.000000 -0.254892 -0.159218 0.000000 -0.228474 -0.162980 0.000000 -0.198501 -0.164225 0.000000 
-0.169980 -0.196621 0.000000 -0.138723 -0.197070 0.000000 -0.111448 -0.199242 0.000000 -0.079649 -0.198698 0.000000 -0.052604 -0.199838 0.000000 -0.020556 -0.198359 0.000000 0.005992 -0.198533 0.000000 0.038018 -0.196181 0.000000 0.063820 -0.195451 0.000000 0.095575 -0.192284 0.000000 0.120403 -0.190705 0.000000 0.151654 -0.186780 0.000000 0.175295 -0.184400 0.000000 0.205819 -0.179772 0.000000 0.228075 -0.176632 0.000000 0.257665 -0.171352 0.000000 0.278349 -0.167487 0.000000 0.306801 -0.161609 0.000000 0.325743 -0.157049 0.000000 0.352862 -0.150626 0.000000 0.369903 -0.145401 0.000000 0.395499 -0.138488 0.000000 0.410494 -0.132628 0.000000 0.434385 -0.125285 0.000000 0.447208 -0.118819 0.000000 0.469218 -0.111111 0.000000 0.479759 -0.104072 0.000000 0.499720 -0.096067 0.000000 0.507890 -0.088490 0.000000 0.525646 -0.080259 0.000000 0.531376 -0.072184 0.000000 0.546779 -0.063801 0.000000 0.550024 -0.055270 0.000000 0.562938 -0.046813 0.000000 0.563673 -0.037873 0.000000 0.573977 -0.029419 0.000000 0.572202 -0.020121 0.000000 0.579786 -0.011750 0.000000 0.575524 -0.002151 0.000000 0.580295 0.006056 0.000000 0.573592 0.015893 0.000000 0.575473 0.023857 0.000000 0.566398 0.033860 0.000000 0.565334 0.041500 0.000000 0.553982 0.051593 0.000000 0.549937 0.058829 0.000000 0.536426 0.068923 0.000000 0.529392 0.075678 0.000000 0.513864 0.085680 0.000000 0.503859 0.091879 0.000000 0.486481 0.101687 0.000000 0.473554 0.107263 0.000000 0.454516 0.116772 0.000000 0.438750 0.121664 0.000000 0.418259 0.130765 0.000000 0.399770 0.134925 0.000000 0.378052 0.143510 0.000000 0.356993 0.146902 0.000000 0.334286 0.154867 0.000000 0.310842 0.157471 0.000000 0.287391 0.164720 0.000000 0.261776 0.166532 0.000000 0.237828 0.172979 0.000000 0.210288 0.174011 0.000000 0.186085 0.179584 0.000000 0.156886 0.179865 0.000000 0.132661 0.184505 0.000000 0.102087 0.184076 0.000000 0.078057 0.187742 0.000000 0.046405 0.186656 0.000000 0.022768 0.189320 0.000000 -0.009659 0.187636 0.000000 -0.032726 0.189286 0.000000 -0.065623 0.187064 0.000000 -0.087968 0.187696 0.000000 -0.121033 0.184995 0.000000 -0.142524 0.184615 0.000000 -0.175459 0.181483 0.000000 -0.195985 0.180100 0.000000 -0.228500 0.176573 0.000000 -0.247963 0.174196 0.000000 -0.279773 0.170293 0.000000 -0.298083 0.166928 0.000000 -0.328907 0.162649 0.000000 -0.345977 0.158297 0.000000 -0.375534 0.153623 0.000000 -0.391267 0.148279 0.000000 -0.419274 0.143173 0.000000 -0.433559 0.136828 0.000000 -0.459728 0.131243 0.000000 -0.472434 0.123893 0.000000 -0.496466 0.117776 0.000000 -0.507439 0.109421 0.000000 -0.529030 0.102726 0.000000 -0.538091 0.093386 0.000000 -0.556936 0.086083 0.000000 -0.563889 0.075802 0.000000 -0.579686 0.067887 0.000000 -0.584325 0.056743 0.000000 -0.596794 0.048249 0.000000 -0.598918 0.036360 0.000000 -0.607808 0.027361 0.000000 -0.607236 0.014886 0.000000 -0.612349 0.005500 0.000000 -0.608938 -0.007364 0.000000 -0.610138 -0.016981 0.000000 -0.603796 -0.030007 0.000000 -0.601025 -0.039667 0.000000 -0.591727 -0.052611 0.000000 -0.585010 -0.062107 0.000000 -0.572804 -0.074720 0.000000 -0.562252 -0.083841 0.000000 -0.547257 -0.095887 0.000000 -0.533062 -0.104433 0.000000 -0.515467 -0.115701 0.000000 -0.497890 -0.123494 0.000000 -0.477944 -0.133809 0.000000 -0.457303 -0.140703 0.000000 -0.435301 -0.149934 0.000000 -0.411950 -0.155819 0.000000 -0.388218 -0.163879 0.000000 -0.362538 -0.168687 0.000000 -0.337420 -0.175531 0.000000 -0.309793 -0.179229 0.000000 -0.283638 -0.184850 0.000000 -0.254445 -0.187435 0.000000 -0.227594 -0.191857 0.000000 -0.197198 -0.193354 0.000000 