# vtk DataFile Version 2.0
Comment goes here
ASCII

DATASET STRUCTURED_POINTS
FIELD FieldData 1
TIME 1 1 double
0.20000000
DIMENSIONS    128   128   1

ORIGIN    0.000   0.000   0.000
SPACING   0.039062 0.039062   1.000

POINT_DATA   16384
VECTORS u double

-0.101629 -0.000000 0.000000 -0.091833 -0.000000 0.000000 -0.083723 -0.000000 0.000000 -0.073152 -0.000000 0.000000 -0.064161 -0.000000 0.000000 -0.052972 -0.000000 0.000000 -0.043258 -0.000000 0.000000 -0.031629 -0.000000 0.000000 -0.021370 -0.000000 0.000000 -0.009497 -0.000000 0.000000 0.001114 -0.000000 0.000000 0.013023 -0.000000 0.000000 0.023780 -0.000000 0.000000 0.035511 -0.000000 0.000000 0.046204 -0.000000 0.000000 0.057542 -0.000000 0.000000 0.067961 -0.000000 0.000000 0.078695 -0.000000 0.000000 0.088640 -0.000000 0.000000 0.098570 -0.000000 0.000000 0.107853 -0.000000 0.000000 0.116799 -0.000000 0.000000 0.125254 -0.000000 0.000000 0.133060 -0.000000 0.000000 0.140544 -0.000000 0.000000 0.147082 -0.000000 0.000000 0.153484 -0.000000 0.000000 0.158661 -0.000000 0.000000 0.163902 -0.000000 0.000000 0.167660 -0.000000 0.000000 0.171695 -0.000000 0.000000 0.174009 -0.000000 0.000000 0.176827 -0.000000 0.000000 0.177713 -0.000000 0.000000 0.179334 -0.000000 0.000000 0.178837 -0.000000 0.000000 0.179312 -0.000000 0.000000 0.177508 -0.000000 0.000000 0.176911 -0.000000 0.000000 0.173903 -0.000000 0.000000 0.172328 -0.000000 0.000000 0.168238 -0.000000 0.000000 0.165795 -0.000000 0.000000 0.160759 -0.000000 0.000000 0.157567 -0.000000 0.000000 0.151732 -0.000000 0.000000 0.147914 -0.000000 0.000000 0.141430 -0.000000 0.000000 0.137111 -0.000000 0.000000 0.130126 -0.000000 0.000000 0.125426 -0.000000 0.000000 0.118085 -0.000000 0.000000 0.113116 -0.000000 0.000000 0.105554 -0.000000 0.000000 0.100419 -0.000000 0.000000 0.092759 -0.000000 0.000000 0.087550 -0.000000 0.000000 0.079900 -0.000000 0.000000 0.074696 -0.000000 0.000000 0.067150 -0.000000 0.000000 0.062016 -0.000000 0.000000 0.054651 -0.000000 0.000000 0.049638 -0.000000 0.000000 0.042514 -0.000000 0.000000 0.037660 -0.000000 0.000000 0.030821 -0.000000 0.000000 0.026149 -0.000000 0.000000 0.019621 -0.000000 0.000000 0.015143 -0.000000 0.000000 0.008938 -0.000000 0.000000 0.004651 -0.000000 0.000000 -0.001233 -0.000000 0.000000 -0.005345 -0.000000 0.000000 -0.010923 -0.000000 0.000000 -0.014887 -0.000000 0.000000 -0.020184 -0.000000 0.000000 -0.024038 -0.000000 0.000000 -0.029087 -0.000000 0.000000 -0.032878 -0.000000 0.000000 -0.037719 -0.000000 0.000000 -0.041501 -0.000000 0.000000 -0.046175 -0.000000 0.000000 -0.050006 -0.000000 0.000000 -0.054554 -0.000000 0.000000 -0.058490 -0.000000 0.000000 -0.062947 -0.000000 0.000000 -0.067041 -0.000000 0.000000 -0.071436 -0.000000 0.000000 -0.075729 -0.000000 0.000000 -0.080076 -0.000000 0.000000 -0.084593 -0.000000 0.000000 -0.088892 -0.000000 0.000000 -0.093641 -0.000000 0.000000 -0.097873 -0.000000 0.000000 -0.102835 -0.000000 0.000000 -0.106960 -0.000000 0.000000 -0.112090 -0.000000 0.000000 -0.116050 -0.000000 0.000000 -0.121276 -0.000000 0.000000 -0.124992 -0.000000 0.000000 -0.130215 -0.000000 0.000000 -0.133593 -0.000000 0.000000 -0.138691 -0.000000 0.000000 -0.141621 -0.000000 0.000000 -0.146455 -0.000000 0.000000 -0.148820 -0.000000 0.000000 -0.153238 -0.000000 0.000000 -0.154918 -0.000000 0.000000 -0.158764 -0.000000 0.000000 -0.159641 -0.000000 0.000000 -0.162759 -0.000000 0.000000 -0.162724 -0.000000 0.000000 -0.164972 -0.000000 0.000000 -0.163928 -0.000000 0.000000 -0.165177 -0.000000 0.000000 -0.163048 -0.000000 0.000000 -0.163190 -0.000000 0.000000 -0.159920 -0.000000 0.000000 -0.158877 -0.000000 0.000000 -0.154434 -0.000000 0.000000 -0.152155 -0.000000 0.000000 -0.146537 -0.000000 0.000000 -0.143002 -0.000000 0.000000 -0.136232 -0.000000 0.000000 -0.131455 -0.000000 0.000000 -0.123585 -0.000000 0.000000 -0.117611 -0.000000 0.000000 -0.108724 -0.000000 0.000000 
-0.101945 -0.008446 0.000000 -0.092120 -0.008953 0.000000 -0.084001 -0.009341 0.000000 -0.073398 -0.009781 0.000000 -0.064392 -0.010090 0.000000 -0.053170 -0.010452 0.000000 -0.043436 -0.010671 0.000000 -0.031773 -0.010944 0.000000 -0.021490 -0.011066 0.000000 -0.009582 -0.011242 0.000000 0.001054 -0.011260 0.000000 0.012999 -0.011333 0.000000 0.023783 -0.011244 0.000000 0.035550 -0.011212 0.000000 0.046271 -0.011015 0.000000 0.057642 -0.010879 0.000000 0.068089 -0.010576 0.000000 0.078854 -0.010339 0.000000 0.088825 -0.009938 0.000000 0.098784 -0.009607 0.000000 0.108090 -0.009115 0.000000 0.117061 -0.008700 0.000000 0.125535 -0.008130 0.000000 0.133362 -0.007645 0.000000 0.140860 -0.007011 0.000000 0.147416 -0.006470 0.000000 0.153827 -0.005790 0.000000 0.159016 -0.005209 0.000000 0.164261 -0.004499 0.000000 0.168026 -0.003896 0.000000 0.172059 -0.003175 0.000000 0.174377 -0.002566 0.000000 0.177188 -0.001852 0.000000 0.178072 -0.001254 0.000000 0.179682 -0.000562 0.000000 0.179179 0.000011 0.000000 0.179639 0.000664 0.000000 0.177826 0.001200 0.000000 0.177210 0.001803 0.000000 0.174190 0.002291 0.000000 0.172594 0.002833 0.000000 0.168490 0.003267 0.000000 0.166024 0.003739 0.000000 0.160973 0.004114 0.000000 0.157757 0.004514 0.000000 0.151905 0.004826 0.000000 0.148064 0.005151 0.000000 0.141563 0.005402 0.000000 0.137222 0.005652 0.000000 0.130221 0.005843 0.000000 0.125500 0.006021 0.000000 0.118143 0.006155 0.000000 0.113156 0.006266 0.000000 0.105578 0.006348 0.000000 0.100429 0.006398 0.000000 0.092753 0.006435 0.000000 0.087533 0.006429 0.000000 0.079869 0.006427 0.000000 0.074658 0.006375 0.000000 0.067098 0.006340 0.000000 0.061961 0.006250 0.000000 0.054582 0.006189 0.000000 0.049572 0.006068 0.000000 0.042434 0.005989 0.000000 0.037588 0.005847 0.000000 0.030734 0.005755 0.000000 0.026075 0.005600 0.000000 0.019532 0.005503 0.000000 0.015072 0.005342 0.000000 0.008852 0.005246 0.000000 0.004587 0.005086 0.000000 -0.001313 0.004998 0.000000 -0.005398 0.004845 0.000000 -0.010992 0.004771 0.000000 -0.014925 0.004630 0.000000 -0.020238 0.004575 0.000000 -0.024058 0.004452 0.000000 -0.029123 0.004420 0.000000 -0.032880 0.004316 0.000000 -0.037736 0.004312 0.000000 -0.041482 0.004228 0.000000 -0.046171 0.004252 0.000000 -0.049967 0.004189 0.000000 -0.054530 0.004242 0.000000 -0.058433 0.004197 0.000000 -0.062905 0.004276 0.000000 -0.066969 0.004244 0.000000 -0.071378 0.004344 0.000000 -0.075646 0.004320 0.000000 -0.080007 0.004432 0.000000 -0.084507 0.004408 0.000000 -0.088819 0.004524 0.000000 -0.093558 0.004490 0.000000 -0.097803 0.004597 0.000000 -0.102762 0.004544 0.000000 -0.106901 0.004628 0.000000 -0.112037 0.004545 0.000000 -0.116011 0.004593 0.000000 -0.121251 0.004471 0.000000 -0.124981 0.004470 0.000000 -0.130227 0.004300 0.000000 -0.133616 0.004238 0.000000 -0.138744 0.004014 0.000000 -0.141686 0.003882 0.000000 -0.146555 0.003600 0.000000 -0.148930 0.003392 0.000000 -0.153387 0.003049 0.000000 -0.155074 0.002763 0.000000 -0.158961 0.002361 0.000000 -0.159843 0.001998 0.000000 -0.163003 0.001542 0.000000 -0.162970 0.001106 0.000000 -0.165257 0.000602 0.000000 -0.164213 0.000102 0.000000 -0.165498 -0.000440 0.000000 -0.163365 -0.000993 0.000000 -0.163540 -0.001564 0.000000 -0.160261 -0.002157 0.000000 -0.159246 -0.002743 0.000000 -0.154791 -0.003361 0.000000 -0.152533 -0.003949 0.000000 -0.146899 -0.004577 0.000000 -0.143379 -0.005152 0.000000 -0.136590 -0.005774 0.000000 -0.131821 -0.006323 0.000000 -0.123929 -0.006922 0.000000 -0.117957 -0.007431 0.000000 -0.109044 -0.007991 0.000000 
-0.102592 -0.016924 0.000000 -0.092728 -0.017944 0.000000 -0.084552 -0.018722 0.000000 -0.073902 -0.019608 0.000000 -0.064832 -0.020228 0.000000 -0.053554 -0.020956 0.000000 -0.043751 -0.021397 0.000000 -0.032024 -0.021946 0.000000 -0.021668 -0.022191 0.000000 -0.009691 -0.022545 0.000000 0.001022 -0.022581 0.000000 0.013038 -0.022729 0.000000 0.023900 -0.022551 0.000000 0.035740 -0.022487 0.000000 0.046537 -0.022092 0.000000 0.057980 -0.021818 0.000000 0.068500 -0.021212 0.000000 0.079333 -0.020736 0.000000 0.089372 -0.019930 0.000000 0.099392 -0.019265 0.000000 0.108759 -0.018278 0.000000 0.117783 -0.017445 0.000000 0.126308 -0.016301 0.000000 0.134178 -0.015326 0.000000 0.141718 -0.014054 0.000000 0.148304 -0.012967 0.000000 0.154745 -0.011601 0.000000 0.159952 -0.010434 0.000000 0.165215 -0.009009 0.000000 0.168983 -0.007798 0.000000 0.173024 -0.006351 0.000000 0.175332 -0.005129 0.000000 0.178140 -0.003695 0.000000 0.179002 -0.002494 0.000000 0.180598 -0.001107 0.000000 0.180063 0.000043 0.000000 0.180501 0.001353 0.000000 0.178646 0.002429 0.000000 0.178002 0.003636 0.000000 0.174933 0.004616 0.000000 0.173303 0.005701 0.000000 0.169144 0.006570 0.000000 0.166641 0.007517 0.000000 0.161532 0.008267 0.000000 0.158278 0.009067 0.000000 0.152368 0.009692 0.000000 0.148488 0.010342 0.000000 0.141929 0.010842 0.000000 0.137550 0.011342 0.000000 0.130493 0.011722 0.000000 0.125737 0.012078 0.000000 0.118328 0.012344 0.000000 0.113307 0.012565 0.000000 0.105684 0.012727 0.000000 0.100503 0.012825 0.000000 0.092788 0.012895 0.000000 0.087540 0.012884 0.000000 0.079844 0.012875 0.000000 0.074606 0.012771 0.000000 0.067023 0.012696 0.000000 0.061862 0.012515 0.000000 0.054468 0.012389 0.000000 0.049435 0.012148 0.000000 0.042290 0.011984 0.000000 0.037424 0.011700 0.000000 0.030571 0.011512 0.000000 0.025894 0.011201 0.000000 0.019360 0.011003 0.000000 0.014884 0.010680 0.000000 0.008679 0.010485 0.000000 0.004400 0.010164 0.000000 -0.001477 0.009985 0.000000 -0.005575 0.009679 0.000000 -0.011141 0.009527 0.000000 -0.015085 0.009246 0.000000 -0.020366 0.009133 0.000000 -0.024196 0.008886 0.000000 -0.029226 0.008821 0.000000 -0.032990 0.008612 0.000000 -0.037810 0.008603 0.000000 -0.041563 0.008436 0.000000 -0.046217 0.008485 0.000000 -0.050019 0.008358 0.000000 -0.054549 0.008466 0.000000 -0.058459 0.008375 0.000000 -0.062903 0.008536 0.000000 -0.066976 0.008473 0.000000 -0.071363 0.008677 0.000000 -0.075643 0.008629 0.000000 -0.079990 0.008861 0.000000 -0.084505 0.008812 0.000000 -0.088814 0.009051 0.000000 -0.093571 0.008984 0.000000 -0.097823 0.009205 0.000000 -0.102807 0.009099 0.000000 -0.106962 0.009275 0.000000 -0.112127 0.009110 0.000000 -0.116127 0.009214 0.000000 -0.121402 0.008970 0.000000 -0.125166 0.008975 0.000000 -0.130449 0.008635 0.000000 -0.133881 0.008518 0.000000 -0.139049 0.008069 0.000000 -0.142038 0.007810 0.000000 -0.146947 0.007244 0.000000 -0.149372 0.006832 0.000000 -0.153869 0.006145 0.000000 -0.155608 0.005574 0.000000 -0.159530 0.004769 0.000000 -0.160462 0.004042 0.000000 -0.163653 0.003127 0.000000 -0.163665 0.002254 0.000000 -0.165977 0.001243 0.000000 -0.164972 0.000241 0.000000 -0.166274 -0.000849 0.000000 -0.164172 -0.001958 0.000000 -0.164355 -0.003103 0.000000 -0.161100 -0.004294 0.000000 -0.160082 -0.005470 0.000000 -0.155642 -0.006712 0.000000 -0.153372 -0.007892 0.000000 -0.147741 -0.009154 0.000000 -0.144200 -0.010309 0.000000 -0.137403 -0.011558 0.000000 -0.132604 -0.012661 0.000000 -0.124694 -0.013864 0.000000 -0.118681 -0.014885 0.000000 -0.109740 -0.016012 0.000000 
-0.103879 -0.025457 0.000000 -0.093919 -0.026993 0.000000 -0.085666 -0.028167 0.000000 -0.074905 -0.029501 0.000000 -0.065741 -0.030438 0.000000 -0.054340 -0.031533 0.000000 -0.044427 -0.032201 0.000000 -0.032568 -0.033027 0.000000 -0.022091 -0.033399 0.000000 -0.009974 -0.033931 0.000000 0.000868 -0.033990 0.000000 0.013029 -0.034212 0.000000 0.024024 -0.033945 0.000000 0.036007 -0.033849 0.000000 0.046939 -0.033256 0.000000 0.058521 -0.032842 0.000000 0.069171 -0.031930 0.000000 0.080135 -0.031211 0.000000 0.090295 -0.029997 0.000000 0.100435 -0.028994 0.000000 0.109909 -0.027506 0.000000 0.119037 -0.026250 0.000000 0.127653 -0.024525 0.000000 0.135608 -0.023054 0.000000 0.143218 -0.021137 0.000000 0.149868 -0.019497 0.000000 0.156359 -0.017437 0.000000 0.161607 -0.015679 0.000000 0.166897 -0.013531 0.000000 0.170683 -0.011705 0.000000 0.174728 -0.009524 0.000000 0.177032 -0.007682 0.000000 0.179822 -0.005521 0.000000 0.180659 -0.003712 0.000000 0.182219 -0.001623 0.000000 0.181639 0.000109 0.000000 0.182023 0.002081 0.000000 0.180108 0.003699 0.000000 0.179396 0.005516 0.000000 0.176254 0.006990 0.000000 0.174547 0.008621 0.000000 0.170305 0.009928 0.000000 0.167719 0.011351 0.000000 0.162521 0.012477 0.000000 0.159180 0.013678 0.000000 0.153178 0.014616 0.000000 0.149212 0.015590 0.000000 0.142561 0.016340 0.000000 0.138099 0.017087 0.000000 0.130953 0.017656 0.000000 0.126119 0.018186 0.000000 0.118626 0.018584 0.000000 0.113535 0.018910 0.000000 0.105834 0.019153 0.000000 0.100592 0.019293 0.000000 0.092808 0.019398 0.000000 0.087509 0.019374 0.000000 0.079751 0.019360 0.000000 0.074474 0.019196 0.000000 0.066837 0.019084 0.000000 0.061649 0.018804 0.000000 0.054210 0.018615 0.000000 0.049162 0.018246 0.000000 0.041981 0.018000 0.000000 0.037111 0.017566 0.000000 0.030229 0.017285 0.000000 0.025561 0.016811 0.000000 0.019006 0.016514 0.000000 0.014549 0.016022 0.000000 0.008330 0.015730 0.000000 0.004081 0.015242 0.000000 -0.001804 0.014973 0.000000 -0.005861 0.014509 0.000000 -0.011430 0.014281 0.000000 -0.015325 0.013855 0.000000 -0.020604 0.013686 0.000000 -0.024377 0.013312 0.000000 -0.029403 0.013214 0.000000 -0.033104 0.012900 0.000000 -0.037919 0.012885 0.000000 -0.041607 0.012635 0.000000 -0.046255 0.012708 0.000000 -0.049993 0.012521 0.000000 -0.054519 0.012682 0.000000 -0.058369 0.012551 0.000000 -0.062813 0.012792 0.000000 -0.066835 0.012704 0.000000 -0.071228 0.013011 0.000000 -0.075469 0.012947 0.000000 -0.079830 0.013295 0.000000 -0.084323 0.013231 0.000000 -0.088654 0.013590 0.000000 -0.093410 0.013499 0.000000 -0.097694 0.013832 0.000000 -0.102698 0.013683 0.000000 -0.106896 0.013949 0.000000 -0.112104 0.013710 0.000000 -0.116156 0.013867 0.000000 -0.121496 0.013510 0.000000 -0.125321 0.013517 0.000000 -0.130689 0.013015 0.000000 -0.134187 0.012838 0.000000 -0.139456 0.012171 0.000000 -0.142515 0.011780 0.000000 -0.147538 0.010935 0.000000 -0.150033 0.010313 0.000000 -0.154648 0.009284 0.000000 -0.156454 0.008424 0.000000 -0.160496 0.007215 0.000000 -0.161488 0.006120 0.000000 -0.164794 0.004745 0.000000 -0.164857 0.003430 0.000000 -0.167274 0.001909 0.000000 -0.166308 0.000399 0.000000 -0.167700 -0.001240 0.000000 -0.165622 -0.002912 0.000000 -0.165878 -0.004636 0.000000 -0.162630 -0.006429 0.000000 -0.161666 -0.008201 0.000000 -0.157215 -0.010071 0.000000 -0.154977 -0.011849 0.000000 -0.149318 -0.013749 0.000000 -0.145785 -0.015490 0.000000 -0.138943 -0.017370 0.000000 -0.134129 -0.019033 0.000000 -0.126155 -0.020844 0.000000 -0.120107 -0.022384 0.000000 -0.111085 -0.024080 0.000000 
-0.105507 -0.034090 0.000000 -0.095440 -0.036158 0.000000 -0.087063 -0.037736 0.000000 -0.076174 -0.039534 0.000000 -0.066866 -0.040793 0.000000 -0.055318 -0.042270 0.000000 -0.045246 -0.043168 0.000000 -0.033225 -0.044282 0.000000 -0.022574 -0.044785 0.000000 -0.010284 -0.045504 0.000000 0.000740 -0.045584 0.000000 0.013081 -0.045885 0.000000 0.024262 -0.045529 0.000000 0.036428 -0.045401 0.000000 0.047542 -0.044606 0.000000 0.059304 -0.044051 0.000000 0.070130 -0.042826 0.000000 0.081264 -0.041859 0.000000 0.091587 -0.040229 0.000000 0.101882 -0.038879 0.000000 0.111501 -0.036880 0.000000 0.120763 -0.035189 0.000000 0.129503 -0.032871 0.000000 0.137565 -0.030891 0.000000 0.145274 -0.028314 0.000000 0.152002 -0.026107 0.000000 0.158562 -0.023339 0.000000 0.163857 -0.020972 0.000000 0.169188 -0.018086 0.000000 0.172989 -0.015629 0.000000 0.177046 -0.012700 0.000000 0.179333 -0.010223 0.000000 0.182108 -0.007322 0.000000 0.182899 -0.004891 0.000000 0.184419 -0.002088 0.000000 0.183766 0.000239 0.000000 0.184090 0.002884 0.000000 0.182080 0.005055 0.000000 0.181291 0.007490 0.000000 0.178036 0.009465 0.000000 0.176239 0.011649 0.000000 0.171872 0.013398 0.000000 0.169188 0.015302 0.000000 0.163857 0.016806 0.000000 0.160414 0.018410 0.000000 0.154276 0.019660 0.000000 0.150208 0.020959 0.000000 0.143423 0.021955 0.000000 0.138862 0.022950 0.000000 0.131587 0.023702 0.000000 0.126660 0.024405 0.000000 0.119047 0.024927 0.000000 0.113870 0.025357 0.000000 0.106061 0.025670 0.000000 0.100742 0.025851 0.000000 0.092863 0.025979 0.000000 0.087495 0.025941 0.000000 0.079658 0.025910 0.000000 0.074323 0.025684 0.000000 0.066624 0.025522 0.000000 0.061385 0.025143 0.000000 0.053901 0.024876 0.000000 0.048812 0.024378 0.000000 0.041603 0.024036 0.000000 0.036700 0.023452 0.000000 0.029807 0.023062 0.000000 0.025115 0.022425 0.000000 0.018563 0.022015 0.000000 0.014091 0.021356 0.000000 0.007891 0.020952 0.000000 0.003635 0.020299 0.000000 -0.002219 0.019928 0.000000 -0.006276 0.019305 0.000000 -0.011803 0.018991 0.000000 -0.015689 0.018420 0.000000 -0.020919 0.018186 0.000000 -0.024677 0.017684 0.000000 -0.029647 0.017548 0.000000 -0.033328 0.017128 0.000000 -0.038084 0.017105 0.000000 -0.041750 0.016772 0.000000 -0.046341 0.016871 0.000000 -0.050055 0.016622 0.000000 -0.054529 0.016842 0.000000 -0.058359 0.016670 0.000000 -0.062760 0.017002 0.000000 -0.066768 0.016888 0.000000 -0.071131 0.017311 0.000000 -0.075369 0.017231 0.000000 -0.079716 0.017715 0.000000 -0.084219 0.017636 0.000000 -0.088555 0.018138 0.000000 -0.093339 0.018023 0.000000 -0.097648 0.018492 0.000000 -0.102699 0.018301 0.000000 -0.106943 0.018682 0.000000 -0.112217 0.018370 0.000000 -0.116336 0.018605 0.000000 -0.121759 0.018134 0.000000 -0.125668 0.018168 0.000000 -0.131136 0.017502 0.000000 -0.134733 0.017286 0.000000 -0.140114 0.016397 0.000000 -0.143280 0.015892 0.000000 -0.148421 0.014762 0.000000 -0.151029 0.013943 0.000000 -0.155764 0.012566 0.000000 -0.157682 0.011422 0.000000 -0.161839 0.009803 0.000000 -0.162937 0.008340 0.000000 -0.166348 0.006496 0.000000 -0.166506 0.004734 0.000000 -0.169012 0.002693 0.000000 -0.168126 0.000667 0.000000 -0.169589 -0.001534 0.000000 -0.167572 -0.003780 0.000000 -0.167876 -0.006095 0.000000 -0.164668 -0.008507 0.000000 -0.163727 -0.010886 0.000000 -0.159293 -0.013401 0.000000 -0.157052 -0.015789 0.000000 -0.151385 -0.018345 0.000000 -0.147824 -0.020685 0.000000 -0.140948 -0.023215 0.000000 -0.136080 -0.025448 0.000000 -0.128048 -0.027886 0.000000 -0.121920 -0.029956 0.000000 -0.112815 -0.032239 0.000000 
-0.107800 -0.042832 0.000000 -0.097569 -0.045437 0.000000 -0.089045 -0.047434 0.000000 -0.077964 -0.049698 0.000000 -0.068480 -0.051293 0.000000 -0.056717 -0.053154 0.000000 -0.046442 -0.054294 0.000000 -0.034187 -0.055698 0.000000 -0.023314 -0.056340 0.000000 -0.010776 -0.057246 0.000000 0.000485 -0.057355 0.000000 0.013082 -0.057734 0.000000 0.024506 -0.057292 0.000000 0.036929 -0.057129 0.000000 0.048287 -0.056132 0.000000 0.060299 -0.055430 0.000000 0.071361 -0.053890 0.000000 0.082731 -0.052668 0.000000 0.093273 -0.050614 0.000000 0.103781 -0.048908 0.000000 0.113597 -0.046388 0.000000 0.123044 -0.044251 0.000000 0.131949 -0.041327 0.000000 0.140163 -0.038825 0.000000 0.148001 -0.035574 0.000000 0.154842 -0.032786 0.000000 0.161492 -0.029293 0.000000 0.166858 -0.026305 0.000000 0.172238 -0.022663 0.000000 0.176068 -0.019563 0.000000 0.180133 -0.015867 0.000000 0.182408 -0.012744 0.000000 0.185152 -0.009087 0.000000 0.185892 -0.006023 0.000000 0.187347 -0.002491 0.000000 0.186609 0.000438 0.000000 0.186837 0.003768 0.000000 0.184712 0.006498 0.000000 0.183804 0.009561 0.000000 0.180411 0.012042 0.000000 0.178477 0.014785 0.000000 0.173955 0.016980 0.000000 0.171123 0.019367 0.000000 0.165626 0.021251 0.000000 0.162031 0.023259 0.000000 0.155722 0.024822 0.000000 0.151502 0.026443 0.000000 0.144547 0.027686 0.000000 0.139840 0.028923 0.000000 0.132402 0.029859 0.000000 0.127337 0.030726 0.000000 0.119571 0.031374 0.000000 0.114270 0.031896 0.000000 0.106320 0.032282 0.000000 0.100893 0.032491 0.000000 0.092888 0.032645 0.000000 0.087430 0.032578 0.000000 0.079484 0.032533 0.000000 0.074076 0.032231 0.000000 0.066285 0.032021 0.000000 0.060993 0.031527 0.000000 0.053435 0.031189 0.000000 0.048311 0.030544 0.000000 0.041044 0.030112 0.000000 0.036126 0.029362 0.000000 0.029191 0.028870 0.000000 0.024502 0.028054 0.000000 0.017925 0.027537 0.000000 0.013474 0.026695 0.000000 0.007262 0.026186 0.000000 0.003045 0.025353 0.000000 -0.002810 0.024884 0.000000 -0.006810 0.024092 0.000000 -0.012327 0.023695 0.000000 -0.016142 0.022971 0.000000 -0.021353 0.022673 0.000000 -0.025027 0.022040 0.000000 -0.029972 0.021866 0.000000 -0.033560 0.021338 0.000000 -0.038288 0.021307 0.000000 -0.041855 0.020891 0.000000 -0.046418 0.021014 0.000000 -0.050034 0.020710 0.000000 -0.054485 0.020986 0.000000 -0.058223 0.020782 0.000000 -0.062609 0.021201 0.000000 -0.066538 0.021075 0.000000 -0.070898 0.021611 0.000000 -0.075079 0.021532 0.000000 -0.079438 0.022145 0.000000 -0.083913 0.022071 0.000000 -0.088280 0.022710 0.000000 -0.093068 0.022592 0.000000 -0.097429 0.023192 0.000000 -0.102521 0.022978 0.000000 -0.106838 0.023467 0.000000 -0.112192 0.023103 0.000000 -0.116403 0.023409 0.000000 -0.121944 0.022842 0.000000 -0.125964 0.022894 0.000000 -0.131581 0.022080 0.000000 -0.135303 0.021815 0.000000 -0.140860 0.020718 0.000000 -0.144159 0.020088 0.000000 -0.149495 0.018684 0.000000 -0.152237 0.017656 0.000000 -0.157177 0.015937 0.000000 -0.159224 0.014499 0.000000 -0.163586 0.012471 0.000000 -0.164802 0.010629 0.000000 -0.168407 0.008314 0.000000 -0.168667 0.006095 0.000000 -0.171348 0.003529 0.000000 -0.170541 0.000976 0.000000 -0.172152 -0.001794 0.000000 -0.170189 -0.004624 0.000000 -0.170610 -0.007540 0.000000 -0.167425 -0.010578 0.000000 -0.166565 -0.013577 0.000000 -0.162123 -0.016746 0.000000 -0.159925 -0.019757 0.000000 -0.154217 -0.022977 0.000000 -0.150659 -0.025928 0.000000 -0.143709 -0.029115 0.000000 -0.138804 -0.031933 0.000000 -0.130666 -0.035004 0.000000 -0.124462 -0.037618 0.000000 -0.115221 -0.040494 0.000000 
-0.110453 -0.051742 0.000000 -0.100046 -0.054913 0.000000 -0.091327 -0.057341 0.000000 -0.080036 -0.060098 0.000000 -0.070325 -0.062040 0.000000 -0.058322 -0.064307 0.000000 -0.047793 -0.065698 0.000000 -0.035273 -0.067410 0.000000 -0.024125 -0.068196 0.000000 -0.011302 -0.069302 0.000000 0.000249 -0.069442 0.000000 0.013142 -0.069907 0.000000 0.024864 -0.069377 0.000000 0.037585 -0.069182 0.000000 0.049239 -0.067976 0.000000 0.061544 -0.067124 0.000000 0.072890 -0.065258 0.000000 0.084538 -0.063771 0.000000 0.095344 -0.061280 0.000000 0.106105 -0.059203 0.000000 0.116156 -0.056143 0.000000 0.125822 -0.053541 0.000000 0.134926 -0.049989 0.000000 0.143316 -0.046943 0.000000 0.151311 -0.042993 0.000000 0.158280 -0.039599 0.000000 0.165041 -0.035356 0.000000 0.170485 -0.031718 0.000000 0.175927 -0.027296 0.000000 0.179783 -0.023525 0.000000 0.183863 -0.019039 0.000000 0.186112 -0.015242 0.000000 0.188827 -0.010806 0.000000 0.189492 -0.007085 0.000000 0.190878 -0.002805 0.000000 0.190023 0.000749 0.000000 0.190148 0.004780 0.000000 0.187871 0.008088 0.000000 0.186832 0.011792 0.000000 0.183258 0.014792 0.000000 0.181174 0.018105 0.000000 0.176450 0.020753 0.000000 0.173455 0.023631 0.000000 0.167744 0.025898 0.000000 0.163981 0.028314 0.000000 0.157454 0.030189 0.000000 0.153067 0.032133 0.000000 0.145896 0.033618 0.000000 0.141027 0.035096 0.000000 0.133383 0.036205 0.000000 0.128166 0.037236 0.000000 0.120208 0.037994 0.000000 0.114769 0.038608 0.000000 0.106645 0.039048 0.000000 0.101094 0.039283 0.000000 0.092938 0.039442 0.000000 0.087371 0.039345 0.000000 0.079299 0.039264 0.000000 0.073799 0.038884 0.000000 0.065906 0.038604 0.000000 0.060539 0.037993 0.000000 0.052905 0.037558 0.000000 0.047722 0.036768 0.000000 0.040406 0.036221 0.000000 0.035444 0.035304 0.000000 0.028485 0.034686 0.000000 0.023768 0.033692 0.000000 0.017190 0.033044 0.000000 0.012725 0.032019 0.000000 0.006534 0.031382 0.000000 0.002318 0.030370 0.000000 -0.003495 0.029783 0.000000 -0.007481 0.028822 0.000000 -0.012939 0.028323 0.000000 -0.016727 0.027446 0.000000 -0.021866 0.027070 0.000000 -0.025500 0.026304 0.000000 -0.030365 0.026082 0.000000 -0.033904 0.025445 0.000000 -0.038548 0.025400 0.000000 -0.042059 0.024902 0.000000 -0.046539 0.025050 0.000000 -0.050100 0.024688 0.000000 -0.054474 0.025031 0.000000 -0.058161 0.024793 0.000000 -0.062484 0.025317 0.000000 -0.066375 0.025177 0.000000 -0.070691 0.025852 0.000000 -0.074852 0.025771 0.000000 -0.079193 0.026549 0.000000 -0.083672 0.026478 0.000000 -0.088051 0.027293 0.000000 -0.092873 0.027172 0.000000 -0.097278 0.027945 0.000000 -0.102438 0.027710 0.000000 -0.106833 0.028353 0.000000 -0.112290 0.027936 0.000000 -0.116611 0.028357 0.000000 -0.122288 0.027695 0.000000 -0.126444 0.027806 0.000000 -0.132228 0.026841 0.000000 -0.136108 0.026564 0.000000 -0.141854 0.025253 0.000000 -0.145326 0.024527 0.000000 -0.150864 0.022841 0.000000 -0.153787 0.021625 0.000000 -0.158932 0.019553 0.000000 -0.161158 0.017830 0.000000 -0.165718 0.015381 0.000000 -0.167102 0.013161 0.000000 -0.170890 0.010361 0.000000 -0.171299 0.007676 0.000000 -0.174140 0.004568 0.000000 -0.173457 0.001471 0.000000 -0.175196 -0.001886 0.000000 -0.173325 -0.005323 0.000000 -0.173837 -0.008859 0.000000 -0.170711 -0.012551 0.000000 -0.169901 -0.016188 0.000000 -0.165478 -0.020042 0.000000 -0.163288 -0.023695 0.000000 -0.157561 -0.027611 0.000000 -0.153967 -0.031193 0.000000 -0.146958 -0.035070 0.000000 -0.141974 -0.038491 0.000000 -0.133736 -0.042228 0.000000 -0.127413 -0.045401 0.000000 -0.118033 -0.048901 0.000000 
-0.113816 -0.060819 0.000000 -0.103172 -0.064563 0.000000 -0.094234 -0.067443 0.000000 -0.082667 -0.070699 0.000000 -0.072692 -0.073007 0.000000 -0.060378 -0.075685 0.000000 -0.049549 -0.077343 0.000000 -0.036688 -0.079367 0.000000 -0.025209 -0.080311 0.000000 -0.012026 -0.081619 0.000000 -0.000123 -0.081799 0.000000 0.013144 -0.082348 0.000000 0.025228 -0.081736 0.000000 0.038326 -0.081505 0.000000 0.050342 -0.080091 0.000000 0.063015 -0.079081 0.000000 0.074711 -0.076883 0.000000 0.086706 -0.075122 0.000000 0.097838 -0.072181 0.000000 0.108915 -0.069720 0.000000 0.119256 -0.066104 0.000000 0.129196 -0.063020 0.000000 0.138544 -0.058821 0.000000 0.147157 -0.055210 0.000000 0.155343 -0.050538 0.000000 0.162477 -0.046517 0.000000 0.169370 -0.041498 0.000000 0.174916 -0.037191 0.000000 0.180429 -0.031961 0.000000 0.184323 -0.027499 0.000000 0.188414 -0.022196 0.000000 0.190639 -0.017708 0.000000 0.193307 -0.012468 0.000000 0.193891 -0.008074 0.000000 0.195178 -0.003022 0.000000 0.194191 0.001168 0.000000 0.194174 0.005920 0.000000 0.191721 0.009814 0.000000 0.190505 0.014174 0.000000 0.186721 0.017700 0.000000 0.184434 0.021593 0.000000 0.179477 0.024698 0.000000 0.176263 0.028072 0.000000 0.170304 0.030725 0.000000 0.166315 0.033549 0.000000 0.159534 0.035736 0.000000 0.154923 0.038000 0.000000 0.147502 0.039726 0.000000 0.142418 0.041436 0.000000 0.134532 0.042719 0.000000 0.129116 0.043901 0.000000 0.120932 0.044771 0.000000 0.115312 0.045459 0.000000 0.106983 0.045956 0.000000 0.101274 0.046198 0.000000 0.092936 0.046367 0.000000 0.087237 0.046217 0.000000 0.079008 0.046105 0.000000 0.073401 0.045623 0.000000 0.065378 0.045281 0.000000 0.059931 0.044528 0.000000 0.052193 0.044005 0.000000 0.046957 0.043044 0.000000 0.039562 0.042391 0.000000 0.034573 0.041282 0.000000 0.027561 0.040547 0.000000 0.022843 0.039350 0.000000 0.016234 0.038580 0.000000 0.011794 0.037350 0.000000 0.005594 0.036593 0.000000 0.001427 0.035382 0.000000 -0.004376 0.034683 0.000000 -0.008289 0.033536 0.000000 -0.013722 0.032941 0.000000 -0.017414 0.031897 0.000000 -0.022514 0.031446 0.000000 -0.026035 0.030539 0.000000 -0.030851 0.030270 0.000000 -0.034261 0.029520 0.000000 -0.038852 0.029462 0.000000 -0.042226 0.028883 0.000000 -0.046653 0.029054 0.000000 -0.050074 0.028644 0.000000 -0.054401 0.029048 0.000000 -0.057958 0.028792 0.000000 -0.062246 0.029415 0.000000 -0.066025 0.029282 0.000000 -0.070325 0.030088 0.000000 -0.074403 0.030033 0.000000 -0.078753 0.030966 0.000000 -0.083190 0.030929 0.000000 -0.087606 0.031911 0.000000 -0.092435 0.031820 0.000000 -0.096910 0.032757 0.000000 -0.102132 0.032533 0.000000 -0.106630 0.033319 0.000000 -0.112206 0.032881 0.000000 -0.116663 0.033406 0.000000 -0.122512 0.032676 0.000000 -0.126834 0.032834 0.000000 -0.132839 0.031744 0.000000 -0.136906 0.031441 0.000000 -0.142912 0.029936 0.000000 -0.146586 0.029098 0.000000 -0.152411 0.027144 0.000000 -0.155539 0.025724 0.000000 -0.160984 0.023307 0.000000 -0.163408 0.021285 0.000000 -0.168267 0.018416 0.000000 -0.169834 0.015801 0.000000 -0.173903 0.012511 0.000000 -0.174469 0.009345 0.000000 -0.177562 0.005687 0.000000 -0.177004 0.002032 0.000000 -0.178955 -0.001925 0.000000 -0.177170 -0.005983 0.000000 -0.177846 -0.010155 0.000000 -0.174762 -0.014515 0.000000 -0.174063 -0.018809 0.000000 -0.169636 -0.023359 0.000000 -0.167500 -0.027675 0.000000 -0.161721 -0.032298 0.000000 -0.158123 -0.036531 0.000000 -0.151013 -0.041107 0.000000 -0.145967 -0.045154 0.000000 -0.137582 -0.049565 0.000000 -0.131140 -0.053321 0.000000 -0.121566 -0.057453 0.000000 