# vtk DataFile Version 2.0
Comment goes here
ASCII

DATASET STRUCTURED_POINTS
FIELD FieldData 1
TIME 1 1 double
0.04500000
DIMENSIONS    128   128   1

ORIGIN    0.000   0.000   0.000
SPACING   0.039062 0.039062   1.000

POINT_DATA   16384
VECTORS u double

0.681273 0.000000 0.000000 0.710369 0.000000 0.000000 0.743517 0.000000 0.000000 0.769772 0.000000 0.000000 0.800508 0.000000 0.000000 0.823840 0.000000 0.000000 0.852031 0.000000 0.000000 0.872338 0.000000 0.000000 0.897826 0.000000 0.000000 0.914983 0.000000 0.000000 0.937589 0.000000 0.000000 0.951452 0.000000 0.000000 0.970972 0.000000 0.000000 0.981380 0.000000 0.000000 0.997598 0.000000 0.000000 1.004377 0.000000 0.000000 1.017065 0.000000 0.000000 1.020037 0.000000 0.000000 1.028966 0.000000 0.000000 1.027957 0.000000 0.000000 1.032904 0.000000 0.000000 1.027751 0.000000 0.000000 1.028509 0.000000 0.000000 1.019071 0.000000 0.000000 1.015458 0.000000 0.000000 1.001622 0.000000 0.000000 0.993489 0.000000 0.000000 0.975179 0.000000 0.000000 0.962416 0.000000 0.000000 0.939602 0.000000 0.000000 0.922144 0.000000 0.000000 0.894845 0.000000 0.000000 0.872676 0.000000 0.000000 0.840963 0.000000 0.000000 0.814119 0.000000 0.000000 0.778122 0.000000 0.000000 0.746690 0.000000 0.000000 0.706593 0.000000 0.000000 0.670714 0.000000 0.000000 0.626762 0.000000 0.000000 0.586630 0.000000 0.000000 0.539123 0.000000 0.000000 0.494989 0.000000 0.000000 0.444283 0.000000 0.000000 0.396450 0.000000 0.000000 0.342959 0.000000 0.000000 0.291789 0.000000 0.000000 0.235981 0.000000 0.000000 0.181894 0.000000 0.000000 0.124292 0.000000 0.000000 0.067768 0.000000 0.000000 0.008947 0.000000 0.000000 -0.049470 0.000000 0.000000 -0.108883 0.000000 0.000000 -0.168588 0.000000 0.000000 -0.227916 0.000000 0.000000 -0.288242 0.000000 0.000000 -0.346764 0.000000 0.000000 -0.406989 0.000000 0.000000 -0.463949 0.000000 0.000000 -0.523299 0.000000 0.000000 -0.577914 0.000000 0.000000 -0.635577 0.000000 0.000000 -0.687051 0.000000 0.000000 -0.742191 0.000000 0.000000 -0.789731 0.000000 0.000000 -0.841506 0.000000 0.000000 -0.884342 0.000000 0.000000 -0.931924 0.000000 0.000000 -0.969329 0.000000 0.000000 -1.011929 0.000000 0.000000 -1.043244 0.000000 0.000000 -1.080137 0.000000 0.000000 -1.104791 0.000000 0.000000 -1.135338 0.000000 0.000000 -1.152874 0.000000 0.000000 -1.176546 0.000000 0.000000 -1.186636 0.000000 0.000000 -1.203038 0.000000 0.000000 -1.205500 0.000000 0.000000 -1.214383 0.000000 0.000000 -1.209192 0.000000 0.000000 -1.210463 0.000000 0.000000 -1.197755 0.000000 0.000000 -1.191487 0.000000 0.000000 -1.171554 0.000000 0.000000 -1.157978 0.000000 0.000000 -1.131264 0.000000 0.000000 -1.110764 0.000000 0.000000 -1.077841 0.000000 0.000000 -1.050936 0.000000 0.000000 -1.012490 0.000000 0.000000 -0.979813 0.000000 0.000000 -0.936613 0.000000 0.000000 -0.898884 0.000000 0.000000 -0.851753 0.000000 0.000000 -0.809751 0.000000 0.000000 -0.759537 0.000000 0.000000 -0.714068 0.000000 0.000000 -0.661615 0.000000 0.000000 -0.613483 0.000000 0.000000 -0.559602 0.000000 0.000000 -0.509582 0.000000 0.000000 -0.455029 0.000000 0.000000 -0.403843 0.000000 0.000000 -0.349302 0.000000 0.000000 -0.297605 0.000000 0.000000 -0.243677 0.000000 0.000000 -0.192041 0.000000 0.000000 -0.139235 0.000000 0.000000 -0.088148 0.000000 0.000000 -0.036886 0.000000 0.000000 0.013252 0.000000 0.000000 0.062635 0.000000 0.000000 0.111504 0.000000 0.000000 0.158751 0.000000 0.000000 0.206099 0.000000 0.000000 0.251020 0.000000 0.000000 0.296660 0.000000 0.000000 0.339118 0.000000 0.000000 0.382907 0.000000 0.000000 0.422807 0.000000 0.000000 0.464638 0.000000 0.000000 0.501912 0.000000 0.000000 0.541696 0.000000 0.000000 0.576293 0.000000 0.000000 0.613951 0.000000 0.000000 0.645823 0.000000 0.000000 
0.681713 -0.032273 0.000000 0.710764 -0.031122 0.000000 0.743933 -0.029702 0.000000 0.770149 -0.028496 0.000000 0.800911 -0.027034 0.000000 0.824211 -0.025761 0.000000 0.852434 -0.024249 0.000000 0.872717 -0.022898 0.000000 0.898243 -0.021323 0.000000 0.915385 -0.019881 0.000000 0.938035 -0.018234 0.000000 0.951892 -0.016692 0.000000 0.971462 -0.014964 0.000000 0.981872 -0.013313 0.000000 0.998147 -0.011499 0.000000 1.004936 -0.009733 0.000000 1.017685 -0.007830 0.000000 1.020674 -0.005951 0.000000 1.029668 -0.003960 0.000000 1.028680 -0.001969 0.000000 1.033696 0.000103 0.000000 1.028567 0.002197 0.000000 1.029397 0.004340 0.000000 1.019981 0.006526 0.000000 1.016442 0.008725 0.000000 1.002625 0.010985 0.000000 0.994566 0.013221 0.000000 0.976269 0.015536 0.000000 0.963581 0.017788 0.000000 0.940771 0.020136 0.000000 0.923385 0.022379 0.000000 0.896079 0.024734 0.000000 0.873979 0.026941 0.000000 0.842246 0.029278 0.000000 0.815465 0.031421 0.000000 0.779433 0.033715 0.000000 0.748057 0.035764 0.000000 0.707910 0.037988 0.000000 0.672078 0.039916 0.000000 0.628060 0.042042 0.000000 0.587965 0.043819 0.000000 0.540375 0.045821 0.000000 0.496265 0.047420 0.000000 0.445462 0.049269 0.000000 0.397639 0.050662 0.000000 0.344037 0.052330 0.000000 0.292861 0.053489 0.000000 0.236930 0.054948 0.000000 0.182819 0.055845 0.000000 0.125084 0.057063 0.000000 0.068519 0.057673 0.000000 0.009557 0.058619 0.000000 -0.048920 0.058915 0.000000 -0.108477 0.059559 0.000000 -0.168261 0.059516 0.000000 -0.227735 0.059827 0.000000 -0.288158 0.059424 0.000000 -0.346825 0.059373 0.000000 -0.407162 0.058592 0.000000 -0.464263 0.058155 0.000000 -0.523740 0.056983 0.000000 -0.578488 0.056139 0.000000 -0.636290 0.054569 0.000000 -0.687886 0.053307 0.000000 -0.743172 0.051340 0.000000 -0.790820 0.049657 0.000000 -0.842746 0.047305 0.000000 -0.885672 0.045209 0.000000 -0.933406 0.042494 0.000000 -0.970880 0.040003 0.000000 -1.013628 0.036958 0.000000 -1.044989 0.034104 0.000000 -1.082020 0.030774 0.000000 -1.106695 0.027601 0.000000 -1.137367 0.024041 0.000000 -1.154895 0.020604 0.000000 -1.178678 0.016881 0.000000 -1.188730 0.013246 0.000000 -1.205223 0.009432 0.000000 -1.207618 0.005672 0.000000 -1.216569 0.001846 0.000000 -1.211283 -0.001960 0.000000 -1.212600 -0.005718 0.000000 -1.199769 -0.009488 0.000000 -1.193523 -0.013100 0.000000 -1.173444 -0.016754 0.000000 -1.159868 -0.020145 0.000000 -1.132986 -0.023607 0.000000 -1.112466 -0.026711 0.000000 -1.079361 -0.029914 0.000000 -1.052418 -0.032675 0.000000 -1.013780 -0.035562 0.000000 -0.981051 -0.037939 0.000000 -0.937656 -0.040465 0.000000 -0.899864 -0.042430 0.000000 -0.852541 -0.044567 0.000000 -0.810470 -0.046108 0.000000 -0.760074 -0.047841 0.000000 -0.714534 -0.048961 0.000000 -0.661913 -0.050292 0.000000 -0.613711 -0.051007 0.000000 -0.559680 -0.051951 0.000000 -0.509595 -0.052287 0.000000 -0.454914 -0.052869 0.000000 -0.403670 -0.052863 0.000000 -0.349026 -0.053119 0.000000 -0.297279 -0.052813 0.000000 -0.243272 -0.052782 0.000000 -0.191594 -0.052221 0.000000 -0.138736 -0.051947 0.000000 -0.087614 -0.051175 0.000000 -0.036322 -0.050700 0.000000 0.013842 -0.049761 0.000000 0.063234 -0.049126 0.000000 0.112121 -0.048058 0.000000 0.159359 -0.047298 0.000000 0.206722 -0.046135 0.000000 0.251619 -0.045280 0.000000 0.297269 -0.044049 0.000000 0.339692 -0.043124 0.000000 0.383490 -0.041845 0.000000 0.423346 -0.040865 0.000000 0.465185 -0.039553 0.000000 0.502412 -0.038529 0.000000 0.542205 -0.037191 0.000000 0.576753 -0.036127 0.000000 0.614423 -0.034765 0.000000 0.646248 -0.033661 0.000000 
0.683812 -0.064517 0.000000 0.712940 -0.062220 0.000000 0.746144 -0.059385 0.000000 0.772440 -0.056978 0.000000 0.803242 -0.054062 0.000000 0.826626 -0.051523 0.000000 0.854895 -0.048505 0.000000 0.875264 -0.045809 0.000000 0.900843 -0.042668 0.000000 0.918072 -0.039792 0.000000 0.940778 -0.036506 0.000000 0.954722 -0.033428 0.000000 0.974351 -0.029981 0.000000 0.984845 -0.026684 0.000000 1.001177 -0.023063 0.000000 1.008045 -0.019538 0.000000 1.020848 -0.015738 0.000000 1.023908 -0.011983 0.000000 1.032947 -0.008006 0.000000 1.032020 -0.004028 0.000000 1.037070 0.000114 0.000000 1.031989 0.004299 0.000000 1.032838 0.008586 0.000000 1.023456 0.012955 0.000000 1.019917 0.017356 0.000000 1.006118 0.021876 0.000000 0.998040 0.026355 0.000000 0.979746 0.030986 0.000000 0.967016 0.035499 0.000000 0.944192 0.040195 0.000000 0.926743 0.044692 0.000000 0.899407 0.049407 0.000000 0.877221 0.053833 0.000000 0.845444 0.058514 0.000000 0.818556 0.062813 0.000000 0.782465 0.067408 0.000000 0.750963 0.071523 0.000000 0.710744 0.075979 0.000000 0.674768 0.079851 0.000000 0.630665 0.084113 0.000000 0.590409 0.087684 0.000000 0.542723 0.091700 0.000000 0.498437 0.094913 0.000000 0.447525 0.098626 0.000000 0.399511 0.101425 0.000000 0.345786 0.104778 0.000000 0.294406 0.107107 0.000000 0.238336 0.110041 0.000000 0.184009 0.111846 0.000000 0.126118 0.114300 0.000000 0.069323 0.115527 0.000000 0.010188 0.117439 0.000000 -0.048532 0.118034 0.000000 -0.108283 0.119341 0.000000 -0.168322 0.119258 0.000000 -0.228009 0.119897 0.000000 -0.288697 0.119090 0.000000 -0.347598 0.119005 0.000000 -0.408209 0.117438 0.000000 -0.465561 0.116578 0.000000 -0.525316 0.114225 0.000000 -0.580330 0.112550 0.000000 -0.638411 0.109398 0.000000 -0.690281 0.106883 0.000000 -0.745842 0.102935 0.000000 -0.793768 0.099574 0.000000 -0.845956 0.094852 0.000000 -0.889155 0.090659 0.000000 -0.937131 0.085208 0.000000 -0.974866 0.080222 0.000000 -1.017830 0.074108 0.000000 -1.049430 0.068392 0.000000 -1.086641 0.061706 0.000000 -1.111525 0.055347 0.000000 -1.142336 0.048201 0.000000 -1.160035 0.041310 0.000000 -1.183906 0.033835 0.000000 -1.194087 0.026545 0.000000 -1.210614 0.018888 0.000000 -1.213088 0.011346 0.000000 -1.222016 0.003665 0.000000 -1.216758 -0.003969 0.000000 -1.217994 -0.011514 0.000000 -1.205138 -0.019077 0.000000 -1.198754 -0.026325 0.000000 -1.178601 -0.033655 0.000000 -1.164833 -0.040457 0.000000 -1.137831 -0.047402 0.000000 -1.117072 -0.053625 0.000000 -1.083807 -0.060048 0.000000 -1.056585 -0.065581 0.000000 -1.017755 -0.071367 0.000000 -0.984717 -0.076125 0.000000 -0.941105 -0.081187 0.000000 -0.902987 -0.085114 0.000000 -0.855432 -0.089394 0.000000 -0.813026 -0.092467 0.000000 -0.762392 -0.095936 0.000000 -0.716520 -0.098161 0.000000 -0.663662 -0.100823 0.000000 -0.615142 -0.102232 0.000000 -0.560883 -0.104116 0.000000 -0.510501 -0.104766 0.000000 -0.455606 -0.105924 0.000000 -0.404093 -0.105888 0.000000 -0.349252 -0.106392 0.000000 -0.297269 -0.105754 0.000000 -0.243085 -0.105684 0.000000 -0.191205 -0.104537 0.000000 -0.138189 -0.103980 0.000000 -0.086901 -0.102413 0.000000 -0.035472 -0.101456 0.000000 0.014827 -0.099556 0.000000 0.064339 -0.098279 0.000000 0.113331 -0.096125 0.000000 0.160674 -0.094601 0.000000 0.208117 -0.092259 0.000000 0.253106 -0.090547 0.000000 0.298817 -0.088073 0.000000 0.341322 -0.086221 0.000000 0.385166 -0.083655 0.000000 0.425099 -0.081696 0.000000 0.466974 -0.079066 0.000000 0.504274 -0.077020 0.000000 0.544098 -0.074341 0.000000 0.578719 -0.072218 0.000000 0.616417 -0.069494 0.000000 0.648316 -0.067290 0.000000 
0.686783 -0.096897 0.000000 0.715897 -0.093454 0.000000 0.749175 -0.089201 0.000000 0.775472 -0.085594 0.000000 0.806366 -0.081220 0.000000 0.829768 -0.077414 0.000000 0.858147 -0.072887 0.000000 0.878554 -0.068845 0.000000 0.904261 -0.064131 0.000000 0.921548 -0.059817 0.000000 0.944398 -0.054884 0.000000 0.958417 -0.050265 0.000000 0.978206 -0.045088 0.000000 0.988790 -0.040139 0.000000 1.005292 -0.034698 0.000000 1.012261 -0.029404 0.000000 1.025240 -0.023693 0.000000 1.028406 -0.018050 0.000000 1.037623 -0.012073 0.000000 1.036801 -0.006092 0.000000 1.042024 0.000135 0.000000 1.037039 0.006430 0.000000 1.038052 0.012873 0.000000 1.028752 0.019446 0.000000 1.025363 0.026062 0.000000 1.011624 0.032862 0.000000 1.003677 0.039594 0.000000 0.985413 0.046561 0.000000 0.972791 0.053342 0.000000 0.949965 0.060409 0.000000 0.932597 0.067164 0.000000 0.905220 0.074256 0.000000 0.883087 0.080904 0.000000 0.851227 0.087944 0.000000 0.824360 0.094399 0.000000 0.788143 0.101308 0.000000 0.756628 0.107485 0.000000 0.716238 0.114183 0.000000 0.680213 0.119995 0.000000 0.635894 0.126400 0.000000 0.595551 0.131761 0.000000 0.547604 0.137794 0.000000 0.503190 0.142619 0.000000 0.451973 0.148195 0.000000 0.403790 0.152400 0.000000 0.349718 0.157436 0.000000 0.298123 0.160939 0.000000 0.241667 0.165345 0.000000 0.187076 0.168063 0.000000 0.128762 0.171749 0.000000 0.071654 0.173603 0.000000 0.012062 0.176474 0.000000 -0.047021 0.177386 0.000000 -0.107257 0.179348 0.000000 -0.167708 0.179242 0.000000 -0.227905 0.180203 0.000000 -0.289053 0.179013 0.000000 -0.348480 0.178885 0.000000 -0.409593 0.176555 0.000000 -0.467480 0.175262 0.000000 -0.527772 0.171751 0.000000 -0.583319 0.169233 0.000000 -0.641960 0.164520 0.000000 -0.694352 0.160739 0.000000 -0.750485 0.154826 0.000000 -0.798906 0.149771 0.000000 -0.851664 0.142693 0.000000 -0.895319 0.136384 0.000000 -0.943846 0.128205 0.000000 -0.981983 0.120701 0.000000 -1.025462 0.111521 0.000000 -1.057394 0.102915 0.000000 -1.095069 0.092869 0.000000 -1.120203 0.083295 0.000000 -1.151408 0.072551 0.000000 -1.169264 0.062175 0.000000 -1.193446 0.050933 0.000000 -1.203680 0.039953 0.000000 -1.220425 0.028433 0.000000 -1.222844 0.017075 0.000000 -1.231888 0.005515 0.000000 -1.226464 -0.005983 0.000000 -1.227711 -0.017338 0.000000 -1.214583 -0.028727 0.000000 -1.208105 -0.039638 0.000000 -1.187579 -0.050675 0.000000 -1.173619 -0.060914 0.000000 -1.146157 -0.071369 0.000000 -1.125116 -0.080736 0.000000 -1.091320 -0.090401 0.000000 -1.063741 -0.098727 0.000000 -1.024327 -0.107430 0.000000 -0.990874 -0.114588 0.000000 -0.946648 -0.122195 0.000000 -0.908074 -0.128103 0.000000 -0.859896 -0.134527 0.000000 -0.817015 -0.139148 0.000000 -0.765770 -0.144347 0.000000 -0.719422 -0.147691 0.000000 -0.665985 -0.151670 0.000000 -0.617006 -0.153786 0.000000 -0.562215 -0.156592 0.000000 -0.511404 -0.157564 0.000000 -0.456038 -0.159277 0.000000 -0.404138 -0.159217 0.000000 -0.348893 -0.159944 0.000000 -0.296572 -0.158980 0.000000 -0.242055 -0.158846 0.000000 -0.189890 -0.157116 0.000000 -0.136612 -0.156251 0.000000 -0.085090 -0.153892 0.000000 -0.033465 -0.152428 0.000000 0.017018 -0.149571 0.000000 0.066665 -0.147630 0.000000 0.115800 -0.144393 0.000000 0.163226 -0.142083 0.000000 0.210775 -0.138566 0.000000 0.255806 -0.135980 0.000000 0.301596 -0.132265 0.000000 0.344111 -0.129473 0.000000 0.388015 -0.125622 0.000000 0.427936 -0.122673 0.000000 0.469861 -0.118727 0.000000 0.507137 -0.115653 0.000000 0.547008 -0.111635 0.000000 0.581601 -0.108447 0.000000 0.619351 -0.104363 0.000000 0.651226 -0.101056 0.000000 
0.691414 -0.129188 0.000000 0.720637 -0.124613 0.000000 0.754004 -0.118960 0.000000 0.780422 -0.114169 0.000000 0.811422 -0.108358 0.000000 0.834960 -0.103304 0.000000 0.863465 -0.097291 0.000000 0.884021 -0.091923 0.000000 0.909871 -0.085662 0.000000 0.927320 -0.079930 0.000000 0.950330 -0.073376 0.000000 0.964519 -0.067236 0.000000 0.984478 -0.060354 0.000000 0.995235 -0.053770 0.000000 1.011912 -0.046534 0.000000 1.019051 -0.039486 0.000000 1.032202 -0.031883 0.000000 1.035528 -0.024366 0.000000 1.044906 -0.016401 0.000000 1.044228 -0.008429 0.000000 1.049592 -0.000125 0.000000 1.044728 0.008271 0.000000 1.045854 0.016873 0.000000 1.036645 0.025644 0.000000 1.033334 0.034484 0.000000 1.019651 0.043562 0.000000 1.011740 0.052565 0.000000 0.993495 0.061871 0.000000 0.980864 0.070947 0.000000 0.958014 0.080389 0.000000 0.940591 0.089436 0.000000 0.913147 0.098917 0.000000 0.890910 0.107826 0.000000 0.858940 0.117241 0.000000 0.831921 0.125897 0.000000 0.795552 0.135141 0.000000 0.763838 0.143428 0.000000 0.723254 0.152394 0.000000 0.686986 0.160195 0.000000 0.642432 0.168775 0.000000 0.601802 0.175974 0.000000 0.553580 0.184061 0.000000 0.508837 0.190544 0.000000 0.457305 0.198026 0.000000 0.408750 0.203680 0.000000 0.354322 0.210445 0.000000 0.302313 0.215158 0.000000 0.245458 0.221088 0.000000 0.190410 0.224751 0.000000 0.131654 0.229722 0.000000 0.074045 0.232226 0.000000 0.013966 0.236114 0.000000 -0.045663 0.237354 0.000000 -0.106431 0.240029 0.000000 -0.167472 0.239906 0.000000 -0.228243 0.241242 0.000000 -0.290020 0.239665 0.000000 -0.350061 0.239544 0.000000 -0.411837 0.236438 0.000000 -0.470370 0.234756 0.000000 -0.531351 0.230064 0.000000 -0.587567 0.226738 0.000000 -0.646911 0.220431 0.000000 -0.699980 0.215408 0.000000 -0.756815 0.207489 0.000000 -0.805906 0.200753 0.000000 -0.859348 0.191265 0.000000 -0.903647 0.182842 0.000000 -0.952820 0.171872 0.000000 -0.991555 0.161837 0.000000 -1.035621 0.149520 0.000000 -1.068085 0.137999 0.000000 -1.106267 0.124515 0.000000 -1.131847 0.111686 0.000000 -1.163461 0.097261 0.000000 -1.181658 0.083349 0.000000 -1.206134 0.068251 0.000000 -1.216590 0.053524 0.000000 -1.233498 0.038052 0.000000 -1.236011 0.022810 0.000000 -1.245080 0.007285 0.000000 -1.239615 -0.008147 0.000000 -1.240744 -0.023395 0.000000 -1.227443 -0.038682 0.000000 -1.220707 -0.053329 0.000000 -1.199882 -0.068141 0.000000 -1.185533 -0.081879 0.000000 -1.157657 -0.095905 0.000000 -1.136110 -0.108463 0.000000 -1.101803 -0.121423 0.000000 -1.073620 -0.132573 0.000000 -1.033620 -0.144234 0.000000 -0.999488 -0.153804 0.000000 -0.954624 -0.163987 0.000000 -0.915322 -0.171866 0.000000 -0.866480 -0.180452 0.000000 -0.822850 -0.186593 0.000000 -0.770937 -0.193529 0.000000 -0.723846 -0.197946 0.000000 -0.669760 -0.203239 0.000000 -0.620066 -0.206003 0.000000 -0.564663 -0.209717 0.000000 -0.513188 -0.210943 0.000000 -0.457260 -0.213190 0.000000 -0.404762 -0.213033 0.000000 -0.349017 -0.213958 0.000000 -0.296171 -0.212592 0.000000 -0.241220 -0.212366 0.000000 -0.188611 -0.209979 0.000000 -0.134966 -0.208780 0.000000 -0.083078 -0.205560 0.000000 -0.031150 -0.203564 0.000000 0.019625 -0.199687 0.000000 0.069518 -0.197061 0.000000 0.118879 -0.192686 0.000000 0.166501 -0.189576 0.000000 0.214221 -0.184839 0.000000 0.259408 -0.181368 0.000000 0.305325 -0.176378 0.000000 0.347967 -0.172640 0.000000 0.391966 -0.167480 0.000000 0.431995 -0.163542 0.000000 0.473995 -0.158266 0.000000 0.511367 -0.154167 0.000000 0.551305 -0.148805 0.000000 0.585992 -0.144560 0.000000 0.623809 -0.139119 0.000000 0.655782 -0.134721 0.000000 
0.696892 -0.161752 0.000000 0.726126 -0.156044 0.000000 0.759620 -0.148987 0.000000 0.786075 -0.143012 0.000000 0.817231 -0.135758 0.000000 0.840836 -0.129456 0.000000 0.869528 -0.121948 0.000000 0.890184 -0.115252 0.000000 0.916254 -0.107429 0.000000 0.933834 -0.100275 0.000000 0.957092 -0.092083 0.000000 0.971441 -0.084413 0.000000 0.991672 -0.075804 0.000000 1.002611 -0.067573 0.000000 1.019577 -0.058514 0.000000 1.026912 -0.049694 0.000000 1.040360 -0.040170 0.000000 1.043888 -0.030755 0.000000 1.053561 -0.020772 0.000000 1.053078 -0.010777 0.000000 1.058725 -0.000366 0.000000 1.054038 0.010168 0.000000 1.055425 0.020957 0.000000 1.046363 0.031966 0.000000 1.043283 0.043056 0.000000 1.029706 0.054455 0.000000 1.021987 0.065750 0.000000 1.003796 0.077437 0.000000 0.991310 0.088823 0.000000 0.968456 0.100682 0.000000 0.951126 0.112031 0.000000 0.923611 0.123937 0.000000 0.901412 0.135110 0.000000 0.869300 0.146932 0.000000 0.842261 0.157788 0.000000 0.805675 0.169391 0.000000 0.773881 0.179783 0.000000 0.733005 0.191035 0.000000 0.696595 0.200817 0.000000 0.651673 0.211584 0.000000 0.610837 0.220613 0.000000 0.562172 0.230759 0.000000 0.517155 0.238894 0.000000 0.465108 0.248282 0.000000 0.416207 0.255383 0.000000 0.361194 0.263873 0.000000 0.308763 0.269802 0.000000 0.251256 0.277247 0.000000 0.195706 0.281868 0.000000 0.136233 0.288115 0.000000 0.078040 0.291291 0.000000 0.017184 0.296182 0.000000 -0.043112 0.297783 0.000000 -0.104712 0.301156 0.000000 -0.166502 0.301054 0.000000 -0.228153 0.302752 0.000000 -0.290758 0.300831 0.000000 -0.351715 0.300702 0.000000 -0.414389 0.296865 0.000000 -0.473862 0.294776 0.000000 -0.535798 0.288948 0.000000 -0.592960 0.284793 0.000000 -0.653299 0.276933 0.000000 -0.707302 0.270643 0.000000 -0.765149 0.260753 0.000000 -0.815138 0.252304 0.000000 -0.869583 0.240433 0.000000 -0.914719 0.229857 0.000000 -0.964859 0.216113 0.000000 -1.004342 0.203501 0.000000 -1.049307 0.188051 0.000000 -1.082405 0.173562 0.000000 -1.121390 0.156631 0.000000 -1.147462 0.140488 0.000000 -1.179752 0.122362 0.000000 -1.198280 0.104848 0.000000 -1.223280 0.085864 0.000000 -1.233886 0.067318 0.000000 -1.251147 0.047854 0.000000 -1.253617 0.028656 0.000000 -1.262853 0.009120 0.000000 -1.257150 -0.010318 0.000000 -1.258254 -0.029510 0.000000 -1.244522 -0.048764 0.000000 -1.237571 -0.067199 0.000000 -1.216135 -0.085850 0.000000 -1.201390 -0.103139 0.000000 -1.172747 -0.120792 0.000000 -1.150641 -0.136590 0.000000 -1.115436 -0.152891 0.000000 -1.086558 -0.166910 0.000000 -1.045564 -0.181562 0.000000 -1.010632 -0.193585 0.000000 -0.964715 -0.206361 0.000000 -0.924544 -0.216247 0.000000 -0.874629 -0.226999 0.000000 -0.830097 -0.234691 0.000000 -0.777128 -0.243352 0.000000 -0.729136 -0.248868 0.000000 -0.674045 -0.255450 0.000000 -0.623486 -0.258882 0.000000 -0.567159 -0.263470 0.000000 -0.514880 -0.264967 0.000000 -0.458129 -0.267703 0.000000 -0.404908 -0.267460 0.000000 -0.348454 -0.268535 0.000000 -0.294981 -0.266777 0.000000 -0.239443 -0.266406 0.000000 -0.186305 -0.263370 0.000000 -0.132192 -0.261784 0.000000 -0.079874 -0.257708 0.000000 -0.027592 -0.255131 0.000000 0.023521 -0.250239 0.000000 0.073667 -0.246883 0.000000 0.123285 -0.241376 0.000000 0.171073 -0.237426 0.000000 0.218985 -0.231474 0.000000 0.264268 -0.227084 0.000000 0.310325 -0.220824 0.000000 0.353011 -0.216114 0.000000 0.397115 -0.209650 0.000000 0.437152 -0.204702 0.000000 0.479237 -0.198100 0.000000 0.516599 -0.192963 0.000000 0.556616 -0.186260 0.000000 0.591288 -0.180951 0.000000 0.629191 -0.174153 0.000000 0.661158 -0.168661 0.000000 
0.704032 -0.194156 0.000000 0.733403 -0.187341 0.000000 0.767036 -0.178909 0.000000 0.793652 -0.171780 0.000000 0.824979 -0.163120 0.000000 0.848772 -0.155601 0.000000 0.877669 -0.146640 0.000000 0.898540 -0.138649 0.000000 0.924849 -0.129311 0.000000 0.942667 -0.120768 0.000000 0.966193 -0.110983 0.000000 0.980799 -0.101815 0.000000 1.001319 -0.091524 0.000000 1.012526 -0.081675 0.000000 1.029791 -0.070835 0.000000 1.037395 -0.060269 0.000000 1.051141 -0.048858 0.000000 1.054927 -0.037567 0.000000 1.064884 -0.025591 0.000000 1.064636 -0.013593 0.000000 1.070538 -0.001086 0.000000 1.066052 0.011571 0.000000 1.067652 0.024548 0.000000 1.058745 0.037786 0.000000 1.055824 0.051141 0.000000 1.042347 0.064859 0.000000 1.034724 0.078476 0.000000 1.016570 0.092548 0.000000 1.004111 0.106288 0.000000 0.981224 0.120574 0.000000 0.963846 0.134281 0.000000 0.936228 0.148631 0.000000 0.913906 0.162137 0.000000 0.881619 0.176391 0.000000 0.854382 0.189522 0.000000 0.817548 0.203520 0.000000 0.785483 0.216098 0.000000 0.744289 0.229680 0.000000 0.707535 0.241527 0.000000 0.662227 0.254533 0.000000 0.620977 0.265475 0.000000 0.571859 0.277743 0.000000 0.526359 0.287608 0.000000 0.473792 0.298974 0.000000 0.424338 0.307594 0.000000 0.368738 0.317889 0.000000 0.315683 0.325096 0.000000 0.257519 0.334144 0.000000 0.201273 0.339773 0.000000 0.141072 0.347388 0.000000 0.082106 0.351276 0.000000 0.020450 0.357266 0.000000 -0.040697 0.359250 0.000000 -0.103168 0.363419 0.000000 -0.165885 0.363347 0.000000 -0.228475 0.365498 0.000000 -0.292079 0.363227 0.000000 -0.354036 0.363175 0.000000 -0.417773 0.358585 0.000000 -0.478296 0.356165 0.000000 -0.541344 0.349162 0.000000 -0.599590 0.344239 0.000000 -0.661071 0.334772 0.000000 -0.716170 0.327258 0.000000 -0.775165 0.315325 0.000000 -0.826235 0.305187 0.000000 -0.881804 0.290846 0.000000 -0.927976 0.278117 0.000000 -0.979185 0.261495 0.000000 -1.019625 0.246286 0.000000 -1.065569 0.227583 0.000000 -1.099512 0.210082 0.000000 -1.139351 0.189572 0.000000 -1.166124 0.170048 0.000000 -1.199110 0.148079 0.000000 -1.218163 0.126877 0.000000 -1.243674 0.103858 0.000000 -1.254608 0.081390 0.000000 -1.272169 0.057783 0.000000 -1.274753 0.034516 0.000000 -1.284065 0.010817 0.000000 -1.278253 -0.012747 0.000000 -1.279200 -0.036024 0.000000 -1.265139 -0.059365 0.000000 -1.257803 -0.081715 0.000000 -1.235830 -0.104321 0.000000 -1.220485 -0.125268 0.000000 -1.191116 -0.146654 0.000000 -1.168218 -0.165773 0.000000 -1.132131 -0.185506 0.000000 -1.102299 -0.202445 0.000000 -1.060302 -0.220160 0.000000 -1.024294 -0.234653 0.000000 -0.977294 -0.250075 0.000000 -0.935968 -0.261952 0.000000 -0.884930 -0.274900 0.000000 -0.839209 -0.284094 0.000000 -0.785120 -0.294489 0.000000 -0.735949 -0.301028 0.000000 -0.679778 -0.308889 0.000000 -0.628089 -0.312889 0.000000 -0.570751 -0.318324 0.000000 -0.517424 -0.319974 0.000000 -0.459756 -0.323162 0.000000 -0.405595 -0.322707 0.000000 -0.348334 -0.323886 0.000000 -0.294043 -0.321604 0.000000 -0.237815 -0.321042 0.000000 -0.183989 -0.317230 0.000000 -0.129303 -0.315210 0.000000 -0.076426 -0.310159 0.000000 -0.023681 -0.306960 0.000000 0.027874 -0.300946 0.000000 0.078383 -0.296825 0.000000 0.128337 -0.290093 0.000000 0.176404 -0.285276 0.000000 0.224564 -0.278034 0.000000 0.270059 -0.272708 0.000000 0.316296 -0.265121 0.000000 0.359144 -0.259430 0.000000 0.403380 -0.251622 0.000000 0.443546 -0.245664 0.000000 0.485734 -0.237713 0.000000 0.523210 -0.231546 0.000000 0.563318 -0.223494 0.000000 0.598101 -0.217136 0.000000 0.636099 -0.208988 0.000000 0.668185 -0.202422 0.000000 
0.711975 -0.226970 0.000000 0.741375 -0.219047 0.000000 0.775181 -0.209235 0.000000 0.801866 -0.200955 0.000000 0.833411 -0.190878 0.000000 0.857318 -0.182147 0.000000 0.886481 -0.171716 0.000000 0.907514 -0.162431 0.000000 0.934136 -0.151556 0.000000 0.952163 -0.141620 0.000000 0.976045 -0.130215 0.000000 0.990901 -0.119539 0.000000 1.011812 -0.107531 0.000000 1.023302 -0.096045 0.000000 1.040983 -0.083383 0.000000 1.048889 -0.071044 0.000000 1.063062 -0.057702 0.000000 1.067156 -0.044497 0.000000 1.077535 -0.030481 0.000000 1.077585 -0.016432 0.000000 1.083890 -0.001782 0.000000 1.079673 0.013054 0.000000 1.081641 0.028264 0.000000 1.072958 0.043794 0.000000 1.070357 0.059454 0.000000 1.057042 0.075555 0.000000 1.049677 0.091527 0.000000 1.031610 0.108051 0.000000 1.019339 0.124169 0.000000 0.996451 0.140946 0.000000 0.979184 0.157026 0.000000 0.951468 0.173877 0.000000 0.929174 0.189720 0.000000 0.896687 0.206456 0.000000 0.869392 0.221858 0.000000 0.832253 0.238290 0.000000 0.800043 0.253042 0.000000 0.758436 0.268983 0.000000 0.721448 0.282880 0.000000 0.675621 0.298141 0.000000 0.634046 0.310981 0.000000 0.584304 0.325377 0.000000 0.538384 0.336961 0.000000 0.485091 0.350303 0.000000 0.435118 0.360437 0.000000 0.378692 0.372529 0.000000 0.325013 0.381021 0.000000 0.265926 0.391657 0.000000 0.208944 0.398315 0.000000 0.147728 0.407282 0.000000 0.087910 0.411913 0.000000 0.025150 0.418985 0.000000 -0.036969 0.421400 0.000000 -0.100626 0.426344 0.000000 -0.164434 0.426361 0.000000 -0.228284 0.428946 0.000000 -0.293092 0.426393 0.000000 -0.356369 0.426396 0.000000 -0.421413 0.421125 0.000000 -0.483297 0.418347 0.000000 -0.547736 0.410242 0.000000 -0.607362 0.404520 0.000000 -0.670293 0.393513 0.000000 -0.726761 0.384737 0.000000 -0.787234 0.370818 0.000000 -0.839629 0.358943 0.000000 -0.896666 0.342174 0.000000 -0.944081 0.327237 0.000000 -0.996703 0.307762 0.000000 -1.038265 0.289886 0.000000 -1.085524 0.267938 0.000000 -1.120426 0.247344 0.000000 -1.161436 0.223243 0.000000 -1.188966 0.200247 0.000000 -1.222936 0.174402 0.000000 -1.242511 0.149412 0.000000 -1.268779 0.122309 0.000000 -1.279970 0.095813 0.000000 -1.298034 0.067999 0.000000 -1.300592 0.040552 0.000000 -1.310128 0.012619 0.000000 -1.304000 -0.015183 0.000000 -1.304885 -0.042624 0.000000 -1.290223 -0.070161 0.000000 -1.282539 -0.096508 0.000000 -1.259698 -0.123168 0.000000 -1.243735 -0.147853 0.000000 -1.213262 -0.173059 0.000000 -1.189504 -0.195576 0.000000 -1.152117 -0.218809 0.000000 -1.121223 -0.238738 0.000000 -1.077782 -0.259567 0.000000 -1.040557 -0.276593 0.000000 -0.992023 -0.294687 0.000000 -0.949379 -0.308611 0.000000 -0.896779 -0.323758 0.000000 -0.849693 -0.334501 0.000000 -0.794068 -0.346611 0.000000 -0.743542 -0.354211 0.000000 -0.685912 -0.363311 0.000000 -0.632926 -0.367910 0.000000 -0.574248 -0.374134 0.000000 -0.519723 -0.375961 0.000000 -0.460865 -0.379532 0.000000 -0.405634 -0.378882 0.000000 -0.347354 -0.380086 0.000000 -0.292139 -0.377296 0.000000 -0.235069 -0.376460 0.000000 -0.180473 -0.371882 0.000000 -0.125122 -0.369347 0.000000 -0.071625 -0.363331 0.000000 -0.018378 -0.359431 0.000000 0.033657 -0.352303 0.000000 0.084521 -0.347346 0.000000 0.134835 -0.339397 0.000000 0.183134 -0.333653 0.000000 0.231554 -0.325128 0.000000 0.277182 -0.318816 0.000000 0.323604 -0.309909 0.000000 0.366513 -0.303198 0.000000 0.410882 -0.294052 0.000000 0.451062 -0.287057 0.000000 0.493356 -0.277763 0.000000 0.530821 -0.270547 0.000000 0.571028 -0.261151 0.000000 0.605797 -0.253732 0.000000 0.643905 -0.244237 0.000000 0.675992 -0.236594 0.000000 