# vtk DataFile Version 2.0
Comment goes here
ASCII

DATASET STRUCTURED_POINTS
FIELD FieldData 1
TIME 1 1 double
0.12500000
DIMENSIONS    128   128   1

ORIGIN    0.000   0.000   0.000
SPACING   0.039062 0.039062   1.000

POINT_DATA   16384
VECTORS u double

-0.205619 0.000000 0.000000 -0.168739 0.000000 0.000000 -0.133900 0.000000 0.000000 -0.096906 0.000000 0.000000 -0.061862 0.000000 0.000000 -0.025129 0.000000 0.000000 0.009782 0.000000 0.000000 0.045907 0.000000 0.000000 0.080368 0.000000 0.000000 0.115563 0.000000 0.000000 0.149281 0.000000 0.000000 0.183252 0.000000 0.000000 0.215956 0.000000 0.000000 0.248433 0.000000 0.000000 0.279870 0.000000 0.000000 0.310607 0.000000 0.000000 0.340546 0.000000 0.000000 0.369319 0.000000 0.000000 0.397544 0.000000 0.000000 0.424151 0.000000 0.000000 0.450464 0.000000 0.000000 0.474724 0.000000 0.000000 0.498944 0.000000 0.000000 0.520694 0.000000 0.000000 0.542658 0.000000 0.000000 0.561755 0.000000 0.000000 0.581315 0.000000 0.000000 0.597636 0.000000 0.000000 0.614661 0.000000 0.000000 0.628101 0.000000 0.000000 0.642475 0.000000 0.000000 0.652950 0.000000 0.000000 0.664573 0.000000 0.000000 0.672017 0.000000 0.000000 0.680806 0.000000 0.000000 0.685173 0.000000 0.000000 0.691059 0.000000 0.000000 0.692323 0.000000 0.000000 0.695257 0.000000 0.000000 0.693413 0.000000 0.000000 0.693359 0.000000 0.000000 0.688424 0.000000 0.000000 0.685368 0.000000 0.000000 0.677381 0.000000 0.000000 0.671329 0.000000 0.000000 0.660352 0.000000 0.000000 0.651329 0.000000 0.000000 0.637451 0.000000 0.000000 0.625507 0.000000 0.000000 0.608839 0.000000 0.000000 0.594048 0.000000 0.000000 0.574727 0.000000 0.000000 0.557190 0.000000 0.000000 0.535375 0.000000 0.000000 0.515219 0.000000 0.000000 0.491090 0.000000 0.000000 0.468468 0.000000 0.000000 0.442227 0.000000 0.000000 0.417317 0.000000 0.000000 0.389182 0.000000 0.000000 0.362188 0.000000 0.000000 0.332390 0.000000 0.000000 0.303535 0.000000 0.000000 0.272318 0.000000 0.000000 0.241846 0.000000 0.000000 0.209460 0.000000 0.000000 0.177632 0.000000 0.000000 0.144334 0.000000 0.000000 0.111421 0.000000 0.000000 0.077473 0.000000 0.000000 0.043759 0.000000 0.000000 0.009425 0.000000 0.000000 -0.024798 0.000000 0.000000 -0.059252 0.000000 0.000000 -0.093687 0.000000 0.000000 -0.127989 0.000000 0.000000 -0.162333 0.000000 0.000000 -0.196207 0.000000 0.000000 -0.230152 0.000000 0.000000 -0.263314 0.000000 0.000000 -0.296550 0.000000 0.000000 -0.328706 0.000000 0.000000 -0.360915 0.000000 0.000000 -0.391762 0.000000 0.000000 -0.422621 0.000000 0.000000 -0.451841 0.000000 0.000000 -0.481023 0.000000 0.000000 -0.508290 0.000000 0.000000 -0.535463 0.000000 0.000000 -0.560437 0.000000 0.000000 -0.585268 0.000000 0.000000 -0.607606 0.000000 0.000000 -0.629766 0.000000 0.000000 -0.649128 0.000000 0.000000 -0.668295 0.000000 0.000000 -0.684352 0.000000 0.000000 -0.700226 0.000000 0.000000 -0.712672 0.000000 0.000000 -0.724979 0.000000 0.000000 -0.733548 0.000000 0.000000 -0.742055 0.000000 0.000000 -0.746528 0.000000 0.000000 -0.751055 0.000000 0.000000 -0.751279 0.000000 0.000000 -0.751707 0.000000 0.000000 -0.747603 0.000000 0.000000 -0.743884 0.000000 0.000000 -0.735454 0.000000 0.000000 -0.727616 0.000000 0.000000 -0.714946 0.000000 0.000000 -0.703092 0.000000 0.000000 -0.686354 0.000000 0.000000 -0.670663 0.000000 0.000000 -0.650103 0.000000 0.000000 -0.630820 0.000000 0.000000 -0.606754 -0.000000 0.000000 -0.584181 -0.000000 0.000000 -0.556981 -0.000000 0.000000 -0.531467 -0.000000 0.000000 -0.501544 -0.000000 0.000000 -0.473470 -0.000000 0.000000 -0.441262 -0.000000 0.000000 -0.411029 -0.000000 0.000000 -0.376987 -0.000000 0.000000 -0.345004 -0.000000 0.000000 -0.309581 -0.000000 0.000000 -0.276255 -0.000000 0.000000 -0.239891 -0.000000 0.000000 
-0.205116 -0.035576 0.000000 -0.168194 -0.035859 0.000000 -0.133369 -0.035916 0.000000 -0.096335 -0.036019 0.000000 -0.061305 -0.035889 0.000000 -0.024534 -0.035822 0.000000 0.010362 -0.035518 0.000000 0.046523 -0.035293 0.000000 0.080971 -0.034828 0.000000 0.116200 -0.034457 0.000000 0.149906 -0.033845 0.000000 0.183908 -0.033337 0.000000 0.216600 -0.032590 0.000000 0.249106 -0.031957 0.000000 0.280533 -0.031087 0.000000 0.311297 -0.030338 0.000000 0.341225 -0.029356 0.000000 0.370022 -0.028499 0.000000 0.398237 -0.027416 0.000000 0.424866 -0.026460 0.000000 0.451169 -0.025286 0.000000 0.475446 -0.024240 0.000000 0.499656 -0.022985 0.000000 0.521420 -0.021857 0.000000 0.543373 -0.020531 0.000000 0.562480 -0.019329 0.000000 0.582027 -0.017941 0.000000 0.598355 -0.016673 0.000000 0.615363 -0.015233 0.000000 0.628807 -0.013907 0.000000 0.643161 -0.012424 0.000000 0.653637 -0.011049 0.000000 0.665236 -0.009534 0.000000 0.672678 -0.008116 0.000000 0.681438 -0.006578 0.000000 0.685801 -0.005127 0.000000 0.691655 -0.003575 0.000000 0.692912 -0.002099 0.000000 0.695808 -0.000545 0.000000 0.693955 0.000949 0.000000 0.693859 0.002494 0.000000 0.688913 0.003995 0.000000 0.685810 0.005521 0.000000 0.677810 0.007020 0.000000 0.671705 0.008514 0.000000 0.660714 0.010000 0.000000 0.651634 0.011451 0.000000 0.637740 0.012911 0.000000 0.625735 0.014306 0.000000 0.609048 0.015729 0.000000 0.594193 0.017056 0.000000 0.574851 0.018429 0.000000 0.557246 0.019676 0.000000 0.535408 0.020986 0.000000 0.515182 0.022142 0.000000 0.491028 0.023375 0.000000 0.468334 0.024432 0.000000 0.442066 0.025575 0.000000 0.417085 0.026522 0.000000 0.388919 0.027565 0.000000 0.361856 0.028396 0.000000 0.332025 0.029326 0.000000 0.303104 0.030036 0.000000 0.271851 0.030844 0.000000 0.241318 0.031429 0.000000 0.208894 0.032107 0.000000 0.177010 0.032563 0.000000 0.143673 0.033105 0.000000 0.110713 0.033431 0.000000 0.076724 0.033831 0.000000 0.042973 0.034024 0.000000 0.008596 0.034279 0.000000 -0.025654 0.034338 0.000000 -0.060151 0.034444 0.000000 -0.094600 0.034368 0.000000 -0.128945 0.034323 0.000000 -0.163290 0.034109 0.000000 -0.197206 0.033910 0.000000 -0.231139 0.033554 0.000000 -0.264343 0.033199 0.000000 -0.297551 0.032696 0.000000 -0.329748 0.032182 0.000000 -0.361916 0.031528 0.000000 -0.392802 0.030853 0.000000 -0.423608 0.030040 0.000000 -0.452865 0.029201 0.000000 -0.481981 0.028224 0.000000 -0.509281 0.027220 0.000000 -0.536379 0.026073 0.000000 -0.561382 0.024903 0.000000 -0.586129 0.023585 0.000000 -0.608493 0.022249 0.000000 -0.630562 0.020761 0.000000 -0.649944 0.019265 0.000000 -0.669018 0.017612 0.000000 -0.685089 0.015965 0.000000 -0.700867 0.014160 0.000000 -0.713322 0.012377 0.000000 -0.725533 0.010438 0.000000 -0.734103 0.008538 0.000000 -0.742518 0.006490 0.000000 -0.746986 0.004500 0.000000 -0.751425 0.002376 0.000000 -0.751637 0.000326 0.000000 -0.751983 -0.001838 0.000000 -0.747859 -0.003912 0.000000 -0.744067 -0.006075 0.000000 -0.735610 -0.008134 0.000000 -0.727707 -0.010254 0.000000 -0.715006 -0.012262 0.000000 -0.703097 -0.014296 0.000000 -0.686321 -0.016215 0.000000 -0.670585 -0.018125 0.000000 -0.649984 -0.019922 0.000000 -0.630666 -0.021674 0.000000 -0.606556 -0.023319 0.000000 -0.583958 -0.024887 0.000000 -0.556711 -0.026357 0.000000 -0.531181 -0.027719 0.000000 -0.501210 -0.028999 0.000000 -0.473128 -0.030141 0.000000 -0.440872 -0.031221 0.000000 -0.410638 -0.032137 0.000000 -0.376550 -0.033012 0.000000 -0.344571 -0.033703 0.000000 -0.309102 -0.034375 0.000000 -0.275785 -0.034845 0.000000 -0.239377 -0.035318 0.000000 
-0.206160 -0.071183 0.000000 -0.169079 -0.071747 0.000000 -0.134061 -0.071859 0.000000 -0.096878 -0.072064 0.000000 -0.061666 -0.071801 0.000000 -0.024758 -0.071668 0.000000 0.010310 -0.071057 0.000000 0.046596 -0.070608 0.000000 0.081203 -0.069676 0.000000 0.116546 -0.068935 0.000000 0.150400 -0.067708 0.000000 0.184506 -0.066695 0.000000 0.217336 -0.065198 0.000000 0.249935 -0.063933 0.000000 0.281490 -0.062191 0.000000 0.312338 -0.060692 0.000000 0.342384 -0.058726 0.000000 0.371259 -0.057012 0.000000 0.399582 -0.054843 0.000000 0.426280 -0.052932 0.000000 0.452683 -0.050580 0.000000 0.477024 -0.048487 0.000000 0.501327 -0.045974 0.000000 0.523148 -0.043716 0.000000 0.545186 -0.041060 0.000000 0.564345 -0.038654 0.000000 0.583971 -0.035874 0.000000 0.600344 -0.033336 0.000000 0.617426 -0.030452 0.000000 0.630909 -0.027798 0.000000 0.645333 -0.024830 0.000000 0.655840 -0.022075 0.000000 0.667505 -0.019041 0.000000 0.674972 -0.016203 0.000000 0.683795 -0.013123 0.000000 0.688175 -0.010216 0.000000 0.694087 -0.007111 0.000000 0.695353 -0.004153 0.000000 0.698303 -0.001043 0.000000 0.696451 0.001949 0.000000 0.696405 0.005042 0.000000 0.691450 0.008049 0.000000 0.688392 0.011103 0.000000 0.680373 0.014105 0.000000 0.674307 0.017096 0.000000 0.663287 0.020071 0.000000 0.654239 0.022974 0.000000 0.640305 0.025900 0.000000 0.628324 0.028691 0.000000 0.611588 0.031542 0.000000 0.596747 0.034197 0.000000 0.577345 0.036947 0.000000 0.559745 0.039443 0.000000 0.537839 0.042065 0.000000 0.517606 0.044380 0.000000 0.493377 0.046847 0.000000 0.470665 0.048962 0.000000 0.444315 0.051249 0.000000 0.419304 0.053146 0.000000 0.391053 0.055229 0.000000 0.363947 0.056895 0.000000 0.334027 0.058752 0.000000 0.305051 0.060174 0.000000 0.273708 0.061786 0.000000 0.243107 0.062957 0.000000 0.210592 0.064308 0.000000 0.178627 0.065221 0.000000 0.145199 0.066297 0.000000 0.112144 0.066949 0.000000 0.078064 0.067741 0.000000 0.044205 0.068128 0.000000 0.009736 0.068626 0.000000 -0.024636 0.068746 0.000000 -0.059225 0.068946 0.000000 -0.093811 0.068794 0.000000 -0.128252 0.068690 0.000000 -0.162749 0.068261 0.000000 -0.196765 0.067849 0.000000 -0.230866 0.067136 0.000000 -0.264175 0.066412 0.000000 -0.297569 0.065406 0.000000 -0.329878 0.064365 0.000000 -0.362247 0.063054 0.000000 -0.393252 0.061691 0.000000 -0.424275 0.060063 0.000000 -0.453660 0.058374 0.000000 -0.483008 0.056416 0.000000 -0.510443 0.054397 0.000000 -0.537783 0.052101 0.000000 -0.562928 0.049751 0.000000 -0.587925 0.047111 0.000000 -0.610433 0.044433 0.000000 -0.632753 0.041452 0.000000 -0.652279 0.038455 0.000000 -0.671598 0.035145 0.000000 -0.687807 0.031849 0.000000 -0.703817 0.028233 0.000000 -0.716397 0.024666 0.000000 -0.728820 0.020782 0.000000 -0.737497 0.016985 0.000000 -0.746095 0.012882 0.000000 -0.750645 0.008907 0.000000 -0.755231 0.004651 0.000000 -0.755495 0.000558 0.000000 -0.755947 -0.003777 0.000000 -0.751841 -0.007916 0.000000 -0.748109 -0.012249 0.000000 -0.739635 -0.016360 0.000000 -0.731744 -0.020605 0.000000 -0.718990 -0.024610 0.000000 -0.707047 -0.028685 0.000000 -0.690184 -0.032512 0.000000 -0.674371 -0.036337 0.000000 -0.653653 -0.039919 0.000000 -0.634218 -0.043428 0.000000 -0.609967 -0.046708 0.000000 -0.587220 -0.049845 0.000000 -0.559814 -0.052777 0.000000 -0.534109 -0.055501 0.000000 -0.503967 -0.058053 0.000000 -0.475692 -0.060338 0.000000 -0.443259 -0.062490 0.000000 -0.412821 -0.064323 0.000000 -0.378554 -0.066067 0.000000 -0.346367 -0.067448 0.000000 -0.310723 -0.068786 0.000000 -0.277198 -0.069725 0.000000 -0.240623 -0.070669 0.000000 
-0.206195 -0.107120 0.000000 -0.168872 -0.107958 0.000000 -0.133687 -0.108117 0.000000 -0.096277 -0.108414 0.000000 -0.060910 -0.108009 0.000000 -0.023790 -0.107798 0.000000 0.011421 -0.106871 0.000000 0.047903 -0.106186 0.000000 0.082643 -0.104778 0.000000 0.118167 -0.103654 0.000000 0.152145 -0.101805 0.000000 0.186416 -0.100273 0.000000 0.219361 -0.098020 0.000000 0.252113 -0.096111 0.000000 0.283773 -0.093490 0.000000 0.314760 -0.091232 0.000000 0.344904 -0.088276 0.000000 0.373904 -0.085697 0.000000 0.402317 -0.082438 0.000000 0.429128 -0.079562 0.000000 0.455612 -0.076030 0.000000 0.480052 -0.072884 0.000000 0.504427 -0.069109 0.000000 0.526333 -0.065716 0.000000 0.548434 -0.061727 0.000000 0.567665 -0.058113 0.000000 0.587343 -0.053939 0.000000 0.603776 -0.050128 0.000000 0.620900 -0.045798 0.000000 0.634429 -0.041813 0.000000 0.648883 -0.037356 0.000000 0.659424 -0.033222 0.000000 0.671108 -0.028665 0.000000 0.678596 -0.024406 0.000000 0.687424 -0.019780 0.000000 0.691812 -0.015419 0.000000 0.697717 -0.010754 0.000000 0.698979 -0.006315 0.000000 0.701909 -0.001643 0.000000 0.700039 0.002847 0.000000 0.699958 0.007495 0.000000 0.694972 0.012008 0.000000 0.691864 0.016598 0.000000 0.683801 0.021105 0.000000 0.677669 0.025600 0.000000 0.666591 0.030068 0.000000 0.657461 0.034433 0.000000 0.643454 0.038827 0.000000 0.631374 0.043023 0.000000 0.614551 0.047306 0.000000 0.599594 0.051298 0.000000 0.580093 0.055431 0.000000 0.562360 0.059183 0.000000 0.540340 0.063125 0.000000 0.519960 0.066604 0.000000 0.495605 0.070316 0.000000 0.472732 0.073493 0.000000 0.446245 0.076936 0.000000 0.421060 0.079785 0.000000 0.392663 0.082923 0.000000 0.365373 0.085422 0.000000 0.335299 0.088222 0.000000 0.306133 0.090356 0.000000 0.274629 0.092789 0.000000 0.243834 0.094545 0.000000 0.211153 0.096587 0.000000 0.178995 0.097956 0.000000 0.145396 0.099588 0.000000 0.112151 0.100565 0.000000 0.077897 0.101771 0.000000 0.043853 0.102352 0.000000 0.009208 0.103119 0.000000 -0.025340 0.103300 0.000000 -0.060109 0.103620 0.000000 -0.094861 0.103395 0.000000 -0.129483 0.103261 0.000000 -0.164136 0.102622 0.000000 -0.198337 0.102027 0.000000 -0.232582 0.100964 0.000000 -0.266079 0.099901 0.000000 -0.299605 0.098399 0.000000 -0.332107 0.096861 0.000000 -0.364597 0.094903 0.000000 -0.395799 0.092881 0.000000 -0.426931 0.090448 0.000000 -0.456517 0.087934 0.000000 -0.485964 0.085007 0.000000 -0.513602 0.081995 0.000000 -0.541031 0.078558 0.000000 -0.566378 0.075044 0.000000 -0.591453 0.071090 0.000000 -0.614158 0.067077 0.000000 -0.636545 0.062607 0.000000 -0.656257 0.058109 0.000000 -0.675629 0.053140 0.000000 -0.692006 0.048184 0.000000 -0.708055 0.042751 0.000000 -0.720778 0.037380 0.000000 -0.733220 0.031538 0.000000 -0.742007 0.025812 0.000000 -0.750600 0.019638 0.000000 -0.755222 0.013636 0.000000 -0.759778 0.007226 0.000000 -0.760068 0.001042 0.000000 -0.760461 -0.005491 0.000000 -0.756335 -0.011750 0.000000 -0.752514 -0.018281 0.000000 -0.743969 -0.024499 0.000000 -0.735962 -0.030899 0.000000 -0.723088 -0.036959 0.000000 -0.711001 -0.043101 0.000000 -0.693976 -0.048891 0.000000 -0.677995 -0.054657 0.000000 -0.657077 -0.060074 0.000000 -0.637457 -0.065360 0.000000 -0.612974 -0.070317 0.000000 -0.590029 -0.075040 0.000000 -0.562369 -0.079468 0.000000 -0.536459 -0.083566 0.000000 -0.506048 -0.087416 0.000000 -0.477566 -0.090849 0.000000 -0.444859 -0.094092 0.000000 -0.414217 -0.096842 0.000000 -0.379677 -0.099466 0.000000 -0.347292 -0.101534 0.000000 -0.311381 -0.103544 0.000000 -0.277668 -0.104945 0.000000 -0.240836 -0.106357 0.000000 
-0.207763 -0.143147 0.000000 -0.170078 -0.144255 0.000000 -0.134518 -0.144454 0.000000 -0.096772 -0.144841 0.000000 -0.061051 -0.144288 0.000000 -0.023621 -0.143999 0.000000 0.011921 -0.142750 0.000000 0.048687 -0.141831 0.000000 0.083735 -0.139940 0.000000 0.119518 -0.138436 0.000000 0.153780 -0.135958 0.000000 0.188289 -0.133911 0.000000 0.221496 -0.130895 0.000000 0.254464 -0.128345 0.000000 0.286367 -0.124838 0.000000 0.317550 -0.121823 0.000000 0.347918 -0.117870 0.000000 0.377096 -0.114425 0.000000 0.405715 -0.110067 0.000000 0.432686 -0.106227 0.000000 0.459360 -0.101505 0.000000 0.483944 -0.097302 0.000000 0.508493 -0.092256 0.000000 0.530528 -0.087724 0.000000 0.552787 -0.082392 0.000000 0.572131 -0.077563 0.000000 0.591954 -0.071985 0.000000 0.608484 -0.066892 0.000000 0.625739 -0.061106 0.000000 0.639350 -0.055781 0.000000 0.653923 -0.049825 0.000000 0.664529 -0.044300 0.000000 0.676320 -0.038212 0.000000 0.683856 -0.032519 0.000000 0.692780 -0.026339 0.000000 0.697200 -0.020510 0.000000 0.703188 -0.014278 0.000000 0.704463 -0.008345 0.000000 0.707464 -0.002103 0.000000 0.705587 0.003899 0.000000 0.705565 0.010109 0.000000 0.700551 0.016143 0.000000 0.697486 0.022274 0.000000 0.689373 0.028300 0.000000 0.683267 0.034306 0.000000 0.672116 0.040280 0.000000 0.662994 0.046111 0.000000 0.648892 0.051987 0.000000 0.636798 0.057594 0.000000 0.619858 0.063321 0.000000 0.604866 0.068656 0.000000 0.585224 0.074181 0.000000 0.567433 0.079196 0.000000 0.545254 0.084465 0.000000 0.524791 0.089115 0.000000 0.500258 0.094076 0.000000 0.477278 0.098322 0.000000 0.450600 0.102921 0.000000 0.425283 0.106729 0.000000 0.396683 0.110917 0.000000 0.369238 0.114258 0.000000 0.338953 0.117992 0.000000 0.309610 0.120844 0.000000 0.277889 0.124085 0.000000 0.246896 0.126432 0.000000 0.213995 0.129147 0.000000 0.181620 0.130978 0.000000 0.147799 0.133141 0.000000 0.114319 0.134448 0.000000 0.079842 0.136039 0.000000 0.045545 0.136817 0.000000 0.010676 0.137820 0.000000 -0.024143 0.138063 0.000000 -0.059139 0.138467 0.000000 -0.094179 0.138169 0.000000 -0.129033 0.137965 0.000000 -0.163992 0.137115 0.000000 -0.198432 0.136295 0.000000 -0.233002 0.134879 0.000000 -0.266749 0.133435 0.000000 -0.300618 0.131433 0.000000 -0.333383 0.129357 0.000000 -0.366236 0.126746 0.000000 -0.397717 0.124026 0.000000 -0.429231 0.120781 0.000000 -0.459110 0.117407 0.000000 -0.488957 0.113501 0.000000 -0.516901 0.109464 0.000000 -0.544743 0.104877 0.000000 -0.570406 0.100173 0.000000 -0.595901 0.094891 0.000000 -0.618925 0.089525 0.000000 -0.641730 0.083550 0.000000 -0.661754 0.077540 0.000000 -0.681531 0.070894 0.000000 -0.698204 0.064274 0.000000 -0.714629 0.057004 0.000000 -0.727618 0.049831 0.000000 -0.740396 0.042011 0.000000 -0.749404 0.034366 0.000000 -0.758278 0.026097 0.000000 -0.763063 0.018084 0.000000 -0.767832 0.009497 0.000000 -0.768217 0.001242 0.000000 -0.768744 -0.007511 0.000000 -0.764636 -0.015864 0.000000 -0.760863 -0.024614 0.000000 -0.752258 -0.032912 0.000000 -0.744210 -0.041486 0.000000 -0.731196 -0.049571 0.000000 -0.718983 -0.057796 0.000000 -0.701744 -0.065518 0.000000 -0.685557 -0.073237 0.000000 -0.664360 -0.080458 0.000000 -0.644465 -0.087531 0.000000 -0.619650 -0.094136 0.000000 -0.596374 -0.100450 0.000000 -0.568342 -0.106347 0.000000 -0.542060 -0.111821 0.000000 -0.511252 -0.116945 0.000000 -0.482370 -0.121527 0.000000 -0.449254 -0.125839 0.000000 -0.418197 -0.129505 0.000000 -0.383248 -0.132992 0.000000 -0.350446 -0.135743 0.000000 -0.314136 -0.138411 0.000000 -0.280013 -0.140270 0.000000 -0.242798 -0.142141 0.000000 
-0.208311 -0.179839 0.000000 -0.170181 -0.181203 0.000000 -0.134276 -0.181424 0.000000 -0.096113 -0.181881 0.000000 -0.060070 -0.181160 0.000000 -0.022253 -0.180770 0.000000 0.013588 -0.179179 0.000000 0.050711 -0.178000 0.000000 0.086036 -0.175609 0.000000 0.122148 -0.173699 0.000000 0.156668 -0.170576 0.000000 0.191478 -0.167989 0.000000 0.224925 -0.164195 0.000000 0.258168 -0.160982 0.000000 0.290293 -0.156576 0.000000 0.321727 -0.152783 0.000000 0.352301 -0.147822 0.000000 0.381705 -0.143494 0.000000 0.410514 -0.138028 0.000000 0.437688 -0.133207 0.000000 0.464535 -0.127288 0.000000 0.489299 -0.122016 0.000000 0.514003 -0.115692 0.000000 0.536195 -0.110011 0.000000 0.558592 -0.103331 0.000000 0.578070 -0.097280 0.000000 0.598013 -0.090292 0.000000 0.614653 -0.083913 0.000000 0.632009 -0.076664 0.000000 0.645709 -0.069997 0.000000 0.660362 -0.062535 0.000000 0.671035 -0.055619 0.000000 0.682887 -0.047992 0.000000 0.690467 -0.040866 0.000000 0.699431 -0.033123 0.000000 0.703872 -0.025827 0.000000 0.709880 -0.018017 0.000000 0.711152 -0.010591 0.000000 0.714151 -0.002767 0.000000 0.712248 0.004747 0.000000 0.712199 0.012532 0.000000 0.707134 0.020087 0.000000 0.704018 0.027776 0.000000 0.695829 0.035323 0.000000 0.689645 0.042857 0.000000 0.678392 0.050342 0.000000 0.669162 0.057657 0.000000 0.654931 0.065022 0.000000 0.642702 0.072058 0.000000 0.625606 0.079239 0.000000 0.610447 0.085932 0.000000 0.590625 0.092863 0.000000 0.572636 0.099154 0.000000 0.550252 0.105768 0.000000 0.529561 0.111600 0.000000 0.504802 0.117829 0.000000 0.481567 0.123152 0.000000 0.454642 0.128930 0.000000 0.429046 0.133701 0.000000 0.400182 0.138968 0.000000 0.372437 0.143152 0.000000 0.341874 0.147850 0.000000 0.312215 0.151420 0.000000 0.280205 0.155502 0.000000 0.248885 0.158438 0.000000 0.215688 0.161864 0.000000 0.182977 0.164153 0.000000 0.148855 0.166889 0.000000 0.115037 0.168523 0.000000 0.080254 0.170545 0.000000 0.045622 0.171518 0.000000 0.010443 0.172807 0.000000 -0.024705 0.173114 0.000000 -0.060015 0.173656 0.000000 -0.095376 0.173289 0.000000 -0.130550 0.173073 0.000000 -0.165818 0.172021 0.000000 -0.200586 0.171037 0.000000 -0.235455 0.169280 0.000000 -0.269538 0.167518 0.000000 -0.303696 0.165033 0.000000 -0.336807 0.162479 0.000000 -0.369940 0.159236 0.000000 -0.401778 0.155876 0.000000 -0.433564 0.151841 0.000000 -0.463810 0.147660 0.000000 -0.493920 0.142798 0.000000 -0.522239 0.137781 0.000000 -0.550335 0.132063 0.000000 -0.576376 0.126202 0.000000 -0.602114 0.119609 0.000000 -0.625511 0.112906 0.000000 -0.648542 0.105436 0.000000 -0.668924 0.097911 0.000000 -0.688906 0.089589 0.000000 -0.705907 0.081283 0.000000 -0.722508 0.072165 0.000000 -0.735781 0.063147 0.000000 -0.748696 0.053324 0.000000 -0.757930 0.043695 0.000000 -0.766892 0.033297 0.000000 -0.771830 0.023189 0.000000 -0.776628 0.012380 0.000000 -0.777084 0.001954 0.000000 -0.777575 -0.009072 0.000000 -0.773446 -0.019630 0.000000 -0.769569 -0.030660 0.000000 -0.760847 -0.041152 0.000000 -0.752627 -0.051961 0.000000 -0.739405 -0.062186 0.000000 -0.726955 -0.072554 0.000000 -0.709422 -0.082317 0.000000 -0.692941 -0.092041 0.000000 -0.671376 -0.101166 0.000000 -0.651139 -0.110069 0.000000 -0.625899 -0.118408 0.000000 -0.602245 -0.126348 0.000000 -0.573744 -0.133783 0.000000 -0.547061 -0.140656 0.000000 -0.515757 -0.147106 0.000000 -0.486464 -0.152848 0.000000 -0.452840 -0.158265 0.000000 -0.421372 -0.162848 0.000000 -0.385918 -0.167217 0.000000 -0.352713 -0.170646 0.000000 -0.315910 -0.173977 0.000000 -0.281400 -0.176283 0.000000 -0.243714 -0.178607 0.000000 
-0.210360 -0.216679 0.000000 -0.171665 -0.218290 0.000000 -0.135198 -0.218522 0.000000 -0.096510 -0.219046 0.000000 -0.059942 -0.218148 0.000000 -0.021641 -0.217657 0.000000 0.014689 -0.215714 0.000000 0.052255 -0.214280 0.000000 0.088033 -0.211377 0.000000 0.124550 -0.209068 0.000000 0.159489 -0.205288 0.000000 0.194668 -0.202168 0.000000 0.228501 -0.197585 0.000000 0.262081 -0.193713 0.000000 0.294563 -0.188397 0.000000 0.326303 -0.183831 0.000000 0.357205 -0.177848 0.000000 0.386888 -0.172638 0.000000 0.415999 -0.166050 0.000000 0.443424 -0.160248 0.000000 0.470549 -0.153115 0.000000 0.495538 -0.146770 0.000000 0.520496 -0.139152 0.000000 0.542887 -0.132313 0.000000 0.565516 -0.124267 0.000000 0.585168 -0.116984 0.000000 0.605319 -0.108568 0.000000 0.622109 -0.100889 0.000000 0.639653 -0.092161 0.000000 0.653477 -0.084134 0.000000 0.668299 -0.075151 0.000000 0.679070 -0.066824 0.000000 0.691070 -0.057644 0.000000 0.698723 -0.049064 0.000000 0.707817 -0.039744 0.000000 0.712303 -0.030958 0.000000 0.718422 -0.021559 0.000000 0.719711 -0.012615 0.000000 0.722799 -0.003198 0.000000 0.720883 0.005852 0.000000 0.720901 0.015223 0.000000 0.715791 0.024324 0.000000 0.712718 0.033580 0.000000 0.704448 0.042673 0.000000 0.698281 0.051742 0.000000 0.686912 0.060762 0.000000 0.677668 0.069571 0.000000 0.663285 0.078447 0.000000 0.651007 0.086920 0.000000 0.633723 0.095576 0.000000 0.618481 0.103637 0.000000 0.598437 0.111991 0.000000 0.580328 0.119569 0.000000 0.557689 0.127540 0.000000 0.536840 0.134565 0.000000 0.511799 0.142070 0.000000 0.488367 0.148482 0.000000 0.461136 0.155441 0.000000 0.435308 0.161188 0.000000 0.406120 0.167526 0.000000 0.378107 0.172565 0.000000 0.347207 0.178214 0.000000 0.317248 0.182513 0.000000 0.284893 0.187415 0.000000 0.253244 0.190950 0.000000 0.219696 0.195055 0.000000 0.186631 0.197811 0.000000 0.152155 0.201081 0.000000 0.117960 0.203049 0.000000 0.082823 0.205454 0.000000 0.047792 0.206628 0.000000 0.012257 0.208147 0.000000 -0.023309 0.208521 0.000000 -0.058978 0.209138 0.000000 -0.094777 0.208704 0.000000 -0.130317 0.208408 0.000000 -0.166044 0.207151 0.000000 -0.201188 0.205931 0.000000 -0.236537 0.203831 0.000000 -0.271012 0.201677 0.000000 -0.305673 0.198703 0.000000 -0.339196 0.195601 0.000000 -0.372855 0.191717 0.000000 -0.405128 0.187649 0.000000 -0.437464 0.182813 0.000000 -0.468170 0.177762 0.000000 -0.498852 0.171930 0.000000 -0.527653 0.165880 0.000000 -0.556338 0.159013 0.000000 -0.582876 0.151951 0.000000 -0.609213 0.144025 0.000000 -0.633113 0.135954 0.000000 -0.656740 0.126964 0.000000 -0.677616 0.117904 0.000000 -0.698174 0.107877 0.000000 -0.715642 0.097876 0.000000 -0.732779 0.086878 0.000000 -0.746472 0.076019 0.000000 -0.759861 0.064160 0.000000 -0.769444 0.052562 0.000000 -0.778797 0.039997 0.000000 -0.783992 0.027820 0.000000 -0.789077 0.014750 0.000000 -0.789679 0.002189 0.000000 -0.790339 -0.011148 0.000000 -0.786233 -0.023870 0.000000 -0.782395 -0.037213 0.000000 -0.773567 -0.049854 0.000000 -0.765252 -0.062928 0.000000 -0.751796 -0.075243 0.000000 -0.739122 -0.087779 0.000000 -0.721237 -0.099532 0.000000 -0.704413 -0.111282 0.000000 -0.682394 -0.122260 0.000000 -0.661712 -0.133008 0.000000 -0.635934 -0.143030 0.000000 -0.611754 -0.152605 0.000000 -0.582655 -0.161532 0.000000 -0.555387 -0.169808 0.000000 -0.523447 -0.177542 0.000000 -0.493533 -0.184444 0.000000 -0.459257 -0.190931 0.000000 -0.427152 -0.196428 0.000000 -0.391048 -0.201650 0.000000 -0.357209 -0.205750 0.000000 -0.319775 -0.209724 0.000000 -0.284645 -0.212467 0.000000 -0.246357 -0.215230 0.000000 
-0.211373 -0.254531 0.000000 -0.172027 -0.256365 0.000000 -0.135035 -0.256579 0.000000 -0.095741 -0.257137 0.000000 -0.058683 -0.256029 0.000000 -0.019822 -0.255400 0.000000 0.016962 -0.253075 0.000000 0.055045 -0.251345 0.000000 0.091245 -0.247904 0.000000 0.128235 -0.245155 0.000000 0.163566 -0.240694 0.000000 0.199179 -0.237001 0.000000 0.233377 -0.231608 0.000000 0.267352 -0.227043 0.000000 0.300173 -0.220799 0.000000 0.332274 -0.215426 0.000000 0.363491 -0.208407 0.000000 0.393500 -0.202287 0.000000 0.422901 -0.194565 0.000000 0.450620 -0.187757 0.000000 0.478009 -0.179401 0.000000 0.503260 -0.171963 0.000000 0.528457 -0.163042 0.000000 0.551077 -0.155031 0.000000 0.573919 -0.145611 0.000000 0.593767 -0.137084 0.000000 0.614105 -0.127233 0.000000 0.631058 -0.118247 0.000000 0.648761 -0.108032 0.000000 0.662716 -0.098642 0.000000 0.677670 -0.088129 0.000000 0.688541 -0.078391 0.000000 0.700645 -0.067645 0.000000 0.708364 -0.057613 0.000000 0.717534 -0.046703 0.000000 0.722055 -0.036431 0.000000 0.728220 -0.025425 0.000000 0.729510 -0.014969 0.000000 0.732614 -0.003938 0.000000 0.730664 0.006645 0.000000 0.730666 0.017624 0.000000 0.725487 0.028270 0.000000 0.722362 0.039119 0.000000 0.713986 0.049760 0.000000 0.707728 0.060393 0.000000 0.696214 0.070955 0.000000 0.686839 0.081284 0.000000 0.672271 0.091682 0.000000 0.659820 0.101619 0.000000 0.642312 0.111765 0.000000 0.626852 0.121218 0.000000 0.606545 0.131017 0.000000 0.588172 0.139901 0.000000 0.565234 0.149255 0.000000 0.544078 0.157490 0.000000 0.518705 0.166302 0.000000 0.494923 0.173814 0.000000 0.467332 0.181990 0.000000 0.441115 0.188718 0.000000 0.411542 0.196169 0.000000 0.383108 0.202064 0.000000 0.351805 0.208709 0.000000 0.321397 0.213734 0.000000 0.288624 0.219506 0.000000 0.256507 0.223635 0.000000 0.222531 0.228476 0.000000 0.188985 0.231693 0.000000 0.154074 0.235559 0.000000 0.119392 0.237855 0.000000 0.083814 0.240713 0.000000 0.048296 0.242084 0.000000 0.012317 0.243908 0.000000 -0.023732 0.244350 0.000000 -0.059851 0.245124 0.000000 -0.096125 0.244628 0.000000 -0.132122 0.244340 0.000000 -0.168314 0.242892 0.000000 -0.203925 0.241529 0.000000 -0.239730 0.239104 0.000000 -0.274686 0.236654 0.000000 -0.309793 0.233217 0.000000 -0.343814 0.229661 0.000000 -0.377912 0.225168 0.000000 -0.410702 0.220485 0.000000 -0.443471 0.214883 0.000000 -0.474714 0.209047 0.000000 -0.505823 0.202281 0.000000 -0.535177 0.195267 0.000000 -0.564284 0.187287 0.000000 -0.591384 0.179077 0.000000 -0.618131 0.169845 0.000000 -0.642591 0.160433 0.000000 -0.666612 0.149940 0.000000 -0.688030 0.139345 0.000000 -0.708952 0.127615 0.000000 -0.726923 0.115888 0.000000 -0.744382 0.102994 0.000000 -0.758516 0.090228 0.000000 -0.772168 0.076296 0.000000 -0.782107 0.062631 0.000000 -0.791648 0.047845 0.000000 -0.797091 0.033470 0.000000 -0.802273 0.018067 0.000000 -0.802995 0.003216 0.000000 -0.803647 -0.012518 0.000000 -0.799522 -0.027575 0.000000 -0.795565 -0.043326 0.000000 -0.786573 -0.058295 0.000000 -0.778027 -0.073731 0.000000 -0.764266 -0.088316 0.000000 -0.751254 -0.103113 0.000000 -0.732933 -0.117025 0.000000 -0.715677 -0.130884 0.000000 -0.693110 -0.143867 0.000000 -0.671918 -0.156529 0.000000 -0.645502 -0.168366 0.000000 -0.620753 -0.179627 0.000000 -0.590953 -0.190150 0.000000 -0.563077 -0.199863 0.000000 -0.530399 -0.208959 0.000000 -0.499858 -0.217038 0.000000 -0.464829 -0.224645 0.000000 -0.432096 -0.231057 0.000000 -0.395244 -0.237160 0.000000 -0.360790 -0.241920 0.000000 -0.322631 -0.246541 0.000000 -0.286910 -0.249701 0.000000 -0.247930 -0.252892 0.000000 