# vtk DataFile Version 2.0
Comment goes here
ASCII

DATASET STRUCTURED_POINTS
FIELD FieldData 1
TIME 1 1 double
0.09500000
DIMENSIONS    128   128   1

ORIGIN    0.000   0.000   0.000
SPACING   0.039062 0.039062   1.000

POINT_DATA   16384
VECTORS u double

-0.242626 0.000000 0.000000 -0.188004 0.000000 0.000000 -0.129011 0.000000 0.000000 -0.074842 0.000000 0.000000 -0.016790 0.000000 0.000000 0.036430 0.000000 0.000000 0.093048 0.000000 0.000000 0.144872 0.000000 0.000000 0.199615 0.000000 0.000000 0.249647 0.000000 0.000000 0.302121 0.000000 0.000000 0.350011 0.000000 0.000000 0.399869 0.000000 0.000000 0.445308 0.000000 0.000000 0.492245 0.000000 0.000000 0.534967 0.000000 0.000000 0.578719 0.000000 0.000000 0.618493 0.000000 0.000000 0.658833 0.000000 0.000000 0.695465 0.000000 0.000000 0.732206 0.000000 0.000000 0.765534 0.000000 0.000000 0.798521 0.000000 0.000000 0.828415 0.000000 0.000000 0.857528 0.000000 0.000000 0.883889 0.000000 0.000000 0.909038 0.000000 0.000000 0.931792 0.000000 0.000000 0.952916 0.000000 0.000000 0.972015 0.000000 0.000000 0.989078 0.000000 0.000000 1.004494 0.000000 0.000000 1.017478 0.000000 0.000000 1.029201 0.000000 0.000000 1.038105 0.000000 0.000000 1.046136 0.000000 0.000000 1.050968 0.000000 0.000000 1.055315 0.000000 0.000000 1.056085 0.000000 0.000000 1.056761 0.000000 0.000000 1.053481 0.000000 0.000000 1.050494 0.000000 0.000000 1.043170 0.000000 0.000000 1.036524 0.000000 0.000000 1.025155 0.000000 0.000000 1.014847 0.000000 0.000000 0.999427 0.000000 0.000000 0.985446 0.000000 0.000000 0.965959 0.000000 0.000000 0.948289 0.000000 0.000000 0.924721 0.000000 0.000000 0.903342 0.000000 0.000000 0.875682 0.000000 0.000000 0.850576 0.000000 0.000000 0.818825 0.000000 0.000000 0.789988 0.000000 0.000000 0.754168 0.000000 0.000000 0.721612 0.000000 0.000000 0.681780 0.000000 0.000000 0.645547 0.000000 0.000000 0.601803 0.000000 0.000000 0.561974 0.000000 0.000000 0.514475 0.000000 0.000000 0.471182 0.000000 0.000000 0.420151 0.000000 0.000000 0.373586 0.000000 0.000000 0.319322 0.000000 0.000000 0.269748 0.000000 0.000000 0.212632 0.000000 0.000000 0.160385 0.000000 0.000000 0.100888 0.000000 0.000000 0.046387 0.000000 0.000000 -0.014934 0.000000 0.000000 -0.071187 0.000000 0.000000 -0.133689 0.000000 0.000000 -0.191112 0.000000 0.000000 -0.254071 0.000000 0.000000 -0.312003 0.000000 0.000000 -0.374627 0.000000 0.000000 -0.432342 0.000000 0.000000 -0.493784 0.000000 0.000000 -0.550497 0.000000 0.000000 -0.609873 0.000000 0.000000 -0.664760 0.000000 0.000000 -0.721167 0.000000 0.000000 -0.773384 0.000000 0.000000 -0.825926 0.000000 0.000000 -0.874629 0.000000 0.000000 -0.922440 0.000000 0.000000 -0.966808 0.000000 0.000000 -1.009078 0.000000 0.000000 -1.048341 0.000000 0.000000 -1.084341 0.000000 0.000000 -1.117801 0.000000 0.000000 -1.146906 0.000000 0.000000 -1.173964 0.000000 0.000000 -1.195673 0.000000 0.000000 -1.215847 0.000000 0.000000 -1.229802 0.000000 0.000000 -1.242744 0.000000 0.000000 -1.248739 0.000000 0.000000 -1.254252 0.000000 0.000000 -1.252240 0.000000 0.000000 -1.250277 0.000000 0.000000 -1.240371 0.000000 0.000000 -1.231042 0.000000 0.000000 -1.213505 0.000000 0.000000 -1.197064 0.000000 0.000000 -1.172300 0.000000 0.000000 -1.149135 0.000000 0.000000 -1.117668 0.000000 0.000000 -1.088285 0.000000 0.000000 -1.050739 0.000000 0.000000 -1.015737 0.000000 0.000000 -0.972812 0.000000 0.000000 -0.932860 0.000000 0.000000 -0.885308 0.000000 0.000000 -0.841121 0.000000 0.000000 -0.789718 0.000000 0.000000 -0.742034 0.000000 0.000000 -0.687564 0.000000 0.000000 -0.637121 0.000000 0.000000 -0.580354 0.000000 0.000000 -0.527873 0.000000 0.000000 -0.469548 0.000000 0.000000 -0.415721 0.000000 0.000000 -0.356538 0.000000 0.000000 -0.302013 0.000000 0.000000 
-0.242328 -0.057005 0.000000 -0.187616 -0.056807 0.000000 -0.128553 -0.056581 0.000000 -0.074306 -0.056111 0.000000 -0.016190 -0.055636 0.000000 0.037096 -0.054919 0.000000 0.093773 -0.054221 0.000000 0.145652 -0.053283 0.000000 0.200449 -0.052387 0.000000 0.250526 -0.051253 0.000000 0.303051 -0.050182 0.000000 0.350976 -0.048874 0.000000 0.400881 -0.047649 0.000000 0.446348 -0.046188 0.000000 0.493331 -0.044829 0.000000 0.536071 -0.043237 0.000000 0.579867 -0.041763 0.000000 0.619652 -0.040057 0.000000 0.660037 -0.038486 0.000000 0.696673 -0.036686 0.000000 0.733458 -0.035034 0.000000 0.766782 -0.033157 0.000000 0.799814 -0.031441 0.000000 0.829698 -0.029504 0.000000 0.858856 -0.027737 0.000000 0.885200 -0.025755 0.000000 0.910396 -0.023952 0.000000 0.933128 -0.021939 0.000000 0.954300 -0.020112 0.000000 0.973371 -0.018081 0.000000 0.990483 -0.016239 0.000000 1.005868 -0.014200 0.000000 1.018902 -0.012354 0.000000 1.030590 -0.010314 0.000000 1.039545 -0.008468 0.000000 1.047538 -0.006431 0.000000 1.052421 -0.004590 0.000000 1.056729 -0.002559 0.000000 1.057551 -0.000723 0.000000 1.058184 0.001302 0.000000 1.054955 0.003134 0.000000 1.051925 0.005156 0.000000 1.044651 0.006985 0.000000 1.037960 0.009007 0.000000 1.026639 0.010838 0.000000 1.016286 0.012864 0.000000 1.000908 0.014701 0.000000 0.986881 0.016734 0.000000 0.967433 0.018578 0.000000 0.949714 0.020619 0.000000 0.926178 0.022474 0.000000 0.904747 0.024520 0.000000 0.877110 0.026383 0.000000 0.851951 0.028428 0.000000 0.820213 0.030294 0.000000 0.791318 0.032328 0.000000 0.755499 0.034188 0.000000 0.722880 0.036194 0.000000 0.683035 0.038033 0.000000 0.646733 0.039989 0.000000 0.602960 0.041786 0.000000 0.563056 0.043664 0.000000 0.515512 0.045396 0.000000 0.472137 0.047162 0.000000 0.421043 0.048798 0.000000 0.374389 0.050414 0.000000 0.320044 0.051919 0.000000 0.270372 0.053345 0.000000 0.213158 0.054681 0.000000 0.160806 0.055872 0.000000 0.101193 0.056999 0.000000 0.046581 0.057911 0.000000 -0.014872 0.058787 0.000000 -0.071241 0.059377 0.000000 -0.133889 0.059962 0.000000 -0.191430 0.060191 0.000000 -0.254548 0.060446 0.000000 -0.312599 0.060278 0.000000 -0.375391 0.060169 0.000000 -0.433223 0.059579 0.000000 -0.494838 0.059078 0.000000 -0.551663 0.058044 0.000000 -0.611213 0.057132 0.000000 -0.666205 0.055647 0.000000 -0.722783 0.054312 0.000000 -0.775093 0.052379 0.000000 -0.827800 0.050622 0.000000 -0.876581 0.048257 0.000000 -0.924545 0.046090 0.000000 -0.968975 0.043319 0.000000 -1.011381 0.040766 0.000000 -1.050686 0.037631 0.000000 -1.086803 0.034730 0.000000 -1.120284 0.031283 0.000000 -1.149483 0.028081 0.000000 -1.176537 0.024384 0.000000 -1.198316 0.020941 0.000000 -1.218462 0.017064 0.000000 -1.232460 0.013449 0.000000 -1.245351 0.009469 0.000000 -1.251363 0.005754 0.000000 -1.256800 0.001751 0.000000 -1.254780 -0.001987 0.000000 -1.252720 -0.005934 0.000000 -1.242781 -0.009618 0.000000 -1.233335 -0.013433 0.000000 -1.215745 -0.016989 0.000000 -1.199171 -0.020603 0.000000 -1.174335 -0.023964 0.000000 -1.151026 -0.027316 0.000000 -1.119473 -0.030425 0.000000 -1.089938 -0.033464 0.000000 -1.052296 -0.036274 0.000000 -1.017138 -0.038963 0.000000 -0.974110 -0.041438 0.000000 -0.934002 -0.043752 0.000000 -0.886344 -0.045870 0.000000 -0.842005 -0.047795 0.000000 -0.790497 -0.049543 0.000000 -0.742667 -0.051077 0.000000 -0.688095 -0.052456 0.000000 -0.637515 -0.053605 0.000000 -0.580650 -0.054624 0.000000 -0.528043 -0.055403 0.000000 -0.469628 -0.056076 0.000000 -0.415685 -0.056505 0.000000 -0.356419 -0.056854 0.000000 -0.301792 -0.056956 0.000000 
-0.242477 -0.114176 0.000000 -0.187580 -0.113775 0.000000 -0.128314 -0.113310 0.000000 -0.073897 -0.112363 0.000000 -0.015598 -0.111402 0.000000 0.037844 -0.109963 0.000000 0.094684 -0.108556 0.000000 0.146706 -0.106676 0.000000 0.201645 -0.104874 0.000000 0.251852 -0.102602 0.000000 0.304501 -0.100450 0.000000 0.352544 -0.097831 0.000000 0.402554 -0.095372 0.000000 0.448127 -0.092449 0.000000 0.495196 -0.089723 0.000000 0.538033 -0.086537 0.000000 0.581898 -0.083581 0.000000 0.621769 -0.080170 0.000000 0.662204 -0.077020 0.000000 0.698917 -0.073420 0.000000 0.735735 -0.070109 0.000000 0.769127 -0.066356 0.000000 0.802175 -0.062916 0.000000 0.832119 -0.059042 0.000000 0.861277 -0.055502 0.000000 0.887673 -0.051540 0.000000 0.912853 -0.047927 0.000000 0.935631 -0.043904 0.000000 0.956774 -0.040244 0.000000 0.975886 -0.036183 0.000000 0.992958 -0.032496 0.000000 1.008379 -0.028419 0.000000 1.021365 -0.024722 0.000000 1.033087 -0.020643 0.000000 1.041987 -0.016948 0.000000 1.050014 -0.012876 0.000000 1.054839 -0.009191 0.000000 1.059181 -0.005129 0.000000 1.059946 -0.001456 0.000000 1.060617 0.002595 0.000000 1.057334 0.006259 0.000000 1.054344 0.010305 0.000000 1.047021 0.013965 0.000000 1.040376 0.018012 0.000000 1.029011 0.021675 0.000000 1.018708 0.025731 0.000000 1.003295 0.029405 0.000000 0.989322 0.033476 0.000000 0.969843 0.037167 0.000000 0.952182 0.041255 0.000000 0.928620 0.044966 0.000000 0.907249 0.049067 0.000000 0.879588 0.052796 0.000000 0.854486 0.056898 0.000000 0.822723 0.060634 0.000000 0.793879 0.064714 0.000000 0.758031 0.068438 0.000000 0.725454 0.072464 0.000000 0.685572 0.076147 0.000000 0.649297 0.080074 0.000000 0.605475 0.083676 0.000000 0.565580 0.087448 0.000000 0.517970 0.090919 0.000000 0.474581 0.094469 0.000000 0.423400 0.097748 0.000000 0.376705 0.100999 0.000000 0.322250 0.104017 0.000000 0.272506 0.106886 0.000000 0.215156 0.109566 0.000000 0.162700 0.111965 0.000000 0.102924 0.114225 0.000000 0.048172 0.116065 0.000000 -0.013470 0.117822 0.000000 -0.070015 0.119017 0.000000 -0.132878 0.120189 0.000000 -0.190631 0.120659 0.000000 -0.253986 0.121169 0.000000 -0.312282 0.120844 0.000000 -0.375330 0.120624 0.000000 -0.433437 0.119447 0.000000 -0.495322 0.118440 0.000000 -0.552446 0.116375 0.000000 -0.612273 0.114542 0.000000 -0.667583 0.111570 0.000000 -0.724438 0.108889 0.000000 -0.777077 0.105016 0.000000 -0.830051 0.101488 0.000000 -0.879164 0.096745 0.000000 -0.927380 0.092394 0.000000 -0.972134 0.086837 0.000000 -1.014768 0.081712 0.000000 -1.054380 0.075422 0.000000 -1.090692 0.069597 0.000000 -1.124453 0.062680 0.000000 -1.153807 0.056254 0.000000 -1.181106 0.048833 0.000000 -1.202994 0.041924 0.000000 -1.223342 0.034144 0.000000 -1.237399 0.026889 0.000000 -1.250441 0.018902 0.000000 -1.256459 0.011449 0.000000 -1.261994 0.003417 0.000000 -1.259926 -0.004080 0.000000 -1.257910 -0.011999 0.000000 -1.247871 -0.019385 0.000000 -1.238415 -0.027036 0.000000 -1.220676 -0.034164 0.000000 -1.204040 -0.041410 0.000000 -1.179014 -0.048145 0.000000 -1.155597 -0.054862 0.000000 -1.123817 -0.061088 0.000000 -1.094135 -0.067177 0.000000 -1.056239 -0.072800 0.000000 -1.020902 -0.078186 0.000000 -0.977602 -0.083135 0.000000 -0.937292 -0.087766 0.000000 -0.889351 -0.091997 0.000000 -0.844795 -0.095847 0.000000 -0.793001 -0.099338 0.000000 -0.744947 -0.102402 0.000000 -0.690093 -0.105152 0.000000 -0.639289 -0.107445 0.000000 -0.582151 -0.109472 0.000000 -0.529325 -0.111023 0.000000 -0.470650 -0.112358 0.000000 -0.416498 -0.113208 0.000000 -0.356990 -0.113894 0.000000 -0.302164 -0.114092 0.000000 
-0.242011 -0.171589 0.000000 -0.186750 -0.170970 0.000000 -0.127141 -0.170265 0.000000 -0.072398 -0.168827 0.000000 -0.013790 -0.167377 0.000000 0.039941 -0.165200 0.000000 0.097059 -0.163083 0.000000 0.149334 -0.160245 0.000000 0.204523 -0.157534 0.000000 0.254950 -0.154108 0.000000 0.307821 -0.150873 0.000000 0.356053 -0.146927 0.000000 0.406263 -0.143232 0.000000 0.451996 -0.138830 0.000000 0.499242 -0.134735 0.000000 0.542212 -0.129938 0.000000 0.586234 -0.125499 0.000000 0.626213 -0.120364 0.000000 0.666787 -0.115634 0.000000 0.703582 -0.110216 0.000000 0.740521 -0.105245 0.000000 0.773975 -0.099598 0.000000 0.807127 -0.094432 0.000000 0.837110 -0.088605 0.000000 0.866358 -0.083291 0.000000 0.892774 -0.077332 0.000000 0.918031 -0.071909 0.000000 0.940810 -0.065860 0.000000 0.962020 -0.060367 0.000000 0.981118 -0.054264 0.000000 0.998247 -0.048732 0.000000 1.013641 -0.042607 0.000000 1.026678 -0.037061 0.000000 1.038363 -0.030936 0.000000 1.047311 -0.025395 0.000000 1.055295 -0.019283 0.000000 1.060167 -0.013757 0.000000 1.064463 -0.007666 0.000000 1.065274 -0.002159 0.000000 1.065898 0.003915 0.000000 1.062664 0.009406 0.000000 1.059628 0.015469 0.000000 1.052356 0.020954 0.000000 1.045668 0.027016 0.000000 1.034356 0.032506 0.000000 1.024013 0.038581 0.000000 1.008651 0.044087 0.000000 0.994640 0.050185 0.000000 0.975209 0.055718 0.000000 0.957510 0.061842 0.000000 0.933987 0.067407 0.000000 0.912573 0.073552 0.000000 0.884937 0.079146 0.000000 0.859784 0.085294 0.000000 0.828025 0.090901 0.000000 0.799117 0.097020 0.000000 0.763244 0.102613 0.000000 0.730583 0.108654 0.000000 0.690640 0.114189 0.000000 0.654256 0.120085 0.000000 0.610329 0.125503 0.000000 0.570293 0.131170 0.000000 0.522527 0.136395 0.000000 0.478960 0.141732 0.000000 0.427567 0.146674 0.000000 0.380651 0.151565 0.000000 0.325924 0.156118 0.000000 0.275914 0.160438 0.000000 0.218230 0.164488 0.000000 0.165459 0.168104 0.000000 0.105287 0.171527 0.000000 0.050173 0.174305 0.000000 -0.011926 0.176975 0.000000 -0.068880 0.178785 0.000000 -0.132253 0.180578 0.000000 -0.190456 0.181299 0.000000 -0.254369 0.182097 0.000000 -0.313151 0.181623 0.000000 -0.376794 0.181324 0.000000 -0.435412 0.179570 0.000000 -0.497916 0.178087 0.000000 -0.555568 0.174996 0.000000 -0.616025 0.172268 0.000000 -0.671864 0.167812 0.000000 -0.729343 0.163806 0.000000 -0.782501 0.157993 0.000000 -0.836076 0.152709 0.000000 -0.885681 0.145585 0.000000 -0.934458 0.139059 0.000000 -0.979662 0.130707 0.000000 -1.022801 0.123013 0.000000 -1.062806 0.113555 0.000000 -1.099550 0.104803 0.000000 -1.133633 0.094398 0.000000 -1.163334 0.084735 0.000000 -1.190872 0.073571 0.000000 -1.213009 0.063177 0.000000 -1.233502 0.051469 0.000000 -1.247705 0.040548 0.000000 -1.260795 0.028529 0.000000 -1.266851 0.017307 0.000000 -1.272333 0.005218 0.000000 -1.270198 -0.006072 0.000000 -1.268028 -0.017989 0.000000 -1.257821 -0.029113 0.000000 -1.248118 -0.040628 0.000000 -1.230120 -0.051363 0.000000 -1.213154 -0.062265 0.000000 -1.187789 -0.072408 0.000000 -1.163972 -0.082512 0.000000 -1.131790 -0.091887 0.000000 -1.101652 -0.101043 0.000000 -1.063305 -0.109507 0.000000 -1.027474 -0.117600 0.000000 -0.983692 -0.125048 0.000000 -0.942865 -0.132004 0.000000 -0.894426 -0.138367 0.000000 -0.849346 -0.144145 0.000000 -0.797053 -0.149391 0.000000 -0.748482 -0.153985 0.000000 -0.693138 -0.158115 0.000000 -0.641835 -0.161547 0.000000 -0.584229 -0.164588 0.000000 -0.530930 -0.166904 0.000000 -0.471814 -0.168903 0.000000 -0.417222 -0.170165 0.000000 -0.357303 -0.171188 0.000000 -0.302075 -0.171470 0.000000 
-0.241977 -0.229501 0.000000 -0.186256 -0.228644 0.000000 -0.126171 -0.227662 0.000000 -0.071009 -0.225715 0.000000 -0.011972 -0.223741 0.000000 0.042138 -0.220811 0.000000 0.099639 -0.217949 0.000000 0.152254 -0.214141 0.000000 0.207782 -0.210490 0.000000 0.258513 -0.205900 0.000000 0.311681 -0.201553 0.000000 0.360184 -0.196272 0.000000 0.410650 -0.191314 0.000000 0.456623 -0.185429 0.000000 0.504088 -0.179939 0.000000 0.547268 -0.173528 0.000000 0.591471 -0.167582 0.000000 0.631633 -0.160723 0.000000 0.672351 -0.154390 0.000000 0.709305 -0.147155 0.000000 0.746353 -0.140501 0.000000 0.779939 -0.132962 0.000000 0.813166 -0.126051 0.000000 0.843259 -0.118274 0.000000 0.872550 -0.111166 0.000000 0.899054 -0.103213 0.000000 0.924324 -0.095964 0.000000 0.947172 -0.087892 0.000000 0.968369 -0.080551 0.000000 0.987520 -0.072410 0.000000 1.004614 -0.065020 0.000000 1.020049 -0.056851 0.000000 1.033035 -0.049445 0.000000 1.044752 -0.041277 0.000000 1.053639 -0.033880 0.000000 1.061649 -0.025731 0.000000 1.066456 -0.018358 0.000000 1.070778 -0.010237 0.000000 1.071525 -0.002891 0.000000 1.072180 0.005206 0.000000 1.068886 0.012529 0.000000 1.065889 0.020613 0.000000 1.058566 0.027925 0.000000 1.051925 0.036011 0.000000 1.040573 0.043330 0.000000 1.030286 0.051436 0.000000 1.014895 0.058778 0.000000 1.000948 0.066917 0.000000 0.981496 0.074297 0.000000 0.963866 0.082477 0.000000 0.940325 0.089903 0.000000 0.918980 0.098117 0.000000 0.891324 0.105585 0.000000 0.866234 0.113810 0.000000 0.834442 0.121301 0.000000 0.805583 0.129495 0.000000 0.769658 0.136972 0.000000 0.737022 0.145069 0.000000 0.696995 0.152474 0.000000 0.660603 0.160385 0.000000 0.616552 0.167640 0.000000 0.576464 0.175250 0.000000 0.528523 0.182253 0.000000 0.484850 0.189429 0.000000 0.433224 0.196056 0.000000 0.386141 0.202642 0.000000 0.331114 0.208754 0.000000 0.280867 0.214580 0.000000 0.222813 0.220021 0.000000 0.169730 0.224908 0.000000 0.109116 0.229511 0.000000 0.053612 0.233278 0.000000 -0.009000 0.236874 0.000000 -0.066422 0.239344 0.000000 -0.130374 0.241766 0.000000 -0.189120 0.242775 0.000000 -0.253671 0.243864 0.000000 -0.313065 0.243268 0.000000 -0.377393 0.242884 0.000000 -0.436682 0.240569 0.000000 -0.499905 0.238597 0.000000 -0.558275 0.234483 0.000000 -0.619465 0.230838 0.000000 -0.676054 0.224888 0.000000 -0.734264 0.219525 0.000000 -0.788183 0.211750 0.000000 -0.842467 0.204668 0.000000 -0.892823 0.195127 0.000000 -0.942265 0.186375 0.000000 -0.988189 0.175180 0.000000 -1.031927 0.164855 0.000000 -1.072598 0.152171 0.000000 -1.109856 0.140424 0.000000 -1.144529 0.126463 0.000000 -1.174640 0.113492 0.000000 -1.202672 0.098509 0.000000 -1.225102 0.084555 0.000000 -1.245977 0.068840 0.000000 -1.260343 0.054181 0.000000 -1.273689 0.038048 0.000000 -1.279774 0.022987 0.000000 -1.285379 0.006763 0.000000 -1.283138 -0.008385 0.000000 -1.280957 -0.024375 0.000000 -1.270514 -0.039294 0.000000 -1.260670 -0.054738 0.000000 -1.242316 -0.069128 0.000000 -1.225089 -0.083741 0.000000 -1.199263 -0.097327 0.000000 -1.175079 -0.110861 0.000000 -1.142350 -0.123408 0.000000 -1.111758 -0.135662 0.000000 -1.072799 -0.146978 0.000000 -1.036446 -0.157799 0.000000 -0.992007 -0.167744 0.000000 -0.950613 -0.177032 0.000000 -0.901493 -0.185517 0.000000 -0.855821 -0.193220 0.000000 -0.802842 -0.200203 0.000000 -0.753672 -0.206316 0.000000 -0.697656 -0.211799 0.000000 -0.645762 -0.216355 0.000000 -0.587508 -0.220376 0.000000 -0.533641 -0.223438 0.000000 -0.473912 -0.226066 0.000000 -0.418783 -0.227718 0.000000 -0.358295 -0.229041 0.000000 -0.302566 -0.229384 0.000000 
-0.241271 -0.287898 0.000000 -0.184911 -0.286776 0.000000 -0.124212 -0.285512 0.000000 -0.068477 -0.283027 0.000000 -0.008886 -0.280523 0.000000 0.045732 -0.276810 0.000000 0.103729 -0.273199 0.000000 0.156793 -0.268389 0.000000 0.212763 -0.263793 0.000000 0.263887 -0.258008 0.000000 0.317448 -0.252544 0.000000 0.366291 -0.245896 0.000000 0.417106 -0.239671 0.000000 0.463370 -0.232268 0.000000 0.511142 -0.225380 0.000000 0.554568 -0.217321 0.000000 0.599039 -0.209864 0.000000 0.639404 -0.201245 0.000000 0.680353 -0.193305 0.000000 0.717469 -0.184218 0.000000 0.754713 -0.175879 0.000000 0.788423 -0.166411 0.000000 0.821814 -0.157753 0.000000 0.851994 -0.147989 0.000000 0.881417 -0.139086 0.000000 0.907975 -0.129106 0.000000 0.933351 -0.120028 0.000000 0.956222 -0.109904 0.000000 0.977500 -0.100714 0.000000 0.996647 -0.090510 0.000000 1.013805 -0.081261 0.000000 1.029214 -0.071028 0.000000 1.042251 -0.061764 0.000000 1.053926 -0.051540 0.000000 1.062855 -0.042292 0.000000 1.070814 -0.032100 0.000000 1.075660 -0.022886 0.000000 1.079927 -0.012736 0.000000 1.080715 -0.003560 0.000000 1.081315 0.006554 0.000000 1.078068 0.015697 0.000000 1.075021 0.025789 0.000000 1.067751 0.034918 0.000000 1.061068 0.045009 0.000000 1.049776 0.054144 0.000000 1.039456 0.064259 0.000000 1.024128 0.073425 0.000000 1.010154 0.083584 0.000000 0.990763 0.092801 0.000000 0.973108 0.103013 0.000000 0.949619 0.112292 0.000000 0.928246 0.122553 0.000000 0.900622 0.131892 0.000000 0.875491 0.142175 0.000000 0.843700 0.151552 0.000000 0.814777 0.161805 0.000000 0.778808 0.171174 0.000000 0.746075 0.181316 0.000000 0.705945 0.190608 0.000000 0.669410 0.200528 0.000000 0.625184 0.209643 0.000000 0.584894 0.219199 0.000000 0.536693 0.228009 0.000000 0.492751 0.237030 0.000000 0.440769 0.245383 0.000000 0.393337 0.253675 0.000000 0.337850 0.261392 0.000000 0.287168 0.268739 0.000000 0.228546 0.275625 0.000000 0.174937 0.281801 0.000000 0.113645 0.287645 0.000000 0.057523 0.292421 0.000000 -0.005873 0.297008 0.000000 -0.064001 0.300160 0.000000 -0.128836 0.303277 0.000000 -0.188371 0.304595 0.000000 -0.253889 0.306042 0.000000 -0.314143 0.305345 0.000000 -0.379506 0.304941 0.000000 -0.439712 0.302082 0.000000 -0.504016 0.299680 0.000000 -0.563340 0.294556 0.000000 -0.625632 0.290047 0.000000 -0.683189 0.282611 0.000000 -0.742494 0.275935 0.000000 -0.797371 0.266196 0.000000 -0.852711 0.257350 0.000000 -0.903988 0.245383 0.000000 -0.954416 0.234425 0.000000 -1.001194 0.220370 0.000000 -1.045819 0.207422 0.000000 -1.087249 0.191484 0.000000 -1.125267 0.176734 0.000000 -1.160577 0.159182 0.000000 -1.191296 0.142878 0.000000 -1.219819 0.124033 0.000000 -1.242686 0.106481 0.000000 -1.263886 0.086710 0.000000 -1.278504 0.068260 0.000000 -1.291998 0.047960 0.000000 -1.298143 0.028997 0.000000 -1.303713 0.008581 0.000000 -1.301341 -0.010494 0.000000 -1.298944 -0.030612 0.000000 -1.288190 -0.049400 0.000000 -1.277958 -0.068827 0.000000 -1.259127 -0.086944 0.000000 -1.241359 -0.105318 0.000000 -1.214914 -0.122418 0.000000 -1.190058 -0.139426 0.000000 -1.156594 -0.155208 0.000000 -1.125226 -0.170594 0.000000 -1.085446 -0.184819 0.000000 -1.048244 -0.198392 0.000000 -1.002927 -0.210881 0.000000 -0.960640 -0.222517 0.000000 -0.910616 -0.233159 0.000000 -0.864034 -0.242795 0.000000 -0.810150 -0.251540 0.000000 -0.760079 -0.259171 0.000000 -0.703178 -0.266025 0.000000 -0.650414 -0.271695 0.000000 -0.591313 -0.276708 0.000000 -0.536620 -0.280499 0.000000 -0.476095 -0.283761 0.000000 -0.420197 -0.285783 0.000000 -0.358970 -0.287405 0.000000 -0.302536 -0.287787 0.000000 
-0.240967 -0.347126 0.000000 -0.183871 -0.345703 0.000000 -0.122422 -0.344096 0.000000 -0.066020 -0.341040 0.000000 -0.005755 -0.337949 0.000000 0.049462 -0.333426 0.000000 0.108060 -0.329010 0.000000 0.161659 -0.323175 0.000000 0.218163 -0.317584 0.000000 0.269762 -0.310585 0.000000 0.323792 -0.303958 0.000000 0.373056 -0.295930 0.000000 0.424278 -0.288394 0.000000 0.470913 -0.279464 0.000000 0.519033 -0.271137 0.000000 0.562783 -0.261425 0.000000 0.607546 -0.252418 0.000000 0.648190 -0.242038 0.000000 0.689378 -0.232455 0.000000 0.726729 -0.221515 0.000000 0.764158 -0.211455 0.000000 0.798063 -0.200062 0.000000 0.831587 -0.189622 0.000000 0.861924 -0.177877 0.000000 0.891431 -0.167147 0.000000 0.918110 -0.155146 0.000000 0.943524 -0.144211 0.000000 0.966484 -0.132042 0.000000 0.987762 -0.120977 0.000000 1.006970 -0.108715 0.000000 1.024094 -0.097587 0.000000 1.039543 -0.085296 0.000000 1.052521 -0.074156 0.000000 1.064222 -0.061881 0.000000 1.073077 -0.050768 0.000000 1.081053 -0.038536 0.000000 1.085818 -0.027471 0.000000 1.090101 -0.015292 0.000000 1.090812 -0.004279 0.000000 1.091434 0.007853 0.000000 1.088119 0.018823 0.000000 1.085104 0.030929 0.000000 1.077782 0.041878 0.000000 1.071146 0.053986 0.000000 1.059818 0.064942 0.000000 1.049560 0.077084 0.000000 1.034213 0.088080 0.000000 1.020315 0.100282 0.000000 1.000917 0.111343 0.000000 0.983348 0.123621 0.000000 0.959856 0.134765 0.000000 0.938569 0.147115 0.000000 0.910935 0.158340 0.000000 0.885881 0.170732 0.000000 0.854060 0.182014 0.000000 0.825192 0.194387 0.000000 0.789157 0.205674 0.000000 0.756441 0.217931 0.000000 0.716193 0.229139 0.000000 0.679623 0.241146 0.000000 0.635208 0.252155 0.000000 0.594815 0.263740 0.000000 0.546340 0.274397 0.000000 0.502208 0.285353 0.000000 0.449853 0.295470 0.000000 0.402133 0.305561 0.000000 0.346163 0.314922 0.000000 0.295084 0.323885 0.000000 0.235859 0.332252 0.000000 0.181734 0.339809 0.000000 0.119720 0.346925 0.000000 0.062959 0.352796 0.000000 -0.001278 0.358398 0.000000 -0.060169 0.362307 0.000000 -0.125955 0.366136 0.000000 -0.186371 0.367828 0.000000 -0.252937 0.369636 0.000000 -0.314181 0.368885 0.000000 -0.380671 0.368454 0.000000 -0.441959 0.365079 0.000000 -0.507446 0.362224 0.000000 -0.567923 0.356099 0.000000 -0.631426 0.350688 0.000000 -0.690182 0.341750 0.000000 -0.750694 0.333706 0.000000 -0.806783 0.321967 0.000000 -0.863294 0.311285 0.000000 -0.915764 0.296832 0.000000 -0.967291 0.283581 0.000000 -1.015207 0.266583 0.000000 -1.060824 0.250911 0.000000 -1.103301 0.231619 0.000000 -1.142170 0.213752 0.000000 -1.178399 0.192492 0.000000 -1.209799 0.172734 0.000000 -1.239083 0.149899 0.000000 -1.262435 0.128622 0.000000 -1.284210 0.104658 0.000000 -1.299102 0.082293 0.000000 -1.312964 0.057687 0.000000 -1.319161 0.034702 0.000000 -1.324881 0.009961 0.000000 -1.322339 -0.013154 0.000000 -1.319873 -0.037526 0.000000 -1.308735 -0.060280 0.000000 -1.298223 -0.083800 0.000000 -1.278813 -0.105727 0.000000 -1.260570 -0.127954 0.000000 -1.233376 -0.148628 0.000000 -1.207875 -0.169182 0.000000 -1.173523 -0.188240 0.000000 -1.141373 -0.206810 0.000000 -1.100600 -0.223960 0.000000 -1.062513 -0.240317 0.000000 -1.016134 -0.255348 0.000000 -0.972894 -0.269344 0.000000 -0.921773 -0.282122 0.000000 -0.874204 -0.293686 0.000000 -0.819220 -0.304158 0.000000 -0.768158 -0.313288 0.000000 -0.710180 -0.321465 0.000000 -0.656447 -0.328220 0.000000 -0.596314 -0.334170 0.000000 -0.540694 -0.338656 0.000000 -0.479196 -0.342489 0.000000 -0.422428 -0.344843 0.000000 -0.360298 -0.346702 0.000000 -0.303059 -0.347083 0.000000 
-0.239892 -0.407086 0.000000 -0.181882 -0.405322 0.000000 -0.119549 -0.403363 0.000000 -0.062330 -0.399693 0.000000 -0.001272 -0.396005 0.000000 0.054671 -0.390626 0.000000 0.113979 -0.385396 0.000000 0.168217 -0.378492 0.000000 0.225353 -0.371896 0.000000 0.277512 -0.363637 0.000000 0.332103 -0.355838 0.000000 0.381854 -0.346382 0.000000 0.433571 -0.337528 0.000000 0.480625 -0.327023 0.000000 0.529179 -0.317251 0.000000 0.573286 -0.305834 0.000000 0.618425 -0.295271 0.000000 0.659366 -0.283076 0.000000 0.700875 -0.271844 0.000000 0.738466 -0.258998 0.000000 0.776164 -0.247213 0.000000 0.810254 -0.233840 0.000000 0.843997 -0.221613 0.000000 0.874467 -0.207833 0.000000 0.904147 -0.195272 0.000000 0.930909 -0.181199 0.000000 0.956454 -0.168402 0.000000 0.979453 -0.154142 0.000000 1.000825 -0.141200 0.000000 1.020034 -0.126843 0.000000 1.037223 -0.113834 0.000000 1.052642 -0.099455 0.000000 1.065664 -0.086443 0.000000 1.077312 -0.072096 0.000000 1.086198 -0.059123 0.000000 1.094109 -0.044842 0.000000 1.098902 -0.031935 0.000000 1.103115 -0.017729 0.000000 1.103857 -0.004892 0.000000 1.104413 0.009247 0.000000 1.101140 0.022027 0.000000 1.098070 0.036126 0.000000 1.090803 0.048876 0.000000 1.084126 0.062973 0.000000 1.072868 0.075730 0.000000 1.062584 0.089865 0.000000 1.047317 0.102670 0.000000 1.033407 0.116879 0.000000 1.014093 0.129769 0.000000 0.996518 0.144075 0.000000 0.973101 0.157071 0.000000 0.951807 0.171474 0.000000 0.924226 0.184580 0.000000 0.899150 0.199049 0.000000 0.867341 0.212240 0.000000 0.838421 0.226708 0.000000 0.802337 0.239925 0.000000 0.769522 0.254280 0.000000 0.729143 0.267427 0.000000 0.692407 0.281513 0.000000 0.647760 0.294451 0.000000 0.607117 0.308067 0.000000 0.558288 0.320615 0.000000 0.513805 0.333517 0.000000 0.460957 0.345458 0.000000 0.412769 0.357364 0.000000 0.356154 0.368442 0.000000 0.304477 0.379043 0.000000 0.244450 0.388974 0.000000 0.189590 0.397941 0.000000 0.126611 0.406421 0.000000 0.068976 0.413419 0.000000 0.003618 0.420135 0.000000 -0.056284 0.424837 0.000000 -0.123337 0.429479 0.000000 -0.184891 0.431578 0.000000 -0.252852 0.433852 0.000000 -0.315346 0.433079 0.000000 -0.383333 0.432719 0.000000 -0.445962 0.428856 0.000000 -0.513016 0.425643 0.000000 -0.574897 0.418537 0.000000 -0.640001 0.412306 0.000000 -0.700191 0.401878 0.000000 -0.762296 0.392537 0.000000 -0.819812 0.378796 0.000000 -0.877864 0.366331 0.000000 -0.931712 0.349380 0.000000 -0.984681 0.333868 0.000000 -1.033883 0.313903 0.000000 -1.080799 0.295515 0.000000 -1.124427 0.272830 0.000000 -1.164409 0.251832 0.000000 -1.201613 0.226811 0.000000 -1.233903 0.203562 0.000000 -1.263948 0.176669 0.000000 -1.287938 0.151609 0.000000 -1.310232 0.123376 0.000000 -1.325486 0.097014 0.000000 -1.339604 0.068019 0.000000 -1.345879 0.040915 0.000000 -1.351582 0.011760 0.000000 -1.348836 -0.015502 0.000000 -1.346082 -0.044216 0.000000 -1.334471 -0.071050 0.000000 -1.323414 -0.098749 0.000000 -1.303288 -0.124597 0.000000 -1.284269 -0.150755 0.000000 -1.256148 -0.175112 0.000000 -1.229676 -0.199278 0.000000 -1.194227 -0.221710 0.000000 -1.160953 -0.243518 0.000000 -1.118958 -0.263679 0.000000 -1.079636 -0.282858 0.000000 -1.031957 -0.300500 0.000000 -0.987419 -0.316879 0.000000 -0.934961 -0.331849 0.000000 -0.886073 -0.345348 0.000000 -0.829755 -0.357586 0.000000 -0.777389 -0.368211 0.000000 -0.718112 -0.377736 0.000000 -0.663121 -0.385561 0.000000 -0.601750 -0.392461 0.000000 -0.544941 -0.397616 0.000000 -0.482284 -0.402027 0.000000 -0.424411 -0.404681 0.000000 -0.361211 -0.406774 0.000000 -0.302960 -0.407118 0.000000 