# vtk DataFile Version 2.0
Comment goes here
ASCII

DATASET STRUCTURED_POINTS
FIELD FieldData 1
TIME 1 1 double
0.06000000
DIMENSIONS    128   128   1

ORIGIN    0.000   0.000   0.000
SPACING   0.039062 0.039062   1.000

POINT_DATA   16384
VECTORS u double

0.180219 0.000000 0.000000 0.212415 0.000000 0.000000 0.242360 0.000000 0.000000 0.273573 0.000000 0.000000 0.302644 0.000000 0.000000 0.332683 0.000000 0.000000 0.360679 0.000000 0.000000 0.389347 0.000000 0.000000 0.416059 0.000000 0.000000 0.443159 0.000000 0.000000 0.468375 0.000000 0.000000 0.493703 0.000000 0.000000 0.517205 0.000000 0.000000 0.540555 0.000000 0.000000 0.562119 0.000000 0.000000 0.583281 0.000000 0.000000 0.602685 0.000000 0.000000 0.621447 0.000000 0.000000 0.638469 0.000000 0.000000 0.654623 0.000000 0.000000 0.669047 0.000000 0.000000 0.682390 0.000000 0.000000 0.694012 0.000000 0.000000 0.704352 0.000000 0.000000 0.712984 0.000000 0.000000 0.720146 0.000000 0.000000 0.725623 0.000000 0.000000 0.729451 0.000000 0.000000 0.731636 0.000000 0.000000 0.732002 0.000000 0.000000 0.730792 0.000000 0.000000 0.727598 0.000000 0.000000 0.722923 0.000000 0.000000 0.716107 0.000000 0.000000 0.707942 0.000000 0.000000 0.697479 0.000000 0.000000 0.685837 0.000000 0.000000 0.671745 0.000000 0.000000 0.656682 0.000000 0.000000 0.639020 0.000000 0.000000 0.620634 0.000000 0.000000 0.599507 0.000000 0.000000 0.577935 0.000000 0.000000 0.553488 0.000000 0.000000 0.528908 0.000000 0.000000 0.501330 0.000000 0.000000 0.473954 0.000000 0.000000 0.443475 0.000000 0.000000 0.413552 0.000000 0.000000 0.380441 0.000000 0.000000 0.348251 0.000000 0.000000 0.312815 0.000000 0.000000 0.278668 0.000000 0.000000 0.241248 0.000000 0.000000 0.205486 0.000000 0.000000 0.166457 0.000000 0.000000 0.129449 0.000000 0.000000 0.089215 0.000000 0.000000 0.051357 0.000000 0.000000 0.010351 0.000000 0.000000 -0.027938 0.000000 0.000000 -0.069259 0.000000 0.000000 -0.107538 0.000000 0.000000 -0.148699 0.000000 0.000000 -0.186510 0.000000 0.000000 -0.227018 0.000000 0.000000 -0.263894 0.000000 0.000000 -0.303251 0.000000 0.000000 -0.338720 0.000000 0.000000 -0.376425 0.000000 0.000000 -0.410023 0.000000 0.000000 -0.445583 0.000000 0.000000 -0.476865 0.000000 0.000000 -0.509806 0.000000 0.000000 -0.538354 0.000000 0.000000 -0.568231 0.000000 0.000000 -0.593669 0.000000 0.000000 -0.620080 0.000000 0.000000 -0.642086 0.000000 0.000000 -0.664679 0.000000 0.000000 -0.682995 0.000000 0.000000 -0.701484 0.000000 0.000000 -0.715922 0.000000 0.000000 -0.730093 0.000000 0.000000 -0.740543 0.000000 0.000000 -0.750264 0.000000 0.000000 -0.756689 0.000000 0.000000 -0.761909 0.000000 0.000000 -0.764348 0.000000 0.000000 -0.765102 0.000000 0.000000 -0.763659 0.000000 0.000000 -0.760057 0.000000 0.000000 -0.754892 0.000000 0.000000 -0.747115 0.000000 0.000000 -0.738434 0.000000 0.000000 -0.726723 0.000000 0.000000 -0.714762 0.000000 0.000000 -0.699402 0.000000 0.000000 -0.684419 0.000000 0.000000 -0.665729 0.000000 0.000000 -0.647992 0.000000 0.000000 -0.626309 0.000000 0.000000 -0.606089 0.000000 0.000000 -0.581758 0.000000 0.000000 -0.559325 0.000000 0.000000 -0.532692 0.000000 0.000000 -0.508307 0.000000 0.000000 -0.479708 0.000000 0.000000 -0.453628 0.000000 0.000000 -0.423389 0.000000 0.000000 -0.395859 0.000000 0.000000 -0.364289 0.000000 0.000000 -0.335550 0.000000 0.000000 -0.302941 0.000000 0.000000 -0.273223 0.000000 0.000000 -0.239852 0.000000 0.000000 -0.209380 0.000000 0.000000 -0.175506 0.000000 0.000000 -0.144496 0.000000 0.000000 -0.110363 0.000000 0.000000 -0.079028 0.000000 0.000000 -0.044865 0.000000 0.000000 -0.013409 0.000000 0.000000 0.020566 0.000000 0.000000 0.051941 0.000000 0.000000 0.085521 0.000000 0.000000 0.116616 0.000000 0.000000 0.149601 0.000000 0.000000 
0.179926 -0.031407 0.000000 0.212182 -0.031070 0.000000 0.242135 -0.030579 0.000000 0.273410 -0.030142 0.000000 0.302484 -0.029555 0.000000 0.332585 -0.029017 0.000000 0.360578 -0.028332 0.000000 0.389311 -0.027690 0.000000 0.416016 -0.026906 0.000000 0.443181 -0.026158 0.000000 0.468386 -0.025272 0.000000 0.493782 -0.024415 0.000000 0.517270 -0.023426 0.000000 0.540689 -0.022457 0.000000 0.562237 -0.021363 0.000000 0.583470 -0.020283 0.000000 0.602856 -0.019083 0.000000 0.621691 -0.017892 0.000000 0.638693 -0.016588 0.000000 0.654922 -0.015289 0.000000 0.669324 -0.013884 0.000000 0.682743 -0.012482 0.000000 0.694341 -0.010981 0.000000 0.704759 -0.009486 0.000000 0.713365 -0.007897 0.000000 0.720605 -0.006319 0.000000 0.726055 -0.004653 0.000000 0.729962 -0.003007 0.000000 0.732117 -0.001276 0.000000 0.732562 0.000422 0.000000 0.731320 0.002202 0.000000 0.728204 0.003934 0.000000 0.723497 0.005745 0.000000 0.716758 0.007491 0.000000 0.708558 0.009314 0.000000 0.698173 0.011052 0.000000 0.686494 0.012867 0.000000 0.672479 0.014578 0.000000 0.657379 0.016362 0.000000 0.639792 0.018024 0.000000 0.621368 0.019757 0.000000 0.600314 0.021350 0.000000 0.578705 0.023009 0.000000 0.554330 0.024514 0.000000 0.529712 0.026079 0.000000 0.502204 0.027477 0.000000 0.474791 0.028927 0.000000 0.444379 0.030201 0.000000 0.414419 0.031517 0.000000 0.381371 0.032651 0.000000 0.349145 0.033813 0.000000 0.313767 0.034791 0.000000 0.279585 0.035783 0.000000 0.242217 0.036591 0.000000 0.206421 0.037396 0.000000 0.167436 0.038019 0.000000 0.130394 0.038621 0.000000 0.090195 0.039046 0.000000 0.052303 0.039432 0.000000 0.011322 0.039647 0.000000 -0.027001 0.039805 0.000000 -0.068310 0.039800 0.000000 -0.106623 0.039720 0.000000 -0.147784 0.039486 0.000000 -0.185630 0.039160 0.000000 -0.226154 0.038692 0.000000 -0.263064 0.038116 0.000000 -0.302453 0.037413 0.000000 -0.337956 0.036587 0.000000 -0.375710 0.035652 0.000000 -0.409341 0.034579 0.000000 -0.444969 0.033421 0.000000 -0.476282 0.032111 0.000000 -0.509309 0.030744 0.000000 -0.537886 0.029213 0.000000 -0.567868 0.027658 0.000000 -0.593333 0.025924 0.000000 -0.619865 0.024208 0.000000 -0.641895 0.022300 0.000000 -0.664625 0.020454 0.000000 -0.682961 0.018402 0.000000 -0.701601 0.016464 0.000000 -0.716055 0.014305 0.000000 -0.730389 0.012310 0.000000 -0.740848 0.010085 0.000000 -0.750740 0.008073 0.000000 -0.757168 0.005823 0.000000 -0.762563 0.003830 0.000000 -0.764998 0.001596 0.000000 -0.765925 -0.000345 0.000000 -0.764470 -0.002523 0.000000 -0.761037 -0.004383 0.000000 -0.755850 -0.006471 0.000000 -0.748233 -0.008229 0.000000 -0.739520 -0.010196 0.000000 -0.727955 -0.011836 0.000000 -0.715951 -0.013660 0.000000 -0.700720 -0.015171 0.000000 -0.685684 -0.016837 0.000000 -0.667103 -0.018214 0.000000 -0.649303 -0.019710 0.000000 -0.627708 -0.020951 0.000000 -0.607416 -0.022275 0.000000 -0.583152 -0.023382 0.000000 -0.560638 -0.024533 0.000000 -0.534051 -0.025509 0.000000 -0.509582 -0.026492 0.000000 -0.481008 -0.027340 0.000000 -0.454841 -0.028160 0.000000 -0.424609 -0.028884 0.000000 -0.396993 -0.029550 0.000000 -0.365415 -0.030155 0.000000 -0.336592 -0.030674 0.000000 -0.303962 -0.031163 0.000000 -0.274165 -0.031544 0.000000 -0.240763 -0.031922 0.000000 -0.210219 -0.032173 0.000000 -0.176304 -0.032442 0.000000 -0.145232 -0.032571 0.000000 -0.111052 -0.032734 0.000000 -0.079663 -0.032749 0.000000 -0.045448 -0.032809 0.000000 -0.013949 -0.032716 0.000000 0.020081 -0.032675 0.000000 0.051490 -0.032477 0.000000 0.085127 -0.032338 0.000000 0.116247 -0.032040 0.000000 0.149291 -0.031802 0.000000 
0.180951 -0.062891 0.000000 0.213243 -0.062209 0.000000 0.243287 -0.061228 0.000000 0.274597 -0.060349 0.000000 0.303770 -0.059175 0.000000 0.333905 -0.058094 0.000000 0.362005 -0.056725 0.000000 0.390772 -0.055437 0.000000 0.417592 -0.053871 0.000000 0.444793 -0.052371 0.000000 0.470118 -0.050601 0.000000 0.495550 -0.048883 0.000000 0.519162 -0.046907 0.000000 0.542617 -0.044968 0.000000 0.564294 -0.042781 0.000000 0.585561 -0.040619 0.000000 0.605076 -0.038221 0.000000 0.623942 -0.035837 0.000000 0.641072 -0.033230 0.000000 0.657327 -0.030631 0.000000 0.671853 -0.027821 0.000000 0.685292 -0.025017 0.000000 0.697008 -0.022016 0.000000 0.707436 -0.019024 0.000000 0.716151 -0.015846 0.000000 0.723390 -0.012690 0.000000 0.728935 -0.009356 0.000000 0.732828 -0.006063 0.000000 0.735065 -0.002600 0.000000 0.735480 0.000798 0.000000 0.734303 0.004358 0.000000 0.731140 0.007823 0.000000 0.726480 0.011446 0.000000 0.719675 0.014938 0.000000 0.711503 0.018586 0.000000 0.701032 0.022064 0.000000 0.689362 0.025694 0.000000 0.675240 0.029116 0.000000 0.660128 0.032686 0.000000 0.642415 0.036010 0.000000 0.623959 0.039478 0.000000 0.602758 0.042663 0.000000 0.581098 0.045985 0.000000 0.556556 0.048993 0.000000 0.531870 0.052126 0.000000 0.504177 0.054921 0.000000 0.476677 0.057825 0.000000 0.446064 0.060372 0.000000 0.416000 0.063008 0.000000 0.382736 0.065274 0.000000 0.350390 0.067605 0.000000 0.314783 0.069560 0.000000 0.280466 0.071550 0.000000 0.242858 0.073165 0.000000 0.206912 0.074781 0.000000 0.167680 0.076027 0.000000 0.130474 0.077240 0.000000 0.090024 0.078091 0.000000 0.051956 0.078873 0.000000 0.010722 0.079304 0.000000 -0.027788 0.079632 0.000000 -0.069347 0.079622 0.000000 -0.107855 0.079474 0.000000 -0.149261 0.079007 0.000000 -0.187306 0.078370 0.000000 -0.228065 0.077434 0.000000 -0.265176 0.076299 0.000000 -0.304783 0.074892 0.000000 -0.340484 0.073257 0.000000 -0.378435 0.071386 0.000000 -0.412257 0.069259 0.000000 -0.448054 0.066941 0.000000 -0.479544 0.064340 0.000000 -0.512707 0.061604 0.000000 -0.541443 0.058559 0.000000 -0.571522 0.055447 0.000000 -0.597121 0.051997 0.000000 -0.623707 0.048562 0.000000 -0.645843 0.044761 0.000000 -0.668579 0.041066 0.000000 -0.686989 0.036976 0.000000 -0.705584 0.033094 0.000000 -0.720078 0.028788 0.000000 -0.734316 0.024793 0.000000 -0.744783 0.020350 0.000000 -0.754529 0.016320 0.000000 -0.760934 0.011823 0.000000 -0.766139 0.007830 0.000000 -0.768525 0.003362 0.000000 -0.769223 -0.000528 0.000000 -0.767700 -0.004889 0.000000 -0.764007 -0.008620 0.000000 -0.758740 -0.012804 0.000000 -0.750844 -0.016330 0.000000 -0.742043 -0.020278 0.000000 -0.730190 -0.023569 0.000000 -0.718099 -0.027234 0.000000 -0.702581 -0.030267 0.000000 -0.687463 -0.033617 0.000000 -0.668604 -0.036381 0.000000 -0.650732 -0.039395 0.000000 -0.628875 -0.041887 0.000000 -0.608521 -0.044556 0.000000 -0.584018 -0.046777 0.000000 -0.561453 -0.049101 0.000000 -0.534651 -0.051057 0.000000 -0.510139 -0.053042 0.000000 -0.481378 -0.054741 0.000000 -0.455173 -0.056399 0.000000 -0.424779 -0.057848 0.000000 -0.397130 -0.059195 0.000000 -0.365414 -0.060402 0.000000 -0.336558 -0.061453 0.000000 -0.303812 -0.062426 0.000000 -0.273982 -0.063199 0.000000 -0.240482 -0.063947 0.000000 -0.209900 -0.064458 0.000000 -0.175905 -0.064987 0.000000 -0.144789 -0.065253 0.000000 -0.110542 -0.065569 0.000000 -0.079103 -0.065604 0.000000 -0.044831 -0.065714 0.000000 -0.013275 -0.065530 0.000000 0.020804 -0.065439 0.000000 0.052278 -0.065046 0.000000 0.085958 -0.064757 0.000000 0.117151 -0.064164 0.000000 0.150234 -0.063679 0.000000 
0.181395 -0.094416 0.000000 0.213844 -0.093406 0.000000 0.243996 -0.091933 0.000000 0.275463 -0.090625 0.000000 0.304739 -0.088864 0.000000 0.335035 -0.087252 0.000000 0.363234 -0.085199 0.000000 0.392165 -0.083277 0.000000 0.419082 -0.080926 0.000000 0.446451 -0.078684 0.000000 0.471873 -0.076029 0.000000 0.497476 -0.073459 0.000000 0.521185 -0.070493 0.000000 0.544815 -0.067589 0.000000 0.566586 -0.064307 0.000000 0.588030 -0.061065 0.000000 0.607637 -0.057465 0.000000 0.626682 -0.053888 0.000000 0.643899 -0.049973 0.000000 0.660330 -0.046070 0.000000 0.674937 -0.041849 0.000000 0.688548 -0.037637 0.000000 0.700334 -0.033125 0.000000 0.710928 -0.028629 0.000000 0.719699 -0.023850 0.000000 0.727095 -0.019104 0.000000 0.732681 -0.014091 0.000000 0.736717 -0.009137 0.000000 0.738977 -0.003928 0.000000 0.739520 0.001185 0.000000 0.738345 0.006542 0.000000 0.735292 0.011757 0.000000 0.730612 0.017210 0.000000 0.723897 0.022467 0.000000 0.715684 0.027958 0.000000 0.705280 0.033194 0.000000 0.693546 0.038659 0.000000 0.679470 0.043812 0.000000 0.664272 0.049187 0.000000 0.646582 0.054193 0.000000 0.628020 0.059413 0.000000 0.606820 0.064210 0.000000 0.585034 0.069211 0.000000 0.560469 0.073742 0.000000 0.535638 0.078459 0.000000 0.507900 0.082669 0.000000 0.480240 0.087040 0.000000 0.449558 0.090878 0.000000 0.419319 0.094845 0.000000 0.385965 0.098261 0.000000 0.353427 0.101767 0.000000 0.317708 0.104716 0.000000 0.283186 0.107708 0.000000 0.245444 0.110145 0.000000 0.209279 0.112574 0.000000 0.169890 0.114456 0.000000 0.132453 0.116276 0.000000 0.091823 0.117564 0.000000 0.053511 0.118735 0.000000 0.012075 0.119391 0.000000 -0.026689 0.119874 0.000000 -0.068472 0.119867 0.000000 -0.107243 0.119634 0.000000 -0.148894 0.118937 0.000000 -0.187208 0.117963 0.000000 -0.228230 0.116561 0.000000 -0.265611 0.114834 0.000000 -0.305499 0.112721 0.000000 -0.341467 0.110239 0.000000 -0.379713 0.107425 0.000000 -0.413791 0.104198 0.000000 -0.449893 0.100708 0.000000 -0.481623 0.096765 0.000000 -0.515095 0.092643 0.000000 -0.544049 0.088027 0.000000 -0.574435 0.083336 0.000000 -0.600223 0.078109 0.000000 -0.627107 0.072930 0.000000 -0.649396 0.067171 0.000000 -0.672415 0.061600 0.000000 -0.690939 0.055407 0.000000 -0.709796 0.049553 0.000000 -0.724361 0.043037 0.000000 -0.738832 0.037015 0.000000 -0.749327 0.030298 0.000000 -0.759272 0.024225 0.000000 -0.765663 0.017433 0.000000 -0.771030 0.011421 0.000000 -0.773361 0.004681 0.000000 -0.774182 -0.001170 0.000000 -0.772567 -0.007739 0.000000 -0.768957 -0.013343 0.000000 -0.763566 -0.019634 0.000000 -0.755713 -0.024925 0.000000 -0.746762 -0.030850 0.000000 -0.734915 -0.035780 0.000000 -0.722653 -0.041269 0.000000 -0.707107 -0.045807 0.000000 -0.691801 -0.050813 0.000000 -0.672885 -0.054945 0.000000 -0.654811 -0.059439 0.000000 -0.632871 -0.063162 0.000000 -0.612308 -0.067132 0.000000 -0.587699 -0.070450 0.000000 -0.564921 -0.073900 0.000000 -0.537994 -0.076823 0.000000 -0.513267 -0.079765 0.000000 -0.484367 -0.082305 0.000000 -0.457950 -0.084758 0.000000 -0.427406 -0.086928 0.000000 -0.399548 -0.088916 0.000000 -0.367674 -0.090727 0.000000 -0.338618 -0.092275 0.000000 -0.305709 -0.093740 0.000000 -0.275687 -0.094875 0.000000 -0.242022 -0.096003 0.000000 -0.211259 -0.096750 0.000000 -0.177099 -0.097553 0.000000 -0.145815 -0.097935 0.000000 -0.111403 -0.098421 0.000000 -0.079808 -0.098459 0.000000 -0.045375 -0.098637 0.000000 -0.013674 -0.098351 0.000000 0.020565 -0.098228 0.000000 0.052171 -0.097631 0.000000 0.086009 -0.097211 0.000000 0.117325 -0.096316 0.000000 0.150564 -0.095602 0.000000 
0.183146 -0.126170 0.000000 0.215726 -0.124810 0.000000 0.246068 -0.122847 0.000000 0.277665 -0.121092 0.000000 0.307142 -0.118747 0.000000 0.337569 -0.116589 0.000000 0.365980 -0.113856 0.000000 0.395045 -0.111286 0.000000 0.422184 -0.108156 0.000000 0.449689 -0.105161 0.000000 0.475342 -0.101627 0.000000 0.501085 -0.098195 0.000000 0.525032 -0.094245 0.000000 0.548803 -0.090369 0.000000 0.570817 -0.085997 0.000000 0.592402 -0.081670 0.000000 0.612252 -0.076873 0.000000 0.631433 -0.072098 0.000000 0.648889 -0.066879 0.000000 0.665450 -0.061669 0.000000 0.680286 -0.056039 0.000000 0.694015 -0.050414 0.000000 0.706015 -0.044395 0.000000 0.716710 -0.038390 0.000000 0.725675 -0.032013 0.000000 0.733148 -0.025671 0.000000 0.738903 -0.018979 0.000000 0.742990 -0.012358 0.000000 0.745387 -0.005403 0.000000 0.745949 0.001430 0.000000 0.744875 0.008585 0.000000 0.741807 0.015556 0.000000 0.737190 0.022840 0.000000 0.730422 0.029867 0.000000 0.722230 0.037203 0.000000 0.711732 0.044201 0.000000 0.699979 0.051504 0.000000 0.685766 0.058390 0.000000 0.670508 0.065574 0.000000 0.652638 0.072262 0.000000 0.633976 0.079241 0.000000 0.612553 0.085650 0.000000 0.590628 0.092335 0.000000 0.565801 0.098388 0.000000 0.540794 0.104695 0.000000 0.512754 0.110319 0.000000 0.484882 0.116166 0.000000 0.453863 0.121293 0.000000 0.423379 0.126601 0.000000 0.389653 0.131166 0.000000 0.356839 0.135861 0.000000 0.320717 0.139802 0.000000 0.285888 0.143814 0.000000 0.247717 0.147071 0.000000 0.211217 0.150335 0.000000 0.171376 0.152853 0.000000 0.133575 0.155307 0.000000 0.092475 0.157032 0.000000 0.053775 0.158621 0.000000 0.011854 0.159504 0.000000 -0.027319 0.160179 0.000000 -0.069596 0.160176 0.000000 -0.108793 0.159896 0.000000 -0.150939 0.158971 0.000000 -0.189690 0.157706 0.000000 -0.231202 0.155837 0.000000 -0.269024 0.153568 0.000000 -0.309386 0.150748 0.000000 -0.345789 0.147470 0.000000 -0.384483 0.143710 0.000000 -0.418981 0.139439 0.000000 -0.455495 0.134773 0.000000 -0.487617 0.129543 0.000000 -0.521454 0.124030 0.000000 -0.550758 0.117898 0.000000 -0.581449 0.111621 0.000000 -0.607536 0.104669 0.000000 -0.634653 0.097736 0.000000 -0.657181 0.090069 0.000000 -0.680351 0.082609 0.000000 -0.699044 0.074357 0.000000 -0.717963 0.066516 0.000000 -0.732624 0.057824 0.000000 -0.747064 0.049759 0.000000 -0.757581 0.040790 0.000000 -0.767402 0.032656 0.000000 -0.773746 0.023581 0.000000 -0.778900 0.015528 0.000000 -0.781124 0.006514 0.000000 -0.781652 -0.001322 0.000000 -0.779880 -0.010114 0.000000 -0.775911 -0.017621 0.000000 -0.770329 -0.026047 0.000000 -0.762067 -0.033134 0.000000 -0.752904 -0.041076 0.000000 -0.740616 -0.047678 0.000000 -0.728133 -0.055042 0.000000 -0.712131 -0.061119 0.000000 -0.696607 -0.067840 0.000000 -0.677236 -0.073371 0.000000 -0.658953 -0.079409 0.000000 -0.636573 -0.084390 0.000000 -0.615814 -0.089728 0.000000 -0.590790 -0.094165 0.000000 -0.567830 -0.098806 0.000000 -0.540519 -0.102710 0.000000 -0.515624 -0.106669 0.000000 -0.486374 -0.110058 0.000000 -0.459799 -0.113360 0.000000 -0.428939 -0.116249 0.000000 -0.400932 -0.118926 0.000000 -0.368775 -0.121332 0.000000 -0.339573 -0.123418 0.000000 -0.306413 -0.125357 0.000000 -0.276247 -0.126886 0.000000 -0.242358 -0.128374 0.000000 -0.211451 -0.129381 0.000000 -0.177090 -0.130432 0.000000 -0.145659 -0.130949 0.000000 -0.111067 -0.131576 0.000000 -0.079320 -0.131632 0.000000 -0.044723 -0.131848 0.000000 -0.012866 -0.131469 0.000000 0.021523 -0.131284 0.000000 0.053294 -0.130490 0.000000 0.087273 -0.129911 0.000000 0.118760 -0.128719 0.000000 0.152134 -0.127750 0.000000 
0.184335 -0.158007 0.000000 0.217166 -0.156328 0.000000 0.247712 -0.153872 0.000000 0.279563 -0.151699 0.000000 0.309241 -0.148767 0.000000 0.339925 -0.146091 0.000000 0.368537 -0.142675 0.000000 0.397864 -0.139481 0.000000 0.425206 -0.135571 0.000000 0.452980 -0.131843 0.000000 0.478838 -0.127425 0.000000 0.504856 -0.123149 0.000000 0.529010 -0.118211 0.000000 0.553062 -0.113374 0.000000 0.575284 -0.107905 0.000000 0.597153 -0.102500 0.000000 0.617208 -0.096496 0.000000 0.636674 -0.090526 0.000000 0.654327 -0.083990 0.000000 0.671170 -0.077467 0.000000 0.686190 -0.070413 0.000000 0.700191 -0.063366 0.000000 0.712358 -0.055819 0.000000 0.723310 -0.048289 0.000000 0.732417 -0.040289 0.000000 0.740128 -0.032332 0.000000 0.745994 -0.023932 0.000000 0.750292 -0.015620 0.000000 0.752765 -0.006887 0.000000 0.753507 0.001696 0.000000 0.752470 0.010684 0.000000 0.749546 0.019443 0.000000 0.744923 0.028596 0.000000 0.738258 0.037428 0.000000 0.730017 0.046647 0.000000 0.719581 0.055445 0.000000 0.707734 0.064626 0.000000 0.693538 0.073283 0.000000 0.678143 0.082315 0.000000 0.660246 0.090725 0.000000 0.641406 0.099498 0.000000 0.619911 0.107558 0.000000 0.597769 0.115963 0.000000 0.572825 0.123576 0.000000 0.547566 0.131506 0.000000 0.519366 0.138581 0.000000 0.491209 0.145931 0.000000 0.459987 0.152382 0.000000 0.429185 0.159055 0.000000 0.395217 0.164801 0.000000 0.362056 0.170702 0.000000 0.325653 0.175666 0.000000 0.290447 0.180708 0.000000 0.251956 0.184816 0.000000 0.215051 0.188915 0.000000 0.174853 0.192097 0.000000 0.136622 0.195177 0.000000 0.095127 0.197365 0.000000 0.055972 0.199355 0.000000 0.013623 0.200485 0.000000 -0.026028 0.201324 0.000000 -0.068766 0.201341 0.000000 -0.108458 0.200977 0.000000 -0.151095 0.199835 0.000000 -0.190353 0.198226 0.000000 -0.232379 0.195895 0.000000 -0.270712 0.193018 0.000000 -0.311608 0.189486 0.000000 -0.348515 0.185336 0.000000 -0.387755 0.180617 0.000000 -0.422739 0.175210 0.000000 -0.459799 0.169344 0.000000 -0.492378 0.162724 0.000000 -0.526752 0.155784 0.000000 -0.556469 0.148022 0.000000 -0.587675 0.140114 0.000000 -0.614119 0.131314 0.000000 -0.641718 0.122574 0.000000 -0.664533 0.112870 0.000000 -0.688140 0.103464 0.000000 -0.707044 0.093019 0.000000 -0.726340 0.083133 0.000000 -0.741130 0.072138 0.000000 -0.755879 0.061972 0.000000 -0.766441 0.050636 0.000000 -0.776494 0.040390 0.000000 -0.782803 0.028930 0.000000 -0.788108 0.018798 0.000000 -0.790222 0.007433 0.000000 -0.790822 -0.002414 0.000000 -0.788875 -0.013479 0.000000 -0.784901 -0.022895 0.000000 -0.779089 -0.033479 0.000000 -0.770752 -0.042350 0.000000 -0.761315 -0.052301 0.000000 -0.748891 -0.060551 0.000000 -0.736103 -0.069753 0.000000 -0.719913 -0.077334 0.000000 -0.704061 -0.085709 0.000000 -0.684461 -0.092599 0.000000 -0.665837 -0.100102 0.000000 -0.643197 -0.106300 0.000000 -0.622089 -0.112916 0.000000 -0.596782 -0.118435 0.000000 -0.573471 -0.124171 0.000000 -0.545863 -0.129029 0.000000 -0.520619 -0.133911 0.000000 -0.491062 -0.138130 0.000000 -0.464145 -0.142193 0.000000 -0.432975 -0.145794 0.000000 -0.404634 -0.149080 0.000000 -0.372169 -0.152085 0.000000 -0.342645 -0.154638 0.000000 -0.309180 -0.157066 0.000000 -0.278705 -0.158930 0.000000 -0.244518 -0.160799 0.000000 -0.213319 -0.162018 0.000000 -0.178668 -0.163345 0.000000 -0.146960 -0.163958 0.000000 -0.112088 -0.164759 0.000000 -0.080081 -0.164803 0.000000 -0.045213 -0.165092 0.000000 -0.013110 -0.164598 0.000000 0.021543 -0.164387 0.000000 0.053543 -0.163380 0.000000 0.087779 -0.162677 0.000000 0.119486 -0.161178 0.000000 0.153113 -0.159987 0.000000 
0.186804 -0.190223 0.000000 0.219860 -0.188187 0.000000 0.250695 -0.185244 0.000000 0.282770 -0.182621 0.000000 0.312750 -0.179108 0.000000 0.343661 -0.175885 0.000000 0.372589 -0.171795 0.000000 0.402148 -0.167954 0.000000 0.429820 -0.163272 0.000000 0.457833 -0.158794 0.000000 0.484035 -0.153503 0.000000 0.510299 -0.148367 0.000000 0.534806 -0.142452 0.000000 0.559108 -0.136642 0.000000 0.581689 -0.130087 0.000000 0.603810 -0.123594 0.000000 0.624225 -0.116394 0.000000 0.643939 -0.109218 0.000000 0.661946 -0.101375 0.000000 0.679026 -0.093532 0.000000 0.694387 -0.085061 0.000000 0.708608 -0.076582 0.000000 0.721091 -0.067514 0.000000 0.732239 -0.058449 0.000000 0.741631 -0.048831 0.000000 0.749504 -0.039248 0.000000 0.755614 -0.029143 0.000000 0.760034 -0.019130 0.000000 0.762702 -0.008618 0.000000 0.763519 0.001724 0.000000 0.762622 0.012547 0.000000 0.759718 0.023103 0.000000 0.755175 0.034128 0.000000 0.748471 0.044773 0.000000 0.740247 0.055880 0.000000 0.729709 0.066485 0.000000 0.717815 0.077547 0.000000 0.703453 0.087980 0.000000 0.687948 0.098866 0.000000 0.669818 0.109000 0.000000 0.650807 0.119576 0.000000 0.629014 0.129286 0.000000 0.606643 0.139420 0.000000 0.581338 0.148591 0.000000 0.555793 0.158155 0.000000 0.527173 0.166677 0.000000 0.498678 0.175545 0.000000 0.466979 0.183316 0.000000 0.435790 0.191372 0.000000 0.401291 0.198295 0.000000 0.367695 0.205426 0.000000 0.330713 0.211410 0.000000 0.295028 0.217510 0.000000 0.255913 0.222467 0.000000 0.218486 0.227438 0.000000 0.177625 0.231283 0.000000 0.138830 0.235032 0.000000 0.096640 0.237682 0.000000 0.056882 0.240126 0.000000 0.013810 0.241504 0.000000 -0.026477 0.242568 0.000000 -0.069958 0.242606 0.000000 -0.110314 0.242225 0.000000 -0.153703 0.240866 0.000000 -0.193644 0.238991 0.000000 -0.236424 0.236197 0.000000 -0.275446 0.232796 0.000000 -0.317082 0.228551 0.000000 -0.354673 0.223617 0.000000 -0.394624 0.217934 0.000000 -0.430268 0.211484 0.000000 -0.467996 0.204412 0.000000 -0.501191 0.196495 0.000000 -0.536170 0.188120 0.000000 -0.566442 0.178822 0.000000 -0.598172 0.169271 0.000000 -0.625090 0.158712 0.000000 -0.653112 0.148150 0.000000 -0.676306 0.136491 0.000000 -0.700217 0.125120 0.000000 -0.719389 0.112557 0.000000 -0.738859 0.100602 0.000000 -0.753800 0.087363 0.000000 -0.768583 0.075069 0.000000 -0.779177 0.061406 0.000000 -0.789123 0.049018 0.000000 -0.795352 0.035195 0.000000 -0.800413 0.022947 0.000000 -0.802349 0.009228 0.000000 -0.802579 -0.002670 0.000000 -0.800374 -0.016035 0.000000 -0.795925 -0.027407 0.000000 -0.789797 -0.040197 0.000000 -0.780903 -0.050907 0.000000 -0.771116 -0.062937 0.000000 -0.758080 -0.072891 0.000000 -0.744926 -0.084020 0.000000 -0.728097 -0.093161 0.000000 -0.711881 -0.103292 0.000000 -0.691638 -0.111595 0.000000 -0.672663 -0.120673 0.000000 -0.649396 -0.128138 0.000000 -0.627956 -0.136143 0.000000 -0.602052 -0.142783 0.000000 -0.578430 -0.149725 0.000000 -0.550265 -0.155563 0.000000 -0.524730 -0.161470 0.000000 -0.494660 -0.166532 0.000000 -0.467467 -0.171447 0.000000 -0.435830 -0.175760 0.000000 -0.407226 -0.179733 0.000000 -0.374336 -0.183322 0.000000 -0.344557 -0.186407 0.000000 -0.310708 -0.189296 0.000000 -0.279983 -0.191548 0.000000 -0.245448 -0.193761 0.000000 -0.213999 -0.195231 0.000000 -0.179032 -0.196790 0.000000 -0.147074 -0.197529 0.000000 -0.111913 -0.198455 0.000000 -0.079654 -0.198507 0.000000 -0.044519 -0.198819 0.000000 -0.012161 -0.198224 0.000000 0.022740 -0.197937 0.000000 0.055002 -0.196727 0.000000 0.089475 -0.195853 0.000000 0.121450 -0.194053 0.000000 0.155305 -0.192598 0.000000 
0.188745 -0.222562 0.000000 0.222144 -0.220219 0.000000 0.253278 -0.216782 0.000000 0.285698 -0.213754 0.000000 0.315976 -0.209658 0.000000 0.347238 -0.205930 0.000000 0.376467 -0.201163 0.000000 0.406386 -0.196712 0.000000 0.434365 -0.191256 0.000000 0.462747 -0.186058 0.000000 0.489263 -0.179891 0.000000 0.515907 -0.173920 0.000000 0.540735 -0.167021 0.000000 0.565426 -0.160257 0.000000 0.588330 -0.152607 0.000000 0.610846 -0.145036 0.000000 0.631583 -0.136625 0.000000 0.651692 -0.128247 0.000000 0.670013 -0.119077 0.000000 0.687482 -0.109907 0.000000 0.703139 -0.099995 0.000000 0.717737 -0.090070 0.000000 0.730490 -0.079450 0.000000 0.741991 -0.068828 0.000000 0.751617 -0.057555 0.000000 0.759814 -0.046315 0.000000 0.766112 -0.034463 0.000000 0.770816 -0.022709 0.000000 0.773619 -0.010372 0.000000 0.774670 0.001776 0.000000 0.773849 0.014485 0.000000 0.771125 0.026890 0.000000 0.766593 0.039842 0.000000 0.760009 0.052355 0.000000 0.751728 0.065409 0.000000 0.741245 0.077877 0.000000 0.729228 0.090882 0.000000 0.714854 0.103150 0.000000 0.699161 0.115949 0.000000 0.680951 0.127866 0.000000 0.661689 0.140302 0.000000 0.639750 0.151722 0.000000 0.617070 0.163639 0.000000 0.591553 0.174425 0.000000 0.565645 0.185672 0.000000 0.536748 0.195696 0.000000 0.507840 0.206125 0.000000 0.475804 0.215270 0.000000 0.444155 0.224743 0.000000 0.409260 0.232895 0.000000 0.375160 0.241280 0.000000 0.337724 0.248333 0.000000 0.301492 0.255507 0.000000 0.261870 0.261358 0.000000 0.223852 0.267204 0.000000 0.182431 0.271753 0.000000 0.143006 0.276162 0.000000 0.100205 0.279312 0.000000 0.059779 0.282185 0.000000 0.016048 0.283845 0.000000 -0.024943 0.285092 0.000000 -0.069126 0.285178 0.000000 -0.110215 0.284722 0.000000 -0.154345 0.283165 0.000000 -0.195039 0.280947 0.000000 -0.238591 0.277697 0.000000 -0.278375 0.273677 0.000000 -0.320805 0.268713 0.000000 -0.359150 0.262878 0.000000 -0.399905 0.256212 0.000000 -0.436279 0.248582 0.000000 -0.474806 0.240267 0.000000 -0.508687 0.230898 0.000000 -0.544443 0.221035 0.000000 -0.575336 0.210024 0.000000 -0.607803 0.198762 0.000000 -0.635257 0.186254 0.000000 -0.663957 0.173790 0.000000 -0.687582 0.159975 0.000000 -0.712094 0.146547 0.000000 -0.731579 0.131661 0.000000 -0.751553 0.117544 0.000000 -0.766681 0.101862 0.000000 -0.781855 0.087349 0.000000 -0.792510 0.071176 0.000000 -0.802725 0.056565 0.000000 -0.808891 0.040220 0.000000 -0.814094 0.025794 0.000000 -0.815855 0.009599 0.000000 -0.816104 -0.004388 0.000000 -0.813628 -0.020133 0.000000 -0.809080 -0.033472 0.000000 -0.802604 -0.048500 0.000000 -0.793508 -0.061031 0.000000 -0.783313 -0.075124 0.000000 -0.769988 -0.086741 0.000000 -0.756385 -0.099736 0.000000 -0.739198 -0.110379 0.000000 -0.722507 -0.122168 0.000000 -0.701854 -0.131817 0.000000 -0.682389 -0.142344 0.000000 -0.658677 -0.151007 0.000000 -0.636743 -0.160259 0.000000 -0.610372 -0.167961 0.000000 -0.586258 -0.175958 0.000000 -0.557615 -0.182730 0.000000 -0.531594 -0.189516 0.000000 -0.501045 -0.195392 0.000000 -0.473378 -0.201022 0.000000 -0.441266 -0.206036 0.000000 -0.412201 -0.210574 0.000000 -0.378846 -0.214754 0.000000 -0.348623 -0.218266 0.000000 -0.314323 -0.221640 0.000000 -0.283173 -0.224190 0.000000 -0.248204 -0.226783 0.000000 -0.216350 -0.228433 0.000000 -0.180968 -0.230269 0.000000 -0.148627 -0.231077 0.000000 -0.113067 -0.232179 0.000000 -0.080447 -0.232197 0.000000 -0.044930 -0.232585 0.000000 -0.012230 -0.231858 0.000000 0.023038 -0.231550 0.000000 0.055626 -0.230115 0.000000 0.090453 -0.229125 0.000000 0.122740 -0.227008 0.000000 0.156943 -0.225342 0.000000 