# vtk DataFile Version 2.0
Comment goes here
ASCII

DATASET STRUCTURED_POINTS
FIELD FieldData 1
TIME 1 1 double
0.03000000
DIMENSIONS    128   128   1

ORIGIN    0.000   0.000   0.000
SPACING   0.039062 0.039062   1.000

POINT_DATA   16384
VECTORS u double

0.726355 0.000000 0.000000 0.746525 0.000000 0.000000 0.773592 0.000000 0.000000 0.791405 0.000000 0.000000 0.816317 0.000000 0.000000 0.831627 0.000000 0.000000 0.854174 0.000000 0.000000 0.866809 0.000000 0.000000 0.886754 0.000000 0.000000 0.896518 0.000000 0.000000 0.913593 0.000000 0.000000 0.920274 0.000000 0.000000 0.934192 0.000000 0.000000 0.937565 0.000000 0.000000 0.948020 0.000000 0.000000 0.947859 0.000000 0.000000 0.954540 0.000000 0.000000 0.950622 0.000000 0.000000 0.953222 0.000000 0.000000 0.945340 0.000000 0.000000 0.943566 0.000000 0.000000 0.931540 0.000000 0.000000 0.925129 0.000000 0.000000 0.908817 0.000000 0.000000 0.897545 0.000000 0.000000 0.876852 0.000000 0.000000 0.860552 0.000000 0.000000 0.835439 0.000000 0.000000 0.814006 0.000000 0.000000 0.784498 0.000000 0.000000 0.757905 0.000000 0.000000 0.724099 0.000000 0.000000 0.692398 0.000000 0.000000 0.654465 0.000000 0.000000 0.617795 0.000000 0.000000 0.575981 0.000000 0.000000 0.534573 0.000000 0.000000 0.489202 0.000000 0.000000 0.443373 0.000000 0.000000 0.394843 0.000000 0.000000 0.344998 0.000000 0.000000 0.293779 0.000000 0.000000 0.240408 0.000000 0.000000 0.187036 0.000000 0.000000 0.130707 0.000000 0.000000 0.075782 0.000000 0.000000 0.017139 0.000000 0.000000 -0.038685 0.000000 0.000000 -0.098932 0.000000 0.000000 -0.154949 0.000000 0.000000 -0.216028 0.000000 0.000000 -0.271493 0.000000 0.000000 -0.332581 0.000000 0.000000 -0.386713 0.000000 0.000000 -0.446948 0.000000 0.000000 -0.498947 0.000000 0.000000 -0.557436 0.000000 0.000000 -0.606495 0.000000 0.000000 -0.662337 0.000000 0.000000 -0.707658 0.000000 0.000000 -0.759961 0.000000 0.000000 -0.800776 0.000000 0.000000 -0.848680 0.000000 0.000000 -0.884274 0.000000 0.000000 -0.926975 0.000000 0.000000 -0.956709 0.000000 0.000000 -0.993490 0.000000 0.000000 -1.016825 0.000000 0.000000 -1.047080 0.000000 0.000000 -1.063600 0.000000 0.000000 -1.086858 0.000000 0.000000 -1.096294 0.000000 0.000000 -1.112237 0.000000 0.000000 -1.114478 0.000000 0.000000 -1.122959 0.000000 0.000000 -1.118059 0.000000 0.000000 -1.119106 0.000000 0.000000 -1.107285 0.000000 0.000000 -1.101096 0.000000 0.000000 -1.082732 0.000000 0.000000 -1.069667 0.000000 0.000000 -1.045277 0.000000 0.000000 -1.025834 0.000000 0.000000 -0.996049 0.000000 0.000000 -0.970841 0.000000 0.000000 -0.936379 0.000000 0.000000 -0.906100 0.000000 0.000000 -0.867731 0.000000 0.000000 -0.833125 0.000000 0.000000 -0.791641 0.000000 0.000000 -0.753470 0.000000 0.000000 -0.709650 0.000000 0.000000 -0.668665 0.000000 0.000000 -0.623252 0.000000 0.000000 -0.580165 0.000000 0.000000 -0.533845 0.000000 0.000000 -0.489311 0.000000 0.000000 -0.442698 0.000000 0.000000 -0.397303 0.000000 0.000000 -0.350925 0.000000 0.000000 -0.305177 0.000000 0.000000 -0.259481 0.000000 0.000000 -0.213807 0.000000 0.000000 -0.169154 0.000000 0.000000 -0.123905 0.000000 0.000000 -0.080578 0.000000 0.000000 -0.036035 0.000000 0.000000 0.005753 0.000000 0.000000 0.049374 0.000000 0.000000 0.089468 0.000000 0.000000 0.132002 0.000000 0.000000 0.170298 0.000000 0.000000 0.211624 0.000000 0.000000 0.248052 0.000000 0.000000 0.288080 0.000000 0.000000 0.322597 0.000000 0.000000 0.361256 0.000000 0.000000 0.393835 0.000000 0.000000 0.431069 0.000000 0.000000 0.461687 0.000000 0.000000 0.497439 0.000000 0.000000 0.526072 0.000000 0.000000 0.560280 0.000000 0.000000 0.586894 0.000000 0.000000 0.619484 0.000000 0.000000 0.644029 0.000000 0.000000 0.674906 0.000000 0.000000 0.697310 0.000000 0.000000 
0.726343 -0.024607 0.000000 0.746431 -0.023618 0.000000 0.773472 -0.022440 0.000000 0.791208 -0.021362 0.000000 0.816099 -0.020111 0.000000 0.831336 -0.018929 0.000000 0.853870 -0.017591 0.000000 0.866436 -0.016290 0.000000 0.886374 -0.014854 0.000000 0.896074 -0.013420 0.000000 0.913150 -0.011878 0.000000 0.919772 -0.010299 0.000000 0.933697 -0.008646 0.000000 0.937016 -0.006914 0.000000 0.947487 -0.005147 0.000000 0.947276 -0.003260 0.000000 0.953979 -0.001381 0.000000 0.950016 0.000659 0.000000 0.952643 0.002641 0.000000 0.944721 0.004828 0.000000 0.942981 0.006900 0.000000 0.930920 0.009218 0.000000 0.924547 0.011362 0.000000 0.908205 0.013792 0.000000 0.896976 0.015982 0.000000 0.876257 0.018497 0.000000 0.860002 0.020707 0.000000 0.834869 0.023273 0.000000 0.813485 0.025470 0.000000 0.783963 0.028051 0.000000 0.757418 0.030200 0.000000 0.723605 0.032754 0.000000 0.691953 0.034817 0.000000 0.654020 0.037301 0.000000 0.617399 0.039242 0.000000 0.575593 0.041611 0.000000 0.534232 0.043390 0.000000 0.488876 0.045600 0.000000 0.443091 0.047180 0.000000 0.394585 0.049187 0.000000 0.344780 0.050532 0.000000 0.293592 0.052295 0.000000 0.240254 0.053371 0.000000 0.186921 0.054850 0.000000 0.130618 0.055627 0.000000 0.075735 0.056784 0.000000 0.017107 0.057234 0.000000 -0.038670 0.058035 0.000000 -0.098914 0.058132 0.000000 -0.154884 0.058548 0.000000 -0.215975 0.058272 0.000000 -0.271393 0.058276 0.000000 -0.332512 0.057610 0.000000 -0.386600 0.057183 0.000000 -0.446883 0.056117 0.000000 -0.498845 0.055244 0.000000 -0.557402 0.053774 0.000000 -0.606430 0.052451 0.000000 -0.662359 0.050582 0.000000 -0.707657 0.048812 0.000000 -0.760064 0.046559 0.000000 -0.800864 0.044359 0.000000 -0.848885 0.041749 0.000000 -0.884468 0.039148 0.000000 -0.927296 0.036217 0.000000 -0.957022 0.033258 0.000000 -0.993932 0.030058 0.000000 -1.017257 0.026795 0.000000 -1.047637 0.023388 0.000000 -1.064143 0.019889 0.000000 -1.087513 0.016347 0.000000 -1.096924 0.012690 0.000000 -1.112962 0.009092 0.000000 -1.115164 0.005361 0.000000 -1.123715 0.001790 0.000000 -1.118759 -0.001927 0.000000 -1.119848 -0.005387 0.000000 -1.107954 -0.009005 0.000000 -1.101777 -0.012276 0.000000 -1.083323 -0.015715 0.000000 -1.070239 -0.018728 0.000000 -1.045745 -0.021917 0.000000 -1.026255 -0.024614 0.000000 -0.996356 -0.027497 0.000000 -0.971077 -0.029835 0.000000 -0.936496 -0.032371 0.000000 -0.906129 -0.034324 0.000000 -0.867640 -0.036487 0.000000 -0.832936 -0.038045 0.000000 -0.791338 -0.039827 0.000000 -0.753064 -0.040995 0.000000 -0.709141 -0.042403 0.000000 -0.668054 -0.043199 0.000000 -0.622555 -0.044250 0.000000 -0.579372 -0.044703 0.000000 -0.532985 -0.045427 0.000000 -0.488366 -0.045574 0.000000 -0.441705 -0.046004 0.000000 -0.396239 -0.045886 0.000000 -0.349836 -0.046063 0.000000 -0.304031 -0.045722 0.000000 -0.258330 -0.045685 0.000000 -0.212615 -0.045164 0.000000 -0.167977 -0.044951 0.000000 -0.122702 -0.044288 0.000000 -0.079408 -0.043935 0.000000 -0.034853 -0.043165 0.000000 0.006886 -0.042704 0.000000 0.050506 -0.041858 0.000000 0.090539 -0.041314 0.000000 0.133062 -0.040415 0.000000 0.171286 -0.039811 0.000000 0.212590 -0.038877 0.000000 0.248939 -0.038228 0.000000 0.288938 -0.037272 0.000000 0.323370 -0.036588 0.000000 0.361996 -0.035619 0.000000 0.394485 -0.034906 0.000000 0.431682 -0.033926 0.000000 0.462209 -0.033185 0.000000 0.497923 -0.032193 0.000000 0.526465 -0.031421 0.000000 0.560635 -0.030411 0.000000 0.587158 -0.029602 0.000000 0.619711 -0.028567 0.000000 0.644167 -0.027711 0.000000 0.675010 -0.026641 0.000000 0.697329 -0.025725 0.000000 
0.728462 -0.049102 0.000000 0.748692 -0.047129 0.000000 0.775848 -0.044777 0.000000 0.793735 -0.042627 0.000000 0.818750 -0.040128 0.000000 0.834147 -0.037771 0.000000 0.856814 -0.035100 0.000000 0.869546 -0.032504 0.000000 0.889623 -0.029638 0.000000 0.899494 -0.026776 0.000000 0.916714 -0.023698 0.000000 0.923507 -0.020547 0.000000 0.937577 -0.017245 0.000000 0.941064 -0.013790 0.000000 0.951675 -0.010259 0.000000 0.951625 -0.006492 0.000000 0.958460 -0.002740 0.000000 0.954645 0.001336 0.000000 0.957390 0.005294 0.000000 0.949598 0.009662 0.000000 0.947956 0.013801 0.000000 0.936002 0.018434 0.000000 0.929702 0.022715 0.000000 0.913438 0.027571 0.000000 0.902251 0.031948 0.000000 0.881577 0.036973 0.000000 0.865329 0.041388 0.000000 0.840202 0.046518 0.000000 0.818785 0.050906 0.000000 0.789228 0.056066 0.000000 0.762609 0.060358 0.000000 0.728717 0.065465 0.000000 0.696946 0.069585 0.000000 0.658889 0.074554 0.000000 0.622106 0.078427 0.000000 0.580130 0.083168 0.000000 0.538562 0.086717 0.000000 0.492993 0.091140 0.000000 0.446960 0.094291 0.000000 0.398196 0.098311 0.000000 0.348106 0.100993 0.000000 0.296619 0.104525 0.000000 0.242963 0.106671 0.000000 0.189292 0.109637 0.000000 0.132641 0.111185 0.000000 0.077388 0.113510 0.000000 0.018390 0.114405 0.000000 -0.037787 0.116022 0.000000 -0.098419 0.116214 0.000000 -0.154810 0.117061 0.000000 -0.216301 0.116509 0.000000 -0.272155 0.116536 0.000000 -0.333676 0.115207 0.000000 -0.388208 0.114372 0.000000 -0.448888 0.112244 0.000000 -0.501290 0.110519 0.000000 -0.560231 0.107585 0.000000 -0.609688 0.104957 0.000000 -0.665977 0.101227 0.000000 -0.711681 0.097705 0.000000 -0.764415 0.093206 0.000000 -0.805587 0.088821 0.000000 -0.853892 0.083605 0.000000 -0.889806 0.078411 0.000000 -0.932866 0.072553 0.000000 -0.962869 0.066636 0.000000 -0.999954 0.060236 0.000000 -1.023495 0.053705 0.000000 -1.053986 0.046885 0.000000 -1.070642 0.039876 0.000000 -1.094057 0.032782 0.000000 -1.103549 0.025449 0.000000 -1.119566 0.018239 0.000000 -1.121779 0.010753 0.000000 -1.130247 0.003596 0.000000 -1.125236 -0.003867 0.000000 -1.126184 -0.010805 0.000000 -1.114174 -0.018071 0.000000 -1.107807 -0.024631 0.000000 -1.089184 -0.031538 0.000000 -1.075870 -0.037578 0.000000 -1.051163 -0.043984 0.000000 -1.031414 -0.049389 0.000000 -1.001271 -0.055178 0.000000 -0.975715 -0.059860 0.000000 -0.940868 -0.064949 0.000000 -0.910217 -0.068855 0.000000 -0.871453 -0.073193 0.000000 -0.836466 -0.076303 0.000000 -0.794591 -0.079872 0.000000 -0.756046 -0.082196 0.000000 -0.711853 -0.085010 0.000000 -0.670513 -0.086586 0.000000 -0.624757 -0.088682 0.000000 -0.581342 -0.089570 0.000000 -0.534716 -0.091006 0.000000 -0.489889 -0.091280 0.000000 -0.443010 -0.092127 0.000000 -0.397361 -0.091870 0.000000 -0.350762 -0.092208 0.000000 -0.304799 -0.091506 0.000000 -0.258922 -0.091416 0.000000 -0.213073 -0.090353 0.000000 -0.168278 -0.089912 0.000000 -0.122889 -0.088569 0.000000 -0.079456 -0.087849 0.000000 -0.034804 -0.086294 0.000000 0.007061 -0.085359 0.000000 0.050764 -0.083653 0.000000 0.090911 -0.082556 0.000000 0.133506 -0.080746 0.000000 0.171836 -0.079529 0.000000 0.213208 -0.077653 0.000000 0.249657 -0.076348 0.000000 0.289719 -0.074431 0.000000 0.324250 -0.073058 0.000000 0.362939 -0.071116 0.000000 0.395528 -0.069686 0.000000 0.432790 -0.067724 0.000000 0.463420 -0.066241 0.000000 0.499203 -0.064255 0.000000 0.527854 -0.062712 0.000000 0.562099 -0.060693 0.000000 0.588739 -0.059076 0.000000 0.621376 -0.057009 0.000000 0.645956 -0.055299 0.000000 0.676892 -0.053161 0.000000 0.699344 -0.051334 0.000000 
0.730549 -0.073956 0.000000 0.750757 -0.071003 0.000000 0.777974 -0.067483 0.000000 0.795857 -0.064265 0.000000 0.820956 -0.060523 0.000000 0.836365 -0.056992 0.000000 0.859137 -0.052990 0.000000 0.871898 -0.049099 0.000000 0.892102 -0.044802 0.000000 0.902015 -0.040510 0.000000 0.919379 -0.035891 0.000000 0.926226 -0.031162 0.000000 0.940455 -0.026203 0.000000 0.944003 -0.021013 0.000000 0.954784 -0.015707 0.000000 0.954796 -0.010045 0.000000 0.961807 -0.004401 0.000000 0.958051 0.001729 0.000000 0.960971 0.007687 0.000000 0.953229 0.014262 0.000000 0.951753 0.020496 0.000000 0.939835 0.027473 0.000000 0.933685 0.033926 0.000000 0.917438 0.041243 0.000000 0.906379 0.047843 0.000000 0.885698 0.055419 0.000000 0.869548 0.062081 0.000000 0.844388 0.069817 0.000000 0.823034 0.076444 0.000000 0.793415 0.084226 0.000000 0.766819 0.090711 0.000000 0.732834 0.098416 0.000000 0.701043 0.104645 0.000000 0.662862 0.112142 0.000000 0.626014 0.118001 0.000000 0.583883 0.125154 0.000000 0.542206 0.130527 0.000000 0.496452 0.137202 0.000000 0.450263 0.141976 0.000000 0.401287 0.148042 0.000000 0.350995 0.152109 0.000000 0.299270 0.157438 0.000000 0.245366 0.160699 0.000000 0.191434 0.165172 0.000000 0.134491 0.167530 0.000000 0.078955 0.171036 0.000000 0.019619 0.172409 0.000000 -0.036862 0.174844 0.000000 -0.097875 0.175156 0.000000 -0.154589 0.176430 0.000000 -0.216501 0.175617 0.000000 -0.272696 0.175651 0.000000 -0.334677 0.173663 0.000000 -0.389564 0.172395 0.000000 -0.450737 0.169199 0.000000 -0.503504 0.166587 0.000000 -0.562964 0.162172 0.000000 -0.612789 0.158197 0.000000 -0.669613 0.152575 0.000000 -0.715679 0.147250 0.000000 -0.768950 0.140465 0.000000 -0.810466 0.133837 0.000000 -0.859295 0.125967 0.000000 -0.895520 0.118122 0.000000 -0.939073 0.109280 0.000000 -0.969340 0.100345 0.000000 -1.006865 0.090684 0.000000 -1.030608 0.080827 0.000000 -1.061467 0.070535 0.000000 -1.078247 0.059960 0.000000 -1.101941 0.049255 0.000000 -1.111467 0.038199 0.000000 -1.127658 0.027322 0.000000 -1.129808 0.016042 0.000000 -1.138337 0.005248 0.000000 -1.133161 -0.005990 0.000000 -1.134053 -0.016449 0.000000 -1.121781 -0.027382 0.000000 -1.115245 -0.037267 0.000000 -1.096271 -0.047652 0.000000 -1.082686 -0.056748 0.000000 -1.057556 -0.066372 0.000000 -1.037450 -0.074506 0.000000 -1.006828 -0.083196 0.000000 -0.980849 -0.090238 0.000000 -0.945491 -0.097869 0.000000 -0.914373 -0.103740 0.000000 -0.875089 -0.110238 0.000000 -0.839616 -0.114907 0.000000 -0.797232 -0.120247 0.000000 -0.758203 -0.123733 0.000000 -0.713532 -0.127936 0.000000 -0.671728 -0.130296 0.000000 -0.625539 -0.133421 0.000000 -0.581697 -0.134744 0.000000 -0.534695 -0.136879 0.000000 -0.489488 -0.137279 0.000000 -0.442296 -0.138532 0.000000 -0.396320 -0.138135 0.000000 -0.349472 -0.138626 0.000000 -0.303238 -0.137562 0.000000 -0.257177 -0.137411 0.000000 -0.211112 -0.135808 0.000000 -0.166192 -0.135134 0.000000 -0.120639 -0.133110 0.000000 -0.077133 -0.132021 0.000000 -0.032363 -0.129682 0.000000 0.009528 -0.128272 0.000000 0.053310 -0.125708 0.000000 0.093447 -0.124057 0.000000 0.136089 -0.121340 0.000000 0.174379 -0.119512 0.000000 0.215772 -0.116698 0.000000 0.252162 -0.114739 0.000000 0.292228 -0.111865 0.000000 0.326686 -0.109808 0.000000 0.365368 -0.106897 0.000000 0.397878 -0.104757 0.000000 0.435129 -0.101818 0.000000 0.465679 -0.099598 0.000000 0.501453 -0.096626 0.000000 0.530028 -0.094317 0.000000 0.564271 -0.091296 0.000000 0.590844 -0.088878 0.000000 0.623489 -0.085784 0.000000 0.648016 -0.083227 0.000000 0.678975 -0.080029 0.000000 0.701388 -0.077295 0.000000 
0.734755 -0.098470 0.000000 0.755166 -0.094554 0.000000 0.782586 -0.089877 0.000000 0.800696 -0.085609 0.000000 0.826024 -0.080637 0.000000 0.841681 -0.075952 0.000000 0.864707 -0.070633 0.000000 0.877734 -0.065468 0.000000 0.898213 -0.059755 0.000000 0.908406 -0.054054 0.000000 0.926062 -0.047909 0.000000 0.933196 -0.041623 0.000000 0.947726 -0.035022 0.000000 0.951561 -0.028119 0.000000 0.962643 -0.021052 0.000000 0.962932 -0.013515 0.000000 0.970234 -0.005994 0.000000 0.966734 0.002172 0.000000 0.969924 0.010116 0.000000 0.962408 0.018880 0.000000 0.961168 0.027195 0.000000 0.949433 0.036502 0.000000 0.943473 0.045112 0.000000 0.927356 0.054878 0.000000 0.916429 0.063688 0.000000 0.895816 0.073804 0.000000 0.879729 0.082698 0.000000 0.854566 0.093032 0.000000 0.833196 0.101880 0.000000 0.803496 0.112281 0.000000 0.776801 0.120939 0.000000 0.742653 0.131241 0.000000 0.710675 0.139557 0.000000 0.672246 0.149584 0.000000 0.635120 0.157405 0.000000 0.592657 0.166976 0.000000 0.550613 0.174148 0.000000 0.504443 0.183083 0.000000 0.457802 0.189456 0.000000 0.408330 0.197580 0.000000 0.357504 0.203010 0.000000 0.305208 0.210154 0.000000 0.250697 0.214507 0.000000 0.196124 0.220512 0.000000 0.138506 0.223665 0.000000 0.082266 0.228382 0.000000 0.022197 0.230221 0.000000 -0.035041 0.233515 0.000000 -0.096835 0.233941 0.000000 -0.154351 0.235688 0.000000 -0.217082 0.234617 0.000000 -0.274111 0.234712 0.000000 -0.336935 0.232075 0.000000 -0.392674 0.230432 0.000000 -0.454700 0.226185 0.000000 -0.508321 0.222746 0.000000 -0.568625 0.216870 0.000000 -0.619287 0.211606 0.000000 -0.676927 0.204117 0.000000 -0.723794 0.197042 0.000000 -0.777831 0.187994 0.000000 -0.820088 0.179166 0.000000 -0.869611 0.168659 0.000000 -0.906494 0.158189 0.000000 -0.950646 0.146373 0.000000 -0.981466 0.134428 0.000000 -1.019475 0.121504 0.000000 -1.043646 0.108307 0.000000 -1.074855 0.094524 0.000000 -1.091922 0.080349 0.000000 -1.115820 0.066002 0.000000 -1.125482 0.051167 0.000000 -1.141724 0.036580 0.000000 -1.143854 0.021432 0.000000 -1.152281 0.006949 0.000000 -1.146933 -0.008151 0.000000 -1.147578 -0.022185 0.000000 -1.134992 -0.036879 0.000000 -1.128077 -0.050140 0.000000 -1.108666 -0.064096 0.000000 -1.094591 -0.076294 0.000000 -1.068922 -0.089221 0.000000 -1.048240 -0.100117 0.000000 -1.017004 -0.111778 0.000000 -0.990390 -0.121197 0.000000 -0.954371 -0.131424 0.000000 -0.922586 -0.139258 0.000000 -0.882621 -0.147950 0.000000 -0.846477 -0.154160 0.000000 -0.803418 -0.161285 0.000000 -0.763736 -0.165897 0.000000 -0.718417 -0.171485 0.000000 -0.675998 -0.174579 0.000000 -0.629206 -0.178713 0.000000 -0.584801 -0.180414 0.000000 -0.537251 -0.183215 0.000000 -0.491543 -0.183679 0.000000 -0.443867 -0.185296 0.000000 -0.397455 -0.184694 0.000000 -0.350188 -0.185290 0.000000 -0.303584 -0.183801 0.000000 -0.257168 -0.183542 0.000000 -0.210795 -0.181338 0.000000 -0.165580 -0.180385 0.000000 -0.119776 -0.177627 0.000000 -0.076027 -0.176125 0.000000 -0.031055 -0.172956 0.000000 0.011036 -0.171032 0.000000 0.054979 -0.167571 0.000000 0.095280 -0.165334 0.000000 0.138052 -0.161679 0.000000 0.176480 -0.159213 0.000000 0.217981 -0.155436 0.000000 0.254490 -0.152803 0.000000 0.294651 -0.148955 0.000000 0.329219 -0.146198 0.000000 0.367990 -0.142308 0.000000 0.400609 -0.139447 0.000000 0.437950 -0.135525 0.000000 0.468614 -0.132565 0.000000 0.504485 -0.128604 0.000000 0.533184 -0.125530 0.000000 0.567539 -0.121510 0.000000 0.594252 -0.118295 0.000000 0.627027 -0.114181 0.000000 0.651712 -0.110785 0.000000 0.682824 -0.106534 0.000000 0.705418 -0.102907 0.000000 
0.738903 -0.123704 0.000000 0.759352 -0.118835 0.000000 0.786920 -0.113013 0.000000 0.805099 -0.107703 0.000000 0.830613 -0.101509 0.000000 0.846371 -0.095675 0.000000 0.869622 -0.089043 0.000000 0.882778 -0.082606 0.000000 0.903517 -0.075474 0.000000 0.913863 -0.068359 0.000000 0.931811 -0.060681 0.000000 0.939114 -0.052826 0.000000 0.953961 -0.044568 0.000000 0.957974 -0.035930 0.000000 0.969389 -0.027079 0.000000 0.969856 -0.017636 0.000000 0.977495 -0.008204 0.000000 0.974163 0.002039 0.000000 0.977681 0.012014 0.000000 0.970310 0.023018 0.000000 0.969376 0.033471 0.000000 0.957753 0.045168 0.000000 0.952063 0.056003 0.000000 0.936015 0.068287 0.000000 0.925307 0.079384 0.000000 0.904710 0.092119 0.000000 0.888779 0.103332 0.000000 0.863571 0.116350 0.000000 0.842285 0.127513 0.000000 0.812475 0.140622 0.000000 0.785781 0.151554 0.000000 0.751454 0.164542 0.000000 0.719389 0.175053 0.000000 0.680711 0.187697 0.000000 0.643409 0.197589 0.000000 0.600627 0.209662 0.000000 0.558315 0.218741 0.000000 0.511760 0.230013 0.000000 0.464761 0.238089 0.000000 0.414842 0.248339 0.000000 0.363570 0.255231 0.000000 0.310768 0.264246 0.000000 0.255726 0.269783 0.000000 0.200592 0.277363 0.000000 0.142361 0.281388 0.000000 0.085511 0.287344 0.000000 0.024751 0.289715 0.000000 -0.033143 0.293877 0.000000 -0.095702 0.294466 0.000000 -0.153914 0.296677 0.000000 -0.217480 0.295376 0.000000 -0.275239 0.295504 0.000000 -0.338958 0.292226 0.000000 -0.395455 0.290160 0.000000 -0.458426 0.284847 0.000000 -0.512821 0.280512 0.000000 -0.574106 0.273138 0.000000 -0.625543 0.266499 0.000000 -0.684180 0.257081 0.000000 -0.731803 0.248153 0.000000 -0.786829 0.236760 0.000000 -0.829802 0.225617 0.000000 -0.880274 0.212373 0.000000 -0.917807 0.199157 0.000000 -0.962836 0.184252 0.000000 -0.994209 0.169174 0.000000 -1.032989 0.152864 0.000000 -1.057588 0.136208 0.000000 -1.089427 0.118811 0.000000 -1.106770 0.100925 0.000000 -1.131126 0.082815 0.000000 -1.140890 0.064103 0.000000 -1.157396 0.045694 0.000000 -1.159439 0.026598 0.000000 -1.167921 0.008327 0.000000 -1.162296 -0.010693 0.000000 -1.162784 -0.028390 0.000000 -1.149737 -0.046883 0.000000 -1.142464 -0.063592 0.000000 -1.122426 -0.081137 0.000000 -1.107813 -0.096493 0.000000 -1.081380 -0.112724 0.000000 -1.060010 -0.126424 0.000000 -1.027910 -0.141046 0.000000 -1.000497 -0.152871 0.000000 -0.963554 -0.165672 0.000000 -0.930901 -0.175489 0.000000 -0.889993 -0.186347 0.000000 -0.852953 -0.194110 0.000000 -0.808971 -0.202988 0.000000 -0.768404 -0.208734 0.000000 -0.722216 -0.215674 0.000000 -0.678957 -0.219507 0.000000 -0.631375 -0.224618 0.000000 -0.586200 -0.226698 0.000000 -0.537960 -0.230137 0.000000 -0.491569 -0.230664 0.000000 -0.443311 -0.232621 0.000000 -0.396314 -0.231814 0.000000 -0.348579 -0.232496 0.000000 -0.301490 -0.230581 0.000000 -0.254715 -0.230200 0.000000 -0.207954 -0.227396 0.000000 -0.162480 -0.226153 0.000000 -0.116379 -0.222663 0.000000 -0.072461 -0.220742 0.000000 -0.027270 -0.216744 0.000000 0.014913 -0.214306 0.000000 0.059009 -0.209952 0.000000 0.099341 -0.207130 0.000000 0.142211 -0.202541 0.000000 0.180624 -0.199441 0.000000 0.222183 -0.194708 0.000000 0.258644 -0.191409 0.000000 0.298835 -0.186594 0.000000 0.333334 -0.183147 0.000000 0.372120 -0.178287 0.000000 0.404662 -0.174717 0.000000 0.442013 -0.169823 0.000000 0.472602 -0.166134 0.000000 0.508488 -0.161197 0.000000 0.537124 -0.157371 0.000000 0.571508 -0.152364 0.000000 0.598174 -0.148366 0.000000 0.631000 -0.143245 0.000000 0.655664 -0.139024 0.000000 0.686854 -0.133734 0.000000 0.709454 -0.129226 0.000000 
0.745146 -0.148368 0.000000 0.765859 -0.142571 0.000000 0.793720 -0.135624 0.000000 0.812201 -0.129302 0.000000 0.838052 -0.121909 0.000000 0.854149 -0.114960 0.000000 0.877777 -0.107039 0.000000 0.891305 -0.099364 0.000000 0.912460 -0.090840 0.000000 0.923202 -0.082347 0.000000 0.941596 -0.073160 0.000000 0.949311 -0.063774 0.000000 0.964623 -0.053882 0.000000 0.969051 -0.043547 0.000000 0.980938 -0.032934 0.000000 0.981808 -0.021621 0.000000 0.989909 -0.010301 0.000000 0.986953 0.001986 0.000000 0.990905 0.013969 0.000000 0.983866 0.027185 0.000000 0.983319 0.039752 0.000000 0.971967 0.053815 0.000000 0.966595 0.066851 0.000000 0.950740 0.081634 0.000000 0.940263 0.094993 0.000000 0.919766 0.110331 0.000000 0.903962 0.123836 0.000000 0.878749 0.139526 0.000000 0.857471 0.152976 0.000000 0.827540 0.168785 0.000000 0.800725 0.181960 0.000000 0.766154 0.197632 0.000000 0.733834 0.210300 0.000000 0.694785 0.225565 0.000000 0.657089 0.237489 0.000000 0.613811 0.252069 0.000000 0.570968 0.263015 0.000000 0.523793 0.276637 0.000000 0.476131 0.286375 0.000000 0.425473 0.298771 0.000000 0.373414 0.307084 0.000000 0.319761 0.317999 0.000000 0.263815 0.324684 0.000000 0.207728 0.333876 0.000000 0.148488 0.338746 0.000000 0.090592 0.345992 0.000000 0.028729 0.348875 0.000000 -0.030292 0.353968 0.000000 -0.094037 0.354713 0.000000 -0.153444 0.357466 0.000000 -0.218260 0.355941 0.000000 -0.277265 0.356190 0.000000 -0.342283 0.352290 0.000000 -0.400057 0.349900 0.000000 -0.464354 0.343551 0.000000 -0.520035 0.338425 0.000000 -0.582644 0.329592 0.000000 -0.635349 0.321680 0.000000 -0.695280 0.310377 0.000000 -0.744120 0.299690 0.000000 -0.800374 0.285993 0.000000 -0.844479 0.272611 0.000000 -0.896078 0.256663 0.000000 -0.934618 0.240751 0.000000 -0.980634 0.222775 0.000000 -1.012857 0.204581 0.000000 -1.052446 0.184882 0.000000 -1.077701 0.164745 0.000000 -1.110142 0.143706 0.000000 -1.127920 0.122049 0.000000 -1.152646 0.100122 0.000000 -1.162604 0.077436 0.000000 -1.179232 0.055129 0.000000 -1.181221 0.031957 0.000000 -1.189575 0.009806 0.000000 -1.183651 -0.013288 0.000000 -1.183770 -0.034744 0.000000 -1.170195 -0.057200 0.000000 -1.162334 -0.077451 0.000000 -1.141568 -0.098748 0.000000 -1.126180 -0.117340 0.000000 -1.098855 -0.137024 0.000000 -1.076564 -0.153586 0.000000 -1.043452 -0.171291 0.000000 -1.015018 -0.185553 0.000000 -0.976991 -0.201020 0.000000 -0.943263 -0.212819 0.000000 -0.901244 -0.225898 0.000000 -0.863120 -0.235182 0.000000 -0.818043 -0.245834 0.000000 -0.776423 -0.252651 0.000000 -0.729192 -0.260933 0.000000 -0.684943 -0.265420 0.000000 -0.636399 -0.271470 0.000000 -0.590321 -0.273829 0.000000 -0.541218 -0.277846 0.000000 -0.494027 -0.278327 0.000000 -0.445017 -0.280550 0.000000 -0.397331 -0.279426 0.000000 -0.348956 -0.280114 0.000000 -0.301288 -0.277665 0.000000 -0.253983 -0.277078 0.000000 -0.206748 -0.273573 0.000000 -0.160846 -0.271960 0.000000 -0.114364 -0.267647 0.000000 -0.070107 -0.265234 0.000000 -0.024618 -0.260330 0.000000 0.017829 -0.257311 0.000000 0.062156 -0.251999 0.000000 0.102692 -0.248537 0.000000 0.145742 -0.242962 0.000000 0.184314 -0.239184 0.000000 0.226015 -0.233455 0.000000 0.262606 -0.229455 0.000000 0.302915 -0.223646 0.000000 0.337529 -0.219483 0.000000 0.376422 -0.213635 0.000000 0.409074 -0.209340 0.000000 0.446534 -0.203465 0.000000 0.477241 -0.199040 0.000000 0.513249 -0.193126 0.000000 0.542019 -0.188549 0.000000 0.576546 -0.182560 0.000000 0.603372 -0.177787 0.000000 0.636371 -0.171670 0.000000 0.661225 -0.166638 0.000000 0.692623 -0.160325 0.000000 0.715449 -0.154956 0.000000 
0.751289 -0.174115 0.000000 0.772098 -0.167409 0.000000 0.800191 -0.159354 0.000000 0.818816 -0.152034 0.000000 0.844957 -0.143456 0.000000 0.861244 -0.135401 0.000000 0.885219 -0.126199 0.000000 0.898979 -0.117288 0.000000 0.920535 -0.107371 0.000000 0.931545 -0.097495 0.000000 0.950386 -0.086790 0.000000 0.958394 -0.075854 0.000000 0.974190 -0.064308 0.000000 0.978925 -0.052244 0.000000 0.991317 -0.039836 0.000000 0.992492 -0.026607 0.000000 1.001104 -0.013348 0.000000 0.998435 0.001043 0.000000 1.002883 0.015100 0.000000 0.996096 0.030605 0.000000 0.996008 0.045370 0.000000 0.984855 0.061891 0.000000 0.979886 0.077230 0.000000 0.964160 0.094619 0.000000 0.954007 0.110358 0.000000 0.933555 0.128419 0.000000 0.917978 0.144349 0.000000 0.892714 0.162841 0.000000 0.871548 0.178722 0.000000 0.841461 0.197368 0.000000 0.814632 0.212940 0.000000 0.779795 0.231434 0.000000 0.747326 0.246422 0.000000 0.707901 0.264442 0.000000 0.669918 0.278564 0.000000 0.626155 0.295782 0.000000 0.582886 0.308759 0.000000 0.535121 0.324850 0.000000 0.486899 0.336409 0.000000 0.435552 0.351057 0.000000 0.382801 0.360943 0.000000 0.328368 0.373845 0.000000 0.271605 0.381816 0.000000 0.214654 0.392689 0.000000 0.154478 0.398524 0.000000 0.095640 0.407104 0.000000 0.032727 0.410600 0.000000 -0.027306 0.416642 0.000000 -0.092206 0.417617 0.000000 -0.152688 0.420900 0.000000 -0.218758 0.419198 0.000000 -0.278892 0.419527 0.000000 -0.345251 0.415018 0.000000 -0.404196 0.412231 0.000000 -0.469906 0.404824 0.000000 -0.526783 0.398803 0.000000 -0.590855 0.388452 0.000000 -0.644760 0.379135 0.000000 -0.706175 0.365852 0.000000 -0.756190 0.353248 0.000000 -0.813912 0.337118 0.000000 -0.859133 0.321321 0.000000 -0.912140 0.302513 0.000000 -0.951697 0.283713 0.000000 -0.999010 0.262490 0.000000 -1.032104 0.240986 0.000000 -1.072829 0.217709 0.000000 -1.098765 0.193904 0.000000 -1.132128 0.169030 0.000000 -1.150355 0.143428 0.000000 -1.175743 0.117499 0.000000 -1.185885 0.090689 0.000000 -1.202880 0.064311 0.000000 -1.204765 0.036942 0.000000 -1.213170 0.010756 0.000000 -1.206848 -0.016498 0.000000 -1.206701 -0.041846 0.000000 -1.192446 -0.068319 0.000000 -1.184017 -0.092220 0.000000 -1.162318 -0.117292 0.000000 -1.146093 -0.139206 0.000000 -1.117629 -0.162339 0.000000 -1.094282 -0.181826 0.000000 -1.059880 -0.202592 0.000000 -1.030229 -0.219333 0.000000 -0.990822 -0.237427 0.000000 -0.955783 -0.251236 0.000000 -0.912359 -0.266490 0.000000 -0.872891 -0.277311 0.000000 -0.826443 -0.289685 0.000000 -0.783506 -0.297584 0.000000 -0.734987 -0.307155 0.000000 -0.689495 -0.312300 0.000000 -0.639786 -0.319240 0.000000 -0.592578 -0.321879 0.000000 -0.542459 -0.326431 0.000000 -0.494274 -0.326865 0.000000 -0.444411 -0.329317 0.000000 -0.395879 -0.327875 0.000000 -0.346818 -0.328539 0.000000 -0.298455 -0.325554 0.000000 -0.250623 -0.324740 0.000000 -0.202836 -0.320534 0.000000 -0.156553 -0.318537 0.000000 -0.109651 -0.313402 0.000000 -0.065142 -0.310488 0.000000 -0.019346 -0.304681 0.000000 0.023246 -0.301080 0.000000 0.067784 -0.294815 0.000000 0.108379 -0.290716 0.000000 0.151565 -0.284163 0.000000 0.190132 -0.279714 0.000000 0.231914 -0.273000 0.000000 0.268455 -0.268309 0.000000 0.308808 -0.261517 0.000000 0.343348 -0.256654 0.000000 0.382265 -0.249832 0.000000 0.414834 -0.244829 0.000000 0.452314 -0.237990 0.000000 0.482943 -0.232849 0.000000 0.518981 -0.225975 0.000000 0.547692 -0.220668 0.000000 0.582271 -0.213716 0.000000 0.609067 -0.208190 0.000000 0.642151 -0.201097 0.000000 0.667011 -0.195276 0.000000 0.698538 -0.187959 0.000000 0.721413 -0.181749 0.000000 