# vtk DataFile Version 2.0
Comment goes here
ASCII

DATASET STRUCTURED_POINTS
FIELD FieldData 1
TIME 1 1 double
0.13500000
DIMENSIONS    128   128   1

ORIGIN    0.000   0.000   0.000
SPACING   0.039062 0.039062   1.000

POINT_DATA   16384
VECTORS u double

-0.160562 -0.000000 0.000000 -0.139133 -0.000000 0.000000 -0.113506 -0.000000 0.000000 -0.092115 -0.000000 0.000000 -0.065502 -0.000000 0.000000 -0.044379 -0.000000 0.000000 -0.017035 -0.000000 0.000000 0.003598 0.000000 0.000000 0.031426 0.000000 0.000000 0.051354 0.000000 0.000000 0.079424 0.000000 0.000000 0.098442 0.000000 0.000000 0.126516 0.000000 0.000000 0.144428 0.000000 0.000000 0.172274 0.000000 0.000000 0.188895 0.000000 0.000000 0.216285 0.000000 0.000000 0.231439 0.000000 0.000000 0.258150 0.000000 0.000000 0.271675 0.000000 0.000000 0.297487 0.000000 0.000000 0.309234 0.000000 0.000000 0.333933 0.000000 0.000000 0.343769 0.000000 0.000000 0.367147 0.000000 0.000000 0.374955 0.000000 0.000000 0.396812 0.000000 0.000000 0.402494 0.000000 0.000000 0.422640 0.000000 0.000000 0.426121 0.000000 0.000000 0.444374 0.000000 0.000000 0.445602 0.000000 0.000000 0.461795 0.000000 0.000000 0.460741 0.000000 0.000000 0.474721 0.000000 0.000000 0.471385 0.000000 0.000000 0.483013 0.000000 0.000000 0.477422 0.000000 0.000000 0.486579 0.000000 0.000000 0.478787 0.000000 0.000000 0.485371 0.000000 0.000000 0.475463 0.000000 0.000000 0.479393 0.000000 0.000000 0.467484 0.000000 0.000000 0.468702 0.000000 0.000000 0.454933 0.000000 0.000000 0.453404 0.000000 0.000000 0.437945 0.000000 0.000000 0.433658 0.000000 0.000000 0.416705 0.000000 0.000000 0.409678 0.000000 0.000000 0.391445 0.000000 0.000000 0.381723 0.000000 0.000000 0.362447 0.000000 0.000000 0.350102 0.000000 0.000000 0.330030 0.000000 0.000000 0.315167 0.000000 0.000000 0.294556 0.000000 0.000000 0.277305 0.000000 0.000000 0.256415 0.000000 0.000000 0.236937 0.000000 0.000000 0.216023 0.000000 0.000000 0.194504 0.000000 0.000000 0.173810 0.000000 0.000000 0.150462 0.000000 0.000000 0.130219 0.000000 0.000000 0.105274 0.000000 0.000000 0.085689 0.000000 0.000000 0.059397 0.000000 0.000000 0.040652 0.000000 0.000000 0.013276 0.000000 0.000000 -0.004475 0.000000 0.000000 -0.032663 0.000000 0.000000 -0.049297 0.000000 0.000000 -0.078021 0.000000 0.000000 -0.093447 0.000000 0.000000 -0.122430 0.000000 0.000000 -0.136583 0.000000 0.000000 -0.165550 0.000000 0.000000 -0.178392 0.000000 0.000000 -0.207074 0.000000 0.000000 -0.218586 0.000000 0.000000 -0.246720 0.000000 0.000000 -0.256897 0.000000 0.000000 -0.284226 0.000000 0.000000 -0.293070 0.000000 0.000000 -0.319345 0.000000 0.000000 -0.326856 0.000000 0.000000 -0.351831 0.000000 0.000000 -0.358002 0.000000 0.000000 -0.381437 0.000000 0.000000 -0.386250 0.000000 0.000000 -0.407909 0.000000 0.000000 -0.411327 0.000000 0.000000 -0.430981 0.000000 0.000000 -0.432950 0.000000 0.000000 -0.450375 0.000000 0.000000 -0.450830 0.000000 0.000000 -0.465814 0.000000 0.000000 -0.464677 0.000000 0.000000 -0.477024 0.000000 0.000000 -0.474215 0.000000 0.000000 -0.483755 0.000000 0.000000 -0.479197 0.000000 0.000000 -0.485789 0.000000 0.000000 -0.479422 0.000000 0.000000 -0.482963 0.000000 0.000000 -0.474751 0.000000 0.000000 -0.475182 0.000000 0.000000 -0.465119 0.000000 0.000000 -0.462427 0.000000 0.000000 -0.450544 0.000000 0.000000 -0.444769 0.000000 0.000000 -0.431135 0.000000 0.000000 -0.422362 -0.000000 0.000000 -0.407086 -0.000000 0.000000 -0.395446 -0.000000 0.000000 -0.378671 -0.000000 0.000000 -0.364335 -0.000000 0.000000 -0.346238 -0.000000 0.000000 -0.329408 -0.000000 0.000000 -0.310188 -0.000000 0.000000 -0.291093 -0.000000 0.000000 -0.270969 -0.000000 0.000000 -0.249854 -0.000000 0.000000 -0.229058 -0.000000 0.000000 -0.206178 -0.000000 0.000000 -0.184946 -0.000000 0.000000 
-0.154884 -0.022907 0.000000 -0.133556 -0.023528 0.000000 -0.107983 -0.023509 0.000000 -0.086720 -0.024002 0.000000 -0.060179 -0.023868 0.000000 -0.039207 -0.024234 0.000000 -0.011947 -0.023989 0.000000 0.008517 -0.024230 0.000000 0.036250 -0.023878 0.000000 0.055996 -0.023999 0.000000 0.083963 -0.023544 0.000000 0.102789 -0.023546 0.000000 0.130756 -0.022993 0.000000 0.148469 -0.022879 0.000000 0.176206 -0.022233 0.000000 0.192622 -0.022005 0.000000 0.219901 -0.021272 0.000000 0.234848 -0.020932 0.000000 0.261447 -0.020118 0.000000 0.274762 -0.019669 0.000000 0.300462 -0.018780 0.000000 0.311997 -0.018223 0.000000 0.336585 -0.017267 0.000000 0.346206 -0.016607 0.000000 0.369474 -0.015593 0.000000 0.377064 -0.014832 0.000000 0.398810 -0.013770 0.000000 0.404273 -0.012914 0.000000 0.424306 -0.011813 0.000000 0.427564 -0.010867 0.000000 0.445704 -0.009740 0.000000 0.446704 -0.008710 0.000000 0.462782 -0.007570 0.000000 0.461497 -0.006463 0.000000 0.475359 -0.005322 0.000000 0.471787 -0.004146 0.000000 0.483294 -0.003018 0.000000 0.477462 -0.001783 0.000000 0.486493 -0.000683 0.000000 0.478457 0.000604 0.000000 0.484911 0.001662 0.000000 0.474757 0.002989 0.000000 0.478552 0.003990 0.000000 0.466394 0.005346 0.000000 0.467472 0.006275 0.000000 0.453453 0.007649 0.000000 0.451778 0.008494 0.000000 0.436070 0.009873 0.000000 0.431633 0.010620 0.000000 0.414432 0.011990 0.000000 0.407249 0.012630 0.000000 0.388773 0.013977 0.000000 0.378890 0.014499 0.000000 0.359377 0.015810 0.000000 0.346868 0.016208 0.000000 0.326568 0.017468 0.000000 0.311537 0.017737 0.000000 0.290709 0.018931 0.000000 0.273289 0.019071 0.000000 0.252195 0.020184 0.000000 0.232549 0.020196 0.000000 0.211448 0.021217 0.000000 0.189764 0.021106 0.000000 0.168904 0.022021 0.000000 0.145396 0.021796 0.000000 0.125010 0.022594 0.000000 0.099914 0.022265 0.000000 0.080213 0.022939 0.000000 0.053782 0.022518 0.000000 0.034953 0.023060 0.000000 0.007455 0.022564 0.000000 -0.010346 0.022970 0.000000 -0.038636 0.022411 0.000000 -0.055282 0.022679 0.000000 -0.084083 0.022075 0.000000 -0.099478 0.022204 0.000000 -0.128509 0.021568 0.000000 -0.142586 0.021560 0.000000 -0.171569 0.020905 0.000000 -0.184287 0.020762 0.000000 -0.212949 0.020097 0.000000 -0.224289 0.019823 0.000000 -0.252363 0.019156 0.000000 -0.262318 0.018753 0.000000 -0.289547 0.018087 0.000000 -0.298119 0.017559 0.000000 -0.324252 0.016893 0.000000 -0.331443 0.016243 0.000000 -0.356235 0.015573 0.000000 -0.362043 0.014803 0.000000 -0.385256 0.014124 0.000000 -0.389665 0.013236 0.000000 -0.411067 0.012539 0.000000 -0.414047 0.011536 0.000000 -0.433413 0.010812 0.000000 -0.434920 0.009697 0.000000 -0.452032 0.008940 0.000000 -0.452008 0.007719 0.000000 -0.466661 0.006923 0.000000 -0.465037 0.005605 0.000000 -0.477044 0.004769 0.000000 -0.473750 0.003365 0.000000 -0.482949 0.002491 0.000000 -0.477920 0.001017 0.000000 -0.484178 0.000113 0.000000 -0.477363 -0.001413 0.000000 -0.480585 -0.002336 0.000000 -0.471957 -0.003891 0.000000 -0.472090 -0.004816 0.000000 -0.461651 -0.006377 0.000000 -0.458691 -0.007287 0.000000 -0.446478 -0.008829 0.000000 -0.440467 -0.009705 0.000000 -0.426555 -0.011203 0.000000 -0.417581 -0.012025 0.000000 -0.402080 -0.013458 0.000000 -0.390278 -0.014207 0.000000 -0.373334 -0.015555 0.000000 -0.358873 -0.016217 0.000000 -0.340660 -0.017464 0.000000 -0.323743 -0.018025 0.000000 -0.304460 -0.019158 0.000000 -0.285312 -0.019609 0.000000 -0.265174 -0.020619 0.000000 -0.244038 -0.020956 0.000000 -0.223271 -0.021838 0.000000 -0.200399 -0.022056 0.000000 -0.179235 -0.022808 0.000000 
-0.161283 -0.045679 0.000000 -0.139736 -0.046901 0.000000 -0.113980 -0.046836 0.000000 -0.092474 -0.047804 0.000000 -0.065735 -0.047513 0.000000 -0.044500 -0.048232 0.000000 -0.017032 -0.047724 0.000000 0.003708 -0.048197 0.000000 0.031657 -0.047479 0.000000 0.051688 -0.047713 0.000000 0.079876 -0.046793 0.000000 0.098992 -0.046793 0.000000 0.127182 -0.045680 0.000000 0.145188 -0.045449 0.000000 0.173147 -0.044153 0.000000 0.189856 -0.043696 0.000000 0.217357 -0.042226 0.000000 0.232593 -0.041546 0.000000 0.259413 -0.039914 0.000000 0.273013 -0.039016 0.000000 0.298932 -0.037235 0.000000 0.310746 -0.036123 0.000000 0.335549 -0.034209 0.000000 0.345443 -0.032888 0.000000 0.368921 -0.030858 0.000000 0.376777 -0.029337 0.000000 0.398730 -0.027209 0.000000 0.404450 -0.025496 0.000000 0.424686 -0.023291 0.000000 0.428193 -0.021398 0.000000 0.446530 -0.019140 0.000000 0.447772 -0.017078 0.000000 0.464042 -0.014793 0.000000 0.462989 -0.012576 0.000000 0.477037 -0.010290 0.000000 0.473688 -0.007935 0.000000 0.485377 -0.005675 0.000000 0.479757 -0.003200 0.000000 0.488965 -0.000996 0.000000 0.481130 0.001582 0.000000 0.487755 0.003700 0.000000 0.477790 0.006359 0.000000 0.481749 0.008363 0.000000 0.469769 0.011081 0.000000 0.471004 0.012941 0.000000 0.457151 0.015694 0.000000 0.455626 0.017383 0.000000 0.440070 0.020145 0.000000 0.435775 0.021639 0.000000 0.418713 0.024384 0.000000 0.411663 0.025659 0.000000 0.393313 0.028359 0.000000 0.383554 0.029396 0.000000 0.364153 0.032022 0.000000 0.351757 0.032809 0.000000 0.331557 0.035331 0.000000 0.316628 0.035859 0.000000 0.295888 0.038248 0.000000 0.278556 0.038513 0.000000 0.257539 0.040740 0.000000 0.237967 0.040748 0.000000 0.216930 0.042785 0.000000 0.195305 0.042544 0.000000 0.174497 0.044368 0.000000 0.151033 0.043894 0.000000 0.130686 0.045482 0.000000 0.105616 0.044797 0.000000 0.085940 0.046131 0.000000 0.059516 0.045260 0.000000 0.040695 0.046328 0.000000 0.013183 0.045299 0.000000 -0.004629 0.046091 0.000000 -0.032956 0.044936 0.000000 -0.049637 0.045447 0.000000 -0.078499 0.044196 0.000000 -0.093956 0.044426 0.000000 -0.123077 0.043108 0.000000 -0.137249 0.043060 0.000000 -0.166351 0.041701 0.000000 -0.179202 0.041380 0.000000 -0.208016 0.040001 0.000000 -0.219530 0.039414 0.000000 -0.247792 0.038029 0.000000 -0.257969 0.037184 0.000000 -0.285423 0.035801 0.000000 -0.294267 0.034705 0.000000 -0.320664 0.033324 0.000000 -0.328178 0.031984 0.000000 -0.353273 0.030600 0.000000 -0.359454 0.029021 0.000000 -0.383008 0.027622 0.000000 -0.387838 0.025811 0.000000 -0.409613 0.024383 0.000000 -0.413056 0.022346 0.000000 -0.432821 0.020873 0.000000 -0.434825 0.018619 0.000000 -0.452356 0.017087 0.000000 -0.452849 0.014629 0.000000 -0.467930 0.013029 0.000000 -0.466834 0.010384 0.000000 -0.479267 0.008713 0.000000 -0.476495 0.005905 0.000000 -0.486105 0.004170 0.000000 -0.481577 0.001229 0.000000 -0.488220 -0.000557 0.000000 -0.481872 -0.003593 0.000000 -0.485442 -0.005406 0.000000 -0.477233 -0.008494 0.000000 -0.477669 -0.010305 0.000000 -0.467591 -0.013399 0.000000 -0.464881 -0.015173 0.000000 -0.452963 -0.018224 0.000000 -0.447145 -0.019924 0.000000 -0.433456 -0.022886 0.000000 -0.424618 -0.024474 0.000000 -0.409269 -0.027303 0.000000 -0.397544 -0.028747 0.000000 -0.380682 -0.031405 0.000000 -0.366244 -0.032674 0.000000 -0.348046 -0.035130 0.000000 -0.331103 -0.036200 0.000000 -0.311773 -0.038431 0.000000 -0.292555 -0.039286 0.000000 -0.272317 -0.041274 0.000000 -0.251073 -0.041903 0.000000 -0.230159 -0.043639 0.000000 -0.207148 -0.044036 0.000000 -0.185798 -0.045515 0.000000 
-0.156272 -0.068968 0.000000 -0.134714 -0.070831 0.000000 -0.108886 -0.070772 0.000000 -0.087399 -0.072247 0.000000 -0.060608 -0.071842 0.000000 -0.039418 -0.072936 0.000000 -0.011914 -0.072197 0.000000 0.008760 -0.072920 0.000000 0.036733 -0.071858 0.000000 0.056680 -0.072218 0.000000 0.084883 -0.070848 0.000000 0.103901 -0.070852 0.000000 0.132099 -0.069188 0.000000 0.149995 -0.068844 0.000000 0.177958 -0.066901 0.000000 0.194548 -0.066215 0.000000 0.222050 -0.064010 0.000000 0.237158 -0.062988 0.000000 0.263976 -0.060538 0.000000 0.277440 -0.059187 0.000000 0.303354 -0.056512 0.000000 0.315023 -0.054840 0.000000 0.339819 -0.051964 0.000000 0.349556 -0.049979 0.000000 0.373024 -0.046927 0.000000 0.380712 -0.044642 0.000000 0.402650 -0.041443 0.000000 0.408189 -0.038870 0.000000 0.428404 -0.035556 0.000000 0.431714 -0.032712 0.000000 0.450023 -0.029319 0.000000 0.451051 -0.026222 0.000000 0.467283 -0.022787 0.000000 0.465999 -0.019458 0.000000 0.479999 -0.016021 0.000000 0.476400 -0.012485 0.000000 0.488028 -0.009088 0.000000 0.482140 -0.005371 0.000000 0.491273 -0.002056 0.000000 0.483152 0.001814 0.000000 0.489687 0.005002 0.000000 0.479418 0.008994 0.000000 0.483272 0.012011 0.000000 0.470970 0.016091 0.000000 0.472083 0.018894 0.000000 0.457893 0.023027 0.000000 0.456227 0.025575 0.000000 0.440323 0.029724 0.000000 0.435868 0.031978 0.000000 0.418448 0.036102 0.000000 0.411220 0.038029 0.000000 0.392507 0.042087 0.000000 0.382550 0.043659 0.000000 0.362785 0.047607 0.000000 0.350173 0.048804 0.000000 0.329613 0.052597 0.000000 0.314449 0.053407 0.000000 0.293358 0.057002 0.000000 0.275777 0.057419 0.000000 0.254424 0.060774 0.000000 0.234589 0.060805 0.000000 0.213239 0.063878 0.000000 0.191341 0.063539 0.000000 0.170248 0.066293 0.000000 0.146505 0.065607 0.000000 0.125907 0.068011 0.000000 0.100558 0.067011 0.000000 0.080671 0.069038 0.000000 0.053973 0.067763 0.000000 0.034987 0.069394 0.000000 0.007212 0.067888 0.000000 -0.010715 0.069108 0.000000 -0.039286 0.067418 0.000000 -0.056027 0.068222 0.000000 -0.085110 0.066395 0.000000 -0.100571 0.066781 0.000000 -0.129881 0.064860 0.000000 -0.143999 0.064834 0.000000 -0.173255 0.062858 0.000000 -0.185994 0.062427 0.000000 -0.214922 0.060425 0.000000 -0.226267 0.059600 0.000000 -0.254600 0.057594 0.000000 -0.264553 0.056384 0.000000 -0.292033 0.054385 0.000000 -0.300602 0.052800 0.000000 -0.326979 0.050804 0.000000 -0.334174 0.048852 0.000000 -0.359204 0.046849 0.000000 -0.365026 0.044538 0.000000 -0.388472 0.042507 0.000000 -0.392910 0.039841 0.000000 -0.414538 0.037757 0.000000 -0.417563 0.034744 0.000000 -0.437146 0.032581 0.000000 -0.438711 0.029231 0.000000 -0.456027 0.026964 0.000000 -0.456071 0.023294 0.000000 -0.470911 0.020908 0.000000 -0.469357 0.016942 0.000000 -0.481528 0.014430 0.000000 -0.478298 0.010203 0.000000 -0.487629 0.007573 0.000000 -0.482651 0.003132 0.000000 -0.489003 0.000408 0.000000 -0.482216 -0.004191 0.000000 -0.485489 -0.006974 0.000000 -0.476859 -0.011663 0.000000 -0.476998 -0.014458 0.000000 -0.466522 -0.019165 0.000000 -0.463519 -0.021915 0.000000 -0.451232 -0.026566 0.000000 -0.445131 -0.029211 0.000000 -0.431108 -0.033730 0.000000 -0.422001 -0.036212 0.000000 -0.406355 -0.040532 0.000000 -0.394382 -0.042795 0.000000 -0.377263 -0.046856 0.000000 -0.362600 -0.048852 0.000000 -0.344189 -0.052605 0.000000 -0.327046 -0.054298 0.000000 -0.307547 -0.057705 0.000000 -0.288157 -0.059066 0.000000 -0.267792 -0.062102 0.000000 -0.246404 -0.063114 0.000000 -0.225405 -0.065763 0.000000 -0.202276 -0.066417 0.000000 -0.180880 -0.068673 0.000000 
-0.163442 -0.091845 0.000000 -0.141541 -0.094287 0.000000 -0.115397 -0.094150 0.000000 -0.093545 -0.096082 0.000000 -0.066425 -0.095494 0.000000 -0.044856 -0.096926 0.000000 -0.017016 -0.095902 0.000000 0.004046 -0.096844 0.000000 0.032358 -0.095399 0.000000 0.052697 -0.095863 0.000000 0.081240 -0.094014 0.000000 0.100651 -0.094009 0.000000 0.129189 -0.091774 0.000000 0.147473 -0.091309 0.000000 0.175775 -0.088705 0.000000 0.192746 -0.087787 0.000000 0.220583 -0.084836 0.000000 0.236064 -0.083472 0.000000 0.263213 -0.080196 0.000000 0.277037 -0.078394 0.000000 0.303277 -0.074818 0.000000 0.315293 -0.072587 0.000000 0.340408 -0.068743 0.000000 0.350478 -0.066094 0.000000 0.374257 -0.062014 0.000000 0.382260 -0.058963 0.000000 0.404500 -0.054685 0.000000 0.410335 -0.051249 0.000000 0.430842 -0.046817 0.000000 0.434429 -0.043017 0.000000 0.453019 -0.038477 0.000000 0.454303 -0.034338 0.000000 0.470804 -0.029741 0.000000 0.469753 -0.025292 0.000000 0.484009 -0.020691 0.000000 0.480620 -0.015964 0.000000 0.492490 -0.011415 0.000000 0.486787 -0.006445 0.000000 0.496148 -0.002008 0.000000 0.488186 0.003168 0.000000 0.494932 0.007435 0.000000 0.484797 0.012774 0.000000 0.488844 0.016811 0.000000 0.476649 0.022270 0.000000 0.477937 0.026018 0.000000 0.463828 0.031549 0.000000 0.462319 0.034953 0.000000 0.446469 0.040504 0.000000 0.442149 0.043513 0.000000 0.424759 0.049032 0.000000 0.417643 0.051600 0.000000 0.398938 0.057029 0.000000 0.389068 0.059118 0.000000 0.369292 0.064399 0.000000 0.356742 0.065982 0.000000 0.336153 0.071055 0.000000 0.321025 0.072113 0.000000 0.299893 0.076920 0.000000 0.282321 0.077447 0.000000 0.260917 0.081928 0.000000 0.241064 0.081933 0.000000 0.219656 0.086033 0.000000 0.197713 0.085535 0.000000 0.176558 0.089204 0.000000 0.152743 0.088235 0.000000 0.132082 0.091429 0.000000 0.106635 0.090033 0.000000 0.086684 0.092716 0.000000 0.059864 0.090944 0.000000 0.040812 0.093089 0.000000 0.012889 0.091001 0.000000 -0.005107 0.092589 0.000000 -0.033850 0.090248 0.000000 -0.050668 0.091271 0.000000 -0.079948 0.088740 0.000000 -0.095499 0.089197 0.000000 -0.125032 0.086536 0.000000 -0.139260 0.086434 0.000000 -0.168767 0.083696 0.000000 -0.181643 0.083047 0.000000 -0.210852 0.080274 0.000000 -0.222370 0.079092 0.000000 -0.251017 0.076315 0.000000 -0.261188 0.074617 0.000000 -0.289017 0.071851 0.000000 -0.297857 0.069651 0.000000 -0.324620 0.066896 0.000000 -0.332142 0.064209 0.000000 -0.357597 0.061452 0.000000 -0.363806 0.058289 0.000000 -0.387713 0.055506 0.000000 -0.392596 0.051877 0.000000 -0.414718 0.049036 0.000000 -0.418241 0.044953 0.000000 -0.438343 0.042021 0.000000 -0.440450 0.037501 0.000000 -0.458300 0.034447 0.000000 -0.458914 0.029512 0.000000 -0.474290 0.026316 0.000000 -0.473319 0.021000 0.000000 -0.486012 0.017655 0.000000 -0.483357 0.012006 0.000000 -0.493182 0.008522 0.000000 -0.488749 0.002602 0.000000 -0.495549 -0.000991 0.000000 -0.489260 -0.007107 0.000000 -0.492920 -0.010763 0.000000 -0.484722 -0.016986 0.000000 -0.485176 -0.020643 0.000000 -0.475053 -0.026878 0.000000 -0.472285 -0.030463 0.000000 -0.460263 -0.036612 0.000000 -0.454313 -0.040048 0.000000 -0.440461 -0.046016 0.000000 -0.431423 -0.049227 0.000000 -0.415855 -0.054923 0.000000 -0.403871 -0.057839 0.000000 -0.386742 -0.063187 0.000000 -0.371996 -0.065748 0.000000 -0.353494 -0.070684 0.000000 -0.336204 -0.072842 0.000000 -0.316544 -0.077320 0.000000 -0.296954 -0.079041 0.000000 -0.276366 -0.083027 0.000000 -0.254735 -0.084290 0.000000 -0.233463 -0.087766 0.000000 -0.210059 -0.088561 0.000000 -0.188350 -0.091519 0.000000 
-0.159042 -0.115776 0.000000 -0.137021 -0.118876 0.000000 -0.110684 -0.118768 0.000000 -0.088746 -0.121218 0.000000 -0.061454 -0.120531 0.000000 -0.039828 -0.122346 0.000000 -0.011834 -0.121099 0.000000 0.009261 -0.122294 0.000000 0.037712 -0.120510 0.000000 0.058063 -0.121100 0.000000 0.086734 -0.118801 0.000000 0.106139 -0.118800 0.000000 0.134798 -0.116011 0.000000 0.153062 -0.115430 0.000000 0.181478 -0.112174 0.000000 0.198415 -0.111024 0.000000 0.226363 -0.107328 0.000000 0.241796 -0.105618 0.000000 0.269052 -0.101512 0.000000 0.282815 -0.099252 0.000000 0.309158 -0.094768 0.000000 0.321097 -0.091971 0.000000 0.346310 -0.087148 0.000000 0.356283 -0.083828 0.000000 0.380154 -0.078709 0.000000 0.388039 -0.074885 0.000000 0.410362 -0.069518 0.000000 0.416056 -0.065212 0.000000 0.436634 -0.059650 0.000000 0.440052 -0.054889 0.000000 0.458700 -0.049192 0.000000 0.459785 -0.044007 0.000000 0.476328 -0.038237 0.000000 0.475047 -0.032664 0.000000 0.489326 -0.026888 0.000000 0.485674 -0.020966 0.000000 0.497545 -0.015255 0.000000 0.491546 -0.009028 0.000000 0.500884 -0.003455 0.000000 0.492592 0.003030 0.000000 0.499291 0.008392 0.000000 0.488791 0.015082 0.000000 0.492764 0.020158 0.000000 0.480173 0.026998 0.000000 0.481357 0.031715 0.000000 0.466823 0.038646 0.000000 0.465178 0.042934 0.000000 0.448877 0.049894 0.000000 0.444390 0.053688 0.000000 0.426528 0.060608 0.000000 0.419210 0.063851 0.000000 0.400018 0.070661 0.000000 0.389913 0.073305 0.000000 0.369640 0.079933 0.000000 0.356820 0.081943 0.000000 0.335735 0.088314 0.000000 0.320303 0.089667 0.000000 0.298682 0.095706 0.000000 0.280775 0.096396 0.000000 0.258899 0.102031 0.000000 0.238683 0.102066 0.000000 0.216830 0.107229 0.000000 0.194501 0.106636 0.000000 0.172937 0.111263 0.000000 0.148719 0.110083 0.000000 0.127693 0.114119 0.000000 0.101833 0.112409 0.000000 0.081571 0.115810 0.000000 0.054335 0.113636 0.000000 0.035032 0.116368 0.000000 0.006701 0.113807 0.000000 -0.011479 0.115848 0.000000 -0.040616 0.112980 0.000000 -0.057547 0.114320 0.000000 -0.087196 0.111226 0.000000 -0.102787 0.111866 0.000000 -0.132656 0.108621 0.000000 -0.146851 0.108569 0.000000 -0.176655 0.105241 0.000000 -0.189428 0.104512 0.000000 -0.218889 0.101153 0.000000 -0.230239 0.099765 0.000000 -0.259088 0.096412 0.000000 -0.269030 0.094385 0.000000 -0.297012 0.091053 0.000000 -0.305570 0.088402 0.000000 -0.332434 0.085090 0.000000 -0.339631 0.081829 0.000000 -0.365137 0.078513 0.000000 -0.370986 0.074653 0.000000 -0.394897 0.071297 0.000000 -0.399392 0.066846 0.000000 -0.421473 0.063402 0.000000 -0.424590 0.058369 0.000000 -0.444610 0.054790 0.000000 -0.446297 0.049189 0.000000 -0.464027 0.045429 0.000000 -0.464212 0.039284 0.000000 -0.479432 0.035312 0.000000 -0.478028 0.028664 0.000000 -0.490531 0.024468 0.000000 -0.487440 0.017372 0.000000 -0.497042 0.012965 0.000000 -0.492173 0.005499 0.000000 -0.498720 0.000918 0.000000 -0.491995 -0.006819 0.000000 -0.495376 -0.011512 0.000000 -0.486746 -0.019408 0.000000 -0.486897 -0.024127 0.000000 -0.476349 -0.032056 0.000000 -0.473259 -0.036706 0.000000 -0.460824 -0.044538 0.000000 -0.454539 -0.049013 0.000000 -0.440291 -0.056621 0.000000 -0.430913 -0.060817 0.000000 -0.414972 -0.068084 0.000000 -0.402650 -0.071908 0.000000 -0.385176 -0.078730 0.000000 -0.370101 -0.082100 0.000000 -0.351288 -0.088396 0.000000 -0.333685 -0.091248 0.000000 -0.313750 -0.096956 0.000000 -0.293868 -0.099244 0.000000 -0.273045 -0.104320 0.000000 -0.251146 -0.106016 0.000000 -0.229678 -0.110439 0.000000 -0.206032 -0.111530 0.000000 -0.184166 -0.115290 0.000000 
-0.167031 -0.138990 0.000000 -0.144535 -0.142645 0.000000 -0.117741 -0.142426 0.000000 -0.095310 -0.145311 0.000000 -0.067555 -0.144412 0.000000 -0.045426 -0.146546 0.000000 -0.016967 -0.144990 0.000000 0.004633 -0.146390 0.000000 0.033550 -0.144202 0.000000 0.054404 -0.144886 0.000000 0.083538 -0.142090 0.000000 0.103439 -0.142073 0.000000 0.132557 -0.138696 0.000000 0.151308 -0.137989 0.000000 0.180179 -0.134059 0.000000 0.197589 -0.132672 0.000000 0.225987 -0.128217 0.000000 0.241878 -0.126161 0.000000 0.269576 -0.121215 0.000000 0.283778 -0.118500 0.000000 0.310555 -0.113100 0.000000 0.322911 -0.109739 0.000000 0.348548 -0.103929 0.000000 0.358915 -0.099938 0.000000 0.383198 -0.093770 0.000000 0.391449 -0.089171 0.000000 0.414171 -0.082701 0.000000 0.420201 -0.077521 0.000000 0.441163 -0.070813 0.000000 0.444886 -0.065083 0.000000 0.463899 -0.058209 0.000000 0.465255 -0.051967 0.000000 0.482145 -0.045003 0.000000 0.481100 -0.038290 0.000000 0.495705 -0.031318 0.000000 0.492250 -0.024183 0.000000 0.504425 -0.017288 0.000000 0.498585 -0.009784 0.000000 0.508203 -0.003054 0.000000 0.500029 0.004762 0.000000 0.506981 0.011236 0.000000 0.496559 0.019301 0.000000 0.500757 0.025429 0.000000 0.488202 0.033677 0.000000 0.489581 0.039369 0.000000 0.475042 0.047728 0.000000 0.473560 0.052898 0.000000 0.457215 0.061293 0.000000 0.452856 0.065863 0.000000 0.434914 0.074211 0.000000 0.427688 0.078110 0.000000 0.408383 0.086327 0.000000 0.398331 0.089496 0.000000 0.377918 0.097492 0.000000 0.365112 0.099887 0.000000 0.343865 0.107572 0.000000 0.328406 0.109166 0.000000 0.306610 0.116448 0.000000 0.288633 0.117230 0.000000 0.266575 0.124020 0.000000 0.246249 0.124003 0.000000 0.224212 0.130215 0.000000 0.201733 0.129428 0.000000 0.179992 0.134987 0.000000 0.155586 0.133479 0.000000 0.134394 0.138315 0.000000 0.108312 0.136155 0.000000 0.087897 0.140214 0.000000 0.060408 0.137482 0.000000 0.040968 0.140722 0.000000 0.012355 0.137512 0.000000 -0.005948 0.139906 0.000000 -0.035392 0.136316 0.000000 -0.052437 0.137851 0.000000 -0.082418 0.133980 0.000000 -0.098119 0.134658 0.000000 -0.128344 0.130601 0.000000 -0.142655 0.130433 0.000000 -0.172839 0.126273 0.000000 -0.185746 0.125280 0.000000 -0.215614 0.121085 0.000000 -0.227127 0.119292 0.000000 -0.256414 0.115107 0.000000 -0.266563 0.112540 0.000000 -0.295015 0.108390 0.000000 -0.303836 0.105074 0.000000 -0.331209 0.100957 0.000000 -0.338735 0.096912 0.000000 -0.364789 0.092807 0.000000 -0.371038 0.088048 0.000000 -0.395536 0.083912 0.000000 -0.400506 0.078454 0.000000 -0.423209 0.074234 0.000000 -0.426869 0.068090 0.000000 -0.447538 0.063728 0.000000 -0.449825 0.056918 0.000000 -0.468218 0.052362 0.000000 -0.469044 0.044917 0.000000 -0.484924 0.040131 0.000000 -0.484176 0.032099 0.000000 -0.497316 0.027067 0.000000 -0.494872 0.018517 0.000000 -0.505066 0.013254 0.000000 -0.500806 0.004280 0.000000 -0.507878 -0.001169 0.000000 -0.501699 -0.010451 0.000000 -0.505518 -0.016012 0.000000 -0.497347 -0.025465 0.000000 -0.497833 -0.031040 0.000000 -0.487640 -0.040516 0.000000 -0.484774 -0.045989 0.000000 -0.472577 -0.055332 0.000000 -0.466402 -0.060581 0.000000 -0.452272 -0.069642 0.000000 -0.442891 -0.074546 0.000000 -0.426951 -0.083186 0.000000 -0.414522 -0.087635 0.000000 -0.396939 -0.095735 0.000000 -0.381666 -0.099636 0.000000 -0.362646 -0.107100 0.000000 -0.344767 -0.110380 0.000000 -0.324542 -0.117138 0.000000 -0.304321 -0.119746 0.000000 -0.283141 -0.125749 0.000000 -0.260856 -0.127656 0.000000 -0.238980 -0.132880 0.000000 -0.214912 -0.134073 0.000000 -0.192599 -0.138509 0.000000 
-0.163180 -0.163840 0.000000 -0.140461 -0.168167 0.000000 -0.113354 -0.167993 0.000000 -0.090735 -0.171404 0.000000 -0.062692 -0.170414 0.000000 -0.040408 -0.172934 0.000000 -0.011682 -0.171158 0.000000 0.010046 -0.172810 0.000000 0.039213 -0.170281 0.000000 0.060172 -0.171088 0.000000 0.089544 -0.167837 0.000000 0.109530 -0.167819 0.000000 0.138878 -0.163879 0.000000 0.157696 -0.163052 0.000000 0.186792 -0.158456 0.000000 0.204253 -0.156832 0.000000 0.232871 -0.151616 0.000000 0.248796 -0.149207 0.000000 0.276710 -0.143412 0.000000 0.290927 -0.140231 0.000000 0.317916 -0.133901 0.000000 0.330264 -0.129964 0.000000 0.356107 -0.123152 0.000000 0.366440 -0.118478 0.000000 0.390918 -0.111244 0.000000 0.399106 -0.105858 0.000000 0.422010 -0.098269 0.000000 0.427941 -0.092203 0.000000 0.449069 -0.084335 0.000000 0.452654 -0.077626 0.000000 0.471813 -0.069562 0.000000 0.472989 -0.062253 0.000000 0.490001 -0.054081 0.000000 0.488729 -0.046223 0.000000 0.503430 -0.038039 0.000000 0.499701 -0.029687 0.000000 0.511941 -0.021590 0.000000 0.505777 -0.012806 0.000000 0.515427 -0.004899 0.000000 0.506878 0.004251 0.000000 0.513826 0.011862 0.000000 0.502979 0.021306 0.000000 0.507135 0.028514 0.000000 0.494107 0.038174 0.000000 0.495402 0.044875 0.000000 0.480345 0.054668 0.000000 0.478735 0.060761 0.000000 0.461833 0.070598 0.000000 0.457299 0.075989 0.000000 0.438764 0.085775 0.000000 0.431315 0.090382 0.000000 0.411391 0.100018 0.000000 0.401066 0.103769 0.000000 0.380018 0.113153 0.000000 0.366886 0.115996 0.000000 0.344998 0.125019 0.000000 0.329164 0.126922 0.000000 0.306731 0.135479 0.000000 0.288332 0.136431 0.000000 0.265655 0.144416 0.000000 0.244862 0.144429 0.000000 0.222238 0.151744 0.000000 0.199255 0.150856 0.000000 0.176970 0.157410 0.000000 0.152030 0.155681 0.000000 0.130351 0.161394 0.000000 0.103713 0.158906 0.000000 0.082880 0.163714 0.000000 0.054825 0.160565 0.000000 0.035043 0.164421 0.000000 0.005866 0.160723 0.000000 -0.012694 0.163596 0.000000 -0.042689 0.159468 0.000000 -0.059901 0.161345 0.000000 -0.090408 0.156908 0.000000 -0.106185 0.157792 0.000000 -0.136901 0.153157 0.000000 -0.151199 0.153064 0.000000 -0.181828 0.148331 0.000000 -0.194637 0.147286 0.000000 -0.224898 0.142534 0.000000 -0.236237 0.140566 0.000000 -0.265861 0.135848 0.000000 -0.275768 0.132986 0.000000 -0.304499 0.128327 0.000000 -0.313023 0.124596 0.000000 -0.340617 0.119988 0.000000 -0.347802 0.115409 0.000000 -0.374022 0.110816 0.000000 -0.379900 0.105401 0.000000 -0.404511 0.100765 0.000000 -0.409090 0.094519 0.000000 -0.431856 0.089765 0.000000 -0.435114 0.082698 0.000000 -0.455799 0.077746 0.000000 -0.457680 0.069869 0.000000 -0.476044 0.064647 0.000000 -0.476461 0.055990 0.000000 -0.492267 0.050445 0.000000 -0.491107 0.041056 0.000000 -0.504127 0.035165 0.000000 -0.501267 0.025122 0.000000 -0.511292 0.018899 0.000000 -0.506609 0.008312 0.000000 -0.513463 0.001811 0.000000 -0.506851 -0.009180 0.000000 -0.510402 -0.015864 0.000000 -0.501786 -0.027092 0.000000 -0.501957 -0.033835 0.000000 -0.491308 -0.045115 0.000000 -0.488085 -0.051769 0.000000 -0.475425 -0.062910 0.000000 -0.468857 -0.069317 0.000000 -0.454265 -0.080131 0.000000 -0.444465 -0.086138 0.000000 -0.428069 -0.096453 0.000000 -0.415206 -0.101919 0.000000 -0.397185 -0.111586 0.000000 -0.381473 -0.116394 0.000000 -0.362039 -0.125295 0.000000 -0.343728 -0.129352 0.000000 -0.323121 -0.137401 0.000000 -0.302485 -0.140644 0.000000 -0.280960 -0.147786 0.000000 -0.258281 -0.150178 0.000000 -0.236100 -0.156383 0.000000 -0.211665 -0.157911 0.000000 -0.189088 -0.163172 0.000000 