# vtk DataFile Version 2.0
Comment goes here
ASCII

DATASET STRUCTURED_POINTS
FIELD FieldData 1
TIME 1 1 double
0.17500000
DIMENSIONS    128   128   1

ORIGIN    0.000   0.000   0.000
SPACING   0.039062 0.039062   1.000

POINT_DATA   16384
VECTORS u double

0.043686 -0.000000 0.000000 0.049996 -0.000000 0.000000 0.057275 -0.000000 0.000000 0.063778 -0.000000 0.000000 0.071740 -0.000000 0.000000 0.078324 -0.000000 0.000000 0.086818 -0.000000 0.000000 0.093341 -0.000000 0.000000 0.102188 -0.000000 0.000000 0.108485 -0.000000 0.000000 0.117487 -0.000000 0.000000 0.123372 -0.000000 0.000000 0.132312 -0.000000 0.000000 0.137588 -0.000000 0.000000 0.146247 -0.000000 0.000000 0.150711 -0.000000 0.000000 0.158866 -0.000000 0.000000 0.162322 -0.000000 0.000000 0.169760 -0.000000 0.000000 0.172022 -0.000000 0.000000 0.178548 -0.000000 0.000000 0.179452 -0.000000 0.000000 0.184895 -0.000000 0.000000 0.184305 -0.000000 0.000000 0.188526 -0.000000 0.000000 0.186341 -0.000000 0.000000 0.189237 -0.000000 0.000000 0.185397 -0.000000 0.000000 0.186906 -0.000000 0.000000 0.181392 -0.000000 0.000000 0.181493 -0.000000 0.000000 0.174333 0.000000 0.000000 0.173046 -0.000000 0.000000 0.164308 0.000000 0.000000 0.161691 -0.000000 0.000000 0.151486 0.000000 0.000000 0.147630 0.000000 0.000000 0.136106 0.000000 0.000000 0.131130 0.000000 0.000000 0.118466 0.000000 0.000000 0.112510 0.000000 0.000000 0.098910 0.000000 0.000000 0.092129 0.000000 0.000000 0.077817 0.000000 0.000000 0.070377 0.000000 0.000000 0.055591 0.000000 0.000000 0.047656 0.000000 0.000000 0.032643 0.000000 0.000000 0.024379 0.000000 0.000000 0.009387 0.000000 0.000000 0.000954 0.000000 0.000000 -0.013768 0.000000 0.000000 -0.022221 0.000000 0.000000 -0.036432 0.000000 0.000000 -0.044763 0.000000 0.000000 -0.058229 0.000000 0.000000 -0.066309 0.000000 0.000000 -0.078811 0.000000 0.000000 -0.086521 0.000000 0.000000 -0.097854 0.000000 0.000000 -0.105089 0.000000 0.000000 -0.115066 0.000000 0.000000 -0.121733 0.000000 0.000000 -0.130193 0.000000 0.000000 -0.136211 0.000000 0.000000 -0.143018 0.000000 0.000000 -0.148320 0.000000 0.000000 -0.153370 0.000000 0.000000 -0.157904 0.000000 0.000000 -0.161128 0.000000 0.000000 -0.164860 0.000000 0.000000 -0.166227 0.000000 0.000000 -0.169143 0.000000 0.000000 -0.168664 0.000000 0.000000 -0.170772 0.000000 0.000000 -0.168501 0.000000 0.000000 -0.169831 0.000000 0.000000 -0.165869 0.000000 0.000000 -0.166478 0.000000 0.000000 -0.160967 0.000000 0.000000 -0.160932 0.000000 0.000000 -0.154057 0.000000 0.000000 -0.153481 0.000000 0.000000 -0.145459 0.000000 0.000000 -0.144461 0.000000 0.000000 -0.135535 0.000000 0.000000 -0.134250 0.000000 0.000000 -0.124681 0.000000 0.000000 -0.123247 0.000000 0.000000 -0.113301 0.000000 0.000000 -0.111854 0.000000 0.000000 -0.101788 0.000000 0.000000 -0.100453 0.000000 0.000000 -0.090505 0.000000 0.000000 -0.089387 0.000000 0.000000 -0.079765 0.000000 0.000000 -0.078938 0.000000 0.000000 -0.069807 0.000000 0.000000 -0.069312 0.000000 0.000000 -0.060793 0.000000 0.000000 -0.060631 0.000000 0.000000 -0.052793 0.000000 0.000000 -0.052925 0.000000 0.000000 -0.045787 0.000000 0.000000 -0.046137 0.000000 0.000000 -0.039669 0.000000 0.000000 -0.040129 0.000000 0.000000 -0.034261 0.000000 0.000000 -0.034696 0.000000 0.000000 -0.029325 0.000000 0.000000 -0.029585 0.000000 0.000000 -0.024585 0.000000 0.000000 -0.024512 0.000000 0.000000 -0.019745 0.000000 0.000000 -0.019183 0.000000 0.000000 -0.014511 0.000000 0.000000 -0.013317 -0.000000 0.000000 -0.008610 -0.000000 0.000000 -0.006660 -0.000000 0.000000 -0.001803 -0.000000 0.000000 0.000997 -0.000000 0.000000 0.006093 -0.000000 0.000000 0.009808 -0.000000 0.000000 0.015202 -0.000000 0.000000 0.019860 -0.000000 0.000000 0.025580 -0.000000 0.000000 0.031172 -0.000000 0.000000 0.037208 -0.000000 0.000000 
0.043342 -0.006394 0.000000 0.049676 -0.006795 0.000000 0.056971 -0.006891 0.000000 0.063507 -0.007232 0.000000 0.071487 -0.007273 0.000000 0.078110 -0.007539 0.000000 0.086625 -0.007509 0.000000 0.093193 -0.007685 0.000000 0.102063 -0.007572 0.000000 0.108410 -0.007649 0.000000 0.117434 -0.007443 0.000000 0.123373 -0.007413 0.000000 0.132337 -0.007108 0.000000 0.137669 -0.006967 0.000000 0.146349 -0.006562 0.000000 0.150871 -0.006310 0.000000 0.159046 -0.005805 0.000000 0.162559 -0.005447 0.000000 0.170014 -0.004850 0.000000 0.172332 -0.004394 0.000000 0.178870 -0.003715 0.000000 0.179828 -0.003173 0.000000 0.185277 -0.002426 0.000000 0.184737 -0.001815 0.000000 0.188959 -0.001018 0.000000 0.186820 -0.000356 0.000000 0.189710 0.000472 0.000000 0.185910 0.001166 0.000000 0.187407 0.002002 0.000000 0.181928 0.002706 0.000000 0.182011 0.003530 0.000000 0.174879 0.004224 0.000000 0.173568 0.005012 0.000000 0.164854 0.005677 0.000000 0.162206 0.006411 0.000000 0.152020 0.007030 0.000000 0.148128 0.007690 0.000000 0.136618 0.008250 0.000000 0.131601 0.008820 0.000000 0.118946 0.009310 0.000000 0.112946 0.009778 0.000000 0.099351 0.010190 0.000000 0.092525 0.010546 0.000000 0.078215 0.010876 0.000000 0.070725 0.011113 0.000000 0.055939 0.011360 0.000000 0.047955 0.011474 0.000000 0.032939 0.011638 0.000000 0.024626 0.011628 0.000000 0.009630 0.011713 0.000000 0.001146 0.011578 0.000000 -0.013582 0.011587 0.000000 -0.022083 0.011332 0.000000 -0.036301 0.011271 0.000000 -0.044679 0.010899 0.000000 -0.058153 0.010773 0.000000 -0.066279 0.010291 0.000000 -0.078787 0.010106 0.000000 -0.086542 0.009521 0.000000 -0.097881 0.009284 0.000000 -0.105158 0.008606 0.000000 -0.115142 0.008322 0.000000 -0.121846 0.007564 0.000000 -0.130313 0.007239 0.000000 -0.136363 0.006413 0.000000 -0.143177 0.006054 0.000000 -0.148506 0.005176 0.000000 -0.153562 0.004792 0.000000 -0.158117 0.003879 0.000000 -0.161346 0.003478 0.000000 -0.165093 0.002549 0.000000 -0.166464 0.002142 0.000000 -0.169387 0.001218 0.000000 -0.168912 0.000814 0.000000 -0.171018 -0.000081 0.000000 -0.168752 -0.000470 0.000000 -0.170072 -0.001316 0.000000 -0.166115 -0.001677 0.000000 -0.166703 -0.002451 0.000000 -0.161200 -0.002773 0.000000 -0.161136 -0.003455 0.000000 -0.154269 -0.003726 0.000000 -0.153656 -0.004299 0.000000 -0.145645 -0.004510 0.000000 -0.144603 -0.004962 0.000000 -0.135692 -0.005106 0.000000 -0.134357 -0.005427 0.000000 -0.124807 -0.005502 0.000000 -0.123319 -0.005690 0.000000 -0.113396 -0.005697 0.000000 -0.111895 -0.005756 0.000000 -0.101857 -0.005700 0.000000 -0.100469 -0.005641 0.000000 -0.090555 -0.005533 0.000000 -0.089385 -0.005370 0.000000 -0.079803 -0.005225 0.000000 -0.078928 -0.004979 0.000000 -0.069844 -0.004813 0.000000 -0.069307 -0.004507 0.000000 -0.060838 -0.004341 0.000000 -0.060641 -0.004000 0.000000 -0.052857 -0.003853 0.000000 -0.052962 -0.003503 0.000000 -0.045879 -0.003394 0.000000 -0.046210 -0.003059 0.000000 -0.039797 -0.003004 0.000000 -0.040245 -0.002704 0.000000 -0.034431 -0.002716 0.000000 -0.034860 -0.002468 0.000000 -0.029540 -0.002556 0.000000 -0.029798 -0.002370 0.000000 -0.024845 -0.002537 0.000000 -0.024772 -0.002420 0.000000 -0.020048 -0.002664 0.000000 -0.019487 -0.002617 0.000000 -0.014851 -0.002933 0.000000 -0.013659 -0.002951 0.000000 -0.008979 -0.003328 0.000000 -0.007031 -0.003403 0.000000 -0.002193 -0.003829 0.000000 0.000608 -0.003948 0.000000 0.005694 -0.004405 0.000000 0.009412 -0.004555 0.000000 0.014805 -0.005026 0.000000 0.019469 -0.005189 0.000000 0.025197 -0.005656 0.000000 0.030798 -0.005814 0.000000 0.036851 -0.006257 0.000000 
0.043148 -0.012825 0.000000 0.049498 -0.013630 0.000000 0.056837 -0.013830 0.000000 0.063396 -0.014516 0.000000 0.071433 -0.014604 0.000000 0.078088 -0.015138 0.000000 0.086670 -0.015083 0.000000 0.093277 -0.015438 0.000000 0.102224 -0.015216 0.000000 0.108614 -0.015371 0.000000 0.117722 -0.014963 0.000000 0.123706 -0.014903 0.000000 0.132758 -0.014296 0.000000 0.138134 -0.014012 0.000000 0.146904 -0.013203 0.000000 0.151467 -0.012697 0.000000 0.159728 -0.011688 0.000000 0.163277 -0.010968 0.000000 0.170813 -0.009773 0.000000 0.173157 -0.008856 0.000000 0.179768 -0.007496 0.000000 0.180740 -0.006407 0.000000 0.186253 -0.004910 0.000000 0.185713 -0.003682 0.000000 0.189985 -0.002082 0.000000 0.187831 -0.000751 0.000000 0.190758 0.000909 0.000000 0.186927 0.002303 0.000000 0.188446 0.003982 0.000000 0.182919 0.005396 0.000000 0.183010 0.007049 0.000000 0.175815 0.008443 0.000000 0.174499 0.010026 0.000000 0.165706 0.011362 0.000000 0.163043 0.012834 0.000000 0.152765 0.014078 0.000000 0.148850 0.015402 0.000000 0.137236 0.016527 0.000000 0.132190 0.017672 0.000000 0.119423 0.018655 0.000000 0.113390 0.019595 0.000000 0.099677 0.020422 0.000000 0.092815 0.021137 0.000000 0.078383 0.021799 0.000000 0.070859 0.022275 0.000000 0.055950 0.022770 0.000000 0.047933 0.023000 0.000000 0.032795 0.023330 0.000000 0.024452 0.023310 0.000000 0.009336 0.023479 0.000000 0.000827 0.023211 0.000000 -0.014016 0.023230 0.000000 -0.022539 0.022719 0.000000 -0.036867 0.022596 0.000000 -0.045263 0.021852 0.000000 -0.058840 0.021599 0.000000 -0.066978 0.020635 0.000000 -0.079582 0.020263 0.000000 -0.087346 0.019094 0.000000 -0.098771 0.018616 0.000000 -0.106053 0.017261 0.000000 -0.116112 0.016688 0.000000 -0.122819 0.015171 0.000000 -0.131347 0.014517 0.000000 -0.137398 0.012864 0.000000 -0.144258 0.012143 0.000000 -0.149585 0.010385 0.000000 -0.154670 0.009611 0.000000 -0.159221 0.007784 0.000000 -0.162460 0.006976 0.000000 -0.166200 0.005118 0.000000 -0.167560 0.004294 0.000000 -0.170473 0.002448 0.000000 -0.169966 0.001631 0.000000 -0.172059 -0.000160 0.000000 -0.169738 -0.000946 0.000000 -0.171041 -0.002637 0.000000 -0.167008 -0.003368 0.000000 -0.167576 -0.004916 0.000000 -0.161974 -0.005567 0.000000 -0.161889 -0.006930 0.000000 -0.154905 -0.007480 0.000000 -0.154268 -0.008625 0.000000 -0.146124 -0.009053 0.000000 -0.145060 -0.009953 0.000000 -0.136004 -0.010246 0.000000 -0.134649 -0.010885 0.000000 -0.124948 -0.011038 0.000000 -0.123445 -0.011410 0.000000 -0.113370 -0.011425 0.000000 -0.111861 -0.011539 0.000000 -0.101675 -0.011426 0.000000 -0.100289 -0.011302 0.000000 -0.090237 -0.011084 0.000000 -0.089081 -0.010752 0.000000 -0.079376 -0.010457 0.000000 -0.078528 -0.009959 0.000000 -0.069338 -0.009622 0.000000 -0.068842 -0.009005 0.000000 -0.060289 -0.008666 0.000000 -0.060145 -0.007981 0.000000 -0.052299 -0.007679 0.000000 -0.052468 -0.006978 0.000000 -0.045344 -0.006752 0.000000 -0.045749 -0.006082 0.000000 -0.039316 -0.005965 0.000000 -0.039843 -0.005366 0.000000 -0.034026 -0.005385 0.000000 -0.034538 -0.004891 0.000000 -0.029229 -0.005062 0.000000 -0.029568 -0.004695 0.000000 -0.024637 -0.005025 0.000000 -0.024641 -0.004797 0.000000 -0.019944 -0.005285 0.000000 -0.019453 -0.005197 0.000000 -0.014847 -0.005829 0.000000 -0.013713 -0.005872 0.000000 -0.009063 -0.006628 0.000000 -0.007161 -0.006786 0.000000 -0.002349 -0.007639 0.000000 0.000420 -0.007886 0.000000 0.005485 -0.008804 0.000000 0.009186 -0.009111 0.000000 0.014567 -0.010057 0.000000 0.019230 -0.010392 0.000000 0.024954 -0.011329 0.000000 0.030569 -0.011654 0.000000 0.036628 -0.012544 0.000000 
0.042254 -0.019263 0.000000 0.048669 -0.020483 0.000000 0.056084 -0.020789 0.000000 0.062732 -0.021829 0.000000 0.070864 -0.021965 0.000000 0.077630 -0.022776 0.000000 0.086323 -0.022698 0.000000 0.093059 -0.023239 0.000000 0.102129 -0.022908 0.000000 0.108662 -0.023147 0.000000 0.117902 -0.022535 0.000000 0.124039 -0.022448 0.000000 0.133226 -0.021537 0.000000 0.138761 -0.021113 0.000000 0.147664 -0.019895 0.000000 0.152385 -0.019134 0.000000 0.160774 -0.017615 0.000000 0.164473 -0.016532 0.000000 0.172125 -0.014731 0.000000 0.174608 -0.013350 0.000000 0.181318 -0.011298 0.000000 0.182413 -0.009658 0.000000 0.188002 -0.007399 0.000000 0.187564 -0.005548 0.000000 0.191888 -0.003136 0.000000 0.189811 -0.001128 0.000000 0.192764 0.001377 0.000000 0.188982 0.003478 0.000000 0.190500 0.006010 0.000000 0.184995 0.008142 0.000000 0.185057 0.010634 0.000000 0.177856 0.012735 0.000000 0.176486 0.015121 0.000000 0.167661 0.017133 0.000000 0.164921 0.019352 0.000000 0.154588 0.021224 0.000000 0.150576 0.023219 0.000000 0.138886 0.024910 0.000000 0.133728 0.026634 0.000000 0.120868 0.028110 0.000000 0.114712 0.029524 0.000000 0.100892 0.030765 0.000000 0.093900 0.031840 0.000000 0.079352 0.032832 0.000000 0.071695 0.033546 0.000000 0.056662 0.034286 0.000000 0.048512 0.034629 0.000000 0.033246 0.035120 0.000000 0.024773 0.035087 0.000000 0.009528 0.035337 0.000000 0.000893 0.034931 0.000000 -0.014077 0.034954 0.000000 -0.022720 0.034182 0.000000 -0.037171 0.033994 0.000000 -0.045680 0.032871 0.000000 -0.059375 0.032489 0.000000 -0.067619 0.031033 0.000000 -0.080333 0.030474 0.000000 -0.088194 0.028710 0.000000 -0.099719 0.027991 0.000000 -0.107090 0.025947 0.000000 -0.117237 0.025088 0.000000 -0.124023 0.022799 0.000000 -0.132625 0.021818 0.000000 -0.138743 0.019323 0.000000 -0.145661 0.018241 0.000000 -0.151042 0.015588 0.000000 -0.156168 0.014428 0.000000 -0.160758 0.011669 0.000000 -0.164018 0.010457 0.000000 -0.167780 0.007650 0.000000 -0.169139 0.006415 0.000000 -0.172056 0.003624 0.000000 -0.171525 0.002400 0.000000 -0.173601 -0.000309 0.000000 -0.171235 -0.001488 0.000000 -0.172500 -0.004046 0.000000 -0.168399 -0.005142 0.000000 -0.168908 -0.007484 0.000000 -0.163220 -0.008460 0.000000 -0.163055 -0.010525 0.000000 -0.155970 -0.011346 0.000000 -0.155236 -0.013080 0.000000 -0.146979 -0.013718 0.000000 -0.145803 -0.015082 0.000000 -0.136630 -0.015517 0.000000 -0.135155 -0.016483 0.000000 -0.125338 -0.016705 0.000000 -0.123713 -0.017268 0.000000 -0.113531 -0.017281 0.000000 -0.111903 -0.017451 0.000000 -0.101627 -0.017272 0.000000 -0.100132 -0.017079 0.000000 -0.090011 -0.016741 0.000000 -0.088764 -0.016232 0.000000 -0.079015 -0.015778 0.000000 -0.078099 -0.015016 0.000000 -0.068895 -0.014499 0.000000 -0.068356 -0.013556 0.000000 -0.059819 -0.013037 0.000000 -0.059660 -0.011991 0.000000 -0.051858 -0.011530 0.000000 -0.052039 -0.010457 0.000000 -0.044987 -0.010113 0.000000 -0.045426 -0.009087 0.000000 -0.039086 -0.008910 0.000000 -0.039668 -0.007994 0.000000 -0.033959 -0.008022 0.000000 -0.034540 -0.007265 0.000000 -0.029348 -0.007525 0.000000 -0.029764 -0.006962 0.000000 -0.024951 -0.007464 0.000000 -0.025034 -0.007113 0.000000 -0.020450 -0.007852 0.000000 -0.020034 -0.007714 0.000000 -0.015529 -0.008673 0.000000 -0.014461 -0.008735 0.000000 -0.009895 -0.009881 0.000000 -0.008043 -0.010117 0.000000 -0.003295 -0.011409 0.000000 -0.000559 -0.011782 0.000000 0.004467 -0.013172 0.000000 0.008156 -0.013637 0.000000 0.013523 -0.015070 0.000000 0.018196 -0.015576 0.000000 0.023933 -0.016995 0.000000 0.029581 -0.017489 0.000000 0.035680 -0.018836 0.000000 
0.041500 -0.025814 0.000000 0.047969 -0.027459 0.000000 0.055489 -0.027894 0.000000 0.062218 -0.029296 0.000000 0.070484 -0.029501 0.000000 0.077354 -0.030596 0.000000 0.086206 -0.030512 0.000000 0.093065 -0.031244 0.000000 0.102314 -0.030819 0.000000 0.108985 -0.031145 0.000000 0.118419 -0.030340 0.000000 0.124703 -0.030227 0.000000 0.134092 -0.029018 0.000000 0.139775 -0.028451 0.000000 0.148881 -0.026827 0.000000 0.153745 -0.025806 0.000000 0.162329 -0.023776 0.000000 0.166160 -0.022319 0.000000 0.173993 -0.019908 0.000000 0.176588 -0.018050 0.000000 0.183459 -0.015300 0.000000 0.184638 -0.013091 0.000000 0.190362 -0.010061 0.000000 0.189976 -0.007568 0.000000 0.194403 -0.004329 0.000000 0.192342 -0.001627 0.000000 0.195363 0.001738 0.000000 0.191559 0.004567 0.000000 0.193109 0.007969 0.000000 0.187542 0.010839 0.000000 0.187602 0.014188 0.000000 0.180301 0.017014 0.000000 0.178896 0.020221 0.000000 0.169935 0.022926 0.000000 0.167133 0.025907 0.000000 0.156632 0.028424 0.000000 0.152534 0.031104 0.000000 0.140650 0.033374 0.000000 0.135389 0.035690 0.000000 0.122312 0.037671 0.000000 0.116042 0.039570 0.000000 0.101990 0.041233 0.000000 0.094879 0.042677 0.000000 0.080088 0.044005 0.000000 0.072311 0.044965 0.000000 0.057030 0.045953 0.000000 0.048763 0.046416 0.000000 0.033249 0.047069 0.000000 0.024665 0.047027 0.000000 0.009176 0.047358 0.000000 0.000439 0.046817 0.000000 -0.014770 0.046843 0.000000 -0.023505 0.045813 0.000000 -0.038184 0.045556 0.000000 -0.046774 0.044056 0.000000 -0.060684 0.043538 0.000000 -0.069000 0.041593 0.000000 -0.081913 0.040838 0.000000 -0.089836 0.038480 0.000000 -0.101541 0.037512 0.000000 -0.108964 0.034778 0.000000 -0.119268 0.033621 0.000000 -0.126097 0.030559 0.000000 -0.134830 0.029237 0.000000 -0.140983 0.025900 0.000000 -0.148001 0.024442 0.000000 -0.153406 0.020892 0.000000 -0.158597 0.019327 0.000000 -0.163200 0.015634 0.000000 -0.166487 0.013997 0.000000 -0.170250 0.010240 0.000000 -0.171594 0.008571 0.000000 -0.174498 0.004834 0.000000 -0.173908 0.003177 0.000000 -0.175955 -0.000450 0.000000 -0.173484 -0.002048 0.000000 -0.174705 -0.005473 0.000000 -0.170454 -0.006960 0.000000 -0.170903 -0.010094 0.000000 -0.165024 -0.011421 0.000000 -0.164784 -0.014181 0.000000 -0.157470 -0.015299 0.000000 -0.156651 -0.017615 0.000000 -0.148135 -0.018485 0.000000 -0.146868 -0.020302 0.000000 -0.137415 -0.020895 0.000000 -0.135848 -0.022177 0.000000 -0.125742 -0.022480 0.000000 -0.124030 -0.023218 0.000000 -0.113562 -0.023235 0.000000 -0.111861 -0.023443 0.000000 -0.101313 -0.023197 0.000000 -0.099766 -0.022918 0.000000 -0.089400 -0.022451 0.000000 -0.088127 -0.021748 0.000000 -0.078168 -0.021122 0.000000 -0.077258 -0.020079 0.000000 -0.067887 -0.019365 0.000000 -0.067388 -0.018081 0.000000 -0.058731 -0.017362 0.000000 -0.058646 -0.015942 0.000000 -0.050773 -0.015300 0.000000 -0.051059 -0.013850 0.000000 -0.043981 -0.013365 0.000000 -0.044552 -0.011982 0.000000 -0.038228 -0.011723 0.000000 -0.038961 -0.010493 0.000000 -0.033303 -0.010513 0.000000 -0.034046 -0.009502 0.000000 -0.028931 -0.009837 0.000000 -0.029512 -0.009092 0.000000 -0.024792 -0.009756 0.000000 -0.025033 -0.009298 0.000000 -0.020549 -0.010285 0.000000 -0.020277 -0.010118 0.000000 -0.015871 -0.011402 0.000000 -0.014925 -0.011507 0.000000 -0.010448 -0.013046 0.000000 -0.008693 -0.013386 0.000000 -0.004018 -0.015123 0.000000 -0.001346 -0.015648 0.000000 0.003627 -0.017519 0.000000 0.007286 -0.018168 0.000000 0.012625 -0.020097 0.000000 0.017302 -0.020802 0.000000 0.023039 -0.022713 0.000000 0.028726 -0.023401 0.000000 0.034852 -0.025217 0.000000 
0.040010 -0.032380 0.000000 0.046587 -0.034472 0.000000 0.054244 -0.035039 0.000000 0.061122 -0.036824 0.000000 0.069561 -0.037101 0.000000 0.076616 -0.038498 0.000000 0.085672 -0.038409 0.000000 0.092749 -0.039348 0.000000 0.102226 -0.038828 0.000000 0.109139 -0.039252 0.000000 0.118817 -0.038252 0.000000 0.125359 -0.038121 0.000000 0.135001 -0.036609 0.000000 0.140949 -0.035902 0.000000 0.150307 -0.033865 0.000000 0.155434 -0.032583 0.000000 0.164259 -0.030030 0.000000 0.168340 -0.028195 0.000000 0.176392 -0.025159 0.000000 0.179215 -0.022815 0.000000 0.186274 -0.019348 0.000000 0.187649 -0.016561 0.000000 0.193524 -0.012738 0.000000 0.193294 -0.009589 0.000000 0.197828 -0.005501 0.000000 0.195877 -0.002088 0.000000 0.198956 0.002160 0.000000 0.195212 0.005732 0.000000 0.196770 0.010027 0.000000 0.191212 0.013649 0.000000 0.191231 0.017875 0.000000 0.183888 0.021441 0.000000 0.182397 0.025487 0.000000 0.173346 0.028896 0.000000 0.170417 0.032655 0.000000 0.159783 0.035823 0.000000 0.155525 0.039201 0.000000 0.143471 0.042055 0.000000 0.138023 0.044971 0.000000 0.124746 0.047457 0.000000 0.118272 0.049846 0.000000 0.103996 0.051929 0.000000 0.096669 0.053742 0.000000 0.081637 0.055400 0.000000 0.073640 0.056605 0.000000 0.058108 0.057834 0.000000 0.049623 0.058410 0.000000 0.033853 0.059218 0.000000 0.025056 0.059160 0.000000 0.009312 0.059563 0.000000 0.000371 0.058876 0.000000 -0.015088 0.058898 0.000000 -0.024015 0.057596 0.000000 -0.038937 0.057264 0.000000 -0.047707 0.055372 0.000000 -0.061846 0.054715 0.000000 -0.070329 0.052262 0.000000 -0.083456 0.051310 0.000000 -0.091531 0.048337 0.000000 -0.103430 0.047119 0.000000 -0.110991 0.043675 0.000000 -0.121466 0.042221 0.000000 -0.128417 0.038361 0.000000 -0.137294 0.036703 0.000000 -0.143549 0.032494 0.000000 -0.150680 0.030665 0.000000 -0.156169 0.026184 0.000000 -0.161436 0.024222 0.000000 -0.166099 0.019559 0.000000 -0.169422 0.017506 0.000000 -0.173218 0.012758 0.000000 -0.174557 0.010664 0.000000 -0.177462 0.005938 0.000000 -0.176821 0.003857 0.000000 -0.178838 -0.000733 0.000000 -0.176270 -0.002739 0.000000 -0.177425 -0.007076 0.000000 -0.173033 -0.008943 0.000000 -0.173381 -0.012915 0.000000 -0.167320 -0.014579 0.000000 -0.166947 -0.018078 0.000000 -0.159416 -0.019479 0.000000 -0.158435 -0.022415 0.000000 -0.149678 -0.023501 0.000000 -0.148226 -0.025801 0.000000 -0.138519 -0.026537 0.000000 -0.136753 -0.028157 0.000000 -0.126392 -0.028523 0.000000 -0.124480 -0.029448 0.000000 -0.113769 -0.029450 0.000000 -0.111878 -0.029700 0.000000 -0.101114 -0.029367 0.000000 -0.099399 -0.028993 0.000000 -0.088854 -0.028380 0.000000 -0.087446 -0.027464 0.000000 -0.077358 -0.026647 0.000000 -0.076354 -0.025297 0.000000 -0.066908 -0.024370 0.000000 -0.066363 -0.022712 0.000000 -0.057690 -0.021779 0.000000 -0.057608 -0.019949 0.000000 -0.049776 -0.019117 0.000000 -0.050113 -0.017249 0.000000 -0.043128 -0.016620 0.000000 -0.043793 -0.014840 0.000000 -0.037605 -0.014501 0.000000 -0.038467 -0.012919 0.000000 -0.032976 -0.012938 0.000000 -0.033871 -0.011638 0.000000 -0.028944 -0.012059 0.000000 -0.029689 -0.011101 0.000000 -0.025164 -0.011943 0.000000 -0.025570 -0.011355 0.000000 -0.021275 -0.012608 0.000000 -0.021156 -0.012393 0.000000 -0.016923 -0.014025 0.000000 -0.016109 -0.014157 0.000000 -0.011778 -0.016113 0.000000 -0.010125 -0.016547 0.000000 -0.005562 -0.018756 0.000000 -0.002958 -0.019427 0.000000 0.001944 -0.021804 0.000000 0.005575 -0.022635 0.000000 0.010886 -0.025086 0.000000 0.015577 -0.025989 0.000000 0.021331 -0.028418 0.000000 0.027075 -0.029302 0.000000 0.033264 -0.031610 0.000000 
0.038634 -0.039137 0.000000 0.045307 -0.041693 0.000000 0.053134 -0.042429 0.000000 0.060153 -0.044613 0.000000 0.068807 -0.044996 0.000000 0.076042 -0.046708 0.000000 0.085353 -0.046644 0.000000 0.092643 -0.047798 0.000000 0.102407 -0.047209 0.000000 0.109559 -0.047736 0.000000 0.119547 -0.046560 0.000000 0.126344 -0.046410 0.000000 0.136308 -0.044608 0.000000 0.142516 -0.043757 0.000000 0.152197 -0.041312 0.000000 0.157577 -0.039758 0.000000 0.166715 -0.036682 0.000000 0.171029 -0.034453 0.000000 0.179371 -0.030783 0.000000 0.182397 -0.027932 0.000000 0.189711 -0.023734 0.000000 0.191247 -0.020341 0.000000 0.197331 -0.015706 0.000000 0.197211 -0.011871 0.000000 0.201902 -0.006911 0.000000 0.200001 -0.002754 0.000000 0.203181 0.002403 0.000000 0.199425 0.006753 0.000000 0.201024 0.011969 0.000000 0.195390 0.016378 0.000000 0.195393 0.021512 0.000000 0.187911 0.025848 0.000000 0.186350 0.030762 0.000000 0.177103 0.034906 0.000000 0.174058 0.039470 0.000000 0.163175 0.043316 0.000000 0.158764 0.047416 0.000000 0.146418 0.050876 0.000000 0.140789 0.054414 0.000000 0.127185 0.057423 0.000000 0.120511 0.060321 0.000000 0.105882 0.062836 0.000000 0.098347 0.065036 0.000000 0.082946 0.067033 0.000000 0.074740 0.068494 0.000000 0.058830 0.069970 0.000000 0.050141 0.070671 0.000000 0.033992 0.071635 0.000000 0.025003 0.071569 0.000000 0.008884 0.072043 0.000000 -0.000234 0.071216 0.000000 -0.016059 0.071230 0.000000 -0.025148 0.069661 0.000000 -0.040419 0.069248 0.000000 -0.049335 0.066966 0.000000 -0.063805 0.066160 0.000000 -0.072417 0.063202 0.000000 -0.085850 0.062040 0.000000 -0.094039 0.058454 0.000000 -0.106216 0.056972 0.000000 -0.113876 0.052815 0.000000 -0.124595 0.051047 0.000000 -0.131630 0.046386 0.000000 -0.140710 0.044370 0.000000 -0.147035 0.039287 0.000000 -0.154323 0.037061 0.000000 -0.159863 0.031648 0.000000 -0.165236 0.029257 0.000000 -0.169931 0.023620 0.000000 -0.173302 0.021116 0.000000 -0.177107 0.015374 0.000000 -0.178429 0.012815 0.000000 -0.181319 0.007098 0.000000 -0.180593 0.004552 0.000000 -0.182567 -0.001002 0.000000 -0.179843 -0.003461 0.000000 -0.180925 -0.008710 0.000000 -0.176309 -0.011003 0.000000 -0.176555 -0.015807 0.000000 -0.170203 -0.017855 0.000000 -0.169701 -0.022085 0.000000 -0.161822 -0.023811 0.000000 -0.160690 -0.027353 0.000000 -0.151539 -0.028694 0.000000 -0.149920 -0.031461 0.000000 -0.139788 -0.032367 0.000000 -0.137851 -0.034304 0.000000 -0.127051 -0.034753 0.000000 -0.124975 -0.035841 0.000000 -0.113830 -0.035837 0.000000 -0.111795 -0.036099 0.000000 -0.100622 -0.035677 0.000000 -0.098795 -0.035177 0.000000 -0.087886 -0.034404 0.000000 -0.086410 -0.033245 0.000000 -0.076016 -0.032214 0.000000 -0.074996 -0.030528 0.000000 -0.065316 -0.029356 0.000000 -0.064811 -0.027300 0.000000 -0.055981 -0.026116 0.000000 -0.055996 -0.023856 0.000000 -0.048085 -0.022795 0.000000 -0.048573 -0.020498 0.000000 -0.041583 -0.019685 0.000000 -0.042445 -0.017505 0.000000 -0.036317 -0.017050 0.000000 -0.037408 -0.015121 0.000000 -0.032033 -0.015109 0.000000 -0.033177 -0.013535 0.000000 -0.028402 -0.014020 0.000000 -0.029403 -0.012871 0.000000 -0.025054 -0.013875 0.000000 -0.025706 -0.013187 0.000000 -0.021595 -0.014699 0.000000 -0.021700 -0.014471 0.000000 -0.017642 -0.016449 0.000000 -0.017020 -0.016651 0.000000 -0.012845 -0.019029 0.000000 -0.011341 -0.019602 0.000000 -0.006903 -0.022291 0.000000 -0.004399 -0.023154 0.000000 0.000415 -0.026051 0.000000 0.003999 -0.027110 0.000000 0.009266 -0.030100 0.000000 0.013966 -0.031247 0.000000 0.019722 -0.034211 0.000000 0.025531 -0.035334 0.000000 0.031769 -0.038152 0.000000 
0.036465 -0.045918 0.000000 0.043290 -0.048972 0.000000 0.051321 -0.049884 0.000000 0.058551 -0.052497 0.000000 0.067463 -0.052991 0.000000 0.074964 -0.055044 0.000000 0.084578 -0.055010 0.000000 0.092180 -0.056402 0.000000 0.102285 -0.055744 0.000000 0.109785 -0.056392 0.000000 0.120139 -0.055037 0.000000 0.127308 -0.054882 0.000000 0.137651 -0.052781 0.000000 0.144243 -0.051791 0.000000 0.154302 -0.048926 0.000000 0.160061 -0.047100 0.000000 0.169561 -0.043482 0.000000 0.174236 -0.040852 0.000000 0.182910 -0.036526 0.000000 0.186261 -0.033155 0.000000 0.193863 -0.028198 0.000000 0.195675 -0.024181 0.000000 0.201991 -0.018702 0.000000 0.202087 -0.014160 0.000000 0.206943 -0.008292 0.000000 0.205189 -0.003367 0.000000 0.208461 0.002736 0.000000 0.204776 0.007888 0.000000 0.206393 0.014061 0.000000 0.200753 0.019280 0.000000 0.200700 0.025355 0.000000 0.193136 0.030483 0.000000 0.191452 0.036294 0.000000 0.182053 0.041189 0.000000 0.178825 0.046583 0.000000 0.167726 0.051117 0.000000 0.163082 0.055958 0.000000 0.150466 0.060030 0.000000 0.144568 0.064203 0.000000 0.130651 0.067736 0.000000 0.123681 0.071149 0.000000 0.108706 0.074092 0.000000 0.100861 0.076678 0.000000 0.085091 0.079007 0.000000 0.076571 0.080721 0.000000 0.060278 0.082432 0.000000 0.051280 0.083248 0.000000 0.034743 0.084356 0.000000 0.025455 0.084268 0.000000 0.008950 0.084801 0.000000 -0.000452 0.083818 0.000000 -0.016654 0.083811 0.000000 -0.026010 0.081957 0.000000 -0.041645 0.081451 0.000000 -0.050808 0.078757 0.000000 -0.065624 0.077796 0.000000 -0.074463 0.074307 0.000000 -0.088218 0.072932 0.000000 -0.096615 0.068704 0.000000 -0.109086 0.066956 0.000000 -0.116933 0.062054 0.000000 -0.127911 0.059975 0.000000 -0.135111 0.054476 0.000000 -0.144410 0.052108 0.000000 -0.150876 0.046107 0.000000 -0.158336 0.043493 0.000000 -0.163990 0.037098 0.000000 -0.169481 0.034291 0.000000 -0.174258 0.027624 0.000000 -0.177686 0.024682 0.000000 -0.181537 0.017885 0.000000 -0.182850 0.014876 0.000000 -0.185744 0.008101 0.000000 -0.184939 0.005105 0.000000 -0.186870 -0.001483 0.000000 -0.183996 -0.004380 0.000000 -0.184987 -0.010611 0.000000 -0.180150 -0.013314 0.000000 -0.180253 -0.019020 0.000000 -0.173617 -0.021433 0.000000 -0.172923 -0.026459 0.000000 -0.164705 -0.028491 0.000000 -0.163338 -0.032698 0.000000 -0.153806 -0.034270 0.000000 -0.151921 -0.037552 0.000000 -0.141383 -0.038606 0.000000 -0.139160 -0.040894 0.000000 -0.127950 -0.041399 0.000000 -0.125585 -0.042669 0.000000 -0.114048 -0.042630 0.000000 -0.111739 -0.042908 0.000000 -0.100212 -0.042367 0.000000 -0.098145 -0.041729 0.000000 -0.086940 -0.040765 0.000000 -0.085275 -0.039334 0.000000 -0.074659 -0.038060 0.000000 -0.073515 -0.035997 0.000000 -0.063698 -0.034555 0.000000 -0.063141 -0.032048 0.000000 -0.054263 -0.030594 0.000000 -0.054303 -0.027845 0.000000 -0.046433 -0.026540 0.000000 -0.047018 -0.023751 0.000000 -0.040150 -0.022748 0.000000 -0.041172 -0.020106 0.000000 -0.035234 -0.019537 0.000000 -0.036538 -0.017203 0.000000 -0.031402 -0.017169 0.000000 -0.032794 -0.015268 0.000000 -0.028291 -0.015833 0.000000 -0.029555 -0.014450 0.000000 -0.025489 -0.015640 0.000000 -0.026403 -0.014814 0.000000 -0.022568 -0.016614 0.000000 -0.022915 -0.016345 0.000000 -0.019111 -0.018705 0.000000 -0.018696 -0.018954 0.000000 -0.014736 -0.021792 0.000000 -0.013394 -0.022489 0.000000 -0.009122 -0.025698 0.000000 -0.006724 -0.026746 0.000000 -0.002017 -0.030202 0.000000 0.001521 -0.031486 0.000000 0.006743 -0.035053 0.000000 0.011461 -0.036445 0.000000 0.017239 -0.039983 0.000000 0.023129 -0.041349 0.000000 0.029456 -0.044714 0.000000 