# vtk DataFile Version 2.0
Comment goes here
ASCII

DATASET STRUCTURED_POINTS
FIELD FieldData 1
TIME 1 1 double
0.21500000
DIMENSIONS    128   128   1

ORIGIN    0.000   0.000   0.000
SPACING   0.039062 0.039062   1.000

POINT_DATA   16384
VECTORS u double

-0.038067 -0.000000 0.000000 -0.027684 -0.000000 0.000000 -0.015549 -0.000000 0.000000 -0.004753 -0.000000 0.000000 0.007698 -0.000000 0.000000 0.018734 -0.000000 0.000000 0.031307 -0.000000 0.000000 0.042398 -0.000000 0.000000 0.054886 -0.000000 0.000000 0.065836 -0.000000 0.000000 0.078025 -0.000000 0.000000 0.088634 -0.000000 0.000000 0.100310 -0.000000 0.000000 0.110376 -0.000000 0.000000 0.121331 -0.000000 0.000000 0.130659 -0.000000 0.000000 0.140693 -0.000000 0.000000 0.149101 -0.000000 0.000000 0.158034 -0.000000 0.000000 0.165358 -0.000000 0.000000 0.173033 -0.000000 0.000000 0.179135 -0.000000 0.000000 0.185425 -0.000000 0.000000 0.190198 -0.000000 0.000000 0.195009 -0.000000 0.000000 0.198379 -0.000000 0.000000 0.201656 -0.000000 0.000000 0.203588 -0.000000 0.000000 0.205314 -0.000000 0.000000 0.205810 -0.000000 0.000000 0.206007 -0.000000 0.000000 0.205106 -0.000000 0.000000 0.203837 -0.000000 0.000000 0.201611 -0.000000 0.000000 0.198968 -0.000000 0.000000 0.195521 -0.000000 0.000000 0.191626 -0.000000 0.000000 0.187087 -0.000000 0.000000 0.182086 -0.000000 0.000000 0.176599 -0.000000 0.000000 0.170653 -0.000000 0.000000 0.164376 -0.000000 0.000000 0.157656 -0.000000 0.000000 0.150753 -0.000000 0.000000 0.143430 -0.000000 0.000000 0.136063 -0.000000 0.000000 0.128307 -0.000000 0.000000 0.120630 -0.000000 0.000000 0.112599 -0.000000 0.000000 0.104759 -0.000000 0.000000 0.096597 -0.000000 0.000000 0.088724 -0.000000 0.000000 0.080555 -0.000000 0.000000 0.072761 -0.000000 0.000000 0.064691 -0.000000 0.000000 0.057071 -0.000000 0.000000 0.049180 -0.000000 0.000000 0.041809 -0.000000 0.000000 0.034157 -0.000000 0.000000 0.027090 -0.000000 0.000000 0.019713 -0.000000 0.000000 0.012988 -0.000000 0.000000 0.005902 -0.000000 0.000000 -0.000461 -0.000000 0.000000 -0.007257 -0.000000 0.000000 -0.013251 -0.000000 0.000000 -0.019774 -0.000000 0.000000 -0.025407 -0.000000 0.000000 -0.031683 -0.000000 0.000000 -0.036972 -0.000000 0.000000 -0.043035 -0.000000 0.000000 -0.048005 -0.000000 0.000000 -0.053892 -0.000000 0.000000 -0.058573 -0.000000 0.000000 -0.064320 -0.000000 0.000000 -0.068744 -0.000000 0.000000 -0.074382 -0.000000 0.000000 -0.078584 -0.000000 0.000000 -0.084135 -0.000000 0.000000 -0.088145 -0.000000 0.000000 -0.093624 -0.000000 0.000000 -0.097470 -0.000000 0.000000 -0.102875 -0.000000 0.000000 -0.106577 -0.000000 0.000000 -0.111896 -0.000000 0.000000 -0.115465 -0.000000 0.000000 -0.120668 -0.000000 0.000000 -0.124105 -0.000000 0.000000 -0.129147 -0.000000 0.000000 -0.132440 -0.000000 0.000000 -0.137262 -0.000000 0.000000 -0.140385 -0.000000 0.000000 -0.144914 -0.000000 0.000000 -0.147826 -0.000000 0.000000 -0.151976 -0.000000 0.000000 -0.154622 -0.000000 0.000000 -0.158297 -0.000000 0.000000 -0.160608 -0.000000 0.000000 -0.163707 -0.000000 0.000000 -0.165603 -0.000000 0.000000 -0.168020 -0.000000 0.000000 -0.169413 -0.000000 0.000000 -0.171042 -0.000000 0.000000 -0.171839 -0.000000 0.000000 -0.172580 -0.000000 0.000000 -0.172689 -0.000000 0.000000 -0.172451 -0.000000 0.000000 -0.171783 -0.000000 0.000000 -0.170486 -0.000000 0.000000 -0.168961 -0.000000 0.000000 -0.166544 -0.000000 0.000000 -0.164093 -0.000000 0.000000 -0.160513 -0.000000 0.000000 -0.157088 -0.000000 0.000000 -0.152323 -0.000000 0.000000 -0.147891 -0.000000 0.000000 -0.141944 -0.000000 0.000000 -0.136497 -0.000000 0.000000 -0.129393 -0.000000 0.000000 -0.122946 -0.000000 0.000000 -0.114737 -0.000000 0.000000 -0.107328 -0.000000 0.000000 -0.098089 -0.000000 0.000000 -0.089782 -0.000000 0.000000 -0.079614 -0.000000 0.000000 -0.070496 -0.000000 0.000000 -0.059521 -0.000000 0.000000 -0.049704 -0.000000 0.000000 
-0.038112 -0.011010 0.000000 -0.027694 -0.011259 0.000000 -0.015539 -0.011465 0.000000 -0.004710 -0.011623 0.000000 0.007767 -0.011744 0.000000 0.018836 -0.011804 0.000000 0.031438 -0.011832 0.000000 0.042561 -0.011789 0.000000 0.055081 -0.011719 0.000000 0.066061 -0.011570 0.000000 0.078287 -0.011399 0.000000 0.088922 -0.011143 0.000000 0.100639 -0.010871 0.000000 0.110727 -0.010510 0.000000 0.121724 -0.010141 0.000000 0.131069 -0.009681 0.000000 0.141147 -0.009221 0.000000 0.149566 -0.008670 0.000000 0.158543 -0.008129 0.000000 0.165872 -0.007500 0.000000 0.173591 -0.006889 0.000000 0.179691 -0.006196 0.000000 0.186023 -0.005531 0.000000 0.190785 -0.004792 0.000000 0.195637 -0.004091 0.000000 0.198988 -0.003323 0.000000 0.202303 -0.002604 0.000000 0.204208 -0.001829 0.000000 0.205969 -0.001111 0.000000 0.206429 -0.000347 0.000000 0.206660 0.000352 0.000000 0.205715 0.001085 0.000000 0.204475 0.001748 0.000000 0.202198 0.002434 0.000000 0.199582 0.003045 0.000000 0.196077 0.003671 0.000000 0.192207 0.004217 0.000000 0.187603 0.004770 0.000000 0.182624 0.005244 0.000000 0.177068 0.005716 0.000000 0.171142 0.006111 0.000000 0.164792 0.006499 0.000000 0.158090 0.006812 0.000000 0.151111 0.007113 0.000000 0.143805 0.007345 0.000000 0.136360 0.007562 0.000000 0.128619 0.007716 0.000000 0.120865 0.007854 0.000000 0.112847 0.007935 0.000000 0.104930 0.008001 0.000000 0.096779 0.008018 0.000000 0.088831 0.008021 0.000000 0.080672 0.007981 0.000000 0.072807 0.007932 0.000000 0.064744 0.007845 0.000000 0.057056 0.007755 0.000000 0.049171 0.007631 0.000000 0.041737 0.007512 0.000000 0.034089 0.007360 0.000000 0.026965 0.007222 0.000000 0.019589 0.007051 0.000000 0.012813 0.006905 0.000000 0.005727 0.006724 0.000000 -0.000679 0.006579 0.000000 -0.007479 0.006395 0.000000 -0.013509 0.006259 0.000000 -0.020038 0.006078 0.000000 -0.025699 0.005955 0.000000 -0.031983 0.005783 0.000000 -0.037292 0.005676 0.000000 -0.043367 0.005516 0.000000 -0.048347 0.005428 0.000000 -0.054249 0.005284 0.000000 -0.058932 0.005214 0.000000 -0.064697 0.005086 0.000000 -0.069115 0.005031 0.000000 -0.074774 0.004920 0.000000 -0.078961 0.004877 0.000000 -0.084537 0.004781 0.000000 -0.088525 0.004744 0.000000 -0.094032 0.004662 0.000000 -0.097848 0.004626 0.000000 -0.103284 0.004554 0.000000 -0.106950 0.004510 0.000000 -0.112303 0.004444 0.000000 -0.115831 0.004386 0.000000 -0.121070 0.004320 0.000000 -0.124462 0.004240 0.000000 -0.129543 0.004168 0.000000 -0.132788 0.004058 0.000000 -0.137651 0.003973 0.000000 -0.140724 0.003826 0.000000 -0.145295 0.003720 0.000000 -0.148156 0.003531 0.000000 -0.152348 0.003398 0.000000 -0.154943 0.003161 0.000000 -0.158662 0.002993 0.000000 -0.160923 0.002705 0.000000 -0.164065 0.002497 0.000000 -0.165912 0.002156 0.000000 -0.168371 0.001905 0.000000 -0.169717 0.001511 0.000000 -0.171387 0.001213 0.000000 -0.172139 0.000769 0.000000 -0.172920 0.000425 0.000000 -0.172985 -0.000065 0.000000 -0.172784 -0.000453 0.000000 -0.172074 -0.000982 0.000000 -0.170812 -0.001411 0.000000 -0.169246 -0.001971 0.000000 -0.166860 -0.002434 0.000000 -0.164370 -0.003015 0.000000 -0.160817 -0.003503 0.000000 -0.157353 -0.004095 0.000000 -0.152611 -0.004598 0.000000 -0.148142 -0.005190 0.000000 -0.142212 -0.005697 0.000000 -0.136728 -0.006275 0.000000 -0.129637 -0.006776 0.000000 -0.123153 -0.007328 0.000000 -0.114952 -0.007809 0.000000 -0.107506 -0.008324 0.000000 -0.098270 -0.008773 0.000000 -0.089925 -0.009238 0.000000 -0.079754 -0.009643 0.000000 -0.070600 -0.010046 0.000000 -0.059617 -0.010396 0.000000 -0.049763 -0.010727 0.000000 
-0.038599 -0.022069 0.000000 -0.028139 -0.022573 0.000000 -0.015914 -0.022984 0.000000 -0.005033 -0.023306 0.000000 0.007517 -0.023546 0.000000 0.018646 -0.023671 0.000000 0.031322 -0.023725 0.000000 0.042511 -0.023643 0.000000 0.055105 -0.023501 0.000000 0.066156 -0.023206 0.000000 0.078452 -0.022861 0.000000 0.089161 -0.022351 0.000000 0.100942 -0.021804 0.000000 0.111106 -0.021085 0.000000 0.122159 -0.020342 0.000000 0.131578 -0.019423 0.000000 0.141703 -0.018497 0.000000 0.150192 -0.017397 0.000000 0.159204 -0.016306 0.000000 0.166597 -0.015048 0.000000 0.174336 -0.013819 0.000000 0.180492 -0.012432 0.000000 0.186829 -0.011095 0.000000 0.191638 -0.009614 0.000000 0.196477 -0.008203 0.000000 0.199865 -0.006666 0.000000 0.203150 -0.005220 0.000000 0.205081 -0.003666 0.000000 0.206795 -0.002222 0.000000 0.207272 -0.000691 0.000000 0.207440 0.000714 0.000000 0.206502 0.002185 0.000000 0.205185 0.003517 0.000000 0.202908 0.004893 0.000000 0.200203 0.006121 0.000000 0.196693 0.007375 0.000000 0.192726 0.008474 0.000000 0.188113 0.009583 0.000000 0.183031 0.010535 0.000000 0.177466 0.011482 0.000000 0.171434 0.012276 0.000000 0.165076 0.013052 0.000000 0.158269 0.013681 0.000000 0.151285 0.014285 0.000000 0.143878 0.014751 0.000000 0.136433 0.015186 0.000000 0.128597 0.015495 0.000000 0.120849 0.015772 0.000000 0.112745 0.015935 0.000000 0.104840 0.016068 0.000000 0.096615 0.016099 0.000000 0.088685 0.016107 0.000000 0.080464 0.016024 0.000000 0.072624 0.015928 0.000000 0.064512 0.015750 0.000000 0.056855 0.015573 0.000000 0.048934 0.015319 0.000000 0.041536 0.015083 0.000000 0.033865 0.014772 0.000000 0.026779 0.014500 0.000000 0.019394 0.014151 0.000000 0.012659 0.013862 0.000000 0.005573 0.013493 0.000000 -0.000792 0.013206 0.000000 -0.007580 0.012830 0.000000 -0.013572 0.012559 0.000000 -0.020080 0.012190 0.000000 -0.025706 0.011946 0.000000 -0.031964 0.011593 0.000000 -0.037241 0.011383 0.000000 -0.043286 0.011055 0.000000 -0.048241 0.010883 0.000000 -0.054110 0.010585 0.000000 -0.058774 0.010448 0.000000 -0.064505 0.010183 0.000000 -0.068913 0.010077 0.000000 -0.074539 0.009846 0.000000 -0.078725 0.009763 0.000000 -0.084271 0.009564 0.000000 -0.088267 0.009494 0.000000 -0.093746 0.009323 0.000000 -0.097581 0.009253 0.000000 -0.102994 0.009103 0.000000 -0.106690 0.009018 0.000000 -0.112023 0.008881 0.000000 -0.115592 0.008767 0.000000 -0.120817 0.008631 0.000000 -0.124260 0.008473 0.000000 -0.129332 0.008326 0.000000 -0.132638 0.008108 0.000000 -0.137497 0.007936 0.000000 -0.140641 0.007644 0.000000 -0.145212 0.007432 0.000000 -0.148152 0.007054 0.000000 -0.152349 0.006788 0.000000 -0.155029 0.006314 0.000000 -0.158756 0.005979 0.000000 -0.161107 0.005403 0.000000 -0.164258 0.004989 0.000000 -0.166198 0.004306 0.000000 -0.168667 0.003805 0.000000 -0.170107 0.003016 0.000000 -0.171786 0.002422 0.000000 -0.172630 0.001533 0.000000 -0.173416 0.000846 0.000000 -0.173570 -0.000136 0.000000 -0.173371 -0.000911 0.000000 -0.172742 -0.001972 0.000000 -0.171477 -0.002828 0.000000 -0.169985 -0.003952 0.000000 -0.167589 -0.004875 0.000000 -0.165164 -0.006043 0.000000 -0.161595 -0.007017 0.000000 -0.158185 -0.008206 0.000000 -0.153419 -0.009212 0.000000 -0.148992 -0.010399 0.000000 -0.143031 -0.011414 0.000000 -0.137577 -0.012575 0.000000 -0.130447 -0.013575 0.000000 -0.123980 -0.014686 0.000000 -0.115734 -0.015647 0.000000 -0.108292 -0.016682 0.000000 -0.099004 -0.017580 0.000000 -0.090652 -0.018515 0.000000 -0.080423 -0.019325 0.000000 -0.071249 -0.020138 0.000000 -0.060203 -0.020837 0.000000 -0.050318 -0.021504 0.000000 
-0.039182 -0.033189 0.000000 -0.028610 -0.033945 0.000000 -0.016274 -0.034572 0.000000 -0.005272 -0.035054 0.000000 0.007400 -0.035422 0.000000 0.018655 -0.035609 0.000000 0.031465 -0.035697 0.000000 0.042784 -0.035572 0.000000 0.055518 -0.035364 0.000000 0.066700 -0.034917 0.000000 0.079141 -0.034404 0.000000 0.089978 -0.033633 0.000000 0.101904 -0.032816 0.000000 0.112188 -0.031727 0.000000 0.123384 -0.030614 0.000000 0.132913 -0.029225 0.000000 0.143173 -0.027835 0.000000 0.151756 -0.026172 0.000000 0.160891 -0.024533 0.000000 0.168359 -0.022632 0.000000 0.176206 -0.020784 0.000000 0.182414 -0.018688 0.000000 0.188840 -0.016677 0.000000 0.193676 -0.014440 0.000000 0.198584 -0.012318 0.000000 0.201971 -0.009996 0.000000 0.205303 -0.007820 0.000000 0.207205 -0.005474 0.000000 0.208944 -0.003302 0.000000 0.209365 -0.000991 0.000000 0.209536 0.001121 0.000000 0.208516 0.003340 0.000000 0.207183 0.005341 0.000000 0.204802 0.007416 0.000000 0.202063 0.009260 0.000000 0.198430 0.011148 0.000000 0.194414 0.012798 0.000000 0.189663 0.014465 0.000000 0.184523 0.015892 0.000000 0.178807 0.017313 0.000000 0.172711 0.018501 0.000000 0.166197 0.019664 0.000000 0.159322 0.020603 0.000000 0.152179 0.021504 0.000000 0.144704 0.022197 0.000000 0.137102 0.022843 0.000000 0.129202 0.023300 0.000000 0.121302 0.023706 0.000000 0.113140 0.023944 0.000000 0.105092 0.024132 0.000000 0.096815 0.024173 0.000000 0.088753 0.024172 0.000000 0.080489 0.024043 0.000000 0.072529 0.023884 0.000000 0.064384 0.023614 0.000000 0.056621 0.023333 0.000000 0.048677 0.022950 0.000000 0.041186 0.022581 0.000000 0.033501 0.022116 0.000000 0.026339 0.021693 0.000000 0.018947 0.021172 0.000000 0.012150 0.020726 0.000000 0.005065 0.020175 0.000000 -0.001348 0.019733 0.000000 -0.008131 0.019175 0.000000 -0.014155 0.018759 0.000000 -0.020656 0.018212 0.000000 -0.026301 0.017838 0.000000 -0.032551 0.017318 0.000000 -0.037835 0.016998 0.000000 -0.043873 0.016516 0.000000 -0.048824 0.016253 0.000000 -0.054690 0.015817 0.000000 -0.059340 0.015609 0.000000 -0.065074 0.015225 0.000000 -0.069458 0.015065 0.000000 -0.075094 0.014732 0.000000 -0.079249 0.014608 0.000000 -0.084813 0.014323 0.000000 -0.088772 0.014220 0.000000 -0.094279 0.013976 0.000000 -0.098074 0.013874 0.000000 -0.103525 0.013662 0.000000 -0.107179 0.013539 0.000000 -0.112561 0.013346 0.000000 -0.116087 0.013180 0.000000 -0.121371 0.012988 0.000000 -0.124774 0.012755 0.000000 -0.129915 0.012546 0.000000 -0.133185 0.012223 0.000000 -0.138121 0.011975 0.000000 -0.141234 0.011541 0.000000 -0.145891 0.011232 0.000000 -0.148806 0.010668 0.000000 -0.153095 0.010275 0.000000 -0.155757 0.009567 0.000000 -0.159579 0.009070 0.000000 -0.161918 0.008207 0.000000 -0.165167 0.007589 0.000000 -0.167101 0.006565 0.000000 -0.169666 0.005813 0.000000 -0.171104 0.004630 0.000000 -0.172875 0.003736 0.000000 -0.173720 0.002400 0.000000 -0.174593 0.001365 0.000000 -0.174747 -0.000110 0.000000 -0.174625 -0.001281 0.000000 -0.173995 -0.002876 0.000000 -0.172795 -0.004169 0.000000 -0.171296 -0.005859 0.000000 -0.168954 -0.007254 0.000000 -0.166515 -0.009010 0.000000 -0.162983 -0.010482 0.000000 -0.159550 -0.012271 0.000000 -0.154806 -0.013791 0.000000 -0.150346 -0.015577 0.000000 -0.144390 -0.017112 0.000000 -0.138892 -0.018859 0.000000 -0.131750 -0.020372 0.000000 -0.125227 -0.022042 0.000000 -0.116950 -0.023497 0.000000 -0.109440 -0.025053 0.000000 -0.100105 -0.026413 0.000000 -0.091672 -0.027819 0.000000 -0.081379 -0.029046 0.000000 -0.072113 -0.030267 0.000000 -0.060985 -0.031327 0.000000 -0.050998 -0.032330 0.000000 
-0.040216 -0.044457 0.000000 -0.029524 -0.045482 0.000000 -0.017025 -0.046322 0.000000 -0.005885 -0.046980 0.000000 0.006960 -0.047474 0.000000 0.018369 -0.047736 0.000000 0.031357 -0.047853 0.000000 0.042843 -0.047697 0.000000 0.055758 -0.047417 0.000000 0.067114 -0.046828 0.000000 0.079734 -0.046139 0.000000 0.090748 -0.045115 0.000000 0.102846 -0.044015 0.000000 0.113305 -0.042565 0.000000 0.124660 -0.041067 0.000000 0.134356 -0.039212 0.000000 0.144755 -0.037340 0.000000 0.153493 -0.035115 0.000000 0.162743 -0.032909 0.000000 0.170346 -0.030363 0.000000 0.178279 -0.027874 0.000000 0.184598 -0.025066 0.000000 0.191076 -0.022356 0.000000 0.195996 -0.019357 0.000000 0.200919 -0.016498 0.000000 0.204361 -0.013385 0.000000 0.207671 -0.010454 0.000000 0.209598 -0.007308 0.000000 0.211277 -0.004381 0.000000 0.211694 -0.001282 0.000000 0.211770 0.001563 0.000000 0.210720 0.004538 0.000000 0.209260 0.007231 0.000000 0.206826 0.010013 0.000000 0.203934 0.012494 0.000000 0.200230 0.015024 0.000000 0.196041 0.017241 0.000000 0.191206 0.019474 0.000000 0.185879 0.021391 0.000000 0.180073 0.023294 0.000000 0.173783 0.024886 0.000000 0.167176 0.026441 0.000000 0.160108 0.027699 0.000000 0.152877 0.028902 0.000000 0.145214 0.029828 0.000000 0.137532 0.030688 0.000000 0.129456 0.031295 0.000000 0.121488 0.031834 0.000000 0.113167 0.032145 0.000000 0.105065 0.032393 0.000000 0.096650 0.032438 0.000000 0.088550 0.032433 0.000000 0.080171 0.032249 0.000000 0.072189 0.032034 0.000000 0.063954 0.031658 0.000000 0.056185 0.031280 0.000000 0.048176 0.030753 0.000000 0.040694 0.030258 0.000000 0.032969 0.029620 0.000000 0.025828 0.029054 0.000000 0.018419 0.028340 0.000000 0.011654 0.027744 0.000000 0.004573 0.026991 0.000000 -0.001801 0.026402 0.000000 -0.008563 0.025637 0.000000 -0.014543 0.025084 0.000000 -0.021009 0.024335 0.000000 -0.026608 0.023841 0.000000 -0.032813 0.023128 0.000000 -0.038052 0.022705 0.000000 -0.044039 0.022044 0.000000 -0.048948 0.021699 0.000000 -0.054762 0.021100 0.000000 -0.059376 0.020831 0.000000 -0.065059 0.020301 0.000000 -0.069416 0.020097 0.000000 -0.075006 0.019637 0.000000 -0.079143 0.019482 0.000000 -0.084669 0.019088 0.000000 -0.088624 0.018961 0.000000 -0.094101 0.018624 0.000000 -0.097905 0.018499 0.000000 -0.103339 0.018207 0.000000 -0.107016 0.018054 0.000000 -0.112393 0.017790 0.000000 -0.115960 0.017578 0.000000 -0.121252 0.017318 0.000000 -0.124713 0.017017 0.000000 -0.129874 0.016737 0.000000 -0.133219 0.016314 0.000000 -0.138189 0.015985 0.000000 -0.141393 0.015413 0.000000 -0.146094 0.015004 0.000000 -0.149117 0.014258 0.000000 -0.153459 0.013739 0.000000 -0.156243 0.012798 0.000000 -0.160125 0.012141 0.000000 -0.162596 0.010991 0.000000 -0.165908 0.010172 0.000000 -0.167982 0.008806 0.000000 -0.170610 0.007808 0.000000 -0.172191 0.006226 0.000000 -0.174022 0.005038 0.000000 -0.175008 0.003250 0.000000 -0.175933 0.001873 0.000000 -0.176222 -0.000104 0.000000 -0.176142 -0.001664 0.000000 -0.175636 -0.003802 0.000000 -0.174465 -0.005527 0.000000 -0.173075 -0.007794 0.000000 -0.170745 -0.009657 0.000000 -0.168397 -0.012013 0.000000 -0.164860 -0.013981 0.000000 -0.161498 -0.016383 0.000000 -0.156729 -0.018416 0.000000 -0.152316 -0.020815 0.000000 -0.146316 -0.022868 0.000000 -0.140840 -0.025215 0.000000 -0.133634 -0.027240 0.000000 -0.127109 -0.029486 0.000000 -0.118748 -0.031434 0.000000 -0.111211 -0.033527 0.000000 -0.101772 -0.035348 0.000000 -0.093288 -0.037241 0.000000 -0.082874 -0.038885 0.000000 -0.073532 -0.040532 0.000000 -0.062268 -0.041951 0.000000 -0.052182 -0.043307 0.000000 
-0.041360 -0.055847 0.000000 -0.030477 -0.057136 0.000000 -0.017774 -0.058211 0.000000 -0.006427 -0.059039 0.000000 0.006642 -0.059677 0.000000 0.018274 -0.060006 0.000000 0.031501 -0.060171 0.000000 0.043218 -0.059973 0.000000 0.056385 -0.059635 0.000000 0.067976 -0.058892 0.000000 0.080852 -0.058038 0.000000 0.092099 -0.056746 0.000000 0.104452 -0.055373 0.000000 0.115135 -0.053541 0.000000 0.126736 -0.051665 0.000000 0.136637 -0.049321 0.000000 0.147267 -0.046972 0.000000 0.156185 -0.044159 0.000000 0.165642 -0.041387 0.000000 0.173392 -0.038167 0.000000 0.181502 -0.035036 0.000000 0.187929 -0.031485 0.000000 0.194547 -0.028075 0.000000 0.199532 -0.024283 0.000000 0.204554 -0.020683 0.000000 0.208014 -0.016748 0.000000 0.211379 -0.013057 0.000000 0.213276 -0.009081 0.000000 0.214968 -0.005398 0.000000 0.215307 -0.001484 0.000000 0.215354 0.002095 0.000000 0.214184 0.005849 0.000000 0.212657 0.009235 0.000000 0.210063 0.012742 0.000000 0.207073 0.015856 0.000000 0.203176 0.019042 0.000000 0.198862 0.021821 0.000000 0.193810 0.024627 0.000000 0.188340 0.027025 0.000000 0.182300 0.029410 0.000000 0.175856 0.031397 0.000000 0.169007 0.033339 0.000000 0.161780 0.034903 0.000000 0.154304 0.036397 0.000000 0.146487 0.037542 0.000000 0.138565 0.038601 0.000000 0.130343 0.039344 0.000000 0.122147 0.039995 0.000000 0.113693 0.040367 0.000000 0.105379 0.040649 0.000000 0.096849 0.040689 0.000000 0.088556 0.040651 0.000000 0.080083 0.040404 0.000000 0.071930 0.040102 0.000000 0.063622 0.039618 0.000000 0.055707 0.039111 0.000000 0.047646 0.038441 0.000000 0.040043 0.037788 0.000000 0.032286 0.036982 0.000000 0.025049 0.036242 0.000000 0.017628 0.035346 0.000000 0.010790 0.034572 0.000000 0.003711 0.033630 0.000000 -0.002712 0.032868 0.000000 -0.009459 0.031917 0.000000 -0.015468 0.031205 0.000000 -0.021911 0.030277 0.000000 -0.027520 0.029643 0.000000 -0.033698 0.028763 0.000000 -0.038931 0.028224 0.000000 -0.044891 0.027412 0.000000 -0.049779 0.026975 0.000000 -0.055570 0.026245 0.000000 -0.060151 0.025906 0.000000 -0.065820 0.025264 0.000000 -0.070134 0.025012 0.000000 -0.075722 0.024459 0.000000 -0.079810 0.024271 0.000000 -0.085347 0.023803 0.000000 -0.089249 0.023652 0.000000 -0.094755 0.023258 0.000000 -0.098505 0.023111 0.000000 -0.103984 0.022773 0.000000 -0.107610 0.022594 0.000000 -0.113050 0.022290 0.000000 -0.116572 0.022039 0.000000 -0.121946 0.021741 0.000000 -0.125370 0.021377 0.000000 -0.130631 0.021052 0.000000 -0.133950 0.020537 0.000000 -0.139035 0.020149 0.000000 -0.142228 0.019446 0.000000 -0.147059 0.018955 0.000000 -0.150084 0.018033 0.000000 -0.154567 0.017401 0.000000 -0.157367 0.016233 0.000000 -0.161397 0.015424 0.000000 -0.163898 0.013991 0.000000 -0.167363 0.012975 0.000000 -0.169476 0.011267 0.000000 -0.172256 0.010022 0.000000 -0.173883 0.008041 0.000000 -0.175860 0.006553 0.000000 -0.176895 0.004311 0.000000 -0.177955 0.002579 0.000000 -0.178292 0.000099 0.000000 -0.178331 -0.001867 0.000000 -0.177865 -0.004553 0.000000 -0.176794 -0.006729 0.000000 -0.175434 -0.009579 0.000000 -0.173180 -0.011932 0.000000 -0.170846 -0.014895 0.000000 -0.167359 -0.017382 0.000000 -0.163991 -0.020402 0.000000 -0.159244 -0.022973 0.000000 -0.154804 -0.025991 0.000000 -0.148795 -0.028588 0.000000 -0.143269 -0.031541 0.000000 -0.136025 -0.034104 0.000000 -0.129424 -0.036928 0.000000 -0.120995 -0.039395 0.000000 -0.113358 -0.042028 0.000000 -0.103822 -0.044335 0.000000 -0.095213 -0.046717 0.000000 -0.084672 -0.048802 0.000000 -0.075181 -0.050873 0.000000 -0.063763 -0.052677 0.000000 -0.053506 -0.054382 0.000000 
-0.042973 -0.067486 0.000000 -0.031891 -0.069067 0.000000 -0.018930 -0.070372 0.000000 -0.007355 -0.071397 0.000000 0.005990 -0.072174 0.000000 0.017873 -0.072595 0.000000 0.031388 -0.072798 0.000000 0.043375 -0.072580 0.000000 0.056836 -0.072174 0.000000 0.068709 -0.071296 0.000000 0.081878 -0.070262 0.000000 0.093411 -0.068715 0.000000 0.106048 -0.067051 0.000000 0.117011 -0.064848 0.000000 0.128878 -0.062569 0.000000 0.139047 -0.059743 0.000000 0.149915 -0.056887 0.000000 0.159075 -0.053490 0.000000 0.168733 -0.050117 0.000000 0.176694 -0.046222 0.000000 0.184958 -0.042411 0.000000 0.191557 -0.038112 0.000000 0.198277 -0.033959 0.000000 0.203385 -0.029364 0.000000 0.208452 -0.024981 0.000000 0.211986 -0.020211 0.000000 0.215336 -0.015716 0.000000 0.217256 -0.010896 0.000000 0.218873 -0.006412 0.000000 0.219185 -0.001669 0.000000 0.219102 0.002686 0.000000 0.217858 0.007235 0.000000 0.216151 0.011352 0.000000 0.213446 0.015598 0.000000 0.210232 0.019381 0.000000 0.206193 0.023234 0.000000 0.201624 0.026607 0.000000 0.196407 0.029996 0.000000 0.190659 0.032901 0.000000 0.184442 0.035778 0.000000 0.177709 0.038180 0.000000 0.170679 0.040518 0.000000 0.163162 0.042401 0.000000 0.155511 0.044195 0.000000 0.147413 0.045567 0.000000 0.139329 0.046832 0.000000 0.130845 0.047714 0.000000 0.122504 0.048484 0.000000 0.113814 0.048913 0.000000 0.105379 0.049237 0.000000 0.096643 0.049261 0.000000 0.088256 0.049199 0.000000 0.079612 0.048875 0.000000 0.071392 0.048494 0.000000 0.062952 0.047882 0.000000 0.054996 0.047256 0.000000 0.046842 0.046417 0.000000 0.039223 0.045618 0.000000 0.031410 0.044614 0.000000 0.024180 0.043712 0.000000 0.016736 0.042600 0.000000 0.009924 0.041661 0.000000 0.002855 0.040493 0.000000 -0.003528 0.039572 0.000000 -0.010240 0.038393 0.000000 -0.016197 0.037537 0.000000 -0.022586 0.036387 0.000000 -0.028136 0.035628 0.000000 -0.034247 0.034538 0.000000 -0.039418 0.033898 0.000000 -0.045303 0.032892 0.000000 -0.050131 0.032379 0.000000 -0.055846 0.031473 0.000000 -0.060372 0.031081 0.000000 -0.065970 0.030284 0.000000 -0.070237 0.029999 0.000000 -0.075762 0.029312 0.000000 -0.079816 0.029108 0.000000 -0.085304 0.028527 0.000000 -0.089186 0.028368 0.000000 -0.094660 0.027880 0.000000 -0.098407 0.027728 0.000000 -0.103873 0.027312 0.000000 -0.107517 0.027121 0.000000 -0.112966 0.026752 0.000000 -0.116527 0.026473 0.000000 -0.121931 0.026116 0.000000 -0.125419 0.025702 0.000000 -0.130731 0.025317 0.000000 -0.134140 0.024719 0.000000 -0.139297 0.024262 0.000000 -0.142603 0.023436 0.000000 -0.147524 0.022860 0.000000 -0.150687 0.021766 0.000000 -0.155276 0.021022 0.000000 -0.158235 0.019628 0.000000 -0.162382 0.018672 0.000000 -0.165060 0.016956 0.000000 -0.168645 0.015750 0.000000 -0.170949 0.013699 0.000000 -0.173850 0.012215 0.000000 -0.175672 0.009830 0.000000 -0.177764 0.008050 0.000000 -0.178993 0.005346 0.000000 -0.180157 0.003269 0.000000 -0.180679 0.000272 0.000000 -0.180804 -0.002090 0.000000 -0.180508 -0.005339 0.000000 -0.179500 -0.007958 0.000000 -0.178287 -0.011408 0.000000 -0.176070 -0.014245 0.000000 -0.173856 -0.017835 0.000000 -0.170376 -0.020836 0.000000 -0.167096 -0.024498 0.000000 -0.162324 -0.027603 0.000000 -0.157938 -0.031263 0.000000 -0.151872 -0.034402 0.000000 -0.146362 -0.037986 0.000000 -0.139027 -0.041085 0.000000 -0.132405 -0.044515 0.000000 -0.123853 -0.047500 0.000000 -0.116156 -0.050701 0.000000 -0.106465 -0.053493 0.000000 -0.097759 -0.056391 0.000000 -0.087034 -0.058917 0.000000 -0.077410 -0.061441 0.000000 -0.065780 -0.063626 0.000000 -0.055356 -0.065709 0.000000 
-0.044722 -0.079312 0.000000 -0.033367 -0.081179 0.000000 -0.020107 -0.082747 0.000000 -0.008231 -0.083959 0.000000 0.005441 -0.084904 0.000000 0.017646 -0.085405 0.000000 0.031513 -0.085673 0.000000 0.043838 -0.085420 0.000000 0.057666 -0.084969 0.000000 0.069886 -0.083935 0.000000 0.083429 -0.082740 0.000000 0.095307 -0.080916 0.000000 0.108317 -0.078973 0.000000 0.119613 -0.076371 0.000000 0.131839 -0.073700 0.000000 0.142316 -0.070357 0.000000 0.153518 -0.067000 0.000000 0.162953 -0.062978 0.000000 0.172908 -0.059006 0.000000 0.181096 -0.054392 0.000000 0.189610 -0.049898 0.000000 0.196379 -0.044804 0.000000 0.203293 -0.039904 0.000000 0.208508 -0.034458 0.000000 0.213706 -0.029284 0.000000 0.217277 -0.023632 0.000000 0.220692 -0.018326 0.000000 0.222578 -0.012618 0.000000 0.224194 -0.007327 0.000000 0.224404 -0.001713 0.000000 0.224256 0.003422 0.000000 0.222847 0.008800 0.000000 0.221018 0.013648 0.000000 0.218091 0.018661 0.000000 0.214707 0.023109 0.000000 0.210399 0.027650 0.000000 0.205622 0.031607 0.000000 0.200102 0.035591 0.000000 0.194119 0.038990 0.000000 0.187576 0.042360 0.000000 0.180592 0.045160 0.000000 0.173224 0.047885 0.000000 0.165453 0.050070 0.000000 0.157464 0.052146 0.000000 0.149118 0.053724 0.000000 0.140706 0.055169 0.000000 0.131988 0.056169 0.000000 0.123338 0.057026 0.000000 0.114437 0.057492 0.000000 0.105718 0.057819 0.000000 0.096800 0.057812 0.000000 0.088158 0.057682 0.000000 0.079366 0.057267 0.000000 0.070925 0.056762 0.000000 0.062370 0.056014 0.000000 0.054228 0.055221 0.000000 0.045994 0.054213 0.000000 0.038225 0.053220 0.000000 0.030365 0.052025 0.000000 0.023019 0.050916 0.000000 0.015560 0.049602 0.000000 0.008665 0.048454 0.000000 0.001605 0.047082 0.000000 -0.004829 0.045963 0.000000 -0.011512 0.044586 0.000000 -0.017493 0.043551 0.000000 -0.023838 0.042215 0.000000 -0.029387 0.041303 0.000000 -0.035447 0.040045 0.000000 -0.040596 0.039280 0.000000 -0.046430 0.038126 0.000000 -0.051218 0.037518 0.000000 -0.056887 0.036486 0.000000 -0.061359 0.036030 0.000000 -0.066922 0.035129 0.000000 -0.071126 0.034804 0.000000 -0.076633 0.034038 0.000000 -0.080617 0.033813 0.000000 -0.086107 0.033173 0.000000 -0.089917 0.033008 0.000000 -0.095417 0.032479 0.000000 -0.099094 0.032325 0.000000 -0.104612 0.031883 0.000000 -0.108192 0.031686 0.000000 -0.113720 0.031300 0.000000 -0.117229 0.031003 0.000000 -0.122738 0.030632 0.000000 -0.126190 0.030177 0.000000 -0.131634 0.029773 0.000000 -0.135026 0.029103 0.000000 -0.140339 0.028613 0.000000 -0.143651 0.027674 0.000000 -0.148749 0.027039 0.000000 -0.151941 0.025784 0.000000 -0.156724 0.024949 0.000000 -0.159735 0.023338 0.000000 -0.164088 0.022248 0.000000 -0.166839 0.020254 0.000000 -0.170637 0.018864 0.000000 -0.173029 0.016472 0.000000 -0.176141 0.014745 0.000000 -0.178063 0.011956 0.000000 -0.180359 0.009874 0.000000 -0.181691 0.006704 0.000000 -0.183043 0.004264 0.000000 -0.183664 0.000745 0.000000 -0.183955 -0.002037 0.000000 -0.183747 -0.005857 0.000000 -0.182875 -0.008950 0.000000 -0.181732 -0.013009 0.000000 -0.179617 -0.016363 0.000000 -0.177447 -0.020589 0.000000 -0.174031 -0.024142 0.000000 -0.170766 -0.028454 0.000000 -0.166017 -0.032132 0.000000 -0.161611 -0.036443 0.000000 -0.155526 -0.040163 0.000000 -0.149960 -0.044385 0.000000 -0.142562 -0.048061 0.000000 -0.135845 -0.052103 0.000000 -0.127187 -0.055644 0.000000 -0.119358 -0.059416 0.000000 -0.109518 -0.062732 0.000000 -0.100641 -0.066148 0.000000 -0.089726 -0.069151 0.000000 -0.079896 -0.072127 0.000000 -0.068036 -0.074731 0.000000 -0.057371 -0.077189 0.000000 