# vtk DataFile Version 2.0
Comment goes here
ASCII

DATASET STRUCTURED_POINTS
FIELD FieldData 1
TIME 1 1 double
0.10500000
DIMENSIONS    128   128   1

ORIGIN    0.000   0.000   0.000
SPACING   0.039062 0.039062   1.000

POINT_DATA   16384
VECTORS u double

-0.316124 0.000000 0.000000 -0.258049 0.000000 0.000000 -0.203936 0.000000 0.000000 -0.146222 0.000000 0.000000 -0.092572 0.000000 0.000000 -0.035810 0.000000 0.000000 0.016851 0.000000 0.000000 0.072134 0.000000 0.000000 0.123340 0.000000 0.000000 0.176676 0.000000 0.000000 0.226017 0.000000 0.000000 0.276997 0.000000 0.000000 0.324120 0.000000 0.000000 0.372388 0.000000 0.000000 0.416991 0.000000 0.000000 0.462245 0.000000 0.000000 0.504074 0.000000 0.000000 0.546061 0.000000 0.000000 0.584907 0.000000 0.000000 0.623420 0.000000 0.000000 0.659118 0.000000 0.000000 0.693992 0.000000 0.000000 0.726415 0.000000 0.000000 0.757527 0.000000 0.000000 0.786584 0.000000 0.000000 0.813849 0.000000 0.000000 0.839478 0.000000 0.000000 0.862848 0.000000 0.000000 0.885015 0.000000 0.000000 0.904469 0.000000 0.000000 0.923164 0.000000 0.000000 0.938708 0.000000 0.000000 0.953935 0.000000 0.000000 0.965598 0.000000 0.000000 0.977372 0.000000 0.000000 0.985197 0.000000 0.000000 0.993537 0.000000 0.000000 0.997575 0.000000 0.000000 1.002500 0.000000 0.000000 1.002806 0.000000 0.000000 1.004328 0.000000 0.000000 1.000953 0.000000 0.000000 0.999076 0.000000 0.000000 0.992063 0.000000 0.000000 0.986778 0.000000 0.000000 0.976162 0.000000 0.000000 0.967446 0.000000 0.000000 0.953247 0.000000 0.000000 0.941067 0.000000 0.000000 0.923296 0.000000 0.000000 0.907608 0.000000 0.000000 0.886267 0.000000 0.000000 0.867026 0.000000 0.000000 0.842113 0.000000 0.000000 0.819276 0.000000 0.000000 0.790792 0.000000 0.000000 0.764328 0.000000 0.000000 0.732283 0.000000 0.000000 0.702183 0.000000 0.000000 0.666609 0.000000 0.000000 0.632893 0.000000 0.000000 0.593852 0.000000 0.000000 0.556581 0.000000 0.000000 0.514176 0.000000 0.000000 0.473460 0.000000 0.000000 0.427843 0.000000 0.000000 0.383852 0.000000 0.000000 0.335234 0.000000 0.000000 0.288201 0.000000 0.000000 0.236861 0.000000 0.000000 0.187090 0.000000 0.000000 0.133375 0.000000 0.000000 0.081245 0.000000 0.000000 0.025581 0.000000 0.000000 -0.028454 0.000000 0.000000 -0.085566 0.000000 0.000000 -0.140978 0.000000 0.000000 -0.198960 0.000000 0.000000 -0.255147 0.000000 0.000000 -0.313352 0.000000 0.000000 -0.369646 0.000000 0.000000 -0.427358 0.000000 0.000000 -0.483034 0.000000 0.000000 -0.539482 0.000000 0.000000 -0.593768 0.000000 0.000000 -0.648139 0.000000 0.000000 -0.700226 0.000000 0.000000 -0.751681 0.000000 0.000000 -0.800747 0.000000 0.000000 -0.848437 0.000000 0.000000 -0.893664 0.000000 0.000000 -0.936757 0.000000 0.000000 -0.977352 0.000000 0.000000 -1.015059 0.000000 0.000000 -1.050282 0.000000 0.000000 -1.081878 0.000000 0.000000 -1.111065 0.000000 0.000000 -1.135923 0.000000 0.000000 -1.158513 0.000000 0.000000 -1.176125 0.000000 0.000000 -1.191681 0.000000 0.000000 -1.201682 0.000000 0.000000 -1.209910 0.000000 0.000000 -1.212091 0.000000 0.000000 -1.212853 0.000000 0.000000 -1.207178 0.000000 0.000000 -1.200496 0.000000 0.000000 -1.187095 0.000000 0.000000 -1.173152 0.000000 0.000000 -1.152321 0.000000 0.000000 -1.131450 0.000000 0.000000 -1.103633 0.000000 0.000000 -1.076301 0.000000 0.000000 -1.042071 0.000000 0.000000 -1.008858 0.000000 0.000000 -0.968891 0.000000 0.000000 -0.930464 0.000000 0.000000 -0.885513 0.000000 0.000000 -0.842599 0.000000 0.000000 -0.793464 0.000000 0.000000 -0.746828 0.000000 0.000000 -0.694330 0.000000 0.000000 -0.644744 0.000000 0.000000 -0.589700 0.000000 0.000000 -0.537926 0.000000 0.000000 -0.481132 0.000000 0.000000 -0.427903 0.000000 0.000000 -0.370116 0.000000 0.000000 
-0.317206 -0.056033 0.000000 -0.259040 -0.056094 0.000000 -0.204929 -0.055913 0.000000 -0.147126 -0.055682 0.000000 -0.093481 -0.055206 0.000000 -0.036631 -0.054712 0.000000 0.016024 -0.053972 0.000000 0.071393 -0.053244 0.000000 0.122590 -0.052271 0.000000 0.176012 -0.051339 0.000000 0.225343 -0.050161 0.000000 0.276408 -0.049051 0.000000 0.323519 -0.047696 0.000000 0.371873 -0.046435 0.000000 0.416463 -0.044929 0.000000 0.461803 -0.043542 0.000000 0.503619 -0.041908 0.000000 0.545692 -0.040417 0.000000 0.584526 -0.038679 0.000000 0.623124 -0.037105 0.000000 0.658811 -0.035286 0.000000 0.693770 -0.033649 0.000000 0.726184 -0.031768 0.000000 0.757380 -0.030084 0.000000 0.786429 -0.028161 0.000000 0.813777 -0.026447 0.000000 0.839400 -0.024499 0.000000 0.862850 -0.022768 0.000000 0.885015 -0.020811 0.000000 0.904547 -0.019074 0.000000 0.923242 -0.017120 0.000000 0.938861 -0.015386 0.000000 0.954091 -0.013445 0.000000 0.965827 -0.011718 0.000000 0.977607 -0.009799 0.000000 0.985500 -0.008082 0.000000 0.993852 -0.006189 0.000000 0.997954 -0.004482 0.000000 1.002896 -0.002615 0.000000 1.003261 -0.000914 0.000000 1.004806 0.000926 0.000000 1.001487 0.002626 0.000000 0.999638 0.004445 0.000000 0.992678 0.006149 0.000000 0.987427 0.007951 0.000000 0.976859 0.009666 0.000000 0.968183 0.011457 0.000000 0.954030 0.013190 0.000000 0.941896 0.014976 0.000000 0.924167 0.016729 0.000000 0.908532 0.018514 0.000000 0.887228 0.020291 0.000000 0.868045 0.022077 0.000000 0.843164 0.023875 0.000000 0.820391 0.025661 0.000000 0.791932 0.027474 0.000000 0.765536 0.029254 0.000000 0.733510 0.031073 0.000000 0.703480 0.032837 0.000000 0.667917 0.034645 0.000000 0.634273 0.036378 0.000000 0.595234 0.038156 0.000000 0.558035 0.039838 0.000000 0.515620 0.041560 0.000000 0.474976 0.043166 0.000000 0.429337 0.044804 0.000000 0.385414 0.046304 0.000000 0.336761 0.047825 0.000000 0.289790 0.049187 0.000000 0.238400 0.050556 0.000000 0.188685 0.051743 0.000000 0.134906 0.052922 0.000000 0.082823 0.053897 0.000000 0.027079 0.054850 0.000000 -0.026919 0.055574 0.000000 -0.084128 0.056262 0.000000 -0.139513 0.056697 0.000000 -0.197609 0.057085 0.000000 -0.253782 0.057196 0.000000 -0.312115 0.057249 0.000000 -0.368409 0.057003 0.000000 -0.426263 0.056694 0.000000 -0.481954 0.056062 0.000000 -0.538558 0.055367 0.000000 -0.592871 0.054328 0.000000 -0.647409 0.053229 0.000000 -0.699538 0.051771 0.000000 -0.751167 0.050260 0.000000 -0.800288 0.048378 0.000000 -0.848156 0.046458 0.000000 -0.893449 0.044160 0.000000 -0.936722 0.041844 0.000000 -0.977392 0.039151 0.000000 -1.015274 0.036465 0.000000 -1.050579 0.033410 0.000000 -1.082342 0.030392 0.000000 -1.111615 0.027023 0.000000 -1.136627 0.023724 0.000000 -1.159302 0.020101 0.000000 -1.177051 0.016584 0.000000 -1.192689 0.012778 0.000000 -1.202805 0.009114 0.000000 -1.211109 0.005205 0.000000 -1.213382 0.001472 0.000000 -1.214211 -0.002457 0.000000 -1.208603 -0.006179 0.000000 -1.201978 -0.010041 0.000000 -1.188618 -0.013672 0.000000 -1.174721 -0.017387 0.000000 -1.153905 -0.020851 0.000000 -1.133069 -0.024344 0.000000 -1.105243 -0.027575 0.000000 -1.077935 -0.030781 0.000000 -1.043675 -0.033722 0.000000 -1.010477 -0.036590 0.000000 -0.970461 -0.039197 0.000000 -0.932042 -0.041689 0.000000 -0.887028 -0.043932 0.000000 -0.844116 -0.046024 0.000000 -0.794907 -0.047886 0.000000 -0.748269 -0.049567 0.000000 -0.695689 -0.051042 0.000000 -0.646099 -0.052315 0.000000 -0.590969 -0.053409 0.000000 -0.539191 -0.054284 0.000000 -0.482308 -0.055011 0.000000 -0.429076 -0.055508 0.000000 -0.371198 -0.055890 0.000000 
-0.316329 -0.112158 0.000000 -0.257929 -0.112277 0.000000 -0.203523 -0.111914 0.000000 -0.145515 -0.111448 0.000000 -0.091603 -0.110496 0.000000 -0.034577 -0.109504 0.000000 0.018318 -0.108024 0.000000 0.073835 -0.106567 0.000000 0.125245 -0.104619 0.000000 0.178786 -0.102753 0.000000 0.228304 -0.100396 0.000000 0.279461 -0.098176 0.000000 0.326735 -0.095465 0.000000 0.375155 -0.092944 0.000000 0.419884 -0.089930 0.000000 0.465266 -0.087156 0.000000 0.507198 -0.083889 0.000000 0.549289 -0.080907 0.000000 0.588218 -0.077432 0.000000 0.626813 -0.074285 0.000000 0.662575 -0.070646 0.000000 0.697510 -0.067373 0.000000 0.729979 -0.063610 0.000000 0.761134 -0.060245 0.000000 0.790220 -0.056397 0.000000 0.817511 -0.052972 0.000000 0.843157 -0.049073 0.000000 0.866536 -0.045615 0.000000 0.888709 -0.041696 0.000000 0.908159 -0.038227 0.000000 0.926852 -0.034315 0.000000 0.942383 -0.030850 0.000000 0.957601 -0.026965 0.000000 0.969244 -0.023516 0.000000 0.981007 -0.019674 0.000000 0.988807 -0.016245 0.000000 0.997137 -0.012454 0.000000 1.001148 -0.009044 0.000000 1.006067 -0.005307 0.000000 1.006347 -0.001910 0.000000 1.007868 0.001775 0.000000 1.004470 0.005168 0.000000 1.002598 0.008809 0.000000 0.995568 0.012211 0.000000 0.990294 0.015819 0.000000 0.979667 0.019243 0.000000 0.970968 0.022829 0.000000 0.956764 0.026287 0.000000 0.944604 0.029863 0.000000 0.926833 0.033364 0.000000 0.911168 0.036939 0.000000 0.889828 0.040486 0.000000 0.870608 0.044064 0.000000 0.845695 0.047654 0.000000 0.822873 0.051232 0.000000 0.794383 0.054855 0.000000 0.767924 0.058422 0.000000 0.735863 0.062056 0.000000 0.705752 0.065593 0.000000 0.670147 0.069207 0.000000 0.636401 0.072683 0.000000 0.597309 0.076238 0.000000 0.559982 0.079613 0.000000 0.517501 0.083059 0.000000 0.476701 0.086283 0.000000 0.430978 0.089562 0.000000 0.386870 0.092576 0.000000 0.338114 0.095623 0.000000 0.290929 0.098361 0.000000 0.239413 0.101105 0.000000 0.189453 0.103494 0.000000 0.135526 0.105862 0.000000 0.083169 0.107827 0.000000 0.027254 0.109742 0.000000 -0.027046 0.111206 0.000000 -0.084446 0.112594 0.000000 -0.140158 0.113481 0.000000 -0.198465 0.114269 0.000000 -0.254986 0.114506 0.000000 -0.313548 0.114627 0.000000 -0.370205 0.114149 0.000000 -0.428302 0.113545 0.000000 -0.484365 0.112294 0.000000 -0.541220 0.110917 0.000000 -0.595908 0.108851 0.000000 -0.650700 0.106667 0.000000 -0.703199 0.103758 0.000000 -0.755076 0.100750 0.000000 -0.804552 0.096990 0.000000 -0.852658 0.093162 0.000000 -0.898281 0.088566 0.000000 -0.941769 0.083943 0.000000 -0.982735 0.078552 0.000000 -1.020803 0.073187 0.000000 -1.056357 0.067068 0.000000 -1.088267 0.061036 0.000000 -1.117736 0.054284 0.000000 -1.142847 0.047687 0.000000 -1.165656 0.040424 0.000000 -1.183450 0.033387 0.000000 -1.199154 0.025754 0.000000 -1.209257 0.018420 0.000000 -1.217554 0.010578 0.000000 -1.219755 0.003103 0.000000 -1.220505 -0.004780 0.000000 -1.214764 -0.012233 0.000000 -1.207991 -0.019985 0.000000 -1.194442 -0.027257 0.000000 -1.180333 -0.034713 0.000000 -1.159280 -0.041652 0.000000 -1.138176 -0.048662 0.000000 -1.110071 -0.055134 0.000000 -1.082450 -0.061568 0.000000 -1.047881 -0.067459 0.000000 -1.014334 -0.073213 0.000000 -0.973991 -0.078435 0.000000 -0.935200 -0.083434 0.000000 -0.889848 -0.087925 0.000000 -0.846554 -0.092120 0.000000 -0.797008 -0.095847 0.000000 -0.749985 -0.099218 0.000000 -0.697078 -0.102170 0.000000 -0.647111 -0.104720 0.000000 -0.591670 -0.106908 0.000000 -0.539529 -0.108661 0.000000 -0.482357 -0.110115 0.000000 -0.428782 -0.111110 0.000000 -0.370641 -0.111870 0.000000 
-0.317612 -0.168746 0.000000 -0.258797 -0.168900 0.000000 -0.204100 -0.168326 0.000000 -0.145709 -0.167602 0.000000 -0.091537 -0.166145 0.000000 -0.034159 -0.164632 0.000000 0.018961 -0.162383 0.000000 0.074798 -0.160171 0.000000 0.126404 -0.157222 0.000000 0.180235 -0.154398 0.000000 0.229919 -0.150836 0.000000 0.281339 -0.147482 0.000000 0.328751 -0.143390 0.000000 0.377407 -0.139584 0.000000 0.422250 -0.135039 0.000000 0.467844 -0.130856 0.000000 0.509867 -0.125931 0.000000 0.552147 -0.121437 0.000000 0.591147 -0.116203 0.000000 0.629909 -0.111462 0.000000 0.665723 -0.105983 0.000000 0.700805 -0.101053 0.000000 0.733310 -0.095391 0.000000 0.764592 -0.090325 0.000000 0.793701 -0.084538 0.000000 0.821100 -0.079384 0.000000 0.846757 -0.073524 0.000000 0.870227 -0.068321 0.000000 0.892403 -0.062434 0.000000 0.911928 -0.057217 0.000000 0.930618 -0.051343 0.000000 0.946210 -0.046135 0.000000 0.961424 -0.040306 0.000000 0.973117 -0.035124 0.000000 0.984877 -0.029362 0.000000 0.992719 -0.024212 0.000000 1.001051 -0.018531 0.000000 1.005100 -0.013411 0.000000 1.010028 -0.007814 0.000000 1.010342 -0.002715 0.000000 1.011883 0.002803 0.000000 1.008520 0.007896 0.000000 1.006680 0.013346 0.000000 0.999686 0.018453 0.000000 0.994456 0.023852 0.000000 0.983867 0.028993 0.000000 0.975225 0.034360 0.000000 0.961061 0.039553 0.000000 0.948970 0.044907 0.000000 0.931239 0.050166 0.000000 0.915650 0.055519 0.000000 0.894349 0.060851 0.000000 0.875209 0.066210 0.000000 0.850328 0.071610 0.000000 0.827587 0.076973 0.000000 0.799117 0.082423 0.000000 0.772732 0.087774 0.000000 0.740675 0.093244 0.000000 0.710626 0.098553 0.000000 0.675002 0.103997 0.000000 0.641299 0.109217 0.000000 0.602158 0.114574 0.000000 0.564850 0.119646 0.000000 0.522284 0.124841 0.000000 0.481473 0.129689 0.000000 0.435624 0.134635 0.000000 0.391468 0.139169 0.000000 0.342539 0.143767 0.000000 0.295266 0.147888 0.000000 0.243527 0.152031 0.000000 0.193436 0.155630 0.000000 0.139232 0.159207 0.000000 0.086697 0.162169 0.000000 0.030451 0.165064 0.000000 -0.024074 0.167274 0.000000 -0.081860 0.169374 0.000000 -0.137845 0.170716 0.000000 -0.196590 0.171913 0.000000 -0.253430 0.172278 0.000000 -0.312478 0.172469 0.000000 -0.369498 0.171757 0.000000 -0.428124 0.170854 0.000000 -0.484588 0.168980 0.000000 -0.542007 0.166910 0.000000 -0.597128 0.163808 0.000000 -0.652509 0.160519 0.000000 -0.705461 0.156147 0.000000 -0.757941 0.151614 0.000000 -0.807882 0.145960 0.000000 -0.856587 0.140187 0.000000 -0.902673 0.133272 0.000000 -0.946741 0.126299 0.000000 -0.988155 0.118184 0.000000 -1.026764 0.110087 0.000000 -1.062735 0.100874 0.000000 -1.095131 0.091770 0.000000 -1.124968 0.081602 0.000000 -1.150492 0.071644 0.000000 -1.173607 0.060704 0.000000 -1.191725 0.050082 0.000000 -1.207660 0.038585 0.000000 -1.217985 0.027515 0.000000 -1.226430 0.015703 0.000000 -1.228743 0.004422 0.000000 -1.229552 -0.007448 0.000000 -1.223811 -0.018693 0.000000 -1.217005 -0.030363 0.000000 -1.203349 -0.041329 0.000000 -1.189120 -0.052550 0.000000 -1.167856 -0.063009 0.000000 -1.146554 -0.073552 0.000000 -1.118151 -0.083300 0.000000 -1.090263 -0.092972 0.000000 -1.055322 -0.101837 0.000000 -1.021455 -0.110480 0.000000 -0.980683 -0.118332 0.000000 -0.941534 -0.125832 0.000000 -0.895716 -0.132578 0.000000 -0.852039 -0.138864 0.000000 -0.802006 -0.144454 0.000000 -0.754593 -0.149497 0.000000 -0.701192 -0.153917 0.000000 -0.650838 -0.157723 0.000000 -0.594911 -0.160991 0.000000 -0.542398 -0.163597 0.000000 -0.484757 -0.165758 0.000000 -0.430832 -0.167224 0.000000 -0.372246 -0.168343 0.000000 
-0.316887 -0.225607 0.000000 -0.257510 -0.225789 0.000000 -0.202227 -0.225002 0.000000 -0.143334 -0.224011 0.000000 -0.088633 -0.222045 0.000000 -0.030816 -0.220003 0.000000 0.022778 -0.216982 0.000000 0.078995 -0.214009 0.000000 0.131018 -0.210056 0.000000 0.185172 -0.206268 0.000000 0.235220 -0.201499 0.000000 0.286907 -0.197008 0.000000 0.334632 -0.191534 0.000000 0.383505 -0.186443 0.000000 0.428612 -0.180366 0.000000 0.474373 -0.174773 0.000000 0.516615 -0.168192 0.000000 0.559017 -0.162187 0.000000 0.598193 -0.155194 0.000000 0.637032 -0.148861 0.000000 0.672982 -0.141542 0.000000 0.708101 -0.134960 0.000000 0.740705 -0.127397 0.000000 0.771986 -0.120635 0.000000 0.801161 -0.112905 0.000000 0.828525 -0.106028 0.000000 0.854218 -0.098200 0.000000 0.877624 -0.091261 0.000000 0.899812 -0.083398 0.000000 0.919249 -0.076442 0.000000 0.937932 -0.068597 0.000000 0.953418 -0.061656 0.000000 0.968611 -0.053872 0.000000 0.980187 -0.046969 0.000000 0.991917 -0.039276 0.000000 0.999637 -0.032418 0.000000 1.007936 -0.024834 0.000000 1.011864 -0.018020 0.000000 1.016761 -0.010550 0.000000 1.016961 -0.003766 0.000000 1.018477 0.003597 0.000000 1.015011 0.010371 0.000000 1.013152 0.017643 0.000000 1.006071 0.024435 0.000000 1.000831 0.031637 0.000000 0.990171 0.038474 0.000000 0.981524 0.045635 0.000000 0.967306 0.052543 0.000000 0.955212 0.059685 0.000000 0.937440 0.066684 0.000000 0.921847 0.073829 0.000000 0.900514 0.080927 0.000000 0.881361 0.088084 0.000000 0.856451 0.095277 0.000000 0.833680 0.102443 0.000000 0.805176 0.109709 0.000000 0.778737 0.116864 0.000000 0.746633 0.124162 0.000000 0.716496 0.131266 0.000000 0.680803 0.138535 0.000000 0.646970 0.145527 0.000000 0.607729 0.152687 0.000000 0.570240 0.159487 0.000000 0.527534 0.166437 0.000000 0.486485 0.172944 0.000000 0.440449 0.179567 0.000000 0.395993 0.185661 0.000000 0.346823 0.191825 0.000000 0.299183 0.197373 0.000000 0.247146 0.202936 0.000000 0.196619 0.207790 0.000000 0.142055 0.212601 0.000000 0.089017 0.216608 0.000000 0.032349 0.220514 0.000000 -0.022746 0.223518 0.000000 -0.081014 0.226365 0.000000 -0.137630 0.228211 0.000000 -0.196914 0.229854 0.000000 -0.254440 0.230394 0.000000 -0.314078 0.230695 0.000000 -0.371831 0.229795 0.000000 -0.431089 0.228634 0.000000 -0.488319 0.226177 0.000000 -0.546402 0.223457 0.000000 -0.602309 0.219352 0.000000 -0.658371 0.215000 0.000000 -0.712114 0.209190 0.000000 -0.765274 0.203171 0.000000 -0.815990 0.195636 0.000000 -0.865355 0.187953 0.000000 -0.912179 0.178721 0.000000 -0.956867 0.169425 0.000000 -0.998956 0.158575 0.000000 -1.038121 0.147767 0.000000 -1.074683 0.135435 0.000000 -1.107547 0.123269 0.000000 -1.137869 0.109645 0.000000 -1.163752 0.096327 0.000000 -1.187226 0.081657 0.000000 -1.205576 0.067439 0.000000 -1.221727 0.052015 0.000000 -1.232145 0.037190 0.000000 -1.240653 0.021336 0.000000 -1.242911 0.006224 0.000000 -1.243626 -0.009712 0.000000 -1.237684 -0.024780 0.000000 -1.230632 -0.040448 0.000000 -1.216633 -0.055143 0.000000 -1.202018 -0.070205 0.000000 -1.180286 -0.084218 0.000000 -1.158471 -0.098368 0.000000 -1.129494 -0.111424 0.000000 -1.100991 -0.124397 0.000000 -1.065392 -0.136267 0.000000 -1.030832 -0.147852 0.000000 -0.989345 -0.158357 0.000000 -0.949449 -0.168401 0.000000 -0.902883 -0.177419 0.000000 -0.858432 -0.185830 0.000000 -0.807643 -0.193294 0.000000 -0.759450 -0.200032 0.000000 -0.705306 -0.205925 0.000000 -0.654186 -0.211001 0.000000 -0.597545 -0.215349 0.000000 -0.544297 -0.218816 0.000000 -0.485985 -0.221680 0.000000 -0.431368 -0.223620 0.000000 -0.372163 -0.225090 0.000000 
-0.318312 -0.283399 0.000000 -0.258192 -0.283560 0.000000 -0.202323 -0.282502 0.000000 -0.142752 -0.281196 0.000000 -0.087529 -0.278664 0.000000 -0.029097 -0.276043 0.000000 0.024955 -0.272194 0.000000 0.081724 -0.268411 0.000000 0.134144 -0.263399 0.000000 0.188791 -0.258600 0.000000 0.239179 -0.252571 0.000000 0.291304 -0.246895 0.000000 0.339316 -0.239987 0.000000 0.388574 -0.233564 0.000000 0.433919 -0.225907 0.000000 0.480017 -0.218859 0.000000 0.522451 -0.210575 0.000000 0.565145 -0.203014 0.000000 0.604471 -0.194218 0.000000 0.643560 -0.186251 0.000000 0.679623 -0.177052 0.000000 0.714950 -0.168776 0.000000 0.747633 -0.159277 0.000000 0.779083 -0.150781 0.000000 0.808307 -0.141077 0.000000 0.835804 -0.132441 0.000000 0.861522 -0.122623 0.000000 0.885027 -0.113915 0.000000 0.907220 -0.104060 0.000000 0.926728 -0.095336 0.000000 0.945401 -0.085512 0.000000 0.960933 -0.076815 0.000000 0.976110 -0.067075 0.000000 0.987712 -0.058430 0.000000 0.999426 -0.048812 0.000000 1.007159 -0.040231 0.000000 1.015447 -0.030757 0.000000 1.019382 -0.022236 0.000000 1.024279 -0.012911 0.000000 1.024486 -0.004431 0.000000 1.026017 0.004753 0.000000 1.022562 0.013220 0.000000 1.020739 0.022286 0.000000 1.013676 0.030774 0.000000 1.008492 0.039753 0.000000 0.997859 0.048300 0.000000 0.989288 0.057226 0.000000 0.975106 0.065865 0.000000 0.963104 0.074772 0.000000 0.945375 0.083531 0.000000 0.929885 0.092445 0.000000 0.908596 0.101336 0.000000 0.889551 0.110273 0.000000 0.864678 0.119291 0.000000 0.842009 0.128248 0.000000 0.813527 0.137366 0.000000 0.787174 0.146317 0.000000 0.755066 0.155485 0.000000 0.724988 0.164383 0.000000 0.689252 0.173524 0.000000 0.655439 0.182292 0.000000 0.616106 0.191304 0.000000 0.578588 0.199840 0.000000 0.535729 0.208597 0.000000 0.494590 0.216774 0.000000 0.448328 0.225127 0.000000 0.403714 0.232795 0.000000 0.354238 0.240577 0.000000 0.306363 0.247565 0.000000 0.253931 0.254596 0.000000 0.203088 0.260720 0.000000 0.148037 0.266809 0.000000 0.094597 0.271875 0.000000 0.037348 0.276827 0.000000 -0.018236 0.280637 0.000000 -0.077180 0.284259 0.000000 -0.134370 0.286617 0.000000 -0.194421 0.288723 0.000000 -0.252602 0.289442 0.000000 -0.313091 0.289859 0.000000 -0.371572 0.288768 0.000000 -0.431756 0.287343 0.000000 -0.489779 0.284294 0.000000 -0.548846 0.280900 0.000000 -0.605597 0.275777 0.000000 -0.662684 0.270324 0.000000 -0.717304 0.263051 0.000000 -0.771508 0.255490 0.000000 -0.823113 0.246041 0.000000 -0.873514 0.236376 0.000000 -0.921214 0.224783 0.000000 -0.966899 0.213076 0.000000 -1.009824 0.199438 0.000000 -1.049915 0.185815 0.000000 -1.087245 0.170301 0.000000 -1.120931 0.154956 0.000000 -1.151921 0.137808 0.000000 -1.178489 0.121001 0.000000 -1.202505 0.102528 0.000000 -1.221376 0.084583 0.000000 -1.237919 0.065153 0.000000 -1.248671 0.046440 0.000000 -1.257405 0.026470 0.000000 -1.259799 0.007396 0.000000 -1.260564 -0.012676 0.000000 -1.254553 -0.031687 0.000000 -1.247376 -0.051413 0.000000 -1.233112 -0.069944 0.000000 -1.218202 -0.088897 0.000000 -1.196025 -0.106555 0.000000 -1.173766 -0.124344 0.000000 -1.144185 -0.140780 0.000000 -1.115110 -0.157073 0.000000 -1.078780 -0.171997 0.000000 -1.043549 -0.186528 0.000000 -1.001236 -0.199715 0.000000 -0.960600 -0.212294 0.000000 -0.913147 -0.223594 0.000000 -0.867917 -0.234105 0.000000 -0.816210 -0.243437 0.000000 -0.767226 -0.251834 0.000000 -0.712163 -0.259180 0.000000 -0.660264 -0.265483 0.000000 -0.602727 -0.270880 0.000000 -0.548730 -0.275157 0.000000 -0.489562 -0.278687 0.000000 -0.434243 -0.281046 0.000000 -0.374234 -0.282824 0.000000 
-0.317625 -0.341650 0.000000 -0.256615 -0.341777 0.000000 -0.199864 -0.340442 0.000000 -0.139497 -0.338805 0.000000 -0.083481 -0.335700 0.000000 -0.024347 -0.332487 0.000000 0.030409 -0.327803 0.000000 0.087789 -0.323198 0.000000 0.140828 -0.317123 0.000000 0.195999 -0.311303 0.000000 0.246924 -0.304012 0.000000 0.299490 -0.297145 0.000000 0.347962 -0.288804 0.000000 0.397584 -0.281045 0.000000 0.443316 -0.271809 0.000000 0.489704 -0.263306 0.000000 0.532458 -0.253320 0.000000 0.575372 -0.244207 0.000000 0.614954 -0.233609 0.000000 0.654197 -0.224013 0.000000 0.690455 -0.212932 0.000000 0.725875 -0.202970 0.000000 0.758699 -0.191530 0.000000 0.790184 -0.181309 0.000000 0.819498 -0.169626 0.000000 0.846978 -0.159242 0.000000 0.872742 -0.147423 0.000000 0.896185 -0.136959 0.000000 0.918388 -0.125098 0.000000 0.937795 -0.114623 0.000000 0.956451 -0.102803 0.000000 0.971854 -0.092365 0.000000 0.986993 -0.080651 0.000000 0.998447 -0.070285 0.000000 1.010114 -0.058723 0.000000 1.017690 -0.048440 0.000000 1.025929 -0.037057 0.000000 1.029708 -0.026852 0.000000 1.034562 -0.015653 0.000000 1.034623 -0.005504 0.000000 1.036124 0.005521 0.000000 1.032540 0.015650 0.000000 1.030702 0.026529 0.000000 1.023533 0.036682 0.000000 1.018351 0.047454 0.000000 1.007637 0.057678 0.000000 0.999083 0.068388 0.000000 0.984844 0.078726 0.000000 0.972870 0.089416 0.000000 0.955104 0.099903 0.000000 0.939643 0.110608 0.000000 0.918331 0.121262 0.000000 0.899305 0.132002 0.000000 0.874413 0.142819 0.000000 0.851742 0.153594 0.000000 0.823233 0.164544 0.000000 0.796843 0.175326 0.000000 0.764685 0.186348 0.000000 0.734520 0.197079 0.000000 0.698697 0.208083 0.000000 0.664734 0.218674 0.000000 0.625262 0.229538 0.000000 0.587517 0.239864 0.000000 0.544452 0.250435 0.000000 0.502999 0.260344 0.000000 0.456453 0.270443 0.000000 0.411426 0.279751 0.000000 0.361577 0.289176 0.000000 0.313185 0.297679 0.000000 0.260284 0.306211 0.000000 0.208814 0.313683 0.000000 0.153193 0.321092 0.000000 0.099017 0.327298 0.000000 0.041094 0.333346 0.000000 -0.015332 0.338045 0.000000 -0.075051 0.342499 0.000000 -0.133184 0.345452 0.000000 -0.194107 0.348086 0.000000 -0.253323 0.349064 0.000000 -0.314771 0.349665 0.000000 -0.374365 0.348459 0.000000 -0.435582 0.346841 0.000000 -0.494780 0.343268 0.000000 -0.554938 0.339275 0.000000 -0.612904 0.333190 0.000000 -0.671115 0.326707 0.000000 -0.726965 0.318014 0.000000 -0.782302 0.308979 0.000000 -0.835121 0.297642 0.000000 -0.886630 0.286054 0.000000 -0.935495 0.272106 0.000000 -0.982228 0.258035 0.000000 -1.026233 0.241591 0.000000 -1.067272 0.225187 0.000000 -1.105557 0.206450 0.000000 -1.140054 0.187944 0.000000 -1.171838 0.167204 0.000000 -1.199044 0.146911 0.000000 -1.223659 0.124544 0.000000 -1.242962 0.102854 0.000000 -1.259882 0.079310 0.000000 -1.270839 0.056676 0.000000 -1.279709 0.032464 0.000000 -1.282066 0.009383 0.000000 -1.282720 -0.014958 0.000000 -1.276429 -0.037968 0.000000 -1.268899 -0.061889 0.000000 -1.254124 -0.084316 0.000000 -1.238637 -0.107292 0.000000 -1.215740 -0.128655 0.000000 -1.192705 -0.150208 0.000000 -1.162229 -0.170079 0.000000 -1.132214 -0.189801 0.000000 -1.094852 -0.207828 0.000000 -1.058556 -0.225396 0.000000 -1.015115 -0.241306 0.000000 -0.973332 -0.256491 0.000000 -0.924698 -0.270103 0.000000 -0.878278 -0.282767 0.000000 -0.825376 -0.293985 0.000000 -0.775197 -0.304079 0.000000 -0.718957 -0.312886 0.000000 -0.665889 -0.320437 0.000000 -0.607222 -0.326883 0.000000 -0.552106 -0.331981 0.000000 -0.491876 -0.336168 0.000000 -0.435506 -0.338948 0.000000 -0.374517 -0.341021 0.000000 
-0.319068 -0.401301 0.000000 -0.256984 -0.401321 0.000000 -0.199352 -0.399621 0.000000 -0.138010 -0.397579 0.000000 -0.081211 -0.393813 0.000000 -0.021201 -0.389933 0.000000 0.034243 -0.384330 0.000000 0.092404 -0.378830 0.000000 0.146039 -0.371608 0.000000 0.201901 -0.364696 0.000000 0.253336 -0.356062 0.000000 0.306511 -0.347933 0.000000 0.355414 -0.338081 0.000000 0.405568 -0.328918 0.000000 0.451657 -0.318028 0.000000 0.498506 -0.308001 0.000000 0.541549 -0.296243 0.000000 0.584855 -0.285510 0.000000 0.624664 -0.273043 0.000000 0.664235 -0.261753 0.000000 0.700664 -0.248730 0.000000 0.736350 -0.237019 0.000000 0.769292 -0.223585 0.000000 0.800986 -0.211580 0.000000 0.830371 -0.197872 0.000000 0.858006 -0.185686 0.000000 0.883802 -0.171829 0.000000 0.907350 -0.159561 0.000000 0.929554 -0.145670 0.000000 0.949021 -0.133399 0.000000 0.967655 -0.119571 0.000000 0.983083 -0.107357 0.000000 0.998188 -0.093668 0.000000 1.009639 -0.081550 0.000000 1.021268 -0.068055 0.000000 1.028823 -0.056047 0.000000 1.037032 -0.042775 0.000000 1.040782 -0.030869 0.000000 1.045623 -0.017826 0.000000 1.045656 -0.005993 0.000000 1.047167 0.006836 0.000000 1.043566 0.018641 0.000000 1.041765 0.031293 0.000000 1.034595 0.043125 0.000000 1.029481 0.055649 0.000000 1.018785 0.067567 0.000000 1.010327 0.080018 0.000000 0.996125 0.092079 0.000000 0.984271 0.104512 0.000000 0.966556 0.116758 0.000000 0.951232 0.129219 0.000000 0.929978 0.141674 0.000000 0.911094 0.154191 0.000000 0.886255 0.166854 0.000000 0.863718 0.179428 0.000000 0.835243 0.192265 0.000000 0.808962 0.204866 0.000000 0.776802 0.217808 0.000000 0.746706 0.230370 0.000000 0.710829 0.243310 0.000000 0.676874 0.255728 0.000000 0.637277 0.268521 0.000000 0.599466 0.280649 0.000000 0.556189 0.293115 0.000000 0.514578 0.304773 0.000000 0.467716 0.316700 0.000000 0.422427 0.327671 0.000000 0.372145 0.338818 0.000000 0.323377 0.348859 0.000000 0.269915 0.358966 0.000000 0.217947 0.367811 0.000000 0.161631 0.376606 0.000000 0.106830 0.383974 0.000000 0.048074 0.391175 0.000000 -0.009105 0.396782 0.000000 -0.069794 0.402111 0.000000 -0.128806 0.405673 0.000000 -0.190831 0.408861 0.000000 -0.251044 0.410106 0.000000 -0.313718 0.410901 0.000000 -0.374418 0.409579 0.000000 -0.436968 0.407758 0.000000 -0.497367 0.403649 0.000000 -0.558946 0.399024 0.000000 -0.618186 0.391955 0.000000 -0.677881 0.384385 0.000000 -0.735052 0.374237 0.000000 -0.791901 0.363646 0.000000 -0.846058 0.350369 0.000000 -0.899069 0.336750 0.000000 -0.949252 0.320381 0.000000 -0.997432 0.303813 0.000000 -1.042691 0.284483 0.000000 -1.085075 0.265139 0.000000 -1.124506 0.243083 0.000000 -1.160193 0.221237 0.000000 -1.192971 0.196798 0.000000 -1.221164 0.172822 0.000000 -1.246578 0.146446 0.000000 -1.266623 0.120806 0.000000 -1.284112 0.093030 0.000000 -1.295531 0.066267 0.000000 -1.304713 0.037696 0.000000 -1.307232 0.010407 0.000000 -1.307927 -0.018312 0.000000 -1.301495 -0.045507 0.000000 -1.293735 -0.073718 0.000000 -1.278524 -0.100206 0.000000 -1.262551 -0.127281 0.000000 -1.238948 -0.152487 0.000000 -1.215200 -0.177856 0.000000 -1.183785 -0.201271 0.000000 -1.152867 -0.224450 0.000000 -1.114381 -0.245654 0.000000 -1.077035 -0.266264 0.000000 -1.032336 -0.284939 0.000000 -0.989402 -0.302711 0.000000 -0.939427 -0.318648 0.000000 -0.891803 -0.333427 0.000000 -0.837526 -0.346518 0.000000 -0.786130 -0.358253 0.000000 -0.728524 -0.368488 0.000000 -0.674264 -0.377219 0.000000 -0.614272 -0.384663 0.000000 -0.558018 -0.390503 0.000000 -0.496531 -0.395288 0.000000 -0.439096 -0.398404 0.000000 -0.376937 -0.400704 0.000000 