# vtk DataFile Version 2.0
Comment goes here
ASCII

DATASET STRUCTURED_POINTS
FIELD FieldData 1
TIME 1 1 double
0.20500000
DIMENSIONS    128   128   1

ORIGIN    0.000   0.000   0.000
SPACING   0.039062 0.039062   1.000

POINT_DATA   16384
VECTORS u double

-0.073172 -0.000000 0.000000 -0.060627 -0.000000 0.000000 -0.049208 -0.000000 0.000000 -0.036099 -0.000000 0.000000 -0.024057 -0.000000 0.000000 -0.010541 -0.000000 0.000000 0.001940 -0.000000 0.000000 0.015686 -0.000000 0.000000 0.028405 -0.000000 0.000000 0.042191 -0.000000 0.000000 0.054935 -0.000000 0.000000 0.068559 -0.000000 0.000000 0.081105 -0.000000 0.000000 0.094360 -0.000000 0.000000 0.106484 -0.000000 0.000000 0.119160 -0.000000 0.000000 0.130642 -0.000000 0.000000 0.142537 -0.000000 0.000000 0.153167 -0.000000 0.000000 0.164088 -0.000000 0.000000 0.173674 -0.000000 0.000000 0.183446 -0.000000 0.000000 0.191818 -0.000000 0.000000 0.200289 -0.000000 0.000000 0.207308 -0.000000 0.000000 0.214354 -0.000000 0.000000 0.219913 -0.000000 0.000000 0.225442 -0.000000 0.000000 0.229472 -0.000000 0.000000 0.233424 -0.000000 0.000000 0.235895 -0.000000 0.000000 0.238246 -0.000000 0.000000 0.239163 -0.000000 0.000000 0.239922 -0.000000 0.000000 0.239329 -0.000000 0.000000 0.238536 -0.000000 0.000000 0.236510 -0.000000 0.000000 0.234231 -0.000000 0.000000 0.230877 -0.000000 0.000000 0.227205 -0.000000 0.000000 0.222652 -0.000000 0.000000 0.217695 -0.000000 0.000000 0.212090 -0.000000 0.000000 0.205972 -0.000000 0.000000 0.199474 -0.000000 0.000000 0.192327 -0.000000 0.000000 0.185101 -0.000000 0.000000 0.177060 -0.000000 0.000000 0.169270 -0.000000 0.000000 0.160473 -0.000000 0.000000 0.152279 -0.000000 0.000000 0.142859 -0.000000 0.000000 0.134412 -0.000000 0.000000 0.124496 -0.000000 0.000000 0.115933 -0.000000 0.000000 0.105642 -0.000000 0.000000 0.097084 -0.000000 0.000000 0.086531 -0.000000 0.000000 0.078082 -0.000000 0.000000 0.067368 -0.000000 0.000000 0.059115 -0.000000 0.000000 0.048335 -0.000000 0.000000 0.040343 -0.000000 0.000000 0.029581 -0.000000 0.000000 0.021898 -0.000000 0.000000 0.011233 -0.000000 0.000000 0.003888 -0.000000 0.000000 -0.006610 -0.000000 0.000000 -0.013603 -0.000000 0.000000 -0.023870 -0.000000 0.000000 -0.030511 -0.000000 0.000000 -0.040489 -0.000000 0.000000 -0.046791 -0.000000 0.000000 -0.056427 -0.000000 0.000000 -0.062413 -0.000000 0.000000 -0.071658 -0.000000 0.000000 -0.077359 -0.000000 0.000000 -0.086170 -0.000000 0.000000 -0.091618 -0.000000 0.000000 -0.099956 -0.000000 0.000000 -0.105189 -0.000000 0.000000 -0.113017 -0.000000 0.000000 -0.118069 -0.000000 0.000000 -0.125357 -0.000000 0.000000 -0.130256 -0.000000 0.000000 -0.136973 -0.000000 0.000000 -0.141741 -0.000000 0.000000 -0.147862 -0.000000 0.000000 -0.152508 -0.000000 0.000000 -0.158005 -0.000000 0.000000 -0.162525 -0.000000 0.000000 -0.167372 -0.000000 0.000000 -0.171743 -0.000000 0.000000 -0.175911 -0.000000 0.000000 -0.180095 -0.000000 0.000000 -0.183552 -0.000000 0.000000 -0.187489 -0.000000 0.000000 -0.190200 -0.000000 0.000000 -0.193813 -0.000000 0.000000 -0.195739 -0.000000 0.000000 -0.198937 -0.000000 0.000000 -0.200034 -0.000000 0.000000 -0.202709 -0.000000 0.000000 -0.202932 -0.000000 0.000000 -0.204973 -0.000000 0.000000 -0.204274 -0.000000 0.000000 -0.205563 -0.000000 0.000000 -0.203895 -0.000000 0.000000 -0.204318 -0.000000 0.000000 -0.201640 -0.000000 0.000000 -0.201092 -0.000000 0.000000 -0.197365 -0.000000 0.000000 -0.195754 -0.000000 0.000000 -0.190951 -0.000000 0.000000 -0.188204 -0.000000 0.000000 -0.182309 -0.000000 0.000000 -0.178373 -0.000000 0.000000 -0.171385 -0.000000 0.000000 -0.166236 -0.000000 0.000000 -0.158168 -0.000000 0.000000 -0.151807 -0.000000 0.000000 -0.142694 -0.000000 0.000000 -0.135150 -0.000000 0.000000 -0.125046 -0.000000 0.000000 -0.116376 -0.000000 0.000000 -0.105355 -0.000000 0.000000 -0.095647 -0.000000 0.000000 -0.083805 -0.000000 0.000000 
-0.073723 -0.011589 0.000000 -0.061154 -0.011982 0.000000 -0.049719 -0.012264 0.000000 -0.036581 -0.012576 0.000000 -0.024522 -0.012779 0.000000 -0.010974 -0.012998 0.000000 0.001526 -0.013114 0.000000 0.015308 -0.013233 0.000000 0.028047 -0.013253 0.000000 0.041872 -0.013265 0.000000 0.054635 -0.013184 0.000000 0.068300 -0.013085 0.000000 0.080865 -0.012900 0.000000 0.094162 -0.012689 0.000000 0.106304 -0.012400 0.000000 0.119023 -0.012079 0.000000 0.130520 -0.011688 0.000000 0.142458 -0.011262 0.000000 0.153100 -0.010775 0.000000 0.164063 -0.010253 0.000000 0.173657 -0.009679 0.000000 0.183470 -0.009072 0.000000 0.191845 -0.008422 0.000000 0.200356 -0.007745 0.000000 0.207373 -0.007032 0.000000 0.214456 -0.006303 0.000000 0.220008 -0.005544 0.000000 0.225572 -0.004780 0.000000 0.229590 -0.003991 0.000000 0.233576 -0.003211 0.000000 0.236028 -0.002411 0.000000 0.238412 -0.001634 0.000000 0.239306 -0.000838 0.000000 0.240096 -0.000083 0.000000 0.239475 0.000693 0.000000 0.238712 0.001410 0.000000 0.236655 0.002152 0.000000 0.234407 0.002816 0.000000 0.231020 0.003513 0.000000 0.227378 0.004113 0.000000 0.222790 0.004755 0.000000 0.217865 0.005281 0.000000 0.212225 0.005861 0.000000 0.206140 0.006308 0.000000 0.199609 0.006823 0.000000 0.192495 0.007187 0.000000 0.185238 0.007633 0.000000 0.177233 0.007915 0.000000 0.169414 0.008294 0.000000 0.160655 0.008495 0.000000 0.152436 0.008807 0.000000 0.143054 0.008934 0.000000 0.134588 0.009181 0.000000 0.124710 0.009239 0.000000 0.116133 0.009427 0.000000 0.105880 0.009424 0.000000 0.097315 0.009556 0.000000 0.086797 0.009501 0.000000 0.078347 0.009581 0.000000 0.067667 0.009484 0.000000 0.059418 0.009517 0.000000 0.048668 0.009386 0.000000 0.040685 0.009377 0.000000 0.029950 0.009222 0.000000 0.022281 0.009174 0.000000 0.011637 0.009005 0.000000 0.004310 0.008921 0.000000 -0.006174 0.008745 0.000000 -0.013144 0.008630 0.000000 -0.023405 0.008454 0.000000 -0.030022 0.008309 0.000000 -0.040002 0.008140 0.000000 -0.046278 0.007969 0.000000 -0.055924 0.007811 0.000000 -0.061884 0.007616 0.000000 -0.071149 0.007473 0.000000 -0.076823 0.007256 0.000000 -0.085664 0.007130 0.000000 -0.091087 0.006893 0.000000 -0.099463 0.006785 0.000000 -0.104673 0.006531 0.000000 -0.112549 0.006440 0.000000 -0.117579 0.006170 0.000000 -0.124923 0.006093 0.000000 -0.129804 0.005808 0.000000 -0.136585 0.005743 0.000000 -0.141338 0.005444 0.000000 -0.147528 0.005383 0.000000 -0.152164 0.005072 0.000000 -0.157735 0.005008 0.000000 -0.162249 0.004683 0.000000 -0.167173 0.004609 0.000000 -0.171543 0.004270 0.000000 -0.175789 0.004176 0.000000 -0.179975 0.003820 0.000000 -0.183512 0.003697 0.000000 -0.187455 0.003324 0.000000 -0.190244 0.003162 0.000000 -0.193867 0.002770 0.000000 -0.195868 0.002562 0.000000 -0.199077 0.002147 0.000000 -0.200245 0.001886 0.000000 -0.202934 0.001449 0.000000 -0.203223 0.001132 0.000000 -0.205278 0.000671 0.000000 -0.204639 0.000295 0.000000 -0.205942 -0.000189 0.000000 -0.204328 -0.000622 0.000000 -0.204764 -0.001128 0.000000 -0.202131 -0.001613 0.000000 -0.201594 -0.002137 0.000000 -0.197905 -0.002669 0.000000 -0.196304 -0.003207 0.000000 -0.191530 -0.003775 0.000000 -0.188790 -0.004321 0.000000 -0.182916 -0.004915 0.000000 -0.178985 -0.005462 0.000000 -0.172010 -0.006069 0.000000 -0.166862 -0.006608 0.000000 -0.158801 -0.007214 0.000000 -0.152437 -0.007737 0.000000 -0.143324 -0.008329 0.000000 -0.135774 -0.008824 0.000000 -0.125663 -0.009387 0.000000 -0.116985 -0.009845 0.000000 -0.105950 -0.010365 0.000000 -0.096231 -0.010775 0.000000 -0.084370 -0.011238 0.000000 
-0.073917 -0.023216 0.000000 -0.061303 -0.024004 0.000000 -0.049802 -0.024573 0.000000 -0.036614 -0.025197 0.000000 -0.024480 -0.025608 0.000000 -0.010876 -0.026048 0.000000 0.001705 -0.026282 0.000000 0.015546 -0.026521 0.000000 0.028373 -0.026564 0.000000 0.042259 -0.026588 0.000000 0.055114 -0.026428 0.000000 0.068842 -0.026230 0.000000 0.081500 -0.025862 0.000000 0.094859 -0.025439 0.000000 0.107093 -0.024861 0.000000 0.119872 -0.024217 0.000000 0.131459 -0.023435 0.000000 0.143450 -0.022580 0.000000 0.154176 -0.021605 0.000000 0.165185 -0.020557 0.000000 0.174855 -0.019406 0.000000 0.184702 -0.018188 0.000000 0.193145 -0.016886 0.000000 0.201677 -0.015527 0.000000 0.208749 -0.014101 0.000000 0.215842 -0.012636 0.000000 0.221436 -0.011116 0.000000 0.226994 -0.009582 0.000000 0.231040 -0.008004 0.000000 0.235005 -0.006438 0.000000 0.237472 -0.004836 0.000000 0.239818 -0.003277 0.000000 0.240714 -0.001684 0.000000 0.241453 -0.000170 0.000000 0.240822 0.001383 0.000000 0.239995 0.002820 0.000000 0.237916 0.004305 0.000000 0.235592 0.005636 0.000000 0.232173 0.007029 0.000000 0.228446 0.008229 0.000000 0.223819 0.009513 0.000000 0.218801 0.010565 0.000000 0.213117 0.011725 0.000000 0.206933 0.012617 0.000000 0.200352 0.013645 0.000000 0.193137 0.014371 0.000000 0.185828 0.015263 0.000000 0.177719 0.015823 0.000000 0.169849 0.016578 0.000000 0.160985 0.016978 0.000000 0.152716 0.017600 0.000000 0.143232 0.017849 0.000000 0.134715 0.018344 0.000000 0.124740 0.018454 0.000000 0.116115 0.018830 0.000000 0.105769 0.018818 0.000000 0.097159 0.019083 0.000000 0.086554 0.018967 0.000000 0.078063 0.019130 0.000000 0.067302 0.018929 0.000000 0.059015 0.018999 0.000000 0.048192 0.018733 0.000000 0.040176 0.018718 0.000000 0.029376 0.018404 0.000000 0.021677 0.018314 0.000000 0.010977 0.017971 0.000000 0.003626 0.017810 0.000000 -0.006905 0.017455 0.000000 -0.013897 0.017231 0.000000 -0.024193 0.016877 0.000000 -0.030828 0.016596 0.000000 -0.040832 0.016256 0.000000 -0.047123 0.015923 0.000000 -0.056783 0.015606 0.000000 -0.062754 0.015225 0.000000 -0.072021 0.014939 0.000000 -0.077704 0.014514 0.000000 -0.086535 0.014264 0.000000 -0.091966 0.013800 0.000000 -0.100321 0.013586 0.000000 -0.105537 0.013085 0.000000 -0.113382 0.012907 0.000000 -0.118418 0.012374 0.000000 -0.125721 0.012225 0.000000 -0.130609 0.011662 0.000000 -0.137341 0.011534 0.000000 -0.142104 0.010943 0.000000 -0.148238 0.010826 0.000000 -0.152886 0.010207 0.000000 -0.158397 0.010085 0.000000 -0.162927 0.009438 0.000000 -0.167788 0.009294 0.000000 -0.172180 0.008617 0.000000 -0.176363 0.008433 0.000000 -0.180576 0.007722 0.000000 -0.184051 0.007479 0.000000 -0.188026 0.006732 0.000000 -0.190757 0.006412 0.000000 -0.194417 0.005624 0.000000 -0.196364 0.005210 0.000000 -0.199614 0.004378 0.000000 -0.200734 0.003858 0.000000 -0.203467 0.002978 0.000000 -0.203713 0.002344 0.000000 -0.205812 0.001416 0.000000 -0.205136 0.000664 0.000000 -0.206481 -0.000311 0.000000 -0.204836 -0.001178 0.000000 -0.205311 -0.002197 0.000000 -0.202651 -0.003169 0.000000 -0.202149 -0.004226 0.000000 -0.198436 -0.005291 0.000000 -0.196862 -0.006375 0.000000 -0.192067 -0.007514 0.000000 -0.189345 -0.008614 0.000000 -0.183451 -0.009805 0.000000 -0.179528 -0.010906 0.000000 -0.172532 -0.012123 0.000000 -0.167382 -0.013209 0.000000 -0.159298 -0.014425 0.000000 -0.152922 -0.015477 0.000000 -0.143783 -0.016663 0.000000 -0.136209 -0.017661 0.000000 -0.126067 -0.018789 0.000000 -0.117354 -0.019712 0.000000 -0.106286 -0.020754 0.000000 -0.096520 -0.021580 0.000000 -0.084620 -0.022508 0.000000 
-0.075220 -0.034906 0.000000 -0.062513 -0.036097 0.000000 -0.050914 -0.036953 0.000000 -0.037618 -0.037898 0.000000 -0.025374 -0.038516 0.000000 -0.011649 -0.039183 0.000000 0.001052 -0.039536 0.000000 0.015025 -0.039900 0.000000 0.027979 -0.039965 0.000000 0.042006 -0.040006 0.000000 0.054992 -0.039767 0.000000 0.068865 -0.039471 0.000000 0.081655 -0.038918 0.000000 0.095162 -0.038283 0.000000 0.107525 -0.037413 0.000000 0.120449 -0.036445 0.000000 0.132156 -0.035266 0.000000 0.144287 -0.033980 0.000000 0.155122 -0.032510 0.000000 0.166261 -0.030932 0.000000 0.176024 -0.029197 0.000000 0.185989 -0.027362 0.000000 0.194505 -0.025397 0.000000 0.203140 -0.023350 0.000000 0.210263 -0.021197 0.000000 0.217440 -0.018989 0.000000 0.223061 -0.016696 0.000000 0.228684 -0.014384 0.000000 0.232733 -0.012002 0.000000 0.236743 -0.009643 0.000000 0.239188 -0.007225 0.000000 0.241563 -0.004876 0.000000 0.242412 -0.002473 0.000000 0.243162 -0.000191 0.000000 0.242464 0.002151 0.000000 0.241633 0.004316 0.000000 0.239470 0.006555 0.000000 0.237130 0.008559 0.000000 0.233612 0.010659 0.000000 0.229860 0.012466 0.000000 0.225125 0.014400 0.000000 0.220076 0.015984 0.000000 0.214276 0.017730 0.000000 0.208058 0.019072 0.000000 0.201361 0.020618 0.000000 0.194111 0.021711 0.000000 0.186687 0.023051 0.000000 0.178546 0.023894 0.000000 0.170567 0.025027 0.000000 0.161673 0.025629 0.000000 0.153304 0.026561 0.000000 0.143794 0.026934 0.000000 0.135189 0.027674 0.000000 0.125192 0.027840 0.000000 0.116493 0.028398 0.000000 0.106129 0.028381 0.000000 0.097459 0.028771 0.000000 0.086840 0.028597 0.000000 0.078304 0.028833 0.000000 0.067532 0.028531 0.000000 0.059216 0.028627 0.000000 0.048382 0.028225 0.000000 0.040352 0.028193 0.000000 0.029540 0.027721 0.000000 0.021842 0.027573 0.000000 0.011128 0.027057 0.000000 0.003789 0.026803 0.000000 -0.006758 0.026268 0.000000 -0.013728 0.025918 0.000000 -0.024046 0.025385 0.000000 -0.030649 0.024949 0.000000 -0.040681 0.024436 0.000000 -0.046934 0.023920 0.000000 -0.056628 0.023442 0.000000 -0.062557 0.022854 0.000000 -0.071866 0.022423 0.000000 -0.077505 0.021770 0.000000 -0.086385 0.021391 0.000000 -0.091771 0.020679 0.000000 -0.100184 0.020356 0.000000 -0.105358 0.019591 0.000000 -0.113267 0.019321 0.000000 -0.118267 0.018509 0.000000 -0.125641 0.018284 0.000000 -0.130501 0.017428 0.000000 -0.137310 0.017237 0.000000 -0.142053 0.016341 0.000000 -0.148271 0.016166 0.000000 -0.152911 0.015231 0.000000 -0.158511 0.015050 0.000000 -0.163046 0.014075 0.000000 -0.168000 0.013862 0.000000 -0.172410 0.012845 0.000000 -0.176690 0.012572 0.000000 -0.180935 0.011508 0.000000 -0.184508 0.011147 0.000000 -0.188528 0.010030 0.000000 -0.191358 0.009553 0.000000 -0.195074 0.008377 0.000000 -0.197119 0.007759 0.000000 -0.200434 0.006517 0.000000 -0.201650 0.005739 0.000000 -0.204453 0.004428 0.000000 -0.204790 0.003477 0.000000 -0.206962 0.002094 0.000000 -0.206370 0.000965 0.000000 -0.207787 -0.000489 0.000000 -0.206217 -0.001792 0.000000 -0.206759 -0.003312 0.000000 -0.204163 -0.004776 0.000000 -0.203719 -0.006352 0.000000 -0.200058 -0.007956 0.000000 -0.198530 -0.009576 0.000000 -0.193772 -0.011292 0.000000 -0.191083 -0.012937 0.000000 -0.185211 -0.014732 0.000000 -0.181306 -0.016381 0.000000 -0.174315 -0.018215 0.000000 -0.169166 -0.019842 0.000000 -0.161071 -0.021675 0.000000 -0.154677 -0.023253 0.000000 -0.145510 -0.025042 0.000000 -0.137902 -0.026539 0.000000 -0.127715 -0.028241 0.000000 -0.118951 -0.029627 0.000000 -0.107820 -0.031199 0.000000 -0.097986 -0.032441 0.000000 -0.086007 -0.033841 0.000000 
-0.076174 -0.046711 0.000000 -0.063352 -0.048310 0.000000 -0.051605 -0.049468 0.000000 -0.038178 -0.050738 0.000000 -0.025767 -0.051576 0.000000 -0.011899 -0.052474 0.000000 0.000987 -0.052957 0.000000 0.015116 -0.053447 0.000000 0.028265 -0.053544 0.000000 0.042456 -0.053601 0.000000 0.055647 -0.053288 0.000000 0.069689 -0.052894 0.000000 0.082687 -0.052159 0.000000 0.096362 -0.051308 0.000000 0.108930 -0.050148 0.000000 0.122017 -0.048848 0.000000 0.133922 -0.047273 0.000000 0.146205 -0.045546 0.000000 0.157223 -0.043579 0.000000 0.168497 -0.041459 0.000000 0.178423 -0.039135 0.000000 0.188501 -0.036669 0.000000 0.197155 -0.034036 0.000000 0.205876 -0.031286 0.000000 0.213109 -0.028400 0.000000 0.220341 -0.025434 0.000000 0.226040 -0.022361 0.000000 0.231687 -0.019254 0.000000 0.235780 -0.016063 0.000000 0.239781 -0.012893 0.000000 0.242237 -0.009655 0.000000 0.244569 -0.006502 0.000000 0.245398 -0.003284 0.000000 0.246076 -0.000222 0.000000 0.245328 0.002912 0.000000 0.244397 0.005815 0.000000 0.242157 0.008808 0.000000 0.239695 0.011493 0.000000 0.236079 0.014299 0.000000 0.232185 0.016717 0.000000 0.227335 0.019298 0.000000 0.222129 0.021414 0.000000 0.216203 0.023742 0.000000 0.209819 0.025532 0.000000 0.202988 0.027592 0.000000 0.195566 0.029044 0.000000 0.188007 0.030828 0.000000 0.179692 0.031944 0.000000 0.171579 0.033451 0.000000 0.162514 0.034241 0.000000 0.154016 0.035480 0.000000 0.144340 0.035963 0.000000 0.135615 0.036946 0.000000 0.125458 0.037151 0.000000 0.116650 0.037893 0.000000 0.106135 0.037852 0.000000 0.097368 0.038372 0.000000 0.086609 0.038122 0.000000 0.077990 0.038438 0.000000 0.067088 0.038018 0.000000 0.058702 0.038149 0.000000 0.047751 0.037597 0.000000 0.039664 0.037560 0.000000 0.028748 0.036915 0.000000 0.021005 0.036726 0.000000 0.010199 0.036024 0.000000 0.002828 0.035697 0.000000 -0.007798 0.034971 0.000000 -0.014788 0.034519 0.000000 -0.025172 0.033798 0.000000 -0.031786 0.033232 0.000000 -0.041870 0.032541 0.000000 -0.048125 0.031870 0.000000 -0.057857 0.031229 0.000000 -0.063783 0.030463 0.000000 -0.073115 0.029887 0.000000 -0.078745 0.029033 0.000000 -0.087635 0.028531 0.000000 -0.093011 0.027598 0.000000 -0.101419 0.027172 0.000000 -0.106582 0.026169 0.000000 -0.114474 0.025816 0.000000 -0.119465 0.024748 0.000000 -0.126811 0.024458 0.000000 -0.131666 0.023331 0.000000 -0.138438 0.023087 0.000000 -0.143185 0.021905 0.000000 -0.149358 0.021684 0.000000 -0.154012 0.020447 0.000000 -0.159563 0.020219 0.000000 -0.164125 0.018927 0.000000 -0.169028 0.018658 0.000000 -0.173479 0.017306 0.000000 -0.177709 0.016957 0.000000 -0.182010 0.015540 0.000000 -0.185538 0.015073 0.000000 -0.189629 0.013582 0.000000 -0.192418 0.012958 0.000000 -0.196219 0.011385 0.000000 -0.198231 0.010571 0.000000 -0.201641 0.008908 0.000000 -0.202831 0.007877 0.000000 -0.205736 0.006118 0.000000 -0.206054 0.004853 0.000000 -0.208330 0.002996 0.000000 -0.207725 0.001489 0.000000 -0.209244 -0.000465 0.000000 -0.207664 -0.002206 0.000000 -0.208300 -0.004250 0.000000 -0.205697 -0.006210 0.000000 -0.205335 -0.008331 0.000000 -0.201665 -0.010480 0.000000 -0.200202 -0.012660 0.000000 -0.195432 -0.014961 0.000000 -0.192788 -0.017175 0.000000 -0.186897 -0.019582 0.000000 -0.183015 -0.021802 0.000000 -0.175997 -0.024263 0.000000 -0.170846 -0.026454 0.000000 -0.162712 -0.028913 0.000000 -0.156291 -0.031038 0.000000 -0.147072 -0.033439 0.000000 -0.139411 -0.035456 0.000000 -0.129158 -0.037741 0.000000 -0.120315 -0.039608 0.000000 -0.109101 -0.041718 0.000000 -0.099165 -0.043393 0.000000 -0.087088 -0.045273 0.000000 
-0.078260 -0.058642 0.000000 -0.065272 -0.060666 0.000000 -0.053344 -0.062126 0.000000 -0.039728 -0.063736 0.000000 -0.027112 -0.064796 0.000000 -0.013032 -0.065937 0.000000 0.000077 -0.066550 0.000000 0.014436 -0.067179 0.000000 0.027824 -0.067306 0.000000 0.042260 -0.067387 0.000000 0.055697 -0.066999 0.000000 0.069993 -0.066511 0.000000 0.083239 -0.065590 0.000000 0.097170 -0.064526 0.000000 0.109982 -0.063068 0.000000 0.123321 -0.061437 0.000000 0.135456 -0.059454 0.000000 0.147980 -0.057281 0.000000 0.159208 -0.054802 0.000000 0.170703 -0.052132 0.000000 0.180811 -0.049201 0.000000 0.191086 -0.046094 0.000000 0.199887 -0.042772 0.000000 0.208774 -0.039304 0.000000 0.216114 -0.035662 0.000000 0.223478 -0.031921 0.000000 0.229240 -0.028042 0.000000 0.234981 -0.024123 0.000000 0.239092 -0.020096 0.000000 0.243150 -0.016099 0.000000 0.245578 -0.012013 0.000000 0.247932 -0.008038 0.000000 0.248691 -0.003979 0.000000 0.249357 -0.000120 0.000000 0.248499 0.003830 0.000000 0.247528 0.007487 0.000000 0.245146 0.011258 0.000000 0.242618 0.014637 0.000000 0.238834 0.018169 0.000000 0.234857 0.021211 0.000000 0.229818 0.024456 0.000000 0.224517 0.027115 0.000000 0.218391 0.030040 0.000000 0.211904 0.032287 0.000000 0.204869 0.034871 0.000000 0.197343 0.036692 0.000000 0.189581 0.038925 0.000000 0.181164 0.040322 0.000000 0.172858 0.042205 0.000000 0.163696 0.043191 0.000000 0.155020 0.044735 0.000000 0.145253 0.045335 0.000000 0.136369 0.046555 0.000000 0.126131 0.046805 0.000000 0.117186 0.047721 0.000000 0.106599 0.047662 0.000000 0.097719 0.048297 0.000000 0.086896 0.047976 0.000000 0.078190 0.048354 0.000000 0.067232 0.047819 0.000000 0.058785 0.047963 0.000000 0.047783 0.047263 0.000000 0.039659 0.047196 0.000000 0.028695 0.046380 0.000000 0.020940 0.046121 0.000000 0.010088 0.045234 0.000000 0.002725 0.044800 0.000000 -0.007948 0.043884 0.000000 -0.014912 0.043292 0.000000 -0.025345 0.042383 0.000000 -0.031918 0.041647 0.000000 -0.042055 0.040775 0.000000 -0.048257 0.039908 0.000000 -0.058048 0.039100 0.000000 -0.063912 0.038112 0.000000 -0.073308 0.037386 0.000000 -0.078873 0.036290 0.000000 -0.087832 0.035657 0.000000 -0.093143 0.034463 0.000000 -0.101626 0.033928 0.000000 -0.106728 0.032646 0.000000 -0.114701 0.032205 0.000000 -0.119639 0.030845 0.000000 -0.127071 0.030485 0.000000 -0.131885 0.029055 0.000000 -0.138749 0.028756 0.000000 -0.143470 0.027261 0.000000 -0.149742 0.026993 0.000000 -0.154389 0.025436 0.000000 -0.160044 0.025162 0.000000 -0.164620 0.023540 0.000000 -0.169634 0.023216 0.000000 -0.174123 0.021526 0.000000 -0.178468 0.021104 0.000000 -0.182831 0.019336 0.000000 -0.186478 0.018766 0.000000 -0.190654 0.016911 0.000000 -0.193566 0.016143 0.000000 -0.197472 0.014189 0.000000 -0.199607 0.013181 0.000000 -0.203138 0.011117 0.000000 -0.204449 0.009834 0.000000 -0.207486 0.007651 0.000000 -0.207922 0.006071 0.000000 -0.210334 0.003765 0.000000 -0.209839 0.001879 0.000000 -0.211491 -0.000550 0.000000 -0.210010 -0.002736 0.000000 -0.210770 -0.005279 0.000000 -0.208251 -0.007742 0.000000 -0.207996 -0.010385 0.000000 -0.204393 -0.013089 0.000000 -0.203017 -0.015809 0.000000 -0.198293 -0.018706 0.000000 -0.195710 -0.021472 0.000000 -0.189842 -0.024505 0.000000 -0.185991 -0.027281 0.000000 -0.178972 -0.030384 0.000000 -0.173821 -0.033127 0.000000 -0.165659 -0.036230 0.000000 -0.159207 -0.038892 0.000000 -0.149932 -0.041922 0.000000 -0.142207 -0.044454 0.000000 -0.131871 -0.047337 0.000000 -0.122931 -0.049683 0.000000 -0.111607 -0.052349 0.000000 -0.101544 -0.054455 0.000000 -0.089328 -0.056832 0.000000 
-0.080011 -0.070767 0.000000 -0.066839 -0.073226 0.000000 -0.054678 -0.075012 0.000000 -0.040851 -0.076970 0.000000 -0.027972 -0.078272 0.000000 -0.013656 -0.079663 0.000000 -0.000258 -0.080425 0.000000 0.014357 -0.081195 0.000000 0.028054 -0.081367 0.000000 0.042760 -0.081473 0.000000 0.056520 -0.081021 0.000000 0.071096 -0.080436 0.000000 0.084670 -0.079336 0.000000 0.098882 -0.078051 0.000000 0.112017 -0.076299 0.000000 0.125629 -0.074323 0.000000 0.138075 -0.071932 0.000000 0.150854 -0.069297 0.000000 0.162370 -0.066303 0.000000 0.174095 -0.063062 0.000000 0.184458 -0.059518 0.000000 0.194928 -0.055745 0.000000 0.203944 -0.051724 0.000000 0.212983 -0.047512 0.000000 0.220490 -0.043104 0.000000 0.227959 -0.038560 0.000000 0.233836 -0.033865 0.000000 0.239631 -0.029105 0.000000 0.243802 -0.024232 0.000000 0.247863 -0.019380 0.000000 0.250296 -0.014437 0.000000 0.252602 -0.009614 0.000000 0.253314 -0.004708 0.000000 0.253883 -0.000030 0.000000 0.252932 0.004741 0.000000 0.251822 0.009169 0.000000 0.249305 0.013718 0.000000 0.246603 0.017805 0.000000 0.242650 0.022060 0.000000 0.238469 0.025733 0.000000 0.233236 0.029637 0.000000 0.227710 0.032841 0.000000 0.221371 0.036355 0.000000 0.214645 0.039054 0.000000 0.207388 0.042153 0.000000 0.199615 0.044332 0.000000 0.191630 0.047007 0.000000 0.182965 0.048667 0.000000 0.174441 0.050919 0.000000 0.165035 0.052079 0.000000 0.156152 0.053922 0.000000 0.146151 0.054614 0.000000 0.137075 0.056068 0.000000 0.126614 0.056335 0.000000 0.117496 0.057425 0.000000 0.106700 0.057318 0.000000 0.097670 0.058075 0.000000 0.086653 0.057651 0.000000 0.077820 0.058103 0.000000 0.066684 0.057423 0.000000 0.058133 0.057598 0.000000 0.046970 0.056722 0.000000 0.038767 0.056647 0.000000 0.027658 0.055634 0.000000 0.019844 0.055333 0.000000 0.008865 0.054239 0.000000 0.001464 0.053733 0.000000 -0.009321 0.052608 0.000000 -0.016304 0.051916 0.000000 -0.026832 0.050804 0.000000 -0.033408 0.049942 0.000000 -0.043624 0.048881 0.000000 -0.049816 0.047863 0.000000 -0.059669 0.046884 0.000000 -0.065512 0.045723 0.000000 -0.074953 0.044848 0.000000 -0.080490 0.043558 0.000000 -0.089478 0.042800 0.000000 -0.094756 0.041392 0.000000 -0.103252 0.040757 0.000000 -0.108322 0.039244 0.000000 -0.116292 0.038727 0.000000 -0.121202 0.037118 0.000000 -0.128618 0.036704 0.000000 -0.133413 0.035009 0.000000 -0.140249 0.034673 0.000000 -0.144965 0.032897 0.000000 -0.151201 0.032603 0.000000 -0.155861 0.030749 0.000000 -0.161475 0.030450 0.000000 -0.166087 0.028517 0.000000 -0.171059 0.028160 0.000000 -0.175608 0.026141 0.000000 -0.179914 0.025666 0.000000 -0.184364 0.023550 0.000000 -0.187978 0.022895 0.000000 -0.192266 0.020670 0.000000 -0.195154 0.019775 0.000000 -0.199195 0.017426 0.000000 -0.201317 0.016237 0.000000 -0.205001 0.013751 0.000000 -0.206309 0.012225 0.000000 -0.209511 0.009591 0.000000 -0.209952 0.007700 0.000000 -0.212534 0.004912 0.000000 -0.212050 0.002646 0.000000 -0.213868 -0.000294 0.000000 -0.212403 -0.002927 0.000000 -0.213316 -0.006009 0.000000 -0.210811 -0.008983 0.000000 -0.210690 -0.012189 0.000000 -0.207097 -0.015459 0.000000 -0.205827 -0.018760 0.000000 -0.201103 -0.022268 0.000000 -0.198594 -0.025626 0.000000 -0.192713 -0.029300 0.000000 -0.188900 -0.032672 0.000000 -0.181849 -0.036433 0.000000 -0.176697 -0.039766 0.000000 -0.168483 -0.043528 0.000000 -0.161989 -0.046765 0.000000 -0.152638 -0.050439 0.000000 -0.144830 -0.053518 0.000000 -0.134392 -0.057016 0.000000 -0.125330 -0.059871 0.000000 -0.113877 -0.063106 0.000000 -0.103651 -0.065672 0.000000 -0.091279 -0.068558 0.000000 
-0.082931 -0.083082 0.000000 -0.069521 -0.085999 0.000000 -0.057092 -0.088115 0.000000 -0.042991 -0.090442 0.000000 -0.029809 -0.091990 0.000000 -0.015188 -0.093651 0.000000 -0.001458 -0.094563 0.000000 0.013490 -0.095491 0.000000 0.027542 -0.095710 0.000000 0.042603 -0.095854 0.000000 0.056731 -0.095335 0.000000 0.071674 -0.094661 0.000000 0.085621 -0.093377 0.000000 0.100205 -0.091874 0.000000 0.113707 -0.089816 0.000000 0.127685 -0.087494 0.000000 0.140479 -0.084679 0.000000 0.153607 -0.081576 0.000000 0.165440 -0.078043 0.000000 0.177486 -0.074220 0.000000 0.188126 -0.070034 0.000000 0.198877 -0.065579 0.000000 0.208118 -0.060827 0.000000 0.217392 -0.055850 0.000000 0.225064 -0.050637 0.000000 0.232715 -0.045266 0.000000 0.238692 -0.039715 0.000000 0.244612 -0.034089 0.000000 0.248815 -0.028327 0.000000 0.252943 -0.022594 0.000000 0.255342 -0.016752 0.000000 0.257659 -0.011056 0.000000 0.258273 -0.005261 0.000000 0.258803 0.000261 0.000000 0.257696 0.005891 0.000000 0.256503 0.011114 0.000000 0.253779 0.016477 0.000000 0.250958 0.021292 0.000000 0.246759 0.026303 0.000000 0.242431 0.030625 0.000000 0.236923 0.035216 0.000000 0.231231 0.038980 0.000000 0.224600 0.043105 0.000000 0.217697 0.046270 0.000000 0.210141 0.049901 0.000000 0.202189 0.052450 0.000000 0.193909 0.055575 0.000000 0.185068 0.057511 0.000000 0.176261 0.060135 0.000000 0.166689 0.061480 0.000000 0.157544 0.063620 0.000000 0.147388 0.064412 0.000000 0.138078 0.066092 0.000000 0.127476 0.066384 0.000000 0.118156 0.067635 0.000000 0.107234 0.067488 0.000000 0.098038 0.068344 0.000000 0.086909 0.067826 0.000000 0.077946 0.068323 0.000000 0.066710 0.067505 0.000000 0.058067 0.067677 0.000000 0.046815 0.066630 0.000000 0.038555 0.066508 0.000000 0.027364 0.065302 0.000000 0.019527 0.064914 0.000000 0.008470 0.063614 0.000000 0.001076 0.062986 0.000000 -0.009784 0.061651 0.000000 -0.016734 0.060803 0.000000 -0.027337 0.059487 0.000000 -0.033859 0.058438 0.000000 -0.044152 0.057184 0.000000 -0.050274 0.055952 0.000000 -0.060207 0.054795 0.000000 -0.065967 0.053397 0.000000 -0.075493 0.052364 0.000000 -0.080941 0.050814 0.000000 -0.090018 0.049923 0.000000 -0.095206 0.048237 0.000000 -0.103795 0.047493 0.000000 -0.108779 0.045686 0.000000 -0.116848 0.045085 0.000000 -0.121683 0.043171 0.000000 -0.129202 0.042696 0.000000 -0.133938 0.040687 0.000000 -0.140883 0.040309 0.000000 -0.145562 0.038213 0.000000 -0.151911 0.037889 0.000000 -0.156562 0.035710 0.000000 -0.162297 0.035387 0.000000 -0.166931 0.033124 0.000000 -0.172030 0.032737 0.000000 -0.176637 0.030382 0.000000 -0.181078 0.029860 0.000000 -0.185621 0.027400 0.000000 -0.189376 0.026668 0.000000 -0.193793 0.024087 0.000000 -0.196827 0.023071 0.000000 -0.201027 0.020351 0.000000 -0.203299 0.018987 0.000000 -0.207166 0.016109 0.000000 -0.208625 0.014344 0.000000 -0.212026 0.011294 0.000000 -0.212615 0.009093 0.000000 -0.215402 0.005863 0.000000 -0.215058 0.003213 0.000000 -0.217077 -0.000198 0.000000 -0.215737 -0.003288 0.000000 -0.216837 -0.006870 0.000000 -0.214441 -0.010367 0.000000 -0.214482 -0.014100 0.000000 -0.210974 -0.017952 0.000000 -0.209835 -0.021802 0.000000 -0.205169 -0.025939 0.000000 -0.202751 -0.029863 0.000000 -0.196896 -0.034199 0.000000 -0.193131 -0.038145 0.000000 -0.186073 -0.042587 0.000000 -0.180923 -0.046493 0.000000 -0.172664 -0.050938 0.000000 -0.166124 -0.054737 0.000000 -0.156691 -0.059081 0.000000 -0.148789 -0.062700 0.000000 -0.138230 -0.066837 0.000000 -0.129026 -0.070199 0.000000 -0.117412 -0.074027 0.000000 -0.107000 -0.077053 0.000000 -0.094428 -0.080472 0.000000 