# vtk DataFile Version 2.0
Comment goes here
ASCII

DATASET STRUCTURED_POINTS
FIELD FieldData 1
TIME 1 1 double
0.17000000
DIMENSIONS    128   128   1

ORIGIN    0.000   0.000   0.000
SPACING   0.039062 0.039062   1.000

POINT_DATA   16384
VECTORS u double

0.032971 0.000000 0.000000 0.037529 0.000000 0.000000 0.044925 0.000000 0.000000 0.049782 0.000000 0.000000 0.057888 0.000000 0.000000 0.062945 0.000000 0.000000 0.071618 0.000000 0.000000 0.076744 0.000000 0.000000 0.085815 0.000000 0.000000 0.090852 0.000000 0.000000 0.100128 0.000000 0.000000 0.104895 0.000000 0.000000 0.114170 0.000000 0.000000 0.118472 0.000000 0.000000 0.127529 0.000000 0.000000 0.131166 0.000000 0.000000 0.139788 0.000000 0.000000 0.142561 0.000000 0.000000 0.150541 0.000000 0.000000 0.152263 0.000000 0.000000 0.159406 0.000000 0.000000 0.159911 0.000000 0.000000 0.166047 0.000000 0.000000 0.165196 0.000000 0.000000 0.170185 0.000000 0.000000 0.167874 0.000000 0.000000 0.171611 0.000000 0.000000 0.167777 0.000000 0.000000 0.170195 0.000000 0.000000 0.164818 0.000000 0.000000 0.165889 0.000000 0.000000 0.158992 0.000000 0.000000 0.158728 0.000000 0.000000 0.150379 0.000000 0.000000 0.148827 0.000000 0.000000 0.139135 0.000000 0.000000 0.136372 0.000000 0.000000 0.125483 0.000000 0.000000 0.121614 0.000000 0.000000 0.109702 0.000000 0.000000 0.104851 0.000000 0.000000 0.092117 0.000000 0.000000 0.086420 0.000000 0.000000 0.073085 0.000000 0.000000 0.066686 0.000000 0.000000 0.052981 0.000000 0.000000 0.046023 0.000000 0.000000 0.032187 0.000000 0.000000 0.024814 0.000000 0.000000 0.011087 0.000000 0.000000 0.003433 0.000000 0.000000 -0.009947 0.000000 0.000000 -0.017752 0.000000 0.000000 -0.030556 0.000000 0.000000 -0.038394 0.000000 0.000000 -0.050400 0.000000 0.000000 -0.058160 0.000000 0.000000 -0.069163 0.000000 0.000000 -0.076743 0.000000 0.000000 -0.086552 0.000000 0.000000 -0.093857 0.000000 0.000000 -0.102301 0.000000 0.000000 -0.109243 0.000000 0.000000 -0.116175 0.000000 0.000000 -0.122673 0.000000 0.000000 -0.127970 0.000000 0.000000 -0.133951 0.000000 0.000000 -0.137524 0.000000 0.000000 -0.142922 0.000000 0.000000 -0.144711 0.000000 0.000000 -0.149475 0.000000 0.000000 -0.149460 0.000000 0.000000 -0.153549 0.000000 0.000000 -0.151750 0.000000 0.000000 -0.155142 0.000000 0.000000 -0.151620 0.000000 0.000000 -0.154314 0.000000 0.000000 -0.149174 0.000000 0.000000 -0.151190 0.000000 0.000000 -0.144581 0.000000 0.000000 -0.145963 0.000000 0.000000 -0.138074 0.000000 0.000000 -0.138888 0.000000 0.000000 -0.129944 0.000000 0.000000 -0.130280 0.000000 0.000000 -0.120531 0.000000 0.000000 -0.120494 0.000000 0.000000 -0.110213 0.000000 0.000000 -0.109920 0.000000 0.000000 -0.099385 0.000000 0.000000 -0.098956 0.000000 0.000000 -0.088439 0.000000 0.000000 -0.087988 0.000000 0.000000 -0.077745 0.000000 0.000000 -0.077373 0.000000 0.000000 -0.067629 0.000000 0.000000 -0.067412 0.000000 0.000000 -0.058351 0.000000 0.000000 -0.058336 0.000000 0.000000 -0.050093 0.000000 0.000000 -0.050293 0.000000 0.000000 -0.042947 0.000000 0.000000 -0.043337 0.000000 0.000000 -0.036913 0.000000 0.000000 -0.037432 0.000000 0.000000 -0.031899 0.000000 0.000000 -0.032457 0.000000 0.000000 -0.027736 0.000000 0.000000 -0.028213 0.000000 0.000000 -0.024187 0.000000 0.000000 -0.024447 0.000000 0.000000 -0.020969 0.000000 0.000000 -0.020866 0.000000 0.000000 -0.017773 0.000000 0.000000 -0.017163 0.000000 0.000000 -0.014284 0.000000 0.000000 -0.013031 0.000000 0.000000 -0.010204 0.000000 0.000000 -0.008191 0.000000 0.000000 -0.005268 0.000000 0.000000 -0.002401 0.000000 0.000000 0.000741 0.000000 0.000000 0.004525 0.000000 0.000000 0.007976 0.000000 0.000000 0.012708 0.000000 0.000000 0.016525 0.000000 0.000000 0.022198 0.000000 0.000000 0.026397 0.000000 0.000000 
0.033712 -0.005566 0.000000 0.038282 -0.005977 0.000000 0.045691 -0.006126 0.000000 0.050559 -0.006481 0.000000 0.058678 -0.006581 0.000000 0.063747 -0.006865 0.000000 0.072432 -0.006900 0.000000 0.077571 -0.007098 0.000000 0.086654 -0.007054 0.000000 0.091702 -0.007157 0.000000 0.100991 -0.007022 0.000000 0.105769 -0.007021 0.000000 0.115055 -0.006788 0.000000 0.119367 -0.006680 0.000000 0.128434 -0.006347 0.000000 0.132078 -0.006130 0.000000 0.140710 -0.005698 0.000000 0.143487 -0.005376 0.000000 0.151474 -0.004851 0.000000 0.153196 -0.004433 0.000000 0.160343 -0.003824 0.000000 0.160842 -0.003321 0.000000 0.166979 -0.002642 0.000000 0.166116 -0.002069 0.000000 0.171103 -0.001339 0.000000 0.168774 -0.000713 0.000000 0.172503 0.000048 0.000000 0.168644 0.000708 0.000000 0.171049 0.001480 0.000000 0.165640 0.002153 0.000000 0.166693 0.002913 0.000000 0.159758 0.003581 0.000000 0.159470 0.004306 0.000000 0.151077 0.004951 0.000000 0.149496 0.005622 0.000000 0.139755 0.006227 0.000000 0.136958 0.006826 0.000000 0.126015 0.007379 0.000000 0.122107 0.007890 0.000000 0.110138 0.008382 0.000000 0.105244 0.008792 0.000000 0.092451 0.009215 0.000000 0.086708 0.009516 0.000000 0.073311 0.009867 0.000000 0.066862 0.010052 0.000000 0.053095 0.010331 0.000000 0.046085 0.010397 0.000000 0.032187 0.010605 0.000000 0.024759 0.010550 0.000000 0.010970 0.010690 0.000000 0.003260 0.010517 0.000000 -0.010181 0.010593 0.000000 -0.018045 0.010304 0.000000 -0.030906 0.010321 0.000000 -0.038805 0.009922 0.000000 -0.050867 0.009883 0.000000 -0.058690 0.009381 0.000000 -0.069744 0.009291 0.000000 -0.077388 0.008694 0.000000 -0.087244 0.008557 0.000000 -0.094613 0.007875 0.000000 -0.103100 0.007693 0.000000 -0.110107 0.006937 0.000000 -0.117075 0.006715 0.000000 -0.123637 0.005898 0.000000 -0.128965 0.005639 0.000000 -0.135009 0.004777 0.000000 -0.138604 0.004486 0.000000 -0.144062 0.003594 0.000000 -0.145866 0.003276 0.000000 -0.150685 0.002374 0.000000 -0.150677 0.002037 0.000000 -0.154815 0.001145 0.000000 -0.153012 0.000796 0.000000 -0.156447 -0.000065 0.000000 -0.152912 -0.000414 0.000000 -0.155639 -0.001223 0.000000 -0.150477 -0.001562 0.000000 -0.152515 -0.002296 0.000000 -0.145876 -0.002614 0.000000 -0.147267 -0.003254 0.000000 -0.139339 -0.003537 0.000000 -0.140151 -0.004065 0.000000 -0.131158 -0.004304 0.000000 -0.131479 -0.004706 0.000000 -0.121676 -0.004893 0.000000 -0.121611 -0.005159 0.000000 -0.111270 -0.005287 0.000000 -0.110936 -0.005414 0.000000 -0.100337 -0.005482 0.000000 -0.099856 -0.005473 0.000000 -0.089273 -0.005484 0.000000 -0.088761 -0.005347 0.000000 -0.078452 -0.005308 0.000000 -0.078010 -0.005058 0.000000 -0.068202 -0.004980 0.000000 -0.067910 -0.004639 0.000000 -0.058788 -0.004538 0.000000 -0.058694 -0.004129 0.000000 -0.050395 -0.004022 0.000000 -0.050514 -0.003573 0.000000 -0.043117 -0.003478 0.000000 -0.043427 -0.003017 0.000000 -0.036957 -0.002952 0.000000 -0.037400 -0.002507 0.000000 -0.031827 -0.002488 0.000000 -0.032312 -0.002082 0.000000 -0.027558 -0.002122 0.000000 -0.027968 -0.001774 0.000000 -0.023914 -0.001883 0.000000 -0.024113 -0.001609 0.000000 -0.020612 -0.001790 0.000000 -0.020455 -0.001598 0.000000 -0.017342 -0.001852 0.000000 -0.016685 -0.001744 0.000000 -0.013790 -0.002066 0.000000 -0.012496 -0.002040 0.000000 -0.009655 -0.002420 0.000000 -0.007608 -0.002468 0.000000 -0.004673 -0.002895 0.000000 -0.001777 -0.003004 0.000000 0.001375 -0.003463 0.000000 0.005183 -0.003618 0.000000 0.008645 -0.004092 0.000000 0.013397 -0.004274 0.000000 0.017224 -0.004745 0.000000 0.022914 -0.004936 0.000000 0.027124 -0.005386 0.000000 
0.032379 -0.011158 0.000000 0.036968 -0.011979 0.000000 0.044420 -0.012277 0.000000 0.049326 -0.012987 0.000000 0.057504 -0.013188 0.000000 0.062626 -0.013755 0.000000 0.071384 -0.013824 0.000000 0.076590 -0.014221 0.000000 0.085757 -0.014132 0.000000 0.090883 -0.014337 0.000000 0.100264 -0.014066 0.000000 0.105128 -0.014064 0.000000 0.114510 -0.013598 0.000000 0.118913 -0.013380 0.000000 0.128078 -0.012712 0.000000 0.131814 -0.012276 0.000000 0.140541 -0.011409 0.000000 0.143408 -0.010764 0.000000 0.151484 -0.009709 0.000000 0.153290 -0.008869 0.000000 0.160518 -0.007647 0.000000 0.161092 -0.006636 0.000000 0.167298 -0.005274 0.000000 0.166499 -0.004123 0.000000 0.171541 -0.002657 0.000000 0.169262 -0.001400 0.000000 0.173032 0.000130 0.000000 0.169208 0.001454 0.000000 0.171640 0.003004 0.000000 0.166250 0.004356 0.000000 0.167316 0.005882 0.000000 0.160385 0.007223 0.000000 0.160098 0.008680 0.000000 0.151695 0.009974 0.000000 0.150103 0.011323 0.000000 0.140339 0.012538 0.000000 0.137524 0.013740 0.000000 0.126546 0.014851 0.000000 0.122616 0.015877 0.000000 0.110603 0.016863 0.000000 0.105684 0.017687 0.000000 0.092841 0.018536 0.000000 0.087072 0.019140 0.000000 0.073620 0.019846 0.000000 0.067148 0.020216 0.000000 0.053324 0.020777 0.000000 0.046296 0.020908 0.000000 0.032339 0.021327 0.000000 0.024898 0.021217 0.000000 0.011052 0.021499 0.000000 0.003335 0.021151 0.000000 -0.010161 0.021305 0.000000 -0.018026 0.020726 0.000000 -0.030940 0.020760 0.000000 -0.038833 0.019960 0.000000 -0.050943 0.019884 0.000000 -0.058755 0.018877 0.000000 -0.069852 0.018698 0.000000 -0.077480 0.017500 0.000000 -0.087374 0.017226 0.000000 -0.094723 0.015856 0.000000 -0.103241 0.015493 0.000000 -0.110223 0.013975 0.000000 -0.117216 0.013531 0.000000 -0.123751 0.011890 0.000000 -0.129094 0.011371 0.000000 -0.135107 0.009639 0.000000 -0.138709 0.009054 0.000000 -0.144134 0.007262 0.000000 -0.145934 0.006623 0.000000 -0.150717 0.004810 0.000000 -0.150692 0.004130 0.000000 -0.154793 0.002336 0.000000 -0.152962 0.001632 0.000000 -0.156356 -0.000100 0.000000 -0.152781 -0.000808 0.000000 -0.155465 -0.002435 0.000000 -0.150251 -0.003124 0.000000 -0.152245 -0.004602 0.000000 -0.145542 -0.005248 0.000000 -0.146889 -0.006537 0.000000 -0.138889 -0.007116 0.000000 -0.139659 -0.008180 0.000000 -0.130588 -0.008672 0.000000 -0.130871 -0.009482 0.000000 -0.120987 -0.009868 0.000000 -0.120892 -0.010406 0.000000 -0.110472 -0.010675 0.000000 -0.110119 -0.010933 0.000000 -0.099446 -0.011080 0.000000 -0.098960 -0.011063 0.000000 -0.088315 -0.011095 0.000000 -0.087815 -0.010821 0.000000 -0.077459 -0.010751 0.000000 -0.077048 -0.010250 0.000000 -0.067213 -0.010100 0.000000 -0.066972 -0.009414 0.000000 -0.057844 -0.009216 0.000000 -0.057823 -0.008394 0.000000 -0.049540 -0.008180 0.000000 -0.049751 -0.007278 0.000000 -0.042394 -0.007087 0.000000 -0.042814 -0.006160 0.000000 -0.036404 -0.006027 0.000000 -0.036970 -0.005130 0.000000 -0.031476 -0.005088 0.000000 -0.032092 -0.004269 0.000000 -0.027431 -0.004345 0.000000 -0.027976 -0.003644 0.000000 -0.024023 -0.003855 0.000000 -0.024355 -0.003302 0.000000 -0.020960 -0.003658 0.000000 -0.020929 -0.003270 0.000000 -0.017921 -0.003770 0.000000 -0.017378 -0.003552 0.000000 -0.014581 -0.004188 0.000000 -0.013387 -0.004134 0.000000 -0.010633 -0.004888 0.000000 -0.008667 -0.004983 0.000000 -0.005805 -0.005831 0.000000 -0.002970 -0.006048 0.000000 0.000126 -0.006961 0.000000 0.003896 -0.007270 0.000000 0.007319 -0.008213 0.000000 0.012054 -0.008579 0.000000 0.015862 -0.009518 0.000000 0.021557 -0.009900 0.000000 0.025767 -0.010798 0.000000 
0.032530 -0.016768 0.000000 0.037161 -0.018018 0.000000 0.044681 -0.018484 0.000000 0.049648 -0.019565 0.000000 0.057909 -0.019881 0.000000 0.063109 -0.020746 0.000000 0.071964 -0.020864 0.000000 0.077262 -0.021471 0.000000 0.086537 -0.021347 0.000000 0.091766 -0.021663 0.000000 0.101262 -0.021266 0.000000 0.106236 -0.021267 0.000000 0.115738 -0.020574 0.000000 0.120252 -0.020247 0.000000 0.129537 -0.019248 0.000000 0.133380 -0.018593 0.000000 0.142222 -0.017292 0.000000 0.145186 -0.016319 0.000000 0.153367 -0.014733 0.000000 0.155257 -0.013466 0.000000 0.162575 -0.011626 0.000000 0.163213 -0.010101 0.000000 0.169492 -0.008049 0.000000 0.168733 -0.006312 0.000000 0.173825 -0.004102 0.000000 0.171560 -0.002205 0.000000 0.175356 0.000102 0.000000 0.171518 0.002100 0.000000 0.173950 0.004438 0.000000 0.168517 0.006477 0.000000 0.169558 0.008778 0.000000 0.162556 0.010799 0.000000 0.162220 0.012997 0.000000 0.153719 0.014945 0.000000 0.152058 0.016978 0.000000 0.142172 0.018806 0.000000 0.139270 0.020619 0.000000 0.128150 0.022288 0.000000 0.124119 0.023833 0.000000 0.111947 0.025314 0.000000 0.106917 0.026555 0.000000 0.093903 0.027827 0.000000 0.088016 0.028736 0.000000 0.074386 0.029791 0.000000 0.067791 0.030349 0.000000 0.053784 0.031184 0.000000 0.046632 0.031382 0.000000 0.032493 0.032002 0.000000 0.024928 0.031837 0.000000 0.010901 0.032253 0.000000 0.003063 0.031730 0.000000 -0.010609 0.031954 0.000000 -0.018593 0.031083 0.000000 -0.031676 0.031128 0.000000 -0.039686 0.029925 0.000000 -0.051955 0.029805 0.000000 -0.059880 0.028291 0.000000 -0.071125 0.028017 0.000000 -0.078865 0.026216 0.000000 -0.088892 0.025800 0.000000 -0.096351 0.023742 0.000000 -0.104986 0.023194 0.000000 -0.112074 0.020912 0.000000 -0.119165 0.020242 0.000000 -0.125802 0.017776 0.000000 -0.131222 0.016996 0.000000 -0.137331 0.014391 0.000000 -0.140985 0.013513 0.000000 -0.146499 0.010819 0.000000 -0.148324 0.009859 0.000000 -0.153184 0.007133 0.000000 -0.153156 0.006113 0.000000 -0.157319 0.003414 0.000000 -0.155454 0.002360 0.000000 -0.158893 -0.000246 0.000000 -0.155252 -0.001305 0.000000 -0.157961 -0.003753 0.000000 -0.152650 -0.004782 0.000000 -0.154646 -0.007005 0.000000 -0.147817 -0.007969 0.000000 -0.149142 -0.009907 0.000000 -0.140988 -0.010768 0.000000 -0.141712 -0.012366 0.000000 -0.132466 -0.013092 0.000000 -0.132681 -0.014307 0.000000 -0.122606 -0.014872 0.000000 -0.122424 -0.015675 0.000000 -0.111802 -0.016060 0.000000 -0.111348 -0.016440 0.000000 -0.100473 -0.016641 0.000000 -0.099877 -0.016604 0.000000 -0.089037 -0.016629 0.000000 -0.088422 -0.016203 0.000000 -0.077887 -0.016074 0.000000 -0.077366 -0.015305 0.000000 -0.067372 -0.015057 0.000000 -0.067030 -0.014008 0.000000 -0.057773 -0.013687 0.000000 -0.057664 -0.012433 0.000000 -0.049284 -0.012093 0.000000 -0.049425 -0.010719 0.000000 -0.042003 -0.010416 0.000000 -0.042372 -0.009007 0.000000 -0.035932 -0.008796 0.000000 -0.036465 -0.007435 0.000000 -0.030971 -0.007366 0.000000 -0.031573 -0.006127 0.000000 -0.026937 -0.006239 0.000000 -0.027482 -0.005182 0.000000 -0.023575 -0.005503 0.000000 -0.023918 -0.004672 0.000000 -0.020582 -0.005216 0.000000 -0.020570 -0.004637 0.000000 -0.017627 -0.005403 0.000000 -0.017105 -0.005084 0.000000 -0.014374 -0.006057 0.000000 -0.013199 -0.005988 0.000000 -0.010506 -0.007141 0.000000 -0.008552 -0.007297 0.000000 -0.005740 -0.008592 0.000000 -0.002909 -0.008935 0.000000 0.000152 -0.010328 0.000000 0.003929 -0.010811 0.000000 0.007335 -0.012250 0.000000 0.012091 -0.012817 0.000000 0.015901 -0.014248 0.000000 0.021633 -0.014841 0.000000 0.025864 -0.016209 0.000000 
0.030568 -0.022454 0.000000 0.035250 -0.024130 0.000000 0.042872 -0.024764 0.000000 0.047926 -0.026215 0.000000 0.056321 -0.026649 0.000000 0.061641 -0.027810 0.000000 0.070658 -0.027977 0.000000 0.076104 -0.028793 0.000000 0.085562 -0.028636 0.000000 0.090963 -0.029062 0.000000 0.100658 -0.028536 0.000000 0.105818 -0.028540 0.000000 0.115529 -0.027614 0.000000 0.120237 -0.027178 0.000000 0.129731 -0.025840 0.000000 0.133769 -0.024961 0.000000 0.142814 -0.023215 0.000000 0.145965 -0.021909 0.000000 0.154335 -0.019779 0.000000 0.156395 -0.018077 0.000000 0.163881 -0.015603 0.000000 0.164667 -0.013553 0.000000 0.171086 -0.010794 0.000000 0.170445 -0.008457 0.000000 0.175646 -0.005484 0.000000 0.173464 -0.002932 0.000000 0.177336 0.000172 0.000000 0.173543 0.002860 0.000000 0.176015 0.006005 0.000000 0.170589 0.008748 0.000000 0.171637 0.011843 0.000000 0.164603 0.014561 0.000000 0.164243 0.017517 0.000000 0.155675 0.020136 0.000000 0.153963 0.022870 0.000000 0.143979 0.025325 0.000000 0.141004 0.027762 0.000000 0.129760 0.030002 0.000000 0.125640 0.032079 0.000000 0.113323 0.034065 0.000000 0.108196 0.035732 0.000000 0.095020 0.037437 0.000000 0.089033 0.038657 0.000000 0.075231 0.040070 0.000000 0.068539 0.040818 0.000000 0.054353 0.041936 0.000000 0.047110 0.042200 0.000000 0.032791 0.043031 0.000000 0.025144 0.042808 0.000000 0.010940 0.043364 0.000000 0.003030 0.042661 0.000000 -0.010813 0.042961 0.000000 -0.018858 0.041792 0.000000 -0.032104 0.041853 0.000000 -0.040163 0.040239 0.000000 -0.052584 0.040079 0.000000 -0.060549 0.038048 0.000000 -0.071934 0.037683 0.000000 -0.079704 0.035267 0.000000 -0.089856 0.034711 0.000000 -0.097337 0.031950 0.000000 -0.106078 0.031217 0.000000 -0.113183 0.028155 0.000000 -0.120359 0.027258 0.000000 -0.127005 0.023948 0.000000 -0.132488 0.022901 0.000000 -0.138599 0.019402 0.000000 -0.142289 0.018221 0.000000 -0.147796 0.014601 0.000000 -0.149628 0.013308 0.000000 -0.154472 0.009642 0.000000 -0.154419 0.008265 0.000000 -0.158555 0.004634 0.000000 -0.156631 0.003206 0.000000 -0.160030 -0.000302 0.000000 -0.156296 -0.001740 0.000000 -0.158950 -0.005037 0.000000 -0.153512 -0.006439 0.000000 -0.155440 -0.009435 0.000000 -0.148452 -0.010752 0.000000 -0.149698 -0.013365 0.000000 -0.141357 -0.014546 0.000000 -0.141993 -0.016702 0.000000 -0.132539 -0.017703 0.000000 -0.132660 -0.019343 0.000000 -0.122365 -0.020126 0.000000 -0.122090 -0.021210 0.000000 -0.111246 -0.021751 0.000000 -0.110709 -0.022262 0.000000 -0.099620 -0.022552 0.000000 -0.098958 -0.022500 0.000000 -0.087924 -0.022549 0.000000 -0.087269 -0.021971 0.000000 -0.076570 -0.021807 0.000000 -0.076040 -0.020764 0.000000 -0.065924 -0.020436 0.000000 -0.065610 -0.019014 0.000000 -0.056278 -0.018582 0.000000 -0.056237 -0.016883 0.000000 -0.047833 -0.016420 0.000000 -0.048081 -0.014558 0.000000 -0.040689 -0.014140 0.000000 -0.041201 -0.012231 0.000000 -0.034839 -0.011934 0.000000 -0.035546 -0.010091 0.000000 -0.030173 -0.009981 0.000000 -0.030971 -0.008303 0.000000 -0.026491 -0.008436 0.000000 -0.027245 -0.007006 0.000000 -0.023519 -0.007418 0.000000 -0.024073 -0.006295 0.000000 -0.020930 -0.007006 0.000000 -0.021121 -0.006225 0.000000 -0.018372 -0.007235 0.000000 -0.018036 -0.006805 0.000000 -0.015489 -0.008094 0.000000 -0.014474 -0.008003 0.000000 -0.011946 -0.009535 0.000000 -0.010121 -0.009748 0.000000 -0.007447 -0.011474 0.000000 -0.004708 -0.011940 0.000000 -0.001752 -0.013798 0.000000 0.001971 -0.014453 0.000000 0.005310 -0.016376 0.000000 0.010053 -0.017145 0.000000 0.013835 -0.019059 0.000000 0.019593 -0.019864 0.000000 0.023838 -0.021695 0.000000 
0.030092 -0.028181 0.000000 0.034848 -0.030322 0.000000 0.042594 -0.031159 0.000000 0.047760 -0.033014 0.000000 0.056311 -0.033597 0.000000 0.061778 -0.035083 0.000000 0.070979 -0.035327 0.000000 0.076601 -0.036375 0.000000 0.086265 -0.036206 0.000000 0.091864 -0.036759 0.000000 0.101782 -0.036121 0.000000 0.107155 -0.036138 0.000000 0.117098 -0.034993 0.000000 0.122024 -0.034450 0.000000 0.131751 -0.032780 0.000000 0.136002 -0.031676 0.000000 0.145272 -0.029487 0.000000 0.148621 -0.027840 0.000000 0.157198 -0.025162 0.000000 0.159430 -0.023012 0.000000 0.167097 -0.019898 0.000000 0.168021 -0.017306 0.000000 0.174586 -0.013827 0.000000 0.174041 -0.010872 0.000000 0.179348 -0.007121 0.000000 0.177214 -0.003894 0.000000 0.181147 0.000023 0.000000 0.177350 0.003421 0.000000 0.179837 0.007392 0.000000 0.174354 0.010856 0.000000 0.175370 0.014764 0.000000 0.168228 0.018193 0.000000 0.167794 0.021925 0.000000 0.159070 0.025225 0.000000 0.157246 0.028675 0.000000 0.147063 0.031765 0.000000 0.143946 0.034838 0.000000 0.132465 0.037652 0.000000 0.128179 0.040270 0.000000 0.115598 0.042758 0.000000 0.110287 0.044858 0.000000 0.096825 0.046990 0.000000 0.090645 0.048525 0.000000 0.076543 0.050285 0.000000 0.069654 0.051226 0.000000 0.055162 0.052613 0.000000 0.047722 0.052944 0.000000 0.033095 0.053968 0.000000 0.025256 0.053688 0.000000 0.010749 0.054368 0.000000 0.002652 0.053484 0.000000 -0.011486 0.053842 0.000000 -0.019709 0.052373 0.000000 -0.033237 0.052433 0.000000 -0.041468 0.050406 0.000000 -0.054155 0.050191 0.000000 -0.062286 0.047640 0.000000 -0.073916 0.047171 0.000000 -0.081846 0.044137 0.000000 -0.092219 0.043432 0.000000 -0.099855 0.039964 0.000000 -0.108791 0.039040 0.000000 -0.116044 0.035193 0.000000 -0.123383 0.034065 0.000000 -0.130171 0.029905 0.000000 -0.135779 0.028590 0.000000 -0.142022 0.024192 0.000000 -0.145797 0.022710 0.000000 -0.151423 0.018158 0.000000 -0.153294 0.016535 0.000000 -0.158239 0.011924 0.000000 -0.158175 0.010195 0.000000 -0.162389 0.005627 0.000000 -0.160402 0.003835 0.000000 -0.163851 -0.000582 0.000000 -0.159999 -0.002385 0.000000 -0.162671 -0.006536 0.000000 -0.157061 -0.008292 0.000000 -0.158971 -0.012066 0.000000 -0.151758 -0.013711 0.000000 -0.152949 -0.017001 0.000000 -0.144338 -0.018473 0.000000 -0.144882 -0.021184 0.000000 -0.135120 -0.022424 0.000000 -0.135118 -0.024481 0.000000 -0.124486 -0.025442 0.000000 -0.124062 -0.026793 0.000000 -0.112867 -0.027442 0.000000 -0.112162 -0.028066 0.000000 -0.100724 -0.028392 0.000000 -0.099886 -0.028300 0.000000 -0.088520 -0.028318 0.000000 -0.087693 -0.027556 0.000000 -0.076693 -0.027303 0.000000 -0.076006 -0.025951 0.000000 -0.065633 -0.025487 0.000000 -0.065187 -0.023654 0.000000 -0.055653 -0.023060 0.000000 -0.055513 -0.020878 0.000000 -0.046969 -0.020248 0.000000 -0.047155 -0.017863 0.000000 -0.039687 -0.017296 0.000000 -0.040175 -0.014857 0.000000 -0.033800 -0.014450 0.000000 -0.034521 -0.012101 0.000000 -0.029192 -0.011941 0.000000 -0.030036 -0.009809 0.000000 -0.025646 -0.009965 0.000000 -0.026471 -0.008154 0.000000 -0.022871 -0.008675 0.000000 -0.023513 -0.007261 0.000000 -0.020519 -0.008169 0.000000 -0.020804 -0.007196 0.000000 -0.018213 -0.008488 0.000000 -0.017970 -0.007967 0.000000 -0.015577 -0.009618 0.000000 -0.014645 -0.009531 0.000000 -0.012256 -0.011494 0.000000 -0.010495 -0.011796 0.000000 -0.007936 -0.014005 0.000000 -0.005237 -0.014630 0.000000 -0.002365 -0.017008 0.000000 0.001348 -0.017873 0.000000 0.004639 -0.020331 0.000000 0.009404 -0.021342 0.000000 0.013179 -0.023788 0.000000 0.018993 -0.024843 0.000000 0.023271 -0.027184 0.000000 
0.027427 -0.034032 0.000000 0.032268 -0.036632 0.000000 0.040177 -0.037677 0.000000 0.045485 -0.039931 0.000000 0.054248 -0.040667 0.000000 0.059908 -0.042477 0.000000 0.069363 -0.042799 0.000000 0.075222 -0.044080 0.000000 0.085175 -0.043899 0.000000 0.091045 -0.044580 0.000000 0.101277 -0.043827 0.000000 0.106945 -0.043855 0.000000 0.117214 -0.042483 0.000000 0.122447 -0.041831 0.000000 0.132503 -0.039818 0.000000 0.137060 -0.038482 0.000000 0.146647 -0.035834 0.000000 0.150288 -0.033835 0.000000 0.159161 -0.030588 0.000000 0.161658 -0.027976 0.000000 0.169586 -0.024194 0.000000 0.170735 -0.021042 0.000000 0.177518 -0.016814 0.000000 0.177149 -0.013218 0.000000 0.182622 -0.008657 0.000000 0.180607 -0.004730 0.000000 0.184649 0.000036 0.000000 0.180910 0.004170 0.000000 0.183449 0.009001 0.000000 0.177960 0.013215 0.000000 0.178972 0.017969 0.000000 0.171763 0.022137 0.000000 0.171273 0.026675 0.000000 0.162424 0.030684 0.000000 0.160500 0.034877 0.000000 0.150141 0.038626 0.000000 0.146889 0.042359 0.000000 0.135189 0.045769 0.000000 0.130744 0.048947 0.000000 0.117909 0.051958 0.000000 0.112424 0.054504 0.000000 0.098683 0.057079 0.000000 0.092324 0.058939 0.000000 0.077927 0.061061 0.000000 0.070862 0.062199 0.000000 0.056066 0.063868 0.000000 0.048460 0.064267 0.000000 0.033528 0.065497 0.000000 0.025536 0.065154 0.000000 0.010729 0.065968 0.000000 0.002496 0.064896 0.000000 -0.011933 0.065322 0.000000 -0.020276 0.063543 0.000000 -0.034081 0.063612 0.000000 -0.042415 0.061158 0.000000 -0.055362 0.060896 0.000000 -0.063581 0.057809 0.000000 -0.075449 0.057243 0.000000 -0.083455 0.053570 0.000000 -0.094042 0.052720 0.000000 -0.101743 0.048521 0.000000 -0.110862 0.047406 0.000000 -0.118171 0.042747 0.000000 -0.125660 0.041385 0.000000 -0.132494 0.036344 0.000000 -0.138215 0.034752 0.000000 -0.144493 0.029419 0.000000 -0.148337 0.027622 0.000000 -0.153984 0.022098 0.000000 -0.155876 0.020124 0.000000 -0.160827 0.014523 0.000000 -0.160730 0.012415 0.000000 -0.164930 0.006861 0.000000 -0.162854 0.004668 0.000000 -0.166265 -0.000705 0.000000 -0.162265 -0.002920 0.000000 -0.164873 -0.007975 0.000000 -0.159057 -0.010139 0.000000 -0.160876 -0.014738 0.000000 -0.153403 -0.016773 0.000000 -0.154476 -0.020785 0.000000 -0.145557 -0.022613 0.000000 -0.145961 -0.025921 0.000000 -0.135853 -0.027467 0.000000 -0.135695 -0.029977 0.000000 -0.124693 -0.031182 0.000000 -0.124108 -0.032828 0.000000 -0.112536 -0.033650 0.000000 -0.111677 -0.034405 0.000000 -0.099871 -0.034828 0.000000 -0.098900 -0.034705 0.000000 -0.087196 -0.034742 0.000000 -0.086269 -0.033797 0.000000 -0.074981 -0.033494 0.000000 -0.074240 -0.031824 0.000000 -0.063643 -0.031255 0.000000 -0.063198 -0.028994 0.000000 -0.053516 -0.028257 0.000000 -0.053439 -0.025567 0.000000 -0.044831 -0.024777 0.000000 -0.045142 -0.021840 0.000000 -0.037695 -0.021119 0.000000 -0.038367 -0.018118 0.000000 -0.032094 -0.017588 0.000000 -0.033048 -0.014699 0.000000 -0.027892 -0.014467 0.000000 -0.029006 -0.011849 0.000000 -0.024847 -0.012000 0.000000 -0.025964 -0.009781 0.000000 -0.022634 -0.010376 0.000000 -0.023576 -0.008647 0.000000 -0.020872 -0.009715 0.000000 -0.021448 -0.008530 0.000000 -0.019150 -0.010069 0.000000 -0.019173 -0.009441 0.000000 -0.017060 -0.011419 0.000000 -0.016356 -0.011324 0.000000 -0.014216 -0.013685 0.000000 -0.012638 -0.014068 0.000000 -0.010286 -0.016732 0.000000 -0.007716 -0.017511 0.000000 -0.004999 -0.020384 0.000000 -0.001357 -0.021457 0.000000 0.001837 -0.024432 0.000000 0.006592 -0.025684 0.000000 0.010329 -0.028648 0.000000 0.016194 -0.029956 0.000000 0.020497 -0.032794 0.000000 
0.026250 -0.039952 0.000000 0.031199 -0.043072 0.000000 0.039291 -0.044377 0.000000 0.044766 -0.047084 0.000000 0.053761 -0.048020 0.000000 0.059642 -0.050198 0.000000 0.069372 -0.050640 0.000000 0.075497 -0.052187 0.000000 0.085762 -0.052030 0.000000 0.091934 -0.052861 0.000000 0.102503 -0.052020 0.000000 0.108496 -0.052075 0.000000 0.119119 -0.050495 0.000000 0.124686 -0.049739 0.000000 0.135098 -0.047393 0.000000 0.139983 -0.045820 0.000000 0.149915 -0.042716 0.000000 0.153864 -0.040353 0.000000 0.163054 -0.036532 0.000000 0.165822 -0.033438 0.000000 0.174029 -0.028975 0.000000 0.175398 -0.025238 0.000000 0.182407 -0.020241 0.000000 0.182196 -0.015976 0.000000 0.187834 -0.010579 0.000000 0.185905 -0.005922 0.000000 0.190044 -0.000280 0.000000 0.186313 0.004621 0.000000 0.188880 0.010342 0.000000 0.183320 0.015332 0.000000 0.184291 0.020961 0.000000 0.176933 0.025892 0.000000 0.176338 0.031264 0.000000 0.167270 0.035997 0.000000 0.165186 0.040958 0.000000 0.154543 0.045376 0.000000 0.151086 0.049789 0.000000 0.139050 0.053797 0.000000 0.134365 0.057551 0.000000 0.121152 0.061078 0.000000 0.115404 0.064083 0.000000 0.101256 0.067089 0.000000 0.094622 0.069282 0.000000 0.079798 0.071747 0.000000 0.072455 0.073087 0.000000 0.057223 0.075015 0.000000 0.049343 0.075483 0.000000 0.033975 0.076892 0.000000 0.025719 0.076487 0.000000 0.010481 0.077408 0.000000 0.001996 0.076146 0.000000 -0.012849 0.076613 0.000000 -0.021432 0.074521 0.000000 -0.035635 0.074572 0.000000 -0.044197 0.071687 0.000000 -0.057518 0.071357 0.000000 -0.065954 0.067728 0.000000 -0.078170 0.067045 0.000000 -0.086384 0.062730 0.000000 -0.097284 0.061720 0.000000 -0.105185 0.056785 0.000000 -0.114581 0.055468 0.000000 -0.122082 0.049991 0.000000 -0.129803 0.048388 0.000000 -0.136820 0.042460 0.000000 -0.142721 0.040589 0.000000 -0.149171 0.034313 0.000000 -0.153136 0.032201 0.000000 -0.158938 0.025697 0.000000 -0.160886 0.023378 0.000000 -0.165967 0.016778 0.000000 -0.165856 0.014298 0.000000 -0.170154 0.007750 0.000000 -0.167986 0.005170 0.000000 -0.171458 -0.001170 0.000000 -0.167287 -0.003776 0.000000 -0.169910 -0.009744 0.000000 -0.163843 -0.012290 0.000000 -0.165625 -0.017720 0.000000 -0.157825 -0.020111 0.000000 -0.158809 -0.024847 0.000000 -0.149494 -0.026988 0.000000 -0.149757 -0.030889 0.000000 -0.139197 -0.032690 0.000000 -0.138853 -0.035641 0.000000 -0.127358 -0.037029 0.000000 -0.126550 -0.038950 0.000000 -0.114465 -0.039873 0.000000 -0.113361 -0.040730 0.000000 -0.101044 -0.041169 0.000000 -0.099821 -0.040976 0.000000 -0.087632 -0.040948 0.000000 -0.086465 -0.039771 0.000000 -0.074739 -0.039332 0.000000 -0.073786 -0.037289 0.000000 -0.062822 -0.036528 0.000000 -0.062207 -0.033780 0.000000 -0.052244 -0.032820 0.000000 -0.052050 -0.029564 0.000000 -0.043257 -0.028545 0.000000 -0.043513 -0.024998 0.000000 -0.035980 -0.024071 0.000000 -0.036658 -0.020458 0.000000 -0.030396 -0.019769 0.000000 -0.031414 -0.016303 0.000000 -0.026354 -0.015983 0.000000 -0.027582 -0.012854 0.000000 -0.023590 -0.013007 0.000000 -0.024858 -0.010367 0.000000 -0.021748 -0.011063 0.000000 -0.022863 -0.009023 0.000000 -0.020411 -0.010297 0.000000 -0.021167 -0.008917 0.000000 -0.019133 -0.010763 0.000000 -0.019328 -0.010058 0.000000 -0.017469 -0.012435 0.000000 -0.016918 -0.012374 0.000000 -0.015007 -0.015212 0.000000 -0.013549 -0.015726 0.000000 -0.011386 -0.018927 0.000000 -0.008895 -0.019917 0.000000 -0.006317 -0.023367 0.000000 -0.002705 -0.024709 0.000000 0.000407 -0.028280 0.000000 0.005183 -0.029834 0.000000 0.008902 -0.033391 0.000000 0.014843 -0.035011 0.000000 0.019190 -0.038416 0.000000 