# vtk DataFile Version 2.0
Comment goes here
ASCII

DATASET STRUCTURED_POINTS
FIELD FieldData 1
TIME 1 1 double
0.19500000
DIMENSIONS    128   128   1

ORIGIN    0.000   0.000   0.000
SPACING   0.039062 0.039062   1.000

POINT_DATA   16384
VECTORS u double

-0.087956 -0.000000 0.000000 -0.079904 -0.000000 0.000000 -0.073596 -0.000000 0.000000 -0.064631 -0.000000 0.000000 -0.057525 -0.000000 0.000000 -0.047791 -0.000000 0.000000 -0.040037 -0.000000 0.000000 -0.029701 -0.000000 0.000000 -0.021473 -0.000000 0.000000 -0.010721 -0.000000 0.000000 -0.002209 -0.000000 0.000000 0.008757 -0.000000 0.000000 0.017351 -0.000000 0.000000 0.028319 -0.000000 0.000000 0.036787 -0.000000 0.000000 0.047542 -0.000000 0.000000 0.055678 -0.000000 0.000000 0.066007 -0.000000 0.000000 0.073610 -0.000000 0.000000 0.083312 -0.000000 0.000000 0.090198 -0.000000 0.000000 0.099083 -0.000000 0.000000 0.105091 -0.000000 0.000000 0.112995 -0.000000 0.000000 0.117989 -0.000000 0.000000 0.124773 -0.000000 0.000000 0.128650 -0.000000 0.000000 0.134208 -0.000000 0.000000 0.136902 -0.000000 0.000000 0.141161 -0.000000 0.000000 0.142642 -0.000000 0.000000 0.145566 -0.000000 0.000000 0.145842 -0.000000 0.000000 0.147429 -0.000000 0.000000 0.146545 -0.000000 0.000000 0.146828 -0.000000 0.000000 0.144859 -0.000000 0.000000 0.143902 -0.000000 0.000000 0.140955 -0.000000 0.000000 0.138849 -0.000000 0.000000 0.135051 -0.000000 0.000000 0.131909 -0.000000 0.000000 0.127406 -0.000000 0.000000 0.123360 -0.000000 0.000000 0.118310 -0.000000 0.000000 0.113501 -0.000000 0.000000 0.108066 -0.000000 0.000000 0.102643 -0.000000 0.000000 0.096987 -0.000000 0.000000 0.091100 -0.000000 0.000000 0.085381 -0.000000 0.000000 0.079177 -0.000000 0.000000 0.073543 -0.000000 0.000000 0.067159 -0.000000 0.000000 0.061744 -0.000000 0.000000 0.055310 -0.000000 0.000000 0.050233 -0.000000 0.000000 0.043861 -0.000000 0.000000 0.039219 -0.000000 0.000000 0.033007 -0.000000 0.000000 0.028878 -0.000000 0.000000 0.022905 -0.000000 0.000000 0.019344 -0.000000 0.000000 0.013670 -0.000000 0.000000 0.010708 -0.000000 0.000000 0.005372 -0.000000 0.000000 0.003016 -0.000000 0.000000 -0.001960 -0.000000 0.000000 -0.003727 -0.000000 0.000000 -0.008342 -0.000000 0.000000 -0.009561 -0.000000 0.000000 -0.013832 -0.000000 0.000000 -0.014564 -0.000000 0.000000 -0.018526 -0.000000 0.000000 -0.018855 -0.000000 0.000000 -0.022556 -0.000000 0.000000 -0.022582 -0.000000 0.000000 -0.026084 -0.000000 0.000000 -0.025921 -0.000000 0.000000 -0.029292 -0.000000 0.000000 -0.029065 -0.000000 0.000000 -0.032379 -0.000000 0.000000 -0.032215 -0.000000 0.000000 -0.035545 -0.000000 0.000000 -0.035570 -0.000000 0.000000 -0.038984 -0.000000 0.000000 -0.039313 -0.000000 0.000000 -0.042869 -0.000000 0.000000 -0.043602 -0.000000 0.000000 -0.047340 -0.000000 0.000000 -0.048554 -0.000000 0.000000 -0.052496 -0.000000 0.000000 -0.054237 -0.000000 0.000000 -0.058379 -0.000000 0.000000 -0.060662 -0.000000 0.000000 -0.064975 -0.000000 0.000000 -0.067776 -0.000000 0.000000 -0.072203 -0.000000 0.000000 -0.075464 -0.000000 0.000000 -0.079921 -0.000000 0.000000 -0.083548 -0.000000 0.000000 -0.087928 -0.000000 0.000000 -0.091796 -0.000000 0.000000 -0.095972 -0.000000 0.000000 -0.099932 -0.000000 0.000000 -0.103764 -0.000000 0.000000 -0.107649 -0.000000 0.000000 -0.110989 -0.000000 0.000000 -0.114621 -0.000000 0.000000 -0.117321 -0.000000 0.000000 -0.120525 -0.000000 0.000000 -0.122442 -0.000000 0.000000 -0.125048 -0.000000 0.000000 -0.126053 -0.000000 0.000000 -0.127907 -0.000000 0.000000 -0.127890 -0.000000 0.000000 -0.128860 -0.000000 0.000000 -0.127731 -0.000000 0.000000 -0.127713 -0.000000 0.000000 -0.125410 -0.000000 0.000000 -0.124331 -0.000000 0.000000 -0.120821 -0.000000 0.000000 -0.118639 -0.000000 0.000000 -0.113920 -0.000000 0.000000 -0.110631 -0.000000 0.000000 -0.104731 -0.000000 0.000000 -0.100362 -0.000000 0.000000 -0.093342 -0.000000 0.000000 
-0.088207 -0.006719 0.000000 -0.080157 -0.007180 0.000000 -0.073839 -0.007637 0.000000 -0.064871 -0.008036 0.000000 -0.057750 -0.008420 0.000000 -0.048008 -0.008744 0.000000 -0.040237 -0.009045 0.000000 -0.029889 -0.009282 0.000000 -0.021640 -0.009490 0.000000 -0.010875 -0.009632 0.000000 -0.002339 -0.009739 0.000000 0.008642 -0.009780 0.000000 0.017261 -0.009781 0.000000 0.028245 -0.009718 0.000000 0.036739 -0.009612 0.000000 0.047510 -0.009445 0.000000 0.055669 -0.009233 0.000000 0.066015 -0.008966 0.000000 0.073640 -0.008652 0.000000 0.083355 -0.008294 0.000000 0.090260 -0.007886 0.000000 0.099157 -0.007446 0.000000 0.105180 -0.006956 0.000000 0.113092 -0.006449 0.000000 0.118096 -0.005889 0.000000 0.124885 -0.005331 0.000000 0.128767 -0.004718 0.000000 0.134326 -0.004126 0.000000 0.137020 -0.003476 0.000000 0.141275 -0.002870 0.000000 0.142751 -0.002202 0.000000 0.145667 -0.001600 0.000000 0.145933 -0.000932 0.000000 0.147508 -0.000351 0.000000 0.146609 0.000301 0.000000 0.146878 0.000843 0.000000 0.144889 0.001463 0.000000 0.143916 0.001952 0.000000 0.140945 0.002527 0.000000 0.138821 0.002952 0.000000 0.134997 0.003470 0.000000 0.131837 0.003822 0.000000 0.127306 0.004275 0.000000 0.123241 0.004548 0.000000 0.118162 0.004930 0.000000 0.113335 0.005122 0.000000 0.107872 0.005429 0.000000 0.102433 0.005539 0.000000 0.096750 0.005771 0.000000 0.090850 0.005803 0.000000 0.085105 0.005962 0.000000 0.078891 0.005919 0.000000 0.073233 0.006009 0.000000 0.066844 0.005899 0.000000 0.061409 0.005925 0.000000 0.054973 0.005756 0.000000 0.049879 0.005725 0.000000 0.043511 0.005507 0.000000 0.038857 0.005427 0.000000 0.032653 0.005170 0.000000 0.028516 0.005051 0.000000 0.022557 0.004767 0.000000 0.018993 0.004618 0.000000 0.013338 0.004318 0.000000 0.010377 0.004149 0.000000 0.005066 0.003846 0.000000 0.002716 0.003666 0.000000 -0.002229 0.003372 0.000000 -0.003985 0.003191 0.000000 -0.008565 0.002917 0.000000 -0.009768 0.002745 0.000000 -0.014000 0.002502 0.000000 -0.014712 0.002347 0.000000 -0.018631 0.002145 0.000000 -0.018935 0.002015 0.000000 -0.022591 0.001864 0.000000 -0.022588 0.001764 0.000000 -0.026043 0.001669 0.000000 -0.025848 0.001604 0.000000 -0.029173 0.001572 0.000000 -0.028911 0.001543 0.000000 -0.032181 0.001575 0.000000 -0.031982 0.001583 0.000000 -0.035271 0.001677 0.000000 -0.035261 0.001720 0.000000 -0.038640 0.001872 0.000000 -0.038936 0.001942 0.000000 -0.042462 0.002144 0.000000 -0.043166 0.002236 0.000000 -0.046883 0.002476 0.000000 -0.048072 0.002578 0.000000 -0.052002 0.002842 0.000000 -0.053725 0.002942 0.000000 -0.057864 0.003212 0.000000 -0.060135 0.003298 0.000000 -0.064455 0.003557 0.000000 -0.067253 0.003614 0.000000 -0.071695 0.003844 0.000000 -0.074961 0.003859 0.000000 -0.079442 0.004042 0.000000 -0.083081 0.004003 0.000000 -0.087493 0.004124 0.000000 -0.091380 0.004022 0.000000 -0.095594 0.004068 0.000000 -0.099578 0.003896 0.000000 -0.103452 0.003858 0.000000 -0.107364 0.003612 0.000000 -0.110749 0.003486 0.000000 -0.114412 0.003166 0.000000 -0.117158 0.002952 0.000000 -0.120393 0.002561 0.000000 -0.122355 0.002261 0.000000 -0.124991 0.001806 0.000000 -0.126039 0.001430 0.000000 -0.127921 0.000918 0.000000 -0.127943 0.000476 0.000000 -0.128938 -0.000079 0.000000 -0.127844 -0.000573 0.000000 -0.127847 -0.001160 0.000000 -0.125574 -0.001691 0.000000 -0.124510 -0.002295 0.000000 -0.121024 -0.002846 0.000000 -0.118853 -0.003450 0.000000 -0.114153 -0.004004 0.000000 -0.110868 -0.004595 0.000000 -0.104981 -0.005134 0.000000 -0.100612 -0.005695 0.000000 -0.093599 -0.006203 0.000000 
-0.088934 -0.013441 0.000000 -0.080823 -0.014368 0.000000 -0.074453 -0.015287 0.000000 -0.065415 -0.016089 0.000000 -0.058234 -0.016862 0.000000 -0.048416 -0.017513 0.000000 -0.040576 -0.018119 0.000000 -0.030147 -0.018597 0.000000 -0.021823 -0.019015 0.000000 -0.010971 -0.019301 0.000000 -0.002357 -0.019517 0.000000 0.008714 -0.019600 0.000000 0.017413 -0.019603 0.000000 0.028488 -0.019477 0.000000 0.037060 -0.019265 0.000000 0.047921 -0.018931 0.000000 0.056156 -0.018505 0.000000 0.066587 -0.017970 0.000000 0.074282 -0.017340 0.000000 0.084077 -0.016621 0.000000 0.091045 -0.015802 0.000000 0.100013 -0.014919 0.000000 0.106088 -0.013935 0.000000 0.114061 -0.012916 0.000000 0.119106 -0.011793 0.000000 0.125944 -0.010671 0.000000 0.129855 -0.009441 0.000000 0.135449 -0.008252 0.000000 0.138157 -0.006949 0.000000 0.142435 -0.005731 0.000000 0.143912 -0.004392 0.000000 0.146836 -0.003182 0.000000 0.147091 -0.001842 0.000000 0.148661 -0.000676 0.000000 0.147738 0.000631 0.000000 0.147989 0.001719 0.000000 0.145968 0.002962 0.000000 0.144966 0.003944 0.000000 0.141954 0.005095 0.000000 0.139792 0.005948 0.000000 0.135920 0.006984 0.000000 0.132714 0.007691 0.000000 0.128132 0.008596 0.000000 0.124014 0.009144 0.000000 0.118882 0.009906 0.000000 0.113999 0.010290 0.000000 0.108483 0.010902 0.000000 0.102984 0.011122 0.000000 0.097250 0.011583 0.000000 0.091289 0.011645 0.000000 0.085496 0.011959 0.000000 0.079222 0.011872 0.000000 0.073520 0.012047 0.000000 0.067073 0.011824 0.000000 0.061599 0.011871 0.000000 0.055108 0.011530 0.000000 0.049981 0.011462 0.000000 0.043561 0.011023 0.000000 0.038880 0.010858 0.000000 0.032629 0.010340 0.000000 0.028473 0.010096 0.000000 0.022470 0.009524 0.000000 0.018893 0.009219 0.000000 0.013198 0.008616 0.000000 0.010232 0.008271 0.000000 0.004887 0.007660 0.000000 0.002539 0.007296 0.000000 -0.002437 0.006702 0.000000 -0.004185 0.006336 0.000000 -0.008791 0.005782 0.000000 -0.009978 0.005435 0.000000 -0.014233 0.004944 0.000000 -0.014924 0.004631 0.000000 -0.018861 0.004223 0.000000 -0.019140 0.003960 0.000000 -0.022811 0.003653 0.000000 -0.022780 0.003452 0.000000 -0.026246 0.003260 0.000000 -0.026022 0.003130 0.000000 -0.029356 0.003063 0.000000 -0.029065 0.003008 0.000000 -0.032342 0.003070 0.000000 -0.032116 0.003090 0.000000 -0.035412 0.003279 0.000000 -0.035379 0.003368 0.000000 -0.038764 0.003675 0.000000 -0.039044 0.003823 0.000000 -0.042579 0.004230 0.000000 -0.043274 0.004421 0.000000 -0.047002 0.004906 0.000000 -0.048191 0.005118 0.000000 -0.052135 0.005652 0.000000 -0.053869 0.005862 0.000000 -0.058026 0.006411 0.000000 -0.060320 0.006591 0.000000 -0.064661 0.007118 0.000000 -0.067492 0.007240 0.000000 -0.071960 0.007708 0.000000 -0.075269 0.007747 0.000000 -0.079779 0.008120 0.000000 -0.083469 0.008051 0.000000 -0.087911 0.008299 0.000000 -0.091855 0.008101 0.000000 -0.096101 0.008198 0.000000 -0.100144 0.007858 0.000000 -0.104050 0.007787 0.000000 -0.108023 0.007298 0.000000 -0.111437 0.007048 0.000000 -0.115158 0.006409 0.000000 -0.117929 0.005980 0.000000 -0.121216 0.005197 0.000000 -0.123199 0.004598 0.000000 -0.125881 0.003684 0.000000 -0.126942 0.002930 0.000000 -0.128862 0.001904 0.000000 -0.128888 0.001017 0.000000 -0.129911 -0.000099 0.000000 -0.128813 -0.001091 0.000000 -0.128832 -0.002270 0.000000 -0.126545 -0.003337 0.000000 -0.125486 -0.004549 0.000000 -0.121978 -0.005657 0.000000 -0.119799 -0.006872 0.000000 -0.115066 -0.007985 0.000000 -0.111762 -0.009171 0.000000 -0.105832 -0.010256 0.000000 -0.101432 -0.011383 0.000000 -0.094367 -0.012405 0.000000 
-0.090172 -0.020263 0.000000 -0.082004 -0.021661 0.000000 -0.075561 -0.023044 0.000000 -0.066448 -0.024254 0.000000 -0.059176 -0.025419 0.000000 -0.049266 -0.026402 0.000000 -0.041321 -0.027314 0.000000 -0.030786 -0.028035 0.000000 -0.022346 -0.028666 0.000000 -0.011378 -0.029098 0.000000 -0.002639 -0.029423 0.000000 0.008554 -0.029550 0.000000 0.017383 -0.029555 0.000000 0.028583 -0.029365 0.000000 0.037284 -0.029045 0.000000 0.048269 -0.028541 0.000000 0.056629 -0.027899 0.000000 0.067178 -0.027093 0.000000 0.074988 -0.026142 0.000000 0.084892 -0.025057 0.000000 0.091960 -0.023822 0.000000 0.101023 -0.022490 0.000000 0.107182 -0.021004 0.000000 0.115233 -0.019467 0.000000 0.120340 -0.017772 0.000000 0.127236 -0.016079 0.000000 0.131186 -0.014222 0.000000 0.136816 -0.012429 0.000000 0.139540 -0.010463 0.000000 0.143832 -0.008625 0.000000 0.145299 -0.006604 0.000000 0.148216 -0.004779 0.000000 0.148438 -0.002757 0.000000 0.149980 -0.000999 0.000000 0.149003 0.000972 0.000000 0.149207 0.002613 0.000000 0.147113 0.004486 0.000000 0.146048 0.005966 0.000000 0.142948 0.007701 0.000000 0.140709 0.008986 0.000000 0.136738 0.010548 0.000000 0.133446 0.011611 0.000000 0.128757 0.012974 0.000000 0.124549 0.013798 0.000000 0.119306 0.014945 0.000000 0.114329 0.015521 0.000000 0.108702 0.016443 0.000000 0.103112 0.016772 0.000000 0.097270 0.017467 0.000000 0.091222 0.017557 0.000000 0.085329 0.018029 0.000000 0.078974 0.017895 0.000000 0.073182 0.018158 0.000000 0.066664 0.017820 0.000000 0.061111 0.017889 0.000000 0.054561 0.017374 0.000000 0.049368 0.017272 0.000000 0.042902 0.016608 0.000000 0.038169 0.016359 0.000000 0.031887 0.015578 0.000000 0.027695 0.015210 0.000000 0.021675 0.014347 0.000000 0.018079 0.013889 0.000000 0.012384 0.012979 0.000000 0.009416 0.012460 0.000000 0.004085 0.011539 0.000000 0.001752 0.010990 0.000000 -0.003194 0.010095 0.000000 -0.004910 0.009545 0.000000 -0.009472 0.008711 0.000000 -0.010612 0.008187 0.000000 -0.014810 0.007447 0.000000 -0.015438 0.006976 0.000000 -0.019308 0.006362 0.000000 -0.019510 0.005965 0.000000 -0.023105 0.005503 0.000000 -0.022986 0.005199 0.000000 -0.026371 0.004912 0.000000 -0.026051 0.004714 0.000000 -0.029301 0.004615 0.000000 -0.028911 0.004530 0.000000 -0.032105 0.004626 0.000000 -0.031780 0.004653 0.000000 -0.034999 0.004940 0.000000 -0.034872 0.005072 0.000000 -0.038192 0.005537 0.000000 -0.038387 0.005757 0.000000 -0.041871 0.006374 0.000000 -0.042497 0.006659 0.000000 -0.046192 0.007394 0.000000 -0.047332 0.007711 0.000000 -0.051264 0.008519 0.000000 -0.052972 0.008833 0.000000 -0.057141 0.009663 0.000000 -0.059434 0.009933 0.000000 -0.063811 0.010730 0.000000 -0.066668 0.010913 0.000000 -0.071194 0.011620 0.000000 -0.074554 0.011677 0.000000 -0.079143 0.012242 0.000000 -0.082908 0.012136 0.000000 -0.087447 0.012510 0.000000 -0.091485 0.012212 0.000000 -0.095841 0.012358 0.000000 -0.099993 0.011845 0.000000 -0.104017 0.011736 0.000000 -0.108107 0.010999 0.000000 -0.111642 0.010621 0.000000 -0.115483 0.009658 0.000000 -0.118373 0.009011 0.000000 -0.121778 0.007831 0.000000 -0.123871 0.006926 0.000000 -0.126662 0.005549 0.000000 -0.127823 0.004411 0.000000 -0.129837 0.002864 0.000000 -0.129948 0.001526 0.000000 -0.131049 -0.000155 0.000000 -0.130017 -0.001653 0.000000 -0.130094 -0.003428 0.000000 -0.127855 -0.005037 0.000000 -0.126831 -0.006862 0.000000 -0.123349 -0.008533 0.000000 -0.121183 -0.010362 0.000000 -0.116454 -0.012042 0.000000 -0.113141 -0.013828 0.000000 -0.107194 -0.015464 0.000000 -0.102762 -0.017160 0.000000 -0.095659 -0.018701 0.000000 
-0.091895 -0.027096 0.000000 -0.083606 -0.028980 0.000000 -0.077048 -0.030843 0.000000 -0.067793 -0.032474 0.000000 -0.060384 -0.034044 0.000000 -0.050313 -0.035369 0.000000 -0.042212 -0.036599 0.000000 -0.031499 -0.037572 0.000000 -0.022888 -0.038423 0.000000 -0.011730 -0.039008 0.000000 -0.002810 -0.039449 0.000000 0.008581 -0.039621 0.000000 0.017595 -0.039632 0.000000 0.028996 -0.039379 0.000000 0.037882 -0.038951 0.000000 0.049065 -0.038275 0.000000 0.057603 -0.037414 0.000000 0.068342 -0.036330 0.000000 0.076317 -0.035054 0.000000 0.086396 -0.033593 0.000000 0.093611 -0.031934 0.000000 0.102830 -0.030141 0.000000 0.109110 -0.028144 0.000000 0.117292 -0.026074 0.000000 0.122493 -0.023796 0.000000 0.129492 -0.021517 0.000000 0.133504 -0.019022 0.000000 0.139207 -0.016607 0.000000 0.141960 -0.013965 0.000000 0.146292 -0.011491 0.000000 0.147757 -0.008776 0.000000 0.150682 -0.006320 0.000000 0.150869 -0.003606 0.000000 0.152389 -0.001241 0.000000 0.151349 0.001404 0.000000 0.151502 0.003609 0.000000 0.149321 0.006121 0.000000 0.148179 0.008110 0.000000 0.144972 0.010433 0.000000 0.142637 0.012158 0.000000 0.138543 0.014248 0.000000 0.135138 0.015672 0.000000 0.130317 0.017494 0.000000 0.125982 0.018595 0.000000 0.120603 0.020125 0.000000 0.115493 0.020893 0.000000 0.109730 0.022119 0.000000 0.104004 0.022554 0.000000 0.098030 0.023473 0.000000 0.091847 0.023587 0.000000 0.085829 0.024207 0.000000 0.079345 0.024019 0.000000 0.073440 0.024357 0.000000 0.066799 0.023895 0.000000 0.061147 0.023974 0.000000 0.054484 0.023273 0.000000 0.049208 0.023122 0.000000 0.042641 0.022221 0.000000 0.037844 0.021873 0.000000 0.031473 0.020815 0.000000 0.027234 0.020307 0.000000 0.021140 0.019139 0.000000 0.017517 0.018510 0.000000 0.011762 0.017279 0.000000 0.008785 0.016570 0.000000 0.003409 0.015324 0.000000 0.001087 0.014575 0.000000 -0.003891 0.013364 0.000000 -0.005577 0.012614 0.000000 -0.010157 0.011485 0.000000 -0.011250 0.010772 0.000000 -0.015452 0.009769 0.000000 -0.016018 0.009129 0.000000 -0.019881 0.008295 0.000000 -0.020007 0.007757 0.000000 -0.023585 0.007129 0.000000 -0.023380 0.006718 0.000000 -0.026741 0.006325 0.000000 -0.026328 0.006060 0.000000 -0.029549 0.005923 0.000000 -0.029064 0.005812 0.000000 -0.032228 0.005939 0.000000 -0.031811 0.005984 0.000000 -0.035002 0.006371 0.000000 -0.034792 0.006561 0.000000 -0.038089 0.007190 0.000000 -0.038216 0.007502 0.000000 -0.041687 0.008340 0.000000 -0.042264 0.008742 0.000000 -0.045959 0.009742 0.000000 -0.047075 0.010191 0.000000 -0.051023 0.011292 0.000000 -0.052735 0.011739 0.000000 -0.056936 0.012873 0.000000 -0.059263 0.013261 0.000000 -0.063690 0.014351 0.000000 -0.066610 0.014624 0.000000 -0.071204 0.015595 0.000000 -0.074656 0.015696 0.000000 -0.079328 0.016474 0.000000 -0.083208 0.016355 0.000000 -0.087843 0.016876 0.000000 -0.092014 0.016495 0.000000 -0.096473 0.016706 0.000000 -0.100772 0.016035 0.000000 -0.104903 0.015900 0.000000 -0.109144 0.014923 0.000000 -0.112784 0.014424 0.000000 -0.116774 0.013139 0.000000 -0.119761 0.012275 0.000000 -0.123306 0.010696 0.000000 -0.125485 0.009482 0.000000 -0.128401 0.007636 0.000000 -0.129631 0.006106 0.000000 -0.131751 0.004029 0.000000 -0.131912 0.002229 0.000000 -0.133093 -0.000030 0.000000 -0.132089 -0.002046 0.000000 -0.132219 -0.004433 0.000000 -0.129983 -0.006600 0.000000 -0.128985 -0.009055 0.000000 -0.125480 -0.011305 0.000000 -0.123310 -0.013766 0.000000 -0.118534 -0.016028 0.000000 -0.115186 -0.018432 0.000000 -0.109167 -0.020635 0.000000 -0.104672 -0.022918 0.000000 -0.097471 -0.024994 0.000000 
-0.094161 -0.034128 0.000000 -0.085753 -0.036508 0.000000 -0.079057 -0.038857 0.000000 -0.069652 -0.040918 0.000000 -0.062073 -0.042899 0.000000 -0.051824 -0.044574 0.000000 -0.043527 -0.046128 0.000000 -0.032613 -0.047359 0.000000 -0.023784 -0.048435 0.000000 -0.012406 -0.049176 0.000000 -0.003254 -0.049735 0.000000 0.008369 -0.049955 0.000000 0.017623 -0.049970 0.000000 0.029261 -0.049653 0.000000 0.038386 -0.049115 0.000000 0.049805 -0.048262 0.000000 0.058572 -0.047176 0.000000 0.069536 -0.045807 0.000000 0.077723 -0.044196 0.000000 0.088009 -0.042350 0.000000 0.095411 -0.040255 0.000000 0.104812 -0.037988 0.000000 0.111246 -0.035466 0.000000 0.119579 -0.032850 0.000000 0.124896 -0.029971 0.000000 0.132009 -0.027090 0.000000 0.136094 -0.023937 0.000000 0.141872 -0.020885 0.000000 0.144654 -0.017548 0.000000 0.149019 -0.014421 0.000000 0.150469 -0.010993 0.000000 0.153385 -0.007891 0.000000 0.153515 -0.004464 0.000000 0.154988 -0.001479 0.000000 0.153852 0.001859 0.000000 0.153923 0.004641 0.000000 0.151612 0.007809 0.000000 0.150358 0.010315 0.000000 0.146993 0.013244 0.000000 0.144521 0.015415 0.000000 0.140250 0.018047 0.000000 0.136690 0.019837 0.000000 0.131677 0.022129 0.000000 0.127177 0.023512 0.000000 0.121600 0.025434 0.000000 0.116318 0.026395 0.000000 0.110358 0.027932 0.000000 0.104461 0.028472 0.000000 0.098297 0.029623 0.000000 0.091950 0.029757 0.000000 0.085754 0.030531 0.000000 0.079117 0.030285 0.000000 0.073050 0.030703 0.000000 0.066273 0.030113 0.000000 0.060480 0.030204 0.000000 0.053699 0.029313 0.000000 0.048306 0.029115 0.000000 0.041643 0.027972 0.000000 0.036754 0.027527 0.000000 0.030311 0.026188 0.000000 0.026008 0.025542 0.000000 0.019868 0.024064 0.000000 0.016209 0.023267 0.000000 0.010433 0.021710 0.000000 0.007450 0.020813 0.000000 0.002080 0.019238 0.000000 -0.000220 0.018290 0.000000 -0.005167 0.016759 0.000000 -0.006801 0.015811 0.000000 -0.011326 0.014383 0.000000 -0.012339 0.013482 0.000000 -0.016465 0.012215 0.000000 -0.016924 0.011404 0.000000 -0.020692 0.010351 0.000000 -0.020689 0.009669 0.000000 -0.024156 0.008876 0.000000 -0.023802 0.008355 0.000000 -0.027042 0.007860 0.000000 -0.026467 0.007522 0.000000 -0.029562 0.007350 0.000000 -0.028907 0.007209 0.000000 -0.031947 0.007372 0.000000 -0.031361 0.007427 0.000000 -0.034436 0.007921 0.000000 -0.034067 0.008159 0.000000 -0.037264 0.008961 0.000000 -0.037250 0.009354 0.000000 -0.040644 0.010423 0.000000 -0.041108 0.010931 0.000000 -0.044756 0.012205 0.000000 -0.045794 0.012775 0.000000 -0.049729 0.014179 0.000000 -0.051405 0.014746 0.000000 -0.055632 0.016191 0.000000 -0.057968 0.016687 0.000000 -0.062460 0.018077 0.000000 -0.065436 0.018428 0.000000 -0.070133 0.019666 0.000000 -0.073685 0.019801 0.000000 -0.078495 0.020794 0.000000 -0.082517 0.020650 0.000000 -0.087317 0.021316 0.000000 -0.091664 0.020843 0.000000 -0.096310 0.021116 0.000000 -0.100808 0.020275 0.000000 -0.105137 0.020108 0.000000 -0.109592 0.018880 0.000000 -0.113434 0.018251 0.000000 -0.117640 0.016635 0.000000 -0.120823 0.015543 0.000000 -0.124577 0.013555 0.000000 -0.126938 0.012021 0.000000 -0.130044 0.009695 0.000000 -0.131435 0.007760 0.000000 -0.133720 0.005145 0.000000 -0.134013 0.002868 0.000000 -0.135329 0.000022 0.000000 -0.134424 -0.002526 0.000000 -0.134653 -0.005533 0.000000 -0.132481 -0.008272 0.000000 -0.131540 -0.011365 0.000000 -0.128063 -0.014207 0.000000 -0.125910 -0.017309 0.000000 -0.121123 -0.020166 0.000000 -0.117751 -0.023195 0.000000 -0.111684 -0.025978 0.000000 -0.107125 -0.028856 0.000000 -0.099840 -0.031478 0.000000 
-0.096928 -0.041183 0.000000 -0.088338 -0.044084 0.000000 -0.081462 -0.046944 0.000000 -0.071838 -0.049457 0.000000 -0.064043 -0.051871 0.000000 -0.053545 -0.053915 0.000000 -0.044999 -0.055810 0.000000 -0.033809 -0.057315 0.000000 -0.024708 -0.058629 0.000000 -0.013033 -0.059538 0.000000 -0.003591 -0.060224 0.000000 0.008343 -0.060498 0.000000 0.017894 -0.060524 0.000000 0.029849 -0.060143 0.000000 0.039271 -0.059495 0.000000 0.051002 -0.058460 0.000000 0.060055 -0.057145 0.000000 0.071319 -0.055481 0.000000 0.079771 -0.053527 0.000000 0.090335 -0.051281 0.000000 0.097970 -0.048736 0.000000 0.107617 -0.045976 0.000000 0.114246 -0.042911 0.000000 0.122785 -0.039724 0.000000 0.128250 -0.036226 0.000000 0.135524 -0.032716 0.000000 0.139707 -0.028885 0.000000 0.145595 -0.025166 0.000000 0.148422 -0.021112 0.000000 0.152845 -0.017305 0.000000 0.154285 -0.013142 0.000000 0.157209 -0.009367 0.000000 0.157279 -0.005208 0.000000 0.158709 -0.001578 0.000000 0.157467 0.002468 0.000000 0.157450 0.005849 0.000000 0.154993 0.009686 0.000000 0.153612 0.012728 0.000000 0.150069 0.016270 0.000000 0.147437 0.018901 0.000000 0.142963 0.022079 0.000000 0.139217 0.024245 0.000000 0.133987 0.027007 0.000000 0.129283 0.028673 0.000000 0.123481 0.030983 0.000000 0.117986 0.032135 0.000000 0.111801 0.033976 0.000000 0.105688 0.034615 0.000000 0.099307 0.035984 0.000000 0.092747 0.036129 0.000000 0.086349 0.037040 0.000000 0.079508 0.036723 0.000000 0.073257 0.037201 0.000000 0.066290 0.036466 0.000000 0.060336 0.036548 0.000000 0.053383 0.035447 0.000000 0.047856 0.035178 0.000000 0.041041 0.033773 0.000000 0.036047 0.033204 0.000000 0.029475 0.031561 0.000000 0.025097 0.030750 0.000000 0.018852 0.028938 0.000000 0.015149 0.027945 0.000000 0.009293 0.026038 0.000000 0.006299 0.024924 0.000000 0.000873 0.022995 0.000000 -0.001407 0.021822 0.000000 -0.006385 0.019945 0.000000 -0.007968 0.018774 0.000000 -0.012501 0.017022 0.000000 -0.013433 0.015911 0.000000 -0.017545 0.014355 0.000000 -0.017897 0.013356 0.000000 -0.021631 0.012060 0.000000 -0.021498 0.011221 0.000000 -0.024915 0.010243 0.000000 -0.024413 0.009604 0.000000 -0.027590 0.008990 0.000000 -0.026854 0.008580 0.000000 -0.029879 0.008363 0.000000 -0.029059 0.008198 0.000000 -0.032027 0.008393 0.000000 -0.031279 0.008474 0.000000 -0.034287 0.009077 0.000000 -0.033769 0.009388 0.000000 -0.036911 0.010374 0.000000 -0.036772 0.010882 0.000000 -0.040127 0.012198 0.000000 -0.040499 0.012854 0.000000 -0.044132 0.014428 0.000000 -0.045118 0.015164 0.000000 -0.049068 0.016903 0.000000 -0.050738 0.017641 0.000000 -0.055011 0.019435 0.000000 -0.057392 0.020089 0.000000 -0.061964 0.021820 0.000000 -0.065036 0.022297 0.000000 -0.069846 0.023844 0.000000 -0.073541 0.024058 0.000000 -0.078492 0.025305 0.000000 -0.082698 0.025177 0.000000 -0.087663 0.026023 0.000000 -0.092227 0.025487 0.000000 -0.097053 0.025850 0.000000 -0.101791 0.024862 0.000000 -0.106307 0.024684 0.000000 -0.111011 0.023219 0.000000 -0.115039 0.022472 0.000000 -0.119492 0.020529 0.000000 -0.122850 0.019211 0.000000 -0.126837 0.016810 0.000000 -0.129353 0.014950 0.000000 -0.132669 0.012133 0.000000 -0.134189 0.009782 0.000000 -0.136650 0.006608 0.000000 -0.137041 0.003837 0.000000 -0.138493 0.000381 0.000000 -0.137650 -0.002722 0.000000 -0.137971 -0.006376 0.000000 -0.135820 -0.009712 0.000000 -0.134926 -0.013473 0.000000 -0.131429 -0.016935 0.000000 -0.129273 -0.020706 0.000000 -0.124425 -0.024187 0.000000 -0.121003 -0.027871 0.000000 -0.114832 -0.031262 0.000000 -0.110176 -0.034763 0.000000 -0.102747 -0.037958 0.000000 
-0.100290 -0.048537 0.000000 -0.091518 -0.051975 0.000000 -0.084435 -0.055357 0.000000 -0.074583 -0.058337 0.000000 -0.066535 -0.061193 0.000000 -0.055767 -0.063618 0.000000 -0.046930 -0.065864 0.000000 -0.035435 -0.067650 0.000000 -0.026011 -0.069211 0.000000 -0.014004 -0.070292 0.000000 -0.004217 -0.071110 0.000000 0.008066 -0.071440 0.000000 0.017975 -0.071476 0.000000 0.030287 -0.071030 0.000000 0.040066 -0.070268 0.000000 0.052151 -0.069046 0.000000 0.061548 -0.067493 0.000000 0.073151 -0.065523 0.000000 0.081921 -0.063212 0.000000 0.092797 -0.060549 0.000000 0.100713 -0.057538 0.000000 0.110635 -0.054264 0.000000 0.117495 -0.050634 0.000000 0.126262 -0.046854 0.000000 0.131902 -0.042710 0.000000 0.139347 -0.038547 0.000000 0.143642 -0.034009 0.000000 0.149642 -0.029599 0.000000 0.152513 -0.024798 0.000000 0.156987 -0.020285 0.000000 0.158405 -0.015357 0.000000 0.161317 -0.010884 0.000000 0.161302 -0.005964 0.000000 0.162663 -0.001667 0.000000 0.161277 0.003117 0.000000 0.161138 0.007115 0.000000 0.158488 0.011647 0.000000 0.156940 0.015239 0.000000 0.153163 0.019419 0.000000 0.150327 0.022520 0.000000 0.145590 0.026266 0.000000 0.141613 0.028814 0.000000 0.136101 0.032064 0.000000 0.131148 0.034018 0.000000 0.125055 0.036731 0.000000 0.119304 0.038074 0.000000 0.112830 0.040230 0.000000 0.106462 0.040966 0.000000 0.099803 0.042564 0.000000 0.092996 0.042715 0.000000 0.086338 0.043771 0.000000 0.079267 0.043377 0.000000 0.072781 0.043921 0.000000 0.065607 0.043034 0.000000 0.059448 0.043111 0.000000 0.052315 0.041793 0.000000 0.046617 0.041457 0.000000 0.039654 0.039781 0.000000 0.034527 0.039094 0.000000 0.027841 0.037138 0.000000 0.023369 0.036165 0.000000 0.017047 0.034012 0.000000 0.013292 0.032826 0.000000 0.007395 0.030560 0.000000 0.004390 0.029233 0.000000 -0.001040 0.026943 0.000000 -0.003287 0.025548 0.000000 -0.008233 0.023320 0.000000 -0.009742 0.021927 0.000000 -0.014208 0.019848 0.000000 -0.015025 0.018526 0.000000 -0.019038 0.016679 0.000000 -0.019238 0.015490 0.000000 -0.022845 0.013952 0.000000 -0.022525 0.012953 0.000000 -0.025793 0.011792 0.000000 -0.025075 0.011030 0.000000 -0.028086 0.010301 0.000000 -0.027114 0.009811 0.000000 -0.029965 0.009555 0.000000 -0.028898 0.009356 0.000000 -0.031692 0.009593 0.000000 -0.030697 0.009687 0.000000 -0.033543 0.010412 0.000000 -0.032792 0.010782 0.000000 -0.035792 0.011963 0.000000 -0.035447 0.012571 0.000000 -0.038694 0.014150 0.000000 -0.038900 0.014936 0.000000 -0.042466 0.016825 0.000000 -0.043340 0.017710 0.000000 -0.047272 0.019798 0.000000 -0.048892 0.020690 0.000000 -0.053204 0.022846 0.000000 -0.055603 0.023640 0.000000 -0.060270 0.025721 0.000000 -0.063430 0.026309 0.000000 -0.068390 0.028171 0.000000 -0.072241 0.028447 0.000000 -0.077392 0.029951 0.000000 -0.081815 0.029822 0.000000 -0.087022 0.030845 0.000000 -0.091852 0.030233 0.000000 -0.096949 0.030679 0.000000 -0.101987 0.029529 0.000000 -0.106793 0.029329 0.000000 -0.111817 0.027612 0.000000 -0.116137 0.026732 0.000000 -0.120912 0.024446 0.000000 -0.124552 0.022887 0.000000 -0.128849 0.020058 0.000000 -0.131625 0.017853 0.000000 -0.135223 0.014531 0.000000 -0.136969 0.011742 0.000000 -0.139674 0.007997 0.000000 -0.140249 0.004710 0.000000 -0.141895 0.000630 0.000000 -0.141189 -0.003048 0.000000 -0.141649 -0.007363 0.000000 -0.139584 -0.011316 0.000000 -0.138770 -0.015757 0.000000 -0.135303 -0.019860 0.000000 -0.133167 -0.024313 0.000000 -0.128294 -0.028436 0.000000 -0.124831 -0.032788 0.000000 -0.118581 -0.036804 0.000000 -0.113826 -0.040940 0.000000 -0.106264 -0.044726 0.000000 