# vtk DataFile Version 2.0
Comment goes here
ASCII

DATASET STRUCTURED_POINTS
FIELD FieldData 1
TIME 1 1 double
0.12000000
DIMENSIONS    128   128   1

ORIGIN    0.000   0.000   0.000
SPACING   0.039062 0.039062   1.000

POINT_DATA   16384
VECTORS u double

-0.315886 -0.000000 0.000000 -0.269597 0.000000 0.000000 -0.223223 0.000000 0.000000 -0.176687 0.000000 0.000000 -0.130082 0.000000 0.000000 -0.083760 0.000000 0.000000 -0.037358 0.000000 0.000000 0.008327 0.000000 0.000000 0.054129 0.000000 0.000000 0.098791 0.000000 0.000000 0.143626 0.000000 0.000000 0.186916 0.000000 0.000000 0.230447 0.000000 0.000000 0.272048 0.000000 0.000000 0.313969 0.000000 0.000000 0.353592 0.000000 0.000000 0.393622 0.000000 0.000000 0.431007 0.000000 0.000000 0.468885 0.000000 0.000000 0.503798 0.000000 0.000000 0.539285 0.000000 0.000000 0.571516 0.000000 0.000000 0.604393 0.000000 0.000000 0.633753 0.000000 0.000000 0.663819 0.000000 0.000000 0.690141 0.000000 0.000000 0.717213 0.000000 0.000000 0.740351 0.000000 0.000000 0.764264 0.000000 0.000000 0.784091 0.000000 0.000000 0.804698 0.000000 0.000000 0.821109 0.000000 0.000000 0.838279 0.000000 0.000000 0.851185 0.000000 0.000000 0.864806 0.000000 0.000000 0.874138 0.000000 0.000000 0.884115 0.000000 0.000000 0.889820 0.000000 0.000000 0.896077 0.000000 0.000000 0.898121 0.000000 0.000000 0.900599 0.000000 0.000000 0.898966 0.000000 0.000000 0.897628 0.000000 0.000000 0.892317 0.000000 0.000000 0.887144 0.000000 0.000000 0.878176 0.000000 0.000000 0.869171 0.000000 0.000000 0.856583 0.000000 0.000000 0.843773 0.000000 0.000000 0.827624 0.000000 0.000000 0.811058 0.000000 0.000000 0.791428 0.000000 0.000000 0.771181 0.000000 0.000000 0.748172 0.000000 0.000000 0.724347 0.000000 0.000000 0.698085 0.000000 0.000000 0.670812 0.000000 0.000000 0.641447 0.000000 0.000000 0.610884 0.000000 0.000000 0.578591 0.000000 0.000000 0.544928 0.000000 0.000000 0.509907 0.000000 0.000000 0.473363 0.000000 0.000000 0.435842 0.000000 0.000000 0.396667 0.000000 0.000000 0.356899 0.000000 0.000000 0.315376 0.000000 0.000000 0.273641 0.000000 0.000000 0.230081 0.000000 0.000000 0.186690 0.000000 0.000000 0.141438 0.000000 0.000000 0.096725 0.000000 0.000000 0.050157 0.000000 0.000000 0.004488 0.000000 0.000000 -0.042990 0.000000 0.000000 -0.089221 0.000000 0.000000 -0.137173 0.000000 0.000000 -0.183543 0.000000 0.000000 -0.231502 0.000000 0.000000 -0.277561 0.000000 0.000000 -0.325035 0.000000 0.000000 -0.370303 0.000000 0.000000 -0.416773 0.000000 0.000000 -0.460747 0.000000 0.000000 -0.505675 0.000000 0.000000 -0.547828 0.000000 0.000000 -0.590661 0.000000 0.000000 -0.630453 0.000000 0.000000 -0.670630 0.000000 0.000000 -0.707511 0.000000 0.000000 -0.744473 0.000000 0.000000 -0.777897 0.000000 0.000000 -0.811100 0.000000 0.000000 -0.840540 0.000000 0.000000 -0.869466 0.000000 0.000000 -0.894425 0.000000 0.000000 -0.918604 0.000000 0.000000 -0.938634 0.000000 0.000000 -0.957654 0.000000 0.000000 -0.972377 0.000000 0.000000 -0.985903 0.000000 0.000000 -0.995025 0.000000 0.000000 -1.002815 0.000000 0.000000 -1.006141 0.000000 0.000000 -1.008054 0.000000 0.000000 -1.005500 0.000000 0.000000 -1.001508 0.000000 0.000000 -0.993105 0.000000 0.000000 -0.983293 0.000000 0.000000 -0.969188 -0.000000 0.000000 -0.953751 -0.000000 0.000000 -0.934203 -0.000000 0.000000 -0.913437 -0.000000 0.000000 -0.888803 -0.000000 0.000000 -0.863094 -0.000000 0.000000 -0.833815 -0.000000 0.000000 -0.803623 -0.000000 0.000000 -0.770205 -0.000000 0.000000 -0.736042 -0.000000 0.000000 -0.699039 -0.000000 0.000000 -0.661453 -0.000000 0.000000 -0.621444 -0.000000 0.000000 -0.581001 -0.000000 0.000000 -0.538572 -0.000000 0.000000 -0.495839 -0.000000 0.000000 -0.451572 -0.000000 0.000000 -0.407103 -0.000000 0.000000 -0.361559 -0.000000 0.000000 
-0.314820 -0.045981 0.000000 -0.268554 -0.046331 0.000000 -0.222195 -0.046455 0.000000 -0.175687 -0.046571 0.000000 -0.129103 -0.046463 0.000000 -0.082812 -0.046362 0.000000 -0.036437 -0.046044 0.000000 0.009214 -0.045743 0.000000 0.054983 -0.045232 0.000000 0.099611 -0.044748 0.000000 0.144408 -0.044062 0.000000 0.187663 -0.043411 0.000000 0.231154 -0.042566 0.000000 0.272721 -0.041761 0.000000 0.314599 -0.040772 0.000000 0.354189 -0.039826 0.000000 0.394174 -0.038707 0.000000 0.431528 -0.037632 0.000000 0.469358 -0.036396 0.000000 0.504243 -0.035200 0.000000 0.539681 -0.033859 0.000000 0.571885 -0.032554 0.000000 0.604711 -0.031118 0.000000 0.634046 -0.029713 0.000000 0.664061 -0.028194 0.000000 0.690359 -0.026697 0.000000 0.717379 -0.025105 0.000000 0.740496 -0.023526 0.000000 0.764356 -0.021870 0.000000 0.784165 -0.020217 0.000000 0.804717 -0.018509 0.000000 0.821111 -0.016790 0.000000 0.838227 -0.015038 0.000000 0.851119 -0.013263 0.000000 0.864685 -0.011476 0.000000 0.874006 -0.009654 0.000000 0.883929 -0.007841 0.000000 0.889626 -0.005981 0.000000 0.895829 -0.004151 0.000000 0.897869 -0.002261 0.000000 0.900295 -0.000422 0.000000 0.898661 0.001486 0.000000 0.897271 0.003324 0.000000 0.891964 0.005242 0.000000 0.886741 0.007071 0.000000 0.877779 0.008987 0.000000 0.868726 0.010796 0.000000 0.856149 0.012699 0.000000 0.843291 0.014480 0.000000 0.827156 0.016358 0.000000 0.810544 0.018098 0.000000 0.790930 0.019938 0.000000 0.770640 0.021628 0.000000 0.747648 0.023417 0.000000 0.723780 0.025043 0.000000 0.697536 0.026768 0.000000 0.670222 0.028319 0.000000 0.640874 0.029964 0.000000 0.610271 0.031428 0.000000 0.577993 0.032978 0.000000 0.544292 0.034342 0.000000 0.509285 0.035782 0.000000 0.472704 0.037033 0.000000 0.435193 0.038348 0.000000 0.395984 0.039471 0.000000 0.356222 0.040646 0.000000 0.314666 0.041629 0.000000 0.272936 0.042647 0.000000 0.229347 0.043476 0.000000 0.185955 0.044322 0.000000 0.140678 0.044982 0.000000 0.095962 0.045641 0.000000 0.049374 0.046119 0.000000 0.003699 0.046574 0.000000 -0.043793 0.046855 0.000000 -0.090032 0.047091 0.000000 -0.137989 0.047161 0.000000 -0.184369 0.047165 0.000000 -0.232326 0.047009 0.000000 -0.278394 0.046766 0.000000 -0.325855 0.046371 0.000000 -0.371132 0.045869 0.000000 -0.417579 0.045222 0.000000 -0.461560 0.044451 0.000000 -0.506455 0.043541 0.000000 -0.548612 0.042493 0.000000 -0.591400 0.041312 0.000000 -0.631192 0.039984 0.000000 -0.671314 0.038529 0.000000 -0.708191 0.036921 0.000000 -0.745087 0.035193 0.000000 -0.778503 0.033314 0.000000 -0.811630 0.031321 0.000000 -0.841056 0.029183 0.000000 -0.869898 0.026943 0.000000 -0.894837 0.024569 0.000000 -0.918925 0.022105 0.000000 -0.938930 0.019525 0.000000 -0.957853 0.016872 0.000000 -0.972547 0.014125 0.000000 -0.985971 0.011324 0.000000 -0.995060 0.008456 0.000000 -1.002746 0.005558 0.000000 -1.006035 0.002620 0.000000 -1.007844 -0.000321 0.000000 -1.005252 -0.003273 0.000000 -1.001158 -0.006198 0.000000 -0.992716 -0.009108 0.000000 -0.982806 -0.011958 0.000000 -0.968663 -0.014771 0.000000 -0.953134 -0.017493 0.000000 -0.933550 -0.020157 0.000000 -0.912701 -0.022700 0.000000 -0.888035 -0.025171 0.000000 -0.862253 -0.027494 0.000000 -0.832948 -0.029736 0.000000 -0.802693 -0.031805 0.000000 -0.769256 -0.033790 0.000000 -0.735042 -0.035583 0.000000 -0.698027 -0.037294 0.000000 -0.660402 -0.038798 0.000000 -0.620388 -0.040226 0.000000 -0.579918 -0.041436 0.000000 -0.537493 -0.042581 0.000000 -0.494744 -0.043500 0.000000 -0.450488 -0.044368 0.000000 -0.406015 -0.045007 0.000000 -0.360488 -0.045609 0.000000 
-0.316609 -0.091934 0.000000 -0.270071 -0.092626 0.000000 -0.223463 -0.092868 0.000000 -0.176696 -0.093092 0.000000 -0.129874 -0.092874 0.000000 -0.083341 -0.092666 0.000000 -0.036739 -0.092027 0.000000 0.009139 -0.091420 0.000000 0.055123 -0.090397 0.000000 0.099961 -0.089425 0.000000 0.144963 -0.088053 0.000000 0.188411 -0.086747 0.000000 0.232097 -0.085057 0.000000 0.273841 -0.083445 0.000000 0.315904 -0.081469 0.000000 0.355657 -0.079574 0.000000 0.395816 -0.077339 0.000000 0.433319 -0.075185 0.000000 0.471316 -0.072715 0.000000 0.506334 -0.070323 0.000000 0.541931 -0.067642 0.000000 0.574256 -0.065030 0.000000 0.607233 -0.062161 0.000000 0.636677 -0.059349 0.000000 0.666834 -0.056313 0.000000 0.693229 -0.053318 0.000000 0.720384 -0.050137 0.000000 0.743585 -0.046977 0.000000 0.767572 -0.043669 0.000000 0.787453 -0.040361 0.000000 0.808124 -0.036947 0.000000 0.824579 -0.033510 0.000000 0.841805 -0.030008 0.000000 0.854746 -0.026458 0.000000 0.868414 -0.022887 0.000000 0.877772 -0.019243 0.000000 0.887787 -0.015620 0.000000 0.893510 -0.011901 0.000000 0.899795 -0.008243 0.000000 0.901848 -0.004466 0.000000 0.904346 -0.000792 0.000000 0.902712 0.003024 0.000000 0.901383 0.006697 0.000000 0.896063 0.010530 0.000000 0.890888 0.014185 0.000000 0.881900 0.018015 0.000000 0.872882 0.021631 0.000000 0.860265 0.025435 0.000000 0.847429 0.028993 0.000000 0.831241 0.032747 0.000000 0.814636 0.036226 0.000000 0.794955 0.039905 0.000000 0.774657 0.043282 0.000000 0.751586 0.046859 0.000000 0.727696 0.050112 0.000000 0.701359 0.053559 0.000000 0.674006 0.056663 0.000000 0.644553 0.059950 0.000000 0.613896 0.062880 0.000000 0.581502 0.065979 0.000000 0.547730 0.068709 0.000000 0.512595 0.071588 0.000000 0.475926 0.074092 0.000000 0.438278 0.076720 0.000000 0.398963 0.078971 0.000000 0.359054 0.081317 0.000000 0.317374 0.083287 0.000000 0.275485 0.085320 0.000000 0.231753 0.086981 0.000000 0.188193 0.088669 0.000000 0.142754 0.089993 0.000000 0.097859 0.091304 0.000000 0.051087 0.092263 0.000000 0.005221 0.093167 0.000000 -0.042475 0.093731 0.000000 -0.088918 0.094197 0.000000 -0.137102 0.094337 0.000000 -0.183698 0.094336 0.000000 -0.231904 0.094025 0.000000 -0.278202 0.093529 0.000000 -0.325935 0.092738 0.000000 -0.371455 0.091724 0.000000 -0.418194 0.090428 0.000000 -0.462431 0.088875 0.000000 -0.507636 0.087052 0.000000 -0.550060 0.084946 0.000000 -0.593173 0.082581 0.000000 -0.633239 0.079913 0.000000 -0.673695 0.076999 0.000000 -0.710849 0.073773 0.000000 -0.748083 0.070312 0.000000 -0.781773 0.066543 0.000000 -0.815233 0.062553 0.000000 -0.844921 0.058268 0.000000 -0.874084 0.053782 0.000000 -0.899265 0.049026 0.000000 -0.923650 0.044093 0.000000 -0.943870 0.038928 0.000000 -0.963057 0.033616 0.000000 -0.977927 0.028118 0.000000 -0.991575 0.022513 0.000000 -1.000794 0.016774 0.000000 -1.008653 0.010975 0.000000 -1.012022 0.005099 0.000000 -1.013949 -0.000784 0.000000 -1.011379 -0.006686 0.000000 -1.007345 -0.012536 0.000000 -0.998868 -0.018352 0.000000 -0.988958 -0.024053 0.000000 -0.974724 -0.029672 0.000000 -0.959138 -0.035113 0.000000 -0.939411 -0.040433 0.000000 -0.918452 -0.045515 0.000000 -0.893597 -0.050448 0.000000 -0.867660 -0.055087 0.000000 -0.838127 -0.059560 0.000000 -0.807678 -0.063692 0.000000 -0.773984 -0.067651 0.000000 -0.739547 -0.071229 0.000000 -0.702255 -0.074640 0.000000 -0.664386 -0.077639 0.000000 -0.624083 -0.080484 0.000000 -0.583356 -0.082895 0.000000 -0.540638 -0.085174 0.000000 -0.497627 -0.087005 0.000000 -0.453079 -0.088730 0.000000 -0.408344 -0.090001 0.000000 -0.362533 -0.091194 0.000000 
-0.316253 -0.138443 0.000000 -0.269489 -0.139478 0.000000 -0.222662 -0.139829 0.000000 -0.175694 -0.140159 0.000000 -0.128678 -0.139819 0.000000 -0.081966 -0.139498 0.000000 -0.035193 -0.138524 0.000000 0.010843 -0.137605 0.000000 0.056976 -0.136054 0.000000 0.101954 -0.134588 0.000000 0.147085 -0.132513 0.000000 0.190658 -0.130545 0.000000 0.234455 -0.127995 0.000000 0.276309 -0.125568 0.000000 0.318469 -0.122588 0.000000 0.358319 -0.119738 0.000000 0.398562 -0.116369 0.000000 0.436151 -0.113131 0.000000 0.474220 -0.109412 0.000000 0.509315 -0.105816 0.000000 0.544972 -0.101780 0.000000 0.577364 -0.097856 0.000000 0.610391 -0.093539 0.000000 0.639893 -0.089313 0.000000 0.670090 -0.084746 0.000000 0.696535 -0.080247 0.000000 0.723720 -0.075461 0.000000 0.746963 -0.070713 0.000000 0.770970 -0.065739 0.000000 0.790885 -0.060770 0.000000 0.811568 -0.055635 0.000000 0.828050 -0.050471 0.000000 0.845277 -0.045205 0.000000 0.858239 -0.039873 0.000000 0.871899 -0.034502 0.000000 0.881272 -0.029027 0.000000 0.891270 -0.023579 0.000000 0.897002 -0.017989 0.000000 0.903263 -0.012489 0.000000 0.905319 -0.006812 0.000000 0.907783 -0.001286 0.000000 0.906148 0.004449 0.000000 0.904776 0.009974 0.000000 0.899449 0.015737 0.000000 0.894223 0.021233 0.000000 0.885223 0.026992 0.000000 0.876144 0.032431 0.000000 0.863508 0.038152 0.000000 0.850600 0.043504 0.000000 0.834386 0.049151 0.000000 0.817698 0.054383 0.000000 0.797983 0.059917 0.000000 0.777590 0.064997 0.000000 0.754473 0.070379 0.000000 0.730475 0.075271 0.000000 0.704082 0.080457 0.000000 0.676608 0.085125 0.000000 0.647086 0.090074 0.000000 0.616294 0.094479 0.000000 0.583817 0.099145 0.000000 0.549896 0.103249 0.000000 0.514662 0.107586 0.000000 0.477830 0.111350 0.000000 0.440066 0.115312 0.000000 0.400575 0.118695 0.000000 0.360533 0.122235 0.000000 0.318663 0.125197 0.000000 0.276624 0.128268 0.000000 0.232690 0.130768 0.000000 0.188961 0.133321 0.000000 0.143307 0.135317 0.000000 0.098226 0.137307 0.000000 0.051230 0.138756 0.000000 0.005161 0.140136 0.000000 -0.042769 0.140994 0.000000 -0.089431 0.141718 0.000000 -0.137856 0.141942 0.000000 -0.184688 0.141967 0.000000 -0.233139 0.141513 0.000000 -0.279687 0.140797 0.000000 -0.327667 0.139624 0.000000 -0.373448 0.138129 0.000000 -0.420435 0.136198 0.000000 -0.464942 0.133892 0.000000 -0.510390 0.131170 0.000000 -0.553090 0.128031 0.000000 -0.596439 0.124492 0.000000 -0.636780 0.120506 0.000000 -0.677460 0.116139 0.000000 -0.714883 0.111309 0.000000 -0.752323 0.106117 0.000000 -0.786268 0.100463 0.000000 -0.819910 0.094469 0.000000 -0.849832 0.088034 0.000000 -0.879146 0.081287 0.000000 -0.904531 0.074135 0.000000 -0.929028 0.066709 0.000000 -0.949412 0.058932 0.000000 -0.968667 0.050929 0.000000 -0.983654 0.042642 0.000000 -0.997320 0.034191 0.000000 -1.006602 0.025534 0.000000 -1.014425 0.016785 0.000000 -1.017798 0.007916 0.000000 -1.019634 -0.000963 0.000000 -1.017008 -0.009877 0.000000 -1.012827 -0.018709 0.000000 -1.004236 -0.027495 0.000000 -0.994129 -0.036102 0.000000 -0.979726 -0.044591 0.000000 -0.963898 -0.052806 0.000000 -0.943955 -0.060843 0.000000 -0.922718 -0.068514 0.000000 -0.897610 -0.075964 0.000000 -0.871368 -0.082964 0.000000 -0.841554 -0.089717 0.000000 -0.810786 -0.095947 0.000000 -0.776795 -0.101921 0.000000 -0.742032 -0.107313 0.000000 -0.704438 -0.112456 0.000000 -0.666247 -0.116970 0.000000 -0.625646 -0.121256 0.000000 -0.584610 -0.124881 0.000000 -0.541604 -0.128310 0.000000 -0.498302 -0.131058 0.000000 -0.453485 -0.133651 0.000000 -0.408480 -0.135553 0.000000 -0.362422 -0.137343 0.000000 
-0.318745 -0.184866 0.000000 -0.271458 -0.186216 0.000000 -0.224145 -0.186663 0.000000 -0.176687 -0.187076 0.000000 -0.129214 -0.186603 0.000000 -0.082048 -0.186151 0.000000 -0.034848 -0.184835 0.000000 0.011607 -0.183589 0.000000 0.058139 -0.181507 0.000000 0.103501 -0.179534 0.000000 0.149004 -0.176756 0.000000 0.192928 -0.174117 0.000000 0.237073 -0.170709 0.000000 0.279247 -0.167458 0.000000 0.321732 -0.163479 0.000000 0.361873 -0.159667 0.000000 0.402421 -0.155171 0.000000 0.440275 -0.150843 0.000000 0.478629 -0.145879 0.000000 0.513964 -0.141075 0.000000 0.549889 -0.135691 0.000000 0.582496 -0.130450 0.000000 0.615774 -0.124690 0.000000 0.645467 -0.119048 0.000000 0.675899 -0.112956 0.000000 0.702513 -0.106948 0.000000 0.729915 -0.100564 0.000000 0.753305 -0.094227 0.000000 0.777514 -0.087591 0.000000 0.797554 -0.080959 0.000000 0.818421 -0.074111 0.000000 0.835008 -0.067219 0.000000 0.852403 -0.060197 0.000000 0.865448 -0.053081 0.000000 0.879258 -0.045920 0.000000 0.888694 -0.038615 0.000000 0.898824 -0.031350 0.000000 0.904598 -0.023893 0.000000 0.910971 -0.016560 0.000000 0.913049 -0.008987 0.000000 0.915605 -0.001620 0.000000 0.913969 0.006031 0.000000 0.912668 0.013395 0.000000 0.907319 0.021084 0.000000 0.902140 0.028411 0.000000 0.893095 0.036094 0.000000 0.884038 0.043346 0.000000 0.871333 0.050978 0.000000 0.858423 0.058115 0.000000 0.842115 0.065649 0.000000 0.825398 0.072629 0.000000 0.805564 0.080014 0.000000 0.785113 0.086791 0.000000 0.761853 0.093973 0.000000 0.737768 0.100503 0.000000 0.711206 0.107426 0.000000 0.683614 0.113659 0.000000 0.653899 0.120264 0.000000 0.622959 0.126149 0.000000 0.590264 0.132378 0.000000 0.556163 0.137864 0.000000 0.520688 0.143654 0.000000 0.483643 0.148687 0.000000 0.445615 0.153976 0.000000 0.405877 0.158504 0.000000 0.365547 0.163229 0.000000 0.323398 0.167196 0.000000 0.281047 0.171293 0.000000 0.236798 0.174644 0.000000 0.192734 0.178051 0.000000 0.146731 0.180728 0.000000 0.101288 0.183381 0.000000 0.053906 0.185328 0.000000 0.007450 0.187166 0.000000 -0.040902 0.188323 0.000000 -0.087979 0.189284 0.000000 -0.136863 0.189594 0.000000 -0.184137 0.189619 0.000000 -0.233084 0.189023 0.000000 -0.280101 0.188057 0.000000 -0.328612 0.186500 0.000000 -0.374891 0.184493 0.000000 -0.422441 0.181921 0.000000 -0.467468 0.178831 0.000000 -0.513507 0.175200 0.000000 -0.556747 0.170995 0.000000 -0.600707 0.166271 0.000000 -0.641602 0.160935 0.000000 -0.682902 0.155101 0.000000 -0.720881 0.148636 0.000000 -0.758939 0.141697 0.000000 -0.793429 0.134130 0.000000 -0.827672 0.126117 0.000000 -0.858112 0.117504 0.000000 -0.887992 0.108480 0.000000 -0.913851 0.098909 0.000000 -0.938862 0.088975 0.000000 -0.959657 0.078567 0.000000 -0.979354 0.067859 0.000000 -0.994672 0.056771 0.000000 -1.008690 0.045461 0.000000 -1.018206 0.033880 0.000000 -1.026279 0.022171 0.000000 -1.029776 0.010307 0.000000 -1.031748 -0.001574 0.000000 -1.029130 -0.013493 0.000000 -1.024968 -0.025309 0.000000 -1.016266 -0.037051 0.000000 -1.006059 -0.048562 0.000000 -0.991433 -0.059902 0.000000 -0.975395 -0.070883 0.000000 -0.955124 -0.081613 0.000000 -0.933577 -0.091861 0.000000 -0.908051 -0.101798 0.000000 -0.881416 -0.111143 0.000000 -0.851113 -0.120142 0.000000 -0.819885 -0.128451 0.000000 -0.785353 -0.136404 0.000000 -0.750084 -0.143587 0.000000 -0.711913 -0.150425 0.000000 -0.673188 -0.156430 0.000000 -0.631996 -0.162121 0.000000 -0.590412 -0.166936 0.000000 -0.546817 -0.171482 0.000000 -0.502969 -0.175124 0.000000 -0.457575 -0.178551 0.000000 -0.412038 -0.181064 0.000000 -0.365425 -0.183422 0.000000 
-0.319049 -0.232411 0.000000 -0.271288 -0.234078 0.000000 -0.223523 -0.234600 0.000000 -0.175635 -0.235090 0.000000 -0.127754 -0.234458 0.000000 -0.080200 -0.233864 0.000000 -0.032633 -0.232178 0.000000 0.014170 -0.230592 0.000000 0.061030 -0.227948 0.000000 0.106703 -0.225453 0.000000 0.152500 -0.221940 0.000000 0.196704 -0.218614 0.000000 0.241112 -0.214314 0.000000 0.283537 -0.210227 0.000000 0.326258 -0.205215 0.000000 0.366625 -0.200428 0.000000 0.407385 -0.194771 0.000000 0.445440 -0.189340 0.000000 0.483985 -0.183101 0.000000 0.519500 -0.177076 0.000000 0.555595 -0.170313 0.000000 0.588363 -0.163741 0.000000 0.621791 -0.156510 0.000000 0.651626 -0.149438 0.000000 0.682188 -0.141792 0.000000 0.708925 -0.134263 0.000000 0.736439 -0.126253 0.000000 0.759934 -0.118312 0.000000 0.784235 -0.109988 0.000000 0.804363 -0.101678 0.000000 0.825305 -0.093089 0.000000 0.841962 -0.084453 0.000000 0.859414 -0.075646 0.000000 0.872514 -0.066728 0.000000 0.886363 -0.057748 0.000000 0.895839 -0.048593 0.000000 0.905990 -0.039483 0.000000 0.911790 -0.030136 0.000000 0.918166 -0.020940 0.000000 0.920256 -0.011446 0.000000 0.922797 -0.002207 0.000000 0.921160 0.007386 0.000000 0.919826 0.016624 0.000000 0.914461 0.026265 0.000000 0.909229 0.035458 0.000000 0.900153 0.045094 0.000000 0.891023 0.054193 0.000000 0.878271 0.063767 0.000000 0.865265 0.072723 0.000000 0.848892 0.082176 0.000000 0.832055 0.090934 0.000000 0.812137 0.100202 0.000000 0.791541 0.108708 0.000000 0.768176 0.117724 0.000000 0.743918 0.125918 0.000000 0.717228 0.134611 0.000000 0.689436 0.142432 0.000000 0.659566 0.150729 0.000000 0.628397 0.158114 0.000000 0.595520 0.165941 0.000000 0.561160 0.172825 0.000000 0.525474 0.180105 0.000000 0.488142 0.186423 0.000000 0.449871 0.193078 0.000000 0.409816 0.198763 0.000000 0.369213 0.204714 0.000000 0.326716 0.209698 0.000000 0.284060 0.214867 0.000000 0.239435 0.219081 0.000000 0.195033 0.223389 0.000000 0.148626 0.226763 0.000000 0.102814 0.230131 0.000000 0.055002 0.232594 0.000000 0.008144 0.234944 0.000000 -0.040663 0.236423 0.000000 -0.088173 0.237679 0.000000 -0.137534 0.238100 0.000000 -0.185272 0.238187 0.000000 -0.234713 0.237478 0.000000 -0.282223 0.236325 0.000000 -0.331244 0.234413 0.000000 -0.378040 0.231957 0.000000 -0.426110 0.228775 0.000000 -0.471676 0.224959 0.000000 -0.518240 0.220449 0.000000 -0.562031 0.215230 0.000000 -0.606512 0.209346 0.000000 -0.647963 0.202701 0.000000 -0.689772 0.195418 0.000000 -0.728300 0.187346 0.000000 -0.766842 0.178665 0.000000 -0.801861 0.169196 0.000000 -0.836548 0.159153 0.000000 -0.867481 0.148354 0.000000 -0.897752 0.137026 0.000000 -0.924047 0.125005 0.000000 -0.949381 0.112515 0.000000 -0.970538 0.099424 0.000000 -0.990473 0.085943 0.000000 -1.006062 0.071978 0.000000 -1.020221 0.057725 0.000000 -1.029901 0.043123 0.000000 -1.038007 0.028356 0.000000 -1.041551 0.013385 0.000000 -1.043443 -0.001609 0.000000 -1.040750 -0.016658 0.000000 -1.036393 -0.031573 0.000000 -1.027496 -0.046403 0.000000 -1.016987 -0.060935 0.000000 -1.002053 -0.075256 0.000000 -0.985615 -0.089115 0.000000 -0.964938 -0.102660 0.000000 -0.942910 -0.115587 0.000000 -0.916897 -0.128125 0.000000 -0.889717 -0.139902 0.000000 -0.858867 -0.151248 0.000000 -0.827052 -0.161708 0.000000 -0.791935 -0.171723 0.000000 -0.756056 -0.180752 0.000000 -0.717285 -0.189351 0.000000 -0.677947 -0.196887 0.000000 -0.636155 -0.204032 0.000000 -0.593973 -0.210060 0.000000 -0.549795 -0.215754 0.000000 -0.505374 -0.220300 0.000000 -0.459428 -0.224582 0.000000 -0.413353 -0.227703 0.000000 -0.366225 -0.230636 0.000000 
-0.322189 -0.279803 0.000000 -0.273648 -0.281742 0.000000 -0.225159 -0.282316 0.000000 -0.176547 -0.282845 0.000000 -0.127991 -0.282038 0.000000 -0.079770 -0.281272 0.000000 -0.031577 -0.279205 0.000000 0.015836 -0.277252 0.000000 0.063276 -0.274041 0.000000 0.109506 -0.271004 0.000000 0.155840 -0.266757 0.000000 0.200551 -0.262728 0.000000 0.245457 -0.257542 0.000000 0.288344 -0.252604 0.000000 0.331528 -0.246567 0.000000 0.372315 -0.240794 0.000000 0.413507 -0.233986 0.000000 0.451943 -0.227443 0.000000 0.490891 -0.219939 0.000000 0.526749 -0.212685 0.000000 0.563220 -0.204554 0.000000 0.596296 -0.196646 0.000000 0.630075 -0.187953 0.000000 0.660183 -0.179445 0.000000 0.691071 -0.170255 0.000000 0.718049 -0.161199 0.000000 0.745864 -0.151573 0.000000 0.769568 -0.142023 0.000000 0.794145 -0.132021 0.000000 0.814451 -0.122029 0.000000 0.835643 -0.111710 0.000000 0.852448 -0.101328 0.000000 0.870125 -0.090749 0.000000 0.883344 -0.080030 0.000000 0.897391 -0.069244 0.000000 0.906956 -0.058241 0.000000 0.917278 -0.047302 0.000000 0.923139 -0.036068 0.000000 0.929657 -0.025026 0.000000 0.931778 -0.013618 0.000000 0.934432 -0.002525 0.000000 0.932796 0.009002 0.000000 0.931543 0.020095 0.000000 0.926147 0.031681 0.000000 0.920963 0.042719 0.000000 0.911823 0.054300 0.000000 0.902705 0.065227 0.000000 0.889856 0.076736 0.000000 0.876823 0.087494 0.000000 0.860318 0.098859 0.000000 0.843415 0.109384 0.000000 0.823327 0.120528 0.000000 0.802623 0.130753 0.000000 0.779051 0.141596 0.000000 0.754642 0.151451 0.000000 0.727707 0.161908 0.000000 0.699720 0.171320 0.000000 0.669568 0.181303 0.000000 0.638157 0.190196 0.000000 0.604961 0.199615 0.000000 0.570312 0.207910 0.000000 0.534271 0.216672 0.000000 0.496602 0.224290 0.000000 0.457939 0.232302 0.000000 0.417498 0.239162 0.000000 0.376467 0.246329 0.000000 0.333536 0.252349 0.000000 0.290415 0.258574 0.000000 0.245305 0.263670 0.000000 0.200400 0.268860 0.000000 0.153457 0.272947 0.000000 0.107103 0.277005 0.000000 0.058704 0.279998 0.000000 0.011264 0.282831 0.000000 -0.038184 0.284640 0.000000 -0.086318 0.286154 0.000000 -0.136371 0.286692 0.000000 -0.184776 0.286799 0.000000 -0.234962 0.285975 0.000000 -0.283182 0.284588 0.000000 -0.332998 0.282317 0.000000 -0.380546 0.279359 0.000000 -0.429455 0.275557 0.000000 -0.475812 0.270960 0.000000 -0.523253 0.265555 0.000000 -0.567867 0.259267 0.000000 -0.613253 0.252204 0.000000 -0.655547 0.244194 0.000000 -0.698274 0.235438 0.000000 -0.737651 0.225706 0.000000 -0.777105 0.215257 0.000000 -0.812957 0.203837 0.000000 -0.848529 0.191737 0.000000 -0.880255 0.178707 0.000000 -0.911356 0.165047 0.000000 -0.938377 0.150538 0.000000 -0.964457 0.135465 0.000000 -0.986242 0.119660 0.000000 -1.006813 0.103382 0.000000 -1.022902 0.086519 0.000000 -1.037558 0.069300 0.000000 -1.047588 0.051666 0.000000 -1.056028 0.033821 0.000000 -1.059751 0.015743 0.000000 -1.061801 -0.002375 0.000000 -1.059104 -0.020542 0.000000 -1.054722 -0.038562 0.000000 -1.045636 -0.056457 0.000000 -1.034921 -0.074006 0.000000 -1.019620 -0.091275 0.000000 -1.002806 -0.107999 0.000000 -0.981602 -0.124318 0.000000 -0.959049 -0.139902 0.000000 -0.932373 -0.154991 0.000000 -0.904544 -0.169172 0.000000 -0.872924 -0.182807 0.000000 -0.840365 -0.195383 0.000000 -0.804401 -0.207400 0.000000 -0.767716 -0.218237 0.000000 -0.728052 -0.228534 0.000000 -0.687872 -0.237560 0.000000 -0.645172 -0.246096 0.000000 -0.602138 -0.253297 0.000000 -0.557060 -0.260080 0.000000 -0.511799 -0.265491 0.000000 -0.464980 -0.270572 0.000000 -0.418095 -0.274267 0.000000 -0.370136 -0.277726 0.000000 
-0.323067 -0.328899 0.000000 -0.273804 -0.331107 0.000000 -0.224629 -0.331701 0.000000 -0.175360 -0.332258 0.000000 -0.126183 -0.331235 0.000000 -0.077369 -0.330278 0.000000 -0.028616 -0.327784 0.000000 0.019331 -0.325445 0.000000 0.067275 -0.321618 0.000000 0.113985 -0.318017 0.000000 0.160774 -0.312985 0.000000 0.205916 -0.308231 0.000000 0.251233 -0.302107 0.000000 0.294509 -0.296298 0.000000 0.338066 -0.289186 0.000000 0.379203 -0.282406 0.000000 0.420733 -0.274399 0.000000 0.459485 -0.266723 0.000000 0.498740 -0.257907 0.000000 0.534883 -0.249405 0.000000 0.571631 -0.239859 0.000000 0.604961 -0.230596 0.000000 0.638989 -0.220398 0.000000 0.669321 -0.210435 0.000000 0.700431 -0.199657 0.000000 0.727603 -0.189056 0.000000 0.755612 -0.177772 0.000000 0.779482 -0.166593 0.000000 0.804226 -0.154872 0.000000 0.824672 -0.143176 0.000000 0.846003 -0.131086 0.000000 0.862921 -0.118934 0.000000 0.880710 -0.106541 0.000000 0.894016 -0.093994 0.000000 0.908149 -0.081360 0.000000 0.917778 -0.068480 0.000000 0.928160 -0.055666 0.000000 0.934062 -0.042515 0.000000 0.940613 -0.029580 0.000000 0.942754 -0.016221 0.000000 0.945413 -0.003224 0.000000 0.943775 0.010275 0.000000 0.942498 0.023273 0.000000 0.937078 0.036845 0.000000 0.931841 0.049781 0.000000 0.922654 0.063351 0.000000 0.913451 0.076160 0.000000 0.900529 0.089649 0.000000 0.887377 0.102261 0.000000 0.870771 0.115585 0.000000 0.853713 0.127925 0.000000 0.833494 0.140994 0.000000 0.812596 0.152984 0.000000 0.788860 0.165704 0.000000 0.764216 0.177261 0.000000 0.737081 0.189533 0.000000 0.708815 0.200571 0.000000 0.678426 0.212292 0.000000 0.646692 0.222721 0.000000 0.613217 0.233786 0.000000 0.578200 0.243516 0.000000 0.541837 0.253816 0.000000 0.503753 0.262755 0.000000 0.464725 0.272181 0.000000 0.423823 0.280235 0.000000 0.382380 0.288677 0.000000 0.338942 0.295750 0.000000 0.295363 0.303098 0.000000 0.249701 0.309095 0.000000 0.204291 0.315237 0.000000 0.156752 0.320060 0.000000 0.109845 0.324885 0.000000 0.060807 0.328433 0.000000 0.012766 0.331832 0.000000 -0.037359 0.334004 0.000000 -0.086142 0.335866 0.000000 -0.136910 0.336558 0.000000 -0.186009 0.336779 0.000000 -0.236944 0.335884 0.000000 -0.285903 0.334361 0.000000 -0.336495 0.331777 0.000000 -0.384821 0.328414 0.000000 -0.434530 0.324041 0.000000 -0.481699 0.318756 0.000000 -0.529953 0.312504 0.000000 -0.575404 0.305231 0.000000 -0.621606 0.297027 0.000000 -0.664749 0.287722 0.000000 -0.708280 0.277521 0.000000 -0.748501 0.266177 0.000000 -0.788731 0.253971 0.000000 -0.825401 0.240621 0.000000 -0.861697 0.226451 0.000000 -0.894189 0.211181 0.000000 -0.925940 0.195148 0.000000 -0.953647 0.178106 0.000000 -0.980276 0.160380 0.000000 -1.002638 0.141779 0.000000 -1.023631 0.122603 0.000000 -1.040159 0.102724 0.000000 -1.055089 0.082411 0.000000 -1.065394 0.061594 0.000000 -1.073943 0.040519 0.000000 -1.077761 0.019158 0.000000 -1.079741 -0.002256 0.000000 -1.076950 -0.023737 0.000000 -1.072320 -0.045042 0.000000 -1.062951 -0.066204 0.000000 -1.051816 -0.086951 0.000000 -1.036056 -0.107370 0.000000 -1.018668 -0.127132 0.000000 -0.996850 -0.146417 0.000000 -0.973592 -0.164816 0.000000 -0.946175 -0.182631 0.000000 -0.917540 -0.199351 0.000000 -0.885086 -0.215426 0.000000 -0.851652 -0.230230 0.000000 -0.814795 -0.244373 0.000000 -0.777197 -0.257101 0.000000 -0.736613 -0.269195 0.000000 -0.695514 -0.279767 0.000000 -0.651897 -0.289766 0.000000 -0.607961 -0.298172 0.000000 -0.561993 -0.306092 0.000000 -0.515870 -0.312379 0.000000 -0.468206 -0.318286 0.000000 -0.420510 -0.322547 0.000000 -0.371764 -0.326542 0.000000 