# vtk DataFile Version 2.0
Comment goes here
ASCII

DATASET STRUCTURED_POINTS
FIELD FieldData 1
TIME 1 1 double
0.24000000
DIMENSIONS    128   128   1

ORIGIN    0.000   0.000   0.000
SPACING   0.039062 0.039062   1.000

POINT_DATA   16384
VECTORS u double

-0.066088 -0.000000 0.000000 -0.055502 -0.000000 0.000000 -0.045521 -0.000000 0.000000 -0.034472 -0.000000 0.000000 -0.024111 -0.000000 0.000000 -0.012766 -0.000000 0.000000 -0.002191 -0.000000 0.000000 0.009270 -0.000000 0.000000 0.019883 -0.000000 0.000000 0.031273 -0.000000 0.000000 0.041742 -0.000000 0.000000 0.052871 -0.000000 0.000000 0.063014 -0.000000 0.000000 0.073692 -0.000000 0.000000 0.083331 -0.000000 0.000000 0.093378 -0.000000 0.000000 0.102345 -0.000000 0.000000 0.111593 -0.000000 0.000000 0.119737 -0.000000 0.000000 0.128038 -0.000000 0.000000 0.135229 -0.000000 0.000000 0.142459 -0.000000 0.000000 0.148592 -0.000000 0.000000 0.154657 -0.000000 0.000000 0.159658 -0.000000 0.000000 0.164494 -0.000000 0.000000 0.168320 -0.000000 0.000000 0.171896 -0.000000 0.000000 0.174537 -0.000000 0.000000 0.176857 -0.000000 0.000000 0.178333 -0.000000 0.000000 0.179431 -0.000000 0.000000 0.179791 -0.000000 0.000000 0.179729 -0.000000 0.000000 0.179047 -0.000000 0.000000 0.177909 -0.000000 0.000000 0.176279 -0.000000 0.000000 0.174165 -0.000000 0.000000 0.171695 -0.000000 0.000000 0.168720 -0.000000 0.000000 0.165523 -0.000000 0.000000 0.161805 -0.000000 0.000000 0.158001 -0.000000 0.000000 0.153659 -0.000000 0.000000 0.149360 -0.000000 0.000000 0.144507 -0.000000 0.000000 0.139820 -0.000000 0.000000 0.134561 -0.000000 0.000000 0.129582 -0.000000 0.000000 0.124007 -0.000000 0.000000 0.118818 -0.000000 0.000000 0.113006 -0.000000 0.000000 0.107673 -0.000000 0.000000 0.101687 -0.000000 0.000000 0.096261 -0.000000 0.000000 0.090149 -0.000000 0.000000 0.084667 -0.000000 0.000000 0.078463 -0.000000 0.000000 0.072948 -0.000000 0.000000 0.066673 -0.000000 0.000000 0.061138 -0.000000 0.000000 0.054805 -0.000000 0.000000 0.049253 -0.000000 0.000000 0.042867 -0.000000 0.000000 0.037295 -0.000000 0.000000 0.030857 -0.000000 0.000000 0.025259 -0.000000 0.000000 0.018767 -0.000000 0.000000 0.013135 -0.000000 0.000000 0.006589 -0.000000 0.000000 0.000917 -0.000000 0.000000 -0.005680 -0.000000 0.000000 -0.011397 -0.000000 0.000000 -0.018036 -0.000000 0.000000 -0.023798 -0.000000 0.000000 -0.030467 -0.000000 0.000000 -0.036267 -0.000000 0.000000 -0.042947 -0.000000 0.000000 -0.048774 -0.000000 0.000000 -0.055437 -0.000000 0.000000 -0.061273 -0.000000 0.000000 -0.067885 -0.000000 0.000000 -0.073703 -0.000000 0.000000 -0.080224 -0.000000 0.000000 -0.085993 -0.000000 0.000000 -0.092374 -0.000000 0.000000 -0.098052 -0.000000 0.000000 -0.104240 -0.000000 0.000000 -0.109778 -0.000000 0.000000 -0.115712 -0.000000 0.000000 -0.121055 -0.000000 0.000000 -0.126666 -0.000000 0.000000 -0.131748 -0.000000 0.000000 -0.136966 -0.000000 0.000000 -0.141715 -0.000000 0.000000 -0.146460 -0.000000 0.000000 -0.150797 -0.000000 0.000000 -0.154986 -0.000000 0.000000 -0.158826 -0.000000 0.000000 -0.162376 -0.000000 0.000000 -0.165630 -0.000000 0.000000 -0.168454 -0.000000 0.000000 -0.171034 -0.000000 0.000000 -0.173046 -0.000000 0.000000 -0.174865 -0.000000 0.000000 -0.175986 -0.000000 0.000000 -0.176961 -0.000000 0.000000 -0.177119 -0.000000 0.000000 -0.177176 -0.000000 0.000000 -0.176310 -0.000000 0.000000 -0.175388 -0.000000 0.000000 -0.173449 -0.000000 0.000000 -0.171501 -0.000000 0.000000 -0.168457 -0.000000 0.000000 -0.165455 -0.000000 0.000000 -0.161292 -0.000000 0.000000 -0.157226 -0.000000 0.000000 -0.151951 -0.000000 0.000000 -0.146832 -0.000000 0.000000 -0.140474 -0.000000 0.000000 -0.134336 -0.000000 0.000000 -0.126945 -0.000000 0.000000 -0.119842 -0.000000 0.000000 -0.111490 -0.000000 0.000000 -0.103501 -0.000000 0.000000 -0.094283 -0.000000 0.000000 -0.085505 -0.000000 0.000000 -0.075536 -0.000000 0.000000 
-0.066147 -0.010017 0.000000 -0.055532 -0.010283 0.000000 -0.045522 -0.010515 0.000000 -0.034440 -0.010705 0.000000 -0.024050 -0.010853 0.000000 -0.012670 -0.010960 0.000000 -0.002065 -0.011018 0.000000 0.009433 -0.011037 0.000000 0.020075 -0.011002 0.000000 0.031503 -0.010930 0.000000 0.042001 -0.010799 0.000000 0.053167 -0.010636 0.000000 0.063337 -0.010411 0.000000 0.074052 -0.010159 0.000000 0.083716 -0.009843 0.000000 0.093798 -0.009507 0.000000 0.102788 -0.009108 0.000000 0.112068 -0.008696 0.000000 0.120231 -0.008223 0.000000 0.128560 -0.007746 0.000000 0.135766 -0.007210 0.000000 0.143021 -0.006682 0.000000 0.149164 -0.006099 0.000000 0.155248 -0.005533 0.000000 0.160254 -0.004918 0.000000 0.165104 -0.004331 0.000000 0.168929 -0.003701 0.000000 0.172514 -0.003109 0.000000 0.175149 -0.002481 0.000000 0.177472 -0.001898 0.000000 0.178937 -0.001287 0.000000 0.180032 -0.000729 0.000000 0.180376 -0.000149 0.000000 0.180306 0.000372 0.000000 0.179603 0.000910 0.000000 0.178452 0.001384 0.000000 0.176797 0.001872 0.000000 0.174668 0.002292 0.000000 0.172169 0.002723 0.000000 0.169175 0.003086 0.000000 0.165947 0.003457 0.000000 0.162208 0.003761 0.000000 0.158370 0.004073 0.000000 0.154005 0.004320 0.000000 0.149671 0.004576 0.000000 0.144795 0.004770 0.000000 0.140073 0.004973 0.000000 0.134789 0.005119 0.000000 0.129776 0.005277 0.000000 0.124178 0.005382 0.000000 0.118955 0.005500 0.000000 0.113120 0.005572 0.000000 0.107755 0.005660 0.000000 0.101747 0.005706 0.000000 0.096291 0.005769 0.000000 0.090159 0.005797 0.000000 0.084649 0.005843 0.000000 0.078426 0.005860 0.000000 0.072886 0.005895 0.000000 0.066594 0.005905 0.000000 0.061036 0.005934 0.000000 0.054688 0.005942 0.000000 0.049117 0.005969 0.000000 0.042716 0.005979 0.000000 0.037128 0.006005 0.000000 0.030677 0.006018 0.000000 0.025065 0.006045 0.000000 0.018561 0.006062 0.000000 0.012918 0.006089 0.000000 0.006362 0.006109 0.000000 0.000681 0.006134 0.000000 -0.005925 0.006157 0.000000 -0.011649 0.006178 0.000000 -0.018298 0.006201 0.000000 -0.024064 0.006216 0.000000 -0.030742 0.006235 0.000000 -0.036545 0.006240 0.000000 -0.043233 0.006253 0.000000 -0.049062 0.006245 0.000000 -0.055733 0.006249 0.000000 -0.061569 0.006224 0.000000 -0.068189 0.006215 0.000000 -0.074007 0.006170 0.000000 -0.080536 0.006145 0.000000 -0.086303 0.006075 0.000000 -0.092693 0.006030 0.000000 -0.098369 0.005933 0.000000 -0.104566 0.005863 0.000000 -0.110102 0.005736 0.000000 -0.116045 0.005638 0.000000 -0.121385 0.005477 0.000000 -0.127007 0.005347 0.000000 -0.132086 0.005150 0.000000 -0.137314 0.004983 0.000000 -0.142060 0.004747 0.000000 -0.146816 0.004541 0.000000 -0.151149 0.004263 0.000000 -0.155350 0.004015 0.000000 -0.159185 0.003695 0.000000 -0.162746 0.003402 0.000000 -0.165996 0.003039 0.000000 -0.168830 0.002702 0.000000 -0.171404 0.002296 0.000000 -0.173427 0.001915 0.000000 -0.175238 0.001470 0.000000 -0.176368 0.001048 0.000000 -0.177334 0.000566 0.000000 -0.177500 0.000108 0.000000 -0.177546 -0.000405 0.000000 -0.176685 -0.000894 0.000000 -0.175751 -0.001431 0.000000 -0.173813 -0.001943 0.000000 -0.171852 -0.002496 0.000000 -0.168806 -0.003023 0.000000 -0.165788 -0.003582 0.000000 -0.161620 -0.004115 0.000000 -0.157536 -0.004670 0.000000 -0.152253 -0.005197 0.000000 -0.147115 -0.005738 0.000000 -0.140744 -0.006248 0.000000 -0.134584 -0.006765 0.000000 -0.127177 -0.007247 0.000000 -0.120051 -0.007727 0.000000 -0.111679 -0.008171 0.000000 -0.103665 -0.008604 0.000000 -0.094423 -0.008998 0.000000 -0.085619 -0.009374 0.000000 -0.075623 -0.009709 0.000000 
-0.066663 -0.020091 0.000000 -0.056001 -0.020625 0.000000 -0.045944 -0.021091 0.000000 -0.034811 -0.021472 0.000000 -0.024367 -0.021770 0.000000 -0.012932 -0.021985 0.000000 -0.002269 -0.022103 0.000000 0.009286 -0.022140 0.000000 0.019990 -0.022070 0.000000 0.031475 -0.021926 0.000000 0.042035 -0.021664 0.000000 0.053259 -0.021336 0.000000 0.063490 -0.020885 0.000000 0.074259 -0.020379 0.000000 0.083982 -0.019746 0.000000 0.094112 -0.019072 0.000000 0.103156 -0.018270 0.000000 0.112478 -0.017443 0.000000 0.120687 -0.016493 0.000000 0.129050 -0.015535 0.000000 0.136293 -0.014460 0.000000 0.143570 -0.013398 0.000000 0.149741 -0.012227 0.000000 0.155837 -0.011090 0.000000 0.160860 -0.009856 0.000000 0.165710 -0.008675 0.000000 0.169541 -0.007411 0.000000 0.173117 -0.006219 0.000000 0.175747 -0.004958 0.000000 0.178050 -0.003788 0.000000 0.179501 -0.002560 0.000000 0.180569 -0.001439 0.000000 0.180892 -0.000274 0.000000 0.180788 0.000773 0.000000 0.180059 0.001854 0.000000 0.178870 0.002806 0.000000 0.177186 0.003784 0.000000 0.175016 0.004629 0.000000 0.172488 0.005493 0.000000 0.169453 0.006222 0.000000 0.166198 0.006967 0.000000 0.162421 0.007577 0.000000 0.158559 0.008203 0.000000 0.154160 0.008698 0.000000 0.149808 0.009210 0.000000 0.144903 0.009598 0.000000 0.140169 0.010005 0.000000 0.134863 0.010297 0.000000 0.129843 0.010612 0.000000 0.124230 0.010821 0.000000 0.119007 0.011057 0.000000 0.113164 0.011200 0.000000 0.107805 0.011373 0.000000 0.101795 0.011464 0.000000 0.096350 0.011589 0.000000 0.090221 0.011642 0.000000 0.084727 0.011733 0.000000 0.078512 0.011763 0.000000 0.072991 0.011832 0.000000 0.066710 0.011849 0.000000 0.061173 0.011906 0.000000 0.054838 0.011920 0.000000 0.049287 0.011972 0.000000 0.042901 0.011988 0.000000 0.037332 0.012040 0.000000 0.030894 0.012063 0.000000 0.025300 0.012115 0.000000 0.018808 0.012147 0.000000 0.013179 0.012199 0.000000 0.006632 0.012237 0.000000 0.000962 0.012287 0.000000 -0.005639 0.012330 0.000000 -0.011356 0.012372 0.000000 -0.018002 0.012415 0.000000 -0.023766 0.012444 0.000000 -0.030446 0.012481 0.000000 -0.036252 0.012491 0.000000 -0.042945 0.012517 0.000000 -0.048781 0.012500 0.000000 -0.055462 0.012507 0.000000 -0.061310 0.012456 0.000000 -0.067943 0.012438 0.000000 -0.073777 0.012347 0.000000 -0.080322 0.012296 0.000000 -0.086111 0.012157 0.000000 -0.092520 0.012066 0.000000 -0.098222 0.011873 0.000000 -0.104440 0.011733 0.000000 -0.110007 0.011479 0.000000 -0.115974 0.011283 0.000000 -0.121349 0.010962 0.000000 -0.126997 0.010701 0.000000 -0.132115 0.010307 0.000000 -0.137372 0.009974 0.000000 -0.142160 0.009502 0.000000 -0.146946 0.009089 0.000000 -0.151325 0.008534 0.000000 -0.155558 0.008037 0.000000 -0.159442 0.007396 0.000000 -0.163034 0.006810 0.000000 -0.166333 0.006084 0.000000 -0.169199 0.005408 0.000000 -0.171822 0.004597 0.000000 -0.173875 0.003834 0.000000 -0.175734 0.002942 0.000000 -0.176892 0.002096 0.000000 -0.177903 0.001131 0.000000 -0.178092 0.000212 0.000000 -0.178180 -0.000815 0.000000 -0.177338 -0.001796 0.000000 -0.176439 -0.002872 0.000000 -0.174515 -0.003899 0.000000 -0.172583 -0.005007 0.000000 -0.169545 -0.006064 0.000000 -0.166548 -0.007186 0.000000 -0.162381 -0.008252 0.000000 -0.158309 -0.009367 0.000000 -0.153020 -0.010422 0.000000 -0.147885 -0.011509 0.000000 -0.141502 -0.012530 0.000000 -0.135336 -0.013567 0.000000 -0.127908 -0.014533 0.000000 -0.120767 -0.015498 0.000000 -0.112368 -0.016386 0.000000 -0.104329 -0.017256 0.000000 -0.095053 -0.018046 0.000000 -0.086216 -0.018801 0.000000 -0.076179 -0.019472 0.000000 
-0.067302 -0.030195 0.000000 -0.056533 -0.031002 0.000000 -0.046370 -0.031705 0.000000 -0.035120 -0.032282 0.000000 -0.024563 -0.032732 0.000000 -0.013003 -0.033058 0.000000 -0.002222 -0.033236 0.000000 0.009464 -0.033296 0.000000 0.020289 -0.033191 0.000000 0.031908 -0.032976 0.000000 0.042589 -0.032582 0.000000 0.053944 -0.032091 0.000000 0.064293 -0.031411 0.000000 0.075190 -0.030650 0.000000 0.085023 -0.029696 0.000000 0.095273 -0.028681 0.000000 0.104415 -0.027473 0.000000 0.113844 -0.026228 0.000000 0.122138 -0.024795 0.000000 0.130592 -0.023352 0.000000 0.137903 -0.021731 0.000000 0.145253 -0.020130 0.000000 0.151472 -0.018366 0.000000 0.157619 -0.016651 0.000000 0.162668 -0.014791 0.000000 0.167548 -0.013013 0.000000 0.171384 -0.011108 0.000000 0.174966 -0.009314 0.000000 0.177580 -0.007414 0.000000 0.179869 -0.005653 0.000000 0.181284 -0.003806 0.000000 0.182318 -0.002120 0.000000 0.182587 -0.000367 0.000000 0.182432 0.001205 0.000000 0.181636 0.002828 0.000000 0.180382 0.004257 0.000000 0.178619 0.005725 0.000000 0.176376 0.006990 0.000000 0.173761 0.008285 0.000000 0.170647 0.009375 0.000000 0.167301 0.010489 0.000000 0.163443 0.011400 0.000000 0.159489 0.012334 0.000000 0.155010 0.013072 0.000000 0.150569 0.013833 0.000000 0.145587 0.014409 0.000000 0.140770 0.015013 0.000000 0.135393 0.015445 0.000000 0.130297 0.015910 0.000000 0.124621 0.016218 0.000000 0.119330 0.016566 0.000000 0.113432 0.016775 0.000000 0.108015 0.017028 0.000000 0.101959 0.017160 0.000000 0.096465 0.017343 0.000000 0.090299 0.017420 0.000000 0.084765 0.017553 0.000000 0.078520 0.017596 0.000000 0.072967 0.017697 0.000000 0.066663 0.017723 0.000000 0.061102 0.017806 0.000000 0.054748 0.017829 0.000000 0.049180 0.017906 0.000000 0.042779 0.017934 0.000000 0.037197 0.018012 0.000000 0.030747 0.018051 0.000000 0.025143 0.018131 0.000000 0.018639 0.018182 0.000000 0.013003 0.018264 0.000000 0.006444 0.018327 0.000000 0.000767 0.018405 0.000000 -0.005846 0.018474 0.000000 -0.011570 0.018542 0.000000 -0.018232 0.018611 0.000000 -0.024003 0.018659 0.000000 -0.030702 0.018720 0.000000 -0.036516 0.018739 0.000000 -0.043231 0.018783 0.000000 -0.049078 0.018761 0.000000 -0.055783 0.018778 0.000000 -0.061644 0.018705 0.000000 -0.068305 0.018683 0.000000 -0.074156 0.018549 0.000000 -0.080733 0.018478 0.000000 -0.086540 0.018272 0.000000 -0.092984 0.018140 0.000000 -0.098709 0.017853 0.000000 -0.104966 0.017648 0.000000 -0.110559 0.017270 0.000000 -0.116569 0.016980 0.000000 -0.121974 0.016501 0.000000 -0.127668 0.016113 0.000000 -0.132820 0.015524 0.000000 -0.138126 0.015028 0.000000 -0.142951 0.014322 0.000000 -0.147789 0.013706 0.000000 -0.152207 0.012875 0.000000 -0.156493 0.012131 0.000000 -0.160417 0.011171 0.000000 -0.164064 0.010294 0.000000 -0.167403 0.009203 0.000000 -0.170322 0.008191 0.000000 -0.172983 0.006972 0.000000 -0.175086 0.005827 0.000000 -0.176979 0.004487 0.000000 -0.178183 0.003217 0.000000 -0.179222 0.001767 0.000000 -0.179450 0.000385 0.000000 -0.179558 -0.001159 0.000000 -0.178745 -0.002635 0.000000 -0.177857 -0.004253 0.000000 -0.175952 -0.005800 0.000000 -0.174019 -0.007467 0.000000 -0.170987 -0.009058 0.000000 -0.167979 -0.010746 0.000000 -0.163804 -0.012353 0.000000 -0.159709 -0.014031 0.000000 -0.154397 -0.015621 0.000000 -0.149226 -0.017257 0.000000 -0.142805 -0.018798 0.000000 -0.136589 -0.020358 0.000000 -0.129109 -0.021816 0.000000 -0.121906 -0.023267 0.000000 -0.113440 -0.024609 0.000000 -0.105326 -0.025918 0.000000 -0.095969 -0.027111 0.000000 -0.087046 -0.028247 0.000000 -0.076914 -0.029262 0.000000 
-0.068406 -0.040472 0.000000 -0.057514 -0.041557 0.000000 -0.047225 -0.042504 0.000000 -0.035840 -0.043279 0.000000 -0.025144 -0.043887 0.000000 -0.013438 -0.044326 0.000000 -0.002509 -0.044570 0.000000 0.009329 -0.044651 0.000000 0.020308 -0.044514 0.000000 0.032082 -0.044226 0.000000 0.042919 -0.043700 0.000000 0.054428 -0.043041 0.000000 0.064929 -0.042131 0.000000 0.075973 -0.041109 0.000000 0.085949 -0.039829 0.000000 0.096334 -0.038464 0.000000 0.105607 -0.036841 0.000000 0.115155 -0.035167 0.000000 0.123562 -0.033241 0.000000 0.132112 -0.031300 0.000000 0.139513 -0.029121 0.000000 0.146935 -0.026966 0.000000 0.153218 -0.024593 0.000000 0.159410 -0.022287 0.000000 0.164497 -0.019785 0.000000 0.169393 -0.017391 0.000000 0.173239 -0.014829 0.000000 0.176809 -0.012415 0.000000 0.179407 -0.009861 0.000000 0.181658 -0.007492 0.000000 0.183033 -0.005009 0.000000 0.184006 -0.002743 0.000000 0.184216 -0.000388 0.000000 0.183982 0.001724 0.000000 0.183111 0.003904 0.000000 0.181765 0.005822 0.000000 0.179918 0.007791 0.000000 0.177575 0.009487 0.000000 0.174871 0.011222 0.000000 0.171655 0.012681 0.000000 0.168222 0.014171 0.000000 0.164264 0.015389 0.000000 0.160228 0.016636 0.000000 0.155657 0.017619 0.000000 0.151143 0.018633 0.000000 0.146079 0.019398 0.000000 0.141201 0.020199 0.000000 0.135756 0.020770 0.000000 0.130612 0.021384 0.000000 0.124881 0.021789 0.000000 0.119558 0.022246 0.000000 0.113621 0.022515 0.000000 0.108184 0.022846 0.000000 0.102103 0.023013 0.000000 0.096604 0.023249 0.000000 0.090424 0.023343 0.000000 0.084896 0.023512 0.000000 0.078649 0.023561 0.000000 0.073110 0.023688 0.000000 0.066812 0.023714 0.000000 0.061271 0.023821 0.000000 0.054930 0.023842 0.000000 0.049384 0.023941 0.000000 0.042998 0.023971 0.000000 0.037440 0.024072 0.000000 0.031005 0.024117 0.000000 0.025423 0.024223 0.000000 0.018932 0.024286 0.000000 0.013315 0.024394 0.000000 0.006764 0.024473 0.000000 0.001100 0.024578 0.000000 -0.005511 0.024667 0.000000 -0.011228 0.024758 0.000000 -0.017894 0.024848 0.000000 -0.023666 0.024914 0.000000 -0.030376 0.024994 0.000000 -0.036199 0.025021 0.000000 -0.042933 0.025078 0.000000 -0.048797 0.025052 0.000000 -0.055528 0.025073 0.000000 -0.061414 0.024979 0.000000 -0.068109 0.024950 0.000000 -0.073993 0.024774 0.000000 -0.080609 0.024680 0.000000 -0.086459 0.024409 0.000000 -0.092949 0.024235 0.000000 -0.098724 0.023854 0.000000 -0.105034 0.023583 0.000000 -0.110685 0.023082 0.000000 -0.116753 0.022697 0.000000 -0.122225 0.022061 0.000000 -0.127983 0.021547 0.000000 -0.133210 0.020765 0.000000 -0.138584 0.020105 0.000000 -0.143492 0.019165 0.000000 -0.148402 0.018345 0.000000 -0.152909 0.017238 0.000000 -0.157270 0.016247 0.000000 -0.161287 0.014967 0.000000 -0.165010 0.013796 0.000000 -0.168444 0.012342 0.000000 -0.171437 0.010989 0.000000 -0.174193 0.009361 0.000000 -0.176367 0.007830 0.000000 -0.178351 0.006038 0.000000 -0.179618 0.004339 0.000000 -0.180741 0.002398 0.000000 -0.181024 0.000548 0.000000 -0.181206 -0.001520 0.000000 -0.180437 -0.003496 0.000000 -0.179609 -0.005664 0.000000 -0.177734 -0.007737 0.000000 -0.175846 -0.009972 0.000000 -0.172828 -0.012104 0.000000 -0.169846 -0.014369 0.000000 -0.165670 -0.016522 0.000000 -0.161581 -0.018774 0.000000 -0.156250 -0.020905 0.000000 -0.151065 -0.023102 0.000000 -0.144606 -0.025167 0.000000 -0.138357 -0.027263 0.000000 -0.130820 -0.029217 0.000000 -0.123562 -0.031167 0.000000 -0.115021 -0.032966 0.000000 -0.106834 -0.034727 0.000000 -0.097385 -0.036327 0.000000 -0.088368 -0.037855 0.000000 -0.078129 -0.039216 0.000000 
-0.069645 -0.050809 0.000000 -0.058568 -0.052183 0.000000 -0.048095 -0.053380 0.000000 -0.036506 -0.054363 0.000000 -0.025612 -0.055133 0.000000 -0.013688 -0.055693 0.000000 -0.002549 -0.056004 0.000000 0.009518 -0.056113 0.000000 0.020712 -0.055944 0.000000 0.032719 -0.055586 0.000000 0.043771 -0.054928 0.000000 0.055512 -0.054101 0.000000 0.066224 -0.052956 0.000000 0.077490 -0.051670 0.000000 0.087665 -0.050058 0.000000 0.098258 -0.048339 0.000000 0.107710 -0.046293 0.000000 0.117443 -0.044182 0.000000 0.126004 -0.041752 0.000000 0.134711 -0.039303 0.000000 0.142235 -0.036554 0.000000 0.149779 -0.033835 0.000000 0.156150 -0.030841 0.000000 0.162426 -0.027930 0.000000 0.167562 -0.024774 0.000000 0.172502 -0.021755 0.000000 0.176359 -0.018524 0.000000 0.179933 -0.015481 0.000000 0.182503 -0.012263 0.000000 0.184720 -0.009279 0.000000 0.186032 -0.006154 0.000000 0.186937 -0.003303 0.000000 0.187053 -0.000343 0.000000 0.186723 0.002310 0.000000 0.185732 0.005045 0.000000 0.184268 0.007450 0.000000 0.182283 0.009916 0.000000 0.179806 0.012037 0.000000 0.176952 0.014205 0.000000 0.173594 0.016024 0.000000 0.170006 0.017881 0.000000 0.165904 0.019393 0.000000 0.161716 0.020941 0.000000 0.157004 0.022157 0.000000 0.152345 0.023411 0.000000 0.147149 0.024351 0.000000 0.142137 0.025337 0.000000 0.136573 0.026033 0.000000 0.131310 0.026784 0.000000 0.125476 0.027273 0.000000 0.120050 0.027827 0.000000 0.114026 0.028148 0.000000 0.108505 0.028546 0.000000 0.102353 0.028741 0.000000 0.096786 0.029021 0.000000 0.090553 0.029128 0.000000 0.084973 0.029328 0.000000 0.078686 0.029381 0.000000 0.073111 0.029533 0.000000 0.066785 0.029561 0.000000 0.061219 0.029689 0.000000 0.054858 0.029716 0.000000 0.049298 0.029838 0.000000 0.042898 0.029878 0.000000 0.037332 0.030005 0.000000 0.030886 0.030068 0.000000 0.025300 0.030204 0.000000 0.018799 0.030291 0.000000 0.013179 0.030433 0.000000 0.006616 0.030541 0.000000 0.000949 0.030680 0.000000 -0.005678 0.030802 0.000000 -0.011401 0.030925 0.000000 -0.018089 0.031049 0.000000 -0.023870 0.031141 0.000000 -0.030608 0.031253 0.000000 -0.036445 0.031296 0.000000 -0.043213 0.031380 0.000000 -0.049096 0.031356 0.000000 -0.055869 0.031395 0.000000 -0.061781 0.031286 0.000000 -0.068524 0.031262 0.000000 -0.074440 0.031050 0.000000 -0.081112 0.030944 0.000000 -0.087000 0.030612 0.000000 -0.093553 0.030406 0.000000 -0.099374 0.029938 0.000000 -0.105753 0.029610 0.000000 -0.111459 0.028989 0.000000 -0.117603 0.028520 0.000000 -0.123137 0.027731 0.000000 -0.128978 0.027098 0.000000 -0.134275 0.026125 0.000000 -0.139738 0.025310 0.000000 -0.144723 0.024140 0.000000 -0.149727 0.023123 0.000000 -0.154317 0.021743 0.000000 -0.158776 0.020509 0.000000 -0.162879 0.018911 0.000000 -0.166701 0.017451 0.000000 -0.170221 0.015631 0.000000 -0.173312 0.013940 0.000000 -0.176152 0.011902 0.000000 -0.178419 0.009984 0.000000 -0.180479 0.007739 0.000000 -0.181831 0.005607 0.000000 -0.183021 0.003173 0.000000 -0.183376 0.000849 0.000000 -0.183610 -0.001747 0.000000 -0.182896 -0.004232 0.000000 -0.182105 -0.006955 0.000000 -0.180266 -0.009563 0.000000 -0.178393 -0.012372 0.000000 -0.175390 -0.015058 0.000000 -0.172402 -0.017905 0.000000 -0.168215 -0.020618 0.000000 -0.164097 -0.023451 0.000000 -0.158730 -0.026137 0.000000 -0.153492 -0.028901 0.000000 -0.146970 -0.031506 0.000000 -0.140643 -0.034144 0.000000 -0.133018 -0.036610 0.000000 -0.125659 -0.039066 0.000000 -0.117002 -0.041337 0.000000 -0.108691 -0.043555 0.000000 -0.099101 -0.045577 0.000000 -0.089938 -0.047503 0.000000 -0.079534 -0.049225 0.000000 
-0.071367 -0.061438 0.000000 -0.060088 -0.063106 0.000000 -0.049409 -0.064566 0.000000 -0.037596 -0.065763 0.000000 -0.026476 -0.066706 0.000000 -0.014312 -0.067388 0.000000 -0.002932 -0.067775 0.000000 0.009387 -0.067911 0.000000 0.020832 -0.067715 0.000000 0.033096 -0.067285 0.000000 0.044402 -0.066493 0.000000 0.056397 -0.065493 0.000000 0.067358 -0.064109 0.000000 0.078869 -0.062550 0.000000 0.089279 -0.060596 0.000000 0.100097 -0.058509 0.000000 0.109763 -0.056026 0.000000 0.119693 -0.053460 0.000000 0.128438 -0.050509 0.000000 0.137308 -0.047531 0.000000 0.144979 -0.044189 0.000000 0.152646 -0.040882 0.000000 0.159122 -0.037240 0.000000 0.165475 -0.033699 0.000000 0.170671 -0.029861 0.000000 0.175641 -0.026188 0.000000 0.179511 -0.022260 0.000000 0.183069 -0.018559 0.000000 0.185608 -0.014648 0.000000 0.187766 -0.011021 0.000000 0.189007 -0.007226 0.000000 0.189815 -0.003764 0.000000 0.189827 -0.000173 0.000000 0.189368 0.003045 0.000000 0.188249 0.006358 0.000000 0.186634 0.009271 0.000000 0.184503 0.012253 0.000000 0.181862 0.014818 0.000000 0.178855 0.017434 0.000000 0.175329 0.019627 0.000000 0.171588 0.021862 0.000000 0.167321 0.023679 0.000000 0.162988 0.025536 0.000000 0.158122 0.026990 0.000000 0.153333 0.028487 0.000000 0.148000 0.029606 0.000000 0.142877 0.030776 0.000000 0.137196 0.031596 0.000000 0.131845 0.032481 0.000000 0.125916 0.033049 0.000000 0.120425 0.033696 0.000000 0.114331 0.034061 0.000000 0.108767 0.034519 0.000000 0.102568 0.034731 0.000000 0.096980 0.035049 0.000000 0.090720 0.035156 0.000000 0.085137 0.035379 0.000000 0.078841 0.035423 0.000000 0.073277 0.035590 0.000000 0.066955 0.035606 0.000000 0.061412 0.035747 0.000000 0.055064 0.035764 0.000000 0.049532 0.035901 0.000000 0.043151 0.035937 0.000000 0.037616 0.036084 0.000000 0.031188 0.036149 0.000000 0.025631 0.036310 0.000000 0.019146 0.036407 0.000000 0.013550 0.036577 0.000000 0.006996 0.036703 0.000000 0.001345 0.036872 0.000000 -0.005281 0.037017 0.000000 -0.010997 0.037169 0.000000 -0.017695 0.037317 0.000000 -0.023479 0.037433 0.000000 -0.030238 0.037569 0.000000 -0.036089 0.037626 0.000000 -0.042890 0.037730 0.000000 -0.048799 0.037707 0.000000 -0.055616 0.037758 0.000000 -0.061565 0.037633 0.000000 -0.068362 0.037609 0.000000 -0.074328 0.037362 0.000000 -0.081064 0.037241 0.000000 -0.087015 0.036850 0.000000 -0.093642 0.036609 0.000000 -0.099538 0.036055 0.000000 -0.106000 0.035668 0.000000 -0.111793 0.034931 0.000000 -0.118029 0.034375 0.000000 -0.123664 0.033436 0.000000 -0.129605 0.032685 0.000000 -0.135015 0.031525 0.000000 -0.140586 0.030553 0.000000 -0.145695 0.029154 0.000000 -0.150815 0.027939 0.000000 -0.155538 0.026287 0.000000 -0.160116 0.024809 0.000000 -0.164360 0.022892 0.000000 -0.168303 0.021139 0.000000 -0.171968 0.018953 0.000000 -0.175179 0.016919 0.000000 -0.178161 0.014467 0.000000 -0.180542 0.012157 0.000000 -0.182739 0.009451 0.000000 -0.184195 0.006880 0.000000 -0.185510 0.003943 0.000000 -0.185954 0.001138 0.000000 -0.186297 -0.001999 0.000000 -0.185654 -0.005001 0.000000 -0.184949 -0.008295 0.000000 -0.183159 -0.011448 0.000000 -0.181348 -0.014848 0.000000 -0.178368 -0.018096 0.000000 -0.175413 -0.021544 0.000000 -0.171222 -0.024826 0.000000 -0.167107 -0.028259 0.000000 -0.161707 -0.031511 0.000000 -0.156439 -0.034862 0.000000 -0.149854 -0.038015 0.000000 -0.143466 -0.041215 0.000000 -0.135747 -0.044201 0.000000 -0.128294 -0.047183 0.000000 -0.119515 -0.049934 0.000000 -0.111078 -0.052628 0.000000 -0.101337 -0.055079 0.000000 -0.092020 -0.057421 0.000000 -0.081438 -0.059509 0.000000 
-0.073246 -0.072160 0.000000 -0.061700 -0.074140 0.000000 -0.050756 -0.075871 0.000000 -0.038649 -0.077296 0.000000 -0.027241 -0.078418 0.000000 -0.014760 -0.079237 0.000000 -0.003075 -0.079703 0.000000 0.009574 -0.079876 0.000000 0.021335 -0.079653 0.000000 0.033938 -0.079157 0.000000 0.045561 -0.078229 0.000000 0.057894 -0.077056 0.000000 0.069164 -0.075427 0.000000 0.081000 -0.073591 0.000000 0.091704 -0.071286 0.000000 0.102825 -0.068823 0.000000 0.112757 -0.065890 0.000000 0.122958 -0.062857 0.000000 0.131931 -0.059367 0.000000 0.141029 -0.055845 0.000000 0.148882 -0.051891 0.000000 0.156725 -0.047978 0.000000 0.163330 -0.043670 0.000000 0.169803 -0.039479 0.000000 0.175071 -0.034940 0.000000 0.180101 -0.030595 0.000000 0.183985 -0.025952 0.000000 0.187543 -0.021578 0.000000 0.190039 -0.016960 0.000000 0.192141 -0.012678 0.000000 0.193287 -0.008203 0.000000 0.193988 -0.004123 0.000000 0.193860 0.000103 0.000000 0.193253 0.003888 0.000000 0.191956 0.007779 0.000000 0.190161 0.011196 0.000000 0.187827 0.014688 0.000000 0.184984 0.017686 0.000000 0.181758 0.020739 0.000000 0.178019 0.023292 0.000000 0.174055 0.025889 0.000000 0.169574 0.027993 0.000000 0.165022 0.030140 0.000000 0.159951 0.031812 0.000000 0.154954 0.033533 0.000000 0.149432 0.034807 0.000000 0.144120 0.036141 0.000000 0.138270 0.037065 0.000000 0.132754 0.038064 0.000000 0.126681 0.038692 0.000000 0.121051 0.039413 0.000000 0.114838 0.039806 0.000000 0.109163 0.040308 0.000000 0.102871 0.040527 0.000000 0.097198 0.040870 0.000000 0.090869 0.040971 0.000000 0.085225 0.041208 0.000000 0.078881 0.041241 0.000000 0.073278 0.041418 0.000000 0.066926 0.041427 0.000000 0.061360 0.041580 0.000000 0.054995 0.041595 0.000000 0.049453 0.041751 0.000000 0.043063 0.041795 0.000000 0.037526 0.041968 0.000000 0.031094 0.042052 0.000000 0.025540 0.042246 0.000000 0.019048 0.042373 0.000000 0.013456 0.042583 0.000000 0.006892 0.042745 0.000000 0.001243 0.042957 0.000000 -0.005402 0.043144 0.000000 -0.011120 0.043338 0.000000 -0.017845 0.043532 0.000000 -0.023640 0.043684 0.000000 -0.030435 0.043863 0.000000 -0.036305 0.043949 0.000000 -0.043154 0.044090 0.000000 -0.049090 0.044081 0.000000 -0.055965 0.044161 0.000000 -0.061951 0.044033 0.000000 -0.068817 0.044025 0.000000 -0.074830 0.043752 0.000000 -0.081646 0.043631 0.000000 -0.087655 0.043190 0.000000 -0.094371 0.042928 0.000000 -0.100337 0.042295 0.000000 -0.106898 0.041865 0.000000 -0.112774 0.041018 0.000000 -0.119119 0.040390 0.000000 -0.124849 0.039306 0.000000 -0.130910 0.038449 0.000000 -0.136427 0.037107 0.000000 -0.142129 0.035991 0.000000 -0.147356 0.034368 0.000000 -0.152614 0.032966 0.000000 -0.157465 0.031044 0.000000 -0.162188 0.029332 0.000000 -0.166566 0.027098 0.000000 -0.170657 0.025059 0.000000 -0.174457 0.022506 0.000000 -0.177815 0.020133 0.000000 -0.180929 0.017265 0.000000 -0.183450 0.014562 0.000000 -0.185770 0.011392 0.000000 -0.187354 0.008378 0.000000 -0.188776 0.004932 0.000000 -0.189330 0.001637 0.000000 -0.189761 -0.002047 0.000000 -0.189204 -0.005579 0.000000 -0.188562 -0.009451 0.000000 -0.186828 -0.013164 0.000000 -0.185051 -0.017163 0.000000 -0.182095 -0.020993 0.000000 -0.179141 -0.025051 0.000000 -0.174939 -0.028924 0.000000 -0.170790 -0.032966 0.000000 -0.165340 -0.036806 0.000000 -0.160003 -0.040754 0.000000 -0.153330 -0.044479 0.000000 -0.146836 -0.048252 0.000000 -0.138991 -0.051782 0.000000 -0.131397 -0.055298 0.000000 -0.122453 -0.058553 0.000000 -0.113841 -0.061733 0.000000 -0.103898 -0.064635 0.000000 -0.094373 -0.067402 0.000000 -0.083556 -0.069878 0.000000 