# vtk DataFile Version 2.0
Comment goes here
ASCII

DATASET STRUCTURED_POINTS
FIELD FieldData 1
TIME 1 1 double
0.22500000
DIMENSIONS    128   128   1

ORIGIN    0.000   0.000   0.000
SPACING   0.039062 0.039062   1.000

POINT_DATA   16384
VECTORS u double

-0.064964 -0.000000 0.000000 -0.052924 -0.000000 0.000000 -0.039769 -0.000000 0.000000 -0.027235 -0.000000 0.000000 -0.013709 -0.000000 0.000000 -0.000877 -0.000000 0.000000 0.012814 -0.000000 0.000000 0.025736 -0.000000 0.000000 0.039375 -0.000000 0.000000 0.052171 -0.000000 0.000000 0.065536 -0.000000 0.000000 0.077986 -0.000000 0.000000 0.090855 -0.000000 0.000000 0.102742 -0.000000 0.000000 0.114897 -0.000000 0.000000 0.126014 -0.000000 0.000000 0.137251 -0.000000 0.000000 0.147405 -0.000000 0.000000 0.157535 -0.000000 0.000000 0.166556 -0.000000 0.000000 0.175419 -0.000000 0.000000 0.183163 -0.000000 0.000000 0.190628 -0.000000 0.000000 0.196985 -0.000000 0.000000 0.202955 -0.000000 0.000000 0.207853 -0.000000 0.000000 0.212269 -0.000000 0.000000 0.215672 -0.000000 0.000000 0.218516 -0.000000 0.000000 0.220430 -0.000000 0.000000 0.221722 -0.000000 0.000000 0.222188 -0.000000 0.000000 0.221984 -0.000000 0.000000 0.221079 -0.000000 0.000000 0.219467 -0.000000 0.000000 0.217295 -0.000000 0.000000 0.214392 -0.000000 0.000000 0.211081 -0.000000 0.000000 0.207023 -0.000000 0.000000 0.202717 -0.000000 0.000000 0.197653 -0.000000 0.000000 0.192505 -0.000000 0.000000 0.186593 -0.000000 0.000000 0.180758 -0.000000 0.000000 0.174154 -0.000000 0.000000 0.167784 -0.000000 0.000000 0.160638 -0.000000 0.000000 0.153877 -0.000000 0.000000 0.146330 -0.000000 0.000000 0.139306 -0.000000 0.000000 0.131483 -0.000000 0.000000 0.124308 -0.000000 0.000000 0.116317 -0.000000 0.000000 0.109084 -0.000000 0.000000 0.101014 -0.000000 0.000000 0.093797 -0.000000 0.000000 0.085717 -0.000000 0.000000 0.078571 -0.000000 0.000000 0.070531 -0.000000 0.000000 0.063490 -0.000000 0.000000 0.055523 -0.000000 0.000000 0.048606 -0.000000 0.000000 0.040731 -0.000000 0.000000 0.033942 -0.000000 0.000000 0.026164 -0.000000 0.000000 0.019494 -0.000000 0.000000 0.011810 -0.000000 0.000000 0.005244 -0.000000 0.000000 -0.002355 -0.000000 0.000000 -0.008841 -0.000000 0.000000 -0.016367 -0.000000 0.000000 -0.022796 -0.000000 0.000000 -0.030260 -0.000000 0.000000 -0.036657 -0.000000 0.000000 -0.044067 -0.000000 0.000000 -0.050452 -0.000000 0.000000 -0.057809 -0.000000 0.000000 -0.064197 -0.000000 0.000000 -0.071495 -0.000000 0.000000 -0.077893 -0.000000 0.000000 -0.085118 -0.000000 0.000000 -0.091520 -0.000000 0.000000 -0.098645 -0.000000 0.000000 -0.105036 -0.000000 0.000000 -0.112025 -0.000000 0.000000 -0.118374 -0.000000 0.000000 -0.125178 -0.000000 0.000000 -0.131441 -0.000000 0.000000 -0.137998 -0.000000 0.000000 -0.144114 -0.000000 0.000000 -0.150351 -0.000000 0.000000 -0.156246 -0.000000 0.000000 -0.162078 -0.000000 0.000000 -0.167662 -0.000000 0.000000 -0.172994 -0.000000 0.000000 -0.178165 -0.000000 0.000000 -0.182895 -0.000000 0.000000 -0.187540 -0.000000 0.000000 -0.191561 -0.000000 0.000000 -0.195561 -0.000000 0.000000 -0.198761 -0.000000 0.000000 -0.201995 -0.000000 0.000000 -0.204267 -0.000000 0.000000 -0.206616 -0.000000 0.000000 -0.207856 -0.000000 0.000000 -0.209208 -0.000000 0.000000 -0.209323 -0.000000 0.000000 -0.209579 -0.000000 0.000000 -0.208491 -0.000000 0.000000 -0.207566 -0.000000 0.000000 -0.205213 -0.000000 0.000000 -0.203045 -0.000000 0.000000 -0.199388 -0.000000 0.000000 -0.195936 -0.000000 0.000000 -0.190957 -0.000000 0.000000 -0.186207 -0.000000 0.000000 -0.179914 -0.000000 0.000000 -0.173877 -0.000000 0.000000 -0.166303 -0.000000 0.000000 -0.159019 -0.000000 0.000000 -0.150223 -0.000000 0.000000 -0.141756 -0.000000 0.000000 -0.131824 -0.000000 0.000000 -0.122266 -0.000000 0.000000 -0.111307 -0.000000 0.000000 -0.100775 -0.000000 0.000000 -0.088922 -0.000000 0.000000 -0.077555 -0.000000 0.000000 
-0.065048 -0.012316 0.000000 -0.052977 -0.012598 0.000000 -0.039791 -0.012844 0.000000 -0.027223 -0.013030 0.000000 -0.013664 -0.013179 0.000000 -0.000796 -0.013262 0.000000 0.012928 -0.013306 0.000000 0.025888 -0.013281 0.000000 0.039561 -0.013217 0.000000 0.052395 -0.013080 0.000000 0.065793 -0.012908 0.000000 0.078281 -0.012659 0.000000 0.091182 -0.012378 0.000000 0.103106 -0.012021 0.000000 0.115291 -0.011636 0.000000 0.126443 -0.011177 0.000000 0.137706 -0.010695 0.000000 0.147892 -0.010142 0.000000 0.158045 -0.009576 0.000000 0.167093 -0.008942 0.000000 0.175975 -0.008304 0.000000 0.183741 -0.007604 0.000000 0.191218 -0.006911 0.000000 0.197592 -0.006163 0.000000 0.203568 -0.005434 0.000000 0.208476 -0.004657 0.000000 0.212893 -0.003910 0.000000 0.216301 -0.003124 0.000000 0.219138 -0.002379 0.000000 0.221050 -0.001603 0.000000 0.222329 -0.000879 0.000000 0.222788 -0.000131 0.000000 0.222565 0.000555 0.000000 0.221648 0.001258 0.000000 0.220012 0.001892 0.000000 0.217823 0.002537 0.000000 0.214891 0.003107 0.000000 0.211560 0.003685 0.000000 0.207468 0.004182 0.000000 0.203141 0.004685 0.000000 0.198040 0.005106 0.000000 0.192869 0.005530 0.000000 0.186917 0.005874 0.000000 0.181060 0.006220 0.000000 0.174414 0.006487 0.000000 0.168023 0.006758 0.000000 0.160835 0.006954 0.000000 0.154054 0.007154 0.000000 0.146465 0.007286 0.000000 0.139423 0.007424 0.000000 0.131560 0.007499 0.000000 0.124369 0.007583 0.000000 0.116339 0.007612 0.000000 0.109094 0.007651 0.000000 0.100987 0.007643 0.000000 0.093761 0.007648 0.000000 0.085646 0.007613 0.000000 0.078493 0.007593 0.000000 0.070422 0.007540 0.000000 0.063377 0.007504 0.000000 0.055383 0.007442 0.000000 0.048464 0.007396 0.000000 0.040564 0.007332 0.000000 0.033775 0.007284 0.000000 0.025977 0.007224 0.000000 0.019308 0.007177 0.000000 0.011607 0.007125 0.000000 0.005042 0.007083 0.000000 -0.002570 0.007042 0.000000 -0.009054 0.007006 0.000000 -0.016590 0.006978 0.000000 -0.023018 0.006947 0.000000 -0.030488 0.006930 0.000000 -0.036885 0.006903 0.000000 -0.044298 0.006897 0.000000 -0.050684 0.006871 0.000000 -0.058042 0.006872 0.000000 -0.064432 0.006843 0.000000 -0.071730 0.006848 0.000000 -0.078131 0.006811 0.000000 -0.085353 0.006814 0.000000 -0.091762 0.006764 0.000000 -0.098883 0.006758 0.000000 -0.105282 0.006690 0.000000 -0.112266 0.006669 0.000000 -0.118626 0.006576 0.000000 -0.125424 0.006533 0.000000 -0.131700 0.006410 0.000000 -0.138250 0.006337 0.000000 -0.144383 0.006177 0.000000 -0.150612 0.006066 0.000000 -0.156526 0.005863 0.000000 -0.162351 0.005708 0.000000 -0.167955 0.005458 0.000000 -0.173280 0.005252 0.000000 -0.178472 0.004951 0.000000 -0.183196 0.004688 0.000000 -0.187863 0.004333 0.000000 -0.191877 0.004010 0.000000 -0.195900 0.003600 0.000000 -0.199093 0.003217 0.000000 -0.202349 0.002753 0.000000 -0.204613 0.002310 0.000000 -0.206983 0.001794 0.000000 -0.208215 0.001296 0.000000 -0.209585 0.000734 0.000000 -0.209692 0.000185 0.000000 -0.209963 -0.000416 0.000000 -0.208864 -0.001006 0.000000 -0.207952 -0.001639 0.000000 -0.205587 -0.002260 0.000000 -0.203427 -0.002913 0.000000 -0.199756 -0.003554 0.000000 -0.196308 -0.004215 0.000000 -0.191313 -0.004865 0.000000 -0.186562 -0.005522 0.000000 -0.180251 -0.006165 0.000000 -0.174209 -0.006805 0.000000 -0.166614 -0.007429 0.000000 -0.159320 -0.008040 0.000000 -0.150502 -0.008631 0.000000 -0.142020 -0.009200 0.000000 -0.132063 -0.009745 0.000000 -0.122487 -0.010258 0.000000 -0.111501 -0.010746 0.000000 -0.100945 -0.011192 0.000000 -0.089064 -0.011610 0.000000 -0.077670 -0.011979 0.000000 
-0.065583 -0.024693 0.000000 -0.053453 -0.025258 0.000000 -0.040202 -0.025754 0.000000 -0.027570 -0.026127 0.000000 -0.013941 -0.026427 0.000000 -0.001005 -0.026593 0.000000 0.012794 -0.026684 0.000000 0.025825 -0.026633 0.000000 0.039575 -0.026507 0.000000 0.052480 -0.026232 0.000000 0.065957 -0.025887 0.000000 0.078515 -0.025389 0.000000 0.091492 -0.024825 0.000000 0.103484 -0.024109 0.000000 0.115741 -0.023337 0.000000 0.126955 -0.022415 0.000000 0.138284 -0.021449 0.000000 0.148524 -0.020339 0.000000 0.158735 -0.019201 0.000000 0.167827 -0.017929 0.000000 0.176756 -0.016648 0.000000 0.184555 -0.015243 0.000000 0.192068 -0.013851 0.000000 0.198462 -0.012350 0.000000 0.204461 -0.010884 0.000000 0.209376 -0.009325 0.000000 0.213801 -0.007824 0.000000 0.217203 -0.006245 0.000000 0.220037 -0.004750 0.000000 0.221930 -0.003191 0.000000 0.223193 -0.001738 0.000000 0.223622 -0.000236 0.000000 0.223373 0.001141 0.000000 0.222415 0.002554 0.000000 0.220746 0.003824 0.000000 0.218510 0.005121 0.000000 0.215539 0.006263 0.000000 0.212156 0.007423 0.000000 0.208023 0.008420 0.000000 0.203640 0.009429 0.000000 0.198498 0.010271 0.000000 0.193272 0.011123 0.000000 0.187281 0.011809 0.000000 0.181371 0.012503 0.000000 0.174691 0.013037 0.000000 0.168250 0.013579 0.000000 0.161034 0.013969 0.000000 0.154208 0.014370 0.000000 0.146598 0.014631 0.000000 0.139518 0.014906 0.000000 0.131641 0.015054 0.000000 0.124419 0.015221 0.000000 0.116383 0.015275 0.000000 0.109114 0.015352 0.000000 0.101008 0.015333 0.000000 0.093765 0.015341 0.000000 0.085659 0.015268 0.000000 0.078495 0.015224 0.000000 0.070439 0.015116 0.000000 0.063389 0.015039 0.000000 0.055413 0.014913 0.000000 0.048494 0.014818 0.000000 0.040616 0.014689 0.000000 0.033831 0.014588 0.000000 0.026054 0.014467 0.000000 0.019393 0.014369 0.000000 0.011714 0.014266 0.000000 0.005158 0.014177 0.000000 -0.002435 0.014096 0.000000 -0.008909 0.014020 0.000000 -0.016429 0.013964 0.000000 -0.022847 0.013898 0.000000 -0.030307 0.013867 0.000000 -0.036693 0.013810 0.000000 -0.044102 0.013799 0.000000 -0.050480 0.013744 0.000000 -0.057840 0.013748 0.000000 -0.064225 0.013688 0.000000 -0.071531 0.013699 0.000000 -0.077930 0.013623 0.000000 -0.085168 0.013631 0.000000 -0.091578 0.013530 0.000000 -0.098723 0.013521 0.000000 -0.105128 0.013383 0.000000 -0.112142 0.013344 0.000000 -0.118514 0.013158 0.000000 -0.125348 0.013074 0.000000 -0.131641 0.012827 0.000000 -0.138234 0.012683 0.000000 -0.144388 0.012362 0.000000 -0.150667 0.012143 0.000000 -0.156607 0.011738 0.000000 -0.162486 0.011429 0.000000 -0.168121 0.010930 0.000000 -0.173505 0.010518 0.000000 -0.178732 0.009916 0.000000 -0.183516 0.009391 0.000000 -0.188220 0.008681 0.000000 -0.192296 0.008036 0.000000 -0.196357 0.007216 0.000000 -0.199611 0.006449 0.000000 -0.202905 0.005520 0.000000 -0.205228 0.004634 0.000000 -0.207632 0.003601 0.000000 -0.208919 0.002602 0.000000 -0.210321 0.001477 0.000000 -0.210475 0.000377 0.000000 -0.210772 -0.000828 0.000000 -0.209715 -0.002011 0.000000 -0.208822 -0.003277 0.000000 -0.206489 -0.004525 0.000000 -0.204341 -0.005831 0.000000 -0.200692 -0.007119 0.000000 -0.197248 -0.008443 0.000000 -0.192264 -0.009746 0.000000 -0.187509 -0.011062 0.000000 -0.181198 -0.012353 0.000000 -0.175143 -0.013636 0.000000 -0.167539 -0.014889 0.000000 -0.160222 -0.016113 0.000000 -0.151383 -0.017300 0.000000 -0.142871 -0.018438 0.000000 -0.132883 -0.019534 0.000000 -0.123268 -0.020563 0.000000 -0.112242 -0.021541 0.000000 -0.101640 -0.022437 0.000000 -0.089709 -0.023275 0.000000 -0.078262 -0.024015 0.000000 
-0.066292 -0.037125 0.000000 -0.054040 -0.037979 0.000000 -0.040661 -0.038727 0.000000 -0.027897 -0.039291 0.000000 -0.014131 -0.039744 0.000000 -0.001054 -0.039997 0.000000 0.012887 -0.040136 0.000000 0.026064 -0.040061 0.000000 0.039960 -0.039873 0.000000 0.053014 -0.039462 0.000000 0.066636 -0.038943 0.000000 0.079342 -0.038195 0.000000 0.092460 -0.037347 0.000000 0.104594 -0.036270 0.000000 0.116985 -0.035107 0.000000 0.128330 -0.033720 0.000000 0.139781 -0.032264 0.000000 0.150138 -0.030594 0.000000 0.160455 -0.028879 0.000000 0.169646 -0.026963 0.000000 0.178660 -0.025032 0.000000 0.186536 -0.022916 0.000000 0.194111 -0.020818 0.000000 0.200558 -0.018556 0.000000 0.206593 -0.016347 0.000000 0.211536 -0.013997 0.000000 0.215971 -0.011737 0.000000 0.219374 -0.009359 0.000000 0.222192 -0.007106 0.000000 0.224062 -0.004759 0.000000 0.225284 -0.002571 0.000000 0.225666 -0.000311 0.000000 0.225354 0.001761 0.000000 0.224331 0.003885 0.000000 0.222578 0.005797 0.000000 0.220261 0.007744 0.000000 0.217192 0.009461 0.000000 0.213716 0.011201 0.000000 0.209473 0.012698 0.000000 0.204991 0.014210 0.000000 0.199733 0.015474 0.000000 0.194406 0.016747 0.000000 0.188296 0.017775 0.000000 0.182286 0.018810 0.000000 0.175488 0.019608 0.000000 0.168954 0.020414 0.000000 0.161625 0.020996 0.000000 0.154714 0.021590 0.000000 0.146998 0.021976 0.000000 0.139843 0.022381 0.000000 0.131871 0.022598 0.000000 0.124587 0.022841 0.000000 0.116467 0.022917 0.000000 0.109148 0.023026 0.000000 0.100971 0.022992 0.000000 0.093691 0.022998 0.000000 0.085525 0.022883 0.000000 0.078337 0.022814 0.000000 0.070232 0.022647 0.000000 0.063169 0.022529 0.000000 0.055157 0.022336 0.000000 0.048234 0.022193 0.000000 0.040329 0.021996 0.000000 0.033548 0.021845 0.000000 0.025753 0.021661 0.000000 0.019101 0.021518 0.000000 0.011409 0.021360 0.000000 0.004867 0.021232 0.000000 -0.002734 0.021109 0.000000 -0.009192 0.021000 0.000000 -0.016717 0.020915 0.000000 -0.023120 0.020824 0.000000 -0.030583 0.020777 0.000000 -0.036958 0.020698 0.000000 -0.044369 0.020684 0.000000 -0.050740 0.020609 0.000000 -0.058104 0.020617 0.000000 -0.064488 0.020534 0.000000 -0.071800 0.020553 0.000000 -0.078206 0.020448 0.000000 -0.085453 0.020462 0.000000 -0.091878 0.020319 0.000000 -0.099036 0.020308 0.000000 -0.105465 0.020109 0.000000 -0.112498 0.020055 0.000000 -0.118903 0.019782 0.000000 -0.125761 0.019661 0.000000 -0.132098 0.019296 0.000000 -0.138721 0.019084 0.000000 -0.144929 0.018610 0.000000 -0.151243 0.018285 0.000000 -0.157246 0.017682 0.000000 -0.163165 0.017222 0.000000 -0.168872 0.016477 0.000000 -0.174300 0.015862 0.000000 -0.179605 0.014962 0.000000 -0.184437 0.014176 0.000000 -0.189223 0.013113 0.000000 -0.193347 0.012147 0.000000 -0.197492 0.010916 0.000000 -0.200794 0.009765 0.000000 -0.204170 0.008369 0.000000 -0.206537 0.007038 0.000000 -0.209019 0.005486 0.000000 -0.210344 0.003984 0.000000 -0.211815 0.002290 0.000000 -0.212000 0.000637 0.000000 -0.212355 -0.001177 0.000000 -0.211317 -0.002957 0.000000 -0.210469 -0.004864 0.000000 -0.208144 -0.006741 0.000000 -0.206025 -0.008710 0.000000 -0.202370 -0.010648 0.000000 -0.198938 -0.012643 0.000000 -0.193935 -0.014604 0.000000 -0.189173 -0.016588 0.000000 -0.182827 -0.018531 0.000000 -0.176747 -0.020465 0.000000 -0.169093 -0.022351 0.000000 -0.161733 -0.024195 0.000000 -0.152829 -0.025982 0.000000 -0.144256 -0.027699 0.000000 -0.134189 -0.029348 0.000000 -0.124496 -0.030900 0.000000 -0.113376 -0.032373 0.000000 -0.102681 -0.033725 0.000000 -0.090644 -0.034987 0.000000 -0.079089 -0.036105 0.000000 
-0.067459 -0.049741 0.000000 -0.055057 -0.050888 0.000000 -0.041517 -0.051898 0.000000 -0.028589 -0.052657 0.000000 -0.014649 -0.053270 0.000000 -0.001398 -0.053611 0.000000 0.012729 -0.053802 0.000000 0.026086 -0.053705 0.000000 0.040172 -0.053457 0.000000 0.053409 -0.052909 0.000000 0.067223 -0.052214 0.000000 0.080109 -0.051213 0.000000 0.093415 -0.050077 0.000000 0.105722 -0.048634 0.000000 0.118291 -0.047073 0.000000 0.129796 -0.045211 0.000000 0.141409 -0.043257 0.000000 0.151908 -0.041013 0.000000 0.162365 -0.038709 0.000000 0.171674 -0.036134 0.000000 0.180802 -0.033538 0.000000 0.188768 -0.030694 0.000000 0.196427 -0.027873 0.000000 0.202932 -0.024833 0.000000 0.209018 -0.021862 0.000000 0.213985 -0.018703 0.000000 0.218439 -0.015663 0.000000 0.221832 -0.012466 0.000000 0.224635 -0.009437 0.000000 0.226464 -0.006283 0.000000 0.227640 -0.003343 0.000000 0.227953 -0.000306 0.000000 0.227568 0.002476 0.000000 0.226450 0.005329 0.000000 0.224604 0.007894 0.000000 0.222173 0.010508 0.000000 0.218994 0.012808 0.000000 0.215392 0.015141 0.000000 0.211030 0.017144 0.000000 0.206414 0.019169 0.000000 0.201034 0.020857 0.000000 0.195571 0.022560 0.000000 0.189342 0.023929 0.000000 0.183201 0.025311 0.000000 0.176291 0.026369 0.000000 0.169635 0.027442 0.000000 0.162206 0.028209 0.000000 0.155185 0.028996 0.000000 0.147385 0.029501 0.000000 0.140135 0.030033 0.000000 0.132095 0.030311 0.000000 0.124732 0.030625 0.000000 0.116563 0.030714 0.000000 0.109183 0.030848 0.000000 0.100974 0.030790 0.000000 0.093649 0.030786 0.000000 0.085469 0.030621 0.000000 0.078252 0.030517 0.000000 0.070147 0.030284 0.000000 0.063070 0.030115 0.000000 0.055069 0.029848 0.000000 0.048145 0.029646 0.000000 0.040260 0.029375 0.000000 0.033488 0.029164 0.000000 0.025718 0.028914 0.000000 0.019083 0.028713 0.000000 0.011419 0.028500 0.000000 0.004898 0.028320 0.000000 -0.002676 0.028156 0.000000 -0.009111 0.028003 0.000000 -0.016614 0.027892 0.000000 -0.022994 0.027764 0.000000 -0.030441 0.027705 0.000000 -0.036796 0.027596 0.000000 -0.044200 0.027581 0.000000 -0.050556 0.027479 0.000000 -0.057923 0.027496 0.000000 -0.064298 0.027384 0.000000 -0.071627 0.027417 0.000000 -0.078031 0.027276 0.000000 -0.085308 0.027303 0.000000 -0.091742 0.027113 0.000000 -0.098942 0.027108 0.000000 -0.105392 0.026845 0.000000 -0.112479 0.026782 0.000000 -0.118918 0.026421 0.000000 -0.125844 0.026269 0.000000 -0.132227 0.025786 0.000000 -0.138931 0.025514 0.000000 -0.145198 0.024884 0.000000 -0.151604 0.024460 0.000000 -0.157679 0.023661 0.000000 -0.163701 0.023055 0.000000 -0.169491 0.022064 0.000000 -0.175029 0.021251 0.000000 -0.180426 0.020053 0.000000 -0.185374 0.019009 0.000000 -0.190258 0.017592 0.000000 -0.194501 0.016305 0.000000 -0.198746 0.014663 0.000000 -0.202165 0.013127 0.000000 -0.205639 0.011263 0.000000 -0.208118 0.009483 0.000000 -0.210693 0.007408 0.000000 -0.212120 0.005398 0.000000 -0.213674 0.003133 0.000000 -0.213948 0.000917 0.000000 -0.214372 -0.001510 0.000000 -0.213408 -0.003897 0.000000 -0.212611 -0.006451 0.000000 -0.210339 -0.008968 0.000000 -0.208252 -0.011605 0.000000 -0.204629 -0.014206 0.000000 -0.201208 -0.016879 0.000000 -0.196213 -0.019511 0.000000 -0.191440 -0.022169 0.000000 -0.185080 -0.024779 0.000000 -0.178966 -0.027371 0.000000 -0.171272 -0.029903 0.000000 -0.163856 -0.032376 0.000000 -0.154890 -0.034776 0.000000 -0.146239 -0.037078 0.000000 -0.136087 -0.039294 0.000000 -0.126295 -0.041375 0.000000 -0.115069 -0.043356 0.000000 -0.104256 -0.045169 0.000000 -0.092092 -0.046868 0.000000 -0.080402 -0.048368 0.000000 
-0.068815 -0.062469 0.000000 -0.056200 -0.063921 0.000000 -0.042432 -0.065196 0.000000 -0.029271 -0.066159 0.000000 -0.015088 -0.066936 0.000000 -0.001589 -0.067374 0.000000 0.012791 -0.067619 0.000000 0.026407 -0.067505 0.000000 0.040754 -0.067197 0.000000 0.054255 -0.066513 0.000000 0.068329 -0.065643 0.000000 0.081477 -0.064388 0.000000 0.095038 -0.062960 0.000000 0.107596 -0.061146 0.000000 0.120406 -0.059181 0.000000 0.132145 -0.056838 0.000000 0.143977 -0.054376 0.000000 0.154684 -0.051549 0.000000 0.165331 -0.048645 0.000000 0.174815 -0.045400 0.000000 0.184098 -0.042126 0.000000 0.192199 -0.038541 0.000000 0.199971 -0.034982 0.000000 0.206568 -0.031148 0.000000 0.212722 -0.027401 0.000000 0.217733 -0.023418 0.000000 0.222207 -0.019584 0.000000 0.225598 -0.015555 0.000000 0.228374 -0.011737 0.000000 0.230155 -0.007765 0.000000 0.231260 -0.004060 0.000000 0.231484 -0.000239 0.000000 0.230988 0.003263 0.000000 0.229747 0.006849 0.000000 0.227756 0.010074 0.000000 0.225174 0.013354 0.000000 0.221823 0.016242 0.000000 0.218051 0.019165 0.000000 0.213499 0.021676 0.000000 0.208702 0.024206 0.000000 0.203122 0.026317 0.000000 0.197475 0.028439 0.000000 0.191043 0.030145 0.000000 0.184722 0.031861 0.000000 0.177615 0.033174 0.000000 0.170790 0.034500 0.000000 0.163174 0.035445 0.000000 0.156000 0.036411 0.000000 0.148030 0.037026 0.000000 0.140647 0.037671 0.000000 0.132455 0.038001 0.000000 0.124982 0.038373 0.000000 0.116683 0.038466 0.000000 0.109216 0.038615 0.000000 0.100900 0.038525 0.000000 0.093513 0.038503 0.000000 0.085247 0.038280 0.000000 0.077990 0.038135 0.000000 0.069821 0.037829 0.000000 0.062723 0.037608 0.000000 0.054677 0.037261 0.000000 0.047750 0.037002 0.000000 0.039836 0.036653 0.000000 0.033075 0.036387 0.000000 0.025290 0.036066 0.000000 0.018675 0.035817 0.000000 0.011005 0.035545 0.000000 0.004511 0.035327 0.000000 -0.003063 0.035119 0.000000 -0.009468 0.034937 0.000000 -0.016968 0.034798 0.000000 -0.023319 0.034651 0.000000 -0.030764 0.034579 0.000000 -0.037095 0.034458 0.000000 -0.044499 0.034444 0.000000 -0.050838 0.034332 0.000000 -0.058211 0.034360 0.000000 -0.064580 0.034238 0.000000 -0.071921 0.034286 0.000000 -0.078333 0.034129 0.000000 -0.085630 0.034172 0.000000 -0.092086 0.033953 0.000000 -0.099317 0.033958 0.000000 -0.105806 0.033647 0.000000 -0.112936 0.033580 0.000000 -0.119430 0.033147 0.000000 -0.126410 0.032970 0.000000 -0.132867 0.032383 0.000000 -0.139636 0.032055 0.000000 -0.145996 0.031283 0.000000 -0.152480 0.030766 0.000000 -0.158664 0.029779 0.000000 -0.164774 0.029033 0.000000 -0.170689 0.027805 0.000000 -0.176324 0.026797 0.000000 -0.181858 0.025306 0.000000 -0.186909 0.024009 0.000000 -0.191939 0.022240 0.000000 -0.196287 0.020634 0.000000 -0.200680 0.018580 0.000000 -0.204204 0.016659 0.000000 -0.207824 0.014323 0.000000 -0.210401 0.012092 0.000000 -0.213113 0.009488 0.000000 -0.214628 0.006965 0.000000 -0.216304 0.004118 0.000000 -0.216651 0.001335 0.000000 -0.217177 -0.001718 0.000000 -0.216266 -0.004719 0.000000 -0.215547 -0.007933 0.000000 -0.213305 -0.011099 0.000000 -0.211269 -0.014420 0.000000 -0.207650 -0.017692 0.000000 -0.204249 -0.021059 0.000000 -0.199231 -0.024371 0.000000 -0.194446 -0.027721 0.000000 -0.188034 -0.031006 0.000000 -0.181876 -0.034273 0.000000 -0.174102 -0.037460 0.000000 -0.166610 -0.040578 0.000000 -0.157536 -0.043599 0.000000 -0.148778 -0.046503 0.000000 -0.138490 -0.049292 0.000000 -0.128561 -0.051918 0.000000 -0.117173 -0.054413 0.000000 -0.106195 -0.056701 0.000000 -0.093846 -0.058842 0.000000 -0.081965 -0.060738 0.000000 
-0.070646 -0.075506 0.000000 -0.057787 -0.077271 0.000000 -0.043758 -0.078826 0.000000 -0.030332 -0.080000 0.000000 -0.015866 -0.080952 0.000000 -0.002084 -0.081491 0.000000 0.012595 -0.081799 0.000000 0.026506 -0.081668 0.000000 0.041161 -0.081305 0.000000 0.054961 -0.080484 0.000000 0.069346 -0.079437 0.000000 0.082790 -0.077922 0.000000 0.096655 -0.076196 0.000000 0.109498 -0.074001 0.000000 0.122596 -0.071622 0.000000 0.134600 -0.068782 0.000000 0.146695 -0.065796 0.000000 0.157636 -0.062367 0.000000 0.168512 -0.058841 0.000000 0.178191 -0.054901 0.000000 0.187660 -0.050922 0.000000 0.195910 -0.046568 0.000000 0.203818 -0.042241 0.000000 0.210511 -0.037583 0.000000 0.216747 -0.033027 0.000000 0.221800 -0.028188 0.000000 0.226300 -0.023527 0.000000 0.229678 -0.018633 0.000000 0.232424 -0.013994 0.000000 0.234139 -0.009169 0.000000 0.235164 -0.004672 0.000000 0.235274 -0.000034 0.000000 0.234654 0.004214 0.000000 0.233259 0.008561 0.000000 0.231108 0.012467 0.000000 0.228340 0.016440 0.000000 0.224803 0.019931 0.000000 0.220823 0.023465 0.000000 0.216069 0.026493 0.000000 0.211053 0.029547 0.000000 0.205264 0.032084 0.000000 0.199396 0.034639 0.000000 0.192760 0.036681 0.000000 0.186225 0.038738 0.000000 0.178925 0.040301 0.000000 0.171901 0.041883 0.000000 0.164111 0.042998 0.000000 0.156759 0.044141 0.000000 0.148638 0.044855 0.000000 0.141102 0.045608 0.000000 0.132788 0.045975 0.000000 0.125188 0.046397 0.000000 0.116796 0.046480 0.000000 0.109231 0.046632 0.000000 0.100850 0.046494 0.000000 0.093393 0.046439 0.000000 0.085090 0.046144 0.000000 0.077789 0.045943 0.000000 0.069606 0.045551 0.000000 0.062490 0.045259 0.000000 0.054450 0.044822 0.000000 0.047523 0.044487 0.000000 0.039632 0.044051 0.000000 0.032887 0.043711 0.000000 0.025133 0.043313 0.000000 0.018548 0.042997 0.000000 0.010915 0.042663 0.000000 0.004457 0.042388 0.000000 -0.003081 0.042135 0.000000 -0.009447 0.041908 0.000000 -0.016915 0.041743 0.000000 -0.023228 0.041561 0.000000 -0.030650 0.041480 0.000000 -0.036948 0.041332 0.000000 -0.044342 0.041325 0.000000 -0.050656 0.041191 0.000000 -0.058034 0.041238 0.000000 -0.064388 0.041094 0.000000 -0.071752 0.041169 0.000000 -0.078163 0.040985 0.000000 -0.085501 0.041056 0.000000 -0.091973 0.040800 0.000000 -0.099265 0.040828 0.000000 -0.105787 0.040463 0.000000 -0.112997 0.040406 0.000000 -0.119546 0.039896 0.000000 -0.126626 0.039706 0.000000 -0.133159 0.039013 0.000000 -0.140047 0.038643 0.000000 -0.146505 0.037727 0.000000 -0.153125 0.037128 0.000000 -0.159428 0.035955 0.000000 -0.165691 0.035079 0.000000 -0.171743 0.033615 0.000000 -0.177544 0.032420 0.000000 -0.183230 0.030637 0.000000 -0.188456 0.029090 0.000000 -0.193648 0.026970 0.000000 -0.198175 0.025046 0.000000 -0.202735 0.022580 0.000000 -0.206435 0.020271 0.000000 -0.210219 0.017460 0.000000 -0.212966 0.014772 0.000000 -0.215832 0.011635 0.000000 -0.217501 0.008589 0.000000 -0.219315 0.005156 0.000000 -0.219795 0.001791 0.000000 -0.220437 -0.001895 0.000000 -0.219632 -0.005528 0.000000 -0.219000 -0.009411 0.000000 -0.216835 -0.013246 0.000000 -0.214853 -0.017260 0.000000 -0.211277 -0.021226 0.000000 -0.207895 -0.025298 0.000000 -0.202883 -0.029314 0.000000 -0.198081 -0.033366 0.000000 -0.191637 -0.037349 0.000000 -0.185426 -0.041303 0.000000 -0.177583 -0.045169 0.000000 -0.170001 -0.048943 0.000000 -0.160820 -0.052609 0.000000 -0.151937 -0.056125 0.000000 -0.141507 -0.059511 0.000000 -0.131420 -0.062692 0.000000 -0.119856 -0.065722 0.000000 -0.108689 -0.068496 0.000000 -0.096131 -0.071098 0.000000 -0.084033 -0.073398 0.000000 
-0.072691 -0.088715 0.000000 -0.059523 -0.090809 0.000000 -0.045165 -0.092651 0.000000 -0.031401 -0.094052 0.000000 -0.016582 -0.095183 0.000000 -0.002439 -0.095835 0.000000 0.012611 -0.096209 0.000000 0.026898 -0.096070 0.000000 0.041935 -0.095652 0.000000 0.056119 -0.094698 0.000000 0.070889 -0.093472 0.000000 0.084715 -0.091697 0.000000 0.098956 -0.089667 0.000000 0.112167 -0.087087 0.000000 0.125622 -0.084283 0.000000 0.137968 -0.080937 0.000000 0.150390 -0.077412 0.000000 0.161636 -0.073367 0.000000 0.172795 -0.069201 0.000000 0.182731 -0.064548 0.000000 0.192429 -0.059844 0.000000 0.200878 -0.054698 0.000000 0.208953 -0.049583 0.000000 0.215780 -0.044077 0.000000 0.222115 -0.038690 0.000000 0.227231 -0.032971 0.000000 0.231760 -0.027461 0.000000 0.235130 -0.021680 0.000000 0.237835 -0.016199 0.000000 0.239475 -0.010505 0.000000 0.240393 -0.005195 0.000000 0.240367 0.000271 0.000000 0.239581 0.005279 0.000000 0.237998 0.010396 0.000000 0.235632 0.014993 0.000000 0.232636 0.019659 0.000000 0.228847 0.023759 0.000000 0.224610 0.027899 0.000000 0.219578 0.031446 0.000000 0.214290 0.035011 0.000000 0.208210 0.037973 0.000000 0.202067 0.040943 0.000000 0.195138 0.043316 0.000000 0.188337 0.045695 0.000000 0.180754 0.047499 0.000000 0.173480 0.049314 0.000000 0.165425 0.050587 0.000000 0.157849 0.051884 0.000000 0.149488 0.052683 0.000000 0.141758 0.053522 0.000000 0.133234 0.053914 0.000000 0.125476 0.054365 0.000000 0.116906 0.054424 0.000000 0.109218 0.054561 0.000000 0.100694 0.054363 0.000000 0.093149 0.054263 0.000000 0.084736 0.053884 0.000000 0.077381 0.053618 0.000000 0.069120 0.053129 0.000000 0.061978 0.052764 0.000000 0.053888 0.052227 0.000000 0.046963 0.051820 0.000000 0.039044 0.051290 0.000000 0.032320 0.050885 0.000000 0.024558 0.050405 0.000000 0.018007 0.050036 0.000000 0.010378 0.049636 0.000000 0.003965 0.049322 0.000000 -0.003561 0.049023 0.000000 -0.009880 0.048771 0.000000 -0.017334 0.048579 0.000000 -0.023601 0.048387 0.000000 -0.031012 0.048298 0.000000 -0.037270 0.048150 0.000000 -0.044660 0.048152 0.000000 -0.050945 0.048024 0.000000 -0.058329 0.048093 0.000000 -0.064670 0.047955 0.000000 -0.072051 0.048061 0.000000 -0.078467 0.047879 0.000000 -0.085838 0.047982 0.000000 -0.092336 0.047716 0.000000 -0.099676 0.047772 0.000000 -0.106249 0.047380 0.000000 -0.113525 0.047339 0.000000 -0.120151 0.046776 0.000000 -0.127315 0.046583 0.000000 -0.133952 0.045804 0.000000 -0.140943 0.045401 0.000000 -0.147532 0.044361 0.000000 -0.154273 0.043689 0.000000 -0.160734 0.042344 0.000000 -0.167135 0.041347 0.000000 -0.173368 0.039658 0.000000 -0.179321 0.038285 0.000000 -0.185207 0.036218 0.000000 -0.190595 0.034427 0.000000 -0.196001 0.031959 0.000000 -0.200695 0.029721 0.000000 -0.205473 0.026840 0.000000 -0.209340 0.024143 0.000000 -0.213338 0.020853 0.000000 -0.216242 0.017704 0.000000 -0.219311 0.014023 0.000000 -0.221121 0.010448 0.000000 -0.223116 0.006413 0.000000 -0.223715 0.002457 0.000000 -0.224508 -0.001881 0.000000 -0.223793 -0.006155 0.000000 -0.223277 -0.010729 0.000000 -0.221166 -0.015246 0.000000 -0.219258 -0.019978 0.000000 -0.215698 -0.024650 0.000000 -0.212346 -0.029453 0.000000 -0.207308 -0.034185 0.000000 -0.202490 -0.038967 0.000000 -0.195978 -0.043661 0.000000 -0.189702 -0.048327 0.000000 -0.181749 -0.052885 0.000000 -0.174057 -0.057340 0.000000 -0.164724 -0.061663 0.000000 -0.155685 -0.065816 0.000000 -0.145062 -0.069809 0.000000 -0.134777 -0.073569 0.000000 -0.122982 -0.077144 0.000000 -0.111576 -0.080426 0.000000 -0.098752 -0.083498 0.000000 -0.086377 -0.086223 0.000000 