# vtk DataFile Version 2.0
Comment goes here
ASCII

DATASET STRUCTURED_POINTS
FIELD FieldData 1
TIME 1 1 double
0.19000000
DIMENSIONS    128   128   1

ORIGIN    0.000   0.000   0.000
SPACING   0.039062 0.039062   1.000

POINT_DATA   16384
VECTORS u double

-0.048723 -0.000000 0.000000 -0.042829 -0.000000 0.000000 -0.036467 -0.000000 0.000000 -0.029733 -0.000000 0.000000 -0.022711 -0.000000 0.000000 -0.015265 -0.000000 0.000000 -0.007731 -0.000000 0.000000 0.000273 -0.000000 0.000000 0.008144 -0.000000 0.000000 0.016532 -0.000000 0.000000 0.024549 -0.000000 0.000000 0.033132 -0.000000 0.000000 0.041089 -0.000000 0.000000 0.049665 -0.000000 0.000000 0.057350 -0.000000 0.000000 0.065716 -0.000000 0.000000 0.072919 -0.000000 0.000000 0.080871 -0.000000 0.000000 0.087390 -0.000000 0.000000 0.094738 -0.000000 0.000000 0.100385 -0.000000 0.000000 0.106952 -0.000000 0.000000 0.111565 -0.000000 0.000000 0.117197 -0.000000 0.000000 0.120642 -0.000000 0.000000 0.125214 -0.000000 0.000000 0.127394 -0.000000 0.000000 0.130813 -0.000000 0.000000 0.131668 -0.000000 0.000000 0.133874 -0.000000 0.000000 0.133385 -0.000000 0.000000 0.134357 -0.000000 0.000000 0.132547 -0.000000 0.000000 0.132299 -0.000000 0.000000 0.129230 -0.000000 0.000000 0.127810 -0.000000 0.000000 0.123579 -0.000000 0.000000 0.121066 -0.000000 0.000000 0.115802 -0.000000 0.000000 0.112302 -0.000000 0.000000 0.106161 -0.000000 0.000000 0.101802 -0.000000 0.000000 0.094957 -0.000000 0.000000 0.089885 -0.000000 0.000000 0.082524 -0.000000 0.000000 0.076894 -0.000000 0.000000 0.069209 -0.000000 0.000000 0.063183 -0.000000 0.000000 0.055367 -0.000000 0.000000 0.049108 -0.000000 0.000000 0.041348 -0.000000 0.000000 0.035014 -0.000000 0.000000 0.027487 -0.000000 0.000000 0.021228 0.000000 0.000000 0.014092 0.000000 0.000000 0.008046 0.000000 0.000000 0.001445 0.000000 0.000000 -0.004266 0.000000 0.000000 -0.010214 0.000000 0.000000 -0.015483 0.000000 0.000000 -0.020682 0.000000 0.000000 -0.025425 0.000000 0.000000 -0.029804 0.000000 0.000000 -0.033958 0.000000 0.000000 -0.037474 0.000000 0.000000 -0.040998 0.000000 0.000000 -0.043635 0.000000 0.000000 -0.046513 0.000000 0.000000 -0.048282 0.000000 0.000000 -0.050520 0.000000 0.000000 -0.051460 0.000000 0.000000 -0.053091 0.000000 0.000000 -0.053265 -0.000000 0.000000 -0.054344 -0.000000 0.000000 -0.053840 -0.000000 0.000000 -0.054444 -0.000000 0.000000 -0.053373 -0.000000 0.000000 -0.053599 -0.000000 0.000000 -0.052088 -0.000000 0.000000 -0.052047 -0.000000 0.000000 -0.050236 -0.000000 0.000000 -0.050051 -0.000000 0.000000 -0.048089 -0.000000 0.000000 -0.047889 -0.000000 0.000000 -0.045926 -0.000000 0.000000 -0.045836 -0.000000 0.000000 -0.044015 -0.000000 0.000000 -0.044153 -0.000000 0.000000 -0.042604 -0.000000 0.000000 -0.043072 -0.000000 0.000000 -0.041904 -0.000000 0.000000 -0.042780 -0.000000 0.000000 -0.042075 -0.000000 0.000000 -0.043407 -0.000000 0.000000 -0.043214 -0.000000 0.000000 -0.045019 -0.000000 0.000000 -0.045352 -0.000000 0.000000 -0.047609 -0.000000 0.000000 -0.048442 -0.000000 0.000000 -0.051095 -0.000000 0.000000 -0.052365 -0.000000 0.000000 -0.055325 -0.000000 0.000000 -0.056936 -0.000000 0.000000 -0.060083 -0.000000 0.000000 -0.061910 -0.000000 0.000000 -0.065101 -0.000000 0.000000 -0.066996 -0.000000 0.000000 -0.070071 -0.000000 0.000000 -0.071873 -0.000000 0.000000 -0.074667 -0.000000 0.000000 -0.076209 -0.000000 0.000000 -0.078556 -0.000000 0.000000 -0.079674 -0.000000 0.000000 -0.081417 -0.000000 0.000000 -0.081960 -0.000000 0.000000 -0.082957 -0.000000 0.000000 -0.082792 -0.000000 0.000000 -0.082924 -0.000000 0.000000 -0.081942 -0.000000 0.000000 -0.081116 -0.000000 0.000000 -0.079239 -0.000000 0.000000 -0.077392 -0.000000 0.000000 -0.074574 -0.000000 0.000000 -0.071677 -0.000000 0.000000 -0.067903 -0.000000 0.000000 -0.063960 -0.000000 0.000000 -0.059255 -0.000000 0.000000 -0.054301 -0.000000 0.000000 
-0.048889 -0.005736 0.000000 -0.042994 -0.006128 0.000000 -0.036641 -0.006548 0.000000 -0.029901 -0.006878 0.000000 -0.022883 -0.007234 0.000000 -0.015428 -0.007490 0.000000 -0.007894 -0.007769 0.000000 0.000123 -0.007938 0.000000 0.007998 -0.008130 0.000000 0.016401 -0.008203 0.000000 0.024424 -0.008300 0.000000 0.033023 -0.008270 0.000000 0.040988 -0.008267 0.000000 0.049580 -0.008131 0.000000 0.057275 -0.008025 0.000000 0.065656 -0.007784 0.000000 0.072869 -0.007578 0.000000 0.080835 -0.007236 0.000000 0.087362 -0.006933 0.000000 0.094721 -0.006498 0.000000 0.100374 -0.006107 0.000000 0.106949 -0.005590 0.000000 0.111565 -0.005123 0.000000 0.117202 -0.004539 0.000000 0.120647 -0.004009 0.000000 0.125218 -0.003376 0.000000 0.127393 -0.002799 0.000000 0.130807 -0.002137 0.000000 0.131652 -0.001531 0.000000 0.133849 -0.000859 0.000000 0.133347 -0.000242 0.000000 0.134305 0.000419 0.000000 0.132477 0.001029 0.000000 0.132212 0.001659 0.000000 0.129120 0.002245 0.000000 0.127680 0.002826 0.000000 0.123423 0.003372 0.000000 0.120887 0.003888 0.000000 0.115595 0.004382 0.000000 0.112072 0.004821 0.000000 0.105900 0.005250 0.000000 0.101518 0.005602 0.000000 0.094643 0.005959 0.000000 0.089547 0.006217 0.000000 0.082155 0.006496 0.000000 0.076504 0.006657 0.000000 0.068790 0.006855 0.000000 0.062746 0.006921 0.000000 0.054903 0.007037 0.000000 0.048629 0.007009 0.000000 0.040846 0.007047 0.000000 0.034501 0.006931 0.000000 0.026954 0.006893 0.000000 0.020689 0.006697 0.000000 0.013539 0.006591 0.000000 0.007492 0.006324 0.000000 0.000882 0.006156 0.000000 -0.004824 0.005829 0.000000 -0.010774 0.005609 0.000000 -0.016034 0.005234 0.000000 -0.021228 0.004971 0.000000 -0.025956 0.004561 0.000000 -0.030324 0.004267 0.000000 -0.034456 0.003835 0.000000 -0.037955 0.003520 0.000000 -0.041450 0.003081 0.000000 -0.044063 0.002757 0.000000 -0.046907 0.002323 0.000000 -0.048645 0.002004 0.000000 -0.050845 0.001589 0.000000 -0.051747 0.001285 0.000000 -0.053335 0.000903 0.000000 -0.053465 0.000627 0.000000 -0.054498 0.000288 0.000000 -0.053945 0.000050 0.000000 -0.054500 -0.000234 0.000000 -0.053375 -0.000423 0.000000 -0.053551 -0.000643 0.000000 -0.051981 -0.000776 0.000000 -0.051892 -0.000926 0.000000 -0.050020 -0.000998 0.000000 -0.049790 -0.001073 0.000000 -0.047766 -0.001081 0.000000 -0.047524 -0.001082 0.000000 -0.045500 -0.001026 0.000000 -0.045374 -0.000955 0.000000 -0.043495 -0.000841 0.000000 -0.043605 -0.000705 0.000000 -0.042003 -0.000541 0.000000 -0.042450 -0.000350 0.000000 -0.041237 -0.000146 0.000000 -0.042101 0.000085 0.000000 -0.041360 0.000314 0.000000 -0.042690 0.000570 0.000000 -0.042471 0.000806 0.000000 -0.044284 0.001069 0.000000 -0.044601 0.001295 0.000000 -0.046876 0.001545 0.000000 -0.047704 0.001743 0.000000 -0.050383 0.001962 0.000000 -0.051659 0.002115 0.000000 -0.054653 0.002286 0.000000 -0.056280 0.002379 0.000000 -0.059466 0.002487 0.000000 -0.061318 0.002509 0.000000 -0.064551 0.002543 0.000000 -0.066479 0.002485 0.000000 -0.069599 0.002439 0.000000 -0.071439 0.002298 0.000000 -0.074278 0.002168 0.000000 -0.075861 0.001944 0.000000 -0.078251 0.001733 0.000000 -0.079413 0.001430 0.000000 -0.081196 0.001143 0.000000 -0.081783 0.000770 0.000000 -0.082815 0.000416 0.000000 -0.082692 -0.000017 0.000000 -0.082855 -0.000425 0.000000 -0.081913 -0.000904 0.000000 -0.081112 -0.001352 0.000000 -0.079270 -0.001862 0.000000 -0.077443 -0.002333 0.000000 -0.074655 -0.002858 0.000000 -0.071772 -0.003335 0.000000 -0.068024 -0.003858 0.000000 -0.064089 -0.004324 0.000000 -0.059404 -0.004829 0.000000 -0.054453 -0.005266 0.000000 
-0.049585 -0.011460 0.000000 -0.043641 -0.012248 0.000000 -0.037219 -0.013092 0.000000 -0.030420 -0.013758 0.000000 -0.023323 -0.014474 0.000000 -0.015801 -0.014989 0.000000 -0.008180 -0.015550 0.000000 -0.000089 -0.015892 0.000000 0.007879 -0.016278 0.000000 0.016362 -0.016426 0.000000 0.024482 -0.016622 0.000000 0.033164 -0.016564 0.000000 0.041227 -0.016558 0.000000 0.049905 -0.016287 0.000000 0.057696 -0.016076 0.000000 0.066163 -0.015593 0.000000 0.073467 -0.015179 0.000000 0.081516 -0.014493 0.000000 0.088127 -0.013886 0.000000 0.095563 -0.013013 0.000000 0.101292 -0.012228 0.000000 0.107936 -0.011191 0.000000 0.112615 -0.010252 0.000000 0.118310 -0.009081 0.000000 0.121805 -0.008017 0.000000 0.126424 -0.006747 0.000000 0.128633 -0.005589 0.000000 0.132081 -0.004259 0.000000 0.132945 -0.003043 0.000000 0.135162 -0.001694 0.000000 0.134662 -0.000456 0.000000 0.135628 0.000870 0.000000 0.133787 0.002094 0.000000 0.133515 0.003357 0.000000 0.130397 0.004532 0.000000 0.128937 0.005697 0.000000 0.124641 0.006792 0.000000 0.122075 0.007827 0.000000 0.116734 0.008816 0.000000 0.113170 0.009695 0.000000 0.106941 0.010554 0.000000 0.102510 0.011258 0.000000 0.095572 0.011971 0.000000 0.090422 0.012487 0.000000 0.082963 0.013043 0.000000 0.077253 0.013365 0.000000 0.069471 0.013758 0.000000 0.063364 0.013887 0.000000 0.055454 0.014117 0.000000 0.049116 0.014057 0.000000 0.041268 0.014128 0.000000 0.034859 0.013892 0.000000 0.027251 0.013812 0.000000 0.020923 0.013415 0.000000 0.013717 0.013197 0.000000 0.007609 0.012657 0.000000 0.000948 0.012316 0.000000 -0.004815 0.011656 0.000000 -0.010811 0.011210 0.000000 -0.016123 0.010454 0.000000 -0.021357 0.009922 0.000000 -0.026132 0.009096 0.000000 -0.030533 0.008500 0.000000 -0.034707 0.007631 0.000000 -0.038231 0.006995 0.000000 -0.041764 0.006109 0.000000 -0.044395 0.005456 0.000000 -0.047269 0.004582 0.000000 -0.049019 0.003938 0.000000 -0.051241 0.003102 0.000000 -0.052149 0.002490 0.000000 -0.053752 0.001718 0.000000 -0.053882 0.001163 0.000000 -0.054923 0.000480 0.000000 -0.054365 0.000003 0.000000 -0.054920 -0.000570 0.000000 -0.053786 -0.000949 0.000000 -0.053955 -0.001393 0.000000 -0.052374 -0.001659 0.000000 -0.052271 -0.001961 0.000000 -0.050386 -0.002102 0.000000 -0.050138 -0.002254 0.000000 -0.048101 -0.002266 0.000000 -0.047838 -0.002266 0.000000 -0.045802 -0.002150 0.000000 -0.045654 -0.002005 0.000000 -0.043768 -0.001769 0.000000 -0.043856 -0.001492 0.000000 -0.042252 -0.001154 0.000000 -0.042681 -0.000766 0.000000 -0.041471 -0.000349 0.000000 -0.042323 0.000123 0.000000 -0.041593 0.000589 0.000000 -0.042918 0.001112 0.000000 -0.042719 0.001594 0.000000 -0.044534 0.002130 0.000000 -0.044879 0.002592 0.000000 -0.047164 0.003103 0.000000 -0.048027 0.003507 0.000000 -0.050726 0.003956 0.000000 -0.052044 0.004269 0.000000 -0.055064 0.004621 0.000000 -0.056737 0.004813 0.000000 -0.059956 0.005038 0.000000 -0.061856 0.005085 0.000000 -0.065126 0.005161 0.000000 -0.067102 0.005048 0.000000 -0.070261 0.004960 0.000000 -0.072145 0.004679 0.000000 -0.075023 0.004422 0.000000 -0.076646 0.003974 0.000000 -0.079072 0.003552 0.000000 -0.080266 0.002945 0.000000 -0.082079 0.002369 0.000000 -0.082689 0.001619 0.000000 -0.083745 0.000910 0.000000 -0.083634 0.000040 0.000000 -0.083812 -0.000780 0.000000 -0.082870 -0.001743 0.000000 -0.082075 -0.002643 0.000000 -0.080221 -0.003669 0.000000 -0.078389 -0.004615 0.000000 -0.075577 -0.005671 0.000000 -0.072678 -0.006631 0.000000 -0.068893 -0.007683 0.000000 -0.064931 -0.008620 0.000000 -0.060198 -0.009635 0.000000 -0.055209 -0.010514 0.000000 
-0.050624 -0.017304 0.000000 -0.044628 -0.018494 0.000000 -0.038153 -0.019769 0.000000 -0.031284 -0.020774 0.000000 -0.024115 -0.021854 0.000000 -0.016506 -0.022633 0.000000 -0.008798 -0.023481 0.000000 -0.000606 -0.023997 0.000000 0.007462 -0.024581 0.000000 0.016056 -0.024805 0.000000 0.024286 -0.025102 0.000000 0.033085 -0.025015 0.000000 0.041263 -0.025008 0.000000 0.050061 -0.024600 0.000000 0.057968 -0.024283 0.000000 0.066552 -0.023555 0.000000 0.073968 -0.022931 0.000000 0.082127 -0.021896 0.000000 0.088841 -0.020980 0.000000 0.096377 -0.019662 0.000000 0.102195 -0.018479 0.000000 0.108924 -0.016913 0.000000 0.113674 -0.015497 0.000000 0.119436 -0.013729 0.000000 0.122980 -0.012122 0.000000 0.127645 -0.010204 0.000000 0.129880 -0.008456 0.000000 0.133352 -0.006448 0.000000 0.134216 -0.004612 0.000000 0.136435 -0.002576 0.000000 0.135910 -0.000707 0.000000 0.136854 0.001294 0.000000 0.134964 0.003142 0.000000 0.134650 0.005049 0.000000 0.131459 0.006823 0.000000 0.129939 0.008581 0.000000 0.125552 0.010234 0.000000 0.122910 0.011796 0.000000 0.117462 0.013287 0.000000 0.113809 0.014613 0.000000 0.107462 0.015909 0.000000 0.102934 0.016971 0.000000 0.095870 0.018047 0.000000 0.090617 0.018825 0.000000 0.083032 0.019665 0.000000 0.077217 0.020150 0.000000 0.069309 0.020744 0.000000 0.063101 0.020937 0.000000 0.055071 0.021285 0.000000 0.048637 0.021195 0.000000 0.040678 0.021304 0.000000 0.034181 0.020948 0.000000 0.026473 0.020830 0.000000 0.020069 0.020232 0.000000 0.012778 0.019905 0.000000 0.006607 0.019093 0.000000 -0.000124 0.018580 0.000000 -0.005935 0.017588 0.000000 -0.011982 0.016917 0.000000 -0.017326 0.015780 0.000000 -0.022591 0.014980 0.000000 -0.027382 0.013737 0.000000 -0.031794 0.012842 0.000000 -0.035967 0.011534 0.000000 -0.039482 0.010577 0.000000 -0.042994 0.009244 0.000000 -0.045596 0.008262 0.000000 -0.048431 0.006947 0.000000 -0.050131 0.005976 0.000000 -0.052298 0.004719 0.000000 -0.053136 0.003796 0.000000 -0.054667 0.002636 0.000000 -0.054709 0.001797 0.000000 -0.055663 0.000770 0.000000 -0.055000 0.000048 0.000000 -0.055458 -0.000812 0.000000 -0.054204 -0.001388 0.000000 -0.054267 -0.002055 0.000000 -0.052555 -0.002460 0.000000 -0.052341 -0.002913 0.000000 -0.050320 -0.003131 0.000000 -0.049960 -0.003358 0.000000 -0.047785 -0.003381 0.000000 -0.047415 -0.003380 0.000000 -0.045245 -0.003210 0.000000 -0.045000 -0.002990 0.000000 -0.042990 -0.002640 0.000000 -0.042996 -0.002221 0.000000 -0.041283 -0.001716 0.000000 -0.041651 -0.001130 0.000000 -0.040354 -0.000504 0.000000 -0.041169 0.000207 0.000000 -0.040377 0.000909 0.000000 -0.041692 0.001696 0.000000 -0.041459 0.002422 0.000000 -0.043292 0.003229 0.000000 -0.043634 0.003925 0.000000 -0.045965 0.004694 0.000000 -0.046856 0.005305 0.000000 -0.049626 0.005978 0.000000 -0.051000 0.006453 0.000000 -0.054114 0.006979 0.000000 -0.055868 0.007271 0.000000 -0.059198 0.007605 0.000000 -0.061199 0.007679 0.000000 -0.064592 0.007788 0.000000 -0.066683 0.007620 0.000000 -0.069972 0.007483 0.000000 -0.071980 0.007060 0.000000 -0.074986 0.006669 0.000000 -0.076735 0.005993 0.000000 -0.079283 0.005352 0.000000 -0.080599 0.004438 0.000000 -0.082524 0.003566 0.000000 -0.083245 0.002436 0.000000 -0.084398 0.001362 0.000000 -0.084384 0.000050 0.000000 -0.084640 -0.001189 0.000000 -0.083778 -0.002641 0.000000 -0.083039 -0.004000 0.000000 -0.081245 -0.005547 0.000000 -0.079448 -0.006977 0.000000 -0.076672 -0.008569 0.000000 -0.073785 -0.010019 0.000000 -0.070015 -0.011605 0.000000 -0.066042 -0.013020 0.000000 -0.061300 -0.014551 0.000000 -0.056279 -0.015878 0.000000 
-0.052203 -0.023111 0.000000 -0.046108 -0.024719 0.000000 -0.039501 -0.026436 0.000000 -0.032508 -0.027796 0.000000 -0.025184 -0.029252 0.000000 -0.017429 -0.030307 0.000000 -0.009546 -0.031450 0.000000 -0.001191 -0.032152 0.000000 0.007068 -0.032940 0.000000 0.015839 -0.033250 0.000000 0.024270 -0.033651 0.000000 0.033256 -0.033542 0.000000 0.041640 -0.033534 0.000000 0.050629 -0.032992 0.000000 0.058740 -0.032566 0.000000 0.067512 -0.031593 0.000000 0.075124 -0.030755 0.000000 0.083465 -0.029367 0.000000 0.090360 -0.028136 0.000000 0.098063 -0.026366 0.000000 0.104040 -0.024775 0.000000 0.110916 -0.022670 0.000000 0.115799 -0.020765 0.000000 0.121684 -0.018387 0.000000 0.125328 -0.016226 0.000000 0.130088 -0.013647 0.000000 0.132388 -0.011295 0.000000 0.135924 -0.008595 0.000000 0.136816 -0.006126 0.000000 0.139066 -0.003388 0.000000 0.138532 -0.000875 0.000000 0.139475 0.001816 0.000000 0.137541 0.004298 0.000000 0.137195 0.006861 0.000000 0.133927 0.009243 0.000000 0.132347 0.011604 0.000000 0.127854 0.013822 0.000000 0.125127 0.015918 0.000000 0.119550 0.017916 0.000000 0.115791 0.019694 0.000000 0.109297 0.021429 0.000000 0.104646 0.022850 0.000000 0.097424 0.024287 0.000000 0.092036 0.025326 0.000000 0.084285 0.026443 0.000000 0.078329 0.027087 0.000000 0.070254 0.027874 0.000000 0.063901 0.028125 0.000000 0.055708 0.028581 0.000000 0.049130 0.028451 0.000000 0.041016 0.028584 0.000000 0.034380 0.028096 0.000000 0.026529 0.027925 0.000000 0.019992 0.027111 0.000000 0.012571 0.026659 0.000000 0.006278 0.025558 0.000000 -0.000564 0.024858 0.000000 -0.006486 0.023514 0.000000 -0.012626 0.022601 0.000000 -0.018067 0.021064 0.000000 -0.023407 0.019978 0.000000 -0.028278 0.018299 0.000000 -0.032744 0.017085 0.000000 -0.036980 0.015318 0.000000 -0.040529 0.014022 0.000000 -0.044086 0.012223 0.000000 -0.046701 0.010894 0.000000 -0.049563 0.009117 0.000000 -0.051255 0.007805 0.000000 -0.053430 0.006106 0.000000 -0.054240 0.004859 0.000000 -0.055760 0.003291 0.000000 -0.055757 0.002159 0.000000 -0.056680 0.000771 0.000000 -0.055956 -0.000203 0.000000 -0.056366 -0.001366 0.000000 -0.055037 -0.002140 0.000000 -0.055037 -0.003042 0.000000 -0.053241 -0.003585 0.000000 -0.052952 -0.004196 0.000000 -0.050841 -0.004484 0.000000 -0.050397 -0.004789 0.000000 -0.048133 -0.004811 0.000000 -0.047676 -0.004806 0.000000 -0.045422 -0.004564 0.000000 -0.045094 -0.004261 0.000000 -0.043009 -0.003773 0.000000 -0.042941 -0.003198 0.000000 -0.041170 -0.002499 0.000000 -0.041479 -0.001695 0.000000 -0.040144 -0.000832 0.000000 -0.040919 0.000145 0.000000 -0.040114 0.001112 0.000000 -0.041413 0.002193 0.000000 -0.041194 0.003194 0.000000 -0.043039 0.004305 0.000000 -0.043422 0.005265 0.000000 -0.045792 0.006325 0.000000 -0.046751 0.007168 0.000000 -0.049586 0.008100 0.000000 -0.051051 0.008757 0.000000 -0.054253 0.009489 0.000000 -0.056118 0.009897 0.000000 -0.059554 0.010369 0.000000 -0.061679 0.010480 0.000000 -0.065192 0.010645 0.000000 -0.067413 0.010427 0.000000 -0.070826 0.010257 0.000000 -0.072965 0.009693 0.000000 -0.076095 0.009177 0.000000 -0.077967 0.008271 0.000000 -0.080632 0.007416 0.000000 -0.082057 0.006185 0.000000 -0.084085 0.005016 0.000000 -0.084897 0.003493 0.000000 -0.086134 0.002049 0.000000 -0.086188 0.000282 0.000000 -0.086506 -0.001386 0.000000 -0.085685 -0.003344 0.000000 -0.084984 -0.005175 0.000000 -0.083201 -0.007260 0.000000 -0.081415 -0.009188 0.000000 -0.078621 -0.011334 0.000000 -0.075716 -0.013288 0.000000 -0.071897 -0.015427 0.000000 -0.067879 -0.017335 0.000000 -0.063058 -0.019398 0.000000 -0.057965 -0.021190 0.000000 
-0.054156 -0.029162 0.000000 -0.047955 -0.031197 0.000000 -0.041233 -0.033368 0.000000 -0.034102 -0.035091 0.000000 -0.026629 -0.036933 0.000000 -0.018707 -0.038271 0.000000 -0.010645 -0.039719 0.000000 -0.002099 -0.040611 0.000000 0.006362 -0.041611 0.000000 0.015343 -0.042007 0.000000 0.023992 -0.042519 0.000000 0.033200 -0.042385 0.000000 0.041811 -0.042380 0.000000 0.051026 -0.041699 0.000000 0.059365 -0.041166 0.000000 0.068361 -0.039939 0.000000 0.076191 -0.038884 0.000000 0.084745 -0.037132 0.000000 0.091841 -0.035578 0.000000 0.099737 -0.033342 0.000000 0.105889 -0.031333 0.000000 0.112932 -0.028672 0.000000 0.117955 -0.026265 0.000000 0.123974 -0.023258 0.000000 0.127719 -0.020526 0.000000 0.132574 -0.017264 0.000000 0.134931 -0.014292 0.000000 0.138521 -0.010876 0.000000 0.139422 -0.007755 0.000000 0.141684 -0.004292 0.000000 0.141112 -0.001116 0.000000 0.142026 0.002286 0.000000 0.140008 0.005422 0.000000 0.139593 0.008662 0.000000 0.136201 0.011671 0.000000 0.134517 0.014654 0.000000 0.129864 0.017454 0.000000 0.127002 0.020100 0.000000 0.121236 0.022623 0.000000 0.117319 0.024866 0.000000 0.110615 0.027054 0.000000 0.105789 0.028845 0.000000 0.098343 0.030657 0.000000 0.092770 0.031964 0.000000 0.084789 0.033372 0.000000 0.078644 0.034181 0.000000 0.070342 0.035172 0.000000 0.063802 0.035483 0.000000 0.055391 0.036056 0.000000 0.048634 0.035888 0.000000 0.040317 0.036054 0.000000 0.033515 0.035436 0.000000 0.025481 0.035218 0.000000 0.018796 0.034189 0.000000 0.011217 0.033618 0.000000 0.004796 0.032229 0.000000 -0.002177 0.031344 0.000000 -0.008202 0.029650 0.000000 -0.014442 0.028498 0.000000 -0.019959 0.026560 0.000000 -0.025367 0.025191 0.000000 -0.030286 0.023075 0.000000 -0.034786 0.021544 0.000000 -0.039040 0.019318 0.000000 -0.042588 0.017683 0.000000 -0.046133 0.015417 0.000000 -0.048712 0.013739 0.000000 -0.051531 0.011502 0.000000 -0.053153 0.009843 0.000000 -0.055255 0.007704 0.000000 -0.055962 0.006127 0.000000 -0.057380 0.004152 0.000000 -0.057241 0.002717 0.000000 -0.058037 0.000969 0.000000 -0.057149 -0.000266 0.000000 -0.057408 -0.001731 0.000000 -0.055892 -0.002717 0.000000 -0.055724 -0.003851 0.000000 -0.053722 -0.004545 0.000000 -0.053253 -0.005314 0.000000 -0.050926 -0.005686 0.000000 -0.050299 -0.006067 0.000000 -0.047815 -0.006102 0.000000 -0.047181 -0.006091 0.000000 -0.044713 -0.005792 0.000000 -0.044223 -0.005404 0.000000 -0.041941 -0.004792 0.000000 -0.041735 -0.004060 0.000000 -0.039793 -0.003178 0.000000 -0.039997 -0.002156 0.000000 -0.038527 -0.001064 0.000000 -0.039238 0.000177 0.000000 -0.038341 0.001403 0.000000 -0.039622 0.002776 0.000000 -0.039359 0.004048 0.000000 -0.041234 0.005457 0.000000 -0.041625 0.006679 0.000000 -0.044073 0.008022 0.000000 -0.045091 0.009099 0.000000 -0.048048 0.010279 0.000000 -0.049621 0.011120 0.000000 -0.052983 0.012046 0.000000 -0.054997 0.012572 0.000000 -0.058624 0.013167 0.000000 -0.060931 0.013317 0.000000 -0.064654 0.013522 0.000000 -0.067080 0.013254 0.000000 -0.070713 0.013035 0.000000 -0.073067 0.012329 0.000000 -0.076416 0.011670 0.000000 -0.078503 0.010530 0.000000 -0.081376 0.009442 0.000000 -0.083005 0.007891 0.000000 -0.085221 0.006406 0.000000 -0.086217 0.004486 0.000000 -0.087614 0.002653 0.000000 -0.087825 0.000422 0.000000 -0.088270 -0.001692 0.000000 -0.087571 -0.004163 0.000000 -0.086960 -0.006484 0.000000 -0.085262 -0.009116 0.000000 -0.083526 -0.011558 0.000000 -0.080776 -0.014268 0.000000 -0.077882 -0.016742 0.000000 -0.074065 -0.019443 0.000000 -0.070017 -0.021859 0.000000 -0.065158 -0.024465 0.000000 -0.059996 -0.026733 0.000000 
-0.056670 -0.035152 0.000000 -0.050318 -0.037642 0.000000 -0.043398 -0.040290 0.000000 -0.036075 -0.042400 0.000000 -0.028367 -0.044647 0.000000 -0.020218 -0.046290 0.000000 -0.011889 -0.048058 0.000000 -0.003086 -0.049159 0.000000 0.005668 -0.050382 0.000000 0.014929 -0.050880 0.000000 0.023890 -0.051508 0.000000 0.033392 -0.051361 0.000000 0.042324 -0.051360 0.000000 0.051840 -0.050545 0.000000 0.060497 -0.049901 0.000000 0.069792 -0.048420 0.000000 0.077929 -0.047139 0.000000 0.086768 -0.045016 0.000000 0.094147 -0.043128 0.000000 0.102306 -0.040414 0.000000 0.108707 -0.037969 0.000000 0.115981 -0.034737 0.000000 0.121211 -0.031807 0.000000 0.127421 -0.028151 0.000000 0.131320 -0.024826 0.000000 0.136321 -0.020859 0.000000 0.138774 -0.017242 0.000000 0.142459 -0.013086 0.000000 0.143398 -0.009289 0.000000 0.145703 -0.005078 0.000000 0.145109 -0.001217 0.000000 0.146012 0.002920 0.000000 0.143915 0.006731 0.000000 0.143441 0.010668 0.000000 0.139918 0.014319 0.000000 0.138128 0.017942 0.000000 0.133299 0.021336 0.000000 0.130293 0.024546 0.000000 0.124313 0.027599 0.000000 0.120219 0.030315 0.000000 0.113273 0.032959 0.000000 0.108246 0.035123 0.000000 0.100539 0.037306 0.000000 0.094747 0.038879 0.000000 0.086497 0.040570 0.000000 0.080122 0.041535 0.000000 0.071551 0.042716 0.000000 0.064779 0.043076 0.000000 0.056106 0.043749 0.000000 0.049121 0.043525 0.000000 0.040555 0.043703 0.000000 0.033534 0.042932 0.000000 0.025272 0.042644 0.000000 0.018382 0.041375 0.000000 0.010600 0.040659 0.000000 0.003993 0.038952 0.000000 -0.003155 0.037856 0.000000 -0.009345 0.035780 0.000000 -0.015729 0.034359 0.000000 -0.021387 0.031988 0.000000 -0.026905 0.030304 0.000000 -0.031939 0.027718 0.000000 -0.036515 0.025839 0.000000 -0.040855 0.023120 0.000000 -0.044444 0.021115 0.000000 -0.048045 0.018347 0.000000 -0.050630 0.016292 0.000000 -0.053473 0.013559 0.000000 -0.055068 0.011528 0.000000 -0.057161 0.008914 0.000000 -0.057807 0.006984 0.000000 -0.059185 0.004571 0.000000 -0.058954 0.002816 0.000000 -0.059679 0.000679 0.000000 -0.058672 -0.000831 0.000000 -0.058832 -0.002623 0.000000 -0.057173 -0.003825 0.000000 -0.056881 -0.005212 0.000000 -0.054720 -0.006055 0.000000 -0.054109 -0.006993 0.000000 -0.051610 -0.007438 0.000000 -0.050830 -0.007900 0.000000 -0.048174 -0.007929 0.000000 -0.047383 -0.007907 0.000000 -0.044752 -0.007522 0.000000 -0.044111 -0.007033 0.000000 -0.041682 -0.006261 0.000000 -0.041344 -0.005346 0.000000 -0.039283 -0.004238 0.000000 -0.039381 -0.002961 0.000000 -0.037828 -0.001591 0.000000 -0.038469 -0.000042 0.000000 -0.037531 0.001496 0.000000 -0.038785 0.003212 0.000000 -0.038529 0.004806 0.000000 -0.040423 0.006570 0.000000 -0.040871 0.008104 0.000000 -0.043386 0.009790 0.000000 -0.044508 0.011144 0.000000 -0.047579 0.012630 0.000000 -0.049298 0.013692 0.000000 -0.052813 0.014865 0.000000 -0.055009 0.015538 0.000000 -0.058821 0.016302 0.000000 -0.061335 0.016510 0.000000 -0.065265 0.016794 0.000000 -0.067911 0.016486 0.000000 -0.071761 0.016244 0.000000 -0.074339 0.015397 0.000000 -0.077903 0.014613 0.000000 -0.080203 0.013230 0.000000 -0.083279 0.011918 0.000000 -0.085101 0.010030 0.000000 -0.087497 0.008227 0.000000 -0.088657 0.005887 0.000000 -0.090204 0.003657 0.000000 -0.090540 0.000937 0.000000 -0.091098 -0.001640 0.000000 -0.090482 -0.004654 0.000000 -0.089942 -0.007484 0.000000 -0.088281 -0.010694 0.000000 -0.086571 -0.013674 0.000000 -0.083809 -0.016978 0.000000 -0.080896 -0.019999 0.000000 -0.077018 -0.023291 0.000000 -0.072905 -0.026242 0.000000 -0.067937 -0.029419 0.000000 -0.062665 -0.032192 0.000000 
-0.059610 -0.041509 0.000000 -0.053097 -0.044470 0.000000 -0.045995 -0.047610 0.000000 -0.038463 -0.050122 0.000000 -0.030522 -0.052790 0.000000 -0.022121 -0.054749 0.000000 -0.013518 -0.056851 0.000000 -0.004426 -0.058168 0.000000 0.004637 -0.059626 0.000000 0.014214 -0.060229 0.000000 0.023508 -0.060982 0.000000 0.033346 -0.060820 0.000000 0.042624 -0.060828 0.000000 0.052483 -0.059873 0.000000 0.061487 -0.059118 0.000000 0.071120 -0.057371 0.000000 0.079592 -0.055860 0.000000 0.088753 -0.053350 0.000000 0.096441 -0.051117 0.000000 0.104893 -0.047902 0.000000 0.111563 -0.045008 0.000000 0.119091 -0.041175 0.000000 0.124538 -0.037704 0.000000 0.130952 -0.033368 0.000000 0.135010 -0.029426 0.000000 0.140157 -0.024719 0.000000 0.142701 -0.020430 0.000000 0.146471 -0.015500 0.000000 0.147429 -0.010998 0.000000 0.149755 -0.006002 0.000000 0.149108 -0.001426 0.000000 0.149971 0.003479 0.000000 0.147753 0.007994 0.000000 0.147179 0.012660 0.000000 0.143473 0.016983 0.000000 0.141531 0.021273 0.000000 0.136465 0.025289 0.000000 0.133262 0.029086 0.000000 0.127003 0.032696 0.000000 0.122676 0.035905 0.000000 0.115419 0.039028 0.000000 0.110132 0.041579 0.000000 0.102095 0.044156 0.000000 0.096028 0.046006 0.000000 0.087439 0.047997 0.000000 0.080784 0.049127 0.000000 0.071877 0.050515 0.000000 0.064827 0.050929 0.000000 0.055831 0.051715 0.000000 0.048579 0.051438 0.000000 0.039713 0.051641 0.000000 0.032444 0.050718 0.000000 0.023911 0.050370 0.000000 0.016798 0.048861 0.000000 0.008780 0.048008 0.000000 0.001979 0.045984 0.000000 -0.005364 0.044682 0.000000 -0.011714 0.042224 0.000000 -0.018249 0.040540 0.000000 -0.024030 0.037736 0.000000 -0.029652 0.035742 0.000000 -0.034768 0.032685 0.000000 -0.039401 0.030460 0.000000 -0.043781 0.027247 0.000000 -0.047378 0.024873 0.000000 -0.050974 0.021603 0.000000 -0.053518 0.019167 0.000000 -0.056312 0.015939 0.000000 -0.057816 0.013530 0.000000 -0.059816 0.010443 0.000000 -0.060323 0.008151 0.000000 -0.061567 0.005300 0.000000 -0.061152 0.003212 0.000000 -0.061703 0.000687 0.000000 -0.060470 -0.001114 0.000000 -0.060421 -0.003230 0.000000 -0.058502 -0.004668 0.000000 -0.057973 -0.006305 0.000000 -0.055523 -0.007318 0.000000 -0.054657 -0.008423 0.000000 -0.051853 -0.008964 0.000000 -0.050811 -0.009503 0.000000 -0.047843 -0.009549 0.000000 -0.046796 -0.009513 0.000000 -0.043861 -0.009064 0.000000 -0.042983 -0.008473 0.000000 -0.040275 -0.007559 0.000000 -0.039733 -0.006460 0.000000 -0.037430 -0.005142 0.000000 -0.037372 -0.003611 0.000000 -0.035628 -0.001976 0.000000 -0.036172 -0.000120 0.000000 -0.035107 0.001719 0.000000 -0.036330 0.003774 0.000000 -0.036020 0.005687 0.000000 -0.037955 0.007798 0.000000 -0.038423 0.009642 0.000000 -0.041050 0.011660 0.000000 -0.042269 0.013291 0.000000 -0.045517 0.015069 0.000000 -0.047402 0.016354 0.000000 -0.051153 0.017757 0.000000 -0.053575 0.018579 0.000000 -0.057666 0.019492 0.000000 -0.060453 0.019761 0.000000 -0.064691 0.020099 0.000000 -0.067642 0.019751 0.000000 -0.071815 0.019462 0.000000 -0.074710 0.018471 0.000000 -0.078594 0.017535 0.000000 -0.081209 0.015906 0.000000 -0.084586 0.014340 0.000000 -0.086705 0.012109 0.000000 -0.089372 0.009961 0.000000 -0.090796 0.007192 0.000000 -0.092573 0.004537 0.000000 -0.093130 0.001316 0.000000 -0.093868 -0.001751 0.000000 -0.093422 -0.005319 0.000000 -0.093007 -0.008686 0.000000 -0.091458 -0.012487 0.000000 -0.089815 -0.016030 0.000000 -0.087106 -0.019943 0.000000 -0.084200 -0.023533 0.000000 -0.080314 -0.027434 0.000000 -0.076150 -0.030940 0.000000 -0.071112 -0.034705 0.000000 -0.065733 -0.038000 0.000000 