# vtk DataFile Version 2.0
Comment goes here
ASCII

DATASET STRUCTURED_POINTS
FIELD FieldData 1
TIME 1 1 double
0.10000000
DIMENSIONS    128   128   1

ORIGIN    0.000   0.000   0.000
SPACING   0.039062 0.039062   1.000

POINT_DATA   16384
VECTORS u double

-0.271794 -0.000000 0.000000 -0.211878 -0.000000 0.000000 -0.156704 -0.000000 0.000000 -0.097192 -0.000000 0.000000 -0.042786 -0.000000 0.000000 0.015737 -0.000000 0.000000 0.068875 -0.000000 0.000000 0.125878 0.000000 0.000000 0.177301 -0.000000 0.000000 0.232310 0.000000 0.000000 0.281626 0.000000 0.000000 0.334218 0.000000 0.000000 0.381083 0.000000 0.000000 0.430885 0.000000 0.000000 0.475007 0.000000 0.000000 0.521695 0.000000 0.000000 0.562822 0.000000 0.000000 0.606117 0.000000 0.000000 0.644042 0.000000 0.000000 0.683711 0.000000 0.000000 0.718265 0.000000 0.000000 0.754120 0.000000 0.000000 0.785169 0.000000 0.000000 0.817064 0.000000 0.000000 0.844510 0.000000 0.000000 0.872344 0.000000 0.000000 0.896118 0.000000 0.000000 0.919826 0.000000 0.000000 0.939889 0.000000 0.000000 0.959444 0.000000 0.000000 0.975778 0.000000 0.000000 0.991185 0.000000 0.000000 1.003793 0.000000 0.000000 1.015084 0.000000 0.000000 1.023981 0.000000 0.000000 1.031205 0.000000 0.000000 1.036418 0.000000 0.000000 1.039638 0.000000 0.000000 1.041196 0.000000 0.000000 1.040478 0.000000 0.000000 1.038409 0.000000 0.000000 1.033819 0.000000 0.000000 1.028147 0.000000 0.000000 1.019744 0.000000 0.000000 1.010484 0.000000 0.000000 0.998313 0.000000 0.000000 0.985475 0.000000 0.000000 0.969569 0.000000 0.000000 0.953151 0.000000 0.000000 0.933530 0.000000 0.000000 0.913527 0.000000 0.000000 0.890199 0.000000 0.000000 0.866605 0.000000 0.000000 0.839576 0.000000 0.000000 0.812390 0.000000 0.000000 0.781664 0.000000 0.000000 0.750898 0.000000 0.000000 0.716494 0.000000 0.000000 0.682183 0.000000 0.000000 0.644138 0.000000 0.000000 0.606349 0.000000 0.000000 0.564735 0.000000 0.000000 0.523575 0.000000 0.000000 0.478509 0.000000 0.000000 0.434138 0.000000 0.000000 0.385788 0.000000 0.000000 0.338425 0.000000 0.000000 0.287025 0.000000 0.000000 0.236957 0.000000 0.000000 0.182814 0.000000 0.000000 0.130398 0.000000 0.000000 0.073897 0.000000 0.000000 0.019567 0.000000 0.000000 -0.038826 0.000000 0.000000 -0.094562 0.000000 0.000000 -0.154297 0.000000 0.000000 -0.210856 0.000000 0.000000 -0.271303 0.000000 0.000000 -0.328035 0.000000 0.000000 -0.388491 0.000000 0.000000 -0.444686 0.000000 0.000000 -0.504378 0.000000 0.000000 -0.559279 0.000000 0.000000 -0.617383 0.000000 0.000000 -0.670197 0.000000 0.000000 -0.725849 0.000000 0.000000 -0.775767 0.000000 0.000000 -0.828087 0.000000 0.000000 -0.874301 0.000000 0.000000 -0.922414 0.000000 0.000000 -0.964139 0.000000 0.000000 -1.007199 0.000000 0.000000 -1.043699 0.000000 0.000000 -1.080917 0.000000 0.000000 -1.111525 0.000000 0.000000 -1.142196 0.000000 0.000000 -1.166341 0.000000 0.000000 -1.189872 0.000000 0.000000 -1.207094 0.000000 0.000000 -1.223025 0.000000 0.000000 -1.233000 0.000000 0.000000 -1.241023 0.000000 0.000000 -1.243573 0.000000 0.000000 -1.243545 0.000000 0.000000 -1.238644 0.000000 0.000000 -1.230595 0.000000 0.000000 -1.218371 0.000000 0.000000 -1.202495 0.000000 0.000000 -1.183225 0.000000 0.000000 -1.159877 0.000000 0.000000 -1.133972 0.000000 0.000000 -1.103645 0.000000 0.000000 -1.071635 0.000000 0.000000 -1.034940 0.000000 0.000000 -0.997449 0.000000 0.000000 -0.955092 0.000000 0.000000 -0.912814 0.000000 0.000000 -0.865563 0.000000 0.000000 -0.819239 0.000000 0.000000 -0.767900 0.000000 0.000000 -0.718293 0.000000 0.000000 -0.663683 0.000000 0.000000 -0.611554 -0.000000 0.000000 -0.554485 -0.000000 0.000000 -0.500577 -0.000000 0.000000 -0.441832 -0.000000 0.000000 -0.386854 -0.000000 0.000000 -0.327176 -0.000000 0.000000 
-0.273181 -0.057649 0.000000 -0.213199 -0.057545 0.000000 -0.158066 -0.057343 0.000000 -0.098496 -0.056959 0.000000 -0.044126 -0.056465 0.000000 0.014445 -0.055830 0.000000 0.067551 -0.055071 0.000000 0.124597 -0.054213 0.000000 0.175995 -0.053216 0.000000 0.231041 -0.052162 0.000000 0.280339 -0.050954 0.000000 0.332964 -0.049729 0.000000 0.379823 -0.048334 0.000000 0.429655 -0.046962 0.000000 0.473781 -0.045405 0.000000 0.520498 -0.043908 0.000000 0.561643 -0.042211 0.000000 0.604967 -0.040610 0.000000 0.642925 -0.038797 0.000000 0.682623 -0.037111 0.000000 0.717225 -0.035204 0.000000 0.753111 -0.033452 0.000000 0.784225 -0.031472 0.000000 0.816154 -0.029671 0.000000 0.843679 -0.027640 0.000000 0.871548 -0.025804 0.000000 0.895417 -0.023741 0.000000 0.919162 -0.021885 0.000000 0.939333 -0.019809 0.000000 0.958928 -0.017945 0.000000 0.975382 -0.015871 0.000000 0.990831 -0.014008 0.000000 1.003568 -0.011949 0.000000 1.014901 -0.010094 0.000000 1.023937 -0.008061 0.000000 1.031204 -0.006218 0.000000 1.036561 -0.004216 0.000000 1.039824 -0.002389 0.000000 1.041530 -0.000420 0.000000 1.040854 0.001393 0.000000 1.038936 0.003329 0.000000 1.034387 0.005131 0.000000 1.028867 0.007038 0.000000 1.020502 0.008831 0.000000 1.011394 0.010715 0.000000 0.999258 0.012505 0.000000 0.986569 0.014372 0.000000 0.970695 0.016162 0.000000 0.954424 0.018020 0.000000 0.934830 0.019812 0.000000 0.914970 0.021665 0.000000 0.891664 0.023461 0.000000 0.868209 0.025312 0.000000 0.841193 0.027108 0.000000 0.814141 0.028956 0.000000 0.783421 0.030746 0.000000 0.752782 0.032585 0.000000 0.718375 0.034358 0.000000 0.684183 0.036178 0.000000 0.646126 0.037917 0.000000 0.608447 0.039701 0.000000 0.566810 0.041387 0.000000 0.525749 0.043113 0.000000 0.480648 0.044719 0.000000 0.436363 0.046361 0.000000 0.387966 0.047856 0.000000 0.340676 0.049381 0.000000 0.289216 0.050734 0.000000 0.239204 0.052106 0.000000 0.184989 0.053279 0.000000 0.132612 0.054459 0.000000 0.076026 0.055416 0.000000 0.021715 0.056362 0.000000 -0.036775 0.057064 0.000000 -0.092512 0.057735 0.000000 -0.152355 0.058147 0.000000 -0.208937 0.058503 0.000000 -0.269502 0.058590 0.000000 -0.326281 0.058594 0.000000 -0.386861 0.058326 0.000000 -0.443126 0.057944 0.000000 -0.502949 0.057296 0.000000 -0.557942 0.056502 0.000000 -0.616180 0.055459 0.000000 -0.669107 0.054233 0.000000 -0.724895 0.052785 0.000000 -0.774945 0.051119 0.000000 -0.827399 0.049267 0.000000 -0.873762 0.047163 0.000000 -0.922003 0.044919 0.000000 -0.963891 0.042393 0.000000 -1.007070 0.039780 0.000000 -1.043743 0.036859 0.000000 -1.081067 0.033913 0.000000 -1.111855 0.030640 0.000000 -1.142616 0.027408 0.000000 -1.166941 0.023838 0.000000 -1.190544 0.020377 0.000000 -1.207944 0.016576 0.000000 -1.223924 0.012953 0.000000 -1.234071 0.008999 0.000000 -1.242121 0.005286 0.000000 -1.244832 0.001261 0.000000 -1.244809 -0.002464 0.000000 -1.240055 -0.006475 0.000000 -1.231987 -0.010137 0.000000 -1.219897 -0.014050 0.000000 -1.203981 -0.017573 0.000000 -1.184829 -0.021309 0.000000 -1.161422 -0.024627 0.000000 -1.135621 -0.028116 0.000000 -1.105219 -0.031169 0.000000 -1.073298 -0.034352 0.000000 -1.036518 -0.037093 0.000000 -0.999104 -0.039924 0.000000 -0.956653 -0.042317 0.000000 -0.914443 -0.044765 0.000000 -0.867093 -0.046787 0.000000 -0.820830 -0.048832 0.000000 -0.769391 -0.050473 0.000000 -0.719838 -0.052108 0.000000 -0.665134 -0.053369 0.000000 -0.613055 -0.054599 0.000000 -0.555895 -0.055488 0.000000 -0.502035 -0.056327 0.000000 -0.443206 -0.056862 0.000000 -0.388273 -0.057328 0.000000 -0.328520 -0.057530 0.000000 
-0.271808 -0.115321 0.000000 -0.211572 -0.115115 0.000000 -0.156119 -0.114703 0.000000 -0.096314 -0.113939 0.000000 -0.041657 -0.112942 0.000000 0.017131 -0.111678 0.000000 0.070492 -0.110152 0.000000 0.127733 -0.108443 0.000000 0.179352 -0.106444 0.000000 0.234572 -0.104344 0.000000 0.284059 -0.101923 0.000000 0.336837 -0.099483 0.000000 0.383850 -0.096691 0.000000 0.433815 -0.093959 0.000000 0.478061 -0.090843 0.000000 0.524888 -0.087862 0.000000 0.566119 -0.084469 0.000000 0.609531 -0.081282 0.000000 0.647540 -0.077657 0.000000 0.687304 -0.074301 0.000000 0.721923 -0.070488 0.000000 0.757851 -0.066999 0.000000 0.788950 -0.063042 0.000000 0.820897 -0.059454 0.000000 0.848377 -0.055394 0.000000 0.876242 -0.051738 0.000000 0.900037 -0.047614 0.000000 0.923758 -0.043916 0.000000 0.943829 -0.039766 0.000000 0.963382 -0.036049 0.000000 0.979715 -0.031903 0.000000 0.995107 -0.028186 0.000000 1.007706 -0.024071 0.000000 1.018971 -0.020369 0.000000 1.027857 -0.016303 0.000000 1.035049 -0.012624 0.000000 1.040248 -0.008620 0.000000 1.043433 -0.004969 0.000000 1.044977 -0.001031 0.000000 1.044226 0.002594 0.000000 1.042146 0.006467 0.000000 1.037527 0.010069 0.000000 1.031847 0.013885 0.000000 1.023420 0.017473 0.000000 1.014157 0.021244 0.000000 1.001969 0.024824 0.000000 0.989131 0.028563 0.000000 0.973215 0.032145 0.000000 0.956799 0.035865 0.000000 0.937173 0.039454 0.000000 0.917174 0.043166 0.000000 0.893844 0.046762 0.000000 0.870250 0.050471 0.000000 0.843218 0.054068 0.000000 0.816025 0.057772 0.000000 0.785291 0.061358 0.000000 0.754508 0.065046 0.000000 0.720084 0.068599 0.000000 0.685739 0.072249 0.000000 0.647659 0.075737 0.000000 0.609815 0.079316 0.000000 0.568145 0.082697 0.000000 0.526905 0.086162 0.000000 0.481753 0.089386 0.000000 0.437273 0.092682 0.000000 0.388806 0.095688 0.000000 0.341299 0.098750 0.000000 0.289747 0.101471 0.000000 0.239499 0.104227 0.000000 0.185164 0.106592 0.000000 0.132531 0.108963 0.000000 0.075797 0.110897 0.000000 0.021212 0.112801 0.000000 -0.037455 0.114227 0.000000 -0.093482 0.115580 0.000000 -0.153532 0.116425 0.000000 -0.210416 0.117148 0.000000 -0.271216 0.117343 0.000000 -0.328303 0.117359 0.000000 -0.389144 0.116845 0.000000 -0.445719 0.116088 0.000000 -0.505823 0.114816 0.000000 -0.561120 0.113231 0.000000 -0.619655 0.111165 0.000000 -0.672874 0.108715 0.000000 -0.728966 0.105838 0.000000 -0.779288 0.102504 0.000000 -0.832046 0.098817 0.000000 -0.878651 0.094604 0.000000 -0.927187 0.090129 0.000000 -0.969281 0.085067 0.000000 -1.012735 0.079852 0.000000 -1.049568 0.073997 0.000000 -1.087138 0.068112 0.000000 -1.118033 0.061549 0.000000 -1.149001 0.055087 0.000000 -1.173374 0.047927 0.000000 -1.197135 0.041003 0.000000 -1.214520 0.033381 0.000000 -1.230604 0.026127 0.000000 -1.240669 0.018197 0.000000 -1.248763 0.010761 0.000000 -1.251326 0.002687 0.000000 -1.251284 -0.004777 0.000000 -1.246318 -0.012821 0.000000 -1.238171 -0.020159 0.000000 -1.225809 -0.028006 0.000000 -1.209756 -0.035068 0.000000 -1.190280 -0.042559 0.000000 -1.166685 -0.049209 0.000000 -1.140516 -0.056203 0.000000 -1.109882 -0.062322 0.000000 -1.077560 -0.068701 0.000000 -1.040513 -0.074194 0.000000 -1.002675 -0.079865 0.000000 -0.959933 -0.084661 0.000000 -0.917285 -0.089560 0.000000 -0.869630 -0.093613 0.000000 -0.822926 -0.097702 0.000000 -0.771177 -0.100991 0.000000 -0.721189 -0.104258 0.000000 -0.666175 -0.106784 0.000000 -0.613674 -0.109238 0.000000 -0.556213 -0.111020 0.000000 -0.501951 -0.112689 0.000000 -0.442833 -0.113761 0.000000 -0.387523 -0.114686 0.000000 -0.327497 -0.115093 0.000000 
-0.273204 -0.173575 0.000000 -0.212580 -0.173234 0.000000 -0.156890 -0.172600 0.000000 -0.096736 -0.171422 0.000000 -0.041865 -0.169909 0.000000 0.017235 -0.167978 0.000000 0.070786 -0.165673 0.000000 0.128305 -0.163073 0.000000 0.180094 -0.160056 0.000000 0.235561 -0.156869 0.000000 0.285200 -0.153218 0.000000 0.338196 -0.149520 0.000000 0.385347 -0.145311 0.000000 0.435503 -0.141173 0.000000 0.479877 -0.136478 0.000000 0.526871 -0.131966 0.000000 0.568224 -0.126854 0.000000 0.611779 -0.122031 0.000000 0.649905 -0.116570 0.000000 0.689792 -0.111495 0.000000 0.724526 -0.105752 0.000000 0.760557 -0.100478 0.000000 0.791769 -0.094518 0.000000 0.823801 -0.089098 0.000000 0.851395 -0.082985 0.000000 0.879327 -0.077464 0.000000 0.903238 -0.071257 0.000000 0.927010 -0.065678 0.000000 0.947200 -0.059433 0.000000 0.966790 -0.053830 0.000000 0.983244 -0.047596 0.000000 0.998662 -0.041999 0.000000 1.011385 -0.035814 0.000000 1.022668 -0.030244 0.000000 1.031681 -0.024138 0.000000 1.038886 -0.018609 0.000000 1.044216 -0.012601 0.000000 1.047411 -0.007118 0.000000 1.049091 -0.001213 0.000000 1.048351 0.004225 0.000000 1.046410 0.010029 0.000000 1.041804 0.015430 0.000000 1.036269 0.021145 0.000000 1.027858 0.026521 0.000000 1.018743 0.032166 0.000000 1.006576 0.037531 0.000000 0.993888 0.043127 0.000000 0.977994 0.048493 0.000000 0.961730 0.054061 0.000000 0.942126 0.059438 0.000000 0.922274 0.064994 0.000000 0.898964 0.070384 0.000000 0.875511 0.075938 0.000000 0.848490 0.081333 0.000000 0.821426 0.086883 0.000000 0.790690 0.092263 0.000000 0.760018 0.097792 0.000000 0.725573 0.103126 0.000000 0.691316 0.108602 0.000000 0.653188 0.113841 0.000000 0.615402 0.119216 0.000000 0.573651 0.124297 0.000000 0.532432 0.129504 0.000000 0.487161 0.134351 0.000000 0.442659 0.139308 0.000000 0.394028 0.143830 0.000000 0.346453 0.148440 0.000000 0.294688 0.152535 0.000000 0.244319 0.156688 0.000000 0.189719 0.160247 0.000000 0.136910 0.163826 0.000000 0.079857 0.166735 0.000000 0.025038 0.169614 0.000000 -0.034001 0.171758 0.000000 -0.090320 0.173812 0.000000 -0.150794 0.175081 0.000000 -0.208025 0.176187 0.000000 -0.269297 0.176477 0.000000 -0.326785 0.176522 0.000000 -0.388139 0.175741 0.000000 -0.445162 0.174623 0.000000 -0.505813 0.172698 0.000000 -0.561599 0.170334 0.000000 -0.620702 0.167212 0.000000 -0.674441 0.163545 0.000000 -0.731112 0.159199 0.000000 -0.781972 0.154199 0.000000 -0.835306 0.148631 0.000000 -0.882455 0.142304 0.000000 -0.931546 0.135549 0.000000 -0.974174 0.127940 0.000000 -1.018145 0.120067 0.000000 -1.055489 0.111262 0.000000 -1.093521 0.102378 0.000000 -1.124885 0.092503 0.000000 -1.156243 0.082749 0.000000 -1.181030 0.071971 0.000000 -1.205095 0.061522 0.000000 -1.222823 0.050045 0.000000 -1.239113 0.039102 0.000000 -1.249442 0.027158 0.000000 -1.257634 0.015943 0.000000 -1.260373 0.003782 0.000000 -1.260321 -0.007471 0.000000 -1.255441 -0.019588 0.000000 -1.247175 -0.030646 0.000000 -1.234809 -0.042464 0.000000 -1.218537 -0.053101 0.000000 -1.198973 -0.064381 0.000000 -1.175068 -0.074391 0.000000 -1.148737 -0.084918 0.000000 -1.117719 -0.094124 0.000000 -1.085172 -0.103721 0.000000 -1.047684 -0.111978 0.000000 -1.009573 -0.120505 0.000000 -0.966349 -0.127707 0.000000 -0.923396 -0.135067 0.000000 -0.875236 -0.141147 0.000000 -0.828209 -0.147285 0.000000 -0.775948 -0.152211 0.000000 -0.725632 -0.157110 0.000000 -0.670115 -0.160884 0.000000 -0.617292 -0.164560 0.000000 -0.559347 -0.167212 0.000000 -0.504776 -0.169707 0.000000 -0.445203 -0.171289 0.000000 -0.389605 -0.172664 0.000000 -0.329156 -0.173245 0.000000 
-0.271797 -0.231897 0.000000 -0.210597 -0.231429 0.000000 -0.154307 -0.230547 0.000000 -0.093624 -0.228964 0.000000 -0.038214 -0.226913 0.000000 0.021367 -0.224329 0.000000 0.075396 -0.221222 0.000000 0.133349 -0.217752 0.000000 0.185556 -0.213699 0.000000 0.241409 -0.209450 0.000000 0.291407 -0.204557 0.000000 0.344744 -0.199631 0.000000 0.392197 -0.193998 0.000000 0.442647 -0.188489 0.000000 0.487267 -0.182211 0.000000 0.534511 -0.176208 0.000000 0.576053 -0.169377 0.000000 0.619814 -0.162963 0.000000 0.658076 -0.155669 0.000000 0.698121 -0.148921 0.000000 0.732939 -0.141253 0.000000 0.769083 -0.134242 0.000000 0.800329 -0.126286 0.000000 0.832430 -0.119080 0.000000 0.860010 -0.110921 0.000000 0.887968 -0.103581 0.000000 0.911822 -0.095298 0.000000 0.935581 -0.087878 0.000000 0.955675 -0.079545 0.000000 0.975218 -0.072093 0.000000 0.991545 -0.063775 0.000000 1.006887 -0.056328 0.000000 1.019460 -0.048077 0.000000 1.030646 -0.040664 0.000000 1.039490 -0.032520 0.000000 1.046585 -0.025159 0.000000 1.051738 -0.017145 0.000000 1.054819 -0.009844 0.000000 1.056318 -0.001970 0.000000 1.055466 0.005274 0.000000 1.053349 0.013013 0.000000 1.048641 0.020211 0.000000 1.042935 0.027832 0.000000 1.034438 0.034998 0.000000 1.025163 0.042526 0.000000 1.012926 0.049680 0.000000 1.000089 0.057145 0.000000 0.984145 0.064303 0.000000 0.967739 0.071733 0.000000 0.948102 0.078909 0.000000 0.928114 0.086328 0.000000 0.904782 0.093525 0.000000 0.881193 0.100945 0.000000 0.854155 0.108153 0.000000 0.826949 0.115572 0.000000 0.796193 0.122766 0.000000 0.765363 0.130163 0.000000 0.730886 0.137301 0.000000 0.696447 0.144634 0.000000 0.658264 0.151651 0.000000 0.620263 0.158854 0.000000 0.578424 0.165667 0.000000 0.536950 0.172652 0.000000 0.491548 0.179159 0.000000 0.446742 0.185814 0.000000 0.397928 0.191893 0.000000 0.349995 0.198090 0.000000 0.297986 0.203606 0.000000 0.247202 0.209196 0.000000 0.192292 0.214002 0.000000 0.139009 0.218826 0.000000 0.081576 0.222768 0.000000 0.026226 0.226659 0.000000 -0.033266 0.229585 0.000000 -0.090169 0.232372 0.000000 -0.151166 0.234131 0.000000 -0.209029 0.235651 0.000000 -0.270892 0.236103 0.000000 -0.329049 0.236201 0.000000 -0.391053 0.235223 0.000000 -0.448771 0.233762 0.000000 -0.510121 0.231252 0.000000 -0.566615 0.228120 0.000000 -0.626454 0.224007 0.000000 -0.680897 0.219125 0.000000 -0.738322 0.213369 0.000000 -0.789865 0.206697 0.000000 -0.843950 0.199300 0.000000 -0.891742 0.190844 0.000000 -0.941561 0.181849 0.000000 -0.984771 0.171667 0.000000 -1.029422 0.161167 0.000000 -1.067266 0.149373 0.000000 -1.105906 0.137508 0.000000 -1.137669 0.124272 0.000000 -1.169540 0.111232 0.000000 -1.194608 0.096778 0.000000 -1.219068 0.082796 0.000000 -1.236946 0.067399 0.000000 -1.253498 0.052746 0.000000 -1.263834 0.036718 0.000000 -1.272144 0.021692 0.000000 -1.274745 0.005374 0.000000 -1.274660 -0.009709 0.000000 -1.269498 -0.025968 0.000000 -1.261051 -0.040791 0.000000 -1.248269 -0.056644 0.000000 -1.231677 -0.070903 0.000000 -1.211574 -0.086028 0.000000 -1.187226 -0.099445 0.000000 -1.160252 -0.113552 0.000000 -1.128687 -0.125886 0.000000 -1.095416 -0.138736 0.000000 -1.057300 -0.149794 0.000000 -1.018406 -0.161200 0.000000 -0.974498 -0.170838 0.000000 -0.930727 -0.180672 0.000000 -0.881850 -0.188800 0.000000 -0.833992 -0.196990 0.000000 -0.781003 -0.203568 0.000000 -0.729863 -0.210092 0.000000 -0.673625 -0.215124 0.000000 -0.620003 -0.220006 0.000000 -0.561361 -0.223535 0.000000 -0.506029 -0.226834 0.000000 -0.445791 -0.228933 0.000000 -0.389480 -0.230732 0.000000 -0.328409 -0.231494 0.000000 
-0.273139 -0.291386 0.000000 -0.211231 -0.290725 0.000000 -0.154425 -0.289574 0.000000 -0.093101 -0.287514 0.000000 -0.037231 -0.284900 0.000000 0.022925 -0.281589 0.000000 0.077363 -0.277654 0.000000 0.135828 -0.273233 0.000000 0.188395 -0.268116 0.000000 0.244703 -0.262720 0.000000 0.295018 -0.256553 0.000000 0.348755 -0.250310 0.000000 0.396488 -0.243215 0.000000 0.447289 -0.236243 0.000000 0.492157 -0.228341 0.000000 0.539704 -0.220752 0.000000 0.581468 -0.212157 0.000000 0.625486 -0.204053 0.000000 0.663947 -0.194878 0.000000 0.704207 -0.186358 0.000000 0.739204 -0.176713 0.000000 0.775522 -0.167868 0.000000 0.806930 -0.157864 0.000000 0.839165 -0.148779 0.000000 0.866893 -0.138523 0.000000 0.894949 -0.129276 0.000000 0.918939 -0.118870 0.000000 0.942762 -0.109532 0.000000 0.962983 -0.099070 0.000000 0.982559 -0.089700 0.000000 0.999007 -0.079265 0.000000 1.014358 -0.069914 0.000000 1.027047 -0.059572 0.000000 1.038224 -0.050275 0.000000 1.047185 -0.040078 0.000000 1.054259 -0.030857 0.000000 1.059529 -0.020834 0.000000 1.062585 -0.011698 0.000000 1.064207 -0.001861 0.000000 1.063331 0.007194 0.000000 1.061344 0.016854 0.000000 1.056619 0.025843 0.000000 1.051053 0.035348 0.000000 1.042548 0.044293 0.000000 1.033421 0.053678 0.000000 1.021189 0.062605 0.000000 1.008506 0.071908 0.000000 0.992577 0.080843 0.000000 0.976329 0.090104 0.000000 0.956714 0.099063 0.000000 0.936882 0.108314 0.000000 0.913573 0.117305 0.000000 0.890131 0.126565 0.000000 0.863108 0.135577 0.000000 0.836031 0.144845 0.000000 0.805272 0.153849 0.000000 0.774543 0.163100 0.000000 0.740032 0.172042 0.000000 0.705655 0.181224 0.000000 0.667397 0.190025 0.000000 0.629407 0.199056 0.000000 0.587437 0.207611 0.000000 0.545911 0.216381 0.000000 0.500312 0.224559 0.000000 0.455382 0.232928 0.000000 0.406292 0.240576 0.000000 0.358153 0.248382 0.000000 0.305781 0.255328 0.000000 0.254702 0.262382 0.000000 0.199337 0.268440 0.000000 0.145664 0.274542 0.000000 0.087678 0.279518 0.000000 0.031841 0.284456 0.000000 -0.028301 0.288153 0.000000 -0.085786 0.291712 0.000000 -0.147528 0.293942 0.000000 -0.206067 0.295912 0.000000 -0.268761 0.296496 0.000000 -0.327678 0.296682 0.000000 -0.390591 0.295464 0.000000 -0.449146 0.293691 0.000000 -0.511467 0.290542 0.000000 -0.568857 0.286667 0.000000 -0.629711 0.281494 0.000000 -0.685091 0.275413 0.000000 -0.743553 0.268167 0.000000 -0.796054 0.259827 0.000000 -0.851172 0.250508 0.000000 -0.899918 0.239915 0.000000 -0.950735 0.228577 0.000000 -0.994867 0.215802 0.000000 -1.040451 0.202562 0.000000 -1.079158 0.187746 0.000000 -1.118633 0.172782 0.000000 -1.151171 0.156137 0.000000 -1.183747 0.139688 0.000000 -1.209475 0.121500 0.000000 -1.234483 0.103861 0.000000 -1.252883 0.084475 0.000000 -1.269803 0.065990 0.000000 -1.280503 0.045804 0.000000 -1.288986 0.026853 0.000000 -1.291782 0.006298 0.000000 -1.291669 -0.012718 0.000000 -1.286529 -0.033197 0.000000 -1.277858 -0.051876 0.000000 -1.264927 -0.071839 0.000000 -1.247926 -0.089796 0.000000 -1.227520 -0.108831 0.000000 -1.202597 -0.125713 0.000000 -1.175183 -0.143457 0.000000 -1.142907 -0.158960 0.000000 -1.109084 -0.175108 0.000000 -1.070151 -0.188989 0.000000 -1.030621 -0.203307 0.000000 -0.985824 -0.215386 0.000000 -0.941361 -0.227715 0.000000 -0.891556 -0.237882 0.000000 -0.842978 -0.248132 0.000000 -0.789052 -0.256339 0.000000 -0.737190 -0.264488 0.000000 -0.680030 -0.270744 0.000000 -0.625704 -0.276825 0.000000 -0.566176 -0.281186 0.000000 -0.510174 -0.285276 0.000000 -0.449102 -0.287838 0.000000 -0.392167 -0.290046 0.000000 -0.330322 -0.290928 0.000000 
-0.271595 -0.350987 0.000000 -0.208786 -0.350143 0.000000 -0.151097 -0.348678 0.000000 -0.088951 -0.346158 0.000000 -0.032289 -0.342939 0.000000 0.028612 -0.338922 0.000000 0.083752 -0.334125 0.000000 0.142886 -0.328784 0.000000 0.196068 -0.322574 0.000000 0.252972 -0.316073 0.000000 0.303817 -0.308609 0.000000 0.358080 -0.301101 0.000000 0.406262 -0.292532 0.000000 0.457520 -0.284158 0.000000 0.502758 -0.274626 0.000000 0.550694 -0.265519 0.000000 0.592751 -0.255160 0.000000 0.637091 -0.245442 0.000000 0.675770 -0.234391 0.000000 0.716284 -0.224178 0.000000 0.751427 -0.212568 0.000000 0.787931 -0.201968 0.000000 0.819416 -0.189929 0.000000 0.851769 -0.179044 0.000000 0.879511 -0.166705 0.000000 0.907620 -0.155626 0.000000 0.931564 -0.143110 0.000000 0.955380 -0.131922 0.000000 0.975505 -0.119343 0.000000 0.995021 -0.108117 0.000000 1.011330 -0.095573 0.000000 1.026578 -0.084368 0.000000 1.039096 -0.071943 0.000000 1.050139 -0.060802 0.000000 1.058907 -0.048555 0.000000 1.065827 -0.037504 0.000000 1.070894 -0.025472 0.000000 1.073790 -0.014522 0.000000 1.075208 -0.002717 0.000000 1.074178 0.008137 0.000000 1.071994 0.019725 0.000000 1.067131 0.030502 0.000000 1.061381 0.041903 0.000000 1.052762 0.052630 0.000000 1.043470 0.063886 0.000000 1.031151 0.074595 0.000000 1.018320 0.085757 0.000000 1.002332 0.096480 0.000000 0.985952 0.107596 0.000000 0.966303 0.118356 0.000000 0.946347 0.129469 0.000000 0.923022 0.140276 0.000000 0.899455 0.151409 0.000000 0.872423 0.162253 0.000000 0.845209 0.173408 0.000000 0.814435 0.184255 0.000000 0.783543 0.195403 0.000000 0.748996 0.206189 0.000000 0.714415 0.217269 0.000000 0.676082 0.227899 0.000000 0.637834 0.238814 0.000000 0.595734 0.249163 0.000000 0.553882 0.259777 0.000000 0.508080 0.269688 0.000000 0.462744 0.279834 0.000000 0.413365 0.289122 0.000000 0.364730 0.298600 0.000000 0.311971 0.307057 0.000000 0.260298 0.315641 0.000000 0.204436 0.323040 0.000000 0.150070 0.330484 0.000000 0.091473 0.336591 0.000000 0.034844 0.342637 0.000000 -0.026026 0.347212 0.000000 -0.084398 0.351600 0.000000 -0.146983 0.354411 0.000000 -0.206492 0.356884 0.000000 -0.270139 0.357715 0.000000 -0.330098 0.358032 0.000000 -0.394061 0.356690 0.000000 -0.453711 0.354637 0.000000 -0.517163 0.350963 0.000000 -0.575680 0.346364 0.000000 -0.637724 0.340242 0.000000 -0.694240 0.332968 0.000000 -0.753924 0.324333 0.000000 -0.807540 0.314316 0.000000 -0.863879 0.303163 0.000000 -0.913688 0.290406 0.000000 -0.965689 0.276798 0.000000 -1.010800 0.261384 0.000000 -1.057494 0.245457 0.000000 -1.097060 0.227554 0.000000 -1.137528 0.209521 0.000000 -1.170776 0.189387 0.000000 -1.204191 0.169536 0.000000 -1.230447 0.147515 0.000000 -1.256106 0.126204 0.000000 -1.274828 0.102718 0.000000 -1.292180 0.080366 0.000000 -1.302982 0.055902 0.000000 -1.311660 0.032971 0.000000 -1.314326 0.008057 0.000000 -1.314163 -0.014961 0.000000 -1.308665 -0.039779 0.000000 -1.299701 -0.062393 0.000000 -1.286196 -0.086576 0.000000 -1.268676 -0.108311 0.000000 -1.247499 -0.131356 0.000000 -1.221858 -0.151781 0.000000 -1.193505 -0.173242 0.000000 -1.160344 -0.191986 0.000000 -1.125450 -0.211492 0.000000 -1.085503 -0.228257 0.000000 -1.044808 -0.245527 0.000000 -0.998909 -0.260098 0.000000 -0.953226 -0.274940 0.000000 -0.902270 -0.287183 0.000000 -0.852451 -0.299494 0.000000 -0.797362 -0.309356 0.000000 -0.744270 -0.319114 0.000000 -0.685964 -0.326610 0.000000 -0.630448 -0.333860 0.000000 -0.569814 -0.339065 0.000000 -0.512681 -0.343908 0.000000 -0.450562 -0.346940 0.000000 -0.392571 -0.349512 0.000000 -0.329749 -0.350522 0.000000 
-0.272761 -0.412349 0.000000 -0.208922 -0.411222 0.000000 -0.150440 -0.409409 0.000000 -0.087363 -0.406323 0.000000 -0.029995 -0.402463 0.000000 0.031739 -0.397629 0.000000 0.087501 -0.391928 0.000000 0.147378 -0.385549 0.000000 0.201105 -0.378202 0.000000 0.258667 -0.370470 0.000000 0.309990 -0.361661 0.000000 0.364832 -0.352754 0.000000 0.413430 -0.342655 0.000000 0.465194 -0.332740 0.000000 0.510796 -0.321515 0.000000 0.559169 -0.310745 0.000000 0.601543 -0.298553 0.000000 0.646253 -0.287072 0.000000 0.685209 -0.274071 0.000000 0.726029 -0.262015 0.000000 0.761412 -0.248360 0.000000 0.798159 -0.235857 0.000000 0.829853 -0.221703 0.000000 0.862388 -0.208873 0.000000 0.890309 -0.194374 0.000000 0.918542 -0.181329 0.000000 0.942641 -0.166631 0.000000 0.966528 -0.153472 0.000000 0.986787 -0.138711 0.000000 1.006326 -0.125526 0.000000 1.022753 -0.110822 0.000000 1.037986 -0.097680 0.000000 1.050612 -0.083133 0.000000 1.061610 -0.070085 0.000000 1.070480 -0.055766 0.000000 1.077339 -0.042845 0.000000 1.082509 -0.028797 0.000000 1.085336 -0.016012 0.000000 1.086863 -0.002249 0.000000 1.085770 0.010408 0.000000 1.083705 0.023901 0.000000 1.078792 0.036456 0.000000 1.073175 0.049716 0.000000 1.064525 0.062205 0.000000 1.055380 0.075289 0.000000 1.043052 0.087755 0.000000 1.030382 0.100727 0.000000 1.014407 0.113211 0.000000 0.998196 0.126133 0.000000 0.978576 0.138668 0.000000 0.958790 0.151596 0.000000 0.935500 0.164197 0.000000 0.912095 0.177163 0.000000 0.885093 0.189824 0.000000 0.858017 0.202833 0.000000 0.827251 0.215515 0.000000 0.796461 0.228539 0.000000 0.761881 0.241169 0.000000 0.727348 0.254137 0.000000 0.688923 0.266606 0.000000 0.650652 0.279404 0.000000 0.608382 0.291563 0.000000 0.566418 0.304034 0.000000 0.520349 0.315697 0.000000 0.474796 0.327644 0.000000 0.425038 0.338590 0.000000 0.376068 0.349776 0.000000 0.322802 0.359760 0.000000 0.270665 0.369917 0.000000 0.214160 0.378668 0.000000 0.159194 0.387506 0.000000 0.099810 0.394743 0.000000 0.042442 0.401955 0.000000 -0.019359 0.407395 0.000000 -0.078609 0.412669 0.000000 -0.142265 0.416036 0.000000 -0.202785 0.419068 0.000000 -0.267634 0.420102 0.000000 -0.328725 0.420605 0.000000 -0.394007 0.419077 0.000000 -0.454893 0.416793 0.000000 -0.519761 0.412512 0.000000 -0.579599 0.407228 0.000000 -0.643128 0.400054 0.000000 -0.701021 0.391613 0.000000 -0.762226 0.381466 0.000000 -0.817244 0.369782 0.000000 -0.875102 0.356655 0.000000 -0.926301 0.341725 0.000000 -0.979777 0.325690 0.000000 -1.026226 0.307606 0.000000 -1.074300 0.288822 0.000000 -1.115111 0.267780 0.000000 -1.156817 0.246497 0.000000 -1.191172 0.222800 0.000000 -1.225636 0.199359 0.000000 -1.252822 0.173414 0.000000 -1.279295 0.148241 0.000000 -1.298734 0.120549 0.000000 -1.316633 0.094144 0.000000 -1.327910 0.065284 0.000000 -1.336843 0.038198 0.000000 -1.339726 0.008802 0.000000 -1.339517 -0.018379 0.000000 -1.333972 -0.047659 0.000000 -1.324664 -0.074346 0.000000 -1.310855 -0.102864 0.000000 -1.292714 -0.128493 0.000000 -1.270998 -0.155650 0.000000 -1.244490 -0.179707 0.000000 -1.215395 -0.204971 0.000000 -1.181164 -0.227015 0.000000 -1.145362 -0.249949 0.000000 -1.104191 -0.269631 0.000000 -1.062466 -0.289901 0.000000 -1.015241 -0.306969 0.000000 -0.968450 -0.324354 0.000000 -0.916114 -0.338656 0.000000 -0.865155 -0.353041 0.000000 -0.808675 -0.364520 0.000000 -0.754447 -0.375886 0.000000 -0.694779 -0.384567 0.000000 -0.638161 -0.392975 0.000000 -0.576225 -0.398953 0.000000 -0.518050 -0.404528 0.000000 -0.454708 -0.407948 0.000000 -0.395750 -0.410860 0.000000 -0.331798 -0.411905 0.000000 