# vtk DataFile Version 2.0
Comment goes here
ASCII

DATASET STRUCTURED_POINTS
FIELD FieldData 1
TIME 1 1 double
0.04000000
DIMENSIONS    128   128   1

ORIGIN    0.000   0.000   0.000
SPACING   0.039062 0.039062   1.000

POINT_DATA   16384
VECTORS u double

0.801410 0.000000 0.000000 0.835163 0.000000 0.000000 0.865194 0.000000 0.000000 0.895940 0.000000 0.000000 0.922944 0.000000 0.000000 0.950529 0.000000 0.000000 0.974331 0.000000 0.000000 0.998578 0.000000 0.000000 1.018984 0.000000 0.000000 1.039692 0.000000 0.000000 1.056485 0.000000 0.000000 1.073438 0.000000 0.000000 1.086385 0.000000 0.000000 1.099351 0.000000 0.000000 1.108215 0.000000 0.000000 1.116960 0.000000 0.000000 1.121503 0.000000 0.000000 1.125795 0.000000 0.000000 1.125792 0.000000 0.000000 1.125419 0.000000 0.000000 1.120668 0.000000 0.000000 1.115441 0.000000 0.000000 1.105777 0.000000 0.000000 1.095545 0.000000 0.000000 1.080848 0.000000 0.000000 1.065506 0.000000 0.000000 1.045711 0.000000 0.000000 1.025211 0.000000 0.000000 1.000314 0.000000 0.000000 0.974665 0.000000 0.000000 0.944729 0.000000 0.000000 0.914006 0.000000 0.000000 0.879164 0.000000 0.000000 0.843504 0.000000 0.000000 0.803959 0.000000 0.000000 0.763565 0.000000 0.000000 0.719584 0.000000 0.000000 0.674722 0.000000 0.000000 0.626639 0.000000 0.000000 0.577631 0.000000 0.000000 0.525839 0.000000 0.000000 0.473064 0.000000 0.000000 0.418014 0.000000 0.000000 0.361905 0.000000 0.000000 0.304098 0.000000 0.000000 0.245137 0.000000 0.000000 0.185124 0.000000 0.000000 0.123846 0.000000 0.000000 0.062222 0.000000 0.000000 -0.000791 0.000000 0.000000 -0.063386 0.000000 0.000000 -0.127503 0.000000 0.000000 -0.190390 0.000000 0.000000 -0.254932 0.000000 0.000000 -0.317397 0.000000 0.000000 -0.381638 0.000000 0.000000 -0.442935 0.000000 0.000000 -0.506111 0.000000 0.000000 -0.565469 0.000000 0.000000 -0.626781 0.000000 0.000000 -0.683416 0.000000 0.000000 -0.742041 0.000000 0.000000 -0.795166 0.000000 0.000000 -0.850273 0.000000 0.000000 -0.899114 0.000000 0.000000 -0.949882 0.000000 0.000000 -0.993696 0.000000 0.000000 -1.039329 0.000000 0.000000 -1.077424 0.000000 0.000000 -1.117180 0.000000 0.000000 -1.148935 0.000000 0.000000 -1.182144 0.000000 0.000000 -1.207031 0.000000 0.000000 -1.233122 0.000000 0.000000 -1.250724 0.000000 0.000000 -1.269245 0.000000 0.000000 -1.279277 0.000000 0.000000 -1.289913 0.000000 0.000000 -1.292229 0.000000 0.000000 -1.294820 0.000000 0.000000 -1.289428 0.000000 0.000000 -1.283974 0.000000 0.000000 -1.271034 0.000000 0.000000 -1.257701 0.000000 0.000000 -1.237523 0.000000 0.000000 -1.216636 0.000000 0.000000 -1.189670 0.000000 0.000000 -1.161706 0.000000 0.000000 -1.128524 0.000000 0.000000 -1.094088 0.000000 0.000000 -1.055362 0.000000 0.000000 -1.015168 0.000000 0.000000 -0.971649 0.000000 0.000000 -0.926489 0.000000 0.000000 -0.878972 0.000000 0.000000 -0.829686 0.000000 0.000000 -0.778988 0.000000 0.000000 -0.726433 0.000000 0.000000 -0.673359 0.000000 0.000000 -0.618380 0.000000 0.000000 -0.563706 0.000000 0.000000 -0.507109 0.000000 0.000000 -0.451555 0.000000 0.000000 -0.394090 0.000000 0.000000 -0.338308 0.000000 0.000000 -0.280649 0.000000 0.000000 -0.225214 0.000000 0.000000 -0.167951 0.000000 0.000000 -0.113356 0.000000 0.000000 -0.056992 0.000000 0.000000 -0.003648 0.000000 0.000000 0.051397 0.000000 0.000000 0.103158 0.000000 0.000000 0.156544 0.000000 0.000000 0.206457 0.000000 0.000000 0.257914 0.000000 0.000000 0.305773 0.000000 0.000000 0.355092 0.000000 0.000000 0.400736 0.000000 0.000000 0.447750 0.000000 0.000000 0.491053 0.000000 0.000000 0.535632 0.000000 0.000000 0.576486 0.000000 0.000000 0.618518 0.000000 0.000000 0.656827 0.000000 0.000000 0.696209 0.000000 0.000000 0.731874 0.000000 0.000000 0.768499 0.000000 0.000000 
0.803134 -0.033332 0.000000 0.836942 -0.031892 0.000000 0.867026 -0.030389 0.000000 0.897835 -0.028875 0.000000 0.924887 -0.027294 0.000000 0.952542 -0.025694 0.000000 0.976388 -0.024025 0.000000 1.000711 -0.022326 0.000000 1.021152 -0.020557 0.000000 1.041942 -0.018751 0.000000 1.058762 -0.016873 0.000000 1.075800 -0.014950 0.000000 1.088763 -0.012957 0.000000 1.101816 -0.010915 0.000000 1.110681 -0.008804 0.000000 1.119512 -0.006644 0.000000 1.124041 -0.004418 0.000000 1.128417 -0.002145 0.000000 1.128382 0.000188 0.000000 1.128086 0.002562 0.000000 1.123284 0.004989 0.000000 1.118125 0.007446 0.000000 1.108390 0.009948 0.000000 1.098215 0.012465 0.000000 1.083425 0.015019 0.000000 1.068128 0.017568 0.000000 1.048219 0.020148 0.000000 1.027746 0.022699 0.000000 1.002715 0.025273 0.000000 0.977077 0.027792 0.000000 0.946988 0.030330 0.000000 0.916257 0.032783 0.000000 0.881243 0.035251 0.000000 0.845558 0.037603 0.000000 0.805824 0.039970 0.000000 0.765386 0.042187 0.000000 0.721204 0.044422 0.000000 0.676279 0.046473 0.000000 0.627984 0.048546 0.000000 0.578894 0.050400 0.000000 0.526883 0.052283 0.000000 0.474010 0.053912 0.000000 0.418734 0.055580 0.000000 0.362510 0.056958 0.000000 0.304475 0.058384 0.000000 0.245385 0.059487 0.000000 0.185144 0.060646 0.000000 0.123723 0.061451 0.000000 0.061873 0.062318 0.000000 -0.001295 0.062804 0.000000 -0.064111 0.063356 0.000000 -0.128393 0.063502 0.000000 -0.191494 0.063714 0.000000 -0.256207 0.063503 0.000000 -0.318876 0.063353 0.000000 -0.383295 0.062769 0.000000 -0.444782 0.062236 0.000000 -0.508137 0.061267 0.000000 -0.567670 0.060335 0.000000 -0.629159 0.058973 0.000000 -0.685949 0.057630 0.000000 -0.744746 0.055875 0.000000 -0.798003 0.054116 0.000000 -0.853273 0.051974 0.000000 -0.902220 0.049804 0.000000 -0.953136 0.047291 0.000000 -0.997026 0.044724 0.000000 -1.042790 0.041864 0.000000 -1.080928 0.038925 0.000000 -1.120792 0.035755 0.000000 -1.152554 0.032482 0.000000 -1.185846 0.029048 0.000000 -1.210704 0.025489 0.000000 -1.236849 0.021847 0.000000 -1.254385 0.018062 0.000000 -1.272931 0.014276 0.000000 -1.282859 0.010334 0.000000 -1.293490 0.006476 0.000000 -1.295668 0.002454 0.000000 -1.298225 -0.001401 0.000000 -1.292665 -0.005423 0.000000 -1.287150 -0.009197 0.000000 -1.274016 -0.013137 0.000000 -1.260600 -0.016756 0.000000 -1.240208 -0.020532 0.000000 -1.219219 -0.023926 0.000000 -1.192025 -0.027465 0.000000 -1.163946 -0.030573 0.000000 -1.130529 -0.033809 0.000000 -1.095971 -0.036581 0.000000 -1.057010 -0.039460 0.000000 -1.016692 -0.041857 0.000000 -0.972943 -0.044340 0.000000 -0.927660 -0.046338 0.000000 -0.879924 -0.048401 0.000000 -0.830522 -0.049992 0.000000 -0.779617 -0.051627 0.000000 -0.726956 -0.052814 0.000000 -0.673693 -0.054026 0.000000 -0.618620 -0.054827 0.000000 -0.563773 -0.055635 0.000000 -0.507096 -0.056075 0.000000 -0.451387 -0.056510 0.000000 -0.393854 -0.056623 0.000000 -0.337934 -0.056721 0.000000 -0.280219 -0.056547 0.000000 -0.224662 -0.056349 0.000000 -0.167353 -0.055929 0.000000 -0.112650 -0.055479 0.000000 -0.056250 -0.054854 0.000000 -0.002809 -0.054195 0.000000 0.052265 -0.053403 0.000000 0.104113 -0.052573 0.000000 0.157524 -0.051649 0.000000 0.207516 -0.050685 0.000000 0.258996 -0.049658 0.000000 0.306928 -0.048589 0.000000 0.356270 -0.047481 0.000000 0.401982 -0.046329 0.000000 0.449022 -0.045159 0.000000 0.492389 -0.043941 0.000000 0.536997 -0.042717 0.000000 0.577914 -0.041443 0.000000 0.619980 -0.040171 0.000000 0.658349 -0.038845 0.000000 0.697771 -0.037523 0.000000 0.733494 -0.036145 0.000000 0.770167 -0.034768 0.000000 
0.804287 -0.066775 0.000000 0.838106 -0.063892 0.000000 0.868212 -0.060893 0.000000 0.899035 -0.057861 0.000000 0.926125 -0.054707 0.000000 0.953799 -0.051501 0.000000 0.977699 -0.048169 0.000000 1.002046 -0.044765 0.000000 1.022560 -0.041232 0.000000 1.043377 -0.037609 0.000000 1.060286 -0.033857 0.000000 1.077353 -0.030001 0.000000 1.090421 -0.026016 0.000000 1.103504 -0.021919 0.000000 1.112487 -0.017697 0.000000 1.121347 -0.013359 0.000000 1.126002 -0.008905 0.000000 1.130402 -0.004341 0.000000 1.130499 0.000331 0.000000 1.130220 0.005098 0.000000 1.125552 0.009960 0.000000 1.120400 0.014894 0.000000 1.110796 0.019910 0.000000 1.100616 0.024964 0.000000 1.085952 0.030087 0.000000 1.070635 0.035207 0.000000 1.050842 0.040381 0.000000 1.030336 0.045504 0.000000 1.005408 0.050669 0.000000 0.979722 0.055727 0.000000 0.949720 0.060820 0.000000 0.918927 0.065744 0.000000 0.883985 0.070699 0.000000 0.848224 0.075419 0.000000 0.808543 0.080171 0.000000 0.768018 0.084620 0.000000 0.723870 0.089108 0.000000 0.678846 0.093221 0.000000 0.630566 0.097384 0.000000 0.581368 0.101101 0.000000 0.529352 0.104885 0.000000 0.476361 0.108149 0.000000 0.421060 0.111499 0.000000 0.364709 0.114259 0.000000 0.306626 0.117125 0.000000 0.247399 0.119331 0.000000 0.187088 0.121663 0.000000 0.125518 0.123271 0.000000 0.063575 0.125018 0.000000 0.000246 0.125984 0.000000 -0.062688 0.127098 0.000000 -0.127145 0.127383 0.000000 -0.190390 0.127815 0.000000 -0.255294 0.127383 0.000000 -0.318132 0.127087 0.000000 -0.382757 0.125906 0.000000 -0.444438 0.124842 0.000000 -0.508014 0.122888 0.000000 -0.567764 0.121022 0.000000 -0.629487 0.118279 0.000000 -0.686515 0.115587 0.000000 -0.745556 0.112054 0.000000 -0.799068 0.108527 0.000000 -0.854586 0.104217 0.000000 -0.903799 0.099863 0.000000 -0.954964 0.094806 0.000000 -0.999124 0.089654 0.000000 -1.045129 0.083902 0.000000 -1.083534 0.078002 0.000000 -1.123624 0.071627 0.000000 -1.155644 0.065054 0.000000 -1.189138 0.058149 0.000000 -1.214233 0.051003 0.000000 -1.240550 0.043681 0.000000 -1.258296 0.036081 0.000000 -1.276974 0.028474 0.000000 -1.287078 0.020559 0.000000 -1.297794 0.012810 0.000000 -1.300108 0.004735 0.000000 -1.302698 -0.003004 0.000000 -1.297226 -0.011075 0.000000 -1.291689 -0.018649 0.000000 -1.278594 -0.026551 0.000000 -1.265097 -0.033809 0.000000 -1.244695 -0.041380 0.000000 -1.223571 -0.048182 0.000000 -1.196319 -0.055273 0.000000 -1.168051 -0.061496 0.000000 -1.134532 -0.067975 0.000000 -1.099739 -0.073519 0.000000 -1.060640 -0.079279 0.000000 -1.020049 -0.084068 0.000000 -0.976132 -0.089031 0.000000 -0.930552 -0.093019 0.000000 -0.882627 -0.097138 0.000000 -0.832913 -0.100306 0.000000 -0.781811 -0.103565 0.000000 -0.728833 -0.105924 0.000000 -0.675372 -0.108336 0.000000 -0.619990 -0.109920 0.000000 -0.564955 -0.111524 0.000000 -0.507984 -0.112386 0.000000 -0.452104 -0.113242 0.000000 -0.394301 -0.113453 0.000000 -0.338232 -0.113635 0.000000 -0.280277 -0.113272 0.000000 -0.224597 -0.112865 0.000000 -0.167081 -0.112012 0.000000 -0.112281 -0.111103 0.000000 -0.055708 -0.109841 0.000000 -0.002196 -0.108515 0.000000 0.053018 -0.106922 0.000000 0.104912 -0.105259 0.000000 0.158432 -0.103403 0.000000 0.208448 -0.101473 0.000000 0.260011 -0.099412 0.000000 0.307950 -0.097273 0.000000 0.357351 -0.095054 0.000000 0.403059 -0.092752 0.000000 0.450139 -0.090407 0.000000 0.493495 -0.087975 0.000000 0.538130 -0.085525 0.000000 0.579033 -0.082983 0.000000 0.621117 -0.080435 0.000000 0.659475 -0.077791 0.000000 0.698909 -0.075145 0.000000 0.734629 -0.072396 0.000000 0.771312 -0.069640 0.000000 
0.808883 -0.100126 0.000000 0.842824 -0.095817 0.000000 0.873058 -0.091318 0.000000 0.904022 -0.086788 0.000000 0.931247 -0.082058 0.000000 0.959081 -0.077268 0.000000 0.983124 -0.072271 0.000000 1.007648 -0.067187 0.000000 1.028308 -0.061889 0.000000 1.049318 -0.056477 0.000000 1.066370 -0.050849 0.000000 1.083641 -0.045085 0.000000 1.096845 -0.039108 0.000000 1.110136 -0.032981 0.000000 1.119241 -0.026646 0.000000 1.128305 -0.020158 0.000000 1.133060 -0.013473 0.000000 1.137653 -0.006642 0.000000 1.137820 0.000371 0.000000 1.137716 0.007509 0.000000 1.133080 0.014809 0.000000 1.128076 0.022201 0.000000 1.118461 0.029732 0.000000 1.108393 0.037309 0.000000 1.093668 0.045000 0.000000 1.078423 0.052678 0.000000 1.058516 0.060447 0.000000 1.038035 0.068133 0.000000 1.012939 0.075888 0.000000 0.987229 0.083480 0.000000 0.957005 0.091124 0.000000 0.926136 0.098518 0.000000 0.890919 0.105954 0.000000 0.855031 0.113044 0.000000 0.815026 0.120175 0.000000 0.774324 0.126860 0.000000 0.729806 0.133593 0.000000 0.684556 0.139777 0.000000 0.635865 0.146023 0.000000 0.586395 0.151614 0.000000 0.533931 0.157291 0.000000 0.480624 0.162205 0.000000 0.424845 0.167232 0.000000 0.368136 0.171392 0.000000 0.309548 0.175693 0.000000 0.249922 0.179025 0.000000 0.189082 0.182527 0.000000 0.127076 0.184964 0.000000 0.064585 0.187591 0.000000 0.000783 0.189068 0.000000 -0.062714 0.190747 0.000000 -0.127677 0.191204 0.000000 -0.191496 0.191863 0.000000 -0.256937 0.191245 0.000000 -0.320355 0.190816 0.000000 -0.385542 0.189075 0.000000 -0.447803 0.187493 0.000000 -0.511960 0.184593 0.000000 -0.572282 0.181808 0.000000 -0.634596 0.177724 0.000000 -0.692177 0.173699 0.000000 -0.751809 0.168427 0.000000 -0.805844 0.163147 0.000000 -0.861940 0.156706 0.000000 -0.911634 0.150181 0.000000 -0.963348 0.142616 0.000000 -1.007934 0.134889 0.000000 -1.054444 0.126274 0.000000 -1.093206 0.117421 0.000000 -1.133742 0.107865 0.000000 -1.166035 0.097996 0.000000 -1.199900 0.087638 0.000000 -1.225174 0.076901 0.000000 -1.251773 0.065910 0.000000 -1.269595 0.054485 0.000000 -1.288455 0.043057 0.000000 -1.298525 0.031154 0.000000 -1.309316 0.019506 0.000000 -1.311484 0.007357 0.000000 -1.314038 -0.004282 0.000000 -1.308312 -0.016432 0.000000 -1.302629 -0.027829 0.000000 -1.289179 -0.039728 0.000000 -1.275431 -0.050654 0.000000 -1.254584 -0.062059 0.000000 -1.233115 -0.072303 0.000000 -1.205342 -0.082985 0.000000 -1.176651 -0.092360 0.000000 -1.142554 -0.102121 0.000000 -1.107277 -0.110473 0.000000 -1.067562 -0.119150 0.000000 -1.026446 -0.126364 0.000000 -0.981896 -0.133837 0.000000 -0.935769 -0.139843 0.000000 -0.887214 -0.146040 0.000000 -0.836951 -0.150809 0.000000 -0.785237 -0.155707 0.000000 -0.731729 -0.159253 0.000000 -0.677690 -0.162870 0.000000 -0.621809 -0.165244 0.000000 -0.566241 -0.167641 0.000000 -0.508815 -0.168926 0.000000 -0.452454 -0.170193 0.000000 -0.394247 -0.170495 0.000000 -0.337755 -0.170745 0.000000 -0.279449 -0.170183 0.000000 -0.223402 -0.169545 0.000000 -0.165591 -0.168245 0.000000 -0.110480 -0.166852 0.000000 -0.053663 -0.164939 0.000000 0.000110 -0.162920 0.000000 0.055521 -0.160511 0.000000 0.107632 -0.157988 0.000000 0.161310 -0.155186 0.000000 0.211507 -0.152265 0.000000 0.263196 -0.149160 0.000000 0.311287 -0.145929 0.000000 0.360791 -0.142590 0.000000 0.406630 -0.139118 0.000000 0.453799 -0.135595 0.000000 0.497272 -0.131931 0.000000 0.541990 -0.128255 0.000000 0.583004 -0.124430 0.000000 0.625172 -0.120613 0.000000 0.663641 -0.116638 0.000000 0.703167 -0.112677 0.000000 0.739000 -0.108548 0.000000 0.775788 -0.104426 0.000000 
0.812897 -0.133810 0.000000 0.846914 -0.128067 0.000000 0.877242 -0.122091 0.000000 0.908297 -0.116050 0.000000 0.935645 -0.109766 0.000000 0.963586 -0.103377 0.000000 0.987781 -0.096736 0.000000 1.012429 -0.089948 0.000000 1.033270 -0.082902 0.000000 1.054418 -0.075672 0.000000 1.071677 -0.068180 0.000000 1.089095 -0.060476 0.000000 1.102526 -0.052511 0.000000 1.115967 -0.044314 0.000000 1.125310 -0.035865 0.000000 1.134521 -0.027178 0.000000 1.139518 -0.018253 0.000000 1.144246 -0.009101 0.000000 1.144650 0.000269 0.000000 1.144659 0.009838 0.000000 1.140244 0.019600 0.000000 1.135324 0.029514 0.000000 1.125905 0.039593 0.000000 1.115885 0.049757 0.000000 1.101322 0.060057 0.000000 1.086084 0.070359 0.000000 1.066297 0.080769 0.000000 1.045778 0.091081 0.000000 1.020756 0.101476 0.000000 0.994960 0.111662 0.000000 0.964759 0.121913 0.000000 0.933758 0.131830 0.000000 0.898513 0.141804 0.000000 0.862446 0.151312 0.000000 0.822361 0.160879 0.000000 0.781437 0.169841 0.000000 0.736788 0.178875 0.000000 0.691277 0.187161 0.000000 0.642405 0.195545 0.000000 0.592636 0.203034 0.000000 0.539943 0.210655 0.000000 0.486303 0.217236 0.000000 0.430247 0.223988 0.000000 0.373169 0.229556 0.000000 0.314260 0.235338 0.000000 0.254232 0.239797 0.000000 0.193025 0.244509 0.000000 0.130580 0.247767 0.000000 0.067677 0.251310 0.000000 0.003400 0.253283 0.000000 -0.060555 0.255558 0.000000 -0.126032 0.256165 0.000000 -0.190352 0.257075 0.000000 -0.256345 0.256242 0.000000 -0.320306 0.255692 0.000000 -0.386082 0.253354 0.000000 -0.448924 0.251260 0.000000 -0.513703 0.247366 0.000000 -0.574638 0.243657 0.000000 -0.637599 0.238175 0.000000 -0.695816 0.232800 0.000000 -0.756111 0.225721 0.000000 -0.810794 0.218659 0.000000 -0.867556 0.210007 0.000000 -0.917893 0.201271 0.000000 -0.970259 0.191106 0.000000 -1.015469 0.180750 0.000000 -1.062600 0.169174 0.000000 -1.101948 0.157300 0.000000 -1.143053 0.144455 0.000000 -1.175874 0.131213 0.000000 -1.210237 0.117289 0.000000 -1.235965 0.102876 0.000000 -1.262969 0.088102 0.000000 -1.281152 0.072763 0.000000 -1.300308 0.057403 0.000000 -1.310633 0.041421 0.000000 -1.321595 0.025769 0.000000 -1.323900 0.009457 0.000000 -1.326490 -0.006176 0.000000 -1.320776 -0.022484 0.000000 -1.314988 -0.037782 0.000000 -1.301424 -0.053748 0.000000 -1.287432 -0.068404 0.000000 -1.266348 -0.083697 0.000000 -1.244501 -0.097424 0.000000 -1.216380 -0.111737 0.000000 -1.187191 -0.124284 0.000000 -1.152649 -0.137350 0.000000 -1.116771 -0.148511 0.000000 -1.076534 -0.160110 0.000000 -1.034740 -0.169734 0.000000 -0.989614 -0.179709 0.000000 -0.942758 -0.187701 0.000000 -0.893597 -0.195956 0.000000 -0.842581 -0.202283 0.000000 -0.790256 -0.208788 0.000000 -0.735998 -0.213471 0.000000 -0.681366 -0.218256 0.000000 -0.624762 -0.221369 0.000000 -0.568638 -0.224518 0.000000 -0.510538 -0.226173 0.000000 -0.453673 -0.227810 0.000000 -0.394854 -0.228152 0.000000 -0.337921 -0.228433 0.000000 -0.279078 -0.227625 0.000000 -0.222659 -0.226723 0.000000 -0.164388 -0.224935 0.000000 -0.108974 -0.223031 0.000000 -0.051776 -0.220430 0.000000 0.002232 -0.217699 0.000000 0.057951 -0.214444 0.000000 0.110236 -0.211048 0.000000 0.164155 -0.207278 0.000000 0.214476 -0.203359 0.000000 0.266348 -0.199192 0.000000 0.314522 -0.194868 0.000000 0.364163 -0.190397 0.000000 0.410055 -0.185761 0.000000 0.457327 -0.181050 0.000000 0.500835 -0.176166 0.000000 0.545632 -0.171257 0.000000 0.586676 -0.166165 0.000000 0.628910 -0.161072 0.000000 0.667412 -0.155786 0.000000 0.707000 -0.150504 0.000000 0.742880 -0.145017 0.000000 0.779735 -0.139523 0.000000 
0.820340 -0.167306 0.000000 0.854544 -0.160162 0.000000 0.885075 -0.152701 0.000000 0.916348 -0.145191 0.000000 0.943921 -0.137347 0.000000 0.972113 -0.129405 0.000000 0.996554 -0.121115 0.000000 1.021483 -0.112676 0.000000 1.042585 -0.103877 0.000000 1.064040 -0.094884 0.000000 1.081567 -0.085526 0.000000 1.099311 -0.075934 0.000000 1.113007 -0.065980 0.000000 1.126783 -0.055766 0.000000 1.136377 -0.045201 0.000000 1.145918 -0.034366 0.000000 1.151137 -0.023199 0.000000 1.156177 -0.011773 0.000000 1.156760 -0.000042 0.000000 1.157048 0.011915 0.000000 1.152757 0.024143 0.000000 1.148070 0.036541 0.000000 1.138705 0.049171 0.000000 1.128859 0.061891 0.000000 1.114272 0.074802 0.000000 1.099136 0.087703 0.000000 1.079240 0.100752 0.000000 1.058745 0.113675 0.000000 1.033522 0.126706 0.000000 1.007667 0.139476 0.000000 0.977175 0.152326 0.000000 0.946029 0.164765 0.000000 0.910403 0.177266 0.000000 0.874108 0.189196 0.000000 0.833557 0.201184 0.000000 0.792322 0.212434 0.000000 0.747128 0.223754 0.000000 0.701227 0.234160 0.000000 0.651739 0.244664 0.000000 0.601506 0.254075 0.000000 0.548134 0.263625 0.000000 0.493958 0.271901 0.000000 0.437165 0.280365 0.000000 0.379485 0.287378 0.000000 0.319787 0.294631 0.000000 0.259091 0.300261 0.000000 0.197051 0.306179 0.000000 0.133875 0.310311 0.000000 0.070099 0.314771 0.000000 0.005028 0.317300 0.000000 -0.059836 0.320179 0.000000 -0.126165 0.321001 0.000000 -0.191425 0.322176 0.000000 -0.258325 0.321200 0.000000 -0.323248 0.320552 0.000000 -0.389979 0.317693 0.000000 -0.453797 0.315115 0.000000 -0.519569 0.310306 0.000000 -0.581480 0.305704 0.000000 -0.645459 0.298903 0.000000 -0.704637 0.292211 0.000000 -0.765956 0.283404 0.000000 -0.821565 0.274592 0.000000 -0.879334 0.263806 0.000000 -0.930542 0.252885 0.000000 -0.983874 0.240192 0.000000 -1.029873 0.227230 0.000000 -1.077900 0.212753 0.000000 -1.117930 0.197873 0.000000 -1.159834 0.181791 0.000000 -1.193207 0.165180 0.000000 -1.228242 0.147728 0.000000 -1.254367 0.129633 0.000000 -1.281892 0.111097 0.000000 -1.300299 0.091824 0.000000 -1.319802 0.072537 0.000000 -1.330164 0.052442 0.000000 -1.341285 0.032774 0.000000 -1.343435 0.012251 0.000000 -1.345984 -0.007406 0.000000 -1.339924 -0.027934 0.000000 -1.333897 -0.047181 0.000000 -1.319806 -0.067284 0.000000 -1.305385 -0.085730 0.000000 -1.283609 -0.104989 0.000000 -1.261160 -0.122271 0.000000 -1.232208 -0.140296 0.000000 -1.202269 -0.156092 0.000000 -1.166786 -0.172540 0.000000 -1.130043 -0.186587 0.000000 -1.088790 -0.201181 0.000000 -1.046049 -0.213285 0.000000 -0.999868 -0.225820 0.000000 -0.952021 -0.235860 0.000000 -0.901800 -0.246217 0.000000 -0.849787 -0.254149 0.000000 -0.796430 -0.262290 0.000000 -0.741201 -0.268143 0.000000 -0.685592 -0.274106 0.000000 -0.628073 -0.277972 0.000000 -0.571048 -0.281865 0.000000 -0.512110 -0.283892 0.000000 -0.454435 -0.285876 0.000000 -0.394872 -0.286246 0.000000 -0.337228 -0.286522 0.000000 -0.277741 -0.285445 0.000000 -0.220713 -0.284235 0.000000 -0.161899 -0.281930 0.000000 -0.105976 -0.279464 0.000000 -0.048331 -0.276145 0.000000 0.006096 -0.272647 0.000000 0.062173 -0.268515 0.000000 0.114799 -0.264192 0.000000 0.169000 -0.259426 0.000000 0.219594 -0.254458 0.000000 0.271688 -0.249206 0.000000 0.320083 -0.243743 0.000000 0.369900 -0.238123 0.000000 0.415977 -0.232281 0.000000 0.463395 -0.226375 0.000000 0.507066 -0.220237 0.000000 0.551993 -0.214095 0.000000 0.593190 -0.207707 0.000000 0.635553 -0.201349 0.000000 0.674209 -0.194728 0.000000 0.713937 -0.188145 0.000000 0.749982 -0.181282 0.000000 0.786996 -0.174443 0.000000 
0.827180 -0.201359 0.000000 0.861521 -0.192801 0.000000 0.892213 -0.183895 0.000000 0.923652 -0.174897 0.000000 0.951431 -0.165531 0.000000 0.979820 -0.156010 0.000000 1.004512 -0.146106 0.000000 1.029668 -0.135979 0.000000 1.051063 -0.125459 0.000000 1.072771 -0.114655 0.000000 1.090628 -0.103452 0.000000 1.108642 -0.091916 0.000000 1.122694 -0.079983 0.000000 1.136748 -0.067684 0.000000 1.146711 -0.055000 0.000000 1.156524 -0.041938 0.000000 1.162112 -0.028513 0.000000 1.167405 -0.014724 0.000000 1.168339 -0.000602 0.000000 1.168845 0.013841 0.000000 1.164871 0.028579 0.000000 1.160353 0.043566 0.000000 1.151257 0.058804 0.000000 1.141518 0.074190 0.000000 1.127136 0.089780 0.000000 1.112037 0.105391 0.000000 1.092271 0.121160 0.000000 1.071735 0.136798 0.000000 1.046559 0.152554 0.000000 1.020581 0.168008 0.000000 0.990050 0.183550 0.000000 0.958700 0.198602 0.000000 0.922946 0.213726 0.000000 0.886368 0.228158 0.000000 0.845602 0.242665 0.000000 0.804009 0.256270 0.000000 0.758516 0.269970 0.000000 0.712189 0.282550 0.000000 0.662322 0.295266 0.000000 0.611598 0.306640 0.000000 0.557771 0.318204 0.000000 0.503044 0.328204 0.000000 0.445724 0.338461 0.000000 0.387435 0.346933 0.000000 0.327141 0.355732 0.000000 0.265777 0.362533 0.000000 0.203073 0.369725 0.000000 0.139170 0.374720 0.000000 0.074663 0.380158 0.000000 0.008803 0.383218 0.000000 -0.056857 0.386751 0.000000 -0.124039 0.387754 0.000000 -0.190159 0.389235 0.000000 -0.257975 0.388065 0.000000 -0.323819 0.387347 0.000000 -0.391526 0.383903 0.000000 -0.456319 0.380850 0.000000 -0.523120 0.375049 0.000000 -0.586048 0.369547 0.000000 -0.651099 0.361332 0.000000 -0.711323 0.353296 0.000000 -0.773737 0.342648 0.000000 -0.830400 0.332037 0.000000 -0.889269 0.318984 0.000000 -0.941515 0.305810 0.000000 -0.995921 0.290437 0.000000 -1.042916 0.274777 0.000000 -1.091963 0.257231 0.000000 -1.132916 0.239233 0.000000 -1.175751 0.219732 0.000000 -1.209945 0.199621 0.000000 -1.245790 0.178449 0.000000 -1.272603 0.156526 0.000000 -1.300784 0.134034 0.000000 -1.319719 0.110673 0.000000 -1.339696 0.087268 0.000000 -1.350403 0.062904 0.000000 -1.361792 0.039040 0.000000 -1.364087 0.014156 0.000000 -1.366682 -0.009686 0.000000 -1.360558 -0.034571 0.000000 -1.354345 -0.057901 0.000000 -1.339981 -0.082261 0.000000 -1.325144 -0.104600 0.000000 -1.302896 -0.127921 0.000000 -1.279814 -0.148825 0.000000 -1.250208 -0.170629 0.000000 -1.219441 -0.189706 0.000000 -1.183151 -0.209575 0.000000 -1.145418 -0.226507 0.000000 -1.103238 -0.244104 0.000000 -1.059385 -0.258657 0.000000 -1.012195 -0.273737 0.000000 -0.963160 -0.285769 0.000000 -0.911891 -0.298189 0.000000 -0.858658 -0.307653 0.000000 -0.804254 -0.317373 0.000000 -0.747818 -0.324309 0.000000 -0.691199 -0.331385 0.000000 -0.632525 -0.335914 0.000000 -0.574560 -0.340481 0.000000 -0.514550 -0.342786 0.000000 -0.456029 -0.345048 0.000000 -0.395502 -0.345359 0.000000 -0.337121 -0.345565 0.000000 -0.276792 -0.344140 0.000000 -0.219144 -0.342565 0.000000 -0.159617 -0.339672 0.000000 -0.103190 -0.336599 0.000000 -0.044959 -0.332502 0.000000 0.009862 -0.328203 0.000000 0.066407 -0.323147 0.000000 0.119327 -0.317874 0.000000 0.173891 -0.312074 0.000000 0.224697 -0.306047 0.000000 0.277064 -0.299681 0.000000 0.325606 -0.293081 0.000000 0.375626 -0.286291 0.000000 0.421804 -0.279255 0.000000 0.469373 -0.272139 0.000000 0.513117 -0.264765 0.000000 0.558164 -0.257380 0.000000 0.599423 -0.249724 0.000000 0.641890 -0.242091 0.000000 0.680617 -0.234170 0.000000 0.720448 -0.226277 0.000000 0.756583 -0.218076 0.000000 0.793713 -0.209881 0.000000 
0.837422 -0.235114 0.000000 0.872010 -0.225195 0.000000 0.902980 -0.214832 0.000000 0.934713 -0.204409 0.000000 0.962809 -0.193515 0.000000 0.991540 -0.182486 0.000000 1.016585 -0.170963 0.000000 1.042131 -0.159227 0.000000 1.063910 -0.146980 0.000000 1.086048 -0.134448 0.000000 1.104308 -0.121397 0.000000 1.122782 -0.108000 0.000000 1.137240 -0.094085 0.000000 1.151768 -0.079783 0.000000 1.162124 -0.064977 0.000000 1.172406 -0.049767 0.000000 1.178352 -0.034079 0.000000 1.184090 -0.018000 0.000000 1.185327 -0.001482 0.000000 1.186231 0.015382 0.000000 1.182484 0.032635 0.000000 1.178297 0.050156 0.000000 1.169331 0.068006 0.000000 1.159837 0.086012 0.000000 1.145475 0.104283 0.000000 1.130518 0.122568 0.000000 1.110649 0.141055 0.000000 1.090142 0.159386 0.000000 1.064735 0.177859 0.000000 1.038666 0.195985 0.000000 1.007772 0.214207 0.000000 0.976208 0.231869 0.000000 0.939963 0.249598 0.000000 0.903050 0.266540 0.000000 0.861672 0.283543 0.000000 0.819629 0.299519 0.000000 0.773411 0.315574 0.000000 0.726525 0.330354 0.000000 0.675831 0.345254 0.000000 0.624446 0.358626 0.000000 0.569700 0.372179 0.000000 0.514215 0.383948 0.000000 0.455894 0.395974 0.000000 0.396755 0.405962 0.000000 0.335386 0.416289 0.000000 0.273082 0.424329 0.000000 0.209235 0.432786 0.000000 0.144304 0.438722 0.000000 0.078592 0.445138 0.000000 0.011617 0.448819 0.000000 -0.055305 0.453020 0.000000 -0.123689 0.454303 0.000000 -0.191121 0.456112 0.000000 -0.260221 0.454860 0.000000 -0.327419 0.454104 0.000000 -0.396484 0.450193 0.000000 -0.462661 0.446709 0.000000 -0.530882 0.440036 0.000000 -0.595208 0.433683 0.000000 -0.661720 0.424177 0.000000 -0.723332 0.414849 0.000000 -0.787225 0.402482 0.000000 -0.845240 0.390123 0.000000 -0.905571 0.374920 0.000000 -0.959100 0.359538 0.000000 -1.014917 0.341593 0.000000 -1.063089 0.323271 0.000000 -1.113453 0.302753 0.000000 -1.155440 0.281662 0.000000 -1.199455 0.258820 0.000000 -1.234499 0.235219 0.000000 -1.271345 0.210386 0.000000 -1.298791 0.184628 0.000000 -1.327754 0.158214 0.000000 -1.347074 0.130736 0.000000 -1.367579 0.103222 0.000000 -1.378402 0.074537 0.000000 -1.390040 0.046457 0.000000 -1.392169 0.017141 0.000000 -1.394720 -0.010935 0.000000 -1.388148 -0.040270 0.000000 -1.381596 -0.067758 0.000000 -1.366514 -0.096485 0.000000 -1.351053 -0.122815 0.000000 -1.327842 -0.150319 0.000000 -1.303876 -0.174959 0.000000 -1.273098 -0.200668 0.000000 -1.241224 -0.223149 0.000000 -1.203597 -0.246563 0.000000 -1.164580 -0.266501 0.000000 -1.120948 -0.287214 0.000000 -1.075689 -0.304327 0.000000 -1.026987 -0.322046 0.000000 -0.976480 -0.336165 0.000000 -0.923691 -0.350719 0.000000 -0.868977 -0.361787 0.000000 -0.813093 -0.373130 0.000000 -0.755218 -0.381197 0.000000 -0.697201 -0.389398 0.000000 -0.637174 -0.394612 0.000000 -0.577924 -0.399840 0.000000 -0.516681 -0.402422 0.000000 -0.457011 -0.404924 0.000000 -0.395392 -0.405154 0.000000 -0.336012 -0.405232 0.000000 -0.274742 -0.403422 0.000000 -0.216247 -0.401410 0.000000 -0.155934 -0.397884 0.000000 -0.098806 -0.394122 0.000000 -0.039936 -0.389196 0.000000 0.015452 -0.384012 0.000000 0.072503 -0.377980 0.000000 0.125873 -0.371676 0.000000 0.180829 -0.364795 0.000000 0.231987 -0.357631 0.000000 0.284655 -0.350115 0.000000 0.333476 -0.342305 0.000000 0.383727 -0.334320 0.000000 0.430131 -0.326028 0.000000 0.477887 -0.317689 0.000000 0.521827 -0.309027 0.000000 0.567037 -0.300401 0.000000 0.608481 -0.291433 0.000000 0.651109 -0.282542 0.000000 0.690026 -0.273286 0.000000 0.730033 -0.264112 0.000000 0.766379 -0.254548 0.000000 0.803715 -0.245040 0.000000 