# vtk DataFile Version 2.0
Comment goes here
ASCII

DATASET STRUCTURED_POINTS
FIELD FieldData 1
TIME 1 1 double
0.18000000
DIMENSIONS    128   128   1

ORIGIN    0.000   0.000   0.000
SPACING   0.039062 0.039062   1.000

POINT_DATA   16384
VECTORS u double

0.032513 -0.000000 0.000000 0.038711 -0.000000 0.000000 0.046885 -0.000000 0.000000 0.053694 -0.000000 0.000000 0.062193 -0.000000 0.000000 0.069487 -0.000000 0.000000 0.078155 -0.000000 0.000000 0.085778 -0.000000 0.000000 0.094434 -0.000000 0.000000 0.102207 -0.000000 0.000000 0.110648 -0.000000 0.000000 0.118372 -0.000000 0.000000 0.126384 -0.000000 0.000000 0.133849 -0.000000 0.000000 0.141212 -0.000000 0.000000 0.148203 -0.000000 0.000000 0.154696 -0.000000 0.000000 0.161002 -0.000000 0.000000 0.166417 -0.000000 0.000000 0.171838 -0.000000 0.000000 0.175984 -0.000000 0.000000 0.180341 -0.000000 0.000000 0.183054 -0.000000 0.000000 0.186195 -0.000000 0.000000 0.187346 -0.000000 0.000000 0.189151 -0.000000 0.000000 0.188651 -0.000000 0.000000 0.189040 -0.000000 0.000000 0.186841 -0.000000 0.000000 0.185775 -0.000000 0.000000 0.181877 -0.000000 0.000000 0.179359 -0.000000 0.000000 0.173806 -0.000000 0.000000 0.169881 -0.000000 0.000000 0.162761 -0.000000 0.000000 0.157512 -0.000000 0.000000 0.148952 -0.000000 0.000000 0.142496 -0.000000 0.000000 0.132659 -0.000000 0.000000 0.125142 -0.000000 0.000000 0.114216 -0.000000 0.000000 0.105808 -0.000000 0.000000 0.094005 -0.000000 0.000000 0.084891 -0.000000 0.000000 0.072437 -0.000000 0.000000 0.062813 -0.000000 0.000000 0.049941 -0.000000 0.000000 0.040008 -0.000000 0.000000 0.026953 -0.000000 0.000000 0.016911 -0.000000 0.000000 0.003906 -0.000000 0.000000 -0.006051 -0.000000 0.000000 -0.018783 -0.000000 0.000000 -0.028471 -0.000000 0.000000 -0.040716 -0.000000 0.000000 -0.049962 -0.000000 0.000000 -0.061524 -0.000000 0.000000 -0.070169 -0.000000 0.000000 -0.080870 -0.000000 0.000000 -0.088774 -0.000000 0.000000 -0.098456 -0.000000 0.000000 -0.105497 -0.000000 0.000000 -0.114024 -0.000000 0.000000 -0.120100 -0.000000 0.000000 -0.127366 -0.000000 0.000000 -0.132397 -0.000000 0.000000 -0.138320 -0.000000 0.000000 -0.142252 -0.000000 0.000000 -0.146780 0.000000 0.000000 -0.149585 0.000000 0.000000 -0.152700 0.000000 0.000000 -0.154376 0.000000 0.000000 -0.156091 0.000000 0.000000 -0.156667 -0.000000 0.000000 -0.157029 -0.000000 0.000000 -0.156565 -0.000000 0.000000 -0.155655 -0.000000 0.000000 -0.154238 -0.000000 0.000000 -0.152167 -0.000000 0.000000 -0.149914 -0.000000 0.000000 -0.146823 -0.000000 0.000000 -0.143877 -0.000000 0.000000 -0.139927 -0.000000 0.000000 -0.136450 -0.000000 0.000000 -0.131822 -0.000000 0.000000 -0.127990 -0.000000 0.000000 -0.122873 -0.000000 0.000000 -0.118865 -0.000000 0.000000 -0.113450 -0.000000 0.000000 -0.109443 -0.000000 0.000000 -0.103910 -0.000000 0.000000 -0.100067 -0.000000 0.000000 -0.094578 -0.000000 0.000000 -0.091038 -0.000000 0.000000 -0.085730 -0.000000 0.000000 -0.082601 -0.000000 0.000000 -0.077576 -0.000000 0.000000 -0.074927 -0.000000 0.000000 -0.070248 -0.000000 0.000000 -0.068107 -0.000000 0.000000 -0.063797 -0.000000 0.000000 -0.062148 -0.000000 0.000000 -0.058189 -0.000000 0.000000 -0.056976 -0.000000 0.000000 -0.053313 -0.000000 0.000000 -0.052443 -0.000000 0.000000 -0.048989 -0.000000 0.000000 -0.048338 -0.000000 0.000000 -0.044983 -0.000000 0.000000 -0.044406 -0.000000 0.000000 -0.041023 -0.000000 0.000000 -0.040364 -0.000000 0.000000 -0.036822 -0.000000 0.000000 -0.035923 -0.000000 0.000000 -0.032092 -0.000000 0.000000 -0.030802 -0.000000 0.000000 -0.026565 -0.000000 0.000000 -0.024749 -0.000000 0.000000 -0.020008 -0.000000 0.000000 -0.017554 -0.000000 0.000000 -0.012236 -0.000000 0.000000 -0.009062 -0.000000 0.000000 -0.003123 -0.000000 0.000000 0.000822 -0.000000 0.000000 0.007392 -0.000000 0.000000 0.012122 -0.000000 0.000000 0.019297 -0.000000 0.000000 0.024791 -0.000000 0.000000 
0.032355 -0.006960 0.000000 0.038568 -0.007186 0.000000 0.046737 -0.007492 0.000000 0.053566 -0.007654 0.000000 0.062065 -0.007896 0.000000 0.069383 -0.007981 0.000000 0.078056 -0.008146 0.000000 0.085706 -0.008139 0.000000 0.094371 -0.008214 0.000000 0.102173 -0.008107 0.000000 0.110627 -0.008083 0.000000 0.118382 -0.007868 0.000000 0.126410 -0.007739 0.000000 0.133906 -0.007414 0.000000 0.141285 -0.007177 0.000000 0.148307 -0.006742 0.000000 0.154816 -0.006399 0.000000 0.161151 -0.005860 0.000000 0.166581 -0.005418 0.000000 0.172028 -0.004784 0.000000 0.176187 -0.004251 0.000000 0.180566 -0.003535 0.000000 0.183290 -0.002927 0.000000 0.186447 -0.002146 0.000000 0.187605 -0.001478 0.000000 0.189421 -0.000652 0.000000 0.188923 0.000056 0.000000 0.189317 0.000905 0.000000 0.187115 0.001632 0.000000 0.186049 0.002482 0.000000 0.182143 0.003208 0.000000 0.179618 0.004035 0.000000 0.174054 0.004739 0.000000 0.170115 0.005522 0.000000 0.162980 0.006185 0.000000 0.157712 0.006904 0.000000 0.149134 0.007508 0.000000 0.142654 0.008147 0.000000 0.132796 0.008677 0.000000 0.125251 0.009221 0.000000 0.114303 0.009667 0.000000 0.105863 0.010106 0.000000 0.094038 0.010458 0.000000 0.084889 0.010784 0.000000 0.072413 0.011039 0.000000 0.062753 0.011248 0.000000 0.049860 0.011403 0.000000 0.039890 0.011494 0.000000 0.026817 0.011549 0.000000 0.016736 0.011524 0.000000 0.003715 0.011481 0.000000 -0.006281 0.011344 0.000000 -0.019024 0.011210 0.000000 -0.028750 0.010967 0.000000 -0.041003 0.010745 0.000000 -0.050285 0.010404 0.000000 -0.061851 0.010104 0.000000 -0.070531 0.009673 0.000000 -0.081231 0.009303 0.000000 -0.089168 0.008793 0.000000 -0.098843 0.008361 0.000000 -0.105914 0.007784 0.000000 -0.114431 0.007302 0.000000 -0.120532 0.006671 0.000000 -0.127782 0.006149 0.000000 -0.132835 0.005477 0.000000 -0.138736 0.004927 0.000000 -0.142685 0.004230 0.000000 -0.147187 0.003666 0.000000 -0.150003 0.002960 0.000000 -0.153086 0.002395 0.000000 -0.154768 0.001696 0.000000 -0.156447 0.001146 0.000000 -0.157022 0.000469 0.000000 -0.157345 -0.000051 0.000000 -0.156873 -0.000687 0.000000 -0.155920 -0.001163 0.000000 -0.154489 -0.001744 0.000000 -0.152373 -0.002162 0.000000 -0.150100 -0.002672 0.000000 -0.146961 -0.003019 0.000000 -0.143990 -0.003448 0.000000 -0.139994 -0.003713 0.000000 -0.136487 -0.004052 0.000000 -0.131813 -0.004230 0.000000 -0.127947 -0.004475 0.000000 -0.122789 -0.004562 0.000000 -0.118745 -0.004712 0.000000 -0.113293 -0.004711 0.000000 -0.109250 -0.004770 0.000000 -0.103687 -0.004688 0.000000 -0.099809 -0.004666 0.000000 -0.094298 -0.004514 0.000000 -0.090726 -0.004424 0.000000 -0.085404 -0.004219 0.000000 -0.082248 -0.004077 0.000000 -0.077218 -0.003837 0.000000 -0.074548 -0.003664 0.000000 -0.069874 -0.003410 0.000000 -0.067719 -0.003226 0.000000 -0.063423 -0.002979 0.000000 -0.061767 -0.002804 0.000000 -0.057831 -0.002586 0.000000 -0.056617 -0.002438 0.000000 -0.052985 -0.002267 0.000000 -0.052119 -0.002162 0.000000 -0.048702 -0.002053 0.000000 -0.048061 -0.002003 0.000000 -0.044746 -0.001966 0.000000 -0.044183 -0.001980 0.000000 -0.040843 -0.002021 0.000000 -0.040200 -0.002101 0.000000 -0.036702 -0.002221 0.000000 -0.035819 -0.002365 0.000000 -0.032031 -0.002560 0.000000 -0.030756 -0.002764 0.000000 -0.026560 -0.003026 0.000000 -0.024757 -0.003279 0.000000 -0.020054 -0.003597 0.000000 -0.017610 -0.003886 0.000000 -0.012324 -0.004246 0.000000 -0.009156 -0.004557 0.000000 -0.003245 -0.004942 0.000000 0.000700 -0.005257 0.000000 0.007247 -0.005650 0.000000 0.011982 -0.005953 0.000000 0.019141 -0.006335 0.000000 0.024644 -0.006608 0.000000 
0.031934 -0.013924 0.000000 0.038179 -0.014382 0.000000 0.046416 -0.014998 0.000000 0.053289 -0.015328 0.000000 0.061866 -0.015817 0.000000 0.069238 -0.015991 0.000000 0.077996 -0.016323 0.000000 0.085709 -0.016315 0.000000 0.094465 -0.016467 0.000000 0.102337 -0.016256 0.000000 0.110886 -0.016209 0.000000 0.118715 -0.015783 0.000000 0.126838 -0.015524 0.000000 0.134411 -0.014875 0.000000 0.141883 -0.014401 0.000000 0.148979 -0.013531 0.000000 0.155577 -0.012844 0.000000 0.161983 -0.011765 0.000000 0.167493 -0.010877 0.000000 0.173004 -0.009606 0.000000 0.177232 -0.008538 0.000000 0.181665 -0.007102 0.000000 0.184443 -0.005881 0.000000 0.187643 -0.004315 0.000000 0.188840 -0.002974 0.000000 0.190685 -0.001318 0.000000 0.190207 0.000104 0.000000 0.190616 0.001807 0.000000 0.188418 0.003268 0.000000 0.187351 0.004972 0.000000 0.183430 0.006431 0.000000 0.180890 0.008089 0.000000 0.175293 0.009503 0.000000 0.171327 0.011074 0.000000 0.164143 0.012404 0.000000 0.158835 0.013846 0.000000 0.150194 0.015058 0.000000 0.143665 0.016338 0.000000 0.133732 0.017403 0.000000 0.126131 0.018493 0.000000 0.115100 0.019388 0.000000 0.106599 0.020265 0.000000 0.094683 0.020974 0.000000 0.085471 0.021625 0.000000 0.072899 0.022136 0.000000 0.063176 0.022553 0.000000 0.050185 0.022863 0.000000 0.040153 0.023044 0.000000 0.026982 0.023154 0.000000 0.016843 0.023101 0.000000 0.003725 0.023017 0.000000 -0.006325 0.022739 0.000000 -0.019163 0.022469 0.000000 -0.028937 0.021979 0.000000 -0.041281 0.021536 0.000000 -0.050605 0.020848 0.000000 -0.062257 0.020246 0.000000 -0.070973 0.019380 0.000000 -0.081753 0.018636 0.000000 -0.089718 0.017612 0.000000 -0.099467 0.016746 0.000000 -0.106559 0.015587 0.000000 -0.115140 0.014619 0.000000 -0.121256 0.013351 0.000000 -0.128562 0.012303 0.000000 -0.133621 0.010954 0.000000 -0.139569 0.009850 0.000000 -0.143516 0.008451 0.000000 -0.148054 0.007318 0.000000 -0.150859 0.005899 0.000000 -0.153967 0.004765 0.000000 -0.155628 0.003361 0.000000 -0.157320 0.002255 0.000000 -0.157866 0.000898 0.000000 -0.158189 -0.000149 0.000000 -0.157680 -0.001425 0.000000 -0.156714 -0.002384 0.000000 -0.155239 -0.003547 0.000000 -0.153098 -0.004389 0.000000 -0.150775 -0.005411 0.000000 -0.147601 -0.006110 0.000000 -0.144575 -0.006968 0.000000 -0.140535 -0.007504 0.000000 -0.136970 -0.008180 0.000000 -0.132247 -0.008539 0.000000 -0.128325 -0.009025 0.000000 -0.123113 -0.009202 0.000000 -0.119017 -0.009496 0.000000 -0.113511 -0.009495 0.000000 -0.109423 -0.009606 0.000000 -0.103809 -0.009441 0.000000 -0.099896 -0.009389 0.000000 -0.094340 -0.009083 0.000000 -0.090746 -0.008893 0.000000 -0.085387 -0.008478 0.000000 -0.082222 -0.008186 0.000000 -0.077165 -0.007700 0.000000 -0.074502 -0.007344 0.000000 -0.069812 -0.006829 0.000000 -0.067678 -0.006451 0.000000 -0.063377 -0.005952 0.000000 -0.061757 -0.005592 0.000000 -0.057825 -0.005150 0.000000 -0.056659 -0.004846 0.000000 -0.053040 -0.004498 0.000000 -0.052231 -0.004283 0.000000 -0.048832 -0.004059 0.000000 -0.048253 -0.003956 0.000000 -0.044961 -0.003878 0.000000 -0.044462 -0.003903 0.000000 -0.041146 -0.003983 0.000000 -0.040566 -0.004141 0.000000 -0.037088 -0.004381 0.000000 -0.036264 -0.004671 0.000000 -0.032492 -0.005063 0.000000 -0.031269 -0.005471 0.000000 -0.027081 -0.005999 0.000000 -0.025321 -0.006507 0.000000 -0.020617 -0.007148 0.000000 -0.018204 -0.007729 0.000000 -0.012908 -0.008454 0.000000 -0.009758 -0.009080 0.000000 -0.003824 -0.009855 0.000000 0.000113 -0.010492 0.000000 0.006695 -0.011282 0.000000 0.011436 -0.011894 0.000000 0.018642 -0.012662 0.000000 0.024165 -0.013214 0.000000 
0.031187 -0.020974 0.000000 0.037494 -0.021668 0.000000 0.045790 -0.022601 0.000000 0.052745 -0.023104 0.000000 0.061402 -0.023845 0.000000 0.068875 -0.024111 0.000000 0.077731 -0.024617 0.000000 0.085561 -0.024608 0.000000 0.094428 -0.024842 0.000000 0.102430 -0.024528 0.000000 0.111100 -0.024461 0.000000 0.119066 -0.023821 0.000000 0.127316 -0.023434 0.000000 0.135029 -0.022458 0.000000 0.142628 -0.021746 0.000000 0.149862 -0.020437 0.000000 0.156582 -0.019403 0.000000 0.163117 -0.017776 0.000000 0.168739 -0.016439 0.000000 0.174366 -0.014522 0.000000 0.178690 -0.012912 0.000000 0.183222 -0.010747 0.000000 0.186076 -0.008905 0.000000 0.189353 -0.006542 0.000000 0.190601 -0.004520 0.000000 0.192499 -0.002020 0.000000 0.192047 0.000124 0.000000 0.192481 0.002695 0.000000 0.190280 0.004898 0.000000 0.189210 0.007470 0.000000 0.185260 0.009668 0.000000 0.182690 0.012172 0.000000 0.177037 0.014303 0.000000 0.173015 0.016673 0.000000 0.165752 0.018676 0.000000 0.160366 0.020853 0.000000 0.151625 0.022678 0.000000 0.144998 0.024609 0.000000 0.134949 0.026211 0.000000 0.127234 0.027854 0.000000 0.116075 0.029199 0.000000 0.107448 0.030522 0.000000 0.095396 0.031586 0.000000 0.086050 0.032568 0.000000 0.073340 0.033334 0.000000 0.063478 0.033962 0.000000 0.050349 0.034425 0.000000 0.040178 0.034697 0.000000 0.026871 0.034859 0.000000 0.016596 0.034780 0.000000 0.003350 0.034649 0.000000 -0.006832 0.034232 0.000000 -0.019788 0.033822 0.000000 -0.029687 0.033085 0.000000 -0.042138 0.032414 0.000000 -0.051579 0.031380 0.000000 -0.063324 0.030472 0.000000 -0.072146 0.029169 0.000000 -0.083004 0.028048 0.000000 -0.091063 0.026507 0.000000 -0.100874 0.025202 0.000000 -0.108046 0.023458 0.000000 -0.116672 0.022000 0.000000 -0.122853 0.020092 0.000000 -0.130184 0.018514 0.000000 -0.135292 0.016484 0.000000 -0.141244 0.014822 0.000000 -0.145223 0.012715 0.000000 -0.149744 0.011009 0.000000 -0.152561 0.008873 0.000000 -0.155630 0.007165 0.000000 -0.157284 0.005049 0.000000 -0.158915 0.003384 0.000000 -0.159432 0.001339 0.000000 -0.159674 -0.000238 0.000000 -0.159113 -0.002162 0.000000 -0.158048 -0.003605 0.000000 -0.156500 -0.005360 0.000000 -0.154242 -0.006625 0.000000 -0.151828 -0.008169 0.000000 -0.148524 -0.009219 0.000000 -0.145390 -0.010515 0.000000 -0.141212 -0.011318 0.000000 -0.137529 -0.012340 0.000000 -0.132664 -0.012876 0.000000 -0.128616 -0.013609 0.000000 -0.123266 -0.013870 0.000000 -0.119045 -0.014313 0.000000 -0.113410 -0.014305 0.000000 -0.109203 -0.014472 0.000000 -0.103475 -0.014215 0.000000 -0.099457 -0.014135 0.000000 -0.093808 -0.013665 0.000000 -0.090128 -0.013377 0.000000 -0.084703 -0.012742 0.000000 -0.081476 -0.012299 0.000000 -0.076382 -0.011557 0.000000 -0.073683 -0.011017 0.000000 -0.068987 -0.010234 0.000000 -0.066846 -0.009660 0.000000 -0.062569 -0.008901 0.000000 -0.060970 -0.008356 0.000000 -0.057090 -0.007684 0.000000 -0.055970 -0.007224 0.000000 -0.052425 -0.006695 0.000000 -0.051684 -0.006369 0.000000 -0.048379 -0.006030 0.000000 -0.047883 -0.005874 0.000000 -0.044697 -0.005757 0.000000 -0.044291 -0.005795 0.000000 -0.041085 -0.005917 0.000000 -0.040602 -0.006158 0.000000 -0.037234 -0.006522 0.000000 -0.036503 -0.006961 0.000000 -0.032834 -0.007556 0.000000 -0.031695 -0.008174 0.000000 -0.027599 -0.008974 0.000000 -0.025908 -0.009743 0.000000 -0.021279 -0.010714 0.000000 -0.018918 -0.011595 0.000000 -0.013677 -0.012692 0.000000 -0.010559 -0.013640 0.000000 -0.004658 -0.014813 0.000000 -0.000729 -0.015777 0.000000 0.005843 -0.016973 0.000000 0.010600 -0.017900 0.000000 0.017819 -0.019063 0.000000 0.023381 -0.019900 0.000000 
0.030163 -0.028037 0.000000 0.036550 -0.028985 0.000000 0.044979 -0.030249 0.000000 0.052043 -0.030940 0.000000 0.060856 -0.031947 0.000000 0.068464 -0.032320 0.000000 0.077497 -0.033010 0.000000 0.085483 -0.033013 0.000000 0.094544 -0.033336 0.000000 0.102717 -0.032928 0.000000 0.111592 -0.032846 0.000000 0.119740 -0.031999 0.000000 0.128199 -0.031486 0.000000 0.136098 -0.030187 0.000000 0.143903 -0.029234 0.000000 0.151321 -0.027485 0.000000 0.158237 -0.026099 0.000000 0.164945 -0.023922 0.000000 0.170745 -0.022126 0.000000 0.176529 -0.019558 0.000000 0.181006 -0.017394 0.000000 0.185670 -0.014489 0.000000 0.188646 -0.012012 0.000000 0.192027 -0.008840 0.000000 0.193360 -0.006120 0.000000 0.195328 -0.002763 0.000000 0.194921 0.000122 0.000000 0.195390 0.003574 0.000000 0.193192 0.006539 0.000000 0.192120 0.009993 0.000000 0.188131 0.012951 0.000000 0.185523 0.016312 0.000000 0.179792 0.019178 0.000000 0.175699 0.022359 0.000000 0.168322 0.025053 0.000000 0.162835 0.027973 0.000000 0.153949 0.030426 0.000000 0.147197 0.033014 0.000000 0.136976 0.035167 0.000000 0.129118 0.037367 0.000000 0.117766 0.039174 0.000000 0.108983 0.040944 0.000000 0.096725 0.042371 0.000000 0.087216 0.043681 0.000000 0.074291 0.044708 0.000000 0.064264 0.045544 0.000000 0.050917 0.046164 0.000000 0.040583 0.046521 0.000000 0.027060 0.046736 0.000000 0.016628 0.046623 0.000000 0.003172 0.046444 0.000000 -0.007157 0.045877 0.000000 -0.020316 0.045325 0.000000 -0.030350 0.044329 0.000000 -0.042992 0.043427 0.000000 -0.052554 0.042034 0.000000 -0.064475 0.040813 0.000000 -0.073404 0.039060 0.000000 -0.084422 0.037554 0.000000 -0.092572 0.035482 0.000000 -0.102523 0.033729 0.000000 -0.109768 0.031385 0.000000 -0.118514 0.029426 0.000000 -0.124750 0.026863 0.000000 -0.132178 0.024742 0.000000 -0.137321 0.022015 0.000000 -0.143346 0.019781 0.000000 -0.147337 0.016950 0.000000 -0.151904 0.014656 0.000000 -0.154711 0.011786 0.000000 -0.157799 0.009488 0.000000 -0.159418 0.006646 0.000000 -0.161039 0.004403 0.000000 -0.161497 0.001657 0.000000 -0.161699 -0.000468 0.000000 -0.161055 -0.003051 0.000000 -0.159921 -0.004997 0.000000 -0.158268 -0.007352 0.000000 -0.155916 -0.009061 0.000000 -0.153377 -0.011129 0.000000 -0.149956 -0.012547 0.000000 -0.146683 -0.014280 0.000000 -0.142369 -0.015366 0.000000 -0.138538 -0.016728 0.000000 -0.133526 -0.017452 0.000000 -0.129328 -0.018423 0.000000 -0.123827 -0.018773 0.000000 -0.119462 -0.019352 0.000000 -0.113680 -0.019337 0.000000 -0.109344 -0.019541 0.000000 -0.103480 -0.019188 0.000000 -0.099355 -0.019056 0.000000 -0.093591 -0.018412 0.000000 -0.089832 -0.017999 0.000000 -0.084317 -0.017130 0.000000 -0.081046 -0.016507 0.000000 -0.075893 -0.015492 0.000000 -0.073187 -0.014739 0.000000 -0.068463 -0.013666 0.000000 -0.066353 -0.012869 0.000000 -0.062080 -0.011829 0.000000 -0.060547 -0.011072 0.000000 -0.056700 -0.010150 0.000000 -0.055677 -0.009511 0.000000 -0.052191 -0.008784 0.000000 -0.051571 -0.008329 0.000000 -0.048344 -0.007859 0.000000 -0.047986 -0.007638 0.000000 -0.044887 -0.007470 0.000000 -0.044627 -0.007514 0.000000 -0.041514 -0.007672 0.000000 -0.041175 -0.007993 0.000000 -0.037895 -0.008480 0.000000 -0.037302 -0.009071 0.000000 -0.033709 -0.009871 0.000000 -0.032692 -0.010706 0.000000 -0.028654 -0.011786 0.000000 -0.027064 -0.012827 0.000000 -0.022471 -0.014138 0.000000 -0.020186 -0.015331 0.000000 -0.014955 -0.016814 0.000000 -0.011882 -0.018098 0.000000 -0.005964 -0.019685 0.000000 -0.002049 -0.020993 0.000000 0.004570 -0.022610 0.000000 0.009344 -0.023870 0.000000 0.016640 -0.025443 0.000000 0.022251 -0.026582 0.000000 
0.028781 -0.035273 0.000000 0.035279 -0.036485 0.000000 0.043832 -0.038094 0.000000 0.051045 -0.038981 0.000000 0.060020 -0.040266 0.000000 0.067810 -0.040752 0.000000 0.077035 -0.041636 0.000000 0.085233 -0.041655 0.000000 0.094511 -0.042076 0.000000 0.102918 -0.041576 0.000000 0.112027 -0.041484 0.000000 0.120424 -0.040428 0.000000 0.129126 -0.039791 0.000000 0.137279 -0.038162 0.000000 0.145327 -0.036969 0.000000 0.152995 -0.034770 0.000000 0.160144 -0.033027 0.000000 0.167088 -0.030284 0.000000 0.173101 -0.028023 0.000000 0.179097 -0.024783 0.000000 0.183757 -0.022054 0.000000 0.188602 -0.018387 0.000000 0.191723 -0.015262 0.000000 0.195244 -0.011256 0.000000 0.196677 -0.007821 0.000000 0.198740 -0.003581 0.000000 0.198383 0.000062 0.000000 0.198897 0.004424 0.000000 0.196697 0.008168 0.000000 0.195620 0.012531 0.000000 0.191578 0.016265 0.000000 0.188916 0.020511 0.000000 0.183082 0.024127 0.000000 0.178889 0.028143 0.000000 0.171364 0.031541 0.000000 0.165737 0.035226 0.000000 0.156665 0.038316 0.000000 0.149737 0.041581 0.000000 0.139301 0.044290 0.000000 0.131239 0.047064 0.000000 0.119648 0.049334 0.000000 0.110642 0.051563 0.000000 0.098130 0.053353 0.000000 0.088385 0.055002 0.000000 0.075199 0.056286 0.000000 0.064929 0.057336 0.000000 0.051321 0.058106 0.000000 0.040745 0.058554 0.000000 0.026967 0.058814 0.000000 0.016298 0.058669 0.000000 0.002598 0.058435 0.000000 -0.007958 0.057719 0.000000 -0.021344 0.057015 0.000000 -0.031593 0.055760 0.000000 -0.044442 0.054618 0.000000 -0.054202 0.052864 0.000000 -0.066308 0.051321 0.000000 -0.075415 0.049115 0.000000 -0.086591 0.047215 0.000000 -0.094898 0.044608 0.000000 -0.104980 0.042398 0.000000 -0.112359 0.039450 0.000000 -0.121205 0.036981 0.000000 -0.127548 0.033756 0.000000 -0.135042 0.031084 0.000000 -0.140264 0.027652 0.000000 -0.146320 0.024838 0.000000 -0.150358 0.021273 0.000000 -0.154919 0.018383 0.000000 -0.157740 0.014767 0.000000 -0.160782 0.011872 0.000000 -0.162380 0.008289 0.000000 -0.163916 0.005463 0.000000 -0.164315 0.001998 0.000000 -0.164394 -0.000679 0.000000 -0.163654 -0.003939 0.000000 -0.162361 -0.006391 0.000000 -0.160575 -0.009365 0.000000 -0.158032 -0.011516 0.000000 -0.155327 -0.014129 0.000000 -0.151689 -0.015913 0.000000 -0.148222 -0.018102 0.000000 -0.143673 -0.019464 0.000000 -0.139628 -0.021183 0.000000 -0.134373 -0.022085 0.000000 -0.129951 -0.023308 0.000000 -0.124209 -0.023736 0.000000 -0.119621 -0.024461 0.000000 -0.113612 -0.024423 0.000000 -0.109067 -0.024672 0.000000 -0.103003 -0.024204 0.000000 -0.098694 -0.024024 0.000000 -0.092764 -0.023188 0.000000 -0.088858 -0.022650 0.000000 -0.083223 -0.021528 0.000000 -0.079850 -0.020723 0.000000 -0.074626 -0.019416 0.000000 -0.071869 -0.018447 0.000000 -0.067128 -0.017068 0.000000 -0.065019 -0.016043 0.000000 -0.060782 -0.014707 0.000000 -0.059300 -0.013735 0.000000 -0.055538 -0.012553 0.000000 -0.054613 -0.011733 0.000000 -0.051252 -0.010801 0.000000 -0.050768 -0.010217 0.000000 -0.047696 -0.009616 0.000000 -0.047502 -0.009331 0.000000 -0.044580 -0.009115 0.000000 -0.044500 -0.009169 0.000000 -0.041571 -0.009369 0.000000 -0.041416 -0.009776 0.000000 -0.038318 -0.010396 0.000000 -0.037899 -0.011147 0.000000 -0.034475 -0.012165 0.000000 -0.033616 -0.013229 0.000000 -0.029724 -0.014602 0.000000 -0.028265 -0.015926 0.000000 -0.023787 -0.017593 0.000000 -0.021599 -0.019111 0.000000 -0.016448 -0.020996 0.000000 -0.013434 -0.022630 0.000000 -0.007556 -0.024646 0.000000 -0.003657 -0.026311 0.000000 0.002963 -0.028366 0.000000 0.007764 -0.029970 0.000000 0.015103 -0.031970 0.000000 0.020784 -0.033423 0.000000 
0.027097 -0.042532 0.000000 0.033725 -0.044037 0.000000 0.042479 -0.046016 0.000000 0.049868 -0.047127 0.000000 0.059083 -0.048712 0.000000 0.067090 -0.049335 0.000000 0.076591 -0.050432 0.000000 0.085040 -0.050488 0.000000 0.094621 -0.051021 0.000000 0.103307 -0.050444 0.000000 0.112737 -0.050351 0.000000 0.121430 -0.049098 0.000000 0.130462 -0.048341 0.000000 0.138918 -0.046388 0.000000 0.147293 -0.044950 0.000000 0.155260 -0.042301 0.000000 0.162720 -0.040193 0.000000 0.169947 -0.036879 0.000000 0.176244 -0.034136 0.000000 0.182495 -0.030214 0.000000 0.187399 -0.026899 0.000000 0.192461 -0.022454 0.000000 0.195776 -0.018654 0.000000 0.199465 -0.013795 0.000000 0.201034 -0.009616 0.000000 0.203210 -0.004469 0.000000 0.202924 -0.000035 0.000000 0.203493 0.005260 0.000000 0.201297 0.009816 0.000000 0.200215 0.015112 0.000000 0.196109 0.019655 0.000000 0.193384 0.024808 0.000000 0.187423 0.029205 0.000000 0.183112 0.034077 0.000000 0.175402 0.038206 0.000000 0.169608 0.042672 0.000000 0.160302 0.046425 0.000000 0.153169 0.050378 0.000000 0.142457 0.053666 0.000000 0.134159 0.057020 0.000000 0.122262 0.059771 0.000000 0.112999 0.062462 0.000000 0.100160 0.064628 0.000000 0.090146 0.066613 0.000000 0.076621 0.068164 0.000000 0.066079 0.069422 0.000000 0.052129 0.070348 0.000000 0.041284 0.070875 0.000000 0.027168 0.071183 0.000000 0.016241 0.070992 0.000000 0.002213 0.070700 0.000000 -0.008586 0.069820 0.000000 -0.022284 0.068959 0.000000 -0.032758 0.067427 0.000000 -0.045899 0.066036 0.000000 -0.055862 0.063900 0.000000 -0.068236 0.062026 0.000000 -0.077523 0.059343 0.000000 -0.088941 0.057037 0.000000 -0.097401 0.053871 0.000000 -0.107694 0.051189 0.000000 -0.115199 0.047610 0.000000 -0.124222 0.044615 0.000000 -0.130661 0.040700 0.000000 -0.138296 0.037457 0.000000 -0.143581 0.033292 0.000000 -0.149738 0.029875 0.000000 -0.153805 0.025550 0.000000 -0.158425 0.022037 0.000000 -0.161236 0.017650 0.000000 -0.164292 0.014127 0.000000 -0.165841 0.009779 0.000000 -0.167344 0.006338 0.000000 -0.167654 0.002134 0.000000 -0.167652 -0.001130 0.000000 -0.166783 -0.005084 0.000000 -0.165363 -0.008076 0.000000 -0.163409 -0.011681 0.000000 -0.160697 -0.014309 0.000000 -0.157790 -0.017472 0.000000 -0.153946 -0.019652 0.000000 -0.150251 -0.022296 0.000000 -0.145467 -0.023960 0.000000 -0.141176 -0.026028 0.000000 -0.135669 -0.027128 0.000000 -0.130996 -0.028587 0.000000 -0.124997 -0.029103 0.000000 -0.120166 -0.029949 0.000000 -0.113908 -0.029891 0.000000 -0.109141 -0.030151 0.000000 -0.102850 -0.029561 0.000000 -0.098355 -0.029294 0.000000 -0.092233 -0.028247 0.000000 -0.088188 -0.027540 0.000000 -0.082405 -0.026139 0.000000 -0.078950 -0.025104 0.000000 -0.073631 -0.023473 0.000000 -0.070853 -0.022237 0.000000 -0.066073 -0.020516 0.000000 -0.064006 -0.019215 0.000000 -0.059785 -0.017547 0.000000 -0.058405 -0.016315 0.000000 -0.054710 -0.014837 0.000000 -0.053938 -0.013797 0.000000 -0.050687 -0.012629 0.000000 -0.050396 -0.011884 0.000000 -0.047467 -0.011126 0.000000 -0.047495 -0.010754 0.000000 -0.044735 -0.010473 0.000000 -0.044890 -0.010523 0.000000 -0.042130 -0.010756 0.000000 -0.042211 -0.011246 0.000000 -0.039274 -0.011996 0.000000 -0.039078 -0.012913 0.000000 -0.035797 -0.014154 0.000000 -0.035135 -0.015458 0.000000 -0.031358 -0.017137 0.000000 -0.030061 -0.018763 0.000000 -0.025662 -0.020804 0.000000 -0.023594 -0.022671 0.000000 -0.018479 -0.024979 0.000000 -0.015537 -0.026990 0.000000 -0.009649 -0.029461 0.000000 -0.005773 -0.031511 0.000000 0.000906 -0.034031 0.000000 0.005736 -0.036010 0.000000 0.013184 -0.038464 0.000000 0.018945 -0.040260 0.000000 
0.025000 -0.050053 0.000000 0.031790 -0.051866 0.000000 0.040738 -0.054237 0.000000 0.048346 -0.055585 0.000000 0.057808 -0.057488 0.000000 0.066086 -0.058260 0.000000 0.075879 -0.059586 0.000000 0.084641 -0.059686 0.000000 0.094552 -0.060342 0.000000 0.103584 -0.059692 0.000000 0.113370 -0.059607 0.000000 0.122432 -0.058153 0.000000 0.131833 -0.057279 0.000000 0.140666 -0.054994 0.000000 0.149411 -0.053311 0.000000 0.157749 -0.050197 0.000000 0.165564 -0.047715 0.000000 0.173143 -0.043808 0.000000 0.179763 -0.040571 0.000000 0.186332 -0.035939 0.000000 0.191514 -0.032020 0.000000 0.196845 -0.026764 0.000000 0.200380 -0.022266 0.000000 0.204279 -0.016514 0.000000 0.206000 -0.011567 0.000000 0.208318 -0.005471 0.000000 0.208109 -0.000221 0.000000 0.208746 0.006051 0.000000 0.206548 0.011446 0.000000 0.205458 0.017719 0.000000 0.201272 0.023096 0.000000 0.198465 0.029197 0.000000 0.192349 0.034399 0.000000 0.187888 0.040164 0.000000 0.179958 0.045044 0.000000 0.173954 0.050325 0.000000 0.164369 0.054755 0.000000 0.156975 0.059426 0.000000 0.145940 0.063300 0.000000 0.137341 0.067259 0.000000 0.125087 0.070494 0.000000 0.115494 0.073666 0.000000 0.102277 0.076206 0.000000 0.091916 0.078541 0.000000 0.078002 0.080353 0.000000 0.067107 0.081828 0.000000 0.052767 0.082901 0.000000 0.041571 0.083514 0.000000 0.027076 0.083857 0.000000 0.015806 0.083625 0.000000 0.001415 0.083262 0.000000 -0.009711 0.082217 0.000000 -0.023749 0.081186 0.000000 -0.034528 0.079375 0.000000 -0.047981 0.077722 0.000000 -0.058225 0.075202 0.000000 -0.070879 0.072982 0.000000 -0.080419 0.069819 0.000000 -0.092079 0.067093 0.000000 -0.100762 0.063362 0.000000 -0.111257 0.060196 0.000000 -0.118950 0.055978 0.000000 -0.128132 0.052444 0.000000 -0.134722 0.047830 0.000000 -0.142468 0.044005 0.000000 -0.147864 0.039094 0.000000 -0.154080 0.035062 0.000000 -0.158213 0.029960 0.000000 -0.162837 0.025814 0.000000 -0.165668 0.020635 0.000000 -0.168671 0.016477 0.000000 -0.170187 0.011340 0.000000 -0.171579 0.007276 0.000000 -0.171802 0.002306 0.000000 -0.171632 -0.001551 0.000000 -0.170620 -0.006229 0.000000 -0.168977 -0.009765 0.000000 -0.166827 -0.014031 0.000000 -0.163843 -0.017136 0.000000 -0.160690 -0.020880 0.000000 -0.156533 -0.023452 0.000000 -0.152551 -0.026581 0.000000 -0.147425 -0.028538 0.000000 -0.142817 -0.030980 0.000000 -0.136953 -0.032265 0.000000 -0.131947 -0.033981 0.000000 -0.125592 -0.034567 0.000000 -0.120430 -0.035550 0.000000 -0.113835 -0.035448 0.000000 -0.108758 -0.035730 0.000000 -0.102166 -0.034991 0.000000 -0.097400 -0.034641 0.000000 -0.091030 -0.033354 0.000000 -0.086770 -0.032478 0.000000 -0.080805 -0.030767 0.000000 -0.077202 -0.029497 0.000000 -0.071778 -0.027513 0.000000 -0.068930 -0.026005 0.000000 -0.064123 -0.023915 0.000000 -0.062067 -0.022331 0.000000 -0.057898 -0.020308 0.000000 -0.056605 -0.018811 0.000000 -0.053034 -0.017020 0.000000 -0.052420 -0.015756 0.000000 -0.049353 -0.014342 0.000000 -0.049278 -0.013437 0.000000 -0.046579 -0.012517 0.000000 -0.046861 -0.012063 0.000000 -0.044361 -0.011720 0.000000 -0.044794 -0.011774 0.000000 -0.042304 -0.012049 0.000000 -0.042666 -0.012632 0.000000 -0.039994 -0.013528 0.000000 -0.040067 -0.014624 0.000000 -0.037029 -0.016109 0.000000 -0.036606 -0.017668 0.000000 -0.033037 -0.019676 0.000000 -0.031939 -0.021622 0.000000 -0.027702 -0.024060 0.000000 -0.025781 -0.026295 0.000000 -0.020774 -0.029052 0.000000 -0.017921 -0.031460 0.000000 -0.012082 -0.034411 0.000000 -0.008233 -0.036866 0.000000 -0.001541 -0.039876 0.000000 0.003326 -0.042248 0.000000 0.010849 -0.045179 0.000000 0.016712 -0.047336 0.000000 