# vtk DataFile Version 2.0
Comment goes here
ASCII

DATASET STRUCTURED_POINTS
FIELD FieldData 1
TIME 1 1 double
0.11500000
DIMENSIONS    128   128   1

ORIGIN    0.000   0.000   0.000
SPACING   0.039062 0.039062   1.000

POINT_DATA   16384
VECTORS u double

-0.415524 -0.000000 0.000000 -0.361627 -0.000000 0.000000 -0.308845 -0.000000 0.000000 -0.254527 -0.000000 0.000000 -0.201602 -0.000000 0.000000 -0.147390 -0.000000 0.000000 -0.094822 0.000000 0.000000 -0.041194 0.000000 0.000000 0.010571 0.000000 0.000000 0.063185 0.000000 0.000000 0.113746 0.000000 0.000000 0.164961 0.000000 0.000000 0.213959 0.000000 0.000000 0.263432 0.000000 0.000000 0.310548 0.000000 0.000000 0.357970 0.000000 0.000000 0.402918 0.000000 0.000000 0.448012 0.000000 0.000000 0.490537 0.000000 0.000000 0.533054 0.000000 0.000000 0.572926 0.000000 0.000000 0.612638 0.000000 0.000000 0.649652 0.000000 0.000000 0.686354 0.000000 0.000000 0.720323 0.000000 0.000000 0.753830 0.000000 0.000000 0.784587 0.000000 0.000000 0.814731 0.000000 0.000000 0.842125 0.000000 0.000000 0.868753 0.000000 0.000000 0.892652 0.000000 0.000000 0.915628 0.000000 0.000000 0.935914 0.000000 0.000000 0.955114 0.000000 0.000000 0.971683 0.000000 0.000000 0.987001 0.000000 0.000000 0.999765 0.000000 0.000000 1.011105 0.000000 0.000000 1.019988 0.000000 0.000000 1.027270 0.000000 0.000000 1.032209 0.000000 0.000000 1.035363 0.000000 0.000000 1.036309 0.000000 0.000000 1.035279 0.000000 0.000000 1.032194 0.000000 0.000000 1.026938 0.000000 0.000000 1.019798 0.000000 0.000000 1.010287 0.000000 0.000000 0.999079 0.000000 0.000000 0.985299 0.000000 0.000000 0.970027 0.000000 0.000000 0.951985 0.000000 0.000000 0.932668 0.000000 0.000000 0.910388 0.000000 0.000000 0.887064 0.000000 0.000000 0.860599 0.000000 0.000000 0.833326 0.000000 0.000000 0.802755 0.000000 0.000000 0.771621 0.000000 0.000000 0.737058 0.000000 0.000000 0.702177 0.000000 0.000000 0.663772 0.000000 0.000000 0.625295 0.000000 0.000000 0.583242 0.000000 0.000000 0.541361 0.000000 0.000000 0.495899 0.000000 0.000000 0.450847 0.000000 0.000000 0.402266 0.000000 0.000000 0.354327 0.000000 0.000000 0.302970 0.000000 0.000000 0.252479 0.000000 0.000000 0.198744 0.000000 0.000000 0.146091 0.000000 0.000000 0.090431 0.000000 0.000000 0.036064 0.000000 0.000000 -0.021013 0.000000 0.000000 -0.076590 0.000000 0.000000 -0.134521 0.000000 0.000000 -0.190748 0.000000 0.000000 -0.248919 0.000000 0.000000 -0.305184 0.000000 0.000000 -0.362934 0.000000 0.000000 -0.418577 0.000000 0.000000 -0.475205 0.000000 0.000000 -0.529526 0.000000 0.000000 -0.584300 0.000000 0.000000 -0.636569 0.000000 0.000000 -0.688737 0.000000 0.000000 -0.738205 0.000000 0.000000 -0.787007 0.000000 0.000000 -0.832927 -0.000000 0.000000 -0.877616 -0.000000 0.000000 -0.919255 -0.000000 0.000000 -0.959114 -0.000000 0.000000 -0.995778 -0.000000 0.000000 -1.030140 -0.000000 0.000000 -1.061196 -0.000000 0.000000 -1.089471 -0.000000 0.000000 -1.114369 -0.000000 0.000000 -1.136062 -0.000000 0.000000 -1.154358 -0.000000 0.000000 -1.169092 -0.000000 0.000000 -1.180465 -0.000000 0.000000 -1.187996 -0.000000 0.000000 -1.192263 -0.000000 0.000000 -1.192491 -0.000000 0.000000 -1.189616 -0.000000 0.000000 -1.182592 -0.000000 0.000000 -1.172685 -0.000000 0.000000 -1.158603 -0.000000 0.000000 -1.141918 -0.000000 0.000000 -1.121112 -0.000000 0.000000 -1.098029 -0.000000 0.000000 -1.070954 -0.000000 0.000000 -1.041966 -0.000000 0.000000 -1.009173 -0.000000 0.000000 -0.974861 -0.000000 0.000000 -0.936981 -0.000000 0.000000 -0.897989 -0.000000 0.000000 -0.855703 -0.000000 0.000000 -0.812715 -0.000000 0.000000 -0.766729 -0.000000 0.000000 -0.720446 -0.000000 0.000000 -0.671470 -0.000000 0.000000 -0.622589 -0.000000 0.000000 -0.571320 -0.000000 0.000000 -0.520512 -0.000000 0.000000 -0.467617 -0.000000 0.000000 
-0.415337 -0.052995 0.000000 -0.361417 -0.053339 0.000000 -0.308639 -0.053550 0.000000 -0.254299 -0.053621 0.000000 -0.201389 -0.053568 0.000000 -0.147159 -0.053390 0.000000 -0.094614 -0.053098 0.000000 -0.040970 -0.052696 0.000000 0.010765 -0.052190 0.000000 0.063394 -0.051587 0.000000 0.113918 -0.050888 0.000000 0.165149 -0.050107 0.000000 0.214106 -0.049235 0.000000 0.263594 -0.048294 0.000000 0.310666 -0.047269 0.000000 0.358104 -0.046185 0.000000 0.403008 -0.045021 0.000000 0.448119 -0.043810 0.000000 0.490600 -0.042521 0.000000 0.533135 -0.041194 0.000000 0.572965 -0.039792 0.000000 0.612697 -0.038363 0.000000 0.649671 -0.036858 0.000000 0.686396 -0.035336 0.000000 0.720329 -0.033738 0.000000 0.753860 -0.032132 0.000000 0.784586 -0.030450 0.000000 0.814754 -0.028769 0.000000 0.842125 -0.027011 0.000000 0.868778 -0.025264 0.000000 0.892661 -0.023437 0.000000 0.915662 -0.021631 0.000000 0.935939 -0.019743 0.000000 0.955166 -0.017885 0.000000 0.971734 -0.015944 0.000000 0.987078 -0.014041 0.000000 0.999849 -0.012052 0.000000 1.011217 -0.010112 0.000000 1.020115 -0.008082 0.000000 1.027423 -0.006110 0.000000 1.032385 -0.004047 0.000000 1.035567 -0.002050 0.000000 1.036542 0.000042 0.000000 1.035539 0.002057 0.000000 1.032490 0.004170 0.000000 1.027260 0.006198 0.000000 1.020159 0.008326 0.000000 1.010672 0.010359 0.000000 0.999507 0.012494 0.000000 0.985750 0.014526 0.000000 0.970521 0.016657 0.000000 0.952498 0.018680 0.000000 0.933222 0.020798 0.000000 0.910960 0.022802 0.000000 0.887672 0.024895 0.000000 0.861220 0.026869 0.000000 0.833979 0.028922 0.000000 0.803415 0.030853 0.000000 0.772304 0.032849 0.000000 0.737741 0.034722 0.000000 0.702875 0.036643 0.000000 0.664464 0.038441 0.000000 0.625992 0.040265 0.000000 0.583925 0.041967 0.000000 0.542036 0.043672 0.000000 0.496554 0.045257 0.000000 0.451483 0.046816 0.000000 0.402874 0.048260 0.000000 0.354904 0.049648 0.000000 0.303512 0.050924 0.000000 0.252980 0.052113 0.000000 0.199202 0.053194 0.000000 0.146499 0.054157 0.000000 0.090790 0.055014 0.000000 0.036365 0.055722 0.000000 -0.020766 0.056327 0.000000 -0.076406 0.056754 0.000000 -0.134397 0.057079 0.000000 -0.190691 0.057199 0.000000 -0.248925 0.057218 0.000000 -0.305258 0.057008 0.000000 -0.363073 0.056697 0.000000 -0.418783 0.056136 0.000000 -0.475478 0.055475 0.000000 -0.529862 0.054548 0.000000 -0.584703 0.053521 0.000000 -0.637028 0.052218 0.000000 -0.689262 0.050818 0.000000 -0.738779 0.049135 0.000000 -0.787644 0.047361 0.000000 -0.833602 0.045304 0.000000 -0.878350 0.043164 0.000000 -0.920015 0.040749 0.000000 -0.959927 0.038261 0.000000 -0.996603 0.035513 0.000000 -1.031012 0.032709 0.000000 -1.062067 0.029665 0.000000 -1.090380 0.026587 0.000000 -1.115262 0.023296 0.000000 -1.136984 0.019995 0.000000 -1.155249 0.016515 0.000000 -1.170002 0.013053 0.000000 -1.181330 0.009452 0.000000 -1.188869 0.005899 0.000000 -1.193080 0.002248 0.000000 -1.193306 -0.001323 0.000000 -1.190365 -0.004950 0.000000 -1.183328 -0.008466 0.000000 -1.173348 -0.011994 0.000000 -1.159245 -0.015383 0.000000 -1.142483 -0.018745 0.000000 -1.121649 -0.021944 0.000000 -1.098488 -0.025079 0.000000 -1.071378 -0.028032 0.000000 -1.042314 -0.030890 0.000000 -1.009484 -0.033552 0.000000 -0.975101 -0.036096 0.000000 -0.937182 -0.038436 0.000000 -0.898127 -0.040639 0.000000 -0.855801 -0.042637 0.000000 -0.812760 -0.044487 0.000000 -0.766736 -0.046135 0.000000 -0.720411 -0.047629 0.000000 -0.671400 -0.048929 0.000000 -0.622487 -0.050075 0.000000 -0.571187 -0.051038 0.000000 -0.520361 -0.051851 0.000000 -0.467438 -0.052494 0.000000 
-0.416369 -0.106021 0.000000 -0.362184 -0.106699 0.000000 -0.309127 -0.107118 0.000000 -0.254545 -0.107249 0.000000 -0.201372 -0.107140 0.000000 -0.146921 -0.106776 0.000000 -0.094128 -0.106190 0.000000 -0.040286 -0.105379 0.000000 0.011680 -0.104364 0.000000 0.064486 -0.103153 0.000000 0.115226 -0.101754 0.000000 0.166613 -0.100188 0.000000 0.215771 -0.098445 0.000000 0.265398 -0.096561 0.000000 0.312657 -0.094510 0.000000 0.360217 -0.092342 0.000000 0.405293 -0.090015 0.000000 0.450512 -0.087592 0.000000 0.493152 -0.085016 0.000000 0.535781 -0.082365 0.000000 0.575757 -0.079562 0.000000 0.615571 -0.076706 0.000000 0.652678 -0.073699 0.000000 0.689474 -0.070658 0.000000 0.723526 -0.067464 0.000000 0.757118 -0.064257 0.000000 0.787949 -0.060895 0.000000 0.818169 -0.057539 0.000000 0.845630 -0.054024 0.000000 0.872327 -0.050536 0.000000 0.896285 -0.046884 0.000000 0.919321 -0.043278 0.000000 0.939659 -0.039504 0.000000 0.958913 -0.035795 0.000000 0.975527 -0.031913 0.000000 0.990892 -0.028115 0.000000 1.003693 -0.024138 0.000000 1.015075 -0.020265 0.000000 1.023988 -0.016207 0.000000 1.031305 -0.012271 0.000000 1.036268 -0.008143 0.000000 1.039451 -0.004157 0.000000 1.040415 0.000027 0.000000 1.039407 0.004052 0.000000 1.036334 0.008280 0.000000 1.031092 0.012331 0.000000 1.023957 0.016587 0.000000 1.014453 0.020652 0.000000 1.003243 0.024922 0.000000 0.989461 0.028986 0.000000 0.974179 0.033252 0.000000 0.956124 0.037299 0.000000 0.936787 0.041539 0.000000 0.914483 0.045550 0.000000 0.891128 0.049740 0.000000 0.864623 0.053694 0.000000 0.837307 0.057805 0.000000 0.806680 0.061675 0.000000 0.775488 0.065673 0.000000 0.740849 0.069429 0.000000 0.705892 0.073277 0.000000 0.667391 0.076883 0.000000 0.628819 0.080539 0.000000 0.586646 0.083955 0.000000 0.544647 0.087371 0.000000 0.499040 0.090554 0.000000 0.453846 0.093680 0.000000 0.405095 0.096578 0.000000 0.356987 0.099362 0.000000 0.305432 0.101924 0.000000 0.254746 0.104310 0.000000 0.200784 0.106480 0.000000 0.147908 0.108412 0.000000 0.091993 0.110134 0.000000 0.037374 0.111556 0.000000 -0.019984 0.112772 0.000000 -0.075841 0.113631 0.000000 -0.134079 0.114284 0.000000 -0.190612 0.114528 0.000000 -0.249114 0.114567 0.000000 -0.305708 0.114149 0.000000 -0.363809 0.113525 0.000000 -0.419802 0.112405 0.000000 -0.476797 0.111079 0.000000 -0.531483 0.109225 0.000000 -0.586633 0.107166 0.000000 -0.639275 0.104559 0.000000 -0.691822 0.101750 0.000000 -0.741665 0.098382 0.000000 -0.790842 0.094823 0.000000 -0.837127 0.090706 0.000000 -0.882175 0.086413 0.000000 -0.924161 0.081577 0.000000 -0.964352 0.076589 0.000000 -1.001333 0.071085 0.000000 -1.035990 0.065463 0.000000 -1.067321 0.059368 0.000000 -1.095843 0.053195 0.000000 -1.120964 0.046604 0.000000 -1.142845 0.039987 0.000000 -1.161302 0.033018 0.000000 -1.176158 0.026081 0.000000 -1.187622 0.018868 0.000000 -1.195202 0.011750 0.000000 -1.199487 0.004437 0.000000 -1.199691 -0.002715 0.000000 -1.196760 -0.009978 0.000000 -1.189637 -0.017017 0.000000 -1.179604 -0.024082 0.000000 -1.165356 -0.030865 0.000000 -1.148480 -0.037597 0.000000 -1.127448 -0.043995 0.000000 -1.104119 -0.050271 0.000000 -1.076766 -0.056174 0.000000 -1.047488 -0.061894 0.000000 -1.014380 -0.067213 0.000000 -0.979745 -0.072302 0.000000 -0.941525 -0.076974 0.000000 -0.902191 -0.081381 0.000000 -0.859551 -0.085367 0.000000 -0.816214 -0.089065 0.000000 -0.769872 -0.092349 0.000000 -0.723241 -0.095336 0.000000 -0.673917 -0.097923 0.000000 -0.624698 -0.100213 0.000000 -0.573096 -0.102126 0.000000 -0.521969 -0.103749 0.000000 -0.468761 -0.105023 0.000000 
-0.417014 -0.159572 0.000000 -0.362515 -0.160582 0.000000 -0.309190 -0.161189 0.000000 -0.254323 -0.161377 0.000000 -0.200917 -0.161192 0.000000 -0.146209 -0.160634 0.000000 -0.093217 -0.159733 0.000000 -0.039145 -0.158504 0.000000 0.012989 -0.156961 0.000000 0.066002 -0.155133 0.000000 0.116883 -0.153015 0.000000 0.168457 -0.150652 0.000000 0.217732 -0.148020 0.000000 0.267528 -0.145180 0.000000 0.314884 -0.142088 0.000000 0.362599 -0.138822 0.000000 0.407756 -0.135316 0.000000 0.453117 -0.131669 0.000000 0.495826 -0.127790 0.000000 0.538587 -0.123799 0.000000 0.578622 -0.119582 0.000000 0.618560 -0.115284 0.000000 0.655718 -0.110760 0.000000 0.692629 -0.106184 0.000000 0.726729 -0.101382 0.000000 0.760428 -0.096555 0.000000 0.791303 -0.091502 0.000000 0.821624 -0.086451 0.000000 0.849127 -0.081169 0.000000 0.875917 -0.075918 0.000000 0.899917 -0.070432 0.000000 0.923041 -0.065004 0.000000 0.943420 -0.059335 0.000000 0.962755 -0.053753 0.000000 0.979412 -0.047922 0.000000 0.994852 -0.042207 0.000000 1.007698 -0.036235 0.000000 1.019147 -0.030407 0.000000 1.028108 -0.024312 0.000000 1.035485 -0.018390 0.000000 1.040498 -0.012193 0.000000 1.043735 -0.006196 0.000000 1.044749 0.000086 0.000000 1.043789 0.006138 0.000000 1.040766 0.012485 0.000000 1.035565 0.018575 0.000000 1.028477 0.024966 0.000000 1.019004 0.031074 0.000000 1.007837 0.037485 0.000000 0.994076 0.043590 0.000000 0.978829 0.049995 0.000000 0.960782 0.056072 0.000000 0.941469 0.062439 0.000000 0.919156 0.068462 0.000000 0.895811 0.074755 0.000000 0.869279 0.080689 0.000000 0.841954 0.086864 0.000000 0.811278 0.092673 0.000000 0.780053 0.098680 0.000000 0.745340 0.104317 0.000000 0.710324 0.110101 0.000000 0.671720 0.115514 0.000000 0.633058 0.121010 0.000000 0.590752 0.126140 0.000000 0.548628 0.131277 0.000000 0.502856 0.136057 0.000000 0.457501 0.140762 0.000000 0.408550 0.145119 0.000000 0.360243 0.149311 0.000000 0.308454 0.153166 0.000000 0.257530 0.156761 0.000000 0.203298 0.160032 0.000000 0.150147 0.162948 0.000000 0.093928 0.165547 0.000000 0.038997 0.167699 0.000000 -0.018699 0.169542 0.000000 -0.074901 0.170849 0.000000 -0.133506 0.171850 0.000000 -0.190415 0.172233 0.000000 -0.249311 0.172314 0.000000 -0.306306 0.171703 0.000000 -0.364824 0.170790 0.000000 -0.421236 0.169123 0.000000 -0.478665 0.167155 0.000000 -0.533781 0.164384 0.000000 -0.589376 0.161314 0.000000 -0.642451 0.157407 0.000000 -0.695444 0.153208 0.000000 -0.745712 0.148155 0.000000 -0.795327 0.142823 0.000000 -0.842018 0.136638 0.000000 -0.887485 0.130197 0.000000 -0.929845 0.122926 0.000000 -0.970424 0.115433 0.000000 -1.007735 0.107151 0.000000 -1.042736 0.098698 0.000000 -1.074340 0.089518 0.000000 -1.103148 0.080229 0.000000 -1.128475 0.070298 0.000000 -1.150575 0.060333 0.000000 -1.169160 0.049827 0.000000 -1.184156 0.039373 0.000000 -1.195667 0.028497 0.000000 -1.203304 0.017765 0.000000 -1.207550 0.006736 0.000000 -1.207725 -0.004051 0.000000 -1.204670 -0.015004 0.000000 -1.197435 -0.025621 0.000000 -1.187200 -0.036275 0.000000 -1.172763 -0.046508 0.000000 -1.155616 -0.056654 0.000000 -1.134326 -0.066305 0.000000 -1.110670 -0.075761 0.000000 -1.083004 -0.084663 0.000000 -1.053356 -0.093276 0.000000 -1.019895 -0.101295 0.000000 -0.984864 -0.108951 0.000000 -0.946263 -0.115990 0.000000 -0.906521 -0.122613 0.000000 -0.863487 -0.128614 0.000000 -0.819744 -0.134167 0.000000 -0.773008 -0.139107 0.000000 -0.725986 -0.143583 0.000000 -0.676279 -0.147472 0.000000 -0.626691 -0.150897 0.000000 -0.574725 -0.153767 0.000000 -0.523259 -0.156187 0.000000 -0.469710 -0.158094 0.000000 
-0.418858 -0.213215 0.000000 -0.363803 -0.214523 0.000000 -0.309924 -0.215310 0.000000 -0.254549 -0.215522 0.000000 -0.200630 -0.215254 0.000000 -0.145463 -0.214475 0.000000 -0.092000 -0.213254 0.000000 -0.037515 -0.211585 0.000000 0.015050 -0.209511 0.000000 0.068431 -0.207047 0.000000 0.119705 -0.204209 0.000000 0.171607 -0.201036 0.000000 0.221241 -0.197516 0.000000 0.271329 -0.193713 0.000000 0.319013 -0.189581 0.000000 0.366987 -0.185214 0.000000 0.412445 -0.180534 0.000000 0.458037 -0.175662 0.000000 0.501020 -0.170485 0.000000 0.543986 -0.165161 0.000000 0.584271 -0.159535 0.000000 0.624392 -0.153802 0.000000 0.661776 -0.147768 0.000000 0.698850 -0.141668 0.000000 0.733152 -0.135263 0.000000 0.766996 -0.128832 0.000000 0.798052 -0.122090 0.000000 0.828500 -0.115363 0.000000 0.856161 -0.108318 0.000000 0.883062 -0.101326 0.000000 0.907197 -0.094007 0.000000 0.930416 -0.086781 0.000000 0.950908 -0.079218 0.000000 0.970324 -0.071787 0.000000 0.987071 -0.064009 0.000000 1.002578 -0.056401 0.000000 1.015492 -0.048434 0.000000 1.026995 -0.040675 0.000000 1.036002 -0.032545 0.000000 1.043422 -0.024661 0.000000 1.048460 -0.016393 0.000000 1.051726 -0.008408 0.000000 1.052746 -0.000027 0.000000 1.051803 0.008036 0.000000 1.048767 0.016504 0.000000 1.043569 0.024620 0.000000 1.036452 0.033148 0.000000 1.026967 0.041292 0.000000 1.015754 0.049850 0.000000 1.001966 0.057994 0.000000 0.986656 0.066546 0.000000 0.968563 0.074659 0.000000 0.949170 0.083164 0.000000 0.926791 0.091208 0.000000 0.903348 0.099617 0.000000 0.876725 0.107550 0.000000 0.849283 0.115806 0.000000 0.818488 0.123576 0.000000 0.787124 0.131611 0.000000 0.752261 0.139158 0.000000 0.717080 0.146897 0.000000 0.678291 0.154149 0.000000 0.639435 0.161507 0.000000 0.596905 0.168385 0.000000 0.554555 0.175267 0.000000 0.508516 0.181681 0.000000 0.462898 0.187986 0.000000 0.413634 0.193836 0.000000 0.365024 0.199458 0.000000 0.312874 0.204638 0.000000 0.261602 0.209465 0.000000 0.206961 0.213863 0.000000 0.153414 0.217783 0.000000 0.096735 0.221284 0.000000 0.041359 0.224182 0.000000 -0.016845 0.226670 0.000000 -0.073543 0.228438 0.000000 -0.132704 0.229798 0.000000 -0.190159 0.230332 0.000000 -0.249654 0.230458 0.000000 -0.307243 0.229662 0.000000 -0.366399 0.228455 0.000000 -0.423447 0.226246 0.000000 -0.481546 0.223624 0.000000 -0.537334 0.219936 0.000000 -0.593620 0.215836 0.000000 -0.647391 0.210627 0.000000 -0.701085 0.205012 0.000000 -0.752061 0.198265 0.000000 -0.802369 0.191129 0.000000 -0.849762 0.182864 0.000000 -0.895897 0.174240 0.000000 -0.938935 0.164516 0.000000 -0.980135 0.154478 0.000000 -1.018077 0.143397 0.000000 -1.053632 0.132069 0.000000 -1.085798 0.119780 0.000000 -1.115071 0.107330 0.000000 -1.140868 0.094030 0.000000 -1.163324 0.080672 0.000000 -1.182268 0.066600 0.000000 -1.197495 0.052588 0.000000 -1.209237 0.038015 0.000000 -1.216969 0.023633 0.000000 -1.221309 0.008857 0.000000 -1.221437 -0.005595 0.000000 -1.218336 -0.020268 0.000000 -1.210914 -0.034487 0.000000 -1.200496 -0.048755 0.000000 -1.185740 -0.062450 0.000000 -1.168282 -0.076034 0.000000 -1.146559 -0.088941 0.000000 -1.122480 -0.101593 0.000000 -1.094285 -0.113487 0.000000 -1.064123 -0.125003 0.000000 -1.030058 -0.135706 0.000000 -0.994444 -0.145934 0.000000 -0.955191 -0.155317 0.000000 -0.914819 -0.164156 0.000000 -0.871107 -0.172144 0.000000 -0.826709 -0.179544 0.000000 -0.779290 -0.186107 0.000000 -0.731608 -0.192065 0.000000 -0.681232 -0.197218 0.000000 -0.630996 -0.201768 0.000000 -0.578388 -0.205559 0.000000 -0.526297 -0.208764 0.000000 -0.472146 -0.211268 0.000000 
-0.420270 -0.267915 0.000000 -0.364612 -0.269516 0.000000 -0.310191 -0.270444 0.000000 -0.254269 -0.270671 0.000000 -0.199871 -0.270278 0.000000 -0.144211 -0.269264 0.000000 -0.090329 -0.267681 0.000000 -0.035403 -0.265555 0.000000 0.017526 -0.262908 0.000000 0.071302 -0.259788 0.000000 0.122891 -0.256191 0.000000 0.175147 -0.252188 0.000000 0.225053 -0.247742 0.000000 0.275461 -0.242952 0.000000 0.323380 -0.237747 0.000000 0.371644 -0.232254 0.000000 0.417307 -0.226366 0.000000 0.463163 -0.220243 0.000000 0.506326 -0.213739 0.000000 0.549536 -0.207050 0.000000 0.589979 -0.199988 0.000000 0.630324 -0.192789 0.000000 0.667851 -0.185219 0.000000 0.705132 -0.177560 0.000000 0.739562 -0.169528 0.000000 0.773598 -0.161455 0.000000 0.804770 -0.153005 0.000000 0.835394 -0.144560 0.000000 0.863163 -0.135731 0.000000 0.890226 -0.126954 0.000000 0.914460 -0.117786 0.000000 0.937827 -0.108715 0.000000 0.958412 -0.099243 0.000000 0.977962 -0.089916 0.000000 0.994796 -0.080176 0.000000 1.010424 -0.070628 0.000000 1.023421 -0.060652 0.000000 1.035033 -0.050917 0.000000 1.044119 -0.040738 0.000000 1.051634 -0.030848 0.000000 1.056748 -0.020497 0.000000 1.060098 -0.010483 0.000000 1.061188 0.000009 0.000000 1.060316 0.010117 0.000000 1.057345 0.020719 0.000000 1.052204 0.030890 0.000000 1.045143 0.041568 0.000000 1.035699 0.051771 0.000000 1.024532 0.062487 0.000000 1.010765 0.072688 0.000000 0.995486 0.083398 0.000000 0.977391 0.093557 0.000000 0.958010 0.104211 0.000000 0.935601 0.114284 0.000000 0.912143 0.124820 0.000000 0.885458 0.134754 0.000000 0.857969 0.145101 0.000000 0.827073 0.154832 0.000000 0.795623 0.164908 0.000000 0.760614 0.174361 0.000000 0.725303 0.184071 0.000000 0.686318 0.193159 0.000000 0.647281 0.202396 0.000000 0.604500 0.211020 0.000000 0.561911 0.219666 0.000000 0.515563 0.227714 0.000000 0.469644 0.235644 0.000000 0.420009 0.242993 0.000000 0.371032 0.250071 0.000000 0.318448 0.256588 0.000000 0.266742 0.262675 0.000000 0.211603 0.268220 0.000000 0.157553 0.273173 0.000000 0.100314 0.277601 0.000000 0.044370 0.281279 0.000000 -0.014456 0.284444 0.000000 -0.071786 0.286708 0.000000 -0.131626 0.288466 0.000000 -0.189769 0.289183 0.000000 -0.249995 0.289398 0.000000 -0.308323 0.288448 0.000000 -0.368253 0.286994 0.000000 -0.426080 0.284270 0.000000 -0.484988 0.281042 0.000000 -0.541582 0.276458 0.000000 -0.598699 0.271372 0.000000 -0.653289 0.264872 0.000000 -0.707820 0.257877 0.000000 -0.759608 0.249438 0.000000 -0.810741 0.240524 0.000000 -0.858920 0.230166 0.000000 -0.905847 0.219370 0.000000 -0.949619 0.207164 0.000000 -0.991555 0.194575 0.000000 -1.030156 0.180648 0.000000 -1.066364 0.166419 0.000000 -1.099090 0.150958 0.000000 -1.128909 0.135299 0.000000 -1.155143 0.118550 0.000000 -1.178015 0.101733 0.000000 -1.197254 0.083998 0.000000 -1.212750 0.066343 0.000000 -1.224631 0.047970 0.000000 -1.232471 0.029837 0.000000 -1.236787 0.011204 0.000000 -1.236857 -0.007024 0.000000 -1.233570 -0.025526 0.000000 -1.225930 -0.043462 0.000000 -1.215171 -0.061449 0.000000 -1.200048 -0.078721 0.000000 -1.182113 -0.095836 0.000000 -1.159891 -0.112108 0.000000 -1.135221 -0.128035 0.000000 -1.106420 -0.143020 0.000000 -1.075581 -0.157502 0.000000 -1.040830 -0.170974 0.000000 -1.004480 -0.183819 0.000000 -0.964489 -0.195615 0.000000 -0.923352 -0.206697 0.000000 -0.878879 -0.216724 0.000000 -0.833712 -0.225983 0.000000 -0.785532 -0.234208 0.000000 -0.737100 -0.241642 0.000000 -0.685984 -0.248084 0.000000 -0.635034 -0.253741 0.000000 -0.581723 -0.258466 0.000000 -0.528970 -0.262429 0.000000 -0.474162 -0.265533 0.000000 
-0.422844 -0.322766 0.000000 -0.366334 -0.324602 0.000000 -0.311081 -0.325653 0.000000 -0.254385 -0.325843 0.000000 -0.199225 -0.325311 0.000000 -0.142869 -0.324017 0.000000 -0.088293 -0.322063 0.000000 -0.032744 -0.319441 0.000000 0.020814 -0.316216 0.000000 0.075145 -0.312412 0.000000 0.127303 -0.308054 0.000000 0.180053 -0.303198 0.000000 0.230475 -0.297830 0.000000 0.281322 -0.292039 0.000000 0.329709 -0.285765 0.000000 0.378366 -0.279141 0.000000 0.424453 -0.272053 0.000000 0.470661 -0.264681 0.000000 0.514210 -0.256858 0.000000 0.557735 -0.248814 0.000000 0.598529 -0.240323 0.000000 0.639157 -0.231674 0.000000 0.677002 -0.222576 0.000000 0.714537 -0.213379 0.000000 0.749254 -0.203729 0.000000 0.783516 -0.194040 0.000000 0.814944 -0.183887 0.000000 0.845770 -0.173756 0.000000 0.873764 -0.163149 0.000000 0.901004 -0.152623 0.000000 0.925433 -0.141608 0.000000 0.948955 -0.130732 0.000000 0.969704 -0.119354 0.000000 0.989388 -0.108172 0.000000 1.006357 -0.096471 0.000000 1.022098 -0.085026 0.000000 1.035200 -0.073043 0.000000 1.046906 -0.061373 0.000000 1.056068 -0.049147 0.000000 1.063659 -0.037290 0.000000 1.068821 -0.024856 0.000000 1.072228 -0.012849 0.000000 1.073341 -0.000245 0.000000 1.072507 0.011879 0.000000 1.069534 0.024616 0.000000 1.064412 0.036822 0.000000 1.057325 0.049653 0.000000 1.047878 0.061903 0.000000 1.036661 0.074785 0.000000 1.022867 0.087040 0.000000 1.007515 0.099920 0.000000 0.989365 0.112135 0.000000 0.969885 0.124954 0.000000 0.947389 0.137075 0.000000 0.923804 0.149760 0.000000 0.896994 0.161725 0.000000 0.869347 0.174191 0.000000 0.838281 0.185922 0.000000 0.806638 0.198070 0.000000 0.771409 0.209478 0.000000 0.735863 0.221193 0.000000 0.696601 0.232172 0.000000 0.657280 0.243325 0.000000 0.614160 0.253755 0.000000 0.571234 0.264204 0.000000 0.524478 0.273948 0.000000 0.478160 0.283540 0.000000 0.428045 0.292448 0.000000 0.378603 0.301019 0.000000 0.325461 0.308929 0.000000 0.273217 0.316311 0.000000 0.217442 0.323052 0.000000 0.162778 0.329072 0.000000 0.104824 0.334467 0.000000 0.048185 0.338953 0.000000 -0.011434 0.342825 0.000000 -0.069539 0.345608 0.000000 -0.130246 0.347782 0.000000 -0.189244 0.348701 0.000000 -0.250408 0.349011 0.000000 -0.309664 0.347920 0.000000 -0.370595 0.346213 0.000000 -0.429418 0.342980 0.000000 -0.489376 0.339126 0.000000 -0.547021 0.333648 0.000000 -0.605224 0.327544 0.000000 -0.660904 0.319747 0.000000 -0.716536 0.311331 0.000000 -0.769431 0.301186 0.000000 -0.821658 0.290441 0.000000 -0.870934 0.277970 0.000000 -0.918916 0.264939 0.000000 -0.963745 0.250223 0.000000 -1.006667 0.235015 0.000000 -1.046249 0.218206 0.000000 -1.083338 0.201003 0.000000 -1.116933 0.182326 0.000000 -1.147493 0.163383 0.000000 -1.174449 0.143136 0.000000 -1.197889 0.122784 0.000000 -1.217671 0.101335 0.000000 -1.233535 0.079964 0.000000 -1.245755 0.057736 0.000000 -1.253746 0.035789 0.000000 -1.258181 0.013244 0.000000 -1.258177 -0.008812 0.000000 -1.254784 -0.031195 0.000000 -1.246846 -0.052885 0.000000 -1.235765 -0.074637 0.000000 -1.220135 -0.095508 0.000000 -1.201677 -0.116191 0.000000 -1.178765 -0.135833 0.000000 -1.153400 -0.155063 0.000000 -1.123758 -0.173128 0.000000 -1.092083 -0.190593 0.000000 -1.056380 -0.206806 0.000000 -1.019091 -0.222275 0.000000 -0.978074 -0.236445 0.000000 -0.935933 -0.249767 0.000000 -0.890397 -0.261784 0.000000 -0.844196 -0.272891 0.000000 -0.794952 -0.282719 0.000000 -0.745488 -0.291614 0.000000 -0.693334 -0.299284 0.000000 -0.641380 -0.306028 0.000000 -0.587079 -0.311624 0.000000 -0.533367 -0.316325 0.000000 -0.477635 -0.319968 0.000000 
-0.424907 -0.379216 0.000000 -0.367502 -0.381278 0.000000 -0.311435 -0.382393 0.000000 -0.253929 -0.382528 0.000000 -0.198047 -0.381794 0.000000 -0.140965 -0.380196 0.000000 -0.085755 -0.377806 0.000000 -0.029558 -0.374662 0.000000 0.024553 -0.370796 0.000000 0.079462 -0.366277 0.000000 0.132102 -0.361099 0.000000 0.185369 -0.355359 0.000000 0.236210 -0.349011 0.000000 0.287522 -0.342186 0.000000 0.336276 -0.334791 0.000000 0.385354 -0.326998 0.000000 0.431763 -0.318661 0.000000 0.478355 -0.310000 0.000000 0.522190 -0.300813 0.000000 0.566067 -0.291370 0.000000 0.607116 -0.281410 0.000000 0.648068 -0.271262 0.000000 0.686142 -0.260598 0.000000 0.723975 -0.249812 0.000000 0.758899 -0.238508 0.000000 0.793436 -0.227145 0.000000 0.825051 -0.215259 0.000000 0.856129 -0.203379 0.000000 0.884292 -0.190965 0.000000 0.911763 -0.178624 0.000000 0.936347 -0.165737 0.000000 0.960078 -0.152986 0.000000 0.980968 -0.139676 0.000000 1.000841 -0.126569 0.000000 1.017939 -0.112886 0.000000 1.033849 -0.099471 0.000000 1.047070 -0.085460 0.000000 1.058925 -0.071785 0.000000 1.068198 -0.057491 0.000000 1.075920 -0.043601 0.000000 1.081184 -0.029067 0.000000 1.084704 -0.015003 0.000000 1.085910 -0.000270 0.000000 1.085170 0.013924 0.000000 1.082280 0.028814 0.000000 1.077232 0.043099 0.000000 1.070215 0.058101 0.000000 1.060821 0.072435 0.000000 1.049658 0.087498 0.000000 1.035889 0.101834 0.000000 1.020569 0.116900 0.000000 1.002412 0.131187 0.000000 0.982935 0.146187 0.000000 0.960393 0.160365 0.000000 0.936776 0.175216 0.000000 0.909872 0.189211 0.000000 0.882149 0.203814 0.000000 0.850935 0.217541 0.000000 0.819160 0.231780 0.000000 0.783719 0.245136 0.000000 0.747978 0.258878 0.000000 0.708432 0.271741 0.000000 0.668844 0.284837 0.000000 0.625360 0.297066 0.000000 0.582084 0.309349 0.000000 0.534879 0.320788 0.000000 0.488123 0.332077 0.000000 0.437468 0.342551 0.000000 0.387493 0.352654 0.000000 0.333719 0.361974 0.000000 0.280843 0.370694 0.000000 0.224343 0.378659 0.000000 0.168947 0.385792 0.000000 0.110174 0.392194 0.000000 0.052706 0.397537 0.000000 -0.007823 0.402168 0.000000 -0.066850 0.405521 0.000000 -0.128554 0.408172 0.000000 -0.188562 0.409345 0.000000 -0.250799 0.409819 0.000000 -0.311143 0.408635 0.000000 -0.373215 0.406748 0.000000 -0.433189 0.403051 0.000000 -0.494343 0.398645 0.000000 -0.553186 0.392307 0.000000 -0.612621 0.385255 0.000000 -0.669524 0.376184 0.000000 -0.726402 0.366405 0.000000 -0.780518 0.354560 0.000000 -0.833978 0.342027 0.000000 -0.884443 0.327425 0.000000 -0.933613 0.312181 0.000000 -0.979563 0.294914 0.000000 -1.023591 0.277079 0.000000 -1.064188 0.257319 0.000000 -1.102263 0.237103 0.000000 -1.136728 0.215113 0.000000 -1.168115 0.192815 0.000000 -1.195759 0.168947 0.000000 -1.219833 0.144955 0.000000 -1.240090 0.119645 0.000000 -1.256363 0.094427 0.000000 -1.268821 0.068181 0.000000 -1.276976 0.042263 0.000000 -1.281401 0.015635 0.000000 -1.281308 -0.010421 0.000000 -1.277656 -0.036857 0.000000 -1.269383 -0.062481 0.000000 -1.257806 -0.088160 0.000000 -1.241612 -0.112809 0.000000 -1.222449 -0.137205 0.000000 -1.198772 -0.160385 0.000000 -1.172526 -0.183042 0.000000 -1.141958 -0.204337 0.000000 -1.109268 -0.224881 0.000000 -1.072519 -0.243966 0.000000 -1.034126 -0.262124 0.000000 -0.991988 -0.278773 0.000000 -0.948697 -0.294374 0.000000 -0.902008 -0.308460 0.000000 -0.854652 -0.321428 0.000000 -0.804260 -0.332916 0.000000 -0.753669 -0.343260 0.000000 -0.700402 -0.352193 0.000000 -0.647378 -0.359995 0.000000 -0.592024 -0.366478 0.000000 -0.537317 -0.371873 0.000000 -0.480606 -0.376057 0.000000 