# vtk DataFile Version 2.0
Comment goes here
ASCII

DATASET STRUCTURED_POINTS
FIELD FieldData 1
TIME 1 1 double
0.24500000
DIMENSIONS    128   128   1

ORIGIN    0.000   0.000   0.000
SPACING   0.039062 0.039062   1.000

POINT_DATA   16384
VECTORS u double

-0.045619 -0.000000 0.000000 -0.035205 -0.000000 0.000000 -0.025788 -0.000000 0.000000 -0.014935 -0.000000 0.000000 -0.005276 -0.000000 0.000000 0.005863 -0.000000 0.000000 0.015607 -0.000000 0.000000 0.026866 -0.000000 0.000000 0.036532 -0.000000 0.000000 0.047737 -0.000000 0.000000 0.057153 -0.000000 0.000000 0.068126 -0.000000 0.000000 0.077121 -0.000000 0.000000 0.087686 -0.000000 0.000000 0.096091 -0.000000 0.000000 0.106077 -0.000000 0.000000 0.113735 -0.000000 0.000000 0.122983 -0.000000 0.000000 0.129749 -0.000000 0.000000 0.138118 -0.000000 0.000000 0.143871 -0.000000 0.000000 0.151239 -0.000000 0.000000 0.155881 -0.000000 0.000000 0.162154 -0.000000 0.000000 0.165617 -0.000000 0.000000 0.170729 -0.000000 0.000000 0.172974 -0.000000 0.000000 0.176888 -0.000000 0.000000 0.177912 -0.000000 0.000000 0.180621 -0.000000 0.000000 0.180449 -0.000000 0.000000 0.181973 -0.000000 0.000000 0.180660 -0.000000 0.000000 0.181045 -0.000000 0.000000 0.178672 -0.000000 0.000000 0.177984 -0.000000 0.000000 0.174652 -0.000000 0.000000 0.172973 -0.000000 0.000000 0.168798 -0.000000 0.000000 0.166221 -0.000000 0.000000 0.161329 -0.000000 0.000000 0.157952 -0.000000 0.000000 0.152473 -0.000000 0.000000 0.148396 -0.000000 0.000000 0.142459 -0.000000 0.000000 0.137778 -0.000000 0.000000 0.131506 -0.000000 0.000000 0.126310 -0.000000 0.000000 0.119816 -0.000000 0.000000 0.114185 -0.000000 0.000000 0.107573 -0.000000 0.000000 0.101577 -0.000000 0.000000 0.094932 -0.000000 0.000000 0.088632 -0.000000 0.000000 0.082029 -0.000000 0.000000 0.075473 -0.000000 0.000000 0.068969 -0.000000 0.000000 0.062198 -0.000000 0.000000 0.055838 -0.000000 0.000000 0.048887 -0.000000 0.000000 0.042703 -0.000000 0.000000 0.035600 -0.000000 0.000000 0.029612 -0.000000 0.000000 0.022384 -0.000000 0.000000 0.016605 -0.000000 0.000000 0.009277 -0.000000 0.000000 0.003712 -0.000000 0.000000 -0.003689 -0.000000 0.000000 -0.009040 -0.000000 0.000000 -0.016486 -0.000000 0.000000 -0.021625 -0.000000 0.000000 -0.029083 -0.000000 0.000000 -0.034015 -0.000000 0.000000 -0.041451 -0.000000 0.000000 -0.046179 -0.000000 0.000000 -0.053553 -0.000000 0.000000 -0.058082 -0.000000 0.000000 -0.065353 -0.000000 0.000000 -0.069684 -0.000000 0.000000 -0.076807 -0.000000 0.000000 -0.080941 -0.000000 0.000000 -0.087869 -0.000000 0.000000 -0.091802 -0.000000 0.000000 -0.098489 -0.000000 0.000000 -0.102214 -0.000000 0.000000 -0.108611 -0.000000 0.000000 -0.112117 -0.000000 0.000000 -0.118174 -0.000000 0.000000 -0.121444 -0.000000 0.000000 -0.127112 -0.000000 0.000000 -0.130123 -0.000000 0.000000 -0.135349 -0.000000 0.000000 -0.138070 -0.000000 0.000000 -0.142801 -0.000000 0.000000 -0.145196 -0.000000 0.000000 -0.149374 -0.000000 0.000000 -0.151397 -0.000000 0.000000 -0.154964 -0.000000 0.000000 -0.156562 -0.000000 0.000000 -0.159456 -0.000000 0.000000 -0.160572 -0.000000 0.000000 -0.162729 -0.000000 0.000000 -0.163299 -0.000000 0.000000 -0.164657 -0.000000 0.000000 -0.164617 -0.000000 0.000000 -0.165116 -0.000000 0.000000 -0.164403 -0.000000 0.000000 -0.163987 -0.000000 0.000000 -0.162542 -0.000000 0.000000 -0.161162 -0.000000 0.000000 -0.158935 -0.000000 0.000000 -0.156554 -0.000000 0.000000 -0.153504 -0.000000 0.000000 -0.150096 -0.000000 0.000000 -0.146198 -0.000000 0.000000 -0.141754 -0.000000 0.000000 -0.136998 -0.000000 0.000000 -0.131525 -0.000000 0.000000 -0.125919 -0.000000 0.000000 -0.119443 -0.000000 0.000000 -0.113014 -0.000000 0.000000 -0.105581 -0.000000 0.000000 -0.098378 -0.000000 0.000000 -0.090053 -0.000000 0.000000 -0.082145 -0.000000 0.000000 -0.073013 -0.000000 0.000000 -0.064487 -0.000000 0.000000 -0.054653 -0.000000 0.000000 
-0.045695 -0.009724 0.000000 -0.035249 -0.009915 0.000000 -0.025803 -0.010135 0.000000 -0.014915 -0.010256 0.000000 -0.005227 -0.010399 0.000000 0.005948 -0.010442 0.000000 0.015723 -0.010502 0.000000 0.027020 -0.010462 0.000000 0.036716 -0.010435 0.000000 0.047959 -0.010311 0.000000 0.057405 -0.010195 0.000000 0.068416 -0.009984 0.000000 0.077440 -0.009780 0.000000 0.088042 -0.009485 0.000000 0.096474 -0.009196 0.000000 0.106496 -0.008822 0.000000 0.114177 -0.008453 0.000000 0.123459 -0.008007 0.000000 0.130246 -0.007567 0.000000 0.138644 -0.007061 0.000000 0.144413 -0.006561 0.000000 0.151808 -0.006005 0.000000 0.156461 -0.005458 0.000000 0.162756 -0.004868 0.000000 0.166225 -0.004287 0.000000 0.171353 -0.003679 0.000000 0.173600 -0.003080 0.000000 0.177526 -0.002469 0.000000 0.178545 -0.001866 0.000000 0.181260 -0.001268 0.000000 0.181078 -0.000676 0.000000 0.182603 -0.000106 0.000000 0.181276 0.000464 0.000000 0.181657 0.000994 0.000000 0.179264 0.001531 0.000000 0.178568 0.002010 0.000000 0.175212 0.002506 0.000000 0.173521 0.002927 0.000000 0.169319 0.003376 0.000000 0.166727 0.003735 0.000000 0.161804 0.004134 0.000000 0.158411 0.004428 0.000000 0.152899 0.004778 0.000000 0.148804 0.005007 0.000000 0.142833 0.005309 0.000000 0.138132 0.005477 0.000000 0.131825 0.005734 0.000000 0.126609 0.005845 0.000000 0.120080 0.006062 0.000000 0.114429 0.006122 0.000000 0.107782 0.006304 0.000000 0.101766 0.006320 0.000000 0.095088 0.006473 0.000000 0.088767 0.006452 0.000000 0.082132 0.006580 0.000000 0.075556 0.006530 0.000000 0.069023 0.006637 0.000000 0.062233 0.006565 0.000000 0.055846 0.006656 0.000000 0.048875 0.006568 0.000000 0.042667 0.006644 0.000000 0.035545 0.006545 0.000000 0.029536 0.006608 0.000000 0.022288 0.006504 0.000000 0.016491 0.006553 0.000000 0.009143 0.006446 0.000000 0.003563 0.006483 0.000000 -0.003858 0.006376 0.000000 -0.009221 0.006398 0.000000 -0.016687 0.006292 0.000000 -0.021836 0.006299 0.000000 -0.029314 0.006195 0.000000 -0.034253 0.006184 0.000000 -0.041709 0.006082 0.000000 -0.046442 0.006051 0.000000 -0.053836 0.005952 0.000000 -0.058368 0.005900 0.000000 -0.065658 0.005801 0.000000 -0.069990 0.005727 0.000000 -0.077133 0.005628 0.000000 -0.081265 0.005531 0.000000 -0.088213 0.005431 0.000000 -0.092143 0.005310 0.000000 -0.098848 0.005206 0.000000 -0.102570 0.005061 0.000000 -0.108984 0.004951 0.000000 -0.112486 0.004782 0.000000 -0.118559 0.004664 0.000000 -0.121825 0.004469 0.000000 -0.127508 0.004339 0.000000 -0.130514 0.004119 0.000000 -0.135754 0.003974 0.000000 -0.138472 0.003726 0.000000 -0.143215 0.003563 0.000000 -0.145606 0.003287 0.000000 -0.149796 0.003101 0.000000 -0.151815 0.002795 0.000000 -0.155392 0.002583 0.000000 -0.156986 0.002246 0.000000 -0.159889 0.002005 0.000000 -0.161000 0.001636 0.000000 -0.163165 0.001364 0.000000 -0.163730 0.000964 0.000000 -0.165094 0.000659 0.000000 -0.165048 0.000229 0.000000 -0.165551 -0.000107 0.000000 -0.164831 -0.000565 0.000000 -0.164416 -0.000931 0.000000 -0.162963 -0.001412 0.000000 -0.161582 -0.001804 0.000000 -0.159344 -0.002304 0.000000 -0.156959 -0.002715 0.000000 -0.153897 -0.003229 0.000000 -0.150482 -0.003653 0.000000 -0.146570 -0.004171 0.000000 -0.142116 -0.004600 0.000000 -0.137344 -0.005115 0.000000 -0.131857 -0.005540 0.000000 -0.126233 -0.006041 0.000000 -0.119740 -0.006452 0.000000 -0.113291 -0.006931 0.000000 -0.105837 -0.007318 0.000000 -0.098612 -0.007764 0.000000 -0.090263 -0.008117 0.000000 -0.082331 -0.008520 0.000000 -0.073172 -0.008829 0.000000 -0.064621 -0.009180 0.000000 -0.054757 -0.009434 0.000000 
-0.046101 -0.019508 0.000000 -0.035617 -0.019892 0.000000 -0.026129 -0.020334 0.000000 -0.015199 -0.020576 0.000000 -0.005463 -0.020863 0.000000 0.005759 -0.020950 0.000000 0.015586 -0.021071 0.000000 0.026932 -0.020993 0.000000 0.036683 -0.020939 0.000000 0.047977 -0.020689 0.000000 0.057479 -0.020458 0.000000 0.068541 -0.020035 0.000000 0.077620 -0.019626 0.000000 0.088270 -0.019034 0.000000 0.096754 -0.018454 0.000000 0.106820 -0.017703 0.000000 0.114549 -0.016963 0.000000 0.123868 -0.016068 0.000000 0.130696 -0.015185 0.000000 0.139124 -0.014168 0.000000 0.144926 -0.013164 0.000000 0.152342 -0.012048 0.000000 0.157018 -0.010948 0.000000 0.163324 -0.009764 0.000000 0.166805 -0.008597 0.000000 0.171936 -0.007375 0.000000 0.174184 -0.006172 0.000000 0.178101 -0.004945 0.000000 0.179112 -0.003734 0.000000 0.181810 -0.002533 0.000000 0.181611 -0.001343 0.000000 0.183112 -0.000197 0.000000 0.181760 0.000946 0.000000 0.182111 0.002012 0.000000 0.179688 0.003089 0.000000 0.178958 0.004052 0.000000 0.175568 0.005047 0.000000 0.173843 0.005893 0.000000 0.169605 0.006794 0.000000 0.166978 0.007514 0.000000 0.162021 0.008316 0.000000 0.158595 0.008905 0.000000 0.153051 0.009607 0.000000 0.148926 0.010067 0.000000 0.142928 0.010672 0.000000 0.138202 0.011008 0.000000 0.131873 0.011524 0.000000 0.126636 0.011745 0.000000 0.120092 0.012180 0.000000 0.114426 0.012299 0.000000 0.107769 0.012663 0.000000 0.101744 0.012694 0.000000 0.095063 0.012999 0.000000 0.088737 0.012956 0.000000 0.082104 0.013211 0.000000 0.075528 0.013109 0.000000 0.069002 0.013323 0.000000 0.062214 0.013177 0.000000 0.055838 0.013358 0.000000 0.048873 0.013179 0.000000 0.042677 0.013331 0.000000 0.035562 0.013131 0.000000 0.029568 0.013257 0.000000 0.022327 0.013045 0.000000 0.016545 0.013145 0.000000 0.009204 0.012928 0.000000 0.003639 0.013001 0.000000 -0.003777 0.012784 0.000000 -0.009126 0.012829 0.000000 -0.016588 0.012614 0.000000 -0.021725 0.012627 0.000000 -0.029202 0.012417 0.000000 -0.034131 0.012395 0.000000 -0.041586 0.012189 0.000000 -0.046313 0.012127 0.000000 -0.053708 0.011926 0.000000 -0.058236 0.011822 0.000000 -0.065529 0.011623 0.000000 -0.069861 0.011474 0.000000 -0.077006 0.011275 0.000000 -0.081142 0.011080 0.000000 -0.088094 0.010878 0.000000 -0.092030 0.010635 0.000000 -0.098741 0.010427 0.000000 -0.102472 0.010136 0.000000 -0.108893 0.009916 0.000000 -0.112408 0.009576 0.000000 -0.118490 0.009339 0.000000 -0.121772 0.008949 0.000000 -0.127465 0.008689 0.000000 -0.130491 0.008247 0.000000 -0.135744 0.007958 0.000000 -0.138485 0.007461 0.000000 -0.143244 0.007134 0.000000 -0.145661 0.006581 0.000000 -0.149869 0.006209 0.000000 -0.151918 0.005596 0.000000 -0.155516 0.005171 0.000000 -0.157143 0.004497 0.000000 -0.160068 0.004014 0.000000 -0.161215 0.003276 0.000000 -0.163404 0.002730 0.000000 -0.164006 0.001929 0.000000 -0.165394 0.001318 0.000000 -0.165386 0.000457 0.000000 -0.165912 -0.000217 0.000000 -0.165229 -0.001135 0.000000 -0.164836 -0.001868 0.000000 -0.163417 -0.002834 0.000000 -0.162056 -0.003618 0.000000 -0.159848 -0.004623 0.000000 -0.157480 -0.005447 0.000000 -0.154443 -0.006477 0.000000 -0.151040 -0.007327 0.000000 -0.147147 -0.008366 0.000000 -0.142699 -0.009227 0.000000 -0.137938 -0.010259 0.000000 -0.132453 -0.011111 0.000000 -0.126832 -0.012117 0.000000 -0.120334 -0.012942 0.000000 -0.113881 -0.013902 0.000000 -0.106415 -0.014679 0.000000 -0.099178 -0.015574 0.000000 -0.090810 -0.016282 0.000000 -0.082858 -0.017091 0.000000 -0.073673 -0.017710 0.000000 -0.065094 -0.018415 0.000000 -0.055198 -0.018926 0.000000 
-0.046662 -0.029305 0.000000 -0.036076 -0.029887 0.000000 -0.026488 -0.030554 0.000000 -0.015446 -0.030922 0.000000 -0.005602 -0.031356 0.000000 0.005739 -0.031491 0.000000 0.015680 -0.031674 0.000000 0.027150 -0.031559 0.000000 0.037018 -0.031480 0.000000 0.048439 -0.031107 0.000000 0.058059 -0.030759 0.000000 0.069247 -0.030124 0.000000 0.078440 -0.029509 0.000000 0.089213 -0.028620 0.000000 0.097804 -0.027746 0.000000 0.107985 -0.026616 0.000000 0.115811 -0.025501 0.000000 0.125235 -0.024154 0.000000 0.132145 -0.022824 0.000000 0.140665 -0.021291 0.000000 0.146532 -0.019778 0.000000 0.154022 -0.018097 0.000000 0.158744 -0.016440 0.000000 0.165106 -0.014656 0.000000 0.168613 -0.012899 0.000000 0.173778 -0.011058 0.000000 0.176030 -0.009246 0.000000 0.179963 -0.007397 0.000000 0.180956 -0.005575 0.000000 0.183650 -0.003767 0.000000 0.183413 -0.001978 0.000000 0.184892 -0.000254 0.000000 0.183484 0.001465 0.000000 0.183798 0.003066 0.000000 0.181304 0.004683 0.000000 0.180525 0.006130 0.000000 0.177052 0.007621 0.000000 0.175268 0.008891 0.000000 0.170938 0.010240 0.000000 0.168248 0.011318 0.000000 0.163194 0.012518 0.000000 0.159701 0.013398 0.000000 0.154059 0.014446 0.000000 0.149867 0.015131 0.000000 0.143772 0.016034 0.000000 0.138981 0.016532 0.000000 0.132559 0.017300 0.000000 0.127262 0.017625 0.000000 0.120631 0.018272 0.000000 0.114909 0.018445 0.000000 0.108174 0.018986 0.000000 0.102098 0.019027 0.000000 0.095346 0.019479 0.000000 0.088975 0.019410 0.000000 0.082282 0.019789 0.000000 0.075665 0.019633 0.000000 0.069086 0.019951 0.000000 0.062262 0.019729 0.000000 0.055843 0.019997 0.000000 0.048843 0.019728 0.000000 0.042614 0.019954 0.000000 0.035465 0.019655 0.000000 0.029444 0.019843 0.000000 0.022171 0.019526 0.000000 0.016368 0.019676 0.000000 0.008994 0.019353 0.000000 0.003413 0.019464 0.000000 -0.004036 0.019141 0.000000 -0.009397 0.019210 0.000000 -0.016895 0.018891 0.000000 -0.022039 0.018912 0.000000 -0.029553 0.018601 0.000000 -0.034487 0.018568 0.000000 -0.041982 0.018264 0.000000 -0.046711 0.018173 0.000000 -0.054148 0.017875 0.000000 -0.058677 0.017721 0.000000 -0.066013 0.017426 0.000000 -0.070344 0.017204 0.000000 -0.077533 0.016910 0.000000 -0.081669 0.016619 0.000000 -0.088664 0.016319 0.000000 -0.092601 0.015957 0.000000 -0.099354 0.015648 0.000000 -0.103087 0.015213 0.000000 -0.109550 0.014887 0.000000 -0.113069 0.014378 0.000000 -0.119193 0.014028 0.000000 -0.122481 0.013444 0.000000 -0.128216 0.013059 0.000000 -0.131253 0.012398 0.000000 -0.136547 0.011968 0.000000 -0.139302 0.011226 0.000000 -0.144102 0.010739 0.000000 -0.146537 0.009912 0.000000 -0.150787 0.009358 0.000000 -0.152858 0.008441 0.000000 -0.156497 0.007808 0.000000 -0.158149 0.006799 0.000000 -0.161115 0.006076 0.000000 -0.162289 0.004972 0.000000 -0.164517 0.004154 0.000000 -0.165146 0.002955 0.000000 -0.166571 0.002039 0.000000 -0.166588 0.000748 0.000000 -0.167147 -0.000264 0.000000 -0.166485 -0.001641 0.000000 -0.166119 -0.002742 0.000000 -0.164717 -0.004193 0.000000 -0.163374 -0.005372 0.000000 -0.161176 -0.006881 0.000000 -0.158816 -0.008121 0.000000 -0.155780 -0.009668 0.000000 -0.152375 -0.010949 0.000000 -0.148473 -0.012512 0.000000 -0.144011 -0.013809 0.000000 -0.139230 -0.015361 0.000000 -0.133718 -0.016646 0.000000 -0.128065 -0.018160 0.000000 -0.121527 -0.019403 0.000000 -0.115030 -0.020849 0.000000 -0.107510 -0.022021 0.000000 -0.100217 -0.023369 0.000000 -0.091782 -0.024437 0.000000 -0.083761 -0.025657 0.000000 -0.074497 -0.026592 0.000000 -0.065838 -0.027655 0.000000 -0.055850 -0.028427 0.000000 
-0.047563 -0.039281 0.000000 -0.036868 -0.040066 0.000000 -0.027166 -0.040964 0.000000 -0.016003 -0.041462 0.000000 -0.006033 -0.042049 0.000000 0.005439 -0.042232 0.000000 0.015516 -0.042482 0.000000 0.027124 -0.042331 0.000000 0.037134 -0.042228 0.000000 0.048697 -0.041729 0.000000 0.058460 -0.041265 0.000000 0.069789 -0.040416 0.000000 0.079123 -0.039591 0.000000 0.090031 -0.038399 0.000000 0.098756 -0.037226 0.000000 0.109063 -0.035710 0.000000 0.117009 -0.034213 0.000000 0.126544 -0.032403 0.000000 0.133558 -0.030615 0.000000 0.142169 -0.028554 0.000000 0.148119 -0.026520 0.000000 0.155678 -0.024260 0.000000 0.160458 -0.022033 0.000000 0.166865 -0.019632 0.000000 0.170402 -0.017269 0.000000 0.175587 -0.014793 0.000000 0.177843 -0.012357 0.000000 0.181771 -0.009871 0.000000 0.182741 -0.007422 0.000000 0.185407 -0.004990 0.000000 0.185124 -0.002586 0.000000 0.186554 -0.000268 0.000000 0.185079 0.002040 0.000000 0.185328 0.004191 0.000000 0.182751 0.006362 0.000000 0.181895 0.008304 0.000000 0.178328 0.010304 0.000000 0.176460 0.012007 0.000000 0.172030 0.013814 0.000000 0.169254 0.015258 0.000000 0.164099 0.016863 0.000000 0.160521 0.018040 0.000000 0.154782 0.019441 0.000000 0.150511 0.020354 0.000000 0.144326 0.021558 0.000000 0.139464 0.022220 0.000000 0.132963 0.023243 0.000000 0.127605 0.023673 0.000000 0.120907 0.024532 0.000000 0.115135 0.024756 0.000000 0.108346 0.025475 0.000000 0.102231 0.025521 0.000000 0.095440 0.026121 0.000000 0.089041 0.026020 0.000000 0.082321 0.026522 0.000000 0.075683 0.026304 0.000000 0.069091 0.026726 0.000000 0.062253 0.026421 0.000000 0.055830 0.026776 0.000000 0.048822 0.026409 0.000000 0.042596 0.026709 0.000000 0.035442 0.026301 0.000000 0.029431 0.026551 0.000000 0.022153 0.026121 0.000000 0.016364 0.026321 0.000000 0.008983 0.025883 0.000000 0.003418 0.026032 0.000000 -0.004040 0.025594 0.000000 -0.009385 0.025687 0.000000 -0.016895 0.025257 0.000000 -0.022025 0.025286 0.000000 -0.029554 0.024865 0.000000 -0.034477 0.024824 0.000000 -0.041991 0.024413 0.000000 -0.046711 0.024293 0.000000 -0.054170 0.023891 0.000000 -0.058695 0.023686 0.000000 -0.066055 0.023290 0.000000 -0.070387 0.022995 0.000000 -0.077602 0.022599 0.000000 -0.081742 0.022211 0.000000 -0.088766 0.021810 0.000000 -0.092712 0.021326 0.000000 -0.099496 0.020913 0.000000 -0.103243 0.020332 0.000000 -0.109738 0.019898 0.000000 -0.113277 0.019218 0.000000 -0.119435 0.018752 0.000000 -0.122750 0.017972 0.000000 -0.128521 0.017460 0.000000 -0.131592 0.016577 0.000000 -0.136926 0.016007 0.000000 -0.139723 0.015016 0.000000 -0.144566 0.014370 0.000000 -0.147052 0.013266 0.000000 -0.151349 0.012529 0.000000 -0.153477 0.011306 0.000000 -0.157167 0.010463 0.000000 -0.158883 0.009115 0.000000 -0.161903 0.008153 0.000000 -0.163145 0.006678 0.000000 -0.165428 0.005587 0.000000 -0.166128 0.003983 0.000000 -0.167608 0.002761 0.000000 -0.167696 0.001033 0.000000 -0.168307 -0.000320 0.000000 -0.167713 -0.002163 0.000000 -0.167394 -0.003637 0.000000 -0.166052 -0.005579 0.000000 -0.164749 -0.007159 0.000000 -0.162603 -0.009180 0.000000 -0.160272 -0.010843 0.000000 -0.157276 -0.012917 0.000000 -0.153888 -0.014634 0.000000 -0.150010 -0.016731 0.000000 -0.145552 -0.018469 0.000000 -0.140779 -0.020553 0.000000 -0.135255 -0.022276 0.000000 -0.129593 -0.024308 0.000000 -0.123026 -0.025977 0.000000 -0.116502 -0.027919 0.000000 -0.108937 -0.029492 0.000000 -0.101597 -0.031302 0.000000 -0.093101 -0.032737 0.000000 -0.085015 -0.034377 0.000000 -0.075673 -0.035633 0.000000 -0.066931 -0.037062 0.000000 -0.056850 -0.038101 0.000000 
-0.048630 -0.049286 0.000000 -0.037762 -0.050283 0.000000 -0.027887 -0.051419 0.000000 -0.016532 -0.052056 0.000000 -0.006374 -0.052799 0.000000 0.005303 -0.053040 0.000000 0.015579 -0.053360 0.000000 0.027402 -0.053178 0.000000 0.037618 -0.053053 0.000000 0.049401 -0.052432 0.000000 0.059370 -0.051851 0.000000 0.070919 -0.050787 0.000000 0.080455 -0.049751 0.000000 0.091576 -0.048253 0.000000 0.100491 -0.046777 0.000000 0.110997 -0.044869 0.000000 0.119116 -0.042982 0.000000 0.128831 -0.040703 0.000000 0.135992 -0.038449 0.000000 0.144758 -0.035851 0.000000 0.150825 -0.033286 0.000000 0.158508 -0.030436 0.000000 0.163371 -0.027627 0.000000 0.169868 -0.024600 0.000000 0.173450 -0.021621 0.000000 0.178689 -0.018499 0.000000 0.180951 -0.015429 0.000000 0.184897 -0.012295 0.000000 0.185835 -0.009212 0.000000 0.188485 -0.006149 0.000000 0.188133 -0.003125 0.000000 0.189517 -0.000209 0.000000 0.187942 0.002691 0.000000 0.188118 0.005394 0.000000 0.185415 0.008116 0.000000 0.184466 0.010553 0.000000 0.180753 0.013057 0.000000 0.178777 0.015188 0.000000 0.174188 0.017447 0.000000 0.171294 0.019250 0.000000 0.165973 0.021250 0.000000 0.162276 0.022715 0.000000 0.156370 0.024456 0.000000 0.151982 0.025587 0.000000 0.145634 0.027081 0.000000 0.140661 0.027894 0.000000 0.134007 0.029159 0.000000 0.128547 0.029681 0.000000 0.121709 0.030742 0.000000 0.115845 0.031006 0.000000 0.108932 0.031890 0.000000 0.102736 0.031933 0.000000 0.095837 0.032670 0.000000 0.089368 0.032530 0.000000 0.082557 0.033146 0.000000 0.075860 0.032862 0.000000 0.069193 0.033381 0.000000 0.062303 0.032990 0.000000 0.055821 0.033429 0.000000 0.048765 0.032962 0.000000 0.042495 0.033334 0.000000 0.035296 0.032821 0.000000 0.029252 0.033132 0.000000 0.021930 0.032593 0.000000 0.016119 0.032845 0.000000 0.008693 0.032298 0.000000 0.003114 0.032488 0.000000 -0.004393 0.031944 0.000000 -0.009746 0.032064 0.000000 -0.017308 0.031531 0.000000 -0.022442 0.031572 0.000000 -0.030028 0.031052 0.000000 -0.034952 0.031005 0.000000 -0.042526 0.030499 0.000000 -0.047246 0.030353 0.000000 -0.054768 0.029858 0.000000 -0.059292 0.029605 0.000000 -0.066717 0.029117 0.000000 -0.071049 0.028752 0.000000 -0.078331 0.028265 0.000000 -0.082472 0.027782 0.000000 -0.089562 0.027289 0.000000 -0.093512 0.026687 0.000000 -0.100362 0.026179 0.000000 -0.104117 0.025455 0.000000 -0.110678 0.024921 0.000000 -0.114229 0.024075 0.000000 -0.120453 0.023501 0.000000 -0.123786 0.022531 0.000000 -0.129624 0.021901 0.000000 -0.132720 0.020802 0.000000 -0.138121 0.020098 0.000000 -0.140951 0.018866 0.000000 -0.145864 0.018068 0.000000 -0.148391 0.016695 0.000000 -0.152759 0.015783 0.000000 -0.154936 0.014260 0.000000 -0.158699 0.013214 0.000000 -0.160470 0.011535 0.000000 -0.163564 0.010338 0.000000 -0.164865 0.008497 0.000000 -0.167221 0.007138 0.000000 -0.167982 0.005135 0.000000 -0.169531 0.003607 0.000000 -0.169678 0.001446 0.000000 -0.170351 -0.000247 0.000000 -0.169810 -0.002554 0.000000 -0.169543 -0.004403 0.000000 -0.168246 -0.006837 0.000000 -0.166982 -0.008821 0.000000 -0.164867 -0.011357 0.000000 -0.162559 -0.013448 0.000000 -0.159578 -0.016053 0.000000 -0.156195 -0.018215 0.000000 -0.152314 -0.020848 0.000000 -0.147838 -0.023039 0.000000 -0.143042 -0.025658 0.000000 -0.137478 -0.027832 0.000000 -0.131771 -0.030388 0.000000 -0.125141 -0.032495 0.000000 -0.118548 -0.034938 0.000000 -0.110898 -0.036925 0.000000 -0.103466 -0.039205 0.000000 -0.094860 -0.041020 0.000000 -0.086660 -0.043086 0.000000 -0.077185 -0.044677 0.000000 -0.068308 -0.046478 0.000000 -0.058073 -0.047796 0.000000 
-0.050054 -0.059592 0.000000 -0.039005 -0.060810 0.000000 -0.028942 -0.062194 0.000000 -0.017386 -0.062975 0.000000 -0.007020 -0.063884 0.000000 0.004876 -0.064185 0.000000 0.015375 -0.064582 0.000000 0.027429 -0.064370 0.000000 0.037878 -0.064227 0.000000 0.049896 -0.063482 0.000000 0.060103 -0.062784 0.000000 0.071887 -0.061500 0.000000 0.081654 -0.060248 0.000000 0.093003 -0.058435 0.000000 0.102138 -0.056648 0.000000 0.112855 -0.054335 0.000000 0.121173 -0.052046 0.000000 0.131075 -0.049279 0.000000 0.138408 -0.046543 0.000000 0.147330 -0.043387 0.000000 0.153532 -0.040271 0.000000 0.161335 -0.036806 0.000000 0.166292 -0.033392 0.000000 0.172869 -0.029711 0.000000 0.176501 -0.026091 0.000000 0.181778 -0.022294 0.000000 0.184045 -0.018564 0.000000 0.187986 -0.014755 0.000000 0.188886 -0.011010 0.000000 0.191492 -0.007288 0.000000 0.191062 -0.003618 0.000000 0.192368 -0.000077 0.000000 0.190680 0.003439 0.000000 0.190752 0.006718 0.000000 0.187908 0.010014 0.000000 0.186834 0.012967 0.000000 0.182962 0.015993 0.000000 0.180848 0.018572 0.000000 0.176089 0.021297 0.000000 0.173054 0.023473 0.000000 0.167561 0.025881 0.000000 0.163724 0.027643 0.000000 0.157651 0.029735 0.000000 0.153132 0.031090 0.000000 0.146628 0.032879 0.000000 0.141537 0.033847 0.000000 0.134744 0.035357 0.000000 0.129181 0.035971 0.000000 0.122224 0.037234 0.000000 0.116276 0.037533 0.000000 0.109265 0.038584 0.000000 0.103002 0.038615 0.000000 0.096028 0.039489 0.000000 0.089507 0.039300 0.000000 0.082642 0.040030 0.000000 0.075907 0.039668 0.000000 0.069206 0.040283 0.000000 0.062289 0.039793 0.000000 0.055790 0.040314 0.000000 0.048714 0.039735 0.000000 0.042441 0.040178 0.000000 0.035226 0.039544 0.000000 0.029189 0.039917 0.000000 0.021851 0.039254 0.000000 0.016054 0.039558 0.000000 0.008611 0.038888 0.000000 0.003049 0.039119 0.000000 -0.004479 0.038454 0.000000 -0.009814 0.038602 0.000000 -0.017402 0.037952 0.000000 -0.022519 0.038006 0.000000 -0.030138 0.037375 0.000000 -0.035046 0.037321 0.000000 -0.042659 0.036708 0.000000 -0.047369 0.036536 0.000000 -0.054934 0.035937 0.000000 -0.059452 0.035635 0.000000 -0.066925 0.035047 0.000000 -0.071256 0.034608 0.000000 -0.078589 0.034023 0.000000 -0.082735 0.033442 0.000000 -0.089879 0.032851 0.000000 -0.093841 0.032126 0.000000 -0.100745 0.031518 0.000000 -0.104519 0.030648 0.000000 -0.111136 0.030010 0.000000 -0.114715 0.028993 0.000000 -0.120997 0.028309 0.000000 -0.124368 0.027143 0.000000 -0.130267 0.026394 0.000000 -0.133412 0.025075 0.000000 -0.138879 0.024238 0.000000 -0.141770 0.022759 0.000000 -0.146754 0.021810 0.000000 -0.149354 0.020161 0.000000 -0.153799 0.019074 0.000000 -0.156061 0.017246 0.000000 -0.159907 0.015997 0.000000 -0.161773 0.013980 0.000000 -0.164954 0.012548 0.000000 -0.166358 0.010335 0.000000 -0.168804 0.008704 0.000000 -0.169671 0.006293 0.000000 -0.171309 0.004456 0.000000 -0.171562 0.001853 0.000000 -0.172319 -0.000188 0.000000 -0.171879 -0.002971 0.000000 -0.171687 -0.005201 0.000000 -0.170480 -0.008141 0.000000 -0.169278 -0.010538 0.000000 -0.167238 -0.013603 0.000000 -0.164976 -0.016132 0.000000 -0.162050 -0.019282 0.000000 -0.158691 -0.021899 0.000000 -0.154842 -0.025087 0.000000 -0.150369 -0.027741 0.000000 -0.145578 -0.030913 0.000000 -0.139991 -0.033547 0.000000 -0.134261 -0.036645 0.000000 -0.127582 -0.039199 0.000000 -0.120937 -0.042162 0.000000 -0.113209 -0.044573 0.000000 -0.105697 -0.047340 0.000000 -0.096986 -0.049544 0.000000 -0.088676 -0.052051 0.000000 -0.079069 -0.053986 0.000000 -0.070053 -0.056175 0.000000 -0.059661 -0.057779 0.000000 
-0.051665 -0.069941 0.000000 -0.040368 -0.071396 0.000000 -0.030056 -0.073038 0.000000 -0.018226 -0.073978 0.000000 -0.007588 -0.075061 0.000000 0.004602 -0.075434 0.000000 0.015391 -0.075912 0.000000 0.027755 -0.075680 0.000000 0.038503 -0.075520 0.000000 0.050840 -0.074657 0.000000 0.061350 -0.073841 0.000000 0.073452 -0.072339 0.000000 0.083516 -0.070867 0.000000 0.095174 -0.068737 0.000000 0.104590 -0.066630 0.000000 0.115597 -0.063904 0.000000 0.124169 -0.061203 0.000000 0.134332 -0.057938 0.000000 0.141883 -0.054704 0.000000 0.151028 -0.050976 0.000000 0.157404 -0.047292 0.000000 0.165385 -0.043197 0.000000 0.170463 -0.039161 0.000000 0.177167 -0.034809 0.000000 0.180865 -0.030530 0.000000 0.186215 -0.026042 0.000000 0.188489 -0.021637 0.000000 0.192449 -0.017136 0.000000 0.193300 -0.012718 0.000000 0.195875 -0.008325 0.000000 0.195343 -0.004001 0.000000 0.196572 0.000172 0.000000 0.194736 0.004307 0.000000 0.194692 0.008166 0.000000 0.191662 0.012034 0.000000 0.190443 0.015500 0.000000 0.186356 0.019043 0.000000 0.184078 0.022061 0.000000 0.179086 0.025241 0.000000 0.175875 0.027778 0.000000 0.170140 0.030580 0.000000 0.166126 0.032624 0.000000 0.159812 0.035049 0.000000 0.155120 0.036610 0.000000 0.148385 0.038675 0.000000 0.143133 0.039779 0.000000 0.136124 0.041515 0.000000 0.130415 0.042201 0.000000 0.123263 0.043648 0.000000 0.117186 0.043965 0.000000 0.110003 0.045164 0.000000 0.103630 0.045170 0.000000 0.096510 0.046165 0.000000 0.089896 0.045915 0.000000 0.082912 0.046746 0.000000 0.076098 0.046298 0.000000 0.069303 0.046999 0.000000 0.062319 0.046406 0.000000 0.055747 0.047003 0.000000 0.048613 0.046312 0.000000 0.042287 0.046823 0.000000 0.035018 0.046072 0.000000 0.028945 0.046506 0.000000 0.021554 0.045728 0.000000 0.015734 0.046086 0.000000 0.008235 0.045303 0.000000 0.002661 0.045578 0.000000 -0.004928 0.044807 0.000000 -0.010267 0.044987 0.000000 -0.017923 0.044236 0.000000 -0.023040 0.044307 0.000000 -0.030733 0.043580 0.000000 -0.035638 0.043526 0.000000 -0.043332 0.042821 0.000000 -0.048037 0.042628 0.000000 -0.055689 0.041941 0.000000 -0.060203 0.041596 0.000000 -0.067766 0.040922 0.000000 -0.072094 0.040415 0.000000 -0.079519 0.039744 0.000000 -0.083665 0.039072 0.000000 -0.090901 0.038394 0.000000 -0.094867 0.037553 0.000000 -0.101863 0.036857 0.000000 -0.105647 0.035847 0.000000 -0.112355 0.035117 0.000000 -0.115952 0.033936 0.000000 -0.122325 0.033154 0.000000 -0.125723 0.031801 0.000000 -0.131714 0.030944 0.000000 -0.134897 0.029414 0.000000 -0.140458 0.028456 0.000000 -0.143400 0.026741 0.000000 -0.148482 0.025652 0.000000 -0.151146 0.023740 0.000000 -0.155693 0.022490 0.000000 -0.158032 0.020368 0.000000 -0.161984 0.018926 0.000000 -0.163938 0.016582 0.000000 -0.167226 0.014923 0.000000 -0.168726 0.012347 0.000000 -0.171279 0.010451 0.000000 -0.172245 0.007640 0.000000 -0.173986 0.005498 0.000000 -0.174336 0.002457 0.000000 -0.175188 0.000070 0.000000 -0.174837 -0.003186 0.000000 -0.174726 -0.005802 0.000000 -0.173595 -0.009247 0.000000 -0.172455 -0.012063 0.000000 -0.170472 -0.015660 0.000000 -0.168249 -0.018636 0.000000 -0.165355 -0.022337 0.000000 -0.162009 -0.025422 0.000000 -0.158165 -0.029171 0.000000 -0.153673 -0.032303 0.000000 -0.148856 -0.036036 0.000000 -0.143218 -0.039149 0.000000 -0.137430 -0.042798 0.000000 -0.130665 -0.045819 0.000000 -0.123928 -0.049311 0.000000 -0.116081 -0.052165 0.000000 -0.108442 -0.055429 0.000000 -0.099577 -0.058041 0.000000 -0.091107 -0.061002 0.000000 -0.081313 -0.063299 0.000000 -0.072106 -0.065886 0.000000 -0.061494 -0.067795 0.000000 