# vtk DataFile Version 2.0
Comment goes here
ASCII

DATASET STRUCTURED_POINTS
FIELD FieldData 1
TIME 1 1 double
0.20000000
DIMENSIONS    128   128   1

ORIGIN    0.000   0.000   0.000
SPACING   0.039062 0.039062   1.000

POINT_DATA   16384
SCALARS uMag double
LOOKUP_TABLE default

1.016293e-01 9.183269e-02 8.372338e-02 7.315153e-02 6.416107e-02 5.297171e-02 4.325770e-02 3.162911e-02 2.136967e-02 9.496970e-03 1.113736e-03 1.302306e-02 2.377995e-02 3.551132e-02 4.620415e-02 5.754177e-02 6.796146e-02 7.869472e-02 8.863982e-02 9.856989e-02 1.078531e-01 1.167994e-01 1.252536e-01 1.330597e-01 1.405436e-01 1.470823e-01 1.534842e-01 1.586615e-01 1.639024e-01 1.676595e-01 1.716945e-01 1.740093e-01 1.768271e-01 1.777127e-01 1.793342e-01 1.788371e-01 1.793119e-01 1.775085e-01 1.769112e-01 1.739032e-01 1.723283e-01 1.682379e-01 1.657949e-01 1.607589e-01 1.575669e-01 1.517315e-01 1.479142e-01 1.414296e-01 1.371108e-01 1.301262e-01 1.254258e-01 1.180850e-01 1.131158e-01 1.055538e-01 1.004188e-01 9.275877e-02 8.754952e-02 7.990026e-02 7.469556e-02 6.715040e-02 6.201558e-02 5.465130e-02 4.963789e-02 4.251442e-02 3.766011e-02 3.082068e-02 2.614941e-02 1.962112e-02 1.514335e-02 8.938042e-03 4.651040e-03 1.233429e-03 5.345044e-03 1.092328e-02 1.488683e-02 2.018400e-02 2.403758e-02 2.908714e-02 3.287797e-02 3.771899e-02 4.150098e-02 4.617510e-02 5.000569e-02 5.455358e-02 5.848976e-02 6.294743e-02 6.704103e-02 7.143592e-02 7.572852e-02 8.007573e-02 8.459347e-02 8.889241e-02 9.364120e-02 9.787295e-02 1.028346e-01 1.069603e-01 1.120899e-01 1.160504e-01 1.212757e-01 1.249924e-01 1.302151e-01 1.335927e-01 1.386910e-01 1.416208e-01 1.464550e-01 1.488199e-01 1.532381e-01 1.549179e-01 1.587635e-01 1.596405e-01 1.627593e-01 1.627241e-01 1.649717e-01 1.639284e-01 1.651767e-01 1.630477e-01 1.631904e-01 1.599200e-01 1.588770e-01 1.544345e-01 1.521553e-01 1.465367e-01 1.430021e-01 1.362317e-01 1.314548e-01 1.235854e-01 1.176113e-01 1.087241e-01 
1.022945e-01 9.255387e-02 8.451845e-02 7.404654e-02 6.517795e-02 5.418722e-02 4.472788e-02 3.360501e-02 2.417227e-02 1.477148e-02 1.130926e-02 1.724578e-02 2.630750e-02 3.727609e-02 4.756382e-02 5.865964e-02 6.890572e-02 7.952895e-02 8.937899e-02 9.924960e-02 1.084734e-01 1.173840e-01 1.257976e-01 1.335807e-01 1.410348e-01 1.475575e-01 1.539361e-01 1.591015e-01 1.643230e-01 1.680708e-01 1.720888e-01 1.743955e-01 1.771978e-01 1.780763e-01 1.796830e-01 1.791793e-01 1.796399e-01 1.778303e-01 1.772192e-01 1.742055e-01 1.726172e-01 1.685216e-01 1.660658e-01 1.610251e-01 1.578212e-01 1.519819e-01 1.481539e-01 1.416663e-01 1.373384e-01 1.303518e-01 1.256443e-01 1.183030e-01 1.133292e-01 1.057686e-01 1.006321e-01 9.297577e-02 8.776896e-02 8.012679e-02 7.492948e-02 6.739652e-02 6.227569e-02 5.493198e-02 4.994217e-02 4.285444e-02 3.803981e-02 3.126780e-02 2.666988e-02 2.029253e-02 1.599072e-02 1.028956e-02 6.848808e-03 5.167565e-03 7.253282e-03 1.198235e-02 1.562684e-02 2.074855e-02 2.446687e-02 2.945702e-02 3.316165e-02 3.798134e-02 4.169731e-02 4.636678e-02 5.014247e-02 5.469427e-02 5.858348e-02 6.304982e-02 6.710348e-02 7.150975e-02 7.576945e-02 8.012953e-02 8.462179e-02 8.893424e-02 9.366539e-02 9.791063e-02 1.028628e-01 1.070014e-01 1.121296e-01 1.161019e-01 1.213339e-01 1.250609e-01 1.302975e-01 1.336836e-01 1.388025e-01 1.417387e-01 1.465990e-01 1.489682e-01 1.534170e-01 1.550990e-01 1.589784e-01 1.598557e-01 1.630104e-01 1.629741e-01 1.652586e-01 1.642134e-01 1.654989e-01 1.633679e-01 1.635474e-01 1.602759e-01 1.592693e-01 1.548276e-01 1.525844e-01 1.469702e-01 1.434720e-01 1.367116e-01 1.319728e-01 1.241223e-01 1.181910e-01 1.093364e-01 
1.039786e-01 9.444857e-02 8.660023e-02 7.645866e-02 6.791457e-02 5.750787e-02 4.870253e-02 3.882246e-02 3.101495e-02 2.453950e-02 2.260456e-02 2.620345e-02 3.285978e-02 4.222560e-02 5.151467e-02 6.194936e-02 7.170950e-02 8.199821e-02 9.156699e-02 1.012420e-01 1.102841e-01 1.190684e-01 1.273560e-01 1.350506e-01 1.424130e-01 1.488695e-01 1.551792e-01 1.602916e-01 1.654604e-01 1.691631e-01 1.731404e-01 1.754071e-01 1.781778e-01 1.790192e-01 1.806018e-01 1.800631e-01 1.805057e-01 1.786628e-01 1.780388e-01 1.749935e-01 1.733967e-01 1.692716e-01 1.668109e-01 1.617436e-01 1.585378e-01 1.526756e-01 1.488481e-01 1.423426e-01 1.380171e-01 1.310189e-01 1.263154e-01 1.189704e-01 1.140019e-01 1.064474e-01 1.013179e-01 9.368010e-02 8.848267e-02 8.087505e-02 7.569134e-02 6.821454e-02 6.311524e-02 5.585888e-02 5.090614e-02 4.395551e-02 3.921030e-02 3.266675e-02 2.821334e-02 2.226849e-02 1.831928e-02 1.361140e-02 1.107599e-02 1.009361e-02 1.116966e-02 1.465893e-02 1.769342e-02 2.232001e-02 2.577577e-02 3.052802e-02 3.409536e-02 3.877631e-02 4.241065e-02 4.698945e-02 5.071270e-02 5.520213e-02 5.905625e-02 6.347989e-02 6.750996e-02 7.188905e-02 7.613358e-02 8.047971e-02 8.496343e-02 8.927355e-02 9.400166e-02 9.825464e-02 1.032084e-01 1.073631e-01 1.124969e-01 1.164920e-01 1.217325e-01 1.254873e-01 1.307347e-01 1.341517e-01 1.392831e-01 1.422521e-01 1.471259e-01 1.495286e-01 1.539916e-01 1.557073e-01 1.596014e-01 1.605126e-01 1.636825e-01 1.636808e-01 1.659815e-01 1.649725e-01 1.662758e-01 1.641841e-01 1.643844e-01 1.611572e-01 1.601758e-01 1.557863e-01 1.535750e-01 1.480245e-01 1.445681e-01 1.378885e-01 1.332066e-01 1.254621e-01 1.196111e-01 1.109018e-01 
1.069530e-01 9.772109e-02 9.017798e-02 8.050495e-02 7.244537e-02 6.282628e-02 5.486940e-02 4.638376e-02 4.004360e-02 3.536701e-02 3.400100e-02 3.660862e-02 4.158680e-02 4.941936e-02 5.752525e-02 6.710687e-02 7.618474e-02 8.599872e-02 9.514677e-02 1.045359e-01 1.132983e-01 1.218971e-01 1.299874e-01 1.375534e-01 1.447698e-01 1.511310e-01 1.573282e-01 1.623654e-01 1.674444e-01 1.710841e-01 1.749874e-01 1.771984e-01 1.799068e-01 1.806969e-01 1.822259e-01 1.816390e-01 1.820348e-01 1.801461e-01 1.794810e-01 1.763925e-01 1.747597e-01 1.705944e-01 1.681025e-01 1.629990e-01 1.597666e-01 1.538735e-01 1.500241e-01 1.434944e-01 1.391520e-01 1.321381e-01 1.274231e-01 1.200731e-01 1.150994e-01 1.075531e-01 1.024259e-01 9.481315e-02 8.962757e-02 8.206698e-02 7.690820e-02 6.950835e-02 6.445311e-02 5.731716e-02 5.243868e-02 4.567696e-02 4.105802e-02 3.482201e-02 3.059318e-02 2.517765e-02 2.164193e-02 1.779934e-02 1.577922e-02 1.508151e-02 1.564783e-02 1.829200e-02 2.065961e-02 2.473535e-02 2.777464e-02 3.223584e-02 3.552876e-02 4.004831e-02 4.348296e-02 4.796917e-02 5.153677e-02 5.597460e-02 5.970326e-02 6.410272e-02 6.803143e-02 7.240657e-02 7.657150e-02 8.092956e-02 8.535483e-02 8.968961e-02 9.438035e-02 9.866798e-02 1.036052e-01 1.078019e-01 1.129395e-01 1.169811e-01 1.222445e-01 1.260476e-01 1.313352e-01 1.348001e-01 1.399865e-01 1.430011e-01 1.479422e-01 1.503870e-01 1.549268e-01 1.566806e-01 1.606584e-01 1.616042e-01 1.648624e-01 1.648931e-01 1.672850e-01 1.663083e-01 1.677047e-01 1.656480e-01 1.659431e-01 1.627575e-01 1.618738e-01 1.575374e-01 1.554292e-01 1.499496e-01 1.466062e-01 1.400242e-01 1.354725e-01 1.278657e-01 1.221746e-01 1.136646e-01 
1.108771e-01 1.020599e-01 9.488914e-02 8.582163e-02 7.832733e-02 6.961939e-02 6.253539e-02 5.536077e-02 5.015251e-02 4.665129e-02 4.559040e-02 4.771349e-02 5.159032e-02 5.820890e-02 6.519169e-02 7.387483e-02 8.217251e-02 9.141175e-02 1.000328e-01 1.090478e-01 1.174424e-01 1.257856e-01 1.336091e-01 1.409907e-01 1.480071e-01 1.542275e-01 1.602706e-01 1.651938e-01 1.701517e-01 1.736939e-01 1.775007e-01 1.796242e-01 1.822550e-01 1.829640e-01 1.844304e-01 1.837667e-01 1.841123e-01 1.821502e-01 1.814455e-01 1.782872e-01 1.766237e-01 1.723934e-01 1.698784e-01 1.647161e-01 1.614673e-01 1.555235e-01 1.516636e-01 1.450936e-01 1.407459e-01 1.337050e-01 1.289895e-01 1.216289e-01 1.166595e-01 1.091231e-01 1.040057e-01 9.642813e-02 9.125970e-02 8.376628e-02 7.863557e-02 7.134456e-02 6.633490e-02 5.936461e-02 5.456110e-02 4.804675e-02 4.355339e-02 3.768723e-02 3.366969e-02 2.879714e-02 2.558583e-02 2.238903e-02 2.062161e-02 2.005080e-02 2.029941e-02 2.235963e-02 2.419644e-02 2.771820e-02 3.035914e-02 3.445099e-02 3.747194e-02 4.174950e-02 4.499253e-02 4.931605e-02 5.274272e-02 5.707086e-02 6.069308e-02 6.502215e-02 6.887043e-02 7.320708e-02 7.731327e-02 8.166020e-02 8.604617e-02 9.039361e-02 9.506311e-02 9.938365e-02 1.043165e-01 1.085625e-01 1.137111e-01 1.178141e-01 1.231023e-01 1.269748e-01 1.322990e-01 1.358373e-01 1.410699e-01 1.441588e-01 1.491535e-01 1.516714e-01 1.562702e-01 1.580949e-01 1.621356e-01 1.631503e-01 1.664744e-01 1.665734e-01 1.690339e-01 1.681274e-01 1.695958e-01 1.676150e-01 1.679871e-01 1.648879e-01 1.640889e-01 1.598556e-01 1.578441e-01 1.524927e-01 1.492645e-01 1.428470e-01 1.384390e-01 1.310493e-01 1.255460e-01 1.173310e-01 
1.159977e-01 1.076297e-01 1.008906e-01 9.245665e-02 8.555968e-02 7.773107e-02 7.144740e-02 6.535331e-02 6.097308e-02 5.825096e-02 5.735724e-02 5.919721e-02 6.231318e-02 6.802565e-02 7.404345e-02 8.190526e-02 8.942267e-02 9.807262e-02 1.061205e-01 1.147283e-01 1.227032e-01 1.307596e-01 1.382693e-01 1.454407e-01 1.522160e-01 1.582745e-01 1.641274e-01 1.689188e-01 1.737227e-01 1.771517e-01 1.808308e-01 1.828524e-01 1.853753e-01 1.859894e-01 1.873634e-01 1.866093e-01 1.868751e-01 1.848266e-01 1.840526e-01 1.808122e-01 1.790887e-01 1.747816e-01 1.722153e-01 1.669835e-01 1.636914e-01 1.576877e-01 1.537924e-01 1.471749e-01 1.427995e-01 1.357267e-01 1.309917e-01 1.236185e-01 1.186386e-01 1.111130e-01 1.059955e-01 9.845765e-02 9.330224e-02 8.588439e-02 8.078402e-02 7.361438e-02 6.865932e-02 6.187060e-02 5.715693e-02 5.090523e-02 4.655304e-02 4.105638e-02 3.724786e-02 3.285738e-02 2.990257e-02 2.717420e-02 2.553484e-02 2.504231e-02 2.503608e-02 2.670927e-02 2.807558e-02 3.114478e-02 3.334785e-02 3.710019e-02 3.976887e-02 4.381737e-02 4.677891e-02 5.095323e-02 5.415079e-02 5.838677e-02 6.182082e-02 6.610084e-02 6.979634e-02 7.411872e-02 7.810552e-02 8.246736e-02 8.676712e-02 9.115406e-02 9.577072e-02 1.001508e-01 1.050641e-01 1.093848e-01 1.145460e-01 1.187339e-01 1.240648e-01 1.280272e-01 1.334211e-01 1.370499e-01 1.423754e-01 1.455517e-01 1.506582e-01 1.532579e-01 1.579830e-01 1.598831e-01 1.640602e-01 1.651446e-01 1.686117e-01 1.687767e-01 1.713842e-01 1.705437e-01 1.721618e-01 1.702518e-01 1.707764e-01 1.677593e-01 1.671177e-01 1.629856e-01 1.611404e-01 1.559194e-01 1.528734e-01 1.466288e-01 1.424297e-01 1.352739e-01 1.300229e-01 1.221296e-01 
1.219719e-01 1.141254e-01 1.078361e-01 1.000881e-01 9.377965e-02 8.681556e-02 8.124302e-02 7.608132e-02 7.233710e-02 7.021787e-02 6.944248e-02 7.113139e-02 7.369750e-02 7.873263e-02 8.393599e-02 9.106808e-02 9.783423e-02 1.058936e-01 1.133390e-01 1.215046e-01 1.290131e-01 1.367401e-01 1.438885e-01 1.508083e-01 1.573002e-01 1.631586e-01 1.687860e-01 1.734106e-01 1.780324e-01 1.813156e-01 1.848461e-01 1.867348e-01 1.891356e-01 1.896249e-01 1.908982e-01 1.900249e-01 1.902079e-01 1.880448e-01 1.872034e-01 1.838535e-01 1.820760e-01 1.776661e-01 1.750573e-01 1.697317e-01 1.664073e-01 1.603219e-01 1.564030e-01 1.497194e-01 1.453284e-01 1.382090e-01 1.334656e-01 1.260697e-01 1.210884e-01 1.135691e-01 1.084580e-01 1.009613e-01 9.582176e-02 8.848711e-02 8.341579e-02 7.638035e-02 7.147354e-02 6.488137e-02 6.024401e-02 5.426391e-02 5.002662e-02 4.488322e-02 4.123148e-02 3.724724e-02 3.445514e-02 3.205471e-02 3.045827e-02 2.998702e-02 2.977696e-02 3.113840e-02 3.214142e-02 3.479786e-02 3.663534e-02 4.002849e-02 4.238991e-02 4.616379e-02 4.887828e-02 5.285274e-02 5.585232e-02 5.994968e-02 6.322535e-02 6.741839e-02 7.098947e-02 7.527023e-02 7.916388e-02 8.352480e-02 8.776145e-02 9.218359e-02 9.676643e-02 1.012125e-01 1.061201e-01 1.105313e-01 1.157133e-01 1.200092e-01 1.253847e-01 1.294656e-01 1.349248e-01 1.386760e-01 1.440838e-01 1.473812e-01 1.525835e-01 1.552997e-01 1.601302e-01 1.621409e-01 1.664303e-01 1.676198e-01 1.712040e-01 1.714713e-01 1.741996e-01 1.734629e-01 1.752059e-01 1.734071e-01 1.740627e-01 1.711714e-01 1.706702e-01 1.666878e-01 1.649982e-01 1.599619e-01 1.570948e-01 1.510840e-01 1.470990e-01 1.402450e-01 1.352601e-01 1.277618e-01 
1.290468e-01 1.217079e-01 1.158816e-01 1.087757e-01 1.030252e-01 9.681843e-02 9.185353e-02 8.743679e-02 8.417438e-02 8.249995e-02 8.179920e-02 8.339081e-02 8.554046e-02 9.006611e-02 9.459836e-02 1.011175e-01 1.072040e-01 1.147223e-01 1.215830e-01 1.293190e-01 1.363522e-01 1.437466e-01 1.505137e-01 1.571728e-01 1.633571e-01 1.690043e-01 1.743800e-01 1.788257e-01 1.832383e-01 1.863629e-01 1.897167e-01 1.914593e-01 1.937087e-01 1.940593e-01 1.952018e-01 1.941949e-01 1.942641e-01 1.919720e-01 1.910313e-01 1.875578e-01 1.856940e-01 1.811679e-01 1.784847e-01 1.730532e-01 1.696653e-01 1.634877e-01 1.595158e-01 1.527576e-01 1.483236e-01 1.411516e-01 1.363751e-01 1.289534e-01 1.239493e-01 1.164361e-01 1.113137e-01 1.038606e-01 9.872330e-02 9.147631e-02 8.642421e-02 7.952791e-02 7.466222e-02 6.826862e-02 6.370019e-02 5.798387e-02 5.384720e-02 4.902699e-02 4.549926e-02 4.185639e-02 3.916820e-02 3.701816e-02 3.541064e-02 3.495825e-02 3.454549e-02 3.568437e-02 3.634151e-02 3.867531e-02 4.013026e-02 4.322094e-02 4.522507e-02 4.875934e-02 5.115921e-02 5.496003e-02 5.768815e-02 6.167079e-02 6.471602e-02 6.884614e-02 7.222716e-02 7.649131e-02 8.023629e-02 8.462217e-02 8.875325e-02 9.323692e-02 9.775868e-02 1.022969e-01 1.071882e-01 1.117150e-01 1.169243e-01 1.213514e-01 1.267952e-01 1.310149e-01 1.365792e-01 1.404698e-01 1.460141e-01 1.494459e-01 1.548097e-01 1.576516e-01 1.626625e-01 1.647886e-01 1.692713e-01 1.705670e-01 1.743522e-01 1.747196e-01 1.776529e-01 1.770152e-01 1.789653e-01 1.772713e-01 1.781361e-01 1.753638e-01 1.750763e-01 1.712371e-01 1.697708e-01 1.649141e-01 1.622876e-01 1.565076e-01 1.527917e-01 1.462377e-01 1.415662e-01 1.344592e-01 
1.368988e-01 1.301120e-01 1.247399e-01 1.182927e-01 1.130652e-01 1.075839e-01 1.031517e-01 9.940158e-02 9.653300e-02 9.525156e-02 9.461260e-02 9.616829e-02 9.799038e-02 1.021296e-01 1.060918e-01 1.120869e-01 1.175469e-01 1.245579e-01 1.308414e-01 1.381448e-01 1.446844e-01 1.517252e-01 1.580818e-01 1.644517e-01 1.702969e-01 1.757019e-01 1.807968e-01 1.850325e-01 1.892112e-01 1.921464e-01 1.953043e-01 1.968703e-01 1.989550e-01 1.991370e-01 2.001409e-01 1.989709e-01 1.989239e-01 1.964735e-01 1.954362e-01 1.918105e-01 1.898671e-01 1.851971e-01 1.824493e-01 1.768853e-01 1.734460e-01 1.671514e-01 1.631393e-01 1.562842e-01 1.518198e-01 1.445759e-01 1.397774e-01 1.323138e-01 1.272957e-01 1.197760e-01 1.146473e-01 1.072285e-01 1.020940e-01 9.492745e-02 8.988958e-02 8.312482e-02 7.828826e-02 7.208058e-02 6.755983e-02 6.208142e-02 5.801131e-02 5.346406e-02 5.001036e-02 4.662801e-02 4.398493e-02 4.199516e-02 4.034214e-02 3.986152e-02 3.927146e-02 4.019387e-02 4.057220e-02 4.259436e-02 4.373714e-02 4.651366e-02 4.822019e-02 5.148438e-02 5.361990e-02 5.720914e-02 5.970997e-02 6.354143e-02 6.639619e-02 7.043426e-02 7.366161e-02 7.789089e-02 8.151980e-02 8.592505e-02 8.997879e-02 9.453130e-02 9.901496e-02 1.036644e-01 1.085563e-01 1.132275e-01 1.184741e-01 1.230683e-01 1.285826e-01 1.329815e-01 1.386452e-01 1.427173e-01 1.483848e-01 1.519927e-01 1.574982e-01 1.605060e-01 1.656719e-01 1.679522e-01 1.725987e-01 1.740379e-01 1.779925e-01 1.784967e-01 1.816032e-01 1.811020e-01 1.832288e-01 1.816790e-01 1.827260e-01 1.801153e-01 1.800195e-01 1.763702e-01 1.751109e-01 1.704852e-01 1.680895e-01 1.625957e-01 1.591456e-01 1.529495e-01 1.485925e-01 1.419328e-01 
1.457919e-01 1.395124e-01 1.345846e-01 1.287232e-01 1.239746e-01 1.191101e-01 1.151325e-01 1.119213e-01 1.093669e-01 1.083939e-01 1.077995e-01 1.093356e-01 1.108968e-01 1.147386e-01 1.182289e-01 1.237928e-01 1.287045e-01 1.352722e-01 1.410242e-01 1.479306e-01 1.539958e-01 1.606996e-01 1.666477e-01 1.727335e-01 1.782309e-01 1.833919e-01 1.881901e-01 1.922094e-01 1.961331e-01 1.988693e-01 2.018061e-01 2.031834e-01 2.050748e-01 2.050741e-01 2.059079e-01 2.045592e-01 2.043623e-01 2.017374e-01 2.005679e-01 1.967734e-01 1.947140e-01 1.898839e-01 1.870346e-01 1.813235e-01 1.777960e-01 1.713717e-01 1.672837e-01 1.603215e-01 1.557925e-01 1.484693e-01 1.436169e-01 1.361074e-01 1.310455e-01 1.235183e-01 1.183564e-01 1.109734e-01 1.058172e-01 9.873382e-02 9.368745e-02 8.705613e-02 8.222636e-02 7.620201e-02 7.170430e-02 6.645191e-02 6.241738e-02 5.811749e-02 5.469683e-02 5.153855e-02 4.889233e-02 4.703595e-02 4.529673e-02 4.480089e-02 4.401282e-02 4.477358e-02 4.486048e-02 4.663743e-02 4.744328e-02 4.996127e-02 5.132686e-02 5.436266e-02 5.617640e-02 5.958630e-02 6.179552e-02 6.550310e-02 6.810277e-02 7.207408e-02 7.508824e-02 7.930747e-02 8.277034e-02 8.722000e-02 9.115937e-02 9.580601e-02 1.002301e-01 1.050159e-01 1.099041e-01 1.147441e-01 1.200417e-01 1.248257e-01 1.304425e-01 1.350407e-01 1.408529e-01 1.451235e-01 1.509785e-01 1.547760e-01 1.605001e-01 1.636835e-01 1.690907e-01 1.715304e-01 1.764328e-01 1.780169e-01 1.822350e-01 1.828738e-01 1.862462e-01 1.858761e-01 1.882683e-01 1.868547e-01 1.881662e-01 1.857070e-01 1.858773e-01 1.824064e-01 1.814197e-01 1.770118e-01 1.749029e-01 1.696801e-01 1.665411e-01 1.606834e-01 1.566731e-01 1.504325e-01 
1.554288e-01 1.496922e-01 1.451919e-01 1.399304e-01 1.356288e-01 1.313685e-01 1.277988e-01 1.250997e-01 1.228185e-01 1.221476e-01 1.215953e-01 1.231532e-01 1.244971e-01 1.281141e-01 1.311912e-01 1.363885e-01 1.407942e-01 1.469549e-01 1.521908e-01 1.587095e-01 1.642943e-01 1.706517e-01 1.761724e-01 1.819542e-01 1.870792e-01 1.919707e-01 1.964471e-01 2.002215e-01 2.038676e-01 2.063752e-01 2.090725e-01 2.102309e-01 2.119159e-01 2.117019e-01 2.123585e-01 2.108003e-01 2.104519e-01 2.076216e-01 2.063236e-01 2.023296e-01 2.001620e-01 1.951416e-01 1.922021e-01 1.863141e-01 1.827119e-01 1.761293e-01 1.719796e-01 1.648831e-01 1.603031e-01 1.528753e-01 1.479807e-01 1.404015e-01 1.353045e-01 1.277476e-01 1.225570e-01 1.151882e-01 1.100095e-01 1.029868e-01 9.792505e-02 9.140081e-02 8.656385e-02 8.068854e-02 7.619177e-02 7.111812e-02 6.708850e-02 6.297211e-02 5.954758e-02 5.653611e-02 5.385288e-02 5.205475e-02 5.021564e-02 4.965179e-02 4.868528e-02 4.925715e-02 4.910020e-02 5.061388e-02 5.114236e-02 5.337833e-02 5.446288e-02 5.723883e-02 5.878676e-02 6.198275e-02 6.395178e-02 6.750442e-02 6.989619e-02 7.377900e-02 7.662312e-02 8.082404e-02 8.415973e-02 8.866121e-02 9.252012e-02 9.728416e-02 1.016765e-01 1.066361e-01 1.115411e-01 1.165981e-01 1.219586e-01 1.269875e-01 1.327092e-01 1.375643e-01 1.435177e-01 1.480434e-01 1.540693e-01 1.581093e-01 1.640269e-01 1.674339e-01 1.730503e-01 1.756928e-01 1.808140e-01 1.825824e-01 1.870242e-01 1.878348e-01 1.914331e-01 1.912308e-01 1.938505e-01 1.926113e-01 1.941534e-01 1.918871e-01 1.922947e-01 1.890476e-01 1.883112e-01 1.841705e-01 1.823327e-01 1.774333e-01 1.745951e-01 1.691284e-01 1.654579e-01 1.596844e-01 
1.660971e-01 1.608419e-01 1.567510e-01 1.520091e-01 1.481145e-01 1.443627e-01 1.411479e-01 1.388687e-01 1.368170e-01 1.363922e-01 1.358768e-01 1.374594e-01 1.386288e-01 1.420718e-01 1.448062e-01 1.497047e-01 1.536744e-01 1.594883e-01 1.642622e-01 1.704368e-01 1.755758e-01 1.816146e-01 1.867253e-01 1.922182e-01 1.969746e-01 2.016021e-01 2.057496e-01 2.092776e-01 2.126304e-01 2.149021e-01 2.173372e-01 2.182648e-01 2.197149e-01 2.192722e-01 2.197181e-01 2.179325e-01 2.173952e-01 2.143399e-01 2.128729e-01 2.086594e-01 2.063411e-01 2.011108e-01 1.980374e-01 1.919544e-01 1.882335e-01 1.814769e-01 1.772220e-01 1.699787e-01 1.653052e-01 1.577642e-01 1.527862e-01 1.451329e-01 1.399615e-01 1.323745e-01 1.271175e-01 1.197657e-01 1.145285e-01 1.075711e-01 1.024587e-01 9.604587e-02 9.116603e-02 8.544125e-02 8.090758e-02 7.600886e-02 7.194237e-02 6.800007e-02 6.452549e-02 6.165088e-02 5.888296e-02 5.714399e-02 5.516188e-02 5.455278e-02 5.337247e-02 5.379931e-02 5.336599e-02 5.466890e-02 5.488189e-02 5.688492e-02 5.764030e-02 6.019717e-02 6.142227e-02 6.443727e-02 6.610455e-02 6.952969e-02 7.165277e-02 7.547146e-02 7.809072e-02 8.229657e-02 8.546066e-02 9.003718e-02 9.378512e-02 9.869012e-02 1.030367e-01 1.081937e-01 1.131196e-01 1.184167e-01 1.238635e-01 1.291589e-01 1.350282e-01 1.401598e-01 1.463157e-01 1.511132e-01 1.573880e-01 1.616842e-01 1.678870e-01 1.715274e-01 1.774547e-01 1.803059e-01 1.857530e-01 1.877076e-01 1.924811e-01 1.934612e-01 1.973899e-01 1.973493e-01 2.002938e-01 1.992191e-01 2.010796e-01 1.989924e-01 1.997142e-01 1.966731e-01 1.962513e-01 1.923560e-01 1.908404e-01 1.862371e-01 1.837367e-01 1.786263e-01 1.753169e-01 1.699646e-01 
1.775232e-01 1.727885e-01 1.690931e-01 1.648955e-01 1.613874e-01 1.581549e-01 1.552703e-01 1.534165e-01 1.515766e-01 1.514136e-01 1.509371e-01 1.525805e-01 1.535989e-01 1.569173e-01 1.593419e-01 1.639871e-01 1.675469e-01 1.730434e-01 1.773661e-01 1.832071e-01 1.878956e-01 1.936105e-01 1.982952e-01 2.034829e-01 2.078483e-01 2.121886e-01 2.159831e-01 2.192373e-01 2.222742e-01 2.242801e-01 2.264343e-01 2.271000e-01 2.283017e-01 2.275984e-01 2.278261e-01 2.257806e-01 2.250531e-01 2.217400e-01 2.201085e-01 2.156422e-01 2.131825e-01 2.077089e-01 2.045145e-01 1.982031e-01 1.943785e-01 1.874145e-01 1.830701e-01 1.756472e-01 1.708950e-01 1.632082e-01 1.581594e-01 1.503996e-01 1.451628e-01 1.375128e-01 1.321938e-01 1.248247e-01 1.195279e-01 1.125984e-01 1.074284e-01 1.010841e-01 9.614838e-02 9.052278e-02 8.593357e-02 8.114775e-02 7.702152e-02 7.318059e-02 6.963260e-02 6.681587e-02 6.394652e-02 6.219061e-02 6.006438e-02 5.934578e-02 5.797189e-02 5.820293e-02 5.753286e-02 5.858184e-02 5.853084e-02 6.025899e-02 6.074111e-02 6.303657e-02 6.399455e-02 6.678898e-02 6.820799e-02 7.147441e-02 7.337948e-02 7.711709e-02 7.955917e-02 8.377195e-02 8.680873e-02 9.148370e-02 9.516050e-02 1.002509e-01 1.045854e-01 1.100022e-01 1.149744e-01 1.205867e-01 1.261350e-01 1.317785e-01 1.377987e-01 1.432886e-01 1.496378e-01 1.547840e-01 1.612863e-01 1.659067e-01 1.723624e-01 1.762946e-01 1.824913e-01 1.856001e-01 1.913255e-01 1.935077e-01 1.985620e-01 1.997485e-01 2.039566e-01 2.041130e-01 2.073342e-01 2.064608e-01 2.085965e-01 2.067287e-01 2.077281e-01 2.049381e-01 2.048021e-01 2.012017e-01 1.999871e-01 1.957326e-01 1.935554e-01 1.888541e-01 1.858952e-01 1.810128e-01 
1.900201e-01 1.857353e-01 1.824157e-01 1.786815e-01 1.755277e-01 1.727303e-01 1.701403e-01 1.686392e-01 1.669874e-01 1.670431e-01 1.666087e-01 1.683099e-01 1.692122e-01 1.724384e-01 1.746099e-01 1.790528e-01 1.822659e-01 1.874980e-01 1.914257e-01 1.969782e-01 2.012591e-01 2.066835e-01 2.109700e-01 2.158740e-01 2.198615e-01 2.239255e-01 2.273669e-01 2.303490e-01 2.330585e-01 2.347926e-01 2.366443e-01 2.370356e-01 2.379588e-01 2.369773e-01 2.369497e-01 2.346229e-01 2.336623e-01 2.300675e-01 2.282242e-01 2.234801e-01 2.208288e-01 2.150871e-01 2.117196e-01 2.051569e-01 2.011756e-01 1.939848e-01 1.894978e-01 1.818799e-01 1.769967e-01 1.691541e-01 1.639832e-01 1.561128e-01 1.507605e-01 1.430489e-01 1.376193e-01 1.302393e-01 1.248353e-01 1.179436e-01 1.126688e-01 1.064047e-01 1.013655e-01 9.585076e-02 9.115681e-02 8.649418e-02 8.225681e-02 7.852672e-02 7.485198e-02 7.210515e-02 6.908069e-02 6.732782e-02 6.500569e-02 6.420937e-02 6.259262e-02 6.267004e-02 6.171398e-02 6.255540e-02 6.218749e-02 6.368464e-02 6.383486e-02 6.590642e-02 6.653392e-02 6.913825e-02 7.024453e-02 7.337703e-02 7.500347e-02 7.868143e-02 8.089470e-02 8.513462e-02 8.800570e-02 9.279962e-02 9.638311e-02 1.016802e-01 1.059985e-01 1.116968e-01 1.167306e-01 1.226795e-01 1.283645e-01 1.343762e-01 1.406034e-01 1.464700e-01 1.530888e-01 1.585996e-01 1.654246e-01 1.703826e-01 1.772018e-01 1.814360e-01 1.880237e-01 1.913967e-01 1.975269e-01 1.999393e-01 2.054001e-01 2.067910e-01 2.113980e-01 2.117445e-01 2.153511e-01 2.146666e-01 2.171727e-01 2.155062e-01 2.168628e-01 2.142997e-01 2.145128e-01 2.111764e-01 2.103094e-01 2.063650e-01 2.045411e-01 2.002012e-01 1.976063e-01 1.931351e-01 
2.033321e-01 1.995468e-01 1.965959e-01 1.933656e-01 1.905574e-01 1.882269e-01 1.859230e-01 1.848022e-01 1.833343e-01 1.836389e-01 1.832517e-01 1.850472e-01 1.858476e-01 1.890205e-01 1.909565e-01 1.952310e-01 1.981099e-01 2.030994e-01 2.066345e-01 2.119059e-01 2.157699e-01 2.208978e-01 2.247672e-01 2.293710e-01 2.329562e-01 2.367200e-01 2.397819e-01 2.424632e-01 2.448201e-01 2.462508e-01 2.477790e-01 2.478626e-01 2.484923e-01 2.471982e-01 2.469069e-01 2.442638e-01 2.430688e-01 2.391565e-01 2.371068e-01 2.320483e-01 2.292161e-01 2.231692e-01 2.196432e-01 2.127913e-01 2.086703e-01 2.012137e-01 1.966016e-01 1.887491e-01 1.837511e-01 1.757119e-01 1.704324e-01 1.624091e-01 1.569508e-01 1.491334e-01 1.435977e-01 1.361595e-01 1.306476e-01 1.237418e-01 1.183565e-01 1.121145e-01 1.069616e-01 1.014917e-01 9.667998e-02 9.206588e-02 8.770376e-02 8.400236e-02 8.019024e-02 7.742719e-02 7.424485e-02 7.241011e-02 6.990192e-02 6.894850e-02 6.711374e-02 6.696485e-02 6.576119e-02 6.632731e-02 6.569002e-02 6.689157e-02 6.676161e-02 6.854868e-02 6.889806e-02 7.125986e-02 7.210476e-02 7.506567e-02 7.646371e-02 8.006633e-02 8.210026e-02 8.637961e-02 8.913354e-02 9.408949e-02 9.762580e-02 1.032022e-01 1.075451e-01 1.136216e-01 1.187490e-01 1.251469e-01 1.309884e-01 1.374869e-01 1.439259e-01 1.502842e-01 1.571614e-01 1.631409e-01 1.702609e-01 1.756447e-01 1.827854e-01 1.873923e-01 1.943171e-01 1.980092e-01 2.044824e-01 2.071675e-01 2.129691e-01 2.145995e-01 2.195398e-01 2.201088e-01 2.240395e-01 2.235780e-01 2.263999e-01 2.249738e-01 2.266421e-01 2.243511e-01 2.248778e-01 2.218568e-01 2.213119e-01 2.177339e-01 2.162464e-01 2.123258e-01 2.100841e-01 2.060800e-01 
2.177972e-01 2.144344e-01 2.118332e-01 2.090260e-01 2.065384e-01 2.045979e-01 2.025571e-01 2.017546e-01 2.004601e-01 2.009776e-01 2.006483e-01 2.025333e-01 2.032661e-01 2.064095e-01 2.081625e-01 2.123103e-01 2.149155e-01 2.197106e-01 2.229113e-01 2.279465e-01 2.314424e-01 2.363103e-01 2.397979e-01 2.441272e-01 2.473302e-01 2.508080e-01 2.534955e-01 2.558793e-01 2.578748e-01 2.589956e-01 2.601785e-01 2.599395e-01 2.602426e-01 2.586142e-01 2.580169e-01 2.550303e-01 2.535510e-01 2.492907e-01 2.469786e-01 2.415739e-01 2.385007e-01 2.321171e-01 2.283700e-01 2.211997e-01 2.168751e-01 2.091280e-01 2.043266e-01 1.962207e-01 1.910443e-01 1.827970e-01 1.773464e-01 1.691667e-01 1.635412e-01 1.556227e-01 1.499210e-01 1.424367e-01 1.367578e-01 1.298564e-01 1.243019e-01 1.181049e-01 1.127794e-01 1.073801e-01 1.023905e-01 9.785238e-02 9.330392e-02 8.966011e-02 8.564765e-02 8.290007e-02 7.949609e-02 7.761579e-02 7.485761e-02 7.378888e-02 7.167174e-02 7.134213e-02 6.982464e-02 7.016100e-02 6.918453e-02 7.013176e-02 6.964790e-02 7.118457e-02 7.118023e-02 7.332576e-02 7.383637e-02 7.664556e-02 7.775113e-02 8.129480e-02 8.310014e-02 8.743483e-02 9.004127e-02 9.517654e-02 9.865576e-02 1.045303e-01 1.089082e-01 1.153825e-01 1.206335e-01 1.274996e-01 1.335480e-01 1.405509e-01 1.472736e-01 1.541394e-01 1.613692e-01 1.678313e-01 1.753624e-01 1.811841e-01 1.887803e-01 1.937700e-01 2.011783e-01 2.051967e-01 2.121641e-01 2.151252e-01 2.214160e-01 2.232841e-01 2.286960e-01 2.294797e-01 2.338569e-01 2.336035e-01 2.368446e-01 2.356357e-01 2.376985e-01 2.356479e-01 2.365502e-01 2.338039e-01 2.336233e-01 2.303614e-01 2.292340e-01 2.256729e-01 2.237917e-01 2.201854e-01 
2.331727e-01 2.302958e-01 2.280459e-01 2.257190e-01 2.235550e-01 2.220550e-01 2.202812e-01 2.198422e-01 2.187271e-01 2.194995e-01 2.192368e-01 2.212514e-01 2.219272e-01 2.250769e-01 2.266556e-01 2.307047e-01 2.330390e-01 2.376559e-01 2.405157e-01 2.453181e-01 2.484292e-01 2.530280e-01 2.561088e-01 2.601441e-01 2.629344e-01 2.660993e-01 2.683801e-01 2.704344e-01 2.720377e-01 2.728136e-01 2.736254e-01 2.730270e-01 2.729846e-01 2.709842e-01 2.700702e-01 2.667019e-01 2.649360e-01 2.602886e-01 2.577197e-01 2.519285e-01 2.486265e-01 2.418642e-01 2.379129e-01 2.303805e-01 2.258715e-01 2.177882e-01 2.128171e-01 2.044099e-01 1.990728e-01 1.905672e-01 1.849596e-01 1.765705e-01 1.707874e-01 1.627112e-01 1.568480e-01 1.492567e-01 1.434107e-01 1.364473e-01 1.307196e-01 1.244949e-01 1.189905e-01 1.135817e-01 1.084080e-01 1.038586e-01 9.912019e-02 9.544076e-02 9.123020e-02 8.840103e-02 8.478664e-02 8.276250e-02 7.977669e-02 7.849509e-02 7.612920e-02 7.552269e-02 7.373400e-02 7.374582e-02 7.247783e-02 7.307822e-02 7.228906e-02 7.348856e-02 7.317745e-02 7.503241e-02 7.525377e-02 7.785909e-02 7.871731e-02 8.218279e-02 8.380738e-02 8.821985e-02 9.073042e-02 9.611286e-02 9.958845e-02 1.058715e-01 1.103348e-01 1.173506e-01 1.227669e-01 1.302647e-01 1.365470e-01 1.442233e-01 1.512376e-01 1.587710e-01 1.663400e-01 1.734249e-01 1.813318e-01 1.877052e-01 1.957020e-01 2.011600e-01 2.089812e-01 2.133863e-01 2.207667e-01 2.240455e-01 2.307393e-01 2.328758e-01 2.386742e-01 2.396997e-01 2.444446e-01 2.444291e-01 2.480207e-01 2.470660e-01 2.494670e-01 2.477031e-01 2.489382e-01 2.465221e-01 2.466764e-01 2.437932e-01 2.430084e-01 2.398735e-01 2.383446e-01 2.352030e-01 