# vtk DataFile Version 2.0
Comment goes here
ASCII

DATASET STRUCTURED_POINTS
FIELD FieldData 1
TIME 1 1 double
0.10000000
DIMENSIONS    128   128   1

ORIGIN    0.000   0.000   0.000
SPACING   0.039062 0.039062   1.000

POINT_DATA   16384
SCALARS uMag double
LOOKUP_TABLE default

2.717936e-01 2.118777e-01 1.567041e-01 9.719223e-02 4.278555e-02 1.573687e-02 6.887481e-02 1.258781e-01 1.773011e-01 2.323102e-01 2.816255e-01 3.342176e-01 3.810832e-01 4.308855e-01 4.750069e-01 5.216946e-01 5.628220e-01 6.061169e-01 6.440419e-01 6.837111e-01 7.182645e-01 7.541195e-01 7.851686e-01 8.170644e-01 8.445102e-01 8.723437e-01 8.961182e-01 9.198260e-01 9.398888e-01 9.594439e-01 9.757782e-01 9.911854e-01 1.003793e+00 1.015084e+00 1.023981e+00 1.031205e+00 1.036418e+00 1.039638e+00 1.041196e+00 1.040478e+00 1.038409e+00 1.033819e+00 1.028147e+00 1.019744e+00 1.010484e+00 9.983133e-01 9.854747e-01 9.695689e-01 9.531508e-01 9.335296e-01 9.135267e-01 8.901994e-01 8.666053e-01 8.395758e-01 8.123896e-01 7.816640e-01 7.508981e-01 7.164937e-01 6.821827e-01 6.441382e-01 6.063486e-01 5.647355e-01 5.235754e-01 4.785090e-01 4.341378e-01 3.857879e-01 3.384249e-01 2.870255e-01 2.369568e-01 1.828143e-01 1.303981e-01 7.389712e-02 1.956682e-02 3.882597e-02 9.456150e-02 1.542968e-01 2.108555e-01 2.713033e-01 3.280354e-01 3.884907e-01 4.446864e-01 5.043781e-01 5.592794e-01 6.173826e-01 6.701969e-01 7.258491e-01 7.757668e-01 8.280873e-01 8.743007e-01 9.224138e-01 9.641390e-01 1.007199e+00 1.043699e+00 1.080917e+00 1.111525e+00 1.142196e+00 1.166341e+00 1.189872e+00 1.207094e+00 1.223025e+00 1.233000e+00 1.241023e+00 1.243573e+00 1.243545e+00 1.238644e+00 1.230595e+00 1.218371e+00 1.202495e+00 1.183225e+00 1.159877e+00 1.133972e+00 1.103645e+00 1.071635e+00 1.034940e+00 9.974491e-01 9.550920e-01 9.128143e-01 8.655628e-01 8.192394e-01 7.678996e-01 7.182926e-01 6.636833e-01 6.115544e-01 5.544853e-01 5.005774e-01 4.418318e-01 3.868542e-01 3.271759e-01 
2.791973e-01 2.208283e-01 1.681456e-01 1.137799e-01 7.166162e-02 5.766872e-02 8.715489e-02 1.358807e-01 1.838645e-01 2.368561e-01 2.849321e-01 3.366570e-01 3.828856e-01 4.322137e-01 4.759520e-01 5.223463e-01 5.632275e-01 6.063283e-01 6.440945e-01 6.836315e-01 7.180890e-01 7.538540e-01 7.848560e-01 8.166927e-01 8.441317e-01 8.719298e-01 8.957315e-01 9.194228e-01 9.395418e-01 9.590957e-01 9.755110e-01 9.909296e-01 1.003639e+00 1.014951e+00 1.023969e+00 1.031223e+00 1.036570e+00 1.039826e+00 1.041530e+00 1.040855e+00 1.038942e+00 1.034400e+00 1.028891e+00 1.020540e+00 1.011451e+00 9.993366e-01 9.866741e-01 9.708296e-01 9.545942e-01 9.350394e-01 9.152266e-01 8.919722e-01 8.685775e-01 8.416298e-01 8.146554e-01 7.840242e-01 7.534872e-01 7.191962e-01 6.851392e-01 6.472378e-01 6.097405e-01 5.683190e-01 5.275139e-01 4.827235e-01 4.388192e-01 3.909066e-01 3.442360e-01 2.936326e-01 2.448135e-01 1.925090e-01 1.433583e-01 9.407886e-02 6.040000e-02 6.788738e-02 1.090496e-01 1.630738e-01 2.169731e-01 2.757976e-01 3.314999e-01 3.912335e-01 4.468983e-01 5.062024e-01 5.607954e-01 6.186709e-01 6.713013e-01 7.268145e-01 7.766292e-01 8.288648e-01 8.750337e-01 9.230966e-01 9.648229e-01 1.007855e+00 1.044394e+00 1.081599e+00 1.112277e+00 1.142945e+00 1.167185e+00 1.190718e+00 1.208058e+00 1.223993e+00 1.234104e+00 1.242132e+00 1.244833e+00 1.244811e+00 1.240072e+00 1.232029e+00 1.219978e+00 1.204109e+00 1.185021e+00 1.161683e+00 1.135969e+00 1.105658e+00 1.073848e+00 1.037181e+00 9.999015e-01 9.575883e-01 9.155378e-01 8.683545e-01 8.222808e-01 7.710452e-01 7.217220e-01 6.672712e-01 6.154812e-01 5.586578e-01 5.051845e-01 4.468386e-01 3.924827e-01 3.335195e-01 
2.952604e-01 2.408610e-01 1.937260e-01 1.491930e-01 1.203790e-01 1.129841e-01 1.307766e-01 1.675577e-01 2.085602e-01 2.567332e-01 3.017908e-01 3.512211e-01 3.958408e-01 4.438731e-01 4.866156e-01 5.321907e-01 5.723863e-01 6.149262e-01 6.521801e-01 6.913081e-01 7.253565e-01 7.608068e-01 7.914643e-01 8.230470e-01 8.501832e-01 8.777679e-01 9.012952e-01 9.248012e-01 9.446664e-01 9.640560e-01 9.802342e-01 9.955058e-01 1.007994e+00 1.019175e+00 1.027986e+00 1.035126e+00 1.040283e+00 1.043445e+00 1.044978e+00 1.044230e+00 1.042166e+00 1.037576e+00 1.031940e+00 1.023569e+00 1.014379e+00 1.002277e+00 9.895429e-01 9.737455e-01 9.574714e-01 9.380035e-01 9.181888e-01 8.950664e-01 8.717127e-01 8.449493e-01 8.180677e-01 7.876843e-01 7.573063e-01 7.233438e-01 6.895350e-01 6.520724e-01 6.149519e-01 5.741316e-01 5.339031e-01 4.899756e-01 4.469867e-01 4.004072e-01 3.552982e-01 3.070012e-01 2.611955e-01 2.136533e-01 1.715737e-01 1.343254e-01 1.147778e-01 1.202108e-01 1.486527e-01 1.926835e-01 2.408285e-01 2.955125e-01 3.486488e-01 4.063076e-01 4.605882e-01 5.186900e-01 5.724309e-01 6.295472e-01 6.815997e-01 7.366095e-01 7.860002e-01 8.378936e-01 8.837296e-01 9.315578e-01 9.730067e-01 1.015878e+00 1.052174e+00 1.089270e+00 1.119726e+00 1.150321e+00 1.174353e+00 1.197837e+00 1.214979e+00 1.230881e+00 1.240803e+00 1.248809e+00 1.251328e+00 1.251293e+00 1.246384e+00 1.238335e+00 1.226129e+00 1.210264e+00 1.191041e+00 1.167722e+00 1.141900e+00 1.111630e+00 1.079748e+00 1.043155e+00 1.005850e+00 9.636592e-01 9.216467e-01 8.746545e-01 8.287054e-01 7.777614e-01 7.286857e-01 6.746786e-01 6.233209e-01 5.671849e-01 5.144448e-01 4.572121e-01 4.041374e-01 3.471322e-01 
3.236795e-01 2.742271e-01 2.332493e-01 1.968327e-01 1.749911e-01 1.688603e-01 1.801611e-01 2.074975e-01 2.409392e-01 2.830141e-01 3.237510e-01 3.697737e-01 4.118346e-01 4.578125e-01 4.989074e-01 5.431461e-01 5.822113e-01 6.238308e-01 6.602770e-01 6.987443e-01 7.322031e-01 7.671650e-01 7.973907e-01 8.286049e-01 8.554296e-01 8.827326e-01 9.060442e-01 9.293341e-01 9.490623e-01 9.682875e-01 9.843949e-01 9.995446e-01 1.012019e+00 1.023115e+00 1.031963e+00 1.039052e+00 1.044292e+00 1.047436e+00 1.049092e+00 1.048359e+00 1.046458e+00 1.041919e+00 1.036485e+00 1.028200e+00 1.019251e+00 1.007275e+00 9.948230e-01 9.791958e-01 9.632479e-01 9.439995e-01 9.245615e-01 9.017154e-01 8.787982e-01 8.523793e-01 8.260083e-01 7.960550e-01 7.662838e-01 7.328648e-01 6.997944e-01 6.630342e-01 6.268427e-01 5.869623e-01 5.479554e-01 5.053475e-01 4.640625e-01 4.194583e-01 3.769143e-01 3.318249e-01 2.902466e-01 2.483396e-01 2.135022e-01 1.848718e-01 1.714519e-01 1.750913e-01 1.958783e-01 2.310673e-01 2.726106e-01 3.219707e-01 3.714138e-01 4.260714e-01 4.781864e-01 5.344821e-01 5.868616e-01 6.428307e-01 6.939863e-01 7.482444e-01 7.970305e-01 8.484260e-01 8.938552e-01 9.413558e-01 9.825394e-01 1.025201e+00 1.061337e+00 1.098303e+00 1.128682e+00 1.159201e+00 1.183221e+00 1.206664e+00 1.223847e+00 1.239730e+00 1.249737e+00 1.257735e+00 1.260379e+00 1.260343e+00 1.255594e+00 1.247551e+00 1.235539e+00 1.219693e+00 1.200700e+00 1.177420e+00 1.151871e+00 1.121675e+00 1.090118e+00 1.053651e+00 1.016739e+00 9.747508e-01 9.332220e-01 8.865445e-01 8.412031e-01 7.907364e-01 7.424456e-01 6.891569e-01 6.388498e-01 5.838055e-01 5.325406e-01 4.770171e-01 4.261512e-01 3.719647e-01 
3.572814e-01 3.129068e-01 2.774215e-01 2.473657e-01 2.301078e-01 2.253442e-01 2.337175e-01 2.553383e-01 2.830166e-01 3.196057e-01 3.560364e-01 3.983726e-01 4.375538e-01 4.811080e-01 5.202213e-01 5.628066e-01 6.004383e-01 6.408790e-01 6.762371e-01 7.138284e-01 7.464260e-01 7.807113e-01 8.102310e-01 8.409037e-01 8.671331e-01 8.939890e-01 9.167880e-01 9.396992e-01 9.589801e-01 9.778791e-01 9.935940e-01 1.008462e+00 1.020593e+00 1.031448e+00 1.039999e+00 1.046888e+00 1.051878e+00 1.054865e+00 1.056320e+00 1.055480e+00 1.053429e+00 1.048836e+00 1.043307e+00 1.035030e+00 1.026045e+00 1.014144e+00 1.001720e+00 9.862431e-01 9.703945e-01 9.513797e-01 9.321205e-01 9.096026e-01 8.869562e-01 8.609751e-01 8.349856e-01 8.056022e-01 7.763522e-01 7.436702e-01 7.113064e-01 6.755072e-01 6.402817e-01 6.016813e-01 5.640244e-01 5.231801e-01 4.838444e-01 4.417803e-01 4.021644e-01 3.609031e-01 3.238391e-01 2.877030e-01 2.592455e-01 2.372349e-01 2.281712e-01 2.319822e-01 2.492537e-01 2.786909e-01 3.149996e-01 3.593423e-01 4.050479e-01 4.563461e-01 5.060042e-01 5.600903e-01 6.108126e-01 6.652994e-01 7.152876e-01 7.685346e-01 8.164621e-01 8.671633e-01 9.119348e-01 9.589605e-01 9.996213e-01 1.041962e+00 1.077668e+00 1.114422e+00 1.144437e+00 1.174818e+00 1.198522e+00 1.221877e+00 1.238781e+00 1.254607e+00 1.264368e+00 1.272329e+00 1.274757e+00 1.274697e+00 1.269764e+00 1.261711e+00 1.249553e+00 1.233716e+00 1.214625e+00 1.191383e+00 1.165796e+00 1.135686e+00 1.104167e+00 1.067858e+00 1.031085e+00 9.893592e-01 9.481005e-01 9.018344e-01 8.569404e-01 8.070972e-01 7.594991e-01 7.071419e-01 6.578804e-01 6.042301e-01 5.545436e-01 5.011385e-01 4.526942e-01 4.017980e-01 
3.993881e-01 3.593599e-01 3.281769e-01 3.022125e-01 2.873226e-01 2.825203e-01 2.882307e-01 3.051317e-01 3.276875e-01 3.590285e-01 3.909669e-01 4.292840e-01 4.651415e-01 5.058441e-01 5.425483e-01 5.831048e-01 6.189629e-01 6.579287e-01 6.919555e-01 7.284483e-01 7.600329e-01 7.934822e-01 8.222268e-01 8.522517e-01 8.778910e-01 9.042378e-01 9.265954e-01 9.491031e-01 9.680658e-01 9.866451e-01 1.002147e+00 1.016764e+00 1.028774e+00 1.039440e+00 1.047951e+00 1.054710e+00 1.059734e+00 1.062649e+00 1.064209e+00 1.063356e+00 1.061478e+00 1.056935e+00 1.051647e+00 1.043489e+00 1.034814e+00 1.023106e+00 1.011066e+00 9.958637e-01 9.804783e-01 9.618290e-01 9.431227e-01 9.210732e-01 8.990839e-01 8.736915e-01 8.484853e-01 8.198367e-01 7.915287e-01 7.597670e-01 7.285540e-01 6.939220e-01 6.601333e-01 6.230443e-01 5.872306e-01 5.483960e-01 5.114961e-01 4.721757e-01 4.358522e-01 3.983647e-01 3.656743e-01 3.343577e-01 3.107916e-01 2.929463e-01 2.862323e-01 2.895396e-01 3.040648e-01 3.288863e-01 3.605935e-01 4.001778e-01 4.420335e-01 4.897557e-01 5.366435e-01 5.882288e-01 6.370051e-01 6.897639e-01 7.383780e-01 7.904335e-01 8.373844e-01 8.872701e-01 9.313490e-01 9.778262e-01 1.018004e+00 1.059986e+00 1.095368e+00 1.131898e+00 1.161712e+00 1.191961e+00 1.215562e+00 1.238845e+00 1.255727e+00 1.271516e+00 1.281322e+00 1.289266e+00 1.291797e+00 1.291732e+00 1.286958e+00 1.278910e+00 1.266966e+00 1.251152e+00 1.232335e+00 1.209150e+00 1.183907e+00 1.153909e+00 1.122822e+00 1.086711e+00 1.050482e+00 1.009079e+00 9.685115e-01 9.227462e-01 8.787389e-01 8.296464e-01 7.832007e-01 7.319451e-01 6.842059e-01 6.321558e-01 5.845172e-01 5.334258e-01 4.877724e-01 4.401722e-01 
4.437970e-01 4.076664e-01 3.800083e-01 3.574039e-01 3.444556e-01 3.401280e-01 3.444614e-01 3.584904e-01 3.774874e-01 4.048423e-01 4.330643e-01 4.678498e-01 5.006232e-01 5.385822e-01 5.728741e-01 6.113626e-01 6.453369e-01 6.827348e-01 7.152649e-01 7.505460e-01 7.809147e-01 8.134040e-01 8.411396e-01 8.703835e-01 8.951702e-01 9.208652e-01 9.424926e-01 9.644450e-01 9.827779e-01 1.000878e+00 1.015836e+00 1.030039e+00 1.041584e+00 1.051897e+00 1.060019e+00 1.066486e+00 1.071197e+00 1.073888e+00 1.075211e+00 1.074209e+00 1.072175e+00 1.067567e+00 1.062208e+00 1.054077e+00 1.045424e+00 1.033845e+00 1.021924e+00 1.006965e+00 9.918056e-01 9.735243e-01 9.551622e-01 9.336201e-01 9.121095e-01 8.873831e-01 8.628140e-01 8.350173e-01 8.075403e-01 7.768578e-01 7.467228e-01 7.134599e-01 6.810759e-01 6.457407e-01 6.117758e-01 5.752194e-01 5.407765e-01 5.044427e-01 4.713704e-01 4.377322e-01 4.091261e-01 3.822944e-01 3.629614e-01 3.487988e-01 3.444047e-01 3.481865e-01 3.615873e-01 3.836815e-01 4.123165e-01 4.482575e-01 4.869819e-01 5.315183e-01 5.758653e-01 6.250060e-01 6.718452e-01 7.228115e-01 7.699593e-01 8.207272e-01 8.665537e-01 9.155297e-01 9.587287e-01 1.004576e+00 1.044049e+00 1.085607e+00 1.120411e+00 1.156663e+00 1.185995e+00 1.216067e+00 1.239258e+00 1.262430e+00 1.278960e+00 1.294677e+00 1.304180e+00 1.312074e+00 1.314351e+00 1.314249e+00 1.309270e+00 1.301198e+00 1.289106e+00 1.273291e+00 1.254395e+00 1.231249e+00 1.206013e+00 1.176119e+00 1.145149e+00 1.109242e+00 1.073269e+00 1.032217e+00 9.920841e-01 9.468717e-01 9.035319e-01 8.552700e-01 8.097975e-01 7.597506e-01 7.133911e-01 6.630634e-01 6.173449e-01 5.686594e-01 5.256149e-01 4.812482e-01 
4.943991e-01 4.612507e-01 4.361742e-01 4.156087e-01 4.035795e-01 3.988935e-01 4.015771e-01 4.127567e-01 4.283461e-01 4.518370e-01 4.763323e-01 5.074816e-01 5.369705e-01 5.719452e-01 6.035599e-01 6.397122e-01 6.715564e-01 7.071447e-01 7.379879e-01 7.718614e-01 8.008942e-01 8.322777e-01 8.589572e-01 8.873222e-01 9.112799e-01 9.362688e-01 9.572555e-01 9.786364e-01 9.964881e-01 1.014125e+00 1.028740e+00 1.042572e+00 1.053896e+00 1.063921e+00 1.071931e+00 1.078190e+00 1.082892e+00 1.085455e+00 1.086866e+00 1.085820e+00 1.083969e+00 1.079407e+00 1.074326e+00 1.066341e+00 1.058062e+00 1.046737e+00 1.035294e+00 1.020705e+00 1.006134e+00 9.883517e-01 9.707009e-01 9.498007e-01 9.291417e-01 9.052193e-01 8.816662e-01 8.548629e-01 8.286010e-01 7.991401e-01 7.704683e-01 7.387112e-01 7.081063e-01 6.746385e-01 6.428577e-01 6.086279e-01 5.768725e-01 5.434158e-01 5.135859e-01 4.833509e-01 4.583649e-01 4.350334e-01 4.189311e-01 4.071663e-01 4.041892e-01 4.078549e-01 4.200896e-01 4.396878e-01 4.655529e-01 4.981101e-01 5.338243e-01 5.752103e-01 6.169637e-01 6.635643e-01 7.083567e-01 7.574010e-01 8.029885e-01 8.523529e-01 8.970096e-01 9.449907e-01 9.873248e-01 1.032491e+00 1.071337e+00 1.112447e+00 1.146813e+00 1.182788e+00 1.211830e+00 1.241744e+00 1.264767e+00 1.287855e+00 1.304317e+00 1.319995e+00 1.329514e+00 1.337389e+00 1.339755e+00 1.339643e+00 1.334823e+00 1.326749e+00 1.314885e+00 1.299085e+00 1.280493e+00 1.257398e+00 1.232557e+00 1.202782e+00 1.172317e+00 1.136635e+00 1.101307e+00 1.060633e+00 1.021323e+00 9.767053e-01 9.344146e-01 8.870343e-01 8.429000e-01 7.941096e-01 7.494527e-01 7.008553e-01 6.572812e-01 6.108852e-01 5.704591e-01 5.289187e-01 
5.458388e-01 5.153598e-01 4.924390e-01 4.737540e-01 4.626432e-01 4.580945e-01 4.598593e-01 4.692917e-01 4.825147e-01 5.032161e-01 5.248052e-01 5.530345e-01 5.797213e-01 6.121073e-01 6.412722e-01 6.752810e-01 7.050577e-01 7.389109e-01 7.680214e-01 8.004901e-01 8.280633e-01 8.582954e-01 8.837336e-01 9.111373e-01 9.340293e-01 9.581993e-01 9.782651e-01 9.989361e-01 1.015990e+00 1.033006e+00 1.046934e+00 1.060222e+00 1.070961e+00 1.080518e+00 1.088045e+00 1.093915e+00 1.098234e+00 1.100496e+00 1.101629e+00 1.100381e+00 1.098361e+00 1.093710e+00 1.088575e+00 1.080625e+00 1.072414e+00 1.061262e+00 1.050017e+00 1.035751e+00 1.021517e+00 1.004221e+00 9.870603e-01 9.668249e-01 9.468244e-01 9.237641e-01 9.010621e-01 8.753439e-01 8.501593e-01 8.220424e-01 7.947208e-01 7.646166e-01 7.356972e-01 7.042565e-01 6.745724e-01 6.428170e-01 6.136409e-01 5.831516e-01 5.563892e-01 5.295321e-01 5.078959e-01 4.879390e-01 4.748404e-01 4.655466e-01 4.642402e-01 4.685143e-01 4.805195e-01 4.988156e-01 5.230238e-01 5.532476e-01 5.867780e-01 6.256801e-01 6.653217e-01 7.097394e-01 7.527176e-01 8.000118e-01 8.441106e-01 8.921457e-01 9.355967e-01 9.826087e-01 1.023963e+00 1.068450e+00 1.106492e+00 1.147147e+00 1.180843e+00 1.216526e+00 1.245002e+00 1.274736e+00 1.297277e+00 1.320256e+00 1.336303e+00 1.351908e+00 1.361072e+00 1.368890e+00 1.370960e+00 1.370793e+00 1.365738e+00 1.357615e+00 1.345585e+00 1.329752e+00 1.311079e+00 1.287993e+00 1.263173e+00 1.233480e+00 1.203165e+00 1.167682e+00 1.132665e+00 1.092358e+00 1.053560e+00 1.009536e+00 9.680079e-01 9.215191e-01 8.784546e-01 8.309300e-01 7.877133e-01 7.408324e-01 6.991200e-01 6.549345e-01 6.167805e-01 5.778677e-01 
6.024914e-01 5.739122e-01 5.525021e-01 5.348181e-01 5.239903e-01 5.189249e-01 5.194128e-01 5.268053e-01 5.375323e-01 5.553122e-01 5.738886e-01 5.990399e-01 6.227569e-01 6.523387e-01 6.788476e-01 7.104751e-01 7.379851e-01 7.698795e-01 7.970988e-01 8.279750e-01 8.539903e-01 8.829287e-01 9.070966e-01 9.334444e-01 9.553132e-01 9.786156e-01 9.978717e-01 1.017826e+00 1.034257e+00 1.050680e+00 1.064149e+00 1.076953e+00 1.087381e+00 1.096552e+00 1.103903e+00 1.109485e+00 1.113755e+00 1.115829e+00 1.117033e+00 1.115706e+00 1.113876e+00 1.109262e+00 1.104436e+00 1.096651e+00 1.088872e+00 1.078024e+00 1.067338e+00 1.053527e+00 1.039991e+00 1.023313e+00 1.006999e+00 9.875575e-01 9.685719e-01 9.464986e-01 9.250007e-01 9.004850e-01 8.767230e-01 8.500534e-01 8.244099e-01 7.960339e-01 7.690916e-01 7.397001e-01 7.123324e-01 6.829753e-01 6.564662e-01 6.286995e-01 6.048763e-01 5.809013e-01 5.622016e-01 5.448614e-01 5.341383e-01 5.265011e-01 5.263203e-01 5.306908e-01 5.422630e-01 5.591357e-01 5.817274e-01 6.096539e-01 6.410683e-01 6.774952e-01 7.150388e-01 7.572214e-01 7.983645e-01 8.438252e-01 8.864182e-01 9.330406e-01 9.753011e-01 1.021279e+00 1.061719e+00 1.105489e+00 1.142846e+00 1.183036e+00 1.216239e+00 1.251646e+00 1.279789e+00 1.309377e+00 1.331716e+00 1.354630e+00 1.370585e+00 1.386167e+00 1.395333e+00 1.403140e+00 1.405292e+00 1.405112e+00 1.400214e+00 1.392071e+00 1.380276e+00 1.364428e+00 1.346072e+00 1.323001e+00 1.298595e+00 1.268983e+00 1.239202e+00 1.203912e+00 1.169575e+00 1.129627e+00 1.091691e+00 1.048250e+00 1.007805e+00 9.621826e-01 9.204651e-01 8.741469e-01 8.325714e-01 7.872726e-01 7.474941e-01 7.052420e-01 6.692277e-01 6.324367e-01 
6.593248e-01 6.325094e-01 6.123915e-01 5.957808e-01 5.853436e-01 5.802213e-01 5.799451e-01 5.860979e-01 5.950735e-01 6.108099e-01 6.270891e-01 6.499001e-01 6.711912e-01 6.985019e-01 7.227070e-01 7.523066e-01 7.777381e-01 8.078909e-01 8.332769e-01 8.626764e-01 8.870859e-01 9.147685e-01 9.375300e-01 9.627961e-01 9.834308e-01 1.005786e+00 1.023958e+00 1.043071e+00 1.058553e+00 1.074223e+00 1.086867e+00 1.098999e+00 1.108724e+00 1.117307e+00 1.124076e+00 1.129161e+00 1.132972e+00 1.134657e+00 1.135532e+00 1.133937e+00 1.131914e+00 1.127173e+00 1.122298e+00 1.114542e+00 1.106866e+00 1.096219e+00 1.085797e+00 1.072374e+00 1.059271e+00 1.043179e+00 1.027480e+00 1.008838e+00 9.906614e-01 9.696151e-01 9.491412e-01 9.258978e-01 9.034001e-01 8.782712e-01 8.541644e-01 8.276253e-01 8.025280e-01 7.752969e-01 7.501124e-01 7.232499e-01 6.992610e-01 6.742800e-01 6.532309e-01 6.321703e-01 6.162603e-01 6.016076e-01 5.932553e-01 5.875518e-01 5.888141e-01 5.939111e-01 6.057312e-01 6.220783e-01 6.438963e-01 6.704319e-01 7.004896e-01 7.351717e-01 7.711794e-01 8.116447e-01 8.513134e-01 8.952857e-01 9.365668e-01 9.820013e-01 1.023134e+00 1.068225e+00 1.107704e+00 1.150853e+00 1.187394e+00 1.227177e+00 1.259680e+00 1.294842e+00 1.322379e+00 1.351831e+00 1.373640e+00 1.396479e+00 1.411972e+00 1.427501e+00 1.436265e+00 1.444014e+00 1.445825e+00 1.445569e+00 1.440394e+00 1.432160e+00 1.420161e+00 1.404224e+00 1.385753e+00 1.362623e+00 1.338211e+00 1.308611e+00 1.278959e+00 1.243799e+00 1.209757e+00 1.170112e+00 1.132671e+00 1.089762e+00 1.050050e+00 1.005244e+00 9.645310e-01 9.193586e-01 8.790812e-01 8.352770e-01 7.970764e-01 7.566273e-01 7.223798e-01 6.875419e-01 
7.211076e-01 6.954174e-01 6.761245e-01 6.599054e-01 6.493860e-01 6.436238e-01 6.422153e-01 6.467099e-01 6.536755e-01 6.670619e-01 6.808302e-01 7.010274e-01 7.196776e-01 7.444431e-01 7.661263e-01 7.934289e-01 8.165831e-01 8.447490e-01 8.681461e-01 8.958639e-01 9.185745e-01 9.448461e-01 9.661817e-01 9.902651e-01 1.009724e+00 1.031084e+00 1.048306e+00 1.066580e+00 1.081316e+00 1.096276e+00 1.108361e+00 1.119900e+00 1.129234e+00 1.137333e+00 1.143867e+00 1.148581e+00 1.152304e+00 1.153734e+00 1.154663e+00 1.152943e+00 1.151113e+00 1.146388e+00 1.141846e+00 1.134263e+00 1.127065e+00 1.116761e+00 1.106968e+00 1.094069e+00 1.081756e+00 1.066383e+00 1.051645e+00 1.033926e+00 1.016898e+00 9.969919e-01 9.778690e-01 9.559955e-01 9.350719e-01 9.115564e-01 8.892676e-01 8.645978e-01 8.415784e-01 8.164754e-01 7.936279e-01 7.691278e-01 7.476915e-01 7.252230e-01 7.068170e-01 6.882288e-01 6.748033e-01 6.622572e-01 6.558628e-01 6.514940e-01 6.538214e-01 6.591834e-01 6.710239e-01 6.865803e-01 7.075421e-01 7.325519e-01 7.612387e-01 7.940822e-01 8.285536e-01 8.672065e-01 9.054045e-01 9.477897e-01 9.877802e-01 1.031938e+00 1.071998e+00 1.116136e+00 1.154761e+00 1.197253e+00 1.233137e+00 1.272513e+00 1.304535e+00 1.339481e+00 1.366689e+00 1.396057e+00 1.417667e+00 1.440497e+00 1.455901e+00 1.471448e+00 1.480216e+00 1.487975e+00 1.489871e+00 1.489595e+00 1.484578e+00 1.476290e+00 1.464520e+00 1.448510e+00 1.430345e+00 1.407152e+00 1.383137e+00 1.353527e+00 1.324381e+00 1.289316e+00 1.255916e+00 1.216523e+00 1.179890e+00 1.137446e+00 1.098733e+00 1.054648e+00 1.015145e+00 9.709765e-01 9.321155e-01 8.895839e-01 8.529563e-01 8.139670e-01 7.813204e-01 7.479378e-01 
7.827842e-01 7.582007e-01 7.396134e-01 7.239573e-01 7.134868e-01 7.075183e-01 7.053789e-01 7.088770e-01 7.144144e-01 7.262089e-01 7.380848e-01 7.563865e-01 7.729391e-01 7.957606e-01 8.153372e-01 8.408068e-01 8.619593e-01 8.884732e-01 9.100236e-01 9.362809e-01 9.573127e-01 9.822950e-01 1.002114e+00 1.025048e+00 1.043142e+00 1.063464e+00 1.079462e+00 1.096784e+00 1.110430e+00 1.124515e+00 1.135641e+00 1.146378e+00 1.154886e+00 1.162267e+00 1.168112e+00 1.172207e+00 1.175386e+00 1.176318e+00 1.176856e+00 1.174783e+00 1.172724e+00 1.167816e+00 1.163217e+00 1.155640e+00 1.148565e+00 1.138476e+00 1.128996e+00 1.116535e+00 1.104733e+00 1.090033e+00 1.076013e+00 1.059210e+00 1.043116e+00 1.024377e+00 1.006418e+00 9.859699e-01 9.664531e-01 9.446277e-01 9.240037e-01 9.012932e-01 8.802071e-01 8.573266e-01 8.366754e-01 8.146299e-01 7.956112e-01 7.757465e-01 7.598710e-01 7.438698e-01 7.328855e-01 7.226449e-01 7.183148e-01 7.156517e-01 7.193792e-01 7.256023e-01 7.380289e-01 7.535659e-01 7.743663e-01 7.986671e-01 8.266678e-01 8.584143e-01 8.919264e-01 9.293749e-01 9.665318e-01 1.007800e+00 1.046780e+00 1.090015e+00 1.129145e+00 1.172593e+00 1.210381e+00 1.252408e+00 1.287547e+00 1.326650e+00 1.358004e+00 1.392821e+00 1.419427e+00 1.448757e+00 1.469823e+00 1.492652e+00 1.507563e+00 1.523102e+00 1.531428e+00 1.539138e+00 1.540644e+00 1.540266e+00 1.534917e+00 1.526477e+00 1.514443e+00 1.498251e+00 1.479906e+00 1.456539e+00 1.432445e+00 1.402717e+00 1.373619e+00 1.338544e+00 1.305347e+00 1.266110e+00 1.229861e+00 1.187787e+00 1.149666e+00 1.106207e+00 1.067515e+00 1.024247e+00 9.864103e-01 9.450351e-01 9.095978e-01 8.719425e-01 8.405413e-01 8.085073e-01 
8.495125e-01 8.254785e-01 8.072308e-01 7.915485e-01 7.807358e-01 7.740061e-01 7.707719e-01 7.727892e-01 7.765767e-01 7.863578e-01 7.960475e-01 8.120688e-01 8.262436e-01 8.467586e-01 8.639645e-01 8.872641e-01 9.061830e-01 9.307459e-01 9.502711e-01 9.748207e-01 9.940665e-01 1.017574e+00 1.035855e+00 1.057520e+00 1.074317e+00 1.093546e+00 1.108478e+00 1.124855e+00 1.137651e+00 1.150919e+00 1.161395e+00 1.171432e+00 1.179477e+00 1.186272e+00 1.191827e+00 1.195455e+00 1.198509e+00 1.199107e+00 1.199677e+00 1.197418e+00 1.195548e+00 1.190620e+00 1.186369e+00 1.178957e+00 1.172394e+00 1.162670e+00 1.153873e+00 1.141993e+00 1.131054e+00 1.117158e+00 1.104192e+00 1.088426e+00 1.073586e+00 1.056119e+00 1.039626e+00 1.020687e+00 1.002857e+00 9.827756e-01 9.640639e-01 9.433225e-01 9.243680e-01 9.036557e-01 8.853265e-01 8.655928e-01 8.490180e-01 8.315034e-01 8.180651e-01 8.042798e-01 7.955277e-01 7.871314e-01 7.845851e-01 7.831435e-01 7.879927e-01 7.946474e-01 8.074462e-01 8.226303e-01 8.431364e-01 8.664789e-01 8.937224e-01 9.241731e-01 9.566935e-01 9.927653e-01 1.028879e+00 1.068880e+00 1.106882e+00 1.149069e+00 1.187349e+00 1.230016e+00 1.267105e+00 1.308619e+00 1.343211e+00 1.382039e+00 1.412990e+00 1.447718e+00 1.474053e+00 1.503415e+00 1.524327e+00 1.547248e+00 1.562104e+00 1.577734e+00 1.586088e+00 1.593845e+00 1.595448e+00 1.595043e+00 1.589849e+00 1.581304e+00 1.569480e+00 1.553122e+00 1.535041e+00 1.511483e+00 1.487722e+00 1.457827e+00 1.429147e+00 1.393988e+00 1.361316e+00 1.322137e+00 1.286545e+00 1.244719e+00 1.207404e+00 1.164414e+00 1.126682e+00 1.084108e+00 1.047359e+00 1.006864e+00 9.725751e-01 9.358854e-01 9.055670e-01 8.744098e-01 
9.160101e-01 8.925750e-01 8.745884e-01 8.590952e-01 8.480664e-01 8.409914e-01 8.369966e-01 8.381264e-01 8.406522e-01 8.491147e-01 8.571719e-01 8.716193e-01 8.839501e-01 9.028071e-01 9.180969e-01 9.397784e-01 9.568058e-01 9.798569e-01 9.975713e-01 1.020735e+00 1.038278e+00 1.060517e+00 1.077211e+00 1.097703e+00 1.113033e+00 1.131159e+00 1.144744e+00 1.160074e+00 1.171646e+00 1.183916e+00 1.193298e+00 1.202394e+00 1.209482e+00 1.215411e+00 1.220159e+00 1.223023e+00 1.225430e+00 1.225398e+00 1.225498e+00 1.222776e+00 1.220625e+00 1.215432e+00 1.211100e+00 1.203650e+00 1.197217e+00 1.187704e+00 1.179256e+00 1.167849e+00 1.157485e+00 1.144335e+00 1.132175e+00 1.117429e+00 1.103632e+00 1.087458e+00 1.072247e+00 1.054868e+00 1.038562e+00 1.020299e+00 1.003351e+00 9.846681e-01 9.677083e-01 9.492647e-01 9.331330e-01 9.158235e-01 9.015901e-01 8.865616e-01 8.755034e-01 8.641208e-01 8.576302e-01 8.513611e-01 8.507654e-01 8.509724e-01 8.572853e-01 8.649633e-01 8.786443e-01 8.941989e-01 9.150275e-01 9.381914e-01 9.653138e-01 9.952236e-01 1.027331e+00 1.062701e+00 1.098245e+00 1.137550e+00 1.174919e+00 1.216528e+00 1.254167e+00 1.296430e+00 1.332896e+00 1.374192e+00 1.408186e+00 1.446959e+00 1.477339e+00 1.512130e+00 1.537917e+00 1.567403e+00 1.587789e+00 1.610832e+00 1.625187e+00 1.640885e+00 1.648765e+00 1.656497e+00 1.657658e+00 1.657118e+00 1.651523e+00 1.642738e+00 1.630563e+00 1.613889e+00 1.595522e+00 1.571617e+00 1.547653e+00 1.517439e+00 1.488661e+00 1.453274e+00 1.420632e+00 1.381373e+00 1.345961e+00 1.304252e+00 1.267283e+00 1.224637e+00 1.187419e+00 1.145414e+00 1.109328e+00 1.069590e+00 1.036057e+00 1.000226e+00 9.706538e-01 9.403179e-01 
9.878555e-01 9.645073e-01 9.464762e-01 9.306272e-01 9.190381e-01 9.110708e-01 9.059586e-01 9.056727e-01 9.065809e-01 9.132207e-01 9.192933e-01 9.316844e-01 9.418272e-01 9.585677e-01 9.716166e-01 9.912551e-01 1.006105e+00 1.027269e+00 1.042949e+00 1.064416e+00 1.080116e+00 1.100852e+00 1.115921e+00 1.135089e+00 1.149022e+00 1.165979e+00 1.178398e+00 1.192690e+00 1.203319e+00 1.214668e+00 1.223319e+00 1.231603e+00 1.238159e+00 1.243388e+00 1.247791e+00 1.250078e+00 1.252319e+00 1.251851e+00 1.251956e+00 1.248965e+00 1.246989e+00 1.241718e+00 1.237735e+00 1.230422e+00 1.224518e+00 1.215377e+00 1.207648e+00 1.196863e+00 1.187417e+00 1.175146e+00 1.164113e+00 1.150504e+00 1.138049e+00 1.123268e+00 1.109619e+00 1.093877e+00 1.079352e+00 1.062953e+00 1.047996e+00 1.031376e+00 1.016594e+00 1.000367e+00 9.865554e-01 9.715442e-01 9.596974e-01 9.469414e-01 9.382197e-01 9.289363e-01 9.245787e-01 9.200603e-01 9.212272e-01 9.226696e-01 9.302389e-01 9.385327e-01 9.529075e-01 9.684603e-01 9.894634e-01 1.012119e+00 1.039017e+00 1.068095e+00 1.099729e+00 1.134138e+00 1.169095e+00 1.207479e+00 1.244249e+00 1.285096e+00 1.322186e+00 1.363912e+00 1.399915e+00 1.440919e+00 1.474551e+00 1.513257e+00 1.543380e+00 1.578280e+00 1.603912e+00 1.633615e+00 1.653938e+00 1.677230e+00 1.691601e+00 1.707505e+00 1.715463e+00 1.723299e+00 1.724583e+00 1.724008e+00 1.718566e+00 1.709599e+00 1.697596e+00 1.680615e+00 1.662438e+00 1.638147e+00 1.614397e+00 1.583781e+00 1.555259e+00 1.519522e+00 1.487202e+00 1.447709e+00 1.412707e+00 1.370930e+00 1.334473e+00 1.291950e+00 1.255346e+00 1.213648e+00 1.178248e+00 1.138951e+00 1.106111e+00 1.070758e+00 1.041779e+00 1.011812e+00 
1.059413e+00 1.036235e+00 1.018088e+00 1.002116e+00 9.900749e-01 9.816176e-01 9.756761e-01 9.745329e-01 9.742562e-01 9.797406e-01 9.843457e-01 9.953936e-01 1.003882e+00 1.019205e+00 1.030505e+00 1.048737e+00 1.061815e+00 1.081633e+00 1.095564e+00 1.115761e+00 1.129763e+00 1.149293e+00 1.162731e+00 1.180736e+00 1.193117e+00 1.208931e+00 1.219886e+00 1.233044e+00 1.242312e+00 1.252536e+00 1.259945e+00 1.267129e+00 1.272581e+00 1.276768e+00 1.280224e+00 1.281568e+00 1.283039e+00 1.281773e+00 1.281306e+00 1.277707e+00 1.275375e+00 1.269730e+00 1.265622e+00 1.258204e+00 1.252418e+00 1.243465e+00 1.236107e+00 1.225818e+00 1.217000e+00 1.205540e+00 1.195393e+00 1.182905e+00 1.171593e+00 1.158230e+00 1.145974e+00 1.131928e+00 1.119039e+00 1.104587e+00 1.091493e+00 1.077039e+00 1.064321e+00 1.050430e+00 1.038844e+00 1.026274e+00 1.016749e+00 1.006447e+00 1.000052e+00 9.931128e-01 9.909671e-01 9.885419e-01 9.916739e-01 9.948209e-01 1.003994e+00 1.013508e+00 1.029060e+00 1.045328e+00 1.067084e+00 1.090012e+00 1.117299e+00 1.146328e+00 1.178074e+00 1.212265e+00 1.247145e+00 1.285278e+00 1.321850e+00 1.362518e+00 1.399333e+00 1.441017e+00 1.476690e+00 1.517809e+00 1.551069e+00 1.590028e+00 1.619742e+00 1.654984e+00 1.680175e+00 1.710241e+00 1.730096e+00 1.753697e+00 1.767582e+00 1.783673e+00 1.791137e+00 1.798989e+00 1.799778e+00 1.799026e+00 1.793098e+00 1.783770e+00 1.771300e+00 1.753812e+00 1.735198e+00 1.710317e+00 1.686178e+00 1.654960e+00 1.626116e+00 1.589842e+00 1.557288e+00 1.517388e+00 1.482264e+00 1.440258e+00 1.403804e+00 1.361254e+00 1.324778e+00 1.283246e+00 1.248078e+00 1.209099e+00 1.176546e+00 1.141581e+00 1.112863e+00 1.083240e+00 