# vtk DataFile Version 2.0
Comment goes here
ASCII

DATASET STRUCTURED_POINTS
FIELD FieldData 1
TIME 1 1 double
0.18500000
DIMENSIONS    128   128   1

ORIGIN    0.000   0.000   0.000
SPACING   0.039062 0.039062   1.000

POINT_DATA   16384
SCALARS uMag double
LOOKUP_TABLE default

2.733773e-03 2.631214e-03 9.362123e-03 1.538674e-02 2.259912e-02 2.915801e-02 3.670506e-02 4.364632e-02 5.135844e-02 5.850825e-02 6.619813e-02 7.336627e-02 8.083485e-02 8.782105e-02 9.486423e-02 1.014651e-01 1.078812e-01 1.138978e-01 1.194951e-01 1.247402e-01 1.293446e-01 1.336504e-01 1.371129e-01 1.403372e-01 1.425396e-01 1.445721e-01 1.454322e-01 1.461981e-01 1.456729e-01 1.451360e-01 1.432232e-01 1.413864e-01 1.381237e-01 1.350283e-01 1.304910e-01 1.262143e-01 1.205117e-01 1.151630e-01 1.084331e-01 1.021488e-01 9.455252e-02 8.749085e-02 7.920559e-02 7.154043e-02 6.275394e-02 5.466905e-02 4.557330e-02 3.725658e-02 2.804234e-02 1.968063e-02 1.053268e-02 2.306973e-03 6.599871e-03 1.451849e-02 2.302268e-02 3.047659e-02 3.843252e-02 4.528055e-02 5.256064e-02 5.868063e-02 6.517710e-02 7.046805e-02 7.609447e-02 8.047844e-02 8.517098e-02 8.859477e-02 9.231345e-02 9.474999e-02 9.747968e-02 9.892918e-02 1.006804e-01 1.011710e-01 1.019801e-01 1.015683e-01 1.014971e-01 1.002667e-01 9.940176e-02 9.746242e-02 9.591210e-02 9.339629e-02 9.128785e-02 8.834655e-02 8.582114e-02 8.261803e-02 7.982485e-02 7.652919e-02 7.361849e-02 7.039694e-02 6.751250e-02 6.452037e-02 6.179167e-02 5.916415e-02 5.669902e-02 5.454316e-02 5.242138e-02 5.080939e-02 4.907784e-02 4.804249e-02 4.671231e-02 4.624474e-02 4.529072e-02 4.534103e-02 4.470346e-02 4.518392e-02 4.477260e-02 4.556335e-02 4.526354e-02 4.622013e-02 4.589994e-02 4.686219e-02 4.638078e-02 4.718224e-02 4.639827e-02 4.687553e-02 4.565530e-02 4.565668e-02 4.388151e-02 4.327459e-02 4.084708e-02 3.952491e-02 3.637395e-02 3.425975e-02 3.034416e-02 2.739446e-02 2.270534e-02 1.891176e-02 1.347357e-02 8.863280e-03 
6.411021e-03 6.558584e-03 1.124237e-02 1.666897e-02 2.353691e-02 2.992711e-02 3.734226e-02 4.420512e-02 5.184770e-02 5.895141e-02 6.659886e-02 7.373569e-02 8.117654e-02 8.813915e-02 9.516382e-02 1.017455e-01 1.081493e-01 1.141491e-01 1.197389e-01 1.249687e-01 1.295692e-01 1.338604e-01 1.373219e-01 1.405321e-01 1.427359e-01 1.447545e-01 1.456184e-01 1.463707e-01 1.458517e-01 1.453014e-01 1.433973e-01 1.415479e-01 1.382968e-01 1.351901e-01 1.306682e-01 1.263821e-01 1.206999e-01 1.153452e-01 1.086425e-01 1.023580e-01 9.479899e-02 8.774668e-02 7.951488e-02 7.187658e-02 6.317254e-02 5.515015e-02 4.619895e-02 3.803394e-02 2.914390e-02 2.126813e-02 1.341941e-02 8.788044e-03 1.091140e-02 1.701747e-02 2.473256e-02 3.184450e-02 3.955044e-02 4.627201e-02 5.342531e-02 5.948398e-02 6.589920e-02 7.115528e-02 7.672169e-02 8.108285e-02 8.572668e-02 8.913304e-02 9.280948e-02 9.523036e-02 9.792162e-02 9.935510e-02 1.010700e-01 1.015430e-01 1.023169e-01 1.018847e-01 1.017789e-01 1.005249e-01 9.962509e-02 9.765859e-02 9.607308e-02 9.352644e-02 9.138226e-02 8.840656e-02 8.584494e-02 8.260417e-02 7.977463e-02 7.643859e-02 7.349207e-02 7.022830e-02 6.730964e-02 6.427471e-02 6.151498e-02 5.884576e-02 5.635488e-02 5.416052e-02 5.202072e-02 5.037571e-02 4.863623e-02 4.757536e-02 4.624901e-02 4.576454e-02 4.482653e-02 4.486842e-02 4.425798e-02 4.473722e-02 4.436199e-02 4.515676e-02 4.489944e-02 4.586342e-02 4.558982e-02 4.656145e-02 4.612911e-02 4.694124e-02 4.620801e-02 4.669725e-02 4.552952e-02 4.554489e-02 4.382504e-02 4.323579e-02 4.086902e-02 3.957141e-02 3.649213e-02 3.441611e-02 3.059593e-02 2.771485e-02 2.318127e-02 1.954301e-02 1.447431e-02 1.044098e-02 
1.198742e-02 1.226327e-02 1.549632e-02 1.992225e-02 2.610139e-02 3.207662e-02 3.921384e-02 4.587119e-02 5.338303e-02 6.036982e-02 6.795033e-02 7.501593e-02 8.242130e-02 8.933991e-02 9.634570e-02 1.029014e-01 1.092953e-01 1.152821e-01 1.208665e-01 1.260932e-01 1.306905e-01 1.349865e-01 1.384455e-01 1.416672e-01 1.438688e-01 1.459048e-01 1.467667e-01 1.475420e-01 1.470218e-01 1.465002e-01 1.445970e-01 1.427823e-01 1.395362e-01 1.364714e-01 1.319612e-01 1.277263e-01 1.220664e-01 1.167752e-01 1.101114e-01 1.039084e-01 9.641413e-02 8.947190e-02 8.134744e-02 7.386808e-02 6.534792e-02 5.757870e-02 4.896844e-02 4.127040e-02 3.311231e-02 2.629857e-02 2.025962e-02 1.729676e-02 1.824533e-02 2.223970e-02 2.845166e-02 3.468289e-02 4.179558e-02 4.811318e-02 5.498150e-02 6.081565e-02 6.707471e-02 7.219026e-02 7.766524e-02 8.193188e-02 8.652113e-02 8.986108e-02 9.350561e-02 9.587858e-02 9.855243e-02 9.995066e-02 1.016573e-01 1.021038e-01 1.028747e-01 1.024219e-01 1.023153e-01 1.010442e-01 1.001431e-01 9.816099e-02 9.657141e-02 9.400892e-02 9.185572e-02 8.886255e-02 8.628521e-02 8.302433e-02 8.017115e-02 7.681192e-02 7.383343e-02 7.054374e-02 6.758559e-02 6.452353e-02 6.171917e-02 5.902463e-02 5.648811e-02 5.427473e-02 5.209385e-02 5.044153e-02 4.867149e-02 4.761992e-02 4.627802e-02 4.582211e-02 4.488486e-02 4.497363e-02 4.437772e-02 4.491795e-02 4.456577e-02 4.542985e-02 4.519826e-02 4.623448e-02 4.598478e-02 4.702798e-02 4.661561e-02 4.749721e-02 4.678060e-02 4.733791e-02 4.618660e-02 4.627140e-02 4.457381e-02 4.406059e-02 4.173194e-02 4.052642e-02 3.751878e-02 3.556948e-02 3.189030e-02 2.921338e-02 2.497902e-02 2.174483e-02 1.741160e-02 1.439163e-02 
1.783768e-02 1.829522e-02 2.089297e-02 2.456411e-02 3.001209e-02 3.547887e-02 4.220660e-02 4.856416e-02 5.584518e-02 6.264387e-02 7.008718e-02 7.702717e-02 8.434806e-02 9.117896e-02 9.813204e-02 1.046247e-01 1.109860e-01 1.169268e-01 1.224918e-01 1.276846e-01 1.322715e-01 1.365430e-01 1.399978e-01 1.432025e-01 1.454049e-01 1.474302e-01 1.482975e-01 1.490680e-01 1.485587e-01 1.480386e-01 1.461534e-01 1.443476e-01 1.411291e-01 1.380825e-01 1.336138e-01 1.294099e-01 1.238112e-01 1.185696e-01 1.119957e-01 1.058700e-01 9.850863e-02 9.168749e-02 8.376349e-02 7.647884e-02 6.827310e-02 6.083210e-02 5.274605e-02 4.563754e-02 3.841031e-02 3.266213e-02 2.801951e-02 2.590346e-02 2.653032e-02 2.938466e-02 3.430616e-02 3.960628e-02 4.593853e-02 5.173785e-02 5.815149e-02 6.368157e-02 6.965177e-02 7.457383e-02 7.984996e-02 8.398396e-02 8.842706e-02 9.166933e-02 9.520025e-02 9.749569e-02 1.000765e-01 1.014081e-01 1.030343e-01 1.034188e-01 1.041164e-01 1.036018e-01 1.034245e-01 1.020884e-01 1.011159e-01 9.906307e-02 9.739815e-02 9.475747e-02 9.252285e-02 8.944279e-02 8.677636e-02 8.341952e-02 8.046899e-02 7.700538e-02 7.392211e-02 7.052164e-02 6.745411e-02 6.427873e-02 6.136577e-02 5.856155e-02 5.592551e-02 5.361473e-02 5.135414e-02 4.962699e-02 4.780836e-02 4.671404e-02 4.536328e-02 4.490210e-02 4.399817e-02 4.411800e-02 4.359268e-02 4.419298e-02 4.393836e-02 4.488131e-02 4.476261e-02 4.588702e-02 4.575617e-02 4.689047e-02 4.659756e-02 4.757051e-02 4.697302e-02 4.762268e-02 4.659348e-02 4.677568e-02 4.521098e-02 4.480813e-02 4.263711e-02 4.156905e-02 3.876856e-02 3.701035e-02 3.363553e-02 3.125810e-02 2.752542e-02 2.481824e-02 2.137331e-02 1.924504e-02 
2.380778e-02 2.441407e-02 2.671581e-02 2.990444e-02 3.479713e-02 3.979605e-02 4.613834e-02 5.217330e-02 5.922266e-02 6.580699e-02 7.311353e-02 7.991012e-02 8.715049e-02 9.388561e-02 1.007917e-01 1.072222e-01 1.135566e-01 1.194600e-01 1.250099e-01 1.301846e-01 1.347629e-01 1.390318e-01 1.424817e-01 1.456967e-01 1.478964e-01 1.499435e-01 1.508105e-01 1.516136e-01 1.511075e-01 1.506309e-01 1.487551e-01 1.470049e-01 1.438060e-01 1.408295e-01 1.363963e-01 1.322808e-01 1.267414e-01 1.216130e-01 1.151336e-01 1.091565e-01 1.019417e-01 9.532205e-02 8.762365e-02 8.062328e-02 7.276685e-02 6.574379e-02 5.820269e-02 5.171910e-02 4.530117e-02 4.036659e-02 3.651774e-02 3.470882e-02 3.499140e-02 3.700026e-02 4.086986e-02 4.524537e-02 5.077224e-02 5.594280e-02 6.184320e-02 6.696338e-02 7.260574e-02 7.725154e-02 8.231223e-02 8.625237e-02 9.055046e-02 9.365164e-02 9.708326e-02 9.927245e-02 1.017840e-01 1.030325e-01 1.046089e-01 1.049251e-01 1.055840e-01 1.050099e-01 1.047985e-01 1.034064e-01 1.023987e-01 1.002892e-01 9.858304e-02 9.588147e-02 9.359495e-02 9.044693e-02 8.771434e-02 8.428053e-02 8.124711e-02 7.769682e-02 7.451335e-02 7.101768e-02 6.783476e-02 6.455950e-02 6.152190e-02 5.862056e-02 5.586103e-02 5.346735e-02 5.109901e-02 4.931762e-02 4.742328e-02 4.631740e-02 4.493594e-02 4.451400e-02 4.362849e-02 4.383640e-02 4.337157e-02 4.409737e-02 4.393042e-02 4.502065e-02 4.500052e-02 4.628007e-02 4.624634e-02 4.753466e-02 4.733140e-02 4.845379e-02 4.793889e-02 4.873481e-02 4.778727e-02 4.811822e-02 4.664606e-02 4.640468e-02 4.435586e-02 4.347892e-02 4.086006e-02 3.935118e-02 3.626651e-02 3.424581e-02 3.098979e-02 2.881671e-02 2.609253e-02 2.462564e-02 
3.002988e-02 3.080945e-02 3.300977e-02 3.590229e-02 4.038040e-02 4.497703e-02 5.094326e-02 5.664534e-02 6.342851e-02 6.976538e-02 7.689543e-02 8.351158e-02 9.063761e-02 9.724116e-02 1.040746e-01 1.104092e-01 1.166987e-01 1.225329e-01 1.280563e-01 1.331822e-01 1.377464e-01 1.419826e-01 1.454269e-01 1.486226e-01 1.508232e-01 1.528627e-01 1.537368e-01 1.545434e-01 1.540519e-01 1.535903e-01 1.517395e-01 1.500173e-01 1.468586e-01 1.439261e-01 1.395549e-01 1.355044e-01 1.300581e-01 1.250235e-01 1.186811e-01 1.128389e-01 1.058236e-01 9.939901e-02 9.198946e-02 8.527380e-02 7.783468e-02 7.122750e-02 6.427806e-02 5.837623e-02 5.271664e-02 4.843785e-02 4.521821e-02 4.366795e-02 4.382838e-02 4.536054e-02 4.850553e-02 5.217570e-02 5.697436e-02 6.156987e-02 6.691725e-02 7.162538e-02 7.686745e-02 8.122051e-02 8.598755e-02 8.971383e-02 9.379002e-02 9.672809e-02 9.998598e-02 1.020439e-01 1.044137e-01 1.055496e-01 1.070046e-01 1.072174e-01 1.077664e-01 1.070907e-01 1.067736e-01 1.052761e-01 1.041606e-01 1.019375e-01 1.001162e-01 9.728935e-02 9.487578e-02 9.158856e-02 8.871364e-02 8.512556e-02 8.193265e-02 7.821345e-02 7.485370e-02 7.117701e-02 6.780472e-02 6.434191e-02 6.111016e-02 5.802466e-02 5.508048e-02 5.252132e-02 4.999822e-02 4.809016e-02 4.609469e-02 4.492161e-02 4.351263e-02 4.309591e-02 4.226334e-02 4.254688e-02 4.220481e-02 4.306032e-02 4.306323e-02 4.431508e-02 4.448755e-02 4.594161e-02 4.610522e-02 4.756931e-02 4.755911e-02 4.885431e-02 4.852754e-02 4.949503e-02 4.873709e-02 4.924495e-02 4.797664e-02 4.792911e-02 4.611842e-02 4.547040e-02 4.315390e-02 4.193681e-02 3.926164e-02 3.763468e-02 3.494312e-02 3.329443e-02 3.126550e-02 3.034586e-02 
3.636139e-02 3.730654e-02 3.948426e-02 4.221295e-02 4.642501e-02 5.072424e-02 5.640590e-02 6.182499e-02 6.839006e-02 7.450126e-02 8.148320e-02 8.793102e-02 9.496243e-02 1.014454e-01 1.082211e-01 1.144732e-01 1.207292e-01 1.265115e-01 1.320164e-01 1.371153e-01 1.416696e-01 1.458995e-01 1.493388e-01 1.525458e-01 1.547444e-01 1.568111e-01 1.576863e-01 1.585350e-01 1.580498e-01 1.576454e-01 1.558098e-01 1.541612e-01 1.510323e-01 1.481926e-01 1.438736e-01 1.399399e-01 1.345783e-01 1.296916e-01 1.234796e-01 1.178271e-01 1.110049e-01 1.048271e-01 9.769506e-02 9.130297e-02 8.424927e-02 7.805991e-02 7.161232e-02 6.620659e-02 6.109621e-02 5.725333e-02 5.436849e-02 5.287501e-02 5.282555e-02 5.389639e-02 5.640849e-02 5.940848e-02 6.353137e-02 6.752376e-02 7.232527e-02 7.656576e-02 8.140379e-02 8.540775e-02 8.988254e-02 9.334793e-02 9.721317e-02 9.995317e-02 1.030579e-01 1.049616e-01 1.072186e-01 1.082302e-01 1.095992e-01 1.097069e-01 1.101858e-01 1.094155e-01 1.090347e-01 1.074458e-01 1.062648e-01 1.039472e-01 1.020508e-01 9.912088e-02 9.661568e-02 9.321249e-02 9.022343e-02 8.650326e-02 8.316931e-02 7.930039e-02 7.577090e-02 7.192784e-02 6.835927e-02 6.471833e-02 6.127187e-02 5.800718e-02 5.484603e-02 5.212517e-02 4.940824e-02 4.738247e-02 4.524822e-02 4.403049e-02 4.256638e-02 4.219731e-02 4.140405e-02 4.182479e-02 4.160193e-02 4.266026e-02 4.283078e-02 4.431966e-02 4.467585e-02 4.637567e-02 4.671686e-02 4.842088e-02 4.857242e-02 5.009699e-02 4.991706e-02 5.110588e-02 5.048898e-02 5.121796e-02 5.010066e-02 5.028657e-02 4.865906e-02 4.827450e-02 4.620237e-02 4.530202e-02 4.296621e-02 4.173339e-02 3.949783e-02 3.831799e-02 3.680694e-02 3.632214e-02 
4.306916e-02 4.419262e-02 4.643163e-02 4.907208e-02 5.311220e-02 5.717372e-02 6.261507e-02 6.776947e-02 7.412077e-02 7.999689e-02 8.681742e-02 9.307412e-02 9.999338e-02 1.063274e-01 1.130297e-01 1.191691e-01 1.253797e-01 1.310792e-01 1.365582e-01 1.415990e-01 1.461404e-01 1.503329e-01 1.537678e-01 1.569551e-01 1.591558e-01 1.612184e-01 1.621021e-01 1.629616e-01 1.624930e-01 1.621148e-01 1.603082e-01 1.587027e-01 1.556212e-01 1.528448e-01 1.485999e-01 1.447547e-01 1.395047e-01 1.347395e-01 1.286897e-01 1.232027e-01 1.166093e-01 1.106551e-01 1.038365e-01 9.774195e-02 9.110019e-02 8.529070e-02 7.934445e-02 7.437300e-02 6.977361e-02 6.630042e-02 6.373517e-02 6.233564e-02 6.220241e-02 6.299661e-02 6.506881e-02 6.758432e-02 7.114796e-02 7.464623e-02 7.893068e-02 8.275336e-02 8.716468e-02 9.083720e-02 9.497207e-02 9.817705e-02 1.017721e-01 1.043036e-01 1.071902e-01 1.089209e-01 1.109968e-01 1.118572e-01 1.130697e-01 1.130371e-01 1.133733e-01 1.124647e-01 1.119458e-01 1.102134e-01 1.088904e-01 1.064180e-01 1.043682e-01 1.012675e-01 9.859103e-02 9.499772e-02 9.181391e-02 8.788231e-02 8.432636e-02 8.022440e-02 7.644444e-02 7.234871e-02 6.850401e-02 6.459630e-02 6.085716e-02 5.732305e-02 5.387134e-02 5.089929e-02 4.792538e-02 4.569955e-02 4.338529e-02 4.205900e-02 4.053479e-02 4.017857e-02 3.946339e-02 4.001636e-02 3.998850e-02 4.126437e-02 4.170005e-02 4.344877e-02 4.409510e-02 4.606512e-02 4.669274e-02 4.866121e-02 4.908399e-02 5.086314e-02 5.094047e-02 5.237747e-02 5.201367e-02 5.299289e-02 5.214060e-02 5.259129e-02 5.126192e-02 5.117297e-02 4.945712e-02 4.890186e-02 4.700347e-02 4.617823e-02 4.446171e-02 4.373276e-02 4.275204e-02 4.266266e-02 
4.992310e-02 5.123081e-02 5.355041e-02 5.617747e-02 6.013006e-02 6.404584e-02 6.933186e-02 7.429494e-02 8.049607e-02 8.618882e-02 9.289275e-02 9.899588e-02 1.058352e-01 1.120507e-01 1.187034e-01 1.247580e-01 1.309408e-01 1.365857e-01 1.420509e-01 1.470635e-01 1.515991e-01 1.557864e-01 1.592195e-01 1.624219e-01 1.646228e-01 1.667190e-01 1.676051e-01 1.685158e-01 1.680547e-01 1.677451e-01 1.659556e-01 1.644375e-01 1.613899e-01 1.587220e-01 1.545365e-01 1.508251e-01 1.456706e-01 1.410702e-01 1.351641e-01 1.298801e-01 1.234911e-01 1.177864e-01 1.112425e-01 1.054485e-01 9.915150e-02 9.368389e-02 8.812366e-02 8.348856e-02 7.923002e-02 7.597875e-02 7.355857e-02 7.212705e-02 7.182426e-02 7.229426e-02 7.393280e-02 7.595270e-02 7.898553e-02 8.196804e-02 8.575402e-02 8.912259e-02 9.311875e-02 9.641950e-02 1.002273e-01 1.031360e-01 1.064798e-01 1.087761e-01 1.114716e-01 1.130129e-01 1.149428e-01 1.156466e-01 1.167444e-01 1.165765e-01 1.168172e-01 1.157844e-01 1.151779e-01 1.133235e-01 1.119099e-01 1.093097e-01 1.071563e-01 1.039149e-01 1.011121e-01 9.735899e-02 9.401743e-02 8.990225e-02 8.614993e-02 8.183748e-02 7.781800e-02 7.348426e-02 6.935687e-02 6.518716e-02 6.112948e-02 5.732026e-02 5.353334e-02 5.029664e-02 4.700766e-02 4.456945e-02 4.201692e-02 4.058730e-02 3.896354e-02 3.865882e-02 3.801211e-02 3.876922e-02 3.894766e-02 4.052941e-02 4.124307e-02 4.333884e-02 4.427559e-02 4.659300e-02 4.748980e-02 4.978769e-02 5.044738e-02 5.253464e-02 5.282052e-02 5.454933e-02 5.437876e-02 5.564330e-02 5.498774e-02 5.573024e-02 5.462355e-02 5.484790e-02 5.340394e-02 5.319764e-02 5.163734e-02 5.120158e-02 4.988253e-02 4.955957e-02 4.897660e-02 4.923395e-02 
5.729811e-02 5.879499e-02 6.125292e-02 6.389587e-02 6.782260e-02 7.162352e-02 7.679661e-02 8.158276e-02 8.765244e-02 9.315799e-02 9.974816e-02 1.056810e-01 1.124359e-01 1.185085e-01 1.251053e-01 1.310465e-01 1.371965e-01 1.427559e-01 1.482048e-01 1.531571e-01 1.576871e-01 1.618363e-01 1.652701e-01 1.684543e-01 1.706601e-01 1.727564e-01 1.736518e-01 1.745797e-01 1.741348e-01 1.738600e-01 1.720987e-01 1.706341e-01 1.676339e-01 1.650408e-01 1.609312e-01 1.573200e-01 1.522804e-01 1.478114e-01 1.420707e-01 1.369566e-01 1.307939e-01 1.253043e-01 1.190541e-01 1.135231e-01 1.075812e-01 1.024134e-01 9.723736e-02 9.289743e-02 8.897564e-02 8.593129e-02 8.368543e-02 8.227443e-02 8.189560e-02 8.216566e-02 8.349801e-02 8.516472e-02 8.776855e-02 9.034829e-02 9.368666e-02 9.667419e-02 1.002615e-01 1.032314e-01 1.066880e-01 1.093184e-01 1.123678e-01 1.144299e-01 1.168789e-01 1.182187e-01 1.199387e-01 1.204618e-01 1.213751e-01 1.210365e-01 1.211070e-01 1.199042e-01 1.191312e-01 1.170990e-01 1.155130e-01 1.127201e-01 1.103787e-01 1.069243e-01 1.039093e-01 9.991846e-02 9.633279e-02 9.195244e-02 8.791769e-02 8.331135e-02 7.896691e-02 7.431080e-02 6.981534e-02 6.529749e-02 6.083443e-02 5.665952e-02 5.244766e-02 4.884878e-02 4.515514e-02 4.240436e-02 3.954044e-02 3.792463e-02 3.617728e-02 3.588649e-02 3.535656e-02 3.632918e-02 3.681828e-02 3.874020e-02 3.985682e-02 4.233410e-02 4.368569e-02 4.637917e-02 4.766439e-02 5.031726e-02 5.133016e-02 5.375152e-02 5.436223e-02 5.641122e-02 5.655177e-02 5.813255e-02 5.779309e-02 5.885960e-02 5.809414e-02 5.866238e-02 5.760270e-02 5.776942e-02 5.664433e-02 5.660873e-02 5.575862e-02 5.583488e-02 5.569495e-02 5.628553e-02 
6.487459e-02 6.657693e-02 6.917101e-02 7.188681e-02 7.583442e-02 7.959887e-02 8.472328e-02 8.941019e-02 9.540893e-02 1.007943e-01 1.073204e-01 1.131386e-01 1.198482e-01 1.258253e-01 1.323964e-01 1.382664e-01 1.444063e-01 1.499201e-01 1.553688e-01 1.602999e-01 1.648342e-01 1.689848e-01 1.724237e-01 1.756300e-01 1.778396e-01 1.799772e-01 1.808758e-01 1.818634e-01 1.814241e-01 1.812270e-01 1.794796e-01 1.781113e-01 1.751411e-01 1.726645e-01 1.686104e-01 1.651382e-01 1.601900e-01 1.558855e-01 1.502815e-01 1.453604e-01 1.393863e-01 1.341192e-01 1.281087e-01 1.228240e-01 1.171585e-01 1.122398e-01 1.073381e-01 1.032054e-01 9.948704e-02 9.653866e-02 9.434103e-02 9.284963e-02 9.231312e-02 9.231563e-02 9.331122e-02 9.458232e-02 9.675526e-02 9.889643e-02 1.017945e-01 1.043642e-01 1.075535e-01 1.101568e-01 1.132781e-01 1.156001e-01 1.183784e-01 1.201853e-01 1.224200e-01 1.235482e-01 1.250998e-01 1.254439e-01 1.262226e-01 1.257267e-01 1.256838e-01 1.243346e-01 1.234570e-01 1.212792e-01 1.195848e-01 1.166376e-01 1.141717e-01 1.105455e-01 1.073773e-01 1.031898e-01 9.941034e-02 9.480180e-02 9.052189e-02 8.565071e-02 8.100099e-02 7.603984e-02 7.117396e-02 6.630996e-02 6.141301e-02 5.685592e-02 5.216127e-02 4.816419e-02 4.397993e-02 4.086874e-02 3.759615e-02 3.576390e-02 3.382760e-02 3.358217e-02 3.317146e-02 3.445591e-02 3.530065e-02 3.767888e-02 3.923785e-02 4.219925e-02 4.397771e-02 4.712877e-02 4.878579e-02 5.185633e-02 5.318168e-02 5.598444e-02 5.686009e-02 5.926393e-02 5.964100e-02 6.156209e-02 6.145287e-02 6.285785e-02 6.233858e-02 6.325535e-02 6.247622e-02 6.300918e-02 6.220670e-02 6.255185e-02 6.205293e-02 6.250097e-02 6.269752e-02 6.360342e-02 
7.313448e-02 7.504040e-02 7.782227e-02 8.061729e-02 8.463371e-02 8.837003e-02 9.348281e-02 9.807242e-02 1.040233e-01 1.092803e-01 1.157543e-01 1.214405e-01 1.281097e-01 1.339670e-01 1.405146e-01 1.462846e-01 1.524162e-01 1.578523e-01 1.633035e-01 1.681794e-01 1.727220e-01 1.768386e-01 1.802875e-01 1.834798e-01 1.856990e-01 1.878411e-01 1.887492e-01 1.897591e-01 1.893327e-01 1.891756e-01 1.874502e-01 1.861401e-01 1.832092e-01 1.808105e-01 1.768228e-01 1.734505e-01 1.686058e-01 1.644263e-01 1.589719e-01 1.542038e-01 1.484307e-01 1.433456e-01 1.375852e-01 1.325066e-01 1.271245e-01 1.224192e-01 1.177984e-01 1.138508e-01 1.103522e-01 1.075087e-01 1.054027e-01 1.038869e-01 1.032710e-01 1.031058e-01 1.038614e-01 1.048545e-01 1.066825e-01 1.084923e-01 1.110055e-01 1.132398e-01 1.160524e-01 1.183446e-01 1.211227e-01 1.231680e-01 1.256450e-01 1.272083e-01 1.291819e-01 1.300925e-01 1.314163e-01 1.315600e-01 1.321347e-01 1.314456e-01 1.312120e-01 1.296673e-01 1.286013e-01 1.262170e-01 1.243256e-01 1.211532e-01 1.184706e-01 1.145943e-01 1.111794e-01 1.067124e-01 1.026462e-01 9.772590e-02 9.310986e-02 8.789267e-02 8.284939e-02 7.750611e-02 7.218300e-02 6.689817e-02 6.147743e-02 5.645858e-02 5.117909e-02 4.668572e-02 4.188636e-02 3.828728e-02 3.446935e-02 3.229102e-02 3.009132e-02 2.984354e-02 2.962582e-02 3.127360e-02 3.264246e-02 3.554457e-02 3.771459e-02 4.120248e-02 4.355095e-02 4.718386e-02 4.933886e-02 5.284690e-02 5.460517e-02 5.781243e-02 5.907445e-02 6.186177e-02 6.260009e-02 6.489454e-02 6.514274e-02 6.692078e-02 6.677385e-02 6.807121e-02 6.769193e-02 6.861591e-02 6.824115e-02 6.898018e-02 6.891727e-02 6.973765e-02 7.033553e-02 7.155085e-02 
8.166892e-02 8.380372e-02 8.676015e-02 8.968797e-02 9.379828e-02 9.757932e-02 1.027267e-01 1.072980e-01 1.132528e-01 1.184571e-01 1.249272e-01 1.305499e-01 1.372203e-01 1.430190e-01 1.495772e-01 1.553026e-01 1.614528e-01 1.668627e-01 1.723362e-01 1.772056e-01 1.817695e-01 1.858995e-01 1.893645e-01 1.925890e-01 1.948172e-01 1.970095e-01 1.979203e-01 1.989975e-01 1.985713e-01 1.984978e-01 1.967767e-01 1.955664e-01 1.926530e-01 1.903702e-01 1.864230e-01 1.831832e-01 1.784117e-01 1.743814e-01 1.690399e-01 1.644371e-01 1.588186e-01 1.539107e-01 1.483398e-01 1.434399e-01 1.382619e-01 1.337158e-01 1.292770e-01 1.254350e-01 1.220462e-01 1.192130e-01 1.170946e-01 1.154618e-01 1.146867e-01 1.142760e-01 1.147424e-01 1.153955e-01 1.168538e-01 1.182804e-01 1.203999e-01 1.222535e-01 1.246919e-01 1.266344e-01 1.290823e-01 1.308214e-01 1.330212e-01 1.343228e-01 1.360715e-01 1.367599e-01 1.379039e-01 1.378565e-01 1.382862e-01 1.374272e-01 1.370717e-01 1.353674e-01 1.341893e-01 1.316448e-01 1.296371e-01 1.262931e-01 1.234757e-01 1.194064e-01 1.158231e-01 1.111328e-01 1.068490e-01 1.016674e-01 9.677001e-02 9.124667e-02 8.584442e-02 8.014357e-02 7.437228e-02 6.867128e-02 6.270467e-02 5.720344e-02 5.127816e-02 4.623422e-02 4.070751e-02 3.652380e-02 3.199459e-02 2.936150e-02 2.676485e-02 2.652801e-02 2.654617e-02 2.871703e-02 3.073261e-02 3.431636e-02 3.717233e-02 4.129674e-02 4.423245e-02 4.842255e-02 5.105134e-02 5.504926e-02 5.718632e-02 6.083330e-02 6.240488e-02 6.559711e-02 6.660278e-02 6.928085e-02 6.978014e-02 7.193239e-02 7.204295e-02 7.371443e-02 7.361497e-02 7.491716e-02 7.484900e-02 7.596531e-02 7.622373e-02 7.740237e-02 7.830679e-02 7.983127e-02 
9.106981e-02 9.342466e-02 9.660744e-02 9.966000e-02 1.039078e-01 1.077256e-01 1.129423e-01 1.174846e-01 1.234687e-01 1.286046e-01 1.350885e-01 1.406262e-01 1.473104e-01 1.530239e-01 1.596025e-01 1.652525e-01 1.714301e-01 1.767796e-01 1.822840e-01 1.871104e-01 1.917040e-01 1.958087e-01 1.992979e-01 2.025147e-01 2.047593e-01 2.069607e-01 2.078806e-01 2.089833e-01 2.085628e-01 2.085306e-01 2.068187e-01 2.056653e-01 2.027738e-01 2.005633e-01 1.966613e-01 1.935094e-01 1.888161e-01 1.848899e-01 1.796668e-01 1.751837e-01 1.697254e-01 1.649506e-01 1.595748e-01 1.548141e-01 1.498474e-01 1.454312e-01 1.411875e-01 1.374412e-01 1.341884e-01 1.313858e-01 1.293026e-01 1.276100e-01 1.267455e-01 1.261787e-01 1.264373e-01 1.268561e-01 1.280205e-01 1.291674e-01 1.309493e-01 1.325099e-01 1.346039e-01 1.362628e-01 1.383841e-01 1.398599e-01 1.417632e-01 1.428241e-01 1.443086e-01 1.447754e-01 1.456840e-01 1.454270e-01 1.456426e-01 1.445774e-01 1.440191e-01 1.421028e-01 1.407224e-01 1.379509e-01 1.357298e-01 1.321360e-01 1.290823e-01 1.247341e-01 1.208796e-01 1.158774e-01 1.112759e-01 1.057478e-01 1.004742e-01 9.456907e-02 8.872094e-02 8.260101e-02 7.630254e-02 7.013840e-02 6.355008e-02 5.752518e-02 5.086607e-02 4.520876e-02 3.881747e-02 3.390827e-02 2.842574e-02 2.508767e-02 2.185543e-02 2.153718e-02 2.195936e-02 2.482233e-02 2.780022e-02 3.216343e-02 3.591653e-02 4.069309e-02 4.435746e-02 4.909830e-02 5.231896e-02 5.680635e-02 5.943896e-02 6.353915e-02 6.554388e-02 6.916747e-02 7.057198e-02 7.366855e-02 7.455551e-02 7.711964e-02 7.762406e-02 7.970435e-02 8.001416e-02 8.172118e-02 8.207521e-02 8.358379e-02 8.426030e-02 8.580000e-02 8.708834e-02 8.891611e-02 
1.008385e-01 1.034470e-01 1.068357e-01 1.100693e-01 1.144661e-01 1.183943e-01 1.237132e-01 1.283084e-01 1.343647e-01 1.395151e-01 1.460572e-01 1.515892e-01 1.583284e-01 1.640305e-01 1.706655e-01 1.763082e-01 1.825429e-01 1.878953e-01 1.934536e-01 1.982960e-01 2.029348e-01 2.070701e-01 2.105911e-01 2.138532e-01 2.161137e-01 2.183748e-01 2.192955e-01 2.204715e-01 2.200409e-01 2.200947e-01 2.183699e-01 2.173138e-01 2.144168e-01 2.123135e-01 2.084243e-01 2.053877e-01 2.007355e-01 1.969303e-01 1.917824e-01 1.874225e-01 1.820729e-01 1.774176e-01 1.721741e-01 1.675184e-01 1.626866e-01 1.583442e-01 1.542063e-01 1.504798e-01 1.472665e-01 1.444057e-01 1.422640e-01 1.404198e-01 1.393856e-01 1.385765e-01 1.385660e-01 1.386740e-01 1.395027e-01 1.403033e-01 1.417231e-01 1.429342e-01 1.446752e-01 1.460050e-01 1.478066e-01 1.489868e-01 1.506161e-01 1.514192e-01 1.526785e-01 1.529232e-01 1.536513e-01 1.532020e-01 1.532734e-01 1.520367e-01 1.513592e-01 1.492815e-01 1.477935e-01 1.448591e-01 1.425271e-01 1.387569e-01 1.355727e-01 1.310236e-01 1.270014e-01 1.217641e-01 1.169394e-01 1.111338e-01 1.055628e-01 9.933111e-02 9.309344e-02 8.659098e-02 7.979450e-02 7.318143e-02 6.597066e-02 5.941153e-02 5.198468e-02 4.567151e-02 3.832967e-02 3.258379e-02 2.592764e-02 2.161344e-02 1.737494e-02 1.690703e-02 1.796611e-02 2.186115e-02 2.606603e-02 3.136535e-02 3.608582e-02 4.158627e-02 4.597012e-02 5.130752e-02 5.507113e-02 6.007803e-02 6.312830e-02 6.769722e-02 7.003380e-02 7.409126e-02 7.577548e-02 7.928286e-02 8.042647e-02 8.338789e-02 8.414926e-02 8.662022e-02 8.720239e-02 8.929587e-02 8.994171e-02 9.182803e-02 9.280691e-02 9.470269e-02 9.628373e-02 9.842633e-02 
1.116812e-01 1.145269e-01 1.181753e-01 1.215707e-01 1.261602e-01 1.301784e-01 1.356347e-01 1.402614e-01 1.464183e-01 1.515595e-01 1.581832e-01 1.636828e-01 1.704972e-01 1.761576e-01 1.828672e-01 1.884690e-01 1.947777e-01 2.000960e-01 2.057239e-01 2.105426e-01 2.152408e-01 2.193643e-01 2.229293e-01 2.261923e-01 2.284781e-01 2.307530e-01 2.316808e-01 2.328832e-01 2.324459e-01 2.325380e-01 2.308012e-01 2.297939e-01 2.268904e-01 2.248448e-01 2.209666e-01 2.179947e-01 2.133815e-01 2.096459e-01 2.045716e-01 2.002841e-01 1.950427e-01 1.904591e-01 1.853497e-01 1.807592e-01 1.760688e-01 1.717745e-01 1.677579e-01 1.640475e-01 1.609035e-01 1.580102e-01 1.558577e-01 1.539201e-01 1.527802e-01 1.518147e-01 1.516082e-01 1.515075e-01 1.520707e-01 1.526291e-01 1.537436e-01 1.546991e-01 1.561232e-01 1.571997e-01 1.586946e-01 1.596330e-01 1.609782e-01 1.615541e-01 1.625563e-01 1.625865e-01 1.630827e-01 1.624261e-01 1.622842e-01 1.608398e-01 1.599585e-01 1.576635e-01 1.559705e-01 1.527997e-01 1.502499e-01 1.462161e-01 1.427889e-01 1.379435e-01 1.336407e-01 1.280720e-01 1.229161e-01 1.167460e-01 1.107806e-01 1.041554e-01 9.744814e-02 9.052664e-02 8.317397e-02 7.611368e-02 6.824690e-02 6.119376e-02 5.298678e-02 4.607898e-02 3.776711e-02 3.118772e-02 2.317255e-02 1.748405e-02 1.136018e-02 1.029114e-02 1.279388e-02 1.818378e-02 2.407865e-02 3.025344e-02 3.606888e-02 4.217509e-02 4.735243e-02 5.320284e-02 5.759017e-02 6.307639e-02 6.664505e-02 7.167880e-02 7.446857e-02 7.898163e-02 8.108312e-02 8.503762e-02 8.658478e-02 8.998439e-02 9.115072e-02 9.404964e-02 9.504490e-02 9.755247e-02 9.861619e-02 1.008948e-01 1.022826e-01 1.045354e-01 1.064952e-01 1.089426e-01 
1.230077e-01 1.261325e-01 1.300146e-01 1.336342e-01 1.384190e-01 1.426055e-01 1.482227e-01 1.529687e-01 1.592618e-01 1.644850e-01 1.712307e-01 1.767879e-01 1.837177e-01 1.894227e-01 1.962441e-01 2.018860e-01 2.083011e-01 2.136609e-01 2.193843e-01 2.242494e-01 2.290251e-01 2.332019e-01 2.368198e-01 2.401439e-01 2.424543e-01 2.447985e-01 2.457227e-01 2.470021e-01 2.465384e-01 2.467139e-01 2.449371e-01 2.440176e-01 2.410733e-01 2.391168e-01 2.352102e-01 2.323248e-01 2.277066e-01 2.240509e-01 2.190012e-01 2.147820e-01 2.095936e-01 2.050608e-01 2.000221e-01 1.954567e-01 1.908346e-01 1.865289e-01 1.825511e-01 1.787798e-01 1.756163e-01 1.726009e-01 1.703484e-01 1.682215e-01 1.668933e-01 1.656761e-01 1.652027e-01 1.648035e-01 1.650456e-01 1.652811e-01 1.660516e-01 1.666825e-01 1.677697e-01 1.685381e-01 1.697258e-01 1.703847e-01 1.714660e-01 1.717964e-01 1.725830e-01 1.724019e-01 1.727285e-01 1.718905e-01 1.716179e-01 1.700140e-01 1.690300e-01 1.665866e-01 1.648056e-01 1.614851e-01 1.588465e-01 1.546484e-01 1.511142e-01 1.460775e-01 1.416297e-01 1.358330e-01 1.304726e-01 1.240308e-01 1.177797e-01 1.108352e-01 1.037413e-01 9.645033e-02 8.859465e-02 8.111047e-02 7.261565e-02 6.507221e-02 5.610695e-02 4.860997e-02 3.938806e-02 3.202245e-02 2.280257e-02 1.571446e-02 7.027947e-03 4.004062e-03 9.946724e-03 1.693934e-02 2.446446e-02 3.137744e-02 3.817929e-02 4.485681e-02 5.074493e-02 5.710890e-02 6.203064e-02 6.799754e-02 7.197412e-02 7.746299e-02 8.057267e-02 8.551933e-02 8.788698e-02 9.225788e-02 9.404737e-02 9.785097e-02 9.925932e-02 1.025538e-01 1.038056e-01 1.067015e-01 1.080406e-01 1.106968e-01 1.123728e-01 1.149836e-01 1.172296e-01 1.200023e-01 