# vtk DataFile Version 2.0
Comment goes here
ASCII

DATASET STRUCTURED_POINTS
FIELD FieldData 1
TIME 1 1 double
0.16000000
DIMENSIONS    128   128   1

ORIGIN    0.000   0.000   0.000
SPACING   0.039062 0.039062   1.000

POINT_DATA   16384
SCALARS uMag double
LOOKUP_TABLE default

7.935654e-02 6.834228e-02 6.008537e-02 4.835203e-02 3.907155e-02 2.676952e-02 1.661805e-02 3.924071e-03 6.916514e-03 1.980330e-02 3.112685e-02 4.398968e-02 5.557174e-02 6.818198e-02 7.978664e-02 9.191033e-02 1.032978e-01 1.147028e-01 1.256376e-01 1.361010e-01 1.463599e-01 1.556758e-01 1.650558e-01 1.730418e-01 1.813672e-01 1.878710e-01 1.949987e-01 1.999026e-01 2.057267e-01 2.089508e-01 2.134040e-01 2.149076e-01 2.179618e-01 2.177429e-01 2.194069e-01 2.175000e-01 2.178159e-01 2.142887e-01 2.133272e-01 2.082757e-01 2.061302e-01 1.996742e-01 1.964547e-01 1.887320e-01 1.845597e-01 1.757214e-01 1.707232e-01 1.609291e-01 1.552334e-01 1.446486e-01 1.383820e-01 1.271737e-01 1.204589e-01 1.087943e-01 1.017491e-01 8.979368e-02 8.253009e-02 7.044675e-02 6.307131e-02 5.101888e-02 4.363271e-02 3.176492e-02 2.446362e-02 1.292758e-02 5.800776e-03 5.265081e-03 1.213483e-02 2.260318e-02 2.914217e-02 3.889980e-02 4.504554e-02 5.399659e-02 5.970063e-02 6.776990e-02 7.300073e-02 8.013673e-02 8.488245e-02 9.105973e-02 9.532998e-02 1.005504e-01 1.043771e-01 1.086697e-01 1.121063e-01 1.155254e-01 1.186440e-01 1.212655e-01 1.241527e-01 1.260686e-01 1.288188e-01 1.301300e-01 1.328377e-01 1.336465e-01 1.363975e-01 1.367988e-01 1.396617e-01 1.397348e-01 1.427530e-01 1.425551e-01 1.457405e-01 1.453013e-01 1.486299e-01 1.479491e-01 1.513602e-01 1.504071e-01 1.538048e-01 1.525209e-01 1.557788e-01 1.540827e-01 1.570508e-01 1.548447e-01 1.573579e-01 1.545356e-01 1.564238e-01 1.528786e-01 1.539759e-01 1.496091e-01 1.497632e-01 1.444909e-01 1.435715e-01 1.373310e-01 1.352359e-01 1.279906e-01 1.246508e-01 1.163938e-01 1.117768e-01 1.025326e-01 9.664462e-02 8.647054e-02 
7.807199e-02 6.726407e-02 5.919554e-02 4.782500e-02 3.893544e-02 2.754654e-02 1.888474e-02 1.200813e-02 1.454357e-02 2.445583e-02 3.471264e-02 4.696906e-02 5.816911e-02 7.050483e-02 8.189017e-02 9.383842e-02 1.050694e-01 1.163407e-01 1.271498e-01 1.375010e-01 1.476517e-01 1.568681e-01 1.661504e-01 1.740455e-01 1.822799e-01 1.886991e-01 1.957401e-01 2.005645e-01 2.063045e-01 2.094535e-01 2.138243e-01 2.152569e-01 2.182298e-01 2.179439e-01 2.195273e-01 2.175573e-01 2.177933e-01 2.142070e-01 2.131665e-01 2.080602e-01 2.058368e-01 1.993303e-01 1.960346e-01 1.882662e-01 1.840199e-01 1.751411e-01 1.700719e-01 1.602433e-01 1.544804e-01 1.438685e-01 1.375398e-01 1.263141e-01 1.195441e-01 1.078758e-01 1.007854e-01 8.884787e-02 8.155514e-02 6.952763e-02 6.215300e-02 5.023585e-02 4.292099e-02 3.141067e-02 2.443352e-02 1.439907e-02 9.851032e-03 1.157731e-02 1.667125e-02 2.616009e-02 3.235801e-02 4.185785e-02 4.786414e-02 5.670432e-02 6.232360e-02 7.032710e-02 7.548905e-02 8.257252e-02 8.724999e-02 9.337440e-02 9.756945e-02 1.027297e-01 1.064700e-01 1.106914e-01 1.140279e-01 1.173626e-01 1.203666e-01 1.228897e-01 1.256478e-01 1.274518e-01 1.300595e-01 1.312468e-01 1.338007e-01 1.344757e-01 1.370645e-01 1.373251e-01 1.400210e-01 1.399499e-01 1.428004e-01 1.424583e-01 1.454790e-01 1.448993e-01 1.480704e-01 1.472561e-01 1.505204e-01 1.494438e-01 1.527083e-01 1.513135e-01 1.544543e-01 1.526620e-01 1.555308e-01 1.532449e-01 1.556780e-01 1.527934e-01 1.546211e-01 1.510324e-01 1.520888e-01 1.476979e-01 1.478308e-01 1.425545e-01 1.416328e-01 1.354093e-01 1.333305e-01 1.261246e-01 1.228198e-01 1.146270e-01 1.100653e-01 1.009154e-01 9.510737e-02 8.506934e-02 
8.235315e-02 7.188501e-02 6.412766e-02 5.342186e-02 4.522966e-02 3.537426e-02 2.850522e-02 2.385373e-02 2.454074e-02 3.106698e-02 3.927370e-02 5.028090e-02 6.068012e-02 7.254369e-02 8.355251e-02 9.530110e-02 1.063351e-01 1.175247e-01 1.282284e-01 1.385564e-01 1.486544e-01 1.578787e-01 1.671417e-01 1.750615e-01 1.832988e-01 1.897515e-01 1.968112e-01 2.016731e-01 2.074437e-01 2.106313e-01 2.150423e-01 2.165131e-01 2.195344e-01 2.192854e-01 2.209248e-01 2.189907e-01 2.192901e-01 2.157390e-01 2.147693e-01 2.096985e-01 2.075536e-01 2.010844e-01 1.978752e-01 1.901477e-01 1.859962e-01 1.771647e-01 1.721986e-01 1.624272e-01 1.567765e-01 1.462362e-01 1.400299e-01 1.288973e-01 1.222622e-01 1.107200e-01 1.037822e-01 9.202361e-02 8.491312e-02 7.315665e-02 6.602186e-02 5.455709e-02 4.761520e-02 3.697925e-02 3.074072e-02 2.260317e-02 1.907866e-02 1.889993e-02 2.149799e-02 2.874721e-02 3.390319e-02 4.260093e-02 4.811425e-02 5.659716e-02 6.193401e-02 6.975433e-02 7.473956e-02 8.172423e-02 8.628976e-02 9.236337e-02 9.649226e-02 1.016329e-01 1.053428e-01 1.095674e-01 1.129036e-01 1.162601e-01 1.192904e-01 1.218521e-01 1.246610e-01 1.265197e-01 1.292014e-01 1.304594e-01 1.331095e-01 1.338715e-01 1.365780e-01 1.369417e-01 1.397756e-01 1.398230e-01 1.428297e-01 1.426200e-01 1.458125e-01 1.453761e-01 1.487306e-01 1.480666e-01 1.515211e-01 1.505972e-01 1.540535e-01 1.528088e-01 1.561376e-01 1.544882e-01 1.575360e-01 1.553819e-01 1.579808e-01 1.552147e-01 1.571920e-01 1.537072e-01 1.548957e-01 1.505951e-01 1.508423e-01 1.456457e-01 1.448224e-01 1.386732e-01 1.366805e-01 1.295514e-01 1.263268e-01 1.182256e-01 1.137487e-01 1.047251e-01 9.902487e-02 8.918330e-02 
8.407417e-02 7.432896e-02 6.721103e-02 5.771292e-02 5.067436e-02 4.294542e-02 3.804235e-02 3.565523e-02 3.662883e-02 4.203710e-02 4.874602e-02 5.846098e-02 6.780470e-02 7.890217e-02 8.923859e-02 1.005137e-01 1.110887e-01 1.219572e-01 1.323248e-01 1.424161e-01 1.522536e-01 1.612909e-01 1.703422e-01 1.781059e-01 1.861645e-01 1.924810e-01 1.993850e-01 2.041242e-01 2.097556e-01 2.128302e-01 2.171145e-01 2.184798e-01 2.213845e-01 2.210367e-01 2.225686e-01 2.205424e-01 2.207431e-01 2.171073e-01 2.160483e-01 2.109015e-01 2.086776e-01 2.021431e-01 1.988663e-01 1.910868e-01 1.868804e-01 1.780137e-01 1.730075e-01 1.632227e-01 1.575488e-01 1.470244e-01 1.408151e-01 1.297391e-01 1.231274e-01 1.117010e-01 1.048238e-01 9.327348e-02 8.628219e-02 7.488986e-02 6.797971e-02 5.716796e-02 5.066495e-02 4.126332e-02 3.591389e-02 2.993373e-02 2.756146e-02 2.822101e-02 3.019983e-02 3.634898e-02 4.067157e-02 4.861931e-02 5.359210e-02 6.165688e-02 6.662844e-02 7.419554e-02 7.890701e-02 8.571626e-02 9.005510e-02 9.598695e-02 9.991147e-02 1.049203e-01 1.084336e-01 1.125230e-01 1.156619e-01 1.188732e-01 1.217008e-01 1.241046e-01 1.267044e-01 1.283930e-01 1.308606e-01 1.319396e-01 1.343744e-01 1.349535e-01 1.374487e-01 1.376316e-01 1.402645e-01 1.401395e-01 1.429617e-01 1.425934e-01 1.456235e-01 1.450468e-01 1.482649e-01 1.474817e-01 1.508283e-01 1.498076e-01 1.531854e-01 1.518664e-01 1.551454e-01 1.534439e-01 1.564695e-01 1.542854e-01 1.568879e-01 1.541141e-01 1.561192e-01 1.526505e-01 1.538897e-01 1.496318e-01 1.499524e-01 1.448295e-01 1.441031e-01 1.380657e-01 1.361963e-01 1.292278e-01 1.261593e-01 1.182846e-01 1.140095e-01 1.053072e-01 9.987991e-02 9.050728e-02 
9.092748e-02 8.180019e-02 7.518733e-02 6.661682e-02 6.033210e-02 5.379519e-02 4.960668e-02 4.764958e-02 4.802880e-02 5.221999e-02 5.750118e-02 6.597097e-02 7.422179e-02 8.456077e-02 9.419804e-02 1.050462e-01 1.151766e-01 1.258065e-01 1.358866e-01 1.458464e-01 1.554964e-01 1.644644e-01 1.733945e-01 1.811252e-01 1.891083e-01 1.954126e-01 2.022738e-01 2.070120e-01 2.126251e-01 2.157045e-01 2.199898e-01 2.213623e-01 2.242846e-01 2.239452e-01 2.255098e-01 2.234929e-01 2.237414e-01 2.201172e-01 2.191211e-01 2.139903e-01 2.118452e-01 2.053341e-01 2.021530e-01 1.944082e-01 1.903154e-01 1.815000e-01 1.766260e-01 1.669159e-01 1.613940e-01 1.509769e-01 1.449415e-01 1.340183e-01 1.276059e-01 1.163974e-01 1.097521e-01 9.851484e-02 9.180171e-02 8.086516e-02 7.430366e-02 6.415857e-02 5.810419e-02 4.961248e-02 4.474937e-02 3.949863e-02 3.704284e-02 3.691618e-02 3.772475e-02 4.229851e-02 4.544461e-02 5.229757e-02 5.645233e-02 6.387616e-02 6.829237e-02 7.547963e-02 7.980231e-02 8.637702e-02 9.043681e-02 9.621811e-02 9.994062e-02 1.048500e-01 1.082189e-01 1.122420e-01 1.152820e-01 1.184508e-01 1.212181e-01 1.235988e-01 1.261728e-01 1.278572e-01 1.303322e-01 1.314273e-01 1.339031e-01 1.345215e-01 1.370928e-01 1.373411e-01 1.400864e-01 1.400553e-01 1.430266e-01 1.427813e-01 1.459956e-01 1.455688e-01 1.490025e-01 1.483915e-01 1.519788e-01 1.511459e-01 1.547813e-01 1.536579e-01 1.572026e-01 1.556966e-01 1.589870e-01 1.569917e-01 1.598504e-01 1.572544e-01 1.595012e-01 1.561980e-01 1.576611e-01 1.535584e-01 1.540842e-01 1.491118e-01 1.485743e-01 1.426925e-01 1.410018e-01 1.342086e-01 1.313190e-01 1.236608e-01 1.195820e-01 1.111698e-01 1.059843e-01 9.702587e-02 
9.528778e-02 8.713966e-02 8.132493e-02 7.410158e-02 6.889644e-02 6.398060e-02 6.089451e-02 6.007044e-02 6.071434e-02 6.474977e-02 6.933276e-02 7.702094e-02 8.436479e-02 9.396644e-02 1.028312e-01 1.131179e-01 1.226437e-01 1.328561e-01 1.424647e-01 1.521054e-01 1.613804e-01 1.700941e-01 1.787184e-01 1.862372e-01 1.939640e-01 2.000845e-01 2.067255e-01 2.112989e-01 2.167187e-01 2.196464e-01 2.237597e-01 2.249906e-01 2.277589e-01 2.272866e-01 2.287137e-01 2.265730e-01 2.267005e-01 2.229629e-01 2.218633e-01 2.166320e-01 2.144025e-01 2.078074e-01 2.045628e-01 1.967553e-01 1.926220e-01 1.837712e-01 1.788822e-01 1.691725e-01 1.636640e-01 1.532947e-01 1.473053e-01 1.364945e-01 1.301676e-01 1.191617e-01 1.126533e-01 1.017488e-01 9.524558e-02 8.483401e-02 7.859087e-02 6.924975e-02 6.366868e-02 5.631868e-02 5.206979e-02 4.805425e-02 4.603392e-02 4.642832e-02 4.704154e-02 5.126225e-02 5.384567e-02 6.015214e-02 6.374434e-02 7.073006e-02 7.467492e-02 8.154414e-02 8.547519e-02 9.180869e-02 9.553016e-02 1.011091e-01 1.045244e-01 1.092444e-01 1.123210e-01 1.161516e-01 1.189039e-01 1.218682e-01 1.243468e-01 1.265084e-01 1.287915e-01 1.302440e-01 1.324290e-01 1.332852e-01 1.354781e-01 1.358590e-01 1.381631e-01 1.381855e-01 1.406892e-01 1.404534e-01 1.432179e-01 1.427971e-01 1.458466e-01 1.452788e-01 1.485941e-01 1.478785e-01 1.513951e-01 1.504930e-01 1.541036e-01 1.529437e-01 1.565058e-01 1.549928e-01 1.583383e-01 1.563633e-01 1.593101e-01 1.567609e-01 1.591251e-01 1.558973e-01 1.575042e-01 1.535102e-01 1.542056e-01 1.493836e-01 1.490431e-01 1.433652e-01 1.419040e-01 1.353859e-01 1.327686e-01 1.254823e-01 1.217366e-01 1.138314e-01 1.090719e-01 1.008139e-01 
1.041820e-01 9.667283e-02 9.131925e-02 8.485817e-02 8.014499e-02 7.591497e-02 7.308865e-02 7.242685e-02 7.272625e-02 7.622282e-02 7.996784e-02 8.686563e-02 9.331984e-02 1.022576e-01 1.103990e-01 1.202227e-01 1.292119e-01 1.391224e-01 1.483445e-01 1.577935e-01 1.667931e-01 1.753862e-01 1.838154e-01 1.912583e-01 1.988483e-01 2.049196e-01 2.114669e-01 2.160064e-01 2.213654e-01 2.242671e-01 2.283461e-01 2.295549e-01 2.323116e-01 2.318196e-01 2.332565e-01 2.310984e-01 2.312570e-01 2.275062e-01 2.264599e-01 2.212229e-01 2.190701e-01 2.124812e-01 2.093381e-01 2.015543e-01 1.975484e-01 1.887460e-01 1.840113e-01 1.743834e-01 1.690566e-01 1.588137e-01 1.530340e-01 1.424082e-01 1.363200e-01 1.255758e-01 1.193368e-01 1.087921e-01 1.025901e-01 9.265474e-02 8.673936e-02 7.798074e-02 7.271587e-02 6.593615e-02 6.185420e-02 5.804919e-02 5.577461e-02 5.565278e-02 5.550093e-02 5.873164e-02 6.036522e-02 6.573484e-02 6.847603e-02 7.476812e-02 7.803157e-02 8.442258e-02 8.782369e-02 9.382770e-02 9.713807e-02 1.024830e-01 1.055784e-01 1.101245e-01 1.129521e-01 1.166472e-01 1.192073e-01 1.220622e-01 1.243964e-01 1.264693e-01 1.286513e-01 1.300358e-01 1.321620e-01 1.329745e-01 1.351533e-01 1.355211e-01 1.378600e-01 1.379069e-01 1.404991e-01 1.403316e-01 1.432416e-01 1.429362e-01 1.461885e-01 1.457822e-01 1.493536e-01 1.488399e-01 1.526577e-01 1.519881e-01 1.559333e-01 1.550247e-01 1.589412e-01 1.576859e-01 1.613919e-01 1.596706e-01 1.629719e-01 1.606656e-01 1.633686e-01 1.603702e-01 1.622944e-01 1.585187e-01 1.595079e-01 1.549001e-01 1.548323e-01 1.493770e-01 1.481737e-01 1.419043e-01 1.395417e-01 1.325538e-01 1.290770e-01 1.215499e-01 1.170977e-01 1.093332e-01 
1.107475e-01 1.042697e-01 9.969938e-02 9.445198e-02 9.060574e-02 8.757922e-02 8.547683e-02 8.561134e-02 8.614839e-02 8.976194e-02 9.318130e-02 9.970478e-02 1.055312e-01 1.139396e-01 1.214035e-01 1.307246e-01 1.390997e-01 1.485842e-01 1.572821e-01 1.663786e-01 1.749376e-01 1.832358e-01 1.912931e-01 1.984825e-01 2.057544e-01 2.116013e-01 2.178719e-01 2.222068e-01 2.273218e-01 2.300330e-01 2.338946e-01 2.349237e-01 2.374865e-01 2.368245e-01 2.380899e-01 2.357724e-01 2.357825e-01 2.318853e-01 2.307154e-01 2.253484e-01 2.230994e-01 2.164018e-01 2.131925e-01 2.053281e-01 2.012885e-01 1.924417e-01 1.877081e-01 1.780825e-01 1.727942e-01 1.626139e-01 1.569133e-01 1.464288e-01 1.404646e-01 1.299649e-01 1.239019e-01 1.137363e-01 1.077724e-01 9.838581e-02 9.278037e-02 8.475927e-02 7.986915e-02 7.396130e-02 7.025109e-02 6.723710e-02 6.516546e-02 6.544381e-02 6.518099e-02 6.835525e-02 6.962217e-02 7.470120e-02 7.697773e-02 8.294332e-02 8.574278e-02 9.184274e-02 9.481184e-02 1.005628e-01 1.034726e-01 1.085847e-01 1.113004e-01 1.156152e-01 1.180727e-01 1.215242e-01 1.237152e-01 1.263067e-01 1.282684e-01 1.300567e-01 1.318635e-01 1.329467e-01 1.347006e-01 1.352051e-01 1.370247e-01 1.370912e-01 1.390976e-01 1.388653e-01 1.411665e-01 1.407565e-01 1.434304e-01 1.429304e-01 1.460116e-01 1.454647e-01 1.489347e-01 1.483348e-01 1.521202e-01 1.514145e-01 1.553915e-01 1.544898e-01 1.584946e-01 1.572823e-01 1.611246e-01 1.594772e-01 1.629548e-01 1.607519e-01 1.636649e-01 1.608018e-01 1.629656e-01 1.593639e-01 1.606207e-01 1.562370e-01 1.564662e-01 1.513004e-01 1.504292e-01 1.445355e-01 1.425504e-01 1.360510e-01 1.330145e-01 1.261222e-01 1.221979e-01 1.152523e-01 
1.213095e-01 1.153861e-01 1.111726e-01 1.064903e-01 1.029421e-01 1.003439e-01 9.833615e-02 9.857554e-02 9.887053e-02 1.022185e-01 1.050970e-01 1.111489e-01 1.163162e-01 1.242430e-01 1.310834e-01 1.400099e-01 1.478630e-01 1.570556e-01 1.653419e-01 1.742323e-01 1.824760e-01 1.906304e-01 1.984496e-01 2.055370e-01 2.126306e-01 2.184014e-01 2.245398e-01 2.288133e-01 2.338321e-01 2.364896e-01 2.402847e-01 2.412635e-01 2.437863e-01 2.430758e-01 2.443267e-01 2.419634e-01 2.419852e-01 2.380471e-01 2.369167e-01 2.315182e-01 2.293386e-01 2.226245e-01 2.195162e-01 2.116571e-01 2.077513e-01 1.989399e-01 1.943731e-01 1.848224e-01 1.797327e-01 1.696778e-01 1.642050e-01 1.539078e-01 1.481965e-01 1.379567e-01 1.321647e-01 1.223372e-01 1.166494e-01 1.076680e-01 1.023166e-01 9.471636e-02 9.000111e-02 8.440482e-02 8.068805e-02 7.768576e-02 7.531102e-02 7.518528e-02 7.430902e-02 7.678341e-02 7.726229e-02 8.158996e-02 8.306703e-02 8.838564e-02 9.046633e-02 9.606007e-02 9.841834e-02 1.037830e-01 1.061860e-01 1.109984e-01 1.132972e-01 1.173699e-01 1.194854e-01 1.227317e-01 1.246429e-01 1.270535e-01 1.287890e-01 1.304158e-01 1.320455e-01 1.329877e-01 1.346143e-01 1.350052e-01 1.367523e-01 1.367434e-01 1.387405e-01 1.384840e-01 1.408485e-01 1.404772e-01 1.432951e-01 1.429042e-01 1.462129e-01 1.458458e-01 1.496230e-01 1.492662e-01 1.534273e-01 1.530136e-01 1.574181e-01 1.568392e-01 1.613032e-01 1.604257e-01 1.647388e-01 1.634223e-01 1.673643e-01 1.654776e-01 1.688347e-01 1.662685e-01 1.688469e-01 1.655246e-01 1.671627e-01 1.630489e-01 1.636274e-01 1.587357e-01 1.581879e-01 1.525901e-01 1.509134e-01 1.447527e-01 1.420235e-01 1.355342e-01 1.319316e-01 1.254684e-01 
1.297854e-01 1.248652e-01 1.213795e-01 1.177653e-01 1.149325e-01 1.133070e-01 1.118537e-01 1.127576e-01 1.132810e-01 1.168619e-01 1.195947e-01 1.255136e-01 1.302643e-01 1.378596e-01 1.441611e-01 1.526951e-01 1.599937e-01 1.688040e-01 1.765725e-01 1.851150e-01 1.928950e-01 2.007381e-01 2.081475e-01 2.149540e-01 2.216849e-01 2.271977e-01 2.330124e-01 2.370444e-01 2.417719e-01 2.441997e-01 2.477315e-01 2.484901e-01 2.507755e-01 2.498541e-01 2.508940e-01 2.483305e-01 2.481696e-01 2.440456e-01 2.427640e-01 2.371987e-01 2.349027e-01 2.280474e-01 2.248612e-01 2.168943e-01 2.129518e-01 2.040755e-01 1.995152e-01 1.899541e-01 1.849151e-01 1.749181e-01 1.695406e-01 1.593863e-01 1.538149e-01 1.438218e-01 1.382141e-01 1.287558e-01 1.232948e-01 1.148154e-01 1.097253e-01 1.027439e-01 9.829973e-02 9.336902e-02 8.987750e-02 8.745176e-02 8.517406e-02 8.539390e-02 8.442666e-02 8.697741e-02 8.719119e-02 9.140582e-02 9.251003e-02 9.762928e-02 9.929222e-02 1.046614e-01 1.065921e-01 1.117259e-01 1.137029e-01 1.182746e-01 1.201479e-01 1.239595e-01 1.256439e-01 1.285993e-01 1.300685e-01 1.321535e-01 1.334339e-01 1.347020e-01 1.358670e-01 1.364261e-01 1.375883e-01 1.375870e-01 1.388859e-01 1.384966e-01 1.400823e-01 1.394804e-01 1.414927e-01 1.408329e-01 1.433775e-01 1.427710e-01 1.458991e-01 1.453964e-01 1.490908e-01 1.486756e-01 1.528482e-01 1.524432e-01 1.569436e-01 1.564267e-01 1.610580e-01 1.602832e-01 1.648215e-01 1.636399e-01 1.678533e-01 1.661308e-01 1.697964e-01 1.674272e-01 1.703454e-01 1.672619e-01 1.692682e-01 1.654487e-01 1.664246e-01 1.619004e-01 1.617834e-01 1.566470e-01 1.554425e-01 1.498596e-01 1.476561e-01 1.418825e-01 1.388729e-01 1.332760e-01 
1.418568e-01 1.373933e-01 1.341725e-01 1.309835e-01 1.283339e-01 1.270132e-01 1.255871e-01 1.265908e-01 1.269306e-01 1.303909e-01 1.327468e-01 1.383962e-01 1.426607e-01 1.499382e-01 1.557370e-01 1.639762e-01 1.708161e-01 1.793837e-01 1.867629e-01 1.951168e-01 2.025793e-01 2.102778e-01 2.174333e-01 2.241263e-01 2.306559e-01 2.360745e-01 2.417299e-01 2.456780e-01 2.502802e-01 2.526281e-01 2.560635e-01 2.567429e-01 2.589589e-01 2.579580e-01 2.589556e-01 2.563140e-01 2.561400e-01 2.519425e-01 2.506799e-01 2.450508e-01 2.428092e-01 2.359064e-01 2.328121e-01 2.248221e-01 2.210101e-01 2.121439e-01 2.077515e-01 1.982432e-01 1.934063e-01 1.835137e-01 1.783662e-01 1.683753e-01 1.630519e-01 1.532842e-01 1.479275e-01 1.387490e-01 1.335195e-01 1.253476e-01 1.204345e-01 1.137295e-01 1.093558e-01 1.045762e-01 1.009833e-01 9.848132e-02 9.587779e-02 9.575294e-02 9.423842e-02 9.624329e-02 9.575968e-02 9.935665e-02 9.971134e-02 1.042467e-01 1.051852e-01 1.100509e-01 1.113238e-01 1.160375e-01 1.174376e-01 1.216560e-01 1.230320e-01 1.265364e-01 1.277954e-01 1.304726e-01 1.315787e-01 1.334035e-01 1.343757e-01 1.353975e-01 1.363061e-01 1.366362e-01 1.375960e-01 1.373941e-01 1.385536e-01 1.380096e-01 1.395333e-01 1.388438e-01 1.408885e-01 1.402289e-01 1.429156e-01 1.424112e-01 1.457984e-01 1.455026e-01 1.495694e-01 1.494553e-01 1.540981e-01 1.540666e-01 1.591103e-01 1.590112e-01 1.642297e-01 1.638886e-01 1.690288e-01 1.682729e-01 1.730775e-01 1.717565e-01 1.759830e-01 1.739838e-01 1.774198e-01 1.746760e-01 1.771512e-01 1.736498e-01 1.750459e-01 1.708322e-01 1.710926e-01 1.662766e-01 1.654160e-01 1.601812e-01 1.582996e-01 1.529153e-01 1.502146e-01 1.450508e-01 
1.521285e-01 1.486292e-01 1.460913e-01 1.438702e-01 1.418478e-01 1.413801e-01 1.404296e-01 1.420453e-01 1.426178e-01 1.463804e-01 1.486944e-01 1.543619e-01 1.583560e-01 1.654561e-01 1.708428e-01 1.788020e-01 1.851694e-01 1.934192e-01 2.003196e-01 2.083524e-01 2.153577e-01 2.227455e-01 2.294759e-01 2.358716e-01 2.420089e-01 2.471418e-01 2.524349e-01 2.561059e-01 2.603724e-01 2.624498e-01 2.655744e-01 2.659892e-01 2.679194e-01 2.666609e-01 2.674004e-01 2.645109e-01 2.641107e-01 2.596798e-01 2.582280e-01 2.523862e-01 2.499974e-01 2.429104e-01 2.397154e-01 2.315789e-01 2.277158e-01 2.187513e-01 2.143587e-01 2.048120e-01 2.000247e-01 1.901669e-01 1.851160e-01 1.752467e-01 1.700620e-01 1.605156e-01 1.553326e-01 1.464834e-01 1.414525e-01 1.337142e-01 1.290087e-01 1.228154e-01 1.186327e-01 1.143845e-01 1.109282e-01 1.088927e-01 1.063283e-01 1.065276e-01 1.049260e-01 1.070839e-01 1.063894e-01 1.099943e-01 1.100427e-01 1.144889e-01 1.150598e-01 1.197765e-01 1.206453e-01 1.251664e-01 1.261374e-01 1.301206e-01 1.310441e-01 1.342650e-01 1.350445e-01 1.373835e-01 1.379799e-01 1.394097e-01 1.398420e-01 1.404170e-01 1.407622e-01 1.406076e-01 1.409954e-01 1.402939e-01 1.408967e-01 1.398693e-01 1.408826e-01 1.397615e-01 1.413757e-01 1.403697e-01 1.427356e-01 1.419936e-01 1.451891e-01 1.447726e-01 1.487815e-01 1.486549e-01 1.533647e-01 1.534082e-01 1.586259e-01 1.586645e-01 1.641430e-01 1.639810e-01 1.694475e-01 1.688989e-01 1.740802e-01 1.729910e-01 1.776329e-01 1.758953e-01 1.797777e-01 1.773373e-01 1.802858e-01 1.771462e-01 1.790417e-01 1.752670e-01 1.760547e-01 1.717740e-01 1.714734e-01 1.668863e-01 1.656028e-01 1.609878e-01 1.589269e-01 1.546472e-01 
1.657247e-01 1.626019e-01 1.602620e-01 1.583787e-01 1.564740e-01 1.562540e-01 1.553035e-01 1.570345e-01 1.574654e-01 1.612036e-01 1.632449e-01 1.687814e-01 1.724154e-01 1.793303e-01 1.843247e-01 1.920896e-01 1.980771e-01 2.061491e-01 2.127076e-01 2.205875e-01 2.272980e-01 2.345556e-01 2.410368e-01 2.473182e-01 2.532456e-01 2.582726e-01 2.633881e-01 2.669554e-01 2.710710e-01 2.730423e-01 2.760399e-01 2.763443e-01 2.781714e-01 2.767983e-01 2.774610e-01 2.744549e-01 2.740083e-01 2.694632e-01 2.680002e-01 2.620529e-01 2.596926e-01 2.525165e-01 2.493929e-01 2.411924e-01 2.374447e-01 2.284508e-01 2.242153e-01 2.146828e-01 2.100890e-01 2.002964e-01 1.954651e-01 1.857159e-01 1.807623e-01 1.713876e-01 1.664268e-01 1.577864e-01 1.529413e-01 1.454174e-01 1.408259e-01 1.348004e-01 1.306178e-01 1.264240e-01 1.228113e-01 1.206586e-01 1.177544e-01 1.176479e-01 1.155296e-01 1.172335e-01 1.158894e-01 1.189672e-01 1.182975e-01 1.222132e-01 1.220582e-01 1.262815e-01 1.264594e-01 1.305357e-01 1.308737e-01 1.344545e-01 1.348107e-01 1.376579e-01 1.379343e-01 1.399151e-01 1.400663e-01 1.411441e-01 1.411833e-01 1.414097e-01 1.414112e-01 1.409172e-01 1.410154e-01 1.399996e-01 1.403805e-01 1.390903e-01 1.399723e-01 1.386743e-01 1.402768e-01 1.392152e-01 1.417163e-01 1.410662e-01 1.445593e-01 1.443892e-01 1.488550e-01 1.491132e-01 1.544161e-01 1.549481e-01 1.608578e-01 1.614444e-01 1.676706e-01 1.680728e-01 1.743011e-01 1.742978e-01 1.802198e-01 1.796342e-01 1.849695e-01 1.836832e-01 1.881950e-01 1.861549e-01 1.896613e-01 1.868809e-01 1.892630e-01 1.858223e-01 1.870316e-01 1.830779e-01 1.831437e-01 1.788934e-01 1.779319e-01 1.736739e-01 1.718984e-01 1.679948e-01 
1.778323e-01 1.756488e-01 1.739681e-01 1.729974e-01 1.716757e-01 1.722529e-01 1.717455e-01 1.740762e-01 1.747543e-01 1.788501e-01 1.809214e-01 1.865827e-01 1.900525e-01 1.969091e-01 2.015981e-01 2.091834e-01 2.147823e-01 2.226051e-01 2.287383e-01 2.363339e-01 2.426120e-01 2.495693e-01 2.556263e-01 2.616004e-01 2.671177e-01 2.718338e-01 2.765545e-01 2.798084e-01 2.835447e-01 2.852010e-01 2.878362e-01 2.878254e-01 2.893107e-01 2.876251e-01 2.879721e-01 2.846610e-01 2.839322e-01 2.790954e-01 2.773917e-01 2.711740e-01 2.686219e-01 2.612058e-01 2.579454e-01 2.495459e-01 2.457198e-01 2.365792e-01 2.323243e-01 2.227098e-01 2.181525e-01 2.083546e-01 2.036096e-01 1.939431e-01 1.891160e-01 1.799206e-01 1.751142e-01 1.667517e-01 1.620738e-01 1.549172e-01 1.504875e-01 1.448927e-01 1.408442e-01 1.371001e-01 1.335689e-01 1.318286e-01 1.289297e-01 1.291487e-01 1.269445e-01 1.288608e-01 1.273391e-01 1.305175e-01 1.295901e-01 1.335109e-01 1.330344e-01 1.371827e-01 1.369876e-01 1.409158e-01 1.408347e-01 1.441926e-01 1.440822e-01 1.466259e-01 1.463835e-01 1.479745e-01 1.475507e-01 1.481517e-01 1.475602e-01 1.472306e-01 1.465549e-01 1.454451e-01 1.448403e-01 1.431820e-01 1.428680e-01 1.409544e-01 1.411959e-01 1.393483e-01 1.404164e-01 1.389320e-01 1.410509e-01 1.401419e-01 1.434332e-01 1.431771e-01 1.476241e-01 1.479486e-01 1.533956e-01 1.541060e-01 1.602909e-01 1.611242e-01 1.677238e-01 1.684067e-01 1.750792e-01 1.753720e-01 1.817890e-01 1.815116e-01 1.873793e-01 1.864226e-01 1.914953e-01 1.898232e-01 1.939136e-01 1.915599e-01 1.945466e-01 1.916116e-01 1.934453e-01 1.900930e-01 1.908036e-01 1.872605e-01 1.869642e-01 1.835175e-01 1.824240e-01 1.794171e-01 
1.930959e-01 1.912302e-01 1.897013e-01 1.890184e-01 1.877780e-01 1.885829e-01 1.880688e-01 1.905429e-01 1.911165e-01 1.952650e-01 1.971410e-01 2.027785e-01 2.059868e-01 2.127689e-01 2.171631e-01 2.246484e-01 2.299490e-01 2.376640e-01 2.435152e-01 2.510030e-01 2.570244e-01 2.638749e-01 2.697011e-01 2.755667e-01 2.808754e-01 2.854772e-01 2.900069e-01 2.931372e-01 2.966973e-01 2.982184e-01 3.006919e-01 3.005340e-01 3.018746e-01 3.000315e-01 3.002565e-01 2.967808e-01 2.959595e-01 2.909568e-01 2.891975e-01 2.828196e-01 2.802558e-01 2.726943e-01 2.694705e-01 2.609504e-01 2.572109e-01 2.479848e-01 2.438638e-01 2.342081e-01 2.298243e-01 2.200361e-01 2.154916e-01 2.058873e-01 2.012691e-01 1.921823e-01 1.875691e-01 1.793446e-01 1.748148e-01 1.677948e-01 1.634346e-01 1.579318e-01 1.538395e-01 1.500946e-01 1.463759e-01 1.445043e-01 1.412580e-01 1.412048e-01 1.384996e-01 1.400263e-01 1.378800e-01 1.405964e-01 1.389668e-01 1.423988e-01 1.411909e-01 1.448546e-01 1.439390e-01 1.473993e-01 1.466353e-01 1.495409e-01 1.487984e-01 1.508967e-01 1.500760e-01 1.512182e-01 1.502661e-01 1.504067e-01 1.493312e-01 1.485272e-01 1.474090e-01 1.458179e-01 1.448172e-01 1.426911e-01 1.420465e-01 1.397167e-01 1.397277e-01 1.375696e-01 1.385557e-01 1.369278e-01 1.391622e-01 1.383256e-01 1.419608e-01 1.420085e-01 1.470248e-01 1.478584e-01 1.540634e-01 1.554294e-01 1.625023e-01 1.640664e-01 1.716195e-01 1.730424e-01 1.806752e-01 1.816669e-01 1.890036e-01 1.893534e-01 1.960664e-01 1.956526e-01 2.014763e-01 2.002654e-01 2.050046e-01 2.030440e-01 2.065790e-01 2.039891e-01 2.062797e-01 2.032463e-01 2.043353e-01 2.011039e-01 2.011209e-01 1.979911e-01 1.971562e-01 1.944727e-01 
2.072034e-01 2.062717e-01 2.053981e-01 2.056070e-01 2.049351e-01 2.065215e-01 2.064452e-01 2.095318e-01 2.103763e-01 2.149359e-01 2.169014e-01 2.227501e-01 2.258795e-01 2.327014e-01 2.368818e-01 2.442764e-01 2.492693e-01 2.568019e-01 2.622880e-01 2.695318e-01 2.751567e-01 2.817217e-01 2.871355e-01 2.926864e-01 2.975746e-01 3.018398e-01 3.059451e-01 3.087218e-01 3.118566e-01 3.130112e-01 3.150634e-01 3.145304e-01 3.154614e-01 3.132397e-01 3.130766e-01 3.092253e-01 3.080492e-01 3.026819e-01 3.006130e-01 2.938912e-01 2.910736e-01 2.832000e-01 2.797867e-01 2.709984e-01 2.671380e-01 2.577004e-01 2.535273e-01 2.437296e-01 2.393578e-01 2.295091e-01 2.250312e-01 2.154578e-01 2.109477e-01 2.019891e-01 1.975091e-01 1.895096e-01 1.851198e-01 1.784114e-01 1.741789e-01 1.690521e-01 1.650565e-01 1.617176e-01 1.580479e-01 1.565718e-01 1.533133e-01 1.536072e-01 1.508211e-01 1.526199e-01 1.503230e-01 1.532239e-01 1.513780e-01 1.549029e-01 1.534177e-01 1.570808e-01 1.558288e-01 1.591901e-01 1.580271e-01 1.607265e-01 1.595144e-01 1.612894e-01 1.599182e-01 1.606118e-01 1.590199e-01 1.585850e-01 1.567786e-01 1.552808e-01 1.533500e-01 1.509710e-01 1.491020e-01 1.461379e-01 1.446159e-01 1.414646e-01 1.406567e-01 1.377790e-01 1.380861e-01 1.359287e-01 1.376996e-01 1.365867e-01 1.400167e-01 1.400518e-01 1.451166e-01 1.461550e-01 1.526189e-01 1.543292e-01 1.618139e-01 1.637855e-01 1.718530e-01 1.736940e-01 1.819083e-01 1.833054e-01 1.912689e-01 1.920126e-01 1.993845e-01 1.993705e-01 2.058768e-01 2.050968e-01 2.105362e-01 2.090642e-01 2.133125e-01 2.112911e-01 2.143046e-01 2.119344e-01 2.137527e-01 2.112836e-01 2.120321e-01 2.097541e-01 2.096447e-01 2.078764e-01 
2.243725e-01 2.237183e-01 2.229649e-01 2.234377e-01 2.228291e-01 2.246472e-01 2.245710e-01 2.278406e-01 2.286187e-01 2.333046e-01 2.351422e-01 2.410624e-01 2.440163e-01 2.508642e-01 2.548403e-01 2.622263e-01 2.670038e-01 2.745015e-01 2.797733e-01 2.869602e-01 2.923768e-01 2.988638e-01 3.040747e-01 3.095256e-01 3.142127e-01 3.183545e-01 3.222569e-01 3.248861e-01 3.278153e-01 3.287989e-01 3.306454e-01 3.299193e-01 3.306509e-01 3.282172e-01 3.278703e-01 3.237929e-01 3.224595e-01 3.168586e-01 3.146703e-01 3.077161e-01 3.048270e-01 2.967327e-01 2.933029e-01 2.843176e-01 2.804984e-01 2.708995e-01 2.668229e-01 2.569102e-01 2.526817e-01 2.427715e-01 2.384686e-01 2.288886e-01 2.245640e-01 2.156471e-01 2.113366e-01 2.034102e-01 1.991433e-01 1.925120e-01 1.883237e-01 1.832418e-01 1.791807e-01 1.758169e-01 1.719476e-01 1.703477e-01 1.667431e-01 1.668036e-01 1.635291e-01 1.649952e-01 1.620894e-01 1.645834e-01 1.620432e-01 1.651152e-01 1.628904e-01 1.660757e-01 1.640755e-01 1.669449e-01 1.650530e-01 1.672472e-01 1.653420e-01 1.665929e-01 1.645699e-01 1.647120e-01 1.625072e-01 1.614849e-01 1.590973e-01 1.569718e-01 1.544854e-01 1.514432e-01 1.490466e-01 1.454059e-01 1.434053e-01 1.396138e-01 1.384259e-01 1.350283e-01 1.351336e-01 1.326848e-01 1.345229e-01 1.334425e-01 1.372702e-01 1.376959e-01 1.434859e-01 1.452249e-01 1.526758e-01 1.552915e-01 1.639286e-01 1.668922e-01 1.761805e-01 1.790004e-01 1.884226e-01 1.907167e-01 1.998141e-01 2.013345e-01 2.097256e-01 2.103562e-01 2.177448e-01 2.174850e-01 2.236638e-01 2.226086e-01 2.274598e-01 2.257801e-01 2.292748e-01 2.272005e-01 2.293976e-01 2.272039e-01 2.282484e-01 2.262431e-01 2.263632e-01 2.248720e-01 