# vtk DataFile Version 2.0
Comment goes here
ASCII

DATASET STRUCTURED_POINTS
FIELD FieldData 1
TIME 1 1 double
0.03500000
DIMENSIONS    128   128   1

ORIGIN    0.000   0.000   0.000
SPACING   0.039062 0.039062   1.000

POINT_DATA   16384
SCALARS uMag double
LOOKUP_TABLE default

8.012026e-01 8.280278e-01 8.514714e-01 8.753805e-01 8.963229e-01 9.171670e-01 9.354712e-01 9.530746e-01 9.685764e-01 9.827391e-01 9.952511e-01 1.005754e+00 1.015070e+00 1.021682e+00 1.027586e+00 1.030071e+00 1.032341e+00 1.030471e+00 1.028894e+00 1.022457e+00 1.016835e+00 1.005650e+00 9.958108e-01 9.797360e-01 9.655424e-01 9.444877e-01 9.258468e-01 8.997817e-01 8.766512e-01 8.456121e-01 8.180060e-01 7.821000e-01 7.500923e-01 7.095004e-01 6.732269e-01 6.282034e-01 5.878631e-01 5.387336e-01 4.945885e-01 4.417471e-01 3.941215e-01 3.380271e-01 2.873069e-01 2.284786e-01 1.751111e-01 1.141246e-01 5.861751e-02 3.898698e-03 6.097757e-02 1.243457e-01 1.823699e-01 2.458666e-01 3.041536e-01 3.670145e-01 4.248296e-01 4.862557e-01 5.428196e-01 6.019853e-01 6.564842e-01 7.125489e-01 7.641490e-01 8.162716e-01 8.641369e-01 9.114939e-01 9.548080e-01 9.966150e-01 1.034606e+00 1.070141e+00 1.102107e+00 1.130735e+00 1.156073e+00 1.177271e+00 1.195501e+00 1.208883e+00 1.219669e+00 1.225002e+00 1.228172e+00 1.225391e+00 1.220948e+00 1.210166e+00 1.198286e+00 1.179789e+00 1.160821e+00 1.135063e+00 1.109510e+00 1.077092e+00 1.045592e+00 1.007238e+00 9.705357e-01 9.270635e-01 8.859738e-01 8.382592e-01 7.936360e-01 7.425783e-01 6.952786e-01 6.417671e-01 5.926199e-01 5.375038e-01 4.872838e-01 4.313480e-01 3.807548e-01 3.247021e-01 2.743465e-01 2.187869e-01 1.691845e-01 1.146304e-01 6.620048e-02 1.306909e-02 3.386071e-02 8.524160e-02 1.304264e-01 1.798080e-01 2.230741e-01 2.702745e-01 3.115061e-01 3.563963e-01 3.955216e-01 4.380118e-01 4.749892e-01 5.150148e-01 5.498198e-01 5.873291e-01 6.199426e-01 6.548857e-01 6.852837e-01 7.176022e-01 7.457475e-01 7.753673e-01 
8.033233e-01 8.300387e-01 8.534278e-01 8.772340e-01 8.981355e-01 9.188816e-01 9.371566e-01 9.546657e-01 9.701491e-01 9.842200e-01 9.967237e-01 1.007137e+00 1.016454e+00 1.022977e+00 1.028892e+00 1.031290e+00 1.033581e+00 1.031625e+00 1.030079e+00 1.023560e+00 1.017979e+00 1.006716e+00 9.969301e-01 9.807842e-01 9.666573e-01 9.455414e-01 9.269829e-01 9.008706e-01 8.778410e-01 8.467743e-01 8.192916e-01 7.833860e-01 7.515305e-01 7.109786e-01 6.748969e-01 6.299721e-01 5.898821e-01 5.409441e-01 4.971461e-01 4.446568e-01 3.975614e-01 3.421410e-01 2.923705e-01 2.350360e-01 1.839404e-01 1.277690e-01 8.284706e-02 5.996575e-02 8.618322e-02 1.390808e-01 1.930733e-01 2.542774e-01 3.112378e-01 3.731746e-01 4.303679e-01 4.913131e-01 5.475433e-01 6.064209e-01 6.607353e-01 7.166099e-01 7.681138e-01 8.200999e-01 8.679251e-01 9.151750e-01 9.584848e-01 1.000199e+00 1.038207e+00 1.073653e+00 1.105647e+00 1.134184e+00 1.159551e+00 1.180649e+00 1.198902e+00 1.212172e+00 1.222970e+00 1.228176e+00 1.231346e+00 1.228424e+00 1.223964e+00 1.213027e+00 1.201116e+00 1.182454e+00 1.163444e+00 1.137515e+00 1.111913e+00 1.079324e+00 1.047775e+00 1.009258e+00 9.725116e-01 9.288935e-01 8.877746e-01 8.399414e-01 7.953135e-01 7.441777e-01 6.969106e-01 6.433792e-01 5.943208e-01 5.392710e-01 4.892279e-01 4.334962e-01 3.832341e-01 3.276395e-01 2.779370e-01 2.234287e-01 1.753923e-01 1.240208e-01 8.197119e-02 5.125630e-02 6.082116e-02 9.971649e-02 1.406350e-01 1.876626e-01 2.296241e-01 2.758973e-01 3.165000e-01 3.608901e-01 3.996391e-01 4.418070e-01 4.785297e-01 5.183219e-01 5.529410e-01 5.902669e-01 6.227383e-01 6.575284e-01 6.878151e-01 7.200004e-01 7.480575e-01 7.775578e-01 
8.055150e-01 8.321981e-01 8.554882e-01 8.793055e-01 9.001424e-01 9.209370e-01 9.391774e-01 9.567674e-01 9.722427e-01 9.864236e-01 9.989429e-01 1.009491e+00 1.018846e+00 1.025528e+00 1.031499e+00 1.034076e+00 1.036443e+00 1.034684e+00 1.033232e+00 1.026926e+00 1.021458e+00 1.010424e+00 1.000771e+00 9.848712e-01 9.708996e-01 9.500503e-01 9.316749e-01 9.058561e-01 8.830459e-01 8.523107e-01 8.250970e-01 7.895799e-01 7.580639e-01 7.179885e-01 6.823513e-01 6.380432e-01 5.985626e-01 5.504752e-01 5.075636e-01 4.563433e-01 4.106476e-01 3.573286e-01 3.100542e-01 2.567728e-01 2.110371e-01 1.645010e-01 1.326401e-01 1.198284e-01 1.347805e-01 1.735473e-01 2.191088e-01 2.746491e-01 3.279963e-01 3.873313e-01 4.426092e-01 5.021368e-01 5.571907e-01 6.152127e-01 6.687339e-01 7.240616e-01 7.749971e-01 8.266251e-01 8.740269e-01 9.210440e-01 9.640316e-01 1.005602e+00 1.043363e+00 1.078732e+00 1.110538e+00 1.139049e+00 1.164276e+00 1.185392e+00 1.203547e+00 1.216869e+00 1.227607e+00 1.232895e+00 1.236037e+00 1.233222e+00 1.228765e+00 1.217958e+00 1.206078e+00 1.187567e+00 1.168615e+00 1.142856e+00 1.117340e+00 1.084943e+00 1.053510e+00 1.015211e+00 9.786163e-01 9.352515e-01 8.943278e-01 8.467972e-01 8.024241e-01 7.516638e-01 7.047369e-01 6.516933e-01 6.031052e-01 5.487249e-01 4.993653e-01 4.446191e-01 3.954241e-01 3.414248e-01 2.935808e-01 2.420433e-01 1.978389e-01 1.532354e-01 1.205436e-01 1.008176e-01 1.046352e-01 1.301005e-01 1.627162e-01 2.041114e-01 2.426787e-01 2.864398e-01 3.253169e-01 3.683540e-01 4.060750e-01 4.474251e-01 4.834716e-01 5.227359e-01 5.568814e-01 5.938561e-01 6.259829e-01 6.605396e-01 6.905703e-01 7.226070e-01 7.504733e-01 7.798895e-01 
8.119381e-01 8.383726e-01 8.614584e-01 8.850831e-01 9.057760e-01 9.264244e-01 9.445736e-01 9.620568e-01 9.774883e-01 9.915959e-01 1.004115e+00 1.014619e+00 1.024014e+00 1.030676e+00 1.036726e+00 1.039306e+00 1.041789e+00 1.040055e+00 1.038756e+00 1.032497e+00 1.027223e+00 1.016260e+00 1.006844e+00 9.910451e-01 9.773596e-01 9.566505e-01 9.386197e-01 9.129947e-01 8.906010e-01 8.601353e-01 8.334304e-01 7.982914e-01 7.674077e-01 7.278702e-01 6.930394e-01 6.495111e-01 6.110971e-01 5.641718e-01 5.227442e-01 4.733278e-01 4.298447e-01 3.794943e-01 3.358258e-01 2.877910e-01 2.484148e-01 2.110154e-01 1.879254e-01 1.800566e-01 1.909619e-01 2.209083e-01 2.587025e-01 3.078480e-01 3.566096e-01 4.123942e-01 4.650038e-01 5.224473e-01 5.758477e-01 6.325599e-01 6.850088e-01 7.394691e-01 7.896939e-01 8.407244e-01 8.876543e-01 9.342459e-01 9.769246e-01 1.018181e+00 1.055745e+00 1.090871e+00 1.122556e+00 1.150868e+00 1.176023e+00 1.196961e+00 1.215071e+00 1.228223e+00 1.238928e+00 1.244044e+00 1.247155e+00 1.244162e+00 1.239670e+00 1.228678e+00 1.216761e+00 1.198061e+00 1.179075e+00 1.153134e+00 1.127596e+00 1.095038e+00 1.063609e+00 1.025191e+00 9.886467e-01 9.452290e-01 9.044278e-01 8.569461e-01 8.128010e-01 7.622385e-01 7.156932e-01 6.630653e-01 6.150860e-01 5.614492e-01 5.130502e-01 4.595700e-01 4.119222e-01 3.600935e-01 3.148682e-01 2.672131e-01 2.277039e-01 1.900480e-01 1.645460e-01 1.505828e-01 1.528658e-01 1.712567e-01 1.969193e-01 2.322626e-01 2.665674e-01 3.068978e-01 3.432653e-01 3.842410e-01 4.203542e-01 4.603565e-01 4.952934e-01 5.336153e-01 5.669536e-01 6.032366e-01 6.347556e-01 6.687874e-01 6.983519e-01 7.299820e-01 7.574890e-01 7.865872e-01 
8.183648e-01 8.446357e-01 8.674786e-01 8.910306e-01 9.115606e-01 9.322142e-01 9.502708e-01 9.678271e-01 9.832287e-01 9.974692e-01 1.010015e+00 1.020705e+00 1.030179e+00 1.037074e+00 1.043253e+00 1.046107e+00 1.048765e+00 1.047343e+00 1.046266e+00 1.040354e+00 1.035347e+00 1.024767e+00 1.015667e+00 1.000290e+00 9.869784e-01 9.667374e-01 9.491480e-01 9.240536e-01 9.021861e-01 8.723388e-01 8.462714e-01 8.118786e-01 7.817847e-01 7.431836e-01 7.093590e-01 6.670564e-01 6.299695e-01 5.847210e-01 5.451180e-01 4.981036e-01 4.572498e-01 4.104936e-01 3.707689e-01 3.281851e-01 2.945373e-01 2.641626e-01 2.463562e-01 2.409025e-01 2.493297e-01 2.734354e-01 3.048754e-01 3.479817e-01 3.918235e-01 4.435713e-01 4.928876e-01 5.477455e-01 5.989130e-01 6.539304e-01 7.048127e-01 7.581330e-01 8.072262e-01 8.574780e-01 9.035745e-01 9.496336e-01 9.916925e-01 1.032591e+00 1.069694e+00 1.104590e+00 1.135935e+00 1.164113e+00 1.189023e+00 1.209901e+00 1.227843e+00 1.240992e+00 1.251591e+00 1.256749e+00 1.259806e+00 1.256891e+00 1.252392e+00 1.241509e+00 1.229627e+00 1.211066e+00 1.192157e+00 1.166387e+00 1.140972e+00 1.108626e+00 1.077375e+00 1.039224e+00 1.002926e+00 9.598537e-01 9.193913e-01 8.723667e-01 8.286865e-01 7.787433e-01 7.328405e-01 6.810701e-01 6.339913e-01 5.815698e-01 5.344606e-01 4.827504e-01 4.370024e-01 3.878274e-01 3.454704e-01 3.018236e-01 2.665005e-01 2.341167e-01 2.127346e-01 2.010044e-01 2.014687e-01 2.147609e-01 2.346676e-01 2.642585e-01 2.940202e-01 3.304465e-01 3.638003e-01 4.022525e-01 4.363345e-01 4.746554e-01 5.081635e-01 5.453258e-01 5.776209e-01 6.130855e-01 6.438231e-01 6.772737e-01 7.062451e-01 7.374682e-01 7.645248e-01 7.933508e-01 
8.289949e-01 8.548950e-01 8.773998e-01 9.006816e-01 9.209763e-01 9.414450e-01 9.593571e-01 9.768016e-01 9.921406e-01 1.006332e+00 1.018891e+00 1.029587e+00 1.039143e+00 1.046092e+00 1.052418e+00 1.055370e+00 1.058239e+00 1.056954e+00 1.056153e+00 1.050416e+00 1.045752e+00 1.035389e+00 1.026705e+00 1.011595e+00 9.987800e-01 9.788698e-01 9.618735e-01 9.371958e-01 9.160388e-01 8.867282e-01 8.615195e-01 8.278333e-01 7.987921e-01 7.611414e-01 7.286321e-01 6.876345e-01 6.522318e-01 6.088109e-01 5.714279e-01 5.270181e-01 4.891722e-01 4.461477e-01 4.105183e-01 3.730445e-01 3.444764e-01 3.196343e-01 3.057451e-01 3.022670e-01 3.096217e-01 3.302685e-01 3.572322e-01 3.955141e-01 4.350112e-01 4.829069e-01 5.289546e-01 5.810928e-01 6.299368e-01 6.830689e-01 7.323157e-01 7.843192e-01 8.322657e-01 8.815863e-01 9.268863e-01 9.722782e-01 1.013793e+00 1.054206e+00 1.090947e+00 1.125479e+00 1.156589e+00 1.184482e+00 1.209242e+00 1.229881e+00 1.247725e+00 1.260657e+00 1.271185e+00 1.276131e+00 1.279129e+00 1.275998e+00 1.271443e+00 1.260336e+00 1.248401e+00 1.229615e+00 1.210663e+00 1.184682e+00 1.159250e+00 1.126728e+00 1.095508e+00 1.057247e+00 1.021058e+00 9.779828e-01 9.377459e-01 8.908781e-01 8.475895e-01 7.980311e-01 7.527519e-01 7.016867e-01 6.555557e-01 6.042912e-01 5.585876e-01 5.086767e-01 4.649853e-01 4.185111e-01 3.790906e-01 3.392530e-01 3.077162e-01 2.796586e-01 2.614416e-01 2.515767e-01 2.513528e-01 2.617902e-01 2.777921e-01 3.029253e-01 3.287028e-01 3.614113e-01 3.916857e-01 4.274191e-01 4.592318e-01 4.955847e-01 5.274037e-01 5.631148e-01 5.941271e-01 6.284990e-01 6.582467e-01 6.908621e-01 7.190637e-01 7.496444e-01 7.761037e-01 8.044375e-01 
8.394988e-01 8.651268e-01 8.872657e-01 9.104081e-01 9.304575e-01 9.509018e-01 9.686759e-01 9.861972e-01 1.001495e+00 1.015853e+00 1.028458e+00 1.039400e+00 1.049085e+00 1.056350e+00 1.062882e+00 1.066211e+00 1.069360e+00 1.068508e+00 1.068057e+00 1.062807e+00 1.058565e+00 1.048739e+00 1.040555e+00 1.026037e+00 1.013807e+00 9.945562e-01 9.782435e-01 9.543133e-01 9.339609e-01 9.055189e-01 8.812686e-01 8.486230e-01 8.207416e-01 7.843784e-01 7.532995e-01 7.139438e-01 6.803422e-01 6.390686e-01 6.039957e-01 5.624341e-01 5.275717e-01 4.882815e-01 4.563867e-01 4.234339e-01 3.989052e-01 3.782205e-01 3.669215e-01 3.646895e-01 3.710975e-01 3.891883e-01 4.125294e-01 4.467660e-01 4.822407e-01 5.264801e-01 5.691435e-01 6.184784e-01 6.647035e-01 7.157914e-01 7.630557e-01 8.135894e-01 8.600407e-01 9.083105e-01 9.524834e-01 9.971306e-01 1.037799e+00 1.077692e+00 1.113802e+00 1.147985e+00 1.178632e+00 1.206304e+00 1.230732e+00 1.251249e+00 1.268865e+00 1.281750e+00 1.292136e+00 1.297093e+00 1.300017e+00 1.296941e+00 1.292371e+00 1.281357e+00 1.269461e+00 1.250804e+00 1.231942e+00 1.206129e+00 1.180846e+00 1.148543e+00 1.117542e+00 1.079572e+00 1.043693e+00 1.001012e+00 9.612042e-01 9.148799e-01 8.721808e-01 8.233748e-01 7.789026e-01 7.288801e-01 6.838504e-01 6.340259e-01 5.898176e-01 5.418751e-01 5.001824e-01 4.563175e-01 4.194338e-01 3.827470e-01 3.539357e-01 3.287110e-01 3.120890e-01 3.027536e-01 3.012830e-01 3.090265e-01 3.215099e-01 3.426005e-01 3.645611e-01 3.936072e-01 4.206995e-01 4.535926e-01 4.829452e-01 5.171856e-01 5.471253e-01 5.812744e-01 6.108425e-01 6.440582e-01 6.726877e-01 7.044512e-01 7.317851e-01 7.617493e-01 7.875402e-01 8.154461e-01 
8.541640e-01 8.793263e-01 9.010198e-01 9.238349e-01 9.435780e-01 9.638145e-01 9.814069e-01 9.988244e-01 1.014053e+00 1.028399e+00 1.041039e+00 1.052047e+00 1.061864e+00 1.069264e+00 1.076019e+00 1.079545e+00 1.083005e+00 1.082405e+00 1.082353e+00 1.077407e+00 1.073655e+00 1.064190e+00 1.056592e+00 1.042499e+00 1.030964e+00 1.012219e+00 9.967269e-01 9.734089e-01 9.540281e-01 9.263452e-01 9.032508e-01 8.715676e-01 8.450729e-01 8.099530e-01 7.805551e-01 7.428276e-01 7.112847e-01 6.721553e-01 6.396194e-01 6.008588e-01 5.690960e-01 5.333314e-01 5.050389e-01 4.760817e-01 4.551346e-01 4.378988e-01 4.288630e-01 4.278706e-01 4.339583e-01 4.505049e-01 4.713546e-01 5.025632e-01 5.348354e-01 5.759688e-01 6.156814e-01 6.624237e-01 7.062565e-01 7.553471e-01 8.007807e-01 8.498255e-01 8.949229e-01 9.420991e-01 9.852990e-01 1.029148e+00 1.069138e+00 1.108449e+00 1.144102e+00 1.177853e+00 1.208202e+00 1.235542e+00 1.259780e+00 1.280023e+00 1.297514e+00 1.310152e+00 1.320445e+00 1.325157e+00 1.327999e+00 1.324668e+00 1.320016e+00 1.308731e+00 1.296752e+00 1.277816e+00 1.258881e+00 1.232800e+00 1.207473e+00 1.174942e+00 1.143955e+00 1.105837e+00 1.070070e+00 1.027373e+00 9.878190e-01 9.416707e-01 8.994239e-01 8.510614e-01 8.073045e-01 7.580811e-01 7.141059e-01 6.655376e-01 6.228066e-01 5.766781e-01 5.369497e-01 4.954982e-01 4.610175e-01 4.271476e-01 4.007825e-01 3.780093e-01 3.628720e-01 3.542733e-01 3.522330e-01 3.583534e-01 3.684091e-01 3.864920e-01 4.053673e-01 4.312681e-01 4.554669e-01 4.856464e-01 5.125682e-01 5.446226e-01 5.725949e-01 6.050200e-01 6.330122e-01 6.648756e-01 6.922471e-01 7.229527e-01 7.492874e-01 7.784301e-01 8.034362e-01 8.307142e-01 
8.685188e-01 8.933321e-01 9.145664e-01 9.371995e-01 9.566381e-01 9.768404e-01 9.942679e-01 1.011783e+00 1.026975e+00 1.041534e+00 1.054255e+00 1.065583e+00 1.075589e+00 1.083401e+00 1.090448e+00 1.094468e+00 1.098317e+00 1.098283e+00 1.098715e+00 1.094402e+00 1.091228e+00 1.082458e+00 1.075537e+00 1.062205e+00 1.051454e+00 1.033547e+00 1.018960e+00 9.965794e-01 9.782456e-01 9.516345e-01 9.297605e-01 8.993349e-01 8.742761e-01 8.406698e-01 8.129778e-01 7.771088e-01 7.476065e-01 7.107799e-01 6.806807e-01 6.447445e-01 6.158261e-01 5.833712e-01 5.581749e-01 5.326703e-01 5.145459e-01 5.000497e-01 4.926080e-01 4.925432e-01 4.982200e-01 5.135627e-01 5.322581e-01 5.609631e-01 5.903133e-01 6.286791e-01 6.654921e-01 7.097728e-01 7.510814e-01 7.981829e-01 8.415487e-01 8.890593e-01 9.325143e-01 9.785385e-01 1.020459e+00 1.063461e+00 1.102470e+00 1.141173e+00 1.176086e+00 1.209417e+00 1.239221e+00 1.266286e+00 1.290134e+00 1.310215e+00 1.327441e+00 1.340003e+00 1.350131e+00 1.354834e+00 1.357592e+00 1.354302e+00 1.349632e+00 1.338429e+00 1.326490e+00 1.307670e+00 1.288832e+00 1.262904e+00 1.237734e+00 1.205406e+00 1.174649e+00 1.136807e+00 1.101361e+00 1.059048e+00 1.019938e+00 9.743277e-01 9.326842e-01 8.850705e-01 8.421228e-01 7.939232e-01 7.510125e-01 7.038059e-01 6.624334e-01 6.180392e-01 5.799541e-01 5.405484e-01 5.078514e-01 4.760458e-01 4.511821e-01 4.298200e-01 4.151647e-01 4.064675e-01 4.032975e-01 4.075585e-01 4.151143e-01 4.302872e-01 4.461284e-01 4.689765e-01 4.902705e-01 5.177526e-01 5.421705e-01 5.720173e-01 5.979252e-01 6.286050e-01 6.549261e-01 6.854359e-01 7.114673e-01 7.411420e-01 7.664125e-01 7.947907e-01 8.189648e-01 8.457021e-01 
8.869838e-01 9.112707e-01 9.319857e-01 9.542612e-01 9.733490e-01 9.933430e-01 1.010573e+00 1.028011e+00 1.043146e+00 1.057746e+00 1.070539e+00 1.082008e+00 1.092207e+00 1.100250e+00 1.107603e+00 1.111930e+00 1.116195e+00 1.116538e+00 1.117493e+00 1.113619e+00 1.111079e+00 1.102812e+00 1.096641e+00 1.083884e+00 1.074012e+00 1.056767e+00 1.043205e+00 1.021602e+00 1.004463e+00 9.787836e-01 9.583056e-01 9.290203e-01 9.055950e-01 8.734060e-01 8.476279e-01 8.135315e-01 7.862659e-01 7.516417e-01 7.241257e-01 6.908547e-01 6.648257e-01 6.354083e-01 6.132108e-01 5.907690e-01 5.752856e-01 5.631930e-01 5.573312e-01 5.582421e-01 5.639150e-01 5.785678e-01 5.958196e-01 6.226820e-01 6.498099e-01 6.859304e-01 7.203845e-01 7.625312e-01 8.017154e-01 8.470139e-01 8.886322e-01 9.347134e-01 9.768153e-01 1.021749e+00 1.062673e+00 1.104866e+00 1.143175e+00 1.181286e+00 1.215734e+00 1.248630e+00 1.278140e+00 1.304874e+00 1.328542e+00 1.348351e+00 1.365460e+00 1.377769e+00 1.387803e+00 1.392244e+00 1.394905e+00 1.391323e+00 1.386539e+00 1.375008e+00 1.362938e+00 1.343765e+00 1.324792e+00 1.298505e+00 1.273223e+00 1.240567e+00 1.209755e+00 1.171666e+00 1.136265e+00 1.093841e+00 1.054927e+00 1.009409e+00 9.681633e-01 9.209147e-01 8.786204e-01 8.311276e-01 7.891721e-01 7.430693e-01 7.029783e-01 6.600983e-01 6.235872e-01 5.860188e-01 5.550273e-01 5.250963e-01 5.016959e-01 4.816959e-01 4.676943e-01 4.592081e-01 4.554366e-01 4.585149e-01 4.642967e-01 4.772839e-01 4.907074e-01 5.110040e-01 5.297671e-01 5.547908e-01 5.768695e-01 6.045564e-01 6.284306e-01 6.572979e-01 6.819060e-01 7.109329e-01 7.355493e-01 7.640328e-01 7.881539e-01 8.155942e-01 8.388539e-01 8.648729e-01 
9.049093e-01 9.288061e-01 9.490035e-01 9.710834e-01 9.898357e-01 1.009810e+00 1.026872e+00 1.044450e+00 1.059571e+00 1.074454e+00 1.087378e+00 1.099259e+00 1.109723e+00 1.118292e+00 1.126037e+00 1.130990e+00 1.135766e+00 1.136822e+00 1.138402e+00 1.135318e+00 1.133516e+00 1.126108e+00 1.120790e+00 1.108960e+00 1.100061e+00 1.083820e+00 1.071363e+00 1.050859e+00 1.034974e+00 1.010522e+00 9.914689e-01 9.635829e-01 9.417838e-01 9.112231e-01 8.873030e-01 8.551254e-01 8.299741e-01 7.976074e-01 7.724589e-01 7.417800e-01 7.182992e-01 6.916849e-01 6.720086e-01 6.522540e-01 6.388668e-01 6.288073e-01 6.240992e-01 6.258548e-01 6.313881e-01 6.455464e-01 6.614630e-01 6.868431e-01 7.119024e-01 7.461062e-01 7.782590e-01 8.184874e-01 8.554750e-01 8.990791e-01 9.387694e-01 9.834552e-01 1.023949e+00 1.067783e+00 1.107411e+00 1.148766e+00 1.186059e+00 1.223553e+00 1.257224e+00 1.289685e+00 1.318618e+00 1.345063e+00 1.368319e+00 1.387955e+00 1.404786e+00 1.417015e+00 1.426879e+00 1.431308e+00 1.433885e+00 1.430343e+00 1.425544e+00 1.414089e+00 1.402061e+00 1.382987e+00 1.364106e+00 1.337943e+00 1.312802e+00 1.280304e+00 1.249692e+00 1.211814e+00 1.176687e+00 1.134563e+00 1.096020e+00 1.050932e+00 1.010186e+00 9.635439e-01 9.219058e-01 8.752378e-01 8.341153e-01 7.890761e-01 7.499862e-01 7.083790e-01 6.729672e-01 6.367538e-01 6.067825e-01 5.780119e-01 5.552372e-01 5.357833e-01 5.216273e-01 5.126814e-01 5.077440e-01 5.092844e-01 5.130206e-01 5.237257e-01 5.346320e-01 5.523901e-01 5.685742e-01 5.911729e-01 6.108658e-01 6.364248e-01 6.582135e-01 6.853042e-01 7.081479e-01 7.357400e-01 7.588962e-01 7.862549e-01 8.091915e-01 8.357818e-01 8.581034e-01 8.835156e-01 
9.268876e-01 9.502342e-01 9.698759e-01 9.915989e-01 1.009987e+00 1.029779e+00 1.046654e+00 1.064207e+00 1.079306e+00 1.094304e+00 1.107357e+00 1.119476e+00 1.130210e+00 1.139124e+00 1.147271e+00 1.152660e+00 1.157964e+00 1.159534e+00 1.161767e+00 1.159266e+00 1.158241e+00 1.151483e+00 1.147072e+00 1.135962e+00 1.128113e+00 1.112676e+00 1.101426e+00 1.081835e+00 1.067335e+00 1.043939e+00 1.026472e+00 9.998351e-01 9.798446e-01 9.507785e-01 9.289082e-01 8.985214e-01 8.756642e-01 8.454126e-01 8.227712e-01 7.945025e-01 7.736425e-01 7.495939e-01 7.324425e-01 7.151121e-01 7.038145e-01 6.956053e-01 6.921575e-01 6.947904e-01 7.005035e-01 7.144458e-01 7.295284e-01 7.538348e-01 7.773869e-01 8.100714e-01 8.404509e-01 8.790794e-01 9.143413e-01 9.564893e-01 9.946820e-01 1.038155e+00 1.077453e+00 1.120337e+00 1.159080e+00 1.199725e+00 1.236412e+00 1.273394e+00 1.306686e+00 1.338782e+00 1.367501e+00 1.393678e+00 1.416823e+00 1.436236e+00 1.453003e+00 1.465007e+00 1.474805e+00 1.478973e+00 1.481450e+00 1.477584e+00 1.472635e+00 1.460785e+00 1.448557e+00 1.429028e+00 1.409915e+00 1.383263e+00 1.357890e+00 1.324909e+00 1.294107e+00 1.255810e+00 1.220585e+00 1.178169e+00 1.139668e+00 1.094482e+00 1.053966e+00 1.007483e+00 9.663013e-01 9.200967e-01 8.796759e-01 8.354221e-01 7.972624e-01 7.567242e-01 7.223923e-01 6.874008e-01 6.584867e-01 6.308367e-01 6.088183e-01 5.900253e-01 5.760018e-01 5.669237e-01 5.612841e-01 5.617878e-01 5.640305e-01 5.729806e-01 5.818692e-01 5.975005e-01 6.114651e-01 6.318821e-01 6.493996e-01 6.729235e-01 6.927212e-01 7.180194e-01 7.391177e-01 7.651901e-01 7.868622e-01 8.129712e-01 8.346793e-01 8.602736e-01 8.816077e-01 9.062571e-01 
9.480606e-01 9.710128e-01 9.901157e-01 1.011661e+00 1.029714e+00 1.049529e+00 1.066260e+00 1.084020e+00 1.099154e+00 1.114528e+00 1.127784e+00 1.140432e+00 1.151527e+00 1.161105e+00 1.169760e+00 1.175931e+00 1.181882e+00 1.184333e+00 1.187344e+00 1.185807e+00 1.185687e+00 1.179963e+00 1.176582e+00 1.166570e+00 1.159876e+00 1.145602e+00 1.135639e+00 1.117287e+00 1.104215e+00 1.082161e+00 1.066277e+00 1.041118e+00 1.022877e+00 9.954684e-01 9.755239e-01 9.470126e-01 9.262495e-01 8.981076e-01 8.776881e-01 8.517249e-01 8.331153e-01 8.114367e-01 7.963786e-01 7.812334e-01 7.715997e-01 7.650583e-01 7.625512e-01 7.660445e-01 7.717950e-01 7.857023e-01 7.999622e-01 8.235005e-01 8.456127e-01 8.770984e-01 9.057326e-01 9.430219e-01 9.764969e-01 1.017364e+00 1.053899e+00 1.096252e+00 1.134110e+00 1.176072e+00 1.213619e+00 1.253538e+00 1.289269e+00 1.325704e+00 1.358257e+00 1.389961e+00 1.418129e+00 1.444046e+00 1.466800e+00 1.486064e+00 1.502570e+00 1.514516e+00 1.524162e+00 1.528339e+00 1.530748e+00 1.526937e+00 1.521985e+00 1.510214e+00 1.498030e+00 1.478584e+00 1.459547e+00 1.432973e+00 1.407701e+00 1.374796e+00 1.344118e+00 1.305911e+00 1.270844e+00 1.228561e+00 1.190268e+00 1.145297e+00 1.105059e+00 1.058910e+00 1.018092e+00 9.723660e-01 9.323982e-01 8.887638e-01 8.511160e-01 8.112850e-01 7.774437e-01 7.431213e-01 7.145297e-01 6.873049e-01 6.652372e-01 6.463775e-01 6.317324e-01 6.219069e-01 6.149796e-01 6.140409e-01 6.144144e-01 6.214095e-01 6.280722e-01 6.415153e-01 6.531508e-01 6.713976e-01 6.866779e-01 7.082137e-01 7.259804e-01 7.495532e-01 7.688778e-01 7.935134e-01 8.136819e-01 8.386399e-01 8.591079e-01 8.838220e-01 9.041657e-01 9.281870e-01 
9.732223e-01 9.956376e-01 1.014187e+00 1.035409e+00 1.053120e+00 1.072809e+00 1.089395e+00 1.107211e+00 1.122384e+00 1.137977e+00 1.151443e+00 1.164452e+00 1.175917e+00 1.185978e+00 1.195151e+00 1.201909e+00 1.208517e+00 1.211640e+00 1.215443e+00 1.214648e+00 1.215453e+00 1.210533e+00 1.208216e+00 1.199068e+00 1.193585e+00 1.180245e+00 1.171654e+00 1.154326e+00 1.142802e+00 1.121892e+00 1.107745e+00 1.083889e+00 1.067583e+00 1.041677e+00 1.023860e+00 9.970811e-01 9.786126e-01 9.524339e-01 9.344136e-01 9.105914e-01 8.943698e-01 8.748752e-01 8.620121e-01 8.488692e-01 8.410015e-01 8.360043e-01 8.346024e-01 8.389533e-01 8.450174e-01 8.590253e-01 8.728504e-01 8.958531e-01 9.169830e-01 9.475354e-01 9.749082e-01 1.011114e+00 1.043293e+00 1.083113e+00 1.118489e+00 1.159942e+00 1.196874e+00 1.238129e+00 1.275016e+00 1.314423e+00 1.349749e+00 1.385842e+00 1.418200e+00 1.449691e+00 1.477814e+00 1.503593e+00 1.526382e+00 1.545528e+00 1.562081e+00 1.573874e+00 1.583520e+00 1.587465e+00 1.589788e+00 1.585632e+00 1.580487e+00 1.568246e+00 1.555766e+00 1.535735e+00 1.516325e+00 1.489080e+00 1.463399e+00 1.429790e+00 1.398717e+00 1.359839e+00 1.324443e+00 1.281593e+00 1.243092e+00 1.197727e+00 1.157443e+00 1.111131e+00 1.070458e+00 1.024833e+00 9.851995e-01 9.419260e-01 9.047672e-01 8.654969e-01 8.322105e-01 7.985190e-01 7.704002e-01 7.436763e-01 7.218040e-01 7.030798e-01 6.881600e-01 6.779129e-01 6.701296e-01 6.681530e-01 6.671166e-01 6.725582e-01 6.774092e-01 6.889860e-01 6.986111e-01 7.148935e-01 7.281479e-01 7.477872e-01 7.636421e-01 7.854904e-01 8.030938e-01 8.262301e-01 8.449056e-01 8.686103e-01 8.878269e-01 9.115355e-01 9.308689e-01 9.541251e-01 
9.972821e-01 1.019334e+00 1.037361e+00 1.058455e+00 1.075865e+00 1.095649e+00 1.112146e+00 1.130266e+00 1.145551e+00 1.161642e+00 1.175411e+00 1.189096e+00 1.201041e+00 1.211935e+00 1.221755e+00 1.229481e+00 1.236892e+00 1.241094e+00 1.245845e+00 1.246217e+00 1.248106e+00 1.244418e+00 1.243312e+00 1.235446e+00 1.231299e+00 1.219280e+00 1.212148e+00 1.196186e+00 1.186243e+00 1.166757e+00 1.154316e+00 1.131968e+00 1.117492e+00 1.093211e+00 1.077337e+00 1.052327e+00 1.035888e+00 1.011626e+00 9.956680e-01 9.738713e-01 9.596472e-01 9.421815e-01 9.311070e-01 9.198233e-01 9.133546e-01 9.098388e-01 9.092733e-01 9.145557e-01 9.207952e-01 9.351240e-01 9.484880e-01 9.712757e-01 9.914486e-01 1.021417e+00 1.047536e+00 1.082972e+00 1.113795e+00 1.152808e+00 1.186874e+00 1.227577e+00 1.263335e+00 1.303946e+00 1.339839e+00 1.378725e+00 1.413246e+00 1.448939e+00 1.480672e+00 1.511876e+00 1.539535e+00 1.565132e+00 1.587596e+00 1.606655e+00 1.623002e+00 1.634791e+00 1.644330e+00 1.648333e+00 1.650626e+00 1.646566e+00 1.641445e+00 1.629303e+00 1.616874e+00 1.596913e+00 1.577555e+00 1.550328e+00 1.524677e+00 1.491024e+00 1.459951e+00 1.420975e+00 1.385547e+00 1.342574e+00 1.304017e+00 1.258540e+00 1.218194e+00 1.171817e+00 1.131088e+00 1.085467e+00 1.045784e+00 1.002577e+00 9.653478e-01 9.261593e-01 8.927197e-01 8.590287e-01 8.305747e-01 8.036341e-01 7.811249e-01 7.618244e-01 7.458649e-01 7.345896e-01 7.253300e-01 7.218791e-01 7.189899e-01 7.226213e-01 7.253787e-01 7.349783e-01 7.424299e-01 7.567357e-01 7.678769e-01 7.856682e-01 7.995684e-01 8.197767e-01 8.356413e-01 8.573859e-01 8.745655e-01 8.971412e-01 9.151129e-01 9.379556e-01 9.562930e-01 9.789395e-01 
1.025255e+00 1.046819e+00 1.064334e+00 1.085173e+00 1.102299e+00 1.122049e+00 1.138477e+00 1.156768e+00 1.172187e+00 1.188634e+00 1.202726e+00 1.216929e+00 1.229371e+00 1.240923e+00 1.251401e+00 1.259897e+00 1.268115e+00 1.273176e+00 1.278873e+00 1.280170e+00 1.283142e+00 1.280430e+00 1.280546e+00 1.273697e+00 1.270918e+00 1.259962e+00 1.254355e+00 1.239512e+00 1.231262e+00 1.212978e+00 1.202402e+00 1.181372e+00 1.168928e+00 1.146111e+00 1.132415e+00 1.109035e+00 1.094875e+00 1.072401e+00 1.058745e+00 1.038841e+00 1.026830e+00 1.011252e+00 1.002153e+00 9.925894e-01 9.876958e-01 9.855521e-01 9.860213e-01 9.921869e-01 9.988532e-01 1.013531e+00 1.026752e+00 1.049421e+00 1.069019e+00 1.098545e+00 1.123847e+00 1.158684e+00 1.188637e+00 1.227039e+00 1.260334e+00 1.300513e+00 1.335697e+00 1.375925e+00 1.411484e+00 1.450145e+00 1.484568e+00 1.520179e+00 1.552010e+00 1.583238e+00 1.611121e+00 1.636794e+00 1.659527e+00 1.678647e+00 1.695224e+00 1.706992e+00 1.716647e+00 1.720488e+00 1.722731e+00 1.718322e+00 1.712962e+00 1.700265e+00 1.687417e+00 1.666705e+00 1.646783e+00 1.618648e+00 1.592342e+00 1.557688e+00 1.525931e+00 1.485940e+00 1.449862e+00 1.405943e+00 1.366827e+00 1.320551e+00 1.279777e+00 1.232805e+00 1.191801e+00 1.145817e+00 1.106006e+00 1.062655e+00 1.025405e+00 9.862287e-01 9.527955e-01 9.191598e-01 8.906225e-01 8.636282e-01 8.408101e-01 8.211871e-01 8.045730e-01 7.925868e-01 7.822640e-01 7.776785e-01 7.733382e-01 7.754712e-01 7.764854e-01 7.843503e-01 7.899021e-01 8.023844e-01 8.116035e-01 8.276124e-01 8.396772e-01 8.582391e-01 8.724304e-01 8.927249e-01 9.084392e-01 9.297942e-01 9.465328e-01 9.683986e-01 9.857447e-01 1.007661e+00 
1.051802e+00 1.073067e+00 1.090113e+00 1.110906e+00 1.127800e+00 1.147749e+00 1.164178e+00 1.182901e+00 1.198543e+00 1.215644e+00 1.230168e+00 1.245230e+00 1.258304e+00 1.270896e+00 1.282190e+00 1.291881e+00 1.301086e+00 1.307464e+00 1.314304e+00 1.317008e+00 1.321264e+00 1.320014e+00 1.321541e+00 1.316181e+00 1.314927e+00 1.305463e+00 1.301485e+00 1.288128e+00 1.281603e+00 1.264804e+00 1.256037e+00 1.236509e+00 1.225947e+00 1.204677e+00 1.192914e+00 1.171153e+00 1.158941e+00 1.138171e+00 1.126423e+00 1.108283e+00 1.098061e+00 1.084242e+00 1.076709e+00 1.068788e+00 1.065123e+00 1.064375e+00 1.065633e+00 1.072839e+00 1.079802e+00 1.095117e+00 1.108163e+00 1.131095e+00 1.150135e+00 1.179636e+00 1.204132e+00 1.238766e+00 1.267803e+00 1.305919e+00 1.338305e+00 1.378186e+00 1.412545e+00 1.452502e+00 1.487363e+00 1.525797e+00 1.559659e+00 1.595097e+00 1.626497e+00 1.657609e+00 1.685181e+00 1.710801e+00 1.733328e+00 1.752466e+00 1.768933e+00 1.780790e+00 1.790419e+00 1.794406e+00 1.796687e+00 1.792451e+00 1.787165e+00 1.774618e+00 1.761841e+00 1.741201e+00 1.721303e+00 1.693113e+00 1.666744e+00 1.631881e+00 1.599943e+00 1.559592e+00 1.523206e+00 1.478803e+00 1.439258e+00 1.392418e+00 1.351113e+00 1.303544e+00 1.261929e+00 1.215348e+00 1.174860e+00 1.130921e+00 1.092924e+00 1.053143e+00 1.018862e+00 9.845482e-01 9.550123e-01 9.271866e-01 9.031586e-01 8.824749e-01 8.643948e-01 8.510751e-01 8.390246e-01 8.328451e-01 8.265605e-01 8.269081e-01 8.258478e-01 8.318407e-01 8.352914e-01 8.459254e-01 8.531142e-01 8.673917e-01 8.775732e-01 8.945873e-01 9.070937e-01 9.260657e-01 9.403240e-01 9.606042e-01 9.761309e-01 9.971797e-01 1.013563e+00 1.034923e+00 