# vtk DataFile Version 2.0
Comment goes here
ASCII

DATASET STRUCTURED_POINTS
FIELD FieldData 1
TIME 1 1 double
0.17500000
DIMENSIONS    128   128   1

ORIGIN    0.000   0.000   0.000
SPACING   0.039062 0.039062   1.000

POINT_DATA   16384
SCALARS uMag double
LOOKUP_TABLE default

4.368621e-02 4.999584e-02 5.727526e-02 6.377829e-02 7.174009e-02 7.832432e-02 8.681765e-02 9.334145e-02 1.021884e-01 1.084854e-01 1.174866e-01 1.233716e-01 1.323124e-01 1.375881e-01 1.462467e-01 1.507114e-01 1.588661e-01 1.623221e-01 1.697602e-01 1.720225e-01 1.785482e-01 1.794524e-01 1.848951e-01 1.843053e-01 1.885258e-01 1.863412e-01 1.892370e-01 1.853968e-01 1.869057e-01 1.813921e-01 1.814932e-01 1.743326e-01 1.730458e-01 1.643079e-01 1.616910e-01 1.514864e-01 1.476304e-01 1.361065e-01 1.311304e-01 1.184658e-01 1.125101e-01 9.890959e-02 9.212941e-02 7.781724e-02 7.037653e-02 5.559068e-02 4.765617e-02 3.264275e-02 2.437925e-02 9.387424e-03 9.540959e-04 1.376847e-02 2.222085e-02 3.643199e-02 4.476276e-02 5.822945e-02 6.630908e-02 7.881079e-02 8.652140e-02 9.785352e-02 1.050892e-01 1.150664e-01 1.217334e-01 1.301934e-01 1.362110e-01 1.430184e-01 1.483199e-01 1.533702e-01 1.579041e-01 1.611279e-01 1.648603e-01 1.662268e-01 1.691434e-01 1.686637e-01 1.707718e-01 1.685010e-01 1.698315e-01 1.658695e-01 1.664775e-01 1.609674e-01 1.609325e-01 1.540574e-01 1.534811e-01 1.454587e-01 1.444611e-01 1.355354e-01 1.342499e-01 1.246813e-01 1.232469e-01 1.133006e-01 1.118538e-01 1.017877e-01 1.004531e-01 9.050533e-02 8.938690e-02 7.976459e-02 7.893751e-02 6.980736e-02 6.931180e-02 6.079341e-02 6.063075e-02 5.279315e-02 5.292507e-02 4.578661e-02 4.613712e-02 3.966876e-02 4.012912e-02 3.426063e-02 3.469648e-02 2.932496e-02 2.958522e-02 2.458507e-02 2.451163e-02 1.974530e-02 1.918288e-02 1.451137e-02 1.331679e-02 8.609543e-03 6.659892e-03 1.803347e-03 9.972757e-04 6.092597e-03 9.807947e-03 1.520205e-02 1.986026e-02 2.557997e-02 3.117163e-02 3.720847e-02 
4.381068e-02 5.013866e-02 5.738648e-02 6.391713e-02 7.185598e-02 7.847325e-02 8.694935e-02 9.350963e-02 1.023433e-01 1.086791e-01 1.176699e-01 1.235952e-01 1.325277e-01 1.378448e-01 1.464964e-01 1.510032e-01 1.591519e-01 1.626505e-01 1.700831e-01 1.723880e-01 1.789086e-01 1.798556e-01 1.852932e-01 1.847462e-01 1.889616e-01 1.868200e-01 1.897107e-01 1.859138e-01 1.874178e-01 1.819484e-01 1.820451e-01 1.749304e-01 1.736402e-01 1.649513e-01 1.623326e-01 1.521823e-01 1.483275e-01 1.368665e-01 1.318965e-01 1.193098e-01 1.133688e-01 9.987258e-02 9.312367e-02 7.896734e-02 7.159329e-02 5.708119e-02 4.930866e-02 3.493494e-02 2.723273e-02 1.516298e-02 1.163456e-02 1.785293e-02 2.482095e-02 3.801006e-02 4.598949e-02 5.914230e-02 6.707286e-02 7.943301e-02 8.706417e-02 9.832052e-02 1.055093e-01 1.154423e-01 1.220806e-01 1.305137e-01 1.365138e-01 1.433048e-01 1.485958e-01 1.536366e-01 1.581645e-01 1.613835e-01 1.651123e-01 1.664778e-01 1.693914e-01 1.689140e-01 1.710182e-01 1.687528e-01 1.700770e-01 1.661235e-01 1.667214e-01 1.612234e-01 1.611732e-01 1.543142e-01 1.537165e-01 1.457143e-01 1.446886e-01 1.357877e-01 1.344667e-01 1.249278e-01 1.234507e-01 1.135391e-01 1.120428e-01 1.020166e-01 1.006268e-01 9.072389e-02 8.954628e-02 7.997351e-02 7.908533e-02 7.000918e-02 6.945311e-02 6.099284e-02 6.077290e-02 5.299716e-02 5.307747e-02 4.600422e-02 4.631065e-02 3.991053e-02 4.033527e-02 3.453807e-02 3.494680e-02 2.965061e-02 2.989177e-02 2.497452e-02 2.489012e-02 2.022413e-02 1.966241e-02 1.513781e-02 1.397393e-02 9.575702e-03 7.810921e-03 4.411972e-03 3.994540e-03 7.199088e-03 1.045603e-02 1.563520e-02 2.014884e-02 2.582408e-02 3.134186e-02 3.737893e-02 
4.501387e-02 5.133984e-02 5.849526e-02 6.503647e-02 7.291061e-02 7.954184e-02 8.797310e-02 9.454639e-02 1.033504e-01 1.096961e-01 1.186693e-01 1.246002e-01 1.335252e-01 1.388431e-01 1.474957e-01 1.519983e-01 1.601552e-01 1.636448e-01 1.710921e-01 1.733835e-01 1.799245e-01 1.808540e-01 1.863174e-01 1.857499e-01 1.899965e-01 1.878325e-01 1.907600e-01 1.869408e-01 1.884880e-01 1.829987e-01 1.831460e-01 1.760174e-01 1.747870e-01 1.660951e-01 1.635478e-01 1.534126e-01 1.496445e-01 1.382279e-01 1.333659e-01 1.208714e-01 1.150702e-01 1.017474e-01 9.519103e-02 8.135830e-02 7.427810e-02 6.040634e-02 5.316578e-02 4.024660e-02 3.378217e-02 2.526738e-02 2.322598e-02 2.713066e-02 3.200268e-02 4.324073e-02 5.026160e-02 6.267881e-02 7.008485e-02 8.212159e-02 8.940867e-02 1.005098e-01 1.074489e-01 1.173049e-01 1.237527e-01 1.321467e-01 1.379990e-01 1.447678e-01 1.499449e-01 1.549682e-01 1.594110e-01 1.626096e-01 1.662784e-01 1.676155e-01 1.704911e-01 1.699740e-01 1.720591e-01 1.697409e-01 1.710616e-01 1.670416e-01 1.676482e-01 1.620700e-01 1.620370e-01 1.550853e-01 1.545094e-01 1.464042e-01 1.454010e-01 1.363895e-01 1.350883e-01 1.254343e-01 1.239713e-01 1.139440e-01 1.124542e-01 1.023155e-01 1.009237e-01 9.091559e-02 8.972798e-02 8.006145e-02 7.915743e-02 7.000277e-02 6.942856e-02 6.090865e-02 6.067274e-02 5.285942e-02 5.293044e-02 4.584439e-02 4.615167e-02 3.976581e-02 4.020308e-02 3.444969e-02 3.488210e-02 2.966380e-02 2.993837e-02 2.514386e-02 2.510333e-02 2.063205e-02 2.013506e-02 1.594974e-02 1.491779e-02 1.122802e-02 9.865648e-03 7.991856e-03 7.897588e-03 1.037252e-02 1.293856e-02 1.770161e-02 2.185821e-02 2.740500e-02 3.271552e-02 3.871665e-02 
4.643816e-02 5.280358e-02 5.981295e-02 6.642150e-02 7.419006e-02 8.090194e-02 8.925685e-02 9.591649e-02 1.046663e-01 1.110998e-01 1.200361e-01 1.260538e-01 1.349556e-01 1.403577e-01 1.489983e-01 1.535817e-01 1.617357e-01 1.653021e-01 1.727538e-01 1.751179e-01 1.816697e-01 1.826680e-01 1.881477e-01 1.876459e-01 1.919139e-01 1.898140e-01 1.927685e-01 1.890139e-01 1.905944e-01 1.851737e-01 1.853623e-01 1.783111e-01 1.771325e-01 1.685340e-01 1.660528e-01 1.560377e-01 1.523555e-01 1.411023e-01 1.363548e-01 1.240937e-01 1.184505e-01 1.054784e-01 9.915160e-02 8.587572e-02 7.915503e-02 6.622773e-02 5.960352e-02 4.836021e-02 4.295053e-02 3.659927e-02 3.494197e-02 3.768229e-02 4.104450e-02 5.037180e-02 5.627816e-02 6.768224e-02 7.440062e-02 8.591889e-02 9.274963e-02 1.035732e-01 1.101888e-01 1.198910e-01 1.261007e-01 1.344074e-01 1.400821e-01 1.467988e-01 1.518446e-01 1.568329e-01 1.611809e-01 1.643505e-01 1.679539e-01 1.692610e-01 1.720942e-01 1.715422e-01 1.736017e-01 1.712415e-01 1.725474e-01 1.684778e-01 1.690740e-01 1.634395e-01 1.633943e-01 1.563817e-01 1.557857e-01 1.476178e-01 1.465813e-01 1.375085e-01 1.361564e-01 1.264467e-01 1.249120e-01 1.148386e-01 1.132553e-01 1.030839e-01 1.015780e-01 9.155454e-02 9.023602e-02 8.057493e-02 7.952957e-02 7.040432e-02 6.968708e-02 6.122332e-02 6.085280e-02 5.312469e-02 5.307944e-02 4.610939e-02 4.632651e-02 4.008867e-02 4.046576e-02 3.489400e-02 3.529581e-02 3.029714e-02 3.056783e-02 2.604349e-02 2.602513e-02 2.190573e-02 2.146786e-02 1.778646e-02 1.689389e-02 1.398326e-02 1.292447e-02 1.187552e-02 1.179536e-02 1.390884e-02 1.588993e-02 2.024790e-02 2.395238e-02 2.935343e-02 3.436424e-02 4.034654e-02 
4.887313e-02 5.527225e-02 6.210539e-02 6.877022e-02 7.640887e-02 8.318495e-02 9.144628e-02 9.816991e-02 1.068554e-01 1.133481e-01 1.222441e-01 1.283137e-01 1.371955e-01 1.426408e-01 1.512784e-01 1.558958e-01 1.640614e-01 1.676524e-01 1.751285e-01 1.775082e-01 1.840956e-01 1.851016e-01 1.906273e-01 1.901269e-01 1.944512e-01 1.923489e-01 1.953706e-01 1.916135e-01 1.932733e-01 1.878553e-01 1.881380e-01 1.811019e-01 1.800355e-01 1.714750e-01 1.691292e-01 1.591896e-01 1.556731e-01 1.445551e-01 1.400142e-01 1.279821e-01 1.226037e-01 1.100100e-01 1.040353e-01 9.138084e-02 8.515123e-02 7.324002e-02 6.732214e-02 5.762782e-02 5.310322e-02 4.823912e-02 4.681888e-02 4.911669e-02 5.149080e-02 5.944219e-02 6.425546e-02 7.468694e-02 8.056671e-02 9.152865e-02 9.773034e-02 1.082479e-01 1.143799e-01 1.239161e-01 1.297476e-01 1.379636e-01 1.433419e-01 1.500052e-01 1.548223e-01 1.597702e-01 1.639476e-01 1.670742e-01 1.705574e-01 1.718084e-01 1.745648e-01 1.739368e-01 1.759560e-01 1.734963e-01 1.747904e-01 1.705964e-01 1.712012e-01 1.654184e-01 1.653933e-01 1.582113e-01 1.576380e-01 1.492841e-01 1.482644e-01 1.389950e-01 1.376460e-01 1.277358e-01 1.261848e-01 1.159146e-01 1.142915e-01 1.039348e-01 1.023649e-01 9.217556e-02 9.077133e-02 8.097130e-02 7.982503e-02 7.059488e-02 6.977148e-02 6.124340e-02 6.077393e-02 5.302786e-02 5.290372e-02 4.596678e-02 4.613543e-02 3.998537e-02 4.034960e-02 3.492343e-02 3.534717e-02 3.055742e-02 3.088035e-02 2.664206e-02 2.670423e-02 2.297959e-02 2.266134e-02 1.954204e-02 1.884571e-02 1.671394e-02 1.596046e-02 1.564800e-02 1.570622e-02 1.789039e-02 1.957424e-02 2.373392e-02 2.705705e-02 3.235249e-02 3.705098e-02 4.301796e-02 
5.147113e-02 5.795378e-02 6.457653e-02 7.135743e-02 7.883664e-02 8.574486e-02 9.388831e-02 1.007501e-01 1.093517e-01 1.159826e-01 1.248228e-01 1.310269e-01 1.398762e-01 1.454499e-01 1.540743e-01 1.588125e-01 1.669812e-01 1.706846e-01 1.781773e-01 1.806612e-01 1.872766e-01 1.883788e-01 1.939428e-01 1.935321e-01 1.979043e-01 1.958877e-01 1.989673e-01 1.952958e-01 1.970252e-01 1.916982e-01 1.920647e-01 1.851333e-01 1.841688e-01 1.757380e-01 1.735176e-01 1.637492e-01 1.603892e-01 1.495072e-01 1.451649e-01 1.334686e-01 1.283465e-01 1.162397e-01 1.106030e-01 9.865983e-02 9.288102e-02 8.198340e-02 7.664300e-02 6.821120e-02 6.424728e-02 6.028656e-02 5.887714e-02 6.079982e-02 6.240251e-02 6.924773e-02 7.308875e-02 8.257514e-02 8.762119e-02 9.796711e-02 1.035105e-01 1.136577e-01 1.192750e-01 1.285952e-01 1.340241e-01 1.421152e-01 1.471811e-01 1.537689e-01 1.583485e-01 1.632433e-01 1.672465e-01 1.703245e-01 1.736869e-01 1.748819e-01 1.775615e-01 1.768630e-01 1.788393e-01 1.762908e-01 1.775656e-01 1.732637e-01 1.738617e-01 1.679537e-01 1.679227e-01 1.606020e-01 1.600124e-01 1.515119e-01 1.504550e-01 1.410379e-01 1.396220e-01 1.295705e-01 1.279163e-01 1.175191e-01 1.157533e-01 1.052919e-01 1.035407e-01 9.327596e-02 9.165754e-02 8.181827e-02 8.043565e-02 7.120839e-02 7.014209e-02 6.166433e-02 6.096455e-02 5.332071e-02 5.299882e-02 4.621938e-02 4.623949e-02 4.030391e-02 4.057788e-02 3.542357e-02 3.581489e-02 3.135563e-02 3.169661e-02 2.785415e-02 2.797758e-02 2.473074e-02 2.451870e-02 2.197861e-02 2.144573e-02 1.995888e-02 1.939940e-02 1.956326e-02 1.965121e-02 2.189044e-02 2.331103e-02 2.734638e-02 3.029999e-02 3.553324e-02 3.989520e-02 4.588750e-02 
5.499365e-02 6.157175e-02 6.799607e-02 7.489077e-02 8.221324e-02 8.924147e-02 9.726706e-02 1.042468e-01 1.127653e-01 1.195066e-01 1.282943e-01 1.345980e-01 1.434216e-01 1.490822e-01 1.577044e-01 1.625157e-01 1.707025e-01 1.744650e-01 1.819935e-01 1.845229e-01 1.911899e-01 1.923252e-01 1.979553e-01 1.975677e-01 2.020202e-01 2.000202e-01 2.031949e-01 1.995388e-01 2.013802e-01 1.960749e-01 1.965734e-01 1.896800e-01 1.888723e-01 1.805099e-01 1.784772e-01 1.688265e-01 1.656933e-01 1.550047e-01 1.509385e-01 1.395475e-01 1.347645e-01 1.231239e-01 1.179055e-01 1.066467e-01 1.013778e-01 9.141556e-02 8.665171e-02 7.929111e-02 7.581060e-02 7.258895e-02 7.121688e-02 7.301790e-02 7.406174e-02 8.018066e-02 8.317656e-02 9.191397e-02 9.611811e-02 1.059207e-01 1.107262e-01 1.205306e-01 1.255274e-01 1.346464e-01 1.395637e-01 1.475402e-01 1.521926e-01 1.587111e-01 1.629656e-01 1.678067e-01 1.715650e-01 1.745836e-01 1.777731e-01 1.788885e-01 1.814583e-01 1.806501e-01 1.825695e-01 1.798761e-01 1.811350e-01 1.766515e-01 1.772616e-01 1.711371e-01 1.711321e-01 1.635649e-01 1.630010e-01 1.542313e-01 1.531858e-01 1.434860e-01 1.420550e-01 1.317180e-01 1.300124e-01 1.193381e-01 1.174785e-01 1.067599e-01 1.048711e-01 9.438006e-02 9.258455e-02 8.256020e-02 8.097166e-02 7.161004e-02 7.032605e-02 6.177330e-02 6.086648e-02 5.321476e-02 5.272114e-02 4.600732e-02 4.591267e-02 4.012035e-02 4.034897e-02 3.541691e-02 3.583185e-02 3.167410e-02 3.209710e-02 2.863910e-02 2.889122e-02 2.612219e-02 2.608272e-02 2.412093e-02 2.381026e-02 2.295842e-02 2.264593e-02 2.333533e-02 2.356857e-02 2.605446e-02 2.740307e-02 3.149388e-02 3.422589e-02 3.948883e-02 4.359221e-02 4.964773e-02 
5.863605e-02 6.536315e-02 7.156950e-02 7.863925e-02 8.578598e-02 9.300287e-02 1.008941e-01 1.080667e-01 1.164888e-01 1.234207e-01 1.321457e-01 1.386334e-01 1.474238e-01 1.532589e-01 1.618731e-01 1.668476e-01 1.750479e-01 1.789611e-01 1.865214e-01 1.891886e-01 1.959030e-01 1.971639e-01 2.028549e-01 2.025824e-01 2.071088e-01 2.052166e-01 2.084785e-01 2.049279e-01 2.068714e-01 2.016764e-01 2.022952e-01 1.955272e-01 1.948623e-01 1.866538e-01 1.847923e-01 1.753424e-01 1.724159e-01 1.619990e-01 1.581833e-01 1.471655e-01 1.426856e-01 1.315548e-01 1.266986e-01 1.161145e-01 1.112606e-01 1.021198e-01 9.777471e-02 9.123049e-02 8.802907e-02 8.527175e-02 8.381955e-02 8.545018e-02 8.598475e-02 9.148006e-02 9.372395e-02 1.017776e-01 1.051965e-01 1.144623e-01 1.185525e-01 1.279954e-01 1.323778e-01 1.412732e-01 1.456797e-01 1.535237e-01 1.577635e-01 1.642010e-01 1.681337e-01 1.729150e-01 1.764341e-01 1.793919e-01 1.824158e-01 1.834540e-01 1.859209e-01 1.850094e-01 1.868762e-01 1.840484e-01 1.852906e-01 1.806410e-01 1.812542e-01 1.749348e-01 1.749358e-01 1.671511e-01 1.665789e-01 1.575779e-01 1.564933e-01 1.465590e-01 1.450441e-01 1.344807e-01 1.326355e-01 1.217547e-01 1.196940e-01 1.087998e-01 1.066481e-01 9.602284e-02 9.390955e-02 8.380107e-02 8.185473e-02 7.246677e-02 7.080810e-02 6.229347e-02 6.102565e-02 5.348247e-02 5.267627e-02 4.614621e-02 4.581945e-02 4.028825e-02 4.038517e-02 3.578923e-02 3.617375e-02 3.242039e-02 3.289806e-02 2.990503e-02 3.027464e-02 2.802427e-02 2.814765e-02 2.674121e-02 2.662343e-02 2.630658e-02 2.617511e-02 2.726869e-02 2.757797e-02 3.026938e-02 3.152245e-02 3.569625e-02 3.820502e-02 4.354086e-02 4.737800e-02 5.354397e-02 
6.314542e-02 7.004672e-02 7.608442e-02 8.333554e-02 9.033716e-02 9.773560e-02 1.055122e-01 1.128600e-01 1.211998e-01 1.282957e-01 1.369700e-01 1.436070e-01 1.523761e-01 1.583436e-01 1.669635e-01 1.720520e-01 1.802818e-01 1.842903e-01 1.919011e-01 1.946451e-01 2.014286e-01 2.027491e-01 2.085262e-01 2.082989e-01 2.129277e-01 2.110704e-01 2.144520e-01 2.109324e-01 2.130151e-01 2.078560e-01 2.086372e-01 2.019219e-01 2.014477e-01 1.933242e-01 1.916879e-01 1.823753e-01 1.797150e-01 1.695128e-01 1.660112e-01 1.553149e-01 1.512018e-01 1.405293e-01 1.360913e-01 1.261185e-01 1.217157e-01 1.133065e-01 1.093870e-01 1.035554e-01 1.006300e-01 9.831223e-02 9.682838e-02 9.843518e-02 9.857233e-02 1.036751e-01 1.052639e-01 1.128168e-01 1.154819e-01 1.243198e-01 1.276664e-01 1.368087e-01 1.405119e-01 1.492201e-01 1.530346e-01 1.607700e-01 1.645133e-01 1.708848e-01 1.744183e-01 1.791453e-01 1.823603e-01 1.852514e-01 1.880604e-01 1.890017e-01 1.913342e-01 1.902836e-01 1.920843e-01 1.890688e-01 1.902980e-01 1.854106e-01 1.860459e-01 1.794421e-01 1.794805e-01 1.713721e-01 1.708322e-01 1.614787e-01 1.604016e-01 1.500990e-01 1.485486e-01 1.376160e-01 1.356782e-01 1.244422e-01 1.222222e-01 1.110016e-01 1.086212e-01 9.771154e-02 9.530530e-02 8.496642e-02 8.267715e-02 7.312302e-02 7.109594e-02 6.248855e-02 6.086155e-02 5.330771e-02 5.219376e-02 4.574336e-02 4.520222e-02 3.984686e-02 3.985100e-02 3.552693e-02 3.594270e-02 3.254951e-02 3.315985e-02 3.060386e-02 3.117562e-02 2.942823e-02 2.979817e-02 2.894306e-02 2.909846e-02 2.933538e-02 2.947129e-02 3.103939e-02 3.154320e-02 3.456818e-02 3.588076e-02 4.027068e-02 4.270796e-02 4.821118e-02 5.189871e-02 5.822890e-02 
6.777321e-02 7.489945e-02 8.075293e-02 8.824496e-02 9.508754e-02 1.027353e-01 1.103860e-01 1.179843e-01 1.262337e-01 1.335751e-01 1.421937e-01 1.490670e-01 1.578126e-01 1.640036e-01 1.726287e-01 1.779258e-01 1.861858e-01 1.903862e-01 1.980485e-01 2.009670e-01 2.078198e-01 2.092980e-01 2.151599e-01 2.150749e-01 2.198027e-01 2.180759e-01 2.215710e-01 2.181755e-01 2.203878e-01 2.153544e-01 2.162845e-01 2.097071e-01 2.094055e-01 2.014461e-01 2.000112e-01 1.909062e-01 1.884811e-01 1.785501e-01 1.753211e-01 1.649812e-01 1.611779e-01 1.509631e-01 1.468636e-01 1.374459e-01 1.333840e-01 1.255767e-01 1.219425e-01 1.166339e-01 1.138420e-01 1.117901e-01 1.101865e-01 1.116980e-01 1.114333e-01 1.161616e-01 1.171410e-01 1.242300e-01 1.261927e-01 1.346230e-01 1.372656e-01 1.461117e-01 1.491629e-01 1.576820e-01 1.609242e-01 1.685485e-01 1.718119e-01 1.781168e-01 1.812671e-01 1.859416e-01 1.888690e-01 1.916972e-01 1.943085e-01 1.951584e-01 1.973731e-01 1.961908e-01 1.979395e-01 1.947462e-01 1.959712e-01 1.908600e-01 1.915179e-01 1.846490e-01 1.847137e-01 1.763082e-01 1.757743e-01 1.661042e-01 1.649896e-01 1.543659e-01 1.527140e-01 1.414714e-01 1.393519e-01 1.278327e-01 1.253408e-01 1.138779e-01 1.111334e-01 1.000344e-01 9.717874e-02 8.671311e-02 8.390693e-02 7.429597e-02 7.171478e-02 6.312652e-02 6.095209e-02 5.349949e-02 5.190099e-02 4.564091e-02 4.473799e-02 3.966762e-02 3.947713e-02 3.553048e-02 3.592567e-02 3.298717e-02 3.371746e-02 3.166945e-02 3.245008e-02 3.123916e-02 3.186158e-02 3.154394e-02 3.196008e-02 3.269495e-02 3.305946e-02 3.503706e-02 3.568409e-02 3.900875e-02 4.034052e-02 4.495170e-02 4.729297e-02 5.299222e-02 5.651271e-02 6.304838e-02 
7.325837e-02 8.064377e-02 8.639027e-02 9.413708e-02 1.008756e-01 1.087708e-01 1.163345e-01 1.241686e-01 1.323558e-01 1.399176e-01 1.485022e-01 1.555772e-01 1.643175e-01 1.706893e-01 1.793366e-01 1.847916e-01 1.930989e-01 1.974336e-01 2.051653e-01 2.081944e-01 2.151361e-01 2.167022e-01 2.226705e-01 2.226534e-01 2.275042e-01 2.258299e-01 2.294652e-01 2.261136e-01 2.284858e-01 2.234972e-01 2.246109e-01 2.180915e-01 2.180022e-01 2.101297e-01 2.089410e-01 1.999706e-01 1.978302e-01 1.881026e-01 1.851987e-01 1.751512e-01 1.717102e-01 1.618903e-01 1.581766e-01 1.492493e-01 1.455653e-01 1.382956e-01 1.349739e-01 1.301454e-01 1.275172e-01 1.257521e-01 1.240816e-01 1.256054e-01 1.250137e-01 1.295245e-01 1.299617e-01 1.367338e-01 1.380265e-01 1.461582e-01 1.480874e-01 1.567111e-01 1.590678e-01 1.674476e-01 1.700546e-01 1.776027e-01 1.803153e-01 1.865772e-01 1.892751e-01 1.939101e-01 1.964894e-01 1.992553e-01 2.016222e-01 2.023667e-01 2.044333e-01 2.030887e-01 2.047724e-01 2.013526e-01 2.025774e-01 1.971746e-01 1.978741e-01 1.906538e-01 1.907758e-01 1.819697e-01 1.814810e-01 1.713761e-01 1.702675e-01 1.591923e-01 1.574825e-01 1.457910e-01 1.435295e-01 1.315828e-01 1.288514e-01 1.169997e-01 1.139127e-01 1.024785e-01 9.918207e-02 8.844638e-02 8.511731e-02 7.531016e-02 7.215428e-02 6.345060e-02 6.069715e-02 5.321729e-02 5.110179e-02 4.491321e-02 4.363390e-02 3.874639e-02 3.838560e-02 3.473821e-02 3.518372e-02 3.264688e-02 3.360063e-02 3.202793e-02 3.313155e-02 3.244163e-02 3.342742e-02 3.365225e-02 3.443521e-02 3.570280e-02 3.640604e-02 3.886630e-02 3.978410e-02 4.351294e-02 4.501126e-02 4.995292e-02 5.234863e-02 5.833282e-02 6.181906e-02 6.862038e-02 
7.890985e-02 8.659726e-02 9.221645e-02 1.002724e-01 1.068918e-01 1.150993e-01 1.225661e-01 1.307105e-01 1.388305e-01 1.466954e-01 1.552454e-01 1.626119e-01 1.713500e-01 1.779981e-01 1.866731e-01 1.923862e-01 2.007478e-01 2.053198e-01 2.131282e-01 2.163725e-01 2.234093e-01 2.251683e-01 2.312468e-01 2.314015e-01 2.363758e-01 2.348553e-01 2.386270e-01 2.354166e-01 2.379397e-01 2.330874e-01 2.343696e-01 2.279921e-01 2.280927e-01 2.203805e-01 2.194072e-01 2.106300e-01 2.087331e-01 1.992471e-01 1.966139e-01 1.868690e-01 1.837190e-01 1.742659e-01 1.708466e-01 1.623338e-01 1.589161e-01 1.520595e-01 1.489263e-01 1.444254e-01 1.418456e-01 1.402311e-01 1.384153e-01 1.398716e-01 1.389258e-01 1.431978e-01 1.431072e-01 1.495717e-01 1.502289e-01 1.580778e-01 1.593323e-01 1.677471e-01 1.694452e-01 1.776967e-01 1.797006e-01 1.871827e-01 1.893738e-01 1.956031e-01 1.978770e-01 2.024825e-01 2.047425e-01 2.074556e-01 2.096072e-01 2.102550e-01 2.122024e-01 2.107038e-01 2.123496e-01 2.087121e-01 2.099589e-01 2.042757e-01 2.050308e-01 1.974752e-01 1.976559e-01 1.884727e-01 1.880139e-01 1.775076e-01 1.763686e-01 1.648878e-01 1.630590e-01 1.509783e-01 1.484865e-01 1.361864e-01 1.330986e-01 1.209461e-01 1.173710e-01 1.057015e-01 1.017909e-01 9.089367e-02 8.684279e-02 7.695220e-02 7.300102e-02 6.429388e-02 6.072675e-02 5.332669e-02 5.046175e-02 4.444588e-02 4.259017e-02 3.798538e-02 3.732427e-02 3.407958e-02 3.453182e-02 3.249722e-02 3.369357e-02 3.267651e-02 3.414447e-02 3.402095e-02 3.540349e-02 3.617678e-02 3.733576e-02 3.911033e-02 4.013274e-02 4.303791e-02 4.418611e-02 4.829163e-02 4.991050e-02 5.517639e-02 5.758577e-02 6.386889e-02 6.728797e-02 7.438479e-02 
8.545919e-02 9.348999e-02 9.907931e-02 1.074653e-01 1.140403e-01 1.225638e-01 1.299898e-01 1.384336e-01 1.465283e-01 1.546733e-01 1.632205e-01 1.708449e-01 1.796058e-01 1.864869e-01 1.952107e-01 2.011298e-01 2.095643e-01 2.143136e-01 2.222163e-01 2.256084e-01 2.327575e-01 2.346352e-01 2.408415e-01 2.410881e-01 2.462041e-01 2.447532e-01 2.486812e-01 2.455247e-01 2.482210e-01 2.434165e-01 2.448928e-01 2.385693e-01 2.388900e-01 2.312525e-01 2.305300e-01 2.218648e-01 2.202520e-01 2.109318e-01 2.086143e-01 1.991026e-01 1.962909e-01 1.871422e-01 1.840642e-01 1.759123e-01 1.728053e-01 1.663240e-01 1.634221e-01 1.592412e-01 1.567561e-01 1.553319e-01 1.534251e-01 1.549041e-01 1.536625e-01 1.578155e-01 1.572457e-01 1.635216e-01 1.635676e-01 1.712332e-01 1.718066e-01 1.800887e-01 1.810938e-01 1.892745e-01 1.906212e-01 1.980808e-01 1.996864e-01 2.059156e-01 2.077006e-01 2.122984e-01 2.141810e-01 2.168508e-01 2.187414e-01 2.192872e-01 2.210857e-01 2.194103e-01 2.210057e-01 2.171088e-01 2.183821e-01 2.123573e-01 2.131869e-01 2.052154e-01 2.054852e-01 1.958269e-01 1.954354e-01 1.844149e-01 1.832853e-01 1.712748e-01 1.693645e-01 1.567627e-01 1.540717e-01 1.412823e-01 1.378586e-01 1.252683e-01 1.212120e-01 1.091712e-01 1.046365e-01 9.344406e-02 8.864158e-02 7.853580e-02 7.373641e-02 6.489430e-02 6.043610e-02 5.298201e-02 4.927333e-02 4.329491e-02 4.078189e-02 3.633518e-02 3.536135e-02 3.242685e-02 3.297448e-02 3.138863e-02 3.298175e-02 3.249260e-02 3.448813e-02 3.492093e-02 3.684700e-02 3.818063e-02 3.984745e-02 4.217023e-02 4.364050e-02 4.706297e-02 4.857862e-02 5.315532e-02 5.504330e-02 6.073220e-02 6.330713e-02 6.997521e-02 7.346891e-02 8.092557e-02 
9.227308e-02 1.006782e-01 1.062073e-01 1.149690e-01 1.214790e-01 1.303779e-01 1.377512e-01 1.465664e-01 1.546318e-01 1.631400e-01 1.716872e-01 1.796622e-01 1.884542e-01 1.956690e-01 2.044537e-01 2.106856e-01 2.192073e-01 2.242450e-01 2.322565e-01 2.359098e-01 2.431845e-01 2.452947e-01 2.516388e-01 2.520896e-01 2.573527e-01 2.560798e-01 2.601633e-01 2.571635e-01 2.600249e-01 2.553628e-01 2.570166e-01 2.508302e-01 2.513448e-01 2.438503e-01 2.433411e-01 2.348365e-01 2.334573e-01 2.243263e-01 2.222590e-01 2.129718e-01 2.104164e-01 2.015255e-01 1.986903e-01 1.908123e-01 1.879042e-01 1.816763e-01 1.788902e-01 1.748919e-01 1.723970e-01 1.710390e-01 1.689645e-01 1.703795e-01 1.688027e-01 1.727935e-01 1.717399e-01 1.778173e-01 1.772718e-01 1.847623e-01 1.846875e-01 1.928535e-01 1.932040e-01 2.013338e-01 2.020630e-01 2.095214e-01 2.105815e-01 2.168314e-01 2.181682e-01 2.227772e-01 2.243242e-01 2.269663e-01 2.286393e-01 2.290952e-01 2.307890e-01 2.289459e-01 2.305343e-01 2.263854e-01 2.277248e-01 2.213662e-01 2.223023e-01 2.139267e-01 2.143043e-01 2.041902e-01 2.038661e-01 1.923619e-01 1.912178e-01 1.787219e-01 1.766776e-01 1.636153e-01 1.606403e-01 1.474390e-01 1.435607e-01 1.306261e-01 1.259354e-01 1.136302e-01 1.082846e-01 9.691270e-02 9.113864e-02 8.093661e-02 7.503592e-02 6.617358e-02 6.053829e-02 5.313318e-02 4.826997e-02 4.241672e-02 3.895059e-02 3.474594e-02 3.326995e-02 3.075239e-02 3.137828e-02 3.036695e-02 3.244835e-02 3.259215e-02 3.521766e-02 3.626893e-02 3.880965e-02 4.072371e-02 4.292992e-02 4.578911e-02 4.770151e-02 5.161270e-02 5.346138e-02 5.848016e-02 6.058711e-02 6.668110e-02 6.936822e-02 7.641947e-02 7.993932e-02 8.777083e-02 
1.000727e-01 1.089007e-01 1.144821e-01 1.236478e-01 1.301835e-01 1.394678e-01 1.468595e-01 1.560403e-01 1.641311e-01 1.729829e-01 1.815720e-01 1.898657e-01 1.987214e-01 2.062270e-01 2.150986e-01 2.215902e-01 2.302205e-01 2.354840e-01 2.436223e-01 2.474655e-01 2.548811e-01 2.571445e-01 2.636398e-01 2.642085e-01 2.696309e-01 2.684442e-01 2.726950e-01 2.697562e-01 2.727952e-01 2.681779e-01 2.700244e-01 2.638781e-01 2.646058e-01 2.571599e-01 2.568892e-01 2.484563e-01 2.473427e-01 2.383197e-01 2.365416e-01 2.274081e-01 2.251541e-01 2.164632e-01 2.139203e-01 2.062753e-01 2.036184e-01 1.976265e-01 1.950101e-01 1.912077e-01 1.887585e-01 1.875158e-01 1.853289e-01 1.867616e-01 1.848997e-01 1.888286e-01 1.873276e-01 1.933078e-01 1.921856e-01 1.995914e-01 1.988576e-01 2.069830e-01 2.066438e-01 2.147850e-01 2.148435e-01 2.223524e-01 2.228036e-01 2.291168e-01 2.299405e-01 2.345938e-01 2.357467e-01 2.383827e-01 2.397919e-01 2.401646e-01 2.417239e-01 2.397021e-01 2.412716e-01 2.368398e-01 2.382505e-01 2.315068e-01 2.325689e-01 2.237180e-01 2.242334e-01 2.135745e-01 2.133532e-01 2.012618e-01 2.001384e-01 1.870436e-01 1.848954e-01 1.712531e-01 1.680145e-01 1.542797e-01 1.499540e-01 1.365542e-01 1.312203e-01 1.185327e-01 1.123485e-01 1.006828e-01 9.388673e-02 8.347629e-02 7.639403e-02 6.739725e-02 6.046184e-02 5.298022e-02 4.678253e-02 4.090607e-02 3.627086e-02 3.214651e-02 3.005244e-02 2.783927e-02 2.867722e-02 2.820300e-02 3.103939e-02 3.180033e-02 3.529469e-02 3.695353e-02 4.029187e-02 4.279452e-02 4.568897e-02 4.912286e-02 5.161501e-02 5.608355e-02 5.840632e-02 6.395655e-02 6.643186e-02 7.302607e-02 7.597867e-02 8.349983e-02 8.719343e-02 9.546911e-02 
1.082862e-01 1.175520e-01 1.231426e-01 1.327461e-01 1.392778e-01 1.489992e-01 1.563925e-01 1.660071e-01 1.741183e-01 1.833967e-01 1.920329e-01 2.007414e-01 2.096740e-01 2.175772e-01 2.265547e-01 2.334213e-01 2.421826e-01 2.477929e-01 2.560815e-01 2.602385e-01 2.678168e-01 2.703579e-01 2.770221e-01 2.778308e-01 2.834238e-01 2.824406e-01 2.868617e-01 2.840932e-01 2.873033e-01 2.828290e-01 2.848502e-01 2.788273e-01 2.797378e-01 2.724048e-01 2.723281e-01 2.640066e-01 2.630990e-01 2.541940e-01 2.526293e-01 2.436247e-01 2.415801e-01 2.330267e-01 2.306698e-01 2.231592e-01 2.206384e-01 2.147562e-01 2.121945e-01 2.084513e-01 2.059450e-01 2.046923e-01 2.023139e-01 2.036688e-01 2.014736e-01 2.052826e-01 2.033175e-01 2.091769e-01 2.074875e-01 2.148106e-01 2.134458e-01 2.215489e-01 2.205597e-01 2.287399e-01 2.281739e-01 2.357649e-01 2.356576e-01 2.420656e-01 2.424298e-01 2.471556e-01 2.479712e-01 2.506236e-01 2.518291e-01 2.521346e-01 2.536223e-01 2.514314e-01 2.530463e-01 2.483366e-01 2.498809e-01 2.427556e-01 2.439991e-01 2.346791e-01 2.353747e-01 2.241847e-01 2.240882e-01 2.114358e-01 2.103278e-01 1.966766e-01 1.943856e-01 1.802248e-01 1.766463e-01 1.624593e-01 1.575708e-01 1.438055e-01 1.376746e-01 1.247190e-01 1.175059e-01 1.056703e-01 9.762689e-02 8.713432e-02 7.860752e-02 6.959627e-02 6.104888e-02 5.359326e-02 4.567611e-02 3.984699e-02 3.358037e-02 2.957927e-02 2.651666e-02 2.471646e-02 2.584153e-02 2.609088e-02 2.994193e-02 3.145180e-02 3.600196e-02 3.832928e-02 4.256836e-02 4.567294e-02 4.929935e-02 5.328966e-02 5.636019e-02 6.134927e-02 6.411073e-02 7.015041e-02 7.293699e-02 7.999577e-02 8.314795e-02 9.111735e-02 9.492063e-02 1.036365e-01 
1.176181e-01 1.273787e-01 1.331022e-01 1.431801e-01 1.498122e-01 1.599882e-01 1.674680e-01 1.775166e-01 1.857157e-01 1.954057e-01 2.041419e-01 2.132363e-01 2.222872e-01 2.305468e-01 2.396626e-01 2.468510e-01 2.557688e-01 2.616616e-01 2.701199e-01 2.745160e-01 2.822712e-01 2.850053e-01 2.918479e-01 2.928032e-01 2.985722e-01 2.976918e-01 3.022856e-01 2.995818e-01 3.029639e-01 2.985244e-01 3.007227e-01 2.947155e-01 2.958150e-01 2.884906e-01 2.886214e-01 2.803142e-01 2.796352e-01 2.707619e-01 2.694436e-01 2.604963e-01 2.587044e-01 2.502356e-01 2.481172e-01 2.407109e-01 2.383850e-01 2.326094e-01 2.301645e-01 2.265069e-01 2.240050e-01 2.227974e-01 2.202836e-01 2.216385e-01 2.191550e-01 2.229341e-01 2.205325e-01 2.263619e-01 2.241105e-01 2.314351e-01 2.294201e-01 2.375763e-01 2.358954e-01 2.441818e-01 2.429325e-01 2.506665e-01 2.499323e-01 2.564905e-01 2.563260e-01 2.611724e-01 2.615887e-01 2.642956e-01 2.652492e-01 2.655114e-01 2.668971e-01 2.645433e-01 2.661921e-01 2.611902e-01 2.628747e-01 2.553317e-01 2.567776e-01 2.469317e-01 2.478375e-01 2.360418e-01 2.361030e-01 2.228013e-01 2.217384e-01 2.074341e-01 2.050211e-01 1.902417e-01 1.863310e-01 1.715923e-01 1.661330e-01 1.519065e-01 1.449540e-01 1.316404e-01 1.233573e-01 1.112679e-01 1.019190e-01 9.126615e-02 8.121427e-02 7.211269e-02 6.183011e-02 5.431455e-02 4.445416e-02 3.854092e-02 3.021080e-02 2.610294e-02 2.160262e-02 2.005158e-02 2.177359e-02 2.277519e-02 2.816154e-02 3.039379e-02 3.630374e-02 3.925174e-02 4.457354e-02 4.826011e-02 5.275490e-02 5.732353e-02 6.109901e-02 6.666850e-02 7.000157e-02 7.661593e-02 7.985770e-02 8.747594e-02 9.097893e-02 9.948689e-02 1.035500e-01 1.127822e-01 