# vtk DataFile Version 2.0
Comment goes here
ASCII

DATASET STRUCTURED_POINTS
FIELD FieldData 1
TIME 1 1 double
0.09500000
DIMENSIONS    128   128   1

ORIGIN    0.000   0.000   0.000
SPACING   0.039062 0.039062   1.000

POINT_DATA   16384
SCALARS uMag double
LOOKUP_TABLE default

2.426258e-01 1.880039e-01 1.290110e-01 7.484188e-02 1.678965e-02 3.642966e-02 9.304817e-02 1.448721e-01 1.996151e-01 2.496470e-01 3.021213e-01 3.500107e-01 3.998687e-01 4.453080e-01 4.922450e-01 5.349668e-01 5.787186e-01 6.184927e-01 6.588335e-01 6.954652e-01 7.322061e-01 7.655340e-01 7.985210e-01 8.284153e-01 8.575282e-01 8.838886e-01 9.090378e-01 9.317916e-01 9.529160e-01 9.720147e-01 9.890775e-01 1.004494e+00 1.017478e+00 1.029201e+00 1.038105e+00 1.046136e+00 1.050968e+00 1.055315e+00 1.056085e+00 1.056761e+00 1.053481e+00 1.050494e+00 1.043170e+00 1.036524e+00 1.025155e+00 1.014847e+00 9.994266e-01 9.854458e-01 9.659594e-01 9.482888e-01 9.247213e-01 9.033416e-01 8.756816e-01 8.505763e-01 8.188249e-01 7.899878e-01 7.541681e-01 7.216119e-01 6.817798e-01 6.455466e-01 6.018026e-01 5.619738e-01 5.144746e-01 4.711820e-01 4.201506e-01 3.735865e-01 3.193220e-01 2.697476e-01 2.126322e-01 1.603852e-01 1.008882e-01 4.638715e-02 1.493381e-02 7.118729e-02 1.336887e-01 1.911116e-01 2.540705e-01 3.120031e-01 3.746275e-01 4.323420e-01 4.937845e-01 5.504973e-01 6.098730e-01 6.647604e-01 7.211672e-01 7.733844e-01 8.259260e-01 8.746288e-01 9.224396e-01 9.668080e-01 1.009078e+00 1.048341e+00 1.084341e+00 1.117801e+00 1.146906e+00 1.173964e+00 1.195673e+00 1.215847e+00 1.229802e+00 1.242744e+00 1.248739e+00 1.254252e+00 1.252240e+00 1.250277e+00 1.240371e+00 1.231042e+00 1.213505e+00 1.197064e+00 1.172300e+00 1.149135e+00 1.117668e+00 1.088285e+00 1.050739e+00 1.015737e+00 9.728123e-01 9.328603e-01 8.853077e-01 8.411208e-01 7.897182e-01 7.420338e-01 6.875643e-01 6.371209e-01 5.803536e-01 5.278729e-01 4.695481e-01 4.157206e-01 3.565385e-01 3.020133e-01 
2.489422e-01 1.960273e-01 1.404537e-01 9.311139e-02 5.794352e-02 6.627370e-02 1.083201e-01 1.550926e-01 2.071815e-01 2.557153e-01 3.071773e-01 3.543626e-01 4.037033e-01 4.487313e-01 4.953632e-01 5.378119e-01 5.813694e-01 6.209458e-01 6.611585e-01 6.976378e-01 7.342939e-01 7.674984e-01 8.004315e-01 8.302220e-01 8.593039e-01 8.855746e-01 9.107109e-01 9.333854e-01 9.545116e-01 9.735392e-01 9.906162e-01 1.005968e+00 1.018977e+00 1.030642e+00 1.039580e+00 1.047558e+00 1.052431e+00 1.056732e+00 1.057551e+00 1.058185e+00 1.054960e+00 1.051938e+00 1.044674e+00 1.037999e+00 1.026696e+00 1.016367e+00 1.001016e+00 9.870228e-01 9.676111e-01 9.499377e-01 9.264504e-01 9.050797e-01 8.775071e-01 8.524255e-01 8.207720e-01 7.919778e-01 7.562718e-01 7.237852e-01 6.840926e-01 6.479677e-01 6.044065e-01 5.647466e-01 5.175069e-01 4.744864e-01 4.238613e-01 3.777677e-01 3.242277e-01 2.755840e-01 2.200596e-01 1.702360e-01 1.161418e-01 7.432032e-02 6.063920e-02 9.274109e-02 1.467028e-01 2.006698e-01 2.616262e-01 3.183577e-01 3.801829e-01 4.373001e-01 4.983525e-01 5.547082e-01 6.138778e-01 6.685248e-01 7.248211e-01 7.768613e-01 8.293460e-01 8.779084e-01 9.256927e-01 9.699424e-01 1.012203e+00 1.051360e+00 1.087358e+00 1.120720e+00 1.149826e+00 1.176790e+00 1.198499e+00 1.218581e+00 1.232534e+00 1.245387e+00 1.251376e+00 1.256801e+00 1.254781e+00 1.252734e+00 1.242818e+00 1.233408e+00 1.215863e+00 1.199348e+00 1.174579e+00 1.151350e+00 1.119886e+00 1.090451e+00 1.052921e+00 1.017884e+00 9.749910e-01 9.350263e-01 8.875300e-01 8.433600e-01 7.920479e-01 7.444210e-01 6.900916e-01 6.397644e-01 5.832140e-01 5.309416e-01 4.729637e-01 4.195082e-01 3.609254e-01 3.071193e-01 
2.680135e-01 2.193880e-01 1.711832e-01 1.344848e-01 1.124884e-01 1.162924e-01 1.440466e-01 1.813901e-01 2.272871e-01 2.719499e-01 3.206411e-01 3.658660e-01 4.136974e-01 4.575639e-01 5.032589e-01 5.449478e-01 5.878696e-01 6.269163e-01 6.666684e-01 7.027625e-01 7.390674e-01 7.719844e-01 8.046382e-01 8.342110e-01 8.630630e-01 8.891683e-01 9.141106e-01 9.366606e-01 9.576200e-01 9.765569e-01 9.934893e-01 1.008779e+00 1.021664e+00 1.033293e+00 1.042125e+00 1.050093e+00 1.054879e+00 1.059194e+00 1.059947e+00 1.060620e+00 1.057352e+00 1.054395e+00 1.047114e+00 1.040532e+00 1.029240e+00 1.019033e+00 1.003725e+00 9.898881e-01 9.705552e-01 9.530754e-01 9.297084e-01 9.085744e-01 8.811712e-01 8.563778e-01 8.249541e-01 7.965122e-01 7.611145e-01 7.290641e-01 6.897876e-01 6.542164e-01 6.112301e-01 5.723010e-01 5.258887e-01 4.838920e-01 4.345369e-01 3.900098e-01 3.386213e-01 2.927190e-01 2.414474e-01 1.975029e-01 1.537552e-01 1.256649e-01 1.185896e-01 1.380840e-01 1.791705e-01 2.256074e-01 2.814086e-01 3.348484e-01 3.942371e-01 4.495942e-01 5.092854e-01 5.645707e-01 6.228948e-01 6.768417e-01 7.325753e-01 7.841410e-01 8.362325e-01 8.844713e-01 9.319708e-01 9.760046e-01 1.018052e+00 1.057074e+00 1.092910e+00 1.126198e+00 1.155178e+00 1.182115e+00 1.203725e+00 1.223818e+00 1.237691e+00 1.250584e+00 1.256511e+00 1.261999e+00 1.259933e+00 1.257967e+00 1.248022e+00 1.238710e+00 1.221154e+00 1.204752e+00 1.179996e+00 1.156898e+00 1.125476e+00 1.096195e+00 1.058745e+00 1.023892e+00 9.811303e-01 9.413925e-01 8.940961e-01 8.502148e-01 7.991985e-01 7.519524e-01 6.980581e-01 6.482549e-01 5.923546e-01 5.408430e-01 4.838761e-01 4.316097e-01 3.747181e-01 3.229864e-01 
2.966680e-01 2.531920e-01 2.124969e-01 1.836953e-01 1.679437e-01 1.699602e-01 1.897798e-01 2.190416e-01 2.581602e-01 2.979076e-01 3.428069e-01 3.851774e-01 4.307724e-01 4.728364e-01 5.171039e-01 5.575644e-01 5.995166e-01 6.376757e-01 6.767389e-01 7.121629e-01 7.479627e-01 7.803566e-01 8.126322e-01 8.417865e-01 8.703526e-01 8.961170e-01 9.208432e-01 9.431128e-01 9.639117e-01 9.826172e-01 9.994354e-01 1.014536e+00 1.027347e+00 1.038824e+00 1.047619e+00 1.055471e+00 1.060256e+00 1.064490e+00 1.065277e+00 1.065905e+00 1.062705e+00 1.059741e+00 1.052564e+00 1.046017e+00 1.034867e+00 1.024740e+00 1.009614e+00 9.959053e-01 9.767995e-01 9.595046e-01 9.364159e-01 9.155322e-01 8.884690e-01 8.640046e-01 8.329992e-01 8.049850e-01 7.701108e-01 7.386187e-01 7.000158e-01 6.651854e-01 6.230992e-01 5.851835e-01 5.400353e-01 4.994898e-01 4.520254e-01 4.097161e-01 3.613857e-01 3.191694e-01 2.732776e-01 2.358724e-01 2.012629e-01 1.813827e-01 1.773763e-01 1.915948e-01 2.238287e-01 2.629500e-01 3.128309e-01 3.620087e-01 4.181532e-01 4.709869e-01 5.288061e-01 5.824768e-01 6.396581e-01 6.925042e-01 7.475116e-01 7.982914e-01 8.499081e-01 8.975669e-01 9.447482e-01 9.883435e-01 1.030172e+00 1.068855e+00 1.104533e+00 1.137557e+00 1.166416e+00 1.193142e+00 1.214653e+00 1.234576e+00 1.248364e+00 1.261118e+00 1.266970e+00 1.272343e+00 1.270212e+00 1.268155e+00 1.258158e+00 1.248779e+00 1.231192e+00 1.214751e+00 1.189994e+00 1.166893e+00 1.135514e+00 1.106276e+00 1.068929e+00 1.034182e+00 9.916081e-01 9.520609e-01 9.050651e-01 8.614909e-01 8.109320e-01 7.641570e-01 7.109440e-01 6.618529e-01 6.069697e-01 5.565459e-01 5.011350e-01 4.505886e-01 3.961955e-01 3.473483e-01 
3.335025e-01 2.949062e-01 2.602867e-01 2.366207e-01 2.240605e-01 2.247955e-01 2.396449e-01 2.627497e-01 2.957693e-01 3.304903e-01 3.711723e-01 4.101894e-01 4.530287e-01 4.928372e-01 5.352407e-01 5.741207e-01 6.147532e-01 6.517610e-01 6.898497e-01 7.244085e-01 7.594622e-01 7.911910e-01 8.228778e-01 8.515130e-01 8.796025e-01 9.049589e-01 9.292922e-01 9.512416e-01 9.717130e-01 9.901708e-01 1.006716e+00 1.021632e+00 1.034217e+00 1.045567e+00 1.054183e+00 1.061961e+00 1.066614e+00 1.070827e+00 1.071529e+00 1.072192e+00 1.068960e+00 1.066088e+00 1.058934e+00 1.052541e+00 1.041475e+00 1.031569e+00 1.016595e+00 1.003182e+00 9.843040e-01 9.673879e-01 9.446129e-01 9.242034e-01 8.975556e-01 8.736784e-01 8.432129e-01 8.159247e-01 7.817508e-01 7.511632e-01 7.134777e-01 6.797937e-01 6.389360e-01 6.025140e-01 5.590642e-01 5.205409e-01 4.755222e-01 4.360830e-01 3.914268e-01 3.534555e-01 3.131371e-01 2.817656e-01 2.541293e-01 2.393594e-01 2.370452e-01 2.483899e-01 2.746782e-01 3.077436e-01 3.518784e-01 3.964708e-01 4.487962e-01 4.985629e-01 5.539252e-01 6.055187e-01 6.610776e-01 7.124769e-01 7.663782e-01 8.161310e-01 8.669717e-01 9.138972e-01 9.605199e-01 1.003596e+00 1.045012e+00 1.083339e+00 1.118704e+00 1.151495e+00 1.180110e+00 1.206700e+00 1.228017e+00 1.247877e+00 1.261507e+00 1.274257e+00 1.279981e+00 1.285397e+00 1.283165e+00 1.281189e+00 1.271122e+00 1.261858e+00 1.244238e+00 1.227948e+00 1.203206e+00 1.180297e+00 1.148997e+00 1.120004e+00 1.082820e+00 1.048390e+00 1.006089e+00 9.669567e-01 9.203835e-01 8.773615e-01 8.274277e-01 7.814010e-01 7.290969e-01 6.810417e-01 6.274803e-01 5.785302e-01 5.250702e-01 4.766918e-01 4.252466e-01 3.796883e-01 
3.756287e-01 3.412223e-01 3.113612e-01 2.911927e-01 2.806639e-01 2.805627e-01 2.922282e-01 3.108318e-01 3.389029e-01 3.690583e-01 4.056499e-01 4.411735e-01 4.810609e-01 5.183244e-01 5.586251e-01 5.956294e-01 6.347363e-01 6.703262e-01 7.072819e-01 7.407416e-01 7.749358e-01 8.057937e-01 8.368176e-01 8.647509e-01 8.923237e-01 9.171077e-01 9.410369e-01 9.625168e-01 9.826748e-01 1.000748e+00 1.017057e+00 1.031662e+00 1.044079e+00 1.055186e+00 1.063696e+00 1.071295e+00 1.075903e+00 1.080002e+00 1.080721e+00 1.081335e+00 1.078182e+00 1.075330e+00 1.068322e+00 1.062022e+00 1.051172e+00 1.041440e+00 1.026756e+00 1.013606e+00 9.950996e-01 9.785450e-01 9.562354e-01 9.363011e-01 9.102279e-01 8.869599e-01 8.572034e-01 8.306882e-01 7.973972e-01 7.677910e-01 7.312248e-01 6.987997e-01 6.593970e-01 6.246194e-01 5.831192e-01 5.467966e-01 5.044699e-01 4.680432e-01 4.271632e-01 3.933018e-01 3.580530e-01 3.316851e-01 3.092810e-01 2.980255e-01 2.970661e-01 3.069070e-01 3.295079e-01 3.581367e-01 3.976444e-01 4.380883e-01 4.868406e-01 5.334795e-01 5.863784e-01 6.357005e-01 6.895959e-01 7.393352e-01 7.921091e-01 8.406308e-01 8.906989e-01 9.366996e-01 9.827839e-01 1.025159e+00 1.066190e+00 1.103982e+00 1.139062e+00 1.171443e+00 1.199834e+00 1.226109e+00 1.247239e+00 1.266857e+00 1.280325e+00 1.292888e+00 1.298467e+00 1.303741e+00 1.301383e+00 1.299305e+00 1.289136e+00 1.279810e+00 1.262125e+00 1.245819e+00 1.221066e+00 1.198197e+00 1.166961e+00 1.138084e+00 1.101068e+00 1.066853e+00 1.024858e+00 9.860749e-01 9.399917e-01 8.974992e-01 8.483017e-01 8.030507e-01 7.518171e-01 7.048801e-01 6.528540e-01 6.055091e-01 5.542441e-01 5.081707e-01 4.598490e-01 4.175512e-01 
4.225655e-01 3.915602e-01 3.652251e-01 3.473719e-01 3.379982e-01 3.370743e-01 3.463009e-01 3.613527e-01 3.852982e-01 4.113812e-01 4.441076e-01 4.761778e-01 5.130136e-01 5.475941e-01 5.855861e-01 6.205385e-01 6.578962e-01 6.919054e-01 7.275139e-01 7.597396e-01 7.928749e-01 8.227575e-01 8.529319e-01 8.800869e-01 9.069661e-01 9.311261e-01 9.544814e-01 9.754623e-01 9.951423e-01 1.012822e+00 1.028733e+00 1.043037e+00 1.055130e+00 1.066019e+00 1.074277e+00 1.081739e+00 1.086166e+00 1.090209e+00 1.090820e+00 1.091462e+00 1.088281e+00 1.085545e+00 1.078595e+00 1.072506e+00 1.061806e+00 1.052387e+00 1.037957e+00 1.025232e+00 1.007091e+00 9.910876e-01 9.692702e-01 9.500287e-01 9.245940e-01 9.021833e-01 8.732401e-01 8.477787e-01 8.155186e-01 7.872087e-01 7.519555e-01 7.211368e-01 6.834262e-01 6.506638e-01 6.113762e-01 5.776155e-01 5.382105e-01 5.050532e-01 4.679799e-01 4.381502e-01 4.074565e-01 3.853537e-01 3.670012e-01 3.583694e-01 3.584005e-01 3.672696e-01 3.871952e-01 4.123486e-01 4.478930e-01 4.845475e-01 5.297818e-01 5.732460e-01 6.234644e-01 6.703307e-01 7.222748e-01 7.701582e-01 8.215237e-01 8.686551e-01 9.177011e-01 9.626699e-01 1.008003e+00 1.049625e+00 1.090094e+00 1.127351e+00 1.161999e+00 1.194018e+00 1.222068e+00 1.248117e+00 1.268971e+00 1.288468e+00 1.301705e+00 1.314231e+00 1.319617e+00 1.324919e+00 1.322404e+00 1.320406e+00 1.310123e+00 1.300924e+00 1.283176e+00 1.267047e+00 1.242299e+00 1.219666e+00 1.188525e+00 1.159958e+00 1.123156e+00 1.089351e+00 1.047727e+00 1.009489e+00 9.639805e-01 9.222169e-01 8.738610e-01 8.295880e-01 7.795483e-01 7.339284e-01 6.835636e-01 6.379952e-01 5.890060e-01 5.453094e-01 5.000173e-01 4.607727e-01 
4.725111e-01 4.442596e-01 4.207061e-01 4.045242e-01 3.960071e-01 3.944331e-01 4.018973e-01 4.141894e-01 4.348457e-01 4.574329e-01 4.867371e-01 5.155511e-01 5.494623e-01 5.813299e-01 6.169916e-01 6.497622e-01 6.852992e-01 7.175623e-01 7.517480e-01 7.825677e-01 8.145827e-01 8.433225e-01 8.726073e-01 8.988250e-01 9.249931e-01 9.483799e-01 9.711661e-01 9.915080e-01 1.010736e+00 1.027891e+00 1.043451e+00 1.057330e+00 1.069164e+00 1.079721e+00 1.087806e+00 1.095027e+00 1.099366e+00 1.103257e+00 1.103868e+00 1.104452e+00 1.101360e+00 1.098664e+00 1.091898e+00 1.085954e+00 1.075538e+00 1.066378e+00 1.052338e+00 1.039996e+00 1.022362e+00 1.006879e+00 9.856964e-01 9.671301e-01 9.424770e-01 9.209188e-01 8.929313e-01 8.685311e-01 8.374415e-01 8.104455e-01 7.766380e-01 7.474471e-01 7.115435e-01 6.808053e-01 6.438009e-01 6.125594e-01 5.760401e-01 5.459737e-01 5.124405e-01 4.861892e-01 4.594084e-01 4.407964e-01 4.256857e-01 4.191336e-01 4.201510e-01 4.285489e-01 4.468381e-01 4.695149e-01 5.021568e-01 5.357242e-01 5.780918e-01 6.187085e-01 6.666013e-01 7.111115e-01 7.613131e-01 8.073249e-01 8.574265e-01 9.030940e-01 9.512326e-01 9.950645e-01 1.039743e+00 1.080486e+00 1.120472e+00 1.157053e+00 1.191330e+00 1.222832e+00 1.250582e+00 1.276236e+00 1.296830e+00 1.316028e+00 1.329032e+00 1.341330e+00 1.346501e+00 1.351633e+00 1.348925e+00 1.346808e+00 1.336362e+00 1.327093e+00 1.309230e+00 1.293087e+00 1.268295e+00 1.245719e+00 1.214633e+00 1.186217e+00 1.149606e+00 1.116075e+00 1.074819e+00 1.037019e+00 9.921069e-01 9.509942e-01 9.035267e-01 8.601817e-01 8.114001e-01 7.670637e-01 7.184206e-01 6.745811e-01 6.278719e-01 5.864223e-01 5.440022e-01 5.074741e-01 
5.257546e-01 4.996519e-01 4.781320e-01 4.630490e-01 4.549624e-01 4.526792e-01 4.585876e-01 4.685226e-01 4.863360e-01 5.058273e-01 5.319972e-01 5.577559e-01 5.888213e-01 6.180183e-01 6.512970e-01 6.818469e-01 7.154462e-01 7.458952e-01 7.785136e-01 8.078566e-01 8.385964e-01 8.661320e-01 8.943684e-01 9.196018e-01 9.448982e-01 9.674800e-01 9.895353e-01 1.009222e+00 1.027835e+00 1.044463e+00 1.059510e+00 1.072977e+00 1.084391e+00 1.094644e+00 1.102401e+00 1.109422e+00 1.113526e+00 1.117323e+00 1.117799e+00 1.118397e+00 1.115277e+00 1.112713e+00 1.106032e+00 1.100345e+00 1.090139e+00 1.081372e+00 1.067677e+00 1.055876e+00 1.038732e+00 1.023954e+00 1.003423e+00 9.857423e-01 9.619213e-01 9.414534e-01 9.145065e-01 8.914313e-01 8.616300e-01 8.362336e-01 8.040166e-01 7.767511e-01 7.428117e-01 7.143848e-01 6.798005e-01 6.513101e-01 6.177276e-01 5.908489e-01 5.607142e-01 5.378996e-01 5.146083e-01 4.991040e-01 4.866880e-01 4.819234e-01 4.837635e-01 4.918975e-01 5.089097e-01 5.296056e-01 5.597532e-01 5.905968e-01 6.302636e-01 6.681647e-01 7.136832e-01 7.558189e-01 8.041157e-01 8.481755e-01 8.968106e-01 9.409280e-01 9.879551e-01 1.030588e+00 1.074425e+00 1.114267e+00 1.153607e+00 1.189534e+00 1.223306e+00 1.254356e+00 1.281697e+00 1.307063e+00 1.327317e+00 1.346355e+00 1.359066e+00 1.371305e+00 1.376224e+00 1.381374e+00 1.378451e+00 1.376414e+00 1.365798e+00 1.356663e+00 1.338691e+00 1.322735e+00 1.297914e+00 1.275591e+00 1.244585e+00 1.216505e+00 1.180115e+00 1.147033e+00 1.106181e+00 1.068979e+00 1.024702e+00 9.843853e-01 9.378404e-01 8.955439e-01 8.480368e-01 8.050636e-01 7.581117e-01 7.160048e-01 6.714440e-01 6.321053e-01 5.922364e-01 5.580630e-01 
5.810763e-01 5.566961e-01 5.368375e-01 5.225588e-01 5.148232e-01 5.119200e-01 5.166196e-01 5.246014e-01 5.400927e-01 5.569013e-01 5.803503e-01 6.033033e-01 6.317575e-01 6.583689e-01 6.893659e-01 7.176705e-01 7.493597e-01 7.779081e-01 8.089553e-01 8.367042e-01 8.661579e-01 8.923585e-01 9.195415e-01 9.436558e-01 9.680881e-01 9.897311e-01 1.011079e+00 1.029980e+00 1.048018e+00 1.063994e+00 1.078585e+00 1.091522e+00 1.102588e+00 1.112425e+00 1.119941e+00 1.126658e+00 1.130629e+00 1.134235e+00 1.134688e+00 1.135214e+00 1.132187e+00 1.129676e+00 1.123211e+00 1.117710e+00 1.107849e+00 1.099413e+00 1.086199e+00 1.074886e+00 1.058370e+00 1.044250e+00 1.024503e+00 1.007669e+00 9.848059e-01 9.653928e-01 9.396011e-01 9.178156e-01 8.893994e-01 8.655606e-01 8.350030e-01 8.096018e-01 7.776508e-01 7.514340e-01 7.192201e-01 6.933052e-01 6.624925e-01 6.385059e-01 6.114408e-01 5.916236e-01 5.713557e-01 5.584717e-01 5.483714e-01 5.451549e-01 5.478994e-01 5.560331e-01 5.723831e-01 5.917078e-01 6.201679e-01 6.488991e-01 6.865674e-01 7.221955e-01 7.658659e-01 8.058943e-01 8.526728e-01 8.949168e-01 9.423781e-01 9.849923e-01 1.031138e+00 1.072557e+00 1.115734e+00 1.154613e+00 1.193450e+00 1.228626e+00 1.261995e+00 1.292465e+00 1.319463e+00 1.344386e+00 1.364328e+00 1.383028e+00 1.395443e+00 1.407425e+00 1.412057e+00 1.417012e+00 1.413818e+00 1.411636e+00 1.400780e+00 1.391551e+00 1.373390e+00 1.357398e+00 1.332468e+00 1.310182e+00 1.279184e+00 1.251241e+00 1.215012e+00 1.182200e+00 1.141709e+00 1.104950e+00 1.061282e+00 1.021625e+00 9.759883e-01 9.346192e-01 8.883702e-01 8.466365e-01 8.013319e-01 7.608018e-01 7.182764e-01 6.808162e-01 6.432651e-01 6.110983e-01 
6.391326e-01 6.160460e-01 5.973503e-01 5.835336e-01 5.758595e-01 5.722577e-01 5.757721e-01 5.819745e-01 5.953512e-01 6.097302e-01 6.306606e-01 6.510058e-01 6.769581e-01 7.010939e-01 7.298253e-01 7.559260e-01 7.856553e-01 8.123050e-01 8.416898e-01 8.678288e-01 8.958797e-01 9.207252e-01 9.467215e-01 9.696996e-01 9.931226e-01 1.013816e+00 1.034301e+00 1.052415e+00 1.069717e+00 1.085049e+00 1.099015e+00 1.111439e+00 1.121989e+00 1.131438e+00 1.138546e+00 1.144997e+00 1.148675e+00 1.152143e+00 1.152424e+00 1.152946e+00 1.149879e+00 1.147506e+00 1.141144e+00 1.135937e+00 1.126333e+00 1.118358e+00 1.105566e+00 1.094894e+00 1.078977e+00 1.065695e+00 1.046738e+00 1.030955e+00 1.009088e+00 9.909604e-01 9.663927e-01 9.461495e-01 9.192133e-01 8.972000e-01 8.684129e-01 8.451463e-01 8.152925e-01 7.915353e-01 7.617683e-01 7.386216e-01 7.105775e-01 6.895737e-01 6.654531e-01 6.485928e-01 6.310983e-01 6.207081e-01 6.126614e-01 6.109325e-01 6.144913e-01 6.227622e-01 6.385771e-01 6.568080e-01 6.837709e-01 7.106460e-01 7.464181e-01 7.799194e-01 8.217193e-01 8.596820e-01 9.048265e-01 9.452342e-01 9.913575e-01 1.032428e+00 1.077513e+00 1.117689e+00 1.160035e+00 1.197953e+00 1.236134e+00 1.270600e+00 1.303439e+00 1.333416e+00 1.359972e+00 1.384579e+00 1.404137e+00 1.422665e+00 1.434736e+00 1.446654e+00 1.450975e+00 1.455947e+00 1.452475e+00 1.450371e+00 1.439279e+00 1.430176e+00 1.411839e+00 1.396022e+00 1.371002e+00 1.348949e+00 1.317974e+00 1.290344e+00 1.254290e+00 1.221898e+00 1.181772e+00 1.145578e+00 1.102508e+00 1.063600e+00 1.018837e+00 9.784402e-01 9.333740e-01 8.928655e-01 8.490674e-01 8.100139e-01 7.692821e-01 7.334830e-01 6.978749e-01 6.673645e-01 
6.989569e-01 6.768890e-01 6.591724e-01 6.456603e-01 6.380452e-01 6.337942e-01 6.363414e-01 6.409877e-01 6.525893e-01 6.648075e-01 6.835444e-01 7.014888e-01 7.251789e-01 7.469487e-01 7.735645e-01 7.974843e-01 8.253387e-01 8.500505e-01 8.778198e-01 9.022698e-01 9.289477e-01 9.523356e-01 9.771714e-01 9.988980e-01 1.021343e+00 1.040967e+00 1.060631e+00 1.077834e+00 1.094454e+00 1.109021e+00 1.122433e+00 1.134226e+00 1.144344e+00 1.153292e+00 1.160091e+00 1.166172e+00 1.169666e+00 1.172897e+00 1.173129e+00 1.173554e+00 1.170578e+00 1.168260e+00 1.162138e+00 1.157146e+00 1.147939e+00 1.140352e+00 1.128121e+00 1.118025e+00 1.102842e+00 1.090334e+00 1.072292e+00 1.057499e+00 1.036739e+00 1.019831e+00 9.965773e-01 9.778014e-01 9.524063e-01 9.321255e-01 9.051293e-01 8.838734e-01 8.560815e-01 8.346126e-01 8.071819e-01 7.865660e-01 7.610884e-01 7.427539e-01 7.212895e-01 7.070208e-01 6.919910e-01 6.837717e-01 6.776001e-01 6.772320e-01 6.817253e-01 6.903056e-01 7.060365e-01 7.235878e-01 7.496976e-01 7.752124e-01 8.097562e-01 8.415784e-01 8.821043e-01 9.183461e-01 9.623583e-01 1.001168e+00 1.046367e+00 1.086038e+00 1.130401e+00 1.169403e+00 1.211189e+00 1.248150e+00 1.285885e+00 1.319591e+00 1.352053e+00 1.381437e+00 1.407646e+00 1.431797e+00 1.451013e+00 1.469189e+00 1.480910e+00 1.492552e+00 1.496513e+00 1.501265e+00 1.497434e+00 1.495151e+00 1.483719e+00 1.474477e+00 1.455848e+00 1.439938e+00 1.414708e+00 1.392628e+00 1.361564e+00 1.333999e+00 1.298020e+00 1.265821e+00 1.225976e+00 1.190140e+00 1.147597e+00 1.109251e+00 1.065297e+00 1.025697e+00 9.817437e-01 9.422807e-01 8.998935e-01 8.621140e-01 8.230317e-01 7.886492e-01 7.547787e-01 7.256395e-01 
7.613721e-01 7.399975e-01 7.228785e-01 7.094256e-01 7.016280e-01 6.966405e-01 6.981627e-01 7.013221e-01 7.112231e-01 7.214328e-01 7.380900e-01 7.537911e-01 7.753052e-01 7.948310e-01 8.193656e-01 8.411843e-01 8.671475e-01 8.899685e-01 9.160655e-01 9.388526e-01 9.640693e-01 9.860147e-01 1.009577e+00 1.030063e+00 1.051397e+00 1.069961e+00 1.088654e+00 1.104961e+00 1.120734e+00 1.134552e+00 1.147233e+00 1.158417e+00 1.167921e+00 1.176396e+00 1.182700e+00 1.188447e+00 1.191577e+00 1.194619e+00 1.194630e+00 1.195021e+00 1.191982e+00 1.189796e+00 1.183783e+00 1.179105e+00 1.170191e+00 1.163115e+00 1.151373e+00 1.142000e+00 1.127511e+00 1.115953e+00 1.098821e+00 1.085219e+00 1.065596e+00 1.050136e+00 1.028256e+00 1.011198e+00 9.874275e-01 9.691454e-01 9.440367e-01 9.250608e-01 8.994239e-01 8.804968e-01 8.554693e-01 8.375975e-01 8.147005e-01 7.991851e-01 7.803199e-01 7.687233e-01 7.560424e-01 7.500356e-01 7.456215e-01 7.466807e-01 7.520588e-01 7.610861e-01 7.767663e-01 7.938261e-01 8.191422e-01 8.434717e-01 8.768032e-01 9.070596e-01 9.462540e-01 9.808191e-01 1.023576e+00 1.060782e+00 1.104895e+00 1.143144e+00 1.186608e+00 1.224420e+00 1.265475e+00 1.301495e+00 1.338633e+00 1.371636e+00 1.403595e+00 1.432493e+00 1.458261e+00 1.482110e+00 1.500922e+00 1.518942e+00 1.530280e+00 1.541875e+00 1.545468e+00 1.550246e+00 1.546065e+00 1.543856e+00 1.532105e+00 1.522968e+00 1.504071e+00 1.488294e+00 1.462874e+00 1.440964e+00 1.409821e+00 1.382485e+00 1.346573e+00 1.314691e+00 1.275096e+00 1.239700e+00 1.197625e+00 1.159874e+00 1.116630e+00 1.077806e+00 1.034816e+00 9.963129e-01 9.551206e-01 9.184534e-01 8.807247e-01 8.475147e-01 8.150060e-01 7.869257e-01 
8.255280e-01 8.046606e-01 7.880537e-01 7.745628e-01 7.666125e-01 7.609133e-01 7.615671e-01 7.633677e-01 7.718054e-01 7.801762e-01 7.950030e-01 8.086098e-01 8.281603e-01 8.455365e-01 8.681489e-01 8.879002e-01 9.120838e-01 9.329950e-01 9.574976e-01 9.785638e-01 1.002378e+00 1.022795e+00 1.045135e+00 1.064277e+00 1.084551e+00 1.101942e+00 1.119722e+00 1.135013e+00 1.150007e+00 1.162958e+00 1.174989e+00 1.185447e+00 1.194431e+00 1.202320e+00 1.208239e+00 1.213543e+00 1.216432e+00 1.219181e+00 1.219105e+00 1.219364e+00 1.216404e+00 1.214260e+00 1.208500e+00 1.204052e+00 1.195576e+00 1.188931e+00 1.177820e+00 1.169091e+00 1.155430e+00 1.144743e+00 1.128642e+00 1.116149e+00 1.097761e+00 1.083657e+00 1.063224e+00 1.047777e+00 1.025667e+00 1.009251e+00 9.860190e-01 9.691562e-01 9.456069e-01 9.290107e-01 9.062540e-01 8.908668e-01 8.703553e-01 8.573597e-01 8.408627e-01 8.316357e-01 8.211016e-01 8.170730e-01 8.143428e-01 8.167507e-01 8.231594e-01 8.327629e-01 8.487782e-01 8.656597e-01 8.907440e-01 9.143025e-01 9.470602e-01 9.761778e-01 1.014675e+00 1.047944e+00 1.090030e+00 1.125939e+00 1.169481e+00 1.206532e+00 1.249538e+00 1.286303e+00 1.326993e+00 1.362138e+00 1.398965e+00 1.431263e+00 1.462928e+00 1.491271e+00 1.516730e+00 1.540147e+00 1.558611e+00 1.576292e+00 1.587236e+00 1.598552e+00 1.601708e+00 1.606242e+00 1.601597e+00 1.599163e+00 1.586947e+00 1.577599e+00 1.558271e+00 1.542305e+00 1.516529e+00 1.494473e+00 1.463092e+00 1.435683e+00 1.399694e+00 1.367850e+00 1.328379e+00 1.293167e+00 1.251450e+00 1.214063e+00 1.171431e+00 1.133167e+00 1.091041e+00 1.053290e+00 1.013181e+00 9.774130e-01 9.409042e-01 9.086430e-01 8.773427e-01 8.500986e-01 
8.923151e-01 8.716828e-01 8.552586e-01 8.415269e-01 8.331974e-01 8.266930e-01 8.263764e-01 8.268347e-01 8.338078e-01 8.404306e-01 8.534759e-01 8.651082e-01 8.827486e-01 8.980906e-01 9.188116e-01 9.365917e-01 9.589931e-01 9.780694e-01 1.000941e+00 1.020343e+00 1.042686e+00 1.061620e+00 1.082639e+00 1.100474e+00 1.119563e+00 1.135812e+00 1.152528e+00 1.166831e+00 1.180874e+00 1.192982e+00 1.204175e+00 1.213931e+00 1.222192e+00 1.229520e+00 1.234846e+00 1.239737e+00 1.242178e+00 1.244673e+00 1.244312e+00 1.244490e+00 1.241428e+00 1.239393e+00 1.233732e+00 1.229602e+00 1.221441e+00 1.215339e+00 1.204770e+00 1.196828e+00 1.183945e+00 1.174302e+00 1.159218e+00 1.148037e+00 1.130911e+00 1.118397e+00 1.099467e+00 1.085891e+00 1.065525e+00 1.051256e+00 1.030002e+00 1.015544e+00 9.941854e-01 9.802074e-01 9.598109e-01 9.471753e-01 9.291081e-01 9.188651e-01 9.047545e-01 8.980911e-01 8.896870e-01 8.878033e-01 8.867272e-01 8.906442e-01 8.980643e-01 9.084108e-01 9.247551e-01 9.416205e-01 9.664563e-01 9.893745e-01 1.021502e+00 1.049559e+00 1.087249e+00 1.119244e+00 1.160503e+00 1.195099e+00 1.237882e+00 1.273705e+00 1.316059e+00 1.351759e+00 1.391898e+00 1.426185e+00 1.462539e+00 1.494198e+00 1.525441e+00 1.553355e+00 1.578412e+00 1.601583e+00 1.619647e+00 1.637223e+00 1.647756e+00 1.659066e+00 1.661797e+00 1.666381e+00 1.661304e+00 1.658938e+00 1.646299e+00 1.637016e+00 1.617295e+00 1.601385e+00 1.575276e+00 1.553275e+00 1.521655e+00 1.494324e+00 1.458226e+00 1.426514e+00 1.387098e+00 1.352108e+00 1.310637e+00 1.273591e+00 1.231409e+00 1.193623e+00 1.152147e+00 1.115003e+00 1.075704e+00 1.040630e+00 1.005011e+00 9.734405e-01 9.429761e-01 9.162814e-01 
9.609543e-01 9.404225e-01 9.241494e-01 9.101072e-01 9.014425e-01 8.941402e-01 8.929754e-01 8.921630e-01 8.978479e-01 9.028258e-01 9.142838e-01 9.240394e-01 9.399502e-01 9.533254e-01 9.723061e-01 9.881407e-01 1.008880e+00 1.026105e+00 1.047440e+00 1.065127e+00 1.086075e+00 1.103446e+00 1.123213e+00 1.139640e+00 1.157611e+00 1.172604e+00 1.188328e+00 1.201523e+00 1.214696e+00 1.225838e+00 1.236283e+00 1.245216e+00 1.252861e+00 1.259511e+00 1.264364e+00 1.268730e+00 1.270855e+00 1.272989e+00 1.272488e+00 1.272483e+00 1.269471e+00 1.267448e+00 1.262042e+00 1.258137e+00 1.250445e+00 1.244797e+00 1.234920e+00 1.227673e+00 1.215706e+00 1.207013e+00 1.193068e+00 1.183098e+00 1.167329e+00 1.156290e+00 1.138928e+00 1.127088e+00 1.108490e+00 1.096207e+00 1.076906e+00 1.064657e+00 1.045410e+00 1.033820e+00 1.015650e+00 1.005502e+00 9.897043e-01 9.819339e-01 9.700277e-01 9.656678e-01 9.592607e-01 9.593353e-01 9.599006e-01 9.652698e-01 9.738683e-01 9.850633e-01 1.002101e+00 1.019209e+00 1.044327e+00 1.066970e+00 1.099100e+00 1.126507e+00 1.164061e+00 1.195187e+00 1.236277e+00 1.269918e+00 1.312557e+00 1.347444e+00 1.389689e+00 1.424540e+00 1.464589e+00 1.498150e+00 1.534402e+00 1.565471e+00 1.596561e+00 1.624011e+00 1.648836e+00 1.671645e+00 1.689380e+00 1.706663e+00 1.716765e+00 1.727813e+00 1.730022e+00 1.734342e+00 1.728676e+00 1.726024e+00 1.712762e+00 1.703165e+00 1.682831e+00 1.666586e+00 1.639921e+00 1.617592e+00 1.585521e+00 1.557903e+00 1.521506e+00 1.489590e+00 1.450064e+00 1.414992e+00 1.373625e+00 1.336652e+00 1.294799e+00 1.257249e+00 1.216312e+00 1.179554e+00 1.140957e+00 1.106369e+00 1.071529e+00 1.040454e+00 1.010720e+00 9.843993e-01 
1.032340e+00 1.011659e+00 9.952261e-01 9.806880e-01 9.714627e-01 9.632636e-01 9.611219e-01 9.590271e-01 9.633778e-01 9.667662e-01 9.766435e-01 9.846162e-01 9.988244e-01 1.010340e+00 1.027603e+00 1.041595e+00 1.060675e+00 1.076143e+00 1.095917e+00 1.111969e+00 1.131468e+00 1.147345e+00 1.165773e+00 1.180852e+00 1.197584e+00 1.211371e+00 1.225950e+00 1.238077e+00 1.250196e+00 1.260405e+00 1.269894e+00 1.278028e+00 1.284828e+00 1.290821e+00 1.294960e+00 1.298820e+00 1.300388e+00 1.302184e+00 1.301310e+00 1.301157e+00 1.297982e+00 1.296023e+00 1.290687e+00 1.287081e+00 1.279711e+00 1.274620e+00 1.265327e+00 1.258913e+00 1.247800e+00 1.240228e+00 1.227405e+00 1.218855e+00 1.204469e+00 1.195151e+00 1.179422e+00 1.169598e+00 1.152866e+00 1.142878e+00 1.125650e+00 1.115942e+00 1.098939e+00 1.090078e+00 1.074266e+00 1.066946e+00 1.053535e+00 1.048563e+00 1.038953e+00 1.037199e+00 1.032852e+00 1.035160e+00 1.037402e+00 1.044471e+00 1.054258e+00 1.066517e+00 1.084228e+00 1.101750e+00 1.127088e+00 1.149572e+00 1.181592e+00 1.208403e+00 1.245656e+00 1.275910e+00 1.316625e+00 1.349271e+00 1.391536e+00 1.425434e+00 1.467339e+00 1.501304e+00 1.541049e+00 1.573892e+00 1.609857e+00 1.640406e+00 1.671203e+00 1.698333e+00 1.722836e+00 1.745500e+00 1.762866e+00 1.780137e+00 1.789814e+00 1.800929e+00 1.802658e+00 1.807066e+00 1.800874e+00 1.798284e+00 1.784468e+00 1.774873e+00 1.753983e+00 1.737672e+00 1.710479e+00 1.688024e+00 1.655492e+00 1.627716e+00 1.590959e+00 1.558895e+00 1.519144e+00 1.483974e+00 1.442542e+00 1.405554e+00 1.363804e+00 1.326343e+00 1.285664e+00 1.249089e+00 1.210867e+00 1.176517e+00 1.142093e+00 1.111237e+00 1.081854e+00 1.055627e+00 