# vtk DataFile Version 2.0
Comment goes here
ASCII

DATASET STRUCTURED_POINTS
FIELD FieldData 1
TIME 1 1 double
0.07500000
DIMENSIONS    128   128   1

ORIGIN    0.000   0.000   0.000
SPACING   0.039062 0.039062   1.000

POINT_DATA   16384
SCALARS uMag double
LOOKUP_TABLE default

2.483050e-01 2.110732e-01 1.735221e-01 1.358826e-01 9.845128e-02 6.083123e-02 2.390876e-02 1.329245e-02 4.934630e-02 8.575744e-02 1.206121e-01 1.558902e-01 1.892439e-01 2.230746e-01 2.546546e-01 2.867525e-01 3.163151e-01 3.464248e-01 3.737563e-01 4.016539e-01 4.265709e-01 4.520656e-01 4.744169e-01 4.973522e-01 5.170192e-01 5.372745e-01 5.541716e-01 5.716625e-01 5.857372e-01 6.004151e-01 6.116468e-01 6.234971e-01 6.318949e-01 6.409347e-01 6.465346e-01 6.528086e-01 6.556693e-01 6.592453e-01 6.594438e-01 6.604075e-01 6.580339e-01 6.564833e-01 6.516359e-01 6.476759e-01 6.404564e-01 6.341937e-01 6.247028e-01 6.162417e-01 6.045756e-01 5.940143e-01 5.802623e-01 5.676899e-01 5.519329e-01 5.374280e-01 5.197376e-01 5.033674e-01 4.838068e-01 4.656269e-01 4.442526e-01 4.243079e-01 4.011719e-01 3.794985e-01 3.546522e-01 3.312799e-01 3.047785e-01 2.797350e-01 2.516430e-01 2.249588e-01 1.953569e-01 1.670726e-01 1.360644e-01 1.062386e-01 7.395965e-02 4.267893e-02 9.303961e-03 2.330642e-02 5.755508e-02 9.132004e-02 1.261662e-01 1.608507e-01 1.959599e-01 2.312605e-01 2.662390e-01 3.017795e-01 3.361766e-01 3.715079e-01 4.048238e-01 4.394298e-01 4.711270e-01 5.044368e-01 5.339564e-01 5.653621e-01 5.921438e-01 6.210233e-01 6.445271e-01 6.702712e-01 6.899997e-01 7.120394e-01 7.275602e-01 7.453938e-01 7.563579e-01 7.695747e-01 7.757322e-01 7.840304e-01 7.852401e-01 7.884393e-01 7.846728e-01 7.827184e-01 7.740587e-01 7.670187e-01 7.536530e-01 7.417100e-01 7.239180e-01 7.073543e-01 6.854936e-01 6.646743e-01 6.391633e-01 6.145173e-01 5.858178e-01 5.578181e-01 5.264189e-01 4.955652e-01 4.619668e-01 4.287697e-01 3.934713e-01 3.584392e-01 3.219289e-01 2.855583e-01 
2.515509e-01 2.147310e-01 1.778788e-01 1.412067e-01 1.055499e-01 7.143630e-02 4.414190e-02 3.897128e-02 6.126918e-02 9.299896e-02 1.257850e-01 1.598802e-01 1.925014e-01 2.258311e-01 2.570465e-01 2.888801e-01 3.182268e-01 3.481795e-01 3.753678e-01 4.031646e-01 4.279780e-01 4.534034e-01 4.756735e-01 4.985582e-01 5.181565e-01 5.383719e-01 5.552072e-01 5.726642e-01 5.866802e-01 6.013270e-01 6.125010e-01 6.243215e-01 6.326614e-01 6.416716e-01 6.472132e-01 6.534575e-01 6.562600e-01 6.598066e-01 6.599477e-01 6.608829e-01 6.584542e-01 6.568771e-01 6.519787e-01 6.479955e-01 6.407309e-01 6.344500e-01 6.249222e-01 6.164495e-01 6.047569e-01 5.941926e-01 5.804268e-01 5.678620e-01 5.521062e-01 5.376220e-01 5.199504e-01 5.036165e-01 4.840953e-01 4.659703e-01 4.446598e-01 4.247927e-01 4.017504e-01 3.801832e-01 3.554689e-01 3.322414e-01 3.059258e-01 2.810847e-01 2.532635e-01 2.268811e-01 1.977075e-01 1.699340e-01 1.397260e-01 1.110124e-01 8.086589e-02 5.387933e-02 3.441328e-02 4.047089e-02 6.637851e-02 9.703850e-02 1.302931e-01 1.640291e-01 1.984889e-01 2.333448e-01 2.679606e-01 3.032579e-01 3.374179e-01 3.726139e-01 4.057611e-01 4.403009e-01 4.718733e-01 5.051655e-01 5.345924e-01 5.660162e-01 5.927308e-01 6.216546e-01 6.451130e-01 6.709192e-01 6.906219e-01 7.127343e-01 7.282467e-01 7.461573e-01 7.571292e-01 7.704217e-01 7.766015e-01 7.849701e-01 7.862149e-01 7.894762e-01 7.857563e-01 7.838538e-01 7.752506e-01 7.682522e-01 7.549518e-01 7.430407e-01 7.253220e-01 7.087828e-01 6.870030e-01 6.662039e-01 6.407823e-01 6.161562e-01 5.875568e-01 5.595828e-01 5.282986e-01 4.974848e-01 4.640241e-01 4.308937e-01 3.957709e-01 3.608547e-01 3.245874e-01 2.884265e-01 
2.598297e-01 2.243076e-01 1.892980e-01 1.552458e-01 1.236665e-01 9.602514e-02 7.781313e-02 7.473165e-02 8.833786e-02 1.124823e-01 1.407195e-01 1.717263e-01 2.023711e-01 2.341797e-01 2.643391e-01 2.952853e-01 3.239841e-01 3.533600e-01 3.801140e-01 4.075082e-01 4.320134e-01 4.571440e-01 4.791873e-01 5.018485e-01 5.212766e-01 5.413188e-01 5.580256e-01 5.753462e-01 5.892661e-01 6.038052e-01 6.149092e-01 6.266448e-01 6.349369e-01 6.438813e-01 6.493940e-01 6.555893e-01 6.583796e-01 6.618923e-01 6.620362e-01 6.629517e-01 6.605393e-01 6.589559e-01 6.540862e-01 6.501098e-01 6.428854e-01 6.366243e-01 6.271474e-01 6.187078e-01 6.070767e-01 5.965592e-01 5.828658e-01 5.703630e-01 5.546920e-01 5.402870e-01 5.227153e-01 5.064818e-01 4.870806e-01 4.690836e-01 4.479215e-01 4.282202e-01 4.053690e-01 3.840228e-01 3.595670e-01 3.366458e-01 3.107006e-01 2.863072e-01 2.590555e-01 2.333789e-01 2.051671e-01 1.786386e-01 1.502913e-01 1.241907e-01 9.843395e-02 7.807679e-02 6.673044e-02 7.041422e-02 8.849619e-02 1.135914e-01 1.435285e-01 1.749315e-01 2.080004e-01 2.416575e-01 2.755966e-01 3.101759e-01 3.439805e-01 3.787029e-01 4.116579e-01 4.458650e-01 4.773323e-01 5.103806e-01 5.397479e-01 5.709868e-01 5.976628e-01 6.264424e-01 6.498681e-01 6.755588e-01 6.952256e-01 7.172430e-01 7.327118e-01 7.505425e-01 7.614614e-01 7.746857e-01 7.808040e-01 7.891147e-01 7.902926e-01 7.935062e-01 7.897183e-01 7.877798e-01 7.791133e-01 7.720933e-01 7.587409e-01 7.468265e-01 7.290746e-01 7.125555e-01 6.907700e-01 6.700211e-01 6.446313e-01 6.200944e-01 5.915769e-01 5.637435e-01 5.326088e-01 5.020059e-01 4.687886e-01 4.359710e-01 4.012293e-01 3.667853e-01 3.311194e-01 2.957068e-01 
2.739604e-01 2.401918e-01 2.077116e-01 1.768184e-01 1.496361e-01 1.272357e-01 1.138347e-01 1.112458e-01 1.205429e-01 1.388614e-01 1.623849e-01 1.896697e-01 2.176587e-01 2.473705e-01 2.759761e-01 3.056510e-01 3.333591e-01 3.619052e-01 3.879798e-01 4.147995e-01 4.388108e-01 4.635244e-01 4.851908e-01 5.075367e-01 5.266649e-01 5.464597e-01 5.629188e-01 5.800388e-01 5.937477e-01 6.081189e-01 6.190387e-01 6.306304e-01 6.387590e-01 6.475783e-01 6.529447e-01 6.590309e-01 6.616910e-01 6.651096e-01 6.651396e-01 6.659765e-01 6.634680e-01 6.618233e-01 6.568776e-01 6.528596e-01 6.455825e-01 6.393025e-01 6.298000e-01 6.213681e-01 6.097428e-01 5.992641e-01 5.856130e-01 5.731857e-01 5.575994e-01 5.433133e-01 5.258766e-01 5.098142e-01 4.906088e-01 4.728470e-01 4.519567e-01 4.325723e-01 4.100920e-01 3.891713e-01 3.652233e-01 3.428805e-01 3.176456e-01 2.940630e-01 2.678459e-01 2.433671e-01 2.167591e-01 1.921419e-01 1.664890e-01 1.437019e-01 1.226116e-01 1.072980e-01 9.989962e-02 1.026382e-01 1.162406e-01 1.364332e-01 1.625164e-01 1.908742e-01 2.218012e-01 2.536798e-01 2.863762e-01 3.198568e-01 3.528888e-01 3.869095e-01 4.193583e-01 4.531194e-01 4.842426e-01 5.170216e-01 5.461492e-01 5.772459e-01 6.037521e-01 6.324811e-01 6.557861e-01 6.814903e-01 7.010722e-01 7.231448e-01 7.385563e-01 7.564656e-01 7.673501e-01 7.806621e-01 7.867668e-01 7.951638e-01 7.963485e-01 7.996410e-01 7.958814e-01 7.940122e-01 7.853979e-01 7.784396e-01 7.651671e-01 7.533123e-01 7.356737e-01 7.192211e-01 6.975900e-01 6.769269e-01 6.517436e-01 6.273288e-01 5.990857e-01 5.714335e-01 5.406647e-01 5.103350e-01 4.776127e-01 4.452115e-01 4.111572e-01 3.773590e-01 3.426877e-01 3.083110e-01 
2.921313e-01 2.604851e-01 2.307632e-01 2.031059e-01 1.798033e-01 1.612733e-01 1.507533e-01 1.484098e-01 1.553080e-01 1.695657e-01 1.891248e-01 2.127256e-01 2.378446e-01 2.650730e-01 2.917870e-01 3.198053e-01 3.462309e-01 3.736291e-01 3.987954e-01 4.247871e-01 4.481295e-01 4.722247e-01 4.933834e-01 5.152542e-01 5.339886e-01 5.534098e-01 5.695590e-01 5.863800e-01 5.998435e-01 6.139725e-01 6.246985e-01 6.360932e-01 6.440706e-01 6.527305e-01 6.579828e-01 6.639424e-01 6.665214e-01 6.698435e-01 6.698231e-01 6.705925e-01 6.680627e-01 6.663791e-01 6.614407e-01 6.574129e-01 6.501716e-01 6.439124e-01 6.344747e-01 6.260959e-01 6.145660e-01 6.041755e-01 5.906530e-01 5.783531e-01 5.629331e-01 5.488197e-01 5.315940e-01 5.157586e-01 4.968201e-01 4.793534e-01 4.588036e-01 4.398033e-01 4.177654e-01 3.973505e-01 3.739929e-01 3.523313e-01 3.279116e-01 3.052761e-01 2.802321e-01 2.571248e-01 2.322810e-01 2.097331e-01 1.868019e-01 1.671157e-01 1.498257e-01 1.379487e-01 1.329332e-01 1.353965e-01 1.467276e-01 1.635379e-01 1.865817e-01 2.120387e-01 2.409311e-01 2.708350e-01 3.023019e-01 3.344500e-01 3.667436e-01 3.998446e-01 4.318464e-01 4.649614e-01 4.958100e-01 5.281321e-01 5.570847e-01 5.878588e-01 6.142436e-01 6.427463e-01 6.659543e-01 6.915003e-01 7.109920e-01 7.329534e-01 7.482719e-01 7.661008e-01 7.768862e-01 7.901375e-01 7.961385e-01 8.044877e-01 8.055689e-01 8.088241e-01 8.049692e-01 8.030748e-01 7.943835e-01 7.874173e-01 7.740984e-01 7.622617e-01 7.446211e-01 7.282246e-01 7.066522e-01 6.860988e-01 6.610541e-01 6.368226e-01 6.088226e-01 5.814546e-01 5.510664e-01 5.211604e-01 4.890046e-01 4.572258e-01 4.239995e-01 3.911191e-01 3.576628e-01 3.246648e-01 
3.148496e-01 2.852431e-01 2.581559e-01 2.332262e-01 2.129763e-01 1.970151e-01 1.882077e-01 1.858011e-01 1.910684e-01 2.023935e-01 2.187859e-01 2.391577e-01 2.615340e-01 2.862824e-01 3.109907e-01 3.372398e-01 3.622253e-01 3.883575e-01 4.124670e-01 4.375315e-01 4.600741e-01 4.834710e-01 5.040048e-01 5.253344e-01 5.435656e-01 5.625554e-01 5.782881e-01 5.947556e-01 6.078660e-01 6.216984e-01 6.321191e-01 6.432602e-01 6.509707e-01 6.594115e-01 6.644297e-01 6.702002e-01 6.725754e-01 6.757369e-01 6.755430e-01 6.761809e-01 6.735101e-01 6.717264e-01 6.666826e-01 6.625901e-01 6.552835e-01 6.489996e-01 6.395421e-01 6.311845e-01 6.196865e-01 6.093701e-01 5.959388e-01 5.837742e-01 5.685136e-01 5.546073e-01 5.376209e-01 5.220778e-01 5.034743e-01 4.864036e-01 4.663067e-01 4.478315e-01 4.263975e-01 4.066741e-01 3.841216e-01 3.633742e-01 3.400392e-01 3.186273e-01 2.950695e-01 2.736271e-01 2.508455e-01 2.305695e-01 2.104304e-01 1.936310e-01 1.795145e-01 1.701631e-01 1.667690e-01 1.690836e-01 1.789063e-01 1.931690e-01 2.135780e-01 2.363099e-01 2.630212e-01 2.908102e-01 3.207448e-01 3.513764e-01 3.826279e-01 4.146715e-01 4.459630e-01 4.783628e-01 5.087218e-01 5.405861e-01 5.691959e-01 5.997065e-01 6.258471e-01 6.542310e-01 6.772613e-01 7.027919e-01 7.221521e-01 7.441662e-01 7.593870e-01 7.773077e-01 7.880226e-01 8.013815e-01 8.073369e-01 8.157932e-01 8.168549e-01 8.202071e-01 8.163623e-01 8.145523e-01 8.059071e-01 7.990167e-01 7.857879e-01 7.740285e-01 7.565330e-01 7.402305e-01 7.188724e-01 6.984506e-01 6.737077e-01 6.496720e-01 6.220860e-01 5.950126e-01 5.651848e-01 5.357187e-01 5.043196e-01 4.731914e-01 4.409924e-01 4.090700e-01 3.770234e-01 3.454333e-01 
3.404919e-01 3.129441e-01 2.882897e-01 2.657842e-01 2.480075e-01 2.339940e-01 2.264042e-01 2.239501e-01 2.280936e-01 2.372360e-01 2.511140e-01 2.686786e-01 2.885278e-01 3.108202e-01 3.334767e-01 3.578100e-01 3.812207e-01 4.058963e-01 4.288017e-01 4.527533e-01 4.743637e-01 4.968977e-01 5.166985e-01 5.373472e-01 5.549935e-01 5.734368e-01 5.886977e-01 6.047202e-01 6.174476e-01 6.309136e-01 6.410236e-01 6.518615e-01 6.593219e-01 6.675127e-01 6.723340e-01 6.779015e-01 6.801281e-01 6.831306e-01 6.828336e-01 6.833552e-01 6.806253e-01 6.787687e-01 6.737097e-01 6.695888e-01 6.623117e-01 6.560463e-01 6.466646e-01 6.383756e-01 6.270023e-01 6.168091e-01 6.035555e-01 5.915745e-01 5.765508e-01 5.628971e-01 5.462164e-01 5.310070e-01 5.127923e-01 4.961534e-01 4.765503e-01 4.586303e-01 4.378276e-01 4.188191e-01 3.970843e-01 3.772643e-01 3.550054e-01 3.348081e-01 3.126846e-01 2.928381e-01 2.719608e-01 2.537330e-01 2.359849e-01 2.215383e-01 2.098690e-01 2.023659e-01 2.002424e-01 2.026133e-01 2.117220e-01 2.243163e-01 2.430060e-01 2.635919e-01 2.886757e-01 3.145738e-01 3.433059e-01 3.724582e-01 4.029005e-01 4.338359e-01 4.646043e-01 4.961933e-01 5.262174e-01 5.575017e-01 5.858909e-01 6.159981e-01 6.419796e-01 6.700921e-01 6.929898e-01 7.183439e-01 7.375760e-01 7.594781e-01 7.745643e-01 7.924130e-01 8.029840e-01 8.162930e-01 8.220987e-01 8.305161e-01 8.314309e-01 8.347507e-01 8.307740e-01 8.289405e-01 8.201933e-01 8.132964e-01 8.000130e-01 7.882775e-01 7.707943e-01 7.545646e-01 7.333076e-01 7.130301e-01 6.885025e-01 6.647109e-01 6.374848e-01 6.107903e-01 5.815058e-01 5.525990e-01 5.219770e-01 4.916499e-01 4.605305e-01 4.297337e-01 3.991583e-01 3.691208e-01 
3.695536e-01 3.437340e-01 3.211618e-01 3.005009e-01 2.845935e-01 2.718517e-01 2.650300e-01 2.623660e-01 2.655978e-01 2.730010e-01 2.848479e-01 3.000525e-01 3.176773e-01 3.377423e-01 3.584529e-01 3.809494e-01 4.027857e-01 4.260148e-01 4.476709e-01 4.704931e-01 4.911074e-01 5.127522e-01 5.317467e-01 5.516839e-01 5.686649e-01 5.865274e-01 6.012283e-01 6.167661e-01 6.290134e-01 6.420669e-01 6.517592e-01 6.622406e-01 6.693346e-01 6.772148e-01 6.817143e-01 6.870122e-01 6.889592e-01 6.917315e-01 6.911976e-01 6.915300e-01 6.886087e-01 6.866074e-01 6.814070e-01 6.771914e-01 6.698288e-01 6.635251e-01 6.541208e-01 6.458577e-01 6.345326e-01 6.244383e-01 6.113130e-01 5.995146e-01 5.847104e-01 5.713357e-01 5.549792e-01 5.401615e-01 5.223935e-01 5.062798e-01 4.872698e-01 4.700356e-01 4.500055e-01 4.318794e-01 4.111420e-01 3.924472e-01 3.714698e-01 3.526962e-01 3.322059e-01 3.141308e-01 2.952787e-01 2.791508e-01 2.637166e-01 2.514457e-01 2.418989e-01 2.359493e-01 2.348568e-01 2.373250e-01 2.458889e-01 2.571586e-01 2.743374e-01 2.930047e-01 3.164506e-01 3.404950e-01 3.678585e-01 3.954779e-01 4.248889e-01 4.546549e-01 4.846791e-01 5.154311e-01 5.449266e-01 5.756568e-01 6.036694e-01 6.334532e-01 6.591618e-01 6.871308e-01 7.098245e-01 7.351667e-01 7.542410e-01 7.762182e-01 7.911794e-01 8.091511e-01 8.196234e-01 8.330720e-01 8.388042e-01 8.473551e-01 8.482247e-01 8.516592e-01 8.476723e-01 8.459316e-01 8.372182e-01 8.303987e-01 8.172052e-01 8.055461e-01 7.882237e-01 7.720906e-01 7.510834e-01 7.309502e-01 7.067836e-01 6.832168e-01 6.564905e-01 6.301410e-01 6.015296e-01 5.731355e-01 5.434039e-01 5.138146e-01 4.838561e-01 4.540883e-01 4.250002e-01 3.963435e-01 
4.008023e-01 3.766469e-01 3.559251e-01 3.368992e-01 3.225386e-01 3.108403e-01 3.046201e-01 3.017980e-01 3.043190e-01 3.103238e-01 3.204891e-01 3.336438e-01 3.492683e-01 3.672309e-01 3.860553e-01 4.066924e-01 4.269124e-01 4.485956e-01 4.689165e-01 4.904814e-01 5.100038e-01 5.306293e-01 5.487297e-01 5.678358e-01 5.840810e-01 6.012591e-01 6.153513e-01 6.303197e-01 6.420620e-01 6.546378e-01 6.639118e-01 6.739909e-01 6.807412e-01 6.882841e-01 6.925065e-01 6.975258e-01 6.992574e-01 7.018069e-01 7.011166e-01 7.012817e-01 6.982620e-01 6.961500e-01 6.909096e-01 6.866422e-01 6.792992e-01 6.730060e-01 6.636832e-01 6.554968e-01 6.443184e-01 6.343722e-01 6.214632e-01 6.098911e-01 5.953794e-01 5.823184e-01 5.663404e-01 5.519362e-01 5.346468e-01 5.190635e-01 5.006526e-01 4.840889e-01 4.648068e-01 4.475215e-01 4.277192e-01 4.100721e-01 3.902636e-01 3.727824e-01 3.537392e-01 3.372198e-01 3.200982e-01 3.057342e-01 2.921939e-01 2.816602e-01 2.738045e-01 2.690769e-01 2.689160e-01 2.715872e-01 2.800450e-01 2.904869e-01 3.068473e-01 3.241272e-01 3.465731e-01 3.691412e-01 3.956436e-01 4.219476e-01 4.507287e-01 4.794238e-01 5.090273e-01 5.389578e-01 5.681833e-01 5.983151e-01 6.261489e-01 6.555204e-01 6.810923e-01 7.087950e-01 7.313594e-01 7.565421e-01 7.754737e-01 7.973620e-01 8.121579e-01 8.300806e-01 8.403658e-01 8.537817e-01 8.593136e-01 8.678333e-01 8.685031e-01 8.719024e-01 8.677337e-01 8.659576e-01 8.571010e-01 8.502576e-01 8.369817e-01 8.253288e-01 8.080087e-01 7.919361e-01 7.710414e-01 7.510516e-01 7.271355e-01 7.038276e-01 6.775202e-01 6.515817e-01 6.235921e-01 5.958024e-01 5.669337e-01 5.381877e-01 5.093719e-01 4.807297e-01 4.530908e-01 4.258612e-01 
4.347555e-01 4.118783e-01 3.926667e-01 3.748029e-01 3.615957e-01 3.505274e-01 3.446700e-01 3.415621e-01 3.434446e-01 3.482391e-01 3.569936e-01 3.683986e-01 3.822899e-01 3.983992e-01 4.155152e-01 4.344550e-01 4.531524e-01 4.733849e-01 4.924064e-01 5.127669e-01 5.311960e-01 5.508287e-01 5.680080e-01 5.862909e-01 6.017528e-01 6.182390e-01 6.316564e-01 6.460336e-01 6.571866e-01 6.692487e-01 6.780026e-01 6.876297e-01 6.939182e-01 7.010613e-01 7.048745e-01 7.095417e-01 7.109147e-01 7.131598e-01 7.121634e-01 7.120748e-01 7.088057e-01 7.064962e-01 7.010694e-01 6.966678e-01 6.892091e-01 6.828532e-01 6.734939e-01 6.653259e-01 6.541995e-01 6.443632e-01 6.316051e-01 6.202463e-01 6.059960e-01 5.932655e-01 5.776732e-01 5.637332e-01 5.469704e-01 5.320052e-01 5.142826e-01 4.985146e-01 4.801085e-01 4.638233e-01 4.451149e-01 4.286993e-01 4.102323e-01 3.942311e-01 3.767896e-01 3.619815e-01 3.466795e-01 3.341564e-01 3.224866e-01 3.136680e-01 3.073839e-01 3.038283e-01 3.045038e-01 3.074301e-01 3.157928e-01 3.255600e-01 3.411306e-01 3.571548e-01 3.785429e-01 3.996821e-01 4.251727e-01 4.501474e-01 4.780982e-01 5.056949e-01 5.346694e-01 5.637757e-01 5.925431e-01 6.221209e-01 6.496232e-01 6.786819e-01 7.040081e-01 7.315962e-01 7.539693e-01 7.791856e-01 7.979591e-01 8.199777e-01 8.346374e-01 8.527389e-01 8.629061e-01 8.765092e-01 8.819429e-01 8.906291e-01 8.912269e-01 8.947559e-01 8.905509e-01 8.888647e-01 8.800194e-01 8.732353e-01 8.600331e-01 8.484282e-01 8.312615e-01 8.152528e-01 7.946110e-01 7.747338e-01 7.511926e-01 7.280830e-01 7.022982e-01 6.766829e-01 6.493914e-01 6.220907e-01 5.941234e-01 5.660706e-01 5.383817e-01 5.106639e-01 4.843770e-01 4.582949e-01 
4.705450e-01 4.489111e-01 4.310428e-01 4.142528e-01 4.020307e-01 3.915289e-01 3.859684e-01 3.826363e-01 3.839746e-01 3.877415e-01 3.952642e-01 4.051098e-01 4.174136e-01 4.317778e-01 4.472468e-01 4.645020e-01 4.816638e-01 5.003896e-01 5.180539e-01 5.371168e-01 5.543762e-01 5.729089e-01 5.890907e-01 6.064443e-01 6.210584e-01 6.367569e-01 6.494541e-01 6.631596e-01 6.737015e-01 6.851878e-01 6.934250e-01 7.025578e-01 7.084136e-01 7.151345e-01 7.185920e-01 7.229042e-01 7.239944e-01 7.259502e-01 7.247418e-01 7.244303e-01 7.210200e-01 7.185565e-01 7.130603e-01 7.085769e-01 7.011223e-01 6.947608e-01 6.854816e-01 6.773886e-01 6.664214e-01 6.567458e-01 6.442299e-01 6.331238e-01 6.192043e-01 6.068269e-01 5.916615e-01 5.781859e-01 5.619573e-01 5.475818e-01 5.305161e-01 5.154806e-01 4.978736e-01 4.824834e-01 4.647391e-01 4.493991e-01 4.320813e-01 4.173424e-01 4.012393e-01 3.878542e-01 3.740385e-01 3.630072e-01 3.528447e-01 3.453932e-01 3.404043e-01 3.378115e-01 3.393066e-01 3.425541e-01 3.511471e-01 3.605685e-01 3.759130e-01 3.911220e-01 4.120870e-01 4.322086e-01 4.572900e-01 4.812530e-01 5.089070e-01 5.356184e-01 5.644192e-01 5.928190e-01 6.215014e-01 6.505611e-01 6.780196e-01 7.067328e-01 7.320128e-01 7.593974e-01 7.816906e-01 8.068075e-01 8.254508e-01 8.474342e-01 8.619103e-01 8.800049e-01 8.899429e-01 9.035387e-01 9.087142e-01 9.173749e-01 9.177066e-01 9.211864e-01 9.167322e-01 9.149793e-01 9.059280e-01 8.990765e-01 8.857384e-01 8.740903e-01 8.568848e-01 8.408873e-01 8.203312e-01 8.005529e-01 7.772491e-01 7.543605e-01 7.289911e-01 7.037533e-01 6.770797e-01 6.503443e-01 6.232173e-01 5.959415e-01 5.693223e-01 5.425990e-01 5.175886e-01 4.926831e-01 
5.086466e-01 4.878721e-01 4.710560e-01 4.549485e-01 4.434352e-01 4.331949e-01 4.277749e-01 4.240990e-01 4.249189e-01 4.277375e-01 4.341949e-01 4.426761e-01 4.536045e-01 4.664391e-01 4.804495e-01 4.962050e-01 5.119711e-01 5.293327e-01 5.457315e-01 5.636009e-01 5.797415e-01 5.972467e-01 6.124475e-01 6.289174e-01 6.426694e-01 6.576016e-01 6.695357e-01 6.825676e-01 6.924278e-01 7.033136e-01 7.109372e-01 7.195294e-01 7.248311e-01 7.310637e-01 7.340225e-01 7.378966e-01 7.385438e-01 7.401139e-01 7.385220e-01 7.378829e-01 7.341551e-01 7.314300e-01 7.256907e-01 7.210213e-01 7.134078e-01 7.069461e-01 6.976025e-01 6.895058e-01 6.785794e-01 6.690084e-01 6.566492e-01 6.457683e-01 6.321326e-01 6.201145e-01 6.053721e-01 5.924054e-01 5.767523e-01 5.630523e-01 5.467292e-01 5.325537e-01 5.158721e-01 5.015425e-01 4.849198e-01 4.708493e-01 4.548530e-01 4.415814e-01 4.269781e-01 4.152077e-01 4.029982e-01 3.936113e-01 3.850102e-01 3.790300e-01 3.753292e-01 3.737772e-01 3.760572e-01 3.797115e-01 3.884925e-01 3.976601e-01 4.127063e-01 4.271628e-01 4.475728e-01 4.666887e-01 4.911696e-01 5.140948e-01 5.412270e-01 5.670217e-01 5.954214e-01 6.231118e-01 6.515052e-01 6.800967e-01 7.073480e-01 7.358298e-01 7.609515e-01 7.883097e-01 8.104672e-01 8.357130e-01 8.542267e-01 8.764362e-01 8.907824e-01 9.091419e-01 9.189513e-01 9.328007e-01 9.378554e-01 9.467218e-01 9.469511e-01 9.505692e-01 9.460435e-01 9.443594e-01 9.352822e-01 9.284432e-01 9.151413e-01 9.034752e-01 8.863863e-01 8.703742e-01 8.500350e-01 8.302843e-01 8.073186e-01 7.845394e-01 7.596505e-01 7.346412e-01 7.086092e-01 6.822532e-01 6.559402e-01 6.292148e-01 6.035783e-01 5.775738e-01 5.536808e-01 5.296193e-01 
5.484969e-01 5.286010e-01 5.127324e-01 4.973060e-01 4.864139e-01 4.764504e-01 4.711412e-01 4.671890e-01 4.675345e-01 4.695184e-01 4.749955e-01 4.822257e-01 4.918516e-01 5.032247e-01 5.158040e-01 5.300665e-01 5.444155e-01 5.603664e-01 5.754427e-01 5.920368e-01 6.069839e-01 6.233626e-01 6.375054e-01 6.529896e-01 6.658131e-01 6.798837e-01 6.910073e-01 7.032844e-01 7.124406e-01 7.226634e-01 7.296794e-01 7.376895e-01 7.424726e-01 7.481979e-01 7.507221e-01 7.541614e-01 7.544556e-01 7.556641e-01 7.538004e-01 7.528757e-01 7.489583e-01 7.460277e-01 7.401829e-01 7.353926e-01 7.277602e-01 7.212667e-01 7.119929e-01 7.039579e-01 6.931924e-01 6.837807e-01 6.716759e-01 6.610570e-01 6.477721e-01 6.361246e-01 6.218338e-01 6.093540e-01 5.942594e-01 5.811723e-01 5.655229e-01 5.520973e-01 5.362143e-01 5.227816e-01 5.070912e-01 4.940685e-01 4.791404e-01 4.670559e-01 4.536416e-01 4.431564e-01 4.322085e-01 4.241182e-01 4.167569e-01 4.119458e-01 4.093290e-01 4.086516e-01 4.117339e-01 4.158373e-01 4.250934e-01 4.342567e-01 4.495172e-01 4.636026e-01 4.840984e-01 5.026254e-01 5.271840e-01 5.494512e-01 5.767153e-01 6.018964e-01 6.304853e-01 6.576768e-01 6.862821e-01 7.145212e-01 7.419590e-01 7.702359e-01 7.954751e-01 8.227542e-01 8.449314e-01 8.701871e-01 8.886123e-01 9.108771e-01 9.250327e-01 9.434507e-01 9.529868e-01 9.668638e-01 9.715902e-01 9.804330e-01 9.803111e-01 9.838497e-01 9.789834e-01 9.771748e-01 9.678006e-01 9.608161e-01 9.472922e-01 9.354924e-01 9.182863e-01 9.021901e-01 8.818659e-01 8.621191e-01 8.393253e-01 8.166739e-01 7.921342e-01 7.674066e-01 7.419150e-01 7.160153e-01 6.904367e-01 6.643475e-01 6.396228e-01 6.144148e-01 5.915624e-01 5.683972e-01 
5.904613e-01 5.710665e-01 5.558935e-01 5.408001e-01 5.303158e-01 5.203695e-01 5.150544e-01 5.107050e-01 5.105859e-01 5.117602e-01 5.163749e-01 5.224854e-01 5.309843e-01 5.410764e-01 5.524096e-01 5.653653e-01 5.784617e-01 5.931704e-01 6.070554e-01 6.225160e-01 6.363635e-01 6.517278e-01 6.648693e-01 6.794494e-01 6.913632e-01 7.046231e-01 7.149175e-01 7.264587e-01 7.348547e-01 7.444018e-01 7.507173e-01 7.581020e-01 7.622391e-01 7.673853e-01 7.693169e-01 7.722249e-01 7.719830e-01 7.727139e-01 7.703775e-01 7.690383e-01 7.647212e-01 7.614506e-01 7.552908e-01 7.502472e-01 7.423968e-01 7.357493e-01 7.263670e-01 7.182897e-01 7.075367e-01 6.982065e-01 6.862462e-01 6.758446e-01 6.628463e-01 6.515644e-01 6.377114e-01 6.257586e-01 6.112615e-01 5.988760e-01 5.839913e-01 5.714537e-01 5.565074e-01 5.441561e-01 5.295734e-01 5.178213e-01 5.041584e-01 4.935080e-01 4.814795e-01 4.725316e-01 4.630168e-01 4.564596e-01 4.504618e-01 4.470256e-01 4.455565e-01 4.459236e-01 4.498099e-01 4.544947e-01 4.641645e-01 4.734112e-01 4.887565e-01 5.025036e-01 5.228877e-01 5.408041e-01 5.651893e-01 5.867421e-01 6.138605e-01 6.383702e-01 6.668750e-01 6.935449e-01 7.221198e-01 7.500486e-01 7.774820e-01 8.056768e-01 8.309074e-01 8.583114e-01 8.804537e-01 9.059908e-01 9.243448e-01 9.469798e-01 9.610293e-01 9.798346e-01 9.892389e-01 1.003457e+00 1.008040e+00 1.017132e+00 1.016871e+00 1.020544e+00 1.015558e+00 1.013769e+00 1.004312e+00 9.972531e-01 9.836999e-01 9.717663e-01 9.546034e-01 9.383574e-01 9.181681e-01 8.983013e-01 8.757536e-01 8.530555e-01 8.288898e-01 8.042252e-01 7.792466e-01 7.535442e-01 7.286176e-01 7.028671e-01 6.789149e-01 6.541686e-01 6.321622e-01 6.095276e-01 
6.342500e-01 6.154284e-01 6.008901e-01 5.861887e-01 5.760663e-01 5.661977e-01 5.608599e-01 5.561869e-01 5.556176e-01 5.560635e-01 5.598442e-01 5.649025e-01 5.722918e-01 5.811351e-01 5.912095e-01 6.028450e-01 6.146422e-01 6.280530e-01 6.406730e-01 6.549136e-01 6.675733e-01 6.818195e-01 6.938704e-01 7.074379e-01 7.183643e-01 7.307106e-01 7.401194e-01 7.508364e-01 7.584442e-01 7.672474e-01 7.728680e-01 7.795836e-01 7.831154e-01 7.876651e-01 7.890796e-01 7.914654e-01 7.907945e-01 7.910818e-01 7.884063e-01 7.867079e-01 7.821445e-01 7.786055e-01 7.722952e-01 7.670800e-01 7.591778e-01 7.524605e-01 7.431272e-01 7.350854e-01 7.244834e-01 7.152968e-01 7.035894e-01 6.934417e-01 6.807978e-01 6.698829e-01 6.564852e-01 6.450161e-01 6.310754e-01 6.192954e-01 6.050689e-01 5.932639e-01 5.790787e-01 5.675905e-01 5.538709e-01 5.431091e-01 5.304042e-01 5.208549e-01 5.098604e-01 5.020852e-01 4.936434e-01 4.882625e-01 4.833199e-01 4.809677e-01 4.804689e-01 4.817220e-01 4.864425e-01 4.917314e-01 5.020921e-01 5.116309e-01 5.275682e-01 5.413290e-01 5.622774e-01 5.800098e-01 6.049896e-01 6.262604e-01 6.540203e-01 6.782432e-01 7.074082e-01 7.338579e-01 7.630544e-01 7.908713e-01 8.188225e-01 8.470252e-01 8.726165e-01 9.001311e-01 9.224468e-01 9.481588e-01 9.664953e-01 9.893190e-01 1.003179e+00 1.022136e+00 1.031215e+00 1.045506e+00 1.049671e+00 1.058734e+00 1.058009e+00 1.061549e+00 1.056099e+00 1.054091e+00 1.044209e+00 1.036880e+00 1.022978e+00 1.010768e+00 9.933640e-01 9.768829e-01 9.565871e-01 9.365720e-01 9.140742e-01 8.913522e-01 8.674078e-01 8.428705e-01 8.182897e-01 7.928775e-01 7.685161e-01 7.432110e-01 7.199616e-01 6.957822e-01 6.745584e-01 6.525457e-01 
6.800560e-01 6.614259e-01 6.472959e-01 6.326543e-01 6.227165e-01 6.126821e-01 6.072286e-01 6.021055e-01 6.010938e-01 6.008061e-01 6.038512e-01 6.079512e-01 6.143895e-01 6.221405e-01 6.311413e-01 6.416411e-01 6.523225e-01 6.646224e-01 6.761411e-01 6.893345e-01 7.009393e-01 7.142158e-01 7.252712e-01 7.379437e-01 7.479351e-01 7.594493e-01 7.679789e-01 7.779132e-01 7.846914e-01 7.927508e-01 7.975865e-01 8.035915e-01 8.063817e-01 8.102548e-01 8.109736e-01 8.127230e-01 8.114095e-01 8.111119e-01 8.078579e-01 8.056403e-01 8.005766e-01 7.966001e-01 7.898834e-01 7.843286e-01 7.761296e-01 7.691858e-01 7.596805e-01 7.515390e-01 7.409028e-01 7.317556e-01 7.201627e-01 7.102047e-01 6.978320e-01 6.872676e-01 6.743035e-01 6.633558e-01 6.500139e-01 6.389355e-01 6.254729e-01 6.145565e-01 6.012955e-01 5.908840e-01 5.782371e-01 5.687298e-01 5.572227e-01 5.490763e-01 5.393641e-01 5.330834e-01 5.259455e-01 5.220613e-01 5.183602e-01 5.173896e-01 5.179793e-01 5.203726e-01 5.259593e-01 5.320458e-01 5.430319e-01 5.529810e-01 5.693457e-01 5.831562e-01 6.044160e-01 6.219262e-01 6.471836e-01 6.680855e-01 6.961396e-01 7.199807e-01 7.494646e-01 7.756371e-01 8.051527e-01 8.328796e-01 8.611117e-01 8.894478e-01 9.152465e-01 9.431054e-01 9.655349e-01 9.917469e-01 1.010101e+00 1.033497e+00 1.047291e+00 1.066801e+00 1.075750e+00 1.090493e+00 1.094488e+00 1.103845e+00 1.102932e+00 1.106581e+00 1.100944e+00 1.098867e+00 1.088817e+00 1.081271e+00 1.067238e+00 1.054712e+00 1.037232e+00 1.020394e+00 1.000097e+00 9.797405e-01 9.573350e-01 9.343371e-01 9.105942e-01 8.858840e-01 8.616217e-01 8.361608e-01 8.122301e-01 7.870011e-01 7.642716e-01 7.402688e-01 7.196076e-01 6.978192e-01 
7.278636e-01 7.095445e-01 6.957890e-01 6.813111e-01 6.715327e-01 6.614241e-01 6.558407e-01 6.503491e-01 6.488887e-01 6.479343e-01 6.502351e-01 6.534181e-01 6.588813e-01 6.655455e-01 6.734227e-01 6.827520e-01 6.922399e-01 7.033564e-01 7.136736e-01 7.257183e-01 7.361559e-01 7.483437e-01 7.582917e-01 7.699443e-01 7.789022e-01 7.894649e-01 7.970417e-01 8.060896e-01 8.119987e-01 8.192338e-01 8.232857e-01 8.285288e-01 8.306220e-01 8.337992e-01 8.339102e-01 8.350368e-01 8.332081e-01 8.323699e-01 8.286979e-01 8.260320e-01 8.206528e-01 8.163297e-01 8.094050e-01 8.036132e-01 7.953178e-01 7.882519e-01 7.787633e-01 7.706174e-01 7.601105e-01 7.510767e-01 7.397228e-01 7.299948e-01 7.179656e-01 7.077461e-01 6.952240e-01 6.847351e-01 6.719271e-01 6.614216e-01 6.485783e-01 6.383503e-01 6.257879e-01 6.161808e-01 6.043046e-01 5.957142e-01 5.850408e-01 5.779109e-01 5.690812e-01 5.638892e-01 5.576632e-01 5.548936e-01 5.521110e-01 5.522178e-01 5.537144e-01 5.570772e-01 5.635574e-01 5.704440e-01 5.823334e-01 5.928781e-01 6.101997e-01 6.244027e-01 6.467162e-01 6.644528e-01 6.908761e-01 7.119001e-01 7.412021e-01 7.651328e-01 7.958719e-01 8.221666e-01 8.528433e-01 8.807705e-01 9.099685e-01 9.385993e-01 9.650926e-01 9.933238e-01 1.016139e+00 1.042756e+00 1.061192e+00 1.084962e+00 1.098570e+00 1.118357e+00 1.126912e+00 1.141782e+00 1.145242e+00 1.154548e+00 1.153024e+00 1.156448e+00 1.150182e+00 1.147736e+00 1.137089e+00 1.129084e+00 1.114524e+00 1.101510e+00 1.083609e+00 1.066316e+00 1.045731e+00 1.025007e+00 1.002466e+00 9.792296e-01 9.555154e-01 9.307204e-01 9.066512e-01 8.812643e-01 8.576762e-01 8.326642e-01 8.103919e-01 7.867096e-01 7.665632e-01 7.451341e-01 