# vtk DataFile Version 2.0
Comment goes here
ASCII

DATASET STRUCTURED_POINTS
FIELD FieldData 1
TIME 1 1 double
0.22000000
DIMENSIONS    128   128   1

ORIGIN    0.000   0.000   0.000
SPACING   0.039062 0.039062   1.000

POINT_DATA   16384
SCALARS uMag double
LOOKUP_TABLE default

5.175075e-02 4.078179e-02 2.788800e-02 1.639584e-02 3.238361e-03 8.587284e-03 2.180191e-02 3.375888e-02 4.681448e-02 5.869252e-02 7.136796e-02 8.295375e-02 9.502829e-02 1.061111e-01 1.173704e-01 1.277481e-01 1.379907e-01 1.474766e-01 1.565204e-01 1.649488e-01 1.726378e-01 1.798706e-01 1.860800e-01 1.920112e-01 1.966526e-01 2.012121e-01 2.042365e-01 2.073919e-01 2.087908e-01 2.105480e-01 2.103532e-01 2.107541e-01 2.090354e-01 2.081552e-01 2.050160e-01 2.029580e-01 1.985301e-01 1.954197e-01 1.898567e-01 1.858352e-01 1.793056e-01 1.745231e-01 1.672029e-01 1.618119e-01 1.538779e-01 1.480270e-01 1.396503e-01 1.334791e-01 1.248193e-01 1.184542e-01 1.096556e-01 1.032063e-01 9.439392e-02 8.795156e-02 7.922941e-02 7.286547e-02 6.431541e-02 5.808164e-02 4.976364e-02 4.369282e-02 3.564604e-02 2.975348e-02 2.199832e-02 1.628385e-02 8.824564e-03 3.274949e-03 3.897112e-03 9.305502e-03 1.620850e-02 2.150687e-02 2.816488e-02 3.338915e-02 3.982868e-02 4.501656e-02 5.126328e-02 5.645141e-02 6.252713e-02 6.774827e-02 7.366839e-02 7.894860e-02 8.471987e-02 9.007578e-02 9.569450e-02 1.011307e-01 1.065813e-01 1.120879e-01 1.173418e-01 1.228925e-01 1.279077e-01 1.334580e-01 1.381787e-01 1.436655e-01 1.480225e-01 1.533640e-01 1.572763e-01 1.623736e-01 1.657496e-01 1.704892e-01 1.732297e-01 1.774872e-01 1.794888e-01 1.831334e-01 1.842925e-01 1.871927e-01 1.874099e-01 1.894392e-01 1.886238e-01 1.896661e-01 1.877408e-01 1.876957e-01 1.846002e-01 1.833879e-01 1.790826e-01 1.766469e-01 1.711154e-01 1.674266e-01 1.606774e-01 1.557335e-01 1.478013e-01 1.416289e-01 1.325744e-01 1.252282e-01 1.151379e-01 1.067001e-01 9.568540e-02 8.626427e-02 7.446003e-02 6.418785e-02 
5.310725e-02 4.250878e-02 3.042880e-02 2.047759e-02 1.288632e-02 1.524303e-02 2.529610e-02 3.616516e-02 4.864989e-02 6.020197e-02 7.266928e-02 8.410370e-02 9.608008e-02 1.070768e-01 1.182849e-01 1.286076e-01 1.388229e-01 1.482702e-01 1.573004e-01 1.656998e-01 1.733832e-01 1.805924e-01 1.868010e-01 1.927115e-01 1.973548e-01 2.018948e-01 2.049223e-01 2.080583e-01 2.094607e-01 2.111976e-01 2.110060e-01 2.113853e-01 2.096690e-01 2.087655e-01 2.056276e-01 2.035445e-01 1.991168e-01 1.959794e-01 1.904155e-01 1.863653e-01 1.798339e-01 1.750212e-01 1.676987e-01 1.622762e-01 1.543398e-01 1.484567e-01 1.400781e-01 1.338748e-01 1.252147e-01 1.188182e-01 1.100220e-01 1.035433e-01 9.473792e-02 8.826990e-02 7.956230e-02 7.317914e-02 6.465625e-02 5.841469e-02 5.014669e-02 4.409043e-02 3.614161e-02 3.031683e-02 2.279200e-02 1.733217e-02 1.075509e-02 7.029185e-03 7.555498e-03 1.141597e-02 1.761053e-02 2.263837e-02 2.910666e-02 3.423106e-02 4.058823e-02 4.572514e-02 5.192714e-02 5.708314e-02 6.313127e-02 6.832828e-02 7.423005e-02 7.948933e-02 8.524800e-02 9.058382e-02 9.619406e-02 1.016098e-01 1.070552e-01 1.125403e-01 1.177922e-01 1.233201e-01 1.283361e-01 1.338624e-01 1.385868e-01 1.440485e-01 1.484122e-01 1.537277e-01 1.576495e-01 1.627204e-01 1.661085e-01 1.708216e-01 1.735767e-01 1.778081e-01 1.798265e-01 1.834459e-01 1.846238e-01 1.875001e-01 1.877377e-01 1.897448e-01 1.889512e-01 1.899736e-01 1.880713e-01 1.880092e-01 1.849379e-01 1.837119e-01 1.794324e-01 1.769870e-01 1.714834e-01 1.677897e-01 1.610718e-01 1.561293e-01 1.482336e-01 1.420709e-01 1.330615e-01 1.257372e-01 1.157070e-01 1.073103e-01 9.638330e-02 8.703796e-02 7.537834e-02 6.525729e-02 
5.734714e-02 4.770432e-02 3.738336e-02 2.982455e-02 2.528224e-02 2.650537e-02 3.336055e-02 4.215217e-02 5.327513e-02 6.395843e-02 7.582369e-02 8.681151e-02 9.846515e-02 1.091949e-01 1.202059e-01 1.303533e-01 1.404365e-01 1.497619e-01 1.586966e-01 1.670078e-01 1.746172e-01 1.817612e-01 1.879090e-01 1.937707e-01 1.983611e-01 2.028646e-01 2.058439e-01 2.089531e-01 2.103100e-01 2.120282e-01 2.117930e-01 2.121606e-01 2.104023e-01 2.094933e-01 2.063154e-01 2.042325e-01 1.997675e-01 1.966360e-01 1.910385e-01 1.869996e-01 1.804396e-01 1.756438e-01 1.682991e-01 1.628993e-01 1.549488e-01 1.490945e-01 1.407120e-01 1.345439e-01 1.258924e-01 1.195386e-01 1.107667e-01 1.043398e-01 9.557894e-02 8.917483e-02 8.053894e-02 7.423751e-02 6.582627e-02 5.969582e-02 5.160504e-02 4.571540e-02 3.806951e-02 3.253591e-02 2.561022e-02 2.078714e-02 1.561845e-02 1.311238e-02 1.325722e-02 1.556758e-02 2.044349e-02 2.475739e-02 3.071149e-02 3.549479e-02 4.160636e-02 4.654404e-02 5.261013e-02 5.763536e-02 6.360266e-02 6.870880e-02 7.456182e-02 7.975719e-02 8.548786e-02 9.078024e-02 9.637681e-02 1.017661e-01 1.072081e-01 1.126818e-01 1.179375e-01 1.234677e-01 1.284928e-01 1.340339e-01 1.387708e-01 1.442590e-01 1.486370e-01 1.539897e-01 1.579266e-01 1.630439e-01 1.664470e-01 1.712143e-01 1.739838e-01 1.782756e-01 1.803075e-01 1.839920e-01 1.851825e-01 1.881273e-01 1.883772e-01 1.904549e-01 1.896744e-01 1.907686e-01 1.888816e-01 1.888923e-01 1.858404e-01 1.846887e-01 1.804351e-01 1.780669e-01 1.725993e-01 1.689879e-01 1.623208e-01 1.574697e-01 1.496464e-01 1.435908e-01 1.346863e-01 1.274958e-01 1.176212e-01 1.094058e-01 9.872035e-02 8.964624e-02 7.839028e-02 6.873251e-02 
6.363883e-02 5.514029e-02 4.662744e-02 4.085708e-02 3.784691e-02 3.871470e-02 4.386717e-02 5.090610e-02 6.057801e-02 7.018290e-02 8.125609e-02 9.161528e-02 1.028200e-01 1.131548e-01 1.238940e-01 1.337757e-01 1.436854e-01 1.528218e-01 1.616406e-01 1.698113e-01 1.773398e-01 1.843748e-01 1.904627e-01 1.962363e-01 2.007792e-01 2.052086e-01 2.081470e-01 2.111914e-01 2.125105e-01 2.141697e-01 2.138976e-01 2.142101e-01 2.124147e-01 2.114532e-01 2.082377e-01 2.061043e-01 2.016017e-01 1.984213e-01 1.927874e-01 1.887015e-01 1.821079e-01 1.772673e-01 1.698941e-01 1.644525e-01 1.564812e-01 1.505893e-01 1.421969e-01 1.359973e-01 1.273509e-01 1.209742e-01 1.122277e-01 1.057903e-01 9.708252e-02 9.068613e-02 8.214263e-02 7.587695e-02 6.761655e-02 6.156763e-02 5.372171e-02 4.799471e-02 4.076005e-02 3.554628e-02 2.934725e-02 2.514261e-02 2.111352e-02 1.923168e-02 1.940106e-02 2.097881e-02 2.488017e-02 2.849265e-02 3.385017e-02 3.821993e-02 4.400061e-02 4.868034e-02 5.455027e-02 5.939939e-02 6.524390e-02 7.022068e-02 7.599519e-02 8.109039e-02 8.677192e-02 9.198405e-02 9.755259e-02 1.028765e-01 1.083067e-01 1.137270e-01 1.189839e-01 1.244713e-01 1.295082e-01 1.350163e-01 1.397740e-01 1.452383e-01 1.496447e-01 1.549822e-01 1.589537e-01 1.640641e-01 1.675069e-01 1.722750e-01 1.750884e-01 1.793880e-01 1.814673e-01 1.851659e-01 1.864070e-01 1.893717e-01 1.896752e-01 1.917785e-01 1.910549e-01 1.921806e-01 1.903550e-01 1.904038e-01 1.874198e-01 1.863142e-01 1.821380e-01 1.798263e-01 1.744499e-01 1.709097e-01 1.643542e-01 1.595949e-01 1.519137e-01 1.459804e-01 1.372644e-01 1.302433e-01 1.206308e-01 1.126612e-01 1.023605e-01 9.366607e-02 8.301534e-02 7.399184e-02 
7.182844e-02 6.444327e-02 5.742162e-02 5.284420e-02 5.066644e-02 5.129516e-02 5.539699e-02 6.108804e-02 6.944405e-02 7.792902e-02 8.810322e-02 9.770685e-02 1.083364e-01 1.181605e-01 1.285204e-01 1.380445e-01 1.476921e-01 1.565694e-01 1.651977e-01 1.731750e-01 1.805572e-01 1.874446e-01 1.934135e-01 1.990723e-01 2.035127e-01 2.078514e-01 2.106970e-01 2.136691e-01 2.149007e-01 2.165023e-01 2.161458e-01 2.164128e-01 2.145352e-01 2.135389e-01 2.102439e-01 2.080853e-01 2.035074e-01 2.003112e-01 1.946082e-01 1.905157e-01 1.838619e-01 1.790241e-01 1.716029e-01 1.661742e-01 1.581708e-01 1.523027e-01 1.438984e-01 1.377347e-01 1.291020e-01 1.227755e-01 1.140747e-01 1.077054e-01 9.908402e-02 9.277941e-02 8.437575e-02 7.823537e-02 7.018832e-02 6.431529e-02 5.678942e-02 5.131860e-02 4.456406e-02 3.973165e-02 3.422604e-02 3.052983e-02 2.721975e-02 2.557256e-02 2.560369e-02 2.659782e-02 2.968467e-02 3.258064e-02 3.728593e-02 4.113631e-02 4.650221e-02 5.082335e-02 5.643227e-02 6.102628e-02 6.670447e-02 7.149447e-02 7.716400e-02 8.212108e-02 8.773988e-02 9.285153e-02 9.838794e-02 1.036427e-01 1.090636e-01 1.144426e-01 1.197075e-01 1.251790e-01 1.302370e-01 1.357530e-01 1.405411e-01 1.460355e-01 1.504790e-01 1.558669e-01 1.598796e-01 1.650586e-01 1.685449e-01 1.733973e-01 1.762550e-01 1.806517e-01 1.827755e-01 1.865814e-01 1.878670e-01 1.909465e-01 1.912954e-01 1.935190e-01 1.928433e-01 1.940936e-01 1.923209e-01 1.924986e-01 1.895763e-01 1.886051e-01 1.845044e-01 1.823356e-01 1.770556e-01 1.736717e-01 1.672430e-01 1.626616e-01 1.551512e-01 1.494300e-01 1.409490e-01 1.341946e-01 1.249133e-01 1.172990e-01 1.074790e-01 9.928717e-02 8.935745e-02 8.108367e-02 
8.116375e-02 7.474773e-02 6.893494e-02 6.520636e-02 6.363432e-02 6.416435e-02 6.767658e-02 7.243089e-02 7.978002e-02 8.728373e-02 9.663146e-02 1.054768e-01 1.155277e-01 1.248001e-01 1.347654e-01 1.438862e-01 1.532616e-01 1.618378e-01 1.702730e-01 1.780195e-01 1.852594e-01 1.919647e-01 1.978229e-01 2.033334e-01 2.076817e-01 2.118958e-01 2.146592e-01 2.175230e-01 2.186767e-01 2.201815e-01 2.197479e-01 2.199263e-01 2.179711e-01 2.168921e-01 2.135190e-01 2.112828e-01 2.066273e-01 2.033579e-01 1.975803e-01 1.934193e-01 1.866970e-01 1.817961e-01 1.743161e-01 1.688308e-01 1.607831e-01 1.548665e-01 1.464380e-01 1.402365e-01 1.316058e-01 1.252559e-01 1.165913e-01 1.102179e-01 1.016775e-01 9.539584e-02 8.713187e-02 8.105291e-02 7.322466e-02 6.746905e-02 6.027021e-02 5.499807e-02 4.871367e-02 4.418591e-02 3.929410e-02 3.596934e-02 3.321821e-02 3.173994e-02 3.179791e-02 3.248423e-02 3.509789e-02 3.748670e-02 4.168326e-02 4.508922e-02 5.007407e-02 5.405428e-02 5.940034e-02 6.373488e-02 6.923552e-02 7.382388e-02 7.937624e-02 8.417337e-02 8.971919e-02 9.470260e-02 1.001998e-01 1.053521e-01 1.107605e-01 1.160596e-01 1.213336e-01 1.267458e-01 1.318306e-01 1.373070e-01 1.421365e-01 1.476100e-01 1.521067e-01 1.574916e-01 1.615669e-01 1.667595e-01 1.703158e-01 1.751970e-01 1.781304e-01 1.825694e-01 1.847732e-01 1.886331e-01 1.900025e-01 1.931463e-01 1.935829e-01 1.958800e-01 1.952970e-01 1.966297e-01 1.949568e-01 1.952266e-01 1.924149e-01 1.915475e-01 1.875734e-01 1.855239e-01 1.803938e-01 1.771508e-01 1.709058e-01 1.664960e-01 1.592179e-01 1.537130e-01 1.455349e-01 1.390626e-01 1.301875e-01 1.229545e-01 1.136935e-01 1.060325e-01 9.688400e-02 8.935523e-02 
9.170438e-02 8.611883e-02 8.124678e-02 7.812640e-02 7.695853e-02 7.739345e-02 8.047107e-02 8.448926e-02 9.099861e-02 9.761726e-02 1.061706e-01 1.142511e-01 1.236833e-01 1.323566e-01 1.418643e-01 1.505264e-01 1.595629e-01 1.677867e-01 1.759647e-01 1.834372e-01 1.904741e-01 1.969630e-01 2.026528e-01 2.079900e-01 2.121909e-01 2.162640e-01 2.188919e-01 2.216397e-01 2.226641e-01 2.240727e-01 2.235130e-01 2.236116e-01 2.215324e-01 2.203882e-01 2.168940e-01 2.146056e-01 2.098342e-01 2.065253e-01 2.006402e-01 1.964522e-01 1.896348e-01 1.847197e-01 1.771622e-01 1.716760e-01 1.635738e-01 1.576707e-01 1.492166e-01 1.430447e-01 1.344245e-01 1.281227e-01 1.195126e-01 1.132097e-01 1.047773e-01 9.859420e-02 9.050363e-02 8.455964e-02 7.698476e-02 7.141127e-02 6.456090e-02 5.952789e-02 5.368994e-02 4.944977e-02 4.504721e-02 4.197816e-02 3.955806e-02 3.810012e-02 3.805898e-02 3.840538e-02 4.055607e-02 4.242801e-02 4.610554e-02 4.901982e-02 5.358400e-02 5.716112e-02 6.220183e-02 6.621913e-02 7.150872e-02 7.584989e-02 8.126312e-02 8.586945e-02 9.133097e-02 9.617071e-02 1.016260e-01 1.066761e-01 1.120758e-01 1.173104e-01 1.226019e-01 1.279854e-01 1.331079e-01 1.385896e-01 1.434720e-01 1.489832e-01 1.535437e-01 1.589963e-01 1.631427e-01 1.684301e-01 1.720617e-01 1.770611e-01 1.800718e-01 1.846484e-01 1.869301e-01 1.909428e-01 1.923904e-01 1.956983e-01 1.962143e-01 1.986836e-01 1.981833e-01 1.996946e-01 1.981116e-01 1.985660e-01 1.958563e-01 1.951814e-01 1.913287e-01 1.894835e-01 1.845035e-01 1.814833e-01 1.754294e-01 1.712710e-01 1.642416e-01 1.590314e-01 1.511819e-01 1.450685e-01 1.366323e-01 1.298515e-01 1.211790e-01 1.140997e-01 1.057288e-01 9.893680e-02 
1.029375e-01 9.804457e-02 9.396005e-02 9.131449e-02 9.050775e-02 9.090682e-02 9.374301e-02 9.723555e-02 1.031414e-01 1.090422e-01 1.169484e-01 1.243444e-01 1.332320e-01 1.413316e-01 1.504198e-01 1.586222e-01 1.673441e-01 1.752027e-01 1.831436e-01 1.903240e-01 1.971769e-01 2.034281e-01 2.089681e-01 2.141073e-01 2.181785e-01 2.220823e-01 2.245904e-01 2.271895e-01 2.280972e-01 2.293719e-01 2.286947e-01 2.286703e-01 2.264714e-01 2.252124e-01 2.215967e-01 2.192006e-01 2.143079e-01 2.108978e-01 2.048951e-01 2.006125e-01 1.936858e-01 1.886835e-01 1.810304e-01 1.754656e-01 1.672879e-01 1.613167e-01 1.528142e-01 1.465875e-01 1.379537e-01 1.316141e-01 1.230341e-01 1.167156e-01 1.083670e-01 1.021974e-01 9.425581e-02 8.836328e-02 8.101482e-02 7.554076e-02 6.900355e-02 6.412462e-02 5.867981e-02 5.463660e-02 5.065157e-02 4.775985e-02 4.563887e-02 4.421253e-02 4.418839e-02 4.433972e-02 4.623835e-02 4.776507e-02 5.108977e-02 5.363201e-02 5.786897e-02 6.111094e-02 6.589227e-02 6.962607e-02 7.472580e-02 7.883155e-02 8.411499e-02 8.852698e-02 9.390862e-02 9.858925e-02 1.040060e-01 1.089284e-01 1.143241e-01 1.194605e-01 1.247766e-01 1.300903e-01 1.352614e-01 1.407011e-01 1.456518e-01 1.511484e-01 1.557927e-01 1.612573e-01 1.654996e-01 1.708238e-01 1.745603e-01 1.796191e-01 1.827410e-01 1.873970e-01 1.897946e-01 1.939035e-01 1.954707e-01 1.988889e-01 1.995286e-01 2.021203e-01 2.017494e-01 2.033941e-01 2.019491e-01 2.025485e-01 1.999904e-01 1.994741e-01 1.957933e-01 1.941248e-01 1.893463e-01 1.865276e-01 1.807169e-01 1.767949e-01 1.700662e-01 1.651411e-01 1.576705e-01 1.519095e-01 1.439561e-01 1.376177e-01 1.295601e-01 1.230353e-01 1.154271e-01 1.093007e-01 
1.151026e-01 1.108085e-01 1.073576e-01 1.050866e-01 1.045483e-01 1.049084e-01 1.075426e-01 1.105971e-01 1.159848e-01 1.212476e-01 1.285512e-01 1.352931e-01 1.436311e-01 1.511489e-01 1.597825e-01 1.674972e-01 1.758551e-01 1.833142e-01 1.909627e-01 1.978169e-01 2.044288e-01 2.104125e-01 2.157456e-01 2.206631e-01 2.245479e-01 2.282658e-01 2.305985e-01 2.330399e-01 2.337770e-01 2.349170e-01 2.340706e-01 2.339310e-01 2.315637e-01 2.302067e-01 2.264249e-01 2.239467e-01 2.188932e-01 2.154163e-01 2.092628e-01 2.049285e-01 1.978667e-01 1.928278e-01 1.850615e-01 1.794758e-01 1.712136e-01 1.652380e-01 1.566871e-01 1.504735e-01 1.418350e-01 1.355281e-01 1.269945e-01 1.207311e-01 1.124877e-01 1.063991e-01 9.862821e-02 9.284643e-02 8.573778e-02 8.040610e-02 7.417261e-02 6.946131e-02 6.435688e-02 6.047866e-02 5.680021e-02 5.400479e-02 5.203813e-02 5.054833e-02 5.043000e-02 5.032086e-02 5.191086e-02 5.304759e-02 5.598095e-02 5.810447e-02 6.197472e-02 6.483136e-02 6.931570e-02 7.271935e-02 7.759901e-02 8.143194e-02 8.656536e-02 9.075804e-02 9.604957e-02 1.005602e-01 1.059370e-01 1.107359e-01 1.161330e-01 1.211908e-01 1.265420e-01 1.318212e-01 1.370540e-01 1.425028e-01 1.475357e-01 1.530833e-01 1.578248e-01 1.633801e-01 1.677293e-01 1.731805e-01 1.770295e-01 1.822466e-01 1.854834e-01 1.903232e-01 1.928360e-01 1.971485e-01 1.988304e-01 2.024664e-01 2.032212e-01 2.060403e-01 2.057877e-01 2.076665e-01 2.063473e-01 2.071869e-01 2.047685e-01 2.045002e-01 2.009815e-01 1.995731e-01 1.949897e-01 1.924505e-01 1.868811e-01 1.832681e-01 1.768429e-01 1.722695e-01 1.651832e-01 1.598327e-01 1.523644e-01 1.465117e-01 1.390554e-01 1.330997e-01 1.262035e-01 1.207080e-01 
1.278048e-01 1.240151e-01 1.211273e-01 1.191686e-01 1.189014e-01 1.192552e-01 1.217993e-01 1.245324e-01 1.295638e-01 1.343173e-01 1.411608e-01 1.473443e-01 1.552356e-01 1.622294e-01 1.704800e-01 1.777376e-01 1.857840e-01 1.928562e-01 2.002542e-01 2.067836e-01 2.131901e-01 2.188991e-01 2.240562e-01 2.287377e-01 2.324628e-01 2.359735e-01 2.381526e-01 2.404081e-01 2.409907e-01 2.419603e-01 2.409549e-01 2.406564e-01 2.381242e-01 2.366175e-01 2.326662e-01 2.300461e-01 2.248219e-01 2.212103e-01 2.148894e-01 2.104278e-01 2.032082e-01 1.980501e-01 1.901425e-01 1.844468e-01 1.760675e-01 1.699930e-01 1.613573e-01 1.550584e-01 1.463756e-01 1.400003e-01 1.314716e-01 1.251610e-01 1.169793e-01 1.108700e-01 1.032242e-01 9.745343e-02 9.053595e-02 8.525033e-02 7.926826e-02 7.463439e-02 6.981751e-02 6.602845e-02 6.261967e-02 5.988090e-02 5.808460e-02 5.656009e-02 5.644641e-02 5.617951e-02 5.761486e-02 5.849625e-02 6.118722e-02 6.301321e-02 6.662844e-02 6.918982e-02 7.345116e-02 7.658422e-02 8.129059e-02 8.488518e-02 8.989830e-02 9.388602e-02 9.910751e-02 1.034460e-01 1.087982e-01 1.134574e-01 1.188700e-01 1.238209e-01 1.292224e-01 1.344284e-01 1.397410e-01 1.451512e-01 1.502879e-01 1.558323e-01 1.606964e-01 1.662832e-01 1.707693e-01 1.762848e-01 1.802805e-01 1.855921e-01 1.889818e-01 1.939421e-01 1.966117e-01 2.010663e-01 2.029078e-01 2.067032e-01 2.076206e-01 2.106130e-01 2.105279e-01 2.125919e-01 2.114491e-01 2.124853e-01 2.102578e-01 2.101996e-01 2.068940e-01 2.057134e-01 2.013751e-01 1.990879e-01 1.938077e-01 1.904801e-01 1.844021e-01 1.801587e-01 1.734931e-01 1.685293e-01 1.615694e-01 1.561699e-01 1.493161e-01 1.438790e-01 1.376622e-01 1.327206e-01 
1.413811e-01 1.380475e-01 1.356315e-01 1.339438e-01 1.338936e-01 1.342439e-01 1.367032e-01 1.391607e-01 1.438720e-01 1.481691e-01 1.545791e-01 1.602364e-01 1.676812e-01 1.741576e-01 1.820011e-01 1.887887e-01 1.964833e-01 2.031451e-01 2.102427e-01 2.164195e-01 2.225653e-01 2.279723e-01 2.328954e-01 2.373170e-01 2.408232e-01 2.441084e-01 2.460748e-01 2.481329e-01 2.485033e-01 2.492992e-01 2.480792e-01 2.476277e-01 2.448787e-01 2.432378e-01 2.390700e-01 2.363335e-01 2.308975e-01 2.271867e-01 2.206649e-01 2.161209e-01 2.087181e-01 2.034942e-01 1.954292e-01 1.896841e-01 1.811810e-01 1.750736e-01 1.663555e-01 1.600406e-01 1.513242e-01 1.449506e-01 1.364428e-01 1.301527e-01 1.220507e-01 1.159816e-01 1.084746e-01 1.027637e-01 9.603837e-02 9.082820e-02 8.507439e-02 8.051933e-02 7.593197e-02 7.219873e-02 6.896465e-02 6.621715e-02 6.447559e-02 6.283587e-02 6.261893e-02 6.211811e-02 6.331386e-02 6.387396e-02 6.625616e-02 6.772570e-02 7.103108e-02 7.324408e-02 7.723750e-02 8.005463e-02 8.455376e-02 8.787518e-02 9.274567e-02 9.650629e-02 1.016466e-01 1.058051e-01 1.111315e-01 1.156585e-01 1.210934e-01 1.259614e-01 1.314257e-01 1.365996e-01 1.420078e-01 1.474379e-01 1.526958e-01 1.583117e-01 1.633155e-01 1.690236e-01 1.736612e-01 1.793436e-01 1.834971e-01 1.890150e-01 1.925642e-01 1.977627e-01 2.005904e-01 2.053069e-01 2.073039e-01 2.113770e-01 2.124481e-01 2.157277e-01 2.157974e-01 2.181537e-01 2.171719e-01 2.185038e-01 2.164509e-01 2.166933e-01 2.135850e-01 2.127142e-01 2.086070e-01 2.066460e-01 2.016431e-01 1.986670e-01 1.929262e-01 1.890701e-01 1.828141e-01 1.782830e-01 1.718142e-01 1.668975e-01 1.606134e-01 1.557005e-01 1.501050e-01 1.456926e-01 
1.554778e-01 1.525346e-01 1.505617e-01 1.491091e-01 1.492945e-01 1.496612e-01 1.521156e-01 1.543697e-01 1.588801e-01 1.628154e-01 1.689160e-01 1.741354e-01 1.812421e-01 1.872703e-01 1.947957e-01 2.011625e-01 2.085779e-01 2.148615e-01 2.217193e-01 2.275621e-01 2.334988e-01 2.386109e-01 2.433440e-01 2.475023e-01 2.508262e-01 2.538726e-01 2.556551e-01 2.574924e-01 2.576711e-01 2.582595e-01 2.568366e-01 2.561877e-01 2.532243e-01 2.513942e-01 2.470029e-01 2.440842e-01 2.384202e-01 2.345340e-01 2.277861e-01 2.230736e-01 2.154543e-01 2.100694e-01 2.018059e-01 1.959081e-01 1.872338e-01 1.809834e-01 1.721302e-01 1.656840e-01 1.568770e-01 1.503866e-01 1.418401e-01 1.354511e-01 1.273673e-01 1.212211e-01 1.137910e-01 1.080277e-01 1.014342e-01 9.619666e-02 9.061644e-02 8.605327e-02 8.165498e-02 7.791708e-02 7.484694e-02 7.207166e-02 7.042239e-02 6.870261e-02 6.847499e-02 6.782649e-02 6.891211e-02 6.926552e-02 7.147329e-02 7.270192e-02 7.581299e-02 7.777649e-02 8.159099e-02 8.416787e-02 8.852465e-02 9.162498e-02 9.639973e-02 9.996347e-02 1.050576e-01 1.090466e-01 1.143752e-01 1.187630e-01 1.242453e-01 1.290076e-01 1.345596e-01 1.396649e-01 1.451956e-01 1.505972e-01 1.560060e-01 1.616360e-01 1.668126e-01 1.725775e-01 1.774036e-01 1.831841e-01 1.875358e-01 1.931893e-01 1.969418e-01 2.023082e-01 2.053408e-01 2.102511e-01 2.124531e-01 2.167397e-01 2.180162e-01 2.215235e-01 2.218014e-01 2.243962e-01 2.236297e-01 2.252095e-01 2.233852e-01 2.238862e-01 2.210279e-01 2.204299e-01 2.166040e-01 2.149358e-01 2.102561e-01 2.076005e-01 2.022358e-01 1.987355e-01 1.929180e-01 1.887843e-01 1.828203e-01 1.783428e-01 1.726226e-01 1.681780e-01 1.631765e-01 1.592260e-01 
1.704920e-01 1.679226e-01 1.663356e-01 1.651082e-01 1.654942e-01 1.658885e-01 1.683329e-01 1.704154e-01 1.747373e-01 1.783480e-01 1.841495e-01 1.889579e-01 1.957221e-01 2.013119e-01 2.084968e-01 2.144364e-01 2.215351e-01 2.274224e-01 2.339919e-01 2.394758e-01 2.451474e-01 2.499373e-01 2.544195e-01 2.582887e-01 2.613668e-01 2.641524e-01 2.656868e-01 2.672878e-01 2.672113e-01 2.675851e-01 2.658984e-01 2.650549e-01 2.618206e-01 2.598149e-01 2.551495e-01 2.520738e-01 2.461387e-01 2.421138e-01 2.351054e-01 2.302719e-01 2.224116e-01 2.169225e-01 2.084467e-01 2.024606e-01 1.936115e-01 1.872878e-01 1.783054e-01 1.718000e-01 1.629157e-01 1.563795e-01 1.478117e-01 1.413898e-01 1.333409e-01 1.271738e-01 1.198302e-01 1.140556e-01 1.075878e-01 1.023431e-01 9.690648e-02 9.232863e-02 8.805953e-02 8.428084e-02 8.128555e-02 7.841982e-02 7.675479e-02 7.487558e-02 7.452611e-02 7.364614e-02 7.451991e-02 7.458706e-02 7.653313e-02 7.744952e-02 8.029414e-02 8.194688e-02 8.552539e-02 8.781230e-02 9.198472e-02 9.482715e-02 9.947872e-02 1.028230e-01 1.078570e-01 1.116694e-01 1.169981e-01 1.212564e-01 1.267934e-01 1.314779e-01 1.371322e-01 1.422161e-01 1.478883e-01 1.533287e-01 1.589098e-01 1.646402e-01 1.700112e-01 1.759373e-01 1.809712e-01 1.869689e-01 1.915344e-01 1.974534e-01 2.014194e-01 2.070894e-01 2.103310e-01 2.155718e-01 2.179761e-01 2.226091e-01 2.240819e-01 2.279424e-01 2.284136e-01 2.313622e-01 2.307916e-01 2.327233e-01 2.311055e-01 2.319571e-01 2.293258e-01 2.290815e-01 2.255140e-01 2.242093e-01 2.198309e-01 2.175565e-01 2.125465e-01 2.094530e-01 2.040509e-01 2.003542e-01 1.948669e-01 1.908543e-01 1.856600e-01 1.816927e-01 1.772340e-01 1.737378e-01 
1.860779e-01 1.838323e-01 1.826244e-01 1.815968e-01 1.822091e-01 1.826431e-01 1.851429e-01 1.871027e-01 1.913324e-01 1.946903e-01 2.003017e-01 2.047770e-01 2.113059e-01 2.165287e-01 2.234713e-01 2.290435e-01 2.359128e-01 2.414503e-01 2.478081e-01 2.529666e-01 2.584399e-01 2.629284e-01 2.672170e-01 2.708050e-01 2.736846e-01 2.762044e-01 2.775272e-01 2.788737e-01 2.785671e-01 2.786945e-01 2.767571e-01 2.756733e-01 2.721685e-01 2.699277e-01 2.649761e-01 2.616702e-01 2.554395e-01 2.511893e-01 2.438843e-01 2.388306e-01 2.306823e-01 2.249783e-01 2.162335e-01 2.100384e-01 2.009496e-01 1.944235e-01 1.852405e-01 1.785410e-01 1.695036e-01 1.627837e-01 1.541164e-01 1.475243e-01 1.394326e-01 1.331121e-01 1.257807e-01 1.198722e-01 1.134644e-01 1.081058e-01 1.027617e-01 9.808650e-02 9.391935e-02 9.005040e-02 8.713733e-02 8.417402e-02 8.254334e-02 8.054417e-02 8.016444e-02 7.913341e-02 7.991452e-02 7.980126e-02 8.161202e-02 8.232867e-02 8.502325e-02 8.646944e-02 8.990967e-02 9.199378e-02 9.605962e-02 9.871043e-02 1.032997e-01 1.064688e-01 1.114911e-01 1.151494e-01 1.205189e-01 1.246495e-01 1.302782e-01 1.348673e-01 1.406601e-01 1.456876e-01 1.515392e-01 1.569682e-01 1.627620e-01 1.685307e-01 1.741394e-01 1.801552e-01 1.854434e-01 1.915810e-01 1.964096e-01 2.025140e-01 2.067453e-01 2.126392e-01 2.161436e-01 2.216380e-01 2.243006e-01 2.292080e-01 2.309347e-01 2.350826e-01 2.358061e-01 2.390493e-01 2.387342e-01 2.409652e-01 2.396127e-01 2.407685e-01 2.384208e-01 2.384887e-01 2.352321e-01 2.342526e-01 2.302219e-01 2.282918e-01 2.236740e-01 2.209492e-01 2.159885e-01 2.126868e-01 2.076880e-01 2.040921e-01 1.994197e-01 1.958747e-01 1.919417e-01 1.888419e-01 
2.026767e-01 2.007609e-01 1.998960e-01 1.990789e-01 1.998954e-01 2.003902e-01 2.029391e-01 2.048064e-01 2.089464e-01 2.120831e-01 2.175053e-01 2.216710e-01 2.279549e-01 2.328212e-01 2.394977e-01 2.446985e-01 2.513005e-01 2.564722e-01 2.625686e-01 2.673769e-01 2.725931e-01 2.767508e-01 2.807802e-01 2.840567e-01 2.866680e-01 2.888944e-01 2.899341e-01 2.910044e-01 2.903967e-01 2.902647e-01 2.880084e-01 2.866824e-01 2.828443e-01 2.803792e-01 2.750859e-01 2.715741e-01 2.650017e-01 2.605639e-01 2.529272e-01 2.477035e-01 2.392440e-01 2.333863e-01 2.243613e-01 2.180267e-01 2.086988e-01 2.020450e-01 1.926720e-01 1.858544e-01 1.766815e-01 1.698511e-01 1.611047e-01 1.544079e-01 1.462905e-01 1.398692e-01 1.325571e-01 1.265494e-01 1.201905e-01 1.147297e-01 1.094423e-01 1.046546e-01 1.005249e-01 9.652265e-02 9.360007e-02 9.047134e-02 8.876380e-02 8.655956e-02 8.603048e-02 8.475589e-02 8.532876e-02 8.494431e-02 8.651571e-02 8.695001e-02 8.940649e-02 9.057550e-02 9.380731e-02 9.563196e-02 9.953938e-02 1.019570e-01 1.064496e-01 1.094179e-01 1.144104e-01 1.179061e-01 1.233123e-01 1.273253e-01 1.330530e-01 1.375776e-01 1.435252e-01 1.485496e-01 1.546031e-01 1.600978e-01 1.661304e-01 1.720380e-01 1.779117e-01 1.841397e-01 1.897078e-01 1.961261e-01 2.012392e-01 2.076828e-01 2.121946e-01 2.184724e-01 2.222474e-01 2.281546e-01 2.310746e-01 2.364088e-01 2.383797e-01 2.429555e-01 2.439134e-01 2.475770e-01 2.474928e-01 2.501325e-01 2.490161e-01 2.505698e-01 2.484736e-01 2.489329e-01 2.459544e-01 2.453670e-01 2.416515e-01 2.401218e-01 2.358648e-01 2.335549e-01 2.290041e-01 2.261344e-01 2.215905e-01 2.184383e-01 2.142505e-01 2.111449e-01 2.076960e-01 2.050015e-01 
2.199375e-01 2.183100e-01 2.177930e-01 2.171652e-01 2.182149e-01 2.187777e-01 2.214340e-01 2.232450e-01 2.273793e-01 2.303531e-01 2.356860e-01 2.396122e-01 2.457571e-01 2.503390e-01 2.568539e-01 2.617508e-01 2.681846e-01 2.730489e-01 2.789751e-01 2.834805e-01 2.885212e-01 2.923820e-01 2.962233e-01 2.992076e-01 3.016093e-01 3.035460e-01 3.043475e-01 3.051285e-01 3.042497e-01 3.038280e-01 3.012668e-01 2.996508e-01 2.954769e-01 2.927220e-01 2.870681e-01 2.832677e-01 2.763187e-01 2.715940e-01 2.635754e-01 2.580668e-01 2.492321e-01 2.430915e-01 2.337106e-01 2.270950e-01 2.174424e-01 2.105099e-01 2.008542e-01 1.937611e-01 1.843563e-01 1.772557e-01 1.683333e-01 1.613749e-01 1.531392e-01 1.464689e-01 1.390924e-01 1.328524e-01 1.264741e-01 1.208007e-01 1.155243e-01 1.105441e-01 1.064361e-01 1.022585e-01 9.934732e-02 9.605401e-02 9.432922e-02 9.196387e-02 9.137902e-02 8.994131e-02 9.042183e-02 8.987065e-02 9.132593e-02 9.159181e-02 9.392771e-02 9.493006e-02 9.805724e-02 9.972030e-02 1.035567e-01 1.058204e-01 1.102888e-01 1.131138e-01 1.181370e-01 1.215043e-01 1.270001e-01 1.309059e-01 1.367823e-01 1.412296e-01 1.473814e-01 1.523685e-01 1.586752e-01 1.641823e-01 1.705082e-01 1.764858e-01 1.826816e-01 1.890411e-01 1.949486e-01 2.015590e-01 2.070178e-01 2.137083e-01 2.185631e-01 2.251328e-01 2.292417e-01 2.354738e-01 2.387156e-01 2.443948e-01 2.466756e-01 2.516056e-01 2.528645e-01 2.568831e-01 2.570965e-01 2.600877e-01 2.592728e-01 2.611739e-01 2.593915e-01 2.601970e-01 2.575536e-01 2.573160e-01 2.539649e-01 2.527941e-01 2.489366e-01 2.469990e-01 2.428846e-01 2.404007e-01 2.363249e-01 2.335663e-01 2.298635e-01 2.271441e-01 2.241715e-01 2.218306e-01 
2.383377e-01 2.370217e-01 2.368321e-01 2.364207e-01 2.376928e-01 2.383555e-01 2.411170e-01 2.429068e-01 2.470369e-01 2.498806e-01 2.551225e-01 2.588338e-01 2.648284e-01 2.691379e-01 2.754670e-01 2.800578e-01 2.862849e-01 2.908264e-01 2.965309e-01 3.007069e-01 3.055094e-01 3.090397e-01 3.126209e-01 3.152763e-01 3.173904e-01 3.190015e-01 3.194836e-01 3.199448e-01 3.187138e-01 3.179811e-01 3.150372e-01 3.131223e-01 3.085414e-01 3.055030e-01 2.994266e-01 2.953599e-01 2.879842e-01 2.830113e-01 2.745742e-01 2.688344e-01 2.596026e-01 2.532454e-01 2.435011e-01 2.366803e-01 2.267089e-01 2.195786e-01 2.096570e-01 2.023697e-01 1.927563e-01 1.854620e-01 1.763883e-01 1.692340e-01 1.608985e-01 1.540288e-01 1.465928e-01 1.401486e-01 1.337344e-01 1.278506e-01 1.225412e-01 1.173424e-01 1.131824e-01 1.087751e-01 1.057740e-01 1.022374e-01 1.003739e-01 9.775161e-02 9.697993e-02 9.527554e-02 9.553408e-02 9.471413e-02 9.593425e-02 9.593841e-02 9.805135e-02 9.880707e-02 1.017471e-01 1.031842e-01 1.068878e-01 1.089498e-01 1.133523e-01 1.160035e-01 1.210343e-01 1.242610e-01 1.298396e-01 1.336467e-01 1.396784e-01 1.440807e-01 1.504543e-01 1.554630e-01 1.620488e-01 1.676565e-01 1.743069e-01 1.804724e-01 1.870240e-01 1.936609e-01 1.999409e-01 2.069127e-01 2.127463e-01 2.198690e-01 2.250889e-01 2.321428e-01 2.365983e-01 2.433446e-01 2.469096e-01 2.531117e-01 2.556920e-01 2.611358e-01 2.626738e-01 2.671855e-01 2.676647e-01 2.711229e-01 2.705704e-01 2.729134e-01 2.714016e-01 2.726296e-01 2.702766e-01 2.704506e-01 2.674202e-01 2.666591e-01 2.631599e-01 2.616369e-01 2.579202e-01 2.558580e-01 2.522139e-01 2.498790e-01 2.466270e-01 2.443195e-01 2.417910e-01 2.398270e-01 