# vtk DataFile Version 2.0
Comment goes here
ASCII

DATASET STRUCTURED_POINTS
FIELD FieldData 1
TIME 1 1 double
0.18000000
DIMENSIONS    128   128   1

ORIGIN    0.000   0.000   0.000
SPACING   0.039062 0.039062   1.000

POINT_DATA   16384
SCALARS uMag double
LOOKUP_TABLE default

3.251280e-02 3.871126e-02 4.688489e-02 5.369440e-02 6.219316e-02 6.948734e-02 7.815502e-02 8.577845e-02 9.443361e-02 1.022065e-01 1.106478e-01 1.183719e-01 1.263844e-01 1.338492e-01 1.412119e-01 1.482027e-01 1.546961e-01 1.610017e-01 1.664167e-01 1.718377e-01 1.759838e-01 1.803406e-01 1.830543e-01 1.861947e-01 1.873462e-01 1.891513e-01 1.886507e-01 1.890401e-01 1.868409e-01 1.857754e-01 1.818768e-01 1.793594e-01 1.738060e-01 1.698813e-01 1.627610e-01 1.575120e-01 1.489522e-01 1.424961e-01 1.326585e-01 1.251418e-01 1.142160e-01 1.058080e-01 9.400486e-02 8.489129e-02 7.243652e-02 6.281345e-02 4.994059e-02 4.000845e-02 2.695308e-02 1.691139e-02 3.905769e-03 6.051375e-03 1.878301e-02 2.847068e-02 4.071607e-02 4.996162e-02 6.152387e-02 7.016940e-02 8.086992e-02 8.877442e-02 9.845556e-02 1.054968e-01 1.140242e-01 1.201004e-01 1.273656e-01 1.323975e-01 1.383195e-01 1.422522e-01 1.467802e-01 1.495849e-01 1.526996e-01 1.543757e-01 1.560908e-01 1.566669e-01 1.570295e-01 1.565646e-01 1.556548e-01 1.542376e-01 1.521669e-01 1.499145e-01 1.468225e-01 1.438770e-01 1.399268e-01 1.364501e-01 1.318219e-01 1.279896e-01 1.228727e-01 1.188651e-01 1.134495e-01 1.094431e-01 1.039097e-01 1.000669e-01 9.457826e-02 9.103828e-02 8.573039e-02 8.260094e-02 7.757587e-02 7.492661e-02 7.024786e-02 6.810653e-02 6.379668e-02 6.214788e-02 5.818910e-02 5.697612e-02 5.331335e-02 5.244273e-02 4.898931e-02 4.833772e-02 4.498290e-02 4.440572e-02 4.102337e-02 4.036426e-02 3.682223e-02 3.592293e-02 3.209222e-02 3.080194e-02 2.656519e-02 2.474907e-02 2.000806e-02 1.755434e-02 1.223604e-02 9.061720e-03 3.122939e-03 8.220955e-04 7.391533e-03 1.212191e-02 1.929740e-02 2.479110e-02 
3.309551e-02 3.923205e-02 4.733390e-02 5.411004e-02 6.256571e-02 6.984039e-02 7.847990e-02 8.609187e-02 9.472775e-02 1.024944e-01 1.109222e-01 1.186436e-01 1.266465e-01 1.341114e-01 1.414672e-01 1.484600e-01 1.549485e-01 1.612576e-01 1.666691e-01 1.720947e-01 1.762385e-01 1.806008e-01 1.833131e-01 1.864596e-01 1.876107e-01 1.894226e-01 1.889226e-01 1.893196e-01 1.871226e-01 1.860655e-01 1.821714e-01 1.796638e-01 1.741182e-01 1.702050e-01 1.630974e-01 1.578629e-01 1.493230e-01 1.428861e-01 1.330791e-01 1.255895e-01 1.147114e-01 1.063442e-01 9.461786e-02 8.557165e-02 7.324992e-02 6.375325e-02 5.114752e-02 4.151273e-02 2.919754e-02 2.031969e-02 1.206751e-02 1.296692e-02 2.208110e-02 3.077026e-02 4.238782e-02 5.135021e-02 6.267122e-02 7.119166e-02 8.176222e-02 8.960035e-02 9.919647e-02 1.061994e-01 1.146633e-01 1.207167e-01 1.279294e-01 1.329476e-01 1.388232e-01 1.427477e-01 1.472323e-01 1.500319e-01 1.531049e-01 1.547770e-01 1.564511e-01 1.570230e-01 1.573449e-01 1.568743e-01 1.559240e-01 1.544988e-01 1.523878e-01 1.501241e-01 1.469924e-01 1.440317e-01 1.400428e-01 1.365468e-01 1.318812e-01 1.280255e-01 1.228734e-01 1.188388e-01 1.133908e-01 1.093545e-01 1.037924e-01 9.991808e-02 9.440573e-02 9.083415e-02 8.550854e-02 8.234926e-02 7.731375e-02 7.463840e-02 6.995764e-02 6.779575e-02 6.349314e-02 6.183073e-02 5.788876e-02 5.666983e-02 5.303313e-02 5.216420e-02 4.874526e-02 4.810237e-02 4.478941e-02 4.422711e-02 4.089342e-02 4.025493e-02 3.676909e-02 3.589687e-02 3.213349e-02 3.088018e-02 2.673232e-02 2.497345e-02 2.037386e-02 1.803336e-02 1.303540e-02 1.022674e-02 5.911837e-03 5.303594e-03 9.189126e-03 1.337900e-02 2.016185e-02 2.551451e-02 
3.483749e-02 4.079807e-02 4.877898e-02 5.544955e-02 6.385567e-02 7.106019e-02 7.968586e-02 8.724833e-02 9.588973e-02 1.036205e-01 1.120645e-01 1.197598e-01 1.277849e-01 1.352313e-01 1.426119e-01 1.495927e-01 1.561067e-01 1.624094e-01 1.678457e-01 1.732702e-01 1.774372e-01 1.818034e-01 1.845369e-01 1.876925e-01 1.888629e-01 1.906894e-01 1.902075e-01 1.906250e-01 1.884460e-01 1.874166e-01 1.835424e-01 1.810710e-01 1.755502e-01 1.716841e-01 1.646106e-01 1.594372e-01 1.509472e-01 1.445910e-01 1.348600e-01 1.274795e-01 1.167211e-01 1.085078e-01 9.697785e-02 8.816419e-02 7.618615e-02 6.708087e-02 5.514786e-02 4.629572e-02 3.555426e-02 2.858933e-02 2.331608e-02 2.360258e-02 2.953083e-02 3.633757e-02 4.656052e-02 5.473160e-02 6.546634e-02 7.357146e-02 8.384980e-02 9.143052e-02 1.008663e-01 1.076926e-01 1.160647e-01 1.219891e-01 1.291492e-01 1.340695e-01 1.399160e-01 1.437644e-01 1.482343e-01 1.509739e-01 1.540403e-01 1.556645e-01 1.573360e-01 1.578690e-01 1.581891e-01 1.576862e-01 1.567324e-01 1.552791e-01 1.531610e-01 1.508718e-01 1.477277e-01 1.447425e-01 1.407347e-01 1.372142e-01 1.325227e-01 1.286416e-01 1.234563e-01 1.193953e-01 1.139075e-01 1.098442e-01 1.042370e-01 1.003363e-01 9.477572e-02 9.118037e-02 8.580649e-02 8.262873e-02 7.754857e-02 7.486326e-02 7.014530e-02 6.798510e-02 6.365618e-02 6.200945e-02 5.805430e-02 5.686598e-02 5.322996e-02 5.240581e-02 4.900080e-02 4.841493e-02 4.512812e-02 4.463307e-02 4.133807e-02 4.077658e-02 3.734599e-02 3.656369e-02 3.288406e-02 3.174410e-02 2.773789e-02 2.614377e-02 2.182044e-02 1.977726e-02 1.542974e-02 1.332914e-02 1.057131e-02 1.049217e-02 1.311893e-02 1.650022e-02 2.253566e-02 2.754205e-02 
3.758355e-02 4.330461e-02 5.106393e-02 5.758346e-02 6.586923e-02 7.297362e-02 8.153559e-02 8.902994e-02 9.764137e-02 1.053258e-01 1.137608e-01 1.214259e-01 1.294549e-01 1.368835e-01 1.442760e-01 1.512491e-01 1.577794e-01 1.640829e-01 1.695375e-01 1.749702e-01 1.791559e-01 1.835372e-01 1.862891e-01 1.894663e-01 1.906550e-01 1.925096e-01 1.920469e-01 1.924999e-01 1.903430e-01 1.893577e-01 1.855117e-01 1.830953e-01 1.776138e-01 1.738168e-01 1.668008e-01 1.617157e-01 1.533119e-01 1.470712e-01 1.374714e-01 1.302471e-01 1.196910e-01 1.116987e-01 1.004892e-01 9.200710e-02 8.055971e-02 7.199235e-02 6.099258e-02 5.308635e-02 4.401384e-02 3.853693e-02 3.481051e-02 3.490702e-02 3.918516e-02 4.445129e-02 5.316293e-02 6.037458e-02 7.027423e-02 7.781925e-02 8.761454e-02 9.484270e-02 1.039740e-01 1.105633e-01 1.187278e-01 1.244855e-01 1.314934e-01 1.362929e-01 1.420198e-01 1.457783e-01 1.501478e-01 1.528186e-01 1.557952e-01 1.573646e-01 1.589513e-01 1.594376e-01 1.596740e-01 1.591277e-01 1.580887e-01 1.565913e-01 1.543847e-01 1.520472e-01 1.488103e-01 1.457702e-01 1.416649e-01 1.380810e-01 1.332877e-01 1.293342e-01 1.240440e-01 1.199021e-01 1.143085e-01 1.101578e-01 1.044470e-01 1.004561e-01 9.479839e-02 9.111496e-02 8.565592e-02 8.239868e-02 7.725150e-02 7.450251e-02 6.974194e-02 6.754086e-02 6.319900e-02 6.153963e-02 5.760434e-02 5.643421e-02 5.285100e-02 5.207511e-02 4.875338e-02 4.824244e-02 4.506596e-02 4.466849e-02 4.150930e-02 4.106602e-02 3.780096e-02 3.716086e-02 3.369223e-02 3.273221e-02 2.902111e-02 2.767979e-02 2.382375e-02 2.218884e-02 1.865876e-02 1.724879e-02 1.552851e-02 1.579359e-02 1.795069e-02 2.080279e-02 2.609424e-02 3.070259e-02 
4.118106e-02 4.664807e-02 5.420452e-02 6.054547e-02 6.873209e-02 7.570894e-02 8.423432e-02 9.163601e-02 1.002488e-01 1.078658e-01 1.163252e-01 1.239421e-01 1.320091e-01 1.394051e-01 1.468427e-01 1.537966e-01 1.603746e-01 1.666708e-01 1.721727e-01 1.776089e-01 1.818396e-01 1.862349e-01 1.890285e-01 1.922302e-01 1.934572e-01 1.953475e-01 1.949212e-01 1.954222e-01 1.933026e-01 1.923795e-01 1.885762e-01 1.862392e-01 1.808122e-01 1.771162e-01 1.701759e-01 1.652202e-01 1.569266e-01 1.508537e-01 1.414187e-01 1.344162e-01 1.241108e-01 1.164205e-01 1.055987e-01 9.754356e-02 8.670647e-02 7.876632e-02 6.872859e-02 6.173490e-02 5.400459e-02 4.949927e-02 4.655224e-02 4.643244e-02 4.966942e-02 5.372352e-02 6.110807e-02 6.729648e-02 7.630725e-02 8.314939e-02 9.239740e-02 9.913858e-02 1.079284e-01 1.141671e-01 1.221128e-01 1.276095e-01 1.344738e-01 1.390743e-01 1.447041e-01 1.483085e-01 1.526095e-01 1.551591e-01 1.580838e-01 1.595561e-01 1.610989e-01 1.615053e-01 1.616993e-01 1.610841e-01 1.599993e-01 1.584391e-01 1.561794e-01 1.537806e-01 1.504804e-01 1.473768e-01 1.431960e-01 1.395439e-01 1.346620e-01 1.306339e-01 1.252421e-01 1.210192e-01 1.153126e-01 1.110759e-01 1.052443e-01 1.011657e-01 9.538464e-02 9.161738e-02 8.603972e-02 8.270997e-02 7.745771e-02 7.465640e-02 6.981373e-02 6.758947e-02 6.319696e-02 6.155058e-02 5.760167e-02 5.648388e-02 5.292542e-02 5.223959e-02 4.897825e-02 4.858970e-02 4.550471e-02 4.525559e-02 4.221662e-02 4.194407e-02 3.883257e-02 3.838865e-02 3.512442e-02 3.440031e-02 3.098345e-02 2.995002e-02 2.654877e-02 2.534767e-02 2.250239e-02 2.165034e-02 2.056876e-02 2.109244e-02 2.306751e-02 2.563350e-02 3.040149e-02 3.466616e-02 
4.552492e-02 5.075134e-02 5.807283e-02 6.422748e-02 7.227515e-02 7.911337e-02 8.756713e-02 9.486742e-02 1.034538e-01 1.109984e-01 1.194611e-01 1.270288e-01 1.351182e-01 1.424842e-01 1.499557e-01 1.568959e-01 1.635138e-01 1.698105e-01 1.753543e-01 1.808039e-01 1.850759e-01 1.894965e-01 1.923293e-01 1.955680e-01 1.968324e-01 1.987718e-01 1.983826e-01 1.989460e-01 1.968667e-01 1.960214e-01 1.922670e-01 1.900265e-01 1.846652e-01 1.810896e-01 1.742429e-01 1.694387e-01 1.612827e-01 1.554034e-01 1.461723e-01 1.394224e-01 1.294202e-01 1.220669e-01 1.116964e-01 1.041011e-01 9.393081e-02 8.662119e-02 7.752558e-02 7.133508e-02 6.470171e-02 6.089088e-02 5.849223e-02 5.826535e-02 6.087893e-02 6.408827e-02 7.041426e-02 7.571273e-02 8.384884e-02 8.999807e-02 9.862730e-02 1.048599e-01 1.132188e-01 1.190836e-01 1.267213e-01 1.319394e-01 1.385738e-01 1.429638e-01 1.484129e-01 1.518560e-01 1.560060e-01 1.584298e-01 1.612202e-01 1.625911e-01 1.640070e-01 1.643272e-01 1.643953e-01 1.637013e-01 1.624866e-01 1.608478e-01 1.584509e-01 1.559681e-01 1.525211e-01 1.493232e-01 1.449851e-01 1.412253e-01 1.361755e-01 1.320248e-01 1.264563e-01 1.220966e-01 1.162076e-01 1.118227e-01 1.058081e-01 1.015755e-01 9.561830e-02 9.169971e-02 8.596218e-02 8.249483e-02 7.711050e-02 7.419843e-02 6.926379e-02 6.696909e-02 6.253575e-02 6.087039e-02 5.693896e-02 5.585936e-02 5.237781e-02 5.178594e-02 4.865594e-02 4.840969e-02 4.550239e-02 4.543434e-02 4.261343e-02 4.255403e-02 3.970295e-02 3.950489e-02 3.655878e-02 3.612495e-02 3.311681e-02 3.244282e-02 2.958630e-02 2.884007e-02 2.667132e-02 2.631708e-02 2.577866e-02 2.656367e-02 2.852062e-02 3.095932e-02 3.535830e-02 3.935781e-02 
5.043038e-02 5.546722e-02 6.262553e-02 6.861336e-02 7.657399e-02 8.327714e-02 9.170362e-02 9.889851e-02 1.074997e-01 1.149646e-01 1.234702e-01 1.309804e-01 1.391301e-01 1.464581e-01 1.539995e-01 1.609191e-01 1.676105e-01 1.739028e-01 1.795191e-01 1.849795e-01 1.893201e-01 1.937663e-01 1.966623e-01 1.999415e-01 2.012637e-01 2.032593e-01 2.029244e-01 2.035612e-01 2.015366e-01 2.007847e-01 1.970919e-01 1.949685e-01 1.896847e-01 1.862555e-01 1.795148e-01 1.748938e-01 1.668895e-01 1.612410e-01 1.522301e-01 1.457733e-01 1.360907e-01 1.291130e-01 1.192005e-01 1.120870e-01 1.025527e-01 9.584245e-02 8.755711e-02 8.202216e-02 7.619106e-02 7.282618e-02 7.073491e-02 7.034562e-02 7.247021e-02 7.496260e-02 8.042064e-02 8.487511e-02 9.221436e-02 9.762881e-02 1.056584e-01 1.113060e-01 1.192408e-01 1.246492e-01 1.319909e-01 1.368530e-01 1.432791e-01 1.473903e-01 1.526893e-01 1.559129e-01 1.599500e-01 1.621996e-01 1.648987e-01 1.661292e-01 1.674640e-01 1.676677e-01 1.676558e-01 1.668601e-01 1.655597e-01 1.638261e-01 1.613323e-01 1.587544e-01 1.551950e-01 1.518960e-01 1.474269e-01 1.435554e-01 1.383548e-01 1.340792e-01 1.283399e-01 1.238416e-01 1.177643e-01 1.132292e-01 1.070136e-01 1.026244e-01 9.646140e-02 9.238838e-02 8.645169e-02 8.284453e-02 7.728210e-02 7.426044e-02 6.918516e-02 6.682790e-02 6.230711e-02 6.064061e-02 5.668600e-02 5.567412e-02 5.223650e-02 5.177879e-02 4.875373e-02 4.869709e-02 4.594443e-02 4.610725e-02 4.348102e-02 4.368294e-02 4.106529e-02 4.115646e-02 3.849405e-02 3.838499e-02 3.573493e-02 3.543643e-02 3.303537e-02 3.272051e-02 3.107114e-02 3.114313e-02 3.100098e-02 3.203584e-02 3.404348e-02 3.646425e-02 4.066047e-02 4.449470e-02 
5.594910e-02 6.083340e-02 6.783259e-02 7.366855e-02 8.152702e-02 8.809951e-02 9.647845e-02 1.035689e-01 1.121659e-01 1.195522e-01 1.280852e-01 1.355406e-01 1.437390e-01 1.510339e-01 1.586368e-01 1.655430e-01 1.723021e-01 1.785990e-01 1.842842e-01 1.897659e-01 1.941726e-01 1.986561e-01 2.016136e-01 2.049459e-01 2.063249e-01 2.083899e-01 2.081092e-01 2.088333e-01 2.068646e-01 2.062204e-01 2.025924e-01 2.006010e-01 1.954010e-01 1.921334e-01 1.855094e-01 1.810871e-01 1.732497e-01 1.678471e-01 1.590762e-01 1.529255e-01 1.435833e-01 1.369873e-01 1.275454e-01 1.209018e-01 1.119861e-01 1.058261e-01 9.827016e-02 9.328870e-02 8.811977e-02 8.510520e-02 8.327379e-02 8.278835e-02 8.458809e-02 8.655917e-02 9.133955e-02 9.510768e-02 1.017364e-01 1.064981e-01 1.139304e-01 1.190281e-01 1.264979e-01 1.314638e-01 1.384489e-01 1.429607e-01 1.491088e-01 1.529444e-01 1.580185e-01 1.610251e-01 1.648707e-01 1.669478e-01 1.694741e-01 1.705641e-01 1.717335e-01 1.718172e-01 1.716390e-01 1.707333e-01 1.692593e-01 1.674160e-01 1.647364e-01 1.620409e-01 1.582805e-01 1.548491e-01 1.501619e-01 1.461383e-01 1.407021e-01 1.362524e-01 1.302617e-01 1.255672e-01 1.192265e-01 1.144767e-01 1.079921e-01 1.033765e-01 9.694858e-02 9.264867e-02 8.646446e-02 8.264554e-02 7.687008e-02 7.367181e-02 6.843780e-02 6.596165e-02 6.135618e-02 5.964914e-02 5.569844e-02 5.473657e-02 5.139525e-02 5.107671e-02 4.823144e-02 4.838900e-02 4.588270e-02 4.631514e-02 4.398598e-02 4.449676e-02 4.222024e-02 4.265225e-02 4.038086e-02 4.064697e-02 3.845206e-02 3.856931e-02 3.669161e-02 3.682462e-02 3.571526e-02 3.620639e-02 3.647020e-02 3.777408e-02 3.990555e-02 4.237852e-02 4.646363e-02 5.019946e-02 
6.187107e-02 6.667375e-02 7.360243e-02 7.933462e-02 8.716124e-02 9.363254e-02 1.020223e-01 1.090250e-01 1.176689e-01 1.249849e-01 1.335916e-01 1.409955e-01 1.492853e-01 1.565477e-01 1.642518e-01 1.711439e-01 1.780072e-01 1.843081e-01 1.900950e-01 1.955984e-01 2.001005e-01 2.046231e-01 2.076674e-01 2.110567e-01 2.125136e-01 2.146546e-01 2.144450e-01 2.152658e-01 2.133663e-01 2.128422e-01 2.092892e-01 2.074452e-01 2.023369e-01 1.992491e-01 1.927473e-01 1.885441e-01 1.808771e-01 1.757408e-01 1.672089e-01 1.613807e-01 1.523685e-01 1.461586e-01 1.371554e-01 1.309602e-01 1.225896e-01 1.169119e-01 1.099488e-01 1.053970e-01 1.007095e-01 9.790910e-02 9.622040e-02 9.558190e-02 9.708761e-02 9.856136e-02 1.027662e-01 1.058702e-01 1.118718e-01 1.159641e-01 1.228499e-01 1.273508e-01 1.343898e-01 1.388524e-01 1.455119e-01 1.496105e-01 1.555151e-01 1.590161e-01 1.639055e-01 1.666434e-01 1.703432e-01 1.722045e-01 1.746080e-01 1.755229e-01 1.765796e-01 1.765168e-01 1.762256e-01 1.751908e-01 1.735950e-01 1.716293e-01 1.688123e-01 1.659912e-01 1.620720e-01 1.585037e-01 1.536324e-01 1.494542e-01 1.438059e-01 1.391796e-01 1.329485e-01 1.280540e-01 1.214466e-01 1.164754e-01 1.097032e-01 1.048507e-01 9.812389e-02 9.358273e-02 8.710303e-02 8.305555e-02 7.700834e-02 7.361771e-02 6.816108e-02 6.555709e-02 6.080524e-02 5.906227e-02 5.506320e-02 5.417414e-02 5.088985e-02 5.075067e-02 4.805661e-02 4.847935e-02 4.619463e-02 4.694964e-02 4.488886e-02 4.575608e-02 4.378200e-02 4.459226e-02 4.265825e-02 4.332285e-02 4.150869e-02 4.204605e-02 4.059111e-02 4.115426e-02 4.046869e-02 4.135354e-02 4.194670e-02 4.352997e-02 4.581067e-02 4.840233e-02 5.247628e-02 5.619962e-02 
6.840042e-02 7.315396e-02 8.002551e-02 8.567393e-02 9.346593e-02 9.984728e-02 1.082378e-01 1.151595e-01 1.238388e-01 1.310901e-01 1.397604e-01 1.471190e-01 1.554928e-01 1.627300e-01 1.705305e-01 1.774176e-01 1.843825e-01 1.906977e-01 1.965851e-01 2.021217e-01 2.067185e-01 2.112927e-01 2.144231e-01 2.178823e-01 2.194163e-01 2.216463e-01 2.215067e-01 2.224371e-01 2.206058e-01 2.202145e-01 2.167360e-01 2.150516e-01 2.100353e-01 2.071386e-01 2.007609e-01 1.967859e-01 1.892921e-01 1.844277e-01 1.761369e-01 1.706305e-01 1.619449e-01 1.561096e-01 1.475283e-01 1.417530e-01 1.338860e-01 1.286410e-01 1.222009e-01 1.180180e-01 1.137408e-01 1.111253e-01 1.095720e-01 1.088332e-01 1.101302e-01 1.112290e-01 1.149756e-01 1.175450e-01 1.230012e-01 1.265226e-01 1.328912e-01 1.368602e-01 1.434567e-01 1.474573e-01 1.537529e-01 1.574653e-01 1.630713e-01 1.662565e-01 1.708949e-01 1.733775e-01 1.768572e-01 1.785122e-01 1.807119e-01 1.814570e-01 1.823148e-01 1.821060e-01 1.816114e-01 1.804417e-01 1.786306e-01 1.765292e-01 1.734792e-01 1.705108e-01 1.663369e-01 1.626005e-01 1.574502e-01 1.530764e-01 1.471238e-01 1.422704e-01 1.357109e-01 1.305574e-01 1.236008e-01 1.183415e-01 1.112064e-01 1.060440e-01 9.895131e-02 9.409074e-02 8.725802e-02 8.290081e-02 7.653563e-02 7.287237e-02 6.716184e-02 6.435779e-02 5.944956e-02 5.761704e-02 5.358860e-02 5.274752e-02 4.957277e-02 4.962040e-02 4.716039e-02 4.788255e-02 4.592295e-02 4.705156e-02 4.537300e-02 4.665562e-02 4.510026e-02 4.634932e-02 4.486501e-02 4.598473e-02 4.465174e-02 4.565557e-02 4.470196e-02 4.572589e-02 4.551700e-02 4.681417e-02 4.777925e-02 4.966571e-02 5.214870e-02 5.489814e-02 5.901666e-02 6.277006e-02 
7.527615e-02 8.005519e-02 8.695675e-02 9.258395e-02 1.004186e-01 1.067575e-01 1.152157e-01 1.220904e-01 1.308638e-01 1.380737e-01 1.468603e-01 1.541889e-01 1.626946e-01 1.699166e-01 1.778573e-01 1.847459e-01 1.918521e-01 1.981864e-01 2.042101e-01 2.097837e-01 2.145068e-01 2.191365e-01 2.223800e-01 2.259139e-01 2.275467e-01 2.298716e-01 2.298190e-01 2.308663e-01 2.291152e-01 2.288653e-01 2.254687e-01 2.239534e-01 2.190325e-01 2.163366e-01 2.100820e-01 2.063438e-01 1.990170e-01 1.944293e-01 1.863657e-01 1.811779e-01 1.727921e-01 1.673136e-01 1.591064e-01 1.537099e-01 1.462687e-01 1.413854e-01 1.353596e-01 1.314496e-01 1.274678e-01 1.249430e-01 1.234524e-01 1.225545e-01 1.236429e-01 1.243458e-01 1.276842e-01 1.297078e-01 1.346791e-01 1.376054e-01 1.435092e-01 1.469054e-01 1.531039e-01 1.565906e-01 1.625648e-01 1.658358e-01 1.711881e-01 1.740049e-01 1.784418e-01 1.806228e-01 1.839368e-01 1.853471e-01 1.874021e-01 1.879475e-01 1.886684e-01 1.882921e-01 1.876574e-01 1.863389e-01 1.843750e-01 1.821300e-01 1.789067e-01 1.757873e-01 1.714127e-01 1.675072e-01 1.621233e-01 1.575534e-01 1.513304e-01 1.462478e-01 1.393792e-01 1.339604e-01 1.266569e-01 1.210970e-01 1.135816e-01 1.080887e-01 1.005918e-01 9.538241e-02 8.813790e-02 8.343351e-02 7.667407e-02 7.269688e-02 6.664549e-02 6.360526e-02 5.845478e-02 5.651535e-02 5.238715e-02 5.160763e-02 4.849669e-02 4.877635e-02 4.652527e-02 4.761037e-02 4.595685e-02 4.752340e-02 4.619969e-02 4.795097e-02 4.677039e-02 4.849563e-02 4.739766e-02 4.899321e-02 4.805937e-02 4.953496e-02 4.898805e-02 5.046781e-02 5.064639e-02 5.235449e-02 5.364004e-02 5.585220e-02 5.854910e-02 6.151156e-02 6.574027e-02 6.959861e-02 
8.283727e-02 8.766305e-02 9.460664e-02 1.002282e-01 1.081064e-01 1.144139e-01 1.229349e-01 1.297711e-01 1.386322e-01 1.458086e-01 1.547062e-01 1.620134e-01 1.706479e-01 1.778646e-01 1.859448e-01 1.928460e-01 2.000948e-01 2.064603e-01 2.126224e-01 2.182460e-01 2.230973e-01 2.277958e-01 2.311532e-01 2.347749e-01 2.365062e-01 2.389389e-01 2.389710e-01 2.401474e-01 2.384727e-01 2.383754e-01 2.350556e-01 2.337192e-01 2.288876e-01 2.263998e-01 2.202612e-01 2.167636e-01 2.095950e-01 2.052825e-01 1.974334e-01 1.925553e-01 1.844494e-01 1.793088e-01 1.714440e-01 1.663963e-01 1.593352e-01 1.547756e-01 1.491107e-01 1.454414e-01 1.417146e-01 1.392781e-01 1.378520e-01 1.368422e-01 1.377734e-01 1.381711e-01 1.411766e-01 1.427609e-01 1.473115e-01 1.497404e-01 1.552138e-01 1.581153e-01 1.639187e-01 1.669508e-01 1.725803e-01 1.754542e-01 1.805093e-01 1.829910e-01 1.871675e-01 1.890720e-01 1.921492e-01 1.933333e-01 1.951625e-01 1.955207e-01 1.960154e-01 1.954774e-01 1.946068e-01 1.931374e-01 1.909201e-01 1.885208e-01 1.850203e-01 1.817298e-01 1.770493e-01 1.729441e-01 1.672220e-01 1.624152e-01 1.558200e-01 1.504576e-01 1.431829e-01 1.374394e-01 1.296985e-01 1.237709e-01 1.157925e-01 1.098947e-01 1.019193e-01 9.627888e-02 8.855598e-02 8.341365e-02 7.620049e-02 7.181085e-02 6.536813e-02 6.199266e-02 5.656702e-02 5.443907e-02 5.021277e-02 4.945458e-02 4.645896e-02 4.698311e-02 4.503947e-02 4.654069e-02 4.531933e-02 4.739655e-02 4.656242e-02 4.886013e-02 4.818740e-02 5.046458e-02 4.987906e-02 5.201975e-02 5.159886e-02 5.360469e-02 5.355994e-02 5.553992e-02 5.618031e-02 5.833106e-02 5.999480e-02 6.255842e-02 6.551761e-02 6.871883e-02 7.309743e-02 7.708599e-02 
9.075416e-02 9.570258e-02 1.027691e-01 1.084557e-01 1.164557e-01 1.227917e-01 1.314471e-01 1.382926e-01 1.473058e-01 1.544851e-01 1.635519e-01 1.708647e-01 1.796809e-01 1.869119e-01 1.951799e-01 2.021079e-01 2.095431e-01 2.159504e-01 2.222902e-01 2.279718e-01 2.329857e-01 2.377595e-01 2.412598e-01 2.449751e-01 2.468279e-01 2.493735e-01 2.495071e-01 2.508175e-01 2.492297e-01 2.492893e-01 2.460509e-01 2.448965e-01 2.401527e-01 2.378742e-01 2.318443e-01 2.285847e-01 2.215602e-01 2.175145e-01 2.098570e-01 2.052707e-01 1.974099e-01 1.925758e-01 1.850025e-01 1.802546e-01 1.735043e-01 1.692010e-01 1.638143e-01 1.603059e-01 1.567550e-01 1.543287e-01 1.529149e-01 1.517308e-01 1.524934e-01 1.525412e-01 1.552362e-01 1.563441e-01 1.605132e-01 1.624040e-01 1.674910e-01 1.698502e-01 1.753035e-01 1.778281e-01 1.831604e-01 1.855837e-01 1.903937e-01 1.924906e-01 1.964646e-01 1.980498e-01 2.009544e-01 2.018785e-01 2.035514e-01 2.036978e-01 2.040404e-01 2.033249e-01 2.022950e-01 2.006670e-01 1.982735e-01 1.957182e-01 1.920156e-01 1.885562e-01 1.836400e-01 1.793390e-01 1.733407e-01 1.682996e-01 1.613817e-01 1.557383e-01 1.480903e-01 1.420139e-01 1.338474e-01 1.275336e-01 1.190795e-01 1.127451e-01 1.042507e-01 9.813205e-02 8.986132e-02 8.421752e-02 7.645330e-02 7.157422e-02 6.462110e-02 6.083123e-02 5.500602e-02 5.263351e-02 4.820864e-02 4.747104e-02 4.454033e-02 4.537139e-02 4.372804e-02 4.573947e-02 4.495211e-02 4.762787e-02 4.726659e-02 5.017484e-02 4.996573e-02 5.283410e-02 5.269188e-02 5.539727e-02 5.540327e-02 5.794625e-02 5.831314e-02 6.079650e-02 6.182181e-02 6.442613e-02 6.642558e-02 6.937076e-02 7.259702e-02 7.609059e-02 8.066662e-02 8.485615e-02 
9.949230e-02 1.045729e-01 1.117698e-01 1.175290e-01 1.256512e-01 1.320222e-01 1.408089e-01 1.476707e-01 1.568329e-01 1.640236e-01 1.732582e-01 1.805869e-01 1.895864e-01 1.968439e-01 2.053039e-01 2.122724e-01 2.199000e-01 2.263636e-01 2.328875e-01 2.386421e-01 2.438240e-01 2.486877e-01 2.523341e-01 2.561569e-01 2.581312e-01 2.608025e-01 2.610343e-01 2.624900e-01 2.609822e-01 2.612083e-01 2.580411e-01 2.570758e-01 2.524070e-01 2.503416e-01 2.444044e-01 2.413823e-01 2.344822e-01 2.306967e-01 2.232064e-01 2.188980e-01 2.112506e-01 2.067016e-01 1.993800e-01 1.949044e-01 1.884187e-01 1.843443e-01 1.791911e-01 1.758274e-01 1.724233e-01 1.700168e-01 1.686160e-01 1.673022e-01 1.679290e-01 1.677031e-01 1.701389e-01 1.708638e-01 1.747011e-01 1.761485e-01 1.808821e-01 1.827840e-01 1.878972e-01 1.899862e-01 1.950077e-01 1.970390e-01 2.015693e-01 2.033284e-01 2.070472e-01 2.083505e-01 2.110139e-01 2.117068e-01 2.131416e-01 2.130972e-01 2.131944e-01 2.123144e-01 2.110227e-01 2.092401e-01 2.065608e-01 2.038434e-01 1.998245e-01 1.961791e-01 1.909107e-01 1.863854e-01 1.799946e-01 1.746800e-01 1.673264e-01 1.613529e-01 1.532245e-01 1.467582e-01 1.380678e-01 1.313041e-01 1.222861e-01 1.154449e-01 1.063537e-01 9.967738e-02 9.078840e-02 8.454835e-02 7.616427e-02 7.067779e-02 6.314101e-02 5.879488e-02 5.249727e-02 4.974052e-02 4.507849e-02 4.428431e-02 4.146410e-02 4.262621e-02 4.141433e-02 4.402706e-02 4.384078e-02 4.722213e-02 4.749984e-02 5.112056e-02 5.153044e-02 5.508344e-02 5.552830e-02 5.888205e-02 5.944479e-02 6.259576e-02 6.348554e-02 6.652724e-02 6.802629e-02 7.112288e-02 7.352447e-02 7.687687e-02 8.041755e-02 8.422088e-02 8.902607e-02 9.342920e-02 
1.086437e-01 1.139346e-01 1.213370e-01 1.272458e-01 1.355673e-01 1.420432e-01 1.510352e-01 1.579727e-01 1.673524e-01 1.746028e-01 1.840684e-01 1.914512e-01 2.006919e-01 2.080053e-01 2.167105e-01 2.237419e-01 2.316106e-01 2.381473e-01 2.448991e-01 2.507392e-01 2.561273e-01 2.610903e-01 2.649146e-01 2.688515e-01 2.709719e-01 2.737735e-01 2.741202e-01 2.757234e-01 2.743046e-01 2.746966e-01 2.716018e-01 2.708220e-01 2.662217e-01 2.643616e-01 2.585037e-01 2.557055e-01 2.489093e-01 2.453634e-01 2.380115e-01 2.339514e-01 2.264795e-01 2.221746e-01 2.150558e-01 2.107994e-01 2.045195e-01 2.006089e-01 1.956254e-01 1.923339e-01 1.890181e-01 1.865583e-01 1.851294e-01 1.836182e-01 1.840926e-01 1.835322e-01 1.857153e-01 1.859999e-01 1.895284e-01 1.904746e-01 1.948882e-01 1.962732e-01 2.010877e-01 2.026810e-01 2.074409e-01 2.090231e-01 2.133313e-01 2.147022e-01 2.182321e-01 2.192125e-01 2.217096e-01 2.221412e-01 2.234205e-01 2.231663e-01 2.231070e-01 2.220537e-01 2.205940e-01 2.186564e-01 2.157876e-01 2.129142e-01 2.086753e-01 2.048534e-01 1.993256e-01 1.945862e-01 1.878879e-01 1.823071e-01 1.745897e-01 1.682870e-01 1.597315e-01 1.528656e-01 1.436796e-01 1.364421e-01 1.268580e-01 1.194675e-01 1.097423e-01 1.024433e-01 9.286075e-02 8.593327e-02 7.681365e-02 7.059988e-02 6.232355e-02 5.727780e-02 5.032423e-02 4.705263e-02 4.199535e-02 4.111329e-02 3.835424e-02 3.995798e-02 3.922632e-02 4.260028e-02 4.306498e-02 4.727407e-02 4.819199e-02 5.259564e-02 5.357782e-02 5.784818e-02 5.880057e-02 6.281320e-02 6.383699e-02 6.759707e-02 6.891508e-02 7.251803e-02 7.441475e-02 7.801826e-02 8.077971e-02 8.457294e-02 8.842705e-02 9.259454e-02 9.766560e-02 1.023529e-01 
1.187995e-01 1.242986e-01 1.319084e-01 1.379647e-01 1.464830e-01 1.530639e-01 1.622579e-01 1.692748e-01 1.788711e-01 1.861890e-01 1.958883e-01 2.033369e-01 2.128257e-01 2.202099e-01 2.291706e-01 2.362821e-01 2.444040e-01 2.510321e-01 2.580239e-01 2.639675e-01 2.695719e-01 2.746510e-01 2.786595e-01 2.827255e-01 2.849930e-01 2.879377e-01 2.883944e-01 2.901556e-01 2.888149e-01 2.893809e-01 2.863422e-01 2.857528e-01 2.812001e-01 2.795461e-01 2.737420e-01 2.711638e-01 2.644411e-01 2.611245e-01 2.538753e-01 2.500465e-01 2.427080e-01 2.386244e-01 2.316612e-01 2.275983e-01 2.214749e-01 2.177067e-01 2.128488e-01 2.096213e-01 2.063653e-01 2.038668e-01 2.024050e-01 2.007395e-01 2.010814e-01 2.002561e-01 2.022232e-01 2.021549e-01 2.054147e-01 2.059536e-01 2.100786e-01 2.110379e-01 2.155681e-01 2.167483e-01 2.212407e-01 2.224456e-01 2.265044e-01 2.275480e-01 2.308412e-01 2.315494e-01 2.338136e-01 2.340252e-01 2.350654e-01 2.346337e-01 2.343198e-01 2.331162e-01 2.313781e-01 2.292982e-01 2.261201e-01 2.230916e-01 2.185063e-01 2.144966e-01 2.085794e-01 2.036019e-01 1.964663e-01 1.905837e-01 1.823766e-01 1.757001e-01 1.665997e-01 1.592839e-01 1.494968e-01 1.417323e-01 1.314926e-01 1.234976e-01 1.130658e-01 1.050831e-01 9.474769e-02 8.705356e-02 7.714022e-02 7.007774e-02 6.098080e-02 5.504025e-02 4.730081e-02 4.325126e-02 3.765949e-02 3.650791e-02 3.383280e-02 3.593890e-02 3.589981e-02 4.020368e-02 4.155665e-02 4.674097e-02 4.850005e-02 5.380622e-02 5.553500e-02 6.062795e-02 6.224651e-02 6.701233e-02 6.864088e-02 7.309015e-02 7.496011e-02 7.918583e-02 8.157861e-02 8.573023e-02 8.892263e-02 9.317957e-02 9.739316e-02 1.019341e-01 1.072969e-01 1.122697e-01 
1.294670e-01 1.352559e-01 1.431442e-01 1.494313e-01 1.582229e-01 1.649876e-01 1.744597e-01 1.816261e-01 1.915114e-01 1.989567e-01 2.089575e-01 2.165214e-01 2.263214e-01 2.338164e-01 2.430915e-01 2.503143e-01 2.587439e-01 2.654872e-01 2.727685e-01 2.788334e-01 2.846973e-01 2.899051e-01 2.941333e-01 2.983365e-01 3.007778e-01 3.038691e-01 3.044528e-01 3.063712e-01 3.051155e-01 3.058496e-01 3.028642e-01 3.024536e-01 2.979365e-01 2.964709e-01 2.907008e-01 2.883174e-01 2.816415e-01 2.785214e-01 2.713415e-01 2.677029e-01 2.604585e-01 2.565466e-01 2.496936e-01 2.457663e-01 2.397496e-01 2.360580e-01 2.312754e-01 2.280406e-01 2.247986e-01 2.221874e-01 2.206578e-01 2.187635e-01 2.189531e-01 2.177886e-01 2.195357e-01 2.190399e-01 2.220417e-01 2.220983e-01 2.259586e-01 2.264176e-01 2.307002e-01 2.313962e-01 2.356704e-01 2.364340e-01 2.403060e-01 2.409686e-01 2.441006e-01 2.444959e-01 2.466147e-01 2.465797e-01 2.474793e-01 2.468571e-01 2.463965e-01 2.450418e-01 2.431409e-01 2.409277e-01 2.375616e-01 2.343939e-01 2.295860e-01 2.254075e-01 2.192238e-01 2.140267e-01 2.065701e-01 2.003996e-01 1.918062e-01 1.847605e-01 1.751976e-01 1.674226e-01 1.570878e-01 1.487679e-01 1.378893e-01 1.292379e-01 1.180742e-01 1.093282e-01 9.816947e-02 8.959669e-02 7.877208e-02 7.070754e-02 6.061697e-02 5.356732e-02 4.479281e-02 3.968825e-02 3.327414e-02 3.171878e-02 2.909471e-02 3.196128e-02 3.283131e-02 3.834547e-02 4.071566e-02 4.700867e-02 4.961427e-02 5.586537e-02 5.827235e-02 6.418734e-02 6.636615e-02 7.186745e-02 7.398238e-02 7.910199e-02 8.141345e-02 8.625339e-02 8.905669e-02 9.376629e-02 9.734088e-02 1.020940e-01 1.066593e-01 1.116285e-01 1.173121e-01 1.226424e-01 