# vtk DataFile Version 2.0
Comment goes here
ASCII

DATASET STRUCTURED_POINTS
FIELD FieldData 1
TIME 1 1 double
0.21500000
DIMENSIONS    128   128   1

ORIGIN    0.000   0.000   0.000
SPACING   0.039062 0.039062   1.000

POINT_DATA   16384
SCALARS uMag double
LOOKUP_TABLE default

3.806677e-02 2.768369e-02 1.554857e-02 4.753484e-03 7.698419e-03 1.873431e-02 3.130715e-02 4.239832e-02 5.488556e-02 6.583622e-02 7.802500e-02 8.863388e-02 1.003102e-01 1.103761e-01 1.213307e-01 1.306586e-01 1.406931e-01 1.491005e-01 1.580340e-01 1.653578e-01 1.730332e-01 1.791352e-01 1.854251e-01 1.901977e-01 1.950087e-01 1.983791e-01 2.016556e-01 2.035878e-01 2.053135e-01 2.058096e-01 2.060075e-01 2.051063e-01 2.038365e-01 2.016113e-01 1.989677e-01 1.955215e-01 1.916265e-01 1.870869e-01 1.820859e-01 1.765988e-01 1.706530e-01 1.643763e-01 1.576559e-01 1.507526e-01 1.434302e-01 1.360626e-01 1.283065e-01 1.206304e-01 1.125992e-01 1.047595e-01 9.659671e-02 8.872371e-02 8.055478e-02 7.276148e-02 6.469060e-02 5.707121e-02 4.918007e-02 4.180936e-02 3.415675e-02 2.709029e-02 1.971290e-02 1.298800e-02 5.902094e-03 4.606660e-04 7.256629e-03 1.325148e-02 1.977365e-02 2.540740e-02 3.168282e-02 3.697248e-02 4.303511e-02 4.800546e-02 5.389210e-02 5.857322e-02 6.431966e-02 6.874445e-02 7.438183e-02 7.858364e-02 8.413523e-02 8.814546e-02 9.362403e-02 9.746977e-02 1.028754e-01 1.065771e-01 1.118958e-01 1.154650e-01 1.206676e-01 1.241049e-01 1.291470e-01 1.324402e-01 1.372624e-01 1.403853e-01 1.449143e-01 1.478261e-01 1.519762e-01 1.546217e-01 1.582975e-01 1.606081e-01 1.637071e-01 1.656030e-01 1.680196e-01 1.694126e-01 1.710417e-01 1.718391e-01 1.725803e-01 1.726892e-01 1.724511e-01 1.717826e-01 1.704864e-01 1.689605e-01 1.665439e-01 1.640934e-01 1.605134e-01 1.570878e-01 1.523231e-01 1.478914e-01 1.419440e-01 1.364971e-01 1.293935e-01 1.229458e-01 1.147371e-01 1.073276e-01 9.808943e-02 8.978158e-02 7.961388e-02 7.049555e-02 5.952107e-02 4.970363e-02 
3.967079e-02 2.989525e-02 1.931113e-02 1.254145e-02 1.407980e-02 2.222905e-02 3.359084e-02 4.416325e-02 5.631433e-02 6.706671e-02 7.911278e-02 8.961752e-02 1.012242e-01 1.112243e-01 1.221453e-01 1.314257e-01 1.414477e-01 1.498168e-01 1.587517e-01 1.660414e-01 1.737278e-01 1.797973e-01 1.861053e-01 1.908452e-01 1.956797e-01 1.990159e-01 2.023200e-01 2.042160e-01 2.059725e-01 2.064297e-01 2.066606e-01 2.057178e-01 2.044828e-01 2.022130e-01 1.996053e-01 1.961115e-01 1.922533e-01 1.876635e-01 1.826995e-01 1.771600e-01 1.712512e-01 1.649203e-01 1.582368e-01 1.512782e-01 1.439926e-01 1.365696e-01 1.288501e-01 1.211199e-01 1.131256e-01 1.052349e-01 9.711075e-02 8.919248e-02 8.106594e-02 7.323746e-02 6.521750e-02 5.758097e-02 4.976001e-02 4.240794e-02 3.487429e-02 2.791526e-02 2.081975e-02 1.455576e-02 8.832617e-03 6.614353e-03 9.840314e-03 1.488865e-02 2.093914e-02 2.637973e-02 3.250193e-02 3.772147e-02 4.371625e-02 4.865111e-02 5.450609e-02 5.916209e-02 6.489661e-02 6.929759e-02 7.493571e-02 7.911105e-02 8.467242e-02 8.865176e-02 9.414703e-02 9.795679e-02 1.033847e-01 1.070453e-01 1.123907e-01 1.159141e-01 1.211471e-01 1.245346e-01 1.296101e-01 1.328503e-01 1.377081e-01 1.407759e-01 1.453422e-01 1.481978e-01 1.523863e-01 1.549755e-01 1.586903e-01 1.609454e-01 1.640838e-01 1.659259e-01 1.683817e-01 1.697235e-01 1.713915e-01 1.721410e-01 1.729205e-01 1.729853e-01 1.727849e-01 1.720767e-01 1.708177e-01 1.692571e-01 1.668775e-01 1.643978e-01 1.608551e-01 1.574064e-01 1.526801e-01 1.482325e-01 1.423261e-01 1.368720e-01 1.298141e-01 1.233706e-01 1.152165e-01 1.078273e-01 9.866043e-02 9.039867e-02 8.033526e-02 7.131119e-02 6.051633e-02 5.090652e-02 
4.446316e-02 3.607451e-02 2.795560e-02 2.384328e-02 2.471642e-02 3.013286e-02 3.929274e-02 4.864345e-02 5.990645e-02 7.010777e-02 8.171457e-02 9.191999e-02 1.032702e-01 1.130885e-01 1.238414e-01 1.330042e-01 1.429054e-01 1.511965e-01 1.600373e-01 1.672755e-01 1.748833e-01 1.809199e-01 1.871579e-01 1.918789e-01 1.966479e-01 1.999761e-01 2.032168e-01 2.051136e-01 2.068071e-01 2.072729e-01 2.074408e-01 2.065134e-01 2.052153e-01 2.029674e-01 2.002970e-01 1.968316e-01 1.929120e-01 1.883571e-01 1.833344e-01 1.778366e-01 1.718734e-01 1.655913e-01 1.588596e-01 1.519579e-01 1.446325e-01 1.372752e-01 1.295274e-01 1.218734e-01 1.138658e-01 1.060645e-01 9.794697e-02 9.013602e-02 8.204416e-02 7.434973e-02 6.640657e-02 5.894892e-02 5.127598e-02 4.418926e-02 3.694642e-02 3.045282e-02 2.400799e-02 1.877247e-02 1.459874e-02 1.322941e-02 1.490185e-02 1.849097e-02 2.349050e-02 2.834569e-02 3.400147e-02 3.894226e-02 4.467508e-02 4.945320e-02 5.513525e-02 5.969578e-02 6.530412e-02 6.964635e-02 7.518671e-02 7.932849e-02 8.481164e-02 8.877650e-02 9.420833e-02 9.801915e-02 1.033956e-01 1.070706e-01 1.123748e-01 1.159242e-01 1.211250e-01 1.245489e-01 1.296000e-01 1.328860e-01 1.377262e-01 1.408481e-01 1.454024e-01 1.483195e-01 1.525006e-01 1.551577e-01 1.588686e-01 1.611971e-01 1.643341e-01 1.662540e-01 1.687102e-01 1.701333e-01 1.718028e-01 1.726364e-01 1.734185e-01 1.735697e-01 1.733731e-01 1.727535e-01 1.715003e-01 1.700306e-01 1.676604e-01 1.652748e-01 1.617471e-01 1.583974e-01 1.536951e-01 1.493540e-01 1.434856e-01 1.381502e-01 1.311519e-01 1.248471e-01 1.167866e-01 1.095697e-01 1.005530e-01 9.252392e-02 8.271262e-02 7.404041e-02 6.370640e-02 5.472085e-02 
5.134935e-02 4.439358e-02 3.821037e-02 3.544834e-02 3.618716e-02 4.019998e-02 4.758486e-02 5.564006e-02 6.582451e-02 7.528647e-02 8.629532e-02 9.605799e-02 1.070576e-01 1.165881e-01 1.271256e-01 1.360877e-01 1.458533e-01 1.539958e-01 1.627510e-01 1.698729e-01 1.774277e-01 1.833685e-01 1.895752e-01 1.942132e-01 1.989653e-01 2.022182e-01 2.054516e-01 2.072774e-01 2.089702e-01 2.093671e-01 2.095386e-01 2.085432e-01 2.072517e-01 2.049363e-01 2.022751e-01 1.987425e-01 1.948347e-01 1.902135e-01 1.852056e-01 1.796433e-01 1.736989e-01 1.673557e-01 1.606483e-01 1.536907e-01 1.463970e-01 1.389920e-01 1.312863e-01 1.235967e-01 1.156459e-01 1.078268e-01 9.978737e-02 9.198550e-02 8.400362e-02 7.636005e-02 6.857788e-02 6.123976e-02 5.381584e-02 4.697038e-02 4.014262e-02 3.412196e-02 2.841207e-02 2.402454e-02 2.080126e-02 1.977894e-02 2.082745e-02 2.350014e-02 2.753827e-02 3.177961e-02 3.687163e-02 4.147815e-02 4.687912e-02 5.145788e-02 5.693153e-02 6.135831e-02 6.683096e-02 7.107269e-02 7.652523e-02 8.058369e-02 8.601364e-02 8.990403e-02 9.530962e-02 9.905053e-02 1.044228e-01 1.080304e-01 1.133490e-01 1.168330e-01 1.220639e-01 1.254246e-01 1.305190e-01 1.337447e-01 1.386393e-01 1.417048e-01 1.463223e-01 1.491879e-01 1.534390e-01 1.560506e-01 1.598362e-01 1.621263e-01 1.653408e-01 1.672302e-01 1.697654e-01 1.711667e-01 1.729156e-01 1.737367e-01 1.745981e-01 1.747468e-01 1.746295e-01 1.740184e-01 1.728455e-01 1.713965e-01 1.691093e-01 1.667584e-01 1.633199e-01 1.600216e-01 1.554194e-01 1.511511e-01 1.454008e-01 1.401665e-01 1.333158e-01 1.271519e-01 1.192870e-01 1.122713e-01 1.035305e-01 9.580036e-02 8.640685e-02 7.820689e-02 6.856027e-02 6.038229e-02 
5.994801e-02 5.422425e-02 4.935125e-02 4.734719e-02 4.798104e-02 5.114803e-02 5.721192e-02 6.411296e-02 7.319357e-02 8.183634e-02 9.212077e-02 1.013439e-01 1.118690e-01 1.210368e-01 1.312501e-01 1.399610e-01 1.494939e-01 1.574580e-01 1.660372e-01 1.730305e-01 1.804445e-01 1.862918e-01 1.923794e-01 1.969494e-01 2.015953e-01 2.047993e-01 2.079336e-01 2.097255e-01 2.113227e-01 2.116979e-01 2.117756e-01 2.107691e-01 2.093852e-01 2.070685e-01 2.043168e-01 2.007927e-01 1.967977e-01 1.921952e-01 1.871056e-01 1.815731e-01 1.755555e-01 1.692546e-01 1.624858e-01 1.555848e-01 1.482461e-01 1.409145e-01 1.331854e-01 1.255898e-01 1.176439e-01 1.099453e-01 1.019483e-01 9.430229e-02 8.641394e-02 7.897680e-02 7.136056e-02 6.430494e-02 5.715483e-02 5.071066e-02 4.432010e-02 3.887414e-02 3.380008e-02 3.009269e-02 2.737528e-02 2.646285e-02 2.702937e-02 2.899522e-02 3.214940e-02 3.572607e-02 4.014464e-02 4.431146e-02 4.924829e-02 5.354266e-02 5.868639e-02 6.292426e-02 6.815263e-02 7.226660e-02 7.753340e-02 8.150609e-02 8.679362e-02 9.062927e-02 9.592677e-02 9.963751e-02 1.049303e-01 1.085284e-01 1.137922e-01 1.172849e-01 1.224825e-01 1.258683e-01 1.309482e-01 1.342144e-01 1.391103e-01 1.422309e-01 1.468629e-01 1.497972e-01 1.540731e-01 1.567661e-01 1.605843e-01 1.629673e-01 1.662198e-01 1.682126e-01 1.707890e-01 1.723032e-01 1.740951e-01 1.750377e-01 1.759432e-01 1.762217e-01 1.761501e-01 1.756769e-01 1.745527e-01 1.732507e-01 1.710183e-01 1.688255e-01 1.654523e-01 1.623267e-01 1.578074e-01 1.537318e-01 1.480920e-01 1.430796e-01 1.363821e-01 1.304837e-01 1.228377e-01 1.161548e-01 1.077363e-01 1.004470e-01 9.154329e-02 8.396298e-02 7.508122e-02 6.781202e-02 
6.949485e-02 6.475654e-02 6.086373e-02 5.938750e-02 6.004540e-02 6.272709e-02 6.791789e-02 7.392249e-02 8.207073e-02 8.993914e-02 9.952622e-02 1.081772e-01 1.182221e-01 1.269749e-01 1.368620e-01 1.452662e-01 1.545768e-01 1.623074e-01 1.707342e-01 1.775434e-01 1.848521e-01 1.905487e-01 1.965625e-01 2.010041e-01 2.055971e-01 2.086873e-01 2.117821e-01 2.134695e-01 2.150357e-01 2.153124e-01 2.153645e-01 2.142634e-01 2.128575e-01 2.104492e-01 2.076787e-01 2.040661e-01 2.000561e-01 1.953688e-01 1.902692e-01 1.846572e-01 1.786366e-01 1.722634e-01 1.655018e-01 1.585387e-01 1.512208e-01 1.438414e-01 1.361517e-01 1.285279e-01 1.206465e-01 1.129471e-01 1.050487e-01 9.744049e-02 8.969772e-02 8.235343e-02 7.494871e-02 6.806525e-02 6.121946e-02 5.505821e-02 4.909237e-02 4.405629e-02 3.949789e-02 3.621694e-02 3.383403e-02 3.297997e-02 3.328903e-02 3.482852e-02 3.737355e-02 4.044794e-02 4.430457e-02 4.808532e-02 5.259906e-02 5.661828e-02 6.145622e-02 6.549293e-02 7.050240e-02 7.446090e-02 7.957403e-02 8.341921e-02 8.860435e-02 9.232996e-02 9.756728e-02 1.011795e-01 1.064481e-01 1.099562e-01 1.152269e-01 1.186369e-01 1.238684e-01 1.271791e-01 1.323160e-01 1.355155e-01 1.404879e-01 1.435511e-01 1.482753e-01 1.511631e-01 1.555432e-01 1.582018e-01 1.621326e-01 1.644944e-01 1.678648e-01 1.698505e-01 1.725473e-01 1.740691e-01 1.759821e-01 1.769477e-01 1.779741e-01 1.782916e-01 1.783409e-01 1.779237e-01 1.769224e-01 1.756951e-01 1.735905e-01 1.714938e-01 1.682589e-01 1.652549e-01 1.608922e-01 1.569702e-01 1.515169e-01 1.467000e-01 1.402350e-01 1.345896e-01 1.272471e-01 1.208987e-01 1.128921e-01 1.060566e-01 9.772921e-02 9.077640e-02 8.270748e-02 7.629128e-02 
8.000702e-02 7.607463e-02 7.287408e-02 7.177440e-02 7.242183e-02 7.476248e-02 7.927626e-02 8.455328e-02 9.186642e-02 9.901503e-02 1.078923e-01 1.159630e-01 1.254673e-01 1.337797e-01 1.432640e-01 1.513381e-01 1.603451e-01 1.678277e-01 1.760189e-01 1.826401e-01 1.897585e-01 1.953113e-01 2.011638e-01 2.054942e-01 2.099436e-01 2.129474e-01 2.159087e-01 2.175288e-01 2.189667e-01 2.191915e-01 2.191181e-01 2.179786e-01 2.164492e-01 2.140150e-01 2.111238e-01 2.074979e-01 2.033719e-01 1.986848e-01 1.934773e-01 1.878802e-01 1.817637e-01 1.754222e-01 1.685815e-01 1.616694e-01 1.542951e-01 1.469893e-01 1.392727e-01 1.317499e-01 1.238791e-01 1.163143e-01 1.084739e-01 1.010427e-01 9.341764e-02 8.630498e-02 7.909239e-02 7.250953e-02 6.594439e-02 6.016170e-02 5.456160e-02 4.995415e-02 4.576965e-02 4.282654e-02 4.059303e-02 3.972871e-02 3.973549e-02 4.088227e-02 4.282689e-02 4.539827e-02 4.863889e-02 5.198894e-02 5.598462e-02 5.967840e-02 6.410408e-02 6.790327e-02 7.258857e-02 7.637548e-02 8.123517e-02 8.495795e-02 8.994773e-02 9.358888e-02 9.868012e-02 1.022386e-01 1.074041e-01 1.108847e-01 1.160902e-01 1.194963e-01 1.246963e-01 1.280249e-01 1.331599e-01 1.363982e-01 1.413940e-01 1.445163e-01 1.492848e-01 1.522513e-01 1.566921e-01 1.594481e-01 1.634516e-01 1.659284e-01 1.693793e-01 1.714965e-01 1.742782e-01 1.759469e-01 1.779465e-01 1.790731e-01 1.801868e-01 1.806787e-01 1.808161e-01 1.805870e-01 1.796765e-01 1.786519e-01 1.766454e-01 1.747684e-01 1.716453e-01 1.688824e-01 1.646545e-01 1.610021e-01 1.557195e-01 1.512109e-01 1.449708e-01 1.396878e-01 1.326490e-01 1.267391e-01 1.191488e-01 1.128576e-01 1.051007e-01 9.882973e-02 9.151690e-02 8.591874e-02 
9.105191e-02 8.776928e-02 8.515479e-02 8.436111e-02 8.507828e-02 8.720897e-02 9.128494e-02 9.601252e-02 1.026894e-01 1.092203e-01 1.175008e-01 1.250235e-01 1.340498e-01 1.419150e-01 1.510400e-01 1.587578e-01 1.675014e-01 1.746992e-01 1.826985e-01 1.890882e-01 1.960657e-01 2.014253e-01 2.071719e-01 2.113361e-01 2.157027e-01 2.185584e-01 2.214513e-01 2.229355e-01 2.243136e-01 2.244105e-01 2.242821e-01 2.230205e-01 2.214391e-01 2.188874e-01 2.159471e-01 2.122084e-01 2.080372e-01 2.032429e-01 1.979962e-01 1.922992e-01 1.861525e-01 1.797209e-01 1.728630e-01 1.658739e-01 1.585002e-01 1.511349e-01 1.434425e-01 1.358832e-01 1.280673e-01 1.204962e-01 1.127498e-01 1.053521e-01 9.786982e-02 9.084192e-02 8.383074e-02 7.739522e-02 7.109527e-02 6.552489e-02 6.023844e-02 5.587777e-02 5.198484e-02 4.922273e-02 4.710909e-02 4.621594e-02 4.604860e-02 4.693276e-02 4.848080e-02 5.069074e-02 5.347950e-02 5.648852e-02 6.007741e-02 6.348927e-02 6.758247e-02 7.115549e-02 7.558220e-02 7.918500e-02 8.385232e-02 8.742056e-02 9.227637e-02 9.578367e-02 1.007929e-01 1.042327e-01 1.093627e-01 1.127368e-01 1.179487e-01 1.212596e-01 1.265032e-01 1.297483e-01 1.349593e-01 1.381270e-01 1.432263e-01 1.462925e-01 1.511869e-01 1.541135e-01 1.586973e-01 1.614312e-01 1.655895e-01 1.680636e-01 1.716763e-01 1.738108e-01 1.767576e-01 1.784641e-01 1.806291e-01 1.818148e-01 1.830926e-01 1.836652e-01 1.839659e-01 1.838399e-01 1.830942e-01 1.821967e-01 1.803608e-01 1.786378e-01 1.756980e-01 1.731204e-01 1.690982e-01 1.656691e-01 1.606278e-01 1.563904e-01 1.504448e-01 1.454944e-01 1.388260e-01 1.333285e-01 1.262120e-01 1.204337e-01 1.132813e-01 1.076367e-01 1.010624e-01 9.617456e-02 
1.028419e-01 1.001230e-01 9.794526e-02 9.741035e-02 9.815647e-02 1.001377e-01 1.038412e-01 1.081242e-01 1.142297e-01 1.202171e-01 1.279154e-01 1.349238e-01 1.434437e-01 1.508715e-01 1.595832e-01 1.669455e-01 1.753574e-01 1.822713e-01 1.900018e-01 1.961655e-01 2.029190e-01 2.080976e-01 2.136501e-01 2.176679e-01 2.218586e-01 2.245945e-01 2.273216e-01 2.287067e-01 2.299238e-01 2.299387e-01 2.296514e-01 2.283226e-01 2.265839e-01 2.239793e-01 2.208844e-01 2.171074e-01 2.127872e-01 2.079703e-01 2.025843e-01 1.968823e-01 1.906110e-01 1.841941e-01 1.772322e-01 1.702804e-01 1.628300e-01 1.555278e-01 1.477932e-01 1.403268e-01 1.325108e-01 1.250674e-01 1.173708e-01 1.101409e-01 1.027652e-01 9.594987e-02 8.910516e-02 8.292716e-02 7.684634e-02 7.156357e-02 6.651612e-02 6.242462e-02 5.871091e-02 5.610348e-02 5.398774e-02 5.303410e-02 5.260652e-02 5.321562e-02 5.430365e-02 5.613545e-02 5.839448e-02 6.103190e-02 6.411542e-02 6.721271e-02 7.086413e-02 7.418851e-02 7.824579e-02 8.165880e-02 8.602660e-02 8.945381e-02 9.407487e-02 9.748120e-02 1.023152e-01 1.056878e-01 1.106974e-01 1.140340e-01 1.191757e-01 1.224764e-01 1.276952e-01 1.309563e-01 1.361831e-01 1.393925e-01 1.445426e-01 1.476760e-01 1.526500e-01 1.556692e-01 1.603552e-01 1.632064e-01 1.674831e-01 1.700981e-01 1.738392e-01 1.761371e-01 1.792170e-01 1.811076e-01 1.834066e-01 1.847956e-01 1.862062e-01 1.870001e-01 1.874323e-01 1.875454e-01 1.869324e-01 1.862924e-01 1.845954e-01 1.831507e-01 1.803638e-01 1.780896e-01 1.742450e-01 1.711507e-01 1.663258e-01 1.624639e-01 1.567905e-01 1.522681e-01 1.459481e-01 1.409445e-01 1.342735e-01 1.290664e-01 1.224691e-01 1.174691e-01 1.115406e-01 1.073229e-01 
1.150614e-01 1.128105e-01 1.110489e-01 1.107374e-01 1.115818e-01 1.134713e-01 1.169545e-01 1.208966e-01 1.265949e-01 1.321267e-01 1.393749e-01 1.459195e-01 1.540311e-01 1.610391e-01 1.694143e-01 1.764160e-01 1.845633e-01 1.911727e-01 1.986987e-01 2.046047e-01 2.111994e-01 2.161564e-01 2.215822e-01 2.254045e-01 2.294894e-01 2.320479e-01 2.346814e-01 2.359013e-01 2.370309e-01 2.368887e-01 2.365163e-01 2.350362e-01 2.332133e-01 2.304623e-01 2.272842e-01 2.233659e-01 2.189653e-01 2.140134e-01 2.085525e-01 2.027235e-01 1.963869e-01 1.898536e-01 1.828406e-01 1.757861e-01 1.683043e-01 1.609168e-01 1.531767e-01 1.456471e-01 1.378577e-01 1.303787e-01 1.227469e-01 1.155154e-01 1.082473e-01 1.014694e-01 9.477599e-02 8.867551e-02 8.278063e-02 7.760483e-02 7.274984e-02 6.876157e-02 6.519023e-02 6.262309e-02 6.052469e-02 5.949062e-02 5.891015e-02 5.931329e-02 6.010643e-02 6.166123e-02 6.355890e-02 6.591077e-02 6.863361e-02 7.147171e-02 7.480104e-02 7.790192e-02 8.169166e-02 8.491374e-02 8.907333e-02 9.233559e-02 9.680782e-02 1.000692e-01 1.048119e-01 1.080554e-01 1.130283e-01 1.162497e-01 1.214056e-01 1.246046e-01 1.298844e-01 1.330582e-01 1.383875e-01 1.415259e-01 1.468140e-01 1.498954e-01 1.550363e-01 1.580246e-01 1.628993e-01 1.657431e-01 1.702234e-01 1.728560e-01 1.768090e-01 1.791505e-01 1.824450e-01 1.844059e-01 1.869183e-01 1.884041e-01 1.900247e-01 1.909422e-01 1.915813e-01 1.918448e-01 1.914381e-01 1.909766e-01 1.894905e-01 1.882543e-01 1.856908e-01 1.836588e-01 1.800608e-01 1.772479e-01 1.727057e-01 1.691717e-01 1.638330e-01 1.596940e-01 1.537773e-01 1.492214e-01 1.430366e-01 1.383450e-01 1.323193e-01 1.278893e-01 1.225892e-01 1.189448e-01 
1.280052e-01 1.261928e-01 1.247520e-01 1.246585e-01 1.255598e-01 1.274002e-01 1.306752e-01 1.343482e-01 1.396651e-01 1.448090e-01 1.516140e-01 1.577425e-01 1.654254e-01 1.720431e-01 1.800378e-01 1.866971e-01 1.945186e-01 2.008375e-01 2.080856e-01 2.137480e-01 2.201012e-01 2.248537e-01 2.300625e-01 2.337115e-01 2.375937e-01 2.400035e-01 2.424410e-01 2.435316e-01 2.444670e-01 2.442119e-01 2.436448e-01 2.420665e-01 2.400485e-01 2.372138e-01 2.338423e-01 2.298559e-01 2.252671e-01 2.202641e-01 2.146254e-01 2.087645e-01 2.022665e-01 1.957228e-01 1.885715e-01 1.815304e-01 1.739405e-01 1.665929e-01 1.587817e-01 1.513208e-01 1.435037e-01 1.361246e-01 1.285126e-01 1.214130e-01 1.142130e-01 1.075973e-01 1.010140e-01 9.509688e-02 8.933535e-02 8.434188e-02 7.960561e-02 7.575719e-02 7.223073e-02 6.970525e-02 6.751357e-02 6.638112e-02 6.553830e-02 6.571106e-02 6.610177e-02 6.735075e-02 6.877344e-02 7.080867e-02 7.304856e-02 7.560107e-02 7.848135e-02 8.134446e-02 8.474041e-02 8.777422e-02 9.160434e-02 9.472334e-02 9.893318e-02 1.020906e-01 1.066377e-01 1.098117e-01 1.146538e-01 1.178369e-01 1.229238e-01 1.261141e-01 1.313821e-01 1.345766e-01 1.399459e-01 1.431348e-01 1.485082e-01 1.516703e-01 1.569341e-01 1.600339e-01 1.650606e-01 1.680466e-01 1.726990e-01 1.755035e-01 1.796405e-01 1.821820e-01 1.856648e-01 1.878515e-01 1.905509e-01 1.922862e-01 1.940890e-01 1.952777e-01 1.960937e-01 1.966489e-01 1.964164e-01 1.962670e-01 1.949581e-01 1.940559e-01 1.916811e-01 1.900082e-01 1.866217e-01 1.841979e-01 1.799038e-01 1.767952e-01 1.717556e-01 1.680851e-01 1.625325e-01 1.584929e-01 1.527458e-01 1.486153e-01 1.430950e-01 1.392504e-01 1.344876e-01 1.314005e-01 
1.413923e-01 1.399511e-01 1.388492e-01 1.389464e-01 1.399729e-01 1.417888e-01 1.449724e-01 1.484349e-01 1.535072e-01 1.583254e-01 1.648176e-01 1.705768e-01 1.779443e-01 1.841975e-01 1.919099e-01 1.982337e-01 2.058179e-01 2.118374e-01 2.188910e-01 2.242882e-01 2.304812e-01 2.349965e-01 2.400690e-01 2.435018e-01 2.472621e-01 2.494700e-01 2.517919e-01 2.526899e-01 2.535105e-01 2.530686e-01 2.523843e-01 2.506232e-01 2.484848e-01 2.454708e-01 2.419766e-01 2.378149e-01 2.331035e-01 2.279307e-01 2.221733e-01 2.161498e-01 2.095417e-01 2.028448e-01 1.955973e-01 1.884151e-01 1.807487e-01 1.732748e-01 1.654127e-01 1.578437e-01 1.500064e-01 1.425406e-01 1.349430e-01 1.277814e-01 1.206311e-01 1.139792e-01 1.074760e-01 1.015453e-01 9.588033e-02 9.088420e-02 8.623457e-02 8.237134e-02 7.888335e-02 7.629988e-02 7.405920e-02 7.280140e-02 7.180226e-02 7.178247e-02 7.192289e-02 7.293733e-02 7.405379e-02 7.584481e-02 7.776466e-02 8.008632e-02 8.266545e-02 8.532105e-02 8.845577e-02 9.130643e-02 9.492734e-02 9.788456e-02 1.019436e-01 1.049569e-01 1.094144e-01 1.124592e-01 1.172731e-01 1.203407e-01 1.254589e-01 1.285479e-01 1.339032e-01 1.370124e-01 1.425197e-01 1.456423e-01 1.511974e-01 1.543156e-01 1.597967e-01 1.628784e-01 1.681491e-01 1.711456e-01 1.760595e-01 1.789053e-01 1.833124e-01 1.859273e-01 1.896815e-01 1.919739e-01 1.949404e-01 1.968133e-01 1.988760e-01 2.002334e-01 2.013019e-01 2.020562e-01 2.020717e-01 2.021517e-01 2.010919e-01 2.004502e-01 1.983344e-01 1.969549e-01 1.938481e-01 1.917540e-01 1.877725e-01 1.850339e-01 1.803525e-01 1.770959e-01 1.719578e-01 1.683767e-01 1.631042e-01 1.594695e-01 1.544735e-01 1.511391e-01 1.469144e-01 1.443042e-01 
1.555632e-01 1.544980e-01 1.536635e-01 1.539707e-01 1.550812e-01 1.569159e-01 1.599966e-01 1.633091e-01 1.681373e-01 1.726924e-01 1.788649e-01 1.843081e-01 1.913365e-01 1.972662e-01 2.046539e-01 2.106728e-01 2.179605e-01 2.237049e-01 2.304910e-01 2.356444e-01 2.415927e-01 2.458924e-01 2.507345e-01 2.539750e-01 2.575110e-01 2.595451e-01 2.616425e-01 2.623818e-01 2.629738e-01 2.623862e-01 2.614680e-01 2.595738e-01 2.571971e-01 2.540635e-01 2.503299e-01 2.460638e-01 2.411170e-01 2.358570e-01 2.298744e-01 2.237834e-01 2.169670e-01 2.102245e-01 2.027934e-01 1.955891e-01 1.877708e-01 1.802997e-01 1.723236e-01 1.647830e-01 1.568742e-01 1.494616e-01 1.418359e-01 1.347496e-01 1.276104e-01 1.210498e-01 1.145847e-01 1.087491e-01 1.031268e-01 9.820872e-02 9.357210e-02 8.974083e-02 8.619454e-02 8.356651e-02 8.115977e-02 7.976413e-02 7.847741e-02 7.823670e-02 7.798582e-02 7.873051e-02 7.939236e-02 8.090539e-02 8.235226e-02 8.441845e-02 8.654312e-02 8.898186e-02 9.170603e-02 9.438306e-02 9.765309e-02 1.004782e-01 1.042551e-01 1.071739e-01 1.114224e-01 1.144066e-01 1.190858e-01 1.221243e-01 1.271810e-01 1.302715e-01 1.356352e-01 1.387772e-01 1.443572e-01 1.475455e-01 1.532300e-01 1.564488e-01 1.621066e-01 1.653250e-01 1.708086e-01 1.739785e-01 1.791298e-01 1.821848e-01 1.868424e-01 1.897003e-01 1.937075e-01 1.962738e-01 1.994879e-01 2.016621e-01 2.039619e-01 2.056448e-01 2.069386e-01 2.080400e-01 2.082715e-01 2.087187e-01 2.078721e-01 2.076179e-01 2.057216e-01 2.047517e-01 2.018823e-01 2.002227e-01 1.965094e-01 1.942335e-01 1.898633e-01 1.870998e-01 1.823244e-01 1.792651e-01 1.744078e-01 1.713135e-01 1.667710e-01 1.639712e-01 1.602024e-01 1.580773e-01 
1.702439e-01 1.694997e-01 1.689726e-01 1.694623e-01 1.707281e-01 1.725873e-01 1.756678e-01 1.788613e-01 1.835670e-01 1.878997e-01 1.938784e-01 1.990423e-01 2.058521e-01 2.114838e-01 2.186593e-01 2.243855e-01 2.314822e-01 2.369505e-01 2.435694e-01 2.484657e-01 2.542661e-01 2.583250e-01 2.630311e-01 2.660424e-01 2.694461e-01 2.712579e-01 2.732202e-01 2.737402e-01 2.741897e-01 2.733835e-01 2.723130e-01 2.702003e-01 2.676618e-01 2.643100e-01 2.604071e-01 2.559243e-01 2.508041e-01 2.453307e-01 2.391752e-01 2.328758e-01 2.258928e-01 2.189486e-01 2.113629e-01 2.039655e-01 1.960109e-01 1.883569e-01 1.802684e-01 1.725568e-01 1.645640e-01 1.569939e-01 1.493150e-01 1.420861e-01 1.349228e-01 1.282343e-01 1.217675e-01 1.158157e-01 1.102001e-01 1.051703e-01 1.005277e-01 9.657681e-02 9.298655e-02 9.021695e-02 8.770581e-02 8.613741e-02 8.467561e-02 8.423280e-02 8.374328e-02 8.426917e-02 8.465030e-02 8.594430e-02 8.709588e-02 8.895583e-02 9.079670e-02 9.304853e-02 9.552151e-02 9.803197e-02 1.010989e-01 1.037758e-01 1.074083e-01 1.101943e-01 1.143635e-01 1.172282e-01 1.218965e-01 1.248280e-01 1.299423e-01 1.329396e-01 1.384267e-01 1.414922e-01 1.472563e-01 1.503887e-01 1.563103e-01 1.594985e-01 1.654365e-01 1.686543e-01 1.744498e-01 1.776528e-01 1.831358e-01 1.862606e-01 1.912579e-01 1.942236e-01 1.985688e-01 2.012811e-01 2.048238e-01 2.071810e-01 2.097960e-01 2.116968e-01 2.132919e-01 2.146439e-01 2.151659e-01 2.158945e-01 2.153339e-01 2.153908e-01 2.137853e-01 2.131560e-01 2.105932e-01 2.093044e-01 2.059248e-01 2.040509e-01 2.000518e-01 1.977208e-01 1.933600e-01 1.907592e-01 1.863579e-01 1.837364e-01 1.796764e-01 1.773398e-01 1.740472e-01 1.723382e-01 
1.858069e-01 1.854122e-01 1.851330e-01 1.858430e-01 1.872236e-01 1.891585e-01 1.922161e-01 1.953520e-01 1.999210e-01 2.040949e-01 2.098622e-01 2.148055e-01 2.213676e-01 2.267510e-01 2.336701e-01 2.391442e-01 2.459899e-01 2.512150e-01 2.575921e-01 2.622591e-01 2.678239e-01 2.716671e-01 2.761378e-01 2.789445e-01 2.821067e-01 2.837227e-01 2.854325e-01 2.857637e-01 2.859475e-01 2.849595e-01 2.836103e-01 2.813240e-01 2.784966e-01 2.749818e-01 2.707848e-01 2.661525e-01 2.607394e-01 2.551330e-01 2.486935e-01 2.422803e-01 2.350302e-01 2.279935e-01 2.201659e-01 2.126982e-01 2.045342e-01 1.968320e-01 1.885724e-01 1.808330e-01 1.727102e-01 1.651299e-01 1.573605e-01 1.501334e-01 1.429115e-01 1.362288e-01 1.297202e-01 1.237664e-01 1.181027e-01 1.130471e-01 1.083212e-01 1.043027e-01 1.005636e-01 9.766985e-02 9.492214e-02 9.316894e-02 9.137666e-02 9.070007e-02 8.979949e-02 9.006693e-02 8.998455e-02 9.102319e-02 9.169273e-02 9.332257e-02 9.469483e-02 9.675443e-02 9.879822e-02 1.011584e-01 1.038548e-01 1.064218e-01 1.097558e-01 1.124685e-01 1.164195e-01 1.192438e-01 1.237787e-01 1.267004e-01 1.317672e-01 1.347853e-01 1.403087e-01 1.434274e-01 1.493064e-01 1.525276e-01 1.586344e-01 1.619503e-01 1.681323e-01 1.715196e-01 1.776040e-01 1.810195e-01 1.868205e-01 1.902002e-01 1.955292e-01 1.987895e-01 2.034656e-01 2.065080e-01 2.103696e-01 2.130873e-01 2.160021e-01 2.182886e-01 2.201620e-01 2.219205e-01 2.227017e-01 2.238544e-01 2.235411e-01 2.240380e-01 2.226782e-01 2.225050e-01 2.201986e-01 2.193830e-01 2.162833e-01 2.149006e-01 2.112154e-01 2.093929e-01 2.053856e-01 2.033058e-01 1.992946e-01 1.971946e-01 1.935458e-01 1.917087e-01 1.888177e-01 1.875530e-01 
2.019771e-01 2.018813e-01 2.019049e-01 2.028047e-01 2.043766e-01 2.063803e-01 2.095138e-01 2.126051e-01 2.171531e-01 2.211925e-01 2.268728e-01 2.316221e-01 2.380626e-01 2.432203e-01 2.500066e-01 2.552429e-01 2.619578e-01 2.669442e-01 2.731957e-01 2.776265e-01 2.830682e-01 2.866771e-01 2.910208e-01 2.935920e-01 2.966167e-01 2.979926e-01 2.995490e-01 2.996337e-01 2.996446e-01 2.984029e-01 2.968611e-01 2.943146e-01 2.912762e-01 2.874965e-01 2.830737e-01 2.781739e-01 2.725252e-01 2.666512e-01 2.599719e-01 2.532926e-01 2.458052e-01 2.385052e-01 2.304495e-01 2.227220e-01 2.143457e-01 2.063878e-01 1.979378e-01 1.899470e-01 1.816600e-01 1.738332e-01 1.659275e-01 1.584597e-01 1.511276e-01 1.442104e-01 1.376109e-01 1.314288e-01 1.256816e-01 1.204023e-01 1.155840e-01 1.113434e-01 1.074854e-01 1.043676e-01 1.014599e-01 9.947962e-02 9.748010e-02 9.657604e-02 9.542521e-02 9.547143e-02 9.510969e-02 9.594108e-02 9.632189e-02 9.776425e-02 9.885986e-02 1.007540e-01 1.025532e-01 1.047689e-01 1.072696e-01 1.097101e-01 1.129101e-01 1.155108e-01 1.193989e-01 1.221229e-01 1.266715e-01 1.295040e-01 1.346633e-01 1.376047e-01 1.432982e-01 1.463565e-01 1.524783e-01 1.556607e-01 1.620743e-01 1.653794e-01 1.719202e-01 1.753306e-01 1.818113e-01 1.852889e-01 1.915080e-01 1.949925e-01 2.007459e-01 2.041554e-01 2.092490e-01 2.124847e-01 2.167469e-01 2.196998e-01 2.229925e-01 2.255523e-01 2.277800e-01 2.298455e-01 2.309611e-01 2.324502e-01 2.324586e-01 2.333178e-01 2.322771e-01 2.324897e-01 2.305115e-01 2.301034e-01 2.273522e-01 2.263972e-01 2.230895e-01 2.217119e-01 2.181148e-01 2.164907e-01 2.129182e-01 2.112719e-01 2.080753e-01 2.066698e-01 2.042176e-01 2.033339e-01 
2.191508e-01 2.194013e-01 2.196752e-01 2.208191e-01 2.225432e-01 2.246786e-01 2.278610e-01 2.309770e-01 2.354825e-01 2.394583e-01 2.450278e-01 2.496503e-01 2.559364e-01 2.609279e-01 2.675355e-01 2.725848e-01 2.791076e-01 2.838969e-01 2.899462e-01 2.941749e-01 2.994016e-01 3.028043e-01 3.069153e-01 3.092754e-01 3.120447e-01 3.132042e-01 3.144792e-01 3.143426e-01 3.140461e-01 3.125805e-01 3.107076e-01 3.079385e-01 3.045507e-01 3.005542e-01 2.957707e-01 2.906649e-01 2.846528e-01 2.785876e-01 2.715517e-01 2.646994e-01 2.568716e-01 2.494187e-01 2.410480e-01 2.331878e-01 2.245300e-01 2.164578e-01 2.077650e-01 1.996751e-01 1.911858e-01 1.832695e-01 1.751987e-01 1.676439e-01 1.601740e-01 1.531640e-01 1.464371e-01 1.401465e-01 1.342599e-01 1.288461e-01 1.238506e-01 1.194406e-01 1.153448e-01 1.120186e-01 1.087976e-01 1.065739e-01 1.041835e-01 1.030147e-01 1.014077e-01 1.011879e-01 1.003276e-01 1.009126e-01 1.007813e-01 1.020131e-01 1.026118e-01 1.043399e-01 1.056834e-01 1.077791e-01 1.098863e-01 1.122493e-01 1.151341e-01 1.176942e-01 1.213567e-01 1.240720e-01 1.284919e-01 1.313447e-01 1.364759e-01 1.394670e-01 1.452327e-01 1.483733e-01 1.546632e-01 1.579659e-01 1.646347e-01 1.681034e-01 1.749729e-01 1.785947e-01 1.854596e-01 1.891991e-01 1.958373e-01 1.996332e-01 2.058194e-01 2.095863e-01 2.151066e-01 2.187396e-01 2.234066e-01 2.267892e-01 2.304547e-01 2.334688e-01 2.360337e-01 2.385709e-01 2.399909e-01 2.419637e-01 2.422519e-01 2.436034e-01 2.428303e-01 2.435424e-01 2.418336e-01 2.419322e-01 2.394657e-01 2.390244e-01 2.360271e-01 2.351686e-01 2.319124e-01 2.308074e-01 2.276027e-01 2.264645e-01 2.236487e-01 2.227224e-01 2.206395e-01 2.201819e-01 