# vtk DataFile Version 2.0
Comment goes here
ASCII

DATASET STRUCTURED_POINTS
FIELD FieldData 1
TIME 1 1 double
0.23500000
DIMENSIONS    128   128   1

ORIGIN    0.000   0.000   0.000
SPACING   0.039062 0.039062   1.000

POINT_DATA   16384
SCALARS uMag double
LOOKUP_TABLE default

7.532724e-02 6.461931e-02 5.363810e-02 4.245948e-02 3.101317e-02 1.954153e-02 7.816095e-03 3.758120e-03 1.556706e-02 2.704485e-02 3.873660e-02 4.991541e-02 6.128933e-02 7.196874e-02 8.283003e-02 9.281785e-02 1.029837e-01 1.121023e-01 1.214078e-01 1.295007e-01 1.378049e-01 1.447419e-01 1.519328e-01 1.576150e-01 1.636130e-01 1.679764e-01 1.727371e-01 1.757536e-01 1.792682e-01 1.809461e-01 1.832397e-01 1.836214e-01 1.847503e-01 1.839091e-01 1.839558e-01 1.819906e-01 1.810582e-01 1.780877e-01 1.762933e-01 1.724496e-01 1.699176e-01 1.653396e-01 1.621945e-01 1.570220e-01 1.533828e-01 1.477504e-01 1.437254e-01 1.377580e-01 1.334405e-01 1.272497e-01 1.227157e-01 1.163971e-01 1.117034e-01 1.053351e-01 1.005195e-01 9.416167e-02 8.924403e-02 8.293951e-02 7.792370e-02 7.169927e-02 6.657604e-02 6.044437e-02 5.519474e-02 4.915687e-02 4.375575e-02 3.780381e-02 3.222373e-02 2.634378e-02 2.055842e-02 1.473329e-02 8.720688e-03 2.932662e-03 3.322046e-03 9.088846e-03 1.559123e-02 2.134870e-02 2.809339e-02 3.384769e-02 4.081733e-02 4.656734e-02 5.373193e-02 5.946811e-02 6.678480e-02 7.248817e-02 7.990137e-02 8.554274e-02 9.298447e-02 9.852387e-02 1.059143e-01 1.113007e-01 1.185492e-01 1.237202e-01 1.307262e-01 1.356089e-01 1.422638e-01 1.467755e-01 1.529641e-01 1.570138e-01 1.626176e-01 1.661084e-01 1.710078e-01 1.738397e-01 1.779179e-01 1.799911e-01 1.831375e-01 1.843562e-01 1.864703e-01 1.867466e-01 1.877415e-01 1.869993e-01 1.868051e-01 1.849836e-01 1.835500e-01 1.806068e-01 1.779056e-01 1.738190e-01 1.698455e-01 1.646168e-01 1.593906e-01 1.530449e-01 1.466106e-01 1.391975e-01 1.316241e-01 1.232177e-01 1.145982e-01 1.052966e-01 9.574669e-02 8.567080e-02 
7.605972e-02 6.549953e-02 5.470771e-02 4.385342e-02 3.293845e-02 2.258735e-02 1.391709e-02 1.235316e-02 1.965949e-02 2.969872e-02 4.071937e-02 5.153484e-02 6.267906e-02 7.320211e-02 8.395575e-02 9.385798e-02 1.039654e-01 1.130298e-01 1.223008e-01 1.303552e-01 1.386375e-01 1.455444e-01 1.527200e-01 1.583765e-01 1.643626e-01 1.687021e-01 1.734520e-01 1.764454e-01 1.799487e-01 1.816033e-01 1.838843e-01 1.842422e-01 1.853564e-01 1.844906e-01 1.845204e-01 1.825298e-01 1.815781e-01 1.785817e-01 1.767656e-01 1.728958e-01 1.703399e-01 1.657361e-01 1.625653e-01 1.573677e-01 1.537015e-01 1.480454e-01 1.439925e-01 1.380035e-01 1.336580e-01 1.274483e-01 1.228867e-01 1.165527e-01 1.118326e-01 1.054533e-01 1.006134e-01 9.424991e-02 8.931091e-02 8.300748e-02 7.797447e-02 7.175972e-02 6.662536e-02 6.051504e-02 5.526374e-02 4.926464e-02 4.387859e-02 3.799564e-02 3.246626e-02 2.672152e-02 2.108905e-02 1.561732e-02 1.028418e-02 6.574882e-03 7.021728e-03 1.121582e-02 1.704703e-02 2.253974e-02 2.909384e-02 3.474664e-02 4.163154e-02 4.732511e-02 5.444412e-02 6.014141e-02 6.743100e-02 7.310381e-02 8.049982e-02 8.611528e-02 9.354547e-02 9.906204e-02 1.064442e-01 1.118102e-01 1.190522e-01 1.242050e-01 1.312053e-01 1.360721e-01 1.427214e-01 1.472194e-01 1.534022e-01 1.574406e-01 1.630380e-01 1.665197e-01 1.714121e-01 1.742371e-01 1.783076e-01 1.803761e-01 1.835141e-01 1.847302e-01 1.868354e-01 1.871111e-01 1.880969e-01 1.873562e-01 1.871530e-01 1.853351e-01 1.838930e-01 1.809557e-01 1.782472e-01 1.741694e-01 1.701905e-01 1.649741e-01 1.597458e-01 1.534172e-01 1.469856e-01 1.395964e-01 1.320334e-01 1.236613e-01 1.150646e-01 1.058145e-01 9.630915e-02 8.631572e-02 
7.884258e-02 6.870881e-02 5.849390e-02 4.847851e-02 3.883415e-02 3.050834e-02 2.467267e-02 2.375441e-02 2.812886e-02 3.581608e-02 4.528480e-02 5.517388e-02 6.563438e-02 7.571796e-02 8.610073e-02 9.575696e-02 1.056331e-01 1.145445e-01 1.236574e-01 1.316093e-01 1.397764e-01 1.466106e-01 1.536981e-01 1.593005e-01 1.652166e-01 1.695139e-01 1.742069e-01 1.771657e-01 1.806218e-01 1.822470e-01 1.844887e-01 1.848208e-01 1.859026e-01 1.850137e-01 1.850174e-01 1.830061e-01 1.820344e-01 1.790198e-01 1.771900e-01 1.733047e-01 1.707414e-01 1.661255e-01 1.629539e-01 1.577483e-01 1.540880e-01 1.484287e-01 1.443887e-01 1.384022e-01 1.340766e-01 1.278763e-01 1.233416e-01 1.170249e-01 1.123388e-01 1.059862e-01 1.011876e-01 9.486212e-02 8.997242e-02 8.372087e-02 7.874690e-02 7.260221e-02 6.754029e-02 6.152578e-02 5.636832e-02 5.050546e-02 4.525275e-02 3.957831e-02 3.426720e-02 2.888409e-02 2.369012e-02 1.898007e-02 1.474161e-02 1.243052e-02 1.245130e-02 1.520633e-02 1.974892e-02 2.464256e-02 3.065188e-02 3.606145e-02 4.266640e-02 4.824167e-02 5.519556e-02 6.082924e-02 6.801462e-02 7.365198e-02 8.098104e-02 8.657734e-02 9.396582e-02 9.947355e-02 1.068324e-01 1.121966e-01 1.194293e-01 1.245856e-01 1.315877e-01 1.364620e-01 1.431221e-01 1.476311e-01 1.538318e-01 1.578842e-01 1.635053e-01 1.670038e-01 1.719245e-01 1.747689e-01 1.788714e-01 1.809618e-01 1.841348e-01 1.853755e-01 1.875183e-01 1.878216e-01 1.888473e-01 1.881377e-01 1.879770e-01 1.861945e-01 1.847985e-01 1.819019e-01 1.792442e-01 1.752142e-01 1.712930e-01 1.661341e-01 1.609733e-01 1.547156e-01 1.483663e-01 1.410677e-01 1.336095e-01 1.253577e-01 1.169019e-01 1.078205e-01 9.851785e-02 8.877885e-02 
8.291686e-02 7.339618e-02 6.394031e-02 5.499486e-02 4.673609e-02 4.018604e-02 3.600227e-02 3.550069e-02 3.862599e-02 4.463946e-02 5.259933e-02 6.139701e-02 7.099664e-02 8.046835e-02 9.035017e-02 9.963760e-02 1.091991e-01 1.178695e-01 1.267709e-01 1.345535e-01 1.425697e-01 1.492765e-01 1.562500e-01 1.617498e-01 1.675748e-01 1.717841e-01 1.763999e-01 1.792788e-01 1.826661e-01 1.842156e-01 1.863930e-01 1.866514e-01 1.876714e-01 1.867096e-01 1.866528e-01 1.845694e-01 1.835383e-01 1.804526e-01 1.785647e-01 1.746107e-01 1.719911e-01 1.673101e-01 1.640851e-01 1.588198e-01 1.551102e-01 1.493987e-01 1.453146e-01 1.392857e-01 1.349226e-01 1.286921e-01 1.241278e-01 1.177960e-01 1.130898e-01 1.067400e-01 1.019326e-01 9.563158e-02 9.074685e-02 8.454643e-02 7.959499e-02 7.353540e-02 6.852028e-02 6.263682e-02 5.756322e-02 5.189892e-02 4.679339e-02 4.142749e-02 3.638519e-02 3.151002e-02 2.683845e-02 2.299680e-02 1.967419e-02 1.827744e-02 1.834369e-02 2.055416e-02 2.416805e-02 2.847624e-02 3.386942e-02 3.895127e-02 4.519386e-02 5.057642e-02 5.730682e-02 6.281539e-02 6.985722e-02 7.540623e-02 8.264156e-02 8.817158e-02 9.549944e-02 1.009556e-01 1.082769e-01 1.136005e-01 1.208123e-01 1.259371e-01 1.329304e-01 1.377814e-01 1.444415e-01 1.489348e-01 1.551422e-01 1.591861e-01 1.648184e-01 1.683157e-01 1.732508e-01 1.761010e-01 1.802199e-01 1.823230e-01 1.855140e-01 1.867742e-01 1.889363e-01 1.892661e-01 1.903130e-01 1.896373e-01 1.895006e-01 1.877602e-01 1.863926e-01 1.835481e-01 1.809257e-01 1.769601e-01 1.730846e-01 1.680062e-01 1.629068e-01 1.567517e-01 1.504872e-01 1.433225e-01 1.359847e-01 1.279139e-01 1.196345e-01 1.108082e-01 1.017751e-01 9.241713e-02 
8.875037e-02 7.994860e-02 7.134874e-02 6.346945e-02 5.642244e-02 5.113157e-02 4.784441e-02 4.746046e-02 4.975950e-02 5.454614e-02 6.115446e-02 6.885350e-02 7.746773e-02 8.621710e-02 9.544582e-02 1.042648e-01 1.133815e-01 1.217360e-01 1.303204e-01 1.378798e-01 1.456595e-01 1.522008e-01 1.589907e-01 1.643616e-01 1.700387e-01 1.741422e-01 1.786350e-01 1.814229e-01 1.847052e-01 1.861731e-01 1.882594e-01 1.884422e-01 1.893824e-01 1.883497e-01 1.882232e-01 1.860727e-01 1.849817e-01 1.818332e-01 1.798954e-01 1.758838e-01 1.732250e-01 1.684933e-01 1.652403e-01 1.599331e-01 1.562075e-01 1.504650e-01 1.463779e-01 1.403314e-01 1.359787e-01 1.297467e-01 1.252070e-01 1.188926e-01 1.142258e-01 1.079157e-01 1.031634e-01 9.692853e-02 9.211641e-02 8.601384e-02 8.115583e-02 7.523380e-02 7.033947e-02 6.464586e-02 5.973304e-02 5.433189e-02 4.945137e-02 4.445724e-02 3.974816e-02 3.540460e-02 3.122957e-02 2.807897e-02 2.529529e-02 2.431869e-02 2.421309e-02 2.601521e-02 2.882107e-02 3.258891e-02 3.729535e-02 4.202065e-02 4.779940e-02 5.296475e-02 5.938782e-02 6.476119e-02 7.159800e-02 7.706041e-02 8.416002e-02 8.963388e-02 9.687535e-02 1.022958e-01 1.095675e-01 1.148702e-01 1.220605e-01 1.271761e-01 1.341701e-01 1.390217e-01 1.457000e-01 1.502027e-01 1.564421e-01 1.605036e-01 1.661788e-01 1.697012e-01 1.746875e-01 1.775702e-01 1.817468e-01 1.838897e-01 1.871433e-01 1.884507e-01 1.906798e-01 1.910646e-01 1.921827e-01 1.915707e-01 1.915103e-01 1.898440e-01 1.885596e-01 1.858017e-01 1.832726e-01 1.794097e-01 1.756421e-01 1.706876e-01 1.657172e-01 1.597151e-01 1.536105e-01 1.466395e-01 1.395076e-01 1.316899e-01 1.236864e-01 1.152035e-01 1.065564e-01 9.768501e-02 
9.552586e-02 8.747255e-02 7.969349e-02 7.280030e-02 6.675810e-02 6.244204e-02 5.980419e-02 5.959775e-02 6.147955e-02 6.550940e-02 7.114659e-02 7.794542e-02 8.569037e-02 9.374047e-02 1.023288e-01 1.106492e-01 1.193078e-01 1.273050e-01 1.355557e-01 1.428501e-01 1.503787e-01 1.567139e-01 1.633069e-01 1.685085e-01 1.740241e-01 1.779808e-01 1.823347e-01 1.849886e-01 1.881465e-01 1.894871e-01 1.914580e-01 1.915168e-01 1.923474e-01 1.911921e-01 1.909602e-01 1.886886e-01 1.874961e-01 1.842290e-01 1.821941e-01 1.780680e-01 1.753177e-01 1.704783e-01 1.671411e-01 1.617359e-01 1.579353e-01 1.521083e-01 1.479572e-01 1.418433e-01 1.374398e-01 1.311617e-01 1.265863e-01 1.202515e-01 1.155663e-01 1.092664e-01 1.045153e-01 9.832666e-02 9.353855e-02 8.752536e-02 8.271902e-02 7.693889e-02 7.213193e-02 6.664651e-02 6.187072e-02 5.676470e-02 5.209470e-02 4.751182e-02 4.312231e-02 3.933285e-02 3.560913e-02 3.310596e-02 3.077509e-02 3.023125e-02 3.015451e-02 3.186141e-02 3.421572e-02 3.764591e-02 4.182716e-02 4.624908e-02 5.161012e-02 5.655232e-02 6.267421e-02 6.788636e-02 7.451271e-02 7.985564e-02 8.681157e-02 9.219436e-02 9.934149e-02 1.046915e-01 1.119057e-01 1.171542e-01 1.243153e-01 1.293905e-01 1.363769e-01 1.412010e-01 1.478881e-01 1.523756e-01 1.586362e-01 1.626944e-01 1.683999e-01 1.719308e-01 1.769540e-01 1.798566e-01 1.840746e-01 1.862486e-01 1.895471e-01 1.908968e-01 1.931736e-01 1.936122e-01 1.947815e-01 1.942355e-01 1.942313e-01 1.926447e-01 1.914241e-01 1.887623e-01 1.863085e-01 1.825620e-01 1.788870e-01 1.740752e-01 1.692228e-01 1.633982e-01 1.574486e-01 1.507032e-01 1.437800e-01 1.362562e-01 1.285406e-01 1.204507e-01 1.122100e-01 1.038781e-01 
1.037397e-01 9.641719e-02 8.940873e-02 8.335783e-02 7.810611e-02 7.447716e-02 7.223101e-02 7.207773e-02 7.358031e-02 7.698906e-02 8.177473e-02 8.775755e-02 9.464013e-02 1.019841e-01 1.098690e-01 1.176487e-01 1.257655e-01 1.333588e-01 1.411933e-01 1.481821e-01 1.553849e-01 1.614820e-01 1.678130e-01 1.728216e-01 1.781204e-01 1.819134e-01 1.860829e-01 1.885919e-01 1.915887e-01 1.927963e-01 1.946242e-01 1.945574e-01 1.952599e-01 1.939845e-01 1.936378e-01 1.912511e-01 1.899568e-01 1.865803e-01 1.844570e-01 1.802291e-01 1.774050e-01 1.724738e-01 1.690787e-01 1.635948e-01 1.597535e-01 1.538644e-01 1.496910e-01 1.435357e-01 1.391295e-01 1.328346e-01 1.282771e-01 1.219544e-01 1.173086e-01 1.110544e-01 1.063653e-01 1.002611e-01 9.555932e-02 8.967550e-02 8.498282e-02 7.938471e-02 7.472428e-02 6.948365e-02 6.489644e-02 6.011038e-02 5.568405e-02 5.150662e-02 4.742576e-02 4.411529e-02 4.073778e-02 3.869553e-02 3.660105e-02 3.628234e-02 3.608718e-02 3.765860e-02 3.955192e-02 4.267270e-02 4.631306e-02 5.044398e-02 5.534328e-02 6.006562e-02 6.583647e-02 7.089235e-02 7.726549e-02 8.249883e-02 8.927983e-02 9.458630e-02 1.016200e-01 1.069181e-01 1.140676e-01 1.192834e-01 1.264185e-01 1.314771e-01 1.384687e-01 1.432904e-01 1.500077e-01 1.545060e-01 1.608166e-01 1.648983e-01 1.706692e-01 1.742357e-01 1.793359e-01 1.822859e-01 1.865897e-01 1.888228e-01 1.922135e-01 1.936340e-01 1.960085e-01 1.965302e-01 1.978026e-01 1.973532e-01 1.974588e-01 1.959841e-01 1.948828e-01 1.923514e-01 1.900307e-01 1.864378e-01 1.829160e-01 1.782874e-01 1.736171e-01 1.680149e-01 1.622882e-01 1.558177e-01 1.491751e-01 1.419974e-01 1.346433e-01 1.269974e-01 1.192300e-01 1.114727e-01 
1.126034e-01 1.059733e-01 9.964931e-02 9.434296e-02 8.975096e-02 8.670382e-02 8.480383e-02 8.477013e-02 8.608048e-02 8.910631e-02 9.330640e-02 9.867755e-02 1.048806e-01 1.116243e-01 1.189025e-01 1.261805e-01 1.338034e-01 1.409974e-01 1.484390e-01 1.551098e-01 1.619978e-01 1.678347e-01 1.739071e-01 1.786939e-01 1.837728e-01 1.873679e-01 1.913432e-01 1.936677e-01 1.964874e-01 1.975170e-01 1.991786e-01 1.989365e-01 1.994800e-01 1.980302e-01 1.975305e-01 1.949704e-01 1.935288e-01 1.899816e-01 1.877182e-01 1.833251e-01 1.803697e-01 1.752824e-01 1.717673e-01 1.661411e-01 1.621937e-01 1.561810e-01 1.519181e-01 1.456634e-01 1.411869e-01 1.348224e-01 1.302164e-01 1.238598e-01 1.191896e-01 1.129431e-01 1.082564e-01 1.022080e-01 9.753821e-02 9.176529e-02 8.713833e-02 8.171437e-02 7.715948e-02 7.216568e-02 6.773281e-02 6.327592e-02 5.906378e-02 5.530191e-02 5.150045e-02 4.867199e-02 4.561192e-02 4.403744e-02 4.219224e-02 4.217547e-02 4.200229e-02 4.361364e-02 4.527097e-02 4.824946e-02 5.153074e-02 5.546735e-02 6.001267e-02 6.455529e-02 7.003199e-02 7.493908e-02 8.108790e-02 8.620158e-02 9.282181e-02 9.803259e-02 1.049590e-01 1.101813e-01 1.172674e-01 1.224247e-01 1.295318e-01 1.345482e-01 1.415402e-01 1.463354e-01 1.530756e-01 1.575632e-01 1.639140e-01 1.680008e-01 1.738247e-01 1.774120e-01 1.825745e-01 1.855608e-01 1.899332e-01 1.922177e-01 1.956815e-01 1.971685e-01 1.996199e-01 2.002234e-01 2.015768e-01 2.012254e-01 2.014181e-01 2.000596e-01 1.990550e-01 1.966610e-01 1.944516e-01 1.910220e-01 1.876332e-01 1.832005e-01 1.786945e-01 1.733299e-01 1.678113e-01 1.616333e-01 1.552589e-01 1.484458e-01 1.414411e-01 1.342534e-01 1.269410e-01 1.197573e-01 
1.227096e-01 1.167179e-01 1.110088e-01 1.063253e-01 1.022568e-01 9.963811e-02 9.795722e-02 9.796384e-02 9.905518e-02 1.017224e-01 1.053682e-01 1.101705e-01 1.157017e-01 1.218562e-01 1.284949e-01 1.352544e-01 1.423257e-01 1.490914e-01 1.560735e-01 1.623956e-01 1.689022e-01 1.744515e-01 1.802036e-01 1.847464e-01 1.895508e-01 1.929313e-01 1.966661e-01 1.987950e-01 2.013995e-01 2.022451e-01 2.037115e-01 2.032928e-01 2.036578e-01 2.020367e-01 2.013739e-01 1.986476e-01 1.970586e-01 1.933517e-01 1.909574e-01 1.864138e-01 1.833457e-01 1.781208e-01 1.745130e-01 1.687662e-01 1.647481e-01 1.586366e-01 1.543268e-01 1.480002e-01 1.435020e-01 1.370979e-01 1.324964e-01 1.261380e-01 1.214993e-01 1.152942e-01 1.106666e-01 1.047080e-01 1.001259e-01 9.449620e-02 8.998675e-02 8.476425e-02 8.035879e-02 7.562843e-02 7.137935e-02 6.724790e-02 6.325383e-02 5.986869e-02 5.630779e-02 5.387168e-02 5.103176e-02 4.978887e-02 4.805344e-02 4.820906e-02 4.794087e-02 4.952792e-02 5.088840e-02 5.371339e-02 5.660005e-02 6.034812e-02 6.450475e-02 6.887693e-02 7.402418e-02 7.879429e-02 8.468796e-02 8.969701e-02 9.613389e-02 1.012673e-01 1.080739e-01 1.132415e-01 1.202620e-01 1.253842e-01 1.324714e-01 1.374706e-01 1.444805e-01 1.492757e-01 1.560649e-01 1.605691e-01 1.669937e-01 1.711135e-01 1.770305e-01 1.806670e-01 1.859367e-01 1.889882e-01 1.934780e-01 1.958433e-01 1.994319e-01 2.010153e-01 2.035968e-01 2.043128e-01 2.058019e-01 2.055801e-01 2.059157e-01 2.047061e-01 2.038548e-01 2.016324e-01 1.995922e-01 1.963616e-01 1.931651e-01 1.889656e-01 1.846843e-01 1.795961e-01 1.743464e-01 1.684992e-01 1.624520e-01 1.560380e-01 1.494343e-01 1.427277e-01 1.359035e-01 1.292894e-01 
1.332960e-01 1.278949e-01 1.227287e-01 1.186059e-01 1.149972e-01 1.127752e-01 1.113216e-01 1.114294e-01 1.124233e-01 1.148801e-01 1.181564e-01 1.225505e-01 1.275809e-01 1.332666e-01 1.393919e-01 1.457064e-01 1.523111e-01 1.586861e-01 1.652644e-01 1.712509e-01 1.774118e-01 1.826699e-01 1.881225e-01 1.924051e-01 1.969438e-01 2.000830e-01 2.035753e-01 2.054724e-01 2.078495e-01 2.084667e-01 2.097153e-01 2.090679e-01 2.092220e-01 2.073706e-01 2.065028e-01 2.035457e-01 2.017584e-01 1.978227e-01 1.952387e-01 1.904722e-01 1.872260e-01 1.817890e-01 1.780180e-01 1.720761e-01 1.679130e-01 1.616300e-01 1.571969e-01 1.507293e-01 1.461328e-01 1.396255e-01 1.349536e-01 1.285367e-01 1.238580e-01 1.176461e-01 1.130111e-01 1.071037e-01 1.025489e-01 9.703426e-02 9.258923e-02 8.755057e-02 8.324927e-02 7.877468e-02 7.467216e-02 7.086702e-02 6.706205e-02 6.406182e-02 6.072296e-02 5.869748e-02 5.607984e-02 5.521114e-02 5.363365e-02 5.405063e-02 5.380504e-02 5.549987e-02 5.672926e-02 5.953472e-02 6.218749e-02 6.584796e-02 6.973957e-02 7.400296e-02 7.890502e-02 8.356880e-02 8.926148e-02 9.417543e-02 1.004626e-01 1.055147e-01 1.122215e-01 1.173221e-01 1.242879e-01 1.293582e-01 1.364297e-01 1.413931e-01 1.484202e-01 1.531967e-01 1.600297e-01 1.645335e-01 1.710230e-01 1.751612e-01 1.811588e-01 1.848327e-01 1.901942e-01 1.933019e-01 1.978908e-01 2.003308e-01 2.040231e-01 2.056994e-01 2.083881e-01 2.092153e-01 2.108154e-01 2.107240e-01 2.111765e-01 2.101183e-01 2.093939e-01 2.073469e-01 2.054495e-01 2.024230e-01 1.993928e-01 1.954324e-01 1.913507e-01 1.865447e-01 1.815392e-01 1.760273e-01 1.702818e-01 1.642670e-01 1.580351e-01 1.518006e-01 1.454262e-01 1.393566e-01 
1.450589e-01 1.401968e-01 1.355193e-01 1.318723e-01 1.286391e-01 1.267216e-01 1.254168e-01 1.255669e-01 1.264224e-01 1.286557e-01 1.315500e-01 1.355425e-01 1.400573e-01 1.452739e-01 1.508525e-01 1.567076e-01 1.627948e-01 1.687553e-01 1.748690e-01 1.804927e-01 1.862442e-01 1.911849e-01 1.962764e-01 2.002762e-01 2.044928e-01 2.073730e-01 2.105735e-01 2.122267e-01 2.143355e-01 2.147175e-01 2.157170e-01 2.148394e-01 2.147611e-01 2.126833e-01 2.115995e-01 2.084203e-01 2.064342e-01 2.022829e-01 1.995193e-01 1.945472e-01 1.911429e-01 1.855152e-01 1.816099e-01 1.754975e-01 1.712267e-01 1.647995e-01 1.602870e-01 1.537081e-01 1.490622e-01 1.424828e-01 1.377926e-01 1.313492e-01 1.266838e-01 1.204966e-01 1.159064e-01 1.100797e-01 1.056008e-01 1.002260e-01 9.588704e-02 9.104846e-02 8.688181e-02 8.266493e-02 7.872225e-02 7.522348e-02 7.159548e-02 6.893040e-02 6.576719e-02 6.406971e-02 6.159078e-02 6.099194e-02 5.946510e-02 6.004566e-02 5.972039e-02 6.145783e-02 6.247868e-02 6.523468e-02 6.759846e-02 7.116412e-02 7.474814e-02 7.890753e-02 8.352954e-02 8.809860e-02 9.356311e-02 9.839821e-02 1.045176e-01 1.095079e-01 1.161070e-01 1.211631e-01 1.280768e-01 1.331197e-01 1.401888e-01 1.451424e-01 1.522099e-01 1.569951e-01 1.639045e-01 1.684361e-01 1.750309e-01 1.792166e-01 1.853418e-01 1.890829e-01 1.945880e-01 1.977824e-01 2.025256e-01 2.050715e-01 2.089248e-01 2.107257e-01 2.135799e-01 2.145505e-01 2.163203e-01 2.163921e-01 2.170201e-01 2.161468e-01 2.156078e-01 2.137704e-01 2.120740e-01 2.092863e-01 2.064806e-01 2.027940e-01 1.989691e-01 1.944790e-01 1.897727e-01 1.846264e-01 1.792321e-01 1.736391e-01 1.678175e-01 1.620629e-01 1.561563e-01 1.506141e-01 
1.572299e-01 1.528681e-01 1.486299e-01 1.454255e-01 1.425417e-01 1.409280e-01 1.397998e-01 1.400488e-01 1.408621e-01 1.429813e-01 1.456365e-01 1.493562e-01 1.535063e-01 1.583695e-01 1.635335e-01 1.690168e-01 1.746913e-01 1.802956e-01 1.860232e-01 1.913175e-01 1.967159e-01 2.013520e-01 2.061200e-01 2.098325e-01 2.137481e-01 2.163500e-01 2.192646e-01 2.206410e-01 2.224733e-01 2.225751e-01 2.233034e-01 2.221399e-01 2.217942e-01 2.194246e-01 2.180775e-01 2.146027e-01 2.123596e-01 2.079126e-01 2.049014e-01 1.996390e-01 1.960004e-01 1.900942e-01 1.859726e-01 1.796011e-01 1.751361e-01 1.684777e-01 1.637976e-01 1.570238e-01 1.522407e-01 1.455117e-01 1.407179e-01 1.341785e-01 1.294458e-01 1.232236e-01 1.186043e-01 1.128097e-01 1.083410e-01 1.030699e-01 9.878072e-02 9.411894e-02 9.004125e-02 8.607193e-02 8.225519e-02 7.906612e-02 7.559503e-02 7.328333e-02 7.029403e-02 6.896184e-02 6.664698e-02 6.638150e-02 6.496980e-02 6.580809e-02 6.551201e-02 6.740843e-02 6.836044e-02 7.118417e-02 7.340229e-02 7.697136e-02 8.037234e-02 8.449878e-02 8.893768e-02 9.345721e-02 9.876388e-02 1.035446e-01 1.095448e-01 1.144828e-01 1.210062e-01 1.260168e-01 1.328981e-01 1.379062e-01 1.449831e-01 1.499161e-01 1.570270e-01 1.618089e-01 1.687917e-01 1.733396e-01 1.800318e-01 1.842549e-01 1.904953e-01 1.942957e-01 1.999280e-01 2.032034e-01 2.080810e-01 2.107289e-01 2.147201e-01 2.166437e-01 2.196374e-01 2.207510e-01 2.226621e-01 2.228976e-01 2.236712e-01 2.229836e-01 2.225989e-01 2.209721e-01 2.194451e-01 2.168968e-01 2.142835e-01 2.108702e-01 2.072699e-01 2.030931e-01 1.986530e-01 1.938662e-01 1.887882e-01 1.836052e-01 1.781550e-01 1.728600e-01 1.673763e-01 1.623309e-01 
1.706040e-01 1.667037e-01 1.628693e-01 1.600505e-01 1.574627e-01 1.560923e-01 1.550859e-01 1.553875e-01 1.561158e-01 1.580948e-01 1.604785e-01 1.639113e-01 1.676633e-01 1.721586e-01 1.768646e-01 1.819555e-01 1.871623e-01 1.923840e-01 1.976624e-01 2.025982e-01 2.075770e-01 2.118801e-01 2.162591e-01 2.196590e-01 2.232125e-01 2.255154e-01 2.280898e-01 2.291747e-01 2.306847e-01 2.304980e-01 2.309194e-01 2.294680e-01 2.288303e-01 2.261734e-01 2.245502e-01 2.207901e-01 2.182889e-01 2.135623e-01 2.103140e-01 2.047822e-01 2.009308e-01 1.947712e-01 1.904642e-01 1.838620e-01 1.792421e-01 1.723829e-01 1.675806e-01 1.606440e-01 1.557730e-01 1.489267e-01 1.440803e-01 1.374763e-01 1.327264e-01 1.264983e-01 1.218968e-01 1.161593e-01 1.117417e-01 1.065919e-01 1.023846e-01 9.790658e-02 9.393703e-02 9.020687e-02 8.651767e-02 8.360965e-02 8.027413e-02 7.826363e-02 7.539970e-02 7.435881e-02 7.213280e-02 7.211481e-02 7.072531e-02 7.174021e-02 7.137824e-02 7.337202e-02 7.417136e-02 7.702573e-02 7.903039e-02 8.258667e-02 8.575146e-02 8.984347e-02 9.405853e-02 9.853674e-02 1.036563e-01 1.083973e-01 1.142606e-01 1.191653e-01 1.256074e-01 1.305945e-01 1.374499e-01 1.424477e-01 1.495509e-01 1.544897e-01 1.616739e-01 1.664803e-01 1.735767e-01 1.781703e-01 1.850087e-01 1.892999e-01 1.957112e-01 1.996025e-01 2.054227e-01 2.088116e-01 2.138872e-01 2.166705e-01 2.208644e-01 2.229444e-01 2.261425e-01 2.274331e-01 2.295495e-01 2.299829e-01 2.309645e-01 2.304972e-01 2.303276e-01 2.289458e-01 2.276475e-01 2.253725e-01 2.230093e-01 2.199022e-01 2.165817e-01 2.127486e-01 2.086259e-01 2.042240e-01 1.995065e-01 1.947504e-01 1.897040e-01 1.848718e-01 1.798254e-01 1.752603e-01 
1.843790e-01 1.809125e-01 1.774510e-01 1.750033e-01 1.727068e-01 1.715940e-01 1.707470e-01 1.711559e-01 1.718847e-01 1.738152e-01 1.760497e-01 1.793063e-01 1.827976e-01 1.870343e-01 1.914150e-01 1.962073e-01 2.010628e-01 2.059737e-01 2.108985e-01 2.155247e-01 2.201579e-01 2.241547e-01 2.281978e-01 2.312914e-01 2.345157e-01 2.365068e-01 2.387549e-01 2.395177e-01 2.407008e-01 2.401787e-01 2.402711e-01 2.384703e-01 2.375018e-01 2.344831e-01 2.325295e-01 2.283990e-01 2.255716e-01 2.204711e-01 2.169058e-01 2.110036e-01 2.068498e-01 2.003316e-01 1.957425e-01 1.888029e-01 1.839266e-01 1.767614e-01 1.717339e-01 1.645332e-01 1.594725e-01 1.524149e-01 1.474181e-01 1.406654e-01 1.358074e-01 1.295015e-01 1.248358e-01 1.190977e-01 1.146604e-01 1.095904e-01 1.054071e-01 1.010880e-01 9.718345e-02 9.368558e-02 9.009713e-02 8.748216e-02 8.427436e-02 8.259744e-02 7.987387e-02 7.917908e-02 7.708505e-02 7.739309e-02 7.610166e-02 7.739301e-02 7.707286e-02 7.927614e-02 8.005217e-02 8.304792e-02 8.497335e-02 8.861372e-02 9.166574e-02 9.579955e-02 9.989411e-02 1.043856e-01 1.093988e-01 1.141355e-01 1.199216e-01 1.248133e-01 1.312157e-01 1.361887e-01 1.430454e-01 1.480346e-01 1.551800e-01 1.601219e-01 1.673860e-01 1.722125e-01 1.794215e-01 1.840559e-01 1.910334e-01 1.953886e-01 2.019582e-01 2.059378e-01 2.119285e-01 2.154296e-01 2.206812e-01 2.235998e-01 2.279706e-01 2.302077e-01 2.335808e-01 2.350493e-01 2.373386e-01 2.379705e-01 2.391256e-01 2.388781e-01 2.388875e-01 2.377490e-01 2.366420e-01 2.346368e-01 2.324855e-01 2.296785e-01 2.265990e-01 2.231003e-01 2.192555e-01 2.152248e-01 2.108271e-01 2.064788e-01 2.017936e-01 1.973994e-01 1.927464e-01 1.886326e-01 
1.994455e-01 1.963877e-01 1.932796e-01 1.911662e-01 1.891274e-01 1.882316e-01 1.875042e-01 1.879838e-01 1.886728e-01 1.905255e-01 1.925702e-01 1.956261e-01 1.988114e-01 2.027647e-01 2.067664e-01 2.112314e-01 2.156724e-01 2.202403e-01 2.247413e-01 2.290235e-01 2.332374e-01 2.368945e-01 2.405283e-01 2.432852e-01 2.461111e-01 2.477651e-01 2.496245e-01 2.500465e-01 2.508495e-01 2.499809e-01 2.497022e-01 2.475490e-01 2.462202e-01 2.428446e-01 2.405445e-01 2.360559e-01 2.329000e-01 2.274450e-01 2.235733e-01 2.173260e-01 2.128926e-01 2.060457e-01 2.012076e-01 1.939635e-01 1.888724e-01 1.814357e-01 1.762297e-01 1.687997e-01 1.635988e-01 1.563630e-01 1.512652e-01 1.443938e-01 1.394740e-01 1.331160e-01 1.284270e-01 1.227074e-01 1.182835e-01 1.133034e-01 1.091666e-01 1.050050e-01 1.011745e-01 9.789249e-02 9.439720e-02 9.204126e-02 8.893345e-02 8.753791e-02 8.490467e-02 8.448881e-02 8.245555e-02 8.301542e-02 8.173558e-02 8.323306e-02 8.286278e-02 8.521881e-02 8.588397e-02 8.898261e-02 9.075216e-02 9.445589e-02 9.733206e-02 1.015014e-01 1.054265e-01 1.099356e-01 1.148077e-01 1.195519e-01 1.252403e-01 1.301359e-01 1.364929e-01 1.414722e-01 1.483395e-01 1.533435e-01 1.605545e-01 1.655254e-01 1.729066e-01 1.777812e-01 1.851524e-01 1.898577e-01 1.970339e-01 2.014851e-01 2.082805e-01 2.123818e-01 2.186152e-01 2.222634e-01 2.277657e-01 2.308553e-01 2.354776e-01 2.379080e-01 2.415289e-01 2.432117e-01 2.457441e-01 2.466105e-01 2.480060e-01 2.480140e-01 2.482660e-01 2.474056e-01 2.465506e-01 2.448488e-01 2.429672e-01 2.404919e-01 2.377078e-01 2.345719e-01 2.310544e-01 2.274184e-01 2.233826e-01 2.194576e-01 2.151652e-01 2.112130e-01 2.069701e-01 2.032977e-01 
2.149486e-01 2.122808e-01 2.095089e-01 2.077270e-01 2.059550e-01 2.052990e-01 2.047356e-01 2.053404e-01 2.060721e-01 2.079309e-01 2.098996e-01 2.128571e-01 2.158681e-01 2.196447e-01 2.234019e-01 2.276386e-01 2.317914e-01 2.360989e-01 2.402862e-01 2.442866e-01 2.481715e-01 2.515279e-01 2.548206e-01 2.572565e-01 2.597289e-01 2.610384e-01 2.625306e-01 2.625820e-01 2.630037e-01 2.617379e-01 2.610648e-01 2.584893e-01 2.567559e-01 2.529370e-01 2.502270e-01 2.452797e-01 2.417146e-01 2.357926e-01 2.315196e-01 2.248058e-01 2.199862e-01 2.126833e-01 2.074815e-01 1.998035e-01 1.943776e-01 1.865414e-01 1.810361e-01 1.732540e-01 1.677943e-01 1.602669e-01 1.549554e-01 1.478650e-01 1.427801e-01 1.362855e-01 1.314824e-01 1.257156e-01 1.212293e-01 1.162943e-01 1.121457e-01 1.081191e-01 1.043237e-01 1.012581e-01 9.783829e-02 9.576584e-02 9.276355e-02 9.169781e-02 8.918601e-02 8.912076e-02 8.720712e-02 8.811125e-02 8.693010e-02 8.874139e-02 8.843283e-02 9.105581e-02 9.173808e-02 9.505011e-02 9.679578e-02 1.006609e-01 1.034854e-01 1.077706e-01 1.116344e-01 1.162224e-01 1.210414e-01 1.258368e-01 1.314954e-01 1.364240e-01 1.427849e-01 1.477888e-01 1.546998e-01 1.597294e-01 1.670263e-01 1.720325e-01 1.795403e-01 1.844671e-01 1.920012e-01 1.967809e-01 2.041493e-01 2.087003e-01 2.157083e-01 2.199359e-01 2.263933e-01 2.301936e-01 2.359226e-01 2.391883e-01 2.440332e-01 2.466614e-01 2.504970e-01 2.523972e-01 2.551358e-01 2.562382e-01 2.578342e-01 2.580966e-01 2.585492e-01 2.579629e-01 2.573165e-01 2.559108e-01 2.542546e-01 2.521003e-01 2.495669e-01 2.467790e-01 2.435442e-01 2.402838e-01 2.365654e-01 2.330408e-01 2.290975e-01 2.255619e-01 2.216886e-01 2.184322e-01 
2.318739e-01 2.295841e-01 2.271422e-01 2.256711e-01 2.241472e-01 2.237056e-01 2.232780e-01 2.239812e-01 2.247202e-01 2.265584e-01 2.284083e-01 2.312400e-01 2.340249e-01 2.375944e-01 2.410453e-01 2.450189e-01 2.488115e-01 2.528201e-01 2.566140e-01 2.602918e-01 2.637635e-01 2.667789e-01 2.696460e-01 2.717235e-01 2.737615e-01 2.746945e-01 2.757458e-01 2.754022e-01 2.753790e-01 2.737006e-01 2.725820e-01 2.695790e-01 2.674046e-01 2.631472e-01 2.600065e-01 2.546150e-01 2.506359e-01 2.442703e-01 2.396064e-01 2.324566e-01 2.272751e-01 2.195519e-01 2.140218e-01 2.059483e-01 2.002316e-01 1.920349e-01 1.862785e-01 1.781816e-01 1.725124e-01 1.647268e-01 1.592482e-01 1.519665e-01 1.467575e-01 1.401468e-01 1.352626e-01 1.294605e-01 1.249352e-01 1.200467e-01 1.158985e-01 1.119962e-01 1.082354e-01 1.053622e-01 1.020023e-01 1.001748e-01 9.724529e-02 9.645747e-02 9.401563e-02 9.423924e-02 9.237572e-02 9.355873e-02 9.239254e-02 9.445625e-02 9.411814e-02 9.695735e-02 9.756567e-02 1.010547e-01 1.026924e-01 1.066972e-01 1.093974e-01 1.137895e-01 1.175336e-01 1.222014e-01 1.269250e-01 1.317798e-01 1.373830e-01 1.423582e-01 1.487153e-01 1.537613e-01 1.607268e-01 1.658029e-01 1.732145e-01 1.782802e-01 1.859606e-01 1.909669e-01 1.987251e-01 2.036096e-01 2.112437e-01 2.159278e-01 2.232310e-01 2.276205e-01 2.343894e-01 2.383792e-01 2.444237e-01 2.479041e-01 2.530587e-01 2.559236e-01 2.600569e-01 2.622133e-01 2.652357e-01 2.666119e-01 2.684805e-01 2.690339e-01 2.697538e-01 2.694767e-01 2.691011e-01 2.680247e-01 2.666518e-01 2.648493e-01 2.626205e-01 2.602081e-01 2.573048e-01 2.544430e-01 2.510845e-01 2.479768e-01 2.444161e-01 2.413050e-01 2.378231e-01 2.349809e-01 