# vtk DataFile Version 2.0
Comment goes here
ASCII

DATASET STRUCTURED_POINTS
FIELD FieldData 1
TIME 1 1 double
0.04500000
DIMENSIONS    128   128   1

ORIGIN    0.000   0.000   0.000
SPACING   0.039062 0.039062   1.000

POINT_DATA   16384
SCALARS uMag double
LOOKUP_TABLE default

6.812728e-01 7.103689e-01 7.435171e-01 7.697722e-01 8.005082e-01 8.238405e-01 8.520312e-01 8.723380e-01 8.978264e-01 9.149834e-01 9.375888e-01 9.514517e-01 9.709724e-01 9.813797e-01 9.975980e-01 1.004377e+00 1.017065e+00 1.020037e+00 1.028966e+00 1.027957e+00 1.032904e+00 1.027751e+00 1.028509e+00 1.019071e+00 1.015458e+00 1.001622e+00 9.934886e-01 9.751786e-01 9.624160e-01 9.396017e-01 9.221443e-01 8.948445e-01 8.726763e-01 8.409634e-01 8.141194e-01 7.781217e-01 7.466897e-01 7.065930e-01 6.707140e-01 6.267617e-01 5.866304e-01 5.391229e-01 4.949887e-01 4.442831e-01 3.964503e-01 3.429595e-01 2.917894e-01 2.359814e-01 1.818943e-01 1.242916e-01 6.776799e-02 8.946535e-03 4.947050e-02 1.088831e-01 1.685881e-01 2.279157e-01 2.882421e-01 3.467644e-01 4.069889e-01 4.639493e-01 5.232988e-01 5.779144e-01 6.355769e-01 6.870514e-01 7.421910e-01 7.897315e-01 8.415058e-01 8.843420e-01 9.319236e-01 9.693291e-01 1.011929e+00 1.043244e+00 1.080137e+00 1.104791e+00 1.135338e+00 1.152874e+00 1.176546e+00 1.186636e+00 1.203038e+00 1.205500e+00 1.214383e+00 1.209192e+00 1.210463e+00 1.197755e+00 1.191487e+00 1.171554e+00 1.157978e+00 1.131264e+00 1.110764e+00 1.077841e+00 1.050936e+00 1.012490e+00 9.798129e-01 9.366129e-01 8.988836e-01 8.517530e-01 8.097505e-01 7.595374e-01 7.140680e-01 6.616155e-01 6.134832e-01 5.596022e-01 5.095819e-01 4.550287e-01 4.038433e-01 3.493023e-01 2.976052e-01 2.436766e-01 1.920408e-01 1.392353e-01 8.814756e-02 3.688592e-02 1.325245e-02 6.263542e-02 1.115036e-01 1.587506e-01 2.060993e-01 2.510197e-01 2.966599e-01 3.391176e-01 3.829072e-01 4.228068e-01 4.646376e-01 5.019118e-01 5.416959e-01 5.762929e-01 6.139507e-01 6.458233e-01 
6.824762e-01 7.114454e-01 7.445255e-01 7.706761e-01 8.013669e-01 8.246137e-01 8.527784e-01 8.730171e-01 8.984960e-01 9.156011e-01 9.382118e-01 9.520379e-01 9.715777e-01 9.819627e-01 9.982128e-01 1.004983e+00 1.017715e+00 1.020691e+00 1.029676e+00 1.028682e+00 1.033696e+00 1.028569e+00 1.029406e+00 1.020002e+00 1.016480e+00 1.002685e+00 9.946543e-01 9.763930e-01 9.637449e-01 9.409864e-01 9.236565e-01 8.964203e-01 8.743940e-01 8.427550e-01 8.160702e-01 7.801620e-01 7.489112e-01 7.089288e-01 6.732623e-01 6.294653e-01 5.895952e-01 5.423145e-01 4.985251e-01 4.481785e-01 4.008530e-01 3.479943e-01 2.977053e-01 2.432181e-01 1.911584e-01 1.374853e-01 8.955968e-02 5.939326e-02 7.657750e-02 1.237519e-01 1.784765e-01 2.354619e-01 2.942210e-01 3.518702e-01 4.113564e-01 4.678912e-01 5.268305e-01 5.812056e-01 6.386251e-01 6.899480e-01 7.449436e-01 7.923778e-01 8.440728e-01 8.868252e-01 9.343723e-01 9.717040e-01 1.014301e+00 1.045545e+00 1.082458e+00 1.107039e+00 1.137621e+00 1.155079e+00 1.178798e+00 1.188804e+00 1.205260e+00 1.207631e+00 1.216570e+00 1.211284e+00 1.212613e+00 1.199806e+00 1.193595e+00 1.173563e+00 1.160043e+00 1.133232e+00 1.112787e+00 1.079776e+00 1.052925e+00 1.014404e+00 9.817842e-01 9.385284e-01 9.008638e-01 8.537053e-01 8.117807e-01 7.615782e-01 7.162093e-01 6.638205e-01 6.158269e-01 5.620862e-01 5.122702e-01 4.579763e-01 4.071170e-01 3.530454e-01 3.019334e-01 2.489323e-01 1.985834e-01 1.481418e-01 1.014648e-01 6.236838e-02 5.164991e-02 8.007391e-02 1.219862e-01 1.662300e-01 2.118071e-01 2.556604e-01 3.005148e-01 3.424180e-01 3.857659e-01 4.253142e-01 4.668638e-01 5.038872e-01 5.434794e-01 5.778836e-01 6.154057e-01 6.471236e-01 
6.868487e-01 7.156502e-01 7.485032e-01 7.745386e-01 8.050596e-01 8.282302e-01 8.562701e-01 8.764621e-01 9.018527e-01 9.189341e-01 9.414863e-01 9.553070e-01 9.748126e-01 9.852069e-01 1.001443e+00 1.008234e+00 1.020969e+00 1.023978e+00 1.032979e+00 1.032028e+00 1.037070e+00 1.031998e+00 1.032873e+00 1.023538e+00 1.020065e+00 1.006356e+00 9.983884e-01 9.802358e-01 9.676671e-01 9.450472e-01 9.278198e-01 9.007628e-01 8.788713e-01 8.474663e-01 8.209625e-01 7.853636e-01 7.543611e-01 7.147940e-01 6.794762e-01 6.362498e-01 5.968852e-01 5.504157e-01 5.073930e-01 4.582633e-01 4.121845e-01 3.613120e-01 3.132838e-01 2.625136e-01 2.153341e-01 1.702068e-01 1.347296e-01 1.178797e-01 1.276226e-01 1.611443e-01 2.062874e-01 2.576109e-01 3.122958e-01 3.674051e-01 4.247663e-01 4.799348e-01 5.375916e-01 5.911432e-01 6.477161e-01 6.985073e-01 7.529119e-01 7.999889e-01 8.512570e-01 8.937650e-01 9.409973e-01 9.781617e-01 1.020524e+00 1.051656e+00 1.088392e+00 1.112902e+00 1.143352e+00 1.160771e+00 1.184390e+00 1.194382e+00 1.210761e+00 1.213141e+00 1.222022e+00 1.216764e+00 1.218048e+00 1.205289e+00 1.199043e+00 1.179081e+00 1.165536e+00 1.138818e+00 1.118359e+00 1.085469e+00 1.058619e+00 1.020254e+00 9.876555e-01 9.446008e-01 9.069893e-01 8.600902e-01 8.182677e-01 7.684041e-01 7.232127e-01 6.712767e-01 6.235794e-01 5.704645e-01 5.211403e-01 4.677570e-01 4.177365e-01 3.650976e-01 3.155195e-01 2.650647e-01 2.179159e-01 1.729397e-01 1.343139e-01 1.074780e-01 1.006543e-01 1.174662e-01 1.486072e-01 1.864548e-01 2.276499e-01 2.688147e-01 3.115258e-01 3.520438e-01 3.941457e-01 4.328783e-01 4.736200e-01 5.101220e-01 5.491530e-01 5.832072e-01 6.203222e-01 6.517987e-01 
6.935845e-01 7.219709e-01 7.544670e-01 7.801817e-01 8.104461e-01 8.333717e-01 8.612369e-01 8.812474e-01 9.065319e-01 9.234868e-01 9.459919e-01 9.597347e-01 9.792448e-01 9.896047e-01 1.005891e+00 1.012688e+00 1.025514e+00 1.028564e+00 1.037693e+00 1.036818e+00 1.042024e+00 1.037059e+00 1.038132e+00 1.028935e+00 1.025695e+00 1.012157e+00 1.004457e+00 9.865128e-01 9.742525e-01 9.518837e-01 9.350124e-01 9.082609e-01 8.867850e-01 8.557581e-01 8.297474e-01 7.946277e-01 7.642241e-01 7.252825e-01 6.907157e-01 6.483346e-01 6.099526e-01 5.646741e-01 5.230109e-01 4.756484e-01 4.315925e-01 3.835214e-01 3.387895e-01 2.928170e-01 2.514812e-01 2.146566e-01 1.878094e-01 1.768862e-01 1.835118e-01 2.089732e-01 2.454666e-01 2.905407e-01 3.399964e-01 3.917122e-01 4.460250e-01 4.992540e-01 5.550148e-01 6.073723e-01 6.627064e-01 7.127145e-01 7.662895e-01 8.128240e-01 8.635353e-01 9.056474e-01 9.525139e-01 9.893732e-01 1.031508e+00 1.062391e+00 1.099000e+00 1.123295e+00 1.153691e+00 1.170916e+00 1.194533e+00 1.204343e+00 1.220756e+00 1.222963e+00 1.231901e+00 1.226479e+00 1.227833e+00 1.214922e+00 1.208755e+00 1.188660e+00 1.175198e+00 1.148377e+00 1.128009e+00 1.095057e+00 1.068312e+00 1.029945e+00 9.974773e-01 9.545019e-01 9.170649e-01 8.703558e-01 8.287797e-01 7.792563e-01 7.344255e-01 6.830377e-01 6.358820e-01 5.836154e-01 5.351269e-01 4.830522e-01 4.343707e-01 3.838079e-01 3.364961e-01 2.895211e-01 2.464623e-01 2.075504e-01 1.758499e-01 1.560584e-01 1.505362e-01 1.619841e-01 1.850914e-01 2.164031e-01 2.522439e-01 2.897017e-01 3.293239e-01 3.676622e-01 4.078439e-01 4.451721e-01 4.846295e-01 5.201572e-01 5.582835e-01 5.916251e-01 6.280823e-01 6.590198e-01 
7.033798e-01 7.313316e-01 7.633306e-01 7.887288e-01 8.186256e-01 8.413264e-01 8.689284e-01 8.887872e-01 9.138950e-01 9.307580e-01 9.531587e-01 9.668594e-01 9.863263e-01 9.966867e-01 1.012981e+00 1.019816e+00 1.032694e+00 1.035815e+00 1.045035e+00 1.044262e+00 1.049592e+00 1.044761e+00 1.045990e+00 1.036962e+00 1.033909e+00 1.020581e+00 1.013105e+00 9.954198e-01 9.834267e-01 9.613813e-01 9.448331e-01 9.184892e-01 8.974109e-01 8.669047e-01 8.413935e-01 8.069486e-01 7.771873e-01 7.391350e-01 7.054161e-01 6.642315e-01 6.270034e-01 5.833774e-01 5.433436e-01 4.983394e-01 4.566861e-01 4.121059e-01 3.710607e-01 3.303479e-01 2.945657e-01 2.647738e-01 2.437452e-01 2.365263e-01 2.417065e-01 2.625668e-01 2.925772e-01 3.321031e-01 3.762329e-01 4.241747e-01 4.748820e-01 5.256982e-01 5.790193e-01 6.297974e-01 6.834350e-01 7.323747e-01 7.847427e-01 8.305341e-01 8.803755e-01 9.219595e-01 9.681973e-01 1.004675e+00 1.046358e+00 1.076963e+00 1.113253e+00 1.137344e+00 1.167519e+00 1.184594e+00 1.208063e+00 1.217767e+00 1.234085e+00 1.236221e+00 1.245101e+00 1.239642e+00 1.240965e+00 1.228052e+00 1.221872e+00 1.201815e+00 1.188357e+00 1.161623e+00 1.141275e+00 1.108473e+00 1.081774e+00 1.043635e+00 1.011252e+00 9.686068e-01 9.313178e-01 8.850713e-01 8.437413e-01 7.948572e-01 7.504235e-01 6.999173e-01 6.533900e-01 6.023501e-01 5.548503e-01 5.045166e-01 4.574001e-01 4.093785e-01 3.645720e-01 3.213824e-01 2.822506e-01 2.486058e-01 2.217131e-01 2.059337e-01 2.006489e-01 2.089637e-01 2.264067e-01 2.523128e-01 2.829420e-01 3.165229e-01 3.526082e-01 3.884399e-01 4.262476e-01 4.619149e-01 4.997190e-01 5.341013e-01 5.710341e-01 6.035599e-01 6.391334e-01 6.694777e-01 
7.154173e-01 7.427037e-01 7.740926e-01 7.989783e-01 8.284305e-01 8.507435e-01 8.780380e-01 8.976142e-01 9.225307e-01 9.392021e-01 9.615120e-01 9.751013e-01 9.945650e-01 1.004886e+00 1.021254e+00 1.028114e+00 1.041135e+00 1.044341e+00 1.053765e+00 1.053133e+00 1.058725e+00 1.054087e+00 1.055633e+00 1.046852e+00 1.044171e+00 1.031145e+00 1.024099e+00 1.006779e+00 9.952817e-01 9.736750e-01 9.577008e-01 9.318891e-01 9.114812e-01 8.816298e-01 8.569136e-01 8.232897e-01 7.944900e-01 7.574901e-01 7.249633e-01 6.851608e-01 6.494548e-01 6.076900e-01 5.696658e-01 5.272277e-01 4.883118e-01 4.473140e-01 4.100336e-01 3.741595e-01 3.431478e-01 3.186998e-01 3.015642e-01 2.966803e-01 3.008872e-01 3.188413e-01 3.440298e-01 3.790941e-01 4.183774e-01 4.627366e-01 5.097520e-01 5.580663e-01 6.087446e-01 6.578060e-01 7.095713e-01 7.573133e-01 8.083595e-01 8.532918e-01 9.022101e-01 9.431568e-01 9.887654e-01 1.024752e+00 1.066025e+00 1.096232e+00 1.132276e+00 1.156031e+00 1.186081e+00 1.202858e+00 1.226290e+00 1.235721e+00 1.252061e+00 1.253945e+00 1.262886e+00 1.257192e+00 1.258600e+00 1.245477e+00 1.239394e+00 1.219162e+00 1.205809e+00 1.178951e+00 1.158720e+00 1.125865e+00 1.099303e+00 1.061211e+00 1.029006e+00 9.865394e-01 9.494974e-01 9.036061e-01 8.626356e-01 8.143386e-01 7.704384e-01 7.208275e-01 6.750966e-01 6.253683e-01 5.790585e-01 5.306100e-01 4.852685e-01 4.399219e-01 3.977227e-01 3.581965e-01 3.226040e-01 2.932668e-01 2.698024e-01 2.566190e-01 2.513423e-01 2.576395e-01 2.710376e-01 2.926382e-01 3.186444e-01 3.484315e-01 3.808737e-01 4.139103e-01 4.490578e-01 4.827055e-01 5.185667e-01 5.514613e-01 5.869529e-01 6.183569e-01 6.528479e-01 6.823315e-01 
7.303139e-01 7.569525e-01 7.876247e-01 8.120294e-01 8.409509e-01 8.629168e-01 8.898351e-01 9.091743e-01 9.338449e-01 9.503715e-01 9.725464e-01 9.860694e-01 1.005493e+00 1.015815e+00 1.032225e+00 1.039145e+00 1.052276e+00 1.055596e+00 1.065191e+00 1.064723e+00 1.070539e+00 1.066115e+00 1.067934e+00 1.059419e+00 1.057062e+00 1.044363e+00 1.037696e+00 1.020774e+00 1.009720e+00 9.886041e-01 9.731553e-01 9.479528e-01 9.281772e-01 8.990914e-01 8.751495e-01 8.424999e-01 8.146664e-01 7.789220e-01 7.476236e-01 7.094588e-01 6.753442e-01 6.357392e-01 5.998104e-01 5.602360e-01 5.240966e-01 4.868480e-01 4.531482e-01 4.218629e-01 3.949132e-01 3.749399e-01 3.607434e-01 3.578507e-01 3.615480e-01 3.777788e-01 3.994226e-01 4.310329e-01 4.660945e-01 5.071866e-01 5.505609e-01 5.963393e-01 6.441793e-01 6.913820e-01 7.410041e-01 7.873988e-01 8.368453e-01 8.807965e-01 9.285311e-01 9.687560e-01 1.013500e+00 1.048948e+00 1.089602e+00 1.119402e+00 1.155014e+00 1.178457e+00 1.208218e+00 1.224753e+00 1.248003e+00 1.257245e+00 1.273481e+00 1.275220e+00 1.284110e+00 1.278316e+00 1.279707e+00 1.266531e+00 1.260455e+00 1.240225e+00 1.226897e+00 1.200111e+00 1.179921e+00 1.147228e+00 1.120735e+00 1.082918e+00 1.050829e+00 1.008782e+00 9.719336e-01 9.266455e-01 8.859914e-01 8.385331e-01 7.951347e-01 7.466663e-01 7.017085e-01 6.535184e-01 6.083673e-01 5.619696e-01 5.183119e-01 4.756455e-01 4.357645e-01 3.995297e-01 3.667244e-01 3.407003e-01 3.194367e-01 3.078721e-01 3.022340e-01 3.069997e-01 3.172130e-01 3.354115e-01 3.573955e-01 3.837985e-01 4.127132e-01 4.430441e-01 4.754245e-01 5.070346e-01 5.407823e-01 5.721554e-01 6.060339e-01 6.362959e-01 6.695511e-01 6.981737e-01 
7.472773e-01 7.730584e-01 8.029230e-01 8.266631e-01 8.549901e-01 8.764537e-01 9.029590e-01 9.219358e-01 9.463504e-01 9.626371e-01 9.846932e-01 9.980852e-01 1.017510e+00 1.027799e+00 1.044317e+00 1.051292e+00 1.064627e+00 1.068083e+00 1.077966e+00 1.077710e+00 1.083891e+00 1.079752e+00 1.082011e+00 1.073852e+00 1.072007e+00 1.059739e+00 1.053660e+00 1.037253e+00 1.026873e+00 1.006370e+00 9.916947e-01 9.672256e-01 9.483452e-01 9.201473e-01 8.972536e-01 8.656945e-01 8.391059e-01 8.047214e-01 7.749247e-01 7.384791e-01 7.062037e-01 6.687910e-01 6.351383e-01 5.983519e-01 5.650160e-01 5.312108e-01 5.008093e-01 4.734051e-01 4.497917e-01 4.332458e-01 4.211895e-01 4.197387e-01 4.230189e-01 4.380585e-01 4.569709e-01 4.859094e-01 5.174108e-01 5.557091e-01 5.957638e-01 6.392107e-01 6.843340e-01 7.297434e-01 7.772678e-01 8.223166e-01 8.701971e-01 9.131361e-01 9.597358e-01 9.991860e-01 1.043137e+00 1.077974e+00 1.118103e+00 1.147403e+00 1.182696e+00 1.205711e+00 1.235309e+00 1.251462e+00 1.274661e+00 1.283551e+00 1.299814e+00 1.301224e+00 1.310189e+00 1.304089e+00 1.305581e+00 1.292129e+00 1.286165e+00 1.265705e+00 1.252493e+00 1.225542e+00 1.205475e+00 1.172711e+00 1.146358e+00 1.108597e+00 1.076690e+00 1.034867e+00 9.982789e-01 9.534313e-01 9.131644e-01 8.664202e-01 8.236022e-01 7.761896e-01 7.320876e-01 6.853737e-01 6.414502e-01 5.970272e-01 5.550592e-01 5.148983e-01 4.771765e-01 4.438238e-01 4.133604e-01 3.899649e-01 3.703231e-01 3.599003e-01 3.539069e-01 3.574819e-01 3.651999e-01 3.806078e-01 3.991556e-01 4.224612e-01 4.480661e-01 4.756685e-01 5.052632e-01 5.346575e-01 5.661734e-01 5.957903e-01 6.279111e-01 6.567874e-01 6.886695e-01 7.161996e-01 
7.668372e-01 7.918241e-01 8.208166e-01 8.439587e-01 8.716383e-01 8.926682e-01 9.187190e-01 9.374014e-01 9.615281e-01 9.776397e-01 9.995522e-01 1.012872e+00 1.032278e+00 1.042585e+00 1.059191e+00 1.066262e+00 1.079778e+00 1.083400e+00 1.093543e+00 1.093519e+00 1.100030e+00 1.096186e+00 1.098838e+00 1.091041e+00 1.089653e+00 1.077821e+00 1.072268e+00 1.056385e+00 1.046610e+00 1.026742e+00 1.012770e+00 9.890765e-01 9.710268e-01 9.437859e-01 9.218866e-01 8.915203e-01 8.661379e-01 8.332505e-01 8.049323e-01 7.703716e-01 7.399187e-01 7.048700e-01 6.734566e-01 6.395852e-01 6.089389e-01 5.785727e-01 5.511966e-01 5.274557e-01 5.067336e-01 4.932952e-01 4.830482e-01 4.830721e-01 4.861714e-01 5.006140e-01 5.174462e-01 5.444104e-01 5.728896e-01 6.088332e-01 6.458014e-01 6.870985e-01 7.295024e-01 7.731529e-01 8.184463e-01 8.621219e-01 9.082440e-01 9.501302e-01 9.953837e-01 1.034029e+00 1.076978e+00 1.111196e+00 1.150602e+00 1.179419e+00 1.214213e+00 1.236843e+00 1.266117e+00 1.281957e+00 1.304963e+00 1.313597e+00 1.329760e+00 1.330962e+00 1.339890e+00 1.333629e+00 1.335124e+00 1.321564e+00 1.315623e+00 1.295121e+00 1.281942e+00 1.255033e+00 1.235008e+00 1.202394e+00 1.176102e+00 1.138627e+00 1.106819e+00 1.065451e+00 1.029034e+00 9.848482e-01 9.448720e-01 8.990419e-01 8.566931e-01 8.104964e-01 7.671118e-01 7.219649e-01 6.790763e-01 6.366022e-01 5.960257e-01 5.581553e-01 5.221133e-01 4.911685e-01 4.623482e-01 4.409159e-01 4.221751e-01 4.124358e-01 4.058175e-01 4.083381e-01 4.138416e-01 4.269396e-01 4.424453e-01 4.630689e-01 4.855962e-01 5.107192e-01 5.375970e-01 5.649118e-01 5.941708e-01 6.221142e-01 6.524114e-01 6.799658e-01 7.103976e-01 7.368959e-01 
7.882611e-01 8.122631e-01 8.403142e-01 8.626868e-01 8.896683e-01 9.101173e-01 9.356846e-01 9.539528e-01 9.777861e-01 9.936325e-01 1.015420e+00 1.028609e+00 1.048040e+00 1.058336e+00 1.075101e+00 1.082272e+00 1.096063e+00 1.099887e+00 1.110411e+00 1.110681e+00 1.117668e+00 1.114208e+00 1.117425e+00 1.110099e+00 1.109362e+00 1.098092e+00 1.093278e+00 1.078055e+00 1.069118e+00 1.050020e+00 1.036999e+00 1.014210e+00 9.972449e-01 9.710754e-01 9.504231e-01 9.213384e-01 8.974017e-01 8.660616e-01 8.394306e-01 8.067465e-01 7.782670e-01 7.454843e-01 7.163609e-01 6.851688e-01 6.571037e-01 6.297459e-01 6.050738e-01 5.843609e-01 5.660355e-01 5.550309e-01 5.461842e-01 5.473374e-01 5.502714e-01 5.642893e-01 5.794654e-01 6.049028e-01 6.308827e-01 6.648953e-01 6.991980e-01 7.386412e-01 7.786211e-01 8.206938e-01 8.639680e-01 9.063718e-01 9.509059e-01 9.917859e-01 1.035849e+00 1.073695e+00 1.115797e+00 1.149366e+00 1.188209e+00 1.216480e+00 1.250939e+00 1.273090e+00 1.302201e+00 1.317603e+00 1.340574e+00 1.348794e+00 1.365007e+00 1.365811e+00 1.374840e+00 1.368200e+00 1.369816e+00 1.355906e+00 1.350088e+00 1.329283e+00 1.316217e+00 1.289078e+00 1.269156e+00 1.236416e+00 1.210229e+00 1.172771e+00 1.141095e+00 1.099930e+00 1.063711e+00 1.019959e+00 9.802990e-01 9.351809e-01 8.933258e-01 8.481645e-01 8.055144e-01 7.617589e-01 7.198962e-01 6.791672e-01 6.399119e-01 6.040540e-01 5.695194e-01 5.406006e-01 5.131540e-01 4.932706e-01 4.752092e-01 4.659296e-01 4.587520e-01 4.603368e-01 4.639878e-01 4.750638e-01 4.879261e-01 5.060702e-01 5.257707e-01 5.484500e-01 5.727014e-01 5.978427e-01 6.248302e-01 6.509338e-01 6.793405e-01 7.053764e-01 7.342732e-01 7.595386e-01 
8.119837e-01 8.351117e-01 8.622014e-01 8.839108e-01 9.101791e-01 9.301490e-01 9.552240e-01 9.731740e-01 9.967110e-01 1.012380e+00 1.034044e+00 1.047178e+00 1.066637e+00 1.076987e+00 1.093908e+00 1.101228e+00 1.115287e+00 1.119344e+00 1.130230e+00 1.130810e+00 1.138241e+00 1.135164e+00 1.138898e+00 1.132030e+00 1.131880e+00 1.121150e+00 1.116999e+00 1.102411e+00 1.094224e+00 1.075880e+00 1.063715e+00 1.041829e+00 1.025854e+00 1.000777e+00 9.812839e-01 9.535303e-01 9.309617e-01 9.012475e-01 8.762359e-01 8.455293e-01 8.189564e-01 7.885440e-01 7.616254e-01 7.331878e-01 7.075715e-01 6.832328e-01 6.610670e-01 6.433281e-01 6.271800e-01 6.185861e-01 6.110433e-01 6.135012e-01 6.164362e-01 6.304490e-01 6.443378e-01 6.687495e-01 6.925936e-01 7.250800e-01 7.569353e-01 7.947783e-01 8.323887e-01 8.730165e-01 9.142032e-01 9.553961e-01 9.981999e-01 1.038102e+00 1.080796e+00 1.117864e+00 1.158927e+00 1.191877e+00 1.229968e+00 1.257738e+00 1.291684e+00 1.313420e+00 1.342209e+00 1.357260e+00 1.380053e+00 1.387968e+00 1.404108e+00 1.404649e+00 1.413670e+00 1.406810e+00 1.408453e+00 1.394375e+00 1.388594e+00 1.367690e+00 1.354655e+00 1.327507e+00 1.307604e+00 1.274972e+00 1.248798e+00 1.211592e+00 1.179942e+00 1.139204e+00 1.103057e+00 1.059939e+00 1.020439e+00 9.761888e-01 9.346354e-01 8.905979e-01 8.484396e-01 8.060692e-01 7.649175e-01 7.258006e-01 6.874531e-01 6.533218e-01 6.197664e-01 5.924476e-01 5.657710e-01 5.469764e-01 5.290624e-01 5.199524e-01 5.119486e-01 5.126190e-01 5.144569e-01 5.237677e-01 5.341787e-01 5.501587e-01 5.672170e-01 5.877223e-01 6.094628e-01 6.326371e-01 6.574035e-01 6.818269e-01 7.083515e-01 7.330012e-01 7.603501e-01 7.845006e-01 
8.373608e-01 8.594371e-01 8.855132e-01 9.063966e-01 9.319117e-01 9.512614e-01 9.758213e-01 9.933385e-01 1.016577e+00 1.031983e+00 1.053544e+00 1.066572e+00 1.086102e+00 1.096487e+00 1.113636e+00 1.121120e+00 1.135545e+00 1.139885e+00 1.151259e+00 1.152231e+00 1.160259e+00 1.157677e+00 1.162107e+00 1.155834e+00 1.156475e+00 1.146438e+00 1.143174e+00 1.129383e+00 1.122186e+00 1.104754e+00 1.093695e+00 1.072856e+00 1.058120e+00 1.034250e+00 1.016152e+00 9.898003e-01 9.688076e-01 9.407284e-01 9.174952e-01 8.886925e-01 8.641110e-01 8.358882e-01 8.111545e-01 7.851592e-01 7.618407e-01 7.400696e-01 7.201287e-01 7.048184e-01 6.905050e-01 6.838156e-01 6.773272e-01 6.808042e-01 6.837379e-01 6.977671e-01 7.106285e-01 7.342597e-01 7.563705e-01 7.876495e-01 8.174768e-01 8.540116e-01 8.896283e-01 9.290404e-01 9.684638e-01 1.008611e+00 1.049968e+00 1.089002e+00 1.130584e+00 1.166934e+00 1.207201e+00 1.239545e+00 1.277116e+00 1.304358e+00 1.338011e+00 1.359264e+00 1.387940e+00 1.402528e+00 1.425337e+00 1.432796e+00 1.449034e+00 1.449120e+00 1.458282e+00 1.450970e+00 1.452761e+00 1.438250e+00 1.432597e+00 1.411298e+00 1.398355e+00 1.370882e+00 1.351032e+00 1.318179e+00 1.292028e+00 1.254746e+00 1.223115e+00 1.182487e+00 1.146395e+00 1.103611e+00 1.064254e+00 1.020594e+00 9.793247e-01 9.361535e-01 8.944656e-01 8.532304e-01 8.127538e-01 7.749882e-01 7.374813e-01 7.047885e-01 6.721054e-01 6.460784e-01 6.200516e-01 6.020738e-01 5.842515e-01 5.751653e-01 5.664271e-01 5.662020e-01 5.664579e-01 5.741148e-01 5.823418e-01 5.962478e-01 6.108701e-01 6.292078e-01 6.485487e-01 6.696767e-01 6.922525e-01 7.148562e-01 7.394766e-01 7.625682e-01 7.883203e-01 8.111737e-01 
8.647212e-01 8.859023e-01 9.109882e-01 9.311930e-01 9.559801e-01 9.748481e-01 9.989213e-01 1.016134e+00 1.039105e+00 1.054365e+00 1.075855e+00 1.088876e+00 1.108509e+00 1.119010e+00 1.136411e+00 1.144119e+00 1.158923e+00 1.163580e+00 1.175439e+00 1.176813e+00 1.185414e+00 1.183311e+00 1.188390e+00 1.182673e+00 1.184033e+00 1.174634e+00 1.172163e+00 1.159105e+00 1.152785e+00 1.136203e+00 1.126125e+00 1.106280e+00 1.092657e+00 1.069963e+00 1.053140e+00 1.028187e+00 1.008662e+00 9.822496e-01 9.607008e-01 9.338653e-01 9.111919e-01 8.852436e-01 8.626131e-01 8.391518e-01 8.180407e-01 7.989253e-01 7.811123e-01 7.683275e-01 7.557772e-01 7.511455e-01 7.457262e-01 7.504869e-01 7.535607e-01 7.679827e-01 7.800499e-01 8.033150e-01 8.239242e-01 8.543611e-01 8.823104e-01 9.178100e-01 9.514728e-01 9.898534e-01 1.027455e+00 1.066676e+00 1.106459e+00 1.144706e+00 1.185009e+00 1.220706e+00 1.259990e+00 1.291795e+00 1.328657e+00 1.355443e+00 1.388626e+00 1.409482e+00 1.437881e+00 1.452112e+00 1.474794e+00 1.481924e+00 1.498138e+00 1.497919e+00 1.507118e+00 1.499530e+00 1.501381e+00 1.486637e+00 1.481034e+00 1.459564e+00 1.446637e+00 1.419081e+00 1.399198e+00 1.366377e+00 1.340147e+00 1.303039e+00 1.271297e+00 1.231007e+00 1.194802e+00 1.152538e+00 1.113107e+00 1.070161e+00 1.028902e+00 9.866321e-01 9.450761e-01 9.049038e-01 8.646889e-01 8.280830e-01 7.909250e-01 7.593655e-01 7.270003e-01 7.018878e-01 6.759471e-01 6.584258e-01 6.402181e-01 6.309256e-01 6.211580e-01 6.200054e-01 6.185896e-01 6.247327e-01 6.308285e-01 6.428902e-01 6.551833e-01 6.716004e-01 6.886443e-01 7.079555e-01 7.284175e-01 7.494060e-01 7.721740e-01 7.938904e-01 8.180805e-01 8.398043e-01 
8.935301e-01 9.136441e-01 9.376983e-01 9.570663e-01 9.810916e-01 9.993406e-01 1.022907e+00 1.039704e+00 1.062407e+00 1.077440e+00 1.098879e+00 1.111848e+00 1.131628e+00 1.142236e+00 1.159961e+00 1.167922e+00 1.183205e+00 1.188249e+00 1.200723e+00 1.202607e+00 1.211940e+00 1.210460e+00 1.216377e+00 1.211388e+00 1.213684e+00 1.205116e+00 1.203675e+00 1.191552e+00 1.186362e+00 1.170823e+00 1.161985e+00 1.143304e+00 1.131044e+00 1.109653e+00 1.094331e+00 1.070843e+00 1.052971e+00 1.028207e+00 1.008467e+00 9.834802e-01 9.627564e-01 9.388489e-01 9.182640e-01 8.969832e-01 8.779178e-01 8.610037e-01 8.450760e-01 8.343189e-01 8.232734e-01 8.202577e-01 8.157329e-01 8.214991e-01 8.247106e-01 8.394637e-01 8.509288e-01 8.739520e-01 8.933969e-01 9.232220e-01 9.497015e-01 9.844263e-01 1.016557e+00 1.054149e+00 1.090335e+00 1.128833e+00 1.167423e+00 1.205040e+00 1.244417e+00 1.279570e+00 1.318203e+00 1.349525e+00 1.385989e+00 1.412328e+00 1.445329e+00 1.465747e+00 1.494134e+00 1.507915e+00 1.530704e+00 1.537360e+00 1.553754e+00 1.553031e+00 1.562433e+00 1.554322e+00 1.556357e+00 1.541083e+00 1.535612e+00 1.513634e+00 1.500762e+00 1.472752e+00 1.452838e+00 1.419656e+00 1.393316e+00 1.355980e+00 1.324074e+00 1.283729e+00 1.247349e+00 1.205232e+00 1.165669e+00 1.123087e+00 1.081791e+00 1.040103e+00 9.986425e-01 9.592363e-01 9.192542e-01 8.835250e-01 8.466870e-01 8.159876e-01 7.839103e-01 7.594578e-01 7.335888e-01 7.163163e-01 6.977570e-01 6.881294e-01 6.774405e-01 6.753155e-01 6.723996e-01 6.770313e-01 6.811839e-01 6.913968e-01 7.015156e-01 7.159643e-01 7.308083e-01 7.482026e-01 7.665906e-01 7.858218e-01 8.067338e-01 8.269083e-01 8.495064e-01 8.699247e-01 
9.239949e-01 9.432409e-01 9.663274e-01 9.850476e-01 1.008377e+00 1.026185e+00 1.049315e+00 1.065861e+00 1.088367e+00 1.103321e+00 1.124783e+00 1.137826e+00 1.157822e+00 1.168640e+00 1.186747e+00 1.195036e+00 1.210839e+00 1.216311e+00 1.229417e+00 1.231815e+00 1.241870e+00 1.240980e+00 1.247689e+00 1.243362e+00 1.246512e+00 1.238680e+00 1.238156e+00 1.226853e+00 1.222653e+00 1.208036e+00 1.200281e+00 1.182651e+00 1.171594e+00 1.151415e+00 1.137444e+00 1.115368e+00 1.099016e+00 1.075896e+00 1.057859e+00 1.034767e+00 1.015917e+00 9.941467e-01 9.755573e-01 9.565984e-01 9.395510e-01 9.250199e-01 9.109732e-01 9.024693e-01 8.929588e-01 8.918399e-01 8.882907e-01 8.954056e-01 8.988896e-01 9.143630e-01 9.253877e-01 9.485622e-01 9.669838e-01 9.965488e-01 1.021636e+00 1.055871e+00 1.086465e+00 1.123485e+00 1.158173e+00 1.196112e+00 1.233366e+00 1.270479e+00 1.308752e+00 1.343467e+00 1.381253e+00 1.412193e+00 1.448061e+00 1.474055e+00 1.506685e+00 1.526777e+00 1.554981e+00 1.568439e+00 1.591191e+00 1.597518e+00 1.613969e+00 1.612914e+00 1.622421e+00 1.613981e+00 1.616122e+00 1.600543e+00 1.595136e+00 1.572900e+00 1.560017e+00 1.531824e+00 1.511800e+00 1.478539e+00 1.451979e+00 1.414691e+00 1.382468e+00 1.342310e+00 1.305543e+00 1.263756e+00 1.223778e+00 1.181661e+00 1.139969e+00 1.098855e+00 1.057054e+00 1.018291e+00 9.780308e-01 9.429433e-01 9.058553e-01 8.756942e-01 8.433062e-01 8.191562e-01 7.927835e-01 7.754379e-01 7.560421e-01 7.458656e-01 7.339166e-01 7.307543e-01 7.261613e-01 7.293569e-01 7.315213e-01 7.400571e-01 7.480372e-01 7.607371e-01 7.734513e-01 7.891623e-01 8.055540e-01 8.232579e-01 8.423876e-01 8.612404e-01 8.823143e-01 9.016367e-01 
9.557063e-01 9.739116e-01 9.959932e-01 1.013908e+00 1.036510e+00 1.053741e+00 1.076413e+00 1.092600e+00 1.114905e+00 1.129705e+00 1.151205e+00 1.164284e+00 1.184537e+00 1.195567e+00 1.214126e+00 1.222788e+00 1.239213e+00 1.245205e+00 1.259078e+00 1.262128e+00 1.273073e+00 1.272957e+00 1.280661e+00 1.277216e+00 1.281453e+00 1.274603e+00 1.275253e+00 1.265026e+00 1.262088e+00 1.248639e+00 1.242241e+00 1.225874e+00 1.216277e+00 1.197467e+00 1.185069e+00 1.164477e+00 1.149817e+00 1.128309e+00 1.112072e+00 1.090725e+00 1.073759e+00 1.053850e+00 1.037172e+00 1.020145e+00 1.004946e+00 9.923263e-01 9.799385e-01 9.731949e-01 9.650031e-01 9.653476e-01 9.626372e-01 9.708035e-01 9.745652e-01 9.906386e-01 1.001394e+00 1.024767e+00 1.042481e+00 1.071953e+00 1.096064e+00 1.130039e+00 1.159562e+00 1.196256e+00 1.229926e+00 1.267535e+00 1.303925e+00 1.340730e+00 1.378351e+00 1.412779e+00 1.450144e+00 1.480803e+00 1.516471e+00 1.542168e+00 1.574791e+00 1.594547e+00 1.622896e+00 1.635960e+00 1.658958e+00 1.664823e+00 1.681569e+00 1.679981e+00 1.689778e+00 1.680744e+00 1.683121e+00 1.666906e+00 1.661636e+00 1.638753e+00 1.625873e+00 1.597061e+00 1.576887e+00 1.543076e+00 1.516217e+00 1.478490e+00 1.445844e+00 1.405392e+00 1.368127e+00 1.326214e+00 1.285725e+00 1.243653e+00 1.201497e+00 1.160584e+00 1.118409e+00 1.079956e+00 1.039418e+00 1.004677e+00 9.673629e-01 9.374781e-01 9.048219e-01 8.807455e-01 8.539317e-01 8.363248e-01 8.161818e-01 8.053153e-01 7.922262e-01 7.879271e-01 7.817976e-01 7.834790e-01 7.837935e-01 7.905693e-01 7.965227e-01 8.073670e-01 8.180238e-01 8.319149e-01 8.463417e-01 8.623570e-01 8.797027e-01 8.970577e-01 9.165836e-01 9.346306e-01 
9.887301e-01 1.006134e+00 1.027313e+00 1.044652e+00 1.066635e+00 1.083508e+00 1.105837e+00 1.121870e+00 1.144093e+00 1.158925e+00 1.180583e+00 1.193861e+00 1.214485e+00 1.225859e+00 1.244973e+00 1.254101e+00 1.271230e+00 1.277791e+00 1.292482e+00 1.296185e+00 1.308030e+00 1.308634e+00 1.317295e+00 1.314629e+00 1.319867e+00 1.313852e+00 1.315542e+00 1.306213e+00 1.304365e+00 1.291893e+00 1.286655e+00 1.271368e+00 1.263032e+00 1.245432e+00 1.234425e+00 1.215210e+00 1.202091e+00 1.182156e+00 1.167615e+00 1.148053e+00 1.132916e+00 1.114994e+00 1.100225e+00 1.085335e+00 1.072027e+00 1.061599e+00 1.050949e+00 1.046309e+00 1.039545e+00 1.041747e+00 1.040005e+00 1.049650e+00 1.053826e+00 1.070934e+00 1.081540e+00 1.105524e+00 1.122608e+00 1.152352e+00 1.175498e+00 1.209519e+00 1.237912e+00 1.274529e+00 1.307056e+00 1.344535e+00 1.379889e+00 1.416552e+00 1.453317e+00 1.487604e+00 1.524329e+00 1.554842e+00 1.590095e+00 1.615627e+00 1.648041e+00 1.667598e+00 1.695912e+00 1.708731e+00 1.731823e+00 1.737393e+00 1.754314e+00 1.752383e+00 1.762382e+00 1.752972e+00 1.755522e+00 1.738921e+00 1.733739e+00 1.710492e+00 1.697567e+00 1.668446e+00 1.648056e+00 1.614020e+00 1.586751e+00 1.548901e+00 1.515656e+00 1.475183e+00 1.437159e+00 1.395313e+00 1.353954e+00 1.312010e+00 1.268933e+00 1.228173e+00 1.185073e+00 1.146755e+00 1.105314e+00 1.070635e+00 1.032425e+00 1.002462e+00 9.688638e-01 9.444923e-01 9.166104e-01 8.984218e-01 8.770025e-01 8.652269e-01 8.506042e-01 8.450789e-01 8.371659e-01 8.373696e-01 8.357160e-01 8.408674e-01 8.447707e-01 8.539588e-01 8.625939e-01 8.748986e-01 8.874281e-01 9.020021e-01 9.176470e-01 9.337537e-01 9.518228e-01 9.688402e-01 