# vtk DataFile Version 2.0
Comment goes here
ASCII

DATASET STRUCTURED_POINTS
FIELD FieldData 1
TIME 1 1 double
0.02500000
DIMENSIONS    128   128   1

ORIGIN    0.000   0.000   0.000
SPACING   0.039062 0.039062   1.000

POINT_DATA   16384
SCALARS uMag double
LOOKUP_TABLE default

6.454531e-01 6.640368e-01 6.876837e-01 7.040345e-01 7.264868e-01 7.404394e-01 7.614668e-01 7.728322e-01 7.921614e-01 8.007309e-01 8.180482e-01 8.235985e-01 8.385557e-01 8.408551e-01 8.530769e-01 8.518936e-01 8.609882e-01 8.560982e-01 8.616698e-01 8.528669e-01 8.545306e-01 8.416356e-01 8.390331e-01 8.219039e-01 8.147204e-01 7.932611e-01 7.812414e-01 7.554110e-01 7.383747e-01 7.081948e-01 6.860496e-01 6.516102e-01 6.243620e-01 5.858272e-01 5.535872e-01 5.111985e-01 4.741870e-01 4.282654e-01 3.868124e-01 3.377592e-01 2.923017e-01 2.405983e-01 1.916752e-01 1.378812e-01 8.612644e-02 3.087644e-02 2.299052e-02 7.899187e-02 1.341768e-01 1.901620e-01 2.458091e-01 3.009575e-01 3.561650e-01 4.096164e-01 4.634546e-01 5.143261e-01 5.658594e-01 6.132670e-01 6.615785e-01 7.046620e-01 7.488813e-01 7.868330e-01 8.261655e-01 8.582606e-01 8.920171e-01 9.176441e-01 9.452686e-01 9.639575e-01 9.850505e-01 9.964956e-01 1.010831e+00 1.014907e+00 1.022440e+00 1.019209e+00 1.020076e+00 1.009783e+00 1.004287e+00 9.873454e-01 9.759415e-01 9.529110e-01 9.361712e-01 9.077281e-01 8.863121e-01 8.532135e-01 8.278323e-01 7.908801e-01 7.622608e-01 7.222666e-01 6.911206e-01 6.488745e-01 6.158708e-01 5.721150e-01 5.378594e-01 4.932687e-01 4.582897e-01 4.134582e-01 3.782001e-01 3.336342e-01 2.984553e-01 2.545729e-01 2.197486e-01 1.768823e-01 1.426123e-01 1.010163e-01 6.743389e-02 2.729361e-02 5.523578e-03 4.408046e-02 7.609910e-02 1.129910e-01 1.442107e-01 1.793904e-01 2.098328e-01 2.432763e-01 2.729748e-01 3.046710e-01 3.336616e-01 3.636028e-01 3.919154e-01 4.200893e-01 4.477398e-01 4.741228e-01 5.011064e-01 5.256577e-01 5.519423e-01 5.745997e-01 6.001207e-01 6.207977e-01 
6.426576e-01 6.611834e-01 6.848241e-01 7.011366e-01 7.235990e-01 7.375337e-01 7.585869e-01 7.699561e-01 7.893264e-01 7.979229e-01 8.152966e-01 8.208986e-01 8.359272e-01 8.383048e-01 8.506132e-01 8.495359e-01 8.587323e-01 8.539778e-01 8.596670e-01 8.510302e-01 8.528281e-01 8.401313e-01 8.376809e-01 8.207834e-01 8.137718e-01 7.925795e-01 7.807545e-01 7.552287e-01 7.384145e-01 7.085805e-01 6.866912e-01 6.526453e-01 6.256969e-01 5.876143e-01 5.557345e-01 5.138778e-01 4.773167e-01 4.320505e-01 3.911996e-01 3.430273e-01 2.984773e-01 2.481702e-01 2.009702e-01 1.502782e-01 1.039788e-01 6.433161e-02 5.831817e-02 9.370182e-02 1.417696e-01 1.944708e-01 2.480214e-01 3.019136e-01 3.560472e-01 4.088318e-01 4.619820e-01 5.124551e-01 5.635060e-01 6.106751e-01 6.586429e-01 7.016009e-01 7.455862e-01 7.835002e-01 8.226936e-01 8.548218e-01 8.885247e-01 9.142421e-01 9.418903e-01 9.607140e-01 9.818995e-01 9.935119e-01 1.007999e+00 1.012264e+00 1.019998e+00 1.016966e+00 1.018072e+00 1.007981e+00 1.002753e+00 9.860090e-01 9.748906e-01 9.520504e-01 9.356056e-01 9.073438e-01 8.862254e-01 8.532997e-01 8.282135e-01 7.914287e-01 7.630986e-01 7.232710e-01 6.924069e-01 6.503330e-01 6.176048e-01 5.740355e-01 5.400525e-01 4.956745e-01 4.609732e-01 4.163992e-01 3.814395e-01 3.372091e-01 3.023825e-01 2.589827e-01 2.246465e-01 1.825930e-01 1.492061e-01 1.094484e-01 7.849192e-02 4.675538e-02 3.585745e-02 5.482236e-02 8.154295e-02 1.158217e-01 1.456964e-01 1.799621e-01 2.097861e-01 2.427482e-01 2.720837e-01 3.034683e-01 3.322184e-01 3.619327e-01 3.900754e-01 4.180723e-01 4.455994e-01 4.718388e-01 4.987324e-01 5.231656e-01 5.493863e-01 5.719470e-01 5.974257e-01 6.180256e-01 
6.484471e-01 6.669965e-01 6.905583e-01 7.068989e-01 7.293103e-01 7.432723e-01 7.642999e-01 7.756908e-01 7.950590e-01 8.036678e-01 8.210606e-01 8.266625e-01 8.417294e-01 8.440927e-01 8.564559e-01 8.553495e-01 8.646145e-01 8.598169e-01 8.655854e-01 8.568945e-01 8.587794e-01 8.460223e-01 8.436641e-01 8.267075e-01 8.197922e-01 7.985522e-01 7.868287e-01 7.612810e-01 7.445786e-01 7.147682e-01 6.930125e-01 6.590646e-01 6.322943e-01 5.944283e-01 5.628140e-01 5.213663e-01 4.852408e-01 4.407126e-01 4.006391e-01 3.538229e-01 3.107994e-01 2.631963e-01 2.194456e-01 1.751038e-01 1.381885e-01 1.134327e-01 1.116946e-01 1.357320e-01 1.738784e-01 2.205197e-01 2.701031e-01 3.214760e-01 3.737832e-01 4.253046e-01 4.774941e-01 5.272359e-01 5.777323e-01 6.244216e-01 6.720381e-01 7.146389e-01 7.583709e-01 7.959835e-01 8.349616e-01 8.668076e-01 9.002971e-01 9.257309e-01 9.531464e-01 9.716752e-01 9.925976e-01 1.003901e+00 1.018091e+00 1.022033e+00 1.029438e+00 1.026075e+00 1.026828e+00 1.016404e+00 1.010807e+00 9.937369e-01 9.822446e-01 9.590948e-01 9.422831e-01 9.137369e-01 8.922704e-01 8.590950e-01 8.336905e-01 7.967006e-01 7.680926e-01 7.281152e-01 6.970247e-01 6.548696e-01 6.219785e-01 5.784145e-01 5.443479e-01 5.000892e-01 4.654083e-01 4.211136e-01 3.863226e-01 3.426178e-01 3.081981e-01 2.657537e-01 2.322746e-01 1.920626e-01 1.605857e-01 1.249589e-01 9.903303e-02 7.733418e-02 7.151810e-02 8.373390e-02 1.034707e-01 1.329306e-01 1.598300e-01 1.921475e-01 2.204874e-01 2.525093e-01 2.809627e-01 3.118402e-01 3.400034e-01 3.694298e-01 3.971526e-01 4.249857e-01 4.521981e-01 4.783496e-01 5.050011e-01 5.293949e-01 5.554272e-01 5.779802e-01 6.033131e-01 6.239252e-01 
6.486359e-01 6.670911e-01 6.905592e-01 7.068495e-01 7.292276e-01 7.431792e-01 7.642307e-01 7.756493e-01 7.950957e-01 8.037693e-01 8.212925e-01 8.269969e-01 8.422441e-01 8.447488e-01 8.573397e-01 8.564165e-01 8.659543e-01 8.613856e-01 8.674698e-01 8.590593e-01 8.613012e-01 8.488837e-01 8.469240e-01 8.303763e-01 8.239035e-01 8.031555e-01 7.919255e-01 7.669714e-01 7.508266e-01 7.217376e-01 7.006270e-01 6.675668e-01 6.415689e-01 6.048170e-01 5.741702e-01 5.341636e-01 4.993219e-01 4.567433e-01 4.185010e-01 3.744967e-01 3.343267e-01 2.911328e-01 2.522503e-01 2.151996e-01 1.859965e-01 1.685328e-01 1.665025e-01 1.832356e-01 2.120557e-01 2.512991e-01 2.948710e-01 3.421113e-01 3.908912e-01 4.400172e-01 4.899756e-01 5.382322e-01 5.872266e-01 6.329597e-01 6.795302e-01 7.215133e-01 7.645126e-01 8.017396e-01 8.402158e-01 8.718417e-01 9.050076e-01 9.303399e-01 9.575731e-01 9.760832e-01 9.969361e-01 1.008275e+00 1.022484e+00 1.026493e+00 1.033988e+00 1.030707e+00 1.031601e+00 1.021262e+00 1.015846e+00 9.988587e-01 9.875778e-01 9.645083e-01 9.479316e-01 9.194696e-01 8.982586e-01 8.651822e-01 8.400544e-01 8.031934e-01 7.748872e-01 7.350886e-01 7.043325e-01 6.624312e-01 6.299199e-01 5.867177e-01 5.530972e-01 5.093546e-01 4.752211e-01 4.316681e-01 3.975875e-01 3.549712e-01 3.215433e-01 2.807611e-01 2.487971e-01 2.112787e-01 1.823459e-01 1.512521e-01 1.294277e-01 1.127730e-01 1.072792e-01 1.148396e-01 1.285330e-01 1.524994e-01 1.753730e-01 2.046713e-01 2.306546e-01 2.609564e-01 2.879118e-01 3.177146e-01 3.448496e-01 3.735532e-01 4.005321e-01 4.278536e-01 4.545105e-01 4.802886e-01 5.065196e-01 5.306373e-01 5.563531e-01 5.787034e-01 6.038046e-01 6.242729e-01 
6.573717e-01 6.758273e-01 6.991417e-01 7.154597e-01 7.377538e-01 7.517507e-01 7.727833e-01 7.842566e-01 8.037452e-01 8.124769e-01 8.300993e-01 8.358604e-01 8.512595e-01 8.538172e-01 8.666077e-01 8.657339e-01 8.755133e-01 8.709935e-01 8.773553e-01 8.689996e-01 8.715494e-01 8.592031e-01 8.575773e-01 8.411325e-01 8.350182e-01 8.144257e-01 8.035820e-01 7.788645e-01 7.631456e-01 7.344130e-01 7.137927e-01 6.812637e-01 6.558659e-01 6.199012e-01 5.900453e-01 5.512092e-01 5.174916e-01 4.766783e-01 4.401488e-01 3.988702e-01 3.614593e-01 3.225498e-01 2.881487e-01 2.574042e-01 2.340679e-01 2.220064e-01 2.213805e-01 2.359811e-01 2.601022e-01 2.945842e-01 3.336494e-01 3.774204e-01 4.232002e-01 4.701083e-01 5.181444e-01 5.649576e-01 6.126890e-01 6.574331e-01 7.031353e-01 7.443944e-01 7.867570e-01 8.234112e-01 8.613792e-01 8.925126e-01 9.252324e-01 9.501079e-01 9.769144e-01 9.949762e-01 1.015396e+00 1.026280e+00 1.040039e+00 1.043580e+00 1.050603e+00 1.046844e+00 1.047251e+00 1.036431e+00 1.030522e+00 1.013063e+00 1.001298e+00 9.777807e-01 9.607436e-01 9.318761e-01 9.102455e-01 8.768249e-01 8.513350e-01 8.142130e-01 7.856193e-01 7.456674e-01 7.147167e-01 6.727992e-01 6.402079e-01 5.971649e-01 5.636078e-01 5.202540e-01 4.863710e-01 4.435193e-01 4.099494e-01 3.684833e-01 3.359548e-01 2.970056e-01 2.665606e-01 2.319399e-01 2.054918e-01 1.786832e-01 1.601771e-01 1.474742e-01 1.428919e-01 1.491996e-01 1.596466e-01 1.800339e-01 1.995406e-01 2.261871e-01 2.497702e-01 2.784010e-01 3.036849e-01 3.324352e-01 3.583658e-01 3.863934e-01 4.124731e-01 4.393566e-01 4.653249e-01 4.908226e-01 5.165196e-01 5.404656e-01 5.657676e-01 5.880233e-01 6.128095e-01 6.332386e-01 
6.604783e-01 6.788109e-01 7.019497e-01 7.182110e-01 7.404318e-01 7.544306e-01 7.754870e-01 7.870159e-01 8.066213e-01 8.154592e-01 8.332878e-01 8.392050e-01 8.548953e-01 8.576604e-01 8.708226e-01 8.702111e-01 8.804377e-01 8.762419e-01 8.831212e-01 8.751610e-01 8.782943e-01 8.664288e-01 8.654501e-01 8.495898e-01 8.441879e-01 8.243076e-01 8.142501e-01 7.904040e-01 7.755631e-01 7.479035e-01 7.282862e-01 6.970897e-01 6.728750e-01 6.385852e-01 6.101814e-01 5.734844e-01 5.416280e-01 5.035987e-01 4.695530e-01 4.319518e-01 3.979214e-01 3.637906e-01 3.337374e-01 3.083547e-01 2.889682e-01 2.798600e-01 2.788969e-01 2.909063e-01 3.101553e-01 3.396296e-01 3.733391e-01 4.128200e-01 4.544073e-01 4.982293e-01 5.432142e-01 5.878810e-01 6.334065e-01 6.766649e-01 7.207667e-01 7.610053e-01 8.022104e-01 8.381782e-01 8.753224e-01 9.060113e-01 9.381642e-01 9.627683e-01 9.892077e-01 1.007117e+00 1.027324e+00 1.038130e+00 1.051795e+00 1.055299e+00 1.062316e+00 1.058534e+00 1.059000e+00 1.048157e+00 1.042356e+00 1.024868e+00 1.013247e+00 9.896993e-01 9.728389e-01 9.439515e-01 9.225302e-01 8.891211e-01 8.638786e-01 8.268259e-01 7.985274e-01 7.587356e-01 7.281422e-01 6.865150e-01 6.543631e-01 6.117887e-01 5.787820e-01 5.361365e-01 5.029574e-01 4.611373e-01 4.284894e-01 3.884945e-01 3.572034e-01 3.203171e-01 2.915464e-01 2.597011e-01 2.353792e-01 2.117395e-01 1.951059e-01 1.841193e-01 1.790311e-01 1.834085e-01 1.906085e-01 2.073583e-01 2.232879e-01 2.468538e-01 2.676062e-01 2.940509e-01 3.172359e-01 3.444677e-01 3.688334e-01 3.957885e-01 4.206798e-01 4.467907e-01 4.718433e-01 4.967777e-01 5.217657e-01 5.453013e-01 5.700592e-01 5.920214e-01 6.164015e-01 6.366304e-01 
6.720582e-01 6.903878e-01 7.133149e-01 7.296206e-01 7.517374e-01 7.658145e-01 7.868690e-01 7.984992e-01 8.181998e-01 8.271531e-01 8.451686e-01 8.512089e-01 8.671718e-01 8.700644e-01 8.835775e-01 8.830981e-01 8.937451e-01 8.896905e-01 8.970504e-01 8.892501e-01 8.929147e-01 8.812431e-01 8.808385e-01 8.652278e-01 8.604387e-01 8.408929e-01 8.314892e-01 8.081007e-01 7.939678e-01 7.669385e-01 7.481122e-01 7.177844e-01 6.944966e-01 6.614030e-01 6.341481e-01 5.990972e-01 5.687456e-01 5.329772e-01 5.009808e-01 4.664471e-01 4.352136e-01 4.050411e-01 3.785017e-01 3.574530e-01 3.413260e-01 3.350993e-01 3.350363e-01 3.467227e-01 3.639973e-01 3.910366e-01 4.217451e-01 4.585659e-01 4.974675e-01 5.391343e-01 5.820628e-01 6.251211e-01 6.691378e-01 7.112040e-01 7.541915e-01 7.935196e-01 8.338696e-01 8.691028e-01 9.055473e-01 9.356001e-01 9.671337e-01 9.911455e-01 1.016995e+00 1.034319e+00 1.053934e+00 1.064141e+00 1.077195e+00 1.080077e+00 1.086463e+00 1.082039e+00 1.081860e+00 1.070365e+00 1.063919e+00 1.045788e+00 1.033541e+00 1.009380e+00 9.919346e-01 9.624912e-01 9.405465e-01 9.066676e-01 8.809851e-01 8.435810e-01 8.149473e-01 7.749572e-01 7.441559e-01 7.025233e-01 6.703154e-01 6.279761e-01 5.950963e-01 5.529866e-01 5.201597e-01 4.792551e-01 4.472445e-01 4.086475e-01 3.783590e-01 3.434674e-01 3.161413e-01 2.869230e-01 2.644278e-01 2.436846e-01 2.286789e-01 2.196041e-01 2.146722e-01 2.186696e-01 2.241276e-01 2.389086e-01 2.523379e-01 2.737802e-01 2.922008e-01 3.169470e-01 3.382192e-01 3.642137e-01 3.870605e-01 4.131429e-01 4.368315e-01 4.623383e-01 4.864362e-01 5.109634e-01 5.351948e-01 5.584696e-01 5.826348e-01 6.044465e-01 6.283747e-01 6.485370e-01 
6.779642e-01 6.961580e-01 7.188393e-01 7.350953e-01 7.571063e-01 7.712091e-01 7.922928e-01 8.040163e-01 8.238768e-01 8.329863e-01 8.512880e-01 8.575453e-01 8.739155e-01 8.770870e-01 8.911218e-01 8.909881e-01 9.022634e-01 8.986302e-01 9.067161e-01 8.994269e-01 9.039069e-01 8.928552e-01 8.933491e-01 8.784923e-01 8.746830e-01 8.560572e-01 8.477206e-01 8.254581e-01 8.124973e-01 7.868497e-01 7.693339e-01 7.407054e-01 7.189207e-01 6.879203e-01 6.624407e-01 6.299676e-01 6.017661e-01 5.691512e-01 5.397824e-01 5.090095e-01 4.808869e-01 4.548735e-01 4.315694e-01 4.142608e-01 4.003752e-01 3.959244e-01 3.956042e-01 4.061365e-01 4.205501e-01 4.444941e-01 4.712210e-01 5.045886e-01 5.396582e-01 5.783292e-01 6.180528e-01 6.587568e-01 7.002429e-01 7.405423e-01 7.815867e-01 8.196294e-01 8.585184e-01 8.928450e-01 9.282170e-01 9.576533e-01 9.884249e-01 1.012034e+00 1.037366e+00 1.054435e+00 1.073723e+00 1.083764e+00 1.096634e+00 1.099395e+00 1.105698e+00 1.101162e+00 1.100973e+00 1.089354e+00 1.082948e+00 1.064675e+00 1.052504e+00 1.028191e+00 1.010854e+00 9.812658e-01 9.594662e-01 9.254807e-01 8.999887e-01 8.625532e-01 8.341696e-01 7.942666e-01 7.637927e-01 7.224134e-01 6.906323e-01 6.487649e-01 6.164377e-01 5.750757e-01 5.429592e-01 5.031387e-01 4.720325e-01 4.349100e-01 4.057479e-01 3.727304e-01 3.467247e-01 3.196347e-01 2.984417e-01 2.795639e-01 2.652540e-01 2.568206e-01 2.511891e-01 2.539946e-01 2.573000e-01 2.697063e-01 2.803732e-01 2.993133e-01 3.151009e-01 3.377350e-01 3.567749e-01 3.811276e-01 4.021580e-01 4.269992e-01 4.492274e-01 4.738048e-01 4.967335e-01 5.205705e-01 5.438721e-01 5.666423e-01 5.900794e-01 6.115343e-01 6.349104e-01 6.548362e-01 
6.922376e-01 7.104513e-01 7.328848e-01 7.492252e-01 7.711290e-01 7.853646e-01 8.064768e-01 8.183675e-01 8.383877e-01 8.476871e-01 8.662742e-01 8.727355e-01 8.895094e-01 8.928939e-01 9.074412e-01 9.075292e-01 9.194140e-01 9.160166e-01 9.247951e-01 9.177675e-01 9.230087e-01 9.122635e-01 9.135737e-01 8.990951e-01 8.961472e-01 8.780062e-01 8.705734e-01 8.489455e-01 8.369393e-01 8.121285e-01 7.956428e-01 7.681160e-01 7.474827e-01 7.179227e-01 6.937854e-01 6.631742e-01 6.365983e-01 6.063429e-01 5.789745e-01 5.510791e-01 5.253494e-01 5.025715e-01 4.818284e-01 4.675804e-01 4.557730e-01 4.533053e-01 4.537332e-01 4.645478e-01 4.781574e-01 5.010067e-01 5.260067e-01 5.577203e-01 5.908834e-01 6.279230e-01 6.659555e-01 7.052733e-01 7.453851e-01 7.845642e-01 8.245153e-01 8.616485e-01 8.996462e-01 9.332023e-01 9.678040e-01 9.965425e-01 1.026597e+00 1.049528e+00 1.074147e+00 1.090519e+00 1.109068e+00 1.118372e+00 1.130464e+00 1.132440e+00 1.137931e+00 1.132568e+00 1.131546e+00 1.119075e+00 1.111836e+00 1.092713e+00 1.079737e+00 1.054607e+00 1.036519e+00 1.006184e+00 9.837141e-01 9.490903e-01 9.230344e-01 8.851091e-01 8.562916e-01 8.160891e-01 7.853333e-01 7.438887e-01 7.119999e-01 6.703478e-01 6.381110e-01 5.972947e-01 5.654931e-01 5.265988e-01 4.960594e-01 4.602825e-01 4.319536e-01 4.006925e-01 3.757488e-01 3.506849e-01 3.306028e-01 3.136182e-01 3.000493e-01 2.927194e-01 2.869310e-01 2.895943e-01 2.916959e-01 3.029586e-01 3.117760e-01 3.292003e-01 3.429965e-01 3.641950e-01 3.813916e-01 4.045630e-01 4.239976e-01 4.479328e-01 4.688209e-01 4.927356e-01 5.145577e-01 5.379329e-01 5.603347e-01 5.828059e-01 6.055272e-01 6.268140e-01 6.496412e-01 6.695038e-01 
7.007802e-01 7.188677e-01 7.410017e-01 7.573188e-01 7.790957e-01 7.933980e-01 8.145531e-01 8.265904e-01 8.468205e-01 8.563397e-01 8.753000e-01 8.820509e-01 8.993558e-01 9.031004e-01 9.183286e-01 9.188524e-01 9.315569e-01 9.286823e-01 9.384064e-01 9.320057e-01 9.383041e-01 9.283141e-01 9.307804e-01 9.172161e-01 9.155147e-01 8.984848e-01 8.923883e-01 8.721125e-01 8.615436e-01 8.383753e-01 8.234542e-01 7.979136e-01 7.790142e-01 7.518360e-01 7.296572e-01 7.018616e-01 6.775198e-01 6.505083e-01 6.256560e-01 6.013173e-01 5.782577e-01 5.590135e-01 5.406991e-01 5.293119e-01 5.189819e-01 5.178967e-01 5.181564e-01 5.284796e-01 5.402108e-01 5.611017e-01 5.831574e-01 6.122630e-01 6.421963e-01 6.766297e-01 7.116509e-01 7.486914e-01 7.862262e-01 8.235607e-01 8.614170e-01 8.971340e-01 9.334924e-01 9.660112e-01 9.993753e-01 1.027389e+00 1.056546e+00 1.078991e+00 1.102990e+00 1.119044e+00 1.137187e+00 1.146272e+00 1.158118e+00 1.159914e+00 1.165268e+00 1.159718e+00 1.158629e+00 1.145936e+00 1.138671e+00 1.119281e+00 1.106304e+00 1.080875e+00 1.062807e+00 1.032166e+00 1.009745e+00 9.748475e-01 9.488812e-01 9.107632e-01 8.820942e-01 8.418313e-01 8.113029e-01 7.699823e-01 7.384196e-01 6.971254e-01 6.653318e-01 6.251492e-01 5.939222e-01 5.559635e-01 5.261331e-01 4.915850e-01 4.640730e-01 4.342522e-01 4.101390e-01 3.865104e-01 3.670557e-01 3.511046e-01 3.376080e-01 3.304387e-01 3.238438e-01 3.255911e-01 3.260080e-01 3.355670e-01 3.421823e-01 3.576349e-01 3.691317e-01 3.884744e-01 4.035369e-01 4.251327e-01 4.427018e-01 4.653692e-01 4.846761e-01 5.076024e-01 5.281090e-01 5.507338e-01 5.720596e-01 5.939791e-01 6.158403e-01 6.367415e-01 6.589064e-01 6.785234e-01 
7.175547e-01 7.357164e-01 7.575903e-01 7.740610e-01 7.957463e-01 8.102631e-01 8.314928e-01 8.437888e-01 8.642570e-01 8.740640e-01 8.934215e-01 9.004775e-01 9.183309e-01 9.223902e-01 9.383070e-01 9.391534e-01 9.526713e-01 9.501321e-01 9.607755e-01 9.547365e-01 9.620386e-01 9.524586e-01 9.559912e-01 9.429160e-01 9.423246e-01 9.259013e-01 9.209463e-01 9.014395e-01 8.920424e-01 8.698553e-01 8.561503e-01 8.318542e-01 8.142467e-01 7.886254e-01 7.678614e-01 7.419720e-01 7.192205e-01 6.944685e-01 6.714118e-01 6.496172e-01 6.285107e-01 6.118929e-01 5.954907e-01 5.864382e-01 5.776113e-01 5.781149e-01 5.790885e-01 5.899867e-01 6.015330e-01 6.221023e-01 6.433171e-01 6.715776e-01 7.003877e-01 7.338091e-01 7.677048e-01 8.037747e-01 8.403092e-01 8.767881e-01 9.137856e-01 9.487549e-01 9.843553e-01 1.016191e+00 1.048838e+00 1.076181e+00 1.104604e+00 1.126342e+00 1.149550e+00 1.164824e+00 1.182097e+00 1.190311e+00 1.201203e+00 1.202037e+00 1.206370e+00 1.199780e+00 1.197629e+00 1.183848e+00 1.175516e+00 1.155027e+00 1.141014e+00 1.114517e+00 1.095480e+00 1.063852e+00 1.040560e+00 1.004802e+00 9.780915e-01 9.392871e-01 9.100237e-01 8.692946e-01 8.383405e-01 7.968172e-01 7.650129e-01 7.238188e-01 6.919799e-01 6.522323e-01 6.211637e-01 5.839920e-01 5.545205e-01 5.210975e-01 4.941166e-01 4.656840e-01 4.421941e-01 4.200389e-01 4.011329e-01 3.864389e-01 3.731610e-01 3.666827e-01 3.597300e-01 3.614060e-01 3.608236e-01 3.696552e-01 3.747979e-01 3.891723e-01 3.989889e-01 4.171931e-01 4.305829e-01 4.511542e-01 4.671807e-01 4.890091e-01 5.069554e-01 5.292420e-01 5.485841e-01 5.707559e-01 5.911110e-01 6.127430e-01 6.338201e-01 6.545761e-01 6.761364e-01 6.957285e-01 
7.285341e-01 7.466063e-01 7.681459e-01 7.846444e-01 8.061951e-01 8.208425e-01 8.421387e-01 8.546560e-01 8.753925e-01 8.855025e-01 9.053290e-01 9.127643e-01 9.312830e-01 9.357976e-01 9.525671e-01 9.539500e-01 9.684942e-01 9.665853e-01 9.784101e-01 9.731156e-01 9.817327e-01 9.730396e-01 9.779983e-01 9.659885e-01 9.669152e-01 9.517776e-01 9.484211e-01 9.304657e-01 9.227476e-01 9.024222e-01 8.904909e-01 8.684055e-01 8.526932e-01 8.296538e-01 8.109367e-01 7.879896e-01 7.674496e-01 7.459270e-01 7.252021e-01 7.067445e-01 6.879307e-01 6.744291e-01 6.599573e-01 6.533324e-01 6.456247e-01 6.474035e-01 6.483077e-01 6.591237e-01 6.693606e-01 6.886875e-01 7.076725e-01 7.339915e-01 7.601306e-01 7.913797e-01 8.225749e-01 8.565717e-01 8.906359e-01 9.253209e-01 9.602059e-01 9.937324e-01 1.027619e+00 1.058368e+00 1.089691e+00 1.116266e+00 1.143717e+00 1.164945e+00 1.187478e+00 1.202423e+00 1.219255e+00 1.227239e+00 1.237858e+00 1.238484e+00 1.242650e+00 1.235815e+00 1.233550e+00 1.219446e+00 1.211019e+00 1.190118e+00 1.176007e+00 1.149025e+00 1.129885e+00 1.097733e+00 1.074343e+00 1.038076e+00 1.011293e+00 9.720536e-01 9.427643e-01 9.017356e-01 8.708247e-01 8.291927e-01 7.975183e-01 7.564508e-01 7.248387e-01 6.854787e-01 6.547326e-01 6.182069e-01 5.891340e-01 5.565678e-01 5.300112e-01 5.025326e-01 4.793918e-01 4.580899e-01 4.392959e-01 4.250886e-01 4.114869e-01 4.048859e-01 3.970281e-01 3.978951e-01 3.958395e-01 4.033283e-01 4.066095e-01 4.193884e-01 4.271948e-01 4.438061e-01 4.552308e-01 4.743676e-01 4.885876e-01 5.092058e-01 5.255549e-01 5.468668e-01 5.648346e-01 5.862537e-01 6.054549e-01 6.265336e-01 6.466698e-01 6.670483e-01 6.878734e-01 7.072417e-01 
7.475813e-01 7.658161e-01 7.871076e-01 8.038624e-01 8.253566e-01 8.403334e-01 8.617670e-01 8.746664e-01 8.957352e-01 9.062611e-01 9.266122e-01 9.344809e-01 9.537100e-01 9.586637e-01 9.763169e-01 9.781398e-01 9.937224e-01 9.922582e-01 1.005251e+00 1.000420e+00 1.010304e+00 1.002118e+00 1.008410e+00 9.969844e-01 9.992803e-01 9.848455e-01 9.828675e-01 9.657795e-01 9.594340e-01 9.401850e-01 9.296203e-01 9.088582e-01 8.945224e-01 8.730770e-01 8.557752e-01 8.346928e-01 8.156362e-01 7.962101e-01 7.770442e-01 7.608173e-01 7.435916e-01 7.322813e-01 7.193003e-01 7.145886e-01 7.080824e-01 7.112599e-01 7.129005e-01 7.244771e-01 7.349334e-01 7.544368e-01 7.732276e-01 7.993228e-01 8.250358e-01 8.558640e-01 8.865604e-01 9.200818e-01 9.536594e-01 9.878784e-01 1.022301e+00 1.055372e+00 1.088785e+00 1.119054e+00 1.149835e+00 1.175856e+00 1.202644e+00 1.223195e+00 1.244906e+00 1.259020e+00 1.274859e+00 1.281843e+00 1.291315e+00 1.290781e+00 1.293679e+00 1.285554e+00 1.281949e+00 1.266470e+00 1.256682e+00 1.234376e+00 1.218938e+00 1.190577e+00 1.170188e+00 1.136744e+00 1.112220e+00 1.074806e+00 1.047032e+00 1.006842e+00 9.767273e-01 9.349932e-01 9.034363e-01 8.613847e-01 8.292510e-01 7.880804e-01 7.561961e-01 7.170648e-01 6.862252e-01 6.502511e-01 6.212409e-01 5.895040e-01 5.631201e-01 5.366501e-01 5.137104e-01 4.934342e-01 4.747436e-01 4.613669e-01 4.476173e-01 4.414494e-01 4.330655e-01 4.338672e-01 4.308737e-01 4.378513e-01 4.398628e-01 4.518484e-01 4.581983e-01 4.739181e-01 4.838426e-01 5.021295e-01 5.149109e-01 5.348027e-01 5.498376e-01 5.705834e-01 5.873945e-01 6.084167e-01 6.266338e-01 6.474789e-01 6.668103e-01 6.871050e-01 7.073082e-01 7.267254e-01 
7.607665e-01 7.789793e-01 7.999207e-01 8.167838e-01 8.381495e-01 8.533492e-01 8.748835e-01 8.881063e-01 9.095112e-01 9.204490e-01 9.413752e-01 9.497364e-01 9.697779e-01 9.753019e-01 9.939963e-01 9.964718e-01 1.013308e+00 1.012592e+00 1.027026e+00 1.023061e+00 1.034543e+00 1.027373e+00 1.035384e+00 1.025167e+00 1.029267e+00 1.016279e+00 1.016164e+00 1.000806e+00 9.963686e-01 9.791718e-01 9.705597e-01 9.521950e-01 9.398693e-01 9.211623e-01 9.059424e-01 8.878917e-01 8.709834e-01 8.547709e-01 8.377621e-01 8.247346e-01 8.095306e-01 8.011183e-01 7.897793e-01 7.873221e-01 7.817793e-01 7.862676e-01 7.879556e-01 7.997683e-01 8.093063e-01 8.280743e-01 8.451515e-01 8.698228e-01 8.933325e-01 9.223873e-01 9.507084e-01 9.824016e-01 1.013684e+00 1.046229e+00 1.078603e+00 1.110277e+00 1.141977e+00 1.171177e+00 1.200615e+00 1.225890e+00 1.251691e+00 1.271771e+00 1.292809e+00 1.306643e+00 1.322057e+00 1.328854e+00 1.338068e+00 1.337339e+00 1.340068e+00 1.331657e+00 1.327903e+00 1.311994e+00 1.302030e+00 1.279131e+00 1.263465e+00 1.234373e+00 1.213704e+00 1.179440e+00 1.154602e+00 1.116349e+00 1.088257e+00 1.047288e+00 1.016881e+00 9.745000e-01 9.427053e-01 9.002006e-01 8.679006e-01 8.265126e-01 7.945386e-01 7.554404e-01 7.245777e-01 6.888670e-01 6.598713e-01 6.285639e-01 6.021788e-01 5.761905e-01 5.531508e-01 5.332489e-01 5.142508e-01 5.009644e-01 4.865885e-01 4.800908e-01 4.706927e-01 4.707116e-01 4.663307e-01 4.721615e-01 4.725115e-01 4.831514e-01 4.877067e-01 5.020506e-01 5.101792e-01 5.271854e-01 5.382646e-01 5.570434e-01 5.705271e-01 5.903585e-01 6.057990e-01 6.261106e-01 6.431511e-01 6.634813e-01 6.818359e-01 7.017970e-01 7.212272e-01 7.404752e-01 
7.818237e-01 8.003240e-01 8.210515e-01 8.383115e-01 8.596745e-01 8.753575e-01 8.971088e-01 9.108767e-01 9.327242e-01 9.442446e-01 9.658405e-01 9.747992e-01 9.957330e-01 1.001852e+00 1.021649e+00 1.024706e+00 1.042834e+00 1.042687e+00 1.058569e+00 1.055175e+00 1.068221e+00 1.061650e+00 1.071294e+00 1.061743e+00 1.067497e+00 1.055287e+00 1.056803e+00 1.042384e+00 1.039520e+00 1.023463e+00 1.016352e+00 9.993531e-01 9.884595e-01 9.713465e-01 9.575072e-01 9.412528e-01 9.256966e-01 9.114221e-01 8.957484e-01 8.847020e-01 8.707980e-01 8.642777e-01 8.541471e-01 8.533472e-01 8.488387e-01 8.546304e-01 8.571098e-01 8.698232e-01 8.798960e-01 8.992016e-01 9.166079e-01 9.415559e-01 9.652728e-01 9.944554e-01 1.022931e+00 1.054683e+00 1.086092e+00 1.118652e+00 1.151097e+00 1.182724e+00 1.214378e+00 1.243416e+00 1.272612e+00 1.297547e+00 1.322845e+00 1.342348e+00 1.362581e+00 1.375564e+00 1.389872e+00 1.395538e+00 1.403381e+00 1.401266e+00 1.402425e+00 1.392424e+00 1.386981e+00 1.369346e+00 1.357654e+00 1.332972e+00 1.315611e+00 1.284755e+00 1.262479e+00 1.226546e+00 1.200233e+00 1.160469e+00 1.131061e+00 1.088799e+00 1.057255e+00 1.013849e+00 9.811033e-01 9.378807e-01 9.048158e-01 8.630403e-01 8.304796e-01 7.913272e-01 7.600377e-01 7.245814e-01 6.952879e-01 6.644833e-01 6.378816e-01 6.125438e-01 5.892999e-01 5.700585e-01 5.507804e-01 5.380106e-01 5.231850e-01 5.169298e-01 5.068410e-01 5.067668e-01 5.014344e-01 5.068636e-01 5.060419e-01 5.160674e-01 5.193122e-01 5.329493e-01 5.397203e-01 5.560339e-01 5.657875e-01 5.839639e-01 5.962115e-01 6.155764e-01 6.299083e-01 6.499110e-01 6.659949e-01 6.861791e-01 7.037458e-01 7.237187e-01 7.425419e-01 7.619479e-01 
7.969561e-01 8.155347e-01 8.359140e-01 8.533964e-01 8.746498e-01 8.906822e-01 9.125782e-01 9.268058e-01 9.490664e-01 9.611412e-01 9.834291e-01 9.930249e-01 1.014933e+00 1.021765e+00 1.042813e+00 1.046661e+00 1.066297e+00 1.067032e+00 1.084648e+00 1.082251e+00 1.097212e+00 1.091791e+00 1.103480e+00 1.095277e+00 1.103150e+00 1.092539e+00 1.096199e+00 1.083677e+00 1.082950e+00 1.069121e+00 1.064126e+00 1.049697e+00 1.040901e+00 1.026676e+00 1.014925e+00 1.001802e+00 9.883221e-01 9.772923e-01 9.636346e-01 9.557523e-01 9.436921e-01 9.400089e-01 9.313694e-01 9.328160e-01 9.292341e-01 9.364647e-01 9.391349e-01 9.523792e-01 9.618518e-01 9.808331e-01 9.969372e-01 1.020890e+00 1.042802e+00 1.070571e+00 1.096984e+00 1.127161e+00 1.156478e+00 1.187521e+00 1.218029e+00 1.248354e+00 1.278351e+00 1.306396e+00 1.334286e+00 1.358562e+00 1.382920e+00 1.402063e+00 1.421688e+00 1.434519e+00 1.448479e+00 1.454073e+00 1.461729e+00 1.459484e+00 1.460510e+00 1.450203e+00 1.444589e+00 1.426397e+00 1.414428e+00 1.388919e+00 1.371147e+00 1.339227e+00 1.316415e+00 1.279253e+00 1.252312e+00 1.211254e+00 1.181174e+00 1.137657e+00 1.105443e+00 1.060913e+00 1.027536e+00 9.833934e-01 9.497594e-01 9.073119e-01 8.742481e-01 8.346813e-01 8.029420e-01 7.673005e-01 7.375810e-01 7.067526e-01 6.797031e-01 6.543990e-01 6.306250e-01 6.113482e-01 5.913890e-01 5.783910e-01 5.626718e-01 5.559100e-01 5.446818e-01 5.438045e-01 5.370994e-01 5.414833e-01 5.391130e-01 5.479537e-01 5.495576e-01 5.619844e-01 5.671074e-01 5.822815e-01 5.904503e-01 6.076242e-01 6.184004e-01 6.369376e-01 6.499443e-01 6.693103e-01 6.842364e-01 7.039771e-01 7.205684e-01 7.402844e-01 7.583276e-01 7.776516e-01 
8.197256e-01 8.387543e-01 8.589734e-01 8.770348e-01 8.983565e-01 9.150713e-01 9.372795e-01 9.522633e-01 9.750928e-01 9.879659e-01 1.011087e+00 1.021492e+00 1.044497e+00 1.052122e+00 1.074520e+00 1.079127e+00 1.100343e+00 1.101796e+00 1.121183e+00 1.119476e+00 1.136346e+00 1.131617e+00 1.145286e+00 1.137823e+00 1.147677e+00 1.137907e+00 1.143483e+00 1.131954e+00 1.133023e+00 1.120380e+00 1.117027e+00 1.103992e+00 1.096675e+00 1.084038e+00 1.073619e+00 1.062232e+00 1.049965e+00 1.040746e+00 1.028216e+00 1.022128e+00 1.011131e+00 1.009130e+00 1.001492e+00 1.004428e+00 1.001779e+00 1.010260e+00 1.013795e+00 1.028054e+00 1.038340e+00 1.058148e+00 1.075050e+00 1.099712e+00 1.122444e+00 1.150869e+00 1.178130e+00 1.208939e+00 1.239096e+00 1.270729e+00 1.301985e+00 1.332794e+00 1.363330e+00 1.391662e+00 1.419754e+00 1.444018e+00 1.468137e+00 1.486883e+00 1.505775e+00 1.517775e+00 1.530513e+00 1.534840e+00 1.540855e+00 1.536955e+00 1.536032e+00 1.523765e+00 1.516020e+00 1.495669e+00 1.481508e+00 1.453748e+00 1.433817e+00 1.399656e+00 1.374788e+00 1.335486e+00 1.306636e+00 1.263613e+00 1.231797e+00 1.186552e+00 1.152791e+00 1.106825e+00 1.072093e+00 1.026845e+00 9.920433e-01 9.488416e-01 9.147844e-01 8.748115e-01 8.422316e-01 8.064996e-01 7.760615e-01 7.453927e-01 7.177047e-01 6.927135e-01 6.683293e-01 6.494003e-01 6.287995e-01 6.160640e-01 5.996134e-01 5.929340e-01 5.808419e-01 5.798215e-01 5.721058e-01 5.761342e-01 5.726256e-01 5.809588e-01 5.813417e-01 5.931916e-01 5.970669e-01 6.116770e-01 6.186257e-01 6.353155e-01 6.449451e-01 6.631251e-01 6.750940e-01 6.942582e-01 7.082827e-01 7.279903e-01 7.438380e-01 7.636916e-01 7.811681e-01 8.007930e-01 