# vtk DataFile Version 2.0
Comment goes here
ASCII

DATASET STRUCTURED_POINTS
FIELD FieldData 1
TIME 1 1 double
0.08000000
DIMENSIONS    128   128   1

ORIGIN    0.000   0.000   0.000
SPACING   0.039062 0.039062   1.000

POINT_DATA   16384
SCALARS uMag double
LOOKUP_TABLE default

3.378871e-01 2.959924e-01 2.550089e-01 2.125391e-01 1.714310e-01 1.288314e-01 8.800861e-02 4.569451e-02 5.533371e-03 3.610958e-02 7.526635e-02 1.158817e-01 1.537241e-01 1.929839e-01 2.292341e-01 2.668386e-01 3.012501e-01 3.369277e-01 3.692852e-01 4.027930e-01 4.329118e-01 4.640363e-01 4.917621e-01 5.203202e-01 5.455283e-01 5.713675e-01 5.939617e-01 6.169608e-01 6.368712e-01 6.569392e-01 6.741197e-01 6.911944e-01 7.056190e-01 7.196646e-01 7.313228e-01 7.423265e-01 7.512189e-01 7.591864e-01 7.653197e-01 7.702710e-01 7.736530e-01 7.756176e-01 7.762535e-01 7.752656e-01 7.731550e-01 7.692496e-01 7.643846e-01 7.575947e-01 7.499599e-01 7.403141e-01 7.298877e-01 7.174102e-01 7.041670e-01 6.888777e-01 6.727935e-01 6.547102e-01 6.357668e-01 6.149089e-01 5.931003e-01 5.694927e-01 5.448325e-01 5.185110e-01 4.910385e-01 4.620562e-01 4.318438e-01 4.002778e-01 3.674375e-01 3.333955e-01 2.980849e-01 2.617127e-01 2.241401e-01 1.856289e-01 1.460574e-01 1.056497e-01 6.440026e-02 2.239596e-02 2.015124e-02 6.339092e-02 1.067972e-01 1.508477e-01 1.946182e-01 2.389922e-01 2.825815e-01 3.267331e-01 3.695528e-01 4.128848e-01 4.543147e-01 4.961905e-01 5.355922e-01 5.753515e-01 6.120848e-01 6.490622e-01 6.825038e-01 7.160508e-01 7.456142e-01 7.751216e-01 8.002770e-01 8.251984e-01 8.454925e-01 8.653651e-01 8.804377e-01 8.949009e-01 9.044984e-01 9.133069e-01 9.172917e-01 9.203236e-01 9.186769e-01 9.159355e-01 9.087560e-01 9.003651e-01 8.878614e-01 8.740558e-01 8.565342e-01 8.376451e-01 8.154943e-01 7.919322e-01 7.656056e-01 7.378412e-01 7.078387e-01 6.763839e-01 6.432334e-01 6.086237e-01 5.728655e-01 5.356441e-01 4.978161e-01 4.585212e-01 4.191481e-01 3.783028e-01 
3.399542e-01 2.983969e-01 2.578498e-01 2.160054e-01 1.758117e-01 1.347189e-01 9.662593e-02 6.093009e-02 4.116599e-02 5.481437e-02 8.603794e-02 1.233120e-01 1.594995e-01 1.977221e-01 2.332899e-01 2.704115e-01 3.044456e-01 3.398520e-01 3.719630e-01 4.053010e-01 4.352400e-01 4.662499e-01 4.938333e-01 5.223090e-01 5.473971e-01 5.731735e-01 5.956614e-01 6.186096e-01 6.384223e-01 6.584466e-01 6.755348e-01 6.925700e-01 7.069055e-01 7.209141e-01 7.324853e-01 7.434535e-01 7.522601e-01 7.601937e-01 7.662419e-01 7.711613e-01 7.744589e-01 7.763943e-01 7.769465e-01 7.759337e-01 7.737401e-01 7.698158e-01 7.648688e-01 7.580682e-01 7.503526e-01 7.407069e-01 7.302016e-01 7.177376e-01 7.044182e-01 6.891592e-01 6.730027e-01 6.549702e-01 6.359605e-01 6.151781e-01 5.933128e-01 5.698108e-01 5.451086e-01 5.189298e-01 4.914390e-01 4.626473e-01 4.324553e-01 4.011454e-01 3.683918e-01 3.347065e-01 2.996053e-01 2.637703e-01 2.266687e-01 1.891060e-01 1.507258e-01 1.126652e-01 7.603504e-02 4.752465e-02 4.773878e-02 7.738172e-02 1.161732e-01 1.578465e-01 2.003814e-01 2.438040e-01 2.868363e-01 3.304655e-01 3.729529e-01 4.159588e-01 4.571463e-01 4.988121e-01 5.380084e-01 5.776386e-01 6.141797e-01 6.510905e-01 6.843421e-01 7.178727e-01 7.472437e-01 7.767755e-01 8.017354e-01 8.267137e-01 8.468102e-01 8.667645e-01 8.816399e-01 8.962024e-01 9.056063e-01 9.145250e-01 9.183232e-01 9.214705e-01 9.196478e-01 9.170224e-01 9.096809e-01 9.014031e-01 8.887544e-01 8.750570e-01 8.574102e-01 8.386237e-01 8.163703e-01 7.929058e-01 7.665019e-01 7.388320e-01 7.087803e-01 6.774208e-01 6.442533e-01 6.097456e-01 5.740082e-01 5.369051e-01 4.991457e-01 4.600015e-01 4.207632e-01 3.801305e-01 
3.485867e-01 3.079608e-01 2.686896e-01 2.285429e-01 1.907584e-01 1.533015e-01 1.207978e-01 9.405274e-02 8.203594e-02 8.900105e-02 1.105443e-01 1.410943e-01 1.733285e-01 2.087679e-01 2.425204e-01 2.782184e-01 3.112466e-01 3.458070e-01 3.772897e-01 4.100748e-01 4.395902e-01 4.702152e-01 4.974991e-01 5.256951e-01 5.505655e-01 5.761326e-01 5.984610e-01 6.212496e-01 6.409471e-01 6.608486e-01 6.778575e-01 6.947984e-01 7.090854e-01 7.230228e-01 7.345734e-01 7.454902e-01 7.543024e-01 7.622022e-01 7.682812e-01 7.731831e-01 7.765362e-01 7.784700e-01 7.791021e-01 7.781031e-01 7.760138e-01 7.721189e-01 7.673005e-01 7.605449e-01 7.529827e-01 7.433981e-01 7.330713e-01 7.206856e-01 7.075711e-01 6.924091e-01 6.764862e-01 6.585725e-01 6.398292e-01 6.191925e-01 5.976334e-01 5.743128e-01 5.499686e-01 5.240223e-01 4.969617e-01 4.684803e-01 4.388270e-01 4.079545e-01 3.759166e-01 3.428926e-01 3.088257e-01 2.740886e-01 2.386745e-01 2.031943e-01 1.681102e-01 1.348481e-01 1.061778e-01 8.783043e-02 8.792932e-02 1.068923e-01 1.376124e-01 1.742677e-01 2.136049e-01 2.548669e-01 2.963807e-01 3.388876e-01 3.805527e-01 4.228980e-01 4.636160e-01 5.048562e-01 5.437889e-01 5.831226e-01 6.195321e-01 6.562189e-01 6.894287e-01 7.227756e-01 7.521675e-01 7.815368e-01 8.065617e-01 8.313871e-01 8.515789e-01 8.713840e-01 8.863745e-01 9.007889e-01 9.103201e-01 9.190922e-01 9.230240e-01 9.260287e-01 9.243426e-01 9.215824e-01 9.143788e-01 9.059792e-01 8.934701e-01 8.796698e-01 8.621667e-01 8.433027e-01 8.212013e-01 7.976924e-01 7.714554e-01 7.437832e-01 7.139227e-01 6.826141e-01 6.496757e-01 6.152881e-01 5.798379e-01 5.429483e-01 5.055667e-01 4.667703e-01 4.280565e-01 3.879829e-01 
3.610067e-01 3.218142e-01 2.843933e-01 2.466584e-01 2.120653e-01 1.789377e-01 1.519520e-01 1.314855e-01 1.230916e-01 1.276641e-01 1.434228e-01 1.679947e-01 1.957565e-01 2.276723e-01 2.588768e-01 2.925510e-01 3.240226e-01 3.573274e-01 3.877721e-01 4.197228e-01 4.484947e-01 4.785346e-01 5.052551e-01 5.330226e-01 5.574472e-01 5.826887e-01 6.046521e-01 6.271849e-01 6.465761e-01 6.662706e-01 6.830181e-01 6.997875e-01 7.138493e-01 7.276422e-01 7.389987e-01 7.497931e-01 7.584391e-01 7.662363e-01 7.721755e-01 7.769946e-01 7.802336e-01 7.821054e-01 7.826489e-01 7.816114e-01 7.794593e-01 7.755529e-01 7.706980e-01 7.639626e-01 7.563909e-01 7.468637e-01 7.365561e-01 7.242715e-01 7.112077e-01 6.961985e-01 6.803627e-01 6.626637e-01 6.440518e-01 6.237051e-01 6.023349e-01 5.793982e-01 5.553219e-01 5.298814e-01 5.032032e-01 4.753931e-01 4.462972e-01 4.163366e-01 3.851385e-01 3.534050e-01 3.206660e-01 2.878758e-01 2.547026e-01 2.224262e-01 1.913988e-01 1.637342e-01 1.418144e-01 1.295150e-01 1.304841e-01 1.446103e-01 1.693316e-01 2.006746e-01 2.361859e-01 2.743376e-01 3.136803e-01 3.543168e-01 3.946474e-01 4.357976e-01 4.756195e-01 5.160693e-01 5.543503e-01 5.931585e-01 6.290597e-01 6.654066e-01 6.981950e-01 7.313372e-01 7.603626e-01 7.896268e-01 8.143212e-01 8.391147e-01 8.590018e-01 8.788269e-01 8.935335e-01 9.080033e-01 9.172700e-01 9.261203e-01 9.298085e-01 9.329050e-01 9.309995e-01 9.283393e-01 9.209457e-01 9.126526e-01 8.999894e-01 8.863035e-01 8.686900e-01 8.499538e-01 8.277952e-01 8.044358e-01 7.782061e-01 7.507180e-01 7.209440e-01 6.898721e-01 6.571193e-01 6.230471e-01 5.879109e-01 5.514552e-01 5.145627e-01 4.763837e-01 4.384139e-01 3.992556e-01 
3.792754e-01 3.417843e-01 3.065473e-01 2.714455e-01 2.401168e-01 2.108813e-01 1.881048e-01 1.713579e-01 1.645163e-01 1.673441e-01 1.791945e-01 1.989076e-01 2.224682e-01 2.506331e-01 2.789693e-01 3.101823e-01 3.397612e-01 3.714298e-01 4.005766e-01 4.313950e-01 4.592366e-01 4.884624e-01 5.144913e-01 5.416545e-01 5.655509e-01 5.903322e-01 6.118859e-01 6.340612e-01 6.531333e-01 6.725462e-01 6.890480e-01 7.055941e-01 7.194732e-01 7.330899e-01 7.443199e-01 7.549782e-01 7.635507e-01 7.712478e-01 7.771644e-01 7.819177e-01 7.851839e-01 7.870243e-01 7.876445e-01 7.866107e-01 7.845846e-01 7.807189e-01 7.760395e-01 7.693842e-01 7.620379e-01 7.526336e-01 7.426026e-01 7.304879e-01 7.177547e-01 7.029683e-01 6.875219e-01 6.701071e-01 6.519524e-01 6.319639e-01 6.111334e-01 5.886487e-01 5.652191e-01 5.403549e-01 5.144706e-01 4.874117e-01 4.593238e-01 4.303736e-01 4.005120e-01 3.701944e-01 3.393192e-01 3.086077e-01 2.781657e-01 2.490407e-01 2.220370e-01 1.987920e-01 1.814749e-01 1.721779e-01 1.732506e-01 1.843060e-01 2.046172e-01 2.314311e-01 2.631458e-01 2.980852e-01 3.349719e-01 3.735301e-01 4.123131e-01 4.520954e-01 4.909317e-01 5.304505e-01 5.681024e-01 6.062554e-01 6.417624e-01 6.776318e-01 7.101861e-01 7.429656e-01 7.718677e-01 8.008431e-01 8.254912e-01 8.500420e-01 8.699360e-01 8.895465e-01 9.042962e-01 9.185685e-01 9.279029e-01 9.365674e-01 9.403407e-01 9.432629e-01 9.414566e-01 9.386370e-01 9.313571e-01 9.229263e-01 9.103952e-01 8.966032e-01 8.791476e-01 8.603490e-01 8.383846e-01 8.150217e-01 7.890374e-01 7.616228e-01 7.321652e-01 7.012677e-01 6.689292e-01 6.351642e-01 6.005791e-01 5.646105e-01 5.284640e-01 4.910254e-01 4.540895e-01 4.160470e-01 
4.005575e-01 3.649615e-01 3.320159e-01 2.995897e-01 2.713495e-01 2.455102e-01 2.260522e-01 2.119653e-01 2.062581e-01 2.082027e-01 2.176180e-01 2.338700e-01 2.539914e-01 2.788109e-01 3.043239e-01 3.330380e-01 3.605396e-01 3.904274e-01 4.180460e-01 4.475839e-01 4.742701e-01 5.025535e-01 5.276807e-01 5.541322e-01 5.773044e-01 6.015340e-01 6.224921e-01 6.442290e-01 6.628030e-01 6.818594e-01 6.979405e-01 7.141913e-01 7.277145e-01 7.410837e-01 7.520151e-01 7.624658e-01 7.707927e-01 7.783185e-01 7.840403e-01 7.886579e-01 7.917794e-01 7.935218e-01 7.940473e-01 7.929572e-01 7.908866e-01 7.870118e-01 7.823389e-01 7.757286e-01 7.684411e-01 7.591442e-01 7.492265e-01 7.372915e-01 7.247301e-01 7.102080e-01 6.949990e-01 6.779482e-01 6.601086e-01 6.406038e-01 6.201857e-01 5.983318e-01 5.754431e-01 5.513961e-01 5.262310e-01 5.002344e-01 4.731226e-01 4.455700e-01 4.170659e-01 3.886224e-01 3.596786e-01 3.315261e-01 3.038483e-01 2.781835e-01 2.549007e-01 2.357484e-01 2.221145e-01 2.153960e-01 2.171181e-01 2.267297e-01 2.443486e-01 2.677389e-01 2.962876e-01 3.281276e-01 3.625454e-01 3.987917e-01 4.357970e-01 4.739287e-01 5.114757e-01 5.498309e-01 5.865160e-01 6.238604e-01 6.586123e-01 6.939352e-01 7.258744e-01 7.583029e-01 7.866842e-01 8.154534e-01 8.396461e-01 8.640959e-01 8.835819e-01 9.031651e-01 9.175441e-01 9.318380e-01 9.408344e-01 9.495514e-01 9.530195e-01 9.560127e-01 9.539377e-01 9.512019e-01 9.436966e-01 9.353623e-01 9.226587e-01 9.089812e-01 8.914182e-01 8.727627e-01 8.507713e-01 8.275957e-01 8.016830e-01 7.745214e-01 7.452570e-01 7.147065e-01 6.827132e-01 6.494280e-01 6.153817e-01 5.800803e-01 5.447266e-01 5.082233e-01 4.724255e-01 4.357083e-01 
4.267259e-01 3.929691e-01 3.622420e-01 3.321964e-01 3.065898e-01 2.833494e-01 2.662334e-01 2.537287e-01 2.485101e-01 2.495020e-01 2.569420e-01 2.703008e-01 2.874507e-01 3.091513e-01 3.319486e-01 3.580931e-01 3.834474e-01 4.113788e-01 4.373538e-01 4.654226e-01 4.908446e-01 5.180160e-01 5.421560e-01 5.677531e-01 5.901426e-01 6.137052e-01 6.340365e-01 6.552449e-01 6.733156e-01 6.919483e-01 7.076289e-01 7.235380e-01 7.367505e-01 7.498448e-01 7.605477e-01 7.707811e-01 7.789572e-01 7.863185e-01 7.919650e-01 7.964693e-01 7.995902e-01 8.012710e-01 8.018700e-01 8.007727e-01 7.988496e-01 7.950256e-01 7.905741e-01 7.840772e-01 7.770854e-01 7.679703e-01 7.584237e-01 7.467459e-01 7.346339e-01 7.204532e-01 7.057780e-01 6.891647e-01 6.719538e-01 6.529994e-01 6.333229e-01 6.121560e-01 5.901508e-01 5.669626e-01 5.428675e-01 5.179531e-01 4.921653e-01 4.659944e-01 4.391655e-01 4.125078e-01 3.857152e-01 3.598683e-01 3.349152e-01 3.120842e-01 2.919293e-01 2.756395e-01 2.645317e-01 2.592026e-01 2.611412e-01 2.694832e-01 2.849980e-01 3.055988e-01 3.314366e-01 3.605064e-01 3.926324e-01 4.266680e-01 4.619813e-01 4.984653e-01 5.348231e-01 5.719719e-01 6.078415e-01 6.443020e-01 6.785069e-01 7.131754e-01 7.447590e-01 7.766930e-01 8.048542e-01 8.332374e-01 8.573051e-01 8.814398e-01 9.008666e-01 9.201790e-01 9.345438e-01 9.485937e-01 9.576073e-01 9.660975e-01 9.696062e-01 9.723875e-01 9.703743e-01 9.674451e-01 9.600254e-01 9.515251e-01 9.389383e-01 9.251356e-01 9.077325e-01 8.890100e-01 8.672374e-01 8.440741e-01 8.184601e-01 7.914152e-01 7.625556e-01 7.322571e-01 7.008082e-01 6.679493e-01 6.346310e-01 5.999822e-01 5.655992e-01 5.300452e-01 4.955401e-01 4.601631e-01 
4.551506e-01 4.232321e-01 3.945943e-01 3.667596e-01 3.434672e-01 3.224388e-01 3.072268e-01 2.960145e-01 2.912608e-01 2.917070e-01 2.977933e-01 3.090568e-01 3.238587e-01 3.429966e-01 3.633765e-01 3.871951e-01 4.104577e-01 4.364979e-01 4.607621e-01 4.873482e-01 5.113847e-01 5.374002e-01 5.604088e-01 5.850976e-01 6.065506e-01 6.293891e-01 6.489349e-01 6.695560e-01 6.869616e-01 7.051095e-01 7.202250e-01 7.357278e-01 7.484621e-01 7.612130e-01 7.715169e-01 7.814605e-01 7.893129e-01 7.964338e-01 8.018303e-01 8.061436e-01 8.090878e-01 8.106303e-01 8.111264e-01 8.099489e-01 8.079974e-01 8.041592e-01 7.997543e-01 7.933185e-01 7.864496e-01 7.774816e-01 7.681363e-01 7.567044e-01 7.448763e-01 7.310553e-01 7.167541e-01 7.006326e-01 6.838990e-01 6.655915e-01 6.465170e-01 6.261821e-01 6.049364e-01 5.828050e-01 5.596763e-01 5.360968e-01 5.115524e-01 4.870635e-01 4.618474e-01 4.372990e-01 4.125878e-01 3.893330e-01 3.669650e-01 3.471155e-01 3.298140e-01 3.163733e-01 3.075701e-01 3.038518e-01 3.064102e-01 3.143101e-01 3.286116e-01 3.472755e-01 3.710529e-01 3.977845e-01 4.278549e-01 4.597792e-01 4.933561e-01 5.281407e-01 5.631061e-01 5.989635e-01 6.337221e-01 6.692410e-01 7.025455e-01 7.365564e-01 7.673917e-01 7.988918e-01 8.264140e-01 8.545336e-01 8.780415e-01 9.020371e-01 9.209632e-01 9.402225e-01 9.541336e-01 9.681856e-01 9.767867e-01 9.853114e-01 9.884485e-01 9.912823e-01 9.889428e-01 9.860779e-01 9.783859e-01 9.699637e-01 9.571709e-01 9.434692e-01 9.259424e-01 9.073593e-01 8.855647e-01 8.626005e-01 8.370890e-01 8.103303e-01 7.817250e-01 7.518335e-01 7.208236e-01 6.885344e-01 6.558810e-01 6.220170e-01 5.885760e-01 5.540876e-01 5.208632e-01 4.869079e-01 
4.876522e-01 4.573446e-01 4.305742e-01 4.045398e-01 3.831180e-01 3.636911e-01 3.498151e-01 3.393203e-01 3.346983e-01 3.344336e-01 3.392661e-01 3.486086e-01 3.613176e-01 3.780620e-01 3.961869e-01 4.177152e-01 4.389317e-01 4.630171e-01 4.855497e-01 5.105449e-01 5.331504e-01 5.578918e-01 5.797230e-01 6.033927e-01 6.238745e-01 6.458932e-01 6.646359e-01 6.845919e-01 7.013350e-01 7.189390e-01 7.335139e-01 7.485700e-01 7.608741e-01 7.732594e-01 7.832367e-01 7.928860e-01 8.005119e-01 8.074054e-01 8.126744e-01 8.168262e-01 8.197415e-01 8.211908e-01 8.217566e-01 8.205584e-01 8.187750e-01 8.149943e-01 8.108554e-01 8.045621e-01 7.980564e-01 7.893238e-01 7.804391e-01 7.693441e-01 7.580754e-01 7.447035e-01 7.310653e-01 7.155179e-01 6.995602e-01 6.819684e-01 6.637987e-01 6.443429e-01 6.241565e-01 6.030962e-01 5.812176e-01 5.589380e-01 5.358822e-01 5.129639e-01 4.895272e-01 4.668540e-01 4.442436e-01 4.231518e-01 4.031429e-01 3.855759e-01 3.705950e-01 3.590903e-01 3.519355e-01 3.490852e-01 3.519541e-01 3.592425e-01 3.725130e-01 3.894722e-01 4.115443e-01 4.362125e-01 4.645477e-01 4.945454e-01 5.266618e-01 5.598427e-01 5.936869e-01 6.282805e-01 6.622222e-01 6.967709e-01 7.295013e-01 7.627742e-01 7.932191e-01 8.241543e-01 8.514200e-01 8.790969e-01 9.024429e-01 9.260767e-01 9.449059e-01 9.638528e-01 9.777108e-01 9.914781e-01 1.000056e+00 1.008311e+00 1.011448e+00 1.014024e+00 1.011707e+00 1.008601e+00 1.000958e+00 9.923232e-01 9.796184e-01 9.657492e-01 9.483646e-01 9.296812e-01 9.081033e-01 8.851317e-01 8.599357e-01 8.332919e-01 8.051294e-01 7.755077e-01 7.451013e-01 7.132743e-01 6.814230e-01 6.482559e-01 6.158578e-01 5.823464e-01 5.504459e-01 5.177859e-01 
5.218861e-01 4.931244e-01 4.680356e-01 4.436452e-01 4.238478e-01 4.058271e-01 3.930863e-01 3.832583e-01 3.788131e-01 3.781084e-01 3.820230e-01 3.899356e-01 4.009663e-01 4.157784e-01 4.319500e-01 4.514997e-01 4.708201e-01 4.931246e-01 5.139599e-01 5.374468e-01 5.585825e-01 5.820790e-01 6.026498e-01 6.252990e-01 6.446991e-01 6.658777e-01 6.836886e-01 7.029456e-01 7.188842e-01 7.358993e-01 7.497811e-01 7.643349e-01 7.760474e-01 7.880015e-01 7.974834e-01 8.067637e-01 8.139886e-01 8.205719e-01 8.255343e-01 8.294362e-01 8.321406e-01 8.334051e-01 8.338571e-01 8.325473e-01 8.307481e-01 8.269389e-01 8.228830e-01 8.166560e-01 8.103326e-01 8.017741e-01 7.931720e-01 7.823740e-01 7.714910e-01 7.585554e-01 7.454121e-01 7.304597e-01 7.151173e-01 6.983019e-01 6.808866e-01 6.624156e-01 6.431507e-01 6.233160e-01 6.025650e-01 5.817874e-01 5.601138e-01 5.390081e-01 5.172561e-01 4.967210e-01 4.761164e-01 4.574411e-01 4.396839e-01 4.246219e-01 4.118693e-01 4.025409e-01 3.970857e-01 3.955109e-01 3.990370e-01 4.063472e-01 4.191393e-01 4.350541e-01 4.558998e-01 4.789788e-01 5.058227e-01 5.341475e-01 5.648137e-01 5.964965e-01 6.290537e-01 6.624247e-01 6.952619e-01 7.288784e-01 7.606654e-01 7.932713e-01 8.229022e-01 8.533938e-01 8.799454e-01 9.073550e-01 9.300631e-01 9.535591e-01 9.718095e-01 9.907056e-01 1.004033e+00 1.017801e+00 1.025891e+00 1.034172e+00 1.036865e+00 1.039476e+00 1.036763e+00 1.033696e+00 1.025718e+00 1.017129e+00 1.004163e+00 9.903608e-01 9.728096e-01 9.542340e-01 9.326054e-01 9.098091e-01 8.847035e-01 8.583329e-01 8.304295e-01 8.012139e-01 7.712652e-01 7.400151e-01 7.088515e-01 6.764721e-01 6.450222e-01 6.125465e-01 5.818753e-01 5.505202e-01 
5.596605e-01 5.321565e-01 5.085131e-01 4.853778e-01 4.668625e-01 4.497959e-01 4.378336e-01 4.282872e-01 4.238001e-01 4.224713e-01 4.254576e-01 4.319425e-01 4.414058e-01 4.543448e-01 4.686761e-01 4.862708e-01 5.037588e-01 5.242515e-01 5.434066e-01 5.653161e-01 5.849715e-01 6.071369e-01 6.264263e-01 6.479669e-01 6.662664e-01 6.865242e-01 7.033947e-01 7.218849e-01 7.370261e-01 7.533997e-01 7.666151e-01 7.806313e-01 7.918012e-01 8.033068e-01 8.123666e-01 8.212790e-01 8.282020e-01 8.344948e-01 8.392765e-01 8.429666e-01 8.456125e-01 8.467482e-01 8.472648e-01 8.459160e-01 8.443041e-01 8.405537e-01 8.368065e-01 8.307451e-01 8.248495e-01 8.165729e-01 8.085154e-01 7.981253e-01 7.879025e-01 7.755115e-01 7.631449e-01 7.488856e-01 7.344415e-01 7.184808e-01 7.020959e-01 6.846564e-01 6.665704e-01 6.479600e-01 6.285586e-01 6.092127e-01 5.890820e-01 5.696206e-01 5.496158e-01 5.309154e-01 5.122348e-01 4.955012e-01 4.797310e-01 4.665257e-01 4.555745e-01 4.476930e-01 4.434915e-01 4.425884e-01 4.465229e-01 4.535553e-01 4.659133e-01 4.807679e-01 5.006401e-01 5.222507e-01 5.479499e-01 5.747418e-01 6.043425e-01 6.346332e-01 6.663141e-01 6.985169e-01 7.306862e-01 7.633668e-01 7.946708e-01 8.265450e-01 8.558400e-01 8.857615e-01 9.120861e-01 9.390423e-01 9.615992e-01 9.847172e-01 1.002866e+00 1.021426e+00 1.034681e+00 1.048131e+00 1.056168e+00 1.064134e+00 1.066787e+00 1.069084e+00 1.066348e+00 1.062973e+00 1.054997e+00 1.046122e+00 1.033197e+00 1.019153e+00 1.001700e+00 9.829537e-01 9.615048e-01 9.386374e-01 9.138193e-01 8.875086e-01 8.600286e-01 8.310350e-01 8.016741e-01 7.708387e-01 7.404540e-01 7.087085e-01 6.782483e-01 6.466421e-01 6.171739e-01 5.869145e-01 
5.988815e-01 5.725707e-01 5.501960e-01 5.282177e-01 5.108130e-01 4.946236e-01 4.833418e-01 4.741136e-01 4.696390e-01 4.678980e-01 4.701689e-01 4.755696e-01 4.837485e-01 4.951784e-01 5.079206e-01 5.238617e-01 5.396870e-01 5.585826e-01 5.761427e-01 5.966140e-01 6.148055e-01 6.357228e-01 6.536965e-01 6.741716e-01 6.912990e-01 7.106500e-01 7.264804e-01 7.441949e-01 7.584166e-01 7.741203e-01 7.865289e-01 7.999612e-01 8.104328e-01 8.214269e-01 8.298969e-01 8.383629e-01 8.448063e-01 8.507167e-01 8.551323e-01 8.585076e-01 8.609048e-01 8.618011e-01 8.621892e-01 8.606870e-01 8.590685e-01 8.552636e-01 8.516321e-01 8.456293e-01 8.399709e-01 8.318812e-01 8.241814e-01 8.141229e-01 8.043783e-01 7.924808e-01 7.807156e-01 7.671301e-01 7.534174e-01 7.383310e-01 7.228203e-01 7.064766e-01 6.894272e-01 6.721547e-01 6.539776e-01 6.362280e-01 6.175353e-01 5.999312e-01 5.815920e-01 5.649811e-01 5.481690e-01 5.336668e-01 5.198661e-01 5.088460e-01 4.997502e-01 4.937134e-01 4.909452e-01 4.912211e-01 4.958947e-01 5.032510e-01 5.155838e-01 5.299746e-01 5.492206e-01 5.698465e-01 5.945814e-01 6.201730e-01 6.486934e-01 6.778021e-01 7.084190e-01 7.395957e-01 7.707752e-01 8.026464e-01 8.330494e-01 8.643407e-01 8.928182e-01 9.223617e-01 9.479400e-01 9.746846e-01 9.965534e-01 1.019581e+00 1.037088e+00 1.055633e+00 1.068288e+00 1.081758e+00 1.089231e+00 1.097225e+00 1.099353e+00 1.101666e+00 1.098451e+00 1.095077e+00 1.086681e+00 1.077800e+00 1.064533e+00 1.050493e+00 1.032796e+00 1.014090e+00 9.925201e-01 9.697595e-01 9.449695e-01 9.188657e-01 8.915884e-01 8.629354e-01 8.339757e-01 8.036455e-01 7.738795e-01 7.428288e-01 7.132136e-01 6.825026e-01 6.540937e-01 6.249131e-01 
6.413440e-01 6.159270e-01 5.946116e-01 5.734442e-01 5.568926e-01 5.412232e-01 5.303756e-01 5.211648e-01 5.165393e-01 5.141986e-01 5.157043e-01 5.199434e-01 5.268702e-01 5.367704e-01 5.479813e-01 5.622518e-01 5.764589e-01 5.937195e-01 6.097042e-01 6.286769e-01 6.454036e-01 6.649987e-01 6.816449e-01 7.009766e-01 7.169185e-01 7.352893e-01 7.500726e-01 7.669480e-01 7.802564e-01 7.952408e-01 8.068669e-01 8.196824e-01 8.295027e-01 8.399709e-01 8.479231e-01 8.559483e-01 8.620117e-01 8.675660e-01 8.717441e-01 8.748521e-01 8.771578e-01 8.778834e-01 8.783281e-01 8.767614e-01 8.753476e-01 8.715953e-01 8.683137e-01 8.624918e-01 8.573237e-01 8.495541e-01 8.424793e-01 8.328904e-01 8.238994e-01 8.126307e-01 8.017433e-01 7.889548e-01 7.762425e-01 7.621291e-01 7.477436e-01 7.325547e-01 7.167613e-01 7.008274e-01 6.840439e-01 6.678098e-01 6.506506e-01 6.347153e-01 6.180348e-01 6.031913e-01 5.881128e-01 5.753728e-01 5.632721e-01 5.538424e-01 5.462377e-01 5.414028e-01 5.397117e-01 5.406006e-01 5.457938e-01 5.530912e-01 5.653940e-01 5.791436e-01 5.979668e-01 6.175812e-01 6.417117e-01 6.661523e-01 6.940583e-01 7.220510e-01 7.521408e-01 7.823354e-01 8.131091e-01 8.441683e-01 8.742818e-01 9.049254e-01 9.332069e-01 9.622380e-01 9.876860e-01 1.014014e+00 1.035793e+00 1.058459e+00 1.075895e+00 1.094100e+00 1.106687e+00 1.119811e+00 1.127211e+00 1.134839e+00 1.136889e+00 1.138815e+00 1.135522e+00 1.131749e+00 1.123288e+00 1.114016e+00 1.100714e+00 1.086319e+00 1.068642e+00 1.049648e+00 1.028179e+00 1.005232e+00 9.806503e-01 9.544930e-01 9.275586e-01 8.990136e-01 8.705540e-01 8.405156e-01 8.114221e-01 7.808585e-01 7.520893e-01 7.220541e-01 6.946422e-01 6.662889e-01 
6.851415e-01 6.605736e-01 6.401616e-01 6.197572e-01 6.039352e-01 5.887741e-01 5.783081e-01 5.691867e-01 5.644609e-01 5.617009e-01 5.625920e-01 5.659357e-01 5.718165e-01 5.804833e-01 5.903678e-01 6.032420e-01 6.159949e-01 6.318448e-01 6.463617e-01 6.640050e-01 6.793186e-01 6.977111e-01 7.130322e-01 7.312991e-01 7.460165e-01 7.634513e-01 7.771136e-01 7.931645e-01 8.054558e-01 8.197086e-01 8.304231e-01 8.425842e-01 8.516024e-01 8.614830e-01 8.687488e-01 8.762492e-01 8.817496e-01 8.868436e-01 8.905903e-01 8.933097e-01 8.953229e-01 8.957429e-01 8.960393e-01 8.942644e-01 8.928491e-01 8.890022e-01 8.858657e-01 8.800799e-01 8.752009e-01 8.676156e-01 8.609697e-01 8.517304e-01 8.433040e-01 8.325674e-01 8.223778e-01 8.103207e-01 7.984401e-01 7.852734e-01 7.718588e-01 7.578458e-01 7.431724e-01 7.286527e-01 7.131511e-01 6.985690e-01 6.828630e-01 6.687984e-01 6.537367e-01 6.409317e-01 6.275989e-01 6.169655e-01 6.066446e-01 5.992293e-01 5.932826e-01 5.901611e-01 5.898118e-01 5.919071e-01 5.979612e-01 6.058369e-01 6.184598e-01 6.321794e-01 6.508459e-01 6.699681e-01 6.936027e-01 7.172912e-01 7.445049e-01 7.716751e-01 8.009839e-01 8.304256e-01 8.603949e-01 8.908532e-01 9.201730e-01 9.503999e-01 9.779128e-01 1.006705e+00 1.031414e+00 1.057650e+00 1.078716e+00 1.101391e+00 1.118141e+00 1.136404e+00 1.148326e+00 1.161516e+00 1.168274e+00 1.175940e+00 1.177373e+00 1.179292e+00 1.175418e+00 1.171591e+00 1.162599e+00 1.153240e+00 1.139479e+00 1.124986e+00 1.106947e+00 1.087878e+00 1.066169e+00 1.043208e+00 1.018535e+00 9.924592e-01 9.656069e-01 9.372716e-01 9.090853e-01 8.794093e-01 8.507886e-01 8.207523e-01 7.926483e-01 7.632983e-01 7.367125e-01 7.091657e-01 
7.320491e-01 7.080355e-01 6.883486e-01 6.683968e-01 6.531045e-01 6.381503e-01 6.278815e-01 6.185925e-01 6.136341e-01 6.102683e-01 6.104802e-01 6.128124e-01 6.176370e-01 6.249997e-01 6.335737e-01 6.449965e-01 6.563125e-01 6.706932e-01 6.837479e-01 6.999934e-01 7.138861e-01 7.310000e-01 7.449791e-01 7.621029e-01 7.755766e-01 7.920010e-01 8.045283e-01 8.196894e-01 8.309617e-01 8.444312e-01 8.542504e-01 8.657225e-01 8.739782e-01 8.832567e-01 8.899032e-01 8.968863e-01 9.019214e-01 9.065867e-01 9.100317e-01 9.124194e-01 9.143021e-01 9.144991e-01 9.148400e-01 9.129646e-01 9.117689e-01 9.079584e-01 9.052120e-01 8.996133e-01 8.952870e-01 8.880515e-01 8.821099e-01 8.733938e-01 8.658112e-01 8.557790e-01 8.465608e-01 8.353947e-01 8.246035e-01 8.125158e-01 8.003014e-01 7.875518e-01 7.741846e-01 7.611012e-01 7.470064e-01 7.340095e-01 7.197996e-01 7.074262e-01 6.939244e-01 6.828464e-01 6.710858e-01 6.621116e-01 6.532904e-01 6.473308e-01 6.426983e-01 6.406801e-01 6.413459e-01 6.440731e-01 6.507757e-01 6.587702e-01 6.716895e-01 6.850740e-01 7.037753e-01 7.222451e-01 7.457754e-01 7.686563e-01 7.957323e-01 8.220796e-01 8.512813e-01 8.799781e-01 9.098940e-01 9.397292e-01 9.690445e-01 9.987739e-01 1.026313e+00 1.054710e+00 1.079453e+00 1.105359e+00 1.126448e+00 1.148815e+00 1.165560e+00 1.183500e+00 1.195380e+00 1.208202e+00 1.214877e+00 1.222118e+00 1.223430e+00 1.224866e+00 1.220844e+00 1.216492e+00 1.207343e+00 1.197443e+00 1.183538e+00 1.168526e+00 1.150384e+00 1.130856e+00 1.109117e+00 1.085793e+00 1.061192e+00 1.034886e+00 1.008232e+00 9.798246e-01 9.519824e-01 9.224082e-01 8.942841e-01 8.645238e-01 8.370586e-01 8.081381e-01 7.822987e-01 7.552861e-01 
7.802907e-01 7.568058e-01 7.377054e-01 7.181918e-01 7.033340e-01 6.886097e-01 6.785064e-01 6.691362e-01 6.639905e-01 6.601797e-01 6.598291e-01 6.613717e-01 6.653026e-01 6.716135e-01 6.790503e-01 6.892713e-01 6.993051e-01 7.124397e-01 7.241510e-01 7.391841e-01 7.517312e-01 7.677117e-01 7.803796e-01 7.964670e-01 8.086852e-01 8.241696e-01 8.355106e-01 8.498180e-01 8.599839e-01 8.726727e-01 8.814768e-01 8.922301e-01 8.995751e-01 9.081898e-01 9.140450e-01 9.204190e-01 9.247975e-01 9.289144e-01 9.318521e-01 9.337638e-01 9.353007e-01 9.351105e-01 9.352758e-01 9.331211e-01 9.319239e-01 9.279623e-01 9.253878e-01 9.197866e-01 9.158003e-01 9.087306e-01 9.032887e-01 8.949248e-01 8.879919e-01 8.785150e-01 8.700874e-01 8.596940e-01 8.498276e-01 8.387414e-01 8.275832e-01 8.160710e-01 8.038922e-01 7.922816e-01 7.795102e-01 7.682090e-01 7.554569e-01 7.449706e-01 7.330480e-01 7.239894e-01 7.138925e-01 7.069751e-01 6.998303e-01 6.958330e-01 6.927812e-01 6.924756e-01 6.944991e-01 6.985440e-01 7.062709e-01 7.150978e-01 7.286518e-01 7.423800e-01 7.613378e-01 7.797461e-01 8.032160e-01 8.257685e-01 8.525466e-01 8.784503e-01 9.071894e-01 9.354574e-01 9.648030e-01 9.943142e-01 1.022992e+00 1.052546e+00 1.079408e+00 1.107782e+00 1.131826e+00 1.157829e+00 1.178208e+00 1.200742e+00 1.216769e+00 1.234888e+00 1.246045e+00 1.259006e+00 1.264955e+00 1.272255e+00 1.272843e+00 1.274240e+00 1.269509e+00 1.265021e+00 1.255195e+00 1.245085e+00 1.230560e+00 1.215298e+00 1.196622e+00 1.176847e+00 1.154688e+00 1.131166e+00 1.106290e+00 1.079873e+00 1.053113e+00 1.024717e+00 9.969520e-01 9.675315e-01 9.396689e-01 9.102089e-01 8.831736e-01 8.546832e-01 8.294029e-01 8.029067e-01 
8.316173e-01 8.083739e-01 7.897054e-01 7.703454e-01 7.557596e-01 7.409985e-01 7.309134e-01 7.212314e-01 7.157862e-01 7.113485e-01 7.103662e-01 7.109851e-01 7.139893e-01 7.191487e-01 7.254360e-01 7.343723e-01 7.431161e-01 7.549249e-01 7.652790e-01 7.790167e-01 7.901946e-01 8.049549e-01 8.162801e-01 8.312435e-01 8.421719e-01 8.566330e-01 8.667573e-01 8.801369e-01 8.891778e-01 9.010259e-01 9.088153e-01 9.188079e-01 9.252684e-01 9.331997e-01 9.383206e-01 9.440914e-01 9.479051e-01 9.515078e-01 9.540669e-01 9.555675e-01 9.569246e-01 9.564438e-01 9.566349e-01 9.543291e-01 9.533636e-01 9.494093e-01 9.472659e-01 9.418471e-01 9.384787e-01 9.317805e-01 9.271259e-01 9.193326e-01 9.133363e-01 9.046351e-01 8.972726e-01 8.878610e-01 8.791691e-01 8.692660e-01 8.593747e-01 8.492342e-01 8.384003e-01 8.283272e-01 8.169642e-01 8.073296e-01 7.960313e-01 7.872857e-01 7.768349e-01 7.695150e-01 7.608661e-01 7.555875e-01 7.498098e-01 7.472390e-01 7.454084e-01 7.462085e-01 7.492526e-01 7.540048e-01 7.625298e-01 7.716451e-01 7.857978e-01 7.994430e-01 8.188596e-01 8.369153e-01 8.607740e-01 8.828295e-01 9.099800e-01 9.353572e-01 9.644767e-01 9.922707e-01 1.022002e+00 1.051132e+00 1.080181e+00 1.109449e+00 1.136644e+00 1.164800e+00 1.189116e+00 1.214925e+00 1.235497e+00 1.257814e+00 1.273944e+00 1.291777e+00 1.302943e+00 1.315517e+00 1.321381e+00 1.328179e+00 1.328598e+00 1.329382e+00 1.324412e+00 1.319225e+00 1.309115e+00 1.298257e+00 1.283434e+00 1.267422e+00 1.248466e+00 1.227989e+00 1.205607e+00 1.181476e+00 1.156466e+00 1.129572e+00 1.102796e+00 1.074080e+00 1.046435e+00 1.016863e+00 9.892589e-01 9.598110e-01 9.331578e-01 9.048155e-01 8.800038e-01 8.537404e-01 