# vtk DataFile Version 2.0
Comment goes here
ASCII

DATASET STRUCTURED_POINTS
FIELD FieldData 1
TIME 1 1 double
0.13000000
DIMENSIONS    128   128   1

ORIGIN    0.000   0.000   0.000
SPACING   0.039062 0.039062   1.000

POINT_DATA   16384
SCALARS uMag double
LOOKUP_TABLE default

1.667328e-01 1.372585e-01 1.116082e-01 8.148114e-02 5.595591e-02 2.546930e-02 3.342257e-04 3.023510e-02 5.473068e-02 8.512192e-02 1.087448e-01 1.387122e-01 1.612450e-01 1.905564e-01 2.117978e-01 2.402331e-01 2.599970e-01 2.873470e-01 3.054628e-01 3.315281e-01 3.478415e-01 3.724317e-01 3.868045e-01 4.097384e-01 4.220500e-01 4.431558e-01 4.533038e-01 4.724191e-01 4.803204e-01 4.972937e-01 5.028853e-01 5.175761e-01 5.208161e-01 5.330968e-01 5.339648e-01 5.437211e-01 5.422188e-01 5.493517e-01 5.455032e-01 5.499303e-01 5.437824e-01 5.454398e-01 5.370618e-01 5.359059e-01 5.253896e-01 5.213992e-01 5.088586e-01 5.020372e-01 4.876072e-01 4.779844e-01 4.618203e-01 4.494536e-01 4.317288e-01 4.167048e-01 3.976084e-01 3.800431e-01 3.597771e-01 3.398155e-01 3.185911e-01 2.964064e-01 2.744402e-01 2.502314e-01 2.277410e-01 2.017304e-01 1.789306e-01 1.513603e-01 1.284588e-01 9.958721e-02 7.678140e-02 4.687910e-02 2.435353e-02 6.300349e-03 2.837555e-02 5.949678e-02 8.096626e-02 1.122683e-01 1.329905e-01 1.641865e-01 1.840318e-01 2.148357e-01 2.336827e-01 2.638098e-01 2.815419e-01 3.107084e-01 3.272090e-01 3.551313e-01 3.702799e-01 3.966745e-01 4.103428e-01 4.349265e-01 4.469765e-01 4.694674e-01 4.797510e-01 4.998721e-01 5.082332e-01 5.257166e-01 5.319954e-01 5.465897e-01 5.506295e-01 5.621080e-01 5.637639e-01 5.719338e-01 5.710827e-01 5.757950e-01 5.723453e-01 5.735030e-01 5.674040e-01 5.649692e-01 5.562178e-01 5.502155e-01 5.388609e-01 5.293797e-01 5.155244e-01 5.027138e-01 4.865113e-01 4.705758e-01 4.522258e-01 4.334163e-01 4.131573e-01 3.917610e-01 3.698614e-01 3.461911e-01 3.229399e-01 2.973232e-01 2.730209e-01 2.457909e-01 2.207416e-01 1.922286e-01 
1.658811e-01 1.369794e-01 1.120986e-01 8.330627e-02 5.999444e-02 3.586904e-02 2.795636e-02 4.289433e-02 6.353964e-02 9.167548e-02 1.143273e-01 1.434399e-01 1.655006e-01 1.943276e-01 2.152594e-01 2.433622e-01 2.628876e-01 2.899841e-01 3.078986e-01 3.337585e-01 3.498920e-01 3.743098e-01 3.885163e-01 4.113022e-01 4.234564e-01 4.444334e-01 4.544302e-01 4.734327e-01 4.811872e-01 4.980611e-01 5.035091e-01 5.181126e-01 5.212114e-01 5.334153e-01 5.341440e-01 5.438331e-01 5.421934e-01 5.492678e-01 5.452838e-01 5.496604e-01 5.433791e-01 5.449933e-01 5.364848e-01 5.352924e-01 5.246493e-01 5.206286e-01 5.079661e-01 5.011200e-01 4.865748e-01 4.769327e-01 4.606622e-01 4.482818e-01 4.304621e-01 4.154308e-01 3.962547e-01 3.786905e-01 3.583653e-01 3.384171e-01 3.171617e-01 2.950104e-01 2.730537e-01 2.489134e-01 2.264948e-01 2.006205e-01 1.780001e-01 1.507160e-01 1.282198e-01 1.000531e-01 7.832956e-02 5.105886e-02 3.401920e-02 2.801457e-02 4.130030e-02 6.803352e-02 8.827358e-02 1.184504e-01 1.387257e-01 1.694099e-01 1.889904e-01 2.194877e-01 2.381215e-01 2.680276e-01 2.855545e-01 3.145375e-01 3.308232e-01 3.585763e-01 3.734929e-01 3.997202e-01 4.131368e-01 4.375485e-01 4.493277e-01 4.716389e-01 4.816353e-01 5.015683e-01 5.096298e-01 5.269184e-01 5.328906e-01 5.472860e-01 5.510184e-01 5.622979e-01 5.636524e-01 5.716279e-01 5.704883e-01 5.750158e-01 5.712971e-01 5.722850e-01 5.659427e-01 5.633580e-01 5.543943e-01 5.482666e-01 5.367353e-01 5.271570e-01 5.131640e-01 5.002878e-01 4.839894e-01 4.680223e-01 4.496201e-01 4.308154e-01 4.105496e-01 3.891973e-01 3.673391e-01 3.437562e-01 3.205997e-01 2.951225e-01 2.709793e-01 2.439597e-01 2.191592e-01 1.909728e-01 
1.760618e-01 1.482483e-01 1.249522e-01 9.869419e-02 7.906156e-02 6.097175e-02 5.554480e-02 6.287004e-02 7.776200e-02 1.012655e-01 1.218326e-01 1.490663e-01 1.702453e-01 1.981472e-01 2.186484e-01 2.462394e-01 2.655423e-01 2.923401e-01 3.101421e-01 3.358269e-01 3.519122e-01 3.762329e-01 3.904315e-01 4.131727e-01 4.253458e-01 4.463150e-01 4.563494e-01 4.753709e-01 4.831772e-01 5.000903e-01 5.056016e-01 5.202594e-01 5.234316e-01 5.357014e-01 5.365133e-01 5.462771e-01 5.447304e-01 5.518858e-01 5.480054e-01 5.524676e-01 5.463017e-01 5.480043e-01 5.396243e-01 5.385220e-01 5.280225e-01 5.240928e-01 5.115914e-01 5.048370e-01 4.904733e-01 4.809243e-01 4.648595e-01 4.525757e-01 4.349910e-01 4.200636e-01 4.011590e-01 3.837131e-01 3.637059e-01 3.439028e-01 3.230280e-01 3.010703e-01 2.795835e-01 2.557262e-01 2.339166e-01 2.084980e-01 1.867290e-01 1.602667e-01 1.391145e-01 1.126737e-01 9.351541e-02 7.057133e-02 5.865128e-02 5.318896e-02 6.039351e-02 7.960389e-02 9.690760e-02 1.241316e-01 1.432259e-01 1.725370e-01 1.915352e-01 2.213000e-01 2.396196e-01 2.691172e-01 2.864813e-01 3.152480e-01 3.314731e-01 3.591382e-01 3.740725e-01 4.003045e-01 4.138040e-01 4.382909e-01 4.502090e-01 4.726502e-01 4.828338e-01 5.029389e-01 5.112282e-01 5.287196e-01 5.349520e-01 5.495702e-01 5.535865e-01 5.650984e-01 5.667512e-01 5.749591e-01 5.741230e-01 5.788740e-01 5.754558e-01 5.766507e-01 5.705984e-01 5.681987e-01 5.595095e-01 5.535413e-01 5.422656e-01 5.328208e-01 5.190640e-01 5.062976e-01 4.902184e-01 4.743428e-01 4.561489e-01 4.374264e-01 4.173681e-01 3.961027e-01 3.744667e-01 3.509969e-01 3.281021e-01 3.027985e-01 2.789979e-01 2.522734e-01 2.279736e-01 2.003283e-01 
1.842996e-01 1.584290e-01 1.376447e-01 1.149547e-01 9.957115e-02 8.662312e-02 8.386465e-02 8.944429e-02 1.011164e-01 1.204457e-01 1.385309e-01 1.631514e-01 1.828670e-01 2.091550e-01 2.287224e-01 2.552384e-01 2.738865e-01 2.999210e-01 3.172270e-01 3.423451e-01 3.580312e-01 3.819184e-01 3.957803e-01 4.181842e-01 4.300629e-01 4.507677e-01 4.605377e-01 4.793522e-01 4.869162e-01 5.036689e-01 5.089553e-01 5.234914e-01 5.264534e-01 5.386342e-01 5.392492e-01 5.489519e-01 5.472216e-01 5.543399e-01 5.502901e-01 5.547356e-01 5.484163e-01 5.501199e-01 5.416052e-01 5.405190e-01 5.299073e-01 5.260069e-01 5.134204e-01 5.067074e-01 4.922921e-01 4.827967e-01 4.667218e-01 4.545060e-01 4.369631e-01 4.221236e-01 4.033267e-01 3.859991e-01 3.661857e-01 3.465506e-01 3.259850e-01 3.042801e-01 2.832652e-01 2.598108e-01 2.387171e-01 2.139800e-01 1.933253e-01 1.680985e-01 1.487805e-01 1.247539e-01 1.087907e-01 9.043496e-02 8.283177e-02 7.987946e-02 8.609319e-02 1.012561e-01 1.161860e-01 1.403035e-01 1.579579e-01 1.854335e-01 2.035235e-01 2.321489e-01 2.498143e-01 2.785543e-01 2.953887e-01 3.236194e-01 3.393780e-01 3.666418e-01 3.811428e-01 4.070580e-01 4.201427e-01 4.443662e-01 4.558820e-01 4.780940e-01 4.878863e-01 5.077839e-01 5.156946e-01 5.329925e-01 5.388622e-01 5.532969e-01 5.569707e-01 5.683073e-01 5.696431e-01 5.776844e-01 5.765624e-01 5.811577e-01 5.774903e-01 5.785441e-01 5.722856e-01 5.697644e-01 5.609178e-01 5.548542e-01 5.434762e-01 5.339694e-01 5.201723e-01 5.073860e-01 4.913362e-01 4.754933e-01 4.574079e-01 4.387844e-01 4.189270e-01 3.978455e-01 3.765225e-01 3.533502e-01 3.309129e-01 3.060682e-01 2.829264e-01 2.569101e-01 2.335784e-01 2.070664e-01 
2.017966e-01 1.775308e-01 1.587675e-01 1.384391e-01 1.254121e-01 1.141911e-01 1.115980e-01 1.147993e-01 1.237362e-01 1.392423e-01 1.549262e-01 1.768142e-01 1.950300e-01 2.195784e-01 2.382310e-01 2.636252e-01 2.816985e-01 3.069905e-01 3.239244e-01 3.485434e-01 3.639838e-01 3.875366e-01 4.012353e-01 4.234215e-01 4.351931e-01 4.557661e-01 4.654693e-01 4.842176e-01 4.917452e-01 5.084829e-01 5.137575e-01 5.283194e-01 5.312911e-01 5.435305e-01 5.441758e-01 5.539635e-01 5.522843e-01 5.595088e-01 5.555326e-01 5.601009e-01 5.538802e-01 5.557192e-01 5.473318e-01 5.463904e-01 5.359391e-01 5.321906e-01 5.198034e-01 5.132483e-01 4.990782e-01 4.897476e-01 4.739726e-01 4.619316e-01 4.447549e-01 4.301076e-01 4.117583e-01 3.946538e-01 3.753900e-01 3.560321e-01 3.361481e-01 3.148137e-01 2.946570e-01 2.717341e-01 2.517462e-01 2.278192e-01 2.086310e-01 1.846925e-01 1.673591e-01 1.453488e-01 1.318896e-01 1.158628e-01 1.099037e-01 1.062611e-01 1.107696e-01 1.217387e-01 1.341321e-01 1.546406e-01 1.705488e-01 1.956913e-01 2.126733e-01 2.398370e-01 2.567809e-01 2.846045e-01 3.009605e-01 3.286295e-01 3.440786e-01 3.710246e-01 3.853453e-01 4.111193e-01 4.241305e-01 4.483454e-01 4.598800e-01 4.821843e-01 4.920764e-01 5.121427e-01 5.202235e-01 5.377456e-01 5.438446e-01 5.585401e-01 5.624906e-01 5.741074e-01 5.757548e-01 5.840799e-01 5.832920e-01 5.881614e-01 5.848395e-01 5.861469e-01 5.802357e-01 5.779407e-01 5.694368e-01 5.635691e-01 5.525265e-01 5.431871e-01 5.297196e-01 5.170792e-01 5.013595e-01 4.856535e-01 4.679109e-01 4.494339e-01 4.299507e-01 4.090524e-01 3.881630e-01 3.652490e-01 3.433463e-01 3.188929e-01 2.964509e-01 2.710506e-01 2.486859e-01 2.231667e-01 
2.170981e-01 1.950145e-01 1.787704e-01 1.612756e-01 1.509497e-01 1.420298e-01 1.405973e-01 1.433391e-01 1.510655e-01 1.641012e-01 1.778903e-01 1.972675e-01 2.138871e-01 2.364622e-01 2.539116e-01 2.778282e-01 2.949918e-01 3.191739e-01 3.353976e-01 3.591720e-01 3.740373e-01 3.969407e-01 4.101571e-01 4.318418e-01 4.431970e-01 4.633840e-01 4.727186e-01 4.911736e-01 4.983690e-01 5.148894e-01 5.198611e-01 5.342692e-01 5.369631e-01 5.491023e-01 5.494933e-01 5.592262e-01 5.573166e-01 5.645251e-01 5.603440e-01 5.649291e-01 5.585325e-01 5.604160e-01 5.518864e-01 5.510128e-01 5.404593e-01 5.367984e-01 5.243572e-01 5.179072e-01 5.037414e-01 4.945334e-01 4.788340e-01 4.669364e-01 4.499229e-01 4.354479e-01 4.173710e-01 4.004837e-01 3.816301e-01 3.625629e-01 3.432665e-01 3.223451e-01 3.030107e-01 2.807048e-01 2.618578e-01 2.388875e-01 2.212786e-01 1.988436e-01 1.836584e-01 1.639007e-01 1.530842e-01 1.396846e-01 1.358807e-01 1.332651e-01 1.378948e-01 1.472601e-01 1.584274e-01 1.765686e-01 1.911679e-01 2.143323e-01 2.302409e-01 2.559504e-01 2.720240e-01 2.988011e-01 3.144209e-01 3.413301e-01 3.561279e-01 3.825120e-01 3.962373e-01 4.215859e-01 4.340423e-01 4.579261e-01 4.689393e-01 4.909775e-01 5.003793e-01 5.202242e-01 5.278467e-01 5.451775e-01 5.508530e-01 5.653774e-01 5.689430e-01 5.804029e-01 5.817086e-01 5.898880e-01 5.888069e-01 5.935417e-01 5.899807e-01 5.911680e-01 5.850783e-01 5.826831e-01 5.740684e-01 5.681289e-01 5.570513e-01 5.476797e-01 5.342624e-01 5.216433e-01 5.060707e-01 4.904569e-01 4.729730e-01 4.546814e-01 4.355886e-01 4.149985e-01 3.946601e-01 3.722194e-01 3.510714e-01 3.273202e-01 3.059030e-01 2.815331e-01 2.605657e-01 2.365575e-01 
2.395160e-01 2.187304e-01 2.039964e-01 1.878278e-01 1.786671e-01 1.701881e-01 1.686711e-01 1.700813e-01 1.763993e-01 1.870010e-01 1.990512e-01 2.160577e-01 2.312354e-01 2.519387e-01 2.683320e-01 2.908664e-01 3.072791e-01 3.304596e-01 3.461481e-01 3.692025e-01 3.836814e-01 4.060733e-01 4.190070e-01 4.403377e-01 4.514839e-01 4.714386e-01 4.806185e-01 4.989375e-01 5.060200e-01 5.224819e-01 5.273751e-01 5.417880e-01 5.444343e-01 5.566304e-01 5.570033e-01 5.668361e-01 5.649389e-01 5.722821e-01 5.681466e-01 5.728944e-01 5.665806e-01 5.686486e-01 5.602444e-01 5.595716e-01 5.491932e-01 5.457451e-01 5.335369e-01 5.273094e-01 5.134450e-01 5.044686e-01 4.891513e-01 4.774978e-01 4.609625e-01 4.467523e-01 4.292682e-01 4.126819e-01 3.945591e-01 3.758548e-01 3.574563e-01 3.369999e-01 3.187664e-01 2.970866e-01 2.795830e-01 2.574765e-01 2.414785e-01 2.202050e-01 2.068388e-01 1.884329e-01 1.793034e-01 1.667935e-01 1.637296e-01 1.603500e-01 1.642042e-01 1.710874e-01 1.806644e-01 1.959480e-01 2.090040e-01 2.298009e-01 2.444819e-01 2.684582e-01 2.836049e-01 3.091819e-01 3.241132e-01 3.502299e-01 3.645284e-01 3.904282e-01 4.038120e-01 4.289120e-01 4.411647e-01 4.649829e-01 4.759162e-01 4.980313e-01 5.074655e-01 5.274961e-01 5.352513e-01 5.528477e-01 5.587426e-01 5.735857e-01 5.774423e-01 5.892492e-01 5.909009e-01 5.994332e-01 5.987362e-01 6.038106e-01 6.006564e-01 6.021548e-01 5.964813e-01 5.943594e-01 5.861614e-01 5.804541e-01 5.697898e-01 5.606128e-01 5.476074e-01 5.351561e-01 5.200025e-01 5.045477e-01 4.875052e-01 4.693890e-01 4.507831e-01 4.304186e-01 4.106436e-01 3.885227e-01 3.680560e-01 3.447757e-01 3.242102e-01 3.005334e-01 2.806472e-01 2.576287e-01 
2.599094e-01 2.409998e-01 2.282932e-01 2.140669e-01 2.066452e-01 1.994213e-01 1.986238e-01 1.998307e-01 2.056067e-01 2.147272e-01 2.255336e-01 2.405945e-01 2.544241e-01 2.732758e-01 2.884735e-01 3.094393e-01 3.248542e-01 3.467628e-01 3.616257e-01 3.836662e-01 3.974538e-01 4.190446e-01 4.313882e-01 4.520916e-01 4.627235e-01 4.821938e-01 4.909170e-01 5.088703e-01 5.155414e-01 5.317375e-01 5.362566e-01 5.504885e-01 5.527936e-01 5.648810e-01 5.649444e-01 5.747304e-01 5.725560e-01 5.799053e-01 5.755282e-01 5.803267e-01 5.738117e-01 5.759677e-01 5.674095e-01 5.668556e-01 5.563790e-01 5.530751e-01 5.408356e-01 5.347736e-01 5.209580e-01 5.121673e-01 4.969952e-01 4.855501e-01 4.692761e-01 4.553057e-01 4.382232e-01 4.219253e-01 4.043743e-01 3.860369e-01 3.684171e-01 3.484533e-01 3.312494e-01 3.102577e-01 2.940818e-01 2.729488e-01 2.586081e-01 2.386724e-01 2.272467e-01 2.104893e-01 2.033223e-01 1.923378e-01 1.906844e-01 1.878845e-01 1.920937e-01 1.982406e-01 2.072878e-01 2.210701e-01 2.332290e-01 2.524321e-01 2.661694e-01 2.887736e-01 3.030345e-01 3.275248e-01 3.416413e-01 3.669259e-01 3.804706e-01 4.057409e-01 4.184210e-01 4.430455e-01 4.546381e-01 4.780946e-01 4.884092e-01 5.102449e-01 5.191024e-01 5.389117e-01 5.461349e-01 5.635494e-01 5.689608e-01 5.836477e-01 5.870739e-01 5.987408e-01 6.000204e-01 6.084236e-01 6.074188e-01 6.123738e-01 6.089823e-01 6.103740e-01 6.045413e-01 6.023324e-01 5.940616e-01 5.882979e-01 5.776567e-01 5.684690e-01 5.555936e-01 5.431956e-01 5.282924e-01 5.129773e-01 4.963221e-01 4.784593e-01 4.603984e-01 4.404348e-01 4.213904e-01 3.998610e-01 3.803462e-01 3.579032e-01 3.385557e-01 3.160285e-01 2.976711e-01 2.761749e-01 
2.856753e-01 2.675982e-01 2.558789e-01 2.422865e-01 2.354554e-01 2.282144e-01 2.272731e-01 2.275187e-01 2.324276e-01 2.398793e-01 2.494786e-01 2.626802e-01 2.753296e-01 2.924914e-01 3.066975e-01 3.262707e-01 3.409038e-01 3.617193e-01 3.759793e-01 3.971860e-01 4.105096e-01 4.314804e-01 4.434644e-01 4.637218e-01 4.740724e-01 4.932389e-01 5.017405e-01 5.195074e-01 5.260044e-01 5.421117e-01 5.464970e-01 5.607221e-01 5.629301e-01 5.750797e-01 5.750822e-01 5.849883e-01 5.827913e-01 5.903083e-01 5.859506e-01 5.909555e-01 5.845075e-01 5.868998e-01 5.784636e-01 5.781681e-01 5.678773e-01 5.648473e-01 5.528678e-01 5.470903e-01 5.336214e-01 5.251234e-01 5.103989e-01 4.992560e-01 4.835469e-01 4.698945e-01 4.535122e-01 4.375614e-01 4.208645e-01 4.029246e-01 3.863310e-01 3.668449e-01 3.508511e-01 3.304516e-01 3.156636e-01 2.952594e-01 2.824326e-01 2.633252e-01 2.533902e-01 2.373690e-01 2.313667e-01 2.205978e-01 2.193910e-01 2.158143e-01 2.195882e-01 2.239716e-01 2.319780e-01 2.435573e-01 2.544921e-01 2.716022e-01 2.841909e-01 3.050761e-01 3.183551e-01 3.415513e-01 3.548678e-01 3.792456e-01 3.921650e-01 4.168564e-01 4.290765e-01 4.533924e-01 4.646826e-01 4.880513e-01 4.982139e-01 5.201396e-01 5.289872e-01 5.490261e-01 5.563699e-01 5.741177e-01 5.797651e-01 5.948547e-01 5.986132e-01 6.107191e-01 6.124057e-01 6.212536e-01 6.207073e-01 6.260862e-01 6.231829e-01 6.249566e-01 6.196229e-01 6.177409e-01 6.099664e-01 6.044697e-01 5.943153e-01 5.853392e-01 5.729422e-01 5.607142e-01 5.462895e-01 5.311249e-01 5.149648e-01 4.972627e-01 4.797364e-01 4.599798e-01 4.415379e-01 4.203027e-01 4.014897e-01 3.794707e-01 3.609521e-01 3.390143e-01 3.216226e-01 3.008828e-01 
3.099425e-01 2.933580e-01 2.832161e-01 2.709693e-01 2.653520e-01 2.588820e-01 2.584521e-01 2.585593e-01 2.631868e-01 2.696458e-01 2.784062e-01 2.901298e-01 3.017126e-01 3.172809e-01 3.304162e-01 3.484992e-01 3.621556e-01 3.816729e-01 3.950738e-01 4.151927e-01 4.277667e-01 4.478486e-01 4.591747e-01 4.787210e-01 4.884876e-01 5.070986e-01 5.150751e-01 5.324215e-01 5.384415e-01 5.542457e-01 5.581950e-01 5.722189e-01 5.740283e-01 5.860654e-01 5.857061e-01 5.955764e-01 5.930565e-01 6.006039e-01 5.959666e-01 6.010577e-01 5.943801e-01 5.969051e-01 5.882979e-01 5.881726e-01 5.777803e-01 5.749502e-01 5.629518e-01 5.573974e-01 5.440077e-01 5.357523e-01 5.212230e-01 5.103425e-01 4.949651e-01 4.816015e-01 4.657106e-01 4.500893e-01 4.340687e-01 4.165244e-01 4.008173e-01 3.818305e-01 3.669545e-01 3.472055e-01 3.337728e-01 3.142150e-01 3.029492e-01 2.848886e-01 2.766106e-01 2.617291e-01 2.572529e-01 2.474289e-01 2.473082e-01 2.441019e-01 2.483093e-01 2.523159e-01 2.601514e-01 2.707950e-01 2.811755e-01 2.971307e-01 3.089865e-01 3.287521e-01 3.412384e-01 3.634701e-01 3.759875e-01 3.995859e-01 4.117220e-01 4.358065e-01 4.472689e-01 4.711228e-01 4.816872e-01 5.047083e-01 5.141828e-01 5.358473e-01 5.440504e-01 5.638898e-01 5.706391e-01 5.882286e-01 5.933379e-01 6.082942e-01 6.115777e-01 6.235636e-01 6.248452e-01 6.335795e-01 6.327058e-01 6.379759e-01 6.348307e-01 6.365044e-01 6.310232e-01 6.290589e-01 6.212409e-01 6.156940e-01 6.056106e-01 5.966348e-01 5.844347e-01 5.722797e-01 5.581908e-01 5.431974e-01 5.275262e-01 5.101224e-01 4.932545e-01 4.739549e-01 4.563594e-01 4.357745e-01 4.180144e-01 3.968731e-01 3.796264e-01 3.588168e-01 3.429054e-01 3.235302e-01 
3.382667e-01 3.221153e-01 3.125767e-01 3.005440e-01 2.952120e-01 2.885111e-01 2.879101e-01 2.872238e-01 2.912438e-01 2.964496e-01 3.043418e-01 3.146013e-01 3.252577e-01 3.393834e-01 3.516652e-01 3.684632e-01 3.813910e-01 3.998323e-01 4.126335e-01 4.318889e-01 4.439758e-01 4.633896e-01 4.743201e-01 4.933708e-01 5.028139e-01 5.210789e-01 5.287895e-01 5.459192e-01 5.517205e-01 5.674200e-01 5.711920e-01 5.852079e-01 5.868795e-01 5.989919e-01 5.985350e-01 6.085518e-01 6.059779e-01 6.137313e-01 6.090890e-01 6.144345e-01 6.078080e-01 6.106248e-01 6.021336e-01 6.023270e-01 5.921260e-01 5.896317e-01 5.779119e-01 5.727022e-01 5.596919e-01 5.517844e-01 5.377500e-01 5.272185e-01 5.124665e-01 4.994552e-01 4.843344e-01 4.690768e-01 4.539818e-01 4.368260e-01 4.222029e-01 4.036456e-01 3.899997e-01 3.707320e-01 3.586352e-01 3.395978e-01 3.296864e-01 3.121158e-01 3.050577e-01 2.904717e-01 2.868688e-01 2.768954e-01 2.771033e-01 2.730942e-01 2.770292e-01 2.796016e-01 2.866996e-01 2.955509e-01 3.049544e-01 3.190949e-01 3.299226e-01 3.480866e-01 3.596058e-01 3.805567e-01 3.922248e-01 4.148857e-01 4.263184e-01 4.497895e-01 4.607100e-01 4.842397e-01 4.944328e-01 5.173796e-01 5.266572e-01 5.484573e-01 5.566358e-01 5.767803e-01 5.836679e-01 6.016910e-01 6.070850e-01 6.225610e-01 6.262520e-01 6.388012e-01 6.405843e-01 6.498849e-01 6.495751e-01 6.553779e-01 6.528279e-01 6.549716e-01 6.500896e-01 6.485136e-01 6.412782e-01 6.360305e-01 6.265017e-01 6.177409e-01 6.060660e-01 5.940584e-01 5.804733e-01 5.655861e-01 5.504137e-01 5.331081e-01 5.167564e-01 4.975842e-01 4.805464e-01 4.601543e-01 4.430148e-01 4.221605e-01 4.056068e-01 3.851879e-01 3.700256e-01 3.511131e-01 
3.658154e-01 3.508288e-01 3.425264e-01 3.314504e-01 3.270132e-01 3.208095e-01 3.205888e-01 3.197697e-01 3.236179e-01 3.280814e-01 3.353696e-01 3.444663e-01 3.542765e-01 3.670524e-01 3.784091e-01 3.938531e-01 4.058761e-01 4.230677e-01 4.350292e-01 4.531896e-01 4.645138e-01 4.830029e-01 4.932438e-01 5.115372e-01 5.203543e-01 5.380188e-01 5.451567e-01 5.618291e-01 5.671032e-01 5.824741e-01 5.857591e-01 5.995618e-01 6.007844e-01 6.127859e-01 6.119193e-01 6.219152e-01 6.189743e-01 6.267851e-01 6.218246e-01 6.272943e-01 6.204069e-01 6.234030e-01 6.147187e-01 6.151352e-01 6.048215e-01 6.025832e-01 5.908461e-01 5.859155e-01 5.729999e-01 5.653871e-01 5.515779e-01 5.413531e-01 5.269763e-01 5.142858e-01 4.997097e-01 4.847964e-01 4.704330e-01 4.536630e-01 4.399704e-01 4.218664e-01 4.093497e-01 3.906317e-01 3.798401e-01 3.614667e-01 3.529762e-01 3.361649e-01 3.305302e-01 3.167087e-01 3.143658e-01 3.049914e-01 3.061185e-01 3.023516e-01 3.067545e-01 3.091204e-01 3.162448e-01 3.245112e-01 3.336000e-01 3.469479e-01 3.572394e-01 3.745704e-01 3.854255e-01 4.056129e-01 4.165498e-01 4.385681e-01 4.492402e-01 4.722009e-01 4.823560e-01 5.054975e-01 5.149377e-01 5.375989e-01 5.461498e-01 5.677438e-01 5.752335e-01 5.952286e-01 6.014759e-01 6.193849e-01 6.241968e-01 6.395763e-01 6.427530e-01 6.552099e-01 6.565561e-01 6.657610e-01 6.651019e-01 6.708043e-01 6.680032e-01 6.700476e-01 6.650235e-01 6.633616e-01 6.561044e-01 6.508021e-01 6.413827e-01 6.326213e-01 6.211974e-01 6.092687e-01 5.960861e-01 5.813844e-01 5.667752e-01 5.497890e-01 5.341692e-01 5.154760e-01 4.993444e-01 4.796125e-01 4.635524e-01 4.435509e-01 4.282346e-01 4.088502e-01 3.950393e-01 3.772892e-01 
3.963775e-01 3.815109e-01 3.735320e-01 3.623984e-01 3.580563e-01 3.514971e-01 3.510815e-01 3.495530e-01 3.529324e-01 3.563823e-01 3.630170e-01 3.709254e-01 3.800110e-01 3.915671e-01 4.022178e-01 4.165191e-01 4.279044e-01 4.440924e-01 4.555015e-01 4.728229e-01 4.836774e-01 5.014958e-01 5.113389e-01 5.291221e-01 5.376008e-01 5.549031e-01 5.617517e-01 5.781962e-01 5.832229e-01 5.984868e-01 6.015631e-01 6.153666e-01 6.164192e-01 6.285171e-01 6.275218e-01 6.376973e-01 6.346746e-01 6.427357e-01 6.377471e-01 6.435248e-01 6.366718e-01 6.400202e-01 6.314429e-01 6.322423e-01 6.221199e-01 6.202817e-01 6.088328e-01 6.043072e-01 5.917907e-01 5.845775e-01 5.712923e-01 5.614545e-01 5.477395e-01 5.354204e-01 5.216530e-01 5.070970e-01 4.936914e-01 4.772695e-01 4.646732e-01 4.469126e-01 4.356008e-01 4.172175e-01 4.076806e-01 3.896065e-01 3.823253e-01 3.657104e-01 3.611085e-01 3.472629e-01 3.456304e-01 3.358675e-01 3.372704e-01 3.326528e-01 3.368726e-01 3.379536e-01 3.445122e-01 3.512213e-01 3.594953e-01 3.712318e-01 3.805939e-01 3.964463e-01 4.063628e-01 4.253220e-01 4.353859e-01 4.564802e-01 4.663971e-01 4.887495e-01 4.983052e-01 5.211412e-01 5.301648e-01 5.527972e-01 5.611315e-01 5.829395e-01 5.904186e-01 6.108303e-01 6.172672e-01 6.357494e-01 6.409332e-01 6.569913e-01 6.606927e-01 6.738795e-01 6.758648e-01 6.857965e-01 6.858469e-01 6.922234e-01 6.901580e-01 6.927830e-01 6.884812e-01 6.872792e-01 6.807001e-01 6.757258e-01 6.669222e-01 6.583621e-01 6.474874e-01 6.356537e-01 6.229617e-01 6.082809e-01 5.941216e-01 5.771212e-01 5.619344e-01 5.432319e-01 5.275403e-01 5.078390e-01 4.922436e-01 4.723346e-01 4.575111e-01 4.382798e-01 4.249693e-01 4.073965e-01 
4.270034e-01 4.130381e-01 4.060324e-01 3.955843e-01 3.919148e-01 3.856691e-01 3.855311e-01 3.838481e-01 3.870957e-01 3.899335e-01 3.960985e-01 4.030456e-01 4.114414e-01 4.218387e-01 4.316944e-01 4.447795e-01 4.553480e-01 4.703648e-01 4.809830e-01 4.972407e-01 5.073512e-01 5.242448e-01 5.333957e-01 5.504051e-01 5.582401e-01 5.749196e-01 5.811676e-01 5.971342e-01 6.015984e-01 6.165201e-01 6.190693e-01 6.326556e-01 6.332167e-01 6.452110e-01 6.437627e-01 6.539366e-01 6.505048e-01 6.586543e-01 6.533086e-01 6.592519e-01 6.521038e-01 6.556819e-01 6.468841e-01 6.479629e-01 6.377090e-01 6.361856e-01 6.247103e-01 6.205208e-01 6.081005e-01 6.012323e-01 5.881839e-01 5.786910e-01 5.653709e-01 5.533926e-01 5.401932e-01 5.259767e-01 5.133218e-01 4.972484e-01 4.855854e-01 4.681990e-01 4.579873e-01 4.400215e-01 4.317135e-01 4.141080e-01 4.081165e-01 3.920040e-01 3.886530e-01 3.752863e-01 3.747461e-01 3.653436e-01 3.675683e-01 3.630940e-01 3.677971e-01 3.687544e-01 3.754536e-01 3.817999e-01 3.899193e-01 4.011411e-01 4.101230e-01 4.254102e-01 4.347879e-01 4.532122e-01 4.626330e-01 4.832710e-01 4.924818e-01 5.144761e-01 5.232940e-01 5.458697e-01 5.541482e-01 5.766057e-01 5.842067e-01 6.059063e-01 6.126798e-01 6.330276e-01 6.388006e-01 6.572414e-01 6.618153e-01 6.778350e-01 6.809931e-01 6.941294e-01 6.956510e-01 7.055119e-01 7.051920e-01 7.114771e-01 7.091491e-01 7.116710e-01 7.072284e-01 7.059282e-01 6.993431e-01 6.942988e-01 6.856351e-01 6.770606e-01 6.664794e-01 6.547158e-01 6.424762e-01 6.279773e-01 6.144310e-01 5.977484e-01 5.833326e-01 5.651018e-01 5.503309e-01 5.312632e-01 5.167207e-01 4.975996e-01 4.839278e-01 4.656064e-01 4.534887e-01 4.368788e-01 
4.597310e-01 4.456351e-01 4.387338e-01 4.280340e-01 4.243209e-01 4.176321e-01 4.172723e-01 4.149225e-01 4.177797e-01 4.197505e-01 4.254038e-01 4.313538e-01 4.391803e-01 4.485384e-01 4.578241e-01 4.699067e-01 4.799416e-01 4.940487e-01 5.041867e-01 5.196603e-01 5.293467e-01 5.455971e-01 5.543744e-01 5.708848e-01 5.783892e-01 5.947108e-01 6.006645e-01 6.164075e-01 6.206100e-01 6.354339e-01 6.377535e-01 6.513584e-01 6.517248e-01 6.638438e-01 6.622412e-01 6.726343e-01 6.690960e-01 6.775463e-01 6.721508e-01 6.784622e-01 6.713311e-01 6.753285e-01 6.666258e-01 6.681580e-01 6.580895e-01 6.570358e-01 6.458496e-01 6.421284e-01 6.301146e-01 6.236976e-01 6.111862e-01 6.021140e-01 5.894720e-01 5.778745e-01 5.654990e-01 5.516183e-01 5.399279e-01 5.241427e-01 5.135648e-01 4.964156e-01 4.873690e-01 4.695787e-01 4.624496e-01 4.449304e-01 4.400398e-01 4.238714e-01 4.214341e-01 4.077915e-01 4.078711e-01 3.978917e-01 4.003683e-01 3.949718e-01 3.995430e-01 3.992643e-01 4.054933e-01 4.104005e-01 4.177988e-01 4.275323e-01 4.356428e-01 4.495411e-01 4.579924e-01 4.752394e-01 4.837613e-01 5.035024e-01 5.119116e-01 5.333219e-01 5.414927e-01 5.638039e-01 5.716352e-01 5.941360e-01 6.015215e-01 6.235462e-01 6.303523e-01 6.512683e-01 6.573204e-01 6.765217e-01 6.816016e-01 6.985123e-01 7.023657e-01 7.164538e-01 7.188080e-01 7.296088e-01 7.301974e-01 7.373423e-01 7.359351e-01 7.391793e-01 7.356124e-01 7.348580e-01 7.290592e-01 7.243674e-01 7.163736e-01 7.079650e-01 6.979305e-01 6.861729e-01 6.743671e-01 6.597564e-01 6.465548e-01 6.296913e-01 6.155617e-01 5.971293e-01 5.826162e-01 5.633657e-01 5.490751e-01 5.298133e-01 5.163956e-01 4.979755e-01 4.861019e-01 4.694064e-01 
4.934569e-01 4.800426e-01 4.738951e-01 4.636715e-01 4.604525e-01 4.539335e-01 4.537562e-01 4.512123e-01 4.539388e-01 4.553599e-01 4.606176e-01 4.657315e-01 4.729758e-01 4.813145e-01 4.899125e-01 5.008982e-01 5.102046e-01 5.232249e-01 5.326358e-01 5.470953e-01 5.560779e-01 5.714259e-01 5.795307e-01 5.952718e-01 6.021354e-01 6.178295e-01 6.231718e-01 6.384301e-01 6.420484e-01 6.565265e-01 6.582894e-01 6.716805e-01 6.715200e-01 6.835484e-01 6.814540e-01 6.918694e-01 6.878820e-01 6.964559e-01 6.906642e-01 6.971872e-01 6.897251e-01 6.940072e-01 6.850525e-01 6.869260e-01 6.767005e-01 6.760259e-01 6.647951e-01 6.614718e-01 6.495436e-01 6.435244e-01 6.312464e-01 6.225561e-01 6.103103e-01 5.990676e-01 5.872618e-01 5.737040e-01 5.627596e-01 5.472688e-01 5.376041e-01 5.207307e-01 5.127392e-01 4.952191e-01 4.892416e-01 4.719954e-01 4.682861e-01 4.523882e-01 4.510770e-01 4.376763e-01 4.387364e-01 4.289257e-01 4.321588e-01 4.268121e-01 4.318680e-01 4.314967e-01 4.379293e-01 4.426153e-01 4.499597e-01 4.593886e-01 4.672306e-01 4.807988e-01 4.888154e-01 5.057586e-01 5.137253e-01 5.332238e-01 5.409970e-01 5.622431e-01 5.697299e-01 5.919567e-01 5.990826e-01 6.215689e-01 6.282486e-01 6.503106e-01 6.564274e-01 6.774096e-01 6.828033e-01 7.020749e-01 7.065409e-01 7.235027e-01 7.268012e-01 7.409031e-01 7.427777e-01 7.535458e-01 7.537485e-01 7.608154e-01 7.591355e-01 7.622697e-01 7.585619e-01 7.576886e-01 7.518961e-01 7.471072e-01 7.392778e-01 7.308270e-01 7.211194e-01 7.094072e-01 6.980892e-01 6.836386e-01 6.710777e-01 6.545090e-01 6.411590e-01 6.231652e-01 6.095501e-01 5.908780e-01 5.775741e-01 5.590090e-01 5.466242e-01 5.289752e-01 5.181219e-01 5.022013e-01 
5.284003e-01 5.146435e-01 5.084127e-01 4.977839e-01 4.944053e-01 4.873722e-01 4.869412e-01 4.837502e-01 4.861321e-01 4.867808e-01 4.916264e-01 4.958797e-01 5.026782e-01 5.101217e-01 5.182726e-01 5.283825e-01 5.372635e-01 5.494727e-01 5.584910e-01 5.722362e-01 5.808602e-01 5.956106e-01 6.033868e-01 6.186573e-01 6.252167e-01 6.405714e-01 6.456296e-01 6.606797e-01 6.640334e-01 6.784317e-01 6.799523e-01 6.933867e-01 6.930127e-01 7.052002e-01 7.029296e-01 7.136100e-01 7.094939e-01 7.184260e-01 7.125638e-01 7.195228e-01 7.120597e-01 7.168370e-01 7.079629e-01 7.103694e-01 7.003187e-01 7.001921e-01 6.892436e-01 6.864595e-01 6.749346e-01 6.694230e-01 6.576818e-01 6.494470e-01 6.378803e-01 6.270247e-01 6.160421e-01 6.027911e-01 5.928045e-01 5.775316e-01 5.689333e-01 5.521814e-01 5.453188e-01 5.278120e-01 5.229579e-01 5.055951e-01 5.029175e-01 4.867369e-01 4.862711e-01 4.723753e-01 4.740083e-01 4.634476e-01 4.669228e-01 4.605567e-01 4.655076e-01 4.638819e-01 4.698898e-01 4.731717e-01 4.798334e-01 4.878264e-01 4.948090e-01 5.070319e-01 5.141014e-01 5.298943e-01 5.369149e-01 5.555351e-01 5.624475e-01 5.831357e-01 5.899234e-01 6.119372e-01 6.185903e-01 6.412120e-01 6.476940e-01 6.702242e-01 6.764467e-01 6.981942e-01 7.040012e-01 7.242794e-01 7.294440e-01 7.475783e-01 7.518121e-01 7.671622e-01 7.701373e-01 7.821308e-01 7.835127e-01 7.916864e-01 7.911734e-01 7.952145e-01 7.925779e-01 7.923559e-01 7.874752e-01 7.830579e-01 7.759437e-01 7.675947e-01 7.583981e-01 7.465562e-01 7.355630e-01 7.208096e-01 7.084240e-01 6.914456e-01 6.781668e-01 6.597202e-01 6.461170e-01 6.269999e-01 6.136839e-01 5.947130e-01 5.823124e-01 5.643041e-01 5.534328e-01 5.371811e-01 