# vtk DataFile Version 2.0
Comment goes here
ASCII

DATASET STRUCTURED_POINTS
FIELD FieldData 1
TIME 1 1 double
0.15000000
DIMENSIONS    128   128   1

ORIGIN    0.000   0.000   0.000
SPACING   0.039062 0.039062   1.000

POINT_DATA   16384
SCALARS uMag double
LOOKUP_TABLE default

1.926963e-01 1.770011e-01 1.613988e-01 1.441679e-01 1.278680e-01 1.093190e-01 9.252191e-02 7.289244e-02 5.581458e-02 3.535876e-02 1.822947e-02 2.786078e-03 1.972853e-02 4.102896e-02 5.754171e-02 7.884891e-02 9.468955e-02 1.157274e-01 1.306595e-01 1.511596e-01 1.649584e-01 1.846658e-01 1.971244e-01 2.158031e-01 2.267378e-01 2.441758e-01 2.534312e-01 2.694445e-01 2.768974e-01 2.913325e-01 2.968949e-01 3.096308e-01 3.132507e-01 3.241988e-01 3.258604e-01 3.349632e-01 3.346854e-01 3.419141e-01 3.397480e-01 3.450994e-01 3.411244e-01 3.446172e-01 3.389373e-01 3.406084e-01 3.333477e-01 3.332485e-01 3.245469e-01 3.227399e-01 3.127495e-01 3.093061e-01 2.981871e-01 2.931853e-01 2.811034e-01 2.746268e-01 2.617507e-01 2.538877e-01 2.403869e-01 2.312304e-01 2.172733e-01 2.069208e-01 1.926735e-01 1.812266e-01 1.668507e-01 1.544152e-01 1.400664e-01 1.267517e-01 1.125772e-01 9.849492e-02 8.463169e-02 6.989462e-02 5.646643e-02 4.118660e-02 2.830171e-02 1.258863e-02 3.374879e-04 1.570360e-02 2.725015e-02 4.351953e-02 5.431119e-02 7.071524e-02 8.072214e-02 9.717297e-02 1.063841e-01 1.227981e-01 1.312185e-01 1.475137e-01 1.551600e-01 1.712527e-01 1.781477e-01 1.939483e-01 2.001147e-01 2.155236e-01 2.209779e-01 2.358816e-01 2.406277e-01 2.548963e-01 2.589214e-01 2.724075e-01 2.756788e-01 2.882185e-01 2.906827e-01 3.020984e-01 3.036835e-01 3.137893e-01 3.144084e-01 3.230169e-01 3.225739e-01 3.295038e-01 3.279007e-01 3.329848e-01 3.301293e-01 3.332225e-01 3.290349e-01 3.300209e-01 3.244406e-01 3.232367e-01 3.162277e-01 3.127883e-01 3.043421e-01 2.986605e-01 2.887983e-01 2.809065e-01 2.696797e-01 2.596474e-01 2.471372e-01 2.350694e-01 2.213849e-01 2.074196e-01 
1.925251e-01 1.769005e-01 1.614686e-01 1.443671e-01 1.283024e-01 1.099920e-01 9.357453e-02 7.445831e-02 5.820597e-02 3.942046e-02 2.590711e-02 1.929303e-02 2.796329e-02 4.577293e-02 6.119244e-02 8.162495e-02 9.709378e-02 1.177237e-01 1.324695e-01 1.527210e-01 1.664072e-01 1.859398e-01 1.983227e-01 2.168673e-01 2.277478e-01 2.450769e-01 2.542918e-01 2.702129e-01 2.776348e-01 2.919895e-01 2.975277e-01 3.101915e-01 3.137925e-01 3.246747e-01 3.263219e-01 3.353630e-01 3.350750e-01 3.422450e-01 3.400726e-01 3.453672e-01 3.413903e-01 3.448274e-01 3.391503e-01 3.407659e-01 3.335134e-01 3.333581e-01 3.246709e-01 3.228067e-01 3.128374e-01 3.093351e-01 2.982446e-01 2.931818e-01 2.811366e-01 2.745967e-01 2.617663e-01 2.538376e-01 2.403925e-01 2.311686e-01 2.172788e-01 2.068583e-01 1.926921e-01 1.811797e-01 1.669027e-01 1.544095e-01 1.401847e-01 1.268305e-01 1.128204e-01 9.874091e-02 8.511806e-02 7.049094e-02 5.748756e-02 4.267956e-02 3.093338e-02 1.818402e-02 1.415879e-02 2.167743e-02 3.148109e-02 4.659026e-02 5.699281e-02 7.301121e-02 8.284983e-02 9.911091e-02 1.082224e-01 1.245160e-01 1.328657e-01 1.490657e-01 1.566564e-01 1.726593e-01 1.795082e-01 1.952142e-01 2.013417e-01 2.166460e-01 2.220673e-01 2.368540e-01 2.415731e-01 2.557117e-01 2.597157e-01 2.730596e-01 2.763161e-01 2.887032e-01 2.911592e-01 3.024147e-01 3.039984e-01 3.139397e-01 3.145645e-01 3.230077e-01 3.225778e-01 3.293454e-01 3.277632e-01 3.326920e-01 3.298651e-01 3.328136e-01 3.286627e-01 3.295179e-01 3.239827e-01 3.226647e-01 3.157095e-01 3.121751e-01 3.037919e-01 2.980364e-01 2.882469e-01 2.803039e-01 2.691607e-01 2.591017e-01 2.466877e-01 2.346201e-01 2.210478e-01 2.071136e-01 
1.963703e-01 1.809354e-01 1.657963e-01 1.489955e-01 1.334027e-01 1.156373e-01 1.000596e-01 8.209966e-02 6.761193e-02 5.179814e-02 4.233517e-02 3.803582e-02 4.304349e-02 5.593814e-02 6.912349e-02 8.757919e-02 1.021588e-01 1.218737e-01 1.361796e-01 1.559371e-01 1.693679e-01 1.886098e-01 2.008257e-01 2.191920e-01 2.299518e-01 2.471707e-01 2.562907e-01 2.721457e-01 2.794875e-01 2.938063e-01 2.992731e-01 3.119228e-01 3.154580e-01 3.263424e-01 3.279275e-01 3.369839e-01 3.366369e-01 3.438330e-01 3.416048e-01 3.469350e-01 3.429058e-01 3.463871e-01 3.406620e-01 3.423298e-01 3.350345e-01 3.349390e-01 3.262155e-01 3.244183e-01 3.144206e-01 3.109923e-01 2.998834e-01 2.949016e-01 2.828502e-01 2.763984e-01 2.635772e-01 2.557446e-01 2.423281e-01 2.332098e-01 2.193738e-01 2.090719e-01 1.949932e-01 1.836184e-01 1.694760e-01 1.571517e-01 1.431308e-01 1.300023e-01 1.163073e-01 1.025668e-01 8.945990e-02 7.543207e-02 6.337540e-02 4.988872e-02 4.020905e-02 3.066296e-02 2.834866e-02 3.191204e-02 3.915756e-02 5.153592e-02 6.104613e-02 7.584501e-02 8.531003e-02 1.009130e-01 1.098306e-01 1.257318e-01 1.339627e-01 1.499250e-01 1.574329e-01 1.733029e-01 1.800884e-01 1.957408e-01 2.018171e-01 2.171321e-01 2.225113e-01 2.373627e-01 2.420474e-01 2.562966e-01 2.602733e-01 2.737661e-01 2.770019e-01 2.895686e-01 2.920100e-01 3.034679e-01 3.050424e-01 3.152010e-01 3.158209e-01 3.244886e-01 3.240574e-01 3.310492e-01 3.294687e-01 3.346147e-01 3.317924e-01 3.349458e-01 3.308027e-01 3.318466e-01 3.263236e-01 3.251758e-01 3.182391e-01 3.148561e-01 3.065006e-01 3.008791e-01 2.911309e-01 2.833084e-01 2.722260e-01 2.622805e-01 2.499553e-01 2.380049e-01 2.245624e-01 2.107666e-01 
1.998449e-01 1.847300e-01 1.702015e-01 1.539240e-01 1.392024e-01 1.223346e-01 1.081075e-01 9.179646e-02 7.956759e-02 6.671300e-02 6.019906e-02 5.729480e-02 6.117820e-02 7.084924e-02 8.192851e-02 9.798595e-02 1.113587e-01 1.296582e-01 1.432678e-01 1.621361e-01 1.751272e-01 1.937686e-01 2.056830e-01 2.236202e-01 2.341587e-01 2.510577e-01 2.600057e-01 2.756142e-01 2.828159e-01 2.969397e-01 3.022880e-01 3.147802e-01 3.182123e-01 3.289671e-01 3.304615e-01 3.394098e-01 3.389830e-01 3.460878e-01 3.437907e-01 3.490429e-01 3.449568e-01 3.483707e-01 3.426024e-01 3.442112e-01 3.368887e-01 3.367409e-01 3.280085e-01 3.261641e-01 3.161791e-01 3.127072e-01 3.016355e-01 2.966129e-01 2.846271e-01 2.781368e-01 2.654141e-01 2.575460e-01 2.442668e-01 2.351186e-01 2.214667e-01 2.111461e-01 1.973105e-01 1.859392e-01 1.721175e-01 1.598399e-01 1.462494e-01 1.332513e-01 1.201538e-01 1.067114e-01 9.448167e-02 8.110706e-02 7.043679e-02 5.836646e-02 5.088548e-02 4.352806e-02 4.253523e-02 4.488947e-02 5.075018e-02 6.080986e-02 6.933177e-02 8.270144e-02 9.162269e-02 1.063597e-01 1.149444e-01 1.302801e-01 1.382800e-01 1.538451e-01 1.611761e-01 1.767487e-01 1.833899e-01 1.988069e-01 2.047619e-01 2.198813e-01 2.251583e-01 2.398404e-01 2.444407e-01 2.585385e-01 2.624485e-01 2.758023e-01 2.789893e-01 2.914261e-01 2.938368e-01 3.051718e-01 3.067336e-01 3.167750e-01 3.174003e-01 3.259563e-01 3.255486e-01 3.324346e-01 3.308957e-01 3.359434e-01 3.331813e-01 3.362460e-01 3.321830e-01 3.331505e-01 3.277293e-01 3.265211e-01 3.197106e-01 3.162876e-01 3.080865e-01 3.024508e-01 2.928907e-01 2.850867e-01 2.742338e-01 2.643491e-01 2.523063e-01 2.404733e-01 2.273845e-01 2.137863e-01 
2.071772e-01 1.924446e-01 1.785474e-01 1.628475e-01 1.490301e-01 1.330837e-01 1.201816e-01 1.053471e-01 9.496145e-02 8.401874e-02 7.906413e-02 7.643510e-02 7.951838e-02 8.686621e-02 9.622653e-02 1.100418e-01 1.221808e-01 1.389778e-01 1.518047e-01 1.697008e-01 1.821776e-01 2.001759e-01 2.117297e-01 2.292308e-01 2.394986e-01 2.560969e-01 2.648282e-01 2.802282e-01 2.872464e-01 3.012269e-01 3.064130e-01 3.188097e-01 3.220940e-01 3.327898e-01 3.341474e-01 3.430656e-01 3.425116e-01 3.496102e-01 3.471957e-01 3.524622e-01 3.482696e-01 3.517157e-01 3.458540e-01 3.475110e-01 3.401107e-01 3.400254e-01 3.312341e-01 3.294652e-01 3.194436e-01 3.160593e-01 3.049777e-01 3.000538e-01 2.880900e-01 2.817098e-01 2.690470e-01 2.613015e-01 2.481286e-01 2.391185e-01 2.256304e-01 2.154698e-01 2.018709e-01 1.906935e-01 1.772046e-01 1.651768e-01 1.520500e-01 1.393982e-01 1.269506e-01 1.140252e-01 1.027171e-01 9.015617e-02 8.077515e-02 6.991824e-02 6.392457e-02 5.749358e-02 5.687163e-02 5.789444e-02 6.263797e-02 7.041313e-02 7.793066e-02 8.956561e-02 9.786035e-02 1.114367e-01 1.196239e-01 1.341873e-01 1.419117e-01 1.569651e-01 1.640878e-01 1.793344e-01 1.858082e-01 2.010403e-01 2.068563e-01 2.219038e-01 2.270651e-01 2.417688e-01 2.462747e-01 2.604722e-01 2.643085e-01 2.778266e-01 2.809600e-01 2.936125e-01 2.959889e-01 3.075780e-01 3.091235e-01 3.194444e-01 3.200698e-01 3.289182e-01 3.285250e-01 3.357051e-01 3.341939e-01 3.395275e-01 3.368059e-01 3.401409e-01 3.361316e-01 3.373492e-01 3.319970e-01 3.310167e-01 3.242943e-01 3.210783e-01 3.129902e-01 3.075454e-01 2.981313e-01 2.905107e-01 2.798482e-01 2.701527e-01 2.583608e-01 2.467434e-01 2.339892e-01 2.206644e-01 
2.140777e-01 1.998365e-01 1.868464e-01 1.718828e-01 1.592543e-01 1.444066e-01 1.330604e-01 1.197785e-01 1.112445e-01 1.019879e-01 9.843616e-02 9.624588e-02 9.912766e-02 1.050226e-01 1.131848e-01 1.250632e-01 1.360565e-01 1.512574e-01 1.632300e-01 1.799431e-01 1.918031e-01 2.089333e-01 2.200304e-01 2.368854e-01 2.468008e-01 2.629088e-01 2.713562e-01 2.863774e-01 2.931573e-01 3.068404e-01 3.118197e-01 3.239799e-01 3.270803e-01 3.375863e-01 3.387782e-01 3.475432e-01 3.468400e-01 3.538149e-01 3.512682e-01 3.564349e-01 3.521291e-01 3.554953e-01 3.495424e-01 3.511363e-01 3.436707e-01 3.435360e-01 3.347100e-01 3.329028e-01 3.228819e-01 3.194683e-01 3.084284e-01 3.034823e-01 2.916073e-01 2.852111e-01 2.726917e-01 2.649372e-01 2.519712e-01 2.429625e-01 2.297569e-01 2.196157e-01 2.063914e-01 1.952665e-01 1.822680e-01 1.703524e-01 1.578665e-01 1.454327e-01 1.338263e-01 1.213009e-01 1.110960e-01 9.922138e-02 9.122881e-02 8.136765e-02 7.680144e-02 7.115184e-02 7.118086e-02 7.170159e-02 7.602733e-02 8.236447e-02 8.919345e-02 9.942357e-02 1.071580e-01 1.196461e-01 1.274179e-01 1.411765e-01 1.485826e-01 1.630379e-01 1.699030e-01 1.846978e-01 1.909544e-01 2.058393e-01 2.114691e-01 2.262461e-01 2.312483e-01 2.457395e-01 2.501129e-01 2.641425e-01 2.678733e-01 2.812582e-01 2.843140e-01 2.968600e-01 2.991869e-01 3.106898e-01 3.122139e-01 3.224636e-01 3.230954e-01 3.318836e-01 3.315245e-01 3.386527e-01 3.372036e-01 3.424928e-01 3.398623e-01 3.431611e-01 3.392741e-01 3.404663e-01 3.352709e-01 3.342806e-01 3.277545e-01 3.245500e-01 3.167046e-01 3.113012e-01 3.021850e-01 2.946469e-01 2.843498e-01 2.747931e-01 2.634513e-01 2.520508e-01 2.398559e-01 2.268595e-01 
2.245844e-01 2.108156e-01 1.986174e-01 1.843079e-01 1.726915e-01 1.587405e-01 1.486282e-01 1.364564e-01 1.292006e-01 1.208980e-01 1.181136e-01 1.159124e-01 1.185122e-01 1.231960e-01 1.303926e-01 1.406425e-01 1.506295e-01 1.643923e-01 1.755547e-01 1.911605e-01 2.024055e-01 2.187179e-01 2.293430e-01 2.455992e-01 2.551389e-01 2.708084e-01 2.789431e-01 2.936429e-01 3.001514e-01 3.136003e-01 3.183357e-01 3.303282e-01 3.332042e-01 3.435947e-01 3.445777e-01 3.532694e-01 3.523719e-01 3.593087e-01 3.565830e-01 3.617420e-01 3.572749e-01 3.606601e-01 3.545672e-01 3.562034e-01 3.486234e-01 3.485519e-01 3.396419e-01 3.379165e-01 3.278477e-01 3.245321e-01 3.134866e-01 3.086534e-01 2.968222e-01 2.905530e-01 2.781353e-01 2.705226e-01 2.577265e-01 2.488776e-01 2.359231e-01 2.259666e-01 2.130913e-01 2.021885e-01 1.896580e-01 1.780231e-01 1.661503e-01 1.540881e-01 1.432669e-01 1.312441e-01 1.220050e-01 1.107818e-01 1.038599e-01 9.467036e-02 9.098051e-02 8.553005e-02 8.575251e-02 8.544900e-02 8.926107e-02 9.406668e-02 1.001840e-01 1.088639e-01 1.159880e-01 1.272112e-01 1.345102e-01 1.473190e-01 1.543540e-01 1.681285e-01 1.746908e-01 1.890234e-01 1.950251e-01 2.096273e-01 2.150401e-01 2.296848e-01 2.345045e-01 2.489910e-01 2.532156e-01 2.673487e-01 2.709650e-01 2.845436e-01 2.875190e-01 3.003309e-01 3.026106e-01 3.144331e-01 3.159410e-01 3.265460e-01 3.271897e-01 3.363509e-01 3.360287e-01 3.435320e-01 3.421420e-01 3.477949e-01 3.452444e-01 3.488857e-01 3.450997e-01 3.466070e-01 3.415362e-01 3.408321e-01 3.344589e-01 3.315145e-01 3.238576e-01 3.186956e-01 3.098143e-01 3.025109e-01 2.925091e-01 2.831983e-01 2.722307e-01 2.611124e-01 2.493954e-01 2.367520e-01 
2.346113e-01 2.214134e-01 2.102621e-01 1.967309e-01 1.863609e-01 1.734205e-01 1.647130e-01 1.537027e-01 1.478066e-01 1.404688e-01 1.385598e-01 1.365404e-01 1.391639e-01 1.430335e-01 1.495888e-01 1.584831e-01 1.676223e-01 1.799958e-01 1.903721e-01 2.047795e-01 2.153708e-01 2.307141e-01 2.408080e-01 2.562970e-01 2.654001e-01 2.804642e-01 2.882306e-01 3.024511e-01 3.086398e-01 3.217070e-01 3.261570e-01 3.378440e-01 3.404605e-01 3.506058e-01 3.513506e-01 3.598460e-01 3.587302e-01 3.655109e-01 3.625884e-01 3.676251e-01 3.629859e-01 3.662776e-01 3.600421e-01 3.616094e-01 3.539222e-01 3.538025e-01 3.448271e-01 3.430706e-01 3.329851e-01 3.296522e-01 3.186461e-01 3.138065e-01 3.020785e-01 2.958119e-01 2.835701e-01 2.759686e-01 2.634312e-01 2.546049e-01 2.420041e-01 2.320887e-01 2.196770e-01 2.088477e-01 1.969093e-01 1.854034e-01 1.742715e-01 1.624276e-01 1.525121e-01 1.408367e-01 1.326594e-01 1.219280e-01 1.161373e-01 1.074872e-01 1.047602e-01 9.957743e-02 1.002708e-01 9.960279e-02 1.033283e-01 1.072042e-01 1.129440e-01 1.205089e-01 1.272068e-01 1.373981e-01 1.443111e-01 1.562595e-01 1.629595e-01 1.760463e-01 1.823154e-01 1.961081e-01 2.018505e-01 2.160339e-01 2.212176e-01 2.355420e-01 2.401627e-01 2.544095e-01 2.584670e-01 2.724266e-01 2.759099e-01 2.893686e-01 2.922467e-01 3.049811e-01 3.072000e-01 3.189770e-01 3.204606e-01 3.310428e-01 3.316983e-01 3.408518e-01 3.405773e-01 3.480822e-01 3.467764e-01 3.524372e-01 3.500088e-01 3.536640e-01 3.500414e-01 3.515711e-01 3.467099e-01 3.460419e-01 3.399312e-01 3.370447e-01 3.297121e-01 3.246404e-01 3.161560e-01 3.089894e-01 2.994709e-01 2.903615e-01 2.799807e-01 2.691521e-01 2.581474e-01 2.459139e-01 
2.479805e-01 2.352585e-01 2.249223e-01 2.119928e-01 2.025661e-01 1.903473e-01 1.826437e-01 1.723739e-01 1.673624e-01 1.605210e-01 1.590943e-01 1.569889e-01 1.595110e-01 1.626278e-01 1.686283e-01 1.763858e-01 1.848024e-01 1.959956e-01 2.056753e-01 2.190434e-01 2.290309e-01 2.435258e-01 2.531104e-01 2.679301e-01 2.765992e-01 2.911436e-01 2.985305e-01 3.123511e-01 3.181982e-01 3.309605e-01 3.350956e-01 3.465537e-01 3.488754e-01 3.588539e-01 3.593209e-01 3.677014e-01 3.663250e-01 3.730355e-01 3.698718e-01 3.748774e-01 3.700205e-01 3.733155e-01 3.668909e-01 3.684922e-01 3.606506e-01 3.605919e-01 3.515035e-01 3.498316e-01 3.396817e-01 3.364536e-01 3.254394e-01 3.207220e-01 3.090508e-01 3.029216e-01 2.908106e-01 2.833614e-01 2.710391e-01 2.623816e-01 2.500917e-01 2.403666e-01 2.283740e-01 2.177659e-01 2.063664e-01 1.951260e-01 1.846602e-01 1.731411e-01 1.640112e-01 1.527243e-01 1.454074e-01 1.350889e-01 1.301170e-01 1.217627e-01 1.196097e-01 1.143440e-01 1.151766e-01 1.138466e-01 1.172930e-01 1.200384e-01 1.252878e-01 1.315690e-01 1.377469e-01 1.467494e-01 1.531877e-01 1.641518e-01 1.704339e-01 1.827642e-01 1.886657e-01 2.019190e-01 2.073374e-01 2.211783e-01 2.260794e-01 2.402376e-01 2.446183e-01 2.588552e-01 2.627182e-01 2.768042e-01 2.801409e-01 2.938416e-01 2.966219e-01 3.096914e-01 3.118602e-01 3.240419e-01 3.255198e-01 3.365517e-01 3.372413e-01 3.468659e-01 3.466600e-01 3.546360e-01 3.534285e-01 3.595427e-01 3.572392e-01 3.613170e-01 3.578450e-01 3.597591e-01 3.550761e-01 3.547528e-01 3.488530e-01 3.462753e-01 3.391945e-01 3.344054e-01 3.262250e-01 3.193294e-01 3.101812e-01 3.013512e-01 2.914241e-01 2.809087e-01 2.704604e-01 2.586045e-01 
2.608706e-01 2.487312e-01 2.394776e-01 2.272760e-01 2.190373e-01 2.076616e-01 2.011645e-01 1.917351e-01 1.877718e-01 1.815277e-01 1.807547e-01 1.787251e-01 1.813598e-01 1.839369e-01 1.895871e-01 1.963704e-01 2.041927e-01 2.142547e-01 2.232829e-01 2.355604e-01 2.449348e-01 2.584688e-01 2.675078e-01 2.815177e-01 2.897072e-01 3.035830e-01 3.105444e-01 3.238177e-01 3.292806e-01 3.415964e-01 3.453781e-01 3.564726e-01 3.584648e-01 3.681481e-01 3.683065e-01 3.764492e-01 3.747851e-01 3.813066e-01 3.778790e-01 3.827380e-01 3.776463e-01 3.808318e-01 3.742084e-01 3.757324e-01 3.677359e-01 3.676276e-01 3.584368e-01 3.567383e-01 3.465471e-01 3.433108e-01 3.323252e-01 3.276135e-01 3.160494e-01 3.099362e-01 2.980195e-01 2.905944e-01 2.785628e-01 2.699378e-01 2.580442e-01 2.483647e-01 2.368834e-01 2.263433e-01 2.155776e-01 2.044429e-01 1.947353e-01 1.833777e-01 1.751175e-01 1.640591e-01 1.576785e-01 1.476352e-01 1.435677e-01 1.354450e-01 1.340116e-01 1.287654e-01 1.299922e-01 1.283201e-01 1.318171e-01 1.338718e-01 1.389382e-01 1.443398e-01 1.502299e-01 1.583326e-01 1.644561e-01 1.746011e-01 1.805735e-01 1.922054e-01 1.978127e-01 2.104949e-01 2.156392e-01 2.290292e-01 2.336806e-01 2.474962e-01 2.516571e-01 2.656472e-01 2.693253e-01 2.832476e-01 2.864387e-01 3.000453e-01 3.027222e-01 3.157536e-01 3.178621e-01 3.300475e-01 3.315081e-01 3.425723e-01 3.432868e-01 3.529608e-01 3.528217e-01 3.608553e-01 3.597572e-01 3.659319e-01 3.637830e-01 3.679229e-01 3.646549e-01 3.666357e-01 3.622125e-01 3.619666e-01 3.563907e-01 3.539110e-01 3.472278e-01 3.425698e-01 3.348720e-01 3.281561e-01 3.195878e-01 3.110046e-01 3.017681e-01 2.915880e-01 2.819541e-01 2.705459e-01 
2.768782e-01 2.651656e-01 2.566768e-01 2.449732e-01 2.375556e-01 2.267174e-01 2.210213e-01 2.120748e-01 2.087641e-01 2.027881e-01 2.023732e-01 2.002365e-01 2.028594e-01 2.049146e-01 2.102385e-01 2.162049e-01 2.235236e-01 2.326563e-01 2.411277e-01 2.525054e-01 2.613396e-01 2.740758e-01 2.826160e-01 2.959521e-01 3.036852e-01 3.170069e-01 3.235468e-01 3.363720e-01 3.414394e-01 3.533978e-01 3.568035e-01 3.676177e-01 3.692498e-01 3.787192e-01 3.785328e-01 3.865199e-01 3.845284e-01 3.909461e-01 3.872130e-01 3.920147e-01 3.866454e-01 3.898154e-01 3.829496e-01 3.844955e-01 3.762998e-01 3.762464e-01 3.669079e-01 3.652924e-01 3.550139e-01 3.518842e-01 3.408803e-01 3.362942e-01 3.247897e-01 3.188174e-01 3.070470e-01 2.997754e-01 2.879854e-01 2.795259e-01 2.679770e-01 2.584764e-01 2.474483e-01 2.371047e-01 2.269011e-01 2.159851e-01 2.069379e-01 1.958219e-01 1.882900e-01 1.774807e-01 1.718337e-01 1.619956e-01 1.585649e-01 1.504983e-01 1.494811e-01 1.440022e-01 1.453403e-01 1.430597e-01 1.463799e-01 1.475025e-01 1.522050e-01 1.565140e-01 1.619600e-01 1.689802e-01 1.746457e-01 1.838328e-01 1.893629e-01 2.002187e-01 2.054114e-01 2.175196e-01 2.222839e-01 2.353034e-01 2.396168e-01 2.532575e-01 2.571302e-01 2.711276e-01 2.745751e-01 2.886691e-01 2.916924e-01 3.056130e-01 3.081872e-01 3.216481e-01 3.237174e-01 3.364181e-01 3.378982e-01 3.495317e-01 3.503169e-01 3.605831e-01 3.605576e-01 3.691780e-01 3.682284e-01 3.749613e-01 3.729896e-01 3.776426e-01 3.745779e-01 3.770171e-01 3.728240e-01 3.729804e-01 3.676659e-01 3.655379e-01 3.591556e-01 3.548103e-01 3.474639e-01 3.410387e-01 3.328852e-01 3.245916e-01 3.158468e-01 3.059793e-01 2.969260e-01 2.858775e-01 
2.924694e-01 2.813150e-01 2.738946e-01 2.628390e-01 2.565246e-01 2.463739e-01 2.417262e-01 2.334004e-01 2.309542e-01 2.253748e-01 2.255072e-01 2.233937e-01 2.261772e-01 2.278328e-01 2.329711e-01 2.381998e-01 2.451037e-01 2.533177e-01 2.612671e-01 2.716890e-01 2.799775e-01 2.918128e-01 2.998258e-01 3.123587e-01 3.195974e-01 3.322253e-01 3.383036e-01 3.505399e-01 3.551732e-01 3.666367e-01 3.696299e-01 3.800314e-01 3.812686e-01 3.903967e-01 3.898321e-01 3.975400e-01 3.951893e-01 4.013832e-01 3.973150e-01 4.019425e-01 3.962700e-01 3.993105e-01 3.921828e-01 3.936392e-01 3.852334e-01 3.851252e-01 3.756392e-01 3.739984e-01 3.636452e-01 3.605133e-01 3.495174e-01 3.449459e-01 3.335407e-01 3.275935e-01 3.160215e-01 3.087805e-01 2.972943e-01 2.888681e-01 2.777330e-01 2.682688e-01 2.577663e-01 2.474660e-01 2.378964e-01 2.270377e-01 2.187200e-01 2.076818e-01 2.009458e-01 1.902324e-01 1.853943e-01 1.756450e-01 1.729556e-01 1.649096e-01 1.644727e-01 1.588579e-01 1.605464e-01 1.579044e-01 1.613388e-01 1.618769e-01 1.665092e-01 1.700858e-01 1.753473e-01 1.815862e-01 1.870076e-01 1.954449e-01 2.007046e-01 2.108911e-01 2.158068e-01 2.273501e-01 2.318445e-01 2.444118e-01 2.484742e-01 2.617752e-01 2.654263e-01 2.791911e-01 2.824551e-01 2.964141e-01 2.992984e-01 3.131682e-01 3.156511e-01 3.291293e-01 3.311556e-01 3.439235e-01 3.454078e-01 3.571406e-01 3.579757e-01 3.683570e-01 3.684261e-01 3.771653e-01 3.763560e-01 3.832041e-01 3.814219e-01 3.861844e-01 3.833642e-01 3.859109e-01 3.820251e-01 3.822950e-01 3.773602e-01 3.753631e-01 3.694431e-01 3.652606e-01 3.584692e-01 3.522549e-01 3.447583e-01 3.367409e-01 3.287622e-01 3.192531e-01 3.110779e-01 3.004846e-01 
3.110091e-01 3.002081e-01 2.934739e-01 2.828050e-01 2.771915e-01 2.674268e-01 2.634304e-01 2.554196e-01 2.534901e-01 2.480578e-01 2.484910e-01 2.462713e-01 2.491011e-01 2.503739e-01 2.553286e-01 2.599532e-01 2.665131e-01 2.740013e-01 2.815210e-01 2.911909e-01 2.990179e-01 3.101400e-01 3.176887e-01 3.295804e-01 3.363630e-01 3.484332e-01 3.540654e-01 3.658269e-01 3.700226e-01 3.810890e-01 3.836518e-01 3.937277e-01 3.945421e-01 4.034104e-01 4.024336e-01 4.099430e-01 4.071956e-01 4.132480e-01 4.088060e-01 4.133451e-01 4.073300e-01 4.103310e-01 4.029016e-01 4.043626e-01 3.957061e-01 3.956414e-01 3.859660e-01 3.844016e-01 3.739302e-01 3.709014e-01 3.598680e-01 3.554198e-01 3.440666e-01 3.382570e-01 3.268340e-01 3.197397e-01 3.085056e-01 3.002314e-01 2.894545e-01 2.801453e-01 2.701054e-01 2.599618e-01 2.509494e-01 2.402469e-01 2.325583e-01 2.216673e-01 2.155914e-01 2.049940e-01 2.007842e-01 1.910738e-01 1.889004e-01 1.807442e-01 1.806325e-01 1.746801e-01 1.764584e-01 1.732098e-01 1.765100e-01 1.762045e-01 1.805346e-01 1.831278e-01 1.879856e-01 1.932200e-01 1.981887e-01 2.057015e-01 2.104940e-01 2.199048e-01 2.243615e-01 2.353181e-01 2.393801e-01 2.515694e-01 2.552428e-01 2.683805e-01 2.717019e-01 2.855132e-01 2.885200e-01 3.027211e-01 3.054294e-01 3.197138e-01 3.221052e-01 3.361392e-01 3.381561e-01 3.515835e-01 3.531325e-01 3.655874e-01 3.665497e-01 3.776750e-01 3.779206e-01 3.873885e-01 3.867924e-01 3.943234e-01 3.927810e-01 3.981596e-01 3.955997e-01 3.986844e-01 3.950786e-01 3.958072e-01 3.911758e-01 3.895657e-01 3.839805e-01 3.801279e-01 3.737133e-01 3.677915e-01 3.607257e-01 3.529861e-01 3.455024e-01 3.362793e-01 3.286696e-01 3.183903e-01 
3.292571e-01 3.189764e-01 3.132814e-01 3.031824e-01 2.985972e-01 2.893985e-01 2.863413e-01 2.788069e-01 2.776350e-01 2.724839e-01 2.734118e-01 2.711892e-01 2.742137e-01 2.751697e-01 2.800426e-01 2.840822e-01 2.903528e-01 2.970822e-01 3.041861e-01 3.130244e-01 3.203748e-01 3.306709e-01 3.377237e-01 3.488430e-01 3.551316e-01 3.665058e-01 3.716534e-01 3.828019e-01 3.865229e-01 3.970574e-01 3.991539e-01 4.087734e-01 4.091291e-01 4.176105e-01 4.161842e-01 4.233707e-01 4.201879e-01 4.259771e-01 4.211217e-01 4.254534e-01 4.190580e-01 4.219037e-01 4.141398e-01 4.154935e-01 4.065618e-01 4.064326e-01 3.965545e-01 3.949620e-01 3.843728e-01 3.813445e-01 3.702884e-01 3.658606e-01 3.545881e-01 3.488095e-01 3.375765e-01 3.305152e-01 3.195830e-01 3.113368e-01 3.009730e-01 2.916822e-01 2.821609e-01 2.720247e-01 2.636237e-01 2.529181e-01 2.459114e-01 2.350066e-01 2.296476e-01 2.190196e-01 2.155116e-01 2.057343e-01 2.041868e-01 1.958915e-01 1.962705e-01 1.900621e-01 1.921579e-01 1.885047e-01 1.919453e-01 1.910894e-01 1.954097e-01 1.973469e-01 2.020845e-01 2.066173e-01 2.113928e-01 2.182168e-01 2.227726e-01 2.315527e-01 2.357528e-01 2.461678e-01 2.499731e-01 2.617287e-01 2.651634e-01 2.779849e-01 2.811008e-01 2.947151e-01 2.975613e-01 3.116785e-01 3.142781e-01 3.285783e-01 3.309151e-01 3.450450e-01 3.470597e-01 3.606395e-01 3.622351e-01 3.748747e-01 3.759287e-01 3.872491e-01 3.876297e-01 3.972865e-01 3.968699e-01 4.045743e-01 4.032605e-01 4.087953e-01 4.065209e-01 4.097498e-01 4.064963e-01 4.073676e-01 4.031662e-01 4.017118e-01 3.966447e-01 3.929771e-01 3.871776e-01 3.814866e-01 3.751382e-01 3.676908e-01 3.610274e-01 3.521703e-01 3.454770e-01 3.356436e-01 
3.503356e-01 3.403263e-01 3.352339e-01 3.254199e-01 3.214343e-01 3.125062e-01 3.099967e-01 3.026695e-01 3.019362e-01 2.968684e-01 2.980757e-01 2.957619e-01 2.988814e-01 2.995544e-01 3.043467e-01 3.079361e-01 3.139849e-01 3.201510e-01 3.269343e-01 3.351562e-01 3.421237e-01 3.517995e-01 3.584317e-01 3.689592e-01 3.748031e-01 3.856321e-01 3.903180e-01 4.009764e-01 4.042231e-01 4.143264e-01 4.159398e-01 4.251886e-01 4.250576e-01 4.332297e-01 4.313198e-01 4.382589e-01 4.346043e-01 4.402072e-01 4.349021e-01 4.391069e-01 4.322957e-01 4.350704e-01 4.269369e-01 4.282710e-01 4.190283e-01 4.189249e-01 4.088066e-01 4.072780e-01 3.965307e-01 3.935964e-01 3.824743e-01 3.781621e-01 3.669242e-01 3.612743e-01 3.501823e-01 3.432549e-01 3.325734e-01 3.244590e-01 3.144542e-01 3.052872e-01 2.962249e-01 2.861986e-01 2.783394e-01 2.677225e-01 2.613104e-01 2.504604e-01 2.457042e-01 2.350741e-01 2.321187e-01 2.222454e-01 2.211358e-01 2.126018e-01 2.132485e-01 2.066121e-01 2.087759e-01 2.044850e-01 2.077998e-01 2.061205e-01 2.101548e-01 2.111500e-01 2.154865e-01 2.190477e-01 2.233500e-01 2.292608e-01 2.333071e-01 2.413052e-01 2.449903e-01 2.548075e-01 2.581210e-01 2.694986e-01 2.724913e-01 2.851741e-01 2.879222e-01 3.016422e-01 3.042141e-01 3.186715e-01 3.211026e-01 3.359533e-01 3.382311e-01 3.530843e-01 3.551443e-01 3.695723e-01 3.713051e-01 3.848639e-01 3.861290e-01 3.983856e-01 3.990307e-01 4.095915e-01 4.094731e-01 4.180101e-01 4.170123e-01 4.232814e-01 4.213306e-01 4.251825e-01 4.222571e-01 4.236403e-01 4.197747e-01 4.187322e-01 4.140173e-01 4.106810e-01 4.052616e-01 3.998457e-01 3.939174e-01 3.867147e-01 3.805211e-01 3.719024e-01 3.657327e-01 3.561500e-01 
3.713047e-01 3.617774e-01 3.576964e-01 3.483879e-01 3.453759e-01 3.369268e-01 3.352873e-01 3.283445e-01 3.283099e-01 3.234575e-01 3.251385e-01 3.228130e-01 3.261582e-01 3.265728e-01 3.313574e-01 3.344682e-01 3.403198e-01 3.458475e-01 3.522994e-01 3.597945e-01 3.663465e-01 3.752695e-01 3.814387e-01 3.912325e-01 3.965883e-01 4.067292e-01 4.109132e-01 4.209427e-01 4.236781e-01 4.332164e-01 4.343108e-01 4.430596e-01 4.424037e-01 4.501398e-01 4.477033e-01 4.542693e-01 4.500944e-01 4.553864e-01 4.495788e-01 4.535340e-01 4.462528e-01 4.488379e-01 4.402839e-01 4.414853e-01 4.318891e-01 4.317053e-01 4.213169e-01 4.197531e-01 4.088333e-01 4.058995e-01 3.947138e-01 3.904263e-01 3.792408e-01 3.736271e-01 3.627070e-01 3.558142e-01 3.454226e-01 3.373294e-01 3.277262e-01 3.185572e-01 3.099959e-01 2.999378e-01 2.926591e-01 2.819761e-01 2.761961e-01 2.652424e-01 2.611332e-01 2.503560e-01 2.480183e-01 2.379434e-01 2.373757e-01 2.285681e-01 2.296406e-01 2.226395e-01 2.250886e-01 2.203306e-01 2.237866e-01 2.215441e-01 2.255899e-01 2.259513e-01 2.301940e-01 2.330901e-01 2.372205e-01 2.424775e-01 2.463012e-01 2.536966e-01 2.571349e-01 2.664342e-01 2.695026e-01 2.804733e-01 2.832471e-01 2.956523e-01 2.982276e-01 3.118075e-01 3.142664e-01 3.287182e-01 3.311016e-01 3.460660e-01 3.483593e-01 3.634201e-01 3.655520e-01 3.802493e-01 3.821010e-01 3.959573e-01 3.973804e-01 4.099327e-01 4.107709e-01 4.216040e-01 4.217152e-01 4.304896e-01 4.297645e-01 4.362356e-01 4.346115e-01 4.386386e-01 4.361069e-01 4.376534e-01 4.342617e-01 4.333894e-01 4.292396e-01 4.260993e-01 4.213436e-01 4.161672e-01 4.110030e-01 4.040974e-01 3.987630e-01 3.905074e-01 3.852776e-01 3.761238e-01 
3.950214e-01 3.856816e-01 3.821245e-01 3.730125e-01 3.705206e-01 3.622570e-01 3.610974e-01 3.542954e-01 3.546601e-01 3.498638e-01 3.518282e-01 3.494400e-01 3.529318e-01 3.531488e-01 3.579409e-01 3.607266e-01 3.664598e-01 3.715609e-01 3.777893e-01 3.847904e-01 3.910345e-01 3.994287e-01 4.052227e-01 4.144784e-01 4.194042e-01 4.290170e-01 4.327258e-01 4.422512e-01 4.444747e-01 4.535445e-01 4.540992e-01 4.624249e-01 4.612115e-01 4.685788e-01 4.655783e-01 4.718365e-01 4.671040e-01 4.721532e-01 4.658088e-01 4.695871e-01 4.618050e-01 4.642774e-01 4.552739e-01 4.564223e-01 4.464434e-01 4.462593e-01 4.355694e-01 4.340497e-01 4.229221e-01 4.200672e-01 4.087779e-01 4.045932e-01 3.934163e-01 3.879182e-01 3.771235e-01 3.703483e-01 3.601992e-01 3.522151e-01 3.429662e-01 3.338880e-01 3.257797e-01 3.157845e-01 3.090349e-01 2.983761e-01 2.931666e-01 2.821836e-01 2.786401e-01 2.677585e-01 2.659270e-01 2.556429e-01 2.554660e-01 2.463098e-01 2.476120e-01 2.400936e-01 2.425864e-01 2.371325e-01 2.404462e-01 2.373503e-01 2.410893e-01 2.404924e-01 2.442976e-01 2.462041e-01 2.498047e-01 2.541216e-01 2.573623e-01 2.639428e-01 2.667844e-01 2.754590e-01 2.779569e-01 2.885439e-01 2.908117e-01 3.031087e-01 3.052772e-01 3.190405e-01 3.212178e-01 3.361401e-01 3.383825e-01 3.540781e-01 3.563735e-01 3.723795e-01 3.746466e-01 3.904402e-01 3.925397e-01 4.075717e-01 4.093273e-01 4.230619e-01 4.242864e-01 4.362431e-01 4.367646e-01 4.465525e-01 4.462376e-01 4.535787e-01 4.523491e-01 4.570886e-01 4.549303e-01 4.570350e-01 4.539995e-01 4.535487e-01 4.497491e-01 4.469208e-01 4.425243e-01 4.375824e-01 4.328018e-01 4.260850e-01 4.211708e-01 4.130865e-01 4.083191e-01 3.993398e-01 