# vtk DataFile Version 2.0
Comment goes here
ASCII

DATASET STRUCTURED_POINTS
FIELD FieldData 1
TIME 1 1 double
0.11500000
DIMENSIONS    128   128   1

ORIGIN    0.000   0.000   0.000
SPACING   0.039062 0.039062   1.000

POINT_DATA   16384
SCALARS uMag double
LOOKUP_TABLE default

4.155238e-01 3.616275e-01 3.088449e-01 2.545266e-01 2.016023e-01 1.473902e-01 9.482159e-02 4.119385e-02 1.057122e-02 6.318522e-02 1.137457e-01 1.649613e-01 2.139591e-01 2.634322e-01 3.105479e-01 3.579701e-01 4.029183e-01 4.480124e-01 4.905375e-01 5.330535e-01 5.729261e-01 6.126380e-01 6.496515e-01 6.863542e-01 7.203228e-01 7.538303e-01 7.845869e-01 8.147307e-01 8.421253e-01 8.687532e-01 8.926525e-01 9.156277e-01 9.359136e-01 9.551141e-01 9.716833e-01 9.870012e-01 9.997648e-01 1.011105e+00 1.019988e+00 1.027270e+00 1.032209e+00 1.035363e+00 1.036309e+00 1.035279e+00 1.032194e+00 1.026938e+00 1.019798e+00 1.010287e+00 9.990787e-01 9.852994e-01 9.700273e-01 9.519849e-01 9.326675e-01 9.103884e-01 8.870636e-01 8.605987e-01 8.333262e-01 8.027555e-01 7.716210e-01 7.370576e-01 7.021768e-01 6.637718e-01 6.252954e-01 5.832421e-01 5.413606e-01 4.958988e-01 4.508466e-01 4.022661e-01 3.543267e-01 3.029702e-01 2.524790e-01 1.987438e-01 1.460913e-01 9.043071e-02 3.606417e-02 2.101315e-02 7.658973e-02 1.345209e-01 1.907478e-01 2.489189e-01 3.051837e-01 3.629339e-01 4.185768e-01 4.752052e-01 5.295260e-01 5.843003e-01 6.365688e-01 6.887365e-01 7.382051e-01 7.870075e-01 8.329271e-01 8.776163e-01 9.192550e-01 9.591136e-01 9.957775e-01 1.030140e+00 1.061196e+00 1.089471e+00 1.114369e+00 1.136062e+00 1.154358e+00 1.169092e+00 1.180465e+00 1.187996e+00 1.192263e+00 1.192491e+00 1.189616e+00 1.182592e+00 1.172685e+00 1.158603e+00 1.141918e+00 1.121112e+00 1.098029e+00 1.070954e+00 1.041966e+00 1.009173e+00 9.748609e-01 9.369812e-01 8.979893e-01 8.557027e-01 8.127155e-01 7.667288e-01 7.204464e-01 6.714705e-01 6.225886e-01 5.713196e-01 5.205124e-01 4.676168e-01 
4.187046e-01 3.653320e-01 3.132498e-01 2.598913e-01 2.083920e-01 1.565450e-01 1.084950e-01 6.674893e-02 5.328818e-02 8.173159e-02 1.247674e-01 1.725825e-01 2.196937e-01 2.679815e-01 3.142416e-01 3.610704e-01 4.055149e-01 4.502557e-01 4.924394e-01 5.347241e-01 5.743451e-01 6.138971e-01 6.507159e-01 6.873047e-01 7.211187e-01 7.545442e-01 7.851769e-01 8.152621e-01 8.425582e-01 8.691455e-01 8.929683e-01 9.159173e-01 9.361468e-01 9.553330e-01 9.718646e-01 9.871782e-01 9.999218e-01 1.011267e+00 1.020147e+00 1.027442e+00 1.032393e+00 1.035569e+00 1.036542e+00 1.035541e+00 1.032498e+00 1.027278e+00 1.020193e+00 1.010725e+00 9.995848e-01 9.858571e-01 9.706637e-01 9.526816e-01 9.334539e-01 9.112450e-01 8.880212e-01 8.616385e-01 8.344798e-01 8.040069e-01 7.730022e-01 7.385581e-01 7.038295e-01 6.655752e-01 6.272852e-01 5.854314e-01 5.437926e-01 4.986119e-01 4.539034e-01 4.057541e-01 3.583599e-01 3.077543e-01 2.582916e-01 2.061820e-01 1.561890e-01 1.061569e-01 6.653857e-02 6.003308e-02 9.517854e-02 1.460156e-01 1.990846e-01 2.554162e-01 3.105351e-01 3.674734e-01 4.225284e-01 4.787033e-01 5.326620e-01 5.871475e-01 6.391648e-01 6.911324e-01 7.404107e-01 7.890667e-01 8.348319e-01 8.794099e-01 9.209167e-01 9.606890e-01 9.972359e-01 1.031531e+00 1.062481e+00 1.090704e+00 1.115505e+00 1.137160e+00 1.155367e+00 1.170074e+00 1.181368e+00 1.188884e+00 1.193082e+00 1.193307e+00 1.190375e+00 1.183358e+00 1.173409e+00 1.159348e+00 1.142637e+00 1.121864e+00 1.098774e+00 1.071745e+00 1.042772e+00 1.010042e+00 9.757687e-01 9.379700e-01 8.990456e-01 8.568628e-01 8.139765e-01 7.681229e-01 7.219833e-01 6.731808e-01 6.244980e-01 5.734628e-01 5.229377e-01 4.703761e-01 
4.296555e-01 3.775734e-01 3.271603e-01 2.762162e-01 2.281000e-01 1.816225e-01 1.419025e-01 1.128165e-01 1.050152e-01 1.216513e-01 1.537235e-01 1.944159e-01 2.371678e-01 2.824184e-01 3.266288e-01 3.718649e-01 4.151690e-01 4.589485e-01 5.004266e-01 5.420752e-01 5.812283e-01 6.203322e-01 6.568257e-01 6.930847e-01 7.266643e-01 7.598395e-01 7.902986e-01 8.201897e-01 8.473543e-01 8.737892e-01 8.975103e-01 9.203392e-01 9.404886e-01 9.595810e-01 9.760488e-01 9.912908e-01 1.003984e+00 1.015277e+00 1.024117e+00 1.031378e+00 1.036300e+00 1.039459e+00 1.040415e+00 1.039415e+00 1.036367e+00 1.031166e+00 1.024092e+00 1.014663e+00 1.003553e+00 9.898858e-01 9.747468e-01 9.568512e-01 9.377079e-01 9.156165e-01 8.925149e-01 8.662886e-01 8.393004e-01 8.090344e-01 7.782634e-01 7.440949e-01 7.096856e-01 6.718047e-01 6.339559e-01 5.926231e-01 5.516105e-01 5.071896e-01 4.634140e-01 4.164483e-01 3.705575e-01 3.219898e-01 2.752743e-01 2.272714e-01 1.833847e-01 1.434998e-01 1.176505e-01 1.145290e-01 1.366153e-01 1.761764e-01 2.223727e-01 2.741955e-01 3.263243e-01 3.811103e-01 4.345901e-01 4.895647e-01 5.425899e-01 5.963415e-01 6.477696e-01 6.992649e-01 7.481622e-01 7.965062e-01 8.420271e-01 8.863974e-01 9.277542e-01 9.673886e-01 1.003853e+00 1.038057e+00 1.068971e+00 1.097134e+00 1.121932e+00 1.143545e+00 1.161771e+00 1.176447e+00 1.187771e+00 1.195260e+00 1.199496e+00 1.199694e+00 1.196801e+00 1.189759e+00 1.179850e+00 1.165765e+00 1.149095e+00 1.128306e+00 1.105262e+00 1.078230e+00 1.049315e+00 1.016605e+00 9.824096e-01 9.446666e-01 9.058543e-01 8.637799e-01 8.210589e-01 7.753906e-01 7.294978e-01 6.809945e-01 6.326854e-01 5.821246e-01 5.321802e-01 4.803814e-01 
4.465015e-01 3.964893e-01 3.486838e-01 3.012021e-01 2.575857e-01 2.172105e-01 1.849437e-01 1.632665e-01 1.574980e-01 1.685899e-01 1.925493e-01 2.259949e-01 2.632813e-01 3.043819e-01 3.454574e-01 3.882646e-01 4.296228e-01 4.718602e-01 5.120293e-01 5.526323e-01 5.908502e-01 6.292110e-01 6.650072e-01 7.007210e-01 7.337661e-01 7.665334e-01 7.965761e-01 8.261593e-01 8.529981e-01 8.792012e-01 9.026693e-01 9.253267e-01 9.452843e-01 9.642546e-01 9.805841e-01 9.957464e-01 1.008349e+00 1.019601e+00 1.028395e+00 1.035649e+00 1.040569e+00 1.043754e+00 1.044749e+00 1.043808e+00 1.040841e+00 1.035731e+00 1.028780e+00 1.019478e+00 1.008534e+00 9.950312e-01 9.801052e-01 9.624163e-01 9.435374e-01 9.217026e-01 8.989245e-01 8.730161e-01 8.464231e-01 8.165539e-01 7.862696e-01 7.526045e-01 7.188058e-01 6.815800e-01 6.445194e-01 6.040687e-01 5.641157e-01 5.209376e-01 4.786661e-01 4.335579e-01 3.899602e-01 3.443884e-01 3.014890e-01 2.587281e-01 2.215760e-01 1.903372e-01 1.721738e-01 1.705702e-01 1.865459e-01 2.176154e-01 2.567532e-01 3.030643e-01 3.511484e-01 4.028220e-01 4.539186e-01 5.070115e-01 5.585195e-01 6.110535e-01 6.614530e-01 7.121204e-01 7.602871e-01 8.080491e-01 8.530324e-01 8.969847e-01 9.379352e-01 9.772653e-01 1.013415e+00 1.047396e+00 1.078063e+00 1.106062e+00 1.130662e+00 1.152155e+00 1.170221e+00 1.184811e+00 1.196006e+00 1.203435e+00 1.207569e+00 1.207732e+00 1.204764e+00 1.197709e+00 1.187754e+00 1.173685e+00 1.157004e+00 1.136262e+00 1.113250e+00 1.086308e+00 1.057478e+00 1.024913e+00 9.908720e-01 9.533452e-01 9.147758e-01 8.730133e-01 8.306512e-01 7.854251e-01 7.400487e-01 6.921713e-01 6.446020e-01 5.949392e-01 5.460714e-01 4.956016e-01 
4.700032e-01 4.223418e-01 3.773741e-01 3.335341e-01 2.942560e-01 2.591507e-01 2.322528e-01 2.148853e-01 2.100506e-01 2.180621e-01 2.367078e-01 2.643189e-01 2.965811e-01 3.333825e-01 3.710937e-01 4.110768e-01 4.502258e-01 4.905662e-01 5.292316e-01 5.685063e-01 6.056598e-01 6.430552e-01 6.780730e-01 7.130645e-01 7.455256e-01 7.777409e-01 8.073371e-01 8.364928e-01 8.629858e-01 8.888562e-01 9.120547e-01 9.344542e-01 9.542021e-01 9.729760e-01 9.891444e-01 1.004163e+00 1.016646e+00 1.027800e+00 1.036513e+00 1.043713e+00 1.048588e+00 1.051760e+00 1.052746e+00 1.051834e+00 1.048897e+00 1.043860e+00 1.036982e+00 1.027797e+00 1.016976e+00 1.003643e+00 9.888974e-01 9.714357e-01 9.528066e-01 9.312683e-01 9.088238e-01 8.832975e-01 8.571420e-01 8.277645e-01 7.980509e-01 7.650235e-01 7.319718e-01 6.955865e-01 6.595167e-01 6.202007e-01 5.815929e-01 5.399965e-01 4.996136e-01 4.567993e-01 4.159644e-01 3.738540e-01 3.351288e-01 2.976075e-01 2.663927e-01 2.415037e-01 2.279657e-01 2.272947e-01 2.399844e-01 2.653634e-01 2.986858e-01 3.397618e-01 3.835916e-01 4.317870e-01 4.800985e-01 5.309372e-01 5.806026e-01 6.316410e-01 6.807932e-01 7.304450e-01 7.777560e-01 8.248185e-01 8.692153e-01 9.126835e-01 9.532384e-01 9.922342e-01 1.028126e+00 1.061877e+00 1.092385e+00 1.120225e+00 1.144737e+00 1.166118e+00 1.184143e+00 1.198649e+00 1.209835e+00 1.217198e+00 1.221342e+00 1.221449e+00 1.218505e+00 1.211405e+00 1.201486e+00 1.187383e+00 1.170754e+00 1.150003e+00 1.127068e+00 1.100154e+00 1.071440e+00 1.038959e+00 1.005095e+00 9.677357e-01 9.294302e-01 8.879530e-01 8.459809e-01 8.012050e-01 7.563991e-01 7.092055e-01 6.624693e-01 6.138302e-01 5.661903e-01 5.172586e-01 
4.984031e-01 4.534101e-01 4.115318e-01 3.713696e-01 3.361523e-01 3.054503e-01 2.825112e-01 2.679040e-01 2.634911e-01 2.693955e-01 2.841410e-01 3.070429e-01 3.347017e-01 3.672930e-01 4.013704e-01 4.382480e-01 4.747486e-01 5.128621e-01 5.495908e-01 5.872473e-01 6.229528e-01 6.591480e-01 6.930587e-01 7.271440e-01 7.587438e-01 7.902665e-01 8.191857e-01 8.478096e-01 8.737693e-01 8.992325e-01 9.220143e-01 9.441071e-01 9.635361e-01 9.820869e-01 9.980221e-01 1.012890e+00 1.025217e+00 1.036285e+00 1.044913e+00 1.052087e+00 1.056946e+00 1.060150e+00 1.061188e+00 1.060364e+00 1.057548e+00 1.052657e+00 1.045969e+00 1.036992e+00 1.026436e+00 1.013375e+00 9.989732e-01 9.818584e-01 9.636609e-01 9.425549e-01 9.206435e-01 8.956528e-01 8.701520e-01 8.414404e-01 8.125332e-01 7.803431e-01 7.482956e-01 7.129818e-01 6.781860e-01 6.402730e-01 6.033218e-01 5.636124e-01 5.254458e-01 4.852353e-01 4.474376e-01 4.089580e-01 3.743649e-01 3.416396e-01 3.153516e-01 2.951701e-01 2.847572e-01 2.848114e-01 2.955581e-01 3.170774e-01 3.458893e-01 3.824251e-01 4.222143e-01 4.668794e-01 5.122050e-01 5.605334e-01 6.080627e-01 6.573306e-01 7.049425e-01 7.533322e-01 7.995147e-01 8.456671e-01 8.892246e-01 9.320307e-01 9.719534e-01 1.010465e+00 1.045875e+00 1.079272e+00 1.109409e+00 1.136988e+00 1.161211e+00 1.182400e+00 1.200197e+00 1.214563e+00 1.225570e+00 1.232832e+00 1.236837e+00 1.236877e+00 1.233834e+00 1.226700e+00 1.216724e+00 1.202627e+00 1.185992e+00 1.165296e+00 1.142419e+00 1.115625e+00 1.087051e+00 1.054779e+00 1.021161e+00 9.841265e-01 9.462042e-01 9.052057e-01 8.637960e-01 8.197038e-01 7.756979e-01 7.294654e-01 6.838516e-01 6.365584e-01 5.904897e-01 5.434499e-01 
5.319533e-01 4.894556e-01 4.503571e-01 4.133828e-01 3.814681e-01 3.541163e-01 3.339463e-01 3.211144e-01 3.169002e-01 3.213219e-01 3.333215e-01 3.526307e-01 3.765913e-01 4.054983e-01 4.363137e-01 4.701916e-01 5.041556e-01 5.399796e-01 5.747934e-01 6.107181e-01 6.449750e-01 6.798492e-01 7.126514e-01 7.457172e-01 7.764582e-01 8.071861e-01 8.354334e-01 8.634340e-01 8.888648e-01 9.138396e-01 9.362047e-01 9.579181e-01 9.770216e-01 9.952842e-01 1.010970e+00 1.025629e+00 1.037773e+00 1.048703e+00 1.057211e+00 1.064312e+00 1.069110e+00 1.072305e+00 1.073341e+00 1.072573e+00 1.069817e+00 1.065048e+00 1.058490e+00 1.049705e+00 1.039355e+00 1.026564e+00 1.012458e+00 9.956996e-01 9.779011e-01 9.572539e-01 9.358646e-01 9.114561e-01 8.866264e-01 8.586513e-01 8.305997e-01 7.993448e-01 7.683879e-01 7.342727e-01 7.008743e-01 6.645177e-01 6.293742e-01 5.917128e-01 5.559066e-01 5.184090e-01 4.836864e-01 4.487339e-01 4.179712e-01 3.894143e-01 3.671303e-01 3.505086e-01 3.423604e-01 3.430156e-01 3.525341e-01 3.713710e-01 3.967444e-01 4.295497e-01 4.657684e-01 5.071527e-01 5.495773e-01 5.953949e-01 6.407438e-01 6.881723e-01 7.341880e-01 7.812496e-01 8.262792e-01 8.714799e-01 9.142171e-01 9.563473e-01 9.956989e-01 1.033736e+00 1.068761e+00 1.101827e+00 1.131716e+00 1.159066e+00 1.183139e+00 1.204165e+00 1.221880e+00 1.236124e+00 1.247093e+00 1.254257e+00 1.258251e+00 1.258207e+00 1.255172e+00 1.247967e+00 1.238016e+00 1.223867e+00 1.207281e+00 1.186565e+00 1.163776e+00 1.137016e+00 1.108590e+00 1.076432e+00 1.043049e+00 1.006248e+00 9.686863e-01 9.280826e-01 8.872073e-01 8.437294e-01 8.004943e-01 7.551708e-01 7.106484e-01 6.646588e-01 6.201147e-01 5.749036e-01 
5.695181e-01 5.295574e-01 4.931692e-01 4.591377e-01 4.301036e-01 4.054873e-01 3.874166e-01 3.758257e-01 3.716085e-01 3.747975e-01 3.845039e-01 4.008014e-01 4.214304e-01 4.469454e-01 4.745168e-01 5.053959e-01 5.366233e-01 5.700211e-01 6.026362e-01 6.366540e-01 6.691649e-01 7.025492e-01 7.339631e-01 7.658629e-01 7.954955e-01 8.253092e-01 8.526695e-01 8.799543e-01 9.046772e-01 9.290956e-01 9.509019e-01 9.721905e-01 9.908626e-01 1.008812e+00 1.024180e+00 1.038623e+00 1.050552e+00 1.061356e+00 1.069744e+00 1.076803e+00 1.081574e+00 1.084808e+00 1.085910e+00 1.085260e+00 1.082663e+00 1.078094e+00 1.071791e+00 1.063291e+00 1.053298e+00 1.040882e+00 1.027242e+00 1.010960e+00 9.937467e-01 9.736896e-01 9.530215e-01 9.293378e-01 9.053874e-01 8.783017e-01 8.513197e-01 8.211620e-01 7.915106e-01 7.587616e-01 7.269689e-01 6.923319e-01 6.591800e-01 6.236990e-01 5.903717e-01 5.556254e-01 5.239426e-01 4.923352e-01 4.650666e-01 4.401274e-01 4.211631e-01 4.073754e-01 4.010155e-01 4.022436e-01 4.109938e-01 4.279373e-01 4.506870e-01 4.804699e-01 5.136073e-01 5.520265e-01 5.916953e-01 6.350532e-01 6.781735e-01 7.236891e-01 7.679690e-01 8.135803e-01 8.572757e-01 9.013889e-01 9.431046e-01 9.844243e-01 1.022994e+00 1.060430e+00 1.094855e+00 1.127476e+00 1.156903e+00 1.183922e+00 1.207635e+00 1.228415e+00 1.245848e+00 1.259906e+00 1.270652e+00 1.277676e+00 1.281496e+00 1.281351e+00 1.278188e+00 1.270920e+00 1.260892e+00 1.246726e+00 1.230125e+00 1.209454e+00 1.186727e+00 1.160095e+00 1.131833e+00 1.099916e+00 1.066829e+00 1.030415e+00 9.933186e-01 9.532922e-01 9.130970e-01 8.704405e-01 8.281575e-01 7.839664e-01 7.407393e-01 6.962746e-01 6.534519e-01 6.102461e-01 
6.109210e-01 5.731049e-01 5.389541e-01 5.072797e-01 4.804716e-01 4.578797e-01 4.413000e-01 4.305189e-01 4.262373e-01 4.284441e-01 4.364257e-01 4.503505e-01 4.683469e-01 4.910084e-01 5.158472e-01 5.440312e-01 5.728352e-01 6.039363e-01 6.345408e-01 6.666826e-01 6.975680e-01 7.294437e-01 7.595538e-01 7.902457e-01 8.188333e-01 8.476811e-01 8.742031e-01 9.007169e-01 9.247678e-01 9.485745e-01 9.698445e-01 9.906543e-01 1.008904e+00 1.026488e+00 1.041531e+00 1.055709e+00 1.067400e+00 1.078031e+00 1.086262e+00 1.093234e+00 1.097927e+00 1.101158e+00 1.102262e+00 1.101693e+00 1.099182e+00 1.094781e+00 1.088655e+00 1.080415e+00 1.070701e+00 1.058645e+00 1.045399e+00 1.029588e+00 1.012903e+00 9.934441e-01 9.734573e-01 9.505228e-01 9.274347e-01 9.012800e-01 8.753758e-01 8.463735e-01 8.180598e-01 7.867466e-01 7.566066e-01 7.237556e-01 6.926358e-01 6.593669e-01 6.285072e-01 5.964482e-01 5.676635e-01 5.391486e-01 5.150126e-01 4.931963e-01 4.770107e-01 4.655326e-01 4.606320e-01 4.623943e-01 4.706504e-01 4.862236e-01 5.069455e-01 5.342970e-01 5.648323e-01 6.006640e-01 6.378439e-01 6.789265e-01 7.199497e-01 7.636331e-01 8.062554e-01 8.504581e-01 8.928943e-01 9.359570e-01 9.767471e-01 1.017303e+00 1.055216e+00 1.092108e+00 1.126087e+00 1.158329e+00 1.187467e+00 1.214224e+00 1.237763e+00 1.258355e+00 1.275690e+00 1.289606e+00 1.300300e+00 1.307204e+00 1.311000e+00 1.310743e+00 1.307571e+00 1.300198e+00 1.290176e+00 1.275920e+00 1.259348e+00 1.238620e+00 1.215963e+00 1.189334e+00 1.161211e+00 1.129391e+00 1.096544e+00 1.060363e+00 1.023651e+00 9.840424e-01 9.444251e-01 9.024258e-01 8.609706e-01 8.177381e-01 7.756510e-01 7.325107e-01 6.912004e-01 6.497353e-01 
6.558459e-01 6.201304e-01 5.880785e-01 5.585420e-01 5.336518e-01 5.127400e-01 4.973007e-01 4.870858e-01 4.825961e-01 4.838826e-01 4.902539e-01 5.020570e-01 5.175727e-01 5.375800e-01 5.597074e-01 5.852558e-01 6.115187e-01 6.402748e-01 6.686656e-01 6.988286e-01 7.278500e-01 7.580975e-01 7.866621e-01 8.160311e-01 8.433470e-01 8.711283e-01 8.966102e-01 9.222710e-01 9.454783e-01 9.686111e-01 9.892067e-01 1.009495e+00 1.027219e+00 1.044415e+00 1.059065e+00 1.072974e+00 1.084398e+00 1.094868e+00 1.102950e+00 1.109866e+00 1.114525e+00 1.117801e+00 1.118986e+00 1.118564e+00 1.116250e+00 1.112099e+00 1.106291e+00 1.098407e+00 1.089137e+00 1.077550e+00 1.064882e+00 1.049662e+00 1.033699e+00 1.014967e+00 9.958641e-01 9.738104e-01 9.517866e-01 9.266938e-01 9.020616e-01 8.743386e-01 8.475391e-01 8.177693e-01 7.894268e-01 7.584371e-01 7.294394e-01 6.983968e-01 6.700043e-01 6.405408e-01 6.145159e-01 5.888473e-01 5.675394e-01 5.484581e-01 5.346697e-01 5.251634e-01 5.215413e-01 5.238621e-01 5.318621e-01 5.464843e-01 5.656679e-01 5.911016e-01 6.194730e-01 6.530920e-01 6.880426e-01 7.270481e-01 7.660688e-01 8.079866e-01 8.489290e-01 8.917080e-01 9.327855e-01 9.747350e-01 1.014449e+00 1.054152e+00 1.091223e+00 1.127471e+00 1.160794e+00 1.192552e+00 1.221180e+00 1.247574e+00 1.270711e+00 1.291027e+00 1.308042e+00 1.321742e+00 1.332177e+00 1.338908e+00 1.342495e+00 1.342100e+00 1.338764e+00 1.331290e+00 1.321156e+00 1.306846e+00 1.290225e+00 1.269508e+00 1.246888e+00 1.220362e+00 1.192386e+00 1.160793e+00 1.128240e+00 1.092448e+00 1.056211e+00 1.017196e+00 9.782779e-01 9.371235e-01 8.966351e-01 8.545450e-01 8.137346e-01 7.720730e-01 7.323752e-01 6.927347e-01 
7.036443e-01 6.695712e-01 6.391539e-01 6.112330e-01 5.877752e-01 5.680606e-01 5.534184e-01 5.435266e-01 5.388238e-01 5.393177e-01 5.444298e-01 5.545006e-01 5.680497e-01 5.858323e-01 6.057351e-01 6.289844e-01 6.530911e-01 6.797220e-01 7.061854e-01 7.344963e-01 7.618659e-01 7.905490e-01 8.177285e-01 8.457985e-01 8.719664e-01 8.986801e-01 9.232174e-01 9.480088e-01 9.704439e-01 9.928767e-01 1.012847e+00 1.032582e+00 1.049807e+00 1.066578e+00 1.080842e+00 1.094442e+00 1.105581e+00 1.115850e+00 1.123743e+00 1.130561e+00 1.135126e+00 1.138405e+00 1.139591e+00 1.139274e+00 1.137065e+00 1.133123e+00 1.127530e+00 1.119966e+00 1.111034e+00 1.099886e+00 1.087694e+00 1.073043e+00 1.057712e+00 1.039695e+00 1.021401e+00 1.000229e+00 9.792152e-01 9.551986e-01 9.318060e-01 9.053872e-01 8.800869e-01 8.518881e-01 8.253346e-01 7.962199e-01 7.693206e-01 7.404769e-01 7.144783e-01 6.875037e-01 6.640761e-01 6.410357e-01 6.222904e-01 6.056386e-01 5.939518e-01 5.861644e-01 5.836742e-01 5.865453e-01 5.944229e-01 6.083603e-01 6.263382e-01 6.502267e-01 6.767868e-01 7.085148e-01 7.415122e-01 7.786654e-01 8.158830e-01 8.561855e-01 8.956064e-01 9.370736e-01 9.769444e-01 1.017882e+00 1.056687e+00 1.095642e+00 1.132064e+00 1.167781e+00 1.200668e+00 1.232062e+00 1.260417e+00 1.286562e+00 1.309544e+00 1.329685e+00 1.346618e+00 1.360178e+00 1.370571e+00 1.377170e+00 1.380728e+00 1.380194e+00 1.376831e+00 1.369207e+00 1.359044e+00 1.344584e+00 1.327945e+00 1.307099e+00 1.284494e+00 1.257893e+00 1.229995e+00 1.198422e+00 1.166049e+00 1.130416e+00 1.094505e+00 1.055836e+00 1.017433e+00 9.768590e-01 9.371205e-01 8.958858e-01 8.560944e-01 8.155888e-01 7.771905e-01 7.389943e-01 
7.548437e-01 7.223698e-01 6.934581e-01 6.670076e-01 6.447670e-01 6.260538e-01 6.119824e-01 6.022722e-01 5.972162e-01 5.969061e-01 6.007263e-01 6.091505e-01 6.207335e-01 6.363799e-01 6.540115e-01 6.749935e-01 6.968238e-01 7.212986e-01 7.456546e-01 7.720402e-01 7.975453e-01 8.245711e-01 8.501438e-01 8.768191e-01 9.016251e-01 9.271833e-01 9.505811e-01 9.744283e-01 9.959229e-01 1.017597e+00 1.036805e+00 1.055944e+00 1.072568e+00 1.088890e+00 1.102702e+00 1.115988e+00 1.126816e+00 1.136897e+00 1.144616e+00 1.151368e+00 1.155892e+00 1.159226e+00 1.160507e+00 1.160365e+00 1.158388e+00 1.154744e+00 1.149525e+00 1.142386e+00 1.133975e+00 1.123382e+00 1.111868e+00 1.097910e+00 1.083423e+00 1.066247e+00 1.048973e+00 1.028806e+00 1.009005e+00 9.861755e-01 9.642043e-01 9.391802e-01 9.155283e-01 8.889590e-01 8.642958e-01 8.370680e-01 8.123020e-01 7.856033e-01 7.619480e-01 7.373241e-01 7.163459e-01 6.957111e-01 6.793045e-01 6.648255e-01 6.550270e-01 6.487898e-01 6.473669e-01 6.508388e-01 6.587617e-01 6.722958e-01 6.894048e-01 7.121361e-01 7.372469e-01 7.674415e-01 7.987683e-01 8.343296e-01 8.699112e-01 9.087541e-01 9.467109e-01 9.869348e-01 1.025565e+00 1.065492e+00 1.103282e+00 1.141445e+00 1.177054e+00 1.212163e+00 1.244407e+00 1.275339e+00 1.303185e+00 1.328979e+00 1.351553e+00 1.371418e+00 1.388016e+00 1.401348e+00 1.411458e+00 1.417859e+00 1.421173e+00 1.420463e+00 1.416891e+00 1.409115e+00 1.398785e+00 1.384209e+00 1.367461e+00 1.346561e+00 1.323927e+00 1.297361e+00 1.269546e+00 1.238133e+00 1.205986e+00 1.170677e+00 1.135171e+00 1.097028e+00 1.059244e+00 1.019430e+00 9.805507e-01 9.403355e-01 9.016564e-01 8.624308e-01 8.253810e-01 7.886833e-01 
8.082386e-01 7.769004e-01 7.490817e-01 7.236521e-01 7.022682e-01 6.841996e-01 6.704886e-01 6.607951e-01 6.554110e-01 6.543722e-01 6.571611e-01 6.642005e-01 6.742217e-01 6.880674e-01 7.038650e-01 7.228949e-01 7.428483e-01 7.654183e-01 7.880040e-01 8.126461e-01 8.365617e-01 8.620532e-01 8.862411e-01 9.115996e-01 9.352218e-01 9.596696e-01 9.820690e-01 1.004993e+00 1.025656e+00 1.046575e+00 1.065098e+00 1.083633e+00 1.099704e+00 1.115558e+00 1.128938e+00 1.141881e+00 1.152387e+00 1.162246e+00 1.169750e+00 1.176395e+00 1.180810e+00 1.184151e+00 1.185432e+00 1.185415e+00 1.183554e+00 1.180155e+00 1.175179e+00 1.168411e+00 1.160384e+00 1.150296e+00 1.139321e+00 1.126013e+00 1.112238e+00 1.095871e+00 1.079504e+00 1.060321e+00 1.041640e+00 1.019991e+00 9.993720e-01 9.757459e-01 9.536935e-01 9.287603e-01 9.059486e-01 8.806044e-01 8.579263e-01 8.333406e-01 8.119545e-01 7.896011e-01 7.709522e-01 7.525874e-01 7.383593e-01 7.258907e-01 7.178280e-01 7.130250e-01 7.126051e-01 7.166869e-01 7.247312e-01 7.380103e-01 7.544419e-01 7.762424e-01 8.001395e-01 8.290302e-01 8.589116e-01 8.930761e-01 9.272237e-01 9.647679e-01 1.001453e+00 1.040577e+00 1.078168e+00 1.117230e+00 1.154234e+00 1.191759e+00 1.226818e+00 1.261488e+00 1.293384e+00 1.324032e+00 1.351687e+00 1.377303e+00 1.399791e+00 1.419536e+00 1.436108e+00 1.449334e+00 1.459436e+00 1.465710e+00 1.469003e+00 1.468127e+00 1.464505e+00 1.456518e+00 1.446107e+00 1.431290e+00 1.414444e+00 1.393298e+00 1.370575e+00 1.343800e+00 1.315941e+00 1.284400e+00 1.252299e+00 1.216992e+00 1.181665e+00 1.143701e+00 1.106269e+00 1.066850e+00 1.028528e+00 9.889459e-01 9.510432e-01 9.126854e-01 8.766121e-01 8.409717e-01 
8.651850e-01 8.349620e-01 8.081242e-01 7.836269e-01 7.629319e-01 7.453858e-01 7.318521e-01 7.220717e-01 7.162045e-01 7.143870e-01 7.160303e-01 7.216811e-01 7.300421e-01 7.420936e-01 7.559396e-01 7.730027e-01 7.909242e-01 8.115436e-01 8.321686e-01 8.549959e-01 8.771093e-01 9.009815e-01 9.235650e-01 9.475188e-01 9.697444e-01 9.929990e-01 1.014204e+00 1.036133e+00 1.055793e+00 1.075897e+00 1.093596e+00 1.111482e+00 1.126897e+00 1.142255e+00 1.155136e+00 1.167729e+00 1.177890e+00 1.187537e+00 1.194846e+00 1.201416e+00 1.205787e+00 1.209191e+00 1.210581e+00 1.210766e+00 1.209169e+00 1.206114e+00 1.201564e+00 1.195282e+00 1.187848e+00 1.178393e+00 1.168185e+00 1.155660e+00 1.142834e+00 1.127406e+00 1.112175e+00 1.094094e+00 1.076745e+00 1.056371e+00 1.037284e+00 1.015119e+00 9.948004e-01 9.715240e-01 9.506397e-01 9.271468e-01 9.065635e-01 8.839977e-01 8.648138e-01 8.445780e-01 8.281272e-01 8.118405e-01 7.996304e-01 7.889932e-01 7.825433e-01 7.790866e-01 7.796613e-01 7.844222e-01 7.927346e-01 8.059897e-01 8.220157e-01 8.432156e-01 8.662174e-01 8.941494e-01 9.228740e-01 9.559392e-01 9.888643e-01 1.025330e+00 1.060859e+00 1.099021e+00 1.135594e+00 1.173853e+00 1.210000e+00 1.246887e+00 1.281248e+00 1.315427e+00 1.346763e+00 1.377038e+00 1.404242e+00 1.429570e+00 1.451686e+00 1.471193e+00 1.487443e+00 1.500454e+00 1.510261e+00 1.516324e+00 1.519338e+00 1.518243e+00 1.514355e+00 1.506149e+00 1.495493e+00 1.480472e+00 1.463419e+00 1.442112e+00 1.419249e+00 1.392389e+00 1.364488e+00 1.332978e+00 1.300966e+00 1.265843e+00 1.230770e+00 1.193176e+00 1.156188e+00 1.117348e+00 1.079674e+00 1.040886e+00 1.003827e+00 9.664544e-01 9.313809e-01 8.968521e-01 
9.238347e-01 8.942727e-01 8.680548e-01 8.440930e-01 8.238109e-01 8.065000e-01 7.930098e-01 7.830147e-01 7.767121e-01 7.741651e-01 7.748858e-01 7.793413e-01 7.863880e-01 7.969167e-01 8.092110e-01 8.245926e-01 8.408805e-01 8.598064e-01 8.788356e-01 9.000592e-01 9.206895e-01 9.431053e-01 9.643557e-01 9.870250e-01 1.008080e+00 1.030226e+00 1.050422e+00 1.071412e+00 1.090213e+00 1.109538e+00 1.126519e+00 1.143773e+00 1.158600e+00 1.173464e+00 1.185878e+00 1.198107e+00 1.207917e+00 1.217327e+00 1.224396e+00 1.230855e+00 1.235099e+00 1.238518e+00 1.239899e+00 1.240226e+00 1.238748e+00 1.235969e+00 1.231676e+00 1.225809e+00 1.218787e+00 1.209894e+00 1.200269e+00 1.188461e+00 1.176408e+00 1.161863e+00 1.147612e+00 1.130593e+00 1.114445e+00 1.095325e+00 1.077671e+00 1.056962e+00 1.038308e+00 1.016695e+00 9.976910e-01 9.760585e-01 9.575331e-01 9.369863e-01 9.199628e-01 9.018217e-01 8.875114e-01 8.732556e-01 8.629932e-01 8.541312e-01 8.492334e-01 8.470902e-01 8.486423e-01 8.541050e-01 8.627338e-01 8.760510e-01 8.917797e-01 9.125075e-01 9.347585e-01 9.618733e-01 9.896009e-01 1.021705e+00 1.053579e+00 1.089102e+00 1.123668e+00 1.161014e+00 1.196798e+00 1.234421e+00 1.269992e+00 1.306436e+00 1.340433e+00 1.374346e+00 1.405503e+00 1.435650e+00 1.462816e+00 1.488101e+00 1.510266e+00 1.529761e+00 1.546091e+00 1.559065e+00 1.568933e+00 1.574893e+00 1.577909e+00 1.576620e+00 1.572654e+00 1.564157e+00 1.553342e+00 1.537949e+00 1.520674e+00 1.498949e+00 1.475833e+00 1.448559e+00 1.420420e+00 1.388553e+00 1.356368e+00 1.321002e+00 1.285867e+00 1.248191e+00 1.211294e+00 1.172565e+00 1.135159e+00 1.096687e+00 1.060075e+00 1.023207e+00 9.887279e-01 9.548343e-01 
9.863701e-01 9.574677e-01 9.317617e-01 9.082792e-01 8.882555e-01 8.710909e-01 8.574659e-01 8.471632e-01 8.402464e-01 8.368935e-01 8.365216e-01 8.397242e-01 8.452890e-01 8.542443e-01 8.648085e-01 8.784510e-01 8.929073e-01 9.100691e-01 9.272853e-01 9.468227e-01 9.657406e-01 9.866111e-01 1.006298e+00 1.027594e+00 1.047256e+00 1.068210e+00 1.087191e+00 1.107166e+00 1.124930e+00 1.143411e+00 1.159527e+00 1.176097e+00 1.190227e+00 1.204561e+00 1.216441e+00 1.228289e+00 1.237726e+00 1.246903e+00 1.253761e+00 1.260136e+00 1.264333e+00 1.267821e+00 1.269323e+00 1.269876e+00 1.268692e+00 1.266297e+00 1.262478e+00 1.257156e+00 1.250793e+00 1.242605e+00 1.233828e+00 1.222885e+00 1.211874e+00 1.198352e+00 1.185339e+00 1.169500e+00 1.154784e+00 1.137003e+00 1.120969e+00 1.101759e+00 1.084899e+00 1.064939e+00 1.047880e+00 1.028041e+00 1.011567e+00 9.929163e-01 9.779820e-01 9.617716e-01 9.494859e-01 9.370855e-01 9.286486e-01 9.214222e-01 9.180011e-01 9.171231e-01 9.196752e-01 9.259237e-01 9.350144e-01 9.486127e-01 9.642958e-01 9.848680e-01 1.006676e+00 1.033329e+00 1.060365e+00 1.091847e+00 1.122923e+00 1.157788e+00 1.191561e+00 1.228299e+00 1.263365e+00 1.300478e+00 1.335438e+00 1.371486e+00 1.404986e+00 1.438606e+00 1.469364e+00 1.499299e+00 1.526138e+00 1.551259e+00 1.573137e+00 1.592479e+00 1.608534e+00 1.621337e+00 1.630917e+00 1.636664e+00 1.639368e+00 1.637815e+00 1.633510e+00 1.624706e+00 1.613536e+00 1.597813e+00 1.580190e+00 1.558146e+00 1.534720e+00 1.507177e+00 1.478801e+00 1.446762e+00 1.414449e+00 1.379045e+00 1.343924e+00 1.306376e+00 1.269654e+00 1.231235e+00 1.194174e+00 1.156186e+00 1.120071e+00 1.083829e+00 1.049949e+00 1.016752e+00 
1.050219e+00 1.021530e+00 9.960160e-01 9.726497e-01 9.526670e-01 9.354007e-01 9.215580e-01 9.108399e-01 9.033775e-01 8.992544e-01 8.980016e-01 9.001065e-01 9.045089e-01 9.121220e-01 9.213367e-01 9.335015e-01 9.465247e-01 9.621774e-01 9.779658e-01 9.960444e-01 1.013604e+00 1.033119e+00 1.051555e+00 1.071630e+00 1.090170e+00 1.110048e+00 1.128040e+00 1.147089e+00 1.163997e+00 1.181695e+00 1.197085e+00 1.213012e+00 1.226537e+00 1.240363e+00 1.251756e+00 1.263227e+00 1.272290e+00 1.281220e+00 1.287817e+00 1.294077e+00 1.298128e+00 1.301634e+00 1.303113e+00 1.303823e+00 1.302749e+00 1.300656e+00 1.297094e+00 1.292225e+00 1.286284e+00 1.278706e+00 1.270537e+00 1.260368e+00 1.250169e+00 1.237592e+00 1.225611e+00 1.210898e+00 1.197445e+00 1.180974e+00 1.166437e+00 1.148724e+00 1.133581e+00 1.115300e+00 1.100148e+00 1.082146e+00 1.067716e+00 1.051015e+00 1.038179e+00 1.023949e+00 1.013700e+00 1.003195e+00 9.965917e-01 9.910313e-01 9.890946e-01 9.895107e-01 9.930790e-01 1.000150e+00 1.009736e+00 1.023664e+00 1.039354e+00 1.059828e+00 1.081264e+00 1.107516e+00 1.133953e+00 1.164881e+00 1.195285e+00 1.229578e+00 1.262733e+00 1.298985e+00 1.333575e+00 1.370350e+00 1.405023e+00 1.440903e+00 1.474312e+00 1.507924e+00 1.538762e+00 1.568810e+00 1.595851e+00 1.621144e+00 1.643283e+00 1.662787e+00 1.679091e+00 1.691978e+00 1.701730e+00 1.707425e+00 1.710172e+00 1.708398e+00 1.703981e+00 1.694777e+00 1.683337e+00 1.667060e+00 1.649033e+00 1.626326e+00 1.602407e+00 1.574158e+00 1.545259e+00 1.512538e+00 1.479732e+00 1.443739e+00 1.408214e+00 1.370221e+00 1.333230e+00 1.294546e+00 1.257373e+00 1.219308e+00 1.183237e+00 1.147082e+00 1.113373e+00 1.080371e+00 