# vtk DataFile Version 2.0
Comment goes here
ASCII

DATASET STRUCTURED_POINTS
FIELD FieldData 1
TIME 1 1 double
0.13500000
DIMENSIONS    128   128   1

ORIGIN    0.000   0.000   0.000
SPACING   0.039062 0.039062   1.000

POINT_DATA   16384
SCALARS uMag double
LOOKUP_TABLE default

1.605620e-01 1.391332e-01 1.135057e-01 9.211478e-02 6.550224e-02 4.437895e-02 1.703476e-02 3.598195e-03 3.142614e-02 5.135442e-02 7.942381e-02 9.844208e-02 1.265158e-01 1.444283e-01 1.722741e-01 1.888950e-01 2.162848e-01 2.314394e-01 2.581497e-01 2.716754e-01 2.974868e-01 3.092344e-01 3.339330e-01 3.437689e-01 3.671469e-01 3.749546e-01 3.968118e-01 4.024941e-01 4.226396e-01 4.261207e-01 4.443741e-01 4.456015e-01 4.617950e-01 4.607411e-01 4.747211e-01 4.713849e-01 4.830135e-01 4.774217e-01 4.865786e-01 4.787867e-01 4.853705e-01 4.754632e-01 4.793932e-01 4.674842e-01 4.687017e-01 4.549333e-01 4.534035e-01 4.379452e-01 4.336584e-01 4.167047e-01 4.096777e-01 3.914453e-01 3.817228e-01 3.624466e-01 3.501022e-01 3.300305e-01 3.151668e-01 2.945564e-01 2.773053e-01 2.564153e-01 2.369369e-01 2.160226e-01 1.945037e-01 1.738104e-01 1.504622e-01 1.302191e-01 1.052740e-01 8.568910e-02 5.939687e-02 4.065237e-02 1.327613e-02 4.474662e-03 3.266302e-02 4.929732e-02 7.802140e-02 9.344687e-02 1.224297e-01 1.365826e-01 1.655498e-01 1.783917e-01 2.070737e-01 2.185859e-01 2.467197e-01 2.568971e-01 2.842263e-01 2.930702e-01 3.193447e-01 3.268558e-01 3.518307e-01 3.580021e-01 3.814373e-01 3.862495e-01 4.079094e-01 4.113267e-01 4.309805e-01 4.329505e-01 4.503751e-01 4.508303e-01 4.658139e-01 4.646769e-01 4.770245e-01 4.742145e-01 4.837546e-01 4.791966e-01 4.857885e-01 4.794219e-01 4.829628e-01 4.747509e-01 4.751815e-01 4.651186e-01 4.624275e-01 4.505442e-01 4.447691e-01 4.311352e-01 4.223622e-01 4.070858e-01 3.954460e-01 3.786713e-01 3.643351e-01 3.462376e-01 3.294079e-01 3.101881e-01 2.910927e-01 2.709695e-01 2.498537e-01 2.290580e-01 2.061776e-01 1.849464e-01 
1.565688e-01 1.356124e-01 1.105123e-01 8.998038e-02 6.473946e-02 4.609172e-02 2.679908e-02 2.568364e-02 4.340766e-02 6.092177e-02 8.720181e-02 1.054514e-01 1.327626e-01 1.502215e-01 1.776028e-01 1.938747e-01 2.209277e-01 2.357786e-01 2.622198e-01 2.754650e-01 3.010488e-01 3.125290e-01 3.370279e-01 3.466043e-01 3.698026e-01 3.773557e-01 3.990481e-01 4.044788e-01 4.244707e-01 4.277020e-01 4.458105e-01 4.467890e-01 4.628441e-01 4.615420e-01 4.753884e-01 4.718047e-01 4.833030e-01 4.774651e-01 4.864936e-01 4.784578e-01 4.849141e-01 4.747664e-01 4.785687e-01 4.664247e-01 4.675137e-01 4.535176e-01 4.518578e-01 4.361819e-01 4.317633e-01 4.146050e-01 4.074447e-01 3.890243e-01 3.791677e-01 3.597244e-01 3.472466e-01 3.270345e-01 3.120415e-01 2.913245e-01 2.739539e-01 2.530018e-01 2.334244e-01 2.125095e-01 1.909339e-01 1.703330e-01 1.470205e-01 1.270350e-01 1.023645e-01 8.342845e-02 5.830632e-02 4.187487e-02 2.376311e-02 2.519203e-02 4.466563e-02 5.975282e-02 8.693249e-02 1.019255e-01 1.303064e-01 1.442068e-01 1.728380e-01 1.854532e-01 2.138956e-01 2.251629e-01 2.530894e-01 2.629874e-01 2.901116e-01 2.986356e-01 3.246916e-01 3.318409e-01 3.565757e-01 3.623452e-01 3.855151e-01 3.898895e-01 4.112584e-01 4.142082e-01 4.335479e-01 4.350284e-01 4.521204e-01 4.520735e-01 4.667121e-01 4.650705e-01 4.770681e-01 4.737622e-01 4.829555e-01 4.779210e-01 4.841776e-01 4.773651e-01 4.805902e-01 4.719728e-01 4.721146e-01 4.616954e-01 4.587488e-01 4.465656e-01 4.405735e-01 4.267016e-01 4.177541e-01 4.023055e-01 3.905362e-01 3.736576e-01 3.592391e-01 3.411075e-01 3.242443e-01 3.050618e-01 2.859850e-01 2.659740e-01 2.449358e-01 2.243360e-01 2.016090e-01 1.806802e-01 
1.676267e-01 1.473973e-01 1.232273e-01 1.040991e-01 8.110833e-02 6.562432e-02 5.067167e-02 4.833975e-02 5.706522e-02 7.034375e-02 9.257331e-02 1.094946e-01 1.351369e-01 1.521350e-01 1.786882e-01 1.948190e-01 2.214209e-01 2.362746e-01 2.624658e-01 2.757870e-01 3.012418e-01 3.128387e-01 3.372879e-01 3.470049e-01 3.702092e-01 3.779176e-01 3.996572e-01 4.052530e-01 4.253240e-01 4.287275e-01 4.469405e-01 4.480972e-01 4.642777e-01 4.631594e-01 4.771484e-01 4.737543e-01 4.854098e-01 4.797677e-01 4.889656e-01 4.811330e-01 4.877686e-01 4.778325e-01 4.818220e-01 4.698998e-01 4.711819e-01 4.574201e-01 4.559573e-01 4.405309e-01 4.363116e-01 4.194219e-01 4.124620e-01 3.943341e-01 3.846787e-01 3.655584e-01 3.532842e-01 3.334344e-01 3.186517e-01 2.983494e-01 2.812062e-01 2.607411e-01 2.414303e-01 2.211089e-01 1.998854e-01 1.800496e-01 1.572820e-01 1.383743e-01 1.147233e-01 9.753853e-02 7.477045e-02 6.166306e-02 4.717825e-02 4.632279e-02 5.572541e-02 6.729939e-02 9.008555e-02 1.039302e-01 1.304077e-01 1.438451e-01 1.714980e-01 1.839175e-01 2.118268e-01 2.230404e-01 2.506937e-01 2.606352e-01 2.876599e-01 2.963064e-01 3.223908e-01 3.297332e-01 3.545960e-01 3.606241e-01 3.840023e-01 3.886955e-01 4.103377e-01 4.136602e-01 4.333245e-01 4.352235e-01 4.526781e-01 4.530857e-01 4.681118e-01 4.669492e-01 4.793461e-01 4.765311e-01 4.861227e-01 4.815785e-01 4.882205e-01 4.818853e-01 4.854724e-01 4.773088e-01 4.777806e-01 4.677831e-01 4.651285e-01 4.533294e-01 4.475883e-01 4.340602e-01 4.253226e-01 4.101790e-01 3.985822e-01 3.819750e-01 3.676986e-01 3.498147e-01 3.330756e-01 3.141330e-01 2.951811e-01 2.754267e-01 2.545454e-01 2.342591e-01 2.117767e-01 1.912913e-01 
1.708140e-01 1.521999e-01 1.298648e-01 1.133940e-01 9.399253e-02 8.290666e-02 7.317326e-02 7.344397e-02 8.070250e-02 9.180442e-02 1.105644e-01 1.257596e-01 1.491213e-01 1.650396e-01 1.901183e-01 2.055074e-01 2.310918e-01 2.453802e-01 2.708287e-01 2.836828e-01 3.085731e-01 3.197605e-01 3.437687e-01 3.531113e-01 3.759645e-01 3.833208e-01 4.047775e-01 4.100354e-01 4.298765e-01 4.329517e-01 4.509768e-01 4.518123e-01 4.678384e-01 4.664049e-01 4.802663e-01 4.765637e-01 4.881126e-01 4.821702e-01 4.912777e-01 4.831557e-01 4.897127e-01 4.795024e-01 4.834211e-01 4.712448e-01 4.724605e-01 4.584715e-01 4.569436e-01 4.413250e-01 4.370397e-01 4.200027e-01 4.129750e-01 3.947570e-01 3.850333e-01 3.658956e-01 3.535575e-01 3.337829e-01 3.189519e-01 2.988450e-01 2.816911e-01 2.615821e-01 2.423412e-01 2.226010e-01 2.016149e-01 1.826996e-01 1.605240e-01 1.431015e-01 1.208400e-01 1.061794e-01 8.663125e-02 7.771465e-02 6.826996e-02 6.993408e-02 7.802955e-02 8.827970e-02 1.079441e-01 1.207241e-01 1.451755e-01 1.579214e-01 1.843053e-01 1.961906e-01 2.232545e-01 2.339845e-01 2.610330e-01 2.704944e-01 2.970537e-01 3.052039e-01 3.309025e-01 3.377260e-01 3.622467e-01 3.677335e-01 3.907908e-01 3.949248e-01 4.162540e-01 4.190062e-01 4.383580e-01 4.396841e-01 4.568239e-01 4.566653e-01 4.713746e-01 4.696628e-01 4.817437e-01 4.784072e-01 4.876881e-01 4.826608e-01 4.890032e-01 4.822343e-01 4.855395e-01 4.770020e-01 4.772170e-01 4.669157e-01 4.640367e-01 4.520134e-01 4.460882e-01 4.324251e-01 4.235517e-01 4.083715e-01 3.966966e-01 3.801615e-01 3.658760e-01 3.481858e-01 3.315225e-01 3.129139e-01 2.941482e-01 2.748986e-01 2.543583e-01 2.348022e-01 2.129011e-01 1.934771e-01 
1.874803e-01 1.700705e-01 1.489318e-01 1.340986e-01 1.163250e-01 1.068023e-01 9.739964e-02 9.692861e-02 1.007375e-01 1.093926e-01 1.242525e-01 1.377255e-01 1.584683e-01 1.734520e-01 1.968892e-01 2.117958e-01 2.363346e-01 2.503870e-01 2.751586e-01 2.879154e-01 3.123697e-01 3.235411e-01 3.472797e-01 3.566557e-01 3.793601e-01 3.867809e-01 4.081801e-01 4.135234e-01 4.333783e-01 4.365540e-01 4.546503e-01 4.555984e-01 4.717425e-01 4.704333e-01 4.844513e-01 4.808849e-01 4.926223e-01 4.868300e-01 4.961517e-01 4.881965e-01 4.949881e-01 4.849648e-01 4.891334e-01 4.771694e-01 4.786451e-01 4.649000e-01 4.636379e-01 4.483024e-01 4.442846e-01 4.275796e-01 4.208184e-01 4.029932e-01 3.935342e-01 3.748648e-01 3.627924e-01 3.435807e-01 3.290252e-01 3.096005e-01 2.927512e-01 2.734773e-01 2.546070e-01 2.359031e-01 2.154219e-01 1.978134e-01 1.763971e-01 1.606393e-01 1.395597e-01 1.269266e-01 1.088780e-01 1.016419e-01 9.190892e-02 9.272971e-02 9.638742e-02 1.043919e-01 1.194426e-01 1.306762e-01 1.520579e-01 1.639030e-01 1.883807e-01 1.997270e-01 2.256155e-01 2.360173e-01 2.623616e-01 2.716374e-01 2.978145e-01 3.058919e-01 3.314413e-01 3.382916e-01 3.628389e-01 3.684459e-01 3.916660e-01 3.960086e-01 4.176068e-01 4.206500e-01 4.403523e-01 4.420433e-01 4.595930e-01 4.598620e-01 4.750199e-01 4.737846e-01 4.863330e-01 4.835066e-01 4.932554e-01 4.887559e-01 4.955499e-01 4.893112e-01 4.930377e-01 4.850198e-01 4.856151e-01 4.758129e-01 4.732667e-01 4.617165e-01 4.560746e-01 4.428581e-01 4.342219e-01 4.194665e-01 4.079912e-01 3.918700e-01 3.777614e-01 3.604918e-01 3.440050e-01 3.258499e-01 3.072931e-01 2.885683e-01 2.683186e-01 2.494154e-01 2.279647e-01 2.094076e-01 
1.967192e-01 1.814013e-01 1.623476e-01 1.502320e-01 1.352934e-01 1.286650e-01 1.216757e-01 1.226441e-01 1.262726e-01 1.343003e-01 1.470938e-01 1.593082e-01 1.778450e-01 1.917080e-01 2.133476e-01 2.273648e-01 2.505183e-01 2.638569e-01 2.875650e-01 2.997254e-01 3.233572e-01 3.340085e-01 3.571066e-01 3.660121e-01 3.882165e-01 3.951990e-01 4.162089e-01 4.211351e-01 4.406894e-01 4.434624e-01 4.613298e-01 4.618861e-01 4.778599e-01 4.761685e-01 4.900638e-01 4.861260e-01 4.977789e-01 4.916289e-01 5.008962e-01 4.926015e-01 4.993613e-01 4.890237e-01 4.931763e-01 4.809317e-01 4.824010e-01 4.684198e-01 4.671552e-01 4.516417e-01 4.476209e-01 4.308124e-01 4.240451e-01 4.062108e-01 3.967437e-01 3.781840e-01 3.661081e-01 3.471557e-01 3.326175e-01 3.136412e-01 2.968618e-01 2.782790e-01 2.595907e-01 2.418951e-01 2.218151e-01 2.056369e-01 1.850287e-01 1.712563e-01 1.516762e-01 1.416534e-01 1.259578e-01 1.215268e-01 1.140037e-01 1.164154e-01 1.200585e-01 1.279873e-01 1.413302e-01 1.519178e-01 1.714532e-01 1.826267e-01 2.056275e-01 2.163463e-01 2.411313e-01 2.509241e-01 2.764455e-01 2.851065e-01 3.106553e-01 3.181003e-01 3.431515e-01 3.493498e-01 3.734831e-01 3.784223e-01 4.012811e-01 4.049474e-01 4.262155e-01 4.285832e-01 4.479728e-01 4.489993e-01 4.662453e-01 4.658718e-01 4.807310e-01 4.788865e-01 4.911407e-01 4.877497e-01 4.972109e-01 4.922033e-01 4.987207e-01 4.920425e-01 4.955097e-01 4.871331e-01 4.874940e-01 4.774265e-01 4.746804e-01 4.629708e-01 4.571741e-01 4.439169e-01 4.351836e-01 4.205204e-01 4.090204e-01 3.931402e-01 3.790983e-01 3.622390e-01 3.459366e-01 3.283889e-01 3.101733e-01 2.922945e-01 2.726052e-01 2.548508e-01 2.342820e-01 2.172765e-01 
2.172960e-01 2.030711e-01 1.847917e-01 1.737796e-01 1.594319e-01 1.534252e-01 1.459792e-01 1.464635e-01 1.480531e-01 1.547631e-01 1.648280e-01 1.757393e-01 1.918541e-01 2.047802e-01 2.245798e-01 2.379989e-01 2.598261e-01 2.728030e-01 2.955746e-01 3.075260e-01 3.305091e-01 3.410486e-01 3.637131e-01 3.725689e-01 3.945042e-01 4.014774e-01 4.223473e-01 4.272916e-01 4.468097e-01 4.496211e-01 4.675370e-01 4.681486e-01 4.842409e-01 4.826210e-01 4.966929e-01 4.928442e-01 5.047216e-01 4.986812e-01 5.082119e-01 5.000519e-01 5.071054e-01 4.969336e-01 5.014020e-01 4.893621e-01 4.911612e-01 4.774333e-01 4.765049e-01 4.613050e-01 4.576199e-01 4.411996e-01 4.347620e-01 4.174069e-01 4.082609e-01 3.902909e-01 3.785286e-01 3.602984e-01 3.460747e-01 3.279778e-01 3.115320e-01 2.940119e-01 2.757081e-01 2.592817e-01 2.396831e-01 2.249852e-01 2.049971e-01 1.928546e-01 1.739818e-01 1.654868e-01 1.501682e-01 1.465644e-01 1.380658e-01 1.400321e-01 1.408352e-01 1.474872e-01 1.573002e-01 1.666135e-01 1.831087e-01 1.932959e-01 2.140522e-01 2.240462e-01 2.472866e-01 2.565485e-01 2.810652e-01 2.893459e-01 3.142968e-01 3.214917e-01 3.462543e-01 3.523253e-01 3.764094e-01 3.813420e-01 4.043390e-01 4.081176e-01 4.296706e-01 4.322651e-01 4.520522e-01 4.534116e-01 4.711370e-01 4.711894e-01 4.865815e-01 4.852388e-01 4.980519e-01 4.952188e-01 5.052394e-01 5.008246e-01 5.078792e-01 5.018082e-01 5.057711e-01 4.979985e-01 4.987997e-01 4.893199e-01 4.869504e-01 4.758049e-01 4.703198e-01 4.576023e-01 4.491209e-01 4.349794e-01 4.236842e-01 4.083211e-01 3.944569e-01 3.781304e-01 3.620058e-01 3.450345e-01 3.270331e-01 3.098096e-01 2.904171e-01 2.734380e-01 2.533040e-01 2.372323e-01 
2.312390e-01 2.191100e-01 2.026592e-01 1.939389e-01 1.815802e-01 1.775920e-01 1.715561e-01 1.731020e-01 1.747373e-01 1.813611e-01 1.902300e-01 2.004002e-01 2.148104e-01 2.268346e-01 2.449476e-01 2.575181e-01 2.778781e-01 2.901070e-01 3.116660e-01 3.229603e-01 3.449642e-01 3.549158e-01 3.768002e-01 3.851168e-01 4.064385e-01 4.129057e-01 4.333004e-01 4.377609e-01 4.569190e-01 4.592617e-01 4.769138e-01 4.770682e-01 4.929768e-01 4.909103e-01 5.048649e-01 5.005821e-01 5.123965e-01 5.059387e-01 5.154499e-01 5.068959e-01 5.139632e-01 5.034302e-01 5.079360e-01 4.955797e-01 4.974308e-01 4.834463e-01 4.825758e-01 4.671975e-01 4.635691e-01 4.470701e-01 4.406832e-01 4.233752e-01 4.142728e-01 3.965061e-01 3.847865e-01 3.669516e-01 3.527864e-01 3.353185e-01 3.189807e-01 3.023714e-01 2.842838e-01 2.691022e-01 2.499204e-01 2.368463e-01 2.175999e-01 2.074593e-01 1.897562e-01 1.834974e-01 1.696668e-01 1.681136e-01 1.608300e-01 1.640876e-01 1.650834e-01 1.721061e-01 1.810901e-01 1.901937e-01 2.054238e-01 2.151503e-01 2.346565e-01 2.440832e-01 2.662614e-01 2.748934e-01 2.985577e-01 3.061588e-01 3.304354e-01 3.369089e-01 3.611331e-01 3.664503e-01 3.900930e-01 3.942506e-01 4.168720e-01 4.198674e-01 4.410870e-01 4.429035e-01 4.623824e-01 4.629825e-01 4.804138e-01 4.797392e-01 4.948445e-01 4.928204e-01 5.053518e-01 5.018963e-01 5.116413e-01 5.066773e-01 5.134664e-01 5.069337e-01 5.106484e-01 5.025165e-01 5.030963e-01 4.933750e-01 4.908227e-01 4.795693e-01 4.739537e-01 4.612779e-01 4.527347e-01 4.388012e-01 4.275320e-01 4.125616e-01 3.988347e-01 3.831070e-01 3.672617e-01 3.511217e-01 3.335832e-01 3.174569e-01 2.987682e-01 2.831934e-01 2.640795e-01 2.497583e-01 
2.545470e-01 2.432162e-01 2.270646e-01 2.189913e-01 2.066309e-01 2.028806e-01 1.961685e-01 1.973619e-01 1.975023e-01 2.033248e-01 2.102089e-01 2.194766e-01 2.318937e-01 2.431529e-01 2.595484e-01 2.715549e-01 2.905487e-01 3.023902e-01 3.229112e-01 3.339496e-01 3.551930e-01 3.649797e-01 3.863310e-01 3.945442e-01 4.155183e-01 4.219235e-01 4.421233e-01 4.465506e-01 4.656408e-01 4.679722e-01 4.856628e-01 4.858249e-01 5.018617e-01 4.998221e-01 5.139804e-01 5.097460e-01 5.218270e-01 5.154436e-01 5.252722e-01 5.168248e-01 5.242493e-01 5.138630e-01 5.187544e-01 5.065952e-01 5.088489e-01 4.951243e-01 4.946624e-01 4.796215e-01 4.763969e-01 4.603301e-01 4.543328e-01 4.375708e-01 4.288371e-01 4.117501e-01 4.003757e-01 3.833732e-01 3.695330e-01 3.530661e-01 3.370433e-01 3.216098e-01 3.038432e-01 2.899976e-01 2.711546e-01 2.595199e-01 2.406071e-01 2.318726e-01 2.143676e-01 2.092283e-01 1.951293e-01 1.940834e-01 1.856066e-01 1.885996e-01 1.873476e-01 1.935538e-01 1.997252e-01 2.078402e-01 2.203509e-01 2.291478e-01 2.464030e-01 2.550283e-01 2.755158e-01 2.834800e-01 3.059708e-01 3.130342e-01 3.365735e-01 3.426412e-01 3.664845e-01 3.715346e-01 3.950849e-01 3.991222e-01 4.218838e-01 4.249107e-01 4.464563e-01 4.484555e-01 4.684047e-01 4.693310e-01 4.873387e-01 4.871184e-01 5.028691e-01 5.014057e-01 5.146157e-01 5.118007e-01 5.222233e-01 5.179501e-01 5.253850e-01 5.195651e-01 5.238677e-01 5.164457e-01 5.175363e-01 5.085027e-01 5.063732e-01 4.957742e-01 4.904914e-01 4.784341e-01 4.701408e-01 4.567957e-01 4.457091e-01 4.313109e-01 4.177223e-01 4.025703e-01 3.868486e-01 3.713120e-01 3.539157e-01 3.384451e-01 3.199511e-01 3.051022e-01 2.862597e-01 2.727298e-01 
2.722250e-01 2.628302e-01 2.481839e-01 2.420166e-01 2.310955e-01 2.288981e-01 2.231302e-01 2.252017e-01 2.254287e-01 2.313785e-01 2.375023e-01 2.463596e-01 2.574971e-01 2.680915e-01 2.830402e-01 2.943174e-01 3.119197e-01 3.230534e-01 3.423401e-01 3.527178e-01 3.729152e-01 3.820875e-01 4.025792e-01 4.102146e-01 4.305004e-01 4.363538e-01 4.560171e-01 4.599099e-01 4.785959e-01 4.804041e-01 4.978048e-01 4.974521e-01 5.132966e-01 5.107505e-01 5.247991e-01 5.200694e-01 5.321096e-01 5.252478e-01 5.350917e-01 5.261917e-01 5.336750e-01 5.228736e-01 5.278553e-01 5.153338e-01 5.176971e-01 5.036818e-01 5.033371e-01 4.880996e-01 4.849891e-01 4.688461e-01 4.629513e-01 4.462637e-01 4.376165e-01 4.207882e-01 4.094872e-01 3.929637e-01 3.791975e-01 3.634667e-01 3.475481e-01 3.331408e-01 3.155579e-01 3.030494e-01 2.845383e-01 2.745416e-01 2.561811e-01 2.493124e-01 2.326051e-01 2.293811e-01 2.162074e-01 2.168400e-01 2.091032e-01 2.132596e-01 2.122222e-01 2.189883e-01 2.247752e-01 2.329636e-01 2.446999e-01 2.532506e-01 2.696043e-01 2.777804e-01 2.974101e-01 3.047861e-01 3.265346e-01 3.329067e-01 3.558309e-01 3.611296e-01 3.844689e-01 3.886942e-01 4.118270e-01 4.150042e-01 4.374098e-01 4.395608e-01 4.607905e-01 4.619165e-01 4.815735e-01 4.816468e-01 4.993736e-01 4.983374e-01 5.138115e-01 5.115856e-01 5.245202e-01 5.210126e-01 5.311625e-01 5.262841e-01 5.334543e-01 5.271347e-01 5.311897e-01 5.233922e-01 5.242647e-01 5.149990e-01 5.126957e-01 5.020268e-01 4.966320e-01 4.846851e-01 4.763608e-01 4.633240e-01 4.523091e-01 4.384336e-01 4.250443e-01 4.106459e-01 3.952802e-01 3.807439e-01 3.638953e-01 3.496855e-01 3.319699e-01 3.186474e-01 3.008494e-01 2.890914e-01 
2.976351e-01 2.887464e-01 2.740274e-01 2.681995e-01 2.569445e-01 2.548026e-01 2.482745e-01 2.500669e-01 2.490656e-01 2.544825e-01 2.590586e-01 2.672922e-01 2.768059e-01 2.868235e-01 3.002691e-01 3.110796e-01 3.274010e-01 3.381850e-01 3.564409e-01 3.665666e-01 3.859733e-01 3.949665e-01 4.148834e-01 4.223910e-01 4.422907e-01 4.480515e-01 4.674923e-01 4.713177e-01 4.899228e-01 4.916835e-01 5.091258e-01 5.087441e-01 5.247359e-01 5.221810e-01 5.364675e-01 5.317529e-01 5.441073e-01 5.372904e-01 5.475110e-01 5.386932e-01 5.466019e-01 5.359297e-01 5.413711e-01 5.290379e-01 5.318805e-01 5.181269e-01 5.182658e-01 5.033804e-01 5.007425e-01 4.850609e-01 4.796133e-01 4.635156e-01 4.552779e-01 4.391861e-01 4.282478e-01 4.126208e-01 3.991662e-01 3.844949e-01 3.688365e-01 3.556370e-01 3.382625e-01 3.270656e-01 3.086985e-01 3.000281e-01 2.816969e-01 2.760234e-01 2.591059e-01 2.567547e-01 2.429197e-01 2.439300e-01 2.348684e-01 2.388609e-01 2.358159e-01 2.420005e-01 2.453633e-01 2.527517e-01 2.620423e-01 2.697311e-01 2.839263e-01 2.912643e-01 3.091730e-01 3.157786e-01 3.362741e-01 3.419734e-01 3.640818e-01 3.688326e-01 3.917400e-01 3.955685e-01 4.185966e-01 4.215505e-01 4.441254e-01 4.462420e-01 4.678659e-01 4.691520e-01 4.893814e-01 4.898032e-01 5.082355e-01 5.077180e-01 5.239846e-01 5.224190e-01 5.361872e-01 5.334450e-01 5.444243e-01 5.403755e-01 5.483292e-01 5.428629e-01 5.476200e-01 5.406632e-01 5.421300e-01 5.336646e-01 5.318325e-01 5.219059e-01 5.168560e-01 5.055878e-01 4.974906e-01 4.850736e-01 4.741870e-01 4.608862e-01 4.475531e-01 4.337038e-01 4.183532e-01 4.043613e-01 3.875179e-01 3.738645e-01 3.561685e-01 3.434189e-01 3.256610e-01 3.144720e-01 
3.185112e-01 3.113780e-01 2.978953e-01 2.936909e-01 2.835262e-01 2.826642e-01 2.768189e-01 2.793785e-01 2.784557e-01 2.840941e-01 2.881328e-01 2.961540e-01 3.046781e-01 3.142192e-01 3.264468e-01 3.366595e-01 3.517200e-01 3.618715e-01 3.789418e-01 3.884409e-01 4.067982e-01 4.151838e-01 4.342109e-01 4.411295e-01 4.603019e-01 4.654872e-01 4.843551e-01 4.876125e-01 5.057859e-01 5.069820e-01 5.241188e-01 5.231741e-01 5.389713e-01 5.358560e-01 5.500440e-01 5.447758e-01 5.571133e-01 5.497568e-01 5.600281e-01 5.506953e-01 5.587084e-01 5.475602e-01 5.531452e-01 5.403929e-01 5.434036e-01 5.293103e-01 5.296263e-01 5.145070e-01 5.120401e-01 4.962606e-01 4.909645e-01 4.749386e-01 4.668234e-01 4.510078e-01 4.401607e-01 4.250487e-01 4.116621e-01 3.977736e-01 3.821828e-01 3.700511e-01 3.527825e-01 3.429332e-01 3.247613e-01 3.176756e-01 2.996759e-01 2.957266e-01 2.792854e-01 2.786385e-01 2.653508e-01 2.678493e-01 2.592429e-01 2.643424e-01 2.614852e-01 2.683301e-01 2.715422e-01 2.791803e-01 2.880467e-01 2.956559e-01 3.092839e-01 3.162905e-01 3.336057e-01 3.396866e-01 3.596331e-01 3.646583e-01 3.862903e-01 3.902534e-01 4.127581e-01 4.157165e-01 4.384032e-01 4.404331e-01 4.627105e-01 4.638749e-01 4.852280e-01 4.855568e-01 5.055275e-01 5.050081e-01 5.231824e-01 5.217599e-01 5.377626e-01 5.353480e-01 5.488442e-01 5.453296e-01 5.560321e-01 5.513093e-01 5.589896e-01 5.529708e-01 5.574708e-01 5.501075e-01 5.513497e-01 5.426474e-01 5.406428e-01 5.306715e-01 5.255219e-01 5.144204e-01 5.063183e-01 4.942952e-01 4.835210e-01 4.708527e-01 4.577722e-01 4.448003e-01 4.298663e-01 4.169969e-01 4.007565e-01 3.884611e-01 3.715722e-01 3.603886e-01 3.436427e-01 3.341691e-01 
3.457508e-01 3.388733e-01 3.250386e-01 3.209616e-01 3.102574e-01 3.093459e-01 3.026978e-01 3.050216e-01 3.030210e-01 3.082845e-01 3.110464e-01 3.186356e-01 3.258134e-01 3.349408e-01 3.458778e-01 3.557383e-01 3.696501e-01 3.795226e-01 3.956294e-01 4.049151e-01 4.225068e-01 4.307296e-01 4.491847e-01 4.559762e-01 4.747573e-01 4.798397e-01 4.984816e-01 5.016536e-01 5.197501e-01 5.208756e-01 5.380690e-01 5.370695e-01 5.530418e-01 5.498910e-01 5.643577e-01 5.590788e-01 5.717838e-01 5.644483e-01 5.751608e-01 5.658895e-01 5.744012e-01 5.633658e-01 5.694899e-01 5.569149e-01 5.604865e-01 5.466507e-01 5.475298e-01 5.327664e-01 5.308441e-01 5.155386e-01 5.107477e-01 4.953330e-01 4.876643e-01 4.726125e-01 4.621364e-01 4.479475e-01 4.348433e-01 4.220292e-01 4.066215e-01 3.956849e-01 3.784879e-01 3.698927e-01 3.516565e-01 3.457857e-01 3.275331e-01 3.246290e-01 3.076518e-01 3.077413e-01 2.935085e-01 2.963335e-01 2.862763e-01 2.912757e-01 2.864845e-01 2.928748e-01 2.938478e-01 3.007918e-01 3.073794e-01 3.141616e-01 3.257138e-01 3.318408e-01 3.474395e-01 3.526501e-01 3.713064e-01 3.755252e-01 3.962988e-01 3.995710e-01 4.216213e-01 4.240527e-01 4.466467e-01 4.483543e-01 4.708540e-01 4.719301e-01 4.937726e-01 4.942610e-01 5.149387e-01 5.148230e-01 5.338698e-01 5.330734e-01 5.500581e-01 5.484539e-01 5.629830e-01 5.604124e-01 5.721391e-01 5.684362e-01 5.770754e-01 5.720943e-01 5.774391e-01 5.710788e-01 5.730152e-01 5.652408e-01 5.637580e-01 5.546138e-01 5.498090e-01 5.394244e-01 5.315012e-01 5.200897e-01 5.093527e-01 4.972070e-01 4.840547e-01 4.715391e-01 4.564605e-01 4.440041e-01 4.275798e-01 4.156713e-01 3.985820e-01 3.877640e-01 3.708048e-01 3.616607e-01 
3.696068e-01 3.643237e-01 3.515178e-01 3.488581e-01 3.390092e-01 3.391979e-01 3.330625e-01 3.360737e-01 3.341247e-01 3.396507e-01 3.419905e-01 3.494869e-01 3.558615e-01 3.646508e-01 3.745499e-01 3.839313e-01 3.967146e-01 4.060411e-01 4.210396e-01 4.297548e-01 4.463301e-01 4.539767e-01 4.715465e-01 4.777614e-01 4.958049e-01 5.003088e-01 5.183632e-01 5.209512e-01 5.386042e-01 5.391377e-01 5.560210e-01 5.544209e-01 5.702034e-01 5.664457e-01 5.808292e-01 5.749424e-01 5.876567e-01 5.797211e-01 5.905211e-01 5.806697e-01 5.893324e-01 5.777532e-01 5.840761e-01 5.710144e-01 5.748150e-01 5.605753e-01 5.616942e-01 5.466399e-01 5.449480e-01 5.294987e-01 5.249092e-01 5.095343e-01 5.020215e-01 4.872295e-01 4.768542e-01 4.631773e-01 4.501200e-01 4.380924e-01 4.226932e-01 4.128225e-01 3.956262e-01 3.883542e-01 3.701529e-01 3.658038e-01 3.476609e-01 3.463760e-01 3.296000e-01 3.312694e-01 3.172999e-01 3.215178e-01 3.117079e-01 3.177947e-01 3.131425e-01 3.202559e-01 3.212051e-01 3.285093e-01 3.349182e-01 3.417356e-01 3.530073e-01 3.588941e-01 3.741726e-01 3.789160e-01 3.972591e-01 4.008278e-01 4.213194e-01 4.237993e-01 4.456043e-01 4.471383e-01 4.695172e-01 4.702559e-01 4.925589e-01 4.926243e-01 5.142745e-01 5.137365e-01 5.342135e-01 5.330793e-01 5.519070e-01 5.501219e-01 5.668635e-01 5.643231e-01 5.785850e-01 5.751553e-01 5.865970e-01 5.821400e-01 5.904892e-01 5.848893e-01 5.899576e-01 5.831455e-01 5.848416e-01 5.768127e-01 5.751509e-01 5.659757e-01 5.610783e-01 5.509062e-01 5.430006e-01 5.320573e-01 5.214694e-01 5.100501e-01 4.971973e-01 4.856595e-01 4.710454e-01 4.598001e-01 4.440140e-01 4.335179e-01 4.172381e-01 4.079821e-01 3.919804e-01 3.844699e-01 
3.985970e-01 3.933548e-01 3.799786e-01 3.772870e-01 3.667564e-01 3.668235e-01 3.598579e-01 3.626600e-01 3.597287e-01 3.649839e-01 3.662283e-01 3.734326e-01 3.786689e-01 3.871825e-01 3.959772e-01 4.051219e-01 4.168981e-01 4.260330e-01 4.401632e-01 4.487262e-01 4.645940e-01 4.721171e-01 4.891478e-01 4.952568e-01 5.129286e-01 5.173365e-01 5.351800e-01 5.376786e-01 5.552725e-01 5.557238e-01 5.726887e-01 5.710176e-01 5.870104e-01 5.831990e-01 5.979078e-01 5.919918e-01 6.051320e-01 5.971996e-01 6.085101e-01 5.987037e-01 6.079437e-01 5.964622e-01 6.034095e-01 5.905117e-01 5.949614e-01 5.809683e-01 5.827365e-01 5.680305e-01 5.669611e-01 5.519821e-01 5.479602e-01 5.331969e-01 5.261689e-01 5.121431e-01 5.021442e-01 4.893903e-01 4.765786e-01 4.656152e-01 4.503115e-01 4.416062e-01 4.243356e-01 4.182613e-01 3.997887e-01 3.965731e-01 3.779184e-01 3.775895e-01 3.599980e-01 3.623386e-01 3.471811e-01 3.517142e-01 3.403085e-01 3.463400e-01 3.397278e-01 3.464545e-01 3.452186e-01 3.518738e-01 3.560715e-01 3.620530e-01 3.712843e-01 3.762210e-01 3.897774e-01 3.935287e-01 4.105514e-01 4.131603e-01 4.327627e-01 4.343910e-01 4.557314e-01 4.565947e-01 4.789071e-01 4.792191e-01 5.018164e-01 5.017460e-01 5.240073e-01 5.236498e-01 5.450041e-01 5.443665e-01 5.642789e-01 5.632798e-01 5.812463e-01 5.797300e-01 5.952818e-01 5.930436e-01 6.057613e-01 6.025812e-01 6.121152e-01 6.077940e-01 6.138881e-01 6.082815e-01 6.107931e-01 6.038385e-01 6.027520e-01 5.944843e-01 5.899159e-01 5.804725e-01 5.726657e-01 5.622808e-01 5.515951e-01 5.405884e-01 5.274852e-01 5.162465e-01 5.012767e-01 4.902504e-01 4.740457e-01 4.637155e-01 4.469845e-01 4.378571e-01 4.213833e-01 4.139644e-01 
4.254259e-01 4.216379e-01 4.091259e-01 4.076909e-01 3.978425e-01 3.988752e-01 3.922952e-01 3.957175e-01 3.927996e-01 3.983297e-01 3.992074e-01 4.063921e-01 4.109408e-01 4.192173e-01 4.271054e-01 4.358727e-01 4.466342e-01 4.553107e-01 4.684148e-01 4.764760e-01 4.913778e-01 4.983744e-01 5.145459e-01 5.201101e-01 5.370552e-01 5.408999e-01 5.581597e-01 5.600747e-01 5.772279e-01 5.770737e-01 5.937345e-01 5.914365e-01 6.072514e-01 6.027949e-01 6.174402e-01 6.108672e-01 6.240454e-01 6.154540e-01 6.268906e-01 6.164367e-01 6.258765e-01 6.137772e-01 6.209813e-01 6.075187e-01 6.122627e-01 5.977863e-01 5.998630e-01 5.847894e-01 5.840166e-01 5.688241e-01 5.650592e-01 5.502766e-01 5.434410e-01 5.296290e-01 5.197389e-01 5.074639e-01 4.946702e-01 4.844692e-01 4.691010e-01 4.614387e-01 4.440466e-01 4.392641e-01 4.206530e-01 4.189119e-01 4.001463e-01 4.013748e-01 3.837340e-01 3.875922e-01 3.724549e-01 3.783413e-01 3.670020e-01 3.741220e-01 3.675813e-01 3.750726e-01 3.738771e-01 3.809574e-01 3.851509e-01 3.912341e-01 4.004253e-01 4.051745e-01 4.186738e-01 4.219902e-01 4.389560e-01 4.409268e-01 4.604808e-01 4.613115e-01 4.826113e-01 4.825585e-01 5.048310e-01 5.041448e-01 5.266916e-01 5.255720e-01 5.477596e-01 5.463276e-01 5.675725e-01 5.658570e-01 5.856144e-01 5.835554e-01 6.013160e-01 5.987814e-01 6.140782e-01 6.108920e-01 6.233161e-01 6.192930e-01 6.285144e-01 6.234953e-01 6.292847e-01 6.231673e-01 6.254138e-01 6.181748e-01 6.168955e-01 6.086015e-01 6.039428e-01 5.947509e-01 5.869814e-01 5.771319e-01 5.666297e-01 5.564334e-01 5.436716e-01 5.334951e-01 5.190287e-01 5.092791e-01 4.937342e-01 4.848438e-01 4.689099e-01 4.613175e-01 4.457392e-01 4.398654e-01 
4.561812e-01 4.522403e-01 4.389771e-01 4.373782e-01 4.267400e-01 4.275942e-01 4.201650e-01 4.233962e-01 4.195645e-01 4.249018e-01 4.248177e-01 4.318228e-01 4.353973e-01 4.435204e-01 4.504657e-01 4.591113e-01 4.690036e-01 4.775870e-01 4.899291e-01 4.979162e-01 5.121865e-01 5.191167e-01 5.348011e-01 5.402969e-01 5.569062e-01 5.606755e-01 5.777525e-01 5.795851e-01 5.967064e-01 5.964675e-01 6.132419e-01 6.108647e-01 6.269303e-01 6.224095e-01 6.374313e-01 6.308179e-01 6.444846e-01 6.358854e-01 6.479063e-01 6.374859e-01 6.475871e-01 6.355726e-01 6.434931e-01 6.301792e-01 6.356691e-01 6.214217e-01 6.242438e-01 6.094991e-01 6.094371e-01 5.946953e-01 5.915701e-01 5.773802e-01 5.710753e-01 5.580118e-01 5.485078e-01 5.371377e-01 5.245535e-01 5.153950e-01 5.000326e-01 4.935066e-01 4.758927e-01 4.722699e-01 4.531843e-01 4.525338e-01 4.330106e-01 4.351586e-01 4.164413e-01 4.209555e-01 4.043941e-01 4.106099e-01 3.975005e-01 4.046001e-01 3.960013e-01 4.031366e-01 3.997163e-01 4.061447e-01 4.081107e-01 4.133017e-01 4.204303e-01 4.241148e-01 4.358537e-01 4.380141e-01 4.536124e-01 4.544298e-01 4.730552e-01 4.728365e-01 4.936587e-01 4.927614e-01 5.149969e-01 5.137617e-01 5.366871e-01 5.353838e-01 5.583290e-01 5.571194e-01 5.794513e-01 5.783695e-01 5.994790e-01 5.984319e-01 6.177284e-01 6.165144e-01 6.334346e-01 6.317787e-01 6.458075e-01 6.434072e-01 6.541080e-01 6.506843e-01 6.577324e-01 6.530757e-01 6.562878e-01 6.502935e-01 6.496457e-01 6.423334e-01 6.379658e-01 6.294809e-01 6.216878e-01 6.122899e-01 6.014993e-01 5.915400e-01 5.782889e-01 5.681867e-01 5.530963e-01 5.433112e-01 5.270670e-01 5.180767e-01 5.014129e-01 4.936891e-01 4.773755e-01 4.713569e-01 