# vtk DataFile Version 2.0
Comment goes here
ASCII

DATASET STRUCTURED_POINTS
FIELD FieldData 1
TIME 1 1 double
0.22500000
DIMENSIONS    128   128   1

ORIGIN    0.000   0.000   0.000
SPACING   0.039062 0.039062   1.000

POINT_DATA   16384
SCALARS uMag double
LOOKUP_TABLE default

6.496419e-02 5.292374e-02 3.976914e-02 2.723486e-02 1.370903e-02 8.767425e-04 1.281400e-02 2.573614e-02 3.937523e-02 5.217098e-02 6.553616e-02 7.798618e-02 9.085479e-02 1.027423e-01 1.148973e-01 1.260145e-01 1.372506e-01 1.474048e-01 1.575354e-01 1.665560e-01 1.754192e-01 1.831633e-01 1.906277e-01 1.969853e-01 2.029547e-01 2.078526e-01 2.122685e-01 2.156723e-01 2.185160e-01 2.204302e-01 2.217217e-01 2.221883e-01 2.219839e-01 2.210789e-01 2.194673e-01 2.172954e-01 2.143924e-01 2.110815e-01 2.070232e-01 2.027171e-01 1.976534e-01 1.925053e-01 1.865927e-01 1.807583e-01 1.741535e-01 1.677844e-01 1.606384e-01 1.538772e-01 1.463301e-01 1.393058e-01 1.314828e-01 1.243077e-01 1.163166e-01 1.090840e-01 1.010137e-01 9.379731e-02 8.571689e-02 7.857067e-02 7.053062e-02 6.348982e-02 5.552321e-02 4.860620e-02 4.073108e-02 3.394170e-02 2.616384e-02 1.949416e-02 1.181024e-02 5.243635e-03 2.355450e-03 8.841154e-03 1.636704e-02 2.279643e-02 3.026018e-02 3.665725e-02 4.406657e-02 5.045189e-02 5.780870e-02 6.419684e-02 7.149533e-02 7.789252e-02 8.511751e-02 9.151959e-02 9.864531e-02 1.050359e-01 1.120252e-01 1.183743e-01 1.251780e-01 1.314409e-01 1.379976e-01 1.441143e-01 1.503508e-01 1.562460e-01 1.620777e-01 1.676618e-01 1.729941e-01 1.781649e-01 1.828953e-01 1.875403e-01 1.915607e-01 1.955609e-01 1.987612e-01 2.019954e-01 2.042668e-01 2.066160e-01 2.078557e-01 2.092080e-01 2.093232e-01 2.095787e-01 2.084905e-01 2.075659e-01 2.052132e-01 2.030453e-01 1.993877e-01 1.959363e-01 1.909569e-01 1.862072e-01 1.799135e-01 1.738773e-01 1.663028e-01 1.590186e-01 1.502227e-01 1.417561e-01 1.318236e-01 1.222661e-01 1.113069e-01 1.007749e-01 8.892209e-02 7.755536e-02 
6.620413e-02 5.445459e-02 4.181270e-02 3.018080e-02 1.898426e-02 1.328540e-02 1.855264e-02 2.909561e-02 4.171035e-02 5.400281e-02 6.704741e-02 7.929827e-02 9.201832e-02 1.038048e-01 1.158770e-01 1.269361e-01 1.381209e-01 1.482391e-01 1.583353e-01 1.673322e-01 1.761706e-01 1.838980e-01 1.913431e-01 1.976881e-01 2.036409e-01 2.085284e-01 2.129289e-01 2.163231e-01 2.191513e-01 2.210562e-01 2.223312e-01 2.227884e-01 2.225660e-01 2.216512e-01 2.200200e-01 2.178381e-01 2.149134e-01 2.115924e-01 2.075105e-01 2.031946e-01 1.981056e-01 1.929485e-01 1.870093e-01 1.811668e-01 1.745347e-01 1.681592e-01 1.609857e-01 1.542203e-01 1.466465e-01 1.396208e-01 1.317731e-01 1.246001e-01 1.165877e-01 1.093620e-01 1.012755e-01 9.407227e-02 8.598391e-02 7.885965e-02 7.082462e-02 6.381974e-02 5.588051e-02 4.902485e-02 4.122184e-02 3.455127e-02 2.696223e-02 2.059848e-02 1.361959e-02 8.694234e-03 7.496756e-03 1.144805e-02 1.799751e-02 2.404313e-02 3.126597e-02 3.752506e-02 4.483149e-02 5.114732e-02 5.844717e-02 6.479452e-02 7.205571e-02 7.842730e-02 8.562458e-02 9.201049e-02 9.911352e-02 1.054945e-01 1.124639e-01 1.188084e-01 1.255937e-01 1.318561e-01 1.383953e-01 1.445149e-01 1.507345e-01 1.566356e-01 1.624509e-01 1.680433e-01 1.733598e-01 1.785410e-01 1.832561e-01 1.879132e-01 1.919190e-01 1.959328e-01 1.991192e-01 2.023679e-01 2.046265e-01 2.069908e-01 2.082189e-01 2.095867e-01 2.096917e-01 2.099631e-01 2.088666e-01 2.079581e-01 2.055993e-01 2.034480e-01 1.997873e-01 1.963534e-01 1.913746e-01 1.866441e-01 1.803561e-01 1.743419e-01 1.667798e-01 1.595228e-01 1.507489e-01 1.423179e-01 1.324223e-01 1.229154e-01 1.120172e-01 1.015639e-01 8.981743e-02 7.858832e-02 
7.007790e-02 5.911993e-02 4.774417e-02 3.798302e-02 2.987872e-02 2.661155e-02 2.959276e-02 3.709720e-02 4.763175e-02 5.867130e-02 7.085487e-02 8.251801e-02 9.480051e-02 1.062552e-01 1.180706e-01 1.289184e-01 1.399378e-01 1.499101e-01 1.598926e-01 1.687825e-01 1.775387e-01 1.851839e-01 1.925669e-01 1.988462e-01 2.047503e-01 2.095834e-01 2.139445e-01 2.172925e-01 2.200878e-01 2.219527e-01 2.231998e-01 2.236218e-01 2.233759e-01 2.224301e-01 2.207792e-01 2.185703e-01 2.156301e-01 2.122860e-01 2.081933e-01 2.038584e-01 1.987637e-01 1.935921e-01 1.876532e-01 1.818012e-01 1.751763e-01 1.687971e-01 1.616386e-01 1.548762e-01 1.473264e-01 1.403116e-01 1.324985e-01 1.253462e-01 1.173812e-01 1.101884e-01 1.021657e-01 9.501169e-02 8.700934e-02 7.995815e-02 7.204246e-02 6.514836e-02 5.738477e-02 5.070754e-02 4.319055e-02 3.684175e-02 2.980138e-02 2.413640e-02 1.845849e-02 1.508642e-02 1.430504e-02 1.661071e-02 2.156156e-02 2.674192e-02 3.332828e-02 3.920590e-02 4.621011e-02 5.231734e-02 5.945108e-02 6.566700e-02 7.283063e-02 7.911186e-02 8.625175e-02 9.257224e-02 9.964410e-02 1.059766e-01 1.129332e-01 1.192417e-01 1.260278e-01 1.322642e-01 1.388147e-01 1.449167e-01 1.511556e-01 1.570464e-01 1.628874e-01 1.684761e-01 1.738232e-01 1.790065e-01 1.837561e-01 1.884204e-01 1.924636e-01 1.964892e-01 1.997152e-01 2.029798e-01 2.052798e-01 2.076637e-01 2.089348e-01 2.103259e-01 2.104756e-01 2.107740e-01 2.097243e-01 2.088473e-01 2.065385e-01 2.044241e-01 2.008181e-01 1.974285e-01 1.925113e-01 1.878349e-01 1.816190e-01 1.756728e-01 1.681988e-01 1.610297e-01 1.523684e-01 1.440556e-01 1.343114e-01 1.249708e-01 1.142900e-01 1.040867e-01 9.267963e-02 8.186391e-02 
7.597944e-02 6.605103e-02 5.615295e-02 4.818761e-02 4.218197e-02 4.001084e-02 4.215397e-02 4.779350e-02 5.645034e-02 6.608904e-02 7.718073e-02 8.805655e-02 9.971815e-02 1.107040e-01 1.221390e-01 1.326862e-01 1.434562e-01 1.532234e-01 1.630328e-01 1.717752e-01 1.804048e-01 1.879386e-01 1.952239e-01 2.014147e-01 2.072390e-01 2.119983e-01 2.162900e-01 2.195737e-01 2.223056e-01 2.241121e-01 2.252987e-01 2.256665e-01 2.253609e-01 2.243642e-01 2.226539e-01 2.203972e-01 2.173977e-01 2.140093e-01 2.098578e-01 2.054832e-01 2.003314e-01 1.951256e-01 1.891327e-01 1.832537e-01 1.765799e-01 1.701824e-01 1.629826e-01 1.562127e-01 1.486320e-01 1.416231e-01 1.337931e-01 1.266631e-01 1.187001e-01 1.115504e-01 1.035554e-01 9.647207e-02 8.853358e-02 8.159144e-02 7.379351e-02 6.706659e-02 5.950772e-02 5.309482e-02 4.593728e-02 4.003321e-02 3.365128e-02 2.877239e-02 2.421632e-02 2.178239e-02 2.128539e-02 2.292344e-02 2.677520e-02 3.111575e-02 3.697306e-02 4.235977e-02 4.895365e-02 5.476606e-02 6.165349e-02 6.767839e-02 7.468416e-02 8.083481e-02 8.786886e-02 9.409782e-02 1.010968e-01 1.073655e-01 1.142715e-01 1.205374e-01 1.272889e-01 1.334999e-01 1.400276e-01 1.461190e-01 1.523441e-01 1.582372e-01 1.640716e-01 1.696739e-01 1.750203e-01 1.802270e-01 1.849807e-01 1.896771e-01 1.937285e-01 1.977933e-01 2.010314e-01 2.043411e-01 2.066568e-01 2.090909e-01 2.103815e-01 2.118271e-01 2.120009e-01 2.123581e-01 2.113382e-01 2.105248e-01 2.082533e-01 2.062087e-01 2.026503e-01 1.993392e-01 1.944837e-01 1.898985e-01 1.837641e-01 1.779278e-01 1.705635e-01 1.635326e-01 1.550221e-01 1.468914e-01 1.373610e-01 1.282731e-01 1.179077e-01 1.080774e-01 9.716210e-02 8.694010e-02 
8.381471e-02 7.497274e-02 6.646049e-02 5.991689e-02 5.524697e-02 5.362942e-02 5.528740e-02 5.970510e-02 6.686880e-02 7.517897e-02 8.511896e-02 9.508054e-02 1.059914e-01 1.163718e-01 1.273129e-01 1.374449e-01 1.478770e-01 1.573467e-01 1.669154e-01 1.754354e-01 1.838864e-01 1.912471e-01 1.983945e-01 2.044455e-01 2.101586e-01 2.148010e-01 2.189996e-01 2.221824e-01 2.248333e-01 2.265507e-01 2.276649e-01 2.279528e-01 2.275816e-01 2.265129e-01 2.247429e-01 2.224216e-01 2.193686e-01 2.159234e-01 2.117255e-01 2.073024e-01 2.021129e-01 1.968682e-01 1.908480e-01 1.849411e-01 1.782526e-01 1.718399e-01 1.646407e-01 1.578705e-01 1.503086e-01 1.433171e-01 1.355279e-01 1.284366e-01 1.205414e-01 1.134569e-01 1.055638e-01 9.857996e-02 9.078854e-02 8.399243e-02 7.640502e-02 6.989131e-02 6.263799e-02 5.654084e-02 4.983769e-02 4.440726e-02 3.869669e-02 3.447592e-02 3.070211e-02 2.874066e-02 2.828252e-02 2.944792e-02 3.246476e-02 3.604964e-02 4.116091e-02 4.599425e-02 5.209985e-02 5.754080e-02 6.411825e-02 6.988669e-02 7.669446e-02 8.266132e-02 8.957018e-02 9.566418e-02 1.025880e-01 1.087570e-01 1.156238e-01 1.218174e-01 1.285565e-01 1.347179e-01 1.412538e-01 1.473149e-01 1.535646e-01 1.594445e-01 1.653162e-01 1.709207e-01 1.763144e-01 1.815369e-01 1.863459e-01 1.910700e-01 1.951831e-01 1.992860e-01 2.025907e-01 2.059476e-01 2.083342e-01 2.108234e-01 2.121890e-01 2.136971e-01 2.139504e-01 2.143777e-01 2.134432e-01 2.127085e-01 2.105304e-01 2.085754e-01 2.051220e-01 2.019148e-01 1.971810e-01 1.927197e-01 1.867310e-01 1.810466e-01 1.738629e-01 1.670243e-01 1.587459e-01 1.508667e-01 1.416461e-01 1.329001e-01 1.229656e-01 1.136202e-01 1.033318e-01 9.382890e-02 
9.294032e-02 8.511349e-02 7.778810e-02 7.234560e-02 6.861519e-02 6.739271e-02 6.881830e-02 7.248588e-02 7.858934e-02 8.583450e-02 9.475156e-02 1.038472e-01 1.140005e-01 1.237564e-01 1.341638e-01 1.438498e-01 1.539029e-01 1.630472e-01 1.723393e-01 1.806143e-01 1.888562e-01 1.960256e-01 2.030078e-01 2.089030e-01 2.144791e-01 2.189891e-01 2.230680e-01 2.261338e-01 2.286750e-01 2.302857e-01 2.312955e-01 2.314840e-01 2.310109e-01 2.298487e-01 2.279782e-01 2.255693e-01 2.224173e-01 2.188911e-01 2.145968e-01 2.101009e-01 2.048193e-01 1.995119e-01 1.934068e-01 1.874497e-01 1.806867e-01 1.742392e-01 1.669798e-01 1.601933e-01 1.525901e-01 1.456046e-01 1.377987e-01 1.307405e-01 1.228600e-01 1.158420e-01 1.080044e-01 1.011291e-01 9.344717e-02 8.681442e-02 7.941002e-02 7.313383e-02 6.616633e-02 6.040881e-02 5.413309e-02 4.917284e-02 4.404910e-02 4.039313e-02 3.720987e-02 3.561379e-02 3.525193e-02 3.619749e-02 3.871437e-02 4.176730e-02 4.628310e-02 5.062958e-02 5.627206e-02 6.134504e-02 6.759567e-02 7.309474e-02 7.967578e-02 8.544498e-02 9.219704e-02 9.814597e-02 1.049625e-01 1.110268e-01 1.178223e-01 1.239441e-01 1.306389e-01 1.367562e-01 1.432686e-01 1.493101e-01 1.555526e-01 1.614348e-01 1.673124e-01 1.729387e-01 1.783490e-01 1.836106e-01 1.884449e-01 1.932231e-01 1.973689e-01 2.015386e-01 2.048825e-01 2.083168e-01 2.107485e-01 2.133241e-01 2.147410e-01 2.163433e-01 2.166550e-01 2.171841e-01 2.163170e-01 2.156927e-01 2.135940e-01 2.117602e-01 2.084025e-01 2.053315e-01 2.007161e-01 1.964121e-01 1.905731e-01 1.850768e-01 1.780865e-01 1.714803e-01 1.634575e-01 1.558758e-01 1.470003e-01 1.386486e-01 1.291908e-01 1.203848e-01 1.107672e-01 1.020161e-01 
1.034025e-01 9.648905e-02 9.015686e-02 8.555729e-02 8.249183e-02 8.151742e-02 8.276255e-02 8.586160e-02 9.112981e-02 9.745952e-02 1.054469e-01 1.136927e-01 1.230775e-01 1.321591e-01 1.419843e-01 1.511558e-01 1.607747e-01 1.695250e-01 1.784897e-01 1.864570e-01 1.944460e-01 2.013683e-01 2.081488e-01 2.138396e-01 2.192487e-01 2.235842e-01 2.275194e-01 2.304321e-01 2.328451e-01 2.343185e-01 2.352109e-01 2.352744e-01 2.346922e-01 2.334159e-01 2.314436e-01 2.289310e-01 2.256850e-01 2.220661e-01 2.176871e-01 2.131108e-01 2.077562e-01 2.023825e-01 1.962188e-01 1.902117e-01 1.834080e-01 1.769293e-01 1.696508e-01 1.628550e-01 1.552588e-01 1.482895e-01 1.405216e-01 1.335096e-01 1.257044e-01 1.187684e-01 1.110514e-01 1.043017e-01 9.679632e-02 9.034347e-02 8.318601e-02 7.715755e-02 7.052489e-02 6.509639e-02 5.925487e-02 5.470096e-02 5.007715e-02 4.682685e-02 4.403734e-02 4.262167e-02 4.224782e-02 4.295954e-02 4.503979e-02 4.761127e-02 5.157579e-02 5.543842e-02 6.061340e-02 6.528910e-02 7.119372e-02 7.638447e-02 8.272390e-02 8.825668e-02 9.484772e-02 1.006163e-01 1.073329e-01 1.132615e-01 1.200040e-01 1.260272e-01 1.327055e-01 1.387563e-01 1.452809e-01 1.512846e-01 1.575621e-01 1.634325e-01 1.693634e-01 1.750013e-01 1.804794e-01 1.857737e-01 1.906875e-01 1.955169e-01 1.997514e-01 2.039882e-01 2.074282e-01 2.109431e-01 2.134773e-01 2.161451e-01 2.176705e-01 2.193755e-01 2.198025e-01 2.204448e-01 2.197015e-01 2.192022e-01 2.172393e-01 2.155453e-01 2.123402e-01 2.094286e-01 2.049896e-01 2.008719e-01 1.952429e-01 1.899701e-01 1.832370e-01 1.769059e-01 1.692061e-01 1.619717e-01 1.535112e-01 1.456074e-01 1.366923e-01 1.284718e-01 1.195667e-01 1.115742e-01 
1.146923e-01 1.085786e-01 1.030736e-01 9.915496e-02 9.661706e-02 9.586607e-02 9.703155e-02 9.976472e-02 1.044406e-01 1.100780e-01 1.173125e-01 1.248395e-01 1.335384e-01 1.420055e-01 1.512762e-01 1.599563e-01 1.691438e-01 1.775073e-01 1.861369e-01 1.937965e-01 2.015203e-01 2.081920e-01 2.147557e-01 2.202354e-01 2.254596e-01 2.296109e-01 2.333809e-01 2.361272e-01 2.383864e-01 2.397053e-01 2.404496e-01 2.403674e-01 2.396396e-01 2.382249e-01 2.361084e-01 2.334650e-01 2.300766e-01 2.263359e-01 2.218181e-01 2.171311e-01 2.116443e-01 2.061736e-01 1.998882e-01 1.938012e-01 1.868905e-01 1.803527e-01 1.729872e-01 1.661571e-01 1.584998e-01 1.515255e-01 1.437290e-01 1.367467e-01 1.289531e-01 1.220880e-01 1.144318e-01 1.078017e-01 1.004176e-01 9.414233e-02 8.717964e-02 8.139648e-02 7.504441e-02 6.993430e-02 6.445988e-02 6.028156e-02 5.606896e-02 5.317735e-02 5.070939e-02 4.948129e-02 4.915175e-02 4.976210e-02 5.157925e-02 5.383586e-02 5.739771e-02 6.088893e-02 6.567428e-02 7.001211e-02 7.559869e-02 8.051048e-02 8.660928e-02 9.192102e-02 9.833807e-02 1.039363e-01 1.105327e-01 1.163347e-01 1.229996e-01 1.289347e-01 1.355694e-01 1.415668e-01 1.480750e-01 1.540572e-01 1.603404e-01 1.662186e-01 1.721731e-01 1.778458e-01 1.833623e-01 1.887155e-01 1.936797e-01 1.985891e-01 2.028838e-01 2.072186e-01 2.107273e-01 2.143551e-01 2.169656e-01 2.197584e-01 2.213680e-01 2.232084e-01 2.237285e-01 2.245162e-01 2.238772e-01 2.235342e-01 2.216907e-01 2.201666e-01 2.171015e-01 2.143786e-01 2.101078e-01 2.062051e-01 2.007826e-01 1.957615e-01 1.892868e-01 1.832585e-01 1.758868e-01 1.690253e-01 1.609858e-01 1.535489e-01 1.451751e-01 1.375411e-01 1.293210e-01 1.220466e-01 
1.270368e-01 1.216255e-01 1.168213e-01 1.134486e-01 1.113217e-01 1.107276e-01 1.118207e-01 1.142432e-01 1.184262e-01 1.234554e-01 1.300177e-01 1.368641e-01 1.449037e-01 1.527461e-01 1.614503e-01 1.696015e-01 1.783271e-01 1.862547e-01 1.945126e-01 2.018130e-01 2.092352e-01 2.156065e-01 2.219198e-01 2.271425e-01 2.321522e-01 2.360780e-01 2.396578e-01 2.422016e-01 2.442867e-01 2.454204e-01 2.460016e-01 2.457481e-01 2.448655e-01 2.432921e-01 2.410285e-01 2.382390e-01 2.347120e-01 2.308390e-01 2.261935e-01 2.213898e-01 2.157891e-01 2.102198e-01 2.038383e-01 1.976734e-01 1.906888e-01 1.840968e-01 1.766844e-01 1.698272e-01 1.621549e-01 1.551845e-01 1.474104e-01 1.404672e-01 1.327394e-01 1.259533e-01 1.184129e-01 1.119072e-01 1.046955e-01 9.859519e-02 9.186719e-02 8.631233e-02 8.025743e-02 7.542266e-02 7.029090e-02 6.640530e-02 6.252468e-02 5.987023e-02 5.761208e-02 5.645688e-02 5.609914e-02 5.655625e-02 5.810676e-02 6.004253e-02 6.322120e-02 6.633648e-02 7.074328e-02 7.472617e-02 7.999814e-02 8.460516e-02 9.046729e-02 9.552893e-02 1.017820e-01 1.071810e-01 1.136754e-01 1.193239e-01 1.259383e-01 1.317612e-01 1.383873e-01 1.443109e-01 1.508448e-01 1.567888e-01 1.631256e-01 1.689992e-01 1.750299e-01 1.807291e-01 1.863400e-01 1.917477e-01 1.968207e-01 2.018094e-01 2.062244e-01 2.106595e-01 2.142974e-01 2.180430e-01 2.207905e-01 2.237156e-01 2.254692e-01 2.274547e-01 2.281267e-01 2.290714e-01 2.285946e-01 2.284220e-01 2.267548e-01 2.254178e-01 2.225491e-01 2.200353e-01 2.159887e-01 2.123252e-01 2.071654e-01 2.024239e-01 1.962635e-01 1.905690e-01 1.835795e-01 1.771221e-01 1.695514e-01 1.626065e-01 1.548058e-01 1.477643e-01 1.402268e-01 1.336354e-01 
1.400042e-01 1.352103e-01 1.310030e-01 1.280998e-01 1.263282e-01 1.258980e-01 1.269771e-01 1.292048e-01 1.330385e-01 1.376176e-01 1.436535e-01 1.499529e-01 1.574378e-01 1.647476e-01 1.729488e-01 1.806295e-01 1.889284e-01 1.964563e-01 2.043602e-01 2.113233e-01 2.184504e-01 2.245332e-01 2.305945e-01 2.355644e-01 2.403511e-01 2.440483e-01 2.474228e-01 2.497541e-01 2.516430e-01 2.525749e-01 2.529635e-01 2.525161e-01 2.514415e-01 2.496811e-01 2.472253e-01 2.442568e-01 2.405388e-01 2.364968e-01 2.316639e-01 2.267042e-01 2.209239e-01 2.152153e-01 2.086668e-01 2.023832e-01 1.952499e-01 1.885642e-01 1.810274e-01 1.741060e-01 1.663404e-01 1.593401e-01 1.515109e-01 1.445772e-01 1.368396e-01 1.301077e-01 1.226101e-01 1.162085e-01 1.090992e-01 1.031568e-01 9.659556e-02 9.125288e-02 8.542727e-02 8.084998e-02 7.599238e-02 7.238105e-02 6.877186e-02 6.635015e-02 6.427846e-02 6.323692e-02 6.289954e-02 6.330425e-02 6.469667e-02 6.643984e-02 6.934936e-02 7.220209e-02 7.631324e-02 8.002460e-02 8.502909e-02 8.938881e-02 9.503415e-02 9.988574e-02 1.059766e-01 1.112060e-01 1.175888e-01 1.231080e-01 1.296547e-01 1.353876e-01 1.419833e-01 1.478550e-01 1.543898e-01 1.603190e-01 1.666829e-01 1.725772e-01 1.786566e-01 1.844100e-01 1.900873e-01 1.955800e-01 2.007338e-01 2.058343e-01 2.103418e-01 2.149113e-01 2.186516e-01 2.225499e-01 2.254082e-01 2.285006e-01 2.303734e-01 2.325380e-01 2.333387e-01 2.344732e-01 2.341373e-01 2.341658e-01 2.326560e-01 2.315345e-01 2.288456e-01 2.265671e-01 2.227309e-01 2.193299e-01 2.144211e-01 2.099797e-01 2.041231e-01 1.987782e-01 1.921594e-01 1.861149e-01 1.789960e-01 1.725395e-01 1.652817e-01 1.588082e-01 1.518985e-01 1.459347e-01 
1.539508e-01 1.497068e-01 1.460258e-01 1.435183e-01 1.420468e-01 1.417424e-01 1.428072e-01 1.448550e-01 1.483853e-01 1.525527e-01 1.581118e-01 1.638894e-01 1.708461e-01 1.776216e-01 1.853203e-01 1.925062e-01 2.003605e-01 2.074506e-01 2.149726e-01 2.215540e-01 2.283539e-01 2.341022e-01 2.398791e-01 2.445513e-01 2.490844e-01 2.525118e-01 2.556533e-01 2.577353e-01 2.594048e-01 2.601032e-01 2.602811e-01 2.596136e-01 2.583349e-01 2.563674e-01 2.537141e-01 2.505523e-01 2.466449e-01 2.424254e-01 2.374146e-01 2.322957e-01 2.263529e-01 2.205062e-01 2.138155e-01 2.074180e-01 2.001679e-01 1.933956e-01 1.857730e-01 1.787956e-01 1.709805e-01 1.639580e-01 1.561208e-01 1.492021e-01 1.415027e-01 1.348261e-01 1.274168e-01 1.211130e-01 1.141441e-01 1.083420e-01 1.019710e-01 9.680605e-02 9.121022e-02 8.683309e-02 8.221908e-02 7.879898e-02 7.539958e-02 7.311036e-02 7.115027e-02 7.012853e-02 6.975412e-02 7.004133e-02 7.125145e-02 7.276516e-02 7.540456e-02 7.797061e-02 8.179383e-02 8.521087e-02 8.995880e-02 9.404645e-02 9.948995e-02 1.041053e-01 1.100550e-01 1.150888e-01 1.213883e-01 1.267535e-01 1.332685e-01 1.388891e-01 1.454977e-01 1.512985e-01 1.578839e-01 1.637834e-01 1.702292e-01 1.761339e-01 1.823212e-01 1.881230e-01 1.939291e-01 1.995050e-01 2.048042e-01 2.100185e-01 2.146842e-01 2.193934e-01 2.233016e-01 2.273604e-01 2.303943e-01 2.336636e-01 2.357191e-01 2.380737e-01 2.390649e-01 2.404014e-01 2.402663e-01 2.405096e-01 2.392151e-01 2.383244e-01 2.358715e-01 2.338455e-01 2.302742e-01 2.271551e-01 2.225498e-01 2.184293e-01 2.129262e-01 2.079520e-01 2.017482e-01 1.961343e-01 1.895015e-01 1.835418e-01 1.768433e-01 1.709277e-01 1.646342e-01 1.592598e-01 
1.684602e-01 1.647111e-01 1.614911e-01 1.593445e-01 1.581483e-01 1.579885e-01 1.590803e-01 1.610300e-01 1.643532e-01 1.682272e-01 1.734240e-01 1.787993e-01 1.853298e-01 1.916717e-01 1.989464e-01 2.057152e-01 2.131808e-01 2.198903e-01 2.270682e-01 2.333083e-01 2.398048e-01 2.452454e-01 2.507500e-01 2.551395e-01 2.594206e-01 2.625819e-01 2.654824e-01 2.673082e-01 2.687401e-01 2.691884e-01 2.691273e-01 2.682140e-01 2.666927e-01 2.644841e-01 2.615846e-01 2.581885e-01 2.540337e-01 2.495898e-01 2.443342e-01 2.390049e-01 2.328250e-01 2.267863e-01 2.198724e-01 2.133060e-01 2.058535e-01 1.989402e-01 1.911429e-01 1.840572e-01 1.761024e-01 1.690091e-01 1.610741e-01 1.541266e-01 1.463776e-01 1.397181e-01 1.323126e-01 1.260745e-01 1.191655e-01 1.134777e-01 1.072216e-01 1.022146e-01 9.677947e-02 9.259006e-02 8.816100e-02 8.493193e-02 8.170384e-02 7.956950e-02 7.771799e-02 7.677307e-02 7.640427e-02 7.666678e-02 7.777303e-02 7.916955e-02 8.162666e-02 8.401584e-02 8.762531e-02 9.084201e-02 9.538454e-02 9.927531e-02 1.045458e-01 1.089840e-01 1.148036e-01 1.196886e-01 1.259031e-01 1.311531e-01 1.376256e-01 1.431678e-01 1.497724e-01 1.555339e-01 1.621490e-01 1.680498e-01 1.745543e-01 1.805012e-01 1.867714e-01 1.926551e-01 1.985642e-01 2.042589e-01 2.096771e-01 2.150426e-01 2.198400e-01 2.247273e-01 2.287770e-01 2.330350e-01 2.362187e-01 2.397028e-01 2.419158e-01 2.444968e-01 2.456542e-01 2.472265e-01 2.472689e-01 2.477578e-01 2.466565e-01 2.460239e-01 2.437863e-01 2.420359e-01 2.387096e-01 2.358912e-01 2.315699e-01 2.277838e-01 2.226134e-01 2.180165e-01 2.122034e-01 2.070175e-01 2.008393e-01 1.953612e-01 1.891784e-01 1.837891e-01 1.780527e-01 1.732193e-01 
1.839839e-01 1.806872e-01 1.778936e-01 1.760659e-01 1.751207e-01 1.750819e-01 1.762020e-01 1.780546e-01 1.811946e-01 1.847896e-01 1.896527e-01 1.946356e-01 2.007578e-01 2.066611e-01 2.135126e-01 2.198429e-01 2.269054e-01 2.332005e-01 2.400092e-01 2.458664e-01 2.520281e-01 2.571160e-01 2.623142e-01 2.663757e-01 2.703710e-01 2.732230e-01 2.758507e-01 2.773814e-01 2.785477e-01 2.787123e-01 2.783893e-01 2.772031e-01 2.754226e-01 2.729527e-01 2.697980e-01 2.661545e-01 2.617512e-01 2.570768e-01 2.515834e-01 2.460438e-01 2.396424e-01 2.334168e-01 2.263033e-01 2.195766e-01 2.119524e-01 2.049083e-01 1.969733e-01 1.897891e-01 1.817357e-01 1.745789e-01 1.665890e-01 1.596150e-01 1.518582e-01 1.452105e-01 1.378456e-01 1.316574e-01 1.248356e-01 1.192326e-01 1.131036e-01 1.082079e-01 1.029256e-01 9.885813e-02 9.458308e-02 9.146167e-02 8.835441e-02 8.628183e-02 8.448081e-02 8.352331e-02 8.311065e-02 8.327473e-02 8.424673e-02 8.547102e-02 8.773465e-02 8.990579e-02 9.330443e-02 9.628713e-02 1.006372e-01 1.043008e-01 1.094196e-01 1.136520e-01 1.193709e-01 1.240802e-01 1.302468e-01 1.353567e-01 1.418318e-01 1.472734e-01 1.539260e-01 1.596300e-01 1.663330e-01 1.722215e-01 1.788480e-01 1.848288e-01 1.912494e-01 1.972122e-01 2.032945e-01 2.091101e-01 2.147195e-01 2.202426e-01 2.252442e-01 2.303192e-01 2.345826e-01 2.390514e-01 2.424554e-01 2.461671e-01 2.486057e-01 2.514263e-01 2.528153e-01 2.546366e-01 2.549189e-01 2.556665e-01 2.548179e-01 2.544568e-01 2.524908e-01 2.510301e-01 2.480023e-01 2.454991e-01 2.415119e-01 2.380749e-01 2.332829e-01 2.290768e-01 2.236933e-01 2.189449e-01 2.132499e-01 2.082543e-01 2.026007e-01 1.977254e-01 1.925399e-01 1.882183e-01 
2.000872e-01 1.972093e-01 1.947990e-01 1.932773e-01 1.925722e-01 1.926792e-01 1.938612e-01 1.956838e-01 1.987135e-01 2.021264e-01 2.067497e-01 2.114476e-01 2.172564e-01 2.228231e-01 2.293358e-01 2.353162e-01 2.420447e-01 2.479977e-01 2.544908e-01 2.600212e-01 2.658873e-01 2.706627e-01 2.755802e-01 2.793387e-01 2.830606e-01 2.856136e-01 2.879677e-01 2.891993e-01 2.900859e-01 2.899490e-01 2.893370e-01 2.878471e-01 2.857671e-01 2.829938e-01 2.795306e-01 2.755876e-01 2.708704e-01 2.659052e-01 2.600980e-01 2.542814e-01 2.475728e-01 2.410896e-01 2.336831e-01 2.267233e-01 2.188285e-01 2.115811e-01 2.034058e-01 1.960531e-01 1.877975e-01 1.805114e-01 1.723641e-01 1.653043e-01 1.574404e-01 1.507533e-01 1.433348e-01 1.371547e-01 1.303332e-01 1.247840e-01 1.187045e-01 1.139018e-01 1.087069e-01 1.047583e-01 1.005892e-01 9.759174e-02 9.458114e-02 9.261140e-02 9.086739e-02 8.996659e-02 8.954870e-02 8.970883e-02 9.060899e-02 9.177020e-02 9.391100e-02 9.597460e-02 9.922643e-02 1.020769e-01 1.062832e-01 1.098079e-01 1.148064e-01 1.189072e-01 1.245410e-01 1.291364e-01 1.352585e-01 1.402802e-01 1.467517e-01 1.521380e-01 1.588261e-01 1.645134e-01 1.712874e-01 1.772027e-01 1.839312e-01 1.899850e-01 1.965342e-01 2.026163e-01 2.088489e-01 2.148273e-01 2.206038e-01 2.263279e-01 2.315092e-01 2.368160e-01 2.412680e-01 2.459915e-01 2.495904e-01 2.535720e-01 2.562109e-01 2.593106e-01 2.609058e-01 2.630119e-01 2.635090e-01 2.645465e-01 2.639256e-01 2.638621e-01 2.621428e-01 2.609925e-01 2.582378e-01 2.560645e-01 2.523848e-01 2.493049e-01 2.448620e-01 2.410470e-01 2.360596e-01 2.317398e-01 2.264877e-01 2.219553e-01 2.167825e-01 2.123909e-01 2.077006e-01 2.038538e-01 
2.173011e-01 2.148181e-01 2.127804e-01 2.115422e-01 2.110720e-01 2.113113e-01 2.125617e-01 2.143520e-01 2.172879e-01 2.205223e-01 2.249236e-01 2.293366e-01 2.348423e-01 2.400623e-01 2.462339e-01 2.518417e-01 2.582211e-01 2.637980e-01 2.699495e-01 2.751111e-01 2.806477e-01 2.850640e-01 2.896625e-01 2.930700e-01 2.964787e-01 2.986863e-01 3.007280e-01 3.016179e-01 3.021896e-01 3.017146e-01 3.007835e-01 2.989611e-01 2.965586e-01 2.934615e-01 2.896751e-01 2.854211e-01 2.803845e-01 2.751254e-01 2.690083e-01 2.629192e-01 2.559167e-01 2.491859e-01 2.415085e-01 2.343292e-01 2.261931e-01 2.187569e-01 2.103762e-01 2.028674e-01 1.944476e-01 1.870398e-01 1.787735e-01 1.716274e-01 1.636916e-01 1.569539e-01 1.495101e-01 1.433137e-01 1.365097e-01 1.309741e-01 1.249466e-01 1.201794e-01 1.150573e-01 1.111532e-01 1.070578e-01 1.040965e-01 1.011370e-01 9.917552e-02 9.743818e-02 9.650189e-02 9.603403e-02 9.610840e-02 9.690558e-02 9.793595e-02 9.993931e-02 1.018407e-01 1.049468e-01 1.076202e-01 1.116974e-01 1.150450e-01 1.199492e-01 1.238844e-01 1.294695e-01 1.339203e-01 1.400432e-01 1.449492e-01 1.514710e-01 1.567782e-01 1.635629e-01 1.692149e-01 1.761274e-01 1.820568e-01 1.889605e-01 1.950812e-01 2.018364e-01 2.080384e-01 2.145016e-01 2.206498e-01 2.266753e-01 2.326124e-01 2.380552e-01 2.436093e-01 2.483304e-01 2.533255e-01 2.571973e-01 2.614657e-01 2.643793e-01 2.677739e-01 2.696455e-01 2.720507e-01 2.728281e-01 2.741682e-01 2.738362e-01 2.740816e-01 2.726659e-01 2.718364e-01 2.694076e-01 2.675744e-01 2.642506e-01 2.615374e-01 2.574873e-01 2.540714e-01 2.495171e-01 2.456306e-01 2.408498e-01 2.367795e-01 2.321044e-01 2.281873e-01 2.239965e-01 2.206062e-01 
2.351561e-01 2.330489e-01 2.313533e-01 2.303989e-01 2.301599e-01 2.305611e-01 2.319100e-01 2.337294e-01 2.366328e-01 2.397756e-01 2.440371e-01 2.482661e-01 2.535592e-01 2.585356e-01 2.644545e-01 2.697862e-01 2.758961e-01 2.811817e-01 2.870591e-01 2.919216e-01 2.971826e-01 3.012927e-01 3.056112e-01 3.087026e-01 3.118215e-01 3.136998e-01 3.154364e-01 3.159820e-01 3.162292e-01 3.153955e-01 3.141189e-01 3.119261e-01 3.091580e-01 3.056838e-01 3.015149e-01 2.968832e-01 2.914528e-01 2.858223e-01 2.793073e-01 2.728596e-01 2.654639e-01 2.583937e-01 2.503369e-01 2.428436e-01 2.343516e-01 2.266321e-01 2.179281e-01 2.101718e-01 2.014697e-01 1.938550e-01 1.853540e-01 1.780454e-01 1.699275e-01 1.630746e-01 1.555036e-01 1.492402e-01 1.423627e-01 1.368067e-01 1.307542e-01 1.260074e-01 1.208979e-01 1.170449e-01 1.129838e-01 1.100892e-01 1.071660e-01 1.052691e-01 1.035501e-01 1.026598e-01 1.021779e-01 1.022685e-01 1.030157e-01 1.040293e-01 1.059546e-01 1.078105e-01 1.108261e-01 1.134335e-01 1.174258e-01 1.206967e-01 1.255370e-01 1.293944e-01 1.349477e-01 1.393288e-01 1.454581e-01 1.503126e-01 1.568814e-01 1.621652e-01 1.690371e-01 1.747038e-01 1.817414e-01 1.877321e-01 1.947949e-01 2.010294e-01 2.079725e-01 2.143425e-01 2.210169e-01 2.273846e-01 2.336385e-01 2.398398e-01 2.455225e-01 2.513755e-01 2.563427e-01 2.616602e-01 2.657808e-01 2.703842e-01 2.735473e-01 2.772808e-01 2.794029e-01 2.821456e-01 2.831765e-01 2.848515e-01 2.847805e-01 2.853603e-01 2.842192e-01 2.837290e-01 2.815953e-01 2.801134e-01 2.771125e-01 2.747697e-01 2.710760e-01 2.680552e-01 2.638934e-01 2.604281e-01 2.560731e-01 2.524448e-01 2.482178e-01 2.447492e-01 2.410066e-01 2.380460e-01 
2.542556e-01 2.525140e-01 2.511680e-01 2.504888e-01 2.504909e-01 2.510496e-01 2.525112e-01 2.543596e-01 2.572478e-01 2.602996e-01 2.644365e-01 2.684776e-01 2.735654e-01 2.782851e-01 2.839469e-01 2.889783e-01 2.948016e-01 2.997607e-01 3.053351e-01 3.098544e-01 3.148014e-01 3.185552e-01 3.225487e-01 3.252713e-01 3.280519e-01 3.295490e-01 3.309319e-01 3.310852e-01 3.309623e-01 3.297285e-01 3.280665e-01 3.254712e-01 3.223055e-01 3.184328e-01 3.138591e-01 3.088398e-01 3.030040e-01 2.970028e-01 2.900894e-01 2.832931e-01 2.755141e-01 2.681214e-01 2.597047e-01 2.519178e-01 2.430969e-01 2.351145e-01 2.261193e-01 2.181321e-01 2.091817e-01 2.013688e-01 1.926658e-01 1.851920e-01 1.769195e-01 1.699342e-01 1.622546e-01 1.558903e-01 1.489458e-01 1.433175e-01 1.372318e-01 1.324358e-01 1.273159e-01 1.234286e-01 1.193654e-01 1.164407e-01 1.135086e-01 1.115748e-01 1.098269e-01 1.088834e-01 1.083463e-01 1.083627e-01 1.090309e-01 1.099497e-01 1.117834e-01 1.135284e-01 1.164563e-01 1.189432e-01 1.228684e-01 1.260161e-01 1.308238e-01 1.345626e-01 1.401269e-01 1.444021e-01 1.505911e-01 1.553618e-01 1.620401e-01 1.672734e-01 1.743032e-01 1.799640e-01 1.872046e-01 1.932440e-01 2.005500e-01 2.068946e-01 2.141148e-01 2.206584e-01 2.276364e-01 2.342374e-01 2.408137e-01 2.472992e-01 2.533152e-01 2.594907e-01 2.647954e-01 2.704597e-01 2.749164e-01 2.798776e-01 2.833721e-01 2.874642e-01 2.899123e-01 2.930082e-01 2.943620e-01 2.963835e-01 2.966365e-01 2.975594e-01 2.967500e-01 2.966056e-01 2.948193e-01 2.936938e-01 2.910631e-01 2.890954e-01 2.858005e-01 2.831786e-01 2.794464e-01 2.764044e-01 2.725059e-01 2.693190e-01 2.655631e-01 2.625386e-01 2.592596e-01 2.567205e-01 