# vtk DataFile Version 2.0
Comment goes here
ASCII

DATASET STRUCTURED_POINTS
FIELD FieldData 1
TIME 1 1 double
0.24000000
DIMENSIONS    128   128   1

ORIGIN    0.000   0.000   0.000
SPACING   0.039062 0.039062   1.000

POINT_DATA   16384
SCALARS uMag double
LOOKUP_TABLE default

6.608754e-02 5.550242e-02 4.552121e-02 3.447250e-02 2.411118e-02 1.276649e-02 2.191354e-03 9.269833e-03 1.988275e-02 3.127303e-02 4.174209e-02 5.287076e-02 6.301361e-02 7.369194e-02 8.333077e-02 9.337771e-02 1.023450e-01 1.115930e-01 1.197372e-01 1.280381e-01 1.352290e-01 1.424591e-01 1.485925e-01 1.546569e-01 1.596580e-01 1.644935e-01 1.683196e-01 1.718962e-01 1.745366e-01 1.768572e-01 1.783328e-01 1.794312e-01 1.797912e-01 1.797289e-01 1.790473e-01 1.779085e-01 1.762787e-01 1.741653e-01 1.716946e-01 1.687196e-01 1.655234e-01 1.618055e-01 1.580009e-01 1.536587e-01 1.493599e-01 1.445068e-01 1.398204e-01 1.345606e-01 1.295819e-01 1.240073e-01 1.188179e-01 1.130065e-01 1.076730e-01 1.016874e-01 9.626119e-02 9.014928e-02 8.466704e-02 7.846280e-02 7.294800e-02 6.667335e-02 6.113824e-02 5.480532e-02 4.925332e-02 4.286719e-02 3.729548e-02 3.085681e-02 2.525893e-02 1.876677e-02 1.313503e-02 6.589251e-03 9.169117e-04 5.679649e-03 1.139654e-02 1.803642e-02 2.379759e-02 3.046749e-02 3.626731e-02 4.294732e-02 4.877408e-02 5.543733e-02 6.127259e-02 6.788513e-02 7.370339e-02 8.022431e-02 8.599264e-02 9.237422e-02 9.805198e-02 1.042398e-01 1.097784e-01 1.157118e-01 1.210545e-01 1.266663e-01 1.317485e-01 1.369658e-01 1.417150e-01 1.464597e-01 1.507967e-01 1.549863e-01 1.588263e-01 1.623757e-01 1.656305e-01 1.684535e-01 1.710338e-01 1.730461e-01 1.748646e-01 1.759861e-01 1.769607e-01 1.771191e-01 1.771763e-01 1.763098e-01 1.753881e-01 1.734485e-01 1.715013e-01 1.684566e-01 1.654548e-01 1.612918e-01 1.572258e-01 1.519511e-01 1.468323e-01 1.404742e-01 1.343359e-01 1.269447e-01 1.198421e-01 1.114904e-01 1.035008e-01 9.428276e-02 8.550465e-02 7.553564e-02 
6.690110e-02 5.647572e-02 4.672047e-02 3.606564e-02 2.638506e-02 1.675254e-02 1.121002e-02 1.451858e-02 2.289200e-02 3.334472e-02 4.336665e-02 5.421989e-02 6.418686e-02 7.474520e-02 8.429275e-02 9.427818e-02 1.031904e-01 1.124045e-01 1.205120e-01 1.287936e-01 1.359578e-01 1.431767e-01 1.492890e-01 1.553465e-01 1.603297e-01 1.651604e-01 1.689700e-01 1.725423e-01 1.751665e-01 1.774824e-01 1.789411e-01 1.800338e-01 1.803759e-01 1.803064e-01 1.796055e-01 1.784578e-01 1.768072e-01 1.746831e-01 1.721901e-01 1.692029e-01 1.659829e-01 1.622514e-01 1.584221e-01 1.540653e-01 1.497413e-01 1.448730e-01 1.401614e-01 1.348865e-01 1.298831e-01 1.242943e-01 1.190817e-01 1.132575e-01 1.079031e-01 1.019072e-01 9.646357e-02 9.034486e-02 8.485007e-02 7.864422e-02 7.312367e-02 6.685516e-02 6.132421e-02 5.500987e-02 4.947789e-02 4.313272e-02 3.761054e-02 3.126143e-02 2.578360e-02 1.952610e-02 1.428132e-02 8.820217e-03 6.172122e-03 8.544881e-03 1.318594e-02 1.931983e-02 2.485347e-02 3.136803e-02 3.707397e-02 4.368319e-02 4.945761e-02 5.608226e-02 6.188260e-02 6.847200e-02 7.426392e-02 8.077026e-02 8.651695e-02 9.288922e-02 9.854810e-02 1.047302e-01 1.102517e-01 1.161819e-01 1.215087e-01 1.271194e-01 1.321864e-01 1.374044e-01 1.421390e-01 1.468858e-01 1.512087e-01 1.554017e-01 1.592281e-01 1.627818e-01 1.660234e-01 1.688516e-01 1.714192e-01 1.734372e-01 1.752437e-01 1.763714e-01 1.773347e-01 1.774996e-01 1.775466e-01 1.766869e-01 1.757564e-01 1.738239e-01 1.718698e-01 1.688329e-01 1.658268e-01 1.616726e-01 1.576057e-01 1.523418e-01 1.472267e-01 1.408829e-01 1.347544e-01 1.273832e-01 1.202996e-01 1.119778e-01 1.040214e-01 9.485091e-02 8.613039e-02 7.624327e-02 
6.962456e-02 5.967877e-02 5.055361e-02 4.090076e-02 3.267539e-02 2.550610e-02 2.221867e-02 2.400863e-02 2.977702e-02 3.835908e-02 4.728961e-02 5.737345e-02 6.683715e-02 7.700474e-02 8.627188e-02 9.602541e-02 1.047610e-01 1.138222e-01 1.218087e-01 1.299815e-01 1.370577e-01 1.441941e-01 1.502394e-01 1.562311e-01 1.611613e-01 1.659370e-01 1.697034e-01 1.732283e-01 1.758166e-01 1.780906e-01 1.795195e-01 1.805747e-01 1.808922e-01 1.807892e-01 1.800687e-01 1.788916e-01 1.772265e-01 1.750772e-01 1.725752e-01 1.695675e-01 1.663443e-01 1.625978e-01 1.587714e-01 1.544055e-01 1.500911e-01 1.452204e-01 1.405254e-01 1.352554e-01 1.302760e-01 1.247000e-01 1.195193e-01 1.137167e-01 1.084028e-01 1.024384e-01 9.704468e-02 9.096933e-02 8.553574e-02 7.938821e-02 7.394366e-02 6.775429e-02 6.232107e-02 5.611830e-02 5.072021e-02 4.454419e-02 3.922548e-02 3.316547e-02 2.805106e-02 2.238904e-02 1.795868e-02 1.391901e-02 1.232497e-02 1.355796e-02 1.679376e-02 2.186803e-02 2.682721e-02 3.290524e-02 3.834358e-02 4.473226e-02 5.035741e-02 5.685439e-02 6.256228e-02 6.907190e-02 7.480348e-02 8.125800e-02 8.696486e-02 9.330315e-02 9.893669e-02 1.050970e-01 1.106042e-01 1.165213e-01 1.218429e-01 1.274471e-01 1.325168e-01 1.377333e-01 1.424776e-01 1.472271e-01 1.515660e-01 1.557651e-01 1.596132e-01 1.631762e-01 1.664446e-01 1.692850e-01 1.718839e-01 1.739169e-01 1.757587e-01 1.769042e-01 1.779065e-01 1.780923e-01 1.781819e-01 1.773467e-01 1.764624e-01 1.745589e-01 1.726552e-01 1.696530e-01 1.667024e-01 1.625905e-01 1.585861e-01 1.533748e-01 1.483321e-01 1.420553e-01 1.360139e-01 1.287311e-01 1.217571e-01 1.135563e-01 1.057464e-01 9.675117e-02 8.824191e-02 7.862857e-02 
7.376468e-02 6.447605e-02 5.617308e-02 4.770299e-02 4.092339e-02 3.552304e-02 3.331043e-02 3.461456e-02 3.890076e-02 4.588559e-02 5.362274e-02 6.276769e-02 7.155615e-02 8.119695e-02 9.005946e-02 9.949597e-02 1.079687e-01 1.168261e-01 1.246297e-01 1.326635e-01 1.396047e-01 1.466410e-01 1.525809e-01 1.584959e-01 1.633394e-01 1.680525e-01 1.717439e-01 1.752141e-01 1.777348e-01 1.799582e-01 1.813240e-01 1.823304e-01 1.825876e-01 1.824365e-01 1.816576e-01 1.804327e-01 1.787110e-01 1.765146e-01 1.739580e-01 1.709045e-01 1.676296e-01 1.638397e-01 1.599657e-01 1.555603e-01 1.512034e-01 1.462987e-01 1.415680e-01 1.362712e-01 1.312649e-01 1.256714e-01 1.204743e-01 1.146659e-01 1.093486e-01 1.033929e-01 9.801181e-02 9.196364e-02 8.656299e-02 8.046698e-02 7.508235e-02 6.897857e-02 6.364364e-02 5.757817e-02 5.233809e-02 4.638597e-02 4.132858e-02 3.565370e-02 3.099844e-02 2.603902e-02 2.242041e-02 1.942670e-02 1.842115e-02 1.937709e-02 2.185564e-02 2.605339e-02 3.040287e-02 3.595893e-02 4.104363e-02 4.713516e-02 5.254156e-02 5.885856e-02 6.441948e-02 7.081446e-02 7.644077e-02 8.282028e-02 8.844836e-02 9.473747e-02 1.003105e-01 1.064396e-01 1.118999e-01 1.177990e-01 1.230846e-01 1.286809e-01 1.337238e-01 1.389408e-01 1.436662e-01 1.484231e-01 1.527502e-01 1.569626e-01 1.608054e-01 1.643867e-01 1.676556e-01 1.705187e-01 1.731236e-01 1.751832e-01 1.770361e-01 1.782118e-01 1.792305e-01 1.794501e-01 1.795615e-01 1.787641e-01 1.779080e-01 1.760474e-01 1.741796e-01 1.712270e-01 1.683223e-01 1.642694e-01 1.603241e-01 1.551856e-01 1.502202e-01 1.440365e-01 1.380982e-01 1.309393e-01 1.241066e-01 1.160780e-01 1.084686e-01 9.972499e-02 9.151454e-02 8.229264e-02 
7.948150e-02 7.095644e-02 6.353611e-02 5.619234e-02 5.057989e-02 4.631796e-02 4.464025e-02 4.561496e-02 4.892750e-02 5.463689e-02 6.125172e-02 6.938967e-02 7.740038e-02 8.638151e-02 9.472925e-02 1.037294e-01 1.118492e-01 1.204047e-01 1.279548e-01 1.357692e-01 1.425200e-01 1.493887e-01 1.551796e-01 1.609603e-01 1.656827e-01 1.702830e-01 1.738728e-01 1.772445e-01 1.796776e-01 1.818124e-01 1.831014e-01 1.840266e-01 1.842161e-01 1.839901e-01 1.831521e-01 1.818586e-01 1.800864e-01 1.778282e-01 1.752305e-01 1.721232e-01 1.688174e-01 1.649832e-01 1.610896e-01 1.566508e-01 1.522872e-01 1.473617e-01 1.426383e-01 1.373352e-01 1.323513e-01 1.267679e-01 1.216100e-01 1.158301e-01 1.105704e-01 1.046645e-01 9.936202e-02 9.338877e-02 8.809162e-02 8.210182e-02 7.685209e-02 7.089608e-02 6.573888e-02 5.988076e-02 5.488161e-02 4.922846e-02 4.451097e-02 3.928017e-02 3.511515e-02 3.079353e-02 2.779139e-02 2.539094e-02 2.460261e-02 2.527512e-02 2.718521e-02 3.062089e-02 3.436276e-02 3.933709e-02 4.400467e-02 4.972093e-02 5.485147e-02 6.092631e-02 6.629956e-02 7.253487e-02 7.802999e-02 8.430287e-02 8.983825e-02 9.605652e-02 1.015650e-01 1.076485e-01 1.130664e-01 1.189386e-01 1.242002e-01 1.297840e-01 1.348187e-01 1.400346e-01 1.447662e-01 1.495316e-01 1.538777e-01 1.581068e-01 1.619803e-01 1.655854e-01 1.688956e-01 1.717889e-01 1.744446e-01 1.765404e-01 1.784529e-01 1.796708e-01 1.807570e-01 1.810251e-01 1.812120e-01 1.804704e-01 1.796983e-01 1.779023e-01 1.761281e-01 1.732517e-01 1.704528e-01 1.664915e-01 1.626681e-01 1.576423e-01 1.528210e-01 1.467795e-01 1.410170e-01 1.340429e-01 1.274326e-01 1.196522e-01 1.123363e-01 1.039394e-01 9.613530e-02 8.741846e-02 
8.620901e-02 7.844259e-02 7.185085e-02 6.548333e-02 6.079181e-02 5.734998e-02 5.606197e-02 5.691412e-02 5.965479e-02 6.450102e-02 7.023530e-02 7.751436e-02 8.479328e-02 9.313725e-02 1.009503e-01 1.095045e-01 1.172372e-01 1.254783e-01 1.327410e-01 1.403272e-01 1.468567e-01 1.535528e-01 1.591664e-01 1.648097e-01 1.693837e-01 1.738685e-01 1.773289e-01 1.805979e-01 1.829141e-01 1.849532e-01 1.861334e-01 1.869666e-01 1.870530e-01 1.867371e-01 1.858004e-01 1.844186e-01 1.825523e-01 1.802082e-01 1.775215e-01 1.743322e-01 1.709441e-01 1.670337e-01 1.630663e-01 1.585597e-01 1.541329e-01 1.491508e-01 1.443775e-01 1.390318e-01 1.340141e-01 1.284055e-01 1.232328e-01 1.174487e-01 1.121967e-01 1.063119e-01 1.010438e-01 9.512242e-02 8.989208e-02 8.399257e-02 7.885029e-02 7.303478e-02 6.803834e-02 6.238943e-02 5.762418e-02 5.227761e-02 4.789553e-02 4.310480e-02 3.939992e-02 3.565037e-02 3.316353e-02 3.124958e-02 3.069466e-02 3.132120e-02 3.295999e-02 3.593439e-02 3.923734e-02 4.374486e-02 4.803834e-02 5.340528e-02 5.825501e-02 6.408601e-02 6.925068e-02 7.531808e-02 8.065583e-02 8.681387e-02 9.222875e-02 9.836994e-02 1.037857e-01 1.098200e-01 1.151673e-01 1.210115e-01 1.262210e-01 1.317938e-01 1.367928e-01 1.420118e-01 1.467222e-01 1.515024e-01 1.558408e-01 1.600949e-01 1.639727e-01 1.676117e-01 1.709373e-01 1.738722e-01 1.765533e-01 1.786977e-01 1.806449e-01 1.819179e-01 1.830481e-01 1.833778e-01 1.836182e-01 1.829454e-01 1.822373e-01 1.805192e-01 1.788219e-01 1.760351e-01 1.733291e-01 1.694737e-01 1.657645e-01 1.608675e-01 1.561889e-01 1.503090e-01 1.447288e-01 1.379636e-01 1.315913e-01 1.240897e-01 1.170927e-01 1.090787e-01 1.017126e-01 9.353484e-02 
9.416957e-02 8.713733e-02 8.130228e-02 7.575116e-02 7.176787e-02 6.889131e-02 6.783847e-02 6.855710e-02 7.084707e-02 7.498461e-02 7.995584e-02 8.642924e-02 9.298933e-02 1.006617e-01 1.079007e-01 1.159426e-01 1.232346e-01 1.310897e-01 1.380125e-01 1.453025e-01 1.515640e-01 1.580254e-01 1.634214e-01 1.688714e-01 1.732634e-01 1.775822e-01 1.808858e-01 1.840071e-01 1.861850e-01 1.880888e-01 1.891451e-01 1.898523e-01 1.898270e-01 1.893929e-01 1.883561e-01 1.868643e-01 1.849096e-01 1.824648e-01 1.797026e-01 1.764237e-01 1.729747e-01 1.689880e-01 1.649762e-01 1.604091e-01 1.559565e-01 1.509323e-01 1.461537e-01 1.407872e-01 1.357867e-01 1.301812e-01 1.250503e-01 1.192964e-01 1.141131e-01 1.082889e-01 1.031194e-01 9.729359e-02 9.219565e-02 8.643282e-02 8.146275e-02 7.583405e-02 7.105839e-02 6.565915e-02 6.117483e-02 5.615577e-02 5.212456e-02 4.774383e-02 4.444498e-02 4.113467e-02 3.900646e-02 3.736423e-02 3.689693e-02 3.739170e-02 3.876133e-02 4.130000e-02 4.418690e-02 4.822578e-02 5.213590e-02 5.712354e-02 6.166988e-02 6.722157e-02 7.215619e-02 7.802484e-02 8.319009e-02 8.920949e-02 9.449627e-02 1.005433e-01 1.058662e-01 1.118398e-01 1.171235e-01 1.229328e-01 1.281042e-01 1.336626e-01 1.386462e-01 1.438677e-01 1.485836e-01 1.533806e-01 1.577436e-01 1.620269e-01 1.659468e-01 1.696258e-01 1.730095e-01 1.759941e-01 1.787477e-01 1.809508e-01 1.829834e-01 1.843239e-01 1.855515e-01 1.859579e-01 1.863074e-01 1.857217e-01 1.851351e-01 1.835166e-01 1.819550e-01 1.792840e-01 1.767313e-01 1.730129e-01 1.694796e-01 1.647482e-01 1.602761e-01 1.546008e-01 1.492685e-01 1.427618e-01 1.366950e-01 1.295267e-01 1.229149e-01 1.153380e-01 1.084660e-01 1.008638e-01 
1.028200e-01 9.645547e-02 9.128272e-02 8.642039e-02 8.301455e-02 8.060004e-02 7.976194e-02 8.044790e-02 8.246082e-02 8.612529e-02 9.052949e-02 9.638115e-02 1.023371e-01 1.094384e-01 1.161519e-01 1.237319e-01 1.305966e-01 1.380926e-01 1.446725e-01 1.516829e-01 1.576658e-01 1.639040e-01 1.690676e-01 1.743322e-01 1.785240e-01 1.826814e-01 1.858066e-01 1.887805e-01 1.907945e-01 1.925586e-01 1.934608e-01 1.940320e-01 1.938595e-01 1.932916e-01 1.921136e-01 1.904901e-01 1.884004e-01 1.858272e-01 1.829377e-01 1.795362e-01 1.759695e-01 1.718689e-01 1.677520e-01 1.630834e-01 1.585413e-01 1.534319e-01 1.485828e-01 1.431516e-01 1.381034e-01 1.324579e-01 1.273058e-01 1.215411e-01 1.163671e-01 1.105663e-01 1.054410e-01 9.967822e-02 9.466479e-02 8.901175e-02 8.417318e-02 7.870988e-02 7.412111e-02 6.895388e-02 6.472087e-02 6.001040e-02 5.629853e-02 5.229901e-02 4.936619e-02 4.645723e-02 4.465792e-02 4.329741e-02 4.297528e-02 4.348105e-02 4.474234e-02 4.704740e-02 4.967046e-02 5.338824e-02 5.700456e-02 6.169418e-02 6.597696e-02 7.128976e-02 7.600512e-02 8.169456e-02 8.668217e-02 9.257262e-02 9.771732e-02 1.036756e-01 1.088868e-01 1.148037e-01 1.200020e-01 1.257807e-01 1.308904e-01 1.364400e-01 1.413837e-01 1.466149e-01 1.513112e-01 1.561341e-01 1.604963e-01 1.648194e-01 1.687560e-01 1.724871e-01 1.759032e-01 1.789508e-01 1.817511e-01 1.840267e-01 1.861192e-01 1.875410e-01 1.888409e-01 1.893375e-01 1.897720e-01 1.892861e-01 1.887984e-01 1.872916e-01 1.858452e-01 1.833013e-01 1.808842e-01 1.773136e-01 1.739423e-01 1.693871e-01 1.651113e-01 1.596513e-01 1.545610e-01 1.483232e-01 1.425587e-01 1.357320e-01 1.295016e-01 1.223623e-01 1.159712e-01 1.089239e-01 
1.125098e-01 1.067595e-01 1.021777e-01 9.788949e-02 9.494746e-02 9.287315e-02 9.217935e-02 9.280199e-02 9.456606e-02 9.780525e-02 1.017020e-01 1.069687e-01 1.123478e-01 1.188714e-01 1.250501e-01 1.321300e-01 1.385374e-01 1.456211e-01 1.518197e-01 1.584926e-01 1.641570e-01 1.701142e-01 1.750077e-01 1.800316e-01 1.839892e-01 1.879333e-01 1.908509e-01 1.936299e-01 1.954562e-01 1.970380e-01 1.977684e-01 1.981668e-01 1.978365e-01 1.971044e-01 1.957820e-01 1.940036e-01 1.917841e-01 1.890672e-01 1.860642e-01 1.825327e-01 1.788711e-01 1.746577e-01 1.704670e-01 1.657060e-01 1.611141e-01 1.559363e-01 1.510639e-01 1.455917e-01 1.405493e-01 1.348936e-01 1.297786e-01 1.240379e-01 1.189346e-01 1.131951e-01 1.081764e-01 1.025161e-01 9.764764e-02 9.214196e-02 8.748973e-02 8.222301e-02 7.786452e-02 7.294612e-02 6.898711e-02 6.457467e-02 6.117025e-02 5.749605e-02 5.486863e-02 5.225015e-02 5.067740e-02 4.946533e-02 4.919594e-02 4.962476e-02 5.073860e-02 5.277787e-02 5.512950e-02 5.850953e-02 6.182638e-02 6.619744e-02 7.020712e-02 7.525781e-02 7.974404e-02 8.523281e-02 9.003599e-02 9.578017e-02 1.007809e-01 1.066379e-01 1.117409e-01 1.175929e-01 1.227155e-01 1.284592e-01 1.335231e-01 1.390623e-01 1.439885e-01 1.492304e-01 1.539358e-01 1.587875e-01 1.631839e-01 1.675519e-01 1.715457e-01 1.753359e-01 1.788303e-01 1.819496e-01 1.848470e-01 1.872059e-01 1.894124e-01 1.909286e-01 1.923578e-01 1.929602e-01 1.935386e-01 1.931713e-01 1.928426e-01 1.914694e-01 1.901992e-01 1.878079e-01 1.855877e-01 1.821944e-01 1.790463e-01 1.747007e-01 1.706821e-01 1.654741e-01 1.606850e-01 1.547543e-01 1.493472e-01 1.428978e-01 1.370944e-01 1.304173e-01 1.245322e-01 1.180370e-01 
1.227104e-01 1.175097e-01 1.134441e-01 1.096553e-01 1.071133e-01 1.053485e-01 1.048064e-01 1.054364e-01 1.070517e-01 1.100152e-01 1.135412e-01 1.183774e-01 1.232941e-01 1.293590e-01 1.350784e-01 1.417403e-01 1.477340e-01 1.544613e-01 1.603010e-01 1.666754e-01 1.720302e-01 1.777348e-01 1.823577e-01 1.871611e-01 1.908768e-01 1.946207e-01 1.973163e-01 1.999064e-01 2.015241e-01 2.029222e-01 2.034528e-01 2.036693e-01 2.031457e-01 2.022323e-01 2.007227e-01 1.987642e-01 1.963642e-01 1.934707e-01 1.902962e-01 1.865949e-01 1.827738e-01 1.784016e-01 1.740672e-01 1.691633e-01 1.644475e-01 1.591478e-01 1.541758e-01 1.486080e-01 1.434947e-01 1.377748e-01 1.326220e-01 1.268536e-01 1.217496e-01 1.160239e-01 1.110457e-01 1.054453e-01 1.006625e-01 9.526759e-02 9.074971e-02 8.564875e-02 8.147598e-02 7.678052e-02 7.305770e-02 6.892112e-02 6.579284e-02 6.242712e-02 6.008521e-02 5.775836e-02 5.642181e-02 5.540667e-02 5.525443e-02 5.572142e-02 5.680247e-02 5.872703e-02 6.092942e-02 6.410806e-02 6.722033e-02 7.137185e-02 7.516859e-02 8.002180e-02 8.431081e-02 8.963950e-02 9.427038e-02 9.989391e-02 1.047496e-01 1.105223e-01 1.155077e-01 1.213073e-01 1.263392e-01 1.320583e-01 1.370579e-01 1.425972e-01 1.474850e-01 1.527488e-01 1.574410e-01 1.623343e-01 1.667413e-01 1.711683e-01 1.751949e-01 1.790595e-01 1.826069e-01 1.858139e-01 1.887824e-01 1.912408e-01 1.935345e-01 1.951608e-01 1.966922e-01 1.974148e-01 1.981102e-01 1.978741e-01 1.976781e-01 1.964494e-01 1.953302e-01 1.931004e-01 1.910536e-01 1.878444e-01 1.848980e-01 1.807668e-01 1.769857e-01 1.720320e-01 1.675255e-01 1.619003e-01 1.568312e-01 1.507508e-01 1.453500e-01 1.391147e-01 1.336996e-01 1.277165e-01 
1.338926e-01 1.291948e-01 1.255987e-01 1.222359e-01 1.200332e-01 1.185077e-01 1.180783e-01 1.186837e-01 1.201522e-01 1.228442e-01 1.260226e-01 1.304371e-01 1.349068e-01 1.405037e-01 1.457596e-01 1.519734e-01 1.575322e-01 1.638581e-01 1.693074e-01 1.753304e-01 1.803392e-01 1.857347e-01 1.900495e-01 1.945755e-01 1.980132e-01 2.015018e-01 2.039425e-01 2.062920e-01 2.076729e-01 2.088403e-01 2.091493e-01 2.091429e-01 2.084119e-01 2.072834e-01 2.055809e-01 2.034170e-01 2.008405e-01 1.977542e-01 1.944221e-01 1.905444e-01 1.865879e-01 1.820597e-01 1.776155e-01 1.725804e-01 1.677838e-01 1.623819e-01 1.573613e-01 1.517244e-01 1.465972e-01 1.408452e-01 1.357154e-01 1.299549e-01 1.249128e-01 1.192378e-01 1.143613e-01 1.088560e-01 1.042152e-01 9.896081e-02 9.462434e-02 8.970820e-02 8.575315e-02 8.128175e-02 7.780476e-02 7.391833e-02 7.104602e-02 6.792870e-02 6.581949e-02 6.369202e-02 6.251669e-02 6.159471e-02 6.148737e-02 6.190663e-02 6.290585e-02 6.465925e-02 6.668605e-02 6.962707e-02 7.252038e-02 7.642530e-02 7.999975e-02 8.463318e-02 8.871884e-02 9.386935e-02 9.832533e-02 1.038145e-01 1.085269e-01 1.142058e-01 1.190802e-01 1.248217e-01 1.297750e-01 1.354672e-01 1.404207e-01 1.459603e-01 1.508343e-01 1.561225e-01 1.608327e-01 1.657719e-01 1.702275e-01 1.747197e-01 1.788236e-01 1.827705e-01 1.864210e-01 1.897256e-01 1.928203e-01 1.953900e-01 1.978299e-01 1.995802e-01 2.012756e-01 2.021350e-01 2.030106e-01 2.029251e-01 2.029259e-01 2.018639e-01 2.009597e-01 1.989167e-01 1.971065e-01 1.941097e-01 1.914266e-01 1.875403e-01 1.840559e-01 1.793878e-01 1.752188e-01 1.699288e-01 1.652451e-01 1.595572e-01 1.545935e-01 1.488097e-01 1.438783e-01 1.383931e-01 
1.455099e-01 1.412673e-01 1.380887e-01 1.351128e-01 1.332184e-01 1.319315e-01 1.316310e-01 1.322711e-01 1.336631e-01 1.361935e-01 1.391252e-01 1.432450e-01 1.473678e-01 1.526132e-01 1.574871e-01 1.633478e-01 1.685311e-01 1.745298e-01 1.796287e-01 1.853574e-01 1.900450e-01 1.951750e-01 1.991947e-01 2.034757e-01 2.066382e-01 2.098936e-01 2.120731e-01 2.141939e-01 2.153224e-01 2.162609e-01 2.163229e-01 2.160851e-01 2.151110e-01 2.137482e-01 2.118069e-01 2.094077e-01 2.065985e-01 2.032793e-01 1.997236e-01 1.956201e-01 1.914533e-01 1.867118e-01 1.820755e-01 1.768459e-01 1.718807e-01 1.663095e-01 1.611492e-01 1.553747e-01 1.501420e-01 1.442903e-01 1.390940e-01 1.332773e-01 1.282118e-01 1.225286e-01 1.176753e-01 1.122136e-01 1.076448e-01 1.024875e-01 9.827261e-02 9.350697e-02 8.972101e-02 8.544922e-02 8.218204e-02 7.853289e-02 7.589583e-02 7.303035e-02 7.115436e-02 6.925575e-02 6.827274e-02 6.751123e-02 6.751688e-02 6.799527e-02 6.900984e-02 7.072086e-02 7.267652e-02 7.550421e-02 7.826937e-02 8.203007e-02 8.544962e-02 8.993963e-02 9.386566e-02 9.889200e-02 1.031972e-01 1.085896e-01 1.131679e-01 1.187797e-01 1.235417e-01 1.292453e-01 1.341113e-01 1.397933e-01 1.446871e-01 1.502427e-01 1.550860e-01 1.604147e-01 1.651237e-01 1.701261e-01 1.746092e-01 1.791852e-01 1.833434e-01 1.873923e-01 1.911215e-01 1.945437e-01 1.977382e-01 2.004387e-01 2.029969e-01 2.048894e-01 2.067194e-01 2.077314e-01 2.087571e-01 2.088353e-01 2.090021e-01 2.081168e-01 2.073968e-01 2.055473e-01 2.039436e-01 2.011623e-01 1.987131e-01 1.950711e-01 1.918545e-01 1.874672e-01 1.836065e-01 1.786414e-01 1.743118e-01 1.689983e-01 1.644358e-01 1.590752e-01 1.545839e-01 1.495566e-01 
1.581404e-01 1.543194e-01 1.515337e-01 1.488975e-01 1.472799e-01 1.461858e-01 1.459920e-01 1.466371e-01 1.479475e-01 1.503028e-01 1.529935e-01 1.568089e-01 1.605882e-01 1.654637e-01 1.699482e-01 1.754240e-01 1.802118e-01 1.858392e-01 1.905576e-01 1.959390e-01 2.002687e-01 2.050749e-01 2.087592e-01 2.127345e-01 2.155812e-01 2.185427e-01 2.204221e-01 2.222560e-01 2.230975e-01 2.237535e-01 2.235404e-01 2.230240e-01 2.217872e-01 2.201517e-01 2.179621e-01 2.152992e-01 2.122590e-01 2.086896e-01 2.049242e-01 2.005888e-01 1.962376e-01 1.912879e-01 1.864969e-01 1.810878e-01 1.760014e-01 1.702847e-01 1.650404e-01 1.591588e-01 1.538821e-01 1.479656e-01 1.427674e-01 1.369313e-01 1.319070e-01 1.262516e-01 1.214823e-01 1.160956e-01 1.116522e-01 1.066151e-01 1.025632e-01 9.795762e-02 9.436533e-02 9.028356e-02 8.722901e-02 8.378303e-02 8.135892e-02 7.868420e-02 7.699516e-02 7.524181e-02 7.438939e-02 7.369545e-02 7.375129e-02 7.420318e-02 7.518178e-02 7.678221e-02 7.863113e-02 8.129521e-02 8.390980e-02 8.748984e-02 9.074119e-02 9.506137e-02 9.882082e-02 1.037043e-01 1.078567e-01 1.131398e-01 1.175869e-01 1.231240e-01 1.277815e-01 1.334436e-01 1.382358e-01 1.439071e-01 1.487609e-01 1.543345e-01 1.591739e-01 1.645471e-01 1.692891e-01 1.743604e-01 1.789129e-01 1.835801e-01 1.878420e-01 1.920020e-01 1.958657e-01 1.994164e-01 2.027723e-01 2.056165e-01 2.083586e-01 2.104084e-01 2.124412e-01 2.136235e-01 2.148687e-01 2.151307e-01 2.155330e-01 2.148472e-01 2.143799e-01 2.127491e-01 2.114182e-01 2.088797e-01 2.067280e-01 2.033586e-01 2.004691e-01 1.963904e-01 1.928912e-01 1.882755e-01 1.843444e-01 1.794225e-01 1.752926e-01 1.703598e-01 1.663227e-01 1.617396e-01 
1.711953e-01 1.677648e-01 1.653367e-01 1.630239e-01 1.616694e-01 1.607828e-01 1.607159e-01 1.614215e-01 1.627069e-01 1.649783e-01 1.675089e-01 1.711298e-01 1.746533e-01 1.792693e-01 1.834451e-01 1.886360e-01 1.930953e-01 1.984369e-01 2.028266e-01 2.079313e-01 2.119408e-01 2.164798e-01 2.198539e-01 2.235671e-01 2.261111e-01 2.288098e-01 2.303906e-01 2.319560e-01 2.325002e-01 2.328787e-01 2.323678e-01 2.315644e-01 2.300289e-01 2.280983e-01 2.256106e-01 2.226477e-01 2.193132e-01 2.154438e-01 2.113921e-01 2.067630e-01 2.021391e-01 1.969089e-01 1.918650e-01 1.861966e-01 1.808838e-01 1.749368e-01 1.694992e-01 1.634244e-01 1.579939e-01 1.519287e-01 1.466217e-01 1.406875e-01 1.356039e-01 1.299058e-01 1.251295e-01 1.197581e-01 1.153610e-01 1.103971e-01 1.064436e-01 1.019654e-01 9.851877e-02 9.461037e-02 9.173936e-02 8.849849e-02 8.627997e-02 8.382035e-02 8.233617e-02 8.077959e-02 8.010391e-02 7.955902e-02 7.973828e-02 8.027117e-02 8.130572e-02 8.291641e-02 8.475508e-02 8.737342e-02 8.992479e-02 9.342661e-02 9.657960e-02 1.008117e-01 1.044545e-01 1.092568e-01 1.132881e-01 1.185073e-01 1.228396e-01 1.283356e-01 1.328934e-01 1.385401e-01 1.432551e-01 1.489379e-01 1.537426e-01 1.593551e-01 1.641775e-01 1.696168e-01 1.743758e-01 1.795392e-01 1.841427e-01 1.889258e-01 1.932706e-01 1.975674e-01 2.015422e-01 2.052472e-01 2.087381e-01 2.117506e-01 2.146473e-01 2.168765e-01 2.190801e-01 2.204514e-01 2.218816e-01 2.223419e-01 2.229435e-01 2.224670e-01 2.222152e-01 2.208080e-01 2.197125e-01 2.174169e-01 2.155250e-01 2.124235e-01 2.098237e-01 2.060435e-01 2.028679e-01 1.985860e-01 1.950141e-01 1.904618e-01 1.867230e-01 1.821894e-01 1.785625e-01 1.743907e-01 
1.853511e-01 1.822894e-01 1.802114e-01 1.781915e-01 1.770872e-01 1.763764e-01 1.764259e-01 1.771659e-01 1.784218e-01 1.805893e-01 1.829590e-01 1.863657e-01 1.896298e-01 1.939608e-01 1.978162e-01 2.026867e-01 2.067954e-01 2.118049e-01 2.158340e-01 2.206063e-01 2.242558e-01 2.284649e-01 2.314833e-01 2.348672e-01 2.370606e-01 2.394275e-01 2.406625e-01 2.418916e-01 2.420947e-01 2.421327e-01 2.412867e-01 2.401408e-01 2.382792e-01 2.360081e-01 2.332071e-01 2.299115e-01 2.262811e-01 2.220928e-01 2.177681e-01 2.128401e-01 2.079714e-01 2.024690e-01 1.972135e-01 1.913055e-01 1.858191e-01 1.796710e-01 1.741017e-01 1.678692e-01 1.623519e-01 1.561768e-01 1.508298e-01 1.448363e-01 1.397600e-01 1.340545e-01 1.293321e-01 1.240039e-01 1.197042e-01 1.148301e-01 1.110119e-01 1.066622e-01 1.033806e-01 9.962712e-02 9.693814e-02 9.386133e-02 9.182508e-02 8.951685e-02 8.819490e-02 8.675335e-02 8.619929e-02 8.571319e-02 8.595812e-02 8.648468e-02 8.752387e-02 8.906925e-02 9.085779e-02 9.337039e-02 9.583068e-02 9.920953e-02 1.022465e-01 1.063589e-01 1.098753e-01 1.145753e-01 1.184819e-01 1.236243e-01 1.278437e-01 1.332920e-01 1.377576e-01 1.433867e-01 1.480379e-01 1.537335e-01 1.585097e-01 1.641647e-01 1.689987e-01 1.745096e-01 1.793233e-01 1.845858e-01 1.892870e-01 1.941947e-01 1.986779e-01 2.031219e-01 2.072713e-01 2.111428e-01 2.148385e-01 2.180335e-01 2.211591e-01 2.235842e-01 2.260356e-01 2.276144e-01 2.293073e-01 2.299869e-01 2.308645e-01 2.306207e-01 2.306587e-01 2.295006e-01 2.287113e-01 2.266854e-01 2.251200e-01 2.223136e-01 2.200644e-01 2.166088e-01 2.138107e-01 2.098846e-01 2.067167e-01 2.025493e-01 1.992346e-01 1.951049e-01 1.919074e-01 1.881382e-01 
1.999625e-01 1.972520e-01 1.955009e-01 1.937726e-01 1.929155e-01 1.924053e-01 1.925949e-01 1.934248e-01 1.947019e-01 1.968485e-01 1.991282e-01 2.024216e-01 2.055065e-01 2.096591e-01 2.132734e-01 2.179263e-01 2.217560e-01 2.265267e-01 2.302558e-01 2.347771e-01 2.381147e-01 2.420621e-01 2.447605e-01 2.478693e-01 2.497351e-01 2.518100e-01 2.527087e-01 2.536261e-01 2.534834e-01 2.531891e-01 2.519880e-01 2.504905e-01 2.482659e-01 2.456277e-01 2.424586e-01 2.387855e-01 2.347866e-01 2.302171e-01 2.255294e-01 2.202246e-01 2.150056e-01 2.091395e-01 2.035543e-01 1.973055e-01 1.915184e-01 1.850622e-01 1.792295e-01 1.727315e-01 1.669958e-01 1.606069e-01 1.550931e-01 1.489451e-01 1.437587e-01 1.379631e-01 1.331906e-01 1.278391e-01 1.235498e-01 1.187175e-01 1.149680e-01 1.107197e-01 1.075588e-01 1.039556e-01 1.014291e-01 9.853604e-02 9.668885e-02 9.457743e-02 9.345160e-02 9.219679e-02 9.182413e-02 9.149275e-02 9.188434e-02 9.251832e-02 9.365576e-02 9.525691e-02 9.709059e-02 9.961404e-02 1.020700e-01 1.054287e-01 1.084211e-01 1.124982e-01 1.159414e-01 1.206049e-01 1.244223e-01 1.295376e-01 1.336646e-01 1.391027e-01 1.434848e-01 1.491262e-01 1.537141e-01 1.594485e-01 1.641907e-01 1.699140e-01 1.747504e-01 1.803602e-01 1.852164e-01 1.906081e-01 1.953923e-01 2.004573e-01 2.050610e-01 2.096863e-01 2.139887e-01 2.180607e-01 2.219353e-01 2.253447e-01 2.286689e-01 2.313178e-01 2.339819e-01 2.357911e-01 2.377077e-01 2.386231e-01 2.397345e-01 2.397334e-01 2.400169e-01 2.391115e-01 2.385830e-01 2.368243e-01 2.355397e-01 2.330200e-01 2.310761e-01 2.279312e-01 2.254659e-01 2.218770e-01 2.190687e-01 2.152630e-01 2.123290e-01 2.085776e-01 2.057682e-01 2.023768e-01 
2.158005e-01 2.134292e-01 2.120109e-01 2.105556e-01 2.099464e-01 2.096152e-01 2.099445e-01 2.108431e-01 2.121414e-01 2.142466e-01 2.164354e-01 2.195926e-01 2.224931e-01 2.264383e-01 2.297982e-01 2.341954e-01 2.377225e-01 2.422059e-01 2.456003e-01 2.498113e-01 2.527925e-01 2.564093e-01 2.587352e-01 2.614930e-01 2.629733e-01 2.646761e-01 2.651792e-01 2.657046e-01 2.651594e-01 2.644567e-01 2.628508e-01 2.609345e-01 2.583083e-01 2.552484e-01 2.516877e-01 2.475983e-01 2.432247e-01 2.382528e-01 2.332142e-01 2.275288e-01 2.219896e-01 2.157723e-01 2.099038e-01 2.033400e-01 1.973117e-01 1.905833e-01 1.845558e-01 1.778342e-01 1.719534e-01 1.653940e-01 1.597869e-01 1.535250e-01 1.482978e-01 1.424462e-01 1.376840e-01 1.323328e-01 1.281021e-01 1.233214e-01 1.196731e-01 1.155185e-01 1.124928e-01 1.090125e-01 1.066431e-01 1.038851e-01 1.022023e-01 1.002190e-01 9.924833e-02 9.809616e-02 9.785340e-02 9.758487e-02 9.806865e-02 9.871949e-02 9.990483e-02 1.014804e-01 1.033177e-01 1.057848e-01 1.082053e-01 1.114924e-01 1.144188e-01 1.184240e-01 1.217808e-01 1.263838e-01 1.301056e-01 1.351799e-01 1.392137e-01 1.446354e-01 1.489391e-01 1.545919e-01 1.591282e-01 1.649042e-01 1.696327e-01 1.754295e-01 1.802985e-01 1.860143e-01 1.909542e-01 1.964838e-01 2.014036e-01 2.066359e-01 2.114240e-01 2.162424e-01 2.207713e-01 2.250572e-01 2.291919e-01 2.328313e-01 2.364399e-01 2.393305e-01 2.422954e-01 2.443550e-01 2.465829e-01 2.477567e-01 2.491872e-01 2.494531e-01 2.500636e-01 2.494367e-01 2.492455e-01 2.477808e-01 2.468475e-01 2.446414e-01 2.430666e-01 2.402576e-01 2.381811e-01 2.349508e-01 2.325494e-01 2.291211e-01 2.266047e-01 2.232387e-01 2.208431e-01 2.178271e-01 