# vtk DataFile Version 2.0
Comment goes here
ASCII

DATASET STRUCTURED_POINTS
FIELD FieldData 1
TIME 1 1 double
0.12500000
DIMENSIONS    128   128   1

ORIGIN    0.000   0.000   0.000
SPACING   0.039062 0.039062   1.000

POINT_DATA   16384
SCALARS uMag double
LOOKUP_TABLE default

2.056185e-01 1.687387e-01 1.339005e-01 9.690586e-02 6.186244e-02 2.512857e-02 9.781580e-03 4.590650e-02 8.036764e-02 1.155627e-01 1.492813e-01 1.832519e-01 2.159561e-01 2.484327e-01 2.798705e-01 3.106073e-01 3.405458e-01 3.693192e-01 3.975436e-01 4.241511e-01 4.504640e-01 4.747236e-01 4.989443e-01 5.206938e-01 5.426582e-01 5.617550e-01 5.813154e-01 5.976360e-01 6.146609e-01 6.281012e-01 6.424750e-01 6.529499e-01 6.645730e-01 6.720170e-01 6.808057e-01 6.851726e-01 6.910592e-01 6.923232e-01 6.952566e-01 6.934126e-01 6.933592e-01 6.884238e-01 6.853684e-01 6.773811e-01 6.713286e-01 6.603523e-01 6.513290e-01 6.374512e-01 6.255069e-01 6.088392e-01 5.940485e-01 5.747271e-01 5.571903e-01 5.353746e-01 5.152185e-01 4.910898e-01 4.684677e-01 4.422267e-01 4.173173e-01 3.891819e-01 3.621877e-01 3.323898e-01 3.035353e-01 2.723176e-01 2.418463e-01 2.094601e-01 1.776317e-01 1.443339e-01 1.114213e-01 7.747281e-02 4.375941e-02 9.424505e-03 2.479835e-02 5.925241e-02 9.368711e-02 1.279892e-01 1.623331e-01 1.962068e-01 2.301525e-01 2.633142e-01 2.965497e-01 3.287062e-01 3.609147e-01 3.917616e-01 4.226206e-01 4.518414e-01 4.810234e-01 5.082896e-01 5.354630e-01 5.604366e-01 5.852681e-01 6.076062e-01 6.297660e-01 6.491277e-01 6.682954e-01 6.843520e-01 7.002258e-01 7.126723e-01 7.249792e-01 7.335475e-01 7.420549e-01 7.465280e-01 7.510550e-01 7.512791e-01 7.517072e-01 7.476031e-01 7.438842e-01 7.354540e-01 7.276156e-01 7.149461e-01 7.030923e-01 6.863539e-01 6.706627e-01 6.501031e-01 6.308197e-01 6.067543e-01 5.841815e-01 5.569812e-01 5.314672e-01 5.015439e-01 4.734698e-01 4.412619e-01 4.110287e-01 3.769874e-01 3.450042e-01 3.095809e-01 2.762547e-01 2.398910e-01 
2.081784e-01 1.719742e-01 1.381208e-01 1.028481e-01 7.103769e-02 4.341788e-02 3.699830e-02 5.839526e-02 8.814338e-02 1.212007e-01 1.536787e-01 1.869048e-01 2.190384e-01 2.511475e-01 2.822505e-01 3.127714e-01 3.424858e-01 3.711183e-01 3.991801e-01 4.256889e-01 4.518770e-01 4.760638e-01 5.001848e-01 5.218782e-01 5.437604e-01 5.628124e-01 5.823030e-01 5.985870e-01 6.155512e-01 6.289610e-01 6.432808e-01 6.537302e-01 6.653042e-01 6.727270e-01 6.814702e-01 6.858201e-01 6.916641e-01 6.929151e-01 6.958082e-01 6.939555e-01 6.938636e-01 6.889243e-01 6.858324e-01 6.778462e-01 6.717592e-01 6.607899e-01 6.517349e-01 6.378704e-01 6.258982e-01 6.092513e-01 5.944377e-01 5.751461e-01 5.575936e-01 5.358188e-01 5.156573e-01 4.915837e-01 4.689713e-01 4.428049e-01 4.179276e-01 3.898951e-01 3.629682e-01 3.333176e-01 3.045886e-01 2.735953e-01 2.433560e-01 2.113473e-01 1.799807e-01 1.474379e-01 1.156505e-01 8.385147e-02 5.481146e-02 3.534016e-02 4.286311e-02 6.931466e-02 1.006493e-01 1.334347e-01 1.668140e-01 2.001003e-01 2.335617e-01 2.664191e-01 2.993424e-01 3.313152e-01 3.632871e-01 3.940119e-01 4.246714e-01 4.538052e-01 4.828070e-01 5.100077e-01 5.370119e-01 5.619339e-01 5.866036e-01 6.088994e-01 6.309038e-01 6.502298e-01 6.692494e-01 6.852751e-01 7.010098e-01 7.134292e-01 7.256082e-01 7.341531e-01 7.425463e-01 7.469994e-01 7.514285e-01 7.516366e-01 7.519853e-01 7.478696e-01 7.440916e-01 7.356553e-01 7.277795e-01 7.151107e-01 7.032422e-01 6.865125e-01 6.708299e-01 6.502890e-01 6.310379e-01 6.070037e-01 5.844877e-01 5.573344e-01 5.319034e-01 5.020482e-01 4.740868e-01 4.419765e-01 4.118936e-01 3.779943e-01 3.462154e-01 3.110077e-01 2.779771e-01 2.419684e-01 
2.181029e-01 1.836720e-01 1.521055e-01 1.207420e-01 9.464709e-02 7.582368e-02 7.180087e-02 8.459721e-02 1.069990e-01 1.354065e-01 1.649384e-01 1.961901e-01 2.269045e-01 2.579828e-01 2.882777e-01 3.181802e-01 3.473839e-01 3.756107e-01 4.033279e-01 4.295541e-01 4.555005e-01 4.794822e-01 5.034305e-01 5.249712e-01 5.467301e-01 5.656668e-01 5.850717e-01 6.012684e-01 6.181767e-01 6.315211e-01 6.458100e-01 6.562118e-01 6.677768e-01 6.751667e-01 6.839207e-01 6.882505e-01 6.941232e-01 6.953656e-01 6.983043e-01 6.964538e-01 6.964234e-01 6.914969e-01 6.884817e-01 6.805195e-01 6.745240e-01 6.635910e-01 6.546423e-01 6.408288e-01 6.289783e-01 6.124005e-01 5.977257e-01 5.785264e-01 5.611330e-01 5.394811e-01 5.195050e-01 4.955958e-01 4.732050e-01 4.472611e-01 4.226591e-01 3.949339e-01 3.683668e-01 3.391548e-01 3.109292e-01 2.805948e-01 2.511262e-01 2.201917e-01 1.901615e-01 1.596181e-01 1.306085e-01 1.033573e-01 8.121264e-02 6.931368e-02 7.302720e-02 9.089092e-02 1.163322e-01 1.454882e-01 1.764849e-01 2.081344e-01 2.404301e-01 2.723948e-01 3.046722e-01 3.360983e-01 3.676939e-01 3.980619e-01 4.285055e-01 4.574004e-01 4.862917e-01 5.133336e-01 5.403010e-01 5.651224e-01 5.898093e-01 6.120481e-01 6.341093e-01 6.534117e-01 6.725166e-01 6.885437e-01 7.043830e-01 7.168218e-01 7.291167e-01 7.376928e-01 7.462062e-01 7.506975e-01 7.552453e-01 7.554948e-01 7.559562e-01 7.518830e-01 7.482090e-01 7.398158e-01 7.320345e-01 7.194108e-01 7.076285e-01 6.909498e-01 6.753490e-01 6.548709e-01 6.357035e-01 6.117532e-01 5.893321e-01 5.622964e-01 5.369854e-01 5.072995e-01 4.795036e-01 4.476420e-01 4.178021e-01 3.842758e-01 3.528732e-01 3.182458e-01 2.858332e-01 2.507854e-01 
2.323598e-01 2.004311e-01 1.719351e-01 1.449927e-01 1.240003e-01 1.103920e-01 1.074795e-01 1.164912e-01 1.334481e-01 1.571863e-01 1.830634e-01 2.116736e-01 2.402648e-01 2.698114e-01 2.987769e-01 3.277154e-01 3.560221e-01 3.835990e-01 4.106763e-01 4.364409e-01 4.619123e-01 4.855530e-01 5.091387e-01 5.304200e-01 5.518968e-01 5.706320e-01 5.898151e-01 6.058532e-01 6.225865e-01 6.358057e-01 6.499572e-01 6.602608e-01 6.717194e-01 6.790343e-01 6.877084e-01 6.919838e-01 6.977999e-01 6.990075e-01 7.019106e-01 7.000445e-01 6.999981e-01 6.950757e-01 6.920633e-01 6.841263e-01 6.781527e-01 6.672685e-01 6.583616e-01 6.446243e-01 6.328378e-01 6.163691e-01 6.017848e-01 5.827350e-01 5.654659e-01 5.440151e-01 5.242084e-01 5.005683e-01 4.784104e-01 4.528286e-01 4.285527e-01 4.013230e-01 3.752256e-01 3.467111e-01 3.191887e-01 2.898804e-01 2.615220e-01 2.321953e-01 2.040454e-01 1.762320e-01 1.506362e-01 1.281608e-01 1.113507e-01 1.035294e-01 1.063624e-01 1.197922e-01 1.403181e-01 1.656163e-01 1.935768e-01 2.230405e-01 2.535509e-01 2.842155e-01 3.153497e-01 3.459436e-01 3.767455e-01 4.065513e-01 4.364071e-01 4.649092e-01 4.933431e-01 5.201061e-01 5.467047e-01 5.713279e-01 5.957102e-01 6.178101e-01 6.396167e-01 6.588244e-01 6.777160e-01 6.936819e-01 7.093440e-01 7.217465e-01 7.338976e-01 7.424560e-01 7.508573e-01 7.553449e-01 7.598119e-01 7.600689e-01 7.604812e-01 7.564260e-01 7.527358e-01 7.443726e-01 7.366099e-01 7.240322e-01 7.123065e-01 6.956964e-01 6.801948e-01 6.598175e-01 6.407986e-01 6.169945e-01 5.947815e-01 5.679560e-01 5.429282e-01 5.135431e-01 4.861307e-01 4.547008e-01 4.253866e-01 3.924892e-01 3.618298e-01 3.281453e-01 2.968381e-01 2.632747e-01 
2.523019e-01 2.230157e-01 1.973881e-01 1.741943e-01 1.566725e-01 1.459235e-01 1.432466e-01 1.499547e-01 1.630790e-01 1.828911e-01 2.052629e-01 2.310518e-01 2.572820e-01 2.849990e-01 3.123949e-01 3.401165e-01 3.673421e-01 3.940742e-01 4.203800e-01 4.455352e-01 4.704413e-01 4.936291e-01 5.167940e-01 5.377316e-01 5.588939e-01 5.773649e-01 5.963153e-01 6.121495e-01 6.287159e-01 6.417787e-01 6.558182e-01 6.660044e-01 6.773986e-01 6.846291e-01 6.932809e-01 6.975012e-01 7.033334e-01 7.045125e-01 7.074673e-01 7.055980e-01 7.056369e-01 7.007366e-01 6.978415e-01 6.899533e-01 6.841282e-01 6.733223e-01 6.645954e-01 6.509709e-01 6.393977e-01 6.230835e-01 6.087499e-01 5.899071e-01 5.729333e-01 5.517572e-01 5.323032e-01 5.090272e-01 4.873000e-01 4.622040e-01 4.384712e-01 4.118977e-01 3.865123e-01 3.589028e-01 3.323576e-01 3.043340e-01 2.773860e-01 2.499460e-01 2.239220e-01 1.989249e-01 1.764800e-01 1.577379e-01 1.441984e-01 1.382325e-01 1.401582e-01 1.505673e-01 1.672135e-01 1.889018e-01 2.137611e-01 2.407314e-01 2.692248e-01 2.982613e-01 3.280945e-01 3.575994e-01 3.875481e-01 4.166065e-01 4.459008e-01 4.738845e-01 5.019574e-01 5.283648e-01 5.547468e-01 5.791352e-01 6.034087e-01 6.253661e-01 6.471457e-01 6.662818e-01 6.852084e-01 7.011560e-01 7.168992e-01 7.293222e-01 7.415867e-01 7.501917e-01 7.587274e-01 7.632775e-01 7.678903e-01 7.682183e-01 7.687808e-01 7.648009e-01 7.612614e-01 7.529773e-01 7.453651e-01 7.328744e-01 7.213024e-01 7.047955e-01 6.894580e-01 6.692138e-01 6.503819e-01 6.267599e-01 6.047748e-01 5.782065e-01 5.534733e-01 5.244569e-01 4.974431e-01 4.665451e-01 4.377903e-01 4.056668e-01 3.758176e-01 3.432764e-01 3.131821e-01 2.813449e-01 
2.752011e-01 2.485881e-01 2.257090e-01 2.057143e-01 1.908598e-01 1.821344e-01 1.796933e-01 1.850827e-01 1.955526e-01 2.123477e-01 2.316052e-01 2.547234e-01 2.784803e-01 3.042460e-01 3.298278e-01 3.561616e-01 3.820564e-01 4.077857e-01 4.330971e-01 4.575097e-01 4.816583e-01 5.042830e-01 5.268620e-01 5.473642e-01 5.680691e-01 5.861986e-01 6.047907e-01 6.203550e-01 6.366421e-01 6.494916e-01 6.633167e-01 6.733364e-01 6.845710e-01 6.916753e-01 7.002152e-01 7.043454e-01 7.101085e-01 7.112313e-01 7.141559e-01 7.122635e-01 7.123088e-01 7.074193e-01 7.045655e-01 6.967245e-01 6.909753e-01 6.802570e-01 6.716417e-01 6.581513e-01 6.467285e-01 6.306039e-01 6.164656e-01 5.978805e-01 5.811573e-01 5.603246e-01 5.411930e-01 5.183712e-01 4.970645e-01 4.725695e-01 4.493961e-01 4.236242e-01 3.990010e-01 3.724752e-01 3.469956e-01 3.204621e-01 2.950360e-01 2.696683e-01 2.458184e-01 2.236282e-01 2.040430e-01 1.884839e-01 1.774819e-01 1.731223e-01 1.748680e-01 1.837342e-01 1.978022e-01 2.167894e-01 2.389286e-01 2.636060e-01 2.899909e-01 3.173525e-01 3.456405e-01 3.739498e-01 4.027555e-01 4.309556e-01 4.593836e-01 4.867475e-01 5.141477e-01 5.401089e-01 5.659588e-01 5.900308e-01 6.138787e-01 6.356188e-01 6.570571e-01 6.760520e-01 6.947072e-01 7.105716e-01 7.261031e-01 7.384862e-01 7.505921e-01 7.591887e-01 7.676142e-01 7.721786e-01 7.767267e-01 7.770862e-01 7.776283e-01 7.736949e-01 7.701797e-01 7.619594e-01 7.544187e-01 7.420153e-01 7.305666e-01 7.141817e-01 6.990269e-01 6.789555e-01 6.603769e-01 6.370004e-01 6.153557e-01 5.891349e-01 5.648533e-01 5.363262e-01 5.099110e-01 4.796999e-01 4.517453e-01 4.205875e-01 3.918249e-01 3.606486e-01 3.320569e-01 3.021540e-01 
3.019956e-01 2.777034e-01 2.569640e-01 2.393648e-01 2.262331e-01 2.187301e-01 2.162133e-01 2.205590e-01 2.289766e-01 2.433560e-01 2.599611e-01 2.806551e-01 3.020804e-01 3.259004e-01 3.496583e-01 3.745227e-01 3.990307e-01 4.236577e-01 4.479148e-01 4.714918e-01 4.948337e-01 5.168163e-01 5.387755e-01 5.587784e-01 5.790079e-01 5.967467e-01 6.149785e-01 6.302369e-01 6.462584e-01 6.588707e-01 6.725107e-01 6.823503e-01 6.934703e-01 7.004439e-01 7.089323e-01 7.129758e-01 7.187451e-01 7.198218e-01 7.228062e-01 7.209066e-01 7.210620e-01 7.162041e-01 7.135084e-01 7.057397e-01 7.001951e-01 6.895938e-01 6.812296e-01 6.679077e-01 6.567844e-01 6.408900e-01 6.271044e-01 6.088256e-01 5.925175e-01 5.720869e-01 5.534484e-01 5.311514e-01 5.104404e-01 4.866300e-01 4.641925e-01 4.393155e-01 4.156246e-01 3.902734e-01 3.660018e-01 3.410105e-01 3.171660e-01 2.937901e-01 2.719566e-01 2.521600e-01 2.348268e-01 2.215194e-01 2.120832e-01 2.085072e-01 2.098196e-01 2.172950e-01 2.292158e-01 2.457973e-01 2.654845e-01 2.878964e-01 3.122443e-01 3.378179e-01 3.645802e-01 3.915526e-01 4.192569e-01 4.464761e-01 4.741261e-01 5.007818e-01 5.276486e-01 5.531124e-01 5.786167e-01 6.023571e-01 6.260059e-01 6.475455e-01 6.689000e-01 6.877974e-01 7.064590e-01 7.223044e-01 7.379114e-01 7.503324e-01 7.625644e-01 7.712368e-01 7.798231e-01 7.844851e-01 7.892153e-01 7.896823e-01 7.904180e-01 7.865953e-01 7.832791e-01 7.751718e-01 7.678346e-01 7.555522e-01 7.443158e-01 7.280725e-01 7.131489e-01 6.932594e-01 6.749475e-01 6.518199e-01 6.305007e-01 6.046312e-01 5.807659e-01 5.527373e-01 5.268720e-01 4.973649e-01 4.701518e-01 4.399791e-01 4.122275e-01 3.824132e-01 3.551972e-01 3.271326e-01 
3.308548e-01 3.087332e-01 2.899431e-01 2.743826e-01 2.626682e-01 2.561682e-01 2.536427e-01 2.573016e-01 2.641630e-01 2.766678e-01 2.910108e-01 3.095833e-01 3.287963e-01 3.507504e-01 3.726340e-01 3.959982e-01 4.189975e-01 4.424505e-01 4.655111e-01 4.881716e-01 5.105662e-01 5.318286e-01 5.530365e-01 5.724688e-01 5.921023e-01 6.093858e-01 6.271467e-01 6.420412e-01 6.576947e-01 6.700172e-01 6.833761e-01 6.929886e-01 7.039025e-01 7.107035e-01 7.190525e-01 7.229731e-01 7.286632e-01 7.296637e-01 7.326247e-01 7.306947e-01 7.308788e-01 7.260373e-01 7.234202e-01 7.157175e-01 7.103002e-01 6.998200e-01 6.916324e-01 6.784944e-01 6.675997e-01 6.519634e-01 6.384647e-01 6.205334e-01 6.045814e-01 5.846085e-01 5.664128e-01 5.447116e-01 5.245570e-01 5.015168e-01 4.797884e-01 4.559047e-01 4.331303e-01 4.090555e-01 3.859775e-01 3.626115e-01 3.403065e-01 3.189382e-01 2.989934e-01 2.814731e-01 2.661385e-01 2.548872e-01 2.468544e-01 2.442190e-01 2.454993e-01 2.523254e-01 2.628364e-01 2.777740e-01 2.955098e-01 3.161045e-01 3.385868e-01 3.625703e-01 3.877654e-01 4.134640e-01 4.399074e-01 4.661438e-01 4.927897e-01 5.187038e-01 5.447703e-01 5.696874e-01 5.945522e-01 6.179024e-01 6.410409e-01 6.623158e-01 6.832663e-01 7.019984e-01 7.203459e-01 7.361029e-01 7.514738e-01 7.638638e-01 7.759287e-01 7.846112e-01 7.930926e-01 7.977931e-01 8.024761e-01 8.030015e-01 8.037450e-01 7.999972e-01 7.967437e-01 7.887302e-01 7.815127e-01 7.693515e-01 7.582972e-01 7.422171e-01 7.275470e-01 7.078835e-01 6.899095e-01 6.670984e-01 6.462200e-01 6.207919e-01 5.974957e-01 5.700765e-01 5.449432e-01 5.162667e-01 4.899940e-01 4.609370e-01 4.343902e-01 4.060453e-01 3.803525e-01 3.541520e-01 
3.623947e-01 3.420269e-01 3.246546e-01 3.105947e-01 2.997717e-01 2.938973e-01 2.911842e-01 2.942204e-01 2.997606e-01 3.107087e-01 3.231205e-01 3.398332e-01 3.570564e-01 3.772701e-01 3.973854e-01 4.192786e-01 4.408047e-01 4.630638e-01 4.849301e-01 5.066345e-01 5.280728e-01 5.485713e-01 5.690193e-01 5.878408e-01 6.068763e-01 6.236716e-01 6.409697e-01 6.554760e-01 6.707820e-01 6.827998e-01 6.959116e-01 7.052910e-01 7.160476e-01 7.226786e-01 7.309519e-01 7.347594e-01 7.404494e-01 7.413898e-01 7.444211e-01 7.424818e-01 7.428024e-01 7.380021e-01 7.355843e-01 7.279754e-01 7.228177e-01 7.124883e-01 7.046191e-01 6.916970e-01 6.811805e-01 6.658366e-01 6.527797e-01 6.352333e-01 6.197949e-01 6.003201e-01 5.827241e-01 5.616604e-01 5.422132e-01 5.199825e-01 4.990997e-01 4.762348e-01 4.544830e-01 4.316744e-01 4.098357e-01 3.880060e-01 3.671735e-01 3.475757e-01 3.292650e-01 3.135632e-01 2.997492e-01 2.899202e-01 2.827569e-01 2.805503e-01 2.815588e-01 2.875899e-01 2.967875e-01 3.101270e-01 3.260908e-01 3.448851e-01 3.656384e-01 3.879806e-01 4.117139e-01 4.360549e-01 4.613494e-01 4.865213e-01 5.123059e-01 5.374196e-01 5.628702e-01 5.872142e-01 6.116673e-01 6.346367e-01 6.575322e-01 6.785858e-01 6.994319e-01 7.180716e-01 7.364266e-01 7.521911e-01 7.676569e-01 7.801262e-01 7.923511e-01 8.011587e-01 8.098447e-01 8.146935e-01 8.196082e-01 8.202879e-01 8.212763e-01 8.176784e-01 8.146746e-01 8.068044e-01 7.998390e-01 7.878214e-01 7.770260e-01 7.611058e-01 7.467129e-01 7.272502e-01 7.095905e-01 6.870536e-01 6.665523e-01 6.415114e-01 6.186877e-01 5.918143e-01 5.672880e-01 5.393668e-01 5.138800e-01 4.858396e-01 4.603013e-01 4.332737e-01 4.088350e-01 3.842422e-01 
3.956716e-01 3.769261e-01 3.608610e-01 3.481168e-01 3.380724e-01 3.327500e-01 3.299022e-01 3.324782e-01 3.369318e-01 3.466121e-01 3.573413e-01 3.724315e-01 3.878080e-01 4.064072e-01 4.247869e-01 4.452471e-01 4.652603e-01 4.863127e-01 5.069081e-01 5.276189e-01 5.480087e-01 5.676957e-01 5.872877e-01 6.054476e-01 6.237899e-01 6.400463e-01 6.567890e-01 6.708577e-01 6.857261e-01 6.973919e-01 7.101687e-01 7.192699e-01 7.297826e-01 7.362015e-01 7.443133e-01 7.479693e-01 7.535737e-01 7.544204e-01 7.574367e-01 7.554603e-01 7.558327e-01 7.510530e-01 7.487503e-01 7.412228e-01 7.362412e-01 7.260600e-01 7.184272e-01 7.057288e-01 6.955101e-01 6.804778e-01 6.677843e-01 6.506535e-01 6.356530e-01 6.167184e-01 5.996494e-01 5.792758e-01 5.604664e-01 5.391052e-01 5.190005e-01 4.972166e-01 4.764179e-01 4.549302e-01 4.342509e-01 4.139887e-01 3.945242e-01 3.766885e-01 3.598752e-01 3.459528e-01 3.335298e-01 3.251446e-01 3.188636e-01 3.173370e-01 3.183621e-01 3.241188e-01 3.324735e-01 3.448091e-01 3.594199e-01 3.768912e-01 3.961595e-01 4.171751e-01 4.395171e-01 4.626842e-01 4.867680e-01 5.109702e-01 5.357380e-01 5.600877e-01 5.846992e-01 6.084674e-01 6.322364e-01 6.547942e-01 6.771391e-01 6.979202e-01 7.183311e-01 7.368124e-01 7.548331e-01 7.705288e-01 7.857498e-01 7.982168e-01 8.102769e-01 8.191284e-01 8.277220e-01 8.326442e-01 8.375333e-01 8.383042e-01 8.393302e-01 8.358365e-01 8.329322e-01 8.251815e-01 8.183789e-01 8.065063e-01 7.959418e-01 7.802093e-01 7.661239e-01 7.469159e-01 7.296526e-01 7.074675e-01 6.874682e-01 6.629111e-01 6.407161e-01 6.144974e-01 5.907514e-01 5.636956e-01 5.391669e-01 5.122368e-01 4.878529e-01 4.621929e-01 4.390940e-01 4.160802e-01 
4.308941e-01 4.134115e-01 3.982420e-01 3.864596e-01 3.768615e-01 3.718782e-01 3.687731e-01 3.709065e-01 3.743780e-01 3.829701e-01 3.922273e-01 4.058977e-01 4.196242e-01 4.367553e-01 4.535359e-01 4.726426e-01 4.912232e-01 5.110990e-01 5.304652e-01 5.501832e-01 5.695451e-01 5.884070e-01 6.071545e-01 6.246345e-01 6.422950e-01 6.579956e-01 6.741996e-01 6.878190e-01 7.022759e-01 7.135848e-01 7.260649e-01 7.348912e-01 7.452123e-01 7.514301e-01 7.594481e-01 7.629710e-01 7.685731e-01 7.693502e-01 7.724505e-01 7.704654e-01 7.710029e-01 7.662746e-01 7.642135e-01 7.567992e-01 7.521312e-01 7.421294e-01 7.348789e-01 7.224341e-01 7.126646e-01 6.979718e-01 6.857956e-01 6.691055e-01 6.546952e-01 6.363219e-01 6.199253e-01 6.002552e-01 5.822150e-01 5.617222e-01 5.425020e-01 5.217703e-01 5.019890e-01 4.817433e-01 4.622195e-01 4.433643e-01 4.251625e-01 4.088104e-01 3.932604e-01 3.807097e-01 3.693324e-01 3.619131e-01 3.561629e-01 3.549032e-01 3.557290e-01 3.609607e-01 3.684335e-01 3.796423e-01 3.929663e-01 4.090329e-01 4.269177e-01 4.465216e-01 4.675891e-01 4.894941e-01 5.125077e-01 5.356642e-01 5.595919e-01 5.831294e-01 6.071237e-01 6.303053e-01 6.536598e-01 6.758373e-01 6.979461e-01 7.185278e-01 7.388558e-01 7.572885e-01 7.753539e-01 7.911188e-01 8.064861e-01 8.191060e-01 8.313877e-01 8.404415e-01 8.493070e-01 8.544504e-01 8.596387e-01 8.606253e-01 8.619591e-01 8.586603e-01 8.560599e-01 8.484788e-01 8.419714e-01 8.302506e-01 8.199763e-01 8.043971e-01 7.906089e-01 7.715847e-01 7.546456e-01 7.327117e-01 7.130898e-01 6.888931e-01 6.671591e-01 6.414528e-01 6.182832e-01 5.919305e-01 5.681211e-01 5.421107e-01 5.186023e-01 4.940742e-01 4.719848e-01 4.502509e-01 
4.678823e-01 4.515712e-01 4.372436e-01 4.263166e-01 4.171170e-01 4.124300e-01 4.090956e-01 4.108559e-01 4.134595e-01 4.211109e-01 4.290389e-01 4.414404e-01 4.536260e-01 4.693964e-01 4.846304e-01 5.024401e-01 5.195903e-01 5.383065e-01 5.564116e-01 5.751283e-01 5.934098e-01 6.114228e-01 6.292624e-01 6.460301e-01 6.629390e-01 6.780463e-01 6.936384e-01 7.067675e-01 7.207370e-01 7.316463e-01 7.437512e-01 7.522590e-01 7.623076e-01 7.682811e-01 7.761218e-01 7.794699e-01 7.849841e-01 7.856530e-01 7.887498e-01 7.867220e-01 7.873358e-01 7.826312e-01 7.807219e-01 7.734008e-01 7.689563e-01 7.591232e-01 7.521645e-01 7.399728e-01 7.305619e-01 7.162187e-01 7.044684e-01 6.882400e-01 6.743272e-01 6.565457e-01 6.407271e-01 6.217987e-01 6.044306e-01 5.848489e-01 5.664118e-01 5.467748e-01 5.279035e-01 5.089366e-01 4.904533e-01 4.730317e-01 4.559717e-01 4.411255e-01 4.267278e-01 4.155953e-01 4.052073e-01 3.988879e-01 3.937363e-01 3.930329e-01 3.938922e-01 3.990435e-01 4.059798e-01 4.165718e-01 4.289523e-01 4.440832e-01 4.608352e-01 4.793990e-01 4.993170e-01 5.202261e-01 5.421735e-01 5.644601e-01 5.874483e-01 6.102769e-01 6.334695e-01 6.561108e-01 6.787975e-01 7.005956e-01 7.221608e-01 7.425071e-01 7.624053e-01 7.807246e-01 7.984636e-01 8.142119e-01 8.293469e-01 8.420206e-01 8.541559e-01 8.633093e-01 8.721066e-01 8.773741e-01 8.825662e-01 8.836866e-01 8.850917e-01 8.819291e-01 8.794647e-01 8.720245e-01 8.657182e-01 8.541540e-01 8.441487e-01 8.287616e-01 8.153165e-01 7.965466e-01 7.800340e-01 7.584473e-01 7.393476e-01 7.156241e-01 6.945216e-01 6.694456e-01 6.470299e-01 6.214886e-01 5.985625e-01 5.735524e-01 5.510470e-01 5.276835e-01 5.066731e-01 4.861878e-01 
5.063596e-01 4.909306e-01 4.771230e-01 4.668127e-01 4.577797e-01 4.532625e-01 4.496096e-01 4.510117e-01 4.528006e-01 4.596319e-01 4.663686e-01 4.776573e-01 4.884567e-01 5.030032e-01 5.168198e-01 5.334283e-01 5.492400e-01 5.668529e-01 5.837558e-01 6.014979e-01 6.187353e-01 6.359077e-01 6.528628e-01 6.689173e-01 6.850939e-01 6.996045e-01 7.146062e-01 7.272445e-01 7.407558e-01 7.512707e-01 7.630412e-01 7.712433e-01 7.810745e-01 7.868248e-01 7.945597e-01 7.977616e-01 8.032762e-01 8.038716e-01 8.070698e-01 8.050378e-01 8.058484e-01 8.012071e-01 7.995836e-01 7.923940e-01 7.883176e-01 7.786876e-01 7.721729e-01 7.602632e-01 7.513664e-01 7.373949e-01 7.262256e-01 7.104724e-01 6.972069e-01 6.800202e-01 6.649180e-01 6.467198e-01 6.301430e-01 6.114388e-01 5.938742e-01 5.752643e-01 5.573476e-01 5.395405e-01 5.220789e-01 5.058998e-01 4.898812e-01 4.762618e-01 4.628275e-01 4.527509e-01 4.430974e-01 4.374727e-01 4.326584e-01 4.321292e-01 4.328241e-01 4.375861e-01 4.438854e-01 4.536270e-01 4.650488e-01 4.790588e-01 4.947225e-01 5.120881e-01 5.309470e-01 5.507258e-01 5.717436e-01 5.930572e-01 6.152950e-01 6.373541e-01 6.599922e-01 6.820843e-01 7.044106e-01 7.258766e-01 7.472634e-01 7.674777e-01 7.873606e-01 8.057197e-01 8.235834e-01 8.395068e-01 8.548789e-01 8.678209e-01 8.802754e-01 8.897460e-01 8.989135e-01 9.045058e-01 9.100891e-01 9.115076e-01 9.132993e-01 9.103857e-01 9.082853e-01 9.010369e-01 8.950633e-01 8.836418e-01 8.739403e-01 8.586696e-01 8.455118e-01 8.268666e-01 8.106462e-01 7.892351e-01 7.704592e-01 7.470066e-01 7.262887e-01 7.016193e-01 6.796746e-01 6.547047e-01 6.323518e-01 6.080856e-01 5.862511e-01 5.637771e-01 5.434960e-01 5.239673e-01 
5.468325e-01 5.322141e-01 5.188958e-01 5.091185e-01 5.002185e-01 4.958198e-01 4.918489e-01 4.929009e-01 4.939217e-01 4.999926e-01 5.056114e-01 5.158672e-01 5.253507e-01 5.387449e-01 5.511924e-01 5.666497e-01 5.811438e-01 5.976802e-01 6.133781e-01 6.301533e-01 6.463254e-01 6.626503e-01 6.786862e-01 6.940095e-01 7.094089e-01 7.232964e-01 7.376544e-01 7.497685e-01 7.627607e-01 7.728423e-01 7.842103e-01 7.920638e-01 8.016029e-01 8.070845e-01 8.146325e-01 8.176420e-01 8.230709e-01 8.235476e-01 8.267570e-01 8.246788e-01 8.255927e-01 8.209782e-01 8.195450e-01 8.124576e-01 8.086523e-01 7.992056e-01 7.930362e-01 7.813993e-01 7.729162e-01 7.593182e-01 7.486264e-01 7.333613e-01 7.206350e-01 7.040654e-01 6.895657e-01 6.721276e-01 6.562211e-01 6.384290e-01 6.216085e-01 6.040625e-01 5.869660e-01 5.703568e-01 5.537812e-01 5.388884e-01 5.237855e-01 5.114562e-01 4.988925e-01 4.899833e-01 4.810395e-01 4.763081e-01 4.719118e-01 4.718720e-01 4.726009e-01 4.773967e-01 4.833401e-01 4.927110e-01 5.034704e-01 5.168302e-01 5.316514e-01 5.482316e-01 5.661871e-01 5.851680e-01 6.053069e-01 6.258960e-01 6.473298e-01 6.687892e-01 6.907226e-01 7.123645e-01 7.340940e-01 7.552648e-01 7.761628e-01 7.962278e-01 8.157265e-01 8.340628e-01 8.516412e-01 8.676418e-01 8.828214e-01 8.959102e-01 9.082582e-01 9.179148e-01 9.270550e-01 9.328457e-01 9.384744e-01 9.400838e-01 9.419880e-01 9.392481e-01 9.373229e-01 9.302325e-01 9.244946e-01 9.132280e-01 9.038225e-01 8.887256e-01 8.759268e-01 8.575032e-01 8.417095e-01 8.205994e-01 8.023246e-01 7.792827e-01 7.591463e-01 7.350213e-01 7.137417e-01 6.894612e-01 6.678506e-01 6.444094e-01 6.233706e-01 6.018160e-01 5.823318e-01 5.637330e-01 
5.884814e-01 5.744465e-01 5.613582e-01 5.519544e-01 5.430163e-01 5.386686e-01 5.343152e-01 5.350462e-01 5.353326e-01 5.407436e-01 5.453421e-01 5.546958e-01 5.629828e-01 5.753495e-01 5.865380e-01 6.009427e-01 6.142055e-01 6.297333e-01 6.442864e-01 6.601359e-01 6.752820e-01 6.907815e-01 7.059241e-01 7.205270e-01 7.351692e-01 7.484401e-01 7.621756e-01 7.737735e-01 7.862747e-01 7.959371e-01 8.069428e-01 8.144704e-01 8.237733e-01 8.290184e-01 8.364538e-01 8.393122e-01 8.447487e-01 8.451550e-01 8.484877e-01 8.464154e-01 8.475621e-01 8.430262e-01 8.419271e-01 8.349897e-01 8.316100e-01 8.223866e-01 8.167237e-01 8.053889e-01 7.974824e-01 7.842749e-01 7.742203e-01 7.594460e-01 7.474103e-01 7.314446e-01 7.176841e-01 7.009732e-01 6.858521e-01 6.689138e-01 6.529215e-01 6.363459e-01 6.201114e-01 6.045588e-01 5.888560e-01 5.750472e-01 5.607816e-01 5.494716e-01 5.376338e-01 5.295577e-01 5.211292e-01 5.169164e-01 5.127282e-01 5.127976e-01 5.133745e-01 5.178483e-01 5.233022e-01 5.319837e-01 5.420084e-01 5.544363e-01 5.684035e-01 5.839519e-01 6.010527e-01 6.190287e-01 6.384017e-01 6.581087e-01 6.789223e-01 6.996860e-01 7.211752e-01 7.423430e-01 7.638159e-01 7.847456e-01 8.055728e-01 8.256207e-01 8.452220e-01 8.637384e-01 8.815712e-01 8.979074e-01 9.134639e-01 9.269910e-01 9.398025e-01 9.499421e-01 9.595925e-01 9.658537e-01 9.719995e-01 9.740190e-01 9.764118e-01 9.739884e-01 9.724970e-01 9.656166e-01 9.602437e-01 9.490894e-01 9.399807e-01 9.249269e-01 9.123707e-01 8.939643e-01 8.783834e-01 8.573158e-01 8.392543e-01 8.163309e-01 7.964393e-01 7.725507e-01 7.515718e-01 7.276705e-01 7.064281e-01 6.835081e-01 6.628953e-01 6.419695e-01 6.229297e-01 6.049931e-01 
6.324740e-01 6.189460e-01 6.060549e-01 5.969312e-01 5.879110e-01 5.835354e-01 5.787712e-01 5.791385e-01 5.786913e-01 5.834394e-01 5.870442e-01 5.955205e-01 6.026504e-01 6.140253e-01 6.239936e-01 6.373803e-01 6.494415e-01 6.639872e-01 6.774131e-01 6.923525e-01 7.064771e-01 7.211555e-01 7.353966e-01 7.492723e-01 7.631365e-01 7.757734e-01 7.888532e-01 7.999077e-01 8.118727e-01 8.210796e-01 8.316660e-01 8.388239e-01 8.478225e-01 8.527818e-01 8.600263e-01 8.626807e-01 8.680380e-01 8.683202e-01 8.716826e-01 8.695641e-01 8.708452e-01 8.663406e-01 8.654739e-01 8.586468e-01 8.555890e-01 8.465593e-01 8.412970e-01 8.302469e-01 8.228081e-01 8.099863e-01 8.004552e-01 7.861795e-01 7.747133e-01 7.593703e-01 7.462186e-01 7.302624e-01 7.157854e-01 6.997352e-01 6.844198e-01 6.688551e-01 6.533254e-01 6.388790e-01 6.238950e-01 6.112373e-01 5.976746e-01 5.874843e-01 5.762815e-01 5.691964e-01 5.612636e-01 5.578106e-01 5.539049e-01 5.544219e-01 5.550189e-01 5.595971e-01 5.648059e-01 5.732788e-01 5.828392e-01 5.948246e-01 6.081833e-01 6.231571e-01 6.395840e-01 6.569521e-01 6.756501e-01 6.947970e-01 7.149792e-01 7.352883e-01 7.562168e-01 7.770704e-01 7.980671e-01 8.188369e-01 8.392787e-01 8.593173e-01 8.786248e-01 8.972636e-01 9.148926e-01 9.314529e-01 9.468916e-01 9.607076e-01 9.734821e-01 9.839366e-01 9.936247e-01 1.000192e+00 1.006443e+00 1.008733e+00 1.011292e+00 1.009089e+00 1.007818e+00 1.001110e+00 9.960053e-01 9.849887e-01 9.761925e-01 9.612677e-01 9.490656e-01 9.308116e-01 9.156262e-01 8.947680e-01 8.771444e-01 8.545167e-01 8.351059e-01 8.116191e-01 7.911609e-01 7.677716e-01 7.470784e-01 7.247633e-01 7.047021e-01 6.844302e-01 6.658980e-01 6.485907e-01 
6.773935e-01 6.642017e-01 6.512951e-01 6.423554e-01 6.331251e-01 6.287041e-01 6.234864e-01 6.235428e-01 6.223914e-01 6.265785e-01 6.292658e-01 6.369871e-01 6.430545e-01 6.535560e-01 6.623943e-01 6.748613e-01 6.857940e-01 6.994300e-01 7.117804e-01 7.258579e-01 7.389939e-01 7.528801e-01 7.662391e-01 7.794043e-01 7.925037e-01 8.045182e-01 8.169564e-01 8.274807e-01 8.389315e-01 8.477032e-01 8.579060e-01 8.647256e-01 8.734740e-01 8.781918e-01 8.853210e-01 8.878280e-01 8.932045e-01 8.934281e-01 8.969410e-01 8.948464e-01 8.964025e-01 8.919978e-01 8.915204e-01 8.848648e-01 8.822969e-01 8.735095e-01 8.688216e-01 8.580880e-01 8.512907e-01 8.388676e-01 8.300279e-01 8.162435e-01 8.055037e-01 7.907551e-01 7.783525e-01 7.631002e-01 7.493851e-01 7.341453e-01 7.195952e-01 7.049305e-01 6.901560e-01 6.766623e-01 6.624009e-01 6.506887e-01 6.377787e-01 6.284444e-01 6.177715e-01 6.113568e-01 6.037689e-01 6.007089e-01 5.969090e-01 5.974791e-01 5.979183e-01 6.021983e-01 6.070065e-01 6.148755e-01 6.238559e-01 6.350232e-01 6.477102e-01 6.617653e-01 6.775187e-01 6.939807e-01 7.120799e-01 7.304316e-01 7.501462e-01 7.698465e-01 7.904762e-01 8.109578e-01 8.318453e-01 8.525045e-01 8.730330e-01 8.932205e-01 9.128037e-01 9.318243e-01 9.498974e-01 9.670228e-01 9.830405e-01 9.975373e-01 1.010981e+00 1.022153e+00 1.032549e+00 1.039791e+00 1.046733e+00 1.049587e+00 1.052770e+00 1.050972e+00 1.050219e+00 1.043735e+00 1.039023e+00 1.028062e+00 1.019530e+00 1.004530e+00 9.924829e-01 9.740798e-01 9.589718e-01 9.379572e-01 9.203724e-01 8.976437e-01 8.782716e-01 8.547884e-01 8.343987e-01 8.111445e-01 7.905641e-01 7.685142e-01 7.486035e-01 7.286930e-01 7.103176e-01 6.934034e-01 