# vtk DataFile Version 2.0
Comment goes here
ASCII

DATASET STRUCTURED_POINTS
FIELD FieldData 1
TIME 1 1 double
0.05500000
DIMENSIONS    128   128   1

ORIGIN    0.000   0.000   0.000
SPACING   0.039062 0.039062   1.000

POINT_DATA   16384
SCALARS uMag double
LOOKUP_TABLE default

3.540623e-01 3.805384e-01 4.193621e-01 4.441333e-01 4.814652e-01 5.044316e-01 5.401180e-01 5.611739e-01 5.950430e-01 6.140747e-01 6.459343e-01 6.628205e-01 6.924564e-01 7.070689e-01 7.342461e-01 7.464517e-01 7.709168e-01 7.805807e-01 8.020657e-01 8.090553e-01 8.272833e-01 8.314724e-01 8.461645e-01 8.474381e-01 8.583206e-01 8.565794e-01 8.633927e-01 8.585568e-01 8.610632e-01 8.530761e-01 8.510689e-01 8.399000e-01 8.332102e-01 8.188570e-01 8.073614e-01 7.898506e-01 7.734770e-01 7.528655e-01 7.315979e-01 7.079729e-01 6.818553e-01 6.553350e-01 6.244738e-01 5.952078e-01 5.597734e-01 5.279434e-01 4.881714e-01 4.539928e-01 4.101835e-01 3.739070e-01 3.264254e-01 2.883395e-01 2.376140e-01 1.980470e-01 1.445680e-01 1.038900e-01 4.820777e-02 6.831765e-03 5.044650e-02 9.206505e-02 1.502795e-01 1.916448e-01 2.500883e-01 2.906692e-01 3.485951e-01 3.878320e-01 4.444639e-01 4.817795e-01 5.363230e-01 5.711357e-01 6.227940e-01 6.545329e-01 7.025238e-01 7.306471e-01 7.742236e-01 7.982367e-01 8.367081e-01 8.561829e-01 8.889379e-01 9.035300e-01 9.300584e-01 9.395221e-01 9.594358e-01 9.636354e-01 9.766841e-01 9.756003e-01 9.816835e-01 9.754139e-01 9.745850e-01 9.633391e-01 9.558020e-01 9.398907e-01 9.259888e-01 9.058085e-01 8.860060e-01 8.620200e-01 8.368769e-01 8.095941e-01 7.797384e-01 7.496922e-01 7.157898e-01 6.835176e-01 6.462437e-01 6.122697e-01 5.722835e-01 5.371034e-01 4.950274e-01 4.590982e-01 4.155028e-01 3.792358e-01 3.346303e-01 2.983876e-01 2.532156e-01 2.173098e-01 1.719500e-01 1.366467e-01 9.141689e-02 5.693878e-02 1.210251e-02 2.136482e-02 6.558962e-02 9.789145e-02 1.413230e-01 1.723286e-01 2.148113e-01 2.444075e-01 2.858023e-01 3.138869e-01 
3.562373e-01 3.825716e-01 4.211949e-01 4.458702e-01 4.830502e-01 5.059488e-01 5.415144e-01 5.625212e-01 5.962912e-01 6.152875e-01 6.470645e-01 6.639257e-01 6.934929e-01 7.080886e-01 7.352093e-01 7.474049e-01 7.718248e-01 7.814845e-01 8.029352e-01 8.099254e-01 8.281298e-01 8.323239e-01 8.470031e-01 8.482855e-01 8.591660e-01 8.574373e-01 8.642594e-01 8.594400e-01 8.619662e-01 8.540001e-01 8.520236e-01 8.408811e-01 8.342334e-01 8.199134e-01 8.084713e-01 7.910025e-01 7.746945e-01 7.541367e-01 7.329482e-01 7.093924e-01 6.833700e-01 6.569399e-01 6.261947e-01 5.970481e-01 5.617599e-01 5.300915e-01 4.905131e-01 4.565612e-01 4.130288e-01 3.770893e-01 3.300486e-01 2.925142e-01 2.426128e-01 2.041236e-01 1.526754e-01 1.150701e-01 6.879744e-02 4.986829e-02 7.033384e-02 1.044055e-01 1.580421e-01 1.978238e-01 2.548197e-01 2.947559e-01 3.520129e-01 3.909003e-01 4.471736e-01 4.842681e-01 5.386106e-01 5.732703e-01 6.248195e-01 6.564475e-01 7.043876e-01 7.324296e-01 7.759934e-01 7.999483e-01 8.384318e-01 8.578676e-01 8.906495e-01 9.052193e-01 9.317819e-01 9.412382e-01 9.611868e-01 9.653920e-01 9.784715e-01 9.774041e-01 9.835100e-01 9.772657e-01 9.764486e-01 9.652346e-01 9.576973e-01 9.418224e-01 9.279079e-01 9.077670e-01 8.879407e-01 8.639958e-01 8.388207e-01 8.115804e-01 7.816883e-01 7.516869e-01 7.177493e-01 6.855267e-01 6.482261e-01 6.143109e-01 5.743164e-01 5.392118e-01 4.971601e-01 4.613361e-01 4.178203e-01 3.817112e-01 3.372822e-01 3.012973e-01 2.564913e-01 2.210600e-01 1.765208e-01 1.423026e-01 9.951717e-02 6.915617e-02 4.088128e-02 4.452046e-02 7.630302e-02 1.053958e-01 1.466210e-01 1.767216e-01 2.183540e-01 2.475442e-01 2.884878e-01 3.163466e-01 
3.617402e-01 3.876098e-01 4.257395e-01 4.500883e-01 4.869396e-01 5.095974e-01 5.449450e-01 5.657677e-01 5.993996e-01 6.182511e-01 6.499500e-01 6.666951e-01 6.962308e-01 7.107320e-01 7.378581e-01 7.499765e-01 7.744308e-01 7.840277e-01 8.055355e-01 8.124761e-01 8.307547e-01 8.349121e-01 8.496775e-01 8.509374e-01 8.619115e-01 8.601763e-01 8.670957e-01 8.622885e-01 8.649130e-01 8.569816e-01 8.551022e-01 8.440215e-01 8.374694e-01 8.232436e-01 8.118971e-01 7.945617e-01 7.783532e-01 7.579759e-01 7.368981e-01 7.135806e-01 6.876924e-01 6.615728e-01 6.310054e-01 6.022628e-01 5.672289e-01 5.360928e-01 4.969026e-01 4.636723e-01 4.207688e-01 3.858600e-01 3.399137e-01 3.039863e-01 2.561980e-01 2.206032e-01 1.739679e-01 1.428382e-01 1.089858e-01 9.908534e-02 1.108703e-01 1.356802e-01 1.803706e-01 2.164001e-01 2.696468e-01 3.078473e-01 3.632031e-01 4.011132e-01 4.562871e-01 4.927528e-01 5.464082e-01 5.806231e-01 6.317228e-01 6.630128e-01 7.106510e-01 7.384206e-01 7.817779e-01 8.055029e-01 8.438426e-01 8.630776e-01 8.957559e-01 9.101464e-01 9.366297e-01 9.459246e-01 9.658064e-01 9.698675e-01 9.828846e-01 9.816919e-01 9.877346e-01 9.813865e-01 9.805034e-01 9.692111e-01 9.616059e-01 9.456822e-01 9.317018e-01 9.115458e-01 8.916622e-01 8.677402e-01 8.425248e-01 8.153498e-01 7.854454e-01 7.555565e-01 7.216475e-01 6.895913e-01 6.523762e-01 6.186909e-01 5.788602e-01 5.440657e-01 5.022881e-01 4.668838e-01 4.238073e-01 3.882841e-01 3.445648e-01 3.094507e-01 2.658584e-01 2.318665e-01 1.896598e-01 1.582674e-01 1.209090e-01 9.731721e-02 7.921453e-02 8.090147e-02 1.014905e-01 1.246373e-01 1.607517e-01 1.884495e-01 2.277809e-01 2.557680e-01 2.954616e-01 3.226108e-01 
3.713857e-01 3.965571e-01 4.338396e-01 4.576952e-01 4.939375e-01 5.162327e-01 5.511331e-01 5.716818e-01 6.049839e-01 6.236250e-01 6.550843e-01 6.716667e-01 7.010351e-01 7.154108e-01 7.424298e-01 7.544528e-01 7.788512e-01 7.883781e-01 8.098742e-01 8.167675e-01 8.350727e-01 8.392042e-01 8.540296e-01 8.552852e-01 8.663485e-01 8.646321e-01 8.716664e-01 8.669046e-01 8.696666e-01 8.618117e-01 8.600910e-01 8.491242e-01 8.427516e-01 8.286855e-01 8.175411e-01 8.004215e-01 7.844426e-01 7.643504e-01 7.435393e-01 7.205935e-01 6.950254e-01 6.693877e-01 6.392217e-01 6.111058e-01 5.766014e-01 5.462905e-01 5.078396e-01 4.757236e-01 4.339199e-01 4.005798e-01 3.563908e-01 3.228156e-01 2.780759e-01 2.463048e-01 2.053159e-01 1.804904e-01 1.547869e-01 1.488225e-01 1.567230e-01 1.757481e-01 2.121295e-01 2.438411e-01 2.922108e-01 3.279728e-01 3.805700e-01 4.169916e-01 4.705202e-01 5.059905e-01 5.586295e-01 5.921294e-01 6.425968e-01 6.733459e-01 7.205995e-01 7.479453e-01 7.910824e-01 8.144685e-01 8.526963e-01 8.716580e-01 9.042928e-01 9.184642e-01 9.449413e-01 9.540643e-01 9.739535e-01 9.778857e-01 9.909052e-01 9.896239e-01 9.956512e-01 9.892532e-01 9.883291e-01 9.770247e-01 9.693507e-01 9.534525e-01 9.393792e-01 9.192865e-01 8.992945e-01 8.754752e-01 8.501501e-01 8.231203e-01 7.931235e-01 7.634287e-01 7.294681e-01 6.976651e-01 6.604691e-01 6.271137e-01 5.874116e-01 5.530524e-01 5.115684e-01 4.767531e-01 4.342223e-01 3.995274e-01 3.567600e-01 3.228756e-01 2.809429e-01 2.489148e-01 2.097144e-01 1.816992e-01 1.497986e-01 1.313496e-01 1.180765e-01 1.190582e-01 1.335505e-01 1.517596e-01 1.823629e-01 2.070891e-01 2.432765e-01 2.695728e-01 3.073795e-01 3.334829e-01 
3.839631e-01 4.081935e-01 4.444171e-01 4.675905e-01 5.030910e-01 5.248748e-01 5.592572e-01 5.794125e-01 6.123627e-01 6.306952e-01 6.619311e-01 6.782678e-01 7.075153e-01 7.216940e-01 7.486751e-01 7.605400e-01 7.849684e-01 7.943703e-01 8.159514e-01 8.227495e-01 8.411838e-01 8.452492e-01 8.602378e-01 8.614580e-01 8.727099e-01 8.709926e-01 8.782331e-01 8.735107e-01 8.764907e-01 8.687233e-01 8.672283e-01 8.564072e-01 8.502669e-01 8.364167e-01 8.255137e-01 8.086947e-01 7.929742e-01 7.732850e-01 7.527636e-01 7.303455e-01 7.051233e-01 6.801678e-01 6.504430e-01 6.232060e-01 5.893017e-01 5.601299e-01 5.225421e-01 4.919274e-01 4.514268e-01 4.201224e-01 3.779881e-01 3.472764e-01 3.058738e-01 2.782172e-01 2.424285e-01 2.228507e-01 2.024218e-01 1.989595e-01 2.049233e-01 2.206476e-01 2.507330e-01 2.786290e-01 3.220498e-01 3.551629e-01 4.045352e-01 4.391794e-01 4.906258e-01 5.248479e-01 5.761208e-01 6.086948e-01 6.582563e-01 6.882834e-01 7.349360e-01 7.616944e-01 8.044360e-01 8.273272e-01 8.652972e-01 8.838317e-01 9.162969e-01 9.300942e-01 9.564531e-01 9.652480e-01 9.850418e-01 9.886902e-01 1.001616e+00 1.000098e+00 1.006019e+00 9.994347e-01 9.983866e-01 9.869524e-01 9.791366e-01 9.631718e-01 9.489469e-01 9.288575e-01 9.087187e-01 8.849794e-01 8.595326e-01 8.326667e-01 8.025986e-01 7.731605e-01 7.392092e-01 7.077681e-01 6.706979e-01 6.378286e-01 5.984147e-01 5.646967e-01 5.237264e-01 4.897591e-01 4.480643e-01 4.145131e-01 3.730641e-01 3.407744e-01 3.009181e-01 2.711950e-01 2.352518e-01 2.105355e-01 1.831546e-01 1.681859e-01 1.574306e-01 1.578804e-01 1.685397e-01 1.830119e-01 2.086802e-01 2.303400e-01 2.630524e-01 2.873203e-01 3.228432e-01 3.475941e-01 
4.001748e-01 4.233443e-01 4.582660e-01 4.806524e-01 5.151893e-01 5.363761e-01 5.700428e-01 5.897374e-01 6.221611e-01 6.401341e-01 6.709939e-01 6.870486e-01 7.160433e-01 7.300013e-01 7.568333e-01 7.685276e-01 7.928953e-01 8.021692e-01 8.237656e-01 8.304739e-01 8.489886e-01 8.530009e-01 8.681255e-01 8.693301e-01 8.807651e-01 8.790734e-01 8.865369e-01 8.818874e-01 8.851242e-01 8.774860e-01 8.762777e-01 8.656535e-01 8.598287e-01 8.462575e-01 8.357012e-01 8.192608e-01 8.039260e-01 7.847364e-01 7.646550e-01 7.428844e-01 7.181823e-01 6.940570e-01 6.649750e-01 6.387980e-01 6.057263e-01 5.779118e-01 5.414537e-01 5.125936e-01 4.736898e-01 4.446854e-01 4.048757e-01 3.772055e-01 3.391787e-01 3.154192e-01 2.840306e-01 2.685423e-01 2.515678e-01 2.497658e-01 2.543960e-01 2.679943e-01 2.932887e-01 3.179880e-01 3.568261e-01 3.872944e-01 4.333120e-01 4.659966e-01 5.151510e-01 5.479174e-01 5.976592e-01 6.291202e-01 6.776792e-01 7.068287e-01 7.528470e-01 7.788956e-01 8.212590e-01 8.435663e-01 8.813326e-01 8.993827e-01 9.317560e-01 9.451526e-01 9.714813e-01 9.799500e-01 9.997353e-01 1.003127e+00 1.016035e+00 1.014327e+00 1.020198e+00 1.013491e+00 1.012348e+00 1.000858e+00 9.928986e-01 9.769455e-01 9.625365e-01 9.425280e-01 9.221808e-01 8.985941e-01 8.729399e-01 8.463033e-01 8.160617e-01 7.869380e-01 7.528870e-01 7.218601e-01 6.848118e-01 6.524800e-01 6.132678e-01 5.802475e-01 5.397346e-01 5.066826e-01 4.658059e-01 4.334760e-01 3.933577e-01 3.627258e-01 3.249226e-01 2.974481e-01 2.644604e-01 2.425626e-01 2.186107e-01 2.060361e-01 1.967992e-01 1.969511e-01 2.051401e-01 2.169863e-01 2.386875e-01 2.576555e-01 2.870128e-01 3.092416e-01 3.422995e-01 3.655867e-01 
4.187142e-01 4.406821e-01 4.742031e-01 4.956741e-01 5.291824e-01 5.496623e-01 5.825859e-01 6.017271e-01 6.336321e-01 6.511669e-01 6.816887e-01 6.973935e-01 7.261989e-01 7.398762e-01 7.666426e-01 7.781124e-01 8.025177e-01 8.116150e-01 8.333344e-01 8.399094e-01 8.586169e-01 8.625382e-01 8.779107e-01 8.790691e-01 8.907940e-01 8.891066e-01 8.968904e-01 8.923046e-01 8.958826e-01 8.883794e-01 8.875267e-01 8.771239e-01 8.716660e-01 8.584204e-01 8.482455e-01 8.322559e-01 8.173261e-01 7.987373e-01 7.791036e-01 7.581134e-01 7.339334e-01 7.108046e-01 6.823681e-01 6.574511e-01 6.252229e-01 5.989949e-01 5.636880e-01 5.368259e-01 4.995384e-01 4.730499e-01 4.355216e-01 4.109773e-01 3.760456e-01 3.559274e-01 3.281346e-01 3.160418e-01 3.015580e-01 3.012096e-01 3.050367e-01 3.174232e-01 3.392078e-01 3.614859e-01 3.963888e-01 4.245102e-01 4.672906e-01 4.980599e-01 5.448198e-01 5.760760e-01 6.241194e-01 6.543769e-01 7.017604e-01 7.299265e-01 7.751504e-01 8.003730e-01 8.422149e-01 8.638108e-01 9.012446e-01 9.186707e-01 9.508344e-01 9.636787e-01 9.898674e-01 9.978487e-01 1.017521e+00 1.020490e+00 1.033278e+00 1.031217e+00 1.036939e+00 1.029956e+00 1.028624e+00 1.016945e+00 1.008758e+00 9.927114e-01 9.780485e-01 9.580500e-01 9.374463e-01 9.139810e-01 8.881002e-01 8.617044e-01 8.313055e-01 8.025510e-01 7.684571e-01 7.379404e-01 7.010138e-01 6.693524e-01 6.304843e-01 5.983244e-01 5.584480e-01 5.264913e-01 4.866323e-01 4.556965e-01 4.170890e-01 3.882252e-01 3.525346e-01 3.272344e-01 2.969235e-01 2.773843e-01 2.560377e-01 2.451022e-01 2.367325e-01 2.365185e-01 2.427832e-01 2.525183e-01 2.708955e-01 2.874140e-01 3.136090e-01 3.337726e-01 3.643180e-01 3.860167e-01 
4.403045e-01 4.610633e-01 4.930559e-01 5.135775e-01 5.459039e-01 5.656368e-01 5.976592e-01 6.162100e-01 6.474439e-01 6.645104e-01 6.945531e-01 7.098864e-01 7.383758e-01 7.517599e-01 7.783506e-01 7.895921e-01 8.139432e-01 8.228678e-01 8.446383e-01 8.510908e-01 8.699398e-01 8.737872e-01 8.893781e-01 8.905132e-01 9.025207e-01 9.008661e-01 9.089855e-01 9.044980e-01 9.084553e-01 9.011286e-01 9.006920e-01 8.905603e-01 8.855522e-01 8.726921e-01 8.630022e-01 8.475354e-01 8.331346e-01 8.152327e-01 7.961895e-01 7.760813e-01 7.525832e-01 7.305683e-01 7.029518e-01 6.794247e-01 6.482230e-01 6.237151e-01 5.897373e-01 5.649875e-01 5.294541e-01 5.055265e-01 4.702971e-01 4.487571e-01 4.166650e-01 3.997698e-01 3.749099e-01 3.655477e-01 3.528506e-01 3.536322e-01 3.567968e-01 3.683285e-01 3.873437e-01 4.076487e-01 4.391573e-01 4.651366e-01 5.048965e-01 5.337660e-01 5.781774e-01 6.078498e-01 6.541896e-01 6.831410e-01 7.293501e-01 7.564312e-01 8.008895e-01 8.252002e-01 8.665803e-01 8.874025e-01 9.245903e-01 9.413575e-01 9.734162e-01 9.857021e-01 1.011863e+00 1.019379e+00 1.039045e+00 1.041639e+00 1.054400e+00 1.052054e+00 1.057696e+00 1.050519e+00 1.049034e+00 1.037252e+00 1.028836e+00 1.012781e+00 9.978223e-01 9.779105e-01 9.569705e-01 9.336881e-01 9.074677e-01 8.813542e-01 8.506594e-01 8.222939e-01 7.880021e-01 7.579945e-01 7.210281e-01 6.900175e-01 6.513343e-01 6.199987e-01 5.806060e-01 5.496905e-01 5.106967e-01 4.810705e-01 4.437920e-01 4.165469e-01 3.826881e-01 3.592808e-01 3.311614e-01 3.135195e-01 2.941208e-01 2.844006e-01 2.766189e-01 2.761794e-01 2.810528e-01 2.892526e-01 3.050083e-01 3.195315e-01 3.429460e-01 3.612563e-01 3.893845e-01 4.095564e-01 
4.636067e-01 4.830913e-01 5.135518e-01 5.330515e-01 5.641984e-01 5.831157e-01 6.142583e-01 6.321575e-01 6.627645e-01 6.793089e-01 7.089393e-01 7.238532e-01 7.521135e-01 7.651605e-01 7.916791e-01 8.026510e-01 8.270642e-01 8.357768e-01 8.577225e-01 8.640153e-01 8.831330e-01 8.868722e-01 9.028067e-01 9.038883e-01 9.162969e-01 9.146516e-01 9.232135e-01 9.188098e-01 9.232374e-01 9.160855e-01 9.161368e-01 9.062902e-01 9.017822e-01 8.893406e-01 8.801640e-01 8.652751e-01 8.514101e-01 8.342743e-01 8.158094e-01 7.966870e-01 7.738429e-01 7.530687e-01 7.262317e-01 7.042391e-01 6.740116e-01 6.513730e-01 6.186529e-01 5.961451e-01 5.622518e-01 5.409517e-01 5.078121e-01 4.892159e-01 4.595846e-01 4.456815e-01 4.232131e-01 4.163000e-01 4.050106e-01 4.069532e-01 4.097009e-01 4.208582e-01 4.377904e-01 4.567019e-01 4.854107e-01 5.096587e-01 5.467139e-01 5.739098e-01 6.160733e-01 6.442645e-01 6.888818e-01 7.165549e-01 7.615140e-01 7.874893e-01 8.310833e-01 8.544240e-01 8.952365e-01 9.151942e-01 9.520291e-01 9.680163e-01 9.998633e-01 1.011443e+00 1.037468e+00 1.044348e+00 1.063901e+00 1.065935e+00 1.078559e+00 1.075739e+00 1.081189e+00 1.073639e+00 1.071890e+00 1.059849e+00 1.051100e+00 1.034911e+00 1.019569e+00 9.996568e-01 9.783178e-01 9.551756e-01 9.285861e-01 9.027584e-01 8.717786e-01 8.438494e-01 8.094142e-01 7.800003e-01 7.430909e-01 7.128424e-01 6.744748e-01 6.440860e-01 6.053245e-01 5.755615e-01 5.375663e-01 5.093149e-01 4.734329e-01 4.477735e-01 4.156680e-01 3.939570e-01 3.677232e-01 3.515958e-01 3.336641e-01 3.247508e-01 3.172449e-01 3.164490e-01 3.200609e-01 3.268667e-01 3.403252e-01 3.530031e-01 3.738660e-01 3.903699e-01 4.161750e-01 4.347892e-01 
4.894620e-01 5.077442e-01 5.366287e-01 5.551327e-01 5.850042e-01 6.031094e-01 6.332503e-01 6.504923e-01 6.803409e-01 6.963564e-01 7.254439e-01 7.399346e-01 7.678431e-01 7.805543e-01 8.068908e-01 8.176003e-01 8.419813e-01 8.504949e-01 8.725403e-01 8.786917e-01 8.980231e-01 9.016769e-01 9.179219e-01 9.189774e-01 9.317769e-01 9.301723e-01 9.391901e-01 9.349066e-01 9.398416e-01 9.329062e-01 9.335057e-01 9.239929e-01 9.200676e-01 9.081013e-01 8.995411e-01 8.852961e-01 8.720883e-01 8.557938e-01 8.380436e-01 8.199905e-01 7.979476e-01 7.785018e-01 7.525952e-01 7.322204e-01 7.031104e-01 6.824050e-01 6.510581e-01 6.308099e-01 5.986081e-01 5.798665e-01 5.487479e-01 5.328924e-01 5.054749e-01 4.942127e-01 4.737370e-01 4.688820e-01 4.586795e-01 4.615874e-01 4.639669e-01 4.748498e-01 4.900713e-01 5.078142e-01 5.341315e-01 5.568181e-01 5.914541e-01 6.170452e-01 6.571275e-01 6.838307e-01 7.268267e-01 7.531748e-01 7.969651e-01 8.217755e-01 8.645924e-01 8.869103e-01 9.272599e-01 9.463184e-01 9.829243e-01 9.981222e-01 1.029896e+00 1.040789e+00 1.066823e+00 1.073117e+00 1.092693e+00 1.094244e+00 1.106849e+00 1.103653e+00 1.108998e+00 1.101182e+00 1.099216e+00 1.087024e+00 1.077940e+00 1.061713e+00 1.045934e+00 1.026098e+00 1.004253e+00 9.812978e-01 9.541869e-01 9.286545e-01 8.971993e-01 8.696760e-01 8.348796e-01 8.059899e-01 7.689024e-01 7.393112e-01 7.010151e-01 6.714375e-01 6.330572e-01 6.042813e-01 5.670231e-01 5.399474e-01 5.051699e-01 4.808520e-01 4.501512e-01 4.298417e-01 4.050883e-01 3.901737e-01 3.733536e-01 3.650846e-01 3.577784e-01 3.567579e-01 3.594095e-01 3.651825e-01 3.768035e-01 3.880099e-01 4.066859e-01 4.216473e-01 4.453204e-01 4.625269e-01 
5.164959e-01 5.335490e-01 5.609142e-01 5.783892e-01 6.070418e-01 6.243018e-01 6.535079e-01 6.700626e-01 6.992354e-01 7.146948e-01 7.433389e-01 7.573811e-01 7.850534e-01 7.974039e-01 8.236874e-01 8.341088e-01 8.585973e-01 8.668844e-01 8.891752e-01 8.951561e-01 9.148485e-01 9.183868e-01 9.350863e-01 9.360859e-01 9.494112e-01 9.478205e-01 9.574147e-01 9.532303e-01 9.587735e-01 9.520425e-01 9.532673e-01 9.440886e-01 9.407960e-01 9.293209e-01 9.213986e-01 9.078315e-01 8.952736e-01 8.798742e-01 8.628041e-01 8.458935e-01 8.245916e-01 8.065634e-01 7.815038e-01 7.628446e-01 7.347441e-01 7.160645e-01 6.859513e-01 6.680297e-01 6.373328e-01 6.211643e-01 5.918108e-01 5.786381e-01 5.531030e-01 5.443704e-01 5.255458e-01 5.226827e-01 5.133902e-01 5.173863e-01 5.195446e-01 5.305020e-01 5.444184e-01 5.614418e-01 5.858105e-01 6.073429e-01 6.398881e-01 6.641813e-01 7.023676e-01 7.277910e-01 7.692387e-01 7.943894e-01 8.370110e-01 8.607185e-01 9.027152e-01 9.240149e-01 9.638337e-01 9.819440e-01 1.018238e+00 1.032547e+00 1.064154e+00 1.074213e+00 1.100153e+00 1.105676e+00 1.125162e+00 1.126018e+00 1.138481e+00 1.134685e+00 1.139795e+00 1.131496e+00 1.129180e+00 1.116641e+00 1.107093e+00 1.090673e+00 1.074344e+00 1.054475e+00 1.032042e+00 1.009217e+00 9.815425e-01 9.563020e-01 9.243784e-01 8.973047e-01 8.622051e-01 8.339193e-01 7.967570e-01 7.679219e-01 7.298304e-01 7.011601e-01 6.632984e-01 6.355760e-01 5.991596e-01 5.732635e-01 5.396165e-01 5.165468e-01 4.871513e-01 4.680304e-01 4.445171e-01 4.305076e-01 4.144880e-01 4.065609e-01 3.992326e-01 3.978115e-01 3.994803e-01 4.041880e-01 4.140925e-01 4.238554e-01 4.404897e-01 4.539274e-01 4.755785e-01 4.913692e-01 
5.457263e-01 5.616685e-01 5.875176e-01 6.040333e-01 6.314086e-01 6.478628e-01 6.760378e-01 6.919282e-01 7.203087e-01 7.352281e-01 7.633052e-01 7.769138e-01 8.042282e-01 8.162351e-01 8.423529e-01 8.525066e-01 8.770037e-01 8.850889e-01 9.075438e-01 9.133820e-01 9.333746e-01 9.368283e-01 9.539437e-01 9.549210e-01 9.687576e-01 9.672170e-01 9.773979e-01 9.733517e-01 9.795389e-01 9.730555e-01 9.749659e-01 9.661697e-01 9.635933e-01 9.526641e-01 9.454838e-01 9.326559e-01 9.208692e-01 9.064317e-01 8.901754e-01 8.744759e-01 8.540548e-01 8.375085e-01 8.134323e-01 7.965376e-01 7.695669e-01 7.529309e-01 7.241363e-01 7.085063e-01 6.793374e-01 6.656308e-01 6.379750e-01 6.272841e-01 6.034634e-01 5.969897e-01 5.795950e-01 5.784588e-01 5.699242e-01 5.748519e-01 5.768240e-01 5.878477e-01 6.006763e-01 6.170628e-01 6.397714e-01 6.602382e-01 6.909542e-01 7.139983e-01 7.504916e-01 7.746398e-01 8.146956e-01 8.386241e-01 8.802113e-01 9.027800e-01 9.440901e-01 9.643413e-01 1.003775e+00 1.020926e+00 1.057070e+00 1.070506e+00 1.102124e+00 1.111400e+00 1.137429e+00 1.142264e+00 1.161838e+00 1.162112e+00 1.174588e+00 1.170328e+00 1.175317e+00 1.166681e+00 1.164075e+00 1.151330e+00 1.141315e+00 1.124818e+00 1.107865e+00 1.088043e+00 1.064879e+00 1.042212e+00 1.013768e+00 9.887882e-01 9.561376e-01 9.294201e-01 8.937192e-01 8.658856e-01 8.283246e-01 8.000456e-01 7.618220e-01 7.338229e-01 6.961390e-01 6.692111e-01 6.332956e-01 6.083082e-01 5.754509e-01 5.533589e-01 5.249336e-01 5.067538e-01 4.841822e-01 4.709008e-01 4.554947e-01 4.478735e-01 4.405362e-01 4.388610e-01 4.397717e-01 4.436966e-01 4.522158e-01 4.608484e-01 4.757453e-01 4.879222e-01 5.077544e-01 5.223155e-01 
5.756901e-01 5.905069e-01 6.149280e-01 6.304743e-01 6.566674e-01 6.723102e-01 6.995603e-01 7.147843e-01 7.424923e-01 7.568715e-01 7.845157e-01 7.976899e-01 8.247944e-01 8.364541e-01 8.625658e-01 8.724439e-01 8.971179e-01 9.049874e-01 9.277797e-01 9.334555e-01 9.539218e-01 9.572656e-01 9.749652e-01 9.758908e-01 9.903956e-01 9.888739e-01 9.997807e-01 9.958429e-01 1.002789e+00 9.965281e-01 9.992095e-01 9.907791e-01 9.889704e-01 9.785824e-01 9.721590e-01 9.600805e-01 9.490426e-01 9.355938e-01 9.200925e-01 9.056477e-01 8.860149e-01 8.710075e-01 8.477909e-01 8.327254e-01 8.067305e-01 7.921997e-01 7.645382e-01 7.512457e-01 7.233839e-01 7.121584e-01 6.859443e-01 6.777288e-01 6.553506e-01 6.511317e-01 6.349368e-01 6.355857e-01 6.277117e-01 6.337526e-01 6.356379e-01 6.470437e-01 6.590495e-01 6.751937e-01 6.965678e-01 7.163672e-01 7.455430e-01 7.676893e-01 8.026959e-01 8.258530e-01 8.646382e-01 8.875578e-01 9.281633e-01 9.497360e-01 9.903625e-01 1.009636e+00 1.048653e+00 1.064842e+00 1.100780e+00 1.113268e+00 1.144817e+00 1.153164e+00 1.179183e+00 1.183125e+00 1.202667e+00 1.202109e+00 1.214458e+00 1.209461e+00 1.214173e+00 1.204928e+00 1.201867e+00 1.188671e+00 1.178025e+00 1.161254e+00 1.143532e+00 1.123618e+00 1.099612e+00 1.077033e+00 1.047762e+00 1.023036e+00 9.896640e-01 9.633501e-01 9.271182e-01 8.998220e-01 8.619862e-01 8.343628e-01 7.961608e-01 7.689198e-01 7.315639e-01 7.054742e-01 6.701663e-01 6.460599e-01 6.140154e-01 5.927801e-01 5.652373e-01 5.477814e-01 5.259584e-01 5.131217e-01 4.980847e-01 4.904834e-01 4.829300e-01 4.807782e-01 4.808270e-01 4.838349e-01 4.909678e-01 4.984034e-01 5.116219e-01 5.225050e-01 5.405989e-01 5.539103e-01 
6.076278e-01 6.214632e-01 6.444791e-01 6.591540e-01 6.841252e-01 6.990228e-01 7.252649e-01 7.398694e-01 7.667954e-01 7.806713e-01 8.077602e-01 8.205337e-01 8.473034e-01 8.586501e-01 8.846368e-01 8.942755e-01 9.190196e-01 9.267120e-01 9.497518e-01 9.553057e-01 9.761762e-01 9.794517e-01 9.976894e-01 9.986054e-01 1.013758e+00 1.012297e+00 1.023936e+00 1.020150e+00 1.027889e+00 1.021897e+00 1.025410e+00 1.017395e+00 1.016439e+00 1.006647e+00 1.001088e+00 9.898183e-01 9.796541e-01 9.672559e-01 9.526457e-01 9.395152e-01 9.208099e-01 9.073912e-01 8.851667e-01 8.719584e-01 8.470526e-01 8.346198e-01 8.081703e-01 7.971571e-01 7.706310e-01 7.617663e-01 7.369609e-01 7.310397e-01 7.100155e-01 7.078330e-01 6.927326e-01 6.949573e-01 6.876878e-01 6.946927e-01 6.965404e-01 7.082599e-01 7.196008e-01 7.354943e-01 7.557542e-01 7.748985e-01 8.027619e-01 8.240137e-01 8.577393e-01 8.798895e-01 9.175839e-01 9.394645e-01 9.792535e-01 9.997977e-01 1.039907e+00 1.058183e+00 1.096962e+00 1.112194e+00 1.148125e+00 1.159705e+00 1.191405e+00 1.198906e+00 1.225146e+00 1.228320e+00 1.248057e+00 1.246831e+00 1.259255e+00 1.253709e+00 1.258298e+00 1.248642e+00 1.245206e+00 1.231743e+00 1.220461e+00 1.203562e+00 1.184971e+00 1.165052e+00 1.140013e+00 1.117528e+00 1.087153e+00 1.062597e+00 1.028157e+00 1.002075e+00 9.649127e-01 9.379030e-01 8.993630e-01 8.720869e-01 8.334684e-01 8.066461e-01 7.691907e-01 7.435977e-01 7.084968e-01 6.849540e-01 6.533642e-01 6.327178e-01 6.057604e-01 5.888372e-01 5.675552e-01 5.550781e-01 5.403295e-01 5.327937e-01 5.250954e-01 5.226415e-01 5.220326e-01 5.243856e-01 5.304031e-01 5.369271e-01 5.487245e-01 5.585694e-01 5.751141e-01 5.873763e-01 
6.399097e-01 6.527475e-01 6.744605e-01 6.882672e-01 7.121387e-01 7.263069e-01 7.516808e-01 7.656891e-01 7.919889e-01 8.053876e-01 8.320918e-01 8.444893e-01 8.711080e-01 8.821613e-01 9.082177e-01 9.176288e-01 9.426458e-01 9.501630e-01 9.736572e-01 9.790800e-01 1.000561e+00 1.003748e+00 1.022723e+00 1.023600e+00 1.039586e+00 1.038150e+00 1.050685e+00 1.047010e+00 1.055676e+00 1.049911e+00 1.054354e+00 1.046717e+00 1.046670e+00 1.037445e+00 1.032760e+00 1.022282e+00 1.012953e+00 1.001604e+00 9.878012e-01 9.760003e-01 9.580968e-01 9.462980e-01 9.249034e-01 9.135963e-01 8.895865e-01 8.793024e-01 8.538459e-01 8.451640e-01 8.197347e-01 8.132817e-01 7.896377e-01 7.860675e-01 7.661665e-01 7.661045e-01 7.519257e-01 7.558710e-01 7.491400e-01 7.573424e-01 7.592211e-01 7.715790e-01 7.824404e-01 7.984712e-01 8.178625e-01 8.367608e-01 8.635560e-01 8.843067e-01 9.169531e-01 9.384494e-01 9.751974e-01 9.963352e-01 1.035397e+00 1.055140e+00 1.094773e+00 1.112197e+00 1.150743e+00 1.165071e+00 1.200967e+00 1.211592e+00 1.243384e+00 1.249892e+00 1.276263e+00 1.278432e+00 1.298240e+00 1.296041e+00 1.308382e+00 1.301946e+00 1.306223e+00 1.295810e+00 1.291793e+00 1.277751e+00 1.265621e+00 1.248341e+00 1.228689e+00 1.208591e+00 1.182371e+00 1.159894e+00 1.128337e+00 1.103947e+00 1.068447e+00 1.042657e+00 1.004660e+00 9.780408e-01 9.389588e-01 9.121451e-01 8.733052e-01 8.469938e-01 8.096228e-01 7.845617e-01 7.497949e-01 7.267673e-01 6.956647e-01 6.754613e-01 6.490096e-01 6.323815e-01 6.114609e-01 5.990440e-01 5.843493e-01 5.765668e-01 5.684973e-01 5.654659e-01 5.640342e-01 5.655232e-01 5.703418e-01 5.758143e-01 5.861799e-01 5.949026e-01 6.099400e-01 6.211091e-01 
6.740511e-01 6.860496e-01 7.064845e-01 7.195390e-01 7.422748e-01 7.557990e-01 7.802232e-01 7.937013e-01 8.192635e-01 8.322410e-01 8.584327e-01 8.705066e-01 8.968413e-01 9.076540e-01 9.336508e-01 9.428890e-01 9.680603e-01 9.754587e-01 9.993052e-01 1.004654e+00 1.026664e+00 1.029819e+00 1.049475e+00 1.050366e+00 1.067156e+00 1.065796e+00 1.079227e+00 1.075713e+00 1.085337e+00 1.079850e+00 1.085282e+00 1.078077e+00 1.079028e+00 1.070427e+00 1.066729e+00 1.057104e+00 1.048743e+00 1.038505e+00 1.025654e+00 1.015239e+00 9.982842e-01 9.881489e-01 9.677226e-01 9.583355e-01 9.353407e-01 9.271867e-01 9.028123e-01 8.963950e-01 8.721129e-01 8.679521e-01 8.454794e-01 8.440941e-01 8.252966e-01 8.271622e-01 8.138833e-01 8.193596e-01 8.131813e-01 8.224235e-01 8.244133e-01 8.372971e-01 8.478282e-01 8.639226e-01 8.826410e-01 9.012404e-01 9.271787e-01 9.473793e-01 9.791509e-01 9.999407e-01 1.035933e+00 1.056274e+00 1.094790e+00 1.113686e+00 1.153030e+00 1.169578e+00 1.208096e+00 1.221531e+00 1.257625e+00 1.267358e+00 1.299506e+00 1.305140e+00 1.331927e+00 1.333271e+00 1.353439e+00 1.350495e+00 1.363017e+00 1.355953e+00 1.360121e+00 1.349222e+00 1.344734e+00 1.330356e+00 1.317373e+00 1.299901e+00 1.279054e+00 1.258876e+00 1.231217e+00 1.208728e+00 1.175619e+00 1.151246e+00 1.114223e+00 1.088453e+00 1.049094e+00 1.022490e+00 9.823082e-01 9.555196e-01 9.159049e-01 8.896509e-01 8.518482e-01 8.268962e-01 7.920136e-01 7.691483e-01 7.381727e-01 7.181589e-01 6.919610e-01 6.754932e-01 6.548054e-01 6.424415e-01 6.278025e-01 6.198884e-01 6.115711e-01 6.081759e-01 6.061335e-01 6.070297e-01 6.108972e-01 6.156000e-01 6.247630e-01 6.326183e-01 6.463200e-01 6.566040e-01 
7.081620e-01 7.192997e-01 7.385662e-01 7.508804e-01 7.726243e-01 7.855389e-01 8.091839e-01 8.221793e-01 8.471955e-01 8.598047e-01 8.856929e-01 8.974949e-01 9.237690e-01 9.343861e-01 9.605581e-01 9.696570e-01 9.952259e-01 1.002525e+00 1.026971e+00 1.032248e+00 1.055034e+00 1.058142e+00 1.078718e+00 1.079593e+00 1.097409e+00 1.096081e+00 1.110606e+00 1.107198e+00 1.117941e+00 1.112671e+00 1.119210e+00 1.112375e+00 1.114387e+00 1.106351e+00 1.103646e+00 1.094826e+00 1.087379e+00 1.078219e+00 1.066208e+00 1.057168e+00 1.041000e+00 1.032539e+00 1.012879e+00 1.005445e+00 9.832333e-01 9.772646e-01 9.537222e-01 9.496448e-01 9.262546e-01 9.244819e-01 9.029363e-01 9.038584e-01 8.859539e-01 8.899090e-01 8.773818e-01 8.846072e-01 8.789231e-01 8.894924e-01 8.916364e-01 9.054031e-01 9.157366e-01 9.323065e-01 9.505405e-01 9.692838e-01 9.945695e-01 1.014668e+00 1.045753e+00 1.066266e+00 1.101657e+00 1.121589e+00 1.159676e+00 1.178049e+00 1.217184e+00 1.233091e+00 1.271623e+00 1.284291e+00 1.320591e+00 1.329423e+00 1.361897e+00 1.366511e+00 1.393640e+00 1.393881e+00 1.414286e+00 1.410217e+00 1.422744e+00 1.414610e+00 1.418447e+00 1.406612e+00 1.401393e+00 1.386276e+00 1.372164e+00 1.354176e+00 1.331877e+00 1.311400e+00 1.282102e+00 1.259498e+00 1.224734e+00 1.200380e+00 1.161852e+00 1.136187e+00 1.095602e+00 1.069150e+00 1.028093e+00 1.001475e+00 9.613452e-01 9.352575e-01 8.972589e-01 8.724483e-01 8.376060e-01 8.148317e-01 7.840221e-01 7.640142e-01 7.379811e-01 7.213911e-01 7.007378e-01 6.880795e-01 6.732341e-01 6.648229e-01 6.559897e-01 6.518940e-01 6.490177e-01 6.490459e-01 6.518144e-01 6.555472e-01 6.634410e-01 6.703005e-01 6.826729e-01 6.920037e-01 