# vtk DataFile Version 2.0
Comment goes here
ASCII

DATASET STRUCTURED_POINTS
FIELD FieldData 1
TIME 1 1 double
0.14000000
DIMENSIONS    128   128   1

ORIGIN    0.000   0.000   0.000
SPACING   0.039062 0.039062   1.000

POINT_DATA   16384
SCALARS uMag double
LOOKUP_TABLE default

1.834641e-01 1.625585e-01 1.426132e-01 1.206714e-01 1.002016e-01 7.744752e-02 5.667010e-02 3.333112e-02 1.246695e-02 1.122739e-02 3.195504e-02 5.577361e-02 7.614046e-02 9.985139e-02 1.196337e-01 1.430053e-01 1.619817e-01 1.847839e-01 2.027381e-01 2.247439e-01 2.414672e-01 2.624550e-01 2.777498e-01 2.975060e-01 3.111890e-01 3.295107e-01 3.414168e-01 3.581142e-01 3.680999e-01 3.829995e-01 3.909457e-01 4.038928e-01 4.097075e-01 4.205684e-01 4.241886e-01 4.328527e-01 4.342453e-01 4.406268e-01 4.397892e-01 4.438281e-01 4.407877e-01 4.424509e-01 4.372643e-01 4.365458e-01 4.292971e-01 4.262181e-01 4.170168e-01 4.116256e-01 4.006043e-01 3.929750e-01 3.802867e-01 3.705182e-01 3.563336e-01 3.445480e-01 3.290523e-01 3.153927e-01 2.987825e-01 2.834110e-01 2.658908e-01 2.489853e-01 2.307645e-01 2.125157e-01 1.938046e-01 1.744126e-01 1.554192e-01 1.350900e-01 1.160158e-01 9.495741e-02 7.599397e-02 5.441309e-02 3.573869e-02 1.383707e-02 4.386421e-03 2.641484e-02 4.404427e-02 6.601559e-02 8.292799e-02 1.046699e-01 1.207627e-01 1.421147e-01 1.573051e-01 1.781179e-01 1.923400e-01 2.124739e-01 2.256757e-01 2.449975e-01 2.571357e-01 2.755158e-01 2.865511e-01 3.038597e-01 3.137509e-01 3.298551e-01 3.385549e-01 3.533160e-01 3.607670e-01 3.740406e-01 3.801735e-01 3.918098e-01 3.965439e-01 4.063912e-01 4.096366e-01 4.175460e-01 4.192088e-01 4.250409e-01 4.250291e-01 4.286608e-01 4.268917e-01 4.282237e-01 4.246316e-01 4.235945e-01 4.181369e-01 4.146965e-01 4.073595e-01 4.015196e-01 3.923212e-01 3.841239e-01 3.731152e-01 3.626400e-01 3.499043e-01 3.372644e-01 3.229150e-01 3.082534e-01 2.924297e-01 2.759136e-01 2.587773e-01 2.405934e-01 2.223240e-01 2.026734e-01 
1.803888e-01 1.597301e-01 1.400886e-01 1.185608e-01 9.862593e-02 7.672224e-02 5.726793e-02 3.695783e-02 2.396102e-02 2.666411e-02 4.183702e-02 6.309532e-02 8.240214e-02 1.052419e-01 1.245665e-01 1.474369e-01 1.661327e-01 1.885694e-01 2.063167e-01 2.280215e-01 2.445750e-01 2.652979e-01 2.804436e-01 2.999574e-01 3.135039e-01 3.315985e-01 3.433760e-01 3.598577e-01 3.697196e-01 3.844126e-01 3.922380e-01 4.049860e-01 4.106818e-01 4.213502e-01 4.248527e-01 4.333302e-01 4.346059e-01 4.408062e-01 4.398526e-01 4.437154e-01 4.405601e-01 4.420519e-01 4.367518e-01 4.358664e-01 4.285063e-01 4.252649e-01 4.159550e-01 4.104056e-01 3.992796e-01 3.914966e-01 3.787090e-01 3.687920e-01 3.545150e-01 3.425874e-01 3.270087e-01 3.132158e-01 2.965354e-01 2.810429e-01 2.634704e-01 2.464620e-01 2.282147e-01 2.098917e-01 1.911935e-01 1.717754e-01 1.528609e-01 1.325964e-01 1.137302e-01 9.294617e-02 7.452262e-02 5.392749e-02 3.728497e-02 2.211478e-02 2.203618e-02 3.684254e-02 5.258316e-02 7.332501e-02 8.972601e-02 1.109669e-01 1.268044e-01 1.478422e-01 1.628472e-01 1.834021e-01 1.974540e-01 2.173390e-01 2.303644e-01 2.494259e-01 2.613725e-01 2.794713e-01 2.902964e-01 3.072991e-01 3.169616e-01 3.327353e-01 3.411899e-01 3.555986e-01 3.627916e-01 3.756953e-01 3.815623e-01 3.928174e-01 3.972833e-01 4.067451e-01 4.097261e-01 4.172536e-01 4.186619e-01 4.241235e-01 4.238731e-01 4.271535e-01 4.251671e-01 4.261743e-01 4.223908e-01 4.210620e-01 4.154427e-01 4.117491e-01 4.042828e-01 3.982323e-01 3.889389e-01 3.805766e-01 3.695082e-01 3.589156e-01 3.461561e-01 3.334476e-01 3.191104e-01 3.044300e-01 2.886556e-01 2.721722e-01 2.551250e-01 2.370293e-01 2.188955e-01 1.993993e-01 
1.887540e-01 1.684498e-01 1.493538e-01 1.284971e-01 1.095844e-01 8.915883e-02 7.198093e-02 5.535789e-02 4.612171e-02 4.563781e-02 5.473051e-02 7.121446e-02 8.817402e-02 1.092525e-01 1.276444e-01 1.497415e-01 1.679980e-01 1.900650e-01 2.075891e-01 2.291255e-01 2.455668e-01 2.662364e-01 2.813333e-01 3.008661e-01 3.144028e-01 3.325651e-01 3.443582e-01 3.609419e-01 3.708371e-01 3.856571e-01 3.935286e-01 4.064224e-01 4.121743e-01 4.230024e-01 4.265695e-01 4.352173e-01 4.365656e-01 4.429439e-01 4.420709e-01 4.461172e-01 4.430511e-01 4.447304e-01 4.395291e-01 4.388339e-01 4.315834e-01 4.285342e-01 4.193464e-01 4.139911e-01 4.030016e-01 3.954149e-01 3.827805e-01 3.730630e-01 3.589593e-01 3.472365e-01 3.318552e-01 3.182762e-01 3.018232e-01 2.865599e-01 2.692545e-01 2.525018e-01 2.345768e-01 2.165564e-01 1.982645e-01 1.792368e-01 1.608696e-01 1.411734e-01 1.231246e-01 1.033165e-01 8.632419e-02 6.780000e-02 5.413964e-02 4.251484e-02 4.061887e-02 4.789919e-02 5.955204e-02 7.703816e-02 9.196727e-02 1.118560e-01 1.270318e-01 1.474119e-01 1.620774e-01 1.823076e-01 1.961852e-01 2.159426e-01 2.288970e-01 2.479659e-01 2.599162e-01 2.781246e-01 2.890130e-01 3.062071e-01 3.159829e-01 3.320151e-01 3.406256e-01 3.553475e-01 3.627324e-01 3.759921e-01 3.820798e-01 3.937218e-01 3.984297e-01 4.082973e-01 4.115339e-01 4.194739e-01 4.211432e-01 4.270124e-01 4.270206e-01 4.306931e-01 4.289560e-01 4.303304e-01 4.267812e-01 4.257874e-01 4.203833e-01 4.169876e-01 4.097155e-01 4.039234e-01 3.948034e-01 3.866607e-01 3.757473e-01 3.653387e-01 3.527211e-01 3.401676e-01 3.259676e-01 3.114233e-01 2.957933e-01 2.794427e-01 2.625654e-01 2.446233e-01 2.267142e-01 2.074329e-01 
1.910203e-01 1.715574e-01 1.535827e-01 1.341255e-01 1.170665e-01 9.916947e-02 8.527243e-02 7.300142e-02 6.766914e-02 6.847421e-02 7.594209e-02 8.928956e-02 1.040082e-01 1.228058e-01 1.398372e-01 1.604914e-01 1.778979e-01 1.989823e-01 2.159271e-01 2.367418e-01 2.527561e-01 2.728637e-01 2.876251e-01 3.067013e-01 3.199602e-01 3.377394e-01 3.492924e-01 3.655472e-01 3.752277e-01 3.897603e-01 3.974349e-01 4.100740e-01 4.156421e-01 4.262423e-01 4.296360e-01 4.380779e-01 4.392623e-01 4.454533e-01 4.444258e-01 4.483006e-01 4.450906e-01 4.466119e-01 4.412791e-01 4.404378e-01 4.330707e-01 4.298862e-01 4.205999e-01 4.151198e-01 4.040541e-01 3.963539e-01 3.836707e-01 3.738534e-01 3.597348e-01 3.479305e-01 3.325772e-01 3.189431e-01 3.025740e-01 2.872953e-01 2.701489e-01 2.534435e-01 2.357834e-01 2.179130e-01 2.000447e-01 1.813448e-01 1.636582e-01 1.446208e-01 1.277132e-01 1.092399e-01 9.429690e-02 7.854729e-02 6.850902e-02 6.101274e-02 6.128194e-02 6.757099e-02 7.746791e-02 9.252454e-02 1.060732e-01 1.243877e-01 1.387128e-01 1.580742e-01 1.721577e-01 1.916622e-01 2.050878e-01 2.242757e-01 2.368405e-01 2.554245e-01 2.670145e-01 2.847832e-01 2.953244e-01 3.121024e-01 3.215372e-01 3.371650e-01 3.454393e-01 3.597631e-01 3.668182e-01 3.796846e-01 3.854526e-01 3.967074e-01 4.011103e-01 4.105996e-01 4.135509e-01 4.211259e-01 4.225347e-01 4.280572e-01 4.278348e-01 4.311845e-01 4.292514e-01 4.303329e-01 4.266266e-01 4.253761e-01 4.198580e-01 4.162481e-01 4.089091e-01 4.029517e-01 3.938159e-01 3.855635e-01 3.746903e-01 3.642350e-01 3.517194e-01 3.391910e-01 3.251636e-01 3.107281e-01 2.953552e-01 2.792154e-01 2.627024e-01 2.451045e-01 2.277078e-01 2.089615e-01 
2.040015e-01 1.852200e-01 1.682006e-01 1.498049e-01 1.341426e-01 1.178252e-01 1.056914e-01 9.489462e-02 9.012706e-02 8.962809e-02 9.486339e-02 1.050451e-01 1.174218e-01 1.338461e-01 1.493917e-01 1.685841e-01 1.851004e-01 2.052963e-01 2.216957e-01 2.419686e-01 2.576400e-01 2.774250e-01 2.919678e-01 3.108674e-01 3.239875e-01 3.416925e-01 3.531599e-01 3.694149e-01 3.790467e-01 3.936355e-01 4.012881e-01 4.140263e-01 4.195931e-01 4.303258e-01 4.337356e-01 4.423361e-01 4.435527e-01 4.499225e-01 4.489435e-01 4.530128e-01 4.498690e-01 4.515968e-01 4.463503e-01 4.457248e-01 4.384673e-01 4.355063e-01 4.263567e-01 4.211071e-01 4.102097e-01 4.027478e-01 3.902702e-01 3.807012e-01 3.668324e-01 3.552910e-01 3.402405e-01 3.268916e-01 3.108906e-01 2.959322e-01 2.792365e-01 2.629073e-01 2.458073e-01 2.284037e-01 2.112464e-01 1.931626e-01 1.764045e-01 1.582300e-01 1.425643e-01 1.253331e-01 1.119997e-01 9.779451e-02 8.916837e-02 8.192151e-02 8.122004e-02 8.447614e-02 9.174597e-02 1.035088e-01 1.151015e-01 1.312445e-01 1.443654e-01 1.623990e-01 1.757331e-01 1.944357e-01 2.073831e-01 2.261094e-01 2.383720e-01 2.567310e-01 2.681448e-01 2.858645e-01 2.963281e-01 3.131944e-01 3.226337e-01 3.384600e-01 3.468096e-01 3.614207e-01 3.686123e-01 3.818359e-01 3.877924e-01 3.994562e-01 4.040896e-01 4.140223e-01 4.172358e-01 4.252712e-01 4.269630e-01 4.329467e-01 4.330174e-01 4.368145e-01 4.351751e-01 4.366782e-01 4.332585e-01 4.323948e-01 4.271509e-01 4.238880e-01 4.168088e-01 4.111578e-01 4.022690e-01 3.942857e-01 3.836521e-01 3.734366e-01 3.611628e-01 3.488578e-01 3.350889e-01 3.208793e-01 3.058024e-01 2.899179e-01 2.737688e-01 2.564949e-01 2.395749e-01 2.212824e-01 
2.110726e-01 1.934759e-01 1.779826e-01 1.613048e-01 1.477272e-01 1.337691e-01 1.241709e-01 1.158393e-01 1.129280e-01 1.131696e-01 1.181745e-01 1.269634e-01 1.379790e-01 1.525027e-01 1.667228e-01 1.842924e-01 1.997784e-01 2.187086e-01 2.343308e-01 2.536197e-01 2.686927e-01 2.876990e-01 3.017651e-01 3.200361e-01 3.327622e-01 3.499506e-01 3.610809e-01 3.769055e-01 3.862397e-01 4.004659e-01 4.078496e-01 4.202798e-01 4.255993e-01 4.360687e-01 4.392491e-01 4.476234e-01 4.486271e-01 4.548017e-01 4.536271e-01 4.575272e-01 4.542070e-01 4.557877e-01 4.503874e-01 4.496337e-01 4.422495e-01 4.391771e-01 4.299336e-01 4.245887e-01 4.136370e-01 4.060967e-01 3.936126e-01 3.839859e-01 3.701689e-01 3.585974e-01 3.436712e-01 3.303318e-01 3.145466e-01 2.996577e-01 2.832966e-01 2.671295e-01 2.505236e-01 2.334281e-01 2.169867e-01 1.994447e-01 1.837205e-01 1.664637e-01 1.522858e-01 1.365440e-01 1.252608e-01 1.131752e-01 1.068427e-01 1.014848e-01 1.019988e-01 1.052904e-01 1.121411e-01 1.225818e-01 1.332221e-01 1.479209e-01 1.601674e-01 1.770110e-01 1.896281e-01 2.073894e-01 2.197355e-01 2.377001e-01 2.494331e-01 2.671512e-01 2.780782e-01 2.952372e-01 3.052407e-01 3.215999e-01 3.305988e-01 3.459552e-01 3.538825e-01 3.680512e-01 3.748406e-01 3.876440e-01 3.932224e-01 4.044860e-01 4.087703e-01 4.183229e-01 4.212211e-01 4.288981e-01 4.303138e-01 4.359637e-01 4.358022e-01 4.392943e-01 4.374714e-01 4.387037e-01 4.351537e-01 4.340599e-01 4.287439e-01 4.252993e-01 4.182115e-01 4.124359e-01 4.036081e-01 3.955675e-01 3.850723e-01 3.748786e-01 3.628308e-01 3.506416e-01 3.372008e-01 3.232208e-01 3.085955e-01 2.930830e-01 2.775418e-01 2.608262e-01 2.447228e-01 2.272452e-01 
2.277551e-01 2.108651e-01 1.963114e-01 1.805411e-01 1.680487e-01 1.550514e-01 1.463654e-01 1.384729e-01 1.355950e-01 1.349823e-01 1.388413e-01 1.457538e-01 1.551902e-01 1.677885e-01 1.806550e-01 1.967086e-01 2.112047e-01 2.290492e-01 2.439799e-01 2.625205e-01 2.771139e-01 2.956198e-01 3.093517e-01 3.273039e-01 3.397956e-01 3.568006e-01 3.677660e-01 3.835103e-01 3.927291e-01 4.069552e-01 4.142598e-01 4.267530e-01 4.320219e-01 4.426046e-01 4.457584e-01 4.542859e-01 4.552857e-01 4.616451e-01 4.604899e-01 4.645995e-01 4.613245e-01 4.631337e-01 4.578084e-01 4.572981e-01 4.500234e-01 4.472063e-01 4.381127e-01 4.330337e-01 4.222790e-01 4.150158e-01 4.027836e-01 3.934478e-01 3.799465e-01 3.686850e-01 3.541489e-01 3.411480e-01 3.258403e-01 3.113323e-01 2.955528e-01 2.798296e-01 2.639301e-01 2.473703e-01 2.317838e-01 2.149048e-01 2.002008e-01 1.837596e-01 1.707401e-01 1.559098e-01 1.457371e-01 1.343149e-01 1.285090e-01 1.227643e-01 1.225819e-01 1.240228e-01 1.292591e-01 1.372706e-01 1.462604e-01 1.588482e-01 1.697912e-01 1.850745e-01 1.967372e-01 2.134250e-01 2.250850e-01 2.423545e-01 2.536018e-01 2.709156e-01 2.815129e-01 2.984958e-01 3.082980e-01 3.246650e-01 3.335736e-01 3.490882e-01 3.570237e-01 3.714732e-01 3.783587e-01 3.915409e-01 3.972921e-01 4.090084e-01 4.135301e-01 4.235856e-01 4.267719e-01 4.349788e-01 4.367185e-01 4.429033e-01 4.430871e-01 4.470995e-01 4.456295e-01 4.473514e-01 4.441510e-01 4.435047e-01 4.385275e-01 4.354824e-01 4.287194e-01 4.232952e-01 4.147800e-01 4.070486e-01 3.968607e-01 3.869456e-01 3.752121e-01 3.632883e-01 3.501864e-01 3.364822e-01 3.222440e-01 3.070482e-01 2.919731e-01 2.756542e-01 2.601344e-01 2.431824e-01 
2.388863e-01 2.232754e-01 2.103096e-01 1.961587e-01 1.855164e-01 1.743459e-01 1.674900e-01 1.611382e-01 1.594603e-01 1.593694e-01 1.633352e-01 1.695749e-01 1.782923e-01 1.895767e-01 2.014518e-01 2.160921e-01 2.296418e-01 2.462127e-01 2.603353e-01 2.777970e-01 2.917201e-01 3.093296e-01 3.225033e-01 3.397132e-01 3.517315e-01 3.681207e-01 3.786747e-01 3.939069e-01 4.027596e-01 4.165588e-01 4.235309e-01 4.356685e-01 4.406309e-01 4.509174e-01 4.537872e-01 4.620688e-01 4.628060e-01 4.689617e-01 4.675670e-01 4.715085e-01 4.680206e-01 4.696915e-01 4.641851e-01 4.635616e-01 4.561441e-01 4.532357e-01 4.440455e-01 4.388953e-01 4.280991e-01 4.207857e-01 4.085777e-01 3.992162e-01 3.858178e-01 3.745633e-01 3.602250e-01 3.472777e-01 3.322835e-01 3.178979e-01 3.025752e-01 2.870773e-01 2.718144e-01 2.556325e-01 2.409091e-01 2.246290e-01 2.110659e-01 1.955236e-01 1.839509e-01 1.703582e-01 1.618579e-01 1.518624e-01 1.476185e-01 1.429778e-01 1.437069e-01 1.453558e-01 1.506479e-01 1.580186e-01 1.665321e-01 1.781070e-01 1.884004e-01 2.026438e-01 2.136485e-01 2.293975e-01 2.404341e-01 2.568853e-01 2.675441e-01 2.841438e-01 2.941796e-01 3.105306e-01 3.197927e-01 3.355911e-01 3.439797e-01 3.589751e-01 3.664132e-01 3.803835e-01 3.867988e-01 3.995355e-01 4.048498e-01 4.161509e-01 4.202752e-01 4.299438e-01 4.327788e-01 4.406270e-01 4.420674e-01 4.479232e-01 4.478654e-01 4.515818e-01 4.499332e-01 4.513976e-01 4.480871e-01 4.472291e-01 4.422161e-01 4.390145e-01 4.322964e-01 4.267820e-01 4.184002e-01 4.106580e-01 4.007012e-01 3.908699e-01 3.794774e-01 3.677504e-01 3.551154e-01 3.417438e-01 3.281206e-01 3.134233e-01 2.991419e-01 2.835275e-01 2.690210e-01 2.530318e-01 
2.584926e-01 2.434488e-01 2.312239e-01 2.176855e-01 2.077538e-01 1.970696e-01 1.906602e-01 1.843532e-01 1.825680e-01 1.818179e-01 1.850571e-01 1.900458e-01 1.976973e-01 2.075379e-01 2.183453e-01 2.316683e-01 2.443191e-01 2.598240e-01 2.732478e-01 2.899016e-01 3.032994e-01 3.203247e-01 3.331079e-01 3.499166e-01 3.616445e-01 3.777799e-01 3.881170e-01 4.032141e-01 4.119038e-01 4.256643e-01 4.325138e-01 4.446911e-01 4.495632e-01 4.599533e-01 4.627608e-01 4.711976e-01 4.718994e-01 4.782516e-01 4.768500e-01 4.810202e-01 4.775580e-01 4.794824e-01 4.740393e-01 4.736882e-01 4.663786e-01 4.637570e-01 4.547266e-01 4.498753e-01 4.392992e-01 4.322963e-01 4.203774e-01 4.113402e-01 3.983088e-01 3.873973e-01 3.735131e-01 3.609353e-01 3.464919e-01 3.325132e-01 3.178464e-01 3.028062e-01 2.883092e-01 2.726483e-01 2.587949e-01 2.431012e-01 2.304788e-01 2.155534e-01 2.048971e-01 1.918265e-01 1.840144e-01 1.741680e-01 1.700782e-01 1.648532e-01 1.649969e-01 1.652297e-01 1.693605e-01 1.748517e-01 1.820250e-01 1.917443e-01 2.008059e-01 2.134938e-01 2.234766e-01 2.380428e-01 2.482709e-01 2.638910e-01 2.739310e-01 2.900052e-01 2.995880e-01 3.156731e-01 3.246306e-01 3.403835e-01 3.486035e-01 3.637403e-01 3.711358e-01 3.854040e-01 3.918927e-01 4.050546e-01 4.105463e-01 4.223701e-01 4.267609e-01 4.370193e-01 4.401919e-01 4.486665e-01 4.504956e-01 4.569851e-01 4.573464e-01 4.616773e-01 4.604591e-01 4.624973e-01 4.596122e-01 4.592724e-01 4.546684e-01 4.519215e-01 4.455908e-01 4.404681e-01 4.324529e-01 4.250469e-01 4.154435e-01 4.059078e-01 3.948687e-01 3.834171e-01 3.711539e-01 3.580629e-01 3.448524e-01 3.304699e-01 3.166665e-01 3.014316e-01 2.874913e-01 2.719724e-01 
2.730504e-01 2.592433e-01 2.485182e-01 2.363892e-01 2.280272e-01 2.187507e-01 2.137431e-01 2.085163e-01 2.076426e-01 2.072997e-01 2.107636e-01 2.153935e-01 2.226806e-01 2.316181e-01 2.417415e-01 2.539279e-01 2.658054e-01 2.801590e-01 2.928423e-01 3.084368e-01 3.211704e-01 3.372648e-01 3.494640e-01 3.654731e-01 3.766866e-01 3.921436e-01 4.020213e-01 4.165475e-01 4.248199e-01 4.381034e-01 4.445678e-01 4.563497e-01 4.608625e-01 4.709280e-01 4.733992e-01 4.815723e-01 4.819614e-01 4.881019e-01 4.864144e-01 4.904169e-01 4.867009e-01 4.884943e-01 4.828370e-01 4.823853e-01 4.749096e-01 4.722129e-01 4.630745e-01 4.581706e-01 4.475552e-01 4.405219e-01 4.286442e-01 4.196019e-01 4.067060e-01 3.958222e-01 3.821834e-01 3.696796e-01 3.556102e-01 3.417727e-01 3.276307e-01 3.128284e-01 2.990316e-01 2.837439e-01 2.707892e-01 2.556466e-01 2.441313e-01 2.299644e-01 2.205931e-01 2.084629e-01 2.019993e-01 1.931313e-01 1.902297e-01 1.857430e-01 1.866601e-01 1.871297e-01 1.915138e-01 1.967075e-01 2.037164e-01 2.127828e-01 2.214381e-01 2.333239e-01 2.427876e-01 2.565344e-01 2.661974e-01 2.810409e-01 2.904979e-01 3.058569e-01 3.148512e-01 3.302831e-01 3.386543e-01 3.538102e-01 3.614537e-01 3.760433e-01 3.828807e-01 3.966459e-01 4.026043e-01 4.153025e-01 4.203015e-01 4.316973e-01 4.356421e-01 4.455057e-01 4.482879e-01 4.563996e-01 4.579015e-01 4.640608e-01 4.641656e-01 4.682024e-01 4.668049e-01 4.685909e-01 4.656107e-01 4.650695e-01 4.604614e-01 4.575754e-01 4.513388e-01 4.461529e-01 4.383384e-01 4.309607e-01 4.216738e-01 4.122750e-01 4.016795e-01 3.904926e-01 3.788139e-01 3.661367e-01 3.536685e-01 3.398733e-01 3.269896e-01 3.125418e-01 2.997177e-01 2.852088e-01 
2.950730e-01 2.816430e-01 2.714295e-01 2.596466e-01 2.517066e-01 2.426200e-01 2.378075e-01 2.324519e-01 2.314219e-01 2.305283e-01 2.334725e-01 2.371860e-01 2.437183e-01 2.515602e-01 2.608690e-01 2.719722e-01 2.831001e-01 2.965011e-01 3.085535e-01 3.233722e-01 3.355995e-01 3.510979e-01 3.629001e-01 3.784776e-01 3.893819e-01 4.045512e-01 4.141872e-01 4.285491e-01 4.366310e-01 4.498552e-01 4.561684e-01 4.679798e-01 4.723733e-01 4.825426e-01 4.849228e-01 4.932609e-01 4.935874e-01 4.999422e-01 4.982237e-01 5.024789e-01 4.987689e-01 5.008438e-01 4.952368e-01 4.950876e-01 4.877150e-01 4.853356e-01 4.763620e-01 4.717863e-01 4.614067e-01 4.547108e-01 4.431486e-01 4.344538e-01 4.219603e-01 4.114371e-01 3.982937e-01 3.861684e-01 3.726899e-01 3.592545e-01 3.457960e-01 3.314232e-01 3.183900e-01 3.035554e-01 2.914139e-01 2.767255e-01 2.660118e-01 2.522393e-01 2.435504e-01 2.316331e-01 2.255755e-01 2.165559e-01 2.136195e-01 2.084472e-01 2.088192e-01 2.080548e-01 2.114857e-01 2.150948e-01 2.209562e-01 2.283743e-01 2.358810e-01 2.462789e-01 2.547041e-01 2.672376e-01 2.760164e-01 2.899551e-01 2.986935e-01 3.134492e-01 3.218899e-01 3.369970e-01 3.449767e-01 3.600590e-01 3.674702e-01 3.822084e-01 3.889685e-01 4.030743e-01 4.091029e-01 4.223015e-01 4.275058e-01 4.395262e-01 4.437935e-01 4.543677e-01 4.575661e-01 4.664346e-01 4.684195e-01 4.753426e-01 4.759679e-01 4.807402e-01 4.798733e-01 4.823373e-01 4.798741e-01 4.799331e-01 4.758113e-01 4.734375e-01 4.676477e-01 4.628862e-01 4.554783e-01 4.484473e-01 4.395345e-01 4.304225e-01 4.201829e-01 4.092463e-01 3.979241e-01 3.854877e-01 3.733969e-01 3.598596e-01 3.473929e-01 3.332419e-01 3.208851e-01 3.067215e-01 
3.126460e-01 3.003617e-01 2.915241e-01 2.809513e-01 2.743562e-01 2.663915e-01 2.627219e-01 2.581899e-01 2.579192e-01 2.573638e-01 2.605852e-01 2.640962e-01 2.704678e-01 2.776688e-01 2.865224e-01 2.967257e-01 3.072562e-01 3.196618e-01 3.310819e-01 3.449186e-01 3.565353e-01 3.711237e-01 3.823586e-01 3.971233e-01 4.075059e-01 4.219661e-01 4.311202e-01 4.448743e-01 4.525058e-01 4.652170e-01 4.711046e-01 4.824897e-01 4.864780e-01 4.962993e-01 4.982940e-01 5.063534e-01 5.063168e-01 5.124531e-01 5.103993e-01 5.144873e-01 5.104778e-01 5.124282e-01 5.065674e-01 5.063280e-01 4.987583e-01 4.963165e-01 4.872141e-01 4.825990e-01 4.721709e-01 4.654564e-01 4.539383e-01 4.452471e-01 4.329032e-01 4.224121e-01 4.095370e-01 3.974838e-01 3.844063e-01 3.711006e-01 3.581900e-01 3.440280e-01 3.317014e-01 3.171860e-01 3.059139e-01 2.916767e-01 2.819809e-01 2.687976e-01 2.612265e-01 2.499993e-01 2.450611e-01 2.367299e-01 2.347724e-01 2.301297e-01 2.312011e-01 2.306655e-01 2.344484e-01 2.379404e-01 2.438334e-01 2.508496e-01 2.581473e-01 2.679655e-01 2.760214e-01 2.878930e-01 2.962001e-01 3.094576e-01 3.176584e-01 3.317485e-01 3.396097e-01 3.540836e-01 3.614602e-01 3.759488e-01 3.827495e-01 3.969359e-01 4.030935e-01 4.166892e-01 4.221385e-01 4.348666e-01 4.395289e-01 4.511159e-01 4.548916e-01 4.650664e-01 4.678353e-01 4.763369e-01 4.779647e-01 4.845539e-01 4.849044e-01 4.893792e-01 4.883287e-01 4.905392e-01 4.879921e-01 4.878525e-01 4.837549e-01 4.812518e-01 4.756019e-01 4.707968e-01 4.636524e-01 4.566809e-01 4.481631e-01 4.392315e-01 4.295262e-01 4.189087e-01 4.082682e-01 3.963062e-01 3.850526e-01 3.721596e-01 3.606909e-01 3.473638e-01 3.361635e-01 3.230000e-01 
3.368159e-01 3.247212e-01 3.161866e-01 3.057508e-01 2.993691e-01 2.914086e-01 2.877865e-01 2.830399e-01 2.825935e-01 2.815586e-01 2.843819e-01 2.871787e-01 2.929950e-01 2.993431e-01 3.075793e-01 3.169043e-01 3.268365e-01 3.384277e-01 3.493159e-01 3.624535e-01 3.736218e-01 3.876476e-01 3.985151e-01 4.128560e-01 4.229407e-01 4.371087e-01 4.460207e-01 4.596031e-01 4.670355e-01 4.796832e-01 4.854049e-01 4.968217e-01 5.006716e-01 5.106066e-01 5.124882e-01 5.207304e-01 5.206075e-01 5.269824e-01 5.248742e-01 5.292437e-01 5.252194e-01 5.274824e-01 5.216558e-01 5.217500e-01 5.142738e-01 5.121783e-01 5.032395e-01 4.989776e-01 4.887928e-01 4.824354e-01 4.712483e-01 4.629171e-01 4.509969e-01 4.408694e-01 4.285115e-01 4.168271e-01 4.043553e-01 3.914236e-01 3.791931e-01 3.654056e-01 3.538065e-01 3.396503e-01 3.291075e-01 3.151793e-01 3.061440e-01 2.931547e-01 2.860780e-01 2.748306e-01 2.701087e-01 2.614263e-01 2.593156e-01 2.539068e-01 2.544333e-01 2.527291e-01 2.556468e-01 2.576956e-01 2.625358e-01 2.680241e-01 2.742168e-01 2.825980e-01 2.895964e-01 3.002409e-01 3.075985e-01 3.199013e-01 3.272945e-01 3.407247e-01 3.479402e-01 3.620488e-01 3.689549e-01 3.833599e-01 3.898744e-01 4.042377e-01 4.102973e-01 4.243029e-01 4.298390e-01 4.431755e-01 4.480976e-01 4.604495e-01 4.646363e-01 4.756847e-01 4.789853e-01 4.884171e-01 4.906599e-01 4.981837e-01 4.991916e-01 5.045571e-01 5.041670e-01 5.071847e-01 5.052665e-01 5.058231e-01 5.022979e-01 5.003664e-01 4.952187e-01 4.908610e-01 4.841466e-01 4.775117e-01 4.693602e-01 4.606771e-01 4.512911e-01 4.408626e-01 4.305157e-01 4.187130e-01 4.077489e-01 3.950124e-01 3.838459e-01 3.706910e-01 3.598123e-01 3.468398e-01 
3.572020e-01 3.461558e-01 3.388787e-01 3.294916e-01 3.242871e-01 3.172540e-01 3.146093e-01 3.105290e-01 3.107511e-01 3.100095e-01 3.131381e-01 3.158199e-01 3.216026e-01 3.274807e-01 3.354282e-01 3.440367e-01 3.535257e-01 3.642699e-01 3.746436e-01 3.868974e-01 3.975337e-01 4.107011e-01 4.210468e-01 4.345915e-01 4.441743e-01 4.576269e-01 4.660567e-01 4.790124e-01 4.859785e-01 4.980893e-01 5.033568e-01 5.143244e-01 5.177303e-01 5.272988e-01 5.287486e-01 5.366998e-01 5.361626e-01 5.423139e-01 5.398175e-01 5.440211e-01 5.396459e-01 5.417906e-01 5.356633e-01 5.356766e-01 5.279639e-01 5.258159e-01 5.167181e-01 5.124250e-01 5.021717e-01 4.957998e-01 4.846466e-01 4.763171e-01 4.645440e-01 4.544384e-01 4.423507e-01 4.307173e-01 4.186471e-01 4.058097e-01 3.941185e-01 3.804868e-01 3.695659e-01 3.556465e-01 3.459129e-01 3.323166e-01 3.241974e-01 3.116335e-01 3.055321e-01 2.947736e-01 2.910111e-01 2.828143e-01 2.815537e-01 2.765343e-01 2.777151e-01 2.762177e-01 2.795430e-01 2.815725e-01 2.865705e-01 2.918253e-01 2.979567e-01 3.059384e-01 3.126996e-01 3.228366e-01 3.298216e-01 3.415588e-01 3.484775e-01 3.613208e-01 3.679877e-01 3.815132e-01 3.878213e-01 4.016632e-01 4.075530e-01 4.213836e-01 4.268134e-01 4.403218e-01 4.452435e-01 4.581194e-01 4.624606e-01 4.743867e-01 4.780431e-01 4.886971e-01 4.915329e-01 5.005991e-01 5.024564e-01 5.096433e-01 5.103580e-01 5.154200e-01 5.148408e-01 5.175980e-01 5.156061e-01 5.159598e-01 5.124859e-01 5.104270e-01 5.054638e-01 5.010742e-01 4.946838e-01 4.881317e-01 4.804483e-01 4.719803e-01 4.632091e-01 4.531421e-01 4.435572e-01 4.322726e-01 4.222150e-01 4.101568e-01 4.000333e-01 3.877108e-01 3.779927e-01 3.659846e-01 
3.834149e-01 3.723879e-01 3.652331e-01 3.558221e-01 3.506765e-01 3.435265e-01 3.408350e-01 3.364961e-01 3.365367e-01 3.353704e-01 3.381841e-01 3.402900e-01 3.456583e-01 3.508606e-01 3.583463e-01 3.662465e-01 3.752760e-01 3.853411e-01 3.952922e-01 4.069409e-01 4.172080e-01 4.298709e-01 4.399033e-01 4.530562e-01 4.623758e-01 4.755526e-01 4.837598e-01 4.965531e-01 5.033277e-01 5.153838e-01 5.204833e-01 5.314953e-01 5.347524e-01 5.444536e-01 5.457733e-01 5.539327e-01 5.532877e-01 5.597083e-01 5.571335e-01 5.616526e-01 5.572386e-01 5.597303e-01 5.536161e-01 5.539950e-01 5.463601e-01 5.445857e-01 5.356427e-01 5.317235e-01 5.217124e-01 5.157098e-01 5.048932e-01 4.969260e-01 4.855860e-01 4.758345e-01 4.642722e-01 4.529833e-01 4.415178e-01 4.290110e-01 4.179803e-01 4.046541e-01 3.944124e-01 3.807509e-01 3.716615e-01 3.582359e-01 3.506555e-01 3.381147e-01 3.323636e-01 3.214033e-01 3.177218e-01 3.090219e-01 3.075180e-01 3.016505e-01 3.022592e-01 2.995906e-01 3.020682e-01 3.026984e-01 3.066656e-01 3.104332e-01 3.154528e-01 3.220031e-01 3.276594e-01 3.365363e-01 3.424905e-01 3.532169e-01 3.592285e-01 3.713550e-01 3.772765e-01 3.903995e-01 3.961542e-01 4.099110e-01 4.154626e-01 4.295152e-01 4.348364e-01 4.488507e-01 4.538961e-01 4.675259e-01 4.722121e-01 4.850908e-01 4.892870e-01 5.010317e-01 5.045615e-01 5.147877e-01 5.174414e-01 5.257869e-01 5.273427e-01 5.334959e-01 5.337455e-01 5.374719e-01 5.362474e-01 5.374107e-01 5.346066e-01 5.331801e-01 5.287696e-01 5.248372e-01 5.188799e-01 5.126288e-01 5.052709e-01 4.969788e-01 4.884483e-01 4.784692e-01 4.690682e-01 4.578209e-01 4.479180e-01 4.358781e-01 4.259017e-01 4.135993e-01 4.040311e-01 3.920500e-01 
4.065731e-01 3.965044e-01 3.905028e-01 3.820133e-01 3.779176e-01 3.715574e-01 3.697295e-01 3.659526e-01 3.666022e-01 3.656984e-01 3.688357e-01 3.708813e-01 3.763037e-01 3.811540e-01 3.884773e-01 3.958026e-01 4.045210e-01 4.138702e-01 4.234231e-01 4.342890e-01 4.441155e-01 4.559862e-01 4.655617e-01 4.779531e-01 4.868112e-01 4.992828e-01 5.070266e-01 5.191871e-01 5.254948e-01 5.369994e-01 5.416269e-01 5.521725e-01 5.549533e-01 5.642730e-01 5.651165e-01 5.729754e-01 5.718629e-01 5.780567e-01 5.750358e-01 5.793916e-01 5.745684e-01 5.769488e-01 5.704789e-01 5.707861e-01 5.628661e-01 5.610476e-01 5.519060e-01 5.479600e-01 5.378503e-01 5.318314e-01 5.210270e-01 5.130506e-01 5.018421e-01 4.920901e-01 4.807838e-01 4.695097e-01 4.584278e-01 4.459625e-01 4.354419e-01 4.221988e-01 4.125878e-01 3.990663e-01 3.907144e-01 3.774963e-01 3.707343e-01 3.584683e-01 3.535758e-01 3.429384e-01 3.400997e-01 3.317300e-01 3.309887e-01 3.254020e-01 3.266328e-01 3.241390e-01 3.270560e-01 3.277167e-01 3.319234e-01 3.355671e-01 3.406310e-01 3.469176e-01 3.524414e-01 3.609442e-01 3.666136e-01 3.768888e-01 3.824899e-01 3.941199e-01 3.995326e-01 4.121410e-01 4.173164e-01 4.305628e-01 4.354918e-01 4.490542e-01 4.537357e-01 4.672896e-01 4.717023e-01 4.849045e-01 4.889866e-01 5.014681e-01 5.051082e-01 5.164807e-01 5.195202e-01 5.293941e-01 5.316404e-01 5.396526e-01 5.409005e-01 5.467447e-01 5.468020e-01 5.502570e-01 5.489702e-01 5.499193e-01 5.471950e-01 5.456352e-01 5.414547e-01 5.374941e-01 5.319210e-01 5.257681e-01 5.189483e-01 5.108974e-01 5.030542e-01 4.934690e-01 4.848962e-01 4.741973e-01 4.652506e-01 4.539065e-01 4.449946e-01 4.335165e-01 4.250918e-01 4.140293e-01 
4.348227e-01 4.246198e-01 4.185821e-01 4.099422e-01 4.057861e-01 3.992273e-01 3.972893e-01 3.932344e-01 3.937066e-01 3.924277e-01 3.953177e-01 3.968955e-01 4.020159e-01 4.063311e-01 4.133240e-01 4.200855e-01 4.284730e-01 4.372701e-01 4.465131e-01 4.568732e-01 4.664222e-01 4.778587e-01 4.871920e-01 4.992376e-01 5.078847e-01 5.201096e-01 5.276666e-01 5.396845e-01 5.458221e-01 5.572895e-01 5.617573e-01 5.723678e-01 5.749965e-01 5.844753e-01 5.851754e-01 5.932751e-01 5.920335e-01 5.985340e-01 5.954080e-01 6.001186e-01 5.952277e-01 5.979928e-01 5.915082e-01 5.922138e-01 5.843479e-01 5.829282e-01 5.739243e-01 5.703678e-01 5.604907e-01 5.548457e-01 5.443753e-01 5.367538e-01 5.259798e-01 5.165617e-01 5.057812e-01 4.948168e-01 4.843322e-01 4.721450e-01 4.622620e-01 4.492506e-01 4.402730e-01 4.269105e-01 4.191302e-01 4.059583e-01 3.996382e-01 3.872510e-01 3.825993e-01 3.716116e-01 3.687506e-01 3.597478e-01 3.586842e-01 3.521578e-01 3.527673e-01 3.490522e-01 3.510901e-01 3.503251e-01 3.534654e-01 3.555932e-01 3.594861e-01 3.642917e-01 3.686205e-01 3.757902e-01 3.803126e-01 3.894920e-01 3.940571e-01 4.048923e-01 4.094358e-01 4.215913e-01 4.261130e-01 4.392702e-01 4.438013e-01 4.576413e-01 4.622089e-01 4.763916e-01 4.809856e-01 4.951309e-01 4.996800e-01 5.133610e-01 5.177210e-01 5.304716e-01 5.344293e-01 5.457682e-01 5.490585e-01 5.585252e-01 5.608609e-01 5.680574e-01 5.691644e-01 5.737938e-01 5.734480e-01 5.753423e-01 5.733995e-01 5.725332e-01 5.689489e-01 5.654361e-01 5.602731e-01 5.543518e-01 5.477764e-01 5.397859e-01 5.320565e-01 5.224124e-01 5.138638e-01 5.030372e-01 4.940651e-01 4.825662e-01 4.736116e-01 4.619801e-01 4.535152e-01 4.423119e-01 