# vtk DataFile Version 2.0
Comment goes here
ASCII

DATASET STRUCTURED_POINTS
FIELD FieldData 1
TIME 1 1 double
0.23000000
DIMENSIONS    128   128   1

ORIGIN    0.000   0.000   0.000
SPACING   0.039062 0.039062   1.000

POINT_DATA   16384
SCALARS uMag double
LOOKUP_TABLE default

7.107224e-02 5.964055e-02 4.728150e-02 3.537106e-02 2.258771e-02 1.038772e-02 2.620742e-03 1.490879e-02 2.793271e-02 4.009941e-02 5.292336e-02 6.475650e-02 7.716462e-02 8.845503e-02 1.002371e-01 1.107849e-01 1.217427e-01 1.313641e-01 1.413180e-01 1.498511e-01 1.586462e-01 1.659576e-01 1.734693e-01 1.794585e-01 1.855964e-01 1.901992e-01 1.949103e-01 1.981005e-01 2.013698e-01 2.031592e-01 2.050086e-01 2.054444e-01 2.059298e-01 2.050912e-01 2.042983e-01 2.022910e-01 2.003293e-01 1.972790e-01 1.942754e-01 1.903213e-01 1.864131e-01 1.817009e-01 1.770294e-01 1.717046e-01 1.664085e-01 1.606106e-01 1.548204e-01 1.486780e-01 1.425122e-01 1.361391e-01 1.297005e-01 1.231933e-01 1.165669e-01 1.100034e-01 1.032559e-01 9.669494e-02 8.987467e-02 8.335678e-02 7.649520e-02 7.004414e-02 6.315775e-02 5.678280e-02 4.987575e-02 4.357437e-02 3.664163e-02 3.040241e-02 2.343299e-02 1.723873e-02 1.021904e-02 4.049783e-03 3.033244e-03 9.197406e-03 1.635337e-02 2.252973e-02 2.976230e-02 3.596326e-02 4.326815e-02 4.949933e-02 5.686269e-02 6.312125e-02 7.051858e-02 7.679189e-02 8.418732e-02 9.045179e-02 9.779771e-02 1.040179e-01 1.112549e-01 1.173830e-01 1.244402e-01 1.304154e-01 1.372108e-01 1.429599e-01 1.494016e-01 1.548393e-01 1.608267e-01 1.658571e-01 1.712831e-01 1.758019e-01 1.805549e-01 1.844522e-01 1.884195e-01 1.915833e-01 1.946544e-01 1.969746e-01 1.990449e-01 2.004175e-01 2.013923e-01 2.017238e-01 2.015218e-01 2.007333e-01 1.992902e-01 1.973208e-01 1.945921e-01 1.914021e-01 1.873656e-01 1.829386e-01 1.775959e-01 1.719402e-01 1.653180e-01 1.584678e-01 1.506177e-01 1.426330e-01 1.336323e-01 1.245983e-01 1.145486e-01 1.045752e-01 9.360182e-02 8.282214e-02 
7.201162e-02 6.078669e-02 4.875586e-02 3.737824e-02 2.570362e-02 1.623452e-02 1.295678e-02 1.972637e-02 3.087600e-02 4.227795e-02 5.465682e-02 6.623133e-02 7.845514e-02 8.962081e-02 1.013069e-01 1.117829e-01 1.226844e-01 1.322595e-01 1.421775e-01 1.506781e-01 1.594489e-01 1.667355e-01 1.742292e-01 1.801979e-01 1.863213e-01 1.909058e-01 1.956038e-01 1.987767e-01 2.020329e-01 2.038052e-01 2.056406e-01 2.060591e-01 2.065289e-01 2.056726e-01 2.048622e-01 2.028366e-01 2.008553e-01 1.977863e-01 1.947611e-01 1.907881e-01 1.868565e-01 1.821255e-01 1.774290e-01 1.720858e-01 1.667636e-01 1.609481e-01 1.551316e-01 1.489727e-01 1.427810e-01 1.363933e-01 1.299300e-01 1.234106e-01 1.167619e-01 1.101894e-01 1.034234e-01 9.685768e-02 9.002450e-02 8.350783e-02 7.664154e-02 7.020054e-02 6.332206e-02 5.697146e-02 5.009384e-02 4.384328e-02 3.698333e-02 3.085551e-02 2.407527e-02 1.819476e-02 1.191463e-02 7.610871e-03 7.420637e-03 1.161708e-02 1.796159e-02 2.382532e-02 3.083759e-02 3.692731e-02 4.413168e-02 5.030763e-02 5.761221e-02 6.383765e-02 7.119495e-02 7.744548e-02 8.481065e-02 9.105764e-02 9.837897e-02 1.045846e-01 1.118006e-01 1.179156e-01 1.249544e-01 1.309176e-01 1.376966e-01 1.434342e-01 1.498613e-01 1.552879e-01 1.612625e-01 1.662822e-01 1.716969e-01 1.762055e-01 1.809488e-01 1.848365e-01 1.887957e-01 1.919506e-01 1.950152e-01 1.973273e-01 1.993927e-01 2.007582e-01 2.017298e-01 2.020555e-01 2.018520e-01 2.010593e-01 1.996166e-01 1.976450e-01 1.949190e-01 1.917294e-01 1.876984e-01 1.832751e-01 1.779414e-01 1.722940e-01 1.656855e-01 1.588499e-01 1.510206e-01 1.430594e-01 1.340901e-01 1.250936e-01 1.150929e-01 1.051803e-01 9.428785e-02 8.361327e-02 
7.537550e-02 6.473890e-02 5.357717e-02 4.346803e-02 3.390181e-02 2.738622e-02 2.549296e-02 2.946112e-02 3.777795e-02 4.751096e-02 5.875271e-02 6.961656e-02 8.129873e-02 9.209204e-02 1.034714e-01 1.137227e-01 1.244300e-01 1.338560e-01 1.436415e-01 1.520363e-01 1.607111e-01 1.679183e-01 1.753392e-01 1.812455e-01 1.873115e-01 1.918449e-01 1.964960e-01 1.996258e-01 2.028427e-01 2.045776e-01 2.063793e-01 2.067651e-01 2.072062e-01 2.063212e-01 2.054864e-01 2.034361e-01 2.014349e-01 1.983455e-01 1.953050e-01 1.913162e-01 1.873745e-01 1.826328e-01 1.779320e-01 1.725839e-01 1.672638e-01 1.614499e-01 1.556424e-01 1.494928e-01 1.433178e-01 1.369476e-01 1.305096e-01 1.240173e-01 1.174035e-01 1.108694e-01 1.041496e-01 9.763594e-02 9.086307e-02 8.441603e-02 7.762940e-02 7.128262e-02 6.451330e-02 5.829527e-02 5.157801e-02 4.552853e-02 3.893241e-02 3.315159e-02 2.688890e-02 2.174107e-02 1.671010e-02 1.388093e-02 1.359824e-02 1.617512e-02 2.107474e-02 2.618205e-02 3.261566e-02 3.837287e-02 4.529838e-02 5.129490e-02 5.844554e-02 6.456128e-02 7.182855e-02 7.800745e-02 8.532031e-02 9.151955e-02 9.881310e-02 1.049876e-01 1.121929e-01 1.182896e-01 1.253300e-01 1.312851e-01 1.380748e-01 1.438132e-01 1.502578e-01 1.556928e-01 1.616898e-01 1.667248e-01 1.721656e-01 1.766953e-01 1.814674e-01 1.853813e-01 1.893711e-01 1.925566e-01 1.956531e-01 1.979996e-01 2.000981e-01 2.015015e-01 2.025073e-01 2.028741e-01 2.027066e-01 2.019585e-01 2.005543e-01 1.986314e-01 1.959478e-01 1.928122e-01 1.888293e-01 1.844674e-01 1.791908e-01 1.736153e-01 1.670769e-01 1.603286e-01 1.525891e-01 1.447388e-01 1.358901e-01 1.270418e-01 1.172123e-01 1.075116e-01 9.688005e-02 8.653646e-02 
8.033666e-02 7.050777e-02 6.045957e-02 5.179102e-02 4.413191e-02 3.945446e-02 3.825006e-02 4.110793e-02 4.750614e-02 5.564127e-02 6.557074e-02 7.551899e-02 8.646460e-02 9.672721e-02 1.076664e-01 1.175842e-01 1.280091e-01 1.372095e-01 1.468025e-01 1.550346e-01 1.635711e-01 1.706538e-01 1.779699e-01 1.837753e-01 1.897571e-01 1.942045e-01 1.987837e-01 2.018366e-01 2.049885e-01 2.066523e-01 2.083926e-01 2.087109e-01 2.090920e-01 2.081424e-01 2.072479e-01 2.051358e-01 2.030749e-01 1.999267e-01 1.968270e-01 1.927834e-01 1.887838e-01 1.839924e-01 1.792362e-01 1.738450e-01 1.684735e-01 1.626247e-01 1.567719e-01 1.505970e-01 1.443850e-01 1.380014e-01 1.315374e-01 1.250458e-01 1.184202e-01 1.119040e-01 1.051907e-01 9.871653e-02 9.197445e-02 8.559512e-02 7.887297e-02 7.263324e-02 6.597850e-02 5.992721e-02 5.340609e-02 4.762374e-02 4.137159e-02 3.604545e-02 3.041872e-02 2.607931e-02 2.213075e-02 2.022255e-02 2.012769e-02 2.208981e-02 2.598379e-02 3.037912e-02 3.614655e-02 4.149498e-02 4.803575e-02 5.378997e-02 6.070414e-02 6.666406e-02 7.377699e-02 7.984881e-02 8.705694e-02 9.317909e-02 1.004002e-01 1.065178e-01 1.136732e-01 1.197274e-01 1.267343e-01 1.326584e-01 1.394272e-01 1.451439e-01 1.515776e-01 1.569993e-01 1.629934e-01 1.680223e-01 1.734670e-01 1.779974e-01 1.827790e-01 1.866996e-01 1.907039e-01 1.939019e-01 1.970174e-01 1.993817e-01 2.015035e-01 2.029301e-01 2.039636e-01 2.043595e-01 2.042247e-01 2.035122e-01 2.021470e-01 2.002678e-01 1.976314e-01 1.945498e-01 1.906252e-01 1.863311e-01 1.811281e-01 1.756392e-01 1.691964e-01 1.625614e-01 1.549495e-01 1.472517e-01 1.385791e-01 1.299432e-01 1.203672e-01 1.109764e-01 1.007305e-01 9.086792e-02 
8.724322e-02 7.831676e-02 6.939745e-02 6.201428e-02 5.575368e-02 5.214084e-02 5.120340e-02 5.337020e-02 5.841020e-02 6.518815e-02 7.382017e-02 8.276796e-02 9.284350e-02 1.024511e-01 1.128200e-01 1.222990e-01 1.323363e-01 1.412289e-01 1.505471e-01 1.585526e-01 1.668858e-01 1.737938e-01 1.809531e-01 1.866178e-01 1.924735e-01 1.968028e-01 2.012766e-01 2.042269e-01 2.072874e-01 2.088596e-01 2.105185e-01 2.107539e-01 2.110613e-01 2.100362e-01 2.090748e-01 2.068944e-01 2.047733e-01 2.015648e-01 1.984122e-01 1.943172e-01 1.902731e-01 1.854407e-01 1.806498e-01 1.752295e-01 1.698350e-01 1.639708e-01 1.581085e-01 1.519340e-01 1.457279e-01 1.393627e-01 1.329223e-01 1.264699e-01 1.198886e-01 1.134356e-01 1.067912e-01 1.004091e-01 9.376644e-02 8.751528e-02 8.093255e-02 7.486878e-02 6.840995e-02 6.260239e-02 5.636289e-02 5.092642e-02 4.509205e-02 4.026635e-02 3.525474e-02 3.158196e-02 2.831796e-02 2.683225e-02 2.665700e-02 2.813456e-02 3.119660e-02 3.490688e-02 3.996512e-02 4.482933e-02 5.090658e-02 5.634376e-02 6.296248e-02 6.870969e-02 7.563347e-02 8.155841e-02 8.864700e-02 9.466655e-02 1.018161e-01 1.078631e-01 1.149813e-01 1.209898e-01 1.279850e-01 1.338839e-01 1.406604e-01 1.463695e-01 1.528256e-01 1.582551e-01 1.642831e-01 1.693335e-01 1.748208e-01 1.793847e-01 1.842156e-01 1.881805e-01 1.922392e-01 1.954907e-01 1.986647e-01 2.010909e-01 2.032747e-01 2.047708e-01 2.058703e-01 2.063430e-01 2.062789e-01 2.056514e-01 2.043634e-01 2.025788e-01 2.000289e-01 1.970544e-01 1.932300e-01 1.890597e-01 1.839763e-01 1.786348e-01 1.723399e-01 1.658856e-01 1.584629e-01 1.509945e-01 1.425727e-01 1.342396e-01 1.250093e-01 1.160360e-01 1.062876e-01 9.702787e-02 
9.523570e-02 8.720460e-02 7.933239e-02 7.304662e-02 6.786564e-02 6.502533e-02 6.434170e-02 6.617275e-02 7.037171e-02 7.617258e-02 8.374824e-02 9.179775e-02 1.010402e-01 1.099831e-01 1.197578e-01 1.287607e-01 1.383768e-01 1.469218e-01 1.559346e-01 1.636771e-01 1.717813e-01 1.784816e-01 1.854619e-01 1.909548e-01 1.966637e-01 2.008442e-01 2.051912e-01 2.080074e-01 2.109530e-01 2.124006e-01 2.139511e-01 2.140684e-01 2.142706e-01 2.131328e-01 2.120680e-01 2.097802e-01 2.075572e-01 2.042476e-01 2.009953e-01 1.968070e-01 1.926672e-01 1.877513e-01 1.828710e-01 1.773793e-01 1.719043e-01 1.659836e-01 1.600527e-01 1.538395e-01 1.475805e-01 1.411975e-01 1.347239e-01 1.282784e-01 1.216883e-01 1.152715e-01 1.086487e-01 1.023381e-01 9.575547e-02 8.961964e-02 8.314712e-02 7.725540e-02 7.097493e-02 6.541603e-02 5.945106e-02 5.436905e-02 4.894382e-02 4.460840e-02 4.015995e-02 3.707613e-02 3.437764e-02 3.328338e-02 3.319968e-02 3.451734e-02 3.712187e-02 4.039571e-02 4.490738e-02 4.937463e-02 5.502049e-02 6.016099e-02 6.647038e-02 7.200225e-02 7.870862e-02 8.447561e-02 9.141250e-02 9.731466e-02 1.043600e-01 1.103195e-01 1.173687e-01 1.233132e-01 1.302663e-01 1.361204e-01 1.428760e-01 1.485570e-01 1.550091e-01 1.604255e-01 1.664632e-01 1.715142e-01 1.770224e-01 1.815994e-01 1.864606e-01 1.904499e-01 1.945469e-01 1.978331e-01 2.010524e-01 2.035230e-01 2.057588e-01 2.073087e-01 2.084670e-01 2.090034e-01 2.090060e-01 2.084531e-01 2.072419e-01 2.055451e-01 2.030853e-01 2.002154e-01 1.964990e-01 1.924557e-01 1.875052e-01 1.823208e-01 1.761936e-01 1.699380e-01 1.627324e-01 1.555212e-01 1.473879e-01 1.393966e-01 1.305598e-01 1.220524e-01 1.128542e-01 1.042429e-01 
1.046980e-01 9.750374e-02 9.053533e-02 8.512760e-02 8.072170e-02 7.838482e-02 7.780974e-02 7.935399e-02 8.287820e-02 8.786848e-02 9.450326e-02 1.017061e-01 1.101136e-01 1.183647e-01 1.274915e-01 1.359655e-01 1.450945e-01 1.532366e-01 1.618812e-01 1.693105e-01 1.771301e-01 1.835792e-01 1.903328e-01 1.956168e-01 2.011385e-01 2.051392e-01 2.093258e-01 2.119823e-01 2.147857e-01 2.160881e-01 2.175091e-01 2.174926e-01 2.175750e-01 2.163134e-01 2.151371e-01 2.127357e-01 2.104098e-01 2.069977e-01 2.036521e-01 1.993744e-01 1.951527e-01 1.901625e-01 1.852141e-01 1.796659e-01 1.741392e-01 1.681824e-01 1.622192e-01 1.559932e-01 1.497244e-01 1.433551e-01 1.368976e-01 1.304957e-01 1.239515e-01 1.176124e-01 1.110700e-01 1.048764e-01 9.841515e-02 9.244249e-02 8.614120e-02 8.046841e-02 7.442145e-02 6.914942e-02 6.349569e-02 5.877972e-02 5.375294e-02 4.985428e-02 4.585612e-02 4.319394e-02 4.082774e-02 3.991541e-02 3.976850e-02 4.087047e-02 4.302575e-02 4.586997e-02 4.984212e-02 5.389068e-02 5.908348e-02 6.388966e-02 6.986360e-02 7.514360e-02 8.161516e-02 8.719560e-02 9.397563e-02 9.974146e-02 1.066893e-01 1.125520e-01 1.195492e-01 1.254296e-01 1.323659e-01 1.381839e-01 1.449501e-01 1.506200e-01 1.571043e-01 1.625319e-01 1.686188e-01 1.737011e-01 1.792717e-01 1.838981e-01 1.888318e-01 1.928864e-01 1.970638e-01 2.004294e-01 2.037354e-01 2.062977e-01 2.086258e-01 2.102786e-01 2.115350e-01 2.121851e-01 2.122930e-01 2.118656e-01 2.107693e-01 2.092120e-01 2.068805e-01 2.041679e-01 2.005992e-01 1.967368e-01 1.919613e-01 1.869899e-01 1.810759e-01 1.750775e-01 1.681386e-01 1.612459e-01 1.534541e-01 1.458663e-01 1.374756e-01 1.294889e-01 1.208791e-01 1.129416e-01 
1.148794e-01 1.084523e-01 1.022812e-01 9.762165e-02 9.386017e-02 9.195570e-02 9.153000e-02 9.294068e-02 9.603728e-02 1.004602e-01 1.063840e-01 1.129019e-01 1.206006e-01 1.282331e-01 1.367657e-01 1.447339e-01 1.533940e-01 1.611327e-01 1.694116e-01 1.765161e-01 1.840467e-01 1.902273e-01 1.967458e-01 2.017999e-01 2.071225e-01 2.109188e-01 2.149292e-01 2.173977e-01 2.200384e-01 2.211635e-01 2.224291e-01 2.222429e-01 2.221734e-01 2.207486e-01 2.194224e-01 2.168647e-01 2.143909e-01 2.108311e-01 2.073412e-01 2.029266e-01 1.985665e-01 1.934535e-01 1.883758e-01 1.827222e-01 1.770792e-01 1.710379e-01 1.649758e-01 1.586901e-01 1.523444e-01 1.459444e-01 1.394371e-01 1.330379e-01 1.264767e-01 1.201788e-01 1.136586e-01 1.075506e-01 1.011587e-01 9.532347e-02 8.914815e-02 8.367375e-02 7.782140e-02 7.281879e-02 6.744045e-02 6.307105e-02 5.840276e-02 5.491308e-02 5.131869e-02 4.905512e-02 4.701218e-02 4.633797e-02 4.625564e-02 4.732571e-02 4.925674e-02 5.187228e-02 5.548410e-02 5.924921e-02 6.408589e-02 6.863266e-02 7.431128e-02 7.937730e-02 8.562266e-02 9.103309e-02 9.764820e-02 1.032814e-01 1.101148e-01 1.158762e-01 1.227999e-01 1.286056e-01 1.355017e-01 1.412690e-01 1.480219e-01 1.536629e-01 1.601561e-01 1.655753e-01 1.716892e-01 1.767822e-01 1.823948e-01 1.870495e-01 1.920376e-01 1.961366e-01 2.003787e-01 2.038033e-01 2.071829e-01 2.098177e-01 2.122278e-01 2.139658e-01 2.153128e-01 2.160613e-01 2.162698e-01 2.159550e-01 2.149719e-01 2.135443e-01 2.113429e-01 2.087815e-01 2.053656e-01 2.016822e-01 1.970906e-01 1.923349e-01 1.866469e-01 1.809133e-01 1.742574e-01 1.676945e-01 1.602625e-01 1.530908e-01 1.451613e-01 1.377012e-01 1.296799e-01 1.223985e-01 
1.262645e-01 1.205230e-01 1.150219e-01 1.109669e-01 1.076866e-01 1.060878e-01 1.057287e-01 1.069964e-01 1.097046e-01 1.136269e-01 1.189035e-01 1.247853e-01 1.317974e-01 1.388175e-01 1.467379e-01 1.541778e-01 1.623296e-01 1.696296e-01 1.774957e-01 1.842368e-01 1.914310e-01 1.973057e-01 2.035446e-01 2.083346e-01 2.134182e-01 2.169798e-01 2.207792e-01 2.230339e-01 2.254827e-01 2.264093e-01 2.274963e-01 2.271239e-01 2.268860e-01 2.252865e-01 2.238010e-01 2.210808e-01 2.184572e-01 2.147489e-01 2.111204e-01 2.065741e-01 2.020894e-01 1.968642e-01 1.916792e-01 1.859362e-01 1.802068e-01 1.741025e-01 1.679787e-01 1.616598e-01 1.552810e-01 1.488811e-01 1.423734e-01 1.360113e-01 1.294863e-01 1.232663e-01 1.168236e-01 1.108384e-01 1.045696e-01 9.890622e-02 9.290486e-02 8.765508e-02 8.203155e-02 7.730708e-02 7.221148e-02 6.816496e-02 6.381625e-02 6.066140e-02 5.736900e-02 5.537708e-02 5.351238e-02 5.294172e-02 5.280778e-02 5.376319e-02 5.541940e-02 5.776782e-02 6.099967e-02 6.445292e-02 6.891757e-02 7.317580e-02 7.854510e-02 8.336994e-02 8.938160e-02 9.460051e-02 1.010526e-01 1.065394e-01 1.132703e-01 1.189251e-01 1.257966e-01 1.315315e-01 1.384163e-01 1.441454e-01 1.509204e-01 1.565536e-01 1.630958e-01 1.685353e-01 1.747196e-01 1.798590e-01 1.855588e-01 1.902834e-01 1.953717e-01 1.995615e-01 2.039138e-01 2.074473e-01 2.109450e-01 2.137044e-01 2.162393e-01 2.181160e-01 2.195947e-01 2.204950e-01 2.208436e-01 2.206947e-01 2.198630e-01 2.186178e-01 2.165838e-01 2.142255e-01 2.109996e-01 2.075465e-01 2.031761e-01 1.986867e-01 1.932623e-01 1.878424e-01 1.815063e-01 1.753189e-01 1.682793e-01 1.615607e-01 1.541135e-01 1.471983e-01 1.397602e-01 1.331154e-01 
1.381900e-01 1.330722e-01 1.281722e-01 1.246553e-01 1.218102e-01 1.205075e-01 1.202632e-01 1.214827e-01 1.239514e-01 1.275299e-01 1.323322e-01 1.377214e-01 1.441828e-01 1.506889e-01 1.580859e-01 1.650550e-01 1.727518e-01 1.796424e-01 1.871264e-01 1.935154e-01 2.003896e-01 2.059574e-01 2.119233e-01 2.164389e-01 2.212820e-01 2.245911e-01 2.281705e-01 2.301865e-01 2.324267e-01 2.331235e-01 2.340072e-01 2.334113e-01 2.329718e-01 2.311548e-01 2.294684e-01 2.265380e-01 2.237149e-01 2.198063e-01 2.159820e-01 2.112486e-01 2.065752e-01 2.011804e-01 1.958181e-01 1.899272e-01 1.840370e-01 1.778110e-01 1.715482e-01 1.651386e-01 1.586483e-01 1.521934e-01 1.456074e-01 1.392307e-01 1.326669e-01 1.264774e-01 1.200411e-01 1.141364e-01 1.079254e-01 1.023972e-01 9.651095e-02 9.145453e-02 8.600761e-02 8.153512e-02 7.667653e-02 7.293218e-02 6.886572e-02 6.603577e-02 6.302781e-02 6.132689e-02 5.967182e-02 5.928310e-02 5.920532e-02 6.018815e-02 6.173082e-02 6.397503e-02 6.698233e-02 7.026250e-02 7.446902e-02 7.853882e-02 8.366869e-02 8.831828e-02 9.413270e-02 9.920038e-02 1.055033e-01 1.108654e-01 1.174933e-01 1.230499e-01 1.298592e-01 1.355217e-01 1.423800e-01 1.480620e-01 1.548408e-01 1.604518e-01 1.670233e-01 1.724652e-01 1.787003e-01 1.838656e-01 1.896339e-01 1.944066e-01 1.995779e-01 2.038362e-01 2.082834e-01 2.119037e-01 2.155065e-01 2.183691e-01 2.210182e-01 2.230134e-01 2.246156e-01 2.256496e-01 2.261326e-01 2.261337e-01 2.254504e-01 2.243741e-01 2.225072e-01 2.203415e-01 2.173078e-01 2.140775e-01 2.099328e-01 2.057052e-01 2.005503e-01 1.954416e-01 1.894313e-01 1.836167e-01 1.769727e-01 1.707007e-01 1.637308e-01 1.573430e-01 1.504660e-01 1.444204e-01 
1.512257e-01 1.466653e-01 1.422752e-01 1.392075e-01 1.367003e-01 1.356213e-01 1.354341e-01 1.365849e-01 1.388117e-01 1.420673e-01 1.464168e-01 1.513388e-01 1.572606e-01 1.632603e-01 1.701231e-01 1.766096e-01 1.838227e-01 1.902790e-01 1.973419e-01 2.033470e-01 2.098580e-01 2.150850e-01 2.207345e-01 2.249425e-01 2.295040e-01 2.325296e-01 2.358518e-01 2.376017e-01 2.396011e-01 2.400450e-01 2.406991e-01 2.398617e-01 2.392014e-01 2.371545e-01 2.352553e-01 2.321084e-01 2.290822e-01 2.249732e-01 2.209581e-01 2.160440e-01 2.111958e-01 2.056437e-01 2.001268e-01 1.941060e-01 1.880860e-01 1.817615e-01 1.753982e-01 1.689253e-01 1.623684e-01 1.558888e-01 1.492743e-01 1.429150e-01 1.363645e-01 1.302374e-01 1.238594e-01 1.180641e-01 1.119588e-01 1.065879e-01 1.008551e-01 9.600184e-02 9.075278e-02 8.652214e-02 8.189485e-02 7.841354e-02 7.458668e-02 7.200745e-02 6.920168e-02 6.768861e-02 6.613716e-02 6.582183e-02 6.570225e-02 6.662432e-02 6.798465e-02 7.006270e-02 7.280282e-02 7.586518e-02 7.978667e-02 8.363291e-02 8.850715e-02 9.295374e-02 9.856481e-02 1.034612e-01 1.096194e-01 1.148453e-01 1.213849e-01 1.268408e-01 1.336126e-01 1.392096e-01 1.460741e-01 1.517254e-01 1.585477e-01 1.641623e-01 1.708081e-01 1.762868e-01 1.826211e-01 1.878546e-01 1.937418e-01 1.986114e-01 2.039167e-01 2.082972e-01 2.128896e-01 2.166538e-01 2.204101e-01 2.234350e-01 2.262445e-01 2.284175e-01 2.301868e-01 2.314128e-01 2.320710e-01 2.322786e-01 2.317820e-01 2.309291e-01 2.292653e-01 2.273440e-01 2.245367e-01 2.215782e-01 2.176915e-01 2.137711e-01 2.089158e-01 2.041590e-01 1.985004e-01 1.930920e-01 1.868614e-01 1.810569e-01 1.745670e-01 1.687072e-01 1.623692e-01 1.568929e-01 
1.647473e-01 1.607020e-01 1.567858e-01 1.541373e-01 1.519599e-01 1.511171e-01 1.510364e-01 1.521899e-01 1.542824e-01 1.573282e-01 1.613589e-01 1.659326e-01 1.714403e-01 1.770337e-01 1.834624e-01 1.895397e-01 1.963427e-01 2.024137e-01 2.091072e-01 2.147577e-01 2.209401e-01 2.258399e-01 2.311939e-01 2.350949e-01 2.393838e-01 2.421151e-01 2.451779e-01 2.466405e-01 2.483861e-01 2.485461e-01 2.489468e-01 2.478281e-01 2.469120e-01 2.445873e-01 2.424299e-01 2.390114e-01 2.357262e-01 2.313558e-01 2.270845e-01 2.219238e-01 2.168266e-01 2.110479e-01 2.052950e-01 1.990730e-01 1.928360e-01 1.863412e-01 1.797865e-01 1.731794e-01 1.664633e-01 1.598909e-01 1.531558e-01 1.467497e-01 1.401232e-01 1.339996e-01 1.275957e-01 1.218575e-01 1.157805e-01 1.105223e-01 1.048740e-01 1.001885e-01 9.507895e-02 9.106544e-02 8.662449e-02 8.339602e-02 7.978284e-02 7.746613e-02 7.486654e-02 7.358698e-02 7.218742e-02 7.203518e-02 7.197240e-02 7.296286e-02 7.427408e-02 7.633174e-02 7.894166e-02 8.192263e-02 8.567475e-02 8.940953e-02 9.411289e-02 9.844074e-02 1.039038e-01 1.086878e-01 1.147329e-01 1.198603e-01 1.263257e-01 1.317016e-01 1.384375e-01 1.439762e-01 1.508405e-01 1.564579e-01 1.633117e-01 1.689189e-01 1.756239e-01 1.811228e-01 1.875399e-01 1.928211e-01 1.988105e-01 2.037542e-01 2.091775e-01 2.136562e-01 2.183792e-01 2.222630e-01 2.261600e-01 2.293230e-01 2.322821e-01 2.346098e-01 2.365376e-01 2.379339e-01 2.387611e-01 2.391555e-01 2.388414e-01 2.381942e-01 2.367315e-01 2.350394e-01 2.324581e-01 2.297584e-01 2.261306e-01 2.225061e-01 2.179511e-01 2.135355e-01 2.082276e-01 2.032130e-01 1.973903e-01 1.920362e-01 1.860128e-01 1.806554e-01 1.748311e-01 1.698876e-01 
1.793920e-01 1.758155e-01 1.723100e-01 1.700253e-01 1.681146e-01 1.674628e-01 1.674452e-01 1.685814e-01 1.705230e-01 1.733606e-01 1.770711e-01 1.813046e-01 1.863948e-01 1.915827e-01 1.975625e-01 2.032194e-01 2.095845e-01 2.152479e-01 2.215346e-01 2.268009e-01 2.326117e-01 2.371508e-01 2.421640e-01 2.457234e-01 2.496950e-01 2.520987e-01 2.548602e-01 2.560051e-01 2.574595e-01 2.573098e-01 2.574256e-01 2.560052e-01 2.548094e-01 2.521931e-01 2.497619e-01 2.460652e-01 2.425148e-01 2.378837e-01 2.333596e-01 2.279604e-01 2.226278e-01 2.166373e-01 2.106716e-01 2.042692e-01 1.978475e-01 1.912078e-01 1.845018e-01 1.777893e-01 1.709602e-01 1.643253e-01 1.575198e-01 1.510967e-01 1.444458e-01 1.383526e-01 1.319722e-01 1.263122e-01 1.203066e-01 1.151725e-01 1.096406e-01 1.051196e-01 1.001636e-01 9.634439e-02 9.207924e-02 8.905621e-02 8.561668e-02 8.348938e-02 8.102734e-02 7.988852e-02 7.855396e-02 7.846589e-02 7.837188e-02 7.934025e-02 8.052747e-02 8.249030e-02 8.491345e-02 8.775467e-02 9.129814e-02 9.487651e-02 9.938485e-02 1.035604e-01 1.088652e-01 1.135138e-01 1.194487e-01 1.244650e-01 1.308714e-01 1.361653e-01 1.428918e-01 1.483813e-01 1.552814e-01 1.608851e-01 1.678146e-01 1.734455e-01 1.802601e-01 1.858205e-01 1.923749e-01 1.977545e-01 2.039031e-01 2.089789e-01 2.145777e-01 2.192181e-01 2.241280e-01 2.281982e-01 2.322900e-01 2.356591e-01 2.388183e-01 2.413678e-01 2.435007e-01 2.451321e-01 2.461705e-01 2.468128e-01 2.467196e-01 2.463350e-01 2.451079e-01 2.436971e-01 2.413729e-01 2.389790e-01 2.356376e-01 2.323504e-01 2.281192e-01 2.240792e-01 2.191395e-01 2.145440e-01 2.091376e-01 2.042464e-01 1.986840e-01 1.938241e-01 1.884889e-01 1.840521e-01 
1.945414e-01 1.914079e-01 1.882996e-01 1.863693e-01 1.847365e-01 1.842981e-01 1.843937e-01 1.855734e-01 1.874528e-01 1.901733e-01 1.936752e-01 1.976707e-01 2.024580e-01 2.073366e-01 2.129705e-01 2.182874e-01 2.243002e-01 2.296179e-01 2.355649e-01 2.404903e-01 2.459794e-01 2.501840e-01 2.548908e-01 2.581188e-01 2.617927e-01 2.638640e-01 2.663295e-01 2.671380e-01 2.682922e-01 2.678008e-01 2.676086e-01 2.658425e-01 2.643298e-01 2.613668e-01 2.586109e-01 2.545712e-01 2.506915e-01 2.457268e-01 2.408738e-01 2.351564e-01 2.295015e-01 2.232148e-01 2.169403e-01 2.102701e-01 2.035606e-01 1.966878e-01 1.897230e-01 1.828180e-01 1.757665e-01 1.689852e-01 1.620010e-01 1.554826e-01 1.487027e-01 1.425692e-01 1.361143e-01 1.304715e-01 1.244489e-01 1.193895e-01 1.138980e-01 1.095065e-01 1.046436e-01 1.010009e-01 9.687112e-02 9.405746e-02 9.077703e-02 8.887067e-02 8.656478e-02 8.563167e-02 8.441978e-02 8.449616e-02 8.446648e-02 8.554148e-02 8.672592e-02 8.873578e-02 9.109948e-02 9.393868e-02 9.738897e-02 1.009318e-01 1.053385e-01 1.094597e-01 1.146747e-01 1.192618e-01 1.251323e-01 1.300889e-01 1.364634e-01 1.417071e-01 1.484368e-01 1.538923e-01 1.608305e-01 1.664225e-01 1.734227e-01 1.790692e-01 1.859835e-01 1.915899e-01 1.982692e-01 2.037261e-01 2.100202e-01 2.152038e-01 2.209641e-01 2.257399e-01 2.308235e-01 2.350527e-01 2.393272e-01 2.428750e-01 2.462239e-01 2.489684e-01 2.512976e-01 2.531385e-01 2.543815e-01 2.552477e-01 2.553705e-01 2.552264e-01 2.542317e-01 2.530822e-01 2.510131e-01 2.489069e-01 2.458502e-01 2.428833e-01 2.389735e-01 2.352925e-01 2.307163e-01 2.265217e-01 2.215230e-01 2.170732e-01 2.119575e-01 2.075691e-01 2.027026e-01 1.987435e-01 
2.108911e-01 2.081713e-01 2.054169e-01 2.038077e-01 2.024102e-01 2.021576e-01 2.023337e-01 2.035417e-01 2.053389e-01 2.079378e-01 2.112190e-01 2.149757e-01 2.194468e-01 2.240110e-01 2.292779e-01 2.342413e-01 2.398707e-01 2.448198e-01 2.503870e-01 2.549411e-01 2.600619e-01 2.638964e-01 2.682465e-01 2.711052e-01 2.744304e-01 2.761316e-01 2.782517e-01 2.786886e-01 2.794973e-01 2.786338e-01 2.780948e-01 2.759590e-01 2.740984e-01 2.707726e-01 2.676710e-01 2.632808e-01 2.590617e-01 2.537647e-01 2.485841e-01 2.425587e-01 2.365941e-01 2.300291e-01 2.234695e-01 2.165557e-01 2.095922e-01 2.025147e-01 1.953330e-01 1.882661e-01 1.810401e-01 1.741429e-01 1.670308e-01 1.604447e-01 1.535868e-01 1.474347e-01 1.409529e-01 1.353401e-01 1.293401e-01 1.243565e-01 1.189324e-01 1.146557e-01 1.098957e-01 1.063958e-01 1.023893e-01 9.973037e-02 9.657220e-02 9.481196e-02 9.260226e-02 9.178486e-02 9.061934e-02 9.076388e-02 9.071660e-02 9.180543e-02 9.291008e-02 9.488474e-02 9.712398e-02 9.989255e-02 1.031999e-01 1.066526e-01 1.109241e-01 1.149496e-01 1.200574e-01 1.245543e-01 1.303586e-01 1.352395e-01 1.415952e-01 1.467853e-01 1.535449e-01 1.589763e-01 1.659912e-01 1.715950e-01 1.787144e-01 1.844133e-01 1.914839e-01 1.971859e-01 2.040519e-01 2.096472e-01 2.161516e-01 2.215130e-01 2.275005e-01 2.324880e-01 2.378094e-01 2.422773e-01 2.467950e-01 2.506014e-01 2.541959e-01 2.572128e-01 2.597887e-01 2.619117e-01 2.634035e-01 2.645602e-01 2.649373e-01 2.650936e-01 2.643640e-01 2.635285e-01 2.617421e-01 2.599689e-01 2.572198e-01 2.546112e-01 2.510404e-01 2.477481e-01 2.435467e-01 2.397737e-01 2.351854e-01 2.311865e-01 2.265091e-01 2.225883e-01 2.181692e-01 2.146698e-01 
2.278095e-01 2.254901e-01 2.230911e-01 2.218062e-01 2.206670e-01 2.206283e-01 2.209366e-01 2.222294e-01 2.240250e-01 2.265826e-01 2.297435e-01 2.333543e-01 2.376174e-01 2.419608e-01 2.469659e-01 2.516608e-01 2.570013e-01 2.616532e-01 2.669206e-01 2.711583e-01 2.759747e-01 2.794762e-01 2.835169e-01 2.860251e-01 2.890316e-01 2.903634e-01 2.921507e-01 2.921987e-01 2.926568e-01 2.913869e-01 2.904777e-01 2.879219e-01 2.856728e-01 2.819194e-01 2.784139e-01 2.735958e-01 2.689626e-01 2.632452e-01 2.576474e-01 2.512168e-01 2.448399e-01 2.378930e-01 2.309345e-01 2.236696e-01 2.163299e-01 2.089394e-01 2.014132e-01 1.940780e-01 1.865482e-01 1.794334e-01 1.720662e-01 1.653185e-01 1.582609e-01 1.520075e-01 1.453864e-01 1.397348e-01 1.336584e-01 1.286985e-01 1.232600e-01 1.190662e-01 1.143484e-01 1.109830e-01 1.070644e-01 1.045793e-01 1.015384e-01 9.997408e-02 9.788995e-02 9.727066e-02 9.621657e-02 9.654216e-02 9.657395e-02 9.781245e-02 9.895517e-02 1.010413e-01 1.032806e-01 1.061228e-01 1.094045e-01 1.128978e-01 1.171344e-01 1.211746e-01 1.262544e-01 1.307480e-01 1.365438e-01 1.414123e-01 1.477877e-01 1.529657e-01 1.597782e-01 1.652079e-01 1.723103e-01 1.779326e-01 1.851735e-01 1.909192e-01 1.981422e-01 2.039249e-01 2.109700e-01 2.166820e-01 2.233868e-01 2.288999e-01 2.351035e-01 2.402737e-01 2.458217e-01 2.504976e-01 2.552481e-01 2.592817e-01 2.631123e-01 2.663705e-01 2.691849e-01 2.715600e-01 2.732940e-01 2.747127e-01 2.753390e-01 2.757689e-01 2.753007e-01 2.747544e-01 2.732477e-01 2.717849e-01 2.693404e-01 2.670687e-01 2.638332e-01 2.609088e-01 2.570766e-01 2.537038e-01 2.495176e-01 2.459471e-01 2.416965e-01 2.382204e-01 2.342356e-01 2.311748e-01 
2.460461e-01 2.441119e-01 2.420403e-01 2.410627e-01 2.401543e-01 2.403160e-01 2.407337e-01 2.421036e-01 2.438801e-01 2.463933e-01 2.494191e-01 2.528814e-01 2.569188e-01 2.610343e-01 2.657523e-01 2.701638e-01 2.751805e-01 2.795110e-01 2.844342e-01 2.883227e-01 2.927824e-01 2.959116e-01 2.995849e-01 3.016994e-01 3.043267e-01 3.052447e-01 3.066393e-01 3.062562e-01 3.063074e-01 3.045939e-01 3.032650e-01 3.002598e-01 2.975817e-01 2.933810e-01 2.894426e-01 2.841875e-01 2.791244e-01 2.729886e-01 2.669712e-01 2.601482e-01 2.533701e-01 2.460630e-01 2.387297e-01 2.311422e-01 2.234614e-01 2.157902e-01 2.079635e-01 2.003930e-01 1.926090e-01 1.853072e-01 1.777367e-01 1.708522e-01 1.636452e-01 1.573061e-01 1.505909e-01 1.449044e-01 1.387876e-01 1.338409e-01 1.284109e-01 1.242731e-01 1.196037e-01 1.163280e-01 1.124840e-01 1.101096e-01 1.071518e-01 1.057040e-01 1.036915e-01 1.031788e-01 1.021669e-01 1.025766e-01 1.026101e-01 1.039029e-01 1.050063e-01 1.071161e-01 1.092850e-01 1.121244e-01 1.153220e-01 1.187927e-01 1.229511e-01 1.269564e-01 1.319817e-01 1.364362e-01 1.422148e-01 1.470491e-01 1.534530e-01 1.586122e-01 1.655027e-01 1.709399e-01 1.781701e-01 1.838369e-01 1.912522e-01 1.970878e-01 2.045266e-01 2.104493e-01 2.177442e-01 2.236468e-01 2.306269e-01 2.363771e-01 2.428727e-01 2.483185e-01 2.541668e-01 2.591469e-01 2.641992e-01 2.685553e-01 2.726844e-01 2.762742e-01 2.793817e-01 2.820915e-01 2.841138e-01 2.858678e-01 2.867811e-01 2.875479e-01 2.873712e-01 2.871673e-01 2.859637e-01 2.848548e-01 2.827324e-01 2.808324e-01 2.779440e-01 2.754139e-01 2.719569e-01 2.690020e-01 2.652172e-01 2.620839e-01 2.582520e-01 2.552199e-01 2.516530e-01 2.490216e-01 