# vtk DataFile Version 2.0
Comment goes here
ASCII

DATASET STRUCTURED_POINTS
FIELD FieldData 1
TIME 1 1 double
0.02000000
DIMENSIONS    128   128   1

ORIGIN    0.000   0.000   0.000
SPACING   0.039062 0.039062   1.000

POINT_DATA   16384
SCALARS uMag double
LOOKUP_TABLE default

4.307174e-01 4.570304e-01 4.756962e-01 5.000625e-01 5.184319e-01 5.405943e-01 5.584842e-01 5.781656e-01 5.953567e-01 6.122624e-01 6.284998e-01 6.423226e-01 6.573190e-01 6.677451e-01 6.811856e-01 6.879031e-01 6.994524e-01 7.021611e-01 7.114735e-01 7.098959e-01 7.166266e-01 7.105209e-01 7.143396e-01 7.035119e-01 7.041169e-01 6.884347e-01 6.855681e-01 6.649714e-01 6.584334e-01 6.329455e-01 6.226074e-01 5.923430e-01 5.781578e-01 5.433282e-01 5.253392e-01 4.862543e-01 4.645995e-01 4.216671e-01 3.965807e-01 3.503016e-01 3.221118e-01 2.730721e-01 2.421957e-01 1.910570e-01 1.579901e-01 1.054766e-01 7.078322e-02 1.766652e-02 1.803586e-02 7.095312e-02 1.070108e-01 1.589135e-01 1.946556e-01 2.447360e-01 2.794951e-01 3.269743e-01 3.601085e-01 4.042574e-01 4.351721e-01 4.753333e-01 5.035020e-01 5.391097e-01 5.640923e-01 5.946888e-01 6.161465e-01 6.413955e-01 6.590995e-01 6.787929e-01 6.926286e-01 7.066879e-01 7.166519e-01 7.251217e-01 7.313132e-01 7.343507e-01 7.369576e-01 7.348153e-01 7.340969e-01 7.271034e-01 7.233704e-01 7.119094e-01 7.055041e-01 6.899932e-01 6.812707e-01 6.621427e-01 6.514541e-01 6.291410e-01 6.168198e-01 5.917402e-01 5.780928e-01 5.506430e-01 5.359416e-01 5.064900e-01 4.909693e-01 4.598540e-01 4.437104e-01 4.112384e-01 3.946310e-01 3.610795e-01 3.441327e-01 3.097511e-01 2.925580e-01 2.575709e-01 2.401971e-01 2.048072e-01 1.872949e-01 1.516859e-01 1.340583e-01 9.839832e-02 8.066321e-02 4.510797e-02 2.726209e-02 8.042128e-03 2.600923e-02 6.092214e-02 7.902413e-02 1.134081e-01 1.316578e-01 1.653743e-01 1.837794e-01 2.166856e-01 2.352444e-01 2.671893e-01 2.858864e-01 3.167074e-01 3.355091e-01 3.650290e-01 3.838788e-01 4.119027e-01 
4.296995e-01 4.557769e-01 4.743140e-01 4.984576e-01 5.166819e-01 5.386332e-01 5.563583e-01 5.758404e-01 5.928451e-01 6.095653e-01 6.255942e-01 6.392483e-01 6.540149e-01 6.642934e-01 6.774853e-01 6.840815e-01 6.953674e-01 6.979870e-01 7.070268e-01 7.053995e-01 7.118552e-01 7.057463e-01 7.092959e-01 6.985192e-01 6.988706e-01 6.833008e-01 6.802060e-01 6.597906e-01 6.530604e-01 6.278295e-01 6.173461e-01 5.874215e-01 5.731490e-01 5.387499e-01 5.207437e-01 4.821915e-01 4.606046e-01 4.183270e-01 3.934162e-01 3.479559e-01 3.200933e-01 2.721388e-01 2.418509e-01 1.923696e-01 1.605301e-01 1.115882e-01 8.106901e-02 4.705166e-02 4.860982e-02 8.497668e-02 1.168470e-01 1.655705e-01 1.998339e-01 2.484316e-01 2.822916e-01 3.287980e-01 3.612429e-01 4.046542e-01 4.349816e-01 4.745477e-01 5.021916e-01 5.373080e-01 5.618126e-01 5.920038e-01 6.130242e-01 6.379446e-01 6.552508e-01 6.746871e-01 6.881653e-01 7.020356e-01 7.116844e-01 7.200313e-01 7.259519e-01 7.289307e-01 7.313131e-01 7.291745e-01 7.282793e-01 7.213501e-01 7.174887e-01 7.061497e-01 6.996642e-01 6.843300e-01 6.755738e-01 6.566731e-01 6.459946e-01 6.239549e-01 6.116836e-01 5.869182e-01 5.733553e-01 5.462550e-01 5.316671e-01 5.025951e-01 4.872107e-01 4.565003e-01 4.405100e-01 4.084652e-01 3.920235e-01 3.589213e-01 3.421497e-01 3.082446e-01 2.912371e-01 2.567689e-01 2.395994e-01 2.048074e-01 1.875432e-01 1.527066e-01 1.354462e-01 1.010396e-01 8.409044e-02 5.189089e-02 3.765579e-02 2.791379e-02 3.729272e-02 6.646591e-02 8.328838e-02 1.162013e-01 1.339747e-01 1.669576e-01 1.851050e-01 2.175252e-01 2.359135e-01 2.674852e-01 2.860513e-01 3.165599e-01 3.352472e-01 3.644912e-01 3.832299e-01 4.110015e-01 
4.339751e-01 4.602560e-01 4.787328e-01 5.031075e-01 5.213305e-01 5.435306e-01 5.613138e-01 5.810542e-01 5.981766e-01 6.151566e-01 6.313628e-01 6.452703e-01 6.602724e-01 6.707899e-01 6.842727e-01 6.910856e-01 7.027134e-01 7.055195e-01 7.149459e-01 7.134674e-01 7.203467e-01 7.143427e-01 7.183437e-01 7.076236e-01 7.084444e-01 6.928811e-01 6.902643e-01 6.698072e-01 6.635551e-01 6.382420e-01 6.282310e-01 5.981987e-01 5.843922e-01 5.498859e-01 5.323464e-01 4.937312e-01 4.726329e-01 4.304109e-01 4.060591e-01 3.609101e-01 3.337841e-01 2.866821e-01 2.575695e-01 2.101922e-01 1.807224e-01 1.373184e-01 1.128002e-01 8.997320e-02 8.976086e-02 1.134549e-01 1.385978e-01 1.820692e-01 2.137381e-01 2.604814e-01 2.931750e-01 3.390002e-01 3.708791e-01 4.140921e-01 4.441556e-01 4.837373e-01 5.112860e-01 5.465062e-01 5.710141e-01 6.013307e-01 6.224111e-01 6.474402e-01 6.648364e-01 6.843422e-01 6.979222e-01 7.118095e-01 7.215591e-01 7.298642e-01 7.358760e-01 7.387520e-01 7.412103e-01 7.389094e-01 7.380714e-01 7.309243e-01 7.271000e-01 7.154934e-01 7.090251e-01 6.933808e-01 6.846237e-01 6.653790e-01 6.546846e-01 6.322761e-01 6.199783e-01 5.948299e-01 5.812353e-01 5.537492e-01 5.391308e-01 5.096829e-01 4.942770e-01 4.632156e-01 4.472216e-01 4.148689e-01 3.984518e-01 3.651090e-01 3.484044e-01 3.143614e-01 2.974840e-01 2.630386e-01 2.460977e-01 2.115996e-01 1.947352e-01 1.607087e-01 1.441992e-01 1.117855e-01 9.649451e-02 6.961180e-02 5.943227e-02 5.360524e-02 5.873745e-02 8.073246e-02 9.488435e-02 1.251584e-01 1.416940e-01 1.736359e-01 1.910643e-01 2.230546e-01 2.409616e-01 2.723892e-01 2.906088e-01 3.211279e-01 3.395600e-01 3.689072e-01 3.874626e-01 4.153972e-01 
4.362927e-01 4.623102e-01 4.804697e-01 5.046326e-01 5.225621e-01 5.445899e-01 5.620975e-01 5.816972e-01 5.985586e-01 6.154252e-01 6.313836e-01 6.452032e-01 6.599714e-01 6.704271e-01 6.836921e-01 6.904718e-01 7.019018e-01 7.047080e-01 7.139621e-01 7.125239e-01 7.192633e-01 7.133490e-01 7.172511e-01 7.066816e-01 7.074545e-01 6.921171e-01 6.895152e-01 6.693775e-01 6.632170e-01 6.383394e-01 6.285137e-01 5.990630e-01 5.855575e-01 5.518215e-01 5.347297e-01 4.971380e-01 4.766827e-01 4.358446e-01 4.124153e-01 3.692048e-01 3.434435e-01 2.992194e-01 2.722585e-01 2.295179e-01 2.037387e-01 1.682175e-01 1.496567e-01 1.349474e-01 1.351320e-01 1.528144e-01 1.720948e-01 2.089541e-01 2.365509e-01 2.793958e-01 3.094501e-01 3.528684e-01 3.828741e-01 4.244648e-01 4.530896e-01 4.914987e-01 5.178800e-01 5.522091e-01 5.757358e-01 6.053514e-01 6.255899e-01 6.500555e-01 6.667220e-01 6.857702e-01 6.987173e-01 7.122344e-01 7.214394e-01 7.294506e-01 7.350017e-01 7.376547e-01 7.397342e-01 7.372790e-01 7.361435e-01 7.289104e-01 7.248696e-01 7.132458e-01 7.066413e-01 6.910491e-01 6.822341e-01 6.631112e-01 6.524340e-01 6.302167e-01 6.180068e-01 5.931183e-01 5.796771e-01 5.525194e-01 5.381138e-01 5.090644e-01 4.939251e-01 4.633372e-01 4.476598e-01 4.158665e-01 3.998159e-01 3.671402e-01 3.508586e-01 3.176313e-01 3.012520e-01 2.678478e-01 2.515228e-01 2.184405e-01 2.024019e-01 1.704725e-01 1.552037e-01 1.262138e-01 1.129965e-01 9.163582e-02 8.409980e-02 8.043065e-02 8.369844e-02 1.004698e-01 1.118646e-01 1.384468e-01 1.532704e-01 1.831169e-01 1.994477e-01 2.301608e-01 2.472963e-01 2.778807e-01 2.955144e-01 3.254407e-01 3.434002e-01 3.723101e-01 3.904658e-01 4.180658e-01 
4.436610e-01 4.698605e-01 4.877882e-01 5.121982e-01 5.299939e-01 5.523149e-01 5.697861e-01 5.897099e-01 6.066323e-01 6.238408e-01 6.399575e-01 6.541245e-01 6.691470e-01 6.799440e-01 6.935563e-01 7.006599e-01 7.125252e-01 7.156278e-01 7.253977e-01 7.242198e-01 7.315460e-01 7.258493e-01 7.303980e-01 7.200006e-01 7.214677e-01 7.062590e-01 7.043876e-01 6.843436e-01 6.789409e-01 6.541401e-01 6.450948e-01 6.157351e-01 6.030364e-01 5.694552e-01 5.532132e-01 5.159183e-01 4.963940e-01 4.561189e-01 4.337765e-01 3.915980e-01 3.672188e-01 3.248325e-01 2.997926e-01 2.602004e-01 2.371814e-01 2.062815e-01 1.907096e-01 1.787682e-01 1.782302e-01 1.921139e-01 2.073738e-01 2.395118e-01 2.637966e-01 3.037250e-01 3.316336e-01 3.734742e-01 4.021160e-01 4.428880e-01 4.706326e-01 5.086335e-01 5.344385e-01 5.685713e-01 5.917165e-01 6.212306e-01 6.412135e-01 6.656012e-01 6.820930e-01 7.010434e-01 7.138662e-01 7.272399e-01 7.363507e-01 7.441598e-01 7.496335e-01 7.520211e-01 7.540319e-01 7.512502e-01 7.500505e-01 7.424363e-01 7.383343e-01 7.262848e-01 7.196229e-01 7.035722e-01 6.947063e-01 6.751053e-01 6.643877e-01 6.416872e-01 6.294526e-01 6.040913e-01 5.906470e-01 5.630440e-01 5.486646e-01 5.192170e-01 5.041419e-01 4.732262e-01 4.576620e-01 4.256414e-01 4.097671e-01 3.770055e-01 3.609829e-01 3.278710e-01 3.118635e-01 2.788700e-01 2.630786e-01 2.308582e-01 2.155999e-01 1.852460e-01 1.711435e-01 1.448024e-01 1.332454e-01 1.153596e-01 1.092107e-01 1.064329e-01 1.086192e-01 1.223280e-01 1.315485e-01 1.552501e-01 1.683316e-01 1.964214e-01 2.114882e-01 2.412203e-01 2.574142e-01 2.874856e-01 3.043941e-01 3.340965e-01 3.514882e-01 3.803619e-01 3.980754e-01 4.257671e-01 
4.493014e-01 4.752290e-01 4.926692e-01 5.168915e-01 5.342565e-01 5.564531e-01 5.735432e-01 5.933914e-01 6.099787e-01 6.271501e-01 6.429766e-01 6.571386e-01 6.719166e-01 6.827374e-01 6.961537e-01 7.033099e-01 7.150321e-01 7.182197e-01 7.279052e-01 7.268517e-01 7.341601e-01 7.286388e-01 7.332456e-01 7.230908e-01 7.247036e-01 7.098265e-01 7.082018e-01 6.886074e-01 6.835692e-01 6.593734e-01 6.508318e-01 6.222821e-01 6.102544e-01 5.777561e-01 5.623923e-01 5.265495e-01 5.081701e-01 4.698583e-01 4.490207e-01 4.095294e-01 3.871593e-01 3.484868e-01 3.261537e-01 2.915915e-01 2.720379e-01 2.470260e-01 2.347088e-01 2.264186e-01 2.260913e-01 2.381081e-01 2.502374e-01 2.779433e-01 2.984713e-01 3.344397e-01 3.591456e-01 3.980340e-01 4.241033e-01 4.627206e-01 4.883823e-01 5.247781e-01 5.488610e-01 5.817611e-01 6.034550e-01 6.319927e-01 6.507358e-01 6.743283e-01 6.897532e-01 7.080416e-01 7.199462e-01 7.327611e-01 7.410872e-01 7.484239e-01 7.532376e-01 7.552313e-01 7.567024e-01 7.536033e-01 7.519819e-01 7.441290e-01 7.397221e-01 7.275163e-01 7.206648e-01 7.045449e-01 6.956021e-01 6.760229e-01 6.653369e-01 6.427526e-01 6.306523e-01 6.055047e-01 5.922902e-01 5.650022e-01 5.509401e-01 5.219147e-01 5.072375e-01 4.768622e-01 4.617714e-01 4.304284e-01 4.151026e-01 3.831890e-01 3.677975e-01 3.357587e-01 3.204847e-01 2.888782e-01 2.739618e-01 2.435798e-01 2.294022e-01 2.015212e-01 1.887767e-01 1.656275e-01 1.556279e-01 1.409336e-01 1.357807e-01 1.337999e-01 1.352283e-01 1.466276e-01 1.540090e-01 1.747867e-01 1.860916e-01 2.119003e-01 2.255362e-01 2.536690e-01 2.687325e-01 2.976967e-01 3.136934e-01 3.426223e-01 3.592582e-01 3.875862e-01 4.046578e-01 4.319632e-01 
4.595299e-01 4.856397e-01 5.027069e-01 5.272075e-01 5.443289e-01 5.668760e-01 5.838534e-01 6.041043e-01 6.207118e-01 6.383207e-01 6.543015e-01 6.689196e-01 6.839860e-01 6.952661e-01 7.091023e-01 7.167066e-01 7.289745e-01 7.325858e-01 7.429338e-01 7.422685e-01 7.503437e-01 7.451671e-01 7.506299e-01 7.407728e-01 7.433141e-01 7.286907e-01 7.280506e-01 7.086772e-01 7.046654e-01 6.806810e-01 6.731989e-01 6.448892e-01 6.339537e-01 6.017822e-01 5.875558e-01 5.522116e-01 5.350453e-01 4.975229e-01 4.780271e-01 4.397722e-01 4.189463e-01 3.821227e-01 3.615905e-01 3.295149e-01 3.118800e-01 2.894130e-01 2.783985e-01 2.710782e-01 2.702514e-01 2.806298e-01 2.905857e-01 3.154953e-01 3.335046e-01 3.670677e-01 3.896590e-01 4.269087e-01 4.513800e-01 4.889826e-01 5.134715e-01 5.492619e-01 5.724843e-01 6.050162e-01 6.260699e-01 6.543549e-01 6.726102e-01 6.959830e-01 7.110240e-01 7.290724e-01 7.406627e-01 7.531852e-01 7.612437e-01 7.682192e-01 7.727976e-01 7.743570e-01 7.756167e-01 7.720149e-01 7.702023e-01 7.617890e-01 7.572111e-01 7.444022e-01 7.374021e-01 7.206535e-01 7.115889e-01 6.913741e-01 6.805983e-01 6.573911e-01 6.452394e-01 6.195020e-01 6.062818e-01 5.784591e-01 5.644451e-01 5.349647e-01 5.203983e-01 4.896768e-01 4.747703e-01 4.432259e-01 4.281716e-01 3.962475e-01 3.812321e-01 3.494361e-01 3.346666e-01 3.036397e-01 2.893874e-01 2.600281e-01 2.467076e-01 2.203888e-01 2.086955e-01 1.875812e-01 1.786666e-01 1.658470e-01 1.612736e-01 1.597175e-01 1.606245e-01 1.706803e-01 1.767215e-01 1.955964e-01 2.054040e-01 2.296324e-01 2.419226e-01 2.689743e-01 2.828994e-01 3.112042e-01 3.262524e-01 3.548367e-01 3.706884e-01 3.989017e-01 4.153348e-01 4.426951e-01 
4.684023e-01 4.942626e-01 5.107059e-01 5.350649e-01 5.516410e-01 5.741285e-01 5.906336e-01 6.108872e-01 6.270931e-01 6.447519e-01 6.604019e-01 6.751062e-01 6.899149e-01 7.013102e-01 7.149659e-01 7.227117e-01 7.348818e-01 7.386628e-01 7.490032e-01 7.485434e-01 7.567103e-01 7.517891e-01 7.574537e-01 7.479233e-01 7.507895e-01 7.365935e-01 7.364167e-01 7.176104e-01 7.142186e-01 6.909910e-01 6.843077e-01 6.570077e-01 6.470773e-01 6.162490e-01 6.032696e-01 5.697033e-01 5.540718e-01 5.188863e-01 5.012696e-01 4.660466e-01 4.474955e-01 4.144847e-01 3.966043e-01 3.689589e-01 3.540727e-01 3.358231e-01 3.268206e-01 3.218463e-01 3.211578e-01 3.309107e-01 3.389702e-01 3.612019e-01 3.762714e-01 4.066678e-01 4.261838e-01 4.605966e-01 4.822499e-01 5.175356e-01 5.395541e-01 5.734972e-01 5.945792e-01 6.256301e-01 6.448301e-01 6.719054e-01 6.885524e-01 7.109135e-01 7.245589e-01 7.417412e-01 7.521252e-01 7.638934e-01 7.709193e-01 7.772332e-01 7.809431e-01 7.819260e-01 7.824762e-01 7.783832e-01 7.760177e-01 7.672042e-01 7.622285e-01 7.491184e-01 7.418736e-01 7.249315e-01 7.157715e-01 6.954785e-01 6.847507e-01 6.615868e-01 6.496178e-01 6.240504e-01 6.111369e-01 5.836162e-01 5.700206e-01 5.409815e-01 5.269333e-01 4.968039e-01 4.825054e-01 4.517234e-01 4.373599e-01 4.063992e-01 3.921567e-01 3.615698e-01 3.476614e-01 3.181480e-01 3.048558e-01 2.773726e-01 2.651155e-01 2.410365e-01 2.304640e-01 2.117400e-01 2.038089e-01 1.928637e-01 1.887125e-01 1.875681e-01 1.879731e-01 1.968110e-01 2.016201e-01 2.185252e-01 2.268594e-01 2.491817e-01 2.600634e-01 2.855784e-01 2.982576e-01 3.254135e-01 3.393826e-01 3.671392e-01 3.820568e-01 4.096904e-01 4.253104e-01 4.522790e-01 
4.812195e-01 5.072888e-01 5.232534e-01 5.479422e-01 5.641918e-01 5.871046e-01 6.034418e-01 6.241939e-01 6.403969e-01 6.586069e-01 6.744242e-01 6.897126e-01 7.048610e-01 7.168547e-01 7.310210e-01 7.393612e-01 7.522071e-01 7.565616e-01 7.677317e-01 7.678098e-01 7.769437e-01 7.725133e-01 7.792614e-01 7.701680e-01 7.742099e-01 7.603978e-01 7.614634e-01 7.429977e-01 7.408910e-01 7.179826e-01 7.126077e-01 6.856422e-01 6.770319e-01 6.466074e-01 6.349578e-01 6.019370e-01 5.876542e-01 5.532422e-01 5.370089e-01 5.028692e-01 4.857422e-01 4.541493e-01 4.376834e-01 4.116434e-01 3.979660e-01 3.810450e-01 3.726432e-01 3.680363e-01 3.669462e-01 3.758217e-01 3.825480e-01 4.031627e-01 4.164743e-01 4.452265e-01 4.630195e-01 4.961304e-01 5.163039e-01 5.506802e-01 5.714972e-01 6.048358e-01 6.249584e-01 6.555949e-01 6.740241e-01 7.007738e-01 7.167880e-01 7.388344e-01 7.519444e-01 7.687691e-01 7.786852e-01 7.900201e-01 7.966253e-01 8.024149e-01 8.057391e-01 8.061057e-01 8.062992e-01 8.015076e-01 7.988134e-01 7.892359e-01 7.839621e-01 7.700441e-01 7.625369e-01 7.447667e-01 7.353866e-01 7.142700e-01 7.033722e-01 6.794140e-01 6.673332e-01 6.410260e-01 6.280670e-01 5.998870e-01 5.863208e-01 5.567310e-01 5.427958e-01 5.122555e-01 4.981624e-01 4.671459e-01 4.530900e-01 4.221139e-01 4.082913e-01 3.779580e-01 3.645910e-01 3.356527e-01 3.230282e-01 2.964802e-01 2.850030e-01 2.621956e-01 2.524507e-01 2.351492e-01 2.279248e-01 2.181102e-01 2.142615e-01 2.134196e-01 2.134993e-01 2.216947e-01 2.256215e-01 2.413729e-01 2.485403e-01 2.696936e-01 2.793562e-01 3.039401e-01 3.154681e-01 3.419905e-01 3.549241e-01 3.823216e-01 3.963354e-01 4.238403e-01 4.386940e-01 4.657210e-01 
4.931775e-01 5.190567e-01 5.343040e-01 5.589260e-01 5.745466e-01 5.974883e-01 6.132835e-01 6.341370e-01 6.498856e-01 6.682502e-01 6.837033e-01 6.991840e-01 7.140629e-01 7.262753e-01 7.402732e-01 7.488524e-01 7.616388e-01 7.662527e-01 7.774816e-01 7.778472e-01 7.871698e-01 7.830714e-01 7.901509e-01 7.814609e-01 7.859916e-01 7.726915e-01 7.744200e-01 7.566236e-01 7.553721e-01 7.333505e-01 7.290429e-01 7.032536e-01 6.959433e-01 6.670665e-01 6.569710e-01 6.259576e-01 6.135009e-01 5.816374e-01 5.675069e-01 5.364980e-01 5.217146e-01 4.937588e-01 4.797411e-01 4.575175e-01 4.460642e-01 4.324385e-01 4.254797e-01 4.227341e-01 4.217532e-01 4.305589e-01 4.359584e-01 4.549380e-01 4.659141e-01 4.922840e-01 5.072974e-01 5.379328e-01 5.552812e-01 5.874069e-01 6.055550e-01 6.369568e-01 6.546440e-01 6.836399e-01 6.998844e-01 7.252363e-01 7.393094e-01 7.601451e-01 7.715436e-01 7.872988e-01 7.957197e-01 8.060950e-01 8.114112e-01 8.163344e-01 8.185696e-01 8.181586e-01 8.174604e-01 8.119854e-01 8.085957e-01 7.984401e-01 7.926662e-01 7.782892e-01 7.704752e-01 7.523782e-01 7.428798e-01 7.215797e-01 7.107431e-01 6.867528e-01 6.748999e-01 6.487171e-01 6.361362e-01 6.082410e-01 5.951842e-01 5.660437e-01 5.527288e-01 5.228097e-01 5.094282e-01 4.792166e-01 4.659462e-01 4.359767e-01 4.229988e-01 3.938949e-01 3.814192e-01 3.539492e-01 3.422457e-01 3.173908e-01 3.068300e-01 2.858467e-01 2.769345e-01 2.613418e-01 2.547131e-01 2.460712e-01 2.423742e-01 2.417642e-01 2.414219e-01 2.488735e-01 2.518838e-01 2.663020e-01 2.722809e-01 2.919743e-01 3.003785e-01 3.236601e-01 3.339759e-01 3.594570e-01 3.712726e-01 3.978953e-01 4.108974e-01 4.378618e-01 4.518080e-01 4.784886e-01 
5.082998e-01 5.344416e-01 5.491390e-01 5.741640e-01 5.894015e-01 6.128632e-01 6.284565e-01 6.499244e-01 6.656654e-01 6.847166e-01 7.003667e-01 7.165839e-01 7.318714e-01 7.448477e-01 7.594666e-01 7.688148e-01 7.824291e-01 7.877954e-01 8.000458e-01 8.011271e-01 8.116429e-01 8.082067e-01 8.166219e-01 8.085280e-01 8.145014e-01 8.017260e-01 8.049655e-01 7.876259e-01 7.879151e-01 7.662977e-01 7.635253e-01 7.381162e-01 7.323075e-01 7.038297e-01 6.951822e-01 6.646402e-01 6.535658e-01 6.223010e-01 6.094759e-01 5.792271e-01 5.656477e-01 5.385880e-01 5.256089e-01 5.042817e-01 4.935714e-01 4.805807e-01 4.738875e-01 4.712352e-01 4.699134e-01 4.781913e-01 4.826982e-01 5.007415e-01 5.104991e-01 5.358507e-01 5.495673e-01 5.793284e-01 5.954615e-01 6.269288e-01 6.440071e-01 6.749353e-01 6.917017e-01 7.203345e-01 7.357833e-01 7.608028e-01 7.741744e-01 7.946400e-01 8.054031e-01 8.207011e-01 8.285314e-01 8.383331e-01 8.430900e-01 8.473128e-01 8.490133e-01 8.477810e-01 8.465715e-01 8.401719e-01 8.362982e-01 8.251404e-01 8.189169e-01 8.034901e-01 7.952699e-01 7.761074e-01 7.662565e-01 7.439067e-01 7.327824e-01 7.077885e-01 6.957233e-01 6.686129e-01 6.559053e-01 6.271876e-01 6.140986e-01 5.842709e-01 5.710263e-01 5.405869e-01 5.273848e-01 4.968534e-01 4.838758e-01 4.538221e-01 4.412516e-01 4.123327e-01 4.003741e-01 3.733808e-01 3.622881e-01 3.381946e-01 3.282999e-01 3.082915e-01 3.000240e-01 2.854448e-01 2.793117e-01 2.714448e-01 2.679366e-01 2.675991e-01 2.670290e-01 2.741867e-01 2.765665e-01 2.903057e-01 2.953717e-01 3.142705e-01 3.216229e-01 3.441974e-01 3.534338e-01 3.783962e-01 3.891757e-01 4.154969e-01 4.275495e-01 4.544226e-01 4.675334e-01 4.943120e-01 
5.231640e-01 5.492132e-01 5.631465e-01 5.882119e-01 6.027736e-01 6.263817e-01 6.413908e-01 6.630856e-01 6.783386e-01 6.976740e-01 7.129385e-01 7.294769e-01 7.444887e-01 7.578069e-01 7.722696e-01 7.819699e-01 7.955581e-01 8.012841e-01 8.136511e-01 8.151069e-01 8.258965e-01 8.228685e-01 8.317304e-01 8.241107e-01 8.307212e-01 8.185315e-01 8.226163e-01 8.060328e-01 8.073929e-01 7.867718e-01 7.853112e-01 7.612160e-01 7.569707e-01 7.302026e-01 7.233721e-01 6.950039e-01 6.859863e-01 6.573960e-01 6.468255e-01 6.197188e-01 6.084980e-01 5.848876e-01 5.741913e-01 5.562716e-01 5.474747e-01 5.373127e-01 5.317868e-01 5.308231e-01 5.296049e-01 5.381481e-01 5.416231e-01 5.586776e-01 5.664826e-01 5.900576e-01 6.012559e-01 6.289251e-01 6.423013e-01 6.716778e-01 6.859877e-01 7.149794e-01 7.290974e-01 7.559925e-01 7.689795e-01 7.924479e-01 8.035739e-01 8.226421e-01 8.313866e-01 8.454072e-01 8.514486e-01 8.600691e-01 8.632675e-01 8.663949e-01 8.667685e-01 8.645296e-01 8.622272e-01 8.549235e-01 8.501935e-01 8.382537e-01 8.314118e-01 8.153465e-01 8.067446e-01 7.871060e-01 7.771037e-01 7.544545e-01 7.433968e-01 7.182887e-01 7.064895e-01 6.794528e-01 6.671860e-01 6.387289e-01 6.262264e-01 5.968432e-01 5.842995e-01 5.544859e-01 5.420668e-01 5.123417e-01 5.001985e-01 4.711314e-01 4.594179e-01 4.316613e-01 4.205541e-01 3.948799e-01 3.846001e-01 3.619290e-01 3.527634e-01 3.341654e-01 3.264747e-01 3.130988e-01 3.072958e-01 3.001808e-01 2.966596e-01 2.964395e-01 2.954672e-01 3.021149e-01 3.037470e-01 3.165522e-01 3.206371e-01 3.384478e-01 3.447079e-01 3.662503e-01 3.743754e-01 3.984761e-01 4.081805e-01 4.338506e-01 4.448927e-01 4.713236e-01 4.835014e-01 5.100261e-01 
5.403149e-01 5.667035e-01 5.800442e-01 6.056069e-01 6.197514e-01 6.439953e-01 6.587866e-01 6.812346e-01 6.964909e-01 7.166738e-01 7.321809e-01 7.496367e-01 7.651431e-01 7.794227e-01 7.946375e-01 8.053161e-01 8.199098e-01 8.266035e-01 8.402138e-01 8.425997e-01 8.548420e-01 8.526817e-01 8.631655e-01 8.563297e-01 8.646809e-01 8.531760e-01 8.590633e-01 8.430581e-01 8.462241e-01 8.260787e-01 8.263722e-01 8.026665e-01 8.000764e-01 7.736413e-01 7.683307e-01 7.402773e-01 7.326182e-01 7.043634e-01 6.949698e-01 6.682417e-01 6.579936e-01 6.347887e-01 6.248249e-01 6.072664e-01 5.989073e-01 5.889476e-01 5.835063e-01 5.824838e-01 5.809747e-01 5.891852e-01 5.920434e-01 6.085884e-01 6.155644e-01 6.385970e-01 6.488806e-01 6.760827e-01 6.885516e-01 7.175720e-01 7.310274e-01 7.597480e-01 7.730729e-01 7.997215e-01 8.119650e-01 8.351419e-01 8.455556e-01 8.642254e-01 8.722724e-01 8.857431e-01 8.910909e-01 8.989865e-01 9.014909e-01 9.037164e-01 9.033971e-01 9.000953e-01 8.971079e-01 8.886096e-01 8.832128e-01 8.699847e-01 8.625073e-01 8.451013e-01 8.359101e-01 8.149200e-01 8.043904e-01 7.804183e-01 7.689108e-01 7.425451e-01 7.303882e-01 7.021933e-01 6.896738e-01 6.601901e-01 6.475507e-01 6.173039e-01 6.047466e-01 5.742634e-01 5.619582e-01 5.317877e-01 5.198851e-01 4.906237e-01 4.792707e-01 4.515902e-01 4.409473e-01 4.156211e-01 4.058806e-01 3.837985e-01 3.751991e-01 3.573497e-01 3.501798e-01 3.375695e-01 3.321468e-01 3.256316e-01 3.222504e-01 3.223092e-01 3.211689e-01 3.277276e-01 3.288795e-01 3.413106e-01 3.446597e-01 3.619645e-01 3.673208e-01 3.883724e-01 3.955126e-01 4.192380e-01 4.279480e-01 4.534107e-01 4.635035e-01 4.899138e-01 5.012292e-01 5.279190e-01 
5.578885e-01 5.843187e-01 5.968947e-01 6.226397e-01 6.361007e-01 6.606421e-01 6.748388e-01 6.976725e-01 7.124316e-01 7.330612e-01 7.481783e-01 7.661158e-01 7.813507e-01 7.961242e-01 8.111987e-01 8.223670e-01 8.369661e-01 8.441381e-01 8.579160e-01 8.607745e-01 8.733648e-01 8.716923e-01 8.827246e-01 8.764302e-01 8.855510e-01 8.746964e-01 8.815951e-01 8.664196e-01 8.708558e-01 8.517997e-01 8.536332e-01 8.313595e-01 8.305783e-01 8.059922e-01 8.027413e-01 7.770029e-01 7.716108e-01 7.461363e-01 7.391375e-01 7.155728e-01 7.077179e-01 6.878611e-01 6.800975e-01 6.657409e-01 6.591375e-01 6.518108e-01 6.474083e-01 6.480602e-01 6.466653e-01 6.553974e-01 6.573920e-01 6.733896e-01 6.786484e-01 7.003554e-01 7.083060e-01 7.337483e-01 7.435264e-01 7.706314e-01 7.812539e-01 8.080762e-01 8.185803e-01 8.434277e-01 8.529622e-01 8.744538e-01 8.823312e-01 8.994192e-01 9.051387e-01 9.171106e-01 9.203621e-01 9.268280e-01 9.274823e-01 9.283469e-01 9.264358e-01 9.218567e-01 9.175463e-01 9.078808e-01 9.014386e-01 8.871856e-01 8.789464e-01 8.606899e-01 8.510207e-01 8.293810e-01 8.186503e-01 7.942469e-01 7.827986e-01 7.562269e-01 7.443636e-01 7.161853e-01 7.041587e-01 6.749043e-01 6.629151e-01 6.330957e-01 6.212998e-01 5.914256e-01 5.799463e-01 5.505488e-01 5.394922e-01 5.111488e-01 5.006205e-01 4.739776e-01 4.641006e-01 4.398917e-01 4.308217e-01 4.098707e-01 4.018074e-01 3.850013e-01 3.781882e-01 3.663997e-01 3.611064e-01 3.550557e-01 3.515385e-01 3.516239e-01 3.500725e-01 3.562434e-01 3.567399e-01 3.684922e-01 3.710048e-01 3.875060e-01 3.919179e-01 4.121887e-01 4.183399e-01 4.414057e-01 4.491289e-01 4.741031e-01 4.832418e-01 5.093496e-01 5.197628e-01 5.463306e-01 
5.768075e-01 6.036718e-01 6.156335e-01 6.419889e-01 6.550156e-01 6.803297e-01 6.943065e-01 7.180564e-01 7.328418e-01 7.545085e-01 7.699261e-01 7.889954e-01 8.048265e-01 8.207971e-01 8.367757e-01 8.491741e-01 8.649844e-01 8.733851e-01 8.886639e-01 8.927141e-01 9.070596e-01 9.065063e-01 9.194937e-01 9.142122e-01 9.254181e-01 9.154404e-01 9.244729e-01 9.100154e-01 9.165500e-01 8.980407e-01 9.018577e-01 8.799612e-01 8.809817e-01 8.566204e-01 8.549397e-01 8.293056e-01 8.252217e-01 7.997715e-01 7.938057e-01 7.702229e-01 7.631251e-01 7.432303e-01 7.359535e-01 7.215381e-01 7.151599e-01 7.077347e-01 7.033107e-01 7.038083e-01 7.021744e-01 7.107065e-01 7.122934e-01 7.280852e-01 7.328285e-01 7.543715e-01 7.617542e-01 7.871007e-01 7.962933e-01 8.233591e-01 8.333888e-01 8.601818e-01 8.700776e-01 8.948373e-01 9.037323e-01 9.250048e-01 9.321969e-01 9.488714e-01 9.538518e-01 9.651735e-01 9.676320e-01 9.731944e-01 9.730090e-01 9.727262e-01 9.699411e-01 9.640017e-01 9.587993e-01 9.476067e-01 9.402737e-01 9.243811e-01 9.152734e-01 8.953210e-01 8.848283e-01 8.614898e-01 8.500036e-01 8.239473e-01 8.118339e-01 7.836986e-01 7.712811e-01 7.416669e-01 7.292146e-01 6.986873e-01 6.864141e-01 6.555174e-01 6.435877e-01 6.128623e-01 6.014016e-01 5.714061e-01 5.605151e-01 5.318473e-01 5.216178e-01 4.949322e-01 4.854622e-01 4.614801e-01 4.528876e-01 4.323902e-01 4.248221e-01 4.086152e-01 4.022479e-01 3.910858e-01 3.861125e-01 3.805815e-01 3.771860e-01 3.775761e-01 3.758987e-01 3.821184e-01 3.822304e-01 3.938145e-01 3.957131e-01 4.119226e-01 4.155466e-01 4.355091e-01 4.407648e-01 4.635953e-01 4.703795e-01 4.952523e-01 5.034653e-01 5.296403e-01 5.391900e-01 5.660079e-01 
5.968831e-01 6.239564e-01 6.351971e-01 6.619121e-01 6.742882e-01 7.000883e-01 7.134958e-01 7.378299e-01 7.521388e-01 7.744560e-01 7.895025e-01 8.092556e-01 8.248354e-01 8.414919e-01 8.573553e-01 8.704164e-01 8.862660e-01 8.952920e-01 9.107855e-01 9.154252e-01 9.301841e-01 9.302070e-01 9.438319e-01 9.391584e-01 9.512523e-01 9.419818e-01 9.521776e-01 9.386119e-01 9.466043e-01 9.292660e-01 9.348429e-01 9.144883e-01 9.175601e-01 8.951842e-01 8.958088e-01 8.726375e-01 8.710420e-01 8.485030e-01 8.450976e-01 8.247593e-01 8.201397e-01 8.036053e-01 7.985296e-01 7.872793e-01 7.826045e-01 7.777952e-01 7.743663e-01 7.766270e-01 7.751311e-01 7.844195e-01 7.852485e-01 8.008304e-01 8.040024e-01 8.245662e-01 8.297351e-01 8.535940e-01 8.601355e-01 8.854451e-01 8.925797e-01 9.175200e-01 9.244349e-01 9.473422e-01 9.532894e-01 9.727470e-01 9.771095e-01 9.920083e-01 9.943373e-01 1.003913e+00 1.003941e+00 1.007783e+00 1.005421e+00 1.003457e+00 9.987738e-01 9.912250e-01 9.844256e-01 9.717406e-01 9.631304e-01 9.459134e-01 9.358613e-01 9.147997e-01 9.037002e-01 8.795041e-01 8.677418e-01 8.410999e-01 8.290207e-01 8.005752e-01 7.884666e-01 7.588060e-01 7.468889e-01 7.165550e-01 7.049848e-01 6.744902e-01 6.633676e-01 6.332181e-01 6.226051e-01 5.933236e-01 5.832621e-01 5.554098e-01 5.459412e-01 5.201326e-01 5.113141e-01 4.882224e-01 4.801403e-01 4.604857e-01 4.532621e-01 4.377752e-01 4.315671e-01 4.209204e-01 4.159072e-01 4.106190e-01 4.069797e-01 4.073126e-01 4.051972e-01 4.110905e-01 4.105965e-01 4.216687e-01 4.228322e-01 4.384530e-01 4.412570e-01 4.606566e-01 4.650480e-01 4.874188e-01 4.933277e-01 5.178918e-01 5.252437e-01 5.512830e-01 5.600048e-01 5.868638e-01 
6.173246e-01 6.449401e-01 6.555580e-01 6.830129e-01 6.949485e-01 7.216787e-01 7.348724e-01 7.603116e-01 7.746765e-01 7.982524e-01 8.136651e-01 8.348030e-01 8.510928e-01 8.692273e-01 8.861666e-01 9.007611e-01 9.180581e-01 9.286303e-01 9.459258e-01 9.520788e-01 9.689506e-01 9.704050e-01 9.863824e-01 9.830085e-01 9.975986e-01 9.894466e-01 1.002170e+00 9.894970e-01 9.999300e-01 9.832255e-01 9.910471e-01 9.710506e-01 9.760825e-01 9.537959e-01 9.560372e-01 9.327201e-01 9.323721e-01 9.095103e-01 9.069896e-01 8.862251e-01 8.821605e-01 8.651723e-01 8.603741e-01 8.487076e-01 8.440955e-01 8.389550e-01 8.354394e-01 8.374830e-01 8.358120e-01 8.450131e-01 8.456278e-01 8.612561e-01 8.642051e-01 8.849377e-01 8.898824e-01 9.139998e-01 9.202999e-01 9.459001e-01 9.527434e-01 9.779268e-01 9.844624e-01 1.007473e+00 1.012921e+00 1.032252e+00 1.035976e+00 1.050446e+00 1.051996e+00 1.060795e+00 1.059914e+00 1.062625e+00 1.059246e+00 1.055821e+00 1.050039e+00 1.040751e+00 1.032800e+00 1.018168e+00 1.008383e+00 9.890871e-01 9.778692e-01 9.546723e-01 9.424482e-01 9.161288e-01 9.033162e-01 8.746223e-01 8.615990e-01 8.312233e-01 8.183062e-01 7.868804e-01 7.743143e-01 7.424183e-01 7.303767e-01 6.985572e-01 6.871506e-01 6.559439e-01 6.452348e-01 6.151887e-01 6.052092e-01 5.768999e-01 5.676697e-01 5.417114e-01 5.332540e-01 5.102970e-01 5.026522e-01 4.833651e-01 4.765975e-01 4.616287e-01 4.558292e-01 4.457454e-01 4.410258e-01 4.362346e-01 4.327145e-01 4.333910e-01 4.311804e-01 4.372252e-01 4.364095e-01 4.474592e-01 4.480909e-01 4.635779e-01 4.656790e-01 4.849157e-01 4.884851e-01 5.107434e-01 5.157670e-01 5.403328e-01 5.467909e-01 5.729905e-01 5.808612e-01 6.080654e-01 