# vtk DataFile Version 2.0
Comment goes here
ASCII

DATASET STRUCTURED_POINTS
FIELD FieldData 1
TIME 1 1 double
0.09000000
DIMENSIONS    128   128   1

ORIGIN    0.000   0.000   0.000
SPACING   0.039062 0.039062   1.000

POINT_DATA   16384
SCALARS uMag double
LOOKUP_TABLE default

2.733932e-01 2.205418e-01 1.615552e-01 1.089427e-01 5.057627e-02 1.325971e-03 5.861090e-02 1.093737e-01 1.651593e-01 2.143929e-01 2.683016e-01 3.156535e-01 3.673437e-01 4.124958e-01 4.616594e-01 5.043260e-01 5.506850e-01 5.906113e-01 6.339161e-01 6.708771e-01 7.109051e-01 7.447051e-01 7.812595e-01 8.117318e-01 8.446408e-01 8.716474e-01 9.007631e-01 9.241936e-01 9.493904e-01 9.691607e-01 9.903338e-01 1.006384e+00 1.023446e+00 1.035737e+00 1.048615e+00 1.057125e+00 1.065758e+00 1.070479e+00 1.074813e+00 1.075745e+00 1.075729e+00 1.072877e+00 1.068464e+00 1.061834e+00 1.052975e+00 1.042574e+00 1.029222e+00 1.015053e+00 9.971637e-01 9.792301e-01 9.567657e-01 9.350719e-01 9.080079e-01 8.825650e-01 8.508981e-01 8.217296e-01 7.854866e-01 7.526364e-01 7.118858e-01 6.754270e-01 6.302897e-01 5.903341e-01 5.409952e-01 4.977030e-01 4.444222e-01 3.980110e-01 3.411319e-01 2.918847e-01 2.318418e-01 1.801133e-01 1.174353e-01 6.365617e-02 1.033343e-03 5.635596e-02 1.223425e-01 1.786267e-01 2.451134e-01 3.017082e-01 3.678286e-01 4.240232e-01 4.888586e-01 5.438951e-01 6.064955e-01 6.595845e-01 7.189929e-01 7.693328e-01 8.246112e-01 8.714086e-01 9.216651e-01 9.641572e-01 1.008573e+00 1.046050e+00 1.083903e+00 1.115731e+00 1.146420e+00 1.172061e+00 1.195122e+00 1.214150e+00 1.229268e+00 1.241385e+00 1.248406e+00 1.253450e+00 1.252376e+00 1.250327e+00 1.241316e+00 1.232291e+00 1.215645e+00 1.199892e+00 1.176043e+00 1.153931e+00 1.123418e+00 1.095416e+00 1.058867e+00 1.025528e+00 9.836344e-01 9.455724e-01 8.990632e-01 8.569320e-01 8.065547e-01 7.610273e-01 7.075269e-01 6.592770e-01 6.033790e-01 5.530660e-01 4.954641e-01 4.437208e-01 3.850676e-01 3.324916e-01 
2.781648e-01 2.266005e-01 1.699604e-01 1.213360e-01 7.408191e-02 5.464796e-02 8.056784e-02 1.227112e-01 1.744607e-01 2.216909e-01 2.742664e-01 3.207507e-01 3.717910e-01 4.164516e-01 4.652321e-01 5.075762e-01 5.536828e-01 5.933769e-01 6.365030e-01 6.732859e-01 7.131809e-01 7.468380e-01 7.832898e-01 8.136435e-01 8.464713e-01 8.733767e-01 9.024270e-01 9.257692e-01 9.509129e-01 9.706051e-01 9.917346e-01 1.007715e+00 1.024741e+00 1.036969e+00 1.049819e+00 1.058272e+00 1.066883e+00 1.071553e+00 1.075869e+00 1.076756e+00 1.076729e+00 1.073838e+00 1.069418e+00 1.062757e+00 1.053897e+00 1.043472e+00 1.030125e+00 1.015942e+00 9.980643e-01 9.801264e-01 9.576829e-01 9.359978e-01 9.089660e-01 8.835481e-01 8.519284e-01 8.228062e-01 7.866319e-01 7.538570e-01 7.132066e-01 6.768643e-01 6.318765e-01 5.921000e-01 5.429924e-01 4.999820e-01 4.470812e-01 4.011413e-01 3.449505e-01 2.965932e-01 2.380384e-01 1.884649e-01 1.305099e-01 8.642948e-02 6.003468e-02 8.340912e-02 1.376694e-01 1.899029e-01 2.538797e-01 3.091191e-01 3.742352e-01 4.297365e-01 4.940536e-01 5.486461e-01 6.109406e-01 6.637019e-01 7.229131e-01 7.729867e-01 8.281286e-01 8.746957e-01 9.248510e-01 9.671363e-01 1.011471e+00 1.048759e+00 1.086543e+00 1.118196e+00 1.148822e+00 1.174302e+00 1.197302e+00 1.216183e+00 1.231241e+00 1.243227e+00 1.250187e+00 1.255117e+00 1.253983e+00 1.251837e+00 1.242768e+00 1.233664e+00 1.216965e+00 1.201152e+00 1.177257e+00 1.155105e+00 1.124556e+00 1.096537e+00 1.059967e+00 1.026634e+00 9.847381e-01 9.467097e-01 9.002236e-01 8.581576e-01 8.078377e-01 7.624144e-01 7.090188e-01 6.609255e-01 6.052021e-01 5.551233e-01 4.978084e-01 4.464297e-01 3.882686e-01 3.363168e-01 
2.955424e-01 2.471657e-01 1.960503e-01 1.551069e-01 1.210101e-01 1.092790e-01 1.236067e-01 1.538166e-01 1.971845e-01 2.396249e-01 2.887052e-01 3.329439e-01 3.821864e-01 4.255886e-01 4.733015e-01 5.148557e-01 5.602676e-01 5.994279e-01 6.420740e-01 6.784777e-01 7.180272e-01 7.514055e-01 7.876020e-01 8.177459e-01 8.503822e-01 8.771278e-01 9.060338e-01 9.292545e-01 9.542908e-01 9.738920e-01 9.949443e-01 1.010860e+00 1.027835e+00 1.040022e+00 1.052844e+00 1.061280e+00 1.069885e+00 1.074560e+00 1.078894e+00 1.079811e+00 1.079823e+00 1.076988e+00 1.072632e+00 1.066055e+00 1.057283e+00 1.046974e+00 1.033742e+00 1.019709e+00 1.001975e+00 9.842284e-01 9.619614e-01 9.405131e-01 9.136969e-01 8.885701e-01 8.572148e-01 8.284502e-01 7.926052e-01 7.602736e-01 7.200447e-01 6.842631e-01 6.398367e-01 6.007935e-01 5.524760e-01 5.104770e-01 4.587740e-01 4.143468e-01 3.601690e-01 3.143757e-01 2.597555e-01 2.154506e-01 1.669586e-01 1.354985e-01 1.201946e-01 1.334609e-01 1.725830e-01 2.165235e-01 2.743880e-01 3.261356e-01 3.884885e-01 4.421822e-01 5.050290e-01 5.585508e-01 6.199842e-01 6.720632e-01 7.307416e-01 7.803672e-01 8.351688e-01 8.814433e-01 9.313766e-01 9.734791e-01 1.017667e+00 1.054852e+00 1.092536e+00 1.124148e+00 1.154703e+00 1.180187e+00 1.203135e+00 1.222053e+00 1.237072e+00 1.249117e+00 1.256047e+00 1.261052e+00 1.259897e+00 1.257836e+00 1.248756e+00 1.239743e+00 1.223046e+00 1.207332e+00 1.183457e+00 1.161412e+00 1.130908e+00 1.103007e+00 1.066517e+00 1.033322e+00 9.915513e-01 9.536923e-01 9.073932e-01 8.655449e-01 8.154975e-01 7.703670e-01 7.173662e-01 6.696833e-01 6.145395e-01 5.650641e-01 5.086297e-01 4.581948e-01 4.014593e-01 3.511233e-01 
3.204693e-01 2.763577e-01 2.316872e-01 1.980452e-01 1.725645e-01 1.642707e-01 1.740541e-01 1.963858e-01 2.318589e-01 2.686456e-01 3.131487e-01 3.541445e-01 4.007303e-01 4.421333e-01 4.881728e-01 5.283908e-01 5.726727e-01 6.108816e-01 6.527238e-01 6.884168e-01 7.273726e-01 7.602001e-01 7.959460e-01 8.256510e-01 8.579392e-01 8.843276e-01 9.129622e-01 9.358880e-01 9.607125e-01 9.800686e-01 1.000958e+00 1.016670e+00 1.033524e+00 1.045545e+00 1.058282e+00 1.066586e+00 1.075141e+00 1.079720e+00 1.084036e+00 1.084893e+00 1.084921e+00 1.082064e+00 1.077756e+00 1.071200e+00 1.062512e+00 1.052270e+00 1.039160e+00 1.025247e+00 1.007679e+00 9.901111e-01 9.680592e-01 9.468608e-01 9.203198e-01 8.955278e-01 8.645245e-01 8.362010e-01 8.008116e-01 7.690592e-01 7.294338e-01 6.944206e-01 6.508209e-01 6.128221e-01 5.656888e-01 5.251659e-01 4.752597e-01 4.330447e-01 3.818005e-01 3.395973e-01 2.901795e-01 2.521569e-01 2.128866e-01 1.903078e-01 1.806690e-01 1.907547e-01 2.208224e-01 2.572960e-01 3.083474e-01 3.555938e-01 4.141762e-01 4.651687e-01 5.258346e-01 5.775852e-01 6.376779e-01 6.885032e-01 7.463165e-01 7.950027e-01 8.492228e-01 8.947647e-01 9.442906e-01 9.858066e-01 1.029694e+00 1.066403e+00 1.103852e+00 1.135074e+00 1.165433e+00 1.190597e+00 1.213371e+00 1.232029e+00 1.246887e+00 1.258726e+00 1.265503e+00 1.270349e+00 1.269051e+00 1.266876e+00 1.257667e+00 1.248585e+00 1.231780e+00 1.216041e+00 1.192091e+00 1.170070e+00 1.139537e+00 1.111716e+00 1.075258e+00 1.042211e+00 1.000556e+00 9.629271e-01 9.168541e-01 8.753444e-01 8.256720e-01 7.810262e-01 7.286071e-01 6.816172e-01 6.273563e-01 5.788901e-01 5.238071e-01 4.748997e-01 4.203091e-01 3.724306e-01 
3.544087e-01 3.144612e-01 2.754421e-01 2.470573e-01 2.264921e-01 2.194258e-01 2.262381e-01 2.431333e-01 2.721181e-01 3.035320e-01 3.431934e-01 3.805561e-01 4.239838e-01 4.629882e-01 5.069286e-01 5.455026e-01 5.883313e-01 6.253654e-01 6.661636e-01 7.009868e-01 7.391703e-01 7.713356e-01 8.064982e-01 8.356881e-01 8.675299e-01 8.935122e-01 9.218038e-01 9.444074e-01 9.689706e-01 9.880725e-01 1.008768e+00 1.024284e+00 1.041002e+00 1.052880e+00 1.065534e+00 1.073747e+00 1.082269e+00 1.086808e+00 1.091141e+00 1.092011e+00 1.092106e+00 1.089321e+00 1.085132e+00 1.078711e+00 1.070197e+00 1.060160e+00 1.047283e+00 1.033653e+00 1.016381e+00 9.991854e-01 9.775022e-01 9.567776e-01 9.306909e-01 9.064925e-01 8.760496e-01 8.484651e-01 8.137750e-01 7.829455e-01 7.442119e-01 7.103658e-01 6.679395e-01 6.314494e-01 5.859233e-01 5.474170e-01 4.998183e-01 4.604166e-01 4.126464e-01 3.745313e-01 3.304402e-01 2.982230e-01 2.659478e-01 2.488282e-01 2.417339e-01 2.498012e-01 2.737512e-01 3.041992e-01 3.488099e-01 3.913466e-01 4.456524e-01 4.934958e-01 5.514755e-01 6.010994e-01 6.594808e-01 7.088258e-01 7.655252e-01 8.131591e-01 8.666398e-01 9.114288e-01 9.604540e-01 1.001436e+00 1.044976e+00 1.081317e+00 1.118514e+00 1.149496e+00 1.179663e+00 1.204686e+00 1.227304e+00 1.245899e+00 1.260623e+00 1.272457e+00 1.279117e+00 1.284003e+00 1.282603e+00 1.280503e+00 1.271212e+00 1.262235e+00 1.245377e+00 1.229772e+00 1.205809e+00 1.183954e+00 1.153467e+00 1.125854e+00 1.089519e+00 1.056737e+00 1.015309e+00 9.780258e-01 9.323187e-01 8.912693e-01 8.421487e-01 7.981281e-01 7.465166e-01 7.003941e-01 6.473055e-01 6.000733e-01 5.467077e-01 4.996104e-01 4.475898e-01 4.024527e-01 
3.927674e-01 3.567994e-01 3.226743e-01 2.984036e-01 2.813537e-01 2.752370e-01 2.804546e-01 2.937950e-01 3.179832e-01 3.448314e-01 3.800219e-01 4.137038e-01 4.538068e-01 4.901137e-01 5.316702e-01 5.682685e-01 6.093665e-01 6.449200e-01 6.844331e-01 7.181172e-01 7.553258e-01 7.865934e-01 8.210037e-01 8.494719e-01 8.807265e-01 9.061191e-01 9.339501e-01 9.560672e-01 9.802705e-01 9.989698e-01 1.019388e+00 1.034574e+00 1.051087e+00 1.062699e+00 1.075214e+00 1.083222e+00 1.091666e+00 1.096062e+00 1.100377e+00 1.101169e+00 1.101305e+00 1.098511e+00 1.094425e+00 1.088071e+00 1.079724e+00 1.069837e+00 1.057196e+00 1.043810e+00 1.026850e+00 1.010006e+00 9.887210e-01 9.684709e-01 9.428851e-01 9.193067e-01 8.894927e-01 8.627051e-01 8.288114e-01 7.990017e-01 7.612943e-01 7.287594e-01 6.876892e-01 6.529078e-01 6.092279e-01 5.729923e-01 5.279842e-01 4.916626e-01 4.475938e-01 4.136623e-01 3.746891e-01 3.476799e-01 3.210936e-01 3.081889e-01 3.033547e-01 3.108331e-01 3.313551e-01 3.576963e-01 3.972978e-01 4.356599e-01 4.859511e-01 5.305314e-01 5.857114e-01 6.328883e-01 6.893696e-01 7.368568e-01 7.922609e-01 8.384531e-01 8.910358e-01 9.346847e-01 9.830699e-01 1.023140e+00 1.066203e+00 1.101811e+00 1.138634e+00 1.169026e+00 1.198879e+00 1.223433e+00 1.245770e+00 1.263996e+00 1.278458e+00 1.290012e+00 1.296423e+00 1.301106e+00 1.299473e+00 1.297239e+00 1.287739e+00 1.278694e+00 1.261665e+00 1.246060e+00 1.221982e+00 1.200201e+00 1.169675e+00 1.142221e+00 1.105953e+00 1.073432e+00 1.032210e+00 9.953167e-01 9.499957e-01 9.095020e-01 8.610045e-01 8.177596e-01 7.670865e-01 7.220405e-01 6.703208e-01 6.245891e-01 5.731963e-01 5.282098e-01 4.790174e-01 4.368525e-01 
4.369234e-01 4.041628e-01 3.737416e-01 3.521986e-01 3.372333e-01 3.313321e-01 3.350835e-01 3.455733e-01 3.658480e-01 3.887635e-01 4.198716e-01 4.500442e-01 4.868224e-01 5.203812e-01 5.594143e-01 5.939243e-01 6.331278e-01 6.670883e-01 7.051676e-01 7.376193e-01 7.737291e-01 8.040280e-01 8.375870e-01 8.652829e-01 8.958732e-01 9.206438e-01 9.479561e-01 9.695700e-01 9.933720e-01 1.011666e+00 1.031782e+00 1.046648e+00 1.062945e+00 1.074316e+00 1.086695e+00 1.094538e+00 1.102922e+00 1.107232e+00 1.111562e+00 1.112349e+00 1.112577e+00 1.109868e+00 1.105954e+00 1.099780e+00 1.091688e+00 1.082090e+00 1.069793e+00 1.056814e+00 1.040295e+00 1.023991e+00 1.003254e+00 9.836956e-01 9.587829e-01 9.360709e-01 9.070799e-01 8.813658e-01 8.484846e-01 8.199999e-01 7.835557e-01 7.526613e-01 7.131980e-01 6.804635e-01 6.388725e-01 6.052155e-01 5.629670e-01 5.299010e-01 4.894535e-01 4.595100e-01 4.249476e-01 4.022096e-01 3.797112e-01 3.696602e-01 3.659992e-01 3.728598e-01 3.906170e-01 4.136486e-01 4.489214e-01 4.835014e-01 5.299215e-01 5.712823e-01 6.235559e-01 6.682189e-01 7.226447e-01 7.682140e-01 8.221923e-01 8.669315e-01 9.185281e-01 9.610845e-01 1.008781e+00 1.048042e+00 1.090613e+00 1.125636e+00 1.162092e+00 1.192081e+00 1.221642e+00 1.245936e+00 1.268026e+00 1.286107e+00 1.300347e+00 1.311844e+00 1.318051e+00 1.322746e+00 1.320927e+00 1.318760e+00 1.309101e+00 1.300170e+00 1.283022e+00 1.267575e+00 1.243437e+00 1.221864e+00 1.191362e+00 1.164179e+00 1.128049e+00 1.095882e+00 1.054947e+00 1.018521e+00 9.736825e-01 9.338112e-01 8.860474e-01 8.436379e-01 7.940255e-01 7.501069e-01 6.998768e-01 6.556713e-01 6.063308e-01 5.634027e-01 5.169715e-01 4.775077e-01 
4.836572e-01 4.537880e-01 4.265340e-01 4.072504e-01 3.940130e-01 3.884034e-01 3.912638e-01 3.997146e-01 4.170519e-01 4.367531e-01 4.643752e-01 4.913289e-01 5.249693e-01 5.557788e-01 5.922561e-01 6.245418e-01 6.617294e-01 6.939125e-01 7.304107e-01 7.614358e-01 7.963011e-01 8.254433e-01 8.580168e-01 8.847642e-01 9.145707e-01 9.385559e-01 9.652452e-01 9.862048e-01 1.009515e+00 1.027264e+00 1.047000e+00 1.061416e+00 1.077432e+00 1.088441e+00 1.100628e+00 1.108194e+00 1.116472e+00 1.120591e+00 1.124900e+00 1.125588e+00 1.125881e+00 1.123170e+00 1.119408e+00 1.113340e+00 1.105492e+00 1.096118e+00 1.084162e+00 1.071540e+00 1.055468e+00 1.039668e+00 1.019497e+00 1.000611e+00 9.763993e-01 9.545550e-01 9.264285e-01 9.018105e-01 8.699995e-01 8.428857e-01 8.077795e-01 7.785934e-01 7.408264e-01 7.102206e-01 6.708076e-01 6.397989e-01 6.003556e-01 5.705402e-01 5.336179e-01 5.074703e-01 4.769489e-01 4.580476e-01 4.391364e-01 4.316984e-01 4.294624e-01 4.364189e-01 4.527281e-01 4.736297e-01 5.058570e-01 5.374451e-01 5.807149e-01 6.191591e-01 6.688295e-01 7.109707e-01 7.634299e-01 8.069026e-01 8.594465e-01 9.024613e-01 9.530184e-01 9.941602e-01 1.041092e+00 1.079195e+00 1.121183e+00 1.155264e+00 1.191248e+00 1.220478e+00 1.249630e+00 1.273323e+00 1.295036e+00 1.312651e+00 1.326531e+00 1.337677e+00 1.343536e+00 1.347982e+00 1.345831e+00 1.343506e+00 1.333544e+00 1.324539e+00 1.307138e+00 1.291702e+00 1.267385e+00 1.245913e+00 1.215338e+00 1.188361e+00 1.152298e+00 1.120463e+00 1.079776e+00 1.043839e+00 9.994780e-01 9.602919e-01 9.132949e-01 8.718212e-01 8.233368e-01 7.806746e-01 7.320226e-01 6.894787e-01 6.422651e-01 6.014872e-01 5.577990e-01 5.209864e-01 
5.343816e-01 5.066672e-01 4.817117e-01 4.638575e-01 4.516099e-01 4.458669e-01 4.477408e-01 4.543384e-01 4.691123e-01 4.859856e-01 5.104768e-01 5.344772e-01 5.651514e-01 5.933265e-01 6.272816e-01 6.573680e-01 6.925043e-01 7.228949e-01 7.577509e-01 7.873224e-01 8.208776e-01 8.488368e-01 8.803643e-01 9.061429e-01 9.351142e-01 9.583018e-01 9.843264e-01 1.004628e+00 1.027416e+00 1.044626e+00 1.063962e+00 1.077944e+00 1.093669e+00 1.104343e+00 1.116342e+00 1.123672e+00 1.131862e+00 1.135846e+00 1.140167e+00 1.140827e+00 1.141234e+00 1.138613e+00 1.135071e+00 1.129222e+00 1.121705e+00 1.112691e+00 1.101184e+00 1.089078e+00 1.073580e+00 1.058470e+00 1.039010e+00 1.021008e+00 9.976616e-01 9.769180e-01 9.498357e-01 9.265671e-01 8.960147e-01 8.705377e-01 8.369561e-01 8.097416e-01 7.738346e-01 7.455890e-01 7.084545e-01 6.802398e-01 6.435618e-01 6.169643e-01 5.832611e-01 5.605765e-01 5.333996e-01 5.176677e-01 5.013783e-01 4.958682e-01 4.944068e-01 5.012806e-01 5.161682e-01 5.352169e-01 5.646975e-01 5.936057e-01 6.339172e-01 6.696282e-01 7.167422e-01 7.564535e-01 8.069220e-01 8.483648e-01 8.994371e-01 9.408118e-01 9.903068e-01 1.030156e+00 1.076323e+00 1.113433e+00 1.154858e+00 1.188202e+00 1.223751e+00 1.252457e+00 1.281250e+00 1.304595e+00 1.325988e+00 1.343398e+00 1.356976e+00 1.368029e+00 1.373598e+00 1.378037e+00 1.375611e+00 1.373346e+00 1.363135e+00 1.354245e+00 1.336640e+00 1.321371e+00 1.296923e+00 1.275674e+00 1.245071e+00 1.218388e+00 1.182435e+00 1.150988e+00 1.110593e+00 1.075170e+00 1.031327e+00 9.928236e-01 9.466248e-01 9.060527e-01 8.587062e-01 8.172233e-01 7.701115e-01 7.290825e-01 6.838593e-01 6.449620e-01 6.036967e-01 5.690602e-01 
5.869417e-01 5.611931e-01 5.382773e-01 5.217018e-01 5.103808e-01 5.046346e-01 5.058578e-01 5.110423e-01 5.238182e-01 5.383448e-01 5.601837e-01 5.815413e-01 6.095168e-01 6.351753e-01 6.666994e-01 6.945706e-01 7.276393e-01 7.561467e-01 7.892895e-01 8.172804e-01 8.494314e-01 8.760663e-01 9.064481e-01 9.311140e-01 9.591532e-01 9.814019e-01 1.006672e+00 1.026180e+00 1.048364e+00 1.064905e+00 1.083768e+00 1.097193e+00 1.112564e+00 1.122786e+00 1.134543e+00 1.141524e+00 1.149580e+00 1.153323e+00 1.157617e+00 1.158151e+00 1.158641e+00 1.156018e+00 1.152672e+00 1.146957e+00 1.139754e+00 1.131025e+00 1.119955e+00 1.108300e+00 1.093371e+00 1.078898e+00 1.060150e+00 1.042989e+00 1.020514e+00 1.000844e+00 9.748172e-01 9.528828e-01 9.236057e-01 8.997608e-01 8.677227e-01 8.424805e-01 8.084471e-01 7.825558e-01 7.476915e-01 7.222366e-01 6.882649e-01 6.647918e-01 6.341657e-01 6.147748e-01 5.907371e-01 5.780054e-01 5.642573e-01 5.607475e-01 5.604349e-01 5.677482e-01 5.820933e-01 6.000843e-01 6.278182e-01 6.547501e-01 6.928882e-01 7.262987e-01 7.713590e-01 8.088082e-01 8.575707e-01 8.969508e-01 9.466937e-01 9.862566e-01 1.034741e+00 1.073034e+00 1.118427e+00 1.154223e+00 1.195032e+00 1.227284e+00 1.262312e+00 1.290128e+00 1.318448e+00 1.341083e+00 1.362020e+00 1.378877e+00 1.392003e+00 1.402641e+00 1.407757e+00 1.411901e+00 1.409032e+00 1.406576e+00 1.395952e+00 1.386967e+00 1.369005e+00 1.353733e+00 1.329016e+00 1.307865e+00 1.277118e+00 1.250645e+00 1.214715e+00 1.183615e+00 1.143452e+00 1.108540e+00 1.065188e+00 1.027398e+00 9.819963e-01 9.423832e-01 8.961917e-01 8.559566e-01 8.104008e-01 7.709417e-01 7.276904e-01 6.906765e-01 6.517351e-01 6.191821e-01 
6.425856e-01 6.181947e-01 5.966929e-01 5.808286e-01 5.699551e-01 5.638888e-01 5.643154e-01 5.680957e-01 5.790137e-01 5.913896e-01 6.108046e-01 6.297324e-01 6.551910e-01 6.784877e-01 7.076844e-01 7.334331e-01 7.644763e-01 7.911506e-01 8.225847e-01 8.490205e-01 8.797522e-01 9.050766e-01 9.342889e-01 9.578508e-01 9.849318e-01 1.006250e+00 1.030741e+00 1.049465e+00 1.071025e+00 1.086911e+00 1.105287e+00 1.118174e+00 1.133185e+00 1.142982e+00 1.154501e+00 1.161172e+00 1.169111e+00 1.172665e+00 1.176964e+00 1.177441e+00 1.178062e+00 1.175524e+00 1.172442e+00 1.166971e+00 1.160169e+00 1.151857e+00 1.141332e+00 1.130285e+00 1.116053e+00 1.102396e+00 1.084506e+00 1.068390e+00 1.046949e+00 1.028573e+00 1.003773e+00 9.834077e-01 9.555744e-01 9.335981e-01 9.032545e-01 8.802026e-01 8.481501e-01 8.247813e-01 7.922098e-01 7.695863e-01 7.382000e-01 7.177686e-01 6.898912e-01 6.735150e-01 6.520643e-01 6.418972e-01 6.300358e-01 6.281087e-01 6.284423e-01 6.359988e-01 6.496058e-01 6.665860e-01 6.925907e-01 7.177020e-01 7.537315e-01 7.849994e-01 8.280439e-01 8.633672e-01 9.104364e-01 9.478866e-01 9.963095e-01 1.034214e+00 1.081710e+00 1.118634e+00 1.163295e+00 1.198005e+00 1.238259e+00 1.269685e+00 1.304266e+00 1.331487e+00 1.359414e+00 1.381651e+00 1.402215e+00 1.418835e+00 1.431587e+00 1.442115e+00 1.446852e+00 1.450980e+00 1.447734e+00 1.445332e+00 1.434350e+00 1.425472e+00 1.407198e+00 1.392080e+00 1.367127e+00 1.346179e+00 1.315310e+00 1.289106e+00 1.253208e+00 1.222464e+00 1.182530e+00 1.148095e+00 1.105211e+00 1.068055e+00 1.023402e+00 9.846195e-01 9.394910e-01 9.003159e-01 8.561565e-01 8.179990e-01 7.764562e-01 7.409487e-01 7.039244e-01 6.729472e-01 
6.998910e-01 6.767834e-01 6.565948e-01 6.414269e-01 6.310340e-01 6.247815e-01 6.246410e-01 6.272986e-01 6.367141e-01 6.472616e-01 6.645961e-01 6.813470e-01 7.045304e-01 7.256058e-01 7.526014e-01 7.762672e-01 8.053209e-01 8.301294e-01 8.598322e-01 8.846358e-01 9.138925e-01 9.378038e-01 9.657750e-01 9.881179e-01 1.014164e+00 1.034431e+00 1.058066e+00 1.075886e+00 1.096748e+00 1.111859e+00 1.129681e+00 1.141912e+00 1.156504e+00 1.165761e+00 1.176988e+00 1.183238e+00 1.191012e+00 1.194268e+00 1.198532e+00 1.198846e+00 1.199564e+00 1.197012e+00 1.194163e+00 1.188841e+00 1.182415e+00 1.174432e+00 1.164430e+00 1.153911e+00 1.140356e+00 1.127443e+00 1.110394e+00 1.095259e+00 1.074833e+00 1.057696e+00 1.034104e+00 1.015257e+00 9.888484e-01 9.686936e-01 9.400194e-01 9.191096e-01 8.890021e-01 8.680996e-01 8.377665e-01 8.179024e-01 7.890233e-01 7.715449e-01 7.463257e-01 7.328838e-01 7.139752e-01 7.063763e-01 6.965282e-01 6.963873e-01 6.977971e-01 7.060595e-01 7.196555e-01 7.362543e-01 7.613764e-01 7.852799e-01 8.199708e-01 8.495531e-01 8.911777e-01 9.246272e-01 9.704176e-01 1.005996e+00 1.053363e+00 1.089506e+00 1.136161e+00 1.171494e+00 1.215480e+00 1.248795e+00 1.288481e+00 1.318719e+00 1.352784e+00 1.379020e+00 1.406442e+00 1.427885e+00 1.447929e+00 1.463929e+00 1.476135e+00 1.486194e+00 1.490364e+00 1.494152e+00 1.490335e+00 1.487704e+00 1.476173e+00 1.467163e+00 1.448395e+00 1.433237e+00 1.407887e+00 1.386996e+00 1.355869e+00 1.329829e+00 1.293857e+00 1.263409e+00 1.223627e+00 1.189646e+00 1.147181e+00 1.110668e+00 1.066738e+00 1.028815e+00 9.847368e-01 9.466569e-01 9.038763e-01 8.670429e-01 8.271646e-01 7.931520e-01 7.579564e-01 7.284995e-01 
7.598276e-01 7.374897e-01 7.181309e-01 7.032179e-01 6.929444e-01 6.862359e-01 6.853719e-01 6.868429e-01 6.947892e-01 7.035939e-01 7.189816e-01 7.337017e-01 7.547587e-01 7.737563e-01 7.986706e-01 8.203691e-01 8.475142e-01 8.705427e-01 8.985617e-01 9.217948e-01 9.495999e-01 9.721429e-01 9.988799e-01 1.020037e+00 1.045044e+00 1.064286e+00 1.087057e+00 1.103993e+00 1.124147e+00 1.138502e+00 1.155760e+00 1.167358e+00 1.181522e+00 1.190268e+00 1.201203e+00 1.207068e+00 1.214689e+00 1.217697e+00 1.221951e+00 1.222168e+00 1.223027e+00 1.220544e+00 1.217994e+00 1.212926e+00 1.206962e+00 1.199438e+00 1.190068e+00 1.180230e+00 1.167484e+00 1.155492e+00 1.139433e+00 1.125478e+00 1.106232e+00 1.090550e+00 1.068334e+00 1.051233e+00 1.026410e+00 1.008299e+00 9.814309e-01 9.628619e-01 9.347844e-01 9.164952e-01 8.883992e-01 8.713554e-01 8.448560e-01 8.302722e-01 8.074269e-01 7.967299e-01 7.799321e-01 7.746188e-01 7.662835e-01 7.676451e-01 7.696868e-01 7.784671e-01 7.917518e-01 8.079106e-01 8.319891e-01 8.547228e-01 8.879969e-01 9.159834e-01 9.561491e-01 9.878457e-01 1.032343e+00 1.066203e+00 1.112526e+00 1.147103e+00 1.192959e+00 1.226943e+00 1.270325e+00 1.302539e+00 1.341750e+00 1.371136e+00 1.404792e+00 1.430412e+00 1.457443e+00 1.478478e+00 1.498114e+00 1.513877e+00 1.525643e+00 1.535596e+00 1.539294e+00 1.543069e+00 1.538759e+00 1.536175e+00 1.524154e+00 1.515228e+00 1.496007e+00 1.480959e+00 1.455230e+00 1.434477e+00 1.403088e+00 1.377231e+00 1.341155e+00 1.310957e+00 1.271272e+00 1.237641e+00 1.195509e+00 1.159478e+00 1.116144e+00 1.078863e+00 1.035657e+00 9.983923e-01 9.567444e-01 9.208844e-01 8.823392e-01 8.493947e-01 8.156044e-01 7.871743e-01 
8.215238e-01 7.999555e-01 7.814066e-01 7.667954e-01 7.567057e-01 7.496684e-01 7.482496e-01 7.487353e-01 7.554505e-01 7.627386e-01 7.764208e-01 7.893034e-01 8.084245e-01 8.254718e-01 8.484237e-01 8.682117e-01 8.935004e-01 9.147466e-01 9.410835e-01 9.627007e-01 9.890220e-01 1.010123e+00 1.035573e+00 1.055453e+00 1.079359e+00 1.097474e+00 1.119314e+00 1.135258e+00 1.154638e+00 1.168127e+00 1.184758e+00 1.195609e+00 1.209288e+00 1.217407e+00 1.227999e+00 1.233364e+00 1.240784e+00 1.243431e+00 1.247633e+00 1.247639e+00 1.248600e+00 1.246078e+00 1.243789e+00 1.238870e+00 1.233334e+00 1.226167e+00 1.217396e+00 1.208141e+00 1.196170e+00 1.185007e+00 1.169903e+00 1.157040e+00 1.138935e+00 1.124624e+00 1.103743e+00 1.088306e+00 1.065020e+00 1.048874e+00 1.023756e+00 1.007448e+00 9.813376e-01 9.655834e-01 9.396567e-01 9.253604e-01 9.011800e-01 8.894390e-01 8.689443e-01 8.609960e-01 8.463808e-01 8.434670e-01 8.368899e-01 8.400336e-01 8.431832e-01 8.529377e-01 8.665976e-01 8.828854e-01 9.067135e-01 9.288462e-01 9.614762e-01 9.883304e-01 1.027700e+00 1.057940e+00 1.101661e+00 1.133913e+00 1.179560e+00 1.212512e+00 1.257804e+00 1.290236e+00 1.333137e+00 1.363934e+00 1.402698e+00 1.430844e+00 1.464042e+00 1.488616e+00 1.515141e+00 1.535325e+00 1.554390e+00 1.569482e+00 1.580610e+00 1.590051e+00 1.593054e+00 1.596448e+00 1.591415e+00 1.588555e+00 1.575818e+00 1.566704e+00 1.546816e+00 1.531658e+00 1.505360e+00 1.484576e+00 1.452764e+00 1.426967e+00 1.390662e+00 1.360637e+00 1.320956e+00 1.287636e+00 1.245777e+00 1.210221e+00 1.167447e+00 1.130822e+00 1.088464e+00 1.052038e+00 1.011499e+00 9.766324e-01 9.393838e-01 9.075133e-01 8.750752e-01 8.476644e-01 
8.856159e-01 8.643593e-01 8.462187e-01 8.315302e-01 8.213252e-01 8.137122e-01 8.115838e-01 8.109862e-01 8.164540e-01 8.222490e-01 8.343024e-01 8.454426e-01 8.627439e-01 8.779616e-01 8.990680e-01 9.170637e-01 9.405946e-01 9.601617e-01 9.848909e-01 1.004977e+00 1.029866e+00 1.049592e+00 1.073787e+00 1.092442e+00 1.115262e+00 1.132290e+00 1.153201e+00 1.168185e+00 1.186783e+00 1.199431e+00 1.215423e+00 1.225551e+00 1.238733e+00 1.246250e+00 1.256491e+00 1.261388e+00 1.268611e+00 1.270937e+00 1.275105e+00 1.274959e+00 1.276059e+00 1.273573e+00 1.271607e+00 1.266937e+00 1.261915e+00 1.255228e+00 1.247169e+00 1.238648e+00 1.227589e+00 1.217432e+00 1.203441e+00 1.191870e+00 1.175079e+00 1.162358e+00 1.142990e+00 1.129444e+00 1.107866e+00 1.093909e+00 1.070684e+00 1.056842e+00 1.032790e+00 1.019729e+00 9.959839e-01 9.845222e-01 9.625641e-01 9.536612e-01 9.352928e-01 9.299917e-01 9.172155e-01 9.165255e-01 9.112886e-01 9.160131e-01 9.198476e-01 9.304035e-01 9.440704e-01 9.603764e-01 9.836670e-01 1.005157e+00 1.036934e+00 1.062678e+00 1.101111e+00 1.129977e+00 1.172844e+00 1.203637e+00 1.248592e+00 1.280134e+00 1.324902e+00 1.356071e+00 1.398574e+00 1.428315e+00 1.466751e+00 1.494073e+00 1.526953e+00 1.550937e+00 1.577107e+00 1.596913e+00 1.615555e+00 1.630444e+00 1.641070e+00 1.650434e+00 1.652862e+00 1.656258e+00 1.650595e+00 1.647773e+00 1.634384e+00 1.625312e+00 1.604790e+00 1.589663e+00 1.562794e+00 1.542032e+00 1.509759e+00 1.483990e+00 1.447380e+00 1.417417e+00 1.377628e+00 1.344437e+00 1.302695e+00 1.267367e+00 1.224952e+00 1.188678e+00 1.146916e+00 1.110968e+00 1.071227e+00 1.036941e+00 1.000619e+00 9.693655e-01 9.378591e-01 9.109895e-01 
9.517000e-01 9.308002e-01 9.130865e-01 8.983966e-01 8.881463e-01 8.800765e-01 8.773653e-01 8.758401e-01 8.802252e-01 8.846943e-01 8.952872e-01 9.048323e-01 9.204545e-01 9.339486e-01 9.533054e-01 9.695655e-01 9.913876e-01 1.009286e+00 1.032417e+00 1.050945e+00 1.074380e+00 1.092677e+00 1.115576e+00 1.132931e+00 1.154611e+00 1.170463e+00 1.190386e+00 1.204311e+00 1.222068e+00 1.233768e+00 1.249063e+00 1.258356e+00 1.270985e+00 1.277786e+00 1.287623e+00 1.291933e+00 1.298909e+00 1.300795e+00 1.304882e+00 1.304463e+00 1.305658e+00 1.303089e+00 1.301402e+00 1.296861e+00 1.292309e+00 1.285987e+00 1.278594e+00 1.270694e+00 1.260498e+00 1.251236e+00 1.238305e+00 1.227918e+00 1.212382e+00 1.201144e+00 1.183224e+00 1.171466e+00 1.151524e+00 1.139654e+00 1.118246e+00 1.106773e+00 1.084704e+00 1.074252e+00 1.052623e+00 1.043939e+00 1.024169e+00 1.018096e+00 1.001889e+00 9.993075e-01 9.885246e-01 9.902512e-01 9.866801e-01 9.933252e-01 9.983694e-01 1.010206e+00 1.024582e+00 1.041472e+00 1.065030e+00 1.086445e+00 1.118184e+00 1.143299e+00 1.181537e+00 1.209362e+00 1.251992e+00 1.281473e+00 1.326208e+00 1.356302e+00 1.400871e+00 1.430571e+00 1.472868e+00 1.501212e+00 1.539389e+00 1.565453e+00 1.597980e+00 1.620885e+00 1.646579e+00 1.665500e+00 1.683533e+00 1.697721e+00 1.707609e+00 1.716432e+00 1.718020e+00 1.720998e+00 1.714429e+00 1.711279e+00 1.696966e+00 1.687628e+00 1.666219e+00 1.650873e+00 1.623210e+00 1.602275e+00 1.569357e+00 1.543475e+00 1.506416e+00 1.476423e+00 1.436421e+00 1.403310e+00 1.361616e+00 1.326503e+00 1.284406e+00 1.248495e+00 1.207304e+00 1.171862e+00 1.132901e+00 1.099228e+00 1.063813e+00 1.033209e+00 1.002614e+00 9.763178e-01 
1.020040e+00 9.990667e-01 9.814265e-01 9.663874e-01 9.558297e-01 9.470673e-01 9.436258e-01 9.410579e-01 9.443234e-01 9.474559e-01 9.566355e-01 9.646479e-01 9.786864e-01 9.905587e-01 1.008279e+00 1.022919e+00 1.043141e+00 1.059483e+00 1.081108e+00 1.098180e+00 1.120234e+00 1.137186e+00 1.158839e+00 1.174961e+00 1.195531e+00 1.210257e+00 1.229203e+00 1.242104e+00 1.259014e+00 1.269792e+00 1.284372e+00 1.292848e+00 1.304902e+00 1.311003e+00 1.320417e+00 1.324160e+00 1.330879e+00 1.332355e+00 1.336366e+00 1.335720e+00 1.337037e+00 1.334450e+00 1.333098e+00 1.328776e+00 1.324780e+00 1.318942e+00 1.312332e+00 1.305201e+00 1.296014e+00 1.287824e+00 1.276127e+00 1.267128e+00 1.253039e+00 1.243510e+00 1.227239e+00 1.217508e+00 1.199398e+00 1.189856e+00 1.170437e+00 1.161558e+00 1.141597e+00 1.133946e+00 1.114485e+00 1.108714e+00 1.091088e+00 1.087905e+00 1.073699e+00 1.073819e+00 1.064754e+00 1.068807e+00 1.066533e+00 1.074960e+00 1.080794e+00 1.093758e+00 1.108416e+00 1.125754e+00 1.149187e+00 1.170430e+00 1.201798e+00 1.226248e+00 1.264039e+00 1.290859e+00 1.333091e+00 1.361389e+00 1.405834e+00 1.434709e+00 1.479096e+00 1.507659e+00 1.549837e+00 1.577211e+00 1.615270e+00 1.640583e+00 1.672931e+00 1.695318e+00 1.720725e+00 1.739343e+00 1.756952e+00 1.771011e+00 1.780334e+00 1.789141e+00 1.790034e+00 1.793048e+00 1.785684e+00 1.782562e+00 1.767395e+00 1.758035e+00 1.735761e+00 1.720323e+00 1.691838e+00 1.670742e+00 1.637099e+00 1.611008e+00 1.573370e+00 1.543155e+00 1.502761e+00 1.469456e+00 1.427584e+00 1.392343e+00 1.350289e+00 1.314344e+00 1.273404e+00 1.238027e+00 1.199482e+00 1.165952e+00 1.131045e+00 1.100605e+00 1.070505e+00 1.044307e+00 