# vtk DataFile Version 2.0
Comment goes here
ASCII

DATASET STRUCTURED_POINTS
FIELD FieldData 1
TIME 1 1 double
0.11000000
DIMENSIONS    128   128   1

ORIGIN    0.000   0.000   0.000
SPACING   0.039062 0.039062   1.000

POINT_DATA   16384
SCALARS uMag double
LOOKUP_TABLE default

3.910289e-01 3.360707e-01 2.793886e-01 2.241160e-01 1.677636e-01 1.127402e-01 5.726298e-02 2.994462e-03 5.111820e-02 1.041830e-01 1.564961e-01 2.079620e-01 2.580916e-01 3.076131e-01 3.552231e-01 4.025000e-01 4.472980e-01 4.920709e-01 5.338054e-01 5.758519e-01 6.143088e-01 6.534394e-01 6.884399e-01 7.244945e-01 7.558922e-01 7.887370e-01 8.164159e-01 8.459400e-01 8.698123e-01 8.959244e-01 9.159277e-01 9.385528e-01 9.546472e-01 9.737229e-01 9.858879e-01 1.001361e+00 1.009592e+00 1.021414e+00 1.025719e+00 1.033845e+00 1.034238e+00 1.038622e+00 1.035126e+00 1.035719e+00 1.028356e+00 1.025105e+00 1.013900e+00 1.006751e+00 9.917270e-01 9.806220e-01 9.618045e-01 9.466893e-01 9.241053e-01 9.049325e-01 8.786157e-01 8.553506e-01 8.253463e-01 7.979750e-01 7.643460e-01 7.328829e-01 6.957170e-01 6.602134e-01 6.196309e-01 5.801834e-01 5.363449e-01 4.931036e-01 4.462172e-01 3.993925e-01 3.497207e-01 2.995897e-01 2.474545e-01 1.943658e-01 1.401529e-01 8.452921e-02 2.869065e-02 2.896967e-02 8.591561e-02 1.450394e-01 2.025094e-01 2.624516e-01 3.198014e-01 3.798508e-01 4.363814e-01 4.957686e-01 5.507354e-01 6.086440e-01 6.612688e-01 7.168504e-01 7.663365e-01 8.187281e-01 8.642791e-01 9.126246e-01 9.534651e-01 9.969396e-01 1.032339e+00 1.070175e+00 1.099474e+00 1.130987e+00 1.153620e+00 1.178237e+00 1.193757e+00 1.211037e+00 1.219136e+00 1.228791e+00 1.229311e+00 1.231215e+00 1.224160e+00 1.218356e+00 1.203889e+00 1.190582e+00 1.169018e+00 1.148568e+00 1.120359e+00 1.093257e+00 1.058971e+00 1.025819e+00 9.861172e-01 9.476012e-01 9.032079e-01 8.600677e-01 8.117476e-01 7.647510e-01 7.132824e-01 6.632009e-01 6.093540e-01 5.569418e-01 5.014610e-01 4.474385e-01 
3.950201e-01 3.407074e-01 2.849193e-01 2.309324e-01 1.766916e-01 1.254805e-01 7.922452e-02 5.426709e-02 7.416194e-02 1.168727e-01 1.650338e-01 2.142273e-01 2.630338e-01 3.115866e-01 3.585616e-01 4.052934e-01 4.497215e-01 4.941400e-01 5.356338e-01 5.774299e-01 6.157192e-01 6.546642e-01 6.895429e-01 7.254566e-01 7.567635e-01 7.895009e-01 8.171115e-01 8.465548e-01 8.703758e-01 8.964297e-01 9.163952e-01 9.389817e-01 9.550496e-01 9.741046e-01 9.862527e-01 1.001721e+00 1.009944e+00 1.021778e+00 1.026081e+00 1.034234e+00 1.034634e+00 1.039057e+00 1.035574e+00 1.036220e+00 1.028877e+00 1.025691e+00 1.014514e+00 1.007440e+00 9.924515e-01 9.814334e-01 9.626587e-01 9.476412e-01 9.251091e-01 9.060448e-01 8.797910e-01 8.566465e-01 8.267193e-01 7.994831e-01 7.659505e-01 7.346420e-01 6.976000e-01 6.622794e-01 6.218625e-01 5.826433e-01 5.390373e-01 4.961021e-01 4.495648e-01 4.031944e-01 3.541012e-01 3.047509e-01 2.537425e-01 2.023636e-01 1.511623e-01 1.017930e-01 6.384814e-02 6.397261e-02 1.033164e-01 1.559545e-01 2.105638e-01 2.686922e-01 3.250077e-01 3.842243e-01 4.402402e-01 4.991519e-01 5.538164e-01 6.114202e-01 6.638475e-01 7.192202e-01 7.685668e-01 8.208098e-01 8.662554e-01 9.144933e-01 9.552499e-01 9.986465e-01 1.033976e+00 1.071757e+00 1.100995e+00 1.132471e+00 1.155050e+00 1.179644e+00 1.195117e+00 1.212387e+00 1.220443e+00 1.230099e+00 1.230583e+00 1.232498e+00 1.225414e+00 1.219630e+00 1.205143e+00 1.191867e+00 1.170293e+00 1.149885e+00 1.121678e+00 1.094631e+00 1.060363e+00 1.027283e+00 9.876178e-01 9.491919e-01 9.048604e-01 8.618346e-01 8.136082e-01 7.667589e-01 7.154275e-01 6.655404e-01 6.118943e-01 5.597493e-01 5.045712e-01 4.509417e-01 
4.071813e-01 3.544293e-01 3.010014e-01 2.501417e-01 2.009272e-01 1.573113e-01 1.233323e-01 1.084244e-01 1.194204e-01 1.493976e-01 1.893671e-01 2.333127e-01 2.787481e-01 3.248577e-01 3.701219e-01 4.154885e-01 4.589079e-01 5.024682e-01 5.433056e-01 5.845183e-01 6.223500e-01 6.608760e-01 6.954186e-01 7.310191e-01 7.620691e-01 7.945651e-01 8.219726e-01 8.512258e-01 8.748822e-01 9.007839e-01 9.206135e-01 9.430774e-01 9.590321e-01 9.779883e-01 9.900425e-01 1.005433e+00 1.013579e+00 1.025353e+00 1.029597e+00 1.037706e+00 1.038065e+00 1.042462e+00 1.038958e+00 1.039594e+00 1.032252e+00 1.029075e+00 1.017922e+00 1.010878e+00 9.959411e-01 9.849747e-01 9.662845e-01 9.513441e-01 9.289346e-01 9.099775e-01 8.838918e-01 8.608916e-01 8.311887e-01 8.041447e-01 7.709078e-01 7.398565e-01 7.032059e-01 6.682357e-01 6.283455e-01 5.896190e-01 5.467454e-01 5.045371e-01 4.590738e-01 4.138549e-01 3.664719e-01 3.191503e-01 2.712459e-01 2.240809e-01 1.797675e-01 1.410900e-01 1.175817e-01 1.180290e-01 1.439331e-01 1.856633e-01 2.338626e-01 2.875416e-01 3.410631e-01 3.980980e-01 4.526380e-01 5.103102e-01 5.640935e-01 6.209306e-01 6.727921e-01 7.276682e-01 7.766361e-01 8.285506e-01 8.737379e-01 9.217580e-01 9.623377e-01 1.005591e+00 1.040801e+00 1.078488e+00 1.107647e+00 1.139063e+00 1.161592e+00 1.186145e+00 1.201588e+00 1.218828e+00 1.226869e+00 1.236499e+00 1.236979e+00 1.238869e+00 1.231790e+00 1.225983e+00 1.211511e+00 1.198214e+00 1.176668e+00 1.156246e+00 1.128087e+00 1.101040e+00 1.066847e+00 1.033790e+00 9.942379e-01 9.558738e-01 9.117089e-01 8.688013e-01 8.208187e-01 7.741715e-01 7.231966e-01 6.736388e-01 6.205209e-01 5.689081e-01 5.145382e-01 4.617906e-01 
4.266094e-01 3.762968e-01 3.262311e-01 2.795910e-01 2.362728e-01 1.999099e-01 1.740128e-01 1.630140e-01 1.700753e-01 1.916087e-01 2.238118e-01 2.614927e-01 3.024422e-01 3.449631e-01 3.876522e-01 4.308132e-01 4.726246e-01 5.147155e-01 5.544733e-01 5.946456e-01 6.317114e-01 6.694689e-01 7.034454e-01 7.384624e-01 7.690810e-01 8.011272e-01 8.281989e-01 8.571041e-01 8.804957e-01 9.061309e-01 9.257507e-01 9.480162e-01 9.638057e-01 9.826228e-01 9.945501e-01 1.009854e+00 1.017908e+00 1.029645e+00 1.033830e+00 1.041948e+00 1.042280e+00 1.046731e+00 1.043233e+00 1.043966e+00 1.036665e+00 1.033629e+00 1.022555e+00 1.015694e+00 1.000879e+00 9.901387e-01 9.716183e-01 9.569502e-01 9.347661e-01 9.161322e-01 8.903382e-01 8.677207e-01 8.383916e-01 8.118044e-01 7.790476e-01 7.485520e-01 7.125251e-01 6.782516e-01 6.391897e-01 6.013742e-01 5.596385e-01 5.186888e-01 4.748650e-01 4.315110e-01 3.866499e-01 3.423422e-01 2.986458e-01 2.567994e-01 2.198359e-01 1.897872e-01 1.738427e-01 1.744153e-01 1.936380e-01 2.265994e-01 2.680737e-01 3.161701e-01 3.659351e-01 4.197643e-01 4.721294e-01 5.278348e-01 5.802587e-01 6.358142e-01 6.867717e-01 7.407791e-01 7.891174e-01 8.404302e-01 8.851634e-01 9.327637e-01 9.730066e-01 1.015968e+00 1.050922e+00 1.088410e+00 1.117371e+00 1.148653e+00 1.171025e+00 1.195494e+00 1.210811e+00 1.228001e+00 1.235941e+00 1.245548e+00 1.245949e+00 1.247837e+00 1.240703e+00 1.234913e+00 1.220413e+00 1.207157e+00 1.185617e+00 1.165266e+00 1.137156e+00 1.110219e+00 1.076132e+00 1.043239e+00 1.003869e+00 9.657422e-01 9.218603e-01 8.792909e-01 8.317268e-01 7.855600e-01 7.351922e-01 6.863212e-01 6.340858e-01 5.834750e-01 5.304158e-01 4.791864e-01 
4.527790e-01 4.051681e-01 3.587824e-01 3.163403e-01 2.784008e-01 2.475725e-01 2.267729e-01 2.177148e-01 2.226984e-01 2.389358e-01 2.651940e-01 2.972248e-01 3.336241e-01 3.722598e-01 4.119780e-01 4.525580e-01 4.923982e-01 5.327124e-01 5.711038e-01 6.100013e-01 6.460787e-01 6.828885e-01 7.161234e-01 7.504163e-01 7.804611e-01 8.119430e-01 8.385594e-01 8.670195e-01 8.900426e-01 9.153253e-01 9.346432e-01 9.566309e-01 9.721723e-01 9.907746e-01 1.002500e+00 1.017645e+00 1.025538e+00 1.037167e+00 1.041232e+00 1.049290e+00 1.049544e+00 1.053982e+00 1.050451e+00 1.051218e+00 1.043934e+00 1.040979e+00 1.029977e+00 1.023248e+00 1.008567e+00 9.980136e-01 9.796992e-01 9.652772e-01 9.433823e-01 9.250632e-01 8.996573e-01 8.774368e-01 8.486164e-01 8.225297e-01 7.904335e-01 7.605754e-01 7.254085e-01 6.919635e-01 6.540361e-01 6.173294e-01 5.771251e-01 5.377180e-01 4.960317e-01 4.549251e-01 4.131704e-01 3.722871e-01 3.332412e-01 2.966216e-01 2.661374e-01 2.422781e-01 2.310087e-01 2.318518e-01 2.475824e-01 2.745296e-01 3.104103e-01 3.531498e-01 3.989236e-01 4.491666e-01 4.989459e-01 5.523009e-01 6.030204e-01 6.570049e-01 7.068042e-01 7.597431e-01 8.072754e-01 8.578564e-01 9.020205e-01 9.491214e-01 9.889600e-01 1.031585e+00 1.066252e+00 1.103517e+00 1.132274e+00 1.163411e+00 1.185640e+00 1.210014e+00 1.225230e+00 1.242356e+00 1.250227e+00 1.259787e+00 1.260144e+00 1.261995e+00 1.254840e+00 1.249022e+00 1.234527e+00 1.221255e+00 1.199755e+00 1.179409e+00 1.151385e+00 1.124491e+00 1.090556e+00 1.057764e+00 1.018634e+00 9.806954e-01 9.371757e-01 8.949195e-01 8.478858e-01 8.022109e-01 7.526087e-01 7.044883e-01 6.533576e-01 6.038832e-01 5.524377e-01 5.029445e-01 
4.847449e-01 4.400719e-01 3.973798e-01 3.588902e-01 3.254948e-01 2.987924e-01 2.813030e-01 2.732046e-01 2.766906e-01 2.890918e-01 3.106897e-01 3.377081e-01 3.697515e-01 4.043238e-01 4.408200e-01 4.784191e-01 5.159629e-01 5.540958e-01 5.908265e-01 6.280949e-01 6.629401e-01 6.985066e-01 7.308036e-01 7.641316e-01 7.934466e-01 8.241725e-01 8.502113e-01 8.780784e-01 9.006390e-01 9.254608e-01 9.444068e-01 9.660451e-01 9.812892e-01 9.996394e-01 1.011132e+00 1.026112e+00 1.033832e+00 1.045377e+00 1.049325e+00 1.057378e+00 1.057571e+00 1.062078e+00 1.058545e+00 1.059455e+00 1.052231e+00 1.049491e+00 1.038619e+00 1.032177e+00 1.017702e+00 1.007511e+00 9.894872e-01 9.755066e-01 9.540011e-01 9.362099e-01 9.113093e-01 8.897168e-01 8.615421e-01 8.362057e-01 8.049314e-01 7.759817e-01 7.418663e-01 7.095462e-01 6.729807e-01 6.377090e-01 5.993025e-01 5.617907e-01 5.225317e-01 4.840145e-01 4.455955e-01 4.083082e-01 3.737751e-01 3.418743e-01 3.166568e-01 2.972461e-01 2.891026e-01 2.901399e-01 3.037975e-01 3.264791e-01 3.579926e-01 3.959546e-01 4.379486e-01 4.844827e-01 5.315289e-01 5.822318e-01 6.310304e-01 6.831399e-01 7.315752e-01 7.831847e-01 8.297308e-01 8.793684e-01 9.228065e-01 9.692415e-01 1.008537e+00 1.050698e+00 1.084953e+00 1.121901e+00 1.150339e+00 1.181266e+00 1.203245e+00 1.227483e+00 1.242501e+00 1.259545e+00 1.267258e+00 1.276772e+00 1.277008e+00 1.278843e+00 1.271603e+00 1.265796e+00 1.251259e+00 1.238030e+00 1.216542e+00 1.196283e+00 1.168342e+00 1.141596e+00 1.107836e+00 1.075277e+00 1.036446e+00 9.988567e-01 9.557963e-01 9.140500e-01 8.676876e-01 8.227416e-01 7.740954e-01 7.270070e-01 6.772228e-01 6.292084e-01 5.796582e-01 5.322390e-01 
5.216873e-01 4.797047e-01 4.403587e-01 4.051627e-01 3.753970e-01 3.516581e-01 3.364402e-01 3.288743e-01 3.313409e-01 3.410200e-01 3.591447e-01 3.821266e-01 4.104155e-01 4.412932e-01 4.747013e-01 5.093705e-01 5.445624e-01 5.804508e-01 6.154093e-01 6.509557e-01 6.844495e-01 7.186790e-01 7.499261e-01 7.822023e-01 8.106858e-01 8.405757e-01 8.659440e-01 8.931432e-01 9.151554e-01 9.394444e-01 9.579380e-01 9.791560e-01 9.940264e-01 1.012053e+00 1.023241e+00 1.037985e+00 1.045464e+00 1.056853e+00 1.060622e+00 1.068596e+00 1.068675e+00 1.073179e+00 1.069600e+00 1.070582e+00 1.063388e+00 1.060797e+00 1.050038e+00 1.043826e+00 1.029559e+00 1.019681e+00 1.001974e+00 9.883978e-01 9.673328e-01 9.500482e-01 9.257332e-01 9.047665e-01 8.773507e-01 8.527851e-01 8.224819e-01 7.944880e-01 7.616112e-01 7.304923e-01 6.955124e-01 6.617784e-01 6.254188e-01 5.899143e-01 5.533187e-01 5.174545e-01 4.824855e-01 4.486502e-01 4.183738e-01 3.905381e-01 3.696984e-01 3.536500e-01 3.479394e-01 3.492635e-01 3.617617e-01 3.814803e-01 4.097336e-01 4.437625e-01 4.824336e-01 5.255234e-01 5.699038e-01 6.179607e-01 6.647684e-01 7.149345e-01 7.619108e-01 8.121201e-01 8.576009e-01 9.062445e-01 9.489057e-01 9.946476e-01 1.033378e+00 1.075067e+00 1.108911e+00 1.145546e+00 1.173688e+00 1.204411e+00 1.226176e+00 1.250283e+00 1.265145e+00 1.282101e+00 1.289701e+00 1.299151e+00 1.299306e+00 1.301090e+00 1.293801e+00 1.287952e+00 1.273403e+00 1.260149e+00 1.238697e+00 1.218443e+00 1.190606e+00 1.163918e+00 1.130355e+00 1.097937e+00 1.059429e+00 1.022103e+00 9.795350e-01 9.382224e-01 8.925777e-01 8.482992e-01 8.006697e-01 7.545668e-01 7.061976e-01 6.595995e-01 6.119929e-01 5.665627e-01 
5.631772e-01 5.237965e-01 4.874796e-01 4.551318e-01 4.282900e-01 4.067617e-01 3.931065e-01 3.857226e-01 3.872620e-01 3.946569e-01 4.098871e-01 4.293079e-01 4.541845e-01 4.814907e-01 5.118446e-01 5.434588e-01 5.761756e-01 6.095922e-01 6.426047e-01 6.761804e-01 7.081480e-01 7.408063e-01 7.708469e-01 8.018664e-01 8.293853e-01 8.582687e-01 8.828578e-01 9.092538e-01 9.306319e-01 9.542878e-01 9.722642e-01 9.929957e-01 1.007447e+00 1.025118e+00 1.035973e+00 1.050480e+00 1.057706e+00 1.068971e+00 1.072565e+00 1.080520e+00 1.080504e+00 1.085093e+00 1.081502e+00 1.082671e+00 1.075554e+00 1.073251e+00 1.062667e+00 1.056844e+00 1.042859e+00 1.033474e+00 1.016168e+00 1.003193e+00 9.826651e-01 9.660972e-01 9.424766e-01 9.223568e-01 8.958201e-01 8.722553e-01 8.430543e-01 8.162517e-01 7.847529e-01 7.550708e-01 7.218173e-01 6.898446e-01 6.556545e-01 6.223394e-01 5.884643e-01 5.553256e-01 5.236971e-01 4.931418e-01 4.666837e-01 4.423423e-01 4.250831e-01 4.116470e-01 4.078445e-01 4.094253e-01 4.212195e-01 4.387263e-01 4.645063e-01 4.952449e-01 5.310697e-01 5.709733e-01 6.128562e-01 6.582759e-01 7.030965e-01 7.512180e-01 7.966673e-01 8.453414e-01 8.896602e-01 9.371758e-01 9.789529e-01 1.023883e+00 1.061937e+00 1.103056e+00 1.136380e+00 1.172624e+00 1.200360e+00 1.230825e+00 1.252268e+00 1.276209e+00 1.290813e+00 1.307665e+00 1.315057e+00 1.324444e+00 1.324435e+00 1.326186e+00 1.318778e+00 1.312925e+00 1.298310e+00 1.285086e+00 1.263636e+00 1.243463e+00 1.215718e+00 1.189185e+00 1.155833e+00 1.123676e+00 1.085533e+00 1.048613e+00 1.006608e+00 9.658944e-01 9.210652e-01 8.776398e-01 8.311458e-01 7.862235e-01 7.393917e-01 6.943885e-01 6.488108e-01 6.054736e-01 
6.082745e-01 5.710712e-01 5.373106e-01 5.071967e-01 4.826419e-01 4.626968e-01 4.501669e-01 4.428166e-01 4.436404e-01 4.492596e-01 4.622409e-01 4.787856e-01 5.008172e-01 5.250404e-01 5.526634e-01 5.814846e-01 6.118645e-01 6.429245e-01 6.740254e-01 7.056663e-01 7.360907e-01 7.671733e-01 7.959658e-01 8.257027e-01 8.522038e-01 8.800424e-01 9.037930e-01 9.293392e-01 9.500200e-01 9.729894e-01 9.903831e-01 1.010568e+00 1.024534e+00 1.041783e+00 1.052237e+00 1.066437e+00 1.073343e+00 1.084407e+00 1.087763e+00 1.095622e+00 1.095450e+00 1.100045e+00 1.096389e+00 1.097666e+00 1.090585e+00 1.088494e+00 1.078056e+00 1.072552e+00 1.058839e+00 1.049884e+00 1.032990e+00 1.020563e+00 1.000607e+00 9.847174e-01 9.618512e-01 9.425552e-01 9.169849e-01 8.944146e-01 8.664294e-01 8.408281e-01 8.108432e-01 7.826196e-01 7.512391e-01 7.210480e-01 6.891601e-01 6.580239e-01 6.269398e-01 5.964274e-01 5.680663e-01 5.405171e-01 5.175749e-01 4.962399e-01 4.820961e-01 4.708093e-01 4.687114e-01 4.706240e-01 4.821218e-01 4.980470e-01 5.220246e-01 5.501364e-01 5.836195e-01 6.207613e-01 6.604134e-01 7.034101e-01 7.463573e-01 7.925317e-01 8.364965e-01 8.836833e-01 9.268605e-01 9.732817e-01 1.014197e+00 1.058350e+00 1.095763e+00 1.136350e+00 1.169201e+00 1.205096e+00 1.232486e+00 1.262728e+00 1.283916e+00 1.307717e+00 1.322130e+00 1.338887e+00 1.346132e+00 1.355446e+00 1.355324e+00 1.357006e+00 1.349517e+00 1.343599e+00 1.328940e+00 1.315662e+00 1.294223e+00 1.274026e+00 1.246369e+00 1.219871e+00 1.186715e+00 1.154688e+00 1.116888e+00 1.080236e+00 1.038768e+00 9.985134e-01 9.544672e-01 9.117497e-01 8.663457e-01 8.224457e-01 7.770756e-01 7.334735e-01 6.897825e-01 6.482634e-01 
6.572133e-01 6.220209e-01 5.904919e-01 5.622660e-01 5.395406e-01 5.207709e-01 5.090000e-01 5.014853e-01 5.015623e-01 5.055253e-01 5.164791e-01 5.303683e-01 5.497643e-01 5.710153e-01 5.959835e-01 6.219766e-01 6.499805e-01 6.785517e-01 7.076394e-01 7.371689e-01 7.659255e-01 7.952470e-01 8.226669e-01 8.509476e-01 8.763178e-01 9.029605e-01 9.257760e-01 9.503493e-01 9.702548e-01 9.924451e-01 1.009197e+00 1.028775e+00 1.042213e+00 1.059012e+00 1.069042e+00 1.082938e+00 1.089517e+00 1.100416e+00 1.103541e+00 1.111369e+00 1.111067e+00 1.115762e+00 1.112081e+00 1.113588e+00 1.106595e+00 1.104864e+00 1.094638e+00 1.089621e+00 1.076256e+00 1.067917e+00 1.051522e+00 1.039843e+00 1.020554e+00 1.005551e+00 9.835392e-01 9.652798e-01 9.407788e-01 9.194138e-01 8.927453e-01 8.685467e-01 8.401663e-01 8.135820e-01 7.841411e-01 7.558734e-01 7.263055e-01 6.974195e-01 6.690548e-01 6.411209e-01 6.158122e-01 5.910479e-01 5.712339e-01 5.525212e-01 5.410346e-01 5.315468e-01 5.309233e-01 5.331672e-01 5.445770e-01 5.592980e-01 5.819359e-01 6.078798e-01 6.394429e-01 6.741445e-01 7.118323e-01 7.525606e-01 7.937623e-01 8.380265e-01 8.805412e-01 9.262115e-01 9.682240e-01 1.013491e+00 1.053486e+00 1.096793e+00 1.133484e+00 1.173473e+00 1.205756e+00 1.241244e+00 1.268184e+00 1.298160e+00 1.318984e+00 1.342614e+00 1.356727e+00 1.373375e+00 1.380371e+00 1.389611e+00 1.389282e+00 1.390913e+00 1.383262e+00 1.377312e+00 1.362547e+00 1.349266e+00 1.327793e+00 1.307642e+00 1.280051e+00 1.253675e+00 1.220717e+00 1.188925e+00 1.151493e+00 1.115232e+00 1.074344e+00 1.034683e+00 9.914762e-01 9.496045e-01 9.053469e-01 8.625933e-01 8.187175e-01 7.765963e-01 7.347608e-01 6.950470e-01 
7.088791e-01 6.752607e-01 6.455376e-01 6.187233e-01 5.974055e-01 5.794390e-01 5.682027e-01 5.604565e-01 5.599105e-01 5.625051e-01 5.718216e-01 5.835196e-01 6.007184e-01 6.194348e-01 6.420932e-01 6.655826e-01 6.914356e-01 7.177300e-01 7.449338e-01 7.724800e-01 7.996332e-01 8.272643e-01 8.533342e-01 8.801904e-01 9.044251e-01 9.298761e-01 9.517330e-01 9.753168e-01 9.944092e-01 1.015787e+00 1.031848e+00 1.050772e+00 1.063625e+00 1.079915e+00 1.089456e+00 1.102978e+00 1.109163e+00 1.119818e+00 1.122643e+00 1.130356e+00 1.129854e+00 1.134561e+00 1.130790e+00 1.132437e+00 1.125476e+00 1.124014e+00 1.113956e+00 1.109340e+00 1.096295e+00 1.088493e+00 1.072589e+00 1.061589e+00 1.042980e+00 1.028804e+00 1.007686e+00 9.904179e-01 9.670481e-01 9.468564e-01 9.215870e-01 8.987695e-01 8.720893e-01 8.471259e-01 8.197188e-01 7.933444e-01 7.661652e-01 7.394630e-01 7.138255e-01 6.883333e-01 6.659863e-01 6.437746e-01 6.268938e-01 6.105092e-01 6.014695e-01 5.935739e-01 5.943864e-01 5.970308e-01 6.085992e-01 6.224711e-01 6.441906e-01 6.684216e-01 6.984722e-01 7.311231e-01 7.671485e-01 8.058851e-01 8.455412e-01 8.880810e-01 9.292799e-01 9.735656e-01 1.014516e+00 1.058735e+00 1.097903e+00 1.140460e+00 1.176524e+00 1.216006e+00 1.247823e+00 1.282990e+00 1.309585e+00 1.339369e+00 1.359935e+00 1.383451e+00 1.397364e+00 1.413933e+00 1.420764e+00 1.429929e+00 1.429458e+00 1.431002e+00 1.423229e+00 1.417175e+00 1.402317e+00 1.388927e+00 1.367410e+00 1.347166e+00 1.319606e+00 1.293189e+00 1.260373e+00 1.228634e+00 1.191494e+00 1.155425e+00 1.115024e+00 1.075745e+00 1.033263e+00 9.920102e-01 9.487572e-01 9.068977e-01 8.643313e-01 8.233970e-01 7.831658e-01 7.448987e-01 
7.641362e-01 7.319362e-01 7.037542e-01 6.781077e-01 6.578902e-01 6.404733e-01 6.295319e-01 6.214031e-01 6.201521e-01 6.213695e-01 6.290993e-01 6.386666e-01 6.537480e-01 6.699626e-01 6.903444e-01 7.112916e-01 7.349637e-01 7.588781e-01 7.841213e-01 8.095415e-01 8.349910e-01 8.607742e-01 8.853879e-01 9.106657e-01 9.336641e-01 9.577853e-01 9.785948e-01 1.001074e+00 1.019280e+00 1.039759e+00 1.055073e+00 1.073286e+00 1.085516e+00 1.101271e+00 1.110304e+00 1.123460e+00 1.129246e+00 1.139699e+00 1.142237e+00 1.149907e+00 1.149236e+00 1.154058e+00 1.150243e+00 1.152162e+00 1.145293e+00 1.144257e+00 1.134440e+00 1.130405e+00 1.117764e+00 1.110694e+00 1.095372e+00 1.085256e+00 1.067423e+00 1.054287e+00 1.034156e+00 1.018088e+00 9.959379e-01 9.771163e-01 9.533217e-01 9.320605e-01 9.071325e-01 8.839309e-01 8.585718e-01 8.341801e-01 8.093465e-01 7.848439e-01 7.618107e-01 7.386798e-01 7.190775e-01 6.992363e-01 6.849987e-01 6.707044e-01 6.638396e-01 6.573626e-01 6.594999e-01 6.625678e-01 6.744248e-01 6.876819e-01 7.087863e-01 7.316337e-01 7.605092e-01 7.914071e-01 8.260458e-01 8.629984e-01 9.012931e-01 9.422258e-01 9.822089e-01 1.025159e+00 1.065080e+00 1.108255e+00 1.146578e+00 1.188363e+00 1.223745e+00 1.262687e+00 1.293955e+00 1.328765e+00 1.354913e+00 1.384472e+00 1.404667e+00 1.428044e+00 1.441638e+00 1.458115e+00 1.464664e+00 1.473754e+00 1.473034e+00 1.474503e+00 1.466515e+00 1.460386e+00 1.445360e+00 1.431905e+00 1.410288e+00 1.390014e+00 1.362451e+00 1.336073e+00 1.303385e+00 1.271791e+00 1.234949e+00 1.199177e+00 1.159281e+00 1.120492e+00 1.078758e+00 1.038224e+00 9.959869e-01 9.550973e-01 9.138183e-01 8.740970e-01 8.353870e-01 7.985130e-01 
8.215932e-01 7.904077e-01 7.634070e-01 7.385567e-01 7.191419e-01 7.020258e-01 6.912439e-01 6.826963e-01 6.808256e-01 6.808565e-01 6.872653e-01 6.950374e-01 7.083405e-01 7.224213e-01 7.408451e-01 7.595755e-01 7.813207e-01 8.031103e-01 8.265765e-01 8.500565e-01 8.739255e-01 8.979883e-01 9.212216e-01 9.450017e-01 9.668033e-01 9.896379e-01 1.009411e+00 1.030799e+00 1.048106e+00 1.067672e+00 1.082207e+00 1.099675e+00 1.111233e+00 1.126401e+00 1.134864e+00 1.147584e+00 1.152901e+00 1.163067e+00 1.165242e+00 1.172775e+00 1.171853e+00 1.176689e+00 1.172750e+00 1.174835e+00 1.167983e+00 1.167267e+00 1.157627e+00 1.154067e+00 1.141781e+00 1.135345e+00 1.120574e+00 1.111253e+00 1.094188e+00 1.082012e+00 1.062886e+00 1.047951e+00 1.027062e+00 1.009558e+00 9.872984e-01 9.675506e-01 9.444474e-01 9.229679e-01 8.997279e-01 8.772711e-01 8.548340e-01 8.324586e-01 8.120398e-01 7.911580e-01 7.742563e-01 7.566327e-01 7.449545e-01 7.325927e-01 7.278376e-01 7.226957e-01 7.261955e-01 7.297561e-01 7.420860e-01 7.549566e-01 7.757367e-01 7.975145e-01 8.255291e-01 8.549880e-01 8.885181e-01 9.239554e-01 9.611150e-01 1.000659e+00 1.039612e+00 1.081407e+00 1.120462e+00 1.162754e+00 1.200390e+00 1.241554e+00 1.276413e+00 1.314959e+00 1.345842e+00 1.380430e+00 1.406296e+00 1.435749e+00 1.455730e+00 1.479060e+00 1.492478e+00 1.508917e+00 1.515303e+00 1.524329e+00 1.523443e+00 1.524800e+00 1.516642e+00 1.510349e+00 1.495159e+00 1.481503e+00 1.459749e+00 1.439265e+00 1.411625e+00 1.385068e+00 1.352401e+00 1.320708e+00 1.284026e+00 1.248284e+00 1.208729e+00 1.170144e+00 1.128966e+00 1.088847e+00 1.047402e+00 1.007156e+00 9.669025e-01 9.280391e-01 8.905434e-01 8.546758e-01 
8.826950e-01 8.523941e-01 8.263617e-01 8.021278e-01 7.832865e-01 7.662865e-01 7.554737e-01 7.463684e-01 7.437659e-01 7.425359e-01 7.475825e-01 7.535232e-01 7.650351e-01 7.769412e-01 7.933821e-01 8.098217e-01 8.295858e-01 8.491392e-01 8.707470e-01 8.921486e-01 9.143395e-01 9.365322e-01 9.582828e-01 9.804181e-01 1.000925e+00 1.022339e+00 1.040988e+00 1.061172e+00 1.077508e+00 1.096076e+00 1.109777e+00 1.126443e+00 1.137293e+00 1.151850e+00 1.159724e+00 1.172020e+00 1.176868e+00 1.186794e+00 1.188623e+00 1.196099e+00 1.194964e+00 1.199926e+00 1.195918e+00 1.198312e+00 1.191548e+00 1.191323e+00 1.181943e+00 1.179053e+00 1.167214e+00 1.161622e+00 1.147501e+00 1.139194e+00 1.122996e+00 1.112000e+00 1.093972e+00 1.080380e+00 1.060832e+00 1.044835e+00 1.024169e+00 1.006094e+00 9.848416e-01 9.652009e-01 9.440620e-01 9.236009e-01 9.034873e-01 8.832332e-01 8.652934e-01 8.465840e-01 8.321921e-01 8.166527e-01 8.073213e-01 7.967469e-01 7.939326e-01 7.900424e-01 7.948551e-01 7.989517e-01 8.118614e-01 8.245249e-01 8.452131e-01 8.661830e-01 8.936210e-01 9.219115e-01 9.546007e-01 9.887507e-01 1.024987e+00 1.063308e+00 1.101374e+00 1.142120e+00 1.180386e+00 1.221853e+00 1.258818e+00 1.299382e+00 1.333685e+00 1.371835e+00 1.402257e+00 1.436610e+00 1.462089e+00 1.491417e+00 1.511060e+00 1.534325e+00 1.547432e+00 1.563822e+00 1.569909e+00 1.578869e+00 1.577691e+00 1.578946e+00 1.570506e+00 1.564073e+00 1.548626e+00 1.534807e+00 1.512847e+00 1.492207e+00 1.464442e+00 1.437776e+00 1.405102e+00 1.373392e+00 1.336859e+00 1.301234e+00 1.262017e+00 1.223722e+00 1.183096e+00 1.143466e+00 1.102793e+00 1.063236e+00 1.023956e+00 9.859504e-01 9.495678e-01 9.146445e-01 
9.456855e-01 9.158989e-01 8.905243e-01 8.666016e-01 8.481050e-01 8.310357e-01 8.200983e-01 8.104130e-01 8.071444e-01 8.047966e-01 8.086817e-01 8.130537e-01 8.230502e-01 8.330966e-01 8.478435e-01 8.623028e-01 8.803464e-01 8.979361e-01 9.178998e-01 9.374446e-01 9.581220e-01 9.786138e-01 9.990004e-01 1.019612e+00 1.038902e+00 1.058973e+00 1.076541e+00 1.095560e+00 1.110937e+00 1.128512e+00 1.141363e+00 1.157204e+00 1.167306e+00 1.181202e+00 1.188428e+00 1.200227e+00 1.204529e+00 1.214125e+00 1.215519e+00 1.222833e+00 1.221387e+00 1.226360e+00 1.222181e+00 1.224760e+00 1.217986e+00 1.218125e+00 1.208915e+00 1.206567e+00 1.195101e+00 1.190231e+00 1.176706e+00 1.169300e+00 1.153940e+00 1.144024e+00 1.127093e+00 1.114760e+00 1.096579e+00 1.082021e+00 1.063000e+00 1.046544e+00 1.027210e+00 1.009365e+00 9.904011e-01 9.718954e-01 9.541714e-01 9.359906e-01 9.205760e-01 9.039761e-01 8.921153e-01 8.785862e-01 8.716094e-01 8.627603e-01 8.619127e-01 8.592624e-01 8.654704e-01 8.701765e-01 8.838241e-01 8.964436e-01 9.172591e-01 9.376445e-01 9.647509e-01 9.921163e-01 1.024205e+00 1.057303e+00 1.092841e+00 1.130157e+00 1.167547e+00 1.207451e+00 1.245136e+00 1.285978e+00 1.322485e+00 1.362653e+00 1.396622e+00 1.434576e+00 1.464772e+00 1.499080e+00 1.524407e+00 1.553782e+00 1.573310e+00 1.596649e+00 1.609643e+00 1.626073e+00 1.632021e+00 1.640943e+00 1.639581e+00 1.640693e+00 1.632022e+00 1.625339e+00 1.609626e+00 1.595468e+00 1.573231e+00 1.552201e+00 1.524188e+00 1.497131e+00 1.464281e+00 1.432234e+00 1.395642e+00 1.359790e+00 1.320670e+00 1.282304e+00 1.241960e+00 1.202442e+00 1.162246e+00 1.122991e+00 1.084366e+00 1.046823e+00 1.011216e+00 9.768426e-01 
1.012565e+00 9.831802e-01 9.582811e-01 9.345224e-01 9.161782e-01 8.988822e-01 8.876467e-01 8.772396e-01 8.731699e-01 8.695883e-01 8.722145e-01 8.749192e-01 8.833231e-01 8.914098e-01 9.043855e-01 9.167486e-01 9.329830e-01 9.484730e-01 9.666911e-01 9.842277e-01 1.003282e+00 1.021916e+00 1.040829e+00 1.059764e+00 1.077733e+00 1.096323e+00 1.112718e+00 1.130454e+00 1.144795e+00 1.161288e+00 1.173230e+00 1.188188e+00 1.197503e+00 1.210714e+00 1.217273e+00 1.228588e+00 1.232347e+00 1.241661e+00 1.242644e+00 1.249883e+00 1.248171e+00 1.253277e+00 1.248992e+00 1.251915e+00 1.245212e+00 1.245903e+00 1.236960e+00 1.235369e+00 1.224381e+00 1.220465e+00 1.207646e+00 1.201380e+00 1.186966e+00 1.178365e+00 1.162628e+00 1.151774e+00 1.135037e+00 1.122112e+00 1.104782e+00 1.090101e+00 1.072695e+00 1.056752e+00 1.039926e+00 1.023424e+00 1.008003e+00 9.918846e-01 9.788614e-01 9.643069e-01 9.548131e-01 9.431987e-01 9.384162e-01 9.312038e-01 9.322143e-01 9.307715e-01 9.383636e-01 9.437413e-01 9.582338e-01 9.709722e-01 9.921230e-01 1.012159e+00 1.039197e+00 1.065898e+00 1.097657e+00 1.129948e+00 1.165023e+00 1.201539e+00 1.238434e+00 1.277650e+00 1.314867e+00 1.355192e+00 1.391290e+00 1.431125e+00 1.464749e+00 1.502539e+00 1.532441e+00 1.566716e+00 1.591780e+00 1.621197e+00 1.640471e+00 1.663872e+00 1.676597e+00 1.693057e+00 1.698706e+00 1.707583e+00 1.705886e+00 1.706860e+00 1.697823e+00 1.690907e+00 1.674814e+00 1.660349e+00 1.637748e+00 1.616374e+00 1.588049e+00 1.560660e+00 1.527590e+00 1.495275e+00 1.458594e+00 1.422588e+00 1.383543e+00 1.345172e+00 1.305084e+00 1.265731e+00 1.225971e+00 1.187043e+00 1.149002e+00 1.111906e+00 1.076966e+00 1.043079e+00 
1.081141e+00 1.051811e+00 1.027107e+00 1.003247e+00 9.848628e-01 9.671900e-01 9.555828e-01 9.444400e-01 9.396240e-01 9.349281e-01 9.364612e-01 9.377216e-01 9.447712e-01 9.511804e-01 9.626529e-01 9.732177e-01 9.879056e-01 1.001578e+00 1.018285e+00 1.034060e+00 1.051688e+00 1.068666e+00 1.086259e+00 1.103671e+00 1.120432e+00 1.137648e+00 1.152941e+00 1.169458e+00 1.182796e+00 1.198229e+00 1.209261e+00 1.223320e+00 1.231815e+00 1.244294e+00 1.250126e+00 1.260880e+00 1.264011e+00 1.272943e+00 1.273410e+00 1.280453e+00 1.278355e+00 1.283459e+00 1.278941e+00 1.282061e+00 1.275301e+00 1.276392e+00 1.267596e+00 1.266608e+00 1.255996e+00 1.252884e+00 1.240692e+00 1.235428e+00 1.221910e+00 1.214503e+00 1.199942e+00 1.190467e+00 1.175195e+00 1.163825e+00 1.148240e+00 1.135281e+00 1.119883e+00 1.105810e+00 1.091221e+00 1.076708e+00 1.063694e+00 1.049631e+00 1.039100e+00 1.026588e+00 1.019552e+00 1.009852e+00 1.007348e+00 1.001784e+00 1.004744e+00 1.004548e+00 1.013638e+00 1.019769e+00 1.035253e+00 1.048237e+00 1.069899e+00 1.089747e+00 1.116913e+00 1.143133e+00 1.174764e+00 1.206443e+00 1.241266e+00 1.277186e+00 1.313807e+00 1.352551e+00 1.389542e+00 1.429581e+00 1.465537e+00 1.505290e+00 1.538861e+00 1.576749e+00 1.606670e+00 1.641170e+00 1.666292e+00 1.695991e+00 1.715317e+00 1.738976e+00 1.751705e+00 1.768326e+00 1.773892e+00 1.782775e+00 1.780885e+00 1.781677e+00 1.772332e+00 1.765043e+00 1.748542e+00 1.733539e+00 1.710463e+00 1.688438e+00 1.659617e+00 1.631529e+00 1.597995e+00 1.565005e+00 1.527945e+00 1.491350e+00 1.452054e+00 1.413232e+00 1.373052e+00 1.333415e+00 1.293727e+00 1.254682e+00 1.216858e+00 1.179781e+00 1.145147e+00 1.111348e+00 