# vtk DataFile Version 2.0
Comment goes here
ASCII

DATASET STRUCTURED_POINTS
FIELD FieldData 1
TIME 1 1 double
0.01000000
DIMENSIONS    128   128   1

ORIGIN    0.000   0.000   0.000
SPACING   0.039062 0.039062   1.000

POINT_DATA   16384
SCALARS uMag double
LOOKUP_TABLE default

1.116667e-01 1.321607e-01 1.482359e-01 1.693277e-01 1.859547e-01 2.073937e-01 2.243416e-01 2.458332e-01 2.628210e-01 2.840264e-01 3.007235e-01 3.212609e-01 3.372909e-01 3.567402e-01 3.716866e-01 3.895962e-01 4.030117e-01 4.189092e-01 4.303288e-01 4.437349e-01 4.526917e-01 4.631381e-01 4.691828e-01 4.762328e-01 4.789559e-01 4.822268e-01 4.812815e-01 4.804682e-01 4.755945e-01 4.704916e-01 4.615372e-01 4.520587e-01 4.389973e-01 4.251916e-01 4.081352e-01 3.901930e-01 3.693979e-01 3.476535e-01 3.235171e-01 2.984408e-01 2.714918e-01 2.436742e-01 2.145533e-01 1.846824e-01 1.541168e-01 1.229487e-01 9.172090e-02 6.004658e-02 2.895936e-02 2.431196e-03 3.259072e-02 6.294392e-02 9.143959e-02 1.200715e-01 1.462500e-01 1.725750e-01 1.958929e-01 2.194464e-01 2.394895e-01 2.599431e-01 2.764386e-01 2.936064e-01 3.064265e-01 3.202632e-01 3.294199e-01 3.400112e-01 3.456440e-01 3.531892e-01 3.555466e-01 3.603364e-01 3.597533e-01 3.621439e-01 3.590164e-01 3.594024e-01 3.541620e-01 3.529498e-01 3.460390e-01 3.436223e-01 3.354733e-01 3.322125e-01 3.232283e-01 3.194344e-01 3.099753e-01 3.058987e-01 2.962720e-01 2.920965e-01 2.825509e-01 2.783921e-01 2.691152e-01 2.650236e-01 2.561424e-01 2.521095e-01 2.436939e-01 2.396607e-01 2.317281e-01 2.275954e-01 2.201169e-01 2.157563e-01 2.086633e-01 2.039279e-01 1.971201e-01 1.918547e-01 1.852070e-01 1.792568e-01 1.726268e-01 1.658451e-01 1.590804e-01 1.513343e-01 1.442791e-01 1.354538e-01 1.279554e-01 1.179574e-01 1.098717e-01 9.863069e-02 8.982794e-02 7.729829e-02 6.766749e-02 5.382932e-02 4.328288e-02 2.814309e-02 1.662090e-02 2.144760e-04 1.231216e-02 2.992049e-02 4.344511e-02 6.215873e-02 7.663613e-02 9.632401e-02 
1.165454e-01 1.363713e-01 1.529457e-01 1.733438e-01 1.904961e-01 2.111884e-01 2.286711e-01 2.493500e-01 2.668712e-01 2.871919e-01 3.044131e-01 3.239926e-01 3.405312e-01 3.589518e-01 3.743864e-01 3.912029e-01 4.050831e-01 4.198335e-01 4.316920e-01 4.439123e-01 4.532818e-01 4.625233e-01 4.689557e-01 4.748061e-01 4.778944e-01 4.799997e-01 4.794014e-01 4.774889e-01 4.729484e-01 4.668480e-01 4.582185e-01 4.478804e-01 4.351408e-01 4.206493e-01 4.039170e-01 3.854974e-01 3.650341e-01 3.430529e-01 3.192646e-01 2.942244e-01 2.676568e-01 2.401891e-01 2.115265e-01 1.823987e-01 1.525013e-01 1.227170e-01 9.291257e-02 6.459736e-02 4.018308e-02 3.121629e-02 4.669794e-02 7.125264e-02 9.791514e-02 1.242101e-01 1.500007e-01 1.745744e-01 1.979607e-01 2.199620e-01 2.403167e-01 2.593342e-01 2.763085e-01 2.921421e-01 3.055687e-01 3.181774e-01 3.280406e-01 3.375175e-01 3.439330e-01 3.504828e-01 3.536768e-01 3.575916e-01 3.578772e-01 3.595101e-01 3.572623e-01 3.570009e-01 3.526314e-01 3.508718e-01 3.448054e-01 3.419290e-01 3.345818e-01 3.309358e-01 3.226977e-01 3.185798e-01 3.098004e-01 3.054484e-01 2.964272e-01 2.920137e-01 2.829940e-01 2.786252e-01 2.697917e-01 2.655106e-01 2.569896e-01 2.527820e-01 2.446443e-01 2.404476e-01 2.327129e-01 2.284262e-01 2.210689e-01 2.165637e-01 2.095195e-01 2.046505e-01 1.978239e-01 1.924387e-01 1.857099e-01 1.796582e-01 1.728905e-01 1.660313e-01 1.590788e-01 1.512864e-01 1.440008e-01 1.351699e-01 1.274079e-01 1.174585e-01 1.090900e-01 9.797381e-02 8.889466e-02 7.661193e-02 6.677219e-02 5.343676e-02 4.296822e-02 2.926286e-02 1.978822e-02 1.462432e-02 2.140472e-02 3.604095e-02 4.929684e-02 6.701664e-02 8.178542e-02 1.007625e-01 
1.165670e-01 1.365082e-01 1.522688e-01 1.730417e-01 1.894701e-01 2.107202e-01 2.275405e-01 2.489244e-01 2.658336e-01 2.869868e-01 3.036427e-01 3.241689e-01 3.401884e-01 3.596584e-01 3.746210e-01 3.925770e-01 4.060327e-01 4.219979e-01 4.334795e-01 4.469714e-01 4.560100e-01 4.665576e-01 4.727025e-01 4.798671e-01 4.827075e-01 4.861054e-01 4.852943e-01 4.846206e-01 4.798985e-01 4.749503e-01 4.661681e-01 4.568651e-01 4.440030e-01 4.304041e-01 4.135870e-01 3.959018e-01 3.754090e-01 3.540047e-01 3.302767e-01 3.056843e-01 2.793321e-01 2.522631e-01 2.241045e-01 1.955242e-01 1.667320e-01 1.381817e-01 1.109860e-01 8.627358e-02 6.789662e-02 6.094077e-02 6.864204e-02 8.690149e-02 1.090840e-01 1.337795e-01 1.575420e-01 1.820760e-01 2.041835e-01 2.267284e-01 2.460530e-01 2.658544e-01 2.818674e-01 2.985689e-01 3.110302e-01 3.245066e-01 3.333724e-01 3.436678e-01 3.490478e-01 3.563389e-01 3.584654e-01 3.630305e-01 3.622300e-01 3.644187e-01 3.610837e-01 3.612877e-01 3.558491e-01 3.544738e-01 3.473759e-01 3.448155e-01 3.364929e-01 3.331090e-01 3.239684e-01 3.200735e-01 3.104785e-01 3.063242e-01 2.965855e-01 2.923564e-01 2.827254e-01 2.785372e-01 2.692032e-01 2.651056e-01 2.561965e-01 2.521791e-01 2.437648e-01 2.397660e-01 2.318627e-01 2.277802e-01 2.203576e-01 2.160600e-01 2.090482e-01 2.043858e-01 1.976834e-01 1.924995e-01 1.859814e-01 1.801221e-01 1.736476e-01 1.669699e-01 1.603910e-01 1.527703e-01 1.459402e-01 1.372782e-01 1.300610e-01 1.202951e-01 1.125799e-01 1.017023e-01 9.343014e-02 8.153801e-02 7.277418e-02 6.024705e-02 5.145966e-02 3.980591e-02 3.331822e-02 2.925315e-02 3.236746e-02 4.264227e-02 5.338915e-02 6.971398e-02 8.312277e-02 1.017621e-01 
1.258264e-01 1.447523e-01 1.607895e-01 1.806578e-01 1.974691e-01 2.178483e-01 2.351143e-01 2.556193e-01 2.730113e-01 2.932541e-01 3.104132e-01 3.299851e-01 3.465163e-01 3.649828e-01 3.804570e-01 3.973613e-01 4.113222e-01 4.261939e-01 4.381704e-01 4.505387e-01 4.600604e-01 4.694722e-01 4.760891e-01 4.821293e-01 4.854341e-01 4.877486e-01 4.874005e-01 4.857201e-01 4.814690e-01 4.756316e-01 4.673409e-01 4.573120e-01 4.449790e-01 4.308678e-01 4.146404e-01 3.967129e-01 3.769041e-01 3.555942e-01 3.326989e-01 3.086264e-01 2.833538e-01 2.573716e-01 2.307341e-01 2.040775e-01 1.776698e-01 1.524503e-01 1.293765e-01 1.101839e-01 9.747942e-02 9.335279e-02 9.918463e-02 1.121411e-01 1.303735e-01 1.505535e-01 1.721616e-01 1.934625e-01 2.145345e-01 2.345495e-01 2.534655e-01 2.711472e-01 2.871362e-01 3.019974e-01 3.146906e-01 3.265464e-01 3.358221e-01 3.446870e-01 3.506016e-01 3.566349e-01 3.593804e-01 3.628473e-01 3.627173e-01 3.639551e-01 3.613149e-01 3.607022e-01 3.559599e-01 3.538885e-01 3.474698e-01 3.443200e-01 3.366450e-01 3.327646e-01 3.242291e-01 3.199177e-01 3.108780e-01 3.063757e-01 2.971380e-01 2.926190e-01 2.834325e-01 2.790035e-01 2.700571e-01 2.657600e-01 2.571824e-01 2.530000e-01 2.448620e-01 2.407270e-01 2.330470e-01 2.288523e-01 2.216021e-01 2.172130e-01 2.103257e-01 2.055914e-01 1.989694e-01 1.937346e-01 1.872582e-01 1.813732e-01 1.749093e-01 1.682400e-01 1.616515e-01 1.540880e-01 1.472442e-01 1.387117e-01 1.315025e-01 1.219781e-01 1.143373e-01 1.038855e-01 9.583959e-02 8.470421e-02 7.650263e-02 6.539361e-02 5.792094e-02 4.897555e-02 4.495471e-02 4.343519e-02 4.709595e-02 5.580696e-02 6.583338e-02 8.040729e-02 9.356467e-02 1.109317e-01 
1.303490e-01 1.489650e-01 1.639433e-01 1.838989e-01 1.998084e-01 2.205587e-01 2.370370e-01 2.581337e-01 2.748310e-01 2.958490e-01 3.123966e-01 3.329029e-01 3.489018e-01 3.684433e-01 3.834627e-01 4.015654e-01 4.151480e-01 4.313229e-01 4.429957e-01 4.567506e-01 4.660397e-01 4.768960e-01 4.833460e-01 4.908589e-01 4.940554e-01 4.978377e-01 4.974315e-01 4.971787e-01 4.929120e-01 4.884271e-01 4.801579e-01 4.713754e-01 4.591011e-01 4.461079e-01 4.299859e-01 4.130407e-01 3.934089e-01 3.729618e-01 3.503637e-01 3.270881e-01 3.023192e-01 2.771815e-01 2.513998e-01 2.258401e-01 2.008566e-01 1.772697e-01 1.562768e-01 1.390655e-01 1.276656e-01 1.233089e-01 1.265654e-01 1.366447e-01 1.511755e-01 1.693136e-01 1.882320e-01 2.087338e-01 2.279037e-01 2.478691e-01 2.652865e-01 2.833082e-01 2.979756e-01 3.133560e-01 3.247860e-01 3.372169e-01 3.452300e-01 3.546536e-01 3.592828e-01 3.658176e-01 3.672527e-01 3.711444e-01 3.696894e-01 3.712703e-01 3.673085e-01 3.669626e-01 3.609245e-01 3.590555e-01 3.513902e-01 3.483943e-01 3.395451e-01 3.357878e-01 3.261718e-01 3.219698e-01 3.119618e-01 3.075709e-01 2.974915e-01 2.930988e-01 2.832077e-01 2.789292e-01 2.694213e-01 2.653043e-01 2.563100e-01 2.523388e-01 2.439272e-01 2.400321e-01 2.322165e-01 2.282857e-01 2.210310e-01 2.169228e-01 2.101542e-01 2.057107e-01 1.993231e-01 1.943828e-01 1.882502e-01 1.826601e-01 1.766454e-01 1.702722e-01 1.642381e-01 1.569799e-01 1.508009e-01 1.426014e-01 1.361813e-01 1.270533e-01 1.203536e-01 1.104265e-01 1.035233e-01 9.315361e-02 8.636858e-02 7.641725e-02 7.063146e-02 6.309194e-02 6.027829e-02 5.871162e-02 6.134577e-02 6.795584e-02 7.597890e-02 8.880247e-02 1.002928e-01 1.167527e-01 
1.429080e-01 1.605165e-01 1.757375e-01 1.947673e-01 2.110283e-01 2.308952e-01 2.478029e-01 2.680249e-01 2.852056e-01 3.053335e-01 3.224003e-01 3.419850e-01 3.585249e-01 3.771043e-01 3.926757e-01 4.097727e-01 4.239102e-01 4.390386e-01 4.512638e-01 4.639407e-01 4.737777e-01 4.835406e-01 4.905356e-01 4.969639e-01 5.007084e-01 5.034471e-01 5.036033e-01 5.023888e-01 4.987156e-01 4.934005e-01 4.857792e-01 4.763554e-01 4.648142e-01 4.514347e-01 4.361718e-01 4.191699e-01 4.005789e-01 3.804921e-01 3.591959e-01 3.368047e-01 3.137176e-01 2.901265e-01 2.665814e-01 2.433962e-01 2.214094e-01 2.010837e-01 1.837736e-01 1.699655e-01 1.614865e-01 1.580473e-01 1.609928e-01 1.682784e-01 1.803924e-01 1.945237e-01 2.111675e-01 2.279744e-01 2.455889e-01 2.624025e-01 2.788970e-01 2.942306e-01 3.084438e-01 3.215063e-01 3.328204e-01 3.432384e-01 3.513788e-01 3.590506e-01 3.639797e-01 3.689924e-01 3.708450e-01 3.734189e-01 3.724554e-01 3.729003e-01 3.694688e-01 3.681479e-01 3.626512e-01 3.599489e-01 3.528153e-01 3.491101e-01 3.407683e-01 3.364104e-01 3.272685e-01 3.225616e-01 3.129902e-01 3.081791e-01 2.984985e-01 2.937616e-01 2.842330e-01 2.796786e-01 2.704999e-01 2.661678e-01 2.574724e-01 2.533395e-01 2.451986e-01 2.411874e-01 2.336158e-01 2.296069e-01 2.225705e-01 2.184154e-01 2.118407e-01 2.073767e-01 2.011610e-01 1.962254e-01 1.902472e-01 1.846904e-01 1.788209e-01 1.725194e-01 1.666343e-01 1.595046e-01 1.534992e-01 1.455158e-01 1.393263e-01 1.305515e-01 1.241918e-01 1.148341e-01 1.084648e-01 9.900345e-02 9.307312e-02 8.451515e-02 8.001641e-02 7.428056e-02 7.293885e-02 7.264342e-02 7.608536e-02 8.247384e-02 9.058093e-02 1.023866e-01 1.138500e-01 1.292102e-01 
1.510758e-01 1.682051e-01 1.822614e-01 2.012040e-01 2.164505e-01 2.365512e-01 2.525756e-01 2.732977e-01 2.897137e-01 3.105703e-01 3.269849e-01 3.475005e-01 3.634985e-01 3.831902e-01 3.983298e-01 4.167014e-01 4.305166e-01 4.470619e-01 4.590719e-01 4.732842e-01 4.830076e-01 4.943958e-01 5.013698e-01 5.094788e-01 5.132820e-01 5.177176e-01 5.179962e-01 5.184521e-01 5.149474e-01 5.112331e-01 5.038103e-01 4.958787e-01 4.845544e-01 4.725287e-01 4.574994e-01 4.416993e-01 4.233711e-01 4.043439e-01 3.833715e-01 3.619383e-01 3.392878e-01 3.166259e-01 2.936889e-01 2.714873e-01 2.502776e-01 2.309770e-01 2.143462e-01 2.012325e-01 1.925546e-01 1.887624e-01 1.900147e-01 1.960054e-01 2.056488e-01 2.185488e-01 2.328701e-01 2.490101e-01 2.646825e-01 2.813411e-01 2.961729e-01 3.116742e-01 3.243657e-01 3.377546e-01 3.475891e-01 3.583778e-01 3.650246e-01 3.730401e-01 3.764383e-01 3.817286e-01 3.820126e-01 3.847820e-01 3.822271e-01 3.827866e-01 3.777651e-01 3.764900e-01 3.694341e-01 3.667275e-01 3.580966e-01 3.543594e-01 3.446124e-01 3.402173e-01 3.297895e-01 3.250615e-01 3.143469e-01 3.095490e-01 2.988860e-01 2.942103e-01 2.838729e-01 2.794367e-01 2.696296e-01 2.654764e-01 2.563343e-01 2.524392e-01 2.440297e-01 2.403092e-01 2.326394e-01 2.289644e-01 2.219901e-01 2.182008e-01 2.118371e-01 2.077597e-01 2.018933e-01 1.973561e-01 1.918564e-01 1.867054e-01 1.814374e-01 1.755512e-01 1.703879e-01 1.636940e-01 1.585325e-01 1.510274e-01 1.458108e-01 1.375927e-01 1.323452e-01 1.236719e-01 1.185587e-01 1.099552e-01 1.053849e-01 9.782144e-02 9.458658e-02 8.965169e-02 8.895543e-02 8.858824e-02 9.155484e-02 9.688310e-02 1.037162e-01 1.142515e-01 1.242728e-01 1.387063e-01 
1.659547e-01 1.823146e-01 1.967370e-01 2.148992e-01 2.305810e-01 2.499018e-01 2.664247e-01 2.863583e-01 3.033232e-01 3.233685e-01 3.403688e-01 3.600372e-01 3.766448e-01 3.954433e-01 4.112046e-01 4.286316e-01 4.430711e-01 4.586202e-01 4.712506e-01 4.844216e-01 4.947594e-01 5.050761e-01 5.126618e-01 5.196943e-01 5.241169e-01 5.275074e-01 5.284314e-01 5.279221e-01 5.251164e-01 5.205776e-01 5.139440e-01 5.054008e-01 4.950026e-01 4.826594e-01 4.687496e-01 4.530145e-01 4.360664e-01 4.175785e-01 3.983253e-01 3.779936e-01 3.574862e-01 3.365524e-01 3.162447e-01 2.963724e-01 2.782175e-01 2.615555e-01 2.479771e-01 2.369595e-01 2.303259e-01 2.268030e-01 2.281696e-01 2.321462e-01 2.403441e-01 2.498665e-01 2.622820e-01 2.747310e-01 2.887322e-01 3.019031e-01 3.155093e-01 3.278839e-01 3.397886e-01 3.504297e-01 3.598454e-01 3.682415e-01 3.747577e-01 3.807020e-01 3.841844e-01 3.876900e-01 3.882092e-01 3.894464e-01 3.872238e-01 3.864707e-01 3.818345e-01 3.794359e-01 3.727838e-01 3.691159e-01 3.608824e-01 3.563228e-01 3.469512e-01 3.418543e-01 3.317729e-01 3.264501e-01 3.160523e-01 3.107573e-01 3.003860e-01 2.953044e-01 2.852408e-01 2.804847e-01 2.709411e-01 2.665484e-01 2.576654e-01 2.536041e-01 2.454531e-01 2.416302e-01 2.342192e-01 2.304943e-01 2.237784e-01 2.199805e-01 2.138736e-01 2.098192e-01 2.042077e-01 1.997196e-01 1.944756e-01 1.894005e-01 1.843956e-01 1.786209e-01 1.737406e-01 1.672124e-01 1.623737e-01 1.551196e-01 1.502956e-01 1.424598e-01 1.377173e-01 1.296187e-01 1.251780e-01 1.174064e-01 1.137281e-01 1.072699e-01 1.051348e-01 1.014126e-01 1.018449e-01 1.023605e-01 1.061889e-01 1.117023e-01 1.190461e-01 1.291753e-01 1.395261e-01 1.532731e-01 
1.770208e-01 1.929073e-01 2.061646e-01 2.241744e-01 2.387939e-01 2.582716e-01 2.738514e-01 2.942257e-01 3.103744e-01 3.311202e-01 3.474369e-01 3.680456e-01 3.841080e-01 4.040702e-01 4.194297e-01 4.382272e-01 4.524114e-01 4.695188e-01 4.820396e-01 4.969325e-01 5.072998e-01 5.194704e-01 5.272114e-01 5.361896e-01 5.408722e-01 5.462516e-01 5.475120e-01 5.489796e-01 5.465525e-01 5.439199e-01 5.376708e-01 5.309060e-01 5.208640e-01 5.101229e-01 4.965141e-01 4.821714e-01 4.654546e-01 4.481378e-01 4.290462e-01 4.096772e-01 3.892713e-01 3.691225e-01 3.488558e-01 3.296152e-01 3.113856e-01 2.951688e-01 2.812314e-01 2.703445e-01 2.628177e-01 2.589995e-01 2.588582e-01 2.622596e-01 2.685993e-01 2.776080e-01 2.881544e-01 3.003655e-01 3.126303e-01 3.258411e-01 3.378214e-01 3.504116e-01 3.607247e-01 3.716435e-01 3.794349e-01 3.880824e-01 3.929022e-01 3.990165e-01 4.007192e-01 4.042881e-01 4.029557e-01 4.041475e-01 4.000287e-01 3.991367e-01 3.925968e-01 3.899910e-01 3.814694e-01 3.775571e-01 3.675305e-01 3.627214e-01 3.516727e-01 3.463515e-01 3.347440e-01 3.292484e-01 3.175046e-01 3.121094e-01 3.005943e-01 2.954998e-01 2.845096e-01 2.798362e-01 2.695902e-01 2.653772e-01 2.560162e-01 2.522262e-01 2.438149e-01 2.403437e-01 2.328786e-01 2.295704e-01 2.229915e-01 2.196578e-01 2.138627e-01 2.103035e-01 2.051629e-01 2.011879e-01 1.965601e-01 1.920091e-01 1.877541e-01 1.825157e-01 1.785102e-01 1.725406e-01 1.686945e-01 1.620406e-01 1.583189e-01 1.511505e-01 1.476047e-01 1.402624e-01 1.370741e-01 1.301378e-01 1.276734e-01 1.220306e-01 1.208748e-01 1.177044e-01 1.185931e-01 1.191041e-01 1.226735e-01 1.276006e-01 1.340856e-01 1.433707e-01 1.525626e-01 1.655604e-01 
1.935892e-01 2.090202e-01 2.228513e-01 2.403241e-01 2.555493e-01 2.744417e-01 2.906675e-01 3.104165e-01 3.272486e-01 3.473252e-01 3.643538e-01 3.842405e-01 4.010315e-01 4.202088e-01 4.363012e-01 4.542425e-01 4.691525e-01 4.853285e-01 4.985595e-01 5.124488e-01 5.235081e-01 5.346159e-01 5.430359e-01 5.509182e-01 5.562826e-01 5.605748e-01 5.625480e-01 5.629959e-01 5.613544e-01 5.578455e-01 5.525093e-01 5.451020e-01 5.361653e-01 5.251150e-01 5.128756e-01 4.986568e-01 4.836457e-01 4.669727e-01 4.499842e-01 4.318306e-01 4.139540e-01 3.955699e-01 3.782084e-01 3.611139e-01 3.459511e-01 3.318469e-01 3.206650e-01 3.111532e-01 3.053978e-01 3.014736e-01 3.016563e-01 3.032289e-01 3.086178e-01 3.145207e-01 3.234664e-01 3.319897e-01 3.425832e-01 3.520525e-01 3.626131e-01 3.716938e-01 3.809536e-01 3.887166e-01 3.958228e-01 4.017018e-01 4.061566e-01 4.098796e-01 4.114712e-01 4.129947e-01 4.117359e-01 4.111872e-01 4.072625e-01 4.048904e-01 3.986100e-01 3.947421e-01 3.865018e-01 3.815073e-01 3.717532e-01 3.660111e-01 3.552086e-01 3.490812e-01 3.376882e-01 3.314993e-01 3.199426e-01 3.139601e-01 3.026163e-01 2.970389e-01 2.862187e-01 2.811665e-01 2.711037e-01 2.666143e-01 2.574606e-01 2.534908e-01 2.453165e-01 2.417511e-01 2.345528e-01 2.312204e-01 2.249345e-01 2.216287e-01 2.161475e-01 2.126518e-01 2.078417e-01 2.039539e-01 1.996721e-01 1.952278e-01 1.913380e-01 1.862316e-01 1.826199e-01 1.768244e-01 1.734168e-01 1.670076e-01 1.637920e-01 1.569773e-01 1.540343e-01 1.471975e-01 1.447395e-01 1.384905e-01 1.369000e-01 1.321067e-01 1.319418e-01 1.296626e-01 1.315648e-01 1.327917e-01 1.372722e-01 1.425542e-01 1.497874e-01 1.590465e-01 1.688607e-01 1.815588e-01 
2.071050e-01 2.221442e-01 2.348602e-01 2.521857e-01 2.663434e-01 2.853648e-01 3.006161e-01 3.207765e-01 3.367565e-01 3.575231e-01 3.738444e-01 3.946937e-01 4.109403e-01 4.313461e-01 4.470718e-01 4.664985e-01 4.812298e-01 4.991339e-01 5.123779e-01 5.282162e-01 5.394744e-01 5.527186e-01 5.615060e-01 5.716654e-01 5.775342e-01 5.841830e-01 5.867521e-01 5.895618e-01 5.885491e-01 5.873239e-01 5.825820e-01 5.772945e-01 5.688479e-01 5.596737e-01 5.477564e-01 5.351067e-01 5.201998e-01 5.047503e-01 4.876183e-01 4.703350e-01 4.520571e-01 4.342126e-01 4.161958e-01 3.993551e-01 3.832877e-01 3.692075e-01 3.568721e-01 3.472213e-01 3.400808e-01 3.359513e-01 3.345906e-01 3.360236e-01 3.398294e-01 3.457699e-01 3.531784e-01 3.619401e-01 3.710447e-01 3.808880e-01 3.899483e-01 3.994340e-01 4.071083e-01 4.152077e-01 4.205879e-01 4.266643e-01 4.292284e-01 4.329743e-01 4.325168e-01 4.338848e-01 4.304497e-01 4.295883e-01 4.234076e-01 4.206035e-01 4.120444e-01 4.076715e-01 3.971897e-01 3.916661e-01 3.797653e-01 3.735160e-01 3.607135e-01 3.541410e-01 3.409390e-01 3.343994e-01 3.212602e-01 3.150454e-01 3.023718e-01 2.966961e-01 2.848153e-01 2.798061e-01 2.689593e-01 2.646528e-01 2.549893e-01 2.513327e-01 2.429122e-01 2.397728e-01 2.325747e-01 2.297579e-01 2.236966e-01 2.209706e-01 2.159151e-01 2.130391e-01 2.088328e-01 2.055857e-01 2.020650e-01 1.982713e-01 1.952812e-01 1.908334e-01 1.882422e-01 1.831212e-01 1.808358e-01 1.751309e-01 1.731154e-01 1.670486e-01 1.653470e-01 1.593026e-01 1.580659e-01 1.526187e-01 1.521276e-01 1.480481e-01 1.487107e-01 1.468988e-01 1.491916e-01 1.504957e-01 1.548374e-01 1.598032e-01 1.664200e-01 1.751354e-01 1.840138e-01 1.961615e-01 
2.250200e-01 2.399168e-01 2.534470e-01 2.705210e-01 2.855097e-01 3.042003e-01 3.203092e-01 3.400719e-01 3.569362e-01 3.772383e-01 3.944625e-01 4.147725e-01 4.319280e-01 4.517071e-01 4.683320e-01 4.870316e-01 5.026367e-01 5.197030e-01 5.337829e-01 5.486693e-01 5.607201e-01 5.729072e-01 5.824499e-01 5.914728e-01 5.980817e-01 6.035621e-01 6.068966e-01 6.085783e-01 6.084172e-01 6.062008e-01 6.024752e-01 5.964488e-01 5.892731e-01 5.797367e-01 5.694358e-01 5.569156e-01 5.440462e-01 5.292993e-01 5.146648e-01 4.986705e-01 4.833204e-01 4.672527e-01 4.524524e-01 4.376144e-01 4.247527e-01 4.124437e-01 4.028403e-01 3.941338e-01 3.887423e-01 3.842109e-01 3.833167e-01 3.828402e-01 3.859372e-01 3.887411e-01 3.946961e-01 3.996120e-01 4.070074e-01 4.127918e-01 4.202484e-01 4.258117e-01 4.321825e-01 4.366956e-01 4.411387e-01 4.440532e-01 4.460330e-01 4.470578e-01 4.463127e-01 4.453740e-01 4.418731e-01 4.390696e-01 4.329679e-01 4.285268e-01 4.201216e-01 4.143577e-01 4.040484e-01 3.973270e-01 3.855784e-01 3.782835e-01 3.655926e-01 3.580989e-01 3.449647e-01 3.376147e-01 3.245110e-01 3.175948e-01 3.049459e-01 2.986839e-01 2.868431e-01 2.813718e-01 2.706045e-01 2.659661e-01 2.564397e-01 2.525790e-01 2.443617e-01 2.411336e-01 2.342031e-01 2.313910e-01 2.256533e-01 2.229977e-01 2.183102e-01 2.155433e-01 2.117387e-01 2.086181e-01 2.055266e-01 2.018657e-01 1.993314e-01 1.950245e-01 1.929212e-01 1.879635e-01 1.862094e-01 1.807164e-01 1.792916e-01 1.735192e-01 1.724868e-01 1.668528e-01 1.663809e-01 1.614790e-01 1.618544e-01 1.584376e-01 1.600514e-01 1.589470e-01 1.622301e-01 1.641685e-01 1.694809e-01 1.748983e-01 1.824273e-01 1.913648e-01 2.010961e-01 2.132579e-01 
2.408029e-01 2.554129e-01 2.678937e-01 2.848626e-01 2.988006e-01 3.176250e-01 3.327453e-01 3.529124e-01 3.688985e-01 3.898939e-01 4.063903e-01 4.276945e-01 4.443063e-01 4.653887e-01 4.816827e-01 5.019982e-01 5.175071e-01 5.364980e-01 5.507289e-01 5.678329e-01 5.802801e-01 5.949455e-01 6.051098e-01 6.168184e-01 6.242310e-01 6.325278e-01 6.367800e-01 6.413086e-01 6.420869e-01 6.426288e-01 6.397531e-01 6.362681e-01 6.297336e-01 6.223973e-01 6.124159e-01 6.016515e-01 5.886904e-01 5.751901e-01 5.600015e-01 5.447326e-01 5.283662e-01 5.125520e-01 4.963291e-01 4.813853e-01 4.668049e-01 4.541983e-01 4.427321e-01 4.337342e-01 4.265026e-01 4.218705e-01 4.192932e-01 4.190208e-01 4.206456e-01 4.239618e-01 4.286095e-01 4.342474e-01 4.403836e-01 4.469466e-01 4.530555e-01 4.593003e-01 4.641220e-01 4.691009e-01 4.717264e-01 4.748225e-01 4.746985e-01 4.756022e-01 4.724927e-01 4.711529e-01 4.650843e-01 4.616528e-01 4.528565e-01 4.476307e-01 4.364891e-01 4.298599e-01 4.168571e-01 4.092633e-01 3.949417e-01 3.868311e-01 3.717548e-01 3.635540e-01 3.482765e-01 3.403665e-01 3.254037e-01 3.181009e-01 3.039069e-01 2.974474e-01 2.843936e-01 2.789197e-01 2.672782e-01 2.628282e-01 2.527617e-01 2.492661e-01 2.408265e-01 2.381155e-01 2.312554e-01 2.290794e-01 2.236733e-01 2.217362e-01 2.176080e-01 2.156070e-01 2.125573e-01 2.102225e-01 2.080515e-01 2.051791e-01 2.037033e-01 2.001822e-01 1.992476e-01 1.950776e-01 1.945717e-01 1.898777e-01 1.897429e-01 1.847869e-01 1.850367e-01 1.802263e-01 1.809603e-01 1.768489e-01 1.782620e-01 1.755230e-01 1.778969e-01 1.772534e-01 1.809167e-01 1.830198e-01 1.882802e-01 1.935687e-01 2.006404e-01 2.092537e-01 2.182154e-01 2.300041e-01 
2.598962e-01 2.746528e-01 2.881969e-01 3.052111e-01 3.202382e-01 3.390226e-01 3.552623e-01 3.753112e-01 3.924438e-01 4.132394e-01 4.308982e-01 4.519086e-01 4.696807e-01 4.903565e-01 5.077860e-01 5.275599e-01 5.441552e-01 5.624480e-01 5.776947e-01 5.939295e-01 6.073097e-01 6.209347e-01 6.319527e-01 6.424719e-01 6.506859e-01 6.576970e-01 6.627542e-01 6.659891e-01 6.676619e-01 6.670265e-01 6.652472e-01 6.608534e-01 6.557428e-01 6.479275e-01 6.398168e-01 6.291441e-01 6.185850e-01 6.058292e-01 5.935908e-01 5.796977e-01 5.667422e-01 5.527676e-01 5.401933e-01 5.272123e-01 5.161488e-01 5.051328e-01 4.965801e-01 4.882484e-01 4.828817e-01 4.775639e-01 4.755662e-01 4.731330e-01 4.741388e-01 4.740450e-01 4.772329e-01 4.786614e-01 4.829509e-01 4.849935e-01 4.892602e-01 4.910717e-01 4.943123e-01 4.952080e-01 4.966348e-01 4.961342e-01 4.952121e-01 4.930451e-01 4.894887e-01 4.855787e-01 4.793300e-01 4.737640e-01 4.649582e-01 4.579522e-01 4.468809e-01 4.387428e-01 4.258160e-01 4.169117e-01 4.026213e-01 3.933435e-01 3.782290e-01 3.689701e-01 3.535857e-01 3.447147e-01 3.295979e-01 3.214382e-01 3.070795e-01 2.998874e-01 2.867011e-01 2.806438e-01 2.689421e-01 2.640774e-01 2.540515e-01 2.503153e-01 2.420294e-01 2.392377e-01 2.326396e-01 2.305108e-01 2.254582e-01 2.236531e-01 2.199481e-01 2.181202e-01 2.155437e-01 2.133876e-01 2.117265e-01 2.090182e-01 2.080835e-01 2.047087e-01 2.043477e-01 2.003198e-01 2.004270e-01 1.958978e-01 1.964266e-01 1.916923e-01 1.926685e-01 1.881702e-01 1.897049e-01 1.860166e-01 1.883102e-01 1.860998e-01 1.894281e-01 1.893794e-01 1.940522e-01 1.967485e-01 2.030473e-01 2.088565e-01 2.169734e-01 2.259875e-01 2.359931e-01 2.480498e-01 
2.779554e-01 2.925356e-01 3.050984e-01 3.220692e-01 3.360729e-01 3.550166e-01 3.702633e-01 3.907250e-01 4.069582e-01 4.284593e-01 4.453686e-01 4.674095e-01 4.846334e-01 5.066920e-01 5.238212e-01 5.453522e-01 5.619339e-01 5.823707e-01 5.979172e-01 6.166798e-01 6.306812e-01 6.471915e-01 6.591328e-01 6.728373e-01 6.822223e-01 6.926239e-01 6.990046e-01 7.057013e-01 7.087133e-01 7.114430e-01 7.108477e-01 7.095333e-01 7.052644e-01 7.000567e-01 6.922674e-01 6.835765e-01 6.726829e-01 6.611922e-01 6.479011e-01 6.345563e-01 6.198656e-01 6.058283e-01 5.909790e-01 5.775339e-01 5.638935e-01 5.522968e-01 5.411574e-01 5.324297e-01 5.247405e-01 5.194473e-01 5.155627e-01 5.136707e-01 5.132378e-01 5.141325e-01 5.161911e-01 5.188594e-01 5.221046e-01 5.253913e-01 5.284686e-01 5.313024e-01 5.330316e-01 5.345665e-01 5.340626e-01 5.337379e-01 5.304474e-01 5.279885e-01 5.216728e-01 5.170586e-01 5.077509e-01 5.011637e-01 4.891149e-01 4.808851e-01 4.665098e-01 4.570617e-01 4.408869e-01 4.306917e-01 4.133122e-01 4.028484e-01 3.848880e-01 3.746121e-01 3.566900e-01 3.470139e-01 3.297151e-01 3.209883e-01 3.048355e-01 2.973284e-01 2.827552e-01 2.766397e-01 2.639645e-01 2.592937e-01 2.487003e-01 2.453925e-01 2.369228e-01 2.347616e-01 2.283273e-01 2.269851e-01 2.223991e-01 2.214840e-01 2.185010e-01 2.176158e-01 2.159723e-01 2.147716e-01 2.142139e-01 2.124488e-01 2.127502e-01 2.102971e-01 2.112670e-01 2.081418e-01 2.096333e-01 2.059956e-01 2.079143e-01 2.040632e-01 2.063782e-01 2.027426e-01 2.054973e-01 2.026142e-01 2.059314e-01 2.044074e-01 2.084821e-01 2.089300e-01 2.140047e-01 2.169587e-01 2.232820e-01 2.291136e-01 2.368931e-01 2.457586e-01 2.551249e-01 2.669646e-01 
2.981510e-01 3.131406e-01 3.270145e-01 3.443255e-01 3.596960e-01 3.789128e-01 3.955803e-01 4.162454e-01 4.339446e-01 4.555681e-01 4.739706e-01 4.960321e-01 5.147495e-01 5.366966e-01 5.552847e-01 5.765350e-01 5.945020e-01 6.144495e-01 6.312703e-01 6.493014e-01 6.644390e-01 6.799579e-01 6.928922e-01 7.053571e-01 7.156202e-01 7.245882e-01 7.318038e-01 7.369799e-01 7.409029e-01 7.421865e-01 7.427381e-01 7.402572e-01 7.375501e-01 7.316737e-01 7.260259e-01 7.173495e-01 7.092812e-01 6.985828e-01 6.887981e-01 6.769697e-01 6.663170e-01 6.542794e-01 6.436872e-01 6.322956e-01 6.226776e-01 6.126281e-01 6.047606e-01 5.965099e-01 5.909013e-01 5.846148e-01 5.814037e-01 5.769481e-01 5.758710e-01 5.728573e-01 5.733028e-01 5.711687e-01 5.722995e-01 5.704102e-01 5.713109e-01 5.690522e-01 5.688621e-01 5.657137e-01 5.637212e-01 5.593031e-01 5.549994e-01 5.490936e-01 5.421918e-01 5.347430e-01 5.251726e-01 5.162734e-01 5.041602e-01 4.940259e-01 4.796633e-01 4.686018e-01 4.524176e-01 4.407991e-01 4.233215e-01 4.115507e-01 3.933738e-01 3.818654e-01 3.636147e-01 3.527724e-01 3.350697e-01 3.252647e-01 3.086912e-01 3.002371e-01 2.852944e-01 2.784150e-01 2.654857e-01 2.602778e-01 2.495915e-01 2.459927e-01 2.376089e-01 2.353873e-01 2.292064e-01 2.279851e-01 2.237880e-01 2.231060e-01 2.206092e-01 2.199986e-01 2.189056e-01 2.179645e-01 2.180002e-01 2.164469e-01 2.173744e-01 2.150781e-01 2.167053e-01 2.136975e-01 2.158814e-01 2.123536e-01 2.150067e-01 2.112990e-01 2.143993e-01 2.109801e-01 2.145798e-01 2.120147e-01 2.162436e-01 2.151471e-01 2.202033e-01 2.211707e-01 2.272939e-01 2.308203e-01 2.382520e-01 2.446608e-01 2.536011e-01 2.630074e-01 2.735828e-01 2.859020e-01 
3.186294e-01 3.335561e-01 3.465186e-01 3.638608e-01 3.782430e-01 3.976600e-01 4.133379e-01 4.344365e-01 4.512178e-01 4.735652e-01 4.911927e-01 5.143216e-01 5.324770e-01 5.558858e-01 5.741927e-01 5.973452e-01 6.153737e-01 6.377012e-01 6.549751e-01 6.758826e-01 6.918909e-01 7.107709e-01 7.249824e-01 7.412373e-01 7.531220e-01 7.661961e-01 7.752525e-01 7.846751e-01 7.904649e-01 7.959010e-01 7.980939e-01 7.993985e-01 7.978258e-01 7.950942e-01 7.898073e-01 7.834111e-01 7.747362e-01 7.653337e-01 7.539069e-01 7.424172e-01 7.291817e-01 7.167171e-01 7.028633e-01 6.906140e-01 6.774472e-01 6.665269e-01 6.552637e-01 6.465312e-01 6.380558e-01 6.319549e-01 6.266086e-01 6.230813e-01 6.205741e-01 6.190915e-01 6.185824e-01 6.182863e-01 6.185980e-01 6.184994e-01 6.183756e-01 6.175423e-01 6.158624e-01 6.135528e-01 6.094644e-01 6.051971e-01 5.981698e-01 5.917380e-01 5.815589e-01 5.730052e-01 5.597415e-01 5.493110e-01 5.332571e-01 5.213395e-01 5.029619e-01 4.900348e-01 4.699202e-01 4.564994e-01 4.353089e-01 4.219099e-01 4.003405e-01 3.874523e-01 3.662029e-01 3.542715e-01 3.340132e-01 3.234302e-01 3.047757e-01 2.958638e-01 2.793340e-01 2.723217e-01 2.583069e-01 2.532906e-01 2.420128e-01 2.389155e-01 2.304062e-01 2.289571e-01 2.230665e-01 2.228254e-01 2.192697e-01 2.196973e-01 2.181259e-01 2.186791e-01 2.187348e-01 2.189536e-01 2.203086e-01 2.198764e-01 2.222460e-01 2.210195e-01 2.241641e-01 2.221784e-01 2.259041e-01 2.233607e-01 2.275246e-01 2.247689e-01 2.292890e-01 2.267804e-01 2.316455e-01 2.299208e-01 2.351966e-01 2.348239e-01 2.406488e-01 2.421732e-01 2.487414e-01 2.526247e-01 2.601564e-01 2.667247e-01 2.754305e-01 2.848428e-01 2.948906e-01 3.071374e-01 