# vtk DataFile Version 2.0
Comment goes here
ASCII

DATASET STRUCTURED_POINTS
FIELD FieldData 1
TIME 1 1 double
0.10500000
DIMENSIONS    128   128   1

ORIGIN    0.000   0.000   0.000
SPACING   0.039062 0.039062   1.000

POINT_DATA   16384
SCALARS uMag double
LOOKUP_TABLE default

3.161242e-01 2.580487e-01 2.039358e-01 1.462223e-01 9.257245e-02 3.581026e-02 1.685083e-02 7.213387e-02 1.233396e-01 1.766758e-01 2.260171e-01 2.769969e-01 3.241197e-01 3.723883e-01 4.169906e-01 4.622455e-01 5.040737e-01 5.460612e-01 5.849074e-01 6.234199e-01 6.591183e-01 6.939921e-01 7.264154e-01 7.575275e-01 7.865839e-01 8.138495e-01 8.394785e-01 8.628475e-01 8.850154e-01 9.044688e-01 9.231637e-01 9.387083e-01 9.539348e-01 9.655985e-01 9.773717e-01 9.851970e-01 9.935367e-01 9.975752e-01 1.002500e+00 1.002806e+00 1.004328e+00 1.000953e+00 9.990762e-01 9.920633e-01 9.867783e-01 9.761616e-01 9.674458e-01 9.532470e-01 9.410665e-01 9.232959e-01 9.076081e-01 8.862674e-01 8.670263e-01 8.421133e-01 8.192765e-01 7.907916e-01 7.643281e-01 7.322828e-01 7.021827e-01 6.666087e-01 6.328926e-01 5.938518e-01 5.565808e-01 5.141756e-01 4.734602e-01 4.278431e-01 3.838520e-01 3.352344e-01 2.882013e-01 2.368605e-01 1.870898e-01 1.333751e-01 8.124498e-02 2.558103e-02 2.845437e-02 8.556615e-02 1.409779e-01 1.989604e-01 2.551474e-01 3.133516e-01 3.696464e-01 4.273577e-01 4.830344e-01 5.394824e-01 5.937678e-01 6.481390e-01 7.002264e-01 7.516805e-01 8.007471e-01 8.484368e-01 8.936638e-01 9.367571e-01 9.773525e-01 1.015059e+00 1.050282e+00 1.081878e+00 1.111065e+00 1.135923e+00 1.158513e+00 1.176125e+00 1.191681e+00 1.201682e+00 1.209910e+00 1.212091e+00 1.212853e+00 1.207178e+00 1.200496e+00 1.187095e+00 1.173152e+00 1.152321e+00 1.131450e+00 1.103633e+00 1.076301e+00 1.042071e+00 1.008858e+00 9.688909e-01 9.304637e-01 8.855126e-01 8.425994e-01 7.934644e-01 7.468281e-01 6.943300e-01 6.447436e-01 5.897003e-01 5.379259e-01 4.811322e-01 4.279034e-01 3.701155e-01 
3.221166e-01 2.650441e-01 2.124196e-01 1.573106e-01 1.085649e-01 6.584206e-02 5.630046e-02 8.906163e-02 1.332689e-01 1.833466e-01 2.308582e-01 2.807266e-01 3.270159e-01 3.747609e-01 4.188791e-01 4.638510e-01 5.053593e-01 5.471862e-01 5.858041e-01 6.242275e-01 6.597553e-01 6.945854e-01 7.268781e-01 7.579772e-01 7.869326e-01 8.142067e-01 8.397579e-01 8.631507e-01 8.852599e-01 9.047479e-01 9.234004e-01 9.389875e-01 9.541862e-01 9.658978e-01 9.776563e-01 9.855335e-01 9.938710e-01 9.979643e-01 1.002899e+00 1.003262e+00 1.004806e+00 1.001490e+00 9.996479e-01 9.926968e-01 9.874587e-01 9.769069e-01 9.682513e-01 9.541212e-01 9.420151e-01 9.243183e-01 9.087204e-01 8.874600e-01 8.683261e-01 8.435023e-01 8.207922e-01 7.924085e-01 7.660950e-01 7.341678e-01 7.042464e-01 6.688151e-01 6.353158e-01 5.964555e-01 5.594554e-01 5.172927e-01 4.769333e-01 4.316686e-01 3.881852e-01 3.401399e-01 2.939351e-01 2.437016e-01 1.956513e-01 1.449149e-01 9.881581e-02 6.116970e-02 6.175007e-02 1.012072e-01 1.505940e-01 2.056889e-01 2.601474e-01 3.173217e-01 3.727931e-01 4.300172e-01 4.852036e-01 5.413963e-01 5.953550e-01 6.495934e-01 7.014509e-01 7.528462e-01 8.017486e-01 8.494279e-01 8.945398e-01 9.376563e-01 9.781762e-01 1.015929e+00 1.051110e+00 1.082769e+00 1.111943e+00 1.136874e+00 1.159476e+00 1.177167e+00 1.192757e+00 1.202839e+00 1.211120e+00 1.213383e+00 1.214214e+00 1.208618e+00 1.202020e+00 1.188696e+00 1.174850e+00 1.154093e+00 1.133331e+00 1.105587e+00 1.078375e+00 1.044219e+00 1.011139e+00 9.712526e-01 9.329734e-01 8.881149e-01 8.453699e-01 7.963483e-01 7.499089e-01 6.975591e-01 6.482135e-01 5.933776e-01 5.419163e-01 4.854348e-01 4.326515e-01 3.753819e-01 
3.356239e-01 2.813064e-01 2.322638e-01 1.832905e-01 1.435282e-01 1.148335e-01 1.095662e-01 1.296456e-01 1.631914e-01 2.062100e-01 2.494036e-01 2.962047e-01 3.403960e-01 3.864971e-01 4.294066e-01 4.733587e-01 5.140887e-01 5.552159e-01 5.932930e-01 6.311995e-01 6.663304e-01 7.007563e-01 7.327454e-01 7.635143e-01 7.922303e-01 8.192255e-01 8.445837e-01 8.677354e-01 8.896868e-01 9.089634e-01 9.274867e-01 9.428874e-01 9.579810e-01 9.695291e-01 9.812044e-01 9.889403e-01 9.972147e-01 1.001189e+00 1.006081e+00 1.006349e+00 1.007869e+00 1.004483e+00 1.002637e+00 9.956433e-01 9.904208e-01 9.798558e-01 9.712363e-01 9.571249e-01 9.450764e-01 9.274332e-01 9.119163e-01 8.907488e-01 8.717226e-01 8.470365e-01 8.244667e-01 7.962744e-01 7.701432e-01 7.384748e-01 7.087939e-01 6.737113e-01 6.405378e-01 6.021543e-01 5.656132e-01 5.241239e-01 4.844467e-01 4.401859e-01 3.977926e-01 3.513755e-01 3.071063e-01 2.598864e-01 2.158786e-01 1.719713e-01 1.361756e-01 1.130761e-01 1.144480e-01 1.407428e-01 1.803392e-01 2.290105e-01 2.795165e-01 3.338434e-01 3.874040e-01 4.430969e-01 4.972118e-01 5.524686e-01 6.057685e-01 6.593847e-01 7.108121e-01 7.617683e-01 8.103774e-01 8.577322e-01 9.026364e-01 9.455032e-01 9.858695e-01 1.023423e+00 1.058484e+00 1.089978e+00 1.119053e+00 1.143841e+00 1.166357e+00 1.183921e+00 1.199430e+00 1.209397e+00 1.217600e+00 1.219759e+00 1.220514e+00 1.214825e+00 1.208156e+00 1.194753e+00 1.180844e+00 1.160028e+00 1.139215e+00 1.111440e+00 1.084200e+00 1.050050e+00 1.016973e+00 9.771439e-01 9.389140e-01 8.941817e-01 8.515512e-01 8.027506e-01 7.565198e-01 7.045258e-01 6.555293e-01 6.012510e-01 5.503622e-01 4.947660e-01 4.429441e-01 3.871559e-01 
3.596563e-01 3.090353e-01 2.645576e-01 2.220846e-01 1.896923e-01 1.681387e-01 1.634866e-01 1.767758e-01 2.017344e-01 2.373257e-01 2.749805e-01 3.176514e-01 3.586611e-01 4.023930e-01 4.433177e-01 4.857993e-01 5.251885e-01 5.653440e-01 6.024598e-01 6.396948e-01 6.741065e-01 7.080536e-01 7.394887e-01 7.699091e-01 7.981903e-01 8.249286e-01 8.499426e-01 8.729044e-01 8.945839e-01 9.137212e-01 9.320328e-01 9.473343e-01 9.622688e-01 9.737510e-01 9.853150e-01 9.930147e-01 1.001223e+00 1.005189e+00 1.010058e+00 1.010346e+00 1.011887e+00 1.008550e+00 1.006768e+00 9.998559e-01 9.947423e-01 9.842939e-01 9.758302e-01 9.618748e-01 9.500316e-01 9.325892e-01 9.173316e-01 8.964167e-01 8.777101e-01 8.533383e-01 8.311584e-01 8.033565e-01 7.777013e-01 7.465214e-01 7.174276e-01 6.829665e-01 6.505325e-01 6.129614e-01 5.773829e-01 5.369975e-01 4.986333e-01 4.559547e-01 4.154701e-01 3.714863e-01 3.302314e-01 2.870872e-01 2.482700e-01 2.115002e-01 1.838888e-01 1.678496e-01 1.689974e-01 1.881189e-01 2.194206e-01 2.611545e-01 3.064417e-01 3.569148e-01 4.074672e-01 4.609572e-01 5.132055e-01 5.671253e-01 6.191886e-01 6.719627e-01 7.225354e-01 7.729560e-01 8.209614e-01 8.679820e-01 9.124585e-01 9.551286e-01 9.951971e-01 1.032649e+00 1.067512e+00 1.098969e+00 1.127924e+00 1.152720e+00 1.175176e+00 1.192776e+00 1.208276e+00 1.218296e+00 1.226531e+00 1.228751e+00 1.229574e+00 1.223954e+00 1.217384e+00 1.204058e+00 1.190280e+00 1.169555e+00 1.148910e+00 1.121249e+00 1.094220e+00 1.060224e+00 1.027412e+00 9.877966e-01 9.499047e-01 9.054742e-01 8.632813e-01 8.149115e-01 7.692592e-01 7.178863e-01 6.696768e-01 6.163093e-01 5.665327e-01 5.123131e-01 4.621473e-01 4.085420e-01 
3.889936e-01 3.424793e-01 3.025252e-01 2.659432e-01 2.390809e-01 2.221505e-01 2.181742e-01 2.281229e-01 2.475662e-01 2.771915e-01 3.097260e-01 3.480341e-01 3.855695e-01 4.264232e-01 4.650164e-01 5.055446e-01 5.433047e-01 5.820690e-01 6.179964e-01 6.541937e-01 6.877058e-01 7.208474e-01 7.515813e-01 7.813547e-01 8.090772e-01 8.352816e-01 8.598441e-01 8.823561e-01 9.036686e-01 9.224222e-01 9.404368e-01 9.554099e-01 9.701081e-01 9.813115e-01 9.926945e-01 1.000163e+00 1.008242e+00 1.012024e+00 1.016815e+00 1.016968e+00 1.018483e+00 1.015064e+00 1.013306e+00 1.006368e+00 1.001331e+00 9.909181e-01 9.825845e-01 9.687316e-01 9.570750e-01 9.398088e-01 9.247987e-01 9.041426e-01 8.857518e-01 8.617340e-01 8.399504e-01 8.126161e-01 7.874573e-01 7.568865e-01 7.284215e-01 6.947552e-01 6.631348e-01 6.266157e-01 5.921233e-01 5.531670e-01 5.163111e-01 4.756464e-01 4.373560e-01 3.963373e-01 3.584221e-01 3.197871e-01 2.860688e-01 2.556928e-01 2.341858e-01 2.228739e-01 2.246721e-01 2.404254e-01 2.665003e-01 3.026679e-01 3.432511e-01 3.896993e-01 4.371083e-01 4.879668e-01 5.381561e-01 5.903292e-01 6.410086e-01 6.925876e-01 7.422039e-01 7.917846e-01 8.391140e-01 8.855315e-01 9.295218e-01 9.717501e-01 1.011464e+00 1.048584e+00 1.083184e+00 1.114386e+00 1.143140e+00 1.167732e+00 1.190031e+00 1.207461e+00 1.222834e+00 1.232706e+00 1.240836e+00 1.242927e+00 1.243664e+00 1.237932e+00 1.231297e+00 1.217882e+00 1.204066e+00 1.183287e+00 1.162640e+00 1.134977e+00 1.107996e+00 1.074071e+00 1.041381e+00 1.001938e+00 9.642674e-01 9.201497e-01 8.783158e-01 8.304513e-01 7.853514e-01 7.347522e-01 6.873728e-01 6.351658e-01 5.866342e-01 5.341570e-01 4.858849e-01 4.349379e-01 
4.261890e-01 3.834960e-01 3.474799e-01 3.153559e-01 2.920869e-01 2.775725e-01 2.733356e-01 2.805768e-01 2.955903e-01 3.201812e-01 3.478487e-01 3.818573e-01 4.156068e-01 4.533673e-01 4.892029e-01 5.275563e-01 5.632915e-01 6.005029e-01 6.349067e-01 6.699693e-01 7.023067e-01 7.346009e-01 7.644111e-01 7.935397e-01 8.205260e-01 8.462324e-01 8.702045e-01 8.923282e-01 9.131682e-01 9.316185e-01 9.492602e-01 9.639987e-01 9.784117e-01 9.894391e-01 1.000617e+00 1.007963e+00 1.015913e+00 1.019625e+00 1.024360e+00 1.024496e+00 1.026028e+00 1.022648e+00 1.020982e+00 1.014143e+00 1.009275e+00 9.990272e-01 9.909415e-01 9.773278e-01 9.660026e-01 9.490585e-01 9.344694e-01 9.142298e-01 8.963596e-01 8.728681e-01 8.517195e-01 8.250432e-01 8.006572e-01 7.709087e-01 7.433903e-01 7.107597e-01 6.803165e-01 6.451229e-01 6.121277e-01 5.749068e-01 5.400095e-01 5.016777e-01 4.660240e-01 4.282075e-01 3.938868e-01 3.595833e-01 3.304837e-01 3.051260e-01 2.878618e-01 2.793347e-01 2.812287e-01 2.945501e-01 3.165513e-01 3.480810e-01 3.841675e-01 4.266664e-01 4.705880e-01 5.186315e-01 5.663095e-01 6.165525e-01 6.654327e-01 7.156989e-01 7.640159e-01 8.127113e-01 8.590985e-01 9.049309e-01 9.482415e-01 9.900983e-01 1.029330e+00 1.066231e+00 1.100502e+00 1.131590e+00 1.160134e+00 1.184685e+00 1.206868e+00 1.224301e+00 1.239632e+00 1.249535e+00 1.257684e+00 1.259821e+00 1.260627e+00 1.254953e+00 1.248435e+00 1.235094e+00 1.221441e+00 1.200762e+00 1.180333e+00 1.152813e+00 1.126119e+00 1.092406e+00 1.060089e+00 1.020960e+00 9.837789e-01 9.401234e-01 8.989352e-01 8.517398e-01 8.074999e-01 7.578593e-01 7.116393e-01 6.607994e-01 6.138540e-01 5.633273e-01 5.172557e-01 4.690847e-01 
4.664870e-01 4.273907e-01 3.947737e-01 3.663993e-01 3.459238e-01 3.333770e-01 3.292104e-01 3.349090e-01 3.469860e-01 3.678655e-01 3.916561e-01 4.218876e-01 4.522002e-01 4.868873e-01 5.200088e-01 5.560038e-01 5.896462e-01 6.250519e-01 6.578307e-01 6.914876e-01 7.225433e-01 7.537182e-01 7.825007e-01 8.107177e-01 8.368691e-01 8.618179e-01 8.851060e-01 9.065900e-01 9.268691e-01 9.447743e-01 9.619597e-01 9.762332e-01 9.902830e-01 1.000918e+00 1.011819e+00 1.018842e+00 1.026598e+00 1.030058e+00 1.034680e+00 1.034637e+00 1.036138e+00 1.032659e+00 1.031043e+00 1.024190e+00 1.019456e+00 1.009287e+00 1.001421e+00 9.879859e-01 9.769700e-01 9.603150e-01 9.461304e-01 9.263022e-01 9.089411e-01 8.859998e-01 8.654801e-01 8.395161e-01 8.159033e-01 7.870629e-01 7.605002e-01 7.290245e-01 6.997786e-01 6.660627e-01 6.345956e-01 5.992879e-01 5.663803e-01 5.305551e-01 4.975261e-01 4.629912e-01 4.320851e-01 4.018865e-01 3.768297e-01 3.557639e-01 3.419477e-01 3.358698e-01 3.383928e-01 3.506259e-01 3.702369e-01 3.985487e-01 4.312981e-01 4.704748e-01 5.114422e-01 5.568036e-01 6.021963e-01 6.504330e-01 6.976149e-01 7.464137e-01 7.934807e-01 8.411088e-01 8.865763e-01 9.316325e-01 9.742653e-01 1.015556e+00 1.054286e+00 1.090770e+00 1.124668e+00 1.155442e+00 1.183707e+00 1.208011e+00 1.229980e+00 1.247211e+00 1.262376e+00 1.272102e+00 1.280121e+00 1.282100e+00 1.282807e+00 1.276994e+00 1.270407e+00 1.256956e+00 1.243275e+00 1.222529e+00 1.202126e+00 1.174607e+00 1.148013e+00 1.114402e+00 1.082287e+00 1.043402e+00 1.006560e+00 9.633387e-01 9.226755e-01 8.761691e-01 8.327028e-01 7.840898e-01 7.389780e-01 6.896161e-01 6.442300e-01 5.957774e-01 5.518611e-01 5.065160e-01 
5.126861e-01 4.765491e-01 4.465847e-01 4.208514e-01 4.020998e-01 3.905094e-01 3.858528e-01 3.899366e-01 3.992744e-01 4.168536e-01 4.369893e-01 4.636880e-01 4.905282e-01 5.221802e-01 5.523911e-01 5.859800e-01 6.172801e-01 6.508238e-01 6.817314e-01 7.139490e-01 7.435026e-01 7.735566e-01 8.011241e-01 8.284589e-01 8.536217e-01 8.778687e-01 9.003511e-01 9.212726e-01 9.408982e-01 9.583512e-01 9.750146e-01 9.889273e-01 1.002573e+00 1.012927e+00 1.023533e+00 1.030349e+00 1.037914e+00 1.041240e+00 1.045775e+00 1.045674e+00 1.047189e+00 1.043732e+00 1.042235e+00 1.035493e+00 1.030984e+00 1.021023e+00 1.013491e+00 1.000371e+00 9.898042e-01 9.735829e-01 9.599691e-01 9.407072e-01 9.240495e-01 9.018252e-01 8.821581e-01 8.570860e-01 8.344996e-01 8.067603e-01 7.814344e-01 7.513170e-01 7.235714e-01 6.915386e-01 6.619092e-01 6.286990e-01 5.980609e-01 5.648511e-01 5.346148e-01 5.032788e-01 4.756836e-01 4.491225e-01 4.275344e-01 4.098247e-01 3.985580e-01 3.941183e-01 3.968863e-01 4.081235e-01 4.256307e-01 4.512027e-01 4.808432e-01 5.169707e-01 5.549272e-01 5.976686e-01 6.405520e-01 6.867608e-01 7.319713e-01 7.792782e-01 8.248363e-01 8.714042e-01 9.157362e-01 9.600659e-01 1.001860e+00 1.042676e+00 1.080803e+00 1.116998e+00 1.150479e+00 1.181098e+00 1.209094e+00 1.233333e+00 1.255151e+00 1.272371e+00 1.287477e+00 1.297224e+00 1.305257e+00 1.307273e+00 1.308055e+00 1.302290e+00 1.295834e+00 1.282445e+00 1.268951e+00 1.248297e+00 1.228146e+00 1.200774e+00 1.174513e+00 1.141136e+00 1.109459e+00 1.070938e+00 1.034674e+00 9.919982e-01 9.520958e-01 9.063801e-01 8.639134e-01 8.164132e-01 7.726099e-01 7.247730e-01 6.810849e-01 6.346616e-01 5.929011e-01 5.501326e-01 
5.606744e-01 5.272272e-01 4.995273e-01 4.761025e-01 4.588195e-01 4.481872e-01 4.433555e-01 4.464550e-01 4.538914e-01 4.690172e-01 4.863144e-01 5.100642e-01 5.339534e-01 5.628195e-01 5.903819e-01 6.215857e-01 6.506470e-01 6.822210e-01 7.112741e-01 7.418766e-01 7.698984e-01 7.986195e-01 8.249173e-01 8.511389e-01 8.752440e-01 8.985495e-01 9.201489e-01 9.402653e-01 9.591563e-01 9.759169e-01 9.919761e-01 1.005294e+00 1.018455e+00 1.028306e+00 1.038540e+00 1.044941e+00 1.052246e+00 1.055248e+00 1.059632e+00 1.059304e+00 1.060780e+00 1.057201e+00 1.055776e+00 1.049025e+00 1.044702e+00 1.034854e+00 1.027625e+00 1.014751e+00 1.004607e+00 9.887756e-01 9.757106e-01 9.569955e-01 9.410210e-01 9.195177e-01 9.006827e-01 8.765287e-01 8.549462e-01 8.283533e-01 8.042377e-01 7.755387e-01 7.492589e-01 7.189745e-01 6.911317e-01 6.600710e-01 6.316145e-01 6.010218e-01 5.734159e-01 5.451694e-01 5.205971e-01 4.973998e-01 4.788797e-01 4.641953e-01 4.552461e-01 4.524998e-01 4.559349e-01 4.669156e-01 4.833267e-01 5.071401e-01 5.346906e-01 5.685036e-01 6.041891e-01 6.447164e-01 6.855710e-01 7.299245e-01 7.734726e-01 8.193205e-01 8.635720e-01 9.090320e-01 9.523594e-01 9.958656e-01 1.036897e+00 1.077109e+00 1.114662e+00 1.150415e+00 1.183465e+00 1.213753e+00 1.241423e+00 1.265403e+00 1.286972e+00 1.303975e+00 1.318887e+00 1.328437e+00 1.336316e+00 1.338146e+00 1.338809e+00 1.332869e+00 1.326330e+00 1.312789e+00 1.299257e+00 1.278498e+00 1.258371e+00 1.230970e+00 1.204820e+00 1.171532e+00 1.140085e+00 1.101816e+00 1.065938e+00 1.023733e+00 9.844214e-01 9.394563e-01 8.978401e-01 8.514396e-01 8.088089e-01 7.624926e-01 7.203600e-01 6.759332e-01 6.361400e-01 5.958258e-01 
6.135426e-01 5.821600e-01 5.561030e-01 5.342037e-01 5.176995e-01 5.073823e-01 5.019288e-01 5.038143e-01 5.092417e-01 5.219973e-01 5.364757e-01 5.574138e-01 5.783174e-01 6.044753e-01 6.292701e-01 6.581140e-01 6.847667e-01 7.143783e-01 7.413928e-01 7.703947e-01 7.967095e-01 8.241318e-01 8.490049e-01 8.741704e-01 8.970883e-01 9.195306e-01 9.401440e-01 9.595512e-01 9.776302e-01 9.938074e-01 1.009209e+00 1.022051e+00 1.034696e+00 1.044165e+00 1.054017e+00 1.060128e+00 1.067181e+00 1.069984e+00 1.074246e+00 1.073815e+00 1.075298e+00 1.071721e+00 1.070436e+00 1.063801e+00 1.059753e+00 1.050147e+00 1.043332e+00 1.030839e+00 1.021251e+00 1.005952e+00 9.935931e-01 9.755770e-01 9.604683e-01 9.398479e-01 9.220523e-01 8.989871e-01 8.786381e-01 8.533680e-01 8.307087e-01 8.036019e-01 7.790384e-01 7.506578e-01 7.248335e-01 6.960294e-01 6.699270e-01 6.419594e-01 6.170304e-01 5.917093e-01 5.699981e-01 5.497678e-01 5.339135e-01 5.216886e-01 5.145606e-01 5.130535e-01 5.168582e-01 5.274888e-01 5.427808e-01 5.649945e-01 5.904993e-01 6.221707e-01 6.555392e-01 6.939479e-01 7.326273e-01 7.751637e-01 8.168509e-01 8.612638e-01 9.040047e-01 9.483972e-01 9.905424e-01 1.033298e+00 1.073435e+00 1.113154e+00 1.150055e+00 1.185513e+00 1.218113e+00 1.248250e+00 1.275633e+00 1.299559e+00 1.320970e+00 1.337975e+00 1.352830e+00 1.362408e+00 1.370310e+00 1.372174e+00 1.372923e+00 1.367016e+00 1.360617e+00 1.347114e+00 1.333779e+00 1.313080e+00 1.293214e+00 1.265927e+00 1.240119e+00 1.207036e+00 1.176039e+00 1.138115e+00 1.102827e+00 1.061159e+00 1.022617e+00 9.784380e-01 9.378143e-01 8.925038e-01 8.511291e-01 8.062510e-01 7.656615e-01 7.230286e-01 6.850363e-01 6.467871e-01 
6.675736e-01 6.380811e-01 6.134556e-01 5.929732e-01 5.772120e-01 5.673382e-01 5.615509e-01 5.626577e-01 5.666450e-01 5.776089e-01 5.898979e-01 6.085184e-01 6.269484e-01 6.507033e-01 6.730769e-01 6.996857e-01 7.241356e-01 7.517755e-01 7.768564e-01 8.041579e-01 8.288022e-01 8.547665e-01 8.782054e-01 9.021171e-01 9.238068e-01 9.451639e-01 9.647291e-01 9.831912e-01 1.000382e+00 1.015734e+00 1.030395e+00 1.042520e+00 1.054563e+00 1.063418e+00 1.072805e+00 1.078406e+00 1.085129e+00 1.087531e+00 1.091601e+00 1.090888e+00 1.092318e+00 1.088586e+00 1.087391e+00 1.080741e+00 1.076926e+00 1.067458e+00 1.061023e+00 1.048831e+00 1.039771e+00 1.024948e+00 1.013269e+00 9.959176e-01 9.816466e-01 9.618927e-01 9.451031e-01 9.231243e-01 9.039664e-01 8.800251e-01 8.587659e-01 8.332582e-01 8.103350e-01 7.838546e-01 7.599441e-01 7.333655e-01 7.094716e-01 6.840489e-01 6.615981e-01 6.390566e-01 6.199629e-01 6.025115e-01 5.891078e-01 5.792305e-01 5.739144e-01 5.738099e-01 5.783607e-01 5.891674e-01 6.040677e-01 6.254032e-01 6.497050e-01 6.799081e-01 7.117164e-01 7.485084e-01 7.856135e-01 8.266560e-01 8.669351e-01 9.100941e-01 9.516577e-01 9.950600e-01 1.036261e+00 1.078268e+00 1.117668e+00 1.156837e+00 1.193173e+00 1.228233e+00 1.260402e+00 1.290245e+00 1.317300e+00 1.340991e+00 1.362146e+00 1.378943e+00 1.393591e+00 1.402963e+00 1.410693e+00 1.412341e+00 1.412945e+00 1.406815e+00 1.400302e+00 1.386585e+00 1.373176e+00 1.352299e+00 1.332420e+00 1.305030e+00 1.279296e+00 1.246231e+00 1.215428e+00 1.177693e+00 1.142759e+00 1.101505e+00 1.063516e+00 1.020028e+00 9.801960e-01 9.359001e-01 8.955887e-01 8.520745e-01 8.128295e-01 7.718928e-01 7.354810e-01 6.991543e-01 
7.260760e-01 6.979200e-01 6.742098e-01 6.545424e-01 6.389955e-01 6.290657e-01 6.225393e-01 6.225861e-01 6.249016e-01 6.339917e-01 6.439673e-01 6.602850e-01 6.761374e-01 6.975235e-01 7.173503e-01 7.417536e-01 7.638529e-01 7.895508e-01 8.125427e-01 8.381845e-01 8.610100e-01 8.855757e-01 9.074490e-01 9.301875e-01 9.505399e-01 9.709121e-01 9.893439e-01 1.006977e+00 1.023219e+00 1.037873e+00 1.051754e+00 1.063294e+00 1.074717e+00 1.083093e+00 1.092014e+00 1.097239e+00 1.103649e+00 1.105781e+00 1.109690e+00 1.108822e+00 1.110248e+00 1.106488e+00 1.105447e+00 1.098909e+00 1.095411e+00 1.086209e+00 1.080257e+00 1.068499e+00 1.060093e+00 1.045888e+00 1.035037e+00 1.018500e+00 1.005237e+00 9.865096e-01 9.709182e-01 9.501929e-01 9.324357e-01 9.099920e-01 8.903523e-01 8.666037e-01 8.455358e-01 8.210893e-01 7.992802e-01 7.750077e-01 7.534478e-01 7.305611e-01 7.106089e-01 6.907119e-01 6.741142e-01 6.591707e-01 6.479611e-01 6.400840e-01 6.362703e-01 6.372743e-01 6.423264e-01 6.531707e-01 6.675420e-01 6.879996e-01 7.110101e-01 7.397972e-01 7.699355e-01 8.051553e-01 8.405314e-01 8.801078e-01 9.187949e-01 9.607277e-01 1.000929e+00 1.043389e+00 1.083486e+00 1.124827e+00 1.163374e+00 1.202118e+00 1.237831e+00 1.272660e+00 1.304404e+00 1.334157e+00 1.360951e+00 1.384644e+00 1.405670e+00 1.422514e+00 1.437134e+00 1.446561e+00 1.454337e+00 1.456025e+00 1.456730e+00 1.450614e+00 1.444246e+00 1.430524e+00 1.417301e+00 1.396423e+00 1.376780e+00 1.349425e+00 1.323994e+00 1.291047e+00 1.260639e+00 1.223155e+00 1.188738e+00 1.147917e+00 1.110600e+00 1.067774e+00 1.028797e+00 9.854234e-01 9.461634e-01 9.038379e-01 8.658236e-01 8.262959e-01 7.912181e-01 7.563895e-01 
7.855032e-01 7.586002e-01 7.357114e-01 7.168659e-01 7.015944e-01 6.917782e-01 6.847813e-01 6.841122e-01 6.851988e-01 6.928506e-01 7.010217e-01 7.154441e-01 7.291858e-01 7.485024e-01 7.661505e-01 7.885162e-01 8.085246e-01 8.323293e-01 8.533964e-01 8.773319e-01 8.984260e-01 9.214742e-01 9.418096e-01 9.632028e-01 9.822001e-01 1.001378e+00 1.018625e+00 1.035194e+00 1.050412e+00 1.064120e+00 1.077131e+00 1.087835e+00 1.098541e+00 1.106190e+00 1.114549e+00 1.119162e+00 1.125168e+00 1.126813e+00 1.130482e+00 1.129264e+00 1.130618e+00 1.126659e+00 1.125719e+00 1.119150e+00 1.115926e+00 1.106874e+00 1.101372e+00 1.089959e+00 1.082177e+00 1.068522e+00 1.058471e+00 1.042700e+00 1.030414e+00 1.012677e+00 9.982428e-01 9.787434e-01 9.623308e-01 9.413579e-01 9.232615e-01 9.012379e-01 8.819239e-01 8.594603e-01 8.396219e-01 8.175781e-01 7.981910e-01 7.777317e-01 7.600947e-01 7.427122e-01 7.284370e-01 7.158925e-01 7.067846e-01 7.009053e-01 6.986877e-01 7.010010e-01 7.069134e-01 7.182296e-01 7.326755e-01 7.528429e-01 7.752953e-01 8.032760e-01 8.324797e-01 8.666598e-01 9.009654e-01 9.394900e-01 9.771370e-01 1.018138e+00 1.057420e+00 1.099127e+00 1.138459e+00 1.179233e+00 1.217170e+00 1.255512e+00 1.290751e+00 1.325302e+00 1.356683e+00 1.386239e+00 1.412750e+00 1.436280e+00 1.457076e+00 1.473752e+00 1.488173e+00 1.497400e+00 1.504991e+00 1.506433e+00 1.506963e+00 1.500560e+00 1.494028e+00 1.479998e+00 1.466636e+00 1.445464e+00 1.425727e+00 1.398140e+00 1.372691e+00 1.339625e+00 1.309307e+00 1.271871e+00 1.237690e+00 1.197136e+00 1.160231e+00 1.117932e+00 1.079570e+00 1.037005e+00 9.985734e-01 9.573311e-01 9.203346e-01 8.821083e-01 8.481624e-01 8.147225e-01 
8.493383e-01 8.231890e-01 8.006646e-01 7.821317e-01 7.666763e-01 7.565362e-01 7.486762e-01 7.469849e-01 7.465476e-01 7.525889e-01 7.587390e-01 7.711883e-01 7.826426e-01 7.998636e-01 8.151688e-01 8.354992e-01 8.532558e-01 8.751921e-01 8.941806e-01 9.164581e-01 9.356812e-01 9.572858e-01 9.759641e-01 9.961111e-01 1.013658e+00 1.031762e+00 1.047754e+00 1.063398e+00 1.077545e+00 1.090454e+00 1.102571e+00 1.112591e+00 1.122574e+00 1.129647e+00 1.137453e+00 1.141598e+00 1.147225e+00 1.148519e+00 1.151984e+00 1.150546e+00 1.151877e+00 1.147846e+00 1.147067e+00 1.140590e+00 1.137719e+00 1.128942e+00 1.123985e+00 1.113047e+00 1.106007e+00 1.093042e+00 1.083928e+00 1.069074e+00 1.057923e+00 1.041340e+00 1.028242e+00 1.010139e+00 9.952677e-01 9.759381e-01 9.595897e-01 9.394548e-01 9.220939e-01 9.017523e-01 8.840576e-01 8.643352e-01 8.472412e-01 8.292305e-01 8.139482e-01 7.990109e-01 7.869977e-01 7.766943e-01 7.695346e-01 7.654424e-01 7.646142e-01 7.680352e-01 7.746001e-01 7.862454e-01 8.005834e-01 8.203832e-01 8.421093e-01 8.692456e-01 8.973372e-01 9.304537e-01 9.634924e-01 1.000949e+00 1.037350e+00 1.077421e+00 1.115588e+00 1.156574e+00 1.194978e+00 1.235263e+00 1.272478e+00 1.310547e+00 1.345267e+00 1.379724e+00 1.410769e+00 1.440361e+00 1.466691e+00 1.490332e+00 1.511070e+00 1.527878e+00 1.542331e+00 1.551666e+00 1.559348e+00 1.560844e+00 1.561498e+00 1.555082e+00 1.548691e+00 1.534589e+00 1.521380e+00 1.500102e+00 1.480537e+00 1.452852e+00 1.427609e+00 1.394502e+00 1.364452e+00 1.327087e+00 1.293262e+00 1.252940e+00 1.216508e+00 1.174639e+00 1.136883e+00 1.094962e+00 1.057267e+00 1.016864e+00 9.806995e-01 9.434383e-01 9.103344e-01 8.778536e-01 
9.140677e-01 8.886529e-01 8.664699e-01 8.483162e-01 8.327846e-01 8.225035e-01 8.140363e-01 8.116172e-01 8.100346e-01 8.148217e-01 8.193895e-01 8.302132e-01 8.398095e-01 8.552157e-01 8.685487e-01 8.870281e-01 9.028225e-01 9.229725e-01 9.400868e-01 9.606951e-01 9.781724e-01 9.982426e-01 1.015320e+00 1.034065e+00 1.050161e+00 1.066986e+00 1.081677e+00 1.096154e+00 1.109149e+00 1.120997e+00 1.132117e+00 1.141180e+00 1.150327e+00 1.156553e+00 1.163693e+00 1.167113e+00 1.172252e+00 1.172958e+00 1.176125e+00 1.174254e+00 1.175485e+00 1.171196e+00 1.170520e+00 1.163980e+00 1.161417e+00 1.152790e+00 1.148346e+00 1.137785e+00 1.131460e+00 1.119109e+00 1.110908e+00 1.096911e+00 1.086867e+00 1.071387e+00 1.059584e+00 1.042830e+00 1.029438e+00 1.011701e+00 9.970152e-01 9.787060e-01 9.631862e-01 9.448856e-01 9.291971e-01 9.116954e-01 8.967393e-01 8.810632e-01 8.679821e-01 8.553840e-01 8.455194e-01 8.374011e-01 8.321747e-01 8.299227e-01 8.306334e-01 8.353777e-01 8.429508e-01 8.553156e-01 8.700950e-01 8.900481e-01 9.117256e-01 9.385899e-01 9.662922e-01 9.988953e-01 1.031366e+00 1.068235e+00 1.104022e+00 1.143552e+00 1.181143e+00 1.221703e+00 1.259618e+00 1.299612e+00 1.336438e+00 1.374341e+00 1.408764e+00 1.443148e+00 1.473967e+00 1.503529e+00 1.529679e+00 1.553283e+00 1.573859e+00 1.590579e+00 1.604865e+00 1.614027e+00 1.621521e+00 1.622742e+00 1.623181e+00 1.616395e+00 1.609767e+00 1.595227e+00 1.581774e+00 1.560035e+00 1.540244e+00 1.512131e+00 1.486712e+00 1.453275e+00 1.423133e+00 1.385593e+00 1.351795e+00 1.311503e+00 1.275246e+00 1.233644e+00 1.196228e+00 1.154817e+00 1.117623e+00 1.077946e+00 1.042407e+00 1.006017e+00 9.735836e-01 9.419935e-01 
9.833291e-01 9.581782e-01 9.359051e-01 9.176660e-01 9.016261e-01 8.907925e-01 8.813241e-01 8.778537e-01 8.747903e-01 8.780960e-01 8.808020e-01 8.898553e-01 8.973548e-01 9.108636e-01 9.220124e-01 9.386056e-01 9.522463e-01 9.706154e-01 9.856850e-01 1.004668e+00 1.020253e+00 1.038869e+00 1.054228e+00 1.071685e+00 1.086242e+00 1.101928e+00 1.115258e+00 1.128729e+00 1.140541e+00 1.151499e+00 1.161612e+00 1.169891e+00 1.178209e+00 1.183756e+00 1.190250e+00 1.193100e+00 1.197783e+00 1.198044e+00 1.200952e+00 1.198779e+00 1.199955e+00 1.195530e+00 1.195013e+00 1.188529e+00 1.186343e+00 1.177985e+00 1.174139e+00 1.164081e+00 1.158576e+00 1.146977e+00 1.139816e+00 1.126829e+00 1.118041e+00 1.103833e+00 1.093496e+00 1.078274e+00 1.066552e+00 1.050596e+00 1.037774e+00 1.021476e+00 1.007998e+00 9.919060e-01 9.784052e-01 9.632553e-01 9.505779e-01 9.373126e-01 9.265112e-01 9.162599e-01 9.085449e-01 9.025501e-01 8.991799e-01 8.986544e-01 9.007647e-01 9.066956e-01 9.150988e-01 9.280508e-01 9.430717e-01 9.630618e-01 9.844739e-01 1.010965e+00 1.038044e+00 1.070046e+00 1.101701e+00 1.137912e+00 1.172836e+00 1.211782e+00 1.248572e+00 1.288705e+00 1.325947e+00 1.365709e+00 1.402026e+00 1.439891e+00 1.473975e+00 1.508484e+00 1.539126e+00 1.568924e+00 1.595035e+00 1.618924e+00 1.639565e+00 1.656554e+00 1.670971e+00 1.680328e+00 1.687982e+00 1.689286e+00 1.689880e+00 1.683045e+00 1.676545e+00 1.661833e+00 1.648470e+00 1.626468e+00 1.606735e+00 1.578318e+00 1.552942e+00 1.519221e+00 1.489133e+00 1.451391e+00 1.417691e+00 1.377331e+00 1.341243e+00 1.299741e+00 1.262581e+00 1.221445e+00 1.184587e+00 1.145331e+00 1.110172e+00 1.074278e+00 1.042191e+00 1.011057e+00 
1.053568e+00 1.028702e+00 1.006356e+00 9.881284e-01 9.717103e-01 9.605092e-01 9.502872e-01 9.460300e-01 9.418311e-01 9.439663e-01 9.452120e-01 9.528057e-01 9.586175e-01 9.704957e-01 9.798352e-01 9.947349e-01 1.006535e+00 1.023227e+00 1.036489e+00 1.053859e+00 1.067709e+00 1.084798e+00 1.098518e+00 1.114538e+00 1.127565e+00 1.141903e+00 1.153824e+00 1.166031e+00 1.176566e+00 1.186345e+00 1.195327e+00 1.202519e+00 1.209870e+00 1.214434e+00 1.220143e+00 1.222134e+00 1.226231e+00 1.225780e+00 1.228317e+00 1.225605e+00 1.226639e+00 1.221877e+00 1.221454e+00 1.214857e+00 1.213006e+00 1.204783e+00 1.201510e+00 1.191850e+00 1.187150e+00 1.176221e+00 1.170087e+00 1.158045e+00 1.150493e+00 1.137500e+00 1.128594e+00 1.114845e+00 1.104737e+00 1.090494e+00 1.079453e+00 1.065084e+00 1.053536e+00 1.039554e+00 1.028107e+00 1.015197e+00 1.004657e+00 9.936893e-01 9.850435e-01 9.770508e-01 9.714164e-01 9.675194e-01 9.660395e-01 9.673210e-01 9.710142e-01 9.783530e-01 9.879458e-01 1.001854e+00 1.017645e+00 1.038162e+00 1.059966e+00 1.086644e+00 1.113828e+00 1.145801e+00 1.177383e+00 1.213475e+00 1.248247e+00 1.287086e+00 1.323716e+00 1.363820e+00 1.400936e+00 1.440771e+00 1.477012e+00 1.515044e+00 1.549097e+00 1.583828e+00 1.614463e+00 1.644486e+00 1.670586e+00 1.694639e+00 1.715236e+00 1.732268e+00 1.746583e+00 1.755820e+00 1.763295e+00 1.764295e+00 1.764628e+00 1.757314e+00 1.750476e+00 1.735147e+00 1.721389e+00 1.698691e+00 1.678535e+00 1.649418e+00 1.623627e+00 1.589276e+00 1.558824e+00 1.520591e+00 1.486612e+00 1.445952e+00 1.409703e+00 1.368117e+00 1.330927e+00 1.289925e+00 1.253161e+00 1.214220e+00 1.179242e+00 1.143771e+00 1.111886e+00 1.081173e+00 