# vtk DataFile Version 2.0
Comment goes here
ASCII

DATASET STRUCTURED_POINTS
FIELD FieldData 1
TIME 1 1 double
0.12000000
DIMENSIONS    128   128   1

ORIGIN    0.000   0.000   0.000
SPACING   0.039062 0.039062   1.000

POINT_DATA   16384
SCALARS uMag double
LOOKUP_TABLE default

3.158858e-01 2.695966e-01 2.232230e-01 1.766872e-01 1.300820e-01 8.376036e-02 3.735751e-02 8.327316e-03 5.412878e-02 9.879136e-02 1.436256e-01 1.869157e-01 2.304474e-01 2.720476e-01 3.139694e-01 3.535922e-01 3.936217e-01 4.310072e-01 4.688848e-01 5.037983e-01 5.392853e-01 5.715161e-01 6.043930e-01 6.337527e-01 6.638187e-01 6.901405e-01 7.172127e-01 7.403505e-01 7.642638e-01 7.840915e-01 8.046981e-01 8.211090e-01 8.382789e-01 8.511852e-01 8.648059e-01 8.741377e-01 8.841146e-01 8.898199e-01 8.960766e-01 8.981210e-01 9.005994e-01 8.989659e-01 8.976278e-01 8.923172e-01 8.871442e-01 8.781757e-01 8.691710e-01 8.565832e-01 8.437727e-01 8.276239e-01 8.110576e-01 7.914278e-01 7.711810e-01 7.481724e-01 7.243472e-01 6.980854e-01 6.708120e-01 6.414469e-01 6.108844e-01 5.785909e-01 5.449281e-01 5.099071e-01 4.733634e-01 4.358419e-01 3.966675e-01 3.568992e-01 3.153755e-01 2.736414e-01 2.300814e-01 1.866899e-01 1.414378e-01 9.672533e-02 5.015679e-02 4.488311e-03 4.299024e-02 8.922099e-02 1.371728e-01 1.835432e-01 2.315025e-01 2.775611e-01 3.250347e-01 3.703029e-01 4.167730e-01 4.607466e-01 5.056748e-01 5.478282e-01 5.906611e-01 6.304529e-01 6.706296e-01 7.075107e-01 7.444725e-01 7.778975e-01 8.110999e-01 8.405396e-01 8.694665e-01 8.944247e-01 9.186039e-01 9.386340e-01 9.576540e-01 9.723771e-01 9.859033e-01 9.950254e-01 1.002815e+00 1.006141e+00 1.008054e+00 1.005500e+00 1.001508e+00 9.931051e-01 9.832929e-01 9.691883e-01 9.537508e-01 9.342027e-01 9.134367e-01 8.888025e-01 8.630940e-01 8.338149e-01 8.036225e-01 7.702053e-01 7.360420e-01 6.990392e-01 6.614532e-01 6.214439e-01 5.810007e-01 5.385725e-01 4.958389e-01 4.515721e-01 4.071029e-01 3.615586e-01 
3.181605e-01 2.725214e-01 2.269990e-01 1.817541e-01 1.372095e-01 9.490701e-02 5.871732e-02 4.666194e-02 7.119699e-02 1.092004e-01 1.509803e-01 1.926189e-01 2.350409e-01 2.758997e-01 3.172303e-01 3.564215e-01 3.960695e-01 4.331657e-01 4.707674e-01 5.054700e-01 5.407420e-01 5.728104e-01 6.055115e-01 6.347418e-01 6.646588e-01 6.908754e-01 7.178182e-01 7.408695e-01 7.646685e-01 7.844251e-01 8.049298e-01 8.212831e-01 8.383617e-01 8.512225e-01 8.647615e-01 8.740593e-01 8.839635e-01 8.896462e-01 8.958388e-01 8.978720e-01 9.002952e-01 8.986621e-01 8.972776e-01 8.919792e-01 8.867692e-01 8.778253e-01 8.687934e-01 8.562428e-01 8.434158e-01 8.273176e-01 8.107464e-01 7.911814e-01 7.709430e-01 7.480146e-01 7.242135e-01 6.980495e-01 6.708196e-01 6.415737e-01 6.110799e-01 5.789335e-01 5.453744e-01 5.105401e-01 4.741523e-01 4.368792e-01 3.979459e-01 3.585337e-01 3.174080e-01 2.762473e-01 2.334309e-01 1.911638e-01 1.476945e-01 1.062626e-01 6.756244e-02 4.672018e-02 6.413398e-02 1.016037e-01 1.458261e-01 1.903063e-01 2.370339e-01 2.822945e-01 3.291380e-01 3.739556e-01 4.200209e-01 4.636951e-01 5.083227e-01 5.502549e-01 5.928415e-01 6.324574e-01 6.724185e-01 7.091525e-01 7.459176e-01 7.792153e-01 8.122339e-01 8.415617e-01 8.703153e-01 8.951743e-01 9.191904e-01 9.391333e-01 9.580012e-01 9.726493e-01 9.860362e-01 9.950959e-01 1.002761e+00 1.006039e+00 1.007845e+00 1.005257e+00 1.001177e+00 9.927574e-01 9.828785e-01 9.687755e-01 9.532944e-01 9.337677e-01 9.129831e-01 8.883916e-01 8.626912e-01 8.334782e-01 8.033225e-01 7.699976e-01 7.359024e-01 6.990222e-01 6.615405e-01 6.216909e-01 5.813966e-01 5.391772e-01 4.966531e-01 4.526679e-01 4.085015e-01 3.633614e-01 
3.296863e-01 2.855131e-01 2.419916e-01 1.997190e-01 1.596650e-01 1.246301e-01 9.908895e-02 9.187560e-02 1.058778e-01 1.341231e-01 1.696095e-01 2.074220e-01 2.471916e-01 2.862723e-01 3.262396e-01 3.644498e-01 4.033006e-01 4.397928e-01 4.768918e-01 5.111945e-01 5.461362e-01 5.779264e-01 6.104068e-01 6.394367e-01 6.692076e-01 6.952763e-01 7.221263e-01 7.450670e-01 7.688128e-01 7.884864e-01 8.089685e-01 8.252599e-01 8.423400e-01 8.551559e-01 8.687160e-01 8.779832e-01 8.879248e-01 8.935892e-01 8.998332e-01 9.018593e-01 9.043463e-01 9.027170e-01 9.014077e-01 8.961244e-01 8.910007e-01 8.820841e-01 8.731503e-01 8.606410e-01 8.479253e-01 8.318854e-01 8.154415e-01 7.959564e-01 7.758657e-01 7.530453e-01 7.294191e-01 7.034008e-01 6.763834e-01 6.473351e-01 6.171080e-01 5.852333e-01 5.520224e-01 5.175699e-01 4.816589e-01 4.449421e-01 4.067032e-01 3.681470e-01 3.281201e-01 2.883950e-01 2.475384e-01 2.080358e-01 1.687522e-01 1.338386e-01 1.054623e-01 9.331276e-02 1.029059e-01 1.295351e-01 1.664229e-01 2.065052e-01 2.502403e-01 2.935035e-01 3.388714e-01 3.826124e-01 4.278595e-01 4.708939e-01 5.150458e-01 5.565803e-01 5.988940e-01 6.382619e-01 6.780813e-01 7.146673e-01 7.513804e-01 7.845996e-01 8.176295e-01 8.469278e-01 8.757369e-01 9.006007e-01 9.247021e-01 9.446720e-01 9.636434e-01 9.783311e-01 9.918301e-01 1.000934e+00 1.008713e+00 1.012034e+00 1.013949e+00 1.011401e+00 1.007423e+00 9.990362e-01 9.892504e-01 9.751757e-01 9.597806e-01 9.402811e-01 9.195793e-01 8.950203e-01 8.694065e-01 8.402406e-01 8.101855e-01 7.769354e-01 7.429692e-01 7.062100e-01 6.689066e-01 6.292510e-01 5.892163e-01 5.473057e-01 5.051753e-01 4.616858e-01 4.181445e-01 3.738272e-01 
3.452279e-01 3.034444e-01 2.629268e-01 2.247507e-01 1.900189e-01 1.617960e-01 1.429243e-01 1.380316e-01 1.475026e-01 1.688446e-01 1.979740e-01 2.310679e-01 2.671181e-01 3.035025e-01 3.412480e-01 3.777956e-01 4.152029e-01 4.505842e-01 4.866776e-01 5.201908e-01 5.543950e-01 5.855981e-01 6.175170e-01 6.460959e-01 6.754279e-01 7.011425e-01 7.276432e-01 7.503024e-01 7.737674e-01 7.932166e-01 8.134723e-01 8.295865e-01 8.464851e-01 8.591647e-01 8.725818e-01 8.817496e-01 8.915823e-01 8.971824e-01 9.033489e-01 9.053448e-01 9.077841e-01 9.061588e-01 9.048313e-01 8.995870e-01 8.944751e-01 8.856344e-01 8.767439e-01 8.643503e-01 8.517123e-01 8.358319e-01 8.195049e-01 8.002289e-01 7.803015e-01 7.577486e-01 7.343432e-01 7.086642e-01 6.819421e-01 6.533250e-01 6.234943e-01 5.921754e-01 5.595049e-01 5.257866e-01 4.906330e-01 4.549230e-01 4.177902e-01 3.806904e-01 3.423749e-01 3.049153e-01 2.669169e-01 2.312593e-01 1.970983e-01 1.688242e-01 1.479110e-01 1.402308e-01 1.473377e-01 1.675769e-01 1.978681e-01 2.329468e-01 2.727262e-01 3.131267e-01 3.561743e-01 3.981749e-01 4.419449e-01 4.838367e-01 5.269760e-01 5.677147e-01 6.092928e-01 6.480827e-01 6.873432e-01 7.234970e-01 7.597702e-01 7.926604e-01 8.253346e-01 8.543798e-01 8.828956e-01 9.075638e-01 9.314201e-01 9.512394e-01 9.700051e-01 9.845784e-01 9.979058e-01 1.006926e+00 1.014564e+00 1.017829e+00 1.019634e+00 1.017056e+00 1.013000e+00 1.004612e+00 9.947840e-01 9.807401e-01 9.653435e-01 9.459140e-01 9.252585e-01 9.008184e-01 8.753084e-01 8.463232e-01 8.164430e-01 7.834531e-01 7.497519e-01 7.133574e-01 6.764372e-01 6.372879e-01 5.977989e-01 5.565958e-01 5.152484e-01 4.727699e-01 4.303843e-01 3.875727e-01 
3.684748e-01 3.291896e-01 2.916916e-01 2.573241e-01 2.269732e-01 2.034302e-01 1.880915e-01 1.839557e-01 1.905913e-01 2.072313e-01 2.311815e-01 2.598803e-01 2.921384e-01 3.256087e-01 3.608831e-01 3.955326e-01 4.313011e-01 4.653982e-01 5.003665e-01 5.329738e-01 5.663833e-01 5.969245e-01 6.282720e-01 6.563541e-01 6.852726e-01 7.106069e-01 7.368104e-01 7.591754e-01 7.824318e-01 8.016530e-01 8.217699e-01 8.377091e-01 8.545255e-01 8.670745e-01 8.804565e-01 8.895324e-01 8.993705e-01 9.049136e-01 9.111211e-01 9.130931e-01 9.156060e-01 9.139893e-01 9.127662e-01 9.075639e-01 9.025870e-01 8.938236e-01 8.851003e-01 8.728233e-01 8.603880e-01 8.446697e-01 8.285869e-01 8.095275e-01 7.898952e-01 7.676266e-01 7.445816e-01 7.192733e-01 6.929985e-01 6.648667e-01 6.356033e-01 6.049261e-01 5.729951e-01 5.401408e-01 5.059832e-01 4.714669e-01 4.357291e-01 4.003354e-01 3.640612e-01 3.291334e-01 2.942343e-01 2.623898e-01 2.327927e-01 2.094948e-01 1.930086e-01 1.873138e-01 1.927138e-01 2.087309e-01 2.338319e-01 2.643135e-01 3.000964e-01 3.373755e-01 3.778469e-01 4.178285e-01 4.599470e-01 5.005068e-01 5.425723e-01 5.824147e-01 6.232937e-01 6.614779e-01 7.002939e-01 7.360449e-01 7.720531e-01 8.046866e-01 8.372250e-01 8.661201e-01 8.945933e-01 9.191885e-01 9.430682e-01 9.628682e-01 9.817019e-01 9.962907e-01 1.009714e+00 1.018770e+00 1.026518e+00 1.029828e+00 1.031749e+00 1.029219e+00 1.025280e+00 1.016941e+00 1.007231e+00 9.932405e-01 9.779667e-01 9.586041e-01 9.380858e-01 9.137394e-01 8.883956e-01 8.595508e-01 8.298864e-01 7.971104e-01 7.637031e-01 7.276321e-01 6.911241e-01 6.524586e-01 6.135588e-01 5.730746e-01 5.325843e-01 4.911778e-01 4.500660e-01 4.088757e-01 
3.947241e-01 3.583150e-01 3.240366e-01 2.934534e-01 2.670049e-01 2.472337e-01 2.344605e-01 2.310266e-01 2.359762e-01 2.494283e-01 2.692836e-01 2.940823e-01 3.225920e-01 3.529708e-01 3.854314e-01 4.178337e-01 4.515506e-01 4.840110e-01 5.174623e-01 5.488501e-01 5.811130e-01 6.107227e-01 6.411861e-01 6.685415e-01 6.967678e-01 7.215267e-01 7.471830e-01 7.690882e-01 7.919106e-01 8.107644e-01 8.305385e-01 8.461873e-01 8.627368e-01 8.750622e-01 8.882426e-01 8.971558e-01 9.068501e-01 9.122878e-01 9.184048e-01 9.203273e-01 9.228000e-01 9.211899e-01 9.199758e-01 9.148379e-01 9.099198e-01 9.012817e-01 8.926693e-01 8.805831e-01 8.683156e-01 8.528603e-01 8.370096e-01 8.182954e-01 7.989709e-01 7.771440e-01 7.544998e-01 7.297504e-01 7.039951e-01 6.765701e-01 6.479839e-01 6.182076e-01 5.871707e-01 5.554825e-01 5.225282e-01 4.895539e-01 4.554727e-01 4.221681e-01 3.882220e-01 3.561711e-01 3.245388e-01 2.965478e-01 2.711291e-01 2.520538e-01 2.390083e-01 2.350856e-01 2.398941e-01 2.535072e-01 2.749675e-01 3.017594e-01 3.338951e-01 3.681028e-01 4.057985e-01 4.435296e-01 4.836405e-01 5.225752e-01 5.631784e-01 6.018333e-01 6.416252e-01 6.789290e-01 7.169192e-01 7.520106e-01 7.873799e-01 8.195168e-01 8.515533e-01 8.800747e-01 9.081490e-01 9.324644e-01 9.560248e-01 9.756175e-01 9.941951e-01 1.008633e+00 1.021853e+00 1.030803e+00 1.038394e+00 1.041637e+00 1.043444e+00 1.040884e+00 1.036874e+00 1.028544e+00 1.018811e+00 1.004875e+00 9.896353e-01 9.703838e-01 9.499678e-01 9.258056e-01 9.006488e-01 8.720831e-01 8.427126e-01 8.103393e-01 7.773627e-01 7.418567e-01 7.059580e-01 6.680736e-01 6.300227e-01 5.906133e-01 5.513030e-01 5.113812e-01 4.719208e-01 4.327978e-01 
4.267261e-01 3.927618e-01 3.611076e-01 3.334222e-01 3.097210e-01 2.923645e-01 2.809846e-01 2.777039e-01 2.812513e-01 2.922926e-01 3.089421e-01 3.305251e-01 3.557766e-01 3.833421e-01 4.131663e-01 4.433961e-01 4.751182e-01 5.059472e-01 5.379095e-01 5.680665e-01 5.992156e-01 6.278841e-01 6.575111e-01 6.841363e-01 7.117347e-01 7.359208e-01 7.611095e-01 7.825629e-01 8.050440e-01 8.235423e-01 8.430770e-01 8.584497e-01 8.748442e-01 8.869615e-01 9.000584e-01 9.088240e-01 9.184970e-01 9.238429e-01 9.299940e-01 9.318779e-01 9.344357e-01 9.328396e-01 9.317593e-01 9.266888e-01 9.219528e-01 9.134387e-01 9.050587e-01 8.931583e-01 8.811780e-01 8.659789e-01 8.504782e-01 8.321024e-01 8.132035e-01 7.918142e-01 7.696899e-01 7.455014e-01 7.203876e-01 6.936805e-01 6.658971e-01 6.370434e-01 6.070279e-01 5.765347e-01 5.449031e-01 5.134907e-01 4.811482e-01 4.498949e-01 4.182414e-01 3.888461e-01 3.601341e-01 3.353295e-01 3.131283e-01 2.969902e-01 2.860856e-01 2.830547e-01 2.871898e-01 2.988898e-01 3.174735e-01 3.411677e-01 3.701204e-01 4.014757e-01 4.365665e-01 4.720766e-01 5.102582e-01 5.475545e-01 5.867819e-01 6.242533e-01 6.630880e-01 6.995519e-01 7.368972e-01 7.714088e-01 8.063669e-01 8.381219e-01 8.699224e-01 8.982118e-01 9.261805e-01 9.503750e-01 9.739241e-01 9.934750e-01 1.012106e+00 1.026555e+00 1.039869e+00 1.048861e+00 1.056570e+00 1.059868e+00 1.061804e+00 1.059303e+00 1.055427e+00 1.047159e+00 1.037563e+00 1.023697e+00 1.008605e+00 9.894433e-01 9.691996e-01 9.451673e-01 9.202278e-01 8.918600e-01 8.627797e-01 8.307084e-01 7.981320e-01 7.630780e-01 7.277381e-01 6.905144e-01 6.532449e-01 6.147823e-01 5.765624e-01 5.379741e-01 5.000254e-01 4.627446e-01 
4.610282e-01 4.296517e-01 4.006042e-01 3.756946e-01 3.544556e-01 3.392188e-01 3.290311e-01 3.260181e-01 3.285790e-01 3.378276e-01 3.518629e-01 3.706857e-01 3.929211e-01 4.177654e-01 4.448785e-01 4.728085e-01 5.023053e-01 5.312890e-01 5.614778e-01 5.901715e-01 6.199153e-01 6.474194e-01 6.759304e-01 7.016222e-01 7.283312e-01 7.517637e-01 7.762428e-01 7.970859e-01 8.190026e-01 8.370082e-01 8.560984e-01 8.710787e-01 8.871303e-01 8.989438e-01 9.117863e-01 9.203296e-01 9.298275e-01 9.350288e-01 9.410778e-01 9.428933e-01 9.454184e-01 9.438307e-01 9.427854e-01 9.378025e-01 9.331697e-01 9.248263e-01 9.166204e-01 9.049799e-01 8.932502e-01 8.784086e-01 8.632439e-01 8.453352e-01 8.268712e-01 8.060754e-01 7.845046e-01 7.610594e-01 7.366463e-01 7.108651e-01 6.839700e-01 6.562704e-01 6.273876e-01 5.983389e-01 5.681613e-01 5.385642e-01 5.080922e-01 4.791127e-01 4.498335e-01 4.232109e-01 3.973544e-01 3.756448e-01 3.563838e-01 3.429520e-01 3.340150e-01 3.320773e-01 3.360867e-01 3.467372e-01 3.633396e-01 3.847326e-01 4.110485e-01 4.399289e-01 4.725514e-01 5.059086e-01 5.420510e-01 5.776152e-01 6.152309e-01 6.513491e-01 6.889260e-01 7.243452e-01 7.607097e-01 7.944210e-01 8.286116e-01 8.597583e-01 8.909557e-01 9.187877e-01 9.462806e-01 9.701358e-01 9.933090e-01 1.012612e+00 1.030947e+00 1.045219e+00 1.058302e+00 1.067173e+00 1.074707e+00 1.077931e+00 1.079744e+00 1.077211e+00 1.073265e+00 1.065010e+00 1.055404e+00 1.041605e+00 1.026571e+00 1.007546e+00 9.874439e-01 9.636396e-01 9.389464e-01 9.109255e-01 8.822227e-01 8.506517e-01 8.186181e-01 7.842608e-01 7.496726e-01 7.133959e-01 6.771435e-01 6.399445e-01 6.030776e-01 5.661479e-01 5.299672e-01 4.948117e-01 
4.994749e-01 4.700668e-01 4.429387e-01 4.199868e-01 4.003771e-01 3.864503e-01 3.768547e-01 3.737909e-01 3.754129e-01 3.831694e-01 3.950791e-01 4.116337e-01 4.313433e-01 4.538459e-01 4.785888e-01 5.044528e-01 5.319445e-01 5.592205e-01 5.877890e-01 6.151045e-01 6.435655e-01 6.699636e-01 6.974703e-01 7.222733e-01 7.482038e-01 7.709206e-01 7.948044e-01 8.150717e-01 8.365435e-01 8.540889e-01 8.728595e-01 8.874782e-01 9.033164e-01 9.148553e-01 9.275760e-01 9.359236e-01 9.453805e-01 9.504600e-01 9.565408e-01 9.583057e-01 9.609299e-01 9.593619e-01 9.584799e-01 9.535882e-01 9.491822e-01 9.410048e-01 9.330910e-01 9.216974e-01 9.103299e-01 8.958254e-01 8.811020e-01 8.636336e-01 8.457035e-01 8.254693e-01 8.045447e-01 7.818068e-01 7.581795e-01 7.332832e-01 7.073500e-01 6.807539e-01 6.530564e-01 6.253795e-01 5.966671e-01 5.687628e-01 5.400910e-01 5.131598e-01 4.860324e-01 4.617696e-01 4.383007e-01 4.190120e-01 4.019622e-01 3.904120e-01 3.827451e-01 3.813677e-01 3.850669e-01 3.947013e-01 4.096146e-01 4.289990e-01 4.530516e-01 4.797007e-01 5.101382e-01 5.414872e-01 5.758040e-01 6.097293e-01 6.459310e-01 6.807827e-01 7.173194e-01 7.518003e-01 7.874375e-01 8.204851e-01 8.542011e-01 8.849079e-01 9.158300e-01 9.433994e-01 9.707701e-01 9.944976e-01 1.017661e+00 1.036933e+00 1.055337e+00 1.069640e+00 1.082840e+00 1.091776e+00 1.099452e+00 1.102753e+00 1.104716e+00 1.102259e+00 1.098462e+00 1.090277e+00 1.080819e+00 1.067091e+00 1.052213e+00 1.033276e+00 1.013354e+00 9.896801e-01 9.652160e-01 9.374017e-01 9.090096e-01 8.777627e-01 8.461614e-01 8.122937e-01 7.783067e-01 7.427394e-01 7.073111e-01 6.711000e-01 6.353376e-01 5.997292e-01 5.649801e-01 5.315050e-01 
5.400229e-01 5.126957e-01 4.874880e-01 4.664782e-01 4.484064e-01 4.357451e-01 4.267220e-01 4.237233e-01 4.245970e-01 4.311528e-01 4.412154e-01 4.557672e-01 4.731123e-01 4.933793e-01 5.157373e-01 5.394923e-01 5.648340e-01 5.902694e-01 6.170019e-01 6.427660e-01 6.696990e-01 6.948074e-01 7.210583e-01 7.447936e-01 7.696995e-01 7.915337e-01 8.145870e-01 8.341264e-01 8.549312e-01 8.718809e-01 8.901239e-01 9.042626e-01 9.196943e-01 9.308581e-01 9.432797e-01 9.513507e-01 9.606060e-01 9.655041e-01 9.714740e-01 9.731521e-01 9.757517e-01 9.741927e-01 9.733706e-01 9.685867e-01 9.643252e-01 9.563592e-01 9.486772e-01 9.376051e-01 9.265621e-01 9.124980e-01 8.982005e-01 8.813036e-01 8.639143e-01 8.443988e-01 8.241484e-01 8.022979e-01 7.795040e-01 7.556915e-01 7.307847e-01 7.055035e-01 6.790674e-01 6.529756e-01 6.258057e-01 5.997925e-01 5.729799e-01 5.482533e-01 5.232889e-01 5.014691e-01 4.803277e-01 4.634698e-01 4.485437e-01 4.389206e-01 4.325871e-01 4.320589e-01 4.358286e-01 4.450159e-01 4.588060e-01 4.767868e-01 4.990433e-01 5.238886e-01 5.523802e-01 5.819340e-01 6.144555e-01 6.467890e-01 6.814565e-01 7.149779e-01 7.502522e-01 7.836592e-01 8.182771e-01 8.504787e-01 8.833798e-01 9.134342e-01 9.437082e-01 9.707847e-01 9.976414e-01 1.021004e+00 1.043762e+00 1.062770e+00 1.080853e+00 1.094970e+00 1.107921e+00 1.116730e+00 1.124217e+00 1.127439e+00 1.129270e+00 1.126776e+00 1.122905e+00 1.114729e+00 1.105260e+00 1.091599e+00 1.076785e+00 1.057990e+00 1.038226e+00 1.014794e+00 9.906035e-01 9.631631e-01 9.351866e-01 9.044808e-01 8.734696e-01 8.403502e-01 8.071644e-01 7.725950e-01 7.382181e-01 7.032949e-01 6.688686e-01 6.348646e-01 6.017485e-01 5.701770e-01 
5.835504e-01 5.576665e-01 5.337547e-01 5.140157e-01 4.968823e-01 4.849388e-01 4.761121e-01 4.729527e-01 4.730741e-01 4.785639e-01 4.870744e-01 4.999535e-01 5.153313e-01 5.337088e-01 5.540473e-01 5.759754e-01 5.994630e-01 6.232679e-01 6.483997e-01 6.727661e-01 6.983656e-01 7.222992e-01 7.474645e-01 7.702218e-01 7.942604e-01 8.152851e-01 8.376595e-01 8.565337e-01 8.768213e-01 8.932307e-01 9.110963e-01 9.248054e-01 9.399813e-01 9.508162e-01 9.630894e-01 9.709251e-01 9.801280e-01 9.848801e-01 9.908849e-01 9.925035e-01 9.952192e-01 9.936864e-01 9.930574e-01 9.883866e-01 9.843938e-01 9.766308e-01 9.692943e-01 9.585209e-01 9.479046e-01 9.342438e-01 9.204625e-01 9.040860e-01 8.873148e-01 8.684536e-01 8.489410e-01 8.278996e-01 8.059861e-01 7.831629e-01 7.593070e-01 7.352228e-01 7.100385e-01 6.853768e-01 6.596853e-01 6.353465e-01 6.102428e-01 5.874074e-01 5.643305e-01 5.445089e-01 5.252706e-01 5.102731e-01 4.969472e-01 4.886613e-01 4.832070e-01 4.831138e-01 4.867586e-01 4.953701e-01 5.081169e-01 5.247679e-01 5.454482e-01 5.686263e-01 5.954201e-01 6.233090e-01 6.542796e-01 6.851411e-01 7.185263e-01 7.508451e-01 7.851354e-01 8.176216e-01 8.515382e-01 8.830825e-01 9.155298e-01 9.451579e-01 9.751843e-01 1.002026e+00 1.028799e+00 1.052077e+00 1.074872e+00 1.093902e+00 1.112105e+00 1.126309e+00 1.139427e+00 1.148351e+00 1.156023e+00 1.159359e+00 1.161371e+00 1.158973e+00 1.155268e+00 1.147163e+00 1.137843e+00 1.124234e+00 1.109561e+00 1.090821e+00 1.071210e+00 1.047865e+00 1.023867e+00 9.965837e-01 9.688760e-01 9.384423e-01 9.078153e-01 8.751293e-01 8.424847e-01 8.085542e-01 7.749141e-01 7.408709e-01 7.074039e-01 6.745337e-01 6.425956e-01 6.123763e-01 
6.293648e-01 6.050645e-01 5.824975e-01 5.640946e-01 5.478991e-01 5.367177e-01 5.281064e-01 5.248779e-01 5.243303e-01 5.288986e-01 5.359660e-01 5.473028e-01 5.607695e-01 5.773119e-01 5.955926e-01 6.156602e-01 6.371675e-01 6.592413e-01 6.825859e-01 7.054152e-01 7.294612e-01 7.520635e-01 7.759091e-01 7.975285e-01 8.204634e-01 8.405231e-01 8.619866e-01 8.800487e-01 8.995956e-01 9.153288e-01 9.326039e-01 9.457607e-01 9.604803e-01 9.708787e-01 9.828171e-01 9.903278e-01 9.993081e-01 1.003845e+00 1.009733e+00 1.011247e+00 1.013947e+00 1.012423e+00 1.011878e+00 1.007332e+00 1.003522e+00 9.960056e-01 9.889527e-01 9.785543e-01 9.683271e-01 9.551774e-01 9.418979e-01 9.261792e-01 9.100333e-01 8.919896e-01 8.732407e-01 8.531925e-01 8.322004e-01 8.105646e-01 7.878108e-01 7.651274e-01 7.412492e-01 7.182163e-01 6.940511e-01 6.715672e-01 6.482027e-01 6.274085e-01 6.062233e-01 5.885166e-01 5.711696e-01 5.581426e-01 5.464384e-01 5.396657e-01 5.352320e-01 5.358958e-01 5.397276e-01 5.482300e-01 5.603511e-01 5.761771e-01 5.956700e-01 6.176042e-01 6.429612e-01 6.694691e-01 6.989932e-01 7.285253e-01 7.605891e-01 7.917280e-01 8.248766e-01 8.563700e-01 8.893323e-01 9.200742e-01 9.517402e-01 9.807418e-01 1.010137e+00 1.036505e+00 1.062771e+00 1.085702e+00 1.108093e+00 1.126875e+00 1.144757e+00 1.158787e+00 1.171651e+00 1.180456e+00 1.187933e+00 1.191190e+00 1.193061e+00 1.190619e+00 1.186827e+00 1.178717e+00 1.169374e+00 1.155811e+00 1.141191e+00 1.122570e+00 1.103105e+00 1.079980e+00 1.056244e+00 1.029314e+00 1.002009e+00 9.720952e-01 9.420379e-01 9.100718e-01 8.781897e-01 8.452060e-01 8.125402e-01 7.796841e-01 7.474057e-01 7.159490e-01 6.853812e-01 6.567357e-01 
6.773087e-01 6.539849e-01 6.322174e-01 6.145932e-01 5.988795e-01 5.880501e-01 5.793916e-01 5.759202e-01 5.746951e-01 5.784134e-01 5.842466e-01 5.942770e-01 6.061577e-01 6.211603e-01 6.377319e-01 6.562217e-01 6.760713e-01 6.966548e-01 7.184945e-01 7.399818e-01 7.627198e-01 7.841468e-01 8.068904e-01 8.274978e-01 8.495280e-01 8.687270e-01 8.894671e-01 9.068060e-01 9.257930e-01 9.409289e-01 9.577907e-01 9.704667e-01 9.849046e-01 9.949319e-01 1.006707e+00 1.013952e+00 1.022878e+00 1.027250e+00 1.033182e+00 1.034631e+00 1.037468e+00 1.035978e+00 1.035656e+00 1.031244e+00 1.027742e+00 1.020461e+00 1.013801e+00 1.003744e+00 9.939972e-01 9.813027e-01 9.685981e-01 9.534588e-01 9.379923e-01 9.206658e-01 9.027148e-01 8.835376e-01 8.634786e-01 8.428843e-01 8.212162e-01 7.997586e-01 7.771326e-01 7.555139e-01 7.327688e-01 7.118702e-01 6.900673e-01 6.709719e-01 6.514132e-01 6.353988e-01 6.195936e-01 6.080568e-01 5.975872e-01 5.918579e-01 5.881116e-01 5.891666e-01 5.929953e-01 6.011815e-01 6.126535e-01 6.275873e-01 6.459936e-01 6.667012e-01 6.907937e-01 7.159808e-01 7.442755e-01 7.725689e-01 8.035706e-01 8.336571e-01 8.659736e-01 8.966489e-01 9.290243e-01 9.591927e-01 9.905042e-01 1.019163e+00 1.048407e+00 1.074633e+00 1.100913e+00 1.123860e+00 1.146387e+00 1.165296e+00 1.183393e+00 1.197609e+00 1.210727e+00 1.219731e+00 1.227461e+00 1.230892e+00 1.232988e+00 1.230669e+00 1.227059e+00 1.219011e+00 1.209803e+00 1.196251e+00 1.181729e+00 1.163089e+00 1.143708e+00 1.120572e+00 1.096938e+00 1.070050e+00 1.042903e+00 1.013132e+00 9.833301e-01 9.516515e-01 9.201575e-01 8.876419e-01 8.555237e-01 8.233342e-01 7.917687e-01 7.611642e-01 7.314457e-01 7.037778e-01 
7.279724e-01 7.057933e-01 6.849025e-01 6.681615e-01 6.529587e-01 6.425490e-01 6.338549e-01 6.302018e-01 6.283131e-01 6.312433e-01 6.358486e-01 6.446151e-01 6.548808e-01 6.683425e-01 6.831210e-01 6.999808e-01 7.180327e-01 7.370302e-01 7.571812e-01 7.772014e-01 7.984195e-01 8.185302e-01 8.399448e-01 8.593930e-01 8.802857e-01 8.984765e-01 9.182607e-01 9.347325e-01 9.529313e-01 9.673319e-01 9.835594e-01 9.956251e-01 1.009570e+00 1.019109e+00 1.030523e+00 1.037399e+00 1.046087e+00 1.050213e+00 1.056026e+00 1.057353e+00 1.060184e+00 1.058701e+00 1.058486e+00 1.054213e+00 1.050930e+00 1.043926e+00 1.037596e+00 1.027960e+00 1.018659e+00 1.006536e+00 9.943958e-01 9.799846e-01 9.652093e-01 9.487763e-01 9.316522e-01 9.135425e-01 8.944571e-01 8.751124e-01 8.545758e-01 8.345539e-01 8.132240e-01 7.932217e-01 7.719318e-01 7.528048e-01 7.325859e-01 7.153573e-01 6.974387e-01 6.832759e-01 6.690367e-01 6.591693e-01 6.500072e-01 6.455648e-01 6.426727e-01 6.444623e-01 6.485656e-01 6.568712e-01 6.680445e-01 6.825561e-01 7.002226e-01 7.201337e-01 7.432331e-01 7.674360e-01 7.946557e-01 8.219299e-01 8.518944e-01 8.810288e-01 9.124117e-01 9.422589e-01 9.738310e-01 1.003319e+00 1.033959e+00 1.062087e+00 1.090780e+00 1.116612e+00 1.142444e+00 1.165111e+00 1.187276e+00 1.205993e+00 1.223796e+00 1.237882e+00 1.250760e+00 1.259672e+00 1.267209e+00 1.270571e+00 1.272517e+00 1.270145e+00 1.266431e+00 1.258351e+00 1.249091e+00 1.235544e+00 1.221038e+00 1.202463e+00 1.183182e+00 1.160203e+00 1.136775e+00 1.110167e+00 1.083354e+00 1.054018e+00 1.024697e+00 9.936348e-01 9.627854e-01 9.310801e-01 8.997720e-01 8.685805e-01 8.379725e-01 8.085163e-01 7.798496e-01 7.533976e-01 
7.800966e-01 7.584921e-01 7.379978e-01 7.216626e-01 7.066073e-01 6.962903e-01 6.873690e-01 6.833979e-01 6.808498e-01 6.830421e-01 6.865944e-01 6.942842e-01 7.032193e-01 7.153972e-01 7.287123e-01 7.442125e-01 7.607969e-01 7.784589e-01 7.972296e-01 8.159999e-01 8.359779e-01 8.549549e-01 8.752944e-01 8.937357e-01 9.137246e-01 9.310358e-01 9.500835e-01 9.657999e-01 9.834208e-01 9.971863e-01 1.012984e+00 1.024532e+00 1.038185e+00 1.047321e+00 1.058569e+00 1.065157e+00 1.073796e+00 1.077746e+00 1.083619e+00 1.084880e+00 1.087873e+00 1.086433e+00 1.086474e+00 1.082354e+00 1.079417e+00 1.072676e+00 1.066782e+00 1.057522e+00 1.048746e+00 1.037116e+00 1.025596e+00 1.011804e+00 9.977496e-01 9.820717e-01 9.657793e-01 9.485708e-01 9.304386e-01 9.121498e-01 8.926964e-01 8.738879e-01 8.537724e-01 8.351306e-01 8.151729e-01 7.975209e-01 7.787121e-01 7.630069e-01 7.464989e-01 7.337990e-01 7.208491e-01 7.122357e-01 7.040879e-01 7.005290e-01 6.982303e-01 7.004090e-01 7.046050e-01 7.127728e-01 7.235662e-01 7.374886e-01 7.544285e-01 7.734508e-01 7.956494e-01 8.188367e-01 8.451441e-01 8.714266e-01 9.005885e-01 9.288648e-01 9.596287e-01 9.888188e-01 1.019988e+00 1.049051e+00 1.079507e+00 1.107443e+00 1.136151e+00 1.161999e+00 1.188012e+00 1.210862e+00 1.233326e+00 1.252336e+00 1.270508e+00 1.284935e+00 1.298198e+00 1.307437e+00 1.315330e+00 1.318952e+00 1.321187e+00 1.318974e+00 1.315458e+00 1.307421e+00 1.298265e+00 1.284653e+00 1.270167e+00 1.251452e+00 1.232135e+00 1.208984e+00 1.185503e+00 1.158747e+00 1.131908e+00 1.102503e+00 1.073226e+00 1.042220e+00 1.011520e+00 9.800283e-01 9.489976e-01 9.181853e-01 8.879792e-01 8.590450e-01 8.308692e-01 8.050189e-01 
8.355336e-01 8.146834e-01 7.946682e-01 7.788510e-01 7.639683e-01 7.538044e-01 7.446408e-01 7.403788e-01 7.371299e-01 7.385885e-01 7.410223e-01 7.476162e-01 7.551253e-01 7.659717e-01 7.776925e-01 7.917557e-01 8.067066e-01 8.229303e-01 8.401255e-01 8.575249e-01 8.760475e-01 8.937583e-01 9.127949e-01 9.300905e-01 9.489412e-01 9.652311e-01 9.833056e-01 9.981237e-01 1.014931e+00 1.027919e+00 1.043055e+00 1.053947e+00 1.067082e+00 1.075684e+00 1.086553e+00 1.092732e+00 1.101124e+00 1.104797e+00 1.110551e+00 1.111673e+00 1.114672e+00 1.113235e+00 1.113407e+00 1.109438e+00 1.106753e+00 1.100317e+00 1.094797e+00 1.085998e+00 1.077718e+00 1.066711e+00 1.055809e+00 1.042803e+00 1.029492e+00 1.014766e+00 9.993445e-01 9.832554e-01 9.661240e-01 9.491194e-01 9.307973e-01 9.134295e-01 8.945699e-01 8.775060e-01 8.589103e-01 8.429363e-01 8.255568e-01 8.115664e-01 7.964868e-01 7.854438e-01 7.738213e-01 7.666843e-01 7.596400e-01 7.572461e-01 7.557098e-01 7.586397e-01 7.631857e-01 7.716517e-01 7.823865e-01 7.961934e-01 8.127419e-01 8.313346e-01 8.529251e-01 8.754926e-01 9.010924e-01 9.266812e-01 9.551289e-01 9.827284e-01 1.012831e+00 1.041422e+00 1.072013e+00 1.100589e+00 1.130557e+00 1.158128e+00 1.186433e+00 1.212032e+00 1.237714e+00 1.260412e+00 1.282602e+00 1.301527e+00 1.319467e+00 1.333848e+00 1.346910e+00 1.356114e+00 1.363829e+00 1.367406e+00 1.369485e+00 1.367210e+00 1.363564e+00 1.355455e+00 1.346201e+00 1.332524e+00 1.317989e+00 1.299245e+00 1.279944e+00 1.256835e+00 1.233454e+00 1.206846e+00 1.180211e+00 1.151089e+00 1.122137e+00 1.091570e+00 1.061323e+00 1.030431e+00 9.999739e-01 9.699039e-01 9.403655e-01 9.122700e-01 8.847993e-01 8.598033e-01 
8.918458e-01 8.712125e-01 8.512474e-01 8.355296e-01 8.205227e-01 8.102434e-01 8.006998e-01 7.960437e-01 7.921206e-01 7.928961e-01 7.943803e-01 8.000457e-01 8.063970e-01 8.161477e-01 8.265945e-01 8.394805e-01 8.531322e-01 8.681701e-01 8.841145e-01 9.003710e-01 9.177419e-01 9.343843e-01 9.523987e-01 9.687176e-01 9.866910e-01 1.002105e+00 1.019452e+00 1.033500e+00 1.049731e+00 1.062060e+00 1.076765e+00 1.087112e+00 1.099957e+00 1.108133e+00 1.118844e+00 1.124719e+00 1.133078e+00 1.136568e+00 1.142405e+00 1.143465e+00 1.146655e+00 1.145275e+00 1.145737e+00 1.141942e+00 1.139643e+00 1.133495e+00 1.128450e+00 1.120055e+00 1.112338e+00 1.101852e+00 1.091603e+00 1.079242e+00 1.066677e+00 1.052725e+00 1.038149e+00 1.022967e+00 1.006787e+00 9.908269e-01 9.735629e-01 9.573728e-01 9.396723e-01 9.239010e-01 9.065445e-01 8.919401e-01 8.758374e-01 8.632293e-01 8.493949e-01 8.396544e-01 8.291501e-01 8.231225e-01 8.169613e-01 8.153702e-01 8.143880e-01 8.177312e-01 8.224552e-01 8.309225e-01 8.414799e-01 8.549238e-01 8.710248e-01 8.889939e-01 9.099898e-01 9.318041e-01 9.567896e-01 9.816254e-01 1.009546e+00 1.036501e+00 1.066239e+00 1.094374e+00 1.124805e+00 1.153158e+00 1.183181e+00 1.210776e+00 1.239337e+00 1.265188e+00 1.291292e+00 1.314420e+00 1.337148e+00 1.356615e+00 1.375146e+00 1.390097e+00 1.403738e+00 1.413456e+00 1.421674e+00 1.425638e+00 1.428094e+00 1.426026e+00 1.422597e+00 1.414496e+00 1.405293e+00 1.391437e+00 1.376799e+00 1.357729e+00 1.338209e+00 1.314690e+00 1.291023e+00 1.263990e+00 1.237058e+00 1.207565e+00 1.178358e+00 1.147529e+00 1.117111e+00 1.086100e+00 1.055579e+00 1.025541e+00 9.960441e-01 9.681087e-01 9.407534e-01 9.159887e-01 