# vtk DataFile Version 2.0
Comment goes here
ASCII

DATASET STRUCTURED_POINTS
FIELD FieldData 1
TIME 1 1 double
0.19000000
DIMENSIONS    128   128   1

ORIGIN    0.000   0.000   0.000
SPACING   0.039062 0.039062   1.000

POINT_DATA   16384
SCALARS uMag double
LOOKUP_TABLE default

4.872291e-02 4.282900e-02 3.646750e-02 2.973347e-02 2.271093e-02 1.526523e-02 7.731424e-03 2.726006e-04 8.144135e-03 1.653234e-02 2.454929e-02 3.313161e-02 4.108867e-02 4.966472e-02 5.735025e-02 6.571556e-02 7.291872e-02 8.087144e-02 8.738985e-02 9.473760e-02 1.003849e-01 1.069516e-01 1.115647e-01 1.171968e-01 1.206425e-01 1.252143e-01 1.273944e-01 1.308125e-01 1.316676e-01 1.338737e-01 1.333852e-01 1.343572e-01 1.325475e-01 1.322993e-01 1.292301e-01 1.278099e-01 1.235788e-01 1.210657e-01 1.158021e-01 1.123022e-01 1.061609e-01 1.018024e-01 9.495746e-02 8.988527e-02 8.252372e-02 7.689389e-02 6.920873e-02 6.318312e-02 5.536718e-02 4.910822e-02 4.134839e-02 3.501441e-02 2.748655e-02 2.122752e-02 1.409210e-02 8.045990e-03 1.444527e-03 4.265838e-03 1.021363e-02 1.548318e-02 2.068159e-02 2.542519e-02 2.980411e-02 3.395823e-02 3.747426e-02 4.099834e-02 4.363535e-02 4.651269e-02 4.828192e-02 5.052014e-02 5.145976e-02 5.309071e-02 5.326478e-02 5.434372e-02 5.384040e-02 5.444444e-02 5.337335e-02 5.359888e-02 5.208753e-02 5.204657e-02 5.023571e-02 5.005116e-02 4.808921e-02 4.788903e-02 4.592553e-02 4.583606e-02 4.401453e-02 4.415325e-02 4.260376e-02 4.307193e-02 4.190374e-02 4.277954e-02 4.207454e-02 4.340710e-02 4.321445e-02 4.501949e-02 4.535194e-02 4.760936e-02 4.844172e-02 5.109544e-02 5.236535e-02 5.532541e-02 5.693637e-02 6.008328e-02 6.190988e-02 6.510074e-02 6.699551e-02 7.007145e-02 7.187297e-02 7.466743e-02 7.620901e-02 7.855610e-02 7.967444e-02 8.141695e-02 8.196028e-02 8.295689e-02 8.279216e-02 8.292351e-02 8.194235e-02 8.111583e-02 7.923915e-02 7.739237e-02 7.457355e-02 7.167655e-02 6.790338e-02 6.395963e-02 5.925499e-02 5.430143e-02 
4.922471e-02 4.342812e-02 3.722187e-02 3.068219e-02 2.399942e-02 1.714963e-02 1.107570e-02 7.938728e-03 1.140439e-02 1.833764e-02 2.579585e-02 3.404223e-02 4.181329e-02 5.024253e-02 5.783472e-02 6.611587e-02 7.326149e-02 8.115830e-02 8.763642e-02 9.494346e-02 1.005599e-01 1.070950e-01 1.116828e-01 1.172894e-01 1.207131e-01 1.252637e-01 1.274241e-01 1.308243e-01 1.316613e-01 1.338522e-01 1.333469e-01 1.343061e-01 1.324810e-01 1.322223e-01 1.291395e-01 1.277110e-01 1.234689e-01 1.209499e-01 1.156784e-01 1.121755e-01 1.060305e-01 1.016725e-01 9.482994e-02 8.976264e-02 8.241184e-02 7.679313e-02 6.913097e-02 6.312609e-02 5.535266e-02 4.913145e-02 4.144966e-02 3.519007e-02 2.782177e-02 2.174553e-02 1.505823e-02 9.803925e-03 6.218767e-03 7.566410e-03 1.214681e-02 1.686638e-02 2.180255e-02 2.635331e-02 3.062272e-02 3.466859e-02 3.811748e-02 4.156477e-02 4.414952e-02 4.696444e-02 4.868646e-02 5.086952e-02 5.176268e-02 5.334232e-02 5.346855e-02 5.449828e-02 5.394466e-02 5.450073e-02 5.337639e-02 5.355485e-02 5.198723e-02 5.190020e-02 5.003043e-02 4.980130e-02 4.777865e-02 4.753637e-02 4.551183e-02 4.538432e-02 4.350363e-02 4.361054e-02 4.200664e-02 4.245180e-02 4.123722e-02 4.210119e-02 4.136075e-02 4.269408e-02 4.247872e-02 4.429700e-02 4.461966e-02 4.690112e-02 4.773535e-02 5.042128e-02 5.170271e-02 5.470030e-02 5.633034e-02 5.951758e-02 6.136902e-02 6.460104e-02 6.652503e-02 6.964158e-02 7.147568e-02 7.430930e-02 7.588607e-02 7.827041e-02 7.942604e-02 8.120377e-02 8.178620e-02 8.281623e-02 8.269234e-02 8.285588e-02 8.191759e-02 8.112299e-02 7.929193e-02 7.747832e-02 7.470943e-02 7.184928e-02 6.813325e-02 6.423431e-02 5.959979e-02 5.470741e-02 
5.089230e-02 4.532735e-02 3.945435e-02 3.338704e-02 2.744902e-02 2.177926e-02 1.757069e-02 1.589207e-02 1.808454e-02 2.318492e-02 2.959102e-02 3.707043e-02 4.442777e-02 5.249584e-02 5.989397e-02 6.797521e-02 7.501858e-02 8.279418e-02 8.921463e-02 9.644506e-02 1.020275e-01 1.085141e-01 1.130810e-01 1.186582e-01 1.220686e-01 1.266034e-01 1.287547e-01 1.321493e-01 1.329798e-01 1.351728e-01 1.346632e-01 1.356303e-01 1.338033e-01 1.335569e-01 1.304753e-01 1.290626e-01 1.248261e-01 1.223256e-01 1.170663e-01 1.135843e-01 1.074608e-01 1.031266e-01 9.631865e-02 9.127969e-02 8.398240e-02 7.840014e-02 7.082014e-02 6.486775e-02 5.722299e-02 5.108818e-02 4.361966e-02 3.752534e-02 3.055151e-02 2.485414e-02 1.903416e-02 1.476839e-02 1.235233e-02 1.261182e-02 1.557351e-02 1.921573e-02 2.354900e-02 2.766992e-02 3.169399e-02 3.553619e-02 3.886599e-02 4.220825e-02 4.472933e-02 4.749037e-02 4.917689e-02 5.133509e-02 5.220834e-02 5.377972e-02 5.389483e-02 5.492480e-02 5.436461e-02 5.492345e-02 5.379407e-02 5.397323e-02 5.239982e-02 5.230795e-02 5.042998e-02 5.018829e-02 4.815428e-02 4.789127e-02 4.585279e-02 4.569817e-02 4.380338e-02 4.388108e-02 4.226732e-02 4.268749e-02 4.147291e-02 4.232281e-02 4.159719e-02 4.293204e-02 4.274828e-02 4.458448e-02 4.495332e-02 4.726589e-02 4.815532e-02 5.088004e-02 5.221892e-02 5.525734e-02 5.694119e-02 6.016694e-02 6.206462e-02 6.533028e-02 6.729112e-02 7.043552e-02 7.229701e-02 7.515301e-02 7.674887e-02 7.915129e-02 8.031969e-02 8.211299e-02 8.270445e-02 8.374975e-02 8.363422e-02 8.381543e-02 8.288848e-02 8.211729e-02 8.030517e-02 7.852524e-02 7.578924e-02 7.297981e-02 6.932042e-02 6.550075e-02 6.096384e-02 5.620160e-02 
5.349997e-02 4.830800e-02 4.297039e-02 3.755309e-02 3.254454e-02 2.801215e-02 2.507471e-02 2.400425e-02 2.568851e-02 2.954837e-02 3.492695e-02 4.147762e-02 4.824999e-02 5.577887e-02 6.284850e-02 7.059711e-02 7.744061e-02 8.499621e-02 9.128520e-02 9.836268e-02 1.038522e-01 1.102291e-01 1.147256e-01 1.202228e-01 1.235762e-01 1.280527e-01 1.301554e-01 1.335080e-01 1.342956e-01 1.364595e-01 1.359117e-01 1.368603e-01 1.350003e-01 1.347444e-01 1.316364e-01 1.302222e-01 1.259686e-01 1.234743e-01 1.182108e-01 1.147433e-01 1.086335e-01 1.043235e-01 9.755408e-02 9.255227e-02 8.532846e-02 7.980299e-02 7.234713e-02 6.648406e-02 5.904140e-02 5.305495e-02 4.591873e-02 4.008984e-02 3.368567e-02 2.849711e-02 2.365291e-02 2.020351e-02 1.858070e-02 1.856220e-02 2.072993e-02 2.343504e-02 2.710662e-02 3.063500e-02 3.428982e-02 3.777067e-02 4.087380e-02 4.397656e-02 4.633809e-02 4.892677e-02 5.048596e-02 5.251044e-02 5.327105e-02 5.473093e-02 5.473843e-02 5.566871e-02 5.500013e-02 5.546401e-02 5.422178e-02 5.430574e-02 5.261278e-02 5.242230e-02 5.041718e-02 5.007229e-02 4.790434e-02 4.753493e-02 4.535903e-02 4.509960e-02 4.307051e-02 4.305367e-02 4.131906e-02 4.166682e-02 4.035759e-02 4.116939e-02 4.038698e-02 4.172606e-02 4.152935e-02 4.341233e-02 4.380978e-02 4.620425e-02 4.715489e-02 4.998499e-02 5.140620e-02 5.456178e-02 5.633881e-02 5.968424e-02 6.167863e-02 6.506036e-02 6.711715e-02 7.037062e-02 7.232541e-02 7.528224e-02 7.696852e-02 7.946384e-02 8.072077e-02 8.260058e-02 8.328052e-02 8.440856e-02 8.438429e-02 8.464812e-02 8.381920e-02 8.313557e-02 8.143401e-02 7.975371e-02 7.714948e-02 7.446249e-02 7.097011e-02 6.731334e-02 6.300311e-02 5.847638e-02 
5.709050e-02 5.231573e-02 4.753068e-02 4.277120e-02 3.859889e-02 3.496101e-02 3.286681e-02 3.217383e-02 3.369007e-02 3.682993e-02 4.149008e-02 4.723375e-02 5.346432e-02 6.042956e-02 6.716343e-02 7.453878e-02 8.117576e-02 8.848069e-02 9.463888e-02 1.015455e-01 1.069487e-01 1.132093e-01 1.176457e-01 1.230654e-01 1.263741e-01 1.308020e-01 1.328691e-01 1.361951e-01 1.369531e-01 1.391074e-01 1.385348e-01 1.394871e-01 1.376076e-01 1.373660e-01 1.342460e-01 1.328545e-01 1.285994e-01 1.261349e-01 1.208849e-01 1.174537e-01 1.113783e-01 1.071117e-01 1.004054e-01 9.545715e-02 8.833594e-02 8.288006e-02 7.558225e-02 6.981672e-02 6.261218e-02 5.677339e-02 4.999358e-02 4.440009e-02 3.851697e-02 3.368492e-02 2.947467e-02 2.631823e-02 2.486409e-02 2.439253e-02 2.588863e-02 2.775082e-02 3.077313e-02 3.368238e-02 3.693340e-02 4.002713e-02 4.288571e-02 4.574939e-02 4.795452e-02 5.039457e-02 5.184619e-02 5.377745e-02 5.445761e-02 5.585716e-02 5.579842e-02 5.668547e-02 5.595637e-02 5.638216e-02 5.507898e-02 5.512065e-02 5.336164e-02 5.311762e-02 5.103815e-02 5.062416e-02 4.837240e-02 4.791781e-02 4.565071e-02 4.529475e-02 4.317388e-02 4.306029e-02 4.124572e-02 4.151334e-02 4.015253e-02 4.091933e-02 4.012917e-02 4.147147e-02 4.131790e-02 4.325383e-02 4.374001e-02 4.622706e-02 4.729707e-02 5.024332e-02 5.179684e-02 5.507652e-02 5.698400e-02 6.044990e-02 6.256329e-02 6.605501e-02 6.821483e-02 7.156496e-02 7.360613e-02 7.664637e-02 7.840436e-02 8.097199e-02 8.228962e-02 8.423422e-02 8.496876e-02 8.615873e-02 8.618890e-02 8.651758e-02 8.575013e-02 8.514146e-02 8.351747e-02 8.193162e-02 7.943334e-02 7.687362e-02 7.353356e-02 7.005754e-02 6.597457e-02 6.171667e-02 
6.150827e-02 5.720970e-02 5.304320e-02 4.893158e-02 4.553137e-02 4.259788e-02 4.112062e-02 4.066471e-02 4.209460e-02 4.472180e-02 4.882069e-02 5.384039e-02 5.953361e-02 6.589795e-02 7.224138e-02 7.917291e-02 8.554006e-02 9.252253e-02 9.849137e-02 1.051624e-01 1.104271e-01 1.165145e-01 1.208441e-01 1.261366e-01 1.293580e-01 1.336938e-01 1.356856e-01 1.389469e-01 1.396377e-01 1.417493e-01 1.411166e-01 1.420442e-01 1.401127e-01 1.398615e-01 1.367003e-01 1.353124e-01 1.310316e-01 1.285829e-01 1.233287e-01 1.199256e-01 1.138757e-01 1.096512e-01 1.030105e-01 9.812230e-02 9.112056e-02 8.575066e-02 7.864518e-02 7.300539e-02 6.609239e-02 6.044191e-02 5.408638e-02 4.877419e-02 4.346897e-02 3.901478e-02 3.544020e-02 3.258348e-02 3.141999e-02 3.076335e-02 3.194842e-02 3.322367e-02 3.574958e-02 3.807483e-02 4.091689e-02 4.355809e-02 4.611287e-02 4.864101e-02 5.061232e-02 5.279914e-02 5.405710e-02 5.578909e-02 5.629611e-02 5.752969e-02 5.730565e-02 5.804480e-02 5.714972e-02 5.743417e-02 5.595840e-02 5.585647e-02 5.391411e-02 5.351790e-02 5.124195e-02 5.066385e-02 4.820253e-02 4.757282e-02 4.508708e-02 4.455208e-02 4.221373e-02 4.193253e-02 3.992013e-02 4.005530e-02 3.854205e-02 3.923831e-02 3.836655e-02 3.971866e-02 3.956707e-02 4.159303e-02 4.215757e-02 4.479690e-02 4.599985e-02 4.913537e-02 5.085169e-02 5.433510e-02 5.641576e-02 6.008418e-02 6.236905e-02 6.605291e-02 6.837659e-02 7.190425e-02 7.409987e-02 7.730214e-02 7.920603e-02 8.192166e-02 8.337923e-02 8.546102e-02 8.633345e-02 8.765460e-02 8.782586e-02 8.828606e-02 8.766979e-02 8.720123e-02 8.574779e-02 8.432158e-02 8.202614e-02 7.966076e-02 7.657459e-02 7.334963e-02 6.959945e-02 6.568226e-02 
6.668739e-02 6.283947e-02 5.921663e-02 5.567049e-02 5.289608e-02 5.051284e-02 4.950664e-02 4.925552e-02 5.070004e-02 5.302510e-02 5.677851e-02 6.126172e-02 6.655169e-02 7.240328e-02 7.842207e-02 8.494352e-02 9.107698e-02 9.775054e-02 1.035554e-01 1.099995e-01 1.151475e-01 1.210717e-01 1.253145e-01 1.304934e-01 1.336462e-01 1.379072e-01 1.398413e-01 1.430587e-01 1.436989e-01 1.457911e-01 1.451136e-01 1.460416e-01 1.440723e-01 1.438370e-01 1.406483e-01 1.392886e-01 1.349954e-01 1.325847e-01 1.273396e-01 1.239827e-01 1.179711e-01 1.138012e-01 1.072373e-01 1.024138e-01 9.553865e-02 9.024813e-02 8.333199e-02 7.779396e-02 7.114640e-02 6.562971e-02 5.962137e-02 5.447678e-02 4.957011e-02 4.527460e-02 4.201775e-02 3.915608e-02 3.798674e-02 3.697982e-02 3.778766e-02 3.847922e-02 4.052426e-02 4.228924e-02 4.473232e-02 4.694273e-02 4.920469e-02 5.142860e-02 5.318655e-02 5.516527e-02 5.626127e-02 5.785146e-02 5.822721e-02 5.936085e-02 5.902160e-02 5.968290e-02 5.867789e-02 5.889022e-02 5.730129e-02 5.711933e-02 5.505363e-02 5.455854e-02 5.214373e-02 5.144045e-02 4.882199e-02 4.803868e-02 4.537941e-02 4.466849e-02 4.215004e-02 4.168848e-02 3.951073e-02 3.949219e-02 3.786106e-02 3.846854e-02 3.756054e-02 3.891738e-02 3.882786e-02 4.095396e-02 4.166652e-02 4.447731e-02 4.588191e-02 4.922657e-02 5.116387e-02 5.486546e-02 5.716128e-02 6.103812e-02 6.351809e-02 6.739074e-02 6.988377e-02 7.357707e-02 7.591636e-02 7.926186e-02 8.128734e-02 8.412740e-02 8.569026e-02 8.788330e-02 8.885198e-02 9.027829e-02 9.054523e-02 9.111299e-02 9.060173e-02 9.025318e-02 8.892597e-02 8.764452e-02 8.551143e-02 8.333120e-02 8.046297e-02 7.748428e-02 7.403324e-02 7.045035e-02 
7.263894e-02 6.925917e-02 6.619861e-02 6.317908e-02 6.097845e-02 5.904881e-02 5.843586e-02 5.833569e-02 5.980616e-02 6.188314e-02 6.535657e-02 6.936119e-02 7.427534e-02 7.961908e-02 8.529723e-02 9.137542e-02 9.723802e-02 1.035530e-01 1.091500e-01 1.153132e-01 1.202999e-01 1.260081e-01 1.301209e-01 1.351367e-01 1.381791e-01 1.423201e-01 1.441559e-01 1.472885e-01 1.478387e-01 1.498752e-01 1.491152e-01 1.500116e-01 1.479692e-01 1.477227e-01 1.444748e-01 1.431211e-01 1.387888e-01 1.363994e-01 1.311437e-01 1.278226e-01 1.218389e-01 1.177199e-01 1.112341e-01 1.064797e-01 9.974620e-02 9.454853e-02 8.785207e-02 8.243929e-02 7.610194e-02 7.075199e-02 6.514527e-02 6.020782e-02 5.575733e-02 5.166771e-02 4.880404e-02 4.602618e-02 4.500310e-02 4.381874e-02 4.445825e-02 4.473729e-02 4.644090e-02 4.771927e-02 4.980219e-02 5.156671e-02 5.350968e-02 5.536290e-02 5.684638e-02 5.852464e-02 5.937773e-02 6.072114e-02 6.087165e-02 6.179442e-02 6.123624e-02 6.170658e-02 6.048010e-02 6.050752e-02 5.868757e-02 5.831506e-02 5.600321e-02 5.530250e-02 5.262219e-02 5.169184e-02 4.878647e-02 4.775308e-02 4.478778e-02 4.381056e-02 4.097799e-02 4.025481e-02 3.778132e-02 3.754579e-02 3.568312e-02 3.617172e-02 3.514938e-02 3.652583e-02 3.646638e-02 3.874764e-02 3.961468e-02 4.267410e-02 4.430899e-02 4.794633e-02 5.014424e-02 5.414687e-02 5.670474e-02 6.087106e-02 6.360050e-02 6.774179e-02 7.046690e-02 7.440494e-02 7.695908e-02 8.052603e-02 8.275196e-02 8.579321e-02 8.754651e-02 8.992545e-02 9.108022e-02 9.268381e-02 9.313949e-02 9.388428e-02 9.357307e-02 9.341155e-02 9.230656e-02 9.123466e-02 8.935972e-02 8.742696e-02 8.487002e-02 8.219529e-02 7.912882e-02 7.592629e-02 
7.918993e-02 7.623000e-02 7.364058e-02 7.107406e-02 6.934245e-02 6.779324e-02 6.751230e-02 6.756819e-02 6.911644e-02 7.105876e-02 7.438177e-02 7.805215e-02 8.271518e-02 8.766328e-02 9.309139e-02 9.879957e-02 1.044542e-01 1.104580e-01 1.158934e-01 1.218099e-01 1.266719e-01 1.321925e-01 1.362061e-01 1.410856e-01 1.440444e-01 1.480924e-01 1.498534e-01 1.529294e-01 1.534100e-01 1.554198e-01 1.545950e-01 1.554890e-01 1.533888e-01 1.531589e-01 1.498647e-01 1.485422e-01 1.441814e-01 1.418338e-01 1.365749e-01 1.333033e-01 1.273503e-01 1.232865e-01 1.168743e-01 1.121803e-01 1.055715e-01 1.004401e-01 9.392508e-02 8.858542e-02 8.248465e-02 7.721198e-02 7.187822e-02 6.700586e-02 6.281225e-02 5.872896e-02 5.600995e-02 5.310005e-02 5.201222e-02 5.050410e-02 5.087225e-02 5.068997e-02 5.202784e-02 5.282683e-02 5.455620e-02 5.590753e-02 5.755210e-02 5.908455e-02 6.032573e-02 6.176854e-02 6.242215e-02 6.359621e-02 6.357518e-02 6.437308e-02 6.365817e-02 6.402724e-02 6.264757e-02 6.257805e-02 6.059846e-02 6.011587e-02 5.762879e-02 5.678960e-02 5.391032e-02 5.280104e-02 4.966677e-02 4.840741e-02 4.518163e-02 4.393485e-02 4.081874e-02 3.980388e-02 3.705219e-02 3.655249e-02 3.447439e-02 3.480208e-02 3.370108e-02 3.508420e-02 3.512251e-02 3.757839e-02 3.868792e-02 4.203133e-02 4.398301e-02 4.794776e-02 5.047642e-02 5.480564e-02 5.767332e-02 6.214227e-02 6.514540e-02 6.955562e-02 7.251480e-02 7.668604e-02 7.943754e-02 8.320463e-02 8.559756e-02 8.881165e-02 9.070992e-02 9.324226e-02 9.452956e-02 9.627660e-02 9.686294e-02 9.775200e-02 9.758123e-02 9.757679e-02 9.663504e-02 9.574631e-02 9.407212e-02 9.236334e-02 9.006102e-02 8.766662e-02 8.492500e-02 8.207233e-02 
8.654493e-02 8.401150e-02 8.190801e-02 7.976697e-02 7.848295e-02 7.726485e-02 7.728590e-02 7.746624e-02 7.909072e-02 8.090596e-02 8.410053e-02 8.745630e-02 9.188235e-02 9.643629e-02 1.016072e-01 1.069229e-01 1.123451e-01 1.179987e-01 1.232385e-01 1.288602e-01 1.335592e-01 1.388412e-01 1.427151e-01 1.474075e-01 1.502413e-01 1.541479e-01 1.557923e-01 1.587663e-01 1.591354e-01 1.610773e-01 1.601466e-01 1.610014e-01 1.588043e-01 1.585594e-01 1.551831e-01 1.538655e-01 1.494460e-01 1.471201e-01 1.418358e-01 1.386001e-01 1.326662e-01 1.286517e-01 1.223145e-01 1.176837e-01 1.112162e-01 1.061642e-01 9.986382e-02 9.462205e-02 8.880791e-02 8.365028e-02 7.865597e-02 7.390173e-02 7.005015e-02 6.604812e-02 6.358744e-02 6.065428e-02 5.965127e-02 5.795868e-02 5.821339e-02 5.769729e-02 5.878378e-02 5.917320e-02 6.059621e-02 6.153642e-02 6.287177e-02 6.403223e-02 6.497964e-02 6.610051e-02 6.647601e-02 6.737276e-02 6.708287e-02 6.763576e-02 6.665351e-02 6.679544e-02 6.514256e-02 6.484934e-02 6.258386e-02 6.186738e-02 5.907536e-02 5.797973e-02 5.477029e-02 5.337154e-02 4.987622e-02 4.828722e-02 4.466607e-02 4.305022e-02 3.950905e-02 3.810519e-02 3.492642e-02 3.407596e-02 3.164332e-02 3.176573e-02 3.049951e-02 3.192130e-02 3.205030e-02 3.477397e-02 3.616975e-02 3.990370e-02 4.222616e-02 4.661209e-02 4.952103e-02 5.425683e-02 5.748239e-02 6.232719e-02 6.565735e-02 7.040877e-02 7.366521e-02 7.814379e-02 8.116721e-02 8.521084e-02 8.785592e-02 9.132051e-02 9.345732e-02 9.622057e-02 9.773967e-02 9.970612e-02 1.005254e-01 1.016320e-01 1.017046e-01 1.019269e-01 1.012496e-01 1.006093e-01 9.923279e-02 9.780712e-02 9.584834e-02 9.378378e-02 9.144162e-02 8.897201e-02 
9.441264e-02 9.225909e-02 9.055873e-02 8.879340e-02 8.788491e-02 8.696629e-02 8.725869e-02 8.758251e-02 8.931811e-02 9.108547e-02 9.423823e-02 9.738996e-02 1.016804e-01 1.059471e-01 1.109517e-01 1.159624e-01 1.212265e-01 1.265975e-01 1.317012e-01 1.370817e-01 1.416666e-01 1.467546e-01 1.505300e-01 1.550754e-01 1.578191e-01 1.616219e-01 1.631793e-01 1.660881e-01 1.663708e-01 1.682805e-01 1.672644e-01 1.681143e-01 1.658364e-01 1.656077e-01 1.621613e-01 1.608752e-01 1.564040e-01 1.541189e-01 1.488102e-01 1.456196e-01 1.396971e-01 1.357278e-01 1.294451e-01 1.248561e-01 1.184908e-01 1.134740e-01 1.073219e-01 1.021050e-01 9.647329e-02 9.132163e-02 8.651621e-02 8.173095e-02 7.802703e-02 7.392547e-02 7.151163e-02 6.837408e-02 6.727538e-02 6.526064e-02 6.528754e-02 6.436618e-02 6.515040e-02 6.511727e-02 6.622557e-02 6.678340e-02 6.782796e-02 6.867517e-02 6.936654e-02 7.024704e-02 7.039787e-02 7.111603e-02 7.062398e-02 7.104200e-02 6.986975e-02 6.989986e-02 6.805861e-02 6.765534e-02 6.519249e-02 6.434688e-02 6.133753e-02 6.007387e-02 5.661580e-02 5.499206e-02 5.120554e-02 4.931991e-02 4.535538e-02 4.336427e-02 3.942521e-02 3.758052e-02 3.397161e-02 3.267742e-02 2.986810e-02 2.969140e-02 2.826966e-02 2.970252e-02 3.000655e-02 3.304066e-02 3.484526e-02 3.903233e-02 4.183695e-02 4.669816e-02 5.007004e-02 5.525111e-02 5.888639e-02 6.412878e-02 6.780830e-02 7.290546e-02 7.645448e-02 8.122883e-02 8.449608e-02 8.879103e-02 9.164125e-02 9.532096e-02 9.763536e-02 1.005878e-01 1.022687e-01 1.044102e-01 1.053876e-01 1.066679e-01 1.069075e-01 1.073153e-01 1.068268e-01 1.063970e-01 1.052440e-01 1.040661e-01 1.023775e-01 1.006074e-01 9.858973e-02 9.646389e-02 
1.031869e-01 1.014195e-01 1.001431e-01 9.873757e-02 9.820242e-02 9.755474e-02 9.810801e-02 9.855154e-02 1.003950e-01 1.021050e-01 1.052210e-01 1.081657e-01 1.123232e-01 1.162927e-01 1.211232e-01 1.258049e-01 1.308914e-01 1.359425e-01 1.408820e-01 1.459745e-01 1.504110e-01 1.552530e-01 1.588915e-01 1.632358e-01 1.658480e-01 1.694936e-01 1.709202e-01 1.737126e-01 1.738635e-01 1.756935e-01 1.745464e-01 1.753481e-01 1.729453e-01 1.726950e-01 1.691378e-01 1.678513e-01 1.632940e-01 1.610248e-01 1.556663e-01 1.525038e-01 1.465798e-01 1.426475e-01 1.364223e-01 1.318774e-01 1.256354e-01 1.206690e-01 1.147065e-01 1.095444e-01 1.041584e-01 9.906014e-02 9.452958e-02 8.978144e-02 8.633497e-02 8.222590e-02 7.999219e-02 7.676549e-02 7.571903e-02 7.350757e-02 7.344560e-02 7.222680e-02 7.280993e-02 7.241684e-02 7.325815e-02 7.343953e-02 7.418885e-02 7.467647e-02 7.506477e-02 7.561785e-02 7.546479e-02 7.588870e-02 7.509162e-02 7.524092e-02 7.375895e-02 7.353380e-02 7.137336e-02 7.071434e-02 6.791752e-02 6.680118e-02 6.343710e-02 6.187312e-02 5.803239e-02 5.606386e-02 5.185733e-02 4.956711e-02 4.513269e-02 4.266297e-02 3.819034e-02 3.579099e-02 3.158724e-02 2.971624e-02 2.633928e-02 2.576951e-02 2.408201e-02 2.559733e-02 2.614435e-02 2.966797e-02 3.200597e-02 3.678948e-02 4.016125e-02 4.558395e-02 4.946758e-02 5.515058e-02 5.923335e-02 6.492321e-02 6.899668e-02 7.449437e-02 7.839599e-02 8.352974e-02 8.711832e-02 9.173667e-02 9.488513e-02 9.885797e-02 1.014547e-01 1.046772e-01 1.066317e-01 1.090289e-01 1.102789e-01 1.118107e-01 1.123306e-01 1.129970e-01 1.128059e-01 1.126529e-01 1.118241e-01 1.109513e-01 1.096212e-01 1.081907e-01 1.065685e-01 1.048144e-01 
1.124489e-01 1.110308e-01 1.101072e-01 1.090326e-01 1.088188e-01 1.084343e-01 1.092314e-01 1.098224e-01 1.118011e-01 1.135202e-01 1.166640e-01 1.194935e-01 1.236010e-01 1.273711e-01 1.321118e-01 1.365551e-01 1.415408e-01 1.463504e-01 1.511927e-01 1.560639e-01 1.604098e-01 1.650639e-01 1.686151e-01 1.728105e-01 1.753335e-01 1.788703e-01 1.802018e-01 1.829236e-01 1.829721e-01 1.847656e-01 1.835107e-01 1.843047e-01 1.817938e-01 1.815576e-01 1.779002e-01 1.766419e-01 1.720016e-01 1.697671e-01 1.643528e-01 1.612237e-01 1.552799e-01 1.513730e-01 1.451697e-01 1.406361e-01 1.344590e-01 1.294844e-01 1.236233e-01 1.184272e-01 1.131625e-01 1.079961e-01 1.035786e-01 9.871481e-02 9.533556e-02 9.104660e-02 8.879729e-02 8.531289e-02 8.414827e-02 8.160400e-02 8.133111e-02 7.973096e-02 8.004427e-02 7.926360e-02 7.981470e-02 7.964214e-02 8.010830e-02 8.030015e-02 8.042509e-02 8.074738e-02 8.035268e-02 8.060390e-02 7.958264e-02 7.960180e-02 7.790580e-02 7.757266e-02 7.519930e-02 7.443171e-02 7.141266e-02 7.016345e-02 6.655597e-02 6.481087e-02 6.069195e-02 5.847000e-02 5.393457e-02 5.129403e-02 4.646071e-02 4.351848e-02 3.855335e-02 3.553861e-02 3.072939e-02 2.812469e-02 2.408896e-02 2.290522e-02 2.088179e-02 2.242467e-02 2.335211e-02 2.746758e-02 3.052119e-02 3.599419e-02 4.006388e-02 4.611666e-02 5.059850e-02 5.683430e-02 6.141492e-02 6.758399e-02 7.206791e-02 7.797615e-02 8.221497e-02 8.769638e-02 9.156282e-02 9.647383e-02 9.985459e-02 1.040755e-01 1.068726e-01 1.103111e-01 1.124475e-01 1.150426e-01 1.164692e-01 1.181954e-01 1.188994e-01 1.197707e-01 1.197834e-01 1.198584e-01 1.192638e-01 1.186521e-01 1.175944e-01 1.164628e-01 1.151532e-01 1.137319e-01 
1.227720e-01 1.217103e-01 1.211664e-01 1.204132e-01 1.205296e-01 1.203888e-01 1.214293e-01 1.221472e-01 1.242596e-01 1.259711e-01 1.291424e-01 1.318419e-01 1.358971e-01 1.394485e-01 1.440908e-01 1.482669e-01 1.531353e-01 1.576638e-01 1.623846e-01 1.669859e-01 1.712101e-01 1.756209e-01 1.790480e-01 1.830353e-01 1.854273e-01 1.887952e-01 1.899853e-01 1.925777e-01 1.924741e-01 1.941755e-01 1.927614e-01 1.934964e-01 1.908269e-01 1.905590e-01 1.867542e-01 1.854854e-01 1.807221e-01 1.784913e-01 1.729921e-01 1.698748e-01 1.638972e-01 1.600049e-01 1.538289e-01 1.493088e-01 1.432243e-01 1.382592e-01 1.325524e-01 1.273586e-01 1.222946e-01 1.171175e-01 1.129189e-01 1.080203e-01 1.048381e-01 1.004727e-01 9.835477e-02 9.473234e-02 9.359999e-02 9.084370e-02 9.049362e-02 8.861208e-02 8.875270e-02 8.764292e-02 8.795265e-02 8.743201e-02 8.761414e-02 8.746328e-02 8.727965e-02 8.727863e-02 8.656056e-02 8.651126e-02 8.515566e-02 8.489236e-02 8.285148e-02 8.224402e-02 7.951388e-02 7.846738e-02 7.507725e-02 7.353045e-02 6.953410e-02 6.745768e-02 6.292675e-02 6.032278e-02 5.534306e-02 5.224803e-02 4.692074e-02 4.341914e-02 3.787548e-02 3.414568e-02 2.860768e-02 2.508122e-02 2.012071e-02 1.803453e-02 1.545127e-02 1.721461e-02 1.887283e-02 2.394238e-02 2.796938e-02 3.425077e-02 3.909377e-02 4.578648e-02 5.087502e-02 5.765184e-02 6.273294e-02 6.938123e-02 7.429813e-02 8.063944e-02 8.526664e-02 9.114134e-02 9.536527e-02 1.006335e-01 1.043496e-01 1.088961e-01 1.120129e-01 1.157517e-01 1.181980e-01 1.210767e-01 1.228100e-01 1.248132e-01 1.258277e-01 1.269803e-01 1.273149e-01 1.276854e-01 1.274309e-01 1.271363e-01 1.264413e-01 1.256505e-01 1.247247e-01 1.236615e-01 
1.336059e-01 1.328755e-01 1.326499e-01 1.322065e-01 1.326136e-01 1.327252e-01 1.339994e-01 1.348798e-01 1.371495e-01 1.389165e-01 1.421677e-01 1.448202e-01 1.488935e-01 1.523179e-01 1.569391e-01 1.609387e-01 1.657657e-01 1.700974e-01 1.747674e-01 1.791747e-01 1.833412e-01 1.875772e-01 1.909366e-01 1.947786e-01 1.970883e-01 2.003457e-01 2.014354e-01 2.039533e-01 2.037309e-01 2.053917e-01 2.038438e-01 2.045669e-01 2.017561e-01 2.014975e-01 1.975542e-01 1.963065e-01 1.914191e-01 1.892110e-01 1.836139e-01 1.805107e-01 1.744705e-01 1.705745e-01 1.643764e-01 1.598269e-01 1.537599e-01 1.487331e-01 1.430741e-01 1.377808e-01 1.327774e-01 1.274570e-01 1.233060e-01 1.182142e-01 1.150375e-01 1.104232e-01 1.082442e-01 1.043167e-01 1.030460e-01 9.993843e-02 9.938048e-02 9.712439e-02 9.700937e-02 9.553266e-02 9.556469e-02 9.471400e-02 9.461710e-02 9.419255e-02 9.374085e-02 9.352900e-02 9.255845e-02 9.235576e-02 9.076249e-02 9.038877e-02 8.812066e-02 8.742531e-02 8.447145e-02 8.333560e-02 7.971610e-02 7.805274e-02 7.381004e-02 7.156333e-02 6.675559e-02 6.390027e-02 5.859714e-02 5.513976e-02 4.942161e-02 4.540817e-02 3.937261e-02 3.491844e-02 2.871449e-02 2.412876e-02 1.815729e-02 1.463172e-02 1.106752e-02 1.296440e-02 1.576148e-02 2.196743e-02 2.716189e-02 3.430822e-02 4.002071e-02 4.741749e-02 5.318371e-02 6.056741e-02 6.619275e-02 7.336865e-02 7.872686e-02 8.552130e-02 9.050733e-02 9.676471e-02 1.012821e-01 1.068699e-01 1.108301e-01 1.156443e-01 1.189710e-01 1.229402e-01 1.255768e-01 1.286647e-01 1.305824e-01 1.327899e-01 1.339955e-01 1.353623e-01 1.359058e-01 1.365129e-01 1.364938e-01 1.364660e-01 1.360378e-01 1.355459e-01 1.349170e-01 1.341778e-01 
1.456957e-01 1.453027e-01 1.454263e-01 1.452853e-01 1.459986e-01 1.463466e-01 1.478605e-01 1.488842e-01 1.513132e-01 1.531162e-01 1.564476e-01 1.590328e-01 1.631221e-01 1.663950e-01 1.709883e-01 1.747788e-01 1.795515e-01 1.836439e-01 1.882431e-01 1.924043e-01 1.964855e-01 2.004865e-01 2.037433e-01 2.073743e-01 2.095594e-01 2.126378e-01 2.135780e-01 2.159531e-01 2.155570e-01 2.171113e-01 2.153714e-01 2.160212e-01 2.130102e-01 2.127057e-01 2.085684e-01 2.072940e-01 2.022354e-01 2.000114e-01 1.942823e-01 1.911656e-01 1.850474e-01 1.811331e-01 1.749211e-01 1.703434e-01 1.643293e-01 1.592610e-01 1.537154e-01 1.483647e-01 1.435179e-01 1.381209e-01 1.341420e-01 1.289484e-01 1.259245e-01 1.211741e-01 1.190937e-01 1.149861e-01 1.137339e-01 1.103966e-01 1.097668e-01 1.072348e-01 1.069634e-01 1.051774e-01 1.049841e-01 1.038086e-01 1.034354e-01 1.026870e-01 1.019232e-01 1.013991e-01 1.000910e-01 9.959091e-02 9.764132e-02 9.698160e-02 9.434254e-02 9.336426e-02 9.002756e-02 8.860081e-02 8.458867e-02 8.261434e-02 7.797098e-02 7.538084e-02 7.016575e-02 6.692123e-02 6.120416e-02 5.729425e-02 5.115167e-02 4.659172e-02 4.010441e-02 3.494088e-02 2.819353e-02 2.253837e-02 1.564296e-02 9.997834e-03 4.232802e-03 7.286510e-03 1.274204e-02 2.019765e-02 2.664626e-02 3.442609e-02 4.090448e-02 4.880135e-02 5.513986e-02 6.298638e-02 6.908925e-02 7.671014e-02 8.249413e-02 8.971490e-02 9.509608e-02 1.017555e-01 1.066480e-01 1.126093e-01 1.169295e-01 1.220880e-01 1.257626e-01 1.300505e-01 1.330257e-01 1.364140e-01 1.386648e-01 1.411640e-01 1.427022e-01 1.443624e-01 1.452435e-01 1.461548e-01 1.464831e-01 1.467759e-01 1.467073e-01 1.465526e-01 1.462926e-01 1.458993e-01 
1.583586e-01 1.582903e-01 1.587095e-01 1.588744e-01 1.598628e-01 1.604698e-01 1.622184e-01 1.634295e-01 1.660398e-01 1.679437e-01 1.714011e-01 1.739998e-01 1.781676e-01 1.813784e-01 1.860156e-01 1.896884e-01 1.944815e-01 1.984229e-01 2.030241e-01 2.070221e-01 2.110864e-01 2.149295e-01 2.181454e-01 2.216373e-01 2.237517e-01 2.267188e-01 2.275547e-01 2.298509e-01 2.293171e-01 2.308250e-01 2.289194e-01 2.295507e-01 2.263563e-01 2.260527e-01 2.217277e-01 2.204625e-01 2.152267e-01 2.130072e-01 2.071257e-01 2.039958e-01 1.977604e-01 1.938039e-01 1.875152e-01 1.828571e-01 1.768050e-01 1.716120e-01 1.660571e-01 1.605339e-01 1.556888e-01 1.500704e-01 1.460814e-01 1.406180e-01 1.375487e-01 1.324834e-01 1.303044e-01 1.258443e-01 1.244333e-01 1.207204e-01 1.198773e-01 1.169676e-01 1.164435e-01 1.143028e-01 1.138359e-01 1.123516e-01 1.117004e-01 1.107043e-01 1.096696e-01 1.089641e-01 1.073987e-01 1.067779e-01 1.045867e-01 1.038525e-01 1.009861e-01 9.995855e-02 9.640452e-02 9.492868e-02 9.070223e-02 8.865205e-02 8.378811e-02 8.106848e-02 7.561588e-02 7.216249e-02 6.618075e-02 6.195825e-02 5.551701e-02 5.051580e-02 4.369639e-02 3.792911e-02 3.082884e-02 2.432682e-02 1.707943e-02 9.888341e-03 3.259090e-03 5.419904e-03 1.299154e-02 2.093624e-02 2.838477e-02 3.672324e-02 4.396840e-02 5.245439e-02 5.942580e-02 6.784854e-02 7.447650e-02 8.262929e-02 8.884450e-02 9.653341e-02 1.022654e-01 1.093215e-01 1.144994e-01 1.207886e-01 1.253447e-01 1.307731e-01 1.346500e-01 1.391660e-01 1.423251e-01 1.459184e-01 1.483482e-01 1.510479e-01 1.527724e-01 1.546446e-01 1.557293e-01 1.568764e-01 1.574326e-01 1.579918e-01 1.581783e-01 1.583205e-01 1.583406e-01 1.582665e-01 