# vtk DataFile Version 2.0
Comment goes here
ASCII

DATASET STRUCTURED_POINTS
FIELD FieldData 1
TIME 1 1 double
0.04000000
DIMENSIONS    128   128   1

ORIGIN    0.000   0.000   0.000
SPACING   0.039062 0.039062   1.000

POINT_DATA   16384
SCALARS uMag double
LOOKUP_TABLE default

8.014102e-01 8.351626e-01 8.651942e-01 8.959404e-01 9.229436e-01 9.505289e-01 9.743313e-01 9.985780e-01 1.018984e+00 1.039692e+00 1.056485e+00 1.073438e+00 1.086385e+00 1.099351e+00 1.108215e+00 1.116960e+00 1.121503e+00 1.125795e+00 1.125792e+00 1.125419e+00 1.120668e+00 1.115441e+00 1.105777e+00 1.095545e+00 1.080848e+00 1.065506e+00 1.045711e+00 1.025211e+00 1.000314e+00 9.746646e-01 9.447293e-01 9.140055e-01 8.791641e-01 8.435043e-01 8.039585e-01 7.635653e-01 7.195842e-01 6.747219e-01 6.266387e-01 5.776306e-01 5.258391e-01 4.730642e-01 4.180141e-01 3.619047e-01 3.040978e-01 2.451372e-01 1.851242e-01 1.238457e-01 6.222248e-02 7.912270e-04 6.338570e-02 1.275031e-01 1.903902e-01 2.549320e-01 3.173968e-01 3.816384e-01 4.429350e-01 5.061110e-01 5.654691e-01 6.267807e-01 6.834156e-01 7.420407e-01 7.951656e-01 8.502733e-01 8.991143e-01 9.498819e-01 9.936960e-01 1.039329e+00 1.077424e+00 1.117180e+00 1.148935e+00 1.182144e+00 1.207031e+00 1.233122e+00 1.250724e+00 1.269245e+00 1.279277e+00 1.289913e+00 1.292229e+00 1.294820e+00 1.289428e+00 1.283974e+00 1.271034e+00 1.257701e+00 1.237523e+00 1.216636e+00 1.189670e+00 1.161706e+00 1.128524e+00 1.094088e+00 1.055362e+00 1.015168e+00 9.716491e-01 9.264890e-01 8.789725e-01 8.296863e-01 7.789878e-01 7.264327e-01 6.733592e-01 6.183800e-01 5.637056e-01 5.071094e-01 4.515551e-01 3.940900e-01 3.383084e-01 2.806485e-01 2.252143e-01 1.679506e-01 1.133560e-01 5.699238e-02 3.647741e-03 5.139671e-02 1.031580e-01 1.565437e-01 2.064569e-01 2.579144e-01 3.057732e-01 3.550917e-01 4.007357e-01 4.477505e-01 4.910527e-01 5.356320e-01 5.764862e-01 6.185183e-01 6.568273e-01 6.962086e-01 7.318735e-01 7.684986e-01 
8.038257e-01 8.375489e-01 8.675586e-01 8.982990e-01 9.252896e-01 9.528883e-01 9.766832e-01 1.000960e+00 1.021359e+00 1.042111e+00 1.058896e+00 1.075903e+00 1.088840e+00 1.101870e+00 1.110716e+00 1.119532e+00 1.124049e+00 1.128419e+00 1.128382e+00 1.128089e+00 1.123295e+00 1.118150e+00 1.108434e+00 1.098286e+00 1.083530e+00 1.068272e+00 1.048412e+00 1.027997e+00 1.003033e+00 9.774721e-01 9.474731e-01 9.168429e-01 8.819482e-01 8.463935e-01 8.068151e-01 7.665482e-01 7.225711e-01 6.778736e-01 6.298574e-01 5.810842e-01 5.294708e-01 4.770658e-01 4.224068e-01 3.669577e-01 3.100224e-01 2.524929e-01 1.948235e-01 1.381430e-01 8.781740e-02 6.281744e-02 9.013415e-02 1.432382e-01 2.018151e-01 2.639600e-01 3.251086e-01 3.884002e-01 4.491153e-01 5.118171e-01 5.708673e-01 6.319164e-01 6.883657e-01 7.468389e-01 7.998362e-01 8.548546e-01 9.035938e-01 9.543085e-01 9.980289e-01 1.043630e+00 1.081629e+00 1.121362e+00 1.153012e+00 1.186202e+00 1.210972e+00 1.237042e+00 1.254515e+00 1.273011e+00 1.282900e+00 1.293506e+00 1.295671e+00 1.298226e+00 1.292676e+00 1.287183e+00 1.274084e+00 1.260711e+00 1.240377e+00 1.219454e+00 1.192342e+00 1.164348e+00 1.131035e+00 1.096581e+00 1.057747e+00 1.017553e+00 9.739523e-01 9.288167e-01 8.812540e-01 8.320252e-01 7.813250e-01 7.288724e-01 6.758560e-01 6.210449e-01 5.665118e-01 5.101870e-01 4.549104e-01 3.979032e-01 3.426614e-01 2.858671e-01 2.316210e-01 1.764517e-01 1.255708e-01 7.856901e-02 5.426730e-02 7.472258e-02 1.166338e-01 1.657750e-01 2.136161e-01 2.637139e-01 3.107503e-01 3.594197e-01 4.046431e-01 4.512870e-01 4.943460e-01 5.386935e-01 5.793982e-01 6.212800e-01 6.594945e-01 6.987791e-01 7.343844e-01 7.709510e-01 
8.070539e-01 8.405377e-01 8.703444e-01 9.008953e-01 9.277391e-01 9.551882e-01 9.788850e-01 1.003045e+00 1.023391e+00 1.044055e+00 1.060826e+00 1.077771e+00 1.090731e+00 1.103722e+00 1.112628e+00 1.121426e+00 1.126037e+00 1.130410e+00 1.130499e+00 1.130231e+00 1.125596e+00 1.120499e+00 1.110975e+00 1.100899e+00 1.086369e+00 1.071214e+00 1.051617e+00 1.031341e+00 1.006684e+00 9.813053e-01 9.516655e-01 9.212758e-01 8.868075e-01 8.515700e-01 8.125084e-01 7.726656e-01 7.293341e-01 6.852169e-01 6.380419e-01 5.900937e-01 5.396428e-01 4.884832e-01 4.355726e-01 3.821877e-01 3.282347e-01 2.746748e-01 2.231674e-01 1.759272e-01 1.402540e-01 1.259843e-01 1.417167e-01 1.799788e-01 2.293143e-01 2.853094e-01 3.425774e-01 4.029329e-01 4.616395e-01 5.226656e-01 5.805193e-01 6.405025e-01 6.961779e-01 7.539293e-01 8.064039e-01 8.609176e-01 9.092994e-01 9.596581e-01 1.003138e+00 1.048491e+00 1.086338e+00 1.125905e+00 1.157473e+00 1.190559e+00 1.215304e+00 1.241319e+00 1.258814e+00 1.277291e+00 1.287242e+00 1.297858e+00 1.300116e+00 1.302701e+00 1.297273e+00 1.291823e+00 1.278870e+00 1.265549e+00 1.245383e+00 1.224519e+00 1.197595e+00 1.169669e+00 1.136567e+00 1.102194e+00 1.063598e+00 1.023508e+00 9.801837e-01 9.351892e-01 8.879566e-01 8.389307e-01 7.886403e-01 7.364898e-01 6.840062e-01 6.296582e-01 5.758570e-01 5.202679e-01 4.660702e-01 4.102986e-01 3.568110e-01 3.023008e-01 2.513607e-01 2.011532e-01 1.579583e-01 1.231601e-01 1.085374e-01 1.193450e-01 1.486131e-01 1.891901e-01 2.318350e-01 2.783679e-01 3.229481e-01 3.697772e-01 4.135932e-01 4.591285e-01 5.012751e-01 5.448838e-01 5.849488e-01 6.263032e-01 6.640472e-01 7.029372e-01 7.381872e-01 7.744494e-01 
8.150563e-01 8.482527e-01 8.778205e-01 9.081779e-01 9.348556e-01 9.621883e-01 9.857768e-01 1.009885e+00 1.030168e+00 1.050836e+00 1.067582e+00 1.084578e+00 1.097542e+00 1.110626e+00 1.119558e+00 1.128485e+00 1.133140e+00 1.137673e+00 1.137820e+00 1.137740e+00 1.133177e+00 1.128294e+00 1.118856e+00 1.109021e+00 1.094594e+00 1.079709e+00 1.060241e+00 1.040269e+00 1.015778e+00 9.907518e-01 9.613337e-01 9.313614e-01 8.971976e-01 8.624715e-01 8.238386e-01 7.846468e-01 7.419323e-01 6.986804e-01 6.524162e-01 6.056782e-01 5.566176e-01 5.072576e-01 4.565736e-01 4.060774e-01 3.559323e-01 3.074269e-01 2.628082e-01 2.244101e-01 1.983975e-01 1.890692e-01 2.007920e-01 2.299140e-01 2.710762e-01 3.202992e-01 3.728781e-01 4.294091e-01 4.854705e-01 5.442224e-01 6.004669e-01 6.590128e-01 7.136390e-01 7.704440e-01 8.221930e-01 8.760694e-01 9.239216e-01 9.738472e-01 1.016920e+00 1.061978e+00 1.099494e+00 1.138861e+00 1.170145e+00 1.203096e+00 1.227585e+00 1.253507e+00 1.270764e+00 1.289174e+00 1.298898e+00 1.309461e+00 1.311505e+00 1.314045e+00 1.308416e+00 1.302926e+00 1.289791e+00 1.276437e+00 1.256118e+00 1.235233e+00 1.208195e+00 1.180270e+00 1.147109e+00 1.112774e+00 1.074190e+00 1.034195e+00 9.909752e-01 9.461604e-01 8.991528e-01 8.504298e-01 8.005262e-01 7.488584e-01 6.969870e-01 6.433912e-01 5.905356e-01 5.361242e-01 4.834049e-01 4.295339e-01 3.784601e-01 3.271912e-01 2.804535e-01 2.360652e-01 2.001133e-01 1.734487e-01 1.629203e-01 1.698420e-01 1.911667e-01 2.238387e-01 2.606143e-01 3.025243e-01 3.437945e-01 3.879460e-01 4.297689e-01 4.736241e-01 5.144759e-01 5.569586e-01 5.961346e-01 6.367007e-01 6.738124e-01 7.121375e-01 7.469293e-01 7.827848e-01 
8.238364e-01 8.565426e-01 8.856969e-01 9.156805e-01 9.420613e-01 9.691155e-01 9.925068e-01 1.016417e+00 1.036591e+00 1.057130e+00 1.073844e+00 1.090773e+00 1.103775e+00 1.116846e+00 1.125882e+00 1.134846e+00 1.139665e+00 1.144283e+00 1.144650e+00 1.144701e+00 1.140413e+00 1.135708e+00 1.126601e+00 1.116994e+00 1.102959e+00 1.088360e+00 1.069352e+00 1.049737e+00 1.025787e+00 1.001206e+00 9.724317e-01 9.430182e-01 9.096336e-01 8.756193e-01 8.379498e-01 7.996813e-01 7.581903e-01 7.161657e-01 6.715069e-01 6.264510e-01 5.795815e-01 5.326176e-01 4.850599e-01 4.381225e-01 3.926110e-01 3.494798e-01 3.115175e-01 2.800711e-01 2.602635e-01 2.533062e-01 2.626346e-01 2.854903e-01 3.198770e-01 3.624536e-01 4.098470e-01 4.617875e-01 5.144559e-01 5.701588e-01 6.241612e-01 6.806321e-01 7.337277e-01 7.890844e-01 8.397606e-01 8.926118e-01 9.397010e-01 9.889009e-01 1.031430e+00 1.075983e+00 1.113118e+00 1.152144e+00 1.183173e+00 1.215907e+00 1.240239e+00 1.266038e+00 1.283217e+00 1.301574e+00 1.311287e+00 1.321847e+00 1.323934e+00 1.326504e+00 1.320968e+00 1.315531e+00 1.302533e+00 1.289248e+00 1.269111e+00 1.248309e+00 1.221501e+00 1.193678e+00 1.160803e+00 1.126603e+00 1.088376e+00 1.048569e+00 1.005799e+00 9.612614e-01 9.148298e-01 8.665224e-01 8.173722e-01 7.663309e-01 7.154689e-01 6.628213e-01 6.113571e-01 5.583932e-01 5.076579e-01 4.560301e-01 4.078879e-01 3.601350e-01 3.177744e-01 2.786016e-01 2.482302e-01 2.264294e-01 2.177107e-01 2.221366e-01 2.381034e-01 2.644073e-01 2.955581e-01 3.325942e-01 3.699965e-01 4.109326e-01 4.501686e-01 4.918606e-01 5.309150e-01 5.718772e-01 6.097532e-01 6.492083e-01 6.853521e-01 7.228421e-01 7.569019e-01 7.921192e-01 
8.372273e-01 8.694236e-01 8.981508e-01 9.277786e-01 9.538611e-01 9.806878e-01 1.003886e+00 1.027678e+00 1.047747e+00 1.068262e+00 1.084944e+00 1.101931e+00 1.114961e+00 1.128162e+00 1.137276e+00 1.146433e+00 1.151371e+00 1.156237e+00 1.156760e+00 1.157110e+00 1.153010e+00 1.148651e+00 1.139766e+00 1.130554e+00 1.116780e+00 1.102629e+00 1.083932e+00 1.064830e+00 1.041260e+00 1.017274e+00 9.889766e-01 9.602703e-01 9.275006e-01 8.943486e-01 8.574920e-01 8.203058e-01 7.799141e-01 7.392903e-01 6.961496e-01 6.529655e-01 6.082339e-01 5.638478e-01 5.193437e-01 4.760201e-01 4.348236e-01 3.965914e-01 3.641077e-01 3.379578e-01 3.224821e-01 3.173393e-01 3.257217e-01 3.449050e-01 3.747547e-01 4.121905e-01 4.552399e-01 5.030039e-01 5.524754e-01 6.051796e-01 6.569429e-01 7.113092e-01 7.628244e-01 8.167046e-01 8.662384e-01 9.180535e-01 9.642920e-01 1.012769e+00 1.054643e+00 1.098696e+00 1.135307e+00 1.173994e+00 1.204586e+00 1.237094e+00 1.261048e+00 1.286697e+00 1.303537e+00 1.321794e+00 1.331198e+00 1.341685e+00 1.343490e+00 1.346004e+00 1.340216e+00 1.334732e+00 1.321520e+00 1.308197e+00 1.287896e+00 1.267074e+00 1.240169e+00 1.212359e+00 1.179475e+00 1.145344e+00 1.107221e+00 1.067571e+00 1.025051e+00 9.808023e-01 9.348080e-01 8.869780e-01 8.385085e-01 7.882132e-01 7.383563e-01 6.868367e-01 6.368229e-01 5.855349e-01 5.368764e-01 4.877098e-01 4.425131e-01 3.982696e-01 3.598666e-01 3.251086e-01 2.988827e-01 2.803424e-01 2.727152e-01 2.756192e-01 2.880557e-01 3.096168e-01 3.361104e-01 3.686703e-01 4.023234e-01 4.399188e-01 4.764366e-01 5.157331e-01 5.528296e-01 5.920587e-01 6.285034e-01 6.666847e-01 7.017673e-01 7.383119e-01 7.715804e-01 8.060973e-01 
8.513352e-01 8.828312e-01 9.109677e-01 9.400649e-01 9.657238e-01 9.921623e-01 1.015082e+00 1.038608e+00 1.058524e+00 1.078880e+00 1.095523e+00 1.112446e+00 1.125539e+00 1.138761e+00 1.148029e+00 1.157284e+00 1.162462e+00 1.167498e+00 1.168339e+00 1.168927e+00 1.165222e+00 1.161171e+00 1.152757e+00 1.143927e+00 1.130706e+00 1.117020e+00 1.098970e+00 1.080430e+00 1.057620e+00 1.034318e+00 1.006921e+00 9.790551e-01 9.473692e-01 9.152617e-01 8.797321e-01 8.438630e-01 8.051277e-01 7.661903e-01 7.251566e-01 6.841641e-01 6.421545e-01 6.006423e-01 5.596661e-01 5.200658e-01 4.832871e-01 4.495195e-01 4.218238e-01 3.997291e-01 3.874200e-01 3.833188e-01 3.909085e-01 4.071105e-01 4.332020e-01 4.659890e-01 5.048725e-01 5.483379e-01 5.943683e-01 6.436744e-01 6.928332e-01 7.446415e-01 7.942281e-01 8.462135e-01 8.943226e-01 9.447484e-01 9.899342e-01 1.037407e+00 1.078506e+00 1.121851e+00 1.157900e+00 1.196108e+00 1.226301e+00 1.258506e+00 1.282193e+00 1.307672e+00 1.324352e+00 1.342536e+00 1.351868e+00 1.362351e+00 1.364160e+00 1.366716e+00 1.360997e+00 1.355582e+00 1.342503e+00 1.329266e+00 1.309160e+00 1.288438e+00 1.261798e+00 1.234109e+00 1.201569e+00 1.167600e+00 1.129921e+00 1.090505e+00 1.048557e+00 1.004659e+00 9.594071e-01 9.121093e-01 8.646098e-01 8.151121e-01 7.665327e-01 7.161881e-01 6.678669e-01 6.182750e-01 5.718574e-01 5.250663e-01 4.827691e-01 4.416399e-01 4.066631e-01 3.753061e-01 3.520609e-01 3.355277e-01 3.283516e-01 3.298995e-01 3.395336e-01 3.572505e-01 3.796751e-01 4.081341e-01 4.380817e-01 4.722896e-01 5.058673e-01 5.425594e-01 5.773992e-01 6.146475e-01 6.493616e-01 6.860255e-01 7.197739e-01 7.551465e-01 7.873852e-01 8.209936e-01 
8.698016e-01 9.006192e-01 9.281844e-01 9.568022e-01 9.820634e-01 1.008193e+00 1.030861e+00 1.054225e+00 1.074015e+00 1.094339e+00 1.110960e+00 1.127964e+00 1.141125e+00 1.154528e+00 1.163939e+00 1.173462e+00 1.178845e+00 1.184227e+00 1.185328e+00 1.186331e+00 1.182934e+00 1.179364e+00 1.171307e+00 1.163022e+00 1.150212e+00 1.137143e+00 1.119571e+00 1.101732e+00 1.079488e+00 1.056994e+00 1.030286e+00 1.003367e+00 9.725375e-01 9.415643e-01 9.071243e-01 8.726418e-01 8.353154e-01 7.981055e-01 7.589122e-01 7.201009e-01 6.804963e-01 6.417419e-01 6.038504e-01 5.676434e-01 5.345839e-01 5.046074e-01 4.807111e-01 4.618445e-01 4.520228e-01 4.489697e-01 4.563839e-01 4.708398e-01 4.945360e-01 5.240346e-01 5.598337e-01 5.998945e-01 6.431203e-01 6.895415e-01 7.364460e-01 7.860022e-01 8.338518e-01 8.841461e-01 9.309272e-01 9.801142e-01 1.024276e+00 1.070861e+00 1.111154e+00 1.153879e+00 1.189275e+00 1.227061e+00 1.256709e+00 1.288635e+00 1.311848e+00 1.337147e+00 1.353403e+00 1.371469e+00 1.380416e+00 1.390816e+00 1.392275e+00 1.394762e+00 1.388732e+00 1.383256e+00 1.369916e+00 1.356624e+00 1.336324e+00 1.315562e+00 1.288816e+00 1.261123e+00 1.228592e+00 1.194684e+00 1.157159e+00 1.117910e+00 1.076298e+00 1.032725e+00 9.880329e-01 9.412817e-01 8.946208e-01 8.459707e-01 7.985743e-01 7.494726e-01 7.027576e-01 6.549065e-01 6.105923e-01 5.661134e-01 5.264192e-01 4.880910e-01 4.559527e-01 4.273488e-01 4.063183e-01 3.912397e-01 3.843232e-01 3.848712e-01 3.924116e-01 4.071542e-01 4.262840e-01 4.512309e-01 4.778902e-01 5.089370e-01 5.397288e-01 5.738487e-01 6.064660e-01 6.416943e-01 6.746720e-01 7.097691e-01 7.421729e-01 7.763397e-01 8.075466e-01 8.402391e-01 
8.889128e-01 9.188747e-01 9.457179e-01 9.736872e-01 9.984319e-01 1.024092e+00 1.046425e+00 1.069478e+00 1.089094e+00 1.109246e+00 1.125839e+00 1.142796e+00 1.156059e+00 1.169527e+00 1.179157e+00 1.188848e+00 1.194557e+00 1.200201e+00 1.201726e+00 1.203081e+00 1.200202e+00 1.197071e+00 1.189627e+00 1.181873e+00 1.169774e+00 1.157337e+00 1.140588e+00 1.123499e+00 1.102211e+00 1.080610e+00 1.055020e+00 1.029174e+00 9.996704e-01 9.699966e-01 9.371464e-01 9.042510e-01 8.688519e-01 8.335905e-01 7.967472e-01 7.603250e-01 7.235722e-01 6.877010e-01 6.531797e-01 6.202906e-01 5.909343e-01 5.643483e-01 5.438711e-01 5.275889e-01 5.198014e-01 5.173839e-01 5.245791e-01 5.373597e-01 5.589120e-01 5.852803e-01 6.181242e-01 6.547194e-01 6.950466e-01 7.383205e-01 7.827459e-01 8.296937e-01 8.755475e-01 9.237819e-01 9.690014e-01 1.016614e+00 1.059572e+00 1.104990e+00 1.144370e+00 1.186261e+00 1.220974e+00 1.258196e+00 1.287347e+00 1.318921e+00 1.341789e+00 1.366899e+00 1.382936e+00 1.400933e+00 1.409765e+00 1.420181e+00 1.421615e+00 1.424169e+00 1.418195e+00 1.412811e+00 1.399602e+00 1.386411e+00 1.366317e+00 1.345661e+00 1.319199e+00 1.291623e+00 1.259467e+00 1.225708e+00 1.188669e+00 1.149639e+00 1.108653e+00 1.065419e+00 1.021533e+00 9.753087e-01 9.296822e-01 8.818238e-01 8.357480e-01 7.877876e-01 7.427358e-01 6.964479e-01 6.541671e-01 6.116846e-01 5.743200e-01 5.382567e-01 5.084220e-01 4.818266e-01 4.623575e-01 4.481162e-01 4.411457e-01 4.406605e-01 4.463257e-01 4.584779e-01 4.746557e-01 4.964169e-01 5.199424e-01 5.479395e-01 5.759041e-01 6.074022e-01 6.376423e-01 6.707160e-01 7.017551e-01 7.351140e-01 7.659617e-01 7.987397e-01 8.287142e-01 8.603081e-01 
9.120637e-01 9.412397e-01 9.674196e-01 9.948321e-01 1.019120e+00 1.044426e+00 1.066483e+00 1.089361e+00 1.108857e+00 1.128994e+00 1.145601e+00 1.162685e+00 1.176076e+00 1.189796e+00 1.199651e+00 1.209704e+00 1.215718e+00 1.221819e+00 1.223719e+00 1.225616e+00 1.223171e+00 1.220661e+00 1.213707e+00 1.206649e+00 1.195102e+00 1.183442e+00 1.167318e+00 1.151100e+00 1.130531e+00 1.109916e+00 1.085175e+00 1.060462e+00 1.031981e+00 1.003629e+00 9.720342e-01 9.407049e-01 9.068617e-01 8.734712e-01 8.385571e-01 8.043667e-01 7.699711e-01 7.367117e-01 7.049598e-01 6.749714e-01 6.486070e-01 6.248863e-01 6.071357e-01 5.930418e-01 5.869698e-01 5.853257e-01 5.926718e-01 6.045602e-01 6.248459e-01 6.491387e-01 6.799681e-01 7.140520e-01 7.522415e-01 7.931059e-01 8.356046e-01 8.804933e-01 9.247362e-01 9.713259e-01 1.015242e+00 1.061600e+00 1.103512e+00 1.148012e+00 1.186543e+00 1.227790e+00 1.261800e+00 1.298587e+00 1.327137e+00 1.358430e+00 1.380766e+00 1.405700e+00 1.421250e+00 1.439135e+00 1.447515e+00 1.457848e+00 1.458862e+00 1.461340e+00 1.454987e+00 1.449521e+00 1.435986e+00 1.422707e+00 1.402363e+00 1.381622e+00 1.355015e+00 1.327381e+00 1.295212e+00 1.261457e+00 1.224570e+00 1.185651e+00 1.145015e+00 1.102057e+00 1.058755e+00 1.013030e+00 9.682587e-01 9.211885e-01 8.762748e-01 8.294491e-01 7.858874e-01 7.411105e-01 7.006267e-01 6.599858e-01 6.246002e-01 5.905000e-01 5.625042e-01 5.375248e-01 5.191914e-01 5.055509e-01 4.984294e-01 4.970787e-01 5.011859e-01 5.112085e-01 5.249073e-01 5.439329e-01 5.647109e-01 5.899552e-01 6.153378e-01 6.443738e-01 6.723793e-01 7.033778e-01 7.325654e-01 7.642319e-01 7.935864e-01 8.250163e-01 8.538143e-01 8.843605e-01 
9.357890e-01 9.640130e-01 9.893906e-01 1.016082e+00 1.039800e+00 1.064591e+00 1.086290e+00 1.108839e+00 1.128167e+00 1.148144e+00 1.164756e+00 1.181831e+00 1.195383e+00 1.209231e+00 1.219387e+00 1.229692e+00 1.236135e+00 1.242601e+00 1.245044e+00 1.247413e+00 1.245620e+00 1.243683e+00 1.237486e+00 1.231106e+00 1.220425e+00 1.209556e+00 1.194418e+00 1.179118e+00 1.159676e+00 1.140131e+00 1.116685e+00 1.093226e+00 1.066247e+00 1.039374e+00 1.009535e+00 9.799524e-01 9.481699e-01 9.168351e-01 8.843275e-01 8.525236e-01 8.208867e-01 7.903099e-01 7.615872e-01 7.344224e-01 7.111096e-01 6.899973e-01 6.748452e-01 6.625774e-01 6.580443e-01 6.568808e-01 6.643124e-01 6.751707e-01 6.942221e-01 7.163513e-01 7.451641e-01 7.765678e-01 8.125126e-01 8.506880e-01 8.910668e-01 9.335452e-01 9.759492e-01 1.020523e+00 1.062918e+00 1.107674e+00 1.148366e+00 1.191649e+00 1.229224e+00 1.269593e+00 1.302871e+00 1.339068e+00 1.367074e+00 1.398013e+00 1.419963e+00 1.444728e+00 1.460027e+00 1.477879e+00 1.486123e+00 1.496514e+00 1.497493e+00 1.500080e+00 1.493778e+00 1.488438e+00 1.475036e+00 1.461873e+00 1.441739e+00 1.421095e+00 1.394774e+00 1.367221e+00 1.335425e+00 1.301756e+00 1.265345e+00 1.226557e+00 1.186524e+00 1.143794e+00 1.101252e+00 1.055920e+00 1.012099e+00 9.656508e-01 9.219089e-01 8.759868e-01 8.338282e-01 7.902521e-01 7.513628e-01 7.121535e-01 6.784143e-01 6.457667e-01 6.191753e-01 5.952747e-01 5.776655e-01 5.642395e-01 5.567614e-01 5.544609e-01 5.570636e-01 5.651115e-01 5.764987e-01 5.929870e-01 6.111358e-01 6.337417e-01 6.565534e-01 6.831355e-01 7.088256e-01 7.376765e-01 7.648750e-01 7.947266e-01 8.224241e-01 8.523561e-01 8.798093e-01 9.091459e-01 
9.631868e-01 9.905773e-01 1.015253e+00 1.041359e+00 1.064607e+00 1.089039e+00 1.110475e+00 1.132871e+00 1.152120e+00 1.172130e+00 1.188823e+00 1.206098e+00 1.219868e+00 1.234064e+00 1.244554e+00 1.255335e+00 1.262206e+00 1.269261e+00 1.272209e+00 1.275262e+00 1.274039e+00 1.272871e+00 1.267302e+00 1.261771e+00 1.251777e+00 1.241836e+00 1.227453e+00 1.213172e+00 1.194573e+00 1.176156e+00 1.153672e+00 1.131476e+00 1.105617e+00 1.080179e+00 1.051665e+00 1.023726e+00 9.935194e-01 9.640705e-01 9.334283e-01 9.037628e-01 8.742829e-01 8.460572e-01 8.197112e-01 7.949745e-01 7.740611e-01 7.551799e-01 7.421059e-01 7.314742e-01 7.282873e-01 7.277906e-01 7.355686e-01 7.460029e-01 7.644549e-01 7.852882e-01 8.128763e-01 8.425175e-01 8.769840e-01 9.133065e-01 9.522207e-01 9.930015e-01 1.034092e+00 1.077242e+00 1.118517e+00 1.162157e+00 1.201912e+00 1.244371e+00 1.281162e+00 1.320958e+00 1.353565e+00 1.389390e+00 1.416801e+00 1.447517e+00 1.468918e+00 1.493556e+00 1.508332e+00 1.526107e+00 1.533844e+00 1.544171e+00 1.544660e+00 1.547168e+00 1.540407e+00 1.534957e+00 1.521146e+00 1.507842e+00 1.487377e+00 1.466571e+00 1.440029e+00 1.412321e+00 1.380446e+00 1.346667e+00 1.310348e+00 1.271546e+00 1.231804e+00 1.189211e+00 1.147180e+00 1.102189e+00 1.059117e+00 1.013261e+00 9.705062e-01 9.254525e-01 8.844957e-01 8.420431e-01 8.044976e-01 7.665687e-01 7.341596e-01 7.027364e-01 6.771987e-01 6.541324e-01 6.369621e-01 6.236152e-01 6.156857e-01 6.125070e-01 6.137362e-01 6.200550e-01 6.293958e-01 6.436455e-01 6.594458e-01 6.796721e-01 7.001467e-01 7.244679e-01 7.480219e-01 7.748657e-01 8.002145e-01 8.283622e-01 8.545194e-01 8.830550e-01 9.092693e-01 9.375017e-01 
9.910993e-01 1.017498e+00 1.041341e+00 1.066699e+00 1.089368e+00 1.113278e+00 1.134369e+00 1.156453e+00 1.175573e+00 1.195463e+00 1.212225e+00 1.229555e+00 1.243573e+00 1.257982e+00 1.268880e+00 1.280019e+00 1.287441e+00 1.294983e+00 1.298611e+00 1.302269e+00 1.301843e+00 1.301392e+00 1.296732e+00 1.292027e+00 1.283053e+00 1.274053e+00 1.260810e+00 1.247597e+00 1.230273e+00 1.213072e+00 1.192022e+00 1.171216e+00 1.146981e+00 1.123134e+00 1.096465e+00 1.070347e+00 1.042236e+00 1.014849e+00 9.865597e-01 9.591785e-01 9.322732e-01 9.064760e-01 8.828120e-01 8.604763e-01 8.421274e-01 8.253337e-01 8.143736e-01 8.051531e-01 8.032763e-01 8.032046e-01 8.112814e-01 8.210668e-01 8.388673e-01 8.581705e-01 8.844412e-01 9.120320e-01 9.448615e-01 9.789754e-01 1.016210e+00 1.054889e+00 1.094425e+00 1.135735e+00 1.175659e+00 1.217789e+00 1.256418e+00 1.297709e+00 1.333591e+00 1.372545e+00 1.404441e+00 1.439714e+00 1.466588e+00 1.496998e+00 1.518016e+00 1.542546e+00 1.557073e+00 1.574887e+00 1.582493e+00 1.592954e+00 1.593415e+00 1.596101e+00 1.589401e+00 1.584126e+00 1.570454e+00 1.557284e+00 1.537026e+00 1.516292e+00 1.490021e+00 1.462319e+00 1.430779e+00 1.396964e+00 1.361052e+00 1.322211e+00 1.282964e+00 1.240386e+00 1.198961e+00 1.154104e+00 1.111767e+00 1.066223e+00 1.024342e+00 9.798100e-01 9.398518e-01 8.981185e-01 8.616320e-01 8.245330e-01 7.931082e-01 7.624419e-01 7.375971e-01 7.149454e-01 6.979167e-01 6.843643e-01 6.758254e-01 6.716708e-01 6.715186e-01 6.761608e-01 6.835288e-01 6.956461e-01 7.091659e-01 7.270905e-01 7.452399e-01 7.673150e-01 7.886803e-01 8.134687e-01 8.368649e-01 8.632121e-01 8.876956e-01 9.147060e-01 9.395357e-01 9.665157e-01 
1.022279e+00 1.047850e+00 1.071005e+00 1.095795e+00 1.118027e+00 1.141616e+00 1.162500e+00 1.184492e+00 1.203614e+00 1.223621e+00 1.240568e+00 1.258206e+00 1.272567e+00 1.287453e+00 1.298825e+00 1.310586e+00 1.318587e+00 1.326874e+00 1.331164e+00 1.335670e+00 1.335968e+00 1.336450e+00 1.332564e+00 1.328866e+00 1.320713e+00 1.312789e+00 1.300417e+00 1.288356e+00 1.271971e+00 1.256009e+00 1.235990e+00 1.216534e+00 1.193454e+00 1.171095e+00 1.145742e+00 1.121273e+00 1.094669e+00 1.069105e+00 1.042531e+00 1.017131e+00 9.921274e-01 9.684093e-01 9.467531e-01 9.264647e-01 9.100715e-01 8.950890e-01 8.858051e-01 8.779120e-01 8.771950e-01 8.777607e-01 8.863353e-01 8.960033e-01 9.136581e-01 9.322032e-01 9.578482e-01 9.842746e-01 1.016215e+00 1.049012e+00 1.085282e+00 1.122692e+00 1.161306e+00 1.201520e+00 1.240621e+00 1.281886e+00 1.319801e+00 1.360468e+00 1.395730e+00 1.434277e+00 1.465617e+00 1.500662e+00 1.527014e+00 1.557321e+00 1.577824e+00 1.602326e+00 1.616326e+00 1.634136e+00 1.641195e+00 1.651634e+00 1.651536e+00 1.654149e+00 1.646896e+00 1.641479e+00 1.627290e+00 1.613906e+00 1.593204e+00 1.572197e+00 1.545592e+00 1.517589e+00 1.485857e+00 1.451756e+00 1.415821e+00 1.376763e+00 1.337678e+00 1.295009e+00 1.253936e+00 1.209162e+00 1.167362e+00 1.122106e+00 1.080923e+00 1.036886e+00 9.977365e-01 9.566600e-01 9.210037e-01 8.846151e-01 8.539018e-01 8.238221e-01 7.993827e-01 7.769678e-01 7.598404e-01 7.459672e-01 7.366923e-01 7.315615e-01 7.300404e-01 7.331184e-01 7.386350e-01 7.487978e-01 7.602119e-01 7.760276e-01 7.920365e-01 8.120451e-01 8.313961e-01 8.542905e-01 8.758948e-01 9.005907e-01 9.235513e-01 9.491827e-01 9.727736e-01 9.986532e-01 
1.053927e+00 1.078515e+00 1.100855e+00 1.124916e+00 1.146602e+00 1.169704e+00 1.190298e+00 1.212031e+00 1.231102e+00 1.251064e+00 1.268180e+00 1.285970e+00 1.300699e+00 1.315915e+00 1.327834e+00 1.340085e+00 1.348791e+00 1.357711e+00 1.362842e+00 1.368107e+00 1.369369e+00 1.370724e+00 1.367912e+00 1.365195e+00 1.358220e+00 1.351386e+00 1.340302e+00 1.329446e+00 1.314467e+00 1.299841e+00 1.281363e+00 1.263393e+00 1.242012e+00 1.221308e+00 1.197831e+00 1.175198e+00 1.150659e+00 1.127105e+00 1.102773e+00 1.079518e+00 1.056881e+00 1.035350e+00 1.016076e+00 9.978627e-01 9.836874e-01 9.704501e-01 9.629913e-01 9.562743e-01 9.567720e-01 9.577585e-01 9.668147e-01 9.760968e-01 9.935281e-01 1.010992e+00 1.035869e+00 1.060745e+00 1.091591e+00 1.122626e+00 1.157676e+00 1.193334e+00 1.230750e+00 1.269377e+00 1.307387e+00 1.347321e+00 1.384295e+00 1.423928e+00 1.458409e+00 1.496222e+00 1.526940e+00 1.561532e+00 1.587412e+00 1.617516e+00 1.637683e+00 1.662186e+00 1.675976e+00 1.693943e+00 1.700906e+00 1.711595e+00 1.711502e+00 1.714394e+00 1.707232e+00 1.702061e+00 1.688029e+00 1.674802e+00 1.654305e+00 1.633329e+00 1.606959e+00 1.578849e+00 1.547374e+00 1.513045e+00 1.477387e+00 1.438028e+00 1.399247e+00 1.356269e+00 1.315540e+00 1.270521e+00 1.229120e+00 1.183742e+00 1.143017e+00 1.099013e+00 1.060359e+00 1.019453e+00 9.842735e-01 9.481147e-01 9.177548e-01 8.878225e-01 8.634676e-01 8.409354e-01 8.234696e-01 8.090451e-01 7.989035e-01 7.927007e-01 7.897806e-01 7.913014e-01 7.949937e-01 8.032536e-01 8.125934e-01 8.263427e-01 8.402097e-01 8.581548e-01 8.754444e-01 8.964000e-01 9.161240e-01 9.390815e-01 9.604018e-01 9.845352e-01 1.006755e+00 1.031393e+00 
1.088400e+00 1.112212e+00 1.133923e+00 1.157480e+00 1.178807e+00 1.201669e+00 1.222157e+00 1.243902e+00 1.263100e+00 1.283307e+00 1.300757e+00 1.319005e+00 1.334245e+00 1.350108e+00 1.362683e+00 1.375742e+00 1.385216e+00 1.395076e+00 1.401057e+00 1.407366e+00 1.409532e+00 1.412009e+00 1.410133e+00 1.408597e+00 1.402581e+00 1.396974e+00 1.386870e+00 1.377286e+00 1.363318e+00 1.350020e+00 1.332605e+00 1.316035e+00 1.295794e+00 1.276583e+00 1.254353e+00 1.233323e+00 1.210162e+00 1.188322e+00 1.165506e+00 1.144054e+00 1.123049e+00 1.103350e+00 1.085758e+00 1.069298e+00 1.056744e+00 1.045037e+00 1.038994e+00 1.033427e+00 1.034995e+00 1.036632e+00 1.046326e+00 1.055725e+00 1.073365e+00 1.090479e+00 1.115221e+00 1.139425e+00 1.169917e+00 1.200132e+00 1.234726e+00 1.269568e+00 1.306513e+00 1.344440e+00 1.382011e+00 1.421420e+00 1.458000e+00 1.497302e+00 1.531422e+00 1.569086e+00 1.599451e+00 1.634039e+00 1.659543e+00 1.689738e+00 1.709480e+00 1.734114e+00 1.747410e+00 1.765491e+00 1.771887e+00 1.782626e+00 1.781904e+00 1.784744e+00 1.776921e+00 1.771572e+00 1.756889e+00 1.743355e+00 1.722265e+00 1.700867e+00 1.674009e+00 1.645397e+00 1.613572e+00 1.578713e+00 1.542862e+00 1.503004e+00 1.464190e+00 1.420804e+00 1.380190e+00 1.334900e+00 1.293736e+00 1.248248e+00 1.207840e+00 1.163877e+00 1.125561e+00 1.084794e+00 1.049890e+00 1.013870e+00 9.836159e-01 9.536869e-01 9.291459e-01 9.063310e-01 8.882781e-01 8.731642e-01 8.619762e-01 8.546309e-01 8.502287e-01 8.502034e-01 8.520826e-01 8.585194e-01 8.658669e-01 8.776738e-01 8.895251e-01 9.055540e-01 9.209326e-01 9.401085e-01 9.581154e-01 9.795019e-01 9.993528e-01 1.022165e+00 1.043190e+00 1.066777e+00 
1.123304e+00 1.146186e+00 1.167142e+00 1.190032e+00 1.210890e+00 1.233342e+00 1.253639e+00 1.275221e+00 1.294489e+00 1.314768e+00 1.332531e+00 1.351067e+00 1.366840e+00 1.383188e+00 1.396491e+00 1.410210e+00 1.420581e+00 1.431252e+00 1.438273e+00 1.445524e+00 1.448849e+00 1.452379e+00 1.451764e+00 1.451378e+00 1.446713e+00 1.442347e+00 1.433680e+00 1.425429e+00 1.412989e+00 1.401125e+00 1.385337e+00 1.370316e+00 1.351815e+00 1.334281e+00 1.313916e+00 1.294693e+00 1.273524e+00 1.253608e+00 1.232892e+00 1.213433e+00 1.194590e+00 1.176866e+00 1.161405e+00 1.146772e+00 1.136187e+00 1.125998e+00 1.121608e+00 1.117084e+00 1.119848e+00 1.121934e+00 1.132289e+00 1.141511e+00 1.159287e+00 1.175669e+00 1.200113e+00 1.223184e+00 1.253082e+00 1.281948e+00 1.315793e+00 1.349250e+00 1.385403e+00 1.422047e+00 1.458862e+00 1.497188e+00 1.533091e+00 1.571562e+00 1.605107e+00 1.642213e+00 1.672113e+00 1.706410e+00 1.731561e+00 1.761712e+00 1.781213e+00 1.806013e+00 1.819179e+00 1.837585e+00 1.843958e+00 1.855113e+00 1.854463e+00 1.857733e+00 1.850057e+00 1.845063e+00 1.830573e+00 1.817236e+00 1.796353e+00 1.774932e+00 1.748260e+00 1.719380e+00 1.687695e+00 1.652339e+00 1.616569e+00 1.576040e+00 1.537248e+00 1.493103e+00 1.452465e+00 1.406420e+00 1.365201e+00 1.319040e+00 1.278561e+00 1.234047e+00 1.195636e+00 1.154435e+00 1.119380e+00 1.082985e+00 1.052456e+00 1.022105e+00 9.970745e-01 9.736641e-01 9.548173e-01 9.388217e-01 9.264776e-01 9.179058e-01 9.119879e-01 9.104077e-01 9.104800e-01 9.151168e-01 9.204809e-01 9.303625e-01 9.401828e-01 9.542829e-01 9.676993e-01 9.850448e-01 1.001249e+00 1.020977e+00 1.039247e+00 1.060622e+00 1.080325e+00 1.102722e+00 