# vtk DataFile Version 2.0
Comment goes here
ASCII

DATASET STRUCTURED_POINTS
FIELD FieldData 1
TIME 1 1 double
0.05000000
DIMENSIONS    128   128   1

ORIGIN    0.000   0.000   0.000
SPACING   0.039062 0.039062   1.000

POINT_DATA   16384
SCALARS uMag double
LOOKUP_TABLE default

5.044306e-01 5.339247e-01 5.678595e-01 5.950421e-01 6.269607e-01 6.517728e-01 6.815889e-01 7.039582e-01 7.315665e-01 7.514044e-01 7.766777e-01 7.938782e-01 8.166669e-01 8.311071e-01 8.512404e-01 8.627826e-01 8.800716e-01 8.885670e-01 9.028089e-01 9.081022e-01 9.190863e-01 9.210220e-01 9.285360e-01 9.269645e-01 9.308020e-01 9.255865e-01 9.255540e-01 9.165776e-01 9.125016e-01 8.996734e-01 8.914075e-01 8.746687e-01 8.620993e-01 8.414279e-01 8.244798e-01 7.998950e-01 7.785356e-01 7.501008e-01 7.243442e-01 6.921693e-01 6.620794e-01 6.263225e-01 5.920158e-01 5.528846e-01 5.145328e-01 4.722853e-01 4.301181e-01 3.850639e-01 3.393710e-01 2.918719e-01 2.430055e-01 1.934768e-01 1.418532e-01 9.076403e-02 3.686480e-02 1.526210e-02 7.088985e-02 1.234794e-01 1.802249e-01 2.326529e-01 2.898452e-01 3.414436e-01 3.983579e-01 4.484232e-01 5.042900e-01 5.520943e-01 6.061118e-01 6.509173e-01 7.022668e-01 7.433436e-01 7.912082e-01 8.278539e-01 8.714396e-01 9.030016e-01 9.415604e-01 9.674583e-01 1.000312e+00 1.020061e+00 1.046626e+00 1.059854e+00 1.079664e+00 1.086133e+00 1.098857e+00 1.098471e+00 1.103929e+00 1.096746e+00 1.094920e+00 1.081144e+00 1.072180e+00 1.052160e+00 1.036362e+00 1.010575e+00 9.883940e-01 9.574245e-01 9.294378e-01 8.939535e-01 8.608392e-01 8.215639e-01 7.840697e-01 7.417545e-01 7.006653e-01 6.560610e-01 6.121672e-01 5.659992e-01 5.200666e-01 4.730141e-01 4.257594e-01 3.784392e-01 3.305109e-01 2.834665e-01 2.354325e-01 1.891288e-01 1.414710e-01 9.629332e-02 4.940736e-02 5.665638e-03 4.013388e-02 8.219850e-02 1.266693e-01 1.668750e-01 2.098356e-01 2.480492e-01 2.893667e-01 3.254922e-01 3.650686e-01 3.990361e-01 4.367962e-01 4.685512e-01 
5.053788e-01 5.347399e-01 5.685064e-01 5.955851e-01 6.273632e-01 6.520923e-01 6.817890e-01 7.040913e-01 7.315975e-01 7.513817e-01 7.765681e-01 7.937265e-01 8.164427e-01 8.308513e-01 8.509262e-01 8.624467e-01 8.796917e-01 8.881748e-01 9.023875e-01 9.076779e-01 9.186484e-01 9.205904e-01 9.281072e-01 9.265512e-01 9.304089e-01 9.252184e-01 9.252243e-01 9.162827e-01 9.122645e-01 8.994815e-01 8.912936e-01 8.746114e-01 8.621414e-01 8.415398e-01 8.247137e-01 8.002143e-01 7.790014e-01 7.506716e-01 7.250888e-01 6.930447e-01 6.631612e-01 6.275709e-01 5.935125e-01 5.546008e-01 5.165577e-01 4.746137e-01 4.328542e-01 3.882514e-01 3.431555e-01 2.964106e-01 2.485887e-01 2.006104e-01 1.515327e-01 1.054546e-01 6.499619e-02 5.580444e-02 8.858495e-02 1.343695e-01 1.876004e-01 2.383169e-01 2.942038e-01 3.450392e-01 4.012725e-01 4.508942e-01 5.063489e-01 5.538526e-01 6.076045e-01 6.521858e-01 7.033624e-01 7.442622e-01 7.920184e-01 8.285205e-01 8.720453e-01 9.034908e-01 9.420247e-01 9.678306e-01 1.000687e+00 1.020367e+00 1.046955e+00 1.060138e+00 1.079985e+00 1.086433e+00 1.099203e+00 1.098820e+00 1.104330e+00 1.097171e+00 1.095400e+00 1.081670e+00 1.072760e+00 1.052806e+00 1.037062e+00 1.011357e+00 9.892289e-01 9.583560e-01 9.304235e-01 8.950490e-01 8.619926e-01 8.228402e-01 7.854122e-01 7.432348e-01 7.022274e-01 6.577813e-01 6.139954e-01 5.680172e-01 5.222365e-01 4.754269e-01 4.284004e-01 3.814204e-01 3.338648e-01 2.873614e-01 2.400219e-01 1.947685e-01 1.487712e-01 1.066023e-01 6.693340e-02 4.510849e-02 5.960391e-02 9.302464e-02 1.336844e-01 1.721058e-01 2.138280e-01 2.513134e-01 2.920091e-01 3.277381e-01 3.669282e-01 4.006430e-01 4.381306e-01 4.697081e-01 
5.107264e-01 5.397848e-01 5.732836e-01 6.001465e-01 6.317439e-01 6.563179e-01 6.858979e-01 7.080900e-01 7.355282e-01 7.552363e-01 7.803930e-01 7.975020e-01 8.202185e-01 8.345991e-01 8.546979e-01 8.662077e-01 8.834946e-01 8.919813e-01 9.062494e-01 9.115555e-01 9.225908e-01 9.245591e-01 9.321470e-01 9.306276e-01 9.345600e-01 9.294166e-01 9.294993e-01 9.206168e-01 9.166772e-01 9.039681e-01 8.958616e-01 8.792725e-01 8.668894e-01 8.464063e-01 8.296780e-01 8.053317e-01 7.842358e-01 7.561067e-01 7.306735e-01 6.988969e-01 6.692165e-01 6.339902e-01 6.002232e-01 5.618204e-01 5.242177e-01 4.830142e-01 4.419596e-01 3.985008e-01 3.546241e-01 3.098200e-01 2.643676e-01 2.202164e-01 1.766656e-01 1.398491e-01 1.126879e-01 1.086719e-01 1.289308e-01 1.645780e-01 2.105972e-01 2.573719e-01 3.101198e-01 3.591514e-01 4.137331e-01 4.623928e-01 5.168644e-01 5.638060e-01 6.169270e-01 6.611613e-01 7.119137e-01 7.525904e-01 8.000528e-01 8.364052e-01 8.797225e-01 9.110605e-01 9.494455e-01 9.751660e-01 1.007913e+00 1.027516e+00 1.054022e+00 1.067128e+00 1.086909e+00 1.093275e+00 1.105988e+00 1.105517e+00 1.110974e+00 1.103722e+00 1.101897e+00 1.088075e+00 1.079109e+00 1.059069e+00 1.043268e+00 1.017492e+00 9.953111e-01 9.643924e-01 9.364169e-01 9.010336e-01 8.679550e-01 8.288444e-01 7.914299e-01 7.493621e-01 7.084250e-01 6.641791e-01 6.205515e-01 5.748997e-01 5.294146e-01 4.831182e-01 4.366127e-01 3.904504e-01 3.438209e-01 2.987022e-01 2.531292e-01 2.105269e-01 1.684355e-01 1.324395e-01 1.026345e-01 8.964583e-02 9.722700e-02 1.204456e-01 1.537580e-01 1.880072e-01 2.266737e-01 2.622521e-01 3.013888e-01 3.360673e-01 3.743404e-01 4.074041e-01 4.443051e-01 4.754484e-01 
5.179071e-01 5.464134e-01 5.793214e-01 6.057692e-01 6.369119e-01 6.611694e-01 6.903972e-01 7.123474e-01 7.395148e-01 7.590405e-01 7.839938e-01 8.009696e-01 8.235408e-01 8.378301e-01 8.578349e-01 8.692903e-01 8.865298e-01 8.949954e-01 9.092592e-01 9.145748e-01 9.256465e-01 9.276537e-01 9.353172e-01 9.338655e-01 9.379121e-01 9.328661e-01 9.331022e-01 9.243490e-01 9.206033e-01 9.080593e-01 9.001903e-01 8.838084e-01 8.717113e-01 8.514868e-01 8.351003e-01 8.110777e-01 7.903910e-01 7.626707e-01 7.377319e-01 7.064789e-01 6.774073e-01 6.428651e-01 6.098696e-01 5.723853e-01 5.358019e-01 4.958788e-01 4.562508e-01 4.146711e-01 3.729497e-01 3.311015e-01 2.892266e-01 2.501037e-01 2.129070e-01 1.842659e-01 1.646306e-01 1.626933e-01 1.767737e-01 2.047905e-01 2.431948e-01 2.850066e-01 3.333072e-01 3.795659e-01 4.315070e-01 4.784916e-01 5.312913e-01 5.771342e-01 6.291500e-01 6.726147e-01 7.226231e-01 7.627328e-01 8.096974e-01 8.456162e-01 8.886110e-01 9.196089e-01 9.577991e-01 9.832494e-01 1.015895e+00 1.035284e+00 1.061755e+00 1.074695e+00 1.094486e+00 1.100729e+00 1.113481e+00 1.112929e+00 1.118438e+00 1.111148e+00 1.109380e+00 1.095561e+00 1.086652e+00 1.066660e+00 1.050913e+00 1.025234e+00 1.003107e+00 9.723392e-01 9.444278e-01 9.092567e-01 8.762679e-01 8.374428e-01 8.001673e-01 7.584772e-01 7.177615e-01 6.740164e-01 6.307415e-01 5.857641e-01 5.408385e-01 4.954785e-01 4.498673e-01 4.050661e-01 3.599060e-01 3.168978e-01 2.738638e-01 2.347997e-01 1.973085e-01 1.672689e-01 1.440096e-01 1.345814e-01 1.389295e-01 1.556132e-01 1.819927e-01 2.113621e-01 2.459145e-01 2.787540e-01 3.154694e-01 3.484974e-01 3.852160e-01 4.171980e-01 4.530246e-01 4.834121e-01 
5.292373e-01 5.570633e-01 5.893195e-01 6.152661e-01 6.459390e-01 6.698256e-01 6.987218e-01 7.204000e-01 7.473446e-01 7.666759e-01 7.914942e-01 8.083382e-01 8.308464e-01 8.450554e-01 8.650569e-01 8.764752e-01 8.937607e-01 9.022260e-01 9.165765e-01 9.219243e-01 9.331163e-01 9.351850e-01 9.429965e-01 9.416347e-01 9.458529e-01 9.409259e-01 9.413548e-01 9.327527e-01 9.292208e-01 9.168659e-01 9.092345e-01 8.930886e-01 8.812587e-01 8.613307e-01 8.452518e-01 8.216052e-01 8.012833e-01 7.740455e-01 7.495550e-01 7.189301e-01 6.904303e-01 6.567198e-01 6.244840e-01 5.881248e-01 5.525947e-01 5.142359e-01 4.761367e-01 4.368073e-01 3.974123e-01 3.589195e-01 3.207070e-01 2.866110e-01 2.548543e-01 2.324026e-01 2.173051e-01 2.169444e-01 2.279306e-01 2.513175e-01 2.837796e-01 3.212035e-01 3.650628e-01 4.084560e-01 4.574651e-01 5.026371e-01 5.534883e-01 5.981540e-01 6.488451e-01 6.915192e-01 7.406125e-01 7.801730e-01 8.265016e-01 8.620239e-01 9.045788e-01 9.352763e-01 9.731664e-01 9.983746e-01 1.030820e+00 1.050000e+00 1.076338e+00 1.089086e+00 1.108789e+00 1.114850e+00 1.127537e+00 1.126810e+00 1.132264e+00 1.124809e+00 1.122985e+00 1.109019e+00 1.100048e+00 1.079938e+00 1.064124e+00 1.038372e+00 1.016181e+00 9.854028e-01 9.574446e-01 9.223464e-01 8.893516e-01 8.507072e-01 8.134989e-01 7.721286e-01 7.315976e-01 6.883536e-01 6.454424e-01 6.012102e-01 5.569181e-01 5.126470e-01 4.680819e-01 4.248810e-01 3.814179e-01 3.408061e-01 3.005100e-01 2.650450e-01 2.317157e-01 2.063373e-01 1.871542e-01 1.795698e-01 1.821036e-01 1.947418e-01 2.158328e-01 2.408003e-01 2.712194e-01 3.010611e-01 3.350392e-01 3.661023e-01 4.009891e-01 4.316385e-01 4.661965e-01 4.956453e-01 
5.422369e-01 5.691746e-01 6.004902e-01 6.257590e-01 6.557060e-01 6.790725e-01 7.074102e-01 7.286913e-01 7.552133e-01 7.742470e-01 7.987566e-01 8.153858e-01 8.376834e-01 8.517486e-01 8.716258e-01 8.829624e-01 9.002007e-01 9.086400e-01 9.230137e-01 9.283867e-01 9.396667e-01 9.418092e-01 9.497700e-01 9.485296e-01 9.529565e-01 9.481999e-01 9.488965e-01 9.405176e-01 9.373145e-01 9.252424e-01 9.180050e-01 9.022122e-01 8.908495e-01 8.713604e-01 8.558336e-01 8.327340e-01 8.130675e-01 7.865163e-01 7.628122e-01 7.330582e-01 7.055183e-01 6.729281e-01 6.418921e-01 6.069987e-01 5.730137e-01 5.366115e-01 5.005700e-01 4.639040e-01 4.273315e-01 3.924877e-01 3.581405e-01 3.287903e-01 3.016970e-01 2.839306e-01 2.718050e-01 2.724676e-01 2.813068e-01 3.013858e-01 3.289259e-01 3.623431e-01 4.017329e-01 4.420129e-01 4.876988e-01 5.306553e-01 5.791411e-01 6.222269e-01 6.712477e-01 7.127664e-01 7.606879e-01 7.993780e-01 8.448990e-01 8.797473e-01 9.217648e-01 9.519281e-01 9.894829e-01 1.014261e+00 1.046520e+00 1.065351e+00 1.091612e+00 1.104079e+00 1.123778e+00 1.129618e+00 1.142345e+00 1.141457e+00 1.146972e+00 1.139415e+00 1.137655e+00 1.123652e+00 1.114738e+00 1.094660e+00 1.078893e+00 1.053251e+00 1.031104e+00 1.000523e+00 9.726212e-01 9.378215e-01 9.049221e-01 8.666970e-01 8.296613e-01 7.888591e-01 7.486300e-01 7.061451e-01 6.637355e-01 6.205173e-01 5.770242e-01 5.341194e-01 4.907901e-01 4.494537e-01 4.078586e-01 3.698019e-01 3.322222e-01 3.001092e-01 2.702397e-01 2.483342e-01 2.316973e-01 2.250714e-01 2.261859e-01 2.359411e-01 2.528339e-01 2.739677e-01 3.003884e-01 3.271535e-01 3.581085e-01 3.869472e-01 4.196299e-01 4.486751e-01 4.816050e-01 5.098726e-01 
5.589503e-01 5.849365e-01 6.153124e-01 6.398607e-01 6.691097e-01 6.919331e-01 7.197651e-01 7.406432e-01 7.668162e-01 7.855599e-01 8.098507e-01 8.262831e-01 8.484713e-01 8.624178e-01 8.822780e-01 8.935623e-01 9.108619e-01 9.193062e-01 9.338071e-01 9.392358e-01 9.506989e-01 9.529432e-01 9.611346e-01 9.600403e-01 9.647391e-01 9.601737e-01 9.611799e-01 9.530414e-01 9.501853e-01 9.384107e-01 9.315612e-01 9.161357e-01 9.052098e-01 8.861763e-01 8.711491e-01 8.486195e-01 8.295371e-01 8.037059e-01 7.807028e-01 7.518679e-01 7.251937e-01 6.937891e-01 6.638537e-01 6.305068e-01 5.979602e-01 5.635938e-01 5.294743e-01 4.954958e-01 4.615050e-01 4.301401e-01 3.991211e-01 3.738938e-01 3.504066e-01 3.363028e-01 3.262844e-01 3.280201e-01 3.356247e-01 3.537951e-01 3.778286e-01 4.083244e-01 4.440082e-01 4.817078e-01 5.243517e-01 5.653572e-01 6.115449e-01 6.532186e-01 7.005535e-01 7.410541e-01 7.877576e-01 8.257037e-01 8.703582e-01 9.046478e-01 9.460626e-01 9.757889e-01 1.012937e+00 1.037355e+00 1.069351e+00 1.087867e+00 1.113965e+00 1.126143e+00 1.145742e+00 1.151308e+00 1.163971e+00 1.162820e+00 1.168281e+00 1.160481e+00 1.158661e+00 1.144445e+00 1.135453e+00 1.115212e+00 1.099352e+00 1.073615e+00 1.051370e+00 1.020788e+00 9.928052e-01 9.581252e-01 9.251960e-01 8.872417e-01 8.502731e-01 8.099290e-01 7.699225e-01 7.281288e-01 6.861715e-01 6.439383e-01 6.012210e-01 5.596767e-01 5.175643e-01 4.780657e-01 4.382593e-01 4.026023e-01 3.674412e-01 3.381857e-01 3.110265e-01 2.916692e-01 2.766983e-01 2.706363e-01 2.706973e-01 2.783873e-01 2.921040e-01 3.101183e-01 3.330878e-01 3.570157e-01 3.850995e-01 4.117159e-01 4.421931e-01 4.695626e-01 5.008295e-01 5.278374e-01 
5.771283e-01 6.020040e-01 6.311933e-01 6.548729e-01 6.831905e-01 7.053378e-01 7.324482e-01 7.528068e-01 7.784347e-01 7.967892e-01 8.206865e-01 8.368403e-01 8.587674e-01 8.725311e-01 8.922474e-01 9.034334e-01 9.206943e-01 9.291163e-01 9.436738e-01 9.491499e-01 9.607572e-01 9.631151e-01 9.715326e-01 9.706166e-01 9.756198e-01 9.712992e-01 9.726874e-01 9.648648e-01 9.624699e-01 9.510913e-01 9.447873e-01 9.298516e-01 9.195644e-01 9.011344e-01 8.868534e-01 8.650678e-01 8.468601e-01 8.219504e-01 7.999807e-01 7.722939e-01 7.468555e-01 7.168908e-01 6.884548e-01 6.569236e-01 6.262234e-01 5.941504e-01 5.623252e-01 5.312151e-01 5.000462e-01 4.721304e-01 4.443749e-01 4.228543e-01 4.024775e-01 3.913314e-01 3.829161e-01 3.854689e-01 3.920596e-01 4.087072e-01 4.297575e-01 4.576430e-01 4.898420e-01 5.249498e-01 5.644776e-01 6.033176e-01 6.470047e-01 6.869696e-01 7.323983e-01 7.715662e-01 8.168652e-01 8.537642e-01 8.974193e-01 9.308738e-01 9.716104e-01 1.000659e+00 1.037381e+00 1.061241e+00 1.093001e+00 1.111055e+00 1.137057e+00 1.148853e+00 1.168452e+00 1.173708e+00 1.186426e+00 1.185038e+00 1.190577e+00 1.182615e+00 1.180869e+00 1.166573e+00 1.157638e+00 1.137407e+00 1.121578e+00 1.095954e+00 1.073721e+00 1.043366e+00 1.015400e+00 9.810746e-01 9.482002e-01 9.107497e-01 8.739227e-01 8.342584e-01 7.945424e-01 7.536421e-01 7.121991e-01 6.711236e-01 6.292316e-01 5.891714e-01 5.482875e-01 5.106578e-01 4.725500e-01 4.391448e-01 4.060912e-01 3.792492e-01 3.541741e-01 3.366873e-01 3.227477e-01 3.169278e-01 3.159775e-01 3.219605e-01 3.329830e-01 3.483013e-01 3.680994e-01 3.893440e-01 4.145475e-01 4.388974e-01 4.669987e-01 4.925605e-01 5.219294e-01 5.475186e-01 
5.984854e-01 6.222534e-01 6.503243e-01 6.731420e-01 7.006073e-01 7.220942e-01 7.485767e-01 7.684415e-01 7.936323e-01 8.116321e-01 8.352557e-01 8.511724e-01 8.729666e-01 8.865932e-01 9.062978e-01 9.174328e-01 9.347859e-01 9.432317e-01 9.579703e-01 9.635363e-01 9.754001e-01 9.779082e-01 9.866468e-01 9.859380e-01 9.913186e-01 9.872626e-01 9.890792e-01 9.815832e-01 9.796664e-01 9.686854e-01 9.629124e-01 9.484602e-01 9.387654e-01 9.209260e-01 9.073137e-01 8.862555e-01 8.688153e-01 8.448080e-01 8.237369e-01 7.971771e-01 7.728125e-01 7.442607e-01 7.171319e-01 6.873723e-01 6.582839e-01 6.284165e-01 5.985796e-01 5.701566e-01 5.413791e-01 5.165696e-01 4.914689e-01 4.731360e-01 4.551681e-01 4.465337e-01 4.393674e-01 4.428824e-01 4.488822e-01 4.647973e-01 4.837386e-01 5.099234e-01 5.394145e-01 5.726421e-01 6.095644e-01 6.467468e-01 6.882299e-01 7.268643e-01 7.705489e-01 8.086878e-01 8.526640e-01 8.887722e-01 9.314600e-01 9.642969e-01 1.004354e+00 1.032903e+00 1.069170e+00 1.092603e+00 1.124081e+00 1.141748e+00 1.167587e+00 1.179015e+00 1.198528e+00 1.203426e+00 1.216095e+00 1.214358e+00 1.219851e+00 1.211559e+00 1.209746e+00 1.195157e+00 1.186119e+00 1.165656e+00 1.149687e+00 1.123918e+00 1.101523e+00 1.071140e+00 1.043016e+00 1.008810e+00 9.758263e-01 9.386728e-01 9.018402e-01 8.626821e-01 8.231301e-01 7.829803e-01 7.419430e-01 7.019002e-01 6.607289e-01 6.220190e-01 5.822312e-01 5.462813e-01 5.096552e-01 4.781907e-01 4.468742e-01 4.219696e-01 3.984671e-01 3.823379e-01 3.690577e-01 3.633118e-01 3.615025e-01 3.661033e-01 3.749626e-01 3.880393e-01 4.051541e-01 4.240215e-01 4.466448e-01 4.688736e-01 4.947593e-01 5.185656e-01 5.461276e-01 5.703110e-01 
6.211185e-01 6.436624e-01 6.704045e-01 6.922392e-01 7.186398e-01 7.393495e-01 7.649983e-01 7.842615e-01 8.088215e-01 8.263711e-01 8.495435e-01 8.651417e-01 8.866448e-01 9.000688e-01 9.196261e-01 9.306617e-01 9.479971e-01 9.564367e-01 9.712752e-01 9.769210e-01 9.889926e-01 9.916616e-01 1.000708e+00 1.000240e+00 1.006024e+00 1.002289e+00 1.004603e+00 9.975142e-01 9.961886e-01 9.857114e-01 9.806288e-01 9.667919e-01 9.578957e-01 9.408045e-01 9.281129e-01 9.079640e-01 8.915863e-01 8.686862e-01 8.488462e-01 8.236359e-01 8.007057e-01 7.737982e-01 7.483495e-01 7.205836e-01 6.934654e-01 6.659835e-01 6.384336e-01 6.127811e-01 5.865663e-01 5.647802e-01 5.423095e-01 5.268856e-01 5.111247e-01 5.046487e-01 4.985591e-01 5.028615e-01 5.083448e-01 5.235915e-01 5.406541e-01 5.652326e-01 5.921763e-01 6.234896e-01 6.578180e-01 6.931723e-01 7.323563e-01 7.694028e-01 8.112061e-01 8.480191e-01 8.905406e-01 9.255542e-01 9.671752e-01 9.991056e-01 1.038429e+00 1.066219e+00 1.102027e+00 1.124818e+00 1.156053e+00 1.173173e+00 1.198932e+00 1.209895e+00 1.229437e+00 1.233947e+00 1.246707e+00 1.244661e+00 1.250263e+00 1.241749e+00 1.240028e+00 1.225314e+00 1.216325e+00 1.195845e+00 1.179874e+00 1.154207e+00 1.131764e+00 1.101613e+00 1.073420e+00 1.039588e+00 1.006555e+00 9.699297e-01 9.331254e-01 8.946671e-01 8.552868e-01 8.160312e-01 7.753792e-01 7.364501e-01 6.959413e-01 6.585820e-01 6.197720e-01 5.853942e-01 5.500339e-01 5.202631e-01 4.903362e-01 4.669858e-01 4.446135e-01 4.294433e-01 4.164752e-01 4.106225e-01 4.079111e-01 4.112494e-01 4.181361e-01 4.292003e-01 4.438138e-01 4.604559e-01 4.805496e-01 5.006920e-01 5.242887e-01 5.462895e-01 5.718920e-01 5.945731e-01 
6.463662e-01 6.677425e-01 6.932829e-01 7.141876e-01 7.396535e-01 7.596418e-01 7.845950e-01 8.033179e-01 8.273951e-01 8.445609e-01 8.674390e-01 8.827891e-01 9.041640e-01 9.174574e-01 9.370320e-01 9.480389e-01 9.655179e-01 9.740179e-01 9.891084e-01 9.948930e-01 1.007309e+00 1.010188e+00 1.019657e+00 1.019464e+00 1.025739e+00 1.022345e+00 1.025209e+00 1.018531e+00 1.017814e+00 1.007826e+00 1.003410e+00 9.901559e-01 9.819932e-01 9.656012e-01 9.537234e-01 9.344198e-01 9.189566e-01 8.970848e-01 8.782876e-01 8.543327e-01 8.326076e-01 8.072301e-01 7.831874e-01 7.572704e-01 7.317941e-01 7.065046e-01 6.808440e-01 6.576994e-01 6.335680e-01 6.144690e-01 5.940901e-01 5.812269e-01 5.671941e-01 5.626921e-01 5.574843e-01 5.627599e-01 5.679697e-01 5.831168e-01 5.988685e-01 6.225872e-01 6.476226e-01 6.777487e-01 7.100269e-01 7.441829e-01 7.814727e-01 8.174639e-01 8.576680e-01 8.936101e-01 9.348654e-01 9.691769e-01 1.009850e+00 1.041209e+00 1.079864e+00 1.107171e+00 1.142544e+00 1.164901e+00 1.195882e+00 1.212586e+00 1.238221e+00 1.248766e+00 1.268263e+00 1.272344e+00 1.285089e+00 1.282608e+00 1.288183e+00 1.279242e+00 1.277448e+00 1.262341e+00 1.253211e+00 1.232404e+00 1.216220e+00 1.190326e+00 1.167613e+00 1.137368e+00 1.108884e+00 1.075119e+00 1.041828e+00 1.005456e+00 9.684894e-01 9.304917e-01 8.911152e-01 8.525439e-01 8.121262e-01 7.741140e-01 7.341175e-01 6.978997e-01 6.598909e-01 6.268317e-01 5.925019e-01 5.641027e-01 5.352581e-01 5.130886e-01 4.915217e-01 4.769880e-01 4.641375e-01 4.580595e-01 4.545160e-01 4.567216e-01 4.619257e-01 4.712319e-01 4.836902e-01 4.983460e-01 5.162019e-01 5.344279e-01 5.559523e-01 5.762567e-01 6.000628e-01 6.213143e-01 
6.727497e-01 6.928725e-01 7.170271e-01 7.369024e-01 7.612364e-01 7.804002e-01 8.044585e-01 8.225409e-01 8.459409e-01 8.626305e-01 8.850307e-01 9.000510e-01 9.211298e-01 9.342247e-01 9.536686e-01 9.645951e-01 9.820939e-01 9.906207e-01 1.005868e+00 1.011778e+00 1.024476e+00 1.027574e+00 1.037442e+00 1.037559e+00 1.044341e+00 1.041349e+00 1.044827e+00 1.038648e+00 1.038650e+00 1.029268e+00 1.025682e+00 1.013157e+00 1.005941e+00 9.904211e-01 9.796192e-01 9.613583e-01 9.471157e-01 9.264892e-01 9.090762e-01 8.866051e-01 8.664495e-01 8.428288e-01 8.205609e-01 7.966980e-01 7.732098e-01 7.502675e-01 7.267845e-01 7.062163e-01 6.843590e-01 6.678990e-01 6.496819e-01 6.392210e-01 6.268938e-01 6.241662e-01 6.198162e-01 6.259200e-01 6.309099e-01 6.458916e-01 6.604437e-01 6.832482e-01 7.064630e-01 7.352842e-01 7.655260e-01 7.982799e-01 8.336198e-01 8.682815e-01 9.067932e-01 9.415485e-01 9.814402e-01 1.014720e+00 1.054369e+00 1.084836e+00 1.122785e+00 1.149318e+00 1.184262e+00 1.205940e+00 1.236721e+00 1.252826e+00 1.278437e+00 1.288455e+00 1.308045e+00 1.311672e+00 1.324571e+00 1.321715e+00 1.327450e+00 1.318227e+00 1.316550e+00 1.301268e+00 1.292179e+00 1.271317e+00 1.255078e+00 1.229260e+00 1.206400e+00 1.176366e+00 1.147670e+00 1.114254e+00 1.080735e+00 1.044850e+00 1.007704e+00 9.703329e-01 9.308975e-01 8.930961e-01 8.528051e-01 8.157079e-01 7.760682e-01 7.408975e-01 7.034782e-01 6.715493e-01 6.379741e-01 6.106734e-01 5.825794e-01 5.612735e-01 5.401765e-01 5.260046e-01 5.130301e-01 5.065939e-01 5.021445e-01 5.032490e-01 5.068321e-01 5.144982e-01 5.248918e-01 5.376683e-01 5.533226e-01 5.696804e-01 5.890902e-01 6.076850e-01 6.295845e-01 6.493480e-01 
7.011888e-01 7.201518e-01 7.430931e-01 7.620305e-01 7.854083e-01 8.038414e-01 8.271874e-01 8.447271e-01 8.676414e-01 8.839563e-01 9.060780e-01 9.208724e-01 9.418594e-01 9.548592e-01 9.743774e-01 9.853231e-01 1.003042e+00 1.011687e+00 1.027280e+00 1.033396e+00 1.046546e+00 1.049927e+00 1.060334e+00 1.060806e+00 1.068203e+00 1.065634e+00 1.069791e+00 1.064106e+00 1.064845e+00 1.056036e+00 1.053247e+00 1.041388e+00 1.035034e+00 1.020296e+00 1.010431e+00 9.930952e-01 9.798815e-01 9.603580e-01 9.440871e-01 9.229332e-01 9.040556e-01 8.820003e-01 8.611661e-01 8.391379e-01 8.172466e-01 7.964006e-01 7.746551e-01 7.563838e-01 7.363251e-01 7.222216e-01 7.057003e-01 6.974227e-01 6.864382e-01 6.854375e-01 6.818053e-01 6.889564e-01 6.938779e-01 7.091824e-01 7.229297e-01 7.454819e-01 7.673861e-01 7.956220e-01 8.243341e-01 8.563867e-01 8.902154e-01 9.241982e-01 9.613684e-01 9.955293e-01 1.034324e+00 1.067104e+00 1.105922e+00 1.135964e+00 1.173338e+00 1.199487e+00 1.234080e+00 1.255384e+00 1.285994e+00 1.301704e+00 1.327273e+00 1.336855e+00 1.356477e+00 1.359621e+00 1.372568e+00 1.369191e+00 1.374935e+00 1.365175e+00 1.363422e+00 1.347623e+00 1.338342e+00 1.317026e+00 1.300470e+00 1.274302e+00 1.251017e+00 1.220774e+00 1.191590e+00 1.158132e+00 1.124126e+00 1.088380e+00 1.050826e+00 1.013780e+00 9.740889e-01 9.367956e-01 8.964611e-01 8.600384e-01 8.205955e-01 7.862301e-01 7.492281e-01 7.181654e-01 6.851416e-01 6.586462e-01 6.310712e-01 6.103303e-01 5.894853e-01 5.754320e-01 5.622050e-01 5.552909e-01 5.499552e-01 5.499832e-01 5.521017e-01 5.582507e-01 5.668070e-01 5.778588e-01 5.915476e-01 6.061809e-01 6.236911e-01 6.406974e-01 6.608819e-01 6.792603e-01 
7.306796e-01 7.484166e-01 7.699760e-01 7.878917e-01 8.101251e-01 8.277347e-01 8.501711e-01 8.670735e-01 8.893036e-01 9.051531e-01 9.268032e-01 9.412889e-01 9.620029e-01 9.748362e-01 9.942646e-01 1.005173e+00 1.022970e+00 1.031696e+00 1.047520e+00 1.053826e+00 1.067345e+00 1.071018e+00 1.081925e+00 1.082787e+00 1.090802e+00 1.088723e+00 1.093614e+00 1.088522e+00 1.090109e+00 1.082006e+00 1.080180e+00 1.069153e+00 1.063884e+00 1.050124e+00 1.041473e+00 1.025285e+00 1.013425e+00 9.952454e-01 9.804778e-01 9.608890e-01 9.436719e-01 9.234223e-01 9.044060e-01 8.844257e-01 8.644930e-01 8.459057e-01 8.262099e-01 8.103236e-01 7.923029e-01 7.805554e-01 7.658871e-01 7.597122e-01 7.501623e-01 7.507615e-01 7.479138e-01 7.559781e-01 7.609052e-01 7.764027e-01 7.894237e-01 8.115746e-01 8.322225e-01 8.596728e-01 8.868624e-01 9.179478e-01 9.502250e-01 9.832040e-01 1.018963e+00 1.052164e+00 1.089787e+00 1.121684e+00 1.159613e+00 1.188855e+00 1.225627e+00 1.251050e+00 1.285309e+00 1.305946e+00 1.336454e+00 1.351550e+00 1.377195e+00 1.386214e+00 1.406033e+00 1.408672e+00 1.421869e+00 1.418058e+00 1.424039e+00 1.413937e+00 1.412343e+00 1.396315e+00 1.387062e+00 1.365647e+00 1.348957e+00 1.322826e+00 1.299245e+00 1.269170e+00 1.239559e+00 1.206384e+00 1.171879e+00 1.136514e+00 1.098467e+00 1.061884e+00 1.021789e+00 9.850271e-01 9.444439e-01 9.086109e-01 8.691117e-01 8.353725e-01 7.984952e-01 7.680474e-01 7.352550e-01 7.092738e-01 6.818942e-01 6.614337e-01 6.405551e-01 6.263987e-01 6.127207e-01 6.052147e-01 5.989061e-01 5.978530e-01 5.985094e-01 6.032025e-01 6.099553e-01 6.193533e-01 6.310876e-01 6.440386e-01 6.596102e-01 6.750286e-01 6.934057e-01 7.103613e-01 
7.616780e-01 7.783062e-01 7.986885e-01 8.157046e-01 8.370080e-01 8.539225e-01 8.756747e-01 8.920742e-01 9.138567e-01 9.293795e-01 9.508044e-01 9.651222e-01 9.858155e-01 9.986222e-01 1.018214e+00 1.029220e+00 1.047342e+00 1.056273e+00 1.072561e+00 1.079164e+00 1.093266e+00 1.097316e+00 1.108899e+00 1.110209e+00 1.118979e+00 1.117413e+00 1.123121e+00 1.118608e+00 1.121067e+00 1.113615e+00 1.112712e+00 1.102422e+00 1.098130e+00 1.085211e+00 1.077601e+00 1.062385e+00 1.051642e+00 1.034595e+00 1.021035e+00 1.002774e+00 9.868678e-01 9.681639e-01 9.505695e-01 9.323614e-01 9.139523e-01 8.973417e-01 8.792349e-01 8.654628e-01 8.490186e-01 8.394013e-01 8.261688e-01 8.219699e-01 8.135486e-01 8.157869e-01 8.135983e-01 8.228299e-01 8.278544e-01 8.440144e-01 8.565948e-01 8.789794e-01 8.987800e-01 9.261740e-01 9.522934e-01 9.831748e-01 1.014336e+00 1.047068e+00 1.081800e+00 1.114769e+00 1.151538e+00 1.183234e+00 1.220526e+00 1.249583e+00 1.285943e+00 1.311169e+00 1.345225e+00 1.365621e+00 1.396097e+00 1.410876e+00 1.436614e+00 1.445218e+00 1.465191e+00 1.467312e+00 1.480657e+00 1.476238e+00 1.482291e+00 1.471524e+00 1.469863e+00 1.453163e+00 1.443657e+00 1.421619e+00 1.404474e+00 1.377826e+00 1.353608e+00 1.323159e+00 1.292783e+00 1.259400e+00 1.224088e+00 1.188679e+00 1.149879e+00 1.113402e+00 1.072694e+00 1.036166e+00 9.951696e-01 9.596654e-01 9.199694e-01 8.866081e-01 8.497152e-01 8.196276e-01 7.869091e-01 7.611764e-01 7.338185e-01 7.133775e-01 6.923012e-01 6.778211e-01 6.635799e-01 6.553385e-01 6.480318e-01 6.458472e-01 6.451075e-01 6.483738e-01 6.534575e-01 6.612800e-01 6.712319e-01 6.826020e-01 6.964226e-01 7.103626e-01 7.271257e-01 7.427718e-01 
7.936930e-01 8.091589e-01 8.282029e-01 8.442466e-01 8.644349e-01 8.805692e-01 9.014375e-01 9.172436e-01 9.383724e-01 9.534784e-01 9.744726e-01 9.885377e-01 1.009012e+00 1.021717e+00 1.041288e+00 1.052329e+00 1.070612e+00 1.079704e+00 1.096319e+00 1.103198e+00 1.117777e+00 1.122209e+00 1.134407e+00 1.136203e+00 1.145713e+00 1.144735e+00 1.151303e+00 1.147483e+00 1.150919e+00 1.144271e+00 1.144464e+00 1.135101e+00 1.132026e+00 1.120175e+00 1.113906e+00 1.099918e+00 1.090644e+00 1.075008e+00 1.063047e+00 1.046394e+00 1.032213e+00 1.015324e+00 9.995656e-01 9.833677e-01 9.668755e-01 9.524278e-01 9.362611e-01 9.247208e-01 9.101459e-01 9.026985e-01 8.911316e-01 8.888752e-01 8.817575e-01 8.855436e-01 8.841522e-01 8.944188e-01 8.996558e-01 9.163103e-01 9.285427e-01 9.509475e-01 9.699607e-01 9.970266e-01 1.022094e+00 1.052435e+00 1.082458e+00 1.114550e+00 1.148205e+00 1.180506e+00 1.216366e+00 1.247402e+00 1.284013e+00 1.312433e+00 1.348366e+00 1.372977e+00 1.406856e+00 1.426652e+00 1.457179e+00 1.471369e+00 1.497338e+00 1.505370e+00 1.525694e+00 1.527273e+00 1.541012e+00 1.536107e+00 1.542511e+00 1.531344e+00 1.529904e+00 1.512919e+00 1.503430e+00 1.481244e+00 1.463861e+00 1.437200e+00 1.412479e+00 1.382134e+00 1.351028e+00 1.317824e+00 1.281632e+00 1.246434e+00 1.206706e+00 1.170437e+00 1.128855e+00 1.092509e+00 1.050775e+00 1.015418e+00 9.751609e-01 9.419036e-01 9.046156e-01 8.745667e-01 8.415524e-01 8.157449e-01 7.880763e-01 7.673745e-01 7.458341e-01 7.308290e-01 7.158458e-01 7.067643e-01 6.983706e-01 6.950366e-01 6.928785e-01 6.947540e-01 6.981731e-01 7.044713e-01 7.126337e-01 7.224589e-01 7.344859e-01 7.469536e-01 7.620163e-01 7.763267e-01 
8.266659e-01 8.411005e-01 8.590339e-01 8.742513e-01 8.935723e-01 9.090859e-01 9.293366e-01 9.447194e-01 9.654776e-01 9.803445e-01 1.001205e+00 1.015199e+00 1.035762e+00 1.048545e+00 1.068406e+00 1.079656e+00 1.098407e+00 1.107821e+00 1.125054e+00 1.132350e+00 1.147671e+00 1.152599e+00 1.165637e+00 1.167994e+00 1.178418e+00 1.178059e+00 1.185596e+00 1.182447e+00 1.186896e+00 1.180975e+00 1.182217e+00 1.173648e+00 1.171659e+00 1.160686e+00 1.155548e+00 1.142547e+00 1.134457e+00 1.119947e+00 1.109234e+00 1.093878e+00 1.081017e+00 1.065618e+00 1.051251e+00 1.036740e+00 1.021695e+00 1.009108e+00 9.944073e-01 9.848435e-01 9.716868e-01 9.662330e-01 9.559420e-01 9.555712e-01 9.494756e-01 9.549142e-01 9.541900e-01 9.657858e-01 9.712790e-01 9.889122e-01 1.001003e+00 1.024075e+00 1.042628e+00 1.070131e+00 1.094541e+00 1.125180e+00 1.154478e+00 1.186798e+00 1.219772e+00 1.252275e+00 1.287579e+00 1.318800e+00 1.355029e+00 1.383599e+00 1.419346e+00 1.444040e+00 1.477925e+00 1.497697e+00 1.528393e+00 1.542414e+00 1.568667e+00 1.576356e+00 1.597013e+00 1.598066e+00 1.612104e+00 1.606505e+00 1.613084e+00 1.601101e+00 1.599624e+00 1.581771e+00 1.571963e+00 1.548939e+00 1.530925e+00 1.503528e+00 1.477885e+00 1.446951e+00 1.414708e+00 1.381072e+00 1.343643e+00 1.308151e+00 1.267214e+00 1.230750e+00 1.188095e+00 1.151613e+00 1.109008e+00 1.073534e+00 1.032619e+00 9.992237e-01 9.614468e-01 9.311931e-01 8.977690e-01 8.716330e-01 8.435145e-01 8.222971e-01 8.001443e-01 7.843816e-01 7.685297e-01 7.584246e-01 7.488680e-01 7.442682e-01 7.406823e-01 7.411200e-01 7.429304e-01 7.477160e-01 7.541988e-01 7.625354e-01 7.729194e-01 7.840033e-01 7.975466e-01 8.106337e-01 