# vtk DataFile Version 2.0
Comment goes here
ASCII

DATASET STRUCTURED_POINTS
FIELD FieldData 1
TIME 1 1 double
0.00500000
DIMENSIONS    128   128   1

ORIGIN    0.000   0.000   0.000
SPACING   0.039062 0.039062   1.000

POINT_DATA   16384
SCALARS uMag double
LOOKUP_TABLE default

7.465379e-02 8.302568e-02 8.549674e-02 9.306869e-02 9.620138e-02 1.028825e-01 1.066513e-01 1.123543e-01 1.167131e-01 1.213546e-01 1.262357e-01 1.297367e-01 1.350497e-01 1.373361e-01 1.429680e-01 1.439708e-01 1.497865e-01 1.494431e-01 1.552869e-01 1.535418e-01 1.592404e-01 1.560474e-01 1.614141e-01 1.567381e-01 1.615796e-01 1.554002e-01 1.595240e-01 1.518391e-01 1.550639e-01 1.458944e-01 1.480609e-01 1.374556e-01 1.384382e-01 1.264787e-01 1.261970e-01 1.130015e-01 1.114296e-01 9.715555e-02 9.432888e-02 7.917311e-02 7.519081e-02 5.938693e-02 5.440946e-02 3.822199e-02 3.246355e-02 1.617901e-02 9.895014e-03 6.189470e-03 1.271877e-02 2.830858e-02 3.479685e-02 4.961340e-02 5.578747e-02 6.958088e-02 7.519856e-02 8.775827e-02 9.262304e-02 1.037854e-01 1.077565e-01 1.174086e-01 1.204062e-01 1.284860e-01 1.304908e-01 1.369842e-01 1.380324e-01 1.429667e-01 1.431419e-01 1.465779e-01 1.459998e-01 1.480231e-01 1.468360e-01 1.475480e-01 1.459087e-01 1.454184e-01 1.434859e-01 1.419030e-01 1.398297e-01 1.372592e-01 1.351844e-01 1.317227e-01 1.297681e-01 1.255005e-01 1.237672e-01 1.187671e-01 1.173352e-01 1.116635e-01 1.105922e-01 1.042985e-01 1.036270e-01 9.675098e-02 9.650010e-02 8.907362e-02 8.924752e-02 8.129675e-02 8.188454e-02 7.343271e-02 7.441000e-02 6.548007e-02 6.681026e-02 5.742752e-02 5.906298e-02 4.925753e-02 5.114072e-02 4.094944e-02 4.301407e-02 3.248216e-02 3.465450e-02 2.383633e-02 2.603667e-02 1.499607e-02 1.714048e-02 5.950319e-03 7.952577e-03 3.306100e-03 1.532420e-03 1.277165e-02 1.131097e-02 2.243740e-02 2.136990e-02 3.228631e-02 3.168573e-02 4.229260e-02 4.222413e-02 5.242103e-02 5.293922e-02 6.262598e-02 6.377285e-02 7.285059e-02 
5.676374e-02 6.765282e-02 6.649179e-02 7.687945e-02 7.616413e-02 8.595322e-02 8.567841e-02 9.477398e-02 9.491915e-02 1.032275e-01 1.037564e-01 1.111846e-01 1.120452e-01 1.185003e-01 1.196247e-01 1.250141e-01 1.263195e-01 1.305503e-01 1.319404e-01 1.349207e-01 1.362879e-01 1.379277e-01 1.391565e-01 1.393702e-01 1.403419e-01 1.390515e-01 1.396506e-01 1.367901e-01 1.369111e-01 1.324323e-01 1.319884e-01 1.258672e-01 1.247987e-01 1.170425e-01 1.153251e-01 1.059797e-01 1.036314e-01 9.278808e-02 8.987383e-02 7.767739e-02 7.431103e-02 6.097353e-02 5.731909e-02 4.316698e-02 3.945034e-02 2.519561e-02 2.183297e-02 1.167448e-02 1.107336e-02 1.993578e-02 2.224129e-02 3.700569e-02 3.897940e-02 5.415579e-02 5.533387e-02 7.011236e-02 7.033025e-02 8.436864e-02 8.355447e-02 9.663339e-02 9.478205e-02 1.067494e-01 1.039135e-01 1.146687e-01 1.109499e-01 1.204357e-01 1.159746e-01 1.241695e-01 1.191335e-01 1.260444e-01 1.206164e-01 1.262712e-01 1.206378e-01 1.250784e-01 1.194203e-01 1.226967e-01 1.171810e-01 1.193461e-01 1.141209e-01 1.152267e-01 1.104174e-01 1.105126e-01 1.062207e-01 1.053489e-01 1.016518e-01 9.985094e-02 9.680314e-02 9.410545e-02 9.174054e-02 8.817333e-02 8.650596e-02 8.209290e-02 8.112101e-02 7.588376e-02 7.559064e-02 6.955086e-02 6.990684e-02 6.308838e-02 6.405231e-02 5.648353e-02 5.800393e-02 4.972007e-02 5.173608e-02 4.278170e-02 4.522385e-02 3.565595e-02 3.844651e-02 2.834025e-02 3.139221e-02 2.085720e-02 2.406787e-02 1.331927e-02 1.653269e-02 6.457057e-03 9.102022e-03 6.303545e-03 4.875829e-03 1.353875e-02 1.059057e-02 2.198797e-02 1.906118e-02 3.082133e-02 2.812381e-02 3.987809e-02 3.749677e-02 4.907975e-02 4.707104e-02 5.836075e-02 
7.525321e-02 8.366374e-02 8.606523e-02 9.368720e-02 9.675772e-02 1.034942e-01 1.072109e-01 1.129705e-01 1.172895e-01 1.219858e-01 1.268412e-01 1.303931e-01 1.356960e-01 1.380276e-01 1.436664e-01 1.447077e-01 1.505480e-01 1.502355e-01 1.561219e-01 1.543999e-01 1.601587e-01 1.569810e-01 1.624247e-01 1.577569e-01 1.626905e-01 1.565133e-01 1.607424e-01 1.530558e-01 1.563969e-01 1.472249e-01 1.495169e-01 1.389136e-01 1.400302e-01 1.280854e-01 1.279478e-01 1.147939e-01 1.133825e-01 9.920317e-02 9.656856e-02 8.161376e-02 7.789118e-02 6.252200e-02 5.796704e-02 4.283960e-02 3.799554e-02 2.515871e-02 2.198497e-02 2.031004e-02 2.343448e-02 3.441678e-02 4.007037e-02 5.345920e-02 5.930918e-02 7.247467e-02 7.791393e-02 9.013968e-02 9.487698e-02 1.058396e-01 1.097013e-01 1.192223e-01 1.221158e-01 1.301018e-01 1.320035e-01 1.384233e-01 1.393693e-01 1.442407e-01 1.443164e-01 1.476948e-01 1.470228e-01 1.489907e-01 1.477180e-01 1.483752e-01 1.466613e-01 1.461164e-01 1.441223e-01 1.424848e-01 1.403644e-01 1.377397e-01 1.356328e-01 1.321178e-01 1.301460e-01 1.258264e-01 1.240906e-01 1.190402e-01 1.176197e-01 1.118996e-01 1.108527e-01 1.045128e-01 1.038777e-01 9.695773e-02 9.675472e-02 8.928640e-02 8.951895e-02 8.152874e-02 8.218554e-02 7.369737e-02 7.475370e-02 6.579223e-02 6.721117e-02 5.780538e-02 5.953875e-02 4.972612e-02 5.171527e-02 4.154761e-02 4.372379e-02 3.327831e-02 3.556193e-02 2.497109e-02 2.726617e-02 1.683252e-02 1.899579e-02 9.849054e-03 1.147001e-02 8.706821e-03 8.474738e-03 1.521430e-02 1.409240e-02 2.399066e-02 2.299389e-02 3.344597e-02 3.283020e-02 4.323724e-02 4.311761e-02 5.323436e-02 5.368517e-02 6.335456e-02 6.442784e-02 7.352370e-02 
5.854696e-02 6.944965e-02 6.806362e-02 7.852074e-02 7.758854e-02 8.747756e-02 8.700260e-02 9.621237e-02 9.618071e-02 1.046069e-01 1.049877e-01 1.125304e-01 1.132759e-01 1.198380e-01 1.208841e-01 1.263707e-01 1.276374e-01 1.319556e-01 1.333484e-01 1.364080e-01 1.378202e-01 1.395347e-01 1.408503e-01 1.411398e-01 1.422386e-01 1.410328e-01 1.417962e-01 1.390397e-01 1.393585e-01 1.350170e-01 1.347996e-01 1.288682e-01 1.280504e-01 1.205632e-01 1.191176e-01 1.101606e-01 1.081050e-01 9.783488e-02 9.524011e-02 8.391719e-02 8.091578e-02 6.897748e-02 6.577932e-02 5.403311e-02 5.097077e-02 4.112517e-02 3.877292e-02 3.432497e-02 3.347284e-02 3.757226e-02 3.810261e-02 4.842458e-02 4.925734e-02 6.213460e-02 6.253998e-02 7.608509e-02 7.571837e-02 8.905776e-02 8.776591e-02 1.004360e-01 9.817662e-02 1.099023e-01 1.067104e-01 1.173224e-01 1.132921e-01 1.226919e-01 1.179605e-01 1.261004e-01 1.208347e-01 1.277045e-01 1.220872e-01 1.277039e-01 1.219212e-01 1.263204e-01 1.205521e-01 1.237802e-01 1.181919e-01 1.203008e-01 1.150380e-01 1.160805e-01 1.112656e-01 1.112918e-01 1.070231e-01 1.060788e-01 1.024302e-01 1.005557e-01 9.757851e-02 9.480843e-02 9.253326e-02 8.889741e-02 8.733616e-02 8.286085e-02 8.200902e-02 7.671913e-02 7.655760e-02 7.047928e-02 7.097572e-02 6.413975e-02 6.524945e-02 5.769542e-02 5.936163e-02 5.114347e-02 5.329688e-02 4.449121e-02 4.704806e-02 3.776915e-02 4.062626e-02 3.105817e-02 3.407991e-02 2.455713e-02 2.753928e-02 1.877065e-02 2.133727e-02 1.496137e-02 1.634951e-02 1.514552e-02 1.451102e-02 1.951149e-02 1.735658e-02 2.624516e-02 2.355454e-02 3.410799e-02 3.138619e-02 4.256523e-02 4.004055e-02 5.136671e-02 4.915955e-02 6.036505e-02 
7.703390e-02 8.556237e-02 8.775915e-02 9.553223e-02 9.841884e-02 1.053224e-01 1.088843e-01 1.148147e-01 1.190150e-01 1.238769e-01 1.286556e-01 1.323612e-01 1.376345e-01 1.401031e-01 1.457629e-01 1.469209e-01 1.528355e-01 1.526173e-01 1.586321e-01 1.569810e-01 1.629214e-01 1.597915e-01 1.654673e-01 1.608257e-01 1.660370e-01 1.598681e-01 1.644143e-01 1.567237e-01 1.604144e-01 1.512355e-01 1.539031e-01 1.433044e-01 1.448193e-01 1.329140e-01 1.332000e-01 1.201588e-01 1.192106e-01 1.052834e-01 1.031872e-01 8.874762e-02 8.571510e-02 7.137321e-02 6.782052e-02 5.474499e-02 5.150970e-02 4.225793e-02 4.099034e-02 3.968269e-02 4.186283e-02 4.872572e-02 5.321365e-02 6.393659e-02 6.910449e-02 8.078859e-02 8.578620e-02 9.714180e-02 1.015360e-01 1.119496e-01 1.155020e-01 1.246504e-01 1.272410e-01 1.349534e-01 1.365500e-01 1.427513e-01 1.433919e-01 1.480742e-01 1.478510e-01 1.510547e-01 1.500996e-01 1.518987e-01 1.503681e-01 1.508584e-01 1.489199e-01 1.482081e-01 1.460291e-01 1.442251e-01 1.419634e-01 1.391736e-01 1.369708e-01 1.332935e-01 1.312711e-01 1.267937e-01 1.250511e-01 1.198484e-01 1.184626e-01 1.125967e-01 1.116233e-01 1.051444e-01 1.046189e-01 9.756682e-02 9.750698e-02 8.991347e-02 9.032097e-02 8.221291e-02 8.307502e-02 7.447820e-02 7.576904e-02 6.671283e-02 6.839418e-02 5.891762e-02 6.093913e-02 5.109963e-02 5.339841e-02 4.328645e-02 4.578506e-02 3.555452e-02 3.815499e-02 2.809753e-02 3.066300e-02 2.141525e-02 2.371269e-02 1.678982e-02 1.835686e-02 1.645410e-02 1.675804e-02 2.090579e-02 2.028022e-02 2.815330e-02 2.730751e-02 3.671849e-02 3.605968e-02 4.596741e-02 4.570537e-02 5.561562e-02 5.587443e-02 6.550429e-02 6.636465e-02 7.551979e-02 
6.200267e-02 7.295906e-02 7.114587e-02 8.175383e-02 8.040448e-02 9.049948e-02 8.963546e-02 9.907769e-02 9.869936e-02 1.073648e-01 1.074529e-01 1.152281e-01 1.157448e-01 1.225243e-01 1.234134e-01 1.290979e-01 1.302858e-01 1.347819e-01 1.361783e-01 1.393992e-01 1.408993e-01 1.427655e-01 1.442529e-01 1.446954e-01 1.460464e-01 1.450105e-01 1.461001e-01 1.435509e-01 1.442607e-01 1.401903e-01 1.404179e-01 1.348556e-01 1.345250e-01 1.275500e-01 1.266222e-01 1.183820e-01 1.168660e-01 1.076038e-01 1.055658e-01 9.566586e-02 9.323868e-02 8.330598e-02 8.069828e-02 7.169031e-02 6.919365e-02 6.256362e-02 6.052827e-02 5.805980e-02 5.674786e-02 5.953689e-02 5.885984e-02 6.628166e-02 6.580355e-02 7.618739e-02 7.543252e-02 8.725324e-02 8.588544e-02 9.810658e-02 9.593906e-02 1.079031e-01 1.048669e-01 1.161553e-01 1.122711e-01 1.226161e-01 1.179720e-01 1.272077e-01 1.219402e-01 1.299723e-01 1.242493e-01 1.310362e-01 1.250415e-01 1.305795e-01 1.244996e-01 1.288116e-01 1.228247e-01 1.259512e-01 1.202193e-01 1.222106e-01 1.168741e-01 1.177845e-01 1.129596e-01 1.128428e-01 1.086208e-01 1.075273e-01 1.039751e-01 1.019500e-01 9.911223e-02 9.619507e-02 9.409612e-02 9.032143e-02 8.896778e-02 8.436673e-02 8.374898e-02 7.835216e-02 7.844644e-02 7.228781e-02 7.305649e-02 6.617860e-02 6.757010e-02 6.003115e-02 6.197868e-02 5.386242e-02 5.628121e-02 4.771189e-02 5.049402e-02 4.166141e-02 4.466602e-02 3.587033e-02 3.890504e-02 3.063859e-02 3.342643e-02 2.650113e-02 2.863910e-02 2.426534e-02 2.525205e-02 2.469779e-02 2.420833e-02 2.788316e-02 2.611101e-02 3.319920e-02 3.067003e-02 3.992042e-02 3.710510e-02 4.753087e-02 4.474061e-02 5.570602e-02 5.313437e-02 6.423370e-02 
7.994698e-02 8.867829e-02 9.054581e-02 9.857404e-02 1.011622e-01 1.083467e-01 1.116557e-01 1.178735e-01 1.218789e-01 1.270201e-01 1.316726e-01 1.356384e-01 1.408630e-01 1.435643e-01 1.492601e-01 1.506175e-01 1.566574e-01 1.566013e-01 1.628327e-01 1.613049e-01 1.675520e-01 1.645067e-01 1.705744e-01 1.659816e-01 1.716616e-01 1.655109e-01 1.705913e-01 1.628976e-01 1.671743e-01 1.579854e-01 1.612779e-01 1.506841e-01 1.528530e-01 1.410009e-01 1.419688e-01 1.290810e-01 1.288552e-01 1.152629e-01 1.139650e-01 1.001697e-01 9.807731e-02 8.487377e-02 8.249144e-02 7.119470e-02 6.935023e-02 6.199690e-02 6.177802e-02 6.041585e-02 6.246151e-02 6.706311e-02 7.085453e-02 7.924775e-02 8.377242e-02 9.377252e-02 9.824178e-02 1.084566e-01 1.123779e-01 1.220064e-01 1.250939e-01 1.336765e-01 1.357876e-01 1.430652e-01 1.441645e-01 1.500066e-01 1.501405e-01 1.545047e-01 1.537811e-01 1.566867e-01 1.552556e-01 1.567646e-01 1.547999e-01 1.550021e-01 1.526863e-01 1.516868e-01 1.491981e-01 1.471074e-01 1.446103e-01 1.415369e-01 1.391758e-01 1.352208e-01 1.331165e-01 1.283700e-01 1.266190e-01 1.211580e-01 1.198325e-01 1.137207e-01 1.128713e-01 1.061594e-01 1.058168e-01 9.854458e-02 9.872206e-02 9.092103e-02 9.161687e-02 8.331415e-02 8.451297e-02 7.573655e-02 7.741009e-02 6.819574e-02 7.030278e-02 6.070351e-02 6.318872e-02 5.328895e-02 5.608019e-02 4.601921e-02 4.902205e-02 3.903747e-02 4.212353e-02 3.263702e-02 3.561943e-02 2.739482e-02 2.998545e-02 2.429790e-02 2.609379e-02 2.442539e-02 2.512329e-02 2.795259e-02 2.771622e-02 3.401106e-02 3.331909e-02 4.164207e-02 4.091869e-02 5.022744e-02 4.975687e-02 5.941189e-02 5.937897e-02 6.897832e-02 6.950653e-02 7.877495e-02 
6.695193e-02 7.804098e-02 7.563455e-02 8.649397e-02 8.455461e-02 9.497243e-02 9.354970e-02 1.033503e-01 1.024676e-01 1.115003e-01 1.111578e-01 1.192904e-01 1.194665e-01 1.265808e-01 1.272332e-01 1.332233e-01 1.342892e-01 1.390604e-01 1.404574e-01 1.439272e-01 1.455545e-01 1.476538e-01 1.493945e-01 1.500706e-01 1.517957e-01 1.510167e-01 1.525905e-01 1.503511e-01 1.516393e-01 1.479684e-01 1.488484e-01 1.438193e-01 1.441913e-01 1.379351e-01 1.377349e-01 1.304587e-01 1.296690e-01 1.216802e-01 1.203405e-01 1.120808e-01 1.102926e-01 1.023797e-01 1.003034e-01 9.356340e-02 9.140067e-02 8.683473e-02 8.478215e-02 8.336059e-02 8.152821e-02 8.379239e-02 8.212493e-02 8.788268e-02 8.616452e-02 9.462061e-02 9.257271e-02 1.027350e-01 1.001158e-01 1.110943e-01 1.077496e-01 1.188518e-01 1.147233e-01 1.254440e-01 1.205587e-01 1.305421e-01 1.249954e-01 1.340006e-01 1.279371e-01 1.358116e-01 1.294065e-01 1.360661e-01 1.295081e-01 1.349203e-01 1.283976e-01 1.325682e-01 1.262568e-01 1.292181e-01 1.232746e-01 1.250758e-01 1.196324e-01 1.203311e-01 1.154938e-01 1.151503e-01 1.109992e-01 1.096713e-01 1.062622e-01 1.040031e-01 1.013700e-01 9.822647e-02 9.638427e-02 9.239755e-02 9.134454e-02 8.655208e-02 8.627166e-02 8.071094e-02 8.117242e-02 7.488639e-02 7.604465e-02 6.908918e-02 7.088303e-02 6.333688e-02 6.568582e-02 5.766403e-02 6.046330e-02 5.213559e-02 5.524884e-02 4.686572e-02 5.011433e-02 4.204354e-02 4.519272e-02 3.796290e-02 4.070919e-02 3.503539e-02 3.701538e-02 3.373255e-02 3.459507e-02 3.441044e-02 3.397014e-02 3.711529e-02 3.547498e-02 4.158132e-02 3.907112e-02 4.741071e-02 4.441675e-02 5.423137e-02 5.108264e-02 6.175004e-02 5.869217e-02 6.974452e-02 
8.392200e-02 9.294877e-02 9.437675e-02 1.027687e-01 1.049534e-01 1.125367e-01 1.155005e-01 1.221266e-01 1.258641e-01 1.314032e-01 1.358815e-01 1.402194e-01 1.453773e-01 1.484135e-01 1.541612e-01 1.558076e-01 1.620256e-01 1.622073e-01 1.687470e-01 1.674027e-01 1.740871e-01 1.711716e-01 1.777988e-01 1.732854e-01 1.796347e-01 1.735201e-01 1.793614e-01 1.716723e-01 1.767797e-01 1.675818e-01 1.717514e-01 1.611616e-01 1.642340e-01 1.524373e-01 1.543231e-01 1.415969e-01 1.423060e-01 1.290567e-01 1.287318e-01 1.155538e-01 1.145086e-01 1.022723e-01 1.010288e-01 9.096774e-02 9.025047e-02 8.386842e-02 8.442646e-02 8.287923e-02 8.505883e-02 8.825122e-02 9.172679e-02 9.834484e-02 1.024103e-01 1.108570e-01 1.148346e-01 1.238429e-01 1.272402e-01 1.359531e-01 1.384652e-01 1.463373e-01 1.478145e-01 1.545142e-01 1.549302e-01 1.602740e-01 1.596972e-01 1.636068e-01 1.621737e-01 1.646454e-01 1.625365e-01 1.636194e-01 1.610366e-01 1.608143e-01 1.579630e-01 1.565394e-01 1.536140e-01 1.511017e-01 1.482759e-01 1.447871e-01 1.422083e-01 1.378487e-01 1.356356e-01 1.304994e-01 1.287428e-01 1.229106e-01 1.216752e-01 1.152129e-01 1.145409e-01 1.075001e-01 1.074144e-01 9.983430e-02 1.003416e-01 9.225272e-02 9.334605e-02 8.477471e-02 8.643449e-02 7.741010e-02 7.960415e-02 7.016862e-02 7.285048e-02 6.307146e-02 6.617706e-02 5.616682e-02 5.960877e-02 4.955290e-02 5.321127e-02 4.341350e-02 4.712112e-02 3.807037e-02 4.159204e-02 3.403636e-02 3.705446e-02 3.198378e-02 3.414250e-02 3.247899e-02 3.355512e-02 3.559358e-02 3.567923e-02 4.088536e-02 4.032888e-02 4.775790e-02 4.695597e-02 5.571996e-02 5.499985e-02 6.442804e-02 6.403184e-02 7.364559e-02 7.374724e-02 8.319923e-02 
7.320164e-02 8.453825e-02 8.140977e-02 9.264199e-02 8.997012e-02 1.008409e-01 9.871204e-02 1.090073e-01 1.074769e-01 1.170152e-01 1.161114e-01 1.247366e-01 1.244623e-01 1.320398e-01 1.323735e-01 1.387875e-01 1.396836e-01 1.448371e-01 1.462259e-01 1.500413e-01 1.518292e-01 1.542506e-01 1.563214e-01 1.573175e-01 1.595349e-01 1.591037e-01 1.613165e-01 1.594909e-01 1.615406e-01 1.583944e-01 1.601258e-01 1.557821e-01 1.570565e-01 1.516966e-01 1.524057e-01 1.462801e-01 1.463604e-01 1.398014e-01 1.392441e-01 1.326790e-01 1.315335e-01 1.254930e-01 1.238595e-01 1.189657e-01 1.169729e-01 1.138848e-01 1.116522e-01 1.109475e-01 1.085379e-01 1.105513e-01 1.079371e-01 1.126406e-01 1.097065e-01 1.167203e-01 1.133061e-01 1.220285e-01 1.179864e-01 1.277508e-01 1.229887e-01 1.331729e-01 1.276746e-01 1.377522e-01 1.315770e-01 1.411311e-01 1.344014e-01 1.431207e-01 1.360039e-01 1.436720e-01 1.363606e-01 1.428428e-01 1.355366e-01 1.407651e-01 1.336564e-01 1.376162e-01 1.308787e-01 1.335938e-01 1.273758e-01 1.288960e-01 1.233173e-01 1.237072e-01 1.188586e-01 1.181887e-01 1.141342e-01 1.124740e-01 1.092533e-01 1.066670e-01 1.042992e-01 1.008435e-01 9.933082e-02 9.505486e-02 9.438469e-02 8.933259e-02 8.947932e-02 8.369489e-02 8.461964e-02 7.815353e-02 7.980247e-02 7.272194e-02 7.502271e-02 6.742417e-02 7.028064e-02 6.230513e-02 6.559058e-02 5.744240e-02 6.099146e-02 5.295941e-02 5.655980e-02 4.903802e-02 5.242511e-02 4.592363e-02 4.878545e-02 4.390864e-02 4.591542e-02 4.327774e-02 4.414928e-02 4.422092e-02 4.381844e-02 4.676333e-02 4.514880e-02 5.076778e-02 4.817792e-02 5.600187e-02 5.275877e-02 6.221183e-02 5.863770e-02 6.916531e-02 6.553718e-02 7.666366e-02 
8.887880e-02 9.830207e-02 9.919451e-02 1.080643e-01 1.097503e-01 1.178552e-01 1.203874e-01 1.275482e-01 1.309474e-01 1.370100e-01 1.412663e-01 1.460969e-01 1.511693e-01 1.546518e-01 1.604668e-01 1.625023e-01 1.689527e-01 1.694585e-01 1.764022e-01 1.753135e-01 1.825736e-01 1.798449e-01 1.872112e-01 1.828198e-01 1.900546e-01 1.840057e-01 1.908527e-01 1.831865e-01 1.893867e-01 1.801893e-01 1.855017e-01 1.749186e-01 1.791479e-01 1.674035e-01 1.704326e-01 1.578549e-01 1.596807e-01 1.467359e-01 1.475053e-01 1.348413e-01 1.348816e-01 1.233711e-01 1.231963e-01 1.139289e-01 1.141775e-01 1.082813e-01 1.095250e-01 1.077268e-01 1.101869e-01 1.123662e-01 1.157813e-01 1.210216e-01 1.248200e-01 1.319023e-01 1.354759e-01 1.432982e-01 1.461654e-01 1.538901e-01 1.557431e-01 1.627873e-01 1.634852e-01 1.694691e-01 1.690114e-01 1.737095e-01 1.722043e-01 1.755064e-01 1.731373e-01 1.750186e-01 1.720130e-01 1.725106e-01 1.691122e-01 1.683050e-01 1.647516e-01 1.627443e-01 1.592519e-01 1.561612e-01 1.529150e-01 1.488594e-01 1.460085e-01 1.411004e-01 1.387587e-01 1.330986e-01 1.313470e-01 1.250207e-01 1.239117e-01 1.169881e-01 1.165514e-01 1.090831e-01 1.093301e-01 1.013552e-01 1.022832e-01 9.382948e-02 9.542433e-02 8.651518e-02 8.875171e-02 7.941544e-02 8.225614e-02 7.253824e-02 7.592934e-02 6.590935e-02 6.977439e-02 5.958840e-02 6.381916e-02 5.368973e-02 5.813420e-02 4.840840e-02 5.285654e-02 4.404570e-02 4.821844e-02 4.101115e-02 4.457059e-02 3.975312e-02 4.236775e-02 4.059241e-02 4.206719e-02 4.355897e-02 4.394456e-02 4.839832e-02 4.796535e-02 5.472914e-02 5.384140e-02 6.218600e-02 6.119290e-02 7.047446e-02 6.966630e-02 7.936901e-02 7.897213e-02 8.869353e-02 
8.058225e-02 9.230704e-02 8.835815e-02 1.001028e-01 9.658283e-02 1.080507e-01 1.050892e-01 1.160280e-01 1.137206e-01 1.239152e-01 1.223265e-01 1.315934e-01 1.307594e-01 1.389430e-01 1.388718e-01 1.458433e-01 1.465144e-01 1.521721e-01 1.535352e-01 1.578064e-01 1.597805e-01 1.626243e-01 1.650961e-01 1.665076e-01 1.693330e-01 1.693472e-01 1.723544e-01 1.710509e-01 1.740471e-01 1.715531e-01 1.743365e-01 1.708287e-01 1.732032e-01 1.689082e-01 1.707014e-01 1.658936e-01 1.669752e-01 1.619747e-01 1.622706e-01 1.574392e-01 1.569377e-01 1.526730e-01 1.514186e-01 1.481400e-01 1.462127e-01 1.443331e-01 1.418162e-01 1.416938e-01 1.386391e-01 1.405138e-01 1.369183e-01 1.408537e-01 1.366603e-01 1.425170e-01 1.376415e-01 1.450972e-01 1.394681e-01 1.480736e-01 1.416681e-01 1.509161e-01 1.437796e-01 1.531668e-01 1.454142e-01 1.544873e-01 1.462901e-01 1.546736e-01 1.462403e-01 1.536498e-01 1.452033e-01 1.514465e-01 1.432056e-01 1.481744e-01 1.403385e-01 1.439953e-01 1.367346e-01 1.390966e-01 1.325474e-01 1.336691e-01 1.279331e-01 1.278917e-01 1.230382e-01 1.219202e-01 1.179905e-01 1.158820e-01 1.128940e-01 1.098743e-01 1.078278e-01 1.039656e-01 1.028466e-01 9.819956e-02 9.798262e-02 9.260054e-02 9.325008e-02 8.718041e-02 8.864933e-02 8.194649e-02 8.417257e-02 7.691016e-02 7.981016e-02 7.209596e-02 7.555807e-02 6.755100e-02 7.142631e-02 6.335385e-02 6.744857e-02 5.962174e-02 6.369256e-02 5.651315e-02 6.027001e-02 5.422106e-02 5.734353e-02 5.295084e-02 5.512507e-02 5.288179e-02 5.385800e-02 5.412288e-02 5.377748e-02 5.668445e-02 5.505573e-02 6.048215e-02 5.775648e-02 6.536732e-02 6.182496e-02 7.116356e-02 6.711574e-02 7.769341e-02 7.343619e-02 8.479140e-02 
9.473786e-02 1.046665e-01 1.049391e-01 1.144069e-01 1.155068e-01 1.242622e-01 1.262799e-01 1.341094e-01 1.371002e-01 1.438207e-01 1.478054e-01 1.532595e-01 1.582244e-01 1.622770e-01 1.681722e-01 1.707100e-01 1.774465e-01 1.783774e-01 1.858247e-01 1.850788e-01 1.930624e-01 1.905938e-01 1.988950e-01 1.946853e-01 2.030447e-01 1.971082e-01 2.052345e-01 1.976264e-01 2.052132e-01 1.960408e-01 2.027915e-01 1.922297e-01 1.978923e-01 1.862029e-01 1.906115e-01 1.781667e-01 1.812865e-01 1.685960e-01 1.705641e-01 1.583008e-01 1.594502e-01 1.484550e-01 1.492982e-01 1.405221e-01 1.416565e-01 1.359750e-01 1.378909e-01 1.357959e-01 1.386540e-01 1.400090e-01 1.435574e-01 1.476519e-01 1.513570e-01 1.572105e-01 1.604793e-01 1.671343e-01 1.694795e-01 1.761483e-01 1.772613e-01 1.833564e-01 1.831171e-01 1.882331e-01 1.866862e-01 1.905680e-01 1.878851e-01 1.903977e-01 1.868333e-01 1.879351e-01 1.837852e-01 1.835044e-01 1.790712e-01 1.774849e-01 1.730498e-01 1.702664e-01 1.660729e-01 1.622166e-01 1.584614e-01 1.536603e-01 1.504916e-01 1.448679e-01 1.423890e-01 1.360525e-01 1.343280e-01 1.273712e-01 1.264351e-01 1.189313e-01 1.187949e-01 1.107976e-01 1.114561e-01 1.030011e-01 1.044395e-01 9.554916e-02 9.774408e-02 8.843533e-02 9.135541e-02 8.165062e-02 8.525267e-02 7.519558e-02 7.941756e-02 6.909374e-02 7.384455e-02 6.340667e-02 6.855340e-02 5.825023e-02 6.360445e-02 5.380941e-02 5.911624e-02 5.034346e-02 5.528205e-02 4.816496e-02 5.237629e-02 4.757522e-02 5.073321e-02 4.876604e-02 5.068048e-02 5.174702e-02 5.243889e-02 5.635676e-02 5.604672e-02 6.234114e-02 6.136557e-02 6.943272e-02 6.815291e-02 7.739353e-02 7.613953e-02 8.602526e-02 8.507433e-02 9.516336e-02 
8.896271e-02 1.012318e-01 9.638545e-02 1.087969e-01 1.043335e-01 1.165562e-01 1.126522e-01 1.243975e-01 1.211944e-01 1.322119e-01 1.298189e-01 1.398938e-01 1.383890e-01 1.473407e-01 1.467713e-01 1.544537e-01 1.548340e-01 1.611376e-01 1.624460e-01 1.673015e-01 1.694767e-01 1.728597e-01 1.757969e-01 1.777328e-01 1.812807e-01 1.818492e-01 1.858113e-01 1.851483e-01 1.892879e-01 1.875836e-01 1.916361e-01 1.891269e-01 1.928182e-01 1.897729e-01 1.928439e-01 1.895451e-01 1.917781e-01 1.885038e-01 1.897447e-01 1.867555e-01 1.869264e-01 1.844610e-01 1.835573e-01 1.818383e-01 1.799089e-01 1.791510e-01 1.762661e-01 1.766790e-01 1.728954e-01 1.746696e-01 1.700081e-01 1.732813e-01 1.677256e-01 1.725384e-01 1.660578e-01 1.723151e-01 1.649008e-01 1.723579e-01 1.640567e-01 1.723390e-01 1.632715e-01 1.719224e-01 1.622805e-01 1.708231e-01 1.608511e-01 1.688461e-01 1.588141e-01 1.659017e-01 1.560788e-01 1.620013e-01 1.526337e-01 1.572380e-01 1.485346e-01 1.517613e-01 1.438862e-01 1.457500e-01 1.388214e-01 1.393894e-01 1.334830e-01 1.328529e-01 1.280080e-01 1.262904e-01 1.225177e-01 1.198217e-01 1.171108e-01 1.135349e-01 1.118613e-01 1.074883e-01 1.068186e-01 1.017144e-01 1.020093e-01 9.622625e-02 9.744065e-02 9.102498e-02 9.310547e-02 8.610858e-02 8.898706e-02 8.148100e-02 8.506584e-02 7.716127e-02 8.132666e-02 7.319176e-02 7.776726e-02 6.964422e-02 7.440737e-02 6.662213e-02 7.129757e-02 6.425710e-02 6.852652e-02 6.269730e-02 6.622399e-02 6.208723e-02 6.455650e-02 6.254199e-02 6.371201e-02 6.412396e-02 6.387293e-02 6.683141e-02 6.518200e-02 7.060307e-02 6.771308e-02 7.533449e-02 7.145889e-02 8.089768e-02 7.633986e-02 8.715682e-02 8.222634e-02 9.397773e-02 
1.014273e-01 1.119769e-01 1.115531e-01 1.217453e-01 1.221757e-01 1.317177e-01 1.331386e-01 1.417794e-01 1.442884e-01 1.518122e-01 1.554696e-01 1.616908e-01 1.665191e-01 1.712801e-01 1.772615e-01 1.804316e-01 1.875040e-01 1.889792e-01 1.970311e-01 1.967351e-01 2.055997e-01 2.034859e-01 2.129380e-01 2.089925e-01 2.187477e-01 2.129946e-01 2.227167e-01 2.152267e-01 2.245449e-01 2.154469e-01 2.239857e-01 2.134829e-01 2.209059e-01 2.092946e-01 2.153594e-01 2.030493e-01 2.076670e-01 1.951996e-01 1.984858e-01 1.865413e-01 1.888385e-01 1.782142e-01 1.800579e-01 1.715857e-01 1.735825e-01 1.679599e-01 1.705818e-01 1.681515e-01 1.715299e-01 1.721379e-01 1.759962e-01 1.790483e-01 1.828245e-01 1.874972e-01 1.905584e-01 1.960126e-01 1.978360e-01 2.033437e-01 2.036123e-01 2.086018e-01 2.072272e-01 2.112844e-01 2.083806e-01 2.112328e-01 2.070655e-01 2.085609e-01 2.034877e-01 2.035730e-01 1.979867e-01 1.966857e-01 1.909676e-01 1.883602e-01 1.828476e-01 1.790504e-01 1.740183e-01 1.691677e-01 1.648223e-01 1.590603e-01 1.555421e-01 1.490050e-01 1.463977e-01 1.392077e-01 1.375499e-01 1.298090e-01 1.291070e-01 1.208941e-01 1.211329e-01 1.125023e-01 1.136558e-01 1.046388e-01 1.066760e-01 9.728593e-02 1.001736e-01 9.041470e-02 9.411587e-02 8.399726e-02 8.846479e-02 7.801986e-02 8.318493e-02 7.249627e-02 7.825325e-02 6.748103e-02 7.367053e-02 6.308047e-02 6.947471e-02 5.945788e-02 6.575448e-02 5.682602e-02 6.265983e-02 5.541889e-02 6.040264e-02 5.544087e-02 5.923827e-02 5.700932e-02 5.942157e-02 6.012154e-02 6.114532e-02 6.466642e-02 6.448886e-02 7.046775e-02 6.940586e-02 7.732995e-02 7.575391e-02 8.506712e-02 8.334099e-02 9.351423e-02 9.196359e-02 1.025270e-01 
9.824998e-02 1.112280e-01 1.054201e-01 1.186639e-01 1.131752e-01 1.263237e-01 1.213785e-01 1.341080e-01 1.298978e-01 1.419218e-01 1.386063e-01 1.496759e-01 1.473841e-01 1.572890e-01 1.561172e-01 1.646891e-01 1.646978e-01 1.718150e-01 1.730231e-01 1.786168e-01 1.809941e-01 1.850560e-01 1.885142e-01 1.911037e-01 1.954894e-01 1.967383e-01 2.018284e-01 2.019408e-01 2.074455e-01 2.066880e-01 2.122627e-01 2.109424e-01 2.162117e-01 2.146430e-01 2.192348e-01 2.176985e-01 2.212830e-01 2.199919e-01 2.223176e-01 2.213989e-01 2.223145e-01 2.218201e-01 2.212756e-01 2.212189e-01 2.192446e-01 2.196512e-01 2.163193e-01 2.172735e-01 2.126572e-01 2.143212e-01 2.084663e-01 2.110589e-01 2.039811e-01 2.077165e-01 1.994255e-01 2.044299e-01 1.949708e-01 2.012089e-01 1.906999e-01 1.979426e-01 1.865935e-01 1.944411e-01 1.825443e-01 1.904955e-01 1.783948e-01 1.859354e-01 1.739869e-01 1.806677e-01 1.692037e-01 1.746904e-01 1.639931e-01 1.680840e-01 1.583723e-01 1.609901e-01 1.524163e-01 1.535829e-01 1.462377e-01 1.460444e-01 1.399662e-01 1.385436e-01 1.337307e-01 1.312235e-01 1.276463e-01 1.241943e-01 1.218063e-01 1.175320e-01 1.162791e-01 1.112807e-01 1.111076e-01 1.054571e-01 1.063107e-01 1.000582e-01 1.018866e-01 9.506914e-02 9.781678e-02 9.047293e-02 9.407128e-02 8.626052e-02 9.061460e-02 8.243996e-02 8.741340e-02 7.904372e-02 8.444532e-02 7.613236e-02 8.170856e-02 7.379305e-02 7.923093e-02 7.213200e-02 7.707637e-02 7.126112e-02 7.534682e-02 7.128075e-02 7.417704e-02 7.226264e-02 7.372130e-02 7.423805e-02 7.413240e-02 7.719442e-02 7.553711e-02 8.108049e-02 7.801450e-02 8.581659e-02 8.158437e-02 9.130570e-02 8.620850e-02 9.744251e-02 9.180220e-02 1.041191e-01 
1.088865e-01 1.201777e-01 1.189846e-01 1.300333e-01 1.297117e-01 1.401835e-01 1.409220e-01 1.505263e-01 1.524728e-01 1.609573e-01 1.642206e-01 1.713676e-01 1.760167e-01 1.816419e-01 1.877023e-01 1.916541e-01 1.991022e-01 2.012625e-01 2.100168e-01 2.103021e-01 2.202134e-01 2.185762e-01 2.294183e-01 2.258498e-01 2.373135e-01 2.318483e-01 2.435435e-01 2.362679e-01 2.477397e-01 2.388035e-01 2.495675e-01 2.392003e-01 2.487984e-01 2.373276e-01 2.454034e-01 2.332705e-01 2.396514e-01 2.274211e-01 2.321884e-01 2.205391e-01 2.240561e-01 2.137379e-01 2.165995e-01 2.083399e-01 2.112172e-01 2.055733e-01 2.089736e-01 2.061736e-01 2.102184e-01 2.100838e-01 2.144417e-01 2.164490e-01 2.204683e-01 2.239080e-01 2.268555e-01 2.309910e-01 2.322680e-01 2.364369e-01 2.357057e-01 2.393655e-01 2.365827e-01 2.393239e-01 2.347058e-01 2.362482e-01 2.301982e-01 2.303803e-01 2.234028e-01 2.221660e-01 2.147870e-01 2.121565e-01 2.048615e-01 2.009258e-01 1.941203e-01 1.890107e-01 1.830022e-01 1.768733e-01 1.718704e-01 1.648840e-01 1.610072e-01 1.533189e-01 1.506180e-01 1.423664e-01 1.408399e-01 1.321398e-01 1.317534e-01 1.226905e-01 1.233937e-01 1.140227e-01 1.157610e-01 1.061062e-01 1.088296e-01 9.888952e-02 1.025555e-01 9.231301e-02 9.688244e-02 8.632216e-02 9.174912e-02 8.088137e-02 8.709554e-02 7.598739e-02 8.287199e-02 7.168046e-02 7.904990e-02 6.805068e-02 7.563465e-02 6.523548e-02 7.267830e-02 6.340462e-02 7.028846e-02 6.273101e-02 6.862831e-02 6.335263e-02 6.790214e-02 6.533907e-02 6.832389e-02 6.867822e-02 7.007400e-02 7.328768e-02 7.325978e-02 7.904148e-02 7.789650e-02 8.579708e-02 8.391573e-02 9.341370e-02 9.119152e-02 1.017607e-01 9.956921e-02 1.107187e-01 