# vtk DataFile Version 2.0
Comment goes here
ASCII

DATASET STRUCTURED_POINTS
FIELD FieldData 1
TIME 1 1 double
0.16500000
DIMENSIONS    128   128   1

ORIGIN    0.000   0.000   0.000
SPACING   0.039062 0.039062   1.000

POINT_DATA   16384
SCALARS uMag double
LOOKUP_TABLE default

1.164216e-03 6.547364e-03 1.061418e-02 1.871820e-02 2.374793e-02 3.213185e-02 3.800607e-02 4.652711e-02 5.309340e-02 6.158278e-02 6.866031e-02 7.692862e-02 8.431494e-02 9.215848e-02 9.963728e-02 1.068454e-01 1.141949e-01 1.205580e-01 1.275600e-01 1.328774e-01 1.393261e-01 1.434147e-01 1.491251e-01 1.518264e-01 1.566418e-01 1.578287e-01 1.616267e-01 1.612086e-01 1.639050e-01 1.618310e-01 1.633819e-01 1.596422e-01 1.600438e-01 1.546697e-01 1.539556e-01 1.470170e-01 1.452547e-01 1.368565e-01 1.341415e-01 1.244193e-01 1.208690e-01 1.099839e-01 1.057308e-01 9.386399e-02 8.904960e-02 7.639714e-02 7.116599e-02 5.793426e-02 5.242916e-02 3.883065e-02 3.318893e-02 1.943876e-02 1.378969e-02 1.026763e-04 5.434113e-03 1.884603e-02 2.416132e-02 3.709144e-02 4.208663e-02 5.433596e-02 5.892306e-02 7.030300e-02 7.440473e-02 8.474019e-02 8.829034e-02 9.742340e-02 1.003678e-01 1.081618e-01 1.104598e-01 1.168037e-01 1.184305e-01 1.232435e-01 1.241923e-01 1.274282e-01 1.277130e-01 1.293638e-01 1.290219e-01 1.291201e-01 1.282138e-01 1.268337e-01 1.254506e-01 1.227068e-01 1.209591e-01 1.170034e-01 1.150248e-01 1.100404e-01 1.079808e-01 1.021744e-01 1.001932e-01 9.378486e-02 9.204199e-02 8.525375e-02 8.389973e-02 7.694398e-02 7.610953e-02 6.917738e-02 6.896351e-02 6.221461e-02 6.268424e-02 5.623879e-02 5.741055e-02 5.134416e-02 5.318931e-02 4.753119e-02 4.997381e-02 4.470823e-02 4.762886e-02 4.269987e-02 4.594218e-02 4.126082e-02 4.464076e-02 4.009417e-02 4.341068e-02 3.887224e-02 4.191877e-02 3.725840e-02 3.983419e-02 3.492815e-02 3.684871e-02 3.158838e-02 3.269447e-02 2.699363e-02 2.715858e-02 2.095913e-02 2.009418e-02 1.337018e-02 1.142795e-02 4.188064e-03 
5.421913e-03 1.033699e-02 1.391230e-02 2.164443e-02 2.646619e-02 3.472676e-02 4.045607e-02 4.891039e-02 5.535670e-02 6.379524e-02 7.076659e-02 7.898719e-02 8.627687e-02 9.407118e-02 1.014609e-01 1.086166e-01 1.158836e-01 1.221904e-01 1.291158e-01 1.343731e-01 1.407507e-01 1.447756e-01 1.504198e-01 1.530544e-01 1.578081e-01 1.589257e-01 1.626662e-01 1.621767e-01 1.648197e-01 1.626728e-01 1.641742e-01 1.603610e-01 1.607169e-01 1.552694e-01 1.545138e-01 1.475031e-01 1.457038e-01 1.372364e-01 1.344894e-01 1.247033e-01 1.211272e-01 1.101873e-01 1.059163e-01 9.401069e-02 8.918973e-02 7.652838e-02 7.130946e-02 5.813143e-02 5.267731e-02 3.929396e-02 3.381555e-02 2.092146e-02 1.606423e-02 9.660403e-03 1.152392e-02 2.215715e-02 2.703652e-02 3.951960e-02 4.438209e-02 5.652392e-02 6.105298e-02 7.242919e-02 7.650148e-02 8.687588e-02 9.040992e-02 9.960121e-02 1.025359e-01 1.103959e-01 1.126867e-01 1.190973e-01 1.207163e-01 1.255918e-01 1.265298e-01 1.298200e-01 1.300887e-01 1.317822e-01 1.314165e-01 1.315429e-01 1.306027e-01 1.292336e-01 1.278045e-01 1.250524e-01 1.232446e-01 1.192594e-01 1.172051e-01 1.121687e-01 1.100170e-01 1.041353e-01 1.020455e-01 9.553877e-02 9.367152e-02 8.676275e-02 8.527055e-02 7.817399e-02 7.719072e-02 7.010040e-02 6.973152e-02 6.281096e-02 6.312486e-02 5.649897e-02 5.752037e-02 5.126986e-02 5.297590e-02 4.713495e-02 4.945451e-02 4.401169e-02 4.682839e-02 4.173101e-02 4.488987e-02 4.005136e-02 4.336842e-02 3.867800e-02 4.195173e-02 3.728516e-02 4.030837e-02 3.553892e-02 3.811033e-02 3.311933e-02 3.505426e-02 2.974153e-02 3.088176e-02 2.517793e-02 2.540189e-02 1.929311e-02 1.853460e-02 1.217316e-02 1.053271e-02 5.587341e-03 
1.087615e-02 1.311287e-02 1.567899e-02 2.233513e-02 2.676038e-02 3.468420e-02 4.023250e-02 4.858041e-02 5.493859e-02 6.336393e-02 7.029661e-02 7.854887e-02 8.583005e-02 9.367980e-02 1.010810e-01 1.083052e-01 1.155977e-01 1.219800e-01 1.289409e-01 1.342773e-01 1.406977e-01 1.448029e-01 1.504957e-01 1.532103e-01 1.580174e-01 1.592143e-01 1.630123e-01 1.626014e-01 1.653061e-01 1.632374e-01 1.648053e-01 1.610713e-01 1.614993e-01 1.561338e-01 1.554574e-01 1.485345e-01 1.468231e-01 1.384538e-01 1.358061e-01 1.261353e-01 1.226730e-01 1.118770e-01 1.077397e-01 9.602620e-02 9.136799e-02 7.898461e-02 7.397639e-02 6.124430e-02 5.609446e-02 4.353851e-02 3.859162e-02 2.756012e-02 2.383477e-02 1.938972e-02 1.994193e-02 2.693491e-02 3.069669e-02 4.171822e-02 4.604886e-02 5.754319e-02 6.174454e-02 7.276911e-02 7.660625e-02 8.676113e-02 9.011358e-02 9.915280e-02 1.019435e-01 1.096887e-01 1.118659e-01 1.181832e-01 1.197158e-01 1.245108e-01 1.253876e-01 1.286051e-01 1.288369e-01 1.304630e-01 1.300835e-01 1.301470e-01 1.292151e-01 1.277877e-01 1.263874e-01 1.235828e-01 1.218223e-01 1.177922e-01 1.158011e-01 1.107298e-01 1.086545e-01 1.027503e-01 1.007469e-01 9.423250e-02 9.245885e-02 8.555994e-02 8.416621e-02 7.709949e-02 7.621847e-02 6.918038e-02 6.891810e-02 6.207462e-02 6.250181e-02 5.598004e-02 5.712487e-02 5.100691e-02 5.284941e-02 4.716888e-02 4.963819e-02 4.438011e-02 4.735621e-02 4.246107e-02 4.578198e-02 4.115434e-02 4.462777e-02 4.014834e-02 4.356538e-02 3.910428e-02 4.225282e-02 3.768258e-02 4.035950e-02 3.556749e-02 3.758974e-02 3.249188e-02 3.370762e-02 2.826944e-02 2.857334e-02 2.286117e-02 2.223203e-02 1.660601e-02 1.528170e-02 1.138414e-02 
1.617901e-02 1.910369e-02 2.148144e-02 2.772368e-02 3.177390e-02 3.941391e-02 4.464435e-02 5.284296e-02 5.894139e-02 6.728564e-02 7.400222e-02 8.220479e-02 8.930326e-02 9.711591e-02 1.043612e-01 1.115510e-01 1.187097e-01 1.250553e-01 1.319013e-01 1.371957e-01 1.435174e-01 1.475744e-01 1.531827e-01 1.558425e-01 1.605780e-01 1.617138e-01 1.654523e-01 1.649751e-01 1.676321e-01 1.654939e-01 1.670263e-01 1.632219e-01 1.636276e-01 1.581947e-01 1.575108e-01 1.505283e-01 1.488269e-01 1.404133e-01 1.377964e-01 1.281076e-01 1.247018e-01 1.139318e-01 1.098845e-01 9.827096e-02 9.374960e-02 8.159563e-02 7.679699e-02 6.453611e-02 5.972449e-02 4.812622e-02 4.376850e-02 3.461064e-02 3.179431e-02 2.902837e-02 2.944106e-02 3.507141e-02 3.803691e-02 4.786340e-02 5.165772e-02 6.256386e-02 6.641267e-02 7.717171e-02 8.075862e-02 9.081275e-02 9.397720e-02 1.030022e-01 1.056470e-01 1.134221e-01 1.154841e-01 1.218501e-01 1.232903e-01 1.281359e-01 1.289374e-01 1.321954e-01 1.323631e-01 1.340107e-01 1.335730e-01 1.336321e-01 1.326418e-01 1.311793e-01 1.297146e-01 1.268407e-01 1.250039e-01 1.208686e-01 1.187840e-01 1.135711e-01 1.113807e-01 1.053000e-01 1.031572e-01 9.643414e-02 9.449616e-02 8.736126e-02 8.578067e-02 7.845730e-02 7.737292e-02 7.006623e-02 6.959417e-02 6.248065e-02 6.270546e-02 5.592402e-02 5.688975e-02 5.053423e-02 5.223561e-02 4.634903e-02 4.872477e-02 4.329675e-02 4.622858e-02 4.119851e-02 4.451900e-02 3.978643e-02 4.329428e-02 3.873492e-02 4.221269e-02 3.769607e-02 4.092599e-02 3.633182e-02 3.910871e-02 3.434261e-02 3.648553e-02 3.149901e-02 3.286507e-02 2.769324e-02 2.820239e-02 2.306143e-02 2.276545e-02 1.835237e-02 1.768137e-02 1.588598e-02 
2.193726e-02 2.392666e-02 2.568165e-02 3.098187e-02 3.448065e-02 4.162283e-02 4.647321e-02 5.446170e-02 6.030791e-02 6.859390e-02 7.514520e-02 8.336945e-02 9.036331e-02 9.824016e-02 1.054248e-01 1.127009e-01 1.198319e-01 1.262740e-01 1.331176e-01 1.385117e-01 1.448509e-01 1.490065e-01 1.546485e-01 1.574035e-01 1.621863e-01 1.634132e-01 1.672113e-01 1.668215e-01 1.695502e-01 1.674971e-01 1.691140e-01 1.653955e-01 1.659003e-01 1.605583e-01 1.599908e-01 1.531109e-01 1.515465e-01 1.432567e-01 1.408019e-01 1.312724e-01 1.280598e-01 1.175059e-01 1.136911e-01 1.023849e-01 9.814797e-02 8.644907e-02 8.200701e-02 7.044176e-02 6.608893e-02 5.554999e-02 5.176485e-02 4.394067e-02 4.156801e-02 3.910732e-02 3.908116e-02 4.314598e-02 4.519265e-02 5.347089e-02 5.649888e-02 6.642504e-02 6.969454e-02 7.986419e-02 8.300083e-02 9.269103e-02 9.549526e-02 1.042853e-01 1.066388e-01 1.142526e-01 1.160811e-01 1.223265e-01 1.235847e-01 1.283299e-01 1.289965e-01 1.321614e-01 1.322379e-01 1.337916e-01 1.333027e-01 1.332626e-01 1.322570e-01 1.306881e-01 1.292388e-01 1.262516e-01 1.244552e-01 1.202016e-01 1.181755e-01 1.128428e-01 1.107218e-01 1.045236e-01 1.024540e-01 9.562098e-02 9.375378e-02 8.652149e-02 8.500508e-02 7.760293e-02 7.657557e-02 6.921553e-02 6.879788e-02 6.166458e-02 6.195163e-02 5.519335e-02 5.624414e-02 4.996406e-02 5.178846e-02 4.603582e-02 4.858109e-02 4.334455e-02 4.648950e-02 4.169830e-02 4.526174e-02 4.079868e-02 4.456055e-02 4.028419e-02 4.400983e-02 3.977826e-02 4.323796e-02 3.892910e-02 4.191200e-02 3.744124e-02 3.976703e-02 3.510890e-02 3.664240e-02 3.186988e-02 3.254813e-02 2.792151e-02 2.782032e-02 2.399422e-02 2.350503e-02 2.183741e-02 
2.740312e-02 3.013320e-02 3.203234e-02 3.742303e-02 4.075726e-02 4.780114e-02 5.238241e-02 6.028279e-02 6.584971e-02 7.408486e-02 8.037757e-02 8.857680e-02 9.534118e-02 1.032050e-01 1.101902e-01 1.174554e-01 1.244153e-01 1.308420e-01 1.375404e-01 1.429108e-01 1.491282e-01 1.532499e-01 1.587909e-01 1.615014e-01 1.662024e-01 1.673745e-01 1.711091e-01 1.706559e-01 1.733393e-01 1.712172e-01 1.728080e-01 1.690188e-01 1.695188e-01 1.641106e-01 1.635624e-01 1.566288e-01 1.551120e-01 1.467927e-01 1.444187e-01 1.349006e-01 1.318087e-01 1.213322e-01 1.176868e-01 1.065624e-01 1.025559e-01 9.120310e-02 8.707041e-02 7.610364e-02 7.215986e-02 6.256316e-02 5.927777e-02 5.263637e-02 5.068041e-02 4.891259e-02 4.883778e-02 5.252043e-02 5.410657e-02 6.163397e-02 6.414026e-02 7.349840e-02 7.631596e-02 8.615928e-02 8.892421e-02 9.846275e-02 1.009634e-01 1.097107e-01 1.118169e-01 1.194492e-01 1.210776e-01 1.273689e-01 1.284666e-01 1.332607e-01 1.337995e-01 1.369982e-01 1.369718e-01 1.385305e-01 1.379554e-01 1.378813e-01 1.367970e-01 1.351481e-01 1.336177e-01 1.305001e-01 1.286104e-01 1.241741e-01 1.220333e-01 1.164662e-01 1.142013e-01 1.077206e-01 1.054724e-01 9.831449e-02 9.623224e-02 8.864147e-02 8.687658e-02 7.909374e-02 7.779351e-02 7.004500e-02 6.934624e-02 6.183404e-02 6.185509e-02 5.474725e-02 5.557555e-02 4.899545e-02 5.066826e-02 4.468134e-02 4.716310e-02 4.176418e-02 4.493329e-02 4.004441e-02 4.370326e-02 3.919077e-02 4.309675e-02 3.880347e-02 4.270314e-02 3.848176e-02 4.213470e-02 3.787342e-02 4.106581e-02 3.670871e-02 3.926411e-02 3.483669e-02 3.663213e-02 3.228844e-02 3.328777e-02 2.940370e-02 2.973163e-02 2.705185e-02 2.713404e-02 2.677438e-02 
3.359767e-02 3.586938e-02 3.739944e-02 4.221951e-02 4.509771e-02 5.173948e-02 5.591044e-02 6.360889e-02 6.885079e-02 7.702774e-02 8.307835e-02 9.130827e-02 9.790069e-02 1.058463e-01 1.127167e-01 1.200905e-01 1.269816e-01 1.335288e-01 1.401954e-01 1.456886e-01 1.519042e-01 1.561450e-01 1.617092e-01 1.645321e-01 1.692774e-01 1.705541e-01 1.743522e-01 1.739965e-01 1.767620e-01 1.747327e-01 1.764252e-01 1.727284e-01 1.733520e-01 1.680420e-01 1.676427e-01 1.608223e-01 1.594839e-01 1.513053e-01 1.491444e-01 1.398120e-01 1.369732e-01 1.267516e-01 1.234053e-01 1.126380e-01 1.089818e-01 9.812940e-02 9.439952e-02 8.411225e-02 8.060774e-02 7.183734e-02 6.895343e-02 6.301945e-02 6.122919e-02 5.948464e-02 5.912315e-02 6.196982e-02 6.292104e-02 6.933871e-02 7.113051e-02 7.956701e-02 8.172461e-02 9.091934e-02 9.310895e-02 1.022160e-01 1.042248e-01 1.126874e-01 1.143795e-01 1.218185e-01 1.231056e-01 1.292553e-01 1.300812e-01 1.347576e-01 1.350907e-01 1.381765e-01 1.380070e-01 1.394450e-01 1.387844e-01 1.385743e-01 1.374557e-01 1.356519e-01 1.341303e-01 1.308388e-01 1.289910e-01 1.243644e-01 1.222874e-01 1.165180e-01 1.143263e-01 1.076373e-01 1.054593e-01 9.809351e-02 9.606693e-02 8.827593e-02 8.654372e-02 7.857610e-02 7.728283e-02 6.937427e-02 6.866319e-02 6.102781e-02 6.103589e-02 5.385818e-02 5.470373e-02 4.812733e-02 4.988351e-02 4.399265e-02 4.664945e-02 4.144580e-02 4.488206e-02 4.027448e-02 4.426757e-02 4.009323e-02 4.436457e-02 4.043480e-02 4.469913e-02 4.084491e-02 4.484052e-02 4.094276e-02 4.444488e-02 4.045376e-02 4.328341e-02 3.923949e-02 4.127783e-02 3.734867e-02 3.856686e-02 3.511142e-02 3.563041e-02 3.327902e-02 3.346588e-02 3.308678e-02 
3.937210e-02 4.235930e-02 4.415560e-02 4.931832e-02 5.221920e-02 5.897998e-02 6.301075e-02 7.074913e-02 7.577404e-02 8.397518e-02 8.978610e-02 9.804061e-02 1.043991e-01 1.123688e-01 1.190245e-01 1.264171e-01 1.331183e-01 1.396741e-01 1.461771e-01 1.516655e-01 1.577430e-01 1.619638e-01 1.674139e-01 1.702010e-01 1.748549e-01 1.760811e-01 1.798099e-01 1.793910e-01 1.821098e-01 1.800084e-01 1.816785e-01 1.779062e-01 1.785345e-01 1.731532e-01 1.727897e-01 1.659124e-01 1.646458e-01 1.564385e-01 1.543909e-01 1.450768e-01 1.423985e-01 1.322681e-01 1.291348e-01 1.185656e-01 1.151791e-01 1.046731e-01 1.012692e-01 9.151278e-02 8.837514e-02 8.030508e-02 7.777429e-02 7.254952e-02 7.097833e-02 6.962669e-02 6.922083e-02 7.196844e-02 7.262246e-02 7.866027e-02 8.003041e-02 8.808917e-02 8.980605e-02 9.874711e-02 1.005262e-01 1.095104e-01 1.111566e-01 1.195947e-01 1.209769e-01 1.284515e-01 1.294813e-01 1.356928e-01 1.363106e-01 1.410472e-01 1.412157e-01 1.443378e-01 1.440391e-01 1.454720e-01 1.447070e-01 1.444375e-01 1.432270e-01 1.413003e-01 1.396856e-01 1.362023e-01 1.342461e-01 1.293572e-01 1.271429e-01 1.210428e-01 1.186733e-01 1.115904e-01 1.091861e-01 1.013724e-01 9.906751e-02 9.078695e-02 8.872762e-02 8.024471e-02 7.858687e-02 7.015679e-02 6.906538e-02 6.092588e-02 6.057198e-02 5.293586e-02 5.348393e-02 4.652716e-02 4.810051e-02 4.193719e-02 4.455980e-02 3.920450e-02 4.275179e-02 3.809693e-02 4.230761e-02 3.815251e-02 4.270085e-02 3.882192e-02 4.338978e-02 3.960485e-02 4.391598e-02 4.011940e-02 4.394712e-02 4.012614e-02 4.329700e-02 3.954841e-02 4.195519e-02 3.851489e-02 4.014737e-02 3.743157e-02 3.843061e-02 3.704795e-02 3.776727e-02 3.838448e-02 
4.618243e-02 4.891180e-02 5.045974e-02 5.528848e-02 5.783638e-02 6.433507e-02 6.799563e-02 7.559824e-02 8.029146e-02 8.847073e-02 9.401098e-02 1.023250e-01 1.084773e-01 1.165573e-01 1.230667e-01 1.305969e-01 1.372042e-01 1.439087e-01 1.503620e-01 1.559993e-01 1.620641e-01 1.664270e-01 1.718954e-01 1.748139e-01 1.795127e-01 1.808583e-01 1.846559e-01 1.843455e-01 1.871561e-01 1.851552e-01 1.869413e-01 1.832665e-01 1.840376e-01 1.787583e-01 1.785682e-01 1.718076e-01 1.707493e-01 1.626869e-01 1.608866e-01 1.517629e-01 1.493739e-01 1.395003e-01 1.366985e-01 1.264753e-01 1.234573e-01 1.134033e-01 1.103877e-01 1.011783e-01 9.840901e-02 9.089806e-02 8.863784e-02 8.378422e-02 8.227306e-02 8.085845e-02 8.022143e-02 8.242731e-02 8.259564e-02 8.785127e-02 8.859931e-02 9.590428e-02 9.696589e-02 1.053083e-01 1.064575e-01 1.150111e-01 1.160814e-01 1.242234e-01 1.250981e-01 1.323682e-01 1.329665e-01 1.390267e-01 1.392932e-01 1.439009e-01 1.437996e-01 1.467921e-01 1.463037e-01 1.475905e-01 1.467116e-01 1.462695e-01 1.450133e-01 1.428834e-01 1.412802e-01 1.375634e-01 1.356622e-01 1.305133e-01 1.283810e-01 1.220007e-01 1.197218e-01 1.123463e-01 1.100214e-01 1.019109e-01 9.965525e-02 9.108131e-02 8.902492e-02 8.025955e-02 7.854900e-02 6.985562e-02 6.865940e-02 6.028767e-02 5.980119e-02 5.198450e-02 5.242399e-02 4.537232e-02 4.693485e-02 4.080571e-02 4.357980e-02 3.841676e-02 4.228905e-02 3.797041e-02 4.263029e-02 3.890251e-02 4.395435e-02 4.053629e-02 4.560720e-02 4.227877e-02 4.706000e-02 4.370012e-02 4.794878e-02 4.454443e-02 4.808109e-02 4.473349e-02 4.745090e-02 4.439107e-02 4.627926e-02 4.388911e-02 4.507785e-02 4.388594e-02 4.469037e-02 4.527093e-02 
5.245001e-02 5.588745e-02 5.777796e-02 6.308174e-02 6.578315e-02 7.256560e-02 7.621369e-02 8.398825e-02 8.855758e-02 9.685395e-02 1.022108e-01 1.106145e-01 1.165614e-01 1.247128e-01 1.310181e-01 1.386026e-01 1.450202e-01 1.517604e-01 1.580447e-01 1.636971e-01 1.696160e-01 1.739723e-01 1.793180e-01 1.822083e-01 1.868074e-01 1.881044e-01 1.918252e-01 1.914488e-01 1.942068e-01 1.921268e-01 1.938869e-01 1.901264e-01 1.909020e-01 1.855389e-01 1.853886e-01 1.785572e-01 1.775795e-01 1.694737e-01 1.677996e-01 1.586782e-01 1.564646e-01 1.466613e-01 1.440848e-01 1.340250e-01 1.312773e-01 1.215019e-01 1.187875e-01 1.099760e-01 1.075088e-01 1.004734e-01 9.846327e-02 9.405025e-02 9.266663e-02 9.150854e-02 9.082156e-02 9.303314e-02 9.297640e-02 9.806751e-02 9.847008e-02 1.055788e-01 1.062396e-01 1.144463e-01 1.151886e-01 1.236952e-01 1.243832e-01 1.325553e-01 1.330901e-01 1.404397e-01 1.407495e-01 1.469075e-01 1.469393e-01 1.516337e-01 1.513486e-01 1.543916e-01 1.537625e-01 1.550428e-01 1.540542e-01 1.535329e-01 1.521823e-01 1.498895e-01 1.481895e-01 1.442200e-01 1.422001e-01 1.367077e-01 1.344165e-01 1.276053e-01 1.251113e-01 1.172255e-01 1.146180e-01 1.059298e-01 1.033187e-01 9.411626e-02 9.163375e-02 8.220882e-02 8.001329e-02 7.065267e-02 6.893698e-02 5.991776e-02 5.892040e-02 5.051058e-02 5.051768e-02 4.297496e-02 4.427816e-02 3.781949e-02 4.058613e-02 3.529336e-02 3.940354e-02 3.512380e-02 4.017340e-02 3.656776e-02 4.206441e-02 3.878033e-02 4.430223e-02 4.109782e-02 4.632526e-02 4.310140e-02 4.779632e-02 4.458876e-02 4.858060e-02 4.555101e-02 4.874240e-02 4.617746e-02 4.856840e-02 4.687416e-02 4.859805e-02 4.825601e-02 4.960590e-02 5.105034e-02 
6.009171e-02 6.337782e-02 6.508493e-02 7.019916e-02 7.262122e-02 7.925992e-02 8.258985e-02 9.030842e-02 9.457004e-02 1.028993e-01 1.079892e-01 1.164953e-01 1.222296e-01 1.305293e-01 1.366789e-01 1.444366e-01 1.507521e-01 1.576738e-01 1.639036e-01 1.697343e-01 1.756391e-01 1.801629e-01 1.855286e-01 1.885711e-01 1.932191e-01 1.946516e-01 1.984472e-01 1.981903e-01 2.010478e-01 1.990749e-01 2.009604e-01 1.972999e-01 1.982297e-01 1.929672e-01 1.930039e-01 1.862839e-01 1.855298e-01 1.775589e-01 1.761480e-01 1.671998e-01 1.652887e-01 1.557123e-01 1.534721e-01 1.437049e-01 1.413136e-01 1.318958e-01 1.295313e-01 1.211127e-01 1.189453e-01 1.122600e-01 1.104383e-01 1.062065e-01 1.048343e-01 1.035725e-01 1.026812e-01 1.044944e-01 1.040317e-01 1.085486e-01 1.084009e-01 1.149161e-01 1.149501e-01 1.226488e-01 1.227443e-01 1.308641e-01 1.309267e-01 1.388232e-01 1.387831e-01 1.459386e-01 1.457446e-01 1.517555e-01 1.513687e-01 1.559319e-01 1.553219e-01 1.582240e-01 1.573667e-01 1.584783e-01 1.573558e-01 1.566272e-01 1.552295e-01 1.526868e-01 1.510134e-01 1.467532e-01 1.448160e-01 1.389986e-01 1.368239e-01 1.296628e-01 1.272934e-01 1.190434e-01 1.165400e-01 1.074833e-01 1.049266e-01 9.535870e-02 9.285302e-02 8.307059e-02 8.075214e-02 7.104451e-02 6.909751e-02 5.974550e-02 5.842770e-02 4.971319e-02 4.938103e-02 4.160404e-02 4.268845e-02 3.615345e-02 3.898464e-02 3.386673e-02 3.837275e-02 3.451393e-02 4.017617e-02 3.712954e-02 4.331139e-02 4.061663e-02 4.680906e-02 4.416545e-02 5.000796e-02 4.729516e-02 5.253137e-02 4.978147e-02 5.423325e-02 5.160705e-02 5.517503e-02 5.294978e-02 5.563241e-02 5.418827e-02 5.611085e-02 5.589078e-02 5.732657e-02 5.874126e-02 
6.707833e-02 7.108386e-02 7.320112e-02 7.887774e-02 8.155314e-02 8.859799e-02 9.202544e-02 1.000325e-01 1.042670e-01 1.128076e-01 1.177873e-01 1.264547e-01 1.320331e-01 1.404580e-01 1.464341e-01 1.542863e-01 1.604292e-01 1.674163e-01 1.734848e-01 1.793515e-01 1.851118e-01 1.896420e-01 1.948820e-01 1.979022e-01 2.024438e-01 2.038273e-01 2.075367e-01 2.072075e-01 2.100012e-01 2.079376e-01 2.097852e-01 2.060226e-01 2.069454e-01 2.015781e-01 2.016446e-01 1.948286e-01 1.941470e-01 1.861026e-01 1.848113e-01 1.758284e-01 1.740857e-01 1.645316e-01 1.625050e-01 1.528343e-01 1.506912e-01 1.414544e-01 1.393520e-01 1.311920e-01 1.292683e-01 1.228828e-01 1.212436e-01 1.172856e-01 1.159906e-01 1.149048e-01 1.139563e-01 1.158199e-01 1.151656e-01 1.196446e-01 1.191986e-01 1.256586e-01 1.253286e-01 1.330129e-01 1.327192e-01 1.408893e-01 1.405712e-01 1.485776e-01 1.481900e-01 1.554924e-01 1.550001e-01 1.611652e-01 1.605371e-01 1.652308e-01 1.644366e-01 1.674174e-01 1.664256e-01 1.675403e-01 1.663193e-01 1.654995e-01 1.640198e-01 1.612791e-01 1.595168e-01 1.549454e-01 1.528874e-01 1.466449e-01 1.442933e-01 1.365988e-01 1.339752e-01 1.250946e-01 1.222446e-01 1.124765e-01 1.094728e-01 9.913375e-02 9.608127e-02 8.549248e-02 8.253672e-02 7.201395e-02 6.935936e-02 5.921033e-02 5.715539e-02 4.769235e-02 4.668175e-02 3.825844e-02 3.889916e-02 3.193662e-02 3.477478e-02 2.958216e-02 3.454647e-02 3.090924e-02 3.722083e-02 3.447683e-02 4.130395e-02 3.885533e-02 4.564628e-02 4.317593e-02 4.958707e-02 4.702312e-02 5.281983e-02 5.026534e-02 5.528339e-02 5.296917e-02 5.711623e-02 5.536988e-02 5.864661e-02 5.785843e-02 6.038445e-02 6.094894e-02 6.297456e-02 6.519881e-02 
7.581245e-02 7.973000e-02 8.170132e-02 8.728158e-02 8.972691e-02 9.671970e-02 9.987485e-02 1.079021e-01 1.118627e-01 1.204977e-01 1.252319e-01 1.340537e-01 1.394325e-01 1.480519e-01 1.538813e-01 1.619486e-01 1.679972e-01 1.752037e-01 1.812258e-01 1.873041e-01 1.930589e-01 1.977845e-01 2.030530e-01 2.062476e-01 2.108458e-01 2.123809e-01 2.161711e-01 2.159718e-01 2.188693e-01 2.169171e-01 2.188925e-01 2.152281e-01 2.163062e-01 2.110313e-01 2.112850e-01 2.045647e-01 2.041060e-01 1.961716e-01 1.951405e-01 1.862936e-01 1.848456e-01 1.754638e-01 1.737575e-01 1.642998e-01 1.624841e-01 1.534927e-01 1.516961e-01 1.437830e-01 1.421035e-01 1.359081e-01 1.344050e-01 1.305046e-01 1.291952e-01 1.279772e-01 1.268396e-01 1.283831e-01 1.273691e-01 1.314090e-01 1.304621e-01 1.364601e-01 1.355320e-01 1.428076e-01 1.418658e-01 1.497163e-01 1.487437e-01 1.565197e-01 1.555091e-01 1.626485e-01 1.615956e-01 1.676340e-01 1.665322e-01 1.711040e-01 1.699396e-01 1.727765e-01 1.715274e-01 1.724565e-01 1.710923e-01 1.700343e-01 1.685190e-01 1.654849e-01 1.637801e-01 1.588655e-01 1.569361e-01 1.503119e-01 1.481312e-01 1.400312e-01 1.375867e-01 1.282919e-01 1.255904e-01 1.154121e-01 1.124845e-01 1.017472e-01 9.865527e-02 8.768128e-02 8.452924e-02 7.362833e-02 7.058670e-02 6.005398e-02 5.740972e-02 4.754365e-02 4.579420e-02 3.696099e-02 3.692773e-02 2.967881e-02 3.233271e-02 2.726457e-02 3.273859e-02 2.968802e-02 3.686865e-02 3.490070e-02 4.264707e-02 4.096392e-02 4.861652e-02 4.683144e-02 5.401370e-02 5.204003e-02 5.850280e-02 5.644395e-02 6.201598e-02 6.010371e-02 6.469087e-02 6.324865e-02 6.685204e-02 6.626082e-02 6.899849e-02 6.964565e-02 7.176265e-02 7.396521e-02 
8.379591e-02 8.845810e-02 9.090704e-02 9.712012e-02 9.990369e-02 1.074002e-01 1.107479e-01 1.191647e-01 1.231899e-01 1.321259e-01 1.368283e-01 1.458847e-01 1.511691e-01 1.599712e-01 1.656723e-01 1.738781e-01 1.797854e-01 1.870895e-01 1.929706e-01 1.991067e-01 2.047280e-01 2.094728e-01 2.146182e-01 2.177948e-01 2.222820e-01 2.237646e-01 2.274574e-01 2.271750e-01 2.299915e-01 2.279313e-01 2.298471e-01 2.260568e-01 2.271032e-01 2.216935e-01 2.219509e-01 2.150976e-01 2.146851e-01 2.066320e-01 2.056946e-01 1.967577e-01 1.954516e-01 1.860231e-01 1.845011e-01 1.750529e-01 1.734503e-01 1.645303e-01 1.629530e-01 1.551670e-01 1.536822e-01 1.476461e-01 1.462786e-01 1.425333e-01 1.412690e-01 1.401681e-01 1.389656e-01 1.405784e-01 1.393882e-01 1.434705e-01 1.422525e-01 1.483047e-01 1.470392e-01 1.544137e-01 1.531020e-01 1.611098e-01 1.597678e-01 1.677518e-01 1.664004e-01 1.737754e-01 1.724315e-01 1.787018e-01 1.773706e-01 1.821368e-01 1.808073e-01 1.837688e-01 1.824119e-01 1.833682e-01 1.819372e-01 1.807874e-01 1.792217e-01 1.759625e-01 1.741940e-01 1.689142e-01 1.668747e-01 1.597461e-01 1.573773e-01 1.486418e-01 1.459042e-01 1.358583e-01 1.327392e-01 1.217167e-01 1.182372e-01 1.065909e-01 1.028123e-01 9.089769e-02 8.692924e-02 7.509012e-02 7.110966e-02 5.966876e-02 5.597421e-02 4.524100e-02 4.238077e-02 3.272447e-02 3.177145e-02 2.389360e-02 2.649010e-02 2.151154e-02 2.791655e-02 2.555567e-02 3.374271e-02 3.240764e-02 4.094938e-02 3.965197e-02 4.797806e-02 4.639337e-02 5.421293e-02 5.236649e-02 5.947177e-02 5.757467e-02 6.380743e-02 6.217679e-02 6.744165e-02 6.645138e-02 7.074135e-02 7.077635e-02 7.419547e-02 7.559599e-02 7.836520e-02 8.136260e-02 
9.393866e-02 9.855118e-02 1.008741e-01 1.070541e-01 1.096394e-01 1.171556e-01 1.202676e-01 1.287740e-01 1.325604e-01 1.416544e-01 1.461422e-01 1.554113e-01 1.605230e-01 1.695731e-01 1.751516e-01 1.836214e-01 1.894570e-01 1.970241e-01 2.028799e-01 2.092651e-01 2.148999e-01 2.198708e-01 2.250602e-01 2.284346e-01 2.329891e-01 2.346393e-01 2.384177e-01 2.382735e-01 2.411924e-01 2.392442e-01 2.412808e-01 2.375811e-01 2.387708e-01 2.334368e-01 2.338652e-01 2.270804e-01 2.268712e-01 2.188882e-01 2.181880e-01 2.093314e-01 2.082930e-01 1.989619e-01 1.977273e-01 1.883948e-01 1.870802e-01 1.782855e-01 1.769687e-01 1.692938e-01 1.680076e-01 1.620302e-01 1.607628e-01 1.569807e-01 1.556864e-01 1.544260e-01 1.530445e-01 1.543824e-01 1.528619e-01 1.565988e-01 1.549142e-01 1.606122e-01 1.587724e-01 1.658373e-01 1.638813e-01 1.716518e-01 1.696375e-01 1.774572e-01 1.754478e-01 1.827120e-01 1.807634e-01 1.869461e-01 1.850972e-01 1.897664e-01 1.880322e-01 1.908585e-01 1.892266e-01 1.899889e-01 1.884187e-01 1.870061e-01 1.854325e-01 1.818426e-01 1.801814e-01 1.745143e-01 1.726711e-01 1.651175e-01 1.629981e-01 1.538230e-01 1.513439e-01 1.408666e-01 1.379648e-01 1.265368e-01 1.231783e-01 1.111619e-01 1.073485e-01 9.509874e-02 9.087725e-02 7.872621e-02 7.420779e-02 6.245439e-02 5.786555e-02 4.677483e-02 4.260112e-02 3.245602e-02 2.986420e-02 2.132339e-02 2.293211e-02 1.793690e-02 2.514010e-02 2.379362e-02 3.322530e-02 3.302508e-02 4.271921e-02 4.240846e-02 5.177212e-02 5.100912e-02 5.974549e-02 5.856917e-02 6.645719e-02 6.508990e-02 7.196219e-02 7.072870e-02 7.648835e-02 7.576887e-02 8.041308e-02 8.060108e-02 8.424014e-02 8.569231e-02 8.855384e-02 9.153103e-02 
1.032602e-01 1.086523e-01 1.115211e-01 1.183983e-01 1.213991e-01 1.295036e-01 1.328929e-01 1.418792e-01 1.458158e-01 1.552958e-01 1.598310e-01 1.694086e-01 1.744942e-01 1.837880e-01 1.892941e-01 1.979502e-01 2.036884e-01 2.113884e-01 2.171354e-01 2.236022e-01 2.291243e-01 2.341269e-01 2.392029e-01 2.425615e-01 2.470029e-01 2.485931e-01 2.522606e-01 2.520171e-01 2.548308e-01 2.527499e-01 2.546934e-01 2.508352e-01 2.519528e-01 2.464429e-01 2.468305e-01 2.398622e-01 2.396531e-01 2.314905e-01 2.308379e-01 2.218182e-01 2.208762e-01 2.114115e-01 2.103163e-01 2.008910e-01 1.997444e-01 1.909042e-01 1.897617e-01 1.820874e-01 1.809531e-01 1.750123e-01 1.738445e-01 1.701196e-01 1.688466e-01 1.676517e-01 1.661972e-01 1.676094e-01 1.659187e-01 1.697535e-01 1.678127e-01 1.736543e-01 1.714948e-01 1.787659e-01 1.764566e-01 1.844987e-01 1.821301e-01 1.902728e-01 1.879387e-01 1.955495e-01 1.933308e-01 1.998476e-01 1.977991e-01 2.027506e-01 2.008920e-01 2.039112e-01 2.022223e-01 2.030555e-01 2.014759e-01 1.999871e-01 1.984206e-01 1.945910e-01 1.929144e-01 1.868371e-01 1.849133e-01 1.767817e-01 1.744749e-01 1.645663e-01 1.617583e-01 1.504136e-01 1.470185e-01 1.346204e-01 1.305945e-01 1.175468e-01 1.128943e-01 9.960254e-02 9.437675e-02 8.123079e-02 7.553864e-02 6.289347e-02 5.692135e-02 4.507172e-02 3.919559e-02 2.834961e-02 2.364063e-02 1.414787e-02 1.488670e-02 1.076820e-02 2.012459e-02 2.078052e-02 3.120883e-02 3.210057e-02 4.236029e-02 4.252468e-02 5.240638e-02 5.180063e-02 6.111338e-02 5.998325e-02 6.852480e-02 6.724192e-02 7.483200e-02 7.382222e-02 8.034017e-02 8.003461e-02 8.545191e-02 8.624237e-02 9.064361e-02 9.283762e-02 9.642221e-02 1.002013e-01 
1.151917e-01 1.205545e-01 1.233026e-01 1.301911e-01 1.330122e-01 1.411948e-01 1.443770e-01 1.535176e-01 1.572498e-01 1.669539e-01 1.713115e-01 1.811666e-01 1.861174e-01 1.957211e-01 2.011427e-01 2.101202e-01 2.158238e-01 2.238380e-01 2.295943e-01 2.363534e-01 2.419191e-01 2.471818e-01 2.523248e-01 2.559054e-01 2.604276e-01 2.621999e-01 2.659554e-01 2.658549e-01 2.687618e-01 2.667878e-01 2.688321e-01 2.650489e-01 2.662806e-01 2.608190e-01 2.613413e-01 2.544005e-01 2.543534e-01 2.462039e-01 2.457436e-01 2.367293e-01 2.360076e-01 2.265459e-01 2.256891e-01 2.162660e-01 2.153578e-01 2.065143e-01 2.055850e-01 1.978885e-01 1.969121e-01 1.909098e-01 1.898140e-01 1.859677e-01 1.846542e-01 1.832685e-01 1.816428e-01 1.828062e-01 1.808067e-01 1.843665e-01 1.819848e-01 1.875667e-01 1.848527e-01 1.919147e-01 1.889672e-01 1.968682e-01 1.938168e-01 2.018825e-01 1.988653e-01 2.064413e-01 2.035847e-01 2.100760e-01 2.074772e-01 2.123768e-01 2.100907e-01 2.130004e-01 2.110321e-01 2.116762e-01 2.099776e-01 2.082119e-01 2.066848e-01 2.024969e-01 2.010011e-01 1.945047e-01 1.928715e-01 1.842909e-01 1.823404e-01 1.719885e-01 1.695479e-01 1.577994e-01 1.547202e-01 1.419830e-01 1.381535e-01 1.248435e-01 1.201953e-01 1.067164e-01 1.012258e-01 8.795640e-02 8.164480e-02 6.892621e-02 6.187127e-02 4.998966e-02 4.237732e-02 3.151987e-02 2.390815e-02 1.404568e-02 1.009255e-02 5.644355e-03 1.689830e-02 1.972827e-02 3.140953e-02 3.384179e-02 4.527884e-02 4.662619e-02 5.763592e-02 5.797024e-02 6.830740e-02 6.791491e-02 7.733278e-02 7.660295e-02 8.489859e-02 8.427154e-02 9.132052e-02 9.124590e-02 9.702838e-02 9.792448e-02 1.025399e-01 1.047501e-01 1.084156e-01 1.121650e-01 