# vtk DataFile Version 2.0
Comment goes here
ASCII

DATASET STRUCTURED_POINTS
FIELD FieldData 1
TIME 1 1 double
0.17000000
DIMENSIONS    128   128   1

ORIGIN    0.000   0.000   0.000
SPACING   0.039062 0.039062   1.000

POINT_DATA   16384
SCALARS uMag double
LOOKUP_TABLE default

3.297098e-02 3.752913e-02 4.492531e-02 4.978159e-02 5.788811e-02 6.294457e-02 7.161840e-02 7.674422e-02 8.581532e-02 9.085179e-02 1.001283e-01 1.048951e-01 1.141697e-01 1.184720e-01 1.275289e-01 1.311658e-01 1.397884e-01 1.425615e-01 1.505408e-01 1.522632e-01 1.594060e-01 1.599109e-01 1.660470e-01 1.651958e-01 1.701851e-01 1.678742e-01 1.716113e-01 1.677773e-01 1.701952e-01 1.648176e-01 1.658889e-01 1.589921e-01 1.587279e-01 1.503794e-01 1.488267e-01 1.391352e-01 1.363724e-01 1.254826e-01 1.216139e-01 1.097019e-01 1.048508e-01 9.211736e-02 8.642041e-02 7.308514e-02 6.668562e-02 5.298053e-02 4.602320e-02 3.218702e-02 2.481376e-02 1.108677e-02 3.433494e-03 9.946972e-03 1.775227e-02 3.055576e-02 3.839379e-02 5.040018e-02 5.816038e-02 6.916301e-02 7.674301e-02 8.655171e-02 9.385663e-02 1.023008e-01 1.092427e-01 1.161745e-01 1.226725e-01 1.279705e-01 1.339511e-01 1.375236e-01 1.429224e-01 1.447114e-01 1.494752e-01 1.494600e-01 1.535494e-01 1.517495e-01 1.551424e-01 1.516198e-01 1.543140e-01 1.491742e-01 1.511899e-01 1.445814e-01 1.459627e-01 1.380742e-01 1.388884e-01 1.299439e-01 1.302796e-01 1.205314e-01 1.204944e-01 1.102133e-01 1.099202e-01 9.938462e-02 9.895550e-02 8.843868e-02 8.798790e-02 7.774521e-02 7.737268e-02 6.762914e-02 6.741182e-02 5.835134e-02 5.833627e-02 5.009332e-02 5.029287e-02 4.294729e-02 4.333709e-02 3.691267e-02 3.743248e-02 3.189914e-02 3.245655e-02 2.773606e-02 2.821270e-02 2.418721e-02 2.444669e-02 2.096936e-02 2.086639e-02 1.777313e-02 1.716286e-02 1.428427e-02 1.303137e-02 1.020411e-02 8.190836e-03 5.267727e-03 2.400744e-03 7.407642e-04 4.525080e-03 7.976322e-03 1.270815e-02 1.652461e-02 2.219845e-02 2.639706e-02 
3.416861e-02 3.874559e-02 4.609981e-02 5.097295e-02 5.904582e-02 6.411538e-02 7.276029e-02 7.789492e-02 8.694023e-02 9.198118e-02 1.012344e-01 1.060014e-01 1.152548e-01 1.195534e-01 1.285909e-01 1.322204e-01 1.408256e-01 1.435877e-01 1.515516e-01 1.532597e-01 1.603887e-01 1.608763e-01 1.670003e-01 1.661293e-01 1.711079e-01 1.687751e-01 1.725029e-01 1.686454e-01 1.710553e-01 1.656538e-01 1.667180e-01 1.597979e-01 1.595279e-01 1.511585e-01 1.496013e-01 1.398935e-01 1.371280e-01 1.262305e-01 1.223620e-01 1.104565e-01 1.056110e-01 9.290924e-02 8.722852e-02 7.397222e-02 6.761358e-02 5.409058e-02 4.724334e-02 3.388874e-02 2.691273e-02 1.531747e-02 1.101049e-02 1.469195e-02 2.077995e-02 3.258404e-02 4.005388e-02 5.181802e-02 5.943472e-02 7.035988e-02 7.787452e-02 8.766222e-02 9.494041e-02 1.033864e-01 1.103249e-01 1.172675e-01 1.237779e-01 1.290887e-01 1.350931e-01 1.386766e-01 1.441072e-01 1.459032e-01 1.507040e-01 1.506903e-01 1.548194e-01 1.530145e-01 1.564471e-01 1.529127e-01 1.556438e-01 1.504855e-01 1.525325e-01 1.458990e-01 1.473032e-01 1.393836e-01 1.402097e-01 1.312289e-01 1.315631e-01 1.217742e-01 1.217202e-01 1.113951e-01 1.110681e-01 1.004863e-01 1.000056e-01 8.944140e-02 8.892169e-02 7.863155e-02 7.817398e-02 6.838397e-02 6.806799e-02 5.896301e-02 5.883923e-02 5.055473e-02 5.064005e-02 4.325691e-02 4.353192e-02 3.707500e-02 3.748419e-02 3.192452e-02 3.237924e-02 2.763970e-02 2.802385e-02 2.398794e-02 2.416615e-02 2.068940e-02 2.051703e-02 1.744067e-02 1.677549e-02 1.394373e-02 1.266182e-02 9.954194e-03 7.998253e-03 5.496958e-03 3.490532e-03 3.726016e-03 6.321089e-03 9.564506e-03 1.406211e-02 1.786551e-02 2.344000e-02 2.765348e-02 
3.424800e-02 3.886054e-02 4.608590e-02 5.100670e-02 5.899656e-02 6.411830e-02 7.271073e-02 7.789878e-02 8.691325e-02 9.200725e-02 1.012455e-01 1.060643e-01 1.153148e-01 1.196634e-01 1.287074e-01 1.323847e-01 1.410037e-01 1.438113e-01 1.517948e-01 1.535461e-01 1.606996e-01 1.612284e-01 1.673812e-01 1.665498e-01 1.715612e-01 1.692674e-01 1.730322e-01 1.692145e-01 1.716661e-01 1.663074e-01 1.674193e-01 1.605479e-01 1.603327e-01 1.520225e-01 1.505294e-01 1.408979e-01 1.382087e-01 1.274147e-01 1.236393e-01 1.118813e-01 1.071536e-01 9.467294e-02 8.915067e-02 7.624847e-02 7.012573e-02 5.722871e-02 5.079787e-02 3.873807e-02 3.271147e-02 2.417327e-02 2.141206e-02 2.360400e-02 2.746821e-02 3.725949e-02 4.366286e-02 5.468622e-02 6.171257e-02 7.231161e-02 7.943160e-02 8.905572e-02 9.604082e-02 1.043970e-01 1.111059e-01 1.179943e-01 1.243207e-01 1.295943e-01 1.354508e-01 1.390040e-01 1.443172e-01 1.460839e-01 1.507939e-01 1.507488e-01 1.548105e-01 1.529706e-01 1.563560e-01 1.527826e-01 1.554837e-01 1.502831e-01 1.523141e-01 1.456362e-01 1.470347e-01 1.390710e-01 1.398981e-01 1.308757e-01 1.312141e-01 1.213891e-01 1.213391e-01 1.109862e-01 1.106601e-01 1.000618e-01 9.957655e-02 8.900968e-02 8.847891e-02 7.820192e-02 7.772716e-02 6.796750e-02 6.763034e-02 5.857360e-02 5.842882e-02 5.021065e-02 5.028093e-02 4.298213e-02 4.325456e-02 3.689980e-02 3.732439e-02 3.188447e-02 3.237514e-02 2.777269e-02 2.821186e-02 2.433071e-02 2.457825e-02 2.127685e-02 2.118329e-02 1.831309e-02 1.773746e-02 1.517074e-02 1.401094e-02 1.170323e-02 9.996899e-03 8.227586e-03 6.737804e-03 6.961732e-03 8.247842e-03 1.100132e-02 1.479478e-02 1.849807e-02 2.372126e-02 2.793757e-02 
3.659722e-02 4.129874e-02 4.835362e-02 5.336360e-02 6.122684e-02 6.643147e-02 7.492787e-02 8.018985e-02 8.913086e-02 9.428880e-02 1.034712e-01 1.083437e-01 1.175525e-01 1.219446e-01 1.309588e-01 1.346696e-01 1.432690e-01 1.461006e-01 1.540733e-01 1.558395e-01 1.629902e-01 1.635256e-01 1.696826e-01 1.688509e-01 1.738733e-01 1.715739e-01 1.753564e-01 1.715306e-01 1.740069e-01 1.686413e-01 1.697855e-01 1.629139e-01 1.627400e-01 1.544436e-01 1.530031e-01 1.434102e-01 1.407883e-01 1.300737e-01 1.263861e-01 1.147737e-01 1.101650e-01 9.793917e-02 9.258787e-02 8.012951e-02 7.427474e-02 6.217082e-02 5.620831e-02 4.560625e-02 4.043537e-02 3.404581e-02 3.187753e-02 3.366891e-02 3.621981e-02 4.441045e-02 4.970406e-02 5.989650e-02 6.622705e-02 7.644444e-02 8.310802e-02 9.256053e-02 9.923254e-02 1.075171e-01 1.140087e-01 1.208722e-01 1.270518e-01 1.323185e-01 1.380834e-01 1.416315e-01 1.468976e-01 1.486513e-01 1.533499e-01 1.532780e-01 1.573558e-01 1.554721e-01 1.588929e-01 1.552578e-01 1.580051e-01 1.527250e-01 1.548041e-01 1.480311e-01 1.494706e-01 1.413990e-01 1.422509e-01 1.331119e-01 1.334506e-01 1.235046e-01 1.234232e-01 1.129501e-01 1.125550e-01 1.018421e-01 1.012473e-01 9.057622e-02 8.989473e-02 7.952834e-02 7.886507e-02 6.903440e-02 6.847830e-02 5.937199e-02 5.898934e-02 5.074551e-02 5.057393e-02 4.327561e-02 4.331877e-02 3.699273e-02 3.721575e-02 3.183469e-02 3.216163e-02 2.764971e-02 2.796579e-02 2.420892e-02 2.437048e-02 2.123308e-02 2.108608e-02 1.843679e-02 1.784468e-02 1.559843e-02 1.449376e-02 1.270294e-02 1.124200e-02 1.033326e-02 9.396925e-03 1.032918e-02 1.150239e-02 1.427770e-02 1.762000e-02 2.135048e-02 2.623400e-02 3.052382e-02 
3.792910e-02 4.271825e-02 4.951038e-02 5.462696e-02 6.230725e-02 6.762437e-02 7.599518e-02 8.136909e-02 9.022704e-02 9.549303e-02 1.046247e-01 1.095996e-01 1.187830e-01 1.232706e-01 1.322795e-01 1.360784e-01 1.446886e-01 1.476005e-01 1.555974e-01 1.574364e-01 1.646225e-01 1.652238e-01 1.714263e-01 1.706546e-01 1.757319e-01 1.734891e-01 1.773360e-01 1.735667e-01 1.761179e-01 1.708135e-01 1.720448e-01 1.652461e-01 1.651741e-01 1.569722e-01 1.556520e-01 1.461891e-01 1.437112e-01 1.331829e-01 1.296708e-01 1.183323e-01 1.139431e-01 1.021289e-01 9.706310e-02 8.523640e-02 7.977269e-02 6.865089e-02 6.324718e-02 5.410067e-02 4.964613e-02 4.472317e-02 4.276890e-02 4.430088e-02 4.584984e-02 5.274738e-02 5.685299e-02 6.611679e-02 7.151127e-02 8.120646e-02 8.715768e-02 9.632705e-02 1.024460e-01 1.105761e-01 1.166319e-01 1.234072e-01 1.292431e-01 1.344525e-01 1.399502e-01 1.434507e-01 1.485154e-01 1.502184e-01 1.547727e-01 1.546398e-01 1.586222e-01 1.566637e-01 1.600301e-01 1.563052e-01 1.590301e-01 1.536472e-01 1.557265e-01 1.488407e-01 1.502932e-01 1.421039e-01 1.429716e-01 1.337159e-01 1.340632e-01 1.240086e-01 1.239191e-01 1.133526e-01 1.129251e-01 1.021409e-01 1.014834e-01 9.076915e-02 8.999191e-02 7.961516e-02 7.882431e-02 6.901915e-02 6.830980e-02 5.926624e-02 5.871639e-02 5.057269e-02 5.023694e-02 4.307579e-02 4.297806e-02 3.682619e-02 3.695090e-02 3.178134e-02 3.206506e-02 2.780217e-02 2.813137e-02 2.466101e-02 2.488269e-02 2.207146e-02 2.201892e-02 1.974494e-02 1.927691e-02 1.747628e-02 1.653953e-02 1.528465e-02 1.405247e-02 1.367860e-02 1.283490e-02 1.390914e-02 1.458676e-02 1.721507e-02 1.987474e-02 2.355119e-02 2.790101e-02 3.223220e-02 
4.122727e-02 4.619322e-02 5.277482e-02 5.805989e-02 6.557199e-02 7.104494e-02 7.928395e-02 8.479861e-02 9.355525e-02 9.894585e-02 1.080019e-01 1.130849e-01 1.222145e-01 1.267939e-01 1.357679e-01 1.396423e-01 1.482341e-01 1.512059e-01 1.591988e-01 1.610826e-01 1.682776e-01 1.689098e-01 1.751330e-01 1.743804e-01 1.794894e-01 1.772568e-01 1.811466e-01 1.773829e-01 1.799886e-01 1.746915e-01 1.759905e-01 1.692091e-01 1.692202e-01 1.610577e-01 1.598391e-01 1.504541e-01 1.481013e-01 1.377125e-01 1.343561e-01 1.232522e-01 1.190604e-01 1.076252e-01 1.028164e-01 9.158296e-02 8.646251e-02 7.622970e-02 7.127747e-02 6.330793e-02 5.933169e-02 5.541999e-02 5.354956e-02 5.505305e-02 5.595896e-02 6.207962e-02 6.527186e-02 7.383711e-02 7.841649e-02 8.768519e-02 9.298855e-02 1.019352e-01 1.075554e-01 1.155833e-01 1.212633e-01 1.279990e-01 1.335616e-01 1.387565e-01 1.440679e-01 1.475550e-01 1.525076e-01 1.541831e-01 1.586876e-01 1.585034e-01 1.624865e-01 1.604478e-01 1.638519e-01 1.600165e-01 1.628024e-01 1.572794e-01 1.594280e-01 1.523765e-01 1.538910e-01 1.455157e-01 1.464228e-01 1.369681e-01 1.373175e-01 1.270591e-01 1.269218e-01 1.161556e-01 1.156204e-01 1.046495e-01 1.038182e-01 9.293883e-02 9.192082e-02 8.140791e-02 8.031440e-02 7.040816e-02 6.934638e-02 6.024151e-02 5.930900e-02 5.114728e-02 5.042497e-02 4.329198e-02 4.283439e-02 3.675959e-02 3.658072e-02 3.153951e-02 3.159655e-02 2.751435e-02 2.769859e-02 2.446103e-02 2.460876e-02 2.208480e-02 2.201328e-02 2.009388e-02 1.965666e-02 1.830753e-02 1.747315e-02 1.680224e-02 1.578893e-02 1.609745e-02 1.553922e-02 1.717145e-02 1.792345e-02 2.085392e-02 2.332187e-02 2.719502e-02 3.127205e-02 3.578397e-02 
4.370808e-02 4.881747e-02 5.507938e-02 6.052628e-02 6.779865e-02 7.343948e-02 8.150501e-02 8.718603e-02 9.582273e-02 1.013736e-01 1.103529e-01 1.155874e-01 1.246753e-01 1.293953e-01 1.383563e-01 1.423596e-01 1.509620e-01 1.540500e-01 1.620733e-01 1.640608e-01 1.713031e-01 1.720270e-01 1.783125e-01 1.776416e-01 1.828269e-01 1.806691e-01 1.846492e-01 1.809582e-01 1.836694e-01 1.784501e-01 1.798719e-01 1.731834e-01 1.733377e-01 1.652966e-01 1.642461e-01 1.550295e-01 1.528749e-01 1.427268e-01 1.396059e-01 1.288489e-01 1.249393e-01 1.140020e-01 1.095336e-01 9.900034e-02 9.428753e-02 8.498562e-02 8.048954e-02 7.357946e-02 6.997966e-02 6.683491e-02 6.494394e-02 6.640348e-02 6.669987e-02 7.216604e-02 7.442682e-02 8.229995e-02 8.593254e-02 9.470630e-02 9.916912e-02 1.078112e-01 1.127201e-01 1.205726e-01 1.256652e-01 1.322999e-01 1.373883e-01 1.425169e-01 1.474575e-01 1.508863e-01 1.555620e-01 1.571695e-01 1.614813e-01 1.612090e-01 1.650726e-01 1.629205e-01 1.662663e-01 1.622913e-01 1.650661e-01 1.593802e-01 1.615495e-01 1.543175e-01 1.558680e-01 1.473032e-01 1.482445e-01 1.386016e-01 1.389664e-01 1.285326e-01 1.283761e-01 1.174590e-01 1.168562e-01 1.057699e-01 1.048122e-01 9.386231e-02 9.265340e-02 8.212146e-02 8.077337e-02 7.090302e-02 6.953190e-02 6.051803e-02 5.924005e-02 5.122222e-02 5.014748e-02 4.320840e-02 4.242962e-02 3.659734e-02 3.616949e-02 3.142037e-02 3.133239e-02 2.759307e-02 2.774533e-02 2.489942e-02 2.511140e-02 2.302263e-02 2.308164e-02 2.163625e-02 2.137117e-02 2.052864e-02 1.989382e-02 1.973279e-02 1.891129e-02 1.964097e-02 1.913594e-02 2.098780e-02 2.150014e-02 2.450072e-02 2.651647e-02 3.045328e-02 3.405285e-02 3.867275e-02 
4.780397e-02 5.318473e-02 5.927130e-02 6.496898e-02 7.208456e-02 7.795518e-02 8.588942e-02 9.177845e-02 1.003107e-01 1.060474e-01 1.149481e-01 1.203460e-01 1.293795e-01 1.342408e-01 1.431694e-01 1.472918e-01 1.558819e-01 1.590672e-01 1.670963e-01 1.691599e-01 1.764243e-01 1.772047e-01 1.835271e-01 1.828952e-01 1.881317e-01 1.859991e-01 1.900447e-01 1.863708e-01 1.891625e-01 1.839599e-01 1.854789e-01 1.788176e-01 1.790884e-01 1.710993e-01 1.701879e-01 1.610670e-01 1.590784e-01 1.490942e-01 1.461710e-01 1.356775e-01 1.320031e-01 1.214652e-01 1.172744e-01 1.073098e-01 1.029146e-01 9.434904e-02 9.017970e-02 8.406361e-02 8.069544e-02 7.811462e-02 7.617172e-02 7.768354e-02 7.754125e-02 8.264880e-02 8.421658e-02 9.165214e-02 9.453606e-02 1.029833e-01 1.067574e-01 1.152108e-01 1.195344e-01 1.273006e-01 1.319214e-01 1.385284e-01 1.432570e-01 1.483802e-01 1.530662e-01 1.564846e-01 1.610018e-01 1.625753e-01 1.668131e-01 1.664707e-01 1.703307e-01 1.680659e-01 1.714618e-01 1.673294e-01 1.701887e-01 1.643029e-01 1.665701e-01 1.591013e-01 1.607409e-01 1.519107e-01 1.529098e-01 1.429838e-01 1.433539e-01 1.326315e-01 1.324089e-01 1.212109e-01 1.204559e-01 1.091094e-01 1.079042e-01 9.672685e-02 9.517309e-02 8.445689e-02 8.267281e-02 7.266954e-02 7.078735e-02 6.169744e-02 5.986019e-02 5.182648e-02 5.018258e-02 4.328985e-02 4.198057e-02 3.625926e-02 3.539248e-02 3.082217e-02 3.042959e-02 2.693839e-02 2.693337e-02 2.440068e-02 2.457890e-02 2.286117e-02 2.296862e-02 2.195193e-02 2.178839e-02 2.144274e-02 2.096032e-02 2.136819e-02 2.075768e-02 2.208821e-02 2.181299e-02 2.420595e-02 2.485643e-02 2.828260e-02 3.028110e-02 3.455724e-02 3.802701e-02 4.294284e-02 
5.136211e-02 5.694217e-02 6.271780e-02 6.862875e-02 7.549359e-02 8.158276e-02 8.932641e-02 9.543223e-02 1.038283e-01 1.097749e-01 1.185869e-01 1.241841e-01 1.331693e-01 1.382166e-01 1.471311e-01 1.514242e-01 1.600292e-01 1.633685e-01 1.714370e-01 1.736372e-01 1.809621e-01 1.818623e-01 1.882639e-01 1.877367e-01 1.930698e-01 1.910306e-01 1.951900e-01 1.916041e-01 1.945279e-01 1.894165e-01 1.910882e-01 1.845329e-01 1.849802e-01 1.771275e-01 1.764200e-01 1.674858e-01 1.657325e-01 1.560096e-01 1.533570e-01 1.432278e-01 1.398610e-01 1.298184e-01 1.259693e-01 1.166451e-01 1.126089e-01 1.047969e-01 1.009548e-01 9.557433e-02 9.239357e-02 9.028902e-02 8.824284e-02 8.978213e-02 8.917014e-02 9.393965e-02 9.476005e-02 1.017478e-01 1.037678e-01 1.118371e-01 1.147533e-01 1.229491e-01 1.264866e-01 1.340979e-01 1.380344e-01 1.445518e-01 1.487099e-01 1.537730e-01 1.580053e-01 1.613648e-01 1.655423e-01 1.670375e-01 1.710427e-01 1.705899e-01 1.743132e-01 1.718995e-01 1.752397e-01 1.709196e-01 1.737858e-01 1.676783e-01 1.699935e-01 1.622782e-01 1.639834e-01 1.548946e-01 1.559521e-01 1.457710e-01 1.461674e-01 1.352103e-01 1.349585e-01 1.235630e-01 1.227023e-01 1.112110e-01 1.098076e-01 9.855034e-02 9.669604e-02 8.597238e-02 8.378407e-02 7.384786e-02 7.146732e-02 6.251528e-02 6.010893e-02 5.227581e-02 5.003238e-02 4.339375e-02 4.151413e-02 3.609522e-02 3.476250e-02 3.054584e-02 2.986339e-02 2.678466e-02 2.669778e-02 2.463573e-02 2.490986e-02 2.370551e-02 2.401897e-02 2.353648e-02 2.362726e-02 2.381284e-02 2.358978e-02 2.449056e-02 2.409609e-02 2.583002e-02 2.564801e-02 2.832199e-02 2.887161e-02 3.248776e-02 3.421074e-02 3.865140e-02 4.176321e-02 4.685755e-02 
5.621854e-02 6.216128e-02 6.783799e-02 7.408054e-02 8.083846e-02 8.723026e-02 9.487435e-02 1.012547e-01 1.095671e-01 1.157605e-01 1.245087e-01 1.303254e-01 1.392684e-01 1.445078e-01 1.534017e-01 1.578594e-01 1.664645e-01 1.699408e-01 1.780287e-01 1.803388e-01 1.877008e-01 1.886847e-01 1.951398e-01 1.946724e-01 2.000746e-01 1.980753e-01 2.023193e-01 1.987595e-01 2.017845e-01 1.966941e-01 1.984852e-01 1.919578e-01 1.925449e-01 1.847421e-01 1.841977e-01 1.753543e-01 1.737896e-01 1.642206e-01 1.617835e-01 1.518952e-01 1.487694e-01 1.390756e-01 1.354859e-01 1.266238e-01 1.228463e-01 1.155766e-01 1.119498e-01 1.070930e-01 1.040088e-01 1.022564e-01 1.000979e-01 1.017109e-01 1.007354e-01 1.053477e-01 1.056035e-01 1.123540e-01 1.137113e-01 1.215847e-01 1.238338e-01 1.319182e-01 1.348455e-01 1.424204e-01 1.458383e-01 1.523645e-01 1.561122e-01 1.611968e-01 1.651326e-01 1.684983e-01 1.724910e-01 1.739559e-01 1.778792e-01 1.773452e-01 1.810752e-01 1.785215e-01 1.819371e-01 1.774162e-01 1.804026e-01 1.740368e-01 1.764895e-01 1.684665e-01 1.702967e-01 1.608627e-01 1.620027e-01 1.514536e-01 1.518611e-01 1.405301e-01 1.401924e-01 1.284348e-01 1.273712e-01 1.155471e-01 1.138107e-01 1.022657e-01 9.994435e-02 8.899153e-02 8.620865e-02 7.611149e-02 7.302710e-02 6.398770e-02 6.079981e-02 5.295399e-02 4.989904e-02 4.332064e-02 4.066749e-02 3.538110e-02 3.340259e-02 2.939600e-02 2.828908e-02 2.550621e-02 2.526043e-02 2.357482e-02 2.390676e-02 2.313674e-02 2.362473e-02 2.361821e-02 2.392624e-02 2.463113e-02 2.464320e-02 2.610818e-02 2.596512e-02 2.828606e-02 2.835304e-02 3.159205e-02 3.233800e-02 3.646212e-02 3.828468e-02 4.317248e-02 4.628606e-02 5.177967e-02 
6.087141e-02 6.706431e-02 7.247704e-02 7.897933e-02 8.550998e-02 9.216624e-02 9.963013e-02 1.062740e-01 1.144549e-01 1.209058e-01 1.295686e-01 1.356322e-01 1.445315e-01 1.500033e-01 1.588904e-01 1.635629e-01 1.721928e-01 1.758638e-01 1.840039e-01 1.864867e-01 1.939244e-01 1.950587e-01 2.016101e-01 2.012725e-01 2.067899e-01 2.049033e-01 2.092811e-01 2.058232e-01 2.090015e-01 2.040115e-01 2.059774e-01 1.995613e-01 2.003477e-01 1.926830e-01 1.923649e-01 1.837054e-01 1.823958e-01 1.730776e-01 1.709236e-01 1.613733e-01 1.585534e-01 1.492975e-01 1.460227e-01 1.376909e-01 1.342091e-01 1.275144e-01 1.241131e-01 1.197740e-01 1.167693e-01 1.153445e-01 1.130383e-01 1.147081e-01 1.133191e-01 1.177607e-01 1.173725e-01 1.238546e-01 1.244244e-01 1.320475e-01 1.334588e-01 1.413647e-01 1.434772e-01 1.509471e-01 1.536229e-01 1.600937e-01 1.632033e-01 1.682511e-01 1.716702e-01 1.749891e-01 1.785936e-01 1.799795e-01 1.836413e-01 1.829814e-01 1.865671e-01 1.838338e-01 1.872061e-01 1.824524e-01 1.854738e-01 1.788298e-01 1.813683e-01 1.730349e-01 1.749704e-01 1.652125e-01 1.664436e-01 1.555789e-01 1.560296e-01 1.444147e-01 1.440398e-01 1.320528e-01 1.308428e-01 1.188638e-01 1.168489e-01 1.052383e-01 1.024914e-01 9.156941e-02 8.820886e-02 7.823743e-02 7.443109e-02 6.560140e-02 6.157089e-02 5.400030e-02 5.002693e-02 4.376808e-02 4.019675e-02 3.526018e-02 3.248379e-02 2.886441e-02 2.723491e-02 2.490626e-02 2.451825e-02 2.336850e-02 2.388515e-02 2.370115e-02 2.454266e-02 2.512710e-02 2.582871e-02 2.709680e-02 2.747287e-02 2.944550e-02 2.959054e-02 3.233793e-02 3.256937e-02 3.614577e-02 3.689764e-02 4.129227e-02 4.297156e-02 4.810056e-02 5.097393e-02 5.670772e-02 
6.656859e-02 7.320752e-02 7.861401e-02 8.552405e-02 9.201997e-02 9.904876e-02 1.064672e-01 1.134505e-01 1.215881e-01 1.283465e-01 1.369766e-01 1.433165e-01 1.521986e-01 1.579154e-01 1.668033e-01 1.716887e-01 1.803384e-01 1.841894e-01 1.923674e-01 1.949968e-01 2.024894e-01 2.037371e-01 2.103591e-01 2.101034e-01 2.157062e-01 2.138738e-01 2.183517e-01 2.149262e-01 2.182202e-01 2.132499e-01 2.153488e-01 2.089517e-01 2.098901e-01 2.022585e-01 2.021133e-01 1.935184e-01 1.924031e-01 1.831996e-01 1.812589e-01 1.718906e-01 1.692961e-01 1.602995e-01 1.572482e-01 1.492465e-01 1.459614e-01 1.396332e-01 1.363629e-01 1.323599e-01 1.293696e-01 1.281713e-01 1.257142e-01 1.274574e-01 1.257317e-01 1.301214e-01 1.292348e-01 1.356171e-01 1.355858e-01 1.431327e-01 1.439092e-01 1.517958e-01 1.533002e-01 1.608051e-01 1.629445e-01 1.694812e-01 1.721560e-01 1.772703e-01 1.803735e-01 1.837305e-01 1.871434e-01 1.885154e-01 1.921052e-01 1.913628e-01 1.949823e-01 1.920888e-01 1.955786e-01 1.905854e-01 1.937789e-01 1.868208e-01 1.895514e-01 1.808407e-01 1.829503e-01 1.727677e-01 1.741158e-01 1.627987e-01 1.632717e-01 1.511987e-01 1.507182e-01 1.382903e-01 1.368205e-01 1.244402e-01 1.219942e-01 1.100420e-01 1.066866e-01 9.549935e-02 9.135914e-02 8.120996e-02 7.647142e-02 6.755599e-02 6.247241e-02 5.490479e-02 4.980514e-02 4.362770e-02 3.893202e-02 3.414419e-02 3.037594e-02 2.697775e-02 2.469601e-02 2.269455e-02 2.216278e-02 2.145491e-02 2.223540e-02 2.254901e-02 2.380115e-02 2.489785e-02 2.600216e-02 2.780498e-02 2.854215e-02 3.108644e-02 3.156216e-02 3.491101e-02 3.544797e-02 3.962808e-02 4.064294e-02 4.561422e-02 4.748811e-02 5.315081e-02 5.613892e-02 6.236093e-02 
7.243498e-02 7.936649e-02 8.457255e-02 9.178241e-02 9.809557e-02 1.054298e-01 1.126990e-01 1.199893e-01 1.280180e-01 1.350801e-01 1.436432e-01 1.502781e-01 1.591333e-01 1.651313e-01 1.740290e-01 1.791768e-01 1.878685e-01 1.919588e-01 2.002068e-01 2.030492e-01 2.106354e-01 2.120680e-01 2.188039e-01 2.187054e-01 2.244403e-01 2.227404e-01 2.273678e-01 2.240563e-01 2.275181e-01 2.226525e-01 2.249391e-01 2.186498e-01 2.197984e-01 2.122930e-01 2.123819e-01 2.039488e-01 2.030912e-01 1.941024e-01 1.924387e-01 1.833517e-01 1.810433e-01 1.723983e-01 1.696229e-01 1.620285e-01 1.589779e-01 1.530699e-01 1.499484e-01 1.463096e-01 1.433283e-01 1.423641e-01 1.397267e-01 1.415367e-01 1.394169e-01 1.437332e-01 1.422546e-01 1.484959e-01 1.477263e-01 1.551380e-01 1.550983e-01 1.628968e-01 1.635751e-01 1.710444e-01 1.724057e-01 1.789410e-01 1.809300e-01 1.860486e-01 1.885885e-01 1.919262e-01 1.949159e-01 1.962206e-01 1.995322e-01 1.986582e-01 2.021382e-01 1.990414e-01 2.025131e-01 1.972472e-01 2.005177e-01 1.932287e-01 1.960971e-01 1.870164e-01 1.892845e-01 1.787184e-01 1.802023e-01 1.685179e-01 1.690597e-01 1.566670e-01 1.561458e-01 1.434756e-01 1.418180e-01 1.292974e-01 1.264864e-01 1.145126e-01 1.105946e-01 9.950951e-02 9.460108e-02 8.466960e-02 7.896254e-02 7.035847e-02 6.412585e-02 5.692968e-02 5.053720e-02 4.475148e-02 3.868473e-02 3.427601e-02 2.919668e-02 2.617141e-02 2.293795e-02 2.139141e-02 2.063270e-02 2.053607e-02 2.172865e-02 2.272245e-02 2.460535e-02 2.635987e-02 2.807278e-02 3.048131e-02 3.173077e-02 3.481462e-02 3.568086e-02 3.949226e-02 4.027895e-02 4.484582e-02 4.595965e-02 5.125992e-02 5.309546e-02 5.905589e-02 6.190618e-02 6.841712e-02 
7.915919e-02 8.660988e-02 9.190603e-02 9.959291e-02 1.059545e-01 1.137267e-01 1.210191e-01 1.287112e-01 1.367521e-01 1.441820e-01 1.527574e-01 1.597266e-01 1.686021e-01 1.749005e-01 1.838309e-01 1.892437e-01 1.979830e-01 2.023006e-01 2.106109e-01 2.136408e-01 2.213033e-01 2.228826e-01 2.297073e-01 2.297150e-01 2.355500e-01 2.339185e-01 2.386571e-01 2.353819e-01 2.389668e-01 2.341137e-01 2.365370e-01 2.302479e-01 2.315485e-01 2.240450e-01 2.243025e-01 2.158885e-01 2.152150e-01 2.062782e-01 2.048094e-01 1.958202e-01 1.937075e-01 1.852115e-01 1.826159e-01 1.752141e-01 1.723022e-01 1.666061e-01 1.635498e-01 1.601030e-01 1.570776e-01 1.562470e-01 1.534264e-01 1.552961e-01 1.528423e-01 1.571644e-01 1.552157e-01 1.614529e-01 1.601158e-01 1.675543e-01 1.669028e-01 1.747781e-01 1.748554e-01 1.824456e-01 1.832656e-01 1.899424e-01 1.914886e-01 1.967377e-01 1.989594e-01 2.023848e-01 2.051936e-01 2.065164e-01 2.097844e-01 2.088395e-01 2.124000e-01 2.091329e-01 2.127847e-01 2.072476e-01 2.107629e-01 2.031092e-01 2.062444e-01 1.967201e-01 1.992293e-01 1.881616e-01 1.898112e-01 1.775926e-01 1.781769e-01 1.652454e-01 1.646015e-01 1.514169e-01 1.494384e-01 1.364557e-01 1.331046e-01 1.207462e-01 1.160620e-01 1.046900e-01 9.879660e-02 8.868929e-02 8.179882e-02 7.313379e-02 6.554919e-02 5.839833e-02 5.052062e-02 4.486299e-02 3.722159e-02 3.298734e-02 2.634569e-02 2.352195e-02 1.911029e-02 1.789133e-02 1.704670e-02 1.749509e-02 1.946717e-02 2.101561e-02 2.373667e-02 2.599437e-02 2.837104e-02 3.129197e-02 3.305840e-02 3.670464e-02 3.799955e-02 4.242417e-02 4.358832e-02 4.879421e-02 5.024208e-02 5.617571e-02 5.829113e-02 6.485563e-02 6.792007e-02 7.499406e-02 
8.645728e-02 9.423208e-02 9.939496e-02 1.074140e-01 1.136479e-01 1.217614e-01 1.289493e-01 1.369893e-01 1.449586e-01 1.527381e-01 1.612787e-01 1.685932e-01 1.774709e-01 1.841032e-01 1.930707e-01 1.987989e-01 2.076060e-01 2.122137e-01 2.206181e-01 2.239071e-01 2.316850e-01 2.334883e-01 2.404456e-01 2.406410e-01 2.466230e-01 2.451447e-01 2.500435e-01 2.468922e-01 2.506510e-01 2.459014e-01 2.485142e-01 2.423199e-01 2.438280e-01 2.364249e-01 2.369088e-01 2.286164e-01 2.281866e-01 2.194069e-01 2.181929e-01 2.094062e-01 2.075465e-01 1.992995e-01 1.969339e-01 1.898138e-01 1.870792e-01 1.816669e-01 1.786973e-01 1.754931e-01 1.724230e-01 1.717538e-01 1.687221e-01 1.706558e-01 1.678066e-01 1.721149e-01 1.695938e-01 1.757842e-01 1.737314e-01 1.811364e-01 1.796782e-01 1.875603e-01 1.868011e-01 1.944400e-01 1.944541e-01 2.012028e-01 2.020264e-01 2.073407e-01 2.089645e-01 2.124166e-01 2.147795e-01 2.160630e-01 2.190494e-01 2.179804e-01 2.214209e-01 2.179371e-01 2.216131e-01 2.157710e-01 2.194239e-01 2.113928e-01 2.147373e-01 2.047896e-01 2.075295e-01 1.960268e-01 1.978737e-01 1.852481e-01 1.859399e-01 1.726703e-01 1.719906e-01 1.585743e-01 1.563698e-01 1.432915e-01 1.394874e-01 1.271862e-01 1.217992e-01 1.106371e-01 1.037836e-01 9.401983e-02 8.592041e-02 7.769456e-02 6.867339e-02 6.200351e-02 5.248792e-02 4.728932e-02 3.782827e-02 3.396702e-02 2.534698e-02 2.277956e-02 1.652355e-02 1.563976e-02 1.442025e-02 1.562415e-02 1.863235e-02 2.096532e-02 2.477937e-02 2.773137e-02 3.098541e-02 3.453338e-02 3.697504e-02 4.118324e-02 4.297501e-02 4.789017e-02 4.938516e-02 5.501245e-02 5.663675e-02 6.293762e-02 6.509711e-02 7.199645e-02 7.500715e-02 8.240378e-02 
9.449329e-02 1.028484e-01 1.081959e-01 1.167525e-01 1.231225e-01 1.317337e-01 1.390223e-01 1.475238e-01 1.555722e-01 1.637794e-01 1.723896e-01 1.800988e-01 1.890460e-01 1.960385e-01 2.050816e-01 2.111324e-01 2.200244e-01 2.249128e-01 2.334117e-01 2.369350e-01 2.448158e-01 2.468037e-01 2.538702e-01 2.541988e-01 2.602944e-01 2.588991e-01 2.639156e-01 2.608014e-01 2.646826e-01 2.599317e-01 2.626738e-01 2.564506e-01 2.580969e-01 2.506502e-01 2.512825e-01 2.429461e-01 2.426736e-01 2.338633e-01 2.328102e-01 2.240176e-01 2.223117e-01 2.140890e-01 2.118530e-01 2.047847e-01 2.021324e-01 1.967874e-01 1.938256e-01 1.906870e-01 1.875229e-01 1.869036e-01 1.836551e-01 1.856232e-01 1.824267e-01 1.867712e-01 1.837830e-01 1.900389e-01 1.874285e-01 1.949507e-01 1.928885e-01 2.009457e-01 1.995873e-01 2.074460e-01 2.069170e-01 2.139017e-01 2.142829e-01 2.198131e-01 2.211289e-01 2.247398e-01 2.269489e-01 2.283022e-01 2.312929e-01 2.301816e-01 2.337721e-01 2.301218e-01 2.340657e-01 2.279317e-01 2.319290e-01 2.234905e-01 2.272034e-01 2.167520e-01 2.198247e-01 2.077489e-01 2.098307e-01 1.965947e-01 1.973638e-01 1.834813e-01 1.826692e-01 1.686734e-01 1.660869e-01 1.524966e-01 1.480375e-01 1.353227e-01 1.290029e-01 1.175504e-01 1.095011e-01 9.958620e-02 9.005946e-02 8.182509e-02 7.118684e-02 6.463694e-02 5.335194e-02 4.836373e-02 3.698330e-02 3.334942e-02 2.256347e-02 2.011721e-02 1.137868e-02 1.060539e-02 9.575372e-03 1.154469e-02 1.671822e-02 1.944151e-02 2.465909e-02 2.790843e-02 3.206787e-02 3.599042e-02 3.907535e-02 4.377547e-02 4.607531e-02 5.158329e-02 5.351831e-02 5.979940e-02 6.182151e-02 6.879436e-02 7.130889e-02 7.886524e-02 8.217809e-02 9.019727e-02 
1.035375e-01 1.122351e-01 1.175129e-01 1.264249e-01 1.327263e-01 1.417093e-01 1.489474e-01 1.578357e-01 1.658616e-01 1.744660e-01 1.830867e-01 1.911958e-01 2.001875e-01 2.075735e-01 2.166932e-01 2.231206e-01 2.321170e-01 2.373550e-01 2.459806e-01 2.498172e-01 2.578408e-01 2.600984e-01 2.673183e-01 2.678692e-01 2.741248e-01 2.729042e-01 2.780855e-01 2.751024e-01 2.791537e-01 2.744984e-01 2.774183e-01 2.712663e-01 2.731008e-01 2.657145e-01 2.665472e-01 2.582744e-01 2.582130e-01 2.494827e-01 2.486449e-01 2.399575e-01 2.384580e-01 2.303677e-01 2.283085e-01 2.213921e-01 2.188594e-01 2.136680e-01 2.107359e-01 2.077295e-01 2.044718e-01 2.039447e-01 2.004514e-01 2.024684e-01 1.988604e-01 2.032276e-01 1.996639e-01 2.059463e-01 2.026204e-01 2.102018e-01 2.073268e-01 2.154906e-01 2.132781e-01 2.212850e-01 2.199220e-01 2.270728e-01 2.266996e-01 2.323793e-01 2.330707e-01 2.367775e-01 2.385293e-01 2.398925e-01 2.426129e-01 2.414032e-01 2.449116e-01 2.410461e-01 2.450781e-01 2.386188e-01 2.428388e-01 2.339866e-01 2.380060e-01 2.270877e-01 2.304888e-01 2.179386e-01 2.203020e-01 2.066355e-01 2.075696e-01 1.933529e-01 1.925234e-01 1.783355e-01 1.754937e-01 1.618870e-01 1.568938e-01 1.443523e-01 1.371987e-01 1.260991e-01 1.169180e-01 1.074981e-01 9.656762e-02 8.890712e-02 7.663967e-02 7.065951e-02 5.757608e-02 5.305913e-02 3.974927e-02 3.638753e-02 2.346996e-02 2.096404e-02 9.235873e-03 7.887769e-03 6.275553e-03 9.250608e-03 1.689505e-02 2.020048e-02 2.691742e-02 3.073767e-02 3.596012e-02 4.045926e-02 4.432919e-02 4.957762e-02 5.244573e-02 5.844765e-02 6.076714e-02 6.748111e-02 6.973066e-02 7.708569e-02 7.970085e-02 8.760785e-02 9.092973e-02 9.928784e-02 