# vtk DataFile Version 2.0
Comment goes here
ASCII

DATASET STRUCTURED_POINTS
FIELD FieldData 1
TIME 1 1 double
0.06000000
DIMENSIONS    128   128   1

ORIGIN    0.000   0.000   0.000
SPACING   0.039062 0.039062   1.000

POINT_DATA   16384
SCALARS uMag double
LOOKUP_TABLE default

1.802194e-01 2.124150e-01 2.423595e-01 2.735727e-01 3.026445e-01 3.326825e-01 3.606786e-01 3.893466e-01 4.160593e-01 4.431589e-01 4.683751e-01 4.937034e-01 5.172049e-01 5.405548e-01 5.621195e-01 5.832810e-01 6.026852e-01 6.214472e-01 6.384691e-01 6.546230e-01 6.690470e-01 6.823900e-01 6.940117e-01 7.043521e-01 7.129840e-01 7.201457e-01 7.256229e-01 7.294511e-01 7.316364e-01 7.320023e-01 7.307916e-01 7.275976e-01 7.229235e-01 7.161071e-01 7.079419e-01 6.974791e-01 6.858369e-01 6.717450e-01 6.566818e-01 6.390205e-01 6.206340e-01 5.995066e-01 5.779349e-01 5.534878e-01 5.289076e-01 5.013297e-01 4.739541e-01 4.434753e-01 4.135521e-01 3.804413e-01 3.482508e-01 3.128146e-01 2.786680e-01 2.412481e-01 2.054863e-01 1.664570e-01 1.294492e-01 8.921545e-02 5.135715e-02 1.035126e-02 2.793772e-02 6.925922e-02 1.075380e-01 1.486987e-01 1.865098e-01 2.270184e-01 2.638939e-01 3.032508e-01 3.387199e-01 3.764246e-01 4.100233e-01 4.455832e-01 4.768650e-01 5.098060e-01 5.383537e-01 5.682311e-01 5.936694e-01 6.200796e-01 6.420862e-01 6.646787e-01 6.829951e-01 7.014835e-01 7.159222e-01 7.300933e-01 7.405427e-01 7.502635e-01 7.566886e-01 7.619093e-01 7.643482e-01 7.651018e-01 7.636587e-01 7.600567e-01 7.548920e-01 7.471155e-01 7.384341e-01 7.267232e-01 7.147621e-01 6.994025e-01 6.844193e-01 6.657291e-01 6.479922e-01 6.263088e-01 6.060893e-01 5.817585e-01 5.593251e-01 5.326917e-01 5.083072e-01 4.797085e-01 4.536279e-01 4.233887e-01 3.958592e-01 3.642889e-01 3.355495e-01 3.029411e-01 2.732231e-01 2.398525e-01 2.093799e-01 1.755062e-01 1.444965e-01 1.103634e-01 7.902775e-02 4.486489e-02 1.340909e-02 2.056616e-02 5.194064e-02 8.552090e-02 1.166157e-01 1.496011e-01 
1.826466e-01 2.144446e-01 2.440587e-01 2.750666e-01 3.039248e-01 3.338486e-01 3.616896e-01 3.902941e-01 4.168849e-01 4.439525e-01 4.690676e-01 4.943855e-01 5.177998e-01 5.411554e-01 5.626430e-01 5.838228e-01 6.031579e-01 6.219489e-01 6.389082e-01 6.551003e-01 6.694675e-01 6.828573e-01 6.944277e-01 7.048228e-01 7.134087e-01 7.206329e-01 7.260694e-01 7.299678e-01 7.321183e-01 7.325621e-01 7.313229e-01 7.282149e-01 7.235195e-01 7.167975e-01 7.086195e-01 6.982603e-01 6.866150e-01 6.726367e-01 6.575822e-01 6.400461e-01 6.216823e-01 6.006940e-01 5.791624e-01 5.548716e-01 5.303538e-01 5.029549e-01 4.756717e-01 4.454039e-01 4.156161e-01 3.827664e-01 3.507786e-01 3.156897e-01 2.818657e-01 2.449651e-01 2.097806e-01 1.716978e-01 1.359928e-01 9.828420e-02 6.550163e-02 4.123233e-02 4.809918e-02 7.905870e-02 1.137810e-01 1.529683e-01 1.897153e-01 2.294400e-01 2.658108e-01 3.047578e-01 3.399302e-01 3.773973e-01 4.107991e-01 4.462220e-01 4.773631e-01 5.102359e-01 5.386788e-01 5.685408e-01 5.938989e-01 6.203372e-01 6.422822e-01 6.649399e-01 6.832093e-01 7.017946e-01 7.161982e-01 7.304929e-01 7.409170e-01 7.507830e-01 7.571906e-01 7.625726e-01 7.649998e-01 7.659254e-01 7.644743e-01 7.610491e-01 7.558781e-01 7.482782e-01 7.395902e-01 7.280508e-01 7.160814e-01 7.008844e-01 6.858906e-01 6.673516e-01 6.496017e-01 6.280571e-01 6.078239e-01 5.836202e-01 5.611750e-01 5.346596e-01 5.102696e-01 4.817848e-01 4.557118e-01 4.255906e-01 3.980914e-01 3.666569e-01 3.379864e-01 3.055551e-01 2.759741e-01 2.428695e-01 2.126664e-01 1.792643e-01 1.488394e-01 1.157758e-01 8.613162e-02 5.605354e-02 3.556505e-02 3.835239e-02 6.087686e-02 9.106246e-02 1.205817e-01 1.526409e-01 
1.915684e-01 2.221318e-01 2.508734e-01 2.811499e-01 3.094797e-01 3.389212e-01 3.664225e-01 3.946851e-01 4.210520e-01 4.478651e-01 4.728333e-01 4.979549e-01 5.212770e-01 5.444773e-01 5.659131e-01 5.869678e-01 6.062818e-01 6.249705e-01 6.419327e-01 6.580404e-01 6.724291e-01 6.857487e-01 6.973554e-01 7.076918e-01 7.163259e-01 7.235009e-01 7.289955e-01 7.328529e-01 7.350700e-01 7.354805e-01 7.343161e-01 7.311821e-01 7.265702e-01 7.198304e-01 7.117462e-01 7.013790e-01 6.898405e-01 6.758670e-01 6.609365e-01 6.434230e-01 6.252068e-01 6.042661e-01 5.829149e-01 5.587087e-01 5.344180e-01 5.071591e-01 4.801718e-01 4.501305e-01 4.207447e-01 3.882622e-01 3.568520e-01 3.223766e-01 2.894482e-01 2.536397e-01 2.200108e-01 1.841105e-01 1.516233e-01 1.191745e-01 9.444806e-02 8.002561e-02 8.434076e-02 1.055872e-01 1.339733e-01 1.688815e-01 2.030405e-01 2.408517e-01 2.759340e-01 3.138492e-01 3.482755e-01 3.851088e-01 4.180340e-01 4.530267e-01 4.838410e-01 5.163952e-01 5.446004e-01 5.742054e-01 5.993810e-01 6.255946e-01 6.473920e-01 6.698388e-01 6.879830e-01 7.063595e-01 7.206533e-01 7.347345e-01 7.450607e-01 7.547051e-01 7.610262e-01 7.661788e-01 7.685326e-01 7.692236e-01 7.677153e-01 7.640559e-01 7.588479e-01 7.510211e-01 7.423203e-01 7.305699e-01 7.186157e-01 7.032325e-01 6.882848e-01 6.695934e-01 6.519230e-01 6.302688e-01 6.101504e-01 5.858884e-01 5.635960e-01 5.370834e-01 5.128890e-01 4.844801e-01 4.586543e-01 4.287002e-01 4.015178e-01 3.703720e-01 3.421229e-01 3.101593e-01 2.811766e-01 2.488385e-01 2.195747e-01 1.875254e-01 1.588140e-01 1.285252e-01 1.027672e-01 7.954980e-02 6.686068e-02 6.866609e-02 8.345028e-02 1.076210e-01 1.335718e-01 1.631727e-01 
2.044959e-01 2.333537e-01 2.607402e-01 2.899875e-01 3.174312e-01 3.462097e-01 3.730925e-01 4.009094e-01 4.268243e-01 4.533313e-01 4.779588e-01 5.028704e-01 5.259305e-01 5.489910e-01 5.702235e-01 5.911922e-01 6.103483e-01 6.289943e-01 6.458349e-01 6.619357e-01 6.762327e-01 6.895762e-01 7.011166e-01 7.115042e-01 7.200944e-01 7.273455e-01 7.328167e-01 7.367737e-01 7.389875e-01 7.395205e-01 7.383738e-01 7.353858e-01 7.308147e-01 7.242459e-01 7.162294e-01 7.060612e-01 6.946228e-01 6.808811e-01 6.660908e-01 6.488494e-01 6.308243e-01 6.102073e-01 5.891133e-01 5.652996e-01 5.413541e-01 5.145839e-01 4.880639e-01 4.586520e-01 4.299113e-01 3.982762e-01 3.677871e-01 3.345202e-01 3.029770e-01 2.690252e-01 2.376351e-01 2.048484e-01 1.762496e-01 1.491741e-01 1.302356e-01 1.200002e-01 1.228095e-01 1.380458e-01 1.606650e-01 1.905662e-01 2.212738e-01 2.562725e-01 2.893720e-01 3.256317e-01 3.588206e-01 3.946159e-01 4.267089e-01 4.610266e-01 4.912481e-01 5.233604e-01 5.511242e-01 5.804483e-01 6.052836e-01 6.313331e-01 6.528609e-01 6.752310e-01 6.931572e-01 7.115232e-01 7.256388e-01 7.397590e-01 7.499392e-01 7.596587e-01 7.658617e-01 7.711144e-01 7.733753e-01 7.741828e-01 7.726054e-01 7.690724e-01 7.638182e-01 7.561237e-01 7.473994e-01 7.357855e-01 7.238308e-01 7.085894e-01 6.936651e-01 6.751243e-01 6.575037e-01 6.360153e-01 6.159776e-01 5.919066e-01 5.697337e-01 5.434517e-01 5.194281e-01 4.913102e-01 4.657273e-01 4.361564e-01 4.093224e-01 3.787027e-01 3.509652e-01 3.197581e-01 2.915551e-01 2.603677e-01 2.323599e-01 2.021897e-01 1.756506e-01 1.486518e-01 1.267422e-01 1.085735e-01 9.929703e-02 1.003571e-01 1.106963e-01 1.297980e-01 1.517957e-01 1.783516e-01 
2.223989e-01 2.492288e-01 2.750285e-01 3.029213e-01 3.292976e-01 3.571357e-01 3.832812e-01 4.104203e-01 4.358173e-01 4.618215e-01 4.860845e-01 5.106160e-01 5.334237e-01 5.561937e-01 5.772584e-01 5.980049e-01 6.170590e-01 6.355362e-01 6.523266e-01 6.683018e-01 6.825904e-01 6.958438e-01 7.074095e-01 7.177371e-01 7.263806e-01 7.335978e-01 7.391464e-01 7.430929e-01 7.454061e-01 7.459506e-01 7.449249e-01 7.419704e-01 7.375438e-01 7.310322e-01 7.231874e-01 7.131036e-01 7.018710e-01 6.882474e-01 6.737066e-01 6.566268e-01 6.389085e-01 6.185124e-01 5.978019e-01 5.742919e-01 5.508350e-01 5.244875e-01 4.986037e-01 4.697912e-01 4.419020e-01 4.111371e-01 3.818276e-01 3.498631e-01 3.200228e-01 2.880866e-01 2.592548e-01 2.296382e-01 2.048480e-01 1.822382e-01 1.674889e-01 1.599439e-01 1.624922e-01 1.746421e-01 1.933977e-01 2.192135e-01 2.466852e-01 2.788182e-01 3.097690e-01 3.441577e-01 3.759220e-01 4.104632e-01 4.415749e-01 4.750152e-01 5.045313e-01 5.360011e-01 5.632356e-01 5.920655e-01 6.164865e-01 6.421346e-01 6.633240e-01 6.853483e-01 7.029875e-01 7.210377e-01 7.349027e-01 7.487196e-01 7.586785e-01 7.680967e-01 7.741056e-01 7.790544e-01 7.811509e-01 7.816527e-01 7.799459e-01 7.761111e-01 7.707693e-01 7.627868e-01 7.540239e-01 7.421487e-01 7.302105e-01 7.147493e-01 6.999021e-01 6.811987e-01 6.637203e-01 6.421428e-01 6.223168e-01 5.982473e-01 5.763619e-01 5.501914e-01 5.265416e-01 4.986702e-01 4.735666e-01 4.444127e-01 4.181981e-01 3.882223e-01 3.613059e-01 3.310639e-01 3.039943e-01 2.742576e-01 2.478930e-01 2.199395e-01 1.958671e-01 1.721862e-01 1.536837e-01 1.392268e-01 1.320970e-01 1.330363e-01 1.409538e-01 1.565036e-01 1.751361e-01 1.986575e-01 
2.427867e-01 2.675810e-01 2.916129e-01 3.180695e-01 3.431645e-01 3.699883e-01 3.951909e-01 4.216046e-01 4.462951e-01 4.717764e-01 4.955030e-01 5.196590e-01 5.420571e-01 5.645633e-01 5.853160e-01 6.058863e-01 6.247055e-01 6.430777e-01 6.596959e-01 6.756255e-01 6.897935e-01 7.030525e-01 7.145413e-01 7.249197e-01 7.335243e-01 7.408334e-01 7.463776e-01 7.504545e-01 7.527965e-01 7.535089e-01 7.525463e-01 7.497976e-01 7.454717e-01 7.392063e-01 7.315061e-01 7.217136e-01 7.106784e-01 6.973989e-01 6.831209e-01 6.664500e-01 6.490773e-01 6.291724e-01 6.089134e-01 5.860033e-01 5.631360e-01 5.375366e-01 5.124274e-01 4.845705e-01 4.577101e-01 4.282007e-01 4.002795e-01 3.700111e-01 3.420745e-01 3.124722e-01 2.862450e-01 2.597591e-01 2.382430e-01 2.190937e-01 2.070639e-01 2.009476e-01 2.030000e-01 2.127605e-01 2.283741e-01 2.505262e-01 2.748231e-01 3.039324e-01 3.324771e-01 3.646979e-01 3.947308e-01 4.277569e-01 4.576100e-01 4.899928e-01 5.185701e-01 5.493049e-01 5.758193e-01 6.041474e-01 6.280008e-01 6.533195e-01 6.740506e-01 6.958744e-01 7.131363e-01 7.310818e-01 7.446325e-01 7.584147e-01 7.681114e-01 7.775439e-01 7.833369e-01 7.883325e-01 7.902568e-01 7.908257e-01 7.889899e-01 7.852348e-01 7.798075e-01 7.719142e-01 7.631098e-01 7.513344e-01 7.394001e-01 7.240548e-01 7.092585e-01 6.906964e-01 6.733193e-01 6.519218e-01 6.322537e-01 6.084204e-01 5.867600e-01 5.609051e-01 5.375647e-01 5.101193e-01 4.854368e-01 4.568627e-01 4.312233e-01 4.020439e-01 3.759230e-01 3.467877e-01 3.208355e-01 2.926527e-01 2.678704e-01 2.420824e-01 2.201806e-01 1.992718e-01 1.832294e-01 1.711712e-01 1.651193e-01 1.657924e-01 1.719303e-01 1.848490e-01 2.006368e-01 2.214487e-01 
2.666096e-01 2.894008e-01 3.117105e-01 3.366142e-01 3.604058e-01 3.860547e-01 4.102878e-01 4.358117e-01 4.597860e-01 4.845893e-01 5.077924e-01 5.314297e-01 5.534530e-01 5.755632e-01 5.960581e-01 6.163292e-01 6.349839e-01 6.531351e-01 6.696641e-01 6.854372e-01 6.995771e-01 7.127339e-01 7.242450e-01 7.345677e-01 7.432366e-01 7.505309e-01 7.561758e-01 7.602751e-01 7.627510e-01 7.635209e-01 7.627251e-01 7.600688e-01 7.559454e-01 7.498092e-01 7.423532e-01 7.327316e-01 7.219918e-01 7.089334e-01 6.950158e-01 6.786293e-01 6.617006e-01 6.421635e-01 6.224575e-01 6.000281e-01 5.778574e-01 5.528945e-01 5.286733e-01 5.016711e-01 4.759576e-01 4.476106e-01 4.211882e-01 3.925113e-01 3.665409e-01 3.390920e-01 3.153796e-01 2.916200e-01 2.729726e-01 2.565774e-01 2.467716e-01 2.418989e-01 2.440086e-01 2.524910e-01 2.661614e-01 2.857292e-01 3.075950e-01 3.341932e-01 3.606450e-01 3.908666e-01 4.192818e-01 4.508029e-01 4.794330e-01 5.106898e-01 5.383337e-01 5.682139e-01 5.939984e-01 6.216607e-01 6.449244e-01 6.697046e-01 6.899414e-01 7.113082e-01 7.281412e-01 7.456770e-01 7.588458e-01 7.722405e-01 7.815934e-01 7.906441e-01 7.961306e-01 8.007415e-01 8.024018e-01 8.025831e-01 8.005349e-01 7.963963e-01 7.908194e-01 7.825605e-01 7.736806e-01 7.615761e-01 7.496496e-01 7.340332e-01 7.193357e-01 7.005833e-01 6.834011e-01 6.619171e-01 6.425446e-01 6.187519e-01 5.974940e-01 5.718315e-01 5.490116e-01 5.219401e-01 4.979156e-01 4.699356e-01 4.451258e-01 4.168145e-01 3.917486e-01 3.638301e-01 3.392355e-01 3.127104e-01 2.896732e-01 2.660430e-01 2.462692e-01 2.278352e-01 2.138923e-01 2.037422e-01 1.985967e-01 1.992391e-01 2.042717e-01 2.153237e-01 2.289249e-01 2.474141e-01 
2.918189e-01 3.128010e-01 3.333831e-01 3.568113e-01 3.792065e-01 4.037091e-01 4.268420e-01 4.514919e-01 4.746068e-01 4.987510e-01 5.212861e-01 5.444336e-01 5.659417e-01 5.876976e-01 6.078005e-01 6.278279e-01 6.461913e-01 6.641910e-01 6.805118e-01 6.962122e-01 7.102136e-01 7.233661e-01 7.347976e-01 7.451769e-01 7.538174e-01 7.612239e-01 7.668867e-01 7.711501e-01 7.736882e-01 7.746725e-01 7.739843e-01 7.715932e-01 7.676272e-01 7.618097e-01 7.545687e-01 7.453250e-01 7.348698e-01 7.222577e-01 7.087103e-01 6.928525e-01 6.764005e-01 6.574950e-01 6.383988e-01 6.167324e-01 5.953390e-01 5.713106e-01 5.480780e-01 5.222361e-01 4.977780e-01 4.708862e-01 4.460503e-01 4.191983e-01 3.951975e-01 3.699783e-01 3.485798e-01 3.273086e-01 3.109925e-01 2.967432e-01 2.884477e-01 2.842982e-01 2.861810e-01 2.934361e-01 3.053098e-01 3.224979e-01 3.420107e-01 3.661165e-01 3.903737e-01 4.184762e-01 4.450769e-01 4.749405e-01 5.021276e-01 5.321361e-01 5.586377e-01 5.876008e-01 6.124718e-01 6.394775e-01 6.619985e-01 6.863251e-01 7.059469e-01 7.270168e-01 7.433322e-01 7.606891e-01 7.734182e-01 7.867197e-01 7.956995e-01 8.047154e-01 8.098902e-01 8.145030e-01 8.159119e-01 8.161157e-01 8.138772e-01 8.097725e-01 8.040678e-01 7.958515e-01 7.869076e-01 7.748584e-01 7.629325e-01 7.473938e-01 7.327625e-01 7.141252e-01 6.970775e-01 6.757650e-01 6.566010e-01 6.330598e-01 6.120945e-01 5.867916e-01 5.643655e-01 5.377955e-01 5.142920e-01 4.869972e-01 4.628723e-01 4.354813e-01 4.113123e-01 3.846083e-01 3.611758e-01 3.362081e-01 3.146253e-01 2.928709e-01 2.747481e-01 2.582468e-01 2.457376e-01 2.368853e-01 2.321800e-01 2.326937e-01 2.367425e-01 2.463327e-01 2.580653e-01 2.746086e-01 
3.194959e-01 3.387928e-01 3.578142e-01 3.797624e-01 4.008478e-01 4.241313e-01 4.462177e-01 4.698913e-01 4.921947e-01 5.155680e-01 5.374896e-01 5.600353e-01 5.810942e-01 6.023868e-01 6.221761e-01 6.418546e-01 6.600166e-01 6.777630e-01 6.939750e-01 7.095028e-01 7.234718e-01 7.365209e-01 7.479833e-01 7.583197e-01 7.670441e-01 7.744612e-01 7.802536e-01 7.845764e-01 7.872857e-01 7.883754e-01 7.878995e-01 7.856591e-01 7.819498e-01 7.763301e-01 7.693977e-01 7.604037e-01 7.503207e-01 7.380190e-01 7.249236e-01 7.094513e-01 6.935521e-01 6.751277e-01 6.567118e-01 6.356516e-01 6.150991e-01 5.918415e-01 5.696508e-01 5.447953e-01 5.216272e-01 4.959971e-01 4.727456e-01 4.474841e-01 4.253819e-01 4.020821e-01 3.828208e-01 3.636356e-01 3.493958e-01 3.369251e-01 3.300444e-01 3.266532e-01 3.287062e-01 3.353395e-01 3.461815e-01 3.617741e-01 3.796525e-01 4.018680e-01 4.244343e-01 4.507800e-01 4.758886e-01 5.042774e-01 5.302279e-01 5.590485e-01 5.845428e-01 6.125595e-01 6.366034e-01 6.628489e-01 6.846740e-01 7.083751e-01 7.273917e-01 7.479254e-01 7.636969e-01 7.805696e-01 7.927977e-01 8.056370e-01 8.141519e-01 8.227063e-01 8.274550e-01 8.315955e-01 8.326277e-01 8.323479e-01 8.297981e-01 8.252084e-01 8.192756e-01 8.105925e-01 8.015203e-01 7.890487e-01 7.771078e-01 7.612212e-01 7.466969e-01 7.278165e-01 7.110023e-01 6.895805e-01 6.707780e-01 6.472880e-01 6.268140e-01 6.017480e-01 5.799480e-01 5.538265e-01 5.310952e-01 5.044889e-01 4.813024e-01 4.548716e-01 4.318341e-01 4.063908e-01 3.843055e-01 3.609024e-01 3.408663e-01 3.208965e-01 3.043840e-01 2.896048e-01 2.784046e-01 2.706658e-01 2.664252e-01 2.669177e-01 2.703126e-01 2.787887e-01 2.890768e-01 3.039669e-01 
3.479693e-01 3.658122e-01 3.833209e-01 4.039417e-01 4.236894e-01 4.458511e-01 4.668137e-01 4.895783e-01 5.109647e-01 5.336222e-01 5.548113e-01 5.768085e-01 5.972940e-01 6.181812e-01 6.375330e-01 6.569287e-01 6.747685e-01 6.923379e-01 7.083256e-01 7.237687e-01 7.375964e-01 7.506428e-01 7.620346e-01 7.724418e-01 7.811570e-01 7.887125e-01 7.945507e-01 7.990753e-01 8.018825e-01 8.032354e-01 8.029104e-01 8.009945e-01 7.974945e-01 7.922629e-01 7.856076e-01 7.770710e-01 7.673467e-01 7.555809e-01 7.429437e-01 7.280995e-01 7.127802e-01 6.950956e-01 6.774072e-01 6.572245e-01 6.375765e-01 6.153664e-01 5.942888e-01 5.706882e-01 5.488709e-01 5.247371e-01 5.030888e-01 4.795745e-01 4.592978e-01 4.379337e-01 4.205866e-01 4.033093e-01 3.907592e-01 3.797358e-01 3.738397e-01 3.709168e-01 3.728659e-01 3.787814e-01 3.884972e-01 4.025053e-01 4.186861e-01 4.389894e-01 4.597402e-01 4.842443e-01 5.076768e-01 5.344793e-01 5.589821e-01 5.865193e-01 6.107960e-01 6.378176e-01 6.608421e-01 6.863448e-01 7.073101e-01 7.304794e-01 7.487613e-01 7.689339e-01 7.840697e-01 8.007131e-01 8.123877e-01 8.250936e-01 8.331286e-01 8.416129e-01 8.459535e-01 8.500600e-01 8.507581e-01 8.504600e-01 8.476535e-01 8.430497e-01 8.369406e-01 8.282450e-01 8.190780e-01 8.066025e-01 7.946474e-01 7.787800e-01 7.643208e-01 7.455036e-01 7.288334e-01 7.075439e-01 6.889672e-01 6.657063e-01 6.455476e-01 6.208373e-01 5.994553e-01 5.738474e-01 5.516566e-01 5.257537e-01 5.032538e-01 4.777458e-01 4.555642e-01 4.312798e-01 4.102274e-01 3.881995e-01 3.693326e-01 3.508492e-01 3.354972e-01 3.220620e-01 3.117166e-01 3.047828e-01 3.007226e-01 3.011522e-01 3.038868e-01 3.114681e-01 3.204618e-01 3.339890e-01 
3.783893e-01 3.948788e-01 4.110660e-01 4.303866e-01 4.489353e-01 4.699484e-01 4.898947e-01 5.116916e-01 5.322559e-01 5.541226e-01 5.746728e-01 5.960396e-01 6.160503e-01 6.364477e-01 6.554680e-01 6.744958e-01 6.921269e-01 7.094341e-01 7.253171e-01 7.405897e-01 7.543998e-01 7.673559e-01 7.788025e-01 7.891903e-01 7.980205e-01 8.056202e-01 8.116246e-01 8.162515e-01 8.192711e-01 8.207805e-01 8.207132e-01 8.190066e-01 8.158130e-01 8.108444e-01 8.045527e-01 7.963363e-01 7.870458e-01 7.756654e-01 7.635498e-01 7.491688e-01 7.344800e-01 7.173549e-01 7.004308e-01 6.809288e-01 6.622057e-01 6.408284e-01 6.208636e-01 5.982816e-01 5.777867e-01 5.548856e-01 5.347734e-01 5.127089e-01 4.941439e-01 4.743859e-01 4.588035e-01 4.431117e-01 4.321333e-01 4.223576e-01 4.174996e-01 4.151295e-01 4.173186e-01 4.229295e-01 4.320994e-01 4.451082e-01 4.602285e-01 4.791781e-01 4.986743e-01 5.217687e-01 5.439712e-01 5.694775e-01 5.928754e-01 6.192938e-01 6.426124e-01 6.686964e-01 6.908920e-01 7.156135e-01 7.358470e-01 7.583558e-01 7.759703e-01 7.955640e-01 8.100705e-01 8.261790e-01 8.372471e-01 8.494285e-01 8.568768e-01 8.648216e-01 8.686047e-01 8.721424e-01 8.723318e-01 8.714352e-01 8.681952e-01 8.629776e-01 8.565381e-01 8.472417e-01 8.378721e-01 8.248459e-01 8.128344e-01 7.965078e-01 7.821478e-01 7.630027e-01 7.465884e-01 7.251368e-01 7.069681e-01 6.837382e-01 6.641322e-01 6.396668e-01 6.189762e-01 5.938421e-01 5.724786e-01 5.472888e-01 5.257530e-01 5.011998e-01 4.801177e-01 4.570157e-01 4.371801e-01 4.165085e-01 3.989135e-01 3.818319e-01 3.676617e-01 3.554374e-01 3.459401e-01 3.397128e-01 3.359013e-01 3.362991e-01 3.385736e-01 3.454086e-01 3.533800e-01 3.657065e-01 
4.093259e-01 4.246840e-01 4.395981e-01 4.577969e-01 4.751432e-01 4.951419e-01 5.140237e-01 5.349550e-01 5.546170e-01 5.757760e-01 5.955873e-01 6.163976e-01 6.358228e-01 6.558030e-01 6.743764e-01 6.931125e-01 7.104197e-01 7.275476e-01 7.432134e-01 7.584078e-01 7.720926e-01 7.850616e-01 7.964615e-01 8.069453e-01 8.157965e-01 8.235690e-01 8.296544e-01 8.345264e-01 8.376831e-01 8.395075e-01 8.396340e-01 8.383114e-01 8.353741e-01 8.308600e-01 8.248978e-01 8.172109e-01 8.083382e-01 7.975698e-01 7.859793e-01 7.723047e-01 7.582702e-01 7.419618e-01 7.258439e-01 7.072888e-01 6.895453e-01 6.692670e-01 6.504712e-01 6.291592e-01 6.100262e-01 5.885706e-01 5.699908e-01 5.495175e-01 5.325842e-01 5.144675e-01 5.004682e-01 4.862742e-01 4.765921e-01 4.678869e-01 4.637586e-01 4.617568e-01 4.639214e-01 4.690984e-01 4.775220e-01 4.894448e-01 5.033259e-01 5.208327e-01 5.388755e-01 5.604486e-01 5.811936e-01 6.052835e-01 6.273332e-01 6.525311e-01 6.746508e-01 6.997407e-01 7.208854e-01 7.448363e-01 7.641472e-01 7.860888e-01 8.028856e-01 8.220859e-01 8.358604e-01 8.517145e-01 8.621248e-01 8.741529e-01 8.810152e-01 8.888701e-01 8.921435e-01 8.956206e-01 8.953850e-01 8.944311e-01 8.908589e-01 8.855725e-01 8.788983e-01 8.695192e-01 8.600124e-01 8.469002e-01 8.348447e-01 8.184496e-01 8.041327e-01 7.849647e-01 7.686758e-01 7.472787e-01 7.293161e-01 7.062503e-01 6.869348e-01 6.627730e-01 6.424658e-01 6.178009e-01 5.969262e-01 5.723905e-01 5.514610e-01 5.277544e-01 5.074001e-01 4.853227e-01 4.663184e-01 4.467955e-01 4.300738e-01 4.141474e-01 4.007654e-01 3.895106e-01 3.805253e-01 3.748520e-01 3.710849e-01 3.714605e-01 3.732324e-01 3.794836e-01 3.864979e-01 3.978556e-01 
4.419373e-01 4.562125e-01 4.700308e-01 4.871264e-01 5.034251e-01 5.223980e-01 5.403531e-01 5.603852e-01 5.792740e-01 5.996776e-01 6.188772e-01 6.390755e-01 6.580451e-01 6.775477e-01 6.958090e-01 7.141900e-01 7.313127e-01 7.481951e-01 7.637873e-01 7.788338e-01 7.925386e-01 8.054468e-01 8.169441e-01 8.274451e-01 8.364572e-01 8.443175e-01 8.506164e-01 8.556408e-01 8.590570e-01 8.610938e-01 8.615240e-01 8.604708e-01 8.578850e-01 8.536965e-01 8.481426e-01 8.408391e-01 8.324456e-01 8.221236e-01 8.111013e-01 7.979455e-01 7.845889e-01 7.688860e-01 7.535773e-01 7.357330e-01 7.189494e-01 6.995089e-01 6.818372e-01 6.615085e-01 6.436651e-01 6.233453e-01 6.061982e-01 5.869912e-01 5.715720e-01 5.547787e-01 5.422569e-01 5.292999e-01 5.208811e-01 5.131237e-01 5.098454e-01 5.083061e-01 5.107717e-01 5.158380e-01 5.240174e-01 5.353273e-01 5.485572e-01 5.651278e-01 5.823010e-01 6.028057e-01 6.226210e-01 6.456509e-01 6.668060e-01 6.910309e-01 7.123289e-01 7.365626e-01 7.569568e-01 7.801667e-01 7.987764e-01 8.200712e-01 8.361879e-01 8.548040e-01 8.678952e-01 8.831900e-01 8.929009e-01 9.043575e-01 9.105066e-01 9.177462e-01 9.203117e-01 9.231114e-01 9.222062e-01 9.205127e-01 9.163510e-01 9.102841e-01 9.031436e-01 8.929839e-01 8.831711e-01 8.693322e-01 8.571556e-01 8.401453e-01 8.259020e-01 8.062825e-01 7.902570e-01 7.686122e-01 7.510875e-01 7.280034e-01 7.092794e-01 6.853401e-01 6.657568e-01 6.415542e-01 6.215167e-01 5.976713e-01 5.776747e-01 5.548615e-01 5.355139e-01 5.144878e-01 4.965260e-01 4.781338e-01 4.624197e-01 4.475780e-01 4.350529e-01 4.246641e-01 4.162333e-01 4.110246e-01 4.073729e-01 4.076964e-01 4.090983e-01 4.147991e-01 4.210374e-01 4.314867e-01 
4.749506e-01 4.883533e-01 5.011106e-01 5.172881e-01 5.325396e-01 5.506389e-01 5.676309e-01 5.868869e-01 6.049361e-01 6.246865e-01 6.431863e-01 6.628626e-01 6.812748e-01 7.003845e-01 7.182249e-01 7.363355e-01 7.531626e-01 7.698886e-01 7.852968e-01 8.002917e-01 8.139095e-01 8.268625e-01 8.383555e-01 8.489905e-01 8.580682e-01 8.661456e-01 8.725706e-01 8.778908e-01 8.814883e-01 8.838964e-01 8.845632e-01 8.839552e-01 8.816673e-01 8.779977e-01 8.728149e-01 8.661062e-01 8.581736e-01 8.485274e-01 8.380757e-01 8.256849e-01 8.130298e-01 7.981925e-01 7.837351e-01 7.668702e-01 7.511013e-01 7.327659e-01 7.162745e-01 6.971815e-01 6.806680e-01 6.617014e-01 6.459900e-01 6.282078e-01 6.142455e-01 5.988536e-01 5.876768e-01 5.759463e-01 5.685875e-01 5.616944e-01 5.590189e-01 5.578209e-01 5.603286e-01 5.651551e-01 5.728350e-01 5.834010e-01 5.957198e-01 6.112133e-01 6.272409e-01 6.465239e-01 6.651159e-01 6.869323e-01 7.068912e-01 7.300111e-01 7.501922e-01 7.734848e-01 7.928555e-01 8.153109e-01 8.329831e-01 8.537105e-01 8.689602e-01 8.871799e-01 8.994616e-01 9.145020e-01 9.234563e-01 9.347613e-01 9.402129e-01 9.473595e-01 9.493013e-01 9.520235e-01 9.505872e-01 9.487970e-01 9.442121e-01 9.380095e-01 9.305612e-01 9.202247e-01 9.102170e-01 8.961760e-01 8.839070e-01 8.666996e-01 8.524531e-01 8.326804e-01 8.167293e-01 7.950162e-01 7.776374e-01 7.546077e-01 7.361012e-01 7.123692e-01 6.930806e-01 6.692584e-01 6.496007e-01 6.263159e-01 6.067892e-01 5.847073e-01 5.659140e-01 5.457563e-01 5.284066e-01 5.109537e-01 4.958503e-01 4.819129e-01 4.698999e-01 4.602408e-01 4.521003e-01 4.473050e-01 4.436119e-01 4.439423e-01 4.449262e-01 4.502323e-01 4.557214e-01 4.654691e-01 
5.094901e-01 5.220157e-01 5.338654e-01 5.491192e-01 5.634775e-01 5.806901e-01 5.968719e-01 6.153305e-01 6.326925e-01 6.517619e-01 6.697170e-01 6.888381e-01 7.068521e-01 7.255319e-01 7.431152e-01 7.609145e-01 7.776142e-01 7.941382e-01 8.095331e-01 8.244256e-01 8.381267e-01 8.510674e-01 8.627227e-01 8.734271e-01 8.827297e-01 8.909509e-01 8.976499e-01 9.031822e-01 9.070940e-01 9.097769e-01 9.107953e-01 9.105203e-01 9.086246e-01 9.053427e-01 9.006023e-01 8.943345e-01 8.869097e-01 8.777587e-01 8.678994e-01 8.560631e-01 8.441053e-01 8.298914e-01 8.162549e-01 8.000952e-01 7.852840e-01 7.677496e-01 7.523560e-01 7.341697e-01 7.188819e-01 7.009243e-01 6.865312e-01 6.698329e-01 6.572161e-01 6.429189e-01 6.330156e-01 6.222857e-01 6.160038e-01 6.098866e-01 6.079697e-01 6.072056e-01 6.100776e-01 6.149404e-01 6.225929e-01 6.328272e-01 6.448053e-01 6.596948e-01 6.751838e-01 6.937090e-01 7.116734e-01 7.326818e-01 7.519985e-01 7.743324e-01 7.938904e-01 8.164581e-01 8.352247e-01 8.570282e-01 8.740929e-01 8.942318e-01 9.088393e-01 9.265073e-01 9.380844e-01 9.525711e-01 9.607444e-01 9.714493e-01 9.760507e-01 9.825096e-01 9.835633e-01 9.854835e-01 9.831730e-01 9.804658e-01 9.750859e-01 9.678819e-01 9.597841e-01 9.484228e-01 9.379660e-01 9.229564e-01 9.104734e-01 8.924362e-01 8.782195e-01 8.578255e-01 8.421339e-01 8.200544e-01 8.031332e-01 7.800124e-01 7.621221e-01 7.385708e-01 7.200171e-01 6.966252e-01 6.777851e-01 6.551441e-01 6.364852e-01 6.152113e-01 5.973029e-01 5.780532e-01 5.615626e-01 5.450330e-01 5.307023e-01 5.175967e-01 5.061882e-01 4.971486e-01 4.893536e-01 4.848570e-01 4.811792e-01 4.814290e-01 4.820808e-01 4.869443e-01 4.918046e-01 5.008336e-01 
5.444061e-01 5.562601e-01 5.672241e-01 5.817411e-01 5.952028e-01 6.116890e-01 6.270268e-01 6.448227e-01 6.614370e-01 6.799397e-01 6.972681e-01 7.159351e-01 7.334545e-01 7.517983e-01 7.690196e-01 7.865998e-01 8.030633e-01 8.194799e-01 8.347526e-01 8.496427e-01 8.633207e-01 8.763570e-01 8.880724e-01 8.989640e-01 9.083948e-01 9.168895e-01 9.237728e-01 9.296605e-01 9.338051e-01 9.369220e-01 9.382209e-01 9.384552e-01 9.368938e-01 9.341945e-01 9.298554e-01 9.242426e-01 9.173049e-01 9.088826e-01 8.996180e-01 8.885882e-01 8.773540e-01 8.640307e-01 8.512632e-01 8.360860e-01 8.222963e-01 8.058414e-01 7.916141e-01 7.746010e-01 7.605959e-01 7.438856e-01 7.308371e-01 7.154133e-01 7.041184e-01 6.910417e-01 6.823247e-01 6.726475e-01 6.672889e-01 6.619295e-01 6.605598e-01 6.601551e-01 6.631362e-01 6.679194e-01 6.752562e-01 6.850109e-01 6.963305e-01 7.104417e-01 7.250478e-01 7.426224e-01 7.595945e-01 7.795990e-01 7.979003e-01 8.192709e-01 8.378395e-01 8.595510e-01 8.773708e-01 8.984666e-01 9.146224e-01 9.342214e-01 9.479445e-01 9.652387e-01 9.759451e-01 9.902022e-01 9.975199e-01 1.008098e+00 1.011876e+00 1.018258e+00 1.018551e+00 1.020387e+00 1.017413e+00 1.014566e+00 1.008648e+00 1.001221e+00 9.927214e-01 9.810523e-01 9.703233e-01 9.549462e-01 9.422996e-01 9.238803e-01 9.095847e-01 8.888497e-01 8.731444e-01 8.508207e-01 8.339411e-01 8.107189e-01 7.929251e-01 7.694467e-01 7.510503e-01 7.279198e-01 7.093052e-01 6.871097e-01 6.687482e-01 6.480801e-01 6.305329e-01 6.120039e-01 5.959120e-01 5.801491e-01 5.662048e-01 5.538203e-01 5.427133e-01 5.342458e-01 5.265844e-01 5.224161e-01 5.186344e-01 5.189121e-01 5.191927e-01 5.237845e-01 5.280294e-01 5.365429e-01 
5.807499e-01 5.918804e-01 6.020873e-01 6.158347e-01 6.285459e-01 6.442842e-01 6.589373e-01 6.760548e-01 6.920907e-01 7.100139e-01 7.268941e-01 7.450947e-01 7.623062e-01 7.803002e-01 7.973533e-01 8.146971e-01 8.311233e-01 8.474101e-01 8.627618e-01 8.776200e-01 8.914748e-01 9.045686e-01 9.165381e-01 9.275689e-01 9.373112e-01 9.460204e-01 9.532553e-01 9.594265e-01 9.639510e-01 9.674141e-01 9.691159e-01 9.697528e-01 9.686202e-01 9.663728e-01 9.624989e-01 9.573812e-01 9.509626e-01 9.430747e-01 9.344041e-01 9.239479e-01 9.134041e-01 9.006982e-01 8.887354e-01 8.742283e-01 8.613671e-01 8.456453e-01 8.324675e-01 8.162579e-01 8.034038e-01 7.875642e-01 7.757286e-01 7.612211e-01 7.511402e-01 7.389785e-01 7.313967e-01 7.225611e-01 7.181708e-01 7.134943e-01 7.128483e-01 7.128916e-01 7.163078e-01 7.212626e-01 7.287500e-01 7.384064e-01 7.496420e-01 7.634332e-01 7.777960e-01 7.948989e-01 8.115427e-01 8.309947e-01 8.489352e-01 8.697309e-01 8.879274e-01 9.090810e-01 9.265074e-01 9.470811e-01 9.627887e-01 9.818992e-01 9.950745e-01 1.011890e+00 1.021908e+00 1.035653e+00 1.042120e+00 1.052094e+00 1.054868e+00 1.060495e+00 1.059675e+00 1.060563e+00 1.056447e+00 1.052453e+00 1.045462e+00 1.036735e+00 1.027334e+00 1.014302e+00 1.002927e+00 9.862465e-01 9.732576e-01 9.537162e-01 9.393896e-01 9.178092e-01 9.023544e-01 8.795150e-01 8.631123e-01 8.397132e-01 8.225577e-01 7.992145e-01 7.815550e-01 7.588211e-01 7.409888e-01 7.193874e-01 7.018104e-01 6.818631e-01 6.650657e-01 6.473081e-01 6.318939e-01 6.168718e-01 6.034891e-01 5.917299e-01 5.810175e-01 5.729780e-01 5.654937e-01 5.614937e-01 5.576377e-01 5.577966e-01 5.577504e-01 5.619553e-01 5.656583e-01 5.735761e-01 