# vtk DataFile Version 2.0
Comment goes here
ASCII

DATASET STRUCTURED_POINTS
FIELD FieldData 1
TIME 1 1 double
0.14500000
DIMENSIONS    128   128   1

ORIGIN    0.000   0.000   0.000
SPACING   0.039062 0.039062   1.000

POINT_DATA   16384
SCALARS uMag double
LOOKUP_TABLE default

2.018917e-01 1.813719e-01 1.665111e-01 1.451094e-01 1.291451e-01 1.070883e-01 9.021535e-02 6.773992e-02 5.016440e-02 2.751469e-02 9.451035e-03 1.312312e-02 3.145470e-02 5.370026e-02 7.207682e-02 9.374036e-02 1.119395e-01 1.327704e-01 1.505741e-01 1.703282e-01 1.875263e-01 2.059700e-01 2.223644e-01 2.392785e-01 2.546871e-01 2.698711e-01 2.841309e-01 2.974064e-01 3.103764e-01 3.215905e-01 3.331537e-01 3.421813e-01 3.522454e-01 3.589913e-01 3.674887e-01 3.718885e-01 3.787754e-01 3.807957e-01 3.860504e-01 3.856887e-01 3.893088e-01 3.865930e-01 3.885930e-01 3.835799e-01 3.839881e-01 3.767623e-01 3.756185e-01 3.662906e-01 3.636436e-01 3.523480e-01 3.482542e-01 3.351471e-01 3.296694e-01 3.149262e-01 3.081337e-01 2.919460e-01 2.839142e-01 2.664869e-01 2.572977e-01 2.388453e-01 2.285879e-01 2.093307e-01 1.981016e-01 1.782616e-01 1.661644e-01 1.459613e-01 1.331061e-01 1.127531e-01 9.925499e-02 7.895452e-02 6.493184e-02 4.487213e-02 3.044388e-02 1.079589e-02 3.920773e-03 2.300559e-02 3.789788e-02 5.628868e-02 7.125017e-02 8.883659e-02 1.037684e-01 1.204591e-01 1.352701e-01 1.509900e-01 1.655956e-01 1.802819e-01 1.946015e-01 2.081990e-01 2.221531e-01 2.346088e-01 2.481147e-01 2.593728e-01 2.723405e-01 2.823382e-01 2.946672e-01 3.033316e-01 3.149083e-01 3.221554e-01 3.328527e-01 3.385881e-01 3.482667e-01 3.523893e-01 3.609011e-01 3.633074e-01 3.705012e-01 3.710921e-01 3.768201e-01 3.755075e-01 3.796325e-01 3.763467e-01 3.787498e-01 3.734452e-01 3.740316e-01 3.666916e-01 3.653959e-01 3.560358e-01 3.528253e-01 3.414933e-01 3.363689e-01 3.231455e-01 3.161421e-01 3.011382e-01 2.923223e-01 2.756761e-01 2.651437e-01 2.470176e-01 2.348909e-01 2.154677e-01 
2.000070e-01 1.796081e-01 1.649700e-01 1.437801e-01 1.281153e-01 1.064416e-01 9.005099e-02 6.841533e-02 5.199267e-02 3.249183e-02 2.161104e-02 2.546811e-02 3.908797e-02 5.920398e-02 7.655789e-02 9.756397e-02 1.152799e-01 1.357717e-01 1.532638e-01 1.727922e-01 1.897575e-01 2.080264e-01 2.242331e-01 2.409984e-01 2.562490e-01 2.712981e-01 2.854217e-01 2.985697e-01 3.114207e-01 3.225107e-01 3.339694e-01 3.428737e-01 3.528461e-01 3.594677e-01 3.678850e-01 3.721581e-01 3.789760e-01 3.808665e-01 3.860627e-01 3.855676e-01 3.891394e-01 3.862866e-01 3.882481e-01 3.830946e-01 3.834739e-01 3.761049e-01 3.749414e-01 3.654682e-01 3.628104e-01 3.513686e-01 3.472726e-01 3.340201e-01 3.285482e-01 3.136624e-01 3.068835e-01 2.905590e-01 2.825485e-01 2.649936e-01 2.558341e-01 2.372685e-01 2.270508e-01 2.077019e-01 1.965259e-01 1.766278e-01 1.646044e-01 1.443972e-01 1.316527e-01 1.113931e-01 9.808389e-02 7.809049e-02 6.447518e-02 4.540600e-02 3.244336e-02 1.889597e-02 1.822083e-02 3.103219e-02 4.406700e-02 6.154556e-02 7.589892e-02 9.316908e-02 1.077522e-01 1.242666e-01 1.388174e-01 1.543967e-01 1.687787e-01 1.833243e-01 1.974370e-01 2.108788e-01 2.246340e-01 2.369129e-01 2.502244e-01 2.612827e-01 2.740602e-01 2.838359e-01 2.959800e-01 3.044027e-01 3.158021e-01 3.227916e-01 3.333218e-01 3.387887e-01 3.483135e-01 3.521616e-01 3.605361e-01 3.626677e-01 3.697434e-01 3.700651e-01 3.756966e-01 3.741259e-01 3.781781e-01 3.746505e-01 3.770057e-01 3.714805e-01 3.720447e-01 3.645093e-01 3.632173e-01 3.536904e-01 3.505093e-01 3.390419e-01 3.339718e-01 3.206467e-01 3.137217e-01 2.986515e-01 2.899375e-01 2.732629e-01 2.628558e-01 2.447424e-01 2.327658e-01 2.134030e-01 
2.059143e-01 1.858407e-01 1.713659e-01 1.506725e-01 1.353464e-01 1.145324e-01 9.888974e-02 7.901145e-02 6.447815e-02 4.914843e-02 4.161039e-02 4.283998e-02 5.131571e-02 6.746481e-02 8.271348e-02 1.022739e-01 1.190805e-01 1.389445e-01 1.559680e-01 1.751964e-01 1.918940e-01 2.100216e-01 2.260668e-01 2.427779e-01 2.579289e-01 2.729760e-01 2.870387e-01 3.002179e-01 3.130337e-01 3.241772e-01 3.356184e-01 3.445920e-01 3.545600e-01 3.612623e-01 3.696857e-01 3.740484e-01 3.808809e-01 3.828682e-01 3.880867e-01 3.876947e-01 3.912959e-01 3.885519e-01 3.905497e-01 3.855109e-01 3.859330e-01 3.786850e-01 3.775705e-01 3.682256e-01 3.656227e-01 3.543182e-01 3.502822e-01 3.371783e-01 3.317714e-01 3.170489e-01 3.103397e-01 2.941975e-01 2.862616e-01 2.689147e-01 2.598361e-01 2.415135e-01 2.313867e-01 2.123306e-01 2.012634e-01 1.817322e-01 1.698521e-01 1.501316e-01 1.376021e-01 1.180434e-01 1.051113e-01 8.626457e-02 7.344786e-02 5.664175e-02 4.570056e-02 3.603016e-02 3.408146e-02 4.119500e-02 5.066974e-02 6.573532e-02 7.869310e-02 9.501592e-02 1.089407e-01 1.250129e-01 1.392178e-01 1.545846e-01 1.687857e-01 1.832498e-01 1.972830e-01 2.107319e-01 2.244770e-01 2.368302e-01 2.501826e-01 2.613701e-01 2.742271e-01 2.841779e-01 2.964307e-01 3.050667e-01 3.165964e-01 3.238298e-01 3.345048e-01 3.402382e-01 3.499156e-01 3.540450e-01 3.625734e-01 3.649929e-01 3.722178e-01 3.728264e-01 3.785970e-01 3.773055e-01 3.814822e-01 3.782205e-01 3.806823e-01 3.754056e-01 3.760566e-01 3.687502e-01 3.675248e-01 3.582071e-01 3.550733e-01 3.437973e-01 3.387582e-01 3.256107e-01 3.187047e-01 3.038055e-01 2.951053e-01 2.786052e-01 2.682161e-01 2.502966e-01 2.383566e-01 2.192319e-01 
2.080691e-01 1.885611e-01 1.746885e-01 1.548824e-01 1.404433e-01 1.210935e-01 1.069055e-01 8.961448e-02 7.765750e-02 6.648616e-02 6.165713e-02 6.345381e-02 6.977907e-02 8.303399e-02 9.596311e-02 1.136612e-01 1.290110e-01 1.477950e-01 1.638613e-01 1.824114e-01 1.984289e-01 2.160929e-01 2.316245e-01 2.479944e-01 2.627405e-01 2.775197e-01 2.912539e-01 3.042103e-01 3.167546e-01 3.277031e-01 3.389181e-01 3.477132e-01 3.574927e-01 3.640257e-01 3.722936e-01 3.764912e-01 3.831985e-01 3.850216e-01 3.901433e-01 3.895862e-01 3.931180e-01 3.902075e-01 3.921624e-01 3.869559e-01 3.873611e-01 3.799458e-01 3.788394e-01 3.693304e-01 3.667592e-01 3.552979e-01 3.513161e-01 3.380682e-01 3.327366e-01 3.178904e-01 3.112766e-01 2.950413e-01 2.872211e-01 2.698253e-01 2.608852e-01 2.425772e-01 2.326179e-01 2.136686e-01 2.028121e-01 1.835253e-01 1.719282e-01 1.526686e-01 1.405547e-01 1.218243e-01 1.095758e-01 9.224304e-02 8.069469e-02 6.672311e-02 5.813669e-02 5.222743e-02 5.133699e-02 5.756370e-02 6.498831e-02 7.820883e-02 8.955720e-02 1.048072e-01 1.176748e-01 1.331095e-01 1.465676e-01 1.615026e-01 1.751330e-01 1.892617e-01 2.028315e-01 2.159887e-01 2.293415e-01 2.414204e-01 2.544320e-01 2.653494e-01 2.779070e-01 2.875860e-01 2.995758e-01 3.079365e-01 3.192373e-01 3.261925e-01 3.366722e-01 3.421265e-01 3.516421e-01 3.554947e-01 3.638950e-01 3.660436e-01 3.731744e-01 3.735224e-01 3.792329e-01 3.776960e-01 3.818464e-01 3.783598e-01 3.808289e-01 3.753538e-01 3.760455e-01 3.685735e-01 3.674223e-01 3.579788e-01 3.549532e-01 3.435985e-01 3.387031e-01 3.255327e-01 3.188085e-01 3.039530e-01 2.954775e-01 2.791021e-01 2.689898e-01 2.512975e-01 2.397026e-01 2.209429e-01 
2.177077e-01 1.988333e-01 1.853697e-01 1.664745e-01 1.526904e-01 1.346948e-01 1.215559e-01 1.062138e-01 9.568910e-02 8.641717e-02 8.206327e-02 8.307748e-02 8.741990e-02 9.814745e-02 1.088973e-01 1.247263e-01 1.385912e-01 1.562608e-01 1.713619e-01 1.892600e-01 2.046304e-01 2.219120e-01 2.369928e-01 2.531426e-01 2.675646e-01 2.822252e-01 2.957211e-01 3.086247e-01 3.209921e-01 3.319313e-01 3.430153e-01 3.518308e-01 3.615158e-01 3.680898e-01 3.762937e-01 3.805468e-01 3.872173e-01 3.891066e-01 3.942166e-01 3.937343e-01 3.972784e-01 3.944501e-01 3.964404e-01 3.913240e-01 3.917869e-01 3.844709e-01 3.834436e-01 3.740458e-01 3.715739e-01 3.602401e-01 3.563760e-01 3.432778e-01 3.380807e-01 3.234144e-01 3.169505e-01 3.009361e-01 2.932807e-01 2.761614e-01 2.674027e-01 2.494463e-01 2.396905e-01 2.211961e-01 2.105777e-01 1.918908e-01 1.805912e-01 1.621411e-01 1.504310e-01 1.328205e-01 1.211632e-01 1.053890e-01 9.470548e-02 8.265752e-02 7.490276e-02 6.985789e-02 6.807581e-02 7.235144e-02 7.741238e-02 8.837927e-02 9.782583e-02 1.116474e-01 1.232698e-01 1.378692e-01 1.505219e-01 1.649709e-01 1.780764e-01 1.919346e-01 2.051678e-01 2.182002e-01 2.313508e-01 2.434127e-01 2.563236e-01 2.673091e-01 2.798455e-01 2.896625e-01 3.016950e-01 3.102513e-01 3.216457e-01 3.288428e-01 3.394558e-01 3.451872e-01 3.548652e-01 3.590186e-01 3.676002e-01 3.700626e-01 3.773837e-01 3.780482e-01 3.839491e-01 3.827227e-01 3.870561e-01 3.838676e-01 3.865066e-01 3.813133e-01 3.821582e-01 3.749511e-01 3.739353e-01 3.647422e-01 3.618358e-01 3.507231e-01 3.459351e-01 3.330081e-01 3.263869e-01 3.117902e-01 3.034245e-01 2.873432e-01 2.773638e-01 2.600290e-01 2.486141e-01 2.303173e-01 
2.236596e-01 2.056681e-01 1.930538e-01 1.754223e-01 1.627840e-01 1.465783e-01 1.349879e-01 1.220086e-01 1.133158e-01 1.063304e-01 1.030860e-01 1.045918e-01 1.082064e-01 1.176109e-01 1.267377e-01 1.409918e-01 1.533337e-01 1.697719e-01 1.836601e-01 2.006693e-01 2.150941e-01 2.317306e-01 2.460640e-01 2.617313e-01 2.755511e-01 2.898363e-01 3.028390e-01 3.154376e-01 3.273964e-01 3.380765e-01 3.488207e-01 3.574060e-01 3.668095e-01 3.731707e-01 3.811449e-01 3.851947e-01 3.916831e-01 3.933734e-01 3.983466e-01 3.976665e-01 4.011178e-01 3.980916e-01 4.000324e-01 3.947187e-01 3.951742e-01 3.876641e-01 3.866699e-01 3.770858e-01 3.746855e-01 3.631797e-01 3.594233e-01 3.461769e-01 3.411205e-01 3.263424e-01 3.200501e-01 3.039765e-01 2.965228e-01 2.794185e-01 2.708936e-01 2.530560e-01 2.435739e-01 2.253429e-01 2.150553e-01 1.968352e-01 1.859573e-01 1.682647e-01 1.571273e-01 1.406913e-01 1.298539e-01 1.158158e-01 1.062941e-01 9.649388e-02 9.004038e-02 8.684800e-02 8.550104e-02 8.990626e-02 9.407366e-02 1.041023e-01 1.122442e-01 1.251026e-01 1.355548e-01 1.494091e-01 1.611074e-01 1.749893e-01 1.873187e-01 2.007220e-01 2.133126e-01 2.259555e-01 2.385642e-01 2.502738e-01 2.627227e-01 2.733773e-01 2.855190e-01 2.950180e-01 3.067158e-01 3.149631e-01 3.260790e-01 3.329747e-01 3.433628e-01 3.488006e-01 3.583056e-01 3.621745e-01 3.706332e-01 3.728225e-01 3.800690e-01 3.804750e-01 3.863478e-01 3.848821e-01 3.892320e-01 3.858293e-01 3.885278e-01 3.831528e-01 3.840993e-01 3.767517e-01 3.758796e-01 3.665976e-01 3.638780e-01 3.527399e-01 3.481846e-01 3.353098e-01 3.289724e-01 3.145230e-01 3.065009e-01 2.906849e-01 2.811228e-01 2.642034e-01 2.533030e-01 2.356189e-01 
2.365912e-01 2.193571e-01 2.072214e-01 1.905791e-01 1.785894e-01 1.636255e-01 1.528359e-01 1.411966e-01 1.332108e-01 1.270756e-01 1.238216e-01 1.249325e-01 1.274822e-01 1.355217e-01 1.431214e-01 1.559404e-01 1.668873e-01 1.822228e-01 1.950108e-01 2.112608e-01 2.248500e-01 2.409859e-01 2.546848e-01 2.700310e-01 2.833637e-01 2.974503e-01 3.100748e-01 3.225580e-01 3.342215e-01 3.448431e-01 3.553575e-01 3.639233e-01 3.731514e-01 3.795198e-01 3.873660e-01 3.914416e-01 3.978453e-01 3.995744e-01 4.045040e-01 4.038725e-01 4.073201e-01 4.043509e-01 4.063270e-01 4.010791e-01 4.016077e-01 3.941743e-01 3.932895e-01 3.837975e-01 3.815403e-01 3.701485e-01 3.665658e-01 3.534642e-01 3.486084e-01 3.340180e-01 3.279493e-01 3.121214e-01 3.049114e-01 2.881299e-01 2.798680e-01 2.624539e-01 2.532567e-01 2.355792e-01 2.256066e-01 2.081056e-01 1.975880e-01 1.808180e-01 1.701071e-01 1.548184e-01 1.444806e-01 1.317482e-01 1.227159e-01 1.140448e-01 1.077232e-01 1.047627e-01 1.026532e-01 1.060504e-01 1.086651e-01 1.171889e-01 1.236796e-01 1.352406e-01 1.443274e-01 1.572506e-01 1.679189e-01 1.811779e-01 1.927586e-01 2.057684e-01 2.178303e-01 2.302518e-01 2.425048e-01 2.541277e-01 2.663598e-01 2.770380e-01 2.890772e-01 2.986922e-01 3.103829e-01 3.188236e-01 3.300118e-01 3.371637e-01 3.476888e-01 3.534312e-01 3.631234e-01 3.673300e-01 3.760118e-01 3.785572e-01 3.860485e-01 3.868154e-01 3.929415e-01 3.918302e-01 3.964305e-01 3.933676e-01 3.963047e-01 3.912505e-01 3.924181e-01 3.853726e-01 3.847019e-01 3.757079e-01 3.731715e-01 3.623168e-01 3.579319e-01 3.453498e-01 3.391794e-01 3.250506e-01 3.172058e-01 3.017626e-01 2.924070e-01 2.759443e-01 2.653047e-01 2.482019e-01 
2.459764e-01 2.297863e-01 2.186013e-01 2.033186e-01 1.924803e-01 1.791906e-01 1.697130e-01 1.598874e-01 1.531322e-01 1.484349e-01 1.458142e-01 1.473447e-01 1.495601e-01 1.569822e-01 1.635412e-01 1.752876e-01 1.849795e-01 1.992502e-01 2.108516e-01 2.262086e-01 2.387669e-01 2.541937e-01 2.670207e-01 2.818083e-01 2.944075e-01 3.080476e-01 3.200542e-01 3.321708e-01 3.433127e-01 3.536227e-01 3.636977e-01 3.719884e-01 3.808492e-01 3.869652e-01 3.945102e-01 3.983462e-01 4.045110e-01 4.060067e-01 4.107580e-01 4.098951e-01 4.132241e-01 4.100241e-01 4.119407e-01 4.064632e-01 4.069905e-01 3.993324e-01 3.985026e-01 3.887967e-01 3.866477e-01 3.750621e-01 3.716364e-01 3.583738e-01 3.537189e-01 3.390166e-01 3.331877e-01 3.173182e-01 3.103831e-01 2.936571e-01 2.857041e-01 2.684763e-01 2.596269e-01 2.423087e-01 2.327356e-01 2.158192e-01 2.057770e-01 1.898767e-01 1.797520e-01 1.656691e-01 1.560602e-01 1.448523e-01 1.366611e-01 1.296140e-01 1.240299e-01 1.222778e-01 1.203960e-01 1.241398e-01 1.262899e-01 1.344525e-01 1.400480e-01 1.509805e-01 1.590658e-01 1.713549e-01 1.810792e-01 1.937742e-01 2.045164e-01 2.170325e-01 2.283634e-01 2.403444e-01 2.519635e-01 2.631837e-01 2.748686e-01 2.851711e-01 2.967425e-01 3.060025e-01 3.173002e-01 3.254031e-01 3.362703e-01 3.430998e-01 3.533737e-01 3.588080e-01 3.683167e-01 3.722296e-01 3.807928e-01 3.830596e-01 3.904944e-01 3.910006e-01 3.971288e-01 3.957790e-01 4.004368e-01 3.971645e-01 4.002118e-01 3.949865e-01 3.963152e-01 3.891484e-01 3.886892e-01 3.796373e-01 3.773642e-01 3.665307e-01 3.624640e-01 3.500003e-01 3.442091e-01 3.303172e-01 3.229221e-01 3.078602e-01 2.990393e-01 2.831346e-01 2.731363e-01 2.568095e-01 
2.617777e-01 2.463268e-01 2.355703e-01 2.211676e-01 2.108326e-01 1.985065e-01 1.895332e-01 1.805728e-01 1.741307e-01 1.698778e-01 1.671086e-01 1.684049e-01 1.699036e-01 1.765259e-01 1.820056e-01 1.927599e-01 2.013064e-01 2.146771e-01 2.252424e-01 2.398936e-01 2.515781e-01 2.664915e-01 2.786015e-01 2.930322e-01 3.050476e-01 3.184488e-01 3.299806e-01 3.419440e-01 3.527005e-01 3.629184e-01 3.726829e-01 3.809243e-01 3.895401e-01 3.956367e-01 4.029961e-01 4.068330e-01 4.128688e-01 4.143794e-01 4.190567e-01 4.182186e-01 4.215283e-01 4.183610e-01 4.203125e-01 4.148763e-01 4.154916e-01 4.078859e-01 4.071949e-01 3.975582e-01 3.955949e-01 3.841038e-01 3.809053e-01 3.677740e-01 3.633811e-01 3.488617e-01 3.433221e-01 3.277048e-01 3.210790e-01 3.046949e-01 2.970651e-01 2.802913e-01 2.717748e-01 2.550447e-01 2.458127e-01 2.296353e-01 2.199416e-01 2.049307e-01 1.951543e-01 1.820664e-01 1.727686e-01 1.625251e-01 1.544996e-01 1.481144e-01 1.423444e-01 1.406302e-01 1.380194e-01 1.411056e-01 1.420456e-01 1.491640e-01 1.533669e-01 1.632421e-01 1.700204e-01 1.814306e-01 1.900558e-01 2.020918e-01 2.119661e-01 2.240257e-01 2.347029e-01 2.464019e-01 2.575552e-01 2.686431e-01 2.800256e-01 2.903262e-01 3.017374e-01 3.111096e-01 3.223709e-01 3.306840e-01 3.416215e-01 3.487423e-01 3.591760e-01 3.649642e-01 3.747039e-01 3.790135e-01 3.878601e-01 3.905468e-01 3.982979e-01 3.992286e-01 4.056877e-01 4.047519e-01 4.097389e-01 4.068592e-01 4.102208e-01 4.053613e-01 4.069808e-01 4.001536e-01 3.999577e-01 3.912257e-01 3.891896e-01 3.786681e-01 3.748181e-01 3.626755e-01 3.570911e-01 3.435504e-01 3.363668e-01 3.217112e-01 3.131249e-01 2.977096e-01 2.879902e-01 2.722653e-01 
2.742565e-01 2.598957e-01 2.500987e-01 2.370040e-01 2.277279e-01 2.168532e-01 2.089502e-01 2.013902e-01 1.958340e-01 1.926111e-01 1.902751e-01 1.919445e-01 1.932625e-01 1.995895e-01 2.043665e-01 2.144124e-01 2.219756e-01 2.345086e-01 2.440206e-01 2.578749e-01 2.685540e-01 2.827756e-01 2.939756e-01 3.078270e-01 3.190388e-01 3.319579e-01 3.427882e-01 3.543455e-01 3.644940e-01 3.743616e-01 3.836032e-01 3.915328e-01 3.997045e-01 4.055139e-01 4.125042e-01 4.160681e-01 4.218081e-01 4.230521e-01 4.275071e-01 4.264039e-01 4.295655e-01 4.261328e-01 4.280110e-01 4.223098e-01 4.229262e-01 4.150603e-01 4.144425e-01 4.045578e-01 4.027357e-01 3.910201e-01 3.880242e-01 3.747075e-01 3.705702e-01 3.559242e-01 3.506838e-01 3.350233e-01 3.287317e-01 3.124165e-01 3.051497e-01 2.885905e-01 2.804639e-01 2.641308e-01 2.553202e-01 2.397588e-01 2.305289e-01 2.163797e-01 2.071218e-01 1.951364e-01 1.864097e-01 1.774322e-01 1.699788e-01 1.648301e-01 1.594975e-01 1.587101e-01 1.562177e-01 1.597210e-01 1.603688e-01 1.674283e-01 1.710085e-01 1.805363e-01 1.865206e-01 1.974662e-01 2.052555e-01 2.168034e-01 2.258715e-01 2.374564e-01 2.473890e-01 2.586369e-01 2.691191e-01 2.797808e-01 2.905696e-01 3.004682e-01 3.113650e-01 3.203581e-01 3.311859e-01 3.391417e-01 3.497274e-01 3.565115e-01 3.666752e-01 3.721452e-01 3.816955e-01 3.857044e-01 3.944395e-01 3.968426e-01 4.045565e-01 4.052226e-01 4.117143e-01 4.105375e-01 4.156227e-01 4.125337e-01 4.160554e-01 4.110298e-01 4.128687e-01 4.059329e-01 4.060147e-01 3.972485e-01 3.955490e-01 3.850867e-01 3.816351e-01 3.696654e-01 3.645462e-01 3.513142e-01 3.446707e-01 3.304834e-01 3.225229e-01 3.077610e-01 2.987668e-01 2.839050e-01 
2.926168e-01 2.789005e-01 2.694267e-01 2.570441e-01 2.481041e-01 2.379376e-01 2.303137e-01 2.233240e-01 2.178705e-01 2.149119e-01 2.123756e-01 2.139010e-01 2.146726e-01 2.205033e-01 2.244730e-01 2.338456e-01 2.404894e-01 2.523435e-01 2.609474e-01 2.742152e-01 2.840646e-01 2.978236e-01 3.082956e-01 3.218028e-01 3.323886e-01 3.450624e-01 3.553602e-01 3.667493e-01 3.764487e-01 3.862057e-01 3.950735e-01 4.029342e-01 4.108018e-01 4.165719e-01 4.233251e-01 4.268698e-01 4.324389e-01 4.336771e-01 4.380281e-01 4.369278e-01 4.400536e-01 4.366301e-01 4.385414e-01 4.328558e-01 4.335736e-01 4.257328e-01 4.252818e-01 4.154382e-01 4.138428e-01 4.021943e-01 3.994767e-01 3.862668e-01 3.824488e-01 3.679661e-01 3.630734e-01 3.476518e-01 3.417228e-01 3.257423e-01 3.188398e-01 3.027288e-01 2.949556e-01 2.791962e-01 2.707161e-01 2.558512e-01 2.469147e-01 2.335561e-01 2.245306e-01 2.133563e-01 2.047540e-01 1.964744e-01 1.889537e-01 1.842080e-01 1.785057e-01 1.776738e-01 1.744368e-01 1.774410e-01 1.770166e-01 1.832835e-01 1.856231e-01 1.942786e-01 1.990291e-01 2.091758e-01 2.158568e-01 2.267517e-01 2.348925e-01 2.459920e-01 2.551930e-01 2.661226e-01 2.760645e-01 2.865675e-01 2.969955e-01 3.068846e-01 3.175866e-01 3.267072e-01 3.374910e-01 3.456961e-01 3.563720e-01 3.635075e-01 3.738766e-01 3.797774e-01 3.896262e-01 3.941192e-01 4.032215e-01 4.061354e-01 4.142594e-01 4.154379e-01 4.223574e-01 4.216739e-01 4.271816e-01 4.245517e-01 4.284724e-01 4.238644e-01 4.260661e-01 4.195069e-01 4.199091e-01 4.114867e-01 4.100659e-01 3.999287e-01 3.967207e-01 3.850769e-01 3.801777e-01 3.672951e-01 3.608632e-01 3.470724e-01 3.393325e-01 3.250368e-01 3.162891e-01 3.019807e-01 
3.079550e-01 2.953126e-01 2.867659e-01 2.755917e-01 2.676042e-01 2.586854e-01 2.519510e-01 2.460883e-01 2.413222e-01 2.391724e-01 2.369698e-01 2.388382e-01 2.395059e-01 2.452073e-01 2.486735e-01 2.575745e-01 2.634430e-01 2.746559e-01 2.823537e-01 2.949461e-01 3.038639e-01 3.169887e-01 3.265655e-01 3.395092e-01 3.492662e-01 3.614497e-01 3.709967e-01 3.819593e-01 3.909882e-01 4.003687e-01 4.086455e-01 4.161658e-01 4.235209e-01 4.289741e-01 4.352933e-01 4.385343e-01 4.437500e-01 4.446895e-01 4.487709e-01 4.473715e-01 4.503149e-01 4.465895e-01 4.484084e-01 4.424189e-01 4.431354e-01 4.349932e-01 4.346300e-01 4.244963e-01 4.230721e-01 4.111582e-01 4.086857e-01 3.952531e-01 3.917410e-01 3.771009e-01 3.725602e-01 3.570731e-01 3.515267e-01 3.356023e-01 3.290992e-01 3.131970e-01 3.058306e-01 2.904616e-01 2.823912e-01 2.681195e-01 2.595961e-01 2.470361e-01 2.384282e-01 2.282261e-01 2.200355e-01 2.128163e-01 2.056634e-01 2.019230e-01 1.964697e-01 1.964214e-01 1.932247e-01 1.966775e-01 1.960330e-01 2.024087e-01 2.042898e-01 2.127948e-01 2.169221e-01 2.267587e-01 2.327329e-01 2.432351e-01 2.506477e-01 2.613195e-01 2.698113e-01 2.803053e-01 2.895818e-01 2.996567e-01 3.094794e-01 3.189575e-01 3.291257e-01 3.378578e-01 3.481881e-01 3.560293e-01 3.663381e-01 3.731338e-01 3.832256e-01 3.888079e-01 3.984700e-01 4.026627e-01 4.116669e-01 4.142966e-01 4.224072e-01 4.233186e-01 4.303045e-01 4.293758e-01 4.350247e-01 4.321813e-01 4.363133e-01 4.315379e-01 4.340175e-01 4.273551e-01 4.280999e-01 4.196588e-01 4.186449e-01 4.085951e-01 4.058595e-01 3.944308e-01 3.900728e-01 3.775532e-01 3.717358e-01 3.584745e-01 3.514277e-01 3.378423e-01 3.298710e-01 3.164599e-01 
3.286996e-01 3.165771e-01 3.082323e-01 2.976042e-01 2.898034e-01 2.813967e-01 2.747827e-01 2.693099e-01 2.645266e-01 2.625544e-01 2.601316e-01 2.619187e-01 2.621411e-01 2.675320e-01 2.703658e-01 2.788170e-01 2.839427e-01 2.946676e-01 3.015900e-01 3.137291e-01 3.218947e-01 3.346373e-01 3.435162e-01 3.561576e-01 3.652840e-01 3.772392e-01 3.862258e-01 3.970220e-01 4.055599e-01 4.148228e-01 4.226767e-01 4.301165e-01 4.371165e-01 4.425161e-01 4.485499e-01 4.517556e-01 4.567586e-01 4.576743e-01 4.616198e-01 4.602030e-01 4.630913e-01 4.593515e-01 4.611989e-01 4.551975e-01 4.560264e-01 4.478778e-01 4.477077e-01 4.375802e-01 4.364224e-01 4.245387e-01 4.223942e-01 4.090314e-01 4.058934e-01 3.913813e-01 3.872418e-01 3.719615e-01 3.668226e-01 3.512026e-01 3.450920e-01 3.296054e-01 3.225953e-01 3.077555e-01 2.999843e-01 2.863391e-01 2.780352e-01 2.661545e-01 2.576573e-01 2.481078e-01 2.398779e-01 2.331716e-01 2.257736e-01 2.222848e-01 2.163240e-01 2.161846e-01 2.121943e-01 2.152212e-01 2.135392e-01 2.192523e-01 2.199547e-01 2.276970e-01 2.306272e-01 2.397195e-01 2.445794e-01 2.544338e-01 2.608795e-01 2.710434e-01 2.787487e-01 2.888963e-01 2.975792e-01 3.074786e-01 3.169020e-01 3.263764e-01 3.363346e-01 3.452286e-01 3.555282e-01 3.636827e-01 3.741253e-01 3.813636e-01 3.917331e-01 3.978580e-01 4.079150e-01 4.127159e-01 4.222009e-01 4.254680e-01 4.341111e-01 4.356545e-01 4.431901e-01 4.428589e-01 4.490430e-01 4.467422e-01 4.513695e-01 4.470714e-01 4.499888e-01 4.437386e-01 4.448552e-01 4.367714e-01 4.360636e-01 4.263340e-01 4.238470e-01 4.127237e-01 4.085706e-01 3.963666e-01 3.907276e-01 3.778155e-01 3.709387e-01 3.577549e-01 3.499603e-01 3.370129e-01 
3.467884e-01 3.356989e-01 3.282371e-01 3.187163e-01 3.117770e-01 3.044593e-01 2.986094e-01 2.940841e-01 2.898700e-01 2.885759e-01 2.864343e-01 2.885454e-01 2.887113e-01 2.940687e-01 2.965260e-01 3.046610e-01 3.091635e-01 3.193996e-01 3.255457e-01 3.371242e-01 3.444441e-01 3.566235e-01 3.646475e-01 3.767602e-01 3.850606e-01 3.965349e-01 4.047455e-01 4.151085e-01 4.229318e-01 4.318018e-01 4.390085e-01 4.460858e-01 4.525108e-01 4.575680e-01 4.631039e-01 4.659777e-01 4.705666e-01 4.711527e-01 4.747754e-01 4.730251e-01 4.756897e-01 4.716094e-01 4.733387e-01 4.669901e-01 4.678098e-01 4.593122e-01 4.592406e-01 4.487720e-01 4.478133e-01 4.356116e-01 4.337538e-01 4.201166e-01 4.173341e-01 4.026168e-01 3.988793e-01 3.834915e-01 3.787774e-01 3.631779e-01 3.574922e-01 3.421826e-01 3.355794e-01 3.210953e-01 3.137014e-01 3.006003e-01 2.926387e-01 2.814792e-01 2.732876e-01 2.645947e-01 2.566282e-01 2.508367e-01 2.436418e-01 2.410185e-01 2.351654e-01 2.357311e-01 2.317102e-01 2.352036e-01 2.333235e-01 2.392443e-01 2.395830e-01 2.473051e-01 2.497366e-01 2.586367e-01 2.629070e-01 2.724539e-01 2.782626e-01 2.880501e-01 2.951071e-01 3.048450e-01 3.128974e-01 3.223799e-01 3.312144e-01 3.402834e-01 3.497135e-01 3.582254e-01 3.680735e-01 3.758745e-01 3.859536e-01 3.928663e-01 4.029674e-01 4.087897e-01 4.186762e-01 4.231909e-01 4.326023e-01 4.355945e-01 4.442569e-01 4.455358e-01 4.531783e-01 4.525982e-01 4.589712e-01 4.564493e-01 4.613420e-01 4.568690e-01 4.601240e-01 4.537680e-01 4.552913e-01 4.471953e-01 4.469615e-01 4.373374e-01 4.353911e-01 4.245129e-01 4.209673e-01 4.091651e-01 4.042010e-01 3.918588e-01 3.857237e-01 3.732806e-01 3.662908e-01 3.542450e-01 
3.698615e-01 3.591617e-01 3.517804e-01 3.426608e-01 3.357831e-01 3.288335e-01 3.229921e-01 3.187452e-01 3.144431e-01 3.132862e-01 3.109220e-01 3.130040e-01 3.127973e-01 3.179741e-01 3.199240e-01 3.277746e-01 3.316736e-01 3.415799e-01 3.470721e-01 3.583244e-01 3.649796e-01 3.768665e-01 3.842432e-01 3.961100e-01 4.037973e-01 4.150739e-01 4.227157e-01 4.329242e-01 4.402291e-01 4.489815e-01 4.557253e-01 4.627146e-01 4.687379e-01 4.737297e-01 4.789321e-01 4.817565e-01 4.860879e-01 4.866339e-01 4.900837e-01 4.882966e-01 4.908811e-01 4.867625e-01 4.885103e-01 4.821202e-01 4.830592e-01 4.745189e-01 4.746643e-01 4.641591e-01 4.635060e-01 4.512865e-01 4.498070e-01 4.361886e-01 4.338356e-01 4.191950e-01 4.159119e-01 4.006809e-01 3.964167e-01 3.810731e-01 3.758030e-01 3.608591e-01 3.546075e-01 3.405950e-01 3.334610e-01 3.209123e-01 3.130920e-01 3.025146e-01 2.943174e-01 2.861583e-01 2.780078e-01 2.726070e-01 2.650160e-01 2.625512e-01 2.560645e-01 2.565048e-01 2.516130e-01 2.547057e-01 2.517584e-01 2.570697e-01 2.562234e-01 2.632246e-01 2.644481e-01 2.726134e-01 2.757399e-01 2.846172e-01 2.894122e-01 2.986534e-01 3.048701e-01 3.142252e-01 3.216366e-01 3.309259e-01 3.393319e-01 3.484111e-01 3.576300e-01 3.663564e-01 3.762068e-01 3.844140e-01 3.946963e-01 4.021809e-01 4.126636e-01 4.191856e-01 4.295997e-01 4.348950e-01 4.449394e-01 4.487427e-01 4.580974e-01 4.601694e-01 4.685164e-01 4.686708e-01 4.757171e-01 4.738425e-01 4.793420e-01 4.754149e-01 4.791866e-01 4.732756e-01 4.752146e-01 4.674763e-01 4.675586e-01 4.582279e-01 4.565097e-01 4.458888e-01 4.425022e-01 4.309503e-01 4.260982e-01 4.140253e-01 4.079771e-01 3.958410e-01 3.889305e-01 3.772367e-01 
3.907068e-01 3.809939e-01 3.744524e-01 3.663535e-01 3.602662e-01 3.542884e-01 3.491264e-01 3.457076e-01 3.419039e-01 3.413443e-01 3.392358e-01 3.416315e-01 3.414050e-01 3.466107e-01 3.482739e-01 3.559159e-01 3.593058e-01 3.688399e-01 3.736641e-01 3.844549e-01 3.903471e-01 4.017413e-01 4.083128e-01 4.196926e-01 4.265712e-01 4.373851e-01 4.442406e-01 4.540169e-01 4.605748e-01 4.689235e-01 4.749713e-01 4.815799e-01 4.869681e-01 4.915944e-01 4.962326e-01 4.986981e-01 5.025482e-01 5.027338e-01 5.057986e-01 5.036427e-01 5.059521e-01 5.014518e-01 5.030463e-01 4.962611e-01 4.971759e-01 4.882317e-01 4.884824e-01 4.775749e-01 4.771483e-01 4.645455e-01 4.633964e-01 4.494370e-01 4.474926e-01 4.325820e-01 4.297539e-01 4.143554e-01 4.105584e-01 3.951813e-01 3.903578e-01 3.755415e-01 3.696893e-01 3.559832e-01 3.491832e-01 3.371220e-01 3.295630e-01 3.196356e-01 3.116277e-01 3.042373e-01 2.962087e-01 2.916262e-01 2.840909e-01 2.824085e-01 2.759038e-01 2.770057e-01 2.720078e-01 2.755781e-01 2.724220e-01 2.779987e-01 2.768361e-01 2.838973e-01 2.847051e-01 2.927553e-01 2.953858e-01 3.040146e-01 3.082582e-01 3.171611e-01 3.227986e-01 3.317661e-01 3.385982e-01 3.474857e-01 3.553398e-01 3.640300e-01 3.727493e-01 3.811171e-01 3.905416e-01 3.984279e-01 4.083738e-01 4.155725e-01 4.258179e-01 4.320789e-01 4.423591e-01 4.474054e-01 4.574181e-01 4.609732e-01 4.703944e-01 4.722148e-01 4.807205e-01 4.806254e-01 4.879161e-01 4.858097e-01 4.916338e-01 4.875168e-01 4.916883e-01 4.856589e-01 4.880686e-01 4.803136e-01 4.809341e-01 4.717159e-01 4.706004e-01 4.602427e-01 4.575203e-01 4.463959e-01 4.422661e-01 4.307883e-01 4.255151e-01 4.141335e-01 4.080410e-01 3.972384e-01 
4.161398e-01 4.066906e-01 4.001126e-01 3.922933e-01 3.861633e-01 3.804495e-01 3.752166e-01 3.720089e-01 3.680777e-01 3.676435e-01 3.653246e-01 3.677426e-01 3.672081e-01 3.723379e-01 3.735966e-01 3.810876e-01 3.839923e-01 3.933321e-01 3.976138e-01 4.081961e-01 4.135127e-01 4.247048e-01 4.306884e-01 4.418838e-01 4.481788e-01 4.588304e-01 4.651194e-01 4.747564e-01 4.807759e-01 4.890078e-01 4.945561e-01 5.010686e-01 5.060074e-01 5.105559e-01 5.148076e-01 5.172091e-01 5.207494e-01 5.208785e-01 5.237246e-01 5.215123e-01 5.237074e-01 5.191439e-01 5.207390e-01 5.138795e-01 5.149150e-01 5.058856e-01 5.063749e-01 4.953785e-01 4.952974e-01 4.826159e-01 4.818989e-01 4.678919e-01 4.664375e-01 4.515355e-01 4.492202e-01 4.339124e-01 4.306120e-01 4.154288e-01 4.110463e-01 3.965373e-01 3.910329e-01 3.777404e-01 3.711617e-01 3.595906e-01 3.520973e-01 3.426812e-01 3.345586e-01 3.276246e-01 3.192785e-01 3.150122e-01 3.069395e-01 3.053583e-01 2.980899e-01 2.990358e-01 2.930623e-01 2.962233e-01 2.919220e-01 2.968847e-01 2.944749e-01 3.007950e-01 3.003346e-01 3.076042e-01 3.090245e-01 3.169165e-01 3.200744e-01 3.283570e-01 3.330845e-01 3.416074e-01 3.477424e-01 3.564059e-01 3.638015e-01 3.725171e-01 3.810318e-01 3.896845e-01 3.991622e-01 4.075822e-01 4.178293e-01 4.257786e-01 4.365485e-01 4.437263e-01 4.547136e-01 4.607778e-01 4.716266e-01 4.762300e-01 4.865535e-01 4.893839e-01 4.987931e-01 4.996121e-01 5.077478e-01 5.064198e-01 5.129820e-01 5.094892e-01 5.142605e-01 5.087030e-01 5.115618e-01 5.041463e-01 5.050700e-01 4.960910e-01 4.951518e-01 4.849708e-01 4.823258e-01 4.713532e-01 4.672330e-01 4.559143e-01 4.506131e-01 4.394202e-01 4.332861e-01 4.227120e-01 