# vtk DataFile Version 2.0
Comment goes here
ASCII

DATASET STRUCTURED_POINTS
FIELD FieldData 1
TIME 1 1 double
0.06500000
DIMENSIONS    128   128   1

ORIGIN    0.000   0.000   0.000
SPACING   0.039062 0.039062   1.000

POINT_DATA   16384
SCALARS uMag double
LOOKUP_TABLE default

3.178357e-05 3.189705e-02 6.333547e-02 9.474407e-02 1.255014e-01 1.561644e-01 1.859622e-01 2.156096e-01 2.441846e-01 2.725644e-01 2.996675e-01 3.265448e-01 3.519412e-01 3.770970e-01 4.005661e-01 4.237975e-01 4.451334e-01 4.662539e-01 4.852670e-01 5.041071e-01 5.206263e-01 5.370348e-01 5.509096e-01 5.647558e-01 5.758592e-01 5.870344e-01 5.952652e-01 6.036849e-01 6.089707e-01 6.145759e-01 6.168744e-01 6.196333e-01 6.189340e-01 6.188422e-01 6.151666e-01 6.122475e-01 6.056487e-01 5.999525e-01 5.905140e-01 5.821169e-01 5.699506e-01 5.589523e-01 5.441960e-01 5.307180e-01 5.135325e-01 4.977155e-01 4.782814e-01 4.602827e-01 4.387977e-01 4.187889e-01 3.954648e-01 3.736292e-01 3.486896e-01 3.252201e-01 2.988980e-01 2.739956e-01 2.465314e-01 2.204030e-01 1.920428e-01 1.648999e-01 1.358936e-01 1.079509e-01 7.855006e-02 5.002424e-02 2.048025e-02 8.411005e-03 3.784921e-02 6.688794e-02 9.597598e-02 1.249442e-01 1.534441e-01 1.821234e-01 2.098053e-01 2.379760e-01 2.646183e-01 2.920580e-01 3.174476e-01 3.439293e-01 3.678604e-01 3.931503e-01 4.154225e-01 4.392788e-01 4.596945e-01 4.818667e-01 5.002297e-01 5.204592e-01 5.365731e-01 5.545961e-01 5.682649e-01 5.838174e-01 5.948481e-01 6.076728e-01 6.158799e-01 6.257351e-01 6.309481e-01 6.376182e-01 6.396900e-01 6.429960e-01 6.418126e-01 6.416228e-01 6.371128e-01 6.333518e-01 6.254943e-01 6.181497e-01 6.069802e-01 5.961066e-01 5.817196e-01 5.674387e-01 5.499872e-01 5.324847e-01 5.121760e-01 4.916947e-01 4.687840e-01 4.456155e-01 4.203970e-01 3.948701e-01 3.676674e-01 3.401371e-01 3.112929e-01 2.821295e-01 2.519962e-01 2.215748e-01 1.905064e-01 1.591983e-01 1.275435e-01 9.570983e-02 6.380714e-02 3.179371e-02 
3.185762e-02 4.560343e-02 7.158434e-02 1.007089e-01 1.302608e-01 1.601802e-01 1.894761e-01 2.187598e-01 2.470597e-01 2.752196e-01 3.021471e-01 3.288720e-01 3.541453e-01 3.791854e-01 4.025626e-01 4.257002e-01 4.469648e-01 4.680057e-01 4.869622e-01 5.057326e-01 5.222063e-01 5.385527e-01 5.523907e-01 5.661806e-01 5.772543e-01 5.883780e-01 5.965855e-01 6.049575e-01 6.102255e-01 6.157865e-01 6.180727e-01 6.207902e-01 6.200840e-01 6.199536e-01 6.162767e-01 6.133216e-01 6.067279e-01 6.009985e-01 5.915722e-01 5.831449e-01 5.709991e-01 5.599746e-01 5.452483e-01 5.317493e-01 5.146048e-01 4.987736e-01 4.793937e-01 4.613902e-01 4.399753e-01 4.199744e-01 3.967404e-01 3.749310e-01 3.501079e-01 3.266918e-01 3.005243e-01 2.757182e-01 2.484698e-01 2.225131e-01 1.944821e-01 1.676659e-01 1.392472e-01 1.120452e-01 8.407033e-02 5.812408e-02 3.587345e-02 3.027436e-02 4.759880e-02 7.270549e-02 1.000449e-01 1.280235e-01 1.559208e-01 1.841785e-01 2.115765e-01 2.395303e-01 2.660272e-01 2.933522e-01 3.186752e-01 3.451053e-01 3.690238e-01 3.943071e-01 4.166081e-01 4.404923e-01 4.609705e-01 4.831972e-01 5.016495e-01 5.219527e-01 5.381761e-01 5.562842e-01 5.700749e-01 5.857153e-01 5.968719e-01 6.097783e-01 6.181066e-01 6.280285e-01 6.333496e-01 6.400638e-01 6.422233e-01 6.455449e-01 6.444239e-01 6.442179e-01 6.397424e-01 6.359330e-01 6.280823e-01 6.206597e-01 6.094724e-01 5.984964e-01 5.840725e-01 5.696722e-01 5.521719e-01 5.345420e-01 5.141813e-01 4.935751e-01 4.706190e-01 4.473391e-01 4.220933e-01 3.964819e-01 3.692836e-01 3.417130e-01 3.129252e-01 2.837921e-01 2.538029e-01 2.235350e-01 1.927793e-01 1.618827e-01 1.309544e-01 1.002929e-01 7.074718e-02 4.449826e-02 
6.383501e-02 7.119372e-02 8.971020e-02 1.139723e-01 1.405300e-01 1.684100e-01 1.963189e-01 2.245502e-01 2.520837e-01 2.796200e-01 3.060756e-01 3.323993e-01 3.573620e-01 3.821312e-01 4.052953e-01 4.282456e-01 4.493603e-01 4.702709e-01 4.891205e-01 5.078016e-01 5.241984e-01 5.404862e-01 5.542690e-01 5.680241e-01 5.790585e-01 5.901664e-01 5.983462e-01 6.067184e-01 6.119675e-01 6.175425e-01 6.198165e-01 6.225605e-01 6.218478e-01 6.217554e-01 6.180773e-01 6.151716e-01 6.085820e-01 6.029138e-01 5.934978e-01 5.851442e-01 5.730165e-01 5.620795e-01 5.473816e-01 5.339858e-01 5.168839e-01 5.011749e-01 4.818573e-01 4.639997e-01 4.426752e-01 4.228520e-01 3.997494e-01 3.781623e-01 3.535326e-01 3.304062e-01 3.045300e-01 2.801238e-01 2.533324e-01 2.279731e-01 2.007081e-01 1.748916e-01 1.479060e-01 1.226832e-01 9.791041e-02 7.683978e-02 6.199883e-02 5.897464e-02 6.975209e-02 8.881210e-02 1.124830e-01 1.379564e-01 1.642986e-01 1.913072e-01 2.178876e-01 2.450974e-01 2.710873e-01 2.979131e-01 3.228776e-01 3.489434e-01 3.725791e-01 3.975797e-01 4.196378e-01 4.432925e-01 4.635496e-01 4.855847e-01 5.038299e-01 5.239719e-01 5.400002e-01 5.579743e-01 5.715843e-01 5.871183e-01 5.981133e-01 6.109431e-01 6.191348e-01 6.290131e-01 6.342287e-01 6.409351e-01 6.430255e-01 6.463776e-01 6.452274e-01 6.450909e-01 6.406280e-01 6.369265e-01 6.291303e-01 6.218520e-01 6.107596e-01 5.999616e-01 5.856710e-01 5.714798e-01 5.541497e-01 5.367590e-01 5.166056e-01 4.962701e-01 4.735625e-01 4.505916e-01 4.256452e-01 4.003961e-01 3.735697e-01 3.464447e-01 3.181436e-01 2.896002e-01 2.603004e-01 2.308966e-01 2.012339e-01 1.717983e-01 1.429109e-01 1.152760e-01 9.047439e-02 7.141303e-02 
9.585628e-02 1.010431e-01 1.150218e-01 1.349248e-01 1.581264e-01 1.834374e-01 2.094396e-01 2.361639e-01 2.625411e-01 2.891152e-01 3.148135e-01 3.404758e-01 3.649125e-01 3.892010e-01 4.119843e-01 4.345707e-01 4.554018e-01 4.760289e-01 4.946633e-01 5.131192e-01 5.293510e-01 5.454576e-01 5.591134e-01 5.727219e-01 5.836587e-01 5.946482e-01 6.027539e-01 6.110313e-01 6.162259e-01 6.217263e-01 6.239631e-01 6.266506e-01 6.259168e-01 6.257848e-01 6.221020e-01 6.191732e-01 6.125966e-01 6.069223e-01 5.975395e-01 5.891984e-01 5.771279e-01 5.662246e-01 5.516129e-01 5.382765e-01 5.212966e-01 5.056788e-01 4.865284e-01 4.688032e-01 4.477041e-01 4.280685e-01 4.052689e-01 3.839465e-01 3.597280e-01 3.369793e-01 3.116741e-01 2.878213e-01 2.618533e-01 2.373425e-01 2.113348e-01 1.869074e-01 1.619927e-01 1.392216e-01 1.180435e-01 1.010672e-01 9.037764e-02 8.809654e-02 9.570973e-02 1.101763e-01 1.300568e-01 1.524821e-01 1.767070e-01 2.019682e-01 2.273433e-01 2.534867e-01 2.787432e-01 3.048836e-01 3.293839e-01 3.550017e-01 3.783436e-01 4.030588e-01 4.249413e-01 4.484304e-01 4.686001e-01 4.905612e-01 5.087877e-01 5.289257e-01 5.449890e-01 5.630108e-01 5.766964e-01 5.923121e-01 6.034104e-01 6.163392e-01 6.246492e-01 6.346281e-01 6.399649e-01 6.467600e-01 6.489643e-01 6.523825e-01 6.513314e-01 6.512322e-01 6.468498e-01 6.431552e-01 6.354216e-01 6.281232e-01 6.170808e-01 6.062443e-01 5.920008e-01 5.777659e-01 5.604937e-01 5.430717e-01 5.230056e-01 5.026739e-01 4.801061e-01 4.572030e-01 4.324806e-01 4.074024e-01 3.809291e-01 3.541363e-01 3.263894e-01 2.984360e-01 2.700204e-01 2.416456e-01 2.134534e-01 1.858622e-01 1.595766e-01 1.353620e-01 1.150971e-01 1.008774e-01 
1.282892e-01 1.318246e-01 1.425133e-01 1.586809e-01 1.785788e-01 2.010754e-01 2.248598e-01 2.497407e-01 2.746753e-01 3.000236e-01 3.247538e-01 3.495706e-01 3.733349e-01 3.970218e-01 4.193252e-01 4.414742e-01 4.619562e-01 4.822618e-01 5.006392e-01 5.188588e-01 5.349003e-01 5.508353e-01 5.643500e-01 5.778379e-01 5.886705e-01 5.995808e-01 6.076107e-01 6.158434e-01 6.209846e-01 6.264702e-01 6.286719e-01 6.313716e-01 6.306189e-01 6.305246e-01 6.268384e-01 6.239722e-01 6.174085e-01 6.118224e-01 6.024715e-01 5.942459e-01 5.822299e-01 5.714725e-01 5.569442e-01 5.437888e-01 5.269296e-01 5.115350e-01 4.925544e-01 4.751053e-01 4.542423e-01 4.349519e-01 4.124801e-01 3.915977e-01 3.678379e-01 3.456660e-01 3.210129e-01 2.979450e-01 2.729279e-01 2.495345e-01 2.249576e-01 2.021973e-01 1.794837e-01 1.592307e-01 1.412273e-01 1.273526e-01 1.192718e-01 1.175036e-01 1.235782e-01 1.350356e-01 1.519301e-01 1.714649e-01 1.935143e-01 2.167768e-01 2.407329e-01 2.655160e-01 2.898142e-01 3.149946e-01 3.388057e-01 3.637199e-01 3.865326e-01 4.107165e-01 4.321682e-01 4.552480e-01 4.750511e-01 4.966942e-01 5.146000e-01 5.344925e-01 5.502735e-01 5.681109e-01 5.815514e-01 5.970376e-01 6.079308e-01 6.207820e-01 6.289319e-01 6.388843e-01 6.441113e-01 6.509307e-01 6.530800e-01 6.565730e-01 6.555247e-01 6.555497e-01 6.512293e-01 6.477064e-01 6.400937e-01 6.330124e-01 6.221490e-01 6.115735e-01 5.975669e-01 5.836375e-01 5.666622e-01 5.495946e-01 5.298914e-01 5.099735e-01 4.878483e-01 4.654379e-01 4.412620e-01 4.167894e-01 3.910092e-01 3.649924e-01 3.381584e-01 3.112496e-01 2.840935e-01 2.572009e-01 2.308321e-01 2.054348e-01 1.818379e-01 1.607559e-01 1.438531e-01 1.323969e-01 
1.607946e-01 1.636584e-01 1.724797e-01 1.860993e-01 2.034059e-01 2.234422e-01 2.451161e-01 2.681318e-01 2.915292e-01 3.155178e-01 3.391383e-01 3.629514e-01 3.859021e-01 4.088308e-01 4.305269e-01 4.520910e-01 4.721132e-01 4.919602e-01 5.099859e-01 5.278421e-01 5.436130e-01 5.592589e-01 5.725652e-01 5.858234e-01 5.964962e-01 6.072257e-01 6.151345e-01 6.232277e-01 6.282798e-01 6.336618e-01 6.358021e-01 6.384306e-01 6.376422e-01 6.375067e-01 6.338107e-01 6.309329e-01 6.243874e-01 6.188199e-01 6.095191e-01 6.013449e-01 5.894173e-01 5.787483e-01 5.643549e-01 5.513313e-01 5.346645e-01 5.194550e-01 5.007392e-01 4.835422e-01 4.630362e-01 4.440853e-01 4.220910e-01 4.016653e-01 3.785447e-01 3.569921e-01 3.332021e-01 3.109862e-01 2.871504e-01 2.649482e-01 2.420054e-01 2.209162e-01 2.004223e-01 1.823779e-01 1.669997e-01 1.552628e-01 1.488307e-01 1.471982e-01 1.522115e-01 1.614299e-01 1.759083e-01 1.928368e-01 2.127672e-01 2.339709e-01 2.564007e-01 2.796939e-01 3.029318e-01 3.270520e-01 3.501272e-01 3.742953e-01 3.966002e-01 4.202745e-01 4.413864e-01 4.641414e-01 4.837347e-01 5.052005e-01 5.230014e-01 5.428343e-01 5.585959e-01 5.764645e-01 5.899539e-01 6.055363e-01 6.165293e-01 6.295165e-01 6.377997e-01 6.479038e-01 6.532805e-01 6.602464e-01 6.625468e-01 6.661646e-01 6.652578e-01 6.653756e-01 6.611814e-01 6.577161e-01 6.502152e-01 6.431611e-01 6.324028e-01 6.218362e-01 6.079422e-01 5.940229e-01 5.771881e-01 5.601579e-01 5.406500e-01 5.208298e-01 4.989880e-01 4.767774e-01 4.530166e-01 4.288996e-01 4.037247e-01 3.782926e-01 3.523375e-01 3.263475e-01 3.004660e-01 2.749765e-01 2.504427e-01 2.271052e-01 2.060161e-01 1.875933e-01 1.733900e-01 1.639972e-01 
1.939827e-01 1.960009e-01 2.031230e-01 2.144774e-01 2.293934e-01 2.470534e-01 2.666034e-01 2.876782e-01 3.094357e-01 3.319511e-01 3.543523e-01 3.770630e-01 3.991107e-01 4.212115e-01 4.422355e-01 4.631738e-01 4.826926e-01 5.020650e-01 5.197122e-01 5.372095e-01 5.526954e-01 5.680730e-01 5.811651e-01 5.942277e-01 6.047406e-01 6.153344e-01 6.231256e-01 6.311338e-01 6.361021e-01 6.414435e-01 6.435282e-01 6.461562e-01 6.453374e-01 6.452394e-01 6.415374e-01 6.387342e-01 6.322088e-01 6.267539e-01 6.175029e-01 6.094817e-01 5.976397e-01 5.871684e-01 5.729049e-01 5.601301e-01 5.436493e-01 5.287490e-01 5.102909e-01 4.934771e-01 4.733223e-01 4.548479e-01 4.333282e-01 4.135011e-01 3.910206e-01 3.702308e-01 3.473061e-01 3.260774e-01 3.034126e-01 2.825015e-01 2.611262e-01 2.417017e-01 2.231986e-01 2.071142e-01 1.938515e-01 1.837776e-01 1.785891e-01 1.771517e-01 1.815967e-01 1.893048e-01 2.020557e-01 2.168739e-01 2.350089e-01 2.542974e-01 2.752683e-01 2.970313e-01 3.191521e-01 3.420899e-01 3.643038e-01 3.875615e-01 4.091815e-01 4.321527e-01 4.526995e-01 4.749111e-01 4.940234e-01 5.150719e-01 5.324556e-01 5.519738e-01 5.673730e-01 5.850138e-01 5.981941e-01 6.136258e-01 6.243670e-01 6.372746e-01 6.453693e-01 6.554622e-01 6.607205e-01 6.677415e-01 6.699991e-01 6.737368e-01 6.728658e-01 6.731656e-01 6.690866e-01 6.658621e-01 6.585544e-01 6.517963e-01 6.413070e-01 6.310894e-01 6.175393e-01 6.040231e-01 5.876092e-01 5.710425e-01 5.520401e-01 5.327579e-01 5.115223e-01 4.899486e-01 4.669218e-01 4.435790e-01 4.193087e-01 3.948443e-01 3.700265e-01 3.452743e-01 3.208427e-01 2.969470e-01 2.742428e-01 2.528809e-01 2.339159e-01 2.175674e-01 2.051745e-01 1.969502e-01 
2.272925e-01 2.289966e-01 2.351704e-01 2.450321e-01 2.582246e-01 2.740135e-01 2.917822e-01 3.111241e-01 3.313523e-01 3.524256e-01 3.735997e-01 3.951518e-01 4.162370e-01 4.374140e-01 4.576877e-01 4.778883e-01 4.968227e-01 5.156042e-01 5.327963e-01 5.498195e-01 5.649515e-01 5.799497e-01 5.927672e-01 6.055287e-01 6.158298e-01 6.261880e-01 6.338179e-01 6.416469e-01 6.464953e-01 6.517070e-01 6.537077e-01 6.562507e-01 6.553812e-01 6.552400e-01 6.515207e-01 6.487152e-01 6.422088e-01 6.367934e-01 6.276032e-01 6.196663e-01 6.079350e-01 5.975977e-01 5.835057e-01 5.709228e-01 5.546881e-01 5.400485e-01 5.219288e-01 5.054598e-01 4.857581e-01 4.677339e-01 4.468110e-01 4.275679e-01 4.058655e-01 3.858315e-01 3.639134e-01 3.436588e-01 3.222816e-01 3.026078e-01 2.828328e-01 2.649084e-01 2.482461e-01 2.337560e-01 2.222196e-01 2.133068e-01 2.089985e-01 2.075478e-01 2.115003e-01 2.179093e-01 2.292065e-01 2.421310e-01 2.586154e-01 2.760500e-01 2.955814e-01 3.157848e-01 3.367686e-01 3.584799e-01 3.798322e-01 4.021667e-01 4.231517e-01 4.454618e-01 4.655591e-01 4.873343e-01 5.061524e-01 5.269561e-01 5.441787e-01 5.636127e-01 5.789650e-01 5.966504e-01 6.098791e-01 6.254507e-01 6.363143e-01 6.494227e-01 6.576906e-01 6.680110e-01 6.734693e-01 6.807141e-01 6.831765e-01 6.871099e-01 6.864322e-01 6.868840e-01 6.829778e-01 6.798566e-01 6.727022e-01 6.660047e-01 6.556595e-01 6.454765e-01 6.320804e-01 6.185988e-01 6.023759e-01 5.858779e-01 5.671368e-01 5.479989e-01 5.271342e-01 5.058287e-01 4.833286e-01 4.604339e-01 4.369001e-01 4.131289e-01 3.893195e-01 3.655764e-01 3.424870e-01 3.199735e-01 2.989662e-01 2.793297e-01 2.622765e-01 2.477002e-01 2.369194e-01 2.297811e-01 
2.615370e-01 2.626459e-01 2.677217e-01 2.760807e-01 2.875663e-01 3.015248e-01 3.175195e-01 3.351289e-01 3.537980e-01 3.734018e-01 3.933040e-01 4.136668e-01 4.337481e-01 4.539813e-01 4.734741e-01 4.929324e-01 5.112638e-01 5.294651e-01 5.461939e-01 5.627675e-01 5.775451e-01 5.922000e-01 6.047480e-01 6.172538e-01 6.273519e-01 6.375281e-01 6.450073e-01 6.527176e-01 6.574577e-01 6.626068e-01 6.645348e-01 6.670664e-01 6.661561e-01 6.660519e-01 6.623232e-01 6.596022e-01 6.531198e-01 6.478374e-01 6.387096e-01 6.309567e-01 6.193335e-01 6.092362e-01 5.953083e-01 5.830279e-01 5.670268e-01 5.527619e-01 5.349621e-01 5.189534e-01 4.996792e-01 4.822184e-01 4.618578e-01 4.433046e-01 4.223328e-01 4.031439e-01 3.821631e-01 3.629400e-01 3.427409e-01 3.243033e-01 3.059487e-01 2.894289e-01 2.743297e-01 2.612337e-01 2.510986e-01 2.431654e-01 2.395974e-01 2.382348e-01 2.419410e-01 2.474601e-01 2.577436e-01 2.692064e-01 2.843989e-01 3.002613e-01 3.185565e-01 3.373294e-01 3.572505e-01 3.777534e-01 3.982198e-01 4.195689e-01 4.398116e-01 4.613340e-01 4.807970e-01 5.019525e-01 5.202172e-01 5.405424e-01 5.572767e-01 5.763514e-01 5.912743e-01 6.087034e-01 6.215640e-01 6.369712e-01 6.475356e-01 6.605657e-01 6.686139e-01 6.789394e-01 6.842681e-01 6.916006e-01 6.940321e-01 6.981339e-01 6.975282e-01 6.982258e-01 6.944943e-01 6.916906e-01 6.848096e-01 6.784944e-01 6.685154e-01 6.587740e-01 6.458313e-01 6.328484e-01 6.171641e-01 6.012262e-01 5.831124e-01 5.646080e-01 5.444707e-01 5.238939e-01 5.022414e-01 4.802016e-01 4.576636e-01 4.349109e-01 4.122763e-01 3.897485e-01 3.680283e-01 3.469264e-01 3.274377e-01 3.093061e-01 2.937237e-01 2.804328e-01 2.706397e-01 2.640364e-01 
2.959765e-01 2.969016e-01 3.014136e-01 3.088133e-01 3.191250e-01 3.317028e-01 3.462970e-01 3.624444e-01 3.797559e-01 3.980062e-01 4.167150e-01 4.359018e-01 4.549841e-01 4.742261e-01 4.929041e-01 5.115394e-01 5.292162e-01 5.467403e-01 5.629484e-01 5.789690e-01 5.933356e-01 6.075429e-01 6.197689e-01 6.319170e-01 6.417646e-01 6.516608e-01 6.589473e-01 6.664454e-01 6.710404e-01 6.760376e-01 6.778615e-01 6.802959e-01 6.793195e-01 6.791696e-01 6.754130e-01 6.726965e-01 6.662281e-01 6.610011e-01 6.519362e-01 6.442926e-01 6.327909e-01 6.228621e-01 6.091270e-01 5.970824e-01 5.813607e-01 5.674099e-01 5.499941e-01 5.343919e-01 5.156275e-01 4.986834e-01 4.789822e-01 4.610769e-01 4.409397e-01 4.225520e-01 4.026038e-01 3.843510e-01 3.653900e-01 3.480835e-01 3.311351e-01 3.158363e-01 3.021760e-01 2.901999e-01 2.812531e-01 2.740056e-01 2.710025e-01 2.695619e-01 2.730041e-01 2.776346e-01 2.869897e-01 2.970422e-01 3.110112e-01 3.253089e-01 3.423836e-01 3.596864e-01 3.785355e-01 3.977807e-01 4.173677e-01 4.377117e-01 4.572675e-01 4.780421e-01 4.969980e-01 5.176522e-01 5.355768e-01 5.556282e-01 5.721774e-01 5.911794e-01 6.060590e-01 6.235831e-01 6.365239e-01 6.521532e-01 6.628966e-01 6.762302e-01 6.845251e-01 6.951888e-01 7.007981e-01 7.084596e-01 7.111732e-01 7.155598e-01 7.152128e-01 7.161283e-01 7.126187e-01 7.099584e-01 7.032628e-01 6.970248e-01 6.872086e-01 6.775004e-01 6.647236e-01 6.517642e-01 6.362828e-01 6.204013e-01 6.025669e-01 5.842003e-01 5.644610e-01 5.441544e-01 5.230612e-01 5.014754e-01 4.796985e-01 4.576297e-01 4.359894e-01 4.144060e-01 3.939185e-01 3.740084e-01 3.559314e-01 3.391299e-01 3.249523e-01 3.128602e-01 3.041153e-01 2.981725e-01 
3.315740e-01 3.319951e-01 3.356687e-01 3.419603e-01 3.509759e-01 3.621282e-01 3.752710e-01 3.899489e-01 4.058748e-01 4.227751e-01 4.402715e-01 4.582930e-01 4.763652e-01 4.946356e-01 5.124960e-01 5.303377e-01 5.473648e-01 5.642505e-01 5.799491e-01 5.954634e-01 6.094347e-01 6.232477e-01 6.351699e-01 6.470192e-01 6.566358e-01 6.663153e-01 6.734290e-01 6.807825e-01 6.852518e-01 6.901689e-01 6.919069e-01 6.943208e-01 6.932944e-01 6.931807e-01 6.894095e-01 6.867847e-01 6.803401e-01 6.752611e-01 6.662638e-01 6.588272e-01 6.474456e-01 6.377871e-01 6.242358e-01 6.125310e-01 5.970700e-01 5.835370e-01 5.664748e-01 5.513786e-01 5.330788e-01 5.167417e-01 4.976358e-01 4.804521e-01 4.610606e-01 4.435212e-01 4.244834e-01 4.072089e-01 3.893197e-01 3.730998e-01 3.573403e-01 3.431617e-01 3.306881e-01 3.197053e-01 3.117282e-01 3.051052e-01 3.026016e-01 3.011959e-01 3.045321e-01 3.085697e-01 3.173063e-01 3.263152e-01 3.393886e-01 3.524469e-01 3.685625e-01 3.846294e-01 4.025747e-01 4.206981e-01 4.394760e-01 4.588574e-01 4.776966e-01 4.976759e-01 5.159916e-01 5.360084e-01 5.533531e-01 5.729084e-01 5.889286e-01 6.075580e-01 6.219592e-01 6.392190e-01 6.517401e-01 6.672037e-01 6.776014e-01 6.908639e-01 6.989057e-01 7.095940e-01 7.150610e-01 7.228458e-01 7.255423e-01 7.301518e-01 7.299195e-01 7.311538e-01 7.278894e-01 7.256349e-01 7.193057e-01 7.135477e-01 7.042057e-01 6.950386e-01 6.828293e-01 6.704627e-01 6.556307e-01 6.403911e-01 6.232824e-01 6.056126e-01 5.866771e-01 5.671364e-01 5.469327e-01 5.262011e-01 5.054092e-01 4.842998e-01 4.637417e-01 4.432221e-01 4.238889e-01 4.051030e-01 3.881695e-01 3.724286e-01 3.592093e-01 3.478880e-01 3.396581e-01 3.339238e-01 
3.674730e-01 3.677658e-01 3.710598e-01 3.766786e-01 3.848483e-01 3.949570e-01 4.070011e-01 4.204745e-01 4.352431e-01 4.509372e-01 4.673425e-01 4.842466e-01 5.013542e-01 5.186348e-01 5.356761e-01 5.526649e-01 5.690145e-01 5.851788e-01 6.003275e-01 6.152410e-01 6.287721e-01 6.420921e-01 6.536656e-01 6.651175e-01 6.744603e-01 6.838271e-01 6.907276e-01 6.978438e-01 7.021496e-01 7.068973e-01 7.085142e-01 7.108210e-01 7.097125e-01 7.095501e-01 7.057366e-01 7.031199e-01 6.966772e-01 6.916636e-01 6.827208e-01 6.754095e-01 6.641464e-01 6.546782e-01 6.413232e-01 6.298811e-01 6.147103e-01 6.015216e-01 5.848606e-01 5.702022e-01 5.524318e-01 5.366382e-01 5.182063e-01 5.016835e-01 4.831222e-01 4.663674e-01 4.483168e-01 4.319426e-01 4.151751e-01 3.999340e-01 3.853651e-01 3.721551e-01 3.608100e-01 3.506286e-01 3.435217e-01 3.373263e-01 3.352316e-01 3.337088e-01 3.368952e-01 3.402447e-01 3.483512e-01 3.562406e-01 3.683992e-01 3.801241e-01 3.952369e-01 4.099525e-01 4.269410e-01 4.438308e-01 4.617690e-01 4.801153e-01 4.982640e-01 5.174508e-01 5.352397e-01 5.547254e-01 5.717150e-01 5.910013e-01 6.068417e-01 6.254477e-01 6.398413e-01 6.572900e-01 6.699612e-01 6.857777e-01 6.964543e-01 7.101741e-01 7.185820e-01 7.297670e-01 7.356378e-01 7.438965e-01 7.469860e-01 7.519959e-01 7.521079e-01 7.536365e-01 7.506472e-01 7.485703e-01 7.424473e-01 7.367618e-01 7.275767e-01 7.184084e-01 7.063415e-01 6.939452e-01 6.792850e-01 6.640410e-01 6.471801e-01 6.295874e-01 6.110200e-01 5.916911e-01 5.720134e-01 5.516727e-01 5.315904e-01 5.110795e-01 4.914200e-01 4.717068e-01 4.534320e-01 4.356123e-01 4.198108e-01 4.050753e-01 3.928985e-01 3.824180e-01 3.749153e-01 3.696173e-01 
4.047119e-01 4.045251e-01 4.070933e-01 4.118179e-01 4.189305e-01 4.278873e-01 4.387212e-01 4.509561e-01 4.645166e-01 4.790138e-01 4.943121e-01 5.101330e-01 5.262811e-01 5.426217e-01 5.588616e-01 5.750574e-01 5.907553e-01 6.062646e-01 6.208937e-01 6.352766e-01 6.483997e-01 6.612991e-01 6.725564e-01 6.836843e-01 6.927849e-01 7.019131e-01 7.086306e-01 7.155847e-01 7.197554e-01 7.244105e-01 7.259327e-01 7.282118e-01 7.270452e-01 7.269170e-01 7.230818e-01 7.205603e-01 7.141356e-01 7.092788e-01 7.004004e-01 6.933095e-01 6.821665e-01 6.729860e-01 6.598182e-01 6.487358e-01 6.338322e-01 6.210814e-01 6.047810e-01 5.906452e-01 5.733420e-01 5.581620e-01 5.403148e-01 5.245008e-01 5.066478e-01 4.906948e-01 4.734718e-01 4.579774e-01 4.421325e-01 4.278096e-01 4.142009e-01 4.018707e-01 3.914222e-01 3.819616e-01 3.755491e-01 3.697706e-01 3.680343e-01 3.665110e-01 3.696589e-01 3.725721e-01 3.802917e-01 3.873987e-01 3.989462e-01 4.096901e-01 4.240973e-01 4.377755e-01 4.540528e-01 4.699524e-01 4.872158e-01 5.046806e-01 5.222001e-01 5.406423e-01 5.578408e-01 5.767248e-01 5.931532e-01 6.119718e-01 6.272758e-01 6.455327e-01 6.594194e-01 6.766225e-01 6.888319e-01 7.044974e-01 7.147826e-01 7.284465e-01 7.365647e-01 7.477974e-01 7.535115e-01 7.619333e-01 7.650231e-01 7.703190e-01 7.705996e-01 7.725347e-01 7.698785e-01 7.683143e-01 7.626713e-01 7.575820e-01 7.489972e-01 7.404824e-01 7.291069e-01 7.173990e-01 7.034951e-01 6.889605e-01 6.729018e-01 6.560367e-01 6.383066e-01 6.197292e-01 6.009199e-01 5.813644e-01 5.621774e-01 5.424894e-01 5.237388e-01 5.048708e-01 4.874810e-01 4.704775e-01 4.554606e-01 4.414115e-01 4.297973e-01 4.197298e-01 4.124246e-01 4.071247e-01 
4.424043e-01 4.421096e-01 4.443888e-01 4.486026e-01 4.550655e-01 4.632014e-01 4.731525e-01 4.843886e-01 4.969694e-01 5.104105e-01 5.247388e-01 5.395326e-01 5.547875e-01 5.701807e-01 5.856376e-01 6.009902e-01 6.160253e-01 6.308036e-01 6.448860e-01 6.586484e-01 6.713291e-01 6.837121e-01 6.946160e-01 7.053236e-01 7.141440e-01 7.229393e-01 7.294356e-01 7.361360e-01 7.401328e-01 7.446066e-01 7.459943e-01 7.481587e-01 7.468934e-01 7.467132e-01 7.428163e-01 7.403033e-01 7.338597e-01 7.290718e-01 7.202271e-01 7.132678e-01 7.022243e-01 6.932422e-01 6.802551e-01 6.694444e-01 6.548190e-01 6.424208e-01 6.265118e-01 6.128177e-01 5.960325e-01 5.813908e-01 5.641965e-01 5.490207e-01 5.319557e-01 5.167354e-01 5.004208e-01 4.857320e-01 4.708781e-01 4.573856e-01 4.447798e-01 4.332206e-01 4.236781e-01 4.148081e-01 4.090701e-01 4.035660e-01 4.021518e-01 4.004834e-01 4.035472e-01 4.058748e-01 4.131451e-01 4.193005e-01 4.301456e-01 4.397082e-01 4.532895e-01 4.657066e-01 4.811425e-01 4.958330e-01 5.123143e-01 5.287252e-01 5.455714e-01 5.631902e-01 5.798608e-01 5.982013e-01 6.142771e-01 6.328564e-01 6.480074e-01 6.663265e-01 6.802719e-01 6.978080e-01 7.102805e-01 7.264920e-01 7.372118e-01 7.515551e-01 7.602214e-01 7.721760e-01 7.784778e-01 7.875744e-01 7.912171e-01 7.970668e-01 7.978070e-01 8.001281e-01 7.978070e-01 7.964473e-01 7.910165e-01 7.859685e-01 7.775032e-01 7.689117e-01 7.576129e-01 7.457729e-01 7.319615e-01 7.173090e-01 7.014163e-01 6.845144e-01 6.670720e-01 6.485956e-01 6.302286e-01 6.109513e-01 5.923745e-01 5.731565e-01 5.551713e-01 5.369467e-01 5.204308e-01 5.041827e-01 4.900593e-01 4.767659e-01 4.659342e-01 4.564707e-01 4.496853e-01 4.446825e-01 
4.815587e-01 4.807725e-01 4.823619e-01 4.857992e-01 4.913412e-01 4.985081e-01 5.074182e-01 5.176005e-01 5.291265e-01 5.415214e-01 5.548600e-01 5.686775e-01 5.830539e-01 5.975749e-01 6.122834e-01 6.268813e-01 6.412987e-01 6.554399e-01 6.690247e-01 6.822613e-01 6.945489e-01 7.065081e-01 7.171059e-01 7.274821e-01 7.360667e-01 7.446143e-01 7.509305e-01 7.574597e-01 7.613210e-01 7.656945e-01 7.669834e-01 7.691145e-01 7.677836e-01 7.676345e-01 7.637055e-01 7.612870e-01 7.548491e-01 7.502193e-01 7.414258e-01 7.346898e-01 7.237531e-01 7.150620e-01 7.022492e-01 6.918006e-01 6.774288e-01 6.654671e-01 6.499018e-01 6.367215e-01 6.203780e-01 6.063280e-01 5.896766e-01 5.751670e-01 5.587413e-01 5.442501e-01 5.286550e-01 5.147338e-01 5.006463e-01 4.879166e-01 4.760691e-01 4.652008e-01 4.563318e-01 4.479940e-01 4.427579e-01 4.375367e-01 4.363814e-01 4.346829e-01 4.377367e-01 4.397121e-01 4.467360e-01 4.522694e-01 4.627043e-01 4.714681e-01 4.845555e-01 4.961001e-01 5.110178e-01 5.248520e-01 5.408216e-01 5.564579e-01 5.728057e-01 5.897706e-01 6.059485e-01 6.237699e-01 6.393485e-01 6.575371e-01 6.721806e-01 6.902184e-01 7.036525e-01 7.209958e-01 7.329750e-01 7.490709e-01 7.593535e-01 7.736644e-01 7.819990e-01 7.940266e-01 8.001535e-01 8.094570e-01 8.131224e-01 8.193334e-01 8.203131e-01 8.231508e-01 8.212786e-01 8.205685e-01 8.157641e-01 8.114586e-01 8.037496e-01 7.959462e-01 7.854812e-01 7.744321e-01 7.614846e-01 7.475967e-01 7.325623e-01 7.163857e-01 6.997734e-01 6.819841e-01 6.644072e-01 6.457858e-01 6.279511e-01 6.093610e-01 5.920564e-01 5.744193e-01 5.584932e-01 5.427540e-01 5.290784e-01 5.161490e-01 5.055512e-01 4.962230e-01 4.893853e-01 4.842170e-01 
5.213789e-01 5.204827e-01 5.218201e-01 5.248379e-01 5.298451e-01 5.363368e-01 5.445122e-01 5.538502e-01 5.645392e-01 5.760105e-01 5.884960e-01 6.013845e-01 6.149548e-01 6.285926e-01 6.425800e-01 6.563716e-01 6.701698e-01 6.835974e-01 6.966670e-01 7.092878e-01 7.211564e-01 7.325969e-01 7.428587e-01 7.528085e-01 7.611248e-01 7.693324e-01 7.754330e-01 7.817020e-01 7.853877e-01 7.895744e-01 7.907193e-01 7.927312e-01 7.912839e-01 7.910793e-01 7.870632e-01 7.846500e-01 7.781615e-01 7.735973e-01 7.648018e-01 7.581929e-01 7.473186e-01 7.388200e-01 7.261515e-01 7.159658e-01 7.018375e-01 6.902154e-01 6.750078e-01 6.622496e-01 6.463879e-01 6.328461e-01 6.168029e-01 6.028854e-01 5.871858e-01 5.733590e-01 5.585840e-01 5.453717e-01 5.321547e-01 5.201291e-01 5.091356e-01 4.988925e-01 4.907733e-01 4.828869e-01 4.782006e-01 4.731590e-01 4.722747e-01 4.704101e-01 4.734213e-01 4.748628e-01 4.815527e-01 4.862239e-01 4.961013e-01 5.037644e-01 5.161577e-01 5.264810e-01 5.406510e-01 5.532680e-01 5.685055e-01 5.830471e-01 5.987364e-01 6.148326e-01 6.304796e-01 6.477409e-01 6.629699e-01 6.809604e-01 6.954865e-01 7.137053e-01 7.272907e-01 7.451683e-01 7.575736e-01 7.744876e-01 7.854336e-01 8.007391e-01 8.098921e-01 8.229605e-01 8.299475e-01 8.402066e-01 8.446567e-01 8.516293e-01 8.532264e-01 8.565642e-01 8.550964e-01 8.546079e-01 8.500009e-01 8.456700e-01 8.380007e-01 8.299931e-01 8.194858e-01 8.081429e-01 7.951540e-01 7.809756e-01 7.659743e-01 7.495936e-01 7.331436e-01 7.152991e-01 6.980432e-01 6.795512e-01 6.621988e-01 6.439271e-01 6.272398e-01 6.100794e-01 5.948502e-01 5.796791e-01 5.666956e-01 5.543255e-01 5.443101e-01 5.354139e-01 5.289416e-01 5.239682e-01 
5.626996e-01 5.612761e-01 5.619132e-01 5.642166e-01 5.683756e-01 5.740221e-01 5.812732e-01 5.897032e-01 5.994639e-01 6.100273e-01 6.216388e-01 6.336674e-01 6.464563e-01 6.593126e-01 6.726302e-01 6.857337e-01 6.989774e-01 7.118146e-01 7.244378e-01 7.365637e-01 7.480806e-01 7.591161e-01 7.691047e-01 7.787331e-01 7.868385e-01 7.948020e-01 8.007396e-01 8.068367e-01 8.103959e-01 8.144791e-01 8.155262e-01 8.175002e-01 8.159804e-01 8.158013e-01 8.117392e-01 8.094142e-01 8.029113e-01 7.984979e-01 7.897288e-01 7.833344e-01 7.725390e-01 7.643200e-01 7.517955e-01 7.419564e-01 7.280489e-01 7.168418e-01 7.019403e-01 6.896653e-01 6.741986e-01 6.612050e-01 6.456424e-01 6.323298e-01 6.171840e-01 6.040024e-01 5.898313e-01 5.772772e-01 5.646786e-01 5.532827e-01 5.428743e-01 5.331772e-01 5.255542e-01 5.180660e-01 5.137336e-01 5.088817e-01 5.081727e-01 5.062494e-01 5.092517e-01 5.103812e-01 5.169056e-01 5.210458e-01 5.306513e-01 5.376301e-01 5.496977e-01 5.592649e-01 5.730947e-01 5.849655e-01 5.998658e-01 6.137409e-01 6.290937e-01 6.446506e-01 6.599462e-01 6.768141e-01 6.916569e-01 7.093894e-01 7.234795e-01 7.415423e-01 7.546420e-01 7.724269e-01 7.843206e-01 8.011826e-01 8.116426e-01 8.269478e-01 8.357156e-01 8.488796e-01 8.556658e-01 8.661760e-01 8.706779e-01 8.781026e-01 8.800365e-01 8.840356e-01 8.831760e-01 8.835217e-01 8.797390e-01 8.763456e-01 8.696354e-01 8.625865e-01 8.530856e-01 8.426501e-01 8.306385e-01 8.172672e-01 8.031592e-01 7.874645e-01 7.717930e-01 7.545161e-01 7.379130e-01 7.198857e-01 7.030603e-01 6.851659e-01 6.688807e-01 6.520144e-01 6.370549e-01 6.220801e-01 6.092136e-01 5.969095e-01 5.868280e-01 5.778252e-01 5.710751e-01 5.657886e-01 