# vtk DataFile Version 2.0
Comment goes here
ASCII

DATASET STRUCTURED_POINTS
FIELD FieldData 1
TIME 1 1 double
0.07000000
DIMENSIONS    128   128   1

ORIGIN    0.000   0.000   0.000
SPACING   0.039062 0.039062   1.000

POINT_DATA   16384
SCALARS uMag double
LOOKUP_TABLE default

1.378666e-01 1.009447e-01 6.795529e-02 3.118149e-02 1.512371e-03 3.775354e-02 6.979870e-02 1.051503e-01 1.362182e-01 1.703503e-01 2.001371e-01 2.327462e-01 2.609727e-01 2.917814e-01 3.181933e-01 3.469508e-01 3.713194e-01 3.978019e-01 4.199251e-01 4.439376e-01 4.636413e-01 4.850193e-01 5.021592e-01 5.207701e-01 5.352332e-01 5.509786e-01 5.626844e-01 5.755007e-01 5.844024e-01 5.942612e-01 6.003454e-01 6.072528e-01 6.105392e-01 6.145337e-01 6.150735e-01 6.162236e-01 6.140967e-01 6.124967e-01 6.078092e-01 6.035746e-01 5.964547e-01 5.897170e-01 5.803112e-01 5.712128e-01 5.596814e-01 5.483700e-01 5.348832e-01 5.215069e-01 5.062404e-01 4.909434e-01 4.740749e-01 4.569936e-01 4.386988e-01 4.199590e-01 4.004088e-01 3.801233e-01 3.594806e-01 3.377490e-01 3.161661e-01 2.930739e-01 2.706901e-01 2.463110e-01 2.232510e-01 1.976485e-01 1.740215e-01 1.472536e-01 1.231529e-01 9.527754e-02 7.078286e-02 4.186491e-02 1.704513e-02 1.283441e-02 3.791543e-02 6.864953e-02 9.392517e-02 1.253700e-01 1.507611e-01 1.827252e-01 2.081292e-01 2.403644e-01 2.656434e-01 2.978382e-01 3.228088e-01 3.545860e-01 3.790116e-01 4.099308e-01 4.335179e-01 4.630846e-01 4.854848e-01 5.131650e-01 5.339833e-01 5.592237e-01 5.780329e-01 6.002846e-01 6.166450e-01 6.353899e-01 6.488722e-01 6.636487e-01 6.738584e-01 6.842849e-01 6.908857e-01 6.966793e-01 6.994127e-01 7.004020e-01 6.991019e-01 6.952333e-01 6.898343e-01 6.811710e-01 6.717101e-01 6.584248e-01 6.450370e-01 6.273998e-01 6.103083e-01 5.886703e-01 5.681732e-01 5.429489e-01 5.194037e-01 4.910521e-01 4.648594e-01 4.338661e-01 4.054540e-01 3.723161e-01 3.421259e-01 3.073385e-01 2.758128e-01 2.398586e-01 2.074320e-01 1.707745e-01 
1.414914e-01 1.061058e-01 7.565796e-02 4.612658e-02 3.455059e-02 5.156947e-02 7.835758e-02 1.111813e-01 1.410368e-01 1.743174e-01 2.035931e-01 2.357812e-01 2.637280e-01 2.942865e-01 3.205209e-01 3.491128e-01 3.733562e-01 3.997209e-01 4.217478e-01 4.456715e-01 4.652953e-01 4.866025e-01 5.036714e-01 5.222228e-01 5.366189e-01 5.523111e-01 5.639510e-01 5.767171e-01 5.855517e-01 5.953608e-01 6.013757e-01 6.082320e-01 6.114464e-01 6.153874e-01 6.158524e-01 6.169459e-01 6.147421e-01 6.130822e-01 6.083164e-01 6.040192e-01 5.968210e-01 5.900189e-01 5.805362e-01 5.713729e-01 5.597679e-01 5.483931e-01 5.348380e-01 5.214021e-01 5.060750e-01 4.907250e-01 4.738061e-01 4.566817e-01 4.383501e-01 4.195810e-01 4.000114e-01 3.797157e-01 3.590763e-01 3.373602e-01 3.158111e-01 2.927709e-01 2.704640e-01 2.461909e-01 2.232747e-01 1.978687e-01 1.745037e-01 1.481128e-01 1.245351e-01 9.752093e-02 7.439577e-02 4.864932e-02 3.155478e-02 3.088188e-02 4.808697e-02 7.523777e-02 9.922851e-02 1.296163e-01 1.545154e-01 1.859436e-01 2.110727e-01 2.429599e-01 2.680492e-01 2.999863e-01 3.248086e-01 3.563807e-01 3.806815e-01 4.114313e-01 4.349092e-01 4.643338e-01 4.866368e-01 5.141975e-01 5.349287e-01 5.600692e-01 5.788003e-01 6.009699e-01 6.172604e-01 6.359393e-01 6.493592e-01 6.640848e-01 6.742391e-01 6.846285e-01 6.911805e-01 6.969502e-01 6.996413e-01 7.006194e-01 6.992836e-01 6.954163e-01 6.899888e-01 6.813392e-01 6.718578e-01 6.585991e-01 6.452001e-01 6.276032e-01 6.105112e-01 5.889289e-01 5.684443e-01 5.432932e-01 5.197769e-01 4.915200e-01 4.653776e-01 4.345078e-01 4.061763e-01 3.732034e-01 3.431405e-01 3.085856e-01 2.772682e-01 2.416724e-01 2.096179e-01 1.736034e-01 
1.547291e-01 1.228015e-01 9.728423e-02 7.603485e-02 6.903150e-02 7.845549e-02 9.774221e-02 1.253308e-01 1.521710e-01 1.832787e-01 2.111255e-01 2.422030e-01 2.693397e-01 2.992436e-01 3.249643e-01 3.531335e-01 3.770282e-01 4.031030e-01 4.248837e-01 4.486003e-01 4.680470e-01 4.892026e-01 5.061442e-01 5.245832e-01 5.388900e-01 5.544994e-01 5.660801e-01 5.787866e-01 5.875870e-01 5.973560e-01 6.033577e-01 6.101912e-01 6.134105e-01 6.173447e-01 6.178305e-01 6.189325e-01 6.167638e-01 6.151275e-01 6.104097e-01 6.061511e-01 5.990128e-01 5.922644e-01 5.828530e-01 5.737586e-01 5.622362e-01 5.509455e-01 5.374850e-01 5.241487e-01 5.089296e-01 4.936954e-01 4.769005e-01 4.599095e-01 4.417224e-01 4.231073e-01 4.037100e-01 3.835947e-01 3.631667e-01 3.416683e-01 3.203886e-01 2.976244e-01 2.756775e-01 2.517804e-01 2.293759e-01 2.045349e-01 1.819627e-01 1.565412e-01 1.343599e-01 1.093426e-01 8.920113e-02 6.848525e-02 5.742699e-02 5.625531e-02 6.712261e-02 8.820046e-02 1.093260e-01 1.373264e-01 1.610214e-01 1.913561e-01 2.158678e-01 2.472087e-01 2.719414e-01 3.036151e-01 3.282193e-01 3.596938e-01 3.838611e-01 4.146169e-01 4.380188e-01 4.675138e-01 4.897830e-01 5.174514e-01 5.381813e-01 5.634465e-01 5.822019e-01 6.044973e-01 6.208320e-01 6.396265e-01 6.531058e-01 6.679287e-01 6.781536e-01 6.886177e-01 6.952481e-01 7.010685e-01 7.038433e-01 7.048496e-01 7.036015e-01 6.997439e-01 6.944079e-01 6.857557e-01 6.763710e-01 6.631053e-01 6.498109e-01 6.322122e-01 6.152379e-01 5.936704e-01 5.733242e-01 5.482188e-01 5.248725e-01 4.967107e-01 4.707871e-01 4.400881e-01 4.120515e-01 3.793674e-01 3.497235e-01 3.156510e-01 2.849706e-01 2.502077e-01 2.192195e-01 1.847721e-01 
1.730654e-01 1.452679e-01 1.244109e-01 1.086574e-01 1.038193e-01 1.103507e-01 1.247369e-01 1.473748e-01 1.707235e-01 1.989575e-01 2.248130e-01 2.542215e-01 2.801404e-01 3.089948e-01 3.339091e-01 3.613719e-01 3.846974e-01 4.102711e-01 4.316290e-01 4.549749e-01 4.740939e-01 4.949651e-01 5.116429e-01 5.298562e-01 5.439430e-01 5.593670e-01 5.707584e-01 5.833074e-01 5.919402e-01 6.015711e-01 6.074208e-01 6.141299e-01 6.172092e-01 6.210290e-01 6.213847e-01 6.223808e-01 6.200910e-01 6.183570e-01 6.135279e-01 6.091805e-01 6.019423e-01 5.951160e-01 5.856188e-01 5.764604e-01 5.648699e-01 5.535331e-01 5.400269e-01 5.266674e-01 5.114311e-01 4.962027e-01 4.794274e-01 4.624792e-01 4.443589e-01 4.258344e-01 4.065658e-01 3.866042e-01 3.663880e-01 3.451299e-01 3.241772e-01 3.017779e-01 2.803258e-01 2.569862e-01 2.353364e-01 2.113776e-01 1.899984e-01 1.660639e-01 1.458876e-01 1.235798e-01 1.069575e-01 9.087053e-02 8.386171e-02 8.354545e-02 9.209509e-02 1.087710e-01 1.270872e-01 1.520866e-01 1.741487e-01 2.027080e-01 2.262256e-01 2.564583e-01 2.805235e-01 3.114724e-01 3.355927e-01 3.665832e-01 3.903818e-01 4.208152e-01 4.439289e-01 4.732145e-01 4.952572e-01 5.227957e-01 5.433494e-01 5.685395e-01 5.871610e-01 6.094176e-01 6.256542e-01 6.444318e-01 6.578432e-01 6.726610e-01 6.828432e-01 6.933075e-01 6.999167e-01 7.057397e-01 7.085120e-01 7.095239e-01 7.082910e-01 7.044457e-01 6.991433e-01 6.905162e-01 6.811864e-01 6.679673e-01 6.547543e-01 6.372348e-01 6.203761e-01 5.989344e-01 5.787493e-01 5.538343e-01 5.307114e-01 5.028294e-01 4.772167e-01 4.469240e-01 4.193261e-01 3.872349e-01 3.582273e-01 3.250411e-01 2.953247e-01 2.619488e-01 2.325171e-01 2.003943e-01 
1.973930e-01 1.731123e-01 1.556072e-01 1.428797e-01 1.387640e-01 1.433256e-01 1.542435e-01 1.727733e-01 1.927249e-01 2.179194e-01 2.414747e-01 2.689110e-01 2.933060e-01 3.208564e-01 3.447240e-01 3.712886e-01 3.938669e-01 4.187982e-01 4.396065e-01 4.624786e-01 4.811852e-01 5.016985e-01 5.180634e-01 5.360016e-01 5.498507e-01 5.650609e-01 5.762732e-01 5.886559e-01 5.971566e-01 6.066593e-01 6.124161e-01 6.190294e-01 6.220488e-01 6.258021e-01 6.261267e-01 6.270836e-01 6.247889e-01 6.230425e-01 6.182328e-01 6.139004e-01 6.067049e-01 5.999220e-01 5.904912e-01 5.814058e-01 5.699069e-01 5.586746e-01 5.452878e-01 5.320666e-01 5.169824e-01 5.019296e-01 4.853458e-01 4.686157e-01 4.507371e-01 4.324812e-01 4.135201e-01 3.938908e-01 3.740714e-01 3.532317e-01 3.328007e-01 3.109442e-01 2.901948e-01 2.675905e-01 2.469161e-01 2.240067e-01 2.040275e-01 1.816700e-01 1.635434e-01 1.436112e-01 1.297483e-01 1.163585e-01 1.111822e-01 1.104767e-01 1.172884e-01 1.304850e-01 1.462827e-01 1.683396e-01 1.886564e-01 2.153434e-01 2.377441e-01 2.668513e-01 2.901825e-01 3.204875e-01 3.441103e-01 3.747745e-01 3.982329e-01 4.285537e-01 4.514403e-01 4.807557e-01 5.026579e-01 5.303157e-01 5.507981e-01 5.761557e-01 5.947620e-01 6.172022e-01 6.334689e-01 6.524220e-01 6.658991e-01 6.808673e-01 6.911424e-01 7.017225e-01 7.084447e-01 7.143457e-01 7.172461e-01 7.183013e-01 7.172087e-01 7.133798e-01 7.082301e-01 6.996051e-01 6.904433e-01 6.772283e-01 6.642053e-01 6.467114e-01 6.300754e-01 6.087042e-01 5.887901e-01 5.640189e-01 5.412378e-01 5.136087e-01 4.884413e-01 4.585601e-01 4.315610e-01 4.001132e-01 3.719373e-01 3.397445e-01 3.112261e-01 2.793919e-01 2.517495e-01 2.220341e-01 
2.241881e-01 2.030437e-01 1.881727e-01 1.777029e-01 1.742161e-01 1.777884e-01 1.865052e-01 2.020268e-01 2.191527e-01 2.415459e-01 2.628318e-01 2.881901e-01 3.109309e-01 3.369974e-01 3.596612e-01 3.851543e-01 4.068369e-01 4.309762e-01 4.510996e-01 4.733715e-01 4.915400e-01 5.115866e-01 5.275175e-01 5.450833e-01 5.585736e-01 5.734785e-01 5.843869e-01 5.965122e-01 6.047499e-01 6.140303e-01 6.195549e-01 6.259721e-01 6.287839e-01 6.323620e-01 6.324998e-01 6.332998e-01 6.308375e-01 6.289523e-01 6.239945e-01 6.195428e-01 6.122211e-01 6.053417e-01 5.958100e-01 5.866555e-01 5.750866e-01 5.638183e-01 5.503997e-01 5.371830e-01 5.221146e-01 5.071158e-01 4.906080e-01 4.739928e-01 4.562668e-01 4.382022e-01 4.194927e-01 4.001526e-01 3.807147e-01 3.602936e-01 3.404188e-01 3.191591e-01 2.992060e-01 2.774539e-01 2.579134e-01 2.362346e-01 2.178649e-01 1.972902e-01 1.813888e-01 1.638968e-01 1.527236e-01 1.418100e-01 1.385245e-01 1.382468e-01 1.446171e-01 1.557753e-01 1.699181e-01 1.894837e-01 2.082467e-01 2.329417e-01 2.541496e-01 2.818289e-01 3.042620e-01 3.335827e-01 3.565161e-01 3.865245e-01 4.094438e-01 4.393502e-01 4.618130e-01 4.908896e-01 5.124623e-01 5.400053e-01 5.602385e-01 5.855642e-01 6.039908e-01 6.264485e-01 6.425952e-01 6.615893e-01 6.749971e-01 6.900113e-01 7.002592e-01 7.108790e-01 7.176087e-01 7.235388e-01 7.264763e-01 7.275518e-01 7.265235e-01 7.227139e-01 7.176563e-01 7.090622e-01 7.000247e-01 6.868688e-01 6.740104e-01 6.566244e-01 6.402058e-01 6.190157e-01 5.993898e-01 5.749029e-01 5.525057e-01 5.253025e-01 5.006509e-01 4.713892e-01 4.450906e-01 4.145310e-01 3.873205e-01 3.563967e-01 3.292293e-01 2.992080e-01 2.734649e-01 2.462850e-01 
2.544546e-01 2.356044e-01 2.224951e-01 2.133009e-01 2.099556e-01 2.125640e-01 2.194710e-01 2.325038e-01 2.471373e-01 2.669544e-01 2.860149e-01 3.092856e-01 3.302811e-01 3.547703e-01 3.761071e-01 4.004210e-01 4.210935e-01 4.443433e-01 4.636902e-01 4.852812e-01 5.028469e-01 5.223643e-01 5.378242e-01 5.549730e-01 5.680943e-01 5.826672e-01 5.932875e-01 6.051471e-01 6.131624e-01 6.222306e-01 6.275874e-01 6.338380e-01 6.365285e-01 6.399806e-01 6.400379e-01 6.407506e-01 6.382447e-01 6.363103e-01 6.313437e-01 6.268820e-01 6.195854e-01 6.127369e-01 6.032651e-01 5.941849e-01 5.827129e-01 5.715655e-01 5.582852e-01 5.452398e-01 5.303577e-01 5.155854e-01 4.993218e-01 4.829953e-01 4.655854e-01 4.478815e-01 4.295796e-01 4.106874e-01 3.917764e-01 3.719137e-01 3.527228e-01 3.321682e-01 3.131076e-01 2.922606e-01 2.738858e-01 2.533823e-01 2.365131e-01 2.174377e-01 2.033526e-01 1.875673e-01 1.781919e-01 1.685342e-01 1.661355e-01 1.655355e-01 1.712540e-01 1.805263e-01 1.931910e-01 2.105266e-01 2.278445e-01 2.507178e-01 2.707834e-01 2.971906e-01 3.187721e-01 3.472984e-01 3.696072e-01 3.991932e-01 4.216617e-01 4.514220e-01 4.735711e-01 5.026969e-01 5.240682e-01 5.517874e-01 5.719133e-01 5.974847e-01 6.158827e-01 6.386089e-01 6.547918e-01 6.740409e-01 6.875364e-01 7.027669e-01 7.131419e-01 7.239248e-01 7.308104e-01 7.368463e-01 7.399606e-01 7.410898e-01 7.402546e-01 7.364593e-01 7.316109e-01 7.230110e-01 7.142029e-01 7.010457e-01 6.884461e-01 6.710920e-01 6.549765e-01 6.338846e-01 6.146268e-01 5.903421e-01 5.684065e-01 5.415545e-01 5.174960e-01 4.887899e-01 4.632674e-01 4.335391e-01 4.073569e-01 3.776306e-01 3.518285e-01 3.234685e-01 2.994971e-01 2.744657e-01 
2.860959e-01 2.692864e-01 2.576349e-01 2.495681e-01 2.464359e-01 2.485081e-01 2.541612e-01 2.653623e-01 2.780081e-01 2.956498e-01 3.127240e-01 3.340435e-01 3.533498e-01 3.762590e-01 3.962370e-01 4.193133e-01 4.389068e-01 4.611920e-01 4.796784e-01 5.005118e-01 5.173827e-01 5.362966e-01 5.511866e-01 5.678454e-01 5.804910e-01 5.946572e-01 6.048731e-01 6.163873e-01 6.240524e-01 6.328207e-01 6.378698e-01 6.438553e-01 6.462722e-01 6.494880e-01 6.493009e-01 6.498031e-01 6.470799e-01 6.449611e-01 6.398047e-01 6.351871e-01 6.277310e-01 6.207597e-01 6.111634e-01 6.019998e-01 5.904453e-01 5.792613e-01 5.659499e-01 5.529239e-01 5.380740e-01 5.233880e-01 5.072354e-01 4.910753e-01 4.738752e-01 4.564347e-01 4.384674e-01 4.199576e-01 4.015397e-01 3.822089e-01 3.637135e-01 3.438816e-01 3.257734e-01 3.058948e-01 2.887909e-01 2.695624e-01 2.543263e-01 2.368576e-01 2.247161e-01 2.107262e-01 2.032904e-01 1.950800e-01 1.939523e-01 1.936457e-01 1.994670e-01 2.077031e-01 2.195914e-01 2.352384e-01 2.514923e-01 2.726886e-01 2.917339e-01 3.167660e-01 3.374669e-01 3.649775e-01 3.865504e-01 4.154489e-01 4.373107e-01 4.666547e-01 4.883120e-01 5.172319e-01 5.382154e-01 5.658809e-01 5.857146e-01 6.113317e-01 6.295248e-01 6.523506e-01 6.684064e-01 6.877727e-01 7.012080e-01 7.165471e-01 7.269174e-01 7.377848e-01 7.447110e-01 7.508021e-01 7.539944e-01 7.551537e-01 7.544298e-01 7.506524e-01 7.459483e-01 7.373735e-01 7.287479e-01 7.156474e-01 7.032784e-01 6.860414e-01 6.702197e-01 6.493378e-01 6.304579e-01 6.065128e-01 5.850670e-01 5.587266e-01 5.353058e-01 5.073337e-01 4.826433e-01 4.539316e-01 4.288318e-01 4.004705e-01 3.760567e-01 3.494564e-01 3.271897e-01 3.042492e-01 
3.200526e-01 3.046674e-01 2.939735e-01 2.865156e-01 2.833318e-01 2.847680e-01 2.892626e-01 2.988356e-01 3.096939e-01 3.253557e-01 3.405558e-01 3.600061e-01 3.776366e-01 3.989621e-01 4.175400e-01 4.393325e-01 4.577871e-01 4.790469e-01 4.966151e-01 5.166302e-01 5.327622e-01 5.510195e-01 5.653151e-01 5.814428e-01 5.936108e-01 6.073440e-01 6.171777e-01 6.283370e-01 6.356991e-01 6.441768e-01 6.489896e-01 6.547398e-01 6.569781e-01 6.600088e-01 6.596940e-01 6.600592e-01 6.572548e-01 6.550473e-01 6.498535e-01 6.451973e-01 6.377466e-01 6.307894e-01 6.212424e-01 6.121491e-01 6.006904e-01 5.896368e-01 5.764725e-01 5.636412e-01 5.489974e-01 5.345755e-01 5.186985e-01 5.028780e-01 4.860377e-01 4.690207e-01 4.515166e-01 4.335260e-01 4.156994e-01 3.969993e-01 3.792531e-01 3.601840e-01 3.430145e-01 3.240523e-01 3.080984e-01 2.899470e-01 2.760558e-01 2.597748e-01 2.490566e-01 2.361702e-01 2.299450e-01 2.223475e-01 2.218040e-01 2.211971e-01 2.267772e-01 2.338257e-01 2.448964e-01 2.589633e-01 2.742249e-01 2.939368e-01 3.120617e-01 3.359495e-01 3.558852e-01 3.826496e-01 4.036202e-01 4.321395e-01 4.535477e-01 4.828141e-01 5.041503e-01 5.332178e-01 5.539985e-01 5.819607e-01 6.016966e-01 6.276889e-01 6.458758e-01 6.690947e-01 6.852212e-01 7.049507e-01 7.185182e-01 7.341575e-01 7.447060e-01 7.557921e-01 7.629286e-01 7.691530e-01 7.725765e-01 7.737923e-01 7.733136e-01 7.695346e-01 7.650886e-01 7.564810e-01 7.481310e-01 7.349994e-01 7.229343e-01 7.057053e-01 6.902327e-01 6.694382e-01 6.509758e-01 6.272405e-01 6.063098e-01 5.803472e-01 5.575743e-01 5.301961e-01 5.063261e-01 4.784726e-01 4.544043e-01 4.272033e-01 4.040524e-01 3.789086e-01 3.580908e-01 3.367758e-01 
3.551299e-01 3.410704e-01 3.312076e-01 3.243691e-01 3.212054e-01 3.222594e-01 3.258868e-01 3.342256e-01 3.436336e-01 3.576526e-01 3.712218e-01 3.890074e-01 4.050914e-01 4.249280e-01 4.421521e-01 4.626893e-01 4.800004e-01 5.002282e-01 5.168426e-01 5.360152e-01 5.513520e-01 5.689181e-01 5.825461e-01 5.980996e-01 6.097007e-01 6.229484e-01 6.322939e-01 6.430339e-01 6.499696e-01 6.580778e-01 6.625130e-01 6.679326e-01 6.698331e-01 6.725657e-01 6.719477e-01 6.720452e-01 6.689697e-01 6.665260e-01 6.610942e-01 6.562372e-01 6.485849e-01 6.414687e-01 6.317623e-01 6.225594e-01 6.109918e-01 5.998874e-01 5.866757e-01 5.738627e-01 5.592465e-01 5.449236e-01 5.291663e-01 5.135389e-01 4.969314e-01 4.802169e-01 4.630848e-01 4.455245e-01 4.282402e-01 4.101204e-01 3.931220e-01 3.748087e-01 3.586277e-01 3.406205e-01 3.259185e-01 3.089275e-01 2.965332e-01 2.815677e-01 2.724813e-01 2.608924e-01 2.561821e-01 2.495291e-01 2.500375e-01 2.496587e-01 2.556069e-01 2.620771e-01 2.729129e-01 2.858667e-01 3.005489e-01 3.189964e-01 3.364202e-01 3.591681e-01 3.784038e-01 4.042855e-01 4.246100e-01 4.525381e-01 4.733762e-01 5.023228e-01 5.231752e-01 5.521471e-01 5.725367e-01 6.005681e-01 6.200088e-01 6.461740e-01 6.641601e-01 6.875992e-01 7.036131e-01 7.235639e-01 7.370964e-01 7.529243e-01 7.635023e-01 7.747255e-01 7.819427e-01 7.882478e-01 7.917924e-01 7.930407e-01 7.927169e-01 7.889413e-01 7.846828e-01 7.760765e-01 7.679511e-01 7.548517e-01 7.430589e-01 7.259289e-01 7.107923e-01 6.902017e-01 6.721600e-01 6.487724e-01 6.283727e-01 6.029406e-01 5.808384e-01 5.542115e-01 5.311820e-01 5.043328e-01 4.812985e-01 4.553677e-01 4.334418e-01 4.097956e-01 3.903244e-01 3.705846e-01 
3.920130e-01 3.788367e-01 3.694926e-01 3.629382e-01 3.596231e-01 3.601768e-01 3.629462e-01 3.701118e-01 3.781708e-01 3.906579e-01 4.026879e-01 4.188845e-01 4.334643e-01 4.518345e-01 4.677035e-01 4.869674e-01 5.031088e-01 5.222638e-01 5.378907e-01 5.561707e-01 5.706838e-01 5.875093e-01 6.004548e-01 6.153921e-01 6.264311e-01 6.391632e-01 6.480489e-01 6.583559e-01 6.649188e-01 6.726636e-01 6.768011e-01 6.819186e-01 6.835873e-01 6.860746e-01 6.852837e-01 6.851916e-01 6.819974e-01 6.794210e-01 6.739215e-01 6.689917e-01 6.613216e-01 6.541960e-01 6.445224e-01 6.353779e-01 6.238963e-01 6.129221e-01 5.998539e-01 5.872469e-01 5.728387e-01 5.588014e-01 5.433264e-01 5.280678e-01 5.118295e-01 4.955711e-01 4.789111e-01 4.618987e-01 4.452076e-01 4.277318e-01 4.114657e-01 3.938943e-01 3.785960e-01 3.614212e-01 3.477441e-01 3.316445e-01 3.203679e-01 3.062704e-01 2.982773e-01 2.873725e-01 2.835407e-01 2.771631e-01 2.781374e-01 2.774521e-01 2.833780e-01 2.889957e-01 2.994276e-01 3.112339e-01 3.253246e-01 3.426347e-01 3.594391e-01 3.812800e-01 3.999557e-01 4.252658e-01 4.451263e-01 4.728347e-01 4.933165e-01 5.223563e-01 5.429626e-01 5.722709e-01 5.925229e-01 6.210503e-01 6.404567e-01 6.671931e-01 6.852392e-01 7.092489e-01 7.254039e-01 7.458641e-01 7.596020e-01 7.758372e-01 7.866665e-01 7.981738e-01 8.056703e-01 8.121340e-01 8.159711e-01 8.172664e-01 8.172388e-01 8.134252e-01 8.094634e-01 8.007705e-01 7.929466e-01 7.797540e-01 7.682793e-01 7.510951e-01 7.363115e-01 7.157517e-01 6.981220e-01 6.748953e-01 6.549942e-01 6.298947e-01 6.084065e-01 5.823188e-01 5.600436e-01 5.339620e-01 5.118334e-01 4.868924e-01 4.660021e-01 4.435065e-01 4.251148e-01 4.065297e-01 
4.300971e-01 4.177841e-01 4.088931e-01 4.026734e-01 3.992536e-01 3.994784e-01 4.015556e-01 4.078039e-01 4.147322e-01 4.259447e-01 4.366321e-01 4.514419e-01 4.646583e-01 4.816992e-01 4.962972e-01 5.143726e-01 5.293831e-01 5.475145e-01 5.621586e-01 5.795713e-01 5.932379e-01 6.093303e-01 6.215467e-01 6.358590e-01 6.462658e-01 6.584567e-01 6.667884e-01 6.766173e-01 6.826887e-01 6.900030e-01 6.936991e-01 6.984233e-01 6.996919e-01 7.018179e-01 7.006630e-01 7.002405e-01 6.967164e-01 6.938436e-01 6.880498e-01 6.828634e-01 6.749388e-01 6.676050e-01 6.577235e-01 6.484288e-01 6.367954e-01 6.257399e-01 6.125880e-01 5.999799e-01 5.855708e-01 5.716241e-01 5.562483e-01 5.411837e-01 5.251656e-01 5.092166e-01 4.929213e-01 4.763458e-01 4.601900e-01 4.432903e-01 4.277552e-01 4.109075e-01 3.965542e-01 3.802495e-01 3.677299e-01 3.526220e-01 3.426736e-01 3.296185e-01 3.230191e-01 3.130665e-01 3.105207e-01 3.048030e-01 3.067598e-01 3.062576e-01 3.127399e-01 3.180159e-01 3.285903e-01 3.396614e-01 3.535904e-01 3.700008e-01 3.864640e-01 4.074560e-01 4.257048e-01 4.503606e-01 4.697679e-01 4.970828e-01 5.171240e-01 5.460361e-01 5.662434e-01 5.956528e-01 6.155707e-01 6.443666e-01 6.635210e-01 6.906222e-01 7.085075e-01 7.329097e-01 7.489950e-01 7.698178e-01 7.835681e-01 8.000951e-01 8.110045e-01 8.227109e-01 8.303384e-01 8.369060e-01 8.409105e-01 8.422286e-01 8.423950e-01 8.385509e-01 8.348066e-01 8.260666e-01 8.184879e-01 8.052735e-01 7.940819e-01 7.769444e-01 7.624977e-01 7.420951e-01 7.248756e-01 7.019544e-01 6.825587e-01 6.579450e-01 6.370780e-01 6.116785e-01 5.901550e-01 5.649693e-01 5.437218e-01 5.198600e-01 4.999466e-01 4.786377e-01 4.612299e-01 4.437862e-01 
4.697581e-01 4.579751e-01 4.493280e-01 4.431995e-01 4.395579e-01 4.393410e-01 4.407130e-01 4.460427e-01 4.518921e-01 4.618786e-01 4.712861e-01 4.847537e-01 4.966473e-01 5.123747e-01 5.257131e-01 5.425851e-01 5.564540e-01 5.735237e-01 5.871637e-01 6.036584e-01 6.164581e-01 6.317631e-01 6.432404e-01 6.568777e-01 6.666603e-01 6.782707e-01 6.860801e-01 6.954084e-01 7.010475e-01 7.079303e-01 7.112739e-01 7.156294e-01 7.166167e-01 7.184342e-01 7.170625e-01 7.163925e-01 7.127113e-01 7.096550e-01 7.037604e-01 6.984589e-01 6.904883e-01 6.831126e-01 6.732400e-01 6.639816e-01 6.524136e-01 6.414767e-01 6.284501e-01 6.160458e-01 6.018271e-01 5.881707e-01 5.730580e-01 5.583701e-01 5.426969e-01 5.272091e-01 5.113517e-01 4.953176e-01 4.797036e-01 4.634179e-01 4.485363e-01 4.323608e-01 4.187711e-01 4.031706e-01 3.915037e-01 3.770845e-01 3.680268e-01 3.555657e-01 3.498070e-01 3.402414e-01 3.383730e-01 3.327145e-01 3.350887e-01 3.342493e-01 3.408589e-01 3.454474e-01 3.559114e-01 3.661066e-01 3.797848e-01 3.953419e-01 4.115053e-01 4.318502e-01 4.498121e-01 4.741407e-01 4.933096e-01 5.206556e-01 5.405265e-01 5.698027e-01 5.899203e-01 6.199554e-01 6.398723e-01 6.694585e-01 6.887034e-01 7.166550e-01 7.347186e-01 7.599357e-01 7.762758e-01 7.978023e-01 8.118665e-01 8.289362e-01 8.401969e-01 8.522626e-01 8.602566e-01 8.670020e-01 8.713685e-01 8.727056e-01 8.732159e-01 8.692693e-01 8.658457e-01 8.569295e-01 8.496519e-01 8.362407e-01 8.253434e-01 8.080429e-01 7.939038e-01 7.734239e-01 7.565506e-01 7.336836e-01 7.146997e-01 6.903080e-01 6.699422e-01 6.449549e-01 6.240366e-01 5.994541e-01 5.789111e-01 5.558116e-01 5.366645e-01 5.161973e-01 4.995317e-01 4.828692e-01 
5.108360e-01 4.995930e-01 4.911364e-01 4.851511e-01 4.813041e-01 4.807653e-01 4.815238e-01 4.861113e-01 4.910211e-01 4.999779e-01 5.082538e-01 5.205617e-01 5.312618e-01 5.458280e-01 5.580056e-01 5.737950e-01 5.865889e-01 6.026909e-01 6.153633e-01 6.310114e-01 6.429524e-01 6.575206e-01 6.682387e-01 6.812305e-01 6.903394e-01 7.013752e-01 7.085816e-01 7.173878e-01 7.224812e-01 7.288804e-01 7.317243e-01 7.356258e-01 7.361516e-01 7.375411e-01 7.357414e-01 7.346708e-01 7.305940e-01 7.271700e-01 7.209144e-01 7.152870e-01 7.069954e-01 6.993468e-01 6.892014e-01 6.797352e-01 6.679534e-01 6.568863e-01 6.437178e-01 6.312731e-01 6.169994e-01 6.034034e-01 5.883398e-01 5.738225e-01 5.583219e-01 5.431224e-01 5.275818e-01 5.119587e-01 4.968264e-01 4.810751e-01 4.668576e-01 4.513346e-01 4.385991e-01 4.237516e-01 4.131178e-01 3.995142e-01 3.916259e-01 3.799750e-01 3.754401e-01 3.665759e-01 3.658705e-01 3.606813e-01 3.640389e-01 3.633375e-01 3.706718e-01 3.750460e-01 3.859614e-01 3.956709e-01 4.095648e-01 4.245178e-01 4.407178e-01 4.605076e-01 4.783788e-01 5.023349e-01 5.213276e-01 5.485591e-01 5.682052e-01 5.976394e-01 6.175201e-01 6.479496e-01 6.676536e-01 6.977999e-01 7.168881e-01 7.454787e-01 7.634639e-01 7.893125e-01 8.056607e-01 8.277396e-01 8.418921e-01 8.593857e-01 8.707981e-01 8.831355e-01 8.913235e-01 8.981904e-01 9.027734e-01 9.041054e-01 9.048414e-01 9.008028e-01 8.976089e-01 8.885633e-01 8.815227e-01 8.679977e-01 8.573555e-01 8.400080e-01 8.261580e-01 8.057428e-01 7.892113e-01 7.665567e-01 7.479857e-01 7.239777e-01 7.041104e-01 6.796857e-01 6.593561e-01 6.355010e-01 6.156232e-01 5.933719e-01 5.749243e-01 5.553416e-01 5.393292e-01 5.234587e-01 
5.533877e-01 5.424227e-01 5.340132e-01 5.279837e-01 5.238543e-01 5.228939e-01 5.230282e-01 5.268464e-01 5.308491e-01 5.387874e-01 5.459757e-01 5.571388e-01 5.666781e-01 5.800808e-01 5.911092e-01 6.057899e-01 6.175014e-01 6.325883e-01 6.442744e-01 6.590139e-01 6.700759e-01 6.838394e-01 6.937867e-01 7.060671e-01 7.145086e-01 7.249139e-01 7.315491e-01 7.397951e-01 7.444056e-01 7.503076e-01 7.527494e-01 7.562133e-01 7.564107e-01 7.574229e-01 7.553626e-01 7.539783e-01 7.497039e-01 7.460355e-01 7.396418e-01 7.338459e-01 7.254737e-01 7.177389e-01 7.075695e-01 6.981052e-01 6.863563e-01 6.753831e-01 6.623061e-01 6.500484e-01 6.359277e-01 6.226104e-01 6.077653e-01 5.936136e-01 5.784024e-01 5.636466e-01 5.484720e-01 5.333578e-01 5.186731e-01 5.034775e-01 4.897902e-01 4.748435e-01 4.627138e-01 4.484265e-01 4.384534e-01 4.253436e-01 4.181321e-01 4.068427e-01 4.029455e-01 3.942368e-01 3.940700e-01 3.887689e-01 3.925229e-01 3.914262e-01 3.990077e-01 4.027611e-01 4.138051e-01 4.227995e-01 4.367522e-01 4.510672e-01 4.673015e-01 4.866934e-01 5.046051e-01 5.285189e-01 5.475766e-01 5.751684e-01 5.949169e-01 6.250894e-01 6.451222e-01 6.765833e-01 6.965017e-01 7.278493e-01 7.472228e-01 7.770483e-01 7.953909e-01 8.223834e-01 8.391523e-01 8.621878e-01 8.768057e-01 8.950096e-01 9.069064e-01 9.196861e-01 9.283491e-01 9.354009e-01 9.404238e-01 9.417185e-01 9.428406e-01 9.385954e-01 9.357256e-01 9.263667e-01 9.195922e-01 9.057140e-01 8.952949e-01 8.776195e-01 8.639735e-01 8.433144e-01 8.269971e-01 8.042302e-01 7.859131e-01 7.619568e-01 7.424071e-01 7.182108e-01 6.982734e-01 6.748115e-01 6.553917e-01 6.336549e-01 6.156935e-01 5.966673e-01 5.810979e-01 5.657113e-01 
5.976297e-01 5.869551e-01 5.785281e-01 5.724912e-01 5.680635e-01 5.667617e-01 5.663115e-01 5.694846e-01 5.726646e-01 5.797370e-01 5.859465e-01 5.961272e-01 6.046186e-01 6.170161e-01 6.269988e-01 6.407176e-01 6.514326e-01 6.656369e-01 6.764000e-01 6.903471e-01 7.005674e-01 7.136227e-01 7.228063e-01 7.344479e-01 7.421947e-01 7.520127e-01 7.580109e-01 7.657044e-01 7.697244e-01 7.750963e-01 7.769844e-01 7.799338e-01 7.796074e-01 7.801194e-01 7.775617e-01 7.756962e-01 7.709507e-01 7.668292e-01 7.599945e-01 7.537863e-01 7.450101e-01 7.369186e-01 7.263924e-01 7.166425e-01 7.045960e-01 6.934232e-01 6.801219e-01 6.677638e-01 6.535075e-01 6.401993e-01 6.253241e-01 6.112979e-01 5.961795e-01 5.816682e-01 5.667274e-01 5.519742e-01 5.376809e-01 5.229541e-01 5.098282e-01 4.954415e-01 4.840464e-01 4.703831e-01 4.613059e-01 4.488419e-01 4.426546e-01 4.319743e-01 4.291727e-01 4.209628e-01 4.218901e-01 4.169027e-01 4.216760e-01 4.206571e-01 4.291299e-01 4.327268e-01 4.445105e-01 4.531818e-01 4.677226e-01 4.816690e-01 4.983489e-01 5.174683e-01 5.356922e-01 5.595524e-01 5.787987e-01 6.066304e-01 6.264620e-01 6.571798e-01 6.772220e-01 7.094857e-01 7.293838e-01 7.616988e-01 7.810699e-01 8.119134e-01 8.303097e-01 8.582589e-01 8.751563e-01 8.989955e-01 9.138133e-01 9.326079e-01 9.447550e-01 9.578886e-01 9.668236e-01 9.740026e-01 9.792926e-01 9.805260e-01 9.818924e-01 9.774544e-01 9.747998e-01 9.651834e-01 9.585990e-01 9.444659e-01 9.342243e-01 9.163574e-01 9.028943e-01 8.821557e-01 8.660464e-01 8.433457e-01 8.252799e-01 8.015518e-01 7.823089e-01 7.584992e-01 7.389259e-01 7.159827e-01 6.969686e-01 6.758309e-01 6.582786e-01 6.398529e-01 6.246327e-01 6.097460e-01 
6.432973e-01 6.327025e-01 6.241640e-01 6.179736e-01 6.132059e-01 6.114802e-01 6.104489e-01 6.129433e-01 6.153319e-01 6.215305e-01 6.267987e-01 6.359908e-01 6.434617e-01 6.548331e-01 6.637786e-01 6.764929e-01 6.862012e-01 6.994583e-01 7.092755e-01 7.223487e-01 7.317008e-01 7.439573e-01 7.523579e-01 7.632698e-01 7.703209e-01 7.794702e-01 7.848586e-01 7.919376e-01 7.954304e-01 8.002388e-01 8.016781e-01 8.041156e-01 8.034141e-01 8.034706e-01 8.006064e-01 7.983491e-01 7.933614e-01 7.889210e-01 7.819047e-01 7.754600e-01 7.665603e-01 7.583235e-01 7.477298e-01 7.379326e-01 7.258735e-01 7.147550e-01 7.014954e-01 6.892929e-01 6.751324e-01 6.620764e-01 6.473513e-01 6.336638e-01 6.187509e-01 6.046494e-01 5.899704e-01 5.756766e-01 5.617018e-01 5.474563e-01 5.347035e-01 5.207853e-01 5.098108e-01 4.965610e-01 4.879382e-01 4.757840e-01 4.700634e-01 4.595368e-01 4.571893e-01 4.489303e-01 4.502779e-01 4.450132e-01 4.501658e-01 4.486573e-01 4.574801e-01 4.604478e-01 4.725770e-01 4.806084e-01 4.955156e-01 5.089757e-01 5.260566e-01 5.450073e-01 5.636657e-01 5.877992e-01 6.075043e-01 6.361049e-01 6.564121e-01 6.883620e-01 7.088982e-01 7.427438e-01 7.631645e-01 7.972421e-01 8.171765e-01 8.497758e-01 8.687820e-01 8.983114e-01 9.158586e-01 9.409785e-01 9.564654e-01 9.761727e-01 9.889766e-01 1.002638e+00 1.012181e+00 1.019529e+00 1.025344e+00 1.026442e+00 1.028226e+00 1.023422e+00 1.021065e+00 1.010934e+00 1.004534e+00 9.898230e-01 9.796718e-01 9.612426e-01 9.478085e-01 9.265912e-01 9.104876e-01 8.874435e-01 8.693974e-01 8.454919e-01 8.263127e-01 8.024989e-01 7.830483e-01 7.602552e-01 7.414174e-01 7.205376e-01 7.031850e-01 6.850519e-01 6.700003e-01 6.553484e-01 