# vtk DataFile Version 2.0
Comment goes here
ASCII

DATASET STRUCTURED_POINTS
FIELD FieldData 1
TIME 1 1 double
0.03000000
DIMENSIONS    128   128   1

ORIGIN    0.000   0.000   0.000
SPACING   0.039062 0.039062   1.000

POINT_DATA   16384
SCALARS uMag double
LOOKUP_TABLE default

7.263554e-01 7.465247e-01 7.735917e-01 7.914052e-01 8.163166e-01 8.316270e-01 8.541743e-01 8.668091e-01 8.867535e-01 8.965177e-01 9.135931e-01 9.202741e-01 9.341916e-01 9.375653e-01 9.480204e-01 9.478591e-01 9.545404e-01 9.506219e-01 9.532216e-01 9.453395e-01 9.435656e-01 9.315401e-01 9.251286e-01 9.088168e-01 8.975454e-01 8.768521e-01 8.605521e-01 8.354385e-01 8.140063e-01 7.844984e-01 7.579051e-01 7.240991e-01 6.923979e-01 6.544645e-01 6.177951e-01 5.759815e-01 5.345728e-01 4.892023e-01 4.433726e-01 3.948432e-01 3.449979e-01 2.937791e-01 2.404076e-01 1.870362e-01 1.307073e-01 7.578206e-02 1.713889e-02 3.868498e-02 9.893175e-02 1.549493e-01 2.160284e-01 2.714928e-01 3.325814e-01 3.867133e-01 4.469477e-01 4.989468e-01 5.574360e-01 6.064947e-01 6.623370e-01 7.076579e-01 7.599609e-01 8.007762e-01 8.486797e-01 8.842737e-01 9.269752e-01 9.567086e-01 9.934903e-01 1.016825e+00 1.047080e+00 1.063600e+00 1.086858e+00 1.096294e+00 1.112237e+00 1.114478e+00 1.122959e+00 1.118059e+00 1.119106e+00 1.107285e+00 1.101096e+00 1.082732e+00 1.069667e+00 1.045277e+00 1.025834e+00 9.960494e-01 9.708408e-01 9.363791e-01 9.060997e-01 8.677311e-01 8.331254e-01 7.916405e-01 7.534705e-01 7.096497e-01 6.686650e-01 6.232520e-01 5.801649e-01 5.338453e-01 4.893115e-01 4.426979e-01 3.973027e-01 3.509255e-01 3.051767e-01 2.594809e-01 2.138068e-01 1.691537e-01 1.239052e-01 8.057808e-02 3.603498e-02 5.752878e-03 4.937360e-02 8.946820e-02 1.320025e-01 1.702982e-01 2.116242e-01 2.480521e-01 2.880795e-01 3.225966e-01 3.612562e-01 3.938348e-01 4.310685e-01 4.616866e-01 4.974387e-01 5.260719e-01 5.602803e-01 5.868943e-01 6.194841e-01 6.440287e-01 6.749056e-01 6.973100e-01 
7.267601e-01 7.468042e-01 7.737975e-01 7.914959e-01 8.163468e-01 8.315514e-01 8.540510e-01 8.665888e-01 8.864981e-01 8.961743e-01 9.132271e-01 9.198293e-01 9.337372e-01 9.370420e-01 9.475006e-01 9.472814e-01 9.539799e-01 9.500158e-01 9.526470e-01 9.447335e-01 9.430061e-01 9.309656e-01 9.246168e-01 9.083094e-01 8.971181e-01 8.764522e-01 8.602517e-01 8.351934e-01 8.138832e-01 7.844645e-01 7.580203e-01 7.243461e-01 6.928287e-01 6.550827e-01 6.186449e-01 5.770952e-01 5.359906e-01 4.909986e-01 4.455958e-01 3.976390e-01 3.484631e-01 2.982130e-01 2.461111e-01 1.948020e-01 1.419694e-01 9.465872e-02 5.973560e-02 6.973850e-02 1.147316e-01 1.655805e-01 2.236984e-01 2.775795e-01 3.374654e-01 3.908065e-01 4.503929e-01 5.018944e-01 5.599897e-01 6.086941e-01 6.642879e-01 7.093388e-01 7.614890e-01 8.020914e-01 8.499108e-01 8.853343e-01 9.280032e-01 9.575994e-01 9.943867e-01 1.017610e+00 1.047898e+00 1.064329e+00 1.087636e+00 1.096998e+00 1.112999e+00 1.115176e+00 1.123716e+00 1.118761e+00 1.119861e+00 1.107991e+00 1.101845e+00 1.083437e+00 1.070403e+00 1.045974e+00 1.026550e+00 9.967351e-01 9.715353e-01 9.370549e-01 9.067784e-01 8.684073e-01 8.338044e-01 7.923393e-01 7.541792e-01 7.104079e-01 6.694497e-01 6.241255e-01 5.810944e-01 5.349173e-01 4.904881e-01 4.440946e-01 3.988869e-01 3.528552e-01 3.074494e-01 2.623384e-01 2.173588e-01 1.738871e-01 1.304504e-01 9.075196e-02 5.547986e-02 4.325596e-02 6.559657e-02 9.952009e-02 1.390638e-01 1.758512e-01 2.161160e-01 2.518567e-01 2.913321e-01 3.254330e-01 3.637442e-01 3.960266e-01 4.330136e-01 4.633992e-01 4.989628e-01 5.274016e-01 5.614592e-01 5.879040e-01 6.203693e-01 6.447630e-01 6.755354e-01 6.978029e-01 
7.301152e-01 7.501740e-01 7.771386e-01 7.948787e-01 8.197331e-01 8.350019e-01 8.575323e-01 8.701533e-01 8.901170e-01 8.998926e-01 9.170200e-01 9.237355e-01 9.377352e-01 9.411653e-01 9.517303e-01 9.516470e-01 9.584638e-01 9.546456e-01 9.574051e-01 9.496476e-01 9.480568e-01 9.361837e-01 9.299795e-01 9.138539e-01 9.028164e-01 8.823518e-01 8.663180e-01 8.414889e-01 8.203657e-01 7.912173e-01 7.649937e-01 7.316519e-01 7.004116e-01 6.630937e-01 6.270296e-01 5.860610e-01 5.454991e-01 5.013465e-01 4.567981e-01 4.101526e-01 3.624604e-01 3.144968e-01 2.653484e-01 2.187500e-01 1.730778e-01 1.373808e-01 1.158737e-01 1.220198e-01 1.522892e-01 1.940865e-01 2.456838e-01 2.960558e-01 3.530045e-01 4.047050e-01 4.627085e-01 5.133288e-01 5.704674e-01 6.186562e-01 6.736261e-01 7.183568e-01 7.700761e-01 8.104690e-01 8.579755e-01 8.932538e-01 9.356835e-01 9.651716e-01 1.001767e+00 1.024903e+00 1.055029e+00 1.071384e+00 1.094548e+00 1.103843e+00 1.119715e+00 1.121831e+00 1.130253e+00 1.125243e+00 1.126236e+00 1.114321e+00 1.108080e+00 1.089640e+00 1.076526e+00 1.052083e+00 1.032596e+00 1.002790e+00 9.775496e-01 9.431073e-01 9.128172e-01 8.745209e-01 8.399390e-01 7.985952e-01 7.605011e-01 7.169114e-01 6.760801e-01 6.310194e-01 5.882015e-01 5.424050e-01 4.983207e-01 4.524884e-01 4.078432e-01 3.626789e-01 3.182382e-01 2.745861e-01 2.314382e-01 1.907923e-01 1.514802e-01 1.184511e-01 9.304849e-02 8.565080e-02 9.785073e-02 1.228018e-01 1.560253e-01 1.893479e-01 2.269085e-01 2.610702e-01 2.991273e-01 3.323788e-01 3.698405e-01 4.016203e-01 4.380567e-01 4.681306e-01 5.033215e-01 5.315658e-01 5.653667e-01 5.916952e-01 6.239852e-01 6.483183e-01 6.789761e-01 7.012252e-01 
7.342827e-01 7.541068e-01 7.808954e-01 7.984473e-01 8.231837e-01 8.383048e-01 8.607697e-01 8.732795e-01 8.932259e-01 9.029240e-01 9.200796e-01 9.267497e-01 9.408204e-01 9.442367e-01 9.549137e-01 9.548489e-01 9.618173e-01 9.580521e-01 9.610017e-01 9.533356e-01 9.519737e-01 9.402363e-01 9.343014e-01 9.183645e-01 9.076405e-01 8.874301e-01 8.717616e-01 8.472696e-01 8.265763e-01 7.978728e-01 7.721655e-01 7.394125e-01 7.088107e-01 6.722809e-01 6.370381e-01 5.971459e-01 5.576953e-01 5.150619e-01 4.721164e-01 4.277238e-01 3.825369e-01 3.381561e-01 2.933063e-01 2.528414e-01 2.148354e-01 1.883803e-01 1.735212e-01 1.786877e-01 2.006463e-01 2.345747e-01 2.787724e-01 3.243709e-01 3.770510e-01 4.260047e-01 4.814485e-01 5.303470e-01 5.858570e-01 6.328794e-01 6.867757e-01 7.306699e-01 7.816742e-01 8.214424e-01 8.684790e-01 9.032768e-01 9.454099e-01 9.745196e-01 1.010940e+00 1.033772e+00 1.063808e+00 1.079913e+00 1.103041e+00 1.112123e+00 1.127989e+00 1.129921e+00 1.138349e+00 1.133177e+00 1.134172e+00 1.122115e+00 1.115867e+00 1.097306e+00 1.084172e+00 1.059636e+00 1.040122e+00 1.010259e+00 9.849912e-01 9.505431e-01 9.202395e-01 8.820051e-01 8.474425e-01 8.062496e-01 7.682326e-01 7.249107e-01 6.842476e-01 6.396094e-01 5.970989e-01 5.519370e-01 5.083738e-01 4.634833e-01 4.197030e-01 3.759623e-01 3.329812e-01 2.915851e-01 2.510216e-01 2.141982e-01 1.796443e-01 1.529018e-01 1.336592e-01 1.286253e-01 1.365446e-01 1.553140e-01 1.823282e-01 2.114031e-01 2.453081e-01 2.770389e-01 3.129076e-01 3.446466e-01 3.806847e-01 4.114374e-01 4.468825e-01 4.762107e-01 5.106774e-01 5.383539e-01 5.716090e-01 5.974911e-01 6.293631e-01 6.533382e-01 6.836755e-01 7.056347e-01 
7.413237e-01 7.610625e-01 7.877304e-01 8.052592e-01 8.299503e-01 8.451013e-01 8.675868e-01 8.801726e-01 9.001984e-01 9.100132e-01 9.273005e-01 9.341238e-01 9.483731e-01 9.519760e-01 9.628734e-01 9.630267e-01 9.702526e-01 9.667367e-01 9.699771e-01 9.625931e-01 9.615526e-01 9.501346e-01 9.445510e-01 9.289788e-01 9.186389e-01 8.988511e-01 8.836071e-01 8.596147e-01 8.394017e-01 8.113037e-01 7.861589e-01 7.541603e-01 7.242478e-01 6.886870e-01 6.543346e-01 6.157300e-01 5.774962e-01 5.366397e-01 4.954554e-01 4.536199e-01 4.111234e-01 3.705627e-01 3.299430e-01 2.951102e-01 2.630777e-01 2.427470e-01 2.312891e-01 2.361294e-01 2.531906e-01 2.817326e-01 3.196398e-01 3.608688e-01 4.091254e-01 4.552930e-01 5.078498e-01 5.549827e-01 6.085776e-01 6.544417e-01 7.070321e-01 7.501350e-01 8.002267e-01 8.394311e-01 8.858155e-01 9.201930e-01 9.618486e-01 9.906292e-01 1.026690e+00 1.049251e+00 1.079004e+00 1.094875e+00 1.117771e+00 1.126645e+00 1.142310e+00 1.144055e+00 1.152302e+00 1.146962e+00 1.147792e+00 1.135591e+00 1.129191e+00 1.110517e+00 1.097247e+00 1.072639e+00 1.053010e+00 1.023128e+00 9.977777e-01 9.633773e-01 9.330371e-01 8.949352e-01 8.604001e-01 8.194468e-01 7.815460e-01 7.386002e-01 6.981769e-01 6.540935e-01 6.119978e-01 5.676327e-01 5.247402e-01 4.809908e-01 4.382717e-01 3.961869e-01 3.548888e-01 3.159482e-01 2.780616e-01 2.448579e-01 2.142376e-01 1.918335e-01 1.757215e-01 1.713880e-01 1.763601e-01 1.908236e-01 2.125991e-01 2.376845e-01 2.677238e-01 2.968404e-01 3.301619e-01 3.602211e-01 3.945482e-01 4.241849e-01 4.584398e-01 4.870031e-01 5.206192e-01 5.477622e-01 5.804012e-01 6.059115e-01 6.373385e-01 6.610613e-01 6.910848e-01 7.128842e-01 
7.491864e-01 7.685939e-01 7.949939e-01 8.122707e-01 8.367931e-01 8.517616e-01 8.741684e-01 8.866340e-01 9.066639e-01 9.164157e-01 9.337844e-01 9.405985e-01 9.550017e-01 9.586477e-01 9.697673e-01 9.700164e-01 9.775295e-01 9.741646e-01 9.777549e-01 9.705828e-01 9.699538e-01 9.588179e-01 9.537088e-01 9.385027e-01 9.287057e-01 9.093875e-01 8.947658e-01 8.713742e-01 8.518825e-01 8.245545e-01 8.002627e-01 7.692572e-01 7.403813e-01 7.061143e-01 6.730648e-01 6.361689e-01 5.996360e-01 5.610745e-01 5.221969e-01 4.834934e-01 4.442142e-01 4.079247e-01 3.717238e-01 3.422967e-01 3.153506e-01 2.997982e-01 2.907707e-01 2.957396e-01 3.096273e-01 3.342261e-01 3.668033e-01 4.038304e-01 4.475363e-01 4.904870e-01 5.397152e-01 5.845276e-01 6.357689e-01 6.799455e-01 7.308853e-01 7.727330e-01 8.216779e-01 8.599271e-01 9.055305e-01 9.391660e-01 9.803073e-01 1.008500e+00 1.044238e+00 1.066323e+00 1.095887e+00 1.111362e+00 1.134154e+00 1.142689e+00 1.158298e+00 1.159744e+00 1.167951e+00 1.162345e+00 1.163131e+00 1.150692e+00 1.144233e+00 1.125355e+00 1.112007e+00 1.087239e+00 1.067522e+00 1.037542e+00 1.012109e+00 9.776928e-01 9.472980e-01 9.092922e-01 8.747614e-01 8.340490e-01 7.962505e-01 7.537315e-01 7.135582e-01 6.701400e-01 6.285082e-01 5.851186e-01 5.429972e-01 5.006368e-01 4.591326e-01 4.190008e-01 3.795578e-01 3.433245e-01 3.081462e-01 2.784691e-01 2.512426e-01 2.323305e-01 2.184532e-01 2.148241e-01 2.180867e-01 2.297202e-01 2.474809e-01 2.690758e-01 2.954259e-01 3.217669e-01 3.523061e-01 3.803349e-01 4.126248e-01 4.407686e-01 4.735133e-01 5.009518e-01 5.334274e-01 5.597030e-01 5.914691e-01 6.162993e-01 6.470553e-01 6.702404e-01 6.997524e-01 7.211271e-01 
7.597737e-01 7.790168e-01 8.052236e-01 8.224291e-01 8.468722e-01 8.618502e-01 8.842794e-01 8.968260e-01 9.169703e-01 9.268669e-01 9.444335e-01 9.514503e-01 9.661271e-01 9.700290e-01 9.814907e-01 9.820464e-01 9.899629e-01 9.869551e-01 9.910038e-01 9.842419e-01 9.841217e-01 9.734554e-01 9.689037e-01 9.542379e-01 9.450490e-01 9.263595e-01 9.124053e-01 8.897568e-01 8.710104e-01 8.445771e-01 8.211398e-01 7.912333e-01 7.633728e-01 7.304830e-01 6.986891e-01 6.635530e-01 6.286343e-01 5.923572e-01 5.556181e-01 5.198953e-01 4.834649e-01 4.509660e-01 4.183513e-01 3.932232e-01 3.698612e-01 3.576556e-01 3.500559e-01 3.552622e-01 3.669662e-01 3.890076e-01 4.175303e-01 4.513839e-01 4.911885e-01 5.314850e-01 5.776260e-01 6.204578e-01 6.694066e-01 7.121422e-01 7.614119e-01 8.022024e-01 8.499355e-01 8.873900e-01 9.321111e-01 9.651282e-01 1.005620e+00 1.033311e+00 1.068562e+00 1.090221e+00 1.119405e+00 1.134504e+00 1.156986e+00 1.165180e+00 1.180520e+00 1.181654e+00 1.189615e+00 1.183725e+00 1.184280e+00 1.171592e+00 1.164912e+00 1.145831e+00 1.132276e+00 1.107365e+00 1.087465e+00 1.057418e+00 1.031839e+00 9.974566e-01 9.669733e-01 9.291234e-01 8.945876e-01 8.541828e-01 8.164962e-01 7.744720e-01 7.345710e-01 6.918806e-01 6.507391e-01 6.083709e-01 5.670353e-01 5.260689e-01 4.857476e-01 4.474753e-01 4.097222e-01 3.758722e-01 3.429095e-01 3.159650e-01 2.910568e-01 2.743426e-01 2.614909e-01 2.579279e-01 2.595509e-01 2.689169e-01 2.833216e-01 3.019618e-01 3.249370e-01 3.487284e-01 3.765299e-01 4.026147e-01 4.328200e-01 4.595270e-01 4.907044e-01 5.170846e-01 5.483817e-01 5.738780e-01 6.047591e-01 6.290204e-01 6.591192e-01 6.818989e-01 7.109364e-01 7.320374e-01 
7.712010e-01 7.900382e-01 8.159041e-01 8.328109e-01 8.570481e-01 8.718224e-01 8.941696e-01 9.065982e-01 9.267756e-01 9.366329e-01 9.543403e-01 9.613915e-01 9.763104e-01 9.803179e-01 9.921168e-01 9.928490e-01 1.001193e+00 9.984352e-01 1.002997e+00 9.965657e-01 9.970409e-01 9.867978e-01 9.829245e-01 9.687916e-01 9.603688e-01 9.423466e-01 9.292579e-01 9.074443e-01 8.896840e-01 8.642978e-01 8.420027e-01 8.134142e-01 7.869052e-01 7.556811e-01 7.255255e-01 6.925003e-01 6.596119e-01 6.260048e-01 5.918120e-01 5.594156e-01 5.261331e-01 4.975795e-01 4.685648e-01 4.475278e-01 4.274166e-01 4.181873e-01 4.119019e-01 4.175359e-01 4.276753e-01 4.477396e-01 4.728446e-01 5.037693e-01 5.398505e-01 5.773292e-01 6.202368e-01 6.607147e-01 7.071102e-01 7.479695e-01 7.953177e-01 8.346302e-01 8.809664e-01 9.172548e-01 9.609957e-01 9.930859e-01 1.032920e+00 1.059865e+00 1.094696e+00 1.115744e+00 1.144677e+00 1.159262e+00 1.181600e+00 1.189347e+00 1.204598e+00 1.205331e+00 1.213218e+00 1.206961e+00 1.207426e+00 1.194402e+00 1.187603e+00 1.168221e+00 1.154516e+00 1.129357e+00 1.109285e+00 1.079068e+00 1.053318e+00 1.018872e+00 9.882511e-01 9.504816e-01 9.158825e-01 8.757426e-01 8.381157e-01 7.965863e-01 7.569249e-01 7.150105e-01 6.743551e-01 6.331022e-01 5.925769e-01 5.531283e-01 5.140255e-01 4.777239e-01 4.416566e-01 4.102048e-01 3.793209e-01 3.549292e-01 3.320303e-01 3.172479e-01 3.052945e-01 3.019757e-01 3.025068e-01 3.102607e-01 3.220567e-01 3.382165e-01 3.582077e-01 3.795498e-01 4.046651e-01 4.286709e-01 4.566643e-01 4.816931e-01 5.111035e-01 5.361461e-01 5.660443e-01 5.904751e-01 6.202537e-01 6.436657e-01 6.729028e-01 6.950083e-01 7.233838e-01 7.439557e-01 
7.851400e-01 8.037617e-01 8.293879e-01 8.461981e-01 8.703422e-01 8.851254e-01 9.075131e-01 9.200449e-01 9.403858e-01 9.504314e-01 9.684155e-01 9.757325e-01 9.910317e-01 9.953765e-01 1.007650e+00 1.008787e+00 1.017690e+00 1.015404e+00 1.020600e+00 1.014710e+00 1.015888e+00 1.006262e+00 1.003153e+00 9.897271e-01 9.821300e-01 9.649237e-01 9.527285e-01 9.318680e-01 9.150847e-01 8.908268e-01 8.696207e-01 8.423858e-01 8.171226e-01 7.875405e-01 7.588506e-01 7.278300e-01 6.967058e-01 6.655390e-01 6.334840e-01 6.039953e-01 5.732334e-01 5.479421e-01 5.216231e-01 5.037619e-01 4.858821e-01 4.788775e-01 4.733698e-01 4.794670e-01 4.884178e-01 5.072841e-01 5.298167e-01 5.587466e-01 5.918675e-01 6.273071e-01 6.675093e-01 7.062339e-01 7.504068e-01 7.898578e-01 8.354748e-01 8.736774e-01 9.187018e-01 9.541079e-01 9.968674e-01 1.028237e+00 1.067336e+00 1.093670e+00 1.127942e+00 1.148450e+00 1.176941e+00 1.191031e+00 1.212999e+00 1.220283e+00 1.235204e+00 1.235500e+00 1.243076e+00 1.236412e+00 1.236572e+00 1.223181e+00 1.216079e+00 1.196388e+00 1.182386e+00 1.156991e+00 1.136640e+00 1.106284e+00 1.080290e+00 1.045827e+00 1.015022e+00 9.773824e-01 9.426897e-01 9.028565e-01 8.652630e-01 8.242497e-01 7.847917e-01 7.436383e-01 7.034057e-01 6.631955e-01 6.233642e-01 5.852695e-01 5.471729e-01 5.125344e-01 4.777773e-01 4.482024e-01 4.187826e-01 3.961803e-01 3.744673e-01 3.607987e-01 3.490487e-01 3.455529e-01 3.448438e-01 3.511164e-01 3.605674e-01 3.745847e-01 3.918864e-01 4.110666e-01 4.336824e-01 4.558135e-01 4.816958e-01 5.052040e-01 5.329073e-01 5.567541e-01 5.853019e-01 6.088104e-01 6.375387e-01 6.602539e-01 6.886916e-01 7.102876e-01 7.380766e-01 7.582971e-01 
7.999483e-01 8.181185e-01 8.433555e-01 8.598435e-01 8.837628e-01 8.983406e-01 9.206573e-01 9.330898e-01 9.535043e-01 9.635485e-01 9.817428e-01 9.891498e-01 1.004788e+00 1.009311e+00 1.022045e+00 1.023446e+00 1.032924e+00 1.030991e+00 1.036869e+00 1.031429e+00 1.033390e+00 1.024324e+00 1.022097e+00 1.009360e+00 1.002746e+00 9.863844e-01 9.752830e-01 9.554580e-01 9.398968e-01 9.169100e-01 8.970846e-01 8.714096e-01 8.477296e-01 8.200567e-01 7.932088e-01 7.645074e-01 7.355440e-01 7.071469e-01 6.776075e-01 6.513117e-01 6.233648e-01 6.015004e-01 5.780255e-01 5.633527e-01 5.477424e-01 5.429402e-01 5.383353e-01 5.450216e-01 5.531068e-01 5.709870e-01 5.912727e-01 6.182744e-01 6.485578e-01 6.817925e-01 7.192032e-01 7.558386e-01 7.975919e-01 8.352226e-01 8.788966e-01 9.155742e-01 9.591252e-01 9.932770e-01 1.034978e+00 1.065323e+00 1.103705e+00 1.129199e+00 1.163020e+00 1.182828e+00 1.211056e+00 1.224550e+00 1.246371e+00 1.253125e+00 1.267952e+00 1.267759e+00 1.275240e+00 1.268112e+00 1.268141e+00 1.254306e+00 1.247014e+00 1.226908e+00 1.212657e+00 1.186898e+00 1.166253e+00 1.135614e+00 1.109313e+00 1.074685e+00 1.043602e+00 1.005961e+00 9.710674e-01 9.314405e-01 8.937799e-01 8.532237e-01 8.138900e-01 7.734840e-01 7.336235e-01 6.944822e-01 6.553198e-01 6.186271e-01 5.815212e-01 5.485837e-01 5.151014e-01 4.873939e-01 4.593599e-01 4.384872e-01 4.178825e-01 4.053152e-01 3.938494e-01 3.903667e-01 3.887646e-01 3.939186e-01 4.014784e-01 4.136667e-01 4.286064e-01 4.457536e-01 4.659990e-01 4.862113e-01 5.099567e-01 5.317878e-01 5.576656e-01 5.800999e-01 6.071329e-01 6.294748e-01 6.569702e-01 6.787357e-01 7.061895e-01 7.270243e-01 7.540492e-01 7.736731e-01 
8.170002e-01 8.349360e-01 8.599163e-01 8.763100e-01 9.001459e-01 9.147560e-01 9.371511e-01 9.497310e-01 9.703755e-01 9.806716e-01 9.992373e-01 1.006992e+00 1.023132e+00 1.028090e+00 1.041446e+00 1.043364e+00 1.053571e+00 1.052235e+00 1.058936e+00 1.054174e+00 1.057040e+00 1.048739e+00 1.047489e+00 1.035617e+00 1.030044e+00 1.014667e+00 1.004671e+00 9.859754e-01 9.715927e-01 9.499144e-01 9.313600e-01 9.072119e-01 8.849260e-01 8.590410e-01 8.337489e-01 8.071334e-01 7.799238e-01 7.539226e-01 7.263428e-01 7.027014e-01 6.768483e-01 6.577215e-01 6.362487e-01 6.240434e-01 6.099244e-01 6.068399e-01 6.027334e-01 6.100308e-01 6.174034e-01 6.348286e-01 6.534345e-01 6.793044e-01 7.074470e-01 7.393089e-01 7.745661e-01 8.098707e-01 8.497143e-01 8.861760e-01 9.282776e-01 9.639672e-01 1.006280e+00 1.039598e+00 1.080348e+00 1.109971e+00 1.147626e+00 1.172471e+00 1.205724e+00 1.224926e+00 1.252690e+00 1.265598e+00 1.287013e+00 1.293194e+00 1.307639e+00 1.306886e+00 1.313987e+00 1.306322e+00 1.305958e+00 1.291626e+00 1.283929e+00 1.263385e+00 1.248720e+00 1.222606e+00 1.201550e+00 1.170664e+00 1.143977e+00 1.109235e+00 1.077816e+00 1.040219e+00 1.005074e+00 9.656736e-01 9.278825e-01 8.877592e-01 8.484539e-01 8.087069e-01 7.690696e-01 7.308227e-01 6.921027e-01 6.565263e-01 6.200776e-01 5.884190e-01 5.557431e-01 5.293361e-01 5.020847e-01 4.822791e-01 4.621276e-01 4.500554e-01 4.383559e-01 4.345355e-01 4.318274e-01 4.358335e-01 4.415671e-01 4.521007e-01 4.648660e-01 4.802147e-01 4.982832e-01 5.168027e-01 5.385727e-01 5.589319e-01 5.831168e-01 6.043303e-01 6.299640e-01 6.513272e-01 6.776993e-01 6.987056e-01 7.252864e-01 7.455575e-01 7.719346e-01 7.911687e-01 
8.349638e-01 8.524347e-01 8.770052e-01 8.930808e-01 9.166951e-01 9.311221e-01 9.534749e-01 9.659958e-01 9.867695e-01 9.971213e-01 1.015980e+00 1.023897e+00 1.040487e+00 1.045708e+00 1.059661e+00 1.061942e+00 1.072883e+00 1.072011e+00 1.079574e+00 1.075383e+00 1.079229e+00 1.071621e+00 1.071463e+00 1.060424e+00 1.056052e+00 1.041676e+00 1.032991e+00 1.015501e+00 1.002552e+00 9.823202e-01 9.653429e-01 9.429263e-01 9.223900e-01 8.985600e-01 8.752219e-01 8.510083e-01 8.259773e-01 8.027097e-01 7.775125e-01 7.568448e-01 7.334684e-01 7.173374e-01 6.981801e-01 6.886229e-01 6.762487e-01 6.750128e-01 6.716445e-01 6.796637e-01 6.865592e-01 7.035814e-01 7.206681e-01 7.453205e-01 7.713347e-01 8.015679e-01 8.345357e-01 8.681192e-01 9.058304e-01 9.406664e-01 9.809638e-01 1.015209e+00 1.056109e+00 1.088189e+00 1.127912e+00 1.156497e+00 1.193466e+00 1.217445e+00 1.250287e+00 1.268758e+00 1.296307e+00 1.308579e+00 1.329893e+00 1.335494e+00 1.349874e+00 1.348564e+00 1.355570e+00 1.347348e+00 1.346812e+00 1.331918e+00 1.323944e+00 1.302843e+00 1.287796e+00 1.261158e+00 1.239639e+00 1.208301e+00 1.181106e+00 1.146033e+00 1.114118e+00 1.076360e+00 1.040792e+00 1.001448e+00 9.633681e-01 9.235564e-01 8.841542e-01 8.449998e-01 8.055016e-01 7.681329e-01 7.298110e-01 6.953706e-01 6.595640e-01 6.292194e-01 5.973498e-01 5.722786e-01 5.458226e-01 5.271279e-01 5.074851e-01 4.960019e-01 4.842211e-01 4.802444e-01 4.766949e-01 4.797903e-01 4.840020e-01 4.930826e-01 5.039137e-01 5.175594e-01 5.335731e-01 5.503769e-01 5.701793e-01 5.889502e-01 6.113652e-01 6.311800e-01 6.552848e-01 6.754560e-01 7.005469e-01 7.205636e-01 7.461016e-01 7.655727e-01 7.911314e-01 8.097402e-01 
8.548552e-01 8.721063e-01 8.964333e-01 9.124469e-01 9.360128e-01 9.505234e-01 9.730144e-01 9.857531e-01 1.006843e+00 1.017535e+00 1.036880e+00 1.045249e+00 1.062483e+00 1.068258e+00 1.082999e+00 1.085929e+00 1.097787e+00 1.097653e+00 1.106246e+00 1.102880e+00 1.107850e+00 1.101159e+00 1.102201e+00 1.092182e+00 1.089070e+00 1.075832e+00 1.068459e+00 1.052247e+00 1.040658e+00 1.021872e+00 1.006309e+00 9.855313e-01 9.664793e-01 9.445020e-01 9.227344e-01 9.005940e-01 8.772260e-01 8.562267e-01 8.327599e-01 8.144738e-01 7.928073e-01 7.790088e-01 7.613640e-01 7.538453e-01 7.425304e-01 7.427698e-01 7.397610e-01 7.485183e-01 7.549761e-01 7.720206e-01 7.879979e-01 8.121519e-01 8.366640e-01 8.661273e-01 8.974926e-01 9.302315e-01 9.664505e-01 1.000477e+00 1.039502e+00 1.073012e+00 1.112886e+00 1.144299e+00 1.183220e+00 1.211180e+00 1.247523e+00 1.270890e+00 1.303226e+00 1.321075e+00 1.348184e+00 1.359811e+00 1.380708e+00 1.385640e+00 1.399594e+00 1.397600e+00 1.404151e+00 1.395251e+00 1.394222e+00 1.378679e+00 1.370172e+00 1.348480e+00 1.332866e+00 1.305720e+00 1.283614e+00 1.251877e+00 1.224099e+00 1.188759e+00 1.156292e+00 1.118421e+00 1.082365e+00 1.043081e+00 1.004614e+00 9.650483e-01 9.253939e-01 8.866762e-01 8.470871e-01 8.103347e-01 7.720906e-01 7.384091e-01 7.028233e-01 6.733029e-01 6.417199e-01 6.174074e-01 5.911610e-01 5.729783e-01 5.532698e-01 5.418602e-01 5.295473e-01 5.250865e-01 5.204528e-01 5.225337e-01 5.251878e-01 5.328874e-01 5.418851e-01 5.539973e-01 5.681168e-01 5.834127e-01 6.014216e-01 6.188211e-01 6.396355e-01 6.582691e-01 6.810061e-01 7.002033e-01 7.241686e-01 7.434168e-01 7.680661e-01 7.869643e-01 8.118605e-01 8.300794e-01 
8.757135e-01 8.925195e-01 9.164449e-01 9.321750e-01 9.555458e-01 9.699239e-01 9.924217e-01 1.005168e+00 1.026461e+00 1.037291e+00 1.057029e+00 1.065656e+00 1.083466e+00 1.089612e+00 1.105102e+00 1.108510e+00 1.121280e+00 1.121731e+00 1.131383e+00 1.128717e+00 1.134880e+00 1.129015e+00 1.131370e+00 1.122323e+00 1.120633e+00 1.108541e+00 1.102693e+00 1.087830e+00 1.077872e+00 1.060672e+00 1.046855e+00 1.027929e+00 1.010752e+00 9.909135e-01 9.711606e-01 9.514405e-01 9.302224e-01 9.118771e-01 8.906489e-01 8.751370e-01 8.556813e-01 8.445787e-01 8.289101e-01 8.237339e-01 8.138829e-01 8.158204e-01 8.134993e-01 8.231129e-01 8.293572e-01 8.464019e-01 8.613518e-01 8.848139e-01 9.077427e-01 9.360720e-01 9.656122e-01 9.970135e-01 1.031438e+00 1.064101e+00 1.101549e+00 1.133781e+00 1.172399e+00 1.202676e+00 1.240694e+00 1.267679e+00 1.303454e+00 1.325998e+00 1.358043e+00 1.375192e+00 1.402206e+00 1.413212e+00 1.434115e+00 1.438459e+00 1.452423e+00 1.449829e+00 1.456312e+00 1.446769e+00 1.445528e+00 1.429289e+00 1.420396e+00 1.397969e+00 1.381794e+00 1.353910e+00 1.331100e+00 1.298673e+00 1.270104e+00 1.234183e+00 1.200909e+00 1.162625e+00 1.125825e+00 1.086346e+00 1.047267e+00 1.007762e+00 9.676865e-01 9.292970e-01 8.895137e-01 8.533425e-01 8.151369e-01 7.822387e-01 7.468882e-01 7.182575e-01 6.870172e-01 6.635555e-01 6.376099e-01 6.200538e-01 6.004119e-01 5.892191e-01 5.765562e-01 5.717821e-01 5.662865e-01 5.675256e-01 5.688444e-01 5.752948e-01 5.826316e-01 5.932664e-01 6.055834e-01 6.193422e-01 6.355645e-01 6.514896e-01 6.706399e-01 6.879347e-01 7.091904e-01 7.272206e-01 7.499154e-01 7.681815e-01 7.917805e-01 8.098822e-01 8.339485e-01 8.515510e-01 
8.981410e-01 9.147744e-01 9.384987e-01 9.542302e-01 9.776131e-01 9.921568e-01 1.014876e+00 1.027941e+00 1.049659e+00 1.060948e+00 1.081308e+00 1.090521e+00 1.109139e+00 1.115986e+00 1.132457e+00 1.136669e+00 1.150573e+00 1.151923e+00 1.162839e+00 1.161162e+00 1.168693e+00 1.163907e+00 1.167706e+00 1.159836e+00 1.159640e+00 1.148834e+00 1.144507e+00 1.131056e+00 1.122631e+00 1.106986e+00 1.094706e+00 1.077492e+00 1.061855e+00 1.043888e+00 1.025681e+00 1.007979e+00 9.883035e-01 9.720806e-01 9.523578e-01 9.389904e-01 9.209299e-01 9.118673e-01 8.973631e-01 8.939633e-01 8.848979e-01 8.881970e-01 8.861585e-01 8.966330e-01 9.026206e-01 9.200430e-01 9.342795e-01 9.577437e-01 9.796734e-01 1.007772e+00 1.036220e+00 1.067282e+00 1.100675e+00 1.132966e+00 1.169533e+00 1.201387e+00 1.239303e+00 1.269189e+00 1.306665e+00 1.333222e+00 1.368567e+00 1.390618e+00 1.422290e+00 1.438860e+00 1.465508e+00 1.475844e+00 1.496346e+00 1.499936e+00 1.513440e+00 1.510035e+00 1.515982e+00 1.505603e+00 1.503748e+00 1.486685e+00 1.477099e+00 1.453894e+00 1.436958e+00 1.408372e+00 1.384745e+00 1.351718e+00 1.322299e+00 1.285897e+00 1.251771e+00 1.213142e+00 1.175522e+00 1.135845e+00 1.096020e+00 1.056469e+00 1.015754e+00 9.774679e-01 9.371759e-01 9.012388e-01 8.626587e-01 8.300831e-01 7.944651e-01 7.661741e-01 7.347076e-01 7.115010e-01 6.852658e-01 6.677596e-01 6.476383e-01 6.361803e-01 6.227390e-01 6.173269e-01 6.107083e-01 6.109599e-01 6.108532e-01 6.160637e-01 6.217832e-01 6.310573e-01 6.416987e-01 6.540997e-01 6.687041e-01 6.833659e-01 7.010376e-01 7.172203e-01 7.371847e-01 7.542835e-01 7.758982e-01 7.934253e-01 8.161646e-01 8.337211e-01 8.571495e-01 8.743965e-01 
9.216010e-01 9.378423e-01 9.612006e-01 9.767153e-01 9.999545e-01 1.014448e+00 1.037245e+00 1.050416e+00 1.072432e+00 1.083971e+00 1.104846e+00 1.114442e+00 1.133784e+00 1.141136e+00 1.158531e+00 1.163361e+00 1.178376e+00 1.180454e+00 1.192652e+00 1.191816e+00 1.200777e+00 1.196957e+00 1.202312e+00 1.195552e+00 1.197018e+00 1.187491e+00 1.184913e+00 1.172939e+00 1.166341e+00 1.152396e+00 1.142018e+00 1.126749e+00 1.113090e+00 1.097315e+00 1.081162e+00 1.065875e+00 1.048311e+00 1.034666e+00 1.017062e+00 1.006321e+00 9.902842e-01 9.837289e-01 9.709947e-01 9.697787e-01 9.620358e-01 9.669957e-01 9.656593e-01 9.771374e-01 9.831228e-01 1.000868e+00 1.014446e+00 1.037641e+00 1.058421e+00 1.085818e+00 1.112852e+00 1.142953e+00 1.174896e+00 1.206120e+00 1.241387e+00 1.272185e+00 1.309072e+00 1.337991e+00 1.374769e+00 1.400487e+00 1.435467e+00 1.456814e+00 1.488404e+00 1.504379e+00 1.531138e+00 1.540938e+00 1.561632e+00 1.564683e+00 1.578335e+00 1.574323e+00 1.580262e+00 1.569164e+00 1.567062e+00 1.549149e+00 1.539036e+00 1.514868e+00 1.497127e+00 1.467514e+00 1.442853e+00 1.408805e+00 1.378204e+00 1.340868e+00 1.305508e+00 1.266105e+00 1.227301e+00 1.187071e+00 1.146196e+00 1.106348e+00 1.064783e+00 1.026462e+00 9.855526e-01 9.498163e-01 9.108464e-01 8.786451e-01 8.428210e-01 8.149810e-01 7.834054e-01 7.606007e-01 7.342311e-01 7.169388e-01 6.965191e-01 6.849644e-01 6.709407e-01 6.650507e-01 6.575046e-01 6.569018e-01 6.555408e-01 6.595965e-01 6.638209e-01 6.717565e-01 6.807800e-01 6.917790e-01 7.047568e-01 7.180522e-01 7.341790e-01 7.491006e-01 7.676632e-01 7.836493e-01 8.040430e-01 8.206295e-01 8.423497e-01 8.591479e-01 8.817705e-01 8.984437e-01 
9.462307e-01 9.623773e-01 9.856033e-01 1.001215e+00 1.024551e+00 1.039325e+00 1.062451e+00 1.076075e+00 1.098650e+00 1.110802e+00 1.132460e+00 1.142814e+00 1.163156e+00 1.171393e+00 1.189991e+00 1.195816e+00 1.212214e+00 1.215384e+00 1.229115e+00 1.229457e+00 1.240067e+00 1.237507e+00 1.244586e+00 1.239170e+00 1.242392e+00 1.234302e+00 1.233476e+00 1.223041e+00 1.218156e+00 1.205863e+00 1.197140e+00 1.183636e+00 1.171561e+00 1.157657e+00 1.143009e+00 1.129673e+00 1.113525e+00 1.101864e+00 1.085560e+00 1.076769e+00 1.061868e+00 1.057140e+00 1.045308e+00 1.045701e+00 1.038551e+00 1.044824e+00 1.043719e+00 1.056180e+00 1.062037e+00 1.080457e+00 1.093619e+00 1.117248e+00 1.137445e+00 1.165117e+00 1.191535e+00 1.221822e+00 1.253222e+00 1.284581e+00 1.319436e+00 1.350315e+00 1.386929e+00 1.415848e+00 1.452456e+00 1.478052e+00 1.512904e+00 1.533966e+00 1.565403e+00 1.580907e+00 1.607432e+00 1.616574e+00 1.636915e+00 1.639142e+00 1.652305e+00 1.647348e+00 1.652660e+00 1.640547e+00 1.637684e+00 1.618740e+00 1.607739e+00 1.582568e+00 1.563820e+00 1.533264e+00 1.507489e+00 1.472578e+00 1.440777e+00 1.402670e+00 1.366059e+00 1.325986e+00 1.285920e+00 1.245127e+00 1.203028e+00 1.162729e+00 1.120019e+00 1.081357e+00 1.039414e+00 1.003431e+00 9.635516e-01 9.311670e-01 8.945399e-01 8.665271e-01 8.342093e-01 8.111713e-01 7.840485e-01 7.663848e-01 7.451188e-01 7.329897e-01 7.179581e-01 7.112596e-01 7.025134e-01 7.008846e-01 6.981507e-01 7.010223e-01 7.037620e-01 7.104388e-01 7.179472e-01 7.276977e-01 7.392098e-01 7.513379e-01 7.661124e-01 7.799996e-01 7.973690e-01 8.124868e-01 8.318756e-01 8.477789e-01 8.687004e-01 8.850100e-01 9.070504e-01 9.234327e-01 