# vtk DataFile Version 2.0
Comment goes here
ASCII

DATASET STRUCTURED_POINTS
FIELD FieldData 1
TIME 1 1 double
0.23000000
DIMENSIONS    128   128   1

ORIGIN    0.000   0.000   0.000
SPACING   0.039062 0.039062   1.000

POINT_DATA   16384
SCALARS uX double
LOOKUP_TABLE default

-7.107224e-02 -5.964055e-02 -4.728150e-02 -3.537106e-02 -2.258771e-02 -1.038772e-02 2.620742e-03 1.490879e-02 2.793271e-02 4.009941e-02 5.292336e-02 6.475650e-02 7.716462e-02 8.845503e-02 1.002371e-01 1.107849e-01 1.217427e-01 1.313641e-01 1.413180e-01 1.498511e-01 1.586462e-01 1.659576e-01 1.734693e-01 1.794585e-01 1.855964e-01 1.901992e-01 1.949103e-01 1.981005e-01 2.013698e-01 2.031592e-01 2.050086e-01 2.054444e-01 2.059298e-01 2.050912e-01 2.042983e-01 2.022910e-01 2.003293e-01 1.972790e-01 1.942754e-01 1.903213e-01 1.864131e-01 1.817009e-01 1.770294e-01 1.717046e-01 1.664085e-01 1.606106e-01 1.548204e-01 1.486780e-01 1.425122e-01 1.361391e-01 1.297005e-01 1.231933e-01 1.165669e-01 1.100034e-01 1.032559e-01 9.669494e-02 8.987467e-02 8.335678e-02 7.649520e-02 7.004414e-02 6.315775e-02 5.678280e-02 4.987575e-02 4.357437e-02 3.664163e-02 3.040241e-02 2.343299e-02 1.723873e-02 1.021904e-02 4.049783e-03 -3.033244e-03 -9.197406e-03 -1.635337e-02 -2.252973e-02 -2.976230e-02 -3.596326e-02 -4.326815e-02 -4.949933e-02 -5.686269e-02 -6.312125e-02 -7.051858e-02 -7.679189e-02 -8.418732e-02 -9.045179e-02 -9.779771e-02 -1.040179e-01 -1.112549e-01 -1.173830e-01 -1.244402e-01 -1.304154e-01 -1.372108e-01 -1.429599e-01 -1.494016e-01 -1.548393e-01 -1.608267e-01 -1.658571e-01 -1.712831e-01 -1.758019e-01 -1.805549e-01 -1.844522e-01 -1.884195e-01 -1.915833e-01 -1.946544e-01 -1.969746e-01 -1.990449e-01 -2.004175e-01 -2.013923e-01 -2.017238e-01 -2.015218e-01 -2.007333e-01 -1.992902e-01 -1.973208e-01 -1.945921e-01 -1.914021e-01 -1.873656e-01 -1.829386e-01 -1.775959e-01 -1.719402e-01 -1.653180e-01 -1.584678e-01 -1.506177e-01 -1.426330e-01 -1.336323e-01 -1.245983e-01 -1.145486e-01 -1.045752e-01 -9.360182e-02 -8.282214e-02 
-7.107269e-02 -5.961142e-02 -4.722162e-02 -3.528013e-02 -2.246406e-02 -1.023197e-02 2.810649e-03 1.513128e-02 2.819017e-02 4.038926e-02 5.324824e-02 6.511282e-02 7.755517e-02 8.887522e-02 1.006898e-01 1.112646e-01 1.222521e-01 1.318968e-01 1.418767e-01 1.504288e-01 1.592454e-01 1.665707e-01 1.740984e-01 1.800958e-01 1.862439e-01 1.908490e-01 1.955639e-01 1.987505e-01 2.020171e-01 2.037971e-01 2.056374e-01 2.060586e-01 2.065288e-01 2.056710e-01 2.048574e-01 2.028269e-01 2.008397e-01 1.977632e-01 1.947300e-01 1.907476e-01 1.868068e-01 1.820651e-01 1.773586e-01 1.720038e-01 1.666713e-01 1.608438e-01 1.550168e-01 1.488456e-01 1.426433e-01 1.362428e-01 1.297687e-01 1.232357e-01 1.165755e-01 1.099882e-01 1.032091e-01 9.662632e-02 8.977714e-02 8.323944e-02 7.635194e-02 6.988307e-02 6.297394e-02 5.658308e-02 4.965659e-02 4.334106e-02 3.639219e-02 3.014043e-02 2.315811e-02 1.695279e-02 9.923265e-03 3.744278e-03 -3.345723e-03 -9.518411e-03 -1.667876e-02 -2.286254e-02 -3.009721e-02 -3.630460e-02 -4.360962e-02 -4.984631e-02 -5.720820e-02 -6.347145e-02 -7.086606e-02 -7.714333e-02 -8.453518e-02 -9.080299e-02 -9.814485e-02 -1.043679e-01 -1.116007e-01 -1.177312e-01 -1.247844e-01 -1.307617e-01 -1.375537e-01 -1.433046e-01 -1.497436e-01 -1.551828e-01 -1.611683e-01 -1.662000e-01 -1.716249e-01 -1.761445e-01 -1.808971e-01 -1.847947e-01 -1.887621e-01 -1.919253e-01 -1.949966e-01 -1.973151e-01 -1.993853e-01 -2.007548e-01 -2.017287e-01 -2.020555e-01 -2.018514e-01 -2.010562e-01 -1.996093e-01 -1.976311e-01 -1.948966e-01 -1.916954e-01 -1.876506e-01 -1.832100e-01 -1.778564e-01 -1.721846e-01 -1.655485e-01 -1.586797e-01 -1.508129e-01 -1.428071e-01 -1.337865e-01 -1.247291e-01 -1.146566e-01 -1.046576e-01 -9.365842e-02 -8.285097e-02 
-7.170348e-02 -6.018515e-02 -4.773365e-02 -3.572860e-02 -2.284563e-02 -1.054487e-02 2.568423e-03 1.496119e-02 2.809284e-02 4.036564e-02 5.329752e-02 6.523526e-02 7.774851e-02 8.913885e-02 1.010200e-01 1.116599e-01 1.227075e-01 1.324097e-01 1.424410e-01 1.510409e-01 1.598984e-01 1.672601e-01 1.748168e-01 1.808381e-01 1.870026e-01 1.916184e-01 1.963371e-01 1.995215e-01 2.027799e-01 2.045456e-01 2.063669e-01 2.067632e-01 2.072058e-01 2.063144e-01 2.054668e-01 2.033965e-01 2.013713e-01 1.982513e-01 1.951790e-01 1.911520e-01 1.871732e-01 1.823882e-01 1.776473e-01 1.722527e-01 1.668910e-01 1.610287e-01 1.551793e-01 1.489798e-01 1.427626e-01 1.363411e-01 1.298598e-01 1.233136e-01 1.166537e-01 1.100607e-01 1.032889e-01 9.670760e-02 8.987152e-02 8.334165e-02 7.647176e-02 7.001600e-02 6.312746e-02 5.675373e-02 4.984917e-02 4.355345e-02 3.662617e-02 3.039551e-02 2.343286e-02 1.724856e-02 1.023536e-02 4.076035e-03 -3.002220e-03 -9.157765e-03 -1.631193e-02 -2.248211e-02 -2.971687e-02 -3.591506e-02 -4.322690e-02 -4.945953e-02 -5.683518e-02 -6.310009e-02 -7.051539e-02 -7.680050e-02 -8.421976e-02 -9.050196e-02 -9.787759e-02 -1.041218e-01 -1.113942e-01 -1.175526e-01 -1.246507e-01 -1.306626e-01 -1.375039e-01 -1.432956e-01 -1.497875e-01 -1.552731e-01 -1.613141e-01 -1.663966e-01 -1.718781e-01 -1.764519e-01 -1.812611e-01 -1.852144e-01 -1.892368e-01 -1.924556e-01 -1.955789e-01 -1.979510e-01 -2.000686e-01 -2.014878e-01 -2.025032e-01 -2.028741e-01 -2.027042e-01 -2.019460e-01 -2.005250e-01 -1.985755e-01 -1.958578e-01 -1.926760e-01 -1.886386e-01 -1.842072e-01 -1.788512e-01 -1.731784e-01 -1.665302e-01 -1.596500e-01 -1.517613e-01 -1.437338e-01 -1.346823e-01 -1.255933e-01 -1.154809e-01 -1.054410e-01 -9.439395e-02 -8.353708e-02 
-7.233937e-02 -6.070447e-02 -4.812937e-02 -3.599820e-02 -2.298239e-02 -1.054822e-02 2.704712e-03 1.523543e-02 2.851055e-02 4.092262e-02 5.399833e-02 6.607294e-02 7.872649e-02 9.024729e-02 1.022610e-01 1.130207e-01 1.241889e-01 1.339960e-01 1.441318e-01 1.528181e-01 1.617602e-01 1.691865e-01 1.768051e-01 1.828670e-01 1.890685e-01 1.936998e-01 1.984300e-01 2.016047e-01 2.048493e-01 2.065815e-01 2.083655e-01 2.087069e-01 2.090911e-01 2.081267e-01 2.072029e-01 2.050456e-01 2.029307e-01 1.997140e-01 1.965425e-01 1.924135e-01 1.883305e-01 1.834423e-01 1.785961e-01 1.731010e-01 1.676367e-01 1.616797e-01 1.557334e-01 1.494476e-01 1.431416e-01 1.366440e-01 1.300839e-01 1.234726e-01 1.167451e-01 1.100986e-01 1.032704e-01 9.664690e-02 8.976579e-02 8.320419e-02 7.629985e-02 6.982167e-02 6.290813e-02 5.651985e-02 4.959831e-02 4.329425e-02 3.635637e-02 3.012189e-02 2.315327e-02 1.696800e-02 9.951673e-03 3.792668e-03 -3.287525e-03 -9.442874e-03 -1.659931e-02 -2.277066e-02 -3.000936e-02 -3.621113e-02 -4.352971e-02 -4.976922e-02 -5.715530e-02 -6.343116e-02 -7.086133e-02 -7.716212e-02 -8.460125e-02 -9.090439e-02 -9.830530e-02 -1.045761e-01 -1.118796e-01 -1.180706e-01 -1.252054e-01 -1.312559e-01 -1.381395e-01 -1.439756e-01 -1.505149e-01 -1.560499e-01 -1.621426e-01 -1.672785e-01 -1.728148e-01 -1.774445e-01 -1.823098e-01 -1.863195e-01 -1.903975e-01 -1.936710e-01 -1.968470e-01 -1.992696e-01 -2.014349e-01 -2.028980e-01 -2.039535e-01 -2.043593e-01 -2.042198e-01 -2.034855e-01 -2.020833e-01 -2.001448e-01 -1.974327e-01 -1.942479e-01 -1.902017e-01 -1.857525e-01 -1.803724e-01 -1.746664e-01 -1.679784e-01 -1.610496e-01 -1.531056e-01 -1.450143e-01 -1.358919e-01 -1.267244e-01 -1.165264e-01 -1.063941e-01 -9.524742e-02 -8.428534e-02 
-7.361541e-02 -6.183565e-02 -4.910522e-02 -3.681449e-02 -2.363073e-02 -1.102549e-02 2.404643e-03 1.511412e-02 2.857167e-02 4.116568e-02 5.442439e-02 6.667905e-02 7.951091e-02 9.120428e-02 1.033861e-01 1.143050e-01 1.256253e-01 1.355729e-01 1.458393e-01 1.546419e-01 1.636886e-01 1.712028e-01 1.788963e-01 1.850147e-01 1.912592e-01 1.959142e-01 2.006550e-01 2.038208e-01 2.070449e-01 2.087377e-01 2.104728e-01 2.107477e-01 2.110591e-01 2.100060e-01 2.089908e-01 2.067283e-01 2.045093e-01 2.011770e-01 1.978950e-01 1.936461e-01 1.894523e-01 1.844458e-01 1.794940e-01 1.738873e-01 1.683271e-01 1.622697e-01 1.562408e-01 1.498689e-01 1.434961e-01 1.369287e-01 1.303190e-01 1.236555e-01 1.168955e-01 1.102143e-01 1.033702e-01 9.672856e-02 8.984608e-02 8.328139e-02 7.638789e-02 6.991936e-02 6.302590e-02 5.665733e-02 4.976184e-02 4.348464e-02 3.657539e-02 3.037193e-02 2.343118e-02 1.727816e-02 1.028588e-02 4.157625e-03 -2.905070e-03 -9.033646e-03 -1.618138e-02 -2.233208e-02 -2.957262e-02 -3.576169e-02 -4.309386e-02 -4.933016e-02 -5.674230e-02 -6.302570e-02 -7.049473e-02 -7.681483e-02 -8.430555e-02 -9.064059e-02 -9.810547e-02 -1.044213e-01 -1.118005e-01 -1.180499e-01 -1.252713e-01 -1.313934e-01 -1.383732e-01 -1.442934e-01 -1.509369e-01 -1.565671e-01 -1.627700e-01 -1.680101e-01 -1.736602e-01 -1.784003e-01 -1.833801e-01 -1.875032e-01 -1.916929e-01 -1.950788e-01 -1.983606e-01 -2.008905e-01 -2.031518e-01 -2.047131e-01 -2.058517e-01 -2.063427e-01 -2.062704e-01 -2.056048e-01 -2.042514e-01 -2.023623e-01 -1.996787e-01 -1.965219e-01 -1.924824e-01 -1.880386e-01 -1.826428e-01 -1.769187e-01 -1.701924e-01 -1.632219e-01 -1.552172e-01 -1.470610e-01 -1.378562e-01 -1.286016e-01 -1.183006e-01 -1.080601e-01 -9.679100e-02 -8.570136e-02 
-7.490933e-02 -6.292419e-02 -4.997532e-02 -3.746116e-02 -2.404196e-02 -1.119926e-02 2.478960e-03 1.543501e-02 2.914799e-02 4.199183e-02 5.550706e-02 6.800808e-02 8.109051e-02 9.301937e-02 1.054381e-01 1.165739e-01 1.281097e-01 1.382477e-01 1.487006e-01 1.576603e-01 1.668576e-01 1.744895e-01 1.822925e-01 1.884851e-01 1.947945e-01 1.994779e-01 2.042375e-01 2.073863e-01 2.105841e-01 2.122168e-01 2.138837e-01 2.140601e-01 2.142663e-01 2.130827e-01 2.119319e-01 2.095142e-01 2.071369e-01 2.036329e-01 2.001779e-01 1.957490e-01 1.913753e-01 1.861883e-01 1.810572e-01 1.752762e-01 1.695440e-01 1.633244e-01 1.571360e-01 1.506185e-01 1.441030e-01 1.374097e-01 1.306767e-01 1.239086e-01 1.170465e-01 1.102824e-01 1.033574e-01 9.665390e-02 8.971094e-02 8.310375e-02 7.616837e-02 6.967427e-02 6.275499e-02 5.637484e-02 4.946649e-02 4.318845e-02 3.627588e-02 3.007898e-02 2.314092e-02 1.699859e-02 1.001156e-02 3.895080e-03 -3.163002e-03 -9.281433e-03 -1.642802e-02 -2.257256e-02 -2.981779e-02 -3.600669e-02 -4.335129e-02 -4.959507e-02 -5.702885e-02 -6.332880e-02 -7.082973e-02 -7.717666e-02 -8.471028e-02 -9.108344e-02 -9.860269e-02 -1.049688e-01 -1.124139e-01 -1.187262e-01 -1.260251e-01 -1.322227e-01 -1.392910e-01 -1.452988e-01 -1.520406e-01 -1.577693e-01 -1.640786e-01 -1.694260e-01 -1.751881e-01 -1.800412e-01 -1.851355e-01 -1.893734e-01 -1.936765e-01 -1.971747e-01 -2.005642e-01 -2.031992e-01 -2.055583e-01 -2.072127e-01 -2.084347e-01 -2.090022e-01 -2.089948e-01 -2.083853e-01 -2.070748e-01 -2.052182e-01 -2.025526e-01 -1.994021e-01 -1.953538e-01 -1.908884e-01 -1.854557e-01 -1.796814e-01 -1.728895e-01 -1.658401e-01 -1.577412e-01 -1.494779e-01 -1.401508e-01 -1.307617e-01 -1.203114e-01 -1.099107e-01 -9.846692e-02 -8.719320e-02 
-7.686326e-02 -6.464286e-02 -5.144227e-02 -3.866935e-02 -2.497779e-02 -1.185778e-02 2.108194e-03 1.535411e-02 2.936387e-02 4.250300e-02 5.631654e-02 6.911007e-02 8.248383e-02 9.469336e-02 1.073872e-01 1.187823e-01 1.305675e-01 1.409341e-01 1.516017e-01 1.607504e-01 1.701196e-01 1.778939e-01 1.858199e-01 1.921029e-01 1.984825e-01 2.032022e-01 2.079781e-01 2.111093e-01 2.142714e-01 2.158359e-01 2.174198e-01 2.174834e-01 2.175663e-01 2.162331e-01 2.149276e-01 2.123329e-01 2.097793e-01 2.060812e-01 2.024385e-01 1.978086e-01 1.932458e-01 1.878603e-01 1.825477e-01 1.765793e-01 1.706808e-01 1.642917e-01 1.579582e-01 1.512945e-01 1.446592e-01 1.378463e-01 1.310210e-01 1.241617e-01 1.172352e-01 1.104082e-01 1.034456e-01 9.670613e-02 8.974976e-02 8.313079e-02 7.620242e-02 6.971716e-02 6.282071e-02 5.646575e-02 4.959096e-02 4.334982e-02 3.647621e-02 3.032317e-02 2.342426e-02 1.732815e-02 1.037559e-02 4.303392e-03 -2.729201e-03 -8.809085e-03 -1.594273e-02 -2.205776e-02 -2.930535e-02 -3.547654e-02 -4.284075e-02 -4.908092e-02 -5.655277e-02 -6.286511e-02 -7.042311e-02 -7.680002e-02 -8.440977e-02 -9.083179e-02 -9.844583e-02 -1.048806e-01 -1.124385e-01 -1.188398e-01 -1.262682e-01 -1.325752e-01 -1.397880e-01 -1.459245e-01 -1.528239e-01 -1.586987e-01 -1.651754e-01 -1.706832e-01 -1.766190e-01 -1.816424e-01 -1.869121e-01 -1.913250e-01 -1.957999e-01 -1.994715e-01 -2.030238e-01 -2.058241e-01 -2.083313e-01 -2.101361e-01 -2.114860e-01 -2.121830e-01 -2.122784e-01 -2.117720e-01 -2.105351e-01 -2.087507e-01 -2.061264e-01 -2.030141e-01 -1.989726e-01 -1.945092e-01 -1.890477e-01 -1.832384e-01 -1.763817e-01 -1.692601e-01 -1.610608e-01 -1.526887e-01 -1.432268e-01 -1.336938e-01 -1.230757e-01 -1.124979e-01 -1.008555e-01 -8.937399e-02 
-7.885698e-02 -6.633917e-02 -5.282179e-02 -3.972409e-02 -2.569012e-02 -1.222366e-02 2.104145e-03 1.571111e-02 3.009450e-02 4.360076e-02 5.779058e-02 7.094738e-02 8.468960e-02 9.724744e-02 1.102905e-01 1.220072e-01 1.341104e-01 1.447600e-01 1.557028e-01 1.650851e-01 1.746765e-01 1.826257e-01 1.907124e-01 1.971053e-01 2.035789e-01 2.083398e-01 2.131409e-01 2.162452e-01 2.193653e-01 2.208387e-01 2.223183e-01 2.222336e-01 2.221579e-01 2.206291e-01 2.191210e-01 2.162950e-01 2.135065e-01 2.095536e-01 2.056560e-01 2.007603e-01 1.959346e-01 1.902842e-01 1.847118e-01 1.784896e-01 1.723441e-01 1.657209e-01 1.591612e-01 1.522895e-01 1.454546e-01 1.384643e-01 1.314699e-01 1.244659e-01 1.174026e-01 1.104640e-01 1.033968e-01 9.657750e-02 8.954699e-02 8.287715e-02 7.590202e-02 6.939096e-02 6.247094e-02 5.611061e-02 4.923046e-02 4.299931e-02 3.613318e-02 3.000031e-02 2.311621e-02 1.704545e-02 1.010971e-02 4.063451e-03 -2.955166e-03 -9.012613e-03 -1.613932e-02 -2.223889e-02 -2.949003e-02 -3.565563e-02 -4.303652e-02 -4.928337e-02 -5.678699e-02 -6.312028e-02 -7.072647e-02 -7.714035e-02 -8.481558e-02 -9.129209e-02 -9.898940e-02 -1.054975e-01 -1.131565e-01 -1.196508e-01 -1.271981e-01 -1.336179e-01 -1.409665e-01 -1.472352e-01 -1.542854e-01 -1.603099e-01 -1.669503e-01 -1.726220e-01 -1.787304e-01 -1.839275e-01 -1.893741e-01 -1.939646e-01 -1.986147e-01 -2.024611e-01 -2.061806e-01 -2.091453e-01 -2.118047e-01 -2.137565e-01 -2.152369e-01 -2.160562e-01 -2.162545e-01 -2.158396e-01 -2.146726e-01 -2.129442e-01 -2.103526e-01 -2.072572e-01 -2.032083e-01 -1.987205e-01 -1.932098e-01 -1.873335e-01 -1.803852e-01 -1.731539e-01 -1.648209e-01 -1.562974e-01 -1.466606e-01 -1.369358e-01 -1.261032e-01 -1.152952e-01 -1.034010e-01 -9.165395e-02 
-8.154109e-02 -6.869361e-02 -5.482390e-02 -4.136331e-02 -2.694732e-02 -1.309130e-02 1.641195e-03 1.565628e-02 3.045831e-02 4.438140e-02 5.899338e-02 7.256421e-02 8.672001e-02 9.967613e-02 1.131108e-01 1.251963e-01 1.376554e-01 1.486303e-01 1.598798e-01 1.695311e-01 1.793680e-01 1.875191e-01 1.957807e-01 2.023006e-01 2.088725e-01 2.136819e-01 2.185031e-01 2.215778e-01 2.246425e-01 2.260131e-01 2.273685e-01 2.271165e-01 2.268582e-01 2.251095e-01 2.233734e-01 2.202886e-01 2.172411e-01 2.130056e-01 2.088331e-01 2.036458e-01 1.985436e-01 1.926061e-01 1.867686e-01 1.802762e-01 1.738880e-01 1.670212e-01 1.602496e-01 1.531682e-01 1.461581e-01 1.389967e-01 1.318669e-01 1.247326e-01 1.175742e-01 1.105460e-01 1.034222e-01 9.655161e-02 8.949936e-02 8.281266e-02 7.584524e-02 6.934648e-02 6.245712e-02 5.613207e-02 4.929829e-02 4.311879e-02 3.630717e-02 3.023558e-02 2.340675e-02 1.740043e-02 1.051385e-02 4.529218e-03 -2.452369e-03 -8.456221e-03 -1.556300e-02 -2.162143e-02 -2.887353e-02 -3.501412e-02 -4.241947e-02 -4.866041e-02 -5.621354e-02 -6.256250e-02 -7.024396e-02 -7.669718e-02 -8.447345e-02 -9.101480e-02 -9.883849e-02 -1.054384e-01 -1.132483e-01 -1.198624e-01 -1.275836e-01 -1.341515e-01 -1.416953e-01 -1.481393e-01 -1.554033e-01 -1.616279e-01 -1.684967e-01 -1.743893e-01 -1.807358e-01 -1.861684e-01 -1.918565e-01 -1.966896e-01 -2.015774e-01 -2.056646e-01 -2.096098e-01 -2.128042e-01 -2.156692e-01 -2.178297e-01 -2.194878e-01 -2.204862e-01 -2.208270e-01 -2.205540e-01 -2.194884e-01 -2.178584e-01 -2.153230e-01 -2.122780e-01 -2.082372e-01 -2.037491e-01 -1.981968e-01 -1.922684e-01 -1.852285e-01 -1.778936e-01 -1.694197e-01 -1.607420e-01 -1.509164e-01 -1.409889e-01 -1.299218e-01 -1.188653e-01 -1.066934e-01 -9.465519e-02 
-8.429703e-02 -7.105556e-02 -5.676579e-02 -4.287335e-02 -2.800178e-02 -1.368324e-02 1.532486e-03 1.603163e-02 3.133462e-02 4.575208e-02 6.087058e-02 7.493268e-02 8.958634e-02 1.030154e-01 1.169234e-01 1.294469e-01 1.423381e-01 1.536996e-01 1.653235e-01 1.752941e-01 1.854328e-01 1.938227e-01 2.023017e-01 2.089703e-01 2.156674e-01 2.205306e-01 2.253819e-01 2.284160e-01 2.314179e-01 2.326590e-01 2.338662e-01 2.334063e-01 2.329259e-01 2.309049e-01 2.288875e-01 2.254826e-01 2.221114e-01 2.175255e-01 2.130042e-01 2.074536e-01 2.019943e-01 1.956972e-01 1.895097e-01 1.826754e-01 1.759575e-01 1.687780e-01 1.617076e-01 1.543513e-01 1.470811e-01 1.396883e-01 1.323417e-01 1.250223e-01 1.176924e-01 1.105253e-01 1.032748e-01 9.630921e-02 8.917222e-02 8.243013e-02 7.541523e-02 6.889505e-02 6.198929e-02 5.567012e-02 4.884386e-02 4.269032e-02 3.590245e-02 2.986964e-02 2.307300e-02 1.711130e-02 1.025793e-02 4.317452e-03 -2.636619e-03 -8.602288e-03 -1.569292e-02 -2.172372e-02 -2.897557e-02 -3.510277e-02 -4.252714e-02 -4.877195e-02 -5.636565e-02 -6.273824e-02 -7.048332e-02 -7.698212e-02 -8.484596e-02 -9.145691e-02 -9.939261e-02 -1.060880e-01 -1.140345e-01 -1.207714e-01 -1.286537e-01 -1.353725e-01 -1.431008e-01 -1.497232e-01 -1.571934e-01 -1.636219e-01 -1.707153e-01 -1.768330e-01 -1.834175e-01 -1.890904e-01 -1.950233e-01 -2.001036e-01 -2.052351e-01 -2.095669e-01 -2.137454e-01 -2.171711e-01 -2.202494e-01 -2.226175e-01 -2.244595e-01 -2.256321e-01 -2.261187e-01 -2.259778e-01 -2.250130e-01 -2.234663e-01 -2.209810e-01 -2.179659e-01 -2.139208e-01 -2.094063e-01 -2.037933e-01 -1.977810e-01 -1.906234e-01 -1.831472e-01 -1.744992e-01 -1.656242e-01 -1.555694e-01 -1.453905e-01 -1.340414e-01 -1.226822e-01 -1.101783e-01 -9.778954e-02 
-8.778494e-02 -7.411415e-02 -5.936586e-02 -4.499983e-02 -2.962955e-02 -1.480107e-02 9.449788e-04 1.598034e-02 3.183431e-02 4.680168e-02 6.247828e-02 7.708888e-02 9.229169e-02 1.062504e-01 1.206806e-01 1.336961e-01 1.470632e-01 1.588596e-01 1.708942e-01 1.812245e-01 1.916917e-01 2.003507e-01 2.090624e-01 2.158984e-01 2.227237e-01 2.276470e-01 2.325196e-01 2.355072e-01 2.384270e-01 2.395220e-01 2.405534e-01 2.398601e-01 2.391248e-01 2.367996e-01 2.344664e-01 2.307061e-01 2.269784e-01 2.220066e-01 2.171086e-01 2.111619e-01 2.053257e-01 1.986409e-01 1.920939e-01 1.848965e-01 1.778511e-01 1.703463e-01 1.629915e-01 1.553573e-01 1.478533e-01 1.402358e-01 1.327100e-01 1.252215e-01 1.177674e-01 1.104861e-01 1.031638e-01 9.613552e-02 8.897379e-02 8.221495e-02 7.521498e-02 6.871664e-02 6.185659e-02 5.558941e-02 4.882981e-02 4.274937e-02 3.603892e-02 3.009126e-02 2.337285e-02 1.749972e-02 1.071621e-02 4.859903e-03 -2.040663e-03 -7.933280e-03 -1.499324e-02 -2.096765e-02 -2.821646e-02 -3.430839e-02 -4.176050e-02 -4.799465e-02 -5.564864e-02 -6.203807e-02 -6.987657e-02 -7.642228e-02 -8.441253e-02 -9.110280e-02 -9.919731e-02 -1.060066e-01 -1.141434e-01 -1.210307e-01 -1.291334e-01 -1.360397e-01 -1.440167e-01 -1.508634e-01 -1.586074e-01 -1.652942e-01 -1.726819e-01 -1.790869e-01 -1.859801e-01 -1.919613e-01 -1.982091e-01 -2.036086e-01 -2.090513e-01 -2.137010e-01 -2.181762e-01 -2.219055e-01 -2.252547e-01 -2.278990e-01 -2.299752e-01 -2.313844e-01 -2.320590e-01 -2.321047e-01 -2.312738e-01 -2.298559e-01 -2.274446e-01 -2.244947e-01 -2.204603e-01 -2.159444e-01 -2.102771e-01 -2.041959e-01 -1.969189e-01 -1.893067e-01 -1.804755e-01 -1.713991e-01 -1.610994e-01 -1.506565e-01 -1.390033e-01 -1.273206e-01 -1.144568e-01 -1.016892e-01 
-9.138816e-02 -7.722116e-02 -6.194341e-02 -4.703126e-02 -3.108432e-02 -1.566815e-02 6.924951e-04 1.634619e-02 3.284060e-02 4.844299e-02 6.477058e-02 8.001573e-02 9.586168e-02 1.104344e-01 1.254788e-01 1.390656e-01 1.529953e-01 1.652974e-01 1.778205e-01 1.885691e-01 1.994298e-01 2.084010e-01 2.173944e-01 2.244229e-01 2.314075e-01 2.363968e-01 2.413018e-01 2.442294e-01 2.470584e-01 2.479753e-01 2.488030e-01 2.478280e-01 2.467924e-01 2.441017e-01 2.413919e-01 2.372050e-01 2.330474e-01 2.276121e-01 2.222545e-01 2.158309e-01 2.095280e-01 2.023746e-01 1.953741e-01 1.877351e-01 1.802665e-01 1.723619e-01 1.646279e-01 1.566465e-01 1.488167e-01 1.409114e-01 1.331190e-01 1.254048e-01 1.177452e-01 1.102999e-01 1.028316e-01 9.569722e-02 8.844481e-02 8.163171e-02 7.458962e-02 6.808088e-02 6.121873e-02 5.497582e-02 4.824428e-02 4.221302e-02 3.555033e-02 2.966696e-02 2.300553e-02 1.720258e-02 1.047531e-02 4.686831e-03 -2.167026e-03 -8.001172e-03 -1.503129e-02 -2.096220e-02 -2.820364e-02 -3.427142e-02 -4.174258e-02 -4.797531e-02 -5.567721e-02 -6.209074e-02 -7.000740e-02 -7.660527e-02 -8.470467e-02 -9.147777e-02 -9.971286e-02 -1.066383e-01 -1.149475e-01 -1.219866e-01 -1.302934e-01 -1.373890e-01 -1.456013e-01 -1.526749e-01 -1.606835e-01 -1.676325e-01 -1.753105e-01 -1.820081e-01 -1.892112e-01 -1.955074e-01 -2.020761e-01 -2.078021e-01 -2.135660e-01 -2.185404e-01 -2.233247e-01 -2.273626e-01 -2.309957e-01 -2.339181e-01 -2.362402e-01 -2.378835e-01 -2.387544e-01 -2.389792e-01 -2.382855e-01 -2.369828e-01 -2.346428e-01 -2.317385e-01 -2.277049e-01 -2.231618e-01 -2.174228e-01 -2.112405e-01 -2.038192e-01 -1.960328e-01 -1.869856e-01 -1.776639e-01 -1.670787e-01 -1.563220e-01 -1.443164e-01 -1.322550e-01 -1.189753e-01 -1.057677e-01 
-9.577701e-02 -8.107483e-02 -6.522576e-02 -4.972138e-02 -3.315047e-02 -1.709387e-02 -6.628783e-05 1.626430e-02 3.345560e-02 4.975612e-02 6.679383e-02 8.273935e-02 9.928812e-02 1.145410e-01 1.302570e-01 1.444784e-01 1.590229e-01 1.718879e-01 1.849428e-01 1.961574e-01 2.074430e-01 2.167616e-01 2.260541e-01 2.332958e-01 2.404411e-01 2.455015e-01 2.504253e-01 2.532826e-01 2.559934e-01 2.567084e-01 2.572942e-01 2.560028e-01 2.546217e-01 2.515232e-01 2.483896e-01 2.437300e-01 2.390976e-01 2.331526e-01 2.272971e-01 2.203540e-01 2.135563e-01 2.058983e-01 1.984290e-01 1.903212e-01 1.824288e-01 1.741079e-01 1.660094e-01 1.576757e-01 1.495499e-01 1.413634e-01 1.333477e-01 1.254261e-01 1.176159e-01 1.100351e-01 1.024850e-01 9.528217e-02 8.800931e-02 8.118684e-02 7.417573e-02 6.770679e-02 6.091517e-02 5.474992e-02 4.811546e-02 4.218776e-02 3.563530e-02 2.986952e-02 2.331842e-02 1.763593e-02 1.100716e-02 5.332079e-03 -1.445370e-03 -7.181500e-03 -1.416543e-02 -2.002032e-02 -2.725158e-02 -3.327031e-02 -4.077082e-02 -4.698526e-02 -5.475762e-02 -6.118664e-02 -6.921503e-02 -7.586498e-02 -8.411678e-02 -9.098148e-02 -9.940872e-02 -1.064684e-01 -1.150086e-01 -1.222276e-01 -1.308032e-01 -1.381266e-01 -1.466439e-01 -1.539933e-01 -1.623402e-01 -1.696108e-01 -1.776555e-01 -1.847145e-01 -1.923051e-01 -1.989926e-01 -2.059594e-01 -2.120930e-01 -2.182528e-01 -2.236351e-01 -2.287985e-01 -2.332269e-01 -2.372071e-01 -2.404850e-01 -2.431075e-01 -2.450552e-01 -2.461673e-01 -2.466316e-01 -2.461097e-01 -2.449717e-01 -2.427270e-01 -2.399059e-01 -2.358872e-01 -2.313426e-01 -2.255366e-01 -2.192676e-01 -2.116981e-01 -2.037414e-01 -1.944667e-01 -1.848938e-01 -1.740048e-01 -1.629193e-01 -1.505369e-01 -1.380730e-01 -1.243471e-01 -1.106681e-01 
-1.003378e-01 -8.503088e-02 -6.853595e-02 -5.236282e-02 -3.508489e-02 -1.830446e-02 -5.188050e-04 1.657838e-02 3.456489e-02 5.165825e-02 6.950988e-02 8.625330e-02 1.036116e-01 1.196417e-01 1.361355e-01 1.510844e-01 1.663447e-01 1.798564e-01 1.935345e-01 2.052849e-01 2.170725e-01 2.267903e-01 2.364400e-01 2.439250e-01 2.512676e-01 2.564054e-01 2.613609e-01 2.641307e-01 2.667123e-01 2.671860e-01 2.674963e-01 2.658300e-01 2.640497e-01 2.604696e-01 2.568411e-01 2.516244e-01 2.464325e-01 2.398871e-01 2.334387e-01 2.258833e-01 2.184889e-01 2.102347e-01 2.021911e-01 1.935270e-01 1.851047e-01 1.762858e-01 1.677180e-01 1.589580e-01 1.504351e-01 1.419014e-01 1.335672e-01 1.253801e-01 1.173315e-01 1.095652e-01 1.018541e-01 9.454016e-02 8.717730e-02 8.030958e-02 7.327024e-02 6.681103e-02 6.004135e-02 5.392849e-02 4.735304e-02 4.150744e-02 3.503719e-02 2.937039e-02 2.291089e-02 1.733234e-02 1.079162e-02 5.214964e-03 -1.489315e-03 -7.141109e-03 -1.407592e-02 -1.986713e-02 -2.708002e-02 -3.306048e-02 -4.057764e-02 -4.678261e-02 -5.460886e-02 -6.105989e-02 -6.918027e-02 -7.588636e-02 -8.426845e-02 -9.122655e-02 -9.982262e-02 -1.070167e-01 -1.157648e-01 -1.231632e-01 -1.319865e-01 -1.395375e-01 -1.483425e-01 -1.559693e-01 -1.646429e-01 -1.722391e-01 -1.806458e-01 -1.880729e-01 -1.960537e-01 -2.031418e-01 -2.105163e-01 -2.170687e-01 -2.236396e-01 -2.294412e-01 -2.350026e-01 -2.398313e-01 -2.441787e-01 -2.478183e-01 -2.507601e-01 -2.530133e-01 -2.543814e-01 -2.550804e-01 -2.547392e-01 -2.537541e-01 -2.516061e-01 -2.488495e-01 -2.448387e-01 -2.402670e-01 -2.343785e-01 -2.279905e-01 -2.202487e-01 -2.120830e-01 -2.025483e-01 -1.926794e-01 -1.814456e-01 -1.699809e-01 -1.571723e-01 -1.442496e-01 -1.300197e-01 -1.158064e-01 
-1.057511e-01 -8.979634e-02 -7.261013e-02 -5.571724e-02 -3.768031e-02 -2.011720e-02 -1.514988e-03 1.641502e-02 3.526109e-02 5.321980e-02 7.195414e-02 8.957234e-02 1.078109e-01 1.246967e-01 1.420377e-01 1.577901e-01 1.738301e-01 1.880579e-01 2.024126e-01 2.147570e-01 2.270851e-01 2.372444e-01 2.472717e-01 2.550236e-01 2.625634e-01 2.677824e-01 2.727490e-01 2.754153e-01 2.778291e-01 2.780279e-01 2.780099e-01 2.759213e-01 2.736801e-01 2.695618e-01 2.653739e-01 2.595392e-01 2.537264e-01 2.465205e-01 2.394267e-01 2.312037e-01 2.231733e-01 2.142765e-01 2.056361e-01 1.963808e-01 1.874243e-01 1.780862e-01 1.690644e-01 1.598709e-01 1.509850e-01 1.421114e-01 1.335098e-01 1.250784e-01 1.168567e-01 1.089387e-01 1.011429e-01 9.376242e-02 8.639328e-02 7.953343e-02 7.255287e-02 6.616265e-02 5.950125e-02 5.350360e-02 4.706896e-02 4.136920e-02 3.505491e-02 2.954926e-02 2.324406e-02 1.782770e-02 1.142432e-02 5.998532e-03 -5.983733e-04 -6.120649e-03 -1.298803e-02 -1.867860e-02 -2.587072e-02 -3.178465e-02 -3.933121e-02 -4.550727e-02 -5.341399e-02 -5.987637e-02 -6.812742e-02 -7.488784e-02 -8.344919e-02 -9.050804e-02 -9.933051e-02 -1.066762e-01 -1.156970e-01 -1.233027e-01 -1.324448e-01 -1.402632e-01 -1.494325e-01 -1.573891e-01 -1.664704e-01 -1.744575e-01 -1.833105e-01 -1.911829e-01 -1.996403e-01 -2.072160e-01 -2.150845e-01 -2.221493e-01 -2.292151e-01 -2.355324e-01 -2.415702e-01 -2.468941e-01 -2.516791e-01 -2.557698e-01 -2.590910e-01 -2.617297e-01 -2.634023e-01 -2.644038e-01 -2.642792e-01 -2.635011e-01 -2.614737e-01 -2.588214e-01 -2.548310e-01 -2.502580e-01 -2.442891e-01 -2.377953e-01 -2.298743e-01 -2.215011e-01 -2.116919e-01 -2.015182e-01 -1.899185e-01 -1.780562e-01 -1.647943e-01 -1.513858e-01 -1.366189e-01 -1.218363e-01 
-1.114082e-01 -9.473361e-02 -7.677792e-02 -5.908470e-02 -4.020026e-02 -2.176484e-02 -2.247122e-03 1.661430e-02 3.642881e-02 5.535941e-02 7.509373e-02 9.369889e-02 1.129407e-01 1.307962e-01 1.491087e-01 1.657756e-01 1.827156e-01 1.977610e-01 2.129023e-01 2.259263e-01 2.388882e-01 2.495526e-01 2.600282e-01 2.680838e-01 2.758646e-01 2.811719e-01 2.861646e-01 2.887049e-01 2.909365e-01 2.908106e-01 2.904228e-01 2.878390e-01 2.850716e-01 2.803247e-01 2.754925e-01 2.689379e-01 2.624043e-01 2.544301e-01 2.465803e-01 2.375815e-01 2.287982e-01 2.191538e-01 2.097966e-01 1.998517e-01 1.902415e-01 1.802942e-01 1.707018e-01 1.609948e-01 1.516343e-01 1.423512e-01 1.333776e-01 1.246425e-01 1.161522e-01 1.080326e-01 1.000669e-01 9.257887e-02 8.512961e-02 7.824427e-02 7.126082e-02 6.491266e-02 5.831027e-02 5.240598e-02 4.607507e-02 4.050304e-02 3.431913e-02 2.895899e-02 2.279288e-02 1.752457e-02 1.125229e-02 5.964025e-03 -5.241652e-04 -5.929741e-03 -1.272210e-02 -1.832413e-02 -2.548264e-02 -3.134087e-02 -3.889948e-02 -4.505538e-02 -5.302116e-02 -5.950084e-02 -6.785750e-02 -7.467491e-02 -8.338748e-02 -9.054655e-02 -9.956553e-02 -1.070598e-01 -1.163234e-01 -1.241324e-01 -1.335656e-01 -1.416483e-01 -1.511591e-01 -1.594451e-01 -1.689188e-01 -1.773003e-01 -1.865939e-01 -1.949201e-01 -2.038586e-01 -2.119349e-01 -2.203119e-01 -2.279054e-01 -2.354888e-01 -2.423393e-01 -2.488816e-01 -2.547168e-01 -2.599695e-01 -2.645234e-01 -2.682523e-01 -2.712826e-01 -2.732829e-01 -2.745854e-01 -2.746932e-01 -2.741125e-01 -2.722121e-01 -2.696460e-01 -2.656724e-01 -2.610724e-01 -2.550095e-01 -2.483768e-01 -2.402533e-01 -2.316332e-01 -2.215170e-01 -2.109930e-01 -1.989860e-01 -1.866748e-01 -1.729093e-01 -1.589576e-01 -1.435947e-01 -1.281784e-01 
-1.179989e-01 -1.005573e-01 -8.178335e-02 -6.323376e-02 -4.344511e-02 -2.407193e-02 -3.573448e-03 1.629437e-02 3.715101e-02 5.713731e-02 7.795252e-02 9.763545e-02 1.179658e-01 1.368857e-01 1.562553e-01 1.739300e-01 1.918501e-01 2.077993e-01 2.237954e-01 2.375714e-01 2.512165e-01 2.624387e-01 2.733878e-01 2.817754e-01 2.897954e-01 2.951928e-01 3.001822e-01 3.025722e-01 3.045679e-01 3.040703e-01 3.032399e-01 3.000962e-01 2.967183e-01 2.912668e-01 2.857027e-01 2.783475e-01 2.710101e-01 2.621887e-01 2.535117e-01 2.436655e-01 2.340755e-01 2.236239e-01 2.135178e-01 2.028390e-01 1.925668e-01 1.819832e-01 1.718364e-01 1.616069e-01 1.518117e-01 1.421278e-01 1.328434e-01 1.238302e-01 1.151501e-01 1.068698e-01 9.882661e-02 9.128458e-02 8.385636e-02 7.700928e-02 7.012789e-02 6.389267e-02 5.745314e-02 5.171706e-02 4.558795e-02 4.021925e-02 3.425376e-02 2.911240e-02 2.315977e-02 1.810767e-02 1.202441e-02 6.934436e-03 5.944817e-04 -4.642642e-03 -1.133970e-02 -1.681135e-02 -2.393503e-02 -2.970578e-02 -3.729302e-02 -4.340675e-02 -5.146393e-02 -5.794814e-02 -6.645603e-02 -7.332657e-02 -8.224672e-02 -8.951124e-02 -9.879168e-02 -1.064499e-01 -1.160282e-01 -1.240675e-01 -1.338699e-01 -1.422575e-01 -1.521936e-01 -1.608649e-01 -1.708203e-01 -1.796683e-01 -1.894965e-01 -1.983639e-01 -2.078808e-01 -2.165584e-01 -2.255419e-01 -2.337741e-01 -2.419707e-01 -2.494682e-01 -2.566046e-01 -2.630633e-01 -2.688635e-01 -2.739853e-01 -2.781892e-01 -2.817034e-01 -2.840842e-01 -2.857644e-01 -2.861420e-01 -2.858179e-01 -2.840672e-01 -2.816292e-01 -2.776817e-01 -2.730800e-01 -2.669211e-01 -2.601602e-01 -2.518230e-01 -2.429540e-01 -2.325121e-01 -2.216251e-01 -2.091861e-01 -1.964039e-01 -1.821047e-01 -1.675792e-01 -1.515845e-01 -1.354958e-01 