# vtk DataFile Version 2.0
Comment goes here
ASCII

DATASET STRUCTURED_POINTS
FIELD FieldData 1
TIME 1 1 double
0.18000000
DIMENSIONS    128   128   1

ORIGIN    0.000   0.000   0.000
SPACING   0.039062 0.039062   1.000

POINT_DATA   16384
SCALARS uX double
LOOKUP_TABLE default

3.251280e-02 3.871126e-02 4.688489e-02 5.369440e-02 6.219316e-02 6.948734e-02 7.815502e-02 8.577845e-02 9.443361e-02 1.022065e-01 1.106478e-01 1.183719e-01 1.263844e-01 1.338492e-01 1.412119e-01 1.482027e-01 1.546961e-01 1.610017e-01 1.664167e-01 1.718377e-01 1.759838e-01 1.803406e-01 1.830543e-01 1.861947e-01 1.873462e-01 1.891513e-01 1.886507e-01 1.890401e-01 1.868409e-01 1.857754e-01 1.818768e-01 1.793594e-01 1.738060e-01 1.698813e-01 1.627610e-01 1.575120e-01 1.489522e-01 1.424961e-01 1.326585e-01 1.251418e-01 1.142160e-01 1.058080e-01 9.400486e-02 8.489129e-02 7.243652e-02 6.281345e-02 4.994059e-02 4.000845e-02 2.695308e-02 1.691139e-02 3.905769e-03 -6.051375e-03 -1.878301e-02 -2.847068e-02 -4.071607e-02 -4.996162e-02 -6.152387e-02 -7.016940e-02 -8.086992e-02 -8.877442e-02 -9.845556e-02 -1.054968e-01 -1.140242e-01 -1.201004e-01 -1.273656e-01 -1.323975e-01 -1.383195e-01 -1.422522e-01 -1.467802e-01 -1.495849e-01 -1.526996e-01 -1.543757e-01 -1.560908e-01 -1.566669e-01 -1.570295e-01 -1.565646e-01 -1.556548e-01 -1.542376e-01 -1.521669e-01 -1.499145e-01 -1.468225e-01 -1.438770e-01 -1.399268e-01 -1.364501e-01 -1.318219e-01 -1.279896e-01 -1.228727e-01 -1.188651e-01 -1.134495e-01 -1.094431e-01 -1.039097e-01 -1.000669e-01 -9.457826e-02 -9.103828e-02 -8.573039e-02 -8.260094e-02 -7.757587e-02 -7.492661e-02 -7.024786e-02 -6.810653e-02 -6.379668e-02 -6.214788e-02 -5.818910e-02 -5.697612e-02 -5.331335e-02 -5.244273e-02 -4.898931e-02 -4.833772e-02 -4.498290e-02 -4.440572e-02 -4.102337e-02 -4.036426e-02 -3.682223e-02 -3.592293e-02 -3.209222e-02 -3.080194e-02 -2.656519e-02 -2.474907e-02 -2.000806e-02 -1.755434e-02 -1.223604e-02 -9.061720e-03 -3.122939e-03 8.220955e-04 7.391533e-03 1.212191e-02 1.929740e-02 2.479110e-02 
3.235537e-02 3.856831e-02 4.673729e-02 5.356595e-02 6.206540e-02 6.938289e-02 7.805604e-02 8.570625e-02 9.437095e-02 1.021733e-01 1.106273e-01 1.183824e-01 1.264099e-01 1.339063e-01 1.412850e-01 1.483068e-01 1.548163e-01 1.611511e-01 1.665810e-01 1.720282e-01 1.761872e-01 1.805662e-01 1.832897e-01 1.864473e-01 1.876048e-01 1.894215e-01 1.889226e-01 1.893174e-01 1.871155e-01 1.860490e-01 1.821432e-01 1.796184e-01 1.740537e-01 1.701154e-01 1.629801e-01 1.577118e-01 1.491341e-01 1.426537e-01 1.327960e-01 1.252505e-01 1.143033e-01 1.058629e-01 9.403809e-02 8.488940e-02 7.241335e-02 6.275317e-02 4.986032e-02 3.988985e-02 2.681655e-02 1.673604e-02 3.715194e-03 -6.280590e-03 -1.902416e-02 -2.874968e-02 -4.100320e-02 -5.028522e-02 -6.185138e-02 -7.053145e-02 -8.123130e-02 -8.916787e-02 -9.884346e-02 -1.059137e-01 -1.144305e-01 -1.205322e-01 -1.277815e-01 -1.328348e-01 -1.387357e-01 -1.426850e-01 -1.471867e-01 -1.500027e-01 -1.530861e-01 -1.547677e-01 -1.564469e-01 -1.570223e-01 -1.573449e-01 -1.568728e-01 -1.559197e-01 -1.544889e-01 -1.523725e-01 -1.501003e-01 -1.469614e-01 -1.439904e-01 -1.399935e-01 -1.364866e-01 -1.318134e-01 -1.279472e-01 -1.227887e-01 -1.187453e-01 -1.132929e-01 -1.092504e-01 -1.036865e-01 -9.980909e-02 -9.429774e-02 -9.072635e-02 -8.540441e-02 -8.224826e-02 -7.721847e-02 -7.454841e-02 -6.987448e-02 -6.771897e-02 -6.342320e-02 -6.176712e-02 -5.783097e-02 -5.661737e-02 -5.298467e-02 -5.211938e-02 -4.870203e-02 -4.806064e-02 -4.474624e-02 -4.418278e-02 -4.084347e-02 -4.020008e-02 -3.670197e-02 -3.581888e-02 -3.203131e-02 -3.075627e-02 -2.656045e-02 -2.475731e-02 -2.005376e-02 -1.760968e-02 -1.232439e-02 -9.155547e-03 -3.244590e-03 6.996989e-04 7.246970e-03 1.198166e-02 1.914088e-02 2.464403e-02 
3.193377e-02 3.817910e-02 4.641615e-02 5.328885e-02 6.186575e-02 6.923764e-02 7.799605e-02 8.570936e-02 9.446522e-02 1.023373e-01 1.108861e-01 1.187153e-01 1.268384e-01 1.344106e-01 1.418830e-01 1.489795e-01 1.555774e-01 1.619827e-01 1.674929e-01 1.730037e-01 1.772316e-01 1.816647e-01 1.844432e-01 1.876429e-01 1.888395e-01 1.906849e-01 1.902074e-01 1.906165e-01 1.884177e-01 1.873506e-01 1.834297e-01 1.808902e-01 1.752928e-01 1.713266e-01 1.641426e-01 1.588348e-01 1.501942e-01 1.436649e-01 1.337324e-01 1.261311e-01 1.150996e-01 1.065987e-01 9.468270e-02 8.547102e-02 7.289936e-02 6.317598e-02 5.018521e-02 4.015319e-02 2.698159e-02 1.684272e-02 3.724865e-03 -6.324852e-03 -1.916273e-02 -2.893684e-02 -4.128077e-02 -5.060535e-02 -6.225698e-02 -7.097308e-02 -8.175251e-02 -8.971818e-02 -9.946654e-02 -1.065586e-01 -1.151404e-01 -1.212563e-01 -1.285619e-01 -1.336213e-01 -1.395688e-01 -1.435158e-01 -1.480535e-01 -1.508585e-01 -1.539665e-01 -1.556282e-01 -1.573198e-01 -1.578665e-01 -1.581891e-01 -1.576797e-01 -1.567143e-01 -1.552386e-01 -1.530981e-01 -1.507747e-01 -1.476013e-01 -1.445747e-01 -1.405345e-01 -1.369702e-01 -1.322473e-01 -1.283246e-01 -1.231129e-01 -1.190171e-01 -1.135110e-01 -1.094233e-01 -1.038086e-01 -9.989607e-02 -9.433950e-02 -9.074562e-02 -8.538662e-02 -8.222224e-02 -7.716537e-02 -7.450217e-02 -6.981205e-02 -6.767832e-02 -6.337732e-02 -6.175677e-02 -5.782544e-02 -5.665909e-02 -5.303958e-02 -5.223053e-02 -4.883242e-02 -4.825305e-02 -4.496120e-02 -4.446211e-02 -4.114576e-02 -4.056572e-02 -3.708811e-02 -3.626415e-02 -3.249202e-02 -3.126912e-02 -2.708141e-02 -2.532113e-02 -2.061657e-02 -1.820431e-02 -1.290754e-02 -9.758245e-03 -3.824495e-03 1.132463e-04 6.695035e-03 1.143645e-02 1.864190e-02 2.416488e-02 
3.118657e-02 3.749357e-02 4.578979e-02 5.274536e-02 6.140163e-02 6.887523e-02 7.773058e-02 8.556140e-02 9.442834e-02 1.024300e-01 1.111000e-01 1.190665e-01 1.273162e-01 1.350286e-01 1.426278e-01 1.498621e-01 1.565818e-01 1.631172e-01 1.687386e-01 1.743665e-01 1.786900e-01 1.832223e-01 1.860762e-01 1.893533e-01 1.906014e-01 1.924990e-01 1.920468e-01 1.924811e-01 1.902799e-01 1.892103e-01 1.852596e-01 1.826902e-01 1.770370e-01 1.730153e-01 1.657519e-01 1.603656e-01 1.516254e-01 1.449978e-01 1.349495e-01 1.272339e-01 1.160746e-01 1.074475e-01 9.539609e-02 8.605036e-02 7.333971e-02 6.347813e-02 5.034873e-02 4.017777e-02 2.687133e-02 1.659580e-02 3.349899e-03 -6.831654e-03 -1.978821e-02 -2.968717e-02 -4.213823e-02 -5.157886e-02 -6.332415e-02 -7.214590e-02 -8.300386e-02 -9.106330e-02 -1.008736e-01 -1.080461e-01 -1.166718e-01 -1.228534e-01 -1.301836e-01 -1.352924e-01 -1.412442e-01 -1.452227e-01 -1.497436e-01 -1.525608e-01 -1.556304e-01 -1.572836e-01 -1.589153e-01 -1.594320e-01 -1.596739e-01 -1.591130e-01 -1.580476e-01 -1.564996e-01 -1.542425e-01 -1.518276e-01 -1.485245e-01 -1.453905e-01 -1.412121e-01 -1.375285e-01 -1.326644e-01 -1.286162e-01 -1.232662e-01 -1.190447e-01 -1.134099e-01 -1.092030e-01 -1.034751e-01 -9.945669e-02 -9.380837e-02 -9.012767e-02 -8.470288e-02 -8.147570e-02 -7.638210e-02 -7.368339e-02 -6.898699e-02 -6.684643e-02 -6.256907e-02 -6.096974e-02 -5.708960e-02 -5.596997e-02 -5.242520e-02 -5.168414e-02 -4.837904e-02 -4.788345e-02 -4.469674e-02 -4.429096e-02 -4.108539e-02 -4.060166e-02 -3.723403e-02 -3.650305e-02 -3.283414e-02 -3.169513e-02 -2.759863e-02 -2.590824e-02 -2.127857e-02 -1.891824e-02 -1.367673e-02 -1.055852e-02 -4.658099e-03 -7.287185e-04 5.843022e-03 1.059969e-02 1.781882e-02 2.338068e-02 
3.016284e-02 3.655003e-02 4.497891e-02 5.204300e-02 6.085639e-02 6.846377e-02 7.749705e-02 8.548288e-02 9.454397e-02 1.027170e-01 1.115918e-01 1.197402e-01 1.281991e-01 1.360976e-01 1.439033e-01 1.513207e-01 1.582366e-01 1.649451e-01 1.707450e-01 1.765289e-01 1.810058e-01 1.856705e-01 1.886464e-01 1.920268e-01 1.933604e-01 1.953280e-01 1.949212e-01 1.953895e-01 1.931920e-01 1.921199e-01 1.881310e-01 1.855235e-01 1.797922e-01 1.756993e-01 1.683216e-01 1.628350e-01 1.539488e-01 1.471968e-01 1.369763e-01 1.291177e-01 1.177663e-01 1.089832e-01 9.672541e-02 8.721643e-02 7.429108e-02 6.426411e-02 5.091693e-02 4.058300e-02 2.706035e-02 1.662806e-02 3.171502e-03 -7.157489e-03 -2.031580e-02 -3.035047e-02 -4.299154e-02 -5.255426e-02 -6.447537e-02 -7.340413e-02 -8.442150e-02 -9.257157e-02 -1.025228e-01 -1.097683e-01 -1.185144e-01 -1.247501e-01 -1.321781e-01 -1.373208e-01 -1.433458e-01 -1.473367e-01 -1.519042e-01 -1.547108e-01 -1.577989e-01 -1.594177e-01 -1.610387e-01 -1.614968e-01 -1.616986e-01 -1.610552e-01 -1.599213e-01 -1.582684e-01 -1.559163e-01 -1.533774e-01 -1.499564e-01 -1.466833e-01 -1.423692e-01 -1.385377e-01 -1.335263e-01 -1.293283e-01 -1.238271e-01 -1.194619e-01 -1.136798e-01 -1.093435e-01 -1.034804e-01 -9.935481e-02 -9.359080e-02 -8.983199e-02 -8.431722e-02 -8.104609e-02 -7.589262e-02 -7.318700e-02 -6.846303e-02 -6.635300e-02 -6.208012e-02 -6.054661e-02 -5.670044e-02 -5.567742e-02 -5.219142e-02 -5.157137e-02 -4.834354e-02 -4.798561e-02 -4.488733e-02 -4.462742e-02 -4.151365e-02 -4.117547e-02 -3.789540e-02 -3.730165e-02 -3.370902e-02 -3.269181e-02 -2.865428e-02 -2.706433e-02 -2.247142e-02 -2.018560e-02 -1.495500e-02 -1.188209e-02 -5.964304e-03 -2.049028e-03 4.569598e-03 9.344176e-03 1.663990e-02 2.225143e-02 
2.878093e-02 3.527860e-02 4.383239e-02 5.104540e-02 6.001954e-02 6.781009e-02 7.703514e-02 8.523295e-02 9.451076e-02 1.029179e-01 1.120270e-01 1.204238e-01 1.291262e-01 1.372785e-01 1.453273e-01 1.529947e-01 1.601436e-01 1.670882e-01 1.731007e-01 1.790973e-01 1.837572e-01 1.886023e-01 1.917228e-01 1.952438e-01 1.966770e-01 1.987396e-01 1.983826e-01 1.988968e-01 1.966971e-01 1.956204e-01 1.915778e-01 1.889163e-01 1.830823e-01 1.788893e-01 1.713644e-01 1.657366e-01 1.566652e-01 1.497372e-01 1.393009e-01 1.312386e-01 1.196485e-01 1.106415e-01 9.813037e-02 8.838464e-02 7.519875e-02 6.492905e-02 5.132114e-02 4.074466e-02 2.696726e-02 1.629789e-02 2.597879e-03 -7.958310e-03 -2.134427e-02 -3.159263e-02 -4.444171e-02 -5.420167e-02 -6.630787e-02 -7.541485e-02 -8.659148e-02 -9.489848e-02 -1.049804e-01 -1.123593e-01 -1.212051e-01 -1.275482e-01 -1.350424e-01 -1.402641e-01 -1.463197e-01 -1.503585e-01 -1.549191e-01 -1.577400e-01 -1.607825e-01 -1.623797e-01 -1.639160e-01 -1.643151e-01 -1.643939e-01 -1.636539e-01 -1.623608e-01 -1.605750e-01 -1.580318e-01 -1.553268e-01 -1.516887e-01 -1.482220e-01 -1.436727e-01 -1.396276e-01 -1.343726e-01 -1.299511e-01 -1.242087e-01 -1.196212e-01 -1.136121e-01 -1.090670e-01 -1.030025e-01 -9.869355e-02 -9.276420e-02 -8.885830e-02 -8.322286e-02 -7.984954e-02 -7.462598e-02 -7.186876e-02 -6.712793e-02 -6.501902e-02 -6.078171e-02 -5.930046e-02 -5.553804e-02 -5.461328e-02 -5.125199e-02 -5.076805e-02 -4.769631e-02 -4.750197e-02 -4.458006e-02 -4.449956e-02 -4.157072e-02 -4.141577e-02 -3.831770e-02 -3.789948e-02 -3.447533e-02 -3.361561e-02 -2.972386e-02 -2.826465e-02 -2.378736e-02 -2.159865e-02 -1.644787e-02 -1.343350e-02 -7.555885e-03 -3.657483e-03 2.962777e-03 7.763559e-03 1.510331e-02 2.078397e-02 
2.709741e-02 3.372524e-02 4.247898e-02 4.986811e-02 5.908269e-02 6.709040e-02 7.659065e-02 8.504028e-02 9.462077e-02 1.033065e-01 1.127370e-01 1.214300e-01 1.304621e-01 1.389178e-01 1.472933e-01 1.552596e-01 1.627200e-01 1.699474e-01 1.762438e-01 1.824953e-01 1.873994e-01 1.924608e-01 1.957756e-01 1.994650e-01 2.010338e-01 2.032101e-01 2.029244e-01 2.034933e-01 2.012974e-01 2.002152e-01 1.961094e-01 1.933839e-01 1.874229e-01 1.831117e-01 1.754020e-01 1.696083e-01 1.603022e-01 1.531688e-01 1.424570e-01 1.341588e-01 1.222624e-01 1.129986e-01 1.001601e-01 9.014563e-02 7.662068e-02 6.607884e-02 5.212865e-02 4.128391e-02 2.716841e-02 1.624079e-02 2.213090e-03 -8.586473e-03 -2.228448e-02 -3.275756e-02 -4.589871e-02 -5.586182e-02 -6.823640e-02 -7.752267e-02 -8.894064e-02 -9.740103e-02 -1.076941e-01 -1.151985e-01 -1.242221e-01 -1.306608e-01 -1.382962e-01 -1.435811e-01 -1.497382e-01 -1.538052e-01 -1.584246e-01 -1.612365e-01 -1.642924e-01 -1.658412e-01 -1.673440e-01 -1.676541e-01 -1.676520e-01 -1.667826e-01 -1.653626e-01 -1.634091e-01 -1.606965e-01 -1.577900e-01 -1.539457e-01 -1.502506e-01 -1.454669e-01 -1.411762e-01 -1.356691e-01 -1.309963e-01 -1.249966e-01 -1.201658e-01 -1.139077e-01 -1.091412e-01 -1.028497e-01 -9.835463e-02 -9.223291e-02 -8.818816e-02 -8.240544e-02 -7.894951e-02 -7.363114e-02 -7.085282e-02 -6.607325e-02 -6.400575e-02 -5.978524e-02 -5.840456e-02 -5.470991e-02 -5.393753e-02 -5.068687e-02 -5.039645e-02 -4.746735e-02 -4.749475e-02 -4.473491e-02 -4.489026e-02 -4.212970e-02 -4.221053e-02 -3.927406e-02 -3.907827e-02 -3.579727e-02 -3.513493e-02 -3.135785e-02 -3.006127e-02 -2.566213e-02 -2.359388e-02 -1.847878e-02 -1.553745e-02 -9.649154e-03 -5.773225e-03 9.061129e-04 5.736249e-03 1.318379e-02 1.894520e-02 
2.500011e-02 3.179014e-02 4.073805e-02 4.834636e-02 5.780786e-02 6.608565e-02 7.587864e-02 8.464138e-02 9.455155e-02 1.035838e-01 1.133701e-01 1.224315e-01 1.318332e-01 1.406661e-01 1.494109e-01 1.577492e-01 1.655636e-01 1.731429e-01 1.797629e-01 1.863317e-01 1.915144e-01 1.968450e-01 2.003804e-01 2.042794e-01 2.060005e-01 2.083181e-01 2.081091e-01 2.087456e-01 2.065477e-01 2.054577e-01 2.012715e-01 1.984647e-01 1.923494e-01 1.878885e-01 1.799576e-01 1.739537e-01 1.643694e-01 1.569751e-01 1.459395e-01 1.373407e-01 1.250869e-01 1.154941e-01 1.022766e-01 9.191586e-02 7.800181e-02 6.710656e-02 5.276734e-02 4.157113e-02 2.707562e-02 1.580607e-02 1.414982e-03 -9.710776e-03 -2.374923e-02 -3.452785e-02 -4.798122e-02 -5.822529e-02 -7.087933e-02 -8.041873e-02 -9.207937e-02 -1.007621e-01 -1.112573e-01 -1.189504e-01 -1.281318e-01 -1.347222e-01 -1.424677e-01 -1.478637e-01 -1.540796e-01 -1.582135e-01 -1.628372e-01 -1.656676e-01 -1.686712e-01 -1.701867e-01 -1.715793e-01 -1.718017e-01 -1.716320e-01 -1.706196e-01 -1.689773e-01 -1.668270e-01 -1.638428e-01 -1.606900e-01 -1.565334e-01 -1.525507e-01 -1.474251e-01 -1.428168e-01 -1.369527e-01 -1.319470e-01 -1.255916e-01 -1.204299e-01 -1.138350e-01 -1.087580e-01 -1.021663e-01 -9.739964e-02 -9.103041e-02 -8.676961e-02 -8.080544e-02 -7.720225e-02 -7.177773e-02 -6.892957e-02 -6.412338e-02 -6.206654e-02 -5.789773e-02 -5.660546e-02 -5.303436e-02 -5.241991e-02 -4.935350e-02 -4.927767e-02 -4.657880e-02 -4.686126e-02 -4.436071e-02 -4.479356e-02 -4.230358e-02 -4.266604e-02 -3.999416e-02 -4.006676e-02 -3.702868e-02 -3.660611e-02 -3.303685e-02 -3.193870e-02 -2.770154e-02 -2.578052e-02 -2.077362e-02 -1.792140e-02 -1.208224e-02 -8.233085e-03 -1.541004e-03 3.326437e-03 1.084920e-02 1.671157e-02 
2.256269e-02 2.953632e-02 3.875572e-02 4.661264e-02 5.640366e-02 6.498837e-02 7.516111e-02 8.428033e-02 9.461055e-02 1.040380e-01 1.142724e-01 1.237548e-01 1.336183e-01 1.428830e-01 1.520872e-01 1.608520e-01 1.691056e-01 1.770890e-01 1.841101e-01 1.910435e-01 1.965720e-01 2.022119e-01 2.060222e-01 2.101619e-01 2.120745e-01 2.145538e-01 2.144445e-01 2.151577e-01 2.129636e-01 2.118635e-01 2.075858e-01 2.046847e-01 1.983876e-01 1.937548e-01 1.855610e-01 1.793172e-01 1.694004e-01 1.617104e-01 1.502862e-01 1.413493e-01 1.286651e-01 1.187054e-01 1.050302e-01 9.428690e-02 7.990092e-02 6.861944e-02 5.380602e-02 4.223016e-02 2.726836e-02 1.563415e-02 7.931202e-04 -1.067575e-02 -2.514093e-02 -3.623620e-02 -5.008744e-02 -6.061805e-02 -7.363640e-02 -8.342939e-02 -9.541652e-02 -1.043174e-01 -1.150972e-01 -1.229704e-01 -1.323903e-01 -1.391199e-01 -1.470533e-01 -1.525443e-01 -1.588930e-01 -1.630736e-01 -1.677708e-01 -1.705958e-01 -1.736095e-01 -1.750637e-01 -1.764004e-01 -1.765033e-01 -1.762105e-01 -1.750198e-01 -1.731888e-01 -1.708035e-01 -1.675696e-01 -1.641309e-01 -1.596715e-01 -1.553614e-01 -1.498921e-01 -1.449285e-01 -1.386950e-01 -1.333233e-01 -1.265910e-01 -1.210723e-01 -1.141131e-01 -1.087090e-01 -1.017859e-01 -9.674248e-02 -9.009369e-02 -8.562431e-02 -7.944814e-02 -7.571841e-02 -7.016053e-02 -6.727604e-02 -6.242047e-02 -6.041924e-02 -5.628411e-02 -5.513450e-02 -5.167310e-02 -5.127739e-02 -4.838433e-02 -4.858744e-02 -4.610915e-02 -4.671149e-02 -4.445988e-02 -4.523271e-02 -4.300035e-02 -4.370210e-02 -4.127758e-02 -4.166949e-02 -3.885147e-02 -3.871149e-02 -3.532063e-02 -3.445473e-02 -3.034302e-02 -2.859362e-02 -2.365106e-02 -2.090276e-02 -1.506159e-02 -1.124454e-02 -4.481483e-03 4.271999e-04 8.090218e-03 1.406641e-02 
1.963096e-02 2.682276e-02 3.631071e-02 4.446313e-02 5.459421e-02 6.354380e-02 7.411908e-02 8.366226e-02 9.444589e-02 1.043435e-01 1.150680e-01 1.250516e-01 1.354250e-01 1.452044e-01 1.549190e-01 1.641925e-01 1.729365e-01 1.814021e-01 1.888722e-01 1.962410e-01 2.021567e-01 2.081661e-01 2.122835e-01 2.167105e-01 2.188352e-01 2.215075e-01 2.215052e-01 2.223096e-01 2.201128e-01 2.189999e-01 2.146111e-01 2.115962e-01 2.050857e-01 2.002457e-01 1.917469e-01 1.852142e-01 1.749148e-01 1.668681e-01 1.550001e-01 1.456542e-01 1.324819e-01 1.220769e-01 1.078859e-01 9.667642e-02 8.176249e-02 7.000787e-02 5.466816e-02 4.262425e-02 2.714959e-02 1.506237e-02 -2.683461e-04 -1.216737e-02 -2.709113e-02 -3.858773e-02 -5.285996e-02 -6.375854e-02 -7.715478e-02 -8.727878e-02 -9.959581e-02 -1.087875e-01 -1.198444e-01 -1.279648e-01 -1.376044e-01 -1.445336e-01 -1.526243e-01 -1.582626e-01 -1.647013e-01 -1.689716e-01 -1.736869e-01 -1.765382e-01 -1.794941e-01 -1.809059e-01 -1.821063e-01 -1.820937e-01 -1.815860e-01 -1.802044e-01 -1.780826e-01 -1.754320e-01 -1.718377e-01 -1.680647e-01 -1.631862e-01 -1.584831e-01 -1.525510e-01 -1.471510e-01 -1.404308e-01 -1.345997e-01 -1.273795e-01 -1.214025e-01 -1.139792e-01 -1.081446e-01 -1.008062e-01 -9.538630e-02 -8.839449e-02 -8.362678e-02 -7.719915e-02 -7.326845e-02 -6.756413e-02 -6.458844e-02 -5.969767e-02 -5.771933e-02 -5.365854e-02 -5.264169e-02 -4.935477e-02 -4.918948e-02 -4.655491e-02 -4.706724e-02 -4.491028e-02 -4.587712e-02 -4.398544e-02 -4.515220e-02 -4.329329e-02 -4.439238e-02 -4.233074e-02 -4.309923e-02 -4.061195e-02 -4.080677e-02 -3.769645e-02 -3.710650e-02 -3.321104e-02 -3.166591e-02 -2.686516e-02 -2.424074e-02 -1.846046e-02 -1.468183e-02 -7.895504e-03 -2.937971e-03 4.832900e-03 1.094429e-02 
1.630615e-02 2.373976e-02 3.357647e-02 4.205673e-02 5.261420e-02 6.196922e-02 7.303880e-02 8.305395e-02 9.438720e-02 1.048095e-01 1.161233e-01 1.266674e-01 1.376509e-01 1.480072e-01 1.583311e-01 1.681759e-01 1.775047e-01 1.865127e-01 1.945186e-01 2.023775e-01 2.087559e-01 2.151812e-01 2.196667e-01 2.244166e-01 2.267974e-01 2.296855e-01 2.298155e-01 2.307202e-01 2.285265e-01 2.273962e-01 2.228825e-01 2.197365e-01 2.129807e-01 2.079054e-01 1.990536e-01 1.921951e-01 1.814517e-01 1.730057e-01 1.606215e-01 1.508216e-01 1.370808e-01 1.261857e-01 1.113932e-01 9.967536e-02 8.414474e-02 7.187948e-02 5.592345e-02 4.338004e-02 2.730243e-02 1.473754e-02 -1.172285e-03 -1.351913e-02 -2.898992e-02 -4.089880e-02 -5.567948e-02 -6.695087e-02 -8.081162e-02 -9.126605e-02 -1.039988e-01 -1.134760e-01 -1.248951e-01 -1.332533e-01 -1.431964e-01 -1.503120e-01 -1.586420e-01 -1.644107e-01 -1.710182e-01 -1.753576e-01 -1.801650e-01 -1.830180e-01 -1.859835e-01 -1.873238e-01 -1.884468e-01 -1.882848e-01 -1.876104e-01 -1.859994e-01 -1.836225e-01 -1.806641e-01 -1.767315e-01 -1.725787e-01 -1.672889e-01 -1.621460e-01 -1.557454e-01 -1.498636e-01 -1.426382e-01 -1.363067e-01 -1.285699e-01 -1.221014e-01 -1.141781e-01 -1.078903e-01 -1.000973e-01 -9.429180e-02 -8.691750e-02 -8.185765e-02 -7.514220e-02 -7.103281e-02 -6.515123e-02 -6.212223e-02 -5.717235e-02 -5.526867e-02 -5.126547e-02 -5.044430e-02 -4.732137e-02 -4.745704e-02 -4.507495e-02 -4.597084e-02 -4.413125e-02 -4.553695e-02 -4.400071e-02 -4.563231e-02 -4.413928e-02 -4.570041e-02 -4.398890e-02 -4.519032e-02 -4.301429e-02 -4.359053e-02 -4.073357e-02 -4.045575e-02 -3.674118e-02 -3.542587e-02 -3.072334e-02 -2.823780e-02 -2.246678e-02 -1.873138e-02 -1.186245e-02 -6.851026e-03 1.094366e-03 7.355473e-03 
1.237887e-02 2.009230e-02 3.027861e-02 3.913864e-02 5.013838e-02 5.996340e-02 7.155694e-02 8.211969e-02 9.404434e-02 1.050760e-01 1.170308e-01 1.282267e-01 1.398793e-01 1.509071e-01 1.619034e-01 1.724140e-01 1.823909e-01 1.920318e-01 2.006329e-01 2.090641e-01 2.159568e-01 2.228681e-01 2.277617e-01 2.328891e-01 2.355517e-01 2.386920e-01 2.389637e-01 2.399854e-01 2.377875e-01 2.366364e-01 2.319744e-01 2.286745e-01 2.216354e-01 2.162842e-01 2.070294e-01 1.997891e-01 1.885427e-01 1.796285e-01 1.666635e-01 1.563303e-01 1.419538e-01 1.304819e-01 1.150211e-01 1.027033e-01 8.649206e-02 7.362184e-02 5.699043e-02 4.385244e-02 2.711931e-02 1.398246e-02 -2.551341e-03 -1.543831e-02 -3.149236e-02 -4.390294e-02 -5.921891e-02 -7.094895e-02 -8.529102e-02 -9.615762e-02 -1.093123e-01 -1.191521e-01 -1.309283e-01 -1.395961e-01 -1.498257e-01 -1.571934e-01 -1.657329e-01 -1.716905e-01 -1.784240e-01 -1.828817e-01 -1.877247e-01 -1.906174e-01 -1.935221e-01 -1.948152e-01 -1.957764e-01 -1.954732e-01 -1.945340e-01 -1.926832e-01 -1.899404e-01 -1.866431e-01 -1.822507e-01 -1.776652e-01 -1.718344e-01 -1.661773e-01 -1.591738e-01 -1.527163e-01 -1.448516e-01 -1.379099e-01 -1.295281e-01 -1.224476e-01 -1.139076e-01 -1.070427e-01 -9.869613e-02 -9.238522e-02 -8.455304e-02 -7.909333e-02 -7.204295e-02 -6.766638e-02 -6.159188e-02 -5.844594e-02 -5.345397e-02 -5.158958e-02 -4.769275e-02 -4.706087e-02 -4.417946e-02 -4.463686e-02 -4.260868e-02 -4.393187e-02 -4.252888e-02 -4.443434e-02 -4.338378e-02 -4.555165e-02 -4.455899e-02 -4.665736e-02 -4.542849e-02 -4.713570e-02 -4.539622e-02 -4.641930e-02 -4.392966e-02 -4.401810e-02 -4.058415e-02 -3.953887e-02 -3.501819e-02 -3.269631e-02 -2.700112e-02 -2.331762e-02 -1.641528e-02 -1.134252e-02 -3.254563e-03 3.179370e-03 
7.989902e-03 1.600941e-02 2.662890e-02 3.590445e-02 4.743719e-02 5.777721e-02 6.999217e-02 8.115629e-02 9.377584e-02 1.054784e-01 1.181825e-01 1.300982e-01 1.425308e-01 1.543024e-01 1.660817e-01 1.773317e-01 1.880637e-01 1.984087e-01 2.077041e-01 2.167729e-01 2.242667e-01 2.317192e-01 2.370915e-01 2.426383e-01 2.456333e-01 2.490519e-01 2.494940e-01 2.506417e-01 2.484450e-01 2.472652e-01 2.424375e-01 2.389601e-01 2.315994e-01 2.259355e-01 2.162211e-01 2.085521e-01 1.967312e-01 1.872957e-01 1.736671e-01 1.627451e-01 1.476426e-01 1.355395e-01 1.193156e-01 1.063477e-01 8.935939e-02 7.584063e-02 5.843772e-02 4.466966e-02 2.718638e-02 1.345080e-02 -3.799584e-03 -1.724483e-02 -3.397279e-02 -4.689529e-02 -6.283571e-02 -7.502776e-02 -8.993942e-02 -1.012159e-01 -1.148804e-01 -1.250760e-01 -1.372972e-01 -1.462640e-01 -1.568679e-01 -1.644738e-01 -1.733100e-01 -1.794392e-01 -1.863836e-01 -1.909388e-01 -1.958985e-01 -1.988058e-01 -2.017243e-01 -2.029400e-01 -2.038049e-01 -2.033244e-01 -2.021742e-01 -2.000412e-01 -1.969719e-01 -1.932874e-01 -1.884580e-01 -1.833867e-01 -1.770206e-01 -1.707933e-01 -1.631756e-01 -1.560864e-01 -1.475557e-01 -1.399515e-01 -1.308856e-01 -1.231494e-01 -1.139451e-01 -1.064718e-01 -9.752037e-02 -9.068917e-02 -8.234901e-02 -7.649359e-02 -6.906366e-02 -6.444428e-02 -5.814100e-02 -5.492211e-02 -4.986277e-02 -4.809901e-02 -4.429396e-02 -4.392642e-02 -4.128121e-02 -4.214443e-02 -4.047142e-02 -4.231005e-02 -4.134804e-02 -4.384057e-02 -4.327952e-02 -4.606587e-02 -4.557350e-02 -4.828289e-02 -4.753000e-02 -4.980606e-02 -4.848803e-02 -5.000907e-02 -4.786225e-02 -4.835572e-02 -4.516822e-02 -4.441955e-02 -4.003716e-02 -3.789386e-02 -3.222205e-02 -2.859436e-02 -2.159780e-02 -1.645717e-02 -8.157957e-03 -1.534667e-03 
2.859366e-03 1.122741e-02 2.228570e-02 3.203500e-02 4.412324e-02 5.505101e-02 6.792565e-02 7.977686e-02 9.314367e-02 1.056140e-01 1.191316e-01 1.318722e-01 1.451581e-01 1.577837e-01 1.704247e-01 1.825250e-01 1.940915e-01 2.052476e-01 2.153122e-01 2.251162e-01 2.332765e-01 2.413538e-01 2.472557e-01 2.532866e-01 2.566470e-01 2.603868e-01 2.610115e-01 2.623044e-01 2.601000e-01 2.588867e-01 2.538643e-01 2.501819e-01 2.424529e-01 2.364281e-01 2.261931e-01 2.180299e-01 2.055632e-01 1.955268e-01 1.811573e-01 1.695562e-01 1.536483e-01 1.408164e-01 1.237515e-01 1.100315e-01 9.219225e-02 7.792129e-02 5.967927e-02 4.517777e-02 2.688456e-02 1.244878e-02 -5.569115e-03 -1.967114e-02 -3.711436e-02 -5.064362e-02 -6.723973e-02 -7.998460e-02 -9.548649e-02 -1.072594e-01 -1.214434e-01 -1.320770e-01 -1.447410e-01 -1.540844e-01 -1.650479e-01 -1.729644e-01 -1.820691e-01 -1.884358e-01 -1.955490e-01 -2.002593e-01 -2.052783e-01 -2.082469e-01 -2.111064e-01 -2.122774e-01 -2.129569e-01 -2.123141e-01 -2.108473e-01 -2.084259e-01 -2.049090e-01 -2.008065e-01 -1.954049e-01 -1.897902e-01 -1.827418e-01 -1.758597e-01 -1.674733e-01 -1.596422e-01 -1.502888e-01 -1.418907e-01 -1.319886e-01 -1.234503e-01 -1.134419e-01 -1.052080e-01 -9.553197e-02 -8.803261e-02 -7.909245e-02 -7.270842e-02 -6.484101e-02 -5.987064e-02 -5.331911e-02 -4.995150e-02 -4.484557e-02 -4.314362e-02 -3.949030e-02 -3.938608e-02 -3.707217e-02 -3.837520e-02 -3.718121e-02 -3.959826e-02 -3.922171e-02 -4.238515e-02 -4.246985e-02 -4.597028e-02 -4.613755e-02 -4.955643e-02 -4.943426e-02 -5.237274e-02 -5.162013e-02 -5.372164e-02 -5.204632e-02 -5.301198e-02 -5.018145e-02 -4.977867e-02 -4.562537e-02 -4.369087e-02 -3.811302e-02 -3.455212e-02 -2.751188e-02 -2.229566e-02 -1.381623e-02 -6.977981e-03 
-2.818526e-03 5.927149e-03 1.751140e-02 2.777390e-02 4.051313e-02 5.207860e-02 6.571682e-02 7.831555e-02 9.254168e-02 1.058501e-01 1.203004e-01 1.339448e-01 1.482085e-01 1.617731e-01 1.754021e-01 1.884405e-01 2.009652e-01 2.130186e-01 2.239685e-01 2.345871e-01 2.435164e-01 2.522858e-01 2.588006e-01 2.653666e-01 2.691518e-01 2.732437e-01 2.740836e-01 2.755310e-01 2.733234e-01 2.720641e-01 2.668243e-01 2.629046e-01 2.547596e-01 2.483254e-01 2.375011e-01 2.287831e-01 2.155855e-01 2.048805e-01 1.896734e-01 1.773236e-01 1.605065e-01 1.468789e-01 1.288663e-01 1.143339e-01 9.553759e-02 8.046329e-02 6.127869e-02 4.600356e-02 2.680075e-02 1.163597e-02 -7.245165e-03 -2.202191e-02 -4.027281e-02 -5.441728e-02 -7.175930e-02 -8.505771e-02 -1.012392e-01 -1.135035e-01 -1.282966e-01 -1.393589e-01 -1.525568e-01 -1.622645e-01 -1.736801e-01 -1.818925e-01 -1.913593e-01 -1.979464e-01 -2.053214e-01 -2.101665e-01 -2.153353e-01 -2.183405e-01 -2.212253e-01 -2.223211e-01 -2.228900e-01 -2.220473e-01 -2.203255e-01 -2.175695e-01 -2.136496e-01 -2.090742e-01 -2.031252e-01 -1.969042e-01 -1.891770e-01 -1.815713e-01 -1.723981e-01 -1.637544e-01 -1.535407e-01 -1.442809e-01 -1.334890e-01 -1.240898e-01 -1.132132e-01 -1.041749e-01 -9.370645e-02 -8.551557e-02 -7.591035e-02 -6.899864e-02 -6.063760e-02 -5.534323e-02 -4.850077e-02 -4.503677e-02 -3.985744e-02 -3.829188e-02 -3.477932e-02 -3.503022e-02 -3.305017e-02 -3.489568e-02 -3.419271e-02 -3.729497e-02 -3.752025e-02 -4.145910e-02 -4.220508e-02 -4.651640e-02 -4.735338e-02 -5.156690e-02 -5.207664e-02 -5.574861e-02 -5.555161e-02 -5.828962e-02 -5.706420e-02 -5.854319e-02 -5.603641e-02 -5.600660e-02 -5.203835e-02 -5.032685e-02 -4.478908e-02 -4.129743e-02 -3.415073e-02 -2.885048e-02 -2.011978e-02 -1.304773e-02 
-9.411810e-03 -2.404770e-04 1.188108e-02 2.272257e-02 3.614314e-02 4.842876e-02 6.287896e-02 7.632306e-02 9.147362e-02 1.057315e-01 1.211944e-01 1.358652e-01 1.511980e-01 1.658315e-01 1.805472e-01 1.946561e-01 2.082394e-01 2.213187e-01 2.332494e-01 2.448011e-01 2.545832e-01 2.641459e-01 2.713394e-01 2.785188e-01 2.827711e-01 2.872663e-01 2.883373e-01 2.899609e-01 2.877389e-01 2.864262e-01 2.809320e-01 2.767403e-01 2.681204e-01 2.612180e-01 2.497285e-01 2.403772e-01 2.263610e-01 2.148936e-01 1.987550e-01 1.855519e-01 1.677306e-01 1.531958e-01 1.341435e-01 1.186838e-01 9.884447e-02 8.285173e-02 6.264685e-02 4.648489e-02 2.630439e-02 1.030085e-02 -9.501248e-03 -2.505811e-02 -4.416372e-02 -5.902404e-02 -7.714813e-02 -9.109607e-02 -1.079822e-01 -1.208295e-01 -1.362453e-01 -1.478241e-01 -1.615572e-01 -1.717133e-01 -1.835695e-01 -1.921579e-01 -2.019613e-01 -2.088440e-01 -2.164401e-01 -2.214884e-01 -2.267498e-01 -2.298501e-01 -2.326854e-01 -2.337505e-01 -2.341153e-01 -2.330979e-01 -2.310080e-01 -2.279184e-01 -2.234626e-01 -2.183858e-01 -2.117377e-01 -2.048489e-01 -1.962747e-01 -1.878488e-01 -1.777087e-01 -1.681217e-01 -1.568618e-01 -1.465805e-01 -1.347155e-01 -1.242743e-01 -1.123587e-01 -1.023253e-01 -9.091625e-02 -8.184724e-02 -7.146197e-02 -6.385473e-02 -5.492692e-02 -4.917302e-02 -4.201456e-02 -3.836168e-02 -3.313462e-02 -3.166230e-02 -2.836556e-02 -2.897874e-02 -2.745167e-02 -2.989280e-02 -2.983523e-02 -3.371305e-02 -3.471875e-02 -3.954886e-02 -4.114702e-02 -4.639790e-02 -4.809647e-02 -5.323411e-02 -5.455895e-02 -5.908474e-02 -5.961052e-02 -6.308888e-02 -6.245964e-02 -6.453474e-02 -6.247451e-02 -6.287718e-02 -5.919243e-02 -5.773973e-02 -5.231647e-02 -4.890690e-02 -4.170505e-02 -3.631191e-02 -2.735930e-02 -2.002436e-02 
-1.665645e-02 -7.027649e-03 5.721776e-03 1.718521e-02 3.138727e-02 4.444800e-02 5.982083e-02 7.417792e-02 9.037458e-02 1.056624e-01 1.222701e-01 1.380594e-01 1.546023e-01 1.704061e-01 1.863547e-01 2.016407e-01 2.164287e-01 2.306400e-01 2.436904e-01 2.562738e-01 2.670323e-01 2.774726e-01 2.854456e-01 2.933015e-01 2.980924e-01 3.030282e-01 3.043683e-01 3.061772e-01 3.039437e-01 3.025588e-01 2.967794e-01 2.922716e-01 2.831161e-01 2.756808e-01 2.634406e-01 2.533766e-01 2.384382e-01 2.261212e-01 2.089357e-01 1.947909e-01 1.758443e-01 1.603188e-01 1.401053e-01 1.236448e-01 1.026444e-01 8.567286e-02 6.433575e-02 4.724159e-02 2.597849e-02 9.105940e-03 -1.171538e-02 -2.806881e-02 -4.812218e-02 -6.370327e-02 -8.269940e-02 -9.729308e-02 -1.149732e-01 -1.283938e-01 -1.445231e-01 -1.566053e-01 -1.709676e-01 -1.815575e-01 -1.939522e-01 -2.029012e-01 -2.131427e-01 -2.203046e-01 -2.282253e-01 -2.334582e-01 -2.389149e-01 -2.420877e-01 -2.449714e-01 -2.459764e-01 -2.462253e-01 -2.449949e-01 -2.426100e-01 -2.391370e-01 -2.341982e-01 -2.285577e-01 -2.212388e-01 -2.136073e-01 -2.041873e-01 -1.948563e-01 -1.837223e-01 -1.731018e-01 -1.607430e-01 -1.493510e-01 -1.363393e-01 -1.247765e-01 -1.117347e-01 -1.006446e-01 -8.820364e-02 -7.822079e-02 -6.696932e-02 -5.866249e-02 -4.909568e-02 -4.291254e-02 -3.538619e-02 -3.160816e-02 -2.630510e-02 -2.501887e-02 -2.193294e-02 -2.302325e-02 -2.196367e-02 -2.512845e-02 -2.574409e-02 -3.052932e-02 -3.234900e-02 -3.819745e-02 -4.067957e-02 -4.698536e-02 -4.956916e-02 -5.572983e-02 -5.788087e-02 -6.334051e-02 -6.458534e-02 -6.886483e-02 -6.881288e-02 -7.152671e-02 -6.987995e-02 -7.074150e-02 -6.729470e-02 -6.611313e-02 -6.074818e-02 -5.742079e-02 -5.009843e-02 -4.460153e-02 -3.535333e-02 -2.773420e-02 