# vtk DataFile Version 2.0
Comment goes here
ASCII

DATASET STRUCTURED_POINTS
FIELD FieldData 1
TIME 1 1 double
0.21000000
DIMENSIONS    128   128   1

ORIGIN    0.000   0.000   0.000
SPACING   0.039062 0.039062   1.000

POINT_DATA   16384
SCALARS uX double
LOOKUP_TABLE default

-4.482073e-02 -3.452665e-02 -2.137220e-02 -1.051495e-02 2.967435e-03 1.423088e-02 2.785022e-02 3.934368e-02 5.289687e-02 6.442879e-02 7.770440e-02 8.907254e-02 1.018554e-01 1.128524e-01 1.249291e-01 1.353484e-01 1.465133e-01 1.561560e-01 1.662171e-01 1.748984e-01 1.836846e-01 1.912404e-01 1.986066e-01 2.048992e-01 2.107319e-01 2.156547e-01 2.198760e-01 2.233569e-01 2.259268e-01 2.279297e-01 2.288473e-01 2.293724e-01 2.286744e-01 2.277567e-01 2.255154e-01 2.232213e-01 2.195404e-01 2.159637e-01 2.109732e-01 2.062302e-01 2.000803e-01 1.943041e-01 1.871590e-01 1.804942e-01 1.725252e-01 1.651222e-01 1.565018e-01 1.485124e-01 1.394079e-01 1.309805e-01 1.215494e-01 1.128260e-01 1.032115e-01 9.432465e-02 8.465268e-02 7.572357e-02 6.610047e-02 5.723794e-02 4.774959e-02 3.904925e-02 2.976117e-02 2.130524e-02 1.226357e-02 4.121060e-03 -4.645527e-03 -1.241857e-02 -2.089624e-02 -2.825626e-02 -3.644294e-02 -4.335846e-02 -5.126035e-02 -5.771144e-02 -6.533944e-02 -7.131722e-02 -7.868343e-02 -8.418943e-02 -9.130380e-02 -9.634907e-02 -1.032165e-01 -1.078204e-01 -1.144384e-01 -1.186270e-01 -1.249833e-01 -1.287872e-01 -1.348593e-01 -1.383108e-01 -1.440643e-01 -1.471944e-01 -1.525837e-01 -1.554186e-01 -1.603868e-01 -1.629444e-01 -1.674246e-01 -1.697112e-01 -1.736283e-01 -1.756359e-01 -1.789084e-01 -1.806133e-01 -1.831557e-01 -1.845177e-01 -1.862439e-01 -1.872072e-01 -1.880330e-01 -1.885282e-01 -1.883748e-01 -1.883228e-01 -1.871199e-01 -1.864355e-01 -1.841243e-01 -1.827216e-01 -1.792578e-01 -1.770551e-01 -1.724110e-01 -1.693363e-01 -1.635027e-01 -1.594979e-01 -1.524860e-01 -1.475115e-01 -1.393532e-01 -1.333907e-01 -1.241397e-01 -1.171951e-01 -1.069272e-01 -9.903195e-02 -8.784430e-02 -7.905636e-02 -6.706764e-02 -5.747146e-02 
-4.523541e-02 -3.490816e-02 -2.175011e-02 -1.085712e-02 2.632608e-03 1.393371e-02 2.756384e-02 3.909610e-02 5.266313e-02 6.423419e-02 7.752621e-02 8.893294e-02 1.017343e-01 1.127683e-01 1.248649e-01 1.353188e-01 1.465042e-01 1.561782e-01 1.662599e-01 1.749684e-01 1.837745e-01 1.913526e-01 1.987376e-01 2.050470e-01 2.108970e-01 2.158309e-01 2.200677e-01 2.235536e-01 2.261373e-01 2.281395e-01 2.290690e-01 2.295880e-01 2.289006e-01 2.279717e-01 2.257401e-01 2.234305e-01 2.197589e-01 2.161632e-01 2.111822e-01 2.064173e-01 2.002778e-01 1.944777e-01 1.873445e-01 1.806544e-01 1.726993e-01 1.652704e-01 1.566663e-01 1.486508e-01 1.395654e-01 1.311122e-01 1.217031e-01 1.129545e-01 1.033648e-01 9.445352e-02 8.480901e-02 7.585646e-02 6.626312e-02 5.737818e-02 4.792141e-02 3.919973e-02 2.994440e-02 2.146824e-02 1.245977e-02 4.298136e-03 -4.435606e-03 -1.222661e-02 -2.067268e-02 -2.804944e-02 -3.620665e-02 -4.313759e-02 -5.101306e-02 -5.747812e-02 -6.508363e-02 -7.107381e-02 -7.842229e-02 -8.393899e-02 -9.104114e-02 -9.609535e-02 -1.029567e-01 -1.075678e-01 -1.141863e-01 -1.183804e-01 -1.247442e-01 -1.285521e-01 -1.346387e-01 -1.380931e-01 -1.438680e-01 -1.470004e-01 -1.524176e-01 -1.552546e-01 -1.602567e-01 -1.628166e-01 -1.673360e-01 -1.696256e-01 -1.735862e-01 -1.755979e-01 -1.789170e-01 -1.806272e-01 -1.832184e-01 -1.845868e-01 -1.863626e-01 -1.873331e-01 -1.882083e-01 -1.887113e-01 -1.886059e-01 -1.885614e-01 -1.874043e-01 -1.867264e-01 -1.844582e-01 -1.830600e-01 -1.796357e-01 -1.774350e-01 -1.728264e-01 -1.697504e-01 -1.639481e-01 -1.599383e-01 -1.529531e-01 -1.479694e-01 -1.398333e-01 -1.338572e-01 -1.246241e-01 -1.176614e-01 -1.074067e-01 -9.948918e-02 -8.831040e-02 -7.949610e-02 -6.751193e-02 -5.788575e-02 
-4.542222e-02 -3.506073e-02 -2.181837e-02 -1.088262e-02 2.695259e-03 1.404681e-02 2.776772e-02 3.935696e-02 5.301588e-02 6.464892e-02 7.803210e-02 8.950396e-02 1.023936e-01 1.134938e-01 1.256734e-01 1.361922e-01 1.474529e-01 1.571880e-01 1.673349e-01 1.760982e-01 1.849569e-01 1.925816e-01 2.000045e-01 2.063504e-01 2.122221e-01 2.171810e-01 2.214223e-01 2.249211e-01 2.274917e-01 2.294944e-01 2.303936e-01 2.309013e-01 2.301671e-01 2.292162e-01 2.269230e-01 2.245820e-01 2.208361e-01 2.172012e-01 2.121356e-01 2.073259e-01 2.010939e-01 1.952454e-01 1.880145e-01 1.812743e-01 1.732190e-01 1.657402e-01 1.570358e-01 1.489721e-01 1.397887e-01 1.312903e-01 1.217875e-01 1.129977e-01 1.033202e-01 9.437252e-02 8.464727e-02 7.566368e-02 6.599754e-02 5.708712e-02 4.756596e-02 3.882443e-02 2.951323e-02 2.102276e-02 1.196671e-02 3.796131e-03 -4.977388e-03 -1.277223e-02 -2.125097e-02 -2.862677e-02 -3.681036e-02 -4.373587e-02 -5.163232e-02 -5.808789e-02 -6.570987e-02 -7.168693e-02 -7.904818e-02 -8.454870e-02 -9.166065e-02 -9.669627e-02 -1.035650e-01 -1.081560e-01 -1.147799e-01 -1.189533e-01 -1.253211e-01 -1.291088e-01 -1.351980e-01 -1.386340e-01 -1.444104e-01 -1.475274e-01 -1.529450e-01 -1.557710e-01 -1.607725e-01 -1.633269e-01 -1.678448e-01 -1.701352e-01 -1.740930e-01 -1.761124e-01 -1.794275e-01 -1.811524e-01 -1.837380e-01 -1.851277e-01 -1.868959e-01 -1.878937e-01 -1.887588e-01 -1.892937e-01 -1.891753e-01 -1.891658e-01 -1.879921e-01 -1.873506e-01 -1.850616e-01 -1.836995e-01 -1.802495e-01 -1.780828e-01 -1.734432e-01 -1.703974e-01 -1.645583e-01 -1.605733e-01 -1.535452e-01 -1.485797e-01 -1.403945e-01 -1.344291e-01 -1.251403e-01 -1.181799e-01 -1.078632e-01 -9.993896e-02 -8.869197e-02 -7.986176e-02 -6.780348e-02 -5.815211e-02 
-4.644552e-02 -3.598288e-02 -2.264878e-02 -1.159810e-02 2.082926e-03 1.356099e-02 2.739464e-02 3.911931e-02 5.289827e-02 6.467245e-02 7.818019e-02 8.979527e-02 1.028107e-01 1.140522e-01 1.263552e-01 1.370090e-01 1.483868e-01 1.582464e-01 1.685002e-01 1.773735e-01 1.863252e-01 1.940415e-01 2.015404e-01 2.079568e-01 2.138850e-01 2.188911e-01 2.231680e-01 2.266898e-01 2.292744e-01 2.312761e-01 2.321684e-01 2.326521e-01 2.318919e-01 2.308960e-01 2.285600e-01 2.261558e-01 2.223536e-01 2.186407e-01 2.135088e-01 2.086098e-01 2.023055e-01 1.963600e-01 1.890547e-01 1.822133e-01 1.740853e-01 1.665040e-01 1.577319e-01 1.495672e-01 1.403240e-01 1.317284e-01 1.221758e-01 1.132941e-01 1.035786e-01 9.454565e-02 8.479491e-02 7.573331e-02 6.605439e-02 5.707364e-02 4.755186e-02 3.874778e-02 2.944695e-02 2.090167e-02 1.186527e-02 3.647451e-03 -5.099283e-03 -1.293398e-02 -2.138125e-02 -2.878968e-02 -3.693981e-02 -4.389086e-02 -5.175457e-02 -5.822871e-02 -6.582136e-02 -7.181021e-02 -7.914804e-02 -8.465384e-02 -9.175052e-02 -9.678542e-02 -1.036490e-01 -1.082340e-01 -1.148642e-01 -1.190276e-01 -1.254141e-01 -1.291894e-01 -1.353103e-01 -1.387333e-01 -1.445543e-01 -1.476600e-01 -1.531346e-01 -1.559531e-01 -1.610227e-01 -1.635758e-01 -1.681713e-01 -1.704683e-01 -1.745114e-01 -1.765466e-01 -1.799520e-01 -1.817023e-01 -1.843808e-01 -1.858051e-01 -1.876660e-01 -1.887061e-01 -1.896609e-01 -1.902438e-01 -1.902094e-01 -1.902506e-01 -1.891528e-01 -1.885614e-01 -1.863380e-01 -1.850221e-01 -1.816257e-01 -1.794977e-01 -1.748983e-01 -1.718807e-01 -1.660674e-01 -1.620976e-01 -1.550803e-01 -1.501148e-01 -1.419249e-01 -1.359429e-01 -1.266340e-01 -1.196397e-01 -1.092875e-01 -1.013116e-01 -9.001407e-02 -8.111484e-02 -6.899142e-02 -5.925436e-02 
-4.724762e-02 -3.668283e-02 -2.317558e-02 -1.200280e-02 1.863078e-03 1.348088e-02 2.750840e-02 3.938734e-02 5.336576e-02 6.530490e-02 7.901350e-02 9.079957e-02 1.040124e-01 1.154256e-01 1.279171e-01 1.387376e-01 1.502892e-01 1.603046e-01 1.707115e-01 1.797240e-01 1.888028e-01 1.966364e-01 2.042316e-01 2.107390e-01 2.167290e-01 2.217970e-01 2.260987e-01 2.296515e-01 2.322233e-01 2.342249e-01 2.350675e-01 2.355214e-01 2.346768e-01 2.336241e-01 2.311728e-01 2.286884e-01 2.247445e-01 2.209324e-01 2.156380e-01 2.106256e-01 2.041440e-01 1.980758e-01 1.905844e-01 1.836157e-01 1.752987e-01 1.675899e-01 1.586315e-01 1.503429e-01 1.409208e-01 1.322079e-01 1.224882e-01 1.134983e-01 1.036306e-01 9.450005e-02 8.461442e-02 7.546704e-02 6.567182e-02 5.661763e-02 4.699854e-02 3.813350e-02 2.875390e-02 2.015994e-02 1.106207e-02 2.807481e-03 -5.985274e-03 -1.384532e-02 -2.232550e-02 -2.974840e-02 -3.792095e-02 -4.487618e-02 -5.275456e-02 -5.922323e-02 -6.682550e-02 -7.279997e-02 -8.014490e-02 -8.562836e-02 -9.273182e-02 -9.773767e-02 -1.046095e-01 -1.091604e-01 -1.158018e-01 -1.199281e-01 -1.263297e-01 -1.300673e-01 -1.362078e-01 -1.395956e-01 -1.454409e-01 -1.485168e-01 -1.540202e-01 -1.568176e-01 -1.619201e-01 -1.644636e-01 -1.690951e-01 -1.713963e-01 -1.754775e-01 -1.775321e-01 -1.809764e-01 -1.827618e-01 -1.854780e-01 -1.869523e-01 -1.888481e-01 -1.899511e-01 -1.909358e-01 -1.915915e-01 -1.915798e-01 -1.917002e-01 -1.906157e-01 -1.901055e-01 -1.878839e-01 -1.866466e-01 -1.832389e-01 -1.811825e-01 -1.765570e-01 -1.735999e-01 -1.677446e-01 -1.638207e-01 -1.567446e-01 -1.518074e-01 -1.435415e-01 -1.375680e-01 -1.281655e-01 -1.211582e-01 -1.106952e-01 -1.026839e-01 -9.125848e-02 -8.230110e-02 -7.003353e-02 -6.021587e-02 
-4.890776e-02 -3.817214e-02 -2.448361e-02 -1.311455e-02 9.520939e-04 1.278796e-02 2.703247e-02 3.914664e-02 5.335410e-02 6.554004e-02 7.948460e-02 9.152256e-02 1.049722e-01 1.166351e-01 1.293574e-01 1.404177e-01 1.521868e-01 1.624241e-01 1.730279e-01 1.822367e-01 1.914848e-01 1.994824e-01 2.072132e-01 2.138467e-01 2.199340e-01 2.250863e-01 2.294441e-01 2.330376e-01 2.356234e-01 2.376223e-01 2.384378e-01 2.388476e-01 2.379379e-01 2.368035e-01 2.342538e-01 2.316553e-01 2.275857e-01 2.236332e-01 2.181928e-01 2.130202e-01 2.063796e-01 2.001379e-01 1.924820e-01 1.853330e-01 1.768531e-01 1.689628e-01 1.598496e-01 1.513831e-01 1.418199e-01 1.329367e-01 1.230940e-01 1.139444e-01 1.039749e-01 9.469747e-02 8.473325e-02 7.545292e-02 6.560290e-02 5.643033e-02 4.677958e-02 3.781085e-02 2.842092e-02 1.973772e-02 1.064808e-02 2.318318e-03 -6.451250e-03 -1.437286e-02 -2.281909e-02 -3.029037e-02 -3.842272e-02 -4.541349e-02 -5.325015e-02 -5.974183e-02 -6.730543e-02 -7.329079e-02 -8.060437e-02 -8.608721e-02 -9.317047e-02 -9.816515e-02 -1.050312e-01 -1.095618e-01 -1.162143e-01 -1.203136e-01 -1.267448e-01 -1.304516e-01 -1.366411e-01 -1.399977e-01 -1.459115e-01 -1.489602e-01 -1.545505e-01 -1.573289e-01 -1.625352e-01 -1.650719e-01 -1.698216e-01 -1.721318e-01 -1.763423e-01 -1.784239e-01 -1.820050e-01 -1.838362e-01 -1.866924e-01 -1.882306e-01 -1.902650e-01 -1.914476e-01 -1.925649e-01 -1.933118e-01 -1.934224e-01 -1.936400e-01 -1.926635e-01 -1.922506e-01 -1.901192e-01 -1.889729e-01 -1.856343e-01 -1.836564e-01 -1.790768e-01 -1.761800e-01 -1.703458e-01 -1.664592e-01 -1.593782e-01 -1.544517e-01 -1.461543e-01 -1.401621e-01 -1.307015e-01 -1.236446e-01 -1.130969e-01 -1.050045e-01 -9.346856e-02 -8.439876e-02 -7.199561e-02 -6.203534e-02 
-5.036046e-02 -3.945317e-02 -2.550061e-02 -1.392778e-02 4.231202e-04 1.249110e-02 2.703598e-02 3.940563e-02 5.392428e-02 6.638279e-02 8.064281e-02 9.296290e-02 1.067245e-01 1.186704e-01 1.316924e-01 1.430273e-01 1.550744e-01 1.655680e-01 1.764185e-01 1.858559e-01 1.953105e-01 2.035002e-01 2.113894e-01 2.181717e-01 2.243631e-01 2.296157e-01 2.340195e-01 2.376623e-01 2.402346e-01 2.422316e-01 2.429757e-01 2.433347e-01 2.422994e-01 2.410698e-01 2.383461e-01 2.356143e-01 2.313302e-01 2.272136e-01 2.215269e-01 2.161674e-01 2.092585e-01 2.028152e-01 1.948788e-01 1.875210e-01 1.787578e-01 1.706587e-01 1.612681e-01 1.525989e-01 1.427719e-01 1.336969e-01 1.236104e-01 1.142837e-01 1.040955e-01 9.465808e-02 8.450347e-02 7.508203e-02 6.507179e-02 5.577768e-02 4.599716e-02 3.692651e-02 2.743613e-02 1.867025e-02 9.507099e-03 1.113219e-03 -7.706297e-03 -1.567424e-02 -2.415099e-02 -3.165162e-02 -3.979968e-02 -4.680362e-02 -5.464594e-02 -6.113544e-02 -6.869932e-02 -7.466810e-02 -8.198090e-02 -8.743400e-02 -9.451920e-02 -9.947272e-02 -1.063465e-01 -1.108270e-01 -1.174954e-01 -1.215386e-01 -1.279955e-01 -1.316443e-01 -1.378701e-01 -1.411716e-01 -1.471326e-01 -1.501341e-01 -1.557820e-01 -1.585264e-01 -1.637997e-01 -1.663204e-01 -1.711449e-01 -1.734612e-01 -1.777522e-01 -1.798645e-01 -1.835289e-01 -1.854163e-01 -1.883557e-01 -1.899744e-01 -1.920881e-01 -1.933723e-01 -1.945615e-01 -1.954262e-01 -1.955972e-01 -1.959425e-01 -1.950112e-01 -1.947287e-01 -1.926236e-01 -1.916028e-01 -1.882686e-01 -1.864041e-01 -1.818045e-01 -1.790022e-01 -1.731215e-01 -1.693048e-01 -1.621496e-01 -1.572637e-01 -1.488636e-01 -1.428793e-01 -1.332872e-01 -1.262031e-01 -1.154952e-01 -1.073390e-01 -9.561487e-02 -8.644439e-02 -7.382600e-02 -6.372878e-02 
-5.270760e-02 -4.155700e-02 -2.733116e-02 -1.547700e-02 -8.244551e-04 1.155776e-02 2.642806e-02 3.913831e-02 5.400017e-02 6.681762e-02 8.143108e-02 9.411900e-02 1.082352e-01 1.205471e-01 1.339147e-01 1.456020e-01 1.579744e-01 1.687948e-01 1.799392e-01 1.896661e-01 1.993722e-01 2.078039e-01 2.158929e-01 2.228608e-01 2.291931e-01 2.345692e-01 2.390505e-01 2.427517e-01 2.453367e-01 2.473272e-01 2.480208e-01 2.483119e-01 2.471678e-01 2.458147e-01 2.429310e-01 2.400280e-01 2.355420e-01 2.312159e-01 2.252961e-01 2.196987e-01 2.125368e-01 2.058372e-01 1.976391e-01 1.900162e-01 1.809935e-01 1.726289e-01 1.629909e-01 1.540628e-01 1.440090e-01 1.346877e-01 1.244016e-01 1.148453e-01 1.044897e-01 9.484242e-02 8.455552e-02 7.494555e-02 6.483913e-02 5.537847e-02 4.553703e-02 3.632173e-02 2.680311e-02 1.791395e-02 8.751193e-03 2.546254e-04 -8.541131e-03 -1.659197e-02 -2.502772e-02 -3.259214e-02 -4.068863e-02 -4.773779e-02 -5.552482e-02 -6.204140e-02 -6.955297e-02 -7.553117e-02 -8.280088e-02 -8.824648e-02 -9.530336e-02 -1.002337e-01 -1.070986e-01 -1.115424e-01 -1.182249e-01 -1.222212e-01 -1.287176e-01 -1.323136e-01 -1.386057e-01 -1.418538e-01 -1.479079e-01 -1.508619e-01 -1.566286e-01 -1.593382e-01 -1.647535e-01 -1.672586e-01 -1.722450e-01 -1.745702e-01 -1.790385e-01 -1.811881e-01 -1.850398e-01 -1.869944e-01 -1.901251e-01 -1.918398e-01 -1.941425e-01 -1.955476e-01 -1.969168e-01 -1.979210e-01 -1.982568e-01 -1.987520e-01 -1.979644e-01 -1.978328e-01 -1.958452e-01 -1.949664e-01 -1.917194e-01 -1.899786e-01 -1.854323e-01 -1.827271e-01 -1.768638e-01 -1.731103e-01 -1.659351e-01 -1.610732e-01 -1.526149e-01 -1.466114e-01 -1.369229e-01 -1.297741e-01 -1.189320e-01 -1.106648e-01 -9.876926e-02 -8.944183e-02 -7.661611e-02 -6.631744e-02 
-5.486887e-02 -4.347448e-02 -2.889063e-02 -1.674729e-02 -1.706972e-03 1.100473e-02 2.628721e-02 3.936041e-02 5.465176e-02 6.785694e-02 8.290822e-02 9.599804e-02 1.105496e-01 1.232653e-01 1.370532e-01 1.491326e-01 1.618968e-01 1.730835e-01 1.845773e-01 1.946307e-01 2.046306e-01 2.133364e-01 2.216520e-01 2.288314e-01 2.353140e-01 2.408315e-01 2.453812e-01 2.491499e-01 2.517197e-01 2.537040e-01 2.543008e-01 2.545155e-01 2.531984e-01 2.517056e-01 2.485817e-01 2.454849e-01 2.407026e-01 2.361394e-01 2.298802e-01 2.240141e-01 2.164833e-01 2.094953e-01 2.009128e-01 1.929926e-01 1.835835e-01 1.749228e-01 1.649086e-01 1.556941e-01 1.452851e-01 1.356937e-01 1.250823e-01 1.152773e-01 1.046329e-01 9.476178e-02 8.422716e-02 7.442002e-02 6.410916e-02 5.447876e-02 4.447618e-02 3.511838e-02 2.547997e-02 1.647476e-02 7.229820e-03 -1.357448e-03 -1.020296e-02 -1.832032e-02 -2.677963e-02 -3.438749e-02 -4.248823e-02 -4.955874e-02 -5.733777e-02 -6.385451e-02 -7.135272e-02 -7.731089e-02 -8.456820e-02 -8.997495e-02 -9.702583e-02 -1.019006e-01 -1.087703e-01 -1.131447e-01 -1.198462e-01 -1.237635e-01 -1.302954e-01 -1.338084e-01 -1.401534e-01 -1.433213e-01 -1.494459e-01 -1.523300e-01 -1.581842e-01 -1.608419e-01 -1.663600e-01 -1.688388e-01 -1.739409e-01 -1.762715e-01 -1.808651e-01 -1.830559e-01 -1.870387e-01 -1.890717e-01 -1.923344e-01 -1.941632e-01 -1.965937e-01 -1.981439e-01 -1.996310e-01 -2.008040e-01 -2.012420e-01 -2.019204e-01 -2.012134e-01 -2.012688e-01 -1.993352e-01 -1.986361e-01 -1.954118e-01 -1.938328e-01 -1.892745e-01 -1.867035e-01 -1.807906e-01 -1.771357e-01 -1.698716e-01 -1.650661e-01 -1.564787e-01 -1.504849e-01 -1.406267e-01 -1.334377e-01 -1.223856e-01 -1.140266e-01 -1.018814e-01 -9.241019e-02 -7.929658e-02 -6.880303e-02 
-5.797657e-02 -4.626255e-02 -3.131003e-02 -1.879516e-02 -3.347720e-03 9.780928e-03 2.550327e-02 3.903049e-02 5.478672e-02 6.847249e-02 8.400373e-02 9.758807e-02 1.126224e-01 1.258320e-01 1.400913e-01 1.526478e-01 1.658565e-01 1.774866e-01 1.893820e-01 1.998287e-01 2.101718e-01 2.192059e-01 2.277928e-01 2.352232e-01 2.418949e-01 2.475778e-01 2.522279e-01 2.560724e-01 2.586518e-01 2.606227e-01 2.611409e-01 2.612580e-01 2.597810e-01 2.581149e-01 2.547601e-01 2.514257e-01 2.463547e-01 2.415030e-01 2.349122e-01 2.287206e-01 2.208313e-01 2.134947e-01 2.045425e-01 1.962639e-01 1.864889e-01 1.774714e-01 1.671088e-01 1.575487e-01 1.468203e-01 1.369022e-01 1.260097e-01 1.159024e-01 1.050219e-01 9.487631e-02 8.415465e-02 7.410269e-02 6.365512e-02 5.381003e-02 4.371983e-02 3.417696e-02 2.449642e-02 1.533462e-02 6.087459e-03 -2.629240e-03 -1.144430e-02 -1.966523e-02 -2.806985e-02 -3.575642e-02 -4.378736e-02 -5.091238e-02 -5.861587e-02 -6.516332e-02 -7.258935e-02 -7.855474e-02 -8.575170e-02 -9.114278e-02 -9.815260e-02 -1.029901e-01 -1.098442e-01 -1.141624e-01 -1.208786e-01 -1.247246e-01 -1.313047e-01 -1.347372e-01 -1.411658e-01 -1.442518e-01 -1.504953e-01 -1.533049e-01 -1.593120e-01 -1.619126e-01 -1.676145e-01 -1.700631e-01 -1.753754e-01 -1.777110e-01 -1.825352e-01 -1.847721e-01 -1.889988e-01 -1.911215e-01 -1.946334e-01 -1.965939e-01 -1.992702e-01 -2.009890e-01 -2.027097e-01 -2.040789e-01 -2.047298e-01 -2.056202e-01 -2.050977e-01 -2.053673e-01 -2.035828e-01 -2.030863e-01 -1.999701e-01 -1.985687e-01 -1.940734e-01 -1.916433e-01 -1.857455e-01 -1.821852e-01 -1.748865e-01 -1.701222e-01 -1.614499e-01 -1.554388e-01 -1.454455e-01 -1.381777e-01 -1.269408e-01 -1.184407e-01 -1.060621e-01 -9.638783e-02 -8.299342e-02 -7.223690e-02 
-6.092899e-02 -4.889548e-02 -3.348708e-02 -2.059251e-02 -4.648402e-03 8.913939e-03 2.516737e-02 3.917374e-02 5.548675e-02 6.968601e-02 8.578827e-02 9.990661e-02 1.155120e-01 1.292597e-01 1.440735e-01 1.571539e-01 1.708821e-01 1.830024e-01 1.953629e-01 2.062469e-01 2.169825e-01 2.263833e-01 2.352738e-01 2.429858e-01 2.498597e-01 2.557287e-01 2.604717e-01 2.644020e-01 2.669623e-01 2.689191e-01 2.693093e-01 2.693176e-01 2.676116e-01 2.657520e-01 2.620795e-01 2.584800e-01 2.530180e-01 2.478446e-01 2.408072e-01 2.342537e-01 2.258808e-01 2.181579e-01 2.087041e-01 2.000297e-01 1.897529e-01 1.803434e-01 1.694951e-01 1.595580e-01 1.483741e-01 1.381026e-01 1.267964e-01 1.163655e-01 1.051217e-01 9.468630e-02 8.365733e-02 7.335137e-02 6.265505e-02 5.259217e-02 4.231141e-02 3.258619e-02 2.277024e-02 1.346008e-02 4.127210e-03 -4.705637e-03 -1.356405e-02 -2.187062e-02 -3.028500e-02 -3.802816e-02 -4.604484e-02 -5.319850e-02 -6.087349e-02 -6.742245e-02 -7.481520e-02 -8.075578e-02 -8.792325e-02 -9.326436e-02 -1.002558e-01 -1.050203e-01 -1.118730e-01 -1.160984e-01 -1.228345e-01 -1.265731e-01 -1.331972e-01 -1.365151e-01 -1.430130e-01 -1.459859e-01 -1.523242e-01 -1.550332e-01 -1.611591e-01 -1.636827e-01 -1.695255e-01 -1.719314e-01 -1.774033e-01 -1.797396e-01 -1.847380e-01 -1.870251e-01 -1.914352e-01 -1.936601e-01 -1.973582e-01 -1.994710e-01 -2.023291e-01 -2.042438e-01 -2.061341e-01 -2.077327e-01 -2.085329e-01 -2.096729e-01 -2.092716e-01 -2.097959e-01 -2.080974e-01 -2.078454e-01 -2.047740e-01 -2.035923e-01 -1.990956e-01 -1.968475e-01 -1.908987e-01 -1.874720e-01 -1.800707e-01 -1.753834e-01 -1.665558e-01 -1.605592e-01 -1.503578e-01 -1.430384e-01 -1.315410e-01 -1.229213e-01 -1.102304e-01 -1.003683e-01 -8.661148e-02 -7.559998e-02 
-6.489636e-02 -5.246212e-02 -3.658554e-02 -2.322280e-02 -6.760354e-03 7.330046e-03 2.414551e-02 3.872980e-02 5.563935e-02 7.045348e-02 8.717444e-02 1.019286e-01 1.181592e-01 1.325448e-01 1.479716e-01 1.616704e-01 1.759784e-01 1.886752e-01 2.015604e-01 2.129564e-01 2.241403e-01 2.339679e-01 2.432117e-01 2.512485e-01 2.583661e-01 2.644466e-01 2.693148e-01 2.733376e-01 2.759020e-01 2.778335e-01 2.781102e-01 2.779826e-01 2.760552e-01 2.739611e-01 2.699736e-01 2.660569e-01 2.602044e-01 2.546493e-01 2.471661e-01 2.401855e-01 2.313327e-01 2.231560e-01 2.132093e-01 2.040716e-01 1.933089e-01 1.834416e-01 1.721322e-01 1.617551e-01 1.501501e-01 1.394659e-01 1.277905e-01 1.169808e-01 1.054283e-01 9.465189e-02 8.337979e-02 7.277222e-02 6.189984e-02 5.157463e-02 4.118306e-02 3.123340e-02 2.136699e-02 1.186825e-02 2.537745e-03 -6.450043e-03 -1.526293e-02 -2.369276e-02 -3.202966e-02 -3.986582e-02 -4.778516e-02 -5.500226e-02 -6.257239e-02 -6.915538e-02 -7.644768e-02 -8.239270e-02 -8.947512e-02 -9.479112e-02 -1.017226e-01 -1.064332e-01 -1.132589e-01 -1.174043e-01 -1.241524e-01 -1.277896e-01 -1.344689e-01 -1.376711e-01 -1.442696e-01 -1.471230e-01 -1.536074e-01 -1.562052e-01 -1.625211e-01 -1.649558e-01 -1.710286e-01 -1.733816e-01 -1.791177e-01 -1.814493e-01 -1.867386e-01 -1.890782e-01 -1.937967e-01 -1.961350e-01 -2.001488e-01 -2.024346e-01 -2.056042e-01 -2.077439e-01 -2.099302e-01 -2.117933e-01 -2.128626e-01 -2.142900e-01 -2.141208e-01 -2.149366e-01 -2.134243e-01 -2.134487e-01 -2.105106e-01 -2.095719e-01 -2.051507e-01 -2.030969e-01 -1.971625e-01 -1.938690e-01 -1.864193e-01 -1.817951e-01 -1.728560e-01 -1.668466e-01 -1.564708e-01 -1.490596e-01 -1.373259e-01 -1.285343e-01 -1.155466e-01 -1.054334e-01 -9.132031e-02 -7.998101e-02 
-6.874960e-02 -5.591587e-02 -3.948109e-02 -2.564186e-02 -8.567485e-03 6.069372e-03 2.354359e-02 3.873435e-02 5.633942e-02 7.180663e-02 8.924604e-02 1.046827e-01 1.216369e-01 1.367133e-01 1.528472e-01 1.672212e-01 1.821953e-01 1.955255e-01 2.090103e-01 2.209717e-01 2.326633e-01 2.429644e-01 2.526017e-01 2.610002e-01 2.683798e-01 2.746963e-01 2.796841e-01 2.838107e-01 2.863493e-01 2.882532e-01 2.883629e-01 2.880844e-01 2.858598e-01 2.835053e-01 2.791070e-01 2.748386e-01 2.684827e-01 2.625053e-01 2.544495e-01 2.469976e-01 2.375279e-01 2.288520e-01 2.182685e-01 2.086233e-01 1.972269e-01 1.868609e-01 1.749419e-01 1.640886e-01 1.519162e-01 1.407889e-01 1.286027e-01 1.173905e-01 1.053944e-01 9.426024e-02 8.261859e-02 7.169973e-02 6.053461e-02 4.994423e-02 3.933571e-02 2.916525e-02 1.915319e-02 9.475468e-03 6.304315e-05 -9.064678e-03 -1.790581e-02 -2.643901e-02 -3.476232e-02 -4.266718e-02 -5.054398e-02 -5.779625e-02 -6.530798e-02 -7.189309e-02 -7.912362e-02 -8.503791e-02 -9.206644e-02 -9.731934e-02 -1.042142e-01 -1.088309e-01 -1.156448e-01 -1.196687e-01 -1.264350e-01 -1.299292e-01 -1.366598e-01 -1.397064e-01 -1.463906e-01 -1.490878e-01 -1.556921e-01 -1.581475e-01 -1.646159e-01 -1.669374e-01 -1.731926e-01 -1.754771e-01 -1.814213e-01 -1.837424e-01 -1.892602e-01 -1.916565e-01 -1.966170e-01 -1.990834e-01 -2.033445e-01 -2.058272e-01 -2.092403e-01 -2.116372e-01 -2.140526e-01 -2.162188e-01 -2.174925e-01 -2.192507e-01 -2.192505e-01 -2.204041e-01 -2.190159e-01 -2.193642e-01 -2.164974e-01 -2.158494e-01 -2.114407e-01 -2.096273e-01 -2.036425e-01 -2.005259e-01 -1.929608e-01 -1.884399e-01 -1.793195e-01 -1.733332e-01 -1.627104e-01 -1.552381e-01 -1.431923e-01 -1.342537e-01 -1.208897e-01 -1.105435e-01 -9.599131e-02 -8.433428e-02 
-7.370401e-02 -6.038288e-02 -4.337607e-02 -2.896442e-02 -1.125402e-02 4.032050e-03 2.219968e-02 3.810519e-02 5.645082e-02 7.268320e-02 9.089573e-02 1.071285e-01 1.248689e-01 1.407486e-01 1.576579e-01 1.728146e-01 1.885258e-01 2.025881e-01 2.167419e-01 2.293545e-01 2.416183e-01 2.524616e-01 2.625486e-01 2.713574e-01 2.790443e-01 2.856235e-01 2.907641e-01 2.949989e-01 2.975323e-01 2.993919e-01 2.993438e-01 2.988788e-01 2.963570e-01 2.936907e-01 2.888755e-01 2.841920e-01 2.773235e-01 2.708522e-01 2.622150e-01 2.542157e-01 2.441237e-01 2.348714e-01 2.236519e-01 2.134235e-01 2.014033e-01 1.904660e-01 1.779580e-01 1.665610e-01 1.538534e-01 1.422210e-01 1.295687e-01 1.178973e-01 1.055148e-01 9.397136e-02 8.202890e-02 7.075170e-02 5.937295e-02 4.847386e-02 3.773618e-02 2.730390e-02 1.724052e-02 7.344360e-03 -2.051499e-03 -1.135778e-02 -2.012716e-02 -2.880198e-02 -3.701298e-02 -4.502444e-02 -5.276408e-02 -6.008866e-02 -6.745431e-02 -7.407701e-02 -8.116785e-02 -8.708383e-02 -9.399304e-02 -9.921050e-02 -1.060185e-01 -1.105624e-01 -1.173317e-01 -1.212472e-01 -1.280187e-01 -1.313739e-01 -1.381645e-01 -1.410502e-01 -1.478519e-01 -1.503794e-01 -1.571589e-01 -1.594525e-01 -1.661518e-01 -1.683387e-01 -1.748756e-01 -1.770723e-01 -1.833424e-01 -1.856402e-01 -1.915184e-01 -1.939692e-01 -1.993132e-01 -2.019184e-01 -2.065728e-01 -2.092770e-01 -2.130788e-01 -2.157699e-01 -2.185546e-01 -2.210704e-01 -2.226795e-01 -2.248193e-01 -2.251075e-01 -2.266491e-01 -2.254912e-01 -2.262074e-01 -2.235043e-01 -2.231802e-01 -2.188626e-01 -2.173092e-01 -2.113396e-01 -2.084037e-01 -2.007767e-01 -1.963467e-01 -1.870876e-01 -1.810961e-01 -1.702589e-01 -1.626825e-01 -1.503478e-01 -1.412057e-01 -1.274798e-01 -1.168322e-01 -1.018463e-01 -8.979273e-02 
-7.859790e-02 -6.479254e-02 -4.712069e-02 -3.212871e-02 -1.368421e-02 2.271068e-03 2.123520e-02 3.788795e-02 5.708169e-02 7.412399e-02 9.322024e-02 1.103049e-01 1.289430e-01 1.456904e-01 1.634839e-01 1.794930e-01 1.960430e-01 2.109081e-01 2.258209e-01 2.391514e-01 2.520603e-01 2.635039e-01 2.740915e-01 2.833560e-01 2.913754e-01 2.982470e-01 3.035375e-01 3.078930e-01 3.103896e-01 3.122003e-01 3.119350e-01 3.112630e-01 3.083589e-01 3.053473e-01 3.000074e-01 2.948648e-01 2.873570e-01 2.803409e-01 2.709808e-01 2.623795e-01 2.515127e-01 2.416288e-01 2.296141e-01 2.187493e-01 2.059427e-01 1.943857e-01 1.811264e-01 1.691432e-01 1.557418e-01 1.435693e-01 1.302983e-01 1.181410e-01 1.052279e-01 9.325693e-02 8.087984e-02 6.923429e-02 5.751972e-02 4.630976e-02 3.533316e-02 2.464408e-02 1.443231e-02 4.329223e-03 -5.134783e-03 -1.460238e-02 -2.337309e-02 -3.216722e-02 -4.032847e-02 -4.841968e-02 -5.607549e-02 -6.344134e-02 -7.070623e-02 -7.733152e-02 -8.432093e-02 -9.019982e-02 -9.702133e-02 -1.021611e-01 -1.089070e-01 -1.133327e-01 -1.200746e-01 -1.238341e-01 -1.306188e-01 -1.337864e-01 -1.406342e-01 -1.433116e-01 -1.502156e-01 -1.525292e-01 -1.594554e-01 -1.615490e-01 -1.684372e-01 -1.704594e-01 -1.772242e-01 -1.793135e-01 -1.858453e-01 -1.881123e-01 -1.942798e-01 -1.967900e-01 -2.024427e-01 -2.052039e-01 -2.101764e-01 -2.131306e-01 -2.172479e-01 -2.202713e-01 -2.233557e-01 -2.262665e-01 -2.281453e-01 -2.307178e-01 -2.312320e-01 -2.332154e-01 -2.322275e-01 -2.333665e-01 -2.307673e-01 -2.308214e-01 -2.265342e-01 -2.252929e-01 -2.192759e-01 -2.165698e-01 -2.088155e-01 -2.045217e-01 -1.950551e-01 -1.890992e-01 -1.779752e-01 -1.703300e-01 -1.576306e-01 -1.483141e-01 -1.341466e-01 -1.232192e-01 -1.077158e-01 -9.527887e-02 
-8.469811e-02 -7.031273e-02 -5.196098e-02 -3.628411e-02 -1.707925e-02 -3.422890e-04 1.945687e-02 3.697634e-02 5.706930e-02 7.504655e-02 9.508977e-02 1.131548e-01 1.327642e-01 1.505079e-01 1.692669e-01 1.862530e-01 2.037267e-01 2.195098e-01 2.352650e-01 2.494139e-01 2.630446e-01 2.751688e-01 2.863224e-01 2.960984e-01 3.045007e-01 3.116935e-01 3.171676e-01 3.216451e-01 3.241218e-01 3.258589e-01 3.253781e-01 3.244521e-01 3.211554e-01 3.177330e-01 3.118499e-01 3.061698e-01 2.980004e-01 2.903528e-01 2.802477e-01 2.709544e-01 2.592953e-01 2.486902e-01 2.358709e-01 2.242839e-01 2.106926e-01 1.984358e-01 1.844402e-01 1.717980e-01 1.577325e-01 1.449547e-01 1.311101e-01 1.184093e-01 1.050259e-01 9.257630e-02 7.983907e-02 6.777959e-02 5.581645e-02 4.425406e-02 3.313646e-02 2.215154e-02 1.189750e-02 1.549519e-03 -7.871111e-03 -1.753806e-02 -2.619624e-02 -3.514852e-02 -4.314697e-02 -5.135780e-02 -5.882077e-02 -6.626831e-02 -7.333066e-02 -7.999835e-02 -8.679493e-02 -9.267403e-02 -9.932991e-02 -1.044242e-01 -1.110466e-01 -1.153788e-01 -1.220511e-01 -1.256689e-01 -1.324469e-01 -1.354291e-01 -1.423390e-01 -1.447972e-01 -1.518353e-01 -1.539124e-01 -1.610449e-01 -1.629069e-01 -1.700713e-01 -1.718935e-01 -1.789989e-01 -1.809478e-01 -1.878763e-01 -1.900882e-01 -1.966969e-01 -1.992573e-01 -2.053817e-01 -2.083086e-01 -2.137663e-01 -2.170006e-01 -2.215984e-01 -2.250028e-01 -2.285441e-01 -2.319124e-01 -2.342060e-01 -2.372804e-01 -2.381504e-01 -2.406442e-01 -2.399393e-01 -2.415617e-01 -2.391621e-01 -2.396411e-01 -2.354637e-01 -2.345634e-01 -2.285634e-01 -2.260960e-01 -2.182659e-01 -2.140971e-01 -2.044634e-01 -1.985128e-01 -1.871328e-01 -1.793715e-01 -1.663292e-01 -1.567762e-01 -1.421804e-01 -1.308984e-01 -1.148823e-01 -1.019759e-01 
-9.080613e-02 -7.584704e-02 -5.671967e-02 -4.035131e-02 -2.028347e-02 -2.743712e-03 1.800053e-02 3.642343e-02 5.753307e-02 7.649780e-02 9.761175e-02 1.167244e-01 1.374329e-01 1.562522e-01 1.761045e-01 1.941547e-01 2.126744e-01 2.294648e-01 2.461727e-01 2.612247e-01 2.756684e-01 2.885468e-01 3.003319e-01 3.106761e-01 3.194960e-01 3.270460e-01 3.327044e-01 3.373173e-01 3.397401e-01 3.413951e-01 3.406317e-01 3.394232e-01 3.356366e-01 3.317588e-01 3.252094e-01 3.189349e-01 3.099595e-01 3.016160e-01 2.906054e-01 2.805520e-01 2.679288e-01 2.565348e-01 2.427323e-01 2.303588e-01 2.158020e-01 2.027875e-01 1.878764e-01 1.745255e-01 1.596217e-01 1.461986e-01 1.316145e-01 1.183400e-01 1.043310e-01 9.138314e-02 7.814319e-02 6.565985e-02 5.331965e-02 4.140391e-02 3.003169e-02 1.875807e-02 8.363048e-03 -2.215686e-03 -1.167735e-02 -2.152352e-02 -3.014050e-02 -3.922568e-02 -4.712135e-02 -5.542199e-02 -6.274278e-02 -7.023798e-02 -7.714107e-02 -8.381291e-02 -9.045406e-02 -9.629077e-02 -1.028133e-01 -1.078152e-01 -1.143410e-01 -1.185282e-01 -1.251513e-01 -1.285724e-01 -1.353553e-01 -1.380946e-01 -1.450666e-01 -1.472483e-01 -1.544059e-01 -1.561923e-01 -1.635004e-01 -1.650830e-01 -1.724762e-01 -1.740605e-01 -1.814438e-01 -1.832272e-01 -1.904774e-01 -1.926240e-01 -1.995911e-01 -2.022071e-01 -2.087169e-01 -2.118304e-01 -2.176887e-01 -2.212377e-01 -2.262364e-01 -2.300679e-01 -2.339931e-01 -2.378738e-01 -2.405161e-01 -2.441531e-01 -2.453185e-01 -2.483862e-01 -2.479071e-01 -2.500768e-01 -2.478208e-01 -2.487867e-01 -2.446620e-01 -2.441618e-01 -2.381190e-01 -2.359457e-01 -2.279763e-01 -2.239835e-01 -2.141153e-01 -2.082162e-01 -1.965086e-01 -1.886720e-01 -1.752113e-01 -1.654559e-01 -1.503522e-01 -1.387421e-01 -1.221289e-01 -1.087703e-01 