# vtk DataFile Version 2.0
Comment goes here
ASCII

DATASET STRUCTURED_POINTS
FIELD FieldData 1
TIME 1 1 double
0.03500000
DIMENSIONS    128   128   1

ORIGIN    0.000   0.000   0.000
SPACING   0.039062 0.039062   1.000

POINT_DATA   16384
SCALARS uX double
LOOKUP_TABLE default

8.012026e-01 8.280278e-01 8.514714e-01 8.753805e-01 8.963229e-01 9.171670e-01 9.354712e-01 9.530746e-01 9.685764e-01 9.827391e-01 9.952511e-01 1.005754e+00 1.015070e+00 1.021682e+00 1.027586e+00 1.030071e+00 1.032341e+00 1.030471e+00 1.028894e+00 1.022457e+00 1.016835e+00 1.005650e+00 9.958108e-01 9.797360e-01 9.655424e-01 9.444877e-01 9.258468e-01 8.997817e-01 8.766512e-01 8.456121e-01 8.180060e-01 7.821000e-01 7.500923e-01 7.095004e-01 6.732269e-01 6.282034e-01 5.878631e-01 5.387336e-01 4.945885e-01 4.417471e-01 3.941215e-01 3.380271e-01 2.873069e-01 2.284786e-01 1.751111e-01 1.141246e-01 5.861751e-02 -3.898698e-03 -6.097757e-02 -1.243457e-01 -1.823699e-01 -2.458666e-01 -3.041536e-01 -3.670145e-01 -4.248296e-01 -4.862557e-01 -5.428196e-01 -6.019853e-01 -6.564842e-01 -7.125489e-01 -7.641490e-01 -8.162716e-01 -8.641369e-01 -9.114939e-01 -9.548080e-01 -9.966150e-01 -1.034606e+00 -1.070141e+00 -1.102107e+00 -1.130735e+00 -1.156073e+00 -1.177271e+00 -1.195501e+00 -1.208883e+00 -1.219669e+00 -1.225002e+00 -1.228172e+00 -1.225391e+00 -1.220948e+00 -1.210166e+00 -1.198286e+00 -1.179789e+00 -1.160821e+00 -1.135063e+00 -1.109510e+00 -1.077092e+00 -1.045592e+00 -1.007238e+00 -9.705357e-01 -9.270635e-01 -8.859738e-01 -8.382592e-01 -7.936360e-01 -7.425783e-01 -6.952786e-01 -6.417671e-01 -5.926199e-01 -5.375038e-01 -4.872838e-01 -4.313480e-01 -3.807548e-01 -3.247021e-01 -2.743465e-01 -2.187869e-01 -1.691845e-01 -1.146304e-01 -6.620048e-02 -1.306909e-02 3.386071e-02 8.524160e-02 1.304264e-01 1.798080e-01 2.230741e-01 2.702745e-01 3.115061e-01 3.563963e-01 3.955216e-01 4.380118e-01 4.749892e-01 5.150148e-01 5.498198e-01 5.873291e-01 6.199426e-01 6.548857e-01 6.852837e-01 7.176022e-01 7.457475e-01 7.753673e-01 
8.028917e-01 8.296580e-01 8.530994e-01 8.769473e-01 8.978924e-01 9.186731e-01 9.369846e-01 9.545221e-01 9.700357e-01 9.841297e-01 9.966573e-01 1.007088e+00 1.016423e+00 1.022958e+00 1.028883e+00 1.031287e+00 1.033581e+00 1.031624e+00 1.030071e+00 1.023542e+00 1.017945e+00 1.006661e+00 9.968459e-01 9.806674e-01 9.664967e-01 9.453331e-01 9.267133e-01 9.005348e-01 8.774230e-01 8.462665e-01 8.186760e-01 7.826497e-01 7.506533e-01 7.099391e-01 6.736716e-01 6.285245e-01 5.881834e-01 5.389300e-01 4.947753e-01 4.418103e-01 3.941645e-01 3.379469e-01 2.871939e-01 2.282432e-01 1.748280e-01 1.137199e-01 5.814863e-02 -4.488391e-03 -6.164965e-02 -1.251377e-01 -1.832634e-01 -2.468789e-01 -3.052864e-01 -3.682643e-01 -4.262182e-01 -4.877583e-01 -5.444771e-01 -6.037520e-01 -6.584186e-01 -7.145851e-01 -7.663611e-01 -8.185747e-01 -8.666182e-01 -9.140514e-01 -9.575394e-01 -9.994030e-01 -1.037556e+00 -1.073123e+00 -1.105232e+00 -1.133863e+00 -1.159317e+00 -1.180485e+00 -1.198798e+00 -1.212111e+00 -1.222944e+00 -1.228169e+00 -1.231346e+00 -1.228418e+00 -1.223940e+00 -1.212974e+00 -1.201020e+00 -1.182306e+00 -1.163229e+00 -1.137225e+00 -1.111535e+00 -1.078851e+00 -1.047192e+00 -1.008560e+00 -9.716851e-01 -9.279307e-01 -8.866635e-01 -8.386716e-01 -7.938733e-01 -7.425509e-01 -6.950854e-01 -6.413284e-01 -5.920300e-01 -5.366929e-01 -4.863401e-01 -4.302114e-01 -3.795063e-01 -3.232908e-01 -2.728452e-01 -2.171534e-01 -1.674823e-01 -1.128261e-01 -6.434748e-02 -1.114218e-02 3.581851e-02 8.724762e-02 1.324481e-01 1.818553e-01 2.251248e-01 2.723312e-01 3.135570e-01 3.584369e-01 3.975502e-01 4.400167e-01 4.769783e-01 5.169697e-01 5.517576e-01 5.892247e-01 6.218216e-01 6.567162e-01 6.870999e-01 7.193654e-01 7.474997e-01 7.770632e-01 
8.037961e-01 8.306822e-01 8.541802e-01 8.781638e-01 8.991748e-01 9.201069e-01 9.384929e-01 9.561964e-01 9.717918e-01 9.860643e-01 9.986790e-01 1.009298e+00 1.018723e+00 1.025452e+00 1.031466e+00 1.034065e+00 1.036443e+00 1.034678e+00 1.033200e+00 1.026854e+00 1.021319e+00 1.010204e+00 1.000433e+00 9.844035e-01 9.702565e-01 9.492170e-01 9.305973e-01 9.045141e-01 8.813767e-01 8.502837e-01 8.226409e-01 7.866444e-01 7.545688e-01 7.138496e-01 6.774769e-01 6.322902e-01 5.918192e-01 5.424923e-01 4.981852e-01 4.451142e-01 3.972957e-01 3.409414e-01 2.899977e-01 2.308813e-01 1.772600e-01 1.159590e-01 6.016803e-02 -2.687265e-03 -6.007942e-02 -1.238093e-01 -1.821750e-01 -2.460539e-01 -3.047083e-01 -3.679688e-01 -4.261737e-01 -4.880125e-01 -5.449835e-01 -6.045693e-01 -6.594854e-01 -7.159704e-01 -7.679887e-01 -8.205227e-01 -8.687964e-01 -9.165454e-01 -9.602458e-01 -1.002413e+00 -1.040755e+00 -1.076607e+00 -1.108875e+00 -1.137764e+00 -1.163343e+00 -1.184734e+00 -1.203132e+00 -1.216630e+00 -1.227502e+00 -1.232866e+00 -1.236037e+00 -1.233200e+00 -1.228668e+00 -1.217742e+00 -1.205688e+00 -1.186965e+00 -1.167745e+00 -1.141686e+00 -1.115814e+00 -1.083033e+00 -1.051162e+00 -1.012400e+00 -9.752891e-01 -9.313789e-01 -8.898623e-01 -8.416980e-01 -7.966462e-01 -7.451439e-01 -6.974296e-01 -6.434934e-01 -5.939590e-01 -5.384503e-01 -4.878805e-01 -4.315931e-01 -3.806944e-01 -3.243367e-01 -2.737234e-01 -2.179073e-01 -1.680953e-01 -1.133327e-01 -6.473888e-02 -1.144348e-02 3.560875e-02 8.711408e-02 1.323856e-01 1.818584e-01 2.251822e-01 2.724473e-01 3.137147e-01 3.586500e-01 3.977960e-01 4.403185e-01 4.773081e-01 5.173596e-01 5.521740e-01 5.897085e-01 6.223339e-01 6.573061e-01 6.877227e-01 7.200783e-01 7.482521e-01 7.779199e-01 
8.080767e-01 8.349644e-01 8.585145e-01 8.825115e-01 9.035938e-01 9.245507e-01 9.430263e-01 9.607644e-01 9.764657e-01 9.907797e-01 1.003513e+00 1.014177e+00 1.023730e+00 1.030501e+00 1.036647e+00 1.039280e+00 1.041788e+00 1.040043e+00 1.038689e+00 1.032342e+00 1.026917e+00 1.015775e+00 1.006097e+00 9.900087e-01 9.759318e-01 9.547980e-01 9.362214e-01 9.100056e-01 8.868810e-01 8.556158e-01 8.279528e-01 7.917444e-01 7.596137e-01 7.186439e-01 6.821794e-01 6.367053e-01 5.961045e-01 5.464557e-01 5.019791e-01 4.485544e-01 4.005249e-01 3.437874e-01 2.925895e-01 2.330625e-01 1.791416e-01 1.174046e-01 6.126704e-02 -2.048185e-03 -5.983508e-02 -1.240470e-01 -1.828554e-01 -2.472359e-01 -3.063792e-01 -3.701574e-01 -4.288930e-01 -4.912603e-01 -5.487966e-01 -6.089143e-01 -6.644199e-01 -7.214303e-01 -7.740486e-01 -8.270891e-01 -8.759563e-01 -9.241781e-01 -9.684461e-01 -1.011036e+00 -1.049898e+00 -1.086104e+00 -1.118825e+00 -1.147982e+00 -1.173923e+00 -1.195481e+00 -1.214134e+00 -1.227682e+00 -1.238689e+00 -1.243979e+00 -1.247154e+00 -1.244113e+00 -1.239456e+00 -1.228199e+00 -1.215893e+00 -1.196720e+00 -1.177133e+00 -1.150521e+00 -1.124185e+00 -1.090768e+00 -1.058358e+00 -1.018900e+00 -9.812009e-01 -9.365621e-01 -8.944335e-01 -8.455344e-01 -7.998723e-01 -7.476539e-01 -6.993538e-01 -6.447422e-01 -5.946653e-01 -5.385395e-01 -4.874847e-01 -4.306509e-01 -3.793338e-01 -3.225078e-01 -2.715470e-01 -2.153432e-01 -1.652542e-01 -1.101826e-01 -6.137838e-02 -7.847534e-03 3.935533e-02 9.103037e-02 1.364015e-01 1.859877e-01 2.293699e-01 2.767022e-01 3.179969e-01 3.629638e-01 4.021159e-01 4.446443e-01 4.816279e-01 5.216687e-01 5.564736e-01 5.939889e-01 6.266080e-01 6.615595e-01 6.919790e-01 7.243177e-01 7.525081e-01 7.821670e-01 
8.115500e-01 8.386179e-01 8.622790e-01 8.864866e-01 9.077037e-01 9.289011e-01 9.475344e-01 9.655405e-01 9.814193e-01 9.960243e-01 1.008951e+00 1.019922e+00 1.029676e+00 1.036764e+00 1.043112e+00 1.046061e+00 1.048764e+00 1.047322e+00 1.046147e+00 1.040079e+00 1.034806e+00 1.023909e+00 1.014348e+00 9.984577e-01 9.844541e-01 9.634636e-01 9.449103e-01 9.187748e-01 8.956189e-01 8.643654e-01 8.366134e-01 8.003451e-01 7.680667e-01 7.269646e-01 6.902941e-01 6.446164e-01 6.037530e-01 5.538320e-01 5.090388e-01 4.552767e-01 4.068793e-01 3.497433e-01 2.981289e-01 2.381463e-01 1.837630e-01 1.215168e-01 6.487356e-02 9.991026e-04 -5.733415e-02 -1.221517e-01 -1.815441e-01 -2.465726e-01 -3.063329e-01 -3.707961e-01 -4.301759e-01 -4.932583e-01 -5.514576e-01 -6.123111e-01 -6.684879e-01 -7.262427e-01 -7.795266e-01 -8.333054e-01 -8.828167e-01 -9.317534e-01 -9.766258e-01 -1.019888e+00 -1.059296e+00 -1.096111e+00 -1.129298e+00 -1.158981e+00 -1.185292e+00 -1.207274e+00 -1.226183e+00 -1.240036e+00 -1.251172e+00 -1.256636e+00 -1.259806e+00 -1.256801e+00 -1.252000e+00 -1.240639e+00 -1.228056e+00 -1.208645e+00 -1.188657e+00 -1.161684e+00 -1.134841e+00 -1.100958e+00 -1.067955e+00 -1.027949e+00 -9.895974e-01 -9.443557e-01 -9.015415e-01 -8.520112e-01 -8.056581e-01 -7.528068e-01 -7.038355e-01 -6.486131e-01 -5.979065e-01 -5.412112e-01 -4.895851e-01 -4.322378e-01 -3.804191e-01 -3.231442e-01 -2.717574e-01 -2.151729e-01 -1.647343e-01 -1.093490e-01 -6.026807e-02 -6.485639e-03 4.092805e-02 9.280052e-02 1.383258e-01 1.880650e-01 2.315553e-01 2.790070e-01 3.203750e-01 3.654387e-01 4.046404e-01 4.472536e-01 4.842738e-01 5.243973e-01 5.592351e-01 5.968402e-01 6.294970e-01 6.645528e-01 6.950216e-01 7.274857e-01 7.557427e-01 7.855528e-01 
8.183929e-01 8.455217e-01 8.692888e-01 8.935845e-01 9.149424e-01 9.362544e-01 9.550616e-01 9.732058e-01 9.892878e-01 1.004049e+00 1.017202e+00 1.028339e+00 1.038335e+00 1.045589e+00 1.052186e+00 1.055289e+00 1.058237e+00 1.056927e+00 1.055980e+00 1.050009e+00 1.044939e+00 1.034090e+00 1.024695e+00 1.008795e+00 9.949130e-01 9.738454e-01 9.553605e-01 9.290748e-01 9.059283e-01 8.744479e-01 8.466419e-01 8.100691e-01 7.776706e-01 7.361878e-01 6.993293e-01 6.531979e-01 6.120772e-01 5.616338e-01 5.165128e-01 4.621645e-01 4.133674e-01 3.555860e-01 3.034980e-01 2.428149e-01 1.878819e-01 1.248835e-01 6.761250e-02 2.937180e-03 -5.610321e-02 -1.217672e-01 -1.819455e-01 -2.478620e-01 -3.084838e-01 -3.738706e-01 -4.341803e-01 -4.982130e-01 -5.573985e-01 -6.192165e-01 -6.764184e-01 -7.351347e-01 -7.894596e-01 -8.441752e-01 -8.947148e-01 -9.445376e-01 -9.903925e-01 -1.034461e+00 -1.074769e+00 -1.112278e+00 -1.146247e+00 -1.176480e+00 -1.203419e+00 -1.225777e+00 -1.245127e+00 -1.259159e+00 -1.270527e+00 -1.275952e+00 -1.279129e+00 -1.275859e+00 -1.270837e+00 -1.258989e+00 -1.245964e+00 -1.225856e+00 -1.205226e+00 -1.177372e+00 -1.149717e+00 -1.114802e+00 -1.080856e+00 -1.039711e+00 -1.000328e+00 -9.538849e-01 -9.099989e-01 -8.592512e-01 -8.118298e-01 -7.577893e-01 -7.077934e-01 -6.514481e-01 -5.997937e-01 -5.420725e-01 -4.896001e-01 -4.313454e-01 -3.787978e-01 -3.207465e-01 -2.687550e-01 -2.115289e-01 -1.606090e-01 -1.047132e-01 -5.526690e-02 -1.095273e-03 4.658010e-02 9.873436e-02 1.444333e-01 1.943636e-01 2.379570e-01 2.855270e-01 3.269453e-01 3.720726e-01 4.112893e-01 4.539287e-01 4.909446e-01 5.310729e-01 5.659015e-01 6.035037e-01 6.361587e-01 6.712159e-01 7.017005e-01 7.341797e-01 7.624778e-01 7.923236e-01 
8.243830e-01 8.517509e-01 8.756827e-01 9.002642e-01 9.218272e-01 9.434712e-01 9.625222e-01 9.810408e-01 9.974006e-01 1.012572e+00 1.026029e+00 1.037602e+00 1.047919e+00 1.055621e+00 1.062544e+00 1.066093e+00 1.069356e+00 1.068471e+00 1.067816e+00 1.062232e+00 1.057413e+00 1.046896e+00 1.037698e+00 1.022056e+00 1.008303e+00 9.874057e-01 9.689723e-01 9.427572e-01 9.195765e-01 8.880591e-01 8.601288e-01 8.234072e-01 7.907920e-01 7.490484e-01 7.118815e-01 6.653799e-01 6.238615e-01 5.729435e-01 5.273388e-01 4.724179e-01 4.230546e-01 3.646091e-01 3.118761e-01 2.504436e-01 1.947897e-01 1.309622e-01 7.289677e-02 7.317618e-03 -5.258785e-02 -1.192256e-01 -1.803359e-01 -2.472905e-01 -3.089054e-01 -3.753870e-01 -4.367421e-01 -5.019158e-01 -5.621861e-01 -6.251767e-01 -6.834849e-01 -7.433863e-01 -7.988162e-01 -8.547052e-01 -9.063209e-01 -9.572768e-01 -1.004148e+00 -1.049276e+00 -1.090506e+00 -1.128970e+00 -1.163732e+00 -1.194778e+00 -1.222347e+00 -1.245346e+00 -1.265136e+00 -1.279607e+00 -1.291201e+00 -1.296843e+00 -1.300017e+00 -1.296730e+00 -1.291471e+00 -1.279369e+00 -1.265880e+00 -1.245292e+00 -1.223988e+00 -1.195449e+00 -1.166939e+00 -1.131167e+00 -1.096222e+00 -1.054086e+00 -1.013606e+00 -9.660848e-01 -9.210495e-01 -8.691855e-01 -8.206102e-01 -7.654601e-01 -7.143489e-01 -6.569415e-01 -6.042470e-01 -5.455442e-01 -4.921349e-01 -4.330028e-01 -3.796397e-01 -3.208293e-01 -2.681526e-01 -2.102907e-01 -1.588161e-01 -1.024045e-01 -5.252677e-02 2.050058e-03 5.004625e-02 1.025094e-01 1.484349e-01 1.985948e-01 2.423390e-01 2.900781e-01 3.315904e-01 3.768450e-01 4.161178e-01 4.588607e-01 4.959122e-01 5.361370e-01 5.709965e-01 6.087030e-01 6.413979e-01 6.765800e-01 7.071250e-01 7.397600e-01 7.681477e-01 7.981884e-01 
8.337290e-01 8.612153e-01 8.853062e-01 9.100512e-01 9.318260e-01 9.536777e-01 9.729906e-01 9.917564e-01 1.008423e+00 1.023872e+00 1.037671e+00 1.049541e+00 1.060225e+00 1.068228e+00 1.075526e+00 1.079363e+00 1.082995e+00 1.082367e+00 1.082057e+00 1.076677e+00 1.072164e+00 1.061781e+00 1.052833e+00 1.037238e+00 1.023666e+00 1.002715e+00 9.843809e-01 9.580015e-01 9.348310e-01 9.030328e-01 8.750176e-01 8.378974e-01 8.050991e-01 7.628413e-01 7.253915e-01 6.782654e-01 6.363636e-01 5.847179e-01 5.386287e-01 4.828844e-01 4.329346e-01 3.735774e-01 3.201536e-01 2.577272e-01 2.012756e-01 1.363768e-01 7.740369e-02 1.067962e-02 -5.024585e-02 -1.180986e-01 -1.803413e-01 -2.485761e-01 -3.114323e-01 -3.792523e-01 -4.419483e-01 -5.085068e-01 -5.702016e-01 -6.346063e-01 -6.943984e-01 -7.557190e-01 -8.126595e-01 -8.699418e-01 -9.230537e-01 -9.753388e-01 -1.023643e+00 -1.069993e+00 -1.112541e+00 -1.152070e+00 -1.187979e+00 -1.219887e+00 -1.248379e+00 -1.271990e+00 -1.292433e+00 -1.307226e+00 -1.319165e+00 -1.324812e+00 -1.327999e+00 -1.324386e+00 -1.318802e+00 -1.306043e+00 -1.291903e+00 -1.270346e+00 -1.248094e+00 -1.218311e+00 -1.188601e+00 -1.151361e+00 -1.115023e+00 -1.071259e+00 -1.029259e+00 -9.800170e-01 -9.334056e-01 -8.797977e-01 -8.296561e-01 -7.728054e-01 -7.201975e-01 -6.611894e-01 -6.071168e-01 -5.469578e-01 -4.923251e-01 -4.319123e-01 -3.775026e-01 -3.176039e-01 -2.640664e-01 -2.053126e-01 -1.531598e-01 -9.604568e-02 -4.566006e-02 9.445775e-03 5.779909e-02 1.106394e-01 1.567953e-01 2.072061e-01 2.510801e-01 2.989705e-01 3.405389e-01 3.858719e-01 4.251523e-01 4.679261e-01 5.049605e-01 5.451915e-01 5.800298e-01 6.177380e-01 6.504255e-01 6.856217e-01 7.161874e-01 7.488625e-01 7.773104e-01 8.074270e-01 
8.421522e-01 8.699340e-01 8.942424e-01 9.193489e-01 9.414009e-01 9.636796e-01 9.833272e-01 1.002581e+00 1.019633e+00 1.035621e+00 1.049846e+00 1.062293e+00 1.073429e+00 1.082028e+00 1.089788e+00 1.094218e+00 1.098302e+00 1.098240e+00 1.098349e+00 1.093483e+00 1.089335e+00 1.079386e+00 1.070728e+00 1.055466e+00 1.042089e+00 1.021347e+00 1.003101e+00 9.767905e-01 9.535879e-01 9.217081e-01 8.935348e-01 8.561775e-01 8.230930e-01 7.804431e-01 7.425802e-01 6.949123e-01 6.524743e-01 6.001454e-01 5.534018e-01 4.968429e-01 4.461255e-01 3.858321e-01 3.315319e-01 2.680567e-01 2.106229e-01 1.445700e-01 8.451101e-02 1.653355e-02 -4.557950e-02 -1.147797e-01 -1.783085e-01 -2.479789e-01 -3.122134e-01 -3.815484e-01 -4.457043e-01 -5.138443e-01 -5.770634e-01 -6.430968e-01 -7.044532e-01 -7.674237e-01 -8.259361e-01 -8.848553e-01 -9.395069e-01 -9.933752e-01 -1.043141e+00 -1.090974e+00 -1.134854e+00 -1.175716e+00 -1.212777e+00 -1.245817e+00 -1.275232e+00 -1.299726e+00 -1.320817e+00 -1.336204e+00 -1.348481e+00 -1.354400e+00 -1.357592e+00 -1.353910e+00 -1.347989e+00 -1.334817e+00 -1.320008e+00 -1.297709e+00 -1.274480e+00 -1.243657e+00 -1.212706e+00 -1.174175e+00 -1.136389e+00 -1.091145e+00 -1.047556e+00 -9.967141e-01 -9.484426e-01 -8.931872e-01 -8.413856e-01 -7.829079e-01 -7.287040e-01 -6.681495e-01 -6.125985e-01 -5.510219e-01 -4.950682e-01 -4.334001e-01 -3.778522e-01 -3.168795e-01 -2.623975e-01 -2.027558e-01 -1.498503e-01 -9.202789e-02 -4.106876e-02 1.458167e-02 6.334938e-02 1.165929e-01 1.630292e-01 2.137278e-01 2.577759e-01 3.058664e-01 3.475307e-01 3.930035e-01 4.323289e-01 4.752083e-01 5.122616e-01 5.525879e-01 5.874415e-01 6.252559e-01 6.579742e-01 6.933053e-01 7.239333e-01 7.567868e-01 7.853411e-01 8.156909e-01 
8.539074e-01 8.818622e-01 9.063818e-01 9.317282e-01 9.540654e-01 9.766496e-01 9.966531e-01 1.016271e+00 1.033742e+00 1.050142e+00 1.064837e+00 1.077727e+00 1.089367e+00 1.098421e+00 1.106698e+00 1.111569e+00 1.116163e+00 1.116501e+00 1.117088e+00 1.112555e+00 1.108830e+00 1.099119e+00 1.090807e+00 1.075664e+00 1.062537e+00 1.041775e+00 1.023668e+00 9.971848e-01 9.739988e-01 9.417859e-01 9.135002e-01 8.756477e-01 8.423187e-01 7.990159e-01 7.607758e-01 7.123056e-01 6.693586e-01 6.160888e-01 5.687053e-01 5.110785e-01 4.595897e-01 3.981121e-01 3.429069e-01 2.781395e-01 2.196631e-01 1.522161e-01 9.097181e-02 2.150177e-02 -4.194393e-02 -1.127323e-01 -1.777435e-01 -2.490938e-01 -3.149584e-01 -3.860580e-01 -4.519820e-01 -5.219585e-01 -5.870647e-01 -6.549858e-01 -7.183177e-01 -7.831965e-01 -8.437303e-01 -9.045375e-01 -9.612013e-01 -1.016886e+00 -1.068589e+00 -1.118106e+00 -1.163777e+00 -1.206124e+00 -1.244751e+00 -1.279010e+00 -1.309691e+00 -1.335072e+00 -1.357062e+00 -1.372947e+00 -1.385703e+00 -1.391688e+00 -1.394905e+00 -1.390832e+00 -1.384471e+00 -1.370454e+00 -1.354753e+00 -1.331177e+00 -1.306649e+00 -1.274168e+00 -1.241571e+00 -1.201074e+00 -1.161380e+00 -1.113948e+00 -1.068282e+00 -1.015129e+00 -9.647104e-01 -9.071192e-01 -8.531935e-01 -7.924469e-01 -7.362254e-01 -6.735474e-01 -6.161522e-01 -5.526580e-01 -4.950817e-01 -4.317424e-01 -3.748216e-01 -3.124446e-01 -2.568485e-01 -1.960717e-01 -1.423037e-01 -8.360237e-02 -3.201232e-02 2.428518e-02 7.348146e-02 1.271722e-01 1.738695e-01 2.248516e-01 2.690299e-01 3.172779e-01 3.589784e-01 4.045192e-01 4.438216e-01 4.867134e-01 5.237160e-01 5.640299e-01 5.988327e-01 6.366363e-01 6.693270e-01 7.046713e-01 7.353141e-01 7.682224e-01 7.968482e-01 8.273077e-01 
8.646431e-01 8.929462e-01 9.177345e-01 9.435187e-01 9.662076e-01 9.893188e-01 1.009754e+00 1.029982e+00 1.047957e+00 1.065039e+00 1.080296e+00 1.093921e+00 1.106163e+00 1.115981e+00 1.124877e+00 1.130514e+00 1.135716e+00 1.136787e+00 1.137943e+00 1.134076e+00 1.130850e+00 1.121702e+00 1.113791e+00 1.099076e+00 1.086227e+00 1.065729e+00 1.047756e+00 1.021351e+00 9.981412e-01 9.658068e-01 9.373318e-01 8.991531e-01 8.654671e-01 8.216358e-01 7.828744e-01 7.336823e-01 6.900558e-01 6.358842e-01 5.876706e-01 5.289770e-01 4.765150e-01 4.138200e-01 3.575039e-01 2.913809e-01 2.316589e-01 1.627268e-01 1.001030e-01 2.902465e-02 -3.593444e-02 -1.084503e-01 -1.751078e-01 -2.483001e-01 -3.159389e-01 -3.889871e-01 -4.568024e-01 -5.288201e-01 -5.959146e-01 -6.659469e-01 -7.313335e-01 -7.983606e-01 -8.609731e-01 -9.239216e-01 -9.826347e-01 -1.040399e+00 -1.094059e+00 -1.145532e+00 -1.192997e+00 -1.237107e+00 -1.277295e+00 -1.313053e+00 -1.344992e+00 -1.371541e+00 -1.394422e+00 -1.411087e+00 -1.424316e+00 -1.430647e+00 -1.433885e+00 -1.429695e+00 -1.422890e+00 -1.408286e+00 -1.391685e+00 -1.367072e+00 -1.341223e+00 -1.307297e+00 -1.273018e+00 -1.230736e+00 -1.189078e+00 -1.139607e+00 -1.091788e+00 -1.036442e+00 -9.837818e-01 -9.239432e-01 -8.677873e-01 -8.048360e-01 -7.464844e-01 -6.817278e-01 -6.223757e-01 -5.569942e-01 -4.976877e-01 -4.326964e-01 -3.743038e-01 -3.105327e-01 -2.537347e-01 -1.918249e-01 -1.371185e-01 -7.753230e-02 -2.524693e-02 3.171232e-02 8.139140e-02 1.355536e-01 1.825575e-01 2.338580e-01 2.782056e-01 3.266572e-01 3.684284e-01 4.140954e-01 4.534064e-01 4.963822e-01 5.333646e-01 5.737516e-01 6.085347e-01 6.464282e-01 6.791248e-01 7.145993e-01 7.452939e-01 7.783921e-01 8.071319e-01 8.378555e-01 
8.786716e-01 9.071987e-01 9.322491e-01 9.583509e-01 9.814017e-01 1.004923e+00 1.025815e+00 1.046538e+00 1.065055e+00 1.082700e+00 1.098570e+00 1.112806e+00 1.125709e+00 1.136159e+00 1.145737e+00 1.151994e+00 1.157870e+00 1.159514e+00 1.161305e+00 1.157924e+00 1.155261e+00 1.146478e+00 1.139030e+00 1.124523e+00 1.112011e+00 1.091540e+00 1.073757e+00 1.047178e+00 1.023998e+00 9.912798e-01 9.626678e-01 9.238934e-01 8.899018e-01 8.452704e-01 8.060367e-01 7.558535e-01 7.115917e-01 6.562545e-01 6.072458e-01 5.472292e-01 4.938133e-01 4.296531e-01 3.722219e-01 3.045025e-01 2.434981e-01 1.728451e-01 1.087635e-01 3.584199e-02 -3.075989e-02 -1.052408e-01 -1.737331e-01 -2.490119e-01 -3.186791e-01 -3.939310e-01 -4.639606e-01 -5.382874e-01 -6.077618e-01 -6.801860e-01 -7.480825e-01 -8.175481e-01 -8.827476e-01 -9.481302e-01 -1.009437e+00 -1.069565e+00 -1.125741e+00 -1.179426e+00 -1.229231e+00 -1.275315e+00 -1.317563e+00 -1.354962e+00 -1.388578e+00 -1.416346e+00 -1.440428e+00 -1.457807e+00 -1.471685e+00 -1.478164e+00 -1.481450e+00 -1.476806e+00 -1.469430e+00 -1.453766e+00 -1.435995e+00 -1.409747e+00 -1.382181e+00 -1.346112e+00 -1.309659e+00 -1.264823e+00 -1.220647e+00 -1.168332e+00 -1.117781e+00 -1.059436e+00 -1.003963e+00 -9.411054e-01 -8.821846e-01 -8.163177e-01 -7.553603e-01 -6.878968e-01 -6.261865e-01 -5.583853e-01 -4.970289e-01 -4.299554e-01 -3.698544e-01 -3.043607e-01 -2.462025e-01 -1.829271e-01 -1.271940e-01 -6.657686e-02 -1.356670e-02 4.412573e-02 9.427013e-02 1.489135e-01 1.961718e-01 2.477513e-01 2.921926e-01 3.407713e-01 3.825242e-01 4.282146e-01 4.674404e-01 5.103796e-01 5.472501e-01 5.875795e-01 6.222588e-01 6.601069e-01 6.927369e-01 7.282059e-01 7.588946e-01 7.920492e-01 8.208617e-01 8.517202e-01 
8.915547e-01 9.204778e-01 9.458460e-01 9.724620e-01 9.959419e-01 1.020096e+00 1.041526e+00 1.062992e+00 1.082145e+00 1.100633e+00 1.117219e+00 1.132373e+00 1.146050e+00 1.157463e+00 1.167844e+00 1.175071e+00 1.181742e+00 1.184320e+00 1.186859e+00 1.184332e+00 1.182331e+00 1.174273e+00 1.167362e+00 1.153407e+00 1.141275e+00 1.121144e+00 1.103556e+00 1.077078e+00 1.053892e+00 1.021017e+00 9.921866e-01 9.529943e-01 9.185722e-01 8.732668e-01 8.333972e-01 7.822988e-01 7.372065e-01 6.807336e-01 6.307121e-01 5.693619e-01 5.147617e-01 4.490907e-01 3.903110e-01 3.209200e-01 2.584056e-01 1.859305e-01 1.201757e-01 4.528639e-02 -2.315586e-02 -9.974925e-02 -1.702527e-01 -2.477881e-01 -3.196368e-01 -3.972849e-01 -4.696573e-01 -5.465076e-01 -6.184652e-01 -6.935161e-01 -7.640001e-01 -8.361564e-01 -9.039950e-01 -9.720775e-01 -1.036007e+00 -1.098773e+00 -1.157471e+00 -1.213653e+00 -1.265787e+00 -1.314132e+00 -1.358420e+00 -1.397752e+00 -1.433023e+00 -1.462304e+00 -1.487570e+00 -1.505963e+00 -1.520483e+00 -1.527410e+00 -1.530746e+00 -1.525945e+00 -1.518006e+00 -1.501564e+00 -1.482626e+00 -1.455003e+00 -1.425713e+00 -1.387727e+00 -1.349071e+00 -1.301870e+00 -1.255119e+00 -1.200109e+00 -1.146741e+00 -1.085506e+00 -1.027112e+00 -9.613104e-01 -8.995000e-01 -8.307671e-01 -7.670721e-01 -6.969326e-01 -6.327337e-01 -5.625315e-01 -4.990037e-01 -4.298587e-01 -3.679411e-01 -3.007299e-01 -2.411191e-01 -1.764783e-01 -1.196420e-01 -5.798812e-02 -4.191338e-03 5.424710e-02 1.049063e-01 1.600522e-01 2.076044e-01 2.594944e-01 3.040616e-01 3.528099e-01 3.945717e-01 4.403398e-01 4.795048e-01 5.224746e-01 5.592566e-01 5.996091e-01 6.342089e-01 6.721072e-01 7.046974e-01 7.402729e-01 7.709868e-01 8.043278e-01 8.332504e-01 8.643937e-01 
9.076694e-01 9.368627e-01 9.625424e-01 9.895553e-01 1.013478e+00 1.038154e+00 1.060153e+00 1.082258e+00 1.102094e+00 1.121316e+00 1.138680e+00 1.154640e+00 1.169161e+00 1.181416e+00 1.192674e+00 1.200737e+00 1.208279e+00 1.211638e+00 1.215001e+00 1.213151e+00 1.211883e+00 1.204349e+00 1.198042e+00 1.184414e+00 1.172723e+00 1.152686e+00 1.135352e+00 1.108710e+00 1.085573e+00 1.052264e+00 1.023274e+00 9.833776e-01 9.485870e-01 9.023209e-01 8.618804e-01 8.095852e-01 7.637283e-01 7.058477e-01 6.548752e-01 5.919317e-01 5.361975e-01 4.687690e-01 4.086699e-01 3.373717e-01 2.733440e-01 1.988187e-01 1.313426e-01 5.425959e-02 -1.612834e-02 -9.506434e-02 -1.677532e-01 -2.477861e-01 -3.220690e-01 -4.023716e-01 -4.774247e-01 -5.570792e-01 -6.319455e-01 -7.099284e-01 -7.835097e-01 -8.586858e-01 -9.297475e-01 -1.000876e+00 -1.068067e+00 -1.133825e+00 -1.195713e+00 -1.254726e+00 -1.309854e+00 -1.360754e+00 -1.407698e+00 -1.449186e+00 -1.486638e+00 -1.517549e+00 -1.544393e+00 -1.563778e+00 -1.579167e+00 -1.586361e+00 -1.589786e+00 -1.584471e+00 -1.575812e+00 -1.558065e+00 -1.537621e+00 -1.507937e+00 -1.476428e+00 -1.435715e+00 -1.394243e+00 -1.343779e+00 -1.293771e+00 -1.235128e+00 -1.178237e+00 -1.113180e+00 -1.051182e+00 -9.815520e-01 -9.162243e-01 -8.438245e-01 -7.768475e-01 -7.033388e-01 -6.362066e-01 -5.630325e-01 -4.969945e-01 -4.253341e-01 -3.613653e-01 -2.921158e-01 -2.309135e-01 -1.646992e-01 -1.067032e-01 -4.390317e-02 1.066976e-02 6.988179e-02 1.209946e-01 1.766057e-01 2.243556e-01 2.764697e-01 3.210453e-01 3.698426e-01 4.114864e-01 4.571894e-01 4.961668e-01 5.390121e-01 5.755864e-01 6.158026e-01 6.502166e-01 6.880071e-01 7.204681e-01 7.559974e-01 7.866667e-01 8.200496e-01 8.490335e-01 8.803263e-01 
9.224804e-01 9.521105e-01 9.781541e-01 1.005757e+00 1.030190e+00 1.055611e+00 1.078262e+00 1.101260e+00 1.121880e+00 1.142128e+00 1.160387e+00 1.177477e+00 1.192975e+00 1.206428e+00 1.218707e+00 1.227988e+00 1.236550e+00 1.241093e+00 1.245423e+00 1.244661e+00 1.244257e+00 1.237652e+00 1.232053e+00 1.219138e+00 1.207956e+00 1.188365e+00 1.171305e+00 1.144804e+00 1.121686e+00 1.088192e+00 1.058954e+00 1.018543e+00 9.832415e-01 9.361409e-01 8.949392e-01 8.415148e-01 7.946643e-01 7.353916e-01 6.832128e-01 6.186478e-01 5.615111e-01 4.922618e-01 4.305740e-01 3.572775e-01 2.914769e-01 2.147873e-01 1.453484e-01 6.593674e-02 -6.615041e-03 -8.804939e-02 -1.631152e-01 -2.458238e-01 -3.227045e-01 -4.058636e-01 -4.837324e-01 -5.664174e-01 -6.442978e-01 -7.254620e-01 -8.022160e-01 -8.806803e-01 -9.550100e-01 -1.029468e+00 -1.099936e+00 -1.168974e+00 -1.234042e+00 -1.296182e+00 -1.354270e+00 -1.408025e+00 -1.457583e+00 -1.501527e+00 -1.541119e+00 -1.573969e+00 -1.602362e+00 -1.623058e+00 -1.639308e+00 -1.647094e+00 -1.650621e+00 -1.645119e+00 -1.635768e+00 -1.617031e+00 -1.595110e+00 -1.563655e+00 -1.529938e+00 -1.486747e+00 -1.442442e+00 -1.388914e+00 -1.335591e+00 -1.273459e+00 -1.212949e+00 -1.144166e+00 -1.078431e+00 -1.005029e+00 -9.360314e-01 -8.599919e-01 -7.895729e-01 -7.127054e-01 -6.424850e-01 -5.663415e-01 -4.976534e-01 -4.234775e-01 -3.573380e-01 -2.860497e-01 -2.231589e-01 -1.553698e-01 -9.613860e-02 -3.218828e-02 2.321776e-02 8.321284e-02 1.348213e-01 1.909149e-01 2.388933e-01 2.912584e-01 3.358654e-01 3.847494e-01 4.262932e-01 4.719806e-01 5.107855e-01 5.535683e-01 5.899493e-01 6.301043e-01 6.643480e-01 7.021199e-01 7.344702e-01 7.700583e-01 8.007064e-01 8.342538e-01 8.633296e-01 8.949150e-01 
9.404313e-01 9.703718e-01 9.967745e-01 1.024855e+00 1.049817e+00 1.075881e+00 1.099227e+00 1.123024e+00 1.144488e+00 1.165669e+00 1.184899e+00 1.203024e+00 1.219584e+00 1.234131e+00 1.247521e+00 1.257900e+00 1.267572e+00 1.273156e+00 1.278539e+00 1.278694e+00 1.279232e+00 1.273355e+00 1.268535e+00 1.256101e+00 1.245490e+00 1.226084e+00 1.209358e+00 1.182713e+00 1.159673e+00 1.125692e+00 1.096271e+00 1.055035e+00 1.019296e+00 9.710529e-01 9.291732e-01 8.743210e-01 8.265692e-01 7.656213e-01 7.123322e-01 6.458821e-01 5.874338e-01 5.161198e-01 4.529175e-01 3.773960e-01 3.098652e-01 2.307965e-01 1.593898e-01 7.743886e-02 2.653931e-03 -8.149453e-02 -1.590871e-01 -2.447022e-01 -3.244250e-01 -4.106968e-01 -4.917313e-01 -5.777372e-01 -6.590943e-01 -7.437709e-01 -8.242725e-01 -9.063992e-01 -9.846754e-01 -1.062875e+00 -1.137382e+00 -1.210140e+00 -1.279203e+00 -1.344911e+00 -1.406783e+00 -1.463802e+00 -1.516751e+00 -1.563489e+00 -1.605894e+00 -1.640898e+00 -1.671351e+00 -1.693408e+00 -1.710816e+00 -1.719043e+00 -1.722726e+00 -1.716661e+00 -1.706420e+00 -1.686094e+00 -1.662259e+00 -1.628233e+00 -1.591673e+00 -1.545040e+00 -1.497123e+00 -1.439459e+00 -1.381964e+00 -1.315226e+00 -1.250222e+00 -1.176611e+00 -1.106306e+00 -1.028102e+00 -9.546882e-01 -8.740931e-01 -7.996025e-01 -7.186039e-01 -6.448004e-01 -5.650735e-01 -4.933793e-01 -4.162338e-01 -3.476998e-01 -2.740694e-01 -2.093836e-01 -1.398505e-01 -7.937502e-02 -1.421788e-02 4.195472e-02 1.026997e-01 1.546834e-01 2.111590e-01 2.592116e-01 3.116804e-01 3.561475e-01 4.049413e-01 4.462105e-01 4.916897e-01 5.301550e-01 5.726779e-01 6.087132e-01 6.486132e-01 6.825542e-01 7.201228e-01 7.522536e-01 7.877284e-01 8.182720e-01 8.518268e-01 8.809375e-01 9.126740e-01 
9.568847e-01 9.872934e-01 1.014102e+00 1.042847e+00 1.068402e+00 1.095331e+00 1.119456e+00 1.144311e+00 1.166728e+00 1.189144e+00 1.209476e+00 1.228982e+00 1.246759e+00 1.262787e+00 1.277462e+00 1.289363e+00 1.300330e+00 1.307407e+00 1.314030e+00 1.315569e+00 1.317221e+00 1.312539e+00 1.308642e+00 1.297132e+00 1.287194e+00 1.268376e+00 1.252027e+00 1.225585e+00 1.202598e+00 1.168408e+00 1.138708e+00 1.096847e+00 1.060505e+00 1.011243e+00 9.684587e-01 9.122313e-01 8.633034e-01 8.006731e-01 7.459676e-01 6.775783e-01 6.174990e-01 5.440323e-01 4.789989e-01 4.011406e-01 3.315796e-01 2.500024e-01 1.763541e-01 9.171868e-02 1.445832e-02 -7.256733e-02 -1.528953e-01 -2.416021e-01 -3.243422e-01 -4.139382e-01 -4.982807e-01 -5.878475e-01 -6.727902e-01 -7.612466e-01 -8.455697e-01 -9.316483e-01 -1.013908e+00 -1.096152e+00 -1.174699e+00 -1.251485e+00 -1.324506e+00 -1.394091e+00 -1.459683e+00 -1.520272e+00 -1.576536e+00 -1.626376e+00 -1.671522e+00 -1.709000e+00 -1.741465e+00 -1.765220e+00 -1.783779e+00 -1.792804e+00 -1.796675e+00 -1.790418e+00 -1.779348e+00 -1.757797e+00 -1.732118e+00 -1.695853e+00 -1.656500e+00 -1.606704e+00 -1.555178e+00 -1.493588e+00 -1.431863e+00 -1.360656e+00 -1.291042e+00 -1.212675e+00 -1.137635e+00 -1.054652e+00 -9.766267e-01 -8.914696e-01 -8.127063e-01 -7.275577e-01 -6.499821e-01 -5.666527e-01 -4.917883e-01 -4.116604e-01 -3.405993e-01 -2.646215e-01 -1.980401e-01 -1.267624e-01 -6.497108e-02 1.392703e-03 5.838018e-02 1.198786e-01 1.722686e-01 2.291372e-01 2.772828e-01 3.298761e-01 3.742144e-01 4.229501e-01 4.639511e-01 5.092661e-01 5.473958e-01 5.897149e-01 6.254082e-01 6.651212e-01 6.987646e-01 7.362110e-01 7.681305e-01 8.035878e-01 8.340403e-01 8.677154e-01 8.968824e-01 9.289033e-01 