# vtk DataFile Version 2.0
Comment goes here
ASCII

DATASET STRUCTURED_POINTS
FIELD FieldData 1
TIME 1 1 double
0.21500000
DIMENSIONS    128   128   1

ORIGIN    0.000   0.000   0.000
SPACING   0.039062 0.039062   1.000

POINT_DATA   16384
SCALARS uX double
LOOKUP_TABLE default

-3.806677e-02 -2.768369e-02 -1.554857e-02 -4.753484e-03 7.698419e-03 1.873431e-02 3.130715e-02 4.239832e-02 5.488556e-02 6.583622e-02 7.802500e-02 8.863388e-02 1.003102e-01 1.103761e-01 1.213307e-01 1.306586e-01 1.406931e-01 1.491005e-01 1.580340e-01 1.653578e-01 1.730332e-01 1.791352e-01 1.854251e-01 1.901977e-01 1.950087e-01 1.983791e-01 2.016556e-01 2.035878e-01 2.053135e-01 2.058096e-01 2.060075e-01 2.051063e-01 2.038365e-01 2.016113e-01 1.989677e-01 1.955215e-01 1.916265e-01 1.870869e-01 1.820859e-01 1.765988e-01 1.706530e-01 1.643763e-01 1.576559e-01 1.507526e-01 1.434302e-01 1.360626e-01 1.283065e-01 1.206304e-01 1.125992e-01 1.047595e-01 9.659671e-02 8.872371e-02 8.055478e-02 7.276148e-02 6.469060e-02 5.707121e-02 4.918007e-02 4.180936e-02 3.415675e-02 2.709029e-02 1.971290e-02 1.298800e-02 5.902094e-03 -4.606660e-04 -7.256629e-03 -1.325148e-02 -1.977365e-02 -2.540740e-02 -3.168282e-02 -3.697248e-02 -4.303511e-02 -4.800546e-02 -5.389210e-02 -5.857322e-02 -6.431966e-02 -6.874445e-02 -7.438183e-02 -7.858364e-02 -8.413523e-02 -8.814546e-02 -9.362403e-02 -9.746977e-02 -1.028754e-01 -1.065771e-01 -1.118958e-01 -1.154650e-01 -1.206676e-01 -1.241049e-01 -1.291470e-01 -1.324402e-01 -1.372624e-01 -1.403853e-01 -1.449143e-01 -1.478261e-01 -1.519762e-01 -1.546217e-01 -1.582975e-01 -1.606081e-01 -1.637071e-01 -1.656030e-01 -1.680196e-01 -1.694126e-01 -1.710417e-01 -1.718391e-01 -1.725803e-01 -1.726892e-01 -1.724511e-01 -1.717826e-01 -1.704864e-01 -1.689605e-01 -1.665439e-01 -1.640934e-01 -1.605134e-01 -1.570878e-01 -1.523231e-01 -1.478914e-01 -1.419440e-01 -1.364971e-01 -1.293935e-01 -1.229458e-01 -1.147371e-01 -1.073276e-01 -9.808943e-02 -8.978158e-02 -7.961388e-02 -7.049555e-02 -5.952107e-02 -4.970363e-02 
-3.811236e-02 -2.769402e-02 -1.553935e-02 -4.709817e-03 7.766711e-03 1.883581e-02 3.143800e-02 4.256064e-02 5.508148e-02 6.606122e-02 7.828728e-02 8.892211e-02 1.006387e-01 1.107266e-01 1.217236e-01 1.310686e-01 1.411469e-01 1.495657e-01 1.585434e-01 1.658719e-01 1.735912e-01 1.796905e-01 1.860230e-01 1.907850e-01 1.956369e-01 1.989882e-01 2.023033e-01 2.042078e-01 2.059695e-01 2.064294e-01 2.066603e-01 2.057150e-01 2.044753e-01 2.021983e-01 1.995820e-01 1.960772e-01 1.922070e-01 1.876029e-01 1.826243e-01 1.770677e-01 1.711422e-01 1.647922e-01 1.580901e-01 1.511109e-01 1.438051e-01 1.363600e-01 1.286189e-01 1.208650e-01 1.128470e-01 1.049303e-01 9.677919e-02 8.883109e-02 8.067211e-02 7.280664e-02 6.474393e-02 5.705632e-02 4.917141e-02 4.173738e-02 3.408891e-02 2.696490e-02 1.958937e-02 1.281350e-02 5.726997e-03 -6.794615e-04 -7.478675e-03 -1.350936e-02 -2.003762e-02 -2.569889e-02 -3.198339e-02 -3.729197e-02 -4.336679e-02 -4.834730e-02 -5.424937e-02 -5.893190e-02 -6.469704e-02 -6.911472e-02 -7.477404e-02 -7.896060e-02 -8.453734e-02 -8.852472e-02 -9.403152e-02 -9.784751e-02 -1.032843e-01 -1.069502e-01 -1.123028e-01 -1.158311e-01 -1.210701e-01 -1.244624e-01 -1.295430e-01 -1.327883e-01 -1.376508e-01 -1.407239e-01 -1.452946e-01 -1.481557e-01 -1.523484e-01 -1.549432e-01 -1.586621e-01 -1.609227e-01 -1.640648e-01 -1.659119e-01 -1.683710e-01 -1.697168e-01 -1.713872e-01 -1.721393e-01 -1.729200e-01 -1.729853e-01 -1.727843e-01 -1.720739e-01 -1.708119e-01 -1.692456e-01 -1.668598e-01 -1.643702e-01 -1.608170e-01 -1.573531e-01 -1.526109e-01 -1.481416e-01 -1.422120e-01 -1.367281e-01 -1.296372e-01 -1.231528e-01 -1.149516e-01 -1.075056e-01 -9.826961e-02 -8.992543e-02 -7.975442e-02 -7.059997e-02 -5.961669e-02 -4.976346e-02 
-3.859938e-02 -2.813947e-02 -1.591359e-02 -5.032878e-03 7.516963e-03 1.864562e-02 3.132175e-02 4.251083e-02 5.510450e-02 6.615580e-02 7.845158e-02 8.916108e-02 1.009421e-01 1.111055e-01 1.221593e-01 1.315784e-01 1.417033e-01 1.501924e-01 1.592045e-01 1.665972e-01 1.743365e-01 1.804922e-01 1.868287e-01 1.916379e-01 1.964767e-01 1.998650e-01 2.031497e-01 2.050808e-01 2.067952e-01 2.072717e-01 2.074396e-01 2.065018e-01 2.051851e-01 2.029084e-01 2.002034e-01 1.966934e-01 1.927258e-01 1.881132e-01 1.830315e-01 1.774655e-01 1.714345e-01 1.650761e-01 1.582694e-01 1.512849e-01 1.438783e-01 1.364326e-01 1.285972e-01 1.208486e-01 1.127453e-01 1.048404e-01 9.661482e-02 8.868519e-02 8.046403e-02 7.262352e-02 6.451171e-02 5.685483e-02 4.893420e-02 4.153563e-02 3.386462e-02 2.677943e-02 1.939385e-02 1.265861e-02 5.573443e-03 -7.922410e-04 -7.580160e-03 -1.357163e-02 -2.008031e-02 -2.570557e-02 -3.196405e-02 -3.724135e-02 -4.328559e-02 -4.824094e-02 -5.410973e-02 -5.877442e-02 -6.450533e-02 -6.891348e-02 -7.453925e-02 -7.872539e-02 -8.427065e-02 -8.826737e-02 -9.374591e-02 -9.758145e-02 -1.029942e-01 -1.066901e-01 -1.120234e-01 -1.155922e-01 -1.208171e-01 -1.242604e-01 -1.293323e-01 -1.326384e-01 -1.374974e-01 -1.406406e-01 -1.452123e-01 -1.481517e-01 -1.523495e-01 -1.550292e-01 -1.587561e-01 -1.611065e-01 -1.642583e-01 -1.661982e-01 -1.686672e-01 -1.701065e-01 -1.717857e-01 -1.726296e-01 -1.734164e-01 -1.735696e-01 -1.733707e-01 -1.727422e-01 -1.714770e-01 -1.699847e-01 -1.675894e-01 -1.651643e-01 -1.615948e-01 -1.581847e-01 -1.534188e-01 -1.489916e-01 -1.430309e-01 -1.375767e-01 -1.304475e-01 -1.239803e-01 -1.157336e-01 -1.082923e-01 -9.900425e-02 -9.065243e-02 -8.042328e-02 -7.124925e-02 -6.020253e-02 -5.031833e-02 
-3.918236e-02 -2.861004e-02 -1.627362e-02 -5.272440e-03 7.400311e-03 1.865547e-02 3.146471e-02 4.278379e-02 5.551810e-02 6.669985e-02 7.914063e-02 8.997750e-02 1.019042e-01 1.121880e-01 1.233843e-01 1.329126e-01 1.431726e-01 1.517556e-01 1.608913e-01 1.683586e-01 1.762062e-01 1.824137e-01 1.888402e-01 1.936756e-01 1.985836e-01 2.019710e-01 2.053027e-01 2.072051e-01 2.089441e-01 2.093647e-01 2.095355e-01 2.085165e-01 2.071829e-01 2.048020e-01 2.020630e-01 1.984296e-01 1.944140e-01 1.896627e-01 1.845226e-01 1.788070e-01 1.727108e-01 1.661965e-01 1.593216e-01 1.521788e-01 1.447044e-01 1.371021e-01 1.292022e-01 1.213021e-01 1.131401e-01 1.050918e-01 9.681520e-02 8.875279e-02 8.048946e-02 7.252856e-02 6.438410e-02 5.662058e-02 4.867686e-02 4.118621e-02 3.350111e-02 2.633885e-02 1.894713e-02 1.214987e-02 5.065037e-03 -1.347856e-03 -8.130802e-03 -1.415519e-02 -2.065630e-02 -2.630091e-02 -3.255138e-02 -3.783538e-02 -4.387335e-02 -4.882382e-02 -5.469013e-02 -5.933961e-02 -6.507370e-02 -6.945771e-02 -7.509390e-02 -7.924856e-02 -8.481275e-02 -8.877238e-02 -9.427931e-02 -9.807405e-02 -1.035252e-01 -1.071786e-01 -1.125606e-01 -1.160872e-01 -1.213710e-01 -1.247743e-01 -1.299147e-01 -1.331850e-01 -1.381212e-01 -1.412340e-01 -1.458906e-01 -1.488060e-01 -1.530945e-01 -1.557571e-01 -1.595786e-01 -1.619184e-01 -1.651666e-01 -1.671013e-01 -1.696659e-01 -1.711041e-01 -1.728752e-01 -1.737201e-01 -1.745927e-01 -1.747468e-01 -1.746248e-01 -1.739946e-01 -1.727952e-01 -1.712963e-01 -1.689537e-01 -1.665148e-01 -1.629831e-01 -1.595505e-01 -1.548063e-01 -1.503462e-01 -1.443903e-01 -1.388920e-01 -1.317500e-01 -1.252268e-01 -1.169499e-01 -1.094403e-01 -1.001045e-01 -9.167238e-02 -8.137851e-02 -7.211253e-02 -6.098473e-02 -5.099778e-02 
-4.021595e-02 -2.952423e-02 -1.702459e-02 -5.885374e-03 6.960115e-03 1.836911e-02 3.135731e-02 4.284251e-02 5.575806e-02 6.711403e-02 7.973375e-02 9.074812e-02 1.028463e-01 1.133055e-01 1.246601e-01 1.343560e-01 1.447555e-01 1.534925e-01 1.627432e-01 1.703457e-01 1.782787e-01 1.845978e-01 1.910759e-01 1.959958e-01 2.009190e-01 2.043614e-01 2.076706e-01 2.095981e-01 2.112773e-01 2.116940e-01 2.117698e-01 2.107203e-01 2.092603e-01 2.068262e-01 2.039344e-01 2.002298e-01 1.960410e-01 1.912060e-01 1.858789e-01 1.800728e-01 1.737827e-01 1.671764e-01 1.601075e-01 1.528767e-01 1.452144e-01 1.375322e-01 1.294564e-01 1.214883e-01 1.131671e-01 1.050651e-01 9.664992e-02 8.854961e-02 8.017102e-02 7.218856e-02 6.395374e-02 5.618453e-02 4.817581e-02 4.069410e-02 3.296872e-02 2.582812e-02 1.841924e-02 1.165395e-02 4.572616e-03 -1.800736e-03 -8.562668e-03 -1.454282e-02 -2.100903e-02 -2.660762e-02 -3.281323e-02 -3.805222e-02 -4.403937e-02 -4.894849e-02 -5.476190e-02 -5.937610e-02 -6.505885e-02 -6.941588e-02 -7.500552e-02 -7.914347e-02 -8.466866e-02 -8.862367e-02 -9.410140e-02 -9.790522e-02 -1.033386e-01 -1.070162e-01 -1.123931e-01 -1.159602e-01 -1.212519e-01 -1.247127e-01 -1.298742e-01 -1.332192e-01 -1.381889e-01 -1.413933e-01 -1.460945e-01 -1.491171e-01 -1.534594e-01 -1.562428e-01 -1.601247e-01 -1.625962e-01 -1.659082e-01 -1.679820e-01 -1.706104e-01 -1.721907e-01 -1.740221e-01 -1.750076e-01 -1.759333e-01 -1.762217e-01 -1.761422e-01 -1.756358e-01 -1.744652e-01 -1.730753e-01 -1.707454e-01 -1.683975e-01 -1.648605e-01 -1.614978e-01 -1.567291e-01 -1.523161e-01 -1.463158e-01 -1.408402e-01 -1.336339e-01 -1.271085e-01 -1.187477e-01 -1.112108e-01 -1.017724e-01 -9.328824e-02 -8.287404e-02 -7.353217e-02 -6.226782e-02 -5.218236e-02 
-4.136002e-02 -3.047718e-02 -1.777429e-02 -6.426535e-03 6.642321e-03 1.827364e-02 3.150138e-02 4.321816e-02 5.638455e-02 6.797589e-02 8.085195e-02 9.209905e-02 1.044524e-01 1.151346e-01 1.267358e-01 1.366373e-01 1.472673e-01 1.561847e-01 1.656421e-01 1.733924e-01 1.815015e-01 1.879295e-01 1.945473e-01 1.995319e-01 2.045541e-01 2.080142e-01 2.113792e-01 2.132763e-01 2.149680e-01 2.153073e-01 2.153543e-01 2.141835e-01 2.126571e-01 2.100631e-01 2.070725e-01 2.031758e-01 1.988624e-01 1.938104e-01 1.883402e-01 1.823002e-01 1.758558e-01 1.690066e-01 1.617796e-01 1.543041e-01 1.464867e-01 1.385652e-01 1.303431e-01 1.221468e-01 1.136930e-01 1.053789e-01 9.684870e-02 8.855605e-02 8.008252e-02 7.193011e-02 6.362181e-02 5.570665e-02 4.764605e-02 4.004309e-02 3.228644e-02 2.504918e-02 1.762763e-02 1.078953e-02 3.711259e-03 -2.712313e-03 -9.459005e-03 -1.546843e-02 -2.191127e-02 -2.752012e-02 -3.369850e-02 -3.893088e-02 -4.489125e-02 -4.977921e-02 -5.557040e-02 -6.015135e-02 -6.582018e-02 -7.013446e-02 -7.572171e-02 -7.981022e-02 -8.534720e-02 -8.924901e-02 -9.475469e-02 -9.850466e-02 -1.039835e-01 -1.076099e-01 -1.130503e-01 -1.165720e-01 -1.219456e-01 -1.253697e-01 -1.306305e-01 -1.339502e-01 -1.390355e-01 -1.422279e-01 -1.470587e-01 -1.500837e-01 -1.545668e-01 -1.573669e-01 -1.613973e-01 -1.638984e-01 -1.673626e-01 -1.694763e-01 -1.722560e-01 -1.738832e-01 -1.758600e-01 -1.768952e-01 -1.779554e-01 -1.782915e-01 -1.783311e-01 -1.778655e-01 -1.767943e-01 -1.754338e-01 -1.731800e-01 -1.708457e-01 -1.673587e-01 -1.639906e-01 -1.592437e-01 -1.548035e-01 -1.487955e-01 -1.432692e-01 -1.360250e-01 -1.294244e-01 -1.209953e-01 -1.133583e-01 -1.038219e-01 -9.521295e-02 -8.467193e-02 -7.518148e-02 -6.376279e-02 -5.350643e-02 
-4.297329e-02 -3.189097e-02 -1.893013e-02 -7.354626e-03 5.989693e-03 1.787262e-02 3.138829e-02 4.337506e-02 5.683572e-02 6.870878e-02 8.187817e-02 9.341096e-02 1.060484e-01 1.170115e-01 1.288785e-01 1.390468e-01 1.499146e-01 1.590753e-01 1.687333e-01 1.766944e-01 1.849584e-01 1.915568e-01 1.982767e-01 2.033854e-01 2.084521e-01 2.119862e-01 2.153360e-01 2.172557e-01 2.188728e-01 2.191852e-01 2.191016e-01 2.178585e-01 2.161513e-01 2.134458e-01 2.102323e-01 2.061930e-01 2.016240e-01 1.964074e-01 1.906594e-01 1.844421e-01 1.777087e-01 1.706788e-01 1.631620e-01 1.555113e-01 1.474132e-01 1.393292e-01 1.308446e-01 1.225044e-01 1.138138e-01 1.053790e-01 9.664326e-02 8.825583e-02 7.961236e-02 7.139228e-02 6.295190e-02 5.499588e-02 4.684159e-02 3.922296e-02 3.140990e-02 2.417952e-02 1.673616e-02 9.924070e-03 2.854592e-03 -3.527796e-03 -1.024014e-02 -1.619741e-02 -2.258613e-02 -2.813614e-02 -3.424684e-02 -3.941785e-02 -4.530328e-02 -5.013127e-02 -5.584633e-02 -6.037239e-02 -6.596952e-02 -7.023738e-02 -7.576233e-02 -7.981603e-02 -8.530428e-02 -8.918589e-02 -9.465973e-02 -9.840692e-02 -1.038733e-01 -1.075169e-01 -1.129659e-01 -1.165270e-01 -1.219308e-01 -1.254185e-01 -1.307310e-01 -1.341396e-01 -1.392968e-01 -1.426033e-01 -1.475242e-01 -1.506874e-01 -1.552755e-01 -1.582353e-01 -1.623815e-01 -1.650598e-01 -1.686454e-01 -1.709485e-01 -1.738497e-01 -1.756721e-01 -1.777643e-01 -1.789933e-01 -1.801571e-01 -1.806785e-01 -1.808040e-01 -1.805080e-01 -1.795002e-01 -1.782873e-01 -1.760701e-01 -1.738560e-01 -1.703759e-01 -1.670961e-01 -1.623243e-01 -1.579376e-01 -1.518718e-01 -1.463620e-01 -1.390271e-01 -1.324049e-01 -1.238528e-01 -1.161561e-01 -1.064654e-01 -9.775924e-02 -8.703427e-02 -7.741036e-02 -6.578021e-02 -5.535605e-02 
-4.472190e-02 -3.336692e-02 -2.010699e-02 -8.231245e-03 5.440854e-03 1.764648e-02 3.151298e-02 4.383841e-02 5.766591e-02 6.988565e-02 8.342938e-02 9.530745e-02 1.083168e-01 1.196131e-01 1.318386e-01 1.423165e-01 1.535178e-01 1.629527e-01 1.729077e-01 1.810962e-01 1.896099e-01 1.963792e-01 2.032927e-01 2.085080e-01 2.137056e-01 2.172771e-01 2.206917e-01 2.225781e-01 2.241939e-01 2.244040e-01 2.242560e-01 2.228468e-01 2.210182e-01 2.180905e-01 2.147071e-01 2.103994e-01 2.056222e-01 2.001023e-01 1.941192e-01 1.875755e-01 1.805915e-01 1.732242e-01 1.654526e-01 1.574642e-01 1.491176e-01 1.407057e-01 1.319879e-01 1.233381e-01 1.144372e-01 1.057178e-01 9.680043e-02 8.815845e-02 7.936592e-02 7.092470e-02 6.236984e-02 5.422785e-02 4.599387e-02 3.822487e-02 3.036535e-02 2.301944e-02 1.555975e-02 8.665282e-03 1.605150e-03 -4.828837e-03 -1.151165e-02 -1.749265e-02 -2.383791e-02 -2.938697e-02 -3.544691e-02 -4.059574e-02 -4.642975e-02 -5.121788e-02 -5.688723e-02 -6.135940e-02 -6.692228e-02 -7.112604e-02 -7.663316e-02 -8.061652e-02 -8.610740e-02 -8.991658e-02 -9.541661e-02 -9.909369e-02 -1.046119e-01 -1.081922e-01 -1.137198e-01 -1.172291e-01 -1.227384e-01 -1.261901e-01 -1.316342e-01 -1.350261e-01 -1.403392e-01 -1.436512e-01 -1.487493e-01 -1.519412e-01 -1.567239e-01 -1.597353e-01 -1.640881e-01 -1.668386e-01 -1.706368e-01 -1.730286e-01 -1.761414e-01 -1.780632e-01 -1.803590e-01 -1.816911e-01 -1.830429e-01 -1.836637e-01 -1.839546e-01 -1.837466e-01 -1.828753e-01 -1.817317e-01 -1.796170e-01 -1.774473e-01 -1.740314e-01 -1.707660e-01 -1.660174e-01 -1.616110e-01 -1.555256e-01 -1.499597e-01 -1.425615e-01 -1.358453e-01 -1.271866e-01 -1.193576e-01 -1.095177e-01 -1.006414e-01 -8.972612e-02 -7.989553e-02 -6.803593e-02 -5.737064e-02 
-4.696814e-02 -3.533012e-02 -2.171343e-02 -9.515816e-03 4.539526e-03 1.710002e-02 3.136958e-02 4.407550e-02 5.831758e-02 7.093429e-02 8.489409e-02 9.717476e-02 1.105900e-01 1.222821e-01 1.348902e-01 1.457437e-01 1.572905e-01 1.670669e-01 1.773166e-01 1.857994e-01 1.945444e-01 2.015489e-01 2.086199e-01 2.140026e-01 2.192765e-01 2.229418e-01 2.263480e-01 2.282530e-01 2.297762e-01 2.299322e-01 2.296122e-01 2.280823e-01 2.260106e-01 2.229052e-01 2.192191e-01 2.146884e-01 2.095627e-01 2.037878e-01 1.974252e-01 1.906084e-01 1.832294e-01 1.755843e-01 1.674172e-01 1.591587e-01 1.504300e-01 1.417667e-01 1.326924e-01 1.238184e-01 1.145970e-01 1.056870e-01 9.649318e-02 8.769835e-02 7.867884e-02 7.012414e-02 6.139490e-02 5.317843e-02 4.482321e-02 3.701655e-02 2.908713e-02 2.173673e-02 1.425454e-02 7.384049e-03 3.430284e-04 -6.043939e-03 -1.267329e-02 -1.858998e-02 -2.485571e-02 -3.032897e-02 -3.629214e-02 -4.135931e-02 -4.708819e-02 -5.179409e-02 -5.735848e-02 -6.175276e-02 -6.721865e-02 -7.135339e-02 -7.677829e-02 -8.070578e-02 -8.613487e-02 -8.990547e-02 -9.536858e-02 -9.902838e-02 -1.045378e-01 -1.081261e-01 -1.136751e-01 -1.172212e-01 -1.227830e-01 -1.263035e-01 -1.318310e-01 -1.353258e-01 -1.407515e-01 -1.442013e-01 -1.494381e-01 -1.528018e-01 -1.577448e-01 -1.609588e-01 -1.654877e-01 -1.684663e-01 -1.724491e-01 -1.750871e-01 -1.783849e-01 -1.805620e-01 -1.830345e-01 -1.846210e-01 -1.861324e-01 -1.869964e-01 -1.874216e-01 -1.874355e-01 -1.866662e-01 -1.857142e-01 -1.836631e-01 -1.816471e-01 -1.782523e-01 -1.750967e-01 -1.703238e-01 -1.659792e-01 -1.598229e-01 -1.542681e-01 -1.467524e-01 -1.399954e-01 -1.311733e-01 -1.232516e-01 -1.132040e-01 -1.041840e-01 -9.301906e-02 -8.299551e-02 -7.084687e-02 -5.994187e-02 
-4.938587e-02 -3.738971e-02 -2.337365e-02 -1.077896e-02 3.714226e-03 1.670429e-02 3.144301e-02 4.460265e-02 5.933609e-02 7.242021e-02 8.688226e-02 9.963142e-02 1.135464e-01 1.256935e-01 1.387836e-01 1.500624e-01 1.620574e-01 1.722130e-01 1.828605e-01 1.916603e-01 2.007376e-01 2.079827e-01 2.153077e-01 2.208434e-01 2.262838e-01 2.300077e-01 2.334879e-01 2.353550e-01 2.368597e-01 2.368837e-01 2.364575e-01 2.347088e-01 2.324523e-01 2.290525e-01 2.251151e-01 2.202285e-01 2.147997e-01 2.086233e-01 2.019219e-01 1.946746e-01 1.869375e-01 1.788491e-01 1.703203e-01 1.616210e-01 1.525414e-01 1.434530e-01 1.340512e-01 1.247793e-01 1.152641e-01 1.059919e-01 9.654593e-02 8.743096e-02 7.820620e-02 6.937735e-02 6.049240e-02 5.204954e-02 4.358830e-02 3.560289e-02 2.761488e-02 2.013174e-02 1.263396e-02 5.673894e-03 -1.346020e-03 -7.783110e-03 -1.436244e-02 -2.029409e-02 -2.648968e-02 -3.194739e-02 -3.782964e-02 -4.285549e-02 -4.850202e-02 -5.314569e-02 -5.863515e-02 -6.295114e-02 -6.835751e-02 -7.240283e-02 -7.779044e-02 -8.162250e-02 -8.704203e-02 -9.071658e-02 -9.620201e-02 -9.977088e-02 -1.053374e-01 -1.088458e-01 -1.144882e-01 -1.179719e-01 -1.236637e-01 -1.271451e-01 -1.328382e-01 -1.363224e-01 -1.419472e-01 -1.454185e-01 -1.508842e-01 -1.543035e-01 -1.594998e-01 -1.628028e-01 -1.676024e-01 -1.707000e-01 -1.749627e-01 -1.777436e-01 -1.813211e-01 -1.836567e-01 -1.863983e-01 -1.881489e-01 -1.899087e-01 -1.909313e-01 -1.915746e-01 -1.917308e-01 -1.911404e-01 -1.903042e-01 -1.883859e-01 -1.864502e-01 -1.831367e-01 -1.800191e-01 -1.752723e-01 -1.709182e-01 -1.647310e-01 -1.591160e-01 -1.515117e-01 -1.446422e-01 -1.356742e-01 -1.275875e-01 -1.173382e-01 -1.081013e-01 -9.668059e-02 -8.639016e-02 -7.393431e-02 -6.271500e-02 
-5.234013e-02 -3.997286e-02 -2.549593e-02 -1.247941e-02 2.511476e-03 1.596708e-02 3.123228e-02 4.489204e-02 6.017041e-02 7.377764e-02 8.879020e-02 1.020713e-01 1.165269e-01 1.291982e-01 1.428016e-01 1.545786e-01 1.670405e-01 1.776491e-01 1.886981e-01 1.978871e-01 2.072827e-01 2.148370e-01 2.223822e-01 2.281341e-01 2.336860e-01 2.375253e-01 2.410032e-01 2.428824e-01 2.442719e-01 2.442083e-01 2.435602e-01 2.416332e-01 2.390598e-01 2.354041e-01 2.310708e-01 2.258673e-01 2.199822e-01 2.134465e-01 2.062486e-01 1.986187e-01 1.903658e-01 1.818898e-01 1.728458e-01 1.637711e-01 1.541953e-01 1.447580e-01 1.348953e-01 1.253125e-01 1.153851e-01 1.058486e-01 9.604944e-02 8.672179e-02 7.720993e-02 6.822212e-02 5.911990e-02 5.057107e-02 4.196280e-02 3.392132e-02 2.585384e-02 1.835952e-02 1.084431e-02 3.911562e-03 -3.071701e-03 -9.450207e-03 -1.594872e-02 -2.179812e-02 -2.787998e-02 -3.323935e-02 -3.898686e-02 -4.390551e-02 -4.940824e-02 -5.394252e-02 -5.929044e-02 -6.350099e-02 -6.877830e-02 -7.272774e-02 -7.800757e-02 -8.175861e-02 -8.709883e-02 -9.071241e-02 -9.615257e-02 -9.968578e-02 -1.052451e-01 -1.087486e-01 -1.144243e-01 -1.179390e-01 -1.237060e-01 -1.272591e-01 -1.330689e-01 -1.366693e-01 -1.424502e-01 -1.460842e-01 -1.517417e-01 -1.553694e-01 -1.607874e-01 -1.643410e-01 -1.693844e-01 -1.727681e-01 -1.772869e-01 -1.803798e-01 -1.842144e-01 -1.868755e-01 -1.898635e-01 -1.919396e-01 -1.939231e-01 -1.952569e-01 -1.960900e-01 -1.965295e-01 -1.960853e-01 -1.954923e-01 -1.936689e-01 -1.919264e-01 -1.886507e-01 -1.856687e-01 -1.808995e-01 -1.766182e-01 -1.703469e-01 -1.647389e-01 -1.569892e-01 -1.500597e-01 -1.408864e-01 -1.326729e-01 -1.221605e-01 -1.127317e-01 -1.009928e-01 -9.044732e-02 -7.762149e-02 -6.608710e-02 
-5.551471e-02 -4.269892e-02 -2.771683e-02 -1.419993e-02 1.346039e-03 1.534643e-02 3.120828e-02 4.544728e-02 6.135283e-02 7.556086e-02 9.121701e-02 1.051044e-01 1.202027e-01 1.334668e-01 1.476920e-01 1.600268e-01 1.730677e-01 1.841766e-01 1.957394e-01 2.053493e-01 2.151725e-01 2.230482e-01 2.309170e-01 2.368756e-01 2.426343e-01 2.465557e-01 2.501168e-01 2.519506e-01 2.532999e-01 2.530672e-01 2.522623e-01 2.500527e-01 2.472185e-01 2.431822e-01 2.385014e-01 2.328387e-01 2.265395e-01 2.194875e-01 2.118309e-01 2.036500e-01 1.949155e-01 1.858755e-01 1.763482e-01 1.667162e-01 1.566744e-01 1.467038e-01 1.364089e-01 1.263309e-01 1.160184e-01 1.060357e-01 9.590857e-02 8.619121e-02 7.641519e-02 6.709840e-02 5.779906e-02 4.898345e-02 4.024506e-02 3.199803e-02 2.386423e-02 1.622275e-02 8.698950e-03 1.673093e-03 -5.269565e-03 -1.169246e-02 -1.811168e-02 -2.396271e-02 -2.993846e-02 -3.526291e-02 -4.089005e-02 -4.574347e-02 -5.112406e-02 -5.556893e-02 -6.080474e-02 -6.490769e-02 -7.009340e-02 -7.392303e-02 -7.914061e-02 -8.276577e-02 -8.808009e-02 -9.156826e-02 -9.702408e-02 -1.004395e-01 -1.060595e-01 -1.094605e-01 -1.152440e-01 -1.186797e-01 -1.246021e-01 -1.281077e-01 -1.341196e-01 -1.377114e-01 -1.437385e-01 -1.474083e-01 -1.533516e-01 -1.570624e-01 -1.627993e-01 -1.664826e-01 -1.718691e-01 -1.754246e-01 -1.803001e-01 -1.835985e-01 -1.877906e-01 -1.906796e-01 -1.940125e-01 -1.963246e-01 -1.986266e-01 -2.001893e-01 -2.013016e-01 -2.019479e-01 -2.017322e-01 -2.013099e-01 -1.996551e-01 -1.980357e-01 -1.948621e-01 -1.919465e-01 -1.872085e-01 -1.829309e-01 -1.766181e-01 -1.709473e-01 -1.630830e-01 -1.560229e-01 -1.466631e-01 -1.382511e-01 -1.274822e-01 -1.177883e-01 -1.057255e-01 -9.485034e-02 -8.163626e-02 -6.971073e-02 
-5.927599e-02 -4.599570e-02 -3.044239e-02 -1.639667e-02 -2.304712e-04 1.435528e-02 3.087738e-02 4.574773e-02 6.234145e-02 7.721290e-02 9.356943e-02 1.081346e-01 1.239261e-01 1.378610e-01 1.527492e-01 1.657238e-01 1.793722e-01 1.910641e-01 2.031530e-01 2.132635e-01 2.235069e-01 2.317784e-01 2.399406e-01 2.461722e-01 2.520828e-01 2.561434e-01 2.597079e-01 2.615438e-01 2.627485e-01 2.623860e-01 2.612978e-01 2.588386e-01 2.555981e-01 2.512112e-01 2.460223e-01 2.399304e-01 2.330467e-01 2.255121e-01 2.172213e-01 2.085297e-01 1.991385e-01 1.895844e-01 1.794037e-01 1.692762e-01 1.586081e-01 1.481794e-01 1.373057e-01 1.268218e-01 1.159949e-01 1.056689e-01 9.510480e-02 8.511279e-02 7.498577e-02 6.546521e-02 5.590519e-02 4.695519e-02 3.804659e-02 2.973004e-02 2.151266e-02 1.385962e-02 6.331381e-03 -6.566346e-04 -7.535243e-03 -1.388044e-02 -2.018029e-02 -2.592362e-02 -3.173955e-02 -3.693594e-02 -4.237850e-02 -4.709252e-02 -5.227935e-02 -5.658162e-02 -6.162910e-02 -6.559348e-02 -7.060931e-02 -7.431092e-02 -7.938800e-02 -8.290180e-02 -8.811375e-02 -9.151331e-02 -9.691149e-02 -1.002675e-01 -1.058793e-01 -1.092571e-01 -1.150849e-01 -1.185409e-01 -1.245614e-01 -1.281380e-01 -1.343018e-01 -1.380211e-01 -1.442518e-01 -1.481094e-01 -1.543035e-01 -1.582629e-01 -1.642906e-01 -1.682794e-01 -1.739870e-01 -1.778965e-01 -1.831103e-01 -1.867986e-01 -1.913320e-01 -1.946304e-01 -1.982914e-01 -2.010141e-01 -2.036151e-01 -2.055705e-01 -2.069379e-01 -2.079408e-01 -2.079234e-01 -2.078060e-01 -2.062826e-01 -2.049036e-01 -2.017878e-01 -1.990387e-01 -1.942815e-01 -1.900905e-01 -1.836802e-01 -1.780133e-01 -1.699743e-01 -1.628347e-01 -1.532253e-01 -1.446513e-01 -1.335610e-01 -1.236246e-01 -1.111718e-01 -9.997651e-02 -8.630758e-02 -7.398757e-02 
-6.332083e-02 -4.949609e-02 -3.332560e-02 -1.866870e-02 -1.821827e-03 1.343390e-02 3.069121e-02 4.627923e-02 6.365011e-02 7.927180e-02 9.643055e-02 1.117589e-01 1.283561e-01 1.430430e-01 1.587147e-01 1.724021e-01 1.867828e-01 1.991182e-01 2.118580e-01 2.225129e-01 2.332970e-01 2.419864e-01 2.505547e-01 2.570563e-01 2.632206e-01 2.673899e-01 2.710466e-01 2.728258e-01 2.739619e-01 2.733828e-01 2.720746e-01 2.692534e-01 2.656591e-01 2.607860e-01 2.551331e-01 2.484570e-01 2.410264e-01 2.328385e-01 2.239469e-01 2.145622e-01 2.045451e-01 1.942862e-01 1.834816e-01 1.726630e-01 1.613973e-01 1.503128e-01 1.388886e-01 1.278016e-01 1.164880e-01 1.056244e-01 9.464974e-02 8.419410e-02 7.374069e-02 6.383476e-02 5.403623e-02 4.477989e-02 3.572021e-02 2.717411e-02 1.888866e-02 1.107830e-02 3.556933e-03 -3.522451e-03 -1.033051e-02 -1.670849e-02 -2.288795e-02 -2.861342e-02 -3.427477e-02 -3.941070e-02 -4.468099e-02 -4.929979e-02 -5.431298e-02 -5.849270e-02 -6.338044e-02 -6.720199e-02 -7.208534e-02 -7.563064e-02 -8.061354e-02 -8.396448e-02 -8.912903e-02 -9.236671e-02 -9.777037e-02 -1.009739e-01 -1.066481e-01 -1.098926e-01 -1.158420e-01 -1.191943e-01 -1.253965e-01 -1.289101e-01 -1.353148e-01 -1.390222e-01 -1.455504e-01 -1.494552e-01 -1.559986e-01 -1.600691e-01 -1.664901e-01 -1.706536e-01 -1.767876e-01 -1.809300e-01 -1.865898e-01 -1.905579e-01 -1.955403e-01 -1.991498e-01 -2.032451e-01 -2.062908e-01 -2.092934e-01 -2.115630e-01 -2.132821e-01 -2.145700e-01 -2.148397e-01 -2.149597e-01 -2.136473e-01 -2.124431e-01 -2.094541e-01 -2.068062e-01 -2.020871e-01 -1.979166e-01 -1.914541e-01 -1.857235e-01 -1.775429e-01 -1.702543e-01 -1.604158e-01 -1.516085e-01 -1.402046e-01 -1.299524e-01 -1.171047e-01 -1.055138e-01 -9.137190e-02 -7.857978e-02 
-6.801472e-02 -5.362632e-02 -3.676761e-02 -2.146709e-02 -3.868442e-03 1.210305e-02 3.016647e-02 4.653106e-02 6.474907e-02 8.119218e-02 9.922070e-02 1.153941e-01 1.328597e-01 1.483885e-01 1.648980e-01 1.793927e-01 1.945474e-01 2.076212e-01 2.210362e-01 2.323260e-01 2.436529e-01 2.528424e-01 2.617923e-01 2.686346e-01 2.749987e-01 2.793341e-01 2.829987e-01 2.847652e-01 2.857185e-01 2.849550e-01 2.832859e-01 2.801258e-01 2.760142e-01 2.706729e-01 2.643750e-01 2.571323e-01 2.489621e-01 2.401424e-01 2.304517e-01 2.204040e-01 2.095632e-01 1.986415e-01 1.870216e-01 1.755687e-01 1.635259e-01 1.518593e-01 1.397216e-01 1.281229e-01 1.161801e-01 1.048877e-01 9.338362e-02 8.258914e-02 7.171639e-02 6.156328e-02 5.146041e-02 4.204569e-02 3.279636e-02 2.417410e-02 1.580836e-02 7.994551e-03 4.923126e-04 -6.529251e-03 -1.323277e-02 -1.950414e-02 -2.551088e-02 -3.109363e-02 -3.653347e-02 -4.150269e-02 -4.652305e-02 -5.096217e-02 -5.571709e-02 -5.971380e-02 -6.435349e-02 -6.799688e-02 -7.265863e-02 -7.603770e-02 -8.083867e-02 -8.404183e-02 -8.907436e-02 -9.218935e-02 -9.751832e-02 -1.006318e-01 -1.062937e-01 -1.094895e-01 -1.154925e-01 -1.188474e-01 -1.251708e-01 -1.287486e-01 -1.353425e-01 -1.391849e-01 -1.459685e-01 -1.500861e-01 -1.569461e-01 -1.613092e-01 -1.681000e-01 -1.726323e-01 -1.791770e-01 -1.837540e-01 -1.898493e-01 -1.943013e-01 -1.997250e-01 -2.038460e-01 -2.083672e-01 -2.119275e-01 -2.153193e-01 -2.180812e-01 -2.201332e-01 -2.218672e-01 -2.223969e-01 -2.228962e-01 -2.217585e-01 -2.208508e-01 -2.179435e-01 -2.154986e-01 -2.107644e-01 -2.066973e-01 -2.001229e-01 -1.943937e-01 -1.860067e-01 -1.786181e-01 -1.684827e-01 -1.594760e-01 -1.476888e-01 -1.371410e-01 -1.238277e-01 -1.118482e-01 -9.716237e-02 -8.389203e-02 
-7.307185e-02 -5.803740e-02 -4.044314e-02 -2.441272e-02 -5.998779e-03 1.077902e-02 2.972880e-02 4.696464e-02 6.612671e-02 8.348919e-02 1.025001e-01 1.196177e-01 1.380780e-01 1.545458e-01 1.720295e-01 1.874222e-01 2.034926e-01 2.173832e-01 2.316151e-01 2.435997e-01 2.556052e-01 2.653304e-01 2.747867e-01 2.819758e-01 2.886496e-01 2.931242e-01 2.968896e-01 2.985826e-01 2.994291e-01 2.983874e-01 2.964174e-01 2.927946e-01 2.882126e-01 2.822532e-01 2.753476e-01 2.673669e-01 2.584879e-01 2.488484e-01 2.383861e-01 2.274750e-01 2.158367e-01 2.040440e-01 1.916353e-01 1.793357e-01 1.665430e-01 1.540806e-01 1.412575e-01 1.289347e-01 1.163912e-01 1.044613e-01 9.245590e-02 8.111942e-02 6.985421e-02 5.925849e-02 4.887605e-02 3.911757e-02 2.970050e-02 2.082913e-02 1.240155e-02 4.426409e-03 -3.042312e-03 -1.014624e-02 -1.673550e-02 -2.302020e-02 -2.884993e-02 -3.438735e-02 -3.960775e-02 -4.448322e-02 -4.926314e-02 -5.356970e-02 -5.808431e-02 -6.191838e-02 -6.633739e-02 -6.979596e-02 -7.427340e-02 -7.745275e-02 -8.211917e-02 -8.511503e-02 -9.007257e-02 -9.298077e-02 -9.830101e-02 -1.012178e-01 -1.069415e-01 -1.099624e-01 -1.161000e-01 -1.193156e-01 -1.258477e-01 -1.293366e-01 -1.362128e-01 -1.400316e-01 -1.471690e-01 -1.513405e-01 -1.586211e-01 -1.631231e-01 -1.703925e-01 -1.751501e-01 -1.822184e-01 -1.871003e-01 -1.937469e-01 -1.985689e-01 -2.045507e-01 -2.090853e-01 -2.141482e-01 -2.181395e-01 -2.220327e-01 -2.252146e-01 -2.277054e-01 -2.298209e-01 -2.307078e-01 -2.315261e-01 -2.306496e-01 -2.299794e-01 -2.272280e-01 -2.249261e-01 -2.202382e-01 -2.162120e-01 -2.095741e-01 -2.037810e-01 -1.952231e-01 -1.876662e-01 -1.772563e-01 -1.679794e-01 -1.558182e-01 -1.449012e-01 -1.311187e-01 -1.186743e-01 -1.034271e-01 -8.959948e-02 
-7.885350e-02 -6.315075e-02 -4.474491e-02 -2.794820e-02 -8.641686e-03 8.993665e-03 2.890877e-02 4.708236e-02 6.726896e-02 8.563217e-02 1.057062e-01 1.238628e-01 1.433961e-01 1.609082e-01 1.794380e-01 1.958397e-01 2.128858e-01 2.277047e-01 2.427945e-01 2.555797e-01 2.682792e-01 2.786338e-01 2.885803e-01 2.961932e-01 3.031248e-01 3.077966e-01 3.115732e-01 3.132313e-01 3.138447e-01 3.125466e-01 3.101166e-01 3.060400e-01 3.008010e-01 2.942253e-01 2.865043e-01 2.777861e-01 2.679773e-01 2.575235e-01 2.460622e-01 2.343036e-01 2.216419e-01 2.090093e-01 1.955937e-01 1.824974e-01 1.687511e-01 1.555644e-01 1.418720e-01 1.289192e-01 1.156157e-01 1.031647e-01 9.052704e-02 7.878566e-02 6.702770e-02 5.614406e-02 4.541382e-02 3.547943e-02 2.585848e-02 1.691365e-02 8.418928e-03 4.597561e-04 -6.952385e-03 -1.396615e-02 -2.039327e-02 -2.652992e-02 -3.211426e-02 -3.746194e-02 -4.237888e-02 -4.703806e-02 -5.148274e-02 -5.555984e-02 -5.973315e-02 -6.333570e-02 -6.743083e-02 -7.066466e-02 -7.485557e-02 -7.782406e-02 -8.225697e-02 -8.506201e-02 -8.985048e-02 -9.259443e-02 -9.781779e-02 -1.006051e-01 -1.063091e-01 -1.092458e-01 -1.154445e-01 -1.186345e-01 -1.253107e-01 -1.288475e-01 -1.359521e-01 -1.399067e-01 -1.473559e-01 -1.517627e-01 -1.594341e-01 -1.642764e-01 -1.720067e-01 -1.772064e-01 -1.847913e-01 -1.902048e-01 -1.974033e-01 -2.028247e-01 -2.093687e-01 -2.145417e-01 -2.201492e-01 -2.247846e-01 -2.291768e-01 -2.329744e-01 -2.358925e-01 -2.385636e-01 -2.397848e-01 -2.410724e-01 -2.404218e-01 -2.401152e-01 -2.374725e-01 -2.354162e-01 -2.307172e-01 -2.268134e-01 -2.200465e-01 -2.142518e-01 -2.054520e-01 -1.977723e-01 -1.870138e-01 -1.774971e-01 -1.648868e-01 -1.536175e-01 -1.392900e-01 -1.263848e-01 -1.105007e-01 -9.610694e-02 