# vtk DataFile Version 2.0
Comment goes here
ASCII

DATASET STRUCTURED_POINTS
FIELD FieldData 1
TIME 1 1 double
0.16000000
DIMENSIONS    128   128   1

ORIGIN    0.000   0.000   0.000
SPACING   0.039062 0.039062   1.000

POINT_DATA   16384
SCALARS uX double
LOOKUP_TABLE default

-7.935654e-02 -6.834228e-02 -6.008537e-02 -4.835203e-02 -3.907155e-02 -2.676952e-02 -1.661805e-02 -3.924071e-03 6.916514e-03 1.980330e-02 3.112685e-02 4.398968e-02 5.557174e-02 6.818198e-02 7.978664e-02 9.191033e-02 1.032978e-01 1.147028e-01 1.256376e-01 1.361010e-01 1.463599e-01 1.556758e-01 1.650558e-01 1.730418e-01 1.813672e-01 1.878710e-01 1.949987e-01 1.999026e-01 2.057267e-01 2.089508e-01 2.134040e-01 2.149076e-01 2.179618e-01 2.177429e-01 2.194069e-01 2.175000e-01 2.178159e-01 2.142887e-01 2.133272e-01 2.082757e-01 2.061302e-01 1.996742e-01 1.964547e-01 1.887320e-01 1.845597e-01 1.757214e-01 1.707232e-01 1.609291e-01 1.552334e-01 1.446486e-01 1.383820e-01 1.271737e-01 1.204589e-01 1.087943e-01 1.017491e-01 8.979368e-02 8.253009e-02 7.044675e-02 6.307131e-02 5.101888e-02 4.363271e-02 3.176492e-02 2.446362e-02 1.292758e-02 5.800776e-03 -5.265081e-03 -1.213483e-02 -2.260318e-02 -2.914217e-02 -3.889980e-02 -4.504554e-02 -5.399659e-02 -5.970063e-02 -6.776990e-02 -7.300073e-02 -8.013673e-02 -8.488245e-02 -9.105973e-02 -9.532998e-02 -1.005504e-01 -1.043771e-01 -1.086697e-01 -1.121063e-01 -1.155254e-01 -1.186440e-01 -1.212655e-01 -1.241527e-01 -1.260686e-01 -1.288188e-01 -1.301300e-01 -1.328377e-01 -1.336465e-01 -1.363975e-01 -1.367988e-01 -1.396617e-01 -1.397348e-01 -1.427530e-01 -1.425551e-01 -1.457405e-01 -1.453013e-01 -1.486299e-01 -1.479491e-01 -1.513602e-01 -1.504071e-01 -1.538048e-01 -1.525209e-01 -1.557788e-01 -1.540827e-01 -1.570508e-01 -1.548447e-01 -1.573579e-01 -1.545356e-01 -1.564238e-01 -1.528786e-01 -1.539759e-01 -1.496091e-01 -1.497632e-01 -1.444909e-01 -1.435715e-01 -1.373310e-01 -1.352359e-01 -1.279906e-01 -1.246508e-01 -1.163938e-01 -1.117768e-01 -1.025326e-01 -9.664462e-02 -8.647054e-02 
-7.754403e-02 -6.657035e-02 -5.834560e-02 -4.665657e-02 -3.741013e-02 -2.515496e-02 -1.503845e-02 -2.392940e-03 8.412390e-03 2.124976e-02 3.253801e-02 4.535090e-02 5.689753e-02 6.945748e-02 8.102618e-02 9.309917e-02 1.044495e-01 1.158032e-01 1.266989e-01 1.371101e-01 1.473269e-01 1.565893e-01 1.659234e-01 1.738543e-01 1.821290e-01 1.885760e-01 1.956476e-01 2.004927e-01 2.062549e-01 2.094183e-01 2.138036e-01 2.152449e-01 2.182252e-01 2.179427e-01 2.195272e-01 2.175558e-01 2.177874e-01 2.141953e-01 2.131453e-01 2.080291e-01 2.057919e-01 1.992716e-01 1.959583e-01 1.881722e-01 1.839049e-01 1.750044e-01 1.699110e-01 1.600560e-01 1.542658e-01 1.436216e-01 1.372620e-01 1.259958e-01 1.191903e-01 1.074694e-01 1.003366e-01 8.832667e-02 8.097941e-02 6.884352e-02 6.138921e-02 4.928667e-02 4.182741e-02 2.991265e-02 2.254519e-02 1.096621e-02 3.781487e-03 -7.322063e-03 -1.424002e-02 -2.473940e-02 -3.131527e-02 -4.109562e-02 -4.726519e-02 -5.622888e-02 -6.194195e-02 -7.001198e-02 -7.523538e-02 -8.235852e-02 -8.707889e-02 -9.322816e-02 -9.745399e-02 -1.026301e-01 -1.063926e-01 -1.106239e-01 -1.139764e-01 -1.173170e-01 -1.203324e-01 -1.228588e-01 -1.256249e-01 -1.274304e-01 -1.300436e-01 -1.312314e-01 -1.337891e-01 -1.344639e-01 -1.370555e-01 -1.373154e-01 -1.400134e-01 -1.399414e-01 -1.427934e-01 -1.424504e-01 -1.454725e-01 -1.448921e-01 -1.480645e-01 -1.472498e-01 -1.505154e-01 -1.494388e-01 -1.527047e-01 -1.513103e-01 -1.544523e-01 -1.526606e-01 -1.555304e-01 -1.532448e-01 -1.556779e-01 -1.527927e-01 -1.546188e-01 -1.510274e-01 -1.520800e-01 -1.476829e-01 -1.478086e-01 -1.425209e-01 -1.415875e-01 -1.353452e-01 -1.332487e-01 -1.260135e-01 -1.226829e-01 -1.144461e-01 -1.098469e-01 -1.006314e-01 -9.476768e-02 -8.462903e-02 
-8.034877e-02 -6.927391e-02 -6.095735e-02 -4.914876e-02 -3.979200e-02 -2.740158e-02 -1.715919e-02 -4.365601e-03 6.578050e-03 1.957323e-02 3.100901e-02 4.398617e-02 5.568618e-02 6.841342e-02 8.013796e-02 9.237773e-02 1.038830e-01 1.153994e-01 1.264458e-01 1.370123e-01 1.473727e-01 1.567797e-01 1.662476e-01 1.743098e-01 1.827066e-01 1.892693e-01 1.964501e-01 2.013939e-01 2.072515e-01 2.104960e-01 2.149634e-01 2.164680e-01 2.195178e-01 2.192816e-01 2.209245e-01 2.189838e-01 2.192643e-01 2.156890e-01 2.146807e-01 2.095695e-01 2.073687e-01 2.008438e-01 1.975636e-01 1.897653e-01 1.855295e-01 1.766111e-01 1.715486e-01 1.616719e-01 1.559127e-01 1.452443e-01 1.389161e-01 1.276241e-01 1.208504e-01 1.091029e-01 1.020015e-01 8.996468e-02 8.264772e-02 7.048489e-02 6.305883e-02 5.092948e-02 4.349545e-02 3.155410e-02 2.420794e-02 1.260266e-02 5.434558e-03 -5.694967e-03 -1.260158e-02 -2.312656e-02 -2.969680e-02 -3.950239e-02 -4.567237e-02 -5.466105e-02 -6.038085e-02 -6.847592e-02 -7.371271e-02 -8.086149e-02 -8.560241e-02 -9.177881e-02 -9.603312e-02 -1.012391e-01 -1.050391e-01 -1.093046e-01 -1.127050e-01 -1.160862e-01 -1.191616e-01 -1.217372e-01 -1.245772e-01 -1.264425e-01 -1.291454e-01 -1.304056e-01 -1.330702e-01 -1.338317e-01 -1.365483e-01 -1.369098e-01 -1.397509e-01 -1.397954e-01 -1.428077e-01 -1.425948e-01 -1.457920e-01 -1.453530e-01 -1.487119e-01 -1.480463e-01 -1.515053e-01 -1.505812e-01 -1.540421e-01 -1.527988e-01 -1.561317e-01 -1.544844e-01 -1.575349e-01 -1.553819e-01 -1.579802e-01 -1.552111e-01 -1.571821e-01 -1.536863e-01 -1.548596e-01 -1.505345e-01 -1.507540e-01 -1.455128e-01 -1.446445e-01 -1.384222e-01 -1.363616e-01 -1.291198e-01 -1.257961e-01 -1.175267e-01 -1.129067e-01 -1.036338e-01 -9.772333e-02 -8.750432e-02 
-7.952027e-02 -6.842681e-02 -6.008404e-02 -4.824572e-02 -3.884766e-02 -2.641665e-02 -1.611889e-02 -3.274854e-03 7.736355e-03 2.079011e-02 3.230290e-02 4.534429e-02 5.712721e-02 6.992120e-02 8.173032e-02 9.403569e-02 1.056225e-01 1.171993e-01 1.283191e-01 1.389367e-01 1.493575e-01 1.588025e-01 1.683132e-01 1.763968e-01 1.848151e-01 1.913799e-01 1.985581e-01 2.034831e-01 2.093125e-01 2.125165e-01 2.169299e-01 2.183729e-01 2.213440e-01 2.210265e-01 2.225682e-01 2.205287e-01 2.206887e-01 2.169999e-01 2.158555e-01 2.106191e-01 2.082706e-01 2.016121e-01 1.981764e-01 1.902389e-01 1.858435e-01 1.767827e-01 1.715597e-01 1.615395e-01 1.556214e-01 1.448098e-01 1.383264e-01 1.268927e-01 1.199686e-01 1.080817e-01 1.008358e-01 8.866267e-02 8.120778e-02 6.891247e-02 6.135591e-02 4.909888e-02 4.154275e-02 2.947993e-02 2.202145e-02 1.030280e-02 3.033997e-03 -8.198324e-03 -1.519165e-02 -2.580591e-02 -3.244601e-02 -4.232404e-02 -4.854382e-02 -5.758458e-02 -6.333085e-02 -7.145420e-02 -7.669099e-02 -8.384121e-02 -8.855312e-02 -9.470181e-02 -9.889642e-02 -1.040443e-01 -1.077535e-01 -1.119307e-01 -1.152104e-01 -1.184747e-01 -1.214022e-01 -1.238354e-01 -1.265049e-01 -1.282074e-01 -1.307232e-01 -1.318061e-01 -1.342743e-01 -1.348510e-01 -1.373699e-01 -1.375467e-01 -1.401969e-01 -1.400639e-01 -1.428997e-01 -1.425231e-01 -1.455648e-01 -1.449811e-01 -1.482105e-01 -1.474231e-01 -1.507814e-01 -1.497604e-01 -1.531504e-01 -1.518352e-01 -1.551258e-01 -1.534304e-01 -1.564643e-01 -1.542843e-01 -1.568876e-01 -1.541089e-01 -1.561015e-01 -1.526093e-01 -1.538153e-01 -1.495028e-01 -1.497606e-01 -1.445367e-01 -1.437075e-01 -1.375031e-01 -1.354776e-01 -1.282511e-01 -1.249548e-01 -1.166951e-01 -1.120917e-01 -1.028206e-01 -9.691371e-02 -8.668679e-02 
-8.335923e-02 -7.210155e-02 -6.360453e-02 -5.156874e-02 -4.198113e-02 -2.932357e-02 -1.880591e-02 -5.711108e-03 5.544727e-03 1.886796e-02 3.064385e-02 4.396726e-02 5.602492e-02 6.910673e-02 8.119494e-02 9.378672e-02 1.056494e-01 1.175038e-01 1.288889e-01 1.397680e-01 1.504364e-01 1.601198e-01 1.698543e-01 1.781475e-01 1.867608e-01 1.935016e-01 2.008425e-01 2.059069e-01 2.118653e-01 2.151707e-01 2.196793e-01 2.211859e-01 2.242207e-01 2.239309e-01 2.255080e-01 2.234636e-01 2.236353e-01 2.199131e-01 2.187616e-01 2.134682e-01 2.110991e-01 2.043648e-01 2.009000e-01 1.928727e-01 1.884440e-01 1.792836e-01 1.740265e-01 1.639006e-01 1.579499e-01 1.470293e-01 1.405160e-01 1.289721e-01 1.220213e-01 1.100245e-01 1.027546e-01 9.047280e-02 8.299577e-02 7.059389e-02 6.301589e-02 5.065507e-02 4.307719e-02 3.091415e-02 2.343288e-02 1.161863e-02 4.325740e-03 -6.996270e-03 -1.401469e-02 -2.471117e-02 -3.137658e-02 -4.132769e-02 -4.757186e-02 -5.667495e-02 -6.244337e-02 -7.061700e-02 -7.587266e-02 -8.306042e-02 -8.778732e-02 -9.396101e-02 -9.816708e-02 -1.033288e-01 -1.070474e-01 -1.112297e-01 -1.145195e-01 -1.177843e-01 -1.207268e-01 -1.231609e-01 -1.258554e-01 -1.275651e-01 -1.301219e-01 -1.312246e-01 -1.337559e-01 -1.343710e-01 -1.369805e-01 -1.372192e-01 -1.399919e-01 -1.399479e-01 -1.429403e-01 -1.426812e-01 -1.459134e-01 -1.454745e-01 -1.489252e-01 -1.483065e-01 -1.519114e-01 -1.510771e-01 -1.547310e-01 -1.536128e-01 -1.571750e-01 -1.556778e-01 -1.589805e-01 -1.569906e-01 -1.598491e-01 -1.572435e-01 -1.594678e-01 -1.561235e-01 -1.575291e-01 -1.533325e-01 -1.537509e-01 -1.486058e-01 -1.478933e-01 -1.417273e-01 -1.397718e-01 -1.325413e-01 -1.292671e-01 -1.209610e-01 -1.163321e-01 -1.069731e-01 -1.009947e-01 -9.064038e-02 
-8.354078e-02 -7.220572e-02 -6.362398e-02 -5.148413e-02 -4.177889e-02 -2.899229e-02 -1.832707e-02 -5.081134e-03 6.347815e-03 1.984009e-02 3.180885e-02 4.531380e-02 5.757698e-02 7.084626e-02 8.314433e-02 9.592203e-02 1.079898e-01 1.200205e-01 1.315965e-01 1.426340e-01 1.534698e-01 1.632861e-01 1.731560e-01 1.815497e-01 1.902593e-01 1.970630e-01 2.044563e-01 2.095424e-01 2.155065e-01 2.187911e-01 2.232587e-01 2.247029e-01 2.276520e-01 2.272609e-01 2.287120e-01 2.265317e-01 2.265429e-01 2.226556e-01 2.213162e-01 2.158344e-01 2.132574e-01 2.063172e-01 2.026317e-01 1.943867e-01 1.897307e-01 1.803458e-01 1.748604e-01 1.645067e-01 1.583309e-01 1.471822e-01 1.404499e-01 1.286798e-01 1.215178e-01 1.092980e-01 1.018257e-01 8.932517e-02 8.165517e-02 6.903985e-02 6.127873e-02 4.871122e-02 4.096087e-02 2.859994e-02 2.095832e-02 8.957832e-03 1.519071e-03 -9.973791e-03 -1.712027e-02 -2.796764e-02 -3.473907e-02 -4.481587e-02 -5.113912e-02 -6.033717e-02 -6.615260e-02 -7.438508e-02 -7.965073e-02 -8.685654e-02 -9.155241e-02 -9.769994e-02 -1.018314e-01 -1.069212e-01 -1.105213e-01 -1.145866e-01 -1.177162e-01 -1.208222e-01 -1.235677e-01 -1.258075e-01 -1.282761e-01 -1.297643e-01 -1.320766e-01 -1.329413e-01 -1.352217e-01 -1.355940e-01 -1.379593e-01 -1.379626e-01 -1.405108e-01 -1.402503e-01 -1.430495e-01 -1.426025e-01 -1.456821e-01 -1.450914e-01 -1.484362e-01 -1.477058e-01 -1.512540e-01 -1.503491e-01 -1.539940e-01 -1.528440e-01 -1.564402e-01 -1.549451e-01 -1.583171e-01 -1.563564e-01 -1.593101e-01 -1.567523e-01 -1.590871e-01 -1.558007e-01 -1.573218e-01 -1.531848e-01 -1.537137e-01 -1.486222e-01 -1.480064e-01 -1.418815e-01 -1.400015e-01 -1.327944e-01 -1.295690e-01 -1.212642e-01 -1.166532e-01 -1.072706e-01 -1.012767e-01 -9.087219e-02 
-8.849024e-02 -7.692439e-02 -6.812168e-02 -5.570224e-02 -4.572323e-02 -3.261395e-02 -2.162918e-02 -8.024272e-03 3.761860e-03 1.764145e-02 2.999570e-02 4.390719e-02 5.657373e-02 7.025855e-02 8.296650e-02 9.615763e-02 1.086298e-01 1.210603e-01 1.330231e-01 1.444351e-01 1.556287e-01 1.657833e-01 1.759718e-01 1.846581e-01 1.936388e-01 2.006820e-01 2.082932e-01 2.135608e-01 2.196870e-01 2.230930e-01 2.276672e-01 2.291734e-01 2.321769e-01 2.317918e-01 2.332509e-01 2.310259e-01 2.310062e-01 2.270307e-01 2.256301e-01 2.200244e-01 2.173647e-01 2.102730e-01 2.064918e-01 1.980752e-01 1.933177e-01 1.837479e-01 1.781610e-01 1.676148e-01 1.613414e-01 1.499968e-01 1.431730e-01 1.312067e-01 1.239600e-01 1.115458e-01 1.039951e-01 9.130339e-02 8.355991e-02 7.075765e-02 6.292646e-02 5.017734e-02 4.235899e-02 2.982316e-02 2.211491e-02 9.948195e-03 2.444351e-03 -9.203473e-03 -1.641228e-02 -2.740018e-02 -3.422903e-02 -4.442837e-02 -5.080126e-02 -6.010029e-02 -6.595441e-02 -7.426312e-02 -7.955367e-02 -8.680873e-02 -9.151373e-02 -9.768282e-02 -1.018073e-01 -1.068921e-01 -1.104707e-01 -1.145083e-01 -1.176061e-01 -1.206675e-01 -1.233776e-01 -1.255642e-01 -1.280029e-01 -1.294396e-01 -1.317381e-01 -1.325639e-01 -1.348579e-01 -1.352152e-01 -1.376326e-01 -1.376547e-01 -1.403024e-01 -1.401022e-01 -1.430544e-01 -1.427134e-01 -1.460017e-01 -1.455630e-01 -1.491695e-01 -1.486333e-01 -1.524892e-01 -1.518128e-01 -1.558002e-01 -1.549019e-01 -1.588611e-01 -1.576275e-01 -1.613668e-01 -1.596630e-01 -1.629717e-01 -1.606523e-01 -1.633141e-01 -1.602347e-01 -1.620410e-01 -1.580688e-01 -1.588300e-01 -1.538529e-01 -1.534084e-01 -1.473419e-01 -1.455671e-01 -1.383592e-01 -1.351703e-01 -1.268045e-01 -1.221615e-01 -1.126586e-01 -1.065658e-01 -9.598392e-02 
-8.974361e-02 -7.804109e-02 -6.909355e-02 -5.649404e-02 -4.631809e-02 -3.298839e-02 -2.175947e-02 -7.898590e-03 4.172009e-03 1.833653e-02 3.100666e-02 4.522357e-02 5.822650e-02 7.222702e-02 8.527923e-02 9.878469e-02 1.115951e-01 1.243259e-01 1.366064e-01 1.482919e-01 1.597683e-01 1.701574e-01 1.805809e-01 1.894520e-01 1.986091e-01 2.057792e-01 2.135006e-01 2.188317e-01 2.249978e-01 2.284019e-01 2.329458e-01 2.343861e-01 2.372926e-01 2.367819e-01 2.380841e-01 2.356808e-01 2.354538e-01 2.312555e-01 2.296081e-01 2.237445e-01 2.208097e-01 2.134343e-01 2.093605e-01 2.006431e-01 1.955853e-01 1.857047e-01 1.798176e-01 1.689564e-01 1.623887e-01 1.507292e-01 1.436208e-01 1.313423e-01 1.238226e-01 1.111006e-01 1.032892e-01 9.029512e-02 8.230313e-02 6.920505e-02 6.113728e-02 4.810042e-02 4.005773e-02 2.724474e-02 1.932574e-02 6.896141e-03 -8.020873e-04 -1.269341e-02 -2.007589e-02 -3.128150e-02 -3.825744e-02 -4.864127e-02 -5.512770e-02 -6.456996e-02 -7.049652e-02 -7.889935e-02 -8.421392e-02 -9.150706e-02 -9.618153e-02 -1.023276e-01 -1.063630e-01 -1.113612e-01 -1.147914e-01 -1.186800e-01 -1.215730e-01 -1.244279e-01 -1.268840e-01 -1.288157e-01 -1.309627e-01 -1.321088e-01 -1.340932e-01 -1.346084e-01 -1.365839e-01 -1.366282e-01 -1.387419e-01 -1.384666e-01 -1.408444e-01 -1.403789e-01 -1.431118e-01 -1.425517e-01 -1.456841e-01 -1.450821e-01 -1.486040e-01 -1.479652e-01 -1.518097e-01 -1.510912e-01 -1.551365e-01 -1.542513e-01 -1.583283e-01 -1.571540e-01 -1.610581e-01 -1.594476e-01 -1.629522e-01 -1.607466e-01 -1.636186e-01 -1.606597e-01 -1.626741e-01 -1.588162e-01 -1.597686e-01 -1.548883e-01 -1.546052e-01 -1.486085e-01 -1.469553e-01 -1.397829e-01 -1.366683e-01 -1.282984e-01 -1.236771e-01 -1.141271e-01 -1.080007e-01 -9.732705e-02 
-9.591560e-02 -8.391103e-02 -7.466991e-02 -6.170297e-02 -5.116203e-02 -3.740670e-02 -2.575041e-02 -1.141440e-02 1.135257e-03 1.581405e-02 2.900249e-02 4.376067e-02 5.730696e-02 7.186185e-02 8.546668e-02 9.952421e-02 1.128796e-01 1.261438e-01 1.389443e-01 1.511281e-01 1.630828e-01 1.739195e-01 1.847646e-01 1.940188e-01 2.035288e-01 2.110067e-01 2.190039e-01 2.245607e-01 2.309217e-01 2.344666e-01 2.391250e-01 2.406225e-01 2.435684e-01 2.430364e-01 2.443116e-01 2.418169e-01 2.415079e-01 2.371586e-01 2.353870e-01 2.293245e-01 2.262367e-01 2.186262e-01 2.143829e-01 2.054053e-01 2.001721e-01 1.900158e-01 1.839557e-01 1.728109e-01 1.660783e-01 1.541329e-01 1.468706e-01 1.343079e-01 1.266461e-01 1.136439e-01 1.057008e-01 9.243199e-02 8.431670e-02 7.095023e-02 6.276506e-02 4.946733e-02 4.131109e-02 2.824655e-02 2.021687e-02 7.547822e-03 -2.577093e-04 -1.237246e-02 -1.985667e-02 -3.126469e-02 -3.833304e-02 -4.889248e-02 -5.545697e-02 -6.504205e-02 -7.102673e-02 -7.953399e-02 -8.488145e-02 -9.223633e-02 -9.691446e-02 -1.030774e-01 -1.070856e-01 -1.120567e-01 -1.154303e-01 -1.192521e-01 -1.220647e-01 -1.248216e-01 -1.271830e-01 -1.289974e-01 -1.310488e-01 -1.320734e-01 -1.339777e-01 -1.343844e-01 -1.363132e-01 -1.362792e-01 -1.383972e-01 -1.380900e-01 -1.405383e-01 -1.400999e-01 -1.429803e-01 -1.425143e-01 -1.458760e-01 -1.454370e-01 -1.492683e-01 -1.488569e-01 -1.530815e-01 -1.526443e-01 -1.571251e-01 -1.565595e-01 -1.611072e-01 -1.602719e-01 -1.646585e-01 -1.633858e-01 -1.673609e-01 -1.654717e-01 -1.687798e-01 -1.660976e-01 -1.684940e-01 -1.648580e-01 -1.661225e-01 -1.613978e-01 -1.613458e-01 -1.554306e-01 -1.539202e-01 -1.467509e-01 -1.436876e-01 -1.352411e-01 -1.305795e-01 -1.208743e-01 -1.146182e-01 -1.037137e-01 
-9.834080e-02 -8.613881e-02 -7.668978e-02 -6.346367e-02 -5.264160e-02 -3.856968e-02 -2.656578e-02 -1.186231e-02 1.092090e-03 1.618018e-02 2.981839e-02 4.501610e-02 5.904230e-02 7.405279e-02 8.815023e-02 1.026631e-01 1.165044e-01 1.302058e-01 1.434649e-01 1.560496e-01 1.684155e-01 1.795991e-01 1.907895e-01 2.003213e-01 2.100953e-01 2.177695e-01 2.259385e-01 2.316027e-01 2.380379e-01 2.415985e-01 2.462335e-01 2.476572e-01 2.504879e-01 2.497993e-01 2.508775e-01 2.481534e-01 2.475795e-01 2.429405e-01 2.408516e-01 2.344526e-01 2.310114e-01 2.230310e-01 2.184137e-01 2.090447e-01 2.034302e-01 1.928712e-01 1.864330e-01 1.748820e-01 1.677821e-01 1.554321e-01 1.478177e-01 1.348550e-01 1.268578e-01 1.134618e-01 1.051999e-01 9.154395e-02 8.312479e-02 6.937854e-02 6.090299e-02 4.723398e-02 3.880014e-02 2.537542e-02 1.708178e-02 4.068098e-03 -3.984706e-03 -1.642204e-02 -2.413138e-02 -3.583143e-02 -4.309494e-02 -5.390569e-02 -6.062572e-02 -7.041021e-02 -7.650009e-02 -8.514368e-02 -9.053532e-02 -9.795339e-02 -1.026055e-01 -1.087508e-01 -1.126563e-01 -1.175252e-01 -1.207175e-01 -1.243533e-01 -1.269093e-01 -1.294029e-01 -1.314419e-01 -1.329279e-01 -1.346068e-01 -1.352557e-01 -1.367584e-01 -1.367643e-01 -1.382877e-01 -1.378525e-01 -1.395885e-01 -1.389049e-01 -1.410213e-01 -1.402550e-01 -1.428771e-01 -1.421507e-01 -1.453456e-01 -1.447270e-01 -1.484929e-01 -1.479884e-01 -1.522507e-01 -1.518051e-01 -1.564196e-01 -1.559214e-01 -1.606840e-01 -1.599771e-01 -1.646396e-01 -1.635380e-01 -1.678265e-01 -1.661308e-01 -1.697650e-01 -1.672789e-01 -1.699909e-01 -1.665354e-01 -1.680844e-01 -1.635089e-01 -1.636933e-01 -1.578838e-01 -1.565487e-01 -1.494323e-01 -1.464738e-01 -1.380213e-01 -1.333881e-01 -1.236140e-01 -1.173071e-01 -1.062692e-01 
-1.058853e-01 -9.330418e-02 -8.348142e-02 -6.979283e-02 -5.850548e-02 -4.389629e-02 -3.134653e-02 -1.604140e-02 -2.473628e-03 1.326785e-02 2.757140e-02 4.345901e-02 5.818435e-02 7.390342e-02 8.871314e-02 1.039331e-01 1.184771e-01 1.328622e-01 1.467911e-01 1.600136e-01 1.729933e-01 1.847473e-01 1.964745e-01 2.064906e-01 2.167076e-01 2.247650e-01 2.332717e-01 2.392086e-01 2.458706e-01 2.495899e-01 2.543425e-01 2.558132e-01 2.586595e-01 2.579140e-01 2.589189e-01 2.560461e-01 2.553261e-01 2.504617e-01 2.481725e-01 2.414878e-01 2.378108e-01 2.295009e-01 2.246295e-01 2.149021e-01 2.090300e-01 1.980966e-01 1.914085e-01 1.794769e-01 1.721419e-01 1.594122e-01 1.515808e-01 1.382435e-01 1.300477e-01 1.162843e-01 1.078396e-01 9.382432e-02 8.523450e-02 7.113721e-02 6.249894e-02 4.848798e-02 3.989600e-02 2.614026e-02 1.769136e-02 4.361061e-03 -3.843480e-03 -1.657772e-02 -2.443202e-02 -3.640214e-02 -4.379807e-02 -5.484357e-02 -6.167569e-02 -7.165045e-02 -7.782319e-02 -8.660375e-02 -9.204029e-02 -9.953476e-02 -1.041867e-01 -1.103435e-01 -1.142000e-01 -1.190151e-01 -1.221104e-01 -1.256322e-01 -1.280495e-01 -1.303795e-01 -1.322511e-01 -1.335405e-01 -1.350419e-01 -1.354823e-01 -1.368209e-01 -1.366309e-01 -1.380297e-01 -1.374370e-01 -1.391142e-01 -1.383353e-01 -1.404822e-01 -1.397020e-01 -1.424610e-01 -1.418150e-01 -1.452619e-01 -1.448218e-01 -1.489536e-01 -1.487204e-01 -1.534506e-01 -1.533547e-01 -1.585179e-01 -1.584264e-01 -1.637903e-01 -1.635204e-01 -1.688045e-01 -1.681416e-01 -1.730388e-01 -1.717556e-01 -1.759547e-01 -1.738302e-01 -1.770366e-01 -1.738714e-01 -1.758238e-01 -1.714527e-01 -1.719350e-01 -1.662342e-01 -1.650829e-01 -1.579748e-01 -1.550824e-01 -1.465367e-01 -1.418523e-01 -1.318853e-01 -1.254135e-01 -1.140868e-01 
-1.096240e-01 -9.678243e-02 -8.668434e-02 -7.265314e-02 -6.099370e-02 -4.596515e-02 -3.295496e-02 -1.716186e-02 -3.056955e-03 1.322982e-02 2.813194e-02 4.460734e-02 5.997357e-02 7.630450e-02 9.177460e-02 1.076087e-01 1.228068e-01 1.377843e-01 1.523332e-01 1.661014e-01 1.796392e-01 1.918680e-01 2.040661e-01 2.144645e-01 2.250439e-01 2.333747e-01 2.421203e-01 2.482112e-01 2.549815e-01 2.587318e-01 2.634625e-01 2.648450e-01 2.675476e-01 2.666043e-01 2.673584e-01 2.641928e-01 2.631343e-01 2.578999e-01 2.552068e-01 2.480936e-01 2.439696e-01 2.351912e-01 2.298509e-01 2.196315e-01 2.132865e-01 2.018508e-01 1.946993e-01 1.822648e-01 1.744852e-01 1.612580e-01 1.530052e-01 1.391788e-01 1.305855e-01 1.163417e-01 1.075212e-01 9.303361e-02 8.408606e-02 6.952374e-02 6.054198e-02 4.607356e-02 3.714978e-02 2.294637e-02 1.417722e-02 4.139919e-04 -8.096211e-03 -2.124068e-02 -2.937939e-02 -4.172605e-02 -4.937494e-02 -6.074973e-02 -6.779017e-02 -7.803173e-02 -8.435311e-02 -9.332229e-02 -9.883242e-02 -1.064229e-01 -1.110595e-01 -1.172082e-01 -1.209504e-01 -1.256468e-01 -1.285244e-01 -1.318167e-01 -1.339162e-01 -1.359138e-01 -1.373789e-01 -1.382489e-01 -1.392755e-01 -1.392333e-01 -1.400573e-01 -1.393517e-01 -1.402308e-01 -1.391234e-01 -1.403135e-01 -1.390560e-01 -1.407854e-01 -1.395953e-01 -1.420393e-01 -1.410785e-01 -1.443373e-01 -1.436954e-01 -1.477795e-01 -1.474645e-01 -1.522886e-01 -1.522269e-01 -1.576143e-01 -1.576588e-01 -1.633551e-01 -1.633012e-01 -1.689960e-01 -1.686020e-01 -1.739544e-01 -1.729645e-01 -1.776289e-01 -1.757942e-01 -1.794444e-01 -1.765412e-01 -1.788885e-01 -1.747313e-01 -1.755382e-01 -1.699881e-01 -1.690751e-01 -1.620436e-01 -1.592925e-01 -1.507424e-01 -1.460962e-01 -1.360399e-01 -1.295005e-01 -1.179985e-01 
-1.187319e-01 -1.054270e-01 -9.486591e-02 -8.026861e-02 -6.803266e-02 -5.234477e-02 -3.865712e-02 -2.212317e-02 -7.255040e-03 9.839455e-03 2.557210e-02 4.290391e-02 5.914571e-02 7.635966e-02 9.272429e-02 1.094423e-01 1.255246e-01 1.413584e-01 1.567499e-01 1.713168e-01 1.856247e-01 1.985657e-01 2.114328e-01 2.224314e-01 2.335556e-01 2.423544e-01 2.515048e-01 2.579189e-01 2.649468e-01 2.688713e-01 2.737150e-01 2.751265e-01 2.778084e-01 2.767604e-01 2.773783e-01 2.739916e-01 2.727047e-01 2.671538e-01 2.641656e-01 2.566636e-01 2.522036e-01 2.429862e-01 2.372925e-01 2.266039e-01 2.199078e-01 2.079891e-01 2.005033e-01 1.875845e-01 1.794959e-01 1.657909e-01 1.572580e-01 1.429643e-01 1.341182e-01 1.194190e-01 1.103685e-01 9.543650e-02 8.627499e-02 7.127821e-02 6.209173e-02 4.719837e-02 3.807350e-02 2.345610e-02 1.448644e-02 3.240582e-04 -8.385607e-03 -2.190759e-02 -3.024030e-02 -4.293323e-02 -5.076237e-02 -6.244026e-02 -6.963572e-02 -8.012390e-02 -8.656162e-02 -9.570763e-02 -1.012818e-01 -1.089677e-01 -1.136043e-01 -1.197592e-01 -1.234299e-01 -1.280409e-01 -1.307744e-01 -1.338948e-01 -1.357846e-01 -1.375370e-01 -1.387431e-01 -1.393160e-01 -1.400595e-01 -1.396973e-01 -1.402468e-01 -1.392326e-01 -1.398828e-01 -1.385147e-01 -1.395597e-01 -1.381238e-01 -1.398264e-01 -1.385689e-01 -1.411305e-01 -1.402323e-01 -1.437673e-01 -1.433246e-01 -1.478430e-01 -1.478574e-01 -1.532582e-01 -1.536364e-01 -1.597139e-01 -1.602787e-01 -1.667393e-01 -1.672490e-01 -1.737376e-01 -1.739112e-01 -1.800412e-01 -1.795848e-01 -1.849692e-01 -1.836010e-01 -1.878787e-01 -1.853491e-01 -1.882054e-01 -1.843109e-01 -1.854909e-01 -1.800817e-01 -1.793968e-01 -1.723800e-01 -1.697093e-01 -1.610474e-01 -1.563359e-01 -1.460449e-01 -1.392997e-01 -1.274453e-01 
-1.239718e-01 -1.103403e-01 -9.943081e-02 -8.440203e-02 -7.169461e-02 -5.547646e-02 -4.120391e-02 -2.405015e-02 -8.497206e-03 9.293439e-03 2.579259e-02 4.387892e-02 6.094543e-02 7.894920e-02 9.616789e-02 1.136831e-01 1.306152e-01 1.472218e-01 1.634222e-01 1.787038e-01 1.937425e-01 2.073073e-01 2.207922e-01 2.322944e-01 2.438944e-01 2.530541e-01 2.625180e-01 2.691361e-01 2.763056e-01 2.802731e-01 2.850880e-01 2.863871e-01 2.888820e-01 2.875805e-01 2.878742e-01 2.841137e-01 2.823928e-01 2.763724e-01 2.728710e-01 2.648301e-01 2.598086e-01 2.500078e-01 2.437324e-01 2.324377e-01 2.251632e-01 2.126329e-01 2.045894e-01 1.910649e-01 1.824498e-01 1.681516e-01 1.591273e-01 1.442546e-01 1.349510e-01 1.196854e-01 1.102059e-01 9.471700e-02 8.514761e-02 6.960025e-02 6.001963e-02 4.458030e-02 3.506954e-02 1.991199e-02 1.056269e-02 -4.128950e-03 -1.320939e-02 -2.724027e-02 -3.592696e-02 -4.909454e-02 -5.724765e-02 -6.934813e-02 -7.681978e-02 -8.765786e-02 -9.430306e-02 -1.037045e-01 -1.093954e-01 -1.172216e-01 -1.218638e-01 -1.280266e-01 -1.315759e-01 -1.360515e-01 -1.385281e-01 -1.413678e-01 -1.428668e-01 -1.442016e-01 -1.448966e-01 -1.449352e-01 -1.450734e-01 -1.440914e-01 -1.439790e-01 -1.422999e-01 -1.422785e-01 -1.402472e-01 -1.406626e-01 -1.386135e-01 -1.397801e-01 -1.380043e-01 -1.401694e-01 -1.388844e-01 -1.421963e-01 -1.415226e-01 -1.460099e-01 -1.459576e-01 -1.515200e-01 -1.519889e-01 -1.584030e-01 -1.591946e-01 -1.661346e-01 -1.669748e-01 -1.740426e-01 -1.746116e-01 -1.813731e-01 -1.813371e-01 -1.873579e-01 -1.863976e-01 -1.912745e-01 -1.891083e-01 -1.924916e-01 -1.888911e-01 -1.904996e-01 -1.852970e-01 -1.849239e-01 -1.780144e-01 -1.755276e-01 -1.668669e-01 -1.622057e-01 -1.518065e-01 -1.449764e-01 -1.329038e-01 
-1.348777e-01 -1.206907e-01 -1.092184e-01 -9.351026e-02 -8.010251e-02 -6.309117e-02 -4.799440e-02 -2.994592e-02 -1.346144e-02 5.309455e-03 2.282657e-02 4.195786e-02 6.010247e-02 7.918946e-02 9.751426e-02 1.161188e-01 1.341477e-01 1.518129e-01 1.690599e-01 1.853302e-01 2.013236e-01 2.157682e-01 2.300774e-01 2.423159e-01 2.545782e-01 2.643034e-01 2.742460e-01 2.812422e-01 2.886978e-01 2.928509e-01 2.977632e-01 2.990619e-01 3.014815e-01 3.000103e-01 3.000818e-01 2.960067e-01 2.939491e-01 2.874987e-01 2.835816e-01 2.750263e-01 2.695451e-01 2.591755e-01 2.524280e-01 2.405365e-01 2.328032e-01 2.196690e-01 2.111979e-01 1.970772e-01 1.880760e-01 1.731976e-01 1.638312e-01 1.483975e-01 1.387917e-01 1.229831e-01 1.132328e-01 9.721559e-02 8.739575e-02 7.133080e-02 6.150898e-02 4.556030e-02 3.580844e-02 2.014996e-02 1.055436e-02 -4.625795e-03 -1.395789e-02 -2.845658e-02 -3.739464e-02 -5.099668e-02 -5.938942e-02 -7.187470e-02 -7.955781e-02 -9.071219e-02 -9.752092e-02 -1.071507e-01 -1.129365e-01 -1.208852e-01 -1.255350e-01 -1.317012e-01 -1.351573e-01 -1.395113e-01 -1.417895e-01 -1.443863e-01 -1.455884e-01 -1.465745e-01 -1.468940e-01 -1.465059e-01 -1.462229e-01 -1.447751e-01 -1.442404e-01 -1.421036e-01 -1.417110e-01 -1.392810e-01 -1.394307e-01 -1.370914e-01 -1.381478e-01 -1.362318e-01 -1.384811e-01 -1.372341e-01 -1.408467e-01 -1.403998e-01 -1.454052e-01 -1.457600e-01 -1.520370e-01 -1.530659e-01 -1.603509e-01 -1.618131e-01 -1.697253e-01 -1.712953e-01 -1.793744e-01 -1.806776e-01 -1.884274e-01 -1.890787e-01 -1.960092e-01 -1.956462e-01 -2.013096e-01 -1.996184e-01 -2.036333e-01 -2.003644e-01 -2.024305e-01 -1.974054e-01 -1.973076e-01 -1.904187e-01 -1.880246e-01 -1.792303e-01 -1.744843e-01 -1.638032e-01 -1.567189e-01 -1.442236e-01 
-1.418570e-01 -1.272736e-01 -1.153732e-01 -9.913868e-02 -8.515036e-02 -6.748860e-02 -5.166890e-02 -3.285550e-02 -1.552032e-02 4.115589e-03 2.259064e-02 4.266631e-02 6.184833e-02 8.193109e-02 1.013372e-01 1.209537e-01 1.400649e-01 1.587169e-01 1.769991e-01 1.941861e-01 2.111176e-01 2.263644e-01 2.414673e-01 2.543534e-01 2.672252e-01 2.774127e-01 2.877532e-01 2.950076e-01 3.026366e-01 3.068389e-01 3.117033e-01 3.128513e-01 3.150195e-01 3.132182e-01 3.128649e-01 3.083099e-01 3.056921e-01 2.986468e-01 2.940764e-01 2.848467e-01 2.786610e-01 2.675714e-01 2.601058e-01 2.474772e-01 2.390427e-01 2.251757e-01 2.160418e-01 2.012064e-01 1.915925e-01 1.760233e-01 1.660969e-01 1.499957e-01 1.398776e-01 1.234197e-01 1.131944e-01 9.653887e-02 8.626825e-02 6.956874e-02 5.930754e-02 4.272308e-02 3.253317e-02 1.623690e-02 6.199529e-03 -9.615764e-03 -1.939176e-02 -3.451201e-02 -4.388688e-02 -5.807959e-02 -6.688515e-02 -7.990703e-02 -8.795517e-02 -9.956441e-02 -1.066615e-01 -1.166343e-01 -1.226005e-01 -1.307509e-01 -1.354431e-01 -1.416441e-01 -1.449801e-01 -1.491843e-01 -1.511644e-01 -1.534208e-01 -1.541455e-01 -1.546090e-01 -1.542867e-01 -1.532182e-01 -1.521615e-01 -1.499161e-01 -1.485253e-01 -1.455279e-01 -1.442598e-01 -1.409698e-01 -1.402958e-01 -1.371635e-01 -1.375199e-01 -1.349405e-01 -1.366774e-01 -1.349475e-01 -1.382836e-01 -1.375674e-01 -1.425579e-01 -1.428682e-01 -1.493915e-01 -1.505891e-01 -1.583555e-01 -1.601674e-01 -1.687488e-01 -1.708021e-01 -1.796767e-01 -1.815419e-01 -1.901464e-01 -1.913826e-01 -1.991631e-01 -1.993578e-01 -2.058105e-01 -2.046092e-01 -2.093095e-01 -2.064325e-01 -2.090493e-01 -2.042983e-01 -2.045971e-01 -1.978530e-01 -1.956912e-01 -1.869068e-01 -1.822249e-01 -1.714170e-01 -1.642292e-01 -1.514712e-01 
-1.548424e-01 -1.396026e-01 -1.270277e-01 -1.099905e-01 -9.516455e-02 -7.656336e-02 -5.975611e-02 -3.987814e-02 -2.142217e-02 -6.126365e-04 1.909413e-02 4.042981e-02 6.092454e-02 8.232287e-02 1.030840e-01 1.240321e-01 1.444936e-01 1.644461e-01 1.840203e-01 2.024247e-01 2.205343e-01 2.368630e-01 2.529774e-01 2.667628e-01 2.804360e-01 2.913033e-01 3.022056e-01 3.098981e-01 3.178377e-01 3.222306e-01 3.271608e-01 3.282622e-01 3.302747e-01 3.282141e-01 3.275202e-01 3.225278e-01 3.194296e-01 3.118094e-01 3.066675e-01 2.967680e-01 2.899672e-01 2.781529e-01 2.700707e-01 2.566967e-01 2.476771e-01 2.330706e-01 2.234058e-01 2.078536e-01 1.977740e-01 1.815192e-01 1.711926e-01 1.544375e-01 1.439762e-01 1.268911e-01 1.163650e-01 9.910094e-02 8.855440e-02 7.125661e-02 6.072675e-02 4.354819e-02 3.308242e-02 1.619419e-02 5.864821e-03 -1.053675e-02 -2.062237e-02 -3.631339e-02 -4.600856e-02 -6.074033e-02 -6.986140e-02 -8.336869e-02 -9.170457e-02 -1.037194e-01 -1.110480e-01 -1.213185e-01 -1.274291e-01 -1.357425e-01 -1.404632e-01 -1.466709e-01 -1.498969e-01 -1.539393e-01 -1.556601e-01 -1.575870e-01 -1.579078e-01 -1.578915e-01 -1.570439e-01 -1.553804e-01 -1.537200e-01 -1.508158e-01 -1.488027e-01 -1.451473e-01 -1.433110e-01 -1.394351e-01 -1.383244e-01 -1.347486e-01 -1.348723e-01 -1.320518e-01 -1.338174e-01 -1.320903e-01 -1.357504e-01 -1.352973e-01 -1.409104e-01 -1.417328e-01 -1.491489e-01 -1.510690e-01 -1.599417e-01 -1.626266e-01 -1.724502e-01 -1.754538e-01 -1.856194e-01 -1.884365e-01 -1.982954e-01 -2.004157e-01 -2.093401e-01 -2.102951e-01 -2.177249e-01 -2.171205e-01 -2.225941e-01 -2.201283e-01 -2.232953e-01 -2.187611e-01 -2.193824e-01 -2.126622e-01 -2.106002e-01 -2.016544e-01 -1.968600e-01 -1.857155e-01 -1.782154e-01 -1.649560e-01 