# vtk DataFile Version 2.0
Comment goes here
ASCII

DATASET STRUCTURED_POINTS
FIELD FieldData 1
TIME 1 1 double
0.13000000
DIMENSIONS    128   128   1

ORIGIN    0.000   0.000   0.000
SPACING   0.039062 0.039062   1.000

POINT_DATA   16384
SCALARS uX double
LOOKUP_TABLE default

-1.667328e-01 -1.372585e-01 -1.116082e-01 -8.148114e-02 -5.595591e-02 -2.546930e-02 -3.342257e-04 3.023510e-02 5.473068e-02 8.512192e-02 1.087448e-01 1.387122e-01 1.612450e-01 1.905564e-01 2.117978e-01 2.402331e-01 2.599970e-01 2.873470e-01 3.054628e-01 3.315281e-01 3.478415e-01 3.724317e-01 3.868045e-01 4.097384e-01 4.220500e-01 4.431558e-01 4.533038e-01 4.724191e-01 4.803204e-01 4.972937e-01 5.028853e-01 5.175761e-01 5.208161e-01 5.330968e-01 5.339648e-01 5.437211e-01 5.422188e-01 5.493517e-01 5.455032e-01 5.499303e-01 5.437824e-01 5.454398e-01 5.370618e-01 5.359059e-01 5.253896e-01 5.213992e-01 5.088586e-01 5.020372e-01 4.876072e-01 4.779844e-01 4.618203e-01 4.494536e-01 4.317288e-01 4.167048e-01 3.976084e-01 3.800431e-01 3.597771e-01 3.398155e-01 3.185911e-01 2.964064e-01 2.744402e-01 2.502314e-01 2.277410e-01 2.017304e-01 1.789306e-01 1.513603e-01 1.284588e-01 9.958721e-02 7.678140e-02 4.687910e-02 2.435353e-02 -6.300349e-03 -2.837555e-02 -5.949678e-02 -8.096626e-02 -1.122683e-01 -1.329905e-01 -1.641865e-01 -1.840318e-01 -2.148357e-01 -2.336827e-01 -2.638098e-01 -2.815419e-01 -3.107084e-01 -3.272090e-01 -3.551313e-01 -3.702799e-01 -3.966745e-01 -4.103428e-01 -4.349265e-01 -4.469765e-01 -4.694674e-01 -4.797510e-01 -4.998721e-01 -5.082332e-01 -5.257166e-01 -5.319954e-01 -5.465897e-01 -5.506295e-01 -5.621080e-01 -5.637639e-01 -5.719338e-01 -5.710827e-01 -5.757950e-01 -5.723453e-01 -5.735030e-01 -5.674040e-01 -5.649692e-01 -5.562178e-01 -5.502155e-01 -5.388609e-01 -5.293797e-01 -5.155244e-01 -5.027138e-01 -4.865113e-01 -4.705758e-01 -4.522258e-01 -4.334163e-01 -4.131573e-01 -3.917610e-01 -3.698614e-01 -3.461911e-01 -3.229399e-01 -2.973232e-01 -2.730209e-01 -2.457909e-01 -2.207416e-01 -1.922286e-01 
-1.635882e-01 -1.341778e-01 -1.085740e-01 -7.852159e-02 -5.305659e-02 -2.265271e-02 2.411018e-03 3.289206e-02 5.730746e-02 8.760715e-02 1.111429e-01 1.410175e-01 1.634579e-01 1.926768e-01 2.138216e-01 2.421660e-01 2.618301e-01 2.890917e-01 3.071052e-01 3.330852e-01 3.492938e-01 3.738024e-01 3.880682e-01 4.109245e-01 4.231267e-01 4.441586e-01 4.541946e-01 4.732399e-01 4.810264e-01 4.979333e-01 5.034070e-01 5.180350e-01 5.211536e-01 5.333748e-01 5.341176e-01 5.438175e-01 5.421861e-01 5.492654e-01 5.452837e-01 5.496597e-01 5.433745e-01 5.449829e-01 5.364636e-01 5.352605e-01 5.245992e-01 5.205630e-01 5.078738e-01 5.010073e-01 4.864262e-01 4.767584e-01 4.604413e-01 4.480293e-01 4.301505e-01 4.150803e-01 3.958305e-01 3.782178e-01 3.578004e-01 3.377900e-01 3.164182e-01 2.941833e-01 2.720759e-01 2.478158e-01 2.251928e-01 1.991305e-01 1.762094e-01 1.485882e-01 1.255794e-01 9.665907e-02 7.376303e-02 4.381594e-02 2.122009e-02 -9.472432e-03 -3.159509e-02 -6.274643e-02 -8.423786e-02 -1.155589e-01 -1.362752e-01 -1.674766e-01 -1.872860e-01 -2.180792e-01 -2.368591e-01 -2.669573e-01 -2.845900e-01 -3.137076e-01 -3.300767e-01 -3.579290e-01 -3.729148e-01 -3.992179e-01 -4.126939e-01 -4.371649e-01 -4.489957e-01 -4.713541e-01 -4.813953e-01 -5.013661e-01 -5.094660e-01 -5.267844e-01 -5.327884e-01 -5.472067e-01 -5.509638e-01 -5.622595e-01 -5.636310e-01 -5.716162e-01 -5.704850e-01 -5.750155e-01 -5.712960e-01 -5.722797e-01 -5.659266e-01 -5.633302e-01 -5.543452e-01 -5.481979e-01 -5.366342e-01 -5.270278e-01 -5.129908e-01 -5.000774e-01 -4.837225e-01 -4.677083e-01 -4.492360e-01 -4.303723e-01 -4.100210e-01 -3.885948e-01 -3.666318e-01 -3.429547e-01 -3.196672e-01 -2.940652e-01 -2.697515e-01 -2.425552e-01 -2.175167e-01 -1.890539e-01 
-1.672912e-01 -1.376626e-01 -1.118724e-01 -8.159879e-02 -5.594103e-02 -2.531598e-02 -5.625824e-05 3.064347e-02 5.525565e-02 8.576978e-02 1.095012e-01 1.395847e-01 1.622183e-01 1.916397e-01 2.129741e-01 2.415141e-01 2.613631e-01 2.888129e-01 3.070060e-01 3.331664e-01 3.495487e-01 3.742296e-01 3.886627e-01 4.116827e-01 4.240454e-01 4.452323e-01 4.554219e-01 4.746131e-01 4.825458e-01 4.995893e-01 5.052018e-01 5.199566e-01 5.232068e-01 5.355445e-01 5.364117e-01 5.462175e-01 5.447031e-01 5.518772e-01 5.480053e-01 5.524643e-01 5.462816e-01 5.479607e-01 5.395367e-01 5.383913e-01 5.278179e-01 5.238259e-01 5.112175e-01 5.043812e-01 4.898735e-01 4.802218e-01 4.639709e-01 4.515609e-01 4.337413e-01 4.186593e-01 3.994617e-01 3.818238e-01 3.614520e-01 3.414040e-01 3.200711e-01 2.977870e-01 2.757117e-01 2.513919e-01 2.287941e-01 2.026624e-01 1.797587e-01 1.520593e-01 1.290590e-01 1.000521e-01 7.715397e-02 4.711212e-02 2.450146e-02 -6.294538e-03 -2.844745e-02 -5.971197e-02 -8.125222e-02 -1.126977e-01 -1.334849e-01 -1.648239e-01 -1.847298e-01 -2.156762e-01 -2.345816e-01 -2.648506e-01 -2.826410e-01 -3.119492e-01 -3.285101e-01 -3.565742e-01 -3.717868e-01 -3.983232e-01 -4.120604e-01 -4.367849e-01 -4.489089e-01 -4.715384e-01 -4.819001e-01 -5.021549e-01 -5.105959e-01 -5.282049e-01 -5.345620e-01 -5.492696e-01 -5.533818e-01 -5.649564e-01 -5.666740e-01 -5.749183e-01 -5.741130e-01 -5.788734e-01 -5.754493e-01 -5.766257e-01 -5.705283e-01 -5.680806e-01 -5.593048e-01 -5.532579e-01 -5.418522e-01 -5.322960e-01 -5.183639e-01 -5.054509e-01 -4.891486e-01 -4.730875e-01 -4.546183e-01 -4.356651e-01 -4.152719e-01 -3.937191e-01 -3.716750e-01 -3.478407e-01 -3.244392e-01 -2.986559e-01 -2.742017e-01 -2.468064e-01 -2.216068e-01 -1.929330e-01 
-1.646751e-01 -1.349588e-01 -1.090782e-01 -7.873529e-02 -5.300777e-02 -2.232955e-02 2.981224e-03 3.372081e-02 5.836749e-02 8.891101e-02 1.126624e-01 1.427675e-01 1.654082e-01 1.948459e-01 2.161758e-01 2.447285e-01 2.645624e-01 2.920229e-01 3.101906e-01 3.363605e-01 3.527070e-01 3.773967e-01 3.917832e-01 4.148114e-01 4.271162e-01 4.483104e-01 4.584298e-01 4.776270e-01 4.854767e-01 5.025242e-01 5.080401e-01 5.227962e-01 5.259354e-01 5.382709e-01 5.390122e-01 5.488114e-01 5.471559e-01 5.543179e-01 5.502894e-01 5.547296e-01 5.483748e-01 5.500271e-01 5.414155e-01 5.402339e-01 5.294579e-01 5.254188e-01 5.125936e-01 5.056978e-01 4.909604e-01 4.812355e-01 4.647436e-01 4.522454e-01 4.341758e-01 4.189899e-01 3.995362e-01 3.817784e-01 3.611476e-01 3.409641e-01 3.193734e-01 2.969391e-01 2.746113e-01 2.501283e-01 2.272878e-01 2.009824e-01 1.778506e-01 1.499696e-01 1.267604e-01 9.756763e-02 7.448402e-02 4.425568e-02 2.148677e-02 -9.492398e-03 -3.177317e-02 -6.321365e-02 -8.484902e-02 -1.164596e-01 -1.373077e-01 -1.687976e-01 -1.887297e-01 -2.198100e-01 -2.387073e-01 -2.690912e-01 -2.868405e-01 -3.162427e-01 -3.327316e-01 -3.608679e-01 -3.759801e-01 -4.025661e-01 -4.161773e-01 -4.409287e-01 -4.529039e-01 -4.755372e-01 -4.857301e-01 -5.059653e-01 -5.142199e-01 -5.317857e-01 -5.379406e-01 -5.525810e-01 -5.564770e-01 -5.679603e-01 -5.694489e-01 -5.775778e-01 -5.765323e-01 -5.811543e-01 -5.774803e-01 -5.784969e-01 -5.721421e-01 -5.695162e-01 -5.604783e-01 -5.542385e-01 -5.425695e-01 -5.328108e-01 -5.186183e-01 -5.054987e-01 -4.889433e-01 -4.726772e-01 -4.539667e-01 -4.348158e-01 -4.141971e-01 -3.924591e-01 -3.702088e-01 -3.462057e-01 -3.226199e-01 -2.966870e-01 -2.720720e-01 -2.445478e-01 -2.192115e-01 -1.904299e-01 
-1.689537e-01 -1.388609e-01 -1.126501e-01 -8.193625e-02 -5.588033e-02 -2.484011e-02 7.937534e-04 3.188417e-02 5.684611e-02 8.772818e-02 1.117853e-01 1.422163e-01 1.651520e-01 1.949029e-01 2.165162e-01 2.453696e-01 2.654744e-01 2.932231e-01 3.116483e-01 3.380940e-01 3.546838e-01 3.796366e-01 3.942512e-01 4.175294e-01 4.300462e-01 4.514768e-01 4.617915e-01 4.812108e-01 4.892383e-01 5.064928e-01 5.121686e-01 5.271158e-01 5.303967e-01 5.429064e-01 5.437711e-01 5.537262e-01 5.521757e-01 5.594741e-01 5.555320e-01 5.600878e-01 5.538008e-01 5.555461e-01 5.469838e-01 5.458709e-01 5.351259e-01 5.311296e-01 5.183174e-01 5.114371e-01 4.966953e-01 4.869576e-01 4.704450e-01 4.579051e-01 4.397998e-01 4.245434e-01 4.050407e-01 3.871844e-01 3.664934e-01 3.461847e-01 3.245246e-01 3.019405e-01 2.795364e-01 2.548815e-01 2.319595e-01 2.054628e-01 1.822456e-01 1.541568e-01 1.308590e-01 1.014444e-01 7.826857e-02 4.780637e-02 2.494025e-02 -6.283513e-03 -2.866909e-02 -6.036452e-02 -8.211602e-02 -1.139925e-01 -1.349728e-01 -1.667411e-01 -1.868269e-01 -2.182005e-01 -2.372788e-01 -2.679735e-01 -2.859365e-01 -3.156698e-01 -3.324099e-01 -3.608994e-01 -3.763032e-01 -4.032652e-01 -4.172093e-01 -4.423578e-01 -4.547049e-01 -4.777524e-01 -4.883505e-01 -5.090099e-01 -5.176940e-01 -5.356839e-01 -5.422804e-01 -5.573323e-01 -5.616667e-01 -5.735346e-01 -5.754420e-01 -5.839136e-01 -5.832503e-01 -5.881588e-01 -5.848146e-01 -5.860491e-01 -5.799586e-01 -5.774731e-01 -5.686242e-01 -5.624423e-01 -5.508820e-01 -5.410980e-01 -5.269330e-01 -5.137086e-01 -4.971031e-01 -4.806602e-01 -4.618289e-01 -4.424390e-01 -4.216385e-01 -3.996111e-01 -3.771288e-01 -3.527980e-01 -3.289415e-01 -3.026545e-01 -2.777409e-01 -2.498468e-01 -2.241937e-01 -1.950353e-01 
-1.668236e-01 -1.364934e-01 -1.100567e-01 -7.913211e-02 -5.287849e-02 -2.165193e-02 4.153259e-03 3.540886e-02 6.051797e-02 9.154769e-02 1.157301e-01 1.462948e-01 1.693359e-01 1.992098e-01 2.209100e-01 2.498784e-01 2.700523e-01 2.979099e-01 3.163867e-01 3.429362e-01 3.595595e-01 3.846114e-01 3.992405e-01 4.226131e-01 4.351241e-01 4.566436e-01 4.669308e-01 4.864327e-01 4.944097e-01 5.117393e-01 5.173404e-01 5.323538e-01 5.355348e-01 5.481005e-01 5.488391e-01 5.588384e-01 5.571351e-01 5.644640e-01 5.603420e-01 5.649126e-01 5.584184e-01 5.601605e-01 5.513638e-01 5.502272e-01 5.392214e-01 5.351782e-01 5.220797e-01 5.151270e-01 5.000752e-01 4.902369e-01 4.733932e-01 4.607230e-01 4.422688e-01 4.268511e-01 4.069860e-01 3.889372e-01 3.678756e-01 3.473439e-01 3.253109e-01 3.024752e-01 2.797025e-01 2.547704e-01 2.314910e-01 2.046954e-01 1.811388e-01 1.527345e-01 1.291217e-01 9.938036e-02 7.591997e-02 4.512566e-02 2.201014e-02 -9.545192e-03 -3.214141e-02 -6.416232e-02 -8.608358e-02 -1.182745e-01 -1.393831e-01 -1.714506e-01 -1.916242e-01 -2.232786e-01 -2.424066e-01 -2.733614e-01 -2.913397e-01 -3.213109e-01 -3.380359e-01 -3.667404e-01 -3.821032e-01 -4.092566e-01 -4.231379e-01 -4.484532e-01 -4.607190e-01 -4.839070e-01 -4.944074e-01 -5.151784e-01 -5.237487e-01 -5.418175e-01 -5.482829e-01 -5.633766e-01 -5.675598e-01 -5.794275e-01 -5.811601e-01 -5.895849e-01 -5.887197e-01 -5.935312e-01 -5.899551e-01 -5.910411e-01 -5.846872e-01 -5.820027e-01 -5.728599e-01 -5.664323e-01 -5.545506e-01 -5.444810e-01 -5.299726e-01 -5.164319e-01 -4.994682e-01 -4.826885e-01 -4.634927e-01 -4.437568e-01 -4.225941e-01 -4.002220e-01 -3.773882e-01 -3.527236e-01 -3.285332e-01 -3.019307e-01 -2.767063e-01 -2.485205e-01 -2.225836e-01 -1.931601e-01 
-1.716806e-01 -1.408103e-01 -1.138949e-01 -8.244591e-02 -5.572464e-02 -2.399309e-02 2.264757e-03 3.400443e-02 5.954895e-02 9.104174e-02 1.156411e-01 1.466486e-01 1.700875e-01 2.003852e-01 2.224634e-01 2.518375e-01 2.723691e-01 3.006151e-01 3.194281e-01 3.463491e-01 3.632860e-01 3.886925e-01 4.036112e-01 4.273207e-01 4.400959e-01 4.619339e-01 4.724587e-01 4.922596e-01 5.004464e-01 5.180544e-01 5.238367e-01 5.391066e-01 5.424397e-01 5.552381e-01 5.560993e-01 5.663060e-01 5.646956e-01 5.722043e-01 5.681453e-01 5.728656e-01 5.664044e-01 5.682634e-01 5.594699e-01 5.584147e-01 5.473823e-01 5.433821e-01 5.302281e-01 5.232773e-01 5.081423e-01 4.982629e-01 4.813101e-01 4.685545e-01 4.499680e-01 4.344205e-01 4.144031e-01 3.961810e-01 3.749511e-01 3.542047e-01 3.319920e-01 3.089035e-01 2.859439e-01 2.607251e-01 2.372561e-01 2.101447e-01 1.863993e-01 1.576550e-01 1.338569e-01 1.037563e-01 8.011498e-02 4.894642e-02 2.565390e-02 -6.287540e-03 -2.905938e-02 -6.147640e-02 -8.357636e-02 -1.161731e-01 -1.374697e-01 -1.699542e-01 -1.903329e-01 -2.224180e-01 -2.417768e-01 -2.731798e-01 -2.914233e-01 -3.218641e-01 -3.388966e-01 -3.680953e-01 -3.838138e-01 -4.114874e-01 -4.257753e-01 -4.516355e-01 -4.643575e-01 -4.881098e-01 -4.991095e-01 -5.204547e-01 -5.295555e-01 -5.481945e-01 -5.552048e-01 -5.708466e-01 -5.755684e-01 -5.879412e-01 -5.901823e-01 -5.990476e-01 -5.986366e-01 -6.038032e-01 -6.006046e-01 -6.019428e-01 -5.958713e-01 -5.933237e-01 -5.843552e-01 -5.779434e-01 -5.661217e-01 -5.559477e-01 -5.413859e-01 -5.276279e-01 -5.105044e-01 -4.934076e-01 -4.739577e-01 -4.538217e-01 -4.323263e-01 -4.094896e-01 -3.862616e-01 -3.610872e-01 -3.364584e-01 -3.093185e-01 -2.836276e-01 -2.548920e-01 -2.284742e-01 -1.985012e-01 
-1.699799e-01 -1.387234e-01 -1.114476e-01 -7.964870e-02 -5.260355e-02 -2.055568e-02 5.991553e-03 3.801811e-02 6.382024e-02 9.557534e-02 1.204034e-01 1.516535e-01 1.752945e-01 2.058194e-01 2.280750e-01 2.576645e-01 2.783494e-01 3.068013e-01 3.257434e-01 3.528622e-01 3.699028e-01 3.954990e-01 4.104945e-01 4.343851e-01 4.472080e-01 4.692176e-01 4.797588e-01 4.997201e-01 5.078902e-01 5.256456e-01 5.313762e-01 5.467787e-01 5.500236e-01 5.629379e-01 5.636735e-01 5.739769e-01 5.722024e-01 5.797863e-01 5.755242e-01 5.802951e-01 5.735915e-01 5.754734e-01 5.663983e-01 5.653344e-01 5.539818e-01 5.499375e-01 5.364259e-01 5.293918e-01 5.138640e-01 5.038588e-01 4.864811e-01 4.735543e-01 4.545156e-01 4.387496e-01 4.182585e-01 3.997703e-01 3.780523e-01 3.569934e-01 3.342864e-01 3.108417e-01 2.873908e-01 2.617765e-01 2.378284e-01 2.102882e-01 1.860855e-01 1.568861e-01 1.326612e-01 1.020871e-01 7.805727e-02 4.640509e-02 2.276843e-02 -9.658577e-03 -3.272598e-02 -6.562298e-02 -8.796794e-02 -1.210326e-01 -1.425240e-01 -1.754591e-01 -1.959850e-01 -2.284999e-01 -2.479628e-01 -2.797726e-01 -2.980833e-01 -3.289070e-01 -3.459767e-01 -3.755339e-01 -3.912667e-01 -4.192743e-01 -4.335595e-01 -4.597278e-01 -4.724343e-01 -4.964662e-01 -5.074389e-01 -5.290303e-01 -5.380914e-01 -5.569359e-01 -5.638887e-01 -5.796862e-01 -5.843252e-01 -5.967936e-01 -5.989177e-01 -6.078081e-01 -6.072364e-01 -6.123491e-01 -6.089378e-01 -6.101377e-01 -6.037962e-01 -6.010248e-01 -5.917274e-01 -5.850104e-01 -5.728038e-01 -5.622523e-01 -5.472567e-01 -5.330621e-01 -5.154669e-01 -4.978905e-01 -4.779442e-01 -4.573030e-01 -4.353006e-01 -4.119505e-01 -3.882184e-01 -3.625376e-01 -3.374198e-01 -3.097932e-01 -2.836380e-01 -2.544447e-01 -2.275940e-01 -1.971979e-01 
-1.754004e-01 -1.434340e-01 -1.155247e-01 -8.304458e-02 -5.538872e-02 -2.269134e-02 4.440371e-03 3.708433e-02 6.344324e-02 9.578513e-02 1.211420e-01 1.529508e-01 1.770929e-01 2.081510e-01 2.308800e-01 2.609794e-01 2.821097e-01 3.110499e-01 3.304082e-01 3.579942e-01 3.754203e-01 4.014628e-01 4.168109e-01 4.411261e-01 4.542668e-01 4.766780e-01 4.875001e-01 5.078386e-01 5.162513e-01 5.343579e-01 5.402916e-01 5.560174e-01 5.594251e-01 5.726327e-01 5.734903e-01 5.840546e-01 5.823610e-01 5.901704e-01 5.859480e-01 5.909055e-01 5.842002e-01 5.862259e-01 5.771074e-01 5.761403e-01 5.647031e-01 5.607043e-01 5.470677e-01 5.400239e-01 5.243321e-01 5.142587e-01 4.966809e-01 4.836252e-01 4.643541e-01 4.483980e-01 4.276473e-01 4.089089e-01 3.869102e-01 3.655439e-01 3.425420e-01 3.187374e-01 2.949849e-01 2.689643e-01 2.447149e-01 2.167292e-01 1.922318e-01 1.625554e-01 1.380472e-01 1.069723e-01 8.267350e-02 5.050347e-02 2.661252e-02 -6.343939e-03 -2.965333e-02 -6.308789e-02 -8.566785e-02 -1.192770e-01 -1.410045e-01 -1.744924e-01 -1.952662e-01 -2.283456e-01 -2.480804e-01 -2.804718e-01 -2.990913e-01 -3.305198e-01 -3.479475e-01 -3.781384e-01 -3.942882e-01 -4.229617e-01 -4.377288e-01 -4.645949e-01 -4.778482e-01 -5.026042e-01 -5.141819e-01 -5.365117e-01 -5.462210e-01 -5.657998e-01 -5.734220e-01 -5.899248e-01 -5.952261e-01 -6.083420e-01 -6.110884e-01 -6.205377e-01 -6.205147e-01 -6.260686e-01 -6.231011e-01 -6.245997e-01 -6.185715e-01 -6.159396e-01 -6.068077e-01 -6.000634e-01 -5.878674e-01 -5.771247e-01 -5.619876e-01 -5.474503e-01 -5.295733e-01 -5.115229e-01 -4.911736e-01 -4.699523e-01 -4.474490e-01 -4.234403e-01 -3.991346e-01 -3.727439e-01 -3.470043e-01 -3.186412e-01 -2.918379e-01 -2.619026e-01 -2.343959e-01 -2.032681e-01 
-1.740554e-01 -1.415544e-01 -1.131509e-01 -8.018432e-02 -5.208034e-02 -1.894079e-02 8.595674e-03 4.164340e-02 6.836752e-02 1.010815e-01 1.267680e-01 1.589239e-01 1.833633e-01 2.147494e-01 2.377455e-01 2.681583e-01 2.895263e-01 3.187682e-01 3.383341e-01 3.662115e-01 3.838133e-01 4.101366e-01 4.256258e-01 4.502101e-01 4.634541e-01 4.861209e-01 4.970055e-01 5.175839e-01 5.260153e-01 5.443436e-01 5.502500e-01 5.661769e-01 5.695094e-01 5.828949e-01 5.836280e-01 5.943443e-01 5.924759e-01 6.004080e-01 5.959596e-01 6.010070e-01 5.940240e-01 5.961022e-01 5.866542e-01 5.856973e-01 5.738791e-01 5.698430e-01 5.557751e-01 5.486408e-01 5.324701e-01 5.222481e-01 5.041474e-01 4.908811e-01 4.710487e-01 4.548173e-01 4.334743e-01 4.143952e-01 3.917825e-01 3.700114e-01 3.463847e-01 3.221149e-01 2.977386e-01 2.711984e-01 2.463390e-01 2.177874e-01 1.927059e-01 1.624269e-01 1.373724e-01 1.056689e-01 8.087149e-02 4.805818e-02 2.372410e-02 -9.879481e-03 -3.357137e-02 -6.764695e-02 -9.054682e-02 -1.247825e-01 -1.467687e-01 -1.808623e-01 -2.018379e-01 -2.354983e-01 -2.553855e-01 -2.883314e-01 -3.070631e-01 -3.390196e-01 -3.565300e-01 -3.872234e-01 -4.034367e-01 -4.325878e-01 -4.474080e-01 -4.747266e-01 -4.880284e-01 -5.132081e-01 -5.248311e-01 -5.475490e-01 -5.572971e-01 -5.772171e-01 -5.848628e-01 -6.016456e-01 -6.069417e-01 -6.202591e-01 -6.229557e-01 -6.325107e-01 -6.323763e-01 -6.379246e-01 -6.347693e-01 -6.361408e-01 -6.298374e-01 -6.269530e-01 -6.174543e-01 -6.103364e-01 -5.976847e-01 -5.864592e-01 -5.707874e-01 -5.556769e-01 -5.372018e-01 -5.185113e-01 -4.975196e-01 -4.756169e-01 -4.524479e-01 -4.277415e-01 -4.027672e-01 -3.756849e-01 -3.492914e-01 -3.202613e-01 -2.928330e-01 -2.622683e-01 -2.341756e-01 -2.024643e-01 
-1.800009e-01 -1.466134e-01 -1.174154e-01 -8.360750e-02 -5.474626e-02 -2.081235e-02 7.441845e-03 4.123878e-02 6.864130e-02 1.020634e-01 1.283904e-01 1.612181e-01 1.862619e-01 2.182882e-01 2.418536e-01 2.728790e-01 2.947811e-01 3.246104e-01 3.446741e-01 3.731147e-01 3.911757e-01 4.180378e-01 4.339448e-01 4.590425e-01 4.726597e-01 4.958127e-01 5.070232e-01 5.280586e-01 5.367665e-01 5.555206e-01 5.616527e-01 5.779719e-01 5.814784e-01 5.952202e-01 5.960751e-01 6.071087e-01 6.053095e-01 6.135163e-01 6.090844e-01 6.143592e-01 6.073396e-01 6.095927e-01 6.000546e-01 5.992142e-01 5.872526e-01 5.832684e-01 5.690043e-01 5.618518e-01 5.454338e-01 5.351185e-01 5.167228e-01 5.032847e-01 4.831147e-01 4.666318e-01 4.449157e-01 4.255063e-01 4.024936e-01 3.803176e-01 3.562738e-01 3.315307e-01 3.067310e-01 2.796577e-01 2.543789e-01 2.252444e-01 1.997574e-01 1.688569e-01 1.434183e-01 1.110655e-01 8.591060e-02 5.243038e-02 2.776712e-02 -6.512772e-03 -3.050770e-02 -6.526345e-02 -8.844651e-02 -1.233640e-01 -1.456239e-01 -1.804025e-01 -2.016565e-01 -2.360099e-01 -2.561971e-01 -2.898520e-01 -3.089239e-01 -3.416150e-01 -3.595239e-01 -3.909870e-01 -4.076728e-01 -4.376358e-01 -4.530131e-01 -4.811879e-01 -4.951342e-01 -5.212097e-01 -5.335580e-01 -5.571971e-01 -5.677334e-01 -5.885763e-01 -5.970444e-01 -6.147187e-01 -6.208334e-01 -6.349713e-01 -6.384377e-01 -6.486994e-01 -6.492395e-01 -6.553395e-01 -6.527198e-01 -6.544534e-01 -6.485115e-01 -6.457761e-01 -6.364417e-01 -6.292503e-01 -6.165569e-01 -6.050409e-01 -5.891275e-01 -5.735287e-01 -5.546308e-01 -5.352841e-01 -5.137170e-01 -4.910266e-01 -4.671634e-01 -4.415771e-01 -4.158252e-01 -3.878082e-01 -3.605874e-01 -3.306012e-01 -3.023249e-01 -2.708097e-01 -2.418717e-01 -2.092353e-01 
-1.789159e-01 -1.448462e-01 -1.150208e-01 -8.059382e-02 -5.116297e-02 -1.666688e-02 1.210367e-02 4.641453e-02 7.428594e-02 1.081833e-01 1.349375e-01 1.682110e-01 1.936450e-01 2.260956e-01 2.500171e-01 2.814510e-01 3.036759e-01 3.339014e-01 3.542532e-01 3.830788e-01 4.013902e-01 4.286255e-01 4.447409e-01 4.701976e-01 4.839769e-01 5.074718e-01 5.187936e-01 5.401507e-01 5.489152e-01 5.679676e-01 5.740987e-01 5.906899e-01 5.941356e-01 6.081202e-01 6.088529e-01 6.200967e-01 6.181129e-01 6.264937e-01 6.218135e-01 6.272216e-01 6.198892e-01 6.222294e-01 6.123135e-01 6.115076e-01 5.991030e-01 5.950934e-01 5.803220e-01 5.730768e-01 5.560896e-01 5.456073e-01 5.265848e-01 5.128994e-01 4.920514e-01 4.752371e-01 4.528008e-01 4.329746e-01 4.092112e-01 3.865343e-01 3.617231e-01 3.363998e-01 3.108314e-01 2.831064e-01 2.570739e-01 2.272268e-01 2.010174e-01 1.693560e-01 1.432414e-01 1.100939e-01 8.432225e-02 5.002814e-02 2.481765e-02 -1.028091e-02 -3.474728e-02 -7.031349e-02 -9.389009e-02 -1.295991e-01 -1.521771e-01 -1.877205e-01 -2.092238e-01 -2.443112e-01 -2.646896e-01 -2.990466e-01 -3.182653e-01 -3.516285e-01 -3.696552e-01 -4.017636e-01 -4.185533e-01 -4.491385e-01 -4.646188e-01 -4.933936e-01 -5.074509e-01 -5.341011e-01 -5.465705e-01 -5.707504e-01 -5.814128e-01 -6.027473e-01 -6.113332e-01 -6.294285e-01 -6.356318e-01 -6.500944e-01 -6.535952e-01 -6.640580e-01 -6.645513e-01 -6.707046e-01 -6.679325e-01 -6.695538e-01 -6.633361e-01 -6.603153e-01 -6.505735e-01 -6.429278e-01 -6.296983e-01 -6.175755e-01 -6.010108e-01 -5.846790e-01 -5.650370e-01 -5.448642e-01 -5.224879e-01 -4.989146e-01 -4.742070e-01 -4.477161e-01 -4.211131e-01 -3.922011e-01 -3.641473e-01 -3.333002e-01 -3.042284e-01 -2.719041e-01 -2.422211e-01 -2.088375e-01 
-1.853166e-01 -1.501770e-01 -1.193900e-01 -8.395980e-02 -5.362283e-02 -1.818935e-02 1.143196e-02 4.661984e-02 7.528977e-02 1.100115e-01 1.375163e-01 1.715701e-01 1.977106e-01 2.309049e-01 2.554914e-01 2.876381e-01 3.104871e-01 3.413979e-01 3.623314e-01 3.918163e-01 4.106636e-01 4.385313e-01 4.551326e-01 4.811932e-01 4.954039e-01 5.194715e-01 5.311664e-01 5.530624e-01 5.621389e-01 5.816939e-01 5.880741e-01 6.051291e-01 6.087603e-01 6.231672e-01 6.240217e-01 6.356430e-01 6.337171e-01 6.424262e-01 6.377397e-01 6.434213e-01 6.360178e-01 6.385698e-01 6.285171e-01 6.278535e-01 6.152457e-01 6.113004e-01 5.962598e-01 5.889927e-01 5.716715e-01 5.610740e-01 5.416565e-01 5.277576e-01 5.064599e-01 4.893313e-01 4.663997e-01 4.461596e-01 4.218667e-01 3.986810e-01 3.733198e-01 3.474013e-01 3.212770e-01 2.928818e-01 2.663025e-01 2.357240e-01 2.089905e-01 1.765519e-01 1.499472e-01 1.159919e-01 8.977253e-02 5.465421e-02 2.904175e-02 -6.885538e-03 -3.170972e-02 -6.810096e-02 -9.199852e-02 -1.285253e-01 -1.514004e-01 -1.877561e-01 -2.095512e-01 -2.454523e-01 -2.661403e-01 -3.013241e-01 -3.208961e-01 -3.551141e-01 -3.735642e-01 -4.065713e-01 -4.238785e-01 -4.554192e-01 -4.715288e-01 -5.013234e-01 -5.161296e-01 -5.438613e-01 -5.571941e-01 -5.825017e-01 -5.941211e-01 -6.165999e-01 -6.261995e-01 -6.454123e-01 -6.526351e-01 -6.681340e-01 -6.725989e-01 -6.839573e-01 -6.852944e-01 -6.921442e-01 -6.900350e-01 -6.921049e-01 -6.863201e-01 -6.834671e-01 -6.738968e-01 -6.661258e-01 -6.527963e-01 -6.402644e-01 -6.233391e-01 -6.063433e-01 -5.861091e-01 -5.650611e-01 -5.419030e-01 -5.172955e-01 -4.916648e-01 -4.640350e-01 -4.364169e-01 -4.063123e-01 -3.771964e-01 -3.451467e-01 -3.150035e-01 -2.815003e-01 -2.507656e-01 -2.162507e-01 
-1.843666e-01 -1.483994e-01 -1.168537e-01 -8.067795e-02 -4.965441e-02 -1.354734e-02 1.669616e-02 5.249856e-02 8.173534e-02 1.170263e-01 1.450512e-01 1.796417e-01 2.062624e-01 2.399714e-01 2.650022e-01 2.976492e-01 3.209072e-01 3.523077e-01 3.736127e-01 4.035772e-01 4.227537e-01 4.510890e-01 4.679709e-01 4.944832e-01 5.089191e-01 5.334182e-01 5.452768e-01 5.675795e-01 5.767533e-01 5.966863e-01 6.030940e-01 6.204949e-01 6.240813e-01 6.387990e-01 6.395348e-01 6.514284e-01 6.493088e-01 6.582478e-01 6.532915e-01 6.591555e-01 6.514046e-01 6.540849e-01 6.436060e-01 6.430081e-01 6.298945e-01 6.259431e-01 6.103168e-01 6.029616e-01 5.849769e-01 5.741996e-01 5.540447e-01 5.398658e-01 5.177642e-01 5.002496e-01 4.764583e-01 4.557235e-01 4.305293e-01 4.067419e-01 3.804552e-01 3.538337e-01 3.267793e-01 2.975896e-01 2.700968e-01 2.386462e-01 2.110366e-01 1.776647e-01 1.502411e-01 1.153100e-01 8.834583e-02 5.222857e-02 2.595838e-02 -1.097217e-02 -3.635888e-02 -7.374076e-02 -9.810317e-02 -1.355942e-01 -1.588400e-01 -1.961241e-01 -2.182052e-01 -2.549942e-01 -2.758986e-01 -3.119304e-01 -3.316684e-01 -3.666993e-01 -3.852868e-01 -4.190791e-01 -4.365175e-01 -4.688236e-01 -4.850774e-01 -5.156224e-01 -5.305996e-01 -5.590657e-01 -5.726007e-01 -5.986171e-01 -6.104631e-01 -6.336051e-01 -6.434370e-01 -6.632375e-01 -6.706683e-01 -6.866419e-01 -6.912522e-01 -7.029316e-01 -7.043107e-01 -7.112902e-01 -7.090820e-01 -7.110621e-01 -7.050092e-01 -7.018334e-01 -6.918125e-01 -6.834903e-01 -6.695308e-01 -6.562415e-01 -6.385263e-01 -6.206042e-01 -5.994521e-01 -5.773559e-01 -5.531918e-01 -5.274647e-01 -5.007822e-01 -4.720098e-01 -4.433335e-01 -4.121053e-01 -3.819580e-01 -3.488361e-01 -3.177135e-01 -2.832113e-01 -2.515654e-01 -2.161360e-01 
-1.911100e-01 -1.538840e-01 -1.212048e-01 -8.386504e-02 -5.178672e-02 -1.460461e-02 1.661953e-02 5.341899e-02 8.357011e-02 1.197935e-01 1.486750e-01 1.841466e-01 2.115735e-01 2.461237e-01 2.719149e-01 3.053712e-01 3.293450e-01 3.615276e-01 3.835014e-01 4.142219e-01 4.340152e-01 4.630786e-01 4.805189e-01 5.077281e-01 5.226575e-01 5.478184e-01 5.601001e-01 5.830261e-01 5.925489e-01 6.130638e-01 6.197448e-01 6.376837e-01 6.414675e-01 6.566767e-01 6.575344e-01 6.698700e-01 6.677972e-01 6.771237e-01 6.721389e-01 6.783293e-01 6.704736e-01 6.734104e-01 6.627488e-01 6.623273e-01 6.489507e-01 6.450841e-01 6.291138e-01 6.217401e-01 6.033309e-01 5.924216e-01 5.717655e-01 5.573335e-01 5.346610e-01 5.167682e-01 4.923476e-01 4.711104e-01 4.452436e-01 4.208353e-01 3.938507e-01 3.665005e-01 3.387429e-01 3.087322e-01 2.805511e-01 2.482054e-01 2.199416e-01 1.856213e-01 1.575940e-01 1.216821e-01 9.417629e-02 5.706564e-02 3.032228e-02 -7.597649e-03 -3.338970e-02 -7.174508e-02 -9.645315e-02 -1.348963e-01 -1.584441e-01 -1.966606e-01 -2.190241e-01 -2.567356e-01 -2.779333e-01 -3.148947e-01 -3.349727e-01 -3.709630e-01 -3.899749e-01 -4.247815e-01 -4.427644e-01 -4.761627e-01 -4.931102e-01 -5.248411e-01 -5.406770e-01 -5.704255e-01 -5.849828e-01 -6.123630e-01 -6.253715e-01 -6.499229e-01 -6.610109e-01 -6.822090e-01 -6.909215e-01 -7.082069e-01 -7.140404e-01 -7.268620e-01 -7.293152e-01 -7.371847e-01 -7.358157e-01 -7.383635e-01 -7.328460e-01 -7.298690e-01 -7.200369e-01 -7.115280e-01 -6.973991e-01 -6.835530e-01 -6.653290e-01 -6.465234e-01 -6.245679e-01 -6.013251e-01 -5.761244e-01 -5.490620e-01 -5.211784e-01 -4.909572e-01 -4.609831e-01 -4.282608e-01 -3.967789e-01 -3.621738e-01 -3.297278e-01 -2.937949e-01 -2.608710e-01 -2.240902e-01 
-1.901315e-01 -1.519374e-01 -1.183726e-01 -8.017077e-02 -4.729663e-02 -9.342358e-03 2.260076e-02 6.010163e-02 9.090895e-02 1.277827e-01 1.572705e-01 1.933591e-01 2.213523e-01 2.565003e-01 2.828231e-01 3.168675e-01 3.413391e-01 3.741041e-01 3.965378e-01 4.278345e-01 4.480421e-01 4.776713e-01 4.954709e-01 5.232290e-01 5.384529e-01 5.641392e-01 5.766421e-01 6.000637e-01 6.097283e-01 6.307042e-01 6.374434e-01 6.558052e-01 6.595616e-01 6.751529e-01 6.758966e-01 6.885705e-01 6.862963e-01 6.959137e-01 6.906388e-01 6.970672e-01 6.888309e-01 6.919451e-01 6.808099e-01 6.804949e-01 6.665495e-01 6.627060e-01 6.460700e-01 6.386226e-01 6.194511e-01 6.083574e-01 5.868461e-01 5.721071e-01 5.484940e-01 5.301629e-01 5.047287e-01 4.829175e-01 4.559814e-01 4.308646e-01 4.027766e-01 3.745905e-01 3.457204e-01 3.147587e-01 2.854830e-01 2.520890e-01 2.227758e-01 1.873311e-01 1.583250e-01 1.212368e-01 9.284494e-02 5.453140e-02 2.701162e-02 -1.211318e-02 -3.856140e-02 -7.810145e-02 -1.033422e-01 -1.429319e-01 -1.668937e-01 -2.062066e-01 -2.288780e-01 -2.676310e-01 -2.890508e-01 -3.270014e-01 -3.472425e-01 -3.841789e-01 -4.033259e-01 -4.390497e-01 -4.571716e-01 -4.914734e-01 -5.085928e-01 -5.412255e-01 -5.572877e-01 -5.879400e-01 -6.027869e-01 -6.310637e-01 -6.444181e-01 -6.698341e-01 -6.812989e-01 -7.032889e-01 -7.123664e-01 -7.303170e-01 -7.364480e-01 -7.497480e-01 -7.523698e-01 -7.604735e-01 -7.590870e-01 -7.615807e-01 -7.558167e-01 -7.524749e-01 -7.421459e-01 -7.329664e-01 -7.180944e-01 -7.033031e-01 -6.841185e-01 -6.641464e-01 -6.410594e-01 -6.164956e-01 -5.900499e-01 -5.615827e-01 -5.324000e-01 -5.007564e-01 -4.694833e-01 -4.353765e-01 -4.026396e-01 -3.667291e-01 -3.331035e-01 -2.959701e-01 -2.619608e-01 -2.240961e-01 
-1.970473e-01 -1.574032e-01 -1.225316e-01 -8.301083e-02 -4.893784e-02 -9.781895e-03 2.326391e-02 6.186855e-02 9.369742e-02 1.315983e-01 1.620415e-01 1.991007e-01 2.279951e-01 2.640737e-01 2.912511e-01 3.261970e-01 3.514781e-01 3.851211e-01 4.083156e-01 4.404667e-01 4.613786e-01 4.918348e-01 5.102719e-01 5.388239e-01 5.546087e-01 5.810495e-01 5.940290e-01 6.181612e-01 6.282136e-01 6.498531e-01 6.568900e-01 6.758665e-01 6.798315e-01 6.959870e-01 6.968522e-01 7.100373e-01 7.077989e-01 7.178696e-01 7.125452e-01 7.193615e-01 7.109885e-01 7.144145e-01 7.030521e-01 7.029591e-01 6.886921e-01 6.849653e-01 6.679096e-01 6.604574e-01 6.407673e-01 6.295325e-01 6.074061e-01 5.923782e-01 5.680617e-01 5.492876e-01 5.230752e-01 5.006670e-01 4.728971e-01 4.470361e-01 4.180824e-01 3.890189e-01 3.592779e-01 3.273256e-01 2.972010e-01 2.627276e-01 2.326138e-01 1.960286e-01 1.662927e-01 1.280311e-01 9.899751e-02 5.950468e-02 3.144107e-02 -8.845726e-03 -3.573865e-02 -7.640633e-02 -1.020014e-01 -1.426756e-01 -1.669205e-01 -2.072764e-01 -2.301899e-01 -2.699573e-01 -2.916184e-01 -3.305788e-01 -3.511087e-01 -3.890840e-01 -4.086206e-01 -4.454510e-01 -4.641159e-01 -4.996308e-01 -5.174917e-01 -5.514737e-01 -5.685058e-01 -6.006567e-01 -6.167081e-01 -6.466210e-01 -6.613902e-01 -6.885372e-01 -7.015689e-01 -7.253107e-01 -7.360162e-01 -7.556376e-01 -7.633418e-01 -7.781133e-01 -7.821252e-01 -7.913818e-01 -7.910801e-01 -7.943066e-01 -7.892235e-01 -7.861274e-01 -7.760162e-01 -7.665728e-01 -7.514428e-01 -7.359031e-01 -7.160170e-01 -6.948779e-01 -6.707145e-01 -6.446584e-01 -6.168522e-01 -5.866734e-01 -5.559441e-01 -5.224733e-01 -4.895602e-01 -4.536014e-01 -4.192097e-01 -3.814938e-01 -3.462581e-01 -3.074155e-01 -2.718807e-01 -2.324311e-01 