# vtk DataFile Version 2.0
Comment goes here
ASCII

DATASET STRUCTURED_POINTS
FIELD FieldData 1
TIME 1 1 double
0.17500000
DIMENSIONS    128   128   1

ORIGIN    0.000   0.000   0.000
SPACING   0.039062 0.039062   1.000

POINT_DATA   16384
SCALARS uX double
LOOKUP_TABLE default

4.368621e-02 4.999584e-02 5.727526e-02 6.377829e-02 7.174009e-02 7.832432e-02 8.681765e-02 9.334145e-02 1.021884e-01 1.084854e-01 1.174866e-01 1.233716e-01 1.323124e-01 1.375881e-01 1.462467e-01 1.507114e-01 1.588661e-01 1.623221e-01 1.697602e-01 1.720225e-01 1.785482e-01 1.794524e-01 1.848951e-01 1.843053e-01 1.885258e-01 1.863412e-01 1.892370e-01 1.853968e-01 1.869057e-01 1.813921e-01 1.814932e-01 1.743326e-01 1.730458e-01 1.643079e-01 1.616910e-01 1.514864e-01 1.476304e-01 1.361065e-01 1.311304e-01 1.184658e-01 1.125101e-01 9.890959e-02 9.212941e-02 7.781724e-02 7.037653e-02 5.559068e-02 4.765617e-02 3.264275e-02 2.437925e-02 9.387424e-03 9.540959e-04 -1.376847e-02 -2.222085e-02 -3.643199e-02 -4.476276e-02 -5.822945e-02 -6.630908e-02 -7.881079e-02 -8.652140e-02 -9.785352e-02 -1.050892e-01 -1.150664e-01 -1.217334e-01 -1.301934e-01 -1.362110e-01 -1.430184e-01 -1.483199e-01 -1.533702e-01 -1.579041e-01 -1.611279e-01 -1.648603e-01 -1.662268e-01 -1.691434e-01 -1.686637e-01 -1.707718e-01 -1.685010e-01 -1.698315e-01 -1.658695e-01 -1.664775e-01 -1.609674e-01 -1.609325e-01 -1.540574e-01 -1.534811e-01 -1.454587e-01 -1.444611e-01 -1.355354e-01 -1.342499e-01 -1.246813e-01 -1.232469e-01 -1.133006e-01 -1.118538e-01 -1.017877e-01 -1.004531e-01 -9.050533e-02 -8.938690e-02 -7.976459e-02 -7.893751e-02 -6.980736e-02 -6.931180e-02 -6.079341e-02 -6.063075e-02 -5.279315e-02 -5.292507e-02 -4.578661e-02 -4.613712e-02 -3.966876e-02 -4.012912e-02 -3.426063e-02 -3.469648e-02 -2.932496e-02 -2.958522e-02 -2.458507e-02 -2.451163e-02 -1.974530e-02 -1.918288e-02 -1.451137e-02 -1.331679e-02 -8.609543e-03 -6.659892e-03 -1.803347e-03 9.972757e-04 6.092597e-03 9.807947e-03 1.520205e-02 1.986026e-02 2.557997e-02 3.117163e-02 3.720847e-02 
4.334162e-02 4.967614e-02 5.697121e-02 6.350662e-02 7.148696e-02 7.811029e-02 8.662454e-02 9.319327e-02 1.020628e-01 1.084096e-01 1.174342e-01 1.233727e-01 1.323369e-01 1.376686e-01 1.463494e-01 1.508713e-01 1.590460e-01 1.625592e-01 1.700139e-01 1.723320e-01 1.788701e-01 1.798276e-01 1.852773e-01 1.847373e-01 1.889588e-01 1.868196e-01 1.897101e-01 1.859102e-01 1.874071e-01 1.819283e-01 1.820109e-01 1.748794e-01 1.735678e-01 1.648536e-01 1.622060e-01 1.520198e-01 1.481280e-01 1.366176e-01 1.316012e-01 1.189460e-01 1.129463e-01 9.935135e-02 9.252457e-02 7.821473e-02 7.072548e-02 5.593933e-02 4.795510e-02 3.293928e-02 2.462558e-02 9.629717e-03 1.146308e-03 -1.358152e-02 -2.208327e-02 -3.630055e-02 -4.467942e-02 -5.815283e-02 -6.627874e-02 -7.878749e-02 -8.654198e-02 -9.788122e-02 -1.051577e-01 -1.151419e-01 -1.218461e-01 -1.303128e-01 -1.363631e-01 -1.431769e-01 -1.485056e-01 -1.535618e-01 -1.581169e-01 -1.613460e-01 -1.650927e-01 -1.664640e-01 -1.693871e-01 -1.689120e-01 -1.710182e-01 -1.687522e-01 -1.700719e-01 -1.661151e-01 -1.667034e-01 -1.611996e-01 -1.611362e-01 -1.542692e-01 -1.536563e-01 -1.456445e-01 -1.446035e-01 -1.356917e-01 -1.343572e-01 -1.248066e-01 -1.233195e-01 -1.133961e-01 -1.118949e-01 -1.018572e-01 -1.004686e-01 -9.055500e-02 -8.938510e-02 -7.980267e-02 -7.892847e-02 -6.984356e-02 -6.930672e-02 -6.083820e-02 -6.064111e-02 -5.285693e-02 -5.296173e-02 -4.587885e-02 -4.620952e-02 -3.979732e-02 -4.024453e-02 -3.443109e-02 -3.485956e-02 -2.954026e-02 -2.979767e-02 -2.484535e-02 -2.477221e-02 -2.004786e-02 -1.948748e-02 -1.485094e-02 -1.365880e-02 -8.978613e-03 -7.030605e-03 -2.192588e-03 6.081647e-04 5.693846e-03 9.411852e-03 1.480531e-02 1.946921e-02 2.519715e-02 3.079783e-02 3.685147e-02 
4.314831e-02 4.949761e-02 5.683673e-02 6.339586e-02 7.143312e-02 7.808814e-02 8.667047e-02 9.327743e-02 1.022241e-01 1.086138e-01 1.177222e-01 1.237058e-01 1.327577e-01 1.381342e-01 1.469036e-01 1.514671e-01 1.597282e-01 1.632769e-01 1.708127e-01 1.731572e-01 1.797683e-01 1.807405e-01 1.862527e-01 1.857135e-01 1.899851e-01 1.878310e-01 1.907579e-01 1.869267e-01 1.884459e-01 1.829191e-01 1.830103e-01 1.758148e-01 1.744992e-01 1.657060e-01 1.630435e-01 1.527653e-01 1.488497e-01 1.372363e-01 1.321900e-01 1.194231e-01 1.133896e-01 9.967694e-02 9.281474e-02 7.838350e-02 7.085932e-02 5.595030e-02 4.793327e-02 3.279516e-02 2.445197e-02 9.336193e-03 8.273482e-04 -1.401640e-02 -2.253924e-02 -3.686699e-02 -4.526264e-02 -5.883964e-02 -6.697833e-02 -7.958239e-02 -8.734609e-02 -9.877084e-02 -1.060534e-01 -1.161118e-01 -1.228193e-01 -1.313469e-01 -1.373981e-01 -1.442576e-01 -1.495849e-01 -1.546698e-01 -1.592209e-01 -1.624599e-01 -1.661997e-01 -1.675604e-01 -1.704735e-01 -1.699661e-01 -1.720590e-01 -1.697383e-01 -1.710413e-01 -1.670076e-01 -1.675761e-01 -1.619743e-01 -1.618887e-01 -1.549048e-01 -1.542685e-01 -1.461241e-01 -1.450600e-01 -1.360040e-01 -1.346490e-01 -1.249477e-01 -1.234451e-01 -1.133698e-01 -1.118606e-01 -1.016754e-01 -1.002888e-01 -9.023746e-02 -8.908141e-02 -7.937565e-02 -7.852843e-02 -6.933837e-02 -6.884206e-02 -6.028906e-02 -6.014550e-02 -5.229862e-02 -5.246844e-02 -4.534441e-02 -4.574922e-02 -3.931589e-02 -3.984333e-02 -3.402622e-02 -3.453753e-02 -2.922872e-02 -2.956795e-02 -2.463653e-02 -2.464064e-02 -1.994375e-02 -1.945283e-02 -1.484657e-02 -1.371336e-02 -9.062860e-03 -7.161067e-03 -2.349249e-03 4.195827e-04 5.484906e-03 9.186271e-03 1.456697e-02 1.922995e-02 2.495389e-02 3.056930e-02 3.662830e-02 
4.225446e-02 4.866895e-02 5.608375e-02 6.273212e-02 7.086389e-02 7.762971e-02 8.632261e-02 9.305869e-02 1.021286e-01 1.086617e-01 1.179018e-01 1.240388e-01 1.332261e-01 1.387607e-01 1.476642e-01 1.523851e-01 1.607736e-01 1.644733e-01 1.721247e-01 1.746084e-01 1.813181e-01 1.824125e-01 1.880021e-01 1.875639e-01 1.918883e-01 1.898107e-01 1.927636e-01 1.889819e-01 1.904996e-01 1.849946e-01 1.850570e-01 1.778558e-01 1.764859e-01 1.676609e-01 1.649214e-01 1.545876e-01 1.505759e-01 1.388861e-01 1.337284e-01 1.208679e-01 1.147119e-01 1.008920e-01 9.390037e-02 7.935180e-02 7.169486e-02 5.666187e-02 4.851190e-02 3.324623e-02 2.477250e-02 9.528340e-03 8.933148e-04 -1.407724e-02 -2.272045e-02 -3.717125e-02 -4.568045e-02 -5.937475e-02 -6.761936e-02 -8.033303e-02 -8.819433e-02 -9.971905e-02 -1.070901e-01 -1.172367e-01 -1.240227e-01 -1.326248e-01 -1.387430e-01 -1.456611e-01 -1.510423e-01 -1.561678e-01 -1.607580e-01 -1.640175e-01 -1.677796e-01 -1.691394e-01 -1.720560e-01 -1.715254e-01 -1.736014e-01 -1.712351e-01 -1.724999e-01 -1.683993e-01 -1.689083e-01 -1.632204e-01 -1.630550e-01 -1.559696e-01 -1.552357e-01 -1.469790e-01 -1.458033e-01 -1.366303e-01 -1.351549e-01 -1.253383e-01 -1.237127e-01 -1.135309e-01 -1.119028e-01 -1.016265e-01 -1.001319e-01 -9.001105e-02 -8.876404e-02 -7.901509e-02 -7.809914e-02 -6.889515e-02 -6.835580e-02 -5.981914e-02 -5.965978e-02 -5.185841e-02 -5.203911e-02 -4.498665e-02 -4.542647e-02 -3.908600e-02 -3.966835e-02 -3.395934e-02 -3.453996e-02 -2.934770e-02 -2.976442e-02 -2.495096e-02 -2.503433e-02 -2.045004e-02 -2.003400e-02 -1.552886e-02 -1.446063e-02 -9.894575e-03 -8.043264e-03 -3.295053e-03 -5.586360e-04 4.466944e-03 8.156466e-03 1.352322e-02 1.819639e-02 2.393309e-02 2.958120e-02 3.567964e-02 
4.149965e-02 4.796907e-02 5.548895e-02 6.221812e-02 7.048398e-02 7.735375e-02 8.620581e-02 9.306518e-02 1.023144e-01 1.089853e-01 1.184191e-01 1.247026e-01 1.340916e-01 1.397747e-01 1.488807e-01 1.537451e-01 1.623294e-01 1.661601e-01 1.739933e-01 1.765882e-01 1.834588e-01 1.846380e-01 1.903616e-01 1.899762e-01 1.944030e-01 1.923420e-01 1.953628e-01 1.915590e-01 1.931090e-01 1.875423e-01 1.876023e-01 1.803009e-01 1.788964e-01 1.699354e-01 1.671332e-01 1.566315e-01 1.525342e-01 1.406496e-01 1.353891e-01 1.223123e-01 1.160424e-01 1.019902e-01 9.487908e-02 8.008779e-02 7.231079e-02 5.702973e-02 4.876325e-02 3.324879e-02 2.466515e-02 9.175505e-03 4.392234e-04 -1.476992e-02 -2.350463e-02 -3.818391e-02 -4.677449e-02 -6.068411e-02 -6.900015e-02 -8.191297e-02 -8.983612e-02 -1.015406e-01 -1.089644e-01 -1.192680e-01 -1.260975e-01 -1.348301e-01 -1.409826e-01 -1.480006e-01 -1.534062e-01 -1.585969e-01 -1.632005e-01 -1.664868e-01 -1.702497e-01 -1.715944e-01 -1.744979e-01 -1.739078e-01 -1.759554e-01 -1.734842e-01 -1.747047e-01 -1.704543e-01 -1.709033e-01 -1.650237e-01 -1.647842e-01 -1.574698e-01 -1.566507e-01 -1.481352e-01 -1.468679e-01 -1.374155e-01 -1.358477e-01 -1.257422e-01 -1.240304e-01 -1.135621e-01 -1.118613e-01 -1.013131e-01 -9.976647e-02 -8.939950e-02 -8.812744e-02 -7.816798e-02 -7.725845e-02 -6.788690e-02 -6.738787e-02 -5.873098e-02 -5.864574e-02 -5.077265e-02 -5.105865e-02 -4.398097e-02 -4.455228e-02 -3.822824e-02 -3.896139e-02 -3.330338e-02 -3.404594e-02 -2.893063e-02 -2.951165e-02 -2.479170e-02 -2.503308e-02 -2.054943e-02 -2.027709e-02 -1.587087e-02 -1.492510e-02 -1.044840e-02 -8.692731e-03 -4.017792e-03 -1.346065e-03 3.627406e-03 7.285877e-03 1.262530e-02 1.730239e-02 2.303873e-02 2.872585e-02 3.485176e-02 
4.000992e-02 4.658654e-02 5.424416e-02 6.112190e-02 6.956104e-02 7.661650e-02 8.567229e-02 9.274888e-02 1.022260e-01 1.091388e-01 1.188171e-01 1.253589e-01 1.350005e-01 1.409493e-01 1.503066e-01 1.554341e-01 1.642587e-01 1.683397e-01 1.763922e-01 1.792147e-01 1.862745e-01 1.876494e-01 1.935240e-01 1.932944e-01 1.978278e-01 1.958765e-01 1.989556e-01 1.952117e-01 1.967699e-01 1.912118e-01 1.912311e-01 1.838876e-01 1.823967e-01 1.733461e-01 1.704171e-01 1.597827e-01 1.555249e-01 1.434706e-01 1.380234e-01 1.247464e-01 1.182715e-01 1.039956e-01 9.666855e-02 8.163691e-02 7.363974e-02 5.810794e-02 4.962273e-02 3.385281e-02 2.505631e-02 9.311500e-03 3.714842e-04 -1.508818e-02 -2.401533e-02 -3.893657e-02 -4.770694e-02 -6.184639e-02 -7.032871e-02 -8.345568e-02 -9.153095e-02 -1.034303e-01 -1.109912e-01 -1.214665e-01 -1.284170e-01 -1.372939e-01 -1.435495e-01 -1.506803e-01 -1.561685e-01 -1.614363e-01 -1.660989e-01 -1.694224e-01 -1.732177e-01 -1.745565e-01 -1.774622e-01 -1.768209e-01 -1.788378e-01 -1.762695e-01 -1.774246e-01 -1.730328e-01 -1.733814e-01 -1.673197e-01 -1.669467e-01 -1.594163e-01 -1.584347e-01 -1.496781e-01 -1.482262e-01 -1.385189e-01 -1.367534e-01 -1.263921e-01 -1.244804e-01 -1.137692e-01 -1.118783e-01 -1.011136e-01 -9.939863e-02 -8.885384e-02 -8.744626e-02 -7.735751e-02 -7.635415e-02 -6.690850e-02 -6.636315e-02 -5.769017e-02 -5.760831e-02 -4.977589e-02 -5.011329e-02 -4.312797e-02 -4.379337e-02 -3.760496e-02 -3.846653e-02 -3.297649e-02 -3.387125e-02 -2.894381e-02 -2.968908e-02 -2.516399e-02 -2.556972e-02 -2.127541e-02 -2.115627e-02 -1.692254e-02 -1.610888e-02 -1.177815e-02 -1.012536e-02 -5.562138e-03 -2.957858e-03 1.943828e-03 5.574506e-03 1.088577e-02 1.557707e-02 2.133074e-02 2.707468e-02 3.326355e-02 
3.863417e-02 4.530744e-02 5.313421e-02 6.015254e-02 6.880691e-02 7.604239e-02 8.535329e-02 9.264310e-02 1.024075e-01 1.095588e-01 1.195474e-01 1.263435e-01 1.363080e-01 1.425162e-01 1.521973e-01 1.575774e-01 1.667147e-01 1.710294e-01 1.793713e-01 1.823966e-01 1.897110e-01 1.912466e-01 1.973313e-01 1.972107e-01 2.019019e-01 2.000012e-01 2.031807e-01 1.994245e-01 2.010242e-01 1.953897e-01 1.953928e-01 1.879105e-01 1.863503e-01 1.771027e-01 1.740580e-01 1.631752e-01 1.587640e-01 1.464176e-01 1.407890e-01 1.271852e-01 1.205107e-01 1.058824e-01 9.834679e-02 8.294598e-02 7.473954e-02 5.882987e-02 5.014134e-02 3.399205e-02 2.500317e-02 8.883721e-03 -2.344965e-04 -1.605864e-02 -2.514808e-02 -4.041887e-02 -4.933508e-02 -6.380464e-02 -7.241663e-02 -8.584979e-02 -9.403918e-02 -1.062160e-01 -1.138760e-01 -1.245949e-01 -1.316296e-01 -1.407104e-01 -1.470345e-01 -1.543234e-01 -1.598631e-01 -1.652365e-01 -1.699313e-01 -1.733018e-01 -1.771071e-01 -1.784288e-01 -1.813194e-01 -1.805927e-01 -1.825667e-01 -1.798428e-01 -1.809255e-01 -1.763085e-01 -1.765553e-01 -1.702031e-01 -1.697011e-01 -1.618225e-01 -1.606895e-01 -1.515386e-01 -1.499204e-01 -1.397876e-01 -1.378509e-01 -1.270506e-01 -1.249746e-01 -1.138302e-01 -1.117948e-01 -1.006223e-01 -9.879518e-02 -8.788618e-02 -8.641004e-02 -7.601624e-02 -7.499632e-02 -6.531629e-02 -6.481112e-02 -5.598098e-02 -5.599648e-02 -4.808529e-02 -4.857325e-02 -4.158345e-02 -4.244457e-02 -3.631724e-02 -3.740834e-02 -3.203258e-02 -3.317712e-02 -2.840246e-02 -2.940321e-02 -2.505363e-02 -2.570615e-02 -2.159450e-02 -2.170022e-02 -1.764186e-02 -1.701977e-02 -1.284457e-02 -1.134096e-02 -6.903159e-03 -4.399001e-03 4.152108e-04 3.999118e-03 9.266286e-03 1.396627e-02 1.972237e-02 2.553061e-02 3.176948e-02 
3.646505e-02 4.329038e-02 5.132072e-02 5.855121e-02 6.746267e-02 7.496435e-02 8.457847e-02 9.218049e-02 1.022850e-01 1.097845e-01 1.201391e-01 1.273077e-01 1.376513e-01 1.442426e-01 1.543021e-01 1.600614e-01 1.695614e-01 1.742360e-01 1.829101e-01 1.862608e-01 1.938629e-01 1.956754e-01 2.019910e-01 2.020870e-01 2.069427e-01 2.051890e-01 2.084605e-01 2.047760e-01 2.063929e-01 2.007527e-01 2.007000e-01 1.931363e-01 1.914524e-01 1.820526e-01 1.788246e-01 1.677260e-01 1.630825e-01 1.504663e-01 1.445680e-01 1.306506e-01 1.236809e-01 1.087059e-01 1.008610e-01 8.509053e-02 7.657084e-02 6.027797e-02 5.128045e-02 3.474278e-02 2.545547e-02 8.949681e-03 -4.520267e-04 -1.665432e-02 -2.600963e-02 -4.164494e-02 -5.080805e-02 -6.562350e-02 -7.446284e-02 -8.821832e-02 -9.661520e-02 -1.090856e-01 -1.169327e-01 -1.279107e-01 -1.351107e-01 -1.444103e-01 -1.508758e-01 -1.583360e-01 -1.639899e-01 -1.694809e-01 -1.742582e-01 -1.776859e-01 -1.815369e-01 -1.828499e-01 -1.857443e-01 -1.849390e-01 -1.868703e-01 -1.839963e-01 -1.849866e-01 -1.801497e-01 -1.802534e-01 -1.736168e-01 -1.729232e-01 -1.647051e-01 -1.633381e-01 -1.538061e-01 -1.519210e-01 -1.413828e-01 -1.391599e-01 -1.279498e-01 -1.255849e-01 -1.140478e-01 -1.117388e-01 -1.002122e-01 -9.814543e-02 -8.694035e-02 -8.527525e-02 -7.465941e-02 -7.351475e-02 -6.369759e-02 -6.314067e-02 -5.426318e-02 -5.430294e-02 -4.643266e-02 -4.701787e-02 -4.014959e-02 -4.117226e-02 -3.523419e-02 -3.653779e-02 -3.140225e-02 -3.279363e-02 -2.829108e-02 -2.955474e-02 -2.548941e-02 -2.640260e-02 -2.256837e-02 -2.291549e-02 -1.911065e-02 -1.869594e-02 -1.473595e-02 -1.339379e-02 -9.121501e-03 -6.724019e-03 -2.017337e-03 1.520510e-03 6.743464e-03 1.146107e-02 1.723891e-02 2.312904e-02 2.945581e-02 
3.437091e-02 4.133736e-02 4.960566e-02 5.704102e-02 6.625510e-02 7.401910e-02 8.399202e-02 9.190509e-02 1.024140e-01 1.102622e-01 1.210541e-01 1.285957e-01 1.393948e-01 1.463682e-01 1.568849e-01 1.630183e-01 1.729600e-01 1.779830e-01 1.870656e-01 1.907215e-01 1.986822e-01 2.007404e-01 2.073500e-01 2.076184e-01 2.126921e-01 2.110272e-01 2.144335e-01 2.107479e-01 2.124139e-01 2.066810e-01 2.065939e-01 1.988485e-01 1.970535e-01 1.873894e-01 1.839840e-01 1.725483e-01 1.676740e-01 1.546596e-01 1.484913e-01 1.341276e-01 1.268633e-01 1.114070e-01 1.032563e-01 8.698208e-02 7.815721e-02 6.134945e-02 5.205683e-02 3.500295e-02 2.543749e-02 8.422478e-03 -1.236133e-03 -1.793363e-02 -2.752257e-02 -4.363299e-02 -5.300616e-02 -6.827100e-02 -7.729768e-02 -9.147118e-02 -1.000339e-01 -1.128848e-01 -1.208774e-01 -1.321914e-01 -1.395168e-01 -1.491000e-01 -1.556697e-01 -1.633526e-01 -1.690874e-01 -1.747306e-01 -1.795618e-01 -1.830623e-01 -1.869356e-01 -1.882335e-01 -1.911135e-01 -1.901989e-01 -1.920745e-01 -1.889933e-01 -1.898833e-01 -1.847416e-01 -1.846997e-01 -1.776659e-01 -1.767837e-01 -1.680865e-01 -1.664945e-01 -1.564177e-01 -1.542817e-01 -1.431542e-01 -1.406695e-01 -1.288510e-01 -1.262308e-01 -1.140943e-01 -1.115563e-01 -9.946758e-02 -9.721743e-02 -8.551447e-02 -8.372886e-02 -7.270191e-02 -7.151294e-02 -6.138802e-02 -6.087068e-02 -5.179790e-02 -5.196223e-02 -4.401019e-02 -4.479929e-02 -3.795596e-02 -3.924993e-02 -3.342990e-02 -3.505531e-02 -3.011203e-02 -3.185558e-02 -2.759738e-02 -2.922205e-02 -2.542981e-02 -2.669177e-02 -2.313663e-02 -2.380111e-02 -2.026066e-02 -2.011567e-02 -1.638766e-02 -1.525484e-02 -1.116795e-02 -8.910282e-03 -4.331857e-03 -8.585773e-04 4.300364e-03 9.031314e-03 1.481331e-02 2.079469e-02 2.719485e-02 
3.139922e-02 3.856664e-02 4.710989e-02 5.482705e-02 6.438943e-02 7.250816e-02 8.289302e-02 9.122329e-02 1.021956e-01 1.105103e-01 1.218023e-01 1.298440e-01 1.411629e-01 1.486515e-01 1.596885e-01 1.663323e-01 1.767742e-01 1.822816e-01 1.918235e-01 1.959165e-01 2.042756e-01 2.067041e-01 2.136340e-01 2.141889e-01 2.194911e-01 2.180161e-01 2.215505e-01 2.179504e-01 2.196409e-01 2.138866e-01 2.137232e-01 2.058523e-01 2.038879e-01 1.940015e-01 1.903459e-01 1.786022e-01 1.734119e-01 1.600173e-01 1.534843e-01 1.386829e-01 1.310220e-01 1.150855e-01 1.065224e-01 8.973961e-02 8.050011e-02 6.316832e-02 5.347010e-02 3.588771e-02 2.593384e-02 8.395101e-03 -1.629466e-03 -1.883819e-02 -2.876785e-02 -4.537038e-02 -5.505816e-02 -7.078994e-02 -8.010537e-02 -9.471458e-02 -1.035408e-01 -1.167897e-01 -1.250205e-01 -1.366874e-01 -1.442248e-01 -1.541074e-01 -1.608604e-01 -1.687801e-01 -1.746650e-01 -1.804727e-01 -1.854149e-01 -1.889980e-01 -1.929358e-01 -1.942260e-01 -1.971162e-01 -1.960970e-01 -1.979212e-01 -1.946353e-01 -1.954068e-01 -1.899615e-01 -1.897316e-01 -1.823016e-01 -1.811640e-01 -1.719903e-01 -1.700827e-01 -1.594676e-01 -1.569691e-01 -1.452655e-01 -1.423898e-01 -1.299858e-01 -1.269695e-01 -1.142690e-01 -1.113558e-01 -9.875565e-02 -9.617770e-02 -8.404446e-02 -8.200293e-02 -7.065025e-02 -6.929689e-02 -5.896691e-02 -5.838936e-02 -4.923948e-02 -4.945196e-02 -4.154867e-02 -4.248954e-02 -3.580975e-02 -3.734609e-02 -3.178568e-02 -3.372428e-02 -2.911251e-02 -3.121576e-02 -2.733361e-02 -2.933815e-02 -2.593848e-02 -2.757444e-02 -2.440183e-02 -2.541065e-02 -2.221914e-02 -2.236867e-02 -1.893648e-02 -1.803248e-02 -1.417319e-02 -1.206722e-02 -7.637409e-03 -4.231485e-03 8.645366e-04 5.615979e-03 1.142390e-02 1.751391e-02 2.402889e-02 
2.844791e-02 3.580486e-02 4.466138e-02 5.265402e-02 6.261495e-02 7.108698e-02 8.194495e-02 9.069515e-02 1.022016e-01 1.109887e-01 1.228597e-01 1.314084e-01 1.433318e-01 1.513420e-01 1.629872e-01 1.701443e-01 1.811745e-01 1.871626e-01 1.972487e-01 2.017658e-01 2.106018e-01 2.133751e-01 2.206940e-01 2.214952e-01 2.270828e-01 2.257411e-01 2.294471e-01 2.258589e-01 2.276039e-01 2.217378e-01 2.215152e-01 2.134129e-01 2.112856e-01 2.010578e-01 1.971502e-01 1.849689e-01 1.794561e-01 1.655442e-01 1.586382e-01 1.432580e-01 1.351937e-01 1.186346e-01 1.096565e-01 9.222417e-02 8.257408e-02 6.458052e-02 5.448853e-02 3.624472e-02 2.592262e-02 7.733016e-03 -2.629233e-03 -2.047000e-02 -3.070495e-02 -4.791382e-02 -5.787509e-02 -7.418124e-02 -8.374045e-02 -9.888567e-02 -1.079285e-01 -1.216678e-01 -1.300903e-01 -1.421935e-01 -1.498984e-01 -1.601531e-01 -1.670485e-01 -1.752646e-01 -1.812635e-01 -1.872792e-01 -1.923017e-01 -1.959917e-01 -1.999691e-01 -2.012528e-01 -2.041340e-01 -2.029852e-01 -2.047441e-01 -2.011992e-01 -2.018434e-01 -1.960085e-01 -1.955867e-01 -1.876422e-01 -1.862500e-01 -1.764503e-01 -1.742333e-01 -1.629016e-01 -1.600531e-01 -1.475709e-01 -1.443249e-01 -1.311151e-01 -1.277331e-01 -1.142384e-01 -1.109922e-01 -9.764912e-02 -9.479910e-02 -8.201164e-02 -7.978435e-02 -6.789787e-02 -6.646477e-02 -5.574445e-02 -5.520478e-02 -4.582036e-02 -4.619032e-02 -3.820901e-02 -3.941901e-02 -3.280721e-02 -3.470731e-02 -2.934072e-02 -3.171356e-02 -2.739410e-02 -2.997341e-02 -2.645050e-02 -2.894264e-02 -2.593638e-02 -2.804220e-02 -2.526580e-02 -2.670065e-02 -2.388021e-02 -2.439030e-02 -2.128072e-02 -2.065530e-02 -1.705194e-02 -1.513114e-02 -1.087746e-02 -7.556512e-03 -2.548338e-03 2.221147e-03 8.033891e-03 1.424446e-02 2.085777e-02 
2.450685e-02 3.211899e-02 4.132921e-02 4.968115e-02 6.009135e-02 6.901712e-02 8.040796e-02 8.969350e-02 1.018014e-01 1.111890e-01 1.237114e-01 1.329060e-01 1.455089e-01 1.541867e-01 1.665146e-01 1.743346e-01 1.860233e-01 1.926414e-01 2.033337e-01 2.084193e-01 2.177822e-01 2.210358e-01 2.287781e-01 2.299486e-01 2.358372e-01 2.347363e-01 2.386094e-01 2.351231e-01 2.368972e-01 2.309914e-01 2.306639e-01 2.223848e-01 2.200301e-01 2.094991e-01 2.052590e-01 1.926639e-01 1.867348e-01 1.723175e-01 1.649347e-01 1.489777e-01 1.403995e-01 1.232126e-01 1.137048e-01 9.561236e-02 8.543507e-02 6.676561e-02 5.616320e-02 3.724145e-02 2.643561e-02 7.577130e-03 -3.236364e-03 -2.172810e-02 -3.237956e-02 -5.021423e-02 -6.055764e-02 -7.745787e-02 -8.736672e-02 -1.030676e-01 -1.124298e-01 -1.266789e-01 -1.353919e-01 -1.479499e-01 -1.559163e-01 -1.665604e-01 -1.736854e-01 -1.822132e-01 -1.884044e-01 -1.946411e-01 -1.998105e-01 -2.036171e-01 -2.076856e-01 -2.089691e-01 -2.118741e-01 -2.105980e-01 -2.123024e-01 -2.084970e-01 -2.089991e-01 -2.027704e-01 -2.021138e-01 -1.936487e-01 -1.919301e-01 -1.814983e-01 -1.788713e-01 -1.668200e-01 -1.634947e-01 -1.502373e-01 -1.464723e-01 -1.324704e-01 -1.285591e-01 -1.142979e-01 -1.105482e-01 -9.650788e-02 -9.321748e-02 -7.984203e-02 -7.727223e-02 -6.494016e-02 -6.329040e-02 -5.228974e-02 -5.167724e-02 -4.218802e-02 -4.263478e-02 -3.472107e-02 -3.615042e-02 -2.976276e-02 -3.200582e-02 -2.699339e-02 -2.980440e-02 -2.593500e-02 -2.901321e-02 -2.599825e-02 -2.901320e-02 -2.653437e-02 -2.915123e-02 -2.688598e-02 -2.878823e-02 -2.643166e-02 -2.733922e-02 -2.462117e-02 -2.430331e-02 -2.100036e-02 -1.928347e-02 -1.522620e-02 -1.199735e-02 -7.073958e-03 -2.281350e-03 3.561468e-03 9.909925e-03 1.666770e-02 
2.051378e-02 2.836911e-02 3.797615e-02 4.668234e-02 5.759777e-02 6.697898e-02 7.897073e-02 8.879939e-02 1.015877e-01 1.115886e-01 1.248510e-01 1.347072e-01 1.480854e-01 1.574472e-01 1.705578e-01 1.790544e-01 1.915022e-01 1.987576e-01 2.101530e-01 2.158041e-01 2.257826e-01 2.294994e-01 2.377419e-01 2.392468e-01 2.454984e-01 2.445838e-01 2.486686e-01 2.452092e-01 2.470397e-01 2.409990e-01 2.405778e-01 2.320082e-01 2.294237e-01 2.184604e-01 2.138753e-01 2.007255e-01 1.943619e-01 1.792903e-01 1.714113e-01 1.547249e-01 1.456161e-01 1.276484e-01 1.176006e-01 9.869779e-02 8.799198e-02 6.850131e-02 5.739771e-02 3.765907e-02 2.638982e-02 6.730538e-03 -4.503317e-03 -2.377088e-02 -3.479877e-02 -5.337732e-02 -6.405563e-02 -8.166166e-02 -9.186821e-02 -1.082304e-01 -1.178579e-01 -1.327159e-01 -1.416659e-01 -1.547707e-01 -1.629478e-01 -1.740640e-01 -1.813727e-01 -1.902833e-01 -1.966271e-01 -2.031404e-01 -2.084237e-01 -2.123832e-01 -2.165167e-01 -2.178121e-01 -2.207213e-01 -2.193014e-01 -2.209371e-01 -2.168217e-01 -2.171722e-01 -2.104635e-01 -2.095666e-01 -2.004568e-01 -1.984097e-01 -1.871837e-01 -1.841490e-01 -1.711805e-01 -1.673859e-01 -1.531258e-01 -1.488570e-01 -1.338131e-01 -1.293977e-01 -1.141077e-01 -1.098929e-01 -9.489126e-02 -9.121470e-02 -7.699694e-02 -7.415638e-02 -6.114471e-02 -5.936817e-02 -4.788218e-02 -4.730388e-02 -3.754005e-02 -3.818518e-02 -3.020761e-02 -3.198838e-02 -2.573182e-02 -2.845527e-02 -2.373972e-02 -2.712604e-02 -2.368051e-02 -2.738894e-02 -2.488082e-02 -2.853917e-02 -2.660535e-02 -2.983925e-02 -2.811525e-02 -3.057373e-02 -2.871822e-02 -3.009361e-02 -2.780697e-02 -2.784827e-02 -2.488490e-02 -2.340525e-02 -1.958046e-02 -1.645973e-02 -1.165240e-02 -6.836485e-03 -9.890124e-04 5.512674e-03 1.239603e-02 
1.538796e-02 2.355935e-02 3.360801e-02 4.276063e-02 5.423830e-02 6.418512e-02 7.684581e-02 8.734428e-02 1.008905e-01 1.116460e-01 1.257330e-01 1.364043e-01 1.506470e-01 1.608550e-01 1.748380e-01 1.841783e-01 1.974711e-01 2.055306e-01 2.177063e-01 2.240843e-01 2.347418e-01 2.390721e-01 2.478597e-01 2.498340e-01 2.564711e-01 2.558586e-01 2.601534e-01 2.568152e-01 2.586752e-01 2.525720e-01 2.520060e-01 2.431973e-01 2.403101e-01 2.289470e-01 2.239257e-01 2.102374e-01 2.033337e-01 1.876111e-01 1.791200e-01 1.616976e-01 1.519360e-01 1.331741e-01 1.224611e-01 1.027301e-01 9.137017e-02 7.103790e-02 5.930905e-02 3.873188e-02 2.687772e-02 6.395501e-03 -5.377217e-03 -2.544285e-02 -3.696275e-02 -5.630740e-02 -6.743359e-02 -8.576756e-02 -9.638252e-02 -1.134279e-01 -1.234294e-01 -1.389179e-01 -1.482111e-01 -1.618834e-01 -1.703740e-01 -1.819818e-01 -1.895719e-01 -1.988826e-01 -2.054690e-01 -2.122733e-01 -2.177497e-01 -2.218723e-01 -2.261352e-01 -2.274480e-01 -2.304061e-01 -2.288421e-01 -2.304294e-01 -2.259981e-01 -2.261881e-01 -2.189883e-01 -2.178091e-01 -2.080392e-01 -2.055862e-01 -1.935488e-01 -1.899930e-01 -1.760916e-01 -1.716810e-01 -1.564080e-01 -1.514604e-01 -1.353751e-01 -1.302609e-01 -1.139589e-01 -1.090747e-01 -9.314977e-02 -8.888560e-02 -7.388895e-02 -7.059131e-02 -5.699128e-02 -5.492786e-02 -4.307587e-02 -4.240639e-02 -3.251306e-02 -3.327076e-02 -2.539540e-02 -2.748208e-02 -2.153672e-02 -2.473213e-02 -2.049926e-02 -2.448318e-02 -2.164421e-02 -2.602749e-02 -2.419755e-02 -2.855728e-02 -2.732146e-02 -3.123521e-02 -3.018193e-02 -3.325705e-02 -3.200537e-02 -3.390105e-02 -3.212045e-02 -3.256170e-02 -2.998443e-02 -2.876894e-02 -2.519602e-02 -2.219545e-02 -1.749801e-02 -1.265582e-02 -6.773668e-03 -1.011355e-04 6.959987e-03 
1.011743e-02 1.859223e-02 2.913110e-02 3.872662e-02 5.082897e-02 6.134690e-02 7.475248e-02 8.593478e-02 1.003278e-01 1.118593e-01 1.268715e-01 1.383849e-01 1.536018e-01 1.646857e-01 1.796569e-01 1.898692e-01 2.041243e-01 2.130102e-01 2.260794e-01 2.331949e-01 2.446349e-01 2.495728e-01 2.589937e-01 2.614102e-01 2.685015e-01 2.681396e-01 2.726906e-01 2.693968e-01 2.713096e-01 2.650421e-01 2.643338e-01 2.551619e-01 2.519569e-01 2.400513e-01 2.345663e-01 2.201833e-01 2.127054e-01 1.961672e-01 1.870291e-01 1.687030e-01 1.582584e-01 1.385358e-01 1.271367e-01 1.064159e-01 9.439359e-02 7.306544e-02 6.071746e-02 3.915612e-02 2.673801e-02 5.296062e-03 -6.980662e-03 -2.797296e-02 -3.993811e-02 -6.017043e-02 -7.168866e-02 -9.086642e-02 -1.018282e-01 -1.196680e-01 -1.299796e-01 -1.462054e-01 -1.557791e-01 -1.701208e-01 -1.788664e-01 -1.910611e-01 -1.988806e-01 -2.086771e-01 -2.154622e-01 -2.226294e-01 -2.282637e-01 -2.326025e-01 -2.369678e-01 -2.383258e-01 -2.413133e-01 -2.396017e-01 -2.411270e-01 -2.363384e-01 -2.363584e-01 -2.285832e-01 -2.271149e-01 -2.165544e-01 -2.136905e-01 -2.006642e-01 -1.965844e-01 -1.815281e-01 -1.765021e-01 -1.599558e-01 -1.543366e-01 -1.369205e-01 -1.311248e-01 -1.135048e-01 -1.079834e-01 -9.082720e-02 -8.602627e-02 -6.995545e-02 -6.627350e-02 -5.181635e-02 -4.956211e-02 -3.711320e-02 -3.647109e-02 -2.626294e-02 -2.727106e-02 -1.936166e-02 -2.190615e-02 -1.618405e-02 -2.001055e-02 -1.621633e-02 -2.095666e-02 -1.871703e-02 -2.392635e-02 -2.279560e-02 -2.799398e-02 -2.749666e-02 -3.220893e-02 -3.187830e-02 -3.566738e-02 -3.507618e-02 -3.756709e-02 -3.634883e-02 -3.724296e-02 -3.510420e-02 -3.418510e-02 -3.091028e-02 -2.804318e-02 -2.349432e-02 -1.862194e-02 -1.273550e-02 -5.872447e-03 1.344798e-03 
3.537265e-03 1.239687e-02 2.347610e-02 3.361638e-02 4.640795e-02 5.761832e-02 7.184671e-02 8.385268e-02 9.918230e-02 1.116468e-01 1.276839e-01 1.402111e-01 1.565089e-01 1.686517e-01 1.847205e-01 1.959941e-01 2.113180e-01 2.212201e-01 2.352803e-01 2.433167e-01 2.556206e-01 2.613362e-01 2.714496e-01 2.744588e-01 2.820361e-01 2.820509e-01 2.868599e-01 2.837095e-01 2.856460e-01 2.792861e-01 2.783766e-01 2.688877e-01 2.652803e-01 2.528559e-01 2.468014e-01 2.317291e-01 2.235554e-01 2.061931e-01 1.962762e-01 1.770281e-01 1.657634e-01 1.450560e-01 1.328325e-01 1.110948e-01 9.827374e-02 7.592174e-02 6.282210e-02 4.024900e-02 2.713902e-02 4.710682e-03 -8.193449e-03 -3.013812e-02 -4.266819e-02 -6.381320e-02 -7.584049e-02 -9.588671e-02 -1.073108e-01 -1.259695e-01 -1.367060e-01 -1.536934e-01 -1.636619e-01 -1.786968e-01 -1.878107e-01 -2.006147e-01 -2.087743e-01 -2.190767e-01 -2.261658e-01 -2.337125e-01 -2.396008e-01 -2.441672e-01 -2.487169e-01 -2.501252e-01 -2.532038e-01 -2.513420e-01 -2.528399e-01 -2.476830e-01 -2.475341e-01 -2.391641e-01 -2.373680e-01 -2.259901e-01 -2.226326e-01 -2.085855e-01 -2.038533e-01 -1.876090e-01 -1.817959e-01 -1.639475e-01 -1.574472e-01 -1.386826e-01 -1.319687e-01 -1.130314e-01 -1.066227e-01 -8.826152e-02 -8.267697e-02 -6.559011e-02 -6.129688e-02 -4.607666e-02 -4.343987e-02 -3.052502e-02 -2.976541e-02 -1.940773e-02 -2.057466e-02 -1.282467e-02 -1.578896e-02 -1.050248e-02 -1.497038e-02 -1.183481e-02 -1.738052e-02 -1.595609e-02 -2.206688e-02 -2.183621e-02 -2.796249e-02 -2.838074e-02 -3.398319e-02 -3.452244e-02 -3.911038e-02 -3.929382e-02 -4.245171e-02 -4.187611e-02 -4.327792e-02 -4.162522e-02 -4.103862e-02 -3.807886e-02 -3.536237e-02 -3.095108e-02 -2.604731e-02 -2.012013e-02 -1.304799e-02 -5.614876e-03 
-3.303406e-03 5.927610e-03 1.760164e-02 2.828476e-02 4.183480e-02 5.374740e-02 6.888311e-02 8.173410e-02 9.810030e-02 1.115299e-01 1.287066e-01 1.422887e-01 1.597947e-01 1.730431e-01 1.903457e-01 2.027285e-01 2.192606e-01 2.302212e-01 2.454077e-01 2.543950e-01 2.676863e-01 2.741894e-01 2.850991e-01 2.886847e-01 2.968259e-01 2.971705e-01 3.022855e-01 2.991993e-01 3.011771e-01 2.946140e-01 2.934934e-01 2.835488e-01 2.795063e-01 2.664021e-01 2.597298e-01 2.437914e-01 2.348658e-01 2.164941e-01 2.057426e-01 1.853851e-01 1.732522e-01 1.513762e-01 1.382937e-01 1.153635e-01 1.017267e-01 7.818625e-02 6.433752e-02 4.060015e-02 2.682077e-02 3.265038e-03 -1.022567e-02 -3.325390e-02 -4.629263e-02 -6.847411e-02 -8.094274e-02 -1.019764e-01 -1.137881e-01 -1.333820e-01 -1.444664e-01 -1.623305e-01 -1.726189e-01 -1.884608e-01 -1.978741e-01 -2.113984e-01 -2.198381e-01 -2.307514e-01 -2.380956e-01 -2.461154e-01 -2.522202e-01 -2.570902e-01 -2.617976e-01 -2.633062e-01 -2.664583e-01 -2.644617e-01 -2.659211e-01 -2.603679e-01 -2.600422e-01 -2.509982e-01 -2.488671e-01 -2.365357e-01 -2.326763e-01 -2.174132e-01 -2.120191e-01 -1.943344e-01 -1.877248e-01 -1.682716e-01 -1.608853e-01 -1.404309e-01 -1.328038e-01 -1.121857e-01 -1.049113e-01 -8.497837e-02 -7.865452e-02 -6.020150e-02 -5.536936e-02 -3.907115e-02 -3.615486e-02 -2.250943e-02 -2.176554e-02 -1.105391e-02 -1.253908e-02 -4.808148e-03 -8.370824e-03 -3.441542e-03 -8.739234e-03 -6.238601e-03 -1.277751e-02 -1.218857e-02 -1.937818e-02 -2.009950e-02 -2.731230e-02 -2.871756e-02 -3.534434e-02 -3.683387e-02 -4.232747e-02 -4.336672e-02 -4.727065e-02 -4.741399e-02 -4.937634e-02 -4.827761e-02 -4.805286e-02 -4.546591e-02 -4.290882e-02 -3.868194e-02 -3.373768e-02 -2.780553e-02 -2.049928e-02 -1.287493e-02 