# vtk DataFile Version 2.0
Comment goes here
ASCII

DATASET STRUCTURED_POINTS
FIELD FieldData 1
TIME 1 1 double
0.10000000
DIMENSIONS    128   128   1

ORIGIN    0.000   0.000   0.000
SPACING   0.039062 0.039062   1.000

POINT_DATA   16384
SCALARS uX double
LOOKUP_TABLE default

-2.717936e-01 -2.118777e-01 -1.567041e-01 -9.719223e-02 -4.278555e-02 1.573687e-02 6.887481e-02 1.258781e-01 1.773011e-01 2.323102e-01 2.816255e-01 3.342176e-01 3.810832e-01 4.308855e-01 4.750069e-01 5.216946e-01 5.628220e-01 6.061169e-01 6.440419e-01 6.837111e-01 7.182645e-01 7.541195e-01 7.851686e-01 8.170644e-01 8.445102e-01 8.723437e-01 8.961182e-01 9.198260e-01 9.398888e-01 9.594439e-01 9.757782e-01 9.911854e-01 1.003793e+00 1.015084e+00 1.023981e+00 1.031205e+00 1.036418e+00 1.039638e+00 1.041196e+00 1.040478e+00 1.038409e+00 1.033819e+00 1.028147e+00 1.019744e+00 1.010484e+00 9.983133e-01 9.854747e-01 9.695689e-01 9.531508e-01 9.335296e-01 9.135267e-01 8.901994e-01 8.666053e-01 8.395758e-01 8.123896e-01 7.816640e-01 7.508981e-01 7.164937e-01 6.821827e-01 6.441382e-01 6.063486e-01 5.647355e-01 5.235754e-01 4.785090e-01 4.341378e-01 3.857879e-01 3.384249e-01 2.870255e-01 2.369568e-01 1.828143e-01 1.303981e-01 7.389712e-02 1.956682e-02 -3.882597e-02 -9.456150e-02 -1.542968e-01 -2.108555e-01 -2.713033e-01 -3.280354e-01 -3.884907e-01 -4.446864e-01 -5.043781e-01 -5.592794e-01 -6.173826e-01 -6.701969e-01 -7.258491e-01 -7.757668e-01 -8.280873e-01 -8.743007e-01 -9.224138e-01 -9.641390e-01 -1.007199e+00 -1.043699e+00 -1.080917e+00 -1.111525e+00 -1.142196e+00 -1.166341e+00 -1.189872e+00 -1.207094e+00 -1.223025e+00 -1.233000e+00 -1.241023e+00 -1.243573e+00 -1.243545e+00 -1.238644e+00 -1.230595e+00 -1.218371e+00 -1.202495e+00 -1.183225e+00 -1.159877e+00 -1.133972e+00 -1.103645e+00 -1.071635e+00 -1.034940e+00 -9.974491e-01 -9.550920e-01 -9.128143e-01 -8.655628e-01 -8.192394e-01 -7.678996e-01 -7.182926e-01 -6.636833e-01 -6.115544e-01 -5.544853e-01 -5.005774e-01 -4.418318e-01 -3.868542e-01 -3.271759e-01 
-2.731808e-01 -2.131989e-01 -1.580656e-01 -9.849627e-02 -4.412643e-02 1.444550e-02 6.755146e-02 1.245974e-01 1.759949e-01 2.310409e-01 2.803392e-01 3.329639e-01 3.798226e-01 4.296548e-01 4.737813e-01 5.204976e-01 5.616435e-01 6.049668e-01 6.429250e-01 6.826235e-01 7.172255e-01 7.531114e-01 7.842248e-01 8.161535e-01 8.436791e-01 8.715479e-01 8.954168e-01 9.191623e-01 9.393330e-01 9.589278e-01 9.753819e-01 9.908305e-01 1.003568e+00 1.014901e+00 1.023937e+00 1.031204e+00 1.036561e+00 1.039824e+00 1.041530e+00 1.040854e+00 1.038936e+00 1.034387e+00 1.028867e+00 1.020502e+00 1.011394e+00 9.992583e-01 9.865694e-01 9.706950e-01 9.544241e-01 9.348295e-01 9.149702e-01 8.916637e-01 8.682086e-01 8.411931e-01 8.141406e-01 7.834211e-01 7.527823e-01 7.183751e-01 6.841834e-01 6.461262e-01 6.084466e-01 5.668100e-01 5.257492e-01 4.806477e-01 4.363633e-01 3.879661e-01 3.406757e-01 2.892165e-01 2.392042e-01 1.849893e-01 1.326118e-01 7.602592e-02 2.171488e-02 -3.677469e-02 -9.251181e-02 -1.523548e-01 -2.089371e-01 -2.695024e-01 -3.262805e-01 -3.868614e-01 -4.431260e-01 -5.029493e-01 -5.579418e-01 -6.161802e-01 -6.691071e-01 -7.248952e-01 -7.749450e-01 -8.273993e-01 -8.737618e-01 -9.220030e-01 -9.638912e-01 -1.007070e+00 -1.043743e+00 -1.081067e+00 -1.111855e+00 -1.142616e+00 -1.166941e+00 -1.190544e+00 -1.207944e+00 -1.223924e+00 -1.234071e+00 -1.242121e+00 -1.244832e+00 -1.244809e+00 -1.240055e+00 -1.231987e+00 -1.219897e+00 -1.203981e+00 -1.184829e+00 -1.161422e+00 -1.135621e+00 -1.105219e+00 -1.073298e+00 -1.036518e+00 -9.991041e-01 -9.566528e-01 -9.144428e-01 -8.670931e-01 -8.208296e-01 -7.693914e-01 -7.198385e-01 -6.651335e-01 -6.130547e-01 -5.558953e-01 -5.020346e-01 -4.432059e-01 -3.882733e-01 -3.285202e-01 
-2.718082e-01 -2.115716e-01 -1.561188e-01 -9.631417e-02 -4.165657e-02 1.713065e-02 7.049169e-02 1.277326e-01 1.793519e-01 2.345724e-01 2.840587e-01 3.368372e-01 3.838500e-01 4.338146e-01 4.780610e-01 5.248878e-01 5.661193e-01 6.095306e-01 6.475402e-01 6.873037e-01 7.219235e-01 7.578510e-01 7.889495e-01 8.208968e-01 8.483767e-01 8.762418e-01 9.000366e-01 9.237579e-01 9.438291e-01 9.633818e-01 9.797149e-01 9.951067e-01 1.007706e+00 1.018971e+00 1.027857e+00 1.035049e+00 1.040248e+00 1.043433e+00 1.044977e+00 1.044226e+00 1.042146e+00 1.037527e+00 1.031847e+00 1.023420e+00 1.014157e+00 1.001969e+00 9.891306e-01 9.732148e-01 9.567994e-01 9.371734e-01 9.171736e-01 8.938441e-01 8.702504e-01 8.432176e-01 8.160252e-01 7.852908e-01 7.545076e-01 7.200836e-01 6.857394e-01 6.476591e-01 6.098153e-01 5.681446e-01 5.269047e-01 4.817533e-01 4.372725e-01 3.888056e-01 3.412994e-01 2.897469e-01 2.394990e-01 1.851642e-01 1.325312e-01 7.579704e-02 2.121222e-02 -3.745520e-02 -9.348183e-02 -1.535320e-01 -2.104158e-01 -2.712161e-01 -3.283029e-01 -3.891439e-01 -4.457186e-01 -5.058228e-01 -5.611202e-01 -6.196547e-01 -6.728738e-01 -7.289663e-01 -7.792877e-01 -8.320462e-01 -8.786514e-01 -9.271874e-01 -9.692809e-01 -1.012735e+00 -1.049568e+00 -1.087138e+00 -1.118033e+00 -1.149001e+00 -1.173374e+00 -1.197135e+00 -1.214520e+00 -1.230604e+00 -1.240669e+00 -1.248763e+00 -1.251326e+00 -1.251284e+00 -1.246318e+00 -1.238171e+00 -1.225809e+00 -1.209756e+00 -1.190280e+00 -1.166685e+00 -1.140516e+00 -1.109882e+00 -1.077560e+00 -1.040513e+00 -1.002675e+00 -9.599330e-01 -9.172850e-01 -8.696304e-01 -8.229259e-01 -7.711767e-01 -7.211887e-01 -6.661745e-01 -6.136741e-01 -5.562133e-01 -5.019507e-01 -4.428333e-01 -3.875232e-01 -3.274973e-01 
-2.732037e-01 -2.125804e-01 -1.568899e-01 -9.673564e-02 -4.186531e-02 1.723516e-02 7.078571e-02 1.283054e-01 1.800939e-01 2.355612e-01 2.851996e-01 3.381957e-01 3.853471e-01 4.355026e-01 4.798775e-01 5.268707e-01 5.682236e-01 6.117788e-01 6.499054e-01 6.897916e-01 7.245261e-01 7.605566e-01 7.917691e-01 8.238007e-01 8.513950e-01 8.793271e-01 9.032377e-01 9.270104e-01 9.471995e-01 9.667900e-01 9.832436e-01 9.986619e-01 1.011385e+00 1.022668e+00 1.031681e+00 1.038886e+00 1.044216e+00 1.047411e+00 1.049091e+00 1.048351e+00 1.046410e+00 1.041804e+00 1.036269e+00 1.027858e+00 1.018743e+00 1.006576e+00 9.938877e-01 9.779942e-01 9.617297e-01 9.421264e-01 9.222742e-01 8.989643e-01 8.755111e-01 8.484901e-01 8.214263e-01 7.906902e-01 7.600181e-01 7.255727e-01 6.913159e-01 6.531880e-01 6.154018e-01 5.736505e-01 5.324319e-01 4.871611e-01 4.426592e-01 3.940283e-01 3.464534e-01 2.946880e-01 2.443191e-01 1.897193e-01 1.369099e-01 7.985706e-02 2.503837e-02 -3.400134e-02 -9.031957e-02 -1.507937e-01 -2.080253e-01 -2.692972e-01 -3.267849e-01 -3.881390e-01 -4.451620e-01 -5.058127e-01 -5.615985e-01 -6.207023e-01 -6.744405e-01 -7.311125e-01 -7.819721e-01 -8.353057e-01 -8.824548e-01 -9.315456e-01 -9.741740e-01 -1.018145e+00 -1.055489e+00 -1.093521e+00 -1.124885e+00 -1.156243e+00 -1.181030e+00 -1.205095e+00 -1.222823e+00 -1.239113e+00 -1.249442e+00 -1.257634e+00 -1.260373e+00 -1.260321e+00 -1.255441e+00 -1.247175e+00 -1.234809e+00 -1.218537e+00 -1.198973e+00 -1.175068e+00 -1.148737e+00 -1.117719e+00 -1.085172e+00 -1.047684e+00 -1.009573e+00 -9.663488e-01 -9.233960e-01 -8.752364e-01 -8.282087e-01 -7.759485e-01 -7.256320e-01 -6.701147e-01 -6.172916e-01 -5.593470e-01 -5.047762e-01 -4.452026e-01 -3.896050e-01 -3.291562e-01 
-2.717973e-01 -2.105974e-01 -1.543067e-01 -9.362378e-02 -3.821382e-02 2.136705e-02 7.539637e-02 1.333488e-01 1.855558e-01 2.414093e-01 2.914072e-01 3.447437e-01 3.921966e-01 4.426475e-01 4.872673e-01 5.345109e-01 5.760533e-01 6.198136e-01 6.580757e-01 6.981213e-01 7.329389e-01 7.690833e-01 8.003287e-01 8.324295e-01 8.600096e-01 8.879681e-01 9.118216e-01 9.355811e-01 9.556753e-01 9.752180e-01 9.915452e-01 1.006887e+00 1.019460e+00 1.030646e+00 1.039490e+00 1.046585e+00 1.051738e+00 1.054819e+00 1.056318e+00 1.055466e+00 1.053349e+00 1.048641e+00 1.042935e+00 1.034438e+00 1.025163e+00 1.012926e+00 1.000089e+00 9.841445e-01 9.677395e-01 9.481016e-01 9.281143e-01 9.047817e-01 8.811932e-01 8.541552e-01 8.269487e-01 7.961930e-01 7.653628e-01 7.308856e-01 6.964466e-01 6.582644e-01 6.202630e-01 5.784244e-01 5.369496e-01 4.915482e-01 4.467420e-01 3.979280e-01 3.499951e-01 2.979862e-01 2.472021e-01 1.922922e-01 1.390092e-01 8.157568e-02 2.622610e-02 -3.326628e-02 -9.016884e-02 -1.511665e-01 -2.090295e-01 -2.708916e-01 -3.290486e-01 -3.910525e-01 -4.487715e-01 -5.101211e-01 -5.666154e-01 -6.264535e-01 -6.808968e-01 -7.383217e-01 -7.898649e-01 -8.439501e-01 -8.917420e-01 -9.415606e-01 -9.847707e-01 -1.029422e+00 -1.067266e+00 -1.105906e+00 -1.137669e+00 -1.169540e+00 -1.194608e+00 -1.219068e+00 -1.236946e+00 -1.253498e+00 -1.263834e+00 -1.272144e+00 -1.274745e+00 -1.274660e+00 -1.269498e+00 -1.261051e+00 -1.248269e+00 -1.231677e+00 -1.211574e+00 -1.187226e+00 -1.160252e+00 -1.128687e+00 -1.095416e+00 -1.057300e+00 -1.018406e+00 -9.744978e-01 -9.307267e-01 -8.818502e-01 -8.339915e-01 -7.810033e-01 -7.298633e-01 -6.736255e-01 -6.200032e-01 -5.613608e-01 -5.060287e-01 -4.457911e-01 -3.894800e-01 -3.284086e-01 
-2.731393e-01 -2.112313e-01 -1.544250e-01 -9.310119e-02 -3.723078e-02 2.292522e-02 7.736270e-02 1.358278e-01 1.883950e-01 2.447027e-01 2.950183e-01 3.487547e-01 3.964883e-01 4.472888e-01 4.921575e-01 5.397035e-01 5.814677e-01 6.254857e-01 6.639465e-01 7.042072e-01 7.392038e-01 7.755220e-01 8.069298e-01 8.391650e-01 8.668933e-01 8.949490e-01 9.189390e-01 9.427616e-01 9.629832e-01 9.825591e-01 9.990070e-01 1.014358e+00 1.027047e+00 1.038224e+00 1.047185e+00 1.054259e+00 1.059529e+00 1.062585e+00 1.064207e+00 1.063331e+00 1.061344e+00 1.056619e+00 1.051053e+00 1.042548e+00 1.033421e+00 1.021189e+00 1.008506e+00 9.925769e-01 9.763294e-01 9.567139e-01 9.368823e-01 9.135728e-01 8.901310e-01 8.631081e-01 8.360306e-01 8.052717e-01 7.745425e-01 7.400320e-01 7.056550e-01 6.673967e-01 6.294067e-01 5.874369e-01 5.459113e-01 5.003115e-01 4.553818e-01 4.062916e-01 3.581532e-01 3.057814e-01 2.547023e-01 1.993365e-01 1.456638e-01 8.767769e-02 3.184141e-02 -2.830076e-02 -8.578640e-02 -1.475281e-01 -2.060667e-01 -2.687606e-01 -3.276785e-01 -3.905914e-01 -4.491456e-01 -5.114670e-01 -5.688565e-01 -6.297106e-01 -6.850910e-01 -7.435534e-01 -7.960543e-01 -8.511722e-01 -8.999177e-01 -9.507347e-01 -9.948673e-01 -1.040451e+00 -1.079158e+00 -1.118633e+00 -1.151171e+00 -1.183747e+00 -1.209475e+00 -1.234483e+00 -1.252883e+00 -1.269803e+00 -1.280503e+00 -1.288986e+00 -1.291782e+00 -1.291669e+00 -1.286529e+00 -1.277858e+00 -1.264927e+00 -1.247926e+00 -1.227520e+00 -1.202597e+00 -1.175183e+00 -1.142907e+00 -1.109084e+00 -1.070151e+00 -1.030621e+00 -9.858239e-01 -9.413610e-01 -8.915564e-01 -8.429784e-01 -7.890523e-01 -7.371902e-01 -6.800304e-01 -6.257042e-01 -5.661759e-01 -5.101742e-01 -4.491019e-01 -3.921670e-01 -3.303217e-01 
-2.715946e-01 -2.087859e-01 -1.510970e-01 -8.895074e-02 -3.228850e-02 2.861233e-02 8.375165e-02 1.428862e-01 1.960677e-01 2.529722e-01 3.038173e-01 3.580804e-01 4.062618e-01 4.575204e-01 5.027579e-01 5.506942e-01 5.927506e-01 6.370910e-01 6.757698e-01 7.162844e-01 7.514271e-01 7.879308e-01 8.194161e-01 8.517692e-01 8.795108e-01 9.076195e-01 9.315642e-01 9.553799e-01 9.755049e-01 9.950212e-01 1.011330e+00 1.026578e+00 1.039096e+00 1.050139e+00 1.058907e+00 1.065827e+00 1.070894e+00 1.073790e+00 1.075208e+00 1.074178e+00 1.071994e+00 1.067131e+00 1.061381e+00 1.052762e+00 1.043470e+00 1.031151e+00 1.018320e+00 1.002332e+00 9.859520e-01 9.663030e-01 9.463469e-01 9.230217e-01 8.994548e-01 8.724234e-01 8.452086e-01 8.144348e-01 7.835426e-01 7.489956e-01 7.144153e-01 6.760821e-01 6.378341e-01 5.957340e-01 5.538822e-01 5.080804e-01 4.627440e-01 4.133653e-01 3.647301e-01 3.119707e-01 2.602981e-01 2.044359e-01 1.500701e-01 9.147261e-02 3.484449e-02 -2.602634e-02 -8.439758e-02 -1.469833e-01 -2.064921e-01 -2.701387e-01 -3.300981e-01 -3.940610e-01 -4.537106e-01 -5.171627e-01 -5.756804e-01 -6.377241e-01 -6.942403e-01 -7.539240e-01 -8.075399e-01 -8.638790e-01 -9.136876e-01 -9.656894e-01 -1.010800e+00 -1.057494e+00 -1.097060e+00 -1.137528e+00 -1.170776e+00 -1.204191e+00 -1.230447e+00 -1.256106e+00 -1.274828e+00 -1.292180e+00 -1.302982e+00 -1.311660e+00 -1.314326e+00 -1.314163e+00 -1.308665e+00 -1.299701e+00 -1.286196e+00 -1.268676e+00 -1.247499e+00 -1.221858e+00 -1.193505e+00 -1.160344e+00 -1.125450e+00 -1.085503e+00 -1.044808e+00 -9.989094e-01 -9.532256e-01 -9.022705e-01 -8.524514e-01 -7.973616e-01 -7.442704e-01 -6.859641e-01 -6.304475e-01 -5.698138e-01 -5.126814e-01 -4.505622e-01 -3.925712e-01 -3.297490e-01 
-2.727615e-01 -2.089220e-01 -1.504401e-01 -8.736306e-02 -2.999550e-02 3.173915e-02 8.750084e-02 1.473777e-01 2.011054e-01 2.586671e-01 3.099900e-01 3.648316e-01 4.134305e-01 4.651943e-01 5.107961e-01 5.591685e-01 6.015429e-01 6.462531e-01 6.852088e-01 7.260290e-01 7.614125e-01 7.981590e-01 8.298526e-01 8.623877e-01 8.903089e-01 9.185417e-01 9.426412e-01 9.665275e-01 9.867865e-01 1.006326e+00 1.022753e+00 1.037986e+00 1.050612e+00 1.061610e+00 1.070480e+00 1.077339e+00 1.082509e+00 1.085336e+00 1.086863e+00 1.085770e+00 1.083705e+00 1.078792e+00 1.073175e+00 1.064525e+00 1.055380e+00 1.043052e+00 1.030382e+00 1.014407e+00 9.981963e-01 9.785756e-01 9.587904e-01 9.355002e-01 9.120951e-01 8.850927e-01 8.580174e-01 8.272507e-01 7.964606e-01 7.618807e-01 7.273485e-01 6.889234e-01 6.506520e-01 6.083818e-01 5.664178e-01 5.203494e-01 4.747964e-01 4.250380e-01 3.760678e-01 3.228021e-01 2.706654e-01 2.141601e-01 1.591937e-01 9.981029e-02 4.244200e-02 -1.935904e-02 -7.860873e-02 -1.422652e-01 -2.027846e-01 -2.676337e-01 -3.287248e-01 -3.940072e-01 -4.548933e-01 -5.197612e-01 -5.795987e-01 -6.431277e-01 -7.010205e-01 -7.622262e-01 -8.172436e-01 -8.751025e-01 -9.263013e-01 -9.797768e-01 -1.026226e+00 -1.074300e+00 -1.115111e+00 -1.156817e+00 -1.191172e+00 -1.225636e+00 -1.252822e+00 -1.279295e+00 -1.298734e+00 -1.316633e+00 -1.327910e+00 -1.336843e+00 -1.339726e+00 -1.339517e+00 -1.333972e+00 -1.324664e+00 -1.310855e+00 -1.292714e+00 -1.270998e+00 -1.244490e+00 -1.215395e+00 -1.181164e+00 -1.145362e+00 -1.104191e+00 -1.062466e+00 -1.015241e+00 -9.684505e-01 -9.161143e-01 -8.651548e-01 -8.086750e-01 -7.544470e-01 -6.947795e-01 -6.381613e-01 -5.762248e-01 -5.180499e-01 -4.547077e-01 -3.957498e-01 -3.317975e-01 
-2.709130e-01 -2.058467e-01 -1.461980e-01 -8.200553e-02 -2.359482e-02 3.914685e-02 9.583114e-02 1.566115e-01 2.111460e-01 2.695130e-01 3.215324e-01 3.770853e-01 4.262754e-01 4.786595e-01 5.247516e-01 5.736544e-01 6.164214e-01 6.615717e-01 7.008253e-01 7.419940e-01 7.775834e-01 8.145860e-01 8.463975e-01 8.790966e-01 9.070527e-01 9.353604e-01 9.594190e-01 9.832973e-01 1.003449e+00 1.022908e+00 1.039174e+00 1.054266e+00 1.066689e+00 1.077502e+00 1.086144e+00 1.092793e+00 1.097724e+00 1.100334e+00 1.101624e+00 1.100323e+00 1.098037e+00 1.092940e+00 1.087125e+00 1.078328e+00 1.069012e+00 1.056579e+00 1.043766e+00 1.027728e+00 1.011398e+00 9.917519e-01 9.718623e-01 9.485737e-01 9.250656e-01 8.980763e-01 8.708825e-01 8.401212e-01 8.091774e-01 7.745729e-01 7.398310e-01 7.013273e-01 6.627689e-01 6.203417e-01 5.779935e-01 5.316664e-01 4.856139e-01 4.354741e-01 3.858749e-01 3.320870e-01 2.791817e-01 2.219998e-01 1.661200e-01 1.058967e-01 4.747062e-02 -1.533702e-02 -7.578278e-02 -1.406102e-01 -2.024520e-01 -2.686277e-01 -3.311498e-01 -3.978989e-01 -4.603014e-01 -5.267536e-01 -5.881639e-01 -6.533648e-01 -7.128524e-01 -7.757800e-01 -8.323749e-01 -8.919607e-01 -9.446759e-01 -9.998323e-01 -1.047690e+00 -1.097343e+00 -1.139406e+00 -1.182530e+00 -1.217933e+00 -1.253597e+00 -1.281584e+00 -1.308989e+00 -1.328943e+00 -1.347462e+00 -1.358943e+00 -1.368157e+00 -1.370918e+00 -1.370637e+00 -1.364645e+00 -1.354919e+00 -1.340355e+00 -1.321472e+00 -1.298722e+00 -1.271187e+00 -1.240823e+00 -1.205329e+00 -1.168073e+00 -1.125462e+00 -1.082152e+00 -1.033368e+00 -9.849179e-01 -9.309619e-01 -8.783192e-01 -8.202096e-01 -7.643204e-01 -7.030561e-01 -6.448355e-01 -5.813685e-01 -5.216785e-01 -4.568952e-01 -3.965288e-01 -3.312392e-01 
-2.717167e-01 -2.052958e-01 -1.445781e-01 -7.916804e-02 -1.981172e-02 4.401697e-02 1.015311e-01 1.632769e-01 2.185358e-01 2.777567e-01 3.304061e-01 3.867106e-01 4.364475e-01 4.894882e-01 5.360538e-01 5.855233e-01 6.286989e-01 6.743292e-01 7.139334e-01 7.554967e-01 7.913844e-01 8.286970e-01 8.607590e-01 8.936849e-01 9.218483e-01 9.503025e-01 9.745300e-01 9.984800e-01 1.018768e+00 1.038232e+00 1.054608e+00 1.069651e+00 1.082166e+00 1.092890e+00 1.101614e+00 1.108150e+00 1.113162e+00 1.115651e+00 1.117031e+00 1.115618e+00 1.113436e+00 1.108251e+00 1.102561e+00 1.093706e+00 1.084539e+00 1.072085e+00 1.059444e+00 1.043420e+00 1.027279e+00 1.007676e+00 9.879833e-01 9.647546e-01 9.414363e-01 9.145055e-01 8.874771e-01 8.567510e-01 8.259273e-01 7.913094e-01 7.566189e-01 7.180267e-01 6.794271e-01 6.368092e-01 5.943034e-01 5.476578e-01 5.013093e-01 4.507000e-01 4.006474e-01 3.462198e-01 2.926886e-01 2.346824e-01 1.779943e-01 1.167530e-01 5.733191e-02 -6.689965e-03 -6.831570e-02 -1.345497e-01 -1.977483e-01 -2.655117e-01 -3.295526e-01 -3.980521e-01 -4.621140e-01 -5.304526e-01 -5.936342e-01 -6.608227e-01 -7.221581e-01 -7.871308e-01 -8.456075e-01 -9.072440e-01 -9.618260e-01 -1.018979e+00 -1.068634e+00 -1.120163e+00 -1.163895e+00 -1.208709e+00 -1.245593e+00 -1.282690e+00 -1.311913e+00 -1.340434e+00 -1.361328e+00 -1.380597e+00 -1.392682e+00 -1.402243e+00 -1.405247e+00 -1.404895e+00 -1.398779e+00 -1.388572e+00 -1.373528e+00 -1.353780e+00 -1.330225e+00 -1.301489e+00 -1.270039e+00 -1.233069e+00 -1.194505e+00 -1.150212e+00 -1.105434e+00 -1.054835e+00 -1.004821e+00 -9.489865e-01 -8.947443e-01 -8.347547e-01 -7.772827e-01 -7.141883e-01 -6.544444e-01 -5.892366e-01 -5.281146e-01 -4.617068e-01 -4.000209e-01 -3.332387e-01 
-2.693305e-01 -2.013558e-01 -1.391870e-01 -7.237128e-02 -1.172355e-02 5.336947e-02 1.120221e-01 1.749001e-01 2.311532e-01 2.913831e-01 3.448911e-01 4.020887e-01 4.525560e-01 5.063781e-01 5.535519e-01 6.036924e-01 6.473581e-01 6.935474e-01 7.335265e-01 7.755339e-01 8.116838e-01 8.493226e-01 8.815376e-01 9.146707e-01 9.428834e-01 9.714282e-01 9.956096e-01 1.019541e+00 1.039699e+00 1.059048e+00 1.075226e+00 1.090073e+00 1.102340e+00 1.112812e+00 1.121258e+00 1.127508e+00 1.132231e+00 1.134429e+00 1.135528e+00 1.133840e+00 1.131402e+00 1.125977e+00 1.120068e+00 1.111027e+00 1.101684e+00 1.089105e+00 1.076330e+00 1.060245e+00 1.044008e+00 1.024398e+00 1.004634e+00 9.814392e-01 9.580567e-01 9.311803e-01 9.040715e-01 8.733933e-01 8.424463e-01 8.078396e-01 7.729541e-01 7.343037e-01 6.954083e-01 6.526299e-01 6.096997e-01 5.627598e-01 5.158336e-01 4.647678e-01 4.139640e-01 3.588935e-01 3.044234e-01 2.455693e-01 1.877470e-01 1.254409e-01 6.468982e-02 -6.190161e-04 -6.376322e-02 -1.315038e-01 -1.963947e-01 -2.658739e-01 -3.317589e-01 -4.021643e-01 -4.681925e-01 -5.385989e-01 -6.038324e-01 -6.732125e-01 -7.366412e-01 -8.038811e-01 -8.644414e-01 -9.283620e-01 -9.849605e-01 -1.044346e+00 -1.095888e+00 -1.149524e+00 -1.194947e+00 -1.241661e+00 -1.279975e+00 -1.318688e+00 -1.349018e+00 -1.378796e+00 -1.400423e+00 -1.420530e+00 -1.432934e+00 -1.442874e+00 -1.445763e+00 -1.445313e+00 -1.438645e+00 -1.427870e+00 -1.411861e+00 -1.391109e+00 -1.366216e+00 -1.336094e+00 -1.302993e+00 -1.264326e+00 -1.223869e+00 -1.177649e+00 -1.130812e+00 -1.078140e+00 -1.025976e+00 -9.680009e-01 -9.115881e-01 -8.494598e-01 -7.898571e-01 -7.246826e-01 -6.628962e-01 -5.957094e-01 -5.326683e-01 -4.644109e-01 -4.009526e-01 -3.324660e-01 
-2.695058e-01 -1.998543e-01 -1.363435e-01 -6.802970e-02 -6.203777e-03 6.022043e-02 1.199001e-01 1.839570e-01 2.411012e-01 3.023726e-01 3.566519e-01 4.147666e-01 4.659002e-01 5.205250e-01 5.682730e-01 6.191079e-01 6.632661e-01 7.100439e-01 7.504418e-01 7.929320e-01 8.294329e-01 8.674476e-01 8.999508e-01 9.333526e-01 9.617953e-01 9.905035e-01 1.014862e+00 1.038858e+00 1.059148e+00 1.078472e+00 1.094744e+00 1.109494e+00 1.121829e+00 1.132150e+00 1.140649e+00 1.146717e+00 1.151492e+00 1.153500e+00 1.154662e+00 1.152800e+00 1.150447e+00 1.144884e+00 1.139091e+00 1.129961e+00 1.120769e+00 1.108157e+00 1.095571e+00 1.079508e+00 1.063489e+00 1.043950e+00 1.024422e+00 1.001330e+00 9.781830e-01 9.514166e-01 9.245201e-01 8.939302e-01 8.631442e-01 8.285704e-01 7.937639e-01 7.550551e-01 7.161245e-01 6.731605e-01 6.300492e-01 5.827619e-01 5.354794e-01 4.838735e-01 4.325126e-01 3.766835e-01 3.214357e-01 2.615849e-01 2.027508e-01 1.391975e-01 7.719475e-02 1.038366e-02 -5.425028e-02 -1.237442e-01 -1.903529e-01 -2.618237e-01 -3.296362e-01 -4.022495e-01 -4.703883e-01 -5.431868e-01 -6.106785e-01 -6.825920e-01 -7.483822e-01 -8.182424e-01 -8.812138e-01 -9.477755e-01 -1.006772e+00 -1.068743e+00 -1.122599e+00 -1.178676e+00 -1.226252e+00 -1.275173e+00 -1.315399e+00 -1.355992e+00 -1.387915e+00 -1.419162e+00 -1.441993e+00 -1.463086e+00 -1.476247e+00 -1.486641e+00 -1.489807e+00 -1.489256e+00 -1.482376e+00 -1.470953e+00 -1.454258e+00 -1.432349e+00 -1.406340e+00 -1.374620e+00 -1.340036e+00 -1.299415e+00 -1.257187e+00 -1.208754e+00 -1.159947e+00 -1.104902e+00 -1.050657e+00 -9.902437e-01 -9.317198e-01 -8.671699e-01 -8.054956e-01 -7.379828e-01 -6.742195e-01 -6.048267e-01 -5.399432e-01 -4.696440e-01 -4.045022e-01 -3.341544e-01 
-2.662687e-01 -1.947385e-01 -1.294952e-01 -5.949263e-02 3.866219e-03 7.180291e-02 1.328284e-01 1.982372e-01 2.565542e-01 3.190314e-01 3.743236e-01 4.335089e-01 4.855062e-01 5.410724e-01 5.895425e-01 6.411904e-01 6.859332e-01 7.333921e-01 7.742392e-01 8.172721e-01 8.540879e-01 8.925002e-01 9.251860e-01 9.588358e-01 9.873338e-01 1.016141e+00 1.040437e+00 1.064390e+00 1.084513e+00 1.103669e+00 1.119689e+00 1.134168e+00 1.146189e+00 1.156165e+00 1.164315e+00 1.169998e+00 1.174415e+00 1.176033e+00 1.176854e+00 1.174628e+00 1.171972e+00 1.166101e+00 1.160060e+00 1.150697e+00 1.141322e+00 1.128566e+00 1.115861e+00 1.099743e+00 1.083663e+00 1.064150e+00 1.044602e+00 1.021598e+00 9.984489e-01 9.718043e-01 9.448923e-01 9.144231e-01 8.835729e-01 8.490785e-01 8.141208e-01 7.754072e-01 7.361996e-01 6.931032e-01 6.495519e-01 6.019632e-01 5.540447e-01 5.019312e-01 4.497113e-01 3.931370e-01 3.367876e-01 2.759298e-01 2.157409e-01 1.509028e-01 8.729077e-02 1.890993e-02 -4.757963e-02 -1.189263e-01 -1.876194e-01 -2.612142e-01 -3.313133e-01 -4.062999e-01 -4.768916e-01 -5.522796e-01 -6.223460e-01 -6.970194e-01 -7.654522e-01 -8.381836e-01 -9.038021e-01 -9.732732e-01 -1.034849e+00 -1.099680e+00 -1.155967e+00 -1.214758e+00 -1.264531e+00 -1.315912e+00 -1.358013e+00 -1.400707e+00 -1.434099e+00 -1.466986e+00 -1.490807e+00 -1.512997e+00 -1.526615e+00 -1.537504e+00 -1.540561e+00 -1.539877e+00 -1.532319e+00 -1.520146e+00 -1.502233e+00 -1.479003e+00 -1.451293e+00 -1.417756e+00 -1.381070e+00 -1.338236e+00 -1.293600e+00 -1.242671e+00 -1.191254e+00 -1.133543e+00 -1.076588e+00 -1.013443e+00 -9.522012e-01 -8.849470e-01 -8.206243e-01 -7.505057e-01 -6.842241e-01 -6.123755e-01 -5.451459e-01 -4.725729e-01 -4.052824e-01 -3.328578e-01 
-2.654601e-01 -1.919363e-01 -1.250855e-01 -5.331597e-02 1.144112e-02 8.093850e-02 1.431729e-01 2.099591e-01 2.693182e-01 3.330114e-01 3.892011e-01 4.494593e-01 5.022295e-01 5.587384e-01 6.078730e-01 6.603402e-01 7.056515e-01 7.538076e-01 7.951356e-01 8.387406e-01 8.759553e-01 9.148098e-01 9.478168e-01 9.817750e-01 1.010520e+00 1.039502e+00 1.063977e+00 1.087976e+00 1.108217e+00 1.127303e+00 1.143391e+00 1.157705e+00 1.169757e+00 1.179499e+00 1.187659e+00 1.193069e+00 1.197495e+00 1.198832e+00 1.199677e+00 1.197197e+00 1.194598e+00 1.188524e+00 1.182585e+00 1.173093e+00 1.163873e+00 1.151072e+00 1.138577e+00 1.122500e+00 1.106678e+00 1.087281e+00 1.068026e+00 1.045190e+00 1.022346e+00 9.958920e-01 9.692670e-01 9.389726e-01 9.083552e-01 8.739757e-01 8.391566e-01 8.004509e-01 7.612457e-01 7.180029e-01 6.742765e-01 6.263424e-01 5.780326e-01 5.253342e-01 4.724736e-01 4.150413e-01 3.577757e-01 2.957610e-01 2.343629e-01 1.680527e-01 1.029303e-01 3.275529e-02 -3.554390e-02 -1.090033e-01 -1.797935e-01 -2.558059e-01 -3.282680e-01 -4.059521e-01 -4.791411e-01 -5.574696e-01 -6.303256e-01 -7.081326e-01 -7.794940e-01 -8.554871e-01 -9.241085e-01 -9.968885e-01 -1.061464e+00 -1.129555e+00 -1.188749e+00 -1.250639e+00 -1.303128e+00 -1.357328e+00 -1.401849e+00 -1.446956e+00 -1.482366e+00 -1.517146e+00 -1.542489e+00 -1.565951e+00 -1.580517e+00 -1.591987e+00 -1.595367e+00 -1.594541e+00 -1.586666e+00 -1.573639e+00 -1.554792e+00 -1.530050e+00 -1.500847e+00 -1.465230e+00 -1.426581e+00 -1.381220e+00 -1.334262e+00 -1.280490e+00 -1.226514e+00 -1.165777e+00 -1.106143e+00 -1.039918e+00 -9.759831e-01 -9.056992e-01 -8.387609e-01 -7.657467e-01 -6.969951e-01 -6.224436e-01 -5.529361e-01 -4.778878e-01 -4.085383e-01 -3.338801e-01 
-2.609659e-01 -1.852468e-01 -1.163900e-01 -4.266246e-02 2.385647e-02 9.509886e-02 1.588724e-01 2.272158e-01 2.879131e-01 3.529978e-01 4.103442e-01 4.718443e-01 5.256042e-01 5.832135e-01 6.331798e-01 6.866057e-01 7.325944e-01 7.815599e-01 8.234104e-01 8.676634e-01 9.052436e-01 9.445714e-01 9.777857e-01 1.012032e+00 1.040830e+00 1.069912e+00 1.094292e+00 1.118210e+00 1.138228e+00 1.157070e+00 1.172828e+00 1.186765e+00 1.198413e+00 1.207683e+00 1.215398e+00 1.220287e+00 1.224261e+00 1.225076e+00 1.225498e+00 1.222537e+00 1.219573e+00 1.213099e+00 1.206876e+00 1.197092e+00 1.187681e+00 1.174713e+00 1.162123e+00 1.146007e+00 1.130176e+00 1.110856e+00 1.091656e+00 1.068989e+00 1.046236e+00 1.020006e+00 9.934656e-01 9.634048e-01 9.328206e-01 8.986315e-01 8.637440e-01 8.251299e-01 7.857036e-01 7.423976e-01 6.982487e-01 6.500432e-01 6.010662e-01 5.478404e-01 4.940322e-01 4.357765e-01 3.772572e-01 3.140924e-01 2.511202e-01 1.833125e-01 1.162931e-01 4.426361e-02 -2.624600e-02 -1.019159e-01 -1.752094e-01 -2.537760e-01 -3.290027e-01 -4.095607e-01 -4.857341e-01 -5.672191e-01 -6.432268e-01 -7.244208e-01 -7.990376e-01 -8.785789e-01 -9.504833e-01 -1.026885e+00 -1.094682e+00 -1.166360e+00 -1.228615e+00 -1.293932e+00 -1.349209e+00 -1.406538e+00 -1.453460e+00 -1.501255e+00 -1.538568e+00 -1.575457e+00 -1.602102e+00 -1.626979e+00 -1.642168e+00 -1.654276e+00 -1.657555e+00 -1.656552e+00 -1.647845e+00 -1.633840e+00 -1.613465e+00 -1.587007e+00 -1.555660e+00 -1.517696e+00 -1.476396e+00 -1.428195e+00 -1.378211e+00 -1.321259e+00 -1.264020e+00 -1.199919e+00 -1.136921e+00 -1.067284e+00 -1.000006e+00 -9.263799e-01 -8.562152e-01 -7.800178e-01 -7.082300e-01 -6.307139e-01 -5.584081e-01 -4.806468e-01 -4.087617e-01 -3.316528e-01 
-2.587096e-01 -1.806937e-01 -1.099779e-01 -3.423477e-02 3.388245e-02 1.068921e-01 1.720341e-01 2.419313e-01 3.037996e-01 3.702564e-01 4.286067e-01 4.913226e-01 5.459456e-01 6.046309e-01 6.553397e-01 7.097089e-01 7.563333e-01 8.061077e-01 8.484954e-01 8.934146e-01 9.314376e-01 9.712778e-01 1.004842e+00 1.039437e+00 1.068494e+00 1.097756e+00 1.122309e+00 1.146242e+00 1.166354e+00 1.185061e+00 1.200847e+00 1.214524e+00 1.226151e+00 1.235071e+00 1.242738e+00 1.247228e+00 1.251150e+00 1.251563e+00 1.251954e+00 1.248630e+00 1.245680e+00 1.238920e+00 1.232776e+00 1.222812e+00 1.213558e+00 1.200533e+00 1.188181e+00 1.172132e+00 1.156616e+00 1.137475e+00 1.118649e+00 1.096247e+00 1.073898e+00 1.047978e+00 1.021835e+00 9.920796e-01 9.618400e-01 9.278945e-01 8.932471e-01 8.547542e-01 8.154095e-01 7.720412e-01 7.277616e-01 6.792527e-01 6.298827e-01 5.760608e-01 5.215544e-01 4.623667e-01 4.028102e-01 3.383448e-01 2.739738e-01 2.044758e-01 1.356855e-01 6.156654e-02 -1.108449e-02 -8.924037e-02 -1.650322e-01 -2.464669e-01 -3.245239e-01 -4.083057e-01 -4.876050e-01 -5.726293e-01 -6.520108e-01 -7.370035e-01 -8.151810e-01 -8.987062e-01 -9.742825e-01 -1.054757e+00 -1.126246e+00 -1.201968e+00 -1.267823e+00 -1.337017e+00 -1.395679e+00 -1.456559e+00 -1.506515e+00 -1.557372e+00 -1.597226e+00 -1.636530e+00 -1.665093e+00 -1.691598e+00 -1.707974e+00 -1.720823e+00 -1.724485e+00 -1.723291e+00 -1.714139e+00 -1.699021e+00 -1.677404e+00 -1.648986e+00 -1.615680e+00 -1.575036e+00 -1.531184e+00 -1.479747e+00 -1.426772e+00 -1.366211e+00 -1.305705e+00 -1.237802e+00 -1.171418e+00 -1.097952e+00 -1.027310e+00 -9.499633e-01 -8.765704e-01 -7.968616e-01 -7.220636e-01 -6.413127e-01 -5.662674e-01 -4.855826e-01 -4.112540e-01 -3.315409e-01 
-2.524414e-01 -1.719318e-01 -9.895362e-02 -2.100737e-02 4.907927e-02 1.240413e-01 1.908936e-01 2.625312e-01 3.258838e-01 3.939020e-01 4.535380e-01 5.176592e-01 5.733887e-01 6.333338e-01 6.849802e-01 7.404613e-01 7.878561e-01 8.385806e-01 8.815663e-01 9.272522e-01 9.656924e-01 1.006092e+00 1.039886e+00 1.074812e+00 1.103909e+00 1.133265e+00 1.157677e+00 1.181472e+00 1.201278e+00 1.219637e+00 1.234986e+00 1.248142e+00 1.259237e+00 1.267516e+00 1.274603e+00 1.278391e+00 1.281734e+00 1.281447e+00 1.281305e+00 1.277344e+00 1.273945e+00 1.266664e+00 1.260186e+00 1.249856e+00 1.240400e+00 1.227184e+00 1.214768e+00 1.198709e+00 1.183254e+00 1.164267e+00 1.145603e+00 1.123488e+00 1.101360e+00 1.075813e+00 1.049901e+00 1.020544e+00 9.904850e-01 9.568966e-01 9.223143e-01 8.840653e-01 8.446041e-01 8.012948e-01 7.566538e-01 7.079511e-01 6.579181e-01 6.035891e-01 5.480720e-01 4.880135e-01 4.270653e-01 3.613270e-01 2.951649e-01 2.239664e-01 1.529820e-01 7.672259e-02 1.485568e-03 -7.925074e-02 -1.579961e-01 -2.424391e-01 -3.237809e-01 -4.109739e-01 -4.938417e-01 -5.826413e-01 -6.658153e-01 -7.548913e-01 -8.370127e-01 -9.248515e-01 -1.004435e+00 -1.089351e+00 -1.164804e+00 -1.244965e+00 -1.314620e+00 -1.388093e+00 -1.450251e+00 -1.515071e+00 -1.568068e+00 -1.622335e+00 -1.664626e+00 -1.706623e+00 -1.736880e+00 -1.765198e+00 -1.782412e+00 -1.796079e+00 -1.799655e+00 -1.798226e+00 -1.788051e+00 -1.771662e+00 -1.748132e+00 -1.717496e+00 -1.681491e+00 -1.637832e+00 -1.590649e+00 -1.535591e+00 -1.478831e+00 -1.414254e+00 -1.349698e+00 -1.277591e+00 -1.207072e+00 -1.129396e+00 -1.054686e+00 -9.732710e-01 -8.960010e-01 -8.124718e-01 -7.340721e-01 -6.498148e-01 -5.714940e-01 -4.876467e-01 -4.103892e-01 -3.278583e-01 