# vtk DataFile Version 2.0
Comment goes here
ASCII

DATASET STRUCTURED_POINTS
FIELD FieldData 1
TIME 1 1 double
0.19000000
DIMENSIONS    128   128   1

ORIGIN    0.000   0.000   0.000
SPACING   0.039062 0.039062   1.000

POINT_DATA   16384
SCALARS uX double
LOOKUP_TABLE default

-4.872291e-02 -4.282900e-02 -3.646750e-02 -2.973347e-02 -2.271093e-02 -1.526523e-02 -7.731424e-03 2.726006e-04 8.144135e-03 1.653234e-02 2.454929e-02 3.313161e-02 4.108867e-02 4.966472e-02 5.735025e-02 6.571556e-02 7.291872e-02 8.087144e-02 8.738985e-02 9.473760e-02 1.003849e-01 1.069516e-01 1.115647e-01 1.171968e-01 1.206425e-01 1.252143e-01 1.273944e-01 1.308125e-01 1.316676e-01 1.338737e-01 1.333852e-01 1.343572e-01 1.325475e-01 1.322993e-01 1.292301e-01 1.278099e-01 1.235788e-01 1.210657e-01 1.158021e-01 1.123022e-01 1.061609e-01 1.018024e-01 9.495746e-02 8.988527e-02 8.252372e-02 7.689389e-02 6.920873e-02 6.318312e-02 5.536718e-02 4.910822e-02 4.134839e-02 3.501441e-02 2.748655e-02 2.122752e-02 1.409210e-02 8.045990e-03 1.444527e-03 -4.265838e-03 -1.021363e-02 -1.548318e-02 -2.068159e-02 -2.542519e-02 -2.980411e-02 -3.395823e-02 -3.747426e-02 -4.099834e-02 -4.363535e-02 -4.651269e-02 -4.828192e-02 -5.052014e-02 -5.145976e-02 -5.309071e-02 -5.326478e-02 -5.434372e-02 -5.384040e-02 -5.444444e-02 -5.337335e-02 -5.359888e-02 -5.208753e-02 -5.204657e-02 -5.023571e-02 -5.005116e-02 -4.808921e-02 -4.788903e-02 -4.592553e-02 -4.583606e-02 -4.401453e-02 -4.415325e-02 -4.260376e-02 -4.307193e-02 -4.190374e-02 -4.277954e-02 -4.207454e-02 -4.340710e-02 -4.321445e-02 -4.501949e-02 -4.535194e-02 -4.760936e-02 -4.844172e-02 -5.109544e-02 -5.236535e-02 -5.532541e-02 -5.693637e-02 -6.008328e-02 -6.190988e-02 -6.510074e-02 -6.699551e-02 -7.007145e-02 -7.187297e-02 -7.466743e-02 -7.620901e-02 -7.855610e-02 -7.967444e-02 -8.141695e-02 -8.196028e-02 -8.295689e-02 -8.279216e-02 -8.292351e-02 -8.194235e-02 -8.111583e-02 -7.923915e-02 -7.739237e-02 -7.457355e-02 -7.167655e-02 -6.790338e-02 -6.395963e-02 -5.925499e-02 -5.430143e-02 
-4.888934e-02 -4.299363e-02 -3.664143e-02 -2.990127e-02 -2.288318e-02 -1.542769e-02 -7.893995e-03 1.227307e-04 7.997829e-03 1.640082e-02 2.442421e-02 3.302250e-02 4.098799e-02 4.958026e-02 5.727519e-02 6.565603e-02 7.286852e-02 8.083512e-02 8.736175e-02 9.472087e-02 1.003743e-01 1.069490e-01 1.115653e-01 1.172015e-01 1.206466e-01 1.252182e-01 1.273934e-01 1.308069e-01 1.316524e-01 1.338494e-01 1.333467e-01 1.343054e-01 1.324770e-01 1.322119e-01 1.291200e-01 1.276797e-01 1.234228e-01 1.208874e-01 1.155953e-01 1.120718e-01 1.059005e-01 1.015180e-01 9.464256e-02 8.954710e-02 8.215544e-02 7.650400e-02 6.879023e-02 6.274557e-02 5.490347e-02 4.862888e-02 4.084624e-02 3.450078e-02 2.695425e-02 2.068853e-02 1.353928e-02 7.491775e-03 8.819218e-04 -4.824151e-03 -1.077441e-02 -1.603373e-02 -2.122829e-02 -2.595558e-02 -3.032405e-02 -3.445581e-02 -3.795460e-02 -4.145045e-02 -4.406334e-02 -4.690694e-02 -4.864521e-02 -5.084470e-02 -5.174672e-02 -5.333468e-02 -5.346488e-02 -5.449752e-02 -5.394464e-02 -5.450023e-02 -5.337471e-02 -5.355099e-02 -5.198144e-02 -5.189194e-02 -5.002048e-02 -4.978974e-02 -4.776641e-02 -4.752406e-02 -4.550026e-02 -4.537426e-02 -4.349549e-02 -4.360483e-02 -4.200316e-02 -4.245036e-02 -4.123696e-02 -4.210110e-02 -4.135956e-02 -4.269027e-02 -4.247107e-02 -4.428411e-02 -4.460086e-02 -4.687567e-02 -4.770352e-02 -5.038310e-02 -5.165943e-02 -5.465253e-02 -5.628008e-02 -5.946561e-02 -6.131772e-02 -6.455098e-02 -6.647859e-02 -6.959887e-02 -7.143873e-02 -7.427767e-02 -7.586116e-02 -7.825123e-02 -7.941316e-02 -8.119573e-02 -8.178257e-02 -8.281519e-02 -8.269234e-02 -8.285479e-02 -8.191260e-02 -8.111173e-02 -7.927008e-02 -7.744319e-02 -7.465475e-02 -7.177184e-02 -6.802390e-02 -6.408860e-02 -5.940383e-02 -5.445337e-02 
-4.958529e-02 -4.364124e-02 -3.721875e-02 -3.042047e-02 -2.332304e-02 -1.580065e-02 -8.180070e-03 -8.896003e-05 7.878743e-03 1.636199e-02 2.448159e-02 3.316411e-02 4.122702e-02 4.990531e-02 5.769626e-02 6.616251e-02 7.346688e-02 8.151578e-02 8.812739e-02 9.556319e-02 1.012920e-01 1.079355e-01 1.126153e-01 1.183102e-01 1.218050e-01 1.264235e-01 1.286333e-01 1.320807e-01 1.329450e-01 1.351622e-01 1.346625e-01 1.356275e-01 1.337869e-01 1.335147e-01 1.303966e-01 1.289368e-01 1.246412e-01 1.220749e-01 1.167339e-01 1.131698e-01 1.069413e-01 1.025103e-01 9.557185e-02 9.042153e-02 8.296337e-02 7.725253e-02 6.947084e-02 6.336389e-02 5.545440e-02 4.911616e-02 4.126829e-02 3.485920e-02 2.725099e-02 2.092287e-02 1.371660e-02 7.608980e-03 9.475844e-04 -4.815393e-03 -1.081109e-02 -1.612329e-02 -2.135679e-02 -2.613219e-02 -3.053285e-02 -3.470729e-02 -3.823140e-02 -4.176386e-02 -4.439526e-02 -4.726882e-02 -4.901898e-02 -5.124131e-02 -5.214893e-02 -5.375226e-02 -5.388229e-02 -5.492270e-02 -5.436461e-02 -5.492049e-02 -5.378569e-02 -5.395525e-02 -5.237355e-02 -5.227118e-02 -5.038615e-02 -5.013765e-02 -4.810094e-02 -4.783762e-02 -4.580237e-02 -4.565417e-02 -4.376762e-02 -4.385569e-02 -4.225155e-02 -4.268062e-02 -4.147144e-02 -4.232263e-02 -4.159301e-02 -4.291765e-02 -4.271856e-02 -4.453358e-02 -4.487855e-02 -4.716394e-02 -4.802742e-02 -5.072602e-02 -5.204409e-02 -5.506381e-02 -5.673741e-02 -5.995568e-02 -6.185593e-02 -6.512612e-02 -6.710152e-02 -7.026066e-02 -7.214545e-02 -7.502278e-02 -7.664593e-02 -7.907155e-02 -8.026570e-02 -8.207880e-02 -8.268859e-02 -8.374481e-02 -8.363421e-02 -8.381180e-02 -8.287015e-02 -8.207476e-02 -8.022134e-02 -7.838949e-02 -7.557674e-02 -7.267795e-02 -6.889331e-02 -6.493106e-02 -6.019761e-02 -5.520929e-02 
-5.062420e-02 -4.462764e-02 -3.815311e-02 -3.128380e-02 -2.411539e-02 -1.650577e-02 -8.797867e-03 -6.061392e-04 7.462090e-03 1.605606e-02 2.428567e-02 3.308530e-02 4.126346e-02 5.006117e-02 5.796799e-02 6.655163e-02 7.396761e-02 8.212745e-02 8.884147e-02 9.637747e-02 1.021949e-01 1.089238e-01 1.136741e-01 1.194364e-01 1.229802e-01 1.276455e-01 1.298804e-01 1.333522e-01 1.342164e-01 1.364352e-01 1.359099e-01 1.368542e-01 1.349637e-01 1.346497e-01 1.314595e-01 1.299391e-01 1.255522e-01 1.229096e-01 1.174617e-01 1.138089e-01 1.074622e-01 1.029338e-01 9.587018e-02 9.061749e-02 8.303160e-02 7.721719e-02 6.930940e-02 6.310122e-02 5.507112e-02 4.863722e-02 4.067770e-02 3.418139e-02 2.647348e-02 2.006905e-02 1.277751e-02 6.606594e-03 -1.236125e-04 -5.935172e-03 -1.198164e-02 -1.732637e-02 -2.259140e-02 -2.738228e-02 -3.179441e-02 -3.596664e-02 -3.948168e-02 -4.299394e-02 -4.559557e-02 -4.843107e-02 -5.013100e-02 -5.229798e-02 -5.313561e-02 -5.466742e-02 -5.470893e-02 -5.566339e-02 -5.500011e-02 -5.545806e-02 -5.420401e-02 -5.426684e-02 -5.255523e-02 -5.234128e-02 -5.031985e-02 -4.995953e-02 -4.778487e-02 -4.741458e-02 -4.524531e-02 -4.500036e-02 -4.298953e-02 -4.299632e-02 -4.128342e-02 -4.165150e-02 -4.035444e-02 -4.116887e-02 -4.037676e-02 -4.169160e-02 -4.145866e-02 -4.329210e-02 -4.363357e-02 -4.596522e-02 -4.685552e-02 -4.962617e-02 -5.099960e-02 -5.411362e-02 -5.586767e-02 -5.919771e-02 -6.119872e-02 -6.459250e-02 -6.668320e-02 -6.997167e-02 -7.198000e-02 -7.498631e-02 -7.673484e-02 -7.928337e-02 -8.059869e-02 -8.252358e-02 -8.324489e-02 -8.439757e-02 -8.438428e-02 -8.463977e-02 -8.377759e-02 -8.303927e-02 -8.124487e-02 -7.944791e-02 -7.667207e-02 -7.378544e-02 -7.001480e-02 -6.604217e-02 -6.129979e-02 -5.627935e-02 
-5.220332e-02 -4.610756e-02 -3.950053e-02 -3.250785e-02 -2.518368e-02 -1.742916e-02 -9.545778e-03 -1.190972e-03 7.068147e-03 1.583933e-02 2.427019e-02 3.325643e-02 4.164047e-02 5.062882e-02 5.873983e-02 6.751233e-02 7.512416e-02 8.346500e-02 9.035982e-02 9.806292e-02 1.040397e-01 1.109162e-01 1.157986e-01 1.216840e-01 1.253281e-01 1.300881e-01 1.323881e-01 1.359236e-01 1.368160e-01 1.390661e-01 1.385320e-01 1.394753e-01 1.375405e-01 1.371946e-01 1.339275e-01 1.323467e-01 1.278545e-01 1.251265e-01 1.195499e-01 1.157907e-01 1.092974e-01 1.046461e-01 9.742371e-02 9.203628e-02 8.428515e-02 7.832864e-02 7.025449e-02 6.390115e-02 5.570843e-02 4.913022e-02 4.101606e-02 3.437979e-02 2.652875e-02 1.999177e-02 1.257149e-02 6.278031e-03 -5.642664e-04 -6.486169e-03 -1.262641e-02 -1.806740e-02 -2.340671e-02 -2.827821e-02 -3.274435e-02 -3.698020e-02 -4.052862e-02 -4.408644e-02 -4.670081e-02 -4.956297e-02 -5.125538e-02 -5.342966e-02 -5.424036e-02 -5.576009e-02 -5.575665e-02 -5.668022e-02 -5.595600e-02 -5.636561e-02 -5.503737e-02 -5.503665e-02 -5.324111e-02 -5.295160e-02 -5.084080e-02 -5.039713e-02 -4.813259e-02 -4.767622e-02 -4.542198e-02 -4.509393e-02 -4.300866e-02 -4.294134e-02 -4.116993e-02 -4.147872e-02 -4.014391e-02 -4.091908e-02 -4.011376e-02 -4.141342e-02 -4.119424e-02 -4.303909e-02 -4.342201e-02 -4.579236e-02 -4.675069e-02 -4.958610e-02 -5.105125e-02 -5.425299e-02 -5.611793e-02 -5.955402e-02 -6.167927e-02 -6.519157e-02 -6.741320e-02 -7.082611e-02 -7.296505e-02 -7.609496e-02 -7.796691e-02 -8.063169e-02 -8.205687e-02 -8.408476e-02 -8.489691e-02 -8.613436e-02 -8.618844e-02 -8.650648e-02 -8.568492e-02 -8.498403e-02 -8.320133e-02 -8.141480e-02 -7.862060e-02 -7.571645e-02 -7.189720e-02 -6.787897e-02 -6.305838e-02 -5.796488e-02 
-5.415597e-02 -4.795514e-02 -4.123277e-02 -3.410178e-02 -2.662867e-02 -1.870665e-02 -1.064536e-02 -2.098735e-03 6.361597e-03 1.534315e-02 2.399182e-02 3.320039e-02 4.181116e-02 5.102647e-02 5.936470e-02 6.836089e-02 7.619150e-02 8.474464e-02 9.184077e-02 9.973683e-02 1.058887e-01 1.129315e-01 1.179553e-01 1.239738e-01 1.277191e-01 1.325744e-01 1.349308e-01 1.385205e-01 1.394222e-01 1.416843e-01 1.411122e-01 1.420258e-01 1.400077e-01 1.395930e-01 1.362012e-01 1.345166e-01 1.298639e-01 1.270021e-01 1.212361e-01 1.173194e-01 1.106153e-01 1.057892e-01 9.834276e-02 9.277011e-02 8.478941e-02 7.864386e-02 7.034222e-02 6.380223e-02 5.539098e-02 4.863421e-02 4.031657e-02 3.351484e-02 2.548055e-02 1.879556e-02 1.121653e-02 4.796160e-03 -2.176962e-03 -8.201671e-03 -1.444218e-02 -1.995947e-02 -2.536653e-02 -3.028595e-02 -3.478599e-02 -3.904005e-02 -4.258771e-02 -4.613325e-02 -4.871197e-02 -5.153118e-02 -5.315343e-02 -5.525462e-02 -5.596174e-02 -5.737965e-02 -5.724120e-02 -5.803671e-02 -5.714910e-02 -5.740808e-02 -5.589240e-02 -5.572353e-02 -5.372217e-02 -5.325346e-02 -5.092554e-02 -5.029932e-02 -4.781474e-02 -4.718127e-02 -4.471348e-02 -4.422317e-02 -4.194081e-02 -4.173550e-02 -3.979341e-02 -3.999722e-02 -3.852736e-02 -3.923791e-02 -3.834088e-02 -3.962153e-02 -3.935948e-02 -4.123356e-02 -4.162520e-02 -4.407270e-02 -4.509099e-02 -4.804816e-02 -4.962103e-02 -5.298310e-02 -5.499715e-02 -5.862379e-02 -6.093081e-02 -6.465395e-02 -6.707964e-02 -7.071296e-02 -7.306700e-02 -7.641612e-02 -7.850298e-02 -8.137566e-02 -8.300501e-02 -8.522060e-02 -8.621685e-02 -8.761444e-02 -8.782485e-02 -8.826984e-02 -8.757088e-02 -8.695983e-02 -8.526182e-02 -8.352568e-02 -8.077573e-02 -7.788161e-02 -7.406513e-02 -7.001689e-02 -6.515788e-02 -5.999569e-02 
-5.667049e-02 -5.031763e-02 -4.339770e-02 -3.607545e-02 -2.836659e-02 -2.021834e-02 -1.188866e-02 -3.086218e-03 5.668339e-03 1.492881e-02 2.388951e-02 3.339243e-02 4.232383e-02 5.184024e-02 6.049750e-02 6.979205e-02 7.792920e-02 8.676806e-02 9.414722e-02 1.023065e-01 1.087073e-01 1.159815e-01 1.212106e-01 1.274207e-01 1.313201e-01 1.363207e-01 1.387744e-01 1.424589e-01 1.433983e-01 1.457027e-01 1.451085e-01 1.460124e-01 1.439150e-01 1.434409e-01 1.399175e-01 1.381282e-01 1.332986e-01 1.302928e-01 1.243128e-01 1.202194e-01 1.132735e-01 1.082457e-01 1.005389e-01 9.474710e-02 8.649704e-02 8.012241e-02 7.155110e-02 6.477913e-02 5.610580e-02 4.912055e-02 4.055527e-02 3.353420e-02 2.527244e-02 1.838212e-02 1.060040e-02 3.992810e-03 -3.154641e-03 -9.345014e-03 -1.572883e-02 -2.138736e-02 -2.690481e-02 -3.193868e-02 -3.651495e-02 -4.085470e-02 -4.444381e-02 -4.804469e-02 -5.062998e-02 -5.347305e-02 -5.506753e-02 -5.716052e-02 -5.780679e-02 -5.918460e-02 -5.895439e-02 -5.967904e-02 -5.867200e-02 -5.883179e-02 -5.717348e-02 -5.688102e-02 -5.471968e-02 -5.410852e-02 -5.161050e-02 -5.083023e-02 -4.817388e-02 -4.738349e-02 -4.475163e-02 -4.411131e-02 -4.168242e-02 -4.134430e-02 -3.928283e-02 -3.938101e-02 -3.782761e-02 -3.846852e-02 -3.753076e-02 -3.878461e-02 -3.852923e-02 -4.042346e-02 -4.087086e-02 -4.338640e-02 -4.450803e-02 -4.757875e-02 -4.929783e-02 -5.281340e-02 -5.500897e-02 -5.882080e-02 -6.133479e-02 -6.526460e-02 -6.791135e-02 -7.176146e-02 -7.433867e-02 -7.790311e-02 -8.020346e-02 -8.327895e-02 -8.510128e-02 -8.749733e-02 -8.865672e-02 -9.020418e-02 -9.054038e-02 -9.109822e-02 -9.048214e-02 -8.994233e-02 -8.828061e-02 -8.657122e-02 -8.380904e-02 -8.089586e-02 -7.701823e-02 -7.290510e-02 -6.793695e-02 -6.266520e-02 
-5.961045e-02 -5.309677e-02 -4.599460e-02 -3.846277e-02 -3.052235e-02 -2.212145e-02 -1.351759e-02 -4.426359e-03 4.636807e-03 1.421391e-02 2.350787e-02 3.334569e-02 4.262375e-02 5.248253e-02 6.148730e-02 7.111995e-02 7.959211e-02 8.875260e-02 9.644061e-02 1.048929e-01 1.115634e-01 1.190908e-01 1.245385e-01 1.309524e-01 1.350095e-01 1.401570e-01 1.427009e-01 1.464707e-01 1.474290e-01 1.497550e-01 1.491084e-01 1.499712e-01 1.477531e-01 1.471793e-01 1.434731e-01 1.415313e-01 1.364653e-01 1.332621e-01 1.270025e-01 1.226762e-01 1.154190e-01 1.101323e-01 1.020945e-01 9.602806e-02 8.743907e-02 8.078365e-02 7.187656e-02 6.482682e-02 5.583096e-02 4.857917e-02 3.971338e-02 3.244426e-02 2.391140e-02 1.679769e-02 8.780318e-03 1.979174e-03 -5.363771e-03 -1.171360e-02 -1.824915e-02 -2.402962e-02 -2.965240e-02 -3.476798e-02 -3.940138e-02 -4.378059e-02 -4.737750e-02 -5.097422e-02 -5.351762e-02 -5.631233e-02 -5.781561e-02 -5.981637e-02 -6.032349e-02 -6.156673e-02 -6.115197e-02 -6.170275e-02 -6.046984e-02 -6.042127e-02 -5.850165e-02 -5.797320e-02 -5.552306e-02 -5.465732e-02 -5.185307e-02 -5.081077e-02 -4.784288e-02 -4.679588e-02 -4.386093e-02 -4.298346e-02 -4.027468e-02 -3.973312e-02 -3.742982e-02 -3.737170e-02 -3.562835e-02 -3.617152e-02 -3.510731e-02 -3.633028e-02 -3.602026e-02 -3.795482e-02 -3.842349e-02 -4.105037e-02 -4.226855e-02 -4.551682e-02 -4.740233e-02 -5.115256e-02 -5.357462e-02 -5.766568e-02 -6.045284e-02 -6.469146e-02 -6.764222e-02 -7.181456e-02 -7.470969e-02 -7.859364e-02 -8.120897e-02 -8.458624e-02 -8.670502e-02 -8.937202e-02 -9.079579e-02 -9.257271e-02 -9.313019e-02 -9.386795e-02 -9.342176e-02 -9.300687e-02 -9.145801e-02 -8.981543e-02 -8.710585e-02 -8.420026e-02 -8.031387e-02 -7.614973e-02 -7.111218e-02 -6.573287e-02 
-6.314541e-02 -5.642362e-02 -4.905443e-02 -4.125916e-02 -3.299745e-02 -2.428360e-02 -1.531167e-02 -5.865351e-03 3.603412e-03 1.356878e-02 2.329478e-02 3.354337e-02 4.326704e-02 5.354686e-02 6.299635e-02 7.304682e-02 8.194723e-02 9.150803e-02 9.959190e-02 1.084127e-01 1.154312e-01 1.232820e-01 1.290160e-01 1.356962e-01 1.399667e-01 1.453144e-01 1.479906e-01 1.518883e-01 1.528938e-01 1.552729e-01 1.545883e-01 1.554302e-01 1.530929e-01 1.524278e-01 1.485285e-01 1.464319e-01 1.411091e-01 1.376962e-01 1.311283e-01 1.265475e-01 1.189436e-01 1.133687e-01 1.049598e-01 9.858228e-02 8.961102e-02 8.263249e-02 7.334449e-02 6.596954e-02 5.660525e-02 4.903514e-02 3.982297e-02 3.225023e-02 2.340093e-02 1.600496e-02 7.707337e-03 6.508396e-04 -6.931364e-03 -1.350507e-02 -2.023536e-02 -2.620447e-02 -3.197500e-02 -3.724086e-02 -4.197339e-02 -4.646193e-02 -5.010846e-02 -5.377147e-02 -5.631476e-02 -5.913112e-02 -6.058514e-02 -6.256204e-02 -6.297227e-02 -6.414624e-02 -6.358970e-02 -6.402724e-02 -6.261193e-02 -6.240942e-02 -6.027290e-02 -5.955524e-02 -5.686185e-02 -5.577956e-02 -5.271602e-02 -5.144027e-02 -4.820933e-02 -4.692474e-02 -4.373681e-02 -4.263212e-02 -3.969511e-02 -3.895204e-02 -3.645981e-02 -3.624088e-02 -3.436120e-02 -3.479753e-02 -3.366045e-02 -3.484086e-02 -3.452874e-02 -3.649122e-02 -3.703147e-02 -3.975811e-02 -4.111962e-02 -4.453577e-02 -4.662955e-02 -5.060728e-02 -5.329134e-02 -5.765694e-02 -6.074516e-02 -6.528992e-02 -6.856386e-02 -7.305690e-02 -7.627950e-02 -8.048150e-02 -8.341120e-02 -8.708768e-02 -8.949186e-02 -9.242500e-02 -9.409169e-02 -9.608999e-02 -9.683721e-02 -9.774270e-02 -9.742528e-02 -9.711830e-02 -9.563223e-02 -9.403406e-02 -9.131876e-02 -8.839256e-02 -8.443152e-02 -8.018202e-02 -7.500227e-02 -6.947464e-02 
-6.718043e-02 -6.023758e-02 -5.261403e-02 -4.453219e-02 -3.594962e-02 -2.689101e-02 -1.754040e-02 -7.700050e-03 2.194496e-03 1.259236e-02 2.277835e-02 3.348522e-02 4.368799e-02 5.443733e-02 6.436801e-02 7.488320e-02 8.424847e-02 9.425230e-02 1.027657e-01 1.119910e-01 1.193852e-01 1.275860e-01 1.336253e-01 1.405876e-01 1.450793e-01 1.506303e-01 1.534341e-01 1.574498e-01 1.584841e-01 1.608933e-01 1.601388e-01 1.609246e-01 1.584231e-01 1.576211e-01 1.534723e-01 1.511666e-01 1.455211e-01 1.418382e-01 1.348890e-01 1.299899e-01 1.219623e-01 1.160344e-01 1.071758e-01 1.004244e-01 9.099369e-02 8.363352e-02 7.389135e-02 6.613924e-02 5.633958e-02 4.840771e-02 3.879056e-02 3.088096e-02 2.166668e-02 1.396672e-02 5.351770e-03 -1.969203e-03 -9.815196e-03 -1.660848e-02 -2.354462e-02 -2.968404e-02 -3.559933e-02 -4.098276e-02 -4.579675e-02 -5.034737e-02 -5.401069e-02 -5.767827e-02 -6.017305e-02 -6.293532e-02 -6.427577e-02 -6.613980e-02 -6.637275e-02 -6.737643e-02 -6.658173e-02 -6.679481e-02 -6.508526e-02 -6.460980e-02 -6.213019e-02 -6.109966e-02 -5.802442e-02 -5.660105e-02 -5.313010e-02 -5.149992e-02 -4.785220e-02 -4.621746e-02 -4.262216e-02 -4.119113e-02 -3.787661e-02 -3.685120e-02 -3.403217e-02 -3.359416e-02 -3.145800e-02 -3.175513e-02 -3.044854e-02 -3.158187e-02 -3.119920e-02 -3.321327e-02 -3.378793e-02 -3.666488e-02 -3.816496e-02 -4.182346e-02 -4.415218e-02 -4.845145e-02 -5.145275e-02 -5.620123e-02 -5.966979e-02 -6.463747e-02 -6.833233e-02 -7.326552e-02 -7.692564e-02 -8.156246e-02 -8.492278e-02 -8.900798e-02 -9.181444e-02 -9.511242e-02 -9.713475e-02 -9.943982e-02 -1.004816e-01 -1.016254e-01 -1.015308e-01 -1.013869e-01 -1.000450e-01 -9.853116e-02 -9.587790e-02 -9.295622e-02 -8.897415e-02 -8.465058e-02 -7.936812e-02 -7.369073e-02 
-7.185579e-02 -6.464427e-02 -5.667834e-02 -4.825501e-02 -3.925809e-02 -2.979245e-02 -1.996483e-02 -9.661138e-03 7.614637e-04 1.166761e-02 2.241854e-02 3.366484e-02 4.445267e-02 5.575652e-02 6.627318e-02 7.733989e-02 8.727109e-02 9.780412e-02 1.068416e-01 1.165542e-01 1.244094e-01 1.330371e-01 1.394551e-01 1.467676e-01 1.515400e-01 1.573521e-01 1.603273e-01 1.645068e-01 1.655980e-01 1.680702e-01 1.672580e-01 1.680075e-01 1.653396e-01 1.644079e-01 1.599943e-01 1.574750e-01 1.514806e-01 1.475122e-01 1.401468e-01 1.349046e-01 1.264119e-01 1.200982e-01 1.107442e-01 1.035791e-01 9.364071e-02 8.585336e-02 7.560788e-02 6.742832e-02 5.714430e-02 4.879640e-02 3.872620e-02 3.042200e-02 2.079599e-02 1.273126e-02 3.753668e-03 -3.895411e-03 -1.204915e-02 -1.912833e-02 -2.631317e-02 -3.269177e-02 -3.879382e-02 -4.436599e-02 -4.930293e-02 -5.398869e-02 -5.771001e-02 -6.145645e-02 -6.394390e-02 -6.672653e-02 -6.799475e-02 -6.981918e-02 -6.991649e-02 -7.082028e-02 -6.982954e-02 -6.988377e-02 -6.792278e-02 -6.723320e-02 -6.445425e-02 -6.316101e-02 -5.974896e-02 -5.802448e-02 -5.419276e-02 -5.223697e-02 -4.822107e-02 -4.625358e-02 -4.230169e-02 -4.055091e-02 -3.691187e-02 -3.560127e-02 -3.251045e-02 -3.184312e-02 -2.950699e-02 -2.964975e-02 -2.823084e-02 -2.929963e-02 -2.890315e-02 -3.095152e-02 -3.161552e-02 -3.462763e-02 -3.631783e-02 -4.020705e-02 -4.281726e-02 -4.743057e-02 -5.078900e-02 -5.591682e-02 -5.979744e-02 -6.518772e-02 -6.932568e-02 -7.470066e-02 -7.880994e-02 -8.388369e-02 -8.767508e-02 -9.217008e-02 -9.536783e-02 -9.902927e-02 -1.013850e-01 -1.039918e-01 -1.052950e-01 -1.066675e-01 -1.067526e-01 -1.067569e-01 -1.055069e-01 -1.040565e-01 -1.014045e-01 -9.846032e-02 -9.438871e-02 -8.995750e-02 -8.449679e-02 -7.862918e-02 
-7.713045e-02 -6.963179e-02 -6.133255e-02 -5.253837e-02 -4.312259e-02 -3.321110e-02 -2.288958e-02 -1.207582e-02 -1.097353e-03 1.036987e-02 2.172260e-02 3.356511e-02 4.498152e-02 5.689807e-02 6.804804e-02 7.972301e-02 9.026792e-02 1.013823e-01 1.109884e-01 1.212327e-01 1.295865e-01 1.386746e-01 1.454985e-01 1.531816e-01 1.582483e-01 1.643270e-01 1.674721e-01 1.718049e-01 1.729348e-01 1.754441e-01 1.745398e-01 1.752126e-01 1.723282e-01 1.712139e-01 1.664718e-01 1.636758e-01 1.572577e-01 1.529338e-01 1.450694e-01 1.394099e-01 1.303645e-01 1.235899e-01 1.136514e-01 1.059999e-01 9.546644e-02 8.718433e-02 7.635277e-02 6.768568e-02 5.684181e-02 4.802740e-02 3.743812e-02 2.870018e-02 1.860759e-02 1.015161e-02 7.690820e-04 -7.220847e-03 -1.571110e-02 -2.307438e-02 -3.052240e-02 -3.712323e-02 -4.341170e-02 -4.914006e-02 -5.418423e-02 -5.895673e-02 -6.270447e-02 -6.646543e-02 -6.889755e-02 -7.162049e-02 -7.275146e-02 -7.444107e-02 -7.432018e-02 -7.501470e-02 -7.372744e-02 -7.350096e-02 -7.117014e-02 -7.013450e-02 -6.692059e-02 -6.522591e-02 -6.132579e-02 -5.915889e-02 -5.480236e-02 -5.238215e-02 -4.782545e-02 -4.539474e-02 -4.091073e-02 -3.872422e-02 -3.458919e-02 -3.289808e-02 -2.937583e-02 -2.841005e-02 -2.573425e-02 -2.568405e-02 -2.404055e-02 -2.503944e-02 -2.455050e-02 -2.666166e-02 -2.737401e-02 -3.058203e-02 -3.246051e-02 -3.666970e-02 -3.959745e-02 -4.463701e-02 -4.842258e-02 -5.405814e-02 -5.844881e-02 -6.439892e-02 -6.909863e-02 -7.505422e-02 -7.974409e-02 -8.538866e-02 -8.974774e-02 -9.477615e-02 -9.850024e-02 -1.026345e-01 -1.054516e-01 -1.084529e-01 -1.101343e-01 -1.118103e-01 -1.121779e-01 -1.123871e-01 -1.113163e-01 -1.099686e-01 -1.073889e-01 -1.044450e-01 -1.003386e-01 -9.580737e-02 -9.020732e-02 -8.414334e-02 
-8.310392e-02 -7.527037e-02 -6.654605e-02 -5.732502e-02 -4.739250e-02 -3.697069e-02 -2.605159e-02 -1.465481e-02 -3.011658e-03 9.097637e-03 2.116499e-02 3.369171e-02 4.585179e-02 5.847440e-02 7.037260e-02 8.275215e-02 9.402246e-02 1.058145e-01 1.160942e-01 1.269631e-01 1.359102e-01 1.455449e-01 1.528555e-01 1.609855e-01 1.664112e-01 1.728200e-01 1.761813e-01 1.807170e-01 1.819132e-01 1.844939e-01 1.835066e-01 1.841221e-01 1.810136e-01 1.797215e-01 1.746288e-01 1.715480e-01 1.646720e-01 1.599730e-01 1.515662e-01 1.454601e-01 1.358123e-01 1.285392e-01 1.179630e-01 1.097808e-01 9.859770e-02 8.977114e-02 7.829918e-02 6.909066e-02 5.763409e-02 4.829583e-02 3.713677e-02 2.790481e-02 1.729739e-02 8.387197e-03 -1.446219e-03 -9.842614e-03 -1.871333e-02 -2.642907e-02 -3.418268e-02 -4.107701e-02 -4.759321e-02 -5.355198e-02 -5.874407e-02 -6.368027e-02 -6.749486e-02 -7.134947e-02 -7.376667e-02 -7.651020e-02 -7.754448e-02 -7.917917e-02 -7.888091e-02 -7.944363e-02 -7.790109e-02 -7.746650e-02 -7.480772e-02 -7.349112e-02 -6.988504e-02 -6.784398e-02 -6.349996e-02 -6.093350e-02 -5.609822e-02 -5.324284e-02 -4.819385e-02 -4.531511e-02 -4.035037e-02 -3.772999e-02 -3.315351e-02 -3.107221e-02 -2.717616e-02 -2.589347e-02 -2.293821e-02 -2.267122e-02 -2.086503e-02 -2.176836e-02 -2.124926e-02 -2.339902e-02 -2.422081e-02 -2.760469e-02 -2.972946e-02 -3.424441e-02 -3.754261e-02 -4.300071e-02 -4.725926e-02 -5.340095e-02 -5.833852e-02 -6.485171e-02 -7.013938e-02 -7.668186e-02 -8.196667e-02 -8.818928e-02 -9.311777e-02 -9.868570e-02 -1.029250e-01 -1.075354e-01 -1.107903e-01 -1.141850e-01 -1.162094e-01 -1.181825e-01 -1.187867e-01 -1.191884e-01 -1.182412e-01 -1.169775e-01 -1.144060e-01 -1.114369e-01 -1.072240e-01 -1.025602e-01 -9.674200e-02 -9.044174e-02 
-8.980272e-02 -8.160890e-02 -7.246402e-02 -6.277908e-02 -5.231922e-02 -4.133967e-02 -2.979835e-02 -1.776223e-02 -5.417085e-03 7.397799e-03 2.022792e-02 3.350739e-02 4.646761e-02 5.986708e-02 7.257506e-02 8.572887e-02 9.778721e-02 1.103216e-01 1.213342e-01 1.328833e-01 1.424746e-01 1.526988e-01 1.605345e-01 1.691381e-01 1.749444e-01 1.816918e-01 1.852721e-01 1.899996e-01 1.912443e-01 1.938665e-01 1.927580e-01 1.932686e-01 1.898790e-01 1.883465e-01 1.828295e-01 1.793892e-01 1.719687e-01 1.668114e-01 1.577663e-01 1.511259e-01 1.407743e-01 1.329145e-01 1.215976e-01 1.127994e-01 1.008659e-01 9.141577e-02 7.920852e-02 6.938827e-02 5.723277e-02 4.731145e-02 3.550737e-02 2.573498e-02 1.455021e-02 5.153524e-03 -5.179308e-03 -1.399936e-02 -2.328428e-02 -3.135383e-02 -3.943147e-02 -4.660418e-02 -5.335089e-02 -5.950798e-02 -6.483473e-02 -6.988516e-02 -7.373681e-02 -7.761794e-02 -7.997320e-02 -8.265241e-02 -8.352484e-02 -8.500212e-02 -8.444215e-02 -8.475368e-02 -8.285129e-02 -8.207366e-02 -7.896135e-02 -7.721563e-02 -7.307074e-02 -7.052528e-02 -6.557065e-02 -6.244144e-02 -5.694321e-02 -5.349024e-02 -4.775177e-02 -4.427041e-02 -3.862137e-02 -3.542815e-02 -3.020873e-02 -2.762186e-02 -2.316259e-02 -2.147859e-02 -1.807708e-02 -1.754579e-02 -1.544286e-02 -1.624379e-02 -1.560156e-02 -1.782482e-02 -1.870975e-02 -2.234414e-02 -2.471758e-02 -2.964785e-02 -3.336577e-02 -3.937957e-02 -4.420183e-02 -5.100550e-02 -5.661399e-02 -6.385516e-02 -6.987822e-02 -7.717227e-02 -8.321245e-02 -9.016945e-02 -9.583106e-02 -1.020802e-01 -1.069935e-01 -1.122026e-01 -1.160426e-01 -1.199318e-01 -1.224309e-01 -1.247802e-01 -1.257343e-01 -1.263861e-01 -1.256564e-01 -1.245141e-01 -1.220253e-01 -1.190500e-01 -1.147863e-01 -1.099924e-01 -1.039937e-01 -9.744484e-02 
-9.727299e-02 -8.867138e-02 -7.901019e-02 -6.880455e-02 -5.771471e-02 -4.611072e-02 -3.383750e-02 -2.108504e-02 -7.921399e-03 5.686278e-03 1.940162e-02 3.353038e-02 4.741741e-02 6.169784e-02 7.534369e-02 8.938062e-02 1.023528e-01 1.157394e-01 1.276038e-01 1.399398e-01 1.502827e-01 1.611950e-01 1.696469e-01 1.788108e-01 1.850693e-01 1.922267e-01 1.960751e-01 2.010485e-01 2.023683e-01 2.050678e-01 2.038429e-01 2.042665e-01 2.005806e-01 1.988093e-01 1.928362e-01 1.890233e-01 1.810131e-01 1.753720e-01 1.656340e-01 1.584235e-01 1.473079e-01 1.388173e-01 1.266970e-01 1.172325e-01 1.044860e-01 9.435732e-02 8.135411e-02 7.086379e-02 5.795194e-02 4.738662e-02 3.488395e-02 2.450805e-02 1.269621e-02 2.747840e-03 -8.130677e-03 -1.744190e-02 -2.718451e-02 -3.567819e-02 -4.412133e-02 -5.164609e-02 -5.866352e-02 -6.509639e-02 -7.059739e-02 -7.584346e-02 -7.977156e-02 -8.376425e-02 -8.609705e-02 -8.879961e-02 -8.954989e-02 -9.095832e-02 -9.017654e-02 -9.032386e-02 -8.810179e-02 -8.706337e-02 -8.353813e-02 -8.143723e-02 -7.679492e-02 -7.380718e-02 -6.828469e-02 -6.463992e-02 -5.852365e-02 -5.450323e-02 -4.812319e-02 -4.405151e-02 -3.776991e-02 -3.399914e-02 -2.819294e-02 -2.508123e-02 -2.011943e-02 -1.800407e-02 -1.422114e-02 -1.338944e-02 -1.105772e-02 -1.171907e-02 -1.102324e-02 -1.328627e-02 -1.430348e-02 -1.816169e-02 -2.085027e-02 -2.617843e-02 -3.037737e-02 -3.693935e-02 -4.237901e-02 -4.984621e-02 -5.616925e-02 -6.414705e-02 -7.093699e-02 -7.899559e-02 -8.580892e-02 -9.351464e-02 -9.991255e-02 -1.068557e-01 -1.124315e-01 -1.182485e-01 -1.226480e-01 -1.270357e-01 -1.299708e-01 -1.326939e-01 -1.339479e-01 -1.348405e-01 -1.342686e-01 -1.332314e-01 -1.307570e-01 -1.277519e-01 -1.233617e-01 -1.184066e-01 -1.121449e-01 -1.053085e-01 
-1.056238e-01 -9.658068e-02 -8.640220e-02 -7.562973e-02 -6.389211e-02 -5.160625e-02 -3.856738e-02 -2.503092e-02 -1.100012e-02 3.476767e-03 1.813925e-02 3.320040e-02 4.808691e-02 6.333505e-02 7.799855e-02 9.300507e-02 1.069731e-01 1.212933e-01 1.340881e-01 1.472819e-01 1.584452e-01 1.701011e-01 1.792223e-01 1.889819e-01 1.957249e-01 2.033048e-01 2.074296e-01 2.126371e-01 2.140144e-01 2.167555e-01 2.153711e-01 2.156506e-01 2.116019e-01 2.095159e-01 2.030002e-01 1.987246e-01 1.900225e-01 1.837977e-01 1.732535e-01 1.653680e-01 1.533689e-01 1.441425e-01 1.310981e-01 1.208662e-01 1.071894e-01 9.628875e-02 8.237964e-02 7.113650e-02 5.736900e-02 4.608996e-02 3.280248e-02 2.176806e-02 9.257752e-03 -1.281408e-03 -1.276119e-02 -2.258599e-02 -3.282556e-02 -4.174845e-02 -5.057989e-02 -5.844390e-02 -6.573836e-02 -7.241581e-02 -7.808075e-02 -8.347225e-02 -8.744950e-02 -9.148392e-02 -9.374914e-02 -9.638511e-02 -9.694899e-02 -9.817818e-02 -9.708951e-02 -9.694187e-02 -9.429220e-02 -9.284274e-02 -8.877192e-02 -8.614806e-02 -8.084962e-02 -7.723765e-02 -7.096256e-02 -6.661123e-02 -5.966810e-02 -5.488711e-02 -4.763723e-02 -4.278872e-02 -3.563440e-02 -3.111617e-02 -2.448174e-02 -2.070241e-02 -1.500828e-02 -1.235593e-02 -7.987626e-03 -6.795309e-03 -4.070526e-03 -4.582930e-03 -3.720604e-03 -6.066630e-03 -7.162438e-03 -1.133788e-02 -1.435000e-02 -2.021317e-02 -2.496101e-02 -3.224219e-02 -3.841889e-02 -4.674249e-02 -5.394003e-02 -6.285631e-02 -7.059966e-02 -7.962148e-02 -8.740712e-02 -9.604673e-02 -1.033800e-01 -1.111813e-01 -1.176082e-01 -1.241713e-01 -1.293014e-01 -1.342980e-01 -1.378181e-01 -1.409978e-01 -1.426766e-01 -1.438671e-01 -1.435535e-01 -1.426551e-01 -1.402725e-01 -1.372510e-01 -1.327898e-01 -1.276692e-01 -1.211799e-01 -1.140360e-01 
-1.148340e-01 -1.053027e-01 -9.450747e-02 -8.311124e-02 -7.061860e-02 -5.758232e-02 -4.366188e-02 -2.926024e-02 -1.423725e-02 1.203133e-03 1.694659e-02 3.304701e-02 4.907398e-02 6.540751e-02 8.123370e-02 9.733492e-02 1.124432e-01 1.278249e-01 1.416877e-01 1.558640e-01 1.679724e-01 1.804871e-01 1.903830e-01 2.008386e-01 2.081468e-01 2.162302e-01 2.206846e-01 2.261856e-01 2.276451e-01 2.304649e-01 2.289189e-01 2.290698e-01 2.246325e-01 2.222282e-01 2.151246e-01 2.103661e-01 2.009122e-01 1.940700e-01 1.826503e-01 1.740455e-01 1.610887e-01 1.510743e-01 1.370307e-01 1.259736e-01 1.112938e-01 9.955973e-02 8.467644e-02 7.261684e-02 5.793111e-02 4.587337e-02 3.174458e-02 1.998566e-02 6.726082e-03 -4.471042e-03 -1.659805e-02 -2.700541e-02 -3.778421e-02 -4.720805e-02 -5.646762e-02 -6.474653e-02 -7.235651e-02 -7.935911e-02 -8.522603e-02 -9.084918e-02 -9.491372e-02 -9.908181e-02 -1.013179e-01 -1.039841e-01 -1.044004e-01 -1.055501e-01 -1.041935e-01 -1.038506e-01 -1.008123e-01 -9.904718e-02 -9.446979e-02 -9.140931e-02 -8.549418e-02 -8.133023e-02 -7.434312e-02 -6.933887e-02 -6.161173e-02 -5.610196e-02 -4.802873e-02 -4.241194e-02 -3.443643e-02 -2.915702e-02 -2.175195e-02 -1.727230e-02 -1.091001e-02 -7.674333e-03 -2.791088e-03 -1.184837e-03 1.857474e-03 1.547285e-03 2.497365e-03 1.151736e-04 -1.138727e-03 -5.595915e-03 -9.008973e-03 -1.538587e-02 -2.075483e-02 -2.874871e-02 -3.572636e-02 -4.491311e-02 -5.303762e-02 -6.290917e-02 -7.164426e-02 -8.165195e-02 -9.043196e-02 -1.000296e-01 -1.083030e-01 -1.169843e-01 -1.242497e-01 -1.315757e-01 -1.374074e-01 -1.430226e-01 -1.470843e-01 -1.507227e-01 -1.527707e-01 -1.542531e-01 -1.541325e-01 -1.533591e-01 -1.509948e-01 -1.479355e-01 -1.433231e-01 -1.380076e-01 -1.312044e-01 -1.237156e-01 