# vtk DataFile Version 2.0
Comment goes here
ASCII

DATASET STRUCTURED_POINTS
FIELD FieldData 1
TIME 1 1 double
0.04500000
DIMENSIONS    128   128   1

ORIGIN    0.000   0.000   0.000
SPACING   0.039062 0.039062   1.000

POINT_DATA   16384
SCALARS uX double
LOOKUP_TABLE default

6.812728e-01 7.103689e-01 7.435171e-01 7.697722e-01 8.005082e-01 8.238405e-01 8.520312e-01 8.723380e-01 8.978264e-01 9.149834e-01 9.375888e-01 9.514517e-01 9.709724e-01 9.813797e-01 9.975980e-01 1.004377e+00 1.017065e+00 1.020037e+00 1.028966e+00 1.027957e+00 1.032904e+00 1.027751e+00 1.028509e+00 1.019071e+00 1.015458e+00 1.001622e+00 9.934886e-01 9.751786e-01 9.624160e-01 9.396017e-01 9.221443e-01 8.948445e-01 8.726763e-01 8.409634e-01 8.141194e-01 7.781217e-01 7.466897e-01 7.065930e-01 6.707140e-01 6.267617e-01 5.866304e-01 5.391229e-01 4.949887e-01 4.442831e-01 3.964503e-01 3.429595e-01 2.917894e-01 2.359814e-01 1.818943e-01 1.242916e-01 6.776799e-02 8.946535e-03 -4.947050e-02 -1.088831e-01 -1.685881e-01 -2.279157e-01 -2.882421e-01 -3.467644e-01 -4.069889e-01 -4.639493e-01 -5.232988e-01 -5.779144e-01 -6.355769e-01 -6.870514e-01 -7.421910e-01 -7.897315e-01 -8.415058e-01 -8.843420e-01 -9.319236e-01 -9.693291e-01 -1.011929e+00 -1.043244e+00 -1.080137e+00 -1.104791e+00 -1.135338e+00 -1.152874e+00 -1.176546e+00 -1.186636e+00 -1.203038e+00 -1.205500e+00 -1.214383e+00 -1.209192e+00 -1.210463e+00 -1.197755e+00 -1.191487e+00 -1.171554e+00 -1.157978e+00 -1.131264e+00 -1.110764e+00 -1.077841e+00 -1.050936e+00 -1.012490e+00 -9.798129e-01 -9.366129e-01 -8.988836e-01 -8.517530e-01 -8.097505e-01 -7.595374e-01 -7.140680e-01 -6.616155e-01 -6.134832e-01 -5.596022e-01 -5.095819e-01 -4.550287e-01 -4.038433e-01 -3.493023e-01 -2.976052e-01 -2.436766e-01 -1.920408e-01 -1.392353e-01 -8.814756e-02 -3.688592e-02 1.325245e-02 6.263542e-02 1.115036e-01 1.587506e-01 2.060993e-01 2.510197e-01 2.966599e-01 3.391176e-01 3.829072e-01 4.228068e-01 4.646376e-01 5.019118e-01 5.416959e-01 5.762929e-01 6.139507e-01 6.458233e-01 
6.817127e-01 7.107643e-01 7.439328e-01 7.701491e-01 8.009107e-01 8.242112e-01 8.524335e-01 8.727167e-01 8.982429e-01 9.153852e-01 9.380346e-01 9.518916e-01 9.714625e-01 9.818724e-01 9.981466e-01 1.004936e+00 1.017685e+00 1.020674e+00 1.029668e+00 1.028680e+00 1.033696e+00 1.028567e+00 1.029397e+00 1.019981e+00 1.016442e+00 1.002625e+00 9.945664e-01 9.762694e-01 9.635808e-01 9.407709e-01 9.233854e-01 8.960790e-01 8.739789e-01 8.422463e-01 8.154650e-01 7.794331e-01 7.480567e-01 7.079102e-01 6.720780e-01 6.280597e-01 5.879646e-01 5.403753e-01 4.962646e-01 4.454621e-01 3.976387e-01 3.440372e-01 2.928607e-01 2.369300e-01 1.828192e-01 1.250840e-01 6.851873e-02 9.557358e-03 -4.891990e-02 -1.084771e-01 -1.682608e-01 -2.277346e-01 -2.881575e-01 -3.468248e-01 -4.071622e-01 -4.642631e-01 -5.237398e-01 -5.784880e-01 -6.362895e-01 -6.878856e-01 -7.431724e-01 -7.908203e-01 -8.427461e-01 -8.856721e-01 -9.334056e-01 -9.708803e-01 -1.013628e+00 -1.044989e+00 -1.082020e+00 -1.106695e+00 -1.137367e+00 -1.154895e+00 -1.178678e+00 -1.188730e+00 -1.205223e+00 -1.207618e+00 -1.216569e+00 -1.211283e+00 -1.212600e+00 -1.199769e+00 -1.193523e+00 -1.173444e+00 -1.159868e+00 -1.132986e+00 -1.112466e+00 -1.079361e+00 -1.052418e+00 -1.013780e+00 -9.810509e-01 -9.376556e-01 -8.998640e-01 -8.525412e-01 -8.104702e-01 -7.600740e-01 -7.145338e-01 -6.619127e-01 -6.137109e-01 -5.596803e-01 -5.095948e-01 -4.549144e-01 -4.036704e-01 -3.490263e-01 -2.972786e-01 -2.432722e-01 -1.915943e-01 -1.387355e-01 -8.761428e-02 -3.632249e-02 1.384155e-02 6.323378e-02 1.121209e-01 1.593592e-01 2.067217e-01 2.516186e-01 2.972690e-01 3.396917e-01 3.834897e-01 4.233464e-01 4.651853e-01 5.024120e-01 5.422054e-01 5.767532e-01 6.144230e-01 6.462475e-01 
6.838119e-01 7.129403e-01 7.461438e-01 7.724401e-01 8.032423e-01 8.266261e-01 8.548952e-01 8.752642e-01 9.008428e-01 9.180722e-01 9.407783e-01 9.547219e-01 9.743515e-01 9.848454e-01 1.001177e+00 1.008045e+00 1.020848e+00 1.023908e+00 1.032947e+00 1.032020e+00 1.037070e+00 1.031989e+00 1.032838e+00 1.023456e+00 1.019917e+00 1.006118e+00 9.980405e-01 9.797459e-01 9.670157e-01 9.441920e-01 9.267428e-01 8.994068e-01 8.772210e-01 8.454438e-01 8.185560e-01 7.824654e-01 7.509628e-01 7.107445e-01 6.747680e-01 6.306653e-01 5.904095e-01 5.427233e-01 4.984367e-01 4.475245e-01 3.995110e-01 3.457860e-01 2.944059e-01 2.383365e-01 1.840088e-01 1.261180e-01 6.932289e-02 1.018751e-02 -4.853235e-02 -1.082832e-01 -1.683215e-01 -2.280091e-01 -2.886974e-01 -3.475980e-01 -4.082091e-01 -4.655610e-01 -5.253165e-01 -5.803300e-01 -6.384107e-01 -6.902815e-01 -7.458424e-01 -7.937678e-01 -8.459560e-01 -8.891551e-01 -9.371315e-01 -9.748665e-01 -1.017830e+00 -1.049430e+00 -1.086641e+00 -1.111525e+00 -1.142336e+00 -1.160035e+00 -1.183906e+00 -1.194087e+00 -1.210614e+00 -1.213088e+00 -1.222016e+00 -1.216758e+00 -1.217994e+00 -1.205138e+00 -1.198754e+00 -1.178601e+00 -1.164833e+00 -1.137831e+00 -1.117072e+00 -1.083807e+00 -1.056585e+00 -1.017755e+00 -9.847174e-01 -9.411054e-01 -9.029867e-01 -8.554320e-01 -8.130263e-01 -7.623917e-01 -7.165201e-01 -6.636620e-01 -6.151421e-01 -5.608829e-01 -5.105010e-01 -4.556057e-01 -4.040934e-01 -3.492522e-01 -2.972686e-01 -2.430846e-01 -1.912052e-01 -1.381894e-01 -8.690097e-02 -3.547175e-02 1.482700e-02 6.433874e-02 1.133314e-01 1.606738e-01 2.081170e-01 2.531057e-01 2.988168e-01 3.413222e-01 3.851659e-01 4.250993e-01 4.669739e-01 5.042741e-01 5.440978e-01 5.787186e-01 6.164172e-01 6.483160e-01 
6.867827e-01 7.158969e-01 7.491753e-01 7.754722e-01 8.063660e-01 8.297683e-01 8.581471e-01 8.785541e-01 9.042607e-01 9.215475e-01 9.443985e-01 9.584175e-01 9.782063e-01 9.887904e-01 1.005292e+00 1.012261e+00 1.025240e+00 1.028406e+00 1.037623e+00 1.036801e+00 1.042024e+00 1.037039e+00 1.038052e+00 1.028752e+00 1.025363e+00 1.011624e+00 1.003677e+00 9.854134e-01 9.727911e-01 9.499649e-01 9.325970e-01 9.052204e-01 8.830868e-01 8.512273e-01 8.243600e-01 7.881433e-01 7.566276e-01 7.162381e-01 6.802128e-01 6.358936e-01 5.955511e-01 5.476037e-01 5.031901e-01 4.519731e-01 4.037898e-01 3.497181e-01 2.981227e-01 2.416670e-01 1.870762e-01 1.287622e-01 7.165436e-02 1.206238e-02 -4.702061e-02 -1.072572e-01 -1.677083e-01 -2.279053e-01 -2.890533e-01 -3.484803e-01 -4.095930e-01 -4.674801e-01 -5.277716e-01 -5.833191e-01 -6.419603e-01 -6.943522e-01 -7.504854e-01 -7.989064e-01 -8.516642e-01 -8.953192e-01 -9.438465e-01 -9.819830e-01 -1.025462e+00 -1.057394e+00 -1.095069e+00 -1.120203e+00 -1.151408e+00 -1.169264e+00 -1.193446e+00 -1.203680e+00 -1.220425e+00 -1.222844e+00 -1.231888e+00 -1.226464e+00 -1.227711e+00 -1.214583e+00 -1.208105e+00 -1.187579e+00 -1.173619e+00 -1.146157e+00 -1.125116e+00 -1.091320e+00 -1.063741e+00 -1.024327e+00 -9.908735e-01 -9.466479e-01 -9.080736e-01 -8.598964e-01 -8.170150e-01 -7.657703e-01 -7.194222e-01 -6.659854e-01 -6.170056e-01 -5.622152e-01 -5.114044e-01 -4.560376e-01 -4.041384e-01 -3.488931e-01 -2.965718e-01 -2.420549e-01 -1.898901e-01 -1.366120e-01 -8.509017e-02 -3.346549e-02 1.701813e-02 6.666508e-02 1.157998e-01 1.632257e-01 2.107754e-01 2.558055e-01 3.015960e-01 3.441109e-01 3.880153e-01 4.279363e-01 4.698613e-01 5.071369e-01 5.470083e-01 5.816009e-01 6.193511e-01 6.512256e-01 
6.914142e-01 7.206369e-01 7.540040e-01 7.804221e-01 8.114224e-01 8.349601e-01 8.634645e-01 8.840209e-01 9.098715e-01 9.273196e-01 9.503302e-01 9.645188e-01 9.844781e-01 9.952352e-01 1.011912e+00 1.019051e+00 1.032202e+00 1.035528e+00 1.044906e+00 1.044228e+00 1.049592e+00 1.044728e+00 1.045854e+00 1.036645e+00 1.033334e+00 1.019651e+00 1.011740e+00 9.934951e-01 9.808642e-01 9.580144e-01 9.405906e-01 9.131473e-01 8.909096e-01 8.589403e-01 8.319212e-01 7.955520e-01 7.638380e-01 7.232543e-01 6.869858e-01 6.424317e-01 6.018025e-01 5.535799e-01 5.088373e-01 4.573049e-01 4.087501e-01 3.543221e-01 3.023127e-01 2.454585e-01 1.904102e-01 1.316542e-01 7.404458e-02 1.396591e-02 -4.566319e-02 -1.064312e-01 -1.674715e-01 -2.282431e-01 -2.900203e-01 -3.500609e-01 -4.118373e-01 -4.703702e-01 -5.313510e-01 -5.875666e-01 -6.469109e-01 -6.999801e-01 -7.568154e-01 -8.059065e-01 -8.593479e-01 -9.036472e-01 -9.528201e-01 -9.915551e-01 -1.035621e+00 -1.068085e+00 -1.106267e+00 -1.131847e+00 -1.163461e+00 -1.181658e+00 -1.206134e+00 -1.216590e+00 -1.233498e+00 -1.236011e+00 -1.245080e+00 -1.239615e+00 -1.240744e+00 -1.227443e+00 -1.220707e+00 -1.199882e+00 -1.185533e+00 -1.157657e+00 -1.136110e+00 -1.101803e+00 -1.073620e+00 -1.033620e+00 -9.994876e-01 -9.546243e-01 -9.153223e-01 -8.664803e-01 -8.228501e-01 -7.709374e-01 -7.238457e-01 -6.697596e-01 -6.200656e-01 -5.646630e-01 -5.131878e-01 -4.572601e-01 -4.047616e-01 -3.490166e-01 -2.961709e-01 -2.412204e-01 -1.886108e-01 -1.349658e-01 -8.307806e-02 -3.115016e-02 1.962526e-02 6.951795e-02 1.188785e-01 1.665009e-01 2.142209e-01 2.594079e-01 3.053247e-01 3.479669e-01 3.919661e-01 4.319948e-01 4.739946e-01 5.113675e-01 5.513047e-01 5.859922e-01 6.238088e-01 6.557824e-01 
6.968919e-01 7.261261e-01 7.596198e-01 7.860749e-01 8.172312e-01 8.408362e-01 8.695283e-01 8.901844e-01 9.162543e-01 9.338337e-01 9.570925e-01 9.714407e-01 9.916719e-01 1.002611e+00 1.019577e+00 1.026912e+00 1.040360e+00 1.043888e+00 1.053561e+00 1.053078e+00 1.058725e+00 1.054038e+00 1.055425e+00 1.046363e+00 1.043283e+00 1.029706e+00 1.021987e+00 1.003796e+00 9.913103e-01 9.684555e-01 9.511256e-01 9.236109e-01 9.014118e-01 8.692998e-01 8.422612e-01 8.056752e-01 7.738814e-01 7.330054e-01 6.965947e-01 6.516730e-01 6.108367e-01 5.621722e-01 5.171546e-01 4.651076e-01 4.162066e-01 3.611936e-01 3.087625e-01 2.512556e-01 1.957065e-01 1.362332e-01 7.804045e-02 1.718413e-02 -4.311181e-02 -1.047121e-01 -1.665021e-01 -2.281530e-01 -2.907581e-01 -3.517150e-01 -4.143892e-01 -4.738619e-01 -5.357976e-01 -5.929600e-01 -6.532988e-01 -7.073017e-01 -7.651490e-01 -8.151379e-01 -8.695832e-01 -9.147189e-01 -9.648587e-01 -1.004342e+00 -1.049307e+00 -1.082405e+00 -1.121390e+00 -1.147462e+00 -1.179752e+00 -1.198280e+00 -1.223280e+00 -1.233886e+00 -1.251147e+00 -1.253617e+00 -1.262853e+00 -1.257150e+00 -1.258254e+00 -1.244522e+00 -1.237571e+00 -1.216135e+00 -1.201390e+00 -1.172747e+00 -1.150641e+00 -1.115436e+00 -1.086558e+00 -1.045564e+00 -1.010632e+00 -9.647152e-01 -9.245445e-01 -8.746287e-01 -8.300965e-01 -7.771276e-01 -7.291363e-01 -6.740455e-01 -6.234864e-01 -5.671590e-01 -5.148800e-01 -4.581288e-01 -4.049080e-01 -3.484544e-01 -2.949807e-01 -2.394426e-01 -1.863046e-01 -1.321922e-01 -7.987445e-02 -2.759230e-02 2.352144e-02 7.366680e-02 1.232851e-01 1.710735e-01 2.189847e-01 2.642677e-01 3.103246e-01 3.530106e-01 3.971145e-01 4.371519e-01 4.792367e-01 5.165993e-01 5.566157e-01 5.912885e-01 6.291908e-01 6.611579e-01 
7.040324e-01 7.334034e-01 7.670361e-01 7.936519e-01 8.249791e-01 8.487719e-01 8.776693e-01 8.985401e-01 9.248486e-01 9.426670e-01 9.661931e-01 9.807989e-01 1.001319e+00 1.012526e+00 1.029791e+00 1.037395e+00 1.051141e+00 1.054927e+00 1.064884e+00 1.064636e+00 1.070538e+00 1.066052e+00 1.067652e+00 1.058745e+00 1.055824e+00 1.042347e+00 1.034724e+00 1.016570e+00 1.004111e+00 9.812237e-01 9.638464e-01 9.362283e-01 9.139062e-01 8.816187e-01 8.543817e-01 8.175485e-01 7.854827e-01 7.442892e-01 7.075348e-01 6.622271e-01 6.209772e-01 5.718594e-01 5.263591e-01 4.737919e-01 4.243385e-01 3.687377e-01 3.156829e-01 2.575191e-01 2.012726e-01 1.410718e-01 8.210564e-02 2.045001e-02 -4.069671e-02 -1.031678e-01 -1.658848e-01 -2.284748e-01 -2.920790e-01 -3.540364e-01 -4.177728e-01 -4.782962e-01 -5.413435e-01 -5.995901e-01 -6.610707e-01 -7.161696e-01 -7.751646e-01 -8.262345e-01 -8.818043e-01 -9.279757e-01 -9.791845e-01 -1.019625e+00 -1.065569e+00 -1.099512e+00 -1.139351e+00 -1.166124e+00 -1.199110e+00 -1.218163e+00 -1.243674e+00 -1.254608e+00 -1.272169e+00 -1.274753e+00 -1.284065e+00 -1.278253e+00 -1.279200e+00 -1.265139e+00 -1.257803e+00 -1.235830e+00 -1.220485e+00 -1.191116e+00 -1.168218e+00 -1.132131e+00 -1.102299e+00 -1.060302e+00 -1.024294e+00 -9.772940e-01 -9.359678e-01 -8.849303e-01 -8.392087e-01 -7.851202e-01 -7.359492e-01 -6.797779e-01 -6.280885e-01 -5.707507e-01 -5.174240e-01 -4.597563e-01 -4.055951e-01 -3.483343e-01 -2.940432e-01 -2.378148e-01 -1.839891e-01 -1.293033e-01 -7.642573e-02 -2.368069e-02 2.787377e-02 7.838284e-02 1.283368e-01 1.764045e-01 2.245637e-01 2.700587e-01 3.162956e-01 3.591436e-01 4.033796e-01 4.435463e-01 4.857343e-01 5.232096e-01 5.633181e-01 5.981008e-01 6.360995e-01 6.681854e-01 
7.119748e-01 7.413754e-01 7.751813e-01 8.018658e-01 8.334108e-01 8.573177e-01 8.864810e-01 9.075140e-01 9.341358e-01 9.521628e-01 9.760454e-01 9.909009e-01 1.011812e+00 1.023302e+00 1.040983e+00 1.048889e+00 1.063062e+00 1.067156e+00 1.077535e+00 1.077585e+00 1.083890e+00 1.079673e+00 1.081641e+00 1.072958e+00 1.070357e+00 1.057042e+00 1.049677e+00 1.031610e+00 1.019339e+00 9.964511e-01 9.791839e-01 9.514685e-01 9.291743e-01 8.966866e-01 8.693924e-01 8.322528e-01 8.000427e-01 7.584358e-01 7.214482e-01 6.756206e-01 6.340462e-01 5.843041e-01 5.383844e-01 4.850907e-01 4.351183e-01 3.786916e-01 3.250126e-01 2.659264e-01 2.089444e-01 1.477279e-01 8.790972e-02 2.514971e-02 -3.696861e-02 -1.006264e-01 -1.644341e-01 -2.282838e-01 -2.930925e-01 -3.563693e-01 -4.214128e-01 -4.832973e-01 -5.477359e-01 -6.073621e-01 -6.702931e-01 -7.267613e-01 -7.872339e-01 -8.396293e-01 -8.966657e-01 -9.440809e-01 -9.967029e-01 -1.038265e+00 -1.085524e+00 -1.120426e+00 -1.161436e+00 -1.188966e+00 -1.222936e+00 -1.242511e+00 -1.268779e+00 -1.279970e+00 -1.298034e+00 -1.300592e+00 -1.310128e+00 -1.304000e+00 -1.304885e+00 -1.290223e+00 -1.282539e+00 -1.259698e+00 -1.243735e+00 -1.213262e+00 -1.189504e+00 -1.152117e+00 -1.121223e+00 -1.077782e+00 -1.040557e+00 -9.920233e-01 -9.493788e-01 -8.967785e-01 -8.496930e-01 -7.940683e-01 -7.435424e-01 -6.859121e-01 -6.329257e-01 -5.742480e-01 -5.197226e-01 -4.608655e-01 -4.056339e-01 -3.473537e-01 -2.921389e-01 -2.350692e-01 -1.804733e-01 -1.251218e-01 -7.162458e-02 -1.837804e-02 3.365709e-02 8.452147e-02 1.348349e-01 1.831343e-01 2.315538e-01 2.771821e-01 3.236038e-01 3.665125e-01 4.108821e-01 4.510623e-01 4.933558e-01 5.308205e-01 5.710276e-01 6.057967e-01 6.439050e-01 6.759920e-01 
7.215804e-01 7.511401e-01 7.851293e-01 8.120110e-01 8.437890e-01 8.679360e-01 8.973853e-01 9.187014e-01 9.456608e-01 9.640101e-01 9.882753e-01 1.003484e+00 1.024813e+00 1.036675e+00 1.054793e+00 1.063078e+00 1.077689e+00 1.082150e+00 1.092950e+00 1.093337e+00 1.100025e+00 1.096099e+00 1.098393e+00 1.089937e+00 1.087588e+00 1.074422e+00 1.067221e+00 1.049213e+00 1.037008e+00 1.014083e+00 9.967790e-01 9.689244e-01 9.464879e-01 9.137582e-01 8.862175e-01 8.487345e-01 8.161765e-01 7.741273e-01 7.366939e-01 6.903280e-01 6.482124e-01 5.978383e-01 5.512828e-01 4.972645e-01 4.465605e-01 3.893158e-01 3.348059e-01 2.748062e-01 2.168892e-01 1.546610e-01 9.379883e-02 2.992647e-02 -3.334830e-02 -9.821922e-02 -1.632962e-01 -2.284564e-01 -2.946426e-01 -3.593185e-01 -4.258364e-01 -4.891930e-01 -5.551847e-01 -6.163329e-01 -6.808688e-01 -7.388784e-01 -8.009731e-01 -8.548911e-01 -9.135255e-01 -9.624008e-01 -1.016550e+00 -1.059462e+00 -1.108126e+00 -1.144219e+00 -1.186462e+00 -1.214976e+00 -1.249960e+00 -1.270269e+00 -1.297288e+00 -1.308929e+00 -1.327447e+00 -1.330145e+00 -1.339815e+00 -1.333508e+00 -1.334195e+00 -1.319035e+00 -1.310826e+00 -1.287188e+00 -1.270391e+00 -1.238851e+00 -1.213983e+00 -1.175306e+00 -1.143070e+00 -1.098168e+00 -1.059426e+00 -1.009323e+00 -9.650495e-01 -9.108300e-01 -8.620703e-01 -8.048377e-01 -7.526560e-01 -6.934832e-01 -6.389171e-01 -5.788074e-01 -5.228261e-01 -4.626810e-01 -4.061524e-01 -3.467500e-01 -2.904184e-01 -2.324016e-01 -1.768770e-01 -1.207518e-01 -6.650953e-02 -1.265175e-02 3.995896e-02 9.129020e-02 1.420314e-01 1.906762e-01 2.394020e-01 2.852797e-01 3.319150e-01 3.750034e-01 4.195228e-01 4.598382e-01 5.022456e-01 5.398245e-01 5.801344e-01 6.150171e-01 6.532390e-01 6.854557e-01 
7.319215e-01 7.615187e-01 7.957202e-01 8.226958e-01 8.547502e-01 8.790556e-01 9.088496e-01 9.303916e-01 9.577629e-01 9.764032e-01 1.001141e+00 1.016699e+00 1.038550e+00 1.050806e+00 1.069481e+00 1.078188e+00 1.093371e+00 1.098263e+00 1.109629e+00 1.110432e+00 1.117659e+00 1.114111e+00 1.116894e+00 1.108756e+00 1.106826e+00 1.093894e+00 1.087028e+00 1.069152e+00 1.057184e+00 1.034271e+00 1.017098e+00 9.891263e-01 9.667099e-01 9.337260e-01 9.060922e-01 8.682144e-01 8.354493e-01 7.928648e-01 7.551095e-01 7.080697e-01 6.655156e-01 6.143323e-01 5.672178e-01 5.122583e-01 4.608685e-01 4.025540e-01 3.472233e-01 2.860279e-01 2.271459e-01 1.635991e-01 1.016191e-01 3.630908e-02 -2.824252e-02 -9.466390e-02 -1.611782e-01 -2.279916e-01 -2.957704e-01 -3.621869e-01 -4.304392e-01 -4.956016e-01 -5.634464e-01 -6.264356e-01 -6.929101e-01 -7.527583e-01 -8.168341e-01 -8.725429e-01 -9.331493e-01 -9.837160e-01 -1.039769e+00 -1.084218e+00 -1.134657e+00 -1.172074e+00 -1.215899e+00 -1.245470e+00 -1.281783e+00 -1.302832e+00 -1.330874e+00 -1.342898e+00 -1.362088e+00 -1.364786e+00 -1.374747e+00 -1.368042e+00 -1.368626e+00 -1.352677e+00 -1.343973e+00 -1.319177e+00 -1.301513e+00 -1.268490e+00 -1.242422e+00 -1.201993e+00 -1.168280e+00 -1.121427e+00 -1.080996e+00 -1.028822e+00 -9.827249e-01 -9.263974e-01 -8.757577e-01 -8.164582e-01 -7.624172e-01 -7.012890e-01 -6.449534e-01 -5.830574e-01 -5.254526e-01 -4.637326e-01 -4.057671e-01 -3.450265e-01 -2.874684e-01 -2.283590e-01 -1.718257e-01 -1.148477e-01 -5.980771e-02 -5.319165e-03 4.789675e-02 9.966336e-02 1.508440e-01 1.997611e-01 2.487923e-01 2.948146e-01 3.416553e-01 3.847962e-01 4.294548e-01 4.697651e-01 5.122774e-01 5.498248e-01 5.902343e-01 6.250868e-01 6.634276e-01 6.956387e-01 
7.439217e-01 7.736914e-01 8.081121e-01 8.353169e-01 8.676629e-01 8.922604e-01 9.224227e-01 9.443202e-01 9.721344e-01 9.911883e-01 1.016435e+00 1.032454e+00 1.054865e+00 1.067614e+00 1.086880e+00 1.096091e+00 1.111873e+00 1.117258e+00 1.129202e+00 1.130464e+00 1.138220e+00 1.135071e+00 1.138309e+00 1.130485e+00 1.128912e+00 1.116191e+00 1.109566e+00 1.091780e+00 1.079924e+00 1.056973e+00 1.039774e+00 1.011629e+00 9.890496e-01 9.557562e-01 9.278249e-01 8.895048e-01 8.563127e-01 8.131579e-01 7.748520e-01 7.271193e-01 6.838955e-01 6.319006e-01 5.839986e-01 5.281108e-01 4.758135e-01 4.164529e-01 3.600888e-01 2.977260e-01 2.376764e-01 1.728358e-01 1.095448e-01 4.280970e-02 -2.320371e-02 -9.118419e-02 -1.593146e-01 -2.278188e-01 -2.973645e-01 -3.655939e-01 -4.357518e-01 -5.028306e-01 -5.726965e-01 -6.376764e-01 -7.062534e-01 -7.681262e-01 -8.343402e-01 -8.920570e-01 -9.547817e-01 -1.007281e+00 -1.065369e+00 -1.111609e+00 -1.163931e+00 -1.202932e+00 -1.248419e+00 -1.279299e+00 -1.316986e+00 -1.339012e+00 -1.368081e+00 -1.380700e+00 -1.400521e+00 -1.403398e+00 -1.413562e+00 -1.406603e+00 -1.406944e+00 -1.390313e+00 -1.380925e+00 -1.355040e+00 -1.336275e+00 -1.301802e+00 -1.274259e+00 -1.232078e+00 -1.196578e+00 -1.147748e+00 -1.105297e+00 -1.051002e+00 -1.002738e+00 -9.442333e-01 -8.913707e-01 -8.299208e-01 -7.736903e-01 -7.105124e-01 -6.521000e-01 -5.883164e-01 -5.288124e-01 -4.654117e-01 -4.057711e-01 -3.435839e-01 -2.846017e-01 -2.242900e-01 -1.665913e-01 -1.086502e-01 -5.269439e-02 2.535716e-03 5.644037e-02 1.087542e-01 1.604283e-01 2.097314e-01 2.590984e-01 3.053814e-01 3.524402e-01 3.957530e-01 4.405518e-01 4.809797e-01 5.235915e-01 5.612340e-01 6.017357e-01 6.366882e-01 6.751424e-01 7.074811e-01 
7.565643e-01 7.863658e-01 8.210285e-01 8.483442e-01 8.810207e-01 9.058181e-01 9.364050e-01 9.585946e-01 9.869255e-01 1.006360e+00 1.032208e+00 1.048686e+00 1.071766e+00 1.085037e+00 1.105019e+00 1.114794e+00 1.131313e+00 1.137275e+00 1.149950e+00 1.151772e+00 1.160223e+00 1.157585e+00 1.161452e+00 1.154061e+00 1.153025e+00 1.140628e+00 1.134427e+00 1.116832e+00 1.105271e+00 1.082357e+00 1.065316e+00 1.037041e+00 1.014476e+00 9.808777e-01 9.528183e-01 9.140151e-01 8.805539e-01 8.367398e-01 7.980253e-01 7.494615e-01 7.056890e-01 6.526965e-01 6.041019e-01 5.470552e-01 4.939133e-01 4.332361e-01 3.758637e-01 3.120291e-01 2.507935e-01 1.843274e-01 1.196588e-01 5.114637e-02 -1.644765e-02 -8.635254e-02 -1.562720e-01 -2.268386e-01 -2.983786e-01 -3.687921e-01 -4.411349e-01 -5.104940e-01 -5.827080e-01 -6.500285e-01 -7.210752e-01 -7.853012e-01 -8.540516e-01 -9.140762e-01 -9.793367e-01 -1.034030e+00 -1.094577e+00 -1.142825e+00 -1.197445e+00 -1.238190e+00 -1.285730e+00 -1.318017e+00 -1.357432e+00 -1.380457e+00 -1.410856e+00 -1.424012e+00 -1.444706e+00 -1.447618e+00 -1.458155e+00 -1.450711e+00 -1.450906e+00 -1.433273e+00 -1.423222e+00 -1.395848e+00 -1.375930e+00 -1.339536e+00 -1.310400e+00 -1.265943e+00 -1.228483e+00 -1.177117e+00 -1.132429e+00 -1.075445e+00 -1.024772e+00 -9.635355e-01 -9.081998e-01 -8.440817e-01 -7.854188e-01 -7.197313e-01 -6.590206e-01 -5.929622e-01 -5.313692e-01 -4.659827e-01 -4.045150e-01 -3.406617e-01 -2.801428e-01 -2.184928e-01 -1.595539e-01 -1.005906e-01 -4.367743e-02 1.228618e-02 6.689379e-02 1.196907e-01 1.718523e-01 2.214332e-01 2.711167e-01 3.175200e-01 3.647707e-01 4.080937e-01 4.530053e-01 4.933780e-01 5.360654e-01 5.736279e-01 6.142054e-01 6.490880e-01 6.876501e-01 7.199583e-01 
7.708528e-01 8.008283e-01 8.357354e-01 8.633060e-01 8.963285e-01 9.214695e-01 9.525093e-01 9.751319e-01 1.004020e+00 1.023970e+00 1.050467e+00 1.067530e+00 1.091333e+00 1.105236e+00 1.125988e+00 1.136417e+00 1.153721e+00 1.160328e+00 1.173767e+00 1.176192e+00 1.185346e+00 1.183236e+00 1.187712e+00 1.180741e+00 1.180187e+00 1.168077e+00 1.162207e+00 1.144745e+00 1.133347e+00 1.110399e+00 1.093346e+00 1.064863e+00 1.042113e+00 1.008134e+00 9.797207e-01 9.403715e-01 9.063983e-01 8.618807e-01 8.225066e-01 7.730910e-01 7.285188e-01 6.745333e-01 6.250018e-01 5.668239e-01 5.126044e-01 4.506565e-01 3.920566e-01 3.268058e-01 2.641791e-01 1.961419e-01 1.299029e-01 5.965512e-02 -9.702742e-03 -8.151495e-02 -1.534007e-01 -2.260478e-01 -2.997566e-01 -3.724157e-01 -4.471179e-01 -5.188671e-01 -5.936047e-01 -6.634246e-01 -7.371169e-01 -8.039014e-01 -8.753616e-01 -9.379388e-01 -1.005901e+00 -1.063065e+00 -1.126222e+00 -1.176771e+00 -1.233821e+00 -1.276608e+00 -1.326305e+00 -1.360287e+00 -1.401495e+00 -1.425789e+00 -1.457539e+00 -1.471470e+00 -1.493006e+00 -1.496152e+00 -1.506978e+00 -1.499202e+00 -1.499107e+00 -1.480581e+00 -1.469664e+00 -1.440866e+00 -1.419536e+00 -1.381244e+00 -1.350208e+00 -1.303462e+00 -1.263695e+00 -1.209750e+00 -1.162451e+00 -1.102710e+00 -1.049239e+00 -9.851852e-01 -9.269890e-01 -8.601037e-01 -7.986378e-01 -7.303325e-01 -6.669830e-01 -5.985364e-01 -5.345545e-01 -4.670667e-01 -4.035193e-01 -3.378846e-01 -2.756269e-01 -2.125245e-01 -1.521926e-01 -9.209458e-02 -3.411721e-02 2.269126e-02 7.806882e-02 1.314603e-01 1.841434e-01 2.341148e-01 2.841236e-01 3.307625e-01 3.781963e-01 4.216487e-01 4.666533e-01 5.070947e-01 5.498337e-01 5.874449e-01 6.280752e-01 6.630218e-01 7.016740e-01 7.340902e-01 
7.856581e-01 8.156433e-01 8.508097e-01 8.784981e-01 9.119002e-01 9.372791e-01 9.688251e-01 9.918093e-01 1.021327e+00 1.041759e+00 1.068999e+00 1.086649e+00 1.111288e+00 1.125864e+00 1.147518e+00 1.158677e+00 1.176914e+00 1.184273e+00 1.198637e+00 1.201798e+00 1.211832e+00 1.210398e+00 1.215668e+00 1.209275e+00 1.209396e+00 1.197727e+00 1.192385e+00 1.175194e+00 1.164158e+00 1.141287e+00 1.124421e+00 1.095804e+00 1.073062e+00 1.038730e+00 1.010152e+00 9.702298e-01 9.359238e-01 8.906187e-01 8.507496e-01 8.003402e-01 7.551132e-01 6.999366e-01 6.495870e-01 5.900283e-01 5.348172e-01 4.713034e-01 4.115218e-01 3.445211e-01 2.805016e-01 2.105297e-01 1.426645e-01 7.029517e-02 -9.417002e-04 -7.506165e-02 -1.490915e-01 -2.242266e-01 -3.003459e-01 -3.756583e-01 -4.530236e-01 -5.275640e-01 -6.051861e-01 -6.778935e-01 -7.546419e-01 -8.243528e-01 -8.989720e-01 -9.644415e-01 -1.035581e+00 -1.095516e+00 -1.161769e+00 -1.214873e+00 -1.274829e+00 -1.319854e+00 -1.372157e+00 -1.407961e+00 -1.451370e+00 -1.476978e+00 -1.510425e+00 -1.525086e+00 -1.547738e+00 -1.550973e+00 -1.562275e+00 -1.553921e+00 -1.553635e+00 -1.533864e+00 -1.522089e+00 -1.491418e+00 -1.468596e+00 -1.427870e+00 -1.394773e+00 -1.345134e+00 -1.302833e+00 -1.245660e+00 -1.195474e+00 -1.132314e+00 -1.075740e+00 -1.008224e+00 -9.468561e-01 -8.766069e-01 -8.120418e-01 -7.405963e-01 -6.743446e-01 -6.030803e-01 -5.364912e-01 -4.665760e-01 -4.007825e-01 -3.331457e-01 -2.690352e-01 -2.043603e-01 -1.425703e-01 -8.130768e-02 -2.224209e-02 3.536437e-02 9.150373e-02 1.453812e-01 1.985551e-01 2.487621e-01 2.990520e-01 3.457395e-01 3.933065e-01 4.366820e-01 4.817309e-01 5.220267e-01 5.647746e-01 6.022219e-01 6.428727e-01 6.776804e-01 7.164041e-01 7.487418e-01 
8.020812e-01 8.322269e-01 8.676494e-01 8.956107e-01 9.294075e-01 9.551812e-01 9.872674e-01 1.010769e+00 1.040969e+00 1.062032e+00 1.090082e+00 1.108460e+00 1.134012e+00 1.149386e+00 1.172021e+00 1.184014e+00 1.203259e+00 1.211448e+00 1.226798e+00 1.230740e+00 1.241688e+00 1.240943e+00 1.247007e+00 1.241167e+00 1.241920e+00 1.230635e+00 1.225730e+00 1.208727e+00 1.197914e+00 1.175018e+00 1.158153e+00 1.129293e+00 1.106336e+00 1.071547e+00 1.042549e+00 1.001968e+00 9.670544e-01 9.209035e-01 8.802581e-01 8.288309e-01 7.826716e-01 7.263172e-01 6.748844e-01 6.139933e-01 5.575436e-01 4.925405e-01 4.313508e-01 3.626941e-01 2.970754e-01 2.252652e-01 1.555843e-01 8.117647e-02 7.882736e-03 -6.849151e-02 -1.448377e-01 -2.224513e-01 -3.011532e-01 -3.791644e-01 -4.593694e-01 -5.368086e-01 -6.174989e-01 -6.932649e-01 -7.732598e-01 -8.461278e-01 -9.241005e-01 -9.927444e-01 -1.067253e+00 -1.130281e+00 -1.199811e+00 -1.255815e+00 -1.318841e+00 -1.366455e+00 -1.421498e+00 -1.459464e+00 -1.505165e+00 -1.532400e+00 -1.567588e+00 -1.583252e+00 -1.607004e+00 -1.610552e+00 -1.622250e+00 -1.613485e+00 -1.612858e+00 -1.591953e+00 -1.579101e+00 -1.546611e+00 -1.522011e+00 -1.478858e+00 -1.443353e+00 -1.390787e+00 -1.345554e+00 -1.285088e+00 -1.231581e+00 -1.164912e+00 -1.104787e+00 -1.033700e+00 -9.687141e-01 -8.949817e-01 -8.268933e-01 -7.521814e-01 -6.826433e-01 -6.084329e-01 -5.389058e-01 -4.664360e-01 -3.981268e-01 -3.283642e-01 -2.621950e-01 -1.958288e-01 -1.324358e-01 -6.989449e-02 -9.650874e-03 4.886444e-02 1.058089e-01 1.602819e-01 2.139532e-01 2.645062e-01 3.150569e-01 3.619065e-01 4.095690e-01 4.529858e-01 4.980324e-01 5.383069e-01 5.810158e-01 6.184304e-01 6.590584e-01 6.938653e-01 7.326268e-01 7.650310e-01 
8.188556e-01 8.489690e-01 8.846531e-01 9.127274e-01 9.469466e-01 9.729924e-01 1.005669e+00 1.029606e+00 1.060562e+00 1.082218e+00 1.111174e+00 1.130287e+00 1.156870e+00 1.173097e+00 1.196853e+00 1.209777e+00 1.230188e+00 1.239344e+00 1.255855e+00 1.260749e+00 1.272800e+00 1.272938e+00 1.279995e+00 1.274916e+00 1.276509e+00 1.265812e+00 1.261559e+00 1.244932e+00 1.234559e+00 1.211795e+00 1.195150e+00 1.166159e+00 1.143202e+00 1.108013e+00 1.078806e+00 1.037557e+00 1.002241e+00 9.551664e-01 9.139373e-01 8.613447e-01 8.144278e-01 7.566812e-01 7.043151e-01 6.418166e-01 5.842448e-01 5.174248e-01 4.549009e-01 3.842174e-01 3.170211e-01 2.429684e-01 1.714321e-01 9.455780e-02 1.909893e-02 -5.997263e-02 -1.388171e-01 -2.193596e-01 -3.009020e-01 -3.820630e-01 -4.654406e-01 -5.462239e-01 -6.303854e-01 -7.096435e-01 -7.933496e-01 -8.697901e-01 -9.516300e-01 -1.023837e+00 -1.102262e+00 -1.168735e+00 -1.242105e+00 -1.301313e+00 -1.367963e+00 -1.418409e+00 -1.476719e+00 -1.517014e+00 -1.565484e+00 -1.594424e+00 -1.631756e+00 -1.648396e+00 -1.673563e+00 -1.677283e+00 -1.689591e+00 -1.680150e+00 -1.679287e+00 -1.656858e+00 -1.642921e+00 -1.608101e+00 -1.581608e+00 -1.535406e+00 -1.497279e+00 -1.441075e+00 -1.392614e+00 -1.328086e+00 -1.270902e+00 -1.199936e+00 -1.135869e+00 -1.060447e+00 -9.914497e-01 -9.135326e-01 -8.415536e-01 -7.629717e-01 -6.898291e-01 -6.121901e-01 -5.394718e-01 -4.640976e-01 -3.930912e-01 -3.209858e-01 -2.526468e-01 -1.844952e-01 -1.194508e-01 -5.564379e-02 5.775327e-03 6.509873e-02 1.228083e-01 1.777086e-01 2.318130e-01 2.824959e-01 3.332303e-01 3.799954e-01 4.276734e-01 4.708695e-01 5.158382e-01 5.558263e-01 5.984305e-01 6.355543e-01 6.761081e-01 7.106714e-01 7.494365e-01 7.816865e-01 
8.371973e-01 8.674393e-01 9.033747e-01 9.317300e-01 9.663864e-01 9.928772e-01 1.026185e+00 1.050732e+00 1.082509e+00 1.104931e+00 1.134881e+00 1.154893e+00 1.182613e+00 1.199837e+00 1.224828e+00 1.238807e+00 1.260497e+00 1.270711e+00 1.288481e+00 1.294379e+00 1.307602e+00 1.308631e+00 1.316709e+00 1.312353e+00 1.314759e+00 1.304571e+00 1.300880e+00 1.284512e+00 1.274429e+00 1.251655e+00 1.235020e+00 1.205747e+00 1.182531e+00 1.146797e+00 1.117086e+00 1.075050e+00 1.039015e+00 9.909362e-01 9.488009e-01 8.950128e-01 8.470256e-01 7.879110e-01 7.343198e-01 6.702897e-01 6.113325e-01 5.428143e-01 4.787233e-01 4.061594e-01 3.371813e-01 2.610406e-01 1.874676e-01 1.082673e-01 3.047682e-02 -5.118773e-02 -1.326917e-01 -2.161147e-01 -3.006626e-01 -3.849963e-01 -4.717225e-01 -5.559535e-01 -6.437777e-01 -7.267147e-01 -8.143398e-01 -8.946177e-01 -9.805457e-01 -1.056648e+00 -1.139215e+00 -1.209516e+00 -1.286948e+00 -1.349773e+00 -1.420253e+00 -1.473951e+00 -1.535702e+00 -1.578732e+00 -1.630101e+00 -1.661117e+00 -1.700668e+00 -1.718603e+00 -1.745192e+00 -1.749337e+00 -1.762185e+00 -1.752250e+00 -1.750997e+00 -1.727153e+00 -1.711892e+00 -1.674783e+00 -1.646072e+00 -1.596805e+00 -1.555657e+00 -1.495753e+00 -1.443600e+00 -1.374914e+00 -1.313545e+00 -1.238162e+00 -1.169622e+00 -1.089729e+00 -1.016195e+00 -9.339489e-01 -8.575843e-01 -7.749838e-01 -6.977960e-01 -6.165812e-01 -5.403022e-01 -4.618822e-01 -3.878895e-01 -3.133085e-01 -2.425923e-01 -1.725322e-01 -1.057056e-01 -4.051841e-02 2.214023e-02 8.238012e-02 1.408645e-01 1.962978e-01 2.508041e-01 3.017231e-01 3.525824e-01 3.993728e-01 4.469913e-01 4.900827e-01 5.348928e-01 5.747184e-01 6.171398e-01 6.541059e-01 6.945170e-01 7.289796e-01 7.676950e-01 7.999429e-01 