# vtk DataFile Version 2.0
Comment goes here
ASCII

DATASET STRUCTURED_POINTS
FIELD FieldData 1
TIME 1 1 double
0.11500000
DIMENSIONS    128   128   1

ORIGIN    0.000   0.000   0.000
SPACING   0.039062 0.039062   1.000

POINT_DATA   16384
SCALARS uX double
LOOKUP_TABLE default

-4.155238e-01 -3.616275e-01 -3.088449e-01 -2.545266e-01 -2.016023e-01 -1.473902e-01 -9.482159e-02 -4.119385e-02 1.057122e-02 6.318522e-02 1.137457e-01 1.649613e-01 2.139591e-01 2.634322e-01 3.105479e-01 3.579701e-01 4.029183e-01 4.480124e-01 4.905375e-01 5.330535e-01 5.729261e-01 6.126380e-01 6.496515e-01 6.863542e-01 7.203228e-01 7.538303e-01 7.845869e-01 8.147307e-01 8.421253e-01 8.687532e-01 8.926525e-01 9.156277e-01 9.359136e-01 9.551141e-01 9.716833e-01 9.870012e-01 9.997648e-01 1.011105e+00 1.019988e+00 1.027270e+00 1.032209e+00 1.035363e+00 1.036309e+00 1.035279e+00 1.032194e+00 1.026938e+00 1.019798e+00 1.010287e+00 9.990787e-01 9.852994e-01 9.700273e-01 9.519849e-01 9.326675e-01 9.103884e-01 8.870636e-01 8.605987e-01 8.333262e-01 8.027555e-01 7.716210e-01 7.370576e-01 7.021768e-01 6.637718e-01 6.252954e-01 5.832421e-01 5.413606e-01 4.958988e-01 4.508466e-01 4.022661e-01 3.543267e-01 3.029702e-01 2.524790e-01 1.987438e-01 1.460913e-01 9.043071e-02 3.606417e-02 -2.101315e-02 -7.658973e-02 -1.345209e-01 -1.907478e-01 -2.489189e-01 -3.051837e-01 -3.629339e-01 -4.185768e-01 -4.752052e-01 -5.295260e-01 -5.843003e-01 -6.365688e-01 -6.887365e-01 -7.382051e-01 -7.870075e-01 -8.329271e-01 -8.776163e-01 -9.192550e-01 -9.591136e-01 -9.957775e-01 -1.030140e+00 -1.061196e+00 -1.089471e+00 -1.114369e+00 -1.136062e+00 -1.154358e+00 -1.169092e+00 -1.180465e+00 -1.187996e+00 -1.192263e+00 -1.192491e+00 -1.189616e+00 -1.182592e+00 -1.172685e+00 -1.158603e+00 -1.141918e+00 -1.121112e+00 -1.098029e+00 -1.070954e+00 -1.041966e+00 -1.009173e+00 -9.748609e-01 -9.369812e-01 -8.979893e-01 -8.557027e-01 -8.127155e-01 -7.667288e-01 -7.204464e-01 -6.714705e-01 -6.225886e-01 -5.713196e-01 -5.205124e-01 -4.676168e-01 
-4.153374e-01 -3.614172e-01 -3.086386e-01 -2.542995e-01 -2.013893e-01 -1.471592e-01 -9.461363e-02 -4.096961e-02 1.076489e-02 6.339409e-02 1.139181e-01 1.651486e-01 2.141056e-01 2.635939e-01 3.106661e-01 3.581044e-01 4.030079e-01 4.481193e-01 4.906002e-01 5.331350e-01 5.729650e-01 6.126972e-01 6.496712e-01 6.863957e-01 7.203290e-01 7.538597e-01 7.845862e-01 8.147543e-01 8.421251e-01 8.687782e-01 8.926607e-01 9.156618e-01 9.359386e-01 9.551655e-01 9.717338e-01 9.870783e-01 9.998492e-01 1.011217e+00 1.020115e+00 1.027423e+00 1.032385e+00 1.035567e+00 1.036542e+00 1.035539e+00 1.032490e+00 1.027260e+00 1.020159e+00 1.010672e+00 9.995067e-01 9.857501e-01 9.705207e-01 9.524984e-01 9.332222e-01 9.109597e-01 8.876722e-01 8.612195e-01 8.339785e-01 8.034147e-01 7.723039e-01 7.377414e-01 7.028750e-01 6.644642e-01 6.259916e-01 5.839252e-01 5.420362e-01 4.965538e-01 4.514825e-01 4.028739e-01 3.549041e-01 3.035119e-01 2.529798e-01 1.992020e-01 1.464994e-01 9.078982e-02 3.636548e-02 -2.076645e-02 -7.640648e-02 -1.343970e-01 -1.906908e-01 -2.489248e-01 -3.052576e-01 -3.630733e-01 -4.187828e-01 -4.754781e-01 -5.298617e-01 -5.847030e-01 -6.370282e-01 -6.892616e-01 -7.387785e-01 -7.876441e-01 -8.336017e-01 -8.783500e-01 -9.200147e-01 -9.599268e-01 -9.966034e-01 -1.031012e+00 -1.062067e+00 -1.090380e+00 -1.115262e+00 -1.136984e+00 -1.155249e+00 -1.170002e+00 -1.181330e+00 -1.188869e+00 -1.193080e+00 -1.193306e+00 -1.190365e+00 -1.183328e+00 -1.173348e+00 -1.159245e+00 -1.142483e+00 -1.121649e+00 -1.098488e+00 -1.071378e+00 -1.042314e+00 -1.009484e+00 -9.751008e-01 -9.371822e-01 -8.981266e-01 -8.558013e-01 -8.127599e-01 -7.667362e-01 -7.204106e-01 -6.714003e-01 -6.224871e-01 -5.711871e-01 -5.203607e-01 -4.674377e-01 
-4.163694e-01 -3.621837e-01 -3.091273e-01 -2.545447e-01 -2.013717e-01 -1.469207e-01 -9.412811e-02 -4.028565e-02 1.167994e-02 6.448622e-02 1.152257e-01 1.666134e-01 2.157709e-01 2.653982e-01 3.126566e-01 3.602173e-01 4.052933e-01 4.505123e-01 4.931522e-01 5.357813e-01 5.757571e-01 6.155714e-01 6.526780e-01 6.894736e-01 7.235259e-01 7.571176e-01 7.879491e-01 8.181689e-01 8.456304e-01 8.723266e-01 8.962849e-01 9.193211e-01 9.396586e-01 9.589131e-01 9.755269e-01 9.908920e-01 1.003693e+00 1.015075e+00 1.023988e+00 1.031305e+00 1.036268e+00 1.039451e+00 1.040415e+00 1.039407e+00 1.036334e+00 1.031092e+00 1.023957e+00 1.014453e+00 1.003243e+00 9.894613e-01 9.741794e-01 9.561239e-01 9.367874e-01 9.144828e-01 8.911278e-01 8.646230e-01 8.373075e-01 8.066802e-01 7.754876e-01 7.408487e-01 7.058925e-01 6.673908e-01 6.288192e-01 5.866461e-01 5.446470e-01 4.990404e-01 4.538465e-01 4.050948e-01 3.569875e-01 3.054323e-01 2.547457e-01 2.007840e-01 1.479079e-01 9.199294e-02 3.737431e-02 -1.998442e-02 -7.584090e-02 -1.340791e-01 -1.906122e-01 -2.491136e-01 -3.057084e-01 -3.638091e-01 -4.198020e-01 -4.767966e-01 -5.314825e-01 -5.866332e-01 -6.392754e-01 -6.918224e-01 -7.416654e-01 -7.908417e-01 -8.371273e-01 -8.821752e-01 -9.241608e-01 -9.643521e-01 -1.001333e+00 -1.035990e+00 -1.067321e+00 -1.095843e+00 -1.120964e+00 -1.142845e+00 -1.161302e+00 -1.176158e+00 -1.187622e+00 -1.195202e+00 -1.199487e+00 -1.199691e+00 -1.196760e+00 -1.189637e+00 -1.179604e+00 -1.165356e+00 -1.148480e+00 -1.127448e+00 -1.104119e+00 -1.076766e+00 -1.047488e+00 -1.014380e+00 -9.797454e-01 -9.415253e-01 -9.021913e-01 -8.595512e-01 -8.162139e-01 -7.698716e-01 -7.232414e-01 -6.739173e-01 -6.246984e-01 -5.730962e-01 -5.219691e-01 -4.687605e-01 
-4.170138e-01 -3.625152e-01 -3.091899e-01 -2.543230e-01 -2.009166e-01 -1.462093e-01 -9.321730e-02 -3.914460e-02 1.298938e-02 6.600240e-02 1.168828e-01 1.684567e-01 2.177316e-01 2.675277e-01 3.148838e-01 3.625987e-01 4.077564e-01 4.531175e-01 4.958265e-01 5.385873e-01 5.786225e-01 6.185597e-01 6.557185e-01 6.926291e-01 7.267285e-01 7.604279e-01 7.913033e-01 8.216237e-01 8.491274e-01 8.759174e-01 8.999173e-01 9.230406e-01 9.434202e-01 9.627552e-01 9.794124e-01 9.948515e-01 1.007698e+00 1.019147e+00 1.028108e+00 1.035485e+00 1.040498e+00 1.043735e+00 1.044749e+00 1.043789e+00 1.040766e+00 1.035565e+00 1.028477e+00 1.019004e+00 1.007837e+00 9.940760e-01 9.788293e-01 9.607815e-01 9.414692e-01 9.191565e-01 8.958108e-01 8.692792e-01 8.419540e-01 8.112780e-01 7.800526e-01 7.453399e-01 7.103236e-01 6.717201e-01 6.330576e-01 5.907519e-01 5.486281e-01 5.028562e-01 4.575011e-01 4.085498e-01 3.602435e-01 3.084536e-01 2.575296e-01 2.032981e-01 1.501466e-01 9.392750e-02 3.899699e-02 -1.869865e-02 -7.490072e-02 -1.335063e-01 -1.904148e-01 -2.493107e-01 -3.063059e-01 -3.648237e-01 -4.212357e-01 -4.786646e-01 -5.337808e-01 -5.893760e-01 -6.424508e-01 -6.954443e-01 -7.457121e-01 -7.953269e-01 -8.420181e-01 -8.874853e-01 -9.298450e-01 -9.704240e-01 -1.007735e+00 -1.042736e+00 -1.074340e+00 -1.103148e+00 -1.128475e+00 -1.150575e+00 -1.169160e+00 -1.184156e+00 -1.195667e+00 -1.203304e+00 -1.207550e+00 -1.207725e+00 -1.204670e+00 -1.197435e+00 -1.187200e+00 -1.172763e+00 -1.155616e+00 -1.134326e+00 -1.110670e+00 -1.083004e+00 -1.053356e+00 -1.019895e+00 -9.848640e-01 -9.462629e-01 -9.065212e-01 -8.634874e-01 -8.197443e-01 -7.730083e-01 -7.259862e-01 -6.762790e-01 -6.266913e-01 -5.747245e-01 -5.232587e-01 -4.697097e-01 
-4.188584e-01 -3.638029e-01 -3.099240e-01 -2.545487e-01 -2.006299e-01 -1.454631e-01 -9.199995e-02 -3.751515e-02 1.505010e-02 6.843099e-02 1.197053e-01 1.716068e-01 2.212412e-01 2.713287e-01 3.190131e-01 3.669874e-01 4.124450e-01 4.580371e-01 5.010197e-01 5.439865e-01 5.842709e-01 6.243916e-01 6.617762e-01 6.988499e-01 7.331524e-01 7.669962e-01 7.980520e-01 8.284996e-01 8.561611e-01 8.830619e-01 9.071971e-01 9.304159e-01 9.509080e-01 9.703241e-01 9.870712e-01 1.002578e+00 1.015492e+00 1.026995e+00 1.036002e+00 1.043422e+00 1.048460e+00 1.051726e+00 1.052746e+00 1.051803e+00 1.048767e+00 1.043569e+00 1.036452e+00 1.026967e+00 1.015754e+00 1.001966e+00 9.866558e-01 9.685626e-01 9.491702e-01 9.267911e-01 9.033477e-01 8.767253e-01 8.492829e-01 8.184883e-01 7.871236e-01 7.522607e-01 7.170802e-01 6.782909e-01 6.394355e-01 5.969048e-01 5.545554e-01 5.085159e-01 4.628984e-01 4.136341e-01 3.650244e-01 3.128738e-01 2.616019e-01 2.069605e-01 1.534136e-01 9.673490e-02 4.135933e-02 -1.684504e-02 -7.354277e-02 -1.327043e-01 -1.901586e-01 -2.496543e-01 -3.072427e-01 -3.663992e-01 -4.234471e-01 -4.815461e-01 -5.373336e-01 -5.936202e-01 -6.473915e-01 -7.010850e-01 -7.520607e-01 -8.023685e-01 -8.497622e-01 -8.958971e-01 -9.389345e-01 -9.801353e-01 -1.018077e+00 -1.053632e+00 -1.085798e+00 -1.115071e+00 -1.140868e+00 -1.163324e+00 -1.182268e+00 -1.197495e+00 -1.209237e+00 -1.216969e+00 -1.221309e+00 -1.221437e+00 -1.218336e+00 -1.210914e+00 -1.200496e+00 -1.185740e+00 -1.168282e+00 -1.146559e+00 -1.122480e+00 -1.094285e+00 -1.064123e+00 -1.030058e+00 -9.944439e-01 -9.551905e-01 -9.148187e-01 -8.711068e-01 -8.267089e-01 -7.792904e-01 -7.316082e-01 -6.812322e-01 -6.309956e-01 -5.783882e-01 -5.262973e-01 -4.721464e-01 
-4.202704e-01 -3.646119e-01 -3.101913e-01 -2.542687e-01 -1.998708e-01 -1.442113e-01 -9.032908e-02 -3.540271e-02 1.752634e-02 7.130250e-02 1.228913e-01 1.751474e-01 2.250534e-01 2.754605e-01 3.233801e-01 3.716443e-01 4.173066e-01 4.631635e-01 5.063256e-01 5.495357e-01 5.899790e-01 6.303241e-01 6.678506e-01 7.051318e-01 7.395622e-01 7.735977e-01 8.047700e-01 8.353943e-01 8.631627e-01 8.902257e-01 9.144599e-01 9.378268e-01 9.584115e-01 9.779620e-01 9.947964e-01 1.010424e+00 1.023421e+00 1.035033e+00 1.044119e+00 1.051634e+00 1.056748e+00 1.060098e+00 1.061188e+00 1.060316e+00 1.057345e+00 1.052204e+00 1.045143e+00 1.035699e+00 1.024532e+00 1.010765e+00 9.954860e-01 9.773908e-01 9.580096e-01 9.356008e-01 9.121427e-01 8.854577e-01 8.579686e-01 8.270726e-01 7.956227e-01 7.606141e-01 7.253030e-01 6.863183e-01 6.472806e-01 6.045000e-01 5.619110e-01 5.155629e-01 4.696437e-01 4.200092e-01 3.710324e-01 3.184481e-01 2.667416e-01 2.116026e-01 1.575533e-01 1.003139e-01 4.436967e-02 -1.445633e-02 -7.178560e-02 -1.316259e-01 -1.897692e-01 -2.499952e-01 -3.083226e-01 -3.682533e-01 -4.260804e-01 -4.849879e-01 -5.415820e-01 -5.986992e-01 -6.532891e-01 -7.078197e-01 -7.596080e-01 -8.107409e-01 -8.589201e-01 -9.058467e-01 -9.496192e-01 -9.915546e-01 -1.030156e+00 -1.066364e+00 -1.099090e+00 -1.128909e+00 -1.155143e+00 -1.178015e+00 -1.197254e+00 -1.212750e+00 -1.224631e+00 -1.232471e+00 -1.236787e+00 -1.236857e+00 -1.233570e+00 -1.225930e+00 -1.215171e+00 -1.200048e+00 -1.182113e+00 -1.159891e+00 -1.135221e+00 -1.106420e+00 -1.075581e+00 -1.040830e+00 -1.004480e+00 -9.644894e-01 -9.233519e-01 -8.788788e-01 -8.337117e-01 -7.855323e-01 -7.371000e-01 -6.859839e-01 -6.350345e-01 -5.817234e-01 -5.289699e-01 -4.741625e-01 
-4.228436e-01 -3.663338e-01 -3.110812e-01 -2.543848e-01 -1.992246e-01 -1.428687e-01 -8.829270e-02 -3.274361e-02 2.081433e-02 7.514527e-02 1.273033e-01 1.800531e-01 2.304747e-01 2.813216e-01 3.297088e-01 3.783655e-01 4.244528e-01 4.706610e-01 5.142097e-01 5.577348e-01 5.985295e-01 6.391574e-01 6.770023e-01 7.145371e-01 7.492543e-01 7.835164e-01 8.149445e-01 8.457702e-01 8.737637e-01 9.010045e-01 9.254331e-01 9.489553e-01 9.697040e-01 9.893884e-01 1.006357e+00 1.022098e+00 1.035200e+00 1.046906e+00 1.056068e+00 1.063659e+00 1.068821e+00 1.072228e+00 1.073341e+00 1.072507e+00 1.069534e+00 1.064412e+00 1.057325e+00 1.047878e+00 1.036661e+00 1.022867e+00 1.007515e+00 9.893651e-01 9.698851e-01 9.473888e-01 9.238043e-01 8.969936e-01 8.693468e-01 8.382810e-01 8.066375e-01 7.714086e-01 7.358625e-01 6.966008e-01 6.572804e-01 6.141599e-01 5.712338e-01 5.244775e-01 4.781603e-01 4.280448e-01 3.786026e-01 3.254613e-01 2.732166e-01 2.174422e-01 1.627777e-01 1.048239e-01 4.818474e-02 -1.143376e-02 -6.953851e-02 -1.302464e-01 -1.892442e-01 -2.504079e-01 -3.096644e-01 -3.705949e-01 -4.294179e-01 -4.893760e-01 -5.470210e-01 -6.052242e-01 -6.609037e-01 -7.165363e-01 -7.694311e-01 -8.216576e-01 -8.709337e-01 -9.189164e-01 -9.637451e-01 -1.006667e+00 -1.046249e+00 -1.083338e+00 -1.116933e+00 -1.147493e+00 -1.174449e+00 -1.197889e+00 -1.217671e+00 -1.233535e+00 -1.245755e+00 -1.253746e+00 -1.258181e+00 -1.258177e+00 -1.254784e+00 -1.246846e+00 -1.235765e+00 -1.220135e+00 -1.201677e+00 -1.178765e+00 -1.153400e+00 -1.123758e+00 -1.092083e+00 -1.056380e+00 -1.019091e+00 -9.780737e-01 -9.359325e-01 -8.903968e-01 -8.441963e-01 -7.949523e-01 -7.454882e-01 -6.933340e-01 -6.413797e-01 -5.870792e-01 -5.333672e-01 -4.776347e-01 
-4.249074e-01 -3.675022e-01 -3.114350e-01 -2.539292e-01 -1.980469e-01 -1.409652e-01 -8.575519e-02 -2.955811e-02 2.455314e-02 7.946223e-02 1.321018e-01 1.853688e-01 2.362099e-01 2.875219e-01 3.362758e-01 3.853537e-01 4.317633e-01 4.783554e-01 5.221897e-01 5.660669e-01 6.071161e-01 6.480682e-01 6.861417e-01 7.239752e-01 7.588987e-01 7.934358e-01 8.250509e-01 8.561289e-01 8.842923e-01 9.117633e-01 9.363470e-01 9.600779e-01 9.809685e-01 1.000841e+00 1.017939e+00 1.033849e+00 1.047070e+00 1.058925e+00 1.068198e+00 1.075920e+00 1.081184e+00 1.084704e+00 1.085910e+00 1.085170e+00 1.082280e+00 1.077232e+00 1.070215e+00 1.060821e+00 1.049658e+00 1.035889e+00 1.020569e+00 1.002412e+00 9.829353e-01 9.603929e-01 9.367761e-01 9.098724e-01 8.821487e-01 8.509346e-01 8.191600e-01 7.837190e-01 7.479779e-01 7.084322e-01 6.688437e-01 6.253599e-01 5.820840e-01 5.348790e-01 4.881229e-01 4.374685e-01 3.874929e-01 3.337195e-01 2.808434e-01 2.243427e-01 1.689474e-01 1.101739e-01 5.270595e-02 -7.822678e-03 -6.685033e-02 -1.285538e-01 -1.885618e-01 -2.507990e-01 -3.111431e-01 -3.732149e-01 -4.331894e-01 -4.943429e-01 -5.531861e-01 -6.126212e-01 -6.695236e-01 -7.264023e-01 -7.805185e-01 -8.339781e-01 -8.844427e-01 -9.336135e-01 -9.795627e-01 -1.023591e+00 -1.064188e+00 -1.102263e+00 -1.136728e+00 -1.168115e+00 -1.195759e+00 -1.219833e+00 -1.240090e+00 -1.256363e+00 -1.268821e+00 -1.276976e+00 -1.281401e+00 -1.281308e+00 -1.277656e+00 -1.269383e+00 -1.257806e+00 -1.241612e+00 -1.222449e+00 -1.198772e+00 -1.172526e+00 -1.141958e+00 -1.109268e+00 -1.072519e+00 -1.034126e+00 -9.919879e-01 -9.486969e-01 -9.020079e-01 -8.546522e-01 -8.042597e-01 -7.536694e-01 -7.004024e-01 -6.473779e-01 -5.920237e-01 -5.373170e-01 -4.806057e-01 
-4.280685e-01 -3.695134e-01 -3.123331e-01 -2.537888e-01 -1.968953e-01 -1.388839e-01 -8.276113e-02 -2.573650e-02 2.919600e-02 8.483992e-02 1.382182e-01 1.921380e-01 2.436447e-01 2.955380e-01 3.448937e-01 3.944913e-01 4.414468e-01 4.885054e-01 5.328360e-01 5.771333e-01 6.186341e-01 6.599651e-01 6.984484e-01 7.366235e-01 7.719169e-01 8.067610e-01 8.387070e-01 8.700593e-01 8.985150e-01 9.262293e-01 9.510667e-01 9.750113e-01 9.961172e-01 1.016175e+00 1.033451e+00 1.049519e+00 1.062881e+00 1.074870e+00 1.084247e+00 1.092078e+00 1.097412e+00 1.101017e+00 1.102261e+00 1.101583e+00 1.098700e+00 1.093689e+00 1.086649e+00 1.077264e+00 1.066048e+00 1.052256e+00 1.036853e+00 1.018637e+00 9.990454e-01 9.763997e-01 9.526314e-01 9.255730e-01 8.976558e-01 8.662270e-01 8.342100e-01 7.984850e-01 7.624445e-01 7.225363e-01 6.825820e-01 6.386487e-01 5.949308e-01 5.471817e-01 4.998980e-01 4.485983e-01 3.980007e-01 3.434760e-01 2.898757e-01 2.325147e-01 1.762873e-01 1.165435e-01 5.813156e-02 -3.476227e-03 -6.356074e-02 -1.264487e-01 -1.876244e-01 -2.511449e-01 -3.127619e-01 -3.762057e-01 -4.375480e-01 -5.001477e-01 -5.604379e-01 -6.213736e-01 -6.797799e-01 -7.381871e-01 -7.938349e-01 -8.488176e-01 -9.008047e-01 -9.514528e-01 -9.988713e-01 -1.044285e+00 -1.086248e+00 -1.125566e+00 -1.161243e+00 -1.193680e+00 -1.222329e+00 -1.247209e+00 -1.268219e+00 -1.285017e+00 -1.297938e+00 -1.306308e+00 -1.310882e+00 -1.310683e+00 -1.306860e+00 -1.298162e+00 -1.286105e+00 -1.269191e+00 -1.249266e+00 -1.224612e+00 -1.197362e+00 -1.165606e+00 -1.131721e+00 -1.093631e+00 -1.053906e+00 -1.010330e+00 -9.656262e-01 -9.174560e-01 -8.686574e-01 -8.167895e-01 -7.647699e-01 -7.100733e-01 -6.556687e-01 -5.989608e-01 -5.429490e-01 -4.849802e-01 
-4.306077e-01 -3.708624e-01 -3.125948e-01 -2.529814e-01 -1.951272e-01 -1.361628e-01 -7.919832e-02 -2.132722e-02 3.433911e-02 9.073518e-02 1.447526e-01 1.993433e-01 2.514080e-01 3.039039e-01 3.537492e-01 4.038924e-01 4.512805e-01 4.988370e-01 5.435528e-01 5.883073e-01 6.301535e-01 6.719058e-01 7.107005e-01 7.492641e-01 7.848391e-01 8.200406e-01 8.522417e-01 8.839211e-01 9.126080e-01 9.406197e-01 9.656665e-01 9.898796e-01 1.011175e+00 1.031474e+00 1.048921e+00 1.065203e+00 1.078721e+00 1.090899e+00 1.100418e+00 1.108414e+00 1.113877e+00 1.117625e+00 1.118985e+00 1.118427e+00 1.115646e+00 1.110731e+00 1.103778e+00 1.094460e+00 1.083310e+00 1.069554e+00 1.054190e+00 1.035969e+00 1.016381e+00 9.936807e-01 9.698712e-01 9.426980e-01 9.146828e-01 8.830672e-01 8.508828e-01 8.148875e-01 7.785970e-01 7.383236e-01 6.980238e-01 6.536202e-01 6.094495e-01 5.611160e-01 5.132620e-01 4.612575e-01 4.099638e-01 3.546097e-01 3.001823e-01 2.418654e-01 1.846774e-01 1.238522e-01 6.434732e-02 1.535869e-03 -5.976975e-02 -1.239775e-01 -1.864946e-01 -2.514421e-01 -3.145087e-01 -3.794743e-01 -4.423581e-01 -5.065576e-01 -5.684593e-01 -6.310504e-01 -6.911105e-01 -7.512000e-01 -8.085090e-01 -8.651649e-01 -9.187788e-01 -9.710473e-01 -1.020010e+00 -1.066940e+00 -1.110312e+00 -1.150989e+00 -1.187882e+00 -1.221464e+00 -1.251084e+00 -1.276844e+00 -1.298531e+00 -1.315899e+00 -1.329169e+00 -1.337769e+00 -1.342345e+00 -1.342022e+00 -1.337854e+00 -1.328686e+00 -1.315953e+00 -1.298249e+00 -1.277354e+00 -1.251632e+00 -1.223169e+00 -1.190124e+00 -1.154842e+00 -1.115302e+00 -1.074061e+00 -1.028938e+00 -9.826602e-01 -9.329070e-01 -8.825328e-01 -8.290979e-01 -7.755488e-01 -7.193433e-01 -6.634918e-01 -6.053645e-01 -5.480139e-01 -4.887352e-01 
-4.341488e-01 -3.729514e-01 -3.132879e-01 -2.523734e-01 -1.932627e-01 -1.331420e-01 -7.505285e-02 -1.615879e-02 4.051224e-02 9.781253e-02 1.527285e-01 2.081204e-01 2.609917e-01 3.142007e-01 3.647739e-01 4.155556e-01 4.636040e-01 5.117355e-01 5.570526e-01 6.023271e-01 6.447218e-01 6.869455e-01 7.262394e-01 7.652299e-01 8.012571e-01 8.368439e-01 8.694507e-01 9.014758e-01 9.305219e-01 9.588411e-01 9.842005e-01 1.008685e+00 1.030246e+00 1.050780e+00 1.068448e+00 1.084933e+00 1.098626e+00 1.110975e+00 1.120625e+00 1.128763e+00 1.134317e+00 1.138179e+00 1.139590e+00 1.139118e+00 1.136352e+00 1.131493e+00 1.124520e+00 1.115227e+00 1.104023e+00 1.090253e+00 1.074800e+00 1.056520e+00 1.036805e+00 1.013994e+00 9.900130e-01 9.626647e-01 9.344273e-01 9.025610e-01 8.700938e-01 8.337598e-01 7.971145e-01 7.564020e-01 7.156627e-01 6.707079e-01 6.259998e-01 5.769927e-01 5.284903e-01 4.756810e-01 4.236161e-01 3.673196e-01 3.119877e-01 2.525869e-01 1.943533e-01 1.323008e-01 7.160401e-02 7.423174e-03 -5.522269e-02 -1.209382e-01 -1.849420e-01 -2.515284e-01 -3.162220e-01 -3.829464e-01 -4.475855e-01 -5.136469e-01 -5.774138e-01 -6.419461e-01 -7.039540e-01 -7.660319e-01 -8.253345e-01 -8.839833e-01 -9.395890e-01 -9.938026e-01 -1.044697e+00 -1.093463e+00 -1.138639e+00 -1.180972e+00 -1.219472e+00 -1.254458e+00 -1.285414e+00 -1.312260e+00 -1.334945e+00 -1.353023e+00 -1.366902e+00 -1.375794e+00 -1.380556e+00 -1.380089e+00 -1.375673e+00 -1.365933e+00 -1.352536e+00 -1.333862e+00 -1.311925e+00 -1.284888e+00 -1.255063e+00 -1.220428e+00 -1.183538e+00 -1.142209e+00 -1.099190e+00 -1.052161e+00 -1.004011e+00 -9.523096e-01 -9.000386e-01 -8.446779e-01 -7.892668e-01 -7.312100e-01 -6.735772e-01 -6.137114e-01 -5.546924e-01 -4.938125e-01 
-4.369153e-01 -3.742312e-01 -3.132097e-01 -2.509713e-01 -1.906688e-01 -1.293774e-01 -7.025017e-02 -1.032336e-02 4.724894e-02 1.054622e-01 1.611613e-01 2.173652e-01 2.709201e-01 3.248578e-01 3.760323e-01 4.274745e-01 4.760565e-01 5.247924e-01 5.705872e-01 6.164189e-01 6.592442e-01 7.019831e-01 7.416671e-01 7.811341e-01 8.175150e-01 8.535406e-01 8.864681e-01 9.188946e-01 9.482308e-01 9.769142e-01 1.002535e+00 1.027346e+00 1.049143e+00 1.069969e+00 1.087849e+00 1.104592e+00 1.118475e+00 1.131051e+00 1.140873e+00 1.149210e+00 1.154919e+00 1.158953e+00 1.160506e+00 1.160180e+00 1.157539e+00 1.152800e+00 1.145934e+00 1.136730e+00 1.125611e+00 1.111894e+00 1.096495e+00 1.078221e+00 1.058521e+00 1.035657e+00 1.011637e+00 9.841637e-01 9.558198e-01 9.237403e-01 8.910823e-01 8.544312e-01 8.174935e-01 7.763449e-01 7.351948e-01 6.896710e-01 6.444174e-01 5.946970e-01 5.455007e-01 4.918250e-01 4.389066e-01 3.815850e-01 3.252326e-01 2.646455e-01 2.052207e-01 1.418217e-01 7.976334e-02 1.407929e-02 -5.009388e-02 -1.174625e-01 -1.831506e-01 -2.515301e-01 -3.180518e-01 -3.866953e-01 -4.532875e-01 -5.213753e-01 -5.871949e-01 -6.538350e-01 -7.179621e-01 -7.821947e-01 -8.436401e-01 -9.044458e-01 -9.621650e-01 -1.018481e+00 -1.071397e+00 -1.122145e+00 -1.169178e+00 -1.213299e+00 -1.253414e+00 -1.289917e+00 -1.322172e+00 -1.350187e+00 -1.373790e+00 -1.392627e+00 -1.406988e+00 -1.416186e+00 -1.420965e+00 -1.420332e+00 -1.415466e+00 -1.405094e+00 -1.390805e+00 -1.371072e+00 -1.347851e+00 -1.319387e+00 -1.287958e+00 -1.251607e+00 -1.212875e+00 -1.169629e+00 -1.124618e+00 -1.075558e+00 -1.025353e+00 -9.715864e-01 -9.172721e-01 -8.598833e-01 -8.025026e-01 -7.425097e-01 -6.830277e-01 -6.213567e-01 -5.606399e-01 -4.981090e-01 
-4.405465e-01 -3.761065e-01 -3.134072e-01 -2.496114e-01 -1.878146e-01 -1.251519e-01 -6.469979e-02 -3.569190e-03 5.517734e-02 1.144486e-01 1.711920e-01 2.283302e-01 2.828198e-01 3.375888e-01 3.896063e-01 4.417945e-01 4.911427e-01 5.405534e-01 5.870484e-01 6.334938e-01 6.769606e-01 7.202592e-01 7.605299e-01 8.005064e-01 8.374210e-01 8.739083e-01 9.073163e-01 9.401582e-01 9.699208e-01 9.989743e-01 1.024967e+00 1.050105e+00 1.072218e+00 1.093328e+00 1.111469e+00 1.128456e+00 1.142547e+00 1.155331e+00 1.165310e+00 1.173821e+00 1.179638e+00 1.183814e+00 1.185429e+00 1.185214e+00 1.182595e+00 1.177935e+00 1.171052e+00 1.161892e+00 1.150718e+00 1.137004e+00 1.121512e+00 1.103191e+00 1.083355e+00 1.060383e+00 1.036180e+00 1.008522e+00 9.799369e-01 9.475832e-01 9.146132e-01 8.775811e-01 8.402459e-01 7.985932e-01 7.569431e-01 7.107767e-01 6.649033e-01 6.143882e-01 5.644348e-01 5.098012e-01 4.559726e-01 3.975215e-01 3.400924e-01 2.781991e-01 2.175204e-01 1.526362e-01 8.913985e-02 2.179235e-02 -4.400628e-02 -1.132130e-01 -1.807132e-01 -2.510985e-01 -3.196130e-01 -3.904188e-01 -4.591727e-01 -5.295617e-01 -5.976917e-01 -6.667462e-01 -7.333018e-01 -8.000248e-01 -8.639733e-01 -9.272945e-01 -9.875329e-01 -1.046324e+00 -1.101701e+00 -1.154803e+00 -1.204152e+00 -1.250413e+00 -1.292601e+00 -1.330933e+00 -1.364919e+00 -1.394357e+00 -1.419256e+00 -1.439028e+00 -1.454177e+00 -1.463763e+00 -1.468774e+00 -1.467954e+00 -1.462749e+00 -1.451624e+00 -1.436448e+00 -1.415440e+00 -1.390838e+00 -1.360654e+00 -1.327434e+00 -1.289012e+00 -1.248180e+00 -1.202620e+00 -1.155306e+00 -1.103799e+00 -1.051191e+00 -9.949450e-01 -9.382211e-01 -8.784037e-01 -8.186825e-01 -7.563784e-01 -6.946818e-01 -6.308631e-01 -5.680952e-01 -5.036073e-01 
-4.432041e-01 -3.769823e-01 -3.126597e-01 -2.472951e-01 -1.840878e-01 -1.200521e-01 -5.838214e-02 3.949337e-03 6.374587e-02 1.240722e-01 1.817240e-01 2.397976e-01 2.950793e-01 3.506879e-01 4.034035e-01 4.563554e-01 5.063261e-01 5.564395e-01 6.034955e-01 6.505926e-01 6.945689e-01 7.384737e-01 7.792087e-01 8.197483e-01 8.570858e-01 8.940930e-01 9.278848e-01 9.612023e-01 9.913117e-01 1.020796e+00 1.047100e+00 1.072622e+00 1.095014e+00 1.116465e+00 1.134855e+00 1.152142e+00 1.166455e+00 1.179502e+00 1.189681e+00 1.198421e+00 1.204419e+00 1.208796e+00 1.210577e+00 1.210536e+00 1.208067e+00 1.203555e+00 1.196805e+00 1.187762e+00 1.176699e+00 1.163063e+00 1.147652e+00 1.129360e+00 1.109561e+00 1.086552e+00 1.062328e+00 1.034550e+00 1.005866e+00 9.732885e-01 9.401215e-01 9.027407e-01 8.650879e-01 8.229419e-01 7.808312e-01 7.340091e-01 6.875112e-01 6.361627e-01 5.854026e-01 5.297467e-01 4.749146e-01 4.152452e-01 3.566057e-01 2.932950e-01 2.311940e-01 1.646942e-01 9.956321e-02 3.040624e-02 -3.723473e-02 -1.084377e-01 -1.779787e-01 -2.505369e-01 -3.212767e-01 -3.944180e-01 -4.655618e-01 -5.384295e-01 -6.090867e-01 -6.807358e-01 -7.499187e-01 -8.193134e-01 -8.859395e-01 -9.519570e-01 -1.014859e+00 -1.076302e+00 -1.134248e+00 -1.189872e+00 -1.241603e+00 -1.290158e+00 -1.334437e+00 -1.374729e+00 -1.410412e+00 -1.441372e+00 -1.467478e+00 -1.488245e+00 -1.504036e+00 -1.514025e+00 -1.519071e+00 -1.518032e+00 -1.512247e+00 -1.500294e+00 -1.483958e+00 -1.461562e+00 -1.435291e+00 -1.403244e+00 -1.367944e+00 -1.327294e+00 -1.284086e+00 -1.236053e+00 -1.186189e+00 -1.132082e+00 -1.076863e+00 -1.017999e+00 -9.587022e-01 -8.963408e-01 -8.341632e-01 -7.694567e-01 -7.054776e-01 -6.394442e-01 -5.746030e-01 -5.081132e-01 
-4.465345e-01 -3.782556e-01 -3.119795e-01 -2.448135e-01 -1.798881e-01 -1.142847e-01 -5.110845e-02 1.258592e-02 7.370555e-02 1.352214e-01 1.940430e-01 2.531636e-01 3.094897e-01 3.660303e-01 4.196891e-01 4.734807e-01 5.243124e-01 5.751902e-01 6.230381e-01 6.708358e-01 7.155427e-01 7.600911e-01 8.014989e-01 8.426281e-01 8.805809e-01 9.181248e-01 9.524728e-01 9.862741e-01 1.016878e+00 1.046793e+00 1.073529e+00 1.099431e+00 1.122189e+00 1.143971e+00 1.162661e+00 1.180233e+00 1.194784e+00 1.208072e+00 1.218429e+00 1.227373e+00 1.233493e+00 1.238039e+00 1.239891e+00 1.239988e+00 1.237544e+00 1.233137e+00 1.226371e+00 1.217398e+00 1.206280e+00 1.192672e+00 1.177167e+00 1.158850e+00 1.138915e+00 1.115814e+00 1.091403e+00 1.063448e+00 1.034516e+00 1.001657e+00 9.681633e-01 9.303754e-01 8.922989e-01 8.495992e-01 8.069456e-01 7.594031e-01 7.122199e-01 6.599670e-01 6.083566e-01 5.515980e-01 4.957301e-01 4.347495e-01 3.748712e-01 3.100345e-01 2.464782e-01 1.782347e-01 1.114228e-01 4.030473e-02 -2.924784e-02 -1.026263e-01 -1.743104e-01 -2.492527e-01 -3.223631e-01 -3.980875e-01 -4.718192e-01 -5.474536e-01 -6.208969e-01 -6.954706e-01 -7.676063e-01 -8.400442e-01 -9.097414e-01 -9.788629e-01 -1.044885e+00 -1.109413e+00 -1.170438e+00 -1.229026e+00 -1.283680e+00 -1.334958e+00 -1.381876e+00 -1.424516e+00 -1.462418e+00 -1.495219e+00 -1.522996e+00 -1.544981e+00 -1.561788e+00 -1.572287e+00 -1.577624e+00 -1.576347e+00 -1.570109e+00 -1.557179e+00 -1.539675e+00 -1.515626e+00 -1.487553e+00 -1.453282e+00 -1.415662e+00 -1.372351e+00 -1.326444e+00 -1.275463e+00 -1.222668e+00 -1.165474e+00 -1.107229e+00 -1.045269e+00 -9.829737e-01 -9.176150e-01 -8.525612e-01 -7.850378e-01 -7.183728e-01 -6.497555e-01 -5.824604e-01 -5.136472e-01 
-4.486381e-01 -3.782894e-01 -3.101366e-01 -2.411741e-01 -1.746398e-01 -1.074844e-01 -4.293544e-02 2.210162e-02 8.439375e-02 1.470804e-01 2.069106e-01 2.670662e-01 3.242706e-01 3.817419e-01 4.361774e-01 4.908205e-01 5.423499e-01 5.940183e-01 6.425009e-01 6.910392e-01 7.363279e-01 7.815715e-01 8.235138e-01 8.652930e-01 9.037352e-01 9.418812e-01 9.766744e-01 1.011026e+00 1.042032e+00 1.072444e+00 1.099538e+00 1.125882e+00 1.148958e+00 1.171127e+00 1.190100e+00 1.208009e+00 1.222811e+00 1.236393e+00 1.246974e+00 1.256174e+00 1.262499e+00 1.267272e+00 1.269313e+00 1.269612e+00 1.267344e+00 1.263116e+00 1.256514e+00 1.247693e+00 1.236721e+00 1.223231e+00 1.207843e+00 1.189593e+00 1.169735e+00 1.146631e+00 1.122235e+00 1.094185e+00 1.065183e+00 1.032109e+00 9.984351e-01 9.602869e-01 9.218896e-01 8.786575e-01 8.355145e-01 7.872443e-01 7.393759e-01 6.861806e-01 6.336655e-01 5.757357e-01 5.187243e-01 4.563350e-01 3.950615e-01 3.285754e-01 2.633656e-01 1.932334e-01 1.245090e-01 5.126806e-02 -2.045117e-02 -9.617916e-02 -1.702748e-01 -2.477836e-01 -3.235364e-01 -4.020320e-01 -4.786179e-01 -5.572106e-01 -6.336929e-01 -7.113863e-01 -7.867072e-01 -8.623867e-01 -9.353605e-01 -1.007787e+00 -1.077102e+00 -1.144916e+00 -1.209152e+00 -1.270901e+00 -1.328564e+00 -1.382747e+00 -1.432337e+00 -1.477483e+00 -1.517574e+00 -1.552339e+00 -1.581688e+00 -1.604967e+00 -1.622622e+00 -1.633649e+00 -1.639045e+00 -1.637486e+00 -1.630506e+00 -1.616498e+00 -1.597497e+00 -1.571645e+00 -1.541419e+00 -1.504739e+00 -1.464449e+00 -1.418276e+00 -1.369341e+00 -1.315211e+00 -1.259192e+00 -1.198722e+00 -1.137211e+00 -1.071991e+00 -1.006513e+00 -9.380255e-01 -8.699716e-01 -7.995332e-01 -7.301170e-01 -6.588505e-01 -5.890905e-01 -5.179175e-01 
-4.511510e-01 -3.784547e-01 -3.080870e-01 -2.371011e-01 -1.686488e-01 -9.975804e-02 -3.355004e-02 3.297751e-02 9.671178e-02 1.606887e-01 2.217861e-01 2.830737e-01 3.414083e-01 3.998894e-01 4.553497e-01 5.109090e-01 5.633809e-01 6.158919e-01 6.652501e-01 7.145693e-01 7.606743e-01 8.066424e-01 8.493432e-01 8.917913e-01 9.309320e-01 9.696895e-01 1.005117e+00 1.040021e+00 1.071592e+00 1.102495e+00 1.130081e+00 1.156856e+00 1.180349e+00 1.202891e+00 1.222204e+00 1.240432e+00 1.255499e+00 1.269352e+00 1.280128e+00 1.289558e+00 1.296013e+00 1.300981e+00 1.303095e+00 1.303558e+00 1.301315e+00 1.297222e+00 1.290602e+00 1.281884e+00 1.270857e+00 1.257430e+00 1.241951e+00 1.223713e+00 1.203724e+00 1.180562e+00 1.155988e+00 1.127788e+00 1.098546e+00 1.065204e+00 1.031209e+00 9.926485e-01 9.538232e-01 9.100075e-01 8.663014e-01 8.172504e-01 7.686538e-01 7.144584e-01 6.610203e-01 6.018533e-01 5.436977e-01 4.798218e-01 4.171608e-01 3.489315e-01 2.820742e-01 2.099394e-01 1.392962e-01 6.379358e-02 -1.012265e-02 -8.836907e-02 -1.649429e-01 -2.452234e-01 -3.237350e-01 -4.052502e-01 -4.848694e-01 -5.667193e-01 -6.464951e-01 -7.276628e-01 -8.065090e-01 -8.858424e-01 -9.625240e-01 -1.038722e+00 -1.111851e+00 -1.183462e+00 -1.251506e+00 -1.316951e+00 -1.378275e+00 -1.435895e+00 -1.488825e+00 -1.536971e+00 -1.579897e+00 -1.617039e+00 -1.648537e+00 -1.673403e+00 -1.692369e+00 -1.704070e+00 -1.709838e+00 -1.707977e+00 -1.700399e+00 -1.685127e+00 -1.664602e+00 -1.636611e+00 -1.604045e+00 -1.564502e+00 -1.521222e+00 -1.471651e+00 -1.419272e+00 -1.361413e+00 -1.301697e+00 -1.237365e+00 -1.172087e+00 -1.103045e+00 -1.033885e+00 -9.617505e-01 -8.902169e-01 -8.164029e-01 -7.437879e-01 -6.694741e-01 -5.968387e-01 -5.229700e-01 