# vtk DataFile Version 2.0
Comment goes here
ASCII

DATASET STRUCTURED_POINTS
FIELD FieldData 1
TIME 1 1 double
0.24500000
DIMENSIONS    128   128   1

ORIGIN    0.000   0.000   0.000
SPACING   0.039062 0.039062   1.000

POINT_DATA   16384
SCALARS uX double
LOOKUP_TABLE default

-4.561895e-02 -3.520527e-02 -2.578806e-02 -1.493476e-02 -5.276240e-03 5.862569e-03 1.560735e-02 2.686595e-02 3.653204e-02 4.773665e-02 5.715321e-02 6.812619e-02 7.712120e-02 8.768589e-02 9.609136e-02 1.060773e-01 1.137348e-01 1.229830e-01 1.297495e-01 1.381179e-01 1.438708e-01 1.512390e-01 1.558809e-01 1.621542e-01 1.656167e-01 1.707286e-01 1.729745e-01 1.768882e-01 1.779123e-01 1.806206e-01 1.804491e-01 1.819727e-01 1.806605e-01 1.810449e-01 1.786723e-01 1.779838e-01 1.746519e-01 1.729726e-01 1.687977e-01 1.662205e-01 1.613286e-01 1.579519e-01 1.524729e-01 1.483961e-01 1.424589e-01 1.377778e-01 1.315057e-01 1.263095e-01 1.198163e-01 1.141854e-01 1.075726e-01 1.015771e-01 9.493247e-02 8.863200e-02 8.202853e-02 7.547266e-02 6.896864e-02 6.219827e-02 5.583807e-02 4.888712e-02 4.270254e-02 3.560003e-02 2.961205e-02 2.238421e-02 1.660494e-02 9.277251e-03 3.711982e-03 -3.689134e-03 -9.039972e-03 -1.648578e-02 -2.162483e-02 -2.908343e-02 -3.401489e-02 -4.145082e-02 -4.617912e-02 -5.355347e-02 -5.808229e-02 -6.535304e-02 -6.968446e-02 -7.680717e-02 -8.094094e-02 -8.786938e-02 -9.180229e-02 -9.848898e-02 -1.022141e-01 -1.086107e-01 -1.121167e-01 -1.181740e-01 -1.214439e-01 -1.271116e-01 -1.301225e-01 -1.353487e-01 -1.380705e-01 -1.428011e-01 -1.451960e-01 -1.493744e-01 -1.513973e-01 -1.549641e-01 -1.565625e-01 -1.594562e-01 -1.605715e-01 -1.627291e-01 -1.632988e-01 -1.646574e-01 -1.646172e-01 -1.651163e-01 -1.644031e-01 -1.639868e-01 -1.625420e-01 -1.611622e-01 -1.589349e-01 -1.565537e-01 -1.535039e-01 -1.500963e-01 -1.461981e-01 -1.417542e-01 -1.369977e-01 -1.315250e-01 -1.259186e-01 -1.194429e-01 -1.130143e-01 -1.055811e-01 -9.837846e-02 -9.005309e-02 -8.214487e-02 -7.301265e-02 -6.448750e-02 -5.465307e-02 
-4.569490e-02 -3.524895e-02 -2.580291e-02 -1.491513e-02 -5.226797e-03 5.948261e-03 1.572342e-02 2.701952e-02 3.671604e-02 4.795879e-02 5.740524e-02 6.841631e-02 7.743998e-02 8.804194e-02 9.647411e-02 1.064957e-01 1.141772e-01 1.234586e-01 1.302456e-01 1.386440e-01 1.444132e-01 1.518076e-01 1.564611e-01 1.627560e-01 1.662249e-01 1.713535e-01 1.736003e-01 1.775256e-01 1.785451e-01 1.812598e-01 1.810781e-01 1.826032e-01 1.812756e-01 1.816568e-01 1.792641e-01 1.785681e-01 1.752118e-01 1.735214e-01 1.693185e-01 1.667272e-01 1.618044e-01 1.584113e-01 1.528992e-01 1.488042e-01 1.428326e-01 1.381320e-01 1.318248e-01 1.266085e-01 1.200802e-01 1.144289e-01 1.077817e-01 1.017657e-01 9.508797e-02 8.876718e-02 8.213232e-02 7.555637e-02 6.902312e-02 6.223291e-02 5.584596e-02 4.887537e-02 4.266677e-02 3.554471e-02 2.953559e-02 2.228819e-02 1.649075e-02 9.143376e-03 3.562903e-03 -3.858075e-03 -9.221211e-03 -1.668708e-02 -2.183565e-02 -2.931447e-02 -3.425283e-02 -4.170906e-02 -4.644188e-02 -5.383645e-02 -5.836764e-02 -6.565836e-02 -6.999029e-02 -7.713252e-02 -8.126525e-02 -8.821255e-02 -9.214319e-02 -9.884795e-02 -1.025699e-01 -1.089836e-01 -1.124858e-01 -1.185592e-01 -1.218250e-01 -1.275077e-01 -1.305143e-01 -1.357544e-01 -1.384719e-01 -1.432153e-01 -1.456060e-01 -1.497961e-01 -1.518148e-01 -1.553922e-01 -1.569862e-01 -1.598891e-01 -1.609998e-01 -1.631650e-01 -1.637297e-01 -1.650941e-01 -1.650480e-01 -1.655509e-01 -1.648306e-01 -1.644159e-01 -1.629626e-01 -1.615816e-01 -1.593442e-01 -1.569589e-01 -1.538973e-01 -1.504824e-01 -1.465704e-01 -1.421160e-01 -1.373436e-01 -1.318570e-01 -1.262325e-01 -1.197396e-01 -1.132909e-01 -1.058371e-01 -9.861230e-02 -9.026314e-02 -8.233080e-02 -7.317172e-02 -6.462065e-02 -5.475653e-02 
-4.610080e-02 -3.561727e-02 -2.612915e-02 -1.519877e-02 -5.462715e-03 5.758973e-03 1.558625e-02 2.693175e-02 3.668327e-02 4.797670e-02 5.747928e-02 6.854061e-02 7.761962e-02 8.826957e-02 9.675423e-02 1.068196e-01 1.145487e-01 1.238679e-01 1.306957e-01 1.391244e-01 1.449259e-01 1.523416e-01 1.570177e-01 1.633242e-01 1.668053e-01 1.719356e-01 1.741841e-01 1.781014e-01 1.791125e-01 1.818105e-01 1.816114e-01 1.831123e-01 1.817599e-01 1.821111e-01 1.796881e-01 1.789584e-01 1.755684e-01 1.738426e-01 1.696047e-01 1.669782e-01 1.620212e-01 1.585948e-01 1.530513e-01 1.489264e-01 1.429276e-01 1.382017e-01 1.318726e-01 1.266362e-01 1.200920e-01 1.144259e-01 1.077691e-01 1.017438e-01 9.506251e-02 8.873712e-02 8.210440e-02 7.552799e-02 6.900169e-02 6.221427e-02 5.583810e-02 4.887257e-02 4.267744e-02 3.556177e-02 2.956768e-02 2.232707e-02 1.654512e-02 9.204175e-03 3.638663e-03 -3.776854e-03 -9.126392e-03 -1.658818e-02 -2.172517e-02 -2.920153e-02 -3.413079e-02 -4.158623e-02 -4.631273e-02 -5.370811e-02 -5.823593e-02 -6.552895e-02 -6.986051e-02 -7.700637e-02 -8.114178e-02 -8.809397e-02 -9.203036e-02 -9.874124e-02 -1.024721e-01 -1.088933e-01 -1.124076e-01 -1.184901e-01 -1.217715e-01 -1.274652e-01 -1.304911e-01 -1.357443e-01 -1.384848e-01 -1.432436e-01 -1.456612e-01 -1.498691e-01 -1.519181e-01 -1.555157e-01 -1.571432e-01 -1.600683e-01 -1.612149e-01 -1.634038e-01 -1.640056e-01 -1.653944e-01 -1.653857e-01 -1.659125e-01 -1.652285e-01 -1.648363e-01 -1.634168e-01 -1.620560e-01 -1.598485e-01 -1.574797e-01 -1.544429e-01 -1.510401e-01 -1.471467e-01 -1.426991e-01 -1.379384e-01 -1.324526e-01 -1.268322e-01 -1.203337e-01 -1.138811e-01 -1.064151e-01 -9.917821e-02 -9.081014e-02 -8.285757e-02 -7.367298e-02 -6.509381e-02 -5.519788e-02 
-4.666248e-02 -3.607649e-02 -2.648828e-02 -1.544591e-02 -5.602086e-03 5.739252e-03 1.567990e-02 2.715043e-02 3.701840e-02 4.843949e-02 5.805865e-02 6.924719e-02 7.843958e-02 8.921288e-02 9.780419e-02 1.079855e-01 1.158109e-01 1.252352e-01 1.321455e-01 1.406650e-01 1.465322e-01 1.540219e-01 1.587443e-01 1.651061e-01 1.686125e-01 1.737781e-01 1.760302e-01 1.799628e-01 1.809561e-01 1.836500e-01 1.834130e-01 1.848923e-01 1.834839e-01 1.837983e-01 1.813040e-01 1.805253e-01 1.770520e-01 1.752680e-01 1.709384e-01 1.682479e-01 1.631941e-01 1.597010e-01 1.540591e-01 1.498675e-01 1.437718e-01 1.389813e-01 1.325593e-01 1.272621e-01 1.206312e-01 1.149093e-01 1.081735e-01 1.020976e-01 9.534613e-02 8.897542e-02 8.228164e-02 7.566460e-02 6.908646e-02 6.226221e-02 5.584307e-02 4.884342e-02 4.261356e-02 3.546527e-02 2.944386e-02 2.217101e-02 1.636820e-02 8.994389e-03 3.413494e-03 -4.036269e-03 -9.396685e-03 -1.689456e-02 -2.203883e-02 -2.955326e-02 -3.448703e-02 -4.198241e-02 -4.671136e-02 -5.414819e-02 -5.867708e-02 -6.601253e-02 -7.034445e-02 -7.753318e-02 -8.166886e-02 -8.866385e-02 -9.260112e-02 -9.935438e-02 -1.030875e-01 -1.095505e-01 -1.130691e-01 -1.191929e-01 -1.224815e-01 -1.282161e-01 -1.312525e-01 -1.365467e-01 -1.393016e-01 -1.441016e-01 -1.465375e-01 -1.507868e-01 -1.528579e-01 -1.564969e-01 -1.581494e-01 -1.611153e-01 -1.622887e-01 -1.645168e-01 -1.651459e-01 -1.665710e-01 -1.665881e-01 -1.671468e-01 -1.664854e-01 -1.661189e-01 -1.647166e-01 -1.633736e-01 -1.611762e-01 -1.588159e-01 -1.557804e-01 -1.523752e-01 -1.484729e-01 -1.440111e-01 -1.392303e-01 -1.337176e-01 -1.280653e-01 -1.215267e-01 -1.150299e-01 -1.075105e-01 -1.002170e-01 -9.178226e-02 -8.376105e-02 -7.449702e-02 -6.583772e-02 -5.585030e-02 
-4.756262e-02 -3.686844e-02 -2.716626e-02 -1.600320e-02 -6.032874e-03 5.439229e-03 1.551599e-02 2.712432e-02 3.713446e-02 4.869678e-02 5.846003e-02 6.978902e-02 7.912280e-02 9.003124e-02 9.875629e-02 1.090627e-01 1.170092e-01 1.265440e-01 1.335580e-01 1.421692e-01 1.481186e-01 1.556779e-01 1.604579e-01 1.668648e-01 1.704021e-01 1.755874e-01 1.778433e-01 1.817706e-01 1.827415e-01 1.854070e-01 1.851235e-01 1.865541e-01 1.850788e-01 1.853283e-01 1.827510e-01 1.818955e-01 1.783280e-01 1.764602e-01 1.720304e-01 1.692537e-01 1.640988e-01 1.605214e-01 1.547820e-01 1.505114e-01 1.443256e-01 1.394644e-01 1.329628e-01 1.276049e-01 1.209070e-01 1.151353e-01 1.083461e-01 1.022313e-01 9.544020e-02 8.904068e-02 8.232059e-02 7.568341e-02 6.909094e-02 6.225340e-02 5.583015e-02 4.882196e-02 4.259617e-02 3.544198e-02 2.943060e-02 2.215253e-02 1.636351e-02 8.983476e-03 3.418129e-03 -4.040163e-03 -9.385034e-03 -1.689459e-02 -2.202475e-02 -2.955442e-02 -3.447660e-02 -4.199075e-02 -4.671143e-02 -5.417024e-02 -5.869469e-02 -6.605485e-02 -7.038652e-02 -7.760213e-02 -8.174208e-02 -8.876571e-02 -9.271213e-02 -9.949560e-02 -1.032432e-01 -1.097380e-01 -1.132771e-01 -1.194348e-01 -1.227503e-01 -1.285215e-01 -1.315922e-01 -1.369260e-01 -1.397228e-01 -1.445664e-01 -1.470519e-01 -1.513488e-01 -1.534768e-01 -1.571671e-01 -1.588829e-01 -1.619030e-01 -1.631445e-01 -1.654284e-01 -1.661279e-01 -1.676084e-01 -1.676958e-01 -1.683073e-01 -1.677127e-01 -1.673940e-01 -1.660521e-01 -1.647491e-01 -1.626027e-01 -1.602723e-01 -1.572756e-01 -1.538881e-01 -1.500102e-01 -1.455520e-01 -1.407793e-01 -1.352549e-01 -1.295931e-01 -1.230264e-01 -1.165017e-01 -1.089374e-01 -1.015975e-01 -9.310107e-02 -8.501498e-02 -7.567276e-02 -6.693085e-02 -5.684959e-02 
-4.863035e-02 -3.776204e-02 -2.788687e-02 -1.653245e-02 -6.374305e-03 5.303144e-03 1.557882e-02 2.740240e-02 3.761798e-02 4.940059e-02 5.937043e-02 7.091914e-02 8.045459e-02 9.157598e-02 1.004913e-01 1.109974e-01 1.191160e-01 1.288308e-01 1.359924e-01 1.447581e-01 1.508249e-01 1.585082e-01 1.633708e-01 1.698677e-01 1.734500e-01 1.786894e-01 1.809513e-01 1.848967e-01 1.858353e-01 1.884847e-01 1.881334e-01 1.895169e-01 1.879422e-01 1.881184e-01 1.854155e-01 1.844660e-01 1.807530e-01 1.787767e-01 1.741878e-01 1.712941e-01 1.659733e-01 1.622760e-01 1.563700e-01 1.519818e-01 1.456340e-01 1.406613e-01 1.340071e-01 1.285467e-01 1.217090e-01 1.158454e-01 1.089317e-01 1.027363e-01 9.583742e-02 8.936811e-02 8.255725e-02 7.585977e-02 6.919319e-02 6.230291e-02 5.582111e-02 4.876547e-02 4.249507e-02 3.529634e-02 2.925239e-02 2.193038e-02 1.611880e-02 8.693454e-03 3.113501e-03 -4.392963e-03 -9.746397e-03 -1.730792e-02 -2.244230e-02 -3.002805e-02 -3.495158e-02 -4.252570e-02 -4.724610e-02 -5.476810e-02 -5.929170e-02 -6.671731e-02 -7.104853e-02 -7.833085e-02 -8.247172e-02 -8.956241e-02 -9.351215e-02 -1.003625e-01 -1.041169e-01 -1.106782e-01 -1.142290e-01 -1.204529e-01 -1.237863e-01 -1.296241e-01 -1.327198e-01 -1.381214e-01 -1.409512e-01 -1.458641e-01 -1.483909e-01 -1.527590e-01 -1.549361e-01 -1.586991e-01 -1.604705e-01 -1.635639e-01 -1.648653e-01 -1.672212e-01 -1.679822e-01 -1.695310e-01 -1.696779e-01 -1.703510e-01 -1.698104e-01 -1.695434e-01 -1.682461e-01 -1.669818e-01 -1.648671e-01 -1.625593e-01 -1.595782e-01 -1.561945e-01 -1.523136e-01 -1.478384e-01 -1.430420e-01 -1.374782e-01 -1.317707e-01 -1.251414e-01 -1.185484e-01 -1.108977e-01 -1.034665e-01 -9.486014e-02 -8.666032e-02 -7.718534e-02 -6.830818e-02 -5.807254e-02 
-5.005387e-02 -3.900493e-02 -2.894157e-02 -1.738595e-02 -7.019601e-03 4.875789e-03 1.537512e-02 2.742856e-02 3.787763e-02 4.989615e-02 6.010268e-02 7.188661e-02 8.165443e-02 9.300286e-02 1.021381e-01 1.128552e-01 1.211732e-01 1.310753e-01 1.384076e-01 1.473299e-01 1.535320e-01 1.613354e-01 1.662924e-01 1.728689e-01 1.765014e-01 1.817782e-01 1.840450e-01 1.879861e-01 1.888859e-01 1.914922e-01 1.910619e-01 1.923683e-01 1.906803e-01 1.907518e-01 1.879084e-01 1.868342e-01 1.829615e-01 1.808482e-01 1.760892e-01 1.730539e-01 1.675605e-01 1.637242e-01 1.576506e-01 1.531316e-01 1.466280e-01 1.415373e-01 1.347437e-01 1.291812e-01 1.222240e-01 1.162757e-01 1.092645e-01 1.030015e-01 9.602754e-02 8.950661e-02 8.264222e-02 7.590677e-02 6.920631e-02 6.228870e-02 5.578999e-02 4.871430e-02 4.244075e-02 3.522580e-02 2.918903e-02 2.185147e-02 1.605400e-02 8.611054e-03 3.048985e-03 -4.479164e-03 -9.813680e-03 -1.740226e-02 -2.251892e-02 -3.013762e-02 -3.504633e-02 -4.265911e-02 -4.736875e-02 -5.493442e-02 -5.945215e-02 -6.692541e-02 -7.125619e-02 -7.858906e-02 -8.273544e-02 -8.987872e-02 -9.384054e-02 -1.007450e-01 -1.045190e-01 -1.111362e-01 -1.147149e-01 -1.209970e-01 -1.243681e-01 -1.302674e-01 -1.334117e-01 -1.388793e-01 -1.417697e-01 -1.467540e-01 -1.493536e-01 -1.537992e-01 -1.560608e-01 -1.599070e-01 -1.617732e-01 -1.649542e-01 -1.663581e-01 -1.688037e-01 -1.696712e-01 -1.713089e-01 -1.715617e-01 -1.723191e-01 -1.718791e-01 -1.716874e-01 -1.704803e-01 -1.692783e-01 -1.672384e-01 -1.649759e-01 -1.620500e-01 -1.586913e-01 -1.548423e-01 -1.503689e-01 -1.455784e-01 -1.399910e-01 -1.342613e-01 -1.275818e-01 -1.209373e-01 -1.132091e-01 -1.056969e-01 -9.698567e-02 -8.867564e-02 -7.906895e-02 -7.005347e-02 -5.966065e-02 
-5.166516e-02 -4.036790e-02 -3.005571e-02 -1.822607e-02 -7.588117e-03 4.602387e-03 1.539073e-02 2.775455e-02 3.850342e-02 5.084049e-02 6.134967e-02 7.345202e-02 8.351633e-02 9.517381e-02 1.045895e-01 1.155966e-01 1.241688e-01 1.343319e-01 1.418826e-01 1.510279e-01 1.574036e-01 1.653846e-01 1.704635e-01 1.771667e-01 1.808649e-01 1.862146e-01 1.884891e-01 1.924494e-01 1.933001e-01 1.958747e-01 1.953426e-01 1.965717e-01 1.947355e-01 1.946917e-01 1.916621e-01 1.904431e-01 1.863559e-01 1.840777e-01 1.790858e-01 1.758749e-01 1.701401e-01 1.661260e-01 1.598119e-01 1.551205e-01 1.483852e-01 1.431333e-01 1.361237e-01 1.304152e-01 1.232627e-01 1.171860e-01 1.100033e-01 1.036302e-01 9.651034e-02 8.989641e-02 8.291195e-02 7.609841e-02 6.930265e-02 6.231866e-02 5.574736e-02 4.861331e-02 4.228715e-02 3.501800e-02 2.894545e-02 2.155420e-02 1.573448e-02 8.235267e-03 2.661264e-03 -4.928072e-03 -1.026714e-02 -1.792325e-02 -2.303963e-02 -3.073265e-02 -3.563834e-02 -4.333180e-02 -4.803738e-02 -5.568893e-02 -6.020292e-02 -6.776569e-02 -7.209425e-02 -7.951856e-02 -8.366545e-02 -9.090067e-02 -9.486708e-02 -1.018631e-01 -1.056473e-01 -1.123553e-01 -1.159519e-01 -1.223247e-01 -1.257231e-01 -1.317140e-01 -1.348970e-01 -1.404584e-01 -1.434002e-01 -1.484819e-01 -1.511461e-01 -1.556931e-01 -1.580320e-01 -1.619835e-01 -1.639378e-01 -1.672264e-01 -1.687260e-01 -1.712790e-01 -1.722453e-01 -1.739863e-01 -1.743361e-01 -1.751880e-01 -1.748372e-01 -1.747264e-01 -1.735949e-01 -1.724553e-01 -1.704719e-01 -1.682485e-01 -1.653554e-01 -1.620086e-01 -1.581645e-01 -1.536726e-01 -1.488563e-01 -1.432179e-01 -1.374298e-01 -1.306652e-01 -1.239285e-01 -1.160807e-01 -1.084422e-01 -9.957704e-02 -9.110724e-02 -8.131319e-02 -7.210579e-02 -6.149386e-02 
-5.365907e-02 -4.210583e-02 -3.152767e-02 -1.941248e-02 -8.480033e-03 4.020426e-03 1.512561e-02 2.781718e-02 3.889749e-02 5.157197e-02 6.241794e-02 7.485775e-02 8.525353e-02 9.723776e-02 1.069680e-01 1.182796e-01 1.271373e-01 1.375715e-01 1.453669e-01 1.547394e-01 1.613088e-01 1.694643e-01 1.746779e-01 1.814970e-01 1.852657e-01 1.906699e-01 1.929492e-01 1.969033e-01 1.976950e-01 2.002069e-01 1.995576e-01 2.006749e-01 1.986716e-01 1.984761e-01 1.952402e-01 1.938407e-01 1.895199e-01 1.870440e-01 1.818034e-01 1.783887e-01 1.724023e-01 1.681884e-01 1.616306e-01 1.567519e-01 1.497899e-01 1.443698e-01 1.371575e-01 1.313040e-01 1.239778e-01 1.177812e-01 1.104566e-01 1.039884e-01 9.675878e-02 9.007270e-02 8.300937e-02 7.614298e-02 6.929647e-02 6.227448e-02 5.567663e-02 4.851440e-02 4.218129e-02 3.488876e-02 2.882393e-02 2.140947e-02 1.560730e-02 8.081146e-03 2.530084e-03 -5.092827e-03 -1.040740e-02 -1.810544e-02 -2.319883e-02 -3.094271e-02 -3.582914e-02 -4.358189e-02 -4.827346e-02 -5.599139e-02 -6.049751e-02 -6.813195e-02 -7.245938e-02 -7.995879e-02 -8.411181e-02 -9.142403e-02 -9.540461e-02 -1.024787e-01 -1.062863e-01 -1.130736e-01 -1.167044e-01 -1.231586e-01 -1.266042e-01 -1.326804e-01 -1.359255e-01 -1.415782e-01 -1.445987e-01 -1.497793e-01 -1.525400e-01 -1.571947e-01 -1.596473e-01 -1.637150e-01 -1.657982e-01 -1.692100e-01 -1.708501e-01 -1.735300e-01 -1.746432e-01 -1.765102e-01 -1.770067e-01 -1.779783e-01 -1.777668e-01 -1.777632e-01 -1.767563e-01 -1.757052e-01 -1.738248e-01 -1.716657e-01 -1.688477e-01 -1.655360e-01 -1.617341e-01 -1.572443e-01 -1.524335e-01 -1.467613e-01 -1.409392e-01 -1.341031e-01 -1.272916e-01 -1.193337e-01 -1.115793e-01 -1.025653e-01 -9.393885e-02 -8.395828e-02 -7.455499e-02 -6.372046e-02 
-5.587001e-02 -4.399075e-02 -3.308374e-02 -2.060726e-02 -9.314063e-03 3.577123e-03 1.506808e-02 2.817225e-02 3.965464e-02 5.275421e-02 6.400796e-02 7.687414e-02 8.767107e-02 1.000702e-01 1.101813e-01 1.218828e-01 1.310868e-01 1.418720e-01 1.499652e-01 1.596369e-01 1.664431e-01 1.748352e-01 1.802146e-01 1.871998e-01 1.910567e-01 1.965526e-01 1.988401e-01 2.028117e-01 2.035334e-01 2.059927e-01 2.052011e-01 2.062036e-01 2.039951e-01 2.036333e-01 2.001413e-01 1.985367e-01 1.939223e-01 1.912158e-01 1.856585e-01 1.820008e-01 1.756885e-01 1.712313e-01 1.643510e-01 1.592391e-01 1.519692e-01 1.463339e-01 1.388372e-01 1.327920e-01 1.252114e-01 1.188495e-01 1.113046e-01 1.046977e-01 9.728391e-02 9.048387e-02 8.327218e-02 7.631306e-02 6.935205e-02 6.225372e-02 5.557197e-02 4.834426e-02 4.195367e-02 3.460088e-02 2.850033e-02 2.102551e-02 1.520459e-02 7.613512e-03 2.056103e-03 -5.639620e-03 -1.095222e-02 -1.873292e-02 -2.381945e-02 -3.165634e-02 -3.653373e-02 -4.438902e-02 -4.907140e-02 -5.689951e-02 -6.139782e-02 -6.914752e-02 -7.346976e-02 -8.108682e-02 -8.523857e-02 -9.266851e-02 -9.665334e-02 -1.038438e-01 -1.076632e-01 -1.145652e-01 -1.182180e-01 -1.247862e-01 -1.282669e-01 -1.344583e-01 -1.377544e-01 -1.435258e-01 -1.466156e-01 -1.519208e-01 -1.547700e-01 -1.595566e-01 -1.621165e-01 -1.663234e-01 -1.685304e-01 -1.720869e-01 -1.738628e-01 -1.766891e-01 -1.779440e-01 -1.799538e-01 -1.805903e-01 -1.816944e-01 -1.816131e-01 -1.817246e-01 -1.808297e-01 -1.798692e-01 -1.780750e-01 -1.759755e-01 -1.732111e-01 -1.699226e-01 -1.661365e-01 -1.616291e-01 -1.567922e-01 -1.510587e-01 -1.451663e-01 -1.382235e-01 -1.312960e-01 -1.231852e-01 -1.152688e-01 -1.060560e-01 -9.722233e-02 -8.699810e-02 -7.734403e-02 -6.622312e-02 
-5.850093e-02 -4.628650e-02 -3.503094e-02 -2.217941e-02 -1.049923e-02 2.800557e-03 1.470926e-02 2.824725e-02 4.016834e-02 5.371640e-02 6.541771e-02 7.873437e-02 8.997353e-02 1.028106e-01 1.133427e-01 1.254538e-01 1.350411e-01 1.461916e-01 1.546139e-01 1.645920e-01 1.716585e-01 1.802856e-01 1.858449e-01 1.929851e-01 1.969344e-01 2.025011e-01 2.047911e-01 2.087504e-01 2.093875e-01 2.117575e-01 2.108019e-01 2.116482e-01 2.092083e-01 2.086369e-01 2.048609e-01 2.030085e-01 1.980742e-01 1.950978e-01 1.892017e-01 1.852676e-01 1.786139e-01 1.738878e-01 1.666782e-01 1.613162e-01 1.537414e-01 1.478835e-01 1.401159e-01 1.338809e-01 1.260697e-01 1.195529e-01 1.118210e-01 1.050937e-01 9.753662e-02 9.064733e-02 8.333420e-02 7.631182e-02 6.928706e-02 6.214499e-02 5.543163e-02 4.817263e-02 4.177614e-02 3.439743e-02 2.830992e-02 2.080811e-02 1.501260e-02 7.388087e-03 1.862469e-03 -5.877013e-03 -1.115650e-02 -1.899349e-02 -2.404952e-02 -3.195573e-02 -3.680796e-02 -4.474453e-02 -4.940872e-02 -5.732776e-02 -6.181565e-02 -6.966293e-02 -7.398282e-02 -8.170103e-02 -8.585880e-02 -9.339095e-02 -9.739086e-02 -1.046832e-01 -1.085282e-01 -1.155319e-01 -1.192232e-01 -1.258944e-01 -1.294295e-01 -1.357279e-01 -1.390979e-01 -1.449840e-01 -1.481699e-01 -1.536004e-01 -1.565700e-01 -1.614946e-01 -1.641993e-01 -1.685571e-01 -1.709309e-01 -1.746492e-01 -1.766089e-01 -1.796038e-01 -1.810524e-01 -1.832309e-01 -1.840621e-01 -1.853274e-01 -1.854315e-01 -1.856881e-01 -1.849594e-01 -1.841192e-01 -1.824622e-01 -1.804507e-01 -1.777864e-01 -1.745470e-01 -1.708172e-01 -1.663149e-01 -1.614857e-01 -1.557099e-01 -1.497732e-01 -1.427384e-01 -1.357132e-01 -1.274596e-01 -1.193917e-01 -1.099855e-01 -1.009473e-01 -9.047997e-02 -8.057000e-02 -6.915837e-02 
-6.138821e-02 -4.876569e-02 -3.709602e-02 -2.379007e-02 -1.165310e-02 2.140598e-03 1.454055e-02 2.860279e-02 4.103884e-02 5.512975e-02 6.735631e-02 8.122001e-02 9.297866e-02 1.063502e-01 1.173779e-01 1.299926e-01 1.400321e-01 1.516365e-01 1.604486e-01 1.708129e-01 1.781893e-01 1.871198e-01 1.928954e-01 2.002453e-01 2.043077e-01 2.099849e-01 2.122817e-01 2.162524e-01 2.167928e-01 2.190813e-01 2.179337e-01 2.186169e-01 2.159028e-01 2.151017e-01 2.109858e-01 2.088547e-01 2.035335e-01 2.002477e-01 1.939371e-01 1.896807e-01 1.826035e-01 1.775583e-01 1.699332e-01 1.642693e-01 1.563013e-01 1.501688e-01 1.420418e-01 1.355664e-01 1.274377e-01 1.207181e-01 1.127153e-01 1.058224e-01 9.804312e-02 9.102244e-02 8.353454e-02 7.640955e-02 6.925432e-02 6.203140e-02 5.522696e-02 4.790098e-02 4.144678e-02 3.400697e-02 2.788855e-02 2.032414e-02 1.451791e-02 6.823095e-03 1.300760e-03 -6.521248e-03 -1.178885e-02 -1.972315e-02 -2.476306e-02 -3.278183e-02 -3.761700e-02 -4.567990e-02 -5.032828e-02 -5.838437e-02 -6.285913e-02 -7.085014e-02 -7.516061e-02 -8.302498e-02 -8.717812e-02 -9.485524e-02 -9.885697e-02 -1.062908e-01 -1.101466e-01 -1.172879e-01 -1.210025e-01 -1.278091e-01 -1.313841e-01 -1.378189e-01 -1.412499e-01 -1.472773e-01 -1.505491e-01 -1.561301e-01 -1.592125e-01 -1.642995e-01 -1.671440e-01 -1.716767e-01 -1.742144e-01 -1.781180e-01 -1.802599e-01 -1.834455e-01 -1.850861e-01 -1.874534e-01 -1.884759e-01 -1.899188e-01 -1.902023e-01 -1.906152e-01 -1.900425e-01 -1.893278e-01 -1.877931e-01 -1.858672e-01 -1.832827e-01 -1.800819e-01 -1.763826e-01 -1.718665e-01 -1.670136e-01 -1.611680e-01 -1.551505e-01 -1.479878e-01 -1.408231e-01 -1.323829e-01 -1.241167e-01 -1.144655e-01 -1.051711e-01 -9.440171e-02 -8.417945e-02 -7.241102e-02 
-6.474476e-02 -5.170324e-02 -3.959665e-02 -2.581980e-02 -1.319566e-02 1.113641e-03 1.404210e-02 2.865477e-02 4.164887e-02 5.631209e-02 6.911119e-02 8.355297e-02 9.588044e-02 1.098169e-01 1.213888e-01 1.345340e-01 1.450708e-01 1.571497e-01 1.663899e-01 1.771521e-01 1.848670e-01 1.941016e-01 2.001098e-01 2.076576e-01 2.118367e-01 2.176000e-01 2.198941e-01 2.238407e-01 2.242629e-01 2.264252e-01 2.250551e-01 2.255243e-01 2.224996e-01 2.214154e-01 2.169212e-01 2.144590e-01 2.087145e-01 2.050713e-01 1.983151e-01 1.936960e-01 1.861728e-01 1.807780e-01 1.727257e-01 1.667401e-01 1.583799e-01 1.519648e-01 1.434923e-01 1.367800e-01 1.283603e-01 1.214517e-01 1.132163e-01 1.061807e-01 9.822674e-02 9.110482e-02 8.349695e-02 7.630467e-02 6.907818e-02 6.181282e-02 5.497808e-02 4.762468e-02 4.117234e-02 3.371046e-02 2.761695e-02 2.002704e-02 1.426002e-02 6.529118e-03 1.052436e-03 -6.821356e-03 -1.204336e-02 -2.004785e-02 -2.504707e-02 -3.315473e-02 -3.795724e-02 -4.612572e-02 -5.075101e-02 -5.892561e-02 -6.338710e-02 -7.150471e-02 -7.581133e-02 -8.380545e-02 -8.796375e-02 -9.576969e-02 -9.978594e-02 -1.073454e-01 -1.112267e-01 -1.184904e-01 -1.222447e-01 -1.291729e-01 -1.328064e-01 -1.393666e-01 -1.428801e-01 -1.490423e-01 -1.524258e-01 -1.581563e-01 -1.613831e-01 -1.666381e-01 -1.696607e-01 -1.743811e-01 -1.771280e-01 -1.812366e-01 -1.836128e-01 -1.870149e-01 -1.889051e-01 -1.914917e-01 -1.927667e-01 -1.944208e-01 -1.949461e-01 -1.955503e-01 -1.951947e-01 -1.946398e-01 -1.932849e-01 -1.914772e-01 -1.890243e-01 -1.858915e-01 -1.822674e-01 -1.777631e-01 -1.729231e-01 -1.670288e-01 -1.609584e-01 -1.536841e-01 -1.463992e-01 -1.377835e-01 -1.293295e-01 -1.194391e-01 -1.098904e-01 -9.881932e-02 -8.827822e-02 -7.614774e-02 
-6.840834e-02 -5.487167e-02 -4.225962e-02 -2.792833e-02 -1.474313e-02 1.724448e-04 1.370838e-02 2.896870e-02 4.260412e-02 5.794234e-02 7.140024e-02 8.652650e-02 9.950998e-02 1.141189e-01 1.263204e-01 1.401018e-01 1.512161e-01 1.638695e-01 1.736089e-01 1.848595e-01 1.929715e-01 2.025873e-01 2.088712e-01 2.166779e-01 2.209985e-01 2.268906e-01 2.291875e-01 2.331334e-01 2.334237e-01 2.354646e-01 2.338395e-01 2.340823e-01 2.306977e-01 2.293029e-01 2.243666e-01 2.215335e-01 2.152897e-01 2.112401e-01 2.039531e-01 1.989159e-01 1.908548e-01 1.850516e-01 1.764763e-01 1.701095e-01 1.612593e-01 1.545033e-01 1.455882e-01 1.385836e-01 1.297784e-01 1.226295e-01 1.140709e-01 1.068459e-01 9.863244e-02 9.136701e-02 8.356111e-02 7.626330e-02 6.889519e-02 6.155228e-02 5.462521e-02 4.721126e-02 4.070745e-02 3.319099e-02 2.707790e-02 1.942929e-02 1.366568e-02 5.863567e-03 4.051377e-04 -7.558404e-03 -1.275428e-02 -2.087032e-02 -2.584097e-02 -3.408227e-02 -3.885751e-02 -4.717922e-02 -5.178070e-02 -6.012329e-02 -6.456535e-02 -7.285943e-02 -7.715130e-02 -8.532373e-02 -8.947241e-02 -9.745282e-02 -1.014659e-01 -1.091924e-01 -1.130800e-01 -1.205027e-01 -1.242772e-01 -1.313590e-01 -1.350328e-01 -1.417464e-01 -1.453271e-01 -1.516493e-01 -1.551328e-01 -1.610369e-01 -1.644009e-01 -1.698481e-01 -1.730458e-01 -1.779789e-01 -1.809356e-01 -1.852751e-01 -1.878882e-01 -1.915329e-01 -1.936756e-01 -1.965062e-01 -1.980352e-01 -1.999218e-01 -2.006870e-01 -2.014985e-01 -2.013534e-01 -2.009673e-01 -1.997797e-01 -1.980906e-01 -1.957506e-01 -1.926772e-01 -1.891030e-01 -1.845923e-01 -1.797339e-01 -1.737631e-01 -1.676028e-01 -1.601801e-01 -1.527324e-01 -1.438960e-01 -1.352064e-01 -1.250236e-01 -1.151676e-01 -1.037338e-01 -9.281588e-02 -8.025470e-02 
-7.260408e-02 -5.855950e-02 -4.541565e-02 -3.051036e-02 -1.672888e-02 -1.180794e-03 1.300626e-02 2.894659e-02 4.327446e-02 5.932496e-02 7.349860e-02 8.934956e-02 1.030494e-01 1.183711e-01 1.312625e-01 1.457171e-01 1.574652e-01 1.707227e-01 1.810094e-01 1.927669e-01 2.013117e-01 2.113129e-01 2.178925e-01 2.259459e-01 2.304107e-01 2.364028e-01 2.386878e-01 2.425891e-01 2.427171e-01 2.445806e-01 2.426579e-01 2.426103e-01 2.388155e-01 2.370430e-01 2.316116e-01 2.283421e-01 2.215486e-01 2.170333e-01 2.091722e-01 2.036675e-01 1.950364e-01 1.887877e-01 1.796714e-01 1.729005e-01 1.635584e-01 1.564533e-01 1.471102e-01 1.398192e-01 1.306591e-01 1.232885e-01 1.144516e-01 1.070666e-01 9.865037e-02 9.127907e-02 8.334052e-02 7.598037e-02 6.854117e-02 6.116684e-02 5.421949e-02 4.679159e-02 4.030644e-02 3.278041e-02 2.671278e-02 1.904727e-02 1.334443e-02 5.508600e-03 1.161002e-04 -7.904603e-03 -1.303760e-02 -2.123754e-02 -2.615425e-02 -3.450604e-02 -3.923967e-02 -4.769510e-02 -5.226834e-02 -6.076189e-02 -6.518829e-02 -7.364296e-02 -7.792991e-02 -8.626477e-02 -9.041746e-02 -9.855561e-02 -1.025810e-01 -1.104568e-01 -1.143665e-01 -1.219299e-01 -1.257406e-01 -1.329582e-01 -1.366891e-01 -1.435409e-01 -1.472077e-01 -1.536795e-01 -1.572866e-01 -1.633605e-01 -1.668919e-01 -1.725359e-01 -1.759475e-01 -1.811070e-01 -1.843218e-01 -1.889151e-01 -1.918226e-01 -1.957406e-01 -1.982010e-01 -2.013122e-01 -2.031654e-01 -2.053250e-01 -2.064019e-01 -2.074625e-01 -2.075982e-01 -2.074217e-01 -2.064669e-01 -2.049345e-01 -2.027658e-01 -1.997857e-01 -1.963112e-01 -1.918230e-01 -1.869862e-01 -1.809626e-01 -1.747423e-01 -1.671894e-01 -1.595990e-01 -1.505542e-01 -1.416394e-01 -1.311705e-01 -1.210083e-01 -1.092120e-01 -9.790911e-02 -8.491110e-02 
-7.717036e-02 -6.253840e-02 -4.879120e-02 -3.322398e-02 -1.876792e-02 -2.490718e-03 1.243263e-02 2.915808e-02 4.427003e-02 6.114561e-02 7.613186e-02 9.282627e-02 1.073422e-01 1.234986e-01 1.371795e-01 1.524284e-01 1.649051e-01 1.788823e-01 1.898016e-01 2.021707e-01 2.112192e-01 2.216946e-01 2.286221e-01 2.369912e-01 2.416305e-01 2.477690e-01 2.500491e-01 2.539287e-01 2.538780e-01 2.555644e-01 2.533057e-01 2.529475e-01 2.486845e-01 2.464966e-01 2.404956e-01 2.367384e-01 2.293073e-01 2.242649e-01 2.157322e-01 2.096924e-01 2.003870e-01 1.936228e-01 1.838575e-01 1.766129e-01 1.666700e-01 1.591493e-01 1.492707e-01 1.416319e-01 1.320127e-01 1.243654e-01 1.151516e-01 1.075581e-01 9.884730e-02 9.132822e-02 8.317330e-02 7.571457e-02 6.812959e-02 6.069190e-02 5.365929e-02 4.618815e-02 3.966667e-02 3.210256e-02 2.603545e-02 1.832342e-02 1.264620e-02 4.744185e-03 -6.082204e-04 -8.722736e-03 -1.381003e-02 -2.213555e-02 -2.700756e-02 -3.551666e-02 -4.021073e-02 -4.885118e-02 -5.339174e-02 -6.209056e-02 -6.649097e-02 -7.516151e-02 -7.942798e-02 -8.797900e-02 -9.211573e-02 -1.004614e-01 -1.044759e-01 -1.125448e-01 -1.164516e-01 -1.241927e-01 -1.280146e-01 -1.353986e-01 -1.391635e-01 -1.461787e-01 -1.499126e-01 -1.565562e-01 -1.602735e-01 -1.665388e-01 -1.702308e-01 -1.760949e-01 -1.797201e-01 -1.851323e-01 -1.886104e-01 -1.934867e-01 -1.966972e-01 -2.009198e-01 -2.037075e-01 -2.071307e-01 -2.093159e-01 -2.117767e-01 -2.131692e-01 -2.145014e-01 -2.149155e-01 -2.149627e-01 -2.142314e-01 -2.128598e-01 -2.108453e-01 -2.079516e-01 -2.045522e-01 -2.000687e-01 -1.952218e-01 -1.891172e-01 -1.827990e-01 -1.750777e-01 -1.673009e-01 -1.580006e-01 -1.488119e-01 -1.380014e-01 -1.274790e-01 -1.152568e-01 -1.035094e-01 -9.000329e-02 
-8.234737e-02 -6.711353e-02 -5.273295e-02 -3.648103e-02 -2.130988e-02 -4.272195e-03 1.143842e-02 2.898874e-02 4.494560e-02 6.269332e-02 7.856131e-02 9.615137e-02 1.115581e-01 1.286031e-01 1.431494e-01 1.592435e-01 1.725208e-01 1.872602e-01 1.988741e-01 2.118832e-01 2.214813e-01 2.324408e-01 2.397413e-01 2.484139e-01 2.532295e-01 2.594799e-01 2.617331e-01 2.655361e-01 2.652637e-01 2.667016e-01 2.640476e-01 2.632970e-01 2.584965e-01 2.558076e-01 2.491643e-01 2.448363e-01 2.366987e-01 2.310547e-01 2.217910e-01 2.151546e-01 2.051305e-01 1.978057e-01 1.873653e-01 1.796204e-01 1.690712e-01 1.611270e-01 1.507286e-01 1.427518e-01 1.327099e-01 1.248111e-01 1.152747e-01 1.075110e-01 9.857459e-02 9.095547e-02 8.266366e-02 7.516004e-02 6.751474e-02 6.006992e-02 5.303884e-02 4.558015e-02 3.910612e-02 3.155655e-02 2.556682e-02 1.785586e-02 1.227100e-02 4.344115e-03 -9.139887e-04 -9.087855e-03 -1.408922e-02 -2.251259e-02 -2.731410e-02 -3.595880e-02 -4.060132e-02 -4.940970e-02 -5.391775e-02 -6.280763e-02 -6.719188e-02 -7.606487e-02 -8.032717e-02 -8.907986e-02 -9.322005e-02 -1.017562e-01 -1.057793e-01 -1.140212e-01 -1.179426e-01 -1.258388e-01 -1.296867e-01 -1.372135e-01 -1.410256e-01 -1.481827e-01 -1.519980e-01 -1.587969e-01 -1.626431e-01 -1.690919e-01 -1.729714e-01 -1.790585e-01 -1.829356e-01 -1.886156e-01 -1.924083e-01 -1.975948e-01 -2.011727e-01 -2.057374e-01 -2.089276e-01 -2.127079e-01 -2.153076e-01 -2.181193e-01 -2.199123e-01 -2.215666e-01 -2.223419e-01 -2.226617e-01 -2.222300e-01 -2.210639e-01 -2.192703e-01 -2.165024e-01 -2.132336e-01 -2.087877e-01 -2.039745e-01 -1.978152e-01 -1.914311e-01 -1.835613e-01 -1.756189e-01 -1.660767e-01 -1.566240e-01 -1.454791e-01 -1.345965e-01 -1.219488e-01 -1.097471e-01 -9.572603e-02 