# vtk DataFile Version 2.0
Comment goes here
ASCII

DATASET STRUCTURED_POINTS
FIELD FieldData 1
TIME 1 1 double
0.05500000
DIMENSIONS    128   128   1

ORIGIN    0.000   0.000   0.000
SPACING   0.039062 0.039062   1.000

POINT_DATA   16384
SCALARS uX double
LOOKUP_TABLE default

3.540623e-01 3.805384e-01 4.193621e-01 4.441333e-01 4.814652e-01 5.044316e-01 5.401180e-01 5.611739e-01 5.950430e-01 6.140747e-01 6.459343e-01 6.628205e-01 6.924564e-01 7.070689e-01 7.342461e-01 7.464517e-01 7.709168e-01 7.805807e-01 8.020657e-01 8.090553e-01 8.272833e-01 8.314724e-01 8.461645e-01 8.474381e-01 8.583206e-01 8.565794e-01 8.633927e-01 8.585568e-01 8.610632e-01 8.530761e-01 8.510689e-01 8.399000e-01 8.332102e-01 8.188570e-01 8.073614e-01 7.898506e-01 7.734770e-01 7.528655e-01 7.315979e-01 7.079729e-01 6.818553e-01 6.553350e-01 6.244738e-01 5.952078e-01 5.597734e-01 5.279434e-01 4.881714e-01 4.539928e-01 4.101835e-01 3.739070e-01 3.264254e-01 2.883395e-01 2.376140e-01 1.980470e-01 1.445680e-01 1.038900e-01 4.820777e-02 6.831765e-03 -5.044650e-02 -9.206505e-02 -1.502795e-01 -1.916448e-01 -2.500883e-01 -2.906692e-01 -3.485951e-01 -3.878320e-01 -4.444639e-01 -4.817795e-01 -5.363230e-01 -5.711357e-01 -6.227940e-01 -6.545329e-01 -7.025238e-01 -7.306471e-01 -7.742236e-01 -7.982367e-01 -8.367081e-01 -8.561829e-01 -8.889379e-01 -9.035300e-01 -9.300584e-01 -9.395221e-01 -9.594358e-01 -9.636354e-01 -9.766841e-01 -9.756003e-01 -9.816835e-01 -9.754139e-01 -9.745850e-01 -9.633391e-01 -9.558020e-01 -9.398907e-01 -9.259888e-01 -9.058085e-01 -8.860060e-01 -8.620200e-01 -8.368769e-01 -8.095941e-01 -7.797384e-01 -7.496922e-01 -7.157898e-01 -6.835176e-01 -6.462437e-01 -6.122697e-01 -5.722835e-01 -5.371034e-01 -4.950274e-01 -4.590982e-01 -4.155028e-01 -3.792358e-01 -3.346303e-01 -2.983876e-01 -2.532156e-01 -2.173098e-01 -1.719500e-01 -1.366467e-01 -9.141689e-02 -5.693878e-02 -1.210251e-02 2.136482e-02 6.558962e-02 9.789145e-02 1.413230e-01 1.723286e-01 2.148113e-01 2.444075e-01 2.858023e-01 3.138869e-01 
3.546751e-01 3.811758e-01 4.199930e-01 4.447876e-01 4.821084e-01 5.050982e-01 5.407706e-01 5.618504e-01 5.957043e-01 6.147611e-01 6.466054e-01 6.635181e-01 6.931399e-01 7.077802e-01 7.349455e-01 7.471800e-01 7.716361e-01 7.813293e-01 8.028089e-01 8.098272e-01 8.280540e-01 8.322703e-01 8.469655e-01 8.482638e-01 8.591538e-01 8.574336e-01 8.642588e-01 8.594392e-01 8.619619e-01 8.539855e-01 8.519982e-01 8.408337e-01 8.341670e-01 8.198115e-01 8.083412e-01 7.908210e-01 7.744738e-01 7.538459e-01 7.326044e-01 7.089563e-01 6.828630e-01 6.563131e-01 6.254726e-01 5.961710e-01 5.607522e-01 5.288811e-01 4.891175e-01 4.548930e-01 4.110832e-01 3.747565e-01 3.272638e-01 2.891240e-01 2.383753e-01 1.987512e-01 1.452357e-01 1.044979e-01 4.876487e-02 7.326680e-03 -5.001704e-02 -9.169982e-02 -1.499943e-01 -1.914257e-01 -2.499632e-01 -2.906117e-01 -3.486444e-01 -3.879502e-01 -4.446995e-01 -4.820851e-01 -5.367544e-01 -5.716376e-01 -6.234265e-01 -6.552359e-01 -7.033588e-01 -7.315517e-01 -7.752572e-01 -7.993379e-01 -8.379310e-01 -8.574700e-01 -8.903348e-01 -9.049858e-01 -9.316081e-01 -9.411236e-01 -9.611112e-01 -9.653535e-01 -9.784532e-01 -9.774010e-01 -9.835100e-01 -9.772592e-01 -9.764300e-01 -9.651889e-01 -9.576255e-01 -9.417044e-01 -9.277514e-01 -9.075468e-01 -8.876708e-01 -8.636465e-01 -8.384110e-01 -8.110774e-01 -7.811143e-01 -7.510066e-01 -7.169862e-01 -6.846443e-01 -6.472465e-01 -6.131968e-01 -5.730853e-01 -5.378264e-01 -4.956278e-01 -4.596194e-01 -4.159078e-01 -3.795634e-01 -3.348510e-01 -2.985348e-01 -2.532674e-01 -2.172936e-01 -1.718515e-01 -1.364867e-01 -9.118843e-02 -5.665583e-02 -1.176502e-02 2.174981e-02 6.601568e-02 9.835847e-02 1.418185e-01 1.728594e-01 2.153593e-01 2.449861e-01 2.863885e-01 3.145001e-01 
3.555423e-01 3.820667e-01 4.209604e-01 4.457815e-01 4.831902e-01 5.062096e-01 5.419818e-01 5.630945e-01 5.970597e-01 6.161522e-01 6.481187e-01 6.650691e-01 6.948224e-01 7.095015e-01 7.368055e-01 7.490784e-01 7.736775e-01 7.834077e-01 8.050312e-01 8.120838e-01 8.304515e-01 8.346979e-01 8.495269e-01 8.508501e-01 8.618627e-01 8.601611e-01 8.670934e-01 8.622855e-01 8.648958e-01 8.569236e-01 8.550011e-01 8.438331e-01 8.372055e-01 8.228384e-01 8.113793e-01 7.938396e-01 7.774744e-01 7.568186e-01 7.355296e-01 7.118448e-01 6.856745e-01 6.590788e-01 6.281327e-01 5.987752e-01 5.632235e-01 5.312852e-01 4.913633e-01 4.570587e-01 4.130673e-01 3.766461e-01 3.289504e-01 2.907000e-01 2.397294e-01 1.999770e-01 1.462229e-01 1.053382e-01 4.935250e-02 7.748582e-03 -4.985960e-02 -9.172610e-02 -1.502940e-01 -1.919250e-01 -2.507419e-01 -2.916024e-01 -3.499167e-01 -3.894422e-01 -4.464712e-01 -4.840777e-01 -5.390197e-01 -5.741177e-01 -6.261670e-01 -6.581769e-01 -7.065414e-01 -7.349119e-01 -7.788335e-01 -8.030610e-01 -8.418378e-01 -8.614852e-01 -8.944947e-01 -9.092101e-01 -9.359322e-01 -9.454644e-01 -9.655024e-01 -9.697125e-01 -9.828107e-01 -9.816789e-01 -9.877346e-01 -9.813610e-01 -9.804291e-01 -9.690287e-01 -9.613190e-01 -9.452102e-01 -9.310755e-01 -9.106642e-01 -8.905808e-01 -8.663408e-01 -8.408832e-01 -8.133341e-01 -7.831449e-01 -7.528302e-01 -7.185897e-01 -6.860558e-01 -6.484520e-01 -6.142300e-01 -5.739324e-01 -5.385237e-01 -4.961623e-01 -4.600274e-01 -4.161774e-01 -3.797293e-01 -3.349019e-01 -2.985027e-01 -2.531414e-01 -2.171026e-01 -1.715840e-01 -1.361692e-01 -9.080763e-02 -5.623666e-02 -1.129145e-02 2.225332e-02 6.656899e-02 9.893622e-02 1.424455e-01 1.735078e-01 2.160599e-01 2.457074e-01 2.871678e-01 3.153009e-01 
3.576438e-01 3.842398e-01 4.231952e-01 4.480887e-01 4.855616e-01 5.086564e-01 5.444990e-01 5.656918e-01 5.997366e-01 6.189145e-01 6.509716e-01 6.680127e-01 6.978685e-01 7.126423e-01 7.400603e-01 7.524301e-01 7.771537e-01 7.869802e-01 8.087364e-01 8.158817e-01 8.343874e-01 8.387196e-01 8.536885e-01 8.550869e-01 8.662373e-01 8.645973e-01 8.716609e-01 8.668980e-01 8.696289e-01 8.616830e-01 8.598658e-01 8.487035e-01 8.421620e-01 8.277790e-01 8.163829e-01 7.988048e-01 7.824758e-01 7.617592e-01 7.404764e-01 7.167084e-01 6.905113e-01 6.638101e-01 6.328018e-01 6.033166e-01 5.676650e-01 5.355767e-01 4.955151e-01 4.610380e-01 4.168656e-01 3.802489e-01 3.323297e-01 2.938602e-01 2.426227e-01 2.026273e-01 1.485626e-01 1.074109e-01 5.107141e-02 9.177091e-03 -4.882651e-02 -9.100544e-02 -1.500076e-01 -1.919705e-01 -2.512561e-01 -2.924641e-01 -3.512754e-01 -3.911586e-01 -4.487049e-01 -4.866725e-01 -5.421420e-01 -5.775964e-01 -6.301711e-01 -6.625234e-01 -7.113975e-01 -7.400862e-01 -7.844864e-01 -8.089972e-01 -8.482056e-01 -8.680914e-01 -9.014697e-01 -9.163693e-01 -9.433827e-01 -9.530372e-01 -9.732767e-01 -9.775417e-01 -9.907427e-01 -9.895961e-01 -9.956511e-01 -9.891936e-01 -9.881584e-01 -9.766089e-01 -9.686989e-01 -9.523828e-01 -9.379616e-01 -9.172944e-01 -8.968533e-01 -8.723198e-01 -8.464510e-01 -8.185830e-01 -7.879485e-01 -7.573014e-01 -7.226004e-01 -6.897321e-01 -6.516701e-01 -6.171219e-01 -5.763834e-01 -5.406648e-01 -4.978918e-01 -4.614695e-01 -4.172457e-01 -3.805370e-01 -3.353786e-01 -2.987479e-01 -2.531004e-01 -2.168597e-01 -1.710992e-01 -1.355109e-01 -8.994900e-02 -5.523068e-02 -1.012248e-02 2.354679e-02 6.799345e-02 1.004663e-01 1.440805e-01 1.752337e-01 2.178710e-01 2.475989e-01 2.891310e-01 3.173384e-01 
3.599788e-01 3.866460e-01 4.257468e-01 4.507163e-01 4.883533e-01 5.115309e-01 5.475591e-01 5.688420e-01 6.030951e-01 6.223702e-01 6.546580e-01 6.718019e-01 7.019089e-01 7.167891e-01 7.444754e-01 7.569524e-01 7.819564e-01 7.918875e-01 8.139300e-01 8.211737e-01 8.399642e-01 8.443850e-01 8.596290e-01 8.611027e-01 8.725099e-01 8.709290e-01 8.782226e-01 8.734999e-01 8.764257e-01 8.684993e-01 8.668345e-01 8.556697e-01 8.492315e-01 8.348232e-01 8.234762e-01 8.058497e-01 7.895119e-01 7.687234e-01 7.473713e-01 7.235076e-01 6.971799e-01 6.703583e-01 6.391582e-01 6.095267e-01 5.736231e-01 5.413608e-01 5.009891e-01 4.663075e-01 4.217691e-01 3.849147e-01 3.365764e-01 2.978330e-01 2.461263e-01 2.058181e-01 1.512376e-01 1.097324e-01 5.283413e-02 1.054531e-02 -4.805542e-02 -9.066812e-02 -1.503004e-01 -1.927321e-01 -2.526739e-01 -2.943786e-01 -3.538641e-01 -3.942617e-01 -4.524897e-01 -4.909766e-01 -5.471230e-01 -5.830856e-01 -6.363180e-01 -6.691502e-01 -7.186462e-01 -7.477680e-01 -7.927364e-01 -8.176155e-01 -8.573198e-01 -8.774923e-01 -9.112758e-01 -9.263667e-01 -9.536780e-01 -9.634188e-01 -9.838355e-01 -9.880773e-01 -1.001326e+00 -1.000048e+00 -1.006019e+00 -9.993285e-01 -9.980821e-01 -9.862104e-01 -9.779735e-01 -9.612628e-01 -9.464170e-01 -9.253025e-01 -9.043622e-01 -8.793498e-01 -8.529333e-01 -8.245753e-01 -7.933714e-01 -7.622421e-01 -7.269749e-01 -6.936481e-01 -6.550443e-01 -6.200732e-01 -5.788338e-01 -5.427359e-01 -4.995136e-01 -4.627598e-01 -4.181439e-01 -3.811521e-01 -3.356593e-01 -2.987918e-01 -2.528646e-01 -2.164292e-01 -1.704375e-01 -1.346909e-01 -8.893840e-02 -5.409204e-02 -8.824789e-03 2.494893e-02 6.953229e-02 1.020924e-01 1.458300e-01 1.770593e-01 2.198151e-01 2.496132e-01 2.912666e-01 3.195428e-01 
3.635737e-01 3.903565e-01 4.295826e-01 4.546709e-01 4.924434e-01 5.157470e-01 5.519270e-01 5.733455e-01 6.077712e-01 6.271924e-01 6.596758e-01 6.769758e-01 7.073019e-01 7.223457e-01 7.502733e-01 7.629177e-01 7.881817e-01 7.982794e-01 8.205955e-01 8.279993e-01 8.470707e-01 8.516391e-01 8.671637e-01 8.687666e-01 8.804460e-01 8.789701e-01 8.865186e-01 8.818723e-01 8.850272e-01 8.771443e-01 8.756745e-01 8.645178e-01 8.582328e-01 8.437954e-01 8.325526e-01 8.148590e-01 7.985705e-01 7.776766e-01 7.563137e-01 7.323065e-01 7.059036e-01 6.789005e-01 6.475574e-01 6.177061e-01 5.815891e-01 5.490680e-01 5.084104e-01 4.734301e-01 4.285316e-01 3.913368e-01 3.425634e-01 3.034362e-01 2.512190e-01 2.104821e-01 1.553162e-01 1.133364e-01 5.577981e-02 1.297093e-02 -4.635798e-02 -8.953389e-02 -1.499588e-01 -1.929922e-01 -2.537835e-01 -2.961209e-01 -3.565018e-01 -3.975528e-01 -4.567079e-01 -4.958554e-01 -5.529430e-01 -5.895573e-01 -6.437238e-01 -6.771803e-01 -7.275789e-01 -7.572778e-01 -8.030904e-01 -8.284788e-01 -8.689404e-01 -8.895350e-01 -9.239608e-01 -9.393689e-01 -9.671813e-01 -9.771203e-01 -9.978749e-01 -1.002187e+00 -1.015594e+00 -1.014254e+00 -1.020198e+00 -1.013317e+00 -1.011858e+00 -9.996764e-01 -9.910542e-01 -9.739295e-01 -9.585468e-01 -9.369335e-01 -9.153334e-01 -8.897601e-01 -8.625947e-01 -8.336374e-01 -8.016311e-01 -7.698873e-01 -7.337994e-01 -6.998637e-01 -6.604524e-01 -6.248960e-01 -5.828884e-01 -5.462430e-01 -5.023118e-01 -4.650583e-01 -4.198058e-01 -3.823680e-01 -3.363181e-01 -2.990607e-01 -2.526570e-01 -2.158869e-01 -1.694963e-01 -1.334666e-01 -8.738616e-02 -5.230287e-02 -6.769512e-03 2.720181e-02 7.200010e-02 1.047261e-01 1.486388e-01 1.800104e-01 2.229131e-01 2.528376e-01 2.946207e-01 3.230147e-01 
3.673597e-01 3.942584e-01 4.336945e-01 4.589069e-01 4.969171e-01 5.203558e-01 5.568062e-01 5.783722e-01 6.131035e-01 6.326846e-01 6.655091e-01 6.829791e-01 7.136797e-01 7.289004e-01 7.572308e-01 7.700544e-01 7.957424e-01 8.060159e-01 8.287681e-01 8.363382e-01 8.558463e-01 8.605652e-01 8.765147e-01 8.782465e-01 8.903256e-01 8.889516e-01 8.968614e-01 8.922856e-01 8.957502e-01 8.879034e-01 8.866800e-01 8.755226e-01 8.694103e-01 8.549343e-01 8.437823e-01 8.260118e-01 8.097257e-01 7.887164e-01 7.672637e-01 7.431023e-01 7.165151e-01 6.893183e-01 6.576961e-01 6.276100e-01 5.911201e-01 5.583206e-01 5.171985e-01 4.818923e-01 4.364407e-01 3.988682e-01 3.494563e-01 3.098947e-01 2.569575e-01 2.157251e-01 1.597621e-01 1.172225e-01 5.879664e-02 1.536273e-02 -4.490144e-02 -8.876546e-02 -1.501839e-01 -1.939624e-01 -2.557953e-01 -2.989242e-01 -3.603821e-01 -4.022554e-01 -4.625068e-01 -5.024872e-01 -5.606704e-01 -5.981040e-01 -6.533419e-01 -6.875762e-01 -7.389948e-01 -7.694006e-01 -8.161521e-01 -8.421470e-01 -8.834349e-01 -9.045082e-01 -9.396162e-01 -9.553523e-01 -9.836740e-01 -9.937735e-01 -1.014841e+00 -1.019137e+00 -1.032644e+00 -1.031114e+00 -1.036938e+00 -1.029702e+00 -1.027911e+00 -1.015228e+00 -1.006080e+00 -9.883344e-01 -9.722610e-01 -9.499388e-01 -9.275216e-01 -9.011855e-01 -8.731202e-01 -8.433797e-01 -8.104357e-01 -7.779188e-01 -7.408971e-01 -7.062243e-01 -6.659191e-01 -6.296811e-01 -5.868469e-01 -5.495886e-01 -5.049162e-01 -4.671254e-01 -4.212264e-01 -3.833283e-01 -3.367279e-01 -2.990841e-01 -2.522210e-01 -2.151318e-01 -1.683633e-01 -1.320735e-01 -8.568395e-02 -5.038950e-02 -4.601700e-03 2.954217e-02 7.455500e-02 1.074251e-01 1.515270e-01 1.830239e-01 2.261040e-01 2.561436e-01 2.981048e-01 3.266112e-01 
3.724477e-01 3.995006e-01 4.391179e-01 4.644916e-01 5.027025e-01 5.263153e-01 5.629945e-01 5.847509e-01 6.197451e-01 6.395338e-01 6.726585e-01 6.903522e-01 7.213900e-01 7.368469e-01 7.655490e-01 7.786156e-01 8.047041e-01 8.152200e-01 8.383932e-01 8.461967e-01 8.661362e-01 8.710706e-01 8.874498e-01 8.893701e-01 9.018644e-01 9.006437e-01 9.089408e-01 9.044762e-01 9.082870e-01 9.005037e-01 8.995727e-01 8.884275e-01 8.825423e-01 8.680250e-01 8.570246e-01 8.391583e-01 8.229399e-01 8.017805e-01 7.803043e-01 7.559389e-01 7.292316e-01 7.017772e-01 6.699341e-01 6.395367e-01 6.027221e-01 5.695562e-01 5.280033e-01 4.922737e-01 4.462839e-01 4.082278e-01 3.581696e-01 3.180609e-01 2.643693e-01 2.225230e-01 1.656985e-01 1.224761e-01 6.308406e-02 1.889808e-02 -4.243228e-02 -8.711498e-02 -1.496923e-01 -1.943498e-01 -2.574236e-01 -3.014810e-01 -3.642466e-01 -4.070824e-01 -4.686885e-01 -5.096452e-01 -5.692047e-01 -6.076035e-01 -6.642087e-01 -6.993691e-01 -7.521103e-01 -7.833725e-01 -8.313620e-01 -8.581120e-01 -9.005111e-01 -9.222078e-01 -9.582578e-01 -9.744583e-01 -1.003513e+00 -1.013896e+00 -1.035453e+00 -1.039838e+00 -1.053568e+00 -1.051926e+00 -1.057693e+00 -1.050150e+00 -1.048026e+00 -1.034858e+00 -1.025118e+00 -1.006732e+00 -9.898423e-01 -9.667562e-01 -9.433431e-01 -9.161551e-01 -8.869670e-01 -8.563238e-01 -8.221854e-01 -7.887506e-01 -7.505166e-01 -7.149424e-01 -6.734541e-01 -6.363578e-01 -5.924082e-01 -5.543549e-01 -5.086629e-01 -4.701540e-01 -4.233488e-01 -3.848171e-01 -3.374320e-01 -2.992407e-01 -2.517141e-01 -2.141608e-01 -1.668431e-01 -1.301661e-01 -8.333011e-02 -4.771601e-02 -1.569633e-03 3.283729e-02 7.813758e-02 1.112261e-01 1.555617e-01 1.872444e-01 2.305219e-01 2.607265e-01 3.028652e-01 3.315265e-01 
3.776607e-01 4.048697e-01 4.447547e-01 4.702971e-01 5.088144e-01 5.326133e-01 5.696449e-01 5.916067e-01 6.270036e-01 6.470167e-01 6.805952e-01 6.985296e-01 7.300698e-01 7.457787e-01 7.750254e-01 7.883487e-01 8.150143e-01 8.257834e-01 8.495535e-01 8.575975e-01 8.781381e-01 8.832910e-01 9.002582e-01 9.023662e-01 9.154166e-01 9.143450e-01 9.231475e-01 9.187870e-01 9.230342e-01 9.153056e-01 9.147254e-01 9.035823e-01 8.979478e-01 8.833789e-01 8.725174e-01 8.545456e-01 8.383453e-01 8.170270e-01 7.954425e-01 7.708651e-01 7.439202e-01 7.162004e-01 6.839898e-01 6.532717e-01 6.159612e-01 5.824160e-01 5.402416e-01 5.040689e-01 4.573355e-01 4.187662e-01 3.678465e-01 3.271471e-01 2.724806e-01 2.299590e-01 1.720513e-01 1.280636e-01 6.748569e-02 2.244190e-02 -4.016961e-02 -8.580096e-02 -1.497452e-01 -1.954348e-01 -2.599485e-01 -3.051076e-01 -3.693693e-01 -4.133556e-01 -4.764922e-01 -5.186202e-01 -5.797176e-01 -6.192743e-01 -6.773917e-01 -7.136573e-01 -7.678467e-01 -8.001189e-01 -8.494494e-01 -8.770716e-01 -9.206585e-01 -9.430491e-01 -9.800872e-01 -9.967690e-01 -1.026568e+00 -1.037194e+00 -1.059215e+00 -1.063592e+00 -1.077479e+00 -1.075577e+00 -1.081184e+00 -1.073144e+00 -1.070550e+00 -1.056674e+00 -1.046180e+00 -1.026915e+00 -1.009030e+00 -9.849398e-01 -9.603477e-01 -9.320797e-01 -9.015945e-01 -8.698443e-01 -8.343578e-01 -7.998333e-01 -7.602623e-01 -7.236526e-01 -6.808909e-01 -6.428411e-01 -5.977210e-01 -5.588142e-01 -5.120798e-01 -4.728264e-01 -4.251190e-01 -3.859527e-01 -3.378059e-01 -2.990849e-01 -2.509288e-01 -2.129409e-01 -1.651111e-01 -1.280819e-01 -8.083263e-02 -4.493456e-02 1.546877e-03 3.618426e-02 8.176245e-02 1.150423e-01 1.596193e-01 1.914678e-01 2.349692e-01 2.653263e-01 3.076889e-01 3.365001e-01 
3.842341e-01 4.116283e-01 4.517392e-01 4.774798e-01 5.162543e-01 5.402719e-01 5.776035e-01 5.998091e-01 6.355564e-01 6.558399e-01 6.898229e-01 7.080522e-01 7.400508e-01 7.560741e-01 7.858286e-01 7.994776e-01 8.266925e-01 8.377883e-01 8.621371e-01 8.704969e-01 8.916312e-01 8.970762e-01 9.146352e-01 9.169993e-01 9.306213e-01 9.297584e-01 9.390936e-01 9.348848e-01 9.396077e-01 9.319665e-01 9.317875e-01 9.206630e-01 9.153396e-01 9.007180e-01 8.900641e-01 8.719679e-01 8.558605e-01 8.343469e-01 8.127318e-01 7.878895e-01 7.607838e-01 7.327306e-01 7.002244e-01 6.691042e-01 6.313600e-01 5.973428e-01 5.545943e-01 5.178764e-01 4.704275e-01 4.312348e-01 3.794575e-01 3.380509e-01 2.823849e-01 2.390665e-01 1.800185e-01 1.351400e-01 7.328366e-02 2.725309e-02 -3.676987e-02 -8.348181e-02 -1.489620e-01 -1.958186e-01 -2.619798e-01 -3.083786e-01 -3.743805e-01 -4.196586e-01 -4.846027e-01 -5.280472e-01 -5.909866e-01 -6.318506e-01 -6.918040e-01 -7.293283e-01 -7.852999e-01 -8.187394e-01 -8.697441e-01 -8.983976e-01 -9.434923e-01 -9.667348e-01 -1.005054e+00 -1.022370e+00 -1.053167e+00 -1.064177e+00 -1.086863e+00 -1.091353e+00 -1.105537e+00 -1.103469e+00 -1.108987e+00 -1.100510e+00 -1.097442e+00 -1.082881e+00 -1.071556e+00 -1.051393e+00 -1.032367e+00 -1.007212e+00 -9.812346e-01 -9.517868e-01 -9.197492e-01 -8.867574e-01 -8.496310e-01 -8.138534e-01 -7.726310e-01 -7.348009e-01 -6.904421e-01 -6.512407e-01 -6.046299e-01 -5.646667e-01 -5.165846e-01 -4.763872e-01 -4.274962e-01 -3.875065e-01 -3.383480e-01 -2.989247e-01 -2.499249e-01 -2.113501e-01 -1.628325e-01 -1.253211e-01 -7.752179e-02 -4.123232e-02 5.683439e-03 4.063742e-02 8.655813e-02 1.200967e-01 1.649488e-01 1.970150e-01 2.407478e-01 2.712977e-01 3.138706e-01 3.428644e-01 
3.908397e-01 4.184234e-01 4.588493e-01 4.847991e-01 5.239412e-01 5.481938e-01 5.859556e-01 6.084248e-01 6.446710e-01 6.652462e-01 6.997983e-01 7.183439e-01 7.509790e-01 7.673363e-01 7.977868e-01 8.117784e-01 8.397362e-01 8.511716e-01 8.762936e-01 8.849774e-01 9.068947e-01 9.126351e-01 9.309636e-01 9.335821e-01 9.479354e-01 9.472751e-01 9.572782e-01 9.532116e-01 9.585145e-01 9.509492e-01 9.512400e-01 9.401217e-01 9.351389e-01 9.204527e-01 9.099945e-01 8.917639e-01 8.756961e-01 8.539797e-01 8.322408e-01 8.071291e-01 7.797330e-01 7.513441e-01 7.183807e-01 6.868572e-01 6.484913e-01 6.139989e-01 5.704682e-01 5.331965e-01 4.848095e-01 4.449752e-01 3.921089e-01 3.499621e-01 2.930613e-01 2.488934e-01 1.884700e-01 1.426233e-01 7.925716e-02 3.213412e-02 -3.352545e-02 -8.145400e-02 -1.486872e-01 -1.968769e-01 -2.648930e-01 -3.127249e-01 -3.806635e-01 -4.274483e-01 -4.943845e-01 -5.393730e-01 -6.043255e-01 -6.467253e-01 -7.086703e-01 -7.476695e-01 -8.055605e-01 -8.403560e-01 -8.931501e-01 -9.229815e-01 -9.696722e-01 -9.938584e-01 -1.033515e+00 -1.051491e+00 -1.083304e+00 -1.094654e+00 -1.117981e+00 -1.122470e+00 -1.136879e+00 -1.134469e+00 -1.139778e+00 -1.130635e+00 -1.126932e+00 -1.111420e+00 -1.099067e+00 -1.077722e+00 -1.057338e+00 -1.030834e+00 -1.003250e+00 -9.723566e-01 -9.385576e-01 -9.040906e-01 -8.651436e-01 -8.279226e-01 -7.849077e-01 -7.457159e-01 -6.996649e-01 -6.592196e-01 -6.110693e-01 -5.700028e-01 -5.205654e-01 -4.794149e-01 -4.293656e-01 -3.885722e-01 -3.384493e-01 -2.983626e-01 -2.485779e-01 -2.094654e-01 -1.603202e-01 -1.223788e-01 -7.408250e-02 -3.745100e-02 9.859404e-03 4.508732e-02 9.132880e-02 1.250925e-01 1.702187e-01 2.024791e-01 2.464648e-01 2.771941e-01 3.200214e-01 3.491938e-01 
3.988795e-01 4.266688e-01 4.673506e-01 4.935278e-01 5.329724e-01 5.574837e-01 5.956089e-01 6.183743e-01 6.550545e-01 6.759648e-01 7.110262e-01 7.299431e-01 7.631619e-01 7.799198e-01 8.110226e-01 8.254330e-01 8.541004e-01 8.659587e-01 8.918319e-01 9.009264e-01 9.236166e-01 9.297384e-01 9.488389e-01 9.517924e-01 9.668925e-01 9.665056e-01 9.772054e-01 9.733381e-01 9.792634e-01 9.718141e-01 9.726306e-01 9.615394e-01 9.569655e-01 9.422154e-01 9.320322e-01 9.136473e-01 8.977068e-01 8.757482e-01 8.539785e-01 8.285397e-01 8.009472e-01 7.721488e-01 7.388183e-01 7.068037e-01 6.678971e-01 6.328301e-01 5.885834e-01 5.506492e-01 5.013700e-01 4.607780e-01 4.068429e-01 3.638342e-01 3.056879e-01 2.605446e-01 1.986996e-01 1.517557e-01 8.679391e-02 3.844712e-02 -2.897761e-02 -7.825618e-02 -1.474154e-01 -1.970739e-01 -2.671628e-01 -3.165661e-01 -3.867029e-01 -4.351363e-01 -5.043658e-01 -5.510448e-01 -6.183456e-01 -6.624338e-01 -7.267317e-01 -7.673650e-01 -8.275522e-01 -8.638703e-01 -9.188333e-01 -9.500156e-01 -9.986703e-01 -1.023976e+00 -1.065311e+00 -1.084121e+00 -1.117247e+00 -1.129102e+00 -1.153307e+00 -1.157940e+00 -1.172739e+00 -1.170102e+00 -1.175284e+00 -1.165552e+00 -1.161208e+00 -1.144775e+00 -1.131303e+00 -1.108757e+00 -1.086841e+00 -1.058920e+00 -1.029486e+00 -9.970310e-01 -9.611700e-01 -9.250720e-01 -8.839635e-01 -8.451098e-01 -7.999385e-01 -7.591712e-01 -7.110573e-01 -6.691403e-01 -6.190876e-01 -5.766863e-01 -5.255518e-01 -4.832232e-01 -4.317053e-01 -3.898983e-01 -3.385401e-01 -2.976022e-01 -2.468058e-01 -2.069941e-01 -1.570408e-01 -1.185361e-01 -6.960820e-02 -3.252951e-02 1.526704e-02 5.084821e-02 9.746288e-02 1.315087e-01 1.769276e-01 2.094214e-01 2.536503e-01 2.845856e-01 3.276355e-01 3.570055e-01 
4.068282e-01 4.348316e-01 4.758619e-01 5.022828e-01 5.421461e-01 5.669385e-01 6.055657e-01 6.286531e-01 6.659268e-01 6.871997e-01 7.229487e-01 7.422641e-01 7.762612e-01 7.934446e-01 8.254071e-01 8.402574e-01 8.698503e-01 8.821475e-01 9.089906e-01 9.185056e-01 9.421838e-01 9.486901e-01 9.687667e-01 9.720520e-01 9.880839e-01 9.879618e-01 9.995161e-01 9.958352e-01 1.002506e+00 9.951576e-01 9.965822e-01 9.855023e-01 9.813741e-01 9.665459e-01 9.566266e-01 9.380764e-01 9.222042e-01 8.999973e-01 8.780918e-01 8.523254e-01 8.243900e-01 7.951870e-01 7.613075e-01 7.288106e-01 6.891529e-01 6.535214e-01 6.083273e-01 5.697374e-01 5.193206e-01 4.779692e-01 4.227126e-01 3.788250e-01 3.191786e-01 2.730205e-01 2.095020e-01 1.613924e-01 9.458920e-02 4.491503e-02 -2.451218e-02 -7.528312e-02 -1.465960e-01 -1.979054e-01 -2.702840e-01 -3.214784e-01 -3.940193e-01 -4.443520e-01 -5.160693e-01 -5.647106e-01 -6.345423e-01 -6.805973e-01 -7.474168e-01 -7.899525e-01 -8.525883e-01 -8.906676e-01 -9.479315e-01 -9.806540e-01 -1.031378e+00 -1.057926e+00 -1.101011e+00 -1.120696e+00 -1.155165e+00 -1.167477e+00 -1.192538e+00 -1.197180e+00 -1.212290e+00 -1.209209e+00 -1.214125e+00 -1.203522e+00 -1.198341e+00 -1.180661e+00 -1.165826e+00 -1.141730e+00 -1.118012e+00 -1.088328e+00 -1.056766e+00 -1.022431e+00 -9.842490e-01 -9.462468e-01 -9.027573e-01 -8.620568e-01 -8.145653e-01 -7.720734e-01 -7.217961e-01 -6.783224e-01 -6.263295e-01 -5.825650e-01 -5.297498e-01 -4.862603e-01 -4.333308e-01 -3.905598e-01 -3.380490e-01 -2.963286e-01 -2.446142e-01 -2.041797e-01 -1.535098e-01 -1.145168e-01 -6.503669e-02 -2.757778e-02 2.064456e-02 5.652391e-02 1.034750e-01 1.377616e-01 1.834622e-01 2.161624e-01 2.606503e-01 2.917778e-01 3.350925e-01 3.646583e-01 
4.162982e-01 4.445144e-01 4.858121e-01 5.124796e-01 5.526763e-01 5.777616e-01 6.168061e-01 6.402402e-01 6.780269e-01 6.997025e-01 7.360660e-01 7.558363e-01 7.905486e-01 8.082296e-01 8.410000e-01 8.563763e-01 8.868551e-01 8.996878e-01 9.274742e-01 9.375123e-01 9.621653e-01 9.691590e-01 9.902122e-01 9.939267e-01 1.010905e+00 1.011134e+00 1.023573e+00 1.020148e+00 1.027611e+00 1.020412e+00 1.022507e+00 1.011465e+00 1.007861e+00 9.929564e-01 9.833934e-01 9.646566e-01 9.489567e-01 9.264575e-01 9.045286e-01 8.783704e-01 8.502078e-01 8.205183e-01 7.862034e-01 7.531277e-01 7.128241e-01 6.765199e-01 6.304688e-01 5.911060e-01 5.396210e-01 4.973862e-01 4.408497e-01 3.959549e-01 3.348164e-01 2.875122e-01 2.222888e-01 1.728804e-01 1.041597e-01 5.302427e-02 -1.853032e-02 -7.092838e-02 -1.445715e-01 -1.976677e-01 -2.725657e-01 -3.256890e-01 -4.009160e-01 -4.532894e-01 -5.278258e-01 -5.785761e-01 -6.513130e-01 -6.994895e-01 -7.692396e-01 -8.138426e-01 -8.793591e-01 -9.193765e-01 -9.793818e-01 -1.013834e+00 -1.067060e+00 -1.095050e+00 -1.140287e+00 -1.161053e+00 -1.197219e+00 -1.210187e+00 -1.236391e+00 -1.241221e+00 -1.256842e+00 -1.253463e+00 -1.258214e+00 -1.246838e+00 -1.240813e+00 -1.221928e+00 -1.205617e+00 -1.179953e+00 -1.154219e+00 -1.122693e+00 -1.088705e+00 -1.052355e+00 -1.011489e+00 -9.713979e-01 -9.251210e-01 -8.823490e-01 -8.321080e-01 -7.876387e-01 -7.347654e-01 -6.894666e-01 -6.351153e-01 -5.897174e-01 -5.348327e-01 -4.899229e-01 -4.352351e-01 -3.912626e-01 -3.373027e-01 -2.945923e-01 -2.417184e-01 -2.004886e-01 -1.489171e-01 -1.092999e-01 -5.913745e-02 -2.119765e-02 2.753012e-02 6.377656e-02 1.110991e-01 1.456689e-01 1.916487e-01 2.245769e-01 2.692910e-01 3.006183e-01 3.441423e-01 3.739040e-01 
4.255192e-01 4.539627e-01 4.956250e-01 5.225628e-01 5.632165e-01 5.886250e-01 6.282352e-01 6.520504e-01 6.905225e-01 7.126364e-01 7.498090e-01 7.700689e-01 8.057109e-01 8.239214e-01 8.577309e-01 8.736598e-01 9.052681e-01 9.186560e-01 9.476354e-01 9.582082e-01 9.840843e-01 9.915684e-01 1.013836e+00 1.017975e+00 1.036118e+00 1.036685e+00 1.050197e+00 1.047010e+00 1.055414e+00 1.048344e+00 1.051210e+00 1.040184e+00 1.037150e+00 1.022152e+00 1.012935e+00 9.939979e-01 9.784033e-01 9.556061e-01 9.335328e-01 9.069862e-01 8.784274e-01 8.482647e-01 8.133052e-01 7.796726e-01 7.384829e-01 7.015334e-01 6.543633e-01 6.142557e-01 5.614275e-01 5.183308e-01 4.602347e-01 4.143385e-01 3.514297e-01 3.029600e-01 2.357598e-01 1.849984e-01 1.140980e-01 6.140337e-02 -1.252952e-02 -6.670240e-02 -1.429147e-01 -1.979982e-01 -2.756429e-01 -3.309470e-01 -4.090761e-01 -4.637871e-01 -5.413481e-01 -5.945373e-01 -6.703750e-01 -7.210187e-01 -7.938843e-01 -8.408940e-01 -9.094632e-01 -9.517268e-01 -1.014628e+00 -1.051060e+00 -1.106917e+00 -1.136516e+00 -1.184003e+00 -1.205912e+00 -1.243824e+00 -1.257397e+00 -1.284732e+00 -1.289585e+00 -1.305632e+00 -1.301685e+00 -1.306107e+00 -1.293603e+00 -1.286493e+00 -1.265990e+00 -1.247897e+00 -1.220227e+00 -1.192129e+00 -1.158333e+00 -1.121562e+00 -1.082806e+00 -1.038924e+00 -9.964183e-01 -9.470796e-01 -9.019921e-01 -8.488071e-01 -8.022047e-01 -7.466308e-01 -6.994359e-01 -6.427076e-01 -5.956779e-01 -5.387768e-01 -4.925034e-01 -4.361613e-01 -3.910797e-01 -3.358035e-01 -2.922131e-01 -2.383209e-01 -1.964083e-01 -1.440684e-01 -1.039309e-01 -5.319907e-02 -1.486695e-02 3.428081e-02 7.082494e-02 1.184647e-01 1.532684e-01 1.995056e-01 2.326320e-01 2.775823e-01 3.090971e-01 3.528709e-01 3.828309e-01 
4.363597e-01 4.650062e-01 5.069242e-01 5.341156e-01 5.751156e-01 6.008439e-01 6.409131e-01 6.651237e-01 7.041821e-01 7.267698e-01 7.646635e-01 7.854710e-01 8.219674e-01 8.407873e-01 8.755748e-01 8.921559e-01 9.248471e-01 9.389051e-01 9.690456e-01 9.802771e-01 1.007359e+00 1.015460e+00 1.038941e+00 1.043622e+00 1.062945e+00 1.063956e+00 1.078572e+00 1.075709e+00 1.085102e+00 1.078222e+00 1.081929e+00 1.070952e+00 1.068578e+00 1.053488e+00 1.044726e+00 1.025564e+00 1.010199e+00 9.870536e-01 9.649722e-01 9.379638e-01 9.091518e-01 8.784231e-01 8.429622e-01 8.086643e-01 7.667246e-01 7.290098e-01 6.808422e-01 6.398613e-01 5.857893e-01 5.416967e-01 4.821104e-01 4.350760e-01 3.704292e-01 3.206563e-01 2.514675e-01 1.992156e-01 1.260731e-01 7.168267e-02 -4.746750e-03 -6.083026e-02 -1.397904e-01 -1.969967e-01 -2.776299e-01 -3.352511e-01 -4.165879e-01 -4.737752e-01 -5.547277e-01 -6.105002e-01 -6.898611e-01 -7.431258e-01 -8.195757e-01 -8.691602e-01 -9.412842e-01 -9.859809e-01 -1.052297e+00 -1.090917e+00 -1.149921e+00 -1.181358e+00 -1.231581e+00 -1.254879e+00 -1.294971e+00 -1.309395e+00 -1.338215e+00 -1.343319e+00 -1.360042e+00 -1.355716e+00 -1.359934e+00 -1.346433e+00 -1.338228e+00 -1.316167e+00 -1.296146e+00 -1.266452e+00 -1.235724e+00 -1.199561e+00 -1.159638e+00 -1.118313e+00 -1.070970e+00 -1.025826e+00 -9.729321e-01 -9.252576e-01 -8.686143e-01 -8.195737e-01 -7.607872e-01 -7.113741e-01 -6.517802e-01 -6.027970e-01 -5.434322e-01 -4.954907e-01 -4.371024e-01 -3.906384e-01 -3.337190e-01 -2.890167e-01 -2.338489e-01 -1.910684e-01 -1.377725e-01 -9.697732e-02 -4.555469e-02 -6.737533e-03 4.289202e-02 7.978725e-02 1.277550e-01 1.628141e-01 2.092777e-01 2.425999e-01 2.877234e-01 3.194078e-01 3.633452e-01 3.934786e-01 
4.467538e-01 4.756265e-01 5.179035e-01 5.453822e-01 5.868606e-01 6.129496e-01 6.536374e-01 6.782884e-01 7.181200e-01 7.412277e-01 7.800553e-01 8.014551e-01 8.390437e-01 8.585135e-01 8.945387e-01 9.118058e-01 9.458572e-01 9.606098e-01 9.921999e-01 1.004104e+00 1.032683e+00 1.041402e+00 1.066378e+00 1.071595e+00 1.092358e+00 1.093795e+00 1.109743e+00 1.107178e+00 1.117743e+00 1.111024e+00 1.115695e+00 1.104738e+00 1.103084e+00 1.087878e+00 1.079561e+00 1.060157e+00 1.044943e+00 1.021442e+00 9.992096e-01 9.717465e-01 9.424818e-01 9.112098e-01 8.750018e-01 8.400768e-01 7.971073e-01 7.586773e-01 7.092106e-01 6.674127e-01 6.117845e-01 5.667494e-01 5.053596e-01 4.572256e-01 3.905341e-01 3.394683e-01 2.679959e-01 2.142219e-01 1.385569e-01 8.238472e-02 3.193528e-03 -5.495076e-02 -1.369091e-01 -1.964585e-01 -2.803171e-01 -3.405461e-01 -4.253161e-01 -4.853349e-01 -5.698952e-01 -6.286568e-01 -7.117500e-01 -7.680711e-01 -8.483082e-01 -9.009041e-01 -9.767786e-01 -1.024313e+00 -1.094228e+00 -1.135372e+00 -1.197687e+00 -1.231194e+00 -1.284285e+00 -1.309069e+00 -1.351421e+00 -1.366644e+00 -1.396957e+00 -1.402106e+00 -1.419422e+00 -1.414372e+00 -1.418196e+00 -1.403243e+00 -1.393644e+00 -1.369495e+00 -1.347155e+00 -1.314877e+00 -1.281062e+00 -1.241990e+00 -1.198441e+00 -1.154059e+00 -1.102819e+00 -1.054641e+00 -9.978411e-01 -9.472987e-01 -8.869626e-01 -8.353248e-01 -7.732204e-01 -7.215440e-01 -6.590993e-01 -6.082112e-01 -5.464929e-01 -4.969984e-01 -4.367371e-01 -3.890440e-01 -3.306847e-01 -2.850368e-01 -2.287985e-01 -1.853099e-01 -1.312441e-01 -8.993164e-02 -3.797194e-02 1.216412e-03 5.121348e-02 8.837502e-02 1.365980e-01 1.718559e-01 2.185138e-01 2.520010e-01 2.973035e-01 3.291488e-01 3.732907e-01 4.036067e-01 