# vtk DataFile Version 2.0
Comment goes here
ASCII

DATASET STRUCTURED_POINTS
FIELD FieldData 1
TIME 1 1 double
0.01000000
DIMENSIONS    128   128   1

ORIGIN    0.000   0.000   0.000
SPACING   0.039062 0.039062   1.000

POINT_DATA   16384
SCALARS uX double
LOOKUP_TABLE default

1.116667e-01 1.321607e-01 1.482359e-01 1.693277e-01 1.859547e-01 2.073937e-01 2.243416e-01 2.458332e-01 2.628210e-01 2.840264e-01 3.007235e-01 3.212609e-01 3.372909e-01 3.567402e-01 3.716866e-01 3.895962e-01 4.030117e-01 4.189092e-01 4.303288e-01 4.437349e-01 4.526917e-01 4.631381e-01 4.691828e-01 4.762328e-01 4.789559e-01 4.822268e-01 4.812815e-01 4.804682e-01 4.755945e-01 4.704916e-01 4.615372e-01 4.520587e-01 4.389973e-01 4.251916e-01 4.081352e-01 3.901930e-01 3.693979e-01 3.476535e-01 3.235171e-01 2.984408e-01 2.714918e-01 2.436742e-01 2.145533e-01 1.846824e-01 1.541168e-01 1.229487e-01 9.172090e-02 6.004658e-02 2.895936e-02 -2.431196e-03 -3.259072e-02 -6.294392e-02 -9.143959e-02 -1.200715e-01 -1.462500e-01 -1.725750e-01 -1.958929e-01 -2.194464e-01 -2.394895e-01 -2.599431e-01 -2.764386e-01 -2.936064e-01 -3.064265e-01 -3.202632e-01 -3.294199e-01 -3.400112e-01 -3.456440e-01 -3.531892e-01 -3.555466e-01 -3.603364e-01 -3.597533e-01 -3.621439e-01 -3.590164e-01 -3.594024e-01 -3.541620e-01 -3.529498e-01 -3.460390e-01 -3.436223e-01 -3.354733e-01 -3.322125e-01 -3.232283e-01 -3.194344e-01 -3.099753e-01 -3.058987e-01 -2.962720e-01 -2.920965e-01 -2.825509e-01 -2.783921e-01 -2.691152e-01 -2.650236e-01 -2.561424e-01 -2.521095e-01 -2.436939e-01 -2.396607e-01 -2.317281e-01 -2.275954e-01 -2.201169e-01 -2.157563e-01 -2.086633e-01 -2.039279e-01 -1.971201e-01 -1.918547e-01 -1.852070e-01 -1.792568e-01 -1.726268e-01 -1.658451e-01 -1.590804e-01 -1.513343e-01 -1.442791e-01 -1.354538e-01 -1.279554e-01 -1.179574e-01 -1.098717e-01 -9.863069e-02 -8.982794e-02 -7.729829e-02 -6.766749e-02 -5.382932e-02 -4.328288e-02 -2.814309e-02 -1.662090e-02 -2.144760e-04 1.231216e-02 2.992049e-02 4.344511e-02 6.215873e-02 7.663613e-02 9.632401e-02 
1.151597e-01 1.351400e-01 1.518125e-01 1.723148e-01 1.895429e-01 2.103144e-01 2.278619e-01 2.486066e-01 2.661871e-01 2.865659e-01 3.038433e-01 3.234763e-01 3.400688e-01 3.585395e-01 3.740258e-01 3.908893e-01 4.048178e-01 4.196113e-01 4.315135e-01 4.437715e-01 4.531780e-01 4.624498e-01 4.689100e-01 4.747809e-01 4.778850e-01 4.799983e-01 4.794006e-01 4.774804e-01 4.729221e-01 4.667951e-01 4.581258e-01 4.477386e-01 4.349334e-01 4.203662e-01 4.035378e-01 3.850105e-01 3.644139e-01 3.422850e-01 3.183150e-01 2.930723e-01 2.662524e-01 2.384959e-01 2.094599e-01 1.798782e-01 1.493449e-01 1.186851e-01 8.742755e-02 5.646296e-02 2.527472e-02 -5.230056e-03 -3.557036e-02 -6.489330e-02 -9.365621e-02 -1.211491e-01 -1.476856e-01 -1.728008e-01 -1.965686e-01 -2.188792e-01 -2.394621e-01 -2.586754e-01 -2.757954e-01 -2.917571e-01 -3.052779e-01 -3.179696e-01 -3.278919e-01 -3.374200e-01 -3.438699e-01 -3.504479e-01 -3.536588e-01 -3.575854e-01 -3.578760e-01 -3.595099e-01 -3.572596e-01 -3.569926e-01 -3.526166e-01 -3.508483e-01 -3.447738e-01 -3.418882e-01 -3.345331e-01 -3.308792e-01 -3.226344e-01 -3.185109e-01 -3.097264e-01 -3.053716e-01 -2.963468e-01 -2.919331e-01 -2.829110e-01 -2.785442e-01 -2.697089e-01 -2.654314e-01 -2.569085e-01 -2.527054e-01 -2.445651e-01 -2.403732e-01 -2.326347e-01 -2.283524e-01 -2.209896e-01 -2.164879e-01 -2.094361e-01 -2.045691e-01 -1.977318e-01 -1.923465e-01 -1.856030e-01 -1.795480e-01 -1.727604e-01 -1.658931e-01 -1.589133e-01 -1.511053e-01 -1.437817e-01 -1.349233e-01 -1.271072e-01 -1.171099e-01 -1.086612e-01 -9.745988e-02 -8.825243e-02 -7.580644e-02 -6.573300e-02 -5.202726e-02 -4.100393e-02 -2.604995e-02 -1.402040e-02 2.142469e-03 1.520306e-02 3.250592e-02 4.658704e-02 6.492934e-02 7.998149e-02 9.922854e-02 
1.108974e-01 1.314955e-01 1.476611e-01 1.688782e-01 1.856205e-01 2.072068e-01 2.242953e-01 2.459564e-01 2.631094e-01 2.845056e-01 3.013910e-01 3.221385e-01 3.383766e-01 3.580518e-01 3.732216e-01 3.913675e-01 4.050156e-01 4.211527e-01 4.328057e-01 4.464460e-01 4.556273e-01 4.662923e-01 4.725416e-01 4.797832e-01 4.826793e-01 4.861031e-01 4.852877e-01 4.845773e-01 4.797795e-01 4.747198e-01 4.657784e-01 4.562760e-01 4.431585e-01 4.292575e-01 4.120730e-01 3.939639e-01 3.729698e-01 3.509904e-01 3.265897e-01 3.012181e-01 2.739486e-01 2.457871e-01 2.163025e-01 1.860535e-01 1.550966e-01 1.235331e-01 9.190374e-02 5.983441e-02 2.835354e-02 -3.413823e-03 -3.394151e-02 -6.463670e-02 -9.345905e-02 -1.223837e-01 -1.488341e-01 -1.753913e-01 -1.989162e-01 -2.226340e-01 -2.428134e-01 -2.633599e-01 -2.799194e-01 -2.971096e-01 -3.099237e-01 -3.237176e-01 -3.328045e-01 -3.432961e-01 -3.488045e-01 -3.562044e-01 -3.583943e-01 -3.630060e-01 -3.622249e-01 -3.644182e-01 -3.610749e-01 -3.612578e-01 -3.557961e-01 -3.543870e-01 -3.472603e-01 -3.446634e-01 -3.363128e-01 -3.328965e-01 -3.237322e-01 -3.198131e-01 -3.102003e-01 -3.060318e-01 -2.962809e-01 -2.920475e-01 -2.824082e-01 -2.782241e-01 -2.688837e-01 -2.647964e-01 -2.558803e-01 -2.518769e-01 -2.434526e-01 -2.394690e-01 -2.315509e-01 -2.274824e-01 -2.200380e-01 -2.157508e-01 -2.087082e-01 -2.040504e-01 -1.973052e-01 -1.921171e-01 -1.855405e-01 -1.796637e-01 -1.731099e-01 -1.663947e-01 -1.597078e-01 -1.520191e-01 -1.450403e-01 -1.362618e-01 -1.288354e-01 -1.188725e-01 -1.108518e-01 -9.963356e-02 -9.088630e-02 -7.836659e-02 -6.877958e-02 -5.493797e-02 -4.442157e-02 -2.926430e-02 -1.775645e-02 -1.317675e-03 1.121220e-02 2.886882e-02 4.241607e-02 6.119518e-02 7.571631e-02 9.548829e-02 
1.136851e-01 1.338765e-01 1.507350e-01 1.714902e-01 1.889542e-01 2.100218e-01 2.278559e-01 2.489397e-01 2.668560e-01 2.876150e-01 3.052741e-01 3.253236e-01 3.423374e-01 3.612534e-01 3.771910e-01 3.945173e-01 4.089143e-01 4.241736e-01 4.365450e-01 4.492538e-01 4.591105e-01 4.687975e-01 4.756672e-01 4.818951e-01 4.853446e-01 4.877340e-01 4.873946e-01 4.856483e-01 4.812401e-01 4.751665e-01 4.665217e-01 4.560545e-01 4.431365e-01 4.283495e-01 4.112658e-01 3.923801e-01 3.713886e-01 3.487720e-01 3.242783e-01 2.984356e-01 2.709818e-01 2.425371e-01 2.127823e-01 1.824534e-01 1.511469e-01 1.197141e-01 8.766301e-02 5.593397e-02 2.396707e-02 -7.259595e-03 -3.832937e-02 -6.830040e-02 -9.771235e-02 -1.257529e-01 -1.528318e-01 -1.783738e-01 -2.025577e-01 -2.251612e-01 -2.460222e-01 -2.653895e-01 -2.826459e-01 -2.986262e-01 -3.121462e-01 -3.247318e-01 -3.345281e-01 -3.438426e-01 -3.500591e-01 -3.563383e-01 -3.592306e-01 -3.627988e-01 -3.627099e-01 -3.639520e-01 -3.612865e-01 -3.606198e-01 -3.558167e-01 -3.536642e-01 -3.471718e-01 -3.439372e-01 -3.361913e-01 -3.322386e-01 -3.236438e-01 -3.192820e-01 -3.101981e-01 -3.056708e-01 -2.964031e-01 -2.918835e-01 -2.826773e-01 -2.782682e-01 -2.693072e-01 -2.650444e-01 -2.564514e-01 -2.523115e-01 -2.441521e-01 -2.400617e-01 -2.323493e-01 -2.281961e-01 -2.208980e-01 -2.165423e-01 -2.095868e-01 -2.048728e-01 -1.981563e-01 -1.929224e-01 -1.863169e-01 -1.804045e-01 -1.737650e-01 -1.670259e-01 -1.601977e-01 -1.524995e-01 -1.453247e-01 -1.365547e-01 -1.288787e-01 -1.189466e-01 -1.106240e-01 -9.946332e-02 -9.036315e-02 -7.793222e-02 -6.794268e-02 -5.422543e-02 -4.325844e-02 -2.826511e-02 -1.626036e-02 -2.862888e-05 1.304251e-02 3.044587e-02 4.457655e-02 6.305351e-02 7.819769e-02 9.761628e-02 
1.085455e-01 1.294546e-01 1.458906e-01 1.674827e-01 1.845708e-01 2.065989e-01 2.241096e-01 2.462799e-01 2.639303e-01 2.859010e-01 3.033540e-01 3.247354e-01 3.416027e-01 3.619607e-01 3.778074e-01 3.966694e-01 4.110229e-01 4.278879e-01 4.402506e-01 4.546040e-01 4.644697e-01 4.758017e-01 4.826767e-01 4.905044e-01 4.939316e-01 4.978249e-01 4.974102e-01 4.970181e-01 4.924573e-01 4.875345e-01 4.786385e-01 4.690685e-01 4.557853e-01 4.415990e-01 4.240290e-01 4.054151e-01 3.838191e-01 3.611268e-01 3.359237e-01 3.096548e-01 2.814111e-01 2.522032e-01 2.216118e-01 1.902119e-01 1.580636e-01 1.252960e-01 9.244393e-02 5.917179e-02 2.649236e-02 -6.422018e-03 -3.807021e-02 -6.980574e-02 -9.962153e-02 -1.294357e-01 -1.567116e-01 -1.839731e-01 -2.081251e-01 -2.323389e-01 -2.529289e-01 -2.737532e-01 -2.905019e-01 -3.077548e-01 -3.205445e-01 -3.342015e-01 -3.430696e-01 -3.532511e-01 -3.583750e-01 -3.653259e-01 -3.670008e-01 -3.710645e-01 -3.696766e-01 -3.712647e-01 -3.672619e-01 -3.668232e-01 -3.606866e-01 -3.586767e-01 -3.508929e-01 -3.477474e-01 -3.387850e-01 -3.348967e-01 -3.251872e-01 -3.208895e-01 -3.108128e-01 -3.063681e-01 -2.962431e-01 -2.918375e-01 -2.819173e-01 -2.776606e-01 -2.681310e-01 -2.640608e-01 -2.550425e-01 -2.511326e-01 -2.426854e-01 -2.388559e-01 -2.309847e-01 -2.271143e-01 -2.197762e-01 -2.157144e-01 -2.088262e-01 -2.044057e-01 -1.978519e-01 -1.928995e-01 -1.865401e-01 -1.808862e-01 -1.745645e-01 -1.680508e-01 -1.616008e-01 -1.540857e-01 -1.473390e-01 -1.387018e-01 -1.314940e-01 -1.216372e-01 -1.138138e-01 -1.026645e-01 -9.408592e-02 -8.159657e-02 -7.214301e-02 -5.829170e-02 -4.786738e-02 -3.265852e-02 -2.119556e-02 -4.660788e-03 7.877001e-03 2.567721e-02 3.929063e-02 5.826481e-02 7.291559e-02 9.293843e-02 
1.106482e-01 1.312594e-01 1.484881e-01 1.697476e-01 1.876832e-01 2.093428e-01 2.277514e-01 2.495154e-01 2.681071e-01 2.896309e-01 3.080598e-01 3.289500e-01 3.468159e-01 3.666334e-01 3.834866e-01 4.017533e-01 4.171036e-01 4.333125e-01 4.466417e-01 4.602729e-01 4.710522e-01 4.815920e-01 4.893038e-01 4.962686e-01 5.004319e-01 5.033949e-01 5.035931e-01 5.022126e-01 4.981218e-01 4.921682e-01 4.835843e-01 4.729638e-01 4.598248e-01 4.445972e-01 4.270000e-01 4.073884e-01 3.855961e-01 3.619871e-01 3.364273e-01 3.093609e-01 2.806139e-01 2.507633e-01 2.195403e-01 1.876841e-01 1.547973e-01 1.217838e-01 8.811043e-02 5.481857e-02 2.126002e-02 -1.144164e-02 -4.400162e-02 -7.529543e-02 -1.060317e-01 -1.351879e-01 -1.633712e-01 -1.897797e-01 -2.148078e-01 -2.380021e-01 -2.594227e-01 -2.790951e-01 -2.966197e-01 -3.126263e-01 -3.261330e-01 -3.384888e-01 -3.480152e-01 -3.568803e-01 -3.626078e-01 -3.682644e-01 -3.704948e-01 -3.733196e-01 -3.724469e-01 -3.728796e-01 -3.693598e-01 -3.678708e-01 -3.621920e-01 -3.592518e-01 -3.519058e-01 -3.479581e-01 -3.394165e-01 -3.348561e-01 -3.255515e-01 -3.207077e-01 -3.110191e-01 -3.061461e-01 -2.963900e-01 -2.916620e-01 -2.820881e-01 -2.776007e-01 -2.683910e-01 -2.641666e-01 -2.554378e-01 -2.514345e-01 -2.432427e-01 -2.393660e-01 -2.317124e-01 -2.278279e-01 -2.206664e-01 -2.166123e-01 -2.098569e-01 -2.054574e-01 -1.989897e-01 -1.940657e-01 -1.877431e-01 -1.821216e-01 -1.757851e-01 -1.693066e-01 -1.627879e-01 -1.553121e-01 -1.484407e-01 -1.398494e-01 -1.324591e-01 -1.226585e-01 -1.145931e-01 -1.035146e-01 -9.463350e-02 -8.223372e-02 -7.241617e-02 -5.867721e-02 -4.782685e-02 -3.275651e-02 -2.080516e-02 -4.437815e-03 8.650748e-03 2.625262e-02 4.047892e-02 5.922248e-02 7.454757e-02 9.430655e-02 
1.044785e-01 1.259016e-01 1.427850e-01 1.649992e-01 1.826623e-01 2.054259e-01 2.236419e-01 2.466634e-01 2.651479e-01 2.880827e-01 3.064918e-01 3.289415e-01 3.468726e-01 3.683862e-01 3.853821e-01 4.054610e-01 4.210175e-01 4.391254e-01 4.527035e-01 4.682803e-01 4.793237e-01 4.918057e-01 4.997632e-01 5.086076e-01 5.129598e-01 5.176739e-01 5.179639e-01 5.181359e-01 5.140007e-01 5.093316e-01 5.005328e-01 4.908650e-01 4.773155e-01 4.626553e-01 4.444391e-01 4.249717e-01 4.023543e-01 3.784475e-01 3.518756e-01 3.240721e-01 2.941611e-01 2.631595e-01 2.306705e-01 1.972956e-01 1.631025e-01 1.282674e-01 9.331604e-02 5.797882e-02 2.324193e-02 -1.164056e-02 -4.521061e-02 -7.872894e-02 -1.102459e-01 -1.415811e-01 -1.702663e-01 -1.987270e-01 -2.239441e-01 -2.489957e-01 -2.702757e-01 -2.915594e-01 -3.086149e-01 -3.259549e-01 -3.386826e-01 -3.520823e-01 -3.605542e-01 -3.701805e-01 -3.746247e-01 -3.807833e-01 -3.815569e-01 -3.846610e-01 -3.822180e-01 -3.827523e-01 -3.776091e-01 -3.760932e-01 -3.687951e-01 -3.657489e-01 -3.568394e-01 -3.527523e-01 -3.427468e-01 -3.380533e-01 -3.274187e-01 -3.224800e-01 -3.116204e-01 -3.067133e-01 -2.959613e-01 -2.912739e-01 -2.808869e-01 -2.765199e-01 -2.666804e-01 -2.626538e-01 -2.534733e-01 -2.497369e-01 -2.412617e-01 -2.377078e-01 -2.299265e-01 -2.264045e-01 -2.192559e-01 -2.155867e-01 -2.089686e-01 -2.049584e-01 -1.987361e-01 -1.941889e-01 -1.882034e-01 -1.829309e-01 -1.770074e-01 -1.708366e-01 -1.647919e-01 -1.575711e-01 -1.512210e-01 -1.428224e-01 -1.359880e-01 -1.263101e-01 -1.188235e-01 -1.077907e-01 -9.950063e-02 -8.706349e-02 -7.783920e-02 -6.397379e-02 -5.370942e-02 -3.841732e-02 -2.703541e-02 -1.034423e-02 2.200712e-03 2.023594e-02 3.395385e-02 5.324837e-02 6.810987e-02 8.854598e-02 
1.058718e-01 1.271068e-01 1.448859e-01 1.668981e-01 1.855392e-01 2.080865e-01 2.273593e-01 2.501482e-01 2.697612e-01 2.924433e-01 3.120422e-01 3.342123e-01 3.533797e-01 3.745772e-01 3.928363e-01 4.125502e-01 4.293718e-01 4.470508e-01 4.618663e-01 4.769340e-01 4.891530e-01 5.010295e-01 5.100642e-01 5.181928e-01 5.234862e-01 5.273650e-01 5.284242e-01 5.276396e-01 5.240700e-01 5.183305e-01 5.098688e-01 4.990353e-01 4.855783e-01 4.696871e-01 4.513129e-01 4.305890e-01 4.075679e-01 3.824268e-01 3.552206e-01 3.262571e-01 2.955056e-01 2.634710e-01 2.299674e-01 1.957356e-01 1.603915e-01 1.249184e-01 8.872128e-02 5.299829e-02 1.696431e-02 -1.802981e-02 -5.290517e-02 -8.625131e-02 -1.190412e-01 -1.499232e-01 -1.798131e-01 -2.075547e-01 -2.338790e-01 -2.579720e-01 -2.802410e-01 -3.003623e-01 -3.182772e-01 -3.342950e-01 -3.477506e-01 -3.597171e-01 -3.687922e-01 -3.769258e-01 -3.818625e-01 -3.865198e-01 -3.876941e-01 -3.893360e-01 -3.872233e-01 -3.863763e-01 -3.815144e-01 -3.787324e-01 -3.716860e-01 -3.675144e-01 -3.588429e-01 -3.537874e-01 -3.440178e-01 -3.385201e-01 -3.281266e-01 -3.225468e-01 -3.119369e-01 -3.065438e-01 -2.960498e-01 -2.910177e-01 -2.808941e-01 -2.763060e-01 -2.667310e-01 -2.625866e-01 -2.536661e-01 -2.498940e-01 -2.416682e-01 -2.381400e-01 -2.305914e-01 -2.271369e-01 -2.201982e-01 -2.166218e-01 -2.101846e-01 -2.062789e-01 -2.002025e-01 -1.957613e-01 -1.898809e-01 -1.847095e-01 -1.788444e-01 -1.727669e-01 -1.667283e-01 -1.595928e-01 -1.531911e-01 -1.448723e-01 -1.379237e-01 -1.283234e-01 -1.206560e-01 -1.097030e-01 -1.011616e-01 -8.881088e-02 -7.926173e-02 -6.549322e-02 -5.482767e-02 -3.964596e-02 -2.778420e-02 -1.121882e-02 1.886680e-03 1.977988e-02 3.414080e-02 5.327715e-02 6.886548e-02 8.912800e-02 
9.847337e-02 1.206064e-01 1.381087e-01 1.611866e-01 1.796513e-01 2.034419e-01 2.226479e-01 2.468648e-01 2.665275e-01 2.908249e-01 3.105925e-01 3.345615e-01 3.540136e-01 3.771812e-01 3.958305e-01 4.176630e-01 4.349612e-01 4.548720e-01 4.702216e-01 4.875858e-01 5.003579e-01 5.145330e-01 5.240918e-01 5.344463e-01 5.401800e-01 5.461271e-01 5.474842e-01 5.485200e-01 5.450484e-01 5.407914e-01 5.321766e-01 5.224048e-01 5.085049e-01 4.931861e-01 4.740580e-01 4.533697e-01 4.292843e-01 4.036205e-01 3.750640e-01 3.450277e-01 3.126879e-01 2.790682e-01 2.438075e-01 2.075444e-01 1.703603e-01 1.324995e-01 9.447587e-02 5.611671e-02 1.836966e-02 -1.939041e-02 -5.576886e-02 -9.188901e-02 -1.258859e-01 -1.594333e-01 -1.901644e-01 -2.203588e-01 -2.471100e-01 -2.733583e-01 -2.956155e-01 -3.175342e-01 -3.349995e-01 -3.524232e-01 -3.650168e-01 -3.779921e-01 -3.858396e-01 -3.946047e-01 -3.980119e-01 -4.029652e-01 -4.023833e-01 -4.040433e-01 -4.000286e-01 -3.989895e-01 -3.921605e-01 -3.890477e-01 -3.800448e-01 -3.754728e-01 -3.649223e-01 -3.594594e-01 -3.479437e-01 -3.420840e-01 -3.301200e-01 -3.242636e-01 -3.122886e-01 -3.067312e-01 -2.950949e-01 -2.900249e-01 -2.789885e-01 -2.744912e-01 -2.642303e-01 -2.602976e-01 -2.509087e-01 -2.474533e-01 -2.389617e-01 -2.358340e-01 -2.282037e-01 -2.252092e-01 -2.183523e-01 -2.152694e-01 -2.090562e-01 -2.056525e-01 -1.999206e-01 -1.959669e-01 -1.905303e-01 -1.858117e-01 -1.804697e-01 -1.747936e-01 -1.693387e-01 -1.625396e-01 -1.567650e-01 -1.487069e-01 -1.424135e-01 -1.329899e-01 -1.259917e-01 -1.151248e-01 -1.072539e-01 -9.489290e-02 -8.600379e-02 -7.212270e-02 -6.209573e-02 -4.669280e-02 -3.543740e-02 -1.853481e-02 -5.992608e-03 1.236236e-02 2.621417e-02 4.594666e-02 6.109158e-02 8.209547e-02 
9.908776e-02 1.211418e-01 1.396445e-01 1.626513e-01 1.822286e-01 2.059570e-01 2.263853e-01 2.505477e-01 2.715364e-01 2.957820e-01 3.169681e-01 3.408788e-01 3.618247e-01 3.849133e-01 4.051071e-01 4.268200e-01 4.456814e-01 4.654070e-01 4.822988e-01 4.993833e-01 5.136298e-01 5.274001e-01 5.383140e-01 5.481091e-01 5.550249e-01 5.602335e-01 5.625479e-01 5.626510e-01 5.598652e-01 5.544795e-01 5.462426e-01 5.351603e-01 5.213066e-01 5.045270e-01 4.851050e-01 4.628535e-01 4.381417e-01 4.108737e-01 3.813809e-01 3.497694e-01 3.162201e-01 2.811274e-01 2.444315e-01 2.068686e-01 1.680795e-01 1.291558e-01 8.941882e-02 5.028618e-02 1.078127e-02 -2.742420e-02 -6.554181e-02 -1.017562e-01 -1.374143e-01 -1.706982e-01 -2.029603e-01 -2.325433e-01 -2.606539e-01 -2.859684e-01 -3.093846e-01 -3.300870e-01 -3.484974e-01 -3.644743e-01 -3.778002e-01 -3.891591e-01 -3.975409e-01 -4.045863e-01 -4.083561e-01 -4.115536e-01 -4.111965e-01 -4.111290e-01 -4.072382e-01 -4.045577e-01 -3.977888e-01 -3.931686e-01 -3.841952e-01 -3.782864e-01 -3.677622e-01 -3.611573e-01 -3.496852e-01 -3.428901e-01 -3.310004e-01 -3.244159e-01 -3.125522e-01 -3.064647e-01 -2.949781e-01 -2.895589e-01 -2.787075e-01 -2.740190e-01 -2.639726e-01 -2.599799e-01 -2.508272e-01 -2.474149e-01 -2.391729e-01 -2.361629e-01 -2.287865e-01 -2.259581e-01 -2.193505e-01 -2.164589e-01 -2.104809e-01 -2.072749e-01 -2.017549e-01 -1.979912e-01 -1.927338e-01 -1.881882e-01 -1.829833e-01 -1.774587e-01 -1.720898e-01 -1.654201e-01 -1.596719e-01 -1.517235e-01 -1.453888e-01 -1.360597e-01 -1.289455e-01 -1.181631e-01 -1.100953e-01 -9.781366e-02 -8.864152e-02 -7.483891e-02 -6.443795e-02 -4.911538e-02 -3.739072e-02 -2.057148e-02 -7.460671e-03 1.080846e-02 2.533209e-02 4.497815e-02 6.090170e-02 8.182135e-02 
9.021473e-02 1.132417e-01 1.315251e-01 1.556990e-01 1.751862e-01 2.002903e-01 2.207707e-01 2.465290e-01 2.677215e-01 2.937905e-01 3.153370e-01 3.412981e-01 3.627584e-01 3.881141e-01 4.089646e-01 4.331374e-01 4.527746e-01 4.751136e-01 4.928634e-01 5.126574e-01 5.277937e-01 5.442939e-01 5.560652e-01 5.685171e-01 5.761833e-01 5.838678e-01 5.867439e-01 5.890255e-01 5.865314e-01 5.829093e-01 5.746201e-01 5.647774e-01 5.504698e-01 5.343154e-01 5.140044e-01 4.917015e-01 4.656618e-01 4.376387e-01 4.064095e-01 3.733515e-01 3.377203e-01 3.005425e-01 2.615123e-01 2.213154e-01 1.800559e-01 1.380703e-01 9.585766e-02 5.337897e-02 1.152932e-02 -3.014922e-02 -7.034940e-02 -1.100042e-01 -1.473655e-01 -1.839054e-01 -2.173966e-01 -2.499177e-01 -2.787170e-01 -3.065453e-01 -3.300772e-01 -3.527962e-01 -3.707508e-01 -3.882117e-01 -4.005453e-01 -4.128579e-01 -4.197748e-01 -4.272804e-01 -4.291991e-01 -4.324285e-01 -4.299349e-01 -4.295566e-01 -4.233515e-01 -4.201140e-01 -4.109588e-01 -4.056346e-01 -3.943007e-01 -3.876348e-01 -3.748607e-01 -3.675282e-01 -3.539854e-01 -3.465592e-01 -3.328289e-01 -3.257592e-01 -3.123189e-01 -3.059229e-01 -2.931411e-01 -2.876033e-01 -2.757420e-01 -2.711223e-01 -2.603438e-01 -2.565922e-01 -2.469693e-01 -2.439448e-01 -2.354728e-01 -2.329658e-01 -2.255743e-01 -2.233288e-01 -2.168936e-01 -2.146293e-01 -2.089834e-01 -2.064153e-01 -2.013597e-01 -1.982144e-01 -1.935275e-01 -1.895556e-01 -1.850025e-01 -1.799865e-01 -1.753281e-01 -1.690867e-01 -1.640871e-01 -1.564755e-01 -1.509094e-01 -1.418178e-01 -1.354758e-01 -1.248259e-01 -1.175197e-01 -1.052606e-01 -9.682634e-02 -8.293136e-02 -7.323236e-02 -5.769644e-02 -4.662588e-02 -2.946464e-02 -1.694793e-02 1.801544e-03 1.580385e-02 3.608038e-02 5.156890e-02 7.328279e-02 
8.993293e-02 1.129875e-01 1.323759e-01 1.566083e-01 1.773451e-01 2.025424e-01 2.244172e-01 2.503035e-01 2.730309e-01 2.992582e-01 3.224693e-01 3.486079e-01 3.718440e-01 3.973774e-01 4.200863e-01 4.444097e-01 4.659482e-01 4.883747e-01 5.080181e-01 5.277928e-01 5.447538e-01 5.610796e-01 5.745375e-01 5.866109e-01 5.957522e-01 6.028101e-01 6.068776e-01 6.082523e-01 6.066008e-01 6.017772e-01 5.939300e-01 5.826001e-01 5.683004e-01 5.504073e-01 5.296585e-01 5.054243e-01 4.785121e-01 4.484447e-01 4.159406e-01 3.808189e-01 3.435616e-01 3.044000e-01 2.634583e-01 2.214551e-01 1.780757e-01 1.345500e-01 9.009310e-02 4.641501e-02 2.283953e-03 -4.019639e-02 -8.262857e-02 -1.226505e-01 -1.621130e-01 -1.985693e-01 -2.339595e-01 -2.659514e-01 -2.963908e-01 -3.232707e-01 -3.481458e-01 -3.695431e-01 -3.885275e-01 -4.043566e-01 -4.174120e-01 -4.278592e-01 -4.352158e-01 -4.407074e-01 -4.428254e-01 -4.439803e-01 -4.414982e-01 -4.390695e-01 -4.327451e-01 -4.275578e-01 -4.182080e-01 -4.110984e-01 -3.995442e-01 -3.913058e-01 -3.783258e-01 -3.696657e-01 -3.559608e-01 -3.474675e-01 -3.336376e-01 -3.257619e-01 -3.122933e-01 -3.053403e-01 -2.926028e-01 -2.867344e-01 -2.749854e-01 -2.702311e-01 -2.596245e-01 -2.558992e-01 -2.464974e-01 -2.436228e-01 -2.354094e-01 -2.331387e-01 -2.260314e-01 -2.240738e-01 -2.179362e-01 -2.159808e-01 -2.106338e-01 -2.083708e-01 -2.036024e-01 -2.007402e-01 -1.963159e-01 -1.925933e-01 -1.882654e-01 -1.834596e-01 -1.789759e-01 -1.729054e-01 -1.680180e-01 -1.605419e-01 -1.550143e-01 -1.460289e-01 -1.396420e-01 -1.290760e-01 -1.216328e-01 -1.094418e-01 -1.007711e-01 -8.693344e-02 -7.689198e-02 -6.140527e-02 -4.988010e-02 -3.276028e-02 -1.967079e-02 -9.528392e-04 1.374649e-02 3.400551e-02 5.032143e-02 7.203735e-02 
7.929151e-02 1.033786e-01 1.225909e-01 1.480771e-01 1.687979e-01 1.954910e-01 2.175271e-01 2.451703e-01 2.682509e-01 2.965098e-01 3.202752e-01 3.487263e-01 3.727184e-01 4.008392e-01 4.244947e-01 4.516587e-01 4.743086e-01 4.997871e-01 5.206629e-01 5.436360e-01 5.618873e-01 5.814675e-01 5.961911e-01 6.114599e-01 6.217429e-01 6.318010e-01 6.367757e-01 6.408047e-01 6.397125e-01 6.370428e-01 6.293022e-01 6.194805e-01 6.047501e-01 5.875979e-01 5.658287e-01 5.414836e-01 5.129506e-01 4.818833e-01 4.471936e-01 4.101992e-01 3.702735e-01 3.284368e-01 2.844672e-01 2.391061e-01 1.924944e-01 1.450881e-01 9.736984e-02 4.947826e-02 2.238862e-03 -4.458183e-02 -8.979376e-02 -1.340744e-01 -1.758315e-01 -2.162680e-01 -2.533410e-01 -2.888627e-01 -3.202855e-01 -3.501099e-01 -3.752262e-01 -3.988941e-01 -4.173812e-01 -4.347695e-01 -4.466380e-01 -4.579466e-01 -4.635142e-01 -4.692294e-01 -4.690732e-01 -4.699106e-01 -4.648043e-01 -4.616393e-01 -4.524823e-01 -4.462742e-01 -4.340212e-01 -4.257408e-01 -4.113375e-01 -4.019030e-01 -3.862337e-01 -3.764589e-01 -3.603077e-01 -3.508653e-01 -3.348912e-01 -3.262911e-01 -3.110167e-01 -3.035979e-01 -2.894085e-01 -2.833433e-01 -2.704945e-01 -2.658028e-01 -2.544335e-01 -2.510039e-01 -2.411518e-01 -2.387681e-01 -2.303860e-01 -2.287557e-01 -2.217271e-01 -2.205109e-01 -2.146642e-01 -2.135035e-01 -2.086242e-01 -2.071650e-01 -2.030075e-01 -2.009199e-01 -1.972175e-01 -1.942096e-01 -1.906849e-01 -1.865103e-01 -1.828843e-01 -1.773451e-01 -1.733460e-01 -1.662908e-01 -1.616612e-01 -1.529800e-01 -1.474827e-01 -1.371004e-01 -1.305229e-01 -1.183924e-01 -1.105495e-01 -9.664574e-02 -8.738153e-02 -7.169704e-02 -6.088587e-02 -4.342895e-02 -3.097710e-02 -1.177201e-02 2.380248e-03 2.329041e-02 3.916546e-02 6.171349e-02 
7.794662e-02 1.021624e-01 1.225810e-01 1.482520e-01 1.703589e-01 1.973004e-01 2.209072e-01 2.488658e-01 2.737008e-01 3.023392e-01 3.280344e-01 3.569174e-01 3.829960e-01 4.115788e-01 4.374460e-01 4.650672e-01 4.900074e-01 5.158897e-01 5.390720e-01 5.623347e-01 5.828304e-01 6.025157e-01 6.193309e-01 6.344461e-01 6.465694e-01 6.561453e-01 6.626104e-01 6.657726e-01 6.657311e-01 6.617783e-01 6.545765e-01 6.430563e-01 6.283068e-01 6.090785e-01 5.867162e-01 5.599915e-01 5.303071e-01 4.966614e-01 4.603069e-01 4.206606e-01 3.786261e-01 3.341975e-01 2.877635e-01 2.400014e-01 1.906714e-01 1.411738e-01 9.059368e-02 4.102055e-02 -9.109686e-03 -5.712507e-02 -1.051427e-01 -1.500790e-01 -1.944485e-01 -2.349759e-01 -2.743727e-01 -3.094215e-01 -3.428034e-01 -3.716194e-01 -3.982799e-01 -4.204582e-01 -4.400549e-01 -4.555503e-01 -4.681052e-01 -4.772147e-01 -4.830857e-01 -4.864053e-01 -4.862327e-01 -4.845921e-01 -4.792272e-01 -4.736123e-01 -4.640370e-01 -4.555067e-01 -4.427548e-01 -4.323623e-01 -4.174484e-01 -4.061735e-01 -3.900364e-01 -3.787325e-01 -3.621947e-01 -3.515526e-01 -3.352959e-01 -3.258241e-01 -3.103807e-01 -3.024004e-01 -2.881545e-01 -2.818072e-01 -2.690065e-01 -2.642719e-01 -2.530426e-01 -2.497630e-01 -2.401283e-01 -2.380386e-01 -2.299361e-01 -2.286954e-01 -2.219935e-01 -2.212174e-01 -2.157292e-01 -2.150199e-01 -2.105156e-01 -2.094873e-01 -2.057052e-01 -2.040055e-01 -2.006623e-01 -1.979854e-01 -1.947866e-01 -1.908809e-01 -1.875305e-01 -1.822000e-01 -1.784101e-01 -1.715099e-01 -1.670085e-01 -1.584382e-01 -1.529755e-01 -1.426702e-01 -1.360229e-01 -1.239444e-01 -1.159183e-01 -1.020478e-01 -9.247882e-02 -7.681210e-02 -6.556698e-02 -4.811166e-02 -3.508893e-02 -1.586519e-02 -9.968339e-04 1.995923e-02 3.670455e-02 5.933486e-02 
6.519498e-02 9.048195e-02 1.107492e-01 1.377399e-01 1.598872e-01 1.884262e-01 2.122891e-01 2.421511e-01 2.674798e-01 2.983520e-01 3.247947e-01 3.562580e-01 3.833449e-01 4.148574e-01 4.419869e-01 4.728710e-01 4.993018e-01 5.287396e-01 5.535916e-01 5.806315e-01 6.029004e-01 6.264795e-01 6.450676e-01 6.640532e-01 6.778200e-01 6.910710e-01 6.989020e-01 7.053490e-01 7.062397e-01 7.049768e-01 6.981253e-01 6.885042e-01 6.733998e-01 6.551136e-01 6.316110e-01 6.047537e-01 5.731204e-01 5.382144e-01 4.991434e-01 4.571285e-01 4.117157e-01 3.639025e-01 3.135912e-01 2.615864e-01 2.080863e-01 1.536992e-01 9.888893e-02 4.402809e-02 -1.015065e-02 -6.358287e-02 -1.152347e-01 -1.654456e-01 -2.128279e-01 -2.582315e-01 -2.998525e-01 -3.391574e-01 -3.738597e-01 -4.061392e-01 -4.331616e-01 -4.579014e-01 -4.769097e-01 -4.940252e-01 -5.051103e-01 -5.149285e-01 -5.185690e-01 -5.217781e-01 -5.187729e-01 -5.163434e-01 -5.077247e-01 -5.008138e-01 -4.877503e-01 -4.776010e-01 -4.613045e-01 -4.491502e-01 -4.307932e-01 -4.177766e-01 -3.984281e-01 -3.855387e-01 -3.661199e-01 -3.541519e-01 -3.354114e-01 -3.249421e-01 -3.074483e-01 -2.988343e-01 -2.829816e-01 -2.763692e-01 -2.623941e-01 -2.577418e-01 -2.457439e-01 -2.428528e-01 -2.328185e-01 -2.313680e-01 -2.231921e-01 -2.227779e-01 -2.162839e-01 -2.164558e-01 -2.114120e-01 -2.117088e-01 -2.078419e-01 -2.078214e-01 -2.048285e-01 -2.040906e-01 -2.016504e-01 -1.998525e-01 -1.976353e-01 -1.944998e-01 -1.921784e-01 -1.874927e-01 -1.847517e-01 -1.783627e-01 -1.749068e-01 -1.667109e-01 -1.622710e-01 -1.522033e-01 -1.465397e-01 -1.345629e-01 -1.274675e-01 -1.135623e-01 -1.048584e-01 -8.901713e-02 -7.855901e-02 -6.078223e-02 -4.845486e-02 -2.875116e-02 -1.447121e-02 7.139659e-03 2.342121e-02 4.690205e-02 
6.256798e-02 8.807512e-02 1.096424e-01 1.369365e-01 1.606023e-01 1.895414e-01 2.151521e-01 2.455197e-01 2.728308e-01 3.043152e-01 3.329715e-01 3.651438e-01 3.946595e-01 4.269535e-01 4.566948e-01 4.883910e-01 5.175640e-01 5.477831e-01 5.754326e-01 6.031417e-01 6.281658e-01 6.522040e-01 6.733873e-01 6.925145e-01 7.085855e-01 7.215547e-01 7.312647e-01 7.369168e-01 7.391377e-01 7.365092e-01 7.303392e-01 7.187701e-01 7.036344e-01 6.828598e-01 6.585921e-01 6.288017e-01 5.956923e-01 5.575482e-01 5.163525e-01 4.709633e-01 4.228708e-01 3.717266e-01 3.182967e-01 2.631780e-01 2.062515e-01 1.491229e-01 9.071961e-02 3.361891e-02 -2.417323e-02 -7.924421e-02 -1.343828e-01 -1.855631e-01 -2.361644e-01 -2.818321e-01 -3.262777e-01 -3.651381e-01 -4.021693e-01 -4.333267e-01 -4.621151e-01 -4.851205e-01 -5.053075e-01 -5.201731e-01 -5.318694e-01 -5.390462e-01 -5.427911e-01 -5.431091e-01 -5.397944e-01 -5.343729e-01 -5.251427e-01 -5.152829e-01 -5.014227e-01 -4.884961e-01 -4.713271e-01 -4.566719e-01 -4.374592e-01 -4.222943e-01 -4.021774e-01 -3.875389e-01 -3.674859e-01 -3.541866e-01 -3.349709e-01 -3.235819e-01 -3.057790e-01 -2.966299e-01 -2.806280e-01 -2.738225e-01 -2.598435e-01 -2.552863e-01 -2.434110e-01 -2.408425e-01 -2.310371e-01 -2.300731e-01 -2.222131e-01 -2.223869e-01 -2.162772e-01 -2.170808e-01 -2.124717e-01 -2.133939e-01 -2.099942e-01 -2.105532e-01 -2.080407e-01 -2.078091e-01 -2.058417e-01 -2.044618e-01 -2.026882e-01 -1.998787e-01 -1.979498e-01 -1.935037e-01 -1.910835e-01 -1.848594e-01 -1.816342e-01 -1.735437e-01 -1.692288e-01 -1.592221e-01 -1.535652e-01 -1.416177e-01 -1.344004e-01 -1.205015e-01 -1.115381e-01 -9.568379e-02 -8.482014e-02 -6.700923e-02 -5.412118e-02 -3.435569e-02 -1.934950e-02 2.361554e-03 1.954695e-02 4.318019e-02 
4.731807e-02 7.390710e-02 9.532379e-02 1.239742e-01 1.477128e-01 1.783225e-01 2.042623e-01 2.366560e-01 2.645846e-01 2.984890e-01 3.280789e-01 3.630962e-01 3.938796e-01 4.294610e-01 4.608059e-01 4.962278e-01 5.273195e-01 5.616683e-01 5.915005e-01 6.236703e-01 6.510538e-01 6.797649e-01 7.033574e-01 7.272013e-01 7.455656e-01 7.630799e-01 7.747704e-01 7.845425e-01 7.882172e-01 7.890108e-01 7.835583e-01 7.744466e-01 7.591130e-01 7.396001e-01 7.140967e-01 6.842064e-01 6.487796e-01 6.090964e-01 5.645481e-01 5.162026e-01 4.638594e-01 4.084631e-01 3.500997e-01 2.896419e-01 2.273733e-01 1.640964e-01 1.002511e-01 3.651825e-02 -2.649669e-02 -8.833355e-02 -1.481693e-01 -2.058962e-01 -2.603962e-01 -3.120586e-01 -3.593847e-01 -4.033991e-01 -4.421418e-01 -4.773902e-01 -5.066516e-01 -5.325478e-01 -5.519852e-01 -5.685004e-01 -5.783225e-01 -5.859622e-01 -5.868756e-01 -5.866083e-01 -5.797214e-01 -5.728681e-01 -5.595680e-01 -5.476688e-01 -5.294870e-01 -5.141638e-01 -4.926511e-01 -4.754810e-01 -4.521011e-01 -4.345138e-01 -4.105648e-01 -3.937670e-01 -3.703321e-01 -3.552614e-01 -3.331859e-01 -3.204914e-01 -3.003834e-01 -2.904282e-01 -2.726755e-01 -2.655577e-01 -2.503563e-01 -2.459425e-01 -2.333297e-01 -2.312978e-01 -2.211861e-01 -2.210731e-01 -2.132801e-01 -2.145322e-01 -2.088045e-01 -2.108257e-01 -2.068579e-01 -2.090544e-01 -2.065028e-01 -2.083210e-01 -2.068145e-01 -2.077687e-01 -2.069204e-01 -2.066100e-01 -2.060278e-01 -2.041437e-01 -2.034424e-01 -1.997633e-01 -1.985759e-01 -1.929562e-01 -1.909436e-01 -1.832978e-01 -1.801548e-01 -1.704391e-01 -1.658977e-01 -1.540936e-01 -1.479225e-01 -1.340235e-01 -1.260256e-01 -1.100271e-01 -1.000369e-01 -8.193182e-02 -6.981215e-02 -4.959020e-02 -3.523144e-02 -1.288282e-02 3.795656e-03 2.827293e-02 