# vtk DataFile Version 2.0
Comment goes here
ASCII

DATASET STRUCTURED_POINTS
FIELD FieldData 1
TIME 1 1 double
0.02000000
DIMENSIONS    128   128   1

ORIGIN    0.000   0.000   0.000
SPACING   0.039062 0.039062   1.000

POINT_DATA   16384
SCALARS uX double
LOOKUP_TABLE default

4.307174e-01 4.570304e-01 4.756962e-01 5.000625e-01 5.184319e-01 5.405943e-01 5.584842e-01 5.781656e-01 5.953567e-01 6.122624e-01 6.284998e-01 6.423226e-01 6.573190e-01 6.677451e-01 6.811856e-01 6.879031e-01 6.994524e-01 7.021611e-01 7.114735e-01 7.098959e-01 7.166266e-01 7.105209e-01 7.143396e-01 7.035119e-01 7.041169e-01 6.884347e-01 6.855681e-01 6.649714e-01 6.584334e-01 6.329455e-01 6.226074e-01 5.923430e-01 5.781578e-01 5.433282e-01 5.253392e-01 4.862543e-01 4.645995e-01 4.216671e-01 3.965807e-01 3.503016e-01 3.221118e-01 2.730721e-01 2.421957e-01 1.910570e-01 1.579901e-01 1.054766e-01 7.078322e-02 1.766652e-02 -1.803586e-02 -7.095312e-02 -1.070108e-01 -1.589135e-01 -1.946556e-01 -2.447360e-01 -2.794951e-01 -3.269743e-01 -3.601085e-01 -4.042574e-01 -4.351721e-01 -4.753333e-01 -5.035020e-01 -5.391097e-01 -5.640923e-01 -5.946888e-01 -6.161465e-01 -6.413955e-01 -6.590995e-01 -6.787929e-01 -6.926286e-01 -7.066879e-01 -7.166519e-01 -7.251217e-01 -7.313132e-01 -7.343507e-01 -7.369576e-01 -7.348153e-01 -7.340969e-01 -7.271034e-01 -7.233704e-01 -7.119094e-01 -7.055041e-01 -6.899932e-01 -6.812707e-01 -6.621427e-01 -6.514541e-01 -6.291410e-01 -6.168198e-01 -5.917402e-01 -5.780928e-01 -5.506430e-01 -5.359416e-01 -5.064900e-01 -4.909693e-01 -4.598540e-01 -4.437104e-01 -4.112384e-01 -3.946310e-01 -3.610795e-01 -3.441327e-01 -3.097511e-01 -2.925580e-01 -2.575709e-01 -2.401971e-01 -2.048072e-01 -1.872949e-01 -1.516859e-01 -1.340583e-01 -9.839832e-02 -8.066321e-02 -4.510797e-02 -2.726209e-02 8.042128e-03 2.600923e-02 6.092214e-02 7.902413e-02 1.134081e-01 1.316578e-01 1.653743e-01 1.837794e-01 2.166856e-01 2.352444e-01 2.671893e-01 2.858864e-01 3.167074e-01 3.355091e-01 3.650290e-01 3.838788e-01 4.119027e-01 
4.291067e-01 4.552217e-01 4.738258e-01 4.979994e-01 5.162843e-01 5.382608e-01 5.560410e-01 5.755452e-01 5.925999e-01 6.093401e-01 6.254136e-01 6.390859e-01 6.538914e-01 6.641862e-01 6.774103e-01 6.840205e-01 6.953308e-01 6.979612e-01 7.070162e-01 7.053948e-01 7.118551e-01 7.057454e-01 7.092873e-01 6.985005e-01 6.988299e-01 6.832379e-01 6.801049e-01 6.596510e-01 6.528641e-01 6.275739e-01 6.170122e-01 5.870009e-01 5.726248e-01 5.381022e-01 5.199612e-01 4.812342e-01 4.594711e-01 4.169422e-01 3.917946e-01 3.459579e-01 3.177556e-01 2.691893e-01 2.383490e-01 1.877057e-01 1.547221e-01 1.027164e-01 6.815081e-02 1.554515e-02 -1.998886e-02 -7.240097e-02 -1.082542e-01 -1.596659e-01 -1.951723e-01 -2.447832e-01 -2.792808e-01 -3.263181e-01 -3.591702e-01 -4.029099e-01 -4.335275e-01 -4.733163e-01 -5.011781e-01 -5.364533e-01 -5.611249e-01 -5.914314e-01 -6.125792e-01 -6.375830e-01 -6.549839e-01 -6.744787e-01 -6.880240e-01 -7.019328e-01 -7.116247e-01 -7.199940e-01 -7.259373e-01 -7.289252e-01 -7.313130e-01 -7.291731e-01 -7.282691e-01 -7.213301e-01 -7.174484e-01 -7.060932e-01 -6.995784e-01 -6.842227e-01 -6.754303e-01 -6.565039e-01 -6.457838e-01 -6.237145e-01 -6.113977e-01 -5.865987e-01 -5.729870e-01 -5.458483e-01 -5.312085e-01 -5.020918e-01 -4.866524e-01 -4.558883e-01 -4.398389e-01 -4.077274e-01 -3.912204e-01 -3.580321e-01 -3.411858e-01 -3.071641e-01 -2.900662e-01 -2.554307e-01 -2.381425e-01 -2.030921e-01 -1.856529e-01 -1.503688e-01 -1.327998e-01 -9.744862e-02 -7.975737e-02 -4.449432e-02 -2.667819e-02 8.349905e-03 2.629968e-02 6.095139e-02 7.904593e-02 1.131820e-01 1.314309e-01 1.649111e-01 1.833185e-01 2.159978e-01 2.345582e-01 2.662840e-01 2.849777e-01 3.155861e-01 3.343755e-01 3.636880e-01 3.825126e-01 4.103337e-01 
4.316474e-01 4.580784e-01 4.768177e-01 5.013127e-01 5.197735e-01 5.420747e-01 5.600742e-01 5.799029e-01 5.972212e-01 6.142808e-01 6.306617e-01 6.446415e-01 6.597951e-01 6.703775e-01 6.839852e-01 6.908532e-01 7.025751e-01 7.054227e-01 7.149072e-01 7.134510e-01 7.203466e-01 7.143381e-01 7.183072e-01 7.075463e-01 7.082800e-01 6.926280e-01 6.898612e-01 6.692530e-01 6.627793e-01 6.372343e-01 6.269195e-01 5.965496e-01 5.823428e-01 5.473583e-01 5.293002e-01 4.900116e-01 4.682397e-01 4.250570e-01 3.998065e-01 3.532341e-01 3.248360e-01 2.754655e-01 2.443409e-01 1.928401e-01 1.594911e-01 1.065916e-01 7.158943e-02 1.807138e-02 -1.795806e-02 -7.128283e-02 -1.076763e-01 -1.599826e-01 -1.960587e-01 -2.465285e-01 -2.816090e-01 -3.294523e-01 -3.628842e-01 -4.073613e-01 -4.385398e-01 -4.789835e-01 -5.073727e-01 -5.432085e-01 -5.683612e-01 -5.991252e-01 -6.206977e-01 -6.460501e-01 -6.638119e-01 -6.835441e-01 -6.973820e-01 -7.114181e-01 -7.213331e-01 -7.297238e-01 -7.358218e-01 -7.387325e-01 -7.412102e-01 -7.389032e-01 -7.380297e-01 -7.308442e-01 -7.269403e-01 -7.152702e-01 -7.086877e-01 -6.929602e-01 -6.840624e-01 -6.647182e-01 -6.538629e-01 -6.313404e-01 -6.188663e-01 -5.935884e-01 -5.798051e-01 -5.521709e-01 -5.373522e-01 -5.077316e-01 -4.921128e-01 -4.608440e-01 -4.446208e-01 -4.120102e-01 -3.953406e-01 -3.616643e-01 -3.446710e-01 -3.101772e-01 -2.929512e-01 -2.578628e-01 -2.404678e-01 -2.049860e-01 -1.874622e-01 -1.517691e-01 -1.341375e-01 -9.839971e-02 -8.066619e-02 -4.503780e-02 -2.719711e-02 8.177230e-03 2.613756e-02 6.111925e-02 7.921490e-02 1.136681e-01 1.319139e-01 1.657019e-01 1.841078e-01 2.170895e-01 2.356560e-01 2.676822e-01 2.863961e-01 3.173059e-01 3.361357e-01 3.657531e-01 3.846445e-01 4.127758e-01 
4.309820e-01 4.573323e-01 4.760866e-01 5.005163e-01 5.189863e-01 5.412383e-01 5.592392e-01 5.790355e-01 5.963453e-01 6.133897e-01 6.297498e-01 6.437322e-01 6.588506e-01 6.694533e-01 6.830090e-01 6.899150e-01 7.015664e-01 7.044693e-01 7.138630e-01 7.124788e-01 7.192623e-01 7.133419e-01 7.171772e-01 7.065194e-01 7.070980e-01 6.915629e-01 6.886209e-01 6.681421e-01 6.614755e-01 6.360705e-01 6.255479e-01 5.953268e-01 5.809011e-01 5.460717e-01 5.277877e-01 4.886580e-01 4.666574e-01 4.236343e-01 3.981569e-01 3.517417e-01 3.231228e-01 2.739037e-01 2.425687e-01 1.912106e-01 1.576657e-01 1.048978e-01 6.971849e-02 1.631931e-02 -1.986408e-02 -7.308275e-02 -1.096022e-01 -1.618138e-01 -1.979828e-01 -2.483660e-01 -2.835009e-01 -3.312611e-01 -3.647034e-01 -4.090954e-01 -4.402350e-01 -4.805854e-01 -5.088831e-01 -5.446120e-01 -5.696183e-01 -6.002579e-01 -6.216299e-01 -6.468386e-01 -6.643497e-01 -6.839205e-01 -6.974646e-01 -7.113259e-01 -7.209142e-01 -7.291242e-01 -7.348754e-01 -7.376090e-01 -7.397341e-01 -7.372646e-01 -7.360471e-01 -7.287247e-01 -7.244992e-01 -7.127275e-01 -7.058577e-01 -6.900717e-01 -6.809297e-01 -6.615752e-01 -6.505246e-01 -6.280416e-01 -6.154231e-01 -5.902338e-01 -5.763555e-01 -5.488550e-01 -5.339870e-01 -5.045393e-01 -4.889102e-01 -4.578461e-01 -4.416442e-01 -4.092622e-01 -3.926370e-01 -3.592050e-01 -3.422710e-01 -3.080296e-01 -2.908703e-01 -2.560360e-01 -2.387085e-01 -2.034770e-01 -1.860163e-01 -1.505655e-01 -1.329891e-01 -9.748270e-02 -7.979393e-02 -4.438415e-02 -2.657667e-02 8.592797e-03 2.653155e-02 6.132244e-02 7.940746e-02 1.136838e-01 1.319287e-01 1.655536e-01 1.839667e-01 2.167987e-01 2.353786e-01 2.672684e-01 2.859999e-01 3.167867e-01 3.356364e-01 3.651444e-01 3.840560e-01 4.120919e-01 
4.344099e-01 4.611948e-01 4.801541e-01 5.050356e-01 5.237702e-01 5.464890e-01 5.648176e-01 5.850908e-01 6.027922e-01 6.203165e-01 6.371303e-01 6.515855e-01 6.672143e-01 6.782703e-01 6.923847e-01 6.997097e-01 7.119552e-01 7.152259e-01 7.252333e-01 7.241474e-01 7.315450e-01 7.258344e-01 7.302625e-01 7.197076e-01 7.208346e-01 7.052785e-01 7.028174e-01 6.821791e-01 6.759036e-01 6.501899e-01 6.399492e-01 6.092640e-01 5.949947e-01 5.595448e-01 5.412804e-01 5.013783e-01 4.792540e-01 4.353163e-01 4.095708e-01 3.621136e-01 3.330862e-01 2.827166e-01 2.508418e-01 1.982471e-01 1.640446e-01 1.099788e-01 7.404176e-02 1.931037e-02 -1.770981e-02 -7.226712e-02 -1.096782e-01 -1.632062e-01 -2.002953e-01 -2.519438e-01 -2.879995e-01 -3.369457e-01 -3.712814e-01 -4.167531e-01 -4.487320e-01 -4.900314e-01 -5.190895e-01 -5.556160e-01 -5.812837e-01 -6.125539e-01 -6.344726e-01 -6.601354e-01 -6.780694e-01 -6.979150e-01 -7.117552e-01 -7.257163e-01 -7.354770e-01 -7.436224e-01 -7.494311e-01 -7.519515e-01 -7.540319e-01 -7.512200e-01 -7.498715e-01 -7.420992e-01 -7.376734e-01 -7.253664e-01 -7.182440e-01 -7.018585e-01 -6.924281e-01 -6.724292e-01 -6.610691e-01 -6.379138e-01 -6.249776e-01 -5.991021e-01 -5.849091e-01 -5.567206e-01 -5.415497e-01 -5.114217e-01 -4.955091e-01 -4.637802e-01 -4.473197e-01 -4.142944e-01 -3.974399e-01 -3.633907e-01 -3.462597e-01 -3.114305e-01 -2.941081e-01 -2.587174e-01 -2.412609e-01 -2.055049e-01 -1.879485e-01 -1.520048e-01 -1.343632e-01 -9.839364e-02 -8.066685e-02 -4.482069e-02 -2.699753e-02 8.585463e-03 2.652342e-02 6.170973e-02 7.978426e-02 1.144433e-01 1.326755e-01 1.666760e-01 1.850823e-01 2.182885e-01 2.368761e-01 2.691443e-01 2.879067e-01 3.190810e-01 3.379934e-01 3.679021e-01 3.869165e-01 4.153693e-01 
4.346790e-01 4.614999e-01 4.805527e-01 5.054956e-01 5.243354e-01 5.471410e-01 5.655845e-01 5.859695e-01 6.037926e-01 6.214518e-01 6.383903e-01 6.530009e-01 6.687524e-01 6.799805e-01 6.942093e-01 7.017180e-01 7.140630e-01 7.175233e-01 7.276075e-01 7.267105e-01 7.341545e-01 7.286251e-01 7.330617e-01 7.226734e-01 7.237642e-01 7.083532e-01 7.058058e-01 6.852849e-01 6.788693e-01 6.532398e-01 6.428032e-01 6.121647e-01 5.976441e-01 5.622000e-01 5.436310e-01 5.036918e-01 4.812137e-01 4.371950e-01 4.110523e-01 3.634703e-01 3.340096e-01 2.834726e-01 2.511367e-01 1.983346e-01 1.636529e-01 1.093439e-01 7.292067e-02 1.791633e-02 -1.958465e-02 -7.443615e-02 -1.123087e-01 -1.661411e-01 -2.036569e-01 -2.556063e-01 -2.920375e-01 -3.412651e-01 -3.759084e-01 -4.216249e-01 -4.538273e-01 -4.953181e-01 -5.245019e-01 -5.611511e-01 -5.868366e-01 -6.181494e-01 -6.399736e-01 -6.655930e-01 -6.833218e-01 -7.030387e-01 -7.165718e-01 -7.303264e-01 -7.396935e-01 -7.475684e-01 -7.529177e-01 -7.551226e-01 -7.567023e-01 -7.535523e-01 -7.516876e-01 -7.435772e-01 -7.386450e-01 -7.260214e-01 -7.184248e-01 -7.017621e-01 -6.919077e-01 -6.716843e-01 -6.599628e-01 -6.366439e-01 -6.234156e-01 -5.974403e-01 -5.830259e-01 -5.547995e-01 -5.394743e-01 -5.093646e-01 -4.933578e-01 -4.616952e-01 -4.451913e-01 -4.122706e-01 -3.954127e-01 -3.614964e-01 -3.443910e-01 -3.097136e-01 -2.924357e-01 -2.572070e-01 -2.398050e-01 -2.042142e-01 -1.867148e-01 -1.509337e-01 -1.333461e-01 -9.753244e-02 -7.985243e-02 -4.415225e-02 -2.636589e-02 9.083147e-03 2.699597e-02 6.206193e-02 8.012391e-02 1.146774e-01 1.329102e-01 1.668211e-01 1.852412e-01 2.183752e-01 2.369898e-01 2.692044e-01 2.880073e-01 3.191481e-01 3.381144e-01 3.680114e-01 3.870933e-01 4.155576e-01 
4.389220e-01 4.662962e-01 4.856184e-01 5.111461e-01 5.303359e-01 5.537551e-01 5.726336e-01 5.936552e-01 6.119997e-01 6.303090e-01 6.478526e-01 6.631138e-01 6.795468e-01 6.914089e-01 7.063837e-01 7.144894e-01 7.276272e-01 7.316240e-01 7.425254e-01 7.420787e-01 7.503371e-01 7.451449e-01 7.503629e-01 7.401718e-01 7.419785e-01 7.265999e-01 7.246703e-01 7.039957e-01 6.980689e-01 6.720834e-01 6.619796e-01 6.307727e-01 6.164075e-01 5.801801e-01 5.615740e-01 5.206418e-01 4.979266e-01 4.527179e-01 4.261380e-01 3.771886e-01 3.470978e-01 2.950416e-01 2.618967e-01 2.074538e-01 1.718045e-01 1.157668e-01 7.824311e-02 2.145852e-02 -1.724503e-02 -7.389005e-02 -1.130323e-01 -1.686318e-01 -2.074462e-01 -2.610958e-01 -2.988139e-01 -3.496344e-01 -3.855120e-01 -4.326749e-01 -4.660194e-01 -5.087738e-01 -5.389718e-01 -5.766710e-01 -6.032133e-01 -6.353391e-01 -6.578413e-01 -6.840228e-01 -7.022392e-01 -7.222639e-01 -7.360931e-01 -7.499092e-01 -7.593894e-01 -7.670975e-01 -7.723941e-01 -7.742301e-01 -7.756149e-01 -7.719255e-01 -7.697511e-01 -7.609655e-01 -7.556376e-01 -7.422372e-01 -7.341869e-01 -7.166778e-01 -7.063372e-01 -6.852260e-01 -6.730079e-01 -6.487832e-01 -6.350661e-01 -6.081857e-01 -5.933044e-01 -5.641879e-01 -5.484287e-01 -5.174547e-01 -5.010545e-01 -4.685610e-01 -4.517094e-01 -4.179966e-01 -4.008399e-01 -3.661739e-01 -3.488201e-01 -3.134371e-01 -2.959608e-01 -2.600714e-01 -2.425194e-01 -2.063118e-01 -1.887076e-01 -1.523515e-01 -1.346999e-01 -9.834937e-02 -8.064040e-02 -4.443673e-02 -2.664939e-02 9.275700e-03 2.716964e-02 6.269111e-02 8.072348e-02 1.157195e-01 1.339219e-01 1.682705e-01 1.866700e-01 2.202447e-01 2.388598e-01 2.715259e-01 2.903617e-01 3.219719e-01 3.410148e-01 3.714053e-01 3.906183e-01 4.196047e-01 
4.400885e-01 4.676146e-01 4.871102e-01 5.128257e-01 5.322186e-01 5.558614e-01 5.749711e-01 5.962503e-01 6.148507e-01 6.334479e-01 6.512666e-01 6.668401e-01 6.835598e-01 6.957507e-01 7.110134e-01 7.194545e-01 7.328693e-01 7.371965e-01 7.483501e-01 7.482160e-01 7.566869e-01 7.517760e-01 7.571515e-01 7.471971e-01 7.490920e-01 7.338928e-01 7.319694e-01 7.114054e-01 7.053930e-01 6.794400e-01 6.691519e-01 6.378926e-01 6.232411e-01 5.868722e-01 5.678785e-01 5.267140e-01 5.035140e-01 4.579833e-01 4.308288e-01 3.814711e-01 3.507260e-01 2.981810e-01 2.643147e-01 2.093102e-01 1.728878e-01 1.162261e-01 7.789496e-02 2.043732e-02 -1.908757e-02 -7.643788e-02 -1.163923e-01 -1.727086e-01 -2.122999e-01 -2.666533e-01 -3.050850e-01 -3.565681e-01 -3.930666e-01 -4.408212e-01 -4.746655e-01 -5.179108e-01 -5.484619e-01 -5.865247e-01 -6.132540e-01 -6.455956e-01 -6.681076e-01 -6.943455e-01 -7.123939e-01 -7.323152e-01 -7.458091e-01 -7.593730e-01 -7.683721e-01 -7.757011e-01 -7.804014e-01 -7.817616e-01 -7.824717e-01 -7.782456e-01 -7.753578e-01 -7.660114e-01 -7.599701e-01 -7.460198e-01 -7.372905e-01 -7.192719e-01 -7.083148e-01 -6.867569e-01 -6.740044e-01 -6.494101e-01 -6.352519e-01 -6.080851e-01 -5.928591e-01 -5.635385e-01 -5.475272e-01 -5.164250e-01 -4.998562e-01 -4.673000e-01 -4.503510e-01 -4.166288e-01 -3.994317e-01 -3.647968e-01 -3.474451e-01 -3.121216e-01 -2.946766e-01 -2.588643e-01 -2.413611e-01 -2.052392e-01 -1.876917e-01 -1.514228e-01 -1.338282e-01 -9.756099e-02 -7.990358e-02 -4.377546e-02 -2.603021e-02 9.830269e-03 2.769458e-02 6.316489e-02 8.118235e-02 1.161431e-01 1.343472e-01 1.686786e-01 1.870984e-01 2.206768e-01 2.393327e-01 2.720263e-01 2.909254e-01 3.225901e-01 3.417211e-01 3.721960e-01 3.915240e-01 4.206275e-01 
4.450416e-01 4.732396e-01 4.930620e-01 5.194978e-01 5.393215e-01 5.637305e-01 5.833814e-01 6.054660e-01 6.247203e-01 6.441510e-01 6.627334e-01 6.791519e-01 6.967365e-01 7.097624e-01 7.259758e-01 7.352154e-01 7.496441e-01 7.547024e-01 7.669035e-01 7.673987e-01 7.769149e-01 7.724952e-01 7.788731e-01 7.692353e-01 7.720460e-01 7.569544e-01 7.558165e-01 7.351213e-01 7.297224e-01 7.033762e-01 6.934938e-01 6.615646e-01 6.470826e-01 6.097627e-01 5.906831e-01 5.482924e-01 5.247423e-01 4.777266e-01 4.499587e-01 3.988829e-01 3.672719e-01 3.128088e-01 2.778441e-01 2.207608e-01 1.830347e-01 1.241769e-01 8.437158e-02 2.464709e-02 -1.648144e-02 -7.612013e-02 -1.177610e-01 -1.763359e-01 -2.176450e-01 -2.741742e-01 -3.143002e-01 -3.678225e-01 -4.059358e-01 -4.555394e-01 -4.908646e-01 -5.357189e-01 -5.675676e-01 -6.069559e-01 -6.347587e-01 -6.681093e-01 -6.914420e-01 -7.183526e-01 -7.369546e-01 -7.572085e-01 -7.709896e-01 -7.845585e-01 -7.935940e-01 -8.006276e-01 -8.051414e-01 -8.059451e-01 -8.062825e-01 -8.012857e-01 -7.978806e-01 -7.875994e-01 -7.809390e-01 -7.659385e-01 -7.565288e-01 -7.373891e-01 -7.257260e-01 -7.030137e-01 -6.895593e-01 -6.638073e-01 -6.489747e-01 -6.206696e-01 -6.048141e-01 -5.743909e-01 -5.578067e-01 -5.256485e-01 -5.085712e-01 -4.750128e-01 -4.576238e-01 -4.229574e-01 -4.053906e-01 -3.698716e-01 -3.522201e-01 -3.160730e-01 -2.983960e-01 -2.618195e-01 -2.441483e-01 -2.073195e-01 -1.896628e-01 -1.527402e-01 -1.350886e-01 -9.821561e-02 -8.054529e-02 -4.385250e-02 -2.612911e-02 1.026307e-02 2.808130e-02 6.405962e-02 8.201840e-02 1.174736e-01 1.356190e-01 1.704419e-01 1.888163e-01 2.228940e-01 2.415319e-01 2.747430e-01 2.936657e-01 3.258758e-01 3.450862e-01 3.761429e-01 3.956202e-01 4.253484e-01 
4.470411e-01 4.755056e-01 4.955815e-01 5.223317e-01 5.424580e-01 5.672293e-01 5.872311e-01 6.097231e-01 6.293730e-01 6.492503e-01 6.682663e-01 6.851620e-01 7.032073e-01 7.167288e-01 7.334158e-01 7.431541e-01 7.580513e-01 7.635938e-01 7.762374e-01 7.771825e-01 7.870922e-01 7.830675e-01 7.897661e-01 7.804479e-01 7.834837e-01 7.686169e-01 7.675876e-01 7.470054e-01 7.415818e-01 7.152233e-01 7.051708e-01 6.730942e-01 6.582901e-01 6.206825e-01 6.011279e-01 5.583085e-01 5.341349e-01 4.865528e-01 4.580224e-01 4.062492e-01 3.737502e-01 3.184688e-01 2.825076e-01 2.244981e-01 1.856874e-01 1.258116e-01 8.485774e-02 2.404359e-02 -1.826967e-02 -7.904510e-02 -1.218744e-01 -1.816029e-01 -2.240671e-01 -2.817306e-01 -3.229374e-01 -3.775333e-01 -4.166095e-01 -4.671810e-01 -5.033077e-01 -5.489791e-01 -5.814282e-01 -6.214415e-01 -6.496120e-01 -6.833629e-01 -7.068111e-01 -7.338786e-01 -7.523395e-01 -7.725044e-01 -7.859009e-01 -7.991502e-01 -8.075869e-01 -8.141023e-01 -8.178464e-01 -8.179784e-01 -8.174278e-01 -8.116585e-01 -8.073042e-01 -7.962046e-01 -7.885891e-01 -7.727757e-01 -7.624543e-01 -7.425503e-01 -7.300583e-01 -7.066627e-01 -6.924896e-01 -6.661556e-01 -6.507297e-01 -6.219524e-01 -6.056325e-01 -5.748454e-01 -5.579202e-01 -5.254974e-01 -5.081894e-01 -4.744517e-01 -4.569254e-01 -4.221484e-01 -4.045183e-01 -3.689408e-01 -3.512812e-01 -3.151121e-01 -2.974649e-01 -2.608894e-01 -2.432711e-01 -2.064555e-01 -1.888626e-01 -1.519573e-01 -1.343712e-01 -9.751322e-02 -7.990335e-02 -4.321876e-02 -2.554571e-02 1.084866e-02 2.863049e-02 6.462449e-02 8.256407e-02 1.180516e-01 1.361981e-01 1.710736e-01 1.894729e-01 2.236274e-01 2.423176e-01 2.756343e-01 2.946410e-01 3.269903e-01 3.463211e-01 3.775554e-01 3.971936e-01 4.271422e-01 
4.525626e-01 4.818162e-01 5.022669e-01 5.298752e-01 5.505068e-01 5.762034e-01 5.968502e-01 6.203279e-01 6.407668e-01 6.616772e-01 6.816241e-01 6.995808e-01 7.186897e-01 7.332737e-01 7.511385e-01 7.619079e-01 7.780695e-01 7.845719e-01 7.985292e-01 8.003189e-01 8.115455e-01 8.082025e-01 8.161682e-01 8.073202e-01 8.115159e-01 7.968619e-01 7.968272e-01 7.761597e-01 7.715109e-01 7.447367e-01 7.351916e-01 7.023485e-01 6.877474e-01 6.490153e-01 6.293355e-01 5.850406e-01 5.604029e-01 5.110154e-01 4.816848e-01 4.278095e-01 3.941895e-01 3.365520e-01 2.991751e-01 2.386050e-01 1.981199e-01 1.355335e-01 9.269043e-02 2.907330e-02 -1.529181e-02 -7.890214e-02 -1.238865e-01 -1.864185e-01 -2.310751e-01 -2.914441e-01 -3.348091e-01 -3.919435e-01 -4.330699e-01 -4.859430e-01 -5.239389e-01 -5.716078e-01 -6.056786e-01 -6.473257e-01 -6.768151e-01 -7.117901e-01 -7.362159e-01 -7.640701e-01 -7.831494e-01 -8.036588e-01 -8.173181e-01 -8.304880e-01 -8.388566e-01 -8.449085e-01 -8.482954e-01 -8.476361e-01 -8.464933e-01 -8.396718e-01 -8.345500e-01 -8.222071e-01 -8.137088e-01 -7.965277e-01 -7.852636e-01 -7.639262e-01 -7.504787e-01 -7.256321e-01 -7.105288e-01 -6.827626e-01 -6.664598e-01 -6.362950e-01 -6.191709e-01 -5.870578e-01 -5.694132e-01 -5.357359e-01 -5.178002e-01 -4.828848e-01 -4.648247e-01 -4.289492e-01 -4.108791e-01 -3.742824e-01 -3.562741e-01 -3.191641e-01 -3.012550e-01 -2.638145e-01 -2.460154e-01 -2.084065e-01 -1.907067e-01 -1.530744e-01 -1.354462e-01 -9.792040e-02 -8.032299e-02 -4.302069e-02 -2.540288e-02 1.156959e-02 2.926650e-02 6.581092e-02 8.365019e-02 1.196734e-01 1.377196e-01 1.731297e-01 1.914449e-01 2.261468e-01 2.447862e-01 2.786767e-01 2.976833e-01 3.306456e-01 3.500447e-01 3.819424e-01 4.017350e-01 4.324067e-01 
4.553015e-01 4.849344e-01 5.057172e-01 5.337667e-01 5.548013e-01 5.810016e-01 6.021228e-01 6.261631e-01 6.471446e-01 6.686694e-01 6.892190e-01 7.078299e-01 7.275881e-01 7.428497e-01 7.613918e-01 7.728411e-01 7.896837e-01 7.968438e-01 8.114569e-01 8.138545e-01 8.256794e-01 8.228657e-01 8.313382e-01 8.229122e-01 8.274901e-01 8.131235e-01 8.133163e-01 7.927780e-01 7.881769e-01 7.613550e-01 7.516600e-01 7.185796e-01 7.036209e-01 6.644556e-01 6.442082e-01 5.992847e-01 5.738752e-01 5.236696e-01 4.933749e-01 4.385028e-01 4.037441e-01 3.449457e-01 3.062769e-01 2.443999e-01 2.024951e-01 1.384772e-01 9.411666e-02 2.896890e-02 -1.697628e-02 -8.218460e-02 -1.287703e-01 -1.929283e-01 -2.391590e-01 -3.011339e-01 -3.459904e-01 -4.046538e-01 -4.471286e-01 -5.013909e-01 -5.405302e-01 -5.893832e-01 -6.243340e-01 -6.668997e-01 -6.969576e-01 -7.325366e-01 -7.571883e-01 -7.853022e-01 -8.042554e-01 -8.246747e-01 -8.378714e-01 -8.506224e-01 -8.582318e-01 -8.635816e-01 -8.659728e-01 -8.643930e-01 -8.620922e-01 -8.542076e-01 -8.478452e-01 -8.343748e-01 -8.246305e-01 -8.063299e-01 -7.938819e-01 -7.714929e-01 -7.569765e-01 -7.311895e-01 -7.151680e-01 -6.865985e-01 -6.695463e-01 -6.387246e-01 -6.210224e-01 -5.883945e-01 -5.703326e-01 -5.362682e-01 -5.180568e-01 -4.828618e-01 -4.646433e-01 -4.285728e-01 -4.104356e-01 -3.737063e-01 -3.556970e-01 -3.184968e-01 -3.006308e-01 -2.631261e-01 -2.453958e-01 -2.077362e-01 -1.901165e-01 -1.524376e-01 -1.348905e-01 -9.731582e-02 -7.979280e-02 -4.243490e-02 -2.487951e-02 1.215878e-02 2.980931e-02 6.643305e-02 8.424570e-02 1.203654e-01 1.384087e-01 1.739370e-01 1.922778e-01 2.271251e-01 2.458241e-01 2.798935e-01 2.990004e-01 3.321819e-01 3.517290e-01 3.838932e-01 4.038888e-01 4.348808e-01 
4.612073e-01 4.917438e-01 5.129367e-01 5.419837e-01 5.635890e-01 5.908805e-01 6.127462e-01 6.379652e-01 6.598726e-01 6.826495e-01 7.043068e-01 7.242209e-01 7.452596e-01 7.618442e-01 7.818190e-01 7.945709e-01 8.129657e-01 8.213589e-01 8.375979e-01 8.411030e-01 8.545694e-01 8.526762e-01 8.627377e-01 8.549821e-01 8.610218e-01 8.470142e-01 8.484657e-01 8.279203e-01 8.243027e-01 7.970638e-01 7.880151e-01 7.540791e-01 7.393818e-01 6.989118e-01 6.785106e-01 6.318420e-01 6.058517e-01 5.534878e-01 5.221911e-01 4.647904e-01 4.286294e-01 3.669870e-01 3.265497e-01 2.615757e-01 2.175811e-01 1.502800e-01 1.035627e-01 3.501489e-02 -1.349035e-02 -8.214399e-02 -1.314202e-01 -1.989934e-01 -2.479628e-01 -3.132423e-01 -3.607954e-01 -4.225668e-01 -4.676002e-01 -5.246837e-01 -5.661475e-01 -6.174456e-01 -6.543974e-01 -6.989506e-01 -7.306113e-01 -7.676561e-01 -7.934604e-01 -8.224795e-01 -8.421118e-01 -8.628684e-01 -8.762786e-01 -8.888255e-01 -8.962201e-01 -9.008813e-01 -9.026908e-01 -9.000181e-01 -8.968457e-01 -8.875575e-01 -8.801175e-01 -8.650287e-01 -8.540829e-01 -8.340383e-01 -8.203381e-01 -7.961556e-01 -7.803968e-01 -7.528259e-01 -7.356178e-01 -7.053162e-01 -6.871653e-01 -6.546903e-01 -6.359972e-01 -6.018100e-01 -5.828759e-01 -5.473532e-01 -5.283923e-01 -4.918419e-01 -4.729962e-01 -4.356727e-01 -4.170276e-01 -3.791454e-01 -3.607426e-01 -3.224868e-01 -3.043350e-01 -2.658681e-01 -2.479517e-01 -2.094180e-01 -1.917024e-01 -1.532306e-01 -1.356666e-01 -9.737096e-02 -7.989753e-02 -4.187944e-02 -2.442572e-02 1.322514e-02 3.073767e-02 6.794124e-02 8.559662e-02 1.222797e-01 1.401647e-01 1.762570e-01 1.944579e-01 2.298871e-01 2.484850e-01 2.831717e-01 3.022373e-01 3.360877e-01 3.556748e-01 3.885747e-01 4.087131e-01 4.405200e-01 
4.645594e-01 4.955848e-01 5.171851e-01 5.467999e-01 5.689082e-01 5.968479e-01 6.193150e-01 6.452594e-01 6.678643e-01 6.914353e-01 7.138777e-01 7.346397e-01 7.565354e-01 7.740006e-01 7.948808e-01 8.085187e-01 8.278359e-01 8.370881e-01 8.542284e-01 8.585287e-01 8.728318e-01 8.716313e-01 8.824188e-01 8.752145e-01 8.818236e-01 8.681895e-01 8.700120e-01 8.496305e-01 8.461509e-01 8.188414e-01 8.096725e-01 7.754151e-01 7.603258e-01 7.192765e-01 6.982091e-01 6.507053e-01 6.237823e-01 5.703372e-01 5.378574e-01 4.791455e-01 4.415732e-01 3.784095e-01 3.363592e-01 2.696765e-01 2.238977e-01 1.547258e-01 1.060879e-01 3.553724e-02 -1.498425e-02 -8.573585e-02 -1.370743e-01 -2.067933e-01 -2.578109e-01 -3.252239e-01 -3.747397e-01 -4.385580e-01 -4.853878e-01 -5.443463e-01 -5.873541e-01 -6.402639e-01 -6.784241e-01 -7.242381e-01 -7.567005e-01 -7.945827e-01 -8.207336e-01 -8.501207e-01 -8.696272e-01 -8.902719e-01 -9.031025e-01 -9.150857e-01 -9.215011e-01 -9.252114e-01 -9.257257e-01 -9.218075e-01 -9.171276e-01 -9.064070e-01 -8.973580e-01 -8.807602e-01 -8.682096e-01 -8.466791e-01 -8.314695e-01 -8.059043e-01 -7.888006e-01 -7.600062e-01 -7.416618e-01 -7.103261e-01 -6.912670e-01 -6.579548e-01 -6.385796e-01 -6.037409e-01 -5.843323e-01 -5.483203e-01 -5.290629e-01 -4.921553e-01 -4.731562e-01 -4.355754e-01 -4.168843e-01 -3.788152e-01 -3.604406e-01 -3.220430e-01 -3.039659e-01 -2.653824e-01 -2.475650e-01 -2.089257e-01 -1.913172e-01 -1.527413e-01 -1.352813e-01 -9.687749e-02 -7.949769e-02 -4.136370e-02 -2.398861e-02 1.378845e-02 3.124088e-02 6.858373e-02 8.620107e-02 1.230403e-01 1.409138e-01 1.771843e-01 1.954060e-01 2.310428e-01 2.497013e-01 2.846331e-01 3.038081e-01 3.379508e-01 3.577063e-01 3.909553e-01 4.113318e-01 4.435539e-01 
4.706176e-01 5.026557e-01 5.246842e-01 5.554358e-01 5.781669e-01 6.073701e-01 6.306736e-01 6.580033e-01 6.816711e-01 7.067352e-01 7.304712e-01 7.528098e-01 7.762228e-01 7.953119e-01 8.179123e-01 8.331733e-01 8.543761e-01 8.651907e-01 8.843269e-01 8.900588e-01 9.063961e-01 9.064182e-01 9.191911e-01 9.129185e-01 9.213677e-01 9.082937e-01 9.117109e-01 8.914447e-01 8.892198e-01 8.615210e-01 8.531855e-01 8.179947e-01 8.032558e-01 7.607137e-01 7.394766e-01 6.899314e-01 6.623061e-01 6.063071e-01 5.726028e-01 5.108812e-01 4.715915e-01 4.050333e-01 3.608168e-01 2.904334e-01 2.420947e-01 1.689972e-01 1.174707e-01 4.285040e-02 -1.081309e-02 -8.569654e-02 -1.403439e-01 -2.141710e-01 -2.685651e-01 -3.399682e-01 -3.928155e-01 -4.604011e-01 -5.103948e-01 -5.727828e-01 -6.186604e-01 -6.745434e-01 -7.151586e-01 -7.633774e-01 -7.977783e-01 -8.374057e-01 -8.649072e-01 -8.953239e-01 -9.155622e-01 -9.365096e-01 -9.494670e-01 -9.610636e-01 -9.670561e-01 -9.697721e-01 -9.694027e-01 -9.639965e-01 -9.580817e-01 -9.455102e-01 -9.349916e-01 -9.163113e-01 -9.021672e-01 -8.784410e-01 -8.616095e-01 -8.338318e-01 -8.151531e-01 -7.842000e-01 -7.643811e-01 -7.309865e-01 -7.105872e-01 -6.753408e-01 -6.547776e-01 -6.181395e-01 -5.977018e-01 -5.600259e-01 -5.398976e-01 -5.014578e-01 -4.817413e-01 -4.427551e-01 -4.234932e-01 -3.841405e-01 -3.653341e-01 -3.257702e-01 -3.073912e-01 -2.677537e-01 -2.497543e-01 -2.101672e-01 -1.924849e-01 -1.530591e-01 -1.356203e-01 -9.645355e-02 -7.917472e-02 -4.035122e-02 -2.313994e-02 1.526925e-02 3.251354e-02 7.044941e-02 8.783426e-02 1.252473e-01 1.428853e-01 1.797316e-01 1.977374e-01 2.339734e-01 2.524595e-01 2.880356e-01 3.071065e-01 3.419593e-01 3.617049e-01 3.957491e-01 4.162360e-01 4.493553e-01 
4.744202e-01 5.070516e-01 5.295564e-01 5.610007e-01 5.843322e-01 6.143313e-01 6.383656e-01 6.665922e-01 6.911212e-01 7.171738e-01 7.418935e-01 7.652947e-01 7.897962e-01 8.099961e-01 8.337615e-01 8.501473e-01 8.725524e-01 8.844639e-01 9.047906e-01 9.115439e-01 9.290027e-01 9.299200e-01 9.436836e-01 9.381286e-01 9.473759e-01 9.347936e-01 9.387594e-01 9.187167e-01 9.167441e-01 8.889681e-01 8.805550e-01 8.449653e-01 8.298016e-01 7.865313e-01 7.645204e-01 7.139229e-01 6.851871e-01 6.278275e-01 5.926983e-01 5.293307e-01 4.883305e-01 4.198675e-01 3.736871e-01 3.011676e-01 2.506460e-01 1.752092e-01 1.213186e-01 4.418692e-02 -1.197768e-02 -8.950554e-02 -1.467355e-01 -2.232877e-01 -2.802749e-01 -3.544121e-01 -4.097743e-01 -4.800097e-01 -5.323339e-01 -5.971734e-01 -6.450798e-01 -7.030892e-01 -7.453134e-01 -7.952077e-01 -8.306933e-01 -8.714374e-01 -8.994250e-01 -9.303289e-01 -9.504245e-01 -9.712100e-01 -9.834177e-01 -9.942414e-01 -9.989514e-01 -1.000375e+00 -9.983083e-01 -9.912234e-01 -9.833408e-01 -9.688576e-01 -9.562553e-01 -9.355843e-01 -9.193855e-01 -8.937261e-01 -8.749902e-01 -8.454426e-01 -8.250983e-01 -7.926079e-01 -7.714145e-01 -7.367475e-01 -7.152827e-01 -6.790295e-01 -6.576986e-01 -6.202958e-01 -5.993556e-01 -5.611184e-01 -5.407075e-01 -5.018646e-01 -4.820352e-01 -4.427593e-01 -4.235054e-01 -3.839368e-01 -3.652160e-01 -3.254781e-01 -3.072276e-01 -2.674352e-01 -2.495813e-01 -2.098431e-01 -1.923060e-01 -1.527246e-01 -1.354199e-01 -9.608912e-02 -7.892789e-02 -3.993078e-02 -2.281785e-02 1.577513e-02 3.294209e-02 7.107336e-02 8.840436e-02 1.260278e-01 1.436397e-01 1.807175e-01 1.987318e-01 2.352290e-01 2.537675e-01 2.896456e-01 3.088250e-01 3.440332e-01 3.639571e-01 3.984236e-01 4.191736e-01 4.527950e-01 
4.803438e-01 5.140881e-01 5.370167e-01 5.697343e-01 5.937219e-01 6.251614e-01 6.501110e-01 6.799434e-01 7.056677e-01 7.334788e-01 7.596849e-01 7.849718e-01 8.112487e-01 8.334213e-01 8.592315e-01 8.776206e-01 9.022994e-01 9.161728e-01 9.389374e-01 9.475243e-01 9.674965e-01 9.700203e-01 9.862625e-01 9.819813e-01 9.935465e-01 9.817991e-01 9.877905e-01 9.680453e-01 9.676804e-01 9.395833e-01 9.322526e-01 8.956679e-01 8.809820e-01 8.360207e-01 8.138376e-01 7.608674e-01 7.312983e-01 6.709333e-01 6.343285e-01 5.673995e-01 5.243232e-01 4.518365e-01 4.030365e-01 3.261312e-01 2.725139e-01 1.924269e-01 1.350400e-01 5.308603e-02 -6.890220e-03 -8.932356e-02 -1.505817e-01 -2.320297e-01 -2.931447e-01 -3.720630e-01 -4.315153e-01 -5.062921e-01 -5.625127e-01 -6.315085e-01 -6.829506e-01 -7.445723e-01 -7.898077e-01 -8.426136e-01 -8.804442e-01 -9.232679e-01 -9.528345e-01 -9.849018e-01 -1.005768e+00 -1.026783e+00 -1.038975e+00 -1.049147e+00 -1.053137e+00 -1.053146e+00 -1.049784e+00 -1.040684e+00 -1.031087e+00 -1.014175e+00 -9.996003e-01 -9.762647e-01 -9.579853e-01 -9.295823e-01 -9.087802e-01 -8.765308e-01 -8.542258e-01 -8.191567e-01 -7.961672e-01 -7.590900e-01 -7.360257e-01 -6.975479e-01 -6.748256e-01 -6.353827e-01 -6.132575e-01 -5.731545e-01 -5.517562e-01 -5.112094e-01 -4.905792e-01 -4.497503e-01 -4.298708e-01 -3.888924e-01 -3.697104e-01 -3.287003e-01 -3.101420e-01 -2.692100e-01 -2.511898e-01 -2.104383e-01 -1.928630e-01 -1.523855e-01 -1.351552e-01 -9.503303e-02 -7.804102e-02 -3.834118e-02 -2.147268e-02 1.775375e-02 3.462249e-02 7.334002e-02 9.034200e-02 1.285287e-01 1.458053e-01 1.834490e-01 2.011476e-01 2.382397e-01 2.565097e-01 2.930382e-01 3.120250e-01 3.479653e-01 3.678030e-01 4.031075e-01 4.239093e-01 4.584969e-01 