# vtk DataFile Version 2.0
Comment goes here
ASCII

DATASET STRUCTURED_POINTS
FIELD FieldData 1
TIME 1 1 double
0.17000000
DIMENSIONS    128   128   1

ORIGIN    0.000   0.000   0.000
SPACING   0.039062 0.039062   1.000

POINT_DATA   16384
SCALARS uX double
LOOKUP_TABLE default

3.297098e-02 3.752913e-02 4.492531e-02 4.978159e-02 5.788811e-02 6.294457e-02 7.161840e-02 7.674422e-02 8.581532e-02 9.085179e-02 1.001283e-01 1.048951e-01 1.141697e-01 1.184720e-01 1.275289e-01 1.311658e-01 1.397884e-01 1.425615e-01 1.505408e-01 1.522632e-01 1.594060e-01 1.599109e-01 1.660470e-01 1.651958e-01 1.701851e-01 1.678742e-01 1.716113e-01 1.677773e-01 1.701952e-01 1.648176e-01 1.658889e-01 1.589921e-01 1.587279e-01 1.503794e-01 1.488267e-01 1.391352e-01 1.363724e-01 1.254826e-01 1.216139e-01 1.097019e-01 1.048508e-01 9.211736e-02 8.642041e-02 7.308514e-02 6.668562e-02 5.298053e-02 4.602320e-02 3.218702e-02 2.481376e-02 1.108677e-02 3.433494e-03 -9.946972e-03 -1.775227e-02 -3.055576e-02 -3.839379e-02 -5.040018e-02 -5.816038e-02 -6.916301e-02 -7.674301e-02 -8.655171e-02 -9.385663e-02 -1.023008e-01 -1.092427e-01 -1.161745e-01 -1.226725e-01 -1.279705e-01 -1.339511e-01 -1.375236e-01 -1.429224e-01 -1.447114e-01 -1.494752e-01 -1.494600e-01 -1.535494e-01 -1.517495e-01 -1.551424e-01 -1.516198e-01 -1.543140e-01 -1.491742e-01 -1.511899e-01 -1.445814e-01 -1.459627e-01 -1.380742e-01 -1.388884e-01 -1.299439e-01 -1.302796e-01 -1.205314e-01 -1.204944e-01 -1.102133e-01 -1.099202e-01 -9.938462e-02 -9.895550e-02 -8.843868e-02 -8.798790e-02 -7.774521e-02 -7.737268e-02 -6.762914e-02 -6.741182e-02 -5.835134e-02 -5.833627e-02 -5.009332e-02 -5.029287e-02 -4.294729e-02 -4.333709e-02 -3.691267e-02 -3.743248e-02 -3.189914e-02 -3.245655e-02 -2.773606e-02 -2.821270e-02 -2.418721e-02 -2.444669e-02 -2.096936e-02 -2.086639e-02 -1.777313e-02 -1.716286e-02 -1.428427e-02 -1.303137e-02 -1.020411e-02 -8.190836e-03 -5.267727e-03 -2.400744e-03 7.407642e-04 4.525080e-03 7.976322e-03 1.270815e-02 1.652461e-02 2.219845e-02 2.639706e-02 
3.371221e-02 3.828178e-02 4.569093e-02 5.055921e-02 5.867787e-02 6.374677e-02 7.243240e-02 7.757080e-02 8.665361e-02 9.170236e-02 1.009906e-01 1.057687e-01 1.150547e-01 1.193666e-01 1.284342e-01 1.320782e-01 1.407103e-01 1.434870e-01 1.514739e-01 1.531955e-01 1.603431e-01 1.608421e-01 1.669794e-01 1.661165e-01 1.711027e-01 1.687736e-01 1.725029e-01 1.686440e-01 1.710489e-01 1.656398e-01 1.666926e-01 1.597578e-01 1.594697e-01 1.510774e-01 1.494956e-01 1.397548e-01 1.369580e-01 1.260146e-01 1.221073e-01 1.101381e-01 1.052443e-01 9.245111e-02 8.670789e-02 7.331114e-02 6.686215e-02 5.309480e-02 4.608515e-02 3.218675e-02 2.475863e-02 1.097023e-02 3.259798e-03 -1.018058e-02 -1.804510e-02 -3.090634e-02 -3.880545e-02 -5.086676e-02 -5.868965e-02 -6.974371e-02 -7.738766e-02 -8.724360e-02 -9.461328e-02 -1.030998e-01 -1.101066e-01 -1.170751e-01 -1.236373e-01 -1.289655e-01 -1.350086e-01 -1.386040e-01 -1.440624e-01 -1.458664e-01 -1.506853e-01 -1.506765e-01 -1.548152e-01 -1.530125e-01 -1.564471e-01 -1.529122e-01 -1.556390e-01 -1.504774e-01 -1.525152e-01 -1.458755e-01 -1.472673e-01 -1.393387e-01 -1.401508e-01 -1.311583e-01 -1.314789e-01 -1.216758e-01 -1.216108e-01 -1.112695e-01 -1.109361e-01 -1.003366e-01 -9.985574e-02 -8.927313e-02 -8.876080e-02 -7.845221e-02 -7.801018e-02 -6.820237e-02 -6.790973e-02 -5.878814e-02 -5.869418e-02 -5.039451e-02 -5.051384e-02 -4.311687e-02 -4.342722e-02 -3.695726e-02 -3.740027e-02 -3.182742e-02 -3.231226e-02 -2.755813e-02 -2.796762e-02 -2.391392e-02 -2.411253e-02 -2.061180e-02 -2.045469e-02 -1.734209e-02 -1.668455e-02 -1.378987e-02 -1.249639e-02 -9.655479e-03 -7.607896e-03 -4.672821e-03 -1.777167e-03 1.375295e-03 5.183419e-03 8.645179e-03 1.339681e-02 1.722381e-02 2.291435e-02 2.712384e-02 
3.237941e-02 3.696825e-02 4.442043e-02 4.932568e-02 5.750375e-02 6.262563e-02 7.138450e-02 7.658967e-02 8.575670e-02 9.088336e-02 1.002636e-01 1.051278e-01 1.145103e-01 1.189131e-01 1.280782e-01 1.318143e-01 1.405414e-01 1.434080e-01 1.514840e-01 1.532897e-01 1.605176e-01 1.610918e-01 1.672980e-01 1.664987e-01 1.715406e-01 1.692616e-01 1.730321e-01 1.692082e-01 1.716399e-01 1.662503e-01 1.673159e-01 1.603853e-01 1.600975e-01 1.516949e-01 1.501029e-01 1.403390e-01 1.375240e-01 1.265463e-01 1.226157e-01 1.106032e-01 1.056838e-01 9.284054e-02 8.707183e-02 7.362048e-02 6.714847e-02 5.332393e-02 4.629554e-02 3.233911e-02 2.489778e-02 1.105202e-02 3.334604e-03 -1.016119e-02 -1.802625e-02 -3.093990e-02 -3.883332e-02 -5.094312e-02 -5.875460e-02 -6.985237e-02 -7.747989e-02 -8.737391e-02 -9.472286e-02 -1.032409e-01 -1.102234e-01 -1.172160e-01 -1.237508e-01 -1.290945e-01 -1.351074e-01 -1.387088e-01 -1.441343e-01 -1.459337e-01 -1.507172e-01 -1.506922e-01 -1.547928e-01 -1.529619e-01 -1.563559e-01 -1.527805e-01 -1.554647e-01 -1.502506e-01 -1.522445e-01 -1.455416e-01 -1.468894e-01 -1.388888e-01 -1.396587e-01 -1.305881e-01 -1.308710e-01 -1.209873e-01 -1.208920e-01 -1.104717e-01 -1.101187e-01 -9.944638e-02 -9.896004e-02 -8.831549e-02 -8.781472e-02 -7.745944e-02 -7.704838e-02 -6.721281e-02 -6.697189e-02 -5.784410e-02 -5.782278e-02 -4.953980e-02 -4.975146e-02 -4.239390e-02 -4.281374e-02 -3.640427e-02 -3.697019e-02 -3.147589e-02 -3.209241e-02 -2.743076e-02 -2.797551e-02 -2.402336e-02 -2.435542e-02 -2.096007e-02 -2.092943e-02 -1.792081e-02 -1.737813e-02 -1.458117e-02 -1.338706e-02 -1.063335e-02 -8.666666e-03 -5.804806e-03 -2.969559e-03 1.262981e-04 3.895597e-03 7.319104e-03 1.205374e-02 1.586175e-02 2.155662e-02 2.576652e-02 
3.252996e-02 3.716088e-02 4.468139e-02 4.964772e-02 5.790902e-02 6.310902e-02 7.196447e-02 7.726204e-02 8.653667e-02 9.176641e-02 1.012622e-01 1.062358e-01 1.157381e-01 1.202519e-01 1.295365e-01 1.333799e-01 1.422217e-01 1.451863e-01 1.533673e-01 1.552566e-01 1.625750e-01 1.632133e-01 1.694916e-01 1.687328e-01 1.738249e-01 1.715597e-01 1.753564e-01 1.715178e-01 1.739503e-01 1.685169e-01 1.695585e-01 1.625556e-01 1.622202e-01 1.537188e-01 1.520582e-01 1.421718e-01 1.392703e-01 1.281500e-01 1.241186e-01 1.119474e-01 1.069166e-01 9.390277e-02 8.801560e-02 7.438582e-02 6.779147e-02 5.378439e-02 4.663230e-02 3.249264e-02 2.492812e-02 1.090146e-02 3.062548e-03 -1.060917e-02 -1.859343e-02 -3.167564e-02 -3.968579e-02 -5.195458e-02 -5.988038e-02 -7.112540e-02 -7.886488e-02 -8.889220e-02 -9.635059e-02 -1.049856e-01 -1.120745e-01 -1.191652e-01 -1.258020e-01 -1.312225e-01 -1.373315e-01 -1.409855e-01 -1.464987e-01 -1.483240e-01 -1.531840e-01 -1.531560e-01 -1.573187e-01 -1.554542e-01 -1.588928e-01 -1.552523e-01 -1.579605e-01 -1.526501e-01 -1.546455e-01 -1.478165e-01 -1.491419e-01 -1.409884e-01 -1.417124e-01 -1.324665e-01 -1.326815e-01 -1.226060e-01 -1.224238e-01 -1.118024e-01 -1.113480e-01 -1.004733e-01 -9.987651e-02 -8.903664e-02 -8.842247e-02 -7.788700e-02 -7.736579e-02 -6.737238e-02 -6.703033e-02 -5.777285e-02 -5.766415e-02 -4.928352e-02 -4.942497e-02 -4.200349e-02 -4.237205e-02 -3.593181e-02 -3.646547e-02 -3.097085e-02 -3.157268e-02 -2.693666e-02 -2.748152e-02 -2.357515e-02 -2.391841e-02 -2.058240e-02 -2.056982e-02 -1.762731e-02 -1.710511e-02 -1.437450e-02 -1.319902e-02 -1.050598e-02 -8.552203e-03 -5.740309e-03 -2.908905e-03 1.516733e-04 3.928898e-03 7.334721e-03 1.209108e-02 1.590084e-02 2.163255e-02 2.586445e-02 
3.056826e-02 3.525032e-02 4.287200e-02 4.792600e-02 5.632079e-02 6.164139e-02 7.065800e-02 7.610433e-02 8.556228e-02 9.096313e-02 1.006581e-01 1.058184e-01 1.155286e-01 1.202372e-01 1.297311e-01 1.337694e-01 1.428140e-01 1.459654e-01 1.543352e-01 1.563952e-01 1.638814e-01 1.646670e-01 1.710861e-01 1.704449e-01 1.756463e-01 1.734643e-01 1.773359e-01 1.735432e-01 1.760155e-01 1.705893e-01 1.716367e-01 1.646033e-01 1.642426e-01 1.556753e-01 1.539627e-01 1.439788e-01 1.410042e-01 1.297596e-01 1.256401e-01 1.133231e-01 1.081955e-01 9.501976e-02 8.903308e-02 7.523064e-02 6.853898e-02 5.435349e-02 4.711032e-02 3.279089e-02 2.514435e-02 1.094030e-02 3.030066e-03 -1.081346e-02 -1.885782e-02 -3.210353e-02 -4.016287e-02 -5.258441e-02 -6.054940e-02 -7.193412e-02 -7.970396e-02 -8.985558e-02 -9.733661e-02 -1.060781e-01 -1.131826e-01 -1.203592e-01 -1.270051e-01 -1.324879e-01 -1.385988e-01 -1.422888e-01 -1.477959e-01 -1.496278e-01 -1.544720e-01 -1.544188e-01 -1.585545e-01 -1.566309e-01 -1.600298e-01 -1.562955e-01 -1.589504e-01 -1.535122e-01 -1.554404e-01 -1.484519e-01 -1.496978e-01 -1.413574e-01 -1.419926e-01 -1.325389e-01 -1.326604e-01 -1.223646e-01 -1.220905e-01 -1.112463e-01 -1.107090e-01 -9.962019e-02 -9.895764e-02 -8.792372e-02 -8.726877e-02 -7.657033e-02 -7.604018e-02 -6.592433e-02 -6.561026e-02 -5.627794e-02 -5.623682e-02 -4.783300e-02 -4.808143e-02 -4.068903e-02 -4.120084e-02 -3.483905e-02 -3.554638e-02 -3.017345e-02 -3.097128e-02 -2.649147e-02 -2.724507e-02 -2.351884e-02 -2.407328e-02 -2.092986e-02 -2.112072e-02 -1.837171e-02 -1.803582e-02 -1.548881e-02 -1.447445e-02 -1.194565e-02 -1.012136e-02 -7.446536e-03 -4.708358e-03 -1.751767e-03 1.971387e-03 5.310321e-03 1.005301e-02 1.383519e-02 1.959341e-02 2.383758e-02 
3.009231e-02 3.484816e-02 4.259433e-02 4.776044e-02 5.631109e-02 6.177831e-02 7.097860e-02 7.660070e-02 8.626523e-02 9.186425e-02 1.017824e-01 1.071552e-01 1.170979e-01 1.220241e-01 1.317511e-01 1.360023e-01 1.452716e-01 1.486208e-01 1.571977e-01 1.594303e-01 1.670971e-01 1.680209e-01 1.745862e-01 1.740411e-01 1.793481e-01 1.772140e-01 1.811466e-01 1.773499e-01 1.798368e-01 1.743538e-01 1.753701e-01 1.682282e-01 1.677939e-01 1.590700e-01 1.572460e-01 1.470628e-01 1.439455e-01 1.324654e-01 1.281791e-01 1.155978e-01 1.102865e-01 9.682537e-02 9.064491e-02 7.654328e-02 6.965387e-02 5.516213e-02 4.772203e-02 3.309533e-02 2.525607e-02 1.074897e-02 2.652271e-03 -1.148557e-02 -1.970929e-02 -3.323661e-02 -4.146829e-02 -5.415507e-02 -6.228597e-02 -7.391600e-02 -8.184598e-02 -9.221930e-02 -9.985504e-02 -1.087906e-01 -1.160441e-01 -1.233829e-01 -1.301705e-01 -1.357793e-01 -1.420222e-01 -1.457970e-01 -1.514228e-01 -1.532939e-01 -1.582390e-01 -1.581752e-01 -1.623890e-01 -1.604019e-01 -1.638509e-01 -1.599987e-01 -1.626711e-01 -1.570607e-01 -1.589708e-01 -1.517583e-01 -1.529491e-01 -1.443383e-01 -1.448822e-01 -1.351199e-01 -1.351175e-01 -1.244859e-01 -1.240616e-01 -1.128675e-01 -1.121623e-01 -1.007243e-01 -9.988645e-02 -8.851959e-02 -8.769318e-02 -7.669301e-02 -7.600634e-02 -6.563330e-02 -6.518750e-02 -5.565304e-02 -5.551266e-02 -4.696857e-02 -4.715501e-02 -3.968674e-02 -4.017533e-02 -3.380023e-02 -3.452131e-02 -2.919173e-02 -3.003552e-02 -2.564639e-02 -2.647106e-02 -2.287112e-02 -2.351311e-02 -2.051854e-02 -2.080406e-02 -1.821314e-02 -1.796975e-02 -1.557742e-02 -1.464479e-02 -1.225598e-02 -1.049515e-02 -7.936218e-03 -5.237094e-03 -2.364930e-03 1.348244e-03 4.639446e-03 9.404431e-03 1.317875e-02 1.899335e-02 2.327075e-02 
2.742689e-02 3.226810e-02 4.017730e-02 4.548537e-02 5.424826e-02 5.990844e-02 6.936335e-02 7.522203e-02 8.517530e-02 9.104540e-02 1.012768e-01 1.069446e-01 1.172140e-01 1.224471e-01 1.325029e-01 1.370599e-01 1.466474e-01 1.502883e-01 1.591607e-01 1.616578e-01 1.695860e-01 1.707353e-01 1.775179e-01 1.771491e-01 1.826218e-01 1.806071e-01 1.846492e-01 1.809101e-01 1.834487e-01 1.779601e-01 1.789721e-01 1.717627e-01 1.712728e-01 1.624237e-01 1.605004e-01 1.501405e-01 1.468892e-01 1.351893e-01 1.307441e-01 1.179087e-01 1.124239e-01 9.868348e-02 9.232440e-02 7.792710e-02 7.086206e-02 5.606632e-02 4.845998e-02 3.352797e-02 2.553627e-02 1.072853e-02 2.495613e-03 -1.193319e-02 -2.027625e-02 -3.408059e-02 -4.241545e-02 -5.536157e-02 -6.358110e-02 -7.544916e-02 -8.345520e-02 -9.404154e-02 -1.017425e-01 -1.108621e-01 -1.181711e-01 -1.256605e-01 -1.324940e-01 -1.382149e-01 -1.444930e-01 -1.483365e-01 -1.539845e-01 -1.558758e-01 -1.608268e-01 -1.607303e-01 -1.649299e-01 -1.628537e-01 -1.662648e-01 -1.622650e-01 -1.648733e-01 -1.590574e-01 -1.608758e-01 -1.534032e-01 -1.544760e-01 -1.455572e-01 -1.459608e-01 -1.358526e-01 -1.356947e-01 -1.246930e-01 -1.241078e-01 -1.125359e-01 -1.116765e-01 -9.987149e-02 -9.889976e-02 -8.719581e-02 -8.626938e-02 -7.498051e-02 -7.423987e-02 -6.364259e-02 -6.319835e-02 -5.351635e-02 -5.343866e-02 -4.483088e-02 -4.514207e-02 -3.769542e-02 -3.836688e-02 -3.209430e-02 -3.304788e-02 -2.789189e-02 -2.900558e-02 -2.484695e-02 -2.596412e-02 -2.263442e-02 -2.357550e-02 -2.087225e-02 -2.144756e-02 -1.915044e-02 -1.917287e-02 -1.705951e-02 -1.635614e-02 -1.421637e-02 -1.263826e-02 -1.028615e-02 -7.715935e-03 -4.999146e-03 -1.356512e-03 1.836973e-03 6.591864e-03 1.032948e-02 1.619432e-02 2.049682e-02 
2.625025e-02 3.119919e-02 3.929126e-02 4.476629e-02 5.376126e-02 5.964187e-02 6.937249e-02 7.549709e-02 8.576218e-02 9.193360e-02 1.025034e-01 1.084958e-01 1.191188e-01 1.246861e-01 1.350977e-01 1.399834e-01 1.499150e-01 1.538635e-01 1.630539e-01 1.658222e-01 1.740286e-01 1.753983e-01 1.824075e-01 1.821961e-01 1.878340e-01 1.859049e-01 1.900445e-01 1.863135e-01 1.888796e-01 1.833198e-01 1.842907e-01 1.769331e-01 1.763384e-01 1.672697e-01 1.651859e-01 1.545433e-01 1.510859e-01 1.390503e-01 1.343648e-01 1.211521e-01 1.154042e-01 1.012563e-01 9.462209e-02 7.979806e-02 7.245505e-02 5.722331e-02 4.934335e-02 3.397479e-02 2.571877e-02 1.048129e-02 1.996084e-03 -1.284942e-02 -2.143197e-02 -3.563463e-02 -4.419689e-02 -5.751807e-02 -6.595445e-02 -7.816958e-02 -8.638364e-02 -9.728405e-02 -1.051854e-01 -1.145806e-01 -1.220824e-01 -1.298028e-01 -1.368202e-01 -1.427209e-01 -1.491705e-01 -1.531357e-01 -1.589379e-01 -1.608857e-01 -1.659671e-01 -1.658555e-01 -1.701543e-01 -1.679864e-01 -1.714578e-01 -1.672868e-01 -1.699096e-01 -1.638427e-01 -1.656249e-01 -1.578251e-01 -1.588089e-01 -1.494942e-01 -1.497574e-01 -1.391966e-01 -1.388526e-01 -1.273578e-01 -1.265504e-01 -1.144649e-01 -1.133609e-01 -1.010443e-01 -9.982125e-02 -8.763170e-02 -8.646472e-02 -7.473925e-02 -7.378587e-02 -6.282151e-02 -6.220728e-02 -5.224386e-02 -5.205025e-02 -4.325700e-02 -4.351292e-02 -3.598027e-02 -3.665838e-02 -3.039585e-02 -3.141393e-02 -2.635423e-02 -2.758161e-02 -2.359042e-02 -2.485823e-02 -2.174839e-02 -2.286266e-02 -2.041108e-02 -2.116692e-02 -1.913250e-02 -1.932803e-02 -1.746895e-02 -1.691787e-02 -1.500686e-02 -1.354887e-02 -1.138594e-02 -8.894639e-03 -6.316662e-03 -2.705109e-03 4.074141e-04 5.183403e-03 8.902294e-03 1.484260e-02 1.919014e-02 
2.276641e-02 2.783859e-02 3.616090e-02 4.183778e-02 5.113056e-02 5.728393e-02 6.737090e-02 7.382901e-02 8.449790e-02 9.105101e-02 1.020590e-01 1.084665e-01 1.195471e-01 1.255461e-01 1.364181e-01 1.417339e-01 1.521114e-01 1.564694e-01 1.660735e-01 1.692120e-01 1.777832e-01 1.794667e-01 1.867773e-01 1.868086e-01 1.926734e-01 1.909045e-01 1.951896e-01 1.915298e-01 1.941578e-01 1.885779e-01 1.895297e-01 1.820632e-01 1.813757e-01 1.721158e-01 1.698762e-01 1.589700e-01 1.553073e-01 1.429476e-01 1.380222e-01 1.244381e-01 1.184304e-01 1.038771e-01 9.697698e-02 8.172623e-02 7.412286e-02 5.845448e-02 5.032868e-02 3.452329e-02 2.604194e-02 1.037556e-02 1.688546e-03 -1.357134e-02 -2.233176e-02 -3.692880e-02 -4.564661e-02 -5.933735e-02 -6.790986e-02 -8.046509e-02 -8.879916e-02 -1.000053e-01 -1.080135e-01 -1.176747e-01 -1.252718e-01 -1.332122e-01 -1.403135e-01 -1.463813e-01 -1.529017e-01 -1.569734e-01 -1.628293e-01 -1.648157e-01 -1.699282e-01 -1.697801e-01 -1.740811e-01 -1.717958e-01 -1.752340e-01 -1.708612e-01 -1.734102e-01 -1.670568e-01 -1.687217e-01 -1.605545e-01 -1.613779e-01 -1.516236e-01 -1.516882e-01 -1.406299e-01 -1.400584e-01 -1.280273e-01 -1.269778e-01 -1.143411e-01 -1.129980e-01 -1.001424e-01 -9.870371e-02 -8.601556e-02 -8.467707e-02 -7.252107e-02 -7.145918e-02 -6.015655e-02 -5.951185e-02 -4.932095e-02 -4.918418e-02 -4.028528e-02 -4.068765e-02 -3.317357e-02 -3.408265e-02 -2.795648e-02 -2.927814e-02 -2.445809e-02 -2.604406e-02 -2.237482e-02 -2.403491e-02 -2.130399e-02 -2.282117e-02 -2.077823e-02 -2.192484e-02 -2.030183e-02 -2.085525e-02 -1.938555e-02 -1.914189e-02 -1.757699e-02 -1.636215e-02 -1.448501e-02 -1.216282e-02 -9.797798e-03 -6.275290e-03 -3.294660e-03 1.474968e-03 5.147285e-03 1.116362e-02 1.555067e-02 
2.077349e-02 2.599082e-02 3.455803e-02 4.046248e-02 5.006912e-02 5.652469e-02 6.698698e-02 7.381124e-02 8.490672e-02 9.187638e-02 1.033493e-01 1.102074e-01 1.217757e-01 1.282405e-01 1.396050e-01 1.453811e-01 1.562362e-01 1.610271e-01 1.710738e-01 1.745961e-01 1.835555e-01 1.855535e-01 1.931805e-01 1.934398e-01 1.995357e-01 1.978955e-01 2.023173e-01 1.986791e-01 2.013462e-01 1.956787e-01 1.965743e-01 1.889144e-01 1.880829e-01 1.785321e-01 1.760727e-01 1.647900e-01 1.608467e-01 1.480398e-01 1.427892e-01 1.287031e-01 1.223424e-01 1.072484e-01 9.998261e-02 8.416761e-02 7.619881e-02 5.995597e-02 5.147489e-02 3.509624e-02 2.627622e-02 1.004716e-02 1.041221e-03 -1.476314e-02 -2.382252e-02 -3.893947e-02 -4.793822e-02 -6.211865e-02 -7.095727e-02 -8.396635e-02 -9.255514e-02 -1.041733e-01 -1.124275e-01 -1.224518e-01 -1.302872e-01 -1.385340e-01 -1.458646e-01 -1.521730e-01 -1.589096e-01 -1.631467e-01 -1.691989e-01 -1.712654e-01 -1.765454e-01 -1.763828e-01 -1.808116e-01 -1.784095e-01 -1.819249e-01 -1.773278e-01 -1.798932e-01 -1.732067e-01 -1.748195e-01 -1.662142e-01 -1.669132e-01 -1.566255e-01 -1.564951e-01 -1.448238e-01 -1.439943e-01 -1.312928e-01 -1.299359e-01 -1.165992e-01 -1.149185e-01 -1.013653e-01 -9.958186e-02 -8.623236e-02 -8.456719e-02 -7.181919e-02 -7.047339e-02 -5.867765e-02 -5.781337e-02 -4.725148e-02 -4.697556e-02 -3.784243e-02 -3.819502e-02 -3.058819e-02 -3.153779e-02 -2.545484e-02 -2.690040e-02 -2.224463e-02 -2.402421e-02 -2.061787e-02 -2.252255e-02 -2.012564e-02 -2.191683e-02 -2.024910e-02 -2.167685e-02 -2.044060e-02 -2.126105e-02 -2.016231e-02 -2.015283e-02 -1.891951e-02 -1.789046e-02 -1.628656e-02 -1.408977e-02 -1.192543e-02 -8.459425e-03 -5.597378e-03 -8.100272e-04 2.831151e-03 8.941885e-03 1.338682e-02 
1.631299e-02 2.169655e-02 3.056830e-02 3.674219e-02 4.674130e-02 5.355960e-02 6.449105e-02 7.175830e-02 8.338576e-02 9.086252e-02 1.029136e-01 1.103236e-01 1.224968e-01 1.295364e-01 1.415107e-01 1.478600e-01 1.593062e-01 1.646432e-01 1.752382e-01 1.792539e-01 1.886959e-01 1.911108e-01 1.991344e-01 1.997138e-01 2.061046e-01 2.046725e-01 2.092779e-01 2.057265e-01 2.084629e-01 2.027585e-01 2.036130e-01 1.957964e-01 1.948238e-01 1.850062e-01 1.823211e-01 1.706757e-01 1.664412e-01 1.531926e-01 1.476063e-01 1.330181e-01 1.262976e-01 1.106594e-01 1.030287e-01 8.664454e-02 7.832165e-02 6.149973e-02 5.268721e-02 3.573209e-02 2.661080e-02 9.817910e-03 5.441331e-04 -1.580354e-02 -2.509776e-02 -4.073128e-02 -4.993513e-02 -6.459998e-02 -7.361897e-02 -8.707513e-02 -9.582503e-02 -1.078472e-01 -1.162479e-01 -1.266265e-01 -1.345970e-01 -1.431403e-01 -1.505947e-01 -1.571326e-01 -1.639794e-01 -1.683686e-01 -1.745114e-01 -1.766419e-01 -1.819847e-01 -1.817876e-01 -1.862415e-01 -1.836972e-01 -1.871895e-01 -1.823366e-01 -1.848217e-01 -1.777637e-01 -1.792331e-01 -1.701443e-01 -1.706358e-01 -1.597631e-01 -1.593661e-01 -1.470263e-01 -1.458834e-01 -1.324556e-01 -1.307575e-01 -1.166691e-01 -1.146443e-01 -1.003514e-01 -9.824999e-02 -8.421281e-02 -8.228568e-02 -6.894106e-02 -6.741717e-02 -5.515054e-02 -5.421445e-02 -4.333410e-02 -4.310683e-02 -3.382366e-02 -3.434942e-02 -2.676451e-02 -2.800514e-02 -2.210687e-02 -2.394462e-02 -1.961552e-02 -2.186372e-02 -1.889608e-02 -2.131585e-02 -1.943381e-02 -2.175443e-02 -2.063961e-02 -2.257985e-02 -2.189735e-02 -2.318532e-02 -2.260763e-02 -2.299742e-02 -2.222426e-02 -2.150854e-02 -2.028192e-02 -1.830039e-02 -1.641477e-02 -1.305889e-02 -1.036715e-02 -5.582077e-03 -1.998086e-03 4.217325e-03 8.718512e-03 
1.334256e-02 1.891352e-02 2.809721e-02 3.456704e-02 4.496935e-02 5.218228e-02 6.359885e-02 7.134604e-02 8.352782e-02 9.155270e-02 1.042109e-01 1.122163e-01 1.250293e-01 1.326871e-01 1.453101e-01 1.522730e-01 1.643507e-01 1.702675e-01 1.814494e-01 1.859817e-01 1.959390e-01 1.987798e-01 2.072234e-01 2.081144e-01 2.148108e-01 2.135584e-01 2.183429e-01 2.148289e-01 2.176135e-01 2.118017e-01 2.125773e-01 2.045139e-01 2.033463e-01 1.931542e-01 1.901752e-01 1.780449e-01 1.734385e-01 1.596153e-01 1.536023e-01 1.383716e-01 1.311926e-01 1.148656e-01 1.067657e-01 8.966628e-02 8.088060e-02 6.333431e-02 5.407834e-02 3.640384e-02 2.686635e-02 9.370163e-03 -2.894574e-04 -1.731579e-02 -2.696653e-02 -4.324730e-02 -5.278248e-02 -6.805729e-02 -7.738826e-02 -9.141117e-02 -1.004599e-01 -1.129988e-01 -1.216902e-01 -1.325275e-01 -1.407831e-01 -1.497171e-01 -1.574504e-01 -1.642995e-01 -1.714139e-01 -1.760220e-01 -1.824125e-01 -1.846560e-01 -1.902141e-01 -1.900107e-01 -1.946324e-01 -1.919512e-01 -1.955479e-01 -1.904188e-01 -1.929297e-01 -1.854529e-01 -1.868579e-01 -1.772106e-01 -1.775409e-01 -1.659811e-01 -1.653271e-01 -1.521915e-01 -1.507051e-01 -1.364017e-01 -1.342918e-01 -1.192852e-01 -1.168067e-01 -1.015963e-01 -9.903149e-02 -8.412404e-02 -8.175944e-02 -6.763785e-02 -6.573733e-02 -5.282833e-02 -5.160696e-02 -4.025138e-02 -3.985279e-02 -3.028189e-02 -3.076242e-02 -2.308348e-02 -2.440542e-02 -1.859835e-02 -2.063310e-02 -1.655866e-02 -1.909905e-02 -1.651724e-02 -1.929707e-02 -1.789301e-02 -2.061072e-02 -2.002427e-02 -2.236740e-02 -2.222302e-02 -2.389068e-02 -2.382417e-02 -2.454551e-02 -2.422575e-02 -2.377343e-02 -2.291829e-02 -2.111712e-02 -1.950364e-02 -1.623496e-02 -1.370478e-02 -8.907779e-03 -5.368934e-03 9.599690e-04 5.533653e-03 
7.698789e-03 1.348579e-02 2.305715e-02 2.987394e-02 4.077468e-02 4.845332e-02 6.046579e-02 6.878160e-02 8.164021e-02 9.031686e-02 1.037125e-01 1.124290e-01 1.260159e-01 1.344160e-01 1.478215e-01 1.555265e-01 1.683646e-01 1.749895e-01 1.868775e-01 1.920500e-01 2.026279e-01 2.060090e-01 2.149600e-01 2.162640e-01 2.233332e-01 2.223457e-01 2.273548e-01 2.239459e-01 2.268031e-01 2.209337e-01 2.216358e-01 2.133582e-01 2.119857e-01 2.014371e-01 1.981433e-01 1.855342e-01 1.805299e-01 1.661291e-01 1.596636e-01 1.437817e-01 1.361240e-01 1.190969e-01 1.105172e-01 9.269120e-02 8.344578e-02 6.516540e-02 5.548480e-02 3.708411e-02 2.716606e-02 8.963225e-03 -1.029881e-03 -1.873480e-02 -2.867412e-02 -4.559907e-02 -5.538397e-02 -7.126336e-02 -8.081352e-02 -9.539623e-02 -1.046424e-01 -1.176904e-01 -1.265653e-01 -1.378530e-01 -1.462831e-01 -1.555993e-01 -1.634992e-01 -1.706505e-01 -1.779202e-01 -1.827367e-01 -1.892633e-01 -1.916066e-01 -1.972693e-01 -1.970423e-01 -2.017223e-01 -1.988805e-01 -2.024732e-01 -1.970363e-01 -1.994664e-01 -1.915294e-01 -1.927661e-01 -1.825088e-01 -1.825793e-01 -1.702709e-01 -1.692704e-01 -1.552697e-01 -1.533648e-01 -1.381127e-01 -1.355376e-01 -1.195412e-01 -1.165847e-01 -1.003941e-01 -9.737891e-02 -8.155555e-02 -7.881065e-02 -6.389167e-02 -6.172101e-02 -4.818170e-02 -4.683298e-02 -3.505188e-02 -3.468968e-02 -2.492072e-02 -2.560782e-02 -1.796330e-02 -1.965297e-02 -1.409966e-02 -1.663994e-02 -1.300910e-02 -1.615812e-02 -1.416755e-02 -1.761737e-02 -1.690226e-02 -2.030717e-02 -2.045502e-02 -2.346036e-02 -2.404560e-02 -2.631357e-02 -2.692791e-02 -2.815801e-02 -2.843440e-02 -2.837766e-02 -2.800693e-02 -2.647414e-02 -2.521496e-02 -2.208010e-02 -1.976331e-02 -1.496356e-02 -1.149281e-02 -5.026683e-03 -3.765391e-04 
3.538434e-03 9.561407e-03 1.951807e-02 2.670899e-02 3.811162e-02 4.629074e-02 5.891088e-02 6.783753e-02 8.139463e-02 9.077185e-02 1.049370e-01 1.144181e-01 1.288206e-01 1.380186e-01 1.522555e-01 1.607567e-01 1.744076e-01 1.817887e-01 1.944344e-01 2.002839e-01 2.115283e-01 2.154702e-01 2.249637e-01 2.266804e-01 2.341420e-01 2.333955e-01 2.386306e-01 2.352772e-01 2.381883e-01 2.321864e-01 2.327759e-01 2.241860e-01 2.225503e-01 2.115266e-01 2.078435e-01 1.946206e-01 1.891301e-01 1.740052e-01 1.669887e-01 1.503019e-01 1.420595e-01 1.241755e-01 1.150055e-01 9.629602e-02 8.647756e-02 6.730872e-02 5.708854e-02 3.781118e-02 2.739622e-02 8.340850e-03 -2.104063e-03 -2.062866e-02 -3.097804e-02 -4.868354e-02 -5.884435e-02 -7.545997e-02 -8.536189e-02 -1.006311e-01 -1.102152e-01 -1.238930e-01 -1.331007e-01 -1.449525e-01 -1.537154e-01 -1.635183e-01 -1.717513e-01 -1.792974e-01 -1.868952e-01 -1.919977e-01 -1.988358e-01 -2.013382e-01 -2.072791e-01 -2.070658e-01 -2.119696e-01 -2.089790e-01 -2.127184e-01 -2.069568e-01 -2.094343e-01 -2.009895e-01 -2.021560e-01 -1.912086e-01 -1.910803e-01 -1.779113e-01 -1.765822e-01 -1.615741e-01 -1.592219e-01 -1.428519e-01 -1.397343e-01 -1.225582e-01 -1.189994e-01 -1.016247e-01 -9.799202e-02 -8.104339e-02 -7.771531e-02 -6.179303e-02 -5.912253e-02 -4.475904e-02 -4.303676e-02 -3.065577e-02 -3.007794e-02 -1.996156e-02 -2.060750e-02 -1.287606e-02 -1.469870e-02 -9.306293e-03 -1.213709e-02 -8.883502e-03 -1.245054e-02 -1.100769e-02 -1.496384e-02 -1.491229e-02 -1.886852e-02 -1.973851e-02 -2.329739e-02 -2.460876e-02 -2.739395e-02 -2.869049e-02 -3.036945e-02 -3.124516e-02 -3.154427e-02 -3.166068e-02 -3.037330e-02 -2.946893e-02 -2.645790e-02 -2.435150e-02 -1.954801e-02 -1.613766e-02 -9.538285e-03 -4.798304e-03 
-3.549263e-03 2.748219e-03 1.318625e-02 2.081384e-02 3.283421e-02 4.159786e-02 5.495723e-02 6.459790e-02 7.899698e-02 8.919453e-02 1.042808e-01 1.146599e-01 1.300334e-01 1.401726e-01 1.553957e-01 1.648413e-01 1.794540e-01 1.877394e-01 2.012801e-01 2.079487e-01 2.199794e-01 2.246124e-01 2.347458e-01 2.369889e-01 2.449143e-01 2.445018e-01 2.500064e-01 2.467790e-01 2.497602e-01 2.436737e-01 2.441426e-01 2.352671e-01 2.333408e-01 2.218509e-01 2.177374e-01 2.038958e-01 1.978720e-01 1.820083e-01 1.743945e-01 1.568829e-01 1.480172e-01 1.292548e-01 1.194693e-01 9.985657e-02 8.945747e-02 6.938417e-02 5.863713e-02 3.847214e-02 2.759427e-02 7.680807e-03 -3.161153e-03 -2.250601e-02 -3.319176e-02 -5.167436e-02 -6.212128e-02 -7.946687e-02 -8.961803e-02 -1.055659e-01 -1.153763e-01 -1.296758e-01 -1.390990e-01 -1.515073e-01 -1.604830e-01 -1.707658e-01 -1.792115e-01 -1.871462e-01 -1.949526e-01 -2.003347e-01 -2.073664e-01 -2.100194e-01 -2.161219e-01 -2.159093e-01 -2.209209e-01 -2.177614e-01 -2.215307e-01 -2.154143e-01 -2.178211e-01 -2.088252e-01 -2.098026e-01 -1.981070e-01 -1.976620e-01 -1.835588e-01 -1.817886e-01 -1.656859e-01 -1.627853e-01 -1.452013e-01 -1.414604e-01 -1.230059e-01 -1.187949e-01 -1.001448e-01 -9.588664e-02 -7.773958e-02 -7.387274e-02 -5.690368e-02 -5.383830e-02 -3.864726e-02 -3.672106e-02 -2.378471e-02 -2.322454e-02 -1.285698e-02 -1.375191e-02 -6.080433e-03 -8.370870e-03 -3.330752e-03 -6.815086e-03 -4.164181e-03 -8.521601e-03 -7.872429e-03 -1.269756e-02 -1.356136e-02 -1.840468e-02 -2.024033e-02 -2.464799e-02 -2.690883e-02 -3.045667e-02 -3.262974e-02 -3.494849e-02 -3.658328e-02 -3.737408e-02 -3.810039e-02 -3.714176e-02 -3.667798e-02 -3.382639e-02 -3.198084e-02 -2.716736e-02 -2.383523e-02 -1.706071e-02 -1.221906e-02 
-9.169579e-03 -2.579580e-03 8.324457e-03 1.641620e-02 2.904798e-02 3.843393e-02 5.253855e-02 6.294157e-02 7.820317e-02 8.927941e-02 1.053227e-01 1.166664e-01 1.330613e-01 1.442135e-01 1.604847e-01 1.709475e-01 1.865910e-01 1.958480e-01 2.103537e-01 2.178968e-01 2.307778e-01 2.361384e-01 2.469626e-01 2.497435e-01 2.581648e-01 2.580683e-01 2.638511e-01 2.607001e-01 2.637349e-01 2.574830e-01 2.577893e-01 2.485189e-01 2.462371e-01 2.341476e-01 2.295196e-01 2.149072e-01 2.082508e-01 1.914841e-01 1.831633e-01 1.646560e-01 1.550512e-01 1.352380e-01 1.247184e-01 1.040325e-01 9.293377e-02 7.179105e-02 6.039901e-02 3.918761e-02 2.772958e-02 6.805525e-03 -4.550967e-03 -2.486291e-02 -3.600474e-02 -5.540651e-02 -6.626405e-02 -8.447770e-02 -9.501018e-02 -1.117711e-01 -1.219501e-01 -1.370016e-01 -1.467946e-01 -1.598843e-01 -1.692404e-01 -1.801203e-01 -1.889591e-01 -1.973888e-01 -2.055952e-01 -2.113488e-01 -2.187729e-01 -2.216496e-01 -2.281142e-01 -2.279520e-01 -2.332666e-01 -2.299598e-01 -2.339404e-01 -2.274582e-01 -2.299522e-01 -2.203584e-01 -2.212710e-01 -2.087420e-01 -2.080617e-01 -1.929004e-01 -1.907192e-01 -1.733609e-01 -1.698854e-01 -1.508930e-01 -1.464434e-01 -1.264898e-01 -1.214834e-01 -1.013194e-01 -9.624028e-02 -7.664973e-02 -7.200496e-02 -5.374905e-02 -5.001770e-02 -3.377545e-02 -3.135582e-02 -1.766669e-02 -1.683010e-02 -6.047277e-03 -6.905472e-03 8.331769e-04 -1.658464e-03 3.119724e-03 -7.786660e-04 1.326617e-03 -3.613740e-03 -3.728669e-03 -9.249591e-03 -1.101972e-02 -1.661123e-02 -1.941725e-02 -2.456753e-02 -2.779032e-02 -3.202484e-02 -3.509005e-02 -3.799950e-02 -4.040884e-02 -4.166529e-02 -4.301452e-02 -4.237740e-02 -4.236328e-02 -3.967806e-02 -3.809728e-02 -3.329013e-02 -3.003392e-02 -2.310499e-02 -1.815208e-02 
-1.802213e-02 -1.108845e-02 4.026872e-04 9.035099e-03 2.241889e-02 3.252657e-02 4.753256e-02 5.881820e-02 7.511058e-02 8.720441e-02 1.043816e-01 1.168447e-01 1.344426e-01 1.467747e-01 1.642754e-01 1.759288e-01 1.927777e-01 2.031800e-01 2.188116e-01 2.273955e-01 2.412662e-01 2.475058e-01 2.591320e-01 2.625800e-01 2.715746e-01 2.718966e-01 2.779988e-01 2.749975e-01 2.780914e-01 2.717181e-01 2.718360e-01 2.621882e-01 2.594997e-01 2.468062e-01 2.415956e-01 2.261921e-01 2.188277e-01 2.011271e-01 1.920261e-01 1.724880e-01 1.620816e-01 1.411829e-01 1.298849e-01 1.080953e-01 9.627609e-02 7.404041e-02 6.200896e-02 3.973571e-02 2.773041e-02 5.788377e-03 -6.023665e-03 -2.730303e-02 -3.881873e-02 -5.913461e-02 -7.030137e-02 -8.937468e-02 -1.001726e-01 -1.177370e-01 -1.281590e-01 -1.439533e-01 -1.539857e-01 -1.677493e-01 -1.773541e-01 -1.888263e-01 -1.979282e-01 -2.068506e-01 -2.153300e-01 -2.214542e-01 -2.291469e-01 -2.322456e-01 -2.389506e-01 -2.388335e-01 -2.443292e-01 -2.408618e-01 -2.449292e-01 -2.380552e-01 -2.405068e-01 -2.302717e-01 -2.309838e-01 -2.175572e-01 -2.165006e-01 -2.001941e-01 -1.974597e-01 -1.787366e-01 -1.745505e-01 -1.540233e-01 -1.487466e-01 -1.271588e-01 -1.212702e-01 -9.946134e-02 -9.352172e-02 -7.237544e-02 -6.697625e-02 -4.735643e-02 -4.305828e-02 -2.573812e-02 -2.300733e-02 -8.600897e-03 -7.753410e-03 3.340810e-03 2.178698e-03 9.813100e-03 6.720564e-03 1.100605e-02 6.257196e-03 7.541388e-03 1.570675e-03 3.903975e-04 -6.258951e-03 -9.242065e-03 -1.597691e-02 -2.004635e-02 -2.627963e-02 -3.072844e-02 -3.592451e-02 -4.010630e-02 -4.381162e-02 -4.717463e-02 -4.903355e-02 -5.113819e-02 -5.089640e-02 -5.141952e-02 -4.891929e-02 -4.764966e-02 -4.282090e-02 -3.965025e-02 -3.250088e-02 -2.741402e-02 