# vtk DataFile Version 2.0
Comment goes here
ASCII

DATASET STRUCTURED_POINTS
FIELD FieldData 1
TIME 1 1 double
0.16500000
DIMENSIONS    128   128   1

ORIGIN    0.000   0.000   0.000
SPACING   0.039062 0.039062   1.000

POINT_DATA   16384
SCALARS uX double
LOOKUP_TABLE default

-1.164216e-03 6.547364e-03 1.061418e-02 1.871820e-02 2.374793e-02 3.213185e-02 3.800607e-02 4.652711e-02 5.309340e-02 6.158278e-02 6.866031e-02 7.692862e-02 8.431494e-02 9.215848e-02 9.963728e-02 1.068454e-01 1.141949e-01 1.205580e-01 1.275600e-01 1.328774e-01 1.393261e-01 1.434147e-01 1.491251e-01 1.518264e-01 1.566418e-01 1.578287e-01 1.616267e-01 1.612086e-01 1.639050e-01 1.618310e-01 1.633819e-01 1.596422e-01 1.600438e-01 1.546697e-01 1.539556e-01 1.470170e-01 1.452547e-01 1.368565e-01 1.341415e-01 1.244193e-01 1.208690e-01 1.099839e-01 1.057308e-01 9.386399e-02 8.904960e-02 7.639714e-02 7.116599e-02 5.793426e-02 5.242916e-02 3.883065e-02 3.318893e-02 1.943876e-02 1.378969e-02 1.026763e-04 -5.434113e-03 -1.884603e-02 -2.416132e-02 -3.709144e-02 -4.208663e-02 -5.433596e-02 -5.892306e-02 -7.030300e-02 -7.440473e-02 -8.474019e-02 -8.829034e-02 -9.742340e-02 -1.003678e-01 -1.081618e-01 -1.104598e-01 -1.168037e-01 -1.184305e-01 -1.232435e-01 -1.241923e-01 -1.274282e-01 -1.277130e-01 -1.293638e-01 -1.290219e-01 -1.291201e-01 -1.282138e-01 -1.268337e-01 -1.254506e-01 -1.227068e-01 -1.209591e-01 -1.170034e-01 -1.150248e-01 -1.100404e-01 -1.079808e-01 -1.021744e-01 -1.001932e-01 -9.378486e-02 -9.204199e-02 -8.525375e-02 -8.389973e-02 -7.694398e-02 -7.610953e-02 -6.917738e-02 -6.896351e-02 -6.221461e-02 -6.268424e-02 -5.623879e-02 -5.741055e-02 -5.134416e-02 -5.318931e-02 -4.753119e-02 -4.997381e-02 -4.470823e-02 -4.762886e-02 -4.269987e-02 -4.594218e-02 -4.126082e-02 -4.464076e-02 -4.009417e-02 -4.341068e-02 -3.887224e-02 -4.191877e-02 -3.725840e-02 -3.983419e-02 -3.492815e-02 -3.684871e-02 -3.158838e-02 -3.269447e-02 -2.699363e-02 -2.715858e-02 -2.095913e-02 -2.009418e-02 -1.337018e-02 -1.142795e-02 -4.188064e-03 
7.647105e-04 8.495339e-03 1.251079e-02 2.062420e-02 2.560230e-02 3.398712e-02 3.981065e-02 4.832514e-02 5.484247e-02 6.331865e-02 7.034939e-02 7.859841e-02 8.594016e-02 9.375870e-02 1.011948e-01 1.083724e-01 1.156806e-01 1.220075e-01 1.289688e-01 1.342443e-01 1.406520e-01 1.446927e-01 1.503610e-01 1.530082e-01 1.577796e-01 1.589062e-01 1.626575e-01 1.621727e-01 1.648194e-01 1.626726e-01 1.641705e-01 1.603523e-01 1.606976e-01 1.552396e-01 1.544664e-01 1.474389e-01 1.456152e-01 1.371238e-01 1.343456e-01 1.245266e-01 1.209119e-01 1.099270e-01 1.056092e-01 9.363997e-02 8.876111e-02 7.600419e-02 7.070940e-02 5.737156e-02 5.180408e-02 3.809815e-02 3.239568e-02 1.853712e-02 1.282920e-02 -9.668084e-04 -6.560290e-03 -2.008139e-02 -2.545093e-02 -3.848987e-02 -4.353649e-02 -5.589354e-02 -6.052876e-02 -7.201435e-02 -7.616015e-02 -8.659801e-02 -9.018724e-02 -9.941798e-02 -1.023953e-01 -1.102805e-01 -1.126038e-01 -1.190306e-01 -1.206734e-01 -1.255588e-01 -1.265125e-01 -1.298081e-01 -1.300851e-01 -1.317806e-01 -1.314164e-01 -1.315423e-01 -1.305977e-01 -1.292263e-01 -1.277879e-01 -1.250322e-01 -1.232116e-01 -1.192224e-01 -1.171533e-01 -1.121134e-01 -1.099466e-01 -1.040625e-01 -1.019592e-01 -9.545180e-02 -9.357435e-02 -8.666718e-02 -8.516926e-02 -7.807689e-02 -7.709298e-02 -7.000928e-02 -6.964456e-02 -6.273245e-02 -6.305411e-02 -5.643740e-02 -5.746828e-02 -5.122640e-02 -5.294159e-02 -4.710753e-02 -4.943437e-02 -4.399607e-02 -4.681762e-02 -4.172249e-02 -4.488410e-02 -4.004607e-02 -4.336450e-02 -3.867311e-02 -4.194728e-02 -3.727770e-02 -4.030030e-02 -3.552364e-02 -3.809252e-02 -3.308568e-02 -3.501447e-02 -2.966891e-02 -3.079619e-02 -2.502532e-02 -2.522205e-02 -1.896701e-02 -1.814203e-02 -1.137585e-02 -9.479456e-03 -2.209596e-03 
-1.922217e-03 5.828982e-03 9.935873e-03 1.809615e-02 2.318513e-02 3.164043e-02 3.759089e-02 4.619633e-02 5.285303e-02 6.143714e-02 6.861590e-02 7.698605e-02 8.448055e-02 9.242943e-02 1.000191e-01 1.073321e-01 1.147907e-01 1.212541e-01 1.283590e-01 1.337680e-01 1.403092e-01 1.444770e-01 1.502658e-01 1.530306e-01 1.579073e-01 1.591396e-01 1.629796e-01 1.625870e-01 1.653053e-01 1.632362e-01 1.647890e-01 1.610338e-01 1.614184e-01 1.560094e-01 1.552616e-01 1.482705e-01 1.464603e-01 1.379944e-01 1.352206e-01 1.254179e-01 1.218012e-01 1.108255e-01 1.065015e-01 9.453662e-02 8.964981e-02 7.689411e-02 7.159142e-02 5.825336e-02 5.267944e-02 3.897327e-02 3.326678e-02 1.940911e-02 1.370011e-02 -9.296969e-05 -5.684482e-03 -1.919982e-02 -2.456450e-02 -3.759418e-02 -4.263343e-02 -5.497710e-02 -5.960292e-02 -7.107040e-02 -7.520529e-02 -8.561971e-02 -8.919700e-02 -9.839838e-02 -1.013632e-01 -1.092126e-01 -1.115232e-01 -1.179074e-01 -1.195377e-01 -1.243738e-01 -1.253156e-01 -1.285555e-01 -1.288218e-01 -1.304562e-01 -1.300833e-01 -1.301444e-01 -1.291944e-01 -1.277568e-01 -1.263178e-01 -1.234980e-01 -1.216837e-01 -1.176363e-01 -1.155827e-01 -1.104950e-01 -1.083558e-01 -1.024393e-01 -1.003782e-01 -9.385872e-02 -9.204058e-02 -8.514610e-02 -8.372669e-02 -7.667532e-02 -7.579029e-02 -6.877824e-02 -6.853285e-02 -6.172378e-02 -6.218399e-02 -5.570066e-02 -5.688670e-02 -5.080565e-02 -5.268866e-02 -4.703831e-02 -4.954057e-02 -4.430290e-02 -4.730160e-02 -4.241702e-02 -4.575128e-02 -4.112628e-02 -4.460665e-02 -4.012332e-02 -4.354303e-02 -3.906958e-02 -4.221640e-02 -3.761785e-02 -4.028580e-02 -3.543405e-02 -3.743413e-02 -3.221689e-02 -3.338624e-02 -2.771444e-02 -2.792369e-02 -2.173721e-02 -2.089587e-02 -1.416755e-02 -1.222743e-02 -4.965449e-03 
-7.386061e-04 7.069979e-03 1.116401e-02 1.938875e-02 2.448415e-02 3.301072e-02 3.898591e-02 4.766837e-02 5.436613e-02 6.303117e-02 7.026432e-02 7.871670e-02 8.627507e-02 9.430416e-02 1.019626e-01 1.093499e-01 1.168771e-01 1.234047e-01 1.305727e-01 1.360317e-01 1.426253e-01 1.468247e-01 1.526504e-01 1.554250e-01 1.603194e-01 1.615368e-01 1.653726e-01 1.649387e-01 1.676294e-01 1.654921e-01 1.669937e-01 1.631441e-01 1.634552e-01 1.579269e-01 1.570857e-01 1.499527e-01 1.480325e-01 1.394051e-01 1.365085e-01 1.265280e-01 1.227797e-01 1.116131e-01 1.071529e-01 9.498699e-02 8.996275e-02 7.699893e-02 7.156059e-02 5.800973e-02 5.230427e-02 3.838270e-02 3.255039e-02 1.847647e-02 1.264842e-02 -1.360149e-03 -7.063365e-03 -2.079186e-02 -2.626057e-02 -3.949935e-02 -4.463464e-02 -5.718130e-02 -6.189466e-02 -7.355656e-02 -7.776962e-02 -8.836686e-02 -9.201157e-02 -1.013807e-01 -1.044001e-01 -1.123982e-01 -1.147482e-01 -1.212578e-01 -1.229092e-01 -1.278430e-01 -1.287847e-01 -1.320905e-01 -1.323320e-01 -1.339970e-01 -1.335723e-01 -1.336258e-01 -1.325948e-01 -1.311102e-01 -1.295604e-01 -1.266540e-01 -1.246998e-01 -1.205279e-01 -1.183081e-01 -1.130613e-01 -1.107337e-01 -1.046287e-01 -1.023630e-01 -9.563187e-02 -9.360070e-02 -8.647890e-02 -8.484643e-02 -7.756007e-02 -7.647086e-02 -6.922411e-02 -6.879204e-02 -6.175597e-02 -6.205462e-02 -5.535834e-02 -5.641395e-02 -5.013890e-02 -5.192656e-02 -4.610439e-02 -4.854798e-02 -4.316215e-02 -4.613815e-02 -4.112891e-02 -4.447359e-02 -3.974590e-02 -4.326521e-02 -3.869853e-02 -4.217985e-02 -3.763905e-02 -4.086361e-02 -3.620999e-02 -3.896506e-02 -3.406671e-02 -3.615675e-02 -3.089776e-02 -3.215393e-02 -2.644191e-02 -2.672965e-02 -2.050160e-02 -1.972617e-02 -1.295257e-02 -1.106253e-02 -3.749790e-03 
-4.234435e-03 3.636509e-03 7.865147e-03 1.619570e-02 2.146463e-02 3.013618e-02 3.631818e-02 4.517947e-02 5.211083e-02 6.098231e-02 6.846862e-02 7.714797e-02 8.497120e-02 9.324007e-02 1.011667e-01 1.087985e-01 1.165889e-01 1.233572e-01 1.307749e-01 1.364628e-01 1.432850e-01 1.476939e-01 1.537205e-01 1.566788e-01 1.617410e-01 1.631112e-01 1.670783e-01 1.667630e-01 1.695469e-01 1.674922e-01 1.690495e-01 1.652468e-01 1.655784e-01 1.600631e-01 1.592112e-01 1.520605e-01 1.501036e-01 1.414318e-01 1.384783e-01 1.284314e-01 1.246122e-01 1.133622e-01 1.088228e-01 9.656119e-02 9.145473e-02 7.838722e-02 7.286801e-02 5.920921e-02 5.342754e-02 3.939692e-02 3.349531e-02 1.931383e-02 1.342462e-02 -6.878504e-04 -6.443654e-03 -2.027048e-02 -2.578335e-02 -3.911305e-02 -4.428456e-02 -5.691280e-02 -6.165496e-02 -7.338691e-02 -7.762173e-02 -8.827507e-02 -9.193455e-02 -1.013431e-01 -1.043700e-01 -1.123881e-01 -1.147376e-01 -1.212450e-01 -1.228870e-01 -1.277941e-01 -1.287163e-01 -1.319695e-01 -1.321810e-01 -1.337669e-01 -1.333013e-01 -1.332504e-01 -1.321687e-01 -1.305573e-01 -1.289490e-01 -1.258985e-01 -1.238815e-01 -1.195551e-01 -1.172732e-01 -1.118705e-01 -1.094879e-01 -1.032357e-01 -1.009297e-01 -9.407095e-02 -9.202181e-02 -8.480285e-02 -8.318230e-02 -7.583899e-02 -7.479800e-02 -6.754226e-02 -6.719921e-02 -6.020704e-02 -6.063745e-02 -5.403953e-02 -5.526852e-02 -4.914421e-02 -5.114261e-02 -4.551793e-02 -4.820244e-02 -4.305210e-02 -4.628958e-02 -4.154278e-02 -4.515822e-02 -4.070737e-02 -4.449477e-02 -4.020638e-02 -4.394131e-02 -3.966774e-02 -4.312063e-02 -3.871193e-02 -4.166087e-02 -3.697564e-02 -3.921792e-02 -3.413280e-02 -3.549458e-02 -2.991194e-02 -3.025580e-02 -2.410946e-02 -2.333977e-02 -1.659894e-02 -1.466510e-02 -7.336624e-03 
-3.822013e-03 4.144184e-03 8.398384e-03 1.684875e-02 2.218311e-02 3.099733e-02 3.728150e-02 4.630523e-02 5.337063e-02 6.241978e-02 7.006554e-02 7.893192e-02 8.693208e-02 9.539023e-02 1.035022e-01 1.113174e-01 1.192915e-01 1.262288e-01 1.338186e-01 1.396524e-01 1.466250e-01 1.511485e-01 1.572951e-01 1.603295e-01 1.654741e-01 1.668765e-01 1.708833e-01 1.705527e-01 1.733311e-01 1.712124e-01 1.727191e-01 1.688044e-01 1.690429e-01 1.633705e-01 1.623877e-01 1.550391e-01 1.529199e-01 1.440149e-01 1.408752e-01 1.305660e-01 1.265443e-01 1.150090e-01 1.102582e-01 9.769426e-02 9.237439e-02 7.899265e-02 7.326346e-02 5.928309e-02 5.329905e-02 3.894325e-02 3.284971e-02 1.834253e-02 1.227347e-02 -2.162564e-03 -8.085428e-03 -2.223114e-02 -2.789812e-02 -4.153927e-02 -4.685191e-02 -5.978093e-02 -6.465096e-02 -7.666908e-02 -8.101759e-02 -9.193769e-02 -9.569490e-02 -1.053452e-01 -1.084511e-01 -1.166795e-01 -1.190855e-01 -1.257650e-01 -1.274366e-01 -1.324708e-01 -1.333908e-01 -1.367197e-01 -1.368923e-01 -1.384972e-01 -1.379521e-01 -1.378600e-01 -1.366553e-01 -1.349411e-01 -1.331657e-01 -1.299521e-01 -1.277259e-01 -1.231806e-01 -1.206522e-01 -1.149820e-01 -1.123236e-01 -1.057656e-01 -1.031652e-01 -9.597473e-02 -9.362557e-02 -8.606293e-02 -8.415125e-02 -7.646660e-02 -7.515810e-02 -6.757710e-02 -6.700392e-02 -5.971463e-02 -5.996385e-02 -5.310640e-02 -5.421145e-02 -4.787143e-02 -4.980744e-02 -4.401356e-02 -4.669722e-02 -4.142340e-02 -4.471740e-02 -3.988896e-02 -4.361052e-02 -3.911356e-02 -4.304617e-02 -3.873921e-02 -4.264626e-02 -3.837284e-02 -4.201190e-02 -3.761313e-02 -4.074975e-02 -3.607577e-02 -3.849570e-02 -3.341564e-02 -3.493505e-02 -2.934488e-02 -2.981821e-02 -2.364667e-02 -2.297209e-02 -1.618467e-02 -1.430737e-02 -6.908502e-03 
-8.216888e-03 -1.433720e-04 4.293305e-03 1.291274e-02 1.848892e-02 2.752796e-02 3.410530e-02 4.340199e-02 5.080246e-02 6.016361e-02 6.817555e-02 7.738247e-02 8.576790e-02 9.458345e-02 1.030869e-01 1.112638e-01 1.196221e-01 1.269125e-01 1.348660e-01 1.410313e-01 1.483346e-01 1.531563e-01 1.595896e-01 1.628787e-01 1.682572e-01 1.698628e-01 1.740450e-01 1.738609e-01 1.767537e-01 1.747224e-01 1.762832e-01 1.723974e-01 1.726337e-01 1.669351e-01 1.659005e-01 1.584758e-01 1.562637e-01 1.472399e-01 1.439758e-01 1.335129e-01 1.293453e-01 1.176293e-01 1.127210e-01 9.995704e-02 9.447631e-02 8.088221e-02 7.499587e-02 6.079665e-02 5.466441e-02 4.008813e-02 3.385875e-02 1.913339e-02 1.294265e-02 -1.706046e-03 -7.735916e-03 -2.208591e-02 -2.784562e-02 -4.167983e-02 -4.707175e-02 -6.017947e-02 -6.511613e-02 -7.729492e-02 -8.169780e-02 -9.275625e-02 -9.655529e-02 -1.063167e-01 -1.094507e-01 -1.177577e-01 -1.201763e-01 -1.268963e-01 -1.285625e-01 -1.335943e-01 -1.344881e-01 -1.377677e-01 -1.378911e-01 -1.393977e-01 -1.387788e-01 -1.385398e-01 -1.372370e-01 -1.353304e-01 -1.334350e-01 -1.299903e-01 -1.276272e-01 -1.228223e-01 -1.201480e-01 -1.142033e-01 -1.114003e-01 -1.045691e-01 -1.018380e-01 -9.439360e-02 -9.194165e-02 -8.416226e-02 -8.218947e-02 -7.434216e-02 -7.302669e-02 -6.535109e-02 -6.483468e-02 -5.752860e-02 -5.790385e-02 -5.111184e-02 -5.241272e-02 -4.621898e-02 -4.841585e-02 -4.284196e-02 -4.584163e-02 -4.084929e-02 -4.450033e-02 -3.999872e-02 -4.410116e-02 -3.995782e-02 -4.427645e-02 -4.033049e-02 -4.461001e-02 -4.068617e-02 -4.466684e-02 -4.058927e-02 -4.402171e-02 -3.962626e-02 -4.228437e-02 -3.742898e-02 -3.912039e-02 -3.369306e-02 -3.426698e-02 -2.819154e-02 -2.754391e-02 -2.078375e-02 -1.886021e-02 -1.142009e-02 
-8.641835e-03 -4.349136e-04 4.067149e-03 1.286341e-02 1.856720e-02 2.782341e-02 3.458521e-02 4.413427e-02 5.176825e-02 6.140972e-02 6.969409e-02 7.919997e-02 8.788450e-02 9.700647e-02 1.058216e-01 1.142998e-01 1.229672e-01 1.305400e-01 1.387843e-01 1.451997e-01 1.527603e-01 1.577867e-01 1.644301e-01 1.678673e-01 1.733978e-01 1.750863e-01 1.793546e-01 1.791827e-01 1.820919e-01 1.800000e-01 1.815081e-01 1.774902e-01 1.776089e-01 1.717110e-01 1.705015e-01 1.628176e-01 1.603835e-01 1.510488e-01 1.475271e-01 1.367113e-01 1.322626e-01 1.201611e-01 1.149598e-01 1.017867e-01 9.601104e-02 8.199208e-02 7.581721e-02 6.118392e-02 5.477562e-02 3.976130e-02 3.327222e-02 1.810901e-02 1.167689e-02 -3.406024e-03 -9.658498e-03 -2.443586e-02 -3.039982e-02 -4.465108e-02 -5.022955e-02 -6.373980e-02 -6.884558e-02 -8.140710e-02 -8.596098e-02 -9.737577e-02 -1.013057e-01 -1.113891e-01 -1.146303e-01 -1.232159e-01 -1.257128e-01 -1.326585e-01 -1.343676e-01 -1.395622e-01 -1.404566e-01 -1.438269e-01 -1.439014e-01 -1.454191e-01 -1.446957e-01 -1.443830e-01 -1.429160e-01 -1.408493e-01 -1.387288e-01 -1.350401e-01 -1.323936e-01 -1.272679e-01 -1.242589e-01 -1.179282e-01 -1.147512e-01 -1.074845e-01 -1.043560e-01 -9.644599e-02 -9.359261e-02 -8.533881e-02 -8.298208e-02 -7.467337e-02 -7.301327e-02 -6.490982e-02 -6.410826e-02 -5.642545e-02 -5.659158e-02 -4.948721e-02 -5.066633e-02 -4.423245e-02 -4.639989e-02 -4.066018e-02 -4.372097e-02 -3.863369e-02 -4.242821e-02 -3.789429e-02 -4.220902e-02 -3.808412e-02 -4.266641e-02 -3.877547e-02 -4.335042e-02 -3.950315e-02 -4.379096e-02 -3.979676e-02 -4.352894e-02 -3.921016e-02 -4.214358e-02 -3.734643e-02 -3.927443e-02 -3.387736e-02 -3.463788e-02 -2.855741e-02 -2.803828e-02 -2.123262e-02 -1.937436e-02 -1.184528e-02 
-1.406749e-02 -5.703969e-03 -9.651065e-04 8.069493e-03 1.409142e-02 2.365988e-02 3.081068e-02 4.073593e-02 4.881727e-02 5.888680e-02 6.766235e-02 7.763404e-02 8.683718e-02 9.644672e-02 1.057900e-01 1.147600e-01 1.239461e-01 1.319970e-01 1.407315e-01 1.475930e-01 1.555972e-01 1.610209e-01 1.680453e-01 1.718163e-01 1.776525e-01 1.796000e-01 1.840903e-01 1.840951e-01 1.871390e-01 1.851386e-01 1.866953e-01 1.826851e-01 1.827724e-01 1.768036e-01 1.754925e-01 1.676673e-01 1.650742e-01 1.555386e-01 1.518149e-01 1.407498e-01 1.360710e-01 1.236838e-01 1.182380e-01 1.047537e-01 9.873157e-02 8.438567e-02 7.797212e-02 6.300422e-02 5.637224e-02 4.102209e-02 3.432880e-02 1.883352e-02 1.221870e-02 -3.188534e-03 -9.602060e-03 -2.469252e-02 -3.079698e-02 -4.534658e-02 -5.104663e-02 -6.483637e-02 -7.004625e-02 -8.286338e-02 -8.750458e-02 -9.914488e-02 -1.031448e-01 -1.134163e-01 -1.167083e-01 -1.254364e-01 -1.279615e-01 -1.349954e-01 -1.367058e-01 -1.419261e-01 -1.427899e-01 -1.461166e-01 -1.461241e-01 -1.475241e-01 -1.466939e-01 -1.461884e-01 -1.445735e-01 -1.422422e-01 -1.399352e-01 -1.359182e-01 -1.330529e-01 -1.275490e-01 -1.242996e-01 -1.175597e-01 -1.141357e-01 -1.064521e-01 -1.030889e-01 -9.478030e-02 -9.172544e-02 -8.311843e-02 -8.061511e-02 -7.202400e-02 -7.029210e-02 -6.199872e-02 -6.121611e-02 -5.345139e-02 -5.373723e-02 -4.666678e-02 -4.806892e-02 -4.178402e-02 -4.427226e-02 -3.878727e-02 -4.225331e-02 -3.750962e-02 -4.177390e-02 -3.764977e-02 -4.247418e-02 -3.879907e-02 -4.390400e-02 -4.047554e-02 -4.555913e-02 -4.216073e-02 -4.691830e-02 -4.333588e-02 -4.747764e-02 -4.351398e-02 -4.677999e-02 -4.226625e-02 -4.443785e-02 -3.924194e-02 -4.014970e-02 -3.418181e-02 -3.371036e-02 -2.692612e-02 -2.501639e-02 -1.741808e-02 
-1.543946e-02 -6.903364e-03 -2.056353e-03 7.215132e-03 1.343225e-02 2.329752e-02 3.072289e-02 4.099770e-02 4.942215e-02 5.988396e-02 6.905719e-02 7.945094e-02 8.908940e-02 9.913517e-02 1.089319e-01 1.183345e-01 1.279708e-01 1.364313e-01 1.455905e-01 1.528191e-01 1.612011e-01 1.669308e-01 1.742666e-01 1.782665e-01 1.843320e-01 1.864185e-01 1.910451e-01 1.910915e-01 1.941735e-01 1.921143e-01 1.936120e-01 1.894450e-01 1.893825e-01 1.831656e-01 1.816255e-01 1.734710e-01 1.705845e-01 1.606508e-01 1.565863e-01 1.450681e-01 1.400182e-01 1.271364e-01 1.213055e-01 1.072976e-01 1.008907e-01 8.600270e-02 7.921597e-02 6.369621e-02 5.671057e-02 4.080531e-02 3.378258e-02 1.773382e-02 1.081557e-02 -5.139764e-03 -1.183105e-02 -2.746087e-02 -3.381909e-02 -4.889557e-02 -5.482735e-02 -6.912670e-02 -7.454766e-02 -8.785069e-02 -9.268226e-02 -1.047764e-01 -1.089439e-01 -1.196268e-01 -1.230592e-01 -1.321442e-01 -1.347756e-01 -1.420987e-01 -1.438725e-01 -1.493005e-01 -1.501748e-01 -1.536148e-01 -1.535695e-01 -1.549777e-01 -1.540222e-01 -1.534122e-01 -1.515931e-01 -1.490419e-01 -1.464490e-01 -1.421000e-01 -1.388700e-01 -1.329316e-01 -1.292479e-01 -1.219874e-01 -1.180752e-01 -1.098073e-01 -1.059242e-01 -9.699481e-02 -9.341557e-02 -8.418165e-02 -8.117974e-02 -7.198663e-02 -6.981281e-02 -6.097137e-02 -5.983201e-02 -5.159775e-02 -5.163520e-02 -4.419168e-02 -4.546925e-02 -3.891765e-02 -4.141117e-02 -3.576716e-02 -3.936444e-02 -3.456255e-02 -3.907081e-02 -3.497553e-02 -4.013582e-02 -3.655780e-02 -4.206439e-02 -3.877956e-02 -4.430193e-02 -4.107126e-02 -4.627598e-02 -4.286391e-02 -4.743448e-02 -4.362460e-02 -4.727786e-02 -4.288514e-02 -4.538348e-02 -4.026298e-02 -4.142259e-02 -3.547496e-02 -3.517050e-02 -2.834491e-02 -2.651145e-02 -1.880663e-02 
-2.207280e-02 -1.332518e-02 -8.178681e-03 1.408249e-03 8.030300e-03 1.830521e-02 2.622797e-02 3.699427e-02 4.599293e-02 5.701296e-02 6.681882e-02 7.781959e-02 8.812794e-02 9.880887e-02 1.092892e-01 1.193322e-01 1.296405e-01 1.387223e-01 1.485162e-01 1.563225e-01 1.652769e-01 1.715176e-01 1.793415e-01 1.837656e-01 1.902171e-01 1.926258e-01 1.975245e-01 1.977809e-01 2.010164e-01 1.990517e-01 2.005864e-01 1.964006e-01 1.962675e-01 1.899266e-01 1.882225e-01 1.798510e-01 1.767252e-01 1.664967e-01 1.621379e-01 1.502633e-01 1.448848e-01 1.316013e-01 1.254267e-01 1.109867e-01 1.042377e-01 8.890014e-02 8.178601e-02 6.580941e-02 5.852013e-02 4.215863e-02 3.486123e-02 1.836251e-02 1.120034e-02 -5.194486e-03 -1.209981e-02 -2.815511e-02 -3.470000e-02 -5.018426e-02 -5.627847e-02 -7.096320e-02 -7.652506e-02 -9.018486e-02 -9.513722e-02 -1.075514e-01 -1.118191e-01 -1.227753e-01 -1.262844e-01 -1.355844e-01 -1.382642e-01 -1.457314e-01 -1.475182e-01 -1.530070e-01 -1.538511e-01 -1.572576e-01 -1.571308e-01 -1.584032e-01 -1.573088e-01 -1.564569e-01 -1.544382e-01 -1.515416e-01 -1.486896e-01 -1.439013e-01 -1.403599e-01 -1.339058e-01 -1.298721e-01 -1.220445e-01 -1.177643e-01 -1.089096e-01 -1.046665e-01 -9.516706e-02 -9.126604e-02 -8.151691e-02 -7.826295e-02 -6.864609e-02 -6.631961e-02 -5.717733e-02 -5.600905e-02 -4.761991e-02 -4.776815e-02 -4.032780e-02 -4.186108e-02 -3.547048e-02 -3.835805e-02 -3.302037e-02 -3.713204e-02 -3.275850e-02 -3.787383e-02 -3.429750e-02 -4.012318e-02 -3.711848e-02 -4.331122e-02 -4.061663e-02 -4.680865e-02 -4.414960e-02 -4.997349e-02 -4.708326e-02 -5.219394e-02 -4.883079e-02 -5.292302e-02 -4.888294e-02 -5.170378e-02 -4.682907e-02 -4.818567e-02 -4.236971e-02 -4.213318e-02 -3.532257e-02 -3.342893e-02 -2.562364e-02 
-2.454945e-02 -1.558839e-02 -1.028642e-02 -3.981663e-04 6.494375e-03 1.715287e-02 2.545118e-02 3.667426e-02 4.613962e-02 5.767680e-02 6.802255e-02 7.958412e-02 9.048356e-02 1.017484e-01 1.128452e-01 1.234714e-01 1.343932e-01 1.440313e-01 1.544056e-01 1.627145e-01 1.721867e-01 1.788509e-01 1.871032e-01 1.918493e-01 1.986182e-01 2.012300e-01 2.063202e-01 2.066505e-01 2.099449e-01 2.079211e-01 2.093838e-01 2.050099e-01 2.046836e-01 1.980354e-01 1.960332e-01 1.872498e-01 1.837424e-01 1.730151e-01 1.682146e-01 1.557734e-01 1.499172e-01 1.360176e-01 1.293518e-01 1.142629e-01 1.070280e-01 9.102249e-02 8.344251e-02 6.678965e-02 5.906438e-02 4.202580e-02 3.432733e-02 1.715570e-02 9.628374e-03 -7.431854e-03 -1.466849e-02 -3.137894e-02 -3.822516e-02 -5.435098e-02 -6.072079e-02 -7.602864e-02 -8.184365e-02 -9.610091e-02 -1.012852e-01 -1.142611e-01 -1.187376e-01 -1.302068e-01 -1.338963e-01 -1.436448e-01 -1.464677e-01 -1.543011e-01 -1.561820e-01 -1.619363e-01 -1.628110e-01 -1.663644e-01 -1.661902e-01 -1.674751e-01 -1.662414e-01 -1.652569e-01 -1.629963e-01 -1.598170e-01 -1.566155e-01 -1.513976e-01 -1.474010e-01 -1.403825e-01 -1.357989e-01 -1.272937e-01 -1.223891e-01 -1.127737e-01 -1.078612e-01 -9.755531e-02 -9.297663e-02 -8.241709e-02 -7.851900e-02 -6.813050e-02 -6.523628e-02 -5.540120e-02 -5.378132e-02 -4.481189e-02 -4.465697e-02 -3.677295e-02 -3.817274e-02 -3.148756e-02 -3.441897e-02 -2.893592e-02 -3.326208e-02 -2.888084e-02 -3.436143e-02 -3.089387e-02 -3.720505e-02 -3.439771e-02 -4.115878e-02 -3.871883e-02 -4.552167e-02 -4.314294e-02 -4.958066e-02 -4.696694e-02 -5.265870e-02 -4.954260e-02 -5.415292e-02 -5.030950e-02 -5.356160e-02 -4.881702e-02 -5.050063e-02 -4.473671e-02 -4.471148e-02 -3.786728e-02 -3.606300e-02 -2.813455e-02 
-3.261719e-02 -2.338254e-02 -1.770796e-02 -7.417435e-03 -2.013726e-05 1.115775e-02 2.007751e-02 3.192249e-02 4.210734e-02 5.435087e-02 6.549182e-02 7.782229e-02 8.956646e-02 1.016370e-01 1.135982e-01 1.250375e-01 1.368107e-01 1.472377e-01 1.584160e-01 1.674573e-01 1.776529e-01 1.849618e-01 1.938269e-01 1.991032e-01 2.063500e-01 2.093569e-01 2.147743e-01 2.153515e-01 2.188161e-01 2.168871e-01 2.183664e-01 2.139395e-01 2.134890e-01 2.066516e-01 2.044046e-01 1.953136e-01 1.914661e-01 1.803338e-01 1.751261e-01 1.622050e-01 1.559025e-01 1.414702e-01 1.343449e-01 1.186901e-01 1.110045e-01 9.441636e-02 8.641109e-02 6.917130e-02 6.105715e-02 4.343621e-02 3.539077e-02 1.764702e-02 9.815363e-03 -7.803121e-03 -1.530431e-02 -3.255641e-02 -3.963240e-02 -5.628014e-02 -6.285059e-02 -7.865596e-02 -8.464731e-02 -9.937064e-02 -1.047097e-01 -1.181103e-01 -1.227199e-01 -1.345593e-01 -1.383567e-01 -1.484052e-01 -1.513035e-01 -1.593494e-01 -1.612630e-01 -1.671242e-01 -1.679770e-01 -1.715151e-01 -1.712516e-01 -1.723860e-01 -1.709848e-01 -1.697069e-01 -1.671935e-01 -1.635785e-01 -1.600381e-01 -1.542525e-01 -1.498382e-01 -1.421413e-01 -1.370779e-01 -1.278159e-01 -1.223960e-01 -1.119877e-01 -1.065597e-01 -9.547404e-02 -9.042174e-02 -7.914834e-02 -7.486306e-02 -6.387791e-02 -6.072574e-02 -5.045584e-02 -4.874314e-02 -3.953377e-02 -3.947540e-02 -3.156404e-02 -3.325874e-02 -2.675909e-02 -3.017578e-02 -2.507396e-02 -3.005127e-02 -2.621460e-02 -3.247390e-02 -2.967065e-02 -3.684048e-02 -3.476740e-02 -4.241536e-02 -4.072887e-02 -4.839629e-02 -4.674305e-02 -5.397786e-02 -5.202135e-02 -5.840572e-02 -5.584688e-02 -6.101777e-02 -5.760896e-02 -6.127140e-02 -5.682443e-02 -5.875828e-02 -5.314767e-02 -5.320958e-02 -4.637268e-02 -4.449478e-02 -3.643022e-02 
-3.641007e-02 -2.691872e-02 -2.103512e-02 -1.037324e-02 -2.620132e-03 9.037181e-03 1.844740e-02 3.086918e-02 4.166232e-02 5.456462e-02 6.640973e-02 7.946029e-02 9.197703e-02 1.048029e-01 1.175724e-01 1.297716e-01 1.423514e-01 1.535083e-01 1.654521e-01 1.751573e-01 1.860374e-01 1.939096e-01 2.033419e-01 2.090505e-01 2.167177e-01 2.200025e-01 2.256734e-01 2.263601e-01 2.299024e-01 2.279106e-01 2.292952e-01 2.246389e-01 2.239353e-01 2.167167e-01 2.140816e-01 2.044783e-01 2.001372e-01 1.883864e-01 1.826122e-01 1.689924e-01 1.620834e-01 1.468968e-01 1.391550e-01 1.227122e-01 1.144249e-01 9.703227e-02 8.845861e-02 7.041059e-02 6.177295e-02 4.334790e-02 3.482871e-02 1.628921e-02 8.032672e-03 -1.037136e-02 -1.825364e-02 -3.628003e-02 -4.370077e-02 -6.110969e-02 -6.799636e-02 -8.454567e-02 -9.083113e-02 -1.062736e-01 -1.118880e-01 -1.259712e-01 -1.308363e-01 -1.433059e-01 -1.473327e-01 -1.579389e-01 -1.610294e-01 -1.695372e-01 -1.715896e-01 -1.777920e-01 -1.787107e-01 -1.824444e-01 -1.821528e-01 -1.833153e-01 -1.817712e-01 -1.803372e-01 -1.775498e-01 -1.735860e-01 -1.696304e-01 -1.633052e-01 -1.583345e-01 -1.499217e-01 -1.441725e-01 -1.340455e-01 -1.278356e-01 -1.164530e-01 -1.101691e-01 -9.804968e-02 -9.212468e-02 -7.981460e-02 -7.469673e-02 -6.273026e-02 -5.884475e-02 -4.770368e-02 -4.541216e-02 -3.548764e-02 -3.505009e-02 -2.661196e-02 -2.815655e-02 -2.133430e-02 -2.483996e-02 -1.961791e-02 -2.491282e-02 -2.114004e-02 -2.791631e-02 -2.532956e-02 -3.317186e-02 -3.142767e-02 -3.985081e-02 -3.856158e-02 -4.705127e-02 -4.582035e-02 -5.387139e-02 -5.232316e-02 -5.947103e-02 -5.727350e-02 -6.311709e-02 -5.999673e-02 -6.421230e-02 -5.996180e-02 -6.230924e-02 -5.679000e-02 -5.711369e-02 -5.025494e-02 -4.848110e-02 -4.027747e-02 
-4.619414e-02 -3.635836e-02 -3.001641e-02 -1.885387e-02 -1.048068e-02 1.820367e-03 1.199485e-02 2.518699e-02 3.686726e-02 5.064588e-02 6.347500e-02 7.748211e-02 9.104834e-02 1.048797e-01 1.187271e-01 1.319440e-01 1.455885e-01 1.577345e-01 1.706851e-01 1.813081e-01 1.930927e-01 2.017704e-01 2.119642e-01 2.183297e-01 2.265827e-01 2.303483e-01 2.364078e-01 2.373826e-01 2.411082e-01 2.392071e-01 2.405752e-01 2.358197e-01 2.349182e-01 2.274278e-01 2.244416e-01 2.144189e-01 2.096088e-01 1.973203e-01 1.909978e-01 1.767527e-01 1.692538e-01 1.533838e-01 1.450447e-01 1.278858e-01 1.190224e-01 1.009015e-01 9.179356e-02 7.301963e-02 6.390232e-02 4.476297e-02 3.582370e-02 1.658623e-02 7.967723e-03 -1.111617e-02 -1.930858e-02 -3.799602e-02 -4.568405e-02 -6.373380e-02 -7.085453e-02 -8.802067e-02 -9.451515e-02 -1.105431e-01 -1.163465e-01 -1.309720e-01 -1.360069e-01 -1.489593e-01 -1.531323e-01 -1.641411e-01 -1.673443e-01 -1.761508e-01 -1.782680e-01 -1.846400e-01 -1.855576e-01 -1.893076e-01 -1.889298e-01 -1.899344e-01 -1.882015e-01 -1.864220e-01 -1.833298e-01 -1.788296e-01 -1.744482e-01 -1.674056e-01 -1.618942e-01 -1.526078e-01 -1.462226e-01 -1.351068e-01 -1.281991e-01 -1.157678e-01 -1.087712e-01 -9.560950e-02 -8.901432e-02 -7.574040e-02 -7.005729e-02 -5.727665e-02 -5.299187e-02 -4.124891e-02 -3.877630e-02 -2.850906e-02 -2.814472e-02 -1.964848e-02 -2.153510e-02 -1.494008e-02 -1.904668e-02 -1.431318e-02 -2.043422e-02 -1.736585e-02 -2.514008e-02 -2.341278e-02 -3.235862e-02 -3.156034e-02 -4.112160e-02 -4.079615e-02 -5.039042e-02 -5.007910e-02 -5.914202e-02 -5.841797e-02 -6.643837e-02 -6.493123e-02 -7.147507e-02 -6.888558e-02 -7.360904e-02 -6.971524e-02 -7.236903e-02 -6.702640e-02 -6.745397e-02 -6.059224e-02 -5.872482e-02 -5.034350e-02 
-5.157559e-02 -4.143691e-02 -3.482442e-02 -2.321393e-02 -1.438741e-02 -1.500415e-03 9.296296e-03 2.320067e-02 3.565285e-02 5.025249e-02 6.397754e-02 7.889003e-02 9.344312e-02 1.082323e-01 1.231168e-01 1.373048e-01 1.519890e-01 1.650745e-01 1.790152e-01 1.904982e-01 2.031702e-01 2.125815e-01 2.235109e-01 2.304424e-01 2.392388e-01 2.433713e-01 2.497549e-01 2.508789e-01 2.546980e-01 2.527243e-01 2.539606e-01 2.489202e-01 2.476823e-01 2.397159e-01 2.362218e-01 2.255618e-01 2.201133e-01 2.070606e-01 2.000141e-01 1.849133e-01 1.766491e-01 1.598649e-01 1.507590e-01 1.326555e-01 1.230559e-01 1.039814e-01 9.419095e-02 7.446879e-02 6.473554e-02 4.466072e-02 3.517580e-02 1.501776e-02 5.919621e-03 -1.407113e-02 -2.268707e-02 -4.226995e-02 -5.033837e-02 -6.927314e-02 -7.674447e-02 -9.478297e-02 -1.016093e-01 -1.184898e-01 -1.246131e-01 -1.400584e-01 -1.454015e-01 -1.591215e-01 -1.635844e-01 -1.752834e-01 -1.787439e-01 -1.881330e-01 -1.904535e-01 -1.972671e-01 -1.983072e-01 -2.023237e-01 -2.019574e-01 -2.030223e-01 -2.011599e-01 -1.992093e-01 -1.958207e-01 -1.909033e-01 -1.860413e-01 -1.783347e-01 -1.721537e-01 -1.619724e-01 -1.547404e-01 -1.425326e-01 -1.346311e-01 -1.209619e-01 -1.128734e-01 -9.839417e-02 -9.067442e-02 -7.607921e-02 -6.931591e-02 -5.528950e-02 -5.005044e-02 -3.721211e-02 -3.398829e-02 -2.283870e-02 -2.198966e-02 -1.286778e-02 -1.457753e-02 -7.633698e-03 -1.188478e-02 -7.074364e-03 -1.364524e-02 -1.074375e-02 -1.923041e-02 -1.786746e-02 -2.772541e-02 -2.743144e-02 -3.803026e-02 -3.828785e-02 -4.896885e-02 -4.926094e-02 -5.938909e-02 -5.923797e-02 -6.824227e-02 -6.723661e-02 -7.463645e-02 -7.244636e-02 -7.786470e-02 -7.424688e-02 -7.741304e-02 -7.220929e-02 -7.295494e-02 -6.608714e-02 -6.433908e-02 -5.580325e-02 
-6.341883e-02 -5.285438e-02 -4.568308e-02 -3.346040e-02 -2.388078e-02 -1.020929e-02 1.515876e-03 1.635970e-02 2.989271e-02 4.556440e-02 6.049370e-02 7.658174e-02 9.242606e-02 1.084572e-01 1.246750e-01 1.401259e-01 1.561330e-01 1.704502e-01 1.856450e-01 1.982726e-01 2.120707e-01 2.224843e-01 2.343567e-01 2.420995e-01 2.516111e-01 2.563269e-01 2.631687e-01 2.646263e-01 2.686361e-01 2.667419e-01 2.679103e-01 2.627072e-01 2.611692e-01 2.528234e-01 2.488367e-01 2.376160e-01 2.315313e-01 2.177775e-01 2.100034e-01 1.941027e-01 1.850705e-01 1.674265e-01 1.575573e-01 1.385670e-01 1.282450e-01 1.082818e-01 9.783534e-02 7.723900e-02 6.693015e-02 4.600427e-02 3.602752e-02 1.504372e-02 5.532108e-03 -1.526093e-02 -2.422371e-02 -4.458859e-02 -5.295234e-02 -7.265074e-02 -8.038143e-02 -9.916356e-02 -1.062266e-01 -1.238238e-01 -1.301698e-01 -1.462915e-01 -1.518457e-01 -1.661817e-01 -1.708388e-01 -1.830669e-01 -1.866919e-01 -1.964913e-01 -1.989266e-01 -2.059969e-01 -2.070763e-01 -2.111609e-01 -2.107297e-01 -2.116430e-01 -2.095836e-01 -2.072387e-01 -2.034985e-01 -1.979341e-01 -1.925535e-01 -1.839545e-01 -1.770907e-01 -1.658000e-01 -1.577420e-01 -1.442582e-01 -1.354294e-01 -1.203894e-01 -1.113338e-01 -9.547744e-02 -8.682841e-02 -7.094817e-02 -6.338037e-02 -4.825956e-02 -4.242758e-02 -2.877334e-02 -2.524383e-02 -1.362331e-02 -1.280945e-02 -3.598004e-03 -5.706702e-03 9.441295e-04 -4.057184e-03 1.118682e-04 -7.513450e-03 -5.537078e-03 -1.530710e-02 -1.506731e-02 -2.634462e-02 -2.727671e-02 -3.933286e-02 -4.082653e-02 -5.291115e-02 -5.436801e-02 -6.576929e-02 -6.664759e-02 -7.673708e-02 -7.658056e-02 -8.484016e-02 -8.329176e-02 -8.932459e-02 -8.612837e-02 -8.965771e-02 -8.465335e-02 -8.551448e-02 -7.862849e-02 -7.675771e-02 -6.799461e-02 