# vtk DataFile Version 2.0
Comment goes here
ASCII

DATASET STRUCTURED_POINTS
FIELD FieldData 1
TIME 1 1 double
0.00500000
DIMENSIONS    128   128   1

ORIGIN    0.000   0.000   0.000
SPACING   0.039062 0.039062   1.000

POINT_DATA   16384
SCALARS uX double
LOOKUP_TABLE default

7.465379e-02 8.302568e-02 8.549674e-02 9.306869e-02 9.620138e-02 1.028825e-01 1.066513e-01 1.123543e-01 1.167131e-01 1.213546e-01 1.262357e-01 1.297367e-01 1.350497e-01 1.373361e-01 1.429680e-01 1.439708e-01 1.497865e-01 1.494431e-01 1.552869e-01 1.535418e-01 1.592404e-01 1.560474e-01 1.614141e-01 1.567381e-01 1.615796e-01 1.554002e-01 1.595240e-01 1.518391e-01 1.550639e-01 1.458944e-01 1.480609e-01 1.374556e-01 1.384382e-01 1.264787e-01 1.261970e-01 1.130015e-01 1.114296e-01 9.715555e-02 9.432888e-02 7.917311e-02 7.519081e-02 5.938693e-02 5.440946e-02 3.822199e-02 3.246355e-02 1.617901e-02 9.895014e-03 -6.189470e-03 -1.271877e-02 -2.830858e-02 -3.479685e-02 -4.961340e-02 -5.578747e-02 -6.958088e-02 -7.519856e-02 -8.775827e-02 -9.262304e-02 -1.037854e-01 -1.077565e-01 -1.174086e-01 -1.204062e-01 -1.284860e-01 -1.304908e-01 -1.369842e-01 -1.380324e-01 -1.429667e-01 -1.431419e-01 -1.465779e-01 -1.459998e-01 -1.480231e-01 -1.468360e-01 -1.475480e-01 -1.459087e-01 -1.454184e-01 -1.434859e-01 -1.419030e-01 -1.398297e-01 -1.372592e-01 -1.351844e-01 -1.317227e-01 -1.297681e-01 -1.255005e-01 -1.237672e-01 -1.187671e-01 -1.173352e-01 -1.116635e-01 -1.105922e-01 -1.042985e-01 -1.036270e-01 -9.675098e-02 -9.650010e-02 -8.907362e-02 -8.924752e-02 -8.129675e-02 -8.188454e-02 -7.343271e-02 -7.441000e-02 -6.548007e-02 -6.681026e-02 -5.742752e-02 -5.906298e-02 -4.925753e-02 -5.114072e-02 -4.094944e-02 -4.301407e-02 -3.248216e-02 -3.465450e-02 -2.383633e-02 -2.603667e-02 -1.499607e-02 -1.714048e-02 -5.950319e-03 -7.952577e-03 3.306100e-03 1.532420e-03 1.277165e-02 1.131097e-02 2.243740e-02 2.136990e-02 3.228631e-02 3.168573e-02 4.229260e-02 4.222413e-02 5.242103e-02 5.293922e-02 6.262598e-02 6.377285e-02 7.285059e-02 
5.653529e-02 6.743524e-02 6.630191e-02 7.669291e-02 7.600590e-02 8.579426e-02 8.554742e-02 9.464035e-02 9.481241e-02 1.031177e-01 1.036718e-01 1.110972e-01 1.119807e-01 1.184342e-01 1.195787e-01 1.249676e-01 1.262898e-01 1.305213e-01 1.319245e-01 1.349062e-01 1.362821e-01 1.379234e-01 1.391560e-01 1.393701e-01 1.403403e-01 1.390477e-01 1.396392e-01 1.367719e-01 1.368788e-01 1.323860e-01 1.319209e-01 1.257752e-01 1.246780e-01 1.168823e-01 1.151281e-01 1.057221e-01 1.033281e-01 9.239329e-02 8.942294e-02 7.708573e-02 7.364954e-02 6.008166e-02 5.633374e-02 4.174904e-02 3.787949e-02 2.252741e-02 1.875077e-02 2.906487e-03 -5.528304e-04 -1.660045e-02 -1.952438e-02 -3.548619e-02 -3.767915e-02 -5.327900e-02 -5.458235e-02 -6.956896e-02 -6.987222e-02 -8.402863e-02 -8.327635e-02 -9.642618e-02 -9.462008e-02 -1.066302e-01 -1.038266e-01 -1.146067e-01 -1.109096e-01 -1.204086e-01 -1.159605e-01 -1.241612e-01 -1.191313e-01 -1.260437e-01 -1.206162e-01 -1.262704e-01 -1.206331e-01 -1.250726e-01 -1.194073e-01 -1.226831e-01 -1.171580e-01 -1.193235e-01 -1.140873e-01 -1.151949e-01 -1.103736e-01 -1.104719e-01 -1.061673e-01 -1.052998e-01 -1.015897e-01 -9.979401e-02 -9.673307e-02 -9.404098e-02 -9.166289e-02 -8.810129e-02 -8.642074e-02 -8.201276e-02 -8.102776e-02 -7.579441e-02 -7.548831e-02 -6.945038e-02 -6.979366e-02 -6.297384e-02 -6.392564e-02 -5.635055e-02 -5.785991e-02 -4.956203e-02 -5.156904e-02 -4.258830e-02 -4.502525e-02 -3.541012e-02 -3.820270e-02 -2.801076e-02 -3.107947e-02 -2.037737e-02 -2.363908e-02 -1.250194e-02 -1.587166e-02 -4.382042e-03 -7.774807e-03 3.978651e-03 6.458062e-04 1.256989e-02 9.376025e-03 2.137444e-02 1.839285e-02 3.036758e-02 2.766410e-02 3.951656e-02 3.714798e-02 4.877991e-02 4.679260e-02 5.810661e-02 
7.467277e-02 8.309172e-02 8.556588e-02 9.318329e-02 9.632872e-02 1.030535e-01 1.068453e-01 1.125900e-01 1.169827e-01 1.216637e-01 1.265900e-01 1.301281e-01 1.354976e-01 1.378184e-01 1.435178e-01 1.445520e-01 1.504455e-01 1.501298e-01 1.560603e-01 1.543384e-01 1.601302e-01 1.569547e-01 1.624182e-01 1.577525e-01 1.626901e-01 1.565117e-01 1.607263e-01 1.530309e-01 1.563354e-01 1.471414e-01 1.493707e-01 1.387246e-01 1.397475e-01 1.277289e-01 1.274601e-01 1.141859e-01 1.125963e-01 9.822380e-02 9.534761e-02 8.007500e-02 7.601248e-02 6.007631e-02 5.499175e-02 3.866099e-02 3.277484e-02 1.634174e-02 9.917593e-03 -6.314181e-03 -1.298670e-02 -2.871577e-02 -3.534068e-02 -5.028211e-02 -5.657733e-02 -7.047595e-02 -7.619198e-02 -8.883345e-02 -9.376864e-02 -1.049873e-01 -1.089985e-01 -1.186814e-01 -1.216887e-01 -1.297757e-01 -1.317623e-01 -1.382420e-01 -1.392485e-01 -1.441523e-01 -1.442676e-01 -1.476608e-01 -1.470107e-01 -1.489833e-01 -1.477178e-01 -1.483752e-01 -1.466564e-01 -1.461112e-01 -1.441025e-01 -1.424671e-01 -1.403242e-01 -1.377055e-01 -1.355700e-01 -1.320656e-01 -1.300603e-01 -1.257561e-01 -1.239828e-01 -1.189521e-01 -1.174907e-01 -1.117941e-01 -1.107033e-01 -1.043897e-01 -1.037078e-01 -9.681591e-02 -9.656296e-02 -8.912338e-02 -8.930271e-02 -8.134033e-02 -8.194032e-02 -7.347702e-02 -7.447261e-02 -6.553002e-02 -6.688403e-02 -5.748625e-02 -5.915047e-02 -4.932658e-02 -5.124291e-02 -4.102904e-02 -4.313054e-02 -3.257144e-02 -3.478362e-02 -2.393356e-02 -2.617586e-02 -1.509882e-02 -1.728634e-02 -6.055660e-03 -8.101125e-03 3.201524e-03 1.385641e-03 1.267155e-02 1.117079e-02 2.234581e-02 2.124144e-02 3.220760e-02 3.157445e-02 4.223154e-02 4.213578e-02 5.238276e-02 5.287994e-02 6.261614e-02 6.374919e-02 7.287533e-02 
5.651138e-02 6.750621e-02 6.636454e-02 7.684926e-02 7.616837e-02 8.604955e-02 8.582395e-02 9.500917e-02 9.521805e-02 1.036154e-01 1.042222e-01 1.117399e-01 1.126917e-01 1.192378e-01 1.204655e-01 1.259472e-01 1.273663e-01 1.316902e-01 1.332015e-01 1.362739e-01 1.377658e-01 1.394939e-01 1.408457e-01 1.411393e-01 1.422258e-01 1.410011e-01 1.416986e-01 1.388820e-01 1.390764e-01 1.346108e-01 1.342060e-01 1.280572e-01 1.269850e-01 1.191496e-01 1.173783e-01 1.078907e-01 1.054334e-01 9.437198e-02 9.129128e-02 7.878226e-02 7.519205e-02 6.141023e-02 5.747226e-02 4.263812e-02 3.855405e-02 2.292678e-02 1.892571e-02 2.792623e-03 -8.848301e-04 -1.722152e-02 -2.034111e-02 -3.657899e-02 -3.893070e-02 -5.478170e-02 -5.619569e-02 -7.139912e-02 -7.175797e-02 -8.609065e-02 -8.533681e-02 -9.861960e-02 -9.675739e-02 -1.088578e-01 -1.059501e-01 -1.167811e-01 -1.129418e-01 -1.224579e-01 -1.178407e-01 -1.260314e-01 -1.208174e-01 -1.276996e-01 -1.220842e-01 -1.276948e-01 -1.218758e-01 -1.262642e-01 -1.204310e-01 -1.236532e-01 -1.179794e-01 -1.200925e-01 -1.147303e-01 -1.157892e-01 -1.108661e-01 -1.109210e-01 -1.065387e-01 -1.056336e-01 -1.018688e-01 -1.000412e-01 -9.694661e-02 -9.422764e-02 -9.183484e-02 -8.825012e-02 -8.657157e-02 -8.214258e-02 -8.117424e-02 -7.592007e-02 -7.564349e-02 -6.958288e-02 -6.996704e-02 -6.312060e-02 -6.412335e-02 -5.651579e-02 -5.808504e-02 -4.974725e-02 -5.182196e-02 -4.279276e-02 -4.530400e-02 -3.563131e-02 -3.850338e-02 -2.824481e-02 -3.139664e-02 -2.061943e-02 -2.396611e-02 -1.274643e-02 -1.620108e-02 -4.622848e-03 -8.098567e-03 3.748092e-03 3.362046e-04 1.235657e-02 9.089424e-03 2.118584e-02 1.813844e-02 3.021174e-02 2.745147e-02 3.940221e-02 3.698726e-02 4.871656e-02 4.669452e-02 5.810471e-02 
7.472218e-02 8.328256e-02 8.576527e-02 9.351926e-02 9.670221e-02 1.035581e-01 1.074186e-01 1.132884e-01 1.177825e-01 1.225822e-01 1.276437e-01 1.312935e-01 1.368327e-01 1.392572e-01 1.451601e-01 1.462890e-01 1.524174e-01 1.521857e-01 1.583783e-01 1.567272e-01 1.628020e-01 1.596805e-01 1.654384e-01 1.608053e-01 1.660364e-01 1.598633e-01 1.643556e-01 1.566313e-01 1.601806e-01 1.509158e-01 1.533391e-01 1.425726e-01 1.437212e-01 1.315263e-01 1.312998e-01 1.177893e-01 1.161481e-01 1.014788e-01 9.845283e-02 8.282678e-02 7.851981e-02 6.218233e-02 5.677026e-02 4.000392e-02 3.372642e-02 1.684111e-02 9.987120e-03 -6.693293e-03 -1.380508e-02 -2.995826e-02 -3.700202e-02 -5.232341e-02 -5.898943e-02 -7.320745e-02 -7.922359e-02 -9.211230e-02 -9.726128e-02 -1.086491e-01 -1.127802e-01 -1.225541e-01 -1.255882e-01 -1.336932e-01 -1.356212e-01 -1.420558e-01 -1.429317e-01 -1.477395e-01 -1.476694e-01 -1.509296e-01 -1.500576e-01 -1.518738e-01 -1.503680e-01 -1.508582e-01 -1.488967e-01 -1.481841e-01 -1.459435e-01 -1.441485e-01 -1.417946e-01 -1.390300e-01 -1.367110e-01 -1.330779e-01 -1.309203e-01 -1.265062e-01 -1.246129e-01 -1.194911e-01 -1.179416e-01 -1.121713e-01 -1.110224e-01 -1.046502e-01 -1.039380e-01 -9.699959e-02 -9.674124e-02 -8.926366e-02 -8.946006e-02 -8.146419e-02 -8.210143e-02 -7.360503e-02 -7.465611e-02 -6.567677e-02 -6.710276e-02 -5.766089e-02 -5.941198e-02 -4.953353e-02 -5.154992e-02 -4.126872e-02 -4.348157e-02 -3.284103e-02 -3.517360e-02 -2.422765e-02 -2.659679e-02 -1.541002e-02 -1.772791e-02 -6.375041e-03 -8.551222e-03 2.884089e-03 9.404791e-04 1.236721e-02 1.074508e-02 2.206666e-02 2.085063e-02 3.196674e-02 3.123482e-02 4.204316e-02 4.186461e-02 5.226231e-02 5.269555e-02 6.258048e-02 6.367119e-02 7.294287e-02 
5.645119e-02 6.763566e-02 6.647649e-02 7.714839e-02 7.647908e-02 8.654555e-02 8.636197e-02 9.573136e-02 9.601369e-02 1.045950e-01 1.053071e-01 1.130093e-01 1.140983e-01 1.208298e-01 1.222254e-01 1.278934e-01 1.295084e-01 1.340184e-01 1.357494e-01 1.390054e-01 1.407341e-01 1.426389e-01 1.442351e-01 1.446923e-01 1.460186e-01 1.449352e-01 1.458530e-01 1.431443e-01 1.435223e-01 1.391178e-01 1.388419e-01 1.326934e-01 1.316778e-01 1.237681e-01 1.219669e-01 1.123192e-01 1.097359e-01 9.842161e-02 9.511688e-02 8.226108e-02 7.835523e-02 6.413891e-02 5.980929e-02 4.446650e-02 3.993882e-02 2.374905e-02 1.928292e-02 2.558876e-03 -1.571028e-03 -1.849912e-02 -2.202450e-02 -3.882637e-02 -4.150683e-02 -5.786956e-02 -5.951174e-02 -7.515504e-02 -7.562720e-02 -9.031514e-02 -8.955560e-02 -1.031037e-01 -1.011226e-01 -1.134001e-01 -1.102747e-01 -1.212022e-01 -1.170669e-01 -1.266105e-01 -1.216433e-01 -1.298067e-01 -1.242134e-01 -1.310283e-01 -1.250277e-01 -1.305451e-01 -1.243548e-01 -1.286363e-01 -1.224616e-01 -1.255729e-01 -1.195984e-01 -1.216041e-01 -1.159885e-01 -1.169485e-01 -1.118218e-01 -1.117891e-01 -1.072526e-01 -1.062724e-01 -1.024000e-01 -1.005094e-01 -9.734977e-02 -9.457826e-02 -9.215829e-02 -8.852894e-02 -8.685646e-02 -8.238737e-02 -8.145412e-02 -7.616042e-02 -7.594436e-02 -6.984049e-02 -7.030765e-02 -6.340989e-02 -6.451569e-02 -5.684477e-02 -5.853493e-02 -5.011844e-02 -5.232978e-02 -4.320420e-02 -4.586542e-02 -3.607755e-02 -3.911020e-02 -2.871777e-02 -3.203759e-02 -2.110913e-02 -2.462763e-02 -1.324153e-02 -1.686800e-02 -5.111021e-03 -8.754578e-03 3.279979e-03 -2.918389e-04 1.192246e-02 8.507032e-03 2.080059e-02 1.762002e-02 2.989133e-02 2.701611e-02 3.916396e-02 3.665505e-02 4.857942e-02 4.648686e-02 5.808945e-02 
7.477946e-02 8.357636e-02 8.607077e-02 9.405306e-02 9.729625e-02 1.043713e-01 1.083441e-01 1.144232e-01 1.190849e-01 1.240831e-01 1.293697e-01 1.332065e-01 1.390292e-01 1.416280e-01 1.478724e-01 1.491611e-01 1.556856e-01 1.555966e-01 1.622336e-01 1.607043e-01 1.672610e-01 1.642348e-01 1.704967e-01 1.659246e-01 1.716615e-01 1.655051e-01 1.704791e-01 1.627149e-01 1.666925e-01 1.573178e-01 1.600838e-01 1.491238e-01 1.504985e-01 1.380142e-01 1.378699e-01 1.239663e-01 1.222436e-01 1.070754e-01 1.037959e-01 8.757099e-02 8.284377e-02 6.582230e-02 5.984309e-02 4.233123e-02 3.537343e-02 1.771202e-02 1.010944e-02 -7.341907e-03 -1.521891e-02 -3.210068e-02 -3.987313e-02 -5.584590e-02 -6.315503e-02 -7.791824e-02 -8.445190e-02 -9.775923e-02 -1.032729e-01 -1.149427e-01 -1.192731e-01 -1.291927e-01 -1.322627e-01 -1.403873e-01 -1.422027e-01 -1.485482e-01 -1.491878e-01 -1.538203e-01 -1.534207e-01 -1.564440e-01 -1.551822e-01 -1.567240e-01 -1.547997e-01 -1.549997e-01 -1.526189e-01 -1.516181e-01 -1.489800e-01 -1.469128e-01 -1.441997e-01 -1.411881e-01 -1.385591e-01 -1.347098e-01 -1.322968e-01 -1.276996e-01 -1.256070e-01 -1.203347e-01 -1.186404e-01 -1.127497e-01 -1.115068e-01 -1.050404e-01 -1.042804e-01 -9.726853e-02 -9.700400e-02 -8.946749e-02 -8.969484e-02 -8.164773e-02 -8.234925e-02 -7.380217e-02 -7.494763e-02 -6.591115e-02 -6.745894e-02 -5.794701e-02 -5.984478e-02 -4.987794e-02 -5.206323e-02 -4.167131e-02 -4.407221e-02 -3.329633e-02 -3.583243e-02 -2.472599e-02 -2.730980e-02 -1.593858e-02 -1.847730e-02 -6.918590e-03 -9.316331e-03 2.342646e-03 1.824119e-04 1.184652e-02 1.001844e-02 2.158686e-02 2.018115e-02 3.154954e-02 3.064961e-02 4.171204e-02 4.139226e-02 5.204283e-02 5.236645e-02 6.250057e-02 6.351783e-02 7.303310e-02 
5.633002e-02 6.779860e-02 6.661118e-02 7.756310e-02 7.690951e-02 8.725294e-02 8.713114e-02 9.677575e-02 9.716763e-02 1.060239e-01 1.068944e-01 1.148727e-01 1.161689e-01 1.231787e-01 1.248293e-01 1.307781e-01 1.326926e-01 1.374848e-01 1.395538e-01 1.430904e-01 1.451859e-01 1.473639e-01 1.493421e-01 1.500557e-01 1.517604e-01 1.509032e-01 1.521727e-01 1.496422e-01 1.503180e-01 1.460228e-01 1.459615e-01 1.398302e-01 1.389175e-01 1.309103e-01 1.290756e-01 1.191963e-01 1.164267e-01 1.047341e-01 1.010852e-01 8.770154e-02 8.330282e-02 6.841784e-02 6.347099e-02 4.734000e-02 4.210913e-02 2.504416e-02 1.983828e-02 2.193101e-03 -2.657632e-03 -2.050728e-02 -2.467898e-02 -4.235764e-02 -4.556037e-02 -6.271494e-02 -6.471725e-02 -8.103619e-02 -8.168351e-02 -9.691103e-02 -9.613584e-02 -1.100799e-01 -1.079029e-01 -1.204366e-01 -1.169594e-01 -1.280168e-01 -1.234080e-01 -1.329753e-01 -1.274522e-01 -1.355564e-01 -1.293652e-01 -1.360620e-01 -1.294585e-01 -1.348210e-01 -1.280542e-01 -1.321629e-01 -1.254622e-01 -1.283980e-01 -1.219642e-01 -1.238025e-01 -1.178035e-01 -1.186114e-01 -1.131800e-01 -1.130145e-01 -1.082501e-01 -1.071576e-01 -1.031288e-01 -1.011456e-01 -9.789417e-02 -9.504707e-02 -9.259207e-02 -8.889999e-02 -8.724184e-02 -8.271754e-02 -8.184141e-02 -7.649374e-02 -7.637217e-02 -7.020875e-02 -7.080351e-02 -6.383372e-02 -6.509682e-02 -5.733497e-02 -5.920921e-02 -5.067754e-02 -5.309680e-02 -4.382808e-02 -4.671770e-02 -3.675693e-02 -4.003441e-02 -2.943963e-02 -3.301588e-02 -2.185779e-02 -2.563883e-02 -1.399955e-02 -1.788869e-02 -5.859705e-03 -9.759906e-03 2.560366e-03 -1.256007e-03 1.125270e-02 7.610536e-03 2.020273e-02 1.681849e-02 2.938902e-02 2.633791e-02 3.878290e-02 3.613000e-02 4.834772e-02 4.614670e-02 5.803804e-02 
7.480706e-02 8.393670e-02 8.644207e-02 9.474528e-02 9.806786e-02 1.054509e-01 1.095768e-01 1.159499e-01 1.208431e-01 1.261206e-01 1.317209e-01 1.358211e-01 1.420422e-01 1.448873e-01 1.516144e-01 1.531305e-01 1.602190e-01 1.603353e-01 1.676094e-01 1.662586e-01 1.735116e-01 1.706296e-01 1.776260e-01 1.731532e-01 1.796336e-01 1.735174e-01 1.792068e-01 1.714055e-01 1.760263e-01 1.665165e-01 1.698054e-01 1.585906e-01 1.603191e-01 1.474406e-01 1.474378e-01 1.329861e-01 1.311607e-01 1.152854e-01 1.116436e-01 9.455954e-02 8.921639e-02 7.120466e-02 6.438495e-02 4.578666e-02 3.781475e-02 1.901757e-02 1.029597e-02 -8.285765e-03 -1.730710e-02 -3.525675e-02 -4.411684e-02 -6.104140e-02 -6.930597e-02 -8.486049e-02 -9.215638e-02 -1.060638e-01 -1.121057e-01 -1.241697e-01 -1.287767e-01 -1.388868e-01 -1.419870e-01 -1.501149e-01 -1.517392e-01 -1.579292e-01 -1.581960e-01 -1.625494e-01 -1.616435e-01 -1.643019e-01 -1.624508e-01 -1.635785e-01 -1.610296e-01 -1.607983e-01 -1.577991e-01 -1.563758e-01 -1.531579e-01 -1.506962e-01 -1.474652e-01 -1.440999e-01 -1.410287e-01 -1.368734e-01 -1.341007e-01 -1.292475e-01 -1.268780e-01 -1.213983e-01 -1.195060e-01 -1.134525e-01 -1.120841e-01 -1.054931e-01 -1.046727e-01 -9.756664e-02 -9.729957e-02 -8.969004e-02 -8.996606e-02 -8.185709e-02 -8.265309e-02 -7.404476e-02 -7.532625e-02 -6.621868e-02 -6.794060e-02 -5.833808e-02 -6.044498e-02 -5.035991e-02 -5.278602e-02 -4.224228e-02 -4.491162e-02 -3.394699e-02 -3.677412e-02 -2.544144e-02 -2.833268e-02 -1.669975e-02 -1.955515e-02 -7.703398e-03 -1.041922e-02 1.558542e-03 -9.129403e-04 1.108936e-02 8.965108e-03 2.088470e-02 1.920593e-02 3.093249e-02 2.979022e-02 4.121261e-02 4.068836e-02 5.169639e-02 5.186015e-02 6.234584e-02 6.325419e-02 7.311258e-02 
5.611102e-02 6.795761e-02 6.672872e-02 7.805250e-02 7.741664e-02 8.812737e-02 8.808547e-02 9.809486e-02 9.863133e-02 1.078521e-01 1.089338e-01 1.172788e-01 1.188537e-01 1.262343e-01 1.282304e-01 1.345554e-01 1.368789e-01 1.420525e-01 1.445871e-01 1.485074e-01 1.511136e-01 1.536708e-01 1.561869e-01 1.572634e-01 1.595084e-01 1.589797e-01 1.607594e-01 1.584986e-01 1.596157e-01 1.555009e-01 1.557688e-01 1.496943e-01 1.489553e-01 1.408465e-01 1.389915e-01 1.288216e-01 1.258104e-01 1.136170e-01 1.094947e-01 9.539308e-02 9.030002e-02 7.449095e-02 6.866288e-02 5.143159e-02 4.518858e-02 2.689463e-02 2.061884e-02 1.676843e-03 -4.218708e-03 -2.336523e-02 -2.847336e-02 -4.738173e-02 -5.133838e-02 -6.959615e-02 -7.211340e-02 -8.936354e-02 -9.025381e-02 -1.062127e-01 -1.054015e-01 -1.198681e-01 -1.173938e-01 -1.302496e-01 -1.262521e-01 -1.374532e-01 -1.321537e-01 -1.417175e-01 -1.353926e-01 -1.433817e-01 -1.363369e-01 -1.428423e-01 -1.353870e-01 -1.405138e-01 -1.329413e-01 -1.367965e-01 -1.293689e-01 -1.320535e-01 -1.249929e-01 -1.265967e-01 -1.200812e-01 -1.206801e-01 -1.148445e-01 -1.144999e-01 -1.094388e-01 -1.081980e-01 -1.039710e-01 -1.018684e-01 -9.850601e-02 -9.556440e-02 -9.307398e-02 -8.930639e-02 -8.767743e-02 -8.308905e-02 -8.229749e-02 -7.688824e-02 -7.689941e-02 -7.066706e-02 -7.143740e-02 -6.438128e-02 -6.585888e-02 -5.798384e-02 -6.010829e-02 -5.142870e-02 -5.413054e-02 -4.467367e-02 -4.787415e-02 -3.768248e-02 -4.129387e-02 -3.042603e-02 -3.435267e-02 -2.288287e-02 -2.702314e-02 -1.503921e-02 -1.928803e-02 -6.888629e-03 -1.114034e-02 1.568472e-03 -2.582808e-03 1.032523e-02 6.372643e-03 1.936858e-02 1.570551e-02 2.867913e-02 2.538706e-02 3.823089e-02 3.538036e-02 4.799051e-02 4.563992e-02 5.791640e-02 
7.475251e-02 8.431255e-02 8.682256e-02 9.554043e-02 9.895630e-02 1.067370e-01 1.110520e-01 1.178049e-01 1.229898e-01 1.286282e-01 1.346286e-01 1.390701e-01 1.458040e-01 1.489696e-01 1.563241e-01 1.581383e-01 1.659663e-01 1.663555e-01 1.744732e-01 1.733650e-01 1.815498e-01 1.788717e-01 1.868620e-01 1.825413e-01 1.900401e-01 1.840055e-01 1.906880e-01 1.828731e-01 1.884007e-01 1.787521e-01 1.827924e-01 1.712813e-01 1.735347e-01 1.601713e-01 1.604017e-01 1.452523e-01 1.433180e-01 1.265205e-01 1.224016e-01 1.041771e-01 9.799341e-02 7.865012e-02 7.066564e-02 5.059313e-02 4.120461e-02 2.085730e-02 1.056662e-02 -9.562100e-03 -2.018892e-02 -3.959931e-02 -4.998152e-02 -6.820260e-02 -7.779607e-02 -9.441869e-02 -1.027623e-01 -1.174657e-01 -1.242171e-01 -1.367856e-01 -1.417413e-01 -1.520696e-01 -1.551694e-01 -1.632563e-01 -1.645713e-01 -1.705040e-01 -1.702134e-01 -1.741460e-01 -1.725064e-01 -1.746354e-01 -1.719477e-01 -1.724893e-01 -1.690688e-01 -1.682390e-01 -1.643898e-01 -1.623903e-01 -1.583874e-01 -1.553962e-01 -1.514742e-01 -1.476415e-01 -1.439899e-01 -1.394365e-01 -1.361993e-01 -1.310187e-01 -1.282984e-01 -1.225586e-01 -1.204214e-01 -1.141687e-01 -1.126509e-01 -1.059128e-01 -1.050268e-01 -9.781492e-02 -9.755549e-02 -8.986894e-02 -9.021676e-02 -8.204586e-02 -8.297081e-02 -7.430112e-02 -7.576369e-02 -6.658076e-02 -6.853223e-02 -5.882673e-02 -6.120855e-02 -5.098138e-02 -5.372423e-02 -4.299091e-02 -4.601416e-02 -3.480793e-02 -3.801975e-02 -2.639304e-02 -2.969164e-02 -1.771560e-02 -2.099142e-02 -8.753815e-03 -1.189246e-02 5.055402e-04 -2.380062e-03 1.006765e-02 7.549009e-03 1.993008e-02 1.788723e-02 3.008309e-02 2.861697e-02 4.050949e-02 3.971082e-02 5.118427e-02 5.113158e-02 6.207378e-02 6.283173e-02 7.313467e-02 
5.574545e-02 6.806294e-02 6.677608e-02 7.856193e-02 7.794289e-02 8.910921e-02 8.916279e-02 9.962422e-02 1.003384e-01 1.100110e-01 1.113559e-01 1.201560e-01 1.220817e-01 1.299245e-01 1.323596e-01 1.391567e-01 1.420054e-01 1.476625e-01 1.508023e-01 1.552159e-01 1.584946e-01 1.615486e-01 1.647838e-01 1.663474e-01 1.693269e-01 1.692535e-01 1.717410e-01 1.698716e-01 1.716167e-01 1.677877e-01 1.685430e-01 1.625996e-01 1.621436e-01 1.539596e-01 1.521250e-01 1.416266e-01 1.383290e-01 1.255191e-01 1.207833e-01 1.057628e-01 9.973997e-02 8.272130e-02 7.569217e-02 5.700090e-02 4.936366e-02 2.942612e-02 2.166737e-02 9.851385e-04 -6.362550e-03 -2.724846e-02 -3.365727e-02 -5.420758e-02 -5.920637e-02 -7.892410e-02 -8.214416e-02 -1.006088e-01 -1.018169e-01 -1.187081e-01 -1.178226e-01 -1.329301e-01 -1.300188e-01 -1.432403e-01 -1.385017e-01 -1.498289e-01 -1.435621e-01 -1.530598e-01 -1.456278e-01 -1.534106e-01 -1.452027e-01 -1.514117e-01 -1.428116e-01 -1.475953e-01 -1.389551e-01 -1.424556e-01 -1.340792e-01 -1.364229e-01 -1.285572e-01 -1.298505e-01 -1.226840e-01 -1.230123e-01 -1.166781e-01 -1.161068e-01 -1.106897e-01 -1.092660e-01 -1.048105e-01 -1.025655e-01 -9.908487e-02 -9.603574e-02 -9.352039e-02 -8.967210e-02 -8.809640e-02 -8.344403e-02 -8.277170e-02 -7.730310e-02 -7.749057e-02 -7.118999e-02 -7.218781e-02 -6.504049e-02 -6.679303e-02 -5.879044e-02 -6.123452e-02 -5.237976e-02 -5.544291e-02 -4.575543e-02 -4.935451e-02 -3.887333e-02 -4.291424e-02 -3.169917e-02 -3.607781e-02 -2.420845e-02 -2.881301e-02 -1.638583e-02 -2.109996e-02 -8.224093e-03 -1.293060e-02 2.768990e-04 -4.307516e-03 9.111170e-03 4.757348e-03 1.826719e-02 1.424387e-02 2.772803e-02 2.412449e-02 3.747102e-02 3.436449e-02 4.746703e-02 4.492163e-02 5.767946e-02 
7.454869e-02 8.463837e-02 8.713935e-02 9.636681e-02 9.988273e-02 1.081519e-01 1.126853e-01 1.199045e-01 1.254353e-01 1.315171e-01 1.379997e-01 1.428612e-01 1.502209e-01 1.537828e-01 1.619116e-01 1.640974e-01 1.728488e-01 1.735833e-01 1.827674e-01 1.819741e-01 1.913521e-01 1.889506e-01 1.982318e-01 1.941347e-01 2.029767e-01 1.970899e-01 2.051043e-01 1.973291e-01 2.040959e-01 1.943375e-01 1.994289e-01 1.876110e-01 1.906259e-01 1.767110e-01 1.773166e-01 1.613311e-01 1.593083e-01 1.413672e-01 1.366518e-01 1.169782e-01 1.096902e-01 8.862557e-02 7.907972e-02 5.707837e-02 4.577137e-02 2.338048e-02 1.095459e-02 -1.122080e-02 -2.403408e-02 -4.537600e-02 -5.782478e-02 -7.775124e-02 -8.913502e-02 -1.071461e-01 -1.168804e-01 -1.325949e-01 -1.402594e-01 -1.534373e-01 -1.588024e-01 -1.693497e-01 -1.723782e-01 -1.803363e-01 -1.811631e-01 -1.866842e-01 -1.855800e-01 -1.888949e-01 -1.862206e-01 -1.876041e-01 -1.837648e-01 -1.835041e-01 -1.789078e-01 -1.772778e-01 -1.723037e-01 -1.695498e-01 -1.645273e-01 -1.608568e-01 -1.560545e-01 -1.516334e-01 -1.472571e-01 -1.422124e-01 -1.384083e-01 -1.328320e-01 -1.296947e-01 -1.236486e-01 -1.212303e-01 -1.147512e-01 -1.130711e-01 -1.061743e-01 -1.052283e-01 -9.791135e-02 -9.767882e-02 -8.992496e-02 -9.037467e-02 -8.215630e-02 -8.324972e-02 -7.453312e-02 -7.622549e-02 -6.697651e-02 -6.921609e-02 -5.940672e-02 -6.213275e-02 -5.174798e-02 -5.488823e-02 -4.393207e-02 -4.740103e-02 -3.590081e-02 -3.959909e-02 -2.760723e-02 -3.142274e-02 -1.901581e-02 -2.282641e-02 -1.010183e-02 -1.377912e-02 -8.502350e-04 -4.263857e-03 8.745575e-03 5.723759e-03 1.868487e-02 1.617704e-02 2.896027e-02 2.707962e-02 3.955797e-02 3.840638e-02 5.045738e-02 5.012362e-02 6.163032e-02 6.218865e-02 7.303976e-02 
5.517309e-02 6.805276e-02 6.668731e-02 7.902307e-02 7.841607e-02 9.012335e-02 9.028442e-02 1.012818e-01 1.022038e-01 1.124119e-01 1.140695e-01 1.234098e-01 1.257577e-01 1.341509e-01 1.371208e-01 1.444843e-01 1.479810e-01 1.542251e-01 1.581220e-01 1.631449e-01 1.672787e-01 1.709606e-01 1.751267e-01 1.773239e-01 1.812744e-01 1.818154e-01 1.852611e-01 1.839468e-01 1.865676e-01 1.831787e-01 1.846431e-01 1.789565e-01 1.789514e-01 1.707658e-01 1.690362e-01 1.582059e-01 1.545977e-01 1.410697e-01 1.355702e-01 1.194177e-01 1.121847e-01 9.363055e-02 8.500254e-02 6.442474e-02 5.490684e-02 3.282407e-02 2.304978e-02 8.642107e-05 -9.241402e-03 -3.240573e-02 -4.058666e-02 -6.327559e-02 -6.968562e-02 -9.128343e-02 -9.543997e-02 -1.154393e-01 -1.170473e-01 -1.350804e-01 -1.340534e-01 -1.499039e-01 -1.463573e-01 -1.599525e-01 -1.541741e-01 -1.655621e-01 -1.579657e-01 -1.672825e-01 -1.583540e-01 -1.657890e-01 -1.560349e-01 -1.617985e-01 -1.517016e-01 -1.560002e-01 -1.459886e-01 -1.490079e-01 -1.394357e-01 -1.413318e-01 -1.324728e-01 -1.333701e-01 -1.254194e-01 -1.254118e-01 -1.184943e-01 -1.176492e-01 -1.118314e-01 -1.101936e-01 -1.054962e-01 -1.030918e-01 -9.950259e-02 -9.634094e-02 -9.382629e-02 -8.990225e-02 -8.841608e-02 -8.371186e-02 -8.320234e-02 -7.769012e-02 -7.810336e-02 -7.174933e-02 -7.303024e-02 -6.580027e-02 -6.789090e-02 -5.975768e-02 -6.259386e-02 -5.354450e-02 -5.705208e-02 -4.709497e-02 -5.118676e-02 -4.035626e-02 -4.493079e-02 -3.328890e-02 -3.823133e-02 -2.586598e-02 -3.105111e-02 -1.807158e-02 -2.336819e-02 -9.898839e-03 -1.517457e-02 -1.347977e-03 -6.473988e-03 7.575332e-03 2.720421e-03 1.686098e-02 1.238815e-02 2.649477e-02 2.250258e-02 3.645811e-02 3.303150e-02 4.672713e-02 4.393670e-02 5.727147e-02 
7.411426e-02 8.483433e-02 8.730340e-02 9.713654e-02 1.007500e-01 1.095992e-01 1.143711e-01 1.221438e-01 1.280662e-01 1.346746e-01 1.417141e-01 1.470749e-01 1.551684e-01 1.592029e-01 1.682523e-01 1.708849e-01 1.807499e-01 1.819061e-01 1.923952e-01 1.919975e-01 2.028594e-01 2.008215e-01 2.117361e-01 2.079570e-01 2.185305e-01 2.128901e-01 2.226565e-01 2.150156e-01 2.234495e-01 2.136574e-01 2.202016e-01 2.081139e-01 2.122234e-01 1.977304e-01 1.989308e-01 1.819939e-01 1.799474e-01 1.606387e-01 1.552074e-01 1.337430e-01 1.250365e-01 1.017955e-01 9.019186e-02 6.571420e-02 5.184653e-02 2.680688e-02 1.151413e-02 -1.332586e-02 -2.907782e-02 -5.293297e-02 -6.814925e-02 -9.028055e-02 -1.040397e-01 -1.238199e-01 -1.353654e-01 -1.523307e-01 -1.611385e-01 -1.750189e-01 -1.808310e-01 -1.915555e-01 -1.943779e-01 -2.020546e-01 -2.021227e-01 -2.070012e-01 -2.047225e-01 -2.071447e-01 -2.030310e-01 -2.033814e-01 -1.979827e-01 -1.966448e-01 -1.904937e-01 -1.878178e-01 -1.813896e-01 -1.776742e-01 -1.713635e-01 -1.668473e-01 -1.609592e-01 -1.558228e-01 -1.505755e-01 -1.449475e-01 -1.404820e-01 -1.344481e-01 -1.308418e-01 -1.244528e-01 -1.217340e-01 -1.150129e-01 -1.131751e-01 -1.061219e-01 -1.051364e-01 -9.773126e-02 -9.755684e-02 -8.976325e-02 -9.035341e-02 -8.212130e-02 -8.342792e-02 -7.469858e-02 -7.667248e-02 -6.738545e-02 -6.997390e-02 -6.007569e-02 -6.321815e-02 -5.267177e-02 -5.629493e-02 -4.508862e-02 -4.910264e-02 -3.725602e-02 -4.155284e-02 -2.911927e-02 -3.357382e-02 -2.063861e-02 -2.511238e-02 -1.178748e-02 -1.613377e-02 -2.550256e-03 -6.619995e-03 7.079995e-03 3.432858e-03 1.710352e-02 1.401755e-02 2.751513e-02 2.511811e-02 3.830471e-02 3.671147e-02 4.945695e-02 4.876790e-02 6.095031e-02 6.125058e-02 7.275563e-02 
5.432298e-02 6.785355e-02 6.638405e-02 7.935424e-02 7.874971e-02 9.107936e-02 9.135510e-02 1.029677e-01 1.041228e-01 1.149448e-01 1.169607e-01 1.269204e-01 1.297589e-01 1.387852e-01 1.423849e-01 1.504046e-01 1.546758e-01 1.616088e-01 1.664260e-01 1.721781e-01 1.773715e-01 1.818249e-01 1.871702e-01 1.901725e-01 1.953831e-01 1.967373e-01 2.014616e-01 2.009214e-01 2.047498e-01 2.020240e-01 2.045107e-01 1.992817e-01 1.999834e-01 1.919411e-01 1.904715e-01 1.793615e-01 1.754562e-01 1.611358e-01 1.547156e-01 1.372076e-01 1.284268e-01 1.079585e-01 9.722698e-02 7.424361e-02 6.221182e-02 3.735936e-02 2.486668e-02 -1.057255e-03 -1.306589e-02 -3.918468e-02 -4.976216e-02 -7.520499e-02 -8.350938e-02 -1.074942e-01 -1.128828e-01 -1.347840e-01 -1.368792e-01 -1.562702e-01 -1.549865e-01 -1.716523e-01 -1.671831e-01 -1.811037e-01 -1.738723e-01 -1.851844e-01 -1.757727e-01 -1.847189e-01 -1.737881e-01 -1.806646e-01 -1.688815e-01 -1.739930e-01 -1.619717e-01 -1.655992e-01 -1.538619e-01 -1.562437e-01 -1.452022e-01 -1.465265e-01 -1.364790e-01 -1.368862e-01 -1.280265e-01 -1.276154e-01 -1.200484e-01 -1.188845e-01 -1.126452e-01 -1.107676e-01 -1.058403e-01 -1.032671e-01 -9.960299e-02 -9.633397e-02 -9.386608e-02 -8.988409e-02 -8.853929e-02 -8.381105e-02 -8.351821e-02 -7.799621e-02 -7.869030e-02 -7.231693e-02 -7.393890e-02 -6.665360e-02 -6.914647e-02 -6.089551e-02 -6.419794e-02 -5.494562e-02 -5.898480e-02 -4.872371e-02 -5.340966e-02 -4.216788e-02 -4.739082e-02 -3.523423e-02 -4.086562e-02 -2.789500e-02 -3.379190e-02 -2.013569e-02 -2.614710e-02 -1.195174e-02 -1.792547e-02 -3.345330e-03 -9.134268e-03 5.677131e-03 2.102079e-04 1.510660e-02 1.008575e-02 2.493194e-02 2.046624e-02 3.513949e-02 3.132227e-02 4.571191e-02 4.262063e-02 5.662653e-02 
7.335440e-02 8.480673e-02 8.721004e-02 9.774580e-02 1.014427e-01 1.109643e-01 1.159829e-01 1.243970e-01 1.307444e-01 1.379625e-01 1.456219e-01 1.515607e-01 1.604863e-01 1.650687e-01 1.751794e-01 1.783332e-01 1.895029e-01 1.911586e-01 2.032040e-01 2.032882e-01 2.159539e-01 2.143806e-01 2.273225e-01 2.239813e-01 2.367525e-01 2.314975e-01 2.435414e-01 2.361854e-01 2.468438e-01 2.371623e-01 2.457044e-01 2.334565e-01 2.391356e-01 2.241023e-01 2.262361e-01 2.082750e-01 2.063436e-01 1.854507e-01 1.791945e-01 1.555595e-01 1.450570e-01 1.190991e-01 1.048051e-01 7.717589e-02 5.990874e-02 3.145845e-02 1.233275e-02 -1.595693e-02 -3.564294e-02 -6.274996e-02 -8.165585e-02 -1.066186e-01 -1.235102e-01 -1.455225e-01 -1.594040e-01 -1.778892e-01 -1.880987e-01 -2.027521e-01 -2.090057e-01 -2.197981e-01 -2.221797e-01 -2.293247e-01 -2.282272e-01 -2.321204e-01 -2.281559e-01 -2.293005e-01 -2.231978e-01 -2.221313e-01 -2.146409e-01 -2.118750e-01 -2.036941e-01 -1.996740e-01 -1.913973e-01 -1.864816e-01 -1.785776e-01 -1.730353e-01 -1.658433e-01 -1.598627e-01 -1.536036e-01 -1.473066e-01 -1.421025e-01 -1.355601e-01 -1.314564e-01 -1.247016e-01 -1.216887e-01 -1.147258e-01 -1.127590e-01 -1.055692e-01 -1.045853e-01 -9.712855e-02 -9.705876e-02 -8.927552e-02 -9.005421e-02 -8.186707e-02 -8.343610e-02 -7.475449e-02 -7.706261e-02 -6.779103e-02 -7.078892e-02 -6.083886e-02 -6.447102e-02 -5.377480e-02 -5.797073e-02 -4.649465e-02 -5.116177e-02 -3.891539e-02 -4.393583e-02 -3.097526e-02 -3.620733e-02 -2.263193e-02 -2.791552e-02 -1.385924e-02 -1.902357e-02 -4.643341e-03 -9.515204e-03 5.021110e-03 6.101395e-04 1.513404e-02 1.134220e-02 2.569197e-02 2.266384e-02 3.668877e-02 3.455351e-02 4.811535e-02 4.698597e-02 5.995831e-02 5.993155e-02 7.219808e-02 