# vtk DataFile Version 2.0
Comment goes here
ASCII

DATASET STRUCTURED_POINTS
FIELD FieldData 1
TIME 1 1 double
0.11000000
DIMENSIONS    128   128   1

ORIGIN    0.000   0.000   0.000
SPACING   0.039062 0.039062   1.000

POINT_DATA   16384
SCALARS uX double
LOOKUP_TABLE default

-3.910289e-01 -3.360707e-01 -2.793886e-01 -2.241160e-01 -1.677636e-01 -1.127402e-01 -5.726298e-02 -2.994462e-03 5.111820e-02 1.041830e-01 1.564961e-01 2.079620e-01 2.580916e-01 3.076131e-01 3.552231e-01 4.025000e-01 4.472980e-01 4.920709e-01 5.338054e-01 5.758519e-01 6.143088e-01 6.534394e-01 6.884399e-01 7.244945e-01 7.558922e-01 7.887370e-01 8.164159e-01 8.459400e-01 8.698123e-01 8.959244e-01 9.159277e-01 9.385528e-01 9.546472e-01 9.737229e-01 9.858879e-01 1.001361e+00 1.009592e+00 1.021414e+00 1.025719e+00 1.033845e+00 1.034238e+00 1.038622e+00 1.035126e+00 1.035719e+00 1.028356e+00 1.025105e+00 1.013900e+00 1.006751e+00 9.917270e-01 9.806220e-01 9.618045e-01 9.466893e-01 9.241053e-01 9.049325e-01 8.786157e-01 8.553506e-01 8.253463e-01 7.979750e-01 7.643460e-01 7.328829e-01 6.957170e-01 6.602134e-01 6.196309e-01 5.801834e-01 5.363449e-01 4.931036e-01 4.462172e-01 3.993925e-01 3.497207e-01 2.995897e-01 2.474545e-01 1.943658e-01 1.401529e-01 8.452921e-02 2.869065e-02 -2.896967e-02 -8.591561e-02 -1.450394e-01 -2.025094e-01 -2.624516e-01 -3.198014e-01 -3.798508e-01 -4.363814e-01 -4.957686e-01 -5.507354e-01 -6.086440e-01 -6.612688e-01 -7.168504e-01 -7.663365e-01 -8.187281e-01 -8.642791e-01 -9.126246e-01 -9.534651e-01 -9.969396e-01 -1.032339e+00 -1.070175e+00 -1.099474e+00 -1.130987e+00 -1.153620e+00 -1.178237e+00 -1.193757e+00 -1.211037e+00 -1.219136e+00 -1.228791e+00 -1.229311e+00 -1.231215e+00 -1.224160e+00 -1.218356e+00 -1.203889e+00 -1.190582e+00 -1.169018e+00 -1.148568e+00 -1.120359e+00 -1.093257e+00 -1.058971e+00 -1.025819e+00 -9.861172e-01 -9.476012e-01 -9.032079e-01 -8.600677e-01 -8.117476e-01 -7.647510e-01 -7.132824e-01 -6.632009e-01 -6.093540e-01 -5.569418e-01 -5.014610e-01 -4.474385e-01 
-3.910757e-01 -3.361036e-01 -2.793663e-01 -2.240865e-01 -1.676865e-01 -1.126622e-01 -5.714450e-02 -2.880528e-03 5.126637e-02 1.043222e-01 1.566641e-01 2.081176e-01 2.582715e-01 3.077785e-01 3.554090e-01 4.026702e-01 4.474859e-01 4.922433e-01 5.339932e-01 5.760252e-01 6.144959e-01 6.536141e-01 6.886270e-01 7.246723e-01 7.560815e-01 7.889207e-01 8.166107e-01 8.461337e-01 8.700169e-01 8.961331e-01 9.161473e-01 9.387821e-01 9.548877e-01 9.739793e-01 9.861559e-01 1.001651e+00 1.009894e+00 1.021746e+00 1.026063e+00 1.034225e+00 1.034631e+00 1.039057e+00 1.035573e+00 1.036214e+00 1.028864e+00 1.025666e+00 1.014472e+00 1.007379e+00 9.923655e-01 9.813193e-01 9.625092e-01 9.474537e-01 9.248735e-01 9.057593e-01 8.794416e-01 8.562323e-01 8.262214e-01 7.989011e-01 7.652587e-01 7.338401e-01 6.966531e-01 6.611859e-01 6.205738e-01 5.811532e-01 5.372759e-01 4.940511e-01 4.471164e-01 4.002972e-01 3.505675e-01 3.004306e-01 2.482282e-01 1.951221e-01 1.408334e-01 8.518127e-02 2.925895e-02 -2.844023e-02 -8.547658e-02 -1.446489e-01 -2.022145e-01 -2.622139e-01 -3.196629e-01 -3.797770e-01 -4.364083e-01 -4.958663e-01 -5.509332e-01 -6.089173e-01 -6.616392e-01 -7.172991e-01 -7.668769e-01 -8.193476e-01 -8.649823e-01 -9.134055e-01 -9.543192e-01 -9.978675e-01 -1.033328e+00 -1.071231e+00 -1.100575e+00 -1.132147e+00 -1.154809e+00 -1.179474e+00 -1.195004e+00 -1.212321e+00 -1.220411e+00 -1.230088e+00 -1.230582e+00 -1.232495e+00 -1.225397e+00 -1.219588e+00 -1.205063e+00 -1.191739e+00 -1.170104e+00 -1.149627e+00 -1.121337e+00 -1.094201e+00 -1.059827e+00 -1.026637e+00 -9.868431e-01 -9.482862e-01 -9.038013e-01 -8.606204e-01 -8.122112e-01 -7.651767e-01 -7.136235e-01 -6.635086e-01 -6.095833e-01 -5.571437e-01 -5.015918e-01 -4.475485e-01 
-3.916333e-01 -3.363646e-01 -2.793814e-01 -2.238269e-01 -1.672016e-01 -1.119255e-01 -5.620362e-02 -1.710686e-03 5.261949e-02 1.058819e-01 1.583869e-01 2.100255e-01 2.603233e-01 3.099949e-01 3.577509e-01 4.051574e-01 4.500812e-01 4.949654e-01 5.368069e-01 5.789481e-01 6.174945e-01 6.567051e-01 6.917787e-01 7.279003e-01 7.593559e-01 7.922562e-01 8.199791e-01 8.495488e-01 8.734523e-01 8.996019e-01 9.196251e-01 9.422814e-01 9.583860e-01 9.774883e-01 9.896557e-01 1.005153e+00 1.013380e+00 1.025225e+00 1.029521e+00 1.037671e+00 1.038054e+00 1.042462e+00 1.038954e+00 1.039573e+00 1.032198e+00 1.028975e+00 1.017757e+00 1.010636e+00 9.956001e-01 9.845221e-01 9.656909e-01 9.505994e-01 9.279984e-01 9.088427e-01 8.825031e-01 8.592450e-01 8.292091e-01 8.018306e-01 7.681575e-01 7.366687e-01 6.994426e-01 6.638907e-01 6.232278e-01 5.837054e-01 5.397627e-01 4.964162e-01 4.493985e-01 4.024353e-01 3.526022e-01 3.022971e-01 2.499689e-01 1.966688e-01 1.422300e-01 8.635710e-02 3.025927e-02 -2.768761e-02 -8.492524e-02 -1.443715e-01 -2.021637e-01 -2.624615e-01 -3.201609e-01 -3.805950e-01 -4.374979e-01 -4.972932e-01 -5.526490e-01 -6.109820e-01 -6.640050e-01 -7.200181e-01 -7.699024e-01 -8.227220e-01 -8.686605e-01 -9.174185e-01 -9.586240e-01 -1.002482e+00 -1.038212e+00 -1.076390e+00 -1.105971e+00 -1.137771e+00 -1.160627e+00 -1.185464e+00 -1.201139e+00 -1.218563e+00 -1.226740e+00 -1.236457e+00 -1.236976e+00 -1.238858e+00 -1.231723e+00 -1.225814e+00 -1.211191e+00 -1.197704e+00 -1.175914e+00 -1.155217e+00 -1.126724e+00 -1.099321e+00 -1.064705e+00 -1.031211e+00 -9.911459e-01 -9.522598e-01 -9.074843e-01 -8.639600e-01 -8.152508e-01 -7.678684e-01 -7.160146e-01 -6.655560e-01 -6.113368e-01 -5.585644e-01 -5.027310e-01 -4.483712e-01 
-3.922696e-01 -3.366765e-01 -2.793374e-01 -2.234942e-01 -1.665493e-01 -1.110202e-01 -5.501394e-02 -3.021253e-04 5.427893e-02 1.077288e-01 1.604536e-01 2.122515e-01 2.627408e-01 3.125468e-01 3.604688e-01 4.079882e-01 4.530548e-01 4.980336e-01 5.399968e-01 5.822174e-01 6.208665e-01 6.601438e-01 6.953026e-01 7.314809e-01 7.630058e-01 7.959552e-01 8.237328e-01 8.533464e-01 8.772917e-01 9.034824e-01 9.235362e-01 9.462329e-01 9.623588e-01 9.815034e-01 9.936846e-01 1.009228e+00 1.017463e+00 1.029360e+00 1.033661e+00 1.041870e+00 1.042255e+00 1.046730e+00 1.043224e+00 1.043917e+00 1.036543e+00 1.033402e+00 1.022185e+00 1.015149e+00 1.000112e+00 9.891214e-01 9.702847e-01 9.552784e-01 9.326652e-01 9.135871e-01 8.872251e-01 8.640316e-01 8.339586e-01 8.066255e-01 7.728961e-01 7.414277e-01 7.041210e-01 6.685584e-01 6.277861e-01 5.882167e-01 5.441314e-01 5.006968e-01 4.534996e-01 4.064036e-01 3.563513e-01 3.058661e-01 2.532771e-01 1.997481e-01 1.450064e-01 8.885544e-02 3.241342e-02 -2.585967e-02 -8.348085e-02 -1.432991e-01 -2.015108e-01 -2.622227e-01 -3.203726e-01 -3.812575e-01 -4.386355e-01 -4.989114e-01 -5.547586e-01 -6.135932e-01 -6.671139e-01 -7.236388e-01 -7.740156e-01 -8.273445e-01 -8.737568e-01 -9.230074e-01 -9.646536e-01 -1.008972e+00 -1.045094e+00 -1.083683e+00 -1.113594e+00 -1.145742e+00 -1.168851e+00 -1.193958e+00 -1.209798e+00 -1.227404e+00 -1.235651e+00 -1.245453e+00 -1.245943e+00 -1.247812e+00 -1.240550e+00 -1.234533e+00 -1.219690e+00 -1.206006e+00 -1.183916e+00 -1.162944e+00 -1.134082e+00 -1.106341e+00 -1.071304e+00 -1.037425e+00 -9.969030e-01 -9.576032e-01 -9.123513e-01 -8.684000e-01 -8.192102e-01 -7.714023e-01 -7.190771e-01 -6.682066e-01 -6.135357e-01 -5.603748e-01 -5.041172e-01 -4.493989e-01 
-3.933928e-01 -3.371903e-01 -2.793028e-01 -2.229021e-01 -1.654586e-01 -1.094248e-01 -5.297001e-02 2.194652e-03 5.717581e-02 1.110290e-01 1.641079e-01 2.162627e-01 2.670629e-01 3.171826e-01 3.653753e-01 4.131686e-01 4.584683e-01 5.036843e-01 5.458453e-01 5.882691e-01 6.270827e-01 6.665317e-01 7.018236e-01 7.381443e-01 7.697727e-01 8.028377e-01 8.306911e-01 8.603960e-01 8.843917e-01 9.106521e-01 9.307335e-01 9.534814e-01 9.696150e-01 9.887954e-01 1.000968e+00 1.016535e+00 1.024749e+00 1.036661e+00 1.040932e+00 1.049150e+00 1.049500e+00 1.053980e+00 1.050436e+00 1.051133e+00 1.043721e+00 1.040582e+00 1.029329e+00 1.022294e+00 1.007222e+00 9.962274e-01 9.773567e-01 9.623392e-01 9.396898e-01 9.205890e-01 8.941845e-01 8.709512e-01 8.408240e-01 8.134280e-01 7.796267e-01 7.480651e-01 7.106620e-01 6.749692e-01 6.340688e-01 5.943252e-01 5.500731e-01 5.064140e-01 4.590051e-01 4.116288e-01 3.613143e-01 3.104882e-01 2.575821e-01 2.036486e-01 1.485319e-01 9.191119e-02 3.503473e-02 -2.377334e-02 -8.188801e-02 -1.423044e-01 -2.010663e-01 -2.624353e-01 -3.211876e-01 -3.827815e-01 -4.408073e-01 -5.018344e-01 -5.583649e-01 -6.179798e-01 -6.722066e-01 -7.295248e-01 -7.806143e-01 -8.347301e-01 -8.818429e-01 -9.318515e-01 -9.741645e-01 -1.019188e+00 -1.055920e+00 -1.095136e+00 -1.125576e+00 -1.158248e+00 -1.181784e+00 -1.207290e+00 -1.223435e+00 -1.241298e+00 -1.249714e+00 -1.259621e+00 -1.260135e+00 -1.261951e+00 -1.254567e+00 -1.248343e+00 -1.233239e+00 -1.219205e+00 -1.196727e+00 -1.175280e+00 -1.145922e+00 -1.117601e+00 -1.081982e+00 -1.047446e+00 -1.006279e+00 -9.662690e-01 -9.203345e-01 -8.756457e-01 -8.257582e-01 -7.772080e-01 -7.241897e-01 -6.725915e-01 -6.172486e-01 -5.633896e-01 -5.064937e-01 -4.511181e-01 
-3.945489e-01 -3.377098e-01 -2.791648e-01 -2.221944e-01 -1.641597e-01 -1.076226e-01 -5.064145e-02 4.962908e-03 6.040911e-02 1.146430e-01 1.681302e-01 2.206123e-01 2.717687e-01 3.221683e-01 3.706698e-01 4.187013e-01 4.642667e-01 5.096846e-01 5.520719e-01 5.946660e-01 6.336697e-01 6.732620e-01 7.087103e-01 7.451515e-01 7.769052e-01 8.100717e-01 8.380219e-01 8.678133e-01 8.918801e-01 9.182161e-01 9.383460e-01 9.611627e-01 9.773258e-01 9.965726e-01 1.008759e+00 1.024394e+00 1.032611e+00 1.044597e+00 1.048863e+00 1.057162e+00 1.057503e+00 1.062076e+00 1.058521e+00 1.059321e+00 1.051899e+00 1.048871e+00 1.037608e+00 1.030692e+00 1.015609e+00 1.004735e+00 9.858488e-01 9.709469e-01 9.482730e-01 9.292745e-01 9.028300e-01 8.796761e-01 8.494860e-01 8.221360e-01 7.882401e-01 7.566807e-01 7.191423e-01 6.833972e-01 6.423120e-01 6.024520e-01 5.579572e-01 5.141092e-01 4.663923e-01 4.187476e-01 3.680542e-01 3.168754e-01 2.635156e-01 2.091417e-01 1.534946e-01 9.634511e-02 3.886202e-02 -2.056191e-02 -7.935669e-02 -1.404722e-01 -1.999825e-01 -2.621275e-01 -3.216884e-01 -3.841261e-01 -4.430096e-01 -5.049358e-01 -5.623590e-01 -6.229124e-01 -6.780493e-01 -7.363255e-01 -7.883215e-01 -8.433912e-01 -8.913824e-01 -9.423139e-01 -9.854502e-01 -1.031336e+00 -1.068808e+00 -1.108795e+00 -1.139863e+00 -1.173185e+00 -1.197210e+00 -1.223219e+00 -1.239692e+00 -1.257888e+00 -1.266456e+00 -1.276513e+00 -1.276994e+00 -1.278773e+00 -1.271173e+00 -1.264728e+00 -1.249236e+00 -1.234811e+00 -1.211791e+00 -1.189805e+00 -1.159775e+00 -1.130796e+00 -1.094405e+00 -1.059122e+00 -1.017116e+00 -9.763033e-01 -9.294922e-01 -8.839754e-01 -8.332028e-01 -7.838272e-01 -7.299400e-01 -6.775419e-01 -6.213660e-01 -5.667507e-01 -5.090724e-01 -4.529966e-01 
-3.961421e-01 -3.383772e-01 -2.789790e-01 -2.211671e-01 -1.623605e-01 -1.050669e-01 -4.739419e-02 8.884578e-03 6.494527e-02 1.197761e-01 1.738055e-01 2.268129e-01 2.784445e-01 3.293036e-01 3.782183e-01 4.266494e-01 4.725705e-01 5.183332e-01 5.610225e-01 6.039113e-01 6.431664e-01 6.830073e-01 7.186593e-01 7.553067e-01 7.872191e-01 8.205533e-01 8.486200e-01 8.785446e-01 9.026891e-01 9.291281e-01 9.493010e-01 9.721955e-01 9.883716e-01 1.007676e+00 1.019851e+00 1.035529e+00 1.043716e+00 1.055734e+00 1.059957e+00 1.068285e+00 1.068575e+00 1.073175e+00 1.069567e+00 1.070395e+00 1.062921e+00 1.059924e+00 1.048612e+00 1.041726e+00 1.026597e+00 1.015751e+00 9.968202e-01 9.819366e-01 9.592149e-01 9.402180e-01 9.137155e-01 8.905372e-01 8.602701e-01 8.328590e-01 7.988570e-01 7.671882e-01 7.295033e-01 6.935891e-01 6.523054e-01 6.122052e-01 5.674489e-01 5.232791e-01 4.752274e-01 4.271704e-01 3.760602e-01 3.243711e-01 2.705058e-01 2.155188e-01 1.592731e-01 1.014048e-01 4.322799e-02 -1.702027e-02 -7.660304e-02 -1.386453e-01 -1.990340e-01 -2.622016e-01 -3.227240e-01 -3.862695e-01 -4.461867e-01 -5.092909e-01 -5.678046e-01 -6.295861e-01 -6.858499e-01 -7.453790e-01 -7.985130e-01 -8.548296e-01 -9.039397e-01 -9.560766e-01 -1.000278e+00 -1.047289e+00 -1.085734e+00 -1.126724e+00 -1.158636e+00 -1.192800e+00 -1.217503e+00 -1.244156e+00 -1.261110e+00 -1.279724e+00 -1.288551e+00 -1.298781e+00 -1.299287e+00 -1.300986e+00 -1.293176e+00 -1.286404e+00 -1.270476e+00 -1.255497e+00 -1.231837e+00 -1.209098e+00 -1.178257e+00 -1.148362e+00 -1.111024e+00 -1.074704e+00 -1.031656e+00 -9.897266e-01 -9.418184e-01 -8.951474e-01 -8.432593e-01 -7.927278e-01 -7.377386e-01 -6.842136e-01 -6.269752e-01 -5.712853e-01 -5.126032e-01 -4.555220e-01 
-3.976891e-01 -3.389723e-01 -2.786138e-01 -2.199512e-01 -1.602837e-01 -1.022393e-01 -4.380164e-02 1.313300e-02 6.986842e-02 1.252678e-01 1.798888e-01 2.333858e-01 2.855334e-01 3.368123e-01 3.861744e-01 4.349637e-01 4.812698e-01 5.273367e-01 5.703537e-01 6.134995e-01 6.530292e-01 6.930859e-01 7.289631e-01 7.657906e-01 7.978818e-01 8.313658e-01 8.595687e-01 8.896182e-01 9.138600e-01 9.404050e-01 9.606407e-01 9.836283e-01 9.998382e-01 1.019229e+00 1.031415e+00 1.047179e+00 1.055359e+00 1.067469e+00 1.071675e+00 1.080104e+00 1.080372e+00 1.085088e+00 1.081456e+00 1.082416e+00 1.074920e+00 1.072069e+00 1.060738e+00 1.054008e+00 1.038862e+00 1.028175e+00 1.009224e+00 9.944950e-01 9.717429e-01 9.528824e-01 9.263303e-01 9.032565e-01 8.729092e-01 8.455554e-01 8.114295e-01 7.797551e-01 7.418891e-01 7.058907e-01 6.643550e-01 6.240776e-01 5.789855e-01 5.345330e-01 4.860505e-01 4.375947e-01 3.859499e-01 3.337384e-01 2.792282e-01 2.235904e-01 1.665863e-01 1.079372e-01 4.888849e-02 -1.226902e-02 -7.283376e-02 -1.359087e-01 -1.973825e-01 -2.616974e-01 -3.233972e-01 -3.881920e-01 -4.493637e-01 -5.138015e-01 -5.736268e-01 -6.368034e-01 -6.944108e-01 -7.553676e-01 -8.098465e-01 -8.675887e-01 -9.180086e-01 -9.715285e-01 -1.016964e+00 -1.065270e+00 -1.104831e+00 -1.146982e+00 -1.179846e+00 -1.214989e+00 -1.240439e+00 -1.267849e+00 -1.285309e+00 -1.304423e+00 -1.313491e+00 -1.323942e+00 -1.324410e+00 -1.326043e+00 -1.317917e+00 -1.310799e+00 -1.294294e+00 -1.278709e+00 -1.254239e+00 -1.230670e+00 -1.198824e+00 -1.167920e+00 -1.129429e+00 -1.091967e+00 -1.047666e+00 -1.004514e+00 -9.553005e-01 -9.073728e-01 -8.541704e-01 -8.023903e-01 -7.461150e-01 -6.913842e-01 -6.329170e-01 -5.760905e-01 -5.162581e-01 -4.581274e-01 
-3.995941e-01 -3.396300e-01 -2.781109e-01 -2.183225e-01 -1.576107e-01 -9.856055e-02 -3.919189e-02 1.863402e-02 7.619359e-02 1.323778e-01 1.877239e-01 2.419086e-01 2.946906e-01 3.465691e-01 3.964824e-01 4.457917e-01 4.925724e-01 5.390871e-01 5.825072e-01 6.260350e-01 6.659004e-01 7.062787e-01 7.424275e-01 7.795212e-01 8.118234e-01 8.455232e-01 8.738799e-01 9.041001e-01 9.284430e-01 9.551194e-01 9.754089e-01 9.984956e-01 1.014718e+00 1.034183e+00 1.046349e+00 1.062169e+00 1.070304e+00 1.082462e+00 1.086604e+00 1.095078e+00 1.095275e+00 1.100037e+00 1.096333e+00 1.097345e+00 1.089781e+00 1.086989e+00 1.075597e+00 1.068932e+00 1.053731e+00 1.043109e+00 1.024107e+00 1.009433e+00 9.866286e-01 9.678034e-01 9.411865e-01 9.181143e-01 8.876774e-01 8.602758e-01 8.260207e-01 7.942325e-01 7.561813e-01 7.199863e-01 6.781929e-01 6.376197e-01 5.921813e-01 5.473188e-01 4.983870e-01 4.493941e-01 3.971846e-01 3.442986e-01 2.890990e-01 2.326420e-01 1.748175e-01 1.152005e-01 5.519797e-02 -7.076350e-03 -6.872750e-02 -1.330643e-01 -1.957520e-01 -2.614655e-01 -3.244971e-01 -3.908136e-01 -4.534203e-01 -5.194830e-01 -5.808261e-01 -6.457039e-01 -7.048844e-01 -7.675844e-01 -8.236568e-01 -8.831417e-01 -9.351333e-01 -9.903452e-01 -1.037282e+00 -1.087173e+00 -1.128110e+00 -1.171681e+00 -1.205739e+00 -1.242078e+00 -1.268489e+00 -1.296817e+00 -1.314957e+00 -1.334668e+00 -1.344099e+00 -1.354797e+00 -1.355293e+00 -1.356813e+00 -1.348376e+00 -1.340795e+00 -1.323657e+00 -1.307285e+00 -1.281893e+00 -1.257256e+00 -1.224246e+00 -1.192047e+00 -1.152205e+00 -1.113283e+00 -1.067503e+00 -1.022788e+00 -9.720262e-01 -9.224911e-01 -8.677234e-01 -8.143435e-01 -7.565315e-01 -7.002508e-01 -6.403113e-01 -5.820170e-01 -5.208024e-01 -4.613079e-01 
-4.013360e-01 -3.401009e-01 -2.773178e-01 -2.163992e-01 -1.545597e-01 -9.451647e-02 -3.415002e-02 2.454049e-02 8.297731e-02 1.399091e-01 1.960229e-01 2.508507e-01 3.043016e-01 3.567312e-01 4.072244e-01 4.570042e-01 5.042840e-01 5.511985e-01 5.950435e-01 6.389089e-01 6.791299e-01 7.197909e-01 7.562303e-01 7.935584e-01 8.260896e-01 8.599821e-01 8.885103e-01 9.188882e-01 9.433498e-01 9.701565e-01 9.905180e-01 1.013716e+00 1.029971e+00 1.049536e+00 1.061702e+00 1.077621e+00 1.085734e+00 1.097997e+00 1.102104e+00 1.110697e+00 1.110852e+00 1.115754e+00 1.112009e+00 1.113183e+00 1.105585e+00 1.102976e+00 1.091558e+00 1.085093e+00 1.069872e+00 1.059459e+00 1.040439e+00 1.025970e+00 1.003138e+00 9.844975e-01 9.578327e-01 9.349053e-01 9.043838e-01 8.770665e-01 8.426720e-01 8.108859e-01 7.726213e-01 7.363246e-01 6.942247e-01 6.534263e-01 6.075703e-01 5.623415e-01 5.128652e-01 4.633508e-01 4.104571e-01 3.568838e-01 3.008514e-01 2.435347e-01 1.847239e-01 1.240724e-01 6.292937e-02 -5.525595e-04 -6.349453e-02 -1.292062e-01 -1.933266e-01 -2.605716e-01 -3.251646e-01 -3.931533e-01 -4.574312e-01 -5.252849e-01 -5.883837e-01 -6.551420e-01 -7.161303e-01 -7.807626e-01 -8.386543e-01 -9.000767e-01 -9.538505e-01 -1.010950e+00 -1.059576e+00 -1.111243e+00 -1.153714e+00 -1.198881e+00 -1.234257e+00 -1.271948e+00 -1.299398e+00 -1.328771e+00 -1.347621e+00 -1.368021e+00 -1.377795e+00 -1.388793e+00 -1.389245e+00 -1.390662e+00 -1.381795e+00 -1.373719e+00 -1.355787e+00 -1.338561e+00 -1.312052e+00 -1.286251e+00 -1.251858e+00 -1.218248e+00 -1.176823e+00 -1.136315e+00 -1.088820e+00 -1.042415e+00 -9.898754e-01 -9.386129e-01 -8.820647e-01 -8.269784e-01 -7.674337e-01 -7.095149e-01 -6.479297e-01 -5.881004e-01 -5.253544e-01 -4.644509e-01 
-4.033213e-01 -3.405128e-01 -2.762600e-01 -2.139325e-01 -1.507796e-01 -8.948696e-02 -2.795633e-02 3.183422e-02 9.129694e-02 1.491922e-01 2.062060e-01 2.618745e-01 3.161114e-01 3.692722e-01 4.204482e-01 4.708611e-01 5.187290e-01 5.661882e-01 6.105331e-01 6.548625e-01 6.954999e-01 7.365507e-01 7.733264e-01 8.109759e-01 8.437667e-01 8.779176e-01 9.066327e-01 9.372126e-01 9.617934e-01 9.887532e-01 1.009173e+00 1.032483e+00 1.048744e+00 1.068392e+00 1.080520e+00 1.096503e+00 1.104546e+00 1.116863e+00 1.120880e+00 1.129528e+00 1.129585e+00 1.134549e+00 1.130708e+00 1.131957e+00 1.124271e+00 1.121753e+00 1.110260e+00 1.103899e+00 1.088618e+00 1.078314e+00 1.059244e+00 1.044879e+00 1.021999e+00 1.003441e+00 9.767176e-01 9.538334e-01 9.232244e-01 8.958894e-01 8.613586e-01 8.294712e-01 7.909993e-01 7.544948e-01 7.120939e-01 6.709590e-01 6.246865e-01 5.789724e-01 5.289444e-01 4.787785e-01 4.251816e-01 3.707768e-01 3.138771e-01 2.555391e-01 1.956889e-01 1.338207e-01 7.146241e-02 6.567382e-03 -5.776455e-02 -1.250817e-01 -1.907610e-01 -2.597944e-01 -3.261040e-01 -3.960480e-01 -4.621829e-01 -5.321352e-01 -5.972065e-01 -6.661738e-01 -7.292161e-01 -7.961244e-01 -8.561074e-01 -9.198182e-01 -9.756655e-01 -1.035000e+00 -1.085616e+00 -1.139388e+00 -1.183693e+00 -1.230755e+00 -1.267731e+00 -1.307024e+00 -1.335764e+00 -1.366371e+00 -1.386136e+00 -1.407341e+00 -1.417602e+00 -1.428933e+00 -1.429416e+00 -1.430680e+00 -1.421386e+00 -1.412682e+00 -1.393887e+00 -1.375597e+00 -1.347837e+00 -1.320598e+00 -1.284633e+00 -1.249289e+00 -1.206050e+00 -1.163597e+00 -1.114129e+00 -1.065655e+00 -1.011062e+00 -9.576870e-01 -8.990783e-01 -8.419058e-01 -7.803538e-01 -7.204301e-01 -6.569369e-01 -5.952246e-01 -5.307016e-01 -4.680633e-01 
-4.049830e-01 -3.405811e-01 -2.747615e-01 -2.110282e-01 -1.464870e-01 -8.396764e-02 -2.121589e-02 3.963657e-02 1.001682e-01 1.589777e-01 2.169241e-01 2.733769e-01 3.284256e-01 3.822575e-01 4.341377e-01 4.851234e-01 5.335981e-01 5.815442e-01 6.264062e-01 6.711465e-01 7.122166e-01 7.536103e-01 7.907382e-01 8.286699e-01 8.617358e-01 8.961155e-01 9.250325e-01 9.557956e-01 9.805107e-01 1.007617e+00 1.028110e+00 1.051541e+00 1.067824e+00 1.087577e+00 1.099688e+00 1.115772e+00 1.123769e+00 1.136198e+00 1.140153e+00 1.148931e+00 1.148921e+00 1.154045e+00 1.150142e+00 1.151584e+00 1.143849e+00 1.141557e+00 1.130032e+00 1.123924e+00 1.108627e+00 1.098593e+00 1.079515e+00 1.065422e+00 1.042531e+00 1.024225e+00 9.974708e-01 9.747928e-01 9.441126e-01 9.169107e-01 8.822441e-01 8.503876e-01 8.116894e-01 7.750855e-01 7.323418e-01 6.909508e-01 6.441948e-01 5.980451e-01 5.473715e-01 4.965718e-01 4.421501e-01 3.868997e-01 3.289841e-01 2.695801e-01 2.085160e-01 1.453582e-01 8.158689e-02 1.517999e-02 -5.076003e-02 -1.198047e-01 -1.872777e-01 -2.582424e-01 -3.265163e-01 -3.985775e-01 -4.668255e-01 -5.390554e-01 -6.063590e-01 -6.777298e-01 -7.430845e-01 -8.124762e-01 -8.748016e-01 -9.410171e-01 -9.991748e-01 -1.060964e+00 -1.113785e+00 -1.169879e+00 -1.216202e+00 -1.265363e+00 -1.304082e+00 -1.345158e+00 -1.375284e+00 -1.407273e+00 -1.427991e+00 -1.450105e+00 -1.460832e+00 -1.472553e+00 -1.472985e+00 -1.474100e+00 -1.464239e+00 -1.454861e+00 -1.435013e+00 -1.415569e+00 -1.386330e+00 -1.357528e+00 -1.319736e+00 -1.282510e+00 -1.237187e+00 -1.192632e+00 -1.140921e+00 -1.090222e+00 -1.033318e+00 -9.776867e-01 -9.167806e-01 -8.573967e-01 -7.936264e-01 -7.315974e-01 -6.660144e-01 -6.023459e-01 -5.358942e-01 -4.714751e-01 
-4.067295e-01 -3.404252e-01 -2.728281e-01 -2.074076e-01 -1.412912e-01 -7.728871e-02 -1.315045e-02 4.899793e-02 1.107449e-01 1.706828e-01 2.296919e-01 2.871255e-01 3.431012e-01 3.977843e-01 4.504702e-01 5.021924e-01 5.513624e-01 5.999422e-01 6.453963e-01 6.906762e-01 7.322398e-01 7.740859e-01 8.116115e-01 8.499138e-01 8.832842e-01 9.179586e-01 9.470904e-01 9.780794e-01 1.002925e+00 1.030197e+00 1.050744e+00 1.074292e+00 1.090563e+00 1.110397e+00 1.122442e+00 1.138586e+00 1.146478e+00 1.158958e+00 1.162785e+00 1.171621e+00 1.171475e+00 1.176671e+00 1.172639e+00 1.174178e+00 1.166331e+00 1.164163e+00 1.152551e+00 1.146592e+00 1.131233e+00 1.121364e+00 1.102246e+00 1.088319e+00 1.065400e+00 1.047242e+00 1.020452e+00 9.978796e-01 9.671344e-01 9.399674e-01 9.051796e-01 8.732573e-01 8.343523e-01 7.975515e-01 7.544852e-01 7.127373e-01 6.655139e-01 6.188209e-01 5.675097e-01 5.159579e-01 4.607068e-01 4.044778e-01 3.455251e-01 2.849031e-01 2.225841e-01 1.579615e-01 9.271266e-02 2.459240e-02 -4.304707e-02 -1.140502e-01 -1.834385e-01 -2.565972e-01 -3.269902e-01 -4.014639e-01 -4.720159e-01 -5.468509e-01 -6.166157e-01 -6.907465e-01 -7.586803e-01 -8.309356e-01 -8.959052e-01 -9.650206e-01 -1.025819e+00 -1.090461e+00 -1.145835e+00 -1.204636e+00 -1.253327e+00 -1.304940e+00 -1.345739e+00 -1.388900e+00 -1.420712e+00 -1.454314e+00 -1.476231e+00 -1.499398e+00 -1.510765e+00 -1.522920e+00 -1.523391e+00 -1.524299e+00 -1.513870e+00 -1.503660e+00 -1.482672e+00 -1.461827e+00 -1.430942e+00 -1.400255e+00 -1.360404e+00 -1.320919e+00 -1.273235e+00 -1.226164e+00 -1.171903e+00 -1.118550e+00 -1.059016e+00 -1.000698e+00 -9.371761e-01 -8.751640e-01 -8.088696e-01 -7.443402e-01 -6.763813e-01 -6.103887e-01 -5.417464e-01 -4.752081e-01 
-4.079398e-01 -3.397199e-01 -2.702578e-01 -2.031644e-01 -1.354105e-01 -6.996174e-02 -4.393966e-03 5.899652e-02 1.219879e-01 1.829888e-01 2.430804e-01 3.014225e-01 3.583399e-01 4.137994e-01 4.673032e-01 5.196884e-01 5.695652e-01 6.187089e-01 6.647670e-01 7.105229e-01 7.525923e-01 7.948344e-01 8.327703e-01 8.713956e-01 9.050831e-01 9.400145e-01 9.693735e-01 1.000562e+00 1.025550e+00 1.052974e+00 1.073588e+00 1.097254e+00 1.113527e+00 1.133459e+00 1.145455e+00 1.161693e+00 1.169503e+00 1.182089e+00 1.185815e+00 1.194785e+00 1.194537e+00 1.199908e+00 1.195786e+00 1.197547e+00 1.189635e+00 1.187739e+00 1.176090e+00 1.170448e+00 1.155081e+00 1.145561e+00 1.126458e+00 1.112891e+00 1.089993e+00 1.072179e+00 1.045397e+00 1.023120e+00 9.923414e-01 9.653850e-01 9.304907e-01 8.986566e-01 8.595380e-01 8.226663e-01 7.792451e-01 7.372332e-01 6.894815e-01 6.423021e-01 5.902611e-01 5.379770e-01 4.817725e-01 4.245482e-01 3.644030e-01 3.025122e-01 2.387530e-01 1.725841e-01 1.056455e-01 3.570268e-02 -3.387163e-02 -1.069668e-01 -1.785249e-01 -2.540326e-01 -3.268144e-01 -4.038756e-01 -4.770121e-01 -5.546461e-01 -6.271588e-01 -7.042618e-01 -7.750628e-01 -8.504110e-01 -9.183080e-01 -9.905667e-01 -1.054277e+00 -1.122023e+00 -1.180201e+00 -1.241961e+00 -1.293239e+00 -1.347545e+00 -1.390597e+00 -1.436061e+00 -1.469676e+00 -1.505069e+00 -1.528236e+00 -1.552583e+00 -1.564568e+00 -1.577221e+00 -1.577635e+00 -1.578333e+00 -1.567169e+00 -1.556061e+00 -1.533703e+00 -1.511333e+00 -1.478525e+00 -1.445788e+00 -1.403573e+00 -1.361636e+00 -1.311272e+00 -1.261484e+00 -1.204360e+00 -1.148157e+00 -1.085698e+00 -1.024517e+00 -9.581145e-01 -8.933255e-01 -8.242779e-01 -7.571328e-01 -6.866074e-01 -6.182108e-01 -5.472251e-01 -4.785225e-01 
-4.090221e-01 -3.385721e-01 -2.670310e-01 -1.979832e-01 -1.284058e-01 -6.125736e-02 5.901742e-03 7.076436e-02 1.351420e-01 1.974166e-01 2.587163e-01 3.181614e-01 3.761324e-01 4.325479e-01 4.869697e-01 5.401830e-01 5.908550e-01 6.407126e-01 6.874506e-01 7.338150e-01 7.764523e-01 8.192034e-01 8.575960e-01 8.966353e-01 9.306688e-01 9.659241e-01 9.955204e-01 1.026950e+00 1.052072e+00 1.079664e+00 1.100317e+00 1.124091e+00 1.140321e+00 1.160319e+00 1.172207e+00 1.188486e+00 1.196140e+00 1.208761e+00 1.212306e+00 1.221324e+00 1.220889e+00 1.226336e+00 1.222041e+00 1.223918e+00 1.215862e+00 1.214126e+00 1.202374e+00 1.196935e+00 1.181509e+00 1.172225e+00 1.153101e+00 1.139785e+00 1.116892e+00 1.099318e+00 1.072545e+00 1.050465e+00 1.019670e+00 9.928311e-01 9.578602e-01 9.260258e-01 8.867311e-01 8.497022e-01 8.059656e-01 7.636025e-01 7.153585e-01 6.676002e-01 6.148566e-01 5.617376e-01 5.045934e-01 4.462559e-01 3.849139e-01 3.216160e-01 2.563908e-01 1.885112e-01 1.198318e-01 4.787184e-02 -2.371765e-02 -9.913398e-02 -1.729756e-01 -2.511000e-01 -3.264221e-01 -4.063793e-01 -4.822946e-01 -5.630776e-01 -6.385793e-01 -7.190449e-01 -7.930031e-01 -8.718697e-01 -9.430321e-01 -1.018886e+00 -1.085888e+00 -1.157203e+00 -1.218594e+00 -1.283771e+00 -1.338057e+00 -1.395484e+00 -1.441200e+00 -1.489336e+00 -1.525127e+00 -1.562598e+00 -1.587321e+00 -1.613029e+00 -1.625848e+00 -1.639060e+00 -1.639524e+00 -1.639944e+00 -1.628041e+00 -1.615841e+00 -1.591999e+00 -1.567802e+00 -1.532860e+00 -1.497681e+00 -1.452813e+00 -1.407971e+00 -1.354587e+00 -1.301594e+00 -1.241236e+00 -1.181685e+00 -1.115924e+00 -1.051392e+00 -9.817422e-01 -9.137136e-01 -8.415683e-01 -7.713787e-01 -6.979729e-01 -6.267821e-01 -5.531729e-01 -4.819548e-01 
-4.092927e-01 -3.366105e-01 -2.629183e-01 -1.919467e-01 -1.205020e-01 -5.171009e-02 1.706400e-02 8.332392e-02 1.490983e-01 2.125599e-01 2.750710e-01 3.355266e-01 3.945519e-01 4.518305e-01 5.071713e-01 5.611232e-01 6.125937e-01 6.630817e-01 7.105057e-01 7.574030e-01 8.006165e-01 8.438099e-01 8.826687e-01 9.220647e-01 9.564539e-01 9.919862e-01 1.021829e+00 1.053464e+00 1.078728e+00 1.106466e+00 1.127167e+00 1.151042e+00 1.167239e+00 1.187311e+00 1.199105e+00 1.215453e+00 1.222971e+00 1.235679e+00 1.239068e+00 1.248211e+00 1.247624e+00 1.253253e+00 1.248829e+00 1.250957e+00 1.242811e+00 1.241400e+00 1.229606e+00 1.224560e+00 1.209144e+00 1.200306e+00 1.181234e+00 1.168392e+00 1.145576e+00 1.128470e+00 1.101771e+00 1.080111e+00 1.049352e+00 1.022839e+00 9.878246e-01 9.561723e-01 9.167110e-01 8.796735e-01 8.356019e-01 7.929962e-01 7.442069e-01 6.959349e-01 6.423995e-01 5.884667e-01 5.302559e-01 4.707838e-01 4.080812e-01 3.433159e-01 2.764259e-01 2.067418e-01 1.360916e-01 6.199156e-02 -1.186973e-02 -8.975459e-02 -1.661584e-01 -2.470681e-01 -3.252267e-01 -4.082686e-01 -4.872721e-01 -5.714135e-01 -6.502228e-01 -7.342822e-01 -8.117211e-01 -8.943600e-01 -9.691107e-01 -1.048835e+00 -1.119444e+00 -1.194620e+00 -1.259520e+00 -1.328414e+00 -1.385972e+00 -1.446813e+00 -1.495408e+00 -1.546484e+00 -1.584602e+00 -1.624373e+00 -1.650723e+00 -1.677948e+00 -1.691580e+00 -1.705427e+00 -1.705827e+00 -1.705959e+00 -1.693110e+00 -1.679723e+00 -1.654113e+00 -1.627921e+00 -1.590503e+00 -1.552661e+00 -1.504763e+00 -1.456765e+00 -1.399974e+00 -1.343516e+00 -1.279552e+00 -1.216406e+00 -1.147001e+00 -1.078900e+00 -1.005703e+00 -9.342569e-01 -8.587640e-01 -7.853979e-01 -7.089125e-01 -6.348420e-01 -5.584585e-01 -4.846836e-01 
-4.091540e-01 -3.339239e-01 -2.578666e-01 -1.846942e-01 -1.112015e-01 -4.052028e-02 3.002287e-02 9.790207e-02 1.652070e-01 2.300597e-01 2.939008e-01 3.555573e-01 4.157443e-01 4.740649e-01 5.304229e-01 5.852809e-01 6.376390e-01 6.889121e-01 7.371004e-01 7.846696e-01 8.285244e-01 8.722793e-01 9.116531e-01 9.515016e-01 9.862761e-01 1.022154e+00 1.052252e+00 1.084132e+00 1.109526e+00 1.137420e+00 1.158133e+00 1.182091e+00 1.198199e+00 1.218303e+00 1.229926e+00 1.246277e+00 1.253568e+00 1.266277e+00 1.269411e+00 1.278577e+00 1.277732e+00 1.283429e+00 1.278772e+00 1.281029e+00 1.272697e+00 1.271485e+00 1.259569e+00 1.254790e+00 1.239321e+00 1.230808e+00 1.211749e+00 1.199266e+00 1.176512e+00 1.159767e+00 1.133153e+00 1.111816e+00 1.081126e+00 1.054851e+00 1.019844e+00 9.882954e-01 9.487281e-01 9.116104e-01 8.672681e-01 8.243505e-01 7.750767e-01 7.262188e-01 6.719427e-01 6.171144e-01 5.578730e-01 4.971690e-01 4.331221e-01 3.667697e-01 2.982078e-01 2.265706e-01 1.539155e-01 7.749199e-02 1.293681e-03 -7.928371e-02 -1.583511e-01 -2.423160e-01 -3.234550e-01 -4.099021e-01 -4.921876e-01 -5.800618e-01 -6.624299e-01 -7.505117e-01 -8.317460e-01 -9.186375e-01 -9.973564e-01 -1.081475e+00 -1.156131e+00 -1.235718e+00 -1.304617e+00 -1.377781e+00 -1.439128e+00 -1.503910e+00 -1.555896e+00 -1.610377e+00 -1.651291e+00 -1.693729e+00 -1.722096e+00 -1.751073e+00 -1.765794e+00 -1.780356e+00 -1.780829e+00 -1.780588e+00 -1.766781e+00 -1.751966e+00 -1.724433e+00 -1.695866e+00 -1.655693e+00 -1.614704e+00 -1.563406e+00 -1.511696e+00 -1.451069e+00 -1.390560e+00 -1.322534e+00 -1.255207e+00 -1.181705e+00 -1.109476e+00 -1.032302e+00 -9.569204e-01 -8.776891e-01 -8.006796e-01 -7.207692e-01 -6.434059e-01 -5.639498e-01 -4.872565e-01 