# vtk DataFile Version 2.0
Comment goes here
ASCII

DATASET STRUCTURED_POINTS
FIELD FieldData 1
TIME 1 1 double
0.20000000
DIMENSIONS    128   128   1

ORIGIN    0.000   0.000   0.000
SPACING   0.039062 0.039062   1.000

POINT_DATA   16384
SCALARS uX double
LOOKUP_TABLE default

-1.016293e-01 -9.183269e-02 -8.372338e-02 -7.315153e-02 -6.416107e-02 -5.297171e-02 -4.325770e-02 -3.162911e-02 -2.136967e-02 -9.496970e-03 1.113736e-03 1.302306e-02 2.377995e-02 3.551132e-02 4.620415e-02 5.754177e-02 6.796146e-02 7.869472e-02 8.863982e-02 9.856989e-02 1.078531e-01 1.167994e-01 1.252536e-01 1.330597e-01 1.405436e-01 1.470823e-01 1.534842e-01 1.586615e-01 1.639024e-01 1.676595e-01 1.716945e-01 1.740093e-01 1.768271e-01 1.777127e-01 1.793342e-01 1.788371e-01 1.793119e-01 1.775085e-01 1.769112e-01 1.739032e-01 1.723283e-01 1.682379e-01 1.657949e-01 1.607589e-01 1.575669e-01 1.517315e-01 1.479142e-01 1.414296e-01 1.371108e-01 1.301262e-01 1.254258e-01 1.180850e-01 1.131158e-01 1.055538e-01 1.004188e-01 9.275877e-02 8.754952e-02 7.990026e-02 7.469556e-02 6.715040e-02 6.201558e-02 5.465130e-02 4.963789e-02 4.251442e-02 3.766011e-02 3.082068e-02 2.614941e-02 1.962112e-02 1.514335e-02 8.938042e-03 4.651040e-03 -1.233429e-03 -5.345044e-03 -1.092328e-02 -1.488683e-02 -2.018400e-02 -2.403758e-02 -2.908714e-02 -3.287797e-02 -3.771899e-02 -4.150098e-02 -4.617510e-02 -5.000569e-02 -5.455358e-02 -5.848976e-02 -6.294743e-02 -6.704103e-02 -7.143592e-02 -7.572852e-02 -8.007573e-02 -8.459347e-02 -8.889241e-02 -9.364120e-02 -9.787295e-02 -1.028346e-01 -1.069603e-01 -1.120899e-01 -1.160504e-01 -1.212757e-01 -1.249924e-01 -1.302151e-01 -1.335927e-01 -1.386910e-01 -1.416208e-01 -1.464550e-01 -1.488199e-01 -1.532381e-01 -1.549179e-01 -1.587635e-01 -1.596405e-01 -1.627593e-01 -1.627241e-01 -1.649717e-01 -1.639284e-01 -1.651767e-01 -1.630477e-01 -1.631904e-01 -1.599200e-01 -1.588770e-01 -1.544345e-01 -1.521553e-01 -1.465367e-01 -1.430021e-01 -1.362317e-01 -1.314548e-01 -1.235854e-01 -1.176113e-01 -1.087241e-01 
-1.019452e-01 -9.211983e-02 -8.400072e-02 -7.339768e-02 -6.439223e-02 -5.316970e-02 -4.343623e-02 -3.177302e-02 -2.149048e-02 -9.582316e-03 1.054186e-03 1.299914e-02 2.378348e-02 3.554990e-02 4.627075e-02 5.764207e-02 6.808918e-02 7.885401e-02 8.882482e-02 9.878358e-02 1.080897e-01 1.170611e-01 1.255346e-01 1.333618e-01 1.408604e-01 1.474156e-01 1.538272e-01 1.590162e-01 1.642614e-01 1.680256e-01 1.720595e-01 1.743767e-01 1.771881e-01 1.780718e-01 1.796821e-01 1.791793e-01 1.796386e-01 1.778263e-01 1.772100e-01 1.741904e-01 1.725940e-01 1.684899e-01 1.660237e-01 1.609726e-01 1.577567e-01 1.519053e-01 1.480644e-01 1.415632e-01 1.372220e-01 1.302208e-01 1.255000e-01 1.181428e-01 1.131559e-01 1.055779e-01 1.004286e-01 9.275284e-02 8.753317e-02 7.986862e-02 7.465780e-02 6.709765e-02 6.196131e-02 5.458224e-02 4.957211e-02 4.243391e-02 3.758778e-02 3.073355e-02 2.607537e-02 1.953211e-02 1.507219e-02 8.851716e-03 4.587098e-03 -1.312746e-03 -5.397850e-03 -1.099160e-02 -1.492508e-02 -2.023779e-02 -2.405850e-02 -2.912350e-02 -3.287960e-02 -3.773583e-02 -4.148240e-02 -4.617138e-02 -4.996717e-02 -5.452952e-02 -5.843296e-02 -6.290468e-02 -6.696912e-02 -7.137770e-02 -7.564620e-02 -8.000684e-02 -8.450689e-02 -8.881910e-02 -9.355770e-02 -9.780267e-02 -1.027624e-01 -1.069012e-01 -1.120375e-01 -1.160110e-01 -1.212515e-01 -1.249810e-01 -1.302266e-01 -1.336164e-01 -1.387444e-01 -1.416855e-01 -1.465548e-01 -1.489296e-01 -1.533867e-01 -1.550743e-01 -1.589608e-01 -1.598432e-01 -1.630031e-01 -1.629703e-01 -1.652575e-01 -1.642134e-01 -1.654983e-01 -1.633649e-01 -1.635400e-01 -1.602614e-01 -1.592457e-01 -1.547911e-01 -1.525333e-01 -1.468990e-01 -1.433794e-01 -1.365897e-01 -1.318213e-01 -1.239291e-01 -1.179572e-01 -1.090440e-01 
-1.025920e-01 -9.272825e-02 -8.455224e-02 -7.390151e-02 -6.483223e-02 -5.355372e-02 -4.375065e-02 -3.202448e-02 -2.166795e-02 -9.691493e-03 1.021756e-03 1.303839e-02 2.390039e-02 3.573967e-02 4.653706e-02 5.797999e-02 6.850041e-02 7.933310e-02 8.937184e-02 9.939223e-02 1.087590e-01 1.177835e-01 1.263085e-01 1.341782e-01 1.417179e-01 1.483037e-01 1.547450e-01 1.599516e-01 1.652149e-01 1.689833e-01 1.730239e-01 1.753321e-01 1.781395e-01 1.790018e-01 1.805984e-01 1.800631e-01 1.805007e-01 1.786463e-01 1.780017e-01 1.749326e-01 1.733030e-01 1.691440e-01 1.666414e-01 1.615322e-01 1.582783e-01 1.523677e-01 1.484884e-01 1.419291e-01 1.375502e-01 1.304935e-01 1.257366e-01 1.183282e-01 1.133074e-01 1.056838e-01 1.005029e-01 9.278830e-02 8.753959e-02 7.984359e-02 7.460617e-02 6.702255e-02 6.186192e-02 5.446762e-02 4.943534e-02 4.229022e-02 3.742391e-02 3.057091e-02 2.589440e-02 1.936016e-02 1.488372e-02 8.679463e-03 4.400136e-03 -1.477066e-03 -5.575046e-03 -1.114074e-02 -1.508526e-02 -2.036574e-02 -2.419575e-02 -2.922581e-02 -3.298971e-02 -3.780997e-02 -4.156326e-02 -4.621707e-02 -5.001919e-02 -5.454911e-02 -5.845937e-02 -6.290334e-02 -6.697613e-02 -7.136347e-02 -7.564297e-02 -7.999045e-02 -8.450520e-02 -8.881356e-02 -9.357140e-02 -9.782254e-02 -1.028065e-01 -1.069618e-01 -1.121274e-01 -1.161271e-01 -1.214016e-01 -1.251659e-01 -1.304492e-01 -1.338811e-01 -1.390492e-01 -1.420375e-01 -1.469475e-01 -1.493725e-01 -1.538690e-01 -1.556075e-01 -1.595301e-01 -1.604617e-01 -1.636526e-01 -1.636653e-01 -1.659769e-01 -1.649723e-01 -1.662737e-01 -1.641725e-01 -1.643551e-01 -1.611000e-01 -1.600823e-01 -1.556416e-01 -1.533720e-01 -1.477412e-01 -1.442001e-01 -1.374032e-01 -1.326036e-01 -1.246937e-01 -1.186813e-01 -1.097398e-01 
-1.038792e-01 -9.391914e-02 -8.566604e-02 -7.490479e-02 -6.574099e-02 -5.433963e-02 -4.442720e-02 -3.256823e-02 -2.209056e-02 -9.974211e-03 8.684169e-04 1.302873e-02 2.402440e-02 3.600741e-02 4.693850e-02 5.852124e-02 6.917093e-02 8.013537e-02 9.029454e-02 1.004346e-01 1.099087e-01 1.190372e-01 1.276529e-01 1.356076e-01 1.432184e-01 1.498680e-01 1.563588e-01 1.616066e-01 1.668968e-01 1.706832e-01 1.747281e-01 1.770318e-01 1.798220e-01 1.806588e-01 1.822187e-01 1.816390e-01 1.820229e-01 1.801081e-01 1.793963e-01 1.762539e-01 1.745469e-01 1.703052e-01 1.677188e-01 1.625208e-01 1.591800e-01 1.531778e-01 1.492119e-01 1.425611e-01 1.380989e-01 1.309532e-01 1.261187e-01 1.186262e-01 1.135354e-01 1.058340e-01 1.005924e-01 9.280760e-02 8.750857e-02 7.975064e-02 7.447406e-02 6.683713e-02 6.164896e-02 5.420999e-02 4.916202e-02 4.198063e-02 3.711051e-02 3.022923e-02 2.556068e-02 1.900556e-02 1.454858e-02 8.330183e-03 4.081313e-03 -1.804059e-03 -5.861326e-03 -1.143010e-02 -1.532477e-02 -2.060424e-02 -2.437685e-02 -2.940299e-02 -3.310409e-02 -3.791889e-02 -4.160674e-02 -4.625517e-02 -4.999256e-02 -5.451897e-02 -5.836906e-02 -6.281332e-02 -6.683468e-02 -7.122806e-02 -7.546902e-02 -7.983010e-02 -8.432305e-02 -8.865402e-02 -9.340996e-02 -9.769366e-02 -1.026977e-01 -1.068957e-01 -1.121042e-01 -1.161563e-01 -1.214956e-01 -1.253207e-01 -1.306887e-01 -1.341874e-01 -1.394565e-01 -1.425150e-01 -1.475376e-01 -1.500329e-01 -1.546484e-01 -1.564540e-01 -1.604963e-01 -1.614883e-01 -1.647941e-01 -1.648574e-01 -1.672741e-01 -1.663078e-01 -1.677001e-01 -1.656224e-01 -1.658783e-01 -1.626305e-01 -1.616660e-01 -1.572151e-01 -1.549768e-01 -1.493180e-01 -1.457855e-01 -1.389426e-01 -1.341289e-01 -1.261553e-01 -1.201065e-01 -1.110846e-01 
-1.055066e-01 -9.544031e-02 -8.706265e-02 -7.617382e-02 -6.686622e-02 -5.531839e-02 -4.524590e-02 -3.322476e-02 -2.257439e-02 -1.028405e-02 7.397203e-04 1.308124e-02 2.426171e-02 3.642791e-02 4.754221e-02 5.930440e-02 7.013023e-02 8.126445e-02 9.158719e-02 1.018815e-01 1.115015e-01 1.207632e-01 1.295025e-01 1.375650e-01 1.452735e-01 1.520017e-01 1.585621e-01 1.638571e-01 1.691878e-01 1.729893e-01 1.770458e-01 1.793331e-01 1.821078e-01 1.828986e-01 1.844186e-01 1.837665e-01 1.840897e-01 1.820801e-01 1.812908e-01 1.780358e-01 1.762391e-01 1.718719e-01 1.691879e-01 1.638565e-01 1.604143e-01 1.542758e-01 1.502085e-01 1.434228e-01 1.388621e-01 1.315873e-01 1.266597e-01 1.190471e-01 1.138704e-01 1.060608e-01 1.007417e-01 9.286259e-02 8.749508e-02 7.965845e-02 7.432268e-02 6.662353e-02 6.138543e-02 5.390116e-02 4.881231e-02 4.160250e-02 3.670032e-02 2.980705e-02 2.511498e-02 1.856349e-02 1.409132e-02 7.890975e-03 3.635043e-03 -2.219414e-03 -6.275925e-03 -1.180286e-02 -1.568947e-02 -2.091856e-02 -2.467666e-02 -2.964669e-02 -3.332821e-02 -3.808444e-02 -4.174965e-02 -4.634066e-02 -5.005503e-02 -5.452908e-02 -5.835904e-02 -6.276001e-02 -6.676781e-02 -7.113080e-02 -7.536862e-02 -7.971560e-02 -8.421941e-02 -8.855523e-02 -9.333894e-02 -9.764804e-02 -1.026987e-01 -1.069430e-01 -1.122174e-01 -1.163358e-01 -1.217593e-01 -1.256683e-01 -1.311362e-01 -1.347330e-01 -1.401137e-01 -1.432802e-01 -1.484212e-01 -1.510292e-01 -1.557642e-01 -1.576818e-01 -1.618390e-01 -1.629370e-01 -1.663476e-01 -1.665061e-01 -1.690124e-01 -1.681261e-01 -1.695888e-01 -1.675724e-01 -1.678764e-01 -1.646684e-01 -1.637274e-01 -1.592929e-01 -1.570524e-01 -1.513852e-01 -1.478244e-01 -1.409480e-01 -1.360800e-01 -1.280478e-01 -1.219198e-01 -1.128148e-01 
-1.078003e-01 -9.756873e-02 -8.904460e-02 -7.796397e-02 -6.847973e-02 -5.671698e-02 -4.644216e-02 -3.418718e-02 -2.331410e-02 -1.077612e-02 4.845612e-04 1.308152e-02 2.450615e-02 3.692878e-02 4.828691e-02 6.029913e-02 7.136050e-02 8.273068e-02 9.327273e-02 1.037814e-01 1.135969e-01 1.230445e-01 1.319489e-01 1.401627e-01 1.480008e-01 1.548415e-01 1.614922e-01 1.668581e-01 1.722381e-01 1.760682e-01 1.801333e-01 1.824077e-01 1.851525e-01 1.858918e-01 1.873468e-01 1.866088e-01 1.868371e-01 1.847124e-01 1.838041e-01 1.804108e-01 1.784774e-01 1.739549e-01 1.711229e-01 1.656258e-01 1.620306e-01 1.557218e-01 1.515021e-01 1.445473e-01 1.398398e-01 1.324017e-01 1.273371e-01 1.195710e-01 1.142704e-01 1.063202e-01 1.008929e-01 9.288832e-02 8.742982e-02 7.948425e-02 7.407582e-02 6.628500e-02 6.099311e-02 5.343451e-02 4.831095e-02 4.104376e-02 3.612589e-02 2.919141e-02 2.450247e-02 1.792486e-02 1.347421e-02 7.261520e-03 3.044865e-03 -2.809693e-03 -6.810176e-03 -1.232676e-02 -1.614215e-02 -2.135251e-02 -2.502654e-02 -2.997191e-02 -3.355980e-02 -3.828831e-02 -4.185472e-02 -4.641829e-02 -5.003415e-02 -5.448479e-02 -5.822300e-02 -6.260856e-02 -6.653845e-02 -7.089804e-02 -7.507902e-02 -7.943829e-02 -8.391305e-02 -8.827987e-02 -9.306787e-02 -9.742864e-02 -1.025206e-01 -1.068378e-01 -1.121919e-01 -1.164034e-01 -1.219438e-01 -1.259636e-01 -1.315814e-01 -1.353025e-01 -1.408600e-01 -1.441588e-01 -1.494952e-01 -1.522375e-01 -1.571771e-01 -1.592244e-01 -1.635856e-01 -1.648022e-01 -1.684066e-01 -1.686666e-01 -1.713479e-01 -1.705409e-01 -1.721524e-01 -1.701890e-01 -1.706099e-01 -1.674255e-01 -1.665653e-01 -1.621230e-01 -1.599246e-01 -1.542172e-01 -1.506587e-01 -1.437093e-01 -1.388039e-01 -1.306665e-01 -1.244624e-01 -1.152212e-01 
-1.104531e-01 -1.000457e-01 -9.132689e-02 -8.003632e-02 -7.032528e-02 -5.832242e-02 -4.779349e-02 -3.527321e-02 -2.412451e-02 -1.130222e-02 2.487725e-04 1.314170e-02 2.486351e-02 3.758536e-02 4.923889e-02 6.154432e-02 7.289019e-02 8.453790e-02 9.534434e-02 1.061053e-01 1.161564e-01 1.258221e-01 1.349257e-01 1.433160e-01 1.513108e-01 1.582804e-01 1.650415e-01 1.704852e-01 1.759275e-01 1.797830e-01 1.838630e-01 1.861118e-01 1.888267e-01 1.894925e-01 1.908776e-01 1.900234e-01 1.901479e-01 1.878708e-01 1.868317e-01 1.832575e-01 1.811736e-01 1.764499e-01 1.734550e-01 1.677443e-01 1.639807e-01 1.574539e-01 1.530665e-01 1.458964e-01 1.410270e-01 1.333827e-01 1.281662e-01 1.202082e-01 1.147686e-01 1.066453e-01 1.010938e-01 9.293807e-02 8.737140e-02 7.929890e-02 7.379872e-02 6.590649e-02 6.053921e-02 5.290525e-02 4.772235e-02 4.040567e-02 3.544409e-02 2.848521e-02 2.376777e-02 1.718957e-02 1.272528e-02 6.534015e-03 2.318235e-03 -3.495195e-03 -7.480788e-03 -1.293940e-02 -1.672674e-02 -2.186577e-02 -2.550010e-02 -3.036495e-02 -3.390389e-02 -3.854758e-02 -4.205932e-02 -4.653932e-02 -5.009953e-02 -5.447391e-02 -5.816131e-02 -6.248421e-02 -6.637478e-02 -7.069146e-02 -7.485154e-02 -7.919315e-02 -8.367198e-02 -8.805073e-02 -9.287317e-02 -9.727817e-02 -1.024385e-01 -1.068330e-01 -1.122905e-01 -1.166108e-01 -1.222879e-01 -1.264443e-01 -1.322280e-01 -1.361079e-01 -1.418536e-01 -1.453261e-01 -1.508642e-01 -1.537868e-01 -1.589320e-01 -1.611575e-01 -1.657180e-01 -1.671023e-01 -1.708902e-01 -1.712994e-01 -1.741397e-01 -1.734567e-01 -1.751958e-01 -1.733254e-01 -1.738371e-01 -1.707106e-01 -1.699008e-01 -1.654785e-01 -1.632880e-01 -1.575608e-01 -1.539669e-01 -1.469575e-01 -1.419739e-01 -1.337365e-01 -1.274129e-01 -1.180327e-01 
-1.138163e-01 -1.031719e-01 -9.423360e-02 -8.266658e-02 -7.269232e-02 -6.037824e-02 -4.954869e-02 -3.668841e-02 -2.520926e-02 -1.202557e-02 -1.231743e-04 1.314376e-02 2.522781e-02 3.832617e-02 5.034163e-02 6.301498e-02 7.471062e-02 8.670604e-02 9.783817e-02 1.089151e-01 1.192565e-01 1.291958e-01 1.385443e-01 1.471567e-01 1.553431e-01 1.624766e-01 1.693704e-01 1.749157e-01 1.804295e-01 1.843230e-01 1.884138e-01 1.906387e-01 1.933071e-01 1.938913e-01 1.951784e-01 1.941914e-01 1.941738e-01 1.917209e-01 1.905047e-01 1.867208e-01 1.844343e-01 1.794765e-01 1.762632e-01 1.703038e-01 1.663153e-01 1.595341e-01 1.549235e-01 1.475017e-01 1.424180e-01 1.345319e-01 1.291159e-01 1.209319e-01 1.153121e-01 1.069831e-01 1.012741e-01 9.293615e-02 8.723676e-02 7.900760e-02 7.340068e-02 6.537829e-02 5.993076e-02 5.219320e-02 4.695660e-02 3.956219e-02 3.457326e-02 2.756132e-02 2.284253e-02 1.623427e-02 1.179420e-02 5.593915e-03 1.427228e-03 -4.376463e-03 -8.289161e-03 -1.372191e-02 -1.741436e-02 -2.251449e-02 -2.603480e-02 -3.085137e-02 -3.426147e-02 -3.885188e-02 -4.222594e-02 -4.665275e-02 -5.007422e-02 -5.440129e-02 -5.795827e-02 -6.224604e-02 -6.602502e-02 -7.032513e-02 -7.440334e-02 -7.875292e-02 -8.318989e-02 -8.760607e-02 -9.243526e-02 -9.691045e-02 -1.021320e-01 -1.066305e-01 -1.122058e-01 -1.166626e-01 -1.225125e-01 -1.268338e-01 -1.328391e-01 -1.369060e-01 -1.429124e-01 -1.465856e-01 -1.524114e-01 -1.555387e-01 -1.609840e-01 -1.634082e-01 -1.682665e-01 -1.698335e-01 -1.739027e-01 -1.744695e-01 -1.775619e-01 -1.770036e-01 -1.789550e-01 -1.771703e-01 -1.778464e-01 -1.747621e-01 -1.740631e-01 -1.696364e-01 -1.675000e-01 -1.617205e-01 -1.581225e-01 -1.510126e-01 -1.459672e-01 -1.375818e-01 -1.311405e-01 -1.215665e-01 
-1.175676e-01 -1.066747e-01 -9.746772e-02 -8.560449e-02 -7.531563e-02 -6.266279e-02 -5.147926e-02 -3.824441e-02 -2.637987e-02 -1.279420e-02 -4.845002e-04 1.320161e-02 2.570384e-02 3.922671e-02 5.165888e-02 6.474890e-02 7.684656e-02 8.923687e-02 1.007429e-01 1.121790e-01 1.228534e-01 1.331033e-01 1.427326e-01 1.515959e-01 1.600020e-01 1.673183e-01 1.743650e-01 1.800198e-01 1.856172e-01 1.895454e-01 1.936515e-01 1.958380e-01 1.984577e-01 1.989355e-01 2.001168e-01 1.989631e-01 1.987917e-01 1.961214e-01 1.947135e-01 1.906725e-01 1.881673e-01 1.829245e-01 1.794761e-01 1.732151e-01 1.689850e-01 1.618970e-01 1.570472e-01 1.493232e-01 1.440102e-01 1.358353e-01 1.302054e-01 1.217536e-01 1.159396e-01 1.073693e-01 1.014884e-01 9.294018e-02 8.709246e-02 7.868681e-02 7.295558e-02 6.479207e-02 5.924399e-02 5.140116e-02 4.608715e-02 3.862294e-02 3.357902e-02 2.653156e-02 2.177962e-02 1.516834e-02 1.071651e-02 4.543297e-03 3.859030e-04 -5.363607e-03 -9.246434e-03 -1.460160e-02 -1.824454e-02 -2.324821e-02 -2.670124e-02 -3.140800e-02 -3.473627e-02 -3.921005e-02 -4.249270e-02 -4.680371e-02 -5.013106e-02 -5.435166e-02 -5.782051e-02 -6.202012e-02 -6.572709e-02 -6.996625e-02 -7.399926e-02 -7.832325e-02 -8.275209e-02 -8.718456e-02 -9.205128e-02 -9.658883e-02 -1.018993e-01 -1.065075e-01 -1.122254e-01 -1.168371e-01 -1.228808e-01 -1.273970e-01 -1.336410e-01 -1.379344e-01 -1.442142e-01 -1.481352e-01 -1.542557e-01 -1.576398e-01 -1.633867e-01 -1.660641e-01 -1.712156e-01 -1.730198e-01 -1.773596e-01 -1.781365e-01 -1.814643e-01 -1.810793e-01 -1.832208e-01 -1.815652e-01 -1.823783e-01 -1.793731e-01 -1.787533e-01 -1.743520e-01 -1.722341e-01 -1.664242e-01 -1.627833e-01 -1.555866e-01 -1.504377e-01 -1.419095e-01 -1.353061e-01 -1.255353e-01 
-1.220921e-01 -1.108871e-01 -1.013824e-01 -8.915330e-02 -7.850830e-02 -6.544193e-02 -5.385191e-02 -4.016351e-02 -2.785190e-02 -1.378227e-02 -9.965523e-04 1.319223e-02 2.618595e-02 4.021654e-02 5.314054e-02 6.672801e-02 7.930159e-02 9.216287e-02 1.041123e-01 1.159767e-01 1.270461e-01 1.376664e-01 1.476283e-01 1.567914e-01 1.654563e-01 1.729921e-01 1.802165e-01 1.860047e-01 1.916953e-01 1.956692e-01 1.997851e-01 2.019322e-01 2.044832e-01 2.048429e-01 2.058854e-01 2.045440e-01 2.041744e-01 2.012584e-01 1.996057e-01 1.952739e-01 1.924906e-01 1.869252e-01 1.831789e-01 1.765770e-01 1.720417e-01 1.646069e-01 1.594557e-01 1.513905e-01 1.457896e-01 1.372886e-01 1.313921e-01 1.226371e-01 1.165834e-01 1.077390e-01 1.016491e-01 9.285990e-02 8.683651e-02 7.822548e-02 7.235289e-02 6.402066e-02 5.836578e-02 5.039072e-02 4.500419e-02 3.744311e-02 3.236050e-02 2.524972e-02 2.049242e-02 1.384909e-02 9.424811e-03 3.248169e-03 -8.492535e-04 -6.576573e-03 -1.036785e-02 -1.567859e-02 -1.920009e-02 -2.414106e-02 -2.744582e-02 -3.207635e-02 -3.523458e-02 -3.962440e-02 -4.272275e-02 -4.694900e-02 -5.008801e-02 -5.423112e-02 -5.752037e-02 -6.165874e-02 -6.520951e-02 -6.941297e-02 -7.332876e-02 -7.765145e-02 -8.201701e-02 -8.649005e-02 -9.136012e-02 -9.598525e-02 -1.013745e-01 -1.061193e-01 -1.119950e-01 -1.167905e-01 -1.230687e-01 -1.278104e-01 -1.343572e-01 -1.389087e-01 -1.455458e-01 -1.497453e-01 -1.562599e-01 -1.599294e-01 -1.660866e-01 -1.690416e-01 -1.745990e-01 -1.766591e-01 -1.813803e-01 -1.823786e-01 -1.860462e-01 -1.858375e-01 -1.882628e-01 -1.867300e-01 -1.877607e-01 -1.848190e-01 -1.843434e-01 -1.799427e-01 -1.778920e-01 -1.720181e-01 -1.683664e-01 -1.610407e-01 -1.558039e-01 -1.470832e-01 -1.403174e-01 -1.302925e-01 
-1.270446e-01 -1.155146e-01 -1.056619e-01 -9.304516e-02 -8.199120e-02 -6.848071e-02 -5.642887e-02 -4.224817e-02 -2.943189e-02 -1.483242e-02 -1.511355e-03 1.323166e-02 2.677694e-02 4.137051e-02 5.484577e-02 6.898730e-02 8.209387e-02 9.548128e-02 1.079269e-01 1.202704e-01 1.317815e-01 1.428159e-01 1.531491e-01 1.626459e-01 1.715994e-01 1.793770e-01 1.867991e-01 1.927302e-01 1.985246e-01 2.025405e-01 2.066679e-01 2.087590e-01 2.112354e-01 2.114483e-01 2.123400e-01 2.107718e-01 2.101880e-01 2.069787e-01 2.050626e-01 2.003859e-01 1.973050e-01 1.913590e-01 1.872954e-01 1.802929e-01 1.754341e-01 1.675932e-01 1.621243e-01 1.536609e-01 1.477575e-01 1.388779e-01 1.327015e-01 1.235967e-01 1.172910e-01 1.081329e-01 1.018219e-01 9.276035e-02 8.654806e-02 7.770934e-02 7.168014e-02 6.316652e-02 5.738653e-02 4.927667e-02 4.379533e-02 3.614523e-02 3.099696e-02 2.384129e-02 1.904661e-02 1.240016e-02 7.966318e-03 1.825374e-03 -2.253891e-03 -7.910303e-03 -1.165581e-02 -1.686484e-02 -2.031353e-02 -2.512743e-02 -2.833412e-02 -3.281898e-02 -3.585753e-02 -4.009133e-02 -4.305462e-02 -4.712438e-02 -5.012207e-02 -5.411951e-02 -5.727321e-02 -6.128898e-02 -6.472431e-02 -6.884068e-02 -7.267669e-02 -7.695933e-02 -8.129591e-02 -8.578542e-02 -9.069029e-02 -9.539465e-02 -1.008914e-01 -1.057803e-01 -1.118397e-01 -1.168417e-01 -1.233771e-01 -1.283803e-01 -1.352488e-01 -1.401053e-01 -1.471139e-01 -1.516473e-01 -1.585645e-01 -1.625798e-01 -1.691497e-01 -1.724450e-01 -1.784039e-01 -1.807818e-01 -1.858734e-01 -1.871521e-01 -1.911416e-01 -1.911633e-01 -1.938487e-01 -1.924865e-01 -1.937056e-01 -1.908678e-01 -1.905029e-01 -1.861350e-01 -1.841142e-01 -1.781999e-01 -1.744968e-01 -1.670570e-01 -1.616892e-01 -1.527815e-01 -1.458080e-01 -1.355255e-01 
-1.328537e-01 -1.209317e-01 -1.106964e-01 -9.761852e-02 -8.610740e-02 -7.207341e-02 -5.949943e-02 -4.474200e-02 -3.135040e-02 -1.613270e-02 -2.197506e-03 1.319055e-02 2.737169e-02 4.261947e-02 5.673275e-02 7.151749e-02 8.524273e-02 9.924060e-02 1.122633e-01 1.251624e-01 1.371873e-01 1.487019e-01 1.594665e-01 1.693503e-01 1.786376e-01 1.866959e-01 1.943440e-01 2.004418e-01 2.063501e-01 2.104170e-01 2.145481e-01 2.165782e-01 2.189553e-01 2.190042e-01 2.197053e-01 2.178830e-01 2.170323e-01 2.134945e-01 2.112525e-01 2.061904e-01 2.027426e-01 1.963723e-01 1.919185e-01 1.844704e-01 1.792147e-01 1.709234e-01 1.650654e-01 1.561614e-01 1.498889e-01 1.405909e-01 1.340749e-01 1.245838e-01 1.179748e-01 1.084699e-01 1.018962e-01 9.253234e-02 8.610024e-02 7.700636e-02 7.080090e-02 6.208014e-02 5.616703e-02 4.789737e-02 4.232516e-02 3.456081e-02 2.936293e-02 2.213596e-02 1.733228e-02 1.065442e-02 6.251921e-03 1.160732e-04 -3.891522e-03 -9.509937e-03 -1.314360e-02 -1.828570e-02 -2.158336e-02 -2.630602e-02 -2.932514e-02 -3.370006e-02 -3.651987e-02 -4.063210e-02 -4.335426e-02 -4.729961e-02 -5.004661e-02 -5.392744e-02 -5.683762e-02 -6.075674e-02 -6.397570e-02 -6.802837e-02 -7.169682e-02 -7.596139e-02 -8.020054e-02 -8.472861e-02 -8.962458e-02 -9.443194e-02 -1.000215e-01 -1.050811e-01 -1.113407e-01 -1.165793e-01 -1.234194e-01 -1.287178e-01 -1.359840e-01 -1.411815e-01 -1.486618e-01 -1.535655e-01 -1.610033e-01 -1.653991e-01 -1.725105e-01 -1.761765e-01 -1.826689e-01 -1.853886e-01 -1.909792e-01 -1.925536e-01 -1.969847e-01 -1.972423e-01 -2.002937e-01 -1.990972e-01 -2.005940e-01 -1.978446e-01 -1.976611e-01 -1.933004e-01 -1.913611e-01 -1.853710e-01 -1.816493e-01 -1.740511e-01 -1.685664e-01 -1.594194e-01 -1.522348e-01 -1.416346e-01 
-1.391421e-01 -1.268141e-01 -1.161450e-01 -1.025816e-01 -9.055910e-02 -7.596732e-02 -6.281365e-02 -4.743556e-02 -3.340780e-02 -1.751921e-02 -2.906176e-03 1.318682e-02 2.806940e-02 4.403637e-02 5.885343e-02 7.434860e-02 8.875631e-02 1.034307e-01 1.170897e-01 1.306058e-01 1.431967e-01 1.552443e-01 1.664831e-01 1.767951e-01 1.864479e-01 1.948140e-01 2.027079e-01 2.089840e-01 2.150146e-01 2.191279e-01 2.232604e-01 2.252097e-01 2.274763e-01 2.273272e-01 2.278199e-01 2.256972e-01 2.245577e-01 2.206354e-01 2.180434e-01 2.125328e-01 2.086939e-01 2.018319e-01 1.969651e-01 1.890024e-01 1.833295e-01 1.745198e-01 1.682554e-01 1.588461e-01 1.521904e-01 1.424143e-01 1.355472e-01 1.256171e-01 1.186950e-01 1.087988e-01 1.019534e-01 9.225172e-02 8.559005e-02 7.621556e-02 6.982193e-02 6.087917e-02 5.481750e-02 4.638427e-02 4.070097e-02 3.283001e-02 2.755660e-02 2.027767e-02 1.543277e-02 8.754606e-03 4.344829e-03 -1.743135e-03 -5.723654e-03 -1.125007e-02 -1.482149e-02 -1.983236e-02 -2.303217e-02 -2.759044e-02 -3.047705e-02 -3.466220e-02 -3.731829e-02 -4.122525e-02 -4.375957e-02 -4.749643e-02 -5.004290e-02 -5.372658e-02 -5.643944e-02 -6.018909e-02 -6.323363e-02 -6.716149e-02 -7.070039e-02 -7.490096e-02 -7.907731e-02 -8.361576e-02 -8.853479e-02 -9.343614e-02 -9.914815e-02 -1.043889e-01 -1.108762e-01 -1.163800e-01 -1.235497e-01 -1.291876e-01 -1.368730e-01 -1.424688e-01 -1.504375e-01 -1.557779e-01 -1.637472e-01 -1.685952e-01 -1.762518e-01 -1.803618e-01 -1.873839e-01 -1.905171e-01 -1.965948e-01 -1.985326e-01 -2.033857e-01 -2.039405e-01 -2.073317e-01 -2.063542e-01 -2.080967e-01 -2.054803e-01 -2.054419e-01 -2.011235e-01 -1.992260e-01 -1.931858e-01 -1.894029e-01 -1.816623e-01 -1.760162e-01 -1.666358e-01 -1.591936e-01 -1.482719e-01 
-1.463926e-01 -1.335875e-01 -1.224431e-01 -1.083163e-01 -9.572595e-02 -8.049160e-02 -6.668830e-02 -5.059855e-02 -3.585285e-02 -1.919705e-02 -3.814693e-03 1.308335e-02 2.876580e-02 4.555364e-02 6.117639e-02 7.748234e-02 9.267374e-02 1.081201e-01 1.225114e-01 1.367312e-01 1.499740e-01 1.626291e-01 1.744135e-01 1.852130e-01 1.952844e-01 2.040002e-01 2.121725e-01 2.186505e-01 2.248140e-01 2.289796e-01 2.331025e-01 2.349603e-01 2.370852e-01 2.367134e-01 2.369485e-01 2.344896e-01 2.329973e-01 2.286463e-01 2.256293e-01 2.196207e-01 2.153082e-01 2.079024e-01 2.025366e-01 1.940071e-01 1.878310e-01 1.784525e-01 1.716991e-01 1.617374e-01 1.546218e-01 1.443251e-01 1.370386e-01 1.266316e-01 1.193382e-01 1.090175e-01 1.018533e-01 9.178518e-02 8.485887e-02 7.517851e-02 6.857404e-02 5.938633e-02 5.316606e-02 4.454723e-02 3.875556e-02 3.075550e-02 2.542221e-02 1.806700e-02 1.320970e-02 6.504053e-03 2.129371e-03 -3.941409e-03 -7.838451e-03 -1.330714e-02 -1.674548e-02 -2.166237e-02 -2.467889e-02 -2.911179e-02 -3.176626e-02 -3.580072e-02 -3.818056e-02 -4.191955e-02 -4.414312e-02 -4.770531e-02 -4.992196e-02 -5.343774e-02 -5.582321e-02 -5.942780e-02 -6.217407e-02 -6.599753e-02 -6.929721e-02 -7.345195e-02 -7.747823e-02 -8.204539e-02 -8.693011e-02 -9.194648e-02 -9.775934e-02 -1.032071e-01 -1.099394e-01 -1.157402e-01 -1.232962e-01 -1.293114e-01 -1.375086e-01 -1.435451e-01 -1.521246e-01 -1.579462e-01 -1.665908e-01 -1.719344e-01 -1.802921e-01 -1.848850e-01 -1.925951e-01 -1.961728e-01 -2.028899e-01 -2.052117e-01 -2.106261e-01 -2.114869e-01 -2.153389e-01 -2.145770e-01 -2.166651e-01 -2.141660e-01 -2.143497e-01 -2.100466e-01 -2.082452e-01 -2.021172e-01 -1.983057e-01 -1.903754e-01 -1.845797e-01 -1.749104e-01 -1.672031e-01 -1.558963e-01 
-1.541864e-01 -1.408891e-01 -1.292175e-01 -1.145005e-01 -1.012869e-01 -8.537155e-02 -7.085890e-02 -5.400747e-02 -3.847931e-02 -2.099537e-02 -4.774564e-03 1.299897e-02 2.955397e-02 4.724021e-02 6.374297e-02 8.094090e-02 9.698908e-02 1.132881e-01 1.284801e-01 1.434789e-01 1.574337e-01 1.707615e-01 1.831399e-01 1.944777e-01 2.050024e-01 2.141012e-01 2.225715e-01 2.292654e-01 2.355668e-01 2.397789e-01 2.438842e-01 2.456259e-01 2.475907e-01 2.469546e-01 2.469063e-01 2.440553e-01 2.421800e-01 2.373334e-01 2.338596e-01 2.272782e-01 2.224616e-01 2.144327e-01 2.085406e-01 1.993636e-01 1.926613e-01 1.826350e-01 1.753746e-01 1.647856e-01 1.571970e-01 1.463114e-01 1.385964e-01 1.276524e-01 1.199817e-01 1.091859e-01 1.016983e-01 9.122335e-02 8.402748e-02 7.401204e-02 6.718956e-02 5.773935e-02 5.134916e-02 4.253933e-02 3.662214e-02 2.850013e-02 2.308262e-02 1.567126e-02 1.076922e-02 4.069505e-03 -3.106688e-04 -6.317384e-03 -1.017929e-02 -1.553007e-02 -1.889020e-02 -2.364029e-02 -2.653304e-02 -3.075650e-02 -3.324057e-02 -3.703129e-02 -3.919632e-02 -4.266852e-02 -4.464006e-02 -4.792719e-02 -4.986818e-02 -5.311903e-02 -5.522567e-02 -5.859692e-02 -6.108781e-02 -6.473256e-02 -6.783097e-02 -7.188419e-02 -7.579468e-02 -8.035688e-02 -8.523930e-02 -9.036091e-02 -9.630535e-02 -1.019742e-01 -1.089814e-01 -1.151158e-01 -1.230862e-01 -1.295346e-01 -1.382690e-01 -1.448169e-01 -1.540280e-01 -1.604121e-01 -1.697461e-01 -1.756719e-01 -1.847366e-01 -1.898998e-01 -1.982944e-01 -2.024010e-01 -2.097445e-01 -2.125284e-01 -2.184821e-01 -2.197185e-01 -2.240016e-01 -2.235150e-01 -2.259129e-01 -2.235804e-01 -2.239461e-01 -2.196968e-01 -2.179483e-01 -2.117606e-01 -2.078753e-01 -1.997728e-01 -1.937812e-01 -1.838294e-01 -1.758095e-01 -1.641134e-01 
-1.630713e-01 -1.492065e-01 -1.369580e-01 -1.215680e-01 -1.076651e-01 -9.097801e-02 -7.567475e-02 -5.796315e-02 -4.155746e-02 -2.313963e-02 -5.973432e-03 1.278722e-02 3.033081e-02 4.903054e-02 6.653452e-02 8.473944e-02 1.017658e-01 1.190280e-01 1.351363e-01 1.510150e-01 1.657856e-01 1.798723e-01 1.929310e-01 2.048744e-01 2.159160e-01 2.254435e-01 2.342498e-01 2.411827e-01 2.476328e-01 2.518927e-01 2.559648e-01 2.575720e-01 2.593363e-01 2.584011e-01 2.580079e-01 2.547172e-01 2.523801e-01 2.469815e-01 2.429598e-01 2.357441e-01 2.303242e-01 2.216091e-01 2.150880e-01 2.052020e-01 1.978718e-01 1.871397e-01 1.792753e-01 1.680067e-01 1.598561e-01 1.483354e-01 1.401134e-01 1.285932e-01 1.204787e-01 1.091752e-01 1.013109e-01 9.040253e-02 8.289743e-02 7.252500e-02 6.545860e-02 5.572706e-02 4.915473e-02 4.013625e-02 3.409489e-02 2.583250e-02 2.034572e-02 1.285706e-02 7.939118e-03 1.219896e-03 -3.122389e-03 -9.095791e-03 -1.286370e-02 -1.813282e-02 -2.133929e-02 -2.596354e-02 -2.863948e-02 -3.269741e-02 -3.490002e-02 -3.849133e-02 -4.031302e-02 -4.356029e-02 -4.513603e-02 -4.818477e-02 -4.969533e-02 -5.271089e-02 -5.437954e-02 -5.753952e-02 -5.962029e-02 -6.310201e-02 -6.585935e-02 -6.982299e-02 -7.350408e-02 -7.807332e-02 -8.287652e-02 -8.811951e-02 -9.416375e-02 -1.000776e-01 -1.073778e-01 -1.138793e-01 -1.223330e-01 -1.292579e-01 -1.386445e-01 -1.457554e-01 -1.557510e-01 -1.627533e-01 -1.729560e-01 -1.795195e-01 -1.894839e-01 -1.952675e-01 -2.045400e-01 -2.092159e-01 -2.173687e-01 -2.206423e-01 -2.272991e-01 -2.289240e-01 -2.337775e-01 -2.335640e-01 -2.363834e-01 -2.342009e-01 -2.348321e-01 -2.306070e-01 -2.289678e-01 -2.226792e-01 -2.187513e-01 -2.104255e-01 -2.042459e-01 -1.939523e-01 -1.856066e-01 -1.734537e-01 
-1.725775e-01 -1.581290e-01 -1.452520e-01 -1.291599e-01 -1.145119e-01 -9.701053e-02 -8.085518e-02 -6.222666e-02 -4.487507e-02 -2.545266e-02 -7.265517e-03 1.256562e-02 3.117960e-02 5.098631e-02 6.957720e-02 8.888861e-02 1.069790e-01 1.253042e-01 1.424102e-01 1.592628e-01 1.749205e-01 1.898479e-01 2.036434e-01 2.162560e-01 2.278531e-01 2.378506e-01 2.470119e-01 2.542006e-01 2.607997e-01 2.650994e-01 2.691220e-01 2.705635e-01 2.720985e-01 2.708126e-01 2.700371e-01 2.662384e-01 2.633982e-01 2.573662e-01 2.527548e-01 2.448149e-01 2.387531e-01 2.292573e-01 2.220739e-01 2.113834e-01 2.033991e-01 1.918687e-01 1.833815e-01 1.713464e-01 1.626222e-01 1.503876e-01 1.416534e-01 1.294879e-01 1.209289e-01 1.090598e-01 1.008206e-01 8.943287e-02 8.162037e-02 7.085742e-02 6.354648e-02 5.351291e-02 4.675287e-02 3.751827e-02 3.133995e-02 2.294340e-02 1.736547e-02 9.820053e-03 4.853961e-03 -1.849240e-03 -6.196697e-03 -1.208567e-02 -1.581293e-02 -2.093337e-02 -2.404823e-02 -2.846395e-02 -3.099127e-02 -3.478645e-02 -3.677862e-02 -4.006103e-02 -4.160961e-02 -4.451383e-02 -4.575976e-02 -4.844847e-02 -4.958778e-02 -5.224917e-02 -5.353085e-02 -5.637050e-02 -5.808422e-02 -6.131078e-02 -6.376368e-02 -6.756884e-02 -7.105308e-02 -7.558839e-02 -8.034339e-02 -8.569718e-02 -9.187259e-02 -9.805112e-02 -1.056769e-01 -1.125933e-01 -1.215629e-01 -1.290358e-01 -1.391057e-01 -1.468690e-01 -1.576756e-01 -1.653971e-01 -1.764876e-01 -1.837950e-01 -1.946678e-01 -2.011775e-01 -2.113251e-01 -2.166702e-01 -2.256175e-01 -2.294716e-01 -2.368058e-01 -2.388986e-01 -2.442876e-01 -2.444142e-01 -2.476135e-01 -2.456352e-01 -2.464864e-01 -2.423273e-01 -2.407500e-01 -2.343905e-01 -2.303718e-01 -2.218415e-01 -2.154259e-01 -2.047976e-01 -1.960782e-01 -1.834644e-01 