# vtk DataFile Version 2.0
Comment goes here
ASCII

DATASET STRUCTURED_POINTS
FIELD FieldData 1
TIME 1 1 double
0.07500000
DIMENSIONS    128   128   1

ORIGIN    0.000   0.000   0.000
SPACING   0.039062 0.039062   1.000

POINT_DATA   16384
SCALARS uX double
LOOKUP_TABLE default

-2.483050e-01 -2.110732e-01 -1.735221e-01 -1.358826e-01 -9.845128e-02 -6.083123e-02 -2.390876e-02 1.329245e-02 4.934630e-02 8.575744e-02 1.206121e-01 1.558902e-01 1.892439e-01 2.230746e-01 2.546546e-01 2.867525e-01 3.163151e-01 3.464248e-01 3.737563e-01 4.016539e-01 4.265709e-01 4.520656e-01 4.744169e-01 4.973522e-01 5.170192e-01 5.372745e-01 5.541716e-01 5.716625e-01 5.857372e-01 6.004151e-01 6.116468e-01 6.234971e-01 6.318949e-01 6.409347e-01 6.465346e-01 6.528086e-01 6.556693e-01 6.592453e-01 6.594438e-01 6.604075e-01 6.580339e-01 6.564833e-01 6.516359e-01 6.476759e-01 6.404564e-01 6.341937e-01 6.247028e-01 6.162417e-01 6.045756e-01 5.940143e-01 5.802623e-01 5.676899e-01 5.519329e-01 5.374280e-01 5.197376e-01 5.033674e-01 4.838068e-01 4.656269e-01 4.442526e-01 4.243079e-01 4.011719e-01 3.794985e-01 3.546522e-01 3.312799e-01 3.047785e-01 2.797350e-01 2.516430e-01 2.249588e-01 1.953569e-01 1.670726e-01 1.360644e-01 1.062386e-01 7.395965e-02 4.267893e-02 9.303961e-03 -2.330642e-02 -5.755508e-02 -9.132004e-02 -1.261662e-01 -1.608507e-01 -1.959599e-01 -2.312605e-01 -2.662390e-01 -3.017795e-01 -3.361766e-01 -3.715079e-01 -4.048238e-01 -4.394298e-01 -4.711270e-01 -5.044368e-01 -5.339564e-01 -5.653621e-01 -5.921438e-01 -6.210233e-01 -6.445271e-01 -6.702712e-01 -6.899997e-01 -7.120394e-01 -7.275602e-01 -7.453938e-01 -7.563579e-01 -7.695747e-01 -7.757322e-01 -7.840304e-01 -7.852401e-01 -7.884393e-01 -7.846728e-01 -7.827184e-01 -7.740587e-01 -7.670187e-01 -7.536530e-01 -7.417100e-01 -7.239180e-01 -7.073543e-01 -6.854936e-01 -6.646743e-01 -6.391633e-01 -6.145173e-01 -5.858178e-01 -5.578181e-01 -5.264189e-01 -4.955652e-01 -4.619668e-01 -4.287697e-01 -3.934713e-01 -3.584392e-01 -3.219289e-01 -2.855583e-01 
-2.487787e-01 -2.114505e-01 -1.738604e-01 -1.361265e-01 -9.865402e-02 -6.094258e-02 -2.397764e-02 1.331106e-02 4.940767e-02 8.590172e-02 1.207983e-01 1.561541e-01 1.895478e-01 2.234503e-01 2.550670e-01 2.872302e-01 3.168250e-01 3.469930e-01 3.743507e-01 4.022988e-01 4.272351e-01 4.527719e-01 4.751343e-01 4.981029e-01 5.177719e-01 5.380514e-01 5.549409e-01 5.724466e-01 5.865040e-01 6.011875e-01 6.123922e-01 6.242394e-01 6.326013e-01 6.416298e-01 6.471860e-01 6.534416e-01 6.562521e-01 6.598039e-01 6.599474e-01 6.608825e-01 6.584513e-01 6.568693e-01 6.519638e-01 6.479714e-01 6.406955e-01 6.344011e-01 6.248577e-01 6.163674e-01 6.046548e-01 5.940682e-01 5.802775e-01 5.676854e-01 5.518988e-01 5.373810e-01 5.196714e-01 5.032959e-01 4.837274e-01 4.655504e-01 4.441796e-01 4.242463e-01 4.011251e-01 3.794710e-01 3.546503e-01 3.313043e-01 3.048383e-01 2.798263e-01 2.517783e-01 2.251288e-01 1.955774e-01 1.673280e-01 1.363751e-01 1.065810e-01 7.435948e-02 4.310328e-02 9.785574e-03 -2.281139e-02 -5.700565e-02 -9.077223e-02 -1.255694e-01 -1.602740e-01 -1.953419e-01 -2.306838e-01 -2.656307e-01 -3.012350e-01 -3.356118e-01 -3.710297e-01 -4.043374e-01 -4.390510e-01 -4.707525e-01 -5.041878e-01 -5.337238e-01 -5.652680e-01 -5.920771e-01 -6.211026e-01 -6.446429e-01 -6.705338e-01 -6.903060e-01 -7.124868e-01 -7.280558e-01 -7.460184e-01 -7.570327e-01 -7.703608e-01 -7.765678e-01 -7.849557e-01 -7.862118e-01 -7.894762e-01 -7.857511e-01 -7.838358e-01 -7.752109e-01 -7.681845e-01 -7.548457e-01 -7.428920e-01 -7.251185e-01 -7.085223e-01 -6.866715e-01 -6.658010e-01 -6.402913e-01 -6.155786e-01 -5.868724e-01 -5.587941e-01 -5.273808e-01 -4.964399e-01 -4.628206e-01 -4.295306e-01 -3.942055e-01 -3.590773e-01 -3.225354e-01 -2.860676e-01 
-2.488850e-01 -2.114264e-01 -1.736664e-01 -1.358133e-01 -9.818751e-02 -6.036776e-02 -2.326540e-02 1.412142e-02 5.034058e-02 8.692318e-02 1.219286e-01 1.573640e-01 1.908541e-01 2.248274e-01 2.565293e-01 2.887548e-01 3.184244e-01 3.486461e-01 3.760691e-01 4.040621e-01 4.290548e-01 4.546277e-01 4.770383e-01 5.000340e-01 5.197436e-01 5.400412e-01 5.569645e-01 5.744798e-01 5.885648e-01 6.032499e-01 6.144770e-01 6.263188e-01 6.346987e-01 6.437161e-01 6.492866e-01 6.555266e-01 6.583489e-01 6.618820e-01 6.620353e-01 6.629500e-01 6.605271e-01 6.589240e-01 6.540257e-01 6.500122e-01 6.427422e-01 6.364273e-01 6.268881e-01 6.183779e-01 6.066670e-01 5.960609e-01 5.822684e-01 5.696566e-01 5.538636e-01 5.393250e-01 5.216028e-01 5.052048e-01 4.856159e-01 4.674135e-01 4.460130e-01 4.260503e-01 4.028886e-01 3.812002e-01 3.563263e-01 3.329402e-01 3.064064e-01 2.813475e-01 2.532152e-01 2.265109e-01 1.968568e-01 1.685432e-01 1.374674e-01 1.075983e-01 7.523182e-02 4.388845e-02 1.040228e-02 -2.229563e-02 -5.668245e-02 -9.056498e-02 -1.255784e-01 -1.604145e-01 -1.957207e-01 -2.312095e-01 -2.664132e-01 -3.021783e-01 -3.368253e-01 -3.724147e-01 -4.059992e-01 -4.408908e-01 -4.728672e-01 -5.064810e-01 -5.362807e-01 -5.679972e-01 -5.950490e-01 -6.242331e-01 -6.479854e-01 -6.740138e-01 -6.939586e-01 -7.162489e-01 -7.319442e-01 -7.499829e-01 -7.610722e-01 -7.744394e-01 -7.806676e-01 -7.890558e-01 -7.902797e-01 -7.935061e-01 -7.896982e-01 -7.877093e-01 -7.789561e-01 -7.718247e-01 -7.583192e-01 -7.462347e-01 -7.282640e-01 -7.115175e-01 -6.894477e-01 -6.684139e-01 -6.426719e-01 -6.177892e-01 -5.888453e-01 -5.605957e-01 -5.289462e-01 -4.978372e-01 -4.639891e-01 -4.305377e-01 -3.949953e-01 -3.597150e-01 -3.229701e-01 -2.863608e-01 
-2.499412e-01 -2.121581e-01 -1.741493e-01 -1.359872e-01 -9.812475e-02 -6.001308e-02 -2.268734e-02 1.497329e-02 5.140162e-02 8.823921e-02 1.234386e-01 1.591095e-01 1.927772e-01 2.269657e-01 2.588274e-01 2.912465e-01 3.210565e-01 3.514490e-01 3.789911e-01 4.071307e-01 4.322194e-01 4.579130e-01 4.803950e-01 5.034845e-01 5.232396e-01 5.436036e-01 5.605459e-01 5.781002e-01 5.921780e-01 6.068755e-01 6.180705e-01 6.298999e-01 6.382248e-01 6.472076e-01 6.527035e-01 6.588900e-01 6.616217e-01 6.650862e-01 6.651375e-01 6.659729e-01 6.634410e-01 6.617522e-01 6.567426e-01 6.526415e-01 6.452624e-01 6.388619e-01 6.292199e-01 6.206296e-01 6.088256e-01 5.981481e-01 5.842749e-01 5.716027e-01 5.557430e-01 5.411569e-01 5.233831e-01 5.069513e-01 4.873258e-01 4.691037e-01 4.476807e-01 4.277117e-01 4.045396e-01 3.828565e-01 3.579815e-01 3.346095e-01 3.080801e-01 2.830398e-01 2.549128e-01 2.282258e-01 1.985724e-01 1.702679e-01 1.391819e-01 1.093051e-01 7.691104e-02 4.553361e-02 1.199607e-02 -2.077204e-02 -5.524006e-02 -8.923831e-02 -1.243676e-01 -1.593729e-01 -1.948327e-01 -2.305494e-01 -2.659453e-01 -3.019988e-01 -3.368744e-01 -3.728100e-01 -4.066547e-01 -4.419426e-01 -4.742031e-01 -5.082509e-01 -5.383483e-01 -5.705200e-01 -5.978708e-01 -6.275119e-01 -6.515515e-01 -6.780177e-01 -6.982250e-01 -7.209133e-01 -7.368339e-01 -7.552123e-01 -7.664793e-01 -7.801127e-01 -7.864635e-01 -7.950340e-01 -7.963207e-01 -7.996405e-01 -7.958343e-01 -7.938500e-01 -7.850392e-01 -7.778285e-01 -7.642108e-01 -7.519717e-01 -7.338411e-01 -7.168763e-01 -6.946070e-01 -6.733040e-01 -6.473320e-01 -6.221425e-01 -5.929469e-01 -5.643654e-01 -5.324509e-01 -5.009963e-01 -4.668768e-01 -4.330756e-01 -3.972617e-01 -3.616348e-01 -3.246229e-01 -2.876761e-01 
-2.505995e-01 -2.124592e-01 -1.740717e-01 -1.355773e-01 -9.736770e-02 -5.894864e-02 -2.130663e-02 1.663709e-02 5.335206e-02 9.044914e-02 1.259071e-01 1.618143e-01 1.957138e-01 2.301156e-01 2.621833e-01 2.947925e-01 3.247833e-01 3.553416e-01 3.830398e-01 4.113200e-01 4.365402e-01 4.623482e-01 4.849370e-01 5.081139e-01 5.279517e-01 5.483757e-01 5.653772e-01 5.829648e-01 5.970797e-01 6.117851e-01 6.229969e-01 6.348113e-01 6.431353e-01 6.520831e-01 6.575632e-01 6.636988e-01 6.664031e-01 6.698047e-01 6.698202e-01 6.705849e-01 6.680120e-01 6.662486e-01 6.611955e-01 6.570192e-01 6.495961e-01 6.431227e-01 6.334374e-01 6.247783e-01 6.129323e-01 6.021911e-01 5.882768e-01 5.755463e-01 5.596455e-01 5.450060e-01 5.271893e-01 5.107081e-01 4.910356e-01 4.727665e-01 4.512894e-01 4.312740e-01 4.080371e-01 3.863060e-01 3.613517e-01 3.379269e-01 3.112992e-01 2.861979e-01 2.579481e-01 2.311874e-01 2.013812e-01 1.729847e-01 1.417097e-01 1.117163e-01 7.909107e-02 4.756535e-02 1.374877e-02 -1.920660e-02 -5.400573e-02 -8.823686e-02 -1.237515e-01 -1.590403e-01 -1.949387e-01 -2.309920e-01 -2.668750e-01 -3.033168e-01 -3.387195e-01 -3.750891e-01 -4.094876e-01 -4.452447e-01 -4.780688e-01 -5.126060e-01 -5.432571e-01 -5.759195e-01 -6.037925e-01 -6.339041e-01 -6.584130e-01 -6.853077e-01 -7.059110e-01 -7.289650e-01 -7.451911e-01 -7.638546e-01 -7.753240e-01 -7.891486e-01 -7.955911e-01 -8.042513e-01 -8.055172e-01 -8.088235e-01 -8.048880e-01 -8.027913e-01 -7.937519e-01 -7.863391e-01 -7.724067e-01 -7.598890e-01 -7.413739e-01 -7.240695e-01 -7.013635e-01 -6.796766e-01 -6.532334e-01 -6.276315e-01 -5.979470e-01 -5.689397e-01 -5.365331e-01 -5.046516e-01 -4.700493e-01 -4.358301e-01 -3.995518e-01 -3.635231e-01 -3.260720e-01 -2.887443e-01 
-2.522149e-01 -2.135193e-01 -1.746716e-01 -1.356520e-01 -9.700906e-02 -5.809656e-02 -2.004929e-02 1.835525e-02 5.544678e-02 9.297165e-02 1.287767e-01 1.650781e-01 1.992943e-01 2.340557e-01 2.664080e-01 2.993405e-01 3.295818e-01 3.604249e-01 3.883369e-01 4.168610e-01 4.422556e-01 4.682642e-01 4.909857e-01 5.143178e-01 5.342448e-01 5.547775e-01 5.718242e-01 5.894741e-01 6.035908e-01 6.183137e-01 6.294860e-01 6.412761e-01 6.495232e-01 6.584097e-01 6.637806e-01 6.698234e-01 6.723926e-01 6.756770e-01 6.755387e-01 6.761689e-01 6.734309e-01 6.715233e-01 6.663013e-01 6.619781e-01 6.543892e-01 6.477726e-01 6.379307e-01 6.291377e-01 6.171494e-01 6.062881e-01 5.922492e-01 5.794159e-01 5.634104e-01 5.486877e-01 5.307869e-01 5.142433e-01 4.945065e-01 4.761958e-01 4.546719e-01 4.346343e-01 4.113647e-01 3.896278e-01 3.646495e-01 3.412308e-01 3.145812e-01 2.894911e-01 2.612136e-01 2.344600e-01 2.046107e-01 1.762059e-01 1.448619e-01 1.148307e-01 8.209944e-02 5.049090e-02 1.652031e-02 -1.657946e-02 -5.159057e-02 -8.604360e-02 -1.218359e-01 -1.574376e-01 -1.936838e-01 -2.301500e-01 -2.664509e-01 -3.034083e-01 -3.392935e-01 -3.762765e-01 -4.112114e-01 -4.476659e-01 -4.810640e-01 -5.163603e-01 -5.476023e-01 -5.810561e-01 -6.095130e-01 -6.404136e-01 -6.654737e-01 -6.931178e-01 -7.142145e-01 -7.379421e-01 -7.545810e-01 -7.738097e-01 -7.855924e-01 -7.998482e-01 -8.064911e-01 -8.154314e-01 -8.167777e-01 -8.202057e-01 -8.162302e-01 -8.140986e-01 -8.049045e-01 -7.973108e-01 -7.831202e-01 -7.702927e-01 -7.514309e-01 -7.337095e-01 -7.105858e-01 -6.883985e-01 -6.614850e-01 -6.353235e-01 -6.051341e-01 -5.755304e-01 -5.426004e-01 -5.101055e-01 -4.749754e-01 -4.401419e-01 -4.033425e-01 -3.667113e-01 -3.287542e-01 -2.908446e-01 
-2.533701e-01 -2.140895e-01 -1.746539e-01 -1.350888e-01 -9.590564e-02 -5.648721e-02 -1.794614e-02 2.092577e-02 5.846657e-02 9.642134e-02 1.326332e-01 1.693278e-01 2.039099e-01 2.390276e-01 2.717061e-01 3.049570e-01 3.354850e-01 3.666072e-01 3.947660e-01 4.235274e-01 4.491284e-01 4.753303e-01 4.982171e-01 5.216969e-01 5.417480e-01 5.623820e-01 5.795123e-01 5.972176e-01 6.113790e-01 6.261138e-01 6.372950e-01 6.490571e-01 6.572814e-01 6.661055e-01 6.714271e-01 6.773796e-01 6.798788e-01 6.830520e-01 6.828291e-01 6.833346e-01 6.805035e-01 6.784646e-01 6.731460e-01 6.686911e-01 6.610068e-01 6.542630e-01 6.443299e-01 6.354181e-01 6.233443e-01 6.123748e-01 5.982567e-01 5.853268e-01 5.692474e-01 5.544396e-01 5.364680e-01 5.198495e-01 5.000418e-01 4.816645e-01 4.600654e-01 4.399667e-01 4.166124e-01 3.948163e-01 3.697375e-01 3.462569e-01 3.194836e-01 2.943227e-01 2.658898e-01 2.390490e-01 2.090029e-01 1.804846e-01 1.488917e-01 1.187093e-01 8.566622e-02 5.385551e-02 1.949955e-02 -1.386714e-02 -4.934583e-02 -8.414363e-02 -1.204912e-01 -1.565261e-01 -1.934159e-01 -2.304097e-01 -2.674370e-01 -3.050160e-01 -3.416982e-01 -3.793883e-01 -4.151708e-01 -4.524011e-01 -4.866713e-01 -5.227868e-01 -5.548938e-01 -5.891778e-01 -6.184582e-01 -6.501633e-01 -6.759700e-01 -7.043544e-01 -7.260877e-01 -7.504547e-01 -7.675914e-01 -7.873272e-01 -7.994473e-01 -8.140540e-01 -8.208608e-01 -8.299817e-01 -8.313147e-01 -8.347493e-01 -8.305889e-01 -8.282968e-01 -8.187604e-01 -8.108543e-01 -7.961850e-01 -7.829155e-01 -7.634643e-01 -7.451975e-01 -7.214016e-01 -6.985934e-01 -6.709532e-01 -6.441225e-01 -6.131781e-01 -5.828815e-01 -5.491915e-01 -5.160008e-01 -4.801245e-01 -4.446090e-01 -4.070917e-01 -3.698041e-01 -3.311675e-01 -2.926350e-01 
-2.554934e-01 -2.154232e-01 -1.753138e-01 -1.350055e-01 -9.519122e-02 -5.507707e-02 -1.594815e-02 2.357201e-02 6.165746e-02 1.002134e-01 1.369266e-01 1.741751e-01 2.092145e-01 2.448378e-01 2.779279e-01 3.116339e-01 3.425250e-01 3.740485e-01 4.025183e-01 4.316236e-01 4.574797e-01 4.839640e-01 5.070466e-01 5.307441e-01 5.509289e-01 5.717139e-01 5.889148e-01 6.067042e-01 6.208740e-01 6.356283e-01 6.467589e-01 6.584804e-01 6.666005e-01 6.753306e-01 6.805021e-01 6.863160e-01 6.886283e-01 6.916284e-01 6.911923e-01 6.915008e-01 6.884410e-01 6.861922e-01 6.806402e-01 6.759726e-01 6.680597e-01 6.611095e-01 6.509612e-01 6.418570e-01 6.295880e-01 6.184463e-01 6.041575e-01 5.910801e-01 5.748571e-01 5.599294e-01 5.418419e-01 5.251324e-01 5.052349e-01 4.867953e-01 4.651291e-01 4.449951e-01 4.215907e-01 3.997824e-01 3.746632e-01 3.511875e-01 3.243741e-01 2.992262e-01 2.707417e-01 2.439095e-01 2.137869e-01 1.852568e-01 1.535471e-01 1.233128e-01 9.009609e-02 5.817035e-02 2.356763e-02 -1.000174e-02 -4.581546e-02 -8.092781e-02 -1.177105e-01 -1.541929e-01 -1.916248e-01 -2.292137e-01 -2.668898e-01 -3.052169e-01 -3.426462e-01 -3.812307e-01 -4.178418e-01 -4.560927e-01 -4.912476e-01 -5.284767e-01 -5.614920e-01 -5.969382e-01 -6.271128e-01 -6.599759e-01 -6.866229e-01 -7.161047e-01 -7.385853e-01 -7.639338e-01 -7.816895e-01 -8.022419e-01 -8.148241e-01 -8.300441e-01 -8.371361e-01 -8.466424e-01 -8.480739e-01 -8.516563e-01 -8.474086e-01 -8.450315e-01 -8.352325e-01 -8.270266e-01 -8.119381e-01 -7.981817e-01 -7.781795e-01 -7.592730e-01 -7.348228e-01 -7.112590e-01 -6.828903e-01 -6.552248e-01 -6.235057e-01 -5.923286e-01 -5.578430e-01 -5.237549e-01 -4.870830e-01 -4.506763e-01 -4.123799e-01 -3.742247e-01 -3.348373e-01 -2.954727e-01 
-2.570604e-01 -2.161757e-01 -1.752688e-01 -1.342019e-01 -9.365538e-02 -5.283771e-02 -1.303938e-02 2.713133e-02 6.582664e-02 1.049822e-01 1.422488e-01 1.800472e-01 2.155859e-01 2.517094e-01 2.852456e-01 3.194003e-01 3.506842e-01 3.826020e-01 4.114101e-01 4.408515e-01 4.669896e-01 4.937480e-01 5.170544e-01 5.409607e-01 5.613104e-01 5.822373e-01 5.995441e-01 6.174091e-01 6.316282e-01 6.463945e-01 6.575218e-01 6.691972e-01 6.772675e-01 6.859013e-01 6.909842e-01 6.966611e-01 6.988548e-01 7.016880e-01 7.011127e-01 7.012354e-01 6.980250e-01 6.955819e-01 6.898762e-01 6.850151e-01 6.769523e-01 6.698171e-01 6.595276e-01 6.502524e-01 6.378540e-01 6.265587e-01 6.121535e-01 5.989414e-01 5.826138e-01 5.675702e-01 5.493873e-01 5.325794e-01 5.125914e-01 4.940684e-01 4.723111e-01 4.521048e-01 4.286018e-01 4.067281e-01 3.814943e-01 3.579535e-01 3.309996e-01 3.057790e-01 2.771161e-01 2.501929e-01 2.198399e-01 1.911865e-01 1.591791e-01 1.287720e-01 9.517322e-02 6.300524e-02 2.791949e-02 -5.983369e-03 -4.239571e-02 -7.795415e-02 -1.154615e-01 -1.525206e-01 -1.908066e-01 -2.291146e-01 -2.677690e-01 -3.069594e-01 -3.454752e-01 -3.850569e-01 -4.228358e-01 -4.621942e-01 -4.985612e-01 -5.369713e-01 -5.711977e-01 -6.078505e-01 -6.391850e-01 -6.732249e-01 -7.009291e-01 -7.314996e-01 -7.548858e-01 -7.811791e-01 -7.996466e-01 -8.209517e-01 -8.340195e-01 -8.497641e-01 -8.570958e-01 -8.668772e-01 -8.682971e-01 -8.718997e-01 -8.673973e-01 -8.647961e-01 -8.545201e-01 -8.458694e-01 -8.301124e-01 -8.157243e-01 -7.948997e-01 -7.752140e-01 -7.498280e-01 -7.253792e-01 -6.960019e-01 -6.673855e-01 -6.346225e-01 -6.024644e-01 -5.669318e-01 -5.318627e-01 -4.941668e-01 -4.568020e-01 -4.175242e-01 -3.784502e-01 -3.381368e-01 -2.979030e-01 
-2.596081e-01 -2.176960e-01 -1.758996e-01 -1.338703e-01 -9.249433e-02 -5.077870e-02 -1.021002e-02 3.079603e-02 7.020416e-02 1.101343e-01 1.480573e-01 1.865704e-01 2.227088e-01 2.594862e-01 2.935635e-01 3.283085e-01 3.600714e-01 3.925111e-01 4.217312e-01 4.516203e-01 4.780978e-01 5.052237e-01 5.287916e-01 5.529800e-01 5.735089e-01 5.946292e-01 6.120312e-01 6.300000e-01 6.442311e-01 6.590142e-01 6.700743e-01 6.816859e-01 6.896172e-01 6.981157e-01 7.029981e-01 7.084805e-01 7.104251e-01 7.130185e-01 7.121598e-01 7.120123e-01 7.084991e-01 7.057701e-01 6.997565e-01 6.946078e-01 6.862452e-01 6.788327e-01 6.682627e-01 6.587305e-01 6.460793e-01 6.345551e-01 6.199306e-01 6.065232e-01 5.900128e-01 5.748110e-01 5.564820e-01 5.395545e-01 5.194548e-01 5.008506e-01 4.790111e-01 4.587602e-01 4.351972e-01 4.133110e-01 3.880300e-01 3.645019e-01 3.375010e-01 3.123075e-01 2.835828e-01 2.566857e-01 2.262382e-01 1.975893e-01 1.654336e-01 1.349831e-01 1.011597e-01 6.886908e-02 3.345887e-02 -6.807164e-04 -3.753930e-02 -7.348388e-02 -1.115771e-01 -1.492036e-01 -1.882260e-01 -2.273060e-01 -2.668485e-01 -3.070259e-01 -3.465706e-01 -3.873475e-01 -4.262727e-01 -4.670081e-01 -5.046028e-01 -5.445258e-01 -5.800151e-01 -6.182537e-01 -6.508325e-01 -6.864559e-01 -7.153287e-01 -7.473995e-01 -7.718223e-01 -7.994537e-01 -8.187753e-01 -8.411866e-01 -8.548853e-01 -8.714499e-01 -8.791616e-01 -8.894431e-01 -8.909791e-01 -8.947505e-01 -8.901028e-01 -8.873487e-01 -8.766832e-01 -8.675860e-01 -8.512240e-01 -8.361378e-01 -8.145297e-01 -7.939446e-01 -7.676383e-01 -7.421421e-01 -7.117500e-01 -6.819899e-01 -6.481576e-01 -6.148059e-01 -5.781844e-01 -5.419106e-01 -5.031349e-01 -4.645847e-01 -4.242578e-01 -3.840394e-01 -3.427227e-01 -3.013992e-01 
-2.614666e-01 -2.185088e-01 -1.757059e-01 -1.327058e-01 -9.040810e-02 -4.779344e-02 -6.382967e-03 3.545473e-02 7.563020e-02 1.163285e-01 1.549493e-01 1.941693e-01 2.309391e-01 2.683621e-01 3.030057e-01 3.383325e-01 3.705956e-01 4.035487e-01 4.332003e-01 4.635284e-01 4.903650e-01 5.178489e-01 5.417002e-01 5.661604e-01 5.868944e-01 6.081969e-01 6.257253e-01 6.437867e-01 6.580675e-01 6.728573e-01 6.838959e-01 6.954354e-01 7.032822e-01 7.116407e-01 7.163864e-01 7.216744e-01 7.234425e-01 7.258022e-01 7.247406e-01 7.243356e-01 7.206060e-01 7.176105e-01 7.113791e-01 7.059677e-01 6.973956e-01 6.897345e-01 6.789705e-01 6.692114e-01 6.563861e-01 6.446611e-01 6.298837e-01 6.163036e-01 5.996605e-01 5.843138e-01 5.658687e-01 5.488219e-01 5.286176e-01 5.099166e-01 4.879770e-01 4.676474e-01 4.439804e-01 4.220283e-01 3.966288e-01 3.730405e-01 3.458942e-01 3.206367e-01 2.917245e-01 2.647463e-01 2.340507e-01 2.052858e-01 1.728001e-01 1.421754e-01 1.079163e-01 7.536512e-02 3.938881e-02 4.870527e-03 -3.270745e-02 -6.918130e-02 -1.081649e-01 -1.465002e-01 -1.865927e-01 -2.265814e-01 -2.673698e-01 -3.086625e-01 -3.496102e-01 -3.916981e-01 -4.321483e-01 -4.743597e-01 -5.135515e-01 -5.550653e-01 -5.921619e-01 -6.320388e-01 -6.661657e-01 -7.033962e-01 -7.336857e-01 -7.672492e-01 -7.928890e-01 -8.218186e-01 -8.420981e-01 -8.655439e-01 -8.798960e-01 -8.971800e-01 -9.052131e-01 -9.158690e-01 -9.173869e-01 -9.211814e-01 -9.161886e-01 -9.131228e-01 -9.018150e-01 -8.921069e-01 -8.748492e-01 -8.589018e-01 -8.361976e-01 -8.145579e-01 -7.870118e-01 -7.603264e-01 -7.286064e-01 -6.975780e-01 -6.623801e-01 -6.277297e-01 -5.897480e-01 -5.521849e-01 -5.120879e-01 -4.722873e-01 -4.307023e-01 -3.892925e-01 -3.467960e-01 -3.043517e-01 
-2.643173e-01 -2.200916e-01 -1.761826e-01 -1.320013e-01 -8.867675e-02 -4.496373e-02 -2.601980e-03 4.025627e-02 8.131167e-02 1.229572e-01 1.623896e-01 2.024859e-01 2.399998e-01 2.782277e-01 3.135458e-01 3.496024e-01 3.824656e-01 4.160667e-01 4.462370e-01 4.771226e-01 5.043883e-01 5.323301e-01 5.565126e-01 5.813227e-01 6.022837e-01 6.238224e-01 6.414698e-01 6.596521e-01 6.739444e-01 6.887423e-01 6.996898e-01 7.111328e-01 7.187953e-01 7.269652e-01 7.314474e-01 7.364709e-01 7.379134e-01 7.399517e-01 7.385216e-01 7.377581e-01 7.336371e-01 7.302659e-01 7.236392e-01 7.178529e-01 7.088989e-01 7.008794e-01 6.897610e-01 6.796724e-01 6.665309e-01 6.545148e-01 6.394665e-01 6.256399e-01 6.087743e-01 5.932295e-01 5.746103e-01 5.574156e-01 5.370822e-01 5.182833e-01 4.962535e-01 4.758741e-01 4.521470e-01 4.301890e-01 4.047477e-01 3.811905e-01 3.540057e-01 3.288046e-01 2.998385e-01 2.729245e-01 2.421370e-01 2.134191e-01 1.807765e-01 1.501484e-01 1.156368e-01 8.299020e-02 4.663359e-02 1.187990e-02 -2.623773e-02 -6.313745e-02 -1.028469e-01 -1.418459e-01 -1.828682e-01 -2.237953e-01 -2.657219e-01 -3.082473e-01 -3.505291e-01 -3.941393e-01 -4.360892e-01 -4.800798e-01 -5.208888e-01 -5.643775e-01 -6.031454e-01 -6.451069e-01 -6.808852e-01 -7.202057e-01 -7.520480e-01 -7.875940e-01 -8.146101e-01 -8.453041e-01 -8.667137e-01 -8.916090e-01 -9.067887e-01 -9.251330e-01 -9.336537e-01 -9.449361e-01 -9.465850e-01 -9.505594e-01 -9.453467e-01 -9.420316e-01 -9.301788e-01 -9.198354e-01 -9.017498e-01 -8.848425e-01 -8.610808e-01 -8.382286e-01 -8.094539e-01 -7.813775e-01 -7.483166e-01 -7.157892e-01 -6.791922e-01 -6.429963e-01 -6.036037e-01 -5.644984e-01 -5.230156e-01 -4.817138e-01 -4.387947e-01 -3.959497e-01 -3.521881e-01 -3.083893e-01 
-2.663046e-01 -2.208025e-01 -1.756803e-01 -1.303193e-01 -8.588832e-02 -4.108509e-02 2.285335e-03 4.615248e-02 8.812784e-02 1.307078e-01 1.709790e-01 2.119393e-01 2.502155e-01 2.892372e-01 3.252425e-01 3.620189e-01 3.954923e-01 4.297320e-01 4.604305e-01 4.918641e-01 5.195698e-01 5.479590e-01 5.724869e-01 5.976349e-01 6.188417e-01 6.406031e-01 6.583949e-01 6.766832e-01 6.910206e-01 7.058123e-01 7.167119e-01 7.280459e-01 7.355786e-01 7.435514e-01 7.478361e-01 7.525928e-01 7.537875e-01 7.555099e-01 7.537999e-01 7.526927e-01 7.482776e-01 7.445547e-01 7.376362e-01 7.315075e-01 7.222770e-01 7.139381e-01 7.025683e-01 6.921925e-01 6.788305e-01 6.665646e-01 6.513282e-01 6.372911e-01 6.202681e-01 6.045509e-01 5.858005e-01 5.684686e-01 5.480235e-01 5.291185e-01 5.069882e-01 4.865289e-01 4.627025e-01 4.406854e-01 4.151340e-01 3.915312e-01 3.642112e-01 3.389680e-01 3.098234e-01 2.828563e-01 2.518241e-01 2.230207e-01 1.900396e-01 1.592640e-01 1.242877e-01 9.139392e-02 5.441096e-02 1.926581e-02 -1.967436e-02 -5.715759e-02 -9.791467e-02 -1.377339e-01 -1.800463e-01 -2.220648e-01 -2.655241e-01 -3.094276e-01 -3.534638e-01 -3.987295e-01 -4.426114e-01 -4.884970e-01 -5.313500e-01 -5.769063e-01 -6.177473e-01 -6.618574e-01 -6.996436e-01 -7.410848e-01 -7.747718e-01 -8.122943e-01 -8.408983e-01 -8.733127e-01 -8.959717e-01 -9.222347e-01 -9.382632e-01 -9.575510e-01 -9.664825e-01 -9.782443e-01 -9.798567e-01 -9.838404e-01 -9.781621e-01 -9.744123e-01 -9.617079e-01 -9.505380e-01 -9.312767e-01 -9.132219e-01 -8.880338e-01 -8.637929e-01 -8.334187e-01 -8.037934e-01 -7.690344e-01 -7.348725e-01 -6.965456e-01 -6.586935e-01 -6.175939e-01 -5.768611e-01 -5.337358e-01 -4.908711e-01 -4.464021e-01 -4.020816e-01 -3.568789e-01 -3.117029e-01 
-2.692906e-01 -2.222802e-01 -1.758368e-01 -1.290795e-01 -8.342811e-02 -3.733119e-02 7.167294e-03 5.223570e-02 9.525508e-02 1.389525e-01 1.801896e-01 2.221885e-01 2.613551e-01 3.013366e-01 3.381544e-01 3.758069e-01 4.100084e-01 4.450309e-01 4.763630e-01 5.084733e-01 5.367058e-01 5.656515e-01 5.905870e-01 6.161584e-01 6.376434e-01 6.596859e-01 6.776202e-01 6.960435e-01 7.103868e-01 7.251702e-01 7.359450e-01 7.471374e-01 7.544268e-01 7.621412e-01 7.660823e-01 7.704856e-01 7.712591e-01 7.725583e-01 7.703748e-01 7.688013e-01 7.638870e-01 7.596804e-01 7.522618e-01 7.456555e-01 7.359465e-01 7.271555e-01 7.153466e-01 7.045595e-01 6.908109e-01 6.781852e-01 6.626228e-01 6.482840e-01 6.309991e-01 6.150421e-01 5.960928e-01 5.785846e-01 5.579992e-01 5.389812e-01 5.167617e-01 4.962514e-01 4.723763e-01 4.503672e-01 4.247944e-01 4.012525e-01 3.739209e-01 3.487809e-01 3.196130e-01 2.927730e-01 2.616784e-01 2.329978e-01 1.998814e-01 1.691839e-01 1.339596e-01 1.010456e-01 6.365788e-02 2.832922e-02 -1.121731e-02 -4.911874e-02 -9.072393e-02 -1.312661e-01 -1.746972e-01 -2.178013e-01 -2.626610e-01 -3.080474e-01 -3.537535e-01 -4.009011e-01 -4.466844e-01 -4.948122e-01 -5.397349e-01 -5.878143e-01 -6.308087e-01 -6.776065e-01 -7.175302e-01 -7.616806e-01 -7.973822e-01 -8.374795e-01 -8.678696e-01 -9.025714e-01 -9.266928e-01 -9.548223e-01 -9.719131e-01 -9.925461e-01 -1.002089e+00 -1.014616e+00 -1.016369e+00 -1.020526e+00 -1.014528e+00 -1.010389e+00 -9.969420e-01 -9.848864e-01 -9.645211e-01 -9.451728e-01 -9.185942e-01 -8.927533e-01 -8.607835e-01 -8.293533e-01 -7.928732e-01 -7.567953e-01 -7.166932e-01 -6.768935e-01 -6.340243e-01 -5.913744e-01 -5.465305e-01 -5.018233e-01 -4.557181e-01 -4.096569e-01 -3.629185e-01 -3.161170e-01 
-2.711927e-01 -2.226791e-01 -1.748224e-01 -1.266837e-01 -7.975005e-02 -3.237986e-02 1.328508e-02 5.953279e-02 1.036172e-01 1.484113e-01 1.906236e-01 2.336432e-01 2.737019e-01 3.146289e-01 3.522572e-01 3.907745e-01 4.257009e-01 4.614967e-01 4.934602e-01 5.262377e-01 5.549974e-01 5.844886e-01 6.098363e-01 6.358175e-01 6.575910e-01 6.798977e-01 6.979924e-01 7.165312e-01 7.309083e-01 7.456630e-01 7.563527e-01 7.673847e-01 7.744842e-01 7.819260e-01 7.855919e-01 7.896352e-01 7.900712e-01 7.909511e-01 7.883927e-01 7.863691e-01 7.810669e-01 7.764061e-01 7.686083e-01 7.615662e-01 7.515044e-01 7.423133e-01 7.301903e-01 7.190501e-01 7.050328e-01 6.921065e-01 6.763223e-01 6.617363e-01 6.442736e-01 6.281199e-01 6.090307e-01 5.913714e-01 5.706755e-01 5.515468e-01 5.292361e-01 5.086504e-01 4.846925e-01 4.626379e-01 4.369780e-01 4.134149e-01 3.859764e-01 3.608308e-01 3.315160e-01 3.046719e-01 2.733640e-01 2.446575e-01 2.112266e-01 1.804461e-01 1.447631e-01 1.116600e-01 7.362011e-02 3.793495e-02 -2.508514e-03 -4.100288e-02 -8.379571e-02 -1.252354e-01 -1.701765e-01 -2.145388e-01 -2.612391e-01 -3.082757e-01 -3.561316e-01 -4.053173e-01 -4.535051e-01 -5.040137e-01 -5.515102e-01 -6.022257e-01 -6.478530e-01 -6.974185e-01 -7.399079e-01 -7.868084e-01 -8.248764e-01 -8.675457e-01 -8.999761e-01 -9.369167e-01 -9.626414e-01 -9.925427e-01 -1.010715e+00 -1.032555e+00 -1.042608e+00 -1.055726e+00 -1.057405e+00 -1.061531e+00 -1.054904e+00 -1.050155e+00 -1.035585e+00 -1.022417e+00 -1.000522e+00 -9.796598e-01 -9.512470e-01 -9.236024e-01 -8.895986e-01 -8.561849e-01 -8.175701e-01 -7.794277e-01 -7.371763e-01 -6.953128e-01 -6.503480e-01 -6.056965e-01 -5.588604e-01 -5.122553e-01 -4.642923e-01 -4.164604e-01 -3.680133e-01 -3.195764e-01 
-2.740897e-01 -2.238327e-01 -1.744457e-01 -1.247050e-01 -7.636575e-02 -2.751679e-02 1.944472e-02 6.706583e-02 1.123524e-01 1.584291e-01 2.017595e-01 2.459797e-01 2.870771e-01 3.291238e-01 3.677092e-01 4.072586e-01 4.430512e-01 4.797775e-01 5.125017e-01 5.460891e-01 5.754856e-01 6.056448e-01 6.314869e-01 6.579744e-01 6.800836e-01 7.027202e-01 7.209813e-01 7.396665e-01 7.540382e-01 7.687582e-01 7.792772e-01 7.901060e-01 7.968850e-01 8.039769e-01 8.071963e-01 8.107721e-01 8.106655e-01 8.109939e-01 8.078309e-01 8.052071e-01 7.992726e-01 7.939967e-01 7.855721e-01 7.779298e-01 7.672748e-01 7.575228e-01 7.448627e-01 7.332185e-01 7.187360e-01 7.053742e-01 6.892056e-01 6.742589e-01 6.564955e-01 6.400588e-01 6.207502e-01 6.028862e-01 5.820462e-01 5.627907e-01 5.404020e-01 5.197671e-01 4.957854e-01 4.737583e-01 4.481143e-01 4.246526e-01 3.972512e-01 3.722736e-01 3.429934e-01 3.163676e-01 2.850603e-01 2.565930e-01 2.230880e-01 1.925206e-01 1.566381e-01 1.236547e-01 8.523031e-02 4.948500e-02 8.408445e-03 -3.042636e-02 -7.416086e-02 -1.163244e-01 -1.625624e-01 -2.081223e-01 -2.564976e-01 -3.052658e-01 -3.551652e-01 -4.066306e-01 -4.571844e-01 -5.104778e-01 -5.605809e-01 -6.144837e-01 -6.628463e-01 -7.158454e-01 -7.610652e-01 -8.114500e-01 -8.521000e-01 -8.980890e-01 -9.328105e-01 -9.726948e-01 -1.000291e+00 -1.032576e+00 -1.052096e+00 -1.075624e+00 -1.086433e+00 -1.100467e+00 -1.102287e+00 -1.106549e+00 -1.099462e+00 -1.094119e+00 -1.078549e+00 -1.064155e+00 -1.040805e+00 -1.018214e+00 -9.879970e-01 -9.582628e-01 -9.222169e-01 -8.864908e-01 -8.457027e-01 -8.051480e-01 -7.606854e-01 -7.164102e-01 -6.692714e-01 -6.222838e-01 -5.733651e-01 -5.245490e-01 -4.746293e-01 -4.247382e-01 -3.744774e-01 -3.241417e-01 
-2.756303e-01 -2.236536e-01 -1.726660e-01 -1.213562e-01 -7.157401e-02 -2.128270e-02 2.698859e-02 7.594803e-02 1.224333e-01 1.697624e-01 2.141975e-01 2.595945e-01 3.017123e-01 3.448617e-01 3.843845e-01 4.249546e-01 4.615951e-01 4.992439e-01 5.327131e-01 5.671027e-01 5.971244e-01 6.279414e-01 6.542712e-01 6.812501e-01 7.036949e-01 7.266405e-01 7.450768e-01 7.638822e-01 7.782686e-01 7.929249e-01 8.033074e-01 8.139048e-01 8.204145e-01 8.271333e-01 8.299764e-01 8.330712e-01 8.325126e-01 8.322898e-01 8.286325e-01 8.254257e-01 8.189875e-01 8.131321e-01 8.042233e-01 7.960346e-01 7.849378e-01 7.746938e-01 7.616499e-01 7.495811e-01 7.347801e-01 7.210661e-01 7.046448e-01 6.894167e-01 6.714613e-01 6.548080e-01 6.353590e-01 6.173355e-01 5.963957e-01 5.770302e-01 5.545707e-01 5.338694e-01 5.098342e-01 4.877810e-01 4.620881e-01 4.386380e-01 4.111779e-01 3.862453e-01 3.568763e-01 3.303186e-01 2.988636e-01 2.704653e-01 2.367125e-01 2.061753e-01 1.698895e-01 1.368363e-01 9.778503e-02 6.178724e-02 1.978505e-02 -1.958382e-02 -6.461462e-02 -1.076969e-01 -1.556566e-01 -2.026101e-01 -2.531558e-01 -3.038498e-01 -3.563490e-01 -4.102803e-01 -4.637967e-01 -5.200437e-01 -5.733609e-01 -6.305917e-01 -6.822731e-01 -7.388081e-01 -7.872832e-01 -8.412077e-01 -8.848725e-01 -9.341839e-01 -9.715089e-01 -1.014283e+00 -1.043921e+00 -1.078479e+00 -1.099365e+00 -1.124415e+00 -1.135845e+00 -1.150583e+00 -1.152264e+00 -1.156413e+00 -1.148474e+00 -1.142266e+00 -1.125215e+00 -1.109321e+00 -1.083987e+00 -1.059404e+00 -1.026839e+00 -9.947766e-01 -9.561630e-01 -9.179200e-01 -8.744747e-01 -8.313437e-01 -7.842440e-01 -7.374354e-01 -6.877633e-01 -6.383583e-01 -5.870667e-01 -5.359944e-01 -4.838939e-01 -4.319286e-01 -3.796897e-01 -3.274632e-01 