# vtk DataFile Version 2.0
Comment goes here
ASCII

DATASET STRUCTURED_POINTS
FIELD FieldData 1
TIME 1 1 double
0.07000000
DIMENSIONS    128   128   1

ORIGIN    0.000   0.000   0.000
SPACING   0.039062 0.039062   1.000

POINT_DATA   16384
SCALARS uX double
LOOKUP_TABLE default

-1.378666e-01 -1.009447e-01 -6.795529e-02 -3.118149e-02 1.512371e-03 3.775354e-02 6.979870e-02 1.051503e-01 1.362182e-01 1.703503e-01 2.001371e-01 2.327462e-01 2.609727e-01 2.917814e-01 3.181933e-01 3.469508e-01 3.713194e-01 3.978019e-01 4.199251e-01 4.439376e-01 4.636413e-01 4.850193e-01 5.021592e-01 5.207701e-01 5.352332e-01 5.509786e-01 5.626844e-01 5.755007e-01 5.844024e-01 5.942612e-01 6.003454e-01 6.072528e-01 6.105392e-01 6.145337e-01 6.150735e-01 6.162236e-01 6.140967e-01 6.124967e-01 6.078092e-01 6.035746e-01 5.964547e-01 5.897170e-01 5.803112e-01 5.712128e-01 5.596814e-01 5.483700e-01 5.348832e-01 5.215069e-01 5.062404e-01 4.909434e-01 4.740749e-01 4.569936e-01 4.386988e-01 4.199590e-01 4.004088e-01 3.801233e-01 3.594806e-01 3.377490e-01 3.161661e-01 2.930739e-01 2.706901e-01 2.463110e-01 2.232510e-01 1.976485e-01 1.740215e-01 1.472536e-01 1.231529e-01 9.527754e-02 7.078286e-02 4.186491e-02 1.704513e-02 -1.283441e-02 -3.791543e-02 -6.864953e-02 -9.392517e-02 -1.253700e-01 -1.507611e-01 -1.827252e-01 -2.081292e-01 -2.403644e-01 -2.656434e-01 -2.978382e-01 -3.228088e-01 -3.545860e-01 -3.790116e-01 -4.099308e-01 -4.335179e-01 -4.630846e-01 -4.854848e-01 -5.131650e-01 -5.339833e-01 -5.592237e-01 -5.780329e-01 -6.002846e-01 -6.166450e-01 -6.353899e-01 -6.488722e-01 -6.636487e-01 -6.738584e-01 -6.842849e-01 -6.908857e-01 -6.966793e-01 -6.994127e-01 -7.004020e-01 -6.991019e-01 -6.952333e-01 -6.898343e-01 -6.811710e-01 -6.717101e-01 -6.584248e-01 -6.450370e-01 -6.273998e-01 -6.103083e-01 -5.886703e-01 -5.681732e-01 -5.429489e-01 -5.194037e-01 -4.910521e-01 -4.648594e-01 -4.338661e-01 -4.054540e-01 -3.723161e-01 -3.421259e-01 -3.073385e-01 -2.758128e-01 -2.398586e-01 -2.074320e-01 -1.707745e-01 
-1.371159e-01 -1.001826e-01 -6.713716e-02 -3.035164e-02 2.394489e-03 3.864782e-02 7.074130e-02 1.061056e-01 1.372175e-01 1.713626e-01 2.011886e-01 2.338109e-01 2.620710e-01 2.928925e-01 3.193317e-01 3.481008e-01 3.724894e-01 3.989814e-01 4.211165e-01 4.451351e-01 4.648417e-01 4.862212e-01 5.033541e-01 5.219609e-01 5.364063e-01 5.521406e-01 5.638176e-01 5.766149e-01 5.854766e-01 5.953074e-01 6.013406e-01 6.082107e-01 6.114356e-01 6.153833e-01 6.158518e-01 6.169457e-01 6.147392e-01 6.130742e-01 6.083001e-01 6.039925e-01 5.967808e-01 5.899636e-01 5.804624e-01 5.712798e-01 5.596514e-01 5.482529e-01 5.346693e-01 5.212054e-01 5.058442e-01 4.904614e-01 4.735019e-01 4.563390e-01 4.379588e-01 4.191439e-01 3.995152e-01 3.791638e-01 3.584506e-01 3.366644e-01 3.150201e-01 2.918865e-01 2.694514e-01 2.450456e-01 2.219450e-01 1.963317e-01 1.726749e-01 1.459126e-01 1.217933e-01 9.393974e-02 6.943704e-02 4.055638e-02 1.573850e-02 -1.408989e-02 -3.916024e-02 -6.983158e-02 -9.508941e-02 -1.264626e-01 -1.518308e-01 -1.837179e-01 -2.090959e-01 -2.412520e-01 -2.665044e-01 -2.986215e-01 -3.235669e-01 -3.552710e-01 -3.796744e-01 -4.105276e-01 -4.340964e-01 -4.636062e-01 -4.859921e-01 -5.136253e-01 -5.344327e-01 -5.596359e-01 -5.784361e-01 -6.006597e-01 -6.170108e-01 -6.357351e-01 -6.492055e-01 -6.639672e-01 -6.741601e-01 -6.845756e-01 -6.911528e-01 -6.969372e-01 -6.996388e-01 -7.006194e-01 -6.992788e-01 -6.954008e-01 -6.899529e-01 -6.812789e-01 -6.717616e-01 -6.584641e-01 -6.450136e-01 -6.273630e-01 -6.102040e-01 -5.885519e-01 -5.679844e-01 -5.427457e-01 -5.191288e-01 -4.907628e-01 -4.644984e-01 -4.334913e-01 -4.050087e-01 -3.718577e-01 -3.415990e-01 -3.067992e-01 -2.752077e-01 -2.392416e-01 -2.067523e-01 -1.700832e-01 
-1.380398e-01 -1.009118e-01 -6.773376e-02 -3.076764e-02 2.102764e-03 3.852243e-02 7.073184e-02 1.062484e-01 1.374682e-01 1.717520e-01 2.016784e-01 2.344262e-01 2.627798e-01 2.937140e-01 3.202403e-01 3.491096e-01 3.735792e-01 4.001593e-01 4.223695e-01 4.464643e-01 4.662402e-01 4.876843e-01 5.048808e-01 5.235409e-01 5.380442e-01 5.538214e-01 5.655507e-01 5.783812e-01 5.872896e-01 5.971453e-01 6.032197e-01 6.101077e-01 6.133686e-01 6.173289e-01 6.178286e-01 6.189315e-01 6.167516e-01 6.150938e-01 6.103422e-01 6.060417e-01 5.988485e-01 5.920395e-01 5.825535e-01 5.733810e-01 5.617645e-01 5.503788e-01 5.368040e-01 5.233555e-01 5.080001e-01 4.926349e-01 4.756782e-01 4.585340e-01 4.401536e-01 4.213572e-01 4.017254e-01 3.813903e-01 3.606713e-01 3.388968e-01 3.172441e-01 2.941152e-01 2.716690e-01 2.472580e-01 2.241434e-01 1.985119e-01 1.748380e-01 1.480412e-01 1.239008e-01 9.599287e-02 7.146368e-02 4.250524e-02 1.765346e-02 -1.227961e-02 -3.739397e-02 -6.820007e-02 -9.351526e-02 -1.250558e-01 -1.504983e-01 -1.825866e-01 -2.080594e-01 -2.404505e-01 -2.658211e-01 -2.982046e-01 -3.232935e-01 -3.552909e-01 -3.798632e-01 -4.110297e-01 -4.347909e-01 -4.646246e-01 -4.872222e-01 -5.151791e-01 -5.362110e-01 -5.617256e-01 -5.807547e-01 -6.032652e-01 -6.198404e-01 -6.388157e-01 -6.524953e-01 -6.674624e-01 -6.778404e-01 -6.884081e-01 -6.951382e-01 -7.010171e-01 -7.038337e-01 -7.048495e-01 -7.035822e-01 -6.996818e-01 -6.942643e-01 -6.855144e-01 -6.759861e-01 -6.625656e-01 -6.490662e-01 -6.312531e-01 -6.140125e-01 -5.921673e-01 -5.714914e-01 -5.460375e-01 -5.222920e-01 -4.936973e-01 -4.672906e-01 -4.360488e-01 -4.074160e-01 -3.740305e-01 -3.436189e-01 -3.085900e-01 -2.768470e-01 -2.406611e-01 -2.080247e-01 -1.711476e-01 
-1.374590e-01 -1.001136e-01 -6.669079e-02 -2.952083e-02 3.578660e-03 4.018892e-02 7.261128e-02 1.083056e-01 1.397219e-01 1.741709e-01 2.042766e-01 2.371768e-01 2.656919e-01 2.967652e-01 3.234340e-01 3.524277e-01 3.770194e-01 4.037075e-01 4.260176e-01 4.502021e-01 4.700539e-01 4.915670e-01 5.088136e-01 5.275201e-01 5.420463e-01 5.578453e-01 5.695695e-01 5.823959e-01 5.912707e-01 6.010960e-01 6.071091e-01 6.139406e-01 6.171136e-01 6.209926e-01 6.213799e-01 6.223788e-01 6.200648e-01 6.182832e-01 6.133791e-01 6.089384e-01 6.015783e-01 5.946169e-01 5.849533e-01 5.756207e-01 5.638200e-01 5.522709e-01 5.385095e-01 5.248988e-01 5.093580e-01 4.938361e-01 4.766989e-01 4.594077e-01 4.408549e-01 4.219245e-01 4.021313e-01 3.816783e-01 3.608115e-01 3.389375e-01 3.171528e-01 2.939442e-01 2.713836e-01 2.469130e-01 2.237028e-01 1.980310e-01 1.742806e-01 1.474606e-01 1.232619e-01 9.534423e-02 7.077322e-02 4.181314e-02 1.693245e-02 -1.300076e-02 -3.813618e-02 -6.894868e-02 -9.428365e-02 -1.258452e-01 -1.513138e-01 -1.834457e-01 -2.089593e-01 -2.414236e-01 -2.668572e-01 -2.993486e-01 -3.245290e-01 -3.566708e-01 -3.813666e-01 -4.127126e-01 -4.366295e-01 -4.666724e-01 -4.894539e-01 -5.176404e-01 -5.388764e-01 -5.646289e-01 -5.838710e-01 -6.066137e-01 -6.233965e-01 -6.425838e-01 -6.564510e-01 -6.715959e-01 -6.821272e-01 -6.928269e-01 -6.996640e-01 -7.056207e-01 -7.084891e-01 -7.095238e-01 -7.082486e-01 -7.043075e-01 -6.988219e-01 -6.899747e-01 -6.803212e-01 -6.667531e-01 -6.530778e-01 -6.350752e-01 -6.176164e-01 -5.955492e-01 -5.746226e-01 -5.489242e-01 -5.249052e-01 -4.960529e-01 -4.693593e-01 -4.378549e-01 -4.089301e-01 -3.752839e-01 -3.445819e-01 -3.092992e-01 -2.772726e-01 -2.408434e-01 -2.079343e-01 -1.708263e-01 
-1.385348e-01 -1.007877e-01 -6.704324e-02 -2.950022e-02 3.900079e-03 4.085494e-02 7.355714e-02 1.095683e-01 1.412439e-01 1.759828e-01 2.063281e-01 2.394920e-01 2.682273e-01 2.995383e-01 3.264081e-01 3.556137e-01 3.803871e-01 4.072606e-01 4.297327e-01 4.540753e-01 4.740686e-01 4.957120e-01 5.130788e-01 5.318872e-01 5.465116e-01 5.623843e-01 5.741841e-01 5.870568e-01 5.959847e-01 6.058304e-01 6.118746e-01 6.187030e-01 6.218862e-01 6.257418e-01 6.261198e-01 6.270789e-01 6.247381e-01 6.229043e-01 6.179581e-01 6.134573e-01 6.060422e-01 5.990168e-01 5.892877e-01 5.798909e-01 5.680168e-01 5.564062e-01 5.425654e-01 5.288985e-01 5.132745e-01 4.977028e-01 4.804803e-01 4.631463e-01 4.445077e-01 4.255411e-01 4.056632e-01 3.851789e-01 3.642300e-01 3.423274e-01 3.204644e-01 2.972267e-01 2.745925e-01 2.500881e-01 2.268096e-01 2.010941e-01 1.772805e-01 1.504005e-01 1.261423e-01 9.814133e-02 7.351133e-02 4.443648e-02 1.949260e-02 -1.059569e-02 -3.580518e-02 -6.682196e-02 -9.225027e-02 -1.240735e-01 -1.496643e-01 -1.821218e-01 -2.077961e-01 -2.406534e-01 -2.662950e-01 -2.992461e-01 -3.246881e-01 -3.573504e-01 -3.823638e-01 -4.142795e-01 -4.385672e-01 -4.692119e-01 -4.924090e-01 -5.212078e-01 -5.428901e-01 -5.692406e-01 -5.889409e-01 -6.122409e-01 -6.294723e-01 -6.491510e-01 -6.634340e-01 -6.789821e-01 -6.898748e-01 -7.008724e-01 -7.079979e-01 -7.141359e-01 -7.172060e-01 -7.183010e-01 -7.171328e-01 -7.131333e-01 -7.076582e-01 -6.986422e-01 -6.889068e-01 -6.750726e-01 -6.612317e-01 -6.428823e-01 -6.251866e-01 -6.027101e-01 -5.814897e-01 -5.553383e-01 -5.309839e-01 -5.016524e-01 -4.745964e-01 -4.426023e-01 -4.133014e-01 -3.791682e-01 -3.480877e-01 -3.123307e-01 -2.799322e-01 -2.430489e-01 -2.097808e-01 -1.722436e-01 
-1.380957e-01 -9.992522e-02 -6.574635e-02 -2.780766e-02 5.999032e-03 4.332252e-02 7.640269e-02 1.127565e-01 1.447815e-01 1.798378e-01 2.105035e-01 2.439597e-01 2.729856e-01 3.045632e-01 3.316922e-01 3.611367e-01 3.861360e-01 4.132182e-01 4.358799e-01 4.603980e-01 4.805419e-01 5.023239e-01 5.197994e-01 5.387065e-01 5.533954e-01 5.693239e-01 5.811425e-01 5.940266e-01 6.029271e-01 6.127396e-01 6.187108e-01 6.254624e-01 6.285291e-01 6.322670e-01 6.324885e-01 6.332929e-01 6.307602e-01 6.287401e-01 6.235719e-01 6.188597e-01 6.111985e-01 6.039433e-01 5.939505e-01 5.843129e-01 5.721636e-01 5.603087e-01 5.461876e-01 5.322795e-01 5.163759e-01 5.005728e-01 4.830769e-01 4.655268e-01 4.466258e-01 4.274632e-01 4.073385e-01 3.866822e-01 3.655060e-01 3.434576e-01 3.213902e-01 2.980341e-01 2.752214e-01 2.506252e-01 2.271958e-01 2.014127e-01 1.774763e-01 1.505481e-01 1.261941e-01 9.815696e-02 7.345483e-02 4.434606e-02 1.934752e-02 -1.078446e-02 -3.604022e-02 -6.712425e-02 -9.260227e-02 -1.245308e-01 -1.501888e-01 -1.828036e-01 -2.085775e-01 -2.416556e-01 -2.674435e-01 -3.006861e-01 -3.263326e-01 -3.593586e-01 -3.846411e-01 -4.169873e-01 -4.416086e-01 -4.727375e-01 -4.963247e-01 -5.256418e-01 -5.477549e-01 -5.746323e-01 -5.947815e-01 -6.185887e-01 -6.362595e-01 -6.563963e-01 -6.710807e-01 -6.870108e-01 -6.982389e-01 -7.095201e-01 -7.168918e-01 -7.231991e-01 -7.264094e-01 -7.275516e-01 -7.264086e-01 -7.223341e-01 -7.167683e-01 -7.075625e-01 -6.976268e-01 -6.835013e-01 -6.693628e-01 -6.506380e-01 -6.325638e-01 -6.096477e-01 -5.879863e-01 -5.613510e-01 -5.365121e-01 -5.066714e-01 -4.791051e-01 -4.465930e-01 -4.167717e-01 -3.821250e-01 -3.505268e-01 -3.142712e-01 -2.813677e-01 -2.440075e-01 -2.102540e-01 -1.722658e-01 
-1.392758e-01 -1.004957e-01 -6.580501e-02 -2.730091e-02 6.983198e-03 4.482885e-02 7.835230e-02 1.151866e-01 1.476217e-01 1.831186e-01 2.141622e-01 2.480201e-01 2.773925e-01 3.093332e-01 3.367773e-01 3.665458e-01 3.918280e-01 4.191936e-01 4.421048e-01 4.668639e-01 4.872221e-01 5.092007e-01 5.268535e-01 5.459110e-01 5.607387e-01 5.767710e-01 5.886886e-01 6.016305e-01 6.105901e-01 6.204160e-01 6.264072e-01 6.331315e-01 6.361810e-01 6.398557e-01 6.400256e-01 6.407371e-01 6.381219e-01 6.359860e-01 6.307088e-01 6.258650e-01 6.180728e-01 6.106777e-01 6.005366e-01 5.907572e-01 5.784469e-01 5.664541e-01 5.521635e-01 5.381261e-01 5.220484e-01 5.061278e-01 4.884567e-01 4.708029e-01 4.517289e-01 4.324768e-01 4.121843e-01 3.914516e-01 3.701155e-01 3.480015e-01 3.257850e-01 3.023700e-01 2.794209e-01 2.547672e-01 2.312157e-01 2.053692e-01 1.813251e-01 1.543188e-01 1.298698e-01 1.017285e-01 7.693970e-02 4.768794e-02 2.260357e-02 -7.724956e-03 -3.307648e-02 -6.442611e-02 -9.002390e-02 -1.223021e-01 -1.481203e-01 -1.811816e-01 -2.071735e-01 -2.408033e-01 -2.668828e-01 -3.007842e-01 -3.268081e-01 -3.605932e-01 -3.863447e-01 -4.195340e-01 -4.447128e-01 -4.767434e-01 -5.009640e-01 -5.312070e-01 -5.540070e-01 -5.817949e-01 -6.026537e-01 -6.273136e-01 -6.456805e-01 -6.665711e-01 -6.818997e-01 -6.984484e-01 -7.102328e-01 -7.219686e-01 -7.297779e-01 -7.363577e-01 -7.398643e-01 -7.410895e-01 -7.400891e-01 -7.359118e-01 -7.303328e-01 -7.208520e-01 -7.107546e-01 -6.962033e-01 -6.817702e-01 -6.624957e-01 -6.440149e-01 -6.204547e-01 -5.982991e-01 -5.709551e-01 -5.455592e-01 -5.149730e-01 -4.868111e-01 -4.535412e-01 -4.231068e-01 -3.877101e-01 -3.554991e-01 -3.185166e-01 -2.850142e-01 -2.469607e-01 -2.126321e-01 -1.739909e-01 
-1.389242e-01 -9.951446e-02 -6.419851e-02 -2.510765e-02 9.760584e-03 4.815187e-02 8.221850e-02 1.195595e-01 1.524973e-01 1.884637e-01 2.199697e-01 2.542606e-01 2.840542e-01 3.163905e-01 3.442129e-01 3.743373e-01 3.999518e-01 4.276300e-01 4.508236e-01 4.758473e-01 4.964337e-01 5.186237e-01 5.364463e-01 5.556573e-01 5.705927e-01 5.867166e-01 5.986774e-01 6.116466e-01 6.205840e-01 6.303727e-01 6.362772e-01 6.429016e-01 6.458029e-01 6.493192e-01 6.492841e-01 6.497850e-01 6.469145e-01 6.445238e-01 6.389489e-01 6.338153e-01 6.256916e-01 6.179821e-01 6.074845e-01 5.973766e-01 5.846939e-01 5.723687e-01 5.576983e-01 5.433343e-01 5.268774e-01 5.106448e-01 4.926024e-01 4.746587e-01 4.552279e-01 4.357142e-01 4.150854e-01 3.941239e-01 3.724775e-01 3.501704e-01 3.276743e-01 3.041029e-01 2.809090e-01 2.561341e-01 2.323757e-01 2.064392e-01 1.822273e-01 1.551549e-01 1.305761e-01 1.023820e-01 7.749678e-02 4.819086e-02 2.303511e-02 -7.366873e-03 -3.277803e-02 -6.424124e-02 -8.990468e-02 -1.223588e-01 -1.482702e-01 -1.815910e-01 -2.077271e-01 -2.417178e-01 -2.680157e-01 -3.023906e-01 -3.287255e-01 -3.630990e-01 -3.892655e-01 -4.231491e-01 -4.488475e-01 -4.816572e-01 -5.064899e-01 -5.375652e-01 -5.610451e-01 -5.896776e-01 -6.112482e-01 -6.367194e-01 -6.557867e-01 -6.774086e-01 -6.933798e-01 -7.105370e-01 -7.228623e-01 -7.350488e-01 -7.432604e-01 -7.501090e-01 -7.538532e-01 -7.551537e-01 -7.542127e-01 -7.499186e-01 -7.442200e-01 -7.344434e-01 -7.240585e-01 -7.090546e-01 -6.941859e-01 -6.743306e-01 -6.552924e-01 -6.310548e-01 -6.082491e-01 -5.801630e-01 -5.540538e-01 -5.226902e-01 -4.937791e-01 -4.597221e-01 -4.285261e-01 -3.923531e-01 -3.593873e-01 -3.216543e-01 -2.874183e-01 -2.486503e-01 -2.136191e-01 -1.743048e-01 
-1.401315e-01 -9.990364e-02 -6.388461e-02 -2.403688e-02 1.148509e-02 5.057448e-02 8.524685e-02 1.232304e-01 1.567281e-01 1.932844e-01 2.253062e-01 2.601364e-01 2.904028e-01 3.232281e-01 3.514804e-01 3.820422e-01 4.080422e-01 4.361037e-01 4.596362e-01 4.849854e-01 5.058610e-01 5.283153e-01 5.463740e-01 5.657848e-01 5.809005e-01 5.971579e-01 6.092413e-01 6.222776e-01 6.312793e-01 6.410710e-01 6.469826e-01 6.535507e-01 6.564045e-01 6.598118e-01 6.596790e-01 6.600270e-01 6.570142e-01 6.544366e-01 6.486812e-01 6.433377e-01 6.350023e-01 6.270701e-01 6.163369e-01 6.060037e-01 5.930682e-01 5.805239e-01 5.655900e-01 5.510202e-01 5.342949e-01 5.178752e-01 4.995646e-01 4.814557e-01 4.617617e-01 4.421061e-01 4.212235e-01 4.001429e-01 3.782564e-01 3.558504e-01 3.331321e-01 3.094775e-01 2.860830e-01 2.612342e-01 2.372995e-01 2.112892e-01 1.869267e-01 1.597690e-01 1.350639e-01 1.067579e-01 8.176566e-02 5.230317e-02 2.704979e-02 -3.574768e-03 -2.908936e-02 -6.086448e-02 -8.665770e-02 -1.195367e-01 -1.456290e-01 -1.795089e-01 -2.059041e-01 -2.406036e-01 -2.672644e-01 -3.025040e-01 -3.293263e-01 -3.647139e-01 -3.915035e-01 -4.265295e-01 -4.529849e-01 -4.870298e-01 -5.127363e-01 -5.450909e-01 -5.695289e-01 -5.994269e-01 -6.219945e-01 -6.486551e-01 -6.687041e-01 -6.913786e-01 -7.082588e-01 -7.262782e-01 -7.393854e-01 -7.522019e-01 -7.610226e-01 -7.682421e-01 -7.723898e-01 -7.737922e-01 -7.730314e-01 -7.685766e-01 -7.628334e-01 -7.526541e-01 -7.420123e-01 -7.263962e-01 -7.110827e-01 -6.904453e-01 -6.708065e-01 -6.456602e-01 -6.221346e-01 -5.930562e-01 -5.661446e-01 -5.337449e-01 -5.039834e-01 -4.688806e-01 -4.368167e-01 -3.996155e-01 -3.657887e-01 -3.270655e-01 -2.919939e-01 -2.522870e-01 -2.164584e-01 -1.762641e-01 
-1.397841e-01 -9.872064e-02 -6.188452e-02 -2.126074e-02 1.502292e-02 5.483277e-02 9.021306e-02 1.288657e-01 1.630193e-01 2.001967e-01 2.328235e-01 2.682281e-01 2.990482e-01 3.324008e-01 3.611530e-01 3.921918e-01 4.186342e-01 4.471169e-01 4.710288e-01 4.967369e-01 5.179225e-01 5.406659e-01 5.589591e-01 5.785822e-01 5.938512e-01 6.102383e-01 6.223902e-01 6.354701e-01 6.444538e-01 6.542026e-01 6.600108e-01 6.664517e-01 6.691206e-01 6.723227e-01 6.719299e-01 6.720031e-01 6.686642e-01 6.657536e-01 6.596163e-01 6.538944e-01 6.451331e-01 6.367913e-01 6.256000e-01 6.148401e-01 6.014264e-01 5.884520e-01 5.730307e-01 5.580402e-01 5.408286e-01 5.240089e-01 5.052223e-01 4.867436e-01 4.665923e-01 4.466047e-01 4.252909e-01 4.039219e-01 3.816373e-01 3.589899e-01 3.359127e-01 3.120650e-01 2.883566e-01 2.633611e-01 2.391623e-01 2.130467e-01 1.884725e-01 1.612416e-01 1.363769e-01 1.080159e-01 8.291168e-02 5.339281e-02 2.806447e-02 -2.642500e-03 -2.821236e-02 -6.012524e-02 -8.597856e-02 -1.190826e-01 -1.452707e-01 -1.794945e-01 -2.060559e-01 -2.412452e-01 -2.681773e-01 -3.040705e-01 -3.312992e-01 -3.675089e-01 -3.948588e-01 -4.308637e-01 -4.580365e-01 -4.931874e-01 -5.197528e-01 -5.532940e-01 -5.786970e-01 -6.098029e-01 -6.333890e-01 -6.612113e-01 -6.822679e-01 -7.059895e-01 -7.237977e-01 -7.426868e-01 -7.565774e-01 -7.700355e-01 -7.794410e-01 -7.870399e-01 -7.915362e-01 -7.930406e-01 -7.923741e-01 -7.877477e-01 -7.818452e-01 -7.712419e-01 -7.602052e-01 -7.439466e-01 -7.280334e-01 -7.065779e-01 -6.861738e-01 -6.600805e-01 -6.356664e-01 -6.055581e-01 -5.776771e-01 -5.442064e-01 -5.134329e-01 -4.772536e-01 -4.441677e-01 -4.059123e-01 -3.710790e-01 -3.313436e-01 -2.952998e-01 -2.546353e-01 -2.178808e-01 -1.767894e-01 
-1.409077e-01 -9.881806e-02 -6.108719e-02 -1.951758e-02 1.759477e-02 5.827542e-02 9.442183e-02 1.338762e-01 1.687374e-01 2.066523e-01 2.399316e-01 2.760128e-01 3.074321e-01 3.414007e-01 3.706989e-01 4.022911e-01 4.292241e-01 4.581934e-01 4.825366e-01 5.086586e-01 5.302114e-01 5.532899e-01 5.718810e-01 5.917548e-01 6.072478e-01 6.237978e-01 6.360965e-01 6.492507e-01 6.583029e-01 6.680396e-01 6.738393e-01 6.801879e-01 6.827749e-01 6.858133e-01 6.852713e-01 6.851216e-01 6.815739e-01 6.783949e-01 6.719985e-01 6.659775e-01 6.569166e-01 6.482596e-01 6.367383e-01 6.256609e-01 6.118962e-01 5.986143e-01 5.828297e-01 5.675517e-01 5.499720e-01 5.328920e-01 5.137395e-01 4.950327e-01 4.745235e-01 4.543423e-01 4.326844e-01 4.111560e-01 3.885469e-01 3.657719e-01 3.423955e-01 3.184470e-01 2.944706e-01 2.693937e-01 2.449631e-01 2.187751e-01 1.940087e-01 1.667001e-01 1.416830e-01 1.132205e-01 8.799873e-02 5.833091e-02 3.290829e-02 1.976037e-03 -2.368443e-02 -5.593192e-02 -8.190022e-02 -1.154831e-01 -1.418460e-01 -1.767260e-01 -2.035618e-01 -2.396108e-01 -2.669567e-01 -3.039267e-01 -3.317417e-01 -3.692412e-01 -3.973703e-01 -4.348526e-01 -4.629988e-01 -4.997673e-01 -5.274790e-01 -5.627109e-01 -5.893886e-01 -6.221771e-01 -6.471019e-01 -6.765108e-01 -6.988922e-01 -7.240187e-01 -7.430551e-01 -7.630918e-01 -7.780357e-01 -7.923257e-01 -8.025447e-01 -8.106230e-01 -8.156474e-01 -8.172662e-01 -8.168193e-01 -8.119532e-01 -8.059620e-01 -7.947960e-01 -7.833830e-01 -7.662858e-01 -7.497453e-01 -7.272320e-01 -7.059968e-01 -6.786872e-01 -6.532904e-01 -6.218666e-01 -5.929030e-01 -5.580713e-01 -5.261628e-01 -4.886221e-01 -4.543889e-01 -4.148068e-01 -3.788460e-01 -3.378436e-01 -3.007149e-01 -2.588583e-01 -2.210764e-01 -1.788753e-01 
-1.404472e-01 -9.731827e-02 -5.857868e-02 -1.604761e-02 2.200239e-02 6.357414e-02 1.005914e-01 1.408739e-01 1.765433e-01 2.152291e-01 2.492566e-01 2.860544e-01 3.181622e-01 3.527926e-01 3.827168e-01 4.149119e-01 4.424030e-01 4.719090e-01 4.967348e-01 5.233175e-01 5.452684e-01 5.687208e-01 5.876163e-01 6.077670e-01 6.234628e-01 6.401841e-01 6.525781e-01 6.657928e-01 6.748302e-01 6.845155e-01 6.901913e-01 6.963798e-01 6.987387e-01 7.015162e-01 7.006504e-01 7.001507e-01 6.961952e-01 6.925921e-01 6.857180e-01 6.792161e-01 6.696228e-01 6.604468e-01 6.483540e-01 6.367379e-01 6.223778e-01 6.085554e-01 5.921655e-01 5.763613e-01 5.581791e-01 5.406013e-01 5.208600e-01 5.016956e-01 4.806211e-01 4.600319e-01 4.378410e-01 4.159610e-01 3.928593e-01 3.697935e-01 3.459732e-01 3.217965e-01 2.974326e-01 2.721885e-01 2.474337e-01 2.211343e-01 1.961125e-01 1.687376e-01 1.435360e-01 1.150355e-01 8.969649e-02 5.999481e-02 3.451094e-02 3.516600e-03 -2.217030e-02 -5.454781e-02 -8.053988e-02 -1.143656e-01 -1.407920e-01 -1.760733e-01 -2.030624e-01 -2.397120e-01 -2.673527e-01 -3.051518e-01 -3.334493e-01 -3.720167e-01 -4.008478e-01 -4.396234e-01 -4.687006e-01 -5.069481e-01 -5.358008e-01 -5.726335e-01 -6.006137e-01 -6.350406e-01 -6.613548e-01 -6.923443e-01 -7.161091e-01 -7.426611e-01 -7.629758e-01 -7.841941e-01 -8.002178e-01 -8.153744e-01 -8.263981e-01 -8.349815e-01 -8.404838e-01 -8.422272e-01 -8.419085e-01 -8.367950e-01 -8.305870e-01 -8.188344e-01 -8.068884e-01 -7.889160e-01 -7.715726e-01 -7.479575e-01 -7.257063e-01 -6.971341e-01 -6.705684e-01 -6.377849e-01 -6.075575e-01 -5.713257e-01 -5.381099e-01 -4.991754e-01 -4.636341e-01 -4.227000e-01 -3.854625e-01 -3.431737e-01 -3.048221e-01 -2.617585e-01 -2.228209e-01 -1.794973e-01 
-1.413358e-01 -9.697573e-02 -5.715117e-02 -1.349069e-02 2.555944e-02 6.816880e-02 1.061085e-01 1.473468e-01 1.838681e-01 2.234361e-01 2.582508e-01 2.958619e-01 3.286954e-01 3.640710e-01 3.946593e-01 4.275282e-01 4.556187e-01 4.857204e-01 5.110749e-01 5.381660e-01 5.605673e-01 5.844311e-01 6.036908e-01 6.241468e-01 6.401133e-01 6.570279e-01 6.695941e-01 6.828877e-01 6.919966e-01 7.016488e-01 7.072967e-01 7.133477e-01 7.155842e-01 7.181317e-01 7.170572e-01 7.162508e-01 7.120109e-01 7.080431e-01 7.008213e-01 6.939163e-01 6.839256e-01 6.743279e-01 6.618013e-01 6.497634e-01 6.349454e-01 6.207171e-01 6.038564e-01 5.876753e-01 5.690186e-01 5.511027e-01 5.308914e-01 5.114338e-01 4.899008e-01 4.690663e-01 4.464353e-01 4.243581e-01 4.008416e-01 3.776241e-01 3.534221e-01 3.291341e-01 3.044298e-01 2.791072e-01 2.540618e-01 2.277052e-01 2.024495e-01 1.750233e-01 1.496477e-01 1.210798e-01 9.562416e-02 6.580988e-02 4.025465e-02 9.065262e-03 -1.667142e-02 -4.937136e-02 -7.542828e-02 -1.097538e-01 -1.363090e-01 -1.723174e-01 -1.995566e-01 -2.372033e-01 -2.652752e-01 -3.043675e-01 -3.333298e-01 -3.734882e-01 -4.032532e-01 -4.438885e-01 -4.741767e-01 -5.144911e-01 -5.448072e-01 -5.838230e-01 -6.134590e-01 -6.500732e-01 -6.781457e-01 -7.112048e-01 -7.367202e-01 -7.651048e-01 -7.870449e-01 -8.097545e-01 -8.271682e-01 -8.433948e-01 -8.554823e-01 -8.646660e-01 -8.708440e-01 -8.727032e-01 -8.726435e-01 -8.671798e-01 -8.608186e-01 -8.482961e-01 -8.358176e-01 -8.167232e-01 -7.985228e-01 -7.735132e-01 -7.501485e-01 -7.199929e-01 -6.921300e-01 -6.576540e-01 -6.260163e-01 -5.880535e-01 -5.533774e-01 -5.127309e-01 -4.757311e-01 -4.331470e-01 -3.944923e-01 -3.506443e-01 -3.109437e-01 -2.664276e-01 -2.262249e-01 -1.815607e-01 
-1.406052e-01 -9.500761e-02 -5.398544e-02 -9.185458e-03 3.097404e-02 7.463776e-02 1.136072e-01 1.558269e-01 1.933061e-01 2.337919e-01 2.694977e-01 3.079682e-01 3.416274e-01 3.778038e-01 4.091493e-01 4.427547e-01 4.715265e-01 5.022900e-01 5.282393e-01 5.559036e-01 5.788004e-01 6.031331e-01 6.227754e-01 6.435812e-01 6.598058e-01 6.769385e-01 6.896296e-01 7.030018e-01 7.120980e-01 7.216871e-01 7.271856e-01 7.330357e-01 7.349924e-01 7.372114e-01 7.357378e-01 7.344909e-01 7.297479e-01 7.252474e-01 7.174368e-01 7.099299e-01 6.992846e-01 6.890397e-01 6.758129e-01 6.631066e-01 6.475620e-01 6.326664e-01 6.150699e-01 5.982429e-01 5.788563e-01 5.603330e-01 5.394102e-01 5.193978e-01 4.971827e-01 4.758570e-01 4.525828e-01 4.300863e-01 4.059749e-01 3.824155e-01 3.576766e-01 3.331268e-01 3.079539e-01 2.824491e-01 2.570141e-01 2.305503e-01 2.049935e-01 1.775246e-01 1.519428e-01 1.233784e-01 9.781149e-02 6.801813e-02 4.243649e-02 1.124498e-02 -1.445723e-02 -4.723466e-02 -7.323663e-02 -1.077768e-01 -1.343136e-01 -1.707399e-01 -1.980677e-01 -2.363970e-01 -2.647409e-01 -3.048273e-01 -3.343166e-01 -3.758019e-01 -4.064014e-01 -4.486837e-01 -4.801353e-01 -5.223661e-01 -5.541538e-01 -5.952681e-01 -6.266189e-01 -6.653975e-01 -6.953229e-01 -7.304785e-01 -7.578525e-01 -7.881294e-01 -8.117917e-01 -8.360654e-01 -8.549318e-01 -8.722963e-01 -8.854602e-01 -8.952931e-01 -9.021016e-01 -9.040991e-01 -9.041967e-01 -8.983771e-01 -8.917128e-01 -8.783904e-01 -8.651945e-01 -8.449304e-01 -8.256672e-01 -7.992062e-01 -7.745146e-01 -7.427171e-01 -7.133468e-01 -6.771246e-01 -6.438770e-01 -6.041382e-01 -5.678172e-01 -5.254242e-01 -4.867978e-01 -4.425398e-01 -4.023158e-01 -3.568935e-01 -3.157059e-01 -2.697284e-01 -2.281338e-01 -1.821232e-01 
-1.410593e-01 -9.403315e-02 -5.174080e-02 -5.637810e-03 3.568611e-02 8.054425e-02 1.205851e-01 1.639067e-01 2.023764e-01 2.438841e-01 2.805089e-01 3.199284e-01 3.544399e-01 3.914938e-01 4.236249e-01 4.580313e-01 4.875172e-01 5.189946e-01 5.455775e-01 5.738546e-01 5.972930e-01 6.221223e-01 6.422021e-01 6.633742e-01 6.799213e-01 6.972799e-01 7.101706e-01 7.236238e-01 7.327932e-01 7.423208e-01 7.477674e-01 7.534226e-01 7.552085e-01 7.571151e-01 7.553626e-01 7.537067e-01 7.485911e-01 7.436096e-01 7.353495e-01 7.273157e-01 7.161619e-01 7.053703e-01 6.915935e-01 6.783447e-01 6.622243e-01 6.468113e-01 6.286269e-01 6.113240e-01 5.913484e-01 5.724027e-01 5.508987e-01 5.305248e-01 5.077438e-01 4.861211e-01 4.623034e-01 4.395743e-01 4.149500e-01 3.912199e-01 3.660081e-01 3.413444e-01 3.157503e-01 2.901810e-01 2.643894e-01 2.378996e-01 2.120634e-01 1.845910e-01 1.588166e-01 1.302478e-01 1.045771e-01 7.474469e-02 4.913816e-02 1.782667e-02 -7.847960e-03 -4.088575e-02 -6.685366e-02 -1.018647e-01 -1.284268e-01 -1.656087e-01 -1.931028e-01 -2.325401e-01 -2.612799e-01 -3.028743e-01 -3.330715e-01 -3.764782e-01 -4.081576e-01 -4.527437e-01 -4.856689e-01 -5.305068e-01 -5.641344e-01 -6.080363e-01 -6.415137e-01 -6.831062e-01 -7.153196e-01 -7.531467e-01 -7.828144e-01 -8.154559e-01 -8.412512e-01 -8.674395e-01 -8.881232e-01 -9.068444e-01 -9.213843e-01 -9.319527e-01 -9.396133e-01 -9.417095e-01 -9.421011e-01 -9.357741e-01 -9.288587e-01 -9.144917e-01 -9.005522e-01 -8.788028e-01 -8.583848e-01 -8.301090e-01 -8.039484e-01 -7.701205e-01 -7.390677e-01 -7.007056e-01 -6.656570e-01 -6.237596e-01 -5.856010e-01 -5.411023e-01 -5.006668e-01 -4.544067e-01 -4.124489e-01 -3.651595e-01 -3.223431e-01 -2.746472e-01 -2.315436e-01 -1.839640e-01 
-1.398543e-01 -9.140322e-02 -4.773155e-02 -3.238453e-04 4.227257e-02 8.833615e-02 1.295579e-01 1.740047e-01 2.135768e-01 2.561443e-01 2.938017e-01 3.342238e-01 3.697012e-01 4.077004e-01 4.407273e-01 4.760141e-01 5.063155e-01 5.385937e-01 5.658966e-01 5.948749e-01 6.189192e-01 6.443276e-01 6.648801e-01 6.864873e-01 7.033565e-01 7.209880e-01 7.340373e-01 7.475895e-01 7.567475e-01 7.661962e-01 7.714617e-01 7.768652e-01 7.783083e-01 7.798034e-01 7.775609e-01 7.753542e-01 7.696216e-01 7.639762e-01 7.549963e-01 7.462153e-01 7.342646e-01 7.226737e-01 7.080487e-01 6.939791e-01 6.769836e-01 6.607563e-01 6.416906e-01 6.236047e-01 6.027590e-01 5.830820e-01 5.607330e-01 5.396959e-01 5.161061e-01 4.939008e-01 4.693203e-01 4.460985e-01 4.207673e-01 3.966410e-01 3.707890e-01 3.458301e-01 3.196759e-01 2.939138e-01 2.676573e-01 2.410751e-01 2.148854e-01 1.874125e-01 1.614101e-01 1.329148e-01 1.071487e-01 7.743239e-02 5.185812e-02 2.065675e-02 -4.882240e-03 -3.788318e-02 -6.366051e-02 -9.879231e-02 -1.251837e-01 -1.627385e-01 -1.901799e-01 -2.303351e-01 -2.592528e-01 -3.019852e-01 -3.327007e-01 -3.777061e-01 -4.103314e-01 -4.569691e-01 -4.913103e-01 -5.385890e-01 -5.740839e-01 -6.206986e-01 -6.564079e-01 -7.008242e-01 -7.354865e-01 -7.760620e-01 -8.082058e-01 -8.433298e-01 -8.714241e-01 -8.996565e-01 -9.222729e-01 -9.424653e-01 -9.584227e-01 -9.698064e-01 -9.782775e-01 -9.805086e-01 -9.810738e-01 -9.742319e-01 -9.668815e-01 -9.514266e-01 -9.365165e-01 -9.132147e-01 -8.913930e-01 -8.612248e-01 -8.333427e-01 -7.974078e-01 -7.644308e-01 -7.238615e-01 -6.867898e-01 -6.426811e-01 -6.024861e-01 -5.558453e-01 -5.134258e-01 -4.651428e-01 -4.212980e-01 -3.721330e-01 -3.275524e-01 -2.781386e-01 -2.334035e-01 -1.842594e-01 
-1.396165e-01 -8.955429e-02 -4.443811e-02 4.429253e-03 4.834157e-02 9.574037e-02 1.381705e-01 1.838527e-01 2.245447e-01 2.682664e-01 3.069695e-01 3.484753e-01 3.849316e-01 4.239458e-01 4.578847e-01 4.941099e-01 5.252490e-01 5.583733e-01 5.864262e-01 6.161372e-01 6.408265e-01 6.668306e-01 6.879048e-01 7.099494e-01 7.272007e-01 7.450953e-01 7.583753e-01 7.720083e-01 7.812398e-01 7.905891e-01 7.957723e-01 8.009078e-01 8.021208e-01 8.032002e-01 8.005942e-01 7.978517e-01 7.916416e-01 7.853726e-01 7.758235e-01 7.663658e-01 7.537779e-01 7.414912e-01 7.261840e-01 7.114304e-01 6.937276e-01 6.768547e-01 6.570729e-01 6.383999e-01 6.168418e-01 5.966504e-01 5.736014e-01 5.521310e-01 5.278606e-01 5.053061e-01 4.800708e-01 4.565836e-01 4.306314e-01 4.063202e-01 3.798925e-01 3.548244e-01 3.281551e-01 3.023532e-01 2.756614e-01 2.490999e-01 2.225761e-01 1.951707e-01 1.689547e-01 1.405515e-01 1.147043e-01 8.506850e-02 5.954207e-02 2.835506e-02 2.966883e-03 -3.016237e-02 -5.574106e-02 -9.124061e-02 -1.174722e-01 -1.557434e-01 -1.831787e-01 -2.245055e-01 -2.537015e-01 -2.981431e-01 -3.295498e-01 -3.768378e-01 -4.106671e-01 -4.601317e-01 -4.962361e-01 -5.467849e-01 -5.845756e-01 -6.347364e-01 -6.731682e-01 -7.211932e-01 -7.588291e-01 -8.028420e-01 -8.379888e-01 -8.761520e-01 -9.070425e-01 -9.377202e-01 -9.627069e-01 -9.846056e-01 -1.002334e+00 -1.014604e+00 -1.024137e+00 -1.026419e+00 -1.027300e+00 -1.019725e+00 -1.011972e+00 -9.951015e-01 -9.791555e-01 -9.538935e-01 -9.305220e-01 -8.980046e-01 -8.681970e-01 -8.296783e-01 -7.945387e-01 -7.512909e-01 -7.119455e-01 -6.651790e-01 -6.227042e-01 -5.735132e-01 -5.288870e-01 -4.782188e-01 -4.322941e-01 -3.809399e-01 -3.344361e-01 -2.830377e-01 -2.365468e-01 -1.856146e-01 