# vtk DataFile Version 2.0
Comment goes here
ASCII

DATASET STRUCTURED_POINTS
FIELD FieldData 1
TIME 1 1 double
0.22500000
DIMENSIONS    128   128   1

ORIGIN    0.000   0.000   0.000
SPACING   0.039062 0.039062   1.000

POINT_DATA   16384
SCALARS uX double
LOOKUP_TABLE default

-6.496419e-02 -5.292374e-02 -3.976914e-02 -2.723486e-02 -1.370903e-02 -8.767425e-04 1.281400e-02 2.573614e-02 3.937523e-02 5.217098e-02 6.553616e-02 7.798618e-02 9.085479e-02 1.027423e-01 1.148973e-01 1.260145e-01 1.372506e-01 1.474048e-01 1.575354e-01 1.665560e-01 1.754192e-01 1.831633e-01 1.906277e-01 1.969853e-01 2.029547e-01 2.078526e-01 2.122685e-01 2.156723e-01 2.185160e-01 2.204302e-01 2.217217e-01 2.221883e-01 2.219839e-01 2.210789e-01 2.194673e-01 2.172954e-01 2.143924e-01 2.110815e-01 2.070232e-01 2.027171e-01 1.976534e-01 1.925053e-01 1.865927e-01 1.807583e-01 1.741535e-01 1.677844e-01 1.606384e-01 1.538772e-01 1.463301e-01 1.393058e-01 1.314828e-01 1.243077e-01 1.163166e-01 1.090840e-01 1.010137e-01 9.379731e-02 8.571689e-02 7.857067e-02 7.053062e-02 6.348982e-02 5.552321e-02 4.860620e-02 4.073108e-02 3.394170e-02 2.616384e-02 1.949416e-02 1.181024e-02 5.243635e-03 -2.355450e-03 -8.841154e-03 -1.636704e-02 -2.279643e-02 -3.026018e-02 -3.665725e-02 -4.406657e-02 -5.045189e-02 -5.780870e-02 -6.419684e-02 -7.149533e-02 -7.789252e-02 -8.511751e-02 -9.151959e-02 -9.864531e-02 -1.050359e-01 -1.120252e-01 -1.183743e-01 -1.251780e-01 -1.314409e-01 -1.379976e-01 -1.441143e-01 -1.503508e-01 -1.562460e-01 -1.620777e-01 -1.676618e-01 -1.729941e-01 -1.781649e-01 -1.828953e-01 -1.875403e-01 -1.915607e-01 -1.955609e-01 -1.987612e-01 -2.019954e-01 -2.042668e-01 -2.066160e-01 -2.078557e-01 -2.092080e-01 -2.093232e-01 -2.095787e-01 -2.084905e-01 -2.075659e-01 -2.052132e-01 -2.030453e-01 -1.993877e-01 -1.959363e-01 -1.909569e-01 -1.862072e-01 -1.799135e-01 -1.738773e-01 -1.663028e-01 -1.590186e-01 -1.502227e-01 -1.417561e-01 -1.318236e-01 -1.222661e-01 -1.113069e-01 -1.007749e-01 -8.892209e-02 -7.755536e-02 
-6.504850e-02 -5.297739e-02 -3.979098e-02 -2.722313e-02 -1.366435e-02 -7.961753e-04 1.292823e-02 2.588783e-02 3.956075e-02 5.239471e-02 6.579323e-02 7.828127e-02 9.118199e-02 1.031064e-01 1.152913e-01 1.264431e-01 1.377062e-01 1.478917e-01 1.580455e-01 1.670931e-01 1.759748e-01 1.837407e-01 1.912183e-01 1.975920e-01 2.035684e-01 2.084764e-01 2.128930e-01 2.163006e-01 2.191384e-01 2.210504e-01 2.223295e-01 2.227884e-01 2.225653e-01 2.216477e-01 2.200118e-01 2.178233e-01 2.148909e-01 2.115603e-01 2.074683e-01 2.031406e-01 1.980398e-01 1.928692e-01 1.869170e-01 1.810600e-01 1.744141e-01 1.680233e-01 1.608355e-01 1.540543e-01 1.464654e-01 1.394233e-01 1.315595e-01 1.243692e-01 1.163390e-01 1.090940e-01 1.009867e-01 9.376083e-02 8.564619e-02 7.849324e-02 7.042208e-02 6.337708e-02 5.538277e-02 4.846374e-02 4.056450e-02 3.377483e-02 2.597651e-02 1.930779e-02 1.160706e-02 5.042122e-03 -2.570219e-03 -9.054092e-03 -1.658984e-02 -2.301776e-02 -3.048820e-02 -3.688463e-02 -4.429774e-02 -5.068369e-02 -5.804171e-02 -6.443212e-02 -7.172958e-02 -7.813099e-02 -8.535305e-02 -9.176154e-02 -9.888284e-02 -1.052822e-01 -1.122659e-01 -1.186263e-01 -1.254236e-01 -1.317002e-01 -1.382502e-01 -1.443829e-01 -1.506124e-01 -1.565258e-01 -1.623506e-01 -1.679547e-01 -1.732803e-01 -1.784723e-01 -1.831961e-01 -1.878633e-01 -1.918771e-01 -1.958997e-01 -1.990932e-01 -2.023492e-01 -2.046135e-01 -2.069830e-01 -2.082149e-01 -2.095854e-01 -2.096917e-01 -2.099627e-01 -2.088641e-01 -2.079516e-01 -2.055869e-01 -2.034271e-01 -1.997557e-01 -1.963082e-01 -1.913128e-01 -1.865624e-01 -1.802507e-01 -1.742090e-01 -1.666143e-01 -1.593200e-01 -1.505016e-01 -1.420203e-01 -1.320632e-01 -1.224866e-01 -1.115006e-01 -1.009453e-01 -8.906394e-02 -7.767000e-02 
-6.558344e-02 -5.345301e-02 -4.020228e-02 -2.757008e-02 -1.394108e-02 -1.004699e-03 1.279434e-02 2.582461e-02 3.957485e-02 5.248026e-02 6.595679e-02 7.851517e-02 9.149236e-02 1.034839e-01 1.157414e-01 1.269549e-01 1.382843e-01 1.485239e-01 1.587355e-01 1.678275e-01 1.767564e-01 1.845554e-01 1.920681e-01 1.984623e-01 2.044608e-01 2.093759e-01 2.138013e-01 2.172028e-01 2.200365e-01 2.219298e-01 2.231930e-01 2.236217e-01 2.233730e-01 2.224154e-01 2.207461e-01 2.185103e-01 2.155392e-01 2.121562e-01 2.080229e-01 2.036403e-01 1.984981e-01 1.932723e-01 1.872812e-01 1.813708e-01 1.746905e-01 1.682500e-01 1.610339e-01 1.542081e-01 1.465981e-01 1.395176e-01 1.316406e-01 1.244186e-01 1.163831e-01 1.091136e-01 1.010085e-01 9.376508e-02 8.565936e-02 7.849543e-02 7.043876e-02 6.338871e-02 5.541303e-02 4.849405e-02 4.061600e-02 3.383054e-02 2.605431e-02 1.939291e-02 1.171352e-02 5.157975e-03 -2.435322e-03 -8.908758e-03 -1.642915e-02 -2.284657e-02 -3.030650e-02 -3.669332e-02 -4.410170e-02 -5.047977e-02 -5.783954e-02 -6.422459e-02 -7.153071e-02 -7.793001e-02 -8.516791e-02 -9.157819e-02 -9.872253e-02 -1.051282e-01 -1.121420e-01 -1.185135e-01 -1.253478e-01 -1.316408e-01 -1.382341e-01 -1.443884e-01 -1.506671e-01 -1.566071e-01 -1.624860e-01 -1.681212e-01 -1.735048e-01 -1.787316e-01 -1.835159e-01 -1.882203e-01 -1.922958e-01 -1.963566e-01 -1.996111e-01 -2.029047e-01 -2.052275e-01 -2.076325e-01 -2.089186e-01 -2.103207e-01 -2.104752e-01 -2.107724e-01 -2.097146e-01 -2.088216e-01 -2.064889e-01 -2.043410e-01 -2.006919e-01 -1.972478e-01 -1.922644e-01 -1.875089e-01 -1.811984e-01 -1.751428e-01 -1.675385e-01 -1.602216e-01 -1.513831e-01 -1.428707e-01 -1.328833e-01 -1.232675e-01 -1.122416e-01 -1.016398e-01 -8.970939e-02 -7.826211e-02 
-6.629190e-02 -5.404034e-02 -4.066134e-02 -2.789701e-02 -1.413147e-02 -1.054376e-03 1.288716e-02 2.606387e-02 3.995973e-02 5.301396e-02 6.663592e-02 7.934171e-02 9.246041e-02 1.045937e-01 1.169848e-01 1.283301e-01 1.397809e-01 1.501381e-01 1.604546e-01 1.696459e-01 1.786597e-01 1.865363e-01 1.941108e-01 2.005581e-01 2.065932e-01 2.115357e-01 2.159714e-01 2.193742e-01 2.221920e-01 2.240616e-01 2.252840e-01 2.256663e-01 2.253541e-01 2.243306e-01 2.225785e-01 2.202611e-01 2.171917e-01 2.137160e-01 2.094733e-01 2.049913e-01 1.997329e-01 1.944055e-01 1.882956e-01 1.822858e-01 1.754879e-01 1.689536e-01 1.616246e-01 1.547136e-01 1.469984e-01 1.398434e-01 1.318709e-01 1.245867e-01 1.164669e-01 1.091480e-01 1.009708e-01 9.369085e-02 8.552523e-02 7.833707e-02 7.023239e-02 6.316924e-02 5.515661e-02 4.823408e-02 4.032889e-02 3.354757e-02 2.575252e-02 1.910089e-02 1.140931e-02 4.867031e-03 -2.733571e-03 -9.192389e-03 -1.671692e-02 -2.312042e-02 -3.058295e-02 -3.695844e-02 -4.436938e-02 -5.074046e-02 -5.810404e-02 -6.448798e-02 -7.180032e-02 -7.820572e-02 -8.545323e-02 -9.187795e-02 -9.903611e-02 -1.054654e-01 -1.124980e-01 -1.189030e-01 -1.257614e-01 -1.320981e-01 -1.387210e-01 -1.449291e-01 -1.512429e-01 -1.572461e-01 -1.631652e-01 -1.688720e-01 -1.743000e-01 -1.796049e-01 -1.844367e-01 -1.892233e-01 -1.933474e-01 -1.974919e-01 -2.007941e-01 -2.041697e-01 -2.065369e-01 -2.090189e-01 -2.103438e-01 -2.118147e-01 -2.119999e-01 -2.123548e-01 -2.113175e-01 -2.104686e-01 -2.081442e-01 -2.060247e-01 -2.023704e-01 -1.989378e-01 -1.939347e-01 -1.891726e-01 -1.828274e-01 -1.767470e-01 -1.690927e-01 -1.617328e-01 -1.528293e-01 -1.442561e-01 -1.341892e-01 -1.244957e-01 -1.133764e-01 -1.026809e-01 -9.064412e-02 -7.908867e-02 
-6.745921e-02 -5.505739e-02 -4.151670e-02 -2.858893e-02 -1.464851e-02 -1.397709e-03 1.272851e-02 2.608567e-02 4.017199e-02 5.340926e-02 6.722278e-02 8.010939e-02 9.341548e-02 1.057221e-01 1.182907e-01 1.297962e-01 1.414089e-01 1.519076e-01 1.623648e-01 1.716737e-01 1.808021e-01 1.887679e-01 1.964267e-01 2.029318e-01 2.090184e-01 2.139853e-01 2.184388e-01 2.218324e-01 2.246351e-01 2.264636e-01 2.276403e-01 2.279526e-01 2.275681e-01 2.264502e-01 2.246042e-01 2.221733e-01 2.189944e-01 2.153919e-01 2.110303e-01 2.064143e-01 2.010338e-01 1.955713e-01 1.893419e-01 1.832009e-01 1.762915e-01 1.696346e-01 1.622061e-01 1.551848e-01 1.473851e-01 1.401349e-01 1.320949e-01 1.247321e-01 1.165628e-01 1.091827e-01 1.009736e-01 9.364950e-02 8.546865e-02 7.825244e-02 7.014704e-02 6.307041e-02 5.506892e-02 4.814543e-02 4.026016e-02 3.348798e-02 2.571828e-02 1.908330e-02 1.141914e-02 4.898339e-03 -2.676052e-03 -9.111181e-03 -1.661368e-02 -2.299380e-02 -3.044108e-02 -3.679584e-02 -4.420044e-02 -5.055559e-02 -5.792342e-02 -6.429820e-02 -7.162660e-02 -7.803135e-02 -8.530754e-02 -9.174169e-02 -9.894162e-02 -1.053918e-01 -1.124793e-01 -1.189177e-01 -1.258441e-01 -1.322270e-01 -1.389305e-01 -1.451980e-01 -1.516041e-01 -1.576792e-01 -1.637007e-01 -1.694905e-01 -1.750291e-01 -1.804260e-01 -1.853738e-01 -1.902585e-01 -1.945009e-01 -1.987458e-01 -2.021650e-01 -2.056394e-01 -2.081183e-01 -2.106932e-01 -2.121204e-01 -2.136741e-01 -2.139485e-01 -2.143724e-01 -2.134076e-01 -2.126106e-01 -2.103393e-01 -2.082523e-01 -2.046295e-01 -2.012081e-01 -1.962133e-01 -1.914403e-01 -1.850796e-01 -1.789657e-01 -1.712721e-01 -1.638563e-01 -1.548899e-01 -1.462394e-01 -1.360867e-01 -1.262953e-01 -1.150686e-01 -1.042560e-01 -9.209182e-02 -8.040169e-02 
-6.881497e-02 -5.619953e-02 -4.243221e-02 -2.927138e-02 -1.508847e-02 -1.589276e-03 1.279110e-02 2.640701e-02 4.075406e-02 5.425455e-02 6.832936e-02 8.147692e-02 9.503800e-02 1.075958e-01 1.204057e-01 1.321447e-01 1.439771e-01 1.546837e-01 1.653314e-01 1.748152e-01 1.840981e-01 1.921995e-01 1.999711e-01 2.065678e-01 2.127217e-01 2.177334e-01 2.222067e-01 2.255982e-01 2.283736e-01 2.301548e-01 2.312598e-01 2.314839e-01 2.309878e-01 2.297467e-01 2.277556e-01 2.251737e-01 2.218234e-01 2.180505e-01 2.134993e-01 2.087018e-01 2.031215e-01 1.974745e-01 1.910431e-01 1.847222e-01 1.776153e-01 1.707896e-01 1.631743e-01 1.560004e-01 1.480298e-01 1.406469e-01 1.324553e-01 1.249824e-01 1.166830e-01 1.092165e-01 1.008998e-01 9.351285e-02 8.524678e-02 7.798999e-02 6.982052e-02 6.272343e-02 5.467695e-02 4.775025e-02 3.983632e-02 3.307477e-02 2.528954e-02 1.867529e-02 1.100529e-02 4.511483e-03 -3.062547e-03 -9.468230e-03 -1.696752e-02 -2.331937e-02 -3.076368e-02 -3.709472e-02 -4.449931e-02 -5.083832e-02 -5.821144e-02 -6.458037e-02 -7.192129e-02 -7.833288e-02 -8.563040e-02 -9.208612e-02 -9.931745e-02 -1.058056e-01 -1.129356e-01 -1.194295e-01 -1.264100e-01 -1.328669e-01 -1.396365e-01 -1.459962e-01 -1.524798e-01 -1.586645e-01 -1.647741e-01 -1.706887e-01 -1.763243e-01 -1.818582e-01 -1.869092e-01 -1.919390e-01 -1.962873e-01 -2.006804e-01 -2.042041e-01 -2.078239e-01 -2.104014e-01 -2.131130e-01 -2.146280e-01 -2.163041e-01 -2.166509e-01 -2.171773e-01 -2.162655e-01 -2.155467e-01 -2.133054e-01 -2.112687e-01 -2.076502e-01 -2.042487e-01 -1.992310e-01 -1.944460e-01 -1.880339e-01 -1.818757e-01 -1.741022e-01 -1.666101e-01 -1.575356e-01 -1.487776e-01 -1.384896e-01 -1.285610e-01 -1.171731e-01 -1.061953e-01 -9.384573e-02 -8.196483e-02 
-7.064620e-02 -5.778715e-02 -4.375798e-02 -3.033168e-02 -1.586586e-02 -2.083924e-03 1.259521e-02 2.650554e-02 4.116088e-02 5.496077e-02 6.934597e-02 8.279011e-02 9.665521e-02 1.094981e-01 1.225963e-01 1.345996e-01 1.466951e-01 1.576358e-01 1.685122e-01 1.781911e-01 1.876597e-01 1.959098e-01 2.038176e-01 2.105110e-01 2.167468e-01 2.218003e-01 2.262997e-01 2.296775e-01 2.324242e-01 2.341390e-01 2.351645e-01 2.352744e-01 2.346544e-01 2.332588e-01 2.311076e-01 2.283399e-01 2.248031e-01 2.208229e-01 2.160689e-01 2.110526e-01 2.052638e-01 1.993962e-01 1.927597e-01 1.862252e-01 1.789254e-01 1.719006e-01 1.641114e-01 1.567589e-01 1.486384e-01 1.411017e-01 1.327877e-01 1.251884e-01 1.167957e-01 1.092311e-01 1.008500e-01 9.339304e-02 8.508959e-02 7.778922e-02 6.960646e-02 6.248953e-02 5.444978e-02 4.752348e-02 3.963152e-02 3.288663e-02 2.513341e-02 1.854779e-02 1.091451e-02 4.456898e-03 -3.080783e-03 -9.447022e-03 -1.691504e-02 -2.322828e-02 -3.065046e-02 -3.694751e-02 -4.434249e-02 -5.065558e-02 -5.803424e-02 -6.438844e-02 -7.175199e-02 -7.816285e-02 -8.550143e-02 -9.197291e-02 -9.926459e-02 -1.057871e-01 -1.129971e-01 -1.195458e-01 -1.266260e-01 -1.331591e-01 -1.400474e-01 -1.465049e-01 -1.531252e-01 -1.594284e-01 -1.656907e-01 -1.717425e-01 -1.775437e-01 -1.832300e-01 -1.884556e-01 -1.936479e-01 -1.981749e-01 -2.027347e-01 -2.064353e-01 -2.102193e-01 -2.129655e-01 -2.158317e-01 -2.175009e-01 -2.193149e-01 -2.197952e-01 -2.204367e-01 -2.196319e-01 -2.190001e-01 -2.168351e-01 -2.148531e-01 -2.112766e-01 -2.078950e-01 -2.028828e-01 -1.980813e-01 -1.916372e-01 -1.854257e-01 -1.775826e-01 -1.700009e-01 -1.608198e-01 -1.519371e-01 -1.415067e-01 -1.314201e-01 -1.198559e-01 -1.086889e-01 -9.613150e-02 -8.403259e-02 
-7.269132e-02 -5.952279e-02 -4.516522e-02 -3.140079e-02 -1.658233e-02 -2.439347e-03 1.261070e-02 2.689797e-02 4.193517e-02 5.611945e-02 7.088865e-02 8.471477e-02 9.895582e-02 1.121672e-01 1.256221e-01 1.379685e-01 1.503896e-01 1.616360e-01 1.727953e-01 1.827312e-01 1.924294e-01 2.008781e-01 2.089535e-01 2.157796e-01 2.221151e-01 2.272314e-01 2.317596e-01 2.351298e-01 2.378354e-01 2.394750e-01 2.403934e-01 2.403673e-01 2.395814e-01 2.379980e-01 2.356319e-01 2.326359e-01 2.288465e-01 2.246098e-01 2.195779e-01 2.142898e-01 2.082098e-01 2.020673e-01 1.951384e-01 1.883371e-01 1.807538e-01 1.734798e-01 1.654253e-01 1.578488e-01 1.494880e-01 1.417581e-01 1.332339e-01 1.254757e-01 1.169059e-01 1.092181e-01 1.006940e-01 9.314908e-02 8.473626e-02 7.738112e-02 6.912027e-02 6.197841e-02 5.388836e-02 4.696257e-02 3.904362e-02 3.231953e-02 2.455751e-02 1.800741e-02 1.037813e-02 3.965021e-03 -3.561293e-03 -9.879642e-03 -1.733403e-02 -2.360131e-02 -3.101224e-02 -3.727012e-02 -4.466022e-02 -5.094531e-02 -5.832880e-02 -6.467005e-02 -7.205084e-02 -7.846723e-02 -8.583760e-02 -9.233609e-02 -9.967581e-02 -1.062494e-01 -1.135250e-01 -1.201506e-01 -1.273148e-01 -1.339521e-01 -1.409431e-01 -1.475321e-01 -1.542734e-01 -1.607344e-01 -1.671346e-01 -1.733676e-01 -1.793209e-01 -1.852074e-01 -1.905954e-01 -1.960006e-01 -2.006951e-01 -2.054730e-01 -2.093396e-01 -2.133383e-01 -2.162421e-01 -2.193105e-01 -2.211213e-01 -2.231163e-01 -2.237150e-01 -2.245083e-01 -2.237926e-01 -2.232765e-01 -2.211658e-01 -2.192584e-01 -2.156976e-01 -2.123458e-01 -2.073081e-01 -2.024898e-01 -1.959780e-01 -1.897024e-01 -1.817490e-01 -1.740567e-01 -1.647235e-01 -1.556852e-01 -1.450625e-01 -1.347771e-01 -1.229822e-01 -1.115762e-01 -9.875219e-02 -8.637711e-02 
-7.523735e-02 -6.172810e-02 -4.700427e-02 -3.286774e-02 -1.765312e-02 -3.112755e-03 1.235644e-02 2.705880e-02 4.252958e-02 5.713743e-02 7.234432e-02 8.659152e-02 1.012624e-01 1.148799e-01 1.287436e-01 1.414676e-01 1.542625e-01 1.658443e-01 1.773285e-01 1.875447e-01 1.975065e-01 2.061689e-01 2.144366e-01 2.214016e-01 2.278513e-01 2.330269e-01 2.375885e-01 2.409379e-01 2.435974e-01 2.451400e-01 2.459387e-01 2.457469e-01 2.447770e-01 2.429702e-01 2.403682e-01 2.371042e-01 2.330410e-01 2.285063e-01 2.231777e-01 2.175762e-01 2.111915e-01 2.047343e-01 1.975063e-01 1.904015e-01 1.825370e-01 1.749815e-01 1.666733e-01 1.588455e-01 1.502661e-01 1.423212e-01 1.336181e-01 1.256846e-01 1.169777e-01 1.091556e-01 1.005360e-01 9.289700e-02 8.442765e-02 7.701607e-02 6.873340e-02 6.156873e-02 5.348577e-02 4.656574e-02 3.867598e-02 3.198037e-02 2.426228e-02 1.775715e-02 1.017902e-02 3.821095e-03 -3.654067e-03 -9.913146e-03 -1.732295e-02 -2.353262e-02 -3.091120e-02 -3.711839e-02 -4.449299e-02 -5.073906e-02 -5.812744e-02 -6.444561e-02 -7.185427e-02 -7.826734e-02 -8.569034e-02 -9.220875e-02 -9.962701e-02 -1.062468e-01 -1.136275e-01 -1.203283e-01 -1.276243e-01 -1.343673e-01 -1.415164e-01 -1.482425e-01 -1.551670e-01 -1.617953e-01 -1.684014e-01 -1.748292e-01 -1.810073e-01 -1.871111e-01 -1.927374e-01 -1.983756e-01 -2.033149e-01 -2.083326e-01 -2.124423e-01 -2.166777e-01 -2.198138e-01 -2.231053e-01 -2.251283e-01 -2.273226e-01 -2.281045e-01 -2.290642e-01 -2.284947e-01 -2.281046e-01 -2.260967e-01 -2.242691e-01 -2.207630e-01 -2.174412e-01 -2.124073e-01 -2.075673e-01 -2.010070e-01 -1.946578e-01 -1.866037e-01 -1.787869e-01 -1.693021e-01 -1.600900e-01 -1.492665e-01 -1.387608e-01 -1.267186e-01 -1.150484e-01 -1.019335e-01 -8.925396e-02 
-7.803412e-02 -6.411483e-02 -4.895606e-02 -3.437058e-02 -1.868721e-02 -3.666113e-03 1.229809e-02 2.750406e-02 4.348661e-02 5.860990e-02 7.433366e-02 8.909497e-02 1.042741e-01 1.183892e-01 1.327368e-01 1.459255e-01 1.591636e-01 1.711602e-01 1.830304e-01 1.935952e-01 2.038707e-01 2.128016e-01 2.212979e-01 2.284409e-01 2.350255e-01 2.402824e-01 2.448813e-01 2.482145e-01 2.508147e-01 2.522480e-01 2.528969e-01 2.525120e-01 2.513124e-01 2.492418e-01 2.463438e-01 2.427615e-01 2.383525e-01 2.334624e-01 2.277552e-01 2.217793e-01 2.150004e-01 2.081667e-01 2.005453e-01 1.930772e-01 1.848344e-01 1.769417e-01 1.682823e-01 1.601537e-01 1.512596e-01 1.430575e-01 1.340826e-01 1.259398e-01 1.170078e-01 1.090259e-01 1.002288e-01 9.247863e-02 8.387798e-02 7.640073e-02 6.802944e-02 6.083975e-02 5.270562e-02 4.579494e-02 3.788493e-02 3.122586e-02 2.351110e-02 1.706197e-02 9.503034e-03 3.212721e-03 -4.234969e-03 -1.042243e-02 -1.780360e-02 -2.394475e-02 -3.129983e-02 -3.744804e-02 -4.480957e-02 -5.101192e-02 -5.840198e-02 -6.469669e-02 -7.212515e-02 -7.853948e-02 -8.600303e-02 -9.255137e-02 -1.000330e-01 -1.067149e-01 -1.141834e-01 -1.209814e-01 -1.283909e-01 -1.352681e-01 -1.425571e-01 -1.494552e-01 -1.565456e-01 -1.633827e-01 -1.701789e-01 -1.768488e-01 -1.832381e-01 -1.896114e-01 -1.954645e-01 -2.013912e-01 -2.065656e-01 -2.118802e-01 -2.162245e-01 -2.207529e-01 -2.241127e-01 -2.276809e-01 -2.299061e-01 -2.323483e-01 -2.333009e-01 -2.344684e-01 -2.340292e-01 -2.337976e-01 -2.318722e-01 -2.301468e-01 -2.266704e-01 -2.233901e-01 -2.183297e-01 -2.134684e-01 -2.068240e-01 -2.003904e-01 -1.921949e-01 -1.842318e-01 -1.745494e-01 -1.651313e-01 -1.540564e-01 -1.432879e-01 -1.309430e-01 -1.189567e-01 -1.054909e-01 -9.244597e-02 
-8.136664e-02 -6.700459e-02 -5.136958e-02 -3.629928e-02 -2.009954e-02 -4.558854e-03 1.195346e-02 2.770445e-02 4.425617e-02 5.993816e-02 7.623891e-02 9.155825e-02 1.073064e-01 1.219622e-01 1.368529e-01 1.505464e-01 1.642825e-01 1.767290e-01 1.890329e-01 1.999742e-01 2.106013e-01 2.198194e-01 2.285710e-01 2.358997e-01 2.426335e-01 2.479678e-01 2.526056e-01 2.559073e-01 2.584382e-01 2.597363e-01 2.602158e-01 2.596028e-01 2.581469e-01 2.557708e-01 2.525468e-01 2.486001e-01 2.438149e-01 2.385215e-01 2.324087e-01 2.260108e-01 2.188173e-01 2.115620e-01 2.035354e-01 1.956633e-01 1.870410e-01 1.787759e-01 1.697759e-01 1.613174e-01 1.521311e-01 1.436492e-01 1.344367e-01 1.260685e-01 1.169559e-01 1.088043e-01 9.988303e-02 9.201716e-02 8.334513e-02 7.580254e-02 6.740664e-02 6.019625e-02 5.207633e-02 4.518253e-02 3.731630e-02 3.070369e-02 2.305225e-02 1.667072e-02 9.184530e-03 2.974491e-03 -4.400704e-03 -1.050336e-02 -1.782099e-02 -2.388031e-02 -3.118820e-02 -3.726432e-02 -4.460092e-02 -5.074691e-02 -5.813866e-02 -6.439809e-02 -7.185790e-02 -7.826286e-02 -8.578946e-02 -9.235880e-02 -9.993650e-02 -1.066739e-01 -1.142724e-01 -1.211641e-01 -1.287380e-01 -1.357500e-01 -1.432377e-01 -1.503130e-01 -1.576354e-01 -1.646914e-01 -1.717505e-01 -1.786777e-01 -1.853563e-01 -1.920189e-01 -1.981809e-01 -2.044196e-01 -2.099133e-01 -2.155506e-01 -2.202134e-01 -2.250614e-01 -2.287264e-01 -2.325963e-01 -2.351007e-01 -2.378127e-01 -2.390061e-01 -2.403989e-01 -2.401513e-01 -2.400904e-01 -2.382990e-01 -2.366822e-01 -2.332760e-01 -2.300377e-01 -2.249805e-01 -2.200925e-01 -2.133831e-01 -2.068546e-01 -1.985263e-01 -1.904017e-01 -1.805207e-01 -1.708774e-01 -1.595408e-01 -1.484866e-01 -1.358201e-01 -1.234914e-01 -1.096479e-01 -9.620808e-02 
-8.499931e-02 -7.012095e-02 -5.393853e-02 -3.830132e-02 -2.150918e-02 -5.359129e-03 1.178182e-02 2.817408e-02 4.537919e-02 6.172085e-02 7.868515e-02 9.466586e-02 1.110699e-01 1.263690e-01 1.418875e-01 1.561843e-01 1.704977e-01 1.834842e-01 1.962922e-01 2.076881e-01 2.187252e-01 2.282926e-01 2.373424e-01 2.449003e-01 2.518082e-01 2.572432e-01 2.619256e-01 2.651981e-01 2.676456e-01 2.687909e-01 2.690676e-01 2.681911e-01 2.664276e-01 2.636958e-01 2.600786e-01 2.557060e-01 2.504642e-01 2.446988e-01 2.380895e-01 2.311976e-01 2.234907e-01 2.157420e-01 2.072066e-01 1.988617e-01 1.897542e-01 1.810537e-01 1.716073e-01 1.627638e-01 1.531818e-01 1.443743e-01 1.348247e-01 1.261952e-01 1.168084e-01 1.084613e-01 9.932931e-02 9.133214e-02 8.251033e-02 7.489603e-02 6.640616e-02 5.917685e-02 5.101137e-02 4.414293e-02 3.627050e-02 2.971785e-02 2.208952e-02 1.579227e-02 8.348051e-03 2.236294e-03 -5.088260e-03 -1.108850e-02 -1.835622e-02 -2.431807e-02 -3.158492e-02 -3.757657e-02 -4.488766e-02 -5.096917e-02 -5.835612e-02 -6.457713e-02 -7.205671e-02 -7.845469e-02 -8.602854e-02 -9.262724e-02 -1.002820e-01 -1.070897e-01 -1.147970e-01 -1.218040e-01 -1.295204e-01 -1.366959e-01 -1.443609e-01 -1.516498e-01 -1.591845e-01 -1.665035e-01 -1.738085e-01 -1.810445e-01 -1.879987e-01 -1.950085e-01 -2.014691e-01 -2.080823e-01 -2.138880e-01 -2.199129e-01 -2.248888e-01 -2.301210e-01 -2.340865e-01 -2.383198e-01 -2.410974e-01 -2.441351e-01 -2.455605e-01 -2.472263e-01 -2.471574e-01 -2.473045e-01 -2.456291e-01 -2.441467e-01 -2.407871e-01 -2.376043e-01 -2.325206e-01 -2.276072e-01 -2.207972e-01 -2.141626e-01 -2.056604e-01 -1.973514e-01 -1.872255e-01 -1.773228e-01 -1.656730e-01 -1.542885e-01 -1.412440e-01 -1.285182e-01 -1.142357e-01 -1.003365e-01 
-8.921274e-02 -7.378379e-02 -5.700860e-02 -4.076651e-02 -2.332941e-02 -6.528195e-03 1.130052e-02 2.837951e-02 4.630264e-02 6.335249e-02 8.104887e-02 9.774131e-02 1.148714e-01 1.308643e-01 1.470794e-01 1.620274e-01 1.769823e-01 1.905515e-01 2.039196e-01 2.158042e-01 2.272956e-01 2.372355e-01 2.466134e-01 2.544106e-01 2.615068e-01 2.670381e-01 2.717629e-01 2.749878e-01 2.773348e-01 2.782958e-01 2.783402e-01 2.771579e-01 2.750486e-01 2.719106e-01 2.678577e-01 2.630039e-01 2.572631e-01 2.509688e-01 2.438248e-01 2.363831e-01 2.281329e-01 2.198388e-01 2.107759e-01 2.019122e-01 1.923139e-01 1.831390e-01 1.732554e-01 1.639957e-01 1.540420e-01 1.448855e-01 1.350370e-01 1.261307e-01 1.165205e-01 1.079695e-01 9.868825e-02 9.055757e-02 8.165549e-02 7.397255e-02 6.546316e-02 5.822227e-02 5.008735e-02 4.325486e-02 3.545073e-02 2.897092e-02 2.143538e-02 1.523678e-02 7.896517e-03 1.898200e-03 -5.323848e-03 -1.120626e-02 -1.838414e-02 -2.423321e-02 -3.143221e-02 -3.732440e-02 -4.459678e-02 -5.059930e-02 -5.798169e-02 -6.415042e-02 -7.166282e-02 -7.804090e-02 -8.568690e-02 -9.230353e-02 -1.000710e-01 -1.069398e-01 -1.148016e-01 -1.219180e-01 -1.298313e-01 -1.371692e-01 -1.450744e-01 -1.525813e-01 -1.603993e-01 -1.679922e-01 -1.756215e-01 -1.831837e-01 -1.904983e-01 -1.978790e-01 -2.047281e-01 -2.117445e-01 -2.179549e-01 -2.243993e-01 -2.297815e-01 -2.354306e-01 -2.397872e-01 -2.444149e-01 -2.475508e-01 -2.509414e-01 -2.526759e-01 -2.546361e-01 -2.548129e-01 -2.551826e-01 -2.536782e-01 -2.523375e-01 -2.490673e-01 -2.459401e-01 -2.408603e-01 -2.359150e-01 -2.290227e-01 -2.222701e-01 -2.136010e-01 -2.050909e-01 -1.947167e-01 -1.845338e-01 -1.725581e-01 -1.608188e-01 -1.473748e-01 -1.342242e-01 -1.194729e-01 -1.050835e-01 
-9.378981e-02 -7.773188e-02 -6.029015e-02 -4.335504e-02 -2.519310e-02 -7.643312e-03 1.095915e-02 2.883062e-02 4.756337e-02 6.543385e-02 8.395824e-02 1.014791e-01 1.194334e-01 1.362373e-01 1.532464e-01 1.689593e-01 1.846482e-01 1.989051e-01 2.129167e-01 2.253812e-01 2.373966e-01 2.477813e-01 2.575393e-01 2.656255e-01 2.729407e-01 2.785933e-01 2.833684e-01 2.865448e-01 2.887759e-01 2.895275e-01 2.893015e-01 2.877669e-01 2.852530e-01 2.816451e-01 2.770795e-01 2.716684e-01 2.653369e-01 2.584298e-01 2.506483e-01 2.425701e-01 2.336658e-01 2.247412e-01 2.150354e-01 2.055726e-01 1.953665e-01 1.856452e-01 1.752081e-01 1.654703e-01 1.550319e-01 1.454762e-01 1.352210e-01 1.259999e-01 1.160655e-01 1.072852e-01 9.776227e-02 8.948461e-02 8.041940e-02 7.266541e-02 6.406403e-02 5.681877e-02 4.865288e-02 4.187135e-02 3.408509e-02 2.769885e-02 2.021659e-02 1.414080e-02 6.875423e-03 1.015881e-03 -6.123027e-03 -1.186322e-02 -1.896180e-02 -2.467646e-02 -3.181024e-02 -3.758552e-02 -4.481480e-02 -5.072608e-02 -5.809333e-02 -6.420335e-02 -7.173260e-02 -7.809057e-02 -8.578820e-02 -9.242907e-02 -1.002853e-01 -1.072284e-01 -1.152183e-01 -1.224649e-01 -1.305483e-01 -1.380773e-01 -1.461969e-01 -1.539595e-01 -1.620378e-01 -1.699516e-01 -1.778863e-01 -1.858313e-01 -1.934926e-01 -2.013090e-01 -2.085381e-01 -2.160292e-01 -2.226407e-01 -2.295798e-01 -2.353678e-01 -2.415097e-01 -2.462578e-01 -2.513526e-01 -2.548463e-01 -2.586556e-01 -2.606953e-01 -2.630058e-01 -2.634192e-01 -2.640553e-01 -2.627068e-01 -2.615378e-01 -2.583348e-01 -2.552790e-01 -2.501739e-01 -2.451984e-01 -2.381881e-01 -2.313055e-01 -2.224279e-01 -2.136920e-01 -2.030222e-01 -1.925227e-01 -1.801686e-01 -1.680271e-01 -1.541261e-01 -1.404927e-01 -1.252100e-01 -1.102621e-01 
-9.900369e-02 -8.228117e-02 -6.412308e-02 -4.645500e-02 -2.751007e-02 -9.166812e-03 1.027563e-02 2.898967e-02 4.860555e-02 6.735163e-02 8.678326e-02 1.051911e-01 1.240521e-01 1.417272e-01 1.596123e-01 1.761487e-01 1.926489e-01 2.076466e-01 2.223694e-01 2.354573e-01 2.480497e-01 2.589094e-01 2.690822e-01 2.774708e-01 2.850192e-01 2.907882e-01 2.956065e-01 2.987116e-01 3.007998e-01 3.013029e-01 3.007635e-01 2.988240e-01 2.958513e-01 2.917113e-01 2.865736e-01 2.805374e-01 2.735561e-01 2.659673e-01 2.574951e-01 2.487143e-01 2.391134e-01 2.294976e-01 2.191209e-01 2.090064e-01 1.981814e-01 1.878702e-01 1.768870e-01 1.666375e-01 1.557404e-01 1.457617e-01 1.351435e-01 1.255931e-01 1.153939e-01 1.063781e-01 9.668588e-02 8.826226e-02 7.911605e-02 7.129784e-02 6.269261e-02 5.545432e-02 4.734761e-02 4.063163e-02 3.295135e-02 2.667537e-02 1.932862e-02 1.339345e-02 6.275791e-03 5.731847e-04 -6.422056e-03 -1.200204e-02 -1.897525e-02 -2.453794e-02 -3.157613e-02 -3.721747e-02 -4.438929e-02 -5.019272e-02 -5.754600e-02 -6.358109e-02 -7.114271e-02 -7.746483e-02 -8.524246e-02 -9.189280e-02 -9.987737e-02 -1.068820e-01 -1.150497e-01 -1.224171e-01 -1.307293e-01 -1.384453e-01 -1.468470e-01 -1.548681e-01 -1.632830e-01 -1.715290e-01 -1.798542e-01 -1.882020e-01 -1.963031e-01 -2.045840e-01 -2.122928e-01 -2.202944e-01 -2.274108e-01 -2.348849e-01 -2.411838e-01 -2.478598e-01 -2.531021e-01 -2.587033e-01 -2.626510e-01 -2.669129e-01 -2.693442e-01 -2.720315e-01 -2.727553e-01 -2.736752e-01 -2.725421e-01 -2.715530e-01 -2.684619e-01 -2.654770e-01 -2.603768e-01 -2.553629e-01 -2.482513e-01 -2.412243e-01 -2.321427e-01 -2.231617e-01 -2.121901e-01 -2.013510e-01 -1.886026e-01 -1.760327e-01 -1.616500e-01 -1.475048e-01 -1.316574e-01 -1.161190e-01 
-1.046605e-01 -8.718989e-02 -6.823939e-02 -4.974365e-02 -2.993201e-02 -1.068928e-02 9.685107e-03 2.935861e-02 4.995783e-02 6.970593e-02 9.015224e-02 1.095805e-01 1.294606e-01 1.481434e-01 1.670183e-01 1.845121e-01 2.019338e-01 2.177976e-01 2.333322e-01 2.471527e-01 2.604075e-01 2.718284e-01 2.824802e-01 2.912296e-01 2.990497e-01 3.049622e-01 3.098343e-01 3.128631e-01 3.147907e-01 3.150098e-01 3.141122e-01 3.117064e-01 3.082056e-01 3.034516e-01 2.976519e-01 2.908945e-01 2.831573e-01 2.747831e-01 2.655020e-01 2.559129e-01 2.454893e-01 2.350802e-01 2.239023e-01 2.130415e-01 2.014668e-01 1.904821e-01 1.788241e-01 1.679926e-01 1.565124e-01 1.460552e-01 1.349561e-01 1.250363e-01 1.144630e-01 1.051868e-01 9.522590e-02 8.664596e-02 7.733054e-02 6.945108e-02 6.076588e-02 5.354900e-02 4.543798e-02 3.881120e-02 3.118617e-02 2.505064e-02 1.780107e-02 1.204042e-02 5.043818e-03 -4.670888e-04 -7.334680e-03 -1.272146e-02 -1.957584e-02 -2.495754e-02 -3.189838e-02 -3.738228e-02 -4.448763e-02 -5.016622e-02 -5.749006e-02 -6.344012e-02 -7.101289e-02 -7.729603e-02 -8.512742e-02 -9.179109e-02 -9.987373e-02 -1.069510e-01 -1.152635e-01 -1.227707e-01 -1.312782e-01 -1.392093e-01 -1.478611e-01 -1.561793e-01 -1.649029e-01 -1.735313e-01 -1.822253e-01 -1.910384e-01 -1.995653e-01 -2.083845e-01 -2.165671e-01 -2.251624e-01 -2.327849e-01 -2.408832e-01 -2.476991e-01 -2.549998e-01 -2.607446e-01 -2.669392e-01 -2.713480e-01 -2.761413e-01 -2.789671e-01 -2.820976e-01 -2.831282e-01 -2.843832e-01 -2.834537e-01 -2.826792e-01 -2.796795e-01 -2.767831e-01 -2.716592e-01 -2.666082e-01 -2.593590e-01 -2.521740e-01 -2.428455e-01 -2.335923e-01 -2.222703e-01 -2.110521e-01 -1.978558e-01 -1.848067e-01 -1.698838e-01 -1.551651e-01 -1.386897e-01 -1.224881e-01 
-1.110221e-01 -9.276715e-02 -7.296995e-02 -5.360522e-02 -3.286290e-02 -1.267296e-02 8.707478e-03 2.939554e-02 5.106205e-02 7.187480e-02 9.342827e-02 1.139461e-01 1.349435e-01 1.547071e-01 1.746713e-01 1.931959e-01 2.116343e-01 2.284319e-01 2.448623e-01 2.594720e-01 2.734550e-01 2.854771e-01 2.966498e-01 3.057786e-01 3.138850e-01 3.199356e-01 3.248477e-01 3.277714e-01 3.294983e-01 3.293836e-01 3.280664e-01 3.251273e-01 3.210229e-01 3.155764e-01 3.090322e-01 3.014696e-01 2.928951e-01 2.836510e-01 2.734880e-01 2.630106e-01 2.517058e-01 2.404316e-01 2.284128e-01 2.167449e-01 2.044025e-01 1.926958e-01 1.803684e-01 1.689191e-01 1.568846e-01 1.459253e-01 1.343964e-01 1.240948e-01 1.132177e-01 1.036785e-01 9.353543e-02 8.480471e-02 7.541854e-02 6.748971e-02 5.883034e-02 5.165146e-02 4.364433e-02 3.712644e-02 2.966228e-02 2.368864e-02 1.663449e-02 1.107035e-02 4.281371e-03 -1.016171e-03 -7.684801e-03 -1.285756e-02 -1.953963e-02 -2.472053e-02 -3.152973e-02 -3.683722e-02 -4.386110e-02 -4.939625e-02 -5.669389e-02 -6.254021e-02 -7.014366e-02 -7.636880e-02 -8.428730e-02 -9.094528e-02 -9.917086e-02 -1.063029e-01 -1.148148e-01 -1.224471e-01 -1.312133e-01 -1.393506e-01 -1.483248e-01 -1.569399e-01 -1.660541e-01 -1.750759e-01 -1.842308e-01 -1.935325e-01 -2.025878e-01 -2.119807e-01 -2.207489e-01 -2.299832e-01 -2.382303e-01 -2.470045e-01 -2.544584e-01 -2.624373e-01 -2.688031e-01 -2.756414e-01 -2.806221e-01 -2.859900e-01 -2.893086e-01 -2.929150e-01 -2.943346e-01 -2.959454e-01 -2.952840e-01 -2.947325e-01 -2.918706e-01 -2.890603e-01 -2.839417e-01 -2.788423e-01 -2.714694e-01 -2.641082e-01 -2.545334e-01 -2.449852e-01 -2.333024e-01 -2.216792e-01 -2.080150e-01 -1.944587e-01 -1.789671e-01 -1.636449e-01 -1.465045e-01 -1.296073e-01 