# vtk DataFile Version 2.0
Comment goes here
ASCII

DATASET STRUCTURED_POINTS
FIELD FieldData 1
TIME 1 1 double
0.13500000
DIMENSIONS    128   128   1

ORIGIN    0.000   0.000   0.000
SPACING   0.039062 0.039062   1.000

POINT_DATA   16384
SCALARS uX double
LOOKUP_TABLE default

-1.605620e-01 -1.391332e-01 -1.135057e-01 -9.211478e-02 -6.550224e-02 -4.437895e-02 -1.703476e-02 3.598195e-03 3.142614e-02 5.135442e-02 7.942381e-02 9.844208e-02 1.265158e-01 1.444283e-01 1.722741e-01 1.888950e-01 2.162848e-01 2.314394e-01 2.581497e-01 2.716754e-01 2.974868e-01 3.092344e-01 3.339330e-01 3.437689e-01 3.671469e-01 3.749546e-01 3.968118e-01 4.024941e-01 4.226396e-01 4.261207e-01 4.443741e-01 4.456015e-01 4.617950e-01 4.607411e-01 4.747211e-01 4.713849e-01 4.830135e-01 4.774217e-01 4.865786e-01 4.787867e-01 4.853705e-01 4.754632e-01 4.793932e-01 4.674842e-01 4.687017e-01 4.549333e-01 4.534035e-01 4.379452e-01 4.336584e-01 4.167047e-01 4.096777e-01 3.914453e-01 3.817228e-01 3.624466e-01 3.501022e-01 3.300305e-01 3.151668e-01 2.945564e-01 2.773053e-01 2.564153e-01 2.369369e-01 2.160226e-01 1.945037e-01 1.738104e-01 1.504622e-01 1.302191e-01 1.052740e-01 8.568910e-02 5.939687e-02 4.065237e-02 1.327613e-02 -4.474662e-03 -3.266302e-02 -4.929732e-02 -7.802140e-02 -9.344687e-02 -1.224297e-01 -1.365826e-01 -1.655498e-01 -1.783917e-01 -2.070737e-01 -2.185859e-01 -2.467197e-01 -2.568971e-01 -2.842263e-01 -2.930702e-01 -3.193447e-01 -3.268558e-01 -3.518307e-01 -3.580021e-01 -3.814373e-01 -3.862495e-01 -4.079094e-01 -4.113267e-01 -4.309805e-01 -4.329505e-01 -4.503751e-01 -4.508303e-01 -4.658139e-01 -4.646769e-01 -4.770245e-01 -4.742145e-01 -4.837546e-01 -4.791966e-01 -4.857885e-01 -4.794219e-01 -4.829628e-01 -4.747509e-01 -4.751815e-01 -4.651186e-01 -4.624275e-01 -4.505442e-01 -4.447691e-01 -4.311352e-01 -4.223622e-01 -4.070858e-01 -3.954460e-01 -3.786713e-01 -3.643351e-01 -3.462376e-01 -3.294079e-01 -3.101881e-01 -2.910927e-01 -2.709695e-01 -2.498537e-01 -2.290580e-01 -2.061776e-01 -1.849464e-01 
-1.548841e-01 -1.335558e-01 -1.079828e-01 -8.672015e-02 -6.017907e-02 -3.920679e-02 -1.194734e-02 8.516715e-03 3.624997e-02 5.599569e-02 8.396335e-02 1.027890e-01 1.307564e-01 1.484690e-01 1.762057e-01 1.926218e-01 2.199012e-01 2.348476e-01 2.614469e-01 2.747619e-01 3.004625e-01 3.119973e-01 3.365853e-01 3.462063e-01 3.694737e-01 3.770641e-01 3.988105e-01 4.042726e-01 4.243063e-01 4.275639e-01 4.457041e-01 4.467041e-01 4.627822e-01 4.614968e-01 4.753586e-01 4.717865e-01 4.832935e-01 4.774618e-01 4.864931e-01 4.784575e-01 4.849112e-01 4.747570e-01 4.785521e-01 4.663940e-01 4.674715e-01 4.534531e-01 4.517780e-01 4.360702e-01 4.316327e-01 4.144316e-01 4.072489e-01 3.887731e-01 3.788903e-01 3.593768e-01 3.468682e-01 3.265676e-01 3.115370e-01 2.907088e-01 2.732893e-01 2.521953e-01 2.325491e-01 2.114477e-01 1.897638e-01 1.689036e-01 1.453959e-01 1.250096e-01 9.991380e-02 8.021302e-02 5.378243e-02 3.495317e-02 7.454743e-03 -1.034586e-02 -3.863613e-02 -5.528158e-02 -8.408307e-02 -9.947759e-02 -1.285091e-01 -1.425860e-01 -1.715692e-01 -1.842874e-01 -2.129494e-01 -2.242886e-01 -2.523634e-01 -2.623180e-01 -2.895473e-01 -2.981190e-01 -3.242519e-01 -3.314431e-01 -3.562355e-01 -3.620427e-01 -3.852563e-01 -3.896648e-01 -4.110672e-01 -4.140475e-01 -4.334131e-01 -4.349203e-01 -4.520320e-01 -4.520076e-01 -4.666607e-01 -4.650367e-01 -4.770443e-01 -4.737502e-01 -4.829490e-01 -4.779199e-01 -4.841776e-01 -4.773630e-01 -4.805846e-01 -4.719568e-01 -4.720901e-01 -4.616514e-01 -4.586909e-01 -4.464784e-01 -4.404667e-01 -4.265545e-01 -4.175810e-01 -4.020803e-01 -3.902777e-01 -3.733337e-01 -3.588728e-01 -3.406601e-01 -3.237429e-01 -3.044597e-01 -2.853120e-01 -2.651736e-01 -2.440377e-01 -2.232706e-01 -2.003989e-01 -1.792349e-01 
-1.612827e-01 -1.397363e-01 -1.139798e-01 -9.247389e-02 -6.573463e-02 -4.450003e-02 -1.703188e-02 3.708227e-03 3.165733e-02 5.168827e-02 7.987618e-02 9.899236e-02 1.271823e-01 1.451875e-01 1.731473e-01 1.898556e-01 2.173573e-01 2.325932e-01 2.594130e-01 2.730133e-01 2.989316e-01 3.107462e-01 3.355486e-01 3.454428e-01 3.689209e-01 3.767772e-01 3.987299e-01 4.044502e-01 4.246858e-01 4.281932e-01 4.465305e-01 4.477717e-01 4.640420e-01 4.629886e-01 4.770375e-01 4.736878e-01 4.853766e-01 4.797571e-01 4.889646e-01 4.811304e-01 4.877545e-01 4.777902e-01 4.817495e-01 4.697691e-01 4.710041e-01 4.571508e-01 4.556258e-01 4.400701e-01 4.357747e-01 4.187126e-01 4.116631e-01 3.933131e-01 3.835539e-01 3.641532e-01 3.517574e-01 3.315572e-01 3.166276e-01 2.958876e-01 2.785564e-01 2.575387e-01 2.379668e-01 2.169299e-01 1.953054e-01 1.744974e-01 1.510330e-01 1.306859e-01 1.056159e-01 8.593988e-02 5.951610e-02 4.069494e-02 1.318273e-02 -4.629464e-03 -3.295607e-02 -4.963652e-02 -7.849917e-02 -9.395647e-02 -1.230765e-01 -1.372488e-01 -1.663507e-01 -1.792019e-01 -2.080156e-01 -2.195303e-01 -2.477924e-01 -2.579691e-01 -2.854234e-01 -2.942670e-01 -3.206638e-01 -3.281783e-01 -3.532733e-01 -3.594545e-01 -3.830076e-01 -3.878375e-01 -4.096126e-01 -4.130562e-01 -4.328215e-01 -4.348251e-01 -4.523555e-01 -4.528495e-01 -4.679304e-01 -4.668337e-01 -4.792669e-01 -4.764945e-01 -4.861048e-01 -4.815769e-01 -4.882202e-01 -4.818720e-01 -4.854423e-01 -4.772332e-01 -4.776694e-01 -4.675912e-01 -4.648810e-01 -4.529629e-01 -4.471446e-01 -4.334565e-01 -4.246178e-01 -4.092693e-01 -3.975442e-01 -3.806818e-01 -3.662440e-01 -3.480463e-01 -3.311025e-01 -3.117733e-01 -2.925551e-01 -2.723165e-01 -2.510727e-01 -2.301586e-01 -2.071479e-01 -1.857976e-01 
-1.562718e-01 -1.347136e-01 -1.088864e-01 -8.739906e-02 -6.060821e-02 -3.941806e-02 -1.191402e-02 8.760137e-03 3.673281e-02 5.668030e-02 8.488261e-02 1.039012e-01 1.320990e-01 1.499951e-01 1.779583e-01 1.945477e-01 2.220499e-01 2.371580e-01 2.639760e-01 2.774397e-01 3.033541e-01 3.150227e-01 3.398186e-01 3.495564e-01 3.730244e-01 3.807124e-01 4.026504e-01 4.081889e-01 4.284035e-01 4.317142e-01 4.500228e-01 4.510507e-01 4.672831e-01 4.659988e-01 4.799990e-01 4.764001e-01 4.880280e-01 4.821403e-01 4.912734e-01 4.831523e-01 4.896872e-01 4.794180e-01 4.832719e-01 4.709700e-01 4.720825e-01 4.578928e-01 4.562273e-01 4.403229e-01 4.358682e-01 4.184482e-01 4.112203e-01 3.925071e-01 3.825501e-01 3.627853e-01 3.501729e-01 3.296127e-01 3.144488e-01 2.933583e-01 2.757769e-01 2.544243e-01 2.345890e-01 2.132389e-01 1.913411e-01 1.702480e-01 1.465048e-01 1.259068e-01 1.005576e-01 8.067076e-02 5.397322e-02 3.498680e-02 7.212322e-03 -1.071480e-02 -3.928578e-02 -5.602701e-02 -8.510979e-02 -1.005710e-01 -1.298810e-01 -1.439989e-01 -1.732552e-01 -1.859937e-01 -2.149217e-01 -2.262667e-01 -2.545999e-01 -2.645526e-01 -2.920329e-01 -3.006021e-01 -3.269792e-01 -3.341740e-01 -3.592044e-01 -3.650264e-01 -3.884722e-01 -3.929100e-01 -4.145381e-01 -4.175632e-01 -4.371456e-01 -4.387113e-01 -4.560274e-01 -4.560708e-01 -4.709107e-01 -4.693572e-01 -4.815276e-01 -4.782984e-01 -4.876293e-01 -4.826507e-01 -4.890031e-01 -4.822161e-01 -4.854894e-01 -4.768594e-01 -4.769979e-01 -4.665221e-01 -4.635189e-01 -4.512321e-01 -4.451307e-01 -4.311075e-01 -4.220009e-01 -4.063551e-01 -3.943815e-01 -3.772630e-01 -3.625999e-01 -3.441890e-01 -3.270458e-01 -3.075472e-01 -2.881569e-01 -2.677921e-01 -2.464037e-01 -2.254048e-01 -2.022762e-01 -1.808796e-01 
-1.634422e-01 -1.415415e-01 -1.153968e-01 -9.354523e-02 -6.642541e-02 -4.485632e-02 -1.701627e-02 4.045646e-03 3.235802e-02 5.269721e-02 8.124046e-02 1.006507e-01 1.291888e-01 1.474731e-01 1.757746e-01 1.927457e-01 2.205830e-01 2.360637e-01 2.632125e-01 2.770374e-01 3.032771e-01 3.152934e-01 3.404080e-01 3.504780e-01 3.742571e-01 3.822602e-01 4.045003e-01 4.103354e-01 4.308422e-01 4.344294e-01 4.530192e-01 4.543025e-01 4.708041e-01 4.697529e-01 4.840093e-01 4.806199e-01 4.924900e-01 4.867873e-01 4.961477e-01 4.881862e-01 4.949322e-01 4.847965e-01 4.888444e-01 4.766495e-01 4.779375e-01 4.638283e-01 4.623185e-01 4.464688e-01 4.421487e-01 4.247590e-01 4.176429e-01 3.989376e-01 3.890684e-01 3.692917e-01 3.567418e-01 3.361530e-01 3.210254e-01 2.998931e-01 2.823210e-01 2.609169e-01 2.410637e-01 2.196556e-01 1.977128e-01 1.765581e-01 1.527433e-01 1.320820e-01 1.066351e-01 8.668420e-02 5.986361e-02 4.081162e-02 1.288934e-02 -5.107030e-03 -3.385034e-02 -5.066834e-02 -7.994831e-02 -9.549931e-02 -1.250323e-01 -1.392599e-01 -1.687669e-01 -1.816428e-01 -2.108516e-01 -2.223703e-01 -2.510171e-01 -2.611880e-01 -2.890173e-01 -2.978567e-01 -3.246202e-01 -3.321422e-01 -3.575972e-01 -3.638060e-01 -3.877130e-01 -3.925960e-01 -4.147179e-01 -4.182411e-01 -4.383428e-01 -4.404497e-01 -4.583003e-01 -4.589140e-01 -4.742904e-01 -4.733190e-01 -4.860125e-01 -4.833575e-01 -4.931818e-01 -4.887489e-01 -4.955489e-01 -4.892596e-01 -4.929203e-01 -4.847223e-01 -4.851761e-01 -4.750531e-01 -4.722852e-01 -4.602626e-01 -4.543129e-01 -4.404609e-01 -4.314226e-01 -4.158553e-01 -4.038707e-01 -3.867422e-01 -3.719959e-01 -3.534941e-01 -3.362045e-01 -3.165435e-01 -2.969538e-01 -2.763659e-01 -2.547352e-01 -2.334633e-01 -2.100592e-01 -1.883501e-01 
-1.590417e-01 -1.370213e-01 -1.106838e-01 -8.874555e-02 -6.145447e-02 -3.982762e-02 -1.183441e-02 9.260550e-03 3.771166e-02 5.806315e-02 8.673425e-02 1.061393e-01 1.347975e-01 1.530616e-01 1.814778e-01 1.984149e-01 2.263628e-01 2.417961e-01 2.690521e-01 2.828151e-01 3.091582e-01 3.210966e-01 3.463095e-01 3.562832e-01 3.801538e-01 3.880394e-01 4.103621e-01 4.160555e-01 4.366336e-01 4.400523e-01 4.586996e-01 4.597850e-01 4.763276e-01 4.750469e-01 4.893256e-01 4.856737e-01 4.975451e-01 4.915460e-01 5.008842e-01 4.925922e-01 4.992908e-01 4.887911e-01 4.927642e-01 4.801733e-01 4.813573e-01 4.668229e-01 4.651781e-01 4.488774e-01 4.443896e-01 4.265279e-01 4.192104e-01 4.000177e-01 3.899127e-01 3.696401e-01 3.568201e-01 3.357346e-01 3.203034e-01 2.986823e-01 2.807754e-01 2.588993e-01 2.386834e-01 2.168298e-01 1.945012e-01 1.729368e-01 1.487188e-01 1.276929e-01 1.018327e-01 8.157056e-02 5.433461e-02 3.503212e-02 6.701097e-03 -1.147914e-02 -4.061563e-02 -5.754675e-02 -8.719559e-02 -1.027868e-01 -1.326563e-01 -1.468514e-01 -1.766553e-01 -1.894282e-01 -2.188890e-01 -2.302385e-01 -2.590885e-01 -2.690302e-01 -2.970119e-01 -3.055696e-01 -3.324345e-01 -3.396310e-01 -3.651374e-01 -3.709856e-01 -3.948966e-01 -3.993921e-01 -4.214734e-01 -4.245899e-01 -4.446096e-01 -4.462968e-01 -4.640269e-01 -4.642125e-01 -4.794323e-01 -4.780278e-01 -4.905308e-01 -4.874402e-01 -4.970418e-01 -4.921726e-01 -4.987199e-01 -4.919953e-01 -4.953759e-01 -4.867463e-01 -4.868966e-01 -4.763490e-01 -4.732591e-01 -4.608235e-01 -4.545393e-01 -4.402912e-01 -4.309130e-01 -4.149723e-01 -4.026499e-01 -3.851763e-01 -3.701014e-01 -3.512879e-01 -3.336853e-01 -3.137497e-01 -2.938676e-01 -2.730445e-01 -2.511456e-01 -2.296785e-01 -2.060319e-01 -1.841665e-01 
-1.670307e-01 -1.445351e-01 -1.177405e-01 -9.530999e-02 -6.755467e-02 -4.542641e-02 -1.696655e-02 4.632718e-03 3.354982e-02 5.440353e-02 8.353804e-02 1.034392e-01 1.325570e-01 1.513076e-01 1.801786e-01 1.975895e-01 2.259866e-01 2.418778e-01 2.695761e-01 2.837782e-01 3.105554e-01 3.229111e-01 3.485483e-01 3.589148e-01 3.831981e-01 3.914494e-01 4.141712e-01 4.202008e-01 4.411625e-01 4.448857e-01 4.638992e-01 4.652554e-01 4.821452e-01 4.810997e-01 4.957046e-01 4.922505e-01 5.044255e-01 4.985852e-01 5.082027e-01 5.000292e-01 5.069810e-01 4.965586e-01 5.007568e-01 4.882019e-01 4.895809e-01 4.750417e-01 4.735595e-01 4.572150e-01 4.528555e-01 4.349135e-01 4.276878e-01 4.083825e-01 3.983308e-01 3.779184e-01 3.651116e-01 3.438651e-01 3.284061e-01 3.066095e-01 2.886334e-01 2.665746e-01 2.462485e-01 2.242118e-01 2.017334e-01 1.799917e-01 1.555865e-01 1.343940e-01 1.083120e-01 8.789741e-02 6.040796e-02 4.096842e-02 1.235534e-02 -5.947947e-03 -3.539245e-02 -5.243664e-02 -8.241769e-02 -9.811880e-02 -1.283441e-01 -1.426551e-01 -1.728394e-01 -1.857458e-01 -2.156136e-01 -2.271269e-01 -2.564138e-01 -2.665629e-01 -2.950154e-01 -3.038362e-01 -3.312093e-01 -3.387348e-01 -3.647890e-01 -3.710381e-01 -3.955361e-01 -4.005059e-01 -4.232094e-01 -4.268687e-01 -4.475376e-01 -4.498248e-01 -4.682182e-01 -4.690436e-01 -4.849237e-01 -4.841760e-01 -4.973158e-01 -4.948725e-01 -5.050655e-01 -5.008063e-01 -5.078778e-01 -5.016994e-01 -5.055175e-01 -4.973470e-01 -4.978330e-01 -4.876396e-01 -4.847739e-01 -4.725766e-01 -4.664018e-01 -4.522719e-01 -4.428911e-01 -4.269510e-01 -4.145220e-01 -3.969395e-01 -3.816659e-01 -3.626460e-01 -3.447671e-01 -3.245422e-01 -3.043214e-01 -2.831414e-01 -2.608562e-01 -2.389796e-01 -2.149125e-01 -1.925988e-01 
-1.631805e-01 -1.404606e-01 -1.133538e-01 -9.073534e-02 -6.269244e-02 -4.040842e-02 -1.168176e-02 1.004560e-02 3.921308e-02 6.017154e-02 8.954432e-02 1.095304e-01 1.388781e-01 1.576962e-01 1.867915e-01 2.042533e-01 2.328707e-01 2.487956e-01 2.767105e-01 2.909272e-01 3.179162e-01 3.302644e-01 3.561067e-01 3.664396e-01 3.909182e-01 3.991055e-01 4.220099e-01 4.279407e-01 4.490685e-01 4.526539e-01 4.718135e-01 4.729891e-01 4.900014e-01 4.887294e-01 5.034299e-01 4.997010e-01 5.119415e-01 5.057766e-01 5.154266e-01 5.068781e-01 5.138263e-01 5.029791e-01 5.071350e-01 4.941073e-01 4.954025e-01 4.803455e-01 4.787354e-01 4.618327e-01 4.572986e-01 4.387644e-01 4.313152e-01 4.113915e-01 4.010659e-01 3.800179e-01 3.668864e-01 3.449980e-01 3.291641e-01 3.067310e-01 2.883321e-01 2.656549e-01 2.448622e-01 2.222380e-01 1.992551e-01 1.769701e-01 1.520302e-01 1.303510e-01 1.037134e-01 8.287980e-02 5.482469e-02 3.504348e-02 5.866239e-03 -1.269401e-02 -4.268926e-02 -5.990102e-02 -9.040778e-02 -1.061854e-01 -1.369008e-01 -1.511988e-01 -1.818283e-01 -1.946369e-01 -2.248982e-01 -2.362366e-01 -2.658608e-01 -2.757678e-01 -3.044994e-01 -3.130229e-01 -3.406171e-01 -3.478024e-01 -3.740217e-01 -3.799003e-01 -4.045105e-01 -4.090901e-01 -4.318564e-01 -4.351145e-01 -4.557994e-01 -4.576801e-01 -4.760443e-01 -4.764607e-01 -4.922666e-01 -4.911072e-01 -5.041268e-01 -5.012672e-01 -5.112922e-01 -5.066091e-01 -5.134632e-01 -5.068505e-01 -5.104019e-01 -5.017857e-01 -5.019573e-01 -4.913080e-01 -4.880850e-01 -4.754251e-01 -4.688574e-01 -4.542646e-01 -4.444647e-01 -4.280693e-01 -4.152061e-01 -3.971846e-01 -3.814729e-01 -3.620387e-01 -3.437283e-01 -3.231212e-01 -3.024845e-01 -2.809596e-01 -2.582808e-01 -2.360996e-01 -2.116653e-01 -1.890879e-01 
-1.720285e-01 -1.486908e-01 -1.209806e-01 -9.773386e-02 -6.908679e-02 -4.617263e-02 -1.684564e-02 5.507512e-03 3.526916e-02 5.684439e-02 8.680425e-02 1.073944e-01 1.373218e-01 1.567280e-01 1.863956e-01 2.044262e-01 2.336078e-01 2.500790e-01 2.785490e-01 2.932857e-01 3.208192e-01 3.336573e-01 3.600311e-01 3.708201e-01 3.958149e-01 4.044209e-01 4.278232e-01 4.341321e-01 4.557367e-01 4.596566e-01 4.792693e-01 4.807330e-01 4.981721e-01 4.971391e-01 5.122377e-01 5.086964e-01 5.213037e-01 5.152727e-01 5.252558e-01 5.167857e-01 5.240308e-01 5.132052e-01 5.176192e-01 5.045560e-01 5.060675e-01 4.909189e-01 4.894806e-01 4.724326e-01 4.680227e-01 4.492938e-01 4.419182e-01 4.217562e-01 4.114510e-01 3.901291e-01 3.769626e-01 3.547740e-01 3.388484e-01 3.160994e-01 2.975521e-01 2.745541e-01 2.535575e-01 2.306188e-01 2.073792e-01 1.847960e-01 1.595507e-01 1.375983e-01 1.106115e-01 8.953616e-02 6.109402e-02 4.110563e-02 1.150942e-02 -7.223624e-03 -3.766436e-02 -5.501871e-02 -8.599329e-02 -1.018916e-01 -1.330947e-01 -1.475036e-01 -1.786408e-01 -1.915661e-01 -2.223574e-01 -2.338364e-01 -2.640173e-01 -2.741083e-01 -3.034291e-01 -3.121987e-01 -3.404208e-01 -3.479305e-01 -3.748212e-01 -3.811137e-01 -4.064406e-01 -4.115284e-01 -4.350535e-01 -4.389103e-01 -4.603872e-01 -4.629444e-01 -4.821179e-01 -4.832662e-01 -4.998768e-01 -4.994750e-01 -5.132675e-01 -5.111559e-01 -5.218921e-01 -5.179099e-01 -5.253842e-01 -5.193894e-01 -5.234435e-01 -5.153312e-01 -5.158683e-01 -5.055857e-01 -5.025791e-01 -4.901356e-01 -4.836323e-01 -4.691020e-01 -4.592207e-01 -4.427399e-01 -4.296624e-01 -4.114208e-01 -3.953805e-01 -3.756100e-01 -3.568780e-01 -3.358392e-01 -3.147096e-01 -2.926791e-01 -2.694565e-01 -2.467158e-01 -2.217046e-01 -1.985314e-01 
-1.686623e-01 -1.449988e-01 -1.168595e-01 -9.332776e-02 -6.428053e-02 -4.111712e-02 -1.141403e-02 1.115800e-02 4.127737e-02 6.304630e-02 9.335112e-02 1.141139e-01 1.443784e-01 1.639387e-01 1.939388e-01 2.121057e-01 2.416171e-01 2.582051e-01 2.870021e-01 3.018330e-01 3.296888e-01 3.425936e-01 3.692819e-01 3.801044e-01 4.054017e-01 4.140018e-01 4.376900e-01 4.439472e-01 4.658164e-01 4.696330e-01 4.894838e-01 4.907875e-01 5.084338e-01 5.071798e-01 5.224503e-01 5.186235e-01 5.313636e-01 5.249804e-01 5.350533e-01 5.261632e-01 5.334515e-01 5.221385e-01 5.265454e-01 5.129291e-01 5.143798e-01 4.986162e-01 4.970595e-01 4.793402e-01 4.747506e-01 4.553016e-01 4.476818e-01 4.267609e-01 4.161443e-01 3.940366e-01 3.804899e-01 3.575023e-01 3.411282e-01 3.175823e-01 2.985202e-01 2.747440e-01 2.531711e-01 2.294901e-01 2.056196e-01 1.823470e-01 1.564259e-01 1.338533e-01 1.061580e-01 8.454627e-02 5.537656e-02 3.494796e-02 4.620212e-03 -1.444759e-02 -4.560829e-02 -6.318636e-02 -9.485416e-02 -1.108637e-01 -1.427195e-01 -1.571302e-01 -1.888679e-01 -2.016930e-01 -2.330239e-01 -2.443121e-01 -2.749665e-01 -2.847908e-01 -3.145171e-01 -3.229611e-01 -3.515219e-01 -3.586646e-01 -3.858310e-01 -3.917321e-01 -4.172761e-01 -4.219622e-01 -4.456506e-01 -4.491059e-01 -4.706951e-01 -4.728563e-01 -4.920917e-01 -4.928501e-01 -5.094699e-01 -5.086800e-01 -5.224241e-01 -5.199185e-01 -5.305427e-01 -5.261517e-01 -5.334442e-01 -5.270174e-01 -5.308160e-01 -5.222428e-01 -5.224502e-01 -5.116765e-01 -5.082701e-01 -4.953083e-01 -4.883442e-01 -4.732763e-01 -4.628858e-01 -4.458591e-01 -4.322396e-01 -4.134567e-01 -3.968581e-01 -3.765638e-01 -3.572728e-01 -3.357389e-01 -3.140631e-01 -2.915750e-01 -2.678293e-01 -2.446738e-01 -2.191692e-01 -1.956262e-01 
-1.783984e-01 -1.539634e-01 -1.250669e-01 -1.007625e-01 -7.096668e-02 -4.703814e-02 -1.659873e-02 6.725223e-03 3.756786e-02 6.007178e-02 9.108758e-02 1.125657e-01 1.435302e-01 1.637833e-01 1.944736e-01 2.133078e-01 2.434996e-01 2.607258e-01 2.901925e-01 3.056280e-01 3.341408e-01 3.476118e-01 3.749415e-01 3.862870e-01 4.122065e-01 4.212817e-01 4.455693e-01 4.522495e-01 4.746914e-01 4.788752e-01 4.992686e-01 5.008802e-01 5.190356e-01 5.180269e-01 5.337697e-01 5.301226e-01 5.432950e-01 5.370227e-01 5.474850e-01 5.386343e-01 5.462660e-01 5.349190e-01 5.396199e-01 5.258956e-01 5.275872e-01 5.116425e-01 5.102698e-01 4.922994e-01 4.878330e-01 4.680685e-01 4.605069e-01 4.392143e-01 4.285872e-01 4.060622e-01 3.924335e-01 3.689960e-01 3.524665e-01 3.284529e-01 3.091621e-01 2.849161e-01 2.630429e-01 2.389057e-01 2.146675e-01 1.909674e-01 1.646175e-01 1.416588e-01 1.134813e-01 9.153495e-02 6.183870e-02 4.113303e-02 1.024398e-02 -9.042200e-03 -4.079008e-02 -5.853200e-02 -9.080563e-02 -1.069344e-01 -1.394101e-01 -1.539109e-01 -1.862814e-01 -1.991883e-01 -2.311676e-01 -2.425541e-01 -2.738789e-01 -2.838452e-01 -3.142730e-01 -3.229298e-01 -3.522335e-01 -3.596844e-01 -3.876441e-01 -3.939674e-01 -4.203608e-01 -4.255929e-01 -4.501858e-01 -4.543089e-01 -4.768485e-01 -4.797846e-01 -4.999974e-01 -5.016099e-01 -5.192056e-01 -5.193096e-01 -5.339923e-01 -5.323730e-01 -5.438578e-01 -5.402946e-01 -5.483292e-01 -5.426229e-01 -5.470095e-01 -5.390079e-01 -5.396223e-01 -5.292412e-01 -5.260460e-01 -5.132819e-01 -5.063312e-01 -4.912642e-01 -4.806999e-01 -4.634884e-01 -4.495285e-01 -4.303960e-01 -4.133177e-01 -3.925360e-01 -3.726563e-01 -3.505269e-01 -3.281837e-01 -3.050211e-01 -2.805565e-01 -2.566739e-01 -2.304218e-01 -2.061208e-01 
-1.754407e-01 -1.505817e-01 -1.211423e-01 -9.646044e-02 -6.615673e-02 -4.189087e-02 -1.097168e-02 1.265679e-02 4.395889e-02 6.674136e-02 9.820400e-02 1.199400e-01 1.513452e-01 1.718387e-01 2.029679e-01 2.220253e-01 2.526563e-01 2.700860e-01 2.999916e-01 3.156057e-01 3.445544e-01 3.581723e-01 3.859301e-01 3.973824e-01 4.237164e-01 4.328498e-01 4.575317e-01 4.642131e-01 4.870227e-01 4.911429e-01 5.118711e-01 5.133476e-01 5.317991e-01 5.305782e-01 5.465734e-01 5.426324e-01 5.560086e-01 5.493575e-01 5.599707e-01 5.506546e-01 5.583798e-01 5.464808e-01 5.512135e-01 5.368523e-01 5.385097e-01 5.218471e-01 5.203691e-01 5.016063e-01 4.969585e-01 4.763363e-01 4.685123e-01 4.463084e-01 4.353338e-01 4.118587e-01 3.977944e-01 3.733853e-01 3.563313e-01 3.313438e-01 3.114415e-01 2.862405e-01 2.636739e-01 2.386223e-01 2.136173e-01 1.890653e-01 1.618867e-01 1.381597e-01 1.091067e-01 8.649422e-02 5.589339e-02 3.463965e-02 2.836088e-03 -1.686824e-02 -4.952049e-02 -6.754371e-02 -1.006919e-01 -1.169637e-01 -1.502663e-01 -1.647764e-01 -1.979113e-01 -2.107042e-01 -2.433745e-01 -2.545396e-01 -2.864758e-01 -2.961339e-01 -3.270922e-01 -3.353774e-01 -3.651340e-01 -3.721743e-01 -4.005155e-01 -4.064121e-01 -4.331232e-01 -4.379315e-01 -4.627853e-01 -4.665008e-01 -4.892485e-01 -4.917987e-01 -5.121667e-01 -5.134125e-01 -5.311055e-01 -5.308524e-01 -5.455648e-01 -5.435828e-01 -5.550175e-01 -5.510690e-01 -5.589614e-01 -5.528309e-01 -5.569737e-01 -5.484976e-01 -5.487628e-01 -5.378522e-01 -5.342059e-01 -5.208603e-01 -5.133678e-01 -4.976777e-01 -4.864985e-01 -4.686378e-01 -4.540117e-01 -4.342228e-01 -4.164502e-01 -3.950236e-01 -3.744439e-01 -3.516979e-01 -3.286679e-01 -3.049294e-01 -2.798057e-01 -2.553961e-01 -2.285214e-01 -2.037454e-01 
-1.860768e-01 -1.602799e-01 -1.299221e-01 -1.043145e-01 -7.311437e-02 -4.794277e-02 -1.615049e-02 8.359749e-03 4.051341e-02 6.415187e-02 9.644806e-02 1.190132e-01 1.512376e-01 1.725319e-01 2.044689e-01 2.242959e-01 2.557244e-01 2.738886e-01 3.045805e-01 3.208886e-01 3.506097e-01 3.648749e-01 3.933874e-01 4.054342e-01 4.325003e-01 4.421694e-01 4.675559e-01 4.747090e-01 4.981908e-01 5.027144e-01 5.240780e-01 5.258855e-01 5.449315e-01 5.439654e-01 5.605102e-01 5.567438e-01 5.706211e-01 5.640605e-01 5.751225e-01 5.658089e-01 5.739271e-01 5.619394e-01 5.670054e-01 5.524628e-01 5.543892e-01 5.374530e-01 5.361752e-01 5.170501e-01 5.125283e-01 4.914617e-01 4.836842e-01 4.609642e-01 4.499513e-01 4.259024e-01 4.117108e-01 3.866874e-01 3.694144e-01 3.437917e-01 3.235784e-01 2.977426e-01 2.747753e-01 2.491111e-01 2.236212e-01 1.984993e-01 1.707604e-01 1.465245e-01 1.168470e-01 9.380124e-02 6.252483e-02 4.092291e-02 8.406750e-03 -1.155736e-02 -4.494579e-02 -6.314421e-02 -9.704091e-02 -1.134149e-01 -1.474707e-01 -1.620294e-01 -1.959196e-01 -2.087345e-01 -2.421654e-01 -2.533591e-01 -2.860705e-01 -2.958011e-01 -3.275630e-01 -3.360033e-01 -3.666084e-01 -3.739224e-01 -4.031733e-01 -4.094908e-01 -4.371847e-01 -4.425785e-01 -4.684917e-01 -4.729589e-01 -4.968344e-01 -5.002858e-01 -5.218278e-01 -5.240891e-01 -5.429656e-01 -5.437901e-01 -5.596472e-01 -5.587406e-01 -5.712257e-01 -5.682806e-01 -5.770729e-01 -5.718070e-01 -5.766496e-01 -5.688428e-01 -5.695712e-01 -5.590952e-01 -5.556564e-01 -5.424914e-01 -5.349506e-01 -5.191885e-01 -5.077227e-01 -4.895568e-01 -4.744369e-01 -4.541415e-01 -4.357077e-01 -4.136130e-01 -3.922473e-01 -3.687129e-01 -3.448134e-01 -3.202056e-01 -2.941649e-01 -2.688386e-01 -2.410282e-01 -2.153151e-01 
-1.834377e-01 -1.571228e-01 -1.261128e-01 -1.000418e-01 -6.823266e-02 -4.264285e-02 -1.027493e-02 1.461866e-02 4.732590e-02 7.132243e-02 1.041609e-01 1.270662e-01 1.598305e-01 1.814510e-01 2.139314e-01 2.340710e-01 2.660488e-01 2.845079e-01 3.157538e-01 3.323319e-01 3.626072e-01 3.771076e-01 4.061677e-01 4.184033e-01 4.460022e-01 4.558021e-01 4.816977e-01 4.889127e-01 5.128716e-01 5.173780e-01 5.391789e-01 5.408818e-01 5.603182e-01 5.591531e-01 5.760353e-01 5.719698e-01 5.861263e-01 5.791622e-01 5.904402e-01 5.806160e-01 5.888824e-01 5.762763e-01 5.814176e-01 5.661501e-01 5.680737e-01 5.503103e-01 5.489453e-01 5.288976e-01 5.241975e-01 5.021235e-01 4.940695e-01 4.702712e-01 4.588773e-01 4.336969e-01 4.190149e-01 3.928276e-01 3.749523e-01 3.481577e-01 3.272312e-01 3.002414e-01 2.764552e-01 2.496826e-01 2.232779e-01 1.971208e-01 1.683853e-01 1.432138e-01 1.124765e-01 8.861893e-02 5.624155e-02 3.397183e-02 3.380753e-04 -2.013458e-02 -5.463146e-02 -7.317019e-02 -1.081408e-01 -1.246851e-01 -1.597570e-01 -1.743220e-01 -2.091513e-01 -2.218224e-01 -2.561017e-01 -2.670231e-01 -3.004849e-01 -3.098424e-01 -3.422568e-01 -3.502553e-01 -3.814210e-01 -3.882577e-01 -4.179881e-01 -4.238247e-01 -4.519297e-01 -4.568647e-01 -4.831320e-01 -4.871799e-01 -5.113594e-01 -5.144373e-01 -5.362327e-01 -5.381603e-01 -5.572315e-01 -5.577447e-01 -5.737218e-01 -5.725012e-01 -5.850104e-01 -5.817195e-01 -5.904184e-01 -5.847478e-01 -5.893621e-01 -5.810720e-01 -5.814283e-01 -5.703813e-01 -5.664292e-01 -5.526090e-01 -5.444282e-01 -5.279416e-01 -5.157334e-01 -4.967965e-01 -4.808626e-01 -4.597769e-01 -4.404905e-01 -4.176134e-01 -3.953875e-01 -3.711021e-01 -3.463608e-01 -3.210509e-01 -2.942059e-01 -2.682370e-01 -2.396711e-01 -2.133788e-01 
-1.949586e-01 -1.675263e-01 -1.354303e-01 -1.082728e-01 -7.541783e-02 -4.877772e-02 -1.540182e-02 1.050518e-02 4.418872e-02 6.916332e-02 1.029542e-01 1.268039e-01 1.605040e-01 1.830358e-01 2.164405e-01 2.374561e-01 2.703492e-01 2.896445e-01 3.217959e-01 3.391635e-01 3.703308e-01 3.855658e-01 4.154987e-01 4.284060e-01 4.568519e-01 4.672531e-01 4.939635e-01 5.017033e-01 5.264384e-01 5.313883e-01 5.539215e-01 5.559825e-01 5.761025e-01 5.752056e-01 5.927185e-01 5.888266e-01 6.035565e-01 5.966662e-01 6.084563e-01 5.986005e-01 6.073136e-01 5.945655e-01 6.000838e-01 5.845608e-01 5.867866e-01 5.686535e-01 5.675102e-01 5.469820e-01 5.424162e-01 5.197584e-01 5.117443e-01 4.872716e-01 4.758157e-01 4.498877e-01 4.350357e-01 4.080499e-01 3.898923e-01 3.622736e-01 3.409513e-01 3.131402e-01 2.888473e-01 2.612848e-01 2.342695e-01 2.073817e-01 1.779433e-01 1.521255e-01 1.206081e-01 9.620902e-02 6.299292e-02 4.030063e-02 5.789446e-03 -1.498055e-02 -5.037400e-02 -6.908771e-02 -1.049571e-01 -1.215671e-01 -1.575282e-01 -1.720733e-01 -2.077772e-01 -2.203773e-01 -2.555205e-01 -2.663633e-01 -3.006912e-01 -3.100132e-01 -3.433165e-01 -3.513764e-01 -3.834802e-01 -3.905271e-01 -4.212717e-01 -4.275106e-01 -4.567283e-01 -4.622868e-01 -4.897767e-01 -4.946767e-01 -5.201836e-01 -5.243245e-01 -5.475268e-01 -5.506836e-01 -5.711941e-01 -5.730331e-01 -5.904165e-01 -5.905301e-01 -6.043357e-01 -6.022908e-01 -6.120969e-01 -6.074911e-01 -6.129536e-01 -6.054696e-01 -6.063643e-01 -5.958125e-01 -5.920642e-01 -5.784060e-01 -5.700975e-01 -5.534468e-01 -5.408077e-01 -5.214128e-01 -5.047918e-01 -4.830033e-01 -4.628311e-01 -4.390636e-01 -4.158133e-01 -3.905076e-01 -3.646589e-01 -3.382509e-01 -3.102621e-01 -2.831602e-01 -2.534496e-01 -2.260215e-01 
-1.925269e-01 -1.644892e-01 -1.316384e-01 -1.039409e-01 -7.038595e-02 -4.325701e-02 -9.220804e-03 1.713890e-02 5.145937e-02 7.686428e-02 1.112840e-01 1.355521e-01 1.698853e-01 1.928292e-01 2.268794e-01 2.483008e-01 2.818545e-01 3.015436e-01 3.343684e-01 3.521074e-01 3.839540e-01 3.995240e-01 4.301321e-01 4.433220e-01 4.724277e-01 4.830436e-01 5.103864e-01 5.182585e-01 5.435879e-01 5.485756e-01 5.716554e-01 5.736493e-01 5.942600e-01 5.931831e-01 6.111239e-01 6.069319e-01 6.220212e-01 6.147053e-01 6.267813e-01 6.163705e-01 6.252912e-01 6.118568e-01 6.174993e-01 6.011594e-01 6.034199e-01 5.843430e-01 5.831373e-01 5.615457e-01 5.568117e-01 5.329825e-01 5.246843e-01 4.989484e-01 4.870831e-01 4.598208e-01 4.444259e-01 4.160599e-01 3.972211e-01 3.682059e-01 3.460635e-01 3.168718e-01 2.916249e-01 2.627321e-01 2.346397e-01 2.065066e-01 1.758851e-01 1.489404e-01 1.161567e-01 9.077974e-02 5.624166e-02 3.274652e-02 -3.111194e-03 -2.448917e-02 -6.122063e-02 -8.033549e-02 -1.175015e-01 -1.343029e-01 -1.714887e-01 -1.860231e-01 -2.228547e-01 -2.352597e-01 -2.714158e-01 -2.819076e-01 -3.171252e-01 -3.259771e-01 -3.600487e-01 -3.675628e-01 -4.003243e-01 -4.067957e-01 -4.381053e-01 -4.437827e-01 -4.734935e-01 -4.785407e-01 -5.064709e-01 -5.109338e-01 -5.368405e-01 -5.406261e-01 -5.641886e-01 -5.670613e-01 -5.878800e-01 -5.894789e-01 -6.070933e-01 -6.069702e-01 -6.208958e-01 -6.185716e-01 -6.283506e-01 -6.233797e-01 -6.286380e-01 -6.206711e-01 -6.211680e-01 -6.100007e-01 -6.056624e-01 -5.912609e-01 -5.821896e-01 -5.646901e-01 -5.511502e-01 -5.308353e-01 -5.132197e-01 -4.904800e-01 -4.692659e-01 -4.445546e-01 -4.202580e-01 -3.940490e-01 -3.671845e-01 -3.399372e-01 -3.109874e-01 -2.831235e-01 -2.525204e-01 -2.244109e-01 
-2.048771e-01 -1.755304e-01 -1.414219e-01 -1.124718e-01 -7.772394e-02 -4.939945e-02 -1.422659e-02 1.327659e-02 4.869033e-02 7.519363e-02 1.106773e-01 1.360048e-01 1.713850e-01 1.953526e-01 2.304414e-01 2.528498e-01 2.874376e-01 3.080714e-01 3.419245e-01 3.605566e-01 3.934203e-01 4.098206e-01 4.414262e-01 4.553725e-01 4.854468e-01 4.967357e-01 5.250093e-01 5.334642e-01 5.596792e-01 5.651548e-01 5.890685e-01 5.914517e-01 6.128397e-01 6.120491e-01 6.307056e-01 6.266918e-01 6.424307e-01 6.351775e-01 6.478329e-01 6.373613e-01 6.467867e-01 6.331604e-01 6.392284e-01 6.225594e-01 6.251609e-01 6.056150e-01 6.046590e-01 5.824609e-01 5.778768e-01 5.533117e-01 5.450540e-01 5.184675e-01 5.065229e-01 4.783171e-01 4.627138e-01 4.333391e-01 4.141559e-01 3.840997e-01 3.614740e-01 3.312454e-01 3.053788e-01 2.754908e-01 2.466507e-01 2.176011e-01 1.861184e-01 1.583695e-01 1.246317e-01 9.859079e-02 6.303077e-02 3.903236e-02 2.112696e-03 -1.959729e-02 -5.740277e-02 -7.667930e-02 -1.149065e-01 -1.317133e-01 -1.699291e-01 -1.843409e-01 -2.221627e-01 -2.343599e-01 -2.714704e-01 -2.817257e-01 -3.178794e-01 -3.265340e-01 -3.615538e-01 -3.689839e-01 -4.027459e-01 -4.093203e-01 -4.417262e-01 -4.477587e-01 -4.787005e-01 -4.844013e-01 -5.137224e-01 -5.191555e-01 -5.466148e-01 -5.516701e-01 -5.769192e-01 -5.813045e-01 -6.038837e-01 -6.071447e-01 -6.265044e-01 -6.280710e-01 -6.436179e-01 -6.428752e-01 -6.540385e-01 -6.504098e-01 -6.567150e-01 -6.497433e-01 -6.508782e-01 -6.402890e-01 -6.361471e-01 -6.218813e-01 -6.125742e-01 -5.947861e-01 -5.806238e-01 -5.596489e-01 -5.410952e-01 -5.173988e-01 -4.950144e-01 -4.691328e-01 -4.435177e-01 -4.160044e-01 -3.877477e-01 -3.591310e-01 -3.287753e-01 -2.995301e-01 -2.675497e-01 -2.380841e-01 