# vtk DataFile Version 2.0
Comment goes here
ASCII

DATASET STRUCTURED_POINTS
FIELD FieldData 1
TIME 1 1 double
0.14000000
DIMENSIONS    128   128   1

ORIGIN    0.000   0.000   0.000
SPACING   0.039062 0.039062   1.000

POINT_DATA   16384
SCALARS uX double
LOOKUP_TABLE default

-1.834641e-01 -1.625585e-01 -1.426132e-01 -1.206714e-01 -1.002016e-01 -7.744752e-02 -5.667010e-02 -3.333112e-02 -1.246695e-02 1.122739e-02 3.195504e-02 5.577361e-02 7.614046e-02 9.985139e-02 1.196337e-01 1.430053e-01 1.619817e-01 1.847839e-01 2.027381e-01 2.247439e-01 2.414672e-01 2.624550e-01 2.777498e-01 2.975060e-01 3.111890e-01 3.295107e-01 3.414168e-01 3.581142e-01 3.680999e-01 3.829995e-01 3.909457e-01 4.038928e-01 4.097075e-01 4.205684e-01 4.241886e-01 4.328527e-01 4.342453e-01 4.406268e-01 4.397892e-01 4.438281e-01 4.407877e-01 4.424509e-01 4.372643e-01 4.365458e-01 4.292971e-01 4.262181e-01 4.170168e-01 4.116256e-01 4.006043e-01 3.929750e-01 3.802867e-01 3.705182e-01 3.563336e-01 3.445480e-01 3.290523e-01 3.153927e-01 2.987825e-01 2.834110e-01 2.658908e-01 2.489853e-01 2.307645e-01 2.125157e-01 1.938046e-01 1.744126e-01 1.554192e-01 1.350900e-01 1.160158e-01 9.495741e-02 7.599397e-02 5.441309e-02 3.573869e-02 1.383707e-02 -4.386421e-03 -2.641484e-02 -4.404427e-02 -6.601559e-02 -8.292799e-02 -1.046699e-01 -1.207627e-01 -1.421147e-01 -1.573051e-01 -1.781179e-01 -1.923400e-01 -2.124739e-01 -2.256757e-01 -2.449975e-01 -2.571357e-01 -2.755158e-01 -2.865511e-01 -3.038597e-01 -3.137509e-01 -3.298551e-01 -3.385549e-01 -3.533160e-01 -3.607670e-01 -3.740406e-01 -3.801735e-01 -3.918098e-01 -3.965439e-01 -4.063912e-01 -4.096366e-01 -4.175460e-01 -4.192088e-01 -4.250409e-01 -4.250291e-01 -4.286608e-01 -4.268917e-01 -4.282237e-01 -4.246316e-01 -4.235945e-01 -4.181369e-01 -4.146965e-01 -4.073595e-01 -4.015196e-01 -3.923212e-01 -3.841239e-01 -3.731152e-01 -3.626400e-01 -3.499043e-01 -3.372644e-01 -3.229150e-01 -3.082534e-01 -2.924297e-01 -2.759136e-01 -2.587773e-01 -2.405934e-01 -2.223240e-01 -2.026734e-01 
-1.792703e-01 -1.584188e-01 -1.385142e-01 -1.166489e-01 -9.622888e-02 -7.357007e-02 -5.284933e-02 -2.962096e-02 -8.818470e-03 1.475285e-02 3.541531e-02 5.910103e-02 7.940025e-02 1.029706e-01 1.226835e-01 1.459086e-01 1.648142e-01 1.874651e-01 2.053470e-01 2.271978e-01 2.438471e-01 2.646769e-01 2.798955e-01 2.994911e-01 3.130953e-01 3.312539e-01 3.430780e-01 3.596103e-01 3.695102e-01 3.842429e-01 3.920989e-01 4.048774e-01 4.105972e-01 4.212880e-01 4.248083e-01 4.333010e-01 4.345885e-01 4.407975e-01 4.398497e-01 4.437151e-01 4.405595e-01 4.420484e-01 4.367418e-01 4.358482e-01 4.284752e-01 4.252205e-01 4.158910e-01 4.103235e-01 3.991707e-01 3.913648e-01 3.785425e-01 3.685974e-01 3.542771e-01 3.423157e-01 3.266836e-01 3.128499e-01 2.961039e-01 2.805613e-01 2.629075e-01 2.458355e-01 2.274850e-01 2.090766e-01 1.902419e-01 1.706998e-01 1.515912e-01 1.311246e-01 1.119459e-01 9.076649e-02 7.171235e-02 5.003051e-02 3.128203e-02 9.303608e-03 -8.974369e-03 -3.105136e-02 -4.871277e-02 -7.070057e-02 -8.761974e-02 -1.093425e-01 -1.254146e-01 -1.467089e-01 -1.618492e-01 -1.825636e-01 -1.967053e-01 -2.166990e-01 -2.297897e-01 -2.489294e-01 -2.609267e-01 -2.790840e-01 -2.899503e-01 -3.069980e-01 -3.166950e-01 -3.325040e-01 -3.409881e-01 -3.554251e-01 -3.626436e-01 -3.755700e-01 -3.814589e-01 -3.927322e-01 -3.972164e-01 -4.066925e-01 -4.096882e-01 -4.172262e-01 -4.186451e-01 -4.241135e-01 -4.238692e-01 -4.271525e-01 -4.251671e-01 -4.261728e-01 -4.223845e-01 -4.210495e-01 -4.154189e-01 -4.117138e-01 -4.042291e-01 -3.981613e-01 -3.888416e-01 -3.804555e-01 -3.693521e-01 -3.587280e-01 -3.459234e-01 -3.331745e-01 -3.187806e-01 -3.040482e-01 -2.882024e-01 -2.716516e-01 -2.545130e-01 -2.363275e-01 -2.180729e-01 -1.984504e-01 
-1.844602e-01 -1.634450e-01 -1.433940e-01 -1.213403e-01 -1.007619e-01 -7.789424e-02 -5.700640e-02 -3.355262e-02 -1.257684e-02 1.123306e-02 3.207284e-02 5.600736e-02 7.648606e-02 1.003128e-01 1.202057e-01 1.436925e-01 1.627771e-01 1.856927e-01 2.037512e-01 2.258678e-01 2.426899e-01 2.637846e-01 2.791709e-01 2.990287e-01 3.127942e-01 3.312107e-01 3.431887e-01 3.599728e-01 3.700181e-01 3.849950e-01 3.929873e-01 4.060012e-01 4.118475e-01 4.227636e-01 4.264003e-01 4.351074e-01 4.365013e-01 4.429127e-01 4.420613e-01 4.461167e-01 4.430480e-01 4.447140e-01 4.394854e-01 4.387561e-01 4.314526e-01 4.283494e-01 4.190818e-01 4.136533e-01 4.025554e-01 3.948764e-01 3.821029e-01 3.722730e-01 3.579959e-01 3.461384e-01 3.305445e-01 3.168038e-01 3.000912e-01 2.846306e-01 2.670058e-01 2.500048e-01 2.316788e-01 2.133299e-01 1.945149e-01 1.750199e-01 1.559257e-01 1.354924e-01 1.163224e-01 9.516070e-02 7.610813e-02 5.442637e-02 3.567100e-02 1.367239e-02 -4.622721e-03 -2.674307e-02 -4.443405e-02 -6.649155e-02 -8.345527e-02 -1.052774e-01 -1.214118e-01 -1.428384e-01 -1.580617e-01 -1.789444e-01 -1.931927e-01 -2.133931e-01 -2.266165e-01 -2.460032e-01 -2.581611e-01 -2.766061e-01 -2.876618e-01 -3.050369e-01 -3.149518e-01 -3.311251e-01 -3.398536e-01 -3.546870e-01 -3.621726e-01 -3.755210e-01 -3.816942e-01 -3.934063e-01 -3.981851e-01 -4.081068e-01 -4.113991e-01 -4.193783e-01 -4.210869e-01 -4.269805e-01 -4.270098e-01 -4.306911e-01 -4.289549e-01 -4.303214e-01 -4.267504e-01 -4.257304e-01 -4.202796e-01 -4.168374e-01 -4.094913e-01 -4.036302e-01 -3.944061e-01 -3.861692e-01 -3.751186e-01 -3.645867e-01 -3.517943e-01 -3.390830e-01 -3.246637e-01 -3.099184e-01 -2.940138e-01 -2.774045e-01 -2.601784e-01 -2.418939e-01 -2.235278e-01 -2.037713e-01 
-1.812251e-01 -1.601584e-01 -1.400448e-01 -1.179592e-01 -9.732437e-02 -7.444160e-02 -5.350189e-02 -3.004689e-02 -9.022620e-03 1.477726e-02 3.566294e-02 5.957842e-02 8.010069e-02 1.039011e-01 1.238349e-01 1.472889e-01 1.664108e-01 1.892877e-01 2.073785e-01 2.294502e-01 2.462976e-01 2.673407e-01 2.827429e-01 3.025413e-01 3.163112e-01 3.346593e-01 3.466276e-01 3.633333e-01 3.733527e-01 3.882399e-01 3.961884e-01 4.091004e-01 4.148835e-01 4.256848e-01 4.292381e-01 4.378166e-01 4.391067e-01 4.453753e-01 4.443999e-01 4.482982e-01 4.450857e-01 4.465802e-01 4.411891e-01 4.402739e-01 4.327907e-01 4.294875e-01 4.200246e-01 4.143824e-01 4.030757e-01 3.951701e-01 3.821761e-01 3.721080e-01 3.576014e-01 3.454954e-01 3.296655e-01 3.156682e-01 2.987160e-01 2.829934e-01 2.651286e-01 2.478634e-01 2.293005e-01 2.106890e-01 1.916443e-01 1.718929e-01 1.525802e-01 1.319018e-01 1.125288e-01 9.113884e-02 7.190349e-02 5.001585e-02 3.110244e-02 8.926023e-03 -9.498121e-03 -3.176285e-02 -4.955007e-02 -7.171373e-02 -8.873786e-02 -1.106240e-01 -1.267810e-01 -1.482266e-01 -1.634339e-01 -1.842893e-01 -1.984835e-01 -2.186102e-01 -2.317433e-01 -2.510115e-01 -2.630464e-01 -2.813310e-01 -2.922354e-01 -3.094122e-01 -3.191527e-01 -3.350950e-01 -3.436317e-01 -3.582070e-01 -3.654892e-01 -3.785582e-01 -3.845219e-01 -3.959392e-01 -4.005070e-01 -4.101238e-01 -4.132075e-01 -4.208771e-01 -4.223823e-01 -4.279660e-01 -4.277992e-01 -4.311749e-01 -4.292510e-01 -4.303200e-01 -4.265707e-01 -4.252651e-01 -4.196460e-01 -4.159337e-01 -4.084296e-01 -4.023172e-01 -3.929461e-01 -3.844796e-01 -3.732934e-01 -3.625562e-01 -3.496398e-01 -3.367493e-01 -3.222178e-01 -3.073204e-01 -2.913152e-01 -2.745808e-01 -2.572653e-01 -2.388822e-01 -2.204368e-01 -2.006064e-01 
-1.874557e-01 -1.661110e-01 -1.457416e-01 -1.233513e-01 -1.024465e-01 -7.923744e-02 -5.801764e-02 -3.421909e-02 -1.290775e-02 1.124921e-02 3.242618e-02 5.670900e-02 7.752424e-02 1.016992e-01 1.219251e-01 1.457580e-01 1.651686e-01 1.884257e-01 2.067988e-01 2.292490e-01 2.463693e-01 2.677859e-01 2.834487e-01 3.036126e-01 3.176274e-01 3.363298e-01 3.485247e-01 3.655704e-01 3.757955e-01 3.910058e-01 3.991369e-01 4.123523e-01 4.182938e-01 4.293767e-01 4.330631e-01 4.418995e-01 4.432971e-01 4.497987e-01 4.489055e-01 4.530106e-01 4.498563e-01 4.515309e-01 4.461750e-01 4.454132e-01 4.379441e-01 4.347678e-01 4.252998e-01 4.197589e-01 4.084299e-01 4.006011e-01 3.875700e-01 3.775554e-01 3.629989e-01 3.509247e-01 3.350343e-01 3.210487e-01 3.040274e-01 2.882980e-01 2.703575e-01 2.530684e-01 2.344251e-01 2.157739e-01 1.966454e-01 1.768394e-01 1.574412e-01 1.366938e-01 1.172347e-01 9.576130e-02 7.643980e-02 5.445393e-02 3.545447e-02 1.316380e-02 -5.346936e-03 -2.774378e-02 -4.561961e-02 -6.793583e-02 -8.505305e-02 -1.071154e-01 -1.233734e-01 -1.450229e-01 -1.603434e-01 -1.814344e-01 -1.957588e-01 -2.161571e-01 -2.294427e-01 -2.490221e-01 -2.612366e-01 -2.798746e-01 -2.909894e-01 -3.085629e-01 -3.185470e-01 -3.349276e-01 -3.437410e-01 -3.587918e-01 -3.663811e-01 -3.799555e-01 -3.862508e-01 -3.981929e-01 -4.031083e-01 -4.132564e-01 -4.166924e-01 -4.248845e-01 -4.267342e-01 -4.328159e-01 -4.329723e-01 -4.368058e-01 -4.351713e-01 -4.366440e-01 -4.331389e-01 -4.321716e-01 -4.267428e-01 -4.232954e-01 -4.159224e-01 -4.099972e-01 -4.006957e-01 -3.923380e-01 -3.811608e-01 -3.704566e-01 -3.574922e-01 -3.445641e-01 -3.299331e-01 -3.149343e-01 -2.987849e-01 -2.818933e-01 -2.643958e-01 -2.458075e-01 -2.271495e-01 -2.070741e-01 
-1.851499e-01 -1.636505e-01 -1.431169e-01 -1.205892e-01 -9.952312e-02 -7.619148e-02 -5.481242e-02 -3.090345e-02 -9.434240e-03 1.482351e-02 3.615720e-02 6.053317e-02 8.150352e-02 1.057652e-01 1.261434e-01 1.500569e-01 1.696145e-01 1.929457e-01 2.114576e-01 2.339737e-01 2.512208e-01 2.726931e-01 2.884664e-01 3.086733e-01 3.227779e-01 3.415078e-01 3.537675e-01 3.708225e-01 3.810836e-01 3.962824e-01 4.044175e-01 4.175985e-01 4.235095e-01 4.345331e-01 4.381532e-01 4.469042e-01 4.481991e-01 4.545880e-01 4.535562e-01 4.575207e-01 4.541930e-01 4.556987e-01 4.501366e-01 4.491776e-01 4.414718e-01 4.380706e-01 4.283384e-01 4.225456e-01 4.109282e-01 4.028216e-01 3.894815e-01 3.791651e-01 3.642828e-01 3.518853e-01 3.356564e-01 3.213290e-01 3.039611e-01 2.878755e-01 2.695850e-01 2.519300e-01 2.329387e-01 2.139175e-01 1.944488e-01 1.742753e-01 1.545506e-01 1.334451e-01 1.136798e-01 9.186529e-02 7.226441e-02 4.996206e-02 3.071632e-02 8.141426e-03 -1.057666e-02 -3.321850e-02 -5.125784e-02 -7.377383e-02 -9.100711e-02 -1.132194e-01 -1.295441e-01 -1.512909e-01 -1.666287e-01 -1.877634e-01 -2.020580e-01 -2.224477e-01 -2.356606e-01 -2.551822e-01 -2.672871e-01 -2.858229e-01 -2.967987e-01 -3.142315e-01 -3.240552e-01 -3.402632e-01 -3.489031e-01 -3.637559e-01 -3.711656e-01 -3.845226e-01 -3.906381e-01 -4.023480e-01 -4.070873e-01 -4.169918e-01 -4.202574e-01 -4.281969e-01 -4.298816e-01 -4.357031e-01 -4.356985e-01 -4.392650e-01 -4.374708e-01 -4.386708e-01 -4.350049e-01 -4.337607e-01 -4.281679e-01 -4.244416e-01 -4.169001e-01 -4.106972e-01 -4.012225e-01 -3.925922e-01 -3.812380e-01 -3.702704e-01 -3.571266e-01 -3.439483e-01 -3.291375e-01 -3.139051e-01 -2.975772e-01 -2.804710e-01 -2.627979e-01 -2.440154e-01 -2.251855e-01 -2.049361e-01 
-1.924724e-01 -1.705746e-01 -1.496711e-01 -1.267172e-01 -1.052658e-01 -8.148600e-02 -5.971069e-02 -3.533632e-02 -1.346351e-02 1.127305e-02 3.301453e-02 5.787938e-02 7.925869e-02 1.040161e-01 1.248011e-01 1.492137e-01 1.691724e-01 1.930023e-01 2.119051e-01 2.349155e-01 2.525388e-01 2.744966e-01 2.906261e-01 3.113049e-01 3.257410e-01 3.449247e-01 3.574862e-01 3.749723e-01 3.855014e-01 4.011045e-01 4.094703e-01 4.230249e-01 4.291269e-01 4.404903e-01 4.442602e-01 4.533144e-01 4.547175e-01 4.613708e-01 4.604063e-01 4.645950e-01 4.612951e-01 4.629841e-01 4.574128e-01 4.565960e-01 4.488468e-01 4.455473e-01 4.357408e-01 4.300105e-01 4.182915e-01 4.102101e-01 3.967447e-01 3.864187e-01 3.713912e-01 3.589519e-01 3.425617e-01 3.281633e-01 3.106220e-01 2.944392e-01 2.759666e-01 2.581915e-01 2.390131e-01 2.198521e-01 2.001948e-01 1.798644e-01 1.599532e-01 1.386763e-01 1.187294e-01 9.673092e-02 7.695607e-02 5.445834e-02 3.504798e-02 1.226663e-02 -6.606024e-03 -2.946615e-02 -4.765072e-02 -7.039886e-02 -8.777036e-02 -1.102321e-01 -1.266921e-01 -1.487101e-01 -1.641863e-01 -1.856199e-01 -2.000632e-01 -2.207857e-01 -2.341660e-01 -2.540606e-01 -2.663599e-01 -2.853143e-01 -2.965192e-01 -3.144194e-01 -3.245124e-01 -3.412369e-01 -3.501886e-01 -3.656036e-01 -3.733661e-01 -3.873224e-01 -3.938255e-01 -4.061594e-01 -4.113104e-01 -4.218466e-01 -4.255332e-01 -4.340923e-01 -4.361898e-01 -4.425974e-01 -4.429785e-01 -4.470766e-01 -4.456229e-01 -4.472811e-01 -4.438946e-01 -4.430201e-01 -4.376335e-01 -4.341785e-01 -4.267627e-01 -4.207280e-01 -4.112959e-01 -4.027314e-01 -3.913388e-01 -3.803398e-01 -3.670825e-01 -3.537842e-01 -3.387932e-01 -3.233630e-01 -3.067982e-01 -2.894279e-01 -2.714713e-01 -2.523701e-01 -2.332198e-01 -2.126073e-01 
-1.910733e-01 -1.689198e-01 -1.477510e-01 -1.245567e-01 -1.028400e-01 -7.883282e-02 -5.679154e-02 -3.220002e-02 -1.006019e-02 1.488602e-02 3.689551e-02 6.196450e-02 8.361178e-02 1.085688e-01 1.296194e-01 1.542268e-01 1.744453e-01 1.984634e-01 2.176154e-01 2.408046e-01 2.586605e-01 2.807839e-01 2.971230e-01 3.179499e-01 3.325656e-01 3.518754e-01 3.645801e-01 3.821657e-01 3.927958e-01 4.084678e-01 4.168877e-01 4.304773e-01 4.365829e-01 4.479443e-01 4.516653e-01 4.606783e-01 4.619794e-01 4.685507e-01 4.674319e-01 4.714967e-01 4.679919e-01 4.695147e-01 4.636907e-01 4.626653e-01 4.546194e-01 4.510693e-01 4.409264e-01 4.349046e-01 4.228141e-01 4.144019e-01 4.005350e-01 3.898412e-01 3.743874e-01 3.615466e-01 3.447111e-01 3.298818e-01 3.118818e-01 2.952438e-01 2.763059e-01 2.580577e-01 2.384144e-01 2.187695e-01 1.986554e-01 1.778391e-01 1.574872e-01 1.357315e-01 1.153687e-01 9.290846e-02 7.275125e-02 4.981890e-02 3.006819e-02 6.889216e-03 -1.227405e-02 -3.548577e-02 -5.390475e-02 -7.695085e-02 -9.449599e-02 -1.171964e-01 -1.337672e-01 -1.559615e-01 -1.714863e-01 -1.930334e-01 -2.074671e-01 -2.282428e-01 -2.415619e-01 -2.614544e-01 -2.736503e-01 -2.925545e-01 -3.036247e-01 -3.214351e-01 -3.313739e-01 -3.479777e-01 -3.567667e-01 -3.720379e-01 -3.796388e-01 -3.934347e-01 -3.997840e-01 -4.119446e-01 -4.169527e-01 -4.273044e-01 -4.308586e-01 -4.392210e-01 -4.411933e-01 -4.473895e-01 -4.476468e-01 -4.515158e-01 -4.499329e-01 -4.513418e-01 -4.478141e-01 -4.466691e-01 -4.411240e-01 -4.373782e-01 -4.297834e-01 -4.234410e-01 -4.138087e-01 -4.049244e-01 -3.933119e-01 -3.819875e-01 -3.684936e-01 -3.548707e-01 -3.396305e-01 -3.238828e-01 -3.070601e-01 -2.893845e-01 -2.711652e-01 -2.517741e-01 -2.323589e-01 -2.114737e-01 
-1.995436e-01 -1.768638e-01 -1.552055e-01 -1.314575e-01 -1.092356e-01 -8.465377e-02 -6.209647e-02 -3.691390e-02 -1.425083e-02 1.129925e-02 3.383608e-02 5.951869e-02 8.169420e-02 1.072714e-01 1.288474e-01 1.540778e-01 1.748139e-01 1.994535e-01 2.191097e-01 2.429136e-01 2.612537e-01 2.839791e-01 3.007753e-01 3.221852e-01 3.372236e-01 3.570910e-01 3.701770e-01 3.882890e-01 3.992528e-01 4.154141e-01 4.241152e-01 4.381519e-01 4.444826e-01 4.562446e-01 4.601326e-01 4.694960e-01 4.709055e-01 4.777742e-01 4.767060e-01 4.810133e-01 4.775039e-01 4.792130e-01 4.733325e-01 4.724374e-01 4.642873e-01 4.608124e-01 4.505224e-01 4.445225e-01 4.322472e-01 4.238065e-01 4.097223e-01 3.989529e-01 3.832550e-01 3.702957e-01 3.531945e-01 3.382082e-01 3.199265e-01 3.030979e-01 2.838678e-01 2.654003e-01 2.454598e-01 2.255721e-01 2.051613e-01 1.840833e-01 1.634407e-01 1.414093e-01 1.207671e-01 9.802092e-02 7.760015e-02 5.437494e-02 3.438033e-02 1.090348e-02 -8.481672e-03 -3.199584e-02 -5.061434e-02 -7.396883e-02 -9.169324e-02 -1.147115e-01 -1.314461e-01 -1.539734e-01 -1.696544e-01 -1.915573e-01 -2.061499e-01 -2.273133e-01 -2.408062e-01 -2.611282e-01 -2.735260e-01 -2.929105e-01 -3.042230e-01 -3.225713e-01 -3.328026e-01 -3.500049e-01 -3.591426e-01 -3.750705e-01 -3.830761e-01 -3.975781e-01 -4.043817e-01 -4.172823e-01 -4.227808e-01 -4.338848e-01 -4.379461e-01 -4.470467e-01 -4.495188e-01 -4.564104e-01 -4.571340e-01 -4.616271e-01 -4.604517e-01 -4.623882e-01 -4.591872e-01 -4.584533e-01 -4.531377e-01 -4.496741e-01 -4.422020e-01 -4.360080e-01 -4.263892e-01 -4.175224e-01 -4.058182e-01 -3.943892e-01 -3.807077e-01 -3.668717e-01 -3.513607e-01 -3.353071e-01 -3.181446e-01 -3.000867e-01 -2.814728e-01 -2.616386e-01 -2.417869e-01 -2.204114e-01 
-1.990347e-01 -1.759995e-01 -1.539749e-01 -1.298860e-01 -1.072952e-01 -8.238410e-02 -5.945455e-02 -3.395073e-02 -1.091138e-02 1.495524e-02 3.787240e-02 6.386922e-02 8.642779e-02 1.123178e-01 1.342765e-01 1.598173e-01 1.809310e-01 2.058758e-01 2.258974e-01 2.499968e-01 2.686819e-01 2.916872e-01 3.087986e-01 3.304665e-01 3.457807e-01 3.658772e-01 3.791906e-01 3.974965e-01 4.086311e-01 4.249453e-01 4.337540e-01 4.478978e-01 4.542683e-01 4.660877e-01 4.699449e-01 4.793130e-01 4.806205e-01 4.874390e-01 4.861988e-01 4.903995e-01 4.866508e-01 4.881963e-01 4.820133e-01 4.808973e-01 4.723865e-01 4.686342e-01 4.579308e-01 4.515981e-01 4.388632e-01 4.300361e-01 4.154526e-01 4.042463e-01 3.880159e-01 3.745729e-01 3.569132e-01 3.414015e-01 3.225428e-01 3.051535e-01 2.853359e-01 2.662803e-01 2.457504e-01 2.252565e-01 2.042641e-01 1.825724e-01 1.613663e-01 1.387255e-01 1.175489e-01 9.421024e-02 7.329563e-02 4.950777e-02 2.907095e-02 5.074034e-03 -1.469145e-02 -3.867144e-02 -5.759981e-02 -8.135607e-02 -9.931383e-02 -1.226627e-01 -1.395514e-01 -1.623344e-01 -1.780915e-01 -2.001752e-01 -2.147715e-01 -2.360448e-01 -2.494788e-01 -2.698473e-01 -2.821366e-01 -3.015148e-01 -3.126850e-01 -3.309858e-01 -3.410576e-01 -3.581831e-01 -3.671595e-01 -3.829917e-01 -3.908469e-01 -4.052415e-01 -4.119138e-01 -4.246988e-01 -4.300877e-01 -4.410668e-01 -4.450376e-01 -4.539994e-01 -4.563921e-01 -4.631238e-01 -4.637680e-01 -4.680722e-01 -4.668048e-01 -4.685164e-01 -4.651991e-01 -4.642001e-01 -4.587347e-01 -4.549653e-01 -4.473046e-01 -4.407677e-01 -4.309204e-01 -4.216804e-01 -4.097104e-01 -3.978872e-01 -3.839080e-01 -3.696669e-01 -3.538329e-01 -3.373730e-01 -3.198696e-01 -3.014122e-01 -2.824456e-01 -2.622243e-01 -2.420131e-01 -2.202660e-01 
-2.087105e-01 -1.850125e-01 -1.623721e-01 -1.375958e-01 -1.143751e-01 -8.875817e-02 -6.518922e-02 -3.896520e-02 -1.527987e-02 1.131873e-02 3.488596e-02 6.162432e-02 8.483419e-02 1.114725e-01 1.340797e-01 1.603720e-01 1.821257e-01 2.078198e-01 2.284657e-01 2.533058e-01 2.725905e-01 2.963205e-01 3.139971e-01 3.363653e-01 3.522004e-01 3.729646e-01 3.867449e-01 4.056779e-01 4.172170e-01 4.341106e-01 4.432546e-01 4.579234e-01 4.645551e-01 4.768396e-01 4.808814e-01 4.906500e-01 4.920650e-01 4.992157e-01 4.980074e-01 5.024697e-01 4.986804e-01 5.004155e-01 4.941244e-01 4.931260e-01 4.844452e-01 4.807398e-01 4.698113e-01 4.634572e-01 4.504489e-01 4.415360e-01 4.266379e-01 4.152860e-01 3.987070e-01 3.850641e-01 3.670290e-01 3.512694e-01 3.320155e-01 3.143369e-01 2.941115e-01 2.747324e-01 2.537896e-01 2.329449e-01 2.115421e-01 1.894796e-01 1.678734e-01 1.448485e-01 1.232898e-01 9.956025e-02 7.828867e-02 5.410851e-02 3.334616e-02 8.959471e-03 -1.109561e-02 -3.546081e-02 -5.464097e-02 -7.877836e-02 -9.695159e-02 -1.206810e-01 -1.377545e-01 -1.609243e-01 -1.768453e-01 -1.993324e-01 -2.140856e-01 -2.357918e-01 -2.493931e-01 -2.702386e-01 -2.827248e-01 -3.026381e-01 -3.140538e-01 -3.329601e-01 -3.433420e-01 -3.611504e-01 -3.705121e-01 -3.871044e-01 -3.954229e-01 -4.106457e-01 -4.178524e-01 -4.315151e-01 -4.374928e-01 -4.493711e-01 -4.539590e-01 -4.638064e-01 -4.668118e-01 -4.743767e-01 -4.755932e-01 -4.806394e-01 -4.798685e-01 -4.821965e-01 -4.792697e-01 -4.787356e-01 -4.735325e-01 -4.700608e-01 -4.625221e-01 -4.561110e-01 -4.462438e-01 -4.369640e-01 -4.248396e-01 -4.128254e-01 -3.985717e-01 -3.840085e-01 -3.677988e-01 -3.509084e-01 -3.329481e-01 -3.139747e-01 -2.944893e-01 -2.736871e-01 -2.529122e-01 -2.305366e-01 
-2.090789e-01 -1.849273e-01 -1.618196e-01 -1.366047e-01 -1.129123e-01 -8.686758e-02 -6.282076e-02 -3.617468e-02 -1.200378e-02 1.501588e-02 3.907709e-02 6.623887e-02 8.994995e-02 1.170152e-01 1.401273e-01 1.668485e-01 1.891041e-01 2.152251e-01 2.363609e-01 2.616191e-01 2.813704e-01 3.055012e-01 3.236085e-01 3.463510e-01 3.625675e-01 3.836703e-01 3.977702e-01 4.169972e-01 4.287834e-01 4.459187e-01 4.552285e-01 4.700806e-01 4.767909e-01 4.891952e-01 4.932250e-01 5.030463e-01 5.043581e-01 5.114919e-01 5.100911e-01 5.144649e-01 5.103978e-01 5.119721e-01 5.053233e-01 5.040915e-01 4.949800e-01 4.909690e-01 4.795441e-01 4.728138e-01 4.592513e-01 4.498936e-01 4.343915e-01 4.225294e-01 4.053047e-01 3.910907e-01 3.723765e-01 3.559906e-01 3.360331e-01 3.176807e-01 2.967365e-01 2.766452e-01 2.549788e-01 2.333949e-01 2.112752e-01 1.884594e-01 1.661558e-01 1.423782e-01 1.201553e-01 9.568949e-02 7.380143e-02 4.891785e-02 2.760114e-02 2.560262e-03 -1.797351e-02 -4.292855e-02 -6.250012e-02 -8.715024e-02 -1.056192e-01 -1.297749e-01 -1.470446e-01 -1.705494e-01 -1.865684e-01 -2.092997e-01 -2.240601e-01 -2.459254e-01 -2.594566e-01 -2.803869e-01 -2.927440e-01 -3.126827e-01 -3.239321e-01 -3.428212e-01 -3.530228e-01 -3.707880e-01 -3.799772e-01 -3.965144e-01 -4.046854e-01 -4.198506e-01 -4.269456e-01 -4.405511e-01 -4.464554e-01 -4.582732e-01 -4.628199e-01 -4.725938e-01 -4.755766e-01 -4.830413e-01 -4.842351e-01 -4.891395e-01 -4.883255e-01 -4.904573e-01 -4.874481e-01 -4.866550e-01 -4.813161e-01 -4.775202e-01 -4.697844e-01 -4.629885e-01 -4.528618e-01 -4.431463e-01 -4.307047e-01 -4.182175e-01 -4.035980e-01 -3.885395e-01 -3.719262e-01 -3.545325e-01 -3.361420e-01 -3.166690e-01 -2.967363e-01 -2.754467e-01 -2.542145e-01 -2.313681e-01 
-2.200147e-01 -1.950542e-01 -1.711976e-01 -1.451551e-01 -1.207037e-01 -9.381813e-02 -6.900559e-02 -4.150757e-02 -1.656552e-02 1.131648e-02 3.615336e-02 6.418729e-02 8.867675e-02 1.166224e-01 1.405117e-01 1.681178e-01 1.911432e-01 2.181478e-01 2.400367e-01 2.661692e-01 2.866453e-01 3.116316e-01 3.304223e-01 3.539907e-01 3.708358e-01 3.927242e-01 4.073851e-01 4.273474e-01 4.396155e-01 4.574268e-01 4.671307e-01 4.825913e-01 4.896015e-01 5.025401e-01 5.067726e-01 5.170481e-01 5.184650e-01 5.259684e-01 5.245773e-01 5.292331e-01 5.250849e-01 5.268519e-01 5.200376e-01 5.189092e-01 5.095556e-01 5.055605e-01 4.938255e-01 4.870268e-01 4.730951e-01 4.635895e-01 4.476683e-01 4.355850e-01 4.179001e-01 4.033987e-01 3.841921e-01 3.674607e-01 3.469871e-01 3.282398e-01 3.067649e-01 2.862385e-01 2.640360e-01 2.419862e-01 2.193347e-01 1.960319e-01 1.732110e-01 1.489348e-01 1.262197e-01 1.012526e-01 7.890791e-02 5.352858e-02 3.180018e-02 6.275594e-03 -1.461745e-02 -4.003997e-02 -5.991415e-02 -8.501461e-02 -1.037298e-01 -1.283220e-01 -1.457873e-01 -1.697230e-01 -1.858993e-01 -2.090688e-01 -2.239668e-01 -2.462957e-01 -2.599684e-01 -2.814087e-01 -2.939389e-01 -3.144557e-01 -3.259377e-01 -3.454928e-01 -3.560114e-01 -3.745439e-01 -3.841523e-01 -4.015621e-01 -4.102617e-01 -4.263961e-01 -4.341226e-01 -4.487713e-01 -4.553887e-01 -4.682876e-01 -4.735943e-01 -4.844401e-01 -4.881847e-01 -4.966590e-01 -4.985661e-01 -5.043646e-01 -5.041663e-01 -5.070298e-01 -5.044968e-01 -5.042380e-01 -4.992060e-01 -4.957275e-01 -4.881147e-01 -4.814158e-01 -4.712282e-01 -4.614008e-01 -4.487277e-01 -4.359426e-01 -4.209432e-01 -4.054307e-01 -3.883165e-01 -3.703451e-01 -3.513610e-01 -3.312177e-01 -3.106251e-01 -2.885994e-01 -2.666628e-01 -2.430362e-01 
-2.212477e-01 -1.957377e-01 -1.713132e-01 -1.447386e-01 -1.197140e-01 -9.230719e-02 -6.691274e-02 -3.889654e-02 -1.336027e-02 1.504400e-02 4.048969e-02 6.905509e-02 9.416760e-02 1.226558e-01 1.471784e-01 1.753363e-01 1.989973e-01 2.265570e-01 2.490717e-01 2.757533e-01 2.968304e-01 3.223478e-01 3.416975e-01 3.657662e-01 3.831105e-01 4.054557e-01 4.205395e-01 4.409034e-01 4.535037e-01 4.716517e-01 4.815858e-01 4.973106e-01 5.044416e-01 5.175661e-01 5.218060e-01 5.321848e-01 5.334955e-01 5.410169e-01 5.394089e-01 5.439953e-01 5.395251e-01 5.411341e-01 5.339003e-01 5.325253e-01 5.226634e-01 5.183334e-01 5.060111e-01 4.987905e-01 4.842019e-01 4.741898e-01 4.575517e-01 4.448805e-01 4.264283e-01 4.112623e-01 3.912472e-01 3.737810e-01 3.524677e-01 3.329239e-01 3.105885e-01 2.892145e-01 2.661427e-01 2.432075e-01 2.196912e-01 1.954807e-01 1.718148e-01 1.466265e-01 1.231030e-01 9.723926e-02 7.414087e-02 4.790104e-02 2.549245e-02 -8.355677e-04 -2.231729e-02 -4.846649e-02 -6.882203e-02 -9.455546e-02 -1.136328e-01 -1.387517e-01 -1.564539e-01 -1.808034e-01 -1.970923e-01 -2.205634e-01 -2.354590e-01 -2.579852e-01 -2.715583e-01 -2.931069e-01 -3.054654e-01 -3.260226e-01 -3.372911e-01 -3.568424e-01 -3.671383e-01 -3.856471e-01 -3.950541e-01 -4.124401e-01 -4.209843e-01 -4.371078e-01 -4.447396e-01 -4.593932e-01 -4.659793e-01 -4.788917e-01 -4.842200e-01 -4.950713e-01 -4.988685e-01 -5.073171e-01 -5.092787e-01 -5.149956e-01 -5.148217e-01 -5.175261e-01 -5.149589e-01 -5.144492e-01 -5.093034e-01 -5.054780e-01 -4.976608e-01 -4.905253e-01 -4.800425e-01 -4.697034e-01 -4.566529e-01 -4.433010e-01 -4.278567e-01 -4.117444e-01 -3.941349e-01 -3.755513e-01 -3.560381e-01 -3.352868e-01 -3.141451e-01 -2.915272e-01 -2.690312e-01 -2.448335e-01 
-2.334879e-01 -2.070132e-01 -1.816999e-01 -1.541524e-01 -1.282364e-01 -9.985140e-02 -7.356361e-02 -4.456305e-02 -1.812958e-02 1.126790e-02 3.761668e-02 6.718649e-02 9.320827e-02 1.227123e-01 1.481474e-01 1.773297e-01 2.018992e-01 2.304850e-01 2.538930e-01 2.815923e-01 3.035323e-01 3.300466e-01 3.502114e-01 3.752422e-01 3.933358e-01 4.165948e-01 4.323447e-01 4.535613e-01 4.667298e-01 4.856584e-01 4.960514e-01 5.124751e-01 5.199481e-01 5.336815e-01 5.381426e-01 5.490339e-01 5.504449e-01 5.583765e-01 5.567514e-01 5.616419e-01 5.570435e-01 5.588483e-01 5.513839e-01 5.500964e-01 5.399116e-01 5.355631e-01 5.228366e-01 5.154957e-01 5.004331e-01 4.902049e-01 4.730342e-01 4.600588e-01 4.410261e-01 4.254770e-01 4.048437e-01 3.869256e-01 3.649666e-01 3.449129e-01 3.219147e-01 2.999844e-01 2.762434e-01 2.527176e-01 2.285377e-01 2.037146e-01 1.794036e-01 1.535930e-01 1.294569e-01 1.029734e-01 7.930916e-02 5.246358e-02 2.954958e-02 2.639741e-03 -1.927526e-02 -4.597511e-02 -6.668393e-02 -9.293365e-02 -1.122822e-01 -1.378854e-01 -1.557821e-01 -1.805930e-01 -1.970144e-01 -2.209407e-01 -2.359305e-01 -2.589300e-01 -2.725915e-01 -2.946612e-01 -3.071408e-01 -3.282996e-01 -3.397628e-01 -3.600271e-01 -3.706291e-01 -3.899856e-01 -3.998388e-01 -4.182184e-01 -4.273631e-01 -4.446193e-01 -4.530007e-01 -4.688993e-01 -4.763576e-01 -4.905801e-01 -4.968563e-01 -5.090190e-01 -5.137774e-01 -5.234653e-01 -5.263303e-01 -5.331402e-01 -5.337429e-01 -5.373290e-01 -5.353531e-01 -5.354667e-01 -5.306871e-01 -5.272019e-01 -5.195081e-01 -5.124291e-01 -5.018311e-01 -4.912852e-01 -4.779033e-01 -4.641169e-01 -4.481596e-01 -4.314291e-01 -4.131650e-01 -3.938253e-01 -3.735558e-01 -3.519527e-01 -3.299880e-01 -3.064575e-01 -2.830998e-01 -2.579548e-01 
-2.355684e-01 -2.084519e-01 -1.824717e-01 -1.543052e-01 -1.277180e-01 -9.872588e-02 -7.175569e-02 -4.214792e-02 -1.501383e-02 1.500206e-02 4.207488e-02 7.228233e-02 9.905295e-02 1.292172e-01 1.554222e-01 1.852849e-01 2.106356e-01 2.399140e-01 2.640991e-01 2.924901e-01 3.151828e-01 3.423713e-01 3.632413e-01 3.889111e-01 4.076386e-01 4.314840e-01 4.477744e-01 4.695100e-01 4.831070e-01 5.024750e-01 5.131701e-01 5.299449e-01 5.375844e-01 5.515741e-01 5.560621e-01 5.671105e-01 5.684092e-01 5.763956e-01 5.745236e-01 5.793646e-01 5.743926e-01 5.760426e-01 5.680879e-01 5.665400e-01 5.557600e-01 5.510458e-01 5.376311e-01 5.298204e-01 5.139886e-01 5.031886e-01 4.851787e-01 4.715327e-01 4.516014e-01 4.352878e-01 4.137068e-01 3.949368e-01 3.719913e-01 3.510074e-01 3.269953e-01 3.040687e-01 2.792991e-01 2.547259e-01 2.295180e-01 2.036149e-01 1.782941e-01 1.513924e-01 1.262853e-01 9.872383e-02 7.414995e-02 4.626580e-02 2.252770e-02 -5.354560e-03 -2.798414e-02 -5.556444e-02 -7.685653e-02 -1.038720e-01 -1.236553e-01 -1.498922e-01 -1.680653e-01 -1.933684e-01 -2.099076e-01 -2.341847e-01 -2.491448e-01 -2.723645e-01 -2.858718e-01 -3.080524e-01 -3.202872e-01 -3.414771e-01 -3.526471e-01 -3.728973e-01 -3.832034e-01 -4.025355e-01 -4.121340e-01 -4.305081e-01 -4.394746e-01 -4.567631e-01 -4.650643e-01 -4.810372e-01 -4.885165e-01 -5.028431e-01 -5.092253e-01 -5.214952e-01 -5.264108e-01 -5.361721e-01 -5.392005e-01 -5.460104e-01 -5.467339e-01 -5.502122e-01 -5.482715e-01 -5.481467e-01 -5.432860e-01 -5.394255e-01 -5.315202e-01 -5.239382e-01 -5.130008e-01 -5.018468e-01 -4.880129e-01 -4.735439e-01 -4.570454e-01 -4.395900e-01 -4.207221e-01 -4.006445e-01 -3.797330e-01 -3.574022e-01 -3.347766e-01 -3.105434e-01 -2.865187e-01 -2.607021e-01 
-2.491373e-01 -2.208909e-01 -1.938772e-01 -1.645892e-01 -1.369778e-01 -1.068712e-01 -7.888191e-02 -4.816009e-02 -2.000482e-02 1.113283e-02 3.923585e-02 7.057971e-02 9.839348e-02 1.297121e-01 1.569719e-01 1.880050e-01 2.144146e-01 2.448716e-01 2.701053e-01 2.996700e-01 3.233811e-01 3.517218e-01 3.735566e-01 4.003386e-01 4.199530e-01 4.448529e-01 4.619295e-01 4.846463e-01 4.989093e-01 5.191720e-01 5.303986e-01 5.479706e-01 5.559978e-01 5.706782e-01 5.754059e-01 5.870302e-01 5.884212e-01 5.968623e-01 5.949401e-01 6.001094e-01 5.949534e-01 5.968024e-01 5.885415e-01 5.870632e-01 5.758681e-01 5.710968e-01 5.571725e-01 5.491832e-01 5.327614e-01 5.216692e-01 5.030024e-01 4.889602e-01 4.683176e-01 4.515149e-01 4.291799e-01 4.098404e-01 3.861092e-01 3.644889e-01 3.396707e-01 3.160546e-01 2.904710e-01 2.651700e-01 2.391538e-01 2.124998e-01 1.863922e-01 1.587323e-01 1.328777e-01 1.045665e-01 7.930377e-02 5.069395e-02 2.634493e-02 -2.224537e-03 -2.536940e-02 -5.358675e-02 -7.528500e-02 -1.028804e-01 -1.229544e-01 -1.497142e-01 -1.680664e-01 -1.938448e-01 -2.104677e-01 -2.351930e-01 -2.501716e-01 -2.738444e-01 -2.873483e-01 -3.100286e-01 -3.222919e-01 -3.440759e-01 -3.553650e-01 -3.763513e-01 -3.869235e-01 -4.071731e-01 -4.172304e-01 -4.367259e-01 -4.463696e-01 -4.649815e-01 -4.741769e-01 -4.916436e-01 -5.002012e-01 -5.161307e-01 -5.237116e-01 -5.376060e-01 -5.437528e-01 -5.550571e-01 -5.592483e-01 -5.674148e-01 -5.691339e-01 -5.736911e-01 -5.724964e-01 -5.731080e-01 -5.686900e-01 -5.651930e-01 -5.574068e-01 -5.498204e-01 -5.386906e-01 -5.271991e-01 -5.128991e-01 -4.978147e-01 -4.806299e-01 -4.623462e-01 -4.426303e-01 -4.215762e-01 -3.997105e-01 -3.763114e-01 -3.526723e-01 -3.273236e-01 -3.022605e-01 -2.753125e-01 