# vtk DataFile Version 2.0
Comment goes here
ASCII

DATASET STRUCTURED_POINTS
FIELD FieldData 1
TIME 1 1 double
0.09000000
DIMENSIONS    128   128   1

ORIGIN    0.000   0.000   0.000
SPACING   0.039062 0.039062   1.000

POINT_DATA   16384
SCALARS uX double
LOOKUP_TABLE default

-2.733932e-01 -2.205418e-01 -1.615552e-01 -1.089427e-01 -5.057627e-02 1.325971e-03 5.861090e-02 1.093737e-01 1.651593e-01 2.143929e-01 2.683016e-01 3.156535e-01 3.673437e-01 4.124958e-01 4.616594e-01 5.043260e-01 5.506850e-01 5.906113e-01 6.339161e-01 6.708771e-01 7.109051e-01 7.447051e-01 7.812595e-01 8.117318e-01 8.446408e-01 8.716474e-01 9.007631e-01 9.241936e-01 9.493904e-01 9.691607e-01 9.903338e-01 1.006384e+00 1.023446e+00 1.035737e+00 1.048615e+00 1.057125e+00 1.065758e+00 1.070479e+00 1.074813e+00 1.075745e+00 1.075729e+00 1.072877e+00 1.068464e+00 1.061834e+00 1.052975e+00 1.042574e+00 1.029222e+00 1.015053e+00 9.971637e-01 9.792301e-01 9.567657e-01 9.350719e-01 9.080079e-01 8.825650e-01 8.508981e-01 8.217296e-01 7.854866e-01 7.526364e-01 7.118858e-01 6.754270e-01 6.302897e-01 5.903341e-01 5.409952e-01 4.977030e-01 4.444222e-01 3.980110e-01 3.411319e-01 2.918847e-01 2.318418e-01 1.801133e-01 1.174353e-01 6.365617e-02 -1.033343e-03 -5.635596e-02 -1.223425e-01 -1.786267e-01 -2.451134e-01 -3.017082e-01 -3.678286e-01 -4.240232e-01 -4.888586e-01 -5.438951e-01 -6.064955e-01 -6.595845e-01 -7.189929e-01 -7.693328e-01 -8.246112e-01 -8.714086e-01 -9.216651e-01 -9.641572e-01 -1.008573e+00 -1.046050e+00 -1.083903e+00 -1.115731e+00 -1.146420e+00 -1.172061e+00 -1.195122e+00 -1.214150e+00 -1.229268e+00 -1.241385e+00 -1.248406e+00 -1.253450e+00 -1.252376e+00 -1.250327e+00 -1.241316e+00 -1.232291e+00 -1.215645e+00 -1.199892e+00 -1.176043e+00 -1.153931e+00 -1.123418e+00 -1.095416e+00 -1.058867e+00 -1.025528e+00 -9.836344e-01 -9.455724e-01 -8.990632e-01 -8.569320e-01 -8.065547e-01 -7.610273e-01 -7.075269e-01 -6.592770e-01 -6.033790e-01 -5.530660e-01 -4.954641e-01 -4.437208e-01 -3.850676e-01 -3.324916e-01 
-2.724747e-01 -2.195925e-01 -1.605395e-01 -1.079044e-01 -4.948061e-02 2.437328e-03 5.977124e-02 1.105437e-01 1.663709e-01 2.156091e-01 2.695527e-01 3.169049e-01 3.686244e-01 4.137730e-01 4.629608e-01 5.056206e-01 5.519994e-01 5.919158e-01 6.352365e-01 6.721846e-01 7.122249e-01 7.460091e-01 7.825726e-01 8.130261e-01 8.459410e-01 8.729258e-01 9.020444e-01 9.254499e-01 9.506471e-01 9.703892e-01 9.915600e-01 1.007579e+00 1.024636e+00 1.036893e+00 1.049765e+00 1.058238e+00 1.066862e+00 1.071543e+00 1.075866e+00 1.076756e+00 1.076728e+00 1.073832e+00 1.069404e+00 1.062729e+00 1.053853e+00 1.043405e+00 1.030033e+00 1.015815e+00 9.979036e-01 9.799183e-01 9.574283e-01 9.356803e-01 9.085868e-01 8.830866e-01 8.513852e-01 8.221560e-01 7.858730e-01 7.529582e-01 7.121610e-01 6.756337e-01 6.304425e-01 5.904143e-01 5.410135e-01 4.976448e-01 4.442938e-01 3.978028e-01 3.408448e-01 2.915157e-01 2.313851e-01 1.795740e-01 1.168001e-01 6.293925e-02 -1.853455e-03 -5.725472e-02 -1.233504e-01 -1.797079e-01 -2.463080e-01 -3.029684e-01 -3.692042e-01 -4.254543e-01 -4.904046e-01 -5.454842e-01 -6.081960e-01 -6.613141e-01 -7.208274e-01 -7.711807e-01 -8.265544e-01 -8.733486e-01 -9.236876e-01 -9.661596e-01 -1.010642e+00 -1.048082e+00 -1.085984e+00 -1.117759e+00 -1.148477e+00 -1.174049e+00 -1.197117e+00 -1.216063e+00 -1.231166e+00 -1.243190e+00 -1.250173e+00 -1.255116e+00 -1.253982e+00 -1.251824e+00 -1.242736e+00 -1.233597e+00 -1.216857e+00 -1.200989e+00 -1.177032e+00 -1.154805e+00 -1.124176e+00 -1.096062e+00 -1.059391e+00 -1.025945e+00 -9.839263e-01 -9.457649e-01 -8.991320e-01 -8.569101e-01 -8.064132e-01 -7.608049e-01 -7.071912e-01 -6.588709e-01 -6.028677e-01 -5.524948e-01 -4.947970e-01 -4.430041e-01 -3.842649e-01 -3.316492e-01 
-2.734750e-01 -2.203665e-01 -1.611257e-01 -1.082778e-01 -4.968054e-02 2.436295e-03 5.993011e-02 1.108876e-01 1.668622e-01 2.162720e-01 2.703514e-01 3.178623e-01 3.697067e-01 4.150016e-01 4.643042e-01 5.070981e-01 5.535819e-01 5.936206e-01 6.370368e-01 6.740955e-01 7.142220e-01 7.481052e-01 7.847456e-01 8.152869e-01 8.482699e-01 8.753317e-01 9.045101e-01 9.279826e-01 9.532320e-01 9.730323e-01 9.942490e-01 1.010318e+00 1.027417e+00 1.039718e+00 1.052628e+00 1.061142e+00 1.069802e+00 1.074523e+00 1.078882e+00 1.079811e+00 1.079819e+00 1.076964e+00 1.072574e+00 1.065942e+00 1.057106e+00 1.046703e+00 1.033373e+00 1.019203e+00 1.001332e+00 9.833958e-01 9.609436e-01 9.392441e-01 9.121820e-01 8.867270e-01 8.550466e-01 8.258559e-01 7.895788e-01 7.566919e-01 7.158808e-01 6.793659e-01 6.341361e-01 5.941004e-01 5.446316e-01 5.012305e-01 4.477780e-01 4.012251e-01 3.441290e-01 2.947044e-01 2.343970e-01 1.824534e-01 1.194635e-01 6.543077e-02 3.839957e-04 -5.522952e-02 -1.216145e-01 -1.782242e-01 -2.451441e-01 -3.020943e-01 -3.686740e-01 -4.252477e-01 -4.905580e-01 -5.459891e-01 -6.090680e-01 -6.625580e-01 -7.224352e-01 -7.731719e-01 -8.288960e-01 -8.760750e-01 -9.267407e-01 -9.695878e-01 -1.014364e+00 -1.052158e+00 -1.090312e+00 -1.122410e+00 -1.153331e+00 -1.179184e+00 -1.202401e+00 -1.221578e+00 -1.236774e+00 -1.248973e+00 -1.255991e+00 -1.261046e+00 -1.259893e+00 -1.257785e+00 -1.248623e+00 -1.239473e+00 -1.222612e+00 -1.206675e+00 -1.182556e+00 -1.160208e+00 -1.129382e+00 -1.101103e+00 -1.064209e+00 -1.030563e+00 -9.883041e-01 -9.499152e-01 -9.030322e-01 -8.605645e-01 -8.098148e-01 -7.639504e-01 -7.100871e-01 -6.615076e-01 -6.052627e-01 -5.546333e-01 -4.967051e-01 -4.446629e-01 -3.857067e-01 -3.328520e-01 
-2.726200e-01 -2.192245e-01 -1.596637e-01 -1.065585e-01 -4.767400e-02 4.672155e-03 6.242299e-02 1.135841e-01 1.697881e-01 2.193781e-01 2.736623e-01 3.213318e-01 3.733589e-01 4.187927e-01 4.682579e-01 5.111721e-01 5.578001e-01 5.979412e-01 6.414844e-01 6.786280e-01 7.188649e-01 7.528157e-01 7.895509e-01 8.201425e-01 8.532052e-01 8.803003e-01 9.095444e-01 9.330338e-01 9.583359e-01 9.781379e-01 9.993959e-01 1.015453e+00 1.032583e+00 1.044861e+00 1.057794e+00 1.066276e+00 1.074954e+00 1.079634e+00 1.084008e+00 1.084892e+00 1.084912e+00 1.082009e+00 1.077629e+00 1.070948e+00 1.062120e+00 1.051667e+00 1.038341e+00 1.024119e+00 1.006246e+00 9.882556e-01 9.657909e-01 9.440317e-01 9.169426e-01 8.914187e-01 8.596912e-01 8.304180e-01 7.940676e-01 7.610795e-01 7.201623e-01 6.835227e-01 6.381473e-01 5.979584e-01 5.482985e-01 5.047114e-01 4.510170e-01 4.042419e-01 3.468495e-01 2.971641e-01 2.365042e-01 1.842609e-01 1.208624e-01 6.649229e-02 9.837322e-04 -5.500166e-02 -1.218961e-01 -1.789069e-01 -2.463756e-01 -3.037491e-01 -3.709062e-01 -4.279165e-01 -4.938195e-01 -5.496902e-01 -6.133621e-01 -6.672834e-01 -7.277376e-01 -7.788854e-01 -8.351536e-01 -8.827113e-01 -9.338717e-01 -9.770535e-01 -1.022259e+00 -1.060334e+00 -1.098838e+00 -1.131152e+00 -1.162333e+00 -1.188331e+00 -1.211711e+00 -1.230955e+00 -1.246212e+00 -1.258396e+00 -1.265374e+00 -1.270336e+00 -1.269042e+00 -1.266764e+00 -1.257370e+00 -1.247980e+00 -1.230806e+00 -1.214567e+00 -1.190066e+00 -1.167367e+00 -1.136106e+00 -1.107437e+00 -1.070072e+00 -1.036010e+00 -9.932577e-01 -9.544410e-01 -9.070576e-01 -8.641617e-01 -8.129175e-01 -7.666347e-01 -7.122934e-01 -6.633136e-01 -6.066155e-01 -5.556101e-01 -4.972590e-01 -4.448690e-01 -3.855236e-01 -3.323513e-01 
-2.736748e-01 -2.197946e-01 -1.597924e-01 -1.062384e-01 -4.695054e-02 5.808974e-03 6.392763e-02 1.154682e-01 1.720075e-01 2.219448e-01 2.765346e-01 3.245214e-01 3.768270e-01 4.225494e-01 4.722679e-01 5.154434e-01 5.623010e-01 6.026767e-01 6.464265e-01 6.837783e-01 7.241996e-01 7.583324e-01 7.952302e-01 8.259781e-01 8.591824e-01 8.864088e-01 9.157746e-01 9.393720e-01 9.647778e-01 9.846663e-01 1.006013e+00 1.022138e+00 1.039344e+00 1.051676e+00 1.064676e+00 1.073200e+00 1.081941e+00 1.086658e+00 1.091091e+00 1.092010e+00 1.092090e+00 1.089223e+00 1.084906e+00 1.078264e+00 1.069501e+00 1.059091e+00 1.045830e+00 1.031656e+00 1.013844e+00 9.959025e-01 9.734911e-01 9.517774e-01 9.247254e-01 8.992381e-01 8.675227e-01 8.382698e-01 8.018962e-01 7.689037e-01 7.279170e-01 6.912387e-01 6.457368e-01 6.054650e-01 5.556114e-01 5.118875e-01 4.579232e-01 4.109487e-01 3.532031e-01 3.032482e-01 2.421477e-01 1.895589e-01 1.256316e-01 7.083706e-02 4.714309e-03 -5.177471e-02 -1.193616e-01 -1.769522e-01 -2.451804e-01 -3.032031e-01 -3.711715e-01 -4.288901e-01 -4.956372e-01 -5.522617e-01 -6.167889e-01 -6.714923e-01 -7.327895e-01 -7.847279e-01 -8.418023e-01 -8.901374e-01 -9.420433e-01 -9.859665e-01 -1.031834e+00 -1.070591e+00 -1.109655e+00 -1.142571e+00 -1.174193e+00 -1.200692e+00 -1.224382e+00 -1.244012e+00 -1.259441e+00 -1.271885e+00 -1.278894e+00 -1.283982e+00 -1.282584e+00 -1.280298e+00 -1.270673e+00 -1.261145e+00 -1.243626e+00 -1.227130e+00 -1.202188e+00 -1.179126e+00 -1.147346e+00 -1.118227e+00 -1.080285e+00 -1.045707e+00 -1.002342e+00 -9.629618e-01 -9.149476e-01 -8.714612e-01 -8.195859e-01 -7.727030e-01 -7.177446e-01 -6.681701e-01 -6.108800e-01 -5.592972e-01 -5.003871e-01 -4.474458e-01 -3.875792e-01 -3.338875e-01 
-2.728184e-01 -2.183959e-01 -1.578218e-01 -1.037777e-01 -4.397504e-02 9.225234e-03 6.780617e-02 1.197419e-01 1.766960e-01 2.269868e-01 2.819488e-01 3.302510e-01 3.828906e-01 4.288931e-01 4.789111e-01 5.223333e-01 5.694582e-01 6.100482e-01 6.540351e-01 6.915695e-01 7.321988e-01 7.664824e-01 8.035599e-01 8.344269e-01 8.677839e-01 8.950982e-01 9.245911e-01 9.482463e-01 9.737557e-01 9.936743e-01 1.015103e+00 1.031234e+00 1.048506e+00 1.060822e+00 1.073875e+00 1.082368e+00 1.091151e+00 1.095826e+00 1.100297e+00 1.101166e+00 1.101282e+00 1.098363e+00 1.094079e+00 1.087385e+00 1.078654e+00 1.068194e+00 1.054961e+00 1.040736e+00 1.022945e+00 1.004949e+00 9.825430e-01 9.607678e-01 9.336970e-01 9.081335e-01 8.763646e-01 8.470122e-01 8.105385e-01 7.774134e-01 7.362674e-01 6.994132e-01 6.536800e-01 6.131788e-01 5.630098e-01 5.189938e-01 4.646199e-01 4.172826e-01 3.590254e-01 3.086314e-01 2.469131e-01 1.938064e-01 1.291549e-01 7.376401e-02 6.815328e-03 -5.034401e-02 -1.188489e-01 -1.771755e-01 -2.463989e-01 -3.052115e-01 -3.742323e-01 -4.327789e-01 -5.006117e-01 -5.580835e-01 -6.237015e-01 -6.792505e-01 -7.416134e-01 -7.943726e-01 -8.524565e-01 -9.015640e-01 -9.543921e-01 -9.990157e-01 -1.045690e+00 -1.085053e+00 -1.124781e+00 -1.158188e+00 -1.190312e+00 -1.217172e+00 -1.241187e+00 -1.261033e+00 -1.276601e+00 -1.289109e+00 -1.296071e+00 -1.301070e+00 -1.299445e+00 -1.296921e+00 -1.286900e+00 -1.276995e+00 -1.258931e+00 -1.241936e+00 -1.216324e+00 -1.192660e+00 -1.160112e+00 -1.130312e+00 -1.091534e+00 -1.056219e+00 -1.011977e+00 -9.718287e-01 -9.229245e-01 -8.786621e-01 -8.259067e-01 -7.782597e-01 -7.224504e-01 -6.721396e-01 -6.140426e-01 -5.617635e-01 -5.021004e-01 -4.485109e-01 -3.879508e-01 -3.336632e-01 
-2.738527e-01 -2.186864e-01 -1.574186e-01 -1.026904e-01 -4.225702e-02 1.156959e-02 7.072327e-02 1.232309e-01 1.807052e-01 2.315173e-01 2.869522e-01 3.357285e-01 3.887982e-01 4.352306e-01 4.856391e-01 5.294490e-01 5.769272e-01 6.178636e-01 6.621679e-01 7.000077e-01 7.409191e-01 7.754673e-01 8.127924e-01 8.438834e-01 8.774542e-01 9.049528e-01 9.346274e-01 9.584292e-01 9.840912e-01 1.004122e+00 1.025678e+00 1.041892e+00 1.059271e+00 1.071645e+00 1.084791e+00 1.093324e+00 1.102192e+00 1.106897e+00 1.111449e+00 1.112346e+00 1.112544e+00 1.109654e+00 1.105457e+00 1.098797e+00 1.090157e+00 1.079739e+00 1.066599e+00 1.052423e+00 1.034721e+00 1.016777e+00 9.944471e-01 9.727201e-01 9.457012e-01 9.201731e-01 8.884175e-01 8.590760e-01 8.225606e-01 7.894083e-01 7.481482e-01 7.112138e-01 6.652766e-01 6.246268e-01 5.741474e-01 5.298993e-01 4.750938e-01 4.274272e-01 3.686060e-01 3.177740e-01 2.553522e-01 2.016903e-01 1.361941e-01 8.012651e-02 1.219646e-02 -4.576097e-02 -1.153728e-01 -1.746134e-01 -2.450512e-01 -3.048826e-01 -3.752009e-01 -4.348545e-01 -5.040373e-01 -5.626820e-01 -6.296676e-01 -6.864283e-01 -7.501379e-01 -8.041165e-01 -8.634865e-01 -9.137868e-01 -9.678016e-01 -1.013556e+00 -1.061280e+00 -1.101676e+00 -1.142287e+00 -1.176596e+00 -1.209408e+00 -1.237008e+00 -1.261498e+00 -1.281898e+00 -1.297718e+00 -1.310577e+00 -1.317564e+00 -1.322701e+00 -1.320881e+00 -1.318284e+00 -1.307862e+00 -1.297681e+00 -1.279034e+00 -1.261577e+00 -1.235226e+00 -1.210939e+00 -1.177530e+00 -1.146976e+00 -1.107246e+00 -1.071079e+00 -1.025831e+00 -9.847645e-01 -9.348315e-01 -8.896164e-01 -8.358371e-01 -7.872309e-01 -7.304258e-01 -6.791729e-01 -6.201258e-01 -5.669398e-01 -5.063845e-01 -4.519359e-01 -3.905484e-01 -3.354575e-01 
-2.728813e-01 -2.169186e-01 -1.548303e-01 -9.938209e-02 -3.821080e-02 1.626428e-02 7.608048e-02 1.291710e-01 1.872404e-01 2.385759e-01 2.945460e-01 3.437916e-01 3.973432e-01 4.441950e-01 4.950370e-01 5.392189e-01 5.870858e-01 6.283483e-01 6.729985e-01 7.111185e-01 7.523344e-01 7.871165e-01 8.247054e-01 8.559838e-01 8.897787e-01 9.174185e-01 9.472796e-01 9.711780e-01 9.969917e-01 1.017078e+00 1.038755e+00 1.054987e+00 1.072462e+00 1.084825e+00 1.098047e+00 1.106546e+00 1.115479e+00 1.120134e+00 1.124745e+00 1.125583e+00 1.125839e+00 1.122888e+00 1.118750e+00 1.112034e+00 1.103454e+00 1.092984e+00 1.079902e+00 1.065678e+00 1.048025e+00 1.030033e+00 1.007735e+00 9.859518e-01 9.589329e-01 9.333298e-01 9.015263e-01 8.720779e-01 8.354485e-01 8.021423e-01 7.606825e-01 7.235311e-01 6.772888e-01 6.363426e-01 5.854339e-01 5.407952e-01 4.854200e-01 4.372556e-01 3.777118e-01 3.262651e-01 2.629603e-01 2.085614e-01 1.420208e-01 8.509362e-02 1.596377e-02 -4.297065e-02 -1.139239e-01 -1.742476e-01 -2.461468e-01 -3.071502e-01 -3.790203e-01 -4.399120e-01 -5.107010e-01 -5.706222e-01 -6.392264e-01 -6.972699e-01 -7.625653e-01 -8.177982e-01 -8.786738e-01 -9.301636e-01 -9.855570e-01 -1.032399e+00 -1.081332e+00 -1.122680e+00 -1.164290e+00 -1.199383e+00 -1.232953e+00 -1.261142e+00 -1.286127e+00 -1.306901e+00 -1.322938e+00 -1.335943e+00 -1.342869e+00 -1.347920e+00 -1.345769e+00 -1.342857e+00 -1.331856e+00 -1.321148e+00 -1.301699e+00 -1.283526e+00 -1.256189e+00 -1.231026e+00 -1.196488e+00 -1.164935e+00 -1.123977e+00 -1.086726e+00 -1.040192e+00 -9.979945e-01 -9.467585e-01 -9.003996e-01 -8.453355e-01 -7.956030e-01 -7.375596e-01 -6.852224e-01 -6.250046e-01 -5.707941e-01 -5.091498e-01 -4.537485e-01 -3.913611e-01 -3.353951e-01 
-2.737690e-01 -2.168029e-01 -1.537723e-01 -9.740666e-02 -3.538221e-02 1.992883e-02 8.051725e-02 1.343683e-01 1.931376e-01 2.451647e-01 3.017706e-01 3.516444e-01 4.057742e-01 4.531952e-01 5.045627e-01 5.492576e-01 5.976003e-01 6.393206e-01 6.843982e-01 7.229209e-01 7.645161e-01 7.996451e-01 8.375655e-01 8.691346e-01 9.032139e-01 9.310889e-01 9.611890e-01 9.852694e-01 1.011281e+00 1.031499e+00 1.053338e+00 1.069661e+00 1.087269e+00 1.099688e+00 1.113023e+00 1.121554e+00 1.130587e+00 1.135260e+00 1.139969e+00 1.140821e+00 1.141178e+00 1.138246e+00 1.134218e+00 1.127530e+00 1.119070e+00 1.108642e+00 1.095686e+00 1.081516e+00 1.063988e+00 1.046058e+00 1.023871e+00 1.002148e+00 9.752097e-01 9.496525e-01 9.178797e-01 8.884462e-01 8.517741e-01 8.184327e-01 7.768318e-01 7.395740e-01 6.930670e-01 6.519215e-01 6.006002e-01 5.556478e-01 4.996908e-01 4.510788e-01 3.907671e-01 3.387224e-01 2.744529e-01 2.192936e-01 1.515880e-01 9.373155e-02 2.324202e-02 -3.679041e-02 -1.092830e-01 -1.708659e-01 -2.444591e-01 -3.068676e-01 -3.805519e-01 -4.429713e-01 -5.156513e-01 -5.771918e-01 -6.477139e-01 -7.074302e-01 -7.746155e-01 -8.315309e-01 -8.942115e-01 -9.473454e-01 -1.004403e+00 -1.052801e+00 -1.103205e+00 -1.145969e+00 -1.188811e+00 -1.225134e+00 -1.259661e+00 -1.288852e+00 -1.314488e+00 -1.336001e+00 -1.352372e+00 -1.365828e+00 -1.372766e+00 -1.377968e+00 -1.375517e+00 -1.372458e+00 -1.360864e+00 -1.349724e+00 -1.329424e+00 -1.310560e+00 -1.282155e+00 -1.256080e+00 -1.220302e+00 -1.187659e+00 -1.145342e+00 -1.106868e+00 -1.058904e+00 -1.015402e+00 -9.627115e-01 -9.150097e-01 -8.585057e-01 -8.074319e-01 -7.479962e-01 -6.943513e-01 -6.328132e-01 -5.773533e-01 -5.144767e-01 -4.579006e-01 -3.943772e-01 -3.373205e-01 
-2.725157e-01 -2.145016e-01 -1.504073e-01 -9.309644e-02 -3.011843e-02 2.604284e-02 8.748609e-02 1.421016e-01 2.016389e-01 2.543538e-01 3.116515e-01 3.621444e-01 4.168989e-01 4.648758e-01 5.168076e-01 5.619986e-01 6.108492e-01 6.530070e-01 6.985383e-01 7.374391e-01 7.794345e-01 8.148809e-01 8.531479e-01 8.849724e-01 9.193455e-01 9.474135e-01 9.777564e-01 1.001969e+00 1.028176e+00 1.048470e+00 1.070463e+00 1.086811e+00 1.104539e+00 1.116942e+00 1.130373e+00 1.138858e+00 1.147972e+00 1.152579e+00 1.157363e+00 1.158142e+00 1.158576e+00 1.155572e+00 1.151627e+00 1.144876e+00 1.136506e+00 1.126026e+00 1.113165e+00 1.098954e+00 1.081516e+00 1.063550e+00 1.041434e+00 1.019670e+00 9.927675e-01 9.671496e-01 9.353529e-01 9.058201e-01 8.690396e-01 8.355390e-01 7.937179e-01 7.562180e-01 7.093506e-01 6.678570e-01 6.160086e-01 5.705801e-01 5.139057e-01 4.646704e-01 4.034324e-01 3.506027e-01 2.851861e-01 2.290712e-01 1.599949e-01 1.010102e-01 2.893313e-02 -3.239422e-02 -1.066734e-01 -1.697037e-01 -2.452537e-01 -3.092393e-01 -3.850110e-01 -4.491064e-01 -5.239550e-01 -5.872327e-01 -6.599471e-01 -7.214181e-01 -7.907563e-01 -8.493958e-01 -9.141246e-01 -9.689015e-01 -1.027838e+00 -1.077747e+00 -1.129799e+00 -1.173894e+00 -1.218100e+00 -1.255527e+00 -1.291090e+00 -1.321121e+00 -1.347434e+00 -1.369492e+00 -1.386161e+00 -1.399848e+00 -1.406703e+00 -1.411814e+00 -1.408911e+00 -1.405445e+00 -1.393059e+00 -1.381217e+00 -1.359824e+00 -1.339995e+00 -1.310246e+00 -1.282988e+00 -1.245675e+00 -1.211680e+00 -1.167696e+00 -1.127756e+00 -1.078056e+00 -1.033025e+00 -9.785836e-01 -9.293401e-01 -8.711181e-01 -8.185315e-01 -7.574487e-01 -7.023533e-01 -6.392668e-01 -5.824426e-01 -5.181336e-01 -4.602941e-01 -3.954627e-01 -3.372503e-01 
-2.730737e-01 -2.137980e-01 -1.485191e-01 -9.006198e-02 -2.601656e-02 3.118423e-02 9.359049e-02 1.491488e-01 2.095577e-01 2.631287e-01 3.212184e-01 3.724892e-01 4.279652e-01 4.766480e-01 5.292372e-01 5.750655e-01 6.245128e-01 6.672400e-01 7.133082e-01 7.527096e-01 7.951813e-01 8.310573e-01 8.697391e-01 9.019204e-01 9.366465e-01 9.649982e-01 9.956339e-01 1.020060e+00 1.046503e+00 1.066945e+00 1.089126e+00 1.105565e+00 1.123442e+00 1.135890e+00 1.149444e+00 1.157941e+00 1.167165e+00 1.171768e+00 1.176659e+00 1.177430e+00 1.177981e+00 1.174978e+00 1.171166e+00 1.164434e+00 1.156215e+00 1.145777e+00 1.133083e+00 1.118936e+00 1.101671e+00 1.083786e+00 1.061832e+00 1.040154e+00 1.013381e+00 9.878360e-01 9.561106e-01 9.266160e-01 8.898166e-01 8.562939e-01 8.143299e-01 7.767192e-01 7.295505e-01 6.878280e-01 6.354865e-01 5.896820e-01 5.322927e-01 4.825078e-01 4.203091e-01 3.667334e-01 3.000941e-01 2.430199e-01 1.724530e-01 1.122863e-01 3.845618e-02 -2.427658e-02 -1.005524e-01 -1.652025e-01 -2.429606e-01 -3.087610e-01 -3.869066e-01 -4.529816e-01 -5.303124e-01 -5.956938e-01 -6.709313e-01 -7.345800e-01 -8.064082e-01 -8.672414e-01 -9.343500e-01 -9.912726e-01 -1.052403e+00 -1.104342e+00 -1.158332e+00 -1.204275e+00 -1.250100e+00 -1.289129e+00 -1.325942e+00 -1.357271e+00 -1.384429e+00 -1.407434e+00 -1.424522e+00 -1.438773e+00 -1.445617e+00 -1.450892e+00 -1.447560e+00 -1.443859e+00 -1.430656e+00 -1.418200e+00 -1.395648e+00 -1.374863e+00 -1.343669e+00 -1.315164e+00 -1.276186e+00 -1.240715e+00 -1.194914e+00 -1.153335e+00 -1.101735e+00 -1.054968e+00 -9.986051e-01 -9.475890e-01 -8.874787e-01 -8.331359e-01 -7.702404e-01 -7.134474e-01 -6.486543e-01 -5.902217e-01 -5.243317e-01 -4.649926e-01 -3.987144e-01 -3.391207e-01 
-2.713114e-01 -2.107408e-01 -1.441645e-01 -8.454486e-02 -1.934156e-02 3.890199e-02 1.023436e-01 1.588390e-01 2.201777e-01 2.745934e-01 3.335224e-01 3.855563e-01 4.417933e-01 4.911652e-01 5.444453e-01 5.908926e-01 6.409651e-01 6.842418e-01 7.308707e-01 7.707497e-01 8.137171e-01 8.499954e-01 8.891062e-01 9.216110e-01 9.566986e-01 9.852935e-01 1.016225e+00 1.040814e+00 1.067491e+00 1.088022e+00 1.110382e+00 1.126844e+00 1.144857e+00 1.157275e+00 1.170932e+00 1.179361e+00 1.188672e+00 1.193183e+00 1.198158e+00 1.198831e+00 1.199473e+00 1.196379e+00 1.192674e+00 1.185869e+00 1.177775e+00 1.167287e+00 1.154731e+00 1.140557e+00 1.123434e+00 1.105537e+00 1.083713e+00 1.062024e+00 1.035343e+00 1.009770e+00 9.780704e-01 9.485055e-01 9.116309e-01 8.779665e-01 8.357896e-01 7.979348e-01 7.503774e-01 7.082767e-01 6.553339e-01 6.089867e-01 5.507509e-01 5.002319e-01 4.369147e-01 3.823924e-01 3.143452e-01 2.560984e-01 1.838275e-01 1.222579e-01 4.643484e-02 -1.792510e-02 -9.646173e-02 -1.629460e-01 -2.431963e-01 -3.110093e-01 -3.918274e-01 -4.600541e-01 -5.401733e-01 -6.077964e-01 -6.858625e-01 -7.517858e-01 -8.263996e-01 -8.894770e-01 -9.592412e-01 -1.018311e+00 -1.081880e+00 -1.135803e+00 -1.191935e+00 -1.239631e+00 -1.287229e+00 -1.327722e+00 -1.365881e+00 -1.398330e+00 -1.426364e+00 -1.450105e+00 -1.467576e+00 -1.482149e+00 -1.488876e+00 -1.494049e+00 -1.490118e+00 -1.485898e+00 -1.471650e+00 -1.458284e+00 -1.434294e+00 -1.412254e+00 -1.379301e+00 -1.349253e+00 -1.308273e+00 -1.271042e+00 -1.223079e+00 -1.179596e+00 -1.125755e+00 -1.077012e+00 -1.018403e+00 -9.654052e-01 -9.031055e-01 -8.468302e-01 -7.818512e-01 -7.232175e-01 -6.564808e-01 -5.963290e-01 -5.286551e-01 -4.677353e-01 -3.998405e-01 -3.388104e-01 
-2.712915e-01 -2.092060e-01 -1.412134e-01 -8.022701e-02 -1.375485e-02 4.572165e-02 1.103041e-01 1.679145e-01 2.302849e-01 2.857126e-01 3.455805e-01 3.985358e-01 4.556313e-01 5.058423e-01 5.599084e-01 6.071164e-01 6.579057e-01 7.018645e-01 7.491406e-01 7.896200e-01 8.331619e-01 8.699541e-01 9.095633e-01 9.424913e-01 9.779989e-01 1.006924e+00 1.038197e+00 1.063025e+00 1.089971e+00 1.110656e+00 1.133221e+00 1.149762e+00 1.167929e+00 1.180367e+00 1.194145e+00 1.202553e+00 1.211968e+00 1.216438e+00 1.221520e+00 1.222151e+00 1.222918e+00 1.219799e+00 1.216247e+00 1.209447e+00 1.201540e+00 1.191094e+00 1.178755e+00 1.164662e+00 1.147775e+00 1.129989e+00 1.108400e+00 1.086839e+00 1.060365e+00 1.034913e+00 1.003356e+00 9.738784e-01 9.370425e-01 9.033974e-01 8.611103e-01 8.231699e-01 7.753078e-01 7.329776e-01 6.794910e-01 6.327323e-01 5.736725e-01 5.225245e-01 4.580698e-01 4.026704e-01 3.331487e-01 2.737533e-01 1.996603e-01 1.366568e-01 5.866861e-02 -7.413135e-03 -8.843610e-02 -1.569203e-01 -2.399382e-01 -3.100058e-01 -3.938152e-01 -4.645138e-01 -5.477737e-01 -6.180350e-01 -6.993036e-01 -7.679677e-01 -8.457485e-01 -9.115948e-01 -9.843893e-01 -1.046174e+00 -1.112537e+00 -1.169033e+00 -1.227630e+00 -1.277670e+00 -1.327324e+00 -1.369847e+00 -1.409586e+00 -1.443677e+00 -1.472769e+00 -1.497701e+00 -1.515678e+00 -1.530946e+00 -1.537625e+00 -1.542973e+00 -1.538455e+00 -1.533893e+00 -1.518558e+00 -1.504359e+00 -1.478844e+00 -1.455532e+00 -1.420691e+00 -1.389002e+00 -1.345860e+00 -1.306702e+00 -1.256397e+00 -1.210792e+00 -1.154518e+00 -1.103546e+00 -1.042496e+00 -9.872431e-01 -9.225640e-01 -8.640757e-01 -7.968324e-01 -7.360806e-01 -6.672318e-01 -6.050934e-01 -5.354810e-01 -4.727272e-01 -4.030748e-01 -3.403714e-01 
-2.687244e-01 -2.051062e-01 -1.355971e-01 -7.324370e-02 -5.426373e-03 5.527144e-02 1.210528e-01 1.797596e-01 2.432066e-01 2.996248e-01 3.604677e-01 4.143225e-01 4.723071e-01 5.233366e-01 5.782156e-01 6.261652e-01 6.776956e-01 7.223179e-01 7.702628e-01 8.113227e-01 8.554574e-01 8.927400e-01 9.328613e-01 9.661828e-01 1.002118e+00 1.031336e+00 1.062953e+00 1.087971e+00 1.115181e+00 1.135960e+00 1.158719e+00 1.175269e+00 1.193573e+00 1.205951e+00 1.219828e+00 1.228129e+00 1.237624e+00 1.241961e+00 1.247123e+00 1.247617e+00 1.248482e+00 1.245244e+00 1.241819e+00 1.234931e+00 1.227185e+00 1.216691e+00 1.204546e+00 1.190445e+00 1.173771e+00 1.156009e+00 1.134631e+00 1.113110e+00 1.086815e+00 1.061393e+00 1.029945e+00 1.000454e+00 9.636134e-01 9.298752e-01 8.874206e-01 8.492656e-01 8.010231e-01 7.583147e-01 7.041857e-01 6.568442e-01 5.968353e-01 5.448632e-01 4.791156e-01 4.226214e-01 3.514370e-01 2.906563e-01 2.145194e-01 1.498320e-01 6.942401e-02 1.365480e-03 -8.242880e-02 -1.531625e-01 -2.392592e-01 -3.118142e-01 -3.989458e-01 -4.723208e-01 -5.590645e-01 -6.321291e-01 -7.169459e-01 -7.884675e-01 -8.697533e-01 -9.384306e-01 -1.014574e+00 -1.079077e+00 -1.148521e+00 -1.207537e+00 -1.268841e+00 -1.321118e+00 -1.373013e+00 -1.417411e+00 -1.458848e+00 -1.494382e+00 -1.524575e+00 -1.550461e+00 -1.568908e+00 -1.584602e+00 -1.591113e+00 -1.596342e+00 -1.591040e+00 -1.585820e+00 -1.569132e+00 -1.553772e+00 -1.526407e+00 -1.501488e+00 -1.464393e+00 -1.430733e+00 -1.385039e+00 -1.343640e+00 -1.290595e+00 -1.242578e+00 -1.183483e+00 -1.130024e+00 -1.066169e+00 -1.008439e+00 -9.410510e-01 -8.801675e-01 -8.103701e-01 -7.473580e-01 -6.761503e-01 -6.119209e-01 -5.401654e-01 -4.755077e-01 -4.039325e-01 -3.395150e-01 
-2.678035e-01 -2.024268e-01 -1.312871e-01 -6.736083e-02 1.907465e-03 6.401572e-02 1.310968e-01 1.910758e-01 2.556981e-01 3.132721e-01 3.751883e-01 4.300998e-01 4.890719e-01 5.410698e-01 5.968602e-01 6.456940e-01 6.980618e-01 7.434822e-01 7.921873e-01 8.339521e-01 8.787630e-01 9.166484e-01 9.573540e-01 9.911671e-01 1.027589e+00 1.057181e+00 1.089185e+00 1.114462e+00 1.141964e+00 1.162891e+00 1.185858e+00 1.202460e+00 1.220907e+00 1.233262e+00 1.247239e+00 1.255464e+00 1.265042e+00 1.269281e+00 1.274534e+00 1.274935e+00 1.275922e+00 1.272618e+00 1.269363e+00 1.262458e+00 1.254937e+00 1.244486e+00 1.232619e+00 1.218621e+00 1.202267e+00 1.184662e+00 1.163620e+00 1.142290e+00 1.116313e+00 1.091089e+00 1.059897e+00 1.030575e+00 9.938749e-01 9.602342e-01 9.177482e-01 8.795712e-01 8.310654e-01 7.881652e-01 7.334821e-01 6.857291e-01 6.248209e-01 5.721709e-01 5.051327e-01 4.476533e-01 3.747532e-01 3.126484e-01 2.343532e-01 1.679828e-01 8.497583e-02 1.486923e-02 -7.194088e-02 -1.450779e-01 -2.345596e-01 -3.098463e-01 -4.006609e-01 -4.770511e-01 -5.676818e-01 -6.439828e-01 -7.327784e-01 -8.076784e-01 -8.929094e-01 -9.650135e-01 -1.044937e+00 -1.112811e+00 -1.185742e+00 -1.247961e+00 -1.312338e+00 -1.367539e+00 -1.421992e+00 -1.468925e+00 -1.512320e+00 -1.549903e+00 -1.581392e+00 -1.608756e+00 -1.627805e+00 -1.644347e+00 -1.650756e+00 -1.656170e+00 -1.650082e+00 -1.644386e+00 -1.626282e+00 -1.609819e+00 -1.580485e+00 -1.553907e+00 -1.514394e+00 -1.478613e+00 -1.430169e+00 -1.386301e+00 -1.330298e+00 -1.279586e+00 -1.217444e+00 -1.161182e+00 -1.094297e+00 -1.033762e+00 -9.634493e-01 -8.998434e-01 -8.272931e-01 -7.617057e-01 -6.879593e-01 -6.213435e-01 -5.472850e-01 -4.804508e-01 -4.068113e-01 -3.404311e-01 
-2.640556e-01 -1.969243e-01 -1.240722e-01 -5.859431e-02 1.218150e-02 7.566884e-02 1.440884e-01 2.053043e-01 2.711294e-01 3.298247e-01 3.928358e-01 4.487735e-01 5.087528e-01 5.616944e-01 6.184155e-01 6.681145e-01 7.213399e-01 7.675430e-01 8.170284e-01 8.594838e-01 9.049892e-01 9.434601e-01 9.847642e-01 1.019045e+00 1.055962e+00 1.085895e+00 1.118287e+00 1.143776e+00 1.171563e+00 1.192578e+00 1.215739e+00 1.232320e+00 1.250888e+00 1.263134e+00 1.277184e+00 1.285241e+00 1.294872e+00 1.298913e+00 1.304228e+00 1.304433e+00 1.305513e+00 1.302045e+00 1.298933e+00 1.291915e+00 1.284597e+00 1.274099e+00 1.262492e+00 1.248515e+00 1.232465e+00 1.214938e+00 1.194219e+00 1.173003e+00 1.147330e+00 1.122225e+00 1.091270e+00 1.062031e+00 1.025444e+00 9.917995e-01 9.492414e-01 9.109216e-01 8.620929e-01 8.188550e-01 7.635331e-01 7.151936e-01 6.532707e-01 5.997359e-01 5.312560e-01 4.725533e-01 3.977473e-01 3.340522e-01 2.533675e-01 1.850265e-01 9.914844e-02 2.669522e-02 -6.344104e-02 -1.392780e-01 -2.324887e-01 -3.107869e-01 -4.056552e-01 -4.853083e-01 -5.802151e-01 -6.599536e-01 -7.531249e-01 -8.315458e-01 -9.211141e-01 -9.967212e-01 -1.080799e+00 -1.152050e+00 -1.228807e+00 -1.294168e+00 -1.361910e+00 -1.419911e+00 -1.477146e+00 -1.526436e+00 -1.571937e+00 -1.611342e+00 -1.644188e+00 -1.672765e+00 -1.692378e+00 -1.709467e+00 -1.715638e+00 -1.720907e+00 -1.713803e+00 -1.707276e+00 -1.687438e+00 -1.669502e+00 -1.637813e+00 -1.609198e+00 -1.566830e+00 -1.528557e+00 -1.476899e+00 -1.430210e+00 -1.370783e+00 -1.317053e+00 -1.251416e+00 -1.192068e+00 -1.121741e+00 -1.058162e+00 -9.845600e-01 -9.180433e-01 -8.424284e-01 -7.741264e-01 -6.975847e-01 -6.284888e-01 -5.519235e-01 -4.828590e-01 -4.069992e-01 -3.386352e-01 
-2.618226e-01 -1.927078e-01 -1.180375e-01 -5.080389e-02 2.157659e-02 8.662768e-02 1.564792e-01 2.191025e-01 2.862241e-01 3.462017e-01 4.104043e-01 4.675229e-01 5.286096e-01 5.826447e-01 6.404000e-01 6.911089e-01 7.452956e-01 7.924194e-01 8.427852e-01 8.860593e-01 9.323504e-01 9.715216e-01 1.013502e+00 1.048349e+00 1.085820e+00 1.116173e+00 1.148992e+00 1.174752e+00 1.202842e+00 1.223987e+00 1.247341e+00 1.263927e+00 1.282604e+00 1.294757e+00 1.308861e+00 1.316761e+00 1.326427e+00 1.330287e+00 1.335653e+00 1.335689e+00 1.336871e+00 1.333280e+00 1.330344e+00 1.323277e+00 1.316223e+00 1.305765e+00 1.294511e+00 1.280668e+00 1.265045e+00 1.247738e+00 1.227491e+00 1.206558e+00 1.181358e+00 1.156565e+00 1.126029e+00 1.097084e+00 1.060797e+00 1.027376e+00 9.849252e-01 9.466969e-01 8.977053e-01 8.543629e-01 7.985315e-01 7.498270e-01 6.869755e-01 6.327543e-01 5.628645e-01 5.031001e-01 4.263551e-01 3.611802e-01 2.779994e-01 2.077321e-01 1.187973e-01 4.395997e-02 -4.976920e-02 -1.284397e-01 -2.257244e-01 -3.072758e-01 -4.066124e-01 -4.898865e-01 -5.895392e-01 -6.731913e-01 -7.712432e-01 -8.537738e-01 -9.481963e-01 -1.027993e+00 -1.116729e+00 -1.192119e+00 -1.273174e+00 -1.342482e+00 -1.414008e+00 -1.475622e+00 -1.536000e+00 -1.588429e+00 -1.636325e+00 -1.678268e+00 -1.712686e+00 -1.743089e+00 -1.763405e+00 -1.781528e+00 -1.787520e+00 -1.792983e+00 -1.784845e+00 -1.777670e+00 -1.756007e+00 -1.736629e+00 -1.702426e+00 -1.671668e+00 -1.626233e+00 -1.585246e+00 -1.530126e+00 -1.480306e+00 -1.417184e+00 -1.360071e+00 -1.290664e+00 -1.227835e+00 -1.153801e+00 -1.086780e+00 -1.009643e+00 -9.398299e-01 -8.609309e-01 -7.895547e-01 -7.100264e-01 -6.381234e-01 -5.588873e-01 -4.873005e-01 -4.090806e-01 -3.384741e-01 