# vtk DataFile Version 2.0
Comment goes here
ASCII

DATASET STRUCTURED_POINTS
FIELD FieldData 1
TIME 1 1 double
0.03000000
DIMENSIONS    128   128   1

ORIGIN    0.000   0.000   0.000
SPACING   0.039062 0.039062   1.000

POINT_DATA   16384
SCALARS uX double
LOOKUP_TABLE default

7.263554e-01 7.465247e-01 7.735917e-01 7.914052e-01 8.163166e-01 8.316270e-01 8.541743e-01 8.668091e-01 8.867535e-01 8.965177e-01 9.135931e-01 9.202741e-01 9.341916e-01 9.375653e-01 9.480204e-01 9.478591e-01 9.545404e-01 9.506219e-01 9.532216e-01 9.453395e-01 9.435656e-01 9.315401e-01 9.251286e-01 9.088168e-01 8.975454e-01 8.768521e-01 8.605521e-01 8.354385e-01 8.140063e-01 7.844984e-01 7.579051e-01 7.240991e-01 6.923979e-01 6.544645e-01 6.177951e-01 5.759815e-01 5.345728e-01 4.892023e-01 4.433726e-01 3.948432e-01 3.449979e-01 2.937791e-01 2.404076e-01 1.870362e-01 1.307073e-01 7.578206e-02 1.713889e-02 -3.868498e-02 -9.893175e-02 -1.549493e-01 -2.160284e-01 -2.714928e-01 -3.325814e-01 -3.867133e-01 -4.469477e-01 -4.989468e-01 -5.574360e-01 -6.064947e-01 -6.623370e-01 -7.076579e-01 -7.599609e-01 -8.007762e-01 -8.486797e-01 -8.842737e-01 -9.269752e-01 -9.567086e-01 -9.934903e-01 -1.016825e+00 -1.047080e+00 -1.063600e+00 -1.086858e+00 -1.096294e+00 -1.112237e+00 -1.114478e+00 -1.122959e+00 -1.118059e+00 -1.119106e+00 -1.107285e+00 -1.101096e+00 -1.082732e+00 -1.069667e+00 -1.045277e+00 -1.025834e+00 -9.960494e-01 -9.708408e-01 -9.363791e-01 -9.060997e-01 -8.677311e-01 -8.331254e-01 -7.916405e-01 -7.534705e-01 -7.096497e-01 -6.686650e-01 -6.232520e-01 -5.801649e-01 -5.338453e-01 -4.893115e-01 -4.426979e-01 -3.973027e-01 -3.509255e-01 -3.051767e-01 -2.594809e-01 -2.138068e-01 -1.691537e-01 -1.239052e-01 -8.057808e-02 -3.603498e-02 5.752878e-03 4.937360e-02 8.946820e-02 1.320025e-01 1.702982e-01 2.116242e-01 2.480521e-01 2.880795e-01 3.225966e-01 3.612562e-01 3.938348e-01 4.310685e-01 4.616866e-01 4.974387e-01 5.260719e-01 5.602803e-01 5.868943e-01 6.194841e-01 6.440287e-01 6.749056e-01 6.973100e-01 
7.263434e-01 7.464307e-01 7.734721e-01 7.912075e-01 8.160991e-01 8.313359e-01 8.538698e-01 8.664357e-01 8.863736e-01 8.960738e-01 9.131499e-01 9.197717e-01 9.336971e-01 9.370165e-01 9.474867e-01 9.472757e-01 9.539789e-01 9.500155e-01 9.526433e-01 9.447212e-01 9.429809e-01 9.309200e-01 9.245470e-01 9.082047e-01 8.969757e-01 8.762570e-01 8.600025e-01 8.348691e-01 8.134845e-01 7.839628e-01 7.574185e-01 7.236052e-01 6.919533e-01 6.540198e-01 6.173991e-01 5.755930e-01 5.342315e-01 4.888765e-01 4.430910e-01 3.945851e-01 3.447797e-01 2.935919e-01 2.402543e-01 1.869205e-01 1.306175e-01 7.573523e-02 1.710749e-02 -3.866989e-02 -9.891403e-02 -1.548838e-01 -2.159754e-01 -2.713932e-01 -3.325116e-01 -3.866003e-01 -4.468833e-01 -4.988447e-01 -5.574019e-01 -6.064301e-01 -6.623593e-01 -7.076574e-01 -7.600643e-01 -8.008638e-01 -8.488848e-01 -8.844684e-01 -9.272962e-01 -9.570217e-01 -9.939323e-01 -1.017257e+00 -1.047637e+00 -1.064143e+00 -1.087513e+00 -1.096924e+00 -1.112962e+00 -1.115164e+00 -1.123715e+00 -1.118759e+00 -1.119848e+00 -1.107954e+00 -1.101777e+00 -1.083323e+00 -1.070239e+00 -1.045745e+00 -1.026255e+00 -9.963558e-01 -9.710771e-01 -9.364956e-01 -9.061285e-01 -8.676405e-01 -8.329360e-01 -7.913377e-01 -7.530642e-01 -7.091413e-01 -6.680545e-01 -6.225549e-01 -5.793724e-01 -5.329849e-01 -4.883662e-01 -4.417054e-01 -3.962388e-01 -3.498357e-01 -3.040306e-01 -2.583298e-01 -2.126149e-01 -1.679766e-01 -1.227025e-01 -7.940795e-02 -3.485335e-02 6.886342e-03 5.050590e-02 9.053931e-02 1.330615e-01 1.712855e-01 2.125905e-01 2.489387e-01 2.889380e-01 3.233696e-01 3.619960e-01 3.944853e-01 4.316825e-01 4.622094e-01 4.979232e-01 5.264648e-01 5.606350e-01 5.871583e-01 6.197112e-01 6.441672e-01 6.750099e-01 6.973285e-01 
7.284622e-01 7.486922e-01 7.758476e-01 7.937349e-01 8.187503e-01 8.341472e-01 8.568136e-01 8.695460e-01 8.896234e-01 8.994941e-01 9.167137e-01 9.235070e-01 9.375766e-01 9.410643e-01 9.516750e-01 9.516248e-01 9.584599e-01 9.546447e-01 9.573904e-01 9.495984e-01 9.479563e-01 9.360022e-01 9.297021e-01 9.134379e-01 9.022510e-01 8.815769e-01 8.653288e-01 8.402022e-01 8.187847e-01 7.892284e-01 7.626089e-01 7.287172e-01 6.969464e-01 6.588891e-01 6.221056e-01 5.801299e-01 5.385625e-01 4.929926e-01 4.469604e-01 3.981960e-01 3.481062e-01 2.966187e-01 2.429629e-01 1.892917e-01 1.326415e-01 7.738833e-02 1.838977e-02 -3.778673e-02 -9.841921e-02 -1.548102e-01 -2.163010e-01 -2.721550e-01 -3.336757e-01 -3.882077e-01 -4.488879e-01 -5.012904e-01 -5.602307e-01 -6.096879e-01 -6.659768e-01 -7.116813e-01 -7.644147e-01 -8.055873e-01 -8.538924e-01 -8.898056e-01 -9.328664e-01 -9.628685e-01 -9.999540e-01 -1.023495e+00 -1.053986e+00 -1.070642e+00 -1.094057e+00 -1.103549e+00 -1.119566e+00 -1.121779e+00 -1.130247e+00 -1.125236e+00 -1.126184e+00 -1.114174e+00 -1.107807e+00 -1.089184e+00 -1.075870e+00 -1.051163e+00 -1.031414e+00 -1.001271e+00 -9.757151e-01 -9.408682e-01 -9.102166e-01 -8.714527e-01 -8.364661e-01 -7.945910e-01 -7.560461e-01 -7.118535e-01 -6.705125e-01 -6.247567e-01 -5.813418e-01 -5.347159e-01 -4.898893e-01 -4.430105e-01 -3.973613e-01 -3.507615e-01 -3.047987e-01 -2.589222e-01 -2.130726e-01 -1.682779e-01 -1.228895e-01 -7.945555e-02 -3.480399e-02 7.060924e-03 5.076364e-02 9.091117e-02 1.335063e-01 1.718365e-01 2.132076e-01 2.496571e-01 2.897191e-01 3.242502e-01 3.629387e-01 3.955283e-01 4.327899e-01 4.634203e-01 4.992032e-01 5.278536e-01 5.620995e-01 5.887386e-01 6.213755e-01 6.459556e-01 6.768918e-01 6.993437e-01 
7.305488e-01 7.507567e-01 7.779741e-01 7.958568e-01 8.209558e-01 8.363653e-01 8.591371e-01 8.718981e-01 8.921016e-01 9.020148e-01 9.193793e-01 9.262256e-01 9.404554e-01 9.440028e-01 9.547845e-01 9.547961e-01 9.618072e-01 9.580505e-01 9.609710e-01 9.532289e-01 9.517531e-01 9.398348e-01 9.336852e-01 9.174379e-01 9.063787e-01 8.856980e-01 8.695483e-01 8.443881e-01 8.230339e-01 7.934147e-01 7.668188e-01 7.328336e-01 7.010435e-01 6.628617e-01 6.260138e-01 5.838833e-01 5.422055e-01 4.964517e-01 4.502629e-01 4.012871e-01 3.509946e-01 2.992703e-01 2.453662e-01 1.914344e-01 1.344909e-01 7.895482e-02 1.961882e-02 -3.686151e-02 -9.787460e-02 -1.545888e-01 -2.165015e-01 -2.726960e-01 -3.346769e-01 -3.895637e-01 -4.507374e-01 -5.035044e-01 -5.629643e-01 -6.127889e-01 -6.696131e-01 -7.156787e-01 -7.689500e-01 -8.104660e-01 -8.592952e-01 -8.955201e-01 -9.390728e-01 -9.693396e-01 -1.006865e+00 -1.030608e+00 -1.061467e+00 -1.078247e+00 -1.101941e+00 -1.111467e+00 -1.127658e+00 -1.129808e+00 -1.138337e+00 -1.133161e+00 -1.134053e+00 -1.121781e+00 -1.115245e+00 -1.096271e+00 -1.082686e+00 -1.057556e+00 -1.037450e+00 -1.006828e+00 -9.808490e-01 -9.454913e-01 -9.143734e-01 -8.750889e-01 -8.396161e-01 -7.972321e-01 -7.582028e-01 -7.135319e-01 -6.717275e-01 -6.255390e-01 -5.816968e-01 -5.346948e-01 -4.894879e-01 -4.422958e-01 -3.963197e-01 -3.494718e-01 -3.032380e-01 -2.571771e-01 -2.111115e-01 -1.661919e-01 -1.206390e-01 -7.713317e-02 -3.236315e-02 9.528153e-03 5.330993e-02 9.344664e-02 1.360887e-01 1.743792e-01 2.157724e-01 2.521616e-01 2.922282e-01 3.266856e-01 3.653681e-01 3.978777e-01 4.351288e-01 4.656789e-01 5.014527e-01 5.300276e-01 5.642711e-01 5.908437e-01 6.234894e-01 6.480155e-01 6.789754e-01 7.013885e-01 
7.347546e-01 7.551660e-01 7.825863e-01 8.006957e-01 8.260237e-01 8.416813e-01 8.647068e-01 8.777344e-01 8.982129e-01 9.084064e-01 9.260621e-01 9.331960e-01 9.477263e-01 9.515606e-01 9.626432e-01 9.629319e-01 9.702341e-01 9.667342e-01 9.699243e-01 9.624079e-01 9.611679e-01 9.494332e-01 9.434731e-01 9.273565e-01 9.164286e-01 8.958160e-01 8.797287e-01 8.545657e-01 8.331961e-01 8.034965e-01 7.768009e-01 7.426531e-01 7.106748e-01 6.722458e-01 6.351200e-01 5.926571e-01 5.506126e-01 5.044430e-01 4.578018e-01 4.083299e-01 3.575044e-01 3.052083e-01 2.506969e-01 1.961235e-01 1.385060e-01 8.226589e-02 2.219748e-02 -3.504084e-02 -9.683489e-02 -1.543511e-01 -2.170821e-01 -2.741108e-01 -3.369345e-01 -3.926738e-01 -4.546995e-01 -5.083210e-01 -5.686248e-01 -6.192873e-01 -6.769274e-01 -7.237935e-01 -7.778311e-01 -8.200879e-01 -8.696110e-01 -9.064940e-01 -9.506460e-01 -9.814659e-01 -1.019475e+00 -1.043646e+00 -1.074855e+00 -1.091922e+00 -1.115820e+00 -1.125482e+00 -1.141724e+00 -1.143854e+00 -1.152281e+00 -1.146933e+00 -1.147578e+00 -1.134992e+00 -1.128077e+00 -1.108666e+00 -1.094591e+00 -1.068922e+00 -1.048240e+00 -1.017004e+00 -9.903896e-01 -9.543707e-01 -9.225864e-01 -8.826210e-01 -8.464769e-01 -8.034178e-01 -7.637359e-01 -7.184171e-01 -6.759978e-01 -6.292058e-01 -5.848008e-01 -5.372515e-01 -4.915430e-01 -4.438667e-01 -3.974548e-01 -3.501881e-01 -3.035842e-01 -2.571684e-01 -2.107952e-01 -1.655798e-01 -1.197760e-01 -7.602680e-02 -3.105483e-02 1.103567e-02 5.497904e-02 9.527964e-02 1.380519e-01 1.764801e-01 2.179812e-01 2.544905e-01 2.946512e-01 3.292194e-01 3.679902e-01 4.006087e-01 4.379497e-01 4.686135e-01 5.044852e-01 5.331844e-01 5.675394e-01 5.942517e-01 6.270273e-01 6.517122e-01 6.828240e-01 7.054176e-01 
7.389029e-01 7.593515e-01 7.869202e-01 8.050986e-01 8.306134e-01 8.463711e-01 8.696216e-01 8.827776e-01 9.035170e-01 9.138626e-01 9.318106e-01 9.391139e-01 9.539612e-01 9.579741e-01 9.693892e-01 9.698560e-01 9.774951e-01 9.741625e-01 9.776810e-01 9.703098e-01 9.693761e-01 9.577534e-01 9.520632e-01 9.360150e-01 9.253067e-01 9.047097e-01 8.887792e-01 8.635715e-01 8.422851e-01 8.124750e-01 7.857809e-01 7.514536e-01 7.193894e-01 6.807108e-01 6.434086e-01 6.006271e-01 5.583150e-01 5.117604e-01 4.647614e-01 4.148417e-01 3.635704e-01 3.107679e-01 2.557256e-01 2.005917e-01 1.423613e-01 8.551094e-02 2.475127e-02 -3.314265e-02 -9.570220e-02 -1.539145e-01 -2.174798e-01 -2.752391e-01 -3.389583e-01 -3.954548e-01 -4.584265e-01 -5.128210e-01 -5.741062e-01 -6.255430e-01 -6.841802e-01 -7.318033e-01 -7.868288e-01 -8.298021e-01 -8.802745e-01 -9.178069e-01 -9.628361e-01 -9.942094e-01 -1.032989e+00 -1.057588e+00 -1.089427e+00 -1.106770e+00 -1.131126e+00 -1.140890e+00 -1.157396e+00 -1.159439e+00 -1.167921e+00 -1.162296e+00 -1.162784e+00 -1.149737e+00 -1.142464e+00 -1.122426e+00 -1.107813e+00 -1.081380e+00 -1.060010e+00 -1.027910e+00 -1.000497e+00 -9.635538e-01 -9.309012e-01 -8.899927e-01 -8.529530e-01 -8.089706e-01 -7.684043e-01 -7.222159e-01 -6.789566e-01 -6.313750e-01 -5.861999e-01 -5.379599e-01 -4.915690e-01 -4.433113e-01 -3.963145e-01 -3.485788e-01 -3.014902e-01 -2.547148e-01 -2.079541e-01 -1.624802e-01 -1.163785e-01 -7.246063e-02 -2.726987e-02 1.491330e-02 5.900871e-02 9.934050e-02 1.422112e-01 1.806237e-01 2.221829e-01 2.586436e-01 2.988347e-01 3.333344e-01 3.721198e-01 4.046616e-01 4.420125e-01 4.726016e-01 5.084884e-01 5.371236e-01 5.715077e-01 5.981742e-01 6.310004e-01 6.556635e-01 6.868541e-01 7.094540e-01 
7.451464e-01 7.658594e-01 7.937199e-01 8.122011e-01 8.380517e-01 8.541487e-01 8.777772e-01 8.913045e-01 9.124597e-01 9.232016e-01 9.415956e-01 9.493105e-01 9.646234e-01 9.690511e-01 9.809380e-01 9.818084e-01 9.899093e-01 9.869531e-01 9.909053e-01 9.838664e-01 9.833185e-01 9.719668e-01 9.665948e-01 9.507396e-01 9.402627e-01 9.197657e-01 9.039625e-01 8.787489e-01 8.574715e-01 8.275397e-01 8.007254e-01 7.661538e-01 7.338337e-01 6.947848e-01 6.570886e-01 6.138107e-01 5.709679e-01 5.237931e-01 4.761313e-01 4.254730e-01 3.734138e-01 3.197613e-01 2.638151e-01 2.077283e-01 1.484882e-01 9.059204e-02 2.872855e-02 -3.029237e-02 -9.403680e-02 -1.534437e-01 -2.182598e-01 -2.772653e-01 -3.422829e-01 -4.000575e-01 -4.643536e-01 -5.200349e-01 -5.826443e-01 -6.353489e-01 -6.952798e-01 -7.441199e-01 -8.003740e-01 -8.444786e-01 -8.960775e-01 -9.346184e-01 -9.806341e-01 -1.012857e+00 -1.052446e+00 -1.077701e+00 -1.110142e+00 -1.127920e+00 -1.152646e+00 -1.162604e+00 -1.179232e+00 -1.181221e+00 -1.189575e+00 -1.183651e+00 -1.183770e+00 -1.170195e+00 -1.162334e+00 -1.141568e+00 -1.126180e+00 -1.098855e+00 -1.076564e+00 -1.043452e+00 -1.015018e+00 -9.769906e-01 -9.432633e-01 -9.012437e-01 -8.631202e-01 -8.180428e-01 -7.764234e-01 -7.291920e-01 -6.849428e-01 -6.363986e-01 -5.903210e-01 -5.412179e-01 -4.940274e-01 -4.450171e-01 -3.973308e-01 -3.489559e-01 -3.012882e-01 -2.539832e-01 -2.067480e-01 -1.608459e-01 -1.143642e-01 -7.010712e-02 -2.461808e-02 1.782939e-02 6.215580e-02 1.026922e-01 1.457417e-01 1.843144e-01 2.260147e-01 2.626059e-01 3.029147e-01 3.375290e-01 3.764217e-01 4.090744e-01 4.465341e-01 4.772414e-01 5.132492e-01 5.420195e-01 5.765461e-01 6.033724e-01 6.363706e-01 6.612245e-01 6.926229e-01 7.154492e-01 
7.512890e-01 7.720976e-01 8.001911e-01 8.188159e-01 8.449566e-01 8.612439e-01 8.852193e-01 8.989794e-01 9.205348e-01 9.315449e-01 9.503857e-01 9.583944e-01 9.741901e-01 9.789248e-01 9.913168e-01 9.924924e-01 1.001104e+00 9.984347e-01 1.002883e+00 9.960956e-01 9.960080e-01 9.848550e-01 9.798857e-01 9.641599e-01 9.540070e-01 9.335553e-01 9.179780e-01 8.927139e-01 8.715481e-01 8.414611e-01 8.146319e-01 7.797955e-01 7.473260e-01 7.079013e-01 6.699176e-01 6.261545e-01 5.828860e-01 5.351213e-01 4.868985e-01 4.355516e-01 3.828008e-01 3.283679e-01 2.716050e-01 2.146535e-01 1.544776e-01 9.563951e-02 3.272693e-02 -2.730614e-02 -9.220626e-02 -1.526880e-01 -2.187582e-01 -2.788922e-01 -3.452513e-01 -4.041963e-01 -4.699055e-01 -5.267829e-01 -5.908553e-01 -6.447599e-01 -7.061745e-01 -7.561902e-01 -8.139122e-01 -8.591330e-01 -9.121396e-01 -9.516966e-01 -9.990103e-01 -1.032104e+00 -1.072829e+00 -1.098765e+00 -1.132128e+00 -1.150355e+00 -1.175743e+00 -1.185885e+00 -1.202880e+00 -1.204765e+00 -1.213170e+00 -1.206848e+00 -1.206701e+00 -1.192446e+00 -1.184017e+00 -1.162318e+00 -1.146093e+00 -1.117629e+00 -1.094282e+00 -1.059880e+00 -1.030229e+00 -9.908221e-01 -9.557828e-01 -9.123586e-01 -8.728914e-01 -8.264426e-01 -7.835059e-01 -7.349868e-01 -6.894953e-01 -6.397859e-01 -5.925779e-01 -5.424587e-01 -4.942741e-01 -4.444109e-01 -3.958791e-01 -3.468175e-01 -2.984545e-01 -2.506227e-01 -2.028359e-01 -1.565535e-01 -1.096511e-01 -6.514198e-02 -1.934620e-02 2.324568e-02 6.778394e-02 1.083790e-01 1.515652e-01 1.901322e-01 2.319138e-01 2.684553e-01 3.088083e-01 3.433475e-01 3.822647e-01 4.148336e-01 4.523137e-01 4.829430e-01 5.189812e-01 5.476919e-01 5.822714e-01 6.090667e-01 6.421512e-01 6.670111e-01 6.985382e-01 7.214134e-01 
7.594887e-01 7.806221e-01 8.090955e-01 8.281013e-01 8.546863e-01 8.714085e-01 8.958909e-01 9.101341e-01 9.322535e-01 9.437857e-01 9.632376e-01 9.717941e-01 9.882341e-01 9.935256e-01 1.006576e+00 1.008298e+00 1.017560e+00 1.015404e+00 1.020470e+00 1.014139e+00 1.014607e+00 1.003829e+00 9.993256e-01 9.838702e-01 9.740661e-01 9.537592e-01 9.383885e-01 9.131255e-01 8.920036e-01 8.617606e-01 8.347974e-01 7.996385e-01 7.668479e-01 7.269301e-01 6.884350e-01 6.440086e-01 6.000408e-01 5.514466e-01 5.023434e-01 4.500083e-01 3.962059e-01 3.406359e-01 2.826622e-01 2.244361e-01 1.629032e-01 1.026658e-01 3.826476e-02 -2.327810e-02 -8.978240e-02 -1.518678e-01 -2.196394e-01 -2.814511e-01 -3.495864e-01 -4.102587e-01 -4.777908e-01 -5.364149e-01 -6.023226e-01 -6.579565e-01 -7.211771e-01 -7.728613e-01 -8.323115e-01 -8.790907e-01 -9.336943e-01 -9.746467e-01 -1.023370e+00 -1.057643e+00 -1.099536e+00 -1.126384e+00 -1.160624e+00 -1.179453e+00 -1.205390e+00 -1.215794e+00 -1.232985e+00 -1.234778e+00 -1.243019e+00 -1.236254e+00 -1.235595e+00 -1.220570e+00 -1.211311e+00 -1.188556e+00 -1.171231e+00 -1.141477e+00 -1.116820e+00 -1.080962e+00 -1.049858e+00 -1.008897e+00 -9.723295e-01 -9.273216e-01 -8.863183e-01 -8.383185e-01 -7.938956e-01 -7.439104e-01 -6.970298e-01 -6.459792e-01 -5.975135e-01 -5.462048e-01 -4.969153e-01 -4.460279e-01 -3.965532e-01 -3.466353e-01 -2.974899e-01 -2.489626e-01 -2.005443e-01 -1.537131e-01 -1.063146e-01 -6.138476e-02 -1.520880e-02 2.769730e-02 7.252098e-02 1.133462e-01 1.567447e-01 1.954799e-01 2.374218e-01 2.740907e-01 3.145718e-01 3.492169e-01 3.882485e-01 4.209192e-01 4.585164e-01 4.892590e-01 5.254321e-01 5.542806e-01 5.890257e-01 6.159947e-01 6.492868e-01 6.743651e-01 7.061511e-01 7.292959e-01 
7.675244e-01 7.888106e-01 8.175991e-01 8.368244e-01 8.638033e-01 8.808100e-01 9.057647e-01 9.203521e-01 9.430180e-01 9.549444e-01 9.750078e-01 9.839952e-01 1.001098e+00 1.006839e+00 1.020585e+00 1.022756e+00 1.032721e+00 1.030990e+00 1.036740e+00 1.030784e+00 1.031889e+00 1.021412e+00 1.017466e+00 1.002216e+00 9.928590e-01 9.726390e-01 9.575795e-01 9.322686e-01 9.112990e-01 8.808610e-01 8.538744e-01 8.183668e-01 7.853671e-01 7.449453e-01 7.060515e-01 6.609689e-01 6.164145e-01 5.670193e-01 5.171472e-01 4.638755e-01 4.091302e-01 3.524987e-01 2.934168e-01 2.340147e-01 1.712172e-01 1.096992e-01 4.388480e-02 -1.903420e-02 -8.709235e-02 -1.506403e-01 -2.200968e-01 -2.834467e-01 -3.533849e-01 -4.156567e-01 -4.850909e-01 -5.453557e-01 -6.132370e-01 -6.705248e-01 -7.357527e-01 -7.890662e-01 -8.505081e-01 -8.988443e-01 -9.553640e-01 -9.977440e-01 -1.048239e+00 -1.083746e+00 -1.127192e+00 -1.155016e+00 -1.190516e+00 -1.210002e+00 -1.236840e+00 -1.247530e+00 -1.265213e+00 -1.266889e+00 -1.275182e+00 -1.267887e+00 -1.266835e+00 -1.250883e+00 -1.240810e+00 -1.216773e+00 -1.198264e+00 -1.166939e+00 -1.140797e+00 -1.103159e+00 -1.070356e+00 -1.027498e+00 -9.891112e-01 -9.421784e-01 -8.993251e-01 -8.494557e-01 -8.032338e-01 -7.515037e-01 -7.029416e-01 -6.503238e-01 -6.003430e-01 -5.476787e-01 -4.970709e-01 -4.450564e-01 -3.944735e-01 -3.436576e-01 -2.936130e-01 -2.444050e-01 -1.952840e-01 -1.479686e-01 -1.000434e-01 -5.479907e-02 -8.247535e-03 3.483298e-02 7.990845e-02 1.207982e-01 1.643523e-01 2.030715e-01 2.450992e-01 2.816987e-01 3.222207e-01 3.567675e-01 3.958176e-01 4.283830e-01 4.659969e-01 4.966459e-01 5.328521e-01 5.616350e-01 5.964460e-01 6.233907e-01 6.567956e-01 6.819015e-01 7.138591e-01 7.370917e-01 
7.775623e-01 7.992326e-01 8.284878e-01 8.481743e-01 8.757079e-01 8.932508e-01 9.188469e-01 9.340387e-01 9.574264e-01 9.700136e-01 9.908676e-01 1.000556e+00 1.018499e+00 1.024960e+00 1.039574e+00 1.042455e+00 1.053286e+00 1.052228e+00 1.058807e+00 1.053456e+00 1.055315e+00 1.045341e+00 1.042036e+00 1.027154e+00 1.018289e+00 9.982763e-01 9.835235e-01 9.582346e-01 9.373592e-01 9.067397e-01 8.796147e-01 8.437106e-01 8.103280e-01 7.692899e-01 7.297652e-01 6.838480e-01 6.384193e-01 5.879776e-01 5.369977e-01 4.824784e-01 4.264057e-01 3.683385e-01 3.077255e-01 2.467141e-01 1.821981e-01 1.189125e-01 5.120895e-02 -1.361947e-02 -8.371977e-02 -1.493005e-01 -2.209318e-01 -2.864156e-01 -3.586358e-01 -4.231145e-01 -4.949049e-01 -5.574134e-01 -6.276827e-01 -6.872050e-01 -7.547995e-01 -8.102821e-01 -8.740053e-01 -9.243799e-01 -9.830228e-01 -1.027238e+00 -1.079621e+00 -1.116686e+00 -1.161707e+00 -1.190740e+00 -1.227433e+00 -1.247718e+00 -1.275308e+00 -1.286343e+00 -1.304301e+00 -1.305843e+00 -1.313923e+00 -1.306020e+00 -1.304282e+00 -1.287277e+00 -1.276087e+00 -1.250609e+00 -1.230615e+00 -1.197539e+00 -1.169630e+00 -1.130022e+00 -1.095264e+00 -1.050314e+00 -1.009880e+00 -9.608290e-01 -9.159294e-01 -8.640004e-01 -8.158123e-01 -7.621529e-01 -7.117681e-01 -6.574037e-01 -6.057888e-01 -5.515945e-01 -4.995676e-01 -4.462549e-01 -3.944770e-01 -3.425946e-01 -2.915741e-01 -2.415186e-01 -1.916248e-01 -1.436590e-01 -9.514081e-02 -4.941562e-02 -2.423235e-03 4.099899e-02 8.639261e-02 1.275159e-01 1.712948e-01 2.101692e-01 2.523564e-01 2.890608e-01 3.297030e-01 3.643297e-01 4.034845e-01 4.361272e-01 4.738519e-01 5.045957e-01 5.409376e-01 5.698498e-01 6.048384e-01 6.319616e-01 6.656007e-01 6.909459e-01 7.232066e-01 7.467480e-01 
7.873513e-01 8.092296e-01 8.388785e-01 8.588622e-01 8.868935e-01 9.048208e-01 9.310192e-01 9.466760e-01 9.707656e-01 9.838865e-01 1.005531e+00 1.015804e+00 1.034609e+00 1.041684e+00 1.057205e+00 1.060702e+00 1.072457e+00 1.071985e+00 1.079468e+00 1.074640e+00 1.077342e+00 1.067797e+00 1.065233e+00 1.050652e+00 1.042385e+00 1.022518e+00 1.008184e+00 9.828619e-01 9.621962e-01 9.313486e-01 9.042020e-01 8.678665e-01 8.342188e-01 7.925450e-01 7.525089e-01 7.057574e-01 6.595754e-01 6.081119e-01 5.561474e-01 5.004329e-01 4.431572e-01 3.837367e-01 3.217156e-01 2.592072e-01 1.930897e-01 1.281758e-01 5.868692e-02 -7.890717e-03 -7.995224e-02 -1.473938e-01 -2.211535e-01 -2.885992e-01 -3.631027e-01 -4.296301e-01 -5.038387e-01 -5.684606e-01 -6.412518e-01 -7.029195e-01 -7.730940e-01 -8.307075e-01 -8.970069e-01 -9.494362e-01 -1.010573e+00 -1.056691e+00 -1.111393e+00 -1.150122e+00 -1.197186e+00 -1.227553e+00 -1.265910e+00 -1.287109e+00 -1.315893e+00 -1.327349e+00 -1.345954e+00 -1.347376e+00 -1.355513e+00 -1.346930e+00 -1.344650e+00 -1.326428e+00 -1.314130e+00 -1.286956e+00 -1.265357e+00 -1.230197e+00 -1.200288e+00 -1.158322e+00 -1.121290e+00 -1.073834e+00 -1.030983e+00 -9.794031e-01 -9.320660e-01 -8.776993e-01 -8.271639e-01 -7.712499e-01 -7.186956e-01 -6.623275e-01 -6.087823e-01 -5.528766e-01 -4.991939e-01 -4.444789e-01 -3.913314e-01 -3.383513e-01 -2.862402e-01 -2.353710e-01 -1.846436e-01 -1.361164e-01 -8.699083e-02 -4.091821e-02 6.491257e-03 5.008767e-02 9.574548e-02 1.369101e-01 1.808368e-01 2.196577e-01 2.619106e-01 2.985012e-01 3.391583e-01 3.736418e-01 4.127888e-01 4.452857e-01 4.830050e-01 5.136235e-01 5.499851e-01 5.788123e-01 6.138656e-01 6.409604e-01 6.747268e-01 7.001135e-01 7.325791e-01 7.562421e-01 
7.990671e-01 8.213868e-01 8.515862e-01 8.721133e-01 9.008112e-01 9.193825e-01 9.463632e-01 9.627570e-01 9.877383e-01 1.001676e+00 1.024307e+00 1.035456e+00 1.055323e+00 1.063305e+00 1.079933e+00 1.084336e+00 1.097205e+00 1.097599e+00 1.106159e+00 1.102116e+00 1.105810e+00 1.096926e+00 1.095216e+00 1.081132e+00 1.073532e+00 1.053958e+00 1.040059e+00 1.014798e+00 9.942976e-01 9.632546e-01 9.359772e-01 8.991759e-01 8.650869e-01 8.226721e-01 7.818817e-01 7.341175e-01 6.868762e-01 6.341385e-01 5.808252e-01 5.235903e-01 4.646959e-01 4.035263e-01 3.396374e-01 2.751693e-01 2.069549e-01 1.398885e-01 6.809184e-02 -8.136544e-04 -7.537597e-02 -1.453021e-01 -2.217356e-01 -2.918002e-01 -3.691246e-01 -4.383751e-01 -5.155160e-01 -5.829245e-01 -6.587102e-01 -7.231735e-01 -7.963394e-01 -8.566880e-01 -9.258942e-01 -9.809138e-01 -1.044778e+00 -1.093246e+00 -1.150390e+00 -1.191127e+00 -1.240243e+00 -1.272178e+00 -1.312098e+00 -1.334338e+00 -1.364114e+00 -1.376018e+00 -1.394992e+00 -1.396234e+00 -1.404096e+00 -1.394707e+00 -1.391526e+00 -1.371912e+00 -1.358142e+00 -1.329066e+00 -1.305516e+00 -1.268051e+00 -1.235824e+00 -1.191276e+00 -1.151691e+00 -1.101510e+00 -1.056001e+00 -1.001682e+00 -9.517084e-01 -8.947030e-01 -8.416575e-01 -7.832982e-01 -7.284426e-01 -6.698890e-01 -6.143071e-01 -5.565153e-01 -5.010899e-01 -4.448030e-01 -3.902135e-01 -3.359696e-01 -2.827050e-01 -2.308581e-01 -1.792400e-01 -1.299881e-01 -8.020051e-02 -3.361720e-02 1.426430e-02 5.819902e-02 1.041783e-01 1.455499e-01 1.896858e-01 2.286211e-01 2.710067e-01 3.076542e-01 3.484000e-01 3.829145e-01 4.221353e-01 4.546653e-01 4.924697e-01 5.231475e-01 5.596287e-01 5.885624e-01 6.237906e-01 6.510569e-01 6.850717e-01 7.107099e-01 7.435130e-01 7.675185e-01 
8.104240e-01 8.330045e-01 8.636712e-01 8.845750e-01 9.138741e-01 9.329363e-01 9.606542e-01 9.776458e-01 1.003495e+00 1.018123e+00 1.041742e+00 1.053652e+00 1.074604e+00 1.083390e+00 1.101171e+00 1.106387e+00 1.120436e+00 1.121612e+00 1.131333e+00 1.127997e+00 1.132782e+00 1.124484e+00 1.123740e+00 1.110081e+00 1.103267e+00 1.083920e+00 1.070578e+00 1.045314e+00 1.025102e+00 9.938064e-01 9.665217e-01 9.292070e-01 8.948004e-01 8.516119e-01 8.101927e-01 7.614045e-01 7.132334e-01 6.592385e-01 6.047120e-01 5.460077e-01 4.856373e-01 4.228079e-01 3.571997e-01 2.909009e-01 2.207392e-01 1.516864e-01 7.772464e-02 6.687611e-03 -7.025164e-02 -1.424471e-01 -2.214647e-01 -2.939292e-01 -3.740367e-01 -4.458067e-01 -5.259129e-01 -5.959402e-01 -6.748417e-01 -7.419883e-01 -8.183690e-01 -8.814115e-01 -9.538569e-01 -1.011505e+00 -1.078533e+00 -1.129467e+00 -1.189579e+00 -1.232502e+00 -1.284254e+00 -1.317967e+00 -1.360051e+00 -1.383537e+00 -1.414872e+00 -1.427384e+00 -1.447205e+00 -1.448340e+00 -1.456271e+00 -1.446033e+00 -1.442129e+00 -1.420949e+00 -1.405706e+00 -1.374428e+00 -1.348752e+00 -1.308574e+00 -1.273711e+00 -1.226100e+00 -1.183537e+00 -1.130116e+00 -1.081467e+00 -1.023903e+00 -9.707945e-01 -9.106905e-01 -8.546621e-01 -7.934706e-01 -7.358961e-01 -6.748608e-01 -6.168980e-01 -5.570221e-01 -4.995917e-01 -4.416314e-01 -3.854187e-01 -3.298979e-01 -2.753730e-01 -2.226110e-01 -1.700597e-01 -1.202073e-01 -6.976751e-02 -2.284454e-02 2.545813e-02 6.952647e-02 1.157458e-01 1.570974e-01 2.013392e-01 2.401489e-01 2.825487e-01 3.190075e-01 3.597139e-01 3.940135e-01 4.331748e-01 4.654953e-01 5.032500e-01 5.337509e-01 5.702186e-01 5.990311e-01 6.343055e-01 6.615259e-01 6.956676e-01 7.213510e-01 7.543803e-01 7.785346e-01 
8.236078e-01 8.466835e-01 8.779796e-01 8.995108e-01 9.295885e-01 9.494099e-01 9.780574e-01 9.959324e-01 1.022857e+00 1.038477e+00 1.063302e+00 1.076289e+00 1.098553e+00 1.108468e+00 1.127631e+00 1.133986e+00 1.149442e+00 1.151718e+00 1.162815e+00 1.160487e+00 1.166552e+00 1.159115e+00 1.159489e+00 1.146490e+00 1.140565e+00 1.121629e+00 1.108888e+00 1.083746e+00 1.063798e+00 1.032306e+00 1.004913e+00 9.670682e-01 9.321647e-01 8.881070e-01 8.458026e-01 7.958131e-01 7.463826e-01 6.908706e-01 6.347347e-01 5.742193e-01 5.119180e-01 4.470077e-01 3.791751e-01 3.105484e-01 2.378927e-01 1.662847e-01 8.957838e-02 1.577588e-02 -6.414319e-02 -1.392982e-01 -2.215149e-01 -2.971136e-01 -3.806172e-01 -4.556677e-01 -5.393320e-01 -6.127439e-01 -6.953116e-01 -7.658849e-01 -8.459633e-01 -9.123909e-01 -9.884643e-01 -1.049350e+00 -1.119813e+00 -1.173711e+00 -1.236927e+00 -1.282407e+00 -1.336786e+00 -1.372512e+00 -1.416610e+00 -1.441443e+00 -1.474065e+00 -1.487162e+00 -1.507465e+00 -1.508373e+00 -1.515948e+00 -1.504666e+00 -1.499591e+00 -1.476602e+00 -1.459446e+00 -1.425698e+00 -1.397488e+00 -1.354325e+00 -1.316465e+00 -1.265526e+00 -1.219678e+00 -1.162770e+00 -1.110728e+00 -1.049690e+00 -9.932481e-01 -9.298335e-01 -8.706691e-01 -8.064496e-01 -7.460396e-01 -6.823400e-01 -6.219083e-01 -5.597752e-01 -5.002723e-01 -4.404724e-01 -3.825829e-01 -3.256229e-01 -2.697926e-01 -2.159556e-01 -1.624300e-01 -1.118179e-01 -6.068546e-02 -1.326346e-02 3.550283e-02 7.986508e-02 1.263710e-01 1.678644e-01 2.122641e-01 2.511119e-01 2.935851e-01 3.300214e-01 3.707556e-01 4.050098e-01 4.441879e-01 4.764729e-01 5.142637e-01 5.447674e-01 5.813179e-01 6.101961e-01 6.456245e-01 6.729948e-01 7.073835e-01 7.333189e-01 7.667075e-01 7.912304e-01 
8.362945e-01 8.596798e-01 8.915095e-01 9.134981e-01 9.442788e-01 9.647051e-01 9.942295e-01 1.012849e+00 1.040821e+00 1.057310e+00 1.083339e+00 1.097294e+00 1.120895e+00 1.131841e+00 1.152439e+00 1.159845e+00 1.176785e+00 1.180080e+00 1.192650e+00 1.191255e+00 1.198714e+00 1.192065e+00 1.193683e+00 1.181272e+00 1.176368e+00 1.157770e+00 1.145764e+00 1.120670e+00 1.101117e+00 1.069358e+00 1.041986e+00 1.003545e+00 9.682722e-01 9.232927e-01 8.802320e-01 8.290114e-01 7.784570e-01 7.214310e-01 6.638328e-01 6.015518e-01 5.374822e-01 4.705861e-01 4.007078e-01 3.299013e-01 2.549427e-01 1.809796e-01 1.017229e-01 2.539932e-02 -5.731669e-02 -1.351563e-01 -2.204203e-01 -2.988677e-01 -3.856708e-01 -4.637317e-01 -5.509396e-01 -6.275101e-01 -7.138385e-01 -7.876870e-01 -8.716896e-01 -9.414503e-01 -1.021525e+00 -1.085711e+00 -1.160131e+00 -1.217174e+00 -1.284145e+00 -1.332458e+00 -1.390210e+00 -1.428284e+00 -1.475177e+00 -1.501697e+00 -1.536350e+00 -1.550315e+00 -1.571732e+00 -1.572574e+00 -1.580246e+00 -1.567919e+00 -1.561896e+00 -1.536913e+00 -1.517822e+00 -1.481237e+00 -1.450240e+00 -1.403577e+00 -1.362274e+00 -1.307393e+00 -1.257683e+00 -1.196632e+00 -1.140556e+00 -1.075406e+00 -1.014986e+00 -9.476915e-01 -8.847968e-01 -8.170833e-01 -7.533307e-01 -6.866245e-01 -6.233238e-01 -5.587204e-01 -4.968575e-01 -4.351272e-01 -3.753797e-01 -3.169979e-01 -2.597738e-01 -2.049676e-01 -1.504551e-01 -9.925690e-02 -4.747765e-02 2.214629e-04 4.936309e-02 9.376600e-02 1.404408e-01 1.818050e-01 2.262259e-01 2.648336e-01 3.072316e-01 3.433673e-01 3.839743e-01 4.179100e-01 4.569474e-01 4.889322e-01 5.266024e-01 5.568546e-01 5.933346e-01 6.220362e-01 6.574712e-01 6.847620e-01 7.192590e-01 7.452309e-01 7.788516e-01 8.035420e-01 
8.506782e-01 8.746071e-01 9.071372e-01 9.298376e-01 9.615070e-01 9.828151e-01 1.013422e+00 1.033087e+00 1.062332e+00 1.080013e+00 1.107492e+00 1.122757e+00 1.147957e+00 1.160294e+00 1.182598e+00 1.191423e+00 1.210120e+00 1.214802e+00 1.229109e+00 1.229000e+00 1.238095e+00 1.232560e+00 1.235625e+00 1.224087e+00 1.220354e+00 1.202325e+00 1.191134e+00 1.166254e+00 1.147096e+00 1.115158e+00 1.087717e+00 1.048686e+00 1.012861e+00 9.668770e-01 9.227865e-01 8.701596e-01 8.181223e-01 7.593139e-01 6.998176e-01 6.354108e-01 5.690703e-01 4.997382e-01 4.272549e-01 3.537318e-01 2.758631e-01 1.989246e-01 1.164707e-01 3.692715e-02 -4.926419e-02 -1.305586e-01 -2.195699e-01 -3.016958e-01 -3.925060e-01 -4.744482e-01 -5.658943e-01 -6.465095e-01 -7.372532e-01 -8.152438e-01 -9.037519e-01 -9.776539e-01 -1.062201e+00 -1.130396e+00 -1.209097e+00 -1.269855e+00 -1.340734e+00 -1.392287e+00 -1.453377e+00 -1.494030e+00 -1.543502e+00 -1.571768e+00 -1.608081e+00 -1.622823e+00 -1.644866e+00 -1.645436e+00 -1.652651e+00 -1.638990e+00 -1.631451e+00 -1.604140e+00 -1.582572e+00 -1.542805e+00 -1.508534e+00 -1.458034e+00 -1.412875e+00 -1.353739e+00 -1.299835e+00 -1.234358e+00 -1.173991e+00 -1.104478e+00 -1.039891e+00 -9.684946e-01 -9.017340e-01 -8.303289e-01 -7.631408e-01 -6.932477e-01 -6.270159e-01 -5.597742e-01 -4.955096e-01 -4.316886e-01 -3.700540e-01 -3.100940e-01 -2.514532e-01 -1.955232e-01 -1.400023e-01 -8.806378e-02 -3.561422e-02 1.251682e-02 6.206167e-02 1.066611e-01 1.535389e-01 1.949313e-01 2.394150e-01 2.779416e-01 3.203145e-01 3.563107e-01 3.968502e-01 4.306313e-01 4.695978e-01 5.014500e-01 5.390802e-01 5.692540e-01 6.057556e-01 6.344609e-01 6.700070e-01 6.974081e-01 7.321314e-01 7.583416e-01 7.923271e-01 8.174016e-01 