# vtk DataFile Version 2.0
Comment goes here
ASCII

DATASET STRUCTURED_POINTS
FIELD FieldData 1
TIME 1 1 double
0.06500000
DIMENSIONS    128   128   1

ORIGIN    0.000   0.000   0.000
SPACING   0.039062 0.039062   1.000

POINT_DATA   16384
SCALARS uX double
LOOKUP_TABLE default

3.178357e-05 3.189705e-02 6.333547e-02 9.474407e-02 1.255014e-01 1.561644e-01 1.859622e-01 2.156096e-01 2.441846e-01 2.725644e-01 2.996675e-01 3.265448e-01 3.519412e-01 3.770970e-01 4.005661e-01 4.237975e-01 4.451334e-01 4.662539e-01 4.852670e-01 5.041071e-01 5.206263e-01 5.370348e-01 5.509096e-01 5.647558e-01 5.758592e-01 5.870344e-01 5.952652e-01 6.036849e-01 6.089707e-01 6.145759e-01 6.168744e-01 6.196333e-01 6.189340e-01 6.188422e-01 6.151666e-01 6.122475e-01 6.056487e-01 5.999525e-01 5.905140e-01 5.821169e-01 5.699506e-01 5.589523e-01 5.441960e-01 5.307180e-01 5.135325e-01 4.977155e-01 4.782814e-01 4.602827e-01 4.387977e-01 4.187889e-01 3.954648e-01 3.736292e-01 3.486896e-01 3.252201e-01 2.988980e-01 2.739956e-01 2.465314e-01 2.204030e-01 1.920428e-01 1.648999e-01 1.358936e-01 1.079509e-01 7.855006e-02 5.002424e-02 2.048025e-02 -8.411005e-03 -3.784921e-02 -6.688794e-02 -9.597598e-02 -1.249442e-01 -1.534441e-01 -1.821234e-01 -2.098053e-01 -2.379760e-01 -2.646183e-01 -2.920580e-01 -3.174476e-01 -3.439293e-01 -3.678604e-01 -3.931503e-01 -4.154225e-01 -4.392788e-01 -4.596945e-01 -4.818667e-01 -5.002297e-01 -5.204592e-01 -5.365731e-01 -5.545961e-01 -5.682649e-01 -5.838174e-01 -5.948481e-01 -6.076728e-01 -6.158799e-01 -6.257351e-01 -6.309481e-01 -6.376182e-01 -6.396900e-01 -6.429960e-01 -6.418126e-01 -6.416228e-01 -6.371128e-01 -6.333518e-01 -6.254943e-01 -6.181497e-01 -6.069802e-01 -5.961066e-01 -5.817196e-01 -5.674387e-01 -5.499872e-01 -5.324847e-01 -5.121760e-01 -4.916947e-01 -4.687840e-01 -4.456155e-01 -4.203970e-01 -3.948701e-01 -3.676674e-01 -3.401371e-01 -3.112929e-01 -2.821295e-01 -2.519962e-01 -2.215748e-01 -1.905064e-01 -1.591983e-01 -1.275435e-01 -9.570983e-02 -6.380714e-02 -3.179371e-02 
8.832091e-04 3.283038e-02 6.431859e-02 9.579213e-02 1.265889e-01 1.573017e-01 1.871303e-01 2.168142e-01 2.454129e-01 2.738178e-01 3.009392e-01 3.278318e-01 3.532422e-01 3.784051e-01 4.018848e-01 4.251165e-01 4.464604e-01 4.675753e-01 4.865943e-01 5.054235e-01 5.219467e-01 5.383398e-01 5.522168e-01 5.660431e-01 5.771468e-01 5.882980e-01 5.965274e-01 6.049187e-01 6.102012e-01 6.157738e-01 6.180675e-01 6.207894e-01 6.200838e-01 6.199507e-01 6.162679e-01 6.133031e-01 6.066967e-01 6.009508e-01 5.915050e-01 5.830543e-01 5.708816e-01 5.598265e-01 5.450655e-01 5.315282e-01 5.143402e-01 4.984621e-01 4.790282e-01 4.609676e-01 4.394858e-01 4.194152e-01 3.960973e-01 3.742008e-01 3.492702e-01 3.257418e-01 2.994309e-01 2.744721e-01 2.470207e-01 2.208389e-01 1.924919e-01 1.652987e-01 1.363047e-01 1.083146e-01 7.892367e-02 5.035259e-02 2.081430e-02 -8.121294e-03 -3.756006e-02 -6.664389e-02 -9.574103e-02 -1.247572e-01 -1.532773e-01 -1.820098e-01 -2.097254e-01 -2.379573e-01 -2.646493e-01 -2.921605e-01 -3.176181e-01 -3.441835e-01 -3.682023e-01 -3.935893e-01 -4.159692e-01 -4.399358e-01 -4.604784e-01 -4.827719e-01 -5.012783e-01 -5.216363e-01 -5.379054e-01 -5.560585e-01 -5.698877e-01 -5.855645e-01 -5.967527e-01 -6.096876e-01 -6.180406e-01 -6.279833e-01 -6.333217e-01 -6.400488e-01 -6.422177e-01 -6.455441e-01 -6.444236e-01 -6.442137e-01 -6.397290e-01 -6.359064e-01 -6.280363e-01 -6.205907e-01 -6.093728e-01 -5.983632e-01 -5.838966e-01 -5.694513e-01 -5.518952e-01 -5.342076e-01 -5.137766e-01 -4.930980e-01 -4.700547e-01 -4.466844e-01 -4.213300e-01 -3.956044e-01 -3.682682e-01 -3.405485e-01 -3.115781e-01 -2.822391e-01 -2.519905e-01 -2.214105e-01 -1.902397e-01 -1.587921e-01 -1.270487e-01 -9.509516e-02 -6.311771e-02 -3.100393e-02 
2.991565e-04 3.231870e-02 6.390412e-02 9.545722e-02 1.263537e-01 1.571517e-01 1.870812e-01 2.168546e-01 2.455540e-01 2.740514e-01 3.012719e-01 3.282586e-01 3.537654e-01 3.790226e-01 4.025945e-01 4.259193e-01 4.473499e-01 4.685552e-01 4.876539e-01 5.065695e-01 5.231639e-01 5.396379e-01 5.535763e-01 5.674767e-01 5.786306e-01 5.898481e-01 5.981153e-01 6.065643e-01 6.118713e-01 6.174924e-01 6.197962e-01 6.225572e-01 6.218472e-01 6.217437e-01 6.180415e-01 6.150972e-01 6.084566e-01 6.027224e-01 5.932279e-01 5.847807e-01 5.725455e-01 5.614863e-01 5.466496e-01 5.331011e-01 5.158252e-01 4.999293e-01 4.803963e-01 4.623117e-01 4.407207e-01 4.206201e-01 3.971842e-01 3.752518e-01 3.501956e-01 3.266257e-01 3.001832e-01 2.751772e-01 2.475899e-01 2.213557e-01 1.928705e-01 1.656202e-01 1.364880e-01 1.084370e-01 7.891042e-02 5.027576e-02 2.060727e-02 -8.392976e-03 -3.795339e-02 -6.710114e-02 -9.630817e-02 -1.253856e-01 -1.540006e-01 -1.827897e-01 -2.105823e-01 -2.388642e-01 -2.656131e-01 -2.931664e-01 -3.186590e-01 -3.452575e-01 -3.692889e-01 -3.946998e-01 -4.170706e-01 -4.410523e-01 -4.615661e-01 -4.838677e-01 -5.023287e-01 -5.226901e-01 -5.389019e-01 -5.570570e-01 -5.708223e-01 -5.865034e-01 -5.976266e-01 -6.105721e-01 -6.188644e-01 -6.288274e-01 -6.341139e-01 -6.408734e-01 -6.430020e-01 -6.463738e-01 -6.452261e-01 -6.450739e-01 -6.405742e-01 -6.368192e-01 -6.289439e-01 -6.215718e-01 -6.103550e-01 -5.994204e-01 -5.849569e-01 -5.705831e-01 -5.530279e-01 -5.354037e-01 -5.149674e-01 -4.943404e-01 -4.712825e-01 -4.479494e-01 -4.225691e-01 -3.968645e-01 -3.694904e-01 -3.417750e-01 -3.127545e-01 -2.834035e-01 -2.530933e-01 -2.224861e-01 -1.912433e-01 -1.597547e-01 -1.279306e-01 -9.592391e-02 -6.385867e-02 -3.168126e-02 
1.448233e-03 3.370247e-02 6.548314e-02 9.724389e-02 1.283174e-01 1.592983e-01 1.893886e-01 2.193227e-01 2.481688e-01 2.768070e-01 3.041620e-01 3.312719e-01 3.569020e-01 3.822666e-01 4.059513e-01 4.293687e-01 4.509015e-01 4.721852e-01 4.913752e-01 5.103549e-01 5.270285e-01 5.435521e-01 5.575562e-01 5.714910e-01 5.826959e-01 5.939315e-01 6.022335e-01 6.106837e-01 6.160084e-01 6.216129e-01 6.239169e-01 6.266430e-01 6.259156e-01 6.257589e-01 6.220225e-01 6.190070e-01 6.123165e-01 6.064940e-01 5.969356e-01 5.883843e-01 5.760731e-01 5.648955e-01 5.499731e-01 5.362939e-01 5.189246e-01 5.028880e-01 4.832560e-01 4.650226e-01 4.433288e-01 4.230735e-01 3.995322e-01 3.774415e-01 3.522782e-01 3.285481e-01 3.019973e-01 2.768309e-01 2.491343e-01 2.227408e-01 1.941451e-01 1.667374e-01 1.374932e-01 1.092872e-01 7.964658e-02 5.085903e-02 2.107379e-02 -8.078090e-03 -3.775900e-02 -6.705874e-02 -9.639138e-02 -1.256235e-01 -1.543711e-01 -1.833208e-01 -2.112554e-01 -2.397073e-01 -2.666103e-01 -2.943468e-01 -3.200087e-01 -3.468069e-01 -3.710257e-01 -3.966550e-01 -4.192332e-01 -4.434524e-01 -4.641940e-01 -4.867501e-01 -5.054573e-01 -5.260849e-01 -5.425563e-01 -5.609809e-01 -5.750110e-01 -5.909534e-01 -6.023357e-01 -6.155207e-01 -6.240529e-01 -6.342190e-01 -6.397121e-01 -6.466241e-01 -6.489126e-01 -6.523742e-01 -6.513284e-01 -6.511946e-01 -6.467311e-01 -6.429187e-01 -6.350107e-01 -6.275057e-01 -6.161885e-01 -6.050504e-01 -5.904245e-01 -5.757856e-01 -5.580148e-01 -5.400757e-01 -5.193820e-01 -4.984038e-01 -4.750592e-01 -4.513526e-01 -4.256685e-01 -3.995815e-01 -3.718978e-01 -3.438031e-01 -3.144767e-01 -2.847593e-01 -2.541545e-01 -2.232012e-01 -1.916806e-01 -1.598713e-01 -1.277893e-01 -9.549005e-02 -6.318825e-02 -3.074751e-02 
1.118915e-03 3.360138e-02 6.562772e-02 9.761399e-02 1.289277e-01 1.601303e-01 1.904543e-01 2.206053e-01 2.496778e-01 2.785275e-01 3.061003e-01 3.334151e-01 3.592532e-01 3.848150e-01 4.086962e-01 4.323015e-01 4.540172e-01 4.754775e-01 4.948342e-01 5.139772e-01 5.307988e-01 5.474698e-01 5.616002e-01 5.756646e-01 5.869713e-01 5.983164e-01 6.066935e-01 6.152314e-01 6.206024e-01 6.262715e-01 6.285916e-01 6.313588e-01 6.306166e-01 6.304774e-01 6.266951e-01 6.236743e-01 6.169076e-01 6.110581e-01 6.013946e-01 5.927960e-01 5.803527e-01 5.691095e-01 5.540300e-01 5.402687e-01 5.227200e-01 5.065864e-01 4.867553e-01 4.684118e-01 4.465014e-01 4.261242e-01 4.023516e-01 3.801283e-01 3.547213e-01 3.308488e-01 3.040444e-01 2.787270e-01 2.507694e-01 2.242170e-01 1.953560e-01 1.677829e-01 1.382720e-01 1.098954e-01 7.999056e-02 5.102904e-02 2.098596e-02 -8.341371e-03 -3.826939e-02 -6.774405e-02 -9.730873e-02 -1.267133e-01 -1.556737e-01 -1.847917e-01 -2.129164e-01 -2.415312e-01 -2.685992e-01 -2.964922e-01 -3.222927e-01 -3.492411e-01 -3.735721e-01 -3.993456e-01 -4.220114e-01 -4.463697e-01 -4.671772e-01 -4.898681e-01 -5.086237e-01 -5.293833e-01 -5.458901e-01 -5.644447e-01 -5.785018e-01 -5.945732e-01 -6.059778e-01 -6.192906e-01 -6.278430e-01 -6.381347e-01 -6.436463e-01 -6.506791e-01 -6.529831e-01 -6.565567e-01 -6.555199e-01 -6.554839e-01 -6.510181e-01 -6.472831e-01 -6.393557e-01 -6.319015e-01 -6.205424e-01 -6.094232e-01 -5.947282e-01 -5.800724e-01 -5.622025e-01 -5.442090e-01 -5.233853e-01 -5.023158e-01 -4.788113e-01 -4.549789e-01 -4.291081e-01 -4.028650e-01 -3.749719e-01 -3.466960e-01 -3.171425e-01 -2.872245e-01 -2.563799e-01 -2.252121e-01 -1.934437e-01 -1.614111e-01 -1.290775e-01 -9.655038e-02 -6.399660e-02 -3.132659e-02 
2.614347e-03 3.548268e-02 6.784790e-02 1.001823e-01 1.318084e-01 1.633245e-01 1.939374e-01 2.243707e-01 2.537112e-01 2.828154e-01 3.106375e-01 3.381818e-01 3.642519e-01 3.900201e-01 4.141163e-01 4.379058e-01 4.598187e-01 4.814414e-01 5.009757e-01 5.202584e-01 5.372355e-01 5.540220e-01 5.682831e-01 5.824368e-01 5.938464e-01 6.052527e-01 6.137020e-01 6.222711e-01 6.276814e-01 6.333503e-01 6.356757e-01 6.384102e-01 6.376388e-01 6.374343e-01 6.335894e-01 6.304712e-01 6.236104e-01 6.176330e-01 6.078467e-01 5.990919e-01 5.865007e-01 5.750757e-01 5.598273e-01 5.458619e-01 5.281269e-01 5.117706e-01 4.917396e-01 4.731582e-01 4.510377e-01 4.304110e-01 4.064204e-01 3.839394e-01 3.583088e-01 3.341733e-01 3.071409e-01 2.815578e-01 2.533689e-01 2.265504e-01 1.974555e-01 1.696175e-01 1.398709e-01 1.112318e-01 8.108977e-02 5.186861e-02 2.158733e-02 -7.997301e-03 -3.816437e-02 -6.789552e-02 -9.770048e-02 -1.273634e-01 -1.565666e-01 -1.859488e-01 -2.143210e-01 -2.432108e-01 -2.705343e-01 -2.987189e-01 -3.247873e-01 -3.520491e-01 -3.766652e-01 -4.027781e-01 -4.257505e-01 -4.504759e-01 -4.716141e-01 -4.946979e-01 -5.138075e-01 -5.349794e-01 -5.518584e-01 -5.708334e-01 -5.852709e-01 -6.017543e-01 -6.135326e-01 -6.272288e-01 -6.361293e-01 -6.467537e-01 -6.525667e-01 -6.598596e-01 -6.623975e-01 -6.661391e-01 -6.652508e-01 -6.652761e-01 -6.608607e-01 -6.570719e-01 -6.490904e-01 -6.414664e-01 -6.299494e-01 -6.185503e-01 -6.036011e-01 -5.885675e-01 -5.703599e-01 -5.519080e-01 -5.306796e-01 -5.090909e-01 -4.851334e-01 -4.607423e-01 -4.343886e-01 -4.075675e-01 -3.791790e-01 -3.503241e-01 -3.202776e-01 -2.897948e-01 -2.584712e-01 -2.267646e-01 -1.945398e-01 -1.620023e-01 -1.292402e-01 -9.624685e-02 -6.329478e-02 -3.019901e-02 
2.544973e-03 3.579906e-02 6.855976e-02 1.012668e-01 1.332747e-01 1.651497e-01 1.961302e-01 2.269087e-01 2.566023e-01 2.860377e-01 3.141978e-01 3.420590e-01 3.684506e-01 3.945203e-01 4.189195e-01 4.429936e-01 4.651880e-01 4.870757e-01 5.068665e-01 5.263916e-01 5.435962e-01 5.605991e-01 5.750541e-01 5.893948e-01 6.009604e-01 6.125211e-01 6.210848e-01 6.297727e-01 6.352526e-01 6.410030e-01 6.433509e-01 6.461286e-01 6.453318e-01 6.451323e-01 6.412142e-01 6.380638e-01 6.310835e-01 6.250387e-01 6.150890e-01 6.062344e-01 5.934392e-01 5.818852e-01 5.663960e-01 5.522756e-01 5.342673e-01 5.177332e-01 4.974004e-01 4.786214e-01 4.561746e-01 4.353329e-01 4.109953e-01 3.882839e-01 3.622889e-01 3.379094e-01 3.104987e-01 2.846596e-01 2.560817e-01 2.289968e-01 1.995059e-01 1.713928e-01 1.412474e-01 1.123264e-01 8.178745e-02 5.227996e-02 2.160890e-02 -8.264050e-03 -3.880806e-02 -6.882709e-02 -9.899036e-02 -1.289386e-01 -1.584761e-01 -1.881395e-01 -2.168176e-01 -2.459837e-01 -2.735816e-01 -3.020375e-01 -3.283477e-01 -3.558765e-01 -3.807028e-01 -4.070794e-01 -4.302330e-01 -4.552202e-01 -4.765150e-01 -4.998594e-01 -5.191062e-01 -5.405377e-01 -5.575401e-01 -5.767726e-01 -5.913241e-01 -6.080612e-01 -6.199465e-01 -6.338891e-01 -6.428897e-01 -6.537477e-01 -6.596511e-01 -6.671573e-01 -6.697698e-01 -6.736953e-01 -6.728574e-01 -6.730266e-01 -6.686273e-01 -6.649319e-01 -6.569223e-01 -6.493318e-01 -6.377343e-01 -6.263018e-01 -6.112141e-01 -5.960771e-01 -5.776712e-01 -5.590467e-01 -5.375624e-01 -5.157368e-01 -4.914713e-01 -4.667872e-01 -4.400817e-01 -4.129222e-01 -3.841479e-01 -3.549207e-01 -3.244649e-01 -2.935874e-01 -2.618408e-01 -2.297276e-01 -1.970749e-01 -1.641277e-01 -1.309397e-01 -9.754042e-02 -6.416960e-02 -3.067650e-02 
4.455614e-03 3.824460e-02 7.148533e-02 1.046778e-01 1.371307e-01 1.694463e-01 2.008409e-01 2.320201e-01 2.621008e-01 2.919016e-01 3.204246e-01 3.486195e-01 3.753515e-01 4.017257e-01 4.264427e-01 4.507929e-01 4.732810e-01 4.954158e-01 5.154732e-01 5.352147e-01 5.526543e-01 5.698403e-01 5.844940e-01 5.989811e-01 6.107042e-01 6.223711e-01 6.310463e-01 6.397972e-01 6.453393e-01 6.511068e-01 6.534652e-01 6.562125e-01 6.553739e-01 6.550962e-01 6.510853e-01 6.478098e-01 6.406884e-01 6.344738e-01 6.243391e-01 6.152732e-01 6.022545e-01 5.904519e-01 5.747064e-01 5.603051e-01 5.420139e-01 5.251714e-01 5.045347e-01 4.854252e-01 4.626582e-01 4.414689e-01 4.167988e-01 3.937273e-01 3.673906e-01 3.426426e-01 3.148832e-01 2.886709e-01 2.597391e-01 2.322794e-01 2.024308e-01 1.739442e-01 1.434387e-01 1.141474e-01 8.324759e-02 5.337416e-02 2.234331e-02 -7.891087e-03 -3.879234e-02 -6.916963e-02 -9.968667e-02 -1.299931e-01 -1.598812e-01 -1.899076e-01 -2.189351e-01 -2.484759e-01 -2.764263e-01 -3.052767e-01 -3.319487e-01 -3.599004e-01 -3.851054e-01 -4.119406e-01 -4.354977e-01 -4.609833e-01 -4.827123e-01 -5.065945e-01 -5.263081e-01 -5.483095e-01 -5.658068e-01 -5.856268e-01 -6.006894e-01 -6.180090e-01 -6.304018e-01 -6.448938e-01 -6.543718e-01 -6.657141e-01 -6.720342e-01 -6.799276e-01 -6.828657e-01 -6.870521e-01 -6.864220e-01 -6.867038e-01 -6.823751e-01 -6.786308e-01 -6.705450e-01 -6.627416e-01 -6.509213e-01 -6.391201e-01 -6.236736e-01 -6.080292e-01 -5.891467e-01 -5.699003e-01 -5.478454e-01 -5.253118e-01 -5.004082e-01 -4.749598e-01 -4.475751e-01 -4.196237e-01 -3.901534e-01 -3.601323e-01 -3.289844e-01 -2.973322e-01 -2.649138e-01 -2.320610e-01 -1.987680e-01 -1.651272e-01 -1.313374e-01 -9.729655e-02 -6.336553e-02 -2.928475e-02 
4.670521e-03 3.900436e-02 7.279137e-02 1.065042e-01 1.394809e-01 1.722928e-01 2.041893e-01 2.358419e-01 2.664032e-01 2.966554e-01 3.256378e-01 3.542626e-01 3.814316e-01 4.082134e-01 4.333427e-01 4.580765e-01 4.809484e-01 5.034397e-01 5.238474e-01 5.439140e-01 5.616648e-01 5.791397e-01 5.940593e-01 6.087940e-01 6.207313e-01 6.325999e-01 6.414321e-01 6.503349e-01 6.559721e-01 6.618387e-01 6.642274e-01 6.670198e-01 6.661452e-01 6.658586e-01 6.617458e-01 6.584092e-01 6.511225e-01 6.447975e-01 6.344377e-01 6.252164e-01 6.119178e-01 5.999196e-01 5.838454e-01 5.692131e-01 5.505504e-01 5.334464e-01 5.124013e-01 4.930041e-01 4.697973e-01 4.482977e-01 4.231614e-01 3.997599e-01 3.729349e-01 3.478396e-01 3.195738e-01 2.929989e-01 2.635465e-01 2.357110e-01 2.053318e-01 1.764582e-01 1.454170e-01 1.157302e-01 8.429546e-02 5.402085e-02 2.246252e-02 -8.175498e-03 -3.958933e-02 -7.036961e-02 -1.013767e-01 -1.320829e-01 -1.624312e-01 -1.928526e-01 -2.223046e-01 -2.522352e-01 -2.805706e-01 -3.098064e-01 -3.368227e-01 -3.651570e-01 -3.906672e-01 -4.178847e-01 -4.417122e-01 -4.675815e-01 -4.895524e-01 -5.138207e-01 -5.337552e-01 -5.561444e-01 -5.738486e-01 -5.940556e-01 -6.093164e-01 -6.270180e-01 -6.396025e-01 -6.544646e-01 -6.641259e-01 -6.758169e-01 -6.823054e-01 -6.905137e-01 -6.935942e-01 -6.980467e-01 -6.975182e-01 -6.980007e-01 -6.937165e-01 -6.900910e-01 -6.819768e-01 -6.741963e-01 -6.622625e-01 -6.503787e-01 -6.347262e-01 -6.188908e-01 -5.997090e-01 -5.801666e-01 -5.577244e-01 -5.348000e-01 -5.094319e-01 -4.835128e-01 -4.556012e-01 -4.271174e-01 -3.970746e-01 -3.664784e-01 -3.347292e-01 -3.024776e-01 -2.694445e-01 -2.359840e-01 -2.020760e-01 -1.678323e-01 -1.334371e-01 -9.880750e-02 -6.428752e-02 -2.963835e-02 
7.088005e-03 4.210241e-02 7.650687e-02 1.108380e-01 1.443880e-01 1.777627e-01 2.101947e-01 2.423618e-01 2.734262e-01 3.041511e-01 3.336084e-01 3.626689e-01 3.902867e-01 4.174701e-01 4.430218e-01 4.681239e-01 4.913892e-01 5.142141e-01 5.349814e-01 5.553440e-01 5.734141e-01 5.911431e-01 6.063343e-01 6.212760e-01 6.334298e-01 6.454529e-01 6.544397e-01 6.634396e-01 6.691640e-01 6.750666e-01 6.774716e-01 6.802363e-01 6.793062e-01 6.789277e-01 6.746890e-01 6.711974e-01 6.637183e-01 6.571782e-01 6.465658e-01 6.370739e-01 6.234702e-01 6.111517e-01 5.947282e-01 5.797326e-01 5.606849e-01 5.431818e-01 5.217237e-01 5.018984e-01 4.782576e-01 4.563075e-01 4.307212e-01 4.068528e-01 3.795658e-01 3.539928e-01 3.252558e-01 2.981971e-01 2.682664e-01 2.399451e-01 2.090826e-01 1.797249e-01 1.481976e-01 1.180314e-01 8.611054e-02 5.536359e-02 2.332230e-02 -7.779999e-03 -3.967019e-02 -7.090749e-02 -1.023815e-01 -1.335407e-01 -1.643454e-01 -1.952217e-01 -2.251211e-01 -2.555178e-01 -2.842965e-01 -3.140214e-01 -3.414856e-01 -3.703451e-01 -3.963198e-01 -4.241108e-01 -4.484326e-01 -4.749325e-01 -4.974392e-01 -5.223976e-01 -5.429159e-01 -5.660475e-01 -5.843812e-01 -6.053650e-01 -6.212873e-01 -6.397706e-01 -6.530226e-01 -6.686322e-01 -6.789301e-01 -6.912895e-01 -6.983405e-01 -7.070917e-01 -7.106163e-01 -7.154447e-01 -7.152028e-01 -7.158618e-01 -7.116784e-01 -7.080112e-01 -6.997978e-01 -6.917534e-01 -6.795216e-01 -6.671631e-01 -6.510288e-01 -6.345321e-01 -6.147110e-01 -5.943548e-01 -5.711498e-01 -5.472987e-01 -5.210809e-01 -4.941633e-01 -4.653518e-01 -4.358367e-01 -4.048766e-01 -3.732505e-01 -3.405941e-01 -3.073417e-01 -2.734324e-01 -2.390207e-01 -2.042817e-01 -1.691495e-01 -1.339765e-01 -9.852783e-02 -6.328595e-02 -2.788837e-02 
7.633122e-03 4.335245e-02 7.845420e-02 1.134529e-01 1.476682e-01 1.816755e-01 2.147430e-01 2.475107e-01 2.791832e-01 3.104794e-01 3.405184e-01 3.701225e-01 3.982951e-01 4.259943e-01 4.520712e-01 4.776592e-01 5.014154e-01 5.246924e-01 5.459098e-01 5.666849e-01 5.851563e-01 6.032516e-01 6.187867e-01 6.340415e-01 6.464732e-01 6.587495e-01 6.679403e-01 6.771280e-01 6.829761e-01 6.889970e-01 6.914412e-01 6.942528e-01 6.932755e-01 6.928726e-01 6.885011e-01 6.849164e-01 6.772222e-01 6.705247e-01 6.596205e-01 6.499128e-01 6.359476e-01 6.233618e-01 6.065155e-01 5.912081e-01 5.716846e-01 5.538320e-01 5.318534e-01 5.116467e-01 4.874475e-01 4.650889e-01 4.389128e-01 4.146125e-01 3.867092e-01 3.606835e-01 3.313081e-01 3.037781e-01 2.731910e-01 2.443821e-01 2.128494e-01 1.829903e-01 1.507846e-01 1.201062e-01 8.750562e-02 5.623941e-02 2.352546e-02 -8.098912e-03 -4.064505e-02 -7.240306e-02 -1.045061e-01 -1.361812e-01 -1.675780e-01 -1.989636e-01 -2.294101e-01 -2.603093e-01 -2.895848e-01 -3.198073e-01 -3.477166e-01 -3.770723e-01 -4.034429e-01 -4.317326e-01 -4.564076e-01 -4.834122e-01 -5.062389e-01 -5.317092e-01 -5.525249e-01 -5.761749e-01 -5.947937e-01 -6.162985e-01 -6.325009e-01 -6.515012e-01 -6.650313e-01 -6.811442e-01 -6.917151e-01 -7.045507e-01 -7.118593e-01 -7.210420e-01 -7.247913e-01 -7.299847e-01 -7.299120e-01 -7.308449e-01 -7.267500e-01 -7.232409e-01 -7.150115e-01 -7.069887e-01 -6.946175e-01 -6.821305e-01 -6.657236e-01 -6.489445e-01 -6.287175e-01 -6.079320e-01 -5.841972e-01 -5.597864e-01 -5.329329e-01 -5.053488e-01 -4.758187e-01 -4.455579e-01 -4.138217e-01 -3.813993e-01 -3.479341e-01 -3.138614e-01 -2.791327e-01 -2.438994e-01 -2.083483e-01 -1.724103e-01 -1.364456e-01 -1.002192e-01 -6.421414e-02 -2.807389e-02 
1.067535e-02 4.721541e-02 8.306614e-02 1.188090e-01 1.537197e-01 1.884049e-01 2.221237e-01 2.555135e-01 2.878010e-01 3.196723e-01 3.502962e-01 3.804350e-01 4.091651e-01 4.373622e-01 4.639688e-01 4.900185e-01 5.142725e-01 5.379728e-01 5.596491e-01 5.808043e-01 5.996866e-01 6.181121e-01 6.339993e-01 6.495268e-01 6.622410e-01 6.747248e-01 6.841187e-01 6.934416e-01 6.994054e-01 7.054836e-01 7.079511e-01 7.107384e-01 7.096902e-01 7.091804e-01 7.046459e-01 7.008732e-01 6.929293e-01 6.859667e-01 6.747347e-01 6.646912e-01 6.503308e-01 6.373463e-01 6.200491e-01 6.042893e-01 5.842707e-01 5.659212e-01 5.434139e-01 5.226748e-01 4.979223e-01 4.750043e-01 4.482566e-01 4.233774e-01 3.948889e-01 3.682714e-01 3.383002e-01 3.101713e-01 2.789798e-01 2.495701e-01 2.174266e-01 1.869694e-01 1.541490e-01 1.228798e-01 8.966449e-02 5.781849e-02 2.449499e-02 -7.695759e-03 -4.084021e-02 -7.315081e-02 -1.058352e-01 -1.380519e-01 -1.700096e-01 -2.019329e-01 -2.329197e-01 -2.643647e-01 -2.941656e-01 -3.249586e-01 -3.533903e-01 -3.833610e-01 -4.102688e-01 -4.392381e-01 -4.644867e-01 -4.922518e-01 -5.157094e-01 -5.420291e-01 -5.635478e-01 -5.881309e-01 -6.075275e-01 -6.300278e-01 -6.470683e-01 -6.670881e-01 -6.814827e-01 -6.985860e-01 -7.099965e-01 -7.237302e-01 -7.317913e-01 -7.417144e-01 -7.460650e-01 -7.517815e-01 -7.521023e-01 -7.532947e-01 -7.493448e-01 -7.458049e-01 -7.374523e-01 -7.291032e-01 -7.163435e-01 -7.032513e-01 -6.862133e-01 -6.685850e-01 -6.475225e-01 -6.256916e-01 -6.009648e-01 -5.753673e-01 -5.474164e-01 -5.185604e-01 -4.878768e-01 -4.563110e-01 -4.234087e-01 -3.896929e-01 -3.550842e-01 -3.197644e-01 -2.839408e-01 -2.475315e-01 -2.109506e-01 -1.739227e-01 -1.370014e-01 -9.977727e-02 -6.289003e-02 -2.584345e-02 
1.162198e-02 4.902663e-02 8.572431e-02 1.222796e-01 1.579948e-01 1.934458e-01 2.279316e-01 2.620465e-01 2.950685e-01 3.276293e-01 3.589579e-01 3.897541e-01 4.191593e-01 4.479825e-01 4.752319e-01 5.018738e-01 5.267325e-01 5.509860e-01 5.732201e-01 5.948818e-01 6.142642e-01 6.331405e-01 6.494583e-01 6.653710e-01 6.784346e-01 6.912287e-01 7.008800e-01 7.104304e-01 7.165510e-01 7.227685e-01 7.252860e-01 7.281216e-01 7.270145e-01 7.264623e-01 7.217608e-01 7.178585e-01 7.096445e-01 7.024714e-01 6.908736e-01 6.805469e-01 6.657353e-01 6.524047e-01 6.345820e-01 6.184228e-01 5.978162e-01 5.790231e-01 5.558758e-01 5.346568e-01 5.092214e-01 4.857928e-01 4.583267e-01 4.329106e-01 4.036735e-01 3.764956e-01 3.457497e-01 3.170389e-01 2.850503e-01 2.550389e-01 2.220800e-01 1.910039e-01 1.573554e-01 1.254535e-01 9.140516e-02 5.891751e-02 2.476642e-02 -8.069097e-03 -4.202322e-02 -7.497574e-02 -1.084380e-01 -1.412888e-01 -1.739787e-01 -2.065256e-01 -2.381875e-01 -2.702458e-01 -3.006569e-01 -3.320565e-01 -3.610312e-01 -3.916078e-01 -4.189956e-01 -4.485770e-01 -4.742521e-01 -5.026414e-01 -5.264859e-01 -5.534446e-01 -5.753270e-01 -6.005628e-01 -6.203149e-01 -6.434767e-01 -6.608761e-01 -6.815577e-01 -6.963199e-01 -7.140730e-01 -7.258563e-01 -7.402114e-01 -7.486363e-01 -7.591292e-01 -7.638098e-01 -7.700146e-01 -7.705976e-01 -7.721615e-01 -7.683681e-01 -7.650465e-01 -7.567085e-01 -7.483932e-01 -7.354785e-01 -7.222155e-01 -7.048382e-01 -6.868294e-01 -6.652444e-01 -6.428344e-01 -6.174176e-01 -5.910677e-01 -5.622867e-01 -5.325405e-01 -5.009210e-01 -4.683678e-01 -4.344608e-01 -3.997010e-01 -3.640539e-01 -3.276704e-01 -2.908048e-01 -2.533422e-01 -2.157391e-01 -1.776907e-01 -1.397830e-01 -1.015853e-01 -6.375661e-02 -2.579037e-02 
1.543738e-02 5.379396e-02 9.136290e-02 1.287779e-01 1.653012e-01 2.015351e-01 2.367797e-01 2.716152e-01 3.053585e-01 3.385902e-01 3.706109e-01 4.020369e-01 4.321091e-01 4.615258e-01 4.894161e-01 5.166155e-01 5.420834e-01 5.668546e-01 5.896564e-01 6.117889e-01 6.316842e-01 6.509745e-01 6.677357e-01 6.839947e-01 6.974168e-01 7.104784e-01 7.203893e-01 7.301185e-01 7.363884e-01 7.426879e-01 7.452374e-01 7.480532e-01 7.468578e-01 7.461822e-01 7.412751e-01 7.371477e-01 7.286181e-01 7.211237e-01 7.091122e-01 6.983765e-01 6.830678e-01 6.692512e-01 6.508643e-01 6.341540e-01 6.129317e-01 5.935347e-01 5.697343e-01 5.478701e-01 5.217553e-01 4.976508e-01 4.694869e-01 4.433732e-01 4.134247e-01 3.855350e-01 3.540666e-01 3.246366e-01 2.919155e-01 2.611835e-01 2.274832e-01 1.956910e-01 1.612950e-01 1.286872e-01 9.389026e-02 6.071283e-02 2.581954e-02 -7.684862e-03 -4.236497e-02 -7.596286e-02 -1.101247e-01 -1.435988e-01 -1.769539e-01 -2.101094e-01 -2.423989e-01 -2.750662e-01 -3.060728e-01 -3.381047e-01 -3.676584e-01 -3.989200e-01 -4.268960e-01 -4.572470e-01 -4.835538e-01 -5.128257e-01 -5.373814e-01 -5.653539e-01 -5.880561e-01 -6.144369e-01 -6.351297e-01 -6.595441e-01 -6.779919e-01 -6.999842e-01 -7.158587e-01 -7.349081e-01 -7.477959e-01 -7.633444e-01 -7.727760e-01 -7.842663e-01 -7.897618e-01 -7.966827e-01 -7.978066e-01 -7.997397e-01 -7.961551e-01 -7.928182e-01 -7.843304e-01 -7.756097e-01 -7.621931e-01 -7.481596e-01 -7.299635e-01 -7.108696e-01 -6.882051e-01 -6.644632e-01 -6.377740e-01 -6.099217e-01 -5.797460e-01 -5.484026e-01 -5.153325e-01 -4.811561e-01 -4.457990e-01 -4.094470e-01 -3.723944e-01 -3.344928e-01 -2.962970e-01 -2.574189e-01 -2.185790e-01 -1.792329e-01 -1.401887e-01 -1.008153e-01 -6.194822e-02 -2.292353e-02 
1.688748e-02 5.626530e-02 9.482678e-02 1.331938e-01 1.706556e-01 2.077824e-01 2.439209e-01 2.796008e-01 3.142018e-01 3.482381e-01 3.810859e-01 4.132827e-01 4.441531e-01 4.743084e-01 5.029652e-01 5.308683e-01 5.570634e-01 5.824965e-01 6.059745e-01 6.287167e-01 6.492229e-01 6.690580e-01 6.863485e-01 7.030739e-01 7.169277e-01 7.303645e-01 7.405948e-01 7.505971e-01 7.570625e-01 7.635252e-01 7.661381e-01 7.690032e-01 7.677359e-01 7.669965e-01 7.618836e-01 7.575838e-01 7.487211e-01 7.409546e-01 7.284934e-01 7.173976e-01 7.015366e-01 6.872851e-01 6.682587e-01 6.510523e-01 6.291190e-01 6.091766e-01 5.846075e-01 5.621586e-01 5.352290e-01 5.105077e-01 4.814910e-01 4.547328e-01 4.238990e-01 3.953392e-01 3.629561e-01 3.328314e-01 2.991684e-01 2.677179e-01 2.330516e-01 2.005190e-01 1.651375e-01 1.317714e-01 9.597785e-02 6.203044e-02 2.614195e-02 -8.135992e-03 -4.379352e-02 -7.815963e-02 -1.132620e-01 -1.474913e-01 -1.817306e-01 -2.156238e-01 -2.487241e-01 -2.821120e-01 -3.138444e-01 -3.465859e-01 -3.767768e-01 -4.087470e-01 -4.372774e-01 -4.683480e-01 -4.951405e-01 -5.251532e-01 -5.501469e-01 -5.788864e-01 -6.020029e-01 -6.291758e-01 -6.502827e-01 -6.755074e-01 -6.943875e-01 -7.171983e-01 -7.335333e-01 -7.533958e-01 -7.667702e-01 -7.831079e-01 -7.930346e-01 -8.052628e-01 -8.112271e-01 -8.187949e-01 -8.203121e-01 -8.227507e-01 -8.194266e-01 -8.163994e-01 -8.079847e-01 -7.993302e-01 -7.857572e-01 -7.715155e-01 -7.529125e-01 -7.333286e-01 -7.100094e-01 -6.855131e-01 -6.579462e-01 -6.291132e-01 -5.978783e-01 -5.653804e-01 -5.311202e-01 -4.956738e-01 -4.590483e-01 -4.213678e-01 -3.830170e-01 -3.437779e-01 -3.042942e-01 -2.641089e-01 -2.240207e-01 -1.834250e-01 -1.431909e-01 -1.026409e-01 -6.265104e-02 -2.252854e-02 
2.165991e-02 6.210663e-02 1.016475e-01 1.409743e-01 1.793431e-01 2.173430e-01 2.543363e-01 2.908231e-01 3.262432e-01 3.610374e-01 3.946805e-01 4.275978e-01 4.592453e-01 4.900895e-01 5.195040e-01 5.480643e-01 5.749898e-01 6.010424e-01 6.252098e-01 6.485231e-01 6.696594e-01 6.900032e-01 7.078437e-01 7.250001e-01 7.393022e-01 7.530766e-01 7.636343e-01 7.738668e-01 7.805226e-01 7.870972e-01 7.897532e-01 7.926046e-01 7.912293e-01 7.903479e-01 7.849792e-01 7.804118e-01 7.711558e-01 7.630032e-01 7.500276e-01 7.384388e-01 7.219628e-01 7.071259e-01 6.874060e-01 6.695376e-01 6.468539e-01 6.261890e-01 6.008310e-01 5.776137e-01 5.498706e-01 5.243477e-01 4.945022e-01 4.669196e-01 4.352458e-01 4.058475e-01 3.726139e-01 3.416435e-01 3.071186e-01 2.748217e-01 2.392809e-01 2.059080e-01 1.696412e-01 1.354485e-01 9.876458e-02 6.401247e-02 2.723933e-02 -7.812717e-03 -4.433418e-02 -7.943708e-02 -1.153655e-01 -1.502923e-01 -1.853040e-01 -2.198618e-01 -2.536720e-01 -2.877093e-01 -3.200919e-01 -3.534982e-01 -3.842986e-01 -4.169918e-01 -4.461277e-01 -4.780293e-01 -5.054756e-01 -5.364753e-01 -5.622309e-01 -5.921489e-01 -6.161894e-01 -6.447430e-01 -6.669669e-01 -6.937508e-01 -7.139331e-01 -7.384184e-01 -7.561851e-01 -7.777382e-01 -7.925719e-01 -8.104912e-01 -8.217724e-01 -8.353399e-01 -8.424150e-01 -8.509572e-01 -8.532204e-01 -8.561752e-01 -8.531497e-01 -8.501284e-01 -8.415305e-01 -8.323662e-01 -8.181427e-01 -8.029145e-01 -7.832490e-01 -7.622762e-01 -7.375656e-01 -7.113748e-01 -6.821845e-01 -6.514573e-01 -6.184645e-01 -5.839754e-01 -5.479108e-01 -5.104660e-01 -4.720623e-01 -4.324480e-01 -3.923989e-01 -3.513419e-01 -3.102748e-01 -2.684190e-01 -2.268802e-01 -1.847749e-01 -1.432263e-01 -1.013273e-01 -6.015138e-02 -1.882901e-02 
2.375296e-02 6.537020e-02 1.060407e-01 1.464490e-01 1.858808e-01 2.248904e-01 2.628959e-01 3.003374e-01 3.367329e-01 3.724409e-01 4.070321e-01 4.408315e-01 4.734034e-01 5.051014e-01 5.354135e-01 5.647960e-01 5.925827e-01 6.194163e-01 6.443930e-01 6.684319e-01 6.903057e-01 7.113021e-01 7.297865e-01 7.475036e-01 7.623343e-01 7.765597e-01 7.875107e-01 7.980695e-01 8.049676e-01 8.117329e-01 8.144692e-01 8.173705e-01 8.159088e-01 8.149371e-01 8.093174e-01 8.045261e-01 7.948632e-01 7.863654e-01 7.728422e-01 7.608030e-01 7.436579e-01 7.282839e-01 7.077950e-01 6.893213e-01 6.657894e-01 6.444673e-01 6.182005e-01 5.942866e-01 5.655883e-01 5.393378e-01 5.084996e-01 4.801624e-01 4.474633e-01 4.172840e-01 3.829934e-01 3.512145e-01 3.156000e-01 2.824658e-01 2.458030e-01 2.115643e-01 1.741460e-01 1.390631e-01 1.012063e-01 6.554755e-02 2.759500e-02 -8.368420e-03 -4.605433e-02 -8.205967e-02 -1.191111e-01 -1.549188e-01 -1.909838e-01 -2.263931e-01 -2.611615e-01 -2.960210e-01 -3.292487e-01 -3.634574e-01 -3.949836e-01 -4.284764e-01 -4.582267e-01 -4.909454e-01 -5.189156e-01 -5.507676e-01 -5.769877e-01 -6.078019e-01 -6.322837e-01 -6.617753e-01 -6.844529e-01 -7.122064e-01 -7.328842e-01 -7.583577e-01 -7.766798e-01 -7.992272e-01 -8.146789e-01 -8.335827e-01 -8.455246e-01 -8.600377e-01 -8.677697e-01 -8.771679e-01 -8.800126e-01 -8.836610e-01 -8.810551e-01 -8.784823e-01 -8.700579e-01 -8.610228e-01 -8.466628e-01 -8.311962e-01 -8.110533e-01 -7.894635e-01 -7.639410e-01 -7.367818e-01 -7.064846e-01 -6.744958e-01 -6.401639e-01 -6.041974e-01 -5.666357e-01 -5.275814e-01 -4.875972e-01 -4.463199e-01 -4.046726e-01 -3.619655e-01 -3.193347e-01 -2.758907e-01 -2.328588e-01 -1.892592e-01 -1.463084e-01 -1.030243e-01 -6.054362e-02 -1.794744e-02 