# vtk DataFile Version 2.0
Comment goes here
ASCII

DATASET STRUCTURED_POINTS
FIELD FieldData 1
TIME 1 1 double
0.06000000
DIMENSIONS    128   128   1

ORIGIN    0.000   0.000   0.000
SPACING   0.039062 0.039062   1.000

POINT_DATA   16384
SCALARS uX double
LOOKUP_TABLE default

1.802194e-01 2.124150e-01 2.423595e-01 2.735727e-01 3.026445e-01 3.326825e-01 3.606786e-01 3.893466e-01 4.160593e-01 4.431589e-01 4.683751e-01 4.937034e-01 5.172049e-01 5.405548e-01 5.621195e-01 5.832810e-01 6.026852e-01 6.214472e-01 6.384691e-01 6.546230e-01 6.690470e-01 6.823900e-01 6.940117e-01 7.043521e-01 7.129840e-01 7.201457e-01 7.256229e-01 7.294511e-01 7.316364e-01 7.320023e-01 7.307916e-01 7.275976e-01 7.229235e-01 7.161071e-01 7.079419e-01 6.974791e-01 6.858369e-01 6.717450e-01 6.566818e-01 6.390205e-01 6.206340e-01 5.995066e-01 5.779349e-01 5.534878e-01 5.289076e-01 5.013297e-01 4.739541e-01 4.434753e-01 4.135521e-01 3.804413e-01 3.482508e-01 3.128146e-01 2.786680e-01 2.412481e-01 2.054863e-01 1.664570e-01 1.294492e-01 8.921545e-02 5.135715e-02 1.035126e-02 -2.793772e-02 -6.925922e-02 -1.075380e-01 -1.486987e-01 -1.865098e-01 -2.270184e-01 -2.638939e-01 -3.032508e-01 -3.387199e-01 -3.764246e-01 -4.100233e-01 -4.455832e-01 -4.768650e-01 -5.098060e-01 -5.383537e-01 -5.682311e-01 -5.936694e-01 -6.200796e-01 -6.420862e-01 -6.646787e-01 -6.829951e-01 -7.014835e-01 -7.159222e-01 -7.300933e-01 -7.405427e-01 -7.502635e-01 -7.566886e-01 -7.619093e-01 -7.643482e-01 -7.651018e-01 -7.636587e-01 -7.600567e-01 -7.548920e-01 -7.471155e-01 -7.384341e-01 -7.267232e-01 -7.147621e-01 -6.994025e-01 -6.844193e-01 -6.657291e-01 -6.479922e-01 -6.263088e-01 -6.060893e-01 -5.817585e-01 -5.593251e-01 -5.326917e-01 -5.083072e-01 -4.797085e-01 -4.536279e-01 -4.233887e-01 -3.958592e-01 -3.642889e-01 -3.355495e-01 -3.029411e-01 -2.732231e-01 -2.398525e-01 -2.093799e-01 -1.755062e-01 -1.444965e-01 -1.103634e-01 -7.902775e-02 -4.486489e-02 -1.340909e-02 2.056616e-02 5.194064e-02 8.552090e-02 1.166157e-01 1.496011e-01 
1.799261e-01 2.121818e-01 2.421355e-01 2.734101e-01 3.024843e-01 3.325852e-01 3.605782e-01 3.893106e-01 4.160157e-01 4.431812e-01 4.683863e-01 4.937823e-01 5.172696e-01 5.406892e-01 5.622373e-01 5.834704e-01 6.028559e-01 6.216915e-01 6.386928e-01 6.549219e-01 6.693236e-01 6.827432e-01 6.943409e-01 7.047590e-01 7.133650e-01 7.206052e-01 7.260545e-01 7.299616e-01 7.321171e-01 7.325620e-01 7.313196e-01 7.282043e-01 7.234967e-01 7.167584e-01 7.085583e-01 6.981728e-01 6.864945e-01 6.724787e-01 6.573786e-01 6.397923e-01 6.213683e-01 6.003145e-01 5.787052e-01 5.543298e-01 5.297123e-01 5.022038e-01 4.747913e-01 4.443789e-01 4.144194e-01 3.813713e-01 3.491451e-01 3.137667e-01 2.795851e-01 2.422169e-01 2.064206e-01 1.674357e-01 1.303935e-01 9.019529e-02 5.230271e-02 1.132194e-02 -2.700138e-02 -6.830979e-02 -1.066230e-01 -1.477842e-01 -1.856297e-01 -2.261540e-01 -2.630637e-01 -3.024527e-01 -3.379555e-01 -3.757096e-01 -4.093411e-01 -4.449686e-01 -4.762818e-01 -5.093088e-01 -5.378861e-01 -5.678676e-01 -5.933328e-01 -6.198647e-01 -6.418950e-01 -6.646252e-01 -6.829614e-01 -7.016014e-01 -7.160553e-01 -7.303892e-01 -7.408484e-01 -7.507396e-01 -7.571682e-01 -7.625630e-01 -7.649981e-01 -7.659253e-01 -7.644701e-01 -7.610365e-01 -7.558504e-01 -7.482330e-01 -7.395199e-01 -7.279546e-01 -7.159511e-01 -7.007202e-01 -6.856839e-01 -6.671030e-01 -6.493026e-01 -6.277076e-01 -6.074156e-01 -5.831516e-01 -5.606385e-01 -5.340507e-01 -5.095815e-01 -4.810085e-01 -4.548409e-01 -4.246093e-01 -3.969932e-01 -3.654148e-01 -3.365917e-01 -3.039618e-01 -2.741654e-01 -2.407625e-01 -2.102186e-01 -1.763043e-01 -1.452318e-01 -1.110518e-01 -7.966268e-02 -4.544829e-02 -1.394875e-02 2.008131e-02 5.148993e-02 8.512730e-02 1.162471e-01 1.492913e-01 
1.809509e-01 2.132429e-01 2.432870e-01 2.745966e-01 3.037697e-01 3.339052e-01 3.620050e-01 3.907724e-01 4.175916e-01 4.447926e-01 4.701179e-01 4.955497e-01 5.191622e-01 5.426172e-01 5.642937e-01 5.855607e-01 6.050758e-01 6.239422e-01 6.410720e-01 6.573271e-01 6.718533e-01 6.852922e-01 6.970078e-01 7.074360e-01 7.161506e-01 7.233896e-01 7.289355e-01 7.328278e-01 7.350654e-01 7.354801e-01 7.343032e-01 7.311403e-01 7.264801e-01 7.196754e-01 7.115035e-01 7.010318e-01 6.893618e-01 6.752396e-01 6.601278e-01 6.424145e-01 6.239592e-01 6.027582e-01 5.810983e-01 5.565565e-01 5.318697e-01 5.041766e-01 4.766773e-01 4.460635e-01 4.160002e-01 3.827360e-01 3.503898e-01 3.147826e-01 2.804655e-01 2.428581e-01 2.069118e-01 1.676800e-01 1.304744e-01 9.002429e-02 5.195604e-02 1.072188e-02 -2.778759e-02 -6.934730e-02 -1.078548e-01 -1.492611e-01 -1.873062e-01 -2.280647e-01 -2.651755e-01 -3.047827e-01 -3.404839e-01 -3.784348e-01 -4.122567e-01 -4.480538e-01 -4.795440e-01 -5.127075e-01 -5.414429e-01 -5.715221e-01 -5.971214e-01 -6.237069e-01 -6.458428e-01 -6.685788e-01 -6.869886e-01 -7.055838e-01 -7.200780e-01 -7.343160e-01 -7.447827e-01 -7.545286e-01 -7.609344e-01 -7.661387e-01 -7.685252e-01 -7.692234e-01 -7.676998e-01 -7.640073e-01 -7.587398e-01 -7.508435e-01 -7.420433e-01 -7.301896e-01 -7.180994e-01 -7.025809e-01 -6.874633e-01 -6.686044e-01 -6.507316e-01 -6.288753e-01 -6.085213e-01 -5.840180e-01 -5.614531e-01 -5.346511e-01 -5.101388e-01 -4.813776e-01 -4.551735e-01 -4.247794e-01 -3.971304e-01 -3.654136e-01 -3.365585e-01 -3.038121e-01 -2.739820e-01 -2.404816e-01 -2.099004e-01 -1.759048e-01 -1.447894e-01 -1.105415e-01 -7.910294e-02 -4.483134e-02 -1.327484e-02 2.080416e-02 5.227780e-02 8.595803e-02 1.171512e-01 1.502341e-01 
1.813953e-01 2.138439e-01 2.439956e-01 2.754630e-01 3.047389e-01 3.350345e-01 3.632343e-01 3.921649e-01 4.190823e-01 4.464505e-01 4.718730e-01 4.974760e-01 5.211848e-01 5.448145e-01 5.665858e-01 5.880301e-01 6.076371e-01 6.266817e-01 6.438986e-01 6.603305e-01 6.749366e-01 6.885483e-01 7.003337e-01 7.109280e-01 7.196993e-01 7.270945e-01 7.326812e-01 7.367170e-01 7.389771e-01 7.395196e-01 7.383448e-01 7.352918e-01 7.306121e-01 7.238974e-01 7.156835e-01 7.052804e-01 6.935461e-01 6.794701e-01 6.642722e-01 6.465823e-01 6.280202e-01 6.068196e-01 5.850336e-01 5.604692e-01 5.356384e-01 5.079000e-01 4.802399e-01 4.495585e-01 4.193188e-01 3.859647e-01 3.534273e-01 3.177080e-01 2.831857e-01 2.454439e-01 2.092788e-01 1.698902e-01 1.324526e-01 9.182336e-02 5.351102e-02 1.207528e-02 -2.668895e-02 -6.847222e-02 -1.072430e-01 -1.488939e-01 -1.872077e-01 -2.282303e-01 -2.656111e-01 -3.054995e-01 -3.414669e-01 -3.797126e-01 -4.137912e-01 -4.498926e-01 -4.816235e-01 -5.150955e-01 -5.440488e-01 -5.744347e-01 -6.002226e-01 -6.271066e-01 -6.493961e-01 -6.724153e-01 -6.909392e-01 -7.097956e-01 -7.243614e-01 -7.388323e-01 -7.493270e-01 -7.592724e-01 -7.656633e-01 -7.710298e-01 -7.733611e-01 -7.741819e-01 -7.725666e-01 -7.689566e-01 -7.635658e-01 -7.557127e-01 -7.467625e-01 -7.349150e-01 -7.226534e-01 -7.071072e-01 -6.918015e-01 -6.728847e-01 -6.548115e-01 -6.328712e-01 -6.123085e-01 -5.876991e-01 -5.649206e-01 -5.379943e-01 -5.132671e-01 -4.843673e-01 -4.579498e-01 -4.274061e-01 -3.995483e-01 -3.676743e-01 -3.386175e-01 -3.057092e-01 -2.756867e-01 -2.420221e-01 -2.112595e-01 -1.770993e-01 -1.458147e-01 -1.114033e-01 -7.980799e-02 -4.537478e-02 -1.367391e-02 2.056460e-02 5.217107e-02 8.600901e-02 1.173249e-01 1.505644e-01 
1.831458e-01 2.157256e-01 2.460675e-01 2.776653e-01 3.071419e-01 3.375690e-01 3.659800e-01 3.950448e-01 4.221836e-01 4.496890e-01 4.753422e-01 5.010852e-01 5.250320e-01 5.488032e-01 5.708168e-01 5.924018e-01 6.122519e-01 6.314334e-01 6.488892e-01 6.654504e-01 6.802862e-01 6.940151e-01 7.060151e-01 7.167097e-01 7.256748e-01 7.331485e-01 7.389027e-01 7.429901e-01 7.453865e-01 7.459492e-01 7.448754e-01 7.418074e-01 7.371901e-01 7.304218e-01 7.222299e-01 7.117324e-01 6.999787e-01 6.857661e-01 6.705077e-01 6.526385e-01 6.339756e-01 6.125535e-01 5.906280e-01 5.658012e-01 5.407939e-01 5.127541e-01 4.848825e-01 4.538631e-01 4.233786e-01 3.896528e-01 3.568389e-01 3.207174e-01 2.858884e-01 2.477173e-01 2.112166e-01 1.713756e-01 1.335754e-01 9.247479e-02 5.377510e-02 1.185400e-02 -2.731916e-02 -6.959609e-02 -1.087930e-01 -1.509391e-01 -1.896902e-01 -2.312019e-01 -2.690237e-01 -3.093860e-01 -3.457888e-01 -3.844834e-01 -4.189811e-01 -4.554950e-01 -4.876170e-01 -5.214536e-01 -5.507580e-01 -5.814485e-01 -6.075360e-01 -6.346531e-01 -6.571805e-01 -6.803514e-01 -6.990440e-01 -7.179631e-01 -7.326242e-01 -7.470644e-01 -7.575811e-01 -7.674022e-01 -7.737463e-01 -7.788996e-01 -7.811237e-01 -7.816516e-01 -7.798803e-01 -7.759111e-01 -7.703291e-01 -7.620669e-01 -7.529042e-01 -7.406156e-01 -7.281330e-01 -7.121313e-01 -6.966066e-01 -6.772358e-01 -6.589529e-01 -6.365734e-01 -6.158142e-01 -5.907900e-01 -5.678296e-01 -5.405193e-01 -5.156236e-01 -4.863735e-01 -4.597986e-01 -4.289392e-01 -4.009317e-01 -3.687751e-01 -3.395732e-01 -3.064129e-01 -2.762469e-01 -2.423579e-01 -2.114509e-01 -1.770903e-01 -1.456585e-01 -1.110670e-01 -7.932020e-02 -4.472348e-02 -1.286551e-02 2.152348e-02 5.329381e-02 8.727267e-02 1.187602e-01 1.521343e-01 
1.843345e-01 2.171662e-01 2.477124e-01 2.795631e-01 3.092412e-01 3.399248e-01 3.685372e-01 3.978638e-01 4.252057e-01 4.529795e-01 4.788382e-01 5.048562e-01 5.290104e-01 5.530625e-01 5.752837e-01 5.971532e-01 6.172078e-01 6.366742e-01 6.543274e-01 6.711696e-01 6.861902e-01 7.001911e-01 7.123577e-01 7.233096e-01 7.324170e-01 7.401275e-01 7.459938e-01 7.502919e-01 7.527650e-01 7.535070e-01 7.524704e-01 7.495455e-01 7.449231e-01 7.382582e-01 7.300173e-01 7.195807e-01 7.077339e-01 6.935379e-01 6.781434e-01 6.602460e-01 6.414058e-01 6.199106e-01 5.977692e-01 5.728252e-01 5.475659e-01 5.193659e-01 4.912086e-01 4.599872e-01 4.291854e-01 3.952171e-01 3.620559e-01 3.256525e-01 2.904474e-01 2.519560e-01 2.150514e-01 1.748527e-01 1.366220e-01 9.512746e-02 5.597244e-02 1.362266e-02 -2.602789e-02 -6.876594e-02 -1.084580e-01 -1.510945e-01 -1.903526e-01 -2.323793e-01 -2.707118e-01 -3.116079e-01 -3.485153e-01 -3.877545e-01 -4.227391e-01 -4.597994e-01 -4.923778e-01 -5.267515e-01 -5.564686e-01 -5.876751e-01 -6.141187e-01 -6.417179e-01 -6.645334e-01 -6.881398e-01 -7.070437e-01 -7.263398e-01 -7.411300e-01 -7.558786e-01 -7.664406e-01 -7.764942e-01 -7.828025e-01 -7.881083e-01 -7.902219e-01 -7.908220e-01 -7.888748e-01 -7.849010e-01 -7.790885e-01 -7.707515e-01 -7.613154e-01 -7.488905e-01 -7.361026e-01 -7.199130e-01 -7.040608e-01 -6.844611e-01 -6.658367e-01 -6.431969e-01 -6.220890e-01 -5.967819e-01 -5.734708e-01 -5.458626e-01 -5.206185e-01 -4.910620e-01 -4.641445e-01 -4.329752e-01 -4.046341e-01 -3.721685e-01 -3.426447e-01 -3.091796e-01 -2.787055e-01 -2.445183e-01 -2.133187e-01 -1.786682e-01 -1.469601e-01 -1.120877e-01 -8.008116e-02 -4.521251e-02 -1.311038e-02 2.154253e-02 5.354305e-02 8.777948e-02 1.194856e-01 1.531132e-01 
1.868043e-01 2.198597e-01 2.506952e-01 2.827697e-01 3.127500e-01 3.436607e-01 3.725891e-01 4.021483e-01 4.298203e-01 4.578333e-01 4.840350e-01 5.102985e-01 5.348063e-01 5.591082e-01 5.816894e-01 6.038097e-01 6.242252e-01 6.439386e-01 6.619465e-01 6.790258e-01 6.943867e-01 7.086077e-01 7.210913e-01 7.322386e-01 7.416307e-01 7.495040e-01 7.556140e-01 7.600344e-01 7.627023e-01 7.635189e-01 7.626219e-01 7.597176e-01 7.551747e-01 7.484713e-01 7.402471e-01 7.297091e-01 7.178152e-01 7.034529e-01 6.879479e-01 6.698184e-01 6.508066e-01 6.290143e-01 6.066426e-01 5.813383e-01 5.557935e-01 5.271728e-01 4.986776e-01 4.669787e-01 4.357896e-01 4.012907e-01 3.676952e-01 3.307126e-01 2.950279e-01 2.559133e-01 2.184859e-01 1.776248e-01 1.388302e-01 9.663971e-02 5.688245e-02 1.380960e-02 -2.647710e-02 -6.995786e-02 -1.103137e-01 -1.537035e-01 -1.936441e-01 -2.364238e-01 -2.754463e-01 -3.170823e-01 -3.546727e-01 -3.946240e-01 -4.302681e-01 -4.679956e-01 -5.011914e-01 -5.361696e-01 -5.664423e-01 -5.981717e-01 -6.250904e-01 -6.531123e-01 -6.763057e-01 -7.002174e-01 -7.193891e-01 -7.388595e-01 -7.538001e-01 -7.685831e-01 -7.791775e-01 -7.891231e-01 -7.953523e-01 -8.004127e-01 -8.023488e-01 -8.025786e-01 -8.003743e-01 -7.959246e-01 -7.897972e-01 -7.809029e-01 -7.711164e-01 -7.580798e-01 -7.449263e-01 -7.280974e-01 -7.118811e-01 -6.916383e-01 -6.726627e-01 -6.493958e-01 -6.279559e-01 -6.020522e-01 -5.784303e-01 -5.502650e-01 -5.247296e-01 -4.946601e-01 -4.674675e-01 -4.358303e-01 -4.072260e-01 -3.743360e-01 -3.445568e-01 -3.107077e-01 -2.799825e-01 -2.454476e-01 -2.139985e-01 -1.790322e-01 -1.470742e-01 -1.119131e-01 -7.965428e-02 -4.451941e-02 -1.216117e-02 2.274033e-02 5.500245e-02 8.947461e-02 1.214497e-01 1.553048e-01 
1.887446e-01 2.221445e-01 2.532779e-01 2.856981e-01 3.159762e-01 3.472377e-01 3.764673e-01 4.063858e-01 4.343650e-01 4.627474e-01 4.892633e-01 5.159067e-01 5.407348e-01 5.654257e-01 5.883304e-01 6.108457e-01 6.315827e-01 6.516920e-01 6.700127e-01 6.874822e-01 7.031389e-01 7.177366e-01 7.304896e-01 7.419914e-01 7.516170e-01 7.598136e-01 7.661120e-01 7.708156e-01 7.736187e-01 7.746705e-01 7.738487e-01 7.711246e-01 7.665925e-01 7.600085e-01 7.517284e-01 7.412453e-01 7.292285e-01 7.148540e-01 6.991609e-01 6.809515e-01 6.616894e-01 6.397500e-01 6.170698e-01 5.915528e-01 5.656453e-01 5.367483e-01 5.078403e-01 4.758039e-01 4.441549e-01 4.092599e-01 3.751596e-01 3.377243e-01 3.014917e-01 2.618698e-01 2.238524e-01 1.824314e-01 1.430060e-01 1.002052e-01 5.977858e-02 1.604769e-02 -2.494328e-02 -6.912600e-02 -1.102150e-01 -1.543454e-01 -1.950393e-01 -2.385910e-01 -2.783750e-01 -3.208047e-01 -3.591499e-01 -3.999048e-01 -4.362789e-01 -4.748056e-01 -5.086869e-01 -5.444429e-01 -5.753360e-01 -6.078034e-01 -6.352569e-01 -6.639573e-01 -6.875821e-01 -7.120936e-01 -7.315792e-01 -7.515526e-01 -7.666811e-01 -7.818555e-01 -7.925098e-01 -8.027249e-01 -8.088909e-01 -8.140945e-01 -8.158554e-01 -8.161039e-01 -8.136281e-01 -8.090804e-01 -8.026038e-01 -7.935080e-01 -7.833134e-01 -7.699880e-01 -7.563853e-01 -7.391982e-01 -7.225067e-01 -7.018540e-01 -6.823894e-01 -6.586769e-01 -6.367431e-01 -6.103720e-01 -5.862580e-01 -5.576147e-01 -5.315940e-01 -5.010449e-01 -4.733775e-01 -4.412658e-01 -4.122006e-01 -3.788463e-01 -3.486228e-01 -3.143233e-01 -2.831728e-01 -2.482041e-01 -2.163503e-01 -1.809679e-01 -1.486267e-01 -1.130674e-01 -8.044660e-02 -4.493041e-02 -1.222990e-02 2.303828e-02 5.562559e-02 9.045297e-02 1.227397e-01 1.569425e-01 
1.919263e-01 2.256385e-01 2.571587e-01 2.898930e-01 3.205736e-01 3.521556e-01 3.818058e-01 4.120544e-01 4.404732e-01 4.691973e-01 4.961710e-01 5.231672e-01 5.484685e-01 5.735210e-01 5.969089e-01 6.197900e-01 6.410129e-01 6.614853e-01 6.802846e-01 6.981060e-01 7.142225e-01 7.291509e-01 7.423325e-01 7.541328e-01 7.641427e-01 7.725942e-01 7.792201e-01 7.841241e-01 7.871869e-01 7.883740e-01 7.877351e-01 7.850723e-01 7.806398e-01 7.740361e-01 7.657684e-01 7.551791e-01 7.430868e-01 7.285168e-01 7.126617e-01 6.941666e-01 6.746593e-01 6.523451e-01 6.293409e-01 6.033627e-01 5.770575e-01 5.476169e-01 5.182420e-01 4.855844e-01 4.534032e-01 4.178144e-01 3.831199e-01 3.449238e-01 3.080370e-01 2.675930e-01 2.288633e-01 1.865645e-01 1.463708e-01 1.026431e-01 6.139500e-02 1.669572e-02 -2.516493e-02 -7.034852e-02 -1.123477e-01 -1.575002e-01 -1.991335e-01 -2.437150e-01 -2.844522e-01 -3.279026e-01 -3.671954e-01 -4.089421e-01 -4.462347e-01 -4.857016e-01 -5.204458e-01 -5.570653e-01 -5.887374e-01 -6.219646e-01 -6.500855e-01 -6.794150e-01 -7.035704e-01 -7.285547e-01 -7.484145e-01 -7.686828e-01 -7.840172e-01 -7.992938e-01 -8.099840e-01 -8.201028e-01 -8.261437e-01 -8.310574e-01 -8.325519e-01 -8.323335e-01 -8.294776e-01 -8.243130e-01 -8.173752e-01 -8.075472e-01 -7.968437e-01 -7.827094e-01 -7.685801e-01 -7.505456e-01 -7.333334e-01 -7.118288e-01 -6.918651e-01 -6.673233e-01 -6.449202e-01 -6.177614e-01 -5.932089e-01 -5.638310e-01 -5.373996e-01 -5.061738e-01 -4.781178e-01 -4.453876e-01 -4.159497e-01 -3.820325e-01 -3.514468e-01 -3.166352e-01 -2.851289e-01 -2.496936e-01 -2.174873e-01 -1.816783e-01 -1.489860e-01 -1.130343e-01 -8.006199e-02 -4.418165e-02 -1.112767e-02 2.448242e-02 5.742728e-02 9.258054e-02 1.252315e-01 1.597504e-01 
1.946260e-01 2.287710e-01 2.606785e-01 2.938472e-01 3.249180e-01 3.569422e-01 3.869909e-01 4.176941e-01 4.465234e-01 4.757174e-01 5.031150e-01 5.305974e-01 5.563348e-01 5.818879e-01 6.057201e-01 6.291117e-01 6.507799e-01 6.717658e-01 6.910017e-01 7.093304e-01 7.258629e-01 7.412813e-01 7.548448e-01 7.671056e-01 7.774496e-01 7.863195e-01 7.932184e-01 7.984863e-01 8.017492e-01 8.032344e-01 8.027134e-01 8.002732e-01 7.958698e-01 7.894056e-01 7.810753e-01 7.705370e-01 7.582904e-01 7.436801e-01 7.275819e-01 7.089546e-01 6.891201e-01 6.665831e-01 6.431738e-01 6.168850e-01 5.901029e-01 5.602673e-01 5.303494e-01 4.972163e-01 4.644304e-01 4.282894e-01 3.929313e-01 3.541095e-01 3.165018e-01 2.753615e-01 2.358543e-01 1.927913e-01 1.517644e-01 1.072072e-01 6.507198e-02 1.948146e-02 -2.331633e-02 -6.944805e-02 -1.124272e-01 -1.585778e-01 -2.012227e-01 -2.468425e-01 -2.886071e-01 -3.331235e-01 -3.734387e-01 -4.162627e-01 -4.545483e-01 -4.950839e-01 -5.307635e-01 -5.684200e-01 -6.009404e-01 -6.351470e-01 -6.639996e-01 -6.942237e-01 -7.189678e-01 -7.447340e-01 -7.650187e-01 -7.859310e-01 -8.015140e-01 -8.172753e-01 -8.280351e-01 -8.384650e-01 -8.444042e-01 -8.494499e-01 -8.506886e-01 -8.504272e-01 -8.471858e-01 -8.418169e-01 -8.343920e-01 -8.242192e-01 -8.129553e-01 -7.983617e-01 -7.836243e-01 -7.650434e-01 -7.471964e-01 -7.250847e-01 -7.044753e-01 -6.792888e-01 -6.562399e-01 -6.284179e-01 -6.032271e-01 -5.731823e-01 -5.461247e-01 -5.142393e-01 -4.855731e-01 -4.521986e-01 -4.221697e-01 -3.876291e-01 -3.564744e-01 -3.210645e-01 -2.890139e-01 -2.530078e-01 -2.202839e-01 -1.839326e-01 -1.507503e-01 -1.142842e-01 -8.084913e-02 -4.448027e-02 -1.098852e-02 2.508784e-02 5.844925e-02 9.405147e-02 1.271029e-01 1.620594e-01 
1.985108e-01 2.330511e-01 2.654399e-01 2.990083e-01 3.305799e-01 3.630145e-01 3.935875e-01 4.247166e-01 4.540958e-01 4.837341e-01 5.117072e-01 5.396522e-01 5.659876e-01 5.920186e-01 6.164650e-01 6.403439e-01 6.626326e-01 6.841065e-01 7.039563e-01 7.227619e-01 7.398864e-01 7.557571e-01 7.698735e-01 7.825473e-01 7.933875e-01 8.026157e-01 8.099370e-01 8.154935e-01 8.190901e-01 8.207804e-01 8.204920e-01 8.181612e-01 8.138811e-01 8.074209e-01 7.990998e-01 7.884536e-01 7.761016e-01 7.612676e-01 7.449523e-01 7.259846e-01 7.058267e-01 6.828346e-01 6.590027e-01 6.321479e-01 6.048511e-01 5.743443e-01 5.438264e-01 5.099231e-01 4.764571e-01 4.394537e-01 4.033391e-01 3.635693e-01 3.251310e-01 2.829635e-01 2.425526e-01 1.983898e-01 1.563871e-01 1.106646e-01 6.748369e-02 2.067032e-02 -2.323843e-02 -7.064042e-02 -1.147874e-01 -1.622430e-01 -2.060994e-01 -2.530424e-01 -2.960431e-01 -3.418807e-01 -3.834315e-01 -4.275498e-01 -4.670395e-01 -5.088135e-01 -5.456297e-01 -5.844355e-01 -6.179862e-01 -6.532168e-01 -6.829542e-01 -7.140392e-01 -7.394864e-01 -7.659144e-01 -7.866913e-01 -8.080341e-01 -8.238802e-01 -8.398173e-01 -8.506073e-01 -8.609474e-01 -8.666962e-01 -8.713910e-01 -8.722463e-01 -8.713947e-01 -8.676174e-01 -8.614560e-01 -8.533902e-01 -8.422717e-01 -8.303102e-01 -8.146724e-01 -7.992233e-01 -7.795532e-01 -7.610129e-01 -7.378134e-01 -7.165492e-01 -6.903120e-01 -6.666550e-01 -6.378429e-01 -6.120892e-01 -5.811272e-01 -5.535450e-01 -5.208189e-01 -4.916567e-01 -4.575160e-01 -4.270103e-01 -3.917725e-01 -3.601531e-01 -3.241083e-01 -2.916000e-01 -2.550140e-01 -2.218368e-01 -1.849538e-01 -1.513209e-01 -1.143645e-01 -8.048045e-02 -4.365556e-02 -9.715048e-03 2.679036e-02 6.060268e-02 9.661471e-02 1.301227e-01 1.654778e-01 
2.019780e-01 2.370329e-01 2.698920e-01 3.039777e-01 3.360267e-01 3.689901e-01 4.000551e-01 4.317313e-01 4.616227e-01 4.918308e-01 5.203388e-01 5.488778e-01 5.757694e-01 6.024168e-01 6.274354e-01 6.519474e-01 6.748150e-01 6.969293e-01 7.173514e-01 7.367925e-01 7.544663e-01 7.709527e-01 7.855773e-01 7.988303e-01 8.101184e-01 8.198724e-01 8.275631e-01 8.335755e-01 8.374465e-01 8.395075e-01 8.393860e-01 8.373279e-01 8.330985e-01 8.268029e-01 8.184126e-01 8.078164e-01 7.952759e-01 7.803739e-01 7.637555e-01 7.446019e-01 7.240341e-01 7.007407e-01 6.764008e-01 6.491339e-01 6.212404e-01 5.902160e-01 5.590205e-01 5.245000e-01 4.902815e-01 4.525664e-01 4.156277e-01 3.750563e-01 3.357233e-01 2.926678e-01 2.512914e-01 2.061571e-01 1.631169e-01 1.163422e-01 7.205241e-02 2.410970e-02 -2.097626e-02 -6.957952e-02 -1.149646e-01 -1.636854e-01 -2.088274e-01 -2.570883e-01 -3.014025e-01 -3.485946e-01 -3.914606e-01 -4.369496e-01 -4.777232e-01 -5.208586e-01 -5.588900e-01 -5.990178e-01 -6.336740e-01 -6.701530e-01 -7.008453e-01 -7.330684e-01 -7.592823e-01 -7.867002e-01 -8.080257e-01 -8.301746e-01 -8.463327e-01 -8.628622e-01 -8.737236e-01 -8.844220e-01 -8.900130e-01 -8.948246e-01 -8.953189e-01 -8.943494e-01 -8.900442e-01 -8.835511e-01 -8.748317e-01 -8.631996e-01 -8.504995e-01 -8.342045e-01 -8.179672e-01 -7.975361e-01 -7.781855e-01 -7.541584e-01 -7.320807e-01 -7.049806e-01 -6.805187e-01 -6.508327e-01 -6.242895e-01 -5.924605e-01 -5.641078e-01 -5.305341e-01 -5.006231e-01 -4.656625e-01 -4.344327e-01 -3.984086e-01 -3.660927e-01 -3.292991e-01 -2.961256e-01 -2.588308e-01 -2.250222e-01 -1.874710e-01 -1.532420e-01 -1.156570e-01 -8.121158e-02 -4.379456e-02 -9.324537e-03 2.774178e-02 6.205687e-02 9.860563e-02 1.325968e-01 1.684729e-01 
2.065544e-01 2.420802e-01 2.755103e-01 3.100748e-01 3.427190e-01 3.761777e-01 4.078685e-01 4.400637e-01 4.706156e-01 5.013705e-01 5.305748e-01 5.596891e-01 5.873099e-01 6.145576e-01 6.403310e-01 6.654609e-01 6.890965e-01 7.118349e-01 7.330219e-01 7.530782e-01 7.714933e-01 7.885684e-01 8.038880e-01 8.176838e-01 8.295970e-01 8.398277e-01 8.480509e-01 8.544540e-01 8.587449e-01 8.610926e-01 8.612623e-01 8.593711e-01 8.552931e-01 8.490323e-01 8.406485e-01 8.299462e-01 8.172677e-01 8.021144e-01 7.852185e-01 7.656679e-01 7.446918e-01 7.208587e-01 6.959902e-01 6.680469e-01 6.395151e-01 6.076854e-01 5.757514e-01 5.403050e-01 5.052547e-01 4.665018e-01 4.286424e-01 3.869290e-01 3.465877e-01 3.022935e-01 2.598208e-01 2.133576e-01 1.691321e-01 1.209452e-01 7.538095e-02 2.595075e-02 -2.049584e-02 -7.065169e-02 -1.174757e-01 -1.678005e-01 -2.144453e-01 -2.643433e-01 -3.102018e-01 -3.590404e-01 -4.034610e-01 -4.505761e-01 -4.928753e-01 -5.375804e-01 -5.770611e-01 -6.186601e-01 -6.546372e-01 -6.924419e-01 -7.242725e-01 -7.576251e-01 -7.847436e-01 -8.130441e-01 -8.349978e-01 -8.577363e-01 -8.742184e-01 -8.910086e-01 -9.018819e-01 -9.124927e-01 -9.177996e-01 -9.221780e-01 -9.221315e-01 -9.204112e-01 -9.153664e-01 -9.078564e-01 -8.982679e-01 -8.854220e-01 -8.717929e-01 -8.541647e-01 -8.369983e-01 -8.151895e-01 -7.949531e-01 -7.695665e-01 -7.466702e-01 -7.182743e-01 -6.930667e-01 -6.621755e-01 -6.349523e-01 -6.020197e-01 -5.730380e-01 -5.384617e-01 -5.079566e-01 -4.720872e-01 -4.402840e-01 -4.034352e-01 -3.705570e-01 -3.330126e-01 -2.992824e-01 -2.613014e-01 -2.269399e-01 -1.887590e-01 -1.539808e-01 -1.158147e-01 -8.082421e-02 -4.286661e-02 -7.854903e-03 2.971988e-02 6.457581e-02 1.016103e-01 1.361459e-01 1.724951e-01 
2.107976e-01 2.469104e-01 2.808849e-01 3.160412e-01 3.492423e-01 3.833095e-01 4.155804e-01 4.484106e-01 4.795740e-01 5.109971e-01 5.408483e-01 5.706667e-01 5.989690e-01 6.269547e-01 6.534377e-01 6.793324e-01 7.036937e-01 7.272118e-01 7.491231e-01 7.699579e-01 7.890743e-01 8.069070e-01 8.228801e-01 8.373909e-01 8.498842e-01 8.607647e-01 8.694698e-01 8.764358e-01 8.810885e-01 8.838923e-01 8.842864e-01 8.827278e-01 8.787260e-01 8.726616e-01 8.642012e-01 8.535510e-01 8.406451e-01 8.253962e-01 8.081299e-01 7.883370e-01 7.668589e-01 7.426415e-01 7.171532e-01 6.886905e-01 6.594343e-01 6.269585e-01 5.942065e-01 5.579956e-01 5.220417e-01 4.824131e-01 4.435679e-01 4.008734e-01 3.594642e-01 3.140872e-01 2.704615e-01 2.228167e-01 1.773491e-01 1.278838e-01 8.098568e-02 3.018270e-02 -1.768872e-02 -6.930697e-02 -1.176402e-01 -1.695091e-01 -2.177334e-01 -2.692443e-01 -3.167292e-01 -3.672313e-01 -4.132925e-01 -4.620972e-01 -5.060092e-01 -5.523986e-01 -5.934150e-01 -6.366553e-01 -6.740361e-01 -7.133953e-01 -7.464416e-01 -7.812135e-01 -8.093067e-01 -8.388407e-01 -8.614851e-01 -8.852219e-01 -9.020832e-01 -9.195940e-01 -9.305286e-01 -9.415527e-01 -9.466197e-01 -9.510929e-01 -9.505435e-01 -9.486096e-01 -9.428528e-01 -9.348520e-01 -9.244025e-01 -9.108357e-01 -8.962541e-01 -8.777309e-01 -8.595685e-01 -8.367472e-01 -8.155056e-01 -7.890396e-01 -7.651502e-01 -7.356486e-01 -7.094704e-01 -6.774768e-01 -6.493091e-01 -6.152970e-01 -5.853978e-01 -5.497772e-01 -5.183819e-01 -4.815113e-01 -4.488476e-01 -4.110454e-01 -3.773402e-01 -3.388941e-01 -3.043749e-01 -2.655464e-01 -2.304382e-01 -1.914645e-01 -1.559845e-01 -1.170787e-01 -8.143105e-02 -4.278290e-02 -7.155077e-03 3.106823e-02 6.650601e-02 1.041566e-01 1.392494e-01 1.761938e-01 
2.160511e-01 2.527002e-01 2.873283e-01 3.230335e-01 3.569178e-01 3.915586e-01 4.245524e-01 4.579907e-01 4.899239e-01 5.219959e-01 5.526670e-01 5.831766e-01 6.123468e-01 6.410626e-01 6.684531e-01 6.951078e-01 7.204013e-01 7.446947e-01 7.675419e-01 7.891482e-01 8.091778e-01 8.277552e-01 8.445889e-01 8.597924e-01 8.730625e-01 8.845576e-01 8.939255e-01 9.014026e-01 9.065774e-01 9.097652e-01 9.105199e-01 9.091982e-01 9.053814e-01 8.993908e-01 8.909341e-01 8.801840e-01 8.671024e-01 8.515749e-01 8.339622e-01 8.137123e-01 7.917306e-01 7.668830e-01 7.407495e-01 7.114921e-01 6.814647e-01 6.480407e-01 6.144047e-01 5.771035e-01 5.401620e-01 4.993119e-01 4.593801e-01 4.153424e-01 3.727477e-01 3.259134e-01 2.809999e-01 2.317901e-01 1.849276e-01 1.337951e-01 8.539078e-02 3.282531e-02 -1.666433e-02 -7.013133e-02 -1.201891e-01 -1.739795e-01 -2.240203e-01 -2.775062e-01 -3.268745e-01 -3.793785e-01 -4.273529e-01 -4.781517e-01 -5.239577e-01 -5.722903e-01 -6.151211e-01 -6.602018e-01 -6.992483e-01 -7.402852e-01 -7.747747e-01 -8.109951e-01 -8.402370e-01 -8.709209e-01 -8.943572e-01 -9.188788e-01 -9.361322e-01 -9.540080e-01 -9.649201e-01 -9.758561e-01 -9.805058e-01 -9.844360e-01 -9.831294e-01 -9.802330e-01 -9.734636e-01 -9.641522e-01 -9.525356e-01 -9.374096e-01 -9.216072e-01 -9.013871e-01 -8.820347e-01 -8.574842e-01 -8.351404e-01 -8.069977e-01 -7.821198e-01 -7.510502e-01 -7.239962e-01 -6.905712e-01 -6.616208e-01 -6.263190e-01 -5.957027e-01 -5.589245e-01 -5.268510e-01 -4.889389e-01 -4.556148e-01 -4.168706e-01 -3.825106e-01 -3.432071e-01 -3.080340e-01 -2.684212e-01 -2.326607e-01 -1.929666e-01 -1.568389e-01 -1.172689e-01 -8.098089e-02 -4.171612e-02 -5.456178e-03 3.334565e-02 6.940974e-02 1.076119e-01 1.433310e-01 1.808126e-01 
2.210786e-01 2.583744e-01 2.936086e-01 3.299680e-01 3.644778e-01 3.997969e-01 4.334509e-01 4.676055e-01 5.002454e-01 5.330814e-01 5.645124e-01 5.958382e-01 6.258215e-01 6.554040e-01 6.836534e-01 7.112166e-01 7.373999e-01 7.626287e-01 7.863739e-01 8.089213e-01 8.298286e-01 8.493275e-01 8.669858e-01 8.830626e-01 8.970697e-01 9.093606e-01 9.193446e-01 9.275115e-01 9.331524e-01 9.368985e-01 9.379464e-01 9.370298e-01 9.333191e-01 9.275647e-01 9.190220e-01 9.083293e-01 8.949741e-01 8.793220e-01 8.612600e-01 8.407066e-01 8.181177e-01 7.927954e-01 7.659169e-01 7.360245e-01 7.051337e-01 6.709267e-01 6.363247e-01 5.981043e-01 5.601043e-01 5.182086e-01 4.771295e-01 4.319269e-01 3.880938e-01 3.399793e-01 2.937292e-01 2.431254e-01 1.948190e-01 1.421789e-01 9.221503e-02 3.802859e-02 -1.314011e-02 -6.833880e-02 -1.201915e-01 -1.758174e-01 -2.277549e-01 -2.831674e-01 -3.345076e-01 -3.890090e-01 -4.389913e-01 -4.918299e-01 -5.396272e-01 -5.900048e-01 -6.347467e-01 -6.818317e-01 -7.226365e-01 -7.655824e-01 -8.016011e-01 -8.395729e-01 -8.700408e-01 -9.022511e-01 -9.265475e-01 -9.523023e-01 -9.700084e-01 -9.887628e-01 -9.997091e-01 -1.011125e+00 -1.015414e+00 -1.019407e+00 -1.017401e+00 -1.014165e+00 -1.006438e+00 -9.964299e-01 -9.836867e-01 -9.675767e-01 -9.505599e-01 -9.291502e-01 -9.085593e-01 -8.826937e-01 -8.591288e-01 -8.296138e-01 -8.035527e-01 -7.711049e-01 -7.429109e-01 -7.081352e-01 -6.780848e-01 -6.414786e-01 -6.097970e-01 -5.717702e-01 -5.386631e-01 -4.995631e-01 -4.652384e-01 -4.253702e-01 -3.900477e-01 -3.496873e-01 -3.135972e-01 -2.729974e-01 -2.363724e-01 -1.957624e-01 -1.588273e-01 -1.184109e-01 -8.137337e-02 -4.132659e-02 -4.370748e-03 3.515767e-02 7.187302e-02 1.107590e-01 1.470978e-01 1.852360e-01 
2.269914e-01 2.648756e-01 3.008350e-01 3.378012e-01 3.730725e-01 4.090336e-01 4.435004e-01 4.783459e-01 5.118618e-01 5.454468e-01 5.778234e-01 6.099601e-01 6.409582e-01 6.714097e-01 7.007343e-01 7.292140e-01 7.565148e-01 7.826893e-01 8.075679e-01 8.310658e-01 8.530882e-01 8.735129e-01 8.922288e-01 9.091743e-01 9.241400e-01 9.372090e-01 9.480128e-01 9.568344e-01 9.631208e-01 9.673684e-01 9.688601e-01 9.682661e-01 9.647799e-01 9.591489e-01 9.506052e-01 9.398238e-01 9.262466e-01 9.102882e-01 8.917975e-01 8.707219e-01 8.475183e-01 8.214663e-01 7.938105e-01 7.629941e-01 7.311860e-01 6.958762e-01 6.602354e-01 6.207491e-01 5.816010e-01 5.382905e-01 4.959588e-01 4.492038e-01 4.040111e-01 3.542144e-01 3.064899e-01 2.540789e-01 2.041720e-01 1.496031e-01 9.790167e-02 4.166830e-02 -1.138190e-02 -6.873922e-02 -1.226165e-01 -1.805012e-01 -2.345940e-01 -2.923461e-01 -3.459460e-01 -4.028393e-01 -4.551428e-01 -5.103868e-01 -5.605071e-01 -6.132534e-01 -6.602439e-01 -7.095987e-01 -7.524877e-01 -7.975300e-01 -8.353686e-01 -8.751776e-01 -9.071003e-01 -9.407942e-01 -9.660889e-01 -9.928788e-01 -1.011060e+00 -1.030317e+00 -1.041186e+00 -1.052515e+00 -1.056198e+00 -1.059503e+00 -1.056439e+00 -1.051957e+00 -1.042843e+00 -1.031132e+00 -1.016822e+00 -9.986965e-01 -9.800822e-01 -9.565067e-01 -9.344076e-01 -9.063766e-01 -8.814669e-01 -8.499013e-01 -8.226830e-01 -7.883668e-01 -7.591863e-01 -7.227475e-01 -6.918394e-01 -6.537664e-01 -6.213065e-01 -5.819831e-01 -5.481341e-01 -5.078766e-01 -4.728170e-01 -4.319036e-01 -3.958387e-01 -3.545257e-01 -3.176839e-01 -2.762107e-01 -2.388308e-01 -1.974181e-01 -1.597338e-01 -1.185783e-01 -8.080443e-02 -4.007454e-02 -2.398507e-03 3.776733e-02 7.518876e-02 1.146795e-01 1.517178e-01 1.904439e-01 