# vtk DataFile Version 2.0
Comment goes here
ASCII

DATASET STRUCTURED_POINTS
FIELD FieldData 1
TIME 1 1 double
0.12000000
DIMENSIONS    128   128   1

ORIGIN    0.000   0.000   0.000
SPACING   0.039062 0.039062   1.000

POINT_DATA   16384
SCALARS uX double
LOOKUP_TABLE default

-3.158858e-01 -2.695966e-01 -2.232230e-01 -1.766872e-01 -1.300820e-01 -8.376036e-02 -3.735751e-02 8.327316e-03 5.412878e-02 9.879136e-02 1.436256e-01 1.869157e-01 2.304474e-01 2.720476e-01 3.139694e-01 3.535922e-01 3.936217e-01 4.310072e-01 4.688848e-01 5.037983e-01 5.392853e-01 5.715161e-01 6.043930e-01 6.337527e-01 6.638187e-01 6.901405e-01 7.172127e-01 7.403505e-01 7.642638e-01 7.840915e-01 8.046981e-01 8.211090e-01 8.382789e-01 8.511852e-01 8.648059e-01 8.741377e-01 8.841146e-01 8.898199e-01 8.960766e-01 8.981210e-01 9.005994e-01 8.989659e-01 8.976278e-01 8.923172e-01 8.871442e-01 8.781757e-01 8.691710e-01 8.565832e-01 8.437727e-01 8.276239e-01 8.110576e-01 7.914278e-01 7.711810e-01 7.481724e-01 7.243472e-01 6.980854e-01 6.708120e-01 6.414469e-01 6.108844e-01 5.785909e-01 5.449281e-01 5.099071e-01 4.733634e-01 4.358419e-01 3.966675e-01 3.568992e-01 3.153755e-01 2.736414e-01 2.300814e-01 1.866899e-01 1.414378e-01 9.672533e-02 5.015679e-02 4.488311e-03 -4.299024e-02 -8.922099e-02 -1.371728e-01 -1.835432e-01 -2.315025e-01 -2.775611e-01 -3.250347e-01 -3.703029e-01 -4.167730e-01 -4.607466e-01 -5.056748e-01 -5.478282e-01 -5.906611e-01 -6.304529e-01 -6.706296e-01 -7.075107e-01 -7.444725e-01 -7.778975e-01 -8.110999e-01 -8.405396e-01 -8.694665e-01 -8.944247e-01 -9.186039e-01 -9.386340e-01 -9.576540e-01 -9.723771e-01 -9.859033e-01 -9.950254e-01 -1.002815e+00 -1.006141e+00 -1.008054e+00 -1.005500e+00 -1.001508e+00 -9.931051e-01 -9.832929e-01 -9.691883e-01 -9.537508e-01 -9.342027e-01 -9.134367e-01 -8.888025e-01 -8.630940e-01 -8.338149e-01 -8.036225e-01 -7.702053e-01 -7.360420e-01 -6.990392e-01 -6.614532e-01 -6.214439e-01 -5.810007e-01 -5.385725e-01 -4.958389e-01 -4.515721e-01 -4.071029e-01 -3.615586e-01 
-3.148203e-01 -2.685541e-01 -2.221948e-01 -1.756865e-01 -1.291030e-01 -8.281233e-02 -3.643746e-02 9.214182e-03 5.498250e-02 9.961078e-02 1.444077e-01 1.876634e-01 2.311544e-01 2.727208e-01 3.145992e-01 3.541895e-01 3.941735e-01 4.315280e-01 4.693584e-01 5.042428e-01 5.396810e-01 5.718846e-01 6.047114e-01 6.340460e-01 6.640606e-01 6.903594e-01 7.173790e-01 7.404959e-01 7.643556e-01 7.841646e-01 8.047170e-01 8.211115e-01 8.382269e-01 8.511192e-01 8.646853e-01 8.740060e-01 8.839287e-01 8.896261e-01 8.958292e-01 8.978691e-01 9.002951e-01 8.986608e-01 8.972714e-01 8.919638e-01 8.867410e-01 8.777793e-01 8.687264e-01 8.561487e-01 8.432915e-01 8.271559e-01 8.105444e-01 7.909301e-01 7.706395e-01 7.476479e-01 7.237804e-01 6.975361e-01 6.702216e-01 6.408736e-01 6.102711e-01 5.779934e-01 5.442921e-01 5.092846e-01 4.727039e-01 4.351929e-01 3.959835e-01 3.562223e-01 3.146663e-01 2.729356e-01 2.293465e-01 1.859547e-01 1.406779e-01 9.596186e-02 4.937375e-02 3.698980e-03 -4.379280e-02 -9.003182e-02 -1.379894e-01 -1.843691e-01 -2.323257e-01 -2.783938e-01 -3.258551e-01 -3.711318e-01 -4.175794e-01 -4.615596e-01 -5.064545e-01 -5.486117e-01 -5.914003e-01 -6.311922e-01 -6.713137e-01 -7.081908e-01 -7.450869e-01 -7.785029e-01 -8.116298e-01 -8.410555e-01 -8.698981e-01 -8.948371e-01 -9.189246e-01 -9.389303e-01 -9.578527e-01 -9.725467e-01 -9.859712e-01 -9.950600e-01 -1.002746e+00 -1.006035e+00 -1.007844e+00 -1.005252e+00 -1.001158e+00 -9.927156e-01 -9.828058e-01 -9.686628e-01 -9.531339e-01 -9.335501e-01 -9.127008e-01 -8.880350e-01 -8.622529e-01 -8.329476e-01 -8.026927e-01 -7.692558e-01 -7.350416e-01 -6.980266e-01 -6.604018e-01 -6.203881e-01 -5.799181e-01 -5.374932e-01 -4.947444e-01 -4.504883e-01 -4.060146e-01 -3.604876e-01 
-3.166091e-01 -2.700707e-01 -2.234626e-01 -1.766963e-01 -1.298742e-01 -8.334121e-02 -3.673884e-02 9.138688e-03 5.512308e-02 9.996075e-02 1.449625e-01 1.884115e-01 2.320968e-01 2.738408e-01 3.159037e-01 3.556565e-01 3.958158e-01 4.333185e-01 4.713155e-01 5.063345e-01 5.419311e-01 5.742561e-01 6.072334e-01 6.366765e-01 6.668340e-01 6.932289e-01 7.203837e-01 7.435846e-01 7.675716e-01 7.874527e-01 8.081243e-01 8.245793e-01 8.418053e-01 8.547465e-01 8.684145e-01 8.777723e-01 8.877874e-01 8.935099e-01 8.997954e-01 9.018483e-01 9.043460e-01 9.027120e-01 9.013828e-01 8.960626e-01 8.908878e-01 8.819001e-01 8.728823e-01 8.602650e-01 8.474294e-01 8.312406e-01 8.146365e-01 7.949555e-01 7.746575e-01 7.515860e-01 7.276957e-01 7.013588e-01 6.740058e-01 6.445531e-01 6.138960e-01 5.815022e-01 5.477297e-01 5.125951e-01 4.759262e-01 4.382778e-01 3.989626e-01 3.590539e-01 3.173738e-01 2.754854e-01 2.317533e-01 1.881935e-01 1.427536e-01 9.785865e-02 5.108686e-02 5.221487e-03 -4.247545e-02 -8.891755e-02 -1.371023e-01 -1.836983e-01 -2.319042e-01 -2.782023e-01 -3.259348e-01 -3.714551e-01 -4.181944e-01 -4.624309e-01 -5.076358e-01 -5.500598e-01 -5.931732e-01 -6.332394e-01 -6.736954e-01 -7.108494e-01 -7.480834e-01 -7.817727e-01 -8.152332e-01 -8.449210e-01 -8.740839e-01 -8.992653e-01 -9.236502e-01 -9.438696e-01 -9.630568e-01 -9.779269e-01 -9.915746e-01 -1.000794e+00 -1.008653e+00 -1.012022e+00 -1.013949e+00 -1.011379e+00 -1.007345e+00 -9.988676e-01 -9.889580e-01 -9.747242e-01 -9.591381e-01 -9.394113e-01 -9.184523e-01 -8.935974e-01 -8.676595e-01 -8.381269e-01 -8.076781e-01 -7.739844e-01 -7.395469e-01 -7.022545e-01 -6.643857e-01 -6.240826e-01 -5.833560e-01 -5.406375e-01 -4.976266e-01 -4.530793e-01 -4.083438e-01 -3.625333e-01 
-3.162526e-01 -2.694892e-01 -2.226619e-01 -1.756939e-01 -1.286777e-01 -8.196552e-02 -3.519272e-02 1.084323e-02 5.697643e-02 1.019539e-01 1.470852e-01 1.906576e-01 2.344553e-01 2.763086e-01 3.184688e-01 3.583187e-01 3.985619e-01 4.361507e-01 4.742196e-01 5.093147e-01 5.449720e-01 5.773641e-01 6.103914e-01 6.398930e-01 6.700902e-01 6.965352e-01 7.237198e-01 7.469627e-01 7.709698e-01 7.908854e-01 8.115676e-01 8.280498e-01 8.452772e-01 8.582390e-01 8.718994e-01 8.812717e-01 8.912705e-01 8.970020e-01 9.032626e-01 9.053191e-01 9.077832e-01 9.061478e-01 9.047763e-01 8.994494e-01 8.942230e-01 8.852230e-01 8.761439e-01 8.635078e-01 8.506005e-01 8.343855e-01 8.176984e-01 7.979825e-01 7.775897e-01 7.544732e-01 7.304754e-01 7.040820e-01 6.766083e-01 6.470860e-01 6.162945e-01 5.838168e-01 5.498958e-01 5.146619e-01 4.778305e-01 4.400661e-01 4.005747e-01 3.605328e-01 3.186631e-01 2.766238e-01 2.326896e-01 1.889610e-01 1.433075e-01 9.822592e-02 5.123018e-02 5.160875e-03 -4.276880e-02 -8.943144e-02 -1.378560e-01 -1.846880e-01 -2.331387e-01 -2.796867e-01 -3.276666e-01 -3.734484e-01 -4.204349e-01 -4.649417e-01 -5.103903e-01 -5.530896e-01 -5.964390e-01 -6.367805e-01 -6.774602e-01 -7.148833e-01 -7.523231e-01 -7.862682e-01 -8.199102e-01 -8.498323e-01 -8.791456e-01 -9.045308e-01 -9.290282e-01 -9.494121e-01 -9.686672e-01 -9.836545e-01 -9.973199e-01 -1.006602e+00 -1.014425e+00 -1.017798e+00 -1.019634e+00 -1.017008e+00 -1.012827e+00 -1.004236e+00 -9.941287e-01 -9.797259e-01 -9.638982e-01 -9.439552e-01 -9.227184e-01 -8.976097e-01 -8.713678e-01 -8.415544e-01 -8.107856e-01 -7.767952e-01 -7.420323e-01 -7.044377e-01 -6.662473e-01 -6.256460e-01 -5.846096e-01 -5.416045e-01 -4.983018e-01 -4.534852e-01 -4.084802e-01 -3.624216e-01 
-3.187449e-01 -2.714577e-01 -2.241449e-01 -1.766870e-01 -1.292142e-01 -8.204766e-02 -3.484759e-02 1.160704e-02 5.813897e-02 1.035006e-01 1.490038e-01 1.929276e-01 2.370726e-01 2.792466e-01 3.217317e-01 3.618735e-01 4.024211e-01 4.402749e-01 4.786293e-01 5.139639e-01 5.498891e-01 5.824961e-01 6.157744e-01 6.454674e-01 6.758990e-01 7.025128e-01 7.299153e-01 7.533051e-01 7.775135e-01 7.975545e-01 8.184212e-01 8.350078e-01 8.524026e-01 8.654482e-01 8.792582e-01 8.886939e-01 8.988239e-01 9.045981e-01 9.109706e-01 9.130489e-01 9.156046e-01 9.139694e-01 9.126679e-01 9.073189e-01 9.021397e-01 8.930946e-01 8.840383e-01 8.713333e-01 8.584231e-01 8.421147e-01 8.253977e-01 8.055635e-01 7.851125e-01 7.618528e-01 7.377675e-01 7.112059e-01 6.836144e-01 6.538993e-01 6.229590e-01 5.902641e-01 5.561627e-01 5.206877e-01 4.836435e-01 4.456146e-01 4.058772e-01 3.655473e-01 3.233979e-01 2.810470e-01 2.367983e-01 1.927339e-01 1.467305e-01 1.012883e-01 5.390637e-02 7.450387e-03 -4.090227e-02 -8.797861e-02 -1.368631e-01 -1.841367e-01 -2.330838e-01 -2.801012e-01 -3.286124e-01 -3.748908e-01 -4.224405e-01 -4.674684e-01 -5.135072e-01 -5.567474e-01 -6.007070e-01 -6.416020e-01 -6.829020e-01 -7.208810e-01 -7.589387e-01 -7.934290e-01 -8.276716e-01 -8.581124e-01 -8.879917e-01 -9.138515e-01 -9.388617e-01 -9.596574e-01 -9.793538e-01 -9.946719e-01 -1.008690e+00 -1.018206e+00 -1.026279e+00 -1.029776e+00 -1.031748e+00 -1.029130e+00 -1.024968e+00 -1.016266e+00 -1.006059e+00 -9.914325e-01 -9.753945e-01 -9.551236e-01 -9.335773e-01 -9.080511e-01 -8.814159e-01 -8.511131e-01 -8.198852e-01 -7.853526e-01 -7.500835e-01 -7.119135e-01 -6.731880e-01 -6.319959e-01 -5.904123e-01 -5.468168e-01 -5.029687e-01 -4.575752e-01 -4.120378e-01 -3.654254e-01 
-3.190488e-01 -2.712881e-01 -2.235233e-01 -1.756353e-01 -1.277540e-01 -8.019984e-02 -3.263296e-02 1.416956e-02 6.102994e-02 1.067033e-01 1.525004e-01 1.967035e-01 2.411119e-01 2.835366e-01 3.262579e-01 3.666249e-01 4.073846e-01 4.454405e-01 4.839850e-01 5.195004e-01 5.555951e-01 5.883629e-01 6.217911e-01 6.516257e-01 6.821881e-01 7.089246e-01 7.364391e-01 7.599335e-01 7.842354e-01 8.043635e-01 8.253052e-01 8.419624e-01 8.594141e-01 8.725143e-01 8.863634e-01 8.958388e-01 9.059902e-01 9.117900e-01 9.181660e-01 9.202561e-01 9.227973e-01 9.211603e-01 9.198256e-01 9.144608e-01 9.092287e-01 9.001529e-01 8.910228e-01 8.782712e-01 8.652649e-01 8.488922e-01 8.320553e-01 8.121372e-01 7.915410e-01 7.681757e-01 7.439185e-01 7.172277e-01 6.894363e-01 6.595664e-01 6.283973e-01 5.955201e-01 5.611603e-01 5.254741e-01 4.881415e-01 4.498710e-01 4.098155e-01 3.692127e-01 3.267157e-01 2.840598e-01 2.394349e-01 1.950331e-01 1.486259e-01 1.028136e-01 5.500189e-02 8.143564e-03 -4.066311e-02 -8.817338e-02 -1.375338e-01 -1.852715e-01 -2.347134e-01 -2.822233e-01 -3.312444e-01 -3.780403e-01 -4.261103e-01 -4.716761e-01 -5.182395e-01 -5.620314e-01 -6.065122e-01 -6.479635e-01 -6.897717e-01 -7.283003e-01 -7.668416e-01 -8.018606e-01 -8.365485e-01 -8.674806e-01 -8.977520e-01 -9.240475e-01 -9.493808e-01 -9.705382e-01 -9.904735e-01 -1.006062e+00 -1.020221e+00 -1.029901e+00 -1.038007e+00 -1.041551e+00 -1.043443e+00 -1.040750e+00 -1.036393e+00 -1.027496e+00 -1.016987e+00 -1.002053e+00 -9.856149e-01 -9.649381e-01 -9.429096e-01 -9.168968e-01 -8.897166e-01 -8.588673e-01 -8.270521e-01 -7.919349e-01 -7.560565e-01 -7.172848e-01 -6.779471e-01 -6.361552e-01 -5.939726e-01 -5.497948e-01 -5.053740e-01 -4.594276e-01 -4.133530e-01 -3.662252e-01 
-3.221886e-01 -2.736483e-01 -2.251589e-01 -1.765473e-01 -1.279907e-01 -7.977017e-02 -3.157708e-02 1.583577e-02 6.327581e-02 1.095062e-01 1.558402e-01 2.005509e-01 2.454573e-01 2.883438e-01 3.315285e-01 3.723149e-01 4.135067e-01 4.519427e-01 4.908906e-01 5.267491e-01 5.632203e-01 5.962959e-01 6.300750e-01 6.601833e-01 6.910714e-01 7.180489e-01 7.458641e-01 7.695676e-01 7.941450e-01 8.144512e-01 8.356433e-01 8.524485e-01 8.701247e-01 8.833436e-01 8.973909e-01 9.069559e-01 9.172782e-01 9.231386e-01 9.296572e-01 9.317784e-01 9.344323e-01 9.327961e-01 9.315426e-01 9.261471e-01 9.209626e-01 9.118233e-01 9.027051e-01 8.898558e-01 8.768235e-01 8.603176e-01 8.434147e-01 8.233270e-01 8.026230e-01 7.790509e-01 7.546424e-01 7.277074e-01 6.997198e-01 6.695684e-01 6.381571e-01 6.049614e-01 5.703125e-01 5.342709e-01 4.966016e-01 4.579393e-01 4.174985e-01 3.764673e-01 3.335357e-01 2.904147e-01 2.453049e-01 2.004004e-01 1.534571e-01 1.071034e-01 5.870358e-02 1.126355e-02 -3.818377e-02 -8.631757e-02 -1.363712e-01 -1.847755e-01 -2.349624e-01 -2.831823e-01 -3.329978e-01 -3.805458e-01 -4.294554e-01 -4.758117e-01 -5.232528e-01 -5.678668e-01 -6.132529e-01 -6.555471e-01 -6.982738e-01 -7.376506e-01 -7.771048e-01 -8.129568e-01 -8.485293e-01 -8.802546e-01 -9.113560e-01 -9.383768e-01 -9.644570e-01 -9.862424e-01 -1.006813e+00 -1.022902e+00 -1.037558e+00 -1.047588e+00 -1.056028e+00 -1.059751e+00 -1.061801e+00 -1.059104e+00 -1.054722e+00 -1.045636e+00 -1.034921e+00 -1.019620e+00 -1.002806e+00 -9.816023e-01 -9.590492e-01 -9.323727e-01 -9.045440e-01 -8.729238e-01 -8.403655e-01 -8.044015e-01 -7.677157e-01 -7.280523e-01 -6.878721e-01 -6.451721e-01 -6.021376e-01 -5.570598e-01 -5.117993e-01 -4.649804e-01 -4.180947e-01 -3.701362e-01 
-3.230672e-01 -2.738037e-01 -2.246292e-01 -1.753602e-01 -1.261828e-01 -7.736876e-02 -2.861572e-02 1.933091e-02 6.727522e-02 1.139853e-01 1.607738e-01 2.059160e-01 2.512333e-01 2.945086e-01 3.380656e-01 3.792029e-01 4.207327e-01 4.594851e-01 4.987398e-01 5.348826e-01 5.716313e-01 6.049606e-01 6.389889e-01 6.693213e-01 7.004308e-01 7.276033e-01 7.556124e-01 7.794825e-01 8.042263e-01 8.246717e-01 8.460030e-01 8.629210e-01 8.807095e-01 8.940163e-01 9.081491e-01 9.177783e-01 9.281598e-01 9.340617e-01 9.406128e-01 9.427538e-01 9.454129e-01 9.437747e-01 9.424981e-01 9.370784e-01 9.318409e-01 9.226539e-01 9.134510e-01 9.005286e-01 8.873774e-01 8.707709e-01 8.537126e-01 8.334940e-01 8.125957e-01 7.888597e-01 7.642159e-01 7.370812e-01 7.088154e-01 6.784257e-01 6.466918e-01 6.132170e-01 5.782000e-01 5.418366e-01 5.037532e-01 4.647246e-01 4.238234e-01 3.823802e-01 3.389423e-01 2.953625e-01 2.497014e-01 2.042907e-01 1.567522e-01 1.098446e-01 6.080722e-02 1.276572e-02 -3.735927e-02 -8.614169e-02 -1.369102e-01 -1.860091e-01 -2.369444e-01 -2.859026e-01 -3.364952e-01 -3.848214e-01 -4.345304e-01 -4.816988e-01 -5.299531e-01 -5.754041e-01 -6.216061e-01 -6.647494e-01 -7.082805e-01 -7.485014e-01 -7.887306e-01 -8.254005e-01 -8.616972e-01 -8.941888e-01 -9.259396e-01 -9.536466e-01 -9.802759e-01 -1.002638e+00 -1.023631e+00 -1.040159e+00 -1.055089e+00 -1.065394e+00 -1.073943e+00 -1.077761e+00 -1.079741e+00 -1.076950e+00 -1.072320e+00 -1.062951e+00 -1.051816e+00 -1.036056e+00 -1.018668e+00 -9.968503e-01 -9.735918e-01 -9.461751e-01 -9.175399e-01 -8.850857e-01 -8.516519e-01 -8.147946e-01 -7.771966e-01 -7.366133e-01 -6.955137e-01 -6.518967e-01 -6.079610e-01 -5.619934e-01 -5.158698e-01 -4.682064e-01 -4.205100e-01 -3.717644e-01 
-3.267566e-01 -2.764529e-01 -2.263120e-01 -1.760842e-01 -1.260134e-01 -7.632211e-02 -2.674640e-02 2.199935e-02 7.070053e-02 1.181371e-01 1.656231e-01 2.114252e-01 2.573873e-01 3.012621e-01 3.454174e-01 3.870989e-01 4.291856e-01 4.684312e-01 5.082051e-01 5.447931e-01 5.820258e-01 6.157544e-01 6.502328e-01 6.809202e-01 7.124465e-01 7.399311e-01 7.683237e-01 7.924642e-01 8.175582e-01 8.382336e-01 8.598813e-01 8.769904e-01 8.950612e-01 9.085210e-01 9.229014e-01 9.326466e-01 9.432397e-01 9.492206e-01 9.559463e-01 9.581287e-01 9.609234e-01 9.592879e-01 9.581054e-01 9.526479e-01 9.474605e-01 9.381931e-01 9.289931e-01 9.159456e-01 9.027473e-01 8.859687e-01 8.688103e-01 8.483713e-01 8.273172e-01 8.033112e-01 7.784535e-01 7.509986e-01 7.224593e-01 6.916991e-01 6.596307e-01 6.257354e-01 5.903216e-01 5.534882e-01 5.149448e-01 4.753971e-01 4.339720e-01 3.919606e-01 3.479340e-01 3.037364e-01 2.574207e-01 2.113417e-01 1.630817e-01 1.154534e-01 6.562660e-02 1.680993e-02 -3.417335e-02 -8.378789e-02 -1.354839e-01 -1.854741e-01 -2.374052e-01 -2.873150e-01 -3.389696e-01 -3.883070e-01 -4.391390e-01 -4.873744e-01 -5.368042e-01 -5.833696e-01 -6.307864e-01 -6.750776e-01 -7.198440e-01 -7.612255e-01 -8.026856e-01 -8.405009e-01 -8.779928e-01 -9.115799e-01 -9.444533e-01 -9.731660e-01 -1.000805e+00 -1.024040e+00 -1.045888e+00 -1.063114e+00 -1.078706e+00 -1.089496e+00 -1.098481e+00 -1.102542e+00 -1.104711e+00 -1.101904e+00 -1.097204e+00 -1.087558e+00 -1.076099e+00 -1.059813e+00 -1.041865e+00 -1.019296e+00 -9.952721e-01 -9.669164e-01 -9.373481e-01 -9.038101e-01 -8.693190e-01 -8.312791e-01 -7.925437e-01 -7.507239e-01 -7.084484e-01 -6.635815e-01 -6.184680e-01 -5.712711e-01 -5.239971e-01 -4.751513e-01 -4.263539e-01 -3.764914e-01 
-3.280813e-01 -2.768027e-01 -2.257443e-01 -1.746334e-01 -1.237328e-01 -7.324643e-02 -2.292282e-02 2.653708e-02 7.591236e-02 1.239906e-01 1.720859e-01 2.184661e-01 2.649812e-01 3.093784e-01 3.540379e-01 3.961924e-01 4.387401e-01 4.784139e-01 5.186095e-01 5.555836e-01 5.932008e-01 6.272751e-01 6.621016e-01 6.930949e-01 7.249332e-01 7.526842e-01 7.813524e-01 8.057206e-01 8.310539e-01 8.519192e-01 8.737700e-01 8.910329e-01 9.092710e-01 9.228506e-01 9.373630e-01 9.471956e-01 9.578858e-01 9.639236e-01 9.707113e-01 9.729212e-01 9.757419e-01 9.741047e-01 9.729108e-01 9.674218e-01 9.621834e-01 9.528530e-01 9.435594e-01 9.304148e-01 9.170772e-01 9.001643e-01 8.828174e-01 8.622033e-01 8.409080e-01 8.166823e-01 7.915280e-01 7.638052e-01 7.349109e-01 7.038313e-01 6.713475e-01 6.370784e-01 6.011874e-01 5.639232e-01 5.248399e-01 4.848025e-01 4.427745e-01 4.002129e-01 3.555206e-01 3.107111e-01 2.636676e-01 2.169141e-01 1.678655e-01 1.194996e-01 6.882519e-02 1.920739e-02 -3.268006e-02 -8.315914e-02 -1.358127e-01 -1.867301e-01 -2.396681e-01 -2.905659e-01 -3.432712e-01 -3.936535e-01 -4.455725e-01 -4.949032e-01 -5.454460e-01 -5.931464e-01 -6.416882e-01 -6.871380e-01 -7.330226e-01 -7.755643e-01 -8.181117e-01 -8.570598e-01 -8.955787e-01 -9.302356e-01 -9.640414e-01 -9.937202e-01 -1.022160e+00 -1.046213e+00 -1.068693e+00 -1.086549e+00 -1.102567e+00 -1.113762e+00 -1.122941e+00 -1.127153e+00 -1.129266e+00 -1.126343e+00 -1.121333e+00 -1.111305e+00 -1.099293e+00 -1.082375e+00 -1.063654e+00 -1.040235e+00 -1.015253e+00 -9.858708e-01 -9.552023e-01 -9.205086e-01 -8.848218e-01 -8.455467e-01 -8.055664e-01 -7.624792e-01 -7.189518e-01 -6.728266e-01 -6.264896e-01 -5.780769e-01 -5.296355e-01 -4.796412e-01 -4.297511e-01 -3.788230e-01 
-3.321725e-01 -2.795883e-01 -2.273195e-01 -1.750149e-01 -1.230048e-01 -7.143381e-02 -2.009607e-02 3.034635e-02 8.064929e-02 1.296171e-01 1.785639e-01 2.257504e-01 2.730509e-01 3.181800e-01 3.635677e-01 4.063870e-01 4.496128e-01 4.898896e-01 5.307178e-01 5.682369e-01 6.064443e-01 6.410077e-01 6.763832e-01 7.078113e-01 7.401575e-01 7.682903e-01 7.974253e-01 8.221237e-01 8.478820e-01 8.690281e-01 8.912619e-01 9.087576e-01 9.273365e-01 9.411028e-01 9.559131e-01 9.658878e-01 9.768320e-01 9.829676e-01 9.899638e-01 9.922264e-01 9.952080e-01 9.935770e-01 9.924931e-01 9.869611e-01 9.817782e-01 9.723526e-01 9.630562e-01 9.497609e-01 9.363579e-01 9.192360e-01 9.017572e-01 8.808730e-01 8.593760e-01 8.348176e-01 8.093888e-01 7.812698e-01 7.520260e-01 7.204867e-01 6.875768e-01 6.527849e-01 6.163902e-01 5.785410e-01 5.388755e-01 4.981915e-01 4.555020e-01 4.122325e-01 3.667984e-01 3.212195e-01 2.733529e-01 2.257670e-01 1.758126e-01 1.265490e-01 7.488462e-02 2.430061e-02 -2.866246e-02 -8.018008e-02 -1.339960e-01 -1.860281e-01 -2.402154e-01 -2.923072e-01 -3.463468e-01 -3.980034e-01 -4.513373e-01 -5.020197e-01 -5.540490e-01 -6.031701e-01 -6.532550e-01 -7.001784e-01 -7.476403e-01 -7.916829e-01 -8.358105e-01 -8.762510e-01 -9.163123e-01 -9.524071e-01 -9.876686e-01 -1.018676e+00 -1.048430e+00 -1.073644e+00 -1.097237e+00 -1.116025e+00 -1.132904e+00 -1.144748e+00 -1.154487e+00 -1.159024e+00 -1.161364e+00 -1.158417e+00 -1.153288e+00 -1.142883e+00 -1.130411e+00 -1.112781e+00 -1.093287e+00 -1.068857e+00 -1.042830e+00 -1.012190e+00 -9.802602e-01 -9.441239e-01 -9.070213e-01 -8.661830e-01 -8.246935e-01 -7.799845e-01 -7.349114e-01 -6.871605e-01 -6.392901e-01 -5.892926e-01 -5.393682e-01 -4.878634e-01 -4.365678e-01 -3.842257e-01 
-3.337632e-01 -2.799512e-01 -2.265343e-01 -1.731247e-01 -1.200816e-01 -6.752081e-02 -1.525529e-02 3.607305e-02 8.721098e-02 1.369739e-01 1.866759e-01 2.345793e-01 2.825677e-01 3.283463e-01 3.743643e-01 4.177743e-01 4.615802e-01 5.023942e-01 5.437568e-01 5.817625e-01 6.204604e-01 6.554608e-01 6.912832e-01 7.230985e-01 7.558474e-01 7.843175e-01 8.138099e-01 8.387959e-01 8.648661e-01 8.862513e-01 9.087516e-01 9.264403e-01 9.452410e-01 9.591569e-01 9.741453e-01 9.842290e-01 9.953083e-01 1.001515e+00 1.008603e+00 1.010901e+00 1.013931e+00 1.012299e+00 1.011218e+00 1.005649e+00 1.000420e+00 9.909181e-01 9.815226e-01 9.681093e-01 9.545500e-01 9.372635e-01 9.195665e-01 8.984665e-01 8.766847e-01 8.518544e-01 8.260700e-01 7.976183e-01 7.679448e-01 7.360078e-01 7.025913e-01 6.673332e-01 6.303530e-01 5.919660e-01 5.516352e-01 5.103395e-01 4.669043e-01 4.229476e-01 3.766876e-01 3.303445e-01 2.815724e-01 2.331442e-01 1.822061e-01 1.320214e-01 7.929696e-02 2.771204e-02 -2.638491e-02 -7.898375e-02 -1.340042e-01 -1.871980e-01 -2.426562e-01 -2.959893e-01 -3.513608e-01 -4.043357e-01 -4.590546e-01 -5.111259e-01 -5.645822e-01 -6.151520e-01 -6.666896e-01 -7.151035e-01 -7.640214e-01 -8.095692e-01 -8.551260e-01 -8.970495e-01 -9.384748e-01 -9.759835e-01 -1.012498e+00 -1.044795e+00 -1.075637e+00 -1.101956e+00 -1.126422e+00 -1.146069e+00 -1.163553e+00 -1.175958e+00 -1.185994e+00 -1.190753e+00 -1.193056e+00 -1.189969e+00 -1.184460e+00 -1.173556e+00 -1.160374e+00 -1.141909e+00 -1.121407e+00 -1.095850e+00 -1.068569e+00 -1.036568e+00 -1.003198e+00 -9.655344e-01 -9.268697e-01 -8.844073e-01 -8.412981e-01 -7.949325e-01 -7.482393e-01 -6.988552e-01 -6.494115e-01 -5.978479e-01 -5.464324e-01 -4.934595e-01 -4.407783e-01 -3.870845e-01 
-3.380464e-01 -2.826598e-01 -2.277889e-01 -1.729534e-01 -1.185904e-01 -6.474459e-02 -1.128235e-02 4.120273e-02 9.342884e-02 1.442348e-01 1.949321e-01 2.437793e-01 2.926847e-01 3.393203e-01 3.861896e-01 4.303794e-01 4.749797e-01 5.165031e-01 5.586090e-01 5.972572e-01 6.366502e-01 6.722281e-01 7.086979e-01 7.410267e-01 7.743747e-01 8.032950e-01 8.333374e-01 8.587121e-01 8.852825e-01 9.069969e-01 9.299472e-01 9.479088e-01 9.671091e-01 9.812443e-01 9.965819e-01 1.006833e+00 1.018211e+00 1.024535e+00 1.031868e+00 1.034231e+00 1.037450e+00 1.035831e+00 1.034879e+00 1.029264e+00 1.024100e+00 1.014492e+00 1.005092e+00 9.915053e-01 9.778663e-01 9.603359e-01 9.424789e-01 9.210608e-01 8.990342e-01 8.738093e-01 8.476917e-01 8.187679e-01 7.886704e-01 7.561839e-01 7.222509e-01 6.863669e-01 6.487769e-01 6.096891e-01 5.686544e-01 5.265845e-01 4.823508e-01 4.375471e-01 3.903933e-01 3.431304e-01 2.933679e-01 2.439456e-01 1.919189e-01 1.406626e-01 8.674912e-02 3.401078e-02 -2.137806e-02 -7.521798e-02 -1.316355e-01 -1.861646e-01 -2.431269e-01 -2.978956e-01 -3.548785e-01 -4.093934e-01 -4.658281e-01 -5.195443e-01 -5.748130e-01 -6.271259e-01 -6.805576e-01 -7.307961e-01 -7.816646e-01 -8.290895e-01 -8.766161e-01 -9.204252e-01 -9.637891e-01 -1.003133e+00 -1.041491e+00 -1.075500e+00 -1.108018e+00 -1.135843e+00 -1.161738e+00 -1.182605e+00 -1.201194e+00 -1.214454e+00 -1.225206e+00 -1.230396e+00 -1.232979e+00 -1.229864e+00 -1.224180e+00 -1.212781e+00 -1.198978e+00 -1.179578e+00 -1.158045e+00 -1.131164e+00 -1.102504e+00 -1.068865e+00 -1.033845e+00 -9.943157e-01 -9.538151e-01 -9.093470e-01 -8.642999e-01 -8.158724e-01 -7.672152e-01 -7.157848e-01 -6.644140e-01 -6.108766e-01 -5.576185e-01 -5.027847e-01 -4.483773e-01 -3.929602e-01 
-3.396590e-01 -2.827930e-01 -2.265482e-01 -1.703933e-01 -1.148038e-01 -5.978492e-02 -5.227493e-03 4.830236e-02 1.015112e-01 1.532529e-01 2.048395e-01 2.545313e-01 3.042494e-01 3.516534e-01 3.992719e-01 4.441645e-01 4.894596e-01 5.316262e-01 5.743772e-01 6.136116e-01 6.536009e-01 6.897073e-01 7.267234e-01 7.595211e-01 7.933632e-01 8.226913e-01 8.531735e-01 8.788944e-01 9.058491e-01 9.278497e-01 9.511292e-01 9.693199e-01 9.887958e-01 1.003107e+00 1.018668e+00 1.029048e+00 1.040598e+00 1.047006e+00 1.054462e+00 1.056868e+00 1.060159e+00 1.058541e+00 1.057608e+00 1.051954e+00 1.046752e+00 1.037058e+00 1.027558e+00 1.013836e+00 1.000028e+00 9.823082e-01 9.642075e-01 9.425380e-01 9.201867e-01 8.946424e-01 8.681138e-01 8.387967e-01 8.081973e-01 7.752384e-01 7.407094e-01 7.042696e-01 6.659870e-01 6.262567e-01 5.844316e-01 5.416299e-01 4.965074e-01 4.508809e-01 4.027400e-01 3.545617e-01 3.037147e-01 2.532832e-01 2.000757e-01 1.477154e-01 9.252693e-02 3.858844e-02 -1.816722e-02 -7.330495e-02 -1.311781e-01 -1.871042e-01 -2.456072e-01 -3.018733e-01 -3.604771e-01 -4.165896e-01 -4.747183e-01 -5.301285e-01 -5.871539e-01 -6.412475e-01 -6.964820e-01 -7.485696e-01 -8.012621e-01 -8.505740e-01 -8.999101e-01 -9.455993e-01 -9.907103e-01 -1.031867e+00 -1.071850e+00 -1.107531e+00 -1.141481e+00 -1.170757e+00 -1.197817e+00 -1.219825e+00 -1.239240e+00 -1.253257e+00 -1.264436e+00 -1.269940e+00 -1.272511e+00 -1.269233e+00 -1.263084e+00 -1.251047e+00 -1.236343e+00 -1.215861e+00 -1.193038e+00 -1.164693e+00 -1.134423e+00 -1.099021e+00 -1.062155e+00 -1.020657e+00 -9.781646e-01 -9.316185e-01 -8.845196e-01 -8.339908e-01 -7.832980e-01 -7.298156e-01 -6.764863e-01 -6.210012e-01 -5.659053e-01 -5.092651e-01 -4.531672e-01 -3.961046e-01 
-3.438467e-01 -2.851370e-01 -2.271992e-01 -1.693939e-01 -1.122852e-01 -5.579343e-02 1.287170e-04 5.497492e-02 1.094168e-01 1.623407e-01 2.150517e-01 2.658122e-01 3.165668e-01 3.649433e-01 4.135268e-01 4.593079e-01 5.055080e-01 5.484865e-01 5.920886e-01 6.320613e-01 6.728498e-01 7.096213e-01 7.473838e-01 7.807727e-01 8.153061e-01 8.451513e-01 8.762676e-01 9.024329e-01 9.299633e-01 9.523390e-01 9.761355e-01 9.946363e-01 1.014571e+00 1.029132e+00 1.045094e+00 1.055667e+00 1.067560e+00 1.074105e+00 1.081845e+00 1.084332e+00 1.087845e+00 1.086248e+00 1.085469e+00 1.079771e+00 1.074649e+00 1.064842e+00 1.055341e+00 1.041428e+00 1.027531e+00 1.009535e+00 9.912509e-01 9.692175e-01 9.465818e-01 9.205819e-01 8.936641e-01 8.637986e-01 8.327023e-01 7.991029e-01 7.639678e-01 7.267974e-01 6.877994e-01 6.472510e-01 6.046009e-01 5.608963e-01 5.148393e-01 4.682267e-01 4.190412e-01 3.697941e-01 3.177912e-01 2.662067e-01 2.117299e-01 1.581287e-01 1.015545e-01 4.628107e-02 -1.198038e-02 -6.855524e-02 -1.280586e-01 -1.855341e-01 -2.457960e-01 -3.037348e-01 -3.642297e-01 -4.221479e-01 -4.823011e-01 -5.396560e-01 -5.988349e-01 -6.550104e-01 -7.125148e-01 -7.668074e-01 -8.218609e-01 -8.734700e-01 -9.252163e-01 -9.732433e-01 -1.020753e+00 -1.064214e+00 -1.106502e+00 -1.144359e+00 -1.180426e+00 -1.211638e+00 -1.240517e+00 -1.264109e+00 -1.284939e+00 -1.300078e+00 -1.312175e+00 -1.318251e+00 -1.321176e+00 -1.317871e+00 -1.311482e+00 -1.298808e+00 -1.283283e+00 -1.261590e+00 -1.237417e+00 -1.207363e+00 -1.175301e+00 -1.137796e+00 -1.098806e+00 -1.054930e+00 -1.010097e+00 -9.610195e-01 -9.114780e-01 -8.583753e-01 -8.052371e-01 -7.492311e-01 -6.935334e-01 -6.356451e-01 -5.783152e-01 -5.194389e-01 -4.612769e-01 -4.021708e-01 
-3.451574e-01 -2.847226e-01 -2.251951e-01 -1.658699e-01 -1.073572e-01 -4.952711e-02 7.638747e-03 6.366937e-02 1.192228e-01 1.732052e-01 2.269225e-01 2.786408e-01 3.303195e-01 3.795726e-01 4.290153e-01 4.756052e-01 5.226101e-01 5.663358e-01 6.106925e-01 6.513514e-01 6.928434e-01 7.302365e-01 7.686472e-01 8.025883e-01 8.377093e-01 8.680332e-01 8.996725e-01 9.262413e-01 9.542281e-01 9.769338e-01 1.001121e+00 1.019883e+00 1.040145e+00 1.054905e+00 1.071134e+00 1.081850e+00 1.093954e+00 1.100592e+00 1.108487e+00 1.111022e+00 1.114634e+00 1.113042e+00 1.112303e+00 1.106564e+00 1.101418e+00 1.091520e+00 1.081923e+00 1.067865e+00 1.053793e+00 1.035588e+00 1.017041e+00 9.947265e-01 9.717317e-01 9.453708e-01 9.179907e-01 8.876764e-01 8.560093e-01 8.218670e-01 7.860486e-01 7.482362e-01 7.084397e-01 6.671466e-01 6.235815e-01 5.790267e-01 5.319377e-01 4.843679e-01 4.340335e-01 3.837208e-01 3.304528e-01 2.776934e-01 2.218367e-01 1.669499e-01 1.088831e-01 5.221175e-02 -7.652591e-03 -6.574032e-02 -1.269541e-01 -1.860610e-01 -2.481381e-01 -3.078310e-01 -3.702426e-01 -4.300414e-01 -4.922085e-01 -5.515717e-01 -6.128536e-01 -6.711603e-01 -7.308424e-01 -7.873732e-01 -8.446541e-01 -8.985767e-01 -9.525606e-01 -1.002925e+00 -1.052624e+00 -1.098371e+00 -1.142725e+00 -1.182722e+00 -1.220637e+00 -1.253729e+00 -1.284137e+00 -1.309230e+00 -1.331167e+00 -1.347318e+00 -1.360012e+00 -1.366527e+00 -1.369478e+00 -1.365988e+00 -1.359033e+00 -1.345547e+00 -1.328886e+00 -1.305801e+00 -1.279987e+00 -1.248049e+00 -1.213936e+00 -1.174172e+00 -1.132839e+00 -1.086461e+00 -1.039119e+00 -9.874223e-01 -9.353208e-01 -8.795992e-01 -8.239491e-01 -7.654170e-01 -7.073318e-01 -6.470775e-01 -5.875362e-01 -5.264955e-01 -4.663265e-01 -4.052759e-01 
-3.488638e-01 -2.863229e-01 -2.248751e-01 -1.636909e-01 -1.034789e-01 -4.400896e-02 1.466678e-02 7.215104e-02 1.290593e-01 1.843421e-01 2.392923e-01 2.921872e-01 3.450053e-01 3.953340e-01 4.458443e-01 4.934239e-01 5.414381e-01 5.860751e-01 6.313889e-01 6.728815e-01 7.152779e-01 7.534244e-01 7.926828e-01 8.272929e-01 8.631996e-01 8.941059e-01 9.264647e-01 9.535306e-01 9.821688e-01 1.005291e+00 1.030061e+00 1.049166e+00 1.069946e+00 1.084982e+00 1.101665e+00 1.112597e+00 1.125091e+00 1.131888e+00 1.140109e+00 1.142744e+00 1.146613e+00 1.145057e+00 1.144502e+00 1.138729e+00 1.133684e+00 1.123672e+00 1.114086e+00 1.099823e+00 1.085660e+00 1.067153e+00 1.048404e+00 1.025683e+00 1.002368e+00 9.754915e-01 9.476686e-01 9.167290e-01 8.844932e-01 8.496174e-01 8.131038e-01 7.744534e-01 7.338356e-01 6.916045e-01 6.470932e-01 6.015049e-01 5.533457e-01 5.046503e-01 4.531216e-01 4.015925e-01 3.470051e-01 2.929374e-01 2.356336e-01 1.793424e-01 1.196970e-01 6.151753e-02 -6.221988e-05 -5.977305e-02 -1.228456e-01 -1.837054e-01 -2.477926e-01 -3.093854e-01 -3.739670e-01 -4.358311e-01 -5.003353e-01 -5.619447e-01 -6.257340e-01 -6.864754e-01 -7.488287e-01 -8.079758e-01 -8.680700e-01 -9.247616e-01 -9.816570e-01 -1.034885e+00 -1.087523e+00 -1.136139e+00 -1.183358e+00 -1.226105e+00 -1.266683e+00 -1.302258e+00 -1.334982e+00 -1.362131e+00 -1.385886e+00 -1.403511e+00 -1.417391e+00 -1.424672e+00 -1.428081e+00 -1.424573e+00 -1.417301e+00 -1.403000e+00 -1.385265e+00 -1.360617e+00 -1.333048e+00 -1.298910e+00 -1.262485e+00 -1.220031e+00 -1.175983e+00 -1.126593e+00 -1.076293e+00 -1.021429e+00 -9.662804e-01 -9.073803e-01 -8.487237e-01 -7.871205e-01 -7.261682e-01 -6.630345e-01 -6.008324e-01 -5.371553e-01 -4.745684e-01 -4.111468e-01 