# vtk DataFile Version 2.0
Comment goes here
ASCII

DATASET STRUCTURED_POINTS
FIELD FieldData 1
TIME 1 1 double
0.08500000
DIMENSIONS    128   128   1

ORIGIN    0.000   0.000   0.000
SPACING   0.039062 0.039062   1.000

POINT_DATA   16384
SCALARS uX double
LOOKUP_TABLE default

-3.335453e-01 -2.868778e-01 -2.363572e-01 -1.894433e-01 -1.388852e-01 -9.216158e-02 -4.200575e-02 4.124851e-03 5.347245e-02 9.864001e-02 1.468052e-01 1.906705e-01 2.373088e-01 2.795615e-01 3.243565e-01 3.647136e-01 4.073754e-01 4.455802e-01 4.858445e-01 5.216657e-01 5.592939e-01 5.925252e-01 6.273036e-01 6.577640e-01 6.895045e-01 7.170374e-01 7.455766e-01 7.700498e-01 7.952485e-01 8.165530e-01 8.382949e-01 8.563429e-01 8.745320e-01 8.892549e-01 9.038131e-01 9.151583e-01 9.260220e-01 9.339495e-01 9.410656e-01 9.455448e-01 9.488677e-01 9.498739e-01 9.493627e-01 9.468744e-01 9.424906e-01 9.364880e-01 9.281953e-01 9.186597e-01 9.064248e-01 8.933396e-01 8.771346e-01 8.604881e-01 8.402951e-01 8.200842e-01 7.959011e-01 7.721370e-01 7.439849e-01 7.166999e-01 6.846310e-01 6.538857e-01 6.179920e-01 5.838833e-01 5.443058e-01 5.069744e-01 4.639106e-01 4.235483e-01 3.772595e-01 3.341152e-01 2.849318e-01 2.393159e-01 1.876402e-01 1.399272e-01 8.623423e-02 3.686309e-02 -1.830156e-02 -6.882944e-02 -1.248551e-01 -1.759804e-01 -2.321991e-01 -2.833117e-01 -3.390094e-01 -3.894577e-01 -4.438875e-01 -4.929903e-01 -5.453881e-01 -5.924485e-01 -6.420501e-01 -6.863712e-01 -7.324308e-01 -7.733326e-01 -8.151422e-01 -8.519798e-01 -8.888881e-01 -9.210700e-01 -9.525005e-01 -9.795064e-01 -1.004975e+00 -1.026372e+00 -1.045501e+00 -1.060958e+00 -1.073487e+00 -1.082787e+00 -1.088581e+00 -1.091624e+00 -1.090678e+00 -1.087486e+00 -1.079916e+00 -1.070629e+00 -1.056674e+00 -1.041542e+00 -1.021545e+00 -1.000916e+00 -9.753087e-01 -9.496123e-01 -9.189023e-01 -8.886326e-01 -8.533784e-01 -8.190753e-01 -7.798698e-01 -7.421004e-01 -6.995521e-01 -6.588943e-01 -6.136118e-01 -5.706395e-01 -5.232186e-01 -4.784902e-01 -4.295038e-01 -3.835538e-01 
-3.325531e-01 -2.858939e-01 -2.352774e-01 -1.883756e-01 -1.377341e-01 -9.102532e-02 -4.079811e-02 5.315825e-03 5.472339e-02 9.987326e-02 1.480876e-01 1.919349e-01 2.386122e-01 2.808469e-01 3.256712e-01 3.660108e-01 4.086924e-01 4.468803e-01 4.871554e-01 5.229602e-01 5.605899e-01 5.938053e-01 6.285764e-01 6.590209e-01 6.907450e-01 7.182620e-01 7.467758e-01 7.712327e-01 7.963971e-01 8.176846e-01 8.393836e-01 8.574137e-01 8.755517e-01 8.902558e-01 9.047551e-01 9.160806e-01 9.268781e-01 9.347853e-01 9.418287e-01 9.462871e-01 9.495318e-01 9.505168e-01 9.499227e-01 9.474134e-01 9.429430e-01 9.369199e-01 9.285379e-01 9.189828e-01 9.066565e-01 8.935533e-01 8.772559e-01 8.605930e-01 8.403072e-01 8.200821e-01 7.958064e-01 7.720306e-01 7.437864e-01 7.164922e-01 6.843321e-01 6.535803e-01 6.175966e-01 5.834838e-01 5.438173e-01 5.064842e-01 4.633324e-01 4.229705e-01 3.765944e-01 3.334521e-01 2.841820e-01 2.385692e-01 1.868072e-01 1.390979e-01 8.531906e-02 3.595167e-02 -1.929836e-02 -6.982282e-02 -1.259329e-01 -1.770554e-01 -2.333571e-01 -2.844675e-01 -3.402455e-01 -3.906920e-01 -4.451979e-01 -4.942990e-01 -5.467666e-01 -5.938247e-01 -6.434876e-01 -6.878048e-01 -7.339147e-01 -7.748101e-01 -8.166561e-01 -8.534840e-01 -8.904120e-01 -9.225800e-01 -9.540111e-01 -9.809984e-01 -1.006446e+00 -1.027820e+00 -1.046906e+00 -1.062335e+00 -1.074798e+00 -1.084064e+00 -1.089770e+00 -1.092776e+00 -1.091720e+00 -1.088488e+00 -1.080792e+00 -1.071463e+00 -1.057366e+00 -1.042193e+00 -1.022041e+00 -1.001372e+00 -9.756039e-01 -9.498707e-01 -9.189959e-01 -8.886939e-01 -8.532753e-01 -8.189454e-01 -7.795794e-01 -7.417893e-01 -6.990874e-01 -6.584153e-01 -6.129886e-01 -5.700084e-01 -5.224542e-01 -4.777241e-01 -4.286165e-01 -3.826701e-01 
-3.341605e-01 -2.872574e-01 -2.364994e-01 -1.893672e-01 -1.385892e-01 -9.166432e-02 -4.130551e-02 5.010106e-03 5.454478e-02 9.988195e-02 1.482193e-01 1.922397e-01 2.390363e-01 2.814305e-01 3.263704e-01 3.668559e-01 4.096498e-01 4.479702e-01 4.883539e-01 5.242782e-01 5.620131e-01 5.953350e-01 6.302076e-01 6.607462e-01 6.925683e-01 7.201674e-01 7.487761e-01 7.733039e-01 7.985608e-01 8.199092e-01 8.416989e-01 8.597813e-01 8.780094e-01 8.927586e-01 9.073487e-01 9.187138e-01 9.296039e-01 9.375468e-01 9.446856e-01 9.491771e-01 9.525205e-01 9.535373e-01 9.530451e-01 9.505666e-01 9.462010e-01 9.402075e-01 9.319315e-01 9.224040e-01 9.101829e-01 8.971034e-01 8.809073e-01 8.642621e-01 8.440701e-01 8.238533e-01 7.996598e-01 7.758794e-01 7.477012e-01 7.203857e-01 6.882707e-01 6.574768e-01 6.215128e-01 5.873336e-01 5.476573e-01 5.102299e-01 4.670355e-01 4.265487e-01 3.800949e-01 3.367953e-01 2.874107e-01 2.416075e-01 1.896943e-01 1.417618e-01 8.779610e-02 3.817423e-02 -1.729577e-02 -6.810332e-02 -1.244629e-01 -1.758933e-01 -2.324690e-01 -2.839074e-01 -3.399786e-01 -3.907675e-01 -4.455794e-01 -4.950306e-01 -5.478105e-01 -5.952194e-01 -6.451937e-01 -6.898548e-01 -7.362684e-01 -7.774926e-01 -8.196279e-01 -8.567612e-01 -8.939575e-01 -9.263996e-01 -9.580721e-01 -9.852944e-01 -1.010952e+00 -1.032514e+00 -1.051773e+00 -1.067339e+00 -1.079935e+00 -1.089285e+00 -1.095082e+00 -1.098114e+00 -1.097108e+00 -1.093846e+00 -1.086158e+00 -1.076746e+00 -1.062619e+00 -1.047314e+00 -1.027099e+00 -1.006255e+00 -9.803950e-01 -9.544515e-01 -9.234618e-01 -8.929223e-01 -8.573716e-01 -8.227849e-01 -7.832749e-01 -7.452166e-01 -7.023639e-01 -6.614191e-01 -6.158387e-01 -5.725871e-01 -5.248797e-01 -4.798842e-01 -4.306261e-01 -3.844239e-01 
-3.337661e-01 -2.866368e-01 -2.355458e-01 -1.882083e-01 -1.371276e-01 -9.001705e-02 -3.938446e-02 7.098680e-03 5.687980e-02 1.023682e-01 1.509264e-01 1.950834e-01 2.420767e-01 2.845941e-01 3.297079e-01 3.703042e-01 4.132497e-01 4.516689e-01 4.921826e-01 5.281937e-01 5.660370e-01 5.994338e-01 6.343931e-01 6.649944e-01 6.968817e-01 7.245312e-01 7.531840e-01 7.777504e-01 8.030310e-01 8.244064e-01 8.462008e-01 8.642997e-01 8.825153e-01 8.972720e-01 9.118343e-01 9.231996e-01 9.340492e-01 9.419868e-01 9.490748e-01 9.535575e-01 9.568421e-01 9.578481e-01 9.572912e-01 9.548011e-01 9.503660e-01 9.443609e-01 9.360111e-01 9.264718e-01 9.141724e-01 9.010802e-01 8.847998e-01 8.681393e-01 8.478548e-01 8.276179e-01 8.033207e-01 7.795121e-01 7.512154e-01 7.238602e-01 6.916078e-01 6.607589e-01 6.246344e-01 5.903809e-01 5.505169e-01 5.129922e-01 4.695792e-01 4.289688e-01 3.822627e-01 3.388104e-01 2.891380e-01 2.431512e-01 1.909142e-01 1.427663e-01 8.844194e-02 3.857350e-02 -1.728762e-02 -6.837117e-02 -1.251499e-01 -1.768825e-01 -2.338993e-01 -2.856615e-01 -3.421879e-01 -3.933160e-01 -4.485880e-01 -4.983866e-01 -5.516207e-01 -5.993765e-01 -6.497877e-01 -6.947857e-01 -7.416063e-01 -7.831475e-01 -8.256475e-01 -8.630677e-01 -9.005742e-01 -9.332631e-01 -9.651803e-01 -9.926005e-01 -1.018427e+00 -1.040132e+00 -1.059477e+00 -1.075124e+00 -1.087721e+00 -1.097086e+00 -1.102797e+00 -1.105780e+00 -1.104603e+00 -1.101229e+00 -1.093292e+00 -1.083712e+00 -1.069268e+00 -1.053745e+00 -1.033156e+00 -1.012055e+00 -9.857769e-01 -9.595482e-01 -9.281103e-01 -8.972675e-01 -8.612524e-01 -8.263545e-01 -7.863768e-01 -7.480085e-01 -7.046955e-01 -6.634494e-01 -6.174252e-01 -5.738868e-01 -5.257585e-01 -4.804947e-01 -4.308431e-01 -3.843932e-01 
-3.359717e-01 -2.883615e-01 -2.368914e-01 -1.891044e-01 -1.376676e-01 -9.013933e-02 -3.917253e-02 7.697201e-03 5.779210e-02 1.036371e-01 1.524902e-01 1.969752e-01 2.442459e-01 2.870638e-01 3.324382e-01 3.733084e-01 4.164983e-01 4.551654e-01 4.959074e-01 5.321407e-01 5.701958e-01 6.037894e-01 6.389443e-01 6.697172e-01 7.017840e-01 7.295809e-01 7.583976e-01 7.830883e-01 8.085187e-01 8.299974e-01 8.519295e-01 8.701134e-01 8.884570e-01 9.032834e-01 9.179673e-01 9.293905e-01 9.403582e-01 9.483453e-01 9.555508e-01 9.600780e-01 9.634817e-01 9.645295e-01 9.640944e-01 9.616451e-01 9.573340e-01 9.513687e-01 9.431437e-01 9.336419e-01 9.214643e-01 9.084042e-01 8.922375e-01 8.755991e-01 8.554136e-01 8.351828e-01 8.109617e-01 7.871362e-01 7.588839e-01 7.314810e-01 6.992320e-01 6.682964e-01 6.321252e-01 5.977381e-01 5.577691e-01 5.200567e-01 4.764731e-01 4.356151e-01 3.886675e-01 3.449034e-01 2.949156e-01 2.485507e-01 1.959239e-01 1.473317e-01 9.254531e-02 4.216898e-02 -1.422114e-02 -6.587123e-02 -1.232380e-01 -1.755884e-01 -2.332421e-01 -2.856636e-01 -3.428630e-01 -3.946805e-01 -4.506473e-01 -5.011518e-01 -5.550870e-01 -6.035499e-01 -6.546522e-01 -7.003421e-01 -7.478272e-01 -7.900279e-01 -8.331492e-01 -8.711787e-01 -9.092476e-01 -9.424783e-01 -9.748843e-01 -1.002763e+00 -1.028992e+00 -1.051056e+00 -1.070707e+00 -1.086605e+00 -1.099404e+00 -1.108903e+00 -1.114709e+00 -1.117706e+00 -1.116517e+00 -1.113041e+00 -1.104992e+00 -1.095199e+00 -1.080549e+00 -1.064714e+00 -1.043839e+00 -1.022342e+00 -9.957126e-01 -9.690184e-01 -9.371803e-01 -9.058218e-01 -8.693726e-01 -8.339267e-01 -7.934957e-01 -7.545634e-01 -7.107911e-01 -6.689793e-01 -6.225003e-01 -5.784066e-01 -5.298363e-01 -4.840364e-01 -4.339612e-01 -3.870008e-01 
-3.361234e-01 -2.880526e-01 -2.360129e-01 -1.878044e-01 -1.358467e-01 -8.793407e-02 -3.649274e-02 1.072693e-02 6.125301e-02 1.074166e-01 1.566606e-01 2.014355e-01 2.490595e-01 2.921409e-01 3.378330e-01 3.789418e-01 4.224149e-01 4.612964e-01 5.022874e-01 5.387109e-01 5.769811e-01 6.107406e-01 6.460761e-01 6.769904e-01 7.092036e-01 7.371172e-01 7.660467e-01 7.908301e-01 8.163409e-01 8.378897e-01 8.598723e-01 8.781058e-01 8.964732e-01 9.113317e-01 9.260166e-01 9.374579e-01 9.484083e-01 9.564035e-01 9.635778e-01 9.681064e-01 9.714690e-01 9.725150e-01 9.720319e-01 9.695798e-01 9.652159e-01 9.592477e-01 9.509651e-01 9.414599e-01 9.292183e-01 9.161524e-01 8.999118e-01 8.832615e-01 8.629869e-01 8.427328e-01 8.184007e-01 7.945342e-01 7.661410e-01 7.386717e-01 7.062433e-01 6.752081e-01 6.388100e-01 6.042821e-01 5.640302e-01 5.261282e-01 4.821984e-01 4.410953e-01 3.937323e-01 3.496625e-01 2.991865e-01 2.524519e-01 1.992628e-01 1.502359e-01 9.481519e-02 4.394017e-02 -1.315118e-02 -6.535989e-02 -1.234865e-01 -1.764489e-01 -2.349095e-01 -2.879869e-01 -3.460257e-01 -3.985309e-01 -4.553524e-01 -5.065618e-01 -5.613474e-01 -6.105159e-01 -6.624428e-01 -7.088205e-01 -7.570819e-01 -7.999330e-01 -8.437595e-01 -8.823821e-01 -9.210630e-01 -9.548101e-01 -9.877142e-01 -1.016014e+00 -1.042610e+00 -1.064987e+00 -1.084860e+00 -1.100949e+00 -1.113816e+00 -1.123380e+00 -1.129098e+00 -1.132031e+00 -1.130604e+00 -1.126940e+00 -1.118510e+00 -1.108415e+00 -1.093260e+00 -1.077023e+00 -1.055540e+00 -1.033559e+00 -1.006240e+00 -9.790015e-01 -9.464179e-01 -9.144750e-01 -8.772488e-01 -8.411983e-01 -7.999813e-01 -7.604421e-01 -7.158940e-01 -6.734882e-01 -6.262591e-01 -5.815958e-01 -5.323125e-01 -4.859755e-01 -4.352321e-01 -3.877720e-01 
-3.388744e-01 -2.900839e-01 -2.374277e-01 -1.885502e-01 -1.360177e-01 -8.748645e-02 -3.550978e-02 1.228022e-02 6.330521e-02 1.099935e-01 1.597029e-01 2.049595e-01 2.530179e-01 2.965401e-01 3.426373e-01 3.841476e-01 4.279971e-01 4.672416e-01 5.085804e-01 5.453287e-01 5.839177e-01 6.179637e-01 6.535887e-01 6.847515e-01 7.172247e-01 7.453496e-01 7.745107e-01 7.994699e-01 8.251859e-01 8.468779e-01 8.690424e-01 8.873904e-01 9.059208e-01 9.208701e-01 9.357042e-01 9.472181e-01 9.583093e-01 9.663647e-01 9.736765e-01 9.782584e-01 9.817592e-01 9.828558e-01 9.825144e-01 9.801129e-01 9.758944e-01 9.699775e-01 9.618419e-01 9.523870e-01 9.402892e-01 9.272681e-01 9.111605e-01 8.945426e-01 8.743801e-01 8.541370e-01 8.298839e-01 8.059959e-01 7.776349e-01 7.500995e-01 7.176420e-01 6.864832e-01 6.499806e-01 6.152591e-01 5.748139e-01 5.366368e-01 4.924136e-01 4.509445e-01 4.031793e-01 3.586455e-01 3.076534e-01 2.603530e-01 2.065331e-01 1.568383e-01 1.006753e-01 4.903396e-02 -8.903287e-03 -6.196939e-02 -1.210332e-01 -1.749328e-01 -2.344054e-01 -2.884855e-01 -3.475912e-01 -4.011465e-01 -4.590671e-01 -5.113532e-01 -5.672452e-01 -6.174934e-01 -6.705078e-01 -7.179428e-01 -7.672460e-01 -8.111049e-01 -8.559007e-01 -8.954538e-01 -9.350058e-01 -9.695787e-01 -1.003232e+00 -1.032227e+00 -1.059429e+00 -1.082348e+00 -1.102667e+00 -1.119127e+00 -1.132268e+00 -1.142020e+00 -1.147836e+00 -1.150770e+00 -1.149265e+00 -1.145419e+00 -1.136746e+00 -1.126296e+00 -1.110749e+00 -1.094004e+00 -1.071999e+00 -1.049381e+00 -1.021438e+00 -9.934608e-01 -9.601759e-01 -9.274215e-01 -8.894445e-01 -8.525381e-01 -8.105456e-01 -7.701321e-01 -7.248054e-01 -6.815293e-01 -6.335362e-01 -5.880244e-01 -5.380048e-01 -4.908547e-01 -4.394112e-01 -3.911821e-01 
-3.394831e-01 -2.899981e-01 -2.365365e-01 -1.870232e-01 -1.337541e-01 -8.464246e-02 -3.199357e-02 1.632580e-02 6.796365e-02 1.151350e-01 1.654028e-01 2.111004e-01 2.596668e-01 3.035914e-01 3.501489e-01 3.920248e-01 4.362886e-01 4.758628e-01 5.175700e-01 5.546121e-01 5.935230e-01 6.278261e-01 6.637258e-01 6.951084e-01 7.278088e-01 7.561160e-01 7.854571e-01 8.105620e-01 8.364128e-01 8.582157e-01 8.804732e-01 8.989009e-01 9.174875e-01 9.324900e-01 9.473495e-01 9.588958e-01 9.699884e-01 9.780613e-01 9.853574e-01 9.899480e-01 9.934222e-01 9.945238e-01 9.941494e-01 9.917527e-01 9.874978e-01 9.815873e-01 9.734117e-01 9.639640e-01 9.518199e-01 9.388037e-01 9.226377e-01 9.060165e-01 8.857750e-01 8.655120e-01 8.411485e-01 8.172139e-01 7.886983e-01 7.610777e-01 7.284076e-01 6.971126e-01 6.603252e-01 6.254038e-01 5.845881e-01 5.461357e-01 5.014445e-01 4.596140e-01 4.112739e-01 3.662848e-01 3.146050e-01 2.667500e-01 2.121275e-01 1.617770e-01 1.046992e-01 5.230308e-02 -6.653871e-03 -6.056785e-02 -1.207438e-01 -1.755744e-01 -2.362345e-01 -2.913144e-01 -3.516612e-01 -4.062670e-01 -4.654566e-01 -5.188219e-01 -5.759817e-01 -6.273126e-01 -6.815618e-01 -7.300550e-01 -7.805265e-01 -8.253891e-01 -8.712528e-01 -9.117247e-01 -9.522107e-01 -9.875874e-01 -1.022010e+00 -1.051666e+00 -1.079445e+00 -1.102858e+00 -1.123542e+00 -1.140312e+00 -1.153591e+00 -1.163457e+00 -1.169181e+00 -1.172031e+00 -1.170209e+00 -1.166087e+00 -1.156888e+00 -1.145987e+00 -1.129727e+00 -1.112377e+00 -1.089505e+00 -1.066157e+00 -1.037228e+00 -1.008427e+00 -9.740745e-01 -9.404346e-01 -9.013456e-01 -8.635232e-01 -8.204070e-01 -7.790749e-01 -7.326412e-01 -6.884667e-01 -6.394058e-01 -5.930335e-01 -5.420014e-01 -4.940406e-01 -4.416501e-01 -3.926672e-01 
-3.426878e-01 -2.922423e-01 -2.379276e-01 -1.875264e-01 -1.334662e-01 -8.353703e-02 -3.015465e-02 1.891612e-02 7.123504e-02 1.190964e-01 1.699978e-01 2.163285e-01 2.654848e-01 3.099890e-01 3.570952e-01 3.994994e-01 4.442716e-01 4.843237e-01 5.264987e-01 5.639681e-01 6.033050e-01 6.379843e-01 6.742671e-01 7.059744e-01 7.390144e-01 7.675953e-01 7.972336e-01 8.225630e-01 8.486710e-01 8.706531e-01 8.931324e-01 9.116992e-01 9.304785e-01 9.455873e-01 9.606182e-01 9.722462e-01 9.834970e-01 9.916357e-01 9.990850e-01 1.003733e+00 1.007362e+00 1.008521e+00 1.008307e+00 1.005970e+00 1.001884e+00 9.960383e-01 9.880369e-01 9.786565e-01 9.666857e-01 9.537338e-01 9.377302e-01 9.211609e-01 9.010569e-01 8.808207e-01 8.565527e-01 8.326043e-01 8.041230e-01 7.764307e-01 7.437133e-01 7.122704e-01 6.753337e-01 6.401702e-01 5.990843e-01 5.602790e-01 5.151802e-01 4.728722e-01 4.239744e-01 3.783728e-01 3.259775e-01 2.773691e-01 2.218714e-01 1.706259e-01 1.125175e-01 5.908927e-02 -1.042779e-03 -5.611616e-02 -1.175946e-01 -1.736968e-01 -2.357640e-01 -2.922076e-01 -3.540382e-01 -4.100755e-01 -4.707934e-01 -5.256296e-01 -5.843273e-01 -6.371362e-01 -6.928961e-01 -7.428390e-01 -7.947563e-01 -8.410029e-01 -8.882096e-01 -9.299607e-01 -9.716503e-01 -1.008163e+00 -1.043615e+00 -1.074227e+00 -1.102832e+00 -1.126987e+00 -1.148268e+00 -1.165541e+00 -1.179172e+00 -1.189284e+00 -1.195106e+00 -1.197941e+00 -1.195965e+00 -1.191571e+00 -1.181981e+00 -1.170567e+00 -1.153705e+00 -1.135629e+00 -1.111974e+00 -1.087722e+00 -1.057866e+00 -1.028024e+00 -9.926428e-01 -9.578673e-01 -9.176857e-01 -8.786736e-01 -8.344379e-01 -7.918987e-01 -7.443499e-01 -6.989822e-01 -6.488351e-01 -6.013080e-01 -5.492364e-01 -5.001767e-01 -4.468048e-01 -3.967896e-01 
-3.436229e-01 -2.922500e-01 -2.368966e-01 -1.856484e-01 -1.306401e-01 -7.993889e-02 -2.569163e-02 2.408322e-02 7.719177e-02 1.256965e-01 1.773197e-01 2.242393e-01 2.740554e-01 3.190986e-01 3.668065e-01 4.097025e-01 4.550197e-01 4.955172e-01 5.381802e-01 5.760477e-01 6.158142e-01 6.508426e-01 6.874945e-01 7.195003e-01 7.528477e-01 7.816757e-01 8.115594e-01 8.370852e-01 8.633790e-01 8.855094e-01 9.081194e-01 9.267914e-01 9.456531e-01 9.608306e-01 9.759044e-01 9.875728e-01 9.988370e-01 1.006997e+00 1.014440e+00 1.019099e+00 1.022711e+00 1.023877e+00 1.023643e+00 1.021317e+00 1.017211e+00 1.011381e+00 1.003360e+00 9.940010e-01 9.820074e-01 9.690768e-01 9.530388e-01 9.364829e-01 9.163209e-01 8.960785e-01 8.717133e-01 8.477244e-01 8.190886e-01 7.913049e-01 7.583558e-01 7.267526e-01 6.894867e-01 6.540761e-01 6.125440e-01 5.733877e-01 5.277084e-01 4.849308e-01 4.353047e-01 3.891032e-01 3.358226e-01 2.864765e-01 2.299332e-01 1.778093e-01 1.184980e-01 6.405297e-02 2.570366e-03 -5.365024e-02 -1.166104e-01 -1.739768e-01 -2.376335e-01 -2.954392e-01 -3.589381e-01 -4.164108e-01 -4.788410e-01 -5.351559e-01 -5.955706e-01 -6.498672e-01 -7.073055e-01 -7.587068e-01 -8.122185e-01 -8.598527e-01 -9.085231e-01 -9.515485e-01 -9.945253e-01 -1.032156e+00 -1.068676e+00 -1.100212e+00 -1.129626e+00 -1.154476e+00 -1.176277e+00 -1.193989e+00 -1.207832e+00 -1.218111e+00 -1.223829e+00 -1.226555e+00 -1.224168e+00 -1.219396e+00 -1.209108e+00 -1.197071e+00 -1.179257e+00 -1.160346e+00 -1.135530e+00 -1.110269e+00 -1.079094e+00 -1.048116e+00 -1.011309e+00 -9.753158e-01 -9.336539e-01 -8.933868e-01 -8.476615e-01 -8.038688e-01 -7.548595e-01 -7.082714e-01 -6.567225e-01 -6.080318e-01 -5.546380e-01 -5.044870e-01 -4.498845e-01 -3.988589e-01 
-3.471447e-01 -2.945698e-01 -2.381291e-01 -1.857765e-01 -1.297652e-01 -7.805169e-02 -2.287799e-02 2.782458e-02 8.179145e-02 1.311471e-01 1.835681e-01 2.312687e-01 2.818278e-01 3.275873e-01 3.759866e-01 4.195369e-01 4.654949e-01 5.065852e-01 5.498371e-01 5.882349e-01 6.285359e-01 6.640304e-01 7.011597e-01 7.335657e-01 7.673317e-01 7.964937e-01 8.267376e-01 8.525328e-01 8.791315e-01 9.014713e-01 9.243366e-01 9.431653e-01 9.622418e-01 9.775330e-01 9.927920e-01 1.004543e+00 1.015974e+00 1.024197e+00 1.031802e+00 1.036517e+00 1.040296e+00 1.041520e+00 1.041466e+00 1.039207e+00 1.035295e+00 1.029545e+00 1.021732e+00 1.012462e+00 1.000682e+00 9.878445e-01 9.720120e-01 9.555402e-01 9.355579e-01 9.153736e-01 8.911396e-01 8.671619e-01 8.385829e-01 8.107401e-01 7.777459e-01 7.459884e-01 7.085476e-01 6.728629e-01 6.310001e-01 5.914271e-01 5.452386e-01 5.018822e-01 4.515505e-01 4.045939e-01 3.504003e-01 3.001140e-01 2.424469e-01 1.891962e-01 1.285553e-01 7.280242e-02 9.798413e-03 -4.789869e-02 -1.125497e-01 -1.715418e-01 -2.370286e-01 -2.965838e-01 -3.620150e-01 -4.213293e-01 -4.857520e-01 -5.439642e-01 -6.063852e-01 -6.625933e-01 -7.220033e-01 -7.752845e-01 -8.306835e-01 -8.801168e-01 -9.305404e-01 -9.752326e-01 -1.019780e+00 -1.058893e+00 -1.096754e+00 -1.129538e+00 -1.160023e+00 -1.185841e+00 -1.208408e+00 -1.226772e+00 -1.241051e+00 -1.251642e+00 -1.257456e+00 -1.260143e+00 -1.257514e+00 -1.252361e+00 -1.241514e+00 -1.228777e+00 -1.210118e+00 -1.190226e+00 -1.164327e+00 -1.137856e+00 -1.105413e+00 -1.073049e+00 -1.034846e+00 -9.973520e-01 -9.542194e-01 -9.123918e-01 -8.651718e-01 -8.198083e-01 -7.693222e-01 -7.211939e-01 -6.682186e-01 -6.180493e-01 -5.633017e-01 -5.117549e-01 -4.558844e-01 -4.035578e-01 
-3.482279e-01 -2.944949e-01 -2.367872e-01 -1.833820e-01 -1.262183e-01 -7.354822e-02 -1.732498e-02 3.424919e-02 8.917508e-02 1.393281e-01 1.926284e-01 2.410612e-01 2.924282e-01 3.388608e-01 3.880015e-01 4.321691e-01 4.788032e-01 5.204552e-01 5.643165e-01 6.032183e-01 6.440584e-01 6.799957e-01 7.175899e-01 7.503740e-01 7.845273e-01 8.140005e-01 8.445532e-01 8.705929e-01 8.974238e-01 9.199446e-01 9.429714e-01 9.619238e-01 9.811003e-01 9.964673e-01 1.011777e+00 1.023567e+00 1.035014e+00 1.043253e+00 1.050852e+00 1.055572e+00 1.059337e+00 1.060566e+00 1.060500e+00 1.058255e+00 1.054339e+00 1.048616e+00 1.040807e+00 1.031577e+00 1.019805e+00 1.007014e+00 9.911831e-01 9.747530e-01 9.547493e-01 9.345867e-01 9.102872e-01 8.862918e-01 8.575783e-01 8.296555e-01 7.964307e-01 7.645068e-01 7.267117e-01 6.907495e-01 6.483818e-01 6.083972e-01 5.615294e-01 5.176068e-01 4.664023e-01 4.187087e-01 3.634356e-01 3.122313e-01 2.532725e-01 1.989182e-01 1.367765e-01 7.973688e-02 1.503492e-02 -4.412227e-02 -1.106475e-01 -1.712562e-01 -2.387641e-01 -3.000680e-01 -3.676296e-01 -4.287937e-01 -4.954115e-01 -5.555364e-01 -6.201664e-01 -6.783056e-01 -7.398832e-01 -7.950640e-01 -8.525300e-01 -9.037773e-01 -9.561066e-01 -1.002471e+00 -1.048701e+00 -1.089288e+00 -1.128552e+00 -1.162557e+00 -1.194113e+00 -1.220852e+00 -1.244116e+00 -1.263064e+00 -1.277636e+00 -1.288450e+00 -1.294143e+00 -1.296686e+00 -1.293530e+00 -1.287878e+00 -1.276125e+00 -1.262562e+00 -1.242669e+00 -1.221669e+00 -1.194265e+00 -1.166461e+00 -1.132312e+00 -1.098454e+00 -1.058416e+00 -1.019329e+00 -9.743016e-01 -9.308412e-01 -8.817273e-01 -8.347437e-01 -7.824139e-01 -7.327195e-01 -6.779878e-01 -6.263361e-01 -5.699443e-01 -5.170174e-01 -4.596278e-01 -4.060318e-01 
-3.518776e-01 -2.967027e-01 -2.376790e-01 -1.829583e-01 -1.245876e-01 -7.071784e-02 -1.338362e-02 3.928672e-02 9.524060e-02 1.463985e-01 2.006552e-01 2.500119e-01 3.022717e-01 3.495543e-01 3.995285e-01 4.444755e-01 4.918841e-01 5.342448e-01 5.788186e-01 6.183556e-01 6.598413e-01 6.963363e-01 7.345038e-01 7.677640e-01 8.024145e-01 8.322803e-01 8.632531e-01 8.896030e-01 9.167800e-01 9.395335e-01 9.628403e-01 9.819572e-01 1.001360e+00 1.016836e+00 1.032332e+00 1.044193e+00 1.055805e+00 1.064092e+00 1.071853e+00 1.076615e+00 1.080552e+00 1.081834e+00 1.081962e+00 1.079789e+00 1.076095e+00 1.070469e+00 1.062908e+00 1.053798e+00 1.042292e+00 1.029635e+00 1.014071e+00 9.977745e-01 9.780153e-01 9.579628e-01 9.338558e-01 9.099201e-01 8.813135e-01 8.533690e-01 8.201289e-01 7.880689e-01 7.500995e-01 7.138538e-01 6.711179e-01 6.306719e-01 5.832109e-01 5.386228e-01 4.865760e-01 4.379930e-01 3.816128e-01 3.292832e-01 2.689468e-01 2.132285e-01 1.494444e-01 9.080855e-02 2.421649e-02 -3.675367e-02 -1.053883e-01 -1.680025e-01 -2.378004e-01 -3.012707e-01 -3.712557e-01 -4.347083e-01 -5.038286e-01 -5.663187e-01 -6.334720e-01 -6.940020e-01 -7.580619e-01 -8.156020e-01 -8.754467e-01 -9.289598e-01 -9.835011e-01 -1.031972e+00 -1.080185e+00 -1.122651e+00 -1.163610e+00 -1.199200e+00 -1.232106e+00 -1.260076e+00 -1.284299e+00 -1.304072e+00 -1.319177e+00 -1.330377e+00 -1.336159e+00 -1.338633e+00 -1.335128e+00 -1.328962e+00 -1.316446e+00 -1.301956e+00 -1.280932e+00 -1.258647e+00 -1.229808e+00 -1.200429e+00 -1.164614e+00 -1.128968e+00 -1.087111e+00 -1.046102e+00 -9.991761e-01 -9.537349e-01 -9.027092e-01 -8.537501e-01 -7.995497e-01 -7.479368e-01 -6.914161e-01 -6.379409e-01 -5.798678e-01 -5.252364e-01 -4.662870e-01 -4.111170e-01 
-3.528738e-01 -2.963158e-01 -2.358061e-01 -1.798365e-01 -1.201211e-01 -6.512117e-02 -6.564992e-03 4.713372e-02 1.042051e-01 1.563054e-01 2.115908e-01 2.618165e-01 3.150275e-01 3.631142e-01 4.139679e-01 4.596577e-01 5.078751e-01 5.509160e-01 5.962241e-01 6.363743e-01 6.785130e-01 7.155476e-01 7.542791e-01 7.879991e-01 8.231181e-01 8.533591e-01 8.847019e-01 9.113412e-01 9.387913e-01 9.617519e-01 9.852417e-01 1.004492e+00 1.023999e+00 1.039547e+00 1.055088e+00 1.066974e+00 1.078589e+00 1.086875e+00 1.094616e+00 1.099367e+00 1.103283e+00 1.104559e+00 1.104677e+00 1.102517e+00 1.098834e+00 1.093246e+00 1.085719e+00 1.076672e+00 1.065217e+00 1.052641e+00 1.037132e+00 1.020920e+00 1.001197e+00 9.812142e-01 9.570979e-01 9.331897e-01 9.044955e-01 8.765068e-01 8.430650e-01 8.108569e-01 7.725347e-01 7.360043e-01 6.927287e-01 6.518304e-01 6.036106e-01 5.583756e-01 5.053243e-01 4.558779e-01 3.982294e-01 3.448055e-01 2.829285e-01 2.258786e-01 1.602840e-01 1.000816e-01 3.142329e-02 -3.133676e-02 -1.022678e-01 -1.668750e-01 -2.391629e-01 -3.048000e-01 -3.774219e-01 -4.431768e-01 -5.150256e-01 -5.799066e-01 -6.498166e-01 -7.127709e-01 -7.795464e-01 -8.394813e-01 -9.019265e-01 -9.577363e-01 -1.014686e+00 -1.065282e+00 -1.115634e+00 -1.159981e+00 -1.202731e+00 -1.239887e+00 -1.274168e+00 -1.303323e+00 -1.328446e+00 -1.348973e+00 -1.364463e+00 -1.375950e+00 -1.381584e+00 -1.383868e+00 -1.379691e+00 -1.372872e+00 -1.359200e+00 -1.343635e+00 -1.321033e+00 -1.297311e+00 -1.266554e+00 -1.235455e+00 -1.197478e+00 -1.159914e+00 -1.115745e+00 -1.072706e+00 -1.023411e+00 -9.759078e-01 -9.225340e-01 -8.715470e-01 -8.150823e-01 -7.615277e-01 -7.028715e-01 -6.475765e-01 -5.875243e-01 -5.312153e-01 -4.704550e-01 -4.137565e-01 
-3.563997e-01 -2.981658e-01 -2.361215e-01 -1.786358e-01 -1.175221e-01 -6.114779e-02 -1.309186e-03 5.364194e-02 1.118997e-01 1.651488e-01 2.215408e-01 2.728264e-01 3.270757e-01 3.761428e-01 4.279717e-01 4.745663e-01 5.236946e-01 5.675631e-01 6.137122e-01 6.546068e-01 6.975073e-01 7.351951e-01 7.745997e-01 8.088739e-01 8.445696e-01 8.752606e-01 9.070803e-01 9.340652e-01 9.618952e-01 9.851024e-01 1.008885e+00 1.028294e+00 1.048023e+00 1.063660e+00 1.079373e+00 1.091300e+00 1.103061e+00 1.111363e+00 1.119249e+00 1.124016e+00 1.128097e+00 1.129410e+00 1.129731e+00 1.127643e+00 1.124211e+00 1.118738e+00 1.111509e+00 1.102621e+00 1.091500e+00 1.079116e+00 1.063958e+00 1.047951e+00 1.028566e+00 1.008772e+00 9.849438e-01 9.611746e-01 9.326738e-01 9.047336e-01 8.713433e-01 8.390499e-01 8.005890e-01 7.637964e-01 7.201456e-01 6.787675e-01 6.298949e-01 5.839273e-01 5.299128e-01 4.794545e-01 4.205103e-01 3.657789e-01 3.022649e-01 2.436073e-01 1.760402e-01 1.139376e-01 4.299213e-02 -2.194153e-02 -9.543904e-02 -1.624636e-01 -2.375486e-01 -3.058080e-01 -3.813981e-01 -4.499335e-01 -5.248538e-01 -5.926194e-01 -6.656311e-01 -7.315123e-01 -8.013437e-01 -8.641792e-01 -9.295573e-01 -9.881654e-01 -1.047848e+00 -1.101058e+00 -1.153865e+00 -1.200555e+00 -1.245408e+00 -1.284548e+00 -1.320506e+00 -1.351205e+00 -1.377514e+00 -1.399073e+00 -1.415210e+00 -1.427170e+00 -1.432884e+00 -1.435060e+00 -1.430399e+00 -1.422902e+00 -1.408215e+00 -1.391446e+00 -1.367361e+00 -1.341983e+00 -1.309364e+00 -1.276249e+00 -1.236129e+00 -1.196296e+00 -1.149810e+00 -1.104355e+00 -1.052667e+00 -1.002698e+00 -9.469409e-01 -8.935217e-01 -8.347523e-01 -7.788633e-01 -7.180290e-01 -6.605416e-01 -5.984670e-01 -5.401330e-01 -4.775181e-01 -4.189711e-01 
-3.570061e-01 -2.971753e-01 -2.334420e-01 -1.745266e-01 -1.118945e-01 -5.423329e-02 6.981431e-03 6.310193e-02 1.226201e-01 1.769438e-01 2.345028e-01 2.867859e-01 3.421236e-01 3.921222e-01 4.449683e-01 4.924319e-01 5.425055e-01 5.871773e-01 6.341922e-01 6.758158e-01 7.194907e-01 7.578218e-01 7.978958e-01 8.327161e-01 8.689646e-01 9.000960e-01 9.323452e-01 9.596613e-01 9.877979e-01 1.011230e+00 1.035205e+00 1.054744e+00 1.074567e+00 1.090255e+00 1.105986e+00 1.117908e+00 1.129639e+00 1.137903e+00 1.145739e+00 1.150462e+00 1.154499e+00 1.155784e+00 1.156088e+00 1.154006e+00 1.150597e+00 1.145173e+00 1.138013e+00 1.129218e+00 1.118204e+00 1.105950e+00 1.090920e+00 1.075062e+00 1.055799e+00 1.036148e+00 1.012399e+00 9.887326e-01 9.602267e-01 9.323102e-01 8.987839e-01 8.663931e-01 8.276167e-01 7.905630e-01 7.463697e-01 7.045259e-01 6.548410e-01 6.081673e-01 5.530349e-01 5.016012e-01 4.412082e-01 3.852125e-01 3.199061e-01 2.596865e-01 1.899849e-01 1.260247e-01 5.261893e-02 -1.445485e-02 -9.070755e-02 -1.601308e-01 -2.382214e-01 -3.091036e-01 -3.878928e-01 -4.592298e-01 -5.374750e-01 -6.081648e-01 -6.845501e-01 -7.534113e-01 -8.265804e-01 -8.923746e-01 -9.609636e-01 -1.022424e+00 -1.085095e+00 -1.140958e+00 -1.196434e+00 -1.245484e+00 -1.292586e+00 -1.333700e+00 -1.371396e+00 -1.403596e+00 -1.431050e+00 -1.453565e+00 -1.470196e+00 -1.482518e+00 -1.488048e+00 -1.489973e+00 -1.484459e+00 -1.476117e+00 -1.459957e+00 -1.441802e+00 -1.415713e+00 -1.388491e+00 -1.353447e+00 -1.318139e+00 -1.275302e+00 -1.233043e+00 -1.183677e+00 -1.135678e+00 -1.081067e+00 -1.028539e+00 -9.699171e-01 -9.140103e-01 -8.525110e-01 -7.942690e-01 -7.308925e-01 -6.712276e-01 -6.068270e-01 -5.465109e-01 -4.817942e-01 -4.214632e-01 
-3.600810e-01 -2.983530e-01 -2.328848e-01 -1.722706e-01 -1.080695e-01 -4.887872e-02 1.377016e-02 7.128094e-02 1.321275e-01 1.877290e-01 2.465337e-01 3.000031e-01 3.565194e-01 4.076252e-01 4.615889e-01 5.100844e-01 5.612116e-01 6.068355e-01 6.548290e-01 6.973140e-01 7.418770e-01 7.809644e-01 8.218192e-01 8.572766e-01 8.941846e-01 9.258240e-01 9.586041e-01 9.862957e-01 1.014836e+00 1.038518e+00 1.062781e+00 1.082457e+00 1.102476e+00 1.118211e+00 1.134074e+00 1.145984e+00 1.157816e+00 1.166042e+00 1.173984e+00 1.178675e+00 1.182854e+00 1.184144e+00 1.184651e+00 1.182633e+00 1.179503e+00 1.174214e+00 1.167411e+00 1.158824e+00 1.148234e+00 1.136247e+00 1.121683e+00 1.106128e+00 1.087336e+00 1.067988e+00 1.044665e+00 1.021257e+00 9.930785e-01 9.653237e-01 9.319638e-01 8.995820e-01 8.607486e-01 8.234944e-01 7.789601e-01 7.366528e-01 6.862884e-01 6.388416e-01 5.826470e-01 5.300950e-01 4.682267e-01 4.107455e-01 3.435371e-01 2.814584e-01 2.094335e-01 1.432497e-01 6.712428e-02 -2.513471e-03 -8.183830e-02 -1.541295e-01 -2.355839e-01 -3.095911e-01 -3.919613e-01 -4.666252e-01 -5.485838e-01 -6.227390e-01 -7.028803e-01 -7.752735e-01 -8.521488e-01 -9.214609e-01 -9.936142e-01 -1.058487e+00 -1.124489e+00 -1.183560e+00 -1.242040e+00 -1.293983e+00 -1.343669e+00 -1.387247e+00 -1.427011e+00 -1.461137e+00 -1.490054e+00 -1.513859e+00 -1.531276e+00 -1.544181e+00 -1.549778e+00 -1.551545e+00 -1.545378e+00 -1.536149e+00 -1.518661e+00 -1.498950e+00 -1.470941e+00 -1.441596e+00 -1.404162e+00 -1.366291e+00 -1.320732e+00 -1.275615e+00 -1.223336e+00 -1.172327e+00 -1.114743e+00 -1.059181e+00 -9.976369e-01 -9.387770e-01 -8.744905e-01 -8.134538e-01 -7.474810e-01 -6.852295e-01 -6.184534e-01 -5.557829e-01 -4.889185e-01 -4.264682e-01 