# vtk DataFile Version 2.0
Comment goes here
ASCII

DATASET STRUCTURED_POINTS
FIELD FieldData 1
TIME 1 1 double
0.01500000
DIMENSIONS    128   128   1

ORIGIN    0.000   0.000   0.000
SPACING   0.039062 0.039062   1.000

POINT_DATA   16384
SCALARS uX double
LOOKUP_TABLE default

2.713030e-01 2.870529e-01 3.012669e-01 3.162035e-01 3.309708e-01 3.448692e-01 3.599720e-01 3.725764e-01 3.877511e-01 3.987781e-01 4.137178e-01 4.228613e-01 4.372210e-01 4.441581e-01 4.575620e-01 4.619613e-01 4.740121e-01 4.755433e-01 4.858339e-01 4.841792e-01 4.923067e-01 4.871744e-01 4.927557e-01 4.838942e-01 4.865827e-01 4.737962e-01 4.732987e-01 4.564627e-01 4.525558e-01 4.316324e-01 4.241771e-01 3.992280e-01 3.881816e-01 3.593794e-01 3.448043e-01 3.124388e-01 2.945071e-01 2.589874e-01 2.379811e-01 1.998323e-01 1.761385e-01 1.359919e-01 1.100937e-01 6.867146e-02 4.113410e-02 -7.720014e-04 -2.931926e-02 -7.087358e-02 -9.975906e-02 -1.401116e-01 -1.686459e-01 -2.069639e-01 -2.344664e-01 -2.699661e-01 -2.957923e-01 -3.277695e-01 -3.513376e-01 -3.791949e-01 -4.000096e-01 -4.232782e-01 -4.409510e-01 -4.593066e-01 -4.735701e-01 -4.868402e-01 -4.975559e-01 -5.057205e-01 -5.128794e-01 -5.160624e-01 -5.197783e-01 -5.182330e-01 -5.187292e-01 -5.128177e-01 -5.104087e-01 -5.005771e-01 -4.956465e-01 -4.823992e-01 -4.753756e-01 -4.592487e-01 -4.505818e-01 -4.321180e-01 -4.222561e-01 -4.019833e-01 -3.913531e-01 -3.697663e-01 -3.587564e-01 -3.363033e-01 -3.252518e-01 -3.023233e-01 -2.915084e-01 -2.684331e-01 -2.580683e-01 -2.351101e-01 -2.253428e-01 -2.027017e-01 -1.936142e-01 -1.714305e-01 -1.630439e-01 -1.414031e-01 -1.336836e-01 -1.126239e-01 -1.054900e-01 -8.501063e-02 -7.834185e-02 -5.841122e-02 -5.205760e-02 -3.262252e-02 -2.641401e-02 -7.408236e-03 -1.164127e-03 1.748343e-02 2.394558e-02 4.230337e-02 4.915946e-02 6.728660e-02 7.469860e-02 9.263905e-02 1.007484e-01 1.185260e-01 1.274481e-01 1.450625e-01 1.548814e-01 1.723047e-01 1.830693e-01 2.002434e-01 2.119635e-01 2.287981e-01 2.414416e-01 2.578128e-01 
2.599493e-01 2.746996e-01 2.887882e-01 3.027569e-01 3.174090e-01 3.303812e-01 3.453786e-01 3.571096e-01 3.721882e-01 3.824068e-01 3.972604e-01 4.056729e-01 4.199574e-01 4.262542e-01 4.395955e-01 4.434583e-01 4.554616e-01 4.565735e-01 4.668349e-01 4.648914e-01 4.730126e-01 4.677347e-01 4.733382e-01 4.644864e-01 4.672321e-01 4.546219e-01 4.542241e-01 4.377408e-01 4.339838e-01 4.135972e-01 4.063495e-01 3.821266e-01 3.713521e-01 3.434668e-01 3.292329e-01 2.979722e-01 2.804535e-01 2.462190e-01 2.256973e-01 1.890007e-01 1.658596e-01 1.273138e-01 1.020298e-01 6.233314e-02 3.546195e-02 -4.621981e-03 -3.246310e-02 -7.213036e-02 -1.002837e-01 -1.387182e-01 -1.665095e-01 -2.029134e-01 -2.296780e-01 -2.633020e-01 -2.884115e-01 -3.185846e-01 -3.414727e-01 -3.676280e-01 -3.878144e-01 -4.095104e-01 -4.266202e-01 -4.435558e-01 -4.573337e-01 -4.693557e-01 -4.796735e-01 -4.867761e-01 -4.936327e-01 -4.959496e-01 -4.994642e-01 -4.972534e-01 -4.976523e-01 -4.912761e-01 -4.888735e-01 -4.787744e-01 -4.739509e-01 -4.606253e-01 -4.538040e-01 -4.377768e-01 -4.293996e-01 -4.112000e-01 -4.017051e-01 -3.818454e-01 -3.716481e-01 -3.506062e-01 -3.400828e-01 -3.182890e-01 -3.077646e-01 -2.855923e-01 -2.753323e-01 -2.530932e-01 -2.432988e-01 -2.212408e-01 -2.120479e-01 -1.903567e-01 -1.818371e-01 -1.606403e-01 -1.528064e-01 -1.321787e-01 -1.249893e-01 -1.049604e-01 -9.832829e-02 -7.889033e-02 -7.269126e-02 -5.380793e-02 -4.788945e-02 -2.950438e-02 -2.369546e-02 -5.740648e-03 1.391654e-04 1.773549e-02 2.386739e-02 4.117364e-02 4.773153e-02 6.480643e-02 7.194977e-02 8.883699e-02 9.670443e-02 1.134279e-01 1.221319e-01 1.386922e-01 1.483139e-01 1.646850e-01 1.752708e-01 1.913976e-01 2.029550e-01 2.187518e-01 2.312466e-01 2.465954e-01 
2.712518e-01 2.870977e-01 3.013969e-01 3.164459e-01 3.313221e-01 3.453484e-01 3.605831e-01 3.733292e-01 3.886573e-01 3.998374e-01 4.149495e-01 4.242543e-01 4.388021e-01 4.459048e-01 4.595075e-01 4.640718e-01 4.763263e-01 4.780162e-01 4.885084e-01 4.869995e-01 4.953187e-01 4.903120e-01 4.960668e-01 4.873030e-01 4.901384e-01 4.774138e-01 4.770284e-01 4.602112e-01 4.563741e-01 4.354195e-01 4.279858e-01 4.029504e-01 3.918731e-01 3.629257e-01 3.482649e-01 3.156945e-01 2.976222e-01 2.618397e-01 2.406401e-01 2.021754e-01 1.782402e-01 1.377324e-01 1.115517e-01 6.973342e-02 4.188143e-02 -4.425913e-04 -2.932572e-02 -7.130512e-02 -1.005354e-01 -1.413044e-01 -1.701791e-01 -2.088890e-01 -2.367138e-01 -2.725655e-01 -2.986828e-01 -3.309587e-01 -3.547744e-01 -3.828661e-01 -4.038750e-01 -4.273059e-01 -4.451123e-01 -4.635540e-01 -4.778866e-01 -4.911669e-01 -5.018869e-01 -5.099896e-01 -5.170914e-01 -5.201479e-01 -5.237519e-01 -5.220258e-01 -5.223645e-01 -5.162299e-01 -5.136290e-01 -5.035454e-01 -4.984004e-01 -4.848853e-01 -4.776367e-01 -4.612384e-01 -4.523474e-01 -4.336197e-01 -4.235444e-01 -4.030243e-01 -3.921998e-01 -3.703891e-01 -3.592103e-01 -3.365617e-01 -3.253710e-01 -3.022784e-01 -2.913566e-01 -2.681494e-01 -2.577111e-01 -2.346527e-01 -2.248444e-01 -2.021332e-01 -1.930351e-01 -1.708085e-01 -1.624390e-01 -1.407789e-01 -1.331002e-01 -1.120410e-01 -1.049673e-01 -8.450365e-02 -7.790993e-02 -5.800584e-02 -5.173730e-02 -3.233528e-02 -2.621717e-02 -7.246890e-03 -1.094036e-03 1.751934e-02 2.389350e-02 4.222177e-02 4.899685e-02 6.710204e-02 7.444328e-02 9.237182e-02 1.004235e-01 1.182013e-01 1.270813e-01 1.447097e-01 1.545041e-01 1.719565e-01 1.827161e-01 1.999354e-01 2.116716e-01 2.285681e-01 2.412499e-01 2.577001e-01 
2.598131e-01 2.747466e-01 2.890065e-01 3.031901e-01 3.180605e-01 3.312773e-01 3.465386e-01 3.585409e-01 3.739261e-01 3.844381e-01 3.996358e-01 4.083579e-01 4.230169e-01 4.296317e-01 4.433681e-01 4.475478e-01 4.599549e-01 4.613711e-01 4.720313e-01 4.703666e-01 4.788657e-01 4.738268e-01 4.797707e-01 4.711030e-01 4.741350e-01 4.616388e-01 4.614573e-01 4.450035e-01 4.413786e-01 4.209245e-01 4.137133e-01 3.893158e-01 3.784744e-01 3.503014e-01 3.358933e-01 3.042306e-01 2.864307e-01 2.516837e-01 2.307786e-01 1.934688e-01 1.698515e-01 1.306070e-01 1.047676e-01 6.430711e-02 3.681881e-02 -4.069141e-03 -3.256789e-02 -7.305118e-02 -1.018786e-01 -1.411110e-01 -1.695670e-01 -2.067198e-01 -2.341129e-01 -2.684079e-01 -2.940836e-01 -3.248235e-01 -3.481920e-01 -3.747887e-01 -3.953499e-01 -4.173471e-01 -4.347121e-01 -4.518011e-01 -4.657072e-01 -4.777352e-01 -4.880539e-01 -4.950232e-01 -5.017604e-01 -5.038194e-01 -5.071078e-01 -5.045351e-01 -5.046193e-01 -4.978011e-01 -4.950177e-01 -4.844223e-01 -4.791756e-01 -4.653253e-01 -4.580621e-01 -4.415059e-01 -4.326902e-01 -4.139784e-01 -4.040681e-01 -3.837305e-01 -3.731568e-01 -3.516846e-01 -3.408362e-01 -3.186688e-01 -3.078789e-01 -2.853950e-01 -2.749338e-01 -2.524466e-01 -2.425166e-01 -2.202726e-01 -2.110078e-01 -1.891891e-01 -1.806573e-01 -1.593854e-01 -1.515928e-01 -1.309355e-01 -1.238333e-01 -1.038119e-01 -9.730431e-02 -7.790259e-02 -7.185603e-02 -5.302896e-02 -4.728161e-02 -2.896443e-02 -2.333607e-02 -5.452937e-03 2.456033e-04 1.777360e-02 2.373151e-02 4.097908e-02 4.737746e-02 6.440877e-02 7.141338e-02 8.827667e-02 9.603169e-02 1.127547e-01 1.213773e-01 1.379636e-01 1.475392e-01 1.639653e-01 1.745435e-01 1.907562e-01 2.023477e-01 2.182624e-01 2.308355e-01 2.463349e-01 
2.710576e-01 2.871919e-01 3.017467e-01 3.171341e-01 3.323376e-01 3.467492e-01 3.623812e-01 3.755545e-01 3.913454e-01 4.029878e-01 4.186210e-01 4.284138e-01 4.435303e-01 4.511348e-01 4.653397e-01 4.704049e-01 4.832773e-01 4.854498e-01 4.965546e-01 4.954903e-01 5.043931e-01 4.997709e-01 5.060548e-01 4.975919e-01 5.008759e-01 4.883449e-01 4.883028e-01 4.715486e-01 4.679271e-01 4.468844e-01 4.395200e-01 4.142287e-01 4.030609e-01 3.736793e-01 3.587613e-01 3.255747e-01 3.070780e-01 2.705027e-01 2.487183e-01 2.092983e-01 1.846320e-01 1.430300e-01 1.159927e-01 7.297334e-02 4.416660e-02 5.740805e-04 -2.932901e-02 -7.259943e-02 -1.028774e-01 -1.449118e-01 -1.748212e-01 -2.147220e-01 -2.435271e-01 -2.804487e-01 -3.074510e-01 -3.406342e-01 -3.652027e-01 -3.940052e-01 -4.156041e-01 -4.395256e-01 -4.577368e-01 -4.764368e-01 -4.909771e-01 -5.042837e-01 -5.150135e-01 -5.229228e-01 -5.298469e-01 -5.325134e-01 -5.357726e-01 -5.334916e-01 -5.333471e-01 -5.265302e-01 -5.233416e-01 -5.124887e-01 -5.066884e-01 -4.923573e-01 -4.844226e-01 -4.671994e-01 -4.576260e-01 -4.380975e-01 -4.273739e-01 -4.061047e-01 -3.946908e-01 -3.722036e-01 -3.605137e-01 -3.372757e-01 -3.256653e-01 -3.020788e-01 -2.908361e-01 -2.672335e-01 -2.565752e-01 -2.332181e-01 -2.232885e-01 -2.003698e-01 -1.912431e-01 -1.688914e-01 -1.605767e-01 -1.388631e-01 -1.313112e-01 -1.102575e-01 -1.033693e-01 -8.295709e-02 -7.659330e-02 -5.677315e-02 -5.076453e-02 -3.146579e-02 -2.562335e-02 -6.763315e-03 -8.883465e-04 1.761914e-02 2.372563e-02 4.196243e-02 4.849120e-02 6.652806e-02 7.365418e-02 9.154493e-02 9.942121e-02 1.171979e-01 1.259494e-01 1.436184e-01 1.533378e-01 1.708764e-01 1.816196e-01 1.989737e-01 2.107568e-01 2.278387e-01 2.406346e-01 2.573218e-01 
2.594610e-01 2.747618e-01 2.893645e-01 3.039796e-01 3.192881e-01 3.329973e-01 3.487894e-01 3.613389e-01 3.773421e-01 3.884472e-01 4.043402e-01 4.136894e-01 4.291068e-01 4.363671e-01 4.509058e-01 4.557304e-01 4.689594e-01 4.709972e-01 4.824704e-01 4.813776e-01 4.906491e-01 4.861032e-01 4.927447e-01 4.844606e-01 4.880810e-01 4.758274e-01 4.760923e-01 4.597105e-01 4.563610e-01 4.357816e-01 4.286515e-01 4.039107e-01 3.929395e-01 3.641925e-01 3.494355e-01 3.169647e-01 2.985975e-01 2.628159e-01 2.411348e-01 2.025834e-01 1.780001e-01 1.373377e-01 1.103698e-01 6.835687e-02 3.961324e-02 -2.910997e-03 -3.274901e-02 -7.489458e-02 -1.050963e-01 -1.459549e-01 -1.757669e-01 -2.144471e-01 -2.431231e-01 -2.787861e-01 -3.056180e-01 -3.375126e-01 -3.618615e-01 -3.893558e-01 -4.106809e-01 -4.332878e-01 -4.511708e-01 -4.685662e-01 -4.827288e-01 -4.947608e-01 -5.050744e-01 -5.117621e-01 -5.182471e-01 -5.197702e-01 -5.225874e-01 -5.192668e-01 -5.186997e-01 -5.109717e-01 -5.074028e-01 -4.957892e-01 -4.896721e-01 -4.747484e-01 -4.665791e-01 -4.489437e-01 -4.392316e-01 -4.194780e-01 -4.087208e-01 -3.874140e-01 -3.760755e-01 -3.537335e-01 -3.422266e-01 -3.193068e-01 -3.079815e-01 -2.848726e-01 -2.740078e-01 -2.510257e-01 -2.408260e-01 -2.182140e-01 -2.088097e-01 -1.867415e-01 -1.781915e-01 -1.567767e-01 -1.490744e-01 -1.283658e-01 -1.214467e-01 -1.014490e-01 -9.519968e-02 -7.587907e-02 -7.014694e-02 -5.144076e-02 -4.604489e-02 -2.787134e-02 -2.261281e-02 -4.880155e-03 4.478311e-04 1.783288e-02 2.343563e-02 4.056042e-02 4.663344e-02 6.357298e-02 7.029465e-02 8.710629e-02 9.463169e-02 1.113507e-01 1.198064e-01 1.364424e-01 1.459220e-01 1.624563e-01 1.730165e-01 1.893996e-01 2.010569e-01 2.172067e-01 2.299346e-01 2.457353e-01 
2.705973e-01 2.872139e-01 3.021947e-01 3.181494e-01 3.339006e-01 3.489597e-01 3.652586e-01 3.791519e-01 3.957220e-01 4.081455e-01 4.246588e-01 4.352783e-01 4.513583e-01 4.598154e-01 4.750437e-01 4.809631e-01 4.948887e-01 4.978877e-01 5.100399e-01 5.097409e-01 5.196445e-01 5.156891e-01 5.228834e-01 5.149487e-01 5.190081e-01 5.068252e-01 5.073802e-01 4.907540e-01 4.875123e-01 4.663410e-01 4.591069e-01 4.334010e-01 4.220907e-01 3.919888e-01 3.766426e-01 3.424232e-01 3.232119e-01 2.852990e-01 2.625247e-01 2.214864e-01 1.955785e-01 1.521171e-01 1.236219e-01 7.855699e-02 4.812243e-02 2.365867e-03 -2.927878e-02 -7.475438e-02 -1.068234e-01 -1.510210e-01 -1.827014e-01 -2.246388e-01 -2.551226e-01 -2.938734e-01 -3.223918e-01 -3.571245e-01 -3.829820e-01 -4.129954e-01 -4.356022e-01 -4.603549e-01 -4.792539e-01 -4.983843e-01 -5.132713e-01 -5.266083e-01 -5.373427e-01 -5.449043e-01 -5.515094e-01 -5.534910e-01 -5.561438e-01 -5.528964e-01 -5.519086e-01 -5.439099e-01 -5.397009e-01 -5.275212e-01 -5.205878e-01 -5.048549e-01 -4.957385e-01 -4.771035e-01 -4.663592e-01 -4.454657e-01 -4.336338e-01 -4.110927e-01 -3.986755e-01 -3.750446e-01 -3.624883e-01 -3.382586e-01 -3.259403e-01 -3.015273e-01 -2.897471e-01 -2.654875e-01 -2.544650e-01 -2.306164e-01 -2.204915e-01 -1.972364e-01 -1.880723e-01 -1.655241e-01 -1.573137e-01 -1.355246e-01 -1.281986e-01 -1.071689e-01 -1.006055e-01 -8.029398e-02 -7.432953e-02 -5.466384e-02 -4.910424e-02 -2.999138e-02 -2.462337e-02 -5.959647e-03 -5.616388e-04 1.775819e-02 2.340615e-02 4.148080e-02 4.758817e-02 6.550293e-02 7.226104e-02 9.008199e-02 9.765772e-02 1.154271e-01 1.239575e-01 1.416898e-01 1.512779e-01 1.689569e-01 1.796677e-01 1.972443e-01 2.091015e-01 2.264914e-01 2.394742e-01 2.565566e-01 
2.587321e-01 2.745859e-01 2.897023e-01 3.049696e-01 3.209381e-01 3.353934e-01 3.519892e-01 3.653704e-01 3.823129e-01 3.943226e-01 4.112766e-01 4.215858e-01 4.381647e-01 4.464174e-01 4.621893e-01 4.680099e-01 4.825073e-01 4.855101e-01 4.982428e-01 4.980440e-01 5.085164e-01 5.047486e-01 5.124793e-01 5.048092e-01 5.093529e-01 4.975004e-01 4.984711e-01 4.822298e-01 4.793228e-01 4.585810e-01 4.515929e-01 4.263531e-01 4.151975e-01 3.855933e-01 3.703122e-01 3.366193e-01 3.173891e-01 2.800314e-01 2.571629e-01 2.167104e-01 1.906440e-01 1.478028e-01 1.190979e-01 7.469291e-02 4.401283e-02 -1.037763e-03 -3.294559e-02 -7.766171e-02 -1.099909e-01 -1.533672e-01 -1.852816e-01 -2.263276e-01 -2.569947e-01 -2.947766e-01 -3.234036e-01 -3.570849e-01 -3.829549e-01 -4.118339e-01 -4.343411e-01 -4.578819e-01 -4.765609e-01 -4.944150e-01 -5.089629e-01 -5.209800e-01 -5.312676e-01 -5.374945e-01 -5.435664e-01 -5.442330e-01 -5.462953e-01 -5.417909e-01 -5.401898e-01 -5.310307e-01 -5.262222e-01 -5.130153e-01 -5.055318e-01 -4.889365e-01 -4.793512e-01 -4.600433e-01 -4.489370e-01 -4.275767e-01 -4.155086e-01 -3.927148e-01 -3.801983e-01 -3.565289e-01 -3.440139e-01 -3.199528e-01 -3.078133e-01 -2.837630e-01 -2.722903e-01 -2.485697e-01 -2.379703e-01 -2.148164e-01 -2.052136e-01 -1.827863e-01 -1.742247e-01 -1.526139e-01 -1.450667e-01 -1.243019e-01 -1.176797e-01 -9.773930e-02 -9.190082e-02 -7.272381e-02 -6.748720e-02 -4.898357e-02 -4.413821e-02 -2.619993e-02 -2.151812e-02 -4.029121e-03 7.228973e-04 1.787772e-02 2.292976e-02 3.985681e-02 4.542603e-02 6.221651e-02 6.850010e-02 8.522486e-02 9.239406e-02 1.090994e-01 1.172946e-01 1.339992e-01 1.433259e-01 1.600180e-01 1.705435e-01 1.871790e-01 1.989289e-01 2.154298e-01 2.283852e-01 2.446377e-01 
2.696626e-01 2.869578e-01 3.025341e-01 3.192900e-01 3.358117e-01 3.517885e-01 3.690305e-01 3.839477e-01 4.016255e-01 4.151639e-01 4.329339e-01 4.447385e-01 4.622006e-01 4.718855e-01 4.885883e-01 4.957440e-01 5.111940e-01 5.153970e-01 5.290717e-01 5.298963e-01 5.412617e-01 5.382955e-01 5.468266e-01 5.396883e-01 5.448932e-01 5.332530e-01 5.346981e-01 5.183010e-01 5.156359e-01 4.943250e-01 4.873056e-01 4.610458e-01 4.495536e-01 4.184524e-01 4.025082e-01 3.668315e-01 3.466040e-01 3.067852e-01 2.825923e-01 2.392326e-01 2.115373e-01 1.653965e-01 1.347957e-01 8.677306e-02 5.398145e-02 5.087859e-03 -2.908412e-02 -7.776230e-02 -1.124357e-01 -1.597786e-01 -1.940384e-01 -2.389389e-01 -2.718707e-01 -3.132822e-01 -3.440122e-01 -3.809955e-01 -4.087318e-01 -4.404978e-01 -4.645694e-01 -4.905147e-01 -5.104055e-01 -5.301376e-01 -5.455116e-01 -5.588609e-01 -5.695762e-01 -5.765948e-01 -5.827033e-01 -5.836491e-01 -5.853835e-01 -5.806925e-01 -5.784413e-01 -5.686907e-01 -5.629643e-01 -5.488303e-01 -5.402222e-01 -5.224367e-01 -5.115836e-01 -4.908932e-01 -4.784375e-01 -4.555685e-01 -4.421259e-01 -4.177551e-01 -4.038886e-01 -3.786230e-01 -3.648235e-01 -3.391864e-01 -3.258604e-01 -3.002844e-01 -2.877472e-01 -2.625725e-01 -2.510465e-01 -2.265235e-01 -2.161404e-01 -1.924353e-01 -1.832412e-01 -1.604440e-01 -1.524075e-01 -1.305422e-01 -1.235642e-01 -1.025995e-01 -9.652471e-02 -7.638607e-02 -7.101518e-02 -5.159680e-02 -4.669960e-02 -2.787617e-02 -2.320431e-02 -4.842031e-03 -1.410189e-04 1.789252e-02 2.287244e-02 4.069974e-02 4.619429e-02 6.392092e-02 7.014412e-02 8.785310e-02 9.499114e-02 1.127386e-01 1.209450e-01 1.387567e-01 1.481486e-01 1.660173e-01 1.766720e-01 1.945554e-01 2.065072e-01 2.243258e-01 2.375635e-01 2.551994e-01 
2.573799e-01 2.739745e-01 2.897748e-01 3.059194e-01 3.227730e-01 3.382366e-01 3.559166e-01 3.704268e-01 3.886439e-01 4.018873e-01 4.202891e-01 4.319141e-01 4.500866e-01 4.597072e-01 4.771802e-01 4.843824e-01 5.006384e-01 5.049899e-01 5.194782e-01 5.205402e-01 5.326956e-01 5.300388e-01 5.393045e-01 5.325281e-01 5.383818e-01 5.271359e-01 5.291179e-01 5.131278e-01 5.108677e-01 4.899599e-01 4.832009e-01 4.573278e-01 4.459464e-01 4.152080e-01 3.992273e-01 3.638874e-01 3.434840e-01 3.039793e-01 2.794838e-01 2.364231e-01 2.083145e-01 1.624693e-01 1.313642e-01 8.364865e-02 5.028508e-02 1.727859e-03 -3.305600e-02 -8.134798e-02 -1.166406e-01 -1.635248e-01 -1.983741e-01 -2.427195e-01 -2.761708e-01 -3.169077e-01 -3.480466e-01 -3.842160e-01 -4.122132e-01 -4.430129e-01 -4.671676e-01 -4.919908e-01 -5.117688e-01 -5.302318e-01 -5.452940e-01 -5.572500e-01 -5.674671e-01 -5.730037e-01 -5.784558e-01 -5.778774e-01 -5.788384e-01 -5.726343e-01 -5.695426e-01 -5.583460e-01 -5.517654e-01 -5.363062e-01 -5.268828e-01 -5.079404e-01 -4.963581e-01 -4.747173e-01 -4.616577e-01 -4.380717e-01 -4.241793e-01 -3.993403e-01 -3.851961e-01 -3.597153e-01 -3.458182e-01 -3.202130e-01 -3.069680e-01 -2.816572e-01 -2.693702e-01 -2.446739e-01 -2.335518e-01 -2.096957e-01 -1.998502e-01 -1.769732e-01 -1.684273e-01 -1.465909e-01 -1.392884e-01 -1.184883e-01 -1.123045e-01 -9.248243e-02 -8.723686e-02 -6.829323e-02 -6.376291e-02 -4.556970e-02 -4.150270e-02 -2.391561e-02 -2.004441e-02 -2.914064e-03 1.032079e-03 1.785038e-02 2.213446e-02 3.877263e-02 4.364079e-02 6.021144e-02 6.588567e-02 8.247726e-02 8.914982e-02 1.058230e-01 1.136521e-01 1.304369e-01 1.395436e-01 1.564375e-01 1.669026e-01 1.838689e-01 1.957301e-01 2.126958e-01 2.259452e-01 2.428000e-01 
2.679555e-01 2.861280e-01 3.024674e-01 3.202642e-01 3.377818e-01 3.549565e-01 3.734262e-01 3.896866e-01 4.088156e-01 4.238239e-01 4.432509e-01 4.566262e-01 4.759220e-01 4.872439e-01 5.059149e-01 5.147304e-01 5.322275e-01 5.380596e-01 5.537915e-01 5.561517e-01 5.695043e-01 5.679081e-01 5.782685e-01 5.722555e-01 5.790404e-01 5.681973e-01 5.708838e-01 5.548717e-01 5.530283e-01 5.316121e-01 5.249273e-01 4.980055e-01 4.863115e-01 4.539444e-01 4.372347e-01 3.996666e-01 3.781059e-01 3.357792e-01 3.097060e-01 2.632644e-01 2.331855e-01 1.834652e-01 1.500446e-01 9.805277e-02 6.209376e-02 8.976255e-03 -2.860216e-02 -8.160316e-02 -1.197963e-01 -1.713921e-01 -2.091460e-01 -2.580563e-01 -2.943102e-01 -3.393216e-01 -3.730556e-01 -4.130784e-01 -4.433648e-01 -4.774866e-01 -5.035390e-01 -5.310695e-01 -5.522876e-01 -5.727907e-01 -5.887934e-01 -6.021032e-01 -6.127467e-01 -6.189647e-01 -6.243431e-01 -6.238175e-01 -6.242442e-01 -6.175328e-01 -6.135073e-01 -6.013290e-01 -5.934913e-01 -5.766715e-01 -5.657518e-01 -5.451671e-01 -5.319347e-01 -5.084632e-01 -4.936805e-01 -4.681590e-01 -4.525431e-01 -4.257357e-01 -4.099292e-01 -3.825055e-01 -3.670566e-01 -3.395792e-01 -3.249306e-01 -2.978510e-01 -2.843348e-01 -2.579945e-01 -2.458337e-01 -2.204699e-01 -2.097827e-01 -1.855372e-01 -1.763447e-01 -1.532744e-01 -1.455111e-01 -1.236006e-01 -1.171263e-01 -9.630087e-02 -9.091414e-02 -7.105397e-02 -6.650701e-02 -4.746108e-02 -4.347481e-02 -2.507446e-02 -2.135335e-02 -3.424788e-03 3.293765e-04 1.795422e-02 2.203031e-02 3.950475e-02 4.417242e-02 6.162794e-02 6.712998e-02 8.467093e-02 9.121770e-02 1.089175e-01 1.166828e-01 1.345812e-01 1.436996e-01 1.618004e-01 1.723644e-01 1.906339e-01 2.026919e-01 2.210572e-01 2.346101e-01 2.529573e-01 
2.550678e-01 2.725930e-01 2.892440e-01 3.064971e-01 3.244626e-01 3.412072e-01 3.602607e-01 3.762131e-01 3.960574e-01 4.108862e-01 4.311498e-01 4.444765e-01 4.647132e-01 4.761153e-01 4.958070e-01 5.048232e-01 5.233889e-01 5.295275e-01 5.463372e-01 5.490890e-01 5.634848e-01 5.623392e-01 5.736627e-01 5.681294e-01 5.757538e-01 5.653883e-01 5.687528e-01 5.531866e-01 5.518309e-01 5.308037e-01 5.243983e-01 4.977906e-01 4.861613e-01 4.540233e-01 4.371673e-01 3.997425e-01 3.778362e-01 3.355742e-01 3.089734e-01 2.625321e-01 2.317655e-01 1.820011e-01 1.477584e-01 9.570304e-02 5.881820e-02 5.647235e-03 -3.292389e-02 -8.593424e-02 -1.251424e-01 -1.766652e-01 -2.154039e-01 -2.641181e-01 -3.012680e-01 -3.459185e-01 -3.803988e-01 -4.198583e-01 -4.506836e-01 -4.840107e-01 -5.103470e-01 -5.368365e-01 -5.580526e-01 -5.772720e-01 -5.929774e-01 -6.047853e-01 -6.148512e-01 -6.193940e-01 -6.239522e-01 -6.216400e-01 -6.210610e-01 -6.125249e-01 -6.073781e-01 -5.934146e-01 -5.844155e-01 -5.659251e-01 -5.538773e-01 -5.318031e-01 -5.175422e-01 -4.928156e-01 -4.771578e-01 -4.506537e-01 -4.343559e-01 -4.068604e-01 -3.905900e-01 -3.627797e-01 -3.470957e-01 -3.195273e-01 -3.048710e-01 -2.779792e-01 -2.646714e-01 -2.387731e-01 -2.270172e-01 -2.023195e-01 -1.922085e-01 -1.688198e-01 -1.603461e-01 -1.382883e-01 -1.313552e-01 -1.105781e-01 -1.050133e-01 -8.540883e-02 -8.097944e-02 -6.239694e-02 -5.882508e-02 -4.108636e-02 -3.806542e-02 -2.097875e-02 -1.818900e-02 -1.561896e-03 1.315266e-03 1.766525e-02 2.093516e-02 3.717189e-02 4.111694e-02 5.737938e-02 6.225195e-02 7.864980e-02 8.466740e-02 1.012783e-01 1.086204e-01 1.254879e-01 1.342938e-01 1.514265e-01 1.617933e-01 1.791630e-01 1.911438e-01 2.086847e-01 2.222854e-01 2.398920e-01 
2.650820e-01 2.843327e-01 3.015982e-01 3.206823e-01 3.394218e-01 3.580870e-01 3.780770e-01 3.960183e-01 4.169598e-01 4.338190e-01 4.553325e-01 4.706986e-01 4.923216e-01 5.057337e-01 5.269221e-01 5.378742e-01 5.580098e-01 5.659592e-01 5.843629e-01 5.887424e-01 6.046957e-01 6.049295e-01 6.177031e-01 6.132279e-01 6.221164e-01 6.124085e-01 6.167690e-01 6.013762e-01 6.006673e-01 5.792461e-01 5.730651e-01 5.454200e-01 5.335324e-01 4.996540e-01 4.820157e-01 4.421128e-01 4.188823e-01 3.734031e-01 3.449437e-01 2.945834e-01 2.614577e-01 2.071500e-01 1.701067e-01 1.129991e-01 7.295389e-02 1.436956e-02 -2.762018e-02 -8.623332e-02 -1.290008e-01 -1.861298e-01 -2.284393e-01 -2.825733e-01 -3.231695e-01 -3.728704e-01 -4.105368e-01 -4.545115e-01 -4.881342e-01 -5.253021e-01 -5.539354e-01 -5.834872e-01 -6.064131e-01 -6.278534e-01 -6.446276e-01 -6.577964e-01 -6.682734e-01 -6.733429e-01 -6.776768e-01 -6.751223e-01 -6.737412e-01 -6.642910e-01 -6.578503e-01 -6.424196e-01 -6.317399e-01 -6.113580e-01 -5.973570e-01 -5.730957e-01 -5.567217e-01 -5.296321e-01 -5.118056e-01 -4.828675e-01 -4.644362e-01 -4.345225e-01 -4.162282e-01 -3.860834e-01 -3.685431e-01 -3.387738e-01 -3.224707e-01 -2.935456e-01 -2.788283e-01 -2.510845e-01 -2.381714e-01 -2.118245e-01 -2.008124e-01 -1.759690e-01 -1.668442e-01 -1.435158e-01 -1.361665e-01 -1.142850e-01 -1.085160e-01 -8.794941e-02 -8.349880e-02 -6.406787e-02 -6.062413e-02 -4.211907e-02 -3.933942e-02 -2.153579e-02 -1.906378e-02 -1.736873e-03 7.814641e-04 1.784440e-02 2.074692e-02 3.773710e-02 4.133503e-02 5.841513e-02 6.298565e-02 8.028521e-02 8.606678e-02 1.036793e-01 1.108690e-01 1.288501e-01 1.376024e-01 1.559690e-01 1.663942e-01 1.851228e-01 1.972858e-01 2.163118e-01 2.302295e-01 2.494447e-01 
2.513620e-01 2.700086e-01 2.876708e-01 3.062689e-01 3.255728e-01 3.438820e-01 3.646064e-01 3.823326e-01 4.041754e-01 4.209682e-01 4.435399e-01 4.589910e-01 4.818098e-01 4.954548e-01 5.179468e-01 5.292682e-01 5.507740e-01 5.592089e-01 5.789982e-01 5.839500e-01 6.012453e-01 6.021008e-01 6.161100e-01 6.122633e-01 6.222202e-01 6.131026e-01 6.183113e-01 6.034279e-01 6.033074e-01 5.822788e-01 5.764026e-01 5.490080e-01 5.371349e-01 5.033523e-01 4.854457e-01 4.454845e-01 4.217206e-01 3.760415e-01 3.468077e-01 2.961281e-01 2.620147e-01 2.072977e-01 1.690843e-01 1.115130e-01 7.015158e-02 1.109033e-02 -3.231693e-02 -9.137247e-02 -1.356024e-01 -1.930847e-01 -2.368322e-01 -2.911697e-01 -3.330989e-01 -3.827900e-01 -4.215975e-01 -4.652881e-01 -4.997754e-01 -5.363350e-01 -5.654844e-01 -5.940728e-01 -6.171173e-01 -6.372351e-01 -6.537126e-01 -6.652267e-01 -6.750092e-01 -6.781490e-01 -6.814422e-01 -6.767661e-01 -6.740772e-01 -6.624134e-01 -6.544954e-01 -6.368655e-01 -6.246433e-01 -6.021790e-01 -5.866712e-01 -5.605341e-01 -5.427779e-01 -5.140902e-01 -4.950776e-01 -4.648688e-01 -4.454984e-01 -4.146692e-01 -3.957137e-01 -3.650166e-01 -3.471051e-01 -3.171380e-01 -3.007502e-01 -2.719598e-01 -2.574281e-01 -2.301200e-01 -2.176376e-01 -1.919895e-01 -1.816213e-01 -1.576982e-01 -1.493940e-01 -1.271646e-01 -1.207737e-01 -1.001270e-01 -9.541461e-02 -7.617788e-02 -7.284282e-02 -5.479941e-02 -5.249284e-02 -3.540011e-02 -3.374515e-02 -1.735118e-02 -1.596166e-02 -2.009095e-05 1.482655e-03 1.720056e-02 1.917382e-02 3.487024e-02 3.763975e-02 5.348433e-02 5.733770e-02 7.346426e-02 7.864742e-02 9.515235e-02 1.018682e-01 1.188100e-01 1.272179e-01 1.446173e-01 1.548330e-01 1.726721e-01 1.847665e-01 2.029880e-01 2.169849e-01 2.354902e-01 
2.605450e-01 2.810757e-01 2.994217e-01 3.200456e-01 3.402305e-01 3.606909e-01 3.825003e-01 4.024807e-01 4.256142e-01 4.447353e-01 4.687978e-01 4.866158e-01 5.111101e-01 5.271181e-01 5.514427e-01 5.650736e-01 5.885270e-01 5.991607e-01 6.209550e-01 6.279291e-01 6.472130e-01 6.498391e-01 6.657322e-01 6.633177e-01 6.749539e-01 6.668322e-01 6.734091e-01 6.589777e-01 6.598080e-01 6.385759e-01 6.331350e-01 6.047747e-01 5.927396e-01 5.571400e-01 5.384170e-01 4.957298e-01 4.704680e-01 4.211400e-01 3.897337e-01 3.345200e-01 2.976002e-01 2.375563e-01 1.959753e-01 1.324278e-01 8.723920e-02 2.173903e-02 -2.582916e-02 -9.156821e-02 -1.401464e-01 -2.043203e-01 -2.524414e-01 -3.132373e-01 -3.593934e-01 -4.150772e-01 -4.577903e-01 -5.067972e-01 -5.447022e-01 -5.857253e-01 -6.176574e-01 -6.497255e-01 -6.748030e-01 -6.973403e-01 -7.150303e-01 -7.278864e-01 -7.380416e-01 -7.414877e-01 -7.443475e-01 -7.390366e-01 -7.351910e-01 -7.220875e-01 -7.124100e-01 -6.926983e-01 -6.782584e-01 -6.532432e-01 -6.352125e-01 -6.062239e-01 -5.857876e-01 -5.541002e-01 -5.323830e-01 -4.991553e-01 -4.771673e-01 -4.434024e-01 -4.220043e-01 -3.885311e-01 -3.684172e-01 -3.358865e-01 -3.175814e-01 -2.864731e-01 -2.703368e-01 -2.409734e-01 -2.272117e-01 -1.997746e-01 -1.884521e-01 -1.629986e-01 -1.540537e-01 -1.305350e-01 -1.237950e-01 -1.020741e-01 -9.727291e-02 -7.714394e-02 -7.394126e-02 -5.514902e-02 -5.315158e-02 -3.541158e-02 -3.419519e-02 -1.721278e-02 -1.634398e-02 1.686502e-04 1.113178e-03 1.742310e-02 1.884075e-02 3.518404e-02 3.743501e-02 5.401024e-02 5.741072e-02 7.437543e-02 7.919467e-02 9.666412e-02 1.031240e-01 1.211711e-01 1.294469e-01 1.481025e-01 1.583240e-01 1.775766e-01 1.898278e-01 2.096226e-01 2.239399e-01 2.441769e-01 
2.457247e-01 2.656823e-01 2.845047e-01 3.046880e-01 3.255516e-01 3.457197e-01 3.684168e-01 3.882674e-01 4.124985e-01 4.316632e-01 4.570249e-01 4.750651e-01 5.010400e-01 5.174453e-01 5.433971e-01 5.575867e-01 5.827633e-01 5.940909e-01 6.176381e-01 6.254024e-01 6.463902e-01 6.498521e-01 6.673145e-01 6.657222e-01 6.787090e-01 6.713328e-01 6.789683e-01 6.651454e-01 6.666883e-01 6.458772e-01 6.407733e-01 6.126115e-01 6.005329e-01 5.648937e-01 5.457619e-01 5.028007e-01 4.767932e-01 4.269772e-01 3.945216e-01 3.386384e-01 3.003996e-01 2.395452e-01 1.964102e-01 1.319575e-01 8.501826e-02 1.857057e-02 -3.089541e-02 -9.756353e-02 -1.481201e-01 -2.131329e-01 -2.632251e-01 -3.246867e-01 -3.726990e-01 -4.287838e-01 -4.731173e-01 -5.221691e-01 -5.613366e-01 -6.019687e-01 -6.346984e-01 -6.658855e-01 -6.912205e-01 -7.123707e-01 -7.297477e-01 -7.407399e-01 -7.500330e-01 -7.512129e-01 -7.527326e-01 -7.448660e-01 -7.393135e-01 -7.235017e-01 -7.118864e-01 -6.894593e-01 -6.729947e-01 -6.453955e-01 -6.253900e-01 -5.940678e-01 -5.718239e-01 -5.381454e-01 -5.148794e-01 -4.800644e-01 -4.568489e-01 -4.219328e-01 -3.996635e-01 -3.654807e-01 -3.448628e-01 -3.120490e-01 -2.935981e-01 -2.626024e-01 -2.466547e-01 -2.177580e-01 -2.044851e-01 -1.778205e-01 -1.672460e-01 -1.428192e-01 -1.348357e-01 -1.125448e-01 -1.069315e-01 -8.658744e-02 -8.302927e-02 -6.437647e-02 -6.248493e-02 -4.522289e-02 -4.455881e-02 -2.836366e-02 -2.846111e-02 -1.300597e-02 -1.339548e-02 1.631974e-03 1.402899e-03 1.628669e-02 1.663749e-02 3.162402e-02 3.293035e-02 4.822335e-02 5.081157e-02 6.657044e-02 7.071630e-02 8.705676e-02 9.298683e-02 1.099825e-01 1.178767e-01 1.355607e-01 1.455542e-01 1.639201e-01 1.761043e-01 1.951051e-01 2.095256e-01 2.290723e-01 
2.537364e-01 2.757478e-01 2.953131e-01 3.177335e-01 3.395783e-01 3.621506e-01 3.860795e-01 4.084785e-01 4.341994e-01 4.560259e-01 4.831347e-01 5.039117e-01 5.318789e-01 5.510498e-01 5.792120e-01 5.961417e-01 6.237013e-01 6.376812e-01 6.637178e-01 6.739745e-01 6.974701e-01 7.031800e-01 7.230598e-01 7.233713e-01 7.385589e-01 7.326239e-01 7.421064e-01 7.291257e-01 7.320220e-01 7.113047e-01 7.069292e-01 6.779630e-01 6.658771e-01 6.284031e-01 6.084491e-01 5.625293e-01 5.348452e-01 4.809116e-01 4.459301e-01 3.848061e-01 3.432416e-01 2.761332e-01 2.289624e-01 1.574224e-01 1.058624e-01 3.173108e-02 -2.278569e-02 -9.745594e-02 -1.533132e-01 -2.263458e-01 -2.817879e-01 -3.509803e-01 -4.041752e-01 -4.674066e-01 -5.165325e-01 -5.718785e-01 -6.152308e-01 -6.610797e-01 -6.971917e-01 -7.323521e-01 -7.601129e-01 -7.838977e-01 -8.026491e-01 -8.149216e-01 -8.245137e-01 -8.256840e-01 -8.264778e-01 -8.174470e-01 -8.102619e-01 -7.923218e-01 -7.783368e-01 -7.530401e-01 -7.336678e-01 -7.026898e-01 -6.794443e-01 -6.444540e-01 -6.188311e-01 -5.813876e-01 -5.547704e-01 -5.162496e-01 -4.898452e-01 -4.513998e-01 -4.262045e-01 -3.887515e-01 -3.655407e-01 -3.297677e-01 -3.091019e-01 -2.754868e-01 -2.577269e-01 -2.265616e-01 -2.118875e-01 -1.833017e-01 -1.717317e-01 -1.457160e-01 -1.371245e-01 -1.135514e-01 -1.076876e-01 -8.633257e-02 -8.283992e-02 -6.340325e-02 -6.184220e-02 -4.397271e-02 -4.384609e-02 -2.716549e-02 -2.794610e-02 -1.207249e-02 -1.323041e-02 2.201057e-03 1.174248e-03 1.649517e-02 1.606767e-02 3.156560e-02 3.215334e-02 4.806619e-02 5.002740e-02 6.654202e-02 7.017706e-02 8.743059e-02 9.298515e-02 1.110675e-01 1.187371e-01 1.376932e-01 1.476270e-01 1.674583e-01 1.797614e-01 2.004252e-01 2.151573e-01 2.365646e-01 