# vtk DataFile Version 2.0
Comment goes here
ASCII

DATASET STRUCTURED_POINTS
FIELD FieldData 1
TIME 1 1 double
0.10500000
DIMENSIONS    128   128   1

ORIGIN    0.000   0.000   0.000
SPACING   0.039062 0.039062   1.000

POINT_DATA   16384
SCALARS uX double
LOOKUP_TABLE default

-3.161242e-01 -2.580487e-01 -2.039358e-01 -1.462223e-01 -9.257245e-02 -3.581026e-02 1.685083e-02 7.213387e-02 1.233396e-01 1.766758e-01 2.260171e-01 2.769969e-01 3.241197e-01 3.723883e-01 4.169906e-01 4.622455e-01 5.040737e-01 5.460612e-01 5.849074e-01 6.234199e-01 6.591183e-01 6.939921e-01 7.264154e-01 7.575275e-01 7.865839e-01 8.138495e-01 8.394785e-01 8.628475e-01 8.850154e-01 9.044688e-01 9.231637e-01 9.387083e-01 9.539348e-01 9.655985e-01 9.773717e-01 9.851970e-01 9.935367e-01 9.975752e-01 1.002500e+00 1.002806e+00 1.004328e+00 1.000953e+00 9.990762e-01 9.920633e-01 9.867783e-01 9.761616e-01 9.674458e-01 9.532470e-01 9.410665e-01 9.232959e-01 9.076081e-01 8.862674e-01 8.670263e-01 8.421133e-01 8.192765e-01 7.907916e-01 7.643281e-01 7.322828e-01 7.021827e-01 6.666087e-01 6.328926e-01 5.938518e-01 5.565808e-01 5.141756e-01 4.734602e-01 4.278431e-01 3.838520e-01 3.352344e-01 2.882013e-01 2.368605e-01 1.870898e-01 1.333751e-01 8.124498e-02 2.558103e-02 -2.845437e-02 -8.556615e-02 -1.409779e-01 -1.989604e-01 -2.551474e-01 -3.133516e-01 -3.696464e-01 -4.273577e-01 -4.830344e-01 -5.394824e-01 -5.937678e-01 -6.481390e-01 -7.002264e-01 -7.516805e-01 -8.007471e-01 -8.484368e-01 -8.936638e-01 -9.367571e-01 -9.773525e-01 -1.015059e+00 -1.050282e+00 -1.081878e+00 -1.111065e+00 -1.135923e+00 -1.158513e+00 -1.176125e+00 -1.191681e+00 -1.201682e+00 -1.209910e+00 -1.212091e+00 -1.212853e+00 -1.207178e+00 -1.200496e+00 -1.187095e+00 -1.173152e+00 -1.152321e+00 -1.131450e+00 -1.103633e+00 -1.076301e+00 -1.042071e+00 -1.008858e+00 -9.688909e-01 -9.304637e-01 -8.855126e-01 -8.425994e-01 -7.934644e-01 -7.468281e-01 -6.943300e-01 -6.447436e-01 -5.897003e-01 -5.379259e-01 -4.811322e-01 -4.279034e-01 -3.701155e-01 
-3.172055e-01 -2.590402e-01 -2.049288e-01 -1.471264e-01 -9.348067e-02 -3.663076e-02 1.602368e-02 7.139336e-02 1.225902e-01 1.760123e-01 2.253429e-01 2.764080e-01 3.235190e-01 3.718729e-01 4.164627e-01 4.618029e-01 5.036186e-01 5.456915e-01 5.845258e-01 6.231237e-01 6.588110e-01 6.937699e-01 7.261836e-01 7.573799e-01 7.864286e-01 8.137770e-01 8.394004e-01 8.628504e-01 8.850152e-01 9.045468e-01 9.232417e-01 9.388615e-01 9.540914e-01 9.658267e-01 9.776072e-01 9.855004e-01 9.938517e-01 9.979542e-01 1.002896e+00 1.003261e+00 1.004806e+00 1.001487e+00 9.996381e-01 9.926778e-01 9.874267e-01 9.768590e-01 9.681835e-01 9.540300e-01 9.418961e-01 9.241669e-01 9.085317e-01 8.872280e-01 8.680454e-01 8.431643e-01 8.203909e-01 7.919321e-01 7.655362e-01 7.335099e-01 7.034804e-01 6.679172e-01 6.342734e-01 5.952339e-01 5.580352e-01 5.156204e-01 4.749759e-01 4.293371e-01 3.854136e-01 3.367608e-01 2.897904e-01 2.384001e-01 1.886852e-01 1.349057e-01 8.282316e-02 2.707851e-02 -2.691928e-02 -8.412792e-02 -1.395134e-01 -1.976088e-01 -2.537821e-01 -3.121147e-01 -3.684092e-01 -4.262635e-01 -4.819539e-01 -5.385578e-01 -5.928710e-01 -6.474089e-01 -6.995378e-01 -7.511666e-01 -8.002877e-01 -8.481565e-01 -8.934492e-01 -9.367222e-01 -9.773924e-01 -1.015274e+00 -1.050579e+00 -1.082342e+00 -1.111615e+00 -1.136627e+00 -1.159302e+00 -1.177051e+00 -1.192689e+00 -1.202805e+00 -1.211109e+00 -1.213382e+00 -1.214211e+00 -1.208603e+00 -1.201978e+00 -1.188618e+00 -1.174721e+00 -1.153905e+00 -1.133069e+00 -1.105243e+00 -1.077935e+00 -1.043675e+00 -1.010477e+00 -9.704613e-01 -9.320415e-01 -8.870276e-01 -8.441162e-01 -7.949072e-01 -7.482690e-01 -6.956892e-01 -6.460990e-01 -5.909691e-01 -5.391907e-01 -4.823077e-01 -4.290759e-01 -3.711979e-01 
-3.163290e-01 -2.579287e-01 -2.035234e-01 -1.455154e-01 -9.160266e-02 -3.457652e-02 1.831789e-02 7.383473e-02 1.252450e-01 1.787860e-01 2.283043e-01 2.794614e-01 3.267352e-01 3.751552e-01 4.198841e-01 4.652659e-01 5.071980e-01 5.492893e-01 5.882184e-01 6.268130e-01 6.625747e-01 6.975101e-01 7.299792e-01 7.611338e-01 7.902204e-01 8.175111e-01 8.431568e-01 8.665356e-01 8.887092e-01 9.081593e-01 9.268517e-01 9.423826e-01 9.576014e-01 9.692439e-01 9.810071e-01 9.888068e-01 9.971370e-01 1.001148e+00 1.006067e+00 1.006347e+00 1.007868e+00 1.004470e+00 1.002598e+00 9.955684e-01 9.902944e-01 9.796668e-01 9.709679e-01 9.567638e-01 9.446044e-01 9.268329e-01 9.111679e-01 8.898282e-01 8.706083e-01 8.456949e-01 8.228734e-01 7.943827e-01 7.679241e-01 7.358628e-01 7.057524e-01 6.701472e-01 6.364006e-01 5.973086e-01 5.599822e-01 5.175007e-01 4.767009e-01 4.309782e-01 3.868702e-01 3.381138e-01 2.909286e-01 2.394132e-01 1.894531e-01 1.355261e-01 8.316897e-02 2.725434e-02 -2.704562e-02 -8.444594e-02 -1.401582e-01 -1.984653e-01 -2.549861e-01 -3.135475e-01 -3.702053e-01 -4.283018e-01 -4.843651e-01 -5.412199e-01 -5.959085e-01 -6.506999e-01 -7.031986e-01 -7.550764e-01 -8.045524e-01 -8.526579e-01 -8.982809e-01 -9.417695e-01 -9.827351e-01 -1.020803e+00 -1.056357e+00 -1.088267e+00 -1.117736e+00 -1.142847e+00 -1.165656e+00 -1.183450e+00 -1.199154e+00 -1.209257e+00 -1.217554e+00 -1.219755e+00 -1.220505e+00 -1.214764e+00 -1.207991e+00 -1.194442e+00 -1.180333e+00 -1.159280e+00 -1.138176e+00 -1.110071e+00 -1.082450e+00 -1.047881e+00 -1.014334e+00 -9.739908e-01 -9.351996e-01 -8.898483e-01 -8.465538e-01 -7.970081e-01 -7.499853e-01 -6.970781e-01 -6.471108e-01 -5.916699e-01 -5.395288e-01 -4.823569e-01 -4.287821e-01 -3.706409e-01 
-3.176123e-01 -2.587966e-01 -2.041003e-01 -1.457085e-01 -9.153716e-02 -3.415945e-02 1.896130e-02 7.479833e-02 1.264037e-01 1.802351e-01 2.299192e-01 2.813386e-01 3.287510e-01 3.774074e-01 4.222499e-01 4.678438e-01 5.098669e-01 5.521475e-01 5.911469e-01 6.299092e-01 6.657230e-01 7.008054e-01 7.333103e-01 7.645923e-01 7.937008e-01 8.211002e-01 8.467566e-01 8.702266e-01 8.924025e-01 9.119280e-01 9.306176e-01 9.462102e-01 9.614243e-01 9.731174e-01 9.848774e-01 9.927194e-01 1.001051e+00 1.005100e+00 1.010028e+00 1.010342e+00 1.011883e+00 1.008520e+00 1.006680e+00 9.996856e-01 9.944563e-01 9.838668e-01 9.752250e-01 9.610612e-01 9.489697e-01 9.312390e-01 9.156500e-01 8.943489e-01 8.752093e-01 8.503283e-01 8.275865e-01 7.991171e-01 7.727322e-01 7.406752e-01 7.106263e-01 6.750022e-01 6.412988e-01 6.021581e-01 5.648503e-01 5.222844e-01 4.814728e-01 4.356239e-01 3.914683e-01 3.425392e-01 2.952661e-01 2.435274e-01 1.934357e-01 1.392322e-01 8.669707e-02 3.045134e-02 -2.407416e-02 -8.185994e-02 -1.378453e-01 -1.965903e-01 -2.534302e-01 -3.124784e-01 -3.694982e-01 -4.281244e-01 -4.845879e-01 -5.420075e-01 -5.971276e-01 -6.525085e-01 -7.054611e-01 -7.579407e-01 -8.078820e-01 -8.565865e-01 -9.026733e-01 -9.467414e-01 -9.881548e-01 -1.026764e+00 -1.062735e+00 -1.095131e+00 -1.124968e+00 -1.150492e+00 -1.173607e+00 -1.191725e+00 -1.207660e+00 -1.217985e+00 -1.226430e+00 -1.228743e+00 -1.229552e+00 -1.223811e+00 -1.217005e+00 -1.203349e+00 -1.189120e+00 -1.167856e+00 -1.146554e+00 -1.118151e+00 -1.090263e+00 -1.055322e+00 -1.021455e+00 -9.806833e-01 -9.415335e-01 -8.957157e-01 -8.520395e-01 -8.020061e-01 -7.545929e-01 -7.011921e-01 -6.508383e-01 -5.949110e-01 -5.423977e-01 -4.847567e-01 -4.308320e-01 -3.722463e-01 
-3.168869e-01 -2.575102e-01 -2.022268e-01 -1.433344e-01 -8.863304e-02 -3.081561e-02 2.277800e-02 7.899514e-02 1.310177e-01 1.851718e-01 2.352195e-01 2.869070e-01 3.346322e-01 3.835048e-01 4.286119e-01 4.743730e-01 5.166153e-01 5.590166e-01 5.981926e-01 6.370319e-01 6.729822e-01 7.081008e-01 7.407054e-01 7.719859e-01 8.011607e-01 8.285249e-01 8.542182e-01 8.776239e-01 8.998120e-01 9.192494e-01 9.379316e-01 9.534183e-01 9.686111e-01 9.801868e-01 9.919173e-01 9.996371e-01 1.007936e+00 1.011864e+00 1.016761e+00 1.016961e+00 1.018477e+00 1.015011e+00 1.013152e+00 1.006071e+00 1.000831e+00 9.901709e-01 9.815242e-01 9.673056e-01 9.552122e-01 9.374400e-01 9.218470e-01 9.005135e-01 8.813611e-01 8.564507e-01 8.336798e-01 8.051763e-01 7.787373e-01 7.466332e-01 7.164964e-01 6.808032e-01 6.469695e-01 6.077285e-01 5.702402e-01 5.275343e-01 4.864849e-01 4.404489e-01 3.959928e-01 3.468231e-01 2.991830e-01 2.471456e-01 1.966185e-01 1.420553e-01 8.901657e-02 3.234935e-02 -2.274582e-02 -8.101358e-02 -1.376302e-01 -1.969142e-01 -2.544404e-01 -3.140785e-01 -3.718306e-01 -4.310892e-01 -4.883194e-01 -5.464025e-01 -6.023094e-01 -6.583710e-01 -7.121139e-01 -7.652742e-01 -8.159896e-01 -8.653553e-01 -9.121786e-01 -9.568665e-01 -9.989557e-01 -1.038121e+00 -1.074683e+00 -1.107547e+00 -1.137869e+00 -1.163752e+00 -1.187226e+00 -1.205576e+00 -1.221727e+00 -1.232145e+00 -1.240653e+00 -1.242911e+00 -1.243626e+00 -1.237684e+00 -1.230632e+00 -1.216633e+00 -1.202018e+00 -1.180286e+00 -1.158471e+00 -1.129494e+00 -1.100991e+00 -1.065392e+00 -1.030832e+00 -9.893449e-01 -9.494485e-01 -9.028831e-01 -8.584323e-01 -8.076428e-01 -7.594498e-01 -7.053056e-01 -6.541865e-01 -5.975453e-01 -5.442971e-01 -4.859851e-01 -4.313678e-01 -3.721632e-01 
-3.183116e-01 -2.581917e-01 -2.023233e-01 -1.427518e-01 -8.752911e-02 -2.909699e-02 2.495482e-02 8.172411e-02 1.341441e-01 1.887911e-01 2.391789e-01 2.913038e-01 3.393157e-01 3.885740e-01 4.339186e-01 4.800171e-01 5.224515e-01 5.651450e-01 6.044714e-01 6.435599e-01 6.796229e-01 7.149497e-01 7.476331e-01 7.790830e-01 8.083069e-01 8.358042e-01 8.615216e-01 8.850272e-01 9.072198e-01 9.267276e-01 9.454008e-01 9.609334e-01 9.761099e-01 9.877124e-01 9.994258e-01 1.007159e+00 1.015447e+00 1.019382e+00 1.024279e+00 1.024486e+00 1.026017e+00 1.022562e+00 1.020739e+00 1.013676e+00 1.008492e+00 9.978590e-01 9.892878e-01 9.751059e-01 9.631044e-01 9.453754e-01 9.298854e-01 9.085962e-01 8.895506e-01 8.646781e-01 8.420087e-01 8.135274e-01 7.871742e-01 7.550659e-01 7.249879e-01 6.892524e-01 6.554390e-01 6.161058e-01 5.785882e-01 5.357286e-01 4.945900e-01 4.483284e-01 4.037141e-01 3.542379e-01 3.063631e-01 2.539314e-01 2.030876e-01 1.480375e-01 9.459657e-02 3.734767e-02 -1.823621e-02 -7.717990e-02 -1.343704e-01 -1.944210e-01 -2.526023e-01 -3.130911e-01 -3.715725e-01 -4.317555e-01 -4.897791e-01 -5.488462e-01 -6.055971e-01 -6.626839e-01 -7.173038e-01 -7.715079e-01 -8.231126e-01 -8.735139e-01 -9.212137e-01 -9.668989e-01 -1.009824e+00 -1.049915e+00 -1.087245e+00 -1.120931e+00 -1.151921e+00 -1.178489e+00 -1.202505e+00 -1.221376e+00 -1.237919e+00 -1.248671e+00 -1.257405e+00 -1.259799e+00 -1.260564e+00 -1.254553e+00 -1.247376e+00 -1.233112e+00 -1.218202e+00 -1.196025e+00 -1.173766e+00 -1.144185e+00 -1.115110e+00 -1.078780e+00 -1.043549e+00 -1.001236e+00 -9.606000e-01 -9.131471e-01 -8.679168e-01 -8.162103e-01 -7.672258e-01 -7.121631e-01 -6.602645e-01 -6.027269e-01 -5.487305e-01 -4.895621e-01 -4.342425e-01 -3.742343e-01 
-3.176246e-01 -2.566150e-01 -1.998640e-01 -1.394968e-01 -8.348103e-02 -2.434694e-02 3.040921e-02 8.778934e-02 1.408279e-01 1.959987e-01 2.469235e-01 2.994898e-01 3.479617e-01 3.975836e-01 4.433157e-01 4.897042e-01 5.324580e-01 5.753719e-01 6.149538e-01 6.541968e-01 6.904554e-01 7.258748e-01 7.586986e-01 7.901836e-01 8.194979e-01 8.469781e-01 8.727423e-01 8.961851e-01 9.183881e-01 9.377954e-01 9.564507e-01 9.718539e-01 9.869933e-01 9.984474e-01 1.010114e+00 1.017690e+00 1.025929e+00 1.029708e+00 1.034562e+00 1.034623e+00 1.036124e+00 1.032540e+00 1.030702e+00 1.023533e+00 1.018351e+00 1.007637e+00 9.990829e-01 9.848444e-01 9.728695e-01 9.551043e-01 9.396427e-01 9.183308e-01 8.993049e-01 8.744132e-01 8.517422e-01 8.232331e-01 7.968432e-01 7.646846e-01 7.345205e-01 6.986974e-01 6.647343e-01 6.252616e-01 5.875174e-01 5.444523e-01 5.029987e-01 4.564531e-01 4.114260e-01 3.615769e-01 3.131848e-01 2.602835e-01 2.088140e-01 1.531928e-01 9.901696e-02 4.109376e-02 -1.533173e-02 -7.505128e-02 -1.331844e-01 -1.941071e-01 -2.533226e-01 -3.147709e-01 -3.743652e-01 -4.355819e-01 -4.947802e-01 -5.549376e-01 -6.129038e-01 -6.711153e-01 -7.269654e-01 -7.823015e-01 -8.351210e-01 -8.866298e-01 -9.354953e-01 -9.822276e-01 -1.026233e+00 -1.067272e+00 -1.105557e+00 -1.140054e+00 -1.171838e+00 -1.199044e+00 -1.223659e+00 -1.242962e+00 -1.259882e+00 -1.270839e+00 -1.279709e+00 -1.282066e+00 -1.282720e+00 -1.276429e+00 -1.268899e+00 -1.254124e+00 -1.238637e+00 -1.215740e+00 -1.192705e+00 -1.162229e+00 -1.132214e+00 -1.094852e+00 -1.058556e+00 -1.015115e+00 -9.733322e-01 -9.246978e-01 -8.782785e-01 -8.253758e-01 -7.751967e-01 -7.189570e-01 -6.658891e-01 -6.072215e-01 -5.521061e-01 -4.918755e-01 -4.355055e-01 -3.745172e-01 
-3.190684e-01 -2.569842e-01 -1.993521e-01 -1.380100e-01 -8.121081e-02 -2.120081e-02 3.424303e-02 9.240406e-02 1.460388e-01 2.019012e-01 2.533364e-01 3.065114e-01 3.554140e-01 4.055676e-01 4.516570e-01 4.985055e-01 5.415487e-01 5.848551e-01 6.246639e-01 6.642353e-01 7.006636e-01 7.363502e-01 7.692915e-01 8.009856e-01 8.303714e-01 8.580061e-01 8.838024e-01 9.073497e-01 9.295535e-01 9.490215e-01 9.676551e-01 9.830827e-01 9.981876e-01 1.009639e+00 1.021268e+00 1.028823e+00 1.037032e+00 1.040782e+00 1.045623e+00 1.045656e+00 1.047167e+00 1.043566e+00 1.041765e+00 1.034595e+00 1.029481e+00 1.018785e+00 1.010327e+00 9.961246e-01 9.842711e-01 9.665564e-01 9.512324e-01 9.299776e-01 9.110943e-01 8.862553e-01 8.637179e-01 8.352429e-01 8.089620e-01 7.768023e-01 7.467057e-01 7.108288e-01 6.768744e-01 6.372772e-01 5.994662e-01 5.561887e-01 5.145776e-01 4.677159e-01 4.224273e-01 3.721451e-01 3.233769e-01 2.699150e-01 2.179471e-01 1.616309e-01 1.068297e-01 4.807377e-02 -9.104945e-03 -6.979438e-02 -1.288061e-01 -1.908311e-01 -2.510444e-01 -3.137176e-01 -3.744185e-01 -4.369685e-01 -4.973670e-01 -5.589459e-01 -6.181858e-01 -6.778807e-01 -7.350523e-01 -7.919010e-01 -8.460582e-01 -8.990695e-01 -9.492517e-01 -9.974318e-01 -1.042691e+00 -1.085075e+00 -1.124506e+00 -1.160193e+00 -1.192971e+00 -1.221164e+00 -1.246578e+00 -1.266623e+00 -1.284112e+00 -1.295531e+00 -1.304713e+00 -1.307232e+00 -1.307927e+00 -1.301495e+00 -1.293735e+00 -1.278524e+00 -1.262551e+00 -1.238948e+00 -1.215200e+00 -1.183785e+00 -1.152867e+00 -1.114381e+00 -1.077035e+00 -1.032336e+00 -9.894020e-01 -9.394275e-01 -8.918033e-01 -8.375261e-01 -7.861304e-01 -7.285240e-01 -6.742640e-01 -6.142720e-01 -5.580177e-01 -4.965308e-01 -4.390963e-01 -3.769375e-01 
-3.182423e-01 -2.549361e-01 -1.961237e-01 -1.336908e-01 -7.583640e-02 -1.486483e-02 4.151186e-02 1.005104e-01 1.549611e-01 2.115437e-01 2.636848e-01 3.174697e-01 3.669751e-01 4.176353e-01 4.642307e-01 5.114883e-01 5.549469e-01 5.985696e-01 6.387086e-01 6.785082e-01 7.151865e-01 7.510177e-01 7.841350e-01 8.158952e-01 8.453895e-01 8.730185e-01 8.988643e-01 9.223426e-01 9.445467e-01 9.638927e-01 9.824891e-01 9.977540e-01 1.012797e+00 1.024058e+00 1.035614e+00 1.042967e+00 1.051104e+00 1.054653e+00 1.059433e+00 1.059281e+00 1.060753e+00 1.056991e+00 1.055179e+00 1.047881e+00 1.042784e+00 1.031998e+00 1.023584e+00 1.009327e+00 9.975364e-01 9.797978e-01 9.645451e-01 9.432871e-01 9.244682e-01 8.996325e-01 8.771349e-01 8.486520e-01 8.223663e-01 7.901678e-01 7.600010e-01 7.240329e-01 6.899225e-01 6.501605e-01 6.120885e-01 5.685523e-01 5.265584e-01 4.793261e-01 4.335193e-01 3.827396e-01 3.333076e-01 2.792102e-01 2.264269e-01 1.693298e-01 1.135600e-01 5.387520e-02 -4.422908e-03 -6.618730e-02 -1.264621e-01 -1.897015e-01 -2.513099e-01 -3.153253e-01 -3.775367e-01 -4.415393e-01 -5.035417e-01 -5.666601e-01 -6.275693e-01 -6.888603e-01 -7.477319e-01 -8.061957e-01 -8.620425e-01 -9.166432e-01 -9.684572e-01 -1.018150e+00 -1.064930e+00 -1.108695e+00 -1.149482e+00 -1.186360e+00 -1.220274e+00 -1.249415e+00 -1.275695e+00 -1.296396e+00 -1.314440e+00 -1.326188e+00 -1.335586e+00 -1.338087e+00 -1.338649e+00 -1.331848e+00 -1.323612e+00 -1.307698e+00 -1.290930e+00 -1.266325e+00 -1.241500e+00 -1.208831e+00 -1.176607e+00 -1.136672e+00 -1.097850e+00 -1.051569e+00 -1.007048e+00 -9.554186e-01 -9.061545e-01 -8.502069e-01 -7.971705e-01 -7.379261e-01 -6.820681e-01 -6.205090e-01 -5.627335e-01 -4.997788e-01 -4.409241e-01 -3.774154e-01 
-3.195136e-01 -2.547975e-01 -1.948058e-01 -1.311031e-01 -7.220478e-02 -1.010005e-02 4.718955e-02 1.071920e-01 1.624320e-01 2.198987e-01 2.727142e-01 3.272731e-01 3.773472e-01 4.286798e-01 4.757466e-01 5.235824e-01 5.674225e-01 6.115347e-01 6.519718e-01 6.921761e-01 7.290756e-01 7.652300e-01 7.984977e-01 8.305030e-01 8.600842e-01 8.878845e-01 9.137624e-01 9.373441e-01 9.595361e-01 9.789256e-01 9.974778e-01 1.012737e+00 1.027717e+00 1.038936e+00 1.050424e+00 1.057712e+00 1.065791e+00 1.069266e+00 1.074011e+00 1.073791e+00 1.075260e+00 1.071447e+00 1.069673e+00 1.062351e+00 1.057336e+00 1.046556e+00 1.038266e+00 1.024048e+00 1.012416e+00 9.947434e-01 9.796739e-01 9.584973e-01 9.398704e-01 9.151164e-01 8.928004e-01 8.643797e-01 8.382432e-01 8.060644e-01 7.759909e-01 7.399755e-01 7.058786e-01 6.659771e-01 6.278161e-01 5.840244e-01 5.418179e-01 4.941923e-01 4.480315e-01 3.967024e-01 3.467606e-01 2.919434e-01 2.384844e-01 1.804876e-01 1.238705e-01 6.310120e-02 3.782863e-03 -5.925022e-02 -1.207148e-01 -1.854012e-01 -2.483607e-01 -3.139898e-01 -3.777001e-01 -4.434649e-01 -5.070945e-01 -5.720981e-01 -6.347365e-01 -6.980018e-01 -7.586708e-01 -8.191551e-01 -8.768252e-01 -9.334401e-01 -9.870529e-01 -1.038693e+00 -1.087190e+00 -1.132766e+00 -1.175125e+00 -1.213610e+00 -1.248886e+00 -1.279359e+00 -1.306732e+00 -1.328428e+00 -1.347243e+00 -1.359601e+00 -1.369412e+00 -1.372108e+00 -1.372703e+00 -1.365674e+00 -1.357093e+00 -1.340544e+00 -1.323073e+00 -1.297463e+00 -1.271618e+00 -1.237630e+00 -1.204126e+00 -1.162624e+00 -1.122323e+00 -1.074302e+00 -1.028172e+00 -9.747021e-01 -9.237656e-01 -8.659437e-01 -8.112295e-01 -7.501357e-01 -6.926442e-01 -6.293067e-01 -5.699805e-01 -5.053521e-01 -4.450567e-01 -3.800005e-01 
-3.182967e-01 -2.520234e-01 -1.905521e-01 -1.254654e-01 -6.525256e-02 -1.931747e-03 5.651373e-02 1.175736e-01 1.738202e-01 2.321963e-01 2.858795e-01 3.412104e-01 3.920233e-01 4.439997e-01 4.916853e-01 5.400441e-01 5.843901e-01 6.289103e-01 6.697469e-01 7.102487e-01 7.474469e-01 7.837928e-01 8.172649e-01 8.493610e-01 8.790604e-01 9.068581e-01 9.327781e-01 9.562740e-01 9.784448e-01 9.976786e-01 1.016161e+00 1.031211e+00 1.046091e+00 1.057064e+00 1.068440e+00 1.075466e+00 1.083437e+00 1.086655e+00 1.091313e+00 1.090856e+00 1.092273e+00 1.088260e+00 1.086476e+00 1.079001e+00 1.074021e+00 1.063142e+00 1.054929e+00 1.040664e+00 1.029143e+00 1.011468e+00 9.965277e-01 9.753814e-01 9.568817e-01 9.321709e-01 9.099559e-01 8.815674e-01 8.554786e-01 8.232937e-01 7.931863e-01 7.570974e-01 7.228574e-01 6.827860e-01 6.443463e-01 6.002607e-01 5.576174e-01 5.095496e-01 4.627749e-01 4.108351e-01 3.600889e-01 3.044772e-01 2.500149e-01 1.910301e-01 1.332079e-01 7.125340e-02 1.053079e-02 -5.388301e-02 -1.169429e-01 -1.831978e-01 -2.479300e-01 -3.153013e-01 -3.809418e-01 -4.486016e-01 -5.142924e-01 -5.813149e-01 -6.461111e-01 -7.114814e-01 -7.743616e-01 -8.369887e-01 -8.968706e-01 -9.556079e-01 -1.011371e+00 -1.065044e+00 -1.115560e+00 -1.163005e+00 -1.207175e+00 -1.247285e+00 -1.284090e+00 -1.315867e+00 -1.344414e+00 -1.367026e+00 -1.386603e+00 -1.399434e+00 -1.409554e+00 -1.412252e+00 -1.412685e+00 -1.405182e+00 -1.395976e+00 -1.378500e+00 -1.359975e+00 -1.333032e+00 -1.305761e+00 -1.270102e+00 -1.234869e+00 -1.191440e+00 -1.149190e+00 -1.099071e+00 -1.050856e+00 -9.952026e-01 -9.421232e-01 -8.821086e-01 -8.252639e-01 -7.620324e-01 -7.024801e-01 -6.371101e-01 -5.758362e-01 -5.093159e-01 -4.472152e-01 -3.804294e-01 
-3.191232e-01 -2.511017e-01 -1.881523e-01 -1.215043e-01 -5.999142e-02 4.712361e-03 6.428857e-02 1.265660e-01 1.837861e-01 2.432291e-01 2.977419e-01 3.540031e-01 4.055143e-01 4.582967e-01 5.065603e-01 5.556101e-01 6.004230e-01 6.455256e-01 6.867253e-01 7.277050e-01 7.651694e-01 8.018912e-01 8.355392e-01 8.679122e-01 8.977053e-01 9.256850e-01 9.516267e-01 9.752166e-01 9.973502e-01 1.016600e+00 1.035003e+00 1.050003e+00 1.064778e+00 1.075655e+00 1.086919e+00 1.093821e+00 1.101694e+00 1.104779e+00 1.109370e+00 1.108791e+00 1.110186e+00 1.106080e+00 1.104331e+00 1.096804e+00 1.091920e+00 1.081038e+00 1.072981e+00 1.058763e+00 1.047450e+00 1.029867e+00 1.015171e+00 9.941454e-01 9.759066e-01 9.513260e-01 9.293625e-01 9.010870e-01 8.752111e-01 8.430912e-01 8.131268e-01 7.770219e-01 7.428232e-01 7.026213e-01 6.640912e-01 6.197286e-01 5.768356e-01 5.283156e-01 4.811087e-01 4.285173e-01 3.771379e-01 3.206567e-01 2.653474e-01 2.052627e-01 1.463724e-01 8.308128e-02 2.106805e-02 -4.491905e-02 -1.094881e-01 -1.775465e-01 -2.439964e-01 -3.133883e-01 -3.809393e-01 -4.508158e-01 -5.185869e-01 -5.879923e-01 -6.550071e-01 -7.228857e-01 -7.880812e-01 -8.532891e-01 -9.155303e-01 -9.768546e-01 -1.034956e+00 -1.091143e+00 -1.143900e+00 -1.193697e+00 -1.239928e+00 -1.282130e+00 -1.320727e+00 -1.354241e+00 -1.384228e+00 -1.408136e+00 -1.428726e+00 -1.442345e+00 -1.452997e+00 -1.455930e+00 -1.456387e+00 -1.448556e+00 -1.438865e+00 -1.420519e+00 -1.401033e+00 -1.372732e+00 -1.344080e+00 -1.306653e+00 -1.269698e+00 -1.224185e+00 -1.179962e+00 -1.127546e+00 -1.077201e+00 -1.019137e+00 -9.638587e-01 -9.014121e-01 -8.423789e-01 -7.767690e-01 -7.151034e-01 -6.474673e-01 -5.842037e-01 -5.155704e-01 -4.516363e-01 -3.829148e-01 
-3.171771e-01 -2.472620e-01 -1.825350e-01 -1.142152e-01 -5.113487e-02 1.503032e-02 7.597608e-02 1.395200e-01 1.979271e-01 2.584581e-01 3.139906e-01 3.711765e-01 4.235538e-01 4.771099e-01 5.260975e-01 5.757786e-01 6.211819e-01 6.667794e-01 7.084421e-01 7.497841e-01 7.875894e-01 8.245442e-01 8.584173e-01 8.908983e-01 9.208090e-01 9.487793e-01 9.747428e-01 9.982173e-01 1.020293e+00 1.039337e+00 1.057621e+00 1.072347e+00 1.086965e+00 1.097522e+00 1.108616e+00 1.115178e+00 1.122892e+00 1.125643e+00 1.130109e+00 1.129227e+00 1.130547e+00 1.126191e+00 1.124429e+00 1.116719e+00 1.111890e+00 1.100901e+00 1.092964e+00 1.078714e+00 1.067573e+00 1.050024e+00 1.035535e+00 1.014593e+00 9.965680e-01 9.720944e-01 9.503200e-01 9.221439e-01 8.963964e-01 8.643320e-01 8.343981e-01 7.982664e-01 7.639633e-01 7.236138e-01 6.848102e-01 6.401430e-01 5.967775e-01 5.477639e-01 4.998612e-01 4.465608e-01 3.942447e-01 3.368197e-01 2.803218e-01 2.190462e-01 1.587116e-01 9.397695e-02 3.026633e-02 -3.741503e-02 -1.039255e-01 -1.739204e-01 -2.425404e-01 -3.140955e-01 -3.840231e-01 -4.562658e-01 -5.265899e-01 -5.985316e-01 -6.682360e-01 -7.387764e-01 -8.067470e-01 -8.746841e-01 -9.397213e-01 -1.003769e+00 -1.064609e+00 -1.123427e+00 -1.178775e+00 -1.231008e+00 -1.279581e+00 -1.323919e+00 -1.364507e+00 -1.399751e+00 -1.431279e+00 -1.456413e+00 -1.478012e+00 -1.492280e+00 -1.503350e+00 -1.506310e+00 -1.506568e+00 -1.498134e+00 -1.487638e+00 -1.468092e+00 -1.447240e+00 -1.417206e+00 -1.386705e+00 -1.347110e+00 -1.307921e+00 -1.259916e+00 -1.213189e+00 -1.158075e+00 -1.105067e+00 -1.044214e+00 -9.862199e-01 -9.209936e-01 -8.592829e-01 -7.909856e-01 -7.267531e-01 -6.565838e-01 -5.909164e-01 -5.199453e-01 -4.538038e-01 -3.829630e-01 
-3.171898e-01 -2.451894e-01 -1.786879e-01 -1.085238e-01 -4.389604e-02 2.388898e-02 8.617117e-02 1.511317e-01 2.106833e-01 2.724498e-01 3.289542e-01 3.872148e-01 4.404089e-01 4.948952e-01 5.445582e-01 5.950368e-01 6.409848e-01 6.872537e-01 7.293380e-01 7.712282e-01 8.093379e-01 8.467186e-01 8.807849e-01 9.135705e-01 9.435712e-01 9.717275e-01 9.976893e-01 1.021238e+00 1.043235e+00 1.062254e+00 1.080404e+00 1.095022e+00 1.109473e+00 1.119861e+00 1.130781e+00 1.137138e+00 1.144697e+00 1.147236e+00 1.151587e+00 1.150513e+00 1.151783e+00 1.147277e+00 1.145542e+00 1.137745e+00 1.133028e+00 1.122025e+00 1.114284e+00 1.100096e+00 1.089227e+00 1.071808e+00 1.057645e+00 1.036884e+00 1.019215e+00 9.949464e-01 9.735227e-01 9.455409e-01 9.201013e-01 8.881802e-01 8.584704e-01 8.223875e-01 7.881838e-01 7.477447e-01 7.088765e-01 6.639397e-01 6.203105e-01 5.708100e-01 5.224150e-01 4.683797e-01 4.153196e-01 3.568881e-01 2.993788e-01 2.368094e-01 1.751874e-01 1.088641e-01 4.358833e-02 -2.597731e-02 -9.432596e-02 -1.664941e-01 -2.372146e-01 -3.112178e-01 -3.834907e-01 -4.584344e-01 -5.313233e-01 -6.061861e-01 -6.786397e-01 -7.522755e-01 -8.231320e-01 -8.942766e-01 -9.622736e-01 -1.029561e+00 -1.093354e+00 -1.155343e+00 -1.213541e+00 -1.268761e+00 -1.319972e+00 -1.366983e+00 -1.409877e+00 -1.447350e+00 -1.480737e+00 -1.507538e+00 -1.530446e+00 -1.545721e+00 -1.557473e+00 -1.560718e+00 -1.560991e+00 -1.552105e+00 -1.540956e+00 -1.520250e+00 -1.498122e+00 -1.466298e+00 -1.433977e+00 -1.392069e+00 -1.350627e+00 -1.299919e+00 -1.250630e+00 -1.192563e+00 -1.136812e+00 -1.072891e+00 -1.012091e+00 -9.437995e-01 -8.793247e-01 -8.080615e-01 -7.411872e-01 -6.682233e-01 -6.000945e-01 -5.265469e-01 -4.581609e-01 -3.849861e-01 
-3.140722e-01 -2.398458e-01 -1.712748e-01 -9.916268e-02 -3.272686e-02 3.674943e-02 1.005996e-01 1.670195e-01 2.279227e-01 2.909410e-01 3.486031e-01 4.079289e-01 4.621052e-01 5.174862e-01 5.679700e-01 6.191825e-01 6.657988e-01 7.126459e-01 7.552513e-01 7.975653e-01 8.360522e-01 8.737028e-01 9.080067e-01 9.409102e-01 9.710162e-01 9.991448e-01 1.025092e+00 1.048480e+00 1.070362e+00 1.089106e+00 1.107065e+00 1.121319e+00 1.135533e+00 1.145499e+00 1.156168e+00 1.162081e+00 1.169407e+00 1.171512e+00 1.175681e+00 1.174217e+00 1.175377e+00 1.170555e+00 1.168801e+00 1.160782e+00 1.156144e+00 1.145024e+00 1.137458e+00 1.123260e+00 1.112646e+00 1.095314e+00 1.081463e+00 1.060863e+00 1.043526e+00 1.019460e+00 9.983495e-01 9.705703e-01 9.453772e-01 9.136117e-01 8.840333e-01 8.480087e-01 8.137735e-01 7.732452e-01 7.341386e-01 6.889182e-01 6.448052e-01 5.947857e-01 5.456307e-01 4.908077e-01 4.366893e-01 3.771770e-01 3.182978e-01 2.543395e-01 1.910311e-01 1.230043e-01 5.572888e-02 -1.585307e-02 -8.650474e-02 -1.609930e-01 -2.343033e-01 -3.109143e-01 -3.860403e-01 -4.638547e-01 -5.398280e-01 -6.177891e-01 -6.935154e-01 -7.704280e-01 -8.446878e-01 -9.192208e-01 -9.906764e-01 -1.061376e+00 -1.128588e+00 -1.193903e+00 -1.255364e+00 -1.313695e+00 -1.367883e+00 -1.417647e+00 -1.463093e+00 -1.502816e+00 -1.538194e+00 -1.566607e+00 -1.590830e+00 -1.606972e+00 -1.619278e+00 -1.622582e+00 -1.622608e+00 -1.612960e+00 -1.600778e+00 -1.578532e+00 -1.554647e+00 -1.520597e+00 -1.485905e+00 -1.441218e+00 -1.396927e+00 -1.343044e+00 -1.290580e+00 -1.229102e+00 -1.170005e+00 -1.102587e+00 -1.038409e+00 -9.666674e-01 -8.988958e-01 -8.243334e-01 -7.543336e-01 -6.782943e-01 -6.072723e-01 -5.309183e-01 -4.599061e-01 -3.842146e-01 
-3.127860e-01 -2.361444e-01 -1.655119e-01 -9.128893e-02 -2.307427e-02 4.823752e-02 1.136108e-01 1.816239e-01 2.438235e-01 3.082256e-01 3.669848e-01 4.275132e-01 4.826107e-01 5.390345e-01 5.902809e-01 6.423904e-01 6.896218e-01 7.372262e-01 7.803056e-01 8.232374e-01 8.620608e-01 9.001865e-01 9.346928e-01 9.679255e-01 9.981064e-01 1.026418e+00 1.052325e+00 1.075756e+00 1.097499e+00 1.116159e+00 1.133906e+00 1.147971e+00 1.161930e+00 1.171630e+00 1.182035e+00 1.187637e+00 1.194724e+00 1.196512e+00 1.200500e+00 1.198749e+00 1.199814e+00 1.194767e+00 1.193025e+00 1.184871e+00 1.180362e+00 1.169216e+00 1.161896e+00 1.147783e+00 1.137521e+00 1.120376e+00 1.106960e+00 1.086628e+00 1.069775e+00 1.046023e+00 1.025400e+00 9.979374e-01 9.731877e-01 9.416872e-01 9.124551e-01 8.765878e-01 8.425491e-01 8.020135e-01 7.629034e-01 7.174576e-01 6.730967e-01 6.225863e-01 5.729019e-01 5.172838e-01 4.623265e-01 4.016862e-01 3.416397e-01 2.762017e-01 2.113884e-01 1.415212e-01 7.240140e-02 -1.382343e-03 -7.421219e-02 -1.512572e-01 -2.270679e-01 -3.065770e-01 -3.845080e-01 -4.655403e-01 -5.445980e-01 -6.260642e-01 -7.051181e-01 -7.857749e-01 -8.635542e-01 -9.420019e-01 -1.017097e+00 -1.091788e+00 -1.162665e+00 -1.231925e+00 -1.296957e+00 -1.359037e+00 -1.416557e+00 -1.469706e+00 -1.518087e+00 -1.560653e+00 -1.598412e+00 -1.628958e+00 -1.654862e+00 -1.672291e+00 -1.685470e+00 -1.689127e+00 -1.689157e+00 -1.678903e+00 -1.665856e+00 -1.642087e+00 -1.616528e+00 -1.580145e+00 -1.543085e+00 -1.495409e+00 -1.448210e+00 -1.390864e+00 -1.335123e+00 -1.269900e+00 -1.207328e+00 -1.136064e+00 -1.068372e+00 -9.928346e-01 -9.216421e-01 -8.434547e-01 -7.702262e-01 -6.908171e-01 -6.168256e-01 -5.374072e-01 -4.637223e-01 -3.852921e-01 
-3.079295e-01 -2.287423e-01 -1.557634e-01 -7.933736e-02 -9.095533e-03 6.411259e-02 1.312287e-01 2.008696e-01 2.645633e-01 3.303598e-01 3.903959e-01 4.521143e-01 5.082963e-01 5.657256e-01 6.178805e-01 6.708218e-01 7.187942e-01 7.670588e-01 8.107138e-01 8.541309e-01 8.933634e-01 9.317941e-01 9.665428e-01 9.998973e-01 1.030158e+00 1.058412e+00 1.084249e+00 1.107454e+00 1.129001e+00 1.147290e+00 1.164744e+00 1.178325e+00 1.191934e+00 1.201077e+00 1.211117e+00 1.216134e+00 1.222887e+00 1.224108e+00 1.227830e+00 1.225575e+00 1.226478e+00 1.221028e+00 1.219253e+00 1.210826e+00 1.206423e+00 1.195150e+00 1.188073e+00 1.173984e+00 1.164084e+00 1.147101e+00 1.134134e+00 1.114074e+00 1.097714e+00 1.074301e+00 1.054161e+00 1.027051e+00 1.002714e+00 9.715197e-01 9.425676e-01 9.068936e-01 8.729405e-01 8.324211e-01 7.931457e-01 7.474785e-01 7.026530e-01 6.516314e-01 6.011449e-01 5.446846e-01 4.885604e-01 4.267174e-01 3.651242e-01 2.981056e-01 2.313606e-01 1.595283e-01 8.809634e-02 1.196521e-02 -6.354601e-02 -1.433111e-01 -2.221551e-01 -3.047410e-01 -3.860338e-01 -4.704764e-01 -5.531931e-01 -6.383689e-01 -7.213361e-01 -8.059517e-01 -8.878379e-01 -9.704210e-01 -1.049733e+00 -1.128634e+00 -1.203724e+00 -1.277136e+00 -1.346234e+00 -1.412243e+00 -1.473512e+00 -1.530177e+00 -1.581806e+00 -1.627275e+00 -1.667593e+00 -1.700242e+00 -1.727850e+00 -1.746429e+00 -1.760337e+00 -1.764096e+00 -1.763821e+00 -1.752600e+00 -1.738230e+00 -1.712485e+00 -1.684674e+00 -1.645438e+00 -1.605347e+00 -1.554126e+00 -1.503308e+00 -1.441942e+00 -1.382206e+00 -1.312705e+00 -1.245966e+00 -1.170368e+00 -1.098516e+00 -1.018757e+00 -9.435589e-01 -8.613869e-01 -7.844136e-01 -7.013416e-01 -6.239325e-01 -5.412185e-01 -4.644753e-01 -3.831300e-01 