# vtk DataFile Version 2.0
Comment goes here
ASCII

DATASET STRUCTURED_POINTS
FIELD FieldData 1
TIME 1 1 double
0.18500000
DIMENSIONS    128   128   1

ORIGIN    0.000   0.000   0.000
SPACING   0.039062 0.039062   1.000

POINT_DATA   16384
SCALARS uX double
LOOKUP_TABLE default

-2.733773e-03 2.631214e-03 9.362123e-03 1.538674e-02 2.259912e-02 2.915801e-02 3.670506e-02 4.364632e-02 5.135844e-02 5.850825e-02 6.619813e-02 7.336627e-02 8.083485e-02 8.782105e-02 9.486423e-02 1.014651e-01 1.078812e-01 1.138978e-01 1.194951e-01 1.247402e-01 1.293446e-01 1.336504e-01 1.371129e-01 1.403372e-01 1.425396e-01 1.445721e-01 1.454322e-01 1.461981e-01 1.456729e-01 1.451360e-01 1.432232e-01 1.413864e-01 1.381237e-01 1.350283e-01 1.304910e-01 1.262143e-01 1.205117e-01 1.151630e-01 1.084331e-01 1.021488e-01 9.455252e-02 8.749085e-02 7.920559e-02 7.154043e-02 6.275394e-02 5.466905e-02 4.557330e-02 3.725658e-02 2.804234e-02 1.968063e-02 1.053268e-02 2.306973e-03 -6.599871e-03 -1.451849e-02 -2.302268e-02 -3.047659e-02 -3.843252e-02 -4.528055e-02 -5.256064e-02 -5.868063e-02 -6.517710e-02 -7.046805e-02 -7.609447e-02 -8.047844e-02 -8.517098e-02 -8.859477e-02 -9.231345e-02 -9.474999e-02 -9.747968e-02 -9.892918e-02 -1.006804e-01 -1.011710e-01 -1.019801e-01 -1.015683e-01 -1.014971e-01 -1.002667e-01 -9.940176e-02 -9.746242e-02 -9.591210e-02 -9.339629e-02 -9.128785e-02 -8.834655e-02 -8.582114e-02 -8.261803e-02 -7.982485e-02 -7.652919e-02 -7.361849e-02 -7.039694e-02 -6.751250e-02 -6.452037e-02 -6.179167e-02 -5.916415e-02 -5.669902e-02 -5.454316e-02 -5.242138e-02 -5.080939e-02 -4.907784e-02 -4.804249e-02 -4.671231e-02 -4.624474e-02 -4.529072e-02 -4.534103e-02 -4.470346e-02 -4.518392e-02 -4.477260e-02 -4.556335e-02 -4.526354e-02 -4.622013e-02 -4.589994e-02 -4.686219e-02 -4.638078e-02 -4.718224e-02 -4.639827e-02 -4.687553e-02 -4.565530e-02 -4.565668e-02 -4.388151e-02 -4.327459e-02 -4.084708e-02 -3.952491e-02 -3.637395e-02 -3.425975e-02 -3.034416e-02 -2.739446e-02 -2.270534e-02 -1.891176e-02 -1.347357e-02 -8.863280e-03 
-2.840836e-03 2.537193e-03 9.258246e-03 1.529869e-02 2.250720e-02 2.908415e-02 3.663286e-02 4.359372e-02 5.131243e-02 5.848260e-02 6.618321e-02 7.337161e-02 8.085416e-02 8.785957e-02 9.491897e-02 1.015371e-01 1.079705e-01 1.140013e-01 1.196161e-01 1.248716e-01 1.294926e-01 1.338040e-01 1.372811e-01 1.405059e-01 1.427202e-01 1.447473e-01 1.456162e-01 1.463706e-01 1.458507e-01 1.452963e-01 1.433851e-01 1.415249e-01 1.382603e-01 1.351362e-01 1.305938e-01 1.262836e-01 1.205733e-01 1.151870e-01 1.084475e-01 1.021224e-01 9.451526e-02 8.741052e-02 7.911392e-02 7.140433e-02 6.260678e-02 5.447702e-02 4.537119e-02 3.701009e-02 2.778738e-02 1.938263e-02 1.022838e-02 1.961803e-03 -6.948714e-03 -1.490527e-02 -2.341013e-02 -3.089832e-02 -3.885162e-02 -4.572961e-02 -5.300352e-02 -5.914854e-02 -6.563512e-02 -7.094559e-02 -7.655825e-02 -8.095575e-02 -8.563058e-02 -8.906147e-02 -9.275844e-02 -9.519532e-02 -9.789932e-02 -9.934221e-02 -1.010638e-01 -1.015409e-01 -1.023167e-01 -1.018844e-01 -1.017768e-01 -1.005194e-01 -9.961523e-02 -9.764300e-02 -9.605157e-02 -9.349786e-02 -9.134738e-02 -8.836430e-02 -8.579715e-02 -8.254974e-02 -7.971652e-02 -7.637558e-02 -7.342808e-02 -7.016191e-02 -6.724548e-02 -6.421103e-02 -6.145665e-02 -5.879064e-02 -5.630750e-02 -5.411827e-02 -5.198721e-02 -5.034796e-02 -4.861655e-02 -4.756065e-02 -4.624027e-02 -4.575902e-02 -4.482425e-02 -4.486746e-02 -4.425791e-02 -4.473720e-02 -4.436158e-02 -4.515609e-02 -4.489824e-02 -4.586231e-02 -4.558869e-02 -4.656083e-02 -4.612883e-02 -4.694124e-02 -4.620776e-02 -4.669577e-02 -4.552544e-02 -4.553625e-02 -4.380886e-02 -4.320916e-02 -4.082600e-02 -3.950815e-02 -3.639705e-02 -3.428380e-02 -3.040276e-02 -2.745041e-02 -2.278996e-02 -1.899008e-02 -1.357434e-02 -8.954229e-03 
-3.412531e-03 2.000015e-03 8.790903e-03 1.487821e-02 2.216401e-02 2.879887e-02 3.643073e-02 4.345891e-02 5.126470e-02 5.850962e-02 6.629905e-02 7.356733e-02 8.113796e-02 8.822584e-02 9.536991e-02 1.020703e-01 1.085823e-01 1.146924e-01 1.203767e-01 1.257058e-01 1.303849e-01 1.347616e-01 1.382832e-01 1.415628e-01 1.438063e-01 1.458761e-01 1.467577e-01 1.475418e-01 1.470178e-01 1.464794e-01 1.445478e-01 1.426903e-01 1.393899e-01 1.362559e-01 1.316640e-01 1.273326e-01 1.215610e-01 1.161440e-01 1.093336e-01 1.029702e-01 9.528507e-02 8.813637e-02 7.975718e-02 7.200005e-02 6.311749e-02 5.493853e-02 4.574729e-02 3.733705e-02 2.803029e-02 1.957796e-02 1.034249e-02 2.031127e-03 -6.956594e-03 -1.495413e-02 -2.353123e-02 -3.105581e-02 -3.907561e-02 -4.598480e-02 -5.331883e-02 -5.948938e-02 -6.602913e-02 -7.135908e-02 -7.701744e-02 -8.142805e-02 -8.614060e-02 -8.957794e-02 -9.330421e-02 -9.574066e-02 -9.846514e-02 -9.990055e-02 -1.016336e-01 -1.020961e-01 -1.028742e-01 -1.024205e-01 -1.023062e-01 -1.010210e-01 -1.001018e-01 -9.809628e-02 -9.648241e-02 -9.389114e-02 -9.171216e-02 -8.868905e-02 -8.608907e-02 -8.280136e-02 -7.993305e-02 -7.655407e-02 -7.357150e-02 -7.027229e-02 -6.732309e-02 -6.426333e-02 -6.148069e-02 -5.879961e-02 -5.629454e-02 -5.410251e-02 -5.195723e-02 -5.032878e-02 -4.859161e-02 -4.756059e-02 -4.624294e-02 -4.580023e-02 -4.487600e-02 -4.497007e-02 -4.437753e-02 -4.491783e-02 -4.456380e-02 -4.542668e-02 -4.519274e-02 -4.622932e-02 -4.597948e-02 -4.702488e-02 -4.661406e-02 -4.749715e-02 -4.677995e-02 -4.733299e-02 -4.617204e-02 -4.623955e-02 -4.451302e-02 -4.395951e-02 -4.156751e-02 -4.028368e-02 -3.715327e-02 -3.506075e-02 -3.114957e-02 -2.820402e-02 -2.350264e-02 -1.969543e-02 -1.422834e-02 -9.587015e-03 
-4.207832e-03 1.265752e-03 8.107036e-03 1.427344e-02 2.162923e-02 2.835880e-02 3.607774e-02 4.321323e-02 5.112004e-02 5.848130e-02 6.638192e-02 7.377154e-02 8.145921e-02 8.866895e-02 9.593118e-02 1.027493e-01 1.093755e-01 1.155944e-01 1.213842e-01 1.268084e-01 1.315796e-01 1.360337e-01 1.396298e-01 1.429654e-01 1.452626e-01 1.473646e-01 1.482768e-01 1.490676e-01 1.485502e-01 1.479925e-01 1.460436e-01 1.441416e-01 1.408013e-01 1.375993e-01 1.329471e-01 1.285268e-01 1.226778e-01 1.171541e-01 1.102529e-01 1.037686e-01 9.598313e-02 8.870340e-02 8.021818e-02 7.232372e-02 6.333330e-02 5.501451e-02 4.571707e-02 3.716805e-02 2.775976e-02 1.917294e-02 9.843189e-03 1.404526e-03 -7.668123e-03 -1.578323e-02 -2.443421e-02 -3.206443e-02 -4.014569e-02 -4.714663e-02 -5.452861e-02 -6.077530e-02 -6.734857e-02 -7.273756e-02 -7.841420e-02 -8.286538e-02 -8.758029e-02 -9.103861e-02 -9.475074e-02 -9.718765e-02 -9.988113e-02 -1.012959e-01 -1.029810e-01 -1.034015e-01 -1.041151e-01 -1.035987e-01 -1.034042e-01 -1.020366e-01 -1.010232e-01 -9.891773e-02 -9.719818e-02 -9.449242e-02 -9.219963e-02 -8.905157e-02 -8.633388e-02 -8.291572e-02 -7.993073e-02 -7.642151e-02 -7.332868e-02 -6.990555e-02 -6.685809e-02 -6.368686e-02 -6.082325e-02 -5.804880e-02 -5.548474e-02 -5.322217e-02 -5.104343e-02 -4.937067e-02 -4.762776e-02 -4.658037e-02 -4.528527e-02 -4.485400e-02 -4.397949e-02 -4.411089e-02 -4.359248e-02 -4.419243e-02 -4.393281e-02 -4.487279e-02 -4.474832e-02 -4.587371e-02 -4.574254e-02 -4.688231e-02 -4.659327e-02 -4.757019e-02 -4.697195e-02 -4.761261e-02 -4.656235e-02 -4.670635e-02 -4.507754e-02 -4.458534e-02 -4.227426e-02 -4.103356e-02 -3.796435e-02 -3.589472e-02 -3.202308e-02 -2.907905e-02 -2.439442e-02 -2.056716e-02 -1.509374e-02 -1.041126e-02 
-5.480330e-03 7.628565e-05 7.048679e-03 1.332594e-02 2.083405e-02 2.769914e-02 3.558794e-02 4.287965e-02 5.096942e-02 5.850284e-02 6.659430e-02 7.416650e-02 8.204698e-02 8.944361e-02 9.689417e-02 1.038969e-01 1.107002e-01 1.170947e-01 1.230437e-01 1.286280e-01 1.335341e-01 1.381266e-01 1.418279e-01 1.452754e-01 1.476438e-01 1.498270e-01 1.507738e-01 1.516127e-01 1.510922e-01 1.505489e-01 1.485597e-01 1.466389e-01 1.432235e-01 1.399716e-01 1.352133e-01 1.307154e-01 1.247338e-01 1.191091e-01 1.120541e-01 1.054504e-01 9.749579e-02 9.008304e-02 8.141904e-02 7.338315e-02 6.420962e-02 5.574581e-02 4.626573e-02 3.757253e-02 2.798623e-02 1.925993e-02 9.760257e-03 1.190141e-03 -8.041548e-03 -1.627735e-02 -2.507425e-02 -3.281214e-02 -4.102442e-02 -4.811819e-02 -5.561482e-02 -6.193798e-02 -6.860823e-02 -7.405603e-02 -7.981081e-02 -8.430202e-02 -8.907514e-02 -9.255371e-02 -9.630311e-02 -9.873966e-02 -1.014487e-01 -1.028419e-01 -1.045203e-01 -1.048980e-01 -1.055826e-01 -1.050024e-01 -1.047576e-01 -1.033066e-01 -1.022230e-01 -1.000167e-01 -9.820979e-02 -9.538927e-02 -9.299568e-02 -8.972359e-02 -8.689645e-02 -8.335084e-02 -8.025338e-02 -7.662005e-02 -7.341795e-02 -6.988138e-02 -6.673422e-02 -6.346755e-02 -6.051987e-02 -5.767476e-02 -5.504747e-02 -5.274459e-02 -5.052739e-02 -4.884848e-02 -4.709413e-02 -4.607640e-02 -4.479723e-02 -4.443071e-02 -4.359786e-02 -4.382603e-02 -4.337154e-02 -4.409513e-02 -4.391666e-02 -4.500034e-02 -4.496813e-02 -4.624940e-02 -4.621482e-02 -4.751431e-02 -4.731935e-02 -4.845163e-02 -4.793846e-02 -4.872258e-02 -4.774260e-02 -4.801160e-02 -4.643349e-02 -4.604254e-02 -4.375887e-02 -4.259166e-02 -3.952403e-02 -3.749743e-02 -3.360004e-02 -3.066714e-02 -2.592895e-02 -2.208051e-02 -1.652615e-02 -1.179082e-02 
-7.005201e-03 -1.337711e-03 5.747180e-03 1.216923e-02 1.982372e-02 2.686318e-02 3.492766e-02 4.241794e-02 5.070695e-02 5.845675e-02 6.676417e-02 7.456323e-02 8.266854e-02 9.029440e-02 9.797003e-02 1.051957e-01 1.122153e-01 1.188175e-01 1.249648e-01 1.307331e-01 1.358110e-01 1.405561e-01 1.443950e-01 1.479568e-01 1.504228e-01 1.526773e-01 1.536776e-01 1.545418e-01 1.540289e-01 1.534640e-01 1.514372e-01 1.494491e-01 1.459534e-01 1.425918e-01 1.377150e-01 1.330695e-01 1.269372e-01 1.211330e-01 1.139020e-01 1.070935e-01 9.894501e-02 9.130933e-02 8.244082e-02 7.417089e-02 6.478926e-02 5.608708e-02 4.640162e-02 3.747199e-02 2.768853e-02 1.873340e-02 9.049339e-03 2.629397e-04 -9.136641e-03 -1.757189e-02 -2.651725e-02 -3.443407e-02 -4.277303e-02 -5.002205e-02 -5.762169e-02 -6.407364e-02 -7.082162e-02 -7.636931e-02 -8.217511e-02 -8.673512e-02 -9.153123e-02 -9.504558e-02 -9.878880e-02 -1.012265e-01 -1.038993e-01 -1.052580e-01 -1.068697e-01 -1.071767e-01 -1.077646e-01 -1.070782e-01 -1.067078e-01 -1.051169e-01 -1.038817e-01 -1.015053e-01 -9.952479e-02 -9.650914e-02 -9.392577e-02 -9.044058e-02 -8.741483e-02 -8.364692e-02 -8.035072e-02 -7.649607e-02 -7.310471e-02 -6.935879e-02 -6.604178e-02 -6.258881e-02 -5.950024e-02 -5.650215e-02 -5.377126e-02 -5.135730e-02 -4.908027e-02 -4.733827e-02 -4.557173e-02 -4.454190e-02 -4.329915e-02 -4.297113e-02 -4.222120e-02 -4.253469e-02 -4.220458e-02 -4.305351e-02 -4.303336e-02 -4.427321e-02 -4.442384e-02 -4.588138e-02 -4.604367e-02 -4.752810e-02 -4.753320e-02 -4.884786e-02 -4.852752e-02 -4.948108e-02 -4.867728e-02 -4.909383e-02 -4.766721e-02 -4.739470e-02 -4.523142e-02 -4.414816e-02 -4.116507e-02 -3.918438e-02 -3.533260e-02 -3.240568e-02 -2.767260e-02 -2.378982e-02 -1.819988e-02 -1.339087e-02 
-9.032725e-03 -3.231333e-03 4.048799e-03 1.064888e-02 1.853435e-02 2.579093e-02 3.411643e-02 4.185659e-02 5.042967e-02 5.845453e-02 6.706074e-02 7.515121e-02 8.356052e-02 9.148425e-02 9.945862e-02 1.069780e-01 1.142800e-01 1.211607e-01 1.275630e-01 1.335840e-01 1.388790e-01 1.438408e-01 1.478500e-01 1.515844e-01 1.541665e-01 1.565430e-01 1.576009e-01 1.585326e-01 1.580168e-01 1.574638e-01 1.553746e-01 1.533441e-01 1.497304e-01 1.462757e-01 1.412313e-01 1.364477e-01 1.301060e-01 1.241258e-01 1.166525e-01 1.096382e-01 1.012237e-01 9.336087e-02 8.421204e-02 7.570194e-02 6.603426e-02 5.708685e-02 4.711734e-02 3.794461e-02 2.788568e-02 1.869588e-02 8.750367e-03 -2.569175e-04 -9.899619e-03 -1.853753e-02 -2.770430e-02 -3.580193e-02 -4.433792e-02 -5.174294e-02 -5.951304e-02 -6.609370e-02 -7.298366e-02 -7.863064e-02 -8.454815e-02 -8.917610e-02 -9.405192e-02 -9.760113e-02 -1.013904e-01 -1.038284e-01 -1.065123e-01 -1.078355e-01 -1.094224e-01 -1.096578e-01 -1.101849e-01 -1.093911e-01 -1.089251e-01 -1.071929e-01 -1.058297e-01 -1.032815e-01 -1.011450e-01 -9.793266e-02 -9.517143e-02 -9.147237e-02 -8.825490e-02 -8.426561e-02 -8.077334e-02 -7.670120e-02 -7.312001e-02 -6.917289e-02 -6.568320e-02 -6.205789e-02 -5.882421e-02 -5.569428e-02 -5.285494e-02 -5.035932e-02 -4.801734e-02 -4.625056e-02 -4.446659e-02 -4.347189e-02 -4.225991e-02 -4.202588e-02 -4.135222e-02 -4.181354e-02 -4.159928e-02 -4.264127e-02 -4.276795e-02 -4.423472e-02 -4.455267e-02 -4.625779e-02 -4.659632e-02 -4.833513e-02 -4.851368e-02 -5.007594e-02 -4.991521e-02 -5.109719e-02 -5.042935e-02 -5.104452e-02 -4.972211e-02 -4.960987e-02 -4.751282e-02 -4.654519e-02 -4.358604e-02 -4.167217e-02 -3.779950e-02 -3.488838e-02 -3.008868e-02 -2.617026e-02 -2.046851e-02 -1.557349e-02 
-1.136167e-02 -5.396280e-03 2.061895e-03 8.876816e-03 1.698964e-02 2.450565e-02 3.310115e-02 4.113756e-02 5.001492e-02 5.836354e-02 6.729831e-02 7.572931e-02 8.447986e-02 9.274886e-02 1.010643e-01 1.089207e-01 1.165499e-01 1.237461e-01 1.304481e-01 1.367498e-01 1.423038e-01 1.474999e-01 1.517159e-01 1.556278e-01 1.583555e-01 1.608453e-01 1.619814e-01 1.629578e-01 1.624503e-01 1.618720e-01 1.597222e-01 1.575985e-01 1.538596e-01 1.502486e-01 1.450215e-01 1.400258e-01 1.334532e-01 1.272140e-01 1.194722e-01 1.121622e-01 1.034529e-01 9.526812e-02 8.580930e-02 7.696167e-02 6.697930e-02 5.768869e-02 4.740913e-02 3.789667e-02 2.754033e-02 1.802238e-02 7.798649e-03 -1.518209e-03 -1.141473e-02 -2.033766e-02 -2.972982e-02 -3.808288e-02 -4.681268e-02 -5.443923e-02 -6.236903e-02 -6.913360e-02 -7.614696e-02 -8.193689e-02 -8.793947e-02 -9.266639e-02 -9.758699e-02 -1.011884e-01 -1.049803e-01 -1.074214e-01 -1.100642e-01 -1.113394e-01 -1.128406e-01 -1.129760e-01 -1.133727e-01 -1.124274e-01 -1.117879e-01 -1.098549e-01 -1.082784e-01 -1.054848e-01 -1.031009e-01 -9.960582e-02 -9.657149e-02 -9.256239e-02 -8.905672e-02 -8.474313e-02 -8.096044e-02 -7.656490e-02 -7.270549e-02 -6.845253e-02 -6.471186e-02 -6.081514e-02 -5.737226e-02 -5.402115e-02 -5.102719e-02 -4.837384e-02 -4.594173e-02 -4.409007e-02 -4.228648e-02 -4.128435e-02 -4.012476e-02 -3.996005e-02 -3.940753e-02 -4.000892e-02 -3.997683e-02 -4.121899e-02 -4.157730e-02 -4.329004e-02 -4.387470e-02 -4.585496e-02 -4.647936e-02 -4.850492e-02 -4.897223e-02 -5.081574e-02 -5.093114e-02 -5.237330e-02 -5.195516e-02 -5.279614e-02 -5.168539e-02 -5.175408e-02 -4.982159e-02 -4.898229e-02 -4.613410e-02 -4.429103e-02 -4.047161e-02 -3.757126e-02 -3.276521e-02 -2.879720e-02 -2.302954e-02 -1.802612e-02 
-1.423224e-02 -8.078302e-03 -3.563443e-04 6.708825e-03 1.513699e-02 2.295803e-02 3.191274e-02 4.030030e-02 4.957116e-02 5.830657e-02 6.765760e-02 7.649871e-02 8.567495e-02 9.436346e-02 1.030991e-01 1.113692e-01 1.193972e-01 1.269856e-01 1.340489e-01 1.407057e-01 1.465682e-01 1.520677e-01 1.565261e-01 1.606777e-01 1.635711e-01 1.662276e-01 1.674459e-01 1.685106e-01 1.679993e-01 1.674291e-01 1.651911e-01 1.629976e-01 1.590918e-01 1.553387e-01 1.498749e-01 1.446733e-01 1.378057e-01 1.313074e-01 1.232253e-01 1.156148e-01 1.065334e-01 9.801896e-02 8.816961e-02 7.897515e-02 6.859605e-02 5.895278e-02 4.828113e-02 3.842032e-02 2.768562e-02 1.783241e-02 7.251361e-03 -2.380277e-03 -1.260741e-02 -2.181863e-02 -3.151037e-02 -4.012038e-02 -4.911543e-02 -5.696364e-02 -6.512166e-02 -7.206935e-02 -7.927150e-02 -8.520313e-02 -9.135272e-02 -9.617726e-02 -1.012007e-01 -1.048531e-01 -1.087014e-01 -1.111444e-01 -1.137948e-01 -1.150212e-01 -1.164795e-01 -1.165141e-01 -1.168172e-01 -1.157190e-01 -1.149360e-01 -1.128002e-01 -1.110337e-01 -1.079917e-01 -1.053771e-01 -1.015958e-01 -9.829855e-02 -9.397603e-02 -9.018684e-02 -8.554656e-02 -8.147364e-02 -7.675480e-02 -7.261406e-02 -6.805958e-02 -6.406279e-02 -5.990516e-02 -5.624707e-02 -5.269327e-02 -4.953875e-02 -4.675567e-02 -4.422813e-02 -4.233002e-02 -4.050229e-02 -3.954175e-02 -3.843048e-02 -3.839403e-02 -3.795828e-02 -3.876715e-02 -3.891141e-02 -4.042743e-02 -4.100877e-02 -4.304478e-02 -4.388338e-02 -4.621677e-02 -4.710876e-02 -4.949689e-02 -5.022807e-02 -5.242380e-02 -5.278310e-02 -5.454927e-02 -5.434084e-02 -5.546256e-02 -5.451573e-02 -5.481001e-02 -5.298689e-02 -5.230949e-02 -4.951012e-02 -4.775981e-02 -4.392524e-02 -4.104583e-02 -3.615951e-02 -3.214029e-02 -2.622806e-02 -2.110300e-02 
-1.747518e-02 -1.109936e-02 -3.128764e-03 4.227562e-03 1.297075e-02 2.114405e-02 3.047145e-02 3.926222e-02 4.895246e-02 5.812976e-02 6.793355e-02 7.724088e-02 8.688765e-02 9.605041e-02 1.052568e-01 1.139914e-01 1.224715e-01 1.304960e-01 1.379734e-01 1.450197e-01 1.512399e-01 1.570655e-01 1.618088e-01 1.662087e-01 1.693016e-01 1.721181e-01 1.734418e-01 1.745718e-01 1.740685e-01 1.734674e-01 1.711416e-01 1.688241e-01 1.647411e-01 1.607779e-01 1.550580e-01 1.495707e-01 1.423812e-01 1.355344e-01 1.270800e-01 1.190721e-01 1.095839e-01 1.006380e-01 9.036273e-02 8.071722e-02 6.990749e-02 5.980701e-02 4.871265e-02 3.840065e-02 2.726173e-02 1.697399e-02 6.015659e-03 -4.024843e-03 -1.459580e-02 -2.418269e-02 -3.417994e-02 -4.312618e-02 -5.238474e-02 -6.052453e-02 -6.890115e-02 -7.609123e-02 -8.346451e-02 -8.958522e-02 -9.585593e-02 -1.008124e-01 -1.059043e-01 -1.096277e-01 -1.134890e-01 -1.159388e-01 -1.185443e-01 -1.197102e-01 -1.210638e-01 -1.209686e-01 -1.211063e-01 -1.198090e-01 -1.188011e-01 -1.163991e-01 -1.143519e-01 -1.109820e-01 -1.080381e-01 -1.038761e-01 -1.002117e-01 -9.546935e-02 -9.128949e-02 -8.620768e-02 -8.173825e-02 -7.657730e-02 -7.205436e-02 -6.708062e-02 -6.273719e-02 -5.820724e-02 -5.425883e-02 -5.040238e-02 -4.703230e-02 -4.403540e-02 -4.138141e-02 -3.937200e-02 -3.751573e-02 -3.655310e-02 -3.551343e-02 -3.558304e-02 -3.531441e-02 -3.632873e-02 -3.672449e-02 -3.852980e-02 -3.943041e-02 -4.181879e-02 -4.302390e-02 -4.574880e-02 -4.703193e-02 -4.982569e-02 -5.094979e-02 -5.354121e-02 -5.427376e-02 -5.640409e-02 -5.653044e-02 -5.796675e-02 -5.730079e-02 -5.784614e-02 -5.623823e-02 -5.573850e-02 -5.308055e-02 -5.142839e-02 -4.765662e-02 -4.479308e-02 -3.988889e-02 -3.580327e-02 -2.979298e-02 -2.452158e-02 
-2.131317e-02 -1.468892e-02 -6.380065e-03 1.305655e-03 1.045625e-02 1.903119e-02 2.882555e-02 3.807926e-02 4.828393e-02 5.797206e-02 6.832294e-02 7.817305e-02 8.838208e-02 9.810118e-02 1.078651e-01 1.171493e-01 1.261607e-01 1.347066e-01 1.426669e-01 1.501850e-01 1.568186e-01 1.630465e-01 1.681149e-01 1.728308e-01 1.761456e-01 1.791791e-01 1.806124e-01 1.818529e-01 1.813432e-01 1.807443e-01 1.782988e-01 1.758785e-01 1.715706e-01 1.674079e-01 1.613706e-01 1.555992e-01 1.480162e-01 1.408153e-01 1.319091e-01 1.234937e-01 1.135140e-01 1.041238e-01 9.333548e-02 8.322516e-02 7.189718e-02 6.132642e-02 4.972282e-02 3.894840e-02 2.732087e-02 1.658989e-02 5.172653e-03 -5.282591e-03 -1.627601e-02 -2.624171e-02 -3.662007e-02 -4.590336e-02 -5.549811e-02 -6.392856e-02 -7.259358e-02 -8.002409e-02 -8.763534e-02 -9.394285e-02 -1.003983e-01 -1.054846e-01 -1.107049e-01 -1.144979e-01 -1.184279e-01 -1.208836e-01 -1.234946e-01 -1.245995e-01 -1.258928e-01 -1.256675e-01 -1.256775e-01 -1.241800e-01 -1.229775e-01 -1.203068e-01 -1.180017e-01 -1.142995e-01 -1.110414e-01 -1.064929e-01 -1.024691e-01 -9.729980e-02 -9.273072e-02 -8.720025e-02 -8.233080e-02 -7.672232e-02 -7.181025e-02 -6.641584e-02 -6.171715e-02 -5.682008e-02 -5.257260e-02 -4.842784e-02 -4.483460e-02 -4.164954e-02 -3.886346e-02 -3.678113e-02 -3.489283e-02 -3.397961e-02 -3.300982e-02 -3.324938e-02 -3.314689e-02 -3.444112e-02 -3.508663e-02 -3.726354e-02 -3.847912e-02 -4.130663e-02 -4.286954e-02 -4.607354e-02 -4.773293e-02 -5.101720e-02 -5.251180e-02 -5.557787e-02 -5.665282e-02 -5.921778e-02 -5.963917e-02 -6.145015e-02 -6.101656e-02 -6.186134e-02 -6.041186e-02 -6.012573e-02 -5.754486e-02 -5.601408e-02 -5.223403e-02 -4.939684e-02 -4.439791e-02 -4.024377e-02 -3.405355e-02 -2.862134e-02 
-2.561860e-02 -1.870829e-02 -1.007358e-02 -2.012198e-03 7.549798e-03 1.658003e-02 2.686074e-02 3.663689e-02 4.738936e-02 5.765190e-02 6.859536e-02 7.905369e-02 8.988011e-02 1.002202e-01 1.106035e-01 1.204981e-01 1.301057e-01 1.392268e-01 1.477341e-01 1.557673e-01 1.628736e-01 1.695336e-01 1.749781e-01 1.800236e-01 1.836003e-01 1.868465e-01 1.884160e-01 1.897440e-01 1.892403e-01 1.886018e-01 1.860349e-01 1.834527e-01 1.789052e-01 1.744683e-01 1.680880e-01 1.619445e-01 1.539335e-01 1.462803e-01 1.368821e-01 1.279531e-01 1.174389e-01 1.074935e-01 9.614887e-02 8.546048e-02 7.357325e-02 6.241908e-02 5.026946e-02 3.892174e-02 2.677466e-02 1.549370e-02 3.593575e-03 -7.377399e-03 -1.880957e-02 -2.924788e-02 -4.001557e-02 -4.972120e-02 -5.965213e-02 -6.844877e-02 -7.739392e-02 -8.512943e-02 -9.296212e-02 -9.950874e-02 -1.061241e-01 -1.113790e-01 -1.166942e-01 -1.205806e-01 -1.245366e-01 -1.270056e-01 -1.295700e-01 -1.306038e-01 -1.317740e-01 -1.313896e-01 -1.311979e-01 -1.294517e-01 -1.279691e-01 -1.249613e-01 -1.223012e-01 -1.181792e-01 -1.144992e-01 -1.094588e-01 -1.049595e-01 -9.924289e-02 -9.416298e-02 -8.805269e-02 -8.266050e-02 -7.646776e-02 -7.104822e-02 -6.509703e-02 -5.993525e-02 -5.454222e-02 -4.990486e-02 -4.535676e-02 -4.147265e-02 -3.800397e-02 -3.504632e-02 -3.281953e-02 -3.089150e-02 -2.998255e-02 -2.910820e-02 -2.949928e-02 -2.962100e-02 -3.120156e-02 -3.218449e-02 -3.476052e-02 -3.640352e-02 -3.971373e-02 -4.176552e-02 -4.550236e-02 -4.768097e-02 -5.151379e-02 -5.352689e-02 -5.712461e-02 -5.868869e-02 -6.173978e-02 -6.259641e-02 -6.482469e-02 -6.475289e-02 -6.592872e-02 -6.475323e-02 -6.470012e-02 -6.229599e-02 -6.089346e-02 -5.718771e-02 -5.437145e-02 -4.934268e-02 -4.510293e-02 -3.877989e-02 -3.315899e-02 
-3.058810e-02 -2.336278e-02 -1.430797e-02 -5.829314e-03 4.241767e-03 1.378121e-02 2.464876e-02 3.501304e-02 4.641568e-02 5.732906e-02 6.896794e-02 8.012008e-02 9.166525e-02 1.027189e-01 1.138186e-01 1.244202e-01 1.347136e-01 1.445067e-01 1.536398e-01 1.622815e-01 1.699246e-01 1.771028e-01 1.829697e-01 1.884201e-01 1.922846e-01 1.958055e-01 1.975154e-01 1.989781e-01 1.984629e-01 1.978171e-01 1.950909e-01 1.923645e-01 1.875214e-01 1.828154e-01 1.760212e-01 1.695004e-01 1.609792e-01 1.528607e-01 1.428805e-01 1.334202e-01 1.222772e-01 1.117565e-01 9.975986e-02 8.847360e-02 7.593237e-02 6.417695e-02 5.138926e-02 3.945365e-02 2.669860e-02 1.485704e-02 2.389611e-03 -9.103557e-03 -2.105498e-02 -3.196853e-02 -4.320252e-02 -5.332998e-02 -6.367096e-02 -7.283112e-02 -8.212756e-02 -9.016429e-02 -9.828697e-02 -1.050689e-01 -1.119098e-01 -1.173302e-01 -1.228029e-01 -1.267807e-01 -1.308213e-01 -1.333031e-01 -1.358740e-01 -1.368370e-01 -1.379311e-01 -1.373881e-01 -1.370342e-01 -1.350388e-01 -1.333072e-01 -1.299598e-01 -1.269668e-01 -1.224195e-01 -1.183307e-01 -1.127895e-01 -1.078189e-01 -1.015432e-01 -9.594941e-02 -8.924563e-02 -8.332190e-02 -7.653166e-02 -7.059224e-02 -6.407452e-02 -5.843598e-02 -5.254432e-02 -4.750429e-02 -4.256090e-02 -3.837586e-02 -3.464546e-02 -3.151004e-02 -2.917670e-02 -2.720693e-02 -2.635694e-02 -2.557967e-02 -2.619290e-02 -2.654275e-02 -2.849390e-02 -2.981839e-02 -3.288781e-02 -3.496012e-02 -3.885287e-02 -4.139063e-02 -4.576102e-02 -4.844877e-02 -5.292722e-02 -5.543977e-02 -5.965870e-02 -6.168280e-02 -6.529905e-02 -6.655133e-02 -6.926341e-02 -6.950363e-02 -7.106330e-02 -7.010266e-02 -7.032119e-02 -6.802636e-02 -6.677659e-02 -6.307052e-02 -6.028585e-02 -5.514655e-02 -5.081836e-02 -4.427664e-02 -3.845105e-02 
-3.614697e-02 -2.856358e-02 -1.909763e-02 -1.014878e-02 4.407095e-04 1.055092e-02 2.203200e-02 3.305321e-02 4.514877e-02 5.678724e-02 6.917846e-02 8.110184e-02 9.343418e-02 1.052790e-01 1.171717e-01 1.285545e-01 1.396142e-01 1.501462e-01 1.599843e-01 1.692897e-01 1.775429e-01 1.852788e-01 1.916306e-01 1.975064e-01 2.017067e-01 2.055013e-01 2.073825e-01 2.089565e-01 2.084426e-01 2.077441e-01 2.048535e-01 2.019172e-01 1.967574e-01 1.916986e-01 1.844558e-01 1.774592e-01 1.683831e-01 1.596893e-01 1.490760e-01 1.389662e-01 1.271404e-01 1.159216e-01 1.032194e-01 9.121057e-02 7.796521e-02 6.548466e-02 5.201439e-02 3.937010e-02 2.596991e-02 1.345191e-02 3.884273e-04 -1.173629e-02 -2.422674e-02 -3.571707e-02 -4.742803e-02 -5.806988e-02 -6.882264e-02 -7.842875e-02 -8.806956e-02 -9.647864e-02 -1.048760e-01 -1.119517e-01 -1.189947e-01 -1.246252e-01 -1.302231e-01 -1.343215e-01 -1.384052e-01 -1.409115e-01 -1.434375e-01 -1.443224e-01 -1.452774e-01 -1.445475e-01 -1.439557e-01 -1.416605e-01 -1.395901e-01 -1.358293e-01 -1.323991e-01 -1.273293e-01 -1.227129e-01 -1.165518e-01 -1.109789e-01 -1.040058e-01 -9.775761e-02 -9.030760e-02 -8.370774e-02 -7.615915e-02 -6.955782e-02 -6.231243e-02 -5.606556e-02 -4.952245e-02 -4.396713e-02 -3.849257e-02 -3.392107e-02 -2.981773e-02 -2.645306e-02 -2.393247e-02 -2.190844e-02 -2.107049e-02 -2.041888e-02 -2.124144e-02 -2.188817e-02 -2.422847e-02 -2.599951e-02 -2.960703e-02 -3.224343e-02 -3.678252e-02 -3.996266e-02 -4.504160e-02 -4.840763e-02 -5.361012e-02 -5.679530e-02 -6.171042e-02 -6.436401e-02 -6.861158e-02 -7.041905e-02 -7.366853e-02 -7.436573e-02 -7.634814e-02 -7.572966e-02 -7.624326e-02 -7.416564e-02 -7.307672e-02 -6.945811e-02 -6.669859e-02 -6.151626e-02 -5.707978e-02 -5.036688e-02 -4.430453e-02 
-4.245576e-02 -3.448272e-02 -2.450623e-02 -1.504188e-02 -3.830379e-03 6.909686e-03 1.911191e-02 3.086267e-02 4.376224e-02 5.621131e-02 6.946825e-02 8.225976e-02 9.549290e-02 1.082348e-01 1.210312e-01 1.333065e-01 1.452363e-01 1.566196e-01 1.672550e-01 1.773325e-01 1.862717e-01 1.946644e-01 2.015560e-01 2.079427e-01 2.125093e-01 2.166462e-01 2.187030e-01 2.204381e-01 2.199036e-01 2.191829e-01 2.160817e-01 2.129482e-01 2.074043e-01 2.019900e-01 1.942144e-01 1.867272e-01 1.769997e-01 1.677074e-01 1.563570e-01 1.455699e-01 1.329540e-01 1.210079e-01 1.074935e-01 9.473438e-02 8.068133e-02 6.745173e-02 5.320031e-02 3.982865e-02 2.569050e-02 1.248334e-02 -1.263306e-03 -1.402631e-02 -2.713782e-02 -3.920634e-02 -5.147216e-02 -6.262561e-02 -7.386491e-02 -8.391147e-02 -9.396905e-02 -1.027439e-01 -1.114864e-01 -1.188498e-01 -1.261632e-01 -1.319992e-01 -1.377882e-01 -1.420048e-01 -1.461940e-01 -1.487249e-01 -1.512632e-01 -1.520718e-01 -1.529384e-01 -1.520241e-01 -1.512366e-01 -1.486430e-01 -1.462662e-01 -1.420904e-01 -1.382444e-01 -1.326459e-01 -1.275124e-01 -1.207194e-01 -1.145438e-01 -1.068554e-01 -9.994348e-02 -9.172478e-02 -8.443256e-02 -7.610150e-02 -6.881806e-02 -6.082332e-02 -5.394717e-02 -4.673843e-02 -4.064920e-02 -3.464206e-02 -2.967041e-02 -2.521013e-02 -2.160911e-02 -1.893795e-02 -1.685967e-02 -1.609244e-02 -1.557288e-02 -1.668452e-02 -1.763900e-02 -2.046612e-02 -2.269619e-02 -2.695248e-02 -3.016360e-02 -3.546670e-02 -3.929439e-02 -4.520022e-02 -4.924106e-02 -5.528072e-02 -5.912398e-02 -6.483837e-02 -6.809447e-02 -7.306294e-02 -7.538586e-02 -7.924676e-02 -8.034913e-02 -8.281192e-02 -8.247302e-02 -8.332297e-02 -8.139086e-02 -8.048828e-02 -7.687789e-02 -7.415399e-02 -6.884325e-02 -6.429457e-02 -5.731995e-02 -5.100303e-02 
-4.950582e-02 -4.109347e-02 -3.061125e-02 -2.057062e-02 -8.721519e-03 2.719271e-03 1.567796e-02 2.823812e-02 4.199571e-02 5.534261e-02 6.953626e-02 8.328827e-02 9.750742e-02 1.112405e-01 1.250363e-01 1.382960e-01 1.511964e-01 1.635153e-01 1.750476e-01 1.859683e-01 1.956852e-01 2.047874e-01 2.122966e-01 2.192237e-01 2.242154e-01 2.286979e-01 2.309667e-01 2.328388e-01 2.322966e-01 2.315030e-01 2.281811e-01 2.247753e-01 2.188171e-01 2.129514e-01 2.045963e-01 1.965058e-01 1.860684e-01 1.760524e-01 1.638993e-01 1.523013e-01 1.388272e-01 1.260159e-01 1.116226e-01 9.797439e-02 8.305207e-02 6.893657e-02 5.385004e-02 3.961845e-02 2.469781e-02 1.067499e-02 -3.788921e-03 -1.730927e-02 -3.106523e-02 -4.382244e-02 -5.665610e-02 -6.842215e-02 -8.015117e-02 -9.072870e-02 -1.011972e-01 -1.104168e-01 -1.194904e-01 -1.272076e-01 -1.347695e-01 -1.408629e-01 -1.468128e-01 -1.511837e-01 -1.554392e-01 -1.580126e-01 -1.605137e-01 -1.612433e-01 -1.619596e-01 -1.608351e-01 -1.597754e-01 -1.568318e-01 -1.540552e-01 -1.493851e-01 -1.450113e-01 -1.387761e-01 -1.329941e-01 -1.254332e-01 -1.185055e-01 -1.099408e-01 -1.022009e-01 -9.303278e-02 -8.487505e-02 -7.556876e-02 -6.742960e-02 -5.849074e-02 -5.082152e-02 -4.276173e-02 -3.599597e-02 -2.929182e-02 -2.380968e-02 -1.885961e-02 -1.495390e-02 -1.203897e-02 -9.886967e-03 -9.141437e-03 -8.786451e-03 -1.018260e-02 -1.152816e-02 -1.487806e-02 -1.769589e-02 -2.266989e-02 -2.662099e-02 -3.278003e-02 -3.744591e-02 -4.428261e-02 -4.920228e-02 -5.618470e-02 -6.089210e-02 -6.750413e-02 -7.156118e-02 -7.733513e-02 -8.035696e-02 -8.489600e-02 -8.656707e-02 -8.955725e-02 -8.963872e-02 -9.085225e-02 -8.918257e-02 -8.847485e-02 -8.496576e-02 -8.226891e-02 -7.689960e-02 -7.221489e-02 -6.502597e-02 -5.841701e-02 
-5.740970e-02 -4.852383e-02 -3.743123e-02 -2.676529e-02 -1.416891e-02 -1.962952e-03 1.186747e-02 2.531734e-02 4.005395e-02 5.439474e-02 6.965108e-02 8.447422e-02 9.980836e-02 1.146554e-01 1.295789e-01 1.439535e-01 1.579475e-01 1.713346e-01 1.838747e-01 1.957669e-01 2.063537e-01 2.162822e-01 2.244761e-01 2.320427e-01 2.374966e-01 2.424015e-01 2.448869e-01 2.469480e-01 2.463701e-01 2.455312e-01 2.419309e-01 2.382581e-01 2.318025e-01 2.254718e-01 2.164347e-01 2.077131e-01 1.964503e-01 1.856736e-01 1.725952e-01 1.601451e-01 1.456891e-01 1.319712e-01 1.165785e-01 1.020034e-01 8.609771e-02 7.106478e-02 5.503726e-02 3.992220e-02 2.412186e-02 9.268540e-03 -6.001822e-03 -2.028593e-02 -3.476896e-02 -4.821394e-02 -6.169327e-02 -7.406540e-02 -8.635900e-02 -9.745759e-02 -1.084103e-01 -1.180637e-01 -1.275408e-01 -1.356020e-01 -1.434841e-01 -1.498282e-01 -1.560094e-01 -1.605316e-01 -1.649211e-01 -1.675383e-01 -1.700652e-01 -1.707206e-01 -1.713424e-01 -1.700138e-01 -1.687283e-01 -1.654399e-01 -1.622982e-01 -1.571348e-01 -1.522546e-01 -1.453767e-01 -1.389535e-01 -1.306096e-01 -1.229235e-01 -1.134573e-01 -1.048714e-01 -9.471984e-02 -8.567002e-02 -7.534931e-02 -6.632320e-02 -5.640154e-02 -4.790792e-02 -3.896612e-02 -3.149681e-02 -2.408010e-02 -1.806850e-02 -1.263540e-02 -8.416485e-03 -5.291915e-03 -3.068959e-03 -2.408750e-03 -2.231430e-03 -4.004054e-03 -5.761437e-03 -9.750080e-03 -1.318001e-02 -1.900479e-02 -2.371883e-02 -3.087559e-02 -3.639615e-02 -4.430553e-02 -5.010955e-02 -5.816873e-02 -6.373155e-02 -7.136128e-02 -7.619464e-02 -8.287623e-02 -8.655640e-02 -9.185595e-02 -9.404052e-02 -9.762047e-02 -9.805468e-02 -9.967512e-02 -9.819026e-02 -9.770313e-02 -9.421010e-02 -9.154990e-02 -8.603093e-02 -8.120479e-02 -7.370576e-02 -6.678496e-02 