# vtk DataFile Version 2.0
Comment goes here
ASCII

DATASET STRUCTURED_POINTS
FIELD FieldData 1
TIME 1 1 double
0.04000000
DIMENSIONS    128   128   1

ORIGIN    0.000   0.000   0.000
SPACING   0.039062 0.039062   1.000

POINT_DATA   16384
SCALARS uX double
LOOKUP_TABLE default

8.014102e-01 8.351626e-01 8.651942e-01 8.959404e-01 9.229436e-01 9.505289e-01 9.743313e-01 9.985780e-01 1.018984e+00 1.039692e+00 1.056485e+00 1.073438e+00 1.086385e+00 1.099351e+00 1.108215e+00 1.116960e+00 1.121503e+00 1.125795e+00 1.125792e+00 1.125419e+00 1.120668e+00 1.115441e+00 1.105777e+00 1.095545e+00 1.080848e+00 1.065506e+00 1.045711e+00 1.025211e+00 1.000314e+00 9.746646e-01 9.447293e-01 9.140055e-01 8.791641e-01 8.435043e-01 8.039585e-01 7.635653e-01 7.195842e-01 6.747219e-01 6.266387e-01 5.776306e-01 5.258391e-01 4.730642e-01 4.180141e-01 3.619047e-01 3.040978e-01 2.451372e-01 1.851242e-01 1.238457e-01 6.222248e-02 -7.912270e-04 -6.338570e-02 -1.275031e-01 -1.903902e-01 -2.549320e-01 -3.173968e-01 -3.816384e-01 -4.429350e-01 -5.061110e-01 -5.654691e-01 -6.267807e-01 -6.834156e-01 -7.420407e-01 -7.951656e-01 -8.502733e-01 -8.991143e-01 -9.498819e-01 -9.936960e-01 -1.039329e+00 -1.077424e+00 -1.117180e+00 -1.148935e+00 -1.182144e+00 -1.207031e+00 -1.233122e+00 -1.250724e+00 -1.269245e+00 -1.279277e+00 -1.289913e+00 -1.292229e+00 -1.294820e+00 -1.289428e+00 -1.283974e+00 -1.271034e+00 -1.257701e+00 -1.237523e+00 -1.216636e+00 -1.189670e+00 -1.161706e+00 -1.128524e+00 -1.094088e+00 -1.055362e+00 -1.015168e+00 -9.716491e-01 -9.264890e-01 -8.789725e-01 -8.296863e-01 -7.789878e-01 -7.264327e-01 -6.733592e-01 -6.183800e-01 -5.637056e-01 -5.071094e-01 -4.515551e-01 -3.940900e-01 -3.383084e-01 -2.806485e-01 -2.252143e-01 -1.679506e-01 -1.133560e-01 -5.699238e-02 -3.647741e-03 5.139671e-02 1.031580e-01 1.565437e-01 2.064569e-01 2.579144e-01 3.057732e-01 3.550917e-01 4.007357e-01 4.477505e-01 4.910527e-01 5.356320e-01 5.764862e-01 6.185183e-01 6.568273e-01 6.962086e-01 7.318735e-01 7.684986e-01 
8.031344e-01 8.369415e-01 8.670262e-01 8.978348e-01 9.248869e-01 9.525419e-01 9.763876e-01 1.000711e+00 1.021152e+00 1.041942e+00 1.058762e+00 1.075800e+00 1.088763e+00 1.101816e+00 1.110681e+00 1.119512e+00 1.124041e+00 1.128417e+00 1.128382e+00 1.128086e+00 1.123284e+00 1.118125e+00 1.108390e+00 1.098215e+00 1.083425e+00 1.068128e+00 1.048219e+00 1.027746e+00 1.002715e+00 9.770769e-01 9.469876e-01 9.162566e-01 8.812434e-01 8.455577e-01 8.058244e-01 7.653864e-01 7.212044e-01 6.762787e-01 6.279839e-01 5.788944e-01 5.268830e-01 4.740097e-01 4.187343e-01 3.625103e-01 3.044754e-01 2.453853e-01 1.851439e-01 1.237226e-01 6.187332e-02 -1.294937e-03 -6.411076e-02 -1.283925e-01 -1.914936e-01 -2.562073e-01 -3.188761e-01 -3.832946e-01 -4.447822e-01 -5.081369e-01 -5.676700e-01 -6.291586e-01 -6.859491e-01 -7.447458e-01 -7.980033e-01 -8.532731e-01 -9.022202e-01 -9.531360e-01 -9.970263e-01 -1.042790e+00 -1.080928e+00 -1.120792e+00 -1.152554e+00 -1.185846e+00 -1.210704e+00 -1.236849e+00 -1.254385e+00 -1.272931e+00 -1.282859e+00 -1.293490e+00 -1.295668e+00 -1.298225e+00 -1.292665e+00 -1.287150e+00 -1.274016e+00 -1.260600e+00 -1.240208e+00 -1.219219e+00 -1.192025e+00 -1.163946e+00 -1.130529e+00 -1.095971e+00 -1.057010e+00 -1.016692e+00 -9.729425e-01 -9.276601e-01 -8.799238e-01 -8.305219e-01 -7.796175e-01 -7.269565e-01 -6.736932e-01 -6.186200e-01 -5.637733e-01 -5.070960e-01 -4.513869e-01 -3.938537e-01 -3.379343e-01 -2.802186e-01 -2.246622e-01 -1.673533e-01 -1.126503e-01 -5.625048e-02 -2.809261e-03 5.226470e-02 1.041128e-01 1.575236e-01 2.075159e-01 2.589963e-01 3.069281e-01 3.562696e-01 4.019821e-01 4.490219e-01 4.923893e-01 5.369972e-01 5.779141e-01 6.199799e-01 6.583495e-01 6.977710e-01 7.334944e-01 7.701667e-01 
8.042867e-01 8.381059e-01 8.682116e-01 8.990353e-01 9.261247e-01 9.537988e-01 9.776992e-01 1.002046e+00 1.022560e+00 1.043377e+00 1.060286e+00 1.077353e+00 1.090421e+00 1.103504e+00 1.112487e+00 1.121347e+00 1.126002e+00 1.130402e+00 1.130499e+00 1.130220e+00 1.125552e+00 1.120400e+00 1.110796e+00 1.100616e+00 1.085952e+00 1.070635e+00 1.050842e+00 1.030336e+00 1.005408e+00 9.797216e-01 9.497201e-01 9.189270e-01 8.839848e-01 8.482237e-01 8.085434e-01 7.680179e-01 7.238702e-01 6.788461e-01 6.305662e-01 5.813684e-01 5.293520e-01 4.763609e-01 4.210598e-01 3.647085e-01 3.066264e-01 2.473989e-01 1.870878e-01 1.255178e-01 6.357513e-02 2.455332e-04 -6.268838e-02 -1.271455e-01 -1.903901e-01 -2.552943e-01 -3.181322e-01 -3.827565e-01 -4.444383e-01 -5.080137e-01 -5.677643e-01 -6.294867e-01 -6.865153e-01 -7.455557e-01 -7.990677e-01 -8.545865e-01 -9.037991e-01 -9.549636e-01 -9.991240e-01 -1.045129e+00 -1.083534e+00 -1.123624e+00 -1.155644e+00 -1.189138e+00 -1.214233e+00 -1.240550e+00 -1.258296e+00 -1.276974e+00 -1.287078e+00 -1.297794e+00 -1.300108e+00 -1.302698e+00 -1.297226e+00 -1.291689e+00 -1.278594e+00 -1.265097e+00 -1.244695e+00 -1.223571e+00 -1.196319e+00 -1.168051e+00 -1.134532e+00 -1.099739e+00 -1.060640e+00 -1.020049e+00 -9.761319e-01 -9.305517e-01 -8.826274e-01 -8.329125e-01 -7.818105e-01 -7.288329e-01 -6.753723e-01 -6.199895e-01 -5.649546e-01 -5.079842e-01 -4.521035e-01 -3.943013e-01 -3.382323e-01 -2.802769e-01 -2.245966e-01 -1.670807e-01 -1.122808e-01 -5.570777e-02 -2.196382e-03 5.301791e-02 1.049115e-01 1.584320e-01 2.084485e-01 2.600114e-01 3.079503e-01 3.573512e-01 4.030587e-01 4.501395e-01 4.934947e-01 5.381299e-01 5.790327e-01 6.211166e-01 6.594749e-01 6.989091e-01 7.346286e-01 7.713119e-01 
8.088829e-01 8.428237e-01 8.730577e-01 9.040216e-01 9.312473e-01 9.590808e-01 9.831240e-01 1.007648e+00 1.028308e+00 1.049318e+00 1.066370e+00 1.083641e+00 1.096845e+00 1.110136e+00 1.119241e+00 1.128305e+00 1.133060e+00 1.137653e+00 1.137820e+00 1.137716e+00 1.133080e+00 1.128076e+00 1.118461e+00 1.108393e+00 1.093668e+00 1.078423e+00 1.058516e+00 1.038035e+00 1.012939e+00 9.872286e-01 9.570052e-01 9.261362e-01 8.909193e-01 8.550311e-01 8.150264e-01 7.743236e-01 7.298057e-01 6.845559e-01 6.358648e-01 5.863952e-01 5.339314e-01 4.806245e-01 4.248445e-01 3.681356e-01 3.095475e-01 2.499223e-01 1.890822e-01 1.270762e-01 6.458543e-02 7.834507e-04 -6.271385e-02 -1.276773e-01 -1.914962e-01 -2.569373e-01 -3.203553e-01 -3.855422e-01 -4.478033e-01 -5.119603e-01 -5.722818e-01 -6.345959e-01 -6.921772e-01 -7.518086e-01 -8.058439e-01 -8.619402e-01 -9.116341e-01 -9.633479e-01 -1.007934e+00 -1.054444e+00 -1.093206e+00 -1.133742e+00 -1.166035e+00 -1.199900e+00 -1.225174e+00 -1.251773e+00 -1.269595e+00 -1.288455e+00 -1.298525e+00 -1.309316e+00 -1.311484e+00 -1.314038e+00 -1.308312e+00 -1.302629e+00 -1.289179e+00 -1.275431e+00 -1.254584e+00 -1.233115e+00 -1.205342e+00 -1.176651e+00 -1.142554e+00 -1.107277e+00 -1.067562e+00 -1.026446e+00 -9.818958e-01 -9.357689e-01 -8.872136e-01 -8.369512e-01 -7.852374e-01 -7.317291e-01 -6.776904e-01 -6.218090e-01 -5.662410e-01 -5.088153e-01 -4.524542e-01 -3.942474e-01 -3.377546e-01 -2.794493e-01 -2.234023e-01 -1.655911e-01 -1.104795e-01 -5.366288e-02 1.097972e-04 5.552119e-02 1.076320e-01 1.613101e-01 2.115071e-01 2.631962e-01 3.112869e-01 3.607912e-01 4.066295e-01 4.537994e-01 4.972722e-01 5.419904e-01 5.830041e-01 6.251723e-01 6.636406e-01 7.031669e-01 7.389999e-01 7.757881e-01 
8.128968e-01 8.469145e-01 8.772415e-01 9.082968e-01 9.356446e-01 9.635860e-01 9.877814e-01 1.012429e+00 1.033270e+00 1.054418e+00 1.071677e+00 1.089095e+00 1.102526e+00 1.115967e+00 1.125310e+00 1.134521e+00 1.139518e+00 1.144246e+00 1.144650e+00 1.144659e+00 1.140244e+00 1.135324e+00 1.125905e+00 1.115885e+00 1.101322e+00 1.086084e+00 1.066297e+00 1.045778e+00 1.020756e+00 9.949596e-01 9.647594e-01 9.337581e-01 8.985126e-01 8.624464e-01 8.223611e-01 7.814374e-01 7.367878e-01 6.912770e-01 6.424046e-01 5.926365e-01 5.399435e-01 4.863026e-01 4.302469e-01 3.731694e-01 3.142599e-01 2.542316e-01 1.930248e-01 1.305800e-01 6.767736e-02 3.399529e-03 -6.055455e-02 -1.260320e-01 -1.903519e-01 -2.563452e-01 -3.203062e-01 -3.860822e-01 -4.489244e-01 -5.137032e-01 -5.746375e-01 -6.375994e-01 -6.958164e-01 -7.561113e-01 -8.107935e-01 -8.675557e-01 -9.178933e-01 -9.702595e-01 -1.015469e+00 -1.062600e+00 -1.101948e+00 -1.143053e+00 -1.175874e+00 -1.210237e+00 -1.235965e+00 -1.262969e+00 -1.281152e+00 -1.300308e+00 -1.310633e+00 -1.321595e+00 -1.323900e+00 -1.326490e+00 -1.320776e+00 -1.314988e+00 -1.301424e+00 -1.287432e+00 -1.266348e+00 -1.244501e+00 -1.216380e+00 -1.187191e+00 -1.152649e+00 -1.116771e+00 -1.076534e+00 -1.034740e+00 -9.896139e-01 -9.427576e-01 -8.935966e-01 -8.425811e-01 -7.902563e-01 -7.359980e-01 -6.813661e-01 -6.247622e-01 -5.686381e-01 -5.105376e-01 -4.536728e-01 -3.948545e-01 -3.379213e-01 -2.790776e-01 -2.226590e-01 -1.643876e-01 -1.089744e-01 -5.177578e-02 2.231758e-03 5.795102e-02 1.102363e-01 1.641554e-01 2.144756e-01 2.663483e-01 3.145215e-01 3.641630e-01 4.100546e-01 4.573268e-01 5.008354e-01 5.456324e-01 5.866757e-01 6.289096e-01 6.674116e-01 7.070001e-01 7.428800e-01 7.797347e-01 
8.203404e-01 8.545442e-01 8.850747e-01 9.163475e-01 9.439210e-01 9.721126e-01 9.965537e-01 1.021483e+00 1.042585e+00 1.064040e+00 1.081567e+00 1.099311e+00 1.113007e+00 1.126783e+00 1.136377e+00 1.145918e+00 1.151137e+00 1.156177e+00 1.156760e+00 1.157048e+00 1.152757e+00 1.148070e+00 1.138705e+00 1.128859e+00 1.114272e+00 1.099136e+00 1.079240e+00 1.058745e+00 1.033522e+00 1.007667e+00 9.771753e-01 9.460294e-01 9.104033e-01 8.741078e-01 8.335570e-01 7.923216e-01 7.471280e-01 7.012270e-01 6.517391e-01 6.015063e-01 5.481337e-01 4.939575e-01 4.371650e-01 3.794848e-01 3.197875e-01 2.590914e-01 1.970512e-01 1.338753e-01 7.009857e-02 5.028053e-03 -5.983580e-02 -1.261651e-01 -1.914247e-01 -2.583249e-01 -3.232483e-01 -3.899794e-01 -4.537973e-01 -5.195694e-01 -5.814800e-01 -6.454593e-01 -7.046374e-01 -7.659558e-01 -8.215646e-01 -8.793343e-01 -9.305418e-01 -9.838740e-01 -1.029873e+00 -1.077900e+00 -1.117930e+00 -1.159834e+00 -1.193207e+00 -1.228242e+00 -1.254367e+00 -1.281892e+00 -1.300299e+00 -1.319802e+00 -1.330164e+00 -1.341285e+00 -1.343435e+00 -1.345984e+00 -1.339924e+00 -1.333897e+00 -1.319806e+00 -1.305385e+00 -1.283609e+00 -1.261160e+00 -1.232208e+00 -1.202269e+00 -1.166786e+00 -1.130043e+00 -1.088790e+00 -1.046049e+00 -9.998676e-01 -9.520206e-01 -9.017999e-01 -8.497871e-01 -7.964300e-01 -7.412014e-01 -6.855919e-01 -6.280732e-01 -5.710477e-01 -5.121100e-01 -4.544351e-01 -3.948722e-01 -3.372284e-01 -2.777405e-01 -2.207132e-01 -1.618991e-01 -1.059755e-01 -4.833119e-02 6.096078e-03 6.217303e-02 1.147986e-01 1.689997e-01 2.195940e-01 2.716877e-01 3.200833e-01 3.699001e-01 4.159774e-01 4.633948e-01 5.070664e-01 5.519935e-01 5.931900e-01 6.355526e-01 6.742094e-01 7.139369e-01 7.499820e-01 7.869958e-01 
8.271797e-01 8.615212e-01 8.922135e-01 9.236521e-01 9.514315e-01 9.798199e-01 1.004512e+00 1.029668e+00 1.051063e+00 1.072771e+00 1.090628e+00 1.108642e+00 1.122694e+00 1.136748e+00 1.146711e+00 1.156524e+00 1.162112e+00 1.167405e+00 1.168339e+00 1.168845e+00 1.164871e+00 1.160353e+00 1.151257e+00 1.141518e+00 1.127136e+00 1.112037e+00 1.092271e+00 1.071735e+00 1.046559e+00 1.020581e+00 9.900504e-01 9.587003e-01 9.229462e-01 8.863677e-01 8.456018e-01 8.040091e-01 7.585162e-01 7.121889e-01 6.623218e-01 6.115984e-01 5.577710e-01 5.030438e-01 4.457245e-01 3.874347e-01 3.271413e-01 2.657773e-01 2.030733e-01 1.391699e-01 7.466267e-02 8.802921e-03 -5.685722e-02 -1.240390e-01 -1.901590e-01 -2.579750e-01 -3.238191e-01 -3.915264e-01 -4.563185e-01 -5.231205e-01 -5.860483e-01 -6.510992e-01 -7.113226e-01 -7.737374e-01 -8.304000e-01 -8.892685e-01 -9.415146e-01 -9.959212e-01 -1.042916e+00 -1.091963e+00 -1.132916e+00 -1.175751e+00 -1.209945e+00 -1.245790e+00 -1.272603e+00 -1.300784e+00 -1.319719e+00 -1.339696e+00 -1.350403e+00 -1.361792e+00 -1.364087e+00 -1.366682e+00 -1.360558e+00 -1.354345e+00 -1.339981e+00 -1.325144e+00 -1.302896e+00 -1.279814e+00 -1.250208e+00 -1.219441e+00 -1.183151e+00 -1.145418e+00 -1.103238e+00 -1.059385e+00 -1.012195e+00 -9.631596e-01 -9.118909e-01 -8.586578e-01 -8.042539e-01 -7.478176e-01 -6.911993e-01 -6.325247e-01 -5.745598e-01 -5.145502e-01 -4.560293e-01 -3.955021e-01 -3.371214e-01 -2.767916e-01 -2.191441e-01 -1.596166e-01 -1.031896e-01 -4.495863e-02 9.861717e-03 6.640681e-02 1.193269e-01 1.738908e-01 2.246965e-01 2.770641e-01 3.256060e-01 3.756263e-01 4.218036e-01 4.693732e-01 5.131173e-01 5.581638e-01 5.994235e-01 6.418900e-01 6.806166e-01 7.204478e-01 7.565833e-01 7.937130e-01 
8.374224e-01 8.720103e-01 9.029804e-01 9.347125e-01 9.628087e-01 9.915399e-01 1.016585e+00 1.042131e+00 1.063910e+00 1.086048e+00 1.104308e+00 1.122782e+00 1.137240e+00 1.151768e+00 1.162124e+00 1.172406e+00 1.178352e+00 1.184090e+00 1.185327e+00 1.186231e+00 1.182484e+00 1.178297e+00 1.169331e+00 1.159837e+00 1.145475e+00 1.130518e+00 1.110649e+00 1.090142e+00 1.064735e+00 1.038666e+00 1.007772e+00 9.762080e-01 9.399628e-01 9.030502e-01 8.616716e-01 8.196292e-01 7.734112e-01 7.265249e-01 6.758307e-01 6.244460e-01 5.696998e-01 5.142147e-01 4.558943e-01 3.967545e-01 3.353859e-01 2.730822e-01 2.092354e-01 1.443040e-01 7.859182e-02 1.161657e-02 -5.530546e-02 -1.236887e-01 -1.911212e-01 -2.602207e-01 -3.274194e-01 -3.964844e-01 -4.626611e-01 -5.308820e-01 -5.952076e-01 -6.617198e-01 -7.233319e-01 -7.872247e-01 -8.452395e-01 -9.055709e-01 -9.591000e-01 -1.014917e+00 -1.063089e+00 -1.113453e+00 -1.155440e+00 -1.199455e+00 -1.234499e+00 -1.271345e+00 -1.298791e+00 -1.327754e+00 -1.347074e+00 -1.367579e+00 -1.378402e+00 -1.390040e+00 -1.392169e+00 -1.394720e+00 -1.388148e+00 -1.381596e+00 -1.366514e+00 -1.351053e+00 -1.327842e+00 -1.303876e+00 -1.273098e+00 -1.241224e+00 -1.203597e+00 -1.164580e+00 -1.120948e+00 -1.075689e+00 -1.026987e+00 -9.764801e-01 -9.236912e-01 -8.689774e-01 -8.130932e-01 -7.552185e-01 -6.972014e-01 -6.371739e-01 -5.779242e-01 -5.166808e-01 -4.570115e-01 -3.953918e-01 -3.360116e-01 -2.747421e-01 -2.162469e-01 -1.559338e-01 -9.880560e-02 -3.993584e-02 1.545154e-02 7.250258e-02 1.258726e-01 1.808285e-01 2.319875e-01 2.846551e-01 3.334756e-01 3.837275e-01 4.301310e-01 4.778870e-01 5.218267e-01 5.670368e-01 6.084808e-01 6.511085e-01 6.900256e-01 7.300331e-01 7.663791e-01 8.037148e-01 
8.470257e-01 8.818058e-01 9.130019e-01 9.449715e-01 9.733565e-01 1.002374e+00 1.027772e+00 1.053652e+00 1.075843e+00 1.098356e+00 1.117077e+00 1.135956e+00 1.150912e+00 1.165858e+00 1.176729e+00 1.187425e+00 1.193881e+00 1.200005e+00 1.201723e+00 1.202965e+00 1.199647e+00 1.195727e+00 1.187115e+00 1.177799e+00 1.163695e+00 1.148812e+00 1.129091e+00 1.108543e+00 1.083162e+00 1.056932e+00 1.025938e+00 9.940952e-01 9.576214e-01 9.203163e-01 8.785848e-01 8.360435e-01 7.893547e-01 7.418718e-01 6.905964e-01 6.385252e-01 5.830950e-01 5.268397e-01 4.677389e-01 4.077482e-01 3.455072e-01 2.822721e-01 2.174636e-01 1.515178e-01 8.475560e-02 1.667934e-02 -5.138030e-02 -1.209546e-01 -1.896106e-01 -2.599923e-01 -3.284960e-01 -3.989315e-01 -4.664860e-01 -5.361566e-01 -6.019186e-01 -6.699434e-01 -7.330298e-01 -7.984742e-01 -8.579734e-01 -9.198635e-01 -9.748533e-01 -1.032197e+00 -1.081767e+00 -1.133582e+00 -1.176861e+00 -1.222203e+00 -1.258389e+00 -1.296391e+00 -1.324785e+00 -1.354686e+00 -1.374722e+00 -1.395905e+00 -1.407179e+00 -1.419199e+00 -1.421490e+00 -1.424103e+00 -1.417393e+00 -1.410571e+00 -1.395049e+00 -1.378989e+00 -1.355051e+00 -1.330174e+00 -1.298409e+00 -1.265346e+00 -1.226513e+00 -1.186078e+00 -1.141074e+00 -1.094226e+00 -1.044042e+00 -9.918402e-01 -9.375205e-01 -8.810752e-01 -8.236711e-01 -7.640917e-01 -7.046191e-01 -6.429702e-01 -5.823739e-01 -5.196377e-01 -4.587640e-01 -3.958127e-01 -3.353914e-01 -2.729705e-01 -2.136065e-01 -1.523285e-01 -9.450175e-02 -3.484889e-02 2.107806e-02 7.874434e-02 1.325133e-01 1.879373e-01 2.393781e-01 2.923914e-01 3.414030e-01 3.919056e-01 4.384369e-01 4.863764e-01 5.304075e-01 5.757605e-01 6.172850e-01 6.600397e-01 6.990488e-01 7.391887e-01 7.756577e-01 8.131490e-01 
8.599904e-01 8.950705e-01 9.266165e-01 9.589532e-01 9.877484e-01 1.017204e+00 1.043070e+00 1.069456e+00 1.092163e+00 1.115241e+00 1.134514e+00 1.154001e+00 1.169522e+00 1.185100e+00 1.196525e+00 1.207851e+00 1.214823e+00 1.221546e+00 1.223711e+00 1.225492e+00 1.222521e+00 1.219050e+00 1.210661e+00 1.201677e+00 1.187648e+00 1.172959e+00 1.153149e+00 1.132641e+00 1.106998e+00 1.080647e+00 1.049215e+00 1.017088e+00 9.800060e-01 9.422571e-01 8.997567e-01 8.566211e-01 8.090158e-01 7.607985e-01 7.084739e-01 6.555388e-01 5.989410e-01 5.417008e-01 4.813267e-01 4.202359e-01 3.566259e-01 2.921779e-01 2.259117e-01 1.586402e-01 9.033682e-02 2.082055e-02 -4.885937e-02 -1.199888e-01 -1.903386e-01 -2.623883e-01 -3.326509e-01 -4.048596e-01 -4.742245e-01 -5.457588e-01 -6.133623e-01 -6.833177e-01 -7.482483e-01 -8.156570e-01 -8.769668e-01 -9.408125e-01 -9.975349e-01 -1.056775e+00 -1.107950e+00 -1.161545e+00 -1.206246e+00 -1.253192e+00 -1.290565e+00 -1.329934e+00 -1.359229e+00 -1.390204e+00 -1.410810e+00 -1.432725e+00 -1.444205e+00 -1.456581e+00 -1.458696e+00 -1.461263e+00 -1.453991e+00 -1.446718e+00 -1.430264e+00 -1.413360e+00 -1.388153e+00 -1.362072e+00 -1.328750e+00 -1.294175e+00 -1.253558e+00 -1.211367e+00 -1.164422e+00 -1.115652e+00 -1.063446e+00 -1.009236e+00 -9.528875e-01 -8.944268e-01 -8.350533e-01 -7.735237e-01 -7.121987e-01 -6.487253e-01 -5.864382e-01 -5.220489e-01 -4.596763e-01 -3.952731e-01 -3.335605e-01 -2.699030e-01 -2.094578e-01 -1.471586e-01 -8.845167e-02 -2.798098e-02 2.864324e-02 8.694483e-02 1.412531e-01 1.971571e-01 2.490081e-01 3.023774e-01 3.517013e-01 4.024683e-01 4.492450e-01 4.973897e-01 5.416292e-01 5.871589e-01 6.288818e-01 6.718124e-01 7.110337e-01 7.513729e-01 7.880872e-01 8.258207e-01 
8.722643e-01 9.075824e-01 9.394127e-01 9.720548e-01 1.001221e+00 1.031054e+00 1.057379e+00 1.084212e+00 1.107460e+00 1.131046e+00 1.150928e+00 1.170970e+00 1.187149e+00 1.203305e+00 1.215412e+00 1.227313e+00 1.234959e+00 1.242225e+00 1.245026e+00 1.247285e+00 1.244879e+00 1.241790e+00 1.233862e+00 1.225140e+00 1.211440e+00 1.196871e+00 1.177238e+00 1.156693e+00 1.131061e+00 1.104512e+00 1.072918e+00 1.040433e+00 1.003019e+00 9.647602e-01 9.217628e-01 8.779783e-01 8.297229e-01 7.807307e-01 7.276153e-01 6.737919e-01 6.162746e-01 5.580417e-01 4.966291e-01 4.344459e-01 3.696847e-01 3.040442e-01 2.365171e-01 1.679481e-01 9.827444e-02 2.734874e-02 -4.381184e-02 -1.164697e-01 -1.884106e-01 -2.621120e-01 -3.340727e-01 -4.080550e-01 -4.792156e-01 -5.526355e-01 -6.221155e-01 -6.940485e-01 -7.609100e-01 -8.303572e-01 -8.936161e-01 -9.595190e-01 -1.018164e+00 -1.079428e+00 -1.132444e+00 -1.187970e+00 -1.234375e+00 -1.283094e+00 -1.321972e+00 -1.362890e+00 -1.393433e+00 -1.425669e+00 -1.447212e+00 -1.470043e+00 -1.482104e+00 -1.495000e+00 -1.497308e+00 -1.499967e+00 -1.492481e+00 -1.484852e+00 -1.467776e+00 -1.450071e+00 -1.423854e+00 -1.396551e+00 -1.361869e+00 -1.325696e+00 -1.283425e+00 -1.239328e+00 -1.190506e+00 -1.139603e+00 -1.085380e+00 -1.028903e+00 -9.704814e-01 -9.097138e-01 -8.482936e-01 -7.845060e-01 -7.212341e-01 -6.556284e-01 -5.915542e-01 -5.252189e-01 -4.612625e-01 -3.951412e-01 -3.320745e-01 -2.669497e-01 -2.053890e-01 -1.418784e-01 -8.228899e-02 -2.085267e-02 3.643914e-02 9.548246e-02 1.502707e-01 2.067229e-01 2.588999e-01 3.126595e-01 3.621918e-01 4.132290e-01 4.601343e-01 5.084670e-01 5.527914e-01 5.984631e-01 6.402610e-01 6.833202e-01 7.226365e-01 7.631193e-01 7.999738e-01 8.378894e-01 
8.878364e-01 9.234988e-01 9.557476e-01 9.888269e-01 1.018499e+00 1.048867e+00 1.075783e+00 1.103247e+00 1.127160e+00 1.151460e+00 1.172062e+00 1.192882e+00 1.209811e+00 1.226782e+00 1.239634e+00 1.252354e+00 1.260703e+00 1.268753e+00 1.272173e+00 1.275140e+00 1.273231e+00 1.270736e+00 1.263144e+00 1.254863e+00 1.241310e+00 1.227001e+00 1.207302e+00 1.186818e+00 1.160895e+00 1.134197e+00 1.102086e+00 1.069241e+00 1.031091e+00 9.922710e-01 9.483351e-01 9.038010e-01 8.544230e-01 8.045105e-01 7.501094e-01 6.952107e-01 6.362646e-01 5.768140e-01 5.138460e-01 4.503100e-01 3.838786e-01 3.167521e-01 2.474473e-01 1.772562e-01 1.057007e-01 3.301119e-02 -4.013355e-02 -1.147025e-01 -1.887271e-01 -2.644886e-01 -3.386262e-01 -4.148123e-01 -4.882295e-01 -5.639817e-01 -6.357750e-01 -7.101414e-01 -7.793390e-01 -8.512795e-01 -9.168514e-01 -9.852534e-01 -1.046131e+00 -1.109833e+00 -1.164936e+00 -1.222764e+00 -1.271036e+00 -1.321843e+00 -1.362295e+00 -1.405003e+00 -1.436756e+00 -1.470408e+00 -1.492738e+00 -1.516545e+00 -1.528921e+00 -1.542301e+00 -1.544424e+00 -1.547041e+00 -1.538864e+00 -1.530658e+00 -1.512404e+00 -1.493602e+00 -1.465761e+00 -1.436885e+00 -1.400197e+00 -1.362041e+00 -1.317468e+00 -1.271068e+00 -1.219743e+00 -1.166320e+00 -1.109493e+00 -1.050391e+00 -9.893636e-01 -9.259735e-01 -8.620372e-01 -7.957272e-01 -7.301048e-01 -6.621572e-01 -5.959560e-01 -5.275185e-01 -4.616967e-01 -3.937499e-01 -3.290974e-01 -2.624392e-01 -1.995728e-01 -1.348169e-01 -7.418667e-02 -1.177435e-02 4.632015e-02 1.061009e-01 1.614887e-01 2.184780e-01 2.710913e-01 3.252299e-01 3.750771e-01 4.263792e-01 4.735193e-01 5.220455e-01 5.665640e-01 6.123976e-01 6.543845e-01 6.976102e-01 7.371411e-01 7.778262e-01 8.149464e-01 8.531256e-01 
9.026460e-01 9.385809e-01 9.711645e-01 1.004612e+00 1.034737e+00 1.065576e+00 1.093062e+00 1.121096e+00 1.145690e+00 1.170649e+00 1.192027e+00 1.213572e+00 1.231344e+00 1.249080e+00 1.262810e+00 1.276298e+00 1.285521e+00 1.294299e+00 1.298545e+00 1.302160e+00 1.300981e+00 1.299012e+00 1.292014e+00 1.284101e+00 1.270969e+00 1.256840e+00 1.237360e+00 1.216850e+00 1.190928e+00 1.163992e+00 1.131658e+00 1.098368e+00 1.059774e+00 1.020315e+00 9.757272e-01 9.303806e-01 8.801605e-01 8.292825e-01 7.738690e-01 7.178709e-01 6.577600e-01 5.970900e-01 5.328188e-01 4.679494e-01 4.000850e-01 3.315092e-01 2.606442e-01 1.888795e-01 1.156344e-01 4.123395e-02 -3.373456e-02 -1.101652e-01 -1.861519e-01 -2.639362e-01 -3.401740e-01 -4.185466e-01 -4.941946e-01 -5.722883e-01 -6.464245e-01 -7.232645e-01 -7.948857e-01 -8.693938e-01 -9.374249e-01 -1.008435e+00 -1.071748e+00 -1.138031e+00 -1.195479e+00 -1.255782e+00 -1.306230e+00 -1.359320e+00 -1.401701e+00 -1.446414e+00 -1.479769e+00 -1.515063e+00 -1.538597e+00 -1.563605e+00 -1.576726e+00 -1.590801e+00 -1.593164e+00 -1.595921e+00 -1.587455e+00 -1.578805e+00 -1.559730e+00 -1.539901e+00 -1.510729e+00 -1.480272e+00 -1.441794e+00 -1.401564e+00 -1.354817e+00 -1.305939e+00 -1.252152e+00 -1.195961e+00 -1.136496e+00 -1.074460e+00 -1.010735e+00 -9.443741e-01 -8.777911e-01 -8.085926e-01 -7.404721e-01 -6.698207e-01 -6.013483e-01 -5.304697e-01 -4.626587e-01 -3.925848e-01 -3.262558e-01 -2.578094e-01 -1.935867e-01 -1.273829e-01 -6.570439e-02 -2.165870e-03 5.669694e-02 1.173155e-01 1.732310e-01 2.308131e-01 2.837596e-01 3.382951e-01 3.883307e-01 4.398845e-01 4.871177e-01 5.358004e-01 5.803637e-01 6.263055e-01 6.683322e-01 7.116597e-01 7.512633e-01 7.920800e-01 8.293377e-01 8.677078e-01 
9.206624e-01 9.569733e-01 9.900392e-01 1.023989e+00 1.054719e+00 1.086193e+00 1.114405e+00 1.143205e+00 1.168632e+00 1.194473e+00 1.216767e+00 1.239287e+00 1.258025e+00 1.276794e+00 1.291497e+00 1.306031e+00 1.316184e+00 1.325972e+00 1.331050e+00 1.335584e+00 1.335087e+00 1.333891e+00 1.327374e+00 1.320041e+00 1.307148e+00 1.293367e+00 1.273856e+00 1.253436e+00 1.227197e+00 1.200082e+00 1.167145e+00 1.133411e+00 1.093940e+00 1.053787e+00 1.008072e+00 9.618036e-01 9.102338e-01 8.582333e-01 8.012779e-01 7.439805e-01 6.821631e-01 6.200350e-01 5.539144e-01 4.874376e-01 4.175948e-01 3.472628e-01 2.742965e-01 2.006188e-01 1.251494e-01 4.866655e-02 -2.865271e-02 -1.073487e-01 -1.858158e-01 -2.660575e-01 -3.449037e-01 -4.259260e-01 -5.042998e-01 -5.852220e-01 -6.621777e-01 -7.419949e-01 -8.164902e-01 -8.940751e-01 -9.649789e-01 -1.039097e+00 -1.105210e+00 -1.174550e+00 -1.234637e+00 -1.297847e+00 -1.350680e+00 -1.406421e+00 -1.450832e+00 -1.497835e+00 -1.532772e+00 -1.569892e+00 -1.594476e+00 -1.620755e+00 -1.634328e+00 -1.649047e+00 -1.651223e+00 -1.653951e+00 -1.644647e+00 -1.635279e+00 -1.614735e+00 -1.593515e+00 -1.562299e+00 -1.529831e+00 -1.488818e+00 -1.446046e+00 -1.396383e+00 -1.344550e+00 -1.287595e+00 -1.228177e+00 -1.165426e+00 -1.100040e+00 -1.033042e+00 -9.633541e-01 -8.936321e-01 -8.212584e-01 -7.502312e-01 -6.766609e-01 -6.055872e-01 -5.321203e-01 -4.620590e-01 -3.897706e-01 -3.215611e-01 -2.512879e-01 -1.855498e-01 -1.178960e-01 -5.504262e-02 9.599501e-03 6.933550e-02 1.307554e-01 1.872909e-01 2.454247e-01 2.987917e-01 3.536858e-01 4.039974e-01 4.557739e-01 5.031921e-01 5.520164e-01 5.967240e-01 6.427769e-01 6.849520e-01 7.284055e-01 7.682007e-01 8.091973e-01 8.467218e-01 8.853577e-01 
9.378186e-01 9.744220e-01 1.007864e+00 1.042240e+00 1.073501e+00 1.105542e+00 1.134444e+00 1.163948e+00 1.190215e+00 1.216884e+00 1.240145e+00 1.263591e+00 1.283393e+00 1.303148e+00 1.318967e+00 1.334500e+00 1.345769e+00 1.356517e+00 1.362653e+00 1.368047e+00 1.368490e+00 1.368000e+00 1.362247e+00 1.355415e+00 1.343062e+00 1.329539e+00 1.310307e+00 1.289879e+00 1.263637e+00 1.236240e+00 1.203013e+00 1.168733e+00 1.128695e+00 1.087754e+00 1.041214e+00 9.939488e-01 9.413257e-01 8.881499e-01 8.299423e-01 7.713209e-01 7.080794e-01 6.444985e-01 5.768018e-01 5.087521e-01 4.371919e-01 3.651623e-01 2.903386e-01 2.148238e-01 1.373501e-01 5.886838e-02 -2.061370e-02 -1.014946e-01 -1.822948e-01 -2.649279e-01 -3.462844e-01 -4.299148e-01 -5.109729e-01 -5.947153e-01 -6.745116e-01 -7.573367e-01 -8.347934e-01 -9.155285e-01 -9.894598e-01 -1.066804e+00 -1.135937e+00 -1.208492e+00 -1.271502e+00 -1.337816e+00 -1.393378e+00 -1.452001e+00 -1.498842e+00 -1.548391e+00 -1.585357e+00 -1.624578e+00 -1.650693e+00 -1.678525e+00 -1.693052e+00 -1.708689e+00 -1.711180e+00 -1.714122e+00 -1.704457e+00 -1.694558e+00 -1.672969e+00 -1.650468e+00 -1.617549e+00 -1.583081e+00 -1.539771e+00 -1.494359e+00 -1.441904e+00 -1.386910e+00 -1.326798e+00 -1.263848e+00 -1.197724e+00 -1.128608e+00 -1.058178e+00 -9.847342e-01 -9.116676e-01 -8.356732e-01 -7.615183e-01 -6.845948e-01 -6.107108e-01 -5.342565e-01 -4.617698e-01 -3.869204e-01 -3.167044e-01 -2.443211e-01 -1.769981e-01 -1.076784e-01 -4.363903e-02 2.225651e-02 8.282217e-02 1.451326e-01 2.021971e-01 2.609193e-01 3.145776e-01 3.698242e-01 4.202546e-01 4.722144e-01 5.196429e-01 5.685456e-01 6.132146e-01 6.593000e-01 7.014417e-01 7.449340e-01 7.847478e-01 8.258344e-01 8.634687e-01 9.022821e-01 
9.580533e-01 9.950486e-01 1.029029e+00 1.063966e+00 1.095934e+00 1.128714e+00 1.158488e+00 1.188907e+00 1.216197e+00 1.243941e+00 1.268348e+00 1.293001e+00 1.314028e+00 1.335076e+00 1.352147e+00 1.369005e+00 1.381486e+00 1.393522e+00 1.400759e+00 1.407335e+00 1.408695e+00 1.409206e+00 1.404121e+00 1.398046e+00 1.386055e+00 1.372992e+00 1.353778e+00 1.333481e+00 1.306896e+00 1.279288e+00 1.245358e+00 1.210535e+00 1.169456e+00 1.127666e+00 1.079781e+00 1.031396e+00 9.771655e-01 9.226411e-01 8.626077e-01 8.024448e-01 7.371974e-01 6.719085e-01 6.020543e-01 5.321423e-01 4.582892e-01 3.842407e-01 3.069922e-01 2.292861e-01 1.492492e-01 6.837976e-02 -1.381656e-02 -9.730799e-02 -1.809868e-01 -2.664749e-01 -3.508821e-01 -4.376218e-01 -5.218985e-01 -6.089960e-01 -6.921574e-01 -7.785525e-01 -8.594776e-01 -9.439407e-01 -1.021377e+00 -1.102524e+00 -1.175109e+00 -1.251436e+00 -1.317736e+00 -1.387665e+00 -1.446228e+00 -1.508175e+00 -1.557598e+00 -1.610039e+00 -1.649041e+00 -1.690586e+00 -1.718080e+00 -1.747549e+00 -1.762706e+00 -1.779195e+00 -1.781508e+00 -1.784452e+00 -1.773780e+00 -1.763004e+00 -1.739604e+00 -1.715363e+00 -1.679895e+00 -1.642890e+00 -1.596405e+00 -1.547772e+00 -1.491661e+00 -1.432920e+00 -1.368840e+00 -1.301806e+00 -1.231581e+00 -1.158245e+00 -1.083756e+00 -1.006151e+00 -9.292239e-01 -8.492971e-01 -7.716058e-01 -6.911120e-01 -6.141065e-01 -5.345345e-01 -4.593935e-01 -3.819264e-01 -3.095400e-01 -2.350473e-01 -1.660235e-01 -9.507917e-02 -2.976977e-02 3.731285e-02 9.877379e-02 1.618968e-01 2.195482e-01 2.787800e-01 3.327880e-01 3.883157e-01 4.389296e-01 4.910151e-01 5.385288e-01 5.874705e-01 6.321889e-01 6.782892e-01 7.205000e-01 7.640387e-01 8.039891e-01 8.452012e-01 8.830789e-01 9.221359e-01 
9.772973e-01 1.014587e+00 1.048972e+00 1.084383e+00 1.116962e+00 1.150407e+00 1.181000e+00 1.212272e+00 1.240580e+00 1.269349e+00 1.294948e+00 1.320763e+00 1.343118e+00 1.365421e+00 1.383897e+00 1.402042e+00 1.415939e+00 1.429222e+00 1.437810e+00 1.445516e+00 1.448080e+00 1.449528e+00 1.445425e+00 1.440024e+00 1.428729e+00 1.416026e+00 1.397173e+00 1.376890e+00 1.350304e+00 1.322361e+00 1.288065e+00 1.252573e+00 1.210781e+00 1.168025e+00 1.119114e+00 1.069514e+00 1.013989e+00 9.580505e-01 8.964985e-01 8.347664e-01 7.678157e-01 7.008324e-01 6.291183e-01 5.573978e-01 4.815417e-01 4.055622e-01 3.261658e-01 2.463812e-01 1.640367e-01 8.090441e-02 -3.782116e-03 -8.976156e-02 -1.761377e-01 -2.643755e-01 -3.517062e-01 -4.414807e-01 -5.289130e-01 -6.193335e-01 -7.058689e-01 -7.958516e-01 -8.803308e-01 -9.685934e-01 -1.049699e+00 -1.134775e+00 -1.211053e+00 -1.291330e+00 -1.361232e+00 -1.435005e+00 -1.496953e+00 -1.562493e+00 -1.614950e+00 -1.670590e+00 -1.712141e+00 -1.756348e+00 -1.785782e+00 -1.817245e+00 -1.833627e+00 -1.851325e+00 -1.854065e+00 -1.857339e+00 -1.846242e+00 -1.834855e+00 -1.810159e+00 -1.784347e+00 -1.746741e+00 -1.707240e+00 -1.657852e+00 -1.605893e+00 -1.546243e+00 -1.483504e+00 -1.415422e+00 -1.343922e+00 -1.269433e+00 -1.191398e+00 -1.112592e+00 -1.030288e+00 -9.491888e-01 -8.647759e-01 -7.832270e-01 -6.986325e-01 -6.182102e-01 -5.350440e-01 -4.570078e-01 -3.765212e-01 -3.017953e-01 -2.248775e-01 -1.540631e-01 -8.126677e-02 -1.467610e-02 5.373750e-02 1.160338e-01 1.800392e-01 2.381581e-01 2.979078e-01 3.520997e-01 4.078687e-01 4.584679e-01 5.106043e-01 5.579858e-01 6.068686e-01 6.514113e-01 6.974159e-01 7.394732e-01 7.829431e-01 8.228189e-01 8.640429e-01 9.019720e-01 9.411655e-01 