# vtk DataFile Version 2.0
Comment goes here
ASCII

DATASET STRUCTURED_POINTS
FIELD FieldData 1
TIME 1 1 double
0.14500000
DIMENSIONS    128   128   1

ORIGIN    0.000   0.000   0.000
SPACING   0.039062 0.039062   1.000

POINT_DATA   16384
SCALARS uX double
LOOKUP_TABLE default

-2.018917e-01 -1.813719e-01 -1.665111e-01 -1.451094e-01 -1.291451e-01 -1.070883e-01 -9.021535e-02 -6.773992e-02 -5.016440e-02 -2.751469e-02 -9.451035e-03 1.312312e-02 3.145470e-02 5.370026e-02 7.207682e-02 9.374036e-02 1.119395e-01 1.327704e-01 1.505741e-01 1.703282e-01 1.875263e-01 2.059700e-01 2.223644e-01 2.392785e-01 2.546871e-01 2.698711e-01 2.841309e-01 2.974064e-01 3.103764e-01 3.215905e-01 3.331537e-01 3.421813e-01 3.522454e-01 3.589913e-01 3.674887e-01 3.718885e-01 3.787754e-01 3.807957e-01 3.860504e-01 3.856887e-01 3.893088e-01 3.865930e-01 3.885930e-01 3.835799e-01 3.839881e-01 3.767623e-01 3.756185e-01 3.662906e-01 3.636436e-01 3.523480e-01 3.482542e-01 3.351471e-01 3.296694e-01 3.149262e-01 3.081337e-01 2.919460e-01 2.839142e-01 2.664869e-01 2.572977e-01 2.388453e-01 2.285879e-01 2.093307e-01 1.981016e-01 1.782616e-01 1.661644e-01 1.459613e-01 1.331061e-01 1.127531e-01 9.925499e-02 7.895452e-02 6.493184e-02 4.487213e-02 3.044388e-02 1.079589e-02 -3.920773e-03 -2.300559e-02 -3.789788e-02 -5.628868e-02 -7.125017e-02 -8.883659e-02 -1.037684e-01 -1.204591e-01 -1.352701e-01 -1.509900e-01 -1.655956e-01 -1.802819e-01 -1.946015e-01 -2.081990e-01 -2.221531e-01 -2.346088e-01 -2.481147e-01 -2.593728e-01 -2.723405e-01 -2.823382e-01 -2.946672e-01 -3.033316e-01 -3.149083e-01 -3.221554e-01 -3.328527e-01 -3.385881e-01 -3.482667e-01 -3.523893e-01 -3.609011e-01 -3.633074e-01 -3.705012e-01 -3.710921e-01 -3.768201e-01 -3.755075e-01 -3.796325e-01 -3.763467e-01 -3.787498e-01 -3.734452e-01 -3.740316e-01 -3.666916e-01 -3.653959e-01 -3.560358e-01 -3.528253e-01 -3.414933e-01 -3.363689e-01 -3.231455e-01 -3.161421e-01 -3.011382e-01 -2.923223e-01 -2.756761e-01 -2.651437e-01 -2.470176e-01 -2.348909e-01 -2.154677e-01 
-1.992791e-01 -1.787347e-01 -1.639707e-01 -1.425611e-01 -1.266970e-01 -1.046467e-01 -8.787552e-02 -6.541894e-02 -4.794497e-02 -2.532438e-02 -7.360644e-03 1.517580e-02 3.341023e-02 5.561090e-02 7.389390e-02 9.550639e-02 1.136161e-01 1.343905e-01 1.521090e-01 1.718015e-01 1.889189e-01 2.072958e-01 2.236138e-01 2.404559e-01 2.557920e-01 2.708984e-01 2.850894e-01 2.982812e-01 3.111859e-01 3.223096e-01 3.338107e-01 3.427408e-01 3.527459e-01 3.593868e-01 3.678285e-01 3.721153e-01 3.789499e-01 3.808491e-01 3.860549e-01 3.855642e-01 3.891391e-01 3.862864e-01 3.882452e-01 3.830877e-01 3.834588e-01 3.760816e-01 3.749049e-01 3.654191e-01 3.627435e-01 3.512844e-01 3.471661e-01 3.338908e-01 3.283926e-01 3.134776e-01 3.066684e-01 2.903065e-01 2.822616e-01 2.646592e-01 2.554606e-01 2.368338e-01 2.265707e-01 2.071418e-01 1.959110e-01 1.759044e-01 1.638102e-01 1.434481e-01 1.306015e-01 1.100998e-01 9.661710e-02 7.618140e-02 6.218237e-02 4.200416e-02 2.760932e-02 7.862909e-03 -6.809087e-03 -2.596894e-02 -4.080391e-02 -5.924324e-02 -7.413369e-02 -9.173940e-02 -1.065858e-01 -1.232644e-01 -1.379755e-01 -1.536503e-01 -1.681421e-01 -1.827497e-01 -1.969430e-01 -2.104284e-01 -2.242455e-01 -2.365570e-01 -2.499178e-01 -2.610018e-01 -2.738195e-01 -2.836163e-01 -2.957938e-01 -3.042345e-01 -3.156618e-01 -3.226669e-01 -3.332205e-01 -3.387010e-01 -3.482451e-01 -3.521049e-01 -3.604948e-01 -3.626360e-01 -3.697230e-01 -3.700516e-01 -3.756901e-01 -3.741233e-01 -3.781779e-01 -3.746503e-01 -3.770029e-01 -3.714730e-01 -3.720293e-01 -3.644837e-01 -3.631782e-01 -3.536346e-01 -3.504338e-01 -3.389420e-01 -3.338458e-01 -3.204871e-01 -3.135286e-01 -2.984139e-01 -2.896578e-01 -2.729248e-01 -2.624649e-01 -2.442745e-01 -2.322307e-01 -2.127642e-01 
-2.030830e-01 -1.824557e-01 -1.675044e-01 -1.459893e-01 -1.299275e-01 -1.077524e-01 -9.077645e-02 -6.817888e-02 -5.049613e-02 -2.772148e-02 -9.547740e-03 1.315294e-02 3.159597e-02 5.396826e-02 7.245599e-02 9.424484e-02 1.125531e-01 1.335061e-01 1.514147e-01 1.712857e-01 1.885828e-01 2.071361e-01 2.236216e-01 2.406360e-01 2.561261e-01 2.713992e-01 2.857295e-01 2.990815e-01 3.121101e-01 3.233867e-01 3.349960e-01 3.440713e-01 3.541690e-01 3.609473e-01 3.694665e-01 3.738830e-01 3.807808e-01 3.828023e-01 3.880580e-01 3.876824e-01 3.912952e-01 3.885509e-01 3.905366e-01 3.854812e-01 3.858694e-01 3.785883e-01 3.774199e-01 3.680247e-01 3.653493e-01 3.539756e-01 3.498501e-01 3.366553e-01 3.311428e-01 3.163038e-01 3.094734e-01 2.931833e-01 2.851103e-01 2.675758e-01 2.583420e-01 2.397794e-01 2.294737e-01 2.101054e-01 1.988244e-01 1.788746e-01 1.667223e-01 1.464127e-01 1.334999e-01 1.130456e-01 9.948839e-02 7.909378e-02 6.501157e-02 4.486638e-02 3.037953e-02 1.065579e-02 -4.117308e-03 -2.326758e-02 -3.821312e-02 -5.665913e-02 -7.167010e-02 -8.930221e-02 -1.042797e-01 -1.210079e-01 -1.358613e-01 -1.516126e-01 -1.662584e-01 -1.809723e-01 -1.953317e-01 -2.089557e-01 -2.229512e-01 -2.354347e-01 -2.489856e-01 -2.602750e-01 -2.732930e-01 -2.833270e-01 -2.957128e-01 -3.044191e-01 -3.160594e-01 -3.233534e-01 -3.341203e-01 -3.399063e-01 -3.496588e-01 -3.538330e-01 -3.624204e-01 -3.648762e-01 -3.721439e-01 -3.727786e-01 -3.785751e-01 -3.772973e-01 -3.814818e-01 -3.782187e-01 -3.806691e-01 -3.753726e-01 -3.759917e-01 -3.686439e-01 -3.673646e-01 -3.579803e-01 -3.547692e-01 -3.433968e-01 -3.382551e-01 -3.249762e-01 -3.179394e-01 -3.028663e-01 -2.940024e-01 -2.772750e-01 -2.666815e-01 -2.484639e-01 -2.362646e-01 -2.167413e-01 
-2.016373e-01 -1.808804e-01 -1.659373e-01 -1.443031e-01 -1.282461e-01 -1.059614e-01 -8.898592e-02 -6.628699e-02 -4.860001e-02 -2.573125e-02 -7.548460e-03 1.523966e-02 3.369619e-02 5.614929e-02 7.465411e-02 9.651656e-02 1.148442e-01 1.358624e-01 1.537909e-01 1.737171e-01 1.910326e-01 2.096289e-01 2.261293e-01 2.431725e-01 2.586718e-01 2.739570e-01 2.882893e-01 3.016346e-01 3.146566e-01 3.259058e-01 3.374992e-01 3.465252e-01 3.565977e-01 3.633035e-01 3.717886e-01 3.761091e-01 3.829651e-01 3.848668e-01 3.900745e-01 3.895558e-01 3.931158e-01 3.902059e-01 3.921357e-01 3.868932e-01 3.872241e-01 3.797357e-01 3.785098e-01 3.688886e-01 3.661563e-01 3.545400e-01 3.503586e-01 3.369067e-01 3.313393e-01 3.162312e-01 3.093465e-01 2.927782e-01 2.846511e-01 2.668325e-01 2.575444e-01 2.386953e-01 2.283352e-01 2.086820e-01 1.973468e-01 1.771179e-01 1.649127e-01 1.443346e-01 1.313716e-01 1.106643e-01 9.706189e-02 7.643465e-02 6.231504e-02 4.196250e-02 2.744894e-02 7.547716e-03 -7.238512e-03 -2.653238e-02 -4.147493e-02 -6.002742e-02 -7.501745e-02 -9.271674e-02 -1.076545e-01 -1.244097e-01 -1.392049e-01 -1.549432e-01 -1.695142e-01 -1.841768e-01 -1.984477e-01 -2.119848e-01 -2.258820e-01 -2.382470e-01 -2.516946e-01 -2.628381e-01 -2.757529e-01 -2.856184e-01 -2.979058e-01 -3.064256e-01 -3.179764e-01 -3.250704e-01 -3.357598e-01 -3.413359e-01 -3.510248e-01 -3.549823e-01 -3.635206e-01 -3.657554e-01 -3.729880e-01 -3.733993e-01 -3.791732e-01 -3.776714e-01 -3.818440e-01 -3.783578e-01 -3.808046e-01 -3.752878e-01 -3.759097e-01 -3.683461e-01 -3.670742e-01 -3.574805e-01 -3.542798e-01 -3.427065e-01 -3.375771e-01 -3.241074e-01 -3.170842e-01 -3.018318e-01 -2.929818e-01 -2.760876e-01 -2.655078e-01 -2.471361e-01 -2.349496e-01 -2.152848e-01 
-2.066723e-01 -1.857215e-01 -1.704970e-01 -1.486405e-01 -1.322851e-01 -1.097540e-01 -9.246782e-02 -6.950272e-02 -5.149692e-02 -2.834628e-02 -9.840784e-03 1.324086e-02 3.201990e-02 5.477399e-02 7.359702e-02 9.576366e-02 1.144010e-01 1.357222e-01 1.539479e-01 1.741715e-01 1.917674e-01 2.106515e-01 2.274120e-01 2.447292e-01 2.604650e-01 2.760074e-01 2.905501e-01 3.041328e-01 3.173374e-01 3.288026e-01 3.405501e-01 3.497690e-01 3.599674e-01 3.668427e-01 3.754264e-01 3.798930e-01 3.868220e-01 3.888469e-01 3.941044e-01 3.936867e-01 3.972760e-01 3.944456e-01 3.963869e-01 3.912038e-01 3.915308e-01 3.840829e-01 3.828398e-01 3.732416e-01 3.704806e-01 3.588711e-01 3.546505e-01 3.411911e-01 3.355745e-01 3.204461e-01 3.135025e-01 2.969032e-01 2.887070e-01 2.708488e-01 2.614811e-01 2.425860e-01 2.321354e-01 2.124318e-01 2.009949e-01 1.807134e-01 1.683953e-01 1.477640e-01 1.346774e-01 1.139175e-01 1.001816e-01 7.950311e-02 6.524103e-02 4.483827e-02 3.017437e-02 1.022281e-02 -4.720596e-03 -2.406717e-02 -3.917308e-02 -5.778400e-02 -7.294344e-02 -9.071125e-02 -1.058251e-01 -1.226640e-01 -1.376433e-01 -1.534864e-01 -1.682512e-01 -1.830454e-01 -1.975223e-01 -2.112231e-01 -2.253407e-01 -2.379055e-01 -2.515895e-01 -2.629715e-01 -2.761392e-01 -2.862816e-01 -2.988374e-01 -3.076699e-01 -3.195015e-01 -3.269381e-01 -3.379156e-01 -3.438557e-01 -3.538327e-01 -3.581648e-01 -3.669823e-01 -3.695901e-01 -3.770831e-01 -3.778528e-01 -3.838584e-01 -3.826879e-01 -3.870542e-01 -3.838612e-01 -3.864561e-01 -3.811856e-01 -3.819042e-01 -3.745337e-01 -3.733043e-01 -3.638470e-01 -3.606340e-01 -3.491396e-01 -3.439449e-01 -3.304980e-01 -3.233599e-01 -3.080774e-01 -2.990679e-01 -2.820951e-01 -2.713166e-01 -2.528228e-01 -2.404044e-01 -2.205791e-01 
-2.063848e-01 -1.852002e-01 -1.698964e-01 -1.478109e-01 -1.313655e-01 -1.086099e-01 -9.122331e-02 -6.803765e-02 -4.992190e-02 -2.655447e-02 -7.930590e-03 1.536362e-02 3.426768e-02 5.722886e-02 7.618099e-02 9.854705e-02 1.173143e-01 1.388242e-01 1.571768e-01 1.775745e-01 1.952901e-01 2.143293e-01 2.311979e-01 2.486469e-01 2.644755e-01 2.801218e-01 2.947384e-01 3.083933e-01 3.216508e-01 3.331531e-01 3.449310e-01 3.541497e-01 3.643560e-01 3.711920e-01 3.797623e-01 3.841498e-01 3.910462e-01 3.929523e-01 3.981608e-01 3.975852e-01 4.011124e-01 3.980866e-01 3.999560e-01 3.945415e-01 3.947900e-01 3.870771e-01 3.857511e-01 3.758570e-01 3.730103e-01 3.610770e-01 3.567689e-01 3.429611e-01 3.372552e-01 3.217578e-01 3.147225e-01 2.977380e-01 2.894469e-01 2.711920e-01 2.617253e-01 2.424275e-01 2.318734e-01 2.117672e-01 2.002226e-01 1.795450e-01 1.671163e-01 1.461022e-01 1.329044e-01 1.117822e-01 9.793787e-02 7.692442e-02 6.256093e-02 4.185740e-02 2.710376e-02 6.891623e-03 -8.125246e-03 -2.768720e-02 -4.284626e-02 -6.162380e-02 -7.681322e-02 -9.469709e-02 -1.098165e-01 -1.267211e-01 -1.416823e-01 -1.575428e-01 -1.722688e-01 -1.870362e-01 -2.014584e-01 -2.150938e-01 -2.291471e-01 -2.416146e-01 -2.552321e-01 -2.664917e-01 -2.795981e-01 -2.895998e-01 -3.021060e-01 -3.107851e-01 -3.225839e-01 -3.298586e-01 -3.408228e-01 -3.465951e-01 -3.565786e-01 -3.607377e-01 -3.695795e-01 -3.720084e-01 -3.795394e-01 -3.801228e-01 -3.861748e-01 -3.848088e-01 -3.892239e-01 -3.858249e-01 -3.884652e-01 -3.829775e-01 -3.837336e-01 -3.761352e-01 -3.749317e-01 -3.652373e-01 -3.620365e-01 -3.502983e-01 -3.451010e-01 -3.314065e-01 -3.242511e-01 -3.087200e-01 -2.996793e-01 -2.824594e-01 -2.716366e-01 -2.528992e-01 -2.404241e-01 -2.203599e-01 
-2.127058e-01 -1.912117e-01 -1.755273e-01 -1.530983e-01 -1.362491e-01 -1.131214e-01 -9.531372e-02 -7.173262e-02 -5.318389e-02 -2.940268e-02 -1.033931e-02 1.338186e-02 3.272645e-02 5.612226e-02 7.551023e-02 9.831265e-02 1.175050e-01 1.394467e-01 1.582074e-01 1.790256e-01 1.971262e-01 2.165683e-01 2.337928e-01 2.516209e-01 2.677711e-01 2.837675e-01 2.986674e-01 3.126389e-01 3.261386e-01 3.379209e-01 3.498987e-01 3.593587e-01 3.697230e-01 3.767607e-01 3.854488e-01 3.899984e-01 3.969754e-01 3.990047e-01 4.042604e-01 4.037705e-01 4.073158e-01 4.043396e-01 4.062025e-01 4.008035e-01 4.010249e-01 3.932955e-01 3.919253e-01 3.819850e-01 3.790796e-01 3.670730e-01 3.626931e-01 3.487878e-01 3.429979e-01 3.273820e-01 3.202502e-01 3.031298e-01 2.947291e-01 2.763250e-01 2.667347e-01 2.472785e-01 2.365861e-01 2.163166e-01 2.046188e-01 1.837774e-01 1.711806e-01 1.500063e-01 1.366269e-01 1.153515e-01 1.013137e-01 8.015681e-02 6.559042e-02 4.475461e-02 2.979130e-02 9.458050e-03 -5.772743e-03 -2.544636e-02 -4.082170e-02 -5.970505e-02 -7.511224e-02 -9.310152e-02 -1.084407e-01 -1.254575e-01 -1.406425e-01 -1.566304e-01 -1.715878e-01 -1.865069e-01 -2.011726e-01 -2.149928e-01 -2.293067e-01 -2.419997e-01 -2.558992e-01 -2.674304e-01 -2.808434e-01 -2.911646e-01 -3.040024e-01 -3.130468e-01 -3.251997e-01 -3.328790e-01 -3.442136e-01 -3.504189e-01 -3.607793e-01 -3.653855e-01 -3.745981e-01 -3.774710e-01 -3.853523e-01 -3.863588e-01 -3.927254e-01 -3.917442e-01 -3.964243e-01 -3.933563e-01 -3.962003e-01 -3.909780e-01 -3.918679e-01 -3.844612e-01 -3.833170e-01 -3.737369e-01 -3.705201e-01 -3.588186e-01 -3.535326e-01 -3.398007e-01 -3.324890e-01 -3.168519e-01 -3.075942e-01 -2.902065e-01 -2.791141e-01 -2.601545e-01 -2.473653e-01 -2.270318e-01 
-2.135829e-01 -1.917510e-01 -1.758992e-01 -1.531319e-01 -1.360973e-01 -1.126307e-01 -9.462112e-02 -7.070039e-02 -5.193483e-02 -2.781368e-02 -8.520779e-03 1.553938e-02 3.512304e-02 5.885443e-02 7.848678e-02 1.016175e-01 1.210543e-01 1.433119e-01 1.623107e-01 1.834263e-01 2.017520e-01 2.214659e-01 2.388959e-01 2.569631e-01 2.732929e-01 2.894889e-01 3.045372e-01 3.186631e-01 3.322762e-01 3.441626e-01 3.562173e-01 3.657277e-01 3.761320e-01 3.831642e-01 3.918575e-01 3.963449e-01 4.032956e-01 4.052062e-01 4.104088e-01 4.097450e-01 4.132156e-01 4.100122e-01 4.117842e-01 4.061074e-01 4.062263e-01 3.981717e-01 3.966914e-01 3.863822e-01 3.833615e-01 3.709464e-01 3.664475e-01 3.520986e-01 3.461856e-01 3.300964e-01 3.228364e-01 3.052187e-01 2.966831e-01 2.777642e-01 2.680306e-01 2.480496e-01 2.372043e-01 2.164081e-01 2.045477e-01 1.831862e-01 1.704188e-01 1.487404e-01 1.351853e-01 1.134312e-01 9.921750e-02 7.761664e-02 6.288016e-02 4.164410e-02 2.652338e-02 5.841484e-03 -9.527147e-03 -2.949148e-02 -4.497900e-02 -6.409091e-02 -7.958022e-02 -9.773426e-02 -1.131235e-01 -1.302425e-01 -1.454467e-01 -1.614783e-01 -1.764281e-01 -1.913393e-01 -2.059777e-01 -2.197473e-01 -2.340237e-01 -2.466334e-01 -2.604959e-01 -2.719214e-01 -2.853085e-01 -2.955110e-01 -3.083432e-01 -3.172629e-01 -3.294368e-01 -3.369900e-01 -3.483750e-01 -3.544539e-01 -3.648930e-01 -3.693704e-01 -3.786847e-01 -3.814224e-01 -3.894202e-01 -3.902793e-01 -3.967670e-01 -3.956203e-01 -4.004155e-01 -3.971591e-01 -4.001025e-01 -3.946655e-01 -3.956312e-01 -3.879829e-01 -3.868854e-01 -3.770381e-01 -3.738362e-01 -3.618452e-01 -3.565418e-01 -3.425024e-01 -3.351422e-01 -3.191845e-01 -3.098496e-01 -2.921326e-01 -2.809369e-01 -2.616430e-01 -2.487271e-01 -2.280568e-01 
-2.212594e-01 -1.989962e-01 -1.826582e-01 -1.594205e-01 -1.418710e-01 -1.179014e-01 -9.935491e-02 -7.490444e-02 -5.558640e-02 -3.091442e-02 -1.105981e-02 1.356624e-02 3.371417e-02 5.801977e-02 7.821161e-02 1.019172e-01 1.219007e-01 1.447253e-01 1.642495e-01 1.859153e-01 2.047363e-01 2.249744e-01 2.428611e-01 2.614180e-01 2.781584e-01 2.948019e-01 3.102089e-01 3.247339e-01 3.386499e-01 3.508825e-01 3.631825e-01 3.729835e-01 3.835761e-01 3.908423e-01 3.996696e-01 4.043344e-01 4.113693e-01 4.134021e-01 4.186448e-01 4.180497e-01 4.215229e-01 4.183373e-01 4.200806e-01 4.143733e-01 4.144385e-01 4.063081e-01 4.047539e-01 3.943268e-01 3.912157e-01 3.786443e-01 3.740404e-01 3.595009e-01 3.534690e-01 3.371595e-01 3.297661e-01 3.119038e-01 3.032189e-01 2.840368e-01 2.741365e-01 2.538803e-01 2.428493e-01 2.217725e-01 2.097069e-01 1.880665e-01 1.750748e-01 1.531256e-01 1.393289e-01 1.173184e-01 1.028489e-01 8.101094e-02 6.600847e-02 4.455806e-02 2.916581e-02 8.293738e-03 -7.347491e-03 -2.747887e-02 -4.323647e-02 -6.249612e-02 -7.825104e-02 -9.654026e-02 -1.121910e-01 -1.294421e-01 -1.449065e-01 -1.610790e-01 -1.762932e-01 -1.913673e-01 -2.062818e-01 -2.202496e-01 -2.348224e-01 -2.476780e-01 -2.618654e-01 -2.735935e-01 -2.873403e-01 -2.979069e-01 -3.111365e-01 -3.204809e-01 -3.330883e-01 -3.411190e-01 -3.529662e-01 -3.595618e-01 -3.704791e-01 -3.754931e-01 -3.852842e-01 -3.885552e-01 -3.970079e-01 -3.983722e-01 -4.052716e-01 -4.045783e-01 -4.097216e-01 -4.068459e-01 -4.100570e-01 -4.049124e-01 -4.060536e-01 -3.985994e-01 -3.975788e-01 -3.878235e-01 -3.845992e-01 -3.725997e-01 -3.671788e-01 -3.530362e-01 -3.454712e-01 -3.293245e-01 -3.197074e-01 -3.017259e-01 -2.901816e-01 -2.705582e-01 -2.572380e-01 -2.361830e-01 
-2.233219e-01 -2.006162e-01 -1.840215e-01 -1.603360e-01 -1.425045e-01 -1.180816e-01 -9.923004e-02 -7.432051e-02 -5.467646e-02 -2.954016e-02 -9.341658e-03 1.575227e-02 3.625760e-02 6.103112e-02 8.158793e-02 1.057560e-01 1.261044e-01 1.493786e-01 1.692589e-01 1.913522e-01 2.105106e-01 2.311442e-01 2.493400e-01 2.682501e-01 2.852621e-01 3.022070e-01 3.178405e-01 3.326067e-01 3.466989e-01 3.591061e-01 3.715292e-01 3.814334e-01 3.920963e-01 3.993918e-01 4.082393e-01 4.128585e-01 4.198689e-01 4.217819e-01 4.269621e-01 4.261750e-01 4.295555e-01 4.261084e-01 4.277368e-01 4.217022e-01 4.216371e-01 4.131177e-01 4.114235e-01 4.005504e-01 3.972933e-01 3.842239e-01 3.794694e-01 3.643858e-01 3.581982e-01 3.413050e-01 3.337487e-01 3.152703e-01 3.064122e-01 2.865901e-01 2.765030e-01 2.555918e-01 2.443585e-01 2.226220e-01 2.103376e-01 1.880439e-01 1.748185e-01 1.522343e-01 1.381927e-01 1.155776e-01 1.008586e-01 7.845871e-02 6.321061e-02 4.125254e-02 2.562830e-02 4.313160e-03 -1.153638e-02 -3.203803e-02 -4.797123e-02 -6.752303e-02 -8.341415e-02 -1.019156e-01 -1.176599e-01 -1.350457e-01 -1.505621e-01 -1.667979e-01 -1.820284e-01 -1.971047e-01 -2.120098e-01 -2.259317e-01 -2.404830e-01 -2.532592e-01 -2.674283e-01 -2.790584e-01 -2.928053e-01 -3.032680e-01 -3.165294e-01 -3.257735e-01 -3.384529e-01 -3.463919e-01 -3.583547e-01 -3.648668e-01 -3.759401e-01 -3.808739e-01 -3.908524e-01 -3.940374e-01 -4.026952e-01 -4.039569e-01 -4.110628e-01 -4.102389e-01 -4.155735e-01 -4.125300e-01 -4.159024e-01 -4.105466e-01 -4.118072e-01 -4.040963e-01 -4.031461e-01 -3.930903e-01 -3.898841e-01 -3.775450e-01 -3.720905e-01 -3.575759e-01 -3.499288e-01 -3.333851e-01 -3.236419e-01 -3.052453e-01 -2.935361e-01 -2.734851e-01 -2.599659e-01 -2.384748e-01 
-2.324365e-01 -2.091704e-01 -1.919760e-01 -1.676869e-01 -1.492223e-01 -1.241598e-01 -1.046491e-01 -7.906990e-02 -5.874757e-02 -3.291734e-02 -1.202825e-02 1.377726e-02 3.497788e-02 6.047281e-02 8.172080e-02 1.066107e-01 1.276360e-01 1.516215e-01 1.721532e-01 1.949354e-01 2.147078e-01 2.359956e-01 2.547563e-01 2.742741e-01 2.917918e-01 3.092877e-01 3.253595e-01 3.406116e-01 3.550691e-01 3.678914e-01 3.806046e-01 3.908499e-01 4.017287e-01 4.092901e-01 4.182834e-01 4.230942e-01 4.301865e-01 4.322187e-01 4.374255e-01 4.366879e-01 4.400488e-01 4.365849e-01 4.381566e-01 4.320425e-01 4.318921e-01 4.232343e-01 4.214329e-01 4.103666e-01 4.069852e-01 3.936724e-01 3.887790e-01 3.734070e-01 3.670663e-01 3.498457e-01 3.421204e-01 3.232826e-01 3.142372e-01 2.940316e-01 2.837359e-01 2.624259e-01 2.509601e-01 2.288189e-01 2.162769e-01 1.935824e-01 1.800745e-01 1.571031e-01 1.427569e-01 1.197772e-01 1.047359e-01 8.200180e-02 6.641998e-02 4.416407e-02 2.820192e-02 6.628565e-03 -9.555859e-03 -3.027613e-02 -4.653518e-02 -6.626993e-02 -8.247423e-02 -1.011311e-01 -1.171757e-01 -1.347017e-01 -1.505093e-01 -1.668862e-01 -1.824067e-01 -1.976436e-01 -2.128489e-01 -2.269705e-01 -2.418456e-01 -2.548788e-01 -2.694091e-01 -2.813683e-01 -2.955251e-01 -3.063976e-01 -3.201240e-01 -3.298594e-01 -3.430590e-01 -3.515623e-01 -3.640919e-01 -3.712237e-01 -3.828939e-01 -3.884769e-01 -3.990587e-01 -4.028909e-01 -4.121298e-01 -4.140027e-01 -4.216373e-01 -4.213561e-01 -4.271386e-01 -4.245414e-01 -4.282574e-01 -4.232308e-01 -4.247148e-01 -4.172040e-01 -4.163490e-01 -4.063611e-01 -4.031221e-01 -3.907230e-01 -3.851146e-01 -3.704223e-01 -3.625117e-01 -3.456859e-01 -3.355842e-01 -3.168160e-01 -3.046682e-01 -2.841705e-01 -2.701469e-01 -2.481469e-01 
-2.357183e-01 -2.119044e-01 -1.943616e-01 -1.695152e-01 -1.506702e-01 -1.250400e-01 -1.051188e-01 -7.896061e-02 -5.820002e-02 -3.177932e-02 -1.042761e-02 1.597820e-02 3.766049e-02 6.376123e-02 8.550234e-02 1.109963e-01 1.325162e-01 1.570937e-01 1.781092e-01 2.014591e-01 2.216911e-01 2.435083e-01 2.626908e-01 2.826856e-01 3.005744e-01 3.184817e-01 3.348635e-01 3.504504e-01 3.651494e-01 3.782213e-01 3.911038e-01 4.015078e-01 4.124842e-01 4.201105e-01 4.291339e-01 4.339150e-01 4.409777e-01 4.428871e-01 4.480142e-01 4.470636e-01 4.503060e-01 4.465428e-01 4.479684e-01 4.414733e-01 4.411592e-01 4.320438e-01 4.300691e-01 4.184743e-01 4.149146e-01 4.010086e-01 3.959335e-01 3.799105e-01 3.733833e-01 3.554614e-01 3.475413e-01 3.279606e-01 3.187065e-01 2.977262e-01 2.872028e-01 2.650974e-01 2.533804e-01 2.304356e-01 2.176169e-01 1.941241e-01 1.803153e-01 1.565656e-01 1.418990e-01 1.181765e-01 1.028036e-01 7.937795e-02 6.346511e-02 4.058382e-02 2.430503e-02 2.185956e-03 -1.428629e-02 -3.546173e-02 -5.196652e-02 -7.205876e-02 -8.845656e-02 -1.073709e-01 -1.235515e-01 -1.412381e-01 -1.571250e-01 -1.735746e-01 -1.891252e-01 -2.043612e-01 -2.195616e-01 -2.336271e-01 -2.484814e-01 -2.614244e-01 -2.759399e-01 -2.877955e-01 -3.019656e-01 -3.127394e-01 -3.265261e-01 -3.361807e-01 -3.495000e-01 -3.579463e-01 -3.706596e-01 -3.777561e-01 -3.896685e-01 -3.952286e-01 -4.060971e-01 -4.099035e-01 -4.194525e-01 -4.212784e-01 -4.292218e-01 -4.288541e-01 -4.349192e-01 -4.321809e-01 -4.361314e-01 -4.308994e-01 -4.325538e-01 -4.247698e-01 -4.240118e-01 -4.136853e-01 -4.104671e-01 -3.976717e-01 -3.920104e-01 -3.768741e-01 -3.688432e-01 -3.515369e-01 -3.412554e-01 -3.219805e-01 -3.096016e-01 -2.885790e-01 -2.742802e-01 -2.517424e-01 
-2.463645e-01 -2.218522e-01 -2.035874e-01 -1.779973e-01 -1.583937e-01 -1.319812e-01 -1.112720e-01 -8.429826e-02 -6.272674e-02 -3.546248e-02 -1.328369e-02 1.398721e-02 3.650464e-02 6.348340e-02 8.605751e-02 1.124312e-01 1.347694e-01 1.602146e-01 1.820192e-01 2.062090e-01 2.271852e-01 2.497982e-01 2.696644e-01 2.903952e-01 3.088931e-01 3.274630e-01 3.443679e-01 3.605333e-01 3.756622e-01 3.892214e-01 4.024378e-01 4.132344e-01 4.244503e-01 4.323739e-01 4.415482e-01 4.465331e-01 4.536673e-01 4.556901e-01 4.608210e-01 4.598974e-01 4.630887e-01 4.592706e-01 4.606030e-01 4.539756e-01 4.535377e-01 4.442172e-01 4.420971e-01 4.302292e-01 4.265089e-01 4.122672e-01 4.070190e-01 3.906036e-01 3.838904e-01 3.655270e-01 3.574049e-01 3.373421e-01 3.278656e-01 3.063726e-01 2.956012e-01 2.729640e-01 2.609690e-01 2.374856e-01 2.243564e-01 2.003312e-01 1.861794e-01 1.619169e-01 1.468780e-01 1.226748e-01 1.069069e-01 8.304402e-02 6.672247e-02 4.345654e-02 2.676621e-02 4.320903e-03 -1.255458e-02 -3.399631e-02 -5.088639e-02 -7.118867e-02 -8.794746e-02 -1.070252e-01 -1.235410e-01 -1.413600e-01 -1.575611e-01 -1.741335e-01 -1.899883e-01 -2.053630e-01 -2.208742e-01 -2.351224e-01 -2.503145e-01 -2.635109e-01 -2.784126e-01 -2.906149e-01 -3.052384e-01 -3.164670e-01 -3.307867e-01 -3.410077e-01 -3.549421e-01 -3.640572e-01 -3.774585e-01 -3.853035e-01 -3.979553e-01 -4.043086e-01 -4.159356e-01 -4.205369e-01 -4.308235e-01 -4.333992e-01 -4.420167e-01 -4.423089e-01 -4.489449e-01 -4.467388e-01 -4.511250e-01 -4.462707e-01 -4.482042e-01 -4.406294e-01 -4.399847e-01 -4.296975e-01 -4.264291e-01 -4.135121e-01 -4.076487e-01 -3.922464e-01 -3.838792e-01 -3.661828e-01 -3.554512e-01 -3.356832e-01 -3.227613e-01 -3.011620e-01 -2.862460e-01 -2.630644e-01 
-2.509108e-01 -2.257447e-01 -2.070372e-01 -1.807811e-01 -1.606963e-01 -1.336029e-01 -1.123755e-01 -8.470298e-02 -6.257748e-02 -3.459488e-02 -1.182944e-02 1.617850e-02 3.930952e-02 6.703926e-02 9.024471e-02 1.173742e-01 1.403486e-01 1.665411e-01 1.889706e-01 2.138822e-01 2.354539e-01 2.587444e-01 2.791576e-01 3.005024e-01 3.194814e-01 3.385840e-01 3.558897e-01 3.724921e-01 3.879313e-01 4.018209e-01 4.152523e-01 4.262661e-01 4.376027e-01 4.456272e-01 4.548341e-01 4.598039e-01 4.668933e-01 4.687875e-01 4.738103e-01 4.726489e-01 4.756846e-01 4.715246e-01 4.726697e-01 4.656024e-01 4.649595e-01 4.551072e-01 4.527753e-01 4.402904e-01 4.363576e-01 4.214206e-01 4.159610e-01 3.987800e-01 3.918534e-01 3.726623e-01 3.643185e-01 3.433760e-01 3.336609e-01 3.112473e-01 3.002114e-01 2.766258e-01 2.643330e-01 2.398880e-01 2.264233e-01 2.014398e-01 1.869151e-01 1.617156e-01 1.462720e-01 1.211724e-01 1.049790e-01 8.027988e-02 6.352806e-02 3.950547e-02 2.239936e-02 -7.052103e-04 -1.796132e-02 -3.995024e-02 -5.716638e-02 -7.789383e-02 -9.490874e-02 -1.142860e-01 -1.309793e-01 -1.489760e-01 -1.652759e-01 -1.819161e-01 -1.978008e-01 -2.131531e-01 -2.286445e-01 -2.428057e-01 -2.579554e-01 -2.710299e-01 -2.858982e-01 -2.979734e-01 -3.126044e-01 -3.237265e-01 -3.381221e-01 -3.482757e-01 -3.623734e-01 -3.714680e-01 -3.851261e-01 -3.929934e-01 -4.059877e-01 -4.123907e-01 -4.244245e-01 -4.290786e-01 -4.398049e-01 -4.424076e-01 -4.514609e-01 -4.517259e-01 -4.587573e-01 -4.564467e-01 -4.611570e-01 -4.561063e-01 -4.582708e-01 -4.504034e-01 -4.498852e-01 -4.392142e-01 -4.359666e-01 -4.225863e-01 -4.166444e-01 -4.007151e-01 -3.921812e-01 -3.739107e-01 -3.629374e-01 -3.425629e-01 -3.293365e-01 -3.071095e-01 -2.918365e-01 -2.680128e-01 
-2.631886e-01 -2.371770e-01 -2.176158e-01 -1.904692e-01 -1.694928e-01 -1.414692e-01 -1.193184e-01 -9.067926e-02 -6.760344e-02 -3.862119e-02 -1.488406e-02 1.415107e-02 3.826726e-02 6.704285e-02 9.123564e-02 1.194165e-01 1.433652e-01 1.705972e-01 1.939694e-01 2.198883e-01 2.423501e-01 2.665937e-01 2.878233e-01 3.100462e-01 3.297487e-01 3.496362e-01 3.675573e-01 3.848378e-01 4.007744e-01 4.152272e-01 4.290346e-01 4.404930e-01 4.520868e-01 4.604382e-01 4.697920e-01 4.749744e-01 4.821132e-01 4.841109e-01 4.891019e-01 4.879406e-01 4.908809e-01 4.866234e-01 4.876273e-01 4.803702e-01 4.795558e-01 4.694269e-01 4.669054e-01 4.540620e-01 4.499294e-01 4.345581e-01 4.288913e-01 4.112068e-01 4.040641e-01 3.843087e-01 3.757345e-01 3.541771e-01 3.442094e-01 3.211427e-01 3.098237e-01 2.855607e-01 2.729470e-01 2.478163e-01 2.339881e-01 2.083275e-01 1.933959e-01 1.675452e-01 1.516553e-01 1.259475e-01 1.092771e-01 8.402868e-02 6.678226e-02 4.228237e-02 2.467993e-02 1.179516e-03 -1.655788e-02 -3.885712e-02 -5.652439e-02 -7.747940e-02 -9.490459e-02 -1.144374e-01 -1.314965e-01 -1.495963e-01 -1.662226e-01 -1.829415e-01 -1.991280e-01 -2.145693e-01 -2.303617e-01 -2.446616e-01 -2.601416e-01 -2.734433e-01 -2.887040e-01 -3.011289e-01 -3.162444e-01 -3.278626e-01 -3.428562e-01 -3.536609e-01 -3.684778e-01 -3.783685e-01 -3.928575e-01 -4.016366e-01 -4.155453e-01 -4.229288e-01 -4.359160e-01 -4.415596e-01 -4.532223e-01 -4.567581e-01 -4.666707e-01 -4.677503e-01 -4.755079e-01 -4.738420e-01 -4.791011e-01 -4.744906e-01 -4.769987e-01 -4.693510e-01 -4.689616e-01 -4.582921e-01 -4.549653e-01 -4.413852e-01 -4.351752e-01 -4.188713e-01 -4.099074e-01 -3.911177e-01 -3.795822e-01 -3.585736e-01 -3.446810e-01 -3.217311e-01 -3.057122e-01 -2.810971e-01 
-2.690521e-01 -2.422813e-01 -2.221807e-01 -1.942619e-01 -1.727024e-01 -1.438876e-01 -1.211092e-01 -9.165327e-02 -6.790472e-02 -3.807527e-02 -1.362173e-02 1.629197e-02 4.116286e-02 7.084380e-02 9.581902e-02 1.249209e-01 1.496637e-01 1.778150e-01 2.019716e-01 2.287853e-01 2.519972e-01 2.770855e-01 2.990052e-01 3.219965e-01 3.423048e-01 3.628610e-01 3.812837e-01 3.991141e-01 4.154345e-01 4.303051e-01 4.443725e-01 4.561094e-01 4.678408e-01 4.763290e-01 4.857070e-01 4.908863e-01 4.979511e-01 4.998102e-01 5.046488e-01 5.032195e-01 5.059513e-01 5.013036e-01 5.020648e-01 4.943025e-01 4.932311e-01 4.824895e-01 4.797112e-01 4.661552e-01 4.617743e-01 4.455979e-01 4.396927e-01 4.211190e-01 4.137424e-01 3.930231e-01 3.842088e-01 3.616235e-01 3.513960e-01 3.272498e-01 3.156369e-01 2.902578e-01 2.773036e-01 2.510369e-01 2.368139e-01 2.100171e-01 1.946349e-01 1.676692e-01 1.512793e-01 1.245013e-01 1.072957e-01 8.104682e-02 6.325146e-02 3.784581e-02 1.970772e-02 -4.580220e-03 -2.281051e-02 -4.575893e-02 -6.384797e-02 -8.529947e-02 -1.030521e-01 -1.229226e-01 -1.402006e-01 -1.584832e-01 -1.752181e-01 -1.919802e-01 -2.081771e-01 -2.235485e-01 -2.392793e-01 -2.534318e-01 -2.688162e-01 -2.819346e-01 -2.971111e-01 -3.093594e-01 -3.244488e-01 -3.359343e-01 -3.510009e-01 -3.617436e-01 -3.767609e-01 -3.866716e-01 -4.014982e-01 -4.103726e-01 -4.247451e-01 -4.322751e-01 -4.458208e-01 -4.516244e-01 -4.638933e-01 -4.675583e-01 -4.780703e-01 -4.792049e-01 -4.875019e-01 -4.857823e-01 -4.914770e-01 -4.866837e-01 -4.894945e-01 -4.815301e-01 -4.812982e-01 -4.701875e-01 -4.668752e-01 -4.527489e-01 -4.464237e-01 -4.294931e-01 -4.203033e-01 -4.008311e-01 -3.889793e-01 -3.672533e-01 -3.529724e-01 -3.292851e-01 -3.128201e-01 -2.874557e-01 
-2.830618e-01 -2.552893e-01 -2.341943e-01 -2.052329e-01 -1.826430e-01 -1.527466e-01 -1.289046e-01 -9.832747e-02 -7.348364e-02 -4.249301e-02 -1.691532e-02 1.419659e-02 4.021401e-02 7.112177e-02 9.725387e-02 1.275961e-01 1.534878e-01 1.828710e-01 2.081446e-01 2.361549e-01 2.604239e-01 2.866438e-01 3.095318e-01 3.335613e-01 3.547229e-01 3.761997e-01 3.953398e-01 4.139563e-01 4.308453e-01 4.463581e-01 4.608408e-01 4.730737e-01 4.850717e-01 4.939129e-01 5.034207e-01 5.088163e-01 5.158923e-01 5.178392e-01 5.225926e-01 5.211307e-01 5.237053e-01 5.189119e-01 5.194681e-01 5.114535e-01 5.101504e-01 4.990553e-01 4.960351e-01 4.820296e-01 4.774066e-01 4.606904e-01 4.545456e-01 4.353488e-01 4.277312e-01 4.063145e-01 3.972489e-01 3.739035e-01 3.634017e-01 3.384475e-01 3.265238e-01 3.003059e-01 2.869925e-01 2.598761e-01 2.452373e-01 2.176010e-01 2.017441e-01 1.739718e-01 1.570526e-01 1.295232e-01 1.117456e-01 8.482192e-02 6.643007e-02 4.044501e-02 2.170892e-02 -3.048554e-03 -2.185339e-02 -4.515341e-02 -6.377021e-02 -8.545601e-02 -1.036720e-01 -1.236709e-01 -1.413399e-01 -1.596686e-01 -1.767271e-01 -1.934890e-01 -2.099614e-01 -2.253333e-01 -2.413249e-01 -2.555330e-01 -2.712075e-01 -2.844927e-01 -3.000380e-01 -3.126152e-01 -3.281987e-01 -3.402129e-01 -3.559348e-01 -3.674229e-01 -3.832731e-01 -3.941367e-01 -4.099649e-01 -4.199617e-01 -4.354682e-01 -4.442258e-01 -4.589760e-01 -4.660287e-01 -4.794930e-01 -4.843366e-01 -4.959486e-01 -4.981039e-01 -5.073263e-01 -5.063986e-01 -5.127828e-01 -5.085075e-01 -5.117361e-01 -5.039991e-01 -5.039045e-01 -4.927405e-01 -4.893002e-01 -4.748697e-01 -4.681834e-01 -4.507391e-01 -4.409960e-01 -4.208455e-01 -4.082910e-01 -3.857639e-01 -3.706694e-01 -3.460924e-01 -3.287340e-01 -3.024162e-01 