# vtk DataFile Version 2.0
Comment goes here
ASCII

DATASET STRUCTURED_POINTS
FIELD FieldData 1
TIME 1 1 double
0.09500000
DIMENSIONS    128   128   1

ORIGIN    0.000   0.000   0.000
SPACING   0.039062 0.039062   1.000

POINT_DATA   16384
SCALARS uX double
LOOKUP_TABLE default

-2.426258e-01 -1.880039e-01 -1.290110e-01 -7.484188e-02 -1.678965e-02 3.642966e-02 9.304817e-02 1.448721e-01 1.996151e-01 2.496470e-01 3.021213e-01 3.500107e-01 3.998687e-01 4.453080e-01 4.922450e-01 5.349668e-01 5.787186e-01 6.184927e-01 6.588335e-01 6.954652e-01 7.322061e-01 7.655340e-01 7.985210e-01 8.284153e-01 8.575282e-01 8.838886e-01 9.090378e-01 9.317916e-01 9.529160e-01 9.720147e-01 9.890775e-01 1.004494e+00 1.017478e+00 1.029201e+00 1.038105e+00 1.046136e+00 1.050968e+00 1.055315e+00 1.056085e+00 1.056761e+00 1.053481e+00 1.050494e+00 1.043170e+00 1.036524e+00 1.025155e+00 1.014847e+00 9.994266e-01 9.854458e-01 9.659594e-01 9.482888e-01 9.247213e-01 9.033416e-01 8.756816e-01 8.505763e-01 8.188249e-01 7.899878e-01 7.541681e-01 7.216119e-01 6.817798e-01 6.455466e-01 6.018026e-01 5.619738e-01 5.144746e-01 4.711820e-01 4.201506e-01 3.735865e-01 3.193220e-01 2.697476e-01 2.126322e-01 1.603852e-01 1.008882e-01 4.638715e-02 -1.493381e-02 -7.118729e-02 -1.336887e-01 -1.911116e-01 -2.540705e-01 -3.120031e-01 -3.746275e-01 -4.323420e-01 -4.937845e-01 -5.504973e-01 -6.098730e-01 -6.647604e-01 -7.211672e-01 -7.733844e-01 -8.259260e-01 -8.746288e-01 -9.224396e-01 -9.668080e-01 -1.009078e+00 -1.048341e+00 -1.084341e+00 -1.117801e+00 -1.146906e+00 -1.173964e+00 -1.195673e+00 -1.215847e+00 -1.229802e+00 -1.242744e+00 -1.248739e+00 -1.254252e+00 -1.252240e+00 -1.250277e+00 -1.240371e+00 -1.231042e+00 -1.213505e+00 -1.197064e+00 -1.172300e+00 -1.149135e+00 -1.117668e+00 -1.088285e+00 -1.050739e+00 -1.015737e+00 -9.728123e-01 -9.328603e-01 -8.853077e-01 -8.411208e-01 -7.897182e-01 -7.420338e-01 -6.875643e-01 -6.371209e-01 -5.803536e-01 -5.278729e-01 -4.695481e-01 -4.157206e-01 -3.565385e-01 -3.020133e-01 
-2.423276e-01 -1.876156e-01 -1.285529e-01 -7.430562e-02 -1.618989e-02 3.709605e-02 9.377262e-02 1.456523e-01 2.004488e-01 2.505263e-01 3.030506e-01 3.509760e-01 4.008814e-01 4.463479e-01 4.933305e-01 5.360711e-01 5.798674e-01 6.196524e-01 6.600374e-01 6.966725e-01 7.334576e-01 7.667819e-01 7.998137e-01 8.296976e-01 8.588561e-01 8.852000e-01 9.103959e-01 9.331275e-01 9.542997e-01 9.733713e-01 9.904831e-01 1.005868e+00 1.018902e+00 1.030590e+00 1.039545e+00 1.047538e+00 1.052421e+00 1.056729e+00 1.057551e+00 1.058184e+00 1.054955e+00 1.051925e+00 1.044651e+00 1.037960e+00 1.026639e+00 1.016286e+00 1.000908e+00 9.868809e-01 9.674327e-01 9.497139e-01 9.261777e-01 9.047475e-01 8.771104e-01 8.519514e-01 8.202127e-01 7.913177e-01 7.554987e-01 7.228797e-01 6.830346e-01 6.467325e-01 6.029603e-01 5.630561e-01 5.155120e-01 4.721367e-01 4.210429e-01 3.743886e-01 3.200437e-01 2.703717e-01 2.131577e-01 1.608061e-01 1.011930e-01 4.658142e-02 -1.487197e-02 -7.124064e-02 -1.338890e-01 -1.914299e-01 -2.545478e-01 -3.125990e-01 -3.753914e-01 -4.332225e-01 -4.948384e-01 -5.516630e-01 -6.112135e-01 -6.662048e-01 -7.227834e-01 -7.750935e-01 -8.277996e-01 -8.765811e-01 -9.245446e-01 -9.689746e-01 -1.011381e+00 -1.050686e+00 -1.086803e+00 -1.120284e+00 -1.149483e+00 -1.176537e+00 -1.198316e+00 -1.218462e+00 -1.232460e+00 -1.245351e+00 -1.251363e+00 -1.256800e+00 -1.254780e+00 -1.252720e+00 -1.242781e+00 -1.233335e+00 -1.215745e+00 -1.199171e+00 -1.174335e+00 -1.151026e+00 -1.119473e+00 -1.089938e+00 -1.052296e+00 -1.017138e+00 -9.741100e-01 -9.340021e-01 -8.863439e-01 -8.420046e-01 -7.904969e-01 -7.426667e-01 -6.880950e-01 -6.375146e-01 -5.806503e-01 -5.280431e-01 -4.696276e-01 -4.156854e-01 -3.564195e-01 -3.017917e-01 
-2.424769e-01 -1.875803e-01 -1.283143e-01 -7.389673e-02 -1.559795e-02 3.784411e-02 9.468355e-02 1.467057e-01 2.016453e-01 2.518524e-01 3.045006e-01 3.525437e-01 4.025540e-01 4.481271e-01 4.951962e-01 5.380329e-01 5.818976e-01 6.217691e-01 6.622044e-01 6.989168e-01 7.357346e-01 7.691273e-01 8.021747e-01 8.321189e-01 8.612766e-01 8.876733e-01 9.128533e-01 9.356311e-01 9.567740e-01 9.758864e-01 9.929577e-01 1.008379e+00 1.021365e+00 1.033087e+00 1.041987e+00 1.050014e+00 1.054839e+00 1.059181e+00 1.059946e+00 1.060617e+00 1.057334e+00 1.054344e+00 1.047021e+00 1.040376e+00 1.029011e+00 1.018708e+00 1.003295e+00 9.893219e-01 9.698433e-01 9.521821e-01 9.286203e-01 9.072485e-01 8.795881e-01 8.544856e-01 8.227228e-01 7.938789e-01 7.580313e-01 7.254539e-01 6.855717e-01 6.492974e-01 6.054754e-01 5.655805e-01 5.179697e-01 4.745810e-01 4.234001e-01 3.767052e-01 3.222497e-01 2.725065e-01 2.151564e-01 1.627000e-01 1.029241e-01 4.817241e-02 -1.347036e-02 -7.001529e-02 -1.328782e-01 -1.906309e-01 -2.539859e-01 -3.122824e-01 -3.753304e-01 -4.334367e-01 -4.953216e-01 -5.524463e-01 -6.122729e-01 -6.675828e-01 -7.244375e-01 -7.770770e-01 -8.300513e-01 -8.791643e-01 -9.273796e-01 -9.721339e-01 -1.014768e+00 -1.054380e+00 -1.090692e+00 -1.124453e+00 -1.153807e+00 -1.181106e+00 -1.202994e+00 -1.223342e+00 -1.237399e+00 -1.250441e+00 -1.256459e+00 -1.261994e+00 -1.259926e+00 -1.257910e+00 -1.247871e+00 -1.238415e+00 -1.220676e+00 -1.204040e+00 -1.179014e+00 -1.155597e+00 -1.123817e+00 -1.094135e+00 -1.056239e+00 -1.020902e+00 -9.776018e-01 -9.372923e-01 -8.893505e-01 -8.447950e-01 -7.930008e-01 -7.449472e-01 -6.900929e-01 -6.392887e-01 -5.821512e-01 -5.293251e-01 -4.706504e-01 -4.164983e-01 -3.569901e-01 -3.021643e-01 
-2.420108e-01 -1.867496e-01 -1.271413e-01 -7.239762e-02 -1.378961e-02 3.994120e-02 9.705870e-02 1.493341e-01 2.045230e-01 2.549502e-01 3.078212e-01 3.560534e-01 4.062628e-01 4.519961e-01 4.992423e-01 5.422122e-01 5.862338e-01 6.262130e-01 6.667866e-01 7.035825e-01 7.405212e-01 7.739746e-01 8.071268e-01 8.371102e-01 8.663580e-01 8.927740e-01 9.180312e-01 9.408104e-01 9.620196e-01 9.811176e-01 9.982466e-01 1.013641e+00 1.026678e+00 1.038363e+00 1.047311e+00 1.055295e+00 1.060167e+00 1.064463e+00 1.065274e+00 1.065898e+00 1.062664e+00 1.059628e+00 1.052356e+00 1.045668e+00 1.034356e+00 1.024013e+00 1.008651e+00 9.946401e-01 9.752091e-01 9.575096e-01 9.339866e-01 9.125729e-01 8.849368e-01 8.597843e-01 8.280245e-01 7.991170e-01 7.632439e-01 7.305833e-01 6.906395e-01 6.542562e-01 6.103290e-01 5.702931e-01 5.225270e-01 4.789595e-01 4.275673e-01 3.806513e-01 3.259244e-01 2.759142e-01 2.182303e-01 1.654592e-01 1.052871e-01 5.017269e-02 -1.192614e-02 -6.887957e-02 -1.322534e-01 -1.904561e-01 -2.543693e-01 -3.131508e-01 -3.767941e-01 -4.354117e-01 -4.979165e-01 -5.555680e-01 -6.160246e-01 -6.718640e-01 -7.293429e-01 -7.825007e-01 -8.360763e-01 -8.856813e-01 -9.344580e-01 -9.796624e-01 -1.022801e+00 -1.062806e+00 -1.099550e+00 -1.133633e+00 -1.163334e+00 -1.190872e+00 -1.213009e+00 -1.233502e+00 -1.247705e+00 -1.260795e+00 -1.266851e+00 -1.272333e+00 -1.270198e+00 -1.268028e+00 -1.257821e+00 -1.248118e+00 -1.230120e+00 -1.213154e+00 -1.187789e+00 -1.163972e+00 -1.131790e+00 -1.101652e+00 -1.063305e+00 -1.027474e+00 -9.836918e-01 -9.428654e-01 -8.944258e-01 -8.493462e-01 -7.970526e-01 -7.484816e-01 -6.931385e-01 -6.418348e-01 -5.842286e-01 -5.309299e-01 -4.718135e-01 -4.172216e-01 -3.573034e-01 -3.020746e-01 
-2.419775e-01 -1.862565e-01 -1.261713e-01 -7.100894e-02 -1.197150e-02 4.213767e-02 9.963855e-02 1.522539e-01 2.077820e-01 2.585131e-01 3.116813e-01 3.601840e-01 4.106504e-01 4.566231e-01 5.040878e-01 5.472682e-01 5.914709e-01 6.316332e-01 6.723514e-01 7.093047e-01 7.463526e-01 7.799387e-01 8.131660e-01 8.432590e-01 8.725495e-01 8.990538e-01 9.243240e-01 9.471724e-01 9.683685e-01 9.875196e-01 1.004614e+00 1.020049e+00 1.033035e+00 1.044752e+00 1.053639e+00 1.061649e+00 1.066456e+00 1.070778e+00 1.071525e+00 1.072180e+00 1.068886e+00 1.065889e+00 1.058566e+00 1.051925e+00 1.040573e+00 1.030286e+00 1.014895e+00 1.000948e+00 9.814959e-01 9.638655e-01 9.403249e-01 9.189804e-01 8.913237e-01 8.662339e-01 8.344424e-01 8.055832e-01 7.696578e-01 7.370219e-01 6.969950e-01 6.606030e-01 6.165519e-01 5.764637e-01 5.285231e-01 4.848500e-01 4.332243e-01 3.861406e-01 3.311143e-01 2.808669e-01 2.228133e-01 1.697300e-01 1.091161e-01 5.361158e-02 -8.999771e-03 -6.642152e-02 -1.303741e-01 -1.891204e-01 -2.536708e-01 -3.130648e-01 -3.773926e-01 -4.366822e-01 -4.999047e-01 -5.582746e-01 -6.194655e-01 -6.760537e-01 -7.342644e-01 -7.881826e-01 -8.424672e-01 -8.928234e-01 -9.422648e-01 -9.881891e-01 -1.031927e+00 -1.072598e+00 -1.109856e+00 -1.144529e+00 -1.174640e+00 -1.202672e+00 -1.225102e+00 -1.245977e+00 -1.260343e+00 -1.273689e+00 -1.279774e+00 -1.285379e+00 -1.283138e+00 -1.280957e+00 -1.270514e+00 -1.260670e+00 -1.242316e+00 -1.225089e+00 -1.199263e+00 -1.175079e+00 -1.142350e+00 -1.111758e+00 -1.072799e+00 -1.036446e+00 -9.920066e-01 -9.506129e-01 -9.014928e-01 -8.558207e-01 -8.028421e-01 -7.536718e-01 -6.976558e-01 -6.457620e-01 -5.875081e-01 -5.336411e-01 -4.739123e-01 -4.187832e-01 -3.582946e-01 -3.025657e-01 
-2.412710e-01 -1.849109e-01 -1.242119e-01 -6.847666e-02 -8.886128e-03 4.573203e-02 1.037286e-01 1.567925e-01 2.127632e-01 2.638865e-01 3.174483e-01 3.662911e-01 4.171059e-01 4.633702e-01 5.111416e-01 5.545682e-01 5.990386e-01 6.394042e-01 6.803534e-01 7.174691e-01 7.547132e-01 7.884231e-01 8.218138e-01 8.519938e-01 8.814174e-01 9.079747e-01 9.333508e-01 9.562215e-01 9.775002e-01 9.966471e-01 1.013805e+00 1.029214e+00 1.042251e+00 1.053926e+00 1.062855e+00 1.070814e+00 1.075660e+00 1.079927e+00 1.080715e+00 1.081315e+00 1.078068e+00 1.075021e+00 1.067751e+00 1.061068e+00 1.049776e+00 1.039456e+00 1.024128e+00 1.010154e+00 9.907630e-01 9.731077e-01 9.496191e-01 9.282459e-01 9.006216e-01 8.754908e-01 8.437000e-01 8.147774e-01 7.788078e-01 7.460746e-01 7.059450e-01 6.694098e-01 6.251835e-01 5.848943e-01 5.366935e-01 4.927506e-01 4.407687e-01 3.933365e-01 3.378501e-01 2.871681e-01 2.285455e-01 1.749371e-01 1.136446e-01 5.752313e-02 -5.872982e-03 -6.400082e-02 -1.288361e-01 -1.883709e-01 -2.538889e-01 -3.141431e-01 -3.795059e-01 -4.397123e-01 -5.040156e-01 -5.633398e-01 -6.256318e-01 -6.831894e-01 -7.424935e-01 -7.973706e-01 -8.527106e-01 -9.039875e-01 -9.544156e-01 -1.001194e+00 -1.045819e+00 -1.087249e+00 -1.125267e+00 -1.160577e+00 -1.191296e+00 -1.219819e+00 -1.242686e+00 -1.263886e+00 -1.278504e+00 -1.291998e+00 -1.298143e+00 -1.303713e+00 -1.301341e+00 -1.298944e+00 -1.288190e+00 -1.277958e+00 -1.259127e+00 -1.241359e+00 -1.214914e+00 -1.190058e+00 -1.156594e+00 -1.125226e+00 -1.085446e+00 -1.048244e+00 -1.002927e+00 -9.606402e-01 -9.106158e-01 -8.640343e-01 -8.101501e-01 -7.600794e-01 -7.031783e-01 -6.504137e-01 -5.913127e-01 -5.366203e-01 -4.760949e-01 -4.201971e-01 -3.589699e-01 -3.025357e-01 
-2.409672e-01 -1.838710e-01 -1.224219e-01 -6.602028e-02 -5.755264e-03 4.946158e-02 1.080601e-01 1.616589e-01 2.181629e-01 2.697618e-01 3.237923e-01 3.730559e-01 4.242783e-01 4.709129e-01 5.190334e-01 5.627831e-01 6.075462e-01 6.481904e-01 6.893775e-01 7.267294e-01 7.641578e-01 7.980633e-01 8.315866e-01 8.619238e-01 8.914310e-01 9.181097e-01 9.435243e-01 9.664842e-01 9.877616e-01 1.006970e+00 1.024094e+00 1.039543e+00 1.052521e+00 1.064222e+00 1.073077e+00 1.081053e+00 1.085818e+00 1.090101e+00 1.090812e+00 1.091434e+00 1.088119e+00 1.085104e+00 1.077782e+00 1.071146e+00 1.059818e+00 1.049560e+00 1.034213e+00 1.020315e+00 1.000917e+00 9.833475e-01 9.598558e-01 9.385691e-01 9.109349e-01 8.858812e-01 8.540604e-01 8.251924e-01 7.891569e-01 7.564413e-01 7.161930e-01 6.796225e-01 6.352080e-01 5.948145e-01 5.463399e-01 5.022082e-01 4.498531e-01 4.021335e-01 3.461633e-01 2.950836e-01 2.358594e-01 1.817345e-01 1.197200e-01 6.295859e-02 -1.277727e-03 -6.016883e-02 -1.259548e-01 -1.863713e-01 -2.529375e-01 -3.141813e-01 -3.806715e-01 -4.419595e-01 -5.074460e-01 -5.679229e-01 -6.314263e-01 -6.901816e-01 -7.506938e-01 -8.067832e-01 -8.632942e-01 -9.157643e-01 -9.672911e-01 -1.015207e+00 -1.060824e+00 -1.103301e+00 -1.142170e+00 -1.178399e+00 -1.209799e+00 -1.239083e+00 -1.262435e+00 -1.284210e+00 -1.299102e+00 -1.312964e+00 -1.319161e+00 -1.324881e+00 -1.322339e+00 -1.319873e+00 -1.308735e+00 -1.298223e+00 -1.278813e+00 -1.260570e+00 -1.233376e+00 -1.207875e+00 -1.173523e+00 -1.141373e+00 -1.100600e+00 -1.062513e+00 -1.016134e+00 -9.728938e-01 -9.217729e-01 -8.742040e-01 -8.192199e-01 -7.681581e-01 -7.101803e-01 -6.564468e-01 -5.963135e-01 -5.406942e-01 -4.791964e-01 -4.224280e-01 -3.602985e-01 -3.030588e-01 
-2.398916e-01 -1.818819e-01 -1.195492e-01 -6.233017e-02 -1.271578e-03 5.467095e-02 1.139787e-01 1.682173e-01 2.253527e-01 2.775122e-01 3.321027e-01 3.818538e-01 4.335707e-01 4.806251e-01 5.291794e-01 5.732856e-01 6.184252e-01 6.593661e-01 7.008749e-01 7.384662e-01 7.761642e-01 8.102541e-01 8.439971e-01 8.744665e-01 9.041467e-01 9.309088e-01 9.564540e-01 9.794531e-01 1.000825e+00 1.020034e+00 1.037223e+00 1.052642e+00 1.065664e+00 1.077312e+00 1.086198e+00 1.094109e+00 1.098902e+00 1.103115e+00 1.103857e+00 1.104413e+00 1.101140e+00 1.098070e+00 1.090803e+00 1.084126e+00 1.072868e+00 1.062584e+00 1.047317e+00 1.033407e+00 1.014093e+00 9.965177e-01 9.731013e-01 9.518074e-01 9.242257e-01 8.991501e-01 8.673409e-01 8.384210e-01 8.023366e-01 7.695216e-01 7.291429e-01 6.924071e-01 6.477600e-01 6.071168e-01 5.582879e-01 5.138047e-01 4.609568e-01 4.127686e-01 3.561543e-01 3.044771e-01 2.444496e-01 1.895903e-01 1.266110e-01 6.897590e-02 3.617883e-03 -5.628361e-02 -1.233369e-01 -1.848914e-01 -2.528520e-01 -3.153463e-01 -3.833330e-01 -4.459622e-01 -5.130158e-01 -5.748972e-01 -6.400012e-01 -7.001911e-01 -7.622960e-01 -8.198123e-01 -8.778637e-01 -9.317120e-01 -9.846810e-01 -1.033883e+00 -1.080799e+00 -1.124427e+00 -1.164409e+00 -1.201613e+00 -1.233903e+00 -1.263948e+00 -1.287938e+00 -1.310232e+00 -1.325486e+00 -1.339604e+00 -1.345879e+00 -1.351582e+00 -1.348836e+00 -1.346082e+00 -1.334471e+00 -1.323414e+00 -1.303288e+00 -1.284269e+00 -1.256148e+00 -1.229676e+00 -1.194227e+00 -1.160953e+00 -1.118958e+00 -1.079636e+00 -1.031957e+00 -9.874188e-01 -9.349611e-01 -8.860726e-01 -8.297546e-01 -7.773888e-01 -7.181125e-01 -6.631207e-01 -6.017495e-01 -5.449411e-01 -4.822835e-01 -4.244108e-01 -3.612105e-01 -3.029603e-01 
-2.391707e-01 -1.801482e-01 -1.167935e-01 -5.866267e-02 3.312414e-03 6.007011e-02 1.201946e-01 1.751584e-01 2.330173e-01 2.858194e-01 3.410466e-01 3.913649e-01 4.436371e-01 4.911892e-01 5.402213e-01 5.847605e-01 6.303031e-01 6.716157e-01 7.134543e-01 7.513586e-01 7.893144e-01 8.236606e-01 8.575913e-01 8.882627e-01 9.180634e-01 9.449764e-01 9.705800e-01 9.936837e-01 1.015059e+00 1.034333e+00 1.051480e+00 1.066932e+00 1.079879e+00 1.091537e+00 1.100328e+00 1.108238e+00 1.112928e+00 1.117140e+00 1.117785e+00 1.118347e+00 1.114993e+00 1.111947e+00 1.104623e+00 1.097992e+00 1.086703e+00 1.076491e+00 1.061218e+00 1.047402e+00 1.028101e+00 1.010636e+00 9.872416e-01 9.660620e-01 9.384949e-01 9.135235e-01 8.817016e-01 8.528575e-01 8.167101e-01 7.839215e-01 7.434053e-01 7.066238e-01 6.617401e-01 6.209561e-01 5.717682e-01 5.270269e-01 4.736772e-01 4.250935e-01 3.678183e-01 3.155913e-01 2.547332e-01 1.991575e-01 1.351737e-01 7.664887e-02 1.011536e-02 -5.084937e-02 -1.192385e-01 -1.820229e-01 -2.514613e-01 -3.153377e-01 -3.849181e-01 -4.490598e-01 -5.177898e-01 -5.812842e-01 -6.481079e-01 -7.099747e-01 -7.737979e-01 -8.330121e-01 -8.927317e-01 -9.482511e-01 -1.002788e+00 -1.053583e+00 -1.101916e+00 -1.147006e+00 -1.188205e+00 -1.226691e+00 -1.259956e+00 -1.291056e+00 -1.315742e+00 -1.338824e+00 -1.354471e+00 -1.369081e+00 -1.375432e+00 -1.381314e+00 -1.378325e+00 -1.375435e+00 -1.363277e+00 -1.351782e+00 -1.330828e+00 -1.311095e+00 -1.281906e+00 -1.254482e+00 -1.217769e+00 -1.183349e+00 -1.139946e+00 -1.099339e+00 -1.050159e+00 -1.004247e+00 -9.502455e-01 -8.999441e-01 -8.420847e-01 -7.883105e-01 -7.275326e-01 -6.711730e-01 -6.083694e-01 -5.502613e-01 -4.862612e-01 -4.271757e-01 -3.627357e-01 -3.033705e-01 
-2.375353e-01 -1.773262e-01 -1.128216e-01 -5.363296e-02 9.370562e-03 6.706475e-02 1.281054e-01 1.838938e-01 2.425665e-01 2.960910e-01 3.520393e-01 4.029868e-01 4.558950e-01 5.039908e-01 5.535800e-01 5.985829e-01 6.446078e-01 6.863079e-01 7.285569e-01 7.667751e-01 8.050713e-01 8.396602e-01 8.738635e-01 9.047090e-01 9.347181e-01 9.617403e-01 9.874935e-01 1.010647e+00 1.032121e+00 1.051394e+00 1.068598e+00 1.084008e+00 1.096982e+00 1.108569e+00 1.117371e+00 1.125193e+00 1.129891e+00 1.134010e+00 1.134672e+00 1.135150e+00 1.131830e+00 1.128718e+00 1.121452e+00 1.114779e+00 1.103574e+00 1.093345e+00 1.078178e+00 1.064369e+00 1.045185e+00 1.027744e+00 1.004463e+00 9.833104e-01 9.558334e-01 9.308747e-01 8.990953e-01 8.702280e-01 8.340479e-01 8.011761e-01 7.605229e-01 7.235722e-01 6.784179e-01 6.373527e-01 5.877332e-01 5.425739e-01 4.886077e-01 4.394473e-01 3.813520e-01 3.283722e-01 2.664783e-01 2.099619e-01 1.447227e-01 8.506434e-02 1.706080e-02 -4.522764e-02 -1.152870e-01 -1.795743e-01 -2.508593e-01 -3.163979e-01 -3.879678e-01 -4.539028e-01 -5.247232e-01 -5.901053e-01 -6.590705e-01 -7.228748e-01 -7.888345e-01 -8.499850e-01 -9.117756e-01 -9.691737e-01 -1.025653e+00 -1.078210e+00 -1.128295e+00 -1.174970e+00 -1.217673e+00 -1.257508e+00 -1.291975e+00 -1.324137e+00 -1.349681e+00 -1.373495e+00 -1.389627e+00 -1.404609e+00 -1.411056e+00 -1.416936e+00 -1.413657e+00 -1.410392e+00 -1.397575e+00 -1.385352e+00 -1.363408e+00 -1.342631e+00 -1.312164e+00 -1.283429e+00 -1.245212e+00 -1.209274e+00 -1.164202e+00 -1.121933e+00 -1.070984e+00 -1.023327e+00 -9.675178e-01 -9.154495e-01 -8.557956e-01 -8.002831e-01 -7.377680e-01 -6.797399e-01 -6.152896e-01 -5.556129e-01 -4.900792e-01 -4.295448e-01 -3.636970e-01 -3.030129e-01 
-2.361860e-01 -1.746883e-01 -1.088931e-01 -4.855193e-02 1.560433e-02 7.432353e-02 1.363889e-01 1.930855e-01 2.526656e-01 3.069927e-01 3.637403e-01 4.153952e-01 4.690025e-01 5.177187e-01 5.679117e-01 6.134541e-01 6.599906e-01 7.021532e-01 7.448225e-01 7.834285e-01 8.220541e-01 8.569577e-01 8.914006e-01 9.224896e-01 9.526513e-01 9.798493e-01 1.005673e+00 1.028941e+00 1.050413e+00 1.069745e+00 1.086889e+00 1.102315e+00 1.115184e+00 1.126757e+00 1.135429e+00 1.143221e+00 1.147781e+00 1.151871e+00 1.152404e+00 1.152867e+00 1.149445e+00 1.146343e+00 1.139010e+00 1.132382e+00 1.121151e+00 1.111005e+00 1.095852e+00 1.082161e+00 1.063024e+00 1.045726e+00 1.022509e+00 1.001514e+00 9.740956e-01 9.492866e-01 9.175344e-01 8.887848e-01 8.525693e-01 8.197549e-01 7.789700e-01 7.419862e-01 6.965702e-01 6.553499e-01 6.053066e-01 5.598400e-01 5.052597e-01 4.556124e-01 3.966899e-01 3.430204e-01 2.800711e-01 2.226452e-01 1.561160e-01 9.531836e-02 2.579339e-02 -3.786507e-02 -1.096638e-01 -1.755436e-01 -2.487618e-01 -3.160974e-01 -3.897603e-01 -4.576680e-01 -5.306976e-01 -5.981896e-01 -6.694276e-01 -7.354310e-01 -8.036675e-01 -8.670496e-01 -9.310561e-01 -9.906543e-01 -1.049221e+00 -1.103878e+00 -1.155853e+00 -1.204457e+00 -1.248787e+00 -1.290313e+00 -1.326085e+00 -1.359634e+00 -1.386112e+00 -1.410956e+00 -1.427614e+00 -1.443228e+00 -1.449775e+00 -1.455864e+00 -1.452257e+00 -1.448777e+00 -1.435222e+00 -1.422378e+00 -1.399321e+00 -1.377552e+00 -1.345652e+00 -1.315609e+00 -1.275702e+00 -1.238205e+00 -1.191257e+00 -1.147250e+00 -1.094311e+00 -1.044811e+00 -9.869663e-01 -9.330160e-01 -8.713413e-01 -8.139670e-01 -7.494961e-01 -6.896739e-01 -6.233702e-01 -5.620020e-01 -4.947431e-01 -4.326427e-01 -3.652120e-01 -3.030992e-01 
-2.337306e-01 -1.707765e-01 -1.035719e-01 -4.193984e-02 2.347063e-02 8.332770e-02 1.465064e-01 2.042023e-01 2.647694e-01 3.199718e-01 3.775933e-01 4.300119e-01 4.843906e-01 5.337687e-01 5.846382e-01 6.307474e-01 6.778695e-01 7.205077e-01 7.636738e-01 8.026662e-01 8.417007e-01 8.769026e-01 9.116677e-01 9.429686e-01 9.733688e-01 1.000696e+00 1.026681e+00 1.050002e+00 1.071567e+00 1.090886e+00 1.108067e+00 1.123426e+00 1.136295e+00 1.147764e+00 1.156414e+00 1.164081e+00 1.168619e+00 1.172582e+00 1.173107e+00 1.173458e+00 1.170057e+00 1.166872e+00 1.159598e+00 1.152925e+00 1.141795e+00 1.131645e+00 1.116631e+00 1.102976e+00 1.084003e+00 1.066772e+00 1.043726e+00 1.022809e+00 9.955434e-01 9.708029e-01 9.391514e-01 9.104317e-01 8.742288e-01 8.413733e-01 8.004739e-01 7.633429e-01 7.176459e-01 6.761374e-01 6.256094e-01 5.796799e-01 5.243781e-01 4.740633e-01 4.141566e-01 3.595907e-01 2.953773e-01 2.368091e-01 1.687289e-01 1.065351e-01 3.517738e-02 -3.012922e-02 -1.040253e-01 -1.717924e-01 -2.473427e-01 -3.167807e-01 -3.929683e-01 -4.631581e-01 -5.388512e-01 -6.087585e-01 -6.827349e-01 -7.512300e-01 -8.222072e-01 -8.880913e-01 -9.547619e-01 -1.016799e+00 -1.077871e+00 -1.134826e+00 -1.189064e+00 -1.239745e+00 -1.286020e+00 -1.329322e+00 -1.366650e+00 -1.401605e+00 -1.429192e+00 -1.455012e+00 -1.472291e+00 -1.488409e+00 -1.495067e+00 -1.501167e+00 -1.497163e+00 -1.493203e+00 -1.478769e+00 -1.464978e+00 -1.440607e+00 -1.417476e+00 -1.383892e+00 -1.352139e+00 -1.310258e+00 -1.270784e+00 -1.221658e+00 -1.175494e+00 -1.120260e+00 -1.068509e+00 -1.008332e+00 -9.521162e-01 -8.881426e-01 -8.285548e-01 -7.618747e-01 -6.999432e-01 -6.315617e-01 -5.682258e-01 -4.990467e-01 -4.351426e-01 -3.659626e-01 -3.022201e-01 
-2.314674e-01 -1.669530e-01 -9.819654e-02 -3.517958e-02 3.161006e-02 9.269118e-02 1.570922e-01 2.158682e-01 2.775166e-01 3.336715e-01 3.922473e-01 4.455052e-01 5.007215e-01 5.508367e-01 6.024332e-01 6.491846e-01 6.969257e-01 7.401148e-01 7.837914e-01 8.232447e-01 8.626794e-01 8.982524e-01 9.333062e-01 9.648889e-01 9.954679e-01 1.022990e+00 1.049050e+00 1.072484e+00 1.094031e+00 1.113393e+00 1.130479e+00 1.145824e+00 1.158540e+00 1.169956e+00 1.178422e+00 1.186016e+00 1.190362e+00 1.194254e+00 1.194606e+00 1.194907e+00 1.191371e+00 1.188174e+00 1.180820e+00 1.174185e+00 1.163037e+00 1.152982e+00 1.138011e+00 1.124505e+00 1.105627e+00 1.088589e+00 1.065670e+00 1.044972e+00 1.017837e+00 9.933159e-01 9.617628e-01 9.332310e-01 8.970534e-01 8.643170e-01 8.233255e-01 7.862049e-01 7.402533e-01 6.986054e-01 6.476172e-01 6.013586e-01 5.453530e-01 4.944829e-01 4.335980e-01 3.782195e-01 3.127325e-01 2.530712e-01 1.834123e-01 1.198309e-01 4.659228e-02 -2.039934e-02 -9.646217e-02 -1.662027e-01 -2.441759e-01 -3.158538e-01 -3.946777e-01 -4.673390e-01 -5.458263e-01 -6.183886e-01 -6.952505e-01 -7.665235e-01 -8.404011e-01 -9.091138e-01 -9.786160e-01 -1.043451e+00 -1.107197e+00 -1.166830e+00 -1.223497e+00 -1.276644e+00 -1.325014e+00 -1.370480e+00 -1.409491e+00 -1.446222e+00 -1.475014e+00 -1.502148e+00 -1.520105e+00 -1.537018e+00 -1.543801e+00 -1.550146e+00 -1.545709e+00 -1.541438e+00 -1.526038e+00 -1.511405e+00 -1.485584e+00 -1.461130e+00 -1.425684e+00 -1.392202e+00 -1.348133e+00 -1.306615e+00 -1.255072e+00 -1.206647e+00 -1.148865e+00 -1.094734e+00 -1.031968e+00 -9.733421e-01 -9.068187e-01 -8.448682e-01 -7.757402e-01 -7.115533e-01 -6.408719e-01 -5.754301e-01 -5.041285e-01 -4.382935e-01 -3.671824e-01 -3.016947e-01 
-2.278518e-01 -1.616191e-01 -9.120512e-02 -2.667678e-02 4.157856e-02 1.039844e-01 1.696811e-01 2.296170e-01 2.924123e-01 3.495827e-01 4.091750e-01 4.633211e-01 5.194370e-01 5.703256e-01 6.227136e-01 6.701310e-01 7.185590e-01 7.623099e-01 8.065690e-01 8.464798e-01 8.863907e-01 9.223158e-01 9.577383e-01 9.895673e-01 1.020409e+00 1.048074e+00 1.074296e+00 1.097777e+00 1.119398e+00 1.138721e+00 1.155809e+00 1.171047e+00 1.183717e+00 1.194978e+00 1.203371e+00 1.210787e+00 1.215062e+00 1.218776e+00 1.219081e+00 1.219228e+00 1.215690e+00 1.212383e+00 1.205086e+00 1.198399e+00 1.187373e+00 1.177331e+00 1.162544e+00 1.149112e+00 1.130466e+00 1.113552e+00 1.090888e+00 1.070344e+00 1.043455e+00 1.019087e+00 9.877289e-01 9.593123e-01 9.232318e-01 8.905308e-01 8.494867e-01 8.122762e-01 7.660705e-01 7.241609e-01 6.726675e-01 6.259310e-01 5.691250e-01 5.175208e-01 4.555049e-01 3.991032e-01 3.321304e-01 2.711331e-01 1.996228e-01 1.343805e-01 5.892895e-02 -1.004813e-02 -8.866537e-02 -1.607017e-01 -2.415349e-01 -3.157906e-01 -3.977281e-01 -4.732067e-01 -5.549948e-01 -6.305568e-01 -7.108266e-01 -7.852115e-01 -8.625127e-01 -9.343666e-01 -1.007208e+00 -1.075121e+00 -1.142016e+00 -1.204563e+00 -1.264083e+00 -1.319876e+00 -1.370702e+00 -1.418443e+00 -1.459421e+00 -1.497961e+00 -1.528153e+00 -1.556550e+00 -1.575284e+00 -1.592855e+00 -1.599763e+00 -1.606129e+00 -1.601166e+00 -1.596280e+00 -1.579734e+00 -1.563886e+00 -1.536362e+00 -1.510159e+00 -1.472543e+00 -1.436871e+00 -1.390271e+00 -1.346231e+00 -1.291914e+00 -1.240754e+00 -1.180067e+00 -1.123101e+00 -1.057408e+00 -9.959522e-01 -9.265689e-01 -8.618770e-01 -7.900268e-01 -7.232526e-01 -6.500357e-01 -5.822042e-01 -5.085828e-01 -4.405795e-01 -3.673756e-01 -2.999477e-01 
-2.243035e-01 -1.562483e-01 -8.403423e-02 -1.790333e-02 5.194175e-02 1.157539e-01 1.828546e-01 2.440257e-01 3.080628e-01 3.663211e-01 4.270123e-01 4.821186e-01 5.392044e-01 5.909395e-01 6.441754e-01 6.923337e-01 7.414887e-01 7.858777e-01 8.307392e-01 8.711841e-01 9.115670e-01 9.479189e-01 9.836778e-01 1.015824e+00 1.046865e+00 1.074739e+00 1.101028e+00 1.124614e+00 1.146182e+00 1.165519e+00 1.182455e+00 1.197632e+00 1.210077e+00 1.221226e+00 1.229356e+00 1.236635e+00 1.240640e+00 1.244221e+00 1.244286e+00 1.244332e+00 1.240611e+00 1.237258e+00 1.229858e+00 1.223199e+00 1.212162e+00 1.202230e+00 1.187524e+00 1.174283e+00 1.155799e+00 1.139145e+00 1.116699e+00 1.096462e+00 1.069810e+00 1.045763e+00 1.014616e+00 9.864944e-01 9.505444e-01 9.180640e-01 8.770125e-01 8.398969e-01 7.934865e-01 7.514931e-01 6.995413e-01 6.524902e-01 5.949215e-01 5.427243e-01 4.796004e-01 4.222864e-01 3.538314e-01 2.915713e-01 2.181906e-01 1.513153e-01 7.360727e-02 2.621112e-03 -7.862000e-02 -1.530324e-01 -2.368210e-01 -3.137947e-01 -3.989669e-01 -4.774637e-01 -5.626977e-01 -6.415203e-01 -7.253646e-01 -8.031781e-01 -8.840870e-01 -9.594485e-01 -1.035825e+00 -1.107222e+00 -1.177468e+00 -1.243364e+00 -1.305936e+00 -1.364824e+00 -1.418292e+00 -1.468755e+00 -1.511861e+00 -1.552638e+00 -1.584356e+00 -1.614406e+00 -1.633999e+00 -1.652562e+00 -1.659620e+00 -1.666272e+00 -1.660747e+00 -1.655432e+00 -1.637642e+00 -1.620680e+00 -1.591297e+00 -1.563366e+00 -1.523370e+00 -1.485457e+00 -1.436075e+00 -1.389407e+00 -1.332035e+00 -1.277992e+00 -1.214108e+00 -1.154135e+00 -1.085222e+00 -1.020751e+00 -9.482257e-01 -8.806103e-01 -8.057740e-01 -7.362407e-01 -6.602482e-01 -5.898709e-01 -5.137155e-01 -4.434056e-01 -3.679206e-01 -2.984322e-01 
-2.190944e-01 -1.490744e-01 -7.497380e-02 -7.131216e-03 6.436931e-02 1.296713e-01 1.982289e-01 2.607000e-01 3.260256e-01 3.854227e-01 4.472590e-01 5.033656e-01 5.614706e-01 6.140831e-01 6.682218e-01 7.171423e-01 7.670856e-01 8.121226e-01 8.576540e-01 8.986287e-01 9.395565e-01 9.763146e-01 1.012487e+00 1.044912e+00 1.076234e+00 1.104257e+00 1.130700e+00 1.154313e+00 1.175919e+00 1.195175e+00 1.212057e+00 1.227065e+00 1.239392e+00 1.250312e+00 1.258293e+00 1.265315e+00 1.269176e+00 1.272505e+00 1.272464e+00 1.272294e+00 1.268534e+00 1.265032e+00 1.257680e+00 1.250956e+00 1.240066e+00 1.230163e+00 1.215700e+00 1.202583e+00 1.184421e+00 1.167971e+00 1.145898e+00 1.125919e+00 1.099648e+00 1.075875e+00 1.045066e+00 1.017187e+00 9.814696e-01 9.491466e-01 9.081564e-01 8.710540e-01 8.244661e-01 7.822817e-01 7.298484e-01 6.823440e-01 6.239316e-01 5.709662e-01 5.065889e-01 4.481480e-01 3.779964e-01 3.142186e-01 2.386820e-01 1.698803e-01 8.955923e-02 1.623604e-02 -6.805264e-02 -1.451978e-01 -2.324260e-01 -3.124957e-01 -4.014373e-01 -4.833433e-01 -5.725955e-01 -6.550726e-01 -7.430858e-01 -8.247139e-01 -9.098293e-01 -9.890643e-01 -1.069560e+00 -1.144774e+00 -1.218920e+00 -1.288449e+00 -1.354566e+00 -1.416772e+00 -1.473299e+00 -1.526630e+00 -1.572189e+00 -1.615260e+00 -1.648725e+00 -1.680384e+00 -1.700939e+00 -1.720346e+00 -1.727541e+00 -1.734225e+00 -1.728009e+00 -1.721912e+00 -1.702645e+00 -1.684134e+00 -1.652570e+00 -1.622411e+00 -1.579650e+00 -1.538957e+00 -1.486372e+00 -1.436521e+00 -1.375662e+00 -1.318189e+00 -1.250687e+00 -1.187192e+00 -1.114667e+00 -1.046715e+00 -9.706984e-01 -8.997490e-01 -8.216279e-01 -7.489859e-01 -6.699711e-01 -5.967586e-01 -5.178722e-01 -4.450225e-01 -3.671039e-01 -2.953711e-01 
-2.137898e-01 -1.417031e-01 -6.557655e-02 4.062571e-03 7.733875e-02 1.442039e-01 2.143238e-01 2.781617e-01 3.448700e-01 4.054707e-01 4.685370e-01 5.257105e-01 5.849106e-01 6.384709e-01 6.935773e-01 7.433349e-01 7.941168e-01 8.398803e-01 8.861119e-01 9.276968e-01 9.691735e-01 1.006417e+00 1.042975e+00 1.075752e+00 1.107289e+00 1.135529e+00 1.162018e+00 1.185716e+00 1.207216e+00 1.226437e+00 1.243084e+00 1.257961e+00 1.269960e+00 1.280681e+00 1.288285e+00 1.295076e+00 1.298558e+00 1.301664e+00 1.301286e+00 1.300940e+00 1.296928e+00 1.293327e+00 1.285839e+00 1.279121e+00 1.268227e+00 1.258449e+00 1.244118e+00 1.231245e+00 1.213337e+00 1.197237e+00 1.175509e+00 1.155957e+00 1.130077e+00 1.106768e+00 1.076334e+00 1.048904e+00 1.013481e+00 9.815310e-01 9.406772e-01 9.038069e-01 8.571212e-01 8.149598e-01 7.621205e-01 7.143636e-01 6.551707e-01 6.016153e-01 5.360288e-01 4.766071e-01 4.047790e-01 3.395880e-01 2.618874e-01 1.912131e-01 1.082411e-01 3.257562e-02 -5.482981e-02 -1.347786e-01 -2.255471e-01 -3.088540e-01 -4.016970e-01 -4.872258e-01 -5.806584e-01 -6.670755e-01 -7.594476e-01 -8.452441e-01 -9.347799e-01 -1.018303e+00 -1.103150e+00 -1.182647e+00 -1.260934e+00 -1.334601e+00 -1.404506e+00 -1.470554e+00 -1.530371e+00 -1.587098e+00 -1.635316e+00 -1.681186e+00 -1.716563e+00 -1.750293e+00 -1.771922e+00 -1.792565e+00 -1.799942e+00 -1.806961e+00 -1.800024e+00 -1.793347e+00 -1.772493e+00 -1.752526e+00 -1.718597e+00 -1.686202e+00 -1.640426e+00 -1.596858e+00 -1.540767e+00 -1.487569e+00 -1.422888e+00 -1.361779e+00 -1.290313e+00 -1.223064e+00 -1.146587e+00 -1.074918e+00 -9.950880e-01 -9.205807e-01 -8.388812e-01 -7.629279e-01 -6.806304e-01 -6.044062e-01 -5.225631e-01 -4.470244e-01 -3.664793e-01 -2.923785e-01 