# vtk DataFile Version 2.0
Comment goes here
ASCII

DATASET STRUCTURED_POINTS
FIELD FieldData 1
TIME 1 1 double
0.12500000
DIMENSIONS    128   128   1

ORIGIN    0.000   0.000   0.000
SPACING   0.039062 0.039062   1.000

POINT_DATA   16384
SCALARS uX double
LOOKUP_TABLE default

-2.056185e-01 -1.687387e-01 -1.339005e-01 -9.690586e-02 -6.186244e-02 -2.512857e-02 9.781580e-03 4.590650e-02 8.036764e-02 1.155627e-01 1.492813e-01 1.832519e-01 2.159561e-01 2.484327e-01 2.798705e-01 3.106073e-01 3.405458e-01 3.693192e-01 3.975436e-01 4.241511e-01 4.504640e-01 4.747236e-01 4.989443e-01 5.206938e-01 5.426582e-01 5.617550e-01 5.813154e-01 5.976360e-01 6.146609e-01 6.281012e-01 6.424750e-01 6.529499e-01 6.645730e-01 6.720170e-01 6.808057e-01 6.851726e-01 6.910592e-01 6.923232e-01 6.952566e-01 6.934126e-01 6.933592e-01 6.884238e-01 6.853684e-01 6.773811e-01 6.713286e-01 6.603523e-01 6.513290e-01 6.374512e-01 6.255069e-01 6.088392e-01 5.940485e-01 5.747271e-01 5.571903e-01 5.353746e-01 5.152185e-01 4.910898e-01 4.684677e-01 4.422267e-01 4.173173e-01 3.891819e-01 3.621877e-01 3.323898e-01 3.035353e-01 2.723176e-01 2.418463e-01 2.094601e-01 1.776317e-01 1.443339e-01 1.114213e-01 7.747281e-02 4.375941e-02 9.424505e-03 -2.479835e-02 -5.925241e-02 -9.368711e-02 -1.279892e-01 -1.623331e-01 -1.962068e-01 -2.301525e-01 -2.633142e-01 -2.965497e-01 -3.287062e-01 -3.609147e-01 -3.917616e-01 -4.226206e-01 -4.518414e-01 -4.810234e-01 -5.082896e-01 -5.354630e-01 -5.604366e-01 -5.852681e-01 -6.076062e-01 -6.297660e-01 -6.491277e-01 -6.682954e-01 -6.843520e-01 -7.002258e-01 -7.126723e-01 -7.249792e-01 -7.335475e-01 -7.420549e-01 -7.465280e-01 -7.510550e-01 -7.512791e-01 -7.517072e-01 -7.476031e-01 -7.438842e-01 -7.354540e-01 -7.276156e-01 -7.149461e-01 -7.030923e-01 -6.863539e-01 -6.706627e-01 -6.501031e-01 -6.308197e-01 -6.067543e-01 -5.841815e-01 -5.569812e-01 -5.314672e-01 -5.015439e-01 -4.734698e-01 -4.412619e-01 -4.110287e-01 -3.769874e-01 -3.450042e-01 -3.095809e-01 -2.762547e-01 -2.398910e-01 
-2.051160e-01 -1.681941e-01 -1.333693e-01 -9.633466e-02 -6.130546e-02 -2.453357e-02 1.036237e-02 4.652321e-02 8.097074e-02 1.161995e-01 1.499056e-01 1.839076e-01 2.166003e-01 2.491060e-01 2.805333e-01 3.112966e-01 3.412254e-01 3.700225e-01 3.982375e-01 4.248658e-01 4.511690e-01 4.754462e-01 4.996564e-01 5.214203e-01 5.433727e-01 5.624804e-01 5.820266e-01 5.983548e-01 6.153627e-01 6.288072e-01 6.431608e-01 6.536369e-01 6.652359e-01 6.726781e-01 6.814385e-01 6.858010e-01 6.916548e-01 6.929119e-01 6.958079e-01 6.939548e-01 6.938592e-01 6.889127e-01 6.858101e-01 6.778098e-01 6.717053e-01 6.607142e-01 6.516343e-01 6.377397e-01 6.257346e-01 6.090483e-01 5.941930e-01 5.748508e-01 5.572463e-01 5.354076e-01 5.151817e-01 4.910276e-01 4.683345e-01 4.420657e-01 4.170852e-01 3.889195e-01 3.618558e-01 3.320250e-01 3.031040e-01 2.718511e-01 2.413180e-01 2.088943e-01 1.770105e-01 1.436732e-01 1.107133e-01 7.672376e-02 4.297271e-02 8.595625e-03 -2.565379e-02 -6.015071e-02 -9.459964e-02 -1.289448e-01 -1.632896e-01 -1.972061e-01 -2.311390e-01 -2.643426e-01 -2.975514e-01 -3.297484e-01 -3.619164e-01 -3.928020e-01 -4.236076e-01 -4.528647e-01 -4.819813e-01 -5.092808e-01 -5.363785e-01 -5.613818e-01 -5.861293e-01 -6.084928e-01 -6.305621e-01 -6.499444e-01 -6.690176e-01 -6.850891e-01 -7.008667e-01 -7.133218e-01 -7.255331e-01 -7.341034e-01 -7.425179e-01 -7.469858e-01 -7.514248e-01 -7.516365e-01 -7.519830e-01 -7.478594e-01 -7.440668e-01 -7.356103e-01 -7.277073e-01 -7.150056e-01 -7.030969e-01 -6.863210e-01 -6.705850e-01 -6.499838e-01 -6.306656e-01 -6.065556e-01 -5.839576e-01 -5.567109e-01 -5.311807e-01 -5.012100e-01 -4.731277e-01 -4.408725e-01 -4.106380e-01 -3.765499e-01 -3.445710e-01 -3.091022e-01 -2.757845e-01 -2.393770e-01 
-2.061599e-01 -1.690793e-01 -1.340608e-01 -9.687849e-02 -6.166584e-02 -2.475787e-02 1.031017e-02 4.659556e-02 8.120340e-02 1.165457e-01 1.504004e-01 1.845057e-01 2.173358e-01 2.499354e-01 2.814895e-01 3.123382e-01 3.423840e-01 3.712587e-01 3.995818e-01 4.262804e-01 4.526835e-01 4.770243e-01 5.013269e-01 5.231479e-01 5.451861e-01 5.643446e-01 5.839708e-01 6.003435e-01 6.174261e-01 6.309090e-01 6.453325e-01 6.558404e-01 6.675053e-01 6.749723e-01 6.837948e-01 6.881746e-01 6.940867e-01 6.953532e-01 6.983035e-01 6.964511e-01 6.964052e-01 6.914501e-01 6.883922e-01 6.803733e-01 6.743073e-01 6.632874e-01 6.542391e-01 6.403052e-01 6.283235e-01 6.115877e-01 5.967466e-01 5.773454e-01 5.597450e-01 5.378386e-01 5.176059e-01 4.933767e-01 4.706652e-01 4.443152e-01 4.193044e-01 3.910530e-01 3.639466e-01 3.340272e-01 3.050509e-01 2.737077e-01 2.431065e-01 2.105918e-01 1.786270e-01 1.451986e-01 1.121443e-01 7.806375e-02 4.420463e-02 9.736086e-03 -2.463561e-02 -5.922523e-02 -9.381132e-02 -1.282517e-01 -1.627492e-01 -1.967648e-01 -2.308665e-01 -2.641748e-01 -2.975688e-01 -3.298775e-01 -3.622472e-01 -3.932524e-01 -4.242752e-01 -4.536603e-01 -4.830081e-01 -5.104433e-01 -5.377831e-01 -5.629282e-01 -5.879248e-01 -6.104331e-01 -6.327530e-01 -6.522791e-01 -6.715977e-01 -6.878067e-01 -7.038170e-01 -7.163972e-01 -7.288205e-01 -7.374972e-01 -7.460950e-01 -7.506447e-01 -7.552310e-01 -7.554946e-01 -7.559468e-01 -7.518414e-01 -7.481088e-01 -7.396349e-01 -7.317444e-01 -7.189897e-01 -7.070469e-01 -6.901845e-01 -6.743707e-01 -6.536531e-01 -6.342184e-01 -6.099675e-01 -5.872204e-01 -5.598141e-01 -5.341095e-01 -5.039669e-01 -4.756923e-01 -4.432588e-01 -4.128211e-01 -3.785539e-01 -3.463673e-01 -3.107230e-01 -2.771985e-01 -2.406227e-01 
-2.061953e-01 -1.688718e-01 -1.336874e-01 -9.627719e-02 -6.091032e-02 -2.379015e-02 1.142096e-02 4.790282e-02 8.264339e-02 1.181668e-01 1.521448e-01 1.864165e-01 2.193610e-01 2.521128e-01 2.837732e-01 3.147604e-01 3.449043e-01 3.739041e-01 4.023171e-01 4.291277e-01 4.556121e-01 4.800517e-01 5.044266e-01 5.263333e-01 5.484340e-01 5.676652e-01 5.873435e-01 6.037759e-01 6.208998e-01 6.344293e-01 6.488828e-01 6.594245e-01 6.711075e-01 6.785956e-01 6.874238e-01 6.918120e-01 6.977171e-01 6.989790e-01 7.019087e-01 7.000387e-01 6.999580e-01 6.949719e-01 6.918642e-01 6.838007e-01 6.776693e-01 6.665907e-01 6.574605e-01 6.434540e-01 6.313736e-01 6.145510e-01 5.995944e-01 5.800927e-01 5.623603e-01 5.403403e-01 5.199600e-01 4.956049e-01 4.727317e-01 4.462450e-01 4.210604e-01 3.926627e-01 3.653729e-01 3.352990e-01 3.061328e-01 2.746286e-01 2.438340e-01 2.111531e-01 1.789947e-01 1.453959e-01 1.121511e-01 7.789692e-02 4.385298e-02 9.208149e-03 -2.534016e-02 -6.010870e-02 -9.486134e-02 -1.294835e-01 -1.641363e-01 -1.983370e-01 -2.325821e-01 -2.660794e-01 -2.996049e-01 -3.321069e-01 -3.645966e-01 -3.957993e-01 -4.269313e-01 -4.565174e-01 -4.859642e-01 -5.136022e-01 -5.410311e-01 -5.663779e-01 -5.914532e-01 -6.141580e-01 -6.365453e-01 -6.562568e-01 -6.756295e-01 -6.920064e-01 -7.080546e-01 -7.207779e-01 -7.332196e-01 -7.420071e-01 -7.506005e-01 -7.552218e-01 -7.597775e-01 -7.600682e-01 -7.604614e-01 -7.563348e-01 -7.525138e-01 -7.439693e-01 -7.359615e-01 -7.230883e-01 -7.110013e-01 -6.939764e-01 -6.779952e-01 -6.570771e-01 -6.374566e-01 -6.129745e-01 -5.900288e-01 -5.623689e-01 -5.364586e-01 -5.060484e-01 -4.775662e-01 -4.448590e-01 -4.142166e-01 -3.796765e-01 -3.472918e-01 -3.113809e-01 -2.776677e-01 -2.408357e-01 
-2.077625e-01 -1.700783e-01 -1.345179e-01 -9.677168e-02 -6.105100e-02 -2.362072e-02 1.192076e-02 4.868713e-02 8.373460e-02 1.195181e-01 1.537802e-01 1.882891e-01 2.214963e-01 2.544641e-01 2.863669e-01 3.175505e-01 3.479181e-01 3.770960e-01 4.057150e-01 4.326865e-01 4.593602e-01 4.839443e-01 5.084928e-01 5.305279e-01 5.527875e-01 5.721312e-01 5.919545e-01 6.084837e-01 6.257394e-01 6.393499e-01 6.539228e-01 6.645294e-01 6.763199e-01 6.838564e-01 6.927804e-01 6.971996e-01 7.031885e-01 7.044631e-01 7.074642e-01 7.055872e-01 7.055645e-01 7.005506e-01 6.974859e-01 6.893727e-01 6.832675e-01 6.721164e-01 6.629939e-01 6.488918e-01 6.367985e-01 6.198577e-01 6.048659e-01 5.852244e-01 5.674334e-01 5.452537e-01 5.247905e-01 5.002584e-01 4.772778e-01 4.505995e-01 4.252834e-01 3.966827e-01 3.692382e-01 3.389530e-01 3.096098e-01 2.778887e-01 2.468965e-01 2.139955e-01 1.816198e-01 1.477994e-01 1.143189e-01 7.984192e-02 4.554475e-02 1.067567e-02 -2.414313e-02 -5.913868e-02 -9.417920e-02 -1.290332e-01 -1.639918e-01 -1.984320e-01 -2.330015e-01 -2.667486e-01 -3.006181e-01 -3.333829e-01 -3.662363e-01 -3.977166e-01 -4.292314e-01 -4.591102e-01 -4.889568e-01 -5.169013e-01 -5.447430e-01 -5.704060e-01 -5.959008e-01 -6.189250e-01 -6.417296e-01 -6.617545e-01 -6.815311e-01 -6.982038e-01 -7.146293e-01 -7.276178e-01 -7.403958e-01 -7.494042e-01 -7.582785e-01 -7.630633e-01 -7.678316e-01 -7.682173e-01 -7.687442e-01 -7.646364e-01 -7.608633e-01 -7.522577e-01 -7.442097e-01 -7.311961e-01 -7.189831e-01 -7.017436e-01 -6.855572e-01 -6.643596e-01 -6.444649e-01 -6.196503e-01 -5.963743e-01 -5.683424e-01 -5.420597e-01 -5.112522e-01 -4.823701e-01 -4.492536e-01 -4.181971e-01 -3.832476e-01 -3.504463e-01 -3.141356e-01 -2.800129e-01 -2.427981e-01 
-2.083109e-01 -1.701812e-01 -1.342757e-01 -9.611300e-02 -6.007021e-02 -2.225350e-02 1.358756e-02 5.071057e-02 8.603628e-02 1.221477e-01 1.566682e-01 1.914778e-01 2.249250e-01 2.581677e-01 2.902932e-01 3.217271e-01 3.523007e-01 3.817051e-01 4.105135e-01 4.376882e-01 4.645347e-01 4.892989e-01 5.140028e-01 5.361951e-01 5.585922e-01 5.780703e-01 5.980126e-01 6.146535e-01 6.320093e-01 6.457088e-01 6.603623e-01 6.710353e-01 6.828866e-01 6.904670e-01 6.994314e-01 7.038717e-01 7.098799e-01 7.111524e-01 7.141506e-01 7.122477e-01 7.121985e-01 7.071341e-01 7.040178e-01 6.958285e-01 6.896449e-01 6.783917e-01 6.691623e-01 6.549315e-01 6.427017e-01 6.256058e-01 6.104471e-01 5.906247e-01 5.726363e-01 5.502516e-01 5.295615e-01 5.048020e-01 4.815670e-01 4.546415e-01 4.290463e-01 4.001817e-01 3.724371e-01 3.418744e-01 3.122147e-01 2.802054e-01 2.488849e-01 2.156877e-01 1.829772e-01 1.488546e-01 1.150374e-01 8.025386e-02 4.562226e-02 1.044267e-02 -2.470468e-02 -6.001499e-02 -9.537561e-02 -1.305497e-01 -1.658184e-01 -2.005856e-01 -2.354547e-01 -2.695375e-01 -3.036963e-01 -3.368071e-01 -3.699403e-01 -4.017778e-01 -4.335637e-01 -4.638101e-01 -4.939196e-01 -5.222394e-01 -5.503351e-01 -5.763761e-01 -6.021136e-01 -6.255106e-01 -6.485424e-01 -6.689244e-01 -6.889063e-01 -7.059073e-01 -7.225081e-01 -7.357814e-01 -7.486955e-01 -7.579302e-01 -7.668917e-01 -7.718304e-01 -7.766280e-01 -7.770837e-01 -7.775754e-01 -7.734459e-01 -7.695692e-01 -7.608473e-01 -7.526271e-01 -7.394049e-01 -7.269549e-01 -7.094219e-01 -6.929409e-01 -6.713762e-01 -6.511393e-01 -6.258986e-01 -6.022449e-01 -5.737440e-01 -5.470605e-01 -5.157575e-01 -4.864636e-01 -4.528403e-01 -4.213719e-01 -3.859176e-01 -3.527133e-01 -3.159105e-01 -2.814003e-01 -2.437140e-01 
-2.103601e-01 -1.716647e-01 -1.351980e-01 -9.650993e-02 -5.994172e-02 -2.164114e-02 1.468859e-02 5.225492e-02 8.803334e-02 1.245497e-01 1.594887e-01 1.946676e-01 2.285014e-01 2.620806e-01 2.945629e-01 3.263029e-01 3.572054e-01 3.868876e-01 4.159989e-01 4.434244e-01 4.705487e-01 4.955377e-01 5.204957e-01 5.428873e-01 5.655155e-01 5.851678e-01 6.053193e-01 6.221093e-01 6.396533e-01 6.534769e-01 6.682985e-01 6.790703e-01 6.910703e-01 6.987234e-01 7.078174e-01 7.123033e-01 7.184217e-01 7.197112e-01 7.227992e-01 7.208829e-01 7.209013e-01 7.157910e-01 7.127178e-01 7.044484e-01 6.982806e-01 6.869116e-01 6.776677e-01 6.632848e-01 6.510074e-01 6.337234e-01 6.184815e-01 5.984367e-01 5.803278e-01 5.576890e-01 5.368402e-01 5.117987e-01 4.883671e-01 4.611364e-01 4.353079e-01 4.061196e-01 3.781071e-01 3.472074e-01 3.172479e-01 2.848929e-01 2.532438e-01 2.196959e-01 1.866308e-01 1.521554e-01 1.179604e-01 8.282274e-02 4.779239e-02 1.225708e-02 -2.330884e-02 -5.897836e-02 -9.477704e-02 -1.303171e-01 -1.660439e-01 -2.011879e-01 -2.365365e-01 -2.710117e-01 -3.056728e-01 -3.391958e-01 -3.728553e-01 -4.051279e-01 -4.374642e-01 -4.681697e-01 -4.988517e-01 -5.276526e-01 -5.563381e-01 -5.828764e-01 -6.092126e-01 -6.331128e-01 -6.567399e-01 -6.776164e-01 -6.981739e-01 -7.156423e-01 -7.327792e-01 -7.464716e-01 -7.598606e-01 -7.694436e-01 -7.787967e-01 -7.839917e-01 -7.890775e-01 -7.896793e-01 -7.903393e-01 -7.862330e-01 -7.823946e-01 -7.735670e-01 -7.652516e-01 -7.517963e-01 -7.391216e-01 -7.212371e-01 -7.044130e-01 -6.823937e-01 -6.617121e-01 -6.359336e-01 -6.117539e-01 -5.826547e-01 -5.553866e-01 -5.234475e-01 -4.935327e-01 -4.592572e-01 -4.271520e-01 -3.910483e-01 -3.572090e-01 -3.197747e-01 -2.846452e-01 -2.463567e-01 
-2.113733e-01 -1.720269e-01 -1.350351e-01 -9.574087e-02 -5.868310e-02 -1.982212e-02 1.696248e-02 5.504456e-02 9.124524e-02 1.282350e-01 1.635662e-01 1.991786e-01 2.333769e-01 2.673524e-01 3.001733e-01 3.322744e-01 3.634908e-01 3.935002e-01 4.229008e-01 4.506205e-01 4.780094e-01 5.032597e-01 5.284569e-01 5.510772e-01 5.739186e-01 5.937668e-01 6.141048e-01 6.310582e-01 6.487615e-01 6.627163e-01 6.776697e-01 6.885405e-01 7.006445e-01 7.083645e-01 7.175342e-01 7.220546e-01 7.282195e-01 7.295102e-01 7.326141e-01 7.306645e-01 7.306663e-01 7.254867e-01 7.223618e-01 7.139856e-01 7.077281e-01 6.962137e-01 6.868393e-01 6.722715e-01 6.598204e-01 6.423122e-01 6.268519e-01 6.065445e-01 5.881719e-01 5.652344e-01 5.440776e-01 5.187045e-01 4.949228e-01 4.673317e-01 4.411149e-01 4.115422e-01 3.831084e-01 3.518050e-01 3.213975e-01 2.886244e-01 2.565072e-01 2.225311e-01 1.889851e-01 1.540744e-01 1.193922e-01 8.381438e-02 4.829647e-02 1.231672e-02 -2.373228e-02 -5.985134e-02 -9.612524e-02 -1.321220e-01 -1.683144e-01 -2.039255e-01 -2.397295e-01 -2.746856e-01 -3.097931e-01 -3.438141e-01 -3.779123e-01 -4.107022e-01 -4.434714e-01 -4.747135e-01 -5.058231e-01 -5.351769e-01 -5.642835e-01 -5.913840e-01 -6.181311e-01 -6.425912e-01 -6.666115e-01 -6.880296e-01 -7.089518e-01 -7.269232e-01 -7.443823e-01 -7.585162e-01 -7.721685e-01 -7.821075e-01 -7.916481e-01 -7.970907e-01 -8.022727e-01 -8.029950e-01 -8.036475e-01 -7.995218e-01 -7.955648e-01 -7.865729e-01 -7.780269e-01 -7.642657e-01 -7.512539e-01 -7.329334e-01 -7.156773e-01 -6.931099e-01 -6.719179e-01 -6.455023e-01 -6.207532e-01 -5.909531e-01 -5.630771e-01 -5.303991e-01 -4.998576e-01 -4.648287e-01 -4.320957e-01 -3.952444e-01 -3.607905e-01 -3.226306e-01 -2.869103e-01 -2.479298e-01 
-2.138353e-01 -1.737144e-01 -1.359727e-01 -9.596279e-02 -5.820704e-02 -1.868937e-02 1.874145e-02 5.742348e-02 9.422087e-02 1.317577e-01 1.676395e-01 2.037507e-01 2.384570e-01 2.728871e-01 3.061771e-01 3.386921e-01 3.703412e-01 4.007267e-01 4.305256e-01 4.585850e-01 4.863394e-01 5.118943e-01 5.374249e-01 5.603151e-01 5.834589e-01 6.035428e-01 6.241531e-01 6.413081e-01 6.592551e-01 6.733773e-01 6.885469e-01 6.995509e-01 7.118447e-01 7.196628e-01 7.289963e-01 7.335784e-01 7.398807e-01 7.411947e-01 7.444083e-01 7.424408e-01 7.425222e-01 7.372805e-01 7.342016e-01 7.257163e-01 7.194672e-01 7.077942e-01 6.983862e-01 6.836093e-01 6.710783e-01 6.533107e-01 6.377207e-01 6.171057e-01 5.985514e-01 5.752616e-01 5.538700e-01 5.281056e-01 5.040368e-01 4.760217e-01 4.494676e-01 4.194456e-01 3.906281e-01 3.588575e-01 3.280241e-01 2.947728e-01 2.621929e-01 2.277330e-01 1.936924e-01 1.582963e-01 1.230922e-01 8.702934e-02 5.096590e-02 1.450086e-02 -2.211510e-02 -5.872234e-02 -9.558391e-02 -1.320765e-01 -1.688781e-01 -2.049988e-01 -2.414358e-01 -2.769226e-01 -3.126894e-01 -3.472689e-01 -3.820560e-01 -4.154376e-01 -4.489267e-01 -4.807963e-01 -5.126558e-01 -5.426713e-01 -5.725531e-01 -6.003420e-01 -6.278796e-01 -6.530412e-01 -6.778512e-01 -6.999634e-01 -7.216525e-01 -7.402842e-01 -7.584600e-01 -7.731891e-01 -7.874770e-01 -7.979131e-01 -8.079762e-01 -8.137859e-01 -8.193479e-01 -8.202801e-01 -8.211462e-01 -8.170539e-01 -8.131288e-01 -8.039849e-01 -7.952844e-01 -7.811884e-01 -7.678422e-01 -7.490178e-01 -7.312641e-01 -7.080470e-01 -6.862190e-01 -6.590379e-01 -6.335449e-01 -6.028971e-01 -5.742019e-01 -5.406274e-01 -5.092234e-01 -4.732806e-01 -4.396706e-01 -4.019147e-01 -3.665933e-01 -3.275591e-01 -2.909996e-01 -2.511901e-01 
-2.152379e-01 -1.742567e-01 -1.358087e-01 -9.500203e-02 -5.659018e-02 -1.633920e-02 2.169972e-02 6.105439e-02 9.841555e-02 1.365685e-01 1.729738e-01 2.096490e-01 2.448425e-01 2.797884e-01 3.135317e-01 3.465174e-01 3.785878e-01 4.094005e-01 4.395889e-01 4.680331e-01 4.961445e-01 5.220419e-01 5.478963e-01 5.710865e-01 5.945197e-01 6.148611e-01 6.357257e-01 6.530958e-01 6.712615e-01 6.855569e-01 7.009098e-01 7.120454e-01 7.244869e-01 7.323952e-01 7.418407e-01 7.464713e-01 7.528490e-01 7.541684e-01 7.574190e-01 7.554121e-01 7.554892e-01 7.501611e-01 7.470330e-01 7.384116e-01 7.320641e-01 7.202031e-01 7.106433e-01 6.956252e-01 6.828851e-01 6.648229e-01 6.489636e-01 6.280020e-01 6.091169e-01 5.854316e-01 5.636483e-01 5.374440e-01 5.129255e-01 4.844320e-01 4.573754e-01 4.268433e-01 3.974770e-01 3.651719e-01 3.337521e-01 2.999486e-01 2.667538e-01 2.317303e-01 1.970559e-01 1.610894e-01 1.252417e-01 8.860439e-02 5.189543e-02 1.485280e-02 -2.240418e-02 -5.959367e-02 -9.708744e-02 -1.341704e-01 -1.715933e-01 -2.083177e-01 -2.453652e-01 -2.814747e-01 -3.178434e-01 -3.530707e-01 -3.884540e-01 -4.225130e-01 -4.565958e-01 -4.891741e-01 -5.216270e-01 -5.523799e-01 -5.828539e-01 -6.114006e-01 -6.395243e-01 -6.654490e-01 -6.908291e-01 -7.136876e-01 -7.359148e-01 -7.552474e-01 -7.739084e-01 -7.892596e-01 -8.039550e-01 -8.148991e-01 -8.252659e-01 -8.314358e-01 -8.371731e-01 -8.382892e-01 -8.391826e-01 -8.350784e-01 -8.310208e-01 -8.216613e-01 -8.126662e-01 -7.981557e-01 -7.843607e-01 -7.649395e-01 -7.466001e-01 -7.226311e-01 -7.001049e-01 -6.720503e-01 -6.457756e-01 -6.141697e-01 -5.846396e-01 -5.500591e-01 -5.177959e-01 -4.808328e-01 -4.463646e-01 -4.076022e-01 -3.714438e-01 -3.314387e-01 -2.940781e-01 -2.533485e-01 
-2.180093e-01 -1.760406e-01 -1.366510e-01 -9.493777e-02 -5.565547e-02 -1.457733e-02 2.426310e-02 6.437044e-02 1.024689e-01 1.413066e-01 1.783909e-01 2.156899e-01 2.515098e-01 2.870247e-01 3.213468e-01 3.548516e-01 3.874564e-01 4.187416e-01 4.494225e-01 4.782944e-01 5.068576e-01 5.331388e-01 5.594051e-01 5.829355e-01 6.067414e-01 6.273796e-01 6.485788e-01 6.662027e-01 6.846663e-01 6.991728e-01 7.147889e-01 7.260929e-01 7.387645e-01 7.467979e-01 7.564415e-01 7.611521e-01 7.676958e-01 7.690475e-01 7.724302e-01 7.704039e-01 7.705760e-01 7.651725e-01 7.620975e-01 7.533401e-01 7.469980e-01 7.349369e-01 7.253284e-01 7.100439e-01 6.971951e-01 6.788001e-01 6.627670e-01 6.414087e-01 6.222815e-01 5.981404e-01 5.760456e-01 5.493338e-01 5.244355e-01 4.953920e-01 4.678906e-01 4.367761e-01 4.069056e-01 3.739962e-01 3.420196e-01 3.075995e-01 2.738029e-01 2.381585e-01 2.028449e-01 1.662588e-01 1.297415e-01 9.248855e-02 5.508501e-02 1.743024e-02 -2.054284e-02 -5.834473e-02 -9.657497e-02 -1.342773e-01 -1.724584e-01 -2.098182e-01 -2.476491e-01 -2.844207e-01 -3.216032e-01 -3.575298e-01 -3.937629e-01 -4.285676e-01 -4.635407e-01 -4.969166e-01 -5.303019e-01 -5.619041e-01 -5.933489e-01 -6.227888e-01 -6.519108e-01 -6.787557e-01 -7.051421e-01 -7.289209e-01 -7.521338e-01 -7.723505e-01 -7.919398e-01 -8.080955e-01 -8.236189e-01 -8.352408e-01 -8.462906e-01 -8.529655e-01 -8.591984e-01 -8.606073e-01 -8.617747e-01 -8.577228e-01 -8.536956e-01 -8.441350e-01 -8.349199e-01 -8.199588e-01 -8.057030e-01 -7.856022e-01 -7.665855e-01 -7.417416e-01 -7.183579e-01 -6.892765e-01 -6.620073e-01 -6.292703e-01 -5.986545e-01 -5.628859e-01 -5.294898e-01 -4.913244e-01 -4.557148e-01 -4.157716e-01 -3.784950e-01 -3.373579e-01 -2.989252e-01 -2.571307e-01 
-2.196919e-01 -1.766497e-01 -1.363723e-01 -9.367172e-02 -5.356892e-02 -1.158727e-02 2.801084e-02 6.894360e-02 1.077432e-01 1.473354e-01 1.850710e-01 2.230604e-01 2.594872e-01 2.956345e-01 3.305232e-01 3.646063e-01 3.977394e-01 4.295511e-01 4.607221e-01 4.900693e-01 5.190832e-01 5.457881e-01 5.724637e-01 5.963656e-01 6.205378e-01 6.414949e-01 6.630165e-01 6.809068e-01 6.996487e-01 7.143700e-01 7.302206e-01 7.416887e-01 7.545520e-01 7.626994e-01 7.724922e-01 7.772663e-01 7.839160e-01 7.852792e-01 7.887227e-01 7.866534e-01 7.868372e-01 7.813324e-01 7.782150e-01 7.692942e-01 7.628495e-01 7.505593e-01 7.407815e-01 7.251996e-01 7.121089e-01 6.933477e-01 6.769955e-01 6.552036e-01 6.356776e-01 6.110395e-01 5.884666e-01 5.612005e-01 5.357480e-01 5.061012e-01 4.779760e-01 4.462186e-01 4.156636e-01 3.820817e-01 3.493710e-01 3.142585e-01 2.796907e-01 2.433425e-01 2.072332e-01 1.699386e-01 1.326131e-01 9.465082e-02 5.643738e-02 1.807328e-02 -2.070313e-02 -5.921655e-02 -9.823807e-02 -1.366594e-01 -1.756174e-01 -2.137114e-01 -2.523060e-01 -2.898364e-01 -3.277730e-01 -3.644927e-01 -4.014761e-01 -4.371166e-01 -4.728424e-01 -5.071018e-01 -5.412468e-01 -5.737793e-01 -6.059922e-01 -6.364006e-01 -6.662940e-01 -6.941274e-01 -7.212762e-01 -7.460345e-01 -7.699797e-01 -7.911284e-01 -8.113905e-01 -8.283844e-01 -8.444856e-01 -8.568015e-01 -8.682955e-01 -8.754715e-01 -8.819785e-01 -8.836540e-01 -8.848956e-01 -8.808472e-01 -8.766759e-01 -8.668436e-01 -8.572622e-01 -8.417609e-01 -8.269276e-01 -8.060425e-01 -7.862619e-01 -7.604283e-01 -7.361298e-01 -7.059014e-01 -6.776080e-01 -6.436189e-01 -6.119123e-01 -5.748373e-01 -5.403239e-01 -5.008432e-01 -4.641244e-01 -4.228941e-01 -3.845432e-01 -3.421748e-01 -3.027214e-01 -2.597697e-01 
-2.226259e-01 -1.783796e-01 -1.369668e-01 -9.317045e-02 -5.202692e-02 -9.052558e-03 3.149756e-02 7.332912e-02 1.130008e-01 1.534085e-01 1.919457e-01 2.306779e-01 2.678445e-01 3.046705e-01 3.402438e-01 3.749479e-01 4.087150e-01 4.410937e-01 4.728501e-01 5.027121e-01 5.322636e-01 5.594311e-01 5.865963e-01 6.109085e-01 6.355225e-01 6.568374e-01 6.787540e-01 6.969502e-01 7.160424e-01 7.310183e-01 7.471775e-01 7.588497e-01 7.719827e-01 7.802835e-01 7.903090e-01 7.951842e-01 8.020301e-01 8.034384e-01 8.070397e-01 8.049540e-01 8.052529e-01 7.996638e-01 7.966123e-01 7.875324e-01 7.810963e-01 7.685665e-01 7.587310e-01 7.428253e-01 7.296021e-01 7.104321e-01 6.938655e-01 6.715826e-01 6.517554e-01 6.265506e-01 6.035882e-01 5.756894e-01 5.497607e-01 5.194277e-01 4.907446e-01 4.582615e-01 4.270749e-01 3.927420e-01 3.593357e-01 3.234604e-01 2.881439e-01 2.510321e-01 2.141321e-01 1.760808e-01 1.379325e-01 9.922454e-02 6.016396e-02 2.106458e-02 -1.857820e-02 -5.782153e-02 -9.772702e-02 -1.368822e-01 -1.767438e-01 -2.155885e-01 -2.551119e-01 -2.934250e-01 -3.323241e-01 -3.698750e-01 -4.078645e-01 -4.443992e-01 -4.811842e-01 -5.164114e-01 -5.516748e-01 -5.852523e-01 -6.186420e-01 -6.501658e-01 -6.812846e-01 -7.102839e-01 -7.386841e-01 -7.646251e-01 -7.898117e-01 -8.121119e-01 -8.335567e-01 -8.516113e-01 -8.687781e-01 -8.819983e-01 -8.943779e-01 -9.022363e-01 -9.093890e-01 -9.114680e-01 -9.130661e-01 -9.091017e-01 -9.049658e-01 -8.948792e-01 -8.850026e-01 -8.689146e-01 -8.534695e-01 -8.316948e-01 -8.110214e-01 -7.840442e-01 -7.586233e-01 -7.270590e-01 -6.974746e-01 -6.620239e-01 -6.289210e-01 -5.903234e-01 -5.543680e-01 -5.133608e-01 -4.752050e-01 -4.324905e-01 -3.927472e-01 -3.489707e-01 -3.081975e-01 -2.639346e-01 
-2.244366e-01 -1.789008e-01 -1.364195e-01 -9.144789e-02 -4.932397e-02 -5.281562e-03 3.616953e-02 7.897224e-02 1.194759e-01 1.607695e-01 2.000799e-01 2.396232e-01 2.775126e-01 3.150835e-01 3.513347e-01 3.867226e-01 4.211249e-01 4.541288e-01 4.864771e-01 5.169052e-01 5.470027e-01 5.746759e-01 6.023377e-01 6.270932e-01 6.521516e-01 6.738465e-01 6.961537e-01 7.146668e-01 7.340962e-01 7.493275e-01 7.657719e-01 7.776401e-01 7.910083e-01 7.994472e-01 8.096597e-01 8.146151e-01 8.215996e-01 8.230284e-01 8.267177e-01 8.245890e-01 8.249207e-01 8.192194e-01 8.161384e-01 8.068714e-01 8.003347e-01 7.875370e-01 7.775205e-01 7.612620e-01 7.477686e-01 7.281592e-01 7.112260e-01 6.884185e-01 6.681243e-01 6.423147e-01 6.187843e-01 5.902088e-01 5.636149e-01 5.325441e-01 5.031068e-01 4.698379e-01 4.378197e-01 4.026667e-01 3.683662e-01 3.316497e-01 2.953929e-01 2.574306e-01 2.195608e-01 1.806589e-01 1.415273e-01 1.019740e-01 6.193073e-02 2.199247e-02 -1.862149e-02 -5.870041e-02 -9.955859e-02 -1.395536e-01 -1.803470e-01 -2.200470e-01 -2.604834e-01 -2.996817e-01 -3.394816e-01 -3.779625e-01 -4.168503e-01 -4.543742e-01 -4.920660e-01 -5.283521e-01 -5.645407e-01 -5.992499e-01 -6.335883e-01 -6.663094e-01 -6.983974e-01 -7.286390e-01 -7.580150e-01 -7.852073e-01 -8.113497e-01 -8.348592e-01 -8.572001e-01 -8.763589e-01 -8.943121e-01 -9.084609e-01 -9.214620e-01 -9.300037e-01 -9.375592e-01 -9.400162e-01 -9.417540e-01 -9.378201e-01 -9.335330e-01 -9.231118e-01 -9.127861e-01 -8.960080e-01 -8.798318e-01 -8.570465e-01 -8.353957e-01 -8.071429e-01 -7.805491e-01 -7.475123e-01 -7.166182e-01 -6.795704e-01 -6.450806e-01 -6.048306e-01 -5.674655e-01 -5.248105e-01 -4.852677e-01 -4.409576e-01 -3.998842e-01 -3.545976e-01 -3.125732e-01 -2.669062e-01 
-2.273300e-01 -1.803725e-01 -1.365629e-01 -9.031150e-02 -4.698260e-02 -1.791024e-03 4.075380e-02 8.459073e-02 1.260917e-01 1.683212e-01 2.085472e-01 2.489435e-01 2.876793e-01 3.260321e-01 3.630696e-01 3.991766e-01 4.343102e-01 4.679741e-01 5.010001e-01 5.320299e-01 5.627506e-01 5.909657e-01 6.191947e-01 6.444306e-01 6.699989e-01 6.921121e-01 7.148727e-01 7.337428e-01 7.535720e-01 7.691009e-01 7.858962e-01 7.980045e-01 8.116798e-01 8.203023e-01 8.307818e-01 8.358628e-01 8.430758e-01 8.445676e-01 8.484449e-01 8.463091e-01 8.467827e-01 8.409948e-01 8.380006e-01 8.285572e-01 8.220411e-01 8.089680e-01 7.988934e-01 7.822544e-01 7.686117e-01 7.485147e-01 7.313310e-01 7.079318e-01 6.872790e-01 6.607818e-01 6.367820e-01 6.074360e-01 5.802647e-01 5.483573e-01 5.182413e-01 4.840888e-01 4.513016e-01 4.152375e-01 3.800917e-01 3.424549e-01 3.052917e-01 2.664150e-01 2.275931e-01 1.877936e-01 1.476780e-01 1.072494e-01 6.620140e-02 2.540976e-02 -1.622254e-02 -5.713960e-02 -9.902724e-02 -1.398577e-01 -1.816945e-01 -2.222451e-01 -2.637472e-01 -3.038328e-01 -3.447339e-01 -3.841629e-01 -4.242038e-01 -4.627596e-01 -5.016736e-01 -5.390942e-01 -5.765876e-01 -6.125442e-01 -6.482760e-01 -6.823541e-01 -7.159172e-01 -7.476045e-01 -7.785130e-01 -8.071983e-01 -8.348866e-01 -8.598742e-01 -8.837107e-01 -9.042524e-01 -9.235715e-01 -9.389163e-01 -9.530657e-01 -9.625239e-01 -9.709245e-01 -9.739364e-01 -9.761447e-01 -9.723451e-01 -9.681078e-01 -9.573729e-01 -9.466627e-01 -9.291317e-01 -9.121574e-01 -8.882234e-01 -8.654124e-01 -8.356856e-01 -8.076434e-01 -7.728949e-01 -7.403500e-01 -7.014453e-01 -6.651894e-01 -6.230250e-01 -5.838578e-01 -5.393061e-01 -4.979908e-01 -4.518597e-01 -4.090922e-01 -3.621002e-01 -3.184918e-01 -2.712574e-01 
-2.290616e-01 -1.805992e-01 -1.355449e-01 -8.793689e-02 -4.347631e-02 2.937493e-03 4.651614e-02 9.145845e-02 1.339121e-01 1.771481e-01 2.182610e-01 2.595808e-01 2.991498e-01 3.383546e-01 3.761791e-01 4.130732e-01 4.489495e-01 4.833374e-01 5.170598e-01 5.487482e-01 5.801136e-01 6.089181e-01 6.377338e-01 6.634860e-01 6.895781e-01 7.121322e-01 7.353515e-01 7.545876e-01 7.748112e-01 7.906342e-01 8.077631e-01 8.200978e-01 8.340503e-01 8.428348e-01 8.535390e-01 8.587187e-01 8.661051e-01 8.676302e-01 8.716275e-01 8.694541e-01 8.699884e-01 8.640837e-01 8.610815e-01 8.514328e-01 8.448275e-01 8.314519e-01 8.211934e-01 8.041477e-01 7.902135e-01 7.696022e-01 7.520086e-01 7.279888e-01 7.068009e-01 6.795828e-01 6.549212e-01 6.247648e-01 5.968092e-01 5.640167e-01 5.330042e-01 4.979091e-01 4.641287e-01 4.270833e-01 3.908669e-01 3.522282e-01 3.139385e-01 2.740556e-01 2.340736e-01 1.932759e-01 1.519879e-01 1.105766e-01 6.836207e-02 2.660513e-02 -1.617328e-02 -5.804254e-02 -1.010468e-01 -1.428267e-01 -1.857479e-01 -2.272611e-01 -2.698191e-01 -3.109009e-01 -3.528397e-01 -3.933214e-01 -4.343975e-01 -4.740856e-01 -5.140508e-01 -5.527025e-01 -5.912811e-01 -6.285782e-01 -6.654419e-01 -7.009668e-01 -7.357106e-01 -7.689298e-01 -8.010542e-01 -8.313133e-01 -8.602202e-01 -8.867577e-01 -9.117633e-01 -9.337453e-01 -9.541147e-01 -9.706923e-01 -9.856941e-01 -9.960780e-01 -1.005054e+00 -1.008598e+00 -1.011039e+00 -1.007315e+00 -1.002926e+00 -9.917843e-01 -9.805269e-01 -9.621206e-01 -9.442260e-01 -9.189994e-01 -8.949470e-01 -8.635904e-01 -8.340586e-01 -7.974394e-01 -7.632396e-01 -7.223238e-01 -6.843300e-01 -6.401071e-01 -5.991922e-01 -5.526128e-01 -5.095986e-01 -4.615296e-01 -4.171536e-01 -3.683526e-01 -3.232510e-01 -2.743571e-01 
-2.316388e-01 -1.815407e-01 -1.349714e-01 -8.591107e-02 -4.009334e-02 7.610463e-03 5.240976e-02 9.850504e-02 1.420664e-01 1.863436e-01 2.284734e-01 2.707442e-01 3.112573e-01 3.513394e-01 3.900467e-01 4.277541e-01 4.644575e-01 4.995978e-01 5.340912e-01 5.664695e-01 5.985456e-01 6.279730e-01 6.574343e-01 6.837379e-01 7.104072e-01 7.334394e-01 7.571674e-01 7.768097e-01 7.974782e-01 8.136394e-01 8.311567e-01 8.437665e-01 8.580596e-01 8.670594e-01 8.780633e-01 8.833979e-01 8.910467e-01 8.926605e-01 8.968813e-01 8.947198e-01 8.954315e-01 8.894481e-01 8.865650e-01 8.767315e-01 8.701713e-01 8.564907e-01 8.461855e-01 8.287047e-01 8.146146e-01 7.934338e-01 7.755604e-01 7.508398e-01 7.292380e-01 7.011982e-01 6.759852e-01 6.449036e-01 6.162620e-01 5.824634e-01 5.506402e-01 5.144840e-01 4.797835e-01 4.416485e-01 4.044216e-01 3.646898e-01 3.253206e-01 2.843616e-01 2.432521e-01 2.014103e-01 1.589659e-01 1.165502e-01 7.316595e-02 3.044410e-02 -1.350713e-02 -5.631022e-02 -1.004866e-01 -1.431857e-01 -1.872818e-01 -2.297236e-01 -2.734711e-01 -3.155209e-01 -3.586832e-01 -4.002067e-01 -4.425659e-01 -4.834049e-01 -5.247412e-01 -5.646840e-01 -6.047480e-01 -6.434981e-01 -6.819786e-01 -7.191232e-01 -7.556157e-01 -7.906017e-01 -8.245837e-01 -8.567086e-01 -8.875295e-01 -9.159521e-01 -9.428459e-01 -9.666244e-01 -9.887479e-01 -1.006906e+00 -1.023404e+00 -1.035021e+00 -1.045113e+00 -1.049421e+00 -1.052494e+00 -1.048980e+00 -1.044670e+00 -1.033145e+00 -1.021393e+00 -1.002024e+00 -9.830933e-01 -9.563879e-01 -9.308338e-01 -8.975852e-01 -8.661931e-01 -8.273935e-01 -7.910961e-01 -7.478404e-01 -7.076313e-01 -6.610273e-01 -6.178847e-01 -5.689802e-01 -5.238093e-01 -4.735427e-01 -4.271392e-01 -3.763132e-01 -3.293474e-01 -2.786221e-01 