# vtk DataFile Version 2.0
Comment goes here
ASCII

DATASET STRUCTURED_POINTS
FIELD FieldData 1
TIME 1 1 double
0.20500000
DIMENSIONS    128   128   1

ORIGIN    0.000   0.000   0.000
SPACING   0.039062 0.039062   1.000

POINT_DATA   16384
SCALARS uX double
LOOKUP_TABLE default

-7.317154e-02 -6.062690e-02 -4.920768e-02 -3.609851e-02 -2.405651e-02 -1.054105e-02 1.940072e-03 1.568596e-02 2.840532e-02 4.219108e-02 5.493476e-02 6.855889e-02 8.110495e-02 9.435967e-02 1.064839e-01 1.191605e-01 1.306425e-01 1.425374e-01 1.531675e-01 1.640882e-01 1.736739e-01 1.834457e-01 1.918179e-01 2.002888e-01 2.073077e-01 2.143537e-01 2.199132e-01 2.254417e-01 2.294722e-01 2.334245e-01 2.358948e-01 2.382461e-01 2.391631e-01 2.399222e-01 2.393293e-01 2.385359e-01 2.365096e-01 2.342314e-01 2.308771e-01 2.272049e-01 2.226518e-01 2.176952e-01 2.120901e-01 2.059724e-01 1.994742e-01 1.923272e-01 1.851005e-01 1.770605e-01 1.692701e-01 1.604734e-01 1.522792e-01 1.428593e-01 1.344116e-01 1.244963e-01 1.159327e-01 1.056423e-01 9.708433e-02 8.653069e-02 7.808247e-02 6.736845e-02 5.911519e-02 4.833471e-02 4.034261e-02 2.958110e-02 2.189772e-02 1.123270e-02 3.887909e-03 -6.610204e-03 -1.360272e-02 -2.386991e-02 -3.051085e-02 -4.048883e-02 -4.679108e-02 -5.642680e-02 -6.241309e-02 -7.165833e-02 -7.735860e-02 -8.616970e-02 -9.161833e-02 -9.995591e-02 -1.051888e-01 -1.130174e-01 -1.180687e-01 -1.253565e-01 -1.302555e-01 -1.369734e-01 -1.417411e-01 -1.478619e-01 -1.525080e-01 -1.580053e-01 -1.625249e-01 -1.673717e-01 -1.717434e-01 -1.759111e-01 -1.800948e-01 -1.835518e-01 -1.874888e-01 -1.901998e-01 -1.938134e-01 -1.957391e-01 -1.989365e-01 -2.000336e-01 -2.027095e-01 -2.029322e-01 -2.049728e-01 -2.042737e-01 -2.055625e-01 -2.038953e-01 -2.043184e-01 -2.016399e-01 -2.010918e-01 -1.973651e-01 -1.957540e-01 -1.909512e-01 -1.882036e-01 -1.823086e-01 -1.783733e-01 -1.713847e-01 -1.662356e-01 -1.581683e-01 -1.518067e-01 -1.426943e-01 -1.351495e-01 -1.250457e-01 -1.163758e-01 -1.053551e-01 -9.564660e-02 -8.380508e-02 
-7.372295e-02 -6.115434e-02 -4.971916e-02 -3.658147e-02 -2.452175e-02 -1.097378e-02 1.526339e-03 1.530816e-02 2.804719e-02 4.187167e-02 5.463503e-02 6.830003e-02 8.086504e-02 9.416205e-02 1.063036e-01 1.190233e-01 1.305203e-01 1.424582e-01 1.531001e-01 1.640633e-01 1.736568e-01 1.834697e-01 1.918452e-01 2.003555e-01 2.073726e-01 2.144562e-01 2.200083e-01 2.255725e-01 2.295901e-01 2.335761e-01 2.360282e-01 2.384117e-01 2.393056e-01 2.400956e-01 2.394753e-01 2.387122e-01 2.366551e-01 2.344070e-01 2.310196e-01 2.273778e-01 2.227903e-01 2.178650e-01 2.122254e-01 2.061401e-01 1.996085e-01 1.924954e-01 1.852375e-01 1.772329e-01 1.694145e-01 1.606545e-01 1.524364e-01 1.430542e-01 1.345876e-01 1.247102e-01 1.161331e-01 1.058803e-01 9.731467e-02 8.679739e-02 7.834732e-02 6.766738e-02 5.941802e-02 4.866827e-02 4.068548e-02 2.995020e-02 2.228103e-02 1.163664e-02 4.310304e-03 -6.173835e-03 -1.314447e-02 -2.340526e-02 -3.002176e-02 -4.000169e-02 -4.627788e-02 -5.592448e-02 -6.188402e-02 -7.114941e-02 -7.682316e-02 -8.566377e-02 -9.108698e-02 -9.946328e-02 -1.046726e-01 -1.125488e-01 -1.175791e-01 -1.249225e-01 -1.298038e-01 -1.365845e-01 -1.413382e-01 -1.475279e-01 -1.521640e-01 -1.577350e-01 -1.622487e-01 -1.671727e-01 -1.715426e-01 -1.757894e-01 -1.799753e-01 -1.835117e-01 -1.874547e-01 -1.902439e-01 -1.938665e-01 -1.958677e-01 -1.990766e-01 -2.002453e-01 -2.029343e-01 -2.032233e-01 -2.052779e-01 -2.046389e-01 -2.059417e-01 -2.043275e-01 -2.047639e-01 -2.021308e-01 -2.015944e-01 -1.979052e-01 -1.963037e-01 -1.915303e-01 -1.887897e-01 -1.829163e-01 -1.789850e-01 -1.720102e-01 -1.668620e-01 -1.588011e-01 -1.524371e-01 -1.433241e-01 -1.357739e-01 -1.256628e-01 -1.169845e-01 -1.059504e-01 -9.623070e-02 -8.437027e-02 
-7.391661e-02 -6.130266e-02 -4.980196e-02 -3.661366e-02 -2.447982e-02 -1.087643e-02 1.705156e-03 1.554634e-02 2.837266e-02 4.225918e-02 5.511382e-02 6.884186e-02 8.150005e-02 9.485913e-02 1.070935e-01 1.198719e-01 1.314588e-01 1.434499e-01 1.541762e-01 1.651845e-01 1.748547e-01 1.847024e-01 1.931445e-01 2.016774e-01 2.087495e-01 2.158417e-01 2.214360e-01 2.269940e-01 2.310401e-01 2.350047e-01 2.374715e-01 2.398185e-01 2.407138e-01 2.414530e-01 2.408217e-01 2.399947e-01 2.379156e-01 2.355919e-01 2.321730e-01 2.284460e-01 2.238193e-01 2.188011e-01 2.131165e-01 2.069327e-01 2.003521e-01 1.931369e-01 1.858277e-01 1.777193e-01 1.698489e-01 1.609854e-01 1.527158e-01 1.432320e-01 1.347154e-01 1.247398e-01 1.161152e-01 1.057688e-01 9.715883e-02 8.655368e-02 7.806277e-02 6.730172e-02 5.901530e-02 4.819208e-02 4.017617e-02 2.937585e-02 2.167750e-02 1.097724e-02 3.625604e-03 -6.904548e-03 -1.389674e-02 -2.419309e-02 -3.082760e-02 -4.083214e-02 -4.712307e-02 -5.678293e-02 -6.275428e-02 -7.202139e-02 -7.770450e-02 -8.653532e-02 -9.196605e-02 -1.003214e-01 -1.055372e-01 -1.133818e-01 -1.184184e-01 -1.257208e-01 -1.306093e-01 -1.373408e-01 -1.421037e-01 -1.482377e-01 -1.528862e-01 -1.583969e-01 -1.629273e-01 -1.677884e-01 -1.721799e-01 -1.763633e-01 -1.805763e-01 -1.840509e-01 -1.880263e-01 -1.907569e-01 -1.944168e-01 -1.963639e-01 -1.996140e-01 -2.007340e-01 -2.034666e-01 -2.037128e-01 -2.058116e-01 -2.051357e-01 -2.064814e-01 -2.048356e-01 -2.053114e-01 -2.026513e-01 -2.021491e-01 -1.984362e-01 -1.968617e-01 -1.920668e-01 -1.893448e-01 -1.834506e-01 -1.795282e-01 -1.725320e-01 -1.673823e-01 -1.592982e-01 -1.529217e-01 -1.437825e-01 -1.362086e-01 -1.260675e-01 -1.173544e-01 -1.062856e-01 -9.652022e-02 -8.461986e-02 
-7.522034e-02 -6.251258e-02 -5.091403e-02 -3.761752e-02 -2.537362e-02 -1.164920e-02 1.052423e-03 1.502545e-02 2.797907e-02 4.200574e-02 5.499178e-02 6.886529e-02 8.165536e-02 9.516181e-02 1.075245e-01 1.204485e-01 1.321561e-01 1.442871e-01 1.551223e-01 1.662610e-01 1.760241e-01 1.859894e-01 1.945052e-01 2.031399e-01 2.102634e-01 2.174397e-01 2.230613e-01 2.286844e-01 2.327330e-01 2.367435e-01 2.391882e-01 2.415625e-01 2.424124e-01 2.431621e-01 2.424644e-01 2.416332e-01 2.394696e-01 2.371300e-01 2.336122e-01 2.298604e-01 2.251245e-01 2.200756e-01 2.142759e-01 2.080583e-01 2.013607e-01 1.941112e-01 1.866872e-01 1.785460e-01 1.705666e-01 1.616734e-01 1.533039e-01 1.437942e-01 1.351893e-01 1.251922e-01 1.164929e-01 1.061290e-01 9.745903e-02 8.683974e-02 7.830440e-02 6.753151e-02 5.921616e-02 4.838203e-02 4.035214e-02 2.954035e-02 2.184194e-02 1.112811e-02 3.788866e-03 -6.758423e-03 -1.372752e-02 -2.404588e-02 -3.064859e-02 -4.068108e-02 -4.693366e-02 -5.662820e-02 -6.255694e-02 -7.186598e-02 -7.750454e-02 -8.638477e-02 -9.177138e-02 -1.001836e-01 -1.053581e-01 -1.132668e-01 -1.182674e-01 -1.256408e-01 -1.305006e-01 -1.373096e-01 -1.420534e-01 -1.482708e-01 -1.529114e-01 -1.585107e-01 -1.630459e-01 -1.680000e-01 -1.724098e-01 -1.766896e-01 -1.809345e-01 -1.845076e-01 -1.885278e-01 -1.913576e-01 -1.950736e-01 -1.971191e-01 -2.004340e-01 -2.016497e-01 -2.044529e-01 -2.047900e-01 -2.069619e-01 -2.063699e-01 -2.077873e-01 -2.062166e-01 -2.067590e-01 -2.041630e-01 -2.037190e-01 -2.000576e-01 -1.985298e-01 -1.937723e-01 -1.910831e-01 -1.852109e-01 -1.813057e-01 -1.743154e-01 -1.691660e-01 -1.610710e-01 -1.546774e-01 -1.455102e-01 -1.379017e-01 -1.277155e-01 -1.189506e-01 -1.078198e-01 -9.798605e-02 -8.600743e-02 
-7.617404e-02 -6.335153e-02 -5.160500e-02 -3.817826e-02 -2.576716e-02 -1.189851e-02 9.865734e-04 1.511553e-02 2.826522e-02 4.245635e-02 5.564674e-02 6.968921e-02 8.268691e-02 9.636205e-02 1.089301e-01 1.220172e-01 1.339220e-01 1.462048e-01 1.572231e-01 1.684966e-01 1.784230e-01 1.885010e-01 1.971552e-01 2.058759e-01 2.131089e-01 2.203411e-01 2.260403e-01 2.316871e-01 2.357799e-01 2.397811e-01 2.422366e-01 2.445694e-01 2.453981e-01 2.460759e-01 2.453275e-01 2.443971e-01 2.421570e-01 2.396945e-01 2.360788e-01 2.321850e-01 2.273345e-01 2.221289e-01 2.162029e-01 2.098187e-01 2.029880e-01 1.955662e-01 1.880069e-01 1.796919e-01 1.715791e-01 1.625139e-01 1.540164e-01 1.443396e-01 1.356152e-01 1.254582e-01 1.166498e-01 1.061351e-01 9.736831e-02 8.660865e-02 7.798950e-02 6.708757e-02 5.870190e-02 4.775073e-02 3.966388e-02 2.874751e-02 2.100501e-02 1.019941e-02 2.828133e-03 -7.797816e-03 -1.478795e-02 -2.517156e-02 -3.178559e-02 -4.186962e-02 -4.812525e-02 -5.785740e-02 -6.378254e-02 -7.311514e-02 -7.874529e-02 -8.763514e-02 -9.301062e-02 -1.014189e-01 -1.065819e-01 -1.144741e-01 -1.194653e-01 -1.268109e-01 -1.316662e-01 -1.384379e-01 -1.431850e-01 -1.493579e-01 -1.540124e-01 -1.595627e-01 -1.641245e-01 -1.690279e-01 -1.734789e-01 -1.777091e-01 -1.820104e-01 -1.855375e-01 -1.896289e-01 -1.924184e-01 -1.962190e-01 -1.982309e-01 -2.016411e-01 -2.028306e-01 -2.057360e-01 -2.060538e-01 -2.083301e-01 -2.077248e-01 -2.092440e-01 -2.076639e-01 -2.083005e-01 -2.056969e-01 -2.053345e-01 -2.016646e-01 -2.002021e-01 -1.954323e-01 -1.927883e-01 -1.868975e-01 -1.830149e-01 -1.759969e-01 -1.708458e-01 -1.627119e-01 -1.562912e-01 -1.470720e-01 -1.394106e-01 -1.291578e-01 -1.203145e-01 -1.091015e-01 -9.916471e-02 -8.708751e-02 
-7.825963e-02 -6.527233e-02 -5.334422e-02 -3.972804e-02 -2.711228e-02 -1.303206e-02 7.679664e-05 1.443602e-02 2.782381e-02 4.225951e-02 5.569662e-02 6.999259e-02 8.323907e-02 9.717039e-02 1.099820e-01 1.233211e-01 1.354565e-01 1.479797e-01 1.592079e-01 1.707034e-01 1.808114e-01 1.910862e-01 1.998872e-01 2.087741e-01 2.161138e-01 2.234776e-01 2.292399e-01 2.349812e-01 2.390918e-01 2.431501e-01 2.455784e-01 2.479322e-01 2.486909e-01 2.493565e-01 2.484994e-01 2.475279e-01 2.451458e-01 2.426184e-01 2.388340e-01 2.348570e-01 2.298185e-01 2.245172e-01 2.183912e-01 2.119044e-01 2.048691e-01 1.973428e-01 1.895814e-01 1.811639e-01 1.728581e-01 1.636958e-01 1.550196e-01 1.452533e-01 1.363691e-01 1.261313e-01 1.171856e-01 1.065989e-01 9.771937e-02 8.689615e-02 7.818998e-02 6.723161e-02 5.878472e-02 4.778252e-02 3.965942e-02 2.869542e-02 2.093999e-02 1.008809e-02 2.724902e-03 -7.948000e-03 -1.491184e-02 -2.534480e-02 -3.191751e-02 -4.205469e-02 -4.825744e-02 -5.804757e-02 -6.391191e-02 -7.330798e-02 -7.887319e-02 -8.783234e-02 -9.314263e-02 -1.016262e-01 -1.067277e-01 -1.147011e-01 -1.196386e-01 -1.270712e-01 -1.318848e-01 -1.387493e-01 -1.434703e-01 -1.497418e-01 -1.543892e-01 -1.600437e-01 -1.646204e-01 -1.696335e-01 -1.741229e-01 -1.784679e-01 -1.828315e-01 -1.864777e-01 -1.906542e-01 -1.935657e-01 -1.974716e-01 -1.996066e-01 -2.031381e-01 -2.044494e-01 -2.074864e-01 -2.079218e-01 -2.103339e-01 -2.098386e-01 -2.114908e-01 -2.100097e-01 -2.107697e-01 -2.082507e-01 -2.079960e-01 -2.043930e-01 -2.030166e-01 -1.982933e-01 -1.957098e-01 -1.898424e-01 -1.859913e-01 -1.789718e-01 -1.738211e-01 -1.656593e-01 -1.592068e-01 -1.499324e-01 -1.422067e-01 -1.318708e-01 -1.229315e-01 -1.116074e-01 -1.015441e-01 -8.932844e-02 
-8.001116e-02 -6.683894e-02 -5.467805e-02 -4.085055e-02 -2.797152e-02 -1.365596e-02 -2.579944e-04 1.435689e-02 2.805389e-02 4.276048e-02 5.652002e-02 7.109563e-02 8.466974e-02 9.888172e-02 1.120173e-01 1.256293e-01 1.380752e-01 1.508545e-01 1.623700e-01 1.740954e-01 1.844584e-01 1.949283e-01 2.039435e-01 2.129835e-01 2.204898e-01 2.279590e-01 2.338357e-01 2.396314e-01 2.438019e-01 2.478625e-01 2.502963e-01 2.526016e-01 2.533139e-01 2.538835e-01 2.529325e-01 2.518225e-01 2.493053e-01 2.466033e-01 2.426499e-01 2.384693e-01 2.332358e-01 2.277096e-01 2.213710e-01 2.146451e-01 2.073880e-01 1.996152e-01 1.916303e-01 1.829653e-01 1.744411e-01 1.650355e-01 1.561519e-01 1.461507e-01 1.370750e-01 1.266139e-01 1.174959e-01 1.067000e-01 9.767010e-02 8.665302e-02 7.781969e-02 6.668370e-02 5.813329e-02 4.697001e-02 3.876661e-02 2.765811e-02 1.984450e-02 8.864590e-03 1.463705e-03 -9.320814e-03 -1.630391e-02 -2.683210e-02 -3.340800e-02 -4.362392e-02 -4.981640e-02 -5.966861e-02 -6.551212e-02 -7.495348e-02 -8.049046e-02 -8.947820e-02 -9.475636e-02 -1.032523e-01 -1.083216e-01 -1.162922e-01 -1.212018e-01 -1.286180e-01 -1.334126e-01 -1.402494e-01 -1.449651e-01 -1.512007e-01 -1.558610e-01 -1.614751e-01 -1.660867e-01 -1.710586e-01 -1.756077e-01 -1.799145e-01 -1.843641e-01 -1.879782e-01 -1.922664e-01 -1.951544e-01 -1.991950e-01 -2.013165e-01 -2.050011e-01 -2.063089e-01 -2.095112e-01 -2.099521e-01 -2.125337e-01 -2.120505e-01 -2.138683e-01 -2.124025e-01 -2.133160e-01 -2.108115e-01 -2.106902e-01 -2.070966e-01 -2.058269e-01 -2.011034e-01 -1.985942e-01 -1.927129e-01 -1.888999e-01 -1.818487e-01 -1.766970e-01 -1.684826e-01 -1.619887e-01 -1.526379e-01 -1.448300e-01 -1.343919e-01 -1.253300e-01 -1.138765e-01 -1.036515e-01 -9.127860e-02 
-8.293121e-02 -6.952148e-02 -5.709211e-02 -4.299140e-02 -2.980917e-02 -1.518807e-02 -1.457770e-03 1.349021e-02 2.754183e-02 4.260278e-02 5.673093e-02 7.167432e-02 8.562138e-02 1.002053e-01 1.137073e-01 1.276848e-01 1.404791e-01 1.536067e-01 1.654405e-01 1.774858e-01 1.881257e-01 1.988772e-01 2.081177e-01 2.173923e-01 2.250642e-01 2.327148e-01 2.386919e-01 2.446122e-01 2.488153e-01 2.529430e-01 2.553420e-01 2.576591e-01 2.582727e-01 2.588033e-01 2.576959e-01 2.565026e-01 2.537794e-01 2.509579e-01 2.467587e-01 2.424310e-01 2.369228e-01 2.312307e-01 2.245997e-01 2.176974e-01 2.101411e-01 2.021893e-01 1.939088e-01 1.850684e-01 1.762614e-01 1.666891e-01 1.575437e-01 1.473879e-01 1.380777e-01 1.274761e-01 1.181560e-01 1.072343e-01 9.803767e-02 8.690883e-02 7.794577e-02 6.671045e-02 5.806736e-02 4.681490e-02 3.855461e-02 2.736439e-02 1.952727e-02 8.470296e-03 1.075996e-03 -9.783564e-03 -1.673399e-02 -2.733747e-02 -3.385910e-02 -4.415236e-02 -5.027379e-02 -6.020664e-02 -6.596738e-02 -7.549343e-02 -8.094117e-02 -9.001802e-02 -9.520593e-02 -1.037955e-01 -1.087792e-01 -1.168480e-01 -1.216826e-01 -1.292017e-01 -1.339376e-01 -1.408825e-01 -1.455617e-01 -1.519111e-01 -1.565625e-01 -1.622966e-01 -1.669312e-01 -1.720301e-01 -1.766372e-01 -1.810780e-01 -1.856213e-01 -1.893763e-01 -1.937928e-01 -1.968274e-01 -2.010268e-01 -2.032986e-01 -2.071663e-01 -2.086250e-01 -2.120263e-01 -2.126147e-01 -2.154017e-01 -2.150579e-01 -2.170768e-01 -2.157375e-01 -2.168375e-01 -2.144412e-01 -2.144824e-01 -2.109740e-01 -2.098345e-01 -2.051689e-01 -2.027511e-01 -1.968965e-01 -1.931313e-01 -1.860728e-01 -1.809226e-01 -1.726642e-01 -1.661239e-01 -1.566911e-01 -1.487889e-01 -1.382296e-01 -1.290262e-01 -1.174122e-01 -1.070005e-01 -9.442798e-02 
-8.554234e-02 -7.187631e-02 -5.912565e-02 -4.473011e-02 -3.118391e-02 -1.623264e-02 -2.101857e-03 1.320662e-02 2.768747e-02 4.313223e-02 5.770888e-02 7.305034e-02 8.745400e-02 1.024392e-01 1.163932e-01 1.307629e-01 1.439908e-01 1.574879e-01 1.697228e-01 1.821017e-01 1.930965e-01 2.041329e-01 2.136701e-01 2.231702e-01 2.310707e-01 2.388795e-01 2.450103e-01 2.510167e-01 2.552953e-01 2.594356e-01 2.618324e-01 2.640906e-01 2.646280e-01 2.650334e-01 2.637827e-01 2.624055e-01 2.594810e-01 2.564261e-01 2.519786e-01 2.473784e-01 2.415866e-01 2.355937e-01 2.286558e-01 2.214350e-01 2.135604e-01 2.052819e-01 1.966827e-01 1.875159e-01 1.783997e-01 1.685084e-01 1.590715e-01 1.486096e-01 1.390323e-01 1.281417e-01 1.185838e-01 1.073928e-01 9.799088e-02 8.661388e-02 7.747986e-02 6.601797e-02 5.723856e-02 4.578093e-02 3.741807e-02 2.604352e-02 1.813574e-02 6.914591e-03 -5.210450e-04 -1.152520e-02 -1.849076e-02 -2.921957e-02 -3.573365e-02 -4.613301e-02 -5.222801e-02 -6.224753e-02 -6.796705e-02 -7.756007e-02 -8.295624e-02 -9.208022e-02 -9.721112e-02 -1.058283e-01 -1.107550e-01 -1.188329e-01 -1.236165e-01 -1.311282e-01 -1.358259e-01 -1.427497e-01 -1.474104e-01 -1.537291e-01 -1.583883e-01 -1.640868e-01 -1.687617e-01 -1.738251e-01 -1.785093e-01 -1.829199e-01 -1.875794e-01 -1.913137e-01 -1.958849e-01 -1.989115e-01 -2.033003e-01 -2.055785e-01 -2.096635e-01 -2.111428e-01 -2.147799e-01 -2.154008e-01 -2.184308e-01 -2.181278e-01 -2.203846e-01 -2.190891e-01 -2.204097e-01 -2.180544e-01 -2.182875e-01 -2.148108e-01 -2.138249e-01 -2.091752e-01 -2.068652e-01 -2.010050e-01 -1.972962e-01 -1.902052e-01 -1.850563e-01 -1.767343e-01 -1.701386e-01 -1.606072e-01 -1.525927e-01 -1.418971e-01 -1.325255e-01 -1.207357e-01 -1.101015e-01 -9.731284e-02 
-8.937384e-02 -7.539539e-02 -6.228489e-02 -4.752900e-02 -3.357546e-02 -1.821993e-02 -3.641360e-03 1.210934e-02 2.706959e-02 4.298638e-02 5.806320e-02 7.389601e-02 8.880766e-02 1.042909e-01 1.187459e-01 1.336059e-01 1.473117e-01 1.612757e-01 1.739488e-01 1.867558e-01 1.981329e-01 2.095440e-01 2.193931e-01 2.292026e-01 2.373332e-01 2.453768e-01 2.516478e-01 2.578096e-01 2.621350e-01 2.663504e-01 2.687015e-01 2.709576e-01 2.713617e-01 2.716946e-01 2.702315e-01 2.687208e-01 2.655166e-01 2.622788e-01 2.574977e-01 2.526775e-01 2.465133e-01 2.402757e-01 2.329420e-01 2.254635e-01 2.171847e-01 2.086463e-01 1.996485e-01 1.902284e-01 1.807317e-01 1.706005e-01 1.608121e-01 1.501286e-01 1.402373e-01 1.291460e-01 1.193178e-01 1.079478e-01 9.832351e-02 8.678811e-02 7.748156e-02 6.587973e-02 5.697742e-02 4.539512e-02 3.695712e-02 2.546949e-02 1.753094e-02 6.204563e-03 -1.222020e-03 -1.232705e-02 -1.924910e-02 -3.007739e-02 -3.651943e-02 -4.701909e-02 -5.301983e-02 -6.314191e-02 -6.875145e-02 -7.845003e-02 -8.372725e-02 -9.296000e-02 -9.796995e-02 -1.066990e-01 -1.115102e-01 -1.197032e-01 -1.243843e-01 -1.320146e-01 -1.366309e-01 -1.436776e-01 -1.482861e-01 -1.547330e-01 -1.593771e-01 -1.652109e-01 -1.699141e-01 -1.751214e-01 -1.798820e-01 -1.844462e-01 -1.892324e-01 -1.931305e-01 -1.978768e-01 -2.010767e-01 -2.056841e-01 -2.081427e-01 -2.124811e-01 -2.141440e-01 -2.180575e-01 -2.188604e-01 -2.221757e-01 -2.220465e-01 -2.245829e-01 -2.234463e-01 -2.250260e-01 -2.228075e-01 -2.232661e-01 -2.198973e-01 -2.190920e-01 -2.145154e-01 -2.123323e-01 -2.065052e-01 -2.028635e-01 -1.957616e-01 -1.906166e-01 -1.822363e-01 -1.755798e-01 -1.659406e-01 -1.578005e-01 -1.469461e-01 -1.373858e-01 -1.253855e-01 -1.145019e-01 -1.014511e-01 
-9.293223e-02 -7.862447e-02 -6.509931e-02 -4.996189e-02 -3.553745e-02 -1.975191e-02 -4.653709e-03 1.156935e-02 2.708832e-02 4.351092e-02 5.917352e-02 7.553380e-02 9.104372e-02 1.070615e-01 1.221104e-01 1.374950e-01 1.517716e-01 1.662322e-01 1.794337e-01 1.926903e-01 2.045346e-01 2.163311e-01 2.265692e-01 2.366848e-01 2.451126e-01 2.533721e-01 2.598393e-01 2.661201e-01 2.705364e-01 2.747724e-01 2.771098e-01 2.792915e-01 2.795830e-01 2.797539e-01 2.780890e-01 2.763395e-01 2.728571e-01 2.693166e-01 2.641961e-01 2.590238e-01 2.524751e-01 2.458505e-01 2.381038e-01 2.302176e-01 2.215131e-01 2.125590e-01 2.031377e-01 1.933051e-01 1.834000e-01 1.728685e-01 1.626977e-01 1.516330e-01 1.413939e-01 1.299453e-01 1.198103e-01 1.081094e-01 9.822328e-02 8.638491e-02 7.686325e-02 6.498607e-02 5.591548e-02 4.408445e-02 3.552342e-02 2.381227e-02 1.579313e-02 4.266944e-03 -3.201518e-03 -1.448382e-02 -2.141340e-02 -3.239712e-02 -3.881709e-02 -4.945045e-02 -5.540451e-02 -6.563817e-02 -7.118168e-02 -8.096904e-02 -8.616648e-02 -9.546460e-02 -1.003872e-01 -1.091581e-01 -1.138813e-01 -1.220934e-01 -1.266940e-01 -1.343227e-01 -1.388748e-01 -1.459029e-01 -1.504730e-01 -1.568895e-01 -1.615305e-01 -1.673282e-01 -1.720727e-01 -1.772452e-01 -1.820982e-01 -1.866357e-01 -1.915689e-01 -1.954545e-01 -2.004021e-01 -2.036080e-01 -2.084663e-01 -2.109515e-01 -2.155807e-01 -2.172903e-01 -2.215214e-01 -2.223877e-01 -2.260316e-01 -2.259771e-01 -2.288358e-01 -2.277776e-01 -2.296562e-01 -2.275115e-01 -2.282301e-01 -2.249216e-01 -2.243245e-01 -2.197860e-01 -2.177494e-01 -2.119304e-01 -2.083667e-01 -2.012360e-01 -1.960963e-01 -1.876448e-01 -1.809192e-01 -1.711619e-01 -1.628786e-01 -1.518557e-01 -1.420794e-01 -1.298578e-01 -1.186882e-01 -1.053621e-01 
-9.777850e-02 -8.308099e-02 -6.909905e-02 -5.351010e-02 -3.856714e-02 -2.227263e-02 -6.602358e-03 1.018022e-02 2.631425e-02 4.333702e-02 5.964428e-02 7.663217e-02 9.279992e-02 1.094563e-01 1.251569e-01 1.411720e-01 1.560728e-01 1.711346e-01 1.849102e-01 1.987175e-01 2.110638e-01 2.233406e-01 2.339889e-01 2.444975e-01 2.532276e-01 2.617804e-01 2.684313e-01 2.748991e-01 2.793757e-01 2.836916e-01 2.859672e-01 2.881264e-01 2.882410e-01 2.882965e-01 2.863516e-01 2.844073e-01 2.805575e-01 2.767585e-01 2.712016e-01 2.657239e-01 2.586898e-01 2.517298e-01 2.434688e-01 2.352331e-01 2.260052e-01 2.167014e-01 2.067658e-01 1.965951e-01 1.862011e-01 1.753518e-01 1.647311e-01 1.533751e-01 1.427359e-01 1.310256e-01 1.205482e-01 1.086159e-01 9.844991e-02 8.640873e-02 7.667182e-02 6.461719e-02 5.539536e-02 4.340780e-02 3.475670e-02 2.290486e-02 1.485215e-02 3.196041e-03 -4.255559e-03 -1.566166e-02 -2.253099e-02 -3.363618e-02 -3.996010e-02 -5.071531e-02 -5.654540e-02 -6.690284e-02 -7.230246e-02 -8.221607e-02 -8.725784e-02 -9.668448e-02 -1.014481e-01 -1.103493e-01 -1.149192e-01 -1.232630e-01 -1.277256e-01 -1.354878e-01 -1.399276e-01 -1.470921e-01 -1.515866e-01 -1.581444e-01 -1.627573e-01 -1.687040e-01 -1.734773e-01 -1.788094e-01 -1.837554e-01 -1.884658e-01 -1.935597e-01 -1.976329e-01 -2.028078e-01 -2.062158e-01 -2.113612e-01 -2.140606e-01 -2.190251e-01 -2.209565e-01 -2.255551e-01 -2.266440e-01 -2.306682e-01 -2.308288e-01 -2.340601e-01 -2.332003e-01 -2.354240e-01 -2.334513e-01 -2.344695e-01 -2.312976e-01 -2.309401e-01 -2.264950e-01 -2.246267e-01 -2.188513e-01 -2.153776e-01 -2.082355e-01 -2.031036e-01 -1.945817e-01 -1.877806e-01 -1.778911e-01 -1.694497e-01 -1.582309e-01 -1.482163e-01 -1.357339e-01 -1.242488e-01 -1.105971e-01 
-1.024001e-01 -8.729854e-02 -7.280272e-02 -5.674180e-02 -4.121346e-02 -2.438294e-02 -8.064243e-03 9.311437e-03 2.614578e-02 4.380814e-02 6.085306e-02 7.851240e-02 9.543700e-02 1.127780e-01 1.292330e-01 1.459237e-01 1.615519e-01 1.772558e-01 1.917060e-01 2.060967e-01 2.190393e-01 2.318168e-01 2.429600e-01 2.538665e-01 2.629717e-01 2.718045e-01 2.786984e-01 2.853197e-01 2.899016e-01 2.942431e-01 2.964878e-01 2.985497e-01 2.985055e-01 2.983515e-01 2.961332e-01 2.938822e-01 2.896621e-01 2.854770e-01 2.794732e-01 2.735491e-01 2.660130e-01 2.585659e-01 2.497696e-01 2.410242e-01 2.312485e-01 2.214291e-01 2.109520e-01 2.002736e-01 1.893610e-01 1.780232e-01 1.669206e-01 1.551033e-01 1.440295e-01 1.318904e-01 1.210332e-01 1.087075e-01 9.822101e-02 8.582210e-02 7.582587e-02 6.344805e-02 5.402749e-02 4.174902e-02 3.295720e-02 2.084406e-02 1.270453e-02 8.141191e-04 -6.675588e-03 -1.829101e-02 -2.515555e-02 -3.644621e-02 -4.272857e-02 -5.364550e-02 -5.940346e-02 -6.989810e-02 -7.520130e-02 -8.522613e-02 -9.015377e-02 -9.966416e-02 -1.043031e-01 -1.132596e-01 -1.177026e-01 -1.260736e-01 -1.304169e-01 -1.381801e-01 -1.425197e-01 -1.496633e-01 -1.540897e-01 -1.606111e-01 -1.652013e-01 -1.711045e-01 -1.759132e-01 -1.812043e-01 -1.862541e-01 -1.909354e-01 -1.962074e-01 -2.002720e-01 -2.056997e-01 -2.091256e-01 -2.145925e-01 -2.173393e-01 -2.226814e-01 -2.246887e-01 -2.297027e-01 -2.308916e-01 -2.353471e-01 -2.356236e-01 -2.392784e-01 -2.385402e-01 -2.411565e-01 -2.392992e-01 -2.406585e-01 -2.375840e-01 -2.374992e-01 -2.331220e-01 -2.314459e-01 -2.256990e-01 -2.223288e-01 -2.151673e-01 -2.100462e-01 -2.014502e-01 -1.945661e-01 -1.845424e-01 -1.759253e-01 -1.645080e-01 -1.542273e-01 -1.414793e-01 -1.296411e-01 -1.156547e-01 
-1.083933e-01 -9.282224e-02 -7.776633e-02 -6.115834e-02 -4.499209e-02 -2.754100e-02 -1.051535e-02 7.547059e-03 2.514553e-02 4.354943e-02 6.139993e-02 7.983962e-02 9.759115e-02 1.157306e-01 1.330095e-01 1.504918e-01 1.669129e-01 1.833736e-01 1.985559e-01 2.136400e-01 2.272242e-01 2.406044e-01 2.522719e-01 2.636672e-01 2.731579e-01 2.823492e-01 2.894751e-01 2.963159e-01 3.009703e-01 3.053915e-01 3.075515e-01 3.095606e-01 3.092842e-01 3.089586e-01 3.063770e-01 3.038539e-01 2.991605e-01 2.946241e-01 2.880613e-01 2.817296e-01 2.735747e-01 2.656856e-01 2.562370e-01 2.470360e-01 2.365995e-01 2.263288e-01 2.152056e-01 2.040952e-01 1.925715e-01 1.808320e-01 1.691702e-01 1.569886e-01 1.454208e-01 1.329583e-01 1.216816e-01 1.090735e-01 9.824762e-02 8.560469e-02 7.535102e-02 6.276263e-02 5.316525e-02 4.070336e-02 3.181118e-02 1.953475e-02 1.136490e-02 -6.755720e-04 -8.133628e-03 -1.989205e-02 -2.667205e-02 -3.810352e-02 -4.425799e-02 -5.531681e-02 -6.091314e-02 -7.155228e-02 -7.666957e-02 -8.684156e-02 -9.156842e-02 -1.012276e-01 -1.056605e-01 -1.147660e-01 -1.190083e-01 -1.275273e-01 -1.316867e-01 -1.395971e-01 -1.437827e-01 -1.510741e-01 -1.553907e-01 -1.620637e-01 -1.666032e-01 -1.726660e-01 -1.774970e-01 -1.829608e-01 -1.881166e-01 -1.929885e-01 -1.984566e-01 -2.027326e-01 -2.084461e-01 -2.121052e-01 -2.179395e-01 -2.209390e-01 -2.267145e-01 -2.289884e-01 -2.344800e-01 -2.359405e-01 -2.408915e-01 -2.414338e-01 -2.455742e-01 -2.450832e-01 -2.481483e-01 -2.465072e-01 -2.482549e-01 -2.453537e-01 -2.455782e-01 -2.413214e-01 -2.398622e-01 -2.341745e-01 -2.309210e-01 -2.237514e-01 -2.186432e-01 -2.099674e-01 -2.029923e-01 -1.928138e-01 -1.840038e-01 -1.723547e-01 -1.617826e-01 -1.487240e-01 -1.365000e-01 -1.221235e-01 
-1.142253e-01 -9.817398e-02 -8.249851e-02 -6.532420e-02 -4.844963e-02 -3.034957e-02 -1.253550e-02 6.251398e-03 2.470628e-02 4.389823e-02 6.265644e-02 8.193028e-02 1.006189e-01 1.196153e-01 1.378335e-01 1.561669e-01 1.734980e-01 1.907716e-01 2.068002e-01 2.226251e-01 2.369577e-01 2.509744e-01 2.632613e-01 2.751612e-01 2.851174e-01 2.946612e-01 3.020823e-01 3.091127e-01 3.138852e-01 3.183319e-01 3.204358e-01 3.223141e-01 3.218190e-01 3.212214e-01 3.182774e-01 3.153617e-01 3.101857e-01 3.051604e-01 2.980217e-01 2.911300e-01 2.823340e-01 2.738391e-01 2.637122e-01 2.538830e-01 2.427574e-01 2.318570e-01 2.200578e-01 2.083333e-01 1.961671e-01 1.838425e-01 1.715886e-01 1.588603e-01 1.467633e-01 1.337982e-01 1.220639e-01 1.089991e-01 9.779225e-02 8.473794e-02 7.418124e-02 6.122396e-02 5.139991e-02 3.860754e-02 2.956100e-02 1.698799e-02 8.730207e-03 -3.577115e-03 -1.106375e-02 -2.306247e-02 -2.981932e-02 -4.146624e-02 -4.755351e-02 -5.880297e-02 -6.429547e-02 -7.509889e-02 -8.008286e-02 -9.039009e-02 -9.496126e-02 -1.047236e-01 -1.089863e-01 -1.181602e-01 -1.222269e-01 -1.307789e-01 -1.347690e-01 -1.426784e-01 -1.467154e-01 -1.539768e-01 -1.581822e-01 -1.648044e-01 -1.692888e-01 -1.752914e-01 -1.801415e-01 -1.855485e-01 -1.908134e-01 -1.956454e-01 -2.013223e-01 -2.055873e-01 -2.116113e-01 -2.152972e-01 -2.215363e-01 -2.246046e-01 -2.308626e-01 -2.332462e-01 -2.392731e-01 -2.408778e-01 -2.463866e-01 -2.470963e-01 -2.517847e-01 -2.514699e-01 -2.550419e-01 -2.535698e-01 -2.557563e-01 -2.530008e-01 -2.535749e-01 -2.494257e-01 -2.482122e-01 -2.425817e-01 -2.394614e-01 -2.322885e-01 -2.271977e-01 -2.184502e-01 -2.113770e-01 -2.010523e-01 -1.920316e-01 -1.801570e-01 -1.692652e-01 -1.558984e-01 -1.432501e-01 -1.284799e-01 
-1.215291e-01 -1.049268e-01 -8.858123e-02 -7.076018e-02 -5.311946e-02 -3.427990e-02 -1.561209e-02 4.000130e-03 2.338398e-02 4.347483e-02 6.321968e-02 8.344734e-02 1.031565e-01 1.231361e-01 1.423782e-01 1.616923e-01 1.800150e-01 1.982299e-01 2.151783e-01 2.318663e-01 2.470070e-01 2.617717e-01 2.747187e-01 2.872201e-01 2.976591e-01 3.076355e-01 3.153432e-01 3.226259e-01 3.274809e-01 3.320001e-01 3.339863e-01 3.357680e-01 3.349691e-01 3.341252e-01 3.307133e-01 3.274270e-01 3.216474e-01 3.161556e-01 3.083092e-01 3.008852e-01 2.913110e-01 2.822468e-01 2.713042e-01 2.608952e-01 2.489482e-01 2.374803e-01 2.248827e-01 2.126213e-01 1.997048e-01 1.868871e-01 1.739514e-01 1.607822e-01 1.480878e-01 1.347373e-01 1.225008e-01 1.091054e-01 9.749744e-02 8.416267e-02 7.330758e-02 6.011286e-02 5.009048e-02 3.709471e-02 2.794384e-02 1.519178e-02 6.914885e-03 -5.556553e-03 -1.298775e-02 -2.514387e-02 -3.178242e-02 -4.358633e-02 -4.950434e-02 -6.091426e-02 -6.619806e-02 -7.716674e-02 -8.191343e-02 -9.238979e-02 -9.670545e-02 -1.066382e-01 -1.106376e-01 -1.199803e-01 -1.237872e-01 -1.325036e-01 -1.362507e-01 -1.443197e-01 -1.481464e-01 -1.555640e-01 -1.596106e-01 -1.663902e-01 -1.707874e-01 -1.769552e-01 -1.818098e-01 -1.873980e-01 -1.927759e-01 -1.978127e-01 -2.037215e-01 -2.082211e-01 -2.145972e-01 -2.185497e-01 -2.252518e-01 -2.286169e-01 -2.354282e-01 -2.381319e-01 -2.447726e-01 -2.467092e-01 -2.528566e-01 -2.538951e-01 -2.592087e-01 -2.592027e-01 -2.633507e-01 -2.621505e-01 -2.648329e-01 -2.622973e-01 -2.632637e-01 -2.592698e-01 -2.583297e-01 -2.527801e-01 -2.498065e-01 -2.426333e-01 -2.375605e-01 -2.287269e-01 -2.215449e-01 -2.110452e-01 -2.017933e-01 -1.896524e-01 -1.784121e-01 -1.646856e-01 -1.515766e-01 -1.363516e-01 
-1.287531e-01 -1.115937e-01 -9.451649e-02 -7.603139e-02 -5.755072e-02 -3.794204e-02 -1.833365e-02 2.146399e-03 2.255946e-02 4.360435e-02 6.444891e-02 8.569673e-02 1.065505e-01 1.275879e-01 1.479861e-01 1.683592e-01 1.878086e-01 2.070412e-01 2.250417e-01 2.426604e-01 2.587327e-01 2.742972e-01 2.880130e-01 3.011458e-01 3.121572e-01 3.225697e-01 3.306315e-01 3.381413e-01 3.431242e-01 3.476610e-01 3.495543e-01 3.511562e-01 3.500603e-01 3.488611e-01 3.449739e-01 3.411852e-01 3.347837e-01 3.286748e-01 3.200951e-01 3.119724e-01 3.015899e-01 2.917777e-01 2.799873e-01 2.688109e-01 2.560097e-01 2.437805e-01 2.303518e-01 2.173563e-01 2.036566e-01 1.901479e-01 1.764969e-01 1.626900e-01 1.493630e-01 1.354335e-01 1.226569e-01 1.087421e-01 9.669113e-02 8.289399e-02 7.169366e-02 5.808830e-02 4.781525e-02 3.445382e-02 2.514072e-02 1.206086e-02 3.701875e-03 -9.065909e-03 -1.650863e-02 -2.893444e-02 -3.552389e-02 -4.757330e-02 -5.339116e-02 -6.502224e-02 -7.016348e-02 -8.132629e-02 -8.589566e-02 -9.653443e-02 -1.006451e-01 -1.107030e-01 -1.144772e-01 -1.239026e-01 -1.274736e-01 -1.362272e-01 -1.397407e-01 -1.478019e-01 -1.514143e-01 -1.587847e-01 -1.626585e-01 -1.693617e-01 -1.736530e-01 -1.797306e-01 -1.845726e-01 -1.900748e-01 -1.955569e-01 -2.005310e-01 -2.066770e-01 -2.111545e-01 -2.179059e-01 -2.218899e-01 -2.290968e-01 -2.325533e-01 -2.399768e-01 -2.428305e-01 -2.501565e-01 -2.522926e-01 -2.591566e-01 -2.604284e-01 -2.664454e-01 -2.666863e-01 -2.714825e-01 -2.705207e-01 -2.737607e-01 -2.714337e-01 -2.728409e-01 -2.690069e-01 -2.683742e-01 -2.629207e-01 -2.601130e-01 -2.529605e-01 -2.479111e-01 -2.390142e-01 -2.317164e-01 -2.210632e-01 -2.115615e-01 -1.991718e-01 -1.875539e-01 -1.734792e-01 -1.598700e-01 -1.441937e-01 