# vtk DataFile Version 2.0
Comment goes here
ASCII

DATASET STRUCTURED_POINTS
FIELD FieldData 1
TIME 1 1 double
0.24000000
DIMENSIONS    128   128   1

ORIGIN    0.000   0.000   0.000
SPACING   0.039062 0.039062   1.000

POINT_DATA   16384
SCALARS uX double
LOOKUP_TABLE default

-6.608754e-02 -5.550242e-02 -4.552121e-02 -3.447250e-02 -2.411118e-02 -1.276649e-02 -2.191354e-03 9.269833e-03 1.988275e-02 3.127303e-02 4.174209e-02 5.287076e-02 6.301361e-02 7.369194e-02 8.333077e-02 9.337771e-02 1.023450e-01 1.115930e-01 1.197372e-01 1.280381e-01 1.352290e-01 1.424591e-01 1.485925e-01 1.546569e-01 1.596580e-01 1.644935e-01 1.683196e-01 1.718962e-01 1.745366e-01 1.768572e-01 1.783328e-01 1.794312e-01 1.797912e-01 1.797289e-01 1.790473e-01 1.779085e-01 1.762787e-01 1.741653e-01 1.716946e-01 1.687196e-01 1.655234e-01 1.618055e-01 1.580009e-01 1.536587e-01 1.493599e-01 1.445068e-01 1.398204e-01 1.345606e-01 1.295819e-01 1.240073e-01 1.188179e-01 1.130065e-01 1.076730e-01 1.016874e-01 9.626119e-02 9.014928e-02 8.466704e-02 7.846280e-02 7.294800e-02 6.667335e-02 6.113824e-02 5.480532e-02 4.925332e-02 4.286719e-02 3.729548e-02 3.085681e-02 2.525893e-02 1.876677e-02 1.313503e-02 6.589251e-03 9.169117e-04 -5.679649e-03 -1.139654e-02 -1.803642e-02 -2.379759e-02 -3.046749e-02 -3.626731e-02 -4.294732e-02 -4.877408e-02 -5.543733e-02 -6.127259e-02 -6.788513e-02 -7.370339e-02 -8.022431e-02 -8.599264e-02 -9.237422e-02 -9.805198e-02 -1.042398e-01 -1.097784e-01 -1.157118e-01 -1.210545e-01 -1.266663e-01 -1.317485e-01 -1.369658e-01 -1.417150e-01 -1.464597e-01 -1.507967e-01 -1.549863e-01 -1.588263e-01 -1.623757e-01 -1.656305e-01 -1.684535e-01 -1.710338e-01 -1.730461e-01 -1.748646e-01 -1.759861e-01 -1.769607e-01 -1.771191e-01 -1.771763e-01 -1.763098e-01 -1.753881e-01 -1.734485e-01 -1.715013e-01 -1.684566e-01 -1.654548e-01 -1.612918e-01 -1.572258e-01 -1.519511e-01 -1.468323e-01 -1.404742e-01 -1.343359e-01 -1.269447e-01 -1.198421e-01 -1.114904e-01 -1.035008e-01 -9.428276e-02 -8.550465e-02 -7.553564e-02 
-6.614699e-02 -5.553164e-02 -4.552184e-02 -3.444028e-02 -2.404961e-02 -1.266997e-02 -2.065105e-03 9.432534e-03 2.007507e-02 3.150258e-02 4.200061e-02 5.316650e-02 6.333698e-02 7.405166e-02 8.371610e-02 9.379760e-02 1.027877e-01 1.120677e-01 1.202312e-01 1.285605e-01 1.357665e-01 1.430207e-01 1.491644e-01 1.552480e-01 1.602543e-01 1.651037e-01 1.689294e-01 1.725143e-01 1.751489e-01 1.774723e-01 1.789365e-01 1.800323e-01 1.803759e-01 1.803060e-01 1.796032e-01 1.784524e-01 1.767973e-01 1.746681e-01 1.721686e-01 1.691747e-01 1.659469e-01 1.622078e-01 1.583698e-01 1.540047e-01 1.496714e-01 1.447945e-01 1.400731e-01 1.347893e-01 1.297759e-01 1.241777e-01 1.189546e-01 1.131203e-01 1.077546e-01 1.017473e-01 9.629090e-02 9.015868e-02 8.464864e-02 7.842563e-02 7.288568e-02 6.659388e-02 6.103643e-02 5.468796e-02 4.911651e-02 4.271632e-02 3.712802e-02 3.067665e-02 2.506495e-02 1.856128e-02 1.291832e-02 6.362048e-03 6.808912e-04 -5.925345e-03 -1.164889e-02 -1.829780e-02 -2.406371e-02 -3.074215e-02 -3.654507e-02 -4.323328e-02 -4.906175e-02 -5.573300e-02 -6.156882e-02 -6.818932e-02 -7.400720e-02 -8.053619e-02 -8.630340e-02 -9.269331e-02 -9.836936e-02 -1.045660e-01 -1.101024e-01 -1.160450e-01 -1.213852e-01 -1.270069e-01 -1.320861e-01 -1.373140e-01 -1.420598e-01 -1.468156e-01 -1.511486e-01 -1.553498e-01 -1.591852e-01 -1.627462e-01 -1.659956e-01 -1.688299e-01 -1.714039e-01 -1.734266e-01 -1.752375e-01 -1.763683e-01 -1.773338e-01 -1.774996e-01 -1.775462e-01 -1.766846e-01 -1.757506e-01 -1.738130e-01 -1.718517e-01 -1.688058e-01 -1.657881e-01 -1.616202e-01 -1.575365e-01 -1.522532e-01 -1.471148e-01 -1.407442e-01 -1.345845e-01 -1.271769e-01 -1.200512e-01 -1.116793e-01 -1.036650e-01 -9.442314e-02 -8.561881e-02 -7.562262e-02 
-6.666282e-02 -5.600142e-02 -4.594368e-02 -3.481115e-02 -2.436667e-02 -1.293223e-02 -2.269053e-03 9.285849e-03 1.998959e-02 3.147522e-02 4.203549e-02 5.325854e-02 6.349028e-02 7.425915e-02 8.398175e-02 9.411245e-02 1.031555e-01 1.124777e-01 1.206870e-01 1.290498e-01 1.362928e-01 1.435704e-01 1.497410e-01 1.558370e-01 1.608596e-01 1.657101e-01 1.695415e-01 1.731166e-01 1.757467e-01 1.780503e-01 1.795013e-01 1.805690e-01 1.808920e-01 1.807875e-01 1.800592e-01 1.788695e-01 1.771861e-01 1.750160e-01 1.724877e-01 1.694533e-01 1.661983e-01 1.624211e-01 1.585593e-01 1.541603e-01 1.498082e-01 1.449029e-01 1.401687e-01 1.348628e-01 1.298431e-01 1.242296e-01 1.190067e-01 1.131638e-01 1.078045e-01 1.017949e-01 9.635027e-02 9.022126e-02 8.472720e-02 7.851192e-02 7.299092e-02 6.671012e-02 6.117324e-02 5.483775e-02 4.928712e-02 4.290059e-02 3.733209e-02 3.089386e-02 2.529980e-02 1.880767e-02 1.317927e-02 6.632045e-03 9.616537e-04 -5.638670e-03 -1.135573e-02 -1.800230e-02 -2.376631e-02 -3.044619e-02 -3.625192e-02 -4.294541e-02 -4.878141e-02 -5.546165e-02 -6.130970e-02 -6.794272e-02 -7.377747e-02 -8.032227e-02 -8.611093e-02 -9.251968e-02 -9.822173e-02 -1.044400e-01 -1.100069e-01 -1.159737e-01 -1.213488e-01 -1.269970e-01 -1.321153e-01 -1.373717e-01 -1.421604e-01 -1.469463e-01 -1.513255e-01 -1.555577e-01 -1.594417e-01 -1.630340e-01 -1.663334e-01 -1.691986e-01 -1.718224e-01 -1.738746e-01 -1.757340e-01 -1.768918e-01 -1.779029e-01 -1.780922e-01 -1.781801e-01 -1.773376e-01 -1.764391e-01 -1.745154e-01 -1.725826e-01 -1.695446e-01 -1.665475e-01 -1.623809e-01 -1.583092e-01 -1.530203e-01 -1.478849e-01 -1.415016e-01 -1.353355e-01 -1.279081e-01 -1.207668e-01 -1.123679e-01 -1.043290e-01 -9.505328e-02 -8.621587e-02 -7.617940e-02 
-6.730167e-02 -5.653334e-02 -4.637018e-02 -3.512045e-02 -2.456308e-02 -1.300331e-02 -2.221899e-03 9.463879e-03 2.028863e-02 3.190765e-02 4.258872e-02 5.394423e-02 6.429322e-02 7.518989e-02 8.502260e-02 9.527253e-02 1.044150e-01 1.138440e-01 1.221384e-01 1.305922e-01 1.379030e-01 1.452528e-01 1.514716e-01 1.576188e-01 1.626683e-01 1.675479e-01 1.713843e-01 1.749663e-01 1.775801e-01 1.798694e-01 1.812840e-01 1.823181e-01 1.825872e-01 1.824325e-01 1.816356e-01 1.803825e-01 1.786193e-01 1.763761e-01 1.737606e-01 1.706472e-01 1.673011e-01 1.634426e-01 1.594894e-01 1.550101e-01 1.505693e-01 1.455873e-01 1.407697e-01 1.353931e-01 1.302972e-01 1.246205e-01 1.193299e-01 1.134323e-01 1.080146e-01 1.019589e-01 9.646525e-02 9.029868e-02 8.476472e-02 7.851957e-02 7.296706e-02 6.666298e-02 6.110193e-02 5.474840e-02 4.917970e-02 4.277887e-02 3.719707e-02 3.074676e-02 2.514284e-02 1.863942e-02 1.300334e-02 6.444357e-03 7.673348e-04 -5.846256e-03 -1.156989e-02 -1.823201e-02 -2.400335e-02 -3.070160e-02 -3.651609e-02 -4.323110e-02 -4.907781e-02 -5.578291e-02 -6.164408e-02 -6.830539e-02 -7.415606e-02 -8.073264e-02 -8.654036e-02 -9.298447e-02 -9.870898e-02 -1.049663e-01 -1.105592e-01 -1.165688e-01 -1.219736e-01 -1.276681e-01 -1.328196e-01 -1.381256e-01 -1.429506e-01 -1.477889e-01 -1.522066e-01 -1.564932e-01 -1.604169e-01 -1.640641e-01 -1.674028e-01 -1.703219e-01 -1.729831e-01 -1.750863e-01 -1.769792e-01 -1.781828e-01 -1.792218e-01 -1.794497e-01 -1.795578e-01 -1.787447e-01 -1.778572e-01 -1.759518e-01 -1.740195e-01 -1.709872e-01 -1.679789e-01 -1.638042e-01 -1.597089e-01 -1.543974e-01 -1.492256e-01 -1.428047e-01 -1.365894e-01 -1.291092e-01 -1.219060e-01 -1.134395e-01 -1.053265e-01 -9.596904e-02 -8.704593e-02 -7.691448e-02 
-6.840553e-02 -5.751401e-02 -4.722526e-02 -3.583963e-02 -2.514393e-02 -1.343825e-02 -2.508869e-03 9.329499e-03 2.030812e-02 3.208246e-02 4.291899e-02 5.442802e-02 6.492929e-02 7.597274e-02 8.594949e-02 9.633435e-02 1.056075e-01 1.151546e-01 1.235616e-01 1.321121e-01 1.395132e-01 1.469347e-01 1.532184e-01 1.594100e-01 1.644972e-01 1.693926e-01 1.732392e-01 1.768091e-01 1.794068e-01 1.816580e-01 1.830328e-01 1.840061e-01 1.842157e-01 1.839820e-01 1.831105e-01 1.817653e-01 1.799178e-01 1.775749e-01 1.748708e-01 1.716555e-01 1.682216e-01 1.642639e-01 1.602284e-01 1.556569e-01 1.511430e-01 1.460795e-01 1.412008e-01 1.357556e-01 1.306124e-01 1.248814e-01 1.195580e-01 1.136207e-01 1.081844e-01 1.021032e-01 9.660384e-02 9.042442e-02 8.489590e-02 7.864862e-02 7.311023e-02 6.681230e-02 6.127140e-02 5.492957e-02 4.938432e-02 4.299799e-02 3.744030e-02 3.100464e-02 2.542310e-02 1.893212e-02 1.331465e-02 6.763930e-03 1.100110e-03 -5.510905e-03 -1.122794e-02 -1.789419e-02 -2.366633e-02 -3.037600e-02 -3.619916e-02 -4.293303e-02 -4.879656e-02 -5.552785e-02 -6.141410e-02 -6.810864e-02 -7.399271e-02 -8.060922e-02 -8.645875e-02 -9.294912e-02 -9.872397e-02 -1.050335e-01 -1.106854e-01 -1.167529e-01 -1.222251e-01 -1.279829e-01 -1.332100e-01 -1.385839e-01 -1.434920e-01 -1.484020e-01 -1.529091e-01 -1.572698e-01 -1.612873e-01 -1.650096e-01 -1.684441e-01 -1.714371e-01 -1.741933e-01 -1.763667e-01 -1.783507e-01 -1.796184e-01 -1.807411e-01 -1.810243e-01 -1.812057e-01 -1.804366e-01 -1.796090e-01 -1.777340e-01 -1.758456e-01 -1.728284e-01 -1.698461e-01 -1.656697e-01 -1.615811e-01 -1.562500e-01 -1.510648e-01 -1.446059e-01 -1.383566e-01 -1.308200e-01 -1.235624e-01 -1.150214e-01 -1.068341e-01 -9.738464e-02 -8.836848e-02 -7.812865e-02 
-6.964493e-02 -5.856806e-02 -4.809534e-02 -3.650605e-02 -2.561177e-02 -1.368781e-02 -2.549112e-03 9.517593e-03 2.071160e-02 3.271893e-02 4.377146e-02 5.551193e-02 6.622364e-02 7.749021e-02 8.766522e-02 9.825780e-02 1.077103e-01 1.174427e-01 1.260036e-01 1.347107e-01 1.422348e-01 1.497787e-01 1.561499e-01 1.624258e-01 1.675622e-01 1.725021e-01 1.763587e-01 1.799331e-01 1.825025e-01 1.847203e-01 1.860316e-01 1.869375e-01 1.870527e-01 1.867228e-01 1.857319e-01 1.842681e-01 1.822828e-01 1.798057e-01 1.769522e-01 1.735942e-01 1.700063e-01 1.659040e-01 1.617160e-01 1.570040e-01 1.523447e-01 1.471494e-01 1.421369e-01 1.365727e-01 1.313103e-01 1.254758e-01 1.200499e-01 1.140257e-01 1.085045e-01 1.023533e-01 9.678642e-02 9.055291e-02 8.497312e-02 7.868597e-02 7.311073e-02 6.678475e-02 6.121906e-02 5.485819e-02 4.929758e-02 4.289820e-02 3.733184e-02 3.088613e-02 2.529997e-02 1.879915e-02 1.317868e-02 6.615960e-03 9.486683e-04 -5.678431e-03 -1.140114e-02 -1.808894e-02 -2.387033e-02 -3.060789e-02 -3.644492e-02 -4.321346e-02 -4.909626e-02 -5.586917e-02 -6.178072e-02 -6.852382e-02 -7.443977e-02 -8.111171e-02 -8.700018e-02 -9.355286e-02 -9.937416e-02 -1.057529e-01 -1.114591e-01 -1.176027e-01 -1.231372e-01 -1.289779e-01 -1.342748e-01 -1.397381e-01 -1.447228e-01 -1.497275e-01 -1.543166e-01 -1.587758e-01 -1.628785e-01 -1.667008e-01 -1.702211e-01 -1.733125e-01 -1.761517e-01 -1.784186e-01 -1.804791e-01 -1.818315e-01 -1.830206e-01 -1.833758e-01 -1.836099e-01 -1.828965e-01 -1.821045e-01 -1.802657e-01 -1.783933e-01 -1.753899e-01 -1.724019e-01 -1.682149e-01 -1.640973e-01 -1.587299e-01 -1.534917e-01 -1.469700e-01 -1.406435e-01 -1.330175e-01 -1.256587e-01 -1.170022e-01 -1.086906e-01 -9.910059e-02 -8.993824e-02 -7.953433e-02 
-7.136689e-02 -6.008758e-02 -4.940908e-02 -3.759627e-02 -2.647599e-02 -1.431168e-02 -2.931628e-03 9.386958e-03 2.083182e-02 3.309617e-02 4.440217e-02 5.639746e-02 6.735755e-02 7.886861e-02 8.927863e-02 1.000969e-01 1.097625e-01 1.196934e-01 1.284378e-01 1.373085e-01 1.449793e-01 1.526458e-01 1.591217e-01 1.654749e-01 1.706708e-01 1.756407e-01 1.795109e-01 1.830687e-01 1.856079e-01 1.877657e-01 1.890070e-01 1.898150e-01 1.898269e-01 1.893685e-01 1.882487e-01 1.866342e-01 1.845031e-01 1.818621e-01 1.788550e-01 1.753286e-01 1.715877e-01 1.673207e-01 1.629880e-01 1.581222e-01 1.533326e-01 1.480003e-01 1.428766e-01 1.371959e-01 1.318446e-01 1.259163e-01 1.204250e-01 1.143306e-01 1.087670e-01 1.025683e-01 9.698027e-02 9.071985e-02 8.513729e-02 7.884062e-02 7.327730e-02 6.695530e-02 6.141208e-02 5.506438e-02 4.953248e-02 4.315105e-02 3.761550e-02 3.118831e-02 2.563129e-02 1.914579e-02 1.354958e-02 6.995830e-03 1.345364e-03 -5.281484e-03 -1.099668e-02 -1.769453e-02 -2.347896e-02 -3.023771e-02 -3.608907e-02 -4.289016e-02 -4.879895e-02 -5.561554e-02 -6.156493e-02 -6.836233e-02 -7.432813e-02 -8.106447e-02 -8.701503e-02 -9.364171e-02 -9.953761e-02 -1.059996e-01 -1.117932e-01 -1.180289e-01 -1.236636e-01 -1.296048e-01 -1.350147e-01 -1.405861e-01 -1.456953e-01 -1.508146e-01 -1.555380e-01 -1.601163e-01 -1.643603e-01 -1.683035e-01 -1.719682e-01 -1.751790e-01 -1.781613e-01 -1.805419e-01 -1.827392e-01 -1.841954e-01 -1.855096e-01 -1.859544e-01 -1.862967e-01 -1.856543e-01 -1.849492e-01 -1.831592e-01 -1.813482e-01 -1.783684e-01 -1.754133e-01 -1.712224e-01 -1.671071e-01 -1.617067e-01 -1.564388e-01 -1.498542e-01 -1.434657e-01 -1.357467e-01 -1.282939e-01 -1.195147e-01 -1.110780e-01 -1.013368e-01 -9.201993e-02 -8.143796e-02 
-7.324575e-02 -6.169976e-02 -5.075565e-02 -3.864897e-02 -2.724059e-02 -1.476048e-02 -3.075344e-03 9.574456e-03 2.133456e-02 3.393769e-02 4.556104e-02 5.789355e-02 6.916388e-02 8.100049e-02 9.170366e-02 1.028251e-01 1.127565e-01 1.229576e-01 1.319305e-01 1.410286e-01 1.488819e-01 1.567248e-01 1.633303e-01 1.698032e-01 1.750715e-01 1.801012e-01 1.839852e-01 1.875432e-01 1.900393e-01 1.921408e-01 1.932868e-01 1.939882e-01 1.938595e-01 1.932525e-01 1.919560e-01 1.901608e-01 1.878270e-01 1.849837e-01 1.817584e-01 1.780189e-01 1.740547e-01 1.695739e-01 1.650222e-01 1.599505e-01 1.549545e-01 1.494315e-01 1.441203e-01 1.382698e-01 1.327543e-01 1.266807e-01 1.210513e-01 1.148377e-01 1.091629e-01 1.028709e-01 9.719802e-02 9.086869e-02 8.522532e-02 7.888114e-02 7.327795e-02 6.692594e-02 6.135993e-02 5.499520e-02 4.945335e-02 4.306311e-02 3.752614e-02 3.109368e-02 2.553967e-02 1.904818e-02 1.345574e-02 6.891639e-03 1.242581e-03 -5.401802e-03 -1.112043e-02 -1.784497e-02 -2.363954e-02 -3.043524e-02 -3.630480e-02 -4.315357e-02 -4.908957e-02 -5.596455e-02 -6.195089e-02 -6.881716e-02 -7.483030e-02 -8.164573e-02 -8.765467e-02 -9.437057e-02 -1.003366e-01 -1.068980e-01 -1.127739e-01 -1.191194e-01 -1.248491e-01 -1.309104e-01 -1.364274e-01 -1.421288e-01 -1.473565e-01 -1.526143e-01 -1.574653e-01 -1.621885e-01 -1.665662e-01 -1.706572e-01 -1.744575e-01 -1.778146e-01 -1.809292e-01 -1.834496e-01 -1.857702e-01 -1.873537e-01 -1.887765e-01 -1.893304e-01 -1.897609e-01 -1.892039e-01 -1.885617e-01 -1.868284e-01 -1.850510e-01 -1.820952e-01 -1.791412e-01 -1.749386e-01 -1.707897e-01 -1.653400e-01 -1.600027e-01 -1.533303e-01 -1.468363e-01 -1.389908e-01 -1.313968e-01 -1.224531e-01 -1.138407e-01 -1.038983e-01 -9.437296e-02 -8.355556e-02 
-7.563427e-02 -6.380328e-02 -5.256929e-02 -4.014720e-02 -2.842030e-02 -1.560008e-02 -3.574321e-03 9.433032e-03 2.154784e-02 3.451708e-02 4.649963e-02 5.919639e-02 7.081949e-02 8.300680e-02 9.404436e-02 1.054905e-01 1.157257e-01 1.262132e-01 1.354474e-01 1.447823e-01 1.528440e-01 1.608646e-01 1.676178e-01 1.742027e-01 1.795530e-01 1.846262e-01 1.885254e-01 1.920592e-01 1.945064e-01 1.965208e-01 1.975601e-01 1.981194e-01 1.978357e-01 1.970423e-01 1.955538e-01 1.935403e-01 1.909904e-01 1.879100e-01 1.844575e-01 1.804750e-01 1.762849e-01 1.715670e-01 1.668018e-01 1.615092e-01 1.563209e-01 1.506013e-01 1.451259e-01 1.391086e-01 1.334613e-01 1.272539e-01 1.215266e-01 1.152131e-01 1.094738e-01 1.031146e-01 9.740791e-02 9.104074e-02 8.539006e-02 7.903284e-02 7.344351e-02 6.709759e-02 6.156063e-02 5.521491e-02 4.971116e-02 4.334652e-02 3.785081e-02 3.144449e-02 2.592957e-02 1.945938e-02 1.389939e-02 7.347334e-03 1.720584e-03 -4.924305e-03 -1.063327e-02 -1.737296e-02 -2.317208e-02 -2.999857e-02 -3.588772e-02 -4.278300e-02 -4.875396e-02 -5.569059e-02 -6.172738e-02 -6.866958e-02 -7.474881e-02 -8.165359e-02 -8.774458e-02 -9.456260e-02 -1.006272e-01 -1.073031e-01 -1.132948e-01 -1.197670e-01 -1.256301e-01 -1.318299e-01 -1.374980e-01 -1.433491e-01 -1.487445e-01 -1.541618e-01 -1.591947e-01 -1.640846e-01 -1.686547e-01 -1.729159e-01 -1.769138e-01 -1.804398e-01 -1.837507e-01 -1.864326e-01 -1.889410e-01 -1.906725e-01 -1.922668e-01 -1.929486e-01 -1.935270e-01 -1.930718e-01 -1.925472e-01 -1.908842e-01 -1.891886e-01 -1.862674e-01 -1.833551e-01 -1.791481e-01 -1.749982e-01 -1.695029e-01 -1.641202e-01 -1.573600e-01 -1.507757e-01 -1.428000e-01 -1.350715e-01 -1.259559e-01 -1.171660e-01 -1.070114e-01 -9.726776e-02 -8.620015e-02 
-7.821070e-02 -6.602760e-02 -5.444196e-02 -4.163057e-02 -2.952047e-02 -1.628041e-02 -3.846998e-03 9.602312e-03 2.214030e-02 3.556323e-02 4.797368e-02 6.112356e-02 7.316672e-02 8.579267e-02 9.722857e-02 1.090840e-01 1.196813e-01 1.305337e-01 1.400797e-01 1.497211e-01 1.580317e-01 1.662887e-01 1.732179e-01 1.799606e-01 1.854080e-01 1.905561e-01 1.944714e-01 1.979976e-01 2.003823e-01 2.023115e-01 2.032165e-01 2.036218e-01 2.031423e-01 2.021381e-01 2.004054e-01 1.981384e-01 1.953102e-01 1.919489e-01 1.881990e-01 1.839230e-01 1.794309e-01 1.744209e-01 1.693621e-01 1.637911e-01 1.583287e-01 1.523541e-01 1.466328e-01 1.403913e-01 1.345321e-01 1.281359e-01 1.222340e-01 1.157690e-01 1.098931e-01 1.034190e-01 9.761206e-02 9.116408e-02 8.544615e-02 7.903765e-02 7.340928e-02 6.703585e-02 6.148232e-02 5.512631e-02 4.962231e-02 4.325773e-02 3.777192e-02 3.136937e-02 2.586875e-02 1.940002e-02 1.385364e-02 7.295686e-03 1.677684e-03 -4.984257e-03 -1.069256e-02 -1.746294e-02 -2.327178e-02 -3.014386e-02 -3.605460e-02 -4.301059e-02 -4.901599e-02 -5.602802e-02 -6.211277e-02 -6.914439e-02 -7.528576e-02 -8.229338e-02 -8.846154e-02 -9.539560e-02 -1.015533e-01 -1.083587e-01 -1.144606e-01 -1.210761e-01 -1.270671e-01 -1.334246e-01 -1.392385e-01 -1.452613e-01 -1.508190e-01 -1.564208e-01 -1.616303e-01 -1.667147e-01 -1.714711e-01 -1.759325e-01 -1.801207e-01 -1.838462e-01 -1.873443e-01 -1.902180e-01 -1.929022e-01 -1.948096e-01 -1.965601e-01 -1.973936e-01 -1.981008e-01 -1.977654e-01 -1.973352e-01 -1.957533e-01 -1.941121e-01 -1.912279e-01 -1.883257e-01 -1.841078e-01 -1.799208e-01 -1.743642e-01 -1.688961e-01 -1.620230e-01 -1.553045e-01 -1.471644e-01 -1.392535e-01 -1.299229e-01 -1.209040e-01 -1.104856e-01 -1.004686e-01 -8.909117e-02 
-8.133429e-02 -6.877926e-02 -5.681446e-02 -4.359004e-02 -3.106236e-02 -1.737515e-02 -4.493800e-03 9.427627e-03 2.243375e-02 3.634231e-02 4.922865e-02 6.286390e-02 7.537614e-02 8.847143e-02 1.003534e-01 1.126451e-01 1.236484e-01 1.348867e-01 1.447821e-01 1.547428e-01 1.633316e-01 1.718279e-01 1.789525e-01 1.858451e-01 1.913980e-01 1.966022e-01 2.005315e-01 2.040212e-01 2.063322e-01 2.081389e-01 2.088914e-01 2.090995e-01 2.084018e-01 2.071409e-01 2.051404e-01 2.025744e-01 1.994468e-01 1.957622e-01 1.916993e-01 1.870936e-01 1.822918e-01 1.769620e-01 1.716119e-01 1.657445e-01 1.600214e-01 1.537847e-01 1.478421e-01 1.413802e-01 1.353445e-01 1.287736e-01 1.227421e-01 1.161488e-01 1.101889e-01 1.036309e-01 9.778167e-02 9.128951e-02 8.556503e-02 7.914557e-02 7.353891e-02 6.717988e-02 6.166808e-02 5.534324e-02 4.989259e-02 4.356726e-02 3.813843e-02 3.177497e-02 2.632785e-02 1.989079e-02 1.438853e-02 7.848949e-03 2.261205e-03 -4.399923e-03 -1.009486e-02 -1.688454e-02 -2.269862e-02 -2.961105e-02 -3.554632e-02 -4.256334e-02 -4.861257e-02 -5.570510e-02 -6.185278e-02 -6.898282e-02 -7.520617e-02 -8.232875e-02 -8.859836e-02 -9.566303e-02 -1.019427e-01 -1.088940e-01 -1.151395e-01 -1.219166e-01 -1.280742e-01 -1.346090e-01 -1.406131e-01 -1.468286e-01 -1.525995e-01 -1.584081e-01 -1.638510e-01 -1.691534e-01 -1.741586e-01 -1.788443e-01 -1.832898e-01 -1.872393e-01 -1.909943e-01 -1.940837e-01 -1.970142e-01 -1.991201e-01 -2.010959e-01 -2.021018e-01 -2.030030e-01 -2.028055e-01 -2.025292e-01 -2.010435e-01 -1.995086e-01 -1.966730e-01 -1.938244e-01 -1.896035e-01 -1.854139e-01 -1.798001e-01 -1.742712e-01 -1.672855e-01 -1.604480e-01 -1.521399e-01 -1.440525e-01 -1.344992e-01 -1.252483e-01 -1.145544e-01 -1.042523e-01 -9.254927e-02 
-8.468756e-02 -7.168987e-02 -5.928188e-02 -4.556607e-02 -3.255298e-02 -1.833344e-02 -4.932928e-03 9.551596e-03 2.309966e-02 3.758913e-02 5.102649e-02 6.524468e-02 7.830069e-02 9.196264e-02 1.043626e-01 1.171847e-01 1.286606e-01 1.403724e-01 1.506755e-01 1.610336e-01 1.699476e-01 1.787487e-01 1.861020e-01 1.931949e-01 1.988714e-01 2.041655e-01 2.081105e-01 2.115801e-01 2.138024e-01 2.154861e-01 2.160551e-01 2.160497e-01 2.150881e-01 2.135401e-01 2.112132e-01 2.083060e-01 2.048094e-01 2.007502e-01 1.962962e-01 1.913027e-01 1.861070e-01 1.803948e-01 1.746654e-01 1.684370e-01 1.623637e-01 1.558003e-01 1.495474e-01 1.428023e-01 1.365037e-01 1.296985e-01 1.234551e-01 1.166786e-01 1.105579e-01 1.038662e-01 9.790474e-02 9.132428e-02 8.553088e-02 7.906208e-02 7.342287e-02 6.704535e-02 6.152932e-02 5.520773e-02 4.977262e-02 4.346284e-02 3.806097e-02 3.171629e-02 2.629979e-02 1.987662e-02 1.440198e-02 7.864718e-03 2.296245e-03 -4.378999e-03 -1.006693e-02 -1.689010e-02 -2.271198e-02 -2.967842e-02 -3.563774e-02 -4.272895e-02 -4.881915e-02 -5.600482e-02 -6.221078e-02 -6.945138e-02 -7.575087e-02 -8.300026e-02 -8.936480e-02 -9.657212e-02 -1.029670e-01 -1.100773e-01 -1.164601e-01 -1.234136e-01 -1.297322e-01 -1.364623e-01 -1.426516e-01 -1.490820e-01 -1.550616e-01 -1.611036e-01 -1.667759e-01 -1.723270e-01 -1.775770e-01 -1.825212e-01 -1.872189e-01 -1.914287e-01 -1.954336e-01 -1.987749e-01 -2.019420e-01 -2.042804e-01 -2.064681e-01 -2.076759e-01 -2.087535e-01 -2.087168e-01 -2.085721e-01 -2.071972e-01 -2.057416e-01 -2.029600e-01 -2.001331e-01 -1.959045e-01 -1.916757e-01 -1.859898e-01 -1.803595e-01 -1.732360e-01 -1.662348e-01 -1.577234e-01 -1.494110e-01 -1.395904e-01 -1.300549e-01 -1.190318e-01 -1.083884e-01 -9.629716e-02 
-8.863714e-02 -7.517532e-02 -6.229264e-02 -4.805914e-02 -3.452133e-02 -1.973848e-02 -5.772503e-03 9.310177e-03 2.345226e-02 3.856069e-02 5.260520e-02 6.744568e-02 8.110331e-02 9.537032e-02 1.083450e-01 1.217321e-01 1.337330e-01 1.459461e-01 1.567017e-01 1.674751e-01 1.767484e-01 1.858599e-01 1.934633e-01 2.007483e-01 2.065557e-01 2.119173e-01 2.158714e-01 2.192855e-01 2.214004e-01 2.229148e-01 2.232722e-01 2.229996e-01 2.217404e-01 2.198480e-01 2.171598e-01 2.138546e-01 2.099571e-01 2.054709e-01 2.006007e-01 1.951750e-01 1.895707e-01 1.834422e-01 1.773313e-01 1.707206e-01 1.643089e-01 1.574107e-01 1.508738e-01 1.438507e-01 1.373290e-01 1.303073e-01 1.239036e-01 1.169724e-01 1.107521e-01 1.039643e-01 9.795805e-02 9.133354e-02 8.554173e-02 7.907186e-02 7.347041e-02 6.712411e-02 6.167084e-02 5.540121e-02 5.004263e-02 4.379393e-02 3.847182e-02 3.218640e-02 2.684364e-02 2.046835e-02 1.505394e-02 8.545586e-03 3.018319e-03 -3.652295e-03 -9.321483e-03 -1.616718e-02 -2.199438e-02 -2.901108e-02 -3.499990e-02 -4.216788e-02 -4.831102e-02 -5.559759e-02 -6.187899e-02 -6.924190e-02 -7.563883e-02 -8.302968e-02 -8.951411e-02 -9.688079e-02 -1.034195e-01 -1.107071e-01 -1.172601e-01 -1.244097e-01 -1.309275e-01 -1.378738e-01 -1.442933e-01 -1.509607e-01 -1.572015e-01 -1.635007e-01 -1.694626e-01 -1.752877e-01 -1.808500e-01 -1.860791e-01 -1.911027e-01 -1.955996e-01 -1.999320e-01 -2.035519e-01 -2.070345e-01 -2.096309e-01 -2.121077e-01 -2.135407e-01 -2.148675e-01 -2.150119e-01 -2.150645e-01 -2.138173e-01 -2.124980e-01 -2.097832e-01 -2.070249e-01 -2.027974e-01 -1.985658e-01 -1.928123e-01 -1.871062e-01 -1.798454e-01 -1.726955e-01 -1.639772e-01 -1.554447e-01 -1.453489e-01 -1.355240e-01 -1.241594e-01 -1.131605e-01 -1.006644e-01 
-9.287026e-02 -7.886943e-02 -6.544561e-02 -5.061083e-02 -3.647694e-02 -2.103902e-02 -6.431397e-03 9.348492e-03 2.416500e-02 3.999733e-02 5.473237e-02 7.030390e-02 8.464753e-02 9.962927e-02 1.132614e-01 1.273204e-01 1.399238e-01 1.527386e-01 1.640153e-01 1.752934e-01 1.849822e-01 1.944787e-01 2.023725e-01 2.099062e-01 2.158665e-01 2.213323e-01 2.252981e-01 2.286728e-01 2.306632e-01 2.320043e-01 2.321144e-01 2.315522e-01 2.299429e-01 2.276675e-01 2.245509e-01 2.207960e-01 2.164187e-01 2.114439e-01 2.060695e-01 2.001428e-01 1.940354e-01 1.874180e-01 1.808277e-01 1.737606e-01 1.669114e-01 1.596055e-01 1.526867e-01 1.453157e-01 1.384764e-01 1.311730e-01 1.245198e-01 1.173748e-01 1.109724e-01 1.040361e-01 9.791069e-02 9.119676e-02 8.534123e-02 7.883200e-02 7.321248e-02 6.686575e-02 6.142902e-02 5.518554e-02 4.986663e-02 4.365799e-02 3.838754e-02 3.214398e-02 2.685476e-02 2.051241e-02 1.514490e-02 8.651904e-03 3.158292e-03 -3.520610e-03 -9.173926e-03 -1.605484e-02 -2.188653e-02 -2.896604e-02 -3.498069e-02 -4.223763e-02 -4.842790e-02 -5.582686e-02 -6.217637e-02 -6.967216e-02 -7.615825e-02 -8.370026e-02 -9.029592e-02 -9.783134e-02 -1.045055e-01 -1.119804e-01 -1.186961e-01 -1.260542e-01 -1.327649e-01 -1.399437e-01 -1.465887e-01 -1.535149e-01 -1.600138e-01 -1.665981e-01 -1.728478e-01 -1.789814e-01 -1.848547e-01 -1.904085e-01 -1.957561e-01 -2.005838e-01 -2.052399e-01 -2.091830e-01 -2.129742e-01 -2.158711e-01 -2.186260e-01 -2.203216e-01 -2.218815e-01 -2.222367e-01 -2.224653e-01 -2.213656e-01 -2.201556e-01 -2.175165e-01 -2.147947e-01 -2.105654e-01 -2.062941e-01 -2.004585e-01 -1.946352e-01 -1.872113e-01 -1.798671e-01 -1.709055e-01 -1.621034e-01 -1.516857e-01 -1.415181e-01 -1.297556e-01 -1.183437e-01 -1.053770e-01 
-9.776197e-02 -8.319905e-02 -6.919805e-02 -5.373293e-02 -3.895785e-02 -2.282966e-02 -7.526837e-03 8.991310e-03 2.454318e-02 4.114529e-02 5.663741e-02 7.298877e-02 8.808792e-02 1.038333e-01 1.181917e-01 1.329681e-01 1.462382e-01 1.596923e-01 1.715449e-01 1.833533e-01 1.934988e-01 2.033901e-01 2.115987e-01 2.193730e-01 2.254919e-01 2.310351e-01 2.349999e-01 2.382909e-01 2.401278e-01 2.412371e-01 2.410584e-01 2.401381e-01 2.381297e-01 2.353985e-01 2.318027e-01 2.275263e-01 2.226223e-01 2.170929e-01 2.111766e-01 2.046936e-01 1.980588e-01 1.909108e-01 1.838331e-01 1.762838e-01 1.690073e-01 1.612846e-01 1.540125e-01 1.463011e-01 1.391900e-01 1.316278e-01 1.247858e-01 1.174632e-01 1.109510e-01 1.039130e-01 9.774858e-02 9.099963e-02 8.516398e-02 7.867416e-02 7.311951e-02 6.683230e-02 6.149050e-02 5.533132e-02 5.012259e-02 4.400771e-02 3.884896e-02 3.269429e-02 2.750649e-02 2.123577e-02 1.595001e-02 9.501697e-03 4.063625e-03 -2.604026e-03 -8.231691e-03 -1.513782e-02 -2.097479e-02 -2.811577e-02 -3.416566e-02 -4.151753e-02 -4.777082e-02 -5.529381e-02 -6.173177e-02 -6.937602e-02 -7.597457e-02 -8.368578e-02 -9.041821e-02 -9.814175e-02 -1.049793e-01 -1.126617e-01 -1.195716e-01 -1.271590e-01 -1.340996e-01 -1.415328e-01 -1.484476e-01 -1.556560e-01 -1.624666e-01 -1.693615e-01 -1.759628e-01 -1.824323e-01 -1.886903e-01 -1.945985e-01 -2.003522e-01 -2.055410e-01 -2.106090e-01 -2.149057e-01 -2.190957e-01 -2.223222e-01 -2.254435e-01 -2.274283e-01 -2.293042e-01 -2.298933e-01 -2.303719e-01 -2.294384e-01 -2.284011e-01 -2.258518e-01 -2.232177e-01 -2.189961e-01 -2.147235e-01 -2.088110e-01 -2.028965e-01 -1.953103e-01 -1.877863e-01 -1.785778e-01 -1.695094e-01 -1.587619e-01 -1.482445e-01 -1.360716e-01 -1.242298e-01 -1.107749e-01 
-1.030049e-01 -8.780046e-02 -7.315360e-02 -5.696881e-02 -4.147752e-02 -2.455987e-02 -8.480099e-03 8.884849e-03 2.526032e-02 4.274893e-02 5.909176e-02 7.634575e-02 9.229724e-02 1.089318e-01 1.241133e-01 1.397311e-01 1.537601e-01 1.679705e-01 1.804820e-01 1.929253e-01 2.035959e-01 2.139690e-01 2.225418e-01 2.306216e-01 2.369266e-01 2.425875e-01 2.465549e-01 2.497773e-01 2.514408e-01 2.523089e-01 2.517993e-01 2.504899e-01 2.480207e-01 2.447841e-01 2.406310e-01 2.357688e-01 2.302469e-01 2.240881e-01 2.175289e-01 2.104076e-01 2.031381e-01 1.953740e-01 1.876983e-01 1.795810e-01 1.717661e-01 1.635433e-01 1.558089e-01 1.476786e-01 1.401912e-01 1.322982e-01 1.251695e-01 1.176050e-01 1.108938e-01 1.036985e-01 9.741545e-02 9.058490e-02 8.470035e-02 7.819217e-02 7.264486e-02 6.638752e-02 6.109442e-02 5.499686e-02 4.986296e-02 4.382465e-02 3.875228e-02 3.267318e-02 2.757030e-02 2.136011e-02 1.614705e-02 9.733100e-03 4.347525e-03 -2.319381e-03 -7.919805e-03 -1.486228e-02 -2.069951e-02 -2.791360e-02 -3.399118e-02 -4.144952e-02 -4.775646e-02 -5.541408e-02 -6.192989e-02 -6.973154e-02 -7.643126e-02 -8.431868e-02 -9.117648e-02 -9.909377e-02 -1.060840e-01 -1.139796e-01 -1.210744e-01 -1.288991e-01 -1.360625e-01 -1.437631e-01 -1.509434e-01 -1.584544e-01 -1.655753e-01 -1.728101e-01 -1.797642e-01 -1.866087e-01 -1.932540e-01 -1.995638e-01 -2.057263e-01 -2.113298e-01 -2.168103e-01 -2.215163e-01 -2.261024e-01 -2.297123e-01 -2.331924e-01 -2.355142e-01 -2.376921e-01 -2.385534e-01 -2.392617e-01 -2.385209e-01 -2.376292e-01 -2.351827e-01 -2.326032e-01 -2.283887e-01 -2.240766e-01 -2.180729e-01 -2.120247e-01 -2.042493e-01 -1.964989e-01 -1.870051e-01 -1.776201e-01 -1.664935e-01 -1.555723e-01 -1.429294e-01 -1.305995e-01 -1.165869e-01 
-1.089835e-01 -9.311338e-02 -7.777970e-02 -6.084359e-02 -4.458463e-02 -2.683773e-02 -9.919136e-03 8.340681e-03 2.561135e-02 4.404204e-02 6.131521e-02 7.953288e-02 9.642143e-02 1.140083e-01 1.300983e-01 1.466177e-01 1.614862e-01 1.765045e-01 1.897440e-01 2.028590e-01 2.141065e-01 2.249778e-01 2.339442e-01 2.423220e-01 2.488172e-01 2.545632e-01 2.585122e-01 2.616099e-01 2.630565e-01 2.636084e-01 2.627075e-01 2.609210e-01 2.579207e-01 2.540851e-01 2.493021e-01 2.437622e-01 2.375553e-01 2.306834e-01 2.234267e-01 2.155973e-01 2.076561e-01 1.992243e-01 1.909352e-01 1.822188e-01 1.738737e-01 1.651409e-01 1.569762e-01 1.484380e-01 1.406285e-01 1.324346e-01 1.250925e-01 1.173323e-01 1.105096e-01 1.032160e-01 9.691134e-02 9.006694e-02 8.423437e-02 7.778027e-02 7.233972e-02 6.618541e-02 6.103407e-02 5.506835e-02 5.009186e-02 4.419417e-02 3.927718e-02 3.332888e-02 2.836433e-02 2.225910e-02 1.715578e-02 1.080863e-02 5.496514e-03 -1.149581e-03 -6.716470e-03 -1.368713e-02 -1.953069e-02 -2.682031e-02 -3.294110e-02 -4.051694e-02 -4.689931e-02 -5.470878e-02 -6.132749e-02 -6.930748e-02 -7.613439e-02 -8.422054e-02 -9.122962e-02 -9.936328e-02 -1.065323e-01 -1.146633e-01 -1.219712e-01 -1.300550e-01 -1.374746e-01 -1.454650e-01 -1.529528e-01 -1.607906e-01 -1.682755e-01 -1.758773e-01 -1.832515e-01 -1.905011e-01 -1.976153e-01 -2.043598e-01 -2.110247e-01 -2.170778e-01 -2.230730e-01 -2.282237e-01 -2.333113e-01 -2.373387e-01 -2.412807e-01 -2.439704e-01 -2.465465e-01 -2.477063e-01 -2.487289e-01 -2.482018e-01 -2.475265e-01 -2.451983e-01 -2.427290e-01 -2.385317e-01 -2.342206e-01 -2.281310e-01 -2.219752e-01 -2.140116e-01 -2.060478e-01 -1.962653e-01 -1.865650e-01 -1.750517e-01 -1.637169e-01 -1.505917e-01 -1.377534e-01 -1.231653e-01 