# vtk DataFile Version 2.0
Comment goes here
ASCII

DATASET STRUCTURED_POINTS
FIELD FieldData 1
TIME 1 1 double
0.15500000
DIMENSIONS    128   128   1

ORIGIN    0.000   0.000   0.000
SPACING   0.039062 0.039062   1.000

POINT_DATA   16384
SCALARS uX double
LOOKUP_TABLE default

-1.561560e-01 -1.405050e-01 -1.303085e-01 -1.134602e-01 -1.023274e-01 -8.448727e-02 -7.259051e-02 -5.398634e-02 -4.152050e-02 -2.239892e-02 -9.576822e-03 9.801142e-03 2.275409e-02 4.211790e-02 5.496961e-02 7.404491e-02 8.656313e-02 1.050780e-01 1.170370e-01 1.347286e-01 1.459163e-01 1.625376e-01 1.727618e-01 1.880882e-01 1.971822e-01 2.110171e-01 2.188449e-01 2.310244e-01 2.374836e-01 2.478797e-01 2.529030e-01 2.614252e-01 2.649808e-01 2.715756e-01 2.736651e-01 2.783146e-01 2.789703e-01 2.816891e-01 2.809699e-01 2.818005e-01 2.797875e-01 2.787959e-01 2.755873e-01 2.728584e-01 2.685648e-01 2.641971e-01 2.589377e-01 2.530398e-01 2.469384e-01 2.396256e-01 2.328078e-01 2.241994e-01 2.167910e-01 2.070091e-01 1.991341e-01 1.883026e-01 1.800822e-01 1.683268e-01 1.598789e-01 1.473266e-01 1.387649e-01 1.255445e-01 1.169774e-01 1.032189e-01 9.474800e-02 8.058221e-02 7.230077e-02 5.785775e-02 4.984831e-02 3.525577e-02 2.758765e-02 1.296859e-02 5.695326e-03 -8.834505e-03 -1.567754e-02 -3.001222e-02 -3.640958e-02 -5.045519e-02 -5.641220e-02 -7.008833e-02 -7.563064e-02 -8.887079e-02 -9.404232e-02 -1.067931e-01 -1.116524e-01 -1.238711e-01 -1.284861e-01 -1.401375e-01 -1.445785e-01 -1.556301e-01 -1.599623e-01 -1.703790e-01 -1.746549e-01 -1.843942e-01 -1.886455e-01 -1.976527e-01 -2.018845e-01 -2.100895e-01 -2.142759e-01 -2.215920e-01 -2.256745e-01 -2.319984e-01 -2.358867e-01 -2.411019e-01 -2.446780e-01 -2.486589e-01 -2.517832e-01 -2.544012e-01 -2.569206e-01 -2.580516e-01 -2.598085e-01 -2.593397e-01 -2.601815e-01 -2.580180e-01 -2.578060e-01 -2.538769e-01 -2.524935e-01 -2.467563e-01 -2.441118e-01 -2.365557e-01 -2.325920e-01 -2.232393e-01 -2.179334e-01 -2.068402e-01 -2.002047e-01 -1.874605e-01 -1.795440e-01 -1.652704e-01 
-1.549104e-01 -1.392759e-01 -1.291124e-01 -1.122863e-01 -1.011873e-01 -8.337408e-02 -7.151091e-02 -5.293742e-02 -4.050441e-02 -2.141639e-02 -8.625881e-03 1.071624e-02 2.363908e-02 4.296512e-02 5.578827e-02 7.482401e-02 8.731507e-02 1.057885e-01 1.177215e-01 1.353696e-01 1.465320e-01 1.631075e-01 1.733065e-01 1.885843e-01 1.976531e-01 2.114364e-01 2.192384e-01 2.313631e-01 2.377955e-01 2.481336e-01 2.531291e-01 2.615900e-01 2.651167e-01 2.716475e-01 2.737070e-01 2.782903e-01 2.789151e-01 2.815659e-01 2.808153e-01 2.815770e-01 2.795321e-01 2.784715e-01 2.752309e-01 2.724334e-01 2.681081e-01 2.636731e-01 2.583823e-01 2.524189e-01 2.462866e-01 2.389106e-01 2.320627e-01 2.233938e-01 2.159559e-01 2.061165e-01 1.982128e-01 1.873272e-01 1.790790e-01 1.672729e-01 1.587985e-01 1.461995e-01 1.376127e-01 1.243498e-01 1.157595e-01 1.019632e-01 9.347176e-02 7.927350e-02 7.097485e-02 5.650546e-02 4.848305e-02 3.387111e-02 2.619530e-02 1.156477e-02 4.290154e-03 -1.024222e-02 -1.707919e-02 -3.140651e-02 -3.778942e-02 -5.181688e-02 -5.775026e-02 -7.139672e-02 -7.690567e-02 -9.010418e-02 -9.523246e-02 -1.079294e-01 -1.127358e-01 -1.248889e-01 -1.294418e-01 -1.410163e-01 -1.453873e-01 -1.563516e-01 -1.606076e-01 -1.709281e-01 -1.751232e-01 -1.847591e-01 -1.889273e-01 -1.978259e-01 -2.019745e-01 -2.100679e-01 -2.141735e-01 -2.213771e-01 -2.253832e-01 -2.315961e-01 -2.354145e-01 -2.405222e-01 -2.440364e-01 -2.479154e-01 -2.509869e-01 -2.535106e-01 -2.559871e-01 -2.570327e-01 -2.587571e-01 -2.582130e-01 -2.590325e-01 -2.568048e-01 -2.565804e-01 -2.525986e-01 -2.512122e-01 -2.454341e-01 -2.427950e-01 -2.352094e-01 -2.312588e-01 -2.218876e-01 -2.166010e-01 -2.054997e-01 -1.988887e-01 -1.861457e-01 -1.782576e-01 -1.639935e-01 
-1.573864e-01 -1.416454e-01 -1.313760e-01 -1.144249e-01 -1.032060e-01 -8.525184e-02 -7.325764e-02 -5.453016e-02 -4.195793e-02 -2.270581e-02 -9.771011e-03 9.742237e-03 2.281120e-02 4.231222e-02 5.528005e-02 7.449133e-02 8.712236e-02 1.057686e-01 1.178338e-01 1.356489e-01 1.469327e-01 1.636664e-01 1.739738e-01 1.893985e-01 1.985605e-01 2.124774e-01 2.203564e-01 2.326000e-01 2.390927e-01 2.495342e-01 2.545734e-01 2.631223e-01 2.666770e-01 2.732808e-01 2.753541e-01 2.799965e-01 2.806226e-01 2.833201e-01 2.825603e-01 2.833579e-01 2.812956e-01 2.802618e-01 2.769976e-01 2.742193e-01 2.698660e-01 2.654440e-01 2.601225e-01 2.541670e-01 2.480025e-01 2.406299e-01 2.337492e-01 2.250797e-01 2.176092e-01 2.077652e-01 1.998294e-01 1.889351e-01 1.806556e-01 1.688366e-01 1.603318e-01 1.477151e-01 1.390992e-01 1.258137e-01 1.171957e-01 1.033719e-01 9.485431e-02 8.062346e-02 7.230073e-02 5.779385e-02 4.974973e-02 3.509567e-02 2.740077e-02 1.272382e-02 5.432838e-03 -9.149989e-03 -1.600077e-02 -3.038245e-02 -3.677717e-02 -5.086304e-02 -5.680726e-02 -7.051668e-02 -7.603704e-02 -8.930394e-02 -9.444622e-02 -1.072183e-01 -1.120437e-01 -1.242801e-01 -1.288598e-01 -1.405276e-01 -1.449358e-01 -1.560049e-01 -1.603110e-01 -1.707489e-01 -1.750089e-01 -1.847754e-01 -1.890241e-01 -1.980663e-01 -2.023109e-01 -2.105593e-01 -2.147749e-01 -2.221425e-01 -2.262700e-01 -2.326522e-01 -2.365994e-01 -2.418773e-01 -2.455232e-01 -2.495681e-01 -2.527689e-01 -2.554489e-01 -2.580471e-01 -2.592344e-01 -2.610676e-01 -2.606460e-01 -2.615573e-01 -2.594291e-01 -2.592757e-01 -2.553677e-01 -2.540293e-01 -2.482975e-01 -2.456819e-01 -2.381145e-01 -2.341625e-01 -2.247815e-01 -2.194693e-01 -2.083312e-01 -2.016715e-01 -1.888664e-01 -1.809083e-01 -1.665587e-01 
-1.573626e-01 -1.415491e-01 -1.312409e-01 -1.142104e-01 -1.029398e-01 -8.489971e-02 -7.284233e-02 -5.402303e-02 -4.137768e-02 -2.202918e-02 -9.013530e-03 1.059880e-02 2.375364e-02 4.335396e-02 5.640948e-02 7.571727e-02 8.843423e-02 1.071708e-01 1.193164e-01 1.372118e-01 1.485669e-01 1.653674e-01 1.757334e-01 1.912082e-01 2.004134e-01 2.143609e-01 2.222656e-01 2.345184e-01 2.410181e-01 2.514467e-01 2.564742e-01 2.649883e-01 2.685130e-01 2.750614e-01 2.770883e-01 2.816566e-01 2.822220e-01 2.848296e-01 2.839974e-01 2.846923e-01 2.825487e-01 2.814026e-01 2.780507e-01 2.751539e-01 2.707089e-01 2.661647e-01 2.607496e-01 2.546705e-01 2.484119e-01 2.409160e-01 2.339420e-01 2.251506e-01 2.175883e-01 2.076246e-01 1.995991e-01 1.885875e-01 1.802211e-01 1.682875e-01 1.596989e-01 1.469707e-01 1.382749e-01 1.248814e-01 1.161887e-01 1.022611e-01 9.367560e-02 7.934647e-02 7.096432e-02 5.636634e-02 4.827355e-02 3.353762e-02 2.580716e-02 1.105984e-02 3.748733e-03 -1.089061e-02 -1.774405e-02 -3.216625e-02 -3.854469e-02 -5.265337e-02 -5.856170e-02 -7.227522e-02 -7.774046e-02 -9.099263e-02 -9.606217e-02 -1.088016e-01 -1.135395e-01 -1.257272e-01 -1.302087e-01 -1.418146e-01 -1.461188e-01 -1.571166e-01 -1.613184e-01 -1.716796e-01 -1.758407e-01 -1.855292e-01 -1.896898e-01 -1.986561e-01 -2.028282e-01 -2.110060e-01 -2.151679e-01 -2.224721e-01 -2.265664e-01 -2.328936e-01 -2.368283e-01 -2.420593e-01 -2.457119e-01 -2.497172e-01 -2.529410e-01 -2.555871e-01 -2.582208e-01 -2.593778e-01 -2.612548e-01 -2.608043e-01 -2.617631e-01 -2.596054e-01 -2.594991e-01 -2.555593e-01 -2.542637e-01 -2.484964e-01 -2.459162e-01 -2.383086e-01 -2.343822e-01 -2.249555e-01 -2.196574e-01 -2.084674e-01 -2.018091e-01 -1.889455e-01 -1.809754e-01 -1.665604e-01 
-1.611066e-01 -1.450941e-01 -1.346044e-01 -1.173434e-01 -1.058640e-01 -8.756616e-02 -7.527732e-02 -5.617777e-02 -4.328370e-02 -2.363748e-02 -1.036163e-02 9.560303e-03 2.298058e-02 4.289633e-02 5.621590e-02 7.583848e-02 8.881136e-02 1.078554e-01 1.202420e-01 1.384309e-01 1.500059e-01 1.670796e-01 1.776389e-01 1.933610e-01 2.027287e-01 2.168932e-01 2.249266e-01 2.373631e-01 2.439564e-01 2.545339e-01 2.596201e-01 2.682483e-01 2.717988e-01 2.784281e-01 2.804507e-01 2.850695e-01 2.856046e-01 2.882360e-01 2.873520e-01 2.880480e-01 2.858357e-01 2.846725e-01 2.812396e-01 2.783113e-01 2.737771e-01 2.691905e-01 2.636813e-01 2.575517e-01 2.511969e-01 2.436443e-01 2.365739e-01 2.277207e-01 2.200631e-01 2.100329e-01 2.019142e-01 1.908314e-01 1.823743e-01 1.703645e-01 1.616884e-01 1.488785e-01 1.400991e-01 1.266182e-01 1.178465e-01 1.038260e-01 9.516742e-02 8.074047e-02 7.229262e-02 5.759302e-02 4.944357e-02 3.460367e-02 2.682723e-02 1.197531e-02 4.630308e-03 -1.011261e-02 -1.698705e-02 -3.151046e-02 -3.789706e-02 -5.210391e-02 -5.800876e-02 -7.181764e-02 -7.727031e-02 -9.061636e-02 -9.566820e-02 -1.085025e-01 -1.132228e-01 -1.255099e-01 -1.299802e-01 -1.416942e-01 -1.460005e-01 -1.571193e-01 -1.613432e-01 -1.718426e-01 -1.760516e-01 -1.858983e-01 -1.901371e-01 -1.992832e-01 -2.035656e-01 -2.119443e-01 -2.162482e-01 -2.237714e-01 -2.280360e-01 -2.345951e-01 -2.387225e-01 -2.441913e-01 -2.480506e-01 -2.522911e-01 -2.557262e-01 -2.585957e-01 -2.614348e-01 -2.627944e-01 -2.648608e-01 -2.645839e-01 -2.657072e-01 -2.636872e-01 -2.637130e-01 -2.598699e-01 -2.586685e-01 -2.529536e-01 -2.504262e-01 -2.428252e-01 -2.389086e-01 -2.294429e-01 -2.241115e-01 -2.128384e-01 -2.061053e-01 -1.931167e-01 -1.850328e-01 -1.704541e-01 
-1.623250e-01 -1.461511e-01 -1.355500e-01 -1.181076e-01 -1.064901e-01 -8.799259e-02 -7.554214e-02 -5.622698e-02 -4.315167e-02 -2.327725e-02 -9.805365e-03 1.035304e-02 2.397838e-02 4.413354e-02 5.766064e-02 7.751924e-02 9.069491e-02 1.099645e-01 1.225418e-01 1.409385e-01 1.526847e-01 1.699412e-01 1.806458e-01 1.965192e-01 2.060006e-01 2.202797e-01 2.283914e-01 2.409021e-01 2.475363e-01 2.581459e-01 2.632355e-01 2.718541e-01 2.753722e-01 2.819524e-01 2.839100e-01 2.884442e-01 2.888862e-01 2.914025e-01 2.904025e-01 2.909588e-01 2.886130e-01 2.872914e-01 2.837126e-01 2.806129e-01 2.759251e-01 2.711592e-01 2.654925e-01 2.591794e-01 2.526663e-01 2.449290e-01 2.377015e-01 2.286642e-01 2.208521e-01 2.106395e-01 2.023697e-01 1.911063e-01 1.825023e-01 1.703137e-01 1.614958e-01 1.485090e-01 1.395940e-01 1.259387e-01 1.170393e-01 1.028478e-01 9.407191e-02 7.947918e-02 7.092752e-02 5.607003e-02 4.783385e-02 3.284730e-02 2.500512e-02 1.002159e-02 2.635643e-03 -1.221993e-02 -1.910724e-02 -3.372076e-02 -4.008989e-02 -5.436154e-02 -6.021785e-02 -7.406469e-02 -7.943891e-02 -9.279621e-02 -9.774300e-02 -1.105638e-01 -1.151580e-01 -1.274106e-01 -1.317413e-01 -1.434052e-01 -1.475676e-01 -1.586273e-01 -1.627130e-01 -1.731512e-01 -1.772378e-01 -1.870280e-01 -1.911693e-01 -2.002693e-01 -2.044865e-01 -2.128335e-01 -2.171089e-01 -2.246170e-01 -2.288914e-01 -2.354515e-01 -2.396252e-01 -2.451088e-01 -2.490461e-01 -2.533110e-01 -2.568486e-01 -2.597466e-01 -2.627040e-01 -2.640905e-01 -2.662815e-01 -2.660240e-01 -2.672689e-01 -2.652559e-01 -2.653919e-01 -2.615393e-01 -2.604296e-01 -2.546858e-01 -2.522263e-01 -2.445750e-01 -2.406986e-01 -2.311603e-01 -2.258391e-01 -2.144705e-01 -2.077165e-01 -1.946099e-01 -1.864739e-01 -1.717550e-01 
-1.674042e-01 -1.509347e-01 -1.400722e-01 -1.222896e-01 -1.103694e-01 -9.149273e-02 -7.870507e-02 -5.897833e-02 -4.553898e-02 -2.522767e-02 -1.137343e-02 9.239121e-03 2.325579e-02 4.387331e-02 5.779061e-02 7.810995e-02 9.166414e-02 1.113824e-01 1.243160e-01 1.431388e-01 1.552090e-01 1.728590e-01 1.838464e-01 2.000719e-01 2.097880e-01 2.243705e-01 2.326639e-01 2.454246e-01 2.521854e-01 2.629893e-01 2.681508e-01 2.769083e-01 2.804466e-01 2.871130e-01 2.890442e-01 2.936168e-01 2.939923e-01 2.965053e-01 2.954060e-01 2.959245e-01 2.934542e-01 2.920675e-01 2.883463e-01 2.851609e-01 2.803192e-01 2.754527e-01 2.696260e-01 2.632021e-01 2.565268e-01 2.486715e-01 2.412826e-01 2.321218e-01 2.241510e-01 2.138100e-01 2.053853e-01 1.939885e-01 1.852341e-01 1.729062e-01 1.639431e-01 1.508107e-01 1.417567e-01 1.279488e-01 1.189182e-01 1.045677e-01 9.567027e-02 8.091343e-02 7.225277e-02 5.722803e-02 4.889857e-02 3.374451e-02 2.582807e-02 1.068009e-02 3.241871e-03 -1.177173e-02 -1.868719e-02 -3.344947e-02 -3.982191e-02 -5.423127e-02 -6.006722e-02 -7.404051e-02 -7.937422e-02 -9.284843e-02 -9.774055e-02 -1.106725e-01 -1.152063e-01 -1.275700e-01 -1.318449e-01 -1.436270e-01 -1.477498e-01 -1.589427e-01 -1.630166e-01 -1.736105e-01 -1.777239e-01 -1.876985e-01 -1.919134e-01 -2.012302e-01 -2.055725e-01 -2.141692e-01 -2.186219e-01 -2.264091e-01 -2.309088e-01 -2.377706e-01 -2.422088e-01 -2.480064e-01 -2.522352e-01 -2.568137e-01 -2.606548e-01 -2.638523e-01 -2.671089e-01 -2.687671e-01 -2.712373e-01 -2.712112e-01 -2.727010e-01 -2.708688e-01 -2.712036e-01 -2.674737e-01 -2.665080e-01 -2.608240e-01 -2.584481e-01 -2.507919e-01 -2.469361e-01 -2.373283e-01 -2.319648e-01 -2.204643e-01 -2.136070e-01 -2.003095e-01 -1.920126e-01 -1.770480e-01 
-1.699151e-01 -1.531941e-01 -1.421453e-01 -1.240775e-01 -1.119297e-01 -9.273722e-02 -7.968559e-02 -5.961614e-02 -4.588258e-02 -2.520693e-02 -1.103571e-02 9.956081e-03 2.430359e-02 4.530694e-02 5.955878e-02 8.026068e-02 9.414198e-02 1.142286e-01 1.274702e-01 1.466356e-01 1.589835e-01 1.769389e-01 1.881634e-01 2.046469e-01 2.145510e-01 2.293358e-01 2.377622e-01 2.506637e-01 2.574994e-01 2.683801e-01 2.735585e-01 2.823293e-01 2.858293e-01 2.924492e-01 2.942923e-01 2.987646e-01 2.990094e-01 3.013765e-01 3.001121e-01 3.004480e-01 2.977866e-01 2.961898e-01 2.922599e-01 2.888454e-01 2.837843e-01 2.786773e-01 2.726263e-01 2.659562e-01 2.590561e-01 2.509530e-01 2.433416e-01 2.339338e-01 2.257446e-01 2.151581e-01 2.065201e-01 1.948793e-01 1.859173e-01 1.733465e-01 1.641823e-01 1.508073e-01 1.415600e-01 1.275103e-01 1.182965e-01 1.037059e-01 9.463879e-02 7.964602e-02 7.083350e-02 5.558075e-02 4.712258e-02 3.175328e-02 2.373708e-02 8.392331e-03 8.890642e-04 -1.429691e-02 -2.123771e-02 -3.614247e-02 -4.249702e-02 -5.701467e-02 -6.278829e-02 -7.683331e-02 -8.206188e-02 -9.557139e-02 -1.003206e-01 -1.132544e-01 -1.176159e-01 -1.299539e-01 -1.340388e-01 -1.457760e-01 -1.497049e-01 -1.608438e-01 -1.647356e-01 -1.752770e-01 -1.792353e-01 -1.891693e-01 -1.932699e-01 -2.025663e-01 -2.068460e-01 -2.154481e-01 -2.198960e-01 -2.277166e-01 -2.322708e-01 -2.391922e-01 -2.437403e-01 -2.496184e-01 -2.540038e-01 -2.586759e-01 -2.627079e-01 -2.660022e-01 -2.694693e-01 -2.712172e-01 -2.739021e-01 -2.739489e-01 -2.756426e-01 -2.738581e-01 -2.743731e-01 -2.706591e-01 -2.698394e-01 -2.641350e-01 -2.618632e-01 -2.541476e-01 -2.503490e-01 -2.406419e-01 -2.352858e-01 -2.236463e-01 -2.167457e-01 -2.032702e-01 -1.948802e-01 -1.797001e-01 
-1.764267e-01 -1.593082e-01 -1.479121e-01 -1.293885e-01 -1.168373e-01 -9.713783e-02 -8.363561e-02 -6.301609e-02 -4.879467e-02 -2.753489e-02 -1.284979e-02 8.749692e-03 2.362452e-02 4.524702e-02 6.002575e-02 8.134476e-02 9.573775e-02 1.164248e-01 1.301479e-01 1.498822e-01 1.626669e-01 1.811452e-01 1.927490e-01 2.096964e-01 2.199120e-01 2.350916e-01 2.437549e-01 2.569750e-01 2.639699e-01 2.750897e-01 2.803504e-01 2.892819e-01 2.927918e-01 2.994982e-01 3.012865e-01 3.057786e-01 3.059133e-01 3.082430e-01 3.068242e-01 3.070762e-01 3.042273e-01 3.025107e-01 2.983705e-01 2.948104e-01 2.895253e-01 2.842551e-01 2.779738e-01 2.711295e-01 2.639984e-01 2.557142e-01 2.478745e-01 2.382810e-01 2.298685e-01 2.190920e-01 2.102365e-01 1.984008e-01 1.892278e-01 1.764555e-01 1.670873e-01 1.535030e-01 1.440598e-01 1.297922e-01 1.203925e-01 1.055758e-01 9.633595e-02 8.111062e-02 7.214262e-02 5.665411e-02 4.806275e-02 3.245905e-02 2.433731e-02 8.764897e-03 1.188845e-03 -1.421248e-02 -2.118931e-02 -3.629219e-02 -4.264400e-02 -5.733913e-02 -6.307202e-02 -7.727285e-02 -8.242699e-02 -9.607263e-02 -1.007218e-01 -1.137773e-01 -1.180252e-01 -1.304790e-01 -1.344517e-01 -1.463096e-01 -1.501453e-01 -1.614220e-01 -1.652575e-01 -1.759662e-01 -1.799217e-01 -1.900626e-01 -1.942274e-01 -2.037771e-01 -2.081963e-01 -2.171001e-01 -2.217647e-01 -2.299317e-01 -2.347746e-01 -2.420777e-01 -2.469746e-01 -2.532555e-01 -2.580321e-01 -2.631100e-01 -2.675537e-01 -2.712374e-01 -2.751135e-01 -2.772145e-01 -2.802826e-01 -2.806289e-01 -2.826596e-01 -2.811065e-01 -2.818958e-01 -2.783350e-01 -2.777147e-01 -2.720795e-01 -2.699248e-01 -2.621922e-01 -2.584252e-01 -2.486159e-01 -2.432064e-01 -2.313828e-01 -2.243469e-01 -2.106103e-01 -2.020077e-01 -1.864951e-01 
-1.803112e-01 -1.628489e-01 -1.511877e-01 -1.322723e-01 -1.193990e-01 -9.926362e-02 -8.538892e-02 -6.429437e-02 -4.965827e-02 -2.789128e-02 -1.275938e-02 9.370461e-03 2.471208e-02 4.687668e-02 6.212812e-02 8.398723e-02 9.884323e-02 1.200529e-01 1.342129e-01 1.544357e-01 1.676150e-01 1.865314e-01 1.984727e-01 2.157931e-01 2.262770e-01 2.417523e-01 2.506062e-01 2.640365e-01 2.711402e-01 2.823810e-01 2.876690e-01 2.966332e-01 3.000936e-01 3.067499e-01 3.084198e-01 3.127880e-01 3.127463e-01 3.148900e-01 3.132486e-01 3.132657e-01 3.101603e-01 3.081731e-01 3.037540e-01 2.998998e-01 2.943236e-01 2.887460e-01 2.821692e-01 2.750120e-01 2.675866e-01 2.589891e-01 2.508600e-01 2.409553e-01 2.322597e-01 2.211748e-01 2.120432e-01 1.999006e-01 1.904585e-01 1.773793e-01 1.677494e-01 1.538567e-01 1.441603e-01 1.295822e-01 1.199405e-01 1.048123e-01 9.534577e-02 7.981066e-02 7.063743e-02 5.484587e-02 4.607799e-02 3.018475e-02 2.192349e-02 6.083170e-03 -1.587057e-03 -1.722600e-02 -2.424414e-02 -3.954618e-02 -4.588094e-02 -6.073022e-02 -6.638531e-02 -8.069149e-02 -8.570884e-02 -9.941083e-02 -1.038708e-01 -1.169377e-01 -1.209555e-01 -1.333840e-01 -1.371022e-01 -1.489102e-01 -1.524868e-01 -1.637038e-01 -1.672978e-01 -1.779525e-01 -1.817066e-01 -1.918141e-01 -1.958373e-01 -2.053866e-01 -2.097393e-01 -2.186834e-01 -2.233657e-01 -2.316161e-01 -2.365622e-01 -2.439886e-01 -2.490676e-01 -2.555028e-01 -2.605269e-01 -2.657773e-01 -2.705150e-01 -2.743740e-01 -2.785683e-01 -2.808317e-01 -2.842193e-01 -2.847003e-01 -2.870304e-01 -2.855720e-01 -2.866221e-01 -2.831070e-01 -2.826948e-01 -2.770502e-01 -2.750409e-01 -2.672410e-01 -2.635507e-01 -2.536157e-01 -2.482114e-01 -2.362044e-01 -2.291022e-01 -2.151263e-01 -2.063878e-01 -1.905823e-01 
-1.883839e-01 -1.704157e-01 -1.583131e-01 -1.388192e-01 -1.254330e-01 -1.046549e-01 -9.020623e-02 -6.841400e-02 -5.315503e-02 -3.064612e-02 -1.485624e-02 8.046909e-03 2.406569e-02 4.701975e-02 6.294953e-02 8.559670e-02 1.011126e-01 1.230895e-01 1.378705e-01 1.588194e-01 1.725611e-01 1.921426e-01 2.045700e-01 2.224766e-01 2.333559e-01 2.493241e-01 2.584732e-01 2.722937e-01 2.795882e-01 2.911125e-01 2.964886e-01 3.056309e-01 3.090833e-01 3.158191e-01 3.173958e-01 3.217559e-01 3.215496e-01 3.236112e-01 3.217493e-01 3.216256e-01 3.182591e-01 3.160875e-01 3.113811e-01 3.073128e-01 3.014352e-01 2.956253e-01 2.887427e-01 2.813435e-01 2.736145e-01 2.647707e-01 2.563443e-01 2.461911e-01 2.372065e-01 2.258707e-01 2.164587e-01 2.040609e-01 1.943467e-01 1.810052e-01 1.711114e-01 1.569465e-01 1.469953e-01 1.321334e-01 1.222482e-01 1.068248e-01 9.713020e-02 8.129081e-02 7.191060e-02 5.581021e-02 4.686382e-02 3.066387e-02 2.226068e-02 6.123885e-03 -1.643661e-03 -1.756022e-02 -2.462434e-02 -4.017723e-02 -4.650245e-02 -6.157001e-02 -6.715975e-02 -8.164914e-02 -8.654999e-02 -1.004021e-01 -1.047047e-01 -1.178955e-01 -1.217312e-01 -1.342692e-01 -1.378015e-01 -1.497204e-01 -1.531323e-01 -1.644796e-01 -1.679561e-01 -1.787792e-01 -1.824875e-01 -1.928176e-01 -1.968873e-01 -2.067244e-01 -2.112290e-01 -2.205305e-01 -2.254741e-01 -2.341474e-01 -2.394577e-01 -2.473602e-01 -2.528900e-01 -2.598347e-01 -2.653712e-01 -2.711395e-01 -2.764206e-01 -2.807782e-01 -2.855141e-01 -2.882297e-01 -2.921250e-01 -2.929876e-01 -2.957634e-01 -2.945974e-01 -2.960090e-01 -2.926838e-01 -2.925336e-01 -2.869697e-01 -2.851139e-01 -2.772840e-01 -2.736359e-01 -2.635625e-01 -2.580909e-01 -2.458426e-01 -2.385681e-01 -2.242551e-01 -2.152462e-01 -1.990153e-01 
-1.937556e-01 -1.753480e-01 -1.628964e-01 -1.429001e-01 -1.290907e-01 -1.077514e-01 -9.281357e-02 -7.040714e-02 -5.460289e-02 -3.143486e-02 -1.505620e-02 8.539864e-03 2.517548e-02 4.884163e-02 6.539792e-02 8.875828e-02 1.048895e-01 1.275598e-01 1.429227e-01 1.645225e-01 1.787904e-01 1.989577e-01 2.118351e-01 2.302417e-01 2.414780e-01 2.578435e-01 2.672451e-01 2.813488e-01 2.887858e-01 3.004740e-01 3.058835e-01 3.150724e-01 3.184560e-01 3.251289e-01 3.265464e-01 3.307473e-01 3.303066e-01 3.321292e-01 3.299747e-01 3.295507e-01 3.258507e-01 3.233358e-01 3.182706e-01 3.138326e-01 3.075844e-01 3.013923e-01 2.941373e-01 2.863533e-01 2.782571e-01 2.690319e-01 2.602472e-01 2.497185e-01 2.403853e-01 2.286791e-01 2.189279e-01 2.061620e-01 1.961168e-01 1.824060e-01 1.721885e-01 1.576499e-01 1.473830e-01 1.321410e-01 1.219507e-01 1.061413e-01 9.615723e-02 7.992919e-02 7.028300e-02 5.379770e-02 4.461869e-02 2.804677e-02 1.945585e-02 2.971357e-03 -4.927020e-03 -2.115463e-02 -2.828155e-02 -4.409686e-02 -5.040823e-02 -6.567965e-02 -7.117439e-02 -8.580292e-02 -9.052875e-02 -1.044542e-01 -1.085097e-01 -1.217131e-01 -1.252446e-01 -1.377457e-01 -1.409389e-01 -1.527883e-01 -1.558536e-01 -1.671198e-01 -1.702733e-01 -1.810260e-01 -1.844663e-01 -1.947583e-01 -1.986434e-01 -2.084923e-01 -2.129176e-01 -2.222919e-01 -2.272742e-01 -2.360845e-01 -2.415531e-01 -2.496511e-01 -2.554489e-01 -2.626344e-01 -2.685283e-01 -2.745633e-01 -2.802636e-01 -2.848910e-01 -2.900755e-01 -2.930408e-01 -2.973819e-01 -2.984533e-01 -3.016422e-01 -3.006270e-01 -3.023945e-01 -2.991504e-01 -2.992803e-01 -2.937210e-01 -2.920580e-01 -2.841534e-01 -2.806043e-01 -2.703776e-01 -2.649092e-01 -2.524313e-01 -2.450658e-01 -2.304498e-01 -2.212590e-01 -2.046553e-01 
-2.035509e-01 -1.845209e-01 -1.715242e-01 -1.508184e-01 -1.363759e-01 -1.142489e-01 -9.860184e-02 -7.533934e-02 -5.876338e-02 -3.468281e-02 -1.748613e-02 7.064088e-03 2.454470e-02 4.918821e-02 6.659391e-02 9.093270e-02 1.078924e-01 1.315169e-01 1.476604e-01 1.701632e-01 1.851371e-01 2.061295e-01 2.196139e-01 2.387432e-01 2.504683e-01 2.674347e-01 2.771936e-01 2.917634e-01 2.994213e-01 3.114357e-01 3.169322e-01 3.263101e-01 3.296568e-01 3.363914e-01 3.376635e-01 3.418144e-01 3.411394e-01 3.428201e-01 3.403635e-01 3.397265e-01 3.356776e-01 3.328999e-01 3.274579e-01 3.227260e-01 3.160893e-01 3.095873e-01 3.019440e-01 2.938450e-01 2.853685e-01 2.758294e-01 2.666764e-01 2.558367e-01 2.461484e-01 2.341324e-01 2.240380e-01 2.109594e-01 2.005811e-01 1.865496e-01 1.760076e-01 1.611354e-01 1.505524e-01 1.349608e-01 1.244652e-01 1.082894e-01 9.801587e-02 8.140723e-02 7.149520e-02 5.462132e-02 4.521031e-02 2.825122e-02 1.947393e-02 2.615496e-03 -5.411503e-03 -2.198693e-02 -2.917395e-02 -4.529873e-02 -5.159407e-02 -6.712705e-02 -7.252716e-02 -8.736438e-02 -9.192137e-02 -1.060040e-01 -1.098288e-01 -1.231465e-01 -1.264063e-01 -1.389947e-01 -1.419038e-01 -1.538358e-01 -1.566388e-01 -1.680094e-01 -1.709593e-01 -1.818655e-01 -1.851968e-01 -1.957157e-01 -1.996164e-01 -2.097834e-01 -2.143691e-01 -2.241604e-01 -2.294549e-01 -2.387770e-01 -2.447017e-01 -2.533899e-01 -2.597653e-01 -2.675921e-01 -2.741503e-01 -2.808426e-01 -2.872511e-01 -2.925135e-01 -2.984042e-01 -3.019446e-01 -3.069459e-01 -3.085002e-01 -3.122656e-01 -3.116164e-01 -3.138481e-01 -3.108373e-01 -3.113006e-01 -3.058348e-01 -3.043648e-01 -2.964144e-01 -2.929165e-01 -2.825099e-01 -2.769552e-01 -2.641720e-01 -2.565904e-01 -2.415536e-01 -2.320266e-01 -2.148965e-01 
-2.105571e-01 -1.909887e-01 -1.775523e-01 -1.562293e-01 -1.412545e-01 -1.184353e-01 -1.021722e-01 -7.814821e-02 -6.088383e-02 -3.598106e-02 -1.803815e-02 7.382180e-03 2.564807e-02 5.119176e-02 6.939861e-02 9.464465e-02 1.123943e-01 1.369056e-01 1.537982e-01 1.771371e-01 1.927891e-01 2.145357e-01 2.285994e-01 2.483727e-01 2.605551e-01 2.780319e-01 2.881106e-01 3.030416e-01 3.108746e-01 3.230944e-01 3.286234e-01 3.380538e-01 3.413005e-01 3.479465e-01 3.490032e-01 3.529429e-01 3.519586e-01 3.533288e-01 3.504925e-01 3.494716e-01 3.449960e-01 3.417857e-01 3.358915e-01 3.307008e-01 3.236035e-01 3.166345e-01 3.085351e-01 2.999733e-01 2.910530e-01 2.810620e-01 2.714807e-01 2.602015e-01 2.500999e-01 2.376540e-01 2.271586e-01 2.136542e-01 2.028837e-01 1.884237e-01 1.774954e-01 1.621859e-01 1.512220e-01 1.351802e-01 1.243111e-01 1.076714e-01 9.703798e-02 7.995542e-02 6.970664e-02 5.235675e-02 4.264546e-02 2.522056e-02 1.619530e-02 -1.103069e-03 -9.308716e-03 -2.628062e-02 -3.356062e-02 -5.002099e-02 -5.631023e-02 -7.210296e-02 -7.738975e-02 -9.240093e-02 -9.673679e-02 -1.109048e-01 -1.144093e-01 -1.277296e-01 -1.305891e-01 -1.431122e-01 -1.455699e-01 -1.573920e-01 -1.597299e-01 -1.709752e-01 -1.734891e-01 -1.842870e-01 -1.872555e-01 -1.977139e-01 -2.013650e-01 -2.115448e-01 -2.160257e-01 -2.259192e-01 -2.312717e-01 -2.407898e-01 -2.469377e-01 -2.559072e-01 -2.626563e-01 -2.708299e-01 -2.778833e-01 -2.849591e-01 -2.919439e-01 -2.975935e-01 -3.040960e-01 -3.079944e-01 -3.135975e-01 -3.154512e-01 -3.197682e-01 -3.193377e-01 -3.220385e-01 -3.191511e-01 -3.199785e-01 -3.145339e-01 -3.133102e-01 -3.052772e-01 -3.019024e-01 -2.913125e-01 -2.857579e-01 -2.726955e-01 -2.649948e-01 -2.495881e-01 -2.398285e-01 -2.222423e-01 
-2.222698e-01 -2.019537e-01 -1.878576e-01 -1.656850e-01 -1.499451e-01 -1.261832e-01 -1.090619e-01 -8.401157e-02 -6.581043e-02 -3.980967e-02 -2.086941e-02 5.704370e-03 2.500567e-02 5.173675e-02 7.098943e-02 9.742952e-02 1.162031e-01 1.418828e-01 1.597421e-01 1.841879e-01 2.007135e-01 2.234696e-01 2.382808e-01 2.589330e-01 2.717104e-01 2.899089e-01 3.004124e-01 3.158906e-01 3.239718e-01 3.365578e-01 3.421629e-01 3.517832e-01 3.549485e-01 3.616226e-01 3.624624e-01 3.662909e-01 3.649812e-01 3.661282e-01 3.628872e-01 3.615604e-01 3.566289e-01 3.530586e-01 3.466824e-01 3.411025e-01 3.335176e-01 3.261501e-01 3.175720e-01 3.086159e-01 2.992345e-01 2.888601e-01 2.788385e-01 2.671874e-01 2.566654e-01 2.438549e-01 2.329552e-01 2.190859e-01 2.079225e-01 1.930884e-01 1.817748e-01 1.660736e-01 1.547301e-01 1.382732e-01 1.270322e-01 1.099520e-01 9.895994e-02 8.141421e-02 7.083048e-02 5.300278e-02 4.299416e-02 2.508976e-02 1.582153e-02 -1.941183e-03 -1.031759e-02 -2.771979e-02 -3.508163e-02 -5.191970e-02 -5.818890e-02 -7.429146e-02 -7.944999e-02 -9.469403e-02 -9.879629e-02 -1.131199e-01 -1.162996e-01 -1.297085e-01 -1.321783e-01 -1.447443e-01 -1.467851e-01 -1.586354e-01 -1.605762e-01 -1.718727e-01 -1.740613e-01 -1.849733e-01 -1.877392e-01 -1.984113e-01 -2.020267e-01 -2.125472e-01 -2.171897e-01 -2.275641e-01 -2.332875e-01 -2.434228e-01 -2.501411e-01 -2.598422e-01 -2.673304e-01 -2.763119e-01 -2.842244e-01 -2.921355e-01 -3.000391e-01 -3.064975e-01 -3.139145e-01 -3.185434e-01 -3.249967e-01 -3.274591e-01 -3.325120e-01 -3.325367e-01 -3.358231e-01 -3.332194e-01 -3.344607e-01 -3.291222e-01 -3.281323e-01 -3.200321e-01 -3.167132e-01 -3.058933e-01 -3.002255e-01 -2.867838e-01 -2.788134e-01 -2.628923e-01 -2.527201e-01 -2.344974e-01 
-2.310931e-01 -2.101360e-01 -1.955020e-01 -1.725933e-01 -1.562030e-01 -1.316123e-01 -1.137369e-01 -8.776915e-02 -6.872180e-02 -4.172289e-02 -2.186017e-02 5.778783e-03 2.605696e-02 5.389936e-02 7.415494e-02 1.017239e-01 1.214917e-01 1.482821e-01 1.670879e-01 1.925857e-01 2.099694e-01 2.336767e-01 2.492195e-01 2.706829e-01 2.840337e-01 3.028713e-01 3.137690e-01 3.296929e-01 3.379798e-01 3.508097e-01 3.564360e-01 3.661032e-01 3.691203e-01 3.756614e-01 3.762081e-01 3.797500e-01 3.780324e-01 3.787721e-01 3.750407e-01 3.732211e-01 3.677487e-01 3.636341e-01 3.566947e-01 3.505489e-01 3.424008e-01 3.344688e-01 3.253432e-01 3.158393e-01 3.059342e-01 2.950358e-01 2.845162e-01 2.723644e-01 2.613669e-01 2.480726e-01 2.367134e-01 2.223672e-01 2.107531e-01 1.954373e-01 1.836756e-01 1.674775e-01 1.556854e-01 1.387088e-01 1.270199e-01 1.093946e-01 9.796214e-02 7.984914e-02 6.884456e-02 5.043740e-02 4.004491e-02 2.156513e-02 1.197158e-02 -6.340932e-03 -1.496020e-02 -3.286181e-02 -4.036027e-02 -5.762207e-02 -6.390106e-02 -8.032925e-02 -8.535673e-02 -1.008124e-01 -1.046387e-01 -1.190537e-01 -1.218213e-01 -1.352077e-01 -1.371520e-01 -1.496010e-01 -1.510407e-01 -1.627111e-01 -1.640255e-01 -1.751205e-01 -1.767160e-01 -1.874509e-01 -1.897187e-01 -2.002825e-01 -2.035520e-01 -2.140701e-01 -2.185639e-01 -2.290656e-01 -2.348641e-01 -2.452627e-01 -2.522833e-01 -2.623714e-01 -2.703685e-01 -2.798311e-01 -2.884166e-01 -2.968611e-01 -3.055438e-01 -3.125399e-01 -3.207773e-01 -3.259011e-01 -3.331527e-01 -3.360276e-01 -3.418024e-01 -3.421281e-01 -3.460192e-01 -3.435882e-01 -3.452907e-01 -3.399909e-01 -3.393062e-01 -3.311129e-01 -3.279407e-01 -3.169029e-01 -3.112281e-01 -2.974525e-01 -2.893292e-01 -2.729663e-01 -2.625044e-01 -2.437384e-01 
-2.449514e-01 -2.231119e-01 -2.076916e-01 -1.837847e-01 -1.664846e-01 -1.407868e-01 -1.218898e-01 -9.471339e-02 -7.454631e-02 -4.624776e-02 -2.518581e-02 3.827437e-03 2.535909e-02 5.462620e-02 7.615633e-02 1.051673e-01 1.261900e-01 1.543985e-01 1.743930e-01 2.012377e-01 2.196956e-01 2.446300e-01 2.610874e-01 2.836125e-01 2.976819e-01 3.173794e-01 3.287759e-01 3.453345e-01 3.538924e-01 3.671240e-01 3.728010e-01 3.826445e-01 3.855134e-01 3.920268e-01 3.922578e-01 3.955999e-01 3.934368e-01 3.938427e-01 3.895757e-01 3.873287e-01 3.812682e-01 3.766712e-01 3.691241e-01 3.624742e-01 3.537245e-01 3.452922e-01 3.355886e-01 3.256043e-01 3.151539e-01 3.038018e-01 2.927708e-01 2.801904e-01 2.687108e-01 2.550044e-01 2.431846e-01 2.284298e-01 2.163670e-01 2.006318e-01 1.884255e-01 1.717835e-01 1.595463e-01 1.420913e-01 1.299576e-01 1.118149e-01 9.994444e-02 8.127758e-02 6.985486e-02 5.086763e-02 4.009563e-02 2.102712e-02 1.111607e-02 -7.770159e-03 -1.661912e-02 -3.505208e-02 -4.266712e-02 -6.039020e-02 -6.665155e-02 -8.344696e-02 -8.830970e-02 -1.040227e-01 -1.075365e-01 -1.220954e-01 -1.244177e-01 -1.378458e-01 -1.392445e-01 -1.516610e-01 -1.525041e-01 -1.641105e-01 -1.648411e-01 -1.758942e-01 -1.769912e-01 -1.877643e-01 -1.896919e-01 -2.004286e-01 -2.035805e-01 -2.144484e-01 -2.190932e-01 -2.301437e-01 -2.363813e-01 -2.475246e-01 -2.552608e-01 -2.662597e-01 -2.752061e-01 -2.856925e-01 -2.953920e-01 -3.049035e-01 -3.147796e-01 -3.228097e-01 -3.322300e-01 -3.382831e-01 -3.466247e-01 -3.502654e-01 -3.569717e-01 -3.578598e-01 -3.624792e-01 -3.603877e-01 -3.625928e-01 -3.574075e-01 -3.569953e-01 -3.487027e-01 -3.455822e-01 -3.342503e-01 -3.284230e-01 -3.141798e-01 -3.057197e-01 -2.887358e-01 -2.777717e-01 -2.582478e-01 