# vtk DataFile Version 2.0
Comment goes here
ASCII

DATASET STRUCTURED_POINTS
FIELD FieldData 1
TIME 1 1 double
0.05000000
DIMENSIONS    128   128   1

ORIGIN    0.000   0.000   0.000
SPACING   0.039062 0.039062   1.000

POINT_DATA   16384
SCALARS uX double
LOOKUP_TABLE default

5.044306e-01 5.339247e-01 5.678595e-01 5.950421e-01 6.269607e-01 6.517728e-01 6.815889e-01 7.039582e-01 7.315665e-01 7.514044e-01 7.766777e-01 7.938782e-01 8.166669e-01 8.311071e-01 8.512404e-01 8.627826e-01 8.800716e-01 8.885670e-01 9.028089e-01 9.081022e-01 9.190863e-01 9.210220e-01 9.285360e-01 9.269645e-01 9.308020e-01 9.255865e-01 9.255540e-01 9.165776e-01 9.125016e-01 8.996734e-01 8.914075e-01 8.746687e-01 8.620993e-01 8.414279e-01 8.244798e-01 7.998950e-01 7.785356e-01 7.501008e-01 7.243442e-01 6.921693e-01 6.620794e-01 6.263225e-01 5.920158e-01 5.528846e-01 5.145328e-01 4.722853e-01 4.301181e-01 3.850639e-01 3.393710e-01 2.918719e-01 2.430055e-01 1.934768e-01 1.418532e-01 9.076403e-02 3.686480e-02 -1.526210e-02 -7.088985e-02 -1.234794e-01 -1.802249e-01 -2.326529e-01 -2.898452e-01 -3.414436e-01 -3.983579e-01 -4.484232e-01 -5.042900e-01 -5.520943e-01 -6.061118e-01 -6.509173e-01 -7.022668e-01 -7.433436e-01 -7.912082e-01 -8.278539e-01 -8.714396e-01 -9.030016e-01 -9.415604e-01 -9.674583e-01 -1.000312e+00 -1.020061e+00 -1.046626e+00 -1.059854e+00 -1.079664e+00 -1.086133e+00 -1.098857e+00 -1.098471e+00 -1.103929e+00 -1.096746e+00 -1.094920e+00 -1.081144e+00 -1.072180e+00 -1.052160e+00 -1.036362e+00 -1.010575e+00 -9.883940e-01 -9.574245e-01 -9.294378e-01 -8.939535e-01 -8.608392e-01 -8.215639e-01 -7.840697e-01 -7.417545e-01 -7.006653e-01 -6.560610e-01 -6.121672e-01 -5.659992e-01 -5.200666e-01 -4.730141e-01 -4.257594e-01 -3.784392e-01 -3.305109e-01 -2.834665e-01 -2.354325e-01 -1.891288e-01 -1.414710e-01 -9.629332e-02 -4.940736e-02 -5.665638e-03 4.013388e-02 8.219850e-02 1.266693e-01 1.668750e-01 2.098356e-01 2.480492e-01 2.893667e-01 3.254922e-01 3.650686e-01 3.990361e-01 4.367962e-01 4.685512e-01 
5.043207e-01 5.337986e-01 5.676845e-01 5.948516e-01 6.267216e-01 6.515200e-01 6.812895e-01 7.036477e-01 7.312127e-01 7.510430e-01 7.762777e-01 7.934746e-01 8.162305e-01 8.306714e-01 8.507788e-01 8.623262e-01 8.795972e-01 8.881020e-01 9.023346e-01 9.076414e-01 9.186257e-01 9.205782e-01 9.281025e-01 9.265505e-01 9.304086e-01 9.252147e-01 9.252134e-01 9.162595e-01 9.122253e-01 8.994197e-01 8.912059e-01 8.744887e-01 8.619812e-01 8.413296e-01 8.244522e-01 7.998845e-01 7.786034e-01 7.501824e-01 7.245101e-01 6.923451e-01 6.623434e-01 6.265924e-01 5.923756e-01 5.532460e-01 5.149833e-01 4.727333e-01 4.306517e-01 3.855909e-01 3.399773e-01 2.924683e-01 2.436718e-01 1.941303e-01 1.425647e-01 9.146054e-02 3.760479e-02 -1.453854e-02 -7.013948e-02 -1.227462e-01 -1.794832e-01 -2.319284e-01 -2.891315e-01 -3.407467e-01 -3.976914e-01 -4.477725e-01 -5.036887e-01 -5.515077e-01 -6.055920e-01 -6.504113e-01 -7.018426e-01 -7.429324e-01 -7.908904e-01 -8.275487e-01 -8.712355e-01 -9.028103e-01 -9.414733e-01 -9.673847e-01 -1.000341e+00 -1.020104e+00 -1.046766e+00 -1.060009e+00 -1.079905e+00 -1.086390e+00 -1.099186e+00 -1.098817e+00 -1.104329e+00 -1.097162e+00 -1.095372e+00 -1.081610e+00 -1.072662e+00 -1.052654e+00 -1.036853e+00 -1.011072e+00 -9.888718e-01 -9.579025e-01 -9.298821e-01 -8.943916e-01 -8.612324e-01 -8.219444e-01 -7.843978e-01 -7.420640e-01 -7.009190e-01 -6.562913e-01 -6.123419e-01 -5.661474e-01 -5.201629e-01 -4.730828e-01 -4.257826e-01 -3.784355e-01 -3.304705e-01 -2.834018e-01 -2.353415e-01 -1.890174e-01 -1.413445e-01 -9.615156e-02 -4.926192e-02 -5.510643e-03 4.028151e-02 8.234981e-02 1.268029e-01 1.670067e-01 2.099407e-01 2.481474e-01 2.894304e-01 3.255451e-01 3.650810e-01 3.990346e-01 4.367497e-01 4.684891e-01 
5.065334e-01 5.360529e-01 5.700234e-01 5.972356e-01 6.291972e-01 6.540455e-01 6.839142e-01 7.063279e-01 7.339996e-01 7.538906e-01 7.792386e-01 7.965007e-01 8.193746e-01 8.338838e-01 8.541115e-01 8.657282e-01 8.831185e-01 8.916915e-01 9.060388e-01 9.114099e-01 9.225001e-01 9.245106e-01 9.321279e-01 9.306247e-01 9.345590e-01 9.294020e-01 9.294562e-01 9.205252e-01 9.165225e-01 9.037237e-01 8.955146e-01 8.787867e-01 8.662550e-01 8.455739e-01 8.286422e-01 8.040255e-01 7.826592e-01 7.541692e-01 7.283808e-01 6.961266e-01 6.659785e-01 6.301175e-01 5.957250e-01 5.564644e-01 5.179979e-01 4.755953e-01 4.332834e-01 3.880478e-01 3.421789e-01 2.944719e-01 2.453974e-01 1.956339e-01 1.437694e-01 9.241865e-02 3.824594e-02 -1.416866e-02 -7.010181e-02 -1.230036e-01 -1.800845e-01 -2.328466e-01 -2.904013e-01 -3.423514e-01 -3.996506e-01 -4.500797e-01 -5.063475e-01 -5.545205e-01 -6.089475e-01 -6.541178e-01 -7.058760e-01 -7.473036e-01 -7.955655e-01 -8.325372e-01 -8.764972e-01 -9.083490e-01 -9.472470e-01 -9.733875e-01 -1.006534e+00 -1.026467e+00 -1.053267e+00 -1.066614e+00 -1.086589e+00 -1.093105e+00 -1.105918e+00 -1.105505e+00 -1.110972e+00 -1.103686e+00 -1.101787e+00 -1.087837e+00 -1.078721e+00 -1.058463e+00 -1.042439e+00 -1.016360e+00 -9.938899e-01 -9.625865e-01 -9.342607e-01 -8.984146e-01 -8.649262e-01 -8.252754e-01 -7.873884e-01 -7.446978e-01 -7.032133e-01 -6.582462e-01 -6.139693e-01 -5.674616e-01 -5.211706e-01 -4.738096e-01 -4.262306e-01 -3.786385e-01 -3.304261e-01 -2.831492e-01 -2.348744e-01 -1.883777e-01 -1.405221e-01 -9.518936e-02 -4.814618e-02 -4.283716e-03 4.163688e-02 8.379255e-02 1.283539e-01 1.686263e-01 2.116534e-01 2.499151e-01 2.912813e-01 3.274419e-01 3.670559e-01 4.010507e-01 4.388429e-01 4.706223e-01 
5.085280e-01 5.380555e-01 5.720112e-01 5.992364e-01 6.311909e-01 6.560608e-01 6.859341e-01 7.083803e-01 7.360709e-01 7.560068e-01 7.813897e-01 7.987093e-01 8.216347e-01 8.362134e-01 8.565087e-01 8.682051e-01 8.856779e-01 8.943383e-01 9.087810e-01 9.142439e-01 9.254398e-01 9.275427e-01 9.352731e-01 9.338587e-01 9.379102e-01 9.328341e-01 9.330062e-01 9.241441e-01 9.202568e-01 9.075109e-01 8.994114e-01 8.827168e-01 8.702857e-01 8.496154e-01 8.327721e-01 8.081413e-01 7.868480e-01 7.583171e-01 7.325831e-01 7.002598e-01 6.701440e-01 6.341849e-01 5.997990e-01 5.604106e-01 5.219213e-01 4.793607e-01 4.369924e-01 3.915685e-01 3.456058e-01 2.976802e-01 2.484704e-01 1.984585e-01 1.464138e-01 9.478568e-02 4.038516e-02 -1.233433e-02 -6.854439e-02 -1.217762e-01 -1.791832e-01 -2.322969e-01 -2.902247e-01 -3.425437e-01 -4.002587e-01 -4.510676e-01 -5.077875e-01 -5.563437e-01 -6.112496e-01 -6.567981e-01 -7.090501e-01 -7.508411e-01 -7.995977e-01 -8.369076e-01 -8.813474e-01 -9.135014e-01 -9.528475e-01 -9.792438e-01 -1.012789e+00 -1.032922e+00 -1.060056e+00 -1.073538e+00 -1.093769e+00 -1.100349e+00 -1.113326e+00 -1.112903e+00 -1.118435e+00 -1.111064e+00 -1.109128e+00 -1.095020e+00 -1.085766e+00 -1.065283e+00 -1.049029e+00 -1.022665e+00 -9.998839e-01 -9.682476e-01 -9.395455e-01 -9.033315e-01 -8.694202e-01 -8.293807e-01 -7.910447e-01 -7.479589e-01 -7.060195e-01 -6.606646e-01 -6.159456e-01 -5.690699e-01 -5.223656e-01 -4.746665e-01 -4.267155e-01 -3.788228e-01 -3.302882e-01 -2.827529e-01 -2.342100e-01 -1.874989e-01 -1.394303e-01 -9.392655e-02 -4.672278e-02 -2.729888e-03 4.330361e-02 8.555373e-02 1.301869e-01 1.705235e-01 2.135889e-01 2.518909e-01 2.932700e-01 3.294536e-01 3.690630e-01 4.030701e-01 4.408477e-01 4.726345e-01 
5.128369e-01 5.424292e-01 5.765035e-01 6.038022e-01 6.358904e-01 6.608460e-01 6.908711e-01 7.134173e-01 7.412791e-01 7.613296e-01 7.869023e-01 8.043500e-01 8.274814e-01 8.421990e-01 8.627123e-01 8.745548e-01 8.922520e-01 9.010607e-01 9.157274e-01 9.213352e-01 9.327474e-01 9.349856e-01 9.429165e-01 9.416217e-01 9.458500e-01 9.408717e-01 9.411894e-01 9.323975e-01 9.286177e-01 9.159096e-01 9.078737e-01 8.911803e-01 8.787642e-01 8.580555e-01 8.411748e-01 8.164636e-01 7.950783e-01 7.664235e-01 7.405411e-01 7.080494e-01 6.777282e-01 6.415553e-01 6.069067e-01 5.672584e-01 5.284491e-01 4.855815e-01 4.428364e-01 3.970572e-01 3.506614e-01 3.023306e-01 2.526325e-01 2.021643e-01 1.495775e-01 9.744115e-02 4.244724e-02 -1.083208e-02 -6.768324e-02 -1.215244e-01 -1.796149e-01 -2.333831e-01 -2.920297e-01 -3.450407e-01 -4.035005e-01 -4.550282e-01 -5.125071e-01 -5.617946e-01 -6.174596e-01 -6.637342e-01 -7.167291e-01 -7.592202e-01 -8.086855e-01 -8.466466e-01 -8.917415e-01 -9.244740e-01 -9.644015e-01 -9.912800e-01 -1.025314e+00 -1.045811e+00 -1.073322e+00 -1.087033e+00 -1.107512e+00 -1.114173e+00 -1.127260e+00 -1.126763e+00 -1.132259e+00 -1.124661e+00 -1.122540e+00 -1.108062e+00 -1.098481e+00 -1.077499e+00 -1.060787e+00 -1.033820e+00 -1.010469e+00 -9.781510e-01 -9.487922e-01 -9.118467e-01 -8.772194e-01 -8.364285e-01 -7.973469e-01 -7.535177e-01 -7.108325e-01 -6.647665e-01 -6.193279e-01 -5.717930e-01 -5.244173e-01 -4.761254e-01 -4.275673e-01 -3.791568e-01 -3.300894e-01 -2.821145e-01 -2.331171e-01 -1.860435e-01 -1.375971e-01 -9.180258e-02 -4.429210e-02 -7.209388e-05 4.620608e-02 8.862950e-02 1.334562e-01 1.739232e-01 2.171430e-01 2.555434e-01 2.970497e-01 3.333103e-01 3.730310e-01 4.071031e-01 4.449864e-01 4.768347e-01 
5.169326e-01 5.465526e-01 5.806414e-01 6.079781e-01 6.400969e-01 6.651069e-01 6.951850e-01 7.178059e-01 7.457472e-01 7.658948e-01 7.915753e-01 8.091425e-01 8.324100e-01 8.472676e-01 8.679432e-01 8.799426e-01 8.978247e-01 9.068021e-01 9.216714e-01 9.274533e-01 9.390796e-01 9.414899e-01 9.496399e-01 9.485074e-01 9.529527e-01 9.481190e-01 9.486448e-01 9.399720e-01 9.363846e-01 9.237631e-01 9.158975e-01 8.992521e-01 8.869784e-01 8.662740e-01 8.495025e-01 8.247478e-01 8.034335e-01 7.746844e-01 7.488300e-01 7.161911e-01 6.858500e-01 6.494756e-01 6.147542e-01 5.748489e-01 5.359089e-01 4.927280e-01 4.497887e-01 4.036393e-01 3.569804e-01 3.082222e-01 2.581868e-01 2.072338e-01 1.542313e-01 1.015536e-01 4.606214e-02 -7.812930e-03 -6.524475e-02 -1.197323e-01 -1.784853e-01 -2.329444e-01 -2.923306e-01 -3.460685e-01 -4.053365e-01 -4.576152e-01 -5.159582e-01 -5.660062e-01 -6.225739e-01 -6.696009e-01 -7.235158e-01 -7.667310e-01 -8.171082e-01 -8.557436e-01 -9.017139e-01 -9.350484e-01 -9.757851e-01 -1.003171e+00 -1.037917e+00 -1.058808e+00 -1.086905e+00 -1.100877e+00 -1.121792e+00 -1.128569e+00 -1.141920e+00 -1.141387e+00 -1.146962e+00 -1.139175e+00 -1.136943e+00 -1.122128e+00 -1.112250e+00 -1.090797e+00 -1.073617e+00 -1.046062e+00 -1.022093e+00 -9.890957e-01 -9.589991e-01 -9.213099e-01 -8.858616e-01 -8.442914e-01 -8.043439e-01 -7.597292e-01 -7.161712e-01 -6.693406e-01 -6.230574e-01 -5.748027e-01 -5.266399e-01 -4.776919e-01 -4.284268e-01 -3.794372e-01 -3.297576e-01 -2.812883e-01 -2.317804e-01 -1.842991e-01 -1.354440e-01 -8.932565e-02 -4.150258e-02 2.964219e-03 4.946897e-02 9.207193e-02 1.370523e-01 1.776432e-01 2.209582e-01 2.594395e-01 3.009980e-01 3.373091e-01 3.770535e-01 4.111580e-01 4.490504e-01 4.809239e-01 
5.233245e-01 5.530273e-01 5.872636e-01 6.146985e-01 6.469900e-01 6.721193e-01 7.024008e-01 7.251657e-01 7.533434e-01 7.736606e-01 7.996100e-01 8.173708e-01 8.409363e-01 8.560075e-01 8.770043e-01 8.892315e-01 9.074497e-01 9.166611e-01 9.318714e-01 9.378848e-01 9.498455e-01 9.524750e-01 9.609407e-01 9.600048e-01 9.647351e-01 9.600656e-01 9.608338e-01 9.522836e-01 9.488856e-01 9.363369e-01 9.285986e-01 9.119696e-01 8.997535e-01 8.790040e-01 8.622146e-01 8.373498e-01 8.159379e-01 7.870112e-01 7.609768e-01 7.280913e-01 6.974859e-01 6.607948e-01 6.257235e-01 5.854304e-01 5.460539e-01 5.024128e-01 4.589496e-01 4.122657e-01 3.649949e-01 3.156256e-01 2.648901e-01 2.132473e-01 1.594570e-01 1.060091e-01 4.964419e-02 -5.081363e-03 -6.346841e-02 -1.188841e-01 -1.786674e-01 -2.341259e-01 -2.946077e-01 -3.494053e-01 -4.098203e-01 -4.632030e-01 -5.227264e-01 -5.739009e-01 -6.316604e-01 -6.798091e-01 -7.349011e-01 -7.792015e-01 -8.307116e-01 -8.703600e-01 -9.173873e-01 -9.516252e-01 -9.933095e-01 -1.021452e+00 -1.057004e+00 -1.078470e+00 -1.107199e+00 -1.121537e+00 -1.142884e+00 -1.149797e+00 -1.163357e+00 -1.162720e+00 -1.168267e+00 -1.160137e+00 -1.157639e+00 -1.142255e+00 -1.131879e+00 -1.109656e+00 -1.091765e+00 -1.063275e+00 -1.038412e+00 -1.004355e+00 -9.732228e-01 -9.343965e-01 -8.978156e-01 -8.550776e-01 -8.139502e-01 -7.681810e-01 -7.234444e-01 -6.755112e-01 -6.280944e-01 -5.788203e-01 -5.296051e-01 -4.797434e-01 -4.295331e-01 -3.797494e-01 -3.292478e-01 -2.801089e-01 -2.299080e-01 -1.818793e-01 -1.324573e-01 -8.590515e-02 -3.763118e-02 7.168775e-03 5.402345e-02 9.687483e-02 1.421223e-01 1.828942e-01 2.264130e-01 2.650255e-01 3.067439e-01 3.431532e-01 3.830322e-01 4.172172e-01 4.552352e-01 4.871849e-01 
5.295111e-01 5.592534e-01 5.935251e-01 6.210169e-01 6.533706e-01 6.785831e-01 7.089620e-01 7.318418e-01 7.601577e-01 7.806241e-01 8.067544e-01 8.246984e-01 8.484866e-01 8.637720e-01 8.850295e-01 8.974958e-01 9.160065e-01 9.254742e-01 9.410003e-01 9.472772e-01 9.595673e-01 9.624563e-01 9.712543e-01 9.705621e-01 9.756164e-01 9.711626e-01 9.722357e-01 9.638620e-01 9.607395e-01 9.483174e-01 9.408159e-01 9.242548e-01 9.122283e-01 8.914805e-01 8.748262e-01 8.498915e-01 8.285534e-01 7.994812e-01 7.734531e-01 7.403438e-01 7.096712e-01 6.726762e-01 6.374579e-01 5.967795e-01 5.571697e-01 5.130607e-01 4.692708e-01 4.220352e-01 3.743373e-01 3.243315e-01 2.730615e-01 2.206965e-01 1.662582e-01 1.120030e-01 5.487200e-02 -7.440337e-04 -6.001680e-02 -1.164014e-01 -1.771881e-01 -2.336858e-01 -2.952820e-01 -3.511764e-01 -4.128045e-01 -4.673244e-01 -5.281410e-01 -5.804709e-01 -6.395784e-01 -6.888737e-01 -7.453370e-01 -7.907441e-01 -8.436115e-01 -8.842927e-01 -9.326212e-01 -9.677829e-01 -1.010668e+00 -1.039590e+00 -1.076196e+00 -1.098266e+00 -1.127860e+00 -1.142598e+00 -1.164581e+00 -1.171670e+00 -1.185607e+00 -1.184909e+00 -1.190554e+00 -1.182125e+00 -1.179437e+00 -1.163527e+00 -1.152679e+00 -1.129722e+00 -1.111099e+00 -1.081696e+00 -1.055877e+00 -1.020768e+00 -9.885004e-01 -9.485252e-01 -9.106866e-01 -8.667497e-01 -8.243014e-01 -7.773289e-01 -7.312667e-01 -6.821685e-01 -6.334749e-01 -5.831103e-01 -5.327117e-01 -4.818624e-01 -4.305955e-01 -3.799466e-01 -3.285357e-01 -2.786644e-01 -2.277105e-01 -1.790836e-01 -1.290630e-01 -8.204099e-02 -3.331249e-02 1.184086e-02 5.902277e-02 1.021271e-01 1.475953e-01 1.885383e-01 2.321942e-01 2.709155e-01 3.127105e-01 3.491858e-01 3.891031e-01 4.233296e-01 4.613680e-01 4.933511e-01 
5.379626e-01 5.677971e-01 6.022368e-01 6.298455e-01 6.624054e-01 6.877675e-01 7.183988e-01 7.414660e-01 7.700839e-01 7.907766e-01 8.172582e-01 8.354652e-01 8.596494e-01 8.752289e-01 8.969191e-01 9.097025e-01 9.286710e-01 9.384677e-01 9.544630e-01 9.610679e-01 9.738227e-01 9.770248e-01 9.862659e-01 9.858573e-01 9.913163e-01 9.871023e-01 9.885254e-01 9.803346e-01 9.774926e-01 9.651851e-01 9.578818e-01 9.413575e-01 9.294369e-01 9.086411e-01 8.919926e-01 8.669201e-01 8.454821e-01 8.161798e-01 7.899421e-01 7.565089e-01 7.255143e-01 6.881008e-01 6.524463e-01 6.112537e-01 5.710915e-01 5.263710e-01 4.819107e-01 4.339637e-01 3.854753e-01 3.346546e-01 2.824722e-01 2.291852e-01 1.737116e-01 1.184241e-01 6.013568e-02 3.375767e-03 -5.717295e-02 -1.148108e-01 -1.769846e-01 -2.348376e-01 -2.979198e-01 -3.552579e-01 -4.184531e-01 -4.744839e-01 -5.369246e-01 -5.908032e-01 -6.515614e-01 -7.024060e-01 -7.605102e-01 -8.074230e-01 -8.618796e-01 -9.039729e-01 -9.537936e-01 -9.902206e-01 -1.034452e+00 -1.064441e+00 -1.102200e+00 -1.125086e+00 -1.155594e+00 -1.170857e+00 -1.193474e+00 -1.200765e+00 -1.215023e+00 -1.214189e+00 -1.219821e+00 -1.210918e+00 -1.207876e+00 -1.191172e+00 -1.179637e+00 -1.155603e+00 -1.135986e+00 -1.105273e+00 -1.078197e+00 -1.041605e+00 -1.007876e+00 -9.663111e-01 -9.268737e-01 -8.813085e-01 -8.371974e-01 -7.886206e-01 -7.409033e-01 -6.902797e-01 -6.400026e-01 -5.882356e-01 -5.363771e-01 -4.842798e-01 -4.317137e-01 -3.799892e-01 -3.274613e-01 -2.766928e-01 -2.248105e-01 -1.754597e-01 -1.246931e-01 -7.710725e-02 -2.779872e-02 1.777796e-02 6.539688e-02 1.088074e-01 1.545966e-01 1.957539e-01 2.396434e-01 2.785120e-01 3.204812e-01 3.570607e-01 3.971191e-01 4.314282e-01 4.695980e-01 5.016609e-01 
5.462191e-01 5.760936e-01 6.105776e-01 6.382537e-01 6.708986e-01 6.963671e-01 7.271350e-01 7.503546e-01 7.791673e-01 8.000617e-01 8.267983e-01 8.452554e-01 8.697528e-01 8.856263e-01 9.076819e-01 9.207948e-01 9.401715e-01 9.503220e-01 9.667561e-01 9.737253e-01 9.869353e-01 9.904964e-01 1.000194e+00 1.000122e+00 1.006023e+00 1.002108e+00 1.003943e+00 9.959961e-01 9.935222e-01 9.813902e-01 9.743986e-01 9.579692e-01 9.462929e-01 9.255019e-01 9.090209e-01 8.838562e-01 8.625009e-01 8.330045e-01 8.067576e-01 7.730257e-01 7.419230e-01 7.041044e-01 6.682353e-01 6.265301e-01 5.860391e-01 5.406971e-01 4.957850e-01 4.471058e-01 3.980332e-01 3.463675e-01 2.934593e-01 2.392125e-01 1.828629e-01 1.264998e-01 6.717874e-02 9.228793e-03 -5.251264e-02 -1.114502e-01 -1.749752e-01 -2.342279e-01 -2.988119e-01 -3.576340e-01 -4.224659e-01 -4.800423e-01 -5.442305e-01 -5.996863e-01 -6.622696e-01 -7.146859e-01 -7.746503e-01 -8.230861e-01 -8.793874e-01 -9.229074e-01 -9.744999e-01 -1.012207e+00 -1.058076e+00 -1.089149e+00 -1.128348e+00 -1.152075e+00 -1.183765e+00 -1.199587e+00 -1.223072e+00 -1.230610e+00 -1.245380e+00 -1.244461e+00 -1.250218e+00 -1.240897e+00 -1.237580e+00 -1.220139e+00 -1.207938e+00 -1.182875e+00 -1.162229e+00 -1.130240e+00 -1.101822e+00 -1.063760e+00 -1.028443e+00 -9.852788e-01 -9.440875e-01 -8.968578e-01 -8.509119e-01 -8.006718e-01 -7.511226e-01 -6.988968e-01 -6.468665e-01 -5.936095e-01 -5.401384e-01 -4.867024e-01 -4.327091e-01 -3.798231e-01 -3.260802e-01 -2.743394e-01 -2.214635e-01 -1.713299e-01 -1.197853e-01 -7.159531e-02 -2.170711e-02 2.431356e-02 7.233956e-02 1.160580e-01 1.621122e-01 2.034681e-01 2.475133e-01 2.864992e-01 3.285472e-01 3.651899e-01 4.052808e-01 4.396241e-01 4.778078e-01 5.098982e-01 
5.566915e-01 5.866557e-01 6.213162e-01 6.491193e-01 6.819963e-01 7.076400e-01 7.387056e-01 7.621546e-01 7.913356e-01 8.125151e-01 8.396898e-01 8.584848e-01 8.834844e-01 8.997410e-01 9.223520e-01 9.358821e-01 9.558526e-01 9.664396e-01 9.834871e-01 9.908948e-01 1.004717e+00 1.008699e+00 1.018984e+00 1.019298e+00 1.025739e+00 1.022152e+00 1.024460e+00 1.016768e+00 1.014678e+00 1.002712e+00 9.959997e-01 9.796343e-01 9.681203e-01 9.472828e-01 9.308369e-01 9.055098e-01 8.840559e-01 8.542785e-01 8.277949e-01 7.936627e-01 7.621824e-01 7.238442e-01 6.874545e-01 6.451101e-01 6.039529e-01 5.578506e-01 5.121236e-01 4.625594e-01 4.125195e-01 3.598390e-01 3.058069e-01 2.504092e-01 1.927759e-01 1.351196e-01 7.435357e-02 1.496400e-02 -4.838148e-02 -1.089048e-01 -1.741858e-01 -2.351636e-01 -3.016420e-01 -3.623130e-01 -4.291562e-01 -4.886797e-01 -5.549660e-01 -6.124302e-01 -6.771594e-01 -7.315972e-01 -7.937077e-01 -8.441197e-01 -9.025124e-01 -9.478965e-01 -1.001464e+00 -1.040852e+00 -1.088516e+00 -1.121012e+00 -1.161759e+00 -1.186585e+00 -1.219512e+00 -1.236048e+00 -1.260403e+00 -1.268225e+00 -1.283450e+00 -1.282363e+00 -1.288127e+00 -1.278183e+00 -1.274413e+00 -1.255919e+00 -1.242814e+00 -1.216318e+00 -1.194352e+00 -1.160617e+00 -1.130522e+00 -1.090487e+00 -1.053214e+00 -1.007940e+00 -9.646111e-01 -9.152295e-01 -8.670664e-01 -8.147171e-01 -7.629721e-01 -7.087542e-01 -6.546384e-01 -5.995648e-01 -5.441893e-01 -4.891525e-01 -4.334848e-01 -3.792358e-01 -3.240744e-01 -2.712135e-01 -2.171801e-01 -1.661596e-01 -1.137059e-01 -6.484169e-02 -1.426743e-02 3.224341e-02 8.076646e-02 1.248238e-01 1.712245e-01 2.128026e-01 2.570831e-01 2.962086e-01 3.384189e-01 3.751501e-01 4.153655e-01 4.497747e-01 4.880759e-01 5.202341e-01 
5.669806e-01 5.969698e-01 6.316683e-01 6.595380e-01 6.925119e-01 7.182778e-01 7.495127e-01 7.731485e-01 8.025786e-01 8.240132e-01 8.515190e-01 8.706358e-01 8.960449e-01 9.126837e-01 9.357741e-01 9.497355e-01 9.702421e-01 9.812943e-01 9.989179e-01 1.006806e+00 1.021225e+00 1.025682e+00 1.036563e+00 1.037324e+00 1.044340e+00 1.041150e+00 1.043991e+00 1.036625e+00 1.035008e+00 1.023279e+00 1.016964e+00 1.000730e+00 9.895245e-01 9.687018e-01 9.524640e-01 9.270268e-01 9.056719e-01 8.756547e-01 8.491534e-01 8.146492e-01 7.830270e-01 7.441839e-01 7.075200e-01 6.645371e-01 6.229643e-01 5.760884e-01 5.297938e-01 4.793187e-01 4.285471e-01 3.748148e-01 3.198743e-01 2.632798e-01 2.045493e-01 1.455477e-01 8.348563e-02 2.260155e-02 -4.224518e-02 -1.044088e-01 -1.713966e-01 -2.341507e-01 -3.025335e-01 -3.650986e-01 -4.340263e-01 -4.955339e-01 -5.640555e-01 -6.235557e-01 -6.906294e-01 -7.471072e-01 -8.116175e-01 -8.640165e-01 -9.247987e-01 -9.720534e-01 -1.027925e+00 -1.069000e+00 -1.118801e+00 -1.152732e+00 -1.195365e+00 -1.221310e+00 -1.255790e+00 -1.273074e+00 -1.298574e+00 -1.306731e+00 -1.322632e+00 -1.321440e+00 -1.327367e+00 -1.316875e+00 -1.312736e+00 -1.293266e+00 -1.279270e+00 -1.251408e+00 -1.228066e+00 -1.192636e+00 -1.160746e+00 -1.118762e+00 -1.079369e+00 -1.031978e+00 -9.863136e-01 -9.347366e-01 -8.841409e-01 -8.296079e-01 -7.754490e-01 -7.191408e-01 -6.627332e-01 -6.057310e-01 -5.482686e-01 -4.915162e-01 -4.340243e-01 -3.783049e-01 -3.216134e-01 -2.675407e-01 -2.122787e-01 -1.603012e-01 -1.069077e-01 -5.732356e-02 -6.070157e-03 4.095134e-02 8.993071e-02 1.343238e-01 1.810012e-01 2.227777e-01 2.672000e-01 3.064242e-01 3.486849e-01 3.854513e-01 4.256657e-01 4.600795e-01 4.983641e-01 5.305250e-01 
5.794122e-01 6.094731e-01 6.443410e-01 6.723372e-01 7.055587e-01 7.315191e-01 7.630925e-01 7.869983e-01 8.168635e-01 8.386451e-01 8.666818e-01 8.862185e-01 9.122467e-01 9.293688e-01 9.531526e-01 9.676460e-01 9.889008e-01 1.000514e+00 1.018917e+00 1.027373e+00 1.042573e+00 1.047580e+00 1.059216e+00 1.060482e+00 1.068197e+00 1.065442e+00 1.068897e+00 1.061873e+00 1.060761e+00 1.049260e+00 1.043320e+00 1.027186e+00 1.016208e+00 9.953462e-01 9.791793e-01 9.535578e-01 9.321098e-01 9.017614e-01 8.749991e-01 8.400181e-01 8.079650e-01 7.685014e-01 7.312350e-01 6.874894e-01 6.451397e-01 5.973580e-01 5.501079e-01 4.985794e-01 4.466676e-01 3.917268e-01 3.354543e-01 2.774858e-01 2.172247e-01 1.566728e-01 9.287620e-02 3.025639e-02 -3.652960e-02 -1.006184e-01 -1.697448e-01 -2.346093e-01 -3.053163e-01 -3.701614e-01 -4.415747e-01 -5.055026e-01 -5.766353e-01 -6.386517e-01 -7.084143e-01 -7.674440e-01 -8.346612e-01 -8.895734e-01 -9.530103e-01 -1.002653e+00 -1.061049e+00 -1.104291e+00 -1.156400e+00 -1.192182e+00 -1.236821e+00 -1.264207e+00 -1.300305e+00 -1.318536e+00 -1.345189e+00 -1.353737e+00 -1.370258e+00 -1.368866e+00 -1.374834e+00 -1.363546e+00 -1.358846e+00 -1.338016e+00 -1.322865e+00 -1.293144e+00 -1.268095e+00 -1.230402e+00 -1.196331e+00 -1.151792e+00 -1.109853e+00 -1.059742e+00 -1.011297e+00 -9.569579e-01 -9.034904e-01 -8.462690e-01 -7.892847e-01 -7.304589e-01 -6.713931e-01 -6.121193e-01 -5.522593e-01 -4.935312e-01 -4.339637e-01 -3.765888e-01 -3.181725e-01 -2.627662e-01 -2.061301e-01 -1.531234e-01 -9.868338e-02 -4.834286e-02 3.668641e-03 5.121428e-02 1.007123e-01 1.454426e-01 1.924523e-01 2.344252e-01 2.790464e-01 3.183707e-01 3.607467e-01 3.975576e-01 4.378488e-01 4.722875e-01 5.106494e-01 5.428462e-01 
5.916719e-01 6.217237e-01 6.566040e-01 6.846519e-01 7.179688e-01 7.440585e-01 7.758260e-01 7.999494e-01 8.301162e-01 8.522077e-01 8.806552e-01 9.005918e-01 9.271346e-01 9.447380e-01 9.691284e-01 9.841699e-01 1.006106e+00 1.018315e+00 1.037450e+00 1.046524e+00 1.062483e+00 1.068103e+00 1.080496e+00 1.082341e+00 1.090783e+00 1.088546e+00 1.092673e+00 1.086076e+00 1.085558e+00 1.074370e+00 1.068926e+00 1.052972e+00 1.042378e+00 1.021549e+00 1.005639e+00 9.798946e-01 9.585697e-01 9.279380e-01 9.011569e-01 8.657316e-01 8.335108e-01 7.934430e-01 7.558520e-01 7.113430e-01 6.685016e-01 6.197967e-01 5.718749e-01 5.192605e-01 4.664819e-01 4.102864e-01 3.529351e-01 2.935359e-01 2.319665e-01 1.698005e-01 1.044507e-01 4.002821e-02 -2.856720e-02 -9.464712e-02 -1.658435e-01 -2.328792e-01 -3.059111e-01 -3.730883e-01 -4.470630e-01 -5.134516e-01 -5.873490e-01 -6.519084e-01 -7.245890e-01 -7.861838e-01 -8.564059e-01 -9.138328e-01 -9.802792e-01 -1.032303e+00 -1.093618e+00 -1.139020e+00 -1.193851e+00 -1.231482e+00 -1.278536e+00 -1.307374e+00 -1.345471e+00 -1.364683e+00 -1.392819e+00 -1.401816e+00 -1.419219e+00 -1.417707e+00 -1.423896e+00 -1.411910e+00 -1.406741e+00 -1.384655e+00 -1.368350e+00 -1.336868e+00 -1.310029e+00 -1.270147e+00 -1.233737e+00 -1.186684e+00 -1.141982e+00 -1.089144e+00 -1.037664e+00 -9.805091e-01 -9.238951e-01 -8.638879e-01 -8.038045e-01 -7.423316e-01 -6.803527e-01 -6.186601e-01 -5.561815e-01 -4.953283e-01 -4.335081e-01 -3.743405e-01 -3.140719e-01 -2.572176e-01 -1.991310e-01 -1.450107e-01 -8.949688e-02 -3.834852e-02 1.440363e-02 6.249230e-02 1.124526e-01 1.575092e-01 2.047625e-01 2.468957e-01 2.916015e-01 3.309698e-01 3.733277e-01 4.101128e-01 4.503340e-01 4.847187e-01 5.230031e-01 5.551535e-01 
6.059680e-01 6.360544e-01 6.710778e-01 6.992384e-01 7.328060e-01 7.591022e-01 7.912432e-01 8.156754e-01 8.463452e-01 8.688496e-01 8.979281e-01 9.183765e-01 9.456690e-01 9.638707e-01 9.891119e-01 1.004819e+00 1.027682e+00 1.040600e+00 1.060707e+00 1.070504e+00 1.087444e+00 1.093768e+00 1.107113e+00 1.109609e+00 1.118935e+00 1.117263e+00 1.122170e+00 1.116023e+00 1.116150e+00 1.105270e+00 1.100311e+00 1.084504e+00 1.074214e+00 1.053359e+00 1.037563e+00 1.011614e+00 9.902052e-01 9.591911e-01 9.321268e-01 8.961459e-01 8.634426e-01 8.226521e-01 7.843792e-01 7.389850e-01 6.952602e-01 6.455081e-01 5.964962e-01 5.426674e-01 4.885830e-01 4.309952e-01 3.721109e-01 3.111253e-01 2.477833e-01 1.838187e-01 1.164459e-01 4.999540e-02 -2.087978e-02 -8.922869e-02 -1.629602e-01 -2.325072e-01 -3.083174e-01 -3.782350e-01 -4.552054e-01 -5.245322e-01 -6.016017e-01 -6.692453e-01 -7.452174e-01 -8.099693e-01 -8.835294e-01 -9.440929e-01 -1.013837e+00 -1.068867e+00 -1.133338e+00 -1.181494e+00 -1.239234e+00 -1.279236e+00 -1.328839e+00 -1.359541e+00 -1.399715e+00 -1.420171e+00 -1.449807e+00 -1.459339e+00 -1.477575e+00 -1.475835e+00 -1.482121e+00 -1.469135e+00 -1.463288e+00 -1.439469e+00 -1.421716e+00 -1.387855e+00 -1.358846e+00 -1.316067e+00 -1.276865e+00 -1.226550e+00 -1.178580e+00 -1.122286e+00 -1.067241e+00 -1.006599e+00 -9.463207e-01 -8.829479e-01 -8.192887e-01 -7.546976e-01 -6.893943e-01 -6.249253e-01 -5.594947e-01 -4.962660e-01 -4.319403e-01 -3.708230e-01 -3.085235e-01 -2.501393e-01 -1.904852e-01 -1.352246e-01 -7.856629e-02 -2.662002e-02 2.691329e-02 7.551487e-02 1.259624e-01 1.713082e-01 2.188267e-01 2.610860e-01 3.059043e-01 3.452925e-01 3.876737e-01 4.244234e-01 4.646347e-01 4.989728e-01 5.372617e-01 5.693913e-01 
6.201011e-01 6.501210e-01 6.851083e-01 7.132886e-01 7.469343e-01 7.733563e-01 8.057078e-01 8.303841e-01 8.614064e-01 8.842779e-01 9.138521e-01 9.347871e-01 9.627110e-01 9.815078e-01 1.007501e+00 1.023893e+00 1.047604e+00 1.061271e+00 1.082294e+00 1.092873e+00 1.110761e+00 1.117866e+00 1.132156e+00 1.135393e+00 1.145626e+00 1.144617e+00 1.150360e+00 1.144764e+00 1.145626e+00 1.135155e+00 1.130806e+00 1.115242e+00 1.105422e+00 1.084626e+00 1.069147e+00 1.043066e+00 1.021811e+00 9.904710e-01 9.633939e-01 9.268953e-01 8.940068e-01 8.525116e-01 8.138738e-01 7.675919e-01 7.233120e-01 6.724901e-01 6.227178e-01 5.676333e-01 5.125641e-01 4.535259e-01 3.934095e-01 3.307666e-01 2.659209e-01 2.000779e-01 1.309063e-01 6.234438e-02 -1.064402e-02 -8.134349e-02 -1.575139e-01 -2.296465e-01 -3.082204e-01 -3.809405e-01 -4.609826e-01 -5.332932e-01 -6.137065e-01 -6.844603e-01 -7.639906e-01 -8.319055e-01 -9.091582e-01 -9.728463e-01 -1.046315e+00 -1.104327e+00 -1.172436e+00 -1.223315e+00 -1.284472e+00 -1.326823e+00 -1.379479e+00 -1.412042e+00 -1.454762e+00 -1.476489e+00 -1.508031e+00 -1.518162e+00 -1.537548e+00 -1.535683e+00 -1.542277e+00 -1.528424e+00 -1.521998e+00 -1.496595e+00 -1.477375e+00 -1.441281e+00 -1.409976e+00 -1.364416e+00 -1.322205e+00 -1.268695e+00 -1.217169e+00 -1.157418e+00 -1.098474e+00 -1.034277e+00 -9.699793e-01 -9.031100e-01 -8.355275e-01 -7.676425e-01 -6.986968e-01 -6.312530e-01 -5.626006e-01 -4.967985e-01 -4.297572e-01 -3.665122e-01 -3.020368e-01 -2.419790e-01 -1.806774e-01 -1.241750e-01 -6.635266e-02 -1.355150e-02 4.072915e-02 8.985809e-02 1.407143e-01 1.863263e-01 2.339956e-01 2.763274e-01 3.211167e-01 3.604478e-01 4.026913e-01 4.393128e-01 4.793406e-01 5.135303e-01 5.516436e-01 5.836480e-01 
6.361217e-01 6.661165e-01 7.011976e-01 7.294611e-01 7.633459e-01 7.899776e-01 8.227305e-01 8.477530e-01 8.793473e-01 9.027030e-01 9.330180e-01 9.545688e-01 9.833906e-01 1.002919e+00 1.029945e+00 1.047163e+00 1.072011e+00 1.086564e+00 1.108787e+00 1.120277e+00 1.139384e+00 1.147380e+00 1.162858e+00 1.166924e+00 1.178264e+00 1.177980e+00 1.184701e+00 1.179687e+00 1.181361e+00 1.171296e+00 1.167561e+00 1.152203e+00 1.142776e+00 1.121973e+00 1.106656e+00 1.080349e+00 1.059022e+00 1.027243e+00 9.998605e-01 9.627215e-01 9.292987e-01 8.869740e-01 8.475771e-01 8.002867e-01 7.550223e-01 7.030166e-01 6.520283e-01 5.955793e-01 5.390501e-01 4.784513e-01 4.166133e-01 3.521897e-01 2.853404e-01 2.174674e-01 1.459906e-01 7.511959e-02 -4.904889e-04 -7.380173e-02 -1.529159e-01 -2.279743e-01 -3.098061e-01 -3.857588e-01 -4.693476e-01 -5.451664e-01 -6.293700e-01 -7.038492e-01 -7.873468e-01 -8.591170e-01 -9.404263e-01 -1.007985e+00 -1.085493e+00 -1.147252e+00 -1.219260e+00 -1.273604e+00 -1.338384e+00 -1.383752e+00 -1.439611e+00 -1.474575e+00 -1.519937e+00 -1.543292e+00 -1.576774e+00 -1.587637e+00 -1.608138e+00 -1.606026e+00 -1.612811e+00 -1.597713e+00 -1.590491e+00 -1.562894e+00 -1.541882e+00 -1.502762e+00 -1.468723e+00 -1.419478e+00 -1.373717e+00 -1.316073e+00 -1.260374e+00 -1.196265e+00 -1.132776e+00 -1.064216e+00 -9.952723e-01 -9.242336e-01 -8.521630e-01 -7.804641e-01 -7.074067e-01 -6.366218e-01 -5.643892e-01 -4.957869e-01 -4.257823e-01 -3.602990e-01 -2.934977e-01 -2.317438e-01 -1.687219e-01 -1.110154e-01 -5.201002e-02 1.573336e-03 5.658877e-02 1.061581e-01 1.573980e-01 2.031907e-01 2.509887e-01 2.933197e-01 3.380715e-01 3.772914e-01 4.194103e-01 4.558722e-01 4.957558e-01 5.297904e-01 5.677963e-01 5.996933e-01 