# vtk DataFile Version 2.0
Comment goes here
ASCII

DATASET STRUCTURED_POINTS
FIELD FieldData 1
TIME 1 1 double
0.23500000
DIMENSIONS    128   128   1

ORIGIN    0.000   0.000   0.000
SPACING   0.039062 0.039062   1.000

POINT_DATA   16384
SCALARS uX double
LOOKUP_TABLE default

-7.532724e-02 -6.461931e-02 -5.363810e-02 -4.245948e-02 -3.101317e-02 -1.954153e-02 -7.816095e-03 3.758120e-03 1.556706e-02 2.704485e-02 3.873660e-02 4.991541e-02 6.128933e-02 7.196874e-02 8.283003e-02 9.281785e-02 1.029837e-01 1.121023e-01 1.214078e-01 1.295007e-01 1.378049e-01 1.447419e-01 1.519328e-01 1.576150e-01 1.636130e-01 1.679764e-01 1.727371e-01 1.757536e-01 1.792682e-01 1.809461e-01 1.832397e-01 1.836214e-01 1.847503e-01 1.839091e-01 1.839558e-01 1.819906e-01 1.810582e-01 1.780877e-01 1.762933e-01 1.724496e-01 1.699176e-01 1.653396e-01 1.621945e-01 1.570220e-01 1.533828e-01 1.477504e-01 1.437254e-01 1.377580e-01 1.334405e-01 1.272497e-01 1.227157e-01 1.163971e-01 1.117034e-01 1.053351e-01 1.005195e-01 9.416167e-02 8.924403e-02 8.293951e-02 7.792370e-02 7.169927e-02 6.657604e-02 6.044437e-02 5.519474e-02 4.915687e-02 4.375575e-02 3.780381e-02 3.222373e-02 2.634378e-02 2.055842e-02 1.473329e-02 8.720688e-03 2.932662e-03 -3.322046e-03 -9.088846e-03 -1.559123e-02 -2.134870e-02 -2.809339e-02 -3.384769e-02 -4.081733e-02 -4.656734e-02 -5.373193e-02 -5.946811e-02 -6.678480e-02 -7.248817e-02 -7.990137e-02 -8.554274e-02 -9.298447e-02 -9.852387e-02 -1.059143e-01 -1.113007e-01 -1.185492e-01 -1.237202e-01 -1.307262e-01 -1.356089e-01 -1.422638e-01 -1.467755e-01 -1.529641e-01 -1.570138e-01 -1.626176e-01 -1.661084e-01 -1.710078e-01 -1.738397e-01 -1.779179e-01 -1.799911e-01 -1.831375e-01 -1.843562e-01 -1.864703e-01 -1.867466e-01 -1.877415e-01 -1.869993e-01 -1.868051e-01 -1.849836e-01 -1.835500e-01 -1.806068e-01 -1.779056e-01 -1.738190e-01 -1.698455e-01 -1.646168e-01 -1.593906e-01 -1.530449e-01 -1.466106e-01 -1.391975e-01 -1.316241e-01 -1.232177e-01 -1.145982e-01 -1.052966e-01 -9.574669e-02 -8.567080e-02 
-7.532788e-02 -6.459553e-02 -5.357396e-02 -4.236922e-02 -3.088095e-02 -1.938201e-02 -7.613606e-03 3.988421e-03 1.584070e-02 2.734606e-02 3.908071e-02 5.028602e-02 6.170152e-02 7.240544e-02 8.330604e-02 9.331547e-02 1.035173e-01 1.126538e-01 1.219910e-01 1.300971e-01 1.384279e-01 1.453729e-01 1.525843e-01 1.582688e-01 1.642809e-01 1.686404e-01 1.734084e-01 1.764152e-01 1.799300e-01 1.815924e-01 1.838794e-01 1.842406e-01 1.853564e-01 1.844902e-01 1.845179e-01 1.825240e-01 1.815676e-01 1.785658e-01 1.767431e-01 1.728664e-01 1.703028e-01 1.656911e-01 1.625121e-01 1.573060e-01 1.536316e-01 1.479666e-01 1.439058e-01 1.379076e-01 1.335547e-01 1.273354e-01 1.227668e-01 1.164225e-01 1.116958e-01 1.053049e-01 1.004581e-01 9.408115e-02 8.913447e-02 8.281427e-02 7.777167e-02 7.153506e-02 6.638728e-02 6.024688e-02 5.497481e-02 4.893151e-02 4.350985e-02 3.755558e-02 3.195662e-02 2.607719e-02 2.027430e-02 1.445226e-02 8.423215e-03 2.640496e-03 -3.629808e-03 -9.389429e-03 -1.590676e-02 -2.165557e-02 -2.841471e-02 -3.415925e-02 -4.114289e-02 -4.688251e-02 -5.406066e-02 -5.978624e-02 -6.711602e-02 -7.280904e-02 -8.023475e-02 -8.586647e-02 -9.332002e-02 -9.885086e-02 -1.062523e-01 -1.116316e-01 -1.188901e-01 -1.240557e-01 -1.310706e-01 -1.359498e-01 -1.426121e-01 -1.471222e-01 -1.533168e-01 -1.573666e-01 -1.629745e-01 -1.664669e-01 -1.713685e-01 -1.742029e-01 -1.782810e-01 -1.803572e-01 -1.835011e-01 -1.847227e-01 -1.868316e-01 -1.871101e-01 -1.880969e-01 -1.873556e-01 -1.871503e-01 -1.853279e-01 -1.838800e-01 -1.809337e-01 -1.782149e-01 -1.741228e-01 -1.701283e-01 -1.648913e-01 -1.596410e-01 -1.532840e-01 -1.468224e-01 -1.393951e-01 -1.317914e-01 -1.233679e-01 -1.147152e-01 -1.053938e-01 -9.580793e-02 -8.570977e-02 
-7.596276e-02 -6.517413e-02 -5.410662e-02 -4.283916e-02 -3.129983e-02 -1.973295e-02 -7.909699e-03 3.764025e-03 1.567334e-02 2.725241e-02 3.904448e-02 5.032352e-02 6.179484e-02 7.257034e-02 8.352309e-02 9.359968e-02 1.038479e-01 1.130449e-01 1.224209e-01 1.305789e-01 1.389391e-01 1.459256e-01 1.531561e-01 1.588705e-01 1.648907e-01 1.692680e-01 1.740333e-01 1.770456e-01 1.805476e-01 1.822042e-01 1.844697e-01 1.848149e-01 1.859025e-01 1.850118e-01 1.850069e-01 1.829823e-01 1.819914e-01 1.789548e-01 1.770983e-01 1.731850e-01 1.705906e-01 1.659428e-01 1.627380e-01 1.574981e-01 1.538047e-01 1.481097e-01 1.440379e-01 1.380146e-01 1.336591e-01 1.274204e-01 1.228578e-01 1.165001e-01 1.117873e-01 1.053888e-01 1.005632e-01 9.418384e-02 8.926418e-02 8.294620e-02 7.793493e-02 7.170409e-02 6.659030e-02 6.045806e-02 5.522092e-02 4.918695e-02 4.379954e-02 3.785453e-02 3.228758e-02 2.641618e-02 2.064177e-02 1.482548e-02 8.820276e-03 3.040155e-03 -3.211802e-03 -8.972683e-03 -1.547778e-02 -2.123221e-02 -2.798563e-02 -3.374051e-02 -4.072518e-02 -4.648000e-02 -5.366604e-02 -5.941173e-02 -6.675624e-02 -7.247422e-02 -7.992142e-02 -8.558278e-02 -9.306439e-02 -9.862932e-02 -1.060651e-01 -1.114825e-01 -1.187813e-01 -1.239887e-01 -1.310491e-01 -1.359731e-01 -1.426853e-01 -1.472424e-01 -1.534903e-01 -1.575885e-01 -1.632519e-01 -1.667927e-01 -1.717504e-01 -1.746321e-01 -1.787655e-01 -1.808865e-01 -1.840830e-01 -1.853456e-01 -1.875031e-01 -1.878174e-01 -1.888472e-01 -1.881353e-01 -1.879661e-01 -1.861658e-01 -1.847462e-01 -1.818137e-01 -1.791147e-01 -1.750275e-01 -1.710440e-01 -1.658027e-01 -1.605542e-01 -1.541837e-01 -1.477148e-01 -1.402646e-01 -1.326447e-01 -1.241892e-01 -1.155119e-01 -1.061498e-01 -9.653137e-02 -8.638433e-02 
-7.660311e-02 -6.570893e-02 -5.451430e-02 -4.313132e-02 -3.145648e-02 -1.976641e-02 -7.801690e-03 4.000108e-03 1.605390e-02 2.776267e-02 3.969885e-02 5.110552e-02 6.271680e-02 7.361384e-02 8.469832e-02 9.488621e-02 1.052538e-01 1.145478e-01 1.240270e-01 1.322639e-01 1.407076e-01 1.477518e-01 1.550433e-01 1.607922e-01 1.668492e-01 1.712366e-01 1.760137e-01 1.790119e-01 1.825014e-01 1.841208e-01 1.863512e-01 1.866385e-01 1.876711e-01 1.867051e-01 1.866289e-01 1.845154e-01 1.834409e-01 1.803059e-01 1.783580e-01 1.743413e-01 1.716518e-01 1.668995e-01 1.636003e-01 1.582586e-01 1.544749e-01 1.486840e-01 1.445288e-01 1.384182e-01 1.339885e-01 1.276730e-01 1.230468e-01 1.166238e-01 1.118586e-01 1.054070e-01 1.005400e-01 9.411985e-02 8.916900e-02 8.282185e-02 7.778835e-02 7.153899e-02 6.641020e-02 6.026879e-02 5.502192e-02 4.898661e-02 4.359263e-02 3.765247e-02 3.208005e-02 2.621802e-02 2.043731e-02 1.463326e-02 8.619270e-03 2.852716e-03 -3.411890e-03 -9.159294e-03 -1.568192e-02 -2.142425e-02 -2.820076e-02 -3.394604e-02 -4.095975e-02 -4.670853e-02 -5.392963e-02 -5.967379e-02 -6.705928e-02 -7.278108e-02 -8.027491e-02 -8.594619e-02 -9.347965e-02 -9.906121e-02 -1.065535e-01 -1.119947e-01 -1.193538e-01 -1.245921e-01 -1.317158e-01 -1.366776e-01 -1.434550e-01 -1.480560e-01 -1.543694e-01 -1.585163e-01 -1.642438e-01 -1.678364e-01 -1.728549e-01 -1.757894e-01 -1.799782e-01 -1.821506e-01 -1.853950e-01 -1.867049e-01 -1.889007e-01 -1.892558e-01 -1.903125e-01 -1.896325e-01 -1.894772e-01 -1.876976e-01 -1.862778e-01 -1.833533e-01 -1.806391e-01 -1.765459e-01 -1.725315e-01 -1.672694e-01 -1.619744e-01 -1.555677e-01 -1.490368e-01 -1.415353e-01 -1.338383e-01 -1.253166e-01 -1.165479e-01 -1.071052e-01 -9.738217e-02 -8.714138e-02 
-7.788715e-02 -6.685502e-02 -5.552703e-02 -4.399127e-02 -3.217100e-02 -2.031627e-02 -8.197302e-03 3.777449e-03 1.599046e-02 2.787620e-02 3.997212e-02 5.155491e-02 6.332151e-02 7.438848e-02 8.561863e-02 9.596468e-02 1.064630e-01 1.158979e-01 1.254879e-01 1.338434e-01 1.423738e-01 1.495102e-01 1.568610e-01 1.626726e-01 1.687597e-01 1.731789e-01 1.779569e-01 1.809559e-01 1.844186e-01 1.860097e-01 1.881885e-01 1.884215e-01 1.893822e-01 1.883403e-01 1.881773e-01 1.859714e-01 1.848013e-01 1.815631e-01 1.795168e-01 1.753918e-01 1.726071e-01 1.677469e-01 1.643608e-01 1.589162e-01 1.550582e-01 1.491735e-01 1.449599e-01 1.387676e-01 1.342974e-01 1.279142e-01 1.232658e-01 1.167903e-01 1.120210e-01 1.055321e-01 1.006775e-01 9.423424e-02 8.930990e-02 8.295249e-02 7.795654e-02 7.170768e-02 6.662403e-02 6.049143e-02 5.529364e-02 4.927278e-02 4.392825e-02 3.800545e-02 3.247949e-02 2.663508e-02 2.089490e-02 1.510632e-02 9.124414e-03 3.369058e-03 -2.873833e-03 -8.616073e-03 -1.512877e-02 -2.087336e-02 -2.765264e-02 -3.340867e-02 -4.043834e-02 -4.620709e-02 -5.345754e-02 -5.923139e-02 -6.665952e-02 -7.242104e-02 -7.997054e-02 -8.569170e-02 -9.329338e-02 -9.893491e-02 -1.065073e-01 -1.120182e-01 -1.194683e-01 -1.247855e-01 -1.320098e-01 -1.370586e-01 -1.439443e-01 -1.486387e-01 -1.550660e-01 -1.593107e-01 -1.651547e-01 -1.688471e-01 -1.739815e-01 -1.770146e-01 -1.813153e-01 -1.835818e-01 -1.869306e-01 -1.883267e-01 -1.906158e-01 -1.910458e-01 -1.921817e-01 -1.915624e-01 -1.914693e-01 -1.897337e-01 -1.883570e-01 -1.854576e-01 -1.827659e-01 -1.786774e-01 -1.746642e-01 -1.693854e-01 -1.640698e-01 -1.576246e-01 -1.510516e-01 -1.434898e-01 -1.357298e-01 -1.271266e-01 -1.182748e-01 -1.087304e-01 -9.890561e-02 -8.854404e-02 
-7.918941e-02 -6.796876e-02 -5.642489e-02 -4.468193e-02 -3.263011e-02 -2.055351e-02 -8.191659e-03 4.014695e-03 1.647673e-02 2.859800e-02 4.094302e-02 5.275859e-02 6.476756e-02 7.605725e-02 8.751571e-02 9.806680e-02 1.087719e-01 1.183866e-01 1.281546e-01 1.366579e-01 1.453312e-01 1.525775e-01 1.600314e-01 1.659109e-01 1.720581e-01 1.765012e-01 1.812951e-01 1.842743e-01 1.877100e-01 1.892398e-01 1.913523e-01 1.914869e-01 1.923472e-01 1.911758e-01 1.908851e-01 1.885257e-01 1.872082e-01 1.838003e-01 1.815952e-01 1.772921e-01 1.743450e-01 1.693057e-01 1.657610e-01 1.601432e-01 1.561368e-01 1.500905e-01 1.457437e-01 1.394057e-01 1.348210e-01 1.283114e-01 1.235697e-01 1.169889e-01 1.121478e-01 1.055754e-01 1.006699e-01 9.416475e-02 8.920839e-02 8.280927e-02 7.779737e-02 7.152493e-02 6.643780e-02 6.029712e-02 5.510437e-02 4.908791e-02 4.375282e-02 3.784373e-02 3.232762e-02 2.650306e-02 2.076947e-02 1.500383e-02 9.022143e-03 3.290023e-03 -2.961555e-03 -8.682745e-03 -1.521488e-02 -2.094277e-02 -2.775344e-02 -3.349899e-02 -4.057263e-02 -4.633875e-02 -5.364589e-02 -5.942639e-02 -6.692371e-02 -7.270246e-02 -8.033313e-02 -8.608318e-02 -9.377730e-02 -9.946025e-02 -1.071354e-01 -1.127007e-01 -1.202626e-01 -1.256473e-01 -1.329906e-01 -1.381192e-01 -1.451292e-01 -1.499143e-01 -1.564682e-01 -1.608120e-01 -1.667819e-01 -1.705786e-01 -1.758345e-01 -1.789732e-01 -1.833869e-01 -1.857556e-01 -1.892048e-01 -1.906951e-01 -1.930680e-01 -1.935797e-01 -1.947791e-01 -1.942245e-01 -1.941718e-01 -1.924802e-01 -1.911182e-01 -1.882391e-01 -1.855349e-01 -1.814408e-01 -1.773869e-01 -1.720752e-01 -1.666905e-01 -1.601845e-01 -1.535142e-01 -1.458636e-01 -1.379791e-01 -1.292597e-01 -1.202575e-01 -1.105707e-01 -1.005712e-01 -9.004300e-02 
-8.115451e-02 -6.971189e-02 -5.794455e-02 -4.595580e-02 -3.366093e-02 -2.131934e-02 -8.699981e-03 3.784851e-03 1.651273e-02 2.891911e-02 4.153112e-02 5.363056e-02 6.589959e-02 7.746315e-02 8.916606e-02 9.997182e-02 1.108969e-01 1.207380e-01 1.306932e-01 1.393860e-01 1.482064e-01 1.555984e-01 1.631536e-01 1.691301e-01 1.753297e-01 1.798184e-01 1.846154e-01 1.875889e-01 1.909807e-01 1.924565e-01 1.944829e-01 1.945205e-01 1.952599e-01 1.939557e-01 1.935182e-01 1.909991e-01 1.895187e-01 1.859336e-01 1.835597e-01 1.790712e-01 1.759592e-01 1.707353e-01 1.670382e-01 1.612446e-01 1.571054e-01 1.508984e-01 1.464439e-01 1.399656e-01 1.353015e-01 1.286751e-01 1.238836e-01 1.172112e-01 1.123494e-01 1.057107e-01 1.008112e-01 9.426374e-02 8.933641e-02 8.291662e-02 7.795191e-02 7.167716e-02 6.664992e-02 6.052136e-02 5.539541e-02 4.940124e-02 4.413414e-02 3.825313e-02 3.280089e-02 2.700596e-02 2.132740e-02 1.558905e-02 9.649636e-03 3.939069e-03 -2.286027e-03 -7.994243e-03 -1.451784e-02 -2.024359e-02 -2.706503e-02 -3.282099e-02 -3.992537e-02 -4.571572e-02 -5.307373e-02 -5.889321e-02 -6.646136e-02 -7.229446e-02 -8.001544e-02 -8.583567e-02 -9.363885e-02 -9.940796e-02 -1.072099e-01 -1.128772e-01 -1.205822e-01 -1.260839e-01 -1.335847e-01 -1.388438e-01 -1.460229e-01 -1.509499e-01 -1.576809e-01 -1.621748e-01 -1.683255e-01 -1.722761e-01 -1.777114e-01 -1.810030e-01 -1.855890e-01 -1.881044e-01 -1.917132e-01 -1.933382e-01 -1.958524e-01 -1.964813e-01 -1.977986e-01 -1.973387e-01 -1.973763e-01 -1.957526e-01 -1.944500e-01 -1.916087e-01 -1.889307e-01 -1.848419e-01 -1.807798e-01 -1.754392e-01 -1.700114e-01 -1.634419e-01 -1.566942e-01 -1.489455e-01 -1.409500e-01 -1.320987e-01 -1.229536e-01 -1.131026e-01 -1.029305e-01 -9.220783e-02 
-8.315973e-02 -7.144241e-02 -5.936689e-02 -4.707523e-02 -3.444845e-02 -2.178141e-02 -8.812534e-03 4.013261e-03 1.710078e-02 2.985517e-02 4.282811e-02 5.527277e-02 6.789394e-02 7.978904e-02 9.182430e-02 1.029364e-01 1.141627e-01 1.242734e-01 1.344878e-01 1.434029e-01 1.524308e-01 1.599889e-01 1.676923e-01 1.737723e-01 1.800561e-01 1.845825e-01 1.893981e-01 1.923438e-01 1.956907e-01 1.970768e-01 1.990004e-01 1.988930e-01 1.994798e-01 1.979849e-01 1.973554e-01 1.946106e-01 1.929109e-01 1.890769e-01 1.864687e-01 1.817200e-01 1.783708e-01 1.728866e-01 1.689605e-01 1.629164e-01 1.585657e-01 1.521267e-01 1.474855e-01 1.407998e-01 1.359792e-01 1.291747e-01 1.242595e-01 1.174409e-01 1.124888e-01 1.057366e-01 1.007785e-01 9.414938e-02 8.919205e-02 8.272008e-02 7.774922e-02 7.144844e-02 6.643322e-02 6.030063e-02 5.519861e-02 4.921772e-02 4.398007e-02 3.812478e-02 3.270135e-02 2.693976e-02 2.128383e-02 1.558189e-02 9.654197e-03 3.979007e-03 -2.248974e-03 -7.926417e-03 -1.447016e-02 -2.017278e-02 -2.703327e-02 -3.277626e-02 -3.993939e-02 -4.572911e-02 -5.316564e-02 -5.899871e-02 -6.666473e-02 -7.252736e-02 -8.036479e-02 -8.623201e-02 -9.416920e-02 -1.000040e-01 -1.079562e-01 -1.137087e-01 -1.215784e-01 -1.271848e-01 -1.348625e-01 -1.402451e-01 -1.476101e-01 -1.526769e-01 -1.595991e-01 -1.642457e-01 -1.705878e-01 -1.746992e-01 -1.803206e-01 -1.837750e-01 -1.885356e-01 -1.912089e-01 -1.949744e-01 -1.967454e-01 -1.993923e-01 -2.001480e-01 -2.015686e-01 -2.012101e-01 -2.013167e-01 -1.997633e-01 -1.984920e-01 -1.956855e-01 -1.929986e-01 -1.889060e-01 -1.847935e-01 -1.794087e-01 -1.738888e-01 -1.672337e-01 -1.603526e-01 -1.524769e-01 -1.443083e-01 -1.352897e-01 -1.259333e-01 -1.158764e-01 -1.054573e-01 -9.449258e-02 
-8.585706e-02 -7.383011e-02 -6.143682e-02 -4.880172e-02 -3.582916e-02 -2.279108e-02 -9.455280e-03 3.761367e-03 1.722853e-02 3.038410e-02 4.373936e-02 5.658438e-02 6.957904e-02 8.186115e-02 9.424851e-02 1.057209e-01 1.172650e-01 1.276958e-01 1.381810e-01 1.473636e-01 1.566044e-01 1.643669e-01 1.722170e-01 1.784307e-01 1.847898e-01 1.893753e-01 1.941940e-01 1.971245e-01 2.004055e-01 2.017065e-01 2.035023e-01 2.032479e-01 2.036558e-01 2.019627e-01 2.011164e-01 1.981351e-01 1.961951e-01 1.921003e-01 1.892432e-01 1.842231e-01 1.806305e-01 1.748774e-01 1.707260e-01 1.644266e-01 1.598792e-01 1.532078e-01 1.484062e-01 1.415182e-01 1.365781e-01 1.296059e-01 1.246140e-01 1.176645e-01 1.126773e-01 1.058311e-01 1.008764e-01 9.418805e-02 8.926704e-02 8.276725e-02 7.785869e-02 7.155668e-02 6.662184e-02 6.050894e-02 5.549712e-02 4.955071e-02 4.440492e-02 3.859264e-02 3.325517e-02 2.753908e-02 2.195658e-02 1.629715e-02 1.042493e-02 4.784468e-03 -1.410126e-03 -7.064543e-03 -1.359981e-02 -1.929417e-02 -2.617275e-02 -3.192456e-02 -3.913304e-02 -4.495034e-02 -5.245950e-02 -5.834016e-02 -6.610566e-02 -7.203687e-02 -7.999994e-02 -8.595747e-02 -9.404556e-02 -9.999290e-02 -1.081200e-01 -1.140073e-01 -1.220744e-01 -1.278373e-01 -1.357321e-01 -1.412911e-01 -1.488895e-01 -1.541499e-01 -1.613169e-01 -1.661697e-01 -1.727620e-01 -1.770865e-01 -1.829561e-01 -1.866234e-01 -1.916224e-01 -1.945006e-01 -1.984864e-01 -2.004460e-01 -2.032871e-01 -2.042073e-01 -2.057888e-01 -2.055632e-01 -2.057914e-01 -2.043334e-01 -2.031399e-01 -2.003865e-01 -1.977307e-01 -1.936454e-01 -1.895156e-01 -1.840906e-01 -1.785047e-01 -1.717609e-01 -1.647658e-01 -1.567535e-01 -1.484243e-01 -1.392220e-01 -1.296609e-01 -1.193752e-01 -1.087099e-01 -9.747413e-02 
-8.862652e-02 -7.623423e-02 -6.343553e-02 -5.039613e-02 -3.698516e-02 -2.351099e-02 -9.711573e-03 3.963871e-03 1.791014e-02 3.153603e-02 4.537413e-02 5.868775e-02 7.215530e-02 8.488929e-02 9.772438e-02 1.096158e-01 1.215666e-01 1.323674e-01 1.432027e-01 1.526910e-01 1.622115e-01 1.702026e-01 1.782508e-01 1.846067e-01 1.910756e-01 1.957124e-01 2.005504e-01 2.034414e-01 2.066543e-01 2.078303e-01 2.094784e-01 2.090234e-01 2.092159e-01 2.072598e-01 2.061456e-01 2.028544e-01 2.006109e-01 1.961760e-01 1.929972e-01 1.876236e-01 1.837080e-01 1.776032e-01 1.731429e-01 1.665075e-01 1.616781e-01 1.546976e-01 1.496508e-01 1.424893e-01 1.373475e-01 1.301431e-01 1.249964e-01 1.178592e-01 1.127646e-01 1.057756e-01 1.007580e-01 9.397039e-02 8.902605e-02 8.246693e-02 7.756769e-02 7.124135e-02 6.634024e-02 6.023201e-02 5.526936e-02 4.934998e-02 4.425974e-02 3.849000e-02 3.320584e-02 2.754111e-02 2.200194e-02 1.639647e-02 1.055117e-02 4.961774e-03 -1.227271e-03 -6.838185e-03 -1.339268e-02 -1.905493e-02 -2.597949e-02 -3.171369e-02 -3.899563e-02 -4.481239e-02 -5.242233e-02 -5.832181e-02 -6.621463e-02 -7.218614e-02 -8.030198e-02 -8.632333e-02 -9.458832e-02 -1.006248e-01 -1.089514e-01 -1.149546e-01 -1.232416e-01 -1.291475e-01 -1.372801e-01 -1.430082e-01 -1.508583e-01 -1.563112e-01 -1.637385e-01 -1.688026e-01 -1.756574e-01 -1.802051e-01 -1.863316e-01 -1.902257e-01 -1.954673e-01 -1.985662e-01 -2.027713e-01 -2.049355e-01 -2.079639e-01 -2.090626e-01 -2.107915e-01 -2.107094e-01 -2.110389e-01 -2.096818e-01 -2.085385e-01 -2.058375e-01 -2.031777e-01 -1.990924e-01 -1.949030e-01 -1.894230e-01 -1.837216e-01 -1.768671e-01 -1.697015e-01 -1.615230e-01 -1.529701e-01 -1.435476e-01 -1.337119e-01 -1.231541e-01 -1.121665e-01 -1.006099e-01 
-9.212820e-02 -7.933375e-02 -6.611747e-02 -5.263077e-02 -3.876438e-02 -2.480533e-02 -1.052112e-02 3.667048e-03 1.811682e-02 3.227110e-02 4.661837e-02 6.046138e-02 7.442842e-02 8.767597e-02 1.009838e-01 1.133546e-01 1.257332e-01 1.369606e-01 1.481613e-01 1.580057e-01 1.678134e-01 1.760751e-01 1.843202e-01 1.908505e-01 1.974185e-01 2.021277e-01 2.069655e-01 2.098276e-01 2.129452e-01 2.139970e-01 2.154651e-01 2.148020e-01 2.147446e-01 2.125119e-01 2.110962e-01 2.074782e-01 2.049019e-01 2.001090e-01 1.965868e-01 1.908429e-01 1.865929e-01 1.801232e-01 1.753545e-01 1.683750e-01 1.632773e-01 1.559858e-01 1.507209e-01 1.432906e-01 1.379873e-01 1.305620e-01 1.253125e-01 1.180051e-01 1.128646e-01 1.057556e-01 1.007442e-01 9.388402e-02 8.899019e-02 8.240084e-02 7.758685e-02 7.126596e-02 6.647399e-02 6.039911e-02 5.555819e-02 4.969169e-02 4.472472e-02 3.901889e-02 3.384938e-02 2.825150e-02 2.280958e-02 1.726656e-02 1.149403e-02 5.956434e-03 -1.895174e-04 -5.764306e-03 -1.230875e-02 -1.795435e-02 -2.490362e-02 -3.064338e-02 -3.798527e-02 -4.383172e-02 -5.153646e-02 -5.749120e-02 -6.551284e-02 -7.156637e-02 -7.984410e-02 -8.597539e-02 -9.443431e-02 -1.006097e-01 -1.091611e-01 -1.153326e-01 -1.238735e-01 -1.299770e-01 -1.383899e-01 -1.443433e-01 -1.524959e-01 -1.581983e-01 -1.659442e-01 -1.712766e-01 -1.784580e-01 -1.832850e-01 -1.897366e-01 -1.939114e-01 -1.994657e-01 -2.028359e-01 -2.073300e-01 -2.097446e-01 -2.130274e-01 -2.143448e-01 -2.162837e-01 -2.163788e-01 -2.168659e-01 -2.156362e-01 -2.145922e-01 -2.119627e-01 -2.093404e-01 -2.052665e-01 -2.010509e-01 -1.955200e-01 -1.897288e-01 -1.827604e-01 -1.754427e-01 -1.670878e-01 -1.583226e-01 -1.486627e-01 -1.385574e-01 -1.277036e-01 -1.163925e-01 -1.044847e-01 
-9.574549e-02 -8.248949e-02 -6.876442e-02 -5.476483e-02 -4.034575e-02 -2.583086e-02 -1.095920e-02 3.816790e-03 1.887692e-02 3.363708e-02 4.860280e-02 6.305279e-02 7.762866e-02 9.146455e-02 1.053514e-01 1.182703e-01 1.311766e-01 1.428895e-01 1.545452e-01 1.647915e-01 1.749619e-01 1.835240e-01 1.920241e-01 1.987401e-01 2.054456e-01 2.102193e-01 2.150741e-01 2.178797e-01 2.208980e-01 2.217800e-01 2.230435e-01 2.221108e-01 2.217602e-01 2.191767e-01 2.174001e-01 2.133714e-01 2.103898e-01 2.051491e-01 2.012009e-01 1.949944e-01 1.903204e-01 1.833940e-01 1.782236e-01 1.708112e-01 1.653509e-01 1.576648e-01 1.520894e-01 1.443135e-01 1.387600e-01 1.310452e-01 1.256097e-01 1.180722e-01 1.128096e-01 1.055303e-01 1.004566e-01 9.348301e-02 8.857941e-02 8.192848e-02 7.714747e-02 7.080991e-02 6.608227e-02 6.002736e-02 5.526987e-02 4.945096e-02 4.457423e-02 3.893442e-02 3.385037e-02 2.832804e-02 2.295657e-02 1.749053e-02 1.176504e-02 6.298827e-03 1.702436e-04 -5.344516e-03 -1.190534e-02 -1.750677e-02 -2.450822e-02 -3.022315e-02 -3.765340e-02 -4.349715e-02 -5.132569e-02 -5.730234e-02 -6.548187e-02 -7.158444e-02 -8.005255e-02 -8.626266e-02 -9.494292e-02 -1.012296e-01 -1.100317e-01 -1.163492e-01 -1.251682e-01 -1.314538e-01 -1.401691e-01 -1.463401e-01 -1.548151e-01 -1.607675e-01 -1.688496e-01 -1.744583e-01 -1.819812e-01 -1.871023e-01 -1.938901e-01 -1.983654e-01 -2.042392e-01 -2.079030e-01 -2.126875e-01 -2.153753e-01 -2.189076e-01 -2.204642e-01 -2.226012e-01 -2.228895e-01 -2.235148e-01 -2.224224e-01 -2.214506e-01 -2.188952e-01 -2.162752e-01 -2.122074e-01 -2.079228e-01 -2.023273e-01 -1.963961e-01 -1.892917e-01 -1.817645e-01 -1.732029e-01 -1.641610e-01 -1.542257e-01 -1.437794e-01 -1.325842e-01 -1.208716e-01 -1.085598e-01 
-1.001468e-01 -8.639035e-02 -7.214121e-02 -5.758289e-02 -4.259026e-02 -2.746689e-02 -1.198190e-02 3.440898e-03 1.914144e-02 3.457190e-02 5.018897e-02 6.531425e-02 8.053276e-02 9.502707e-02 1.095253e-01 1.230613e-01 1.365234e-01 1.487868e-01 1.609183e-01 1.716241e-01 1.821684e-01 1.910780e-01 1.998327e-01 2.067691e-01 2.135991e-01 2.184584e-01 2.233051e-01 2.260618e-01 2.289454e-01 2.296528e-01 2.306689e-01 2.294518e-01 2.287618e-01 2.258053e-01 2.236224e-01 2.191570e-01 2.157297e-01 2.100146e-01 2.056091e-01 1.989159e-01 1.937991e-01 1.863967e-01 1.808207e-01 1.729629e-01 1.671525e-01 1.590673e-01 1.532103e-01 1.450930e-01 1.393339e-01 1.313425e-01 1.257796e-01 1.180328e-01 1.127184e-01 1.052961e-01 1.002389e-01 9.318427e-02 8.835494e-02 8.167797e-02 7.701594e-02 7.069825e-02 6.611974e-02 6.012019e-02 5.552692e-02 4.978773e-02 4.507578e-02 3.952886e-02 3.459687e-02 2.917002e-02 2.392663e-02 1.854920e-02 1.291893e-02 7.526582e-03 1.454121e-03 -4.007650e-03 -1.055513e-02 -1.612883e-02 -2.316117e-02 -2.887651e-02 -3.638170e-02 -4.225584e-02 -5.020217e-02 -5.624053e-02 -6.457918e-02 -7.077609e-02 -7.944333e-02 -8.578199e-02 -9.470039e-02 -1.011516e-01 -1.102300e-01 -1.167496e-01 -1.258818e-01 -1.324078e-01 -1.414708e-01 -1.479193e-01 -1.567719e-01 -1.630354e-01 -1.715177e-01 -1.774644e-01 -1.854001e-01 -1.908761e-01 -1.980769e-01 -2.029113e-01 -2.091834e-01 -2.131961e-01 -2.183492e-01 -2.213603e-01 -2.252167e-01 -2.270563e-01 -2.294602e-01 -2.299781e-01 -2.308026e-01 -2.298759e-01 -2.290285e-01 -2.265672e-01 -2.239926e-01 -2.199424e-01 -2.156229e-01 -2.099663e-01 -2.039205e-01 -1.966760e-01 -1.889565e-01 -1.801771e-01 -1.708683e-01 -1.606394e-01 -1.498553e-01 -1.382936e-01 -1.261760e-01 -1.134284e-01 
-1.047204e-01 -9.039985e-02 -7.553153e-02 -6.034331e-02 -4.467449e-02 -2.886455e-02 -1.265642e-02 3.497150e-03 1.995412e-02 3.614301e-02 5.253191e-02 6.842227e-02 8.440573e-02 9.964652e-02 1.148766e-01 1.291120e-01 1.432442e-01 1.561299e-01 1.688405e-01 1.800625e-01 1.910681e-01 2.003629e-01 2.094393e-01 2.166116e-01 2.236099e-01 2.285463e-01 2.334035e-01 2.360794e-01 2.388216e-01 2.393005e-01 2.400385e-01 2.384644e-01 2.373825e-01 2.339659e-01 2.313058e-01 2.263062e-01 2.223479e-01 2.160549e-01 2.110963e-01 2.038110e-01 1.981487e-01 1.901668e-01 1.840793e-01 1.756772e-01 1.694109e-01 1.608347e-01 1.545933e-01 1.460512e-01 1.399894e-01 1.316476e-01 1.258678e-01 1.178485e-01 1.124014e-01 1.047837e-01 9.967204e-02 9.249486e-02 8.767897e-02 8.094505e-02 7.635100e-02 7.003247e-02 6.556109e-02 5.960573e-02 5.514240e-02 4.948050e-02 4.490500e-02 3.945638e-02 3.465221e-02 2.933315e-02 2.419567e-02 1.892518e-02 1.336830e-02 8.073339e-03 2.034093e-03 -3.346657e-03 -9.905649e-03 -1.541968e-02 -2.251003e-02 -2.819057e-02 -3.579979e-02 -4.166659e-02 -4.976114e-02 -5.582200e-02 -6.435065e-02 -7.060266e-02 -7.949944e-02 -8.592921e-02 -9.511498e-02 -1.016973e-01 -1.110796e-01 -1.177743e-01 -1.272454e-01 -1.339931e-01 -1.434276e-01 -1.501451e-01 -1.593972e-01 -1.659739e-01 -1.748766e-01 -1.811737e-01 -1.895400e-01 -1.953922e-01 -2.030203e-01 -2.082419e-01 -2.149225e-01 -2.193156e-01 -2.248420e-01 -2.282081e-01 -2.323868e-01 -2.345381e-01 -2.371993e-01 -2.379699e-01 -2.389757e-01 -2.382300e-01 -2.374804e-01 -2.351196e-01 -2.325553e-01 -2.285196e-01 -2.241216e-01 -2.183914e-01 -2.121794e-01 -2.047730e-01 -1.968023e-01 -1.877740e-01 -1.781324e-01 -1.675702e-01 -1.563751e-01 -1.443989e-01 -1.317963e-01 -1.185569e-01 
-1.101426e-01 -9.521695e-02 -7.971072e-02 -6.384379e-02 -4.747358e-02 -3.092012e-02 -1.395738e-02 2.991949e-03 2.024244e-02 3.726204e-02 5.446413e-02 7.119758e-02 8.798942e-02 1.040579e-01 1.200624e-01 1.350781e-01 1.499183e-01 1.635027e-01 1.768216e-01 1.886275e-01 2.001109e-01 2.098456e-01 2.192448e-01 2.266916e-01 2.338423e-01 2.388768e-01 2.437122e-01 2.463105e-01 2.488645e-01 2.491025e-01 2.495052e-01 2.475489e-01 2.460129e-01 2.421022e-01 2.389034e-01 2.333312e-01 2.287866e-01 2.218773e-01 2.163216e-01 2.084096e-01 2.021736e-01 1.935846e-01 1.869761e-01 1.780115e-01 1.713000e-01 1.622254e-01 1.556310e-01 1.466682e-01 1.403544e-01 1.316773e-01 1.257483e-01 1.174816e-01 1.119837e-01 1.042042e-01 9.912988e-02 9.187018e-02 8.716532e-02 8.041850e-02 7.599164e-02 6.971774e-02 6.545041e-02 5.958348e-02 5.534135e-02 4.979709e-02 4.544105e-02 4.012480e-02 3.552132e-02 3.033574e-02 2.536596e-02 2.021808e-02 1.478504e-02 9.592069e-03 3.625606e-03 -1.680971e-03 -8.221918e-03 -1.369428e-02 -2.082196e-02 -2.649592e-02 -3.419630e-02 -4.009285e-02 -4.832971e-02 -5.445741e-02 -6.317684e-02 -6.953391e-02 -7.866804e-02 -8.524315e-02 -9.471209e-02 -1.014830e-01 -1.111943e-01 -1.181241e-01 -1.279703e-01 -1.350020e-01 -1.448561e-01 -1.519068e-01 -1.616189e-01 -1.685748e-01 -1.779695e-01 -1.846840e-01 -1.935621e-01 -1.998575e-01 -2.080007e-01 -2.136744e-01 -2.208542e-01 -2.256891e-01 -2.316782e-01 -2.354552e-01 -2.400407e-01 -2.425522e-01 -2.455473e-01 -2.466104e-01 -2.478641e-01 -2.473300e-01 -2.467339e-01 -2.444944e-01 -2.419848e-01 -2.379753e-01 -2.335327e-01 -2.277316e-01 -2.213778e-01 -2.138041e-01 -2.055979e-01 -1.963082e-01 -1.863415e-01 -1.754266e-01 -1.638214e-01 -1.514044e-01 -1.383108e-01 -1.245462e-01 
-1.158091e-01 -1.002101e-01 -8.396699e-02 -6.734401e-02 -5.016405e-02 -3.278079e-02 -1.494553e-02 2.894113e-03 2.106503e-02 3.901663e-02 5.716624e-02 7.484814e-02 9.258725e-02 1.095889e-01 1.265069e-01 1.424033e-01 1.580852e-01 1.724576e-01 1.865067e-01 1.989682e-01 2.110332e-01 2.212561e-01 2.310577e-01 2.387998e-01 2.461540e-01 2.512777e-01 2.561114e-01 2.585939e-01 2.609491e-01 2.608811e-01 2.609090e-01 2.584830e-01 2.564279e-01 2.519185e-01 2.480950e-01 2.418347e-01 2.366016e-01 2.289550e-01 2.226890e-01 2.140287e-01 2.070993e-01 1.977851e-01 1.905337e-01 1.808953e-01 1.736186e-01 1.639434e-01 1.568807e-01 1.474059e-01 1.407325e-01 1.316407e-01 1.254649e-01 1.168837e-01 1.112487e-01 1.032531e-01 9.814220e-02 9.075792e-02 8.610295e-02 7.931320e-02 7.500459e-02 6.875666e-02 6.465552e-02 5.886885e-02 5.481931e-02 4.939402e-02 4.523575e-02 4.006152e-02 3.564134e-02 3.060604e-02 2.578819e-02 2.078582e-02 1.546006e-02 1.039723e-02 4.484321e-03 -7.153260e-04 -7.261212e-03 -1.265497e-02 -1.984696e-02 -2.547359e-02 -3.329556e-02 -3.917778e-02 -4.758968e-02 -5.373772e-02 -6.268150e-02 -6.909628e-02 -7.850082e-02 -8.517533e-02 -9.495893e-02 -1.018768e-01 -1.119467e-01 -1.190775e-01 -1.293260e-01 -1.366186e-01 -1.469178e-01 -1.542917e-01 -1.644877e-01 -1.718271e-01 -1.817367e-01 -1.888869e-01 -1.982981e-01 -2.050670e-01 -2.137440e-01 -2.199092e-01 -2.276029e-01 -2.329234e-01 -2.393846e-01 -2.436162e-01 -2.486106e-01 -2.515221e-01 -2.548445e-01 -2.562321e-01 -2.577177e-01 -2.574171e-01 -2.569485e-01 -2.548412e-01 -2.523507e-01 -2.483666e-01 -2.438348e-01 -2.379509e-01 -2.314023e-01 -2.236389e-01 -2.151366e-01 -2.055531e-01 -1.951938e-01 -1.838845e-01 -1.717944e-01 -1.588860e-01 -1.452193e-01 -1.308702e-01 
-1.224026e-01 -1.060877e-01 -8.908549e-02 -7.165493e-02 -5.363544e-02 -3.536100e-02 -1.661547e-02 2.186195e-03 2.132301e-02 4.028834e-02 5.943748e-02 7.815808e-02 9.690057e-02 1.149312e-01 1.328191e-01 1.496933e-01 1.662685e-01 1.815214e-01 1.963420e-01 2.095408e-01 2.222123e-01 2.329887e-01 2.431968e-01 2.512784e-01 2.588170e-01 2.640507e-01 2.688405e-01 2.712046e-01 2.732990e-01 2.729016e-01 2.724783e-01 2.695429e-01 2.668849e-01 2.617265e-01 2.571948e-01 2.501913e-01 2.441942e-01 2.357562e-01 2.287189e-01 2.192624e-01 2.115988e-01 2.015213e-01 1.936102e-01 1.832727e-01 1.754395e-01 1.651529e-01 1.576568e-01 1.476738e-01 1.407000e-01 1.312117e-01 1.248694e-01 1.160050e-01 1.103301e-01 1.021601e-01 9.712171e-02 8.966289e-02 8.517310e-02 7.839556e-02 7.432149e-02 6.815659e-02 6.433400e-02 5.868324e-02 5.493066e-02 4.967534e-02 4.580809e-02 4.081921e-02 3.666248e-02 3.181051e-02 2.721074e-02 2.237460e-02 1.720844e-02 1.228281e-02 6.462941e-03 1.363259e-03 -5.159307e-03 -1.049494e-02 -1.773228e-02 -2.334418e-02 -3.127619e-02 -3.718680e-02 -4.576823e-02 -5.198712e-02 -6.115520e-02 -6.768373e-02 -7.736455e-02 -8.419822e-02 -9.430988e-02 -1.014371e-01 -1.118887e-01 -1.192851e-01 -1.299717e-01 -1.375917e-01 -1.483864e-01 -1.561527e-01 -1.668988e-01 -1.746934e-01 -1.851992e-01 -1.928588e-01 -2.028969e-01 -2.102138e-01 -2.195273e-01 -2.262572e-01 -2.345710e-01 -2.404468e-01 -2.474843e-01 -2.522339e-01 -2.577345e-01 -2.611005e-01 -2.648367e-01 -2.665931e-01 -2.683838e-01 -2.683495e-01 -2.680675e-01 -2.661138e-01 -2.636879e-01 -2.597400e-01 -2.551519e-01 -2.491865e-01 -2.424652e-01 -2.345053e-01 -2.257198e-01 -2.158284e-01 -2.050814e-01 -1.933569e-01 -1.807800e-01 -1.673527e-01 -1.531045e-01 -1.381361e-01 