# vtk DataFile Version 2.0
Comment goes here
ASCII

DATASET STRUCTURED_POINTS
FIELD FieldData 1
TIME 1 1 double
0.15000000
DIMENSIONS    128   128   1

ORIGIN    0.000   0.000   0.000
SPACING   0.039062 0.039062   1.000

POINT_DATA   16384
SCALARS uY double
LOOKUP_TABLE default

1.506698e-14 1.646074e-14 1.669291e-14 1.803778e-14 1.843170e-14 1.991026e-14 2.006763e-14 2.121497e-14 2.219072e-14 2.344288e-14 2.469967e-14 2.585591e-14 2.653765e-14 2.777078e-14 2.879840e-14 2.957955e-14 2.974461e-14 3.033695e-14 3.051484e-14 3.018950e-14 2.992421e-14 2.907967e-14 3.011933e-14 2.987159e-14 3.138791e-14 3.163161e-14 3.297878e-14 3.328918e-14 3.466370e-14 3.509228e-14 3.703590e-14 3.683616e-14 3.877940e-14 3.778665e-14 3.878643e-14 3.916832e-14 4.038588e-14 4.004248e-14 4.148226e-14 4.191062e-14 4.524562e-14 4.584246e-14 4.840948e-14 4.885135e-14 5.171918e-14 5.127452e-14 5.503241e-14 5.412186e-14 5.692323e-14 5.671021e-14 6.030804e-14 5.904769e-14 6.244291e-14 6.187060e-14 6.309683e-14 6.439569e-14 6.759581e-14 6.692283e-14 7.111069e-14 6.852618e-14 7.207099e-14 7.060572e-14 7.361779e-14 7.045003e-14 7.294100e-14 7.053287e-14 7.403673e-14 7.222867e-14 7.427053e-14 7.106612e-14 7.245187e-14 6.918684e-14 6.987386e-14 6.724590e-14 6.781653e-14 6.517117e-14 6.625709e-14 6.374631e-14 6.319678e-14 5.990347e-14 6.040388e-14 5.849561e-14 5.896779e-14 5.834758e-14 5.862238e-14 5.817469e-14 5.879738e-14 5.779970e-14 5.793450e-14 5.790651e-14 5.714645e-14 5.683161e-14 5.533376e-14 5.566987e-14 5.545435e-14 5.502134e-14 5.189258e-14 5.225639e-14 4.898448e-14 4.910932e-14 4.584469e-14 4.572250e-14 4.243907e-14 4.490938e-14 4.260853e-14 4.414348e-14 4.048011e-14 4.109781e-14 3.742993e-14 3.795193e-14 3.436956e-14 3.487197e-14 3.082370e-14 3.131720e-14 2.751945e-14 2.760981e-14 2.338790e-14 2.340025e-14 2.009060e-14 2.038896e-14 1.748705e-14 1.811281e-14 1.631114e-14 1.727243e-14 1.568273e-14 1.629380e-14 1.465780e-14 1.560515e-14 
-1.520924e-02 -1.564873e-02 -1.641659e-02 -1.676540e-02 -1.742445e-02 -1.767307e-02 -1.821330e-02 -1.835366e-02 -1.876684e-02 -1.879256e-02 -1.907242e-02 -1.897900e-02 -1.912144e-02 -1.890659e-02 -1.890997e-02 -1.857392e-02 -1.843925e-02 -1.798496e-02 -1.771608e-02 -1.714946e-02 -1.675311e-02 -1.608300e-02 -1.556866e-02 -1.480672e-02 -1.418636e-02 -1.334672e-02 -1.263431e-02 -1.173309e-02 -1.094403e-02 -9.998723e-03 -9.149157e-03 -8.177893e-03 -7.283998e-03 -6.304858e-03 -5.382193e-03 -4.412518e-03 -3.475463e-03 -2.531277e-03 -1.592627e-03 -6.881946e-04 2.410890e-04 1.093538e-03 2.004397e-03 2.794792e-03 3.679981e-03 4.400381e-03 5.254258e-03 5.898704e-03 6.716926e-03 7.281217e-03 8.060402e-03 8.541837e-03 9.279230e-03 9.676350e-03 1.036955e-02 1.068193e-02 1.132866e-02 1.155676e-02 1.215481e-02 1.229993e-02 1.284712e-02 1.291139e-02 1.340567e-02 1.339216e-02 1.383179e-02 1.374459e-02 1.412837e-02 1.397275e-02 1.430015e-02 1.408263e-02 1.435401e-02 1.408236e-02 1.429899e-02 1.398211e-02 1.414611e-02 1.379382e-02 1.390796e-02 1.353052e-02 1.359786e-02 1.320547e-02 1.322886e-02 1.283099e-02 1.281257e-02 1.241719e-02 1.235780e-02 1.197074e-02 1.186950e-02 1.149384e-02 1.134780e-02 1.098353e-02 1.078767e-02 1.043157e-02 1.017898e-02 9.824910e-03 9.507366e-03 9.146850e-03 8.755597e-03 8.378709e-03 7.905464e-03 7.501944e-03 6.939960e-03 6.500399e-03 5.845485e-03 5.362452e-03 4.613786e-03 4.082760e-03 3.243421e-03 2.663401e-03 1.740527e-03 1.114280e-03 1.188646e-04 -5.472012e-04 -1.600838e-03 -2.297121e-03 -3.392094e-03 -4.106468e-03 -5.224202e-03 -5.942799e-03 -7.063910e-03 -7.771900e-03 -8.876981e-03 -9.559268e-03 -1.062952e-02 -1.127130e-02 -1.228900e-02 -1.287615e-02 -1.382492e-02 -1.434427e-02 
-3.040930e-02 -3.129158e-02 -3.281669e-02 -3.351814e-02 -3.482736e-02 -3.532883e-02 -3.640209e-02 -3.668734e-02 -3.750807e-02 -3.756413e-02 -3.811956e-02 -3.793725e-02 -3.821894e-02 -3.779349e-02 -3.779784e-02 -3.712947e-02 -3.685822e-02 -3.595269e-02 -3.541326e-02 -3.428223e-02 -3.348783e-02 -3.214894e-02 -3.111836e-02 -2.959489e-02 -2.835194e-02 -2.667224e-02 -2.524482e-02 -2.344126e-02 -2.186018e-02 -1.996791e-02 -1.826550e-02 -1.632105e-02 -1.452975e-02 -1.256951e-02 -1.072053e-02 -8.779435e-03 -6.901617e-03 -5.011932e-03 -3.130923e-03 -1.321344e-03 5.409060e-04 2.245820e-03 4.071201e-03 5.651279e-03 7.425339e-03 8.864736e-03 1.057624e-02 1.186314e-02 1.350347e-02 1.462962e-02 1.619204e-02 1.715219e-02 1.863121e-02 1.942264e-02 2.081338e-02 2.143539e-02 2.273322e-02 2.318688e-02 2.438717e-02 2.467514e-02 2.577327e-02 2.589989e-02 2.689146e-02 2.686285e-02 2.774403e-02 2.756836e-02 2.833631e-02 2.802406e-02 2.867737e-02 2.824151e-02 2.878055e-02 2.823655e-02 2.866356e-02 2.802924e-02 2.834828e-02 2.764322e-02 2.785977e-02 2.710458e-02 2.722480e-02 2.643998e-02 2.646980e-02 2.567438e-02 2.561842e-02 2.482851e-02 2.468897e-02 2.391636e-02 2.369204e-02 2.294302e-02 2.262873e-02 2.190331e-02 2.148970e-02 2.078146e-02 2.025546e-02 1.955204e-02 1.889789e-02 1.818217e-02 1.738298e-02 1.663491e-02 1.567466e-02 1.487348e-02 1.373908e-02 1.286571e-02 1.154906e-02 1.058842e-02 9.087999e-03 8.030862e-03 6.352805e-03 5.197035e-03 3.355451e-03 2.106509e-03 1.230776e-04 -1.206250e-03 -3.303320e-03 -4.693824e-03 -6.871288e-03 -8.298698e-03 -1.052000e-02 -1.195656e-02 -1.418356e-02 -1.559958e-02 -1.779411e-02 -1.915939e-02 -2.128444e-02 -2.256937e-02 -2.459000e-02 -2.576633e-02 -2.765021e-02 -2.869160e-02 
-4.580471e-02 -4.713404e-02 -4.944928e-02 -5.050523e-02 -5.249239e-02 -5.324628e-02 -5.487520e-02 -5.530269e-02 -5.654850e-02 -5.663014e-02 -5.747380e-02 -5.719582e-02 -5.762481e-02 -5.698006e-02 -5.698918e-02 -5.597804e-02 -5.557018e-02 -5.420141e-02 -5.338807e-02 -5.167935e-02 -5.048082e-02 -4.845883e-02 -4.690386e-02 -4.460390e-02 -4.272884e-02 -4.019379e-02 -3.804117e-02 -3.532003e-02 -3.293672e-02 -3.008264e-02 -2.751777e-02 -2.458588e-02 -2.188864e-02 -1.893386e-02 -1.615148e-02 -1.322641e-02 -1.040244e-02 -7.555592e-03 -4.728671e-03 -2.003121e-03 7.938019e-04 3.361244e-03 6.101077e-03 8.480225e-03 1.114145e-02 1.330862e-02 1.587461e-02 1.781215e-02 2.027020e-02 2.196578e-02 2.430609e-02 2.575184e-02 2.796642e-02 2.915818e-02 3.124003e-02 3.217667e-02 3.411909e-02 3.480208e-02 3.659840e-02 3.703160e-02 3.867518e-02 3.886492e-02 4.034948e-02 4.030482e-02 4.162496e-02 4.135809e-02 4.250992e-02 4.203655e-02 4.301841e-02 4.235808e-02 4.317096e-02 4.234709e-02 4.299486e-02 4.203444e-02 4.252369e-02 4.145653e-02 4.179591e-02 4.065339e-02 4.085253e-02 3.966593e-02 3.973396e-02 3.853234e-02 3.847621e-02 3.728424e-02 3.710696e-02 3.594268e-02 3.564187e-02 3.451491e-02 3.408181e-02 3.299219e-02 3.241147e-02 3.134931e-02 3.059974e-02 2.954602e-02 2.860212e-02 2.753049e-02 2.636500e-02 2.524461e-02 2.383160e-02 2.263046e-02 2.094868e-02 1.963744e-02 1.767351e-02 1.622894e-02 1.397986e-02 1.238779e-02 9.862630e-03 8.119807e-03 5.340193e-03 3.455047e-03 4.544857e-04 -1.553313e-03 -4.731103e-03 -6.832077e-03 -1.013556e-02 -1.229255e-02 -1.566513e-02 -1.783575e-02 -2.121847e-02 -2.335754e-02 -2.669157e-02 -2.875323e-02 -3.198172e-02 -3.392116e-02 -3.699064e-02 -3.876524e-02 -4.162642e-02 -4.319652e-02 
-6.117036e-02 -6.295667e-02 -6.603017e-02 -6.745219e-02 -7.009067e-02 -7.110986e-02 -7.327297e-02 -7.385645e-02 -7.551064e-02 -7.563194e-02 -7.675123e-02 -7.639141e-02 -7.695838e-02 -7.610726e-02 -7.611423e-02 -7.477171e-02 -7.422179e-02 -7.239907e-02 -7.130700e-02 -6.902734e-02 -6.741975e-02 -6.471866e-02 -6.263371e-02 -5.955844e-02 -5.704464e-02 -5.365285e-02 -5.076722e-02 -4.712492e-02 -4.393044e-02 -4.010936e-02 -3.667211e-02 -3.274676e-02 -2.913295e-02 -2.517752e-02 -2.145070e-02 -1.753621e-02 -1.375491e-02 -9.946789e-03 -6.162800e-03 -2.519032e-03 1.223605e-03 4.653655e-03 8.318896e-03 1.149494e-02 1.505432e-02 1.794496e-02 2.137662e-02 2.395869e-02 2.724609e-02 2.950360e-02 3.263396e-02 3.455698e-02 3.751987e-02 3.910336e-02 4.188949e-02 4.313238e-02 4.573267e-02 4.663723e-02 4.904241e-02 4.961399e-02 5.181463e-02 5.206170e-02 5.404866e-02 5.398324e-02 5.574842e-02 5.538658e-02 5.692389e-02 5.628642e-02 5.759271e-02 5.670550e-02 5.778133e-02 5.667556e-02 5.752554e-02 5.623728e-02 5.686993e-02 5.543921e-02 5.586613e-02 5.433527e-02 5.456976e-02 5.298108e-02 5.303609e-02 5.142912e-02 5.131499e-02 4.972337e-02 4.944544e-02 4.789393e-02 4.745044e-02 4.595235e-02 4.533307e-02 4.388864e-02 4.307444e-02 4.167031e-02 4.063402e-02 3.924428e-02 3.795281e-02 3.654142e-02 3.495905e-02 3.348369e-02 3.157623e-02 2.999295e-02 2.773224e-02 2.600061e-02 2.336880e-02 2.145678e-02 1.844979e-02 1.633767e-02 1.296744e-02 1.065046e-02 6.945618e-03 4.434957e-03 4.398953e-04 -2.237963e-03 -6.465329e-03 -9.270610e-03 -1.366207e-02 -1.654465e-02 -2.102537e-02 -2.392816e-02 -2.842033e-02 -3.128258e-02 -3.570860e-02 -3.846880e-02 -4.275379e-02 -4.535190e-02 -4.942546e-02 -5.180448e-02 -5.560165e-02 -5.770857e-02 
-7.693401e-02 -7.918579e-02 -8.308350e-02 -8.487527e-02 -8.822066e-02 -8.950419e-02 -9.224664e-02 -9.298070e-02 -9.507818e-02 -9.522950e-02 -9.664947e-02 -9.619410e-02 -9.691482e-02 -9.583978e-02 -9.585176e-02 -9.415678e-02 -9.346423e-02 -9.116331e-02 -8.978523e-02 -8.690771e-02 -8.487827e-02 -8.146910e-02 -7.883719e-02 -7.495629e-02 -7.178403e-02 -6.750457e-02 -6.386488e-02 -5.927064e-02 -5.524397e-02 -5.042594e-02 -4.609658e-02 -4.114912e-02 -3.660129e-02 -3.161823e-02 -2.693256e-02 -2.200352e-02 -1.725400e-02 -1.246133e-02 -7.713145e-03 -3.129594e-03 1.562099e-03 5.874796e-03 1.046517e-02 1.445681e-02 1.891074e-02 2.254238e-02 2.683320e-02 3.007620e-02 3.418392e-02 3.701862e-02 4.092803e-02 4.334222e-02 4.704101e-02 4.902848e-02 5.250564e-02 5.406501e-02 5.730974e-02 5.844367e-02 6.144486e-02 6.215973e-02 6.490598e-02 6.521205e-02 6.769229e-02 6.760425e-02 6.980874e-02 6.934645e-02 7.126805e-02 7.045737e-02 7.209272e-02 7.096616e-02 7.231668e-02 7.091361e-02 7.198597e-02 7.035220e-02 7.115808e-02 6.934466e-02 6.989967e-02 6.796081e-02 6.828261e-02 6.627270e-02 6.637842e-02 6.434839e-02 6.425149e-02 6.224485e-02 6.195200e-02 6.000085e-02 5.950915e-02 5.763083e-02 5.692594e-02 5.512082e-02 5.417641e-02 5.242719e-02 5.120606e-02 4.947901e-02 4.793593e-02 4.618409e-02 4.427021e-02 4.243831e-02 4.010673e-02 3.813735e-02 3.534915e-02 3.318948e-02 2.991947e-02 2.752760e-02 2.376900e-02 2.111916e-02 1.688655e-02 1.397251e-02 9.302648e-03 6.138943e-03 1.089528e-03 -2.289477e-03 -7.642934e-03 -1.118576e-02 -1.675433e-02 -2.039633e-02 -2.608265e-02 -2.975049e-02 -3.545363e-02 -3.906963e-02 -4.468938e-02 -4.817526e-02 -5.361539e-02 -5.689513e-02 -6.206561e-02 -6.506733e-02 -6.988556e-02 -7.254270e-02 
-9.264048e-02 -9.537451e-02 -1.000431e-01 -1.022242e-01 -1.062323e-01 -1.078021e-01 -1.110885e-01 -1.119967e-01 -1.145103e-01 -1.147158e-01 -1.164164e-01 -1.158892e-01 -1.167492e-01 -1.154724e-01 -1.154789e-01 -1.134511e-01 -1.126078e-01 -1.098446e-01 -1.081733e-01 -1.047095e-01 -1.022505e-01 -9.814000e-02 -9.495216e-02 -9.026743e-02 -8.642580e-02 -8.125590e-02 -7.684908e-02 -7.129628e-02 -6.642232e-02 -6.059791e-02 -5.535961e-02 -4.937911e-02 -4.387924e-02 -3.785750e-02 -3.219430e-02 -2.624089e-02 -2.050429e-02 -1.471966e-02 -8.988601e-03 -3.461175e-03 2.197950e-03 7.393529e-03 1.292715e-02 1.773064e-02 2.309724e-02 2.746236e-02 3.263080e-02 3.652403e-02 4.147129e-02 4.487011e-02 4.957882e-02 5.246970e-02 5.692576e-02 5.930230e-02 6.349285e-02 6.535425e-02 6.926621e-02 7.061623e-02 7.423569e-02 7.508227e-02 7.839455e-02 7.874997e-02 8.174040e-02 8.162199e-02 8.427727e-02 8.370845e-02 8.601829e-02 8.502966e-02 8.698841e-02 8.561867e-02 8.722673e-02 8.552309e-02 8.678757e-02 8.480536e-02 8.574003e-02 8.354133e-02 8.416538e-02 8.181651e-02 8.215229e-02 7.972022e-02 7.979004e-02 7.733786e-02 7.716017e-02 7.474205e-02 7.432741e-02 7.198362e-02 7.133111e-02 6.908370e-02 6.817845e-02 6.602831e-02 6.484059e-02 6.276646e-02 6.125287e-02 5.921283e-02 5.731966e-02 5.525497e-02 5.292351e-02 5.076482e-02 4.793824e-02 4.561332e-02 4.224410e-02 3.968632e-02 3.574336e-02 3.289973e-02 2.837420e-02 2.521191e-02 2.012088e-02 1.663154e-02 1.101905e-02 7.220207e-03 1.155623e-03 -2.910530e-03 -9.336369e-03 -1.360655e-02 -2.028679e-02 -2.468164e-02 -3.149954e-02 -3.592933e-02 -4.276419e-02 -4.713420e-02 -5.386652e-02 -5.808168e-02 -6.459698e-02 -6.856528e-02 -7.475664e-02 -7.839138e-02 -8.416078e-02 -8.738176e-02 
-1.089625e-01 -1.121914e-01 -1.177302e-01 -1.203060e-01 -1.250602e-01 -1.269146e-01 -1.308126e-01 -1.318865e-01 -1.348681e-01 -1.351131e-01 -1.371311e-01 -1.365113e-01 -1.375332e-01 -1.360282e-01 -1.360388e-01 -1.336460e-01 -1.326498e-01 -1.293874e-01 -1.274104e-01 -1.233191e-01 -1.204099e-01 -1.155536e-01 -1.117827e-01 -1.062477e-01 -1.017053e-01 -9.559765e-02 -9.039044e-02 -8.383209e-02 -7.807780e-02 -7.120141e-02 -6.502332e-02 -5.796639e-02 -5.148736e-02 -4.438629e-02 -3.772332e-02 -3.070785e-02 -2.396755e-02 -1.715619e-02 -1.043154e-02 -3.928124e-03 2.703243e-03 8.811519e-03 1.528762e-02 2.093082e-02 2.720421e-02 3.232903e-02 3.836471e-02 4.293287e-02 4.870551e-02 5.269153e-02 5.818238e-02 6.157114e-02 6.676511e-02 6.954957e-02 7.443280e-02 7.661210e-02 8.117023e-02 8.274856e-02 8.696597e-02 8.795210e-02 9.181204e-02 9.221965e-02 9.570528e-02 9.555389e-02 9.864991e-02 9.796626e-02 1.006610e-01 9.948047e-02 1.017679e-01 1.001358e-01 1.020173e-01 9.998925e-02 1.014746e-01 9.911642e-02 1.002233e-01 9.760948e-02 9.836245e-02 9.557286e-02 9.600022e-02 9.311602e-02 9.324592e-02 9.034395e-02 9.019955e-02 8.734608e-02 8.694048e-02 8.418504e-02 8.351668e-02 8.088660e-02 7.993611e-02 7.743275e-02 7.616170e-02 7.375912e-02 7.211153e-02 6.975812e-02 6.766459e-02 6.528782e-02 6.267236e-02 6.018638e-02 5.697506e-02 5.429034e-02 5.042082e-02 4.745468e-02 4.288532e-02 3.957196e-02 3.428924e-02 3.058791e-02 2.461104e-02 2.051130e-02 1.389348e-02 9.416861e-03 2.243099e-03 -2.558589e-03 -1.017660e-02 -1.522594e-02 -2.315690e-02 -2.835727e-02 -3.645817e-02 -4.170093e-02 -4.982462e-02 -5.499585e-02 -6.299746e-02 -6.798360e-02 -7.572531e-02 -8.041720e-02 -8.777119e-02 -9.206663e-02 -9.891651e-02 -1.027214e-01 
-1.251880e-01 -1.289357e-01 -1.352696e-01 -1.382683e-01 -1.437070e-01 -1.458777e-01 -1.503387e-01 -1.516126e-01 -1.550258e-01 -1.553455e-01 -1.576548e-01 -1.569773e-01 -1.581430e-01 -1.564423e-01 -1.564446e-01 -1.537156e-01 -1.525571e-01 -1.488189e-01 -1.465279e-01 -1.418260e-01 -1.384571e-01 -1.328646e-01 -1.284987e-01 -1.221155e-01 -1.168575e-01 -1.098071e-01 -1.037811e-01 -9.620650e-02 -8.955026e-02 -8.160693e-02 -7.446481e-02 -6.631424e-02 -5.883007e-02 -5.063233e-02 -4.294278e-02 -3.484987e-02 -2.707900e-02 -1.922928e-02 -1.148468e-02 -3.998787e-03 3.630477e-03 1.065199e-02 1.809562e-02 2.457295e-02 3.177802e-02 3.765124e-02 4.457952e-02 4.980651e-02 5.643104e-02 6.098466e-02 6.728586e-02 7.115091e-02 7.711300e-02 8.028326e-02 8.589123e-02 8.836721e-02 9.360470e-02 9.539208e-02 1.002405e-01 1.013496e-01 1.057881e-01 1.062344e-01 1.102416e-01 1.100466e-01 1.136023e-01 1.127958e-01 1.158839e-01 1.145053e-01 1.171162e-01 1.152167e-01 1.173499e-01 1.149931e-01 1.166584e-01 1.139201e-01 1.151377e-01 1.121047e-01 1.129035e-01 1.096697e-01 1.100844e-01 1.067458e-01 1.068120e-01 1.034604e-01 1.032085e-01 9.992352e-02 9.937296e-02 9.621477e-02 9.536799e-02 9.237030e-02 9.120865e-02 8.837398e-02 8.685597e-02 8.415376e-02 8.221643e-02 7.958480e-02 7.714846e-02 7.449984e-02 7.147601e-02 6.870625e-02 6.500797e-02 6.200812e-02 5.756137e-02 5.423053e-02 4.898519e-02 4.524284e-02 3.918165e-02 3.497762e-02 2.812174e-02 2.344256e-02 1.585304e-02 1.072388e-02 2.498964e-03 -3.018756e-03 -1.174987e-02 -1.756429e-02 -2.664998e-02 -3.264687e-02 -4.192254e-02 -4.797406e-02 -5.727104e-02 -6.324392e-02 -7.239690e-02 -7.815905e-02 -8.701146e-02 -9.243667e-02 -1.008438e-01 -1.058144e-01 -1.136447e-01 -1.180529e-01 
-1.422696e-01 -1.465525e-01 -1.538149e-01 -1.572431e-01 -1.634776e-01 -1.659619e-01 -1.710754e-01 -1.725376e-01 -1.764507e-01 -1.768251e-01 -1.794736e-01 -1.787099e-01 -1.800482e-01 -1.781156e-01 -1.781204e-01 -1.750116e-01 -1.736857e-01 -1.694211e-01 -1.667967e-01 -1.614278e-01 -1.575683e-01 -1.511788e-01 -1.461784e-01 -1.388832e-01 -1.328642e-01 -1.248064e-01 -1.179139e-01 -1.092587e-01 -1.016536e-01 -9.258126e-02 -8.443157e-02 -7.512870e-02 -6.660145e-02 -5.725249e-02 -4.850559e-02 -3.928504e-02 -3.046093e-02 -2.152683e-02 -1.274803e-02 -4.237350e-03 4.395788e-03 1.236977e-02 2.077914e-02 2.812737e-02 3.625532e-02 4.291172e-02 5.071771e-02 5.663655e-02 6.409292e-02 6.924535e-02 7.633274e-02 8.070304e-02 8.740604e-02 9.098817e-02 9.729176e-02 1.000866e-01 1.059737e-01 1.079874e-01 1.134378e-01 1.146812e-01 1.196717e-01 1.201611e-01 1.246674e-01 1.244258e-01 1.284250e-01 1.274846e-01 1.309585e-01 1.293628e-01 1.323011e-01 1.301075e-01 1.325106e-01 1.297916e-01 1.316722e-01 1.285153e-01 1.298988e-01 1.264045e-01 1.273272e-01 1.236057e-01 1.241104e-01 1.202751e-01 1.204060e-01 1.165657e-01 1.163606e-01 1.126107e-01 1.120937e-01 1.085066e-01 1.076808e-01 1.042975e-01 1.031397e-01 9.996392e-02 9.842206e-02 9.541768e-02 9.341283e-02 9.050556e-02 8.793741e-02 8.502159e-02 8.177832e-02 7.872787e-02 7.469901e-02 7.138172e-02 6.647240e-02 6.276568e-02 5.691041e-02 5.271639e-02 4.589025e-02 4.114796e-02 3.337359e-02 2.806663e-02 1.941584e-02 1.357454e-02 4.164751e-03 -2.137048e-03 -1.215087e-02 -1.880333e-02 -2.923963e-02 -3.610702e-02 -4.676956e-02 -5.370117e-02 -6.439014e-02 -7.123020e-02 -8.175136e-02 -8.834691e-02 -9.851788e-02 -1.047241e-01 -1.143779e-01 -1.200611e-01 -1.290472e-01 -1.340855e-01 
-1.591975e-01 -1.640474e-01 -1.721406e-01 -1.760359e-01 -1.829876e-01 -1.858281e-01 -1.915337e-01 -1.932305e-01 -1.975995e-01 -1.980765e-01 -2.010342e-01 -2.002321e-01 -2.017236e-01 -1.996040e-01 -1.995993e-01 -1.961501e-01 -1.946485e-01 -1.898896e-01 -1.869242e-01 -1.809110e-01 -1.765512e-01 -1.693770e-01 -1.637284e-01 -1.555230e-01 -1.487243e-01 -1.396508e-01 -1.318679e-01 -1.221157e-01 -1.135329e-01 -1.033091e-01 -9.411936e-02 -8.363854e-02 -7.403339e-02 -6.350750e-02 -5.366750e-02 -4.329654e-02 -3.338374e-02 -2.334807e-02 -1.350077e-02 -3.955624e-03 5.714202e-03 1.464169e-02 2.404838e-02 3.225969e-02 4.134156e-02 4.876515e-02 5.748039e-02 6.406832e-02 7.238976e-02 7.811339e-02 8.602288e-02 9.086818e-02 9.835130e-02 1.023146e-01 1.093563e-01 1.124409e-01 1.190225e-01 1.212366e-01 1.273346e-01 1.286906e-01 1.342768e-01 1.347921e-01 1.398361e-01 1.395349e-01 1.440072e-01 1.429234e-01 1.467991e-01 1.449795e-01 1.482432e-01 1.457503e-01 1.483989e-01 1.453130e-01 1.473590e-01 1.437781e-01 1.452495e-01 1.412883e-01 1.422273e-01 1.380123e-01 1.384705e-01 1.341336e-01 1.341655e-01 1.298346e-01 1.294891e-01 1.252771e-01 1.245880e-01 1.205816e-01 1.195590e-01 1.158084e-01 1.144316e-01 1.109429e-01 1.091573e-01 1.058888e-01 1.036072e-01 1.004716e-01 9.758034e-02 9.445195e-02 9.082252e-02 8.755073e-02 8.305460e-02 7.948082e-02 7.400651e-02 6.998326e-02 6.345270e-02 5.886192e-02 5.124382e-02 4.601166e-02 3.732981e-02 3.143573e-02 2.177094e-02 1.525006e-02 4.735651e-03 -2.325471e-03 -1.351340e-02 -2.098630e-02 -3.264195e-02 -4.036874e-02 -5.227072e-02 -6.007729e-02 -7.200153e-02 -7.970939e-02 -9.143949e-02 -9.887486e-02 -1.102089e-01 -1.172087e-01 -1.279630e-01 -1.343775e-01 -1.443868e-01 -1.500804e-01 
-1.772541e-01 -1.826907e-01 -1.917825e-01 -1.961522e-01 -2.039600e-01 -2.071524e-01 -2.135610e-01 -2.154772e-01 -2.203857e-01 -2.209397e-01 -2.242643e-01 -2.233877e-01 -2.250658e-01 -2.227129e-01 -2.227090e-01 -2.188637e-01 -2.171759e-01 -2.118577e-01 -2.085226e-01 -2.017924e-01 -1.968884e-01 -1.888505e-01 -1.824985e-01 -1.733000e-01 -1.656594e-01 -1.554860e-01 -1.467475e-01 -1.358153e-01 -1.261911e-01 -1.147362e-01 -1.044480e-01 -9.271455e-02 -8.198117e-02 -7.020966e-02 -5.923635e-02 -4.765245e-02 -3.662193e-02 -2.542790e-02 -1.449448e-02 -3.862987e-03 6.850156e-03 1.677916e-02 2.717964e-02 3.629919e-02 4.632241e-02 5.455628e-02 6.416036e-02 7.145883e-02 8.061838e-02 8.695292e-02 9.565229e-02 1.010100e-01 1.092371e-01 1.136158e-01 1.213568e-01 1.247608e-01 1.319969e-01 1.344349e-01 1.411411e-01 1.426255e-01 1.487707e-01 1.493186e-01 1.548684e-01 1.545043e-01 1.594250e-01 1.581839e-01 1.624474e-01 1.603791e-01 1.639679e-01 1.611406e-01 1.640523e-01 1.605551e-01 1.628056e-01 1.587492e-01 1.603732e-01 1.558886e-01 1.569379e-01 1.521711e-01 1.527091e-01 1.478136e-01 1.479075e-01 1.430335e-01 1.427435e-01 1.380247e-01 1.373931e-01 1.329331e-01 1.319729e-01 1.278325e-01 1.265189e-01 1.227069e-01 1.209730e-01 1.174410e-01 1.151790e-01 1.118235e-01 1.088923e-01 1.055636e-01 1.018028e-01 9.832013e-02 9.356841e-02 8.974126e-02 8.385746e-02 7.950820e-02 7.239177e-02 6.737818e-02 5.898590e-02 5.321915e-02 4.357535e-02 3.703093e-02 2.622970e-02 1.894990e-02 7.149144e-03 -7.626148e-04 -1.335375e-02 -2.174506e-02 -3.488283e-02 -4.356801e-02 -5.699180e-02 -6.576808e-02 -7.921641e-02 -8.787826e-02 -1.011012e-01 -1.094509e-01 -1.222180e-01 -1.300724e-01 -1.421762e-01 -1.493691e-01 -1.606257e-01 -1.670076e-01 
-1.950753e-01 -2.011383e-01 -2.111084e-01 -2.160003e-01 -2.245694e-01 -2.281686e-01 -2.352095e-01 -2.374051e-01 -2.428043e-01 -2.434983e-01 -2.471590e-01 -2.462707e-01 -2.481182e-01 -2.455915e-01 -2.455804e-01 -2.413914e-01 -2.395134e-01 -2.336784e-01 -2.299692e-01 -2.225518e-01 -2.170955e-01 -2.082094e-01 -2.011395e-01 -1.909488e-01 -1.824438e-01 -1.711576e-01 -1.614334e-01 -1.492966e-01 -1.385942e-01 -1.258752e-01 -1.144464e-01 -1.014232e-01 -8.951648e-02 -7.646224e-02 -6.430971e-02 -5.148009e-02 -3.928699e-02 -2.690984e-02 -1.484775e-02 -3.115896e-03 8.680321e-03 1.961260e-02 3.104423e-02 4.106135e-02 5.206204e-02 6.108412e-02 7.161365e-02 7.959127e-02 8.962788e-02 9.653552e-02 1.060678e-01 1.118969e-01 1.209161e-01 1.256689e-01 1.341629e-01 1.378477e-01 1.457968e-01 1.484250e-01 1.558004e-01 1.573856e-01 1.641499e-01 1.647096e-01 1.708201e-01 1.703784e-01 1.757920e-01 1.743839e-01 1.790631e-01 1.767399e-01 1.806592e-01 1.774928e-01 1.806446e-01 1.767312e-01 1.791299e-01 1.745918e-01 1.762752e-01 1.712590e-01 1.722865e-01 1.669585e-01 1.674055e-01 1.619425e-01 1.618911e-01 1.564680e-01 1.559947e-01 1.507688e-01 1.499310e-01 1.450260e-01 1.438479e-01 1.393382e-01 1.378006e-01 1.336993e-01 1.317332e-01 1.279858e-01 1.254732e-01 1.219590e-01 1.187412e-01 1.152837e-01 1.111769e-01 1.075618e-01 1.023791e-01 9.837903e-02 9.195505e-02 8.735763e-02 7.957295e-02 7.420779e-02 6.500886e-02 5.876925e-02 4.818057e-02 4.103656e-02 2.916314e-02 2.116409e-02 8.184106e-03 -5.488673e-04 -1.439932e-02 -2.368860e-02 -3.813546e-02 -4.776630e-02 -6.251846e-02 -7.225863e-02 -8.702635e-02 -9.664299e-02 -1.111519e-01 -1.204236e-01 -1.344230e-01 -1.431470e-01 -1.564133e-01 -1.644073e-01 -1.767430e-01 -1.838446e-01 
-2.143395e-01 -2.210513e-01 -2.321016e-01 -2.375231e-01 -2.470193e-01 -2.510189e-01 -2.588232e-01 -2.612791e-01 -2.672669e-01 -2.680692e-01 -2.721323e-01 -2.711884e-01 -2.732415e-01 -2.704846e-01 -2.704741e-01 -2.658726e-01 -2.637862e-01 -2.573538e-01 -2.532293e-01 -2.450335e-01 -2.389644e-01 -2.291309e-01 -2.212679e-01 -2.099806e-01 -2.005275e-01 -1.880224e-01 -1.772258e-01 -1.637803e-01 -1.519156e-01 -1.378337e-01 -1.251880e-01 -1.107835e-01 -9.763873e-02 -8.321871e-02 -6.983625e-02 -5.568647e-02 -4.229515e-02 -2.866818e-02 -1.545683e-02 -2.564224e-03 1.032150e-02 2.231283e-02 3.476923e-02 4.573669e-02 5.769725e-02 6.755855e-02 7.898634e-02 8.769306e-02 9.857157e-02 1.061011e-01 1.164246e-01 1.227720e-01 1.325368e-01 1.377073e-01 1.469044e-01 1.509085e-01 1.595188e-01 1.623683e-01 1.703613e-01 1.720691e-01 1.794033e-01 1.799850e-01 1.866120e-01 1.860899e-01 1.919603e-01 1.903686e-01 1.954392e-01 1.928301e-01 1.970718e-01 1.935216e-01 1.969263e-01 1.925399e-01 1.951257e-01 1.900389e-01 1.918519e-01 1.862306e-01 1.873431e-01 1.813774e-01 1.818815e-01 1.757758e-01 1.757721e-01 1.697306e-01 1.693133e-01 1.635218e-01 1.627624e-01 1.573683e-01 1.562982e-01 1.513920e-01 1.499892e-01 1.455891e-01 1.437706e-01 1.398144e-01 1.374358e-01 1.337820e-01 1.306479e-01 1.270868e-01 1.229696e-01 1.192456e-01 1.139119e-01 1.097527e-01 1.029947e-01 9.814533e-02 8.981075e-02 8.406663e-02 7.408367e-02 6.731712e-02 5.570966e-02 4.788555e-02 3.477588e-02 2.595421e-02 1.155333e-02 1.879194e-03 -1.353289e-02 -2.384882e-02 -3.994852e-02 -5.065427e-02 -6.710060e-02 -7.792712e-02 -9.438449e-02 -1.050658e-01 -1.212206e-01 -1.315079e-01 -1.470781e-01 -1.567469e-01 -1.714845e-01 -1.803364e-01 -1.940261e-01 -2.018860e-01 
-2.332531e-01 -2.406619e-01 -2.526491e-01 -2.586593e-01 -2.689727e-01 -2.734415e-01 -2.819310e-01 -2.847235e-01 -2.912497e-01 -2.922410e-01 -2.966794e-01 -2.957613e-01 -2.980100e-01 -2.951002e-01 -2.950911e-01 -2.901456e-01 -2.878556e-01 -2.808811e-01 -2.763441e-01 -2.674083e-01 -2.607223e-01 -2.499604e-01 -2.412904e-01 -2.289053e-01 -2.184783e-01 -2.047344e-01 -1.928281e-01 -1.780381e-01 -1.649641e-01 -1.494719e-01 -1.355555e-01 -1.197166e-01 -1.052762e-01 -8.943768e-02 -7.476732e-02 -5.925091e-02 -4.460582e-02 -2.969396e-02 -1.528207e-02 -1.208835e-03 1.281271e-02 2.586579e-02 3.938899e-02 5.129216e-02 6.425215e-02 7.492242e-02 8.728824e-02 9.668125e-02 1.084446e-01 1.165448e-01 1.277086e-01 1.345191e-01 1.450864e-01 1.506202e-01 1.605861e-01 1.648592e-01 1.742047e-01 1.772327e-01 1.859228e-01 1.877195e-01 1.957045e-01 1.962842e-01 2.035042e-01 2.028866e-01 2.092790e-01 2.074954e-01 2.130034e-01 2.101046e-01 2.146873e-01 2.107509e-01 2.143917e-01 2.095286e-01 2.122423e-01 2.066001e-01 2.084361e-01 2.021987e-01 2.032392e-01 1.966214e-01 1.969750e-01 1.902110e-01 1.899996e-01 1.833265e-01 1.826681e-01 1.763044e-01 1.752931e-01 1.694149e-01 1.681004e-01 1.628183e-01 1.611885e-01 1.565289e-01 1.545000e-01 1.503940e-01 1.478088e-01 1.440928e-01 1.407317e-01 1.371595e-01 1.327620e-01 1.290310e-01 1.233268e-01 1.191130e-01 1.118585e-01 1.068576e-01 9.787209e-02 9.183951e-02 8.103503e-02 7.381815e-02 6.121746e-02 5.277433e-02 3.851402e-02 2.891577e-02 1.323415e-02 2.651726e-03 -1.413517e-02 -2.545561e-02 -4.298463e-02 -5.475180e-02 -7.264361e-02 -8.455031e-02 -1.024356e-01 -1.141825e-01 -1.317205e-01 -1.430316e-01 -1.599196e-01 -1.705501e-01 -1.865255e-01 -1.962617e-01 -2.110979e-01 -2.197534e-01 
-2.539774e-01 -2.621065e-01 -2.752660e-01 -2.818707e-01 -2.931930e-01 -2.981215e-01 -3.074462e-01 -3.105516e-01 -3.177268e-01 -3.188697e-01 -3.237565e-01 -3.228123e-01 -3.252940e-01 -3.221646e-01 -3.221599e-01 -3.167883e-01 -3.142658e-01 -3.066516e-01 -3.016442e-01 -2.918570e-01 -2.844720e-01 -2.726591e-01 -2.630815e-01 -2.494693e-01 -2.379570e-01 -2.228428e-01 -2.097127e-01 -1.934500e-01 -1.790575e-01 -1.620346e-01 -1.467496e-01 -1.293666e-01 -1.135492e-01 -9.619465e-02 -8.017413e-02 -6.320555e-02 -4.726451e-02 -3.099261e-02 -1.535749e-02 -3.641630e-05 1.512581e-02 2.930257e-02 4.388172e-02 5.677977e-02 7.071491e-02 8.225243e-02 9.552072e-02 1.056585e-01 1.182619e-01 1.269913e-01 1.389429e-01 1.462742e-01 1.575857e-01 1.635376e-01 1.742095e-01 1.788013e-01 1.888164e-01 1.920640e-01 2.013851e-01 2.033002e-01 2.118716e-01 2.124645e-01 2.202181e-01 2.195036e-01 2.263667e-01 2.243720e-01 2.302788e-01 2.270526e-01 2.319554e-01 2.275773e-01 2.314571e-01 2.260456e-01 2.289205e-01 2.226376e-01 2.245672e-01 2.176190e-01 2.187028e-01 2.113335e-01 2.117030e-01 2.041827e-01 2.039869e-01 1.965920e-01 1.959759e-01 1.889639e-01 1.880447e-01 1.816260e-01 1.804674e-01 1.747769e-01 1.733678e-01 1.684415e-01 1.666822e-01 1.624432e-01 1.601433e-01 1.564005e-01 1.532909e-01 1.497534e-01 1.455125e-01 1.418197e-01 1.361117e-01 1.318755e-01 1.243954e-01 1.192508e-01 1.097695e-01 1.034228e-01 9.182494e-02 8.409391e-02 7.040024e-02 6.123654e-02 4.560728e-02 3.509865e-02 1.781761e-02 6.170381e-03 -1.238615e-02 -2.487871e-02 -4.428109e-02 -5.727654e-02 -7.708068e-02 -9.022345e-02 -1.100031e-01 -1.229528e-01 -1.423213e-01 -1.547706e-01 -1.733912e-01 -1.850728e-01 -2.026594e-01 -2.133453e-01 -2.296561e-01 -2.391502e-01 
-2.741915e-01 -2.830981e-01 -2.972633e-01 -3.045344e-01 -3.167423e-01 -3.222155e-01 -3.322928e-01 -3.358070e-01 -3.435845e-01 -3.449816e-01 -3.502993e-01 -3.494335e-01 -3.521518e-01 -3.489028e-01 -3.489185e-01 -3.432100e-01 -3.404743e-01 -3.322925e-01 -3.268295e-01 -3.162402e-01 -3.081596e-01 -2.953189e-01 -2.848217e-01 -2.699780e-01 -2.573510e-01 -2.408366e-01 -2.264366e-01 -2.086494e-01 -1.928787e-01 -1.742578e-01 -1.575352e-01 -1.385330e-01 -1.212652e-01 -1.023203e-01 -8.487678e-02 -6.639072e-02 -4.908561e-02 -3.140451e-02 -1.448550e-02 2.111196e-03 1.846634e-02 3.377055e-02 4.945051e-02 6.332325e-02 7.827388e-02 9.063711e-02 1.048478e-01 1.156720e-01 1.291596e-01 1.384492e-01 1.512414e-01 1.590201e-01 1.711407e-01 1.774389e-01 1.888954e-01 1.937411e-01 2.045177e-01 2.079312e-01 2.179855e-01 2.199786e-01 2.292440e-01 2.298237e-01 2.382160e-01 2.373907e-01 2.448186e-01 2.426085e-01 2.489865e-01 2.454342e-01 2.506969e-01 2.458796e-01 2.499946e-01 2.440343e-01 2.470136e-01 2.400834e-01 2.419895e-01 2.343160e-01 2.352611e-01 2.271189e-01 2.272570e-01 2.189547e-01 2.184649e-01 2.103233e-01 2.093854e-01 2.017076e-01 2.004728e-01 1.935104e-01 1.920709e-01 1.859897e-01 1.843514e-01 1.792020e-01 1.772668e-01 1.729659e-01 1.705274e-01 1.668553e-01 1.636111e-01 1.602271e-01 1.558087e-01 1.522861e-01 1.463036e-01 1.421807e-01 1.342759e-01 1.291165e-01 1.190178e-01 1.124708e-01 1.000376e-01 9.188570e-02 7.713613e-02 6.732298e-02 5.043731e-02 3.906898e-02 2.036972e-02 7.691693e-03 -1.239465e-02 -2.603761e-02 -4.702783e-02 -6.123863e-02 -8.263899e-02 -9.701171e-02 -1.183550e-01 -1.325080e-01 -1.533775e-01 -1.669730e-01 -1.870119e-01 -1.997625e-01 -2.186731e-01 -2.303380e-01 -2.478717e-01 -2.582472e-01 