# vtk DataFile Version 2.0
Comment goes here
ASCII

DATASET STRUCTURED_POINTS
FIELD FieldData 1
TIME 1 1 double
0.10500000
DIMENSIONS    128   128   1

ORIGIN    0.000   0.000   0.000
SPACING   0.039062 0.039062   1.000

POINT_DATA   16384
SCALARS uY double
LOOKUP_TABLE default

1.048175e-14 1.417312e-14 1.116612e-14 1.522857e-14 1.215919e-14 1.710534e-14 1.414266e-14 1.961284e-14 1.635747e-14 2.225038e-14 1.894287e-14 2.472209e-14 2.053622e-14 2.694415e-14 2.273705e-14 2.879429e-14 2.396921e-14 2.930525e-14 2.449692e-14 3.013811e-14 2.486065e-14 3.066147e-14 2.603640e-14 3.187706e-14 2.805927e-14 3.391820e-14 3.040531e-14 3.592180e-14 3.335069e-14 3.981734e-14 3.851725e-14 4.446025e-14 4.368333e-14 4.850229e-14 4.907297e-14 5.409466e-14 5.446073e-14 5.899200e-14 6.036915e-14 6.471425e-14 6.878753e-14 7.229245e-14 7.840572e-14 8.233596e-14 8.824626e-14 9.065379e-14 9.761982e-14 9.953690e-14 1.052240e-13 1.061310e-13 1.119425e-13 1.132135e-13 1.201293e-13 1.203694e-13 1.275225e-13 1.261425e-13 1.342336e-13 1.320374e-13 1.397149e-13 1.386463e-13 1.439870e-13 1.420844e-13 1.445045e-13 1.419260e-13 1.473115e-13 1.423822e-13 1.447582e-13 1.403055e-13 1.431946e-13 1.385283e-13 1.407106e-13 1.359361e-13 1.374747e-13 1.320001e-13 1.323842e-13 1.262864e-13 1.263724e-13 1.221055e-13 1.232375e-13 1.193653e-13 1.188176e-13 1.136835e-13 1.097733e-13 1.057164e-13 1.043476e-13 1.002327e-13 9.879218e-14 9.452961e-14 9.368414e-14 8.991892e-14 8.563978e-14 8.207827e-14 8.047633e-14 7.643313e-14 7.105585e-14 7.037282e-14 6.775520e-14 6.362192e-14 6.143150e-14 5.436047e-14 5.057977e-14 5.030719e-14 4.457557e-14 4.211595e-14 4.039537e-14 3.732511e-14 3.553159e-14 3.342191e-14 2.733399e-14 2.644757e-14 2.410100e-14 2.398518e-14 2.251015e-14 2.223732e-14 2.017671e-14 1.922866e-14 1.487364e-14 1.538717e-14 1.220455e-14 1.328244e-14 9.748146e-15 1.155438e-14 8.308816e-15 1.080557e-14 8.374844e-15 1.169357e-14 9.646188e-15 1.340154e-14 
-5.603343e-02 -5.609420e-02 -5.591318e-02 -5.568165e-02 -5.520602e-02 -5.471164e-02 -5.397206e-02 -5.324437e-02 -5.227098e-02 -5.133876e-02 -5.016052e-02 -4.905128e-02 -4.769573e-02 -4.643545e-02 -4.492856e-02 -4.354157e-02 -4.190785e-02 -4.041685e-02 -3.867939e-02 -3.710544e-02 -3.528605e-02 -3.364854e-02 -3.176770e-02 -3.008426e-02 -2.816101e-02 -2.644729e-02 -2.449903e-02 -2.276846e-02 -2.081061e-02 -1.907414e-02 -1.711977e-02 -1.538557e-02 -1.344508e-02 -1.171844e-02 -9.799283e-03 -8.082492e-03 -6.189055e-03 -4.481621e-03 -2.615261e-03 -9.142072e-04 9.264706e-04 2.626056e-03 4.444717e-03 6.148961e-03 7.950845e-03 9.666226e-03 1.145728e-02 1.318967e-02 1.497556e-02 1.672921e-02 1.851426e-02 2.029088e-02 2.207705e-02 2.387493e-02 2.566086e-02 2.747417e-02 2.925439e-02 3.107269e-02 3.283707e-02 3.464506e-02 3.637843e-02 3.815593e-02 3.983811e-02 4.156028e-02 4.316623e-02 4.480408e-02 4.630438e-02 4.782536e-02 4.918693e-02 5.055578e-02 5.174273e-02 5.292239e-02 5.389702e-02 5.484967e-02 5.557359e-02 5.626174e-02 5.669712e-02 5.708477e-02 5.719560e-02 5.724950e-02 5.700306e-02 5.669401e-02 5.606236e-02 5.536668e-02 5.432829e-02 5.322930e-02 5.177077e-02 5.026038e-02 4.837812e-02 4.645833e-02 4.416016e-02 4.184434e-02 3.915075e-02 3.646466e-02 3.340959e-02 3.039175e-02 2.702265e-02 2.372405e-02 2.010107e-02 1.658398e-02 1.277821e-02 9.114107e-03 5.204921e-03 1.471643e-03 -2.456817e-03 -6.178552e-03 -1.004129e-02 -1.367169e-02 -1.738696e-02 -2.085092e-02 -2.434405e-02 -2.757452e-02 -3.078112e-02 -3.372178e-02 -3.659005e-02 -3.919711e-02 -4.168914e-02 -4.393212e-02 -4.602411e-02 -4.788567e-02 -4.956720e-02 -5.104223e-02 -5.231484e-02 -5.340885e-02 -5.428405e-02 -5.501127e-02 -5.550834e-02 -5.588962e-02 
-1.121577e-01 -1.122768e-01 -1.119138e-01 -1.114481e-01 -1.104957e-01 -1.095044e-01 -1.080241e-01 -1.065665e-01 -1.046189e-01 -1.027527e-01 -1.003958e-01 -9.817610e-02 -9.546486e-02 -9.294368e-02 -8.992999e-02 -8.715596e-02 -8.388864e-02 -8.090713e-02 -7.743220e-02 -7.428528e-02 -7.064615e-02 -6.737256e-02 -6.361005e-02 -6.024499e-02 -5.639710e-02 -5.297186e-02 -4.907333e-02 -4.561478e-02 -4.169647e-02 -3.822651e-02 -3.431465e-02 -3.084969e-02 -2.696520e-02 -2.351579e-02 -1.967373e-02 -1.624453e-02 -1.245379e-02 -9.043810e-03 -5.307235e-03 -1.910498e-03 1.774629e-03 5.168003e-03 8.808999e-03 1.221136e-02 1.581876e-02 1.924320e-02 2.282901e-02 2.628744e-02 2.986317e-02 3.336432e-02 3.693882e-02 4.048634e-02 4.406373e-02 4.765445e-02 5.123223e-02 5.485472e-02 5.842216e-02 6.205578e-02 6.559273e-02 6.920707e-02 7.268334e-02 7.623821e-02 7.961342e-02 8.305929e-02 8.628334e-02 8.956227e-02 9.257625e-02 9.562319e-02 9.836077e-02 1.011052e-01 1.034944e-01 1.058621e-01 1.078272e-01 1.097424e-01 1.112064e-01 1.125941e-01 1.134809e-01 1.142687e-01 1.145059e-01 1.146271e-01 1.141488e-01 1.135447e-01 1.122943e-01 1.109171e-01 1.088511e-01 1.066669e-01 1.037578e-01 1.007498e-01 9.698983e-02 9.316152e-02 8.856573e-02 8.394324e-02 7.855220e-02 7.318651e-02 6.706787e-02 6.103566e-02 5.428434e-02 4.768735e-02 4.042398e-02 3.338678e-02 2.575416e-02 1.841999e-02 1.057773e-02 3.102767e-03 -4.779754e-03 -1.223339e-02 -1.998499e-02 -2.725692e-02 -3.471294e-02 -4.165211e-02 -4.866213e-02 -5.513369e-02 -6.156806e-02 -6.745876e-02 -7.321330e-02 -7.843509e-02 -8.343368e-02 -8.792534e-02 -9.212037e-02 -9.584720e-02 -9.921806e-02 -1.021699e-01 -1.047201e-01 -1.069084e-01 -1.086614e-01 -1.101148e-01 -1.111098e-01 -1.118704e-01 
-1.687457e-01 -1.688998e-01 -1.683265e-01 -1.676024e-01 -1.661449e-01 -1.646322e-01 -1.623833e-01 -1.601715e-01 -1.572223e-01 -1.543981e-01 -1.508359e-01 -1.474822e-01 -1.433896e-01 -1.395843e-01 -1.350392e-01 -1.308555e-01 -1.259313e-01 -1.214372e-01 -1.162031e-01 -1.114618e-01 -1.059832e-01 -1.010530e-01 -9.539144e-02 -9.032544e-02 -8.453833e-02 -7.938371e-02 -7.352354e-02 -6.832089e-02 -6.243426e-02 -5.721665e-02 -5.134313e-02 -4.613528e-02 -4.030634e-02 -3.512409e-02 -2.936222e-02 -2.421236e-02 -1.853065e-02 -1.341133e-02 -7.813603e-03 -2.715354e-03 2.803055e-03 7.895683e-03 1.334646e-02 1.845272e-02 2.385246e-02 2.899273e-02 3.436026e-02 3.955315e-02 4.490650e-02 5.016575e-02 5.551895e-02 6.085052e-02 6.621039e-02 7.160984e-02 7.697308e-02 8.242343e-02 8.777422e-02 9.324442e-02 9.855266e-02 1.039968e-01 1.092171e-01 1.145744e-01 1.196460e-01 1.248415e-01 1.296887e-01 1.346348e-01 1.391688e-01 1.437670e-01 1.478876e-01 1.520312e-01 1.556297e-01 1.592066e-01 1.621688e-01 1.650643e-01 1.672739e-01 1.693743e-01 1.707164e-01 1.719126e-01 1.722779e-01 1.724687e-01 1.717574e-01 1.708539e-01 1.689804e-01 1.669100e-01 1.638083e-01 1.605194e-01 1.561473e-01 1.516142e-01 1.459596e-01 1.401868e-01 1.332718e-01 1.262986e-01 1.181838e-01 1.100870e-01 1.008743e-01 9.176989e-02 8.160238e-02 7.164437e-02 6.070428e-02 5.008155e-02 3.858487e-02 2.751475e-02 1.570301e-02 4.422483e-03 -7.447898e-03 -1.869289e-02 -3.036285e-02 -4.132916e-02 -5.254963e-02 -6.300858e-02 -7.355233e-02 -8.330008e-02 -9.297161e-02 -1.018374e-01 -1.104801e-01 -1.183318e-01 -1.258317e-01 -1.325780e-01 -1.388643e-01 -1.444541e-01 -1.494972e-01 -1.539168e-01 -1.577230e-01 -1.609909e-01 -1.635971e-01 -1.657580e-01 -1.672243e-01 -1.683427e-01 
-2.256074e-01 -2.257887e-01 -2.250019e-01 -2.240112e-01 -2.220447e-01 -2.200028e-01 -2.169819e-01 -2.140089e-01 -2.100557e-01 -2.062682e-01 -2.014993e-01 -1.970079e-01 -1.915336e-01 -1.864426e-01 -1.803664e-01 -1.747729e-01 -1.681923e-01 -1.621872e-01 -1.551940e-01 -1.488613e-01 -1.415423e-01 -1.349599e-01 -1.273969e-01 -1.206355e-01 -1.129050e-01 -1.060276e-01 -9.819973e-02 -9.126074e-02 -8.339787e-02 -7.644156e-02 -6.859690e-02 -6.165642e-02 -5.387234e-02 -4.696890e-02 -3.927581e-02 -3.241842e-02 -2.483404e-02 -1.802005e-02 -1.054954e-02 -3.765949e-03 3.597066e-03 1.037146e-02 1.764300e-02 2.443463e-02 3.163748e-02 3.847445e-02 4.563464e-02 5.254275e-02 5.968537e-02 6.668403e-02 7.382889e-02 8.092710e-02 8.808437e-02 9.527719e-02 1.024435e-01 1.097091e-01 1.168640e-01 1.241617e-01 1.312657e-01 1.385346e-01 1.455274e-01 1.526867e-01 1.594872e-01 1.664368e-01 1.729438e-01 1.795667e-01 1.856610e-01 1.918254e-01 1.973726e-01 2.029356e-01 2.077896e-01 2.126007e-01 2.166080e-01 2.205137e-01 2.235177e-01 2.263652e-01 2.282112e-01 2.298536e-01 2.303940e-01 2.306951e-01 2.297949e-01 2.286344e-01 2.261774e-01 2.234567e-01 2.193521e-01 2.150004e-01 2.091900e-01 2.031707e-01 1.956356e-01 1.879528e-01 1.787206e-01 1.694247e-01 1.585749e-01 1.477669e-01 1.354346e-01 1.232685e-01 1.096451e-01 9.632670e-02 8.165704e-02 6.743948e-02 5.201458e-02 3.719011e-02 2.133615e-02 6.224146e-03 -9.712092e-03 -2.477974e-02 -4.044762e-02 -5.514253e-02 -7.020494e-02 -8.421821e-02 -9.836782e-02 -1.114243e-01 -1.243971e-01 -1.362666e-01 -1.478517e-01 -1.583566e-01 -1.684013e-01 -1.774194e-01 -1.858300e-01 -1.932938e-01 -2.000320e-01 -2.059245e-01 -2.110012e-01 -2.153490e-01 -2.188157e-01 -2.216805e-01 -2.236201e-01 -2.250901e-01 
-2.833987e-01 -2.835599e-01 -2.825023e-01 -2.811961e-01 -2.786637e-01 -2.760432e-01 -2.721941e-01 -2.684111e-01 -2.633989e-01 -2.585999e-01 -2.525711e-01 -2.468948e-01 -2.399873e-01 -2.335641e-01 -2.259074e-01 -2.188589e-01 -2.105749e-01 -2.030145e-01 -1.942183e-01 -1.862514e-01 -1.770520e-01 -1.687762e-01 -1.592765e-01 -1.507807e-01 -1.410773e-01 -1.324412e-01 -1.226225e-01 -1.139147e-01 -1.040597e-01 -9.533627e-02 -8.551211e-02 -7.681479e-02 -6.707485e-02 -5.843021e-02 -4.881246e-02 -4.023137e-02 -3.075747e-02 -2.223573e-02 -1.291119e-02 -4.431205e-03 4.753370e-03 1.321980e-02 2.228622e-02 3.077410e-02 3.975296e-02 4.829953e-02 5.722558e-02 6.586520e-02 7.477206e-02 8.353091e-02 9.244546e-02 1.013364e-01 1.102732e-01 1.192912e-01 1.282475e-01 1.373659e-01 1.463173e-01 1.554853e-01 1.643827e-01 1.735237e-01 1.822917e-01 1.913037e-01 1.998402e-01 2.085968e-01 2.167741e-01 2.251269e-01 2.327946e-01 2.405768e-01 2.475651e-01 2.545957e-01 2.607200e-01 2.668085e-01 2.718748e-01 2.768267e-01 2.806368e-01 2.842587e-01 2.866170e-01 2.887228e-01 2.894422e-01 2.898589e-01 2.887681e-01 2.873426e-01 2.842937e-01 2.809001e-01 2.757768e-01 2.703238e-01 2.630505e-01 2.554900e-01 2.460407e-01 2.363758e-01 2.247830e-01 2.130757e-01 1.994378e-01 1.858146e-01 1.703009e-01 1.549559e-01 1.378076e-01 1.210015e-01 1.025281e-01 8.458258e-02 6.515335e-02 4.644031e-02 2.646954e-02 7.395888e-03 -1.267550e-02 -3.168687e-02 -5.141309e-02 -6.994405e-02 -8.889687e-02 -1.065547e-01 -1.243445e-01 -1.407803e-01 -1.570733e-01 -1.719966e-01 -1.865275e-01 -1.997153e-01 -2.122935e-01 -2.235942e-01 -2.341045e-01 -2.434365e-01 -2.518344e-01 -2.591801e-01 -2.654833e-01 -2.708802e-01 -2.751574e-01 -2.786873e-01 -2.810461e-01 -2.828235e-01 
-3.416500e-01 -3.417771e-01 -3.404418e-01 -3.388054e-01 -3.356996e-01 -3.324867e-01 -3.278030e-01 -3.231982e-01 -3.171226e-01 -3.113030e-01 -3.040120e-01 -2.971447e-01 -2.888039e-01 -2.810455e-01 -2.718095e-01 -2.633059e-01 -2.533201e-01 -2.442071e-01 -2.336089e-01 -2.240128e-01 -2.129322e-01 -2.029701e-01 -1.915303e-01 -1.813093e-01 -1.696262e-01 -1.592423e-01 -1.474227e-01 -1.369589e-01 -1.250983e-01 -1.146225e-01 -1.028026e-01 -9.236547e-02 -8.065134e-02 -7.028486e-02 -5.872290e-02 -4.844000e-02 -3.705666e-02 -2.685170e-02 -1.565349e-02 -5.504228e-03 5.520831e-03 1.564983e-02 2.652925e-02 3.668205e-02 4.745449e-02 5.767817e-02 6.838774e-02 7.872613e-02 8.941590e-02 9.990303e-02 1.106081e-01 1.212619e-01 1.320024e-01 1.428191e-01 1.535941e-01 1.645436e-01 1.753256e-01 1.863479e-01 1.970793e-01 2.080835e-01 2.186740e-01 2.295375e-01 2.398643e-01 2.504350e-01 2.603440e-01 2.704426e-01 2.797515e-01 2.891764e-01 2.976791e-01 3.062111e-01 3.136835e-01 3.210918e-01 3.272979e-01 3.333464e-01 3.380453e-01 3.424994e-01 3.454523e-01 3.480855e-01 3.490640e-01 3.496653e-01 3.484593e-01 3.468410e-01 3.432680e-01 3.392747e-01 3.331898e-01 3.267072e-01 3.180140e-01 3.089794e-01 2.976415e-01 2.860539e-01 2.721056e-01 2.580353e-01 2.415914e-01 2.251874e-01 2.064498e-01 1.879442e-01 1.672038e-01 1.469109e-01 1.245437e-01 1.028537e-01 7.931019e-02 5.667619e-02 3.246364e-02 9.382773e-03 -1.495786e-02 -3.796789e-02 -6.188914e-02 -8.431601e-02 -1.072921e-01 -1.286547e-01 -1.502077e-01 -1.700794e-01 -1.898014e-01 -2.078277e-01 -2.253958e-01 -2.413061e-01 -2.564905e-01 -2.701026e-01 -2.827667e-01 -2.939847e-01 -3.040792e-01 -3.128859e-01 -3.204374e-01 -3.268829e-01 -3.319806e-01 -3.361684e-01 -3.389479e-01 -3.410210e-01 
-4.013009e-01 -4.013206e-01 -3.996206e-01 -3.975791e-01 -3.938135e-01 -3.899335e-01 -3.843303e-01 -3.788298e-01 -3.716083e-01 -3.646955e-01 -3.560622e-01 -3.479330e-01 -3.380811e-01 -3.289181e-01 -3.180281e-01 -3.080012e-01 -2.962426e-01 -2.855102e-01 -2.730432e-01 -2.617531e-01 -2.487301e-01 -2.370193e-01 -2.235853e-01 -2.115801e-01 -1.978718e-01 -1.856856e-01 -1.718295e-01 -1.595606e-01 -1.456700e-01 -1.333989e-01 -1.195706e-01 -1.073573e-01 -9.366833e-02 -8.155047e-02 -6.805500e-02 -5.604691e-02 -4.277515e-02 -3.086859e-02 -1.782643e-02 -5.992905e-03 6.836238e-03 1.864145e-02 3.129314e-02 4.312541e-02 5.564881e-02 6.756733e-02 8.001839e-02 9.207857e-02 1.045121e-01 1.167577e-01 1.292190e-01 1.416743e-01 1.541908e-01 1.668539e-01 1.794276e-01 1.922649e-01 2.048658e-01 2.178080e-01 2.303699e-01 2.433099e-01 2.557275e-01 2.685207e-01 2.806494e-01 2.931154e-01 3.047733e-01 3.166996e-01 3.276708e-01 3.388180e-01 3.488585e-01 3.589665e-01 3.678107e-01 3.766056e-01 3.839738e-01 3.911754e-01 3.967818e-01 4.021113e-01 4.056728e-01 4.088611e-01 4.101059e-01 4.109014e-01 4.095791e-01 4.077576e-01 4.036495e-01 3.990237e-01 3.919545e-01 3.843854e-01 3.742367e-01 3.636456e-01 3.503689e-01 3.367500e-01 3.203809e-01 3.038130e-01 2.844826e-01 2.651390e-01 2.430829e-01 2.212368e-01 1.967977e-01 1.728221e-01 1.464461e-01 1.208061e-01 9.302969e-02 6.626706e-02 3.769624e-02 1.040667e-02 -1.831156e-02 -4.550740e-02 -7.371806e-02 -1.002064e-01 -1.272811e-01 -1.524869e-01 -1.778561e-01 -2.012708e-01 -2.244504e-01 -2.456543e-01 -2.662638e-01 -2.849394e-01 -3.027110e-01 -3.186479e-01 -3.334265e-01 -3.465184e-01 -3.582533e-01 -3.684877e-01 -3.772188e-01 -3.846632e-01 -3.905034e-01 -3.952879e-01 -3.984044e-01 -4.007044e-01 
-4.616033e-01 -4.614934e-01 -4.594160e-01 -4.569467e-01 -4.525088e-01 -4.479406e-01 -4.414079e-01 -4.349940e-01 -4.266198e-01 -4.186006e-01 -4.086222e-01 -3.992223e-01 -3.878601e-01 -3.772884e-01 -3.647474e-01 -3.531976e-01 -3.396697e-01 -3.273223e-01 -3.129891e-01 -3.000125e-01 -2.850470e-01 -2.715980e-01 -2.561657e-01 -2.423892e-01 -2.266466e-01 -2.126733e-01 -1.967664e-01 -1.827101e-01 -1.667701e-01 -1.527241e-01 -1.368638e-01 -1.228979e-01 -1.072072e-01 -9.336488e-02 -7.790742e-02 -6.420470e-02 -4.901567e-02 -3.544197e-02 -2.052780e-02 -7.048325e-03 7.611517e-03 2.105105e-02 3.549998e-02 4.896688e-02 6.326499e-02 7.683158e-02 9.104761e-02 1.047822e-01 1.189842e-01 1.329418e-01 1.471869e-01 1.614000e-01 1.757248e-01 1.901954e-01 2.046065e-01 2.192995e-01 2.337661e-01 2.486043e-01 2.630528e-01 2.779148e-01 2.922256e-01 3.069458e-01 3.209529e-01 3.353236e-01 3.488168e-01 3.625929e-01 3.753223e-01 3.882268e-01 3.999092e-01 4.116409e-01 4.219676e-01 4.322091e-01 4.408550e-01 4.492811e-01 4.559134e-01 4.622006e-01 4.664890e-01 4.703238e-01 4.719506e-01 4.730394e-01 4.717102e-01 4.697896e-01 4.652455e-01 4.600935e-01 4.521246e-01 4.435737e-01 4.320343e-01 4.199853e-01 4.048100e-01 3.892475e-01 3.704679e-01 3.514744e-01 3.292342e-01 3.070025e-01 2.815682e-01 2.564091e-01 2.281752e-01 2.005181e-01 1.700025e-01 1.403874e-01 1.082176e-01 7.727715e-02 4.416489e-02 1.259755e-02 -2.069501e-02 -5.215974e-02 -8.486013e-02 -1.155001e-01 -1.468675e-01 -1.760065e-01 -2.053707e-01 -2.324122e-01 -2.592060e-01 -2.836598e-01 -3.074406e-01 -3.289387e-01 -3.493991e-01 -3.677013e-01 -3.846681e-01 -3.996576e-01 -4.130812e-01 -4.247523e-01 -4.346895e-01 -4.431292e-01 -4.497217e-01 -4.550899e-01 -4.585413e-01 -4.610489e-01 
-5.237801e-01 -5.234391e-01 -5.208659e-01 -5.178664e-01 -5.126395e-01 -5.072817e-01 -4.997056e-01 -4.922791e-01 -4.826416e-01 -4.734192e-01 -4.619882e-01 -4.512233e-01 -4.382466e-01 -4.261737e-01 -4.118811e-01 -3.987174e-01 -3.833239e-01 -3.692719e-01 -3.529818e-01 -3.382310e-01 -3.212396e-01 -3.059678e-01 -2.884628e-01 -2.728346e-01 -2.549951e-01 -2.391604e-01 -2.211536e-01 -2.052430e-01 -1.872201e-01 -1.713413e-01 -1.534319e-01 -1.376651e-01 -1.199726e-01 -1.043672e-01 -8.696363e-02 -7.153683e-02 -5.446101e-02 -3.919815e-02 -2.245469e-02 -7.312338e-03 9.126133e-03 2.421478e-02 4.040287e-02 5.552033e-02 7.153259e-02 8.676764e-02 1.026891e-01 1.181261e-01 1.340412e-01 1.497490e-01 1.657298e-01 1.817512e-01 1.978454e-01 2.141872e-01 2.304080e-01 2.470334e-01 2.633500e-01 2.801733e-01 2.965048e-01 3.133884e-01 3.296000e-01 3.463547e-01 3.622576e-01 3.786455e-01 3.939994e-01 4.097387e-01 4.242573e-01 4.390297e-01 4.523880e-01 4.658472e-01 4.776911e-01 4.894724e-01 4.994284e-01 5.091583e-01 5.168443e-01 5.241506e-01 5.291870e-01 5.337089e-01 5.357297e-01 5.371282e-01 5.357931e-01 5.337627e-01 5.287703e-01 5.230512e-01 5.141547e-01 5.045481e-01 4.915721e-01 4.779562e-01 4.608164e-01 4.431647e-01 4.218876e-01 4.002862e-01 3.750272e-01 3.496905e-01 3.207485e-01 2.920289e-01 2.598525e-01 2.282427e-01 1.934271e-01 1.595511e-01 1.228213e-01 8.741374e-02 4.959562e-02 1.346967e-02 -2.455043e-02 -6.054448e-02 -9.786784e-02 -1.328889e-01 -1.686548e-01 -2.019170e-01 -2.353495e-01 -2.661632e-01 -2.966094e-01 -3.244119e-01 -3.513672e-01 -3.757414e-01 -3.988611e-01 -4.195410e-01 -4.386382e-01 -4.555024e-01 -4.705341e-01 -4.835901e-01 -4.946359e-01 -5.039978e-01 -5.112335e-01 -5.170973e-01 -5.207679e-01 -5.233862e-01 
-5.868063e-01 -5.862011e-01 -5.831104e-01 -5.795478e-01 -5.735118e-01 -5.673349e-01 -5.586999e-01 -5.502364e-01 -5.393265e-01 -5.288828e-01 -5.159966e-01 -5.038553e-01 -4.892668e-01 -4.756879e-01 -4.596500e-01 -4.448735e-01 -4.276220e-01 -4.118716e-01 -3.936306e-01 -3.771162e-01 -3.581009e-01 -3.410201e-01 -3.214386e-01 -3.039758e-01 -2.840281e-01 -2.663515e-01 -2.462260e-01 -2.284837e-01 -2.083516e-01 -1.906658e-01 -1.706751e-01 -1.531371e-01 -1.334060e-01 -1.160717e-01 -9.668332e-02 -7.957149e-02 -6.057002e-02 -4.366240e-02 -2.505243e-02 -8.297046e-03 9.954535e-03 2.663731e-02 4.459600e-02 6.130470e-02 7.906007e-02 9.590123e-02 1.135560e-01 1.306318e-01 1.482888e-01 1.656843e-01 1.834330e-01 2.012034e-01 2.191057e-01 2.372655e-01 2.553432e-01 2.738567e-01 2.920814e-01 3.108566e-01 3.291417e-01 3.480270e-01 3.662239e-01 3.850083e-01 4.029056e-01 4.213218e-01 4.386488e-01 4.563793e-01 4.728122e-01 4.894976e-01 5.046682e-01 5.199171e-01 5.334235e-01 5.468230e-01 5.582413e-01 5.693688e-01 5.782648e-01 5.866983e-01 5.926400e-01 5.979697e-01 6.005391e-01 6.023787e-01 6.011852e-01 5.991840e-01 5.938787e-01 5.877355e-01 5.780284e-01 5.675081e-01 5.531875e-01 5.381397e-01 5.190951e-01 4.994752e-01 4.757204e-01 4.516112e-01 4.233075e-01 3.949377e-01 3.624119e-01 3.301704e-01 2.939243e-01 2.583635e-01 2.190717e-01 1.808991e-01 1.393909e-01 9.944598e-02 5.667155e-02 1.588843e-02 -2.712865e-02 -6.777021e-02 -1.099905e-01 -1.495201e-01 -1.899486e-01 -2.274607e-01 -2.652029e-01 -2.999050e-01 -3.342127e-01 -3.654624e-01 -3.957628e-01 -4.230893e-01 -4.489985e-01 -4.721080e-01 -4.934265e-01 -5.121937e-01 -5.288893e-01 -5.433375e-01 -5.555185e-01 -5.657929e-01 -5.736763e-01 -5.800137e-01 -5.838929e-01 -5.865920e-01 
-6.521862e-01 -6.511838e-01 -6.474238e-01 -6.431660e-01 -6.361731e-01 -6.290480e-01 -6.192109e-01 -6.095856e-01 -5.972643e-01 -5.854785e-01 -5.710024e-01 -5.573671e-01 -5.410360e-01 -5.258357e-01 -5.079254e-01 -4.914222e-01 -4.721902e-01 -4.546287e-01 -4.343202e-01 -4.159311e-01 -3.947837e-01 -3.757857e-01 -3.540310e-01 -3.346301e-01 -3.124923e-01 -2.928781e-01 -2.705695e-01 -2.509097e-01 -2.286246e-01 -2.090580e-01 -1.869643e-01 -1.675945e-01 -1.458259e-01 -1.267160e-01 -1.053653e-01 -8.653451e-02 -6.564962e-02 -4.707394e-02 -2.665610e-02 -8.271750e-03 1.172188e-02 3.001145e-02 4.966181e-02 6.797572e-02 8.739218e-02 1.058594e-01 1.251671e-01 1.439120e-01 1.632367e-01 1.823642e-01 2.018165e-01 2.213971e-01 2.410559e-01 2.611130e-01 2.810116e-01 3.015107e-01 3.216238e-01 3.424656e-01 3.627010e-01 3.837173e-01 4.039114e-01 4.248658e-01 4.447829e-01 4.653744e-01 4.847106e-01 5.045812e-01 5.229718e-01 5.417157e-01 5.587459e-01 5.759213e-01 5.911382e-01 6.062794e-01 6.192051e-01 6.318354e-01 6.419807e-01 6.516243e-01 6.585018e-01 6.646959e-01 6.678332e-01 6.701400e-01 6.690934e-01 6.671133e-01 6.614837e-01 6.548700e-01 6.443212e-01 6.327985e-01 6.170794e-01 6.004652e-01 5.794356e-01 5.576650e-01 5.313239e-01 5.044749e-01 4.729880e-01 4.413060e-01 4.050286e-01 3.689435e-01 3.284342e-01 2.885668e-01 2.445859e-01 2.017399e-01 1.552302e-01 1.103650e-01 6.241300e-02 1.660063e-02 -3.162010e-02 -7.725344e-02 -1.245501e-01 -1.688897e-01 -2.141224e-01 -2.561312e-01 -2.982795e-01 -3.370553e-01 -3.752721e-01 -4.100907e-01 -4.437359e-01 -4.740752e-01 -5.027295e-01 -5.282741e-01 -5.517323e-01 -5.723617e-01 -5.906103e-01 -6.063738e-01 -6.195581e-01 -6.306417e-01 -6.390278e-01 -6.457183e-01 -6.496544e-01 -6.523047e-01 
-7.186194e-01 -7.171720e-01 -7.127077e-01 -7.077087e-01 -6.997285e-01 -6.916149e-01 -6.805535e-01 -6.697340e-01 -6.559896e-01 -6.428386e-01 -6.267706e-01 -6.116276e-01 -5.935605e-01 -5.767339e-01 -5.569633e-01 -5.387362e-01 -5.175375e-01 -4.981740e-01 -4.758100e-01 -4.555602e-01 -4.322871e-01 -4.113899e-01 -3.874596e-01 -3.661418e-01 -3.418009e-01 -3.202730e-01 -2.957576e-01 -2.742072e-01 -2.497349e-01 -2.283182e-01 -2.040787e-01 -1.829126e-01 -1.590579e-01 -1.382130e-01 -1.148490e-01 -9.434644e-02 -7.152754e-02 -5.133806e-02 -2.906490e-02 -9.113250e-03 1.266508e-02 3.249260e-02 5.387196e-02 7.371597e-02 9.482634e-02 1.148399e-01 1.358307e-01 1.561628e-01 1.771857e-01 1.979638e-01 2.191541e-01 2.404674e-01 2.619251e-01 2.838095e-01 3.055822e-01 3.280081e-01 3.500772e-01 3.729409e-01 3.952110e-01 4.183306e-01 4.406245e-01 4.637403e-01 4.857983e-01 5.085774e-01 5.300618e-01 5.521063e-01 5.726105e-01 5.934684e-01 6.125288e-01 6.317076e-01 6.488175e-01 6.657980e-01 6.804227e-01 6.946731e-01 7.062652e-01 7.172544e-01 7.252674e-01 7.324781e-01 7.363809e-01 7.393216e-01 7.386127e-01 7.368315e-01 7.310552e-01 7.241556e-01 7.129218e-01 7.005822e-01 6.835910e-01 6.655888e-01 6.426605e-01 6.189009e-01 5.900091e-01 5.605556e-01 5.258609e-01 4.909651e-01 4.508449e-01 4.109693e-01 3.660357e-01 3.218644e-01 2.729664e-01 2.253976e-01 1.736000e-01 1.237171e-01 7.025658e-02 1.927812e-02 -3.450305e-02 -8.529183e-02 -1.380268e-01 -1.873521e-01 -2.377357e-01 -2.844138e-01 -3.312819e-01 -3.742876e-01 -4.166809e-01 -4.551981e-01 -4.924015e-01 -5.258507e-01 -5.574074e-01 -5.854499e-01 -6.111517e-01 -6.336736e-01 -6.535324e-01 -6.706130e-01 -6.848202e-01 -6.966926e-01 -7.055733e-01 -7.125811e-01 -7.165484e-01 -7.191050e-01 
-7.878871e-01 -7.858259e-01 -7.804707e-01 -7.745661e-01 -7.654187e-01 -7.561590e-01 -7.437006e-01 -7.315366e-01 -7.162024e-01 -7.015420e-01 -6.837207e-01 -6.669303e-01 -6.469694e-01 -6.283793e-01 -6.065941e-01 -5.865066e-01 -5.631909e-01 -5.418889e-01 -5.173248e-01 -4.950784e-01 -4.695438e-01 -4.466136e-01 -4.203852e-01 -3.970218e-01 -3.703733e-01 -3.468119e-01 -3.200075e-01 -2.964594e-01 -2.697442e-01 -2.463863e-01 -2.199743e-01 -1.969388e-01 -1.710009e-01 -1.483671e-01 -1.230212e-01 -1.008105e-01 -7.611473e-02 -5.429010e-02 -3.024016e-02 -8.710372e-03 1.475807e-02 3.612948e-02 5.913329e-02 8.051473e-02 1.032108e-01 1.247858e-01 1.473542e-01 1.693023e-01 1.919264e-01 2.144028e-01 2.372476e-01 2.603639e-01 2.835542e-01 3.073610e-01 3.309621e-01 3.554344e-01 3.794356e-01 4.044639e-01 4.287667e-01 4.541521e-01 4.785640e-01 5.040189e-01 5.282536e-01 5.534071e-01 5.770897e-01 6.014975e-01 6.241748e-01 6.473321e-01 6.684870e-01 6.898442e-01 7.089117e-01 7.278897e-01 7.442743e-01 7.602806e-01 7.733727e-01 7.858161e-01 7.950072e-01 8.033109e-01 8.080082e-01 8.116226e-01 8.112638e-01 8.096801e-01 8.037495e-01 7.965161e-01 7.845659e-01 7.713095e-01 7.529870e-01 7.334396e-01 7.085207e-01 6.825530e-01 6.509815e-01 6.186402e-01 5.805689e-01 5.421126e-01 4.979403e-01 4.538695e-01 4.042657e-01 3.553384e-01 3.012484e-01 2.484736e-01 1.910970e-01 1.357030e-01 7.644295e-02 1.981829e-02 -3.979591e-02 -9.618319e-02 -1.545927e-01 -2.092885e-01 -2.650075e-01 -3.166656e-01 -3.683763e-01 -4.158392e-01 -4.624656e-01 -5.048233e-01 -5.455769e-01 -5.821972e-01 -6.165905e-01 -6.471209e-01 -6.749529e-01 -6.992987e-01 -7.206183e-01 -7.389036e-01 -7.539599e-01 -7.664785e-01 -7.756662e-01 -7.828309e-01 -7.866367e-01 -7.889314e-01 
-8.584162e-01 -8.556739e-01 -8.493733e-01 -8.425006e-01 -8.321413e-01 -8.216821e-01 -8.077962e-01 -7.942461e-01 -7.773077e-01 -7.611095e-01 -7.415356e-01 -7.230823e-01 -7.012409e-01 -6.808833e-01 -6.571049e-01 -6.351628e-01 -6.097543e-01 -5.865272e-01 -5.597845e-01 -5.355601e-01 -5.077775e-01 -4.828370e-01 -4.543115e-01 -4.289281e-01 -3.999579e-01 -3.743911e-01 -3.452682e-01 -3.197534e-01 -2.907512e-01 -2.654869e-01 -2.368464e-01 -2.119816e-01 -1.838969e-01 -1.595208e-01 -1.321264e-01 -1.082622e-01 -8.162468e-02 -5.822874e-02 -3.234263e-02 -9.308453e-03 1.590144e-02 3.873311e-02 6.340386e-02 8.623019e-02 1.105467e-01 1.335837e-01 1.577594e-01 1.812201e-01 2.054742e-01 2.295455e-01 2.540775e-01 2.788977e-01 3.038629e-01 3.295016e-01 3.549877e-01 3.814295e-01 4.074379e-01 4.345717e-01 4.610037e-01 4.886172e-01 5.152673e-01 5.430476e-01 5.696033e-01 5.971434e-01 6.231915e-01 6.500018e-01 6.750408e-01 7.005638e-01 7.240204e-01 7.476484e-01 7.688961e-01 7.899894e-01 8.083681e-01 8.262722e-01 8.411066e-01 8.551687e-01 8.657842e-01 8.753667e-01 8.811047e-01 8.855977e-01 8.858293e-01 8.846642e-01 8.788069e-01 8.714721e-01 8.590111e-01 8.450744e-01 8.255921e-01 8.047304e-01 7.779444e-01 7.499817e-01 7.157913e-01 6.807426e-01 6.392788e-01 5.973953e-01 5.490671e-01 5.008746e-01 4.464033e-01 3.927247e-01 3.331542e-01 2.751068e-01 2.117823e-01 1.507438e-01 8.525433e-02 2.279561e-02 -4.311660e-02 -1.053265e-01 -1.698812e-01 -2.301864e-01 -2.916884e-01 -3.485584e-01 -4.055109e-01 -4.576372e-01 -5.088303e-01 -5.551953e-01 -5.997574e-01 -6.396688e-01 -6.770802e-01 -7.101704e-01 -7.402429e-01 -7.664403e-01 -7.892703e-01 -8.087505e-01 -8.246584e-01 -8.377853e-01 -8.472496e-01 -8.545147e-01 -8.581092e-01 -8.600761e-01 
-9.322559e-01 -9.286234e-01 -9.211537e-01 -9.131140e-01 -9.013308e-01 -8.894855e-01 -8.739707e-01 -8.588596e-01 -8.401239e-01 -8.222223e-01 -8.007086e-01 -7.804325e-01 -7.565267e-01 -7.342441e-01 -7.082905e-01 -6.843355e-01 -6.566543e-01 -6.313413e-01 -6.022442e-01 -5.758794e-01 -5.456813e-01 -5.185681e-01 -4.875926e-01 -4.600313e-01 -4.286079e-01 -4.008880e-01 -3.693427e-01 -3.417295e-01 -3.103702e-01 -2.830888e-01 -2.521872e-01 -2.254069e-01 -1.951813e-01 -1.690025e-01 -1.396026e-01 -1.140492e-01 -8.554615e-02 -6.056392e-02 -3.294545e-02 -8.406711e-03 1.842046e-02 4.270536e-02 6.890649e-02 9.317201e-02 1.189682e-01 1.434716e-01 1.691180e-01 1.941139e-01 2.198728e-01 2.455865e-01 2.716989e-01 2.983004e-01 3.249568e-01 3.525377e-01 3.798520e-01 4.084067e-01 4.363942e-01 4.658078e-01 4.943697e-01 5.244119e-01 5.533275e-01 5.836538e-01 6.125807e-01 6.427405e-01 6.712222e-01 7.006719e-01 7.281528e-01 7.562736e-01 7.821177e-01 8.082357e-01 8.317493e-01 8.551563e-01 8.756095e-01 8.955829e-01 9.122301e-01 9.280497e-01 9.401472e-01 9.511095e-01 9.579295e-01 9.633596e-01 9.642041e-01 9.634678e-01 9.576839e-01 9.502036e-01 9.372048e-01 9.224819e-01 9.017798e-01 8.794281e-01 8.506754e-01 8.204644e-01 7.835087e-01 7.454168e-01 7.003613e-01 6.546309e-01 6.018927e-01 5.490798e-01 4.894346e-01 4.304397e-01 3.650395e-01 3.011092e-01 2.314613e-01 1.641510e-01 9.205312e-02 2.314862e-02 -4.941794e-02 -1.180133e-01 -1.890209e-01 -2.554198e-01 -3.229422e-01 -3.854079e-01 -4.477555e-01 -5.048166e-01 -5.606399e-01 -6.111701e-01 -6.595183e-01 -7.027730e-01 -7.431053e-01 -7.787169e-01 -8.108728e-01 -8.388116e-01 -8.629522e-01 -8.834657e-01 -8.999990e-01 -9.135398e-01 -9.230422e-01 -9.301970e-01 -9.333405e-01 -9.347653e-01 
-1.007564e+00 -1.002948e+00 -9.942287e-01 -9.849382e-01 -9.716678e-01 -9.583671e-01 -9.411826e-01 -9.244589e-01 -9.039093e-01 -8.842708e-01 -8.608233e-01 -8.387082e-01 -8.127622e-01 -7.885534e-01 -7.604608e-01 -7.345037e-01 -7.045901e-01 -6.772109e-01 -6.457957e-01 -6.173154e-01 -5.847266e-01 -5.554690e-01 -5.220505e-01 -4.923416e-01 -4.584507e-01 -4.286094e-01 -3.946054e-01 -3.649278e-01 -3.311546e-01 -3.018938e-01 -2.686581e-01 -2.400056e-01 -2.075558e-01 -1.796254e-01 -1.481335e-01 -1.209518e-01 -9.050014e-02 -6.400434e-02 -3.457967e-02 -8.622242e-03 1.988306e-02 4.552179e-02 7.329993e-02 9.889268e-02 1.262025e-01 1.520502e-01 1.791922e-01 2.055948e-01 2.328806e-01 2.601069e-01 2.878256e-01 3.160829e-01 3.444678e-01 3.738757e-01 4.030736e-01 4.336423e-01 4.636881e-01 4.953043e-01 5.261031e-01 5.585232e-01 5.898416e-01 6.226932e-01 6.541592e-01 6.869501e-01 7.180628e-01 7.501965e-01 7.803433e-01 8.111393e-01 8.396181e-01 8.683352e-01 8.943805e-01 9.202407e-01 9.430487e-01 9.652592e-01 9.840101e-01 1.001782e+00 1.015659e+00 1.028222e+00 1.036424e+00 1.043038e+00 1.044793e+00 1.044754e+00 1.039331e+00 1.031992e+00 1.018722e+00 1.003511e+00 9.818191e-01 9.582737e-01 9.277301e-01 8.955495e-01 8.559286e-01 8.150343e-01 7.663906e-01 7.169950e-01 6.597359e-01 6.024053e-01 5.373507e-01 4.730491e-01 4.014593e-01 3.315573e-01 2.551153e-01 1.813515e-01 1.020902e-01 2.648266e-02 -5.334102e-02 -1.286282e-01 -2.066973e-01 -2.795138e-01 -3.536297e-01 -4.220013e-01 -4.902469e-01 -5.525127e-01 -6.133756e-01 -6.682822e-01 -7.207210e-01 -7.674632e-01 -8.109165e-01 -8.491268e-01 -8.834723e-01 -9.131703e-01 -9.386502e-01 -9.601665e-01 -9.772960e-01 -9.911858e-01 -1.000659e+00 -1.007618e+00 -1.010224e+00 -1.011012e+00 