# vtk DataFile Version 2.0
Comment goes here
ASCII

DATASET STRUCTURED_POINTS
FIELD FieldData 1
TIME 1 1 double
0.11000000
DIMENSIONS    128   128   1

ORIGIN    0.000   0.000   0.000
SPACING   0.039062 0.039062   1.000

POINT_DATA   16384
SCALARS uY double
LOOKUP_TABLE default

-1.976591e-14 -1.777852e-14 -1.739104e-14 -1.579099e-14 -1.515243e-14 -1.300621e-14 -1.203309e-14 -9.950895e-15 -8.435897e-15 -5.556984e-15 -4.157768e-15 -2.040867e-15 -7.647712e-16 1.701154e-15 2.571642e-15 4.972668e-15 5.897164e-15 7.359028e-15 8.112098e-15 9.694216e-15 9.993459e-15 1.147506e-14 1.227640e-14 1.467098e-14 1.634330e-14 1.870281e-14 1.999637e-14 2.279307e-14 2.502512e-14 2.825815e-14 3.096333e-14 3.478249e-14 3.649978e-14 4.072190e-14 4.302737e-14 4.802084e-14 5.104810e-14 5.572986e-14 5.820680e-14 6.187278e-14 6.498231e-14 7.118041e-14 7.571272e-14 8.211619e-14 8.525516e-14 9.109763e-14 9.450234e-14 9.975878e-14 1.019965e-13 1.066552e-13 1.077782e-13 1.131120e-13 1.158855e-13 1.197881e-13 1.205137e-13 1.251138e-13 1.255000e-13 1.289059e-13 1.295847e-13 1.333804e-13 1.320785e-13 1.333540e-13 1.312912e-13 1.330384e-13 1.311524e-13 1.312572e-13 1.272481e-13 1.253441e-13 1.233769e-13 1.206584e-13 1.172295e-13 1.145651e-13 1.107920e-13 1.085491e-13 1.040076e-13 1.002514e-13 9.764351e-14 9.446190e-14 9.142142e-14 8.773969e-14 8.416364e-14 8.088450e-14 7.568691e-14 7.034873e-14 6.681945e-14 6.308404e-14 6.055169e-14 5.573005e-14 5.293484e-14 4.968849e-14 4.556600e-14 4.193483e-14 3.889513e-14 3.499244e-14 3.329771e-14 2.859294e-14 2.688138e-14 2.357236e-14 2.025325e-14 1.889301e-14 1.430357e-14 9.552993e-15 2.772311e-15 4.711213e-15 -3.982640e-16 -4.028491e-15 -3.241714e-15 -5.244273e-15 -8.585898e-15 -1.263202e-14 -1.349898e-14 -1.482446e-14 -1.742112e-14 -1.603457e-14 -1.873209e-14 -1.787005e-14 -2.075949e-14 -2.145782e-14 -2.319522e-14 -2.264154e-14 -2.515824e-14 -2.499411e-14 -2.562626e-14 -2.485065e-14 -2.467703e-14 -2.339959e-14 -2.275917e-14 -2.092699e-14 
-5.568389e-02 -5.582011e-02 -5.597737e-02 -5.581254e-02 -5.568791e-02 -5.525029e-02 -5.487286e-02 -5.419059e-02 -5.358873e-02 -5.268895e-02 -5.188950e-02 -5.079778e-02 -4.982557e-02 -4.856573e-02 -4.744341e-02 -4.603744e-02 -4.478548e-02 -4.325370e-02 -4.189049e-02 -4.025173e-02 -3.879377e-02 -3.706552e-02 -3.552755e-02 -3.372615e-02 -3.212124e-02 -3.026187e-02 -2.860151e-02 -2.669820e-02 -2.499220e-02 -2.305768e-02 -2.131417e-02 -1.935973e-02 -1.758505e-02 -1.562036e-02 -1.381902e-02 -1.185198e-02 -1.002674e-02 -8.063384e-03 -6.215322e-03 -4.259899e-03 -2.388716e-03 -4.437979e-04 1.451795e-03 3.384994e-03 5.306740e-03 7.227921e-03 9.177367e-03 1.108657e-02 1.306435e-02 1.496127e-02 1.696632e-02 1.884958e-02 2.087843e-02 2.274483e-02 2.479092e-02 2.663471e-02 2.868782e-02 3.050015e-02 3.254606e-02 3.431450e-02 3.633475e-02 3.804304e-02 4.001497e-02 4.164298e-02 4.353992e-02 4.506386e-02 4.685554e-02 4.824828e-02 4.990139e-02 5.113309e-02 5.261198e-02 5.365078e-02 5.491827e-02 5.573114e-02 5.674944e-02 5.730313e-02 5.803484e-02 5.829689e-02 5.870612e-02 5.864602e-02 5.869960e-02 5.829000e-02 5.795889e-02 5.717697e-02 5.643773e-02 5.526671e-02 5.410318e-02 5.253387e-02 5.093887e-02 4.897127e-02 4.694824e-02 4.459302e-02 4.215749e-02 3.943715e-02 3.661772e-02 3.356730e-02 3.040601e-02 2.707304e-02 2.362492e-02 2.006856e-02 1.640021e-02 1.268943e-02 8.876641e-03 5.087570e-03 1.212093e-03 -2.575377e-03 -6.429644e-03 -1.013566e-02 -1.388675e-02 -1.743534e-02 -2.100716e-02 -2.432978e-02 -2.765551e-02 -3.069393e-02 -3.371863e-02 -3.642692e-02 -3.910910e-02 -4.145461e-02 -4.376678e-02 -4.573015e-02 -4.765832e-02 -4.923262e-02 -5.077504e-02 -5.196421e-02 -5.312956e-02 -5.394650e-02 -5.475165e-02 -5.521605e-02 
-1.114449e-01 -1.117094e-01 -1.120171e-01 -1.116798e-01 -1.114243e-01 -1.105420e-01 -1.097817e-01 -1.084109e-01 -1.072027e-01 -1.053977e-01 -1.037954e-01 -1.016075e-01 -9.966085e-02 -9.713748e-02 -9.489179e-02 -9.207692e-02 -8.957306e-02 -8.650724e-02 -8.378194e-02 -8.050270e-02 -7.758886e-02 -7.413113e-02 -7.105815e-02 -6.745450e-02 -6.424847e-02 -6.052923e-02 -5.721301e-02 -5.340618e-02 -4.999934e-02 -4.613034e-02 -4.264903e-02 -3.874040e-02 -3.519720e-02 -3.126822e-02 -2.767204e-02 -2.373842e-02 -2.009459e-02 -1.616835e-02 -1.247882e-02 -8.568310e-03 -4.832263e-03 -9.424902e-04 2.842929e-03 6.709686e-03 1.054825e-02 1.439155e-02 1.828665e-02 2.210673e-02 2.605989e-02 2.985629e-02 3.386563e-02 3.763571e-02 4.169443e-02 4.543185e-02 4.952692e-02 5.322023e-02 5.733122e-02 6.096266e-02 6.506100e-02 6.860562e-02 7.265423e-02 7.607936e-02 8.003264e-02 8.329783e-02 8.710213e-02 9.015950e-02 9.375395e-02 9.654899e-02 9.986661e-02 1.023393e-01 1.053085e-01 1.073948e-01 1.099408e-01 1.115744e-01 1.136215e-01 1.147355e-01 1.162086e-01 1.167379e-01 1.175651e-01 1.174484e-01 1.175631e-01 1.167454e-01 1.160893e-01 1.145249e-01 1.130510e-01 1.107060e-01 1.083818e-01 1.052377e-01 1.020485e-01 9.810536e-02 9.405788e-02 8.933694e-02 8.446208e-02 7.900848e-02 7.336337e-02 6.724744e-02 6.091627e-02 5.423348e-02 4.732656e-02 4.019579e-02 3.284676e-02 2.540667e-02 1.776771e-02 1.017133e-02 2.406696e-03 -5.185389e-03 -1.290712e-02 -2.033443e-02 -2.784855e-02 -3.495851e-02 -4.211217e-02 -4.876723e-02 -5.542629e-02 -6.150973e-02 -6.756405e-02 -7.298398e-02 -7.835053e-02 -8.304184e-02 -8.766576e-02 -9.159010e-02 -9.544375e-02 -9.858773e-02 -1.016681e-01 -1.040401e-01 -1.063650e-01 -1.079915e-01 -1.095952e-01 -1.105161e-01 
-1.676905e-01 -1.680720e-01 -1.685151e-01 -1.679923e-01 -1.675893e-01 -1.662483e-01 -1.650876e-01 -1.630137e-01 -1.611813e-01 -1.584563e-01 -1.560332e-01 -1.527342e-01 -1.497949e-01 -1.459934e-01 -1.426060e-01 -1.383677e-01 -1.345935e-01 -1.299793e-01 -1.258732e-01 -1.209394e-01 -1.165508e-01 -1.113497e-01 -1.067227e-01 -1.013033e-01 -9.647715e-02 -9.088503e-02 -8.589411e-02 -8.017145e-02 -7.504532e-02 -6.923049e-02 -6.399359e-02 -5.812062e-02 -5.279202e-02 -4.689006e-02 -4.148330e-02 -3.557610e-02 -3.009927e-02 -2.420496e-02 -1.866105e-02 -1.279219e-02 -7.179910e-03 -1.343920e-03 4.341134e-03 1.014105e-02 1.590475e-02 2.166828e-02 2.751599e-02 3.324391e-02 3.917829e-02 4.487044e-02 5.088907e-02 5.654206e-02 6.263517e-02 6.824009e-02 7.438853e-02 7.992876e-02 8.610231e-02 9.155173e-02 9.770787e-02 1.030294e-01 1.091128e-01 1.142578e-01 1.202002e-01 1.251081e-01 1.308292e-01 1.354281e-01 1.408364e-01 1.450445e-01 1.500395e-01 1.537664e-01 1.582403e-01 1.613897e-01 1.652300e-01 1.677018e-01 1.707942e-01 1.724876e-01 1.747187e-01 1.755353e-01 1.767962e-01 1.766432e-01 1.768330e-01 1.756270e-01 1.746571e-01 1.723281e-01 1.701265e-01 1.666227e-01 1.631392e-01 1.584313e-01 1.536428e-01 1.477293e-01 1.416447e-01 1.345565e-01 1.272213e-01 1.190253e-01 1.105249e-01 1.013262e-01 9.178722e-02 8.172918e-02 7.131820e-02 6.058015e-02 4.949930e-02 3.829085e-02 2.677071e-02 1.532362e-02 3.613289e-03 -7.828974e-03 -1.947374e-02 -3.066775e-02 -4.199711e-02 -5.271144e-02 -6.349368e-02 -7.351981e-02 -8.355190e-02 -9.271314e-02 -1.018287e-01 -1.099862e-01 -1.180602e-01 -1.251161e-01 -1.320666e-01 -1.379637e-01 -1.437499e-01 -1.484688e-01 -1.530874e-01 -1.566421e-01 -1.601212e-01 -1.625523e-01 -1.649449e-01 -1.663137e-01 
-2.241673e-01 -2.246416e-01 -2.251993e-01 -2.244679e-01 -2.238983e-01 -2.220773e-01 -2.204997e-01 -2.177037e-01 -2.152336e-01 -2.115724e-01 -2.083182e-01 -2.038947e-01 -1.999561e-01 -1.948654e-01 -1.903332e-01 -1.846629e-01 -1.796185e-01 -1.734493e-01 -1.679658e-01 -1.613724e-01 -1.555153e-01 -1.485673e-01 -1.423952e-01 -1.351576e-01 -1.287227e-01 -1.212563e-01 -1.146042e-01 -1.069651e-01 -1.001353e-01 -9.237479e-02 -8.539957e-02 -7.756304e-02 -7.046769e-02 -6.259399e-02 -5.539630e-02 -4.751703e-02 -4.022735e-02 -3.236648e-02 -2.498823e-02 -1.716216e-02 -9.692866e-03 -1.911005e-03 5.656099e-03 1.339009e-02 2.106386e-02 2.875027e-02 3.653894e-02 4.417960e-02 5.208778e-02 5.968326e-02 6.770869e-02 7.525520e-02 8.338567e-02 9.087195e-02 9.908245e-02 1.064868e-01 1.147373e-01 1.220251e-01 1.302588e-01 1.373807e-01 1.455235e-01 1.524142e-01 1.603743e-01 1.669526e-01 1.746221e-01 1.807913e-01 1.880472e-01 1.936972e-01 2.004041e-01 2.054135e-01 2.114265e-01 2.156655e-01 2.208334e-01 2.241674e-01 2.283366e-01 2.306298e-01 2.336480e-01 2.347679e-01 2.364887e-01 2.363101e-01 2.365978e-01 2.350083e-01 2.337432e-01 2.306480e-01 2.277328e-01 2.230613e-01 2.184274e-01 2.121394e-01 2.057542e-01 1.978466e-01 1.897207e-01 1.802337e-01 1.704268e-01 1.594493e-01 1.480748e-01 1.357475e-01 1.229748e-01 1.094904e-01 9.554286e-02 8.114272e-02 6.629242e-02 5.125924e-02 3.581705e-02 2.046371e-02 4.765840e-03 -1.057880e-02 -2.618695e-02 -4.119417e-02 -5.637524e-02 -7.073275e-02 -8.517415e-02 -9.860103e-02 -1.120293e-01 -1.242881e-01 -1.364797e-01 -1.473847e-01 -1.581726e-01 -1.675936e-01 -1.768690e-01 -1.847311e-01 -1.924414e-01 -1.987209e-01 -2.048637e-01 -2.095815e-01 -2.141969e-01 -2.174100e-01 -2.205711e-01 -2.223637e-01 
-2.816182e-01 -2.821620e-01 -2.828033e-01 -2.818365e-01 -2.810666e-01 -2.787369e-01 -2.767071e-01 -2.731595e-01 -2.700156e-01 -2.653885e-01 -2.612668e-01 -2.556892e-01 -2.507149e-01 -2.443058e-01 -2.385920e-01 -2.314607e-01 -2.251091e-01 -2.173563e-01 -2.104580e-01 -2.021768e-01 -1.948134e-01 -1.860906e-01 -1.783354e-01 -1.692524e-01 -1.611705e-01 -1.518035e-01 -1.434524e-01 -1.338721e-01 -1.253014e-01 -1.155722e-01 -1.068228e-01 -9.700219e-02 -8.810610e-02 -7.824308e-02 -6.922276e-02 -5.935725e-02 -5.022576e-02 -4.038791e-02 -3.114939e-02 -2.135961e-02 -1.201056e-02 -2.280240e-03 7.188461e-03 1.685549e-02 2.645581e-02 3.606094e-02 4.580431e-02 5.535115e-02 6.524455e-02 7.473535e-02 8.477726e-02 9.420892e-02 1.043854e-01 1.137454e-01 1.240264e-01 1.332892e-01 1.436255e-01 1.527491e-01 1.630707e-01 1.719941e-01 1.822088e-01 1.908510e-01 2.008442e-01 2.091038e-01 2.187403e-01 2.264961e-01 2.356217e-01 2.427354e-01 2.511800e-01 2.574986e-01 2.650799e-01 2.704399e-01 2.769674e-01 2.811990e-01 2.864787e-01 2.894104e-01 2.932497e-01 2.947137e-01 2.969271e-01 2.967645e-01 2.971793e-01 2.952467e-01 2.937099e-01 2.898857e-01 2.862720e-01 2.804644e-01 2.746842e-01 2.668390e-01 2.588481e-01 2.489579e-01 2.387661e-01 2.268781e-01 2.145577e-01 2.007809e-01 1.864729e-01 1.709824e-01 1.548992e-01 1.379369e-01 1.203608e-01 1.022315e-01 8.350746e-02 6.456966e-02 4.509304e-02 2.574451e-02 5.943530e-03 -1.339693e-02 -3.308201e-02 -5.199548e-02 -7.113477e-02 -8.922340e-02 -1.074190e-01 -1.243254e-01 -1.412302e-01 -1.566531e-01 -1.719843e-01 -1.856892e-01 -1.992370e-01 -2.110605e-01 -2.226899e-01 -2.325400e-01 -2.421876e-01 -2.500373e-01 -2.577039e-01 -2.635832e-01 -2.693231e-01 -2.733072e-01 -2.772164e-01 -2.794145e-01 
-3.394540e-01 -3.400257e-01 -3.407148e-01 -3.394730e-01 -3.384701e-01 -3.355956e-01 -3.330853e-01 -3.287543e-01 -3.249137e-01 -3.192935e-01 -3.142874e-01 -3.075332e-01 -3.015121e-01 -2.937666e-01 -2.868662e-01 -2.782598e-01 -2.706017e-01 -2.612545e-01 -2.529472e-01 -2.429701e-01 -2.341113e-01 -2.236079e-01 -2.142847e-01 -2.033525e-01 -1.936429e-01 -1.823730e-01 -1.723459e-01 -1.608234e-01 -1.505381e-01 -1.388406e-01 -1.283462e-01 -1.165429e-01 -1.058776e-01 -9.402758e-02 -8.321793e-02 -7.136902e-02 -6.042997e-02 -4.861803e-02 -3.755345e-02 -2.580233e-02 -1.460647e-02 -2.928780e-03 8.411236e-03 2.001227e-02 3.151305e-02 4.304081e-02 5.471850e-02 6.617923e-02 7.804467e-02 8.944305e-02 1.014967e-01 1.128310e-01 1.250581e-01 1.363149e-01 1.486808e-01 1.598308e-01 1.722774e-01 1.832710e-01 1.957142e-01 2.064786e-01 2.188070e-01 2.292445e-01 2.413195e-01 2.513074e-01 2.629648e-01 2.723562e-01 2.834087e-01 2.920353e-01 3.022763e-01 3.099522e-01 3.191602e-01 3.256864e-01 3.336300e-01 3.388000e-01 3.452436e-01 3.488485e-01 3.535584e-01 3.553937e-01 3.581440e-01 3.580160e-01 3.585964e-01 3.563295e-01 3.545529e-01 3.499975e-01 3.457095e-01 3.387516e-01 3.318405e-01 3.224116e-01 3.128199e-01 3.009075e-01 2.886434e-01 2.743015e-01 2.594488e-01 2.428069e-01 2.255337e-01 2.068025e-01 1.873645e-01 1.668373e-01 1.455769e-01 1.236248e-01 1.009623e-01 7.802319e-02 5.444148e-02 3.100240e-02 7.025849e-03 -1.640007e-02 -4.023198e-02 -6.313143e-02 -8.629202e-02 -1.081781e-01 -1.301806e-01 -1.506168e-01 -1.710376e-01 -1.896577e-01 -2.081535e-01 -2.246738e-01 -2.409917e-01 -2.552174e-01 -2.691970e-01 -2.810205e-01 -2.925897e-01 -3.019838e-01 -3.111489e-01 -3.181554e-01 -3.249880e-01 -3.297037e-01 -3.343253e-01 -3.368872e-01 
-3.987630e-01 -3.993252e-01 -4.000135e-01 -3.984550e-01 -3.971668e-01 -3.937032e-01 -3.906586e-01 -3.854990e-01 -3.809072e-01 -3.742487e-01 -3.683035e-01 -3.603281e-01 -3.532056e-01 -3.440796e-01 -3.359378e-01 -3.258129e-01 -3.167929e-01 -3.058083e-01 -2.960361e-01 -2.843207e-01 -2.739094e-01 -2.615836e-01 -2.506348e-01 -2.378121e-01 -2.264170e-01 -2.132044e-01 -2.014438e-01 -1.879412e-01 -1.758849e-01 -1.621841e-01 -1.498902e-01 -1.360728e-01 -1.235867e-01 -1.097227e-01 -9.707566e-02 -8.322164e-02 -7.043125e-02 -5.662937e-02 -4.369962e-02 -2.997746e-02 -1.690064e-02 -3.272038e-03 9.968441e-03 2.350128e-02 3.692690e-02 5.037011e-02 6.400217e-02 7.736579e-02 9.121969e-02 1.045123e-01 1.185914e-01 1.318142e-01 1.461040e-01 1.592448e-01 1.737071e-01 1.867346e-01 2.013037e-01 2.141622e-01 2.287415e-01 2.413478e-01 2.558079e-01 2.680489e-01 2.822281e-01 2.939603e-01 3.076664e-01 3.187175e-01 3.317305e-01 3.419026e-01 3.539792e-01 3.630530e-01 3.739322e-01 3.816727e-01 3.910814e-01 3.972441e-01 4.049038e-01 4.092414e-01 4.148748e-01 4.171446e-01 4.204833e-01 4.204545e-01 4.212472e-01 4.187093e-01 4.167313e-01 4.115036e-01 4.065672e-01 3.985096e-01 3.904771e-01 3.795022e-01 3.682988e-01 3.543846e-01 3.400131e-01 3.232164e-01 3.057696e-01 2.862371e-01 2.659087e-01 2.438847e-01 2.209747e-01 1.968036e-01 1.717171e-01 1.458384e-01 1.190757e-01 9.201086e-02 6.414942e-02 3.648075e-02 8.148824e-03 -1.950876e-02 -4.766399e-02 -7.469482e-02 -1.020418e-01 -1.278622e-01 -1.538183e-01 -1.779064e-01 -2.019663e-01 -2.238856e-01 -2.456423e-01 -2.650576e-01 -2.842141e-01 -3.008977e-01 -3.172692e-01 -3.310991e-01 -3.446072e-01 -3.555580e-01 -3.662181e-01 -3.743466e-01 -3.822514e-01 -3.876792e-01 -3.929797e-01 -3.958756e-01 
-4.586092e-01 -4.591010e-01 -4.597358e-01 -4.578032e-01 -4.561820e-01 -4.520776e-01 -4.484576e-01 -4.424244e-01 -4.370485e-01 -4.293138e-01 -4.224055e-01 -4.131778e-01 -4.049386e-01 -3.944076e-01 -3.850176e-01 -3.733552e-01 -3.629747e-01 -3.503384e-01 -3.391101e-01 -3.256456e-01 -3.136977e-01 -2.995418e-01 -2.869894e-01 -2.722712e-01 -2.592181e-01 -2.440599e-01 -2.305983e-01 -2.151147e-01 -2.013248e-01 -1.856213e-01 -1.715695e-01 -1.557404e-01 -1.414784e-01 -1.256042e-01 -1.111676e-01 -9.531307e-02 -8.072069e-02 -6.493376e-02 -5.018844e-02 -3.449953e-02 -1.958983e-02 -4.012975e-03 1.108347e-02 2.654829e-02 4.186006e-02 5.722303e-02 7.277894e-02 8.805516e-02 1.038774e-01 1.190805e-01 1.351772e-01 1.503125e-01 1.666707e-01 1.817275e-01 1.983067e-01 2.132520e-01 2.299785e-01 2.447507e-01 2.615144e-01 2.760191e-01 2.926714e-01 3.067786e-01 3.231326e-01 3.366769e-01 3.525095e-01 3.652911e-01 3.803470e-01 3.921359e-01 4.061326e-01 4.166739e-01 4.293082e-01 4.383284e-01 4.492833e-01 4.564978e-01 4.654498e-01 4.705708e-01 4.771980e-01 4.799424e-01 4.839327e-01 4.840308e-01 4.850910e-01 4.822959e-01 4.801623e-01 4.742607e-01 4.687114e-01 4.595356e-01 4.504047e-01 4.378472e-01 4.250410e-01 4.090697e-01 3.925832e-01 3.732570e-01 3.531905e-01 3.306735e-01 3.072454e-01 2.818172e-01 2.553716e-01 2.274305e-01 1.984368e-01 1.684951e-01 1.375370e-01 1.062052e-01 7.395958e-02 4.192168e-02 9.126900e-03 -2.289363e-02 -5.547592e-02 -8.675463e-02 -1.183814e-01 -1.482325e-01 -1.782196e-01 -2.060318e-01 -2.337882e-01 -2.590532e-01 -2.841060e-01 -3.064367e-01 -3.284447e-01 -3.475827e-01 -3.663384e-01 -3.821506e-01 -3.975722e-01 -4.100392e-01 -4.221551e-01 -4.313534e-01 -4.402817e-01 -4.463626e-01 -4.522883e-01 -4.554562e-01 
-5.204409e-01 -5.208084e-01 -5.213210e-01 -5.189552e-01 -5.169288e-01 -5.121220e-01 -5.078531e-01 -5.008845e-01 -4.946509e-01 -4.857791e-01 -4.778344e-01 -4.672948e-01 -4.578661e-01 -4.458714e-01 -4.351604e-01 -4.219029e-01 -4.100882e-01 -3.957431e-01 -3.829840e-01 -3.677139e-01 -3.541531e-01 -3.381107e-01 -3.238774e-01 -3.072080e-01 -2.924190e-01 -2.752609e-01 -2.600207e-01 -2.425043e-01 -2.269042e-01 -2.091500e-01 -1.932664e-01 -1.753823e-01 -1.592745e-01 -1.413529e-01 -1.250616e-01 -1.071769e-01 -9.072338e-02 -7.292980e-02 -5.631637e-02 -3.864783e-02 -2.185968e-02 -4.330433e-03 1.266051e-02 3.005319e-02 4.728291e-02 6.455432e-02 8.205975e-02 9.923167e-02 1.170427e-01 1.341360e-01 1.522668e-01 1.692930e-01 1.877339e-01 2.046869e-01 2.233962e-01 2.402437e-01 2.591422e-01 2.758189e-01 2.947848e-01 3.111872e-01 3.300541e-01 3.460373e-01 3.645947e-01 3.799719e-01 3.979673e-01 4.125118e-01 4.296552e-01 4.431050e-01 4.590747e-01 4.711386e-01 4.855889e-01 4.959542e-01 5.085229e-01 5.168636e-01 5.271806e-01 5.331669e-01 5.408628e-01 5.441691e-01 5.488845e-01 5.491997e-01 5.505953e-01 5.476325e-01 5.454007e-01 5.389094e-01 5.327882e-01 5.225680e-01 5.123576e-01 4.982746e-01 4.838560e-01 4.658611e-01 4.472166e-01 4.253648e-01 4.025975e-01 3.770651e-01 3.504160e-01 3.215143e-01 2.913724e-01 2.595531e-01 2.264556e-01 1.923061e-01 1.569271e-01 1.211533e-01 8.427857e-02 4.767492e-02 1.016485e-02 -2.642548e-02 -6.368237e-02 -9.941429e-02 -1.355515e-01 -1.696257e-01 -2.038473e-01 -2.355537e-01 -2.671755e-01 -2.959268e-01 -3.244058e-01 -3.497594e-01 -3.747090e-01 -3.963747e-01 -4.175665e-01 -4.354018e-01 -4.527548e-01 -4.667500e-01 -4.803109e-01 -4.905668e-01 -5.004852e-01 -5.071881e-01 -5.136888e-01 -5.170839e-01 
-5.829593e-01 -5.831193e-01 -5.834374e-01 -5.805613e-01 -5.780648e-01 -5.724872e-01 -5.675145e-01 -5.595517e-01 -5.524171e-01 -5.423594e-01 -5.333471e-01 -5.214565e-01 -5.108191e-01 -4.973304e-01 -4.852906e-01 -4.704148e-01 -4.571690e-01 -4.410979e-01 -4.268205e-01 -4.097321e-01 -3.945797e-01 -3.766421e-01 -3.607569e-01 -3.421305e-01 -3.256417e-01 -3.064805e-01 -2.895045e-01 -2.699543e-01 -2.525931e-01 -2.327895e-01 -2.151286e-01 -1.951931e-01 -1.772988e-01 -1.573355e-01 -1.392528e-01 -1.193448e-01 -1.010961e-01 -8.130361e-02 -6.288877e-02 -4.324790e-02 -2.464653e-02 -5.170331e-03 1.365414e-02 3.297277e-02 5.206685e-02 7.125011e-02 9.066215e-02 1.097403e-01 1.295111e-01 1.485139e-01 1.686665e-01 1.876133e-01 2.081431e-01 2.270330e-01 2.478988e-01 2.667009e-01 2.878173e-01 3.064625e-01 3.276951e-01 3.460697e-01 3.672326e-01 3.851752e-01 4.060309e-01 4.233313e-01 4.435943e-01 4.599962e-01 4.793377e-01 4.945440e-01 5.125996e-01 5.262797e-01 5.426574e-01 5.544559e-01 5.687455e-01 5.782923e-01 5.900748e-01 5.969947e-01 6.058517e-01 6.097744e-01 6.152981e-01 6.158688e-01 6.176727e-01 6.145625e-01 6.122939e-01 6.052132e-01 5.985685e-01 5.872822e-01 5.760253e-01 5.603713e-01 5.443551e-01 5.242659e-01 5.034566e-01 4.789821e-01 4.534829e-01 4.248117e-01 3.948841e-01 3.623608e-01 3.284378e-01 2.925712e-01 2.552599e-01 2.167182e-01 1.767876e-01 1.363795e-01 9.473120e-02 5.337109e-02 1.099639e-02 -3.034319e-02 -7.241883e-02 -1.127628e-01 -1.535397e-01 -1.919673e-01 -2.305297e-01 -2.662264e-01 -3.017911e-01 -3.340882e-01 -3.660391e-01 -3.944389e-01 -4.223443e-01 -4.465278e-01 -4.701410e-01 -4.899614e-01 -5.092067e-01 -5.246701e-01 -5.396186e-01 -5.508574e-01 -5.616961e-01 -5.689379e-01 -5.759378e-01 -5.794746e-01 
-6.479914e-01 -6.478697e-01 -6.479013e-01 -6.444355e-01 -6.413743e-01 -6.349453e-01 -6.291743e-01 -6.201377e-01 -6.120090e-01 -6.006881e-01 -5.905167e-01 -5.772003e-01 -5.652637e-01 -5.502082e-01 -5.367493e-01 -5.201836e-01 -5.054153e-01 -4.875473e-01 -4.716583e-01 -4.526807e-01 -4.358413e-01 -4.159372e-01 -3.983025e-01 -3.776483e-01 -3.593607e-01 -3.381268e-01 -3.193157e-01 -2.976650e-01 -2.784448e-01 -2.565293e-01 -2.369965e-01 -2.149533e-01 -1.951830e-01 -1.731295e-01 -1.531725e-01 -1.312025e-01 -1.110835e-01 -8.926420e-02 -6.898160e-02 -4.735226e-02 -2.688061e-02 -5.453236e-03 1.525243e-02 3.648988e-02 5.748694e-02 7.856497e-02 9.991398e-02 1.208735e-01 1.426274e-01 1.635099e-01 1.857021e-01 2.065380e-01 2.291713e-01 2.499687e-01 2.730042e-01 2.937370e-01 3.170862e-01 3.376847e-01 3.612030e-01 3.815465e-01 4.050305e-01 4.249427e-01 4.481305e-01 4.673793e-01 4.899539e-01 5.082539e-01 5.298491e-01 5.468678e-01 5.670764e-01 5.824431e-01 6.008267e-01 6.141424e-01 6.302413e-01 6.410901e-01 6.544339e-01 6.623938e-01 6.725119e-01 6.771655e-01 6.835972e-01 6.845427e-01 6.868489e-01 6.837114e-01 6.814879e-01 6.739329e-01 6.668269e-01 6.545775e-01 6.423082e-01 6.251660e-01 6.075498e-01 5.854193e-01 5.623982e-01 5.353148e-01 5.069858e-01 4.751424e-01 4.417834e-01 4.055525e-01 3.676407e-01 3.275863e-01 2.858033e-01 2.426777e-01 1.978962e-01 1.526191e-01 1.058707e-01 5.948909e-02 1.191223e-02 -3.445592e-02 -8.168085e-02 -1.269133e-01 -1.726363e-01 -2.156748e-01 -2.588458e-01 -2.987579e-01 -3.384844e-01 -3.745105e-01 -4.100979e-01 -4.416803e-01 -4.726512e-01 -4.994417e-01 -5.255346e-01 -5.473851e-01 -5.685359e-01 -5.854745e-01 -6.017865e-01 -6.139838e-01 -6.256907e-01 -6.334233e-01 -6.408501e-01 -6.444643e-01 
-7.138533e-01 -7.133407e-01 -7.129903e-01 -7.088357e-01 -7.051254e-01 -6.977584e-01 -6.911188e-01 -6.809357e-01 -6.717582e-01 -6.591153e-01 -6.477463e-01 -6.329581e-01 -6.196997e-01 -6.030425e-01 -5.881565e-01 -5.698752e-01 -5.535897e-01 -5.339059e-01 -5.164227e-01 -4.955425e-01 -4.770436e-01 -4.551637e-01 -4.358164e-01 -4.131282e-01 -3.930873e-01 -3.697772e-01 -3.491846e-01 -3.254325e-01 -3.044144e-01 -2.803891e-01 -2.590526e-01 -2.349067e-01 -2.133350e-01 -1.891993e-01 -1.674481e-01 -1.434264e-01 -1.215212e-01 -9.768686e-02 -7.562264e-02 -5.201654e-02 -2.975978e-02 -6.391099e-03 1.611518e-02 3.926565e-02 6.209391e-02 8.506741e-02 1.082949e-01 1.311456e-01 1.548418e-01 1.776250e-01 2.018379e-01 2.245974e-01 2.493397e-01 2.720937e-01 2.973310e-01 3.200590e-01 3.456994e-01 3.683310e-01 3.942182e-01 4.166244e-01 4.425348e-01 4.645228e-01 4.901656e-01 5.114783e-01 5.365000e-01 5.568195e-01 5.808110e-01 5.997654e-01 6.222716e-01 6.394457e-01 6.599770e-01 6.749239e-01 6.929675e-01 7.052214e-01 7.202530e-01 7.293416e-01 7.408364e-01 7.462921e-01 7.537359e-01 7.551074e-01 7.580078e-01 7.548716e-01 7.527718e-01 7.447467e-01 7.372429e-01 7.240076e-01 7.107716e-01 6.920884e-01 6.728960e-01 6.486392e-01 6.234035e-01 5.935920e-01 5.623984e-01 5.272286e-01 4.903678e-01 4.502413e-01 4.082331e-01 3.637730e-01 3.173749e-01 2.694251e-01 2.196196e-01 1.692211e-01 1.171788e-01 6.552410e-02 1.254391e-02 -3.908987e-02 -9.165843e-02 -1.419884e-01 -1.928311e-01 -2.406502e-01 -2.885707e-01 -3.328209e-01 -3.768095e-01 -4.166371e-01 -4.559171e-01 -4.907052e-01 -5.247542e-01 -5.541303e-01 -5.826764e-01 -6.064989e-01 -6.294967e-01 -6.478243e-01 -6.654179e-01 -6.784695e-01 -6.909477e-01 -6.990581e-01 -7.068086e-01 -7.103859e-01 
-7.827742e-01 -7.817711e-01 -7.809189e-01 -7.759724e-01 -7.714932e-01 -7.630860e-01 -7.554610e-01 -7.440331e-01 -7.336939e-01 -7.196351e-01 -7.069593e-01 -6.906096e-01 -6.759225e-01 -6.575771e-01 -6.411575e-01 -6.210759e-01 -6.031651e-01 -5.815811e-01 -5.623924e-01 -5.395243e-01 -5.192509e-01 -4.953089e-01 -4.741304e-01 -4.493211e-01 -4.274056e-01 -4.019330e-01 -3.794366e-01 -3.534994e-01 -3.305626e-01 -3.043488e-01 -2.810916e-01 -2.547718e-01 -2.312881e-01 -2.050088e-01 -1.813612e-01 -1.552387e-01 -1.314553e-01 -1.055709e-01 -8.164436e-02 -5.604193e-02 -3.193143e-02 -6.617668e-03 1.774565e-02 4.279768e-02 6.750178e-02 9.234576e-02 1.174856e-01 1.421916e-01 1.678548e-01 1.924960e-01 2.187469e-01 2.433847e-01 2.702488e-01 2.949166e-01 3.223666e-01 3.470544e-01 3.749984e-01 3.996395e-01 4.279131e-01 4.523737e-01 4.807363e-01 5.048098e-01 5.329447e-01 5.563506e-01 5.838703e-01 6.062582e-01 6.327121e-01 6.536706e-01 6.785565e-01 6.976249e-01 7.204013e-01 7.370834e-01 7.571829e-01 7.709615e-01 7.878030e-01 7.981536e-01 8.111545e-01 8.175570e-01 8.261441e-01 8.280944e-01 8.317156e-01 8.287371e-01 8.268748e-01 8.185327e-01 8.107225e-01 7.966422e-01 7.824974e-01 7.623909e-01 7.416348e-01 7.153332e-01 6.878383e-01 6.553306e-01 6.211611e-01 5.826348e-01 5.420877e-01 4.979644e-01 4.516006e-01 4.025592e-01 3.512172e-01 2.981963e-01 2.429805e-01 1.871536e-01 1.293925e-01 7.211533e-02 1.329133e-02 -4.397693e-02 -1.023197e-01 -1.581111e-01 -2.144698e-01 -2.674055e-01 -3.204178e-01 -3.692954e-01 -4.178206e-01 -4.616799e-01 -5.048527e-01 -5.430122e-01 -5.802655e-01 -6.123291e-01 -6.433866e-01 -6.692247e-01 -6.940698e-01 -7.137809e-01 -7.326104e-01 -7.464721e-01 -7.596422e-01 -7.680583e-01 -7.760307e-01 -7.794811e-01 
-8.526559e-01 -8.510228e-01 -8.495457e-01 -8.436830e-01 -8.383281e-01 -8.287749e-01 -8.200770e-01 -8.073176e-01 -7.957505e-01 -7.802078e-01 -7.661801e-01 -7.482176e-01 -7.320765e-01 -7.120057e-01 -6.940455e-01 -6.721372e-01 -6.526103e-01 -6.291078e-01 -6.082366e-01 -5.833677e-01 -5.613551e-01 -5.353417e-01 -5.123777e-01 -4.854410e-01 -4.617062e-01 -4.340676e-01 -4.097319e-01 -3.816090e-01 -3.568270e-01 -3.284275e-01 -3.033320e-01 -2.748450e-01 -2.495401e-01 -2.211281e-01 -1.956825e-01 -1.674737e-01 -1.419168e-01 -1.139994e-01 -8.831896e-02 -6.073818e-02 -3.488264e-02 -7.640345e-03 1.847564e-02 4.541708e-02 7.190254e-02 9.861251e-02 1.255863e-01 1.521542e-01 1.797280e-01 2.062481e-01 2.345083e-01 2.610623e-01 2.900515e-01 3.166899e-01 3.463902e-01 3.731145e-01 4.034345e-01 4.301817e-01 4.609466e-01 4.875770e-01 5.185251e-01 5.448157e-01 5.755987e-01 6.012420e-01 6.314311e-01 6.560399e-01 6.851361e-01 7.082539e-01 7.357004e-01 7.568153e-01 7.820129e-01 8.005738e-01 8.228957e-01 8.383289e-01 8.571343e-01 8.688587e-01 8.835058e-01 8.909453e-01 9.008017e-01 9.033969e-01 9.078507e-01 9.050694e-01 9.035423e-01 8.948934e-01 8.868587e-01 8.719117e-01 8.569207e-01 8.353336e-01 8.130518e-01 7.846082e-01 7.548601e-01 7.195156e-01 6.823361e-01 6.402668e-01 5.959521e-01 5.475999e-01 4.967482e-01 4.428518e-01 3.863836e-01 3.279851e-01 2.671334e-01 2.055528e-01 1.418171e-01 7.859089e-02 1.365560e-02 -4.955538e-02 -1.139309e-01 -1.754543e-01 -2.375586e-01 -2.958279e-01 -3.541156e-01 -4.077735e-01 -4.609620e-01 -5.089375e-01 -5.560686e-01 -5.976177e-01 -6.380818e-01 -6.727925e-01 -7.063161e-01 -7.340821e-01 -7.606880e-01 -7.816608e-01 -8.016106e-01 -8.161399e-01 -8.298696e-01 -8.384404e-01 -8.464969e-01 -8.496711e-01 
-9.261570e-01 -9.237623e-01 -9.215078e-01 -9.145975e-01 -9.082190e-01 -8.973936e-01 -8.874827e-01 -8.732734e-01 -8.603461e-01 -8.432094e-01 -8.277041e-01 -8.080257e-01 -7.903091e-01 -7.684144e-01 -7.487926e-01 -7.249612e-01 -7.036947e-01 -6.781767e-01 -6.554948e-01 -6.285260e-01 -6.046393e-01 -5.764526e-01 -5.515622e-01 -5.223939e-01 -4.966943e-01 -4.667846e-01 -4.404621e-01 -4.100507e-01 -3.832771e-01 -3.525944e-01 -3.255188e-01 -2.947759e-01 -2.675158e-01 -2.368946e-01 -2.095279e-01 -1.791715e-01 -1.517307e-01 -1.217371e-01 -9.420699e-02 -6.462444e-02 -3.694348e-02 -7.769911e-03 2.016353e-02 4.897688e-02 7.729340e-02 1.058336e-01 1.346771e-01 1.630565e-01 1.925647e-01 2.209036e-01 2.511873e-01 2.795938e-01 3.107157e-01 3.392639e-01 3.712197e-01 3.999293e-01 4.326318e-01 4.614493e-01 4.947184e-01 5.235029e-01 5.570599e-01 5.855753e-01 6.190444e-01 6.469577e-01 6.798725e-01 7.067600e-01 7.385747e-01 7.639338e-01 7.940383e-01 8.173044e-01 8.450412e-01 8.656066e-01 8.902877e-01 9.075204e-01 9.284424e-01 9.417031e-01 9.581603e-01 9.668149e-01 9.781101e-01 9.815409e-01 9.869949e-01 9.846096e-01 9.835732e-01 9.748174e-01 9.666898e-01 9.510660e-01 9.353222e-01 9.124199e-01 8.886511e-01 8.581891e-01 8.261556e-01 7.880363e-01 7.477286e-01 7.020982e-01 6.538011e-01 6.011072e-01 5.454518e-01 4.864859e-01 4.244798e-01 3.603908e-01 2.934113e-01 2.256798e-01 1.554230e-01 8.579153e-02 1.417626e-02 -5.546015e-02 -1.264231e-01 -1.941527e-01 -2.625089e-01 -3.265447e-01 -3.905383e-01 -4.493425e-01 -5.075306e-01 -5.599055e-01 -6.112299e-01 -6.563631e-01 -7.001745e-01 -7.376412e-01 -7.736792e-01 -8.034064e-01 -8.317487e-01 -8.539548e-01 -8.749452e-01 -8.900675e-01 -9.042388e-01 -9.128583e-01 -9.208580e-01 -9.236319e-01 
-1.000729e+00 -9.973972e-01 -9.942095e-01 -9.860993e-01 -9.785647e-01 -9.663408e-01 -9.551110e-01 -9.393519e-01 -9.249865e-01 -9.061804e-01 -8.891467e-01 -8.676985e-01 -8.483805e-01 -8.246251e-01 -8.033382e-01 -7.775596e-01 -7.545688e-01 -7.270197e-01 -7.025579e-01 -6.734785e-01 -6.477620e-01 -6.173939e-01 -5.906325e-01 -5.592263e-01 -5.316277e-01 -4.994428e-01 -4.712093e-01 -4.385082e-01 -4.098292e-01 -3.768663e-01 -3.479077e-01 -3.149172e-01 -2.858099e-01 -2.529935e-01 -2.238240e-01 -1.913397e-01 -1.621426e-01 -1.300969e-01 -1.008514e-01 -6.929366e-02 -3.992416e-02 -8.845433e-03 2.077175e-02 5.143523e-02 8.145952e-02 1.118170e-01 1.424255e-01 1.726168e-01 2.039819e-01 2.341576e-01 2.664223e-01 2.967204e-01 3.299738e-01 3.604951e-01 3.947495e-01 4.255333e-01 4.607067e-01 4.917091e-01 5.276129e-01 5.586907e-01 5.950239e-01 6.259248e-01 6.622760e-01 6.926370e-01 7.284924e-01 7.578473e-01 7.926044e-01 8.203975e-01 8.533834e-01 8.789900e-01 9.094808e-01 9.322291e-01 9.594698e-01 9.786632e-01 1.001885e+00 1.016820e+00 1.035252e+00 1.045234e+00 1.058115e+00 1.062465e+00 1.069051e+00 1.067115e+00 1.066687e+00 1.057844e+00 1.049727e+00 1.033410e+00 1.016999e+00 9.927232e-01 9.675270e-01 9.349413e-01 9.006451e-01 8.595917e-01 8.161294e-01 7.667192e-01 7.143515e-01 6.570358e-01 5.964190e-01 5.320451e-01 4.642727e-01 3.941068e-01 3.207084e-01 2.464098e-01 1.692959e-01 9.283771e-02 1.418776e-02 -6.227285e-02 -1.401665e-01 -2.144507e-01 -2.893611e-01 -3.594385e-01 -4.293753e-01 -4.935130e-01 -5.568583e-01 -6.137265e-01 -6.693173e-01 -7.180402e-01 -7.651920e-01 -8.053438e-01 -8.438216e-01 -8.753796e-01 -9.053315e-01 -9.285999e-01 -9.504696e-01 -9.659915e-01 -9.804256e-01 -9.888944e-01 -9.966553e-01 -9.988369e-01 