# vtk DataFile Version 2.0
Comment goes here
ASCII

DATASET STRUCTURED_POINTS
FIELD FieldData 1
TIME 1 1 double
0.01500000
DIMENSIONS    128   128   1

ORIGIN    0.000   0.000   0.000
SPACING   0.039062 0.039062   1.000

POINT_DATA   16384
SCALARS uY double
LOOKUP_TABLE default

1.401870e-16 -7.441111e-16 -2.504872e-15 -1.506846e-15 -2.327822e-15 -2.321431e-15 -9.595731e-16 1.152806e-15 2.499256e-17 1.170032e-15 2.240323e-15 3.414569e-15 2.882000e-15 3.283815e-15 1.865713e-15 2.909349e-15 4.694568e-15 5.897840e-15 7.225813e-15 7.205993e-15 5.891975e-15 5.345020e-15 5.147572e-15 2.754102e-15 1.112003e-15 9.818393e-16 3.634803e-15 3.233425e-15 3.194579e-15 3.697438e-15 2.326593e-15 5.731601e-16 8.427481e-16 2.262400e-16 2.341906e-15 4.449955e-15 6.361283e-15 6.305300e-15 5.144464e-15 4.153342e-15 3.452093e-15 1.585944e-15 2.897258e-15 2.564643e-15 6.763625e-15 6.237557e-15 5.201216e-15 3.911321e-15 5.461366e-15 3.479081e-15 5.014370e-15 7.077758e-15 6.834966e-15 5.476611e-15 6.507089e-15 4.829112e-15 4.741239e-15 3.349818e-15 4.345219e-15 4.653711e-15 2.489465e-15 5.099386e-15 3.593479e-15 4.353770e-15 6.717466e-15 6.516258e-15 6.936383e-15 6.403674e-15 2.770184e-15 2.260697e-15 1.361840e-16 5.508893e-16 -1.313941e-15 -6.377643e-16 -2.710292e-15 1.438934e-17 -2.310117e-15 -8.867684e-17 -4.872244e-16 2.304932e-15 -6.371486e-16 9.578164e-16 -2.477863e-16 2.408069e-15 -3.194108e-16 2.400881e-16 -1.095553e-15 2.118020e-15 2.020402e-15 2.732012e-15 4.330362e-15 4.675200e-15 4.712389e-15 6.796816e-15 4.970002e-15 4.597169e-15 1.470395e-15 1.849856e-15 1.536825e-15 4.601286e-15 3.301023e-15 5.704019e-15 5.493536e-15 5.046775e-15 2.965381e-15 2.592547e-15 4.268294e-16 1.599293e-15 2.047027e-15 3.411166e-15 2.098591e-15 2.208763e-15 2.909295e-15 4.584338e-15 4.536494e-15 5.124181e-15 2.220010e-15 2.152984e-15 1.249170e-15 2.006436e-15 2.456693e-15 2.424886e-15 5.889940e-16 1.437116e-15 8.687726e-16 1.040040e-15 2.752618e-16 5.180793e-16 
-1.462007e-02 -1.498193e-02 -1.457529e-02 -1.485195e-02 -1.433285e-02 -1.450063e-02 -1.385363e-02 -1.388953e-02 -1.310085e-02 -1.298334e-02 -1.204156e-02 -1.175160e-02 -1.064841e-02 -1.017053e-02 -8.901611e-03 -8.225050e-03 -6.790981e-03 -5.910878e-03 -4.317980e-03 -3.236428e-03 -1.497599e-03 -2.244991e-04 1.640103e-03 3.086507e-03 5.049018e-03 6.642003e-03 8.666730e-03 1.037143e-02 1.241516e-02 1.418939e-02 1.620218e-02 1.799773e-02 1.992431e-02 2.168864e-02 2.347033e-02 2.514860e-02 2.672568e-02 2.826300e-02 2.957756e-02 3.092131e-02 3.192019e-02 3.302239e-02 3.366021e-02 3.447981e-02 3.472173e-02 3.522668e-02 3.505079e-02 3.521990e-02 3.461902e-02 3.444342e-02 3.342613e-02 3.291024e-02 3.150109e-02 3.066295e-02 2.890173e-02 2.777265e-02 2.571268e-02 2.433600e-02 2.204168e-02 2.047073e-02 1.801417e-02 1.630951e-02 1.376682e-02 1.199292e-02 9.440145e-03 7.661740e-03 5.170967e-03 3.449444e-03 1.085304e-03 -5.245366e-04 -2.707686e-03 -4.160274e-03 -6.120273e-03 -7.381087e-03 -9.088934e-03 -1.013542e-02 -1.157529e-02 -1.239691e-02 -1.356534e-02 -1.416286e-02 -1.506733e-02 -1.545148e-02 -1.610853e-02 -1.629834e-02 -1.673149e-02 -1.675235e-02 -1.698999e-02 -1.687170e-02 -1.694511e-02 -1.672001e-02 -1.666151e-02 -1.636277e-02 -1.620418e-02 -1.586429e-02 -1.563564e-02 -1.528516e-02 -1.501369e-02 -1.468017e-02 -1.438956e-02 -1.409678e-02 -1.380666e-02 -1.357408e-02 -1.329970e-02 -1.314212e-02 -1.289435e-02 -1.282180e-02 -1.260714e-02 -1.262494e-02 -1.244584e-02 -1.255485e-02 -1.240997e-02 -1.260694e-02 -1.249162e-02 -1.276957e-02 -1.267622e-02 -1.302491e-02 -1.294350e-02 -1.334983e-02 -1.326824e-02 -1.371665e-02 -1.362111e-02 -1.409394e-02 -1.396933e-02 -1.444710e-02 -1.427734e-02 -1.473904e-02 -1.450736e-02 -1.493073e-02 
-2.810420e-02 -2.883898e-02 -2.805733e-02 -2.862081e-02 -2.762430e-02 -2.796951e-02 -2.672835e-02 -2.680969e-02 -2.529720e-02 -2.507213e-02 -2.326609e-02 -2.269708e-02 -2.058131e-02 -1.963808e-02 -1.720418e-02 -1.586604e-02 -1.311515e-02 -1.137335e-02 -8.317949e-03 -6.177736e-03 -2.843254e-03 -3.255334e-04 3.248330e-03 6.106052e-03 9.864515e-03 1.300802e-02 1.688110e-02 2.024030e-02 2.414356e-02 2.763431e-02 3.147063e-02 3.499743e-02 3.865980e-02 4.211923e-02 4.549457e-02 4.877930e-02 5.175320e-02 5.475630e-02 5.721829e-02 5.983767e-02 6.168691e-02 6.382979e-02 6.498065e-02 6.656785e-02 6.695512e-02 6.792505e-02 6.750837e-02 6.782056e-02 6.658784e-02 6.622583e-02 6.419517e-02 6.316848e-02 6.038866e-02 5.873351e-02 5.528259e-02 5.306121e-02 4.904339e-02 4.634166e-02 4.188239e-02 3.880580e-02 3.404543e-02 3.071355e-02 2.579992e-02 2.233979e-02 1.742038e-02 1.395922e-02 9.173445e-03 5.831503e-03 1.303883e-03 -1.811970e-03 -5.977305e-03 -8.778768e-03 -1.250177e-02 -1.492261e-02 -1.814909e-02 -2.014686e-02 -2.284844e-02 -2.440443e-02 -2.657683e-02 -2.769451e-02 -2.935464e-02 -3.005700e-02 -3.123920e-02 -3.156527e-02 -3.231720e-02 -3.231824e-02 -3.269666e-02 -3.243225e-02 -3.249912e-02 -3.203348e-02 -3.185237e-02 -3.125097e-02 -3.088410e-02 -3.021073e-02 -2.971643e-02 -2.903074e-02 -2.846156e-02 -2.781709e-02 -2.721838e-02 -2.666102e-02 -2.607002e-02 -2.563703e-02 -2.508240e-02 -2.480181e-02 -2.430355e-02 -2.419399e-02 -2.376373e-02 -2.383463e-02 -2.347614e-02 -2.372822e-02 -2.343814e-02 -2.386414e-02 -2.363280e-02 -2.421824e-02 -2.403055e-02 -2.475466e-02 -2.459095e-02 -2.542744e-02 -2.526423e-02 -2.618207e-02 -2.599284e-02 -2.695688e-02 -2.671263e-02 -2.768420e-02 -2.735414e-02 -2.829154e-02 -2.784361e-02 -2.870269e-02 
-4.401768e-02 -4.512696e-02 -4.392351e-02 -4.477718e-02 -4.323531e-02 -4.376167e-02 -4.183445e-02 -4.196366e-02 -3.960905e-02 -3.927559e-02 -3.645851e-02 -3.560415e-02 -3.229885e-02 -3.087598e-02 -2.706865e-02 -2.504385e-02 -2.073530e-02 -1.809293e-02 -1.330131e-02 -1.004679e-02 -4.810126e-03 -9.726151e-04 4.649072e-03 9.014973e-03 1.493821e-02 1.975201e-02 2.586941e-02 3.102568e-02 3.720679e-02 4.257768e-02 4.867133e-02 5.411051e-02 5.994896e-02 6.529681e-02 7.070155e-02 7.579131e-02 8.058046e-02 8.524508e-02 8.924190e-02 9.332117e-02 9.636319e-02 9.971092e-02 1.016592e-01 1.041501e-01 1.048977e-01 1.064338e-01 1.059133e-01 1.064296e-01 1.046183e-01 1.040871e-01 1.010107e-01 9.944493e-02 9.517768e-02 9.263195e-02 8.729491e-02 8.386431e-02 7.762003e-02 7.343660e-02 6.648150e-02 6.170803e-02 5.426227e-02 4.908381e-02 4.137969e-02 3.599325e-02 2.826284e-02 2.286622e-02 1.532929e-02 1.010992e-02 2.963168e-03 -1.911915e-03 -8.503510e-03 -1.289577e-02 -1.880477e-02 -2.260973e-02 -2.774911e-02 -3.089907e-02 -3.522214e-02 -3.768622e-02 -4.118405e-02 -4.296584e-02 -4.566272e-02 -4.679614e-02 -4.874377e-02 -4.928780e-02 -5.055886e-02 -5.059162e-02 -5.127332e-02 -5.088609e-02 -5.107402e-02 -5.036554e-02 -5.015823e-02 -4.922951e-02 -4.872371e-02 -4.767352e-02 -4.696035e-02 -4.588133e-02 -4.504326e-02 -4.401890e-02 -4.312747e-02 -4.222968e-02 -4.134402e-02 -4.063149e-02 -3.979752e-02 -3.931476e-02 -3.856491e-02 -3.834193e-02 -3.769553e-02 -3.774808e-02 -3.721207e-02 -3.754239e-02 -3.711240e-02 -3.771030e-02 -3.737188e-02 -3.821600e-02 -3.794600e-02 -3.900517e-02 -3.877303e-02 -4.000757e-02 -3.977658e-02 -4.113950e-02 -4.086795e-02 -4.230594e-02 -4.194820e-02 -4.340254e-02 -4.290999e-02 -4.431736e-02 -4.363938e-02 -4.493267e-02 
-5.651589e-02 -5.803247e-02 -5.650085e-02 -5.767479e-02 -5.571155e-02 -5.644758e-02 -5.399195e-02 -5.419720e-02 -5.119442e-02 -5.078183e-02 -4.718588e-02 -4.607819e-02 -4.185502e-02 -3.998929e-02 -3.512030e-02 -3.245283e-02 -2.693852e-02 -2.344971e-02 -1.731342e-02 -1.301214e-02 -6.303404e-03 -1.230503e-03 5.972078e-03 1.174170e-02 1.932868e-02 2.568575e-02 3.351641e-02 4.031894e-02 4.822264e-02 5.529963e-02 6.307932e-02 7.023633e-02 7.767414e-02 8.470036e-02 9.156545e-02 9.824189e-02 1.043001e-01 1.104084e-01 1.154331e-01 1.207647e-01 1.245487e-01 1.289137e-01 1.312805e-01 1.345166e-01 1.353314e-01 1.373117e-01 1.364904e-01 1.371313e-01 1.346476e-01 1.339142e-01 1.298040e-01 1.277145e-01 1.220767e-01 1.187042e-01 1.116982e-01 1.071696e-01 9.900854e-02 9.349957e-02 8.444077e-02 7.816797e-02 6.849947e-02 6.170867e-02 5.173403e-02 4.468650e-02 3.470833e-02 2.766569e-02 1.796968e-02 1.117891e-02 2.019545e-03 -4.300481e-03 -1.271121e-02 -1.838037e-02 -2.588059e-02 -3.076472e-02 -3.724612e-02 -4.126036e-02 -4.666785e-02 -4.977631e-02 -5.410428e-02 -5.631662e-02 -5.960260e-02 -6.096824e-02 -6.328506e-02 -6.388591e-02 -6.533304e-02 -6.527549e-02 -6.597043e-02 -6.537736e-02 -6.544753e-02 -6.445075e-02 -6.402635e-02 -6.275973e-02 -6.196765e-02 -6.056125e-02 -5.952010e-02 -5.809520e-02 -5.691148e-02 -5.557662e-02 -5.434196e-02 -5.318998e-02 -5.197931e-02 -5.108531e-02 -4.995603e-02 -4.937622e-02 -4.836808e-02 -4.813952e-02 -4.727523e-02 -4.741631e-02 -4.670268e-02 -4.721414e-02 -4.664362e-02 -4.751008e-02 -4.706249e-02 -4.825417e-02 -4.789845e-02 -4.937296e-02 -4.906899e-02 -5.077303e-02 -5.047315e-02 -5.234398e-02 -5.199447e-02 -5.396124e-02 -5.350356e-02 -5.548839e-02 -5.486032e-02 -5.677929e-02 -5.591611e-02 -5.768027e-02 
-7.388774e-02 -7.581605e-02 -7.386573e-02 -7.536814e-02 -7.285039e-02 -7.380519e-02 -7.063979e-02 -7.092784e-02 -6.704235e-02 -6.655121e-02 -6.188452e-02 -6.051343e-02 -5.501979e-02 -5.268542e-02 -4.633880e-02 -4.298148e-02 -3.578023e-02 -3.137025e-02 -2.334182e-02 -1.788527e-02 -9.090681e-03 -2.634267e-03 6.828033e-03 1.419383e-02 2.418522e-02 3.232515e-02 4.266573e-02 5.140133e-02 6.187099e-02 7.098484e-02 8.132708e-02 9.056954e-02 1.004983e-01 1.095965e-01 1.188062e-01 1.274746e-01 1.356525e-01 1.436048e-01 1.504463e-01 1.574074e-01 1.626315e-01 1.683503e-01 1.717158e-01 1.759762e-01 1.772970e-01 1.799294e-01 1.790868e-01 1.799779e-01 1.769306e-01 1.760310e-01 1.708209e-01 1.681508e-01 1.609044e-01 1.565558e-01 1.474804e-01 1.416161e-01 1.309911e-01 1.238380e-01 1.120019e-01 1.038407e-01 9.117351e-02 8.232410e-02 6.922654e-02 6.002967e-02 4.690194e-02 3.769961e-02 2.491992e-02 1.603566e-02 3.941353e-03 -4.337465e-03 -1.546491e-02 -2.290125e-02 -3.284627e-02 -3.926298e-02 -4.788058e-02 -5.316480e-02 -6.038004e-02 -6.448288e-02 -7.028589e-02 -7.321791e-02 -7.765558e-02 -7.947921e-02 -8.264481e-02 -8.346488e-02 -8.548674e-02 -8.544007e-02 -8.647028e-02 -8.571534e-02 -8.591932e-02 -8.462643e-02 -8.417360e-02 -8.251616e-02 -8.157205e-02 -7.971889e-02 -7.843875e-02 -7.654775e-02 -7.507152e-02 -7.328443e-02 -7.173303e-02 -7.017156e-02 -6.864447e-02 -6.740750e-02 -6.598146e-02 -6.514353e-02 -6.387227e-02 -6.348311e-02 -6.239801e-02 -6.248307e-02 -6.159453e-02 -6.215636e-02 -6.145568e-02 -6.247587e-02 -6.193752e-02 -6.337897e-02 -6.296287e-02 -6.477220e-02 -6.442602e-02 -6.653580e-02 -6.619708e-02 -6.852782e-02 -6.812592e-02 -7.058779e-02 -7.004551e-02 -7.253975e-02 -7.177501e-02 -7.419516e-02 -7.312247e-02 -7.535565e-02 
-8.554243e-02 -8.793589e-02 -8.571868e-02 -8.759841e-02 -8.472918e-02 -8.594892e-02 -8.233356e-02 -8.274985e-02 -7.830272e-02 -7.777997e-02 -7.242812e-02 -7.084473e-02 -6.453271e-02 -6.178826e-02 -5.448357e-02 -5.050649e-02 -4.220532e-02 -3.696073e-02 -2.769385e-02 -2.119077e-02 -1.102905e-02 -3.326163e-03 7.614738e-03 1.640547e-02 2.796183e-02 3.767440e-02 4.963338e-02 6.005021e-02 7.215153e-02 8.300922e-02 9.495017e-02 1.059482e-01 1.173923e-01 1.282044e-01 1.387933e-01 1.490799e-01 1.584488e-01 1.678711e-01 1.756657e-01 1.838994e-01 1.897944e-01 1.965440e-01 2.002614e-01 2.052732e-01 2.065992e-01 2.096740e-01 2.084740e-01 2.094785e-01 2.057080e-01 2.045848e-01 1.982962e-01 1.950707e-01 1.864157e-01 1.811991e-01 1.704248e-01 1.634131e-01 1.508517e-01 1.423190e-01 1.283727e-01 1.186578e-01 1.037779e-01 9.326676e-02 7.792867e-02 6.703203e-02 5.170957e-02 4.083841e-02 2.597777e-02 1.551920e-02 1.516150e-03 -8.188202e-03 -2.100626e-02 -2.967729e-02 -4.106310e-02 -4.849535e-02 -5.828689e-02 -6.435342e-02 -7.247262e-02 -7.712381e-02 -8.356995e-02 -8.682744e-02 -9.166659e-02 -9.361352e-02 -9.696562e-02 -9.773474e-02 -9.975970e-02 -9.952059e-02 -1.004047e-01 -9.935109e-02 -9.929441e-02 -9.763255e-02 -9.683800e-02 -9.477608e-02 -9.344019e-02 -9.117946e-02 -8.948495e-02 -8.721227e-02 -8.532237e-02 -8.320429e-02 -8.125870e-02 -7.943703e-02 -7.754927e-02 -7.613806e-02 -7.439434e-02 -7.347827e-02 -7.193750e-02 -7.157160e-02 -7.026642e-02 -7.047695e-02 -6.941571e-02 -7.020194e-02 -6.937117e-02 -7.070788e-02 -7.007505e-02 -7.191538e-02 -7.143176e-02 -7.371000e-02 -7.331341e-02 -7.594772e-02 -7.556489e-02 -7.845958e-02 -7.800833e-02 -8.105574e-02 -8.044681e-02 -8.352885e-02 -8.266750e-02 -8.565701e-02 -8.444463e-02 -8.720667e-02 
-1.045451e-01 -1.074135e-01 -1.048012e-01 -1.070741e-01 -1.036607e-01 -1.051631e-01 -1.008319e-01 -1.013913e-01 -9.603596e-02 -9.548797e-02 -8.901736e-02 -8.721296e-02 -7.955690e-02 -7.637083e-02 -6.748643e-02 -6.282646e-02 -5.270491e-02 -4.652140e-02 -3.519501e-02 -2.748990e-02 -1.503882e-02 -5.873212e-03 7.568426e-03 1.806917e-02 3.230871e-02 4.395305e-02 5.873695e-02 7.126920e-02 8.628391e-02 9.939030e-02 1.142671e-01 1.275858e-01 1.419105e-01 1.550446e-01 1.683717e-01 1.809053e-01 1.927767e-01 2.042919e-01 2.142589e-01 2.243537e-01 2.320008e-01 2.403069e-01 2.452759e-01 2.514756e-01 2.534881e-01 2.573306e-01 2.562071e-01 2.575226e-01 2.531972e-01 2.519090e-01 2.444388e-01 2.405720e-01 2.301390e-01 2.238250e-01 2.107314e-01 2.022062e-01 1.868620e-01 1.764582e-01 1.593614e-01 1.474924e-01 1.292029e-01 1.163416e-01 9.745053e-02 8.410105e-02 6.519793e-02 5.186625e-02 3.350658e-02 2.067006e-02 3.346827e-03 -8.572681e-03 -2.445147e-02 -3.510893e-02 -4.923494e-02 -5.837606e-02 -7.054687e-02 -7.801405e-02 -8.813142e-02 -9.386227e-02 -1.019237e-01 -1.059433e-01 -1.120286e-01 -1.144375e-01 -1.186929e-01 -1.196521e-01 -1.222727e-01 -1.219881e-01 -1.232015e-01 -1.219085e-01 -1.219592e-01 -1.199085e-01 -1.190447e-01 -1.164897e-01 -1.149521e-01 -1.121381e-01 -1.101511e-01 -1.073063e-01 -1.050710e-01 -1.023996e-01 -1.000887e-01 -9.776467e-02 -9.551939e-02 -9.368347e-02 -9.161160e-02 -9.036882e-02 -8.854473e-02 -8.796398e-02 -8.642974e-02 -8.654481e-02 -8.531236e-02 -8.612415e-02 -8.517830e-02 -8.665789e-02 -8.595964e-02 -8.805185e-02 -8.754193e-02 -9.016888e-02 -8.977108e-02 -9.283559e-02 -9.245980e-02 -9.584821e-02 -9.539309e-02 -9.897762e-02 -9.833290e-02 -1.019735e-01 -1.010220e-01 -1.045679e-01 -1.031877e-01 -1.064787e-01 
-1.154906e-01 -1.189061e-01 -1.161024e-01 -1.188342e-01 -1.151530e-01 -1.170000e-01 -1.123105e-01 -1.130735e-01 -1.072550e-01 -1.067437e-01 -9.969130e-02 -9.773281e-02 -8.936431e-02 -8.581286e-02 -7.607611e-02 -7.082446e-02 -5.970547e-02 -5.269629e-02 -4.022773e-02 -3.146435e-02 -1.773372e-02 -7.289058e-03 7.554125e-03 1.953183e-02 3.527066e-02 4.855622e-02 6.490402e-02 7.919851e-02 9.580031e-02 1.107392e-01 1.271780e-01 1.423436e-01 1.581522e-01 1.730897e-01 1.877673e-01 2.020030e-01 2.150367e-01 2.280972e-01 2.389866e-01 2.504184e-01 2.587020e-01 2.680901e-01 2.733713e-01 2.803582e-01 2.823299e-01 2.866324e-01 2.850979e-01 2.865238e-01 2.814134e-01 2.798755e-01 2.712566e-01 2.667838e-01 2.548648e-01 2.476079e-01 2.327330e-01 2.229644e-01 2.056008e-01 1.937052e-01 1.744207e-01 1.608776e-01 1.403109e-01 1.256687e-01 1.044937e-01 8.933681e-02 6.822410e-02 5.313716e-02 3.271625e-02 1.824816e-02 -9.259479e-04 -1.429379e-02 -3.176650e-02 -4.364484e-02 -5.907844e-02 -6.918572e-02 -8.236569e-02 -9.053401e-02 -1.013659e-01 -1.075380e-01 -1.160365e-01 -1.202559e-01 -1.265285e-01 -1.289238e-01 -1.331515e-01 -1.339191e-01 -1.363358e-01 -1.357212e-01 -1.365945e-01 -1.348741e-01 -1.344877e-01 -1.319525e-01 -1.305913e-01 -1.275328e-01 -1.254703e-01 -1.221684e-01 -1.196573e-01 -1.163702e-01 -1.136345e-01 -1.105914e-01 -1.078212e-01 -1.052159e-01 -1.025648e-01 -1.005517e-01 -9.813459e-02 -9.682726e-02 -9.472113e-02 -9.419169e-02 -9.243723e-02 -9.271796e-02 -9.132256e-02 -9.240880e-02 -9.135025e-02 -9.320415e-02 -9.243475e-02 -9.498945e-02 -9.444011e-02 -9.760396e-02 -9.718796e-02 -1.008483e-01 -1.004647e-01 -1.044909e-01 -1.040272e-01 -1.082733e-01 -1.076078e-01 -1.119143e-01 -1.109183e-01 -1.151133e-01 -1.136525e-01 -1.175536e-01 
-1.363035e-01 -1.402849e-01 -1.371334e-01 -1.403518e-01 -1.361592e-01 -1.383819e-01 -1.329911e-01 -1.339863e-01 -1.272521e-01 -1.267964e-01 -1.185920e-01 -1.164796e-01 -1.067039e-01 -1.027585e-01 -9.134496e-02 -8.543219e-02 -7.235787e-02 -6.439913e-02 -4.969438e-02 -3.967989e-02 -2.343802e-02 -1.143813e-02 6.175685e-03 2.000261e-02 3.874397e-02 5.414813e-02 7.368900e-02 9.033143e-02 1.102599e-01 1.277206e-01 1.475463e-01 1.653378e-01 1.845039e-01 2.020900e-01 2.199926e-01 2.368095e-01 2.528231e-01 2.683035e-01 2.818114e-01 2.954087e-01 3.058369e-01 3.170485e-01 3.238993e-01 3.322899e-01 3.351733e-01 3.403962e-01 3.390572e-01 3.408742e-01 3.352135e-01 3.335117e-01 3.235991e-01 3.184043e-01 3.044822e-01 2.959665e-01 2.784447e-01 2.669258e-01 2.463644e-01 2.322958e-01 2.093783e-01 1.933285e-01 1.688258e-01 1.514477e-01 1.261739e-01 1.081657e-01 8.293184e-02 6.499332e-02 4.056085e-02 2.335024e-02 3.902229e-04 -1.551487e-02 -3.645327e-02 -5.058591e-02 -6.909534e-02 -8.111816e-02 -9.694052e-02 -1.066527e-01 -1.196749e-01 -1.270083e-01 -1.372484e-01 -1.422549e-01 -1.498420e-01 -1.526748e-01 -1.578250e-01 -1.587172e-01 -1.617094e-01 -1.609512e-01 -1.621036e-01 -1.600217e-01 -1.596711e-01 -1.566091e-01 -1.550936e-01 -1.513958e-01 -1.490403e-01 -1.450373e-01 -1.421424e-01 -1.381400e-01 -1.349728e-01 -1.312428e-01 -1.280314e-01 -1.248042e-01 -1.217328e-01 -1.191930e-01 -1.164009e-01 -1.146844e-01 -1.122654e-01 -1.114593e-01 -1.094639e-01 -1.096081e-01 -1.080469e-01 -1.091376e-01 -1.079855e-01 -1.099797e-01 -1.091808e-01 -1.120017e-01 -1.114741e-01 -1.150159e-01 -1.146566e-01 -1.187895e-01 -1.184779e-01 -1.230518e-01 -1.226537e-01 -1.275010e-01 -1.268709e-01 -1.318087e-01 -1.307925e-01 -1.356242e-01 -1.340613e-01 -1.385778e-01 
-1.466651e-01 -1.513009e-01 -1.480472e-01 -1.518324e-01 -1.474703e-01 -1.501437e-01 -1.445007e-01 -1.458008e-01 -1.387155e-01 -1.383889e-01 -1.297181e-01 -1.275303e-01 -1.171574e-01 -1.129064e-01 -1.007513e-01 -9.428270e-02 -8.031296e-02 -7.153610e-02 -5.577806e-02 -4.468175e-02 -2.723233e-02 -1.389791e-02 5.064832e-03 2.045447e-02 4.066285e-02 5.782016e-02 7.891211e-02 9.744873e-02 1.189682e-01 1.384059e-01 1.598101e-01 1.795981e-01 2.002721e-01 2.198088e-01 2.390879e-01 2.577463e-01 2.749448e-01 2.920975e-01 3.065428e-01 3.215877e-01 3.326558e-01 3.450405e-01 3.521920e-01 3.614373e-01 3.642507e-01 3.699735e-01 3.681738e-01 3.701085e-01 3.635902e-01 3.616090e-01 3.504513e-01 3.445805e-01 3.290529e-01 3.194837e-01 3.000414e-01 2.871310e-01 2.643977e-01 2.486596e-01 2.233986e-01 2.054789e-01 1.785520e-01 1.591939e-01 1.315119e-01 1.115099e-01 8.397776e-02 6.412593e-02 3.758993e-02 1.863076e-02 -6.168970e-03 -2.358963e-02 -4.605486e-02 -6.142203e-02 -8.111821e-02 -9.406832e-02 -1.107315e-01 -1.210587e-01 -1.345889e-01 -1.422384e-01 -1.526822e-01 -1.577343e-01 -1.652599e-01 -1.679069e-01 -1.727764e-01 -1.732971e-01 -1.758381e-01 -1.745715e-01 -1.751503e-01 -1.724719e-01 -1.714710e-01 -1.677709e-01 -1.655695e-01 -1.612344e-01 -1.581929e-01 -1.535914e-01 -1.500395e-01 -1.455091e-01 -1.417371e-01 -1.375752e-01 -1.338272e-01 -1.302835e-01 -1.267540e-01 -1.240256e-01 -1.208581e-01 -1.190875e-01 -1.163752e-01 -1.156500e-01 -1.134388e-01 -1.137944e-01 -1.120870e-01 -1.135112e-01 -1.122725e-01 -1.147105e-01 -1.138736e-01 -1.172343e-01 -1.167059e-01 -1.208681e-01 -1.205337e-01 -1.253506e-01 -1.250786e-01 -1.303824e-01 -1.300278e-01 -1.356323e-01 -1.350391e-01 -1.407418e-01 -1.397452e-01 -1.453283e-01 -1.437567e-01 -1.489884e-01 
-1.694742e-01 -1.747968e-01 -1.712696e-01 -1.756661e-01 -1.708515e-01 -1.740263e-01 -1.677212e-01 -1.693757e-01 -1.613895e-01 -1.612318e-01 -1.513943e-01 -1.491506e-01 -1.373216e-01 -1.327515e-01 -1.188315e-01 -1.117448e-01 -9.568703e-02 -8.596316e-02 -6.778645e-02 -5.539265e-02 -3.519448e-02 -2.020235e-02 1.828295e-03 1.923074e-02 4.280218e-02 6.230471e-02 8.701459e-02 1.081869e-01 1.335195e-01 1.558216e-01 1.811529e-01 2.039536e-01 2.285651e-01 2.511668e-01 2.742704e-01 2.959383e-01 3.167104e-01 3.367035e-01 3.543262e-01 3.719292e-01 3.856362e-01 4.001894e-01 4.093118e-01 4.202407e-01 4.242498e-01 4.310921e-01 4.296367e-01 4.320683e-01 4.250024e-01 4.228613e-01 4.102633e-01 4.035685e-01 3.857475e-01 3.747120e-01 3.522016e-01 3.372350e-01 3.107725e-01 2.924700e-01 2.629612e-01 2.420771e-01 2.105470e-01 1.879535e-01 1.554863e-01 1.321190e-01 9.979338e-02 7.658969e-02 4.541362e-02 2.325136e-02 -5.894421e-03 -2.625181e-02 -5.265706e-02 -7.060188e-02 -9.375286e-02 -1.088577e-01 -1.284449e-01 -1.404697e-01 -1.563789e-01 -1.652625e-01 -1.775526e-01 -1.833923e-01 -1.922652e-01 -1.952887e-01 -2.010553e-01 -2.015898e-01 -2.046356e-01 -2.030772e-01 -2.038318e-01 -2.006174e-01 -1.995276e-01 -1.951102e-01 -1.926182e-01 -1.874468e-01 -1.839731e-01 -1.784753e-01 -1.744051e-01 -1.689736e-01 -1.646466e-01 -1.596277e-01 -1.553311e-01 -1.510163e-01 -1.469797e-01 -1.436001e-01 -1.399938e-01 -1.377166e-01 -1.346520e-01 -1.335807e-01 -1.311136e-01 -1.312908e-01 -1.294259e-01 -1.308385e-01 -1.295360e-01 -1.321219e-01 -1.313040e-01 -1.349592e-01 -1.345171e-01 -1.391036e-01 -1.389031e-01 -1.442546e-01 -1.441416e-01 -1.500685e-01 -1.498729e-01 -1.561658e-01 -1.557045e-01 -1.621362e-01 -1.612158e-01 -1.675424e-01 -1.659614e-01 -1.719232e-01 
-1.793662e-01 -1.854771e-01 -1.819513e-01 -1.870510e-01 -1.821804e-01 -1.859418e-01 -1.795066e-01 -1.815975e-01 -1.733886e-01 -1.734813e-01 -1.633084e-01 -1.610937e-01 -1.487961e-01 -1.440003e-01 -1.294592e-01 -1.218645e-01 -1.050173e-01 -9.448439e-02 -7.533952e-02 -6.182934e-02 -4.048256e-02 -2.407588e-02 -7.253691e-04 1.836341e-02 4.340397e-02 6.482115e-02 9.111380e-02 1.143707e-01 1.413511e-01 1.658385e-01 1.928233e-01 2.178351e-01 2.440393e-01 2.688028e-01 2.933687e-01 3.170774e-01 3.391132e-01 3.609603e-01 3.795849e-01 3.987955e-01 4.131868e-01 4.290476e-01 4.384900e-01 4.503776e-01 4.543065e-01 4.617156e-01 4.597553e-01 4.623269e-01 4.543212e-01 4.518705e-01 4.379042e-01 4.304445e-01 4.108533e-01 3.986146e-01 3.739812e-01 3.574158e-01 3.285500e-01 3.083230e-01 2.762244e-01 2.531844e-01 2.189875e-01 1.941188e-01 1.590252e-01 1.333837e-01 9.858645e-02 7.322690e-02 3.983590e-02 1.573958e-02 -1.528403e-02 -3.727258e-02 -6.516512e-02 -8.438466e-02 -1.086078e-01 -1.246064e-01 -1.448534e-01 -1.573938e-01 -1.735765e-01 -1.826228e-01 -1.948441e-01 -2.005362e-01 -2.090532e-01 -2.116728e-01 -2.168572e-01 -2.167913e-01 -2.190904e-01 -2.167962e-01 -2.166984e-01 -2.126715e-01 -2.106772e-01 -2.054251e-01 -2.020231e-01 -1.960430e-01 -1.916926e-01 -1.854538e-01 -1.805709e-01 -1.745000e-01 -1.694473e-01 -1.639171e-01 -1.589964e-01 -1.543174e-01 -1.497658e-01 -1.461800e-01 -1.421687e-01 -1.398471e-01 -1.364828e-01 -1.355264e-01 -1.328556e-01 -1.332987e-01 -1.313141e-01 -1.331311e-01 -1.317791e-01 -1.348923e-01 -1.340811e-01 -1.383693e-01 -1.379763e-01 -1.432836e-01 -1.431621e-01 -1.493036e-01 -1.492883e-01 -1.560558e-01 -1.559664e-01 -1.631318e-01 -1.627757e-01 -1.700923e-01 -1.692669e-01 -1.764699e-01 -1.749640e-01 -1.817708e-01 
-2.043621e-01 -2.113130e-01 -2.076193e-01 -2.134898e-01 -2.082562e-01 -2.126814e-01 -2.056524e-01 -2.082585e-01 -1.991902e-01 -1.996045e-01 -1.882739e-01 -1.861398e-01 -1.723567e-01 -1.673520e-01 -1.509720e-01 -1.428324e-01 -1.237720e-01 -1.123163e-01 -9.056964e-02 -7.572547e-02 -5.138156e-02 -3.320974e-02 -6.470176e-03 1.481738e-02 4.362157e-02 6.765218e-02 9.804698e-02 1.242885e-01 1.556496e-01 1.834239e-01 2.149790e-01 2.434863e-01 2.743311e-01 3.026834e-01 3.318116e-01 3.590717e-01 3.854201e-01 4.106421e-01 4.331459e-01 4.554152e-01 4.730696e-01 4.915405e-01 5.034627e-01 5.173935e-01 5.228794e-01 5.316662e-01 5.302395e-01 5.334489e-01 5.248990e-01 5.222998e-01 5.067067e-01 4.982987e-01 4.760446e-01 4.620793e-01 4.338426e-01 4.148324e-01 3.815631e-01 3.582712e-01 3.211463e-01 2.945548e-01 2.549132e-01 2.261679e-01 1.854294e-01 1.557649e-01 1.153399e-01 8.599304e-02 4.719301e-02 1.931577e-02 -1.672573e-02 -4.214273e-02 -7.452848e-02 -9.671225e-02 -1.248144e-01 -1.432406e-01 -1.667072e-01 -1.811051e-01 -1.998425e-01 -2.101786e-01 -2.243171e-01 -2.307617e-01 -2.406103e-01 -2.434967e-01 -2.494944e-01 -2.492749e-01 -2.519452e-01 -2.491496e-01 -2.490599e-01 -2.442599e-01 -2.419887e-01 -2.357672e-01 -2.318782e-01 -2.248058e-01 -2.198286e-01 -2.124436e-01 -2.068583e-01 -1.996513e-01 -1.938775e-01 -1.872781e-01 -1.816667e-01 -1.760335e-01 -1.708613e-01 -1.664748e-01 -1.619426e-01 -1.590013e-01 -1.552353e-01 -1.538564e-01 -1.509125e-01 -1.511361e-01 -1.490072e-01 -1.508040e-01 -1.494287e-01 -1.527100e-01 -1.519820e-01 -1.566099e-01 -1.563872e-01 -1.621847e-01 -1.622972e-01 -1.690569e-01 -1.693125e-01 -1.768020e-01 -1.769917e-01 -1.849576e-01 -1.848584e-01 -1.930279e-01 -1.924048e-01 -2.004860e-01 -1.990942e-01 -2.067758e-01 
-2.138846e-01 -2.217859e-01 -2.182116e-01 -2.249529e-01 -2.197935e-01 -2.249753e-01 -2.179572e-01 -2.211666e-01 -2.120241e-01 -2.128457e-01 -2.013313e-01 -1.993636e-01 -1.852599e-01 -1.801373e-01 -1.632726e-01 -1.546918e-01 -1.349580e-01 -1.227086e-01 -1.000806e-01 -8.407637e-02 -5.863338e-02 -3.894063e-02 -1.088790e-02 1.225321e-02 4.256471e-02 6.873011e-02 1.007885e-01 1.293746e-01 1.625002e-01 1.927432e-01 2.260940e-01 2.571028e-01 2.896950e-01 3.204920e-01 3.512366e-01 3.808026e-01 4.085562e-01 4.358732e-01 4.594982e-01 4.835886e-01 5.020172e-01 5.219779e-01 5.342747e-01 5.493103e-01 5.547292e-01 5.641841e-01 5.622181e-01 5.656124e-01 5.560335e-01 5.531003e-01 5.359892e-01 5.267112e-01 5.024736e-01 4.871131e-01 4.564793e-01 4.355937e-01 3.995969e-01 3.740320e-01 3.339622e-01 3.048173e-01 2.621498e-01 2.307141e-01 1.870168e-01 1.546803e-01 1.115088e-01 7.965982e-02 3.845294e-02 8.374638e-03 -2.963669e-02 -5.685443e-02 -9.071307e-02 -1.142367e-01 -1.432943e-01 -1.625785e-01 -1.864983e-01 -2.012871e-01 -2.200204e-01 -2.303231e-01 -2.440655e-01 -2.501155e-01 -2.592528e-01 -2.614575e-01 -2.665098e-01 -2.653998e-01 -2.669690e-01 -2.631511e-01 -2.618766e-01 -2.559936e-01 -2.525169e-01 -2.452156e-01 -2.401536e-01 -2.320594e-01 -2.259839e-01 -2.176811e-01 -2.111046e-01 -2.031203e-01 -1.964849e-01 -1.892762e-01 -1.829455e-01 -1.768892e-01 -1.711443e-01 -1.665300e-01 -1.615680e-01 -1.585948e-01 -1.545318e-01 -1.533099e-01 -1.501867e-01 -1.507430e-01 -1.485348e-01 -1.508222e-01 -1.494488e-01 -1.533582e-01 -1.526952e-01 -1.580673e-01 -1.579563e-01 -1.645933e-01 -1.648502e-01 -1.725243e-01 -1.729459e-01 -1.814056e-01 -1.817736e-01 -1.907469e-01 -1.908305e-01 -2.000258e-01 -1.995828e-01 -2.086883e-01 -2.074661e-01 -2.161479e-01 
-2.412610e-01 -2.501897e-01 -2.465891e-01 -2.542986e-01 -2.489015e-01 -2.549512e-01 -2.474422e-01 -2.513725e-01 -2.414447e-01 -2.427880e-01 -2.301545e-01 -2.284521e-01 -2.128589e-01 -2.076845e-01 -1.889274e-01 -1.799167e-01 -1.578592e-01 -1.447442e-01 -1.193381e-01 -1.019835e-01 -7.329155e-02 -5.172897e-02 -1.994879e-02 5.595685e-03 4.010716e-02 6.919705e-02 1.059014e-01 1.378896e-01 1.760513e-01 2.100969e-01 2.487803e-01 2.838817e-01 3.219657e-01 3.570060e-01 3.932219e-01 4.270207e-01 4.600099e-01 4.913764e-01 5.197658e-01 5.475487e-01 5.700334e-01 5.931653e-01 6.085911e-01 6.261296e-01 6.335682e-01 6.447346e-01 6.435468e-01 6.477662e-01 6.376511e-01 6.345948e-01 6.156237e-01 6.052506e-01 5.778844e-01 5.604762e-01 5.255627e-01 5.017443e-01 4.604912e-01 4.312264e-01 3.851466e-01 3.517005e-01 3.025280e-01 2.663952e-01 2.159754e-01 1.787761e-01 1.289412e-01 9.229892e-02 4.474191e-02 1.015931e-02 -3.367479e-02 -6.492371e-02 -1.039177e-01 -1.308639e-01 -1.642695e-01 -1.862865e-01 -2.137264e-01 -2.305300e-01 -2.519662e-01 -2.635831e-01 -2.792620e-01 -2.859775e-01 -2.963631e-01 -2.986597e-01 -3.043658e-01 -3.028620e-01 -3.045898e-01 -2.999854e-01 -2.984733e-01 -2.915045e-01 -2.874883e-01 -2.788923e-01 -2.730771e-01 -2.635653e-01 -2.566045e-01 -2.468420e-01 -2.393219e-01 -2.299100e-01 -2.223384e-01 -2.138002e-01 -2.065968e-01 -1.993652e-01 -1.928562e-01 -1.872645e-01 -1.816800e-01 -1.779577e-01 -1.734340e-01 -1.717076e-01 -1.682939e-01 -1.685932e-01 -1.662616e-01 -1.685316e-01 -1.671897e-01 -1.713042e-01 -1.708082e-01 -1.765856e-01 -1.767524e-01 -1.839687e-01 -1.845859e-01 -1.929861e-01 -1.938195e-01 -2.031249e-01 -2.039231e-01 -2.138347e-01 -2.143325e-01 -2.245317e-01 -2.244509e-01 -2.345981e-01 -2.336485e-01 -2.433809e-01 
-2.504945e-01 -2.605659e-01 -2.572174e-01 -2.659999e-01 -2.608252e-01 -2.678405e-01 -2.605049e-01 -2.652483e-01 -2.554200e-01 -2.573721e-01 -2.447332e-01 -2.433787e-01 -2.276401e-01 -2.224944e-01 -2.034140e-01 -1.940580e-01 -1.714622e-01 -1.575834e-01 -1.313921e-01 -1.128285e-01 -8.308310e-02 -5.986496e-02 -2.675800e-02 8.587344e-04 3.695421e-02 6.847085e-02 1.069758e-01 1.416545e-01 1.817684e-01 2.186583e-01 2.593598e-01 2.973432e-01 3.374128e-01 3.752629e-01 4.133295e-01 4.497712e-01 4.843797e-01 5.181449e-01 5.478370e-01 5.777105e-01 6.011104e-01 6.259673e-01 6.418624e-01 6.607022e-01 6.681161e-01 6.800978e-01 6.783522e-01 6.828371e-01 6.716029e-01 6.682054e-01 6.475430e-01 6.361851e-01 6.065707e-01 5.875315e-01 5.498646e-01 5.238130e-01 4.793965e-01 4.473938e-01 3.978791e-01 3.613395e-01 3.086350e-01 2.692413e-01 2.153859e-01 1.749655e-01 1.219819e-01 8.235948e-02 3.210604e-02 -5.044514e-03 -5.100099e-02 -8.428151e-02 -1.247555e-01 -1.531284e-01 -1.873580e-01 -2.101833e-01 -2.378260e-01 -2.548532e-01 -2.759428e-01 -2.872677e-01 -3.021465e-01 -3.081459e-01 -3.173844e-01 -3.186430e-01 -3.229618e-01 -3.202005e-01 -3.204007e-01 -3.144158e-01 -3.113233e-01 -3.029370e-01 -2.973613e-01 -2.873852e-01 -2.800910e-01 -2.692984e-01 -2.609852e-01 -2.500914e-01 -2.413790e-01 -2.310245e-01 -2.224423e-01 -2.131784e-01 -2.051565e-01 -1.974335e-01 -1.902979e-01 -1.844561e-01 -1.784272e-01 -1.746925e-01 -1.698894e-01 -1.683755e-01 -1.648247e-01 -1.655414e-01 -1.631895e-01 -1.660568e-01 -1.647861e-01 -1.696510e-01 -1.692945e-01 -1.759485e-01 -1.763034e-01 -1.844980e-01 -1.853365e-01 -1.947948e-01 -1.958717e-01 -2.062954e-01 -2.073518e-01 -2.184245e-01 -2.191899e-01 -2.305759e-01 -2.307678e-01 -2.421096e-01 -2.414333e-01 -2.523469e-01 