# vtk DataFile Version 2.0
Comment goes here
ASCII

DATASET STRUCTURED_POINTS
FIELD FieldData 1
TIME 1 1 double
0.22000000
DIMENSIONS    128   128   1

ORIGIN    0.000   0.000   0.000
SPACING   0.039062 0.039062   1.000

POINT_DATA   16384
SCALARS uY double
LOOKUP_TABLE default

-3.639730e-14 -3.731216e-14 -3.741886e-14 -3.818117e-14 -3.880706e-14 -3.896876e-14 -3.969816e-14 -3.950701e-14 -4.091863e-14 -4.084957e-14 -4.289197e-14 -4.236499e-14 -4.442702e-14 -4.392132e-14 -4.682627e-14 -4.525769e-14 -4.822795e-14 -4.712047e-14 -4.995046e-14 -4.914950e-14 -5.249837e-14 -5.098734e-14 -5.559319e-14 -5.292049e-14 -5.725700e-14 -5.410310e-14 -5.819310e-14 -5.478738e-14 -5.786039e-14 -5.437325e-14 -5.925309e-14 -5.333596e-14 -5.887417e-14 -5.482683e-14 -6.041261e-14 -5.648169e-14 -6.101701e-14 -5.619039e-14 -6.246320e-14 -5.619772e-14 -6.181555e-14 -5.516237e-14 -6.076726e-14 -5.418422e-14 -5.853825e-14 -5.199591e-14 -5.741993e-14 -5.032881e-14 -5.481562e-14 -4.795581e-14 -5.445075e-14 -4.698409e-14 -5.223759e-14 -4.536938e-14 -5.015302e-14 -4.291841e-14 -4.755162e-14 -4.105582e-14 -4.414833e-14 -3.814287e-14 -4.171777e-14 -3.555588e-14 -3.836015e-14 -3.356602e-14 -3.569979e-14 -3.216788e-14 -3.412257e-14 -3.173974e-14 -3.268461e-14 -3.130415e-14 -3.245511e-14 -3.180895e-14 -3.171211e-14 -3.387562e-14 -3.248147e-14 -3.408145e-14 -3.345634e-14 -3.725556e-14 -3.415340e-14 -3.846408e-14 -3.652552e-14 -4.025209e-14 -3.606394e-14 -4.096243e-14 -3.658033e-14 -4.266305e-14 -3.719683e-14 -4.466034e-14 -3.844602e-14 -4.487571e-14 -3.821444e-14 -4.413193e-14 -3.650921e-14 -4.429275e-14 -3.753995e-14 -4.482415e-14 -3.770831e-14 -4.491923e-14 -3.869962e-14 -4.564236e-14 -3.806259e-14 -4.322366e-14 -3.604599e-14 -4.121221e-14 -3.441790e-14 -3.929045e-14 -3.286130e-14 -3.736475e-14 -3.152762e-14 -3.625118e-14 -3.106752e-14 -3.513146e-14 -3.042848e-14 -3.450436e-14 -3.148246e-14 -3.491776e-14 -3.172112e-14 -3.482314e-14 -3.237345e-14 -3.500769e-14 -3.289835e-14 -3.505324e-14 -3.332387e-14 -3.528775e-14 -3.428628e-14 -3.599348e-14 -3.546216e-14 -3.673149e-14 
-1.170303e-02 -1.193137e-02 -1.219297e-02 -1.232482e-02 -1.249156e-02 -1.252014e-02 -1.258580e-02 -1.250629e-02 -1.246682e-02 -1.227674e-02 -1.213061e-02 -1.183016e-02 -1.157866e-02 -1.117105e-02 -1.081853e-02 -1.031018e-02 -9.864208e-03 -9.264841e-03 -8.736135e-03 -8.058678e-03 -7.460875e-03 -6.721106e-03 -6.070314e-03 -5.286325e-03 -4.600462e-03 -3.791919e-03 -3.089904e-03 -2.277169e-03 -1.578015e-03 -7.811962e-04 -1.030875e-04 6.588897e-04 1.299455e-03 2.009700e-03 2.598634e-03 3.242986e-03 3.769157e-03 4.336688e-03 4.792247e-03 5.275553e-03 5.656044e-03 6.051319e-03 6.355590e-03 6.662502e-03 6.892439e-03 7.113839e-03 7.273963e-03 7.415458e-03 7.512434e-03 7.581868e-03 7.623962e-03 7.630840e-03 7.627366e-03 7.582258e-03 7.543047e-03 7.456996e-03 7.391914e-03 7.275887e-03 7.194410e-03 7.058798e-03 6.969669e-03 6.823864e-03 6.734820e-03 6.586876e-03 6.504448e-03 6.360838e-03 6.290225e-03 6.155692e-03 6.100685e-03 5.978192e-03 5.941139e-03 5.831902e-03 5.813704e-03 5.717295e-03 5.717423e-03 5.631927e-03 5.648431e-03 5.570631e-03 5.600165e-03 5.525740e-03 5.563593e-03 5.487316e-03 5.527465e-03 5.443391e-03 5.478608e-03 5.380274e-03 5.402300e-03 5.282926e-03 5.282747e-03 5.135485e-03 5.103714e-03 4.921927e-03 4.849292e-03 4.626897e-03 4.504804e-03 4.236653e-03 4.057789e-03 3.740057e-03 3.498966e-03 3.129530e-03 2.823104e-03 2.401854e-03 2.029678e-03 1.558717e-03 1.123238e-03 6.069577e-04 1.134542e-04 -4.415409e-04 -9.851771e-04 -1.570274e-03 -2.153903e-03 -2.758801e-03 -3.370502e-03 -3.983596e-03 -4.610186e-03 -5.218985e-03 -5.846525e-03 -6.438054e-03 -7.052316e-03 -7.613482e-03 -8.200345e-03 -8.718252e-03 -9.264029e-03 -9.726237e-03 -1.021793e-02 -1.061268e-02 -1.103821e-02 -1.135464e-02 
-2.346187e-02 -2.392265e-02 -2.444668e-02 -2.471395e-02 -2.504791e-02 -2.510801e-02 -2.523932e-02 -2.508253e-02 -2.500298e-02 -2.462423e-02 -2.433061e-02 -2.373020e-02 -2.322499e-02 -2.240927e-02 -2.170111e-02 -2.068289e-02 -1.978688e-02 -1.858565e-02 -1.752325e-02 -1.616492e-02 -1.496350e-02 -1.347974e-02 -1.217169e-02 -1.059886e-02 -9.220205e-03 -7.597839e-03 -6.186666e-03 -4.555713e-03 -3.150299e-03 -1.551207e-03 -1.881718e-04 1.340999e-03 2.628433e-03 4.053720e-03 5.237191e-03 6.530129e-03 7.587229e-03 8.725864e-03 9.640802e-03 1.061027e-02 1.137409e-02 1.216676e-02 1.277716e-02 1.339238e-02 1.385317e-02 1.429668e-02 1.461696e-02 1.490004e-02 1.509322e-02 1.523161e-02 1.531431e-02 1.532710e-02 1.531806e-02 1.522646e-02 1.514543e-02 1.497161e-02 1.483842e-02 1.460439e-02 1.443808e-02 1.416470e-02 1.398284e-02 1.368898e-02 1.350712e-02 1.320896e-02 1.304023e-02 1.275081e-02 1.260567e-02 1.233454e-02 1.222062e-02 1.197380e-02 1.189584e-02 1.167584e-02 1.163568e-02 1.144172e-02 1.143834e-02 1.126666e-02 1.129619e-02 1.114042e-02 1.119621e-02 1.104776e-02 1.112042e-02 1.096886e-02 1.104639e-02 1.087983e-02 1.094781e-02 1.075329e-02 1.079522e-02 1.055912e-02 1.055698e-02 1.026547e-02 1.020049e-02 9.840125e-03 9.693737e-03 9.252161e-03 9.007127e-03 8.473819e-03 8.115452e-03 7.482545e-03 6.999861e-03 6.262906e-03 5.649614e-03 4.808221e-03 4.063426e-03 3.121689e-03 2.250229e-03 1.216879e-03 2.292671e-04 -8.824727e-04 -1.970475e-03 -3.143313e-03 -4.311434e-03 -5.524655e-03 -6.749049e-03 -7.979302e-03 -9.233589e-03 -1.045574e-02 -1.171202e-02 -1.289995e-02 -1.412975e-02 -1.525713e-02 -1.643218e-02 -1.747308e-02 -1.856597e-02 -1.949539e-02 -2.048009e-02 -2.127439e-02 -2.212667e-02 -2.276403e-02 
-3.528400e-02 -3.597745e-02 -3.677032e-02 -3.717263e-02 -3.767907e-02 -3.776960e-02 -3.797063e-02 -3.773457e-02 -3.761771e-02 -3.704727e-02 -3.660760e-02 -3.570305e-02 -3.494419e-02 -3.371491e-02 -3.264981e-02 -3.111502e-02 -2.976638e-02 -2.795537e-02 -2.635561e-02 -2.430746e-02 -2.249795e-02 -2.026055e-02 -1.829025e-02 -1.591862e-02 -1.384211e-02 -1.139612e-02 -9.271064e-03 -6.812743e-03 -4.697094e-03 -2.287708e-03 -2.368794e-04 2.065953e-03 4.001741e-03 6.146649e-03 7.924595e-03 9.868592e-03 1.145497e-02 1.316498e-02 1.453613e-02 1.598987e-02 1.713251e-02 1.831869e-02 1.922963e-02 2.014754e-02 2.083284e-02 2.149145e-02 2.196516e-02 2.238181e-02 2.266448e-02 2.286328e-02 2.298024e-02 2.299031e-02 2.297004e-02 2.282366e-02 2.269615e-02 2.242702e-02 2.222228e-02 2.186379e-02 2.161060e-02 2.119436e-02 2.091922e-02 2.047374e-02 2.020006e-02 1.974975e-02 1.949726e-02 1.906168e-02 1.884605e-02 1.843949e-02 1.827212e-02 1.790342e-02 1.779136e-02 1.746408e-02 1.741002e-02 1.712272e-02 1.712505e-02 1.687178e-02 1.692464e-02 1.669556e-02 1.678887e-02 1.657082e-02 1.669039e-02 1.646749e-02 1.659516e-02 1.634939e-02 1.646329e-02 1.617505e-02 1.625012e-02 1.589884e-02 1.590767e-02 1.547250e-02 1.538645e-02 1.484715e-02 1.463783e-02 1.397578e-02 1.361681e-02 1.281616e-02 1.228502e-02 1.133394e-02 1.061377e-02 9.505573e-03 8.586705e-03 7.320849e-03 6.201874e-03 4.784600e-03 3.472888e-03 1.917442e-03 4.290400e-04 -1.244554e-03 -2.885602e-03 -4.651190e-03 -6.413994e-03 -8.240285e-03 -1.008857e-02 -1.194034e-02 -1.383405e-02 -1.567341e-02 -1.757025e-02 -1.935792e-02 -2.121482e-02 -2.291121e-02 -2.468548e-02 -2.625164e-02 -2.790196e-02 -2.930033e-02 -3.078749e-02 -3.198261e-02 -3.327016e-02 -3.422920e-02 
-4.727424e-02 -4.821272e-02 -4.927702e-02 -4.982522e-02 -5.050568e-02 -5.063562e-02 -5.090644e-02 -5.059794e-02 -5.044202e-02 -4.968421e-02 -4.909449e-02 -4.788734e-02 -4.686827e-02 -4.522401e-02 -4.379260e-02 -4.173670e-02 -3.992319e-02 -3.749483e-02 -3.534266e-02 -3.259431e-02 -3.015912e-02 -2.715524e-02 -2.450309e-02 -2.131789e-02 -1.852251e-02 -1.523683e-02 -1.237620e-02 -9.073838e-03 -6.226385e-03 -2.990130e-03 -2.308274e-04 2.861498e-03 5.464740e-03 8.343805e-03 1.073317e-02 1.334103e-02 1.547105e-02 1.776322e-02 1.960208e-02 2.154868e-02 2.307866e-02 2.466469e-02 2.588172e-02 2.710646e-02 2.801896e-02 2.889474e-02 2.952191e-02 3.007232e-02 3.044207e-02 3.069977e-02 3.084645e-02 3.085081e-02 3.081295e-02 3.060756e-02 3.042565e-02 3.005597e-02 2.977051e-02 2.928155e-02 2.893133e-02 2.836568e-02 2.798638e-02 2.738244e-02 2.700556e-02 2.639620e-02 2.604828e-02 2.545984e-02 2.516193e-02 2.461366e-02 2.438108e-02 2.388494e-02 2.372718e-02 2.328796e-02 2.320868e-02 2.282452e-02 2.282163e-02 2.248464e-02 2.255036e-02 2.224741e-02 2.236837e-02 2.208188e-02 2.223920e-02 2.194794e-02 2.211741e-02 2.179723e-02 2.194965e-02 2.157422e-02 2.167606e-02 2.121764e-02 2.123212e-02 2.066248e-02 2.055108e-02 1.984268e-02 1.956711e-02 1.869445e-02 1.821905e-02 1.716028e-02 1.645451e-02 1.519313e-02 1.423405e-02 1.276052e-02 1.153483e-02 9.847940e-03 8.353512e-03 6.461308e-03 4.707873e-03 2.627956e-03 6.369720e-04 -1.603792e-03 -3.800068e-03 -6.166450e-03 -8.526531e-03 -1.097631e-02 -1.345148e-02 -1.593711e-02 -1.847357e-02 -2.094396e-02 -2.348500e-02 -2.588718e-02 -2.837504e-02 -3.065571e-02 -3.303321e-02 -3.513999e-02 -3.735180e-02 -3.923424e-02 -4.122785e-02 -4.283829e-02 -4.456485e-02 -4.585918e-02 
-5.939266e-02 -6.057671e-02 -6.192535e-02 -6.261878e-02 -6.348388e-02 -6.365115e-02 -6.399999e-02 -6.361521e-02 -6.342586e-02 -6.247478e-02 -6.173793e-02 -6.021990e-02 -5.894072e-02 -5.687059e-02 -5.507018e-02 -5.247966e-02 -5.019596e-02 -4.713422e-02 -4.442203e-02 -4.095531e-02 -3.788510e-02 -3.409507e-02 -3.075070e-02 -2.673155e-02 -2.320673e-02 -1.906126e-02 -1.545520e-02 -1.129002e-02 -7.702452e-03 -3.622861e-03 -1.490798e-04 3.746006e-03 7.019836e-03 1.064243e-02 1.364314e-02 1.691991e-02 1.959018e-02 2.246503e-02 2.476507e-02 2.720062e-02 2.910864e-02 3.108649e-02 3.259810e-02 3.411808e-02 3.524473e-02 3.632325e-02 3.709005e-02 3.775778e-02 3.820080e-02 3.849986e-02 3.866321e-02 3.864415e-02 3.857709e-02 3.829572e-02 3.804986e-02 3.756420e-02 3.719097e-02 3.655837e-02 3.610692e-02 3.538148e-02 3.489688e-02 3.412727e-02 3.364919e-02 3.287692e-02 3.243867e-02 3.169683e-02 3.132477e-02 3.063732e-02 3.035054e-02 2.973211e-02 2.954235e-02 2.899848e-02 2.891019e-02 2.843792e-02 2.844834e-02 2.803715e-02 2.813643e-02 2.776922e-02 2.794049e-02 2.759467e-02 2.781411e-02 2.746259e-02 2.769961e-02 2.731171e-02 2.752929e-02 2.707167e-02 2.722718e-02 2.666476e-02 2.671121e-02 2.600832e-02 2.589633e-02 2.501810e-02 2.469843e-02 2.361253e-02 2.303916e-02 2.171784e-02 2.085126e-02 1.927347e-02 1.808389e-02 1.623745e-02 1.470755e-02 1.259084e-02 1.071769e-02 8.340862e-03 6.136870e-03 3.522239e-03 1.014898e-03 -1.803438e-03 -4.572783e-03 -7.550141e-03 -1.052839e-02 -1.361128e-02 -1.673621e-02 -1.986451e-02 -2.306760e-02 -2.617680e-02 -2.938602e-02 -3.240940e-02 -3.555161e-02 -3.842214e-02 -4.142513e-02 -4.407705e-02 -4.687109e-02 -4.924109e-02 -5.176016e-02 -5.378844e-02 -5.597111e-02 -5.760229e-02 
-7.179343e-02 -7.324402e-02 -7.488166e-02 -7.573876e-02 -7.679147e-02 -7.701141e-02 -7.743886e-02 -7.698952e-02 -7.676424e-02 -7.562739e-02 -7.473714e-02 -7.291104e-02 -7.136107e-02 -6.886279e-02 -6.667786e-02 -6.354512e-02 -6.077071e-02 -5.706276e-02 -5.376514e-02 -4.956233e-02 -4.582729e-02 -4.122912e-02 -3.715914e-02 -3.228073e-02 -2.799062e-02 -2.295782e-02 -1.856930e-02 -1.351274e-02 -9.148267e-03 -4.196996e-03 2.650105e-05 4.751350e-03 8.728239e-03 1.311908e-02 1.675985e-02 2.072719e-02 2.396197e-02 2.743764e-02 3.021819e-02 3.315704e-02 3.545731e-02 3.783749e-02 3.965280e-02 4.147480e-02 4.281987e-02 4.410439e-02 4.501059e-02 4.579570e-02 4.630768e-02 4.664533e-02 4.681747e-02 4.676976e-02 4.666255e-02 4.629790e-02 4.597456e-02 4.536393e-02 4.488735e-02 4.410082e-02 4.353094e-02 4.263454e-02 4.202625e-02 4.107930e-02 4.048083e-02 3.953387e-02 3.898566e-02 3.807895e-02 3.761292e-02 3.677558e-02 3.641485e-02 3.566458e-02 3.542336e-02 3.476682e-02 3.465052e-02 3.408407e-02 3.408944e-02 3.360028e-02 3.371556e-02 3.328299e-02 3.348799e-02 3.308467e-02 3.335084e-02 3.294398e-02 3.323454e-02 3.278703e-02 3.305736e-02 3.252868e-02 3.272718e-02 3.207457e-02 3.214414e-02 3.132386e-02 3.120424e-02 3.017323e-02 2.980410e-02 2.852215e-02 2.784688e-02 2.627911e-02 2.524888e-02 2.336852e-02 2.194631e-02 1.973738e-02 1.790142e-02 1.536099e-02 1.310720e-02 1.024692e-02 7.590058e-03 4.436713e-03 1.410104e-03 -1.994901e-03 -5.340930e-03 -8.943058e-03 -1.254382e-02 -1.627768e-02 -2.005739e-02 -2.384948e-02 -2.772483e-02 -3.149638e-02 -3.537991e-02 -3.904961e-02 -4.285269e-02 -4.633901e-02 -4.997427e-02 -5.319735e-02 -5.658054e-02 -5.946364e-02 -6.251499e-02 -6.498563e-02 -6.763091e-02 -6.962192e-02 
-8.439046e-02 -8.610860e-02 -8.805476e-02 -8.907484e-02 -9.033129e-02 -9.060116e-02 -9.111973e-02 -9.060049e-02 -9.034791e-02 -8.901683e-02 -8.797763e-02 -8.583130e-02 -8.401067e-02 -8.106800e-02 -7.849430e-02 -7.479889e-02 -7.152533e-02 -6.714665e-02 -6.325152e-02 -5.828460e-02 -5.386984e-02 -4.843298e-02 -4.362080e-02 -3.785135e-02 -3.277902e-02 -2.682745e-02 -2.164062e-02 -1.566326e-02 -1.050849e-02 -4.659743e-03 3.231804e-04 5.898550e-03 1.058362e-02 1.575732e-02 2.003816e-02 2.470386e-02 2.849788e-02 3.257504e-02 3.582585e-02 3.926170e-02 4.193958e-02 4.470938e-02 4.681026e-02 4.891601e-02 5.045898e-02 5.192683e-02 5.295071e-02 5.382743e-02 5.438671e-02 5.473549e-02 5.489598e-02 5.479195e-02 5.462646e-02 5.415203e-02 5.373629e-02 5.297668e-02 5.238575e-02 5.142485e-02 5.072997e-02 4.964658e-02 4.891278e-02 4.777747e-02 4.706162e-02 4.593424e-02 4.528385e-02 4.421174e-02 4.366414e-02 4.268118e-02 4.226324e-02 4.138957e-02 4.111767e-02 4.036017e-02 4.024040e-02 3.959373e-02 3.962208e-02 3.907007e-02 3.923263e-02 3.874988e-02 3.902290e-02 3.857639e-02 3.892626e-02 3.847673e-02 3.886004e-02 3.836329e-02 3.872713e-02 3.813513e-02 3.841796e-02 3.768001e-02 3.781338e-02 3.687755e-02 3.678878e-02 3.560385e-02 3.521980e-02 3.373774e-02 3.298944e-02 3.116840e-02 2.999613e-02 2.780381e-02 2.616212e-02 2.357903e-02 2.144100e-02 1.846327e-02 1.582356e-02 1.246484e-02 9.341074e-03 5.633173e-03 2.065550e-03 -1.942195e-03 -5.892933e-03 -1.013552e-02 -1.439144e-02 -1.879104e-02 -2.326111e-02 -2.773040e-02 -3.231492e-02 -3.676062e-02 -4.135533e-02 -4.568140e-02 -5.018111e-02 -5.429152e-02 -5.859292e-02 -6.239385e-02 -6.639763e-02 -6.979901e-02 -7.341135e-02 -7.632815e-02 -7.946182e-02 -8.181512e-02 
-9.738726e-02 -9.940300e-02 -1.016650e-01 -1.028746e-01 -1.043399e-01 -1.046820e-01 -1.052935e-01 -1.047215e-01 -1.044391e-01 -1.029250e-01 -1.017289e-01 -9.926675e-02 -9.716111e-02 -9.377110e-02 -9.078718e-02 -8.651837e-02 -8.271674e-02 -7.764888e-02 -7.312000e-02 -6.736325e-02 -6.222590e-02 -5.591832e-02 -5.031567e-02 -4.361822e-02 -3.771166e-02 -3.080108e-02 -2.476221e-02 -1.782239e-02 -1.182395e-02 -5.036483e-03 7.568627e-04 7.221885e-03 1.266197e-02 1.865414e-02 2.361626e-02 2.901136e-02 3.339921e-02 3.810365e-02 4.185203e-02 4.580508e-02 4.888043e-02 5.205443e-02 5.445337e-02 5.685206e-02 5.859842e-02 6.025374e-02 6.139436e-02 6.236229e-02 6.296216e-02 6.331768e-02 6.345477e-02 6.328656e-02 6.304675e-02 6.245176e-02 6.192403e-02 6.100231e-02 6.027455e-02 5.912433e-02 5.827979e-02 5.699320e-02 5.610759e-02 5.476701e-02 5.390644e-02 5.258158e-02 5.180108e-02 5.054697e-02 4.988970e-02 4.874554e-02 4.824246e-02 4.723142e-02 4.690135e-02 4.603113e-02 4.588106e-02 4.514514e-02 4.517054e-02 4.454993e-02 4.473494e-02 4.420008e-02 4.451764e-02 4.403022e-02 4.444196e-02 4.395660e-02 4.441279e-02 4.387834e-02 4.431810e-02 4.367886e-02 4.403099e-02 4.322785e-02 4.341266e-02 4.238467e-02 4.231708e-02 4.100358e-02 4.059744e-02 3.894096e-02 3.811460e-02 3.606451e-02 3.474680e-02 3.226339e-02 3.039980e-02 2.745838e-02 2.501621e-02 2.161058e-02 1.858267e-02 1.472753e-02 1.113391e-02 6.865734e-03 2.753179e-03 -1.870584e-03 -6.431056e-03 -1.133429e-02 -1.625150e-02 -2.134291e-02 -2.651048e-02 -3.168774e-02 -3.698943e-02 -4.214341e-02 -4.745803e-02 -5.247672e-02 -5.768235e-02 -6.245413e-02 -6.743136e-02 -7.184743e-02 -7.648174e-02 -8.043792e-02 -8.462119e-02 -8.801917e-02 -9.165082e-02 -9.439928e-02 
-1.106531e-01 -1.129681e-01 -1.155723e-01 -1.169712e-01 -1.186671e-01 -1.190784e-01 -1.197999e-01 -1.191690e-01 -1.188686e-01 -1.171609e-01 -1.158142e-01 -1.130206e-01 -1.106301e-01 -1.067714e-01 -1.033712e-01 -9.850140e-02 -9.415965e-02 -8.836903e-02 -8.318901e-02 -7.660361e-02 -7.072208e-02 -6.350105e-02 -5.708378e-02 -4.941358e-02 -4.264804e-02 -3.473403e-02 -2.781987e-02 -1.987592e-02 -1.301412e-02 -5.251400e-03 1.366694e-03 8.750716e-03 1.495345e-02 2.178468e-02 2.742827e-02 3.356359e-02 3.853785e-02 4.387024e-02 4.810160e-02 5.256265e-02 5.601459e-02 5.957452e-02 6.224570e-02 6.491122e-02 6.683179e-02 6.864233e-02 6.986887e-02 7.089145e-02 7.150122e-02 7.182464e-02 7.190946e-02 7.163801e-02 7.129830e-02 7.054549e-02 6.988476e-02 6.876720e-02 6.788719e-02 6.651905e-02 6.551563e-02 6.400359e-02 6.296358e-02 6.140263e-02 6.040143e-02 5.887153e-02 5.797158e-02 5.653532e-02 5.578528e-02 5.448665e-02 5.392115e-02 5.278536e-02 5.242526e-02 5.145950e-02 5.131226e-02 5.050737e-02 5.056756e-02 4.990013e-02 5.014970e-02 4.958443e-02 4.999277e-02 4.948474e-02 5.000839e-02 4.950498e-02 5.008741e-02 4.952974e-02 5.010127e-02 4.942545e-02 4.990397e-02 4.904225e-02 4.933510e-02 4.821742e-02 4.822490e-02 4.678119e-02 4.640164e-02 4.456514e-02 4.370157e-02 4.141302e-02 3.998050e-02 3.719305e-02 3.512615e-02 3.181023e-02 2.906940e-02 2.521701e-02 2.179310e-02 1.742068e-02 1.333693e-02 8.486424e-03 3.797782e-03 -1.464351e-03 -6.674423e-03 -1.226005e-02 -1.788464e-02 -2.368822e-02 -2.960313e-02 -3.550667e-02 -4.157684e-02 -4.745502e-02 -5.354040e-02 -5.926511e-02 -6.522558e-02 -7.066965e-02 -7.636873e-02 -8.140864e-02 -8.671594e-02 -9.123366e-02 -9.602647e-02 -9.991066e-02 -1.040749e-01 -1.072219e-01 
-1.244403e-01 -1.270946e-01 -1.300517e-01 -1.316753e-01 -1.336100e-01 -1.341207e-01 -1.349563e-01 -1.342898e-01 -1.339700e-01 -1.320844e-01 -1.305783e-01 -1.274601e-01 -1.247675e-01 -1.204367e-01 -1.165931e-01 -1.111086e-01 -1.061892e-01 -9.965131e-02 -9.377237e-02 -8.632367e-02 -7.964081e-02 -7.146287e-02 -6.416616e-02 -5.547290e-02 -4.777828e-02 -3.880604e-02 -3.094405e-02 -2.193936e-02 -1.414223e-02 -5.348430e-03 2.162961e-03 1.051865e-02 1.754667e-02 2.526453e-02 3.164435e-02 3.856097e-02 4.416717e-02 5.016128e-02 5.491117e-02 5.990629e-02 6.376021e-02 6.772451e-02 7.068342e-02 7.362699e-02 7.572794e-02 7.769824e-02 7.900840e-02 8.008425e-02 8.069409e-02 8.097883e-02 8.099501e-02 8.060929e-02 8.014782e-02 7.922239e-02 7.840227e-02 7.707107e-02 7.600878e-02 7.440257e-02 7.320750e-02 7.144821e-02 7.021906e-02 6.841501e-02 6.723721e-02 6.547933e-02 6.442333e-02 6.278256e-02 6.190304e-02 6.042892e-02 5.976462e-02 5.848514e-02 5.805924e-02 5.698186e-02 5.680258e-02 5.591620e-02 5.597745e-02 5.525497e-02 5.553675e-02 5.493786e-02 5.540629e-02 5.488011e-02 5.548707e-02 5.497423e-02 5.565683e-02 5.509105e-02 5.577130e-02 5.508044e-02 5.566574e-02 5.477286e-02 5.515788e-02 5.398269e-02 5.405312e-02 5.251444e-02 5.215288e-02 5.017238e-02 4.926598e-02 4.677318e-02 4.522246e-02 4.216063e-02 3.988833e-02 3.622056e-02 3.317935e-02 2.889379e-02 2.507170e-02 2.018523e-02 1.560807e-02 1.016762e-02 4.898106e-03 -1.020511e-03 -6.886617e-03 -1.318222e-02 -1.952223e-02 -2.607348e-02 -3.274516e-02 -3.941664e-02 -4.626585e-02 -5.291418e-02 -5.978179e-02 -6.626103e-02 -7.298856e-02 -7.915450e-02 -8.558820e-02 -9.130135e-02 -9.729483e-02 -1.024223e-01 -1.078380e-01 -1.122546e-01 -1.169646e-01 -1.205536e-01 
-1.385753e-01 -1.415715e-01 -1.449149e-01 -1.467637e-01 -1.489652e-01 -1.495729e-01 -1.505447e-01 -1.498363e-01 -1.495127e-01 -1.474376e-01 -1.457805e-01 -1.423192e-01 -1.393248e-01 -1.344957e-01 -1.302008e-01 -1.240665e-01 -1.185533e-01 -1.112247e-01 -1.046230e-01 -9.625997e-02 -8.874588e-02 -7.955422e-02 -7.134437e-02 -6.156807e-02 -5.290966e-02 -4.281931e-02 -3.397680e-02 -2.385506e-02 -1.509486e-02 -5.220623e-03 3.204332e-03 1.257121e-02 2.043545e-02 2.906745e-02 3.618408e-02 4.389618e-02 5.012436e-02 5.678059e-02 6.202916e-02 6.754543e-02 7.177291e-02 7.611647e-02 7.932798e-02 8.251408e-02 8.475580e-02 8.684216e-02 8.819423e-02 8.927401e-02 8.984251e-02 9.003632e-02 8.994504e-02 8.939264e-02 8.877514e-02 8.762720e-02 8.661963e-02 8.502982e-02 8.376468e-02 8.188246e-02 8.048350e-02 7.844768e-02 7.702591e-02 7.495923e-02 7.361012e-02 7.161499e-02 7.041676e-02 6.857230e-02 6.758513e-02 6.594563e-02 6.521172e-02 6.380661e-02 6.335082e-02 6.218601e-02 6.201673e-02 6.107704e-02 6.118710e-02 6.043952e-02 6.080671e-02 6.020379e-02 6.079080e-02 6.027383e-02 6.102770e-02 6.052915e-02 6.138024e-02 6.082540e-02 6.168656e-02 6.099452e-02 6.176119e-02 6.084558e-02 6.139747e-02 6.016781e-02 6.037304e-02 5.873716e-02 5.845900e-02 5.632716e-02 5.543315e-02 5.272384e-02 5.109645e-02 4.774334e-02 4.529075e-02 4.124995e-02 3.791547e-02 3.317193e-02 2.894057e-02 2.351249e-02 1.841381e-02 1.235424e-02 6.461110e-03 -1.435250e-04 -6.719848e-03 -1.375404e-02 -2.087150e-02 -2.819697e-02 -3.569180e-02 -4.315484e-02 -5.085069e-02 -5.828936e-02 -6.600547e-02 -7.325591e-02 -8.081357e-02 -8.771473e-02 -9.494179e-02 -1.013386e-01 -1.080721e-01 -1.138174e-01 -1.199047e-01 -1.248598e-01 -1.301591e-01 -1.341946e-01 
-1.533585e-01 -1.567472e-01 -1.604923e-01 -1.626118e-01 -1.650925e-01 -1.658362e-01 -1.669521e-01 -1.662329e-01 -1.659066e-01 -1.636633e-01 -1.618473e-01 -1.580529e-01 -1.547376e-01 -1.494073e-01 -1.446289e-01 -1.378281e-01 -1.316749e-01 -1.235244e-01 -1.161397e-01 -1.068175e-01 -9.839902e-02 -8.813685e-02 -7.893008e-02 -6.800468e-02 -5.829143e-02 -4.701100e-02 -3.709362e-02 -2.578064e-02 -1.596393e-02 -4.936490e-03 4.490626e-03 1.493682e-02 2.371767e-02 3.332477e-02 4.124783e-02 4.980744e-02 5.671479e-02 6.407527e-02 6.986648e-02 7.593579e-02 8.056751e-02 8.531227e-02 8.879427e-02 9.223554e-02 9.462408e-02 9.683077e-02 9.822014e-02 9.930071e-02 9.981392e-02 9.990727e-02 9.968656e-02 9.895254e-02 9.815034e-02 9.676040e-02 9.553127e-02 9.365966e-02 9.215327e-02 8.996895e-02 8.832446e-02 8.598398e-02 8.432569e-02 8.196709e-02 8.040144e-02 7.813951e-02 7.675324e-02 7.467621e-02 7.353565e-02 7.170354e-02 7.085484e-02 6.929946e-02 6.876949e-02 6.749609e-02 6.729368e-02 6.628394e-02 6.640102e-02 6.561694e-02 6.602932e-02 6.541724e-02 6.608457e-02 6.557888e-02 6.644383e-02 6.596967e-02 6.695650e-02 6.643134e-02 6.744450e-02 6.677877e-02 6.770238e-02 6.679983e-02 6.749915e-02 6.625772e-02 6.658341e-02 6.489769e-02 6.469342e-02 6.245920e-02 6.157215e-02 5.869323e-02 5.698671e-02 5.338328e-02 5.074960e-02 4.636724e-02 4.273896e-02 3.755654e-02 3.291447e-02 2.694971e-02 2.132628e-02 1.463775e-02 8.115480e-03 8.008411e-04 -6.493605e-03 -1.430290e-02 -2.220792e-02 -3.035438e-02 -3.868429e-02 -4.699331e-02 -5.554914e-02 -6.383765e-02 -7.241669e-02 -8.050058e-02 -8.890369e-02 -9.660316e-02 -1.046396e-01 -1.117826e-01 -1.192728e-01 -1.256966e-01 -1.324726e-01 -1.380244e-01 -1.439303e-01 -1.484670e-01 
-1.685750e-01 -1.723604e-01 -1.765477e-01 -1.789402e-01 -1.817347e-01 -1.826138e-01 -1.839015e-01 -1.831664e-01 -1.828575e-01 -1.804345e-01 -1.784707e-01 -1.743231e-01 -1.706880e-01 -1.648260e-01 -1.595541e-01 -1.520447e-01 -1.452300e-01 -1.362036e-01 -1.280040e-01 -1.176577e-01 -1.082943e-01 -9.688806e-02 -8.663838e-02 -7.448539e-02 -6.366961e-02 -5.112026e-02 -4.008293e-02 -2.750442e-02 -1.659285e-02 -4.347149e-03 6.110192e-03 1.768758e-02 2.740030e-02 3.801826e-02 4.674886e-02 5.617396e-02 6.374733e-02 7.181178e-02 7.811919e-02 8.472373e-02 8.972185e-02 9.483410e-02 9.853997e-02 1.021892e-01 1.046722e-01 1.069415e-01 1.083132e-01 1.093297e-01 1.097332e-01 1.096577e-01 1.092568e-01 1.082727e-01 1.072412e-01 1.055443e-01 1.040573e-01 1.018455e-01 1.000714e-01 9.753602e-02 9.563030e-02 9.294774e-02 9.104853e-02 8.837355e-02 8.659816e-02 8.405858e-02 8.250177e-02 8.019475e-02 7.892817e-02 7.691835e-02 7.599115e-02 7.431083e-02 7.375094e-02 7.240224e-02 7.221808e-02 7.117660e-02 7.135872e-02 7.057839e-02 7.110040e-02 7.051847e-02 7.133703e-02 7.087851e-02 7.193208e-02 7.151294e-02 7.271962e-02 7.224833e-02 7.350349e-02 7.288133e-02 7.405621e-02 7.317695e-02 7.411954e-02 7.286982e-02 7.340934e-02 7.167079e-02 7.162631e-02 6.928047e-02 6.847345e-02 6.540957e-02 6.367906e-02 5.980407e-02 5.702248e-02 5.227176e-02 4.835861e-02 4.270567e-02 3.763730e-02 3.110047e-02 2.491398e-02 1.755890e-02 1.034998e-02 2.287335e-03 -5.797314e-03 -1.441830e-02 -2.319243e-02 -3.219346e-02 -4.144454e-02 -5.062892e-02 -6.013116e-02 -6.929410e-02 -7.881958e-02 -8.775664e-02 -9.708359e-02 -1.055967e-01 -1.145147e-01 -1.224156e-01 -1.307277e-01 -1.378391e-01 -1.453624e-01 -1.515179e-01 -1.580828e-01 -1.631262e-01 
-1.845722e-01 -1.888165e-01 -1.934674e-01 -1.961894e-01 -1.993164e-01 -2.003803e-01 -2.018538e-01 -2.011429e-01 -2.008574e-01 -1.982835e-01 -1.961671e-01 -1.916812e-01 -1.877071e-01 -1.813119e-01 -1.755105e-01 -1.672727e-01 -1.597419e-01 -1.498010e-01 -1.407128e-01 -1.292855e-01 -1.188858e-01 -1.062627e-01 -9.486400e-02 -8.139824e-02 -6.936396e-02 -5.545281e-02 -4.317520e-02 -2.923577e-02 -1.711049e-02 -3.553597e-03 8.045975e-03 2.084070e-02 3.158599e-02 4.329092e-02 5.291524e-02 6.326976e-02 7.157884e-02 8.039802e-02 8.727409e-02 9.445132e-02 9.985129e-02 1.053558e-01 1.093049e-01 1.131754e-01 1.157574e-01 1.180923e-01 1.194381e-01 1.203847e-01 1.206592e-01 1.204014e-01 1.197913e-01 1.185375e-01 1.172400e-01 1.152111e-01 1.134231e-01 1.108419e-01 1.087521e-01 1.058329e-01 1.036144e-01 1.005544e-01 9.836036e-02 9.533221e-02 9.329181e-02 9.043746e-02 8.865444e-02 8.608109e-02 8.463324e-02 8.241132e-02 8.135130e-02 7.951476e-02 7.887188e-02 7.742076e-02 7.720324e-02 7.610815e-02 7.630521e-02 7.551311e-02 7.609634e-02 7.553658e-02 7.646000e-02 7.604951e-02 7.724799e-02 7.689483e-02 7.828122e-02 7.788599e-02 7.934768e-02 7.880306e-02 8.019947e-02 7.938899e-02 8.055169e-02 7.934914e-02 8.008623e-02 7.835742e-02 7.846306e-02 7.607113e-02 7.534001e-02 7.215459e-02 7.039993e-02 6.630921e-02 6.338153e-02 5.830563e-02 5.410946e-02 4.801242e-02 4.251793e-02 3.541624e-02 2.866399e-02 2.062968e-02 1.272796e-02 3.885838e-03 -4.998590e-03 -1.447902e-02 -2.413480e-02 -3.405100e-02 -4.423810e-02 -5.436760e-02 -6.483272e-02 -7.494543e-02 -8.543496e-02 -9.530312e-02 -1.055724e-01 -1.149773e-01 -1.247961e-01 -1.335316e-01 -1.426860e-01 -1.505590e-01 -1.588511e-01 -1.656810e-01 -1.729269e-01 -1.785440e-01 
-2.010956e-01 -2.058049e-01 -2.109674e-01 -2.140240e-01 -2.175252e-01 -2.187765e-01 -2.204702e-01 -2.197818e-01 -2.195455e-01 -2.168115e-01 -2.145575e-01 -2.097135e-01 -2.054029e-01 -1.984412e-01 -1.920983e-01 -1.830830e-01 -1.748090e-01 -1.638878e-01 -1.538692e-01 -1.412795e-01 -1.297894e-01 -1.158554e-01 -1.032455e-01 -8.836548e-02 -7.504773e-02 -5.967210e-02 -4.609255e-02 -3.069523e-02 -1.730376e-02 -2.350936e-03 1.042926e-02 2.450846e-02 3.630724e-02 4.914485e-02 5.966464e-02 7.097082e-02 7.999827e-02 8.957056e-02 9.698035e-02 1.047059e-01 1.104579e-01 1.163100e-01 1.204412e-01 1.244709e-01 1.270837e-01 1.294091e-01 1.306576e-01 1.314503e-01 1.315254e-01 1.309972e-01 1.301127e-01 1.285013e-01 1.268806e-01 1.244366e-01 1.223015e-01 1.192764e-01 1.168373e-01 1.134722e-01 1.109214e-01 1.074370e-01 1.049428e-01 1.015315e-01 9.923488e-02 9.605357e-02 9.406634e-02 9.123205e-02 8.963684e-02 8.722435e-02 8.607587e-02 8.411825e-02 8.344577e-02 8.193754e-02 8.174791e-02 8.065069e-02 8.093114e-02 8.018074e-02 8.090078e-02 8.041469e-02 8.152614e-02 8.120995e-02 8.264488e-02 8.239642e-02 8.406304e-02 8.377373e-02 8.555135e-02 8.510498e-02 8.683974e-02 8.610989e-02 8.761366e-02 8.646192e-02 8.751642e-02 8.579334e-02 8.616090e-02 8.371157e-02 8.315238e-02 7.982681e-02 7.812076e-02 7.378837e-02 7.075821e-02 6.532399e-02 6.085582e-02 5.427507e-02 4.833256e-02 4.062128e-02 3.325122e-02 2.448990e-02 1.581842e-02 6.148518e-03 -3.630769e-03 -1.401684e-02 -2.466021e-02 -3.553340e-02 -4.676652e-02 -5.787693e-02 -6.941343e-02 -8.050490e-02 -9.206143e-02 -1.028830e-01 -1.141896e-01 -1.245028e-01 -1.353083e-01 -1.448903e-01 -1.549639e-01 -1.636075e-01 -1.727367e-01 -1.802485e-01 -1.882363e-01 -1.944336e-01 
-2.185379e-01 -2.237871e-01 -2.294902e-01 -2.329506e-01 -2.368532e-01 -2.383536e-01 -2.402901e-01 -2.396760e-01 -2.395031e-01 -2.366476e-01 -2.342574e-01 -2.290773e-01 -2.244138e-01 -2.168873e-01 -2.099647e-01 -2.001504e-01 -1.910701e-01 -1.791222e-01 -1.680843e-01 -1.542614e-01 -1.415680e-01 -1.262306e-01 -1.122766e-01 -9.587323e-02 -8.112552e-02 -6.416649e-02 -4.913289e-02 -3.215608e-02 -1.734876e-02 -8.826052e-04 1.321809e-02 2.868922e-02 4.166573e-02 5.572941e-02 6.724935e-02 7.958406e-02 8.941285e-02 9.979773e-02 1.078020e-01 1.161183e-01 1.222616e-01 1.284878e-01 1.328205e-01 1.370220e-01 1.396673e-01 1.419835e-01 1.431210e-01 1.437500e-01 1.435991e-01 1.427820e-01 1.415857e-01 1.395910e-01 1.376010e-01 1.347104e-01 1.321748e-01 1.286693e-01 1.258224e-01 1.219707e-01 1.190250e-01 1.150727e-01 1.122133e-01 1.083734e-01 1.057543e-01 1.022001e-01 9.994241e-02 9.680220e-02 9.499429e-02 9.234858e-02 9.104783e-02 8.893010e-02 8.816603e-02 8.656654e-02 8.634460e-02 8.521713e-02 8.552243e-02 8.479288e-02 8.559277e-02 8.516823e-02 8.641262e-02 8.618904e-02 8.780792e-02 8.767489e-02 8.957310e-02 8.941478e-02 9.146520e-02 9.115782e-02 9.319506e-02 9.260250e-02 9.442013e-02 9.339028e-02 9.474431e-02 9.310893e-02 9.372956e-02 9.131005e-02 9.092155e-02 8.754122e-02 8.588783e-02 8.138958e-02 7.826340e-02 7.252978e-02 6.779556e-02 6.076733e-02 5.437980e-02 4.606906e-02 3.807961e-02 2.857464e-02 1.912660e-02 8.587438e-03 -2.098421e-03 -1.345252e-02 -2.509914e-02 -3.700749e-02 -4.930506e-02 -6.148500e-02 -7.411297e-02 -8.627744e-02 -9.892200e-02 -1.107929e-01 -1.231585e-01 -1.344748e-01 -1.462897e-01 -1.568103e-01 -1.678268e-01 -1.773294e-01 -1.873212e-01 -1.955990e-01 -2.043561e-01 -2.112134e-01 