# vtk DataFile Version 2.0
Comment goes here
ASCII

DATASET STRUCTURED_POINTS
FIELD FieldData 1
TIME 1 1 double
0.21000000
DIMENSIONS    128   128   1

ORIGIN    0.000   0.000   0.000
SPACING   0.039062 0.039062   1.000

POINT_DATA   16384
SCALARS uY double
LOOKUP_TABLE default

-4.066621e-14 -4.071401e-14 -4.070774e-14 -4.068013e-14 -4.068707e-14 -4.071784e-14 -4.071162e-14 -4.048808e-14 -4.125644e-14 -4.112950e-14 -4.217882e-14 -4.246241e-14 -4.299677e-14 -4.350454e-14 -4.477780e-14 -4.503345e-14 -4.602688e-14 -4.592163e-14 -4.784138e-14 -4.694834e-14 -4.835856e-14 -4.823863e-14 -5.038201e-14 -4.968228e-14 -5.126537e-14 -4.931234e-14 -5.075711e-14 -4.915889e-14 -5.187094e-14 -4.855680e-14 -4.964244e-14 -4.729381e-14 -5.070705e-14 -4.873122e-14 -5.127503e-14 -4.864716e-14 -5.050426e-14 -4.873707e-14 -5.181685e-14 -4.914487e-14 -5.148893e-14 -4.765790e-14 -4.952306e-14 -4.633617e-14 -4.766589e-14 -4.378647e-14 -4.598864e-14 -4.215969e-14 -4.455935e-14 -4.070112e-14 -4.371138e-14 -3.939881e-14 -4.211949e-14 -3.815202e-14 -4.006464e-14 -3.636492e-14 -3.866130e-14 -3.495523e-14 -3.642942e-14 -3.290926e-14 -3.451150e-14 -3.150561e-14 -3.288944e-14 -2.927524e-14 -3.108678e-14 -2.883114e-14 -3.073871e-14 -2.814545e-14 -3.050511e-14 -2.843721e-14 -3.100157e-14 -2.926635e-14 -3.133795e-14 -3.125150e-14 -3.349168e-14 -3.433527e-14 -3.577841e-14 -3.694315e-14 -3.854458e-14 -4.042815e-14 -4.094201e-14 -4.242365e-14 -4.160660e-14 -4.496428e-14 -4.443578e-14 -4.563329e-14 -4.594179e-14 -4.803732e-14 -4.667205e-14 -5.005400e-14 -4.824459e-14 -4.914969e-14 -4.709098e-14 -5.162123e-14 -4.922742e-14 -5.215140e-14 -5.063022e-14 -5.319355e-14 -5.038540e-14 -5.176927e-14 -5.009626e-14 -5.069711e-14 -4.959934e-14 -4.991258e-14 -4.709599e-14 -4.799323e-14 -4.504336e-14 -4.570302e-14 -4.352759e-14 -4.466360e-14 -4.275414e-14 -4.355789e-14 -4.185253e-14 -4.269148e-14 -4.153793e-14 -4.236599e-14 -4.141567e-14 -4.208259e-14 -4.109828e-14 -4.147535e-14 -4.054375e-14 -4.084858e-14 -3.987418e-14 -4.034548e-14 -4.011352e-14 -4.035224e-14 -4.019520e-14 -4.088912e-14 
-1.147241e-02 -1.172427e-02 -1.200585e-02 -1.216982e-02 -1.237291e-02 -1.244139e-02 -1.255640e-02 -1.252333e-02 -1.254255e-02 -1.240376e-02 -1.232188e-02 -1.207552e-02 -1.188993e-02 -1.153685e-02 -1.124802e-02 -1.079206e-02 -1.040375e-02 -9.851931e-03 -9.371241e-03 -8.733743e-03 -8.170993e-03 -7.460998e-03 -6.829391e-03 -6.062662e-03 -5.377757e-03 -4.572052e-03 -3.851072e-03 -3.025401e-03 -2.286429e-03 -1.460215e-03 -7.213580e-04 8.642309e-05 8.078551e-04 1.579498e-03 2.267709e-03 2.987503e-03 3.628790e-03 4.283600e-03 4.866769e-03 5.446449e-03 5.963035e-03 6.460660e-03 6.904981e-03 7.316906e-03 7.685959e-03 8.011709e-03 8.304937e-03 8.546959e-03 8.765929e-03 8.929227e-03 9.077252e-03 9.168931e-03 9.250679e-03 9.279433e-03 9.300536e-03 9.276105e-03 9.242819e-03 9.175437e-03 9.094345e-03 8.994214e-03 8.872001e-03 8.748799e-03 8.592092e-03 8.454548e-03 8.269813e-03 8.125357e-03 7.918850e-03 7.773351e-03 7.551098e-03 7.408701e-03 7.176488e-03 7.039545e-03 6.802894e-03 6.671994e-03 6.436103e-03 6.310186e-03 6.079820e-03 5.956359e-03 5.735682e-03 5.610919e-03 5.403270e-03 5.272495e-03 5.080126e-03 4.937969e-03 4.761781e-03 4.602519e-03 4.441831e-03 4.259690e-03 4.112092e-03 3.901544e-03 3.762874e-03 3.518920e-03 3.383396e-03 3.101837e-03 2.962364e-03 2.640040e-03 2.488675e-03 2.123683e-03 1.952222e-03 1.544086e-03 1.344730e-03 8.945181e-04 6.605434e-04 1.709277e-04 -1.027144e-04 -6.274673e-04 -9.436675e-04 -1.497776e-03 -1.856953e-03 -2.433260e-03 -2.833232e-03 -3.423394e-03 -3.859429e-03 -4.454138e-03 -4.919151e-03 -5.508369e-03 -5.993243e-03 -6.566427e-03 -7.060393e-03 -7.606709e-03 -8.097764e-03 -8.606277e-03 -9.081600e-03 -9.541441e-03 -9.987795e-03 -1.038833e-02 -1.079245e-02 -1.112345e-02 
-2.297759e-02 -2.348530e-02 -2.405104e-02 -2.438272e-02 -2.479082e-02 -2.493123e-02 -2.516239e-02 -2.509930e-02 -2.513809e-02 -2.486308e-02 -2.469875e-02 -2.420805e-02 -2.383538e-02 -2.313060e-02 -2.255052e-02 -2.163932e-02 -2.085936e-02 -1.975575e-02 -1.879019e-02 -1.751460e-02 -1.638421e-02 -1.496308e-02 -1.369442e-02 -1.215942e-02 -1.078383e-02 -9.170637e-03 -7.722768e-03 -6.069593e-03 -4.585849e-03 -2.931725e-03 -1.448530e-03 1.684178e-04 1.616259e-03 3.160475e-03 4.541228e-03 5.981185e-03 7.267358e-03 8.576724e-03 9.745884e-03 1.090435e-02 1.193958e-02 1.293334e-02 1.382331e-02 1.464514e-02 1.538394e-02 1.603300e-02 1.661961e-02 1.710092e-02 1.753858e-02 1.786231e-02 1.815776e-02 1.833828e-02 1.850096e-02 1.855581e-02 1.859706e-02 1.854589e-02 1.847828e-02 1.834171e-02 1.817845e-02 1.797701e-02 1.773149e-02 1.748463e-02 1.717010e-02 1.689537e-02 1.652475e-02 1.623707e-02 1.582283e-02 1.553398e-02 1.508815e-02 1.480640e-02 1.434053e-02 1.407058e-02 1.359569e-02 1.333866e-02 1.286518e-02 1.261885e-02 1.215636e-02 1.191557e-02 1.147245e-02 1.122954e-02 1.081258e-02 1.055795e-02 1.017176e-02 9.894475e-03 9.540978e-03 9.229363e-03 8.907291e-03 8.549574e-03 8.254169e-03 7.839068e-03 7.562014e-03 7.079327e-03 6.809009e-03 6.250162e-03 5.972274e-03 5.330820e-03 5.029301e-03 4.301362e-03 3.959596e-03 3.144203e-03 2.746371e-03 1.845704e-03 1.378147e-03 3.976413e-04 -1.499042e-04 -1.201588e-03 -1.835011e-03 -2.946157e-03 -3.666335e-03 -4.822469e-03 -5.625007e-03 -6.809286e-03 -7.684625e-03 -8.878293e-03 -9.812130e-03 -1.099499e-02 -1.196892e-02 -1.311980e-02 -1.411212e-02 -1.520927e-02 -1.619580e-02 -1.721731e-02 -1.817225e-02 -1.909634e-02 -1.999309e-02 -2.079846e-02 -2.161035e-02 -2.227652e-02 
-3.456379e-02 -3.532811e-02 -3.618397e-02 -3.668345e-02 -3.730234e-02 -3.751386e-02 -3.786655e-02 -3.777149e-02 -3.783451e-02 -3.741998e-02 -3.717692e-02 -3.643701e-02 -3.587976e-02 -3.481668e-02 -3.394644e-02 -3.257156e-02 -3.139952e-02 -2.973387e-02 -2.828148e-02 -2.635581e-02 -2.465435e-02 -2.250861e-02 -2.059823e-02 -1.828028e-02 -1.620834e-02 -1.377222e-02 -1.159119e-02 -9.094753e-03 -6.859732e-03 -4.362107e-03 -2.128221e-03 3.128387e-04 2.492936e-03 4.823591e-03 6.901931e-03 9.074466e-03 1.100954e-02 1.298413e-02 1.474212e-02 1.648810e-02 1.804355e-02 1.954010e-02 2.087608e-02 2.211235e-02 2.322008e-02 2.419489e-02 2.507302e-02 2.579409e-02 2.644769e-02 2.693048e-02 2.736989e-02 2.763622e-02 2.787583e-02 2.795234e-02 2.800938e-02 2.792583e-02 2.781938e-02 2.760701e-02 2.735704e-02 2.704695e-02 2.667367e-02 2.629532e-02 2.581872e-02 2.539865e-02 2.483818e-02 2.439894e-02 2.377339e-02 2.333275e-02 2.266020e-02 2.223066e-02 2.152850e-02 2.111709e-02 2.040194e-02 2.001031e-02 1.929787e-02 1.892265e-02 1.822739e-02 1.786076e-02 1.719539e-02 1.682581e-02 1.620060e-02 1.581364e-02 1.523562e-02 1.481486e-02 1.428696e-02 1.381494e-02 1.333527e-02 1.279436e-02 1.235571e-02 1.172904e-02 1.131880e-02 1.059112e-02 1.019163e-02 9.350100e-03 8.939617e-03 7.974538e-03 7.528638e-03 6.434131e-03 5.927542e-03 4.702058e-03 4.110717e-03 2.757403e-03 2.060529e-03 5.874137e-04 -2.306196e-04 -1.810660e-03 -2.758838e-03 -4.428318e-03 -5.508029e-03 -7.245288e-03 -8.449936e-03 -1.022972e-02 -1.154491e-02 -1.333907e-02 -1.474322e-02 -1.652141e-02 -1.798680e-02 -1.971717e-02 -2.121107e-02 -2.286095e-02 -2.434693e-02 -2.588333e-02 -2.732253e-02 -2.871267e-02 -3.006500e-02 -3.127682e-02 -3.250210e-02 -3.350471e-02 
-4.624908e-02 -4.728204e-02 -4.843582e-02 -4.911443e-02 -4.994991e-02 -5.024295e-02 -5.072071e-02 -5.060293e-02 -5.069123e-02 -5.014499e-02 -4.982157e-02 -4.883855e-02 -4.809227e-02 -4.667509e-02 -4.550738e-02 -4.367095e-02 -4.209676e-02 -3.986911e-02 -3.791724e-02 -3.533961e-02 -3.305225e-02 -3.017834e-02 -2.760971e-02 -2.450402e-02 -2.171816e-02 -1.845357e-02 -1.552143e-02 -1.217604e-02 -9.172126e-03 -5.825739e-03 -2.824536e-03 4.449362e-04 3.372362e-03 6.492351e-03 9.281366e-03 1.218765e-02 1.478244e-02 1.742152e-02 1.977679e-02 2.210759e-02 2.418938e-02 2.618416e-02 2.797007e-02 2.961461e-02 3.109325e-02 3.238636e-02 3.355636e-02 3.450884e-02 3.537744e-02 3.601052e-02 3.659199e-02 3.693546e-02 3.724944e-02 3.733950e-02 3.740939e-02 3.728641e-02 3.713796e-02 3.684424e-02 3.650431e-02 3.608191e-02 3.557760e-02 3.506631e-02 3.442432e-02 3.385993e-02 3.310617e-02 3.251904e-02 3.167854e-02 3.109253e-02 3.018932e-02 2.962116e-02 2.867838e-02 2.813736e-02 2.717719e-02 2.666534e-02 2.570881e-02 2.522134e-02 2.428794e-02 2.381402e-02 2.292101e-02 2.244478e-02 2.160622e-02 2.110789e-02 2.033357e-02 1.979064e-02 1.908488e-02 1.847340e-02 1.783398e-02 1.712980e-02 1.654727e-02 1.572724e-02 1.518472e-02 1.422788e-02 1.370153e-02 1.259025e-02 1.205052e-02 1.077147e-02 1.018503e-02 8.730104e-03 8.062383e-03 6.429407e-03 5.647399e-03 3.840622e-03 2.915774e-03 9.460990e-04 -1.430982e-04 -2.258180e-03 -3.524145e-03 -5.760908e-03 -7.205653e-03 -9.534756e-03 -1.114938e-02 -1.353669e-02 -1.530166e-02 -1.770918e-02 -1.959525e-02 -2.198213e-02 -2.395171e-02 -2.627518e-02 -2.828398e-02 -3.050019e-02 -3.249904e-02 -3.456381e-02 -3.650030e-02 -3.836976e-02 -4.018989e-02 -4.182111e-02 -4.347082e-02 -4.482243e-02 
-5.809682e-02 -5.940015e-02 -6.086400e-02 -6.172210e-02 -6.278602e-02 -6.315918e-02 -6.377301e-02 -6.362886e-02 -6.375206e-02 -6.306772e-02 -6.267160e-02 -6.143589e-02 -6.050577e-02 -5.872137e-02 -5.725849e-02 -5.494367e-02 -5.296647e-02 -5.015623e-02 -4.770085e-02 -4.444708e-02 -4.156678e-02 -3.793741e-02 -3.470088e-02 -3.077771e-02 -2.726627e-02 -2.314186e-02 -1.944569e-02 -1.521933e-02 -1.143313e-02 -7.206321e-03 -3.424741e-03 7.034687e-04 4.390217e-03 8.327642e-03 1.183765e-02 1.550279e-02 1.876549e-02 2.209061e-02 2.504889e-02 2.798208e-02 3.059339e-02 3.309974e-02 3.533621e-02 3.739806e-02 3.924586e-02 4.086208e-02 4.232006e-02 4.350474e-02 4.458265e-02 4.536310e-02 4.607951e-02 4.649385e-02 4.687404e-02 4.696849e-02 4.704239e-02 4.686844e-02 4.666879e-02 4.628029e-02 4.584117e-02 4.529159e-02 4.464723e-02 4.398715e-02 4.317117e-02 4.244599e-02 4.149098e-02 4.073916e-02 3.967647e-02 3.892819e-02 3.778798e-02 3.706428e-02 3.587555e-02 3.518803e-02 3.397868e-02 3.332970e-02 3.212626e-02 3.150957e-02 3.033669e-02 2.973844e-02 2.861809e-02 2.801811e-02 2.696829e-02 2.634153e-02 2.537489e-02 2.469297e-02 2.381522e-02 2.304800e-02 2.225651e-02 2.137365e-02 2.065652e-02 1.962895e-02 1.896473e-02 1.776613e-02 1.712439e-02 1.573252e-02 1.507542e-02 1.347344e-02 1.275825e-02 1.093576e-02 1.011809e-02 8.072093e-03 7.109544e-03 4.845092e-03 3.700946e-03 1.231450e-03 -1.219809e-04 -2.774794e-03 -4.353554e-03 -7.160062e-03 -8.966890e-03 -1.189034e-02 -1.391406e-02 -1.691162e-02 -1.912750e-02 -2.215144e-02 -2.452246e-02 -2.752143e-02 -3.000004e-02 -3.292028e-02 -3.545052e-02 -3.823691e-02 -4.075667e-02 -4.335369e-02 -4.579684e-02 -4.814935e-02 -5.044780e-02 -5.250177e-02 -5.458733e-02 -5.629063e-02 
-7.011228e-02 -7.170619e-02 -7.349342e-02 -7.455013e-02 -7.585242e-02 -7.632332e-02 -7.707938e-02 -7.692456e-02 -7.708463e-02 -7.627549e-02 -7.580410e-02 -7.432613e-02 -7.320481e-02 -7.106031e-02 -6.929001e-02 -6.650035e-02 -6.410311e-02 -6.071021e-02 -5.772983e-02 -5.379648e-02 -5.029794e-02 -4.590673e-02 -4.197408e-02 -3.722484e-02 -3.295775e-02 -2.796366e-02 -2.347276e-02 -1.835531e-02 -1.375673e-02 -8.640147e-03 -4.049859e-03 9.447506e-04 5.416414e-03 1.017646e-02 1.442957e-02 1.885574e-02 2.280452e-02 2.681447e-02 3.038984e-02 3.392080e-02 3.707164e-02 4.008174e-02 4.277503e-02 4.524353e-02 4.746345e-02 4.938988e-02 5.113606e-02 5.253851e-02 5.382380e-02 5.473646e-02 5.558431e-02 5.605450e-02 5.649637e-02 5.658117e-02 5.665395e-02 5.641677e-02 5.616055e-02 5.566756e-02 5.512380e-02 5.444058e-02 5.365073e-02 5.283915e-02 5.184372e-02 5.095926e-02 4.979736e-02 4.888688e-02 4.759604e-02 4.669617e-02 4.531245e-02 4.444858e-02 4.300672e-02 4.219264e-02 4.072615e-02 3.996428e-02 3.850523e-02 3.778744e-02 3.636588e-02 3.567471e-02 3.431770e-02 3.362793e-02 3.235796e-02 3.163838e-02 3.047158e-02 2.968691e-02 2.863104e-02 2.774379e-02 2.679641e-02 2.576884e-02 2.491601e-02 2.371193e-02 2.292771e-02 2.151431e-02 2.076142e-02 1.911098e-02 1.834267e-02 1.643409e-02 1.559729e-02 1.341752e-02 1.245683e-02 1.000199e-02 8.864361e-03 6.140557e-03 4.779931e-03 1.803589e-03 1.851669e-04 -3.017039e-03 -4.913520e-03 -8.305239e-03 -1.048343e-02 -1.401963e-02 -1.646587e-02 -2.009417e-02 -2.277802e-02 -2.644023e-02 -2.931610e-02 -3.294975e-02 -3.595921e-02 -3.949908e-02 -4.257356e-02 -4.595297e-02 -4.901652e-02 -5.216838e-02 -5.514038e-02 -5.799812e-02 -6.079567e-02 -6.329406e-02 -6.583424e-02 -6.791027e-02 
-8.237243e-02 -8.426000e-02 -8.638939e-02 -8.764583e-02 -8.920490e-02 -8.977203e-02 -9.068754e-02 -9.051716e-02 -9.072922e-02 -8.978624e-02 -8.925170e-02 -8.751755e-02 -8.621332e-02 -8.368933e-02 -8.161537e-02 -7.832562e-02 -7.550712e-02 -7.150039e-02 -6.798874e-02 -6.333900e-02 -5.921115e-02 -5.401634e-02 -4.937237e-02 -4.375140e-02 -3.871028e-02 -3.279827e-02 -2.749225e-02 -2.143446e-02 -1.600241e-02 -9.947342e-03 -4.527844e-03 1.379760e-03 6.655096e-03 1.228086e-02 1.729313e-02 2.251873e-02 2.716623e-02 3.189387e-02 3.609508e-02 4.025047e-02 4.394558e-02 4.747954e-02 5.063042e-02 5.351904e-02 5.610814e-02 5.835175e-02 6.037991e-02 6.200092e-02 6.348460e-02 6.452459e-02 6.549274e-02 6.600881e-02 6.649965e-02 6.656048e-02 6.661843e-02 6.630011e-02 6.597314e-02 6.535491e-02 6.469234e-02 6.385263e-02 6.290350e-02 6.191617e-02 6.072820e-02 5.965939e-02 5.827844e-02 5.718385e-02 5.565385e-02 5.457689e-02 5.293998e-02 5.191053e-02 5.020737e-02 4.924141e-02 4.751134e-02 4.661129e-02 4.489216e-02 4.404787e-02 4.237541e-02 4.156573e-02 3.997233e-02 3.916699e-02 3.767988e-02 3.684166e-02 3.548064e-02 3.456763e-02 3.334255e-02 3.231042e-02 3.121892e-02 3.002308e-02 2.904886e-02 2.764663e-02 2.675878e-02 2.511140e-02 2.426516e-02 2.233976e-02 2.147872e-02 1.925015e-02 1.831005e-02 1.576251e-02 1.467615e-02 1.180456e-02 1.050751e-02 7.318496e-03 5.754771e-03 2.267158e-03 3.943859e-04 -3.360823e-03 -5.567412e-03 -9.547693e-03 -1.209280e-02 -1.624528e-02 -1.911276e-02 -2.337579e-02 -2.652939e-02 -3.083442e-02 -3.421985e-02 -3.849333e-02 -4.204109e-02 -4.620625e-02 -4.983493e-02 -5.381331e-02 -5.743294e-02 -6.114568e-02 -6.466086e-02 -6.802971e-02 -7.134245e-02 -7.429064e-02 -7.730295e-02 -7.975617e-02 
-9.487271e-02 -9.708263e-02 -9.957342e-02 -1.010568e-01 -1.028872e-01 -1.035758e-01 -1.046599e-01 -1.044967e-01 -1.047639e-01 -1.037064e-01 -1.031055e-01 -1.011303e-01 -9.963296e-02 -9.673979e-02 -9.434485e-02 -9.056006e-02 -8.729594e-02 -8.267501e-02 -7.860114e-02 -7.322950e-02 -6.843571e-02 -6.242738e-02 -5.703103e-02 -5.052508e-02 -4.466614e-02 -3.782103e-02 -3.165521e-02 -2.464148e-02 -1.833226e-02 -1.132430e-02 -5.034581e-03 1.797821e-03 7.913678e-03 1.441319e-02 2.021623e-02 2.624472e-02 3.161664e-02 3.706037e-02 4.190703e-02 4.668014e-02 5.093315e-02 5.497945e-02 5.859607e-02 6.188911e-02 6.485076e-02 6.739251e-02 6.970211e-02 7.152039e-02 7.319894e-02 7.434386e-02 7.542667e-02 7.596641e-02 7.649925e-02 7.651533e-02 7.655082e-02 7.613316e-02 7.572762e-02 7.496966e-02 7.418053e-02 7.317449e-02 7.205851e-02 7.089106e-02 6.950305e-02 6.825158e-02 6.664395e-02 6.537346e-02 6.359621e-02 6.235709e-02 6.045810e-02 5.928477e-02 5.731034e-02 5.622079e-02 5.421591e-02 5.321220e-02 5.122054e-02 5.028991e-02 4.835315e-02 4.746994e-02 4.562639e-02 4.475425e-02 4.303668e-02 4.213110e-02 4.056398e-02 3.957496e-02 3.817132e-02 3.704596e-02 3.580448e-02 3.448958e-02 3.339229e-02 3.183686e-02 3.084813e-02 2.900581e-02 2.807303e-02 2.590442e-02 2.496058e-02 2.243543e-02 2.140362e-02 1.850282e-02 1.730221e-02 1.401939e-02 1.257217e-02 8.914882e-03 7.153288e-03 3.143591e-03 1.016219e-03 -3.309467e-03 -5.832794e-03 -1.042449e-02 -1.334979e-02 -1.814545e-02 -2.145372e-02 -2.638119e-02 -3.002949e-02 -3.500879e-02 -3.893287e-02 -4.387846e-02 -4.799636e-02 -5.281928e-02 -5.703533e-02 -6.164496e-02 -6.585383e-02 -7.015928e-02 -7.424965e-02 -7.816084e-02 -8.201867e-02 -8.544721e-02 -8.895863e-02 -9.181879e-02 
-1.077010e-01 -1.102382e-01 -1.131166e-01 -1.148295e-01 -1.169569e-01 -1.177662e-01 -1.190432e-01 -1.188817e-01 -1.192258e-01 -1.180427e-01 -1.173928e-01 -1.151589e-01 -1.134806e-01 -1.101929e-01 -1.074826e-01 -1.031692e-01 -9.945802e-02 -9.418087e-02 -8.953599e-02 -8.339233e-02 -7.791686e-02 -7.103772e-02 -6.486730e-02 -5.741343e-02 -5.071037e-02 -4.286551e-02 -3.581075e-02 -2.777297e-02 -2.055651e-02 -1.252837e-02 -5.339315e-03 2.482140e-03 9.465004e-03 1.689753e-02 2.351382e-02 3.039783e-02 3.651170e-02 4.271631e-02 4.822038e-02 5.364733e-02 5.846445e-02 6.305008e-02 6.713306e-02 7.084830e-02 7.417796e-02 7.702665e-02 7.960860e-02 8.162445e-02 8.348502e-02 8.472742e-02 8.590911e-02 8.645817e-02 8.701519e-02 8.696624e-02 8.696020e-02 8.641812e-02 8.591441e-02 8.498789e-02 8.405272e-02 8.284884e-02 8.154712e-02 8.016633e-02 7.856041e-02 7.709216e-02 7.524131e-02 7.376053e-02 7.172103e-02 7.028550e-02 6.811122e-02 6.676006e-02 6.450315e-02 6.325636e-02 6.096772e-02 5.982677e-02 5.755622e-02 5.650551e-02 5.430106e-02 5.331019e-02 5.121648e-02 5.024294e-02 4.829869e-02 4.729084e-02 4.552547e-02 4.442564e-02 4.285549e-02 4.160291e-02 4.022757e-02 3.876132e-02 3.756077e-02 3.582250e-02 3.475569e-02 3.269227e-02 3.169784e-02 2.926395e-02 2.826317e-02 2.542373e-02 2.432585e-02 2.105829e-02 1.976766e-02 1.606381e-02 1.448824e-02 1.035579e-02 8.414862e-03 3.878121e-03 1.510790e-03 -3.389345e-03 -6.219041e-03 -1.142597e-02 -1.472550e-02 -2.016862e-02 -2.391608e-02 -2.951310e-02 -3.365870e-02 -3.931834e-02 -4.378764e-02 -4.941236e-02 -5.411063e-02 -5.959909e-02 -6.441615e-02 -6.966531e-02 -7.448018e-02 -7.938682e-02 -8.407197e-02 -8.853384e-02 -9.295883e-02 -9.687549e-02 -1.009101e-01 -1.041839e-01 
-1.208471e-01 -1.237492e-01 -1.270408e-01 -1.290191e-01 -1.314633e-01 -1.324268e-01 -1.339095e-01 -1.337801e-01 -1.342059e-01 -1.329234e-01 -1.322210e-01 -1.297490e-01 -1.278769e-01 -1.242087e-01 -1.211606e-01 -1.163253e-01 -1.121348e-01 -1.062005e-01 -1.009433e-01 -9.401932e-02 -8.781288e-02 -8.004836e-02 -7.304837e-02 -6.462725e-02 -5.702073e-02 -4.815404e-02 -4.014979e-02 -3.106536e-02 -2.288258e-02 -1.381339e-02 -5.669855e-03 3.157764e-03 1.105682e-02 1.943406e-02 2.690537e-02 3.465008e-02 4.153937e-02 4.850291e-02 5.468937e-02 6.076105e-02 6.615907e-02 7.126821e-02 7.582689e-02 7.994267e-02 8.364330e-02 8.677268e-02 8.962481e-02 9.180886e-02 9.384543e-02 9.515445e-02 9.642646e-02 9.695418e-02 9.752533e-02 9.738262e-02 9.732444e-02 9.663270e-02 9.602028e-02 9.490495e-02 9.381361e-02 9.239790e-02 9.090084e-02 8.930002e-02 8.746691e-02 8.578335e-02 8.367994e-02 8.199901e-02 7.968740e-02 7.807460e-02 7.561406e-02 7.411327e-02 7.156127e-02 7.019427e-02 6.760734e-02 6.637454e-02 6.380858e-02 6.269081e-02 6.020049e-02 5.916158e-02 5.679865e-02 5.578859e-02 5.359888e-02 5.255724e-02 5.057663e-02 4.943605e-02 4.768583e-02 4.637542e-02 4.485765e-02 4.330627e-02 4.199998e-02 4.013942e-02 3.899865e-02 3.676667e-02 3.572089e-02 3.306424e-02 3.202170e-02 2.889902e-02 2.775296e-02 2.413743e-02 2.277467e-02 1.865626e-02 1.696720e-02 1.235436e-02 1.024321e-02 5.163707e-03 2.557579e-03 -2.941574e-03 -6.085718e-03 -1.193945e-02 -1.563083e-02 -2.175809e-02 -2.597129e-02 -3.227789e-02 -3.695486e-02 -4.333674e-02 -4.839097e-02 -5.473741e-02 -6.005936e-02 -6.625587e-02 -7.171878e-02 -7.764944e-02 -8.311489e-02 -8.866392e-02 -9.398666e-02 -9.903958e-02 -1.040715e-01 -1.085159e-01 -1.131096e-01 -1.168356e-01 
-1.344055e-01 -1.376801e-01 -1.414196e-01 -1.436682e-01 -1.464634e-01 -1.475820e-01 -1.493030e-01 -1.492011e-01 -1.497380e-01 -1.483442e-01 -1.476134e-01 -1.448827e-01 -1.428337e-01 -1.387544e-01 -1.353768e-01 -1.299778e-01 -1.253065e-01 -1.186617e-01 -1.127805e-01 -1.050119e-01 -9.805320e-02 -8.932901e-02 -8.146979e-02 -7.199927e-02 -6.345333e-02 -5.347753e-02 -4.448400e-02 -3.426364e-02 -2.507362e-02 -1.487529e-02 -5.737874e-03 4.179794e-03 1.303061e-02 2.242963e-02 3.078586e-02 3.945936e-02 4.714708e-02 5.492710e-02 6.181132e-02 6.857372e-02 7.456021e-02 8.022682e-02 8.526125e-02 8.979945e-02 9.386424e-02 9.728445e-02 1.003940e-01 1.027454e-01 1.049404e-01 1.063052e-01 1.076462e-01 1.081329e-01 1.086944e-01 1.084306e-01 1.082951e-01 1.074204e-01 1.066736e-01 1.053315e-01 1.040587e-01 1.023900e-01 1.006732e-01 9.880936e-02 9.672613e-02 9.478343e-02 9.240629e-02 9.048147e-02 8.787857e-02 8.604534e-02 8.328156e-02 8.158872e-02 7.872710e-02 7.719807e-02 7.430105e-02 7.293481e-02 7.006480e-02 6.883808e-02 6.605695e-02 6.492739e-02 6.229458e-02 6.120441e-02 5.877347e-02 5.765360e-02 5.546739e-02 5.424134e-02 5.232637e-02 5.091411e-02 4.927480e-02 4.759630e-02 4.621029e-02 4.418891e-02 4.300437e-02 4.057007e-02 3.950603e-02 3.659859e-02 3.554873e-02 3.212090e-02 3.096079e-02 2.698129e-02 2.557859e-02 2.103474e-02 1.926102e-02 1.416080e-02 1.190373e-02 6.276934e-03 3.451018e-03 -2.650661e-03 -6.095982e-03 -1.260017e-02 -1.667599e-02 -2.349202e-02 -2.816925e-02 -3.519151e-02 -4.040352e-02 -4.751526e-02 -5.316311e-02 -6.024030e-02 -6.619924e-02 -7.311396e-02 -7.924032e-02 -8.586337e-02 -9.200095e-02 -9.820365e-02 -1.041892e-01 -1.098444e-01 -1.155118e-01 -1.204944e-01 -1.256785e-01 -1.298664e-01 
-1.483660e-01 -1.520600e-01 -1.562801e-01 -1.588443e-01 -1.620161e-01 -1.633327e-01 -1.653092e-01 -1.652740e-01 -1.659296e-01 -1.644585e-01 -1.636962e-01 -1.607337e-01 -1.584930e-01 -1.540210e-01 -1.502863e-01 -1.443321e-01 -1.391395e-01 -1.317825e-01 -1.252244e-01 -1.165992e-01 -1.088244e-01 -9.911975e-02 -9.032904e-02 -7.978170e-02 -7.021881e-02 -5.910267e-02 -4.904078e-02 -3.765260e-02 -2.737845e-02 -1.602161e-02 -5.818996e-03 5.212774e-03 1.507834e-02 2.551565e-02 3.480956e-02 4.441934e-02 5.294695e-02 6.154122e-02 6.915323e-02 7.659441e-02 8.318854e-02 8.939161e-02 9.491125e-02 9.984306e-02 1.042733e-01 1.079494e-01 1.113113e-01 1.137909e-01 1.161347e-01 1.175141e-01 1.189116e-01 1.193163e-01 1.198542e-01 1.194312e-01 1.192041e-01 1.181126e-01 1.172179e-01 1.156217e-01 1.141548e-01 1.122140e-01 1.102660e-01 1.081293e-01 1.057852e-01 1.035840e-01 1.009227e-01 9.876573e-02 9.586045e-02 9.383010e-02 9.075051e-02 8.890051e-02 8.571440e-02 8.406956e-02 8.084466e-02 7.940199e-02 7.620699e-02 7.493825e-02 7.184257e-02 7.069795e-02 6.776971e-02 6.668208e-02 6.398419e-02 6.287372e-02 6.045818e-02 5.923675e-02 5.713772e-02 5.571319e-02 5.393989e-02 5.222004e-02 5.075053e-02 4.864686e-02 4.742441e-02 4.485581e-02 4.378863e-02 4.068515e-02 3.965055e-02 3.595704e-02 3.480986e-02 3.048952e-02 2.907419e-02 2.411167e-02 2.227658e-02 1.668035e-02 1.429252e-02 8.096184e-03 5.054346e-03 -1.683379e-03 -5.439106e-03 -1.263593e-02 -1.711881e-02 -2.467184e-02 -2.984800e-02 -3.763777e-02 -4.342989e-02 -5.132500e-02 -5.761888e-02 -6.548054e-02 -7.213325e-02 -7.981918e-02 -8.666732e-02 -9.403463e-02 -1.009019e-01 -1.078088e-01 -1.145119e-01 -1.208189e-01 -1.271724e-01 -1.327421e-01 -1.385620e-01 -1.432596e-01 
-1.628239e-01 -1.669487e-01 -1.716936e-01 -1.745818e-01 -1.781746e-01 -1.796931e-01 -1.819680e-01 -1.819969e-01 -1.828103e-01 -1.812508e-01 -1.804895e-01 -1.772735e-01 -1.748643e-01 -1.699647e-01 -1.658847e-01 -1.593259e-01 -1.536109e-01 -1.454767e-01 -1.382267e-01 -1.286650e-01 -1.200459e-01 -1.092674e-01 -9.950560e-02 -8.777735e-02 -7.714936e-02 -6.478188e-02 -5.359844e-02 -4.092882e-02 -2.951614e-02 -1.688889e-02 -5.569068e-03 6.682958e-03 1.760978e-02 2.918235e-02 3.945254e-02 5.008372e-02 5.948040e-02 6.896025e-02 7.731900e-02 8.549534e-02 9.270577e-02 9.948626e-02 1.054900e-01 1.108410e-01 1.156267e-01 1.195695e-01 1.231663e-01 1.257711e-01 1.282401e-01 1.296186e-01 1.310447e-01 1.313411e-01 1.318246e-01 1.312065e-01 1.308556e-01 1.295044e-01 1.284291e-01 1.265304e-01 1.248377e-01 1.225725e-01 1.203630e-01 1.178995e-01 1.152663e-01 1.127523e-01 1.097806e-01 1.073380e-01 1.041067e-01 1.018270e-01 9.841063e-02 9.635271e-02 9.282394e-02 9.101371e-02 8.744587e-02 8.587763e-02 8.234622e-02 8.098588e-02 7.756854e-02 7.635798e-02 7.313239e-02 7.199460e-02 6.903395e-02 6.787837e-02 6.524463e-02 6.397219e-02 6.170775e-02 6.021559e-02 5.833444e-02 5.652011e-02 5.500023e-02 5.276554e-02 5.154404e-02 4.879885e-02 4.777137e-02 4.443745e-02 4.346279e-02 3.947772e-02 3.838767e-02 3.370882e-02 3.232241e-02 2.693051e-02 2.507100e-02 1.897313e-02 1.648542e-02 9.716834e-03 6.482891e-03 -8.927431e-04 -4.942591e-03 -1.283473e-02 -1.771592e-02 -2.601049e-02 -3.168406e-02 -4.024827e-02 -4.662562e-02 -5.531341e-02 -6.226453e-02 -7.092200e-02 -7.828521e-02 -8.675524e-02 -9.434702e-02 -1.024725e-01 -1.100960e-01 -1.177218e-01 -1.251736e-01 -1.321470e-01 -1.392220e-01 -1.453928e-01 -1.518877e-01 -1.571081e-01 
-1.777758e-01 -1.823879e-01 -1.876986e-01 -1.909664e-01 -1.950126e-01 -1.967864e-01 -1.993824e-01 -1.995251e-01 -2.005076e-01 -1.989034e-01 -1.981415e-01 -1.947070e-01 -1.921131e-01 -1.868100e-01 -1.823523e-01 -1.751999e-01 -1.689130e-01 -1.599986e-01 -1.519908e-01 -1.414756e-01 -1.319315e-01 -1.200500e-01 -1.092249e-01 -9.627739e-02 -8.448490e-02 -7.082251e-02 -5.841618e-02 -4.442080e-02 -3.177146e-02 -1.783311e-02 -5.305848e-03 8.199645e-03 2.026642e-02 3.299707e-02 4.430829e-02 5.597142e-02 6.628678e-02 7.664968e-02 8.578968e-02 9.468572e-02 1.025328e-01 1.098634e-01 1.163591e-01 1.220917e-01 1.272308e-01 1.313947e-01 1.352164e-01 1.378956e-01 1.404746e-01 1.417988e-01 1.432353e-01 1.433702e-01 1.437802e-01 1.429171e-01 1.424238e-01 1.407686e-01 1.394957e-01 1.372585e-01 1.353248e-01 1.327096e-01 1.302255e-01 1.274213e-01 1.244873e-01 1.216597e-01 1.183669e-01 1.156516e-01 1.120829e-01 1.095812e-01 1.058147e-01 1.035907e-01 9.970274e-02 9.778311e-02 9.385148e-02 9.222717e-02 8.833367e-02 8.696375e-02 8.319448e-02 8.201116e-02 7.845455e-02 7.736908e-02 7.411081e-02 7.301945e-02 7.013455e-02 6.892419e-02 6.646690e-02 6.502020e-02 6.301299e-02 6.121289e-02 5.963667e-02 5.737069e-02 5.615810e-02 5.332260e-02 5.235654e-02 4.886116e-02 4.797955e-02 4.375186e-02 4.275902e-02 3.774913e-02 3.643281e-02 3.061764e-02 2.876947e-02 2.215619e-02 1.959295e-02 1.222101e-02 8.803329e-03 7.446834e-04 -3.609373e-03 -1.225225e-02 -1.756047e-02 -2.665875e-02 -3.287518e-02 -4.227948e-02 -4.930092e-02 -5.884797e-02 -6.652439e-02 -7.604343e-02 -8.419020e-02 -9.350826e-02 -1.019179e-01 -1.108634e-01 -1.193155e-01 -1.277199e-01 -1.359887e-01 -1.436869e-01 -1.515460e-01 -1.583756e-01 -1.656015e-01 -1.714018e-01 
-1.933102e-01 -1.984259e-01 -2.043574e-01 -2.080183e-01 -2.125744e-01 -2.146125e-01 -2.175849e-01 -2.178434e-01 -2.190463e-01 -2.173894e-01 -2.166704e-01 -2.129962e-01 -2.102497e-01 -2.045056e-01 -1.996874e-01 -1.918851e-01 -1.850259e-01 -1.752546e-01 -1.664701e-01 -1.549044e-01 -1.443984e-01 -1.312986e-01 -1.193577e-01 -1.050612e-01 -9.204033e-02 -7.694402e-02 -6.324443e-02 -4.778094e-02 -3.382343e-02 -1.843423e-02 -4.631815e-03 1.025900e-02 2.352553e-02 3.753385e-02 4.993500e-02 6.273410e-02 7.400430e-02 8.533652e-02 9.528041e-02 1.049634e-01 1.134565e-01 1.213849e-01 1.283694e-01 1.345123e-01 1.399903e-01 1.443858e-01 1.484088e-01 1.511558e-01 1.538140e-01 1.550621e-01 1.564730e-01 1.564115e-01 1.567087e-01 1.555546e-01 1.548783e-01 1.528645e-01 1.513536e-01 1.487170e-01 1.465033e-01 1.434734e-01 1.406779e-01 1.374666e-01 1.341979e-01 1.309906e-01 1.273455e-01 1.242934e-01 1.203592e-01 1.175740e-01 1.134323e-01 1.109834e-01 1.067141e-01 1.046284e-01 1.003142e-01 9.857803e-02 9.430748e-02 9.287157e-02 8.874020e-02 8.752554e-02 8.363377e-02 8.253879e-02 7.898623e-02 7.789376e-02 7.476984e-02 7.355359e-02 7.092536e-02 6.945546e-02 6.735418e-02 6.550187e-02 6.391072e-02 6.155252e-02 6.039814e-02 5.742002e-02 5.657010e-02 5.287187e-02 5.214049e-02 4.764068e-02 4.680157e-02 4.144252e-02 4.024911e-02 3.400199e-02 3.221177e-02 2.508094e-02 2.248062e-02 1.450648e-02 1.093416e-02 2.193940e-03 -2.445020e-03 -1.183923e-02 -1.756477e-02 -2.747072e-02 -3.422921e-02 -4.448139e-02 -5.215407e-02 -6.257170e-02 -7.098767e-02 -8.138241e-02 -9.033334e-02 -1.005156e-01 -1.097695e-01 -1.195524e-01 -1.288652e-01 -1.380664e-01 -1.471895e-01 -1.556310e-01 -1.643168e-01 -1.718236e-01 -1.798280e-01 -1.862260e-01 
-2.094389e-01 -2.151251e-01 -2.217272e-01 -2.258481e-01 -2.309544e-01 -2.333225e-01 -2.367010e-01 -2.371375e-01 -2.385779e-01 -2.369239e-01 -2.362497e-01 -2.323814e-01 -2.294662e-01 -2.233127e-01 -2.180974e-01 -2.096597e-01 -2.021697e-01 -1.915370e-01 -1.818950e-01 -1.692552e-01 -1.576864e-01 -1.433279e-01 -1.301545e-01 -1.144557e-01 -1.000800e-01 -8.348942e-02 -6.836774e-02 -5.137499e-02 -3.598530e-02 -1.908943e-02 -3.899034e-03 1.242241e-02 2.698553e-02 4.230252e-02 5.587148e-02 6.982099e-02 8.210378e-02 9.440233e-02 1.051881e-01 1.156381e-01 1.247970e-01 1.332878e-01 1.407654e-01 1.472700e-01 1.530788e-01 1.576471e-01 1.618542e-01 1.646033e-01 1.673179e-01 1.684211e-01 1.697808e-01 1.694545e-01 1.696131e-01 1.681039e-01 1.672205e-01 1.647912e-01 1.630213e-01 1.599385e-01 1.574273e-01 1.539486e-01 1.508275e-01 1.471899e-01 1.435749e-01 1.399848e-01 1.359773e-01 1.326023e-01 1.282922e-01 1.252550e-01 1.207252e-01 1.181006e-01 1.134328e-01 1.112474e-01 1.065272e-01 1.047621e-01 1.000839e-01 9.868048e-02 9.414900e-02 9.301562e-02 8.874469e-02 8.776493e-02 8.387097e-02 8.291152e-02 7.950273e-02 7.842045e-02 7.558206e-02 7.422985e-02 7.200751e-02 7.023923e-02 6.862329e-02 6.629828e-02 6.521237e-02 6.220001e-02 6.149690e-02 5.768183e-02 5.714871e-02 5.243657e-02 5.181027e-02 4.613381e-02 4.512480e-02 3.844975e-02 3.677172e-02 2.910183e-02 2.650253e-02 1.788290e-02 1.417128e-02 4.689118e-03 -2.455285e-04 -1.046339e-02 -1.664295e-02 -2.743588e-02 -3.479583e-02 -4.597790e-02 -5.437861e-02 -6.574826e-02 -7.499176e-02 -8.634097e-02 -9.618918e-02 -1.073107e-01 -1.175022e-01 -1.281940e-01 -1.384568e-01 -1.485235e-01 -1.585840e-01 -1.678357e-01 -1.774237e-01 -1.856738e-01 -1.945240e-01 -2.015860e-01 