# vtk DataFile Version 2.0
Comment goes here
ASCII

DATASET STRUCTURED_POINTS
FIELD FieldData 1
TIME 1 1 double
0.07000000
DIMENSIONS    128   128   1

ORIGIN    0.000   0.000   0.000
SPACING   0.039062 0.039062   1.000

POINT_DATA   16384
SCALARS uY double
LOOKUP_TABLE default

2.116272e-14 2.226233e-14 2.182044e-14 2.378383e-14 2.358909e-14 2.633251e-14 2.680961e-14 3.001631e-14 3.029538e-14 3.400383e-14 3.456466e-14 3.811544e-14 3.868268e-14 4.261698e-14 4.315701e-14 4.646744e-14 4.666493e-14 4.996922e-14 4.970275e-14 5.297155e-14 5.333767e-14 5.665753e-14 5.656284e-14 6.054097e-14 6.147879e-14 6.538603e-14 6.687525e-14 7.211934e-14 7.383430e-14 7.949301e-14 8.137080e-14 8.687283e-14 8.813801e-14 9.355970e-14 9.542709e-14 1.007682e-13 1.012325e-13 1.062742e-13 1.078678e-13 1.132167e-13 1.136352e-13 1.204852e-13 1.213388e-13 1.280532e-13 1.279940e-13 1.344938e-13 1.345190e-13 1.410960e-13 1.408344e-13 1.480712e-13 1.473193e-13 1.538100e-13 1.532156e-13 1.602872e-13 1.586047e-13 1.655350e-13 1.636884e-13 1.706684e-13 1.692169e-13 1.758821e-13 1.741227e-13 1.795485e-13 1.767945e-13 1.811847e-13 1.780695e-13 1.811260e-13 1.774242e-13 1.785978e-13 1.745888e-13 1.741073e-13 1.707940e-13 1.692344e-13 1.664726e-13 1.631670e-13 1.603575e-13 1.550949e-13 1.534125e-13 1.477103e-13 1.474700e-13 1.395612e-13 1.405348e-13 1.315162e-13 1.325727e-13 1.224433e-13 1.242973e-13 1.131557e-13 1.162674e-13 1.043323e-13 1.074903e-13 9.525410e-14 9.954989e-14 8.765471e-14 9.128593e-14 7.813094e-14 8.164316e-14 6.966675e-14 7.218122e-14 6.062034e-14 6.694401e-14 5.674777e-14 6.053202e-14 5.125148e-14 5.349070e-14 4.522543e-14 4.645447e-14 3.978592e-14 4.180405e-14 3.555960e-14 3.693524e-14 3.181023e-14 3.302257e-14 3.016006e-14 3.092519e-14 2.837279e-14 2.832255e-14 2.654905e-14 2.548103e-14 2.391218e-14 2.386208e-14 2.234931e-14 2.218105e-14 2.149071e-14 2.090819e-14 2.155902e-14 2.057822e-14 2.150045e-14 2.090232e-14 2.191173e-14 
-3.491486e-02 -3.495565e-02 -3.488163e-02 -3.473383e-02 -3.446751e-02 -3.414316e-02 -3.369837e-02 -3.320975e-02 -3.260000e-02 -3.195944e-02 -3.119794e-02 -3.041779e-02 -2.951762e-02 -2.861033e-02 -2.758469e-02 -2.656304e-02 -2.542556e-02 -2.430285e-02 -2.306786e-02 -2.185813e-02 -2.054082e-02 -1.925892e-02 -1.787543e-02 -1.653700e-02 -1.510425e-02 -1.372562e-02 -1.226107e-02 -1.085899e-02 -9.380233e-03 -7.971505e-03 -6.495777e-03 -5.096883e-03 -3.640491e-03 -2.267134e-03 -8.449381e-04 4.883699e-04 1.863439e-03 3.143742e-03 4.461068e-03 5.677249e-03 6.928783e-03 8.071751e-03 9.252127e-03 1.031490e-02 1.142141e-02 1.239913e-02 1.343155e-02 1.432138e-02 1.528172e-02 1.608277e-02 1.697491e-02 1.768803e-02 1.851733e-02 1.914502e-02 1.991781e-02 2.046406e-02 2.118717e-02 2.165729e-02 2.233753e-02 2.273796e-02 2.338148e-02 2.371956e-02 2.433124e-02 2.461478e-02 2.519747e-02 2.543425e-02 2.598802e-02 2.618504e-02 2.670631e-02 2.686887e-02 2.734966e-02 2.748028e-02 2.790756e-02 2.800487e-02 2.836021e-02 2.841798e-02 2.867762e-02 2.868403e-02 2.881959e-02 2.875709e-02 2.873690e-02 2.858273e-02 2.837389e-02 2.810138e-02 2.767241e-02 2.725314e-02 2.657691e-02 2.598345e-02 2.504021e-02 2.424928e-02 2.302932e-02 2.202481e-02 2.053045e-02 1.930604e-02 1.755264e-02 1.611358e-02 1.412940e-02 1.249312e-02 1.031811e-02 8.513655e-03 6.197188e-03 4.263474e-03 1.861355e-03 -1.554013e-04 -2.584344e-03 -4.633789e-03 -7.031157e-03 -9.062094e-03 -1.137308e-02 -1.333655e-02 -1.551252e-02 -1.736438e-02 -1.936473e-02 -2.106752e-02 -2.286069e-02 -2.438473e-02 -2.594843e-02 -2.727217e-02 -2.859297e-02 -2.970269e-02 -3.077499e-02 -3.166406e-02 -3.248885e-02 -3.315657e-02 -3.373993e-02 -3.419037e-02 -3.454206e-02 -3.478272e-02 
-6.990067e-02 -6.997874e-02 -6.983094e-02 -6.953165e-02 -6.899947e-02 -6.834681e-02 -6.745773e-02 -6.647616e-02 -6.525707e-02 -6.397111e-02 -6.244822e-02 -6.088240e-02 -5.908163e-02 -5.726073e-02 -5.520826e-02 -5.315774e-02 -5.088062e-02 -4.862705e-02 -4.615377e-02 -4.372523e-02 -4.108611e-02 -3.851237e-02 -3.573962e-02 -3.305216e-02 -3.017970e-02 -2.741139e-02 -2.447429e-02 -2.165890e-02 -1.869257e-02 -1.586408e-02 -1.290325e-02 -1.009495e-02 -7.172593e-03 -4.416245e-03 -1.562459e-03 1.112603e-03 3.871557e-03 6.439150e-03 9.081643e-03 1.151932e-02 1.402888e-02 1.631833e-02 1.868388e-02 2.081106e-02 2.302689e-02 2.498207e-02 2.704751e-02 2.882509e-02 3.074401e-02 3.234227e-02 3.412234e-02 3.554316e-02 3.719507e-02 3.844361e-02 3.998011e-02 4.106452e-02 4.249947e-02 4.343055e-02 4.477781e-02 4.556867e-02 4.684093e-02 4.750646e-02 4.871394e-02 4.927006e-02 5.041905e-02 5.088161e-02 5.197288e-02 5.235625e-02 5.338337e-02 5.369855e-02 5.464627e-02 5.489874e-02 5.574169e-02 5.592916e-02 5.663107e-02 5.674143e-02 5.725520e-02 5.726507e-02 5.753416e-02 5.740848e-02 5.736952e-02 5.706255e-02 5.664946e-02 5.610743e-02 5.525665e-02 5.442205e-02 5.307856e-02 5.189572e-02 5.001914e-02 4.844060e-02 4.601060e-02 4.400337e-02 4.102375e-02 3.857465e-02 3.507546e-02 3.219472e-02 2.823210e-02 2.495464e-02 2.060837e-02 1.699264e-02 1.236159e-02 8.486067e-03 3.682185e-03 -3.599704e-04 -5.218568e-03 -9.325901e-03 -1.412193e-02 -1.819140e-02 -2.281479e-02 -2.674800e-02 -3.110115e-02 -3.480954e-02 -3.881103e-02 -4.221959e-02 -4.580622e-02 -4.885566e-02 -5.198292e-02 -5.463034e-02 -5.727143e-02 -5.948969e-02 -6.163361e-02 -6.340969e-02 -6.505857e-02 -6.639137e-02 -6.755752e-02 -6.845534e-02 -6.915840e-02 -6.963643e-02 
-1.051507e-01 -1.052617e-01 -1.050258e-01 -1.045704e-01 -1.037576e-01 -1.027722e-01 -1.014243e-01 -9.994614e-02 -9.810366e-02 -9.616965e-02 -9.387209e-02 -9.151916e-02 -8.880546e-02 -8.607080e-02 -8.298026e-02 -7.990199e-02 -7.647522e-02 -7.309308e-02 -6.937289e-02 -6.572888e-02 -6.176083e-02 -5.789949e-02 -5.373206e-02 -4.970048e-02 -4.538474e-02 -4.123212e-02 -3.682087e-02 -3.259780e-02 -2.814432e-02 -2.390165e-02 -1.945815e-02 -1.524576e-02 -1.086171e-02 -6.727113e-03 -2.447583e-03 1.565315e-03 5.701154e-03 9.553201e-03 1.351324e-02 1.717090e-02 2.093089e-02 2.436679e-02 2.791064e-02 3.110386e-02 3.442360e-02 3.735961e-02 4.045485e-02 4.312528e-02 4.600240e-02 4.840467e-02 5.107574e-02 5.321261e-02 5.569412e-02 5.757323e-02 5.988472e-02 6.151816e-02 6.368068e-02 6.508457e-02 6.711911e-02 6.831307e-02 7.023874e-02 7.124514e-02 7.307730e-02 7.392013e-02 7.566815e-02 7.637150e-02 7.803637e-02 7.862214e-02 8.019394e-02 8.067909e-02 8.213451e-02 8.252770e-02 8.382802e-02 8.412617e-02 8.521596e-02 8.540105e-02 8.620838e-02 8.624514e-02 8.668349e-02 8.651875e-02 8.649106e-02 8.605517e-02 8.546015e-02 8.467103e-02 8.341121e-02 8.218081e-02 8.017183e-02 7.841478e-02 7.559471e-02 7.323804e-02 6.957580e-02 6.656858e-02 6.207011e-02 5.839167e-02 5.310314e-02 4.876856e-02 4.277604e-02 3.783820e-02 3.126378e-02 2.581148e-02 1.880628e-02 1.295892e-02 5.693740e-03 -4.068955e-04 -7.752105e-03 -1.395165e-02 -2.119854e-02 -2.734033e-02 -3.432188e-02 -4.025647e-02 -4.682495e-02 -5.241803e-02 -5.845060e-02 -6.358867e-02 -6.899043e-02 -7.358411e-02 -7.828865e-02 -8.227357e-02 -8.624152e-02 -8.957734e-02 -9.279325e-02 -9.546112e-02 -9.792938e-02 -9.992851e-02 -1.016688e-01 -1.030126e-01 -1.040555e-01 -1.047676e-01 
-1.406134e-01 -1.407469e-01 -1.404237e-01 -1.398011e-01 -1.387092e-01 -1.373794e-01 -1.355744e-01 -1.335867e-01 -1.311223e-01 -1.285259e-01 -1.254542e-01 -1.222977e-01 -1.186700e-01 -1.150028e-01 -1.108708e-01 -1.067432e-01 -1.021604e-01 -9.762523e-02 -9.264835e-02 -8.776151e-02 -8.245103e-02 -7.727211e-02 -7.169269e-02 -6.628489e-02 -6.050490e-02 -5.493451e-02 -4.902489e-02 -4.336016e-02 -3.739274e-02 -3.170245e-02 -2.574780e-02 -2.009945e-02 -1.422460e-02 -8.682543e-03 -2.948686e-03 2.427657e-03 7.967225e-03 1.312490e-02 1.842639e-02 2.332012e-02 2.835035e-02 3.294331e-02 3.768016e-02 4.194430e-02 4.637664e-02 5.029263e-02 5.441966e-02 5.797656e-02 6.180669e-02 6.500135e-02 6.855077e-02 7.138725e-02 7.467826e-02 7.716718e-02 8.022630e-02 8.238426e-02 8.524026e-02 8.708929e-02 8.977107e-02 9.133788e-02 9.387216e-02 9.518728e-02 9.759594e-02 9.869227e-02 1.009895e-01 1.019002e-01 1.040892e-01 1.048450e-01 1.069145e-01 1.075393e-01 1.094602e-01 1.099674e-01 1.116896e-01 1.120766e-01 1.135275e-01 1.137716e-01 1.148557e-01 1.149105e-01 1.155121e-01 1.153064e-01 1.152945e-01 1.147343e-01 1.139717e-01 1.129451e-01 1.112985e-01 1.096850e-01 1.070383e-01 1.047201e-01 1.009871e-01 9.786309e-02 9.299917e-02 8.899795e-02 8.300854e-02 7.810018e-02 7.104557e-02 6.524921e-02 5.724414e-02 5.063081e-02 4.183935e-02 3.452945e-02 2.515540e-02 1.731119e-02 7.585331e-03 -6.004508e-04 -1.043489e-02 -1.875263e-02 -2.845469e-02 -3.669205e-02 -4.603638e-02 -5.399141e-02 -6.277908e-02 -7.027090e-02 -7.833703e-02 -8.521345e-02 -9.243120e-02 -9.857300e-02 -1.048542e-01 -1.101763e-01 -1.154694e-01 -1.199190e-01 -1.242046e-01 -1.277579e-01 -1.310433e-01 -1.337006e-01 -1.360133e-01 -1.377937e-01 -1.391755e-01 -1.401117e-01 
-1.766066e-01 -1.767532e-01 -1.763133e-01 -1.755137e-01 -1.741128e-01 -1.724293e-01 -1.701377e-01 -1.676329e-01 -1.645182e-01 -1.612538e-01 -1.573812e-01 -1.534183e-01 -1.488518e-01 -1.442517e-01 -1.390556e-01 -1.338810e-01 -1.281221e-01 -1.224386e-01 -1.161876e-01 -1.100648e-01 -1.033975e-01 -9.690967e-02 -8.990726e-02 -8.313330e-02 -7.588178e-02 -6.890461e-02 -6.149336e-02 -5.439846e-02 -4.691799e-02 -3.979153e-02 -3.233075e-02 -2.525731e-02 -1.790051e-02 -1.096074e-02 -3.784666e-03 2.947026e-03 9.875786e-03 1.633318e-02 2.296025e-02 2.908682e-02 3.537138e-02 4.112123e-02 4.703657e-02 5.237484e-02 5.790821e-02 6.281093e-02 6.796260e-02 7.241625e-02 7.719805e-02 8.119882e-02 8.563227e-02 8.918523e-02 9.329938e-02 9.641776e-02 1.002468e-01 1.029513e-01 1.065322e-01 1.088502e-01 1.122198e-01 1.141849e-01 1.173774e-01 1.190280e-01 1.220713e-01 1.234493e-01 1.263617e-01 1.275096e-01 1.302956e-01 1.312531e-01 1.338988e-01 1.346978e-01 1.371667e-01 1.378255e-01 1.400543e-01 1.405713e-01 1.424675e-01 1.428151e-01 1.442567e-01 1.443769e-01 1.452151e-01 1.450177e-01 1.450838e-01 1.444482e-01 1.435644e-01 1.423467e-01 1.403403e-01 1.383842e-01 1.351042e-01 1.322566e-01 1.275906e-01 1.237192e-01 1.176086e-01 1.126194e-01 1.050705e-01 9.892301e-02 9.001316e-02 8.273027e-02 7.260722e-02 6.427905e-02 5.315405e-02 4.393456e-02 3.206978e-02 2.216698e-02 9.858837e-03 -4.800756e-04 -1.291985e-02 -2.342623e-02 -3.568958e-02 -4.609172e-02 -5.789149e-02 -6.793156e-02 -7.901531e-02 -8.846314e-02 -9.862277e-02 -1.072856e-01 -1.163622e-01 -1.240899e-01 -1.319746e-01 -1.386611e-01 -1.452916e-01 -1.508723e-01 -1.562274e-01 -1.606749e-01 -1.647669e-01 -1.680840e-01 -1.709507e-01 -1.731640e-01 -1.748608e-01 -1.760137e-01 
-2.129540e-01 -2.130963e-01 -2.125412e-01 -2.115465e-01 -2.098394e-01 -2.077831e-01 -2.050084e-01 -2.019655e-01 -1.982037e-01 -1.942479e-01 -1.895761e-01 -1.847799e-01 -1.792735e-01 -1.737094e-01 -1.674443e-01 -1.611869e-01 -1.542419e-01 -1.473692e-01 -1.398282e-01 -1.324235e-01 -1.243770e-01 -1.165297e-01 -1.080752e-01 -9.988083e-02 -9.112234e-02 -8.268161e-02 -7.372763e-02 -6.514480e-02 -5.610568e-02 -4.748609e-02 -3.847056e-02 -2.991777e-02 -2.102921e-02 -1.264195e-02 -3.974668e-03 4.155975e-03 1.252001e-02 2.031313e-02 2.830688e-02 3.569360e-02 4.326665e-02 5.019129e-02 5.731061e-02 6.373113e-02 7.038082e-02 7.626866e-02 8.244885e-02 8.778825e-02 9.351337e-02 9.830039e-02 1.035968e-01 1.078383e-01 1.127418e-01 1.164545e-01 1.210073e-01 1.242168e-01 1.284649e-01 1.312050e-01 1.351946e-01 1.375067e-01 1.412811e-01 1.432128e-01 1.468085e-01 1.484118e-01 1.518540e-01 1.531824e-01 1.564804e-01 1.575843e-01 1.607254e-01 1.616466e-01 1.645907e-01 1.653551e-01 1.680294e-01 1.686387e-01 1.709341e-01 1.713582e-01 1.731285e-01 1.732992e-01 1.743640e-01 1.741724e-01 1.743251e-01 1.736234e-01 1.726441e-01 1.712537e-01 1.689272e-01 1.666524e-01 1.627885e-01 1.594363e-01 1.538914e-01 1.492933e-01 1.419897e-01 1.360245e-01 1.269649e-01 1.195782e-01 1.088532e-01 1.000703e-01 8.785862e-02 7.778910e-02 6.434858e-02 5.318229e-02 3.883446e-02 2.682881e-02 1.193782e-02 -6.012380e-04 -1.565239e-02 -2.839292e-02 -4.322625e-02 -5.583356e-02 -7.009759e-02 -8.225542e-02 -9.564238e-02 -1.070699e-01 -1.193274e-01 -1.297909e-01 -1.407278e-01 -1.500472e-01 -1.595339e-01 -1.675833e-01 -1.755478e-01 -1.822524e-01 -1.886726e-01 -1.940027e-01 -1.988971e-01 -2.028597e-01 -2.062770e-01 -2.089074e-01 -2.109172e-01 -2.122700e-01 
-2.501018e-01 -2.502240e-01 -2.495081e-01 -2.483019e-01 -2.462425e-01 -2.437984e-01 -2.404954e-01 -2.369023e-01 -2.324502e-01 -2.277943e-01 -2.222828e-01 -2.166486e-01 -2.101649e-01 -2.036365e-01 -1.962682e-01 -1.889316e-01 -1.807699e-01 -1.727154e-01 -1.638579e-01 -1.551821e-01 -1.457343e-01 -1.365411e-01 -1.266176e-01 -1.170185e-01 -1.067418e-01 -9.685458e-02 -8.635280e-02 -7.629990e-02 -6.570352e-02 -5.560865e-02 -4.504625e-02 -3.503111e-02 -2.462475e-02 -1.480534e-02 -4.666055e-03 4.850738e-03 1.462688e-02 2.374627e-02 3.308126e-02 4.172277e-02 5.055866e-02 5.865746e-02 6.695714e-02 7.446451e-02 8.221130e-02 8.909435e-02 9.629062e-02 1.025314e-01 1.091963e-01 1.147905e-01 1.209572e-01 1.259130e-01 1.316255e-01 1.359624e-01 1.412721e-01 1.450200e-01 1.499822e-01 1.531808e-01 1.578514e-01 1.605490e-01 1.649802e-01 1.672332e-01 1.714693e-01 1.733399e-01 1.774121e-01 1.789650e-01 1.828858e-01 1.841832e-01 1.879394e-01 1.890339e-01 1.925796e-01 1.935055e-01 1.967554e-01 1.975187e-01 2.003435e-01 2.009115e-01 2.031362e-01 2.034300e-01 2.048367e-01 2.047271e-01 2.050647e-01 2.043735e-01 2.033734e-01 2.018833e-01 1.992811e-01 1.967523e-01 1.923136e-01 1.885077e-01 1.820543e-01 1.767622e-01 1.681965e-01 1.612661e-01 1.505891e-01 1.419498e-01 1.292707e-01 1.189495e-01 1.044845e-01 9.261213e-02 7.667430e-02 6.347964e-02 4.645888e-02 3.225341e-02 1.459062e-02 -2.552831e-04 -1.809757e-02 -3.318257e-02 -5.074941e-02 -6.566987e-02 -8.254011e-02 -9.691597e-02 -1.127229e-01 -1.262184e-01 -1.406638e-01 -1.530014e-01 -1.658619e-01 -1.768298e-01 -1.879567e-01 -1.974092e-01 -2.067234e-01 -2.145766e-01 -2.220585e-01 -2.282826e-01 -2.339604e-01 -2.385689e-01 -2.425065e-01 -2.455460e-01 -2.478305e-01 -2.493701e-01 
-2.877443e-01 -2.878220e-01 -2.869480e-01 -2.855056e-01 -2.830989e-01 -2.802410e-01 -2.764160e-01 -2.722443e-01 -2.671079e-01 -2.617202e-01 -2.553730e-01 -2.488644e-01 -2.414034e-01 -2.338681e-01 -2.253911e-01 -2.169258e-01 -2.075346e-01 -1.982410e-01 -1.880454e-01 -1.780335e-01 -1.671534e-01 -1.565423e-01 -1.451088e-01 -1.340272e-01 -1.221816e-01 -1.107664e-01 -9.865763e-02 -8.705137e-02 -7.483176e-02 -6.317931e-02 -5.099947e-02 -3.944345e-02 -2.744678e-02 -1.612319e-02 -4.440415e-03 6.525553e-03 1.778120e-02 2.827879e-02 3.901531e-02 4.895085e-02 5.909988e-02 6.839838e-02 7.791616e-02 8.652177e-02 9.538871e-02 1.032643e-01 1.114832e-01 1.186091e-01 1.262028e-01 1.325754e-01 1.395830e-01 1.452128e-01 1.516864e-01 1.565971e-01 1.625976e-01 1.668247e-01 1.724183e-01 1.760083e-01 1.812621e-01 1.842720e-01 1.892498e-01 1.917461e-01 1.965034e-01 1.985602e-01 2.031384e-01 2.048336e-01 2.092533e-01 2.106636e-01 2.149164e-01 2.161083e-01 2.201484e-01 2.211683e-01 2.249038e-01 2.257653e-01 2.290517e-01 2.297237e-01 2.323607e-01 2.327561e-01 2.344909e-01 2.344609e-01 2.349979e-01 2.343332e-01 2.333526e-01 2.317937e-01 2.289772e-01 2.262343e-01 2.212966e-01 2.170787e-01 2.097994e-01 2.038484e-01 1.941021e-01 1.862277e-01 1.740066e-01 1.641167e-01 1.495424e-01 1.376635e-01 1.209870e-01 1.072716e-01 8.886040e-02 7.358039e-02 5.389465e-02 3.742159e-02 1.698255e-02 -2.417732e-04 -2.088747e-02 -3.838556e-02 -5.870144e-02 -7.599510e-02 -9.548641e-02 -1.121280e-01 -1.303664e-01 -1.459634e-01 -1.626032e-01 -1.768342e-01 -1.916196e-01 -2.042425e-01 -2.170067e-01 -2.278580e-01 -2.385159e-01 -2.475054e-01 -2.560416e-01 -2.631415e-01 -2.695958e-01 -2.748287e-01 -2.792811e-01 -2.827065e-01 -2.852627e-01 -2.869649e-01 
-3.264623e-01 -3.264709e-01 -3.253748e-01 -3.236716e-01 -3.208539e-01 -3.175602e-01 -3.131514e-01 -3.083835e-01 -3.025041e-01 -2.963725e-01 -2.891347e-01 -2.817453e-01 -2.732566e-01 -2.647141e-01 -2.550823e-01 -2.454935e-01 -2.348314e-01 -2.243095e-01 -2.127396e-01 -2.014068e-01 -1.890642e-01 -1.770541e-01 -1.640872e-01 -1.515449e-01 -1.381148e-01 -1.251954e-01 -1.114725e-01 -9.833790e-02 -8.449698e-02 -7.131200e-02 -5.752587e-02 -4.445295e-02 -3.088590e-02 -1.807989e-02 -4.881231e-03 7.515579e-03 2.021722e-02 3.207925e-02 4.418025e-02 5.540172e-02 6.682619e-02 7.732284e-02 8.802360e-02 9.773318e-02 1.076911e-01 1.165726e-01 1.257943e-01 1.338265e-01 1.423413e-01 1.495208e-01 1.573767e-01 1.637159e-01 1.709751e-01 1.765006e-01 1.832353e-01 1.879871e-01 1.942747e-01 1.983052e-01 2.042243e-01 2.075981e-01 2.132235e-01 2.160167e-01 2.214142e-01 2.237126e-01 2.289324e-01 2.308279e-01 2.358969e-01 2.374814e-01 2.423941e-01 2.437498e-01 2.484575e-01 2.496447e-01 2.540452e-01 2.550870e-01 2.590157e-01 2.598829e-01 2.631084e-01 2.637051e-01 2.659314e-01 2.660874e-01 2.669650e-01 2.664354e-01 2.655833e-01 2.640604e-01 2.610968e-01 2.582337e-01 2.528139e-01 2.482592e-01 2.401153e-01 2.335547e-01 2.225325e-01 2.137318e-01 1.998173e-01 1.886594e-01 1.719942e-01 1.585042e-01 1.393841e-01 1.237387e-01 1.025980e-01 8.511680e-02 6.249914e-02 4.362060e-02 2.014070e-02 3.863742e-04 -2.331318e-02 -4.338063e-02 -6.667188e-02 -8.649091e-02 -1.087980e-01 -1.278456e-01 -1.486739e-01 -1.664946e-01 -1.854488e-01 -2.016734e-01 -2.184659e-01 -2.328197e-01 -2.472680e-01 -2.595703e-01 -2.715876e-01 -2.817434e-01 -2.913236e-01 -2.993105e-01 -3.065104e-01 -3.123638e-01 -3.172850e-01 -3.210815e-01 -3.238534e-01 -3.256969e-01 
-3.658131e-01 -3.657216e-01 -3.644079e-01 -3.624130e-01 -3.591924e-01 -3.554311e-01 -3.504490e-01 -3.450505e-01 -3.384388e-01 -3.315244e-01 -3.234044e-01 -3.150891e-01 -3.055761e-01 -2.959729e-01 -2.851821e-01 -2.744069e-01 -2.624598e-01 -2.506357e-01 -2.376654e-01 -2.249272e-01 -2.110824e-01 -1.975789e-01 -1.830251e-01 -1.689193e-01 -1.538378e-01 -1.393053e-01 -1.238895e-01 -1.091150e-01 -9.356422e-02 -7.873627e-02 -6.324862e-02 -4.855330e-02 -3.331770e-02 -1.893250e-02 -4.120876e-03 9.791331e-03 2.403073e-02 3.732667e-02 5.087447e-02 6.343407e-02 7.620297e-02 8.793141e-02 9.986738e-02 1.106955e-01 1.217768e-01 1.316600e-01 1.418950e-01 1.508112e-01 1.602342e-01 1.681816e-01 1.768482e-01 1.838428e-01 1.918252e-01 1.978984e-01 2.052804e-01 2.104783e-01 2.173503e-01 2.217328e-01 2.281871e-01 2.318281e-01 2.379537e-01 2.409405e-01 2.468178e-01 2.492499e-01 2.549435e-01 2.569292e-01 2.624790e-01 2.641288e-01 2.695395e-01 2.709555e-01 2.761837e-01 2.774451e-01 2.823865e-01 2.835315e-01 2.880091e-01 2.890158e-01 2.927726e-01 2.935413e-01 2.962415e-01 2.965824e-01 2.978232e-01 2.974551e-01 2.967909e-01 2.953532e-01 2.923320e-01 2.894120e-01 2.836203e-01 2.787950e-01 2.699061e-01 2.627926e-01 2.506110e-01 2.409197e-01 2.254150e-01 2.129955e-01 1.943206e-01 1.791933e-01 1.576844e-01 1.400513e-01 1.162091e-01 9.644397e-02 7.089906e-02 4.951681e-02 2.298324e-02 5.960635e-04 -2.618039e-02 -4.891442e-02 -7.520726e-02 -9.763513e-02 -1.227817e-01 -1.442998e-01 -1.677351e-01 -1.878230e-01 -2.091006e-01 -2.273416e-01 -2.461421e-01 -2.622318e-01 -2.783584e-01 -2.921022e-01 -3.054687e-01 -3.167707e-01 -3.273830e-01 -3.362302e-01 -3.441645e-01 -3.506079e-01 -3.559894e-01 -3.601255e-01 -3.631085e-01 -3.650617e-01 
-4.065195e-01 -4.062914e-01 -4.046753e-01 -4.023535e-01 -3.986469e-01 -3.943872e-01 -3.887522e-01 -3.826990e-01 -3.752803e-01 -3.675667e-01 -3.584952e-01 -3.492458e-01 -3.386446e-01 -3.279809e-01 -3.159727e-01 -3.040186e-01 -2.907337e-01 -2.776220e-01 -2.632049e-01 -2.490817e-01 -2.336954e-01 -2.187237e-01 -2.025521e-01 -1.869117e-01 -1.701578e-01 -1.540441e-01 -1.369254e-01 -1.205443e-01 -1.032859e-01 -8.684840e-02 -6.967412e-02 -5.338853e-02 -3.651138e-02 -2.057636e-02 -4.189548e-03 1.121303e-02 2.694395e-02 4.165464e-02 5.659771e-02 7.048365e-02 8.454404e-02 9.750109e-02 1.106223e-01 1.225753e-01 1.347377e-01 1.456391e-01 1.568570e-01 1.666842e-01 1.770010e-01 1.857533e-01 1.952361e-01 2.029318e-01 2.116655e-01 2.183397e-01 2.264215e-01 2.321246e-01 2.396588e-01 2.444565e-01 2.515492e-01 2.555230e-01 2.622768e-01 2.655242e-01 2.720328e-01 2.746670e-01 2.810073e-01 2.831536e-01 2.893766e-01 2.911657e-01 2.972837e-01 2.988403e-01 3.048124e-01 3.062374e-01 3.119531e-01 3.133028e-01 3.185670e-01 3.198287e-01 3.243513e-01 3.254209e-01 3.288162e-01 3.294823e-01 3.312810e-01 3.312205e-01 3.308978e-01 3.296890e-01 3.267082e-01 3.238623e-01 3.177285e-01 3.127393e-01 3.030590e-01 2.954644e-01 2.819987e-01 2.714450e-01 2.541511e-01 2.404497e-01 2.195021e-01 2.026671e-01 1.784572e-01 1.587194e-01 1.318319e-01 1.096257e-01 8.079652e-02 5.672331e-02 2.678386e-02 1.558290e-03 -2.862621e-02 -5.423789e-02 -8.382903e-02 -1.090699e-01 -1.373083e-01 -1.614834e-01 -1.877277e-01 -2.102430e-01 -2.339936e-01 -2.543798e-01 -2.752865e-01 -2.932071e-01 -3.110633e-01 -3.263106e-01 -3.410369e-01 -3.535173e-01 -3.651388e-01 -3.748534e-01 -3.834737e-01 -3.904949e-01 -3.962703e-01 -4.007200e-01 -4.038365e-01 -4.058656e-01 
-4.479921e-01 -4.475901e-01 -4.456786e-01 -4.429941e-01 -4.388142e-01 -4.340202e-01 -4.277487e-01 -4.210024e-01 -4.127941e-01 -4.042377e-01 -3.942297e-01 -3.839947e-01 -3.723143e-01 -3.605276e-01 -3.473014e-01 -3.340931e-01 -3.194568e-01 -3.049675e-01 -2.890739e-01 -2.734609e-01 -2.564857e-01 -2.399268e-01 -2.220713e-01 -2.047657e-01 -1.862549e-01 -1.684206e-01 -1.494982e-01 -1.313672e-01 -1.122869e-01 -9.409732e-02 -7.511287e-02 -5.710070e-02 -3.845409e-02 -2.084426e-02 -2.755377e-03 1.424655e-02 3.158929e-02 4.780389e-02 6.425048e-02 7.952928e-02 9.497232e-02 1.092002e-01 1.235762e-01 1.366716e-01 1.499594e-01 1.618723e-01 1.740891e-01 1.847977e-01 1.959941e-01 2.055007e-01 2.157539e-01 2.240816e-01 2.334890e-01 2.406786e-01 2.493513e-01 2.554600e-01 2.635177e-01 2.686189e-01 2.761841e-01 2.803688e-01 2.875616e-01 2.909393e-01 2.978720e-01 3.005712e-01 3.073401e-01 3.095058e-01 3.161812e-01 3.179683e-01 3.245803e-01 3.261410e-01 3.326619e-01 3.341263e-01 3.404509e-01 3.419011e-01 3.478268e-01 3.492680e-01 3.544804e-01 3.558116e-01 3.598803e-01 3.608727e-01 3.632630e-01 3.635517e-01 3.636558e-01 3.627517e-01 3.599386e-01 3.572648e-01 3.509450e-01 3.458953e-01 3.355915e-01 3.276055e-01 3.130182e-01 3.016608e-01 2.827187e-01 2.677499e-01 2.446374e-01 2.260600e-01 1.992173e-01 1.772933e-01 1.473894e-01 1.226243e-01 9.050618e-02 6.360254e-02 3.022894e-02 2.020679e-03 -3.161260e-02 -6.023583e-02 -9.316783e-02 -1.213338e-01 -1.527001e-01 -1.796156e-01 -2.086936e-01 -2.336892e-01 -2.599240e-01 -2.824796e-01 -3.054913e-01 -3.252428e-01 -3.448176e-01 -3.615497e-01 -3.776189e-01 -3.912465e-01 -4.038584e-01 -4.144018e-01 -4.236907e-01 -4.312483e-01 -4.374046e-01 -4.421267e-01 -4.453698e-01 -4.474354e-01 
-4.911045e-01 -4.904761e-01 -4.881603e-01 -4.850642e-01 -4.803064e-01 -4.749363e-01 -4.679301e-01 -4.604587e-01 -4.513696e-01 -4.419494e-01 -4.309209e-01 -4.196904e-01 -4.068536e-01 -3.939448e-01 -3.794300e-01 -3.649780e-01 -3.489259e-01 -3.330782e-01 -3.156505e-01 -2.985742e-01 -2.799605e-01 -2.618471e-01 -2.422679e-01 -2.233343e-01 -2.030389e-01 -1.835248e-01 -1.627851e-01 -1.429468e-01 -1.220471e-01 -1.021486e-01 -8.137297e-02 -6.167604e-02 -4.129543e-02 -2.204935e-02 -2.308665e-03 1.625933e-02 3.515172e-02 5.284425e-02 7.072444e-02 8.737934e-02 1.041325e-01 1.196254e-01 1.351868e-01 1.494311e-01 1.637839e-01 1.767281e-01 1.898988e-01 2.015219e-01 2.135735e-01 2.238806e-01 2.349050e-01 2.439224e-01 2.540330e-01 2.618053e-01 2.711298e-01 2.777183e-01 2.863927e-01 2.918761e-01 3.000392e-01 3.045152e-01 3.123037e-01 3.158922e-01 3.234348e-01 3.262793e-01 3.336893e-01 3.359554e-01 3.433200e-01 3.451892e-01 3.525537e-01 3.542098e-01 3.615570e-01 3.631635e-01 3.703897e-01 3.720597e-01 3.789494e-01 3.807094e-01 3.869149e-01 3.886686e-01 3.937021e-01 3.952008e-01 3.984451e-01 3.992751e-01 4.000186e-01 3.996123e-01 3.971084e-01 3.947859e-01 3.883312e-01 3.833698e-01 3.723908e-01 3.641162e-01 3.482489e-01 3.361317e-01 3.152826e-01 2.990241e-01 2.734021e-01 2.529918e-01 2.231069e-01 1.988427e-01 1.654722e-01 1.379399e-01 1.020677e-01 7.208501e-02 3.482114e-02 3.357784e-03 -3.414963e-02 -6.606281e-02 -1.027127e-01 -1.340709e-01 -1.688812e-01 -1.987782e-01 -2.309377e-01 -2.586173e-01 -2.875139e-01 -3.123983e-01 -3.376254e-01 -3.593208e-01 -3.806638e-01 -3.989495e-01 -4.163595e-01 -4.311637e-01 -4.447228e-01 -4.560922e-01 -4.659763e-01 -4.740435e-01 -4.804870e-01 -4.854388e-01 -4.887034e-01 -4.907547e-01 
-5.351076e-01 -5.342098e-01 -5.315007e-01 -5.279536e-01 -5.226374e-01 -5.166533e-01 -5.089378e-01 -5.007013e-01 -4.907591e-01 -4.804294e-01 -4.684060e-01 -4.561243e-01 -4.421498e-01 -4.280495e-01 -4.122524e-01 -3.964704e-01 -3.789921e-01 -3.616803e-01 -3.426875e-01 -3.240219e-01 -3.037151e-01 -2.839019e-01 -2.625194e-01 -2.417961e-01 -2.196122e-01 -1.982444e-01 -1.755614e-01 -1.538356e-01 -1.309723e-01 -1.091850e-01 -8.646148e-02 -6.490748e-02 -4.262981e-02 -2.158963e-02 -3.483953e-05 2.023649e-02 4.083282e-02 6.011494e-02 7.956798e-02 9.768150e-02 1.158625e-01 1.326719e-01 1.495093e-01 1.649226e-01 1.803995e-01 1.943643e-01 2.085127e-01 2.210113e-01 2.339040e-01 2.449468e-01 2.566891e-01 2.663091e-01 2.770298e-01 2.852785e-01 2.951221e-01 3.020678e-01 3.111885e-01 3.169173e-01 3.254729e-01 3.300914e-01 3.382393e-01 3.418791e-01 3.497708e-01 3.525917e-01 3.603658e-01 3.625564e-01 3.703273e-01 3.720996e-01 3.799406e-01 3.815160e-01 3.894351e-01 3.910200e-01 3.989306e-01 4.006805e-01 4.083690e-01 4.103450e-01 4.174435e-01 4.195657e-01 4.255373e-01 4.275459e-01 4.316933e-01 4.331274e-01 4.346303e-01 4.348365e-01 4.328204e-01 4.309987e-01 4.246274e-01 4.199138e-01 4.084936e-01 4.000706e-01 3.831476e-01 3.703647e-01 3.477996e-01 3.302795e-01 3.022884e-01 2.799991e-01 2.471533e-01 2.204334e-01 1.836204e-01 1.531527e-01 1.135030e-01 8.024400e-02 3.903497e-02 4.115752e-03 -3.733465e-02 -7.271971e-02 -1.131545e-01 -1.478521e-01 -1.861601e-01 -2.191429e-01 -2.544177e-01 -2.848419e-01 -3.164131e-01 -3.436474e-01 -3.710838e-01 -3.947125e-01 -4.178040e-01 -4.376096e-01 -4.563329e-01 -4.722659e-01 -4.867428e-01 -4.988838e-01 -5.093370e-01 -5.178582e-01 -5.245698e-01 -5.296987e-01 -5.329750e-01 -5.349640e-01 
-5.810354e-01 -5.797946e-01 -5.765557e-01 -5.724911e-01 -5.664884e-01 -5.598353e-01 -5.512926e-01 -5.422500e-01 -5.313470e-01 -5.200818e-01 -5.069653e-01 -4.936214e-01 -4.784190e-01 -4.631298e-01 -4.459674e-01 -4.288702e-01 -4.098892e-01 -3.911384e-01 -3.705106e-01 -3.502897e-01 -3.282281e-01 -3.067562e-01 -2.835198e-01 -2.610535e-01 -2.369446e-01 -2.137741e-01 -1.891290e-01 -1.655694e-01 -1.407440e-01 -1.171227e-01 -9.247479e-02 -6.911716e-02 -4.498796e-02 -2.220344e-02 1.099736e-03 2.303083e-02 4.524888e-02 6.608579e-02 8.701829e-02 1.065669e-01 1.260778e-01 1.441939e-01 1.622124e-01 1.788003e-01 1.953173e-01 2.103255e-01 2.253862e-01 2.388004e-01 2.524948e-01 2.643303e-01 2.767828e-01 2.870773e-01 2.984367e-01 3.072457e-01 3.176766e-01 3.250717e-01 3.347472e-01 3.408180e-01 3.499147e-01 3.547730e-01 3.634671e-01 3.672532e-01 3.757162e-01 3.786052e-01 3.869978e-01 3.892022e-01 3.976632e-01 3.994288e-01 4.080568e-01 4.096487e-01 4.184750e-01 4.201496e-01 4.291021e-01 4.310654e-01 4.399283e-01 4.422825e-01 4.506589e-01 4.533445e-01 4.606335e-01 4.633780e-01 4.687794e-01 4.710667e-01 4.736225e-01 4.746984e-01 4.733739e-01 4.722972e-01 4.660943e-01 4.618353e-01 4.499204e-01 4.414956e-01 4.233188e-01 4.099376e-01 3.853231e-01 3.665189e-01 3.357113e-01 3.114286e-01 2.750905e-01 2.457147e-01 2.048772e-01 1.712010e-01 1.271759e-01 9.031396e-02 4.457802e-02 5.845606e-03 -4.008509e-02 -7.930521e-02 -1.239951e-01 -1.623774e-01 -2.045701e-01 -2.409456e-01 -2.796314e-01 -3.130538e-01 -3.475025e-01 -3.772790e-01 -4.070403e-01 -4.327315e-01 -4.576097e-01 -4.790055e-01 -4.990168e-01 -5.160979e-01 -5.314183e-01 -5.443100e-01 -5.552236e-01 -5.641493e-01 -5.709992e-01 -5.762383e-01 -5.793866e-01 -5.812389e-01 
-6.279639e-01 -6.263326e-01 -6.225801e-01 -6.179577e-01 -6.112974e-01 -6.039386e-01 -5.946064e-01 -5.847202e-01 -5.728987e-01 -5.606543e-01 -5.464854e-01 -5.320238e-01 -5.156264e-01 -4.990755e-01 -4.805661e-01 -4.620585e-01 -4.415717e-01 -4.212614e-01 -3.989688e-01 -3.770446e-01 -3.531677e-01 -3.298627e-01 -3.046791e-01 -2.802725e-01 -2.541129e-01 -2.289253e-01 -2.021629e-01 -1.765457e-01 -1.495790e-01 -1.238992e-01 -9.713048e-02 -7.175403e-02 -4.556801e-02 -2.084222e-02 4.414306e-03 2.817573e-02 5.221082e-02 7.474028e-02 9.732895e-02 1.184132e-01 1.394041e-01 1.588877e-01 1.782039e-01 1.959877e-01 2.136222e-01 2.296573e-01 2.456643e-01 2.599429e-01 2.744267e-01 2.869729e-01 3.000752e-01 3.109360e-01 3.228249e-01 3.320642e-01 3.429244e-01 3.506209e-01 3.606460e-01 3.668955e-01 3.762838e-01 3.812046e-01 3.901555e-01 3.938977e-01 4.026095e-01 4.053636e-01 4.140284e-01 4.160318e-01 4.248251e-01 4.263610e-01 4.354229e-01 4.368067e-01 4.462107e-01 4.477604e-01 4.574705e-01 4.594588e-01 4.692781e-01 4.718681e-01 4.813896e-01 4.845620e-01 4.931340e-01 4.966188e-01 5.033434e-01 5.065753e-01 5.103512e-01 5.124672e-01 5.120834e-01 5.119776e-01 5.062474e-01 5.026874e-01 4.906031e-01 4.823946e-01 4.632732e-01 4.494433e-01 4.230375e-01 4.029988e-01 3.695561e-01 3.432175e-01 3.034800e-01 2.712823e-01 2.264292e-01 1.893025e-01 1.408441e-01 1.000987e-01 4.973709e-02 6.912117e-03 -4.361130e-02 -8.691208e-02 -1.359599e-01 -1.782172e-01 -2.243720e-01 -2.642664e-01 -3.064077e-01 -3.428921e-01 -3.802301e-01 -4.125593e-01 -4.446301e-01 -4.723535e-01 -4.989845e-01 -5.219133e-01 -5.431687e-01 -5.613262e-01 -5.774454e-01 -5.910117e-01 -6.023468e-01 -6.116038e-01 -6.185642e-01 -6.238476e-01 -6.268541e-01 -6.285132e-01 