# vtk DataFile Version 2.0
Comment goes here
ASCII

DATASET STRUCTURED_POINTS
FIELD FieldData 1
TIME 1 1 double
0.17500000
DIMENSIONS    128   128   1

ORIGIN    0.000   0.000   0.000
SPACING   0.039062 0.039062   1.000

POINT_DATA   16384
SCALARS uY double
LOOKUP_TABLE default

-7.370562e-15 -5.728405e-15 -7.287182e-15 -6.082895e-15 -7.825815e-15 -6.675794e-15 -8.598531e-15 -7.323877e-15 -8.935110e-15 -6.579027e-15 -7.930781e-15 -6.227528e-15 -7.921768e-15 -5.906341e-15 -7.141319e-15 -5.474663e-15 -6.896301e-15 -5.974097e-15 -7.391174e-15 -5.510070e-15 -7.411797e-15 -6.419931e-15 -7.385259e-15 -5.645295e-15 -7.163135e-15 -6.194496e-15 -7.078220e-15 -4.697795e-15 -4.209106e-15 -1.838505e-15 -1.548519e-15 1.555499e-16 -1.267689e-16 9.012806e-16 -6.194273e-16 1.614931e-15 5.830701e-16 1.090213e-15 1.850018e-15 3.248039e-15 4.008004e-15 5.606816e-15 5.555144e-15 7.723226e-15 7.554862e-15 8.153079e-15 9.702965e-15 1.038207e-14 9.813656e-15 1.037297e-14 1.156044e-14 1.094613e-14 1.207597e-14 1.229883e-14 1.448174e-14 1.445620e-14 1.660643e-14 1.670000e-14 1.860530e-14 1.829482e-14 2.085049e-14 1.886796e-14 2.135167e-14 2.058999e-14 2.222584e-14 2.086572e-14 2.307298e-14 2.250277e-14 2.532287e-14 2.366552e-14 2.609322e-14 2.387974e-14 2.585952e-14 2.252322e-14 2.470250e-14 2.129731e-14 2.336839e-14 2.032746e-14 2.245050e-14 1.977003e-14 2.198550e-14 1.934215e-14 2.082045e-14 1.727090e-14 1.974336e-14 1.758806e-14 1.992336e-14 1.704890e-14 1.975348e-14 1.712645e-14 1.973285e-14 1.656497e-14 1.819849e-14 1.541020e-14 1.647664e-14 1.320733e-14 1.293601e-14 1.132373e-14 1.264976e-14 1.124428e-14 1.178225e-14 8.397895e-15 9.687353e-15 8.313987e-15 8.703638e-15 7.874232e-15 7.624225e-15 7.656649e-15 7.366339e-15 6.944141e-15 6.039505e-15 5.097794e-15 3.750132e-15 3.215118e-15 1.736127e-15 1.347065e-15 -2.614758e-16 -6.875961e-16 -2.396915e-15 -2.121198e-15 -3.923611e-15 -3.418958e-15 -5.158043e-15 -4.263110e-15 -6.110354e-15 -5.134177e-15 -6.988984e-15 -5.676813e-15 
-6.393686e-03 -6.794522e-03 -6.891228e-03 -7.232417e-03 -7.273011e-03 -7.538780e-03 -7.508565e-03 -7.685377e-03 -7.571989e-03 -7.649078e-03 -7.443065e-03 -7.412933e-03 -7.108270e-03 -6.967120e-03 -6.561640e-03 -6.309696e-03 -5.805384e-03 -5.447059e-03 -4.850167e-03 -4.394020e-03 -3.714967e-03 -3.173434e-03 -2.426464e-03 -1.815335e-03 -1.017950e-03 -3.556207e-04 4.722020e-04 1.165656e-03 2.002378e-03 2.706235e-03 3.529753e-03 4.223698e-03 5.012320e-03 5.677420e-03 6.410756e-03 7.030284e-03 7.689979e-03 8.250029e-03 8.820305e-03 9.310148e-03 9.778131e-03 1.019033e-02 1.054617e-02 1.087644e-02 1.111328e-02 1.136018e-02 1.147397e-02 1.163846e-02 1.162766e-02 1.171258e-02 1.157795e-02 1.158747e-02 1.133176e-02 1.127096e-02 1.089873e-02 1.077316e-02 1.029067e-02 1.010616e-02 9.521362e-03 9.283877e-03 8.606428e-03 8.322114e-03 7.563515e-03 7.238824e-03 6.412519e-03 6.054424e-03 5.175884e-03 4.792117e-03 3.878836e-03 3.478096e-03 2.549445e-03 2.141523e-03 1.218444e-03 8.142034e-04 -8.131401e-05 -4.701344e-04 -1.315778e-03 -1.676973e-03 -2.451034e-03 -2.772544e-03 -3.454997e-03 -3.725697e-03 -4.299357e-03 -4.509960e-03 -4.961627e-03 -5.105610e-03 -5.427077e-03 -5.501521e-03 -5.690342e-03 -5.696564e-03 -5.756461e-03 -5.700340e-03 -5.641177e-03 -5.533087e-03 -5.370369e-03 -5.224694e-03 -4.978618e-03 -4.812858e-03 -4.506973e-03 -4.340523e-03 -4.000128e-03 -3.852843e-03 -3.503272e-03 -3.393973e-03 -3.058924e-03 -3.004002e-03 -2.704067e-03 -2.716317e-03 -2.467837e-03 -2.555632e-03 -2.369943e-03 -2.536791e-03 -2.419887e-03 -2.664376e-03 -2.616963e-03 -2.933044e-03 -2.950913e-03 -3.328451e-03 -3.403098e-03 -3.828584e-03 -3.947972e-03 -4.405336e-03 -4.554728e-03 -5.026156e-03 -5.188957e-03 -5.655684e-03 -5.814249e-03 -6.257293e-03 
-1.282468e-02 -1.362959e-02 -1.383048e-02 -1.451575e-02 -1.460366e-02 -1.513758e-02 -1.508299e-02 -1.543830e-02 -1.521636e-02 -1.537139e-02 -1.496308e-02 -1.490271e-02 -1.429589e-02 -1.401245e-02 -1.320272e-02 -1.269659e-02 -1.168790e-02 -1.096792e-02 -9.772802e-03 -8.856169e-03 -7.495535e-03 -6.407241e-03 -4.909727e-03 -3.681536e-03 -2.082331e-03 -7.512616e-04 9.094502e-04 2.302994e-03 3.981893e-03 5.396209e-03 7.048845e-03 8.443058e-03 1.002582e-02 1.136186e-02 1.283378e-02 1.407801e-02 1.540224e-02 1.652675e-02 1.767162e-02 1.865490e-02 1.959461e-02 2.042175e-02 2.113662e-02 2.179909e-02 2.227540e-02 2.277038e-02 2.300005e-02 2.332953e-02 2.330957e-02 2.347927e-02 2.321124e-02 2.322957e-02 2.271903e-02 2.259615e-02 2.185227e-02 2.159932e-02 2.063466e-02 2.026324e-02 1.909373e-02 1.861573e-02 1.726072e-02 1.668837e-02 1.517090e-02 1.451703e-02 1.286402e-02 1.214252e-02 1.038496e-02 9.611273e-03 7.784212e-03 6.975739e-03 5.118014e-03 4.294404e-03 2.448001e-03 1.631120e-03 -1.598571e-04 -9.463159e-04 -2.637111e-03 -3.368443e-03 -4.915507e-03 -5.567232e-03 -6.930392e-03 -7.479854e-03 -8.624648e-03 -9.052851e-03 -9.952829e-03 -1.024633e-02 -1.088509e-02 -1.103771e-02 -1.141046e-02 -1.142459e-02 -1.153895e-02 -1.142626e-02 -1.130220e-02 -1.108350e-02 -1.075234e-02 -1.045663e-02 -9.959111e-03 -9.621751e-03 -9.005354e-03 -8.665606e-03 -7.981274e-03 -7.679381e-03 -6.978074e-03 -6.752216e-03 -6.081537e-03 -5.964985e-03 -5.366229e-03 -5.384972e-03 -4.890823e-03 -5.061885e-03 -4.694918e-03 -5.025467e-03 -4.797489e-03 -5.284731e-03 -5.196913e-03 -5.828678e-03 -5.872330e-03 -6.628194e-03 -6.786025e-03 -7.638770e-03 -7.886434e-03 -8.803688e-03 -9.111464e-03 -1.005736e-02 -1.039184e-02 -1.132862e-02 -1.165432e-02 -1.254379e-02 
-1.926300e-02 -2.048294e-02 -2.078948e-02 -2.182881e-02 -2.196529e-02 -2.277613e-02 -2.269785e-02 -2.323905e-02 -2.290834e-02 -2.314710e-02 -2.253508e-02 -2.244848e-02 -2.153667e-02 -2.111299e-02 -1.989457e-02 -1.913432e-02 -1.761514e-02 -1.653160e-02 -1.473051e-02 -1.334963e-02 -1.129823e-02 -9.657838e-03 -7.399435e-03 -5.547647e-03 -3.135514e-03 -1.128447e-03 1.376557e-03 3.477645e-03 6.009918e-03 8.141812e-03 1.063406e-02 1.273484e-02 1.512111e-02 1.713314e-02 1.935152e-02 2.122402e-02 2.321890e-02 2.490979e-02 2.663352e-02 2.811050e-02 2.952432e-02 3.076519e-02 3.183962e-02 3.283186e-02 3.354648e-02 3.428623e-02 3.462911e-02 3.511976e-02 3.508663e-02 3.533720e-02 3.493054e-02 3.495406e-02 3.418234e-02 3.399436e-02 3.287138e-02 3.248885e-02 3.103342e-02 3.047392e-02 2.870981e-02 2.799122e-02 2.594734e-02 2.508795e-02 2.279868e-02 2.181764e-02 1.932323e-02 1.824122e-02 1.558810e-02 1.442811e-02 1.166888e-02 1.045688e-02 7.649994e-03 6.415370e-03 3.624150e-03 2.399691e-03 -3.091591e-04 -1.487833e-03 -4.046455e-03 -5.142113e-03 -7.484308e-03 -8.459981e-03 -1.052451e-02 -1.134593e-02 -1.308010e-02 -1.371846e-02 -1.508166e-02 -1.551656e-02 -1.648341e-02 -1.670546e-02 -1.726821e-02 -1.728102e-02 -1.745086e-02 -1.727214e-02 -1.707916e-02 -1.674052e-02 -1.623218e-02 -1.577767e-02 -1.501590e-02 -1.449923e-02 -1.355628e-02 -1.303708e-02 -1.199057e-02 -1.152989e-02 -1.045748e-02 -1.011320e-02 -9.087449e-03 -8.909891e-03 -7.993735e-03 -8.022119e-03 -7.265330e-03 -7.525213e-03 -6.962138e-03 -7.464098e-03 -7.112668e-03 -7.852185e-03 -7.714140e-03 -8.672521e-03 -8.734623e-03 -9.880739e-03 -1.011671e-02 -1.140923e-02 -1.178213e-02 -1.317202e-02 -1.363679e-02 -1.506983e-02 -1.557588e-02 -1.699503e-02 -1.748866e-02 -1.883631e-02 
-2.581399e-02 -2.745887e-02 -2.789365e-02 -2.929589e-02 -2.950125e-02 -3.059630e-02 -3.051197e-02 -3.124427e-02 -3.081941e-02 -3.114458e-02 -3.034011e-02 -3.022705e-02 -2.901782e-02 -2.845051e-02 -2.682712e-02 -2.580603e-02 -2.377613e-02 -2.231898e-02 -1.990783e-02 -1.804956e-02 -1.529967e-02 -1.309131e-02 -1.006111e-02 -7.567694e-03 -4.329108e-03 -1.626555e-03 1.738185e-03 4.566985e-03 7.969240e-03 1.083876e-02 1.418765e-02 1.701417e-02 2.022069e-02 2.292639e-02 2.590712e-02 2.842354e-02 3.110369e-02 3.337425e-02 3.568984e-02 3.767131e-02 3.957049e-02 4.123333e-02 4.267682e-02 4.400460e-02 4.496533e-02 4.595334e-02 4.641568e-02 4.706892e-02 4.702746e-02 4.735845e-02 4.681682e-02 4.684334e-02 4.581304e-02 4.555615e-02 4.405577e-02 4.353823e-02 4.159295e-02 4.083821e-02 3.847975e-02 3.751154e-02 3.477842e-02 3.362089e-02 3.055895e-02 2.923735e-02 2.590027e-02 2.444188e-02 2.089167e-02 1.932691e-02 1.563394e-02 1.399737e-02 1.023994e-02 8.570858e-03 4.833969e-03 3.176512e-03 -4.501702e-04 -2.047807e-03 -5.472914e-03 -6.960086e-03 -1.009436e-02 -1.142050e-02 -1.418126e-02 -1.529923e-02 -1.761525e-02 -1.848516e-02 -2.030151e-02 -2.089474e-02 -2.217708e-02 -2.247996e-02 -2.321787e-02 -2.323452e-02 -2.344328e-02 -2.319713e-02 -2.291770e-02 -2.245135e-02 -2.174829e-02 -2.112153e-02 -2.007905e-02 -1.936509e-02 -1.808136e-02 -1.736163e-02 -1.594201e-02 -1.530005e-02 -1.384983e-02 -1.336485e-02 -1.198219e-02 -1.172310e-02 -1.049289e-02 -1.051336e-02 -9.502464e-03 -9.837429e-03 -9.091661e-03 -9.755559e-03 -9.298408e-03 -1.028506e-02 -1.011809e-02 -1.140205e-02 -1.150662e-02 -1.304556e-02 -1.338555e-02 -1.512340e-02 -1.564843e-02 -1.751879e-02 -1.816774e-02 -2.009728e-02 -2.080171e-02 -2.271344e-02 -2.340087e-02 -2.521705e-02 
-3.238030e-02 -3.447224e-02 -3.503853e-02 -3.682384e-02 -3.710092e-02 -3.849795e-02 -3.840928e-02 -3.934764e-02 -3.882850e-02 -3.925183e-02 -3.825234e-02 -3.812096e-02 -3.660880e-02 -3.590207e-02 -3.386490e-02 -3.258305e-02 -3.003017e-02 -2.819544e-02 -2.515859e-02 -2.281513e-02 -1.934810e-02 -1.656071e-02 -1.273762e-02 -9.589038e-03 -5.501313e-03 -2.088232e-03 2.159552e-03 5.731506e-03 1.002663e-02 1.364850e-02 1.787547e-02 2.144072e-02 2.548657e-02 2.889634e-02 3.265541e-02 3.582300e-02 3.920080e-02 4.205486e-02 4.497085e-02 4.745721e-02 4.984642e-02 5.192854e-02 5.374203e-02 5.540015e-02 5.660453e-02 5.783377e-02 5.841006e-02 5.921786e-02 5.915991e-02 5.956312e-02 5.887597e-02 5.889792e-02 5.759633e-02 5.726422e-02 5.537159e-02 5.471451e-02 5.226228e-02 5.130988e-02 4.833747e-02 4.711947e-02 4.367467e-02 4.222107e-02 3.836077e-02 3.670273e-02 3.249373e-02 3.066486e-02 2.618449e-02 2.422234e-02 1.955872e-02 1.750611e-02 1.275765e-02 1.066355e-02 5.937519e-03 3.857220e-03 -7.327793e-04 -2.738558e-03 -7.076310e-03 -8.943444e-03 -1.291496e-02 -1.457914e-02 -1.807841e-02 -1.947940e-02 -2.241468e-02 -2.350130e-02 -2.580141e-02 -2.653671e-02 -2.815670e-02 -2.852280e-02 -2.944832e-02 -2.945009e-02 -2.969983e-02 -2.936696e-02 -2.899273e-02 -2.837955e-02 -2.746371e-02 -2.664666e-02 -2.529698e-02 -2.436982e-02 -2.271220e-02 -2.177921e-02 -1.994890e-02 -1.911699e-02 -1.724916e-02 -1.661957e-02 -1.484017e-02 -1.450078e-02 -1.291859e-02 -1.293757e-02 -1.163809e-02 -1.205950e-02 -1.110106e-02 -1.194267e-02 -1.135494e-02 -1.260818e-02 -1.239270e-02 -1.402451e-02 -1.415709e-02 -1.611311e-02 -1.654732e-02 -1.875590e-02 -1.942732e-02 -2.180397e-02 -2.263468e-02 -2.508634e-02 -2.598931e-02 -2.841849e-02 -2.930169e-02 -3.161011e-02 
-3.913698e-02 -4.169311e-02 -4.242901e-02 -4.461277e-02 -4.499585e-02 -4.670756e-02 -4.664435e-02 -4.779796e-02 -4.720928e-02 -4.773568e-02 -4.656022e-02 -4.641047e-02 -4.460825e-02 -4.375659e-02 -4.131192e-02 -3.975810e-02 -3.668177e-02 -3.445251e-02 -3.078284e-02 -2.793186e-02 -2.373434e-02 -2.034086e-02 -1.570604e-02 -1.187148e-02 -6.911300e-03 -2.754346e-03 2.403055e-03 6.752660e-03 1.196916e-02 1.637763e-02 2.151182e-02 2.584848e-02 3.076223e-02 3.490608e-02 3.947049e-02 4.331571e-02 4.741583e-02 5.087573e-02 5.441399e-02 5.742322e-02 6.032128e-02 6.283628e-02 6.503554e-02 6.703341e-02 6.849430e-02 6.997036e-02 7.067081e-02 7.163533e-02 7.156877e-02 7.204328e-02 7.121650e-02 7.123015e-02 6.966144e-02 6.924777e-02 6.696559e-02 6.616000e-02 6.320224e-02 6.204045e-02 5.845437e-02 5.697178e-02 5.281458e-02 5.104666e-02 4.638643e-02 4.436984e-02 3.928662e-02 3.706094e-02 3.164765e-02 2.925730e-02 2.362012e-02 2.111616e-02 1.537402e-02 1.281537e-02 7.098368e-03 4.552135e-03 -1.001566e-03 -3.461058e-03 -8.709676e-03 -1.100331e-02 -1.580740e-02 -1.785520e-02 -2.208473e-02 -2.381120e-02 -2.735336e-02 -2.869371e-02 -3.146074e-02 -3.236749e-02 -3.430385e-02 -3.475298e-02 -3.584080e-02 -3.583663e-02 -3.609890e-02 -3.567676e-02 -3.517745e-02 -3.440372e-02 -3.324463e-02 -3.221364e-02 -3.052807e-02 -2.935608e-02 -2.729968e-02 -2.611647e-02 -2.385629e-02 -2.279508e-02 -2.049775e-02 -1.968477e-02 -1.750520e-02 -1.704994e-02 -1.512136e-02 -1.510864e-02 -1.353514e-02 -1.401959e-02 -1.287148e-02 -1.387492e-02 -1.318698e-02 -1.469852e-02 -1.447097e-02 -1.644943e-02 -1.665101e-02 -1.902908e-02 -1.960156e-02 -2.229090e-02 -2.315440e-02 -2.605115e-02 -2.710969e-02 -3.009985e-02 -3.124668e-02 -3.421104e-02 -3.533368e-02 -3.815229e-02 
-4.591827e-02 -4.897228e-02 -4.988363e-02 -5.249654e-02 -5.299078e-02 -5.504434e-02 -5.500999e-02 -5.640183e-02 -5.574417e-02 -5.639173e-02 -5.503708e-02 -5.488154e-02 -5.278144e-02 -5.179136e-02 -4.892616e-02 -4.710048e-02 -4.348219e-02 -4.085207e-02 -3.652571e-02 -3.315485e-02 -2.819810e-02 -2.418095e-02 -1.870177e-02 -1.415968e-02 -8.291810e-03 -3.367054e-03 2.736223e-03 7.888025e-03 1.406149e-02 1.927993e-02 2.535461e-02 3.048321e-02 3.629437e-02 4.118863e-02 4.658297e-02 5.111705e-02 5.595840e-02 6.002984e-02 6.420320e-02 6.773553e-02 7.114922e-02 7.409242e-02 7.667848e-02 7.900740e-02 8.072064e-02 8.243196e-02 8.324788e-02 8.435604e-02 8.426824e-02 8.480079e-02 8.381833e-02 8.381150e-02 8.195655e-02 8.145122e-02 7.875736e-02 7.779607e-02 7.430743e-02 7.293243e-02 6.870372e-02 6.695632e-02 6.205353e-02 5.997459e-02 5.447632e-02 5.210770e-02 4.610664e-02 4.349342e-02 3.709761e-02 3.429054e-02 2.762410e-02 2.468193e-02 1.788464e-02 1.487581e-02 8.101414e-03 5.104551e-03 -1.482743e-03 -4.379794e-03 -1.061058e-02 -1.331358e-02 -1.902035e-02 -2.143339e-02 -2.645907e-02 -2.849096e-02 -3.269850e-02 -3.427046e-02 -3.755243e-02 -3.860617e-02 -4.089368e-02 -4.139910e-02 -4.266873e-02 -4.262992e-02 -4.290781e-02 -4.236656e-02 -4.172881e-02 -4.076470e-02 -3.933364e-02 -3.806038e-02 -3.599693e-02 -3.455501e-02 -3.204751e-02 -3.059385e-02 -2.784459e-02 -2.654021e-02 -2.375100e-02 -2.274825e-02 -2.010638e-02 -1.953702e-02 -1.720325e-02 -1.716879e-02 -1.526821e-02 -1.583340e-02 -1.444989e-02 -1.563973e-02 -1.481406e-02 -1.661411e-02 -1.634534e-02 -1.870496e-02 -1.895438e-02 -2.179192e-02 -2.248873e-02 -2.569786e-02 -2.674569e-02 -3.020209e-02 -3.148576e-02 -3.505350e-02 -3.644540e-02 -3.998283e-02 -4.134879e-02 -4.471367e-02 
-5.297155e-02 -5.654879e-02 -5.768985e-02 -6.075471e-02 -6.140899e-02 -6.382336e-02 -6.386050e-02 -6.550449e-02 -6.481332e-02 -6.558981e-02 -6.408338e-02 -6.392267e-02 -6.154320e-02 -6.040739e-02 -5.713069e-02 -5.501741e-02 -5.085636e-02 -4.780121e-02 -4.280761e-02 -3.888467e-02 -3.314899e-02 -2.846894e-02 -2.211761e-02 -1.682316e-02 -1.001328e-02 -4.272151e-03 2.816028e-03 8.820256e-03 1.599242e-02 2.207058e-02 2.912821e-02 3.509606e-02 4.184602e-02 4.753390e-02 5.379701e-02 5.905778e-02 6.467559e-02 6.939024e-02 7.422966e-02 7.831029e-02 8.226598e-02 8.565615e-02 8.865090e-02 9.132361e-02 9.330685e-02 9.526076e-02 9.620600e-02 9.746031e-02 9.736187e-02 9.795078e-02 9.682049e-02 9.678775e-02 9.465206e-02 9.404618e-02 9.094415e-02 8.981480e-02 8.579706e-02 8.419281e-02 7.932167e-02 7.728926e-02 7.163968e-02 6.922473e-02 6.288596e-02 6.013486e-02 5.321241e-02 5.017510e-02 4.279245e-02 3.952554e-02 3.182514e-02 2.839493e-02 2.053802e-02 1.702273e-02 9.187482e-03 5.678136e-03 -1.944276e-03 -5.344801e-03 -1.255628e-02 -1.573644e-02 -2.234028e-02 -2.518540e-02 -3.099643e-02 -3.339637e-02 -3.825235e-02 -4.011080e-02 -4.388407e-02 -4.512853e-02 -4.773679e-02 -4.832805e-02 -4.974285e-02 -4.968266e-02 -4.993454e-02 -4.927017e-02 -4.844925e-02 -4.727389e-02 -4.552557e-02 -4.397414e-02 -4.148988e-02 -3.973017e-02 -3.673409e-02 -3.495421e-02 -3.168681e-02 -3.008015e-02 -2.678083e-02 -2.553037e-02 -2.242060e-02 -2.168442e-02 -1.895329e-02 -1.885280e-02 -1.664632e-02 -1.725848e-02 -1.567315e-02 -1.702706e-02 -1.610802e-02 -1.818563e-02 -1.792869e-02 -2.066898e-02 -2.102571e-02 -2.433123e-02 -2.521600e-02 -2.896067e-02 -3.025856e-02 -3.429568e-02 -3.587049e-02 -4.004041e-02 -4.174213e-02 -4.587901e-02 -4.755057e-02 -5.148830e-02 
-6.006077e-02 -6.420703e-02 -6.558729e-02 -6.914599e-02 -6.996885e-02 -7.278125e-02 -7.289598e-02 -7.482378e-02 -7.410131e-02 -7.503185e-02 -7.337058e-02 -7.322227e-02 -7.055388e-02 -6.928148e-02 -6.557632e-02 -6.317556e-02 -5.844690e-02 -5.495767e-02 -4.926416e-02 -4.477140e-02 -3.821702e-02 -3.284873e-02 -2.557975e-02 -1.950182e-02 -1.170057e-02 -5.108468e-03 3.015507e-03 9.907614e-03 1.812842e-02 2.509995e-02 3.318710e-02 4.002360e-02 4.775347e-02 5.425813e-02 6.142401e-02 6.742710e-02 7.384716e-02 7.921251e-02 8.473512e-02 8.936356e-02 9.386986e-02 9.769936e-02 1.011034e-01 1.041065e-01 1.063533e-01 1.085323e-01 1.095944e-01 1.109754e-01 1.108487e-01 1.114744e-01 1.101744e-01 1.100979e-01 1.076559e-01 1.069348e-01 1.033954e-01 1.020876e-01 9.750760e-02 9.566869e-02 9.011739e-02 8.779977e-02 8.136011e-02 7.861400e-02 7.138485e-02 6.826065e-02 6.035929e-02 5.691105e-02 4.847558e-02 4.476493e-02 3.595579e-02 3.205574e-02 2.305589e-02 1.905373e-02 1.006681e-02 6.065523e-03 -2.688371e-03 -6.571003e-03 -1.486222e-02 -1.849714e-02 -2.609609e-02 -2.934935e-02 -3.603843e-02 -3.878024e-02 -4.436737e-02 -4.648318e-02 -5.081588e-02 -5.221844e-02 -5.519690e-02 -5.583776e-02 -5.742544e-02 -5.730443e-02 -5.753450e-02 -5.670542e-02 -5.568191e-02 -5.425327e-02 -5.214621e-02 -5.027630e-02 -4.731082e-02 -4.519728e-02 -4.163763e-02 -3.950229e-02 -3.563231e-02 -3.370316e-02 -2.980523e-02 -2.829760e-02 -2.463245e-02 -2.373164e-02 -2.052112e-02 -2.036852e-02 -1.778286e-02 -1.846693e-02 -1.661746e-02 -1.817001e-02 -1.710724e-02 -1.950477e-02 -1.922132e-02 -2.239040e-02 -2.282738e-02 -2.665275e-02 -2.770844e-02 -3.204241e-02 -3.358179e-02 -3.825379e-02 -4.011798e-02 -4.494339e-02 -4.695834e-02 -5.174620e-02 -5.373033e-02 -5.828989e-02 
-6.750930e-02 -7.225946e-02 -7.395026e-02 -7.803425e-02 -7.909010e-02 -8.232695e-02 -8.257563e-02 -8.480704e-02 -8.410036e-02 -8.519659e-02 -8.341703e-02 -8.328319e-02 -8.035071e-02 -7.893304e-02 -7.481151e-02 -7.210311e-02 -6.680561e-02 -6.285044e-02 -5.644249e-02 -5.133686e-02 -4.393668e-02 -3.782726e-02 -2.960239e-02 -2.268028e-02 -1.384048e-02 -6.331523e-03 2.881732e-03 1.072980e-02 2.005618e-02 2.798832e-02 3.716257e-02 4.493133e-02 5.369679e-02 6.107590e-02 6.919633e-02 7.599173e-02 8.326050e-02 8.931789e-02 9.556400e-02 1.007726e-01 1.058634e-01 1.101558e-01 1.139968e-01 1.173459e-01 1.198781e-01 1.222908e-01 1.234866e-01 1.249966e-01 1.248545e-01 1.255141e-01 1.240538e-01 1.239261e-01 1.211843e-01 1.203365e-01 1.163637e-01 1.148620e-01 1.097217e-01 1.076282e-01 1.013968e-01 9.876893e-02 9.153737e-02 8.842906e-02 8.030596e-02 7.677051e-02 6.788514e-02 6.397969e-02 5.448506e-02 5.027540e-02 4.035046e-02 3.591588e-02 2.576603e-02 2.120311e-02 1.105849e-02 6.483130e-03 -3.405983e-03 -7.859176e-03 -1.723009e-02 -2.141163e-02 -3.000024e-02 -3.375304e-02 -4.130768e-02 -4.447767e-02 -5.077504e-02 -5.322439e-02 -5.808618e-02 -5.970784e-02 -6.301645e-02 -6.374833e-02 -6.545967e-02 -6.529641e-02 -6.544789e-02 -6.444823e-02 -6.316044e-02 -6.144867e-02 -5.891979e-02 -5.668017e-02 -5.317321e-02 -5.063770e-02 -4.646152e-02 -4.389160e-02 -3.937762e-02 -3.704257e-02 -3.251975e-02 -3.067383e-02 -2.644467e-02 -2.530622e-02 -2.162647e-02 -2.136132e-02 -1.842522e-02 -1.913610e-02 -1.706827e-02 -1.879077e-02 -1.764468e-02 -2.034942e-02 -2.011138e-02 -2.371096e-02 -2.430836e-02 -2.866742e-02 -2.997930e-02 -3.492593e-02 -3.679434e-02 -4.213142e-02 -4.437243e-02 -4.988787e-02 -5.230149e-02 -5.777694e-02 -6.015556e-02 -6.537361e-02 
-7.500786e-02 -8.042050e-02 -8.243646e-02 -8.709956e-02 -8.840181e-02 -9.211124e-02 -9.250416e-02 -9.508049e-02 -9.439484e-02 -9.568988e-02 -9.379034e-02 -9.369440e-02 -9.048747e-02 -8.893691e-02 -8.437860e-02 -8.136282e-02 -7.546521e-02 -7.103185e-02 -6.386730e-02 -5.812453e-02 -4.982637e-02 -4.294096e-02 -3.369989e-02 -2.589061e-02 -1.594646e-02 -7.472766e-03 2.897776e-03 1.175084e-02 2.224949e-02 3.118862e-02 4.151195e-02 5.025322e-02 6.010860e-02 6.839349e-02 7.751291e-02 8.512123e-02 9.327186e-02 1.000304e-01 1.070214e-01 1.128080e-01 1.184932e-01 1.232366e-01 1.275139e-01 1.311890e-01 1.339969e-01 1.366179e-01 1.379302e-01 1.395413e-01 1.393604e-01 1.400263e-01 1.383775e-01 1.381737e-01 1.350997e-01 1.341050e-01 1.296628e-01 1.279530e-01 1.222120e-01 1.198568e-01 1.128995e-01 1.099615e-01 1.018858e-01 9.842214e-02 8.934447e-02 8.541076e-02 7.547074e-02 7.112601e-02 6.049023e-02 5.580314e-02 4.466826e-02 3.972311e-02 2.831704e-02 2.321864e-02 1.179916e-02 6.675646e-03 -4.474373e-03 -9.471760e-03 -2.005285e-02 -2.475384e-02 -3.446243e-02 -3.868597e-02 -4.723037e-02 -5.079696e-02 -5.791608e-02 -6.066337e-02 -6.614656e-02 -6.794670e-02 -7.165271e-02 -7.242949e-02 -7.430215e-02 -7.404539e-02 -7.412374e-02 -7.289850e-02 -7.131940e-02 -6.926802e-02 -6.625998e-02 -6.359588e-02 -5.946423e-02 -5.645727e-02 -5.156172e-02 -4.851674e-02 -4.324366e-02 -4.047448e-02 -3.520703e-02 -3.300931e-02 -2.809893e-02 -2.672538e-02 -2.246774e-02 -2.210867e-02 -1.872646e-02 -1.949771e-02 -1.713158e-02 -1.907044e-02 -1.777782e-02 -2.084632e-02 -2.060691e-02 -2.470075e-02 -2.542687e-02 -3.038776e-02 -3.193722e-02 -3.756657e-02 -3.975626e-02 -4.582842e-02 -4.844710e-02 -5.472105e-02 -5.754057e-02 -6.376952e-02 -6.655422e-02 -7.249334e-02 
-8.296058e-02 -8.908183e-02 -9.151242e-02 -9.679639e-02 -9.842608e-02 -1.026436e-01 -1.032520e-01 -1.062005e-01 -1.055958e-01 -1.071066e-01 -1.051340e-01 -1.050807e-01 -1.016314e-01 -9.993874e-02 -9.495939e-02 -9.161180e-02 -8.511243e-02 -8.016082e-02 -7.222041e-02 -6.578533e-02 -5.655318e-02 -4.882320e-02 -3.851510e-02 -2.973943e-02 -1.862828e-02 -9.103660e-03 2.494980e-03 1.244202e-02 2.418789e-02 3.422155e-02 4.576915e-02 5.556517e-02 6.658248e-02 7.584697e-02 8.603153e-02 9.451595e-02 1.036069e-01 1.111180e-01 1.189037e-01 1.253077e-01 1.316285e-01 1.368505e-01 1.415971e-01 1.456156e-01 1.487249e-01 1.515626e-01 1.530108e-01 1.547242e-01 1.545188e-01 1.551861e-01 1.533590e-01 1.530693e-01 1.496704e-01 1.485146e-01 1.436074e-01 1.416711e-01 1.353315e-01 1.326914e-01 1.250080e-01 1.217309e-01 1.128084e-01 1.089535e-01 9.891639e-02 9.453962e-02 8.353797e-02 7.869874e-02 6.691296e-02 6.168144e-02 4.932641e-02 4.379100e-02 3.111804e-02 2.539165e-02 1.268742e-02 6.911415e-03 -5.506966e-03 -1.116246e-02 -2.295675e-02 -2.829700e-02 -3.912186e-02 -4.393674e-02 -5.345814e-02 -5.753641e-02 -6.545335e-02 -6.860105e-02 -7.466890e-02 -7.673024e-02 -8.078333e-02 -8.166154e-02 -8.363211e-02 -8.330728e-02 -8.323796e-02 -8.177893e-02 -7.982629e-02 -7.739392e-02 -7.382166e-02 -7.066200e-02 -6.582363e-02 -6.225086e-02 -5.656325e-02 -5.293407e-02 -4.684458e-02 -4.352693e-02 -3.747805e-02 -3.481843e-02 -2.921404e-02 -2.750765e-02 -2.268486e-02 -2.215251e-02 -1.836197e-02 -1.913611e-02 -1.653215e-02 -1.865274e-02 -1.729306e-02 -2.071242e-02 -2.056570e-02 -2.515997e-02 -2.611885e-02 -3.170333e-02 -3.360011e-02 -3.994577e-02 -4.256849e-02 -4.941754e-02 -5.252468e-02 -5.960387e-02 -6.293691e-02 -6.996822e-02 -7.326179e-02 -7.997054e-02 
-9.098095e-02 -9.788287e-02 -1.007497e-01 -1.067212e-01 -1.086984e-01 -1.134842e-01 -1.143246e-01 -1.176975e-01 -1.171840e-01 -1.189531e-01 -1.169089e-01 -1.169289e-01 -1.132275e-01 -1.114092e-01 -1.059858e-01 -1.023072e-01 -9.516842e-02 -8.968267e-02 -8.091384e-02 -7.375418e-02 -6.352164e-02 -5.490023e-02 -4.344732e-02 -3.364711e-02 -2.128346e-02 -1.064301e-02 2.272366e-03 1.337981e-02 2.645975e-02 3.765051e-02 5.050273e-02 6.140736e-02 7.365641e-02 8.394181e-02 9.524780e-02 1.046347e-01 1.147070e-01 1.229810e-01 1.315868e-01 1.386032e-01 1.455697e-01 1.512521e-01 1.564645e-01 1.607976e-01 1.641934e-01 1.672122e-01 1.687724e-01 1.705492e-01 1.702889e-01 1.709194e-01 1.688789e-01 1.684691e-01 1.647062e-01 1.633618e-01 1.579471e-01 1.557655e-01 1.487807e-01 1.458465e-01 1.373851e-01 1.337695e-01 1.239405e-01 1.197040e-01 1.086378e-01 1.038357e-01 9.169005e-02 8.638034e-02 7.334733e-02 6.759972e-02 5.391101e-02 4.781613e-02 3.374601e-02 2.742330e-02 1.328841e-02 6.891395e-03 -6.954078e-03 -1.323667e-02 -2.641102e-02 -3.235944e-02 -4.446912e-02 -4.984286e-02 -6.050346e-02 -6.505768e-02 -7.391929e-02 -7.742638e-02 -8.420128e-02 -8.647568e-02 -9.096544e-02 -9.188874e-02 -9.400747e-02 -9.355022e-02 -9.334023e-02 -9.157668e-02 -8.921371e-02 -8.632634e-02 -8.211222e-02 -7.838409e-02 -7.272676e-02 -6.852156e-02 -6.190385e-02 -5.763544e-02 -5.057610e-02 -4.667128e-02 -3.968282e-02 -3.654242e-02 -3.009103e-02 -2.805461e-02 -2.252695e-02 -2.184578e-02 -1.752615e-02 -1.834748e-02 -1.540705e-02 -1.777036e-02 -1.626792e-02 -2.011184e-02 -2.000394e-02 -2.518088e-02 -2.633813e-02 -3.263309e-02 -3.485929e-02 -4.200958e-02 -4.506070e-02 -5.277395e-02 -5.637516e-02 -6.434429e-02 -6.820396e-02 -7.611868e-02 -7.993926e-02 -8.749444e-02 
-9.955995e-02 -1.073019e-01 -1.107137e-01 -1.174267e-01 -1.198506e-01 -1.252511e-01 -1.264112e-01 -1.302452e-01 -1.298975e-01 -1.319491e-01 -1.298924e-01 -1.299947e-01 -1.260821e-01 -1.241298e-01 -1.182827e-01 -1.142449e-01 -1.064648e-01 -1.003961e-01 -9.077404e-02 -8.282079e-02 -7.154101e-02 -6.194110e-02 -4.927700e-02 -3.835086e-02 -2.465287e-02 -1.278594e-02 1.538324e-03 1.392027e-02 2.843116e-02 4.089072e-02 5.514378e-02 6.726105e-02 8.083285e-02 9.223136e-02 1.047411e-01 1.151080e-01 1.262332e-01 1.353317e-01 1.448172e-01 1.524918e-01 1.601520e-01 1.663255e-01 1.720412e-01 1.767065e-01 1.804171e-01 1.836238e-01 1.853168e-01 1.871555e-01 1.868552e-01 1.874410e-01 1.851974e-01 1.846549e-01 1.805349e-01 1.789854e-01 1.730675e-01 1.706200e-01 1.629918e-01 1.597383e-01 1.504980e-01 1.465126e-01 1.357739e-01 1.311164e-01 1.190148e-01 1.137376e-01 1.004388e-01 9.459582e-02 8.030366e-02 7.396211e-02 5.892548e-02 5.217649e-02 3.669366e-02 2.966254e-02 1.408159e-02 6.934746e-03 -8.351018e-03 -1.540378e-02 -2.996657e-02 -3.667602e-02 -5.007093e-02 -5.615962e-02 -6.794856e-02 -7.312962e-02 -8.291056e-02 -8.691300e-02 -9.435247e-02 -9.695084e-02 -1.018162e-01 -1.028611e-01 -1.050484e-01 -1.044935e-01 -1.040470e-01 -1.019680e-01 -9.908710e-02 -9.568821e-02 -9.071933e-02 -8.632545e-02 -7.973904e-02 -7.477233e-02 -6.712605e-02 -6.206970e-02 -5.396224e-02 -4.931561e-02 -4.133674e-02 -3.756838e-02 -3.025149e-02 -2.775660e-02 -2.153991e-02 -2.060820e-02 -1.580863e-02 -1.660632e-02 -1.340824e-02 -1.597481e-02 -1.443260e-02 -1.869057e-02 -1.874226e-02 -2.451597e-02 -2.600377e-02 -3.304268e-02 -3.573613e-02 -4.373854e-02 -4.735691e-02 -5.599103e-02 -6.022268e-02 -6.914351e-02 -7.366126e-02 -8.252290e-02 -8.699545e-02 -9.545964e-02 
-1.082284e-01 -1.168965e-01 -1.208841e-01 -1.284191e-01 -1.313187e-01 -1.374077e-01 -1.389124e-01 -1.432727e-01 -1.431086e-01 -1.454968e-01 -1.434345e-01 -1.436592e-01 -1.395283e-01 -1.374644e-01 -1.311693e-01 -1.267746e-01 -1.183094e-01 -1.116378e-01 -1.010986e-01 -9.230967e-02 -7.989955e-02 -6.925901e-02 -5.528474e-02 -4.315488e-02 -2.801278e-02 -1.483217e-02 1.015169e-03 1.476081e-02 3.081438e-02 4.462637e-02 6.038300e-02 7.378421e-02 8.876701e-02 1.013324e-01 1.151158e-01 1.264956e-01 1.387231e-01 1.486573e-01 1.590510e-01 1.673740e-01 1.757368e-01 1.823738e-01 1.885845e-01 1.935406e-01 1.975438e-01 2.008883e-01 2.026817e-01 2.045286e-01 2.041490e-01 2.046381e-01 2.021479e-01 2.014266e-01 1.969036e-01 1.951124e-01 1.886431e-01 1.859051e-01 1.775823e-01 1.739979e-01 1.639225e-01 1.595690e-01 1.478560e-01 1.427914e-01 1.295781e-01 1.238499e-01 1.093060e-01 1.029619e-01 8.729964e-02 8.040119e-02 6.388406e-02 5.652023e-02 3.946929e-02 3.176885e-02 1.456438e-02 6.705067e-03 -1.021743e-02 -1.800523e-02 -3.416620e-02 -4.160298e-02 -5.649788e-02 -6.326726e-02 -7.639368e-02 -8.216383e-02 -9.305545e-02 -9.750862e-02 -1.057735e-01 -1.086413e-01 -1.140007e-01 -1.151005e-01 -1.174232e-01 -1.166916e-01 -1.160179e-01 -1.135338e-01 -1.100855e-01 -1.060791e-01 -1.002513e-01 -9.509548e-02 -8.742990e-02 -8.161258e-02 -7.275412e-02 -6.683547e-02 -5.747738e-02 -5.203619e-02 -4.286042e-02 -3.843801e-02 -3.005875e-02 -2.710850e-02 -2.002625e-02 -1.887609e-02 -1.344758e-02 -1.427984e-02 -1.070600e-02 -1.355541e-02 -1.188628e-02 -1.665339e-02 -1.680606e-02 -2.328117e-02 -2.506548e-02 -3.295722e-02 -3.610392e-02 -4.506744e-02 -4.925462e-02 -5.891587e-02 -6.379112e-02 -7.376553e-02 -7.896277e-02 -8.886817e-02 -9.401955e-02 -1.034843e-01 
-1.175717e-01 -1.272407e-01 -1.319332e-01 -1.403585e-01 -1.438525e-01 -1.506898e-01 -1.526455e-01 -1.575807e-01 -1.576917e-01 -1.604508e-01 -1.584567e-01 -1.588196e-01 -1.545227e-01 -1.523414e-01 -1.456251e-01 -1.408424e-01 -1.316907e-01 -1.243583e-01 -1.128707e-01 -1.031612e-01 -8.956049e-02 -7.777002e-02 -6.239960e-02 -4.893736e-02 -3.224501e-02 -1.760977e-02 -1.202762e-04 1.513417e-02 3.285459e-02 4.816013e-02 6.554222e-02 8.035735e-02 9.686461e-02 1.107102e-01 1.258679e-01 1.383540e-01 1.517691e-01 1.626109e-01 1.739823e-01 1.830045e-01 1.921241e-01 1.992564e-01 2.060024e-01 2.112652e-01 2.155901e-01 2.190754e-01 2.209895e-01 2.228386e-01 2.223935e-01 2.227735e-01 2.200462e-01 2.191296e-01 2.142100e-01 2.121577e-01 2.051410e-01 2.020903e-01 1.930746e-01 1.891334e-01 1.782220e-01 1.734685e-01 1.607773e-01 1.552652e-01 1.409327e-01 1.347011e-01 1.189007e-01 1.119874e-01 9.493946e-02 8.739705e-02 6.938020e-02 6.129261e-02 4.265161e-02 3.414946e-02 1.529844e-02 6.570856e-03 -1.200999e-02 -2.070958e-02 -3.848555e-02 -4.684216e-02 -6.324493e-02 -7.089501e-02 -8.535317e-02 -9.190883e-02 -1.038870e-01 -1.089704e-01 -1.180141e-01 -1.212996e-01 -1.270811e-01 -1.283396e-01 -1.306996e-01 -1.298394e-01 -1.288169e-01 -1.259138e-01 -1.217585e-01 -1.170683e-01 -1.102328e-01 -1.041825e-01 -9.529068e-02 -8.844680e-02 -7.824334e-02 -7.126044e-02 -6.054531e-02 -5.410131e-02 -4.365893e-02 -3.838695e-02 -2.891917e-02 -2.534646e-02 -1.741862e-02 -1.592183e-02 -9.928513e-03 -1.071071e-02 -6.863707e-03 -9.954111e-03 -8.290900e-03 -1.356338e-02 -1.397088e-02 -2.117465e-02 -2.342147e-02 -3.221647e-02 -3.598702e-02 -4.597783e-02 -5.090327e-02 -6.166727e-02 -6.735047e-02 -7.845857e-02 -8.449221e-02 -9.552222e-02 -1.015007e-01 -1.120449e-01 