# vtk DataFile Version 2.0
Comment goes here
ASCII

DATASET STRUCTURED_POINTS
FIELD FieldData 1
TIME 1 1 double
0.06500000
DIMENSIONS    128   128   1

ORIGIN    0.000   0.000   0.000
SPACING   0.039062 0.039062   1.000

POINT_DATA   16384
SCALARS uY double
LOOKUP_TABLE default

2.475875e-14 2.981758e-14 2.671548e-14 3.247086e-14 2.978237e-14 3.614276e-14 3.406811e-14 4.110318e-14 3.903459e-14 4.648764e-14 4.409086e-14 5.193030e-14 4.947064e-14 5.762275e-14 5.501432e-14 6.314858e-14 5.969850e-14 6.715839e-14 6.352908e-14 7.144531e-14 6.703344e-14 7.501905e-14 7.121464e-14 7.971503e-14 7.545683e-14 8.428330e-14 8.085047e-14 9.079378e-14 8.775833e-14 9.707510e-14 9.301126e-14 1.026674e-13 9.995949e-14 1.079540e-13 1.051248e-13 1.129659e-13 1.102606e-13 1.177817e-13 1.147588e-13 1.216813e-13 1.184544e-13 1.250619e-13 1.248871e-13 1.310659e-13 1.293973e-13 1.340387e-13 1.335042e-13 1.371141e-13 1.363475e-13 1.405369e-13 1.406825e-13 1.432991e-13 1.444306e-13 1.454465e-13 1.470544e-13 1.460168e-13 1.491814e-13 1.480215e-13 1.521940e-13 1.489352e-13 1.530759e-13 1.480572e-13 1.516356e-13 1.453803e-13 1.493279e-13 1.412498e-13 1.450860e-13 1.349122e-13 1.385985e-13 1.276969e-13 1.321541e-13 1.198879e-13 1.254566e-13 1.126359e-13 1.174053e-13 1.037576e-13 1.078643e-13 9.514415e-14 1.006051e-13 8.639226e-14 9.185865e-14 7.956479e-14 8.384125e-14 7.037951e-14 7.615503e-14 6.320740e-14 6.767504e-14 5.520662e-14 5.800093e-14 4.808902e-14 5.132194e-14 4.168589e-14 4.416657e-14 3.614980e-14 3.787281e-14 3.119863e-14 3.276661e-14 2.669393e-14 2.773768e-14 2.438044e-14 2.516953e-14 2.208435e-14 2.154719e-14 1.960216e-14 1.836730e-14 1.861738e-14 1.684444e-14 1.682275e-14 1.480249e-14 1.640024e-14 1.441868e-14 1.727322e-14 1.499227e-14 1.908577e-14 1.666113e-14 1.939983e-14 1.636480e-14 1.980615e-14 1.659725e-14 2.038920e-14 1.780017e-14 2.154140e-14 1.891862e-14 2.344076e-14 2.060502e-14 2.559660e-14 2.285662e-14 2.777298e-14 
-3.184538e-02 -3.165184e-02 -3.142351e-02 -3.108296e-02 -3.071016e-02 -3.023040e-02 -2.972261e-02 -2.911118e-02 -2.847739e-02 -2.774149e-02 -2.699018e-02 -2.613684e-02 -2.527612e-02 -2.431242e-02 -2.335026e-02 -2.228366e-02 -2.122818e-02 -2.006683e-02 -1.892659e-02 -1.767963e-02 -1.646387e-02 -1.514167e-02 -1.386051e-02 -1.247477e-02 -1.113928e-02 -9.703030e-03 -8.325249e-03 -6.852715e-03 -5.445498e-03 -3.951873e-03 -2.528694e-03 -1.029789e-03 3.955420e-04 1.883699e-03 3.297366e-03 4.758959e-03 6.147473e-03 7.567312e-03 8.917829e-03 1.028171e-02 1.158230e-02 1.287730e-02 1.411714e-02 1.533177e-02 1.650126e-02 1.762555e-02 1.871637e-02 1.974183e-02 2.074691e-02 2.166644e-02 2.257986e-02 2.338763e-02 2.420452e-02 2.489579e-02 2.561227e-02 2.618330e-02 2.679630e-02 2.724429e-02 2.775154e-02 2.807462e-02 2.847451e-02 2.867177e-02 2.896333e-02 2.903490e-02 2.921762e-02 2.916473e-02 2.923847e-02 2.906339e-02 2.902811e-02 2.873408e-02 2.858961e-02 2.818057e-02 2.792628e-02 2.740650e-02 2.704100e-02 2.641468e-02 2.593565e-02 2.520639e-02 2.461054e-02 2.378102e-02 2.306425e-02 2.213604e-02 2.129396e-02 2.026759e-02 1.929623e-02 1.817169e-02 1.706845e-02 1.584592e-02 1.461066e-02 1.329158e-02 1.192767e-02 1.051590e-02 9.031185e-03 7.534116e-03 5.941553e-03 4.370942e-03 2.688903e-03 1.061313e-03 -6.865978e-04 -2.349907e-03 -4.135536e-03 -5.809269e-03 -7.601055e-03 -9.257049e-03 -1.102155e-02 -1.263028e-02 -1.433392e-02 -1.586620e-02 -1.747703e-02 -1.890562e-02 -2.039495e-02 -2.169596e-02 -2.303963e-02 -2.419351e-02 -2.537272e-02 -2.636484e-02 -2.736648e-02 -2.818724e-02 -2.900379e-02 -2.964832e-02 -3.027735e-02 -3.074491e-02 -3.118824e-02 -3.148144e-02 -3.174426e-02 -3.186820e-02 -3.195806e-02 -3.191946e-02 
-6.383431e-02 -6.343538e-02 -6.296175e-02 -6.227033e-02 -6.150955e-02 -6.054139e-02 -5.951253e-02 -5.828263e-02 -5.700363e-02 -5.552627e-02 -5.401396e-02 -5.230296e-02 -5.057335e-02 -4.864263e-02 -4.671141e-02 -4.457559e-02 -4.245874e-02 -4.013389e-02 -3.784824e-02 -3.535243e-02 -3.291625e-02 -3.027005e-02 -2.770335e-02 -2.493007e-02 -2.225485e-02 -1.938053e-02 -1.662073e-02 -1.367387e-02 -1.085515e-02 -7.866250e-03 -5.015545e-03 -2.016352e-03 8.386781e-04 3.815955e-03 6.647587e-03 9.571178e-03 1.235231e-02 1.519173e-02 1.789652e-02 2.062333e-02 2.322775e-02 2.581610e-02 2.829835e-02 3.072535e-02 3.306610e-02 3.531195e-02 3.749447e-02 3.954240e-02 4.155247e-02 4.338853e-02 4.521434e-02 4.682710e-02 4.845902e-02 4.983929e-02 5.126968e-02 5.241025e-02 5.363326e-02 5.452879e-02 5.554016e-02 5.618717e-02 5.698411e-02 5.738103e-02 5.796201e-02 5.810937e-02 5.847389e-02 5.837436e-02 5.852260e-02 5.818098e-02 5.811331e-02 5.753625e-02 5.725264e-02 5.644811e-02 5.594743e-02 5.492391e-02 5.420325e-02 5.296879e-02 5.202302e-02 5.058419e-02 4.940580e-02 4.776693e-02 4.634644e-02 4.450920e-02 4.283614e-02 4.079986e-02 3.886440e-02 3.662709e-02 3.442216e-02 3.198232e-02 2.950601e-02 2.686504e-02 2.412309e-02 2.128788e-02 1.829576e-02 1.528112e-02 1.206549e-02 8.895976e-03 5.495227e-03 2.205867e-03 -1.330405e-03 -4.694545e-03 -8.307214e-03 -1.169271e-02 -1.531577e-02 -1.866353e-02 -2.222752e-02 -2.547617e-02 -2.891190e-02 -3.200138e-02 -3.524368e-02 -3.811859e-02 -4.110959e-02 -4.372194e-02 -4.641354e-02 -4.872472e-02 -5.108009e-02 -5.306176e-02 -5.505590e-02 -5.669009e-02 -5.830934e-02 -5.958764e-02 -6.082857e-02 -6.175081e-02 -6.261845e-02 -6.319101e-02 -6.369693e-02 -6.393096e-02 -6.409124e-02 -6.400092e-02 
-9.584534e-02 -9.525681e-02 -9.456203e-02 -9.353254e-02 -9.240465e-02 -9.095786e-02 -8.942551e-02 -8.758401e-02 -8.567415e-02 -8.345943e-02 -8.119739e-02 -7.863027e-02 -7.604015e-02 -7.314159e-02 -7.024700e-02 -6.703903e-02 -6.386405e-02 -6.037085e-02 -5.694088e-02 -5.318966e-02 -4.953224e-02 -4.555398e-02 -4.169939e-02 -3.752916e-02 -3.351066e-02 -2.918768e-02 -2.504147e-02 -2.060868e-02 -1.637354e-02 -1.187686e-02 -7.593503e-03 -3.080755e-03 1.209071e-03 5.689369e-03 9.943876e-03 1.434386e-02 1.852226e-02 2.279600e-02 2.685950e-02 3.096411e-02 3.487671e-02 3.877323e-02 4.250234e-02 4.615622e-02 4.967302e-02 5.305439e-02 5.633394e-02 5.941742e-02 6.243857e-02 6.520302e-02 6.794810e-02 7.037614e-02 7.283071e-02 7.490824e-02 7.706069e-02 7.877657e-02 8.061784e-02 8.196367e-02 8.348699e-02 8.445711e-02 8.565777e-02 8.624940e-02 8.712455e-02 8.733805e-02 8.788636e-02 8.772539e-02 8.794664e-02 8.741816e-02 8.731252e-02 8.642648e-02 8.599373e-02 8.476230e-02 8.400082e-02 8.243731e-02 8.134315e-02 7.946055e-02 7.802678e-02 7.583631e-02 7.405282e-02 7.156270e-02 6.941678e-02 6.663158e-02 6.410930e-02 6.103022e-02 5.811871e-02 5.474489e-02 5.143529e-02 4.776625e-02 4.405705e-02 4.009595e-02 3.599636e-02 3.175368e-02 2.728654e-02 2.278357e-02 1.798749e-02 1.325910e-02 8.189364e-03 3.285336e-03 -1.986559e-03 -7.001777e-03 -1.239023e-02 -1.743959e-02 -2.284839e-02 -2.784589e-02 -3.317296e-02 -3.802836e-02 -4.317119e-02 -4.779529e-02 -5.265645e-02 -5.696612e-02 -6.145827e-02 -6.538083e-02 -6.943064e-02 -7.290689e-02 -7.645760e-02 -7.944356e-02 -8.245600e-02 -8.492314e-02 -8.737525e-02 -8.930956e-02 -9.119478e-02 -9.259484e-02 -9.391964e-02 -9.479416e-02 -9.557505e-02 -9.594014e-02 -9.620071e-02 -9.607728e-02 
-1.282843e-01 -1.274703e-01 -1.265032e-01 -1.251046e-01 -1.235639e-01 -1.216126e-01 -1.195369e-01 -1.170629e-01 -1.144880e-01 -1.115195e-01 -1.084788e-01 -1.050429e-01 -1.015680e-01 -9.769193e-02 -9.381351e-02 -8.952585e-02 -8.527528e-02 -8.060752e-02 -7.601796e-02 -7.100581e-02 -6.611339e-02 -6.079772e-02 -5.564230e-02 -5.006973e-02 -4.469532e-02 -3.891819e-02 -3.337292e-02 -2.744874e-02 -2.178433e-02 -1.577477e-02 -1.004567e-02 -4.015073e-03 1.722739e-03 7.709083e-03 1.339948e-02 1.927718e-02 2.486531e-02 3.057266e-02 3.600629e-02 4.148581e-02 4.671648e-02 5.191612e-02 5.689995e-02 6.177379e-02 6.647206e-02 7.098056e-02 7.535981e-02 7.946964e-02 8.350158e-02 8.718514e-02 9.084633e-02 9.408105e-02 9.735248e-02 1.001202e-01 1.029868e-01 1.052733e-01 1.077234e-01 1.095180e-01 1.115435e-01 1.128390e-01 1.144344e-01 1.152277e-01 1.163901e-01 1.166822e-01 1.174110e-01 1.172071e-01 1.175032e-01 1.168134e-01 1.166781e-01 1.155160e-01 1.149499e-01 1.133324e-01 1.123339e-01 1.102788e-01 1.088427e-01 1.063672e-01 1.044832e-01 1.016012e-01 9.925388e-02 9.597442e-02 9.314389e-02 8.947006e-02 8.613376e-02 8.206316e-02 7.819928e-02 7.372612e-02 6.931808e-02 6.443701e-02 5.947859e-02 5.418975e-02 4.869032e-02 4.300506e-02 3.699409e-02 3.094028e-02 2.447057e-02 1.809652e-02 1.124539e-02 4.621611e-03 -2.510076e-03 -9.291776e-03 -1.658311e-02 -2.341318e-02 -3.072877e-02 -3.748566e-02 -4.468279e-02 -5.124016e-02 -5.817675e-02 -6.441111e-02 -7.095358e-02 -7.675135e-02 -8.278144e-02 -8.804477e-02 -9.346475e-02 -9.811542e-02 -1.028511e-01 -1.068325e-01 -1.108344e-01 -1.141111e-01 -1.173531e-01 -1.199098e-01 -1.223866e-01 -1.242247e-01 -1.259484e-01 -1.270824e-01 -1.280781e-01 -1.285320e-01 -1.288338e-01 -1.286374e-01 
-1.607733e-01 -1.597656e-01 -1.585746e-01 -1.568325e-01 -1.549209e-01 -1.524845e-01 -1.499006e-01 -1.468075e-01 -1.435963e-01 -1.398819e-01 -1.360850e-01 -1.317832e-01 -1.274400e-01 -1.225846e-01 -1.177335e-01 -1.123600e-01 -1.070401e-01 -1.011879e-01 -9.544060e-02 -8.915419e-02 -8.302483e-02 -7.635544e-02 -6.989414e-02 -6.290025e-02 -5.616250e-02 -4.890989e-02 -4.195643e-02 -3.451750e-02 -2.741370e-02 -1.986613e-02 -1.268080e-02 -5.105683e-03 2.090469e-03 9.610805e-03 1.674698e-02 2.413134e-02 3.113849e-02 3.830908e-02 4.512161e-02 5.200600e-02 5.856324e-02 6.509588e-02 7.134311e-02 7.746621e-02 8.335529e-02 8.901914e-02 9.450859e-02 9.967128e-02 1.047261e-01 1.093529e-01 1.139440e-01 1.180064e-01 1.221102e-01 1.255851e-01 1.291825e-01 1.320516e-01 1.351278e-01 1.373771e-01 1.399211e-01 1.415410e-01 1.435453e-01 1.445309e-01 1.459909e-01 1.463426e-01 1.472568e-01 1.469808e-01 1.473493e-01 1.464575e-01 1.462817e-01 1.447915e-01 1.440721e-01 1.420050e-01 1.407403e-01 1.381200e-01 1.363042e-01 1.331540e-01 1.307757e-01 1.271157e-01 1.241573e-01 1.200020e-01 1.164408e-01 1.117974e-01 1.076077e-01 1.024768e-01 9.763390e-02 9.201124e-02 8.649671e-02 8.037798e-02 7.418556e-02 6.757195e-02 6.071374e-02 5.361884e-02 4.613058e-02 3.858688e-02 3.053191e-02 2.259596e-02 1.406701e-02 5.822109e-03 -3.059405e-03 -1.150357e-02 -2.059104e-02 -2.910205e-02 -3.822992e-02 -4.665915e-02 -5.565129e-02 -6.384257e-02 -7.252200e-02 -8.032101e-02 -8.851982e-02 -9.578328e-02 -1.033515e-01 -1.099548e-01 -1.167675e-01 -1.226101e-01 -1.285715e-01 -1.335798e-01 -1.386250e-01 -1.427525e-01 -1.468467e-01 -1.500722e-01 -1.532072e-01 -1.555310e-01 -1.577207e-01 -1.591604e-01 -1.604358e-01 -1.610210e-01 -1.614245e-01 -1.611928e-01 
-1.939660e-01 -1.927038e-01 -1.912028e-01 -1.890651e-01 -1.867061e-01 -1.837415e-01 -1.805832e-01 -1.768367e-01 -1.729326e-01 -1.684458e-01 -1.638452e-01 -1.586573e-01 -1.534063e-01 -1.475563e-01 -1.416993e-01 -1.352283e-01 -1.288108e-01 -1.217645e-01 -1.148349e-01 -1.072656e-01 -9.987702e-02 -9.184534e-02 -8.405713e-02 -7.563299e-02 -6.751123e-02 -5.877381e-02 -5.039129e-02 -4.142815e-02 -3.286356e-02 -2.376900e-02 -1.510549e-02 -5.978171e-03 2.698613e-03 1.175846e-02 2.036255e-02 2.925612e-02 3.770356e-02 4.633639e-02 5.454741e-02 6.283180e-02 7.073263e-02 7.858958e-02 8.611380e-02 9.347411e-02 1.005634e-01 1.073679e-01 1.139722e-01 1.201716e-01 1.262488e-01 1.318024e-01 1.373179e-01 1.421927e-01 1.471187e-01 1.512881e-01 1.556023e-01 1.590452e-01 1.627308e-01 1.654314e-01 1.684763e-01 1.704236e-01 1.728201e-01 1.740088e-01 1.757533e-01 1.761846e-01 1.772769e-01 1.769589e-01 1.774015e-01 1.763495e-01 1.761460e-01 1.743821e-01 1.735353e-01 1.710867e-01 1.695959e-01 1.664922e-01 1.643508e-01 1.606202e-01 1.578133e-01 1.534791e-01 1.499829e-01 1.450597e-01 1.408417e-01 1.353336e-01 1.303558e-01 1.242566e-01 1.184808e-01 1.117771e-01 1.051720e-01 9.784952e-02 9.039950e-02 8.245141e-02 7.416488e-02 6.560170e-02 5.651898e-02 4.737768e-02 3.757644e-02 2.792735e-02 1.752494e-02 7.474941e-03 -3.373107e-03 -1.368191e-02 -2.478732e-02 -3.518347e-02 -4.633428e-02 -5.662662e-02 -6.759892e-02 -7.758852e-02 -8.815950e-02 -9.765231e-02 -1.076131e-01 -1.164316e-01 -1.255985e-01 -1.335910e-01 -1.418134e-01 -1.488602e-01 -1.560259e-01 -1.620421e-01 -1.680778e-01 -1.730126e-01 -1.778824e-01 -1.817162e-01 -1.854168e-01 -1.881561e-01 -1.907107e-01 -1.923820e-01 -1.938336e-01 -1.944774e-01 -1.948816e-01 -1.945465e-01 
-2.272489e-01 -2.257804e-01 -2.240424e-01 -2.215475e-01 -2.188038e-01 -2.153400e-01 -2.116596e-01 -2.072796e-01 -2.027253e-01 -1.974774e-01 -1.921063e-01 -1.860360e-01 -1.799014e-01 -1.730534e-01 -1.662067e-01 -1.586286e-01 -1.511222e-01 -1.428664e-01 -1.347565e-01 -1.258838e-01 -1.172323e-01 -1.078134e-01 -9.868985e-02 -8.880659e-02 -7.928876e-02 -6.903420e-02 -5.920806e-02 -4.868535e-02 -3.864401e-02 -2.796446e-02 -1.780639e-02 -7.086556e-03 3.086802e-03 1.372843e-02 2.381542e-02 3.426204e-02 4.416361e-02 5.430358e-02 6.392590e-02 7.365576e-02 8.291244e-02 9.213912e-02 1.009527e-01 1.095949e-01 1.178977e-01 1.258860e-01 1.336204e-01 1.408971e-01 1.480146e-01 1.545322e-01 1.609930e-01 1.667128e-01 1.724847e-01 1.773753e-01 1.824323e-01 1.864685e-01 1.907906e-01 1.939529e-01 1.975251e-01 1.997996e-01 2.026117e-01 2.039908e-01 2.060374e-01 2.065212e-01 2.078008e-01 2.073977e-01 2.079123e-01 2.066398e-01 2.063933e-01 2.042773e-01 2.032730e-01 2.003464e-01 1.985845e-01 1.948840e-01 1.923580e-01 1.879202e-01 1.846147e-01 1.794708e-01 1.753603e-01 1.695323e-01 1.645816e-01 1.580793e-01 1.522469e-01 1.450680e-01 1.383122e-01 1.304451e-01 1.227317e-01 1.141620e-01 1.054741e-01 9.619439e-02 8.654164e-02 7.656203e-02 6.598918e-02 5.534823e-02 4.394152e-02 3.271474e-02 2.060505e-02 8.909627e-03 -3.728146e-03 -1.573365e-02 -2.868572e-02 -4.080697e-02 -5.383001e-02 -6.584719e-02 -7.868132e-02 -9.036278e-02 -1.027467e-01 -1.138639e-01 -1.255502e-01 -1.358921e-01 -1.466614e-01 -1.560459e-01 -1.657171e-01 -1.739997e-01 -1.824365e-01 -1.895135e-01 -1.966265e-01 -2.024356e-01 -2.081801e-01 -2.126962e-01 -2.170669e-01 -2.202969e-01 -2.233206e-01 -2.252956e-01 -2.270230e-01 -2.277911e-01 -2.282884e-01 -2.279074e-01 
-2.614953e-01 -2.597336e-01 -2.576360e-01 -2.547105e-01 -2.514746e-01 -2.474517e-01 -2.431570e-01 -2.380965e-01 -2.328141e-01 -2.267696e-01 -2.205632e-01 -2.135843e-01 -2.065124e-01 -1.986474e-01 -1.907665e-01 -1.820666e-01 -1.734338e-01 -1.639567e-01 -1.546338e-01 -1.444467e-01 -1.345026e-01 -1.236851e-01 -1.131980e-01 -1.018432e-01 -9.090118e-02 -7.911596e-02 -6.781744e-02 -5.572109e-02 -4.417310e-02 -3.189490e-02 -2.021121e-02 -7.886926e-03 3.814886e-03 1.604710e-02 2.764892e-02 3.965298e-02 5.103960e-02 6.268573e-02 7.374800e-02 8.491643e-02 9.555396e-02 1.061376e-01 1.162606e-01 1.261666e-01 1.356970e-01 1.448471e-01 1.537184e-01 1.620480e-01 1.702051e-01 1.776618e-01 1.850596e-01 1.916010e-01 1.982034e-01 2.037955e-01 2.095740e-01 2.141894e-01 2.191223e-01 2.227397e-01 2.268116e-01 2.294157e-01 2.326170e-01 2.341999e-01 2.365265e-01 2.370889e-01 2.385422e-01 2.380945e-01 2.386800e-01 2.372438e-01 2.369695e-01 2.345766e-01 2.334498e-01 2.301406e-01 2.281642e-01 2.239834e-01 2.211516e-01 2.161426e-01 2.124370e-01 2.066358e-01 2.020231e-01 1.954520e-01 1.898844e-01 1.825482e-01 1.759670e-01 1.678524e-01 1.601958e-01 1.512758e-01 1.424893e-01 1.327321e-01 1.227818e-01 1.121639e-01 1.010497e-01 8.957162e-02 7.733926e-02 6.504015e-02 5.178987e-02 3.875888e-02 2.464953e-02 1.103124e-02 -3.721496e-03 -1.772882e-02 -3.286025e-02 -4.701365e-02 -6.222354e-02 -7.625024e-02 -9.122043e-02 -1.048363e-01 -1.192504e-01 -1.321792e-01 -1.457420e-01 -1.577329e-01 -1.701869e-01 -1.810282e-01 -1.921655e-01 -2.016933e-01 -2.113620e-01 -2.194637e-01 -2.275691e-01 -2.341816e-01 -2.406825e-01 -2.457869e-01 -2.506880e-01 -2.543018e-01 -2.576445e-01 -2.598126e-01 -2.616642e-01 -2.624493e-01 -2.628934e-01 -2.623677e-01 
-2.958916e-01 -2.939012e-01 -2.915422e-01 -2.882370e-01 -2.845924e-01 -2.800484e-01 -2.752087e-01 -2.694934e-01 -2.635387e-01 -2.567120e-01 -2.497135e-01 -2.418298e-01 -2.338522e-01 -2.249646e-01 -2.160698e-01 -2.062343e-01 -1.964854e-01 -1.857654e-01 -1.752309e-01 -1.637012e-01 -1.524580e-01 -1.402078e-01 -1.283442e-01 -1.154786e-01 -1.030947e-01 -8.973504e-02 -7.694301e-02 -6.322530e-02 -5.014786e-02 -3.621976e-02 -2.298742e-02 -9.004354e-03 4.247982e-03 1.812778e-02 3.126476e-02 4.488541e-02 5.777534e-02 7.098836e-02 8.350700e-02 9.617560e-02 1.082093e-01 1.202115e-01 1.316592e-01 1.428899e-01 1.536644e-01 1.640351e-01 1.740627e-01 1.835010e-01 1.927210e-01 2.011681e-01 2.095308e-01 2.169394e-01 2.244050e-01 2.307364e-01 2.372730e-01 2.424958e-01 2.480786e-01 2.521676e-01 2.567779e-01 2.597143e-01 2.633397e-01 2.651124e-01 2.677467e-01 2.683541e-01 2.699971e-01 2.694496e-01 2.701065e-01 2.684271e-01 2.681066e-01 2.653318e-01 2.640427e-01 2.602199e-01 2.579670e-01 2.531500e-01 2.499292e-01 2.441722e-01 2.399654e-01 2.333153e-01 2.280879e-01 2.205772e-01 2.142783e-01 2.059196e-01 1.984861e-01 1.892708e-01 1.806359e-01 1.705384e-01 1.606429e-01 1.496298e-01 1.384365e-01 1.264805e-01 1.139882e-01 1.010854e-01 8.734149e-02 7.352781e-02 5.863828e-02 4.400353e-02 2.813812e-02 1.283365e-02 -3.774235e-03 -1.953540e-02 -3.659539e-02 -5.254666e-02 -6.972472e-02 -8.556149e-02 -1.024989e-01 -1.178990e-01 -1.342346e-01 -1.488812e-01 -1.642744e-01 -1.778767e-01 -1.920280e-01 -2.043385e-01 -2.170043e-01 -2.278303e-01 -2.388319e-01 -2.480401e-01 -2.572655e-01 -2.647810e-01 -2.721809e-01 -2.779810e-01 -2.835604e-01 -2.876654e-01 -2.914724e-01 -2.939346e-01 -2.960478e-01 -2.969407e-01 -2.974576e-01 -2.968654e-01 
-3.314861e-01 -3.291524e-01 -3.263716e-01 -3.225916e-01 -3.183994e-01 -3.132585e-01 -3.077561e-01 -3.013281e-01 -2.946033e-01 -2.869518e-01 -2.790810e-01 -2.702625e-01 -2.613137e-01 -2.513826e-01 -2.414202e-01 -2.304340e-01 -2.195241e-01 -2.075489e-01 -1.957637e-01 -1.828794e-01 -1.703017e-01 -1.566053e-01 -1.433308e-01 -1.289387e-01 -1.150781e-01 -1.001259e-01 -8.580415e-02 -7.044539e-02 -5.580012e-02 -4.020251e-02 -2.538094e-02 -9.721519e-03 5.123555e-03 2.066432e-02 3.537924e-02 5.062370e-02 6.505878e-02 7.983820e-02 9.385229e-02 1.080121e-01 1.214762e-01 1.348796e-01 1.476797e-01 1.602099e-01 1.722478e-01 1.838082e-01 1.950017e-01 2.055142e-01 2.157960e-01 2.251982e-01 2.345142e-01 2.427564e-01 2.510634e-01 2.581055e-01 2.653697e-01 2.711787e-01 2.773743e-01 2.819235e-01 2.870318e-01 2.903007e-01 2.943104e-01 2.962870e-01 2.991943e-01 2.998771e-01 3.016858e-01 3.010870e-01 3.018075e-01 2.999551e-01 2.996026e-01 2.965405e-01 2.951309e-01 2.909163e-01 2.884603e-01 2.831588e-01 2.796551e-01 2.733317e-01 2.687608e-01 2.614700e-01 2.557888e-01 2.475647e-01 2.407062e-01 2.315548e-01 2.234320e-01 2.133291e-01 2.038457e-01 1.927412e-01 1.818068e-01 1.696382e-01 1.571873e-01 1.438991e-01 1.299113e-01 1.154792e-01 9.999658e-02 8.445053e-02 6.759212e-02 5.103466e-02 3.300253e-02 1.561773e-02 -3.304442e-03 -2.125318e-02 -4.071087e-02 -5.889425e-02 -7.848129e-02 -9.652648e-02 -1.158108e-01 -1.333291e-01 -1.518814e-01 -1.684969e-01 -1.859192e-01 -2.012941e-01 -2.172431e-01 -2.310971e-01 -2.453008e-01 -2.574224e-01 -2.696886e-01 -2.799390e-01 -2.901553e-01 -2.984641e-01 -3.065913e-01 -3.129486e-01 -3.190090e-01 -3.234525e-01 -3.275158e-01 -3.301178e-01 -3.322859e-01 -3.331398e-01 -3.335329e-01 -3.327416e-01 
-3.673179e-01 -3.647223e-01 -3.616426e-01 -3.574510e-01 -3.528150e-01 -3.471233e-01 -3.410439e-01 -3.339336e-01 -3.265074e-01 -3.180472e-01 -3.093566e-01 -2.996064e-01 -2.897240e-01 -2.787407e-01 -2.677346e-01 -2.555785e-01 -2.435186e-01 -2.302598e-01 -2.172234e-01 -2.029478e-01 -1.890247e-01 -1.738382e-01 -1.591341e-01 -1.431650e-01 -1.278027e-01 -1.112022e-01 -9.532145e-02 -7.826110e-02 -6.201689e-02 -4.468489e-02 -2.824320e-02 -1.083863e-02 5.628175e-03 2.290212e-02 3.922094e-02 5.616430e-02 7.216702e-02 8.859011e-02 1.041189e-01 1.198485e-01 1.347603e-01 1.496437e-01 1.638129e-01 1.777208e-01 1.910405e-01 2.038664e-01 2.162481e-01 2.279069e-01 2.392787e-01 2.497028e-01 2.600072e-01 2.691430e-01 2.783340e-01 2.861375e-01 2.941784e-01 3.006129e-01 3.074746e-01 3.125092e-01 3.181697e-01 3.217791e-01 3.262238e-01 3.283914e-01 3.316134e-01 3.323343e-01 3.343355e-01 3.336201e-01 3.344106e-01 3.322881e-01 3.318847e-01 3.284038e-01 3.268252e-01 3.220519e-01 3.193127e-01 3.133247e-01 3.094272e-01 3.023040e-01 2.972304e-01 2.890417e-01 2.827483e-01 2.735420e-01 2.659579e-01 2.557508e-01 2.467831e-01 2.355569e-01 2.251016e-01 2.128072e-01 2.007665e-01 1.873370e-01 1.736392e-01 1.590110e-01 1.436313e-01 1.277692e-01 1.107480e-01 9.367192e-02 7.512953e-02 5.693558e-02 3.708085e-02 1.795439e-02 -2.914053e-03 -2.269739e-02 -4.419933e-02 -6.428524e-02 -8.597700e-02 -1.059555e-01 -1.273570e-01 -1.467930e-01 -1.674206e-01 -1.858873e-01 -2.052870e-01 -2.223969e-01 -2.401737e-01 -2.556028e-01 -2.714419e-01 -2.849446e-01 -2.986228e-01 -3.100372e-01 -3.214240e-01 -3.306686e-01 -3.397188e-01 -3.467823e-01 -3.535225e-01 -3.584498e-01 -3.629614e-01 -3.658372e-01 -3.682389e-01 -3.691721e-01 -3.696029e-01 -3.687127e-01 
-4.045450e-01 -4.015432e-01 -3.979652e-01 -3.932451e-01 -3.879954e-01 -3.816625e-01 -3.748646e-01 -3.670055e-01 -3.587622e-01 -3.494470e-01 -3.398436e-01 -3.291314e-01 -3.182409e-01 -3.061862e-01 -2.940765e-01 -2.807377e-01 -2.674784e-01 -2.529255e-01 -2.385953e-01 -2.229169e-01 -2.076094e-01 -1.909180e-01 -1.747456e-01 -1.571804e-01 -1.402761e-01 -1.220036e-01 -1.045209e-01 -8.573210e-02 -6.784213e-02 -4.874814e-02 -3.063573e-02 -1.146064e-02 6.681523e-03 2.570861e-02 4.368647e-02 6.234028e-02 7.996519e-02 9.803280e-02 1.151278e-01 1.324160e-01 1.488210e-01 1.651614e-01 1.807367e-01 1.959883e-01 2.106159e-01 2.246651e-01 2.382481e-01 2.510058e-01 2.634666e-01 2.748639e-01 2.861411e-01 2.961240e-01 3.061694e-01 3.146942e-01 3.234698e-01 3.304991e-01 3.379755e-01 3.434767e-01 3.496324e-01 3.535783e-01 3.584001e-01 3.607715e-01 3.642557e-01 3.650466e-01 3.672000e-01 3.664222e-01 3.672626e-01 3.649501e-01 3.645038e-01 3.607149e-01 3.590118e-01 3.538265e-01 3.508921e-01 3.444047e-01 3.402491e-01 3.325564e-01 3.271632e-01 3.183485e-01 3.116659e-01 3.017826e-01 2.937198e-01 2.827775e-01 2.732093e-01 2.611675e-01 2.499476e-01 2.367209e-01 2.237037e-01 2.091789e-01 1.942477e-01 1.783135e-01 1.614091e-01 1.439929e-01 1.251408e-01 1.062454e-01 8.557636e-02 6.530842e-02 4.306960e-02 2.165498e-02 -1.791252e-03 -2.401063e-02 -4.820070e-02 -7.078681e-02 -9.518297e-02 -1.176353e-01 -1.416626e-01 -1.634593e-01 -1.865478e-01 -2.071877e-01 -2.288126e-01 -2.478518e-01 -2.675674e-01 -2.846455e-01 -3.021076e-01 -3.169621e-01 -3.319381e-01 -3.444071e-01 -3.567735e-01 -3.667886e-01 -3.765198e-01 -3.840919e-01 -3.912420e-01 -3.964427e-01 -4.011246e-01 -4.040670e-01 -4.064313e-01 -4.072512e-01 -4.074667e-01 -4.063070e-01 
-4.421349e-01 -4.388247e-01 -4.348957e-01 -4.297215e-01 -4.239812e-01 -4.170602e-01 -4.096446e-01 -4.010704e-01 -3.920902e-01 -3.819366e-01 -3.714813e-01 -3.598079e-01 -3.479524e-01 -3.348133e-01 -3.216260e-01 -3.070791e-01 -2.926307e-01 -2.767473e-01 -2.611193e-01 -2.439919e-01 -2.272834e-01 -2.090323e-01 -1.913646e-01 -1.721413e-01 -1.536604e-01 -1.336475e-01 -1.145232e-01 -9.393207e-02 -7.435491e-02 -5.341994e-02 -3.359637e-02 -1.256707e-02 7.287515e-03 2.815572e-02 4.782471e-02 6.828068e-02 8.755420e-02 1.073610e-01 1.260434e-01 1.449867e-01 1.629025e-01 1.807970e-01 1.977947e-01 2.144865e-01 2.304401e-01 2.458068e-01 2.606145e-01 2.745613e-01 2.881426e-01 3.005975e-01 3.128894e-01 3.237961e-01 3.347490e-01 3.440613e-01 3.536351e-01 3.613123e-01 3.694747e-01 3.754795e-01 3.822047e-01 3.865037e-01 3.917742e-01 3.943417e-01 3.981494e-01 3.989730e-01 4.013221e-01 4.004097e-01 4.013173e-01 3.987029e-01 3.981978e-01 3.939446e-01 3.920620e-01 3.862607e-01 3.830329e-01 3.757941e-01 3.712379e-01 3.626783e-01 3.567818e-01 3.470060e-01 3.397175e-01 3.287985e-01 3.200223e-01 3.079847e-01 2.975864e-01 2.843979e-01 2.722198e-01 2.577951e-01 2.436803e-01 2.278982e-01 2.117202e-01 1.944548e-01 1.761466e-01 1.573057e-01 1.368864e-01 1.164519e-01 9.404739e-02 7.210904e-02 4.796617e-02 2.474221e-02 -7.671126e-04 -2.492685e-02 -5.131436e-02 -7.594488e-02 -1.026302e-01 -1.271855e-01 -1.535348e-01 -1.774332e-01 -2.028067e-01 -2.254811e-01 -2.492819e-01 -2.702237e-01 -2.919404e-01 -3.107337e-01 -3.299691e-01 -3.463102e-01 -3.627955e-01 -3.764974e-01 -3.900908e-01 -4.010755e-01 -4.117494e-01 -4.200314e-01 -4.278507e-01 -4.335155e-01 -4.386130e-01 -4.417933e-01 -4.443442e-01 -4.451986e-01 -4.453979e-01 -4.440913e-01 
-4.812625e-01 -4.774687e-01 -4.729491e-01 -4.671833e-01 -4.607525e-01 -4.531410e-01 -4.449447e-01 -4.355843e-01 -4.257372e-01 -4.146994e-01 -4.032903e-01 -3.906296e-01 -3.777298e-01 -3.634932e-01 -3.491662e-01 -3.334051e-01 -3.177174e-01 -3.004984e-01 -2.835295e-01 -2.649447e-01 -2.467950e-01 -2.269695e-01 -2.077658e-01 -1.868614e-01 -1.667599e-01 -1.449761e-01 -1.241609e-01 -1.017313e-01 -8.041158e-02 -5.759711e-02 -3.600097e-02 -1.308107e-02 8.552454e-03 3.129129e-02 5.272098e-02 7.499733e-02 9.598925e-02 1.175387e-01 1.378750e-01 1.584603e-01 1.779464e-01 1.973649e-01 2.158339e-01 2.339208e-01 2.512352e-01 2.678625e-01 2.839127e-01 2.989848e-01 3.136858e-01 3.271323e-01 3.404187e-01 3.521862e-01 3.640075e-01 3.740523e-01 3.843682e-01 3.926502e-01 4.014287e-01 4.079090e-01 4.151249e-01 4.197665e-01 4.254038e-01 4.281763e-01 4.322301e-01 4.331173e-01 4.355977e-01 4.346067e-01 4.355405e-01 4.327098e-01 4.321397e-01 4.275441e-01 4.255224e-01 4.192715e-01 4.158489e-01 4.080786e-01 4.032876e-01 3.941419e-01 3.879784e-01 3.775862e-01 3.699930e-01 3.584403e-01 3.492986e-01 3.366051e-01 3.257375e-01 3.118422e-01 2.990305e-01 2.837945e-01 2.688109e-01 2.520410e-01 2.346878e-01 2.161803e-01 1.963330e-01 1.759302e-01 1.535771e-01 1.312254e-01 1.064983e-01 8.229422e-02 5.548596e-02 2.969975e-02 1.265765e-03 -2.566216e-02 -5.512224e-02 -8.261151e-02 -1.123914e-01 -1.397726e-01 -1.691128e-01 -1.956889e-01 -2.238378e-01 -2.489462e-01 -2.752189e-01 -2.982829e-01 -3.221090e-01 -3.426735e-01 -3.636267e-01 -3.813756e-01 -3.991846e-01 -4.139405e-01 -4.284825e-01 -4.401932e-01 -4.514740e-01 -4.601893e-01 -4.683159e-01 -4.741608e-01 -4.793106e-01 -4.824573e-01 -4.848489e-01 -4.854916e-01 -4.853584e-01 -4.836926e-01 
-5.209287e-01 -5.167640e-01 -5.118242e-01 -5.055502e-01 -4.985698e-01 -4.903255e-01 -4.814630e-01 -4.713512e-01 -4.607276e-01 -4.488207e-01 -4.365259e-01 -4.228751e-01 -4.089781e-01 -3.936253e-01 -3.781859e-01 -3.611774e-01 -3.442589e-01 -3.256584e-01 -3.073395e-01 -2.872403e-01 -2.676246e-01 -2.461579e-01 -2.253806e-01 -2.027205e-01 -1.809510e-01 -1.573147e-01 -1.347557e-01 -1.103997e-01 -8.728295e-02 -6.249552e-02 -3.907445e-02 -1.416495e-02 9.294281e-03 3.400807e-02 5.723732e-02 8.144321e-02 1.041834e-01 1.275886e-01 1.496003e-01 1.719435e-01 1.930151e-01 2.140749e-01 2.340276e-01 2.536263e-01 2.723158e-01 2.903182e-01 3.076324e-01 3.239399e-01 3.397935e-01 3.543355e-01 3.686644e-01 3.813882e-01 3.941425e-01 4.050042e-01 4.161429e-01 4.251000e-01 4.345881e-01 4.415963e-01 4.494037e-01 4.544179e-01 4.605217e-01 4.635013e-01 4.678904e-01 4.688089e-01 4.714885e-01 4.703452e-01 4.713409e-01 4.681714e-01 4.675295e-01 4.624131e-01 4.601944e-01 4.532542e-01 4.495211e-01 4.409144e-01 4.357117e-01 4.256107e-01 4.189429e-01 4.075066e-01 3.993185e-01 3.866615e-01 3.768275e-01 3.629910e-01 3.513196e-01 3.362539e-01 3.225092e-01 3.060749e-01 2.900120e-01 2.720031e-01 2.534110e-01 2.336005e-01 2.123441e-01 1.905426e-01 1.665985e-01 1.427162e-01 1.162023e-01 9.030157e-02 6.149828e-02 3.382721e-02 3.188658e-03 -2.581230e-02 -5.766565e-02 -8.738684e-02 -1.196995e-01 -1.494129e-01 -1.813495e-01 -2.102779e-01 -2.409936e-01 -2.683841e-01 -2.970974e-01 -3.222869e-01 -3.483403e-01 -3.708017e-01 -3.937019e-01 -4.130684e-01 -4.325021e-01 -4.485692e-01 -4.643968e-01 -4.771068e-01 -4.893392e-01 -4.987542e-01 -5.075198e-01 -5.137889e-01 -5.192969e-01 -5.226232e-01 -5.251283e-01 -5.257384e-01 -5.255103e-01 -5.236298e-01 
-5.621981e-01 -5.574564e-01 -5.518168e-01 -5.448789e-01 -5.371212e-01 -5.281341e-01 -5.184249e-01 -5.074912e-01 -4.959515e-01 -4.831367e-01 -4.698507e-01 -4.551944e-01 -4.402215e-01 -4.237519e-01 -4.071410e-01 -3.888909e-01 -3.706955e-01 -3.507184e-01 -3.310102e-01 -3.093943e-01 -2.882751e-01 -2.651538e-01 -2.427626e-01 -2.183200e-01 -1.948365e-01 -1.693082e-01 -1.449511e-01 -1.186196e-01 -9.364194e-02 -6.682769e-02 -4.150843e-02 -1.455718e-02 1.080918e-02 3.754140e-02 6.265711e-02 8.882080e-02 1.133979e-01 1.386668e-01 1.624393e-01 1.865251e-01 2.092593e-01 2.319217e-01 2.534221e-01 2.744730e-01 2.945838e-01 3.138854e-01 3.324880e-01 3.499452e-01 3.669518e-01 3.825007e-01 3.978469e-01 4.114426e-01 4.250796e-01 4.366841e-01 4.485722e-01 4.581456e-01 4.682505e-01 4.757466e-01 4.840387e-01 4.894062e-01 4.958633e-01 4.990529e-01 5.036661e-01 5.046426e-01 5.074229e-01 5.061802e-01 5.071649e-01 5.037411e-01 5.029950e-01 4.974826e-01 4.950919e-01 4.876395e-01 4.836965e-01 4.744984e-01 4.690765e-01 4.583486e-01 4.514720e-01 4.394154e-01 4.310304e-01 4.177882e-01 4.077446e-01 3.933604e-01 3.814111e-01 3.658007e-01 3.516246e-01 3.345721e-01 3.178187e-01 2.990073e-01 2.793555e-01 2.584322e-01 2.356527e-01 2.123170e-01 1.863301e-01 1.604260e-01 1.313470e-01 1.029367e-01 7.110323e-02 4.050523e-02 6.483747e-03 -2.573286e-02 -6.116905e-02 -9.423077e-02 -1.301536e-01 -1.631603e-01 -1.985644e-01 -2.305826e-01 -2.644761e-01 -2.946296e-01 -3.261203e-01 -3.536640e-01 -3.820264e-01 -4.063935e-01 -4.311087e-01 -4.519293e-01 -4.726940e-01 -4.897890e-01 -5.065006e-01 -5.198567e-01 -5.325800e-01 -5.423134e-01 -5.512388e-01 -5.575554e-01 -5.629547e-01 -5.661112e-01 -5.682965e-01 -5.685666e-01 -5.678567e-01 -5.655039e-01 