# vtk DataFile Version 2.0
Comment goes here
ASCII

DATASET STRUCTURED_POINTS
FIELD FieldData 1
TIME 1 1 double
0.01000000
DIMENSIONS    128   128   1

ORIGIN    0.000   0.000   0.000
SPACING   0.039062 0.039062   1.000

POINT_DATA   16384
SCALARS uY double
LOOKUP_TABLE default

-2.986896e-15 -3.013209e-15 -3.795571e-15 -3.452102e-15 -2.615609e-15 -1.443753e-15 8.461812e-17 8.605132e-16 -2.796147e-17 -5.826707e-16 -1.486753e-16 -8.842639e-16 -1.004071e-15 -1.136149e-15 -1.041766e-15 -1.031130e-15 4.175900e-16 1.428979e-15 1.500138e-15 1.411136e-15 6.258838e-16 6.252575e-16 7.096443e-16 -2.006289e-15 -3.257563e-15 -2.211751e-15 -3.317627e-15 -4.578103e-15 -3.541334e-15 -3.900815e-15 -2.931475e-15 -3.037559e-15 -2.136410e-15 -4.950109e-15 -3.454423e-15 -1.374573e-15 1.411678e-15 -1.180260e-16 -1.043253e-15 -2.727878e-15 -2.236883e-15 -6.759075e-15 -5.092341e-15 -4.660993e-15 -3.072540e-15 -3.073485e-15 -2.794492e-15 -3.401123e-15 -4.058160e-15 -6.993348e-15 -4.537781e-15 -3.588792e-15 -1.462428e-15 -4.208419e-15 -9.992791e-17 -2.139333e-15 -2.189672e-15 -4.121889e-15 -4.021487e-15 -3.073779e-15 -3.066107e-15 -3.755648e-15 -3.983909e-15 -1.670080e-15 4.608175e-16 9.860708e-16 1.756048e-15 -4.420142e-16 -1.618514e-15 -3.108775e-15 -4.468509e-15 -3.602633e-15 -1.712545e-15 -4.168206e-15 -4.771296e-15 -4.004154e-15 -3.866628e-15 -3.361968e-15 -2.919785e-15 -2.027195e-15 -2.142807e-15 -3.409335e-15 -4.558308e-15 -2.675895e-15 -3.400814e-15 -3.920904e-15 -6.251819e-15 -4.660007e-15 -4.730612e-15 -2.123641e-15 -2.654419e-15 -4.609865e-16 -4.431372e-17 2.648012e-15 9.304401e-17 -7.351418e-16 -4.170022e-15 -4.356409e-15 -4.098196e-15 -8.678367e-16 -1.259442e-15 -9.728570e-17 -9.192749e-16 6.857444e-16 -1.584859e-15 -1.410585e-15 -2.370467e-15 -2.847457e-15 -3.672185e-15 -1.675944e-15 -2.415687e-15 -1.830910e-15 -8.408469e-16 1.199883e-15 1.006543e-15 1.080438e-15 -6.803549e-16 -1.112634e-15 -2.291242e-15 -1.183344e-15 -4.375817e-16 -1.249091e-15 -1.944155e-15 -1.531738e-15 -1.930942e-15 -2.389332e-15 -3.308952e-15 -3.759660e-15 
-1.791833e-02 -1.828459e-02 -1.858352e-02 -1.885936e-02 -1.903298e-02 -1.919348e-02 -1.921979e-02 -1.923972e-02 -1.909656e-02 -1.895124e-02 -1.861727e-02 -1.828369e-02 -1.773964e-02 -1.719783e-02 -1.642798e-02 -1.566258e-02 -1.465650e-02 -1.365853e-02 -1.241286e-02 -1.118143e-02 -9.701619e-03 -8.245575e-03 -6.547366e-03 -4.886517e-03 -2.996980e-03 -1.162840e-03 8.792883e-04 2.843525e-03 4.988319e-03 7.028663e-03 9.216433e-03 1.126993e-02 1.343358e-02 1.543103e-02 1.749926e-02 1.936868e-02 2.126978e-02 2.294037e-02 2.460634e-02 2.601266e-02 2.738331e-02 2.846926e-02 2.949591e-02 3.021825e-02 3.086682e-02 3.119794e-02 3.145107e-02 3.138077e-02 3.123889e-02 3.077504e-02 3.025636e-02 2.942444e-02 2.856377e-02 2.740522e-02 2.625178e-02 2.482142e-02 2.343571e-02 2.179831e-02 2.024832e-02 1.847457e-02 1.683164e-02 1.499393e-02 1.332843e-02 1.149671e-02 9.873997e-03 8.112033e-03 6.588975e-03 4.951307e-03 3.573592e-03 2.103364e-03 9.037739e-04 -3.684495e-04 -1.370737e-03 -2.427206e-03 -3.226327e-03 -4.061478e-03 -4.663736e-03 -5.282887e-03 -5.704931e-03 -6.122497e-03 -6.389048e-03 -6.626503e-03 -6.767851e-03 -6.851621e-03 -6.901100e-03 -6.860562e-03 -6.852184e-03 -6.717876e-03 -6.684254e-03 -6.486373e-03 -6.457037e-03 -6.224240e-03 -6.224393e-03 -5.982905e-03 -6.032641e-03 -5.805630e-03 -5.919585e-03 -5.726767e-03 -5.914165e-03 -5.771588e-03 -6.036609e-03 -5.956584e-03 -6.298957e-03 -6.290101e-03 -6.705845e-03 -6.773204e-03 -7.255412e-03 -7.400647e-03 -7.940239e-03 -8.161857e-03 -8.748224e-03 -9.041829e-03 -9.663336e-03 -1.002188e-02 -1.066620e-02 -1.108022e-02 -1.173449e-02 -1.219231e-02 -1.284312e-02 -1.333099e-02 -1.396431e-02 -1.446653e-02 -1.506748e-02 -1.556648e-02 -1.611912e-02 -1.659551e-02 -1.708264e-02 -1.751531e-02 
-3.591141e-02 -3.665281e-02 -3.717489e-02 -3.773036e-02 -3.799956e-02 -3.831903e-02 -3.829223e-02 -3.832513e-02 -3.795929e-02 -3.765624e-02 -3.691037e-02 -3.622552e-02 -3.506326e-02 -3.395703e-02 -3.234971e-02 -3.079200e-02 -2.872204e-02 -2.669570e-02 -2.416016e-02 -2.166444e-02 -1.867834e-02 -1.573205e-02 -1.233111e-02 -8.975014e-03 -5.217394e-03 -1.515528e-03 2.517881e-03 6.478420e-03 1.068537e-02 1.479636e-02 1.905651e-02 2.319236e-02 2.737237e-02 3.139562e-02 3.535571e-02 3.912390e-02 4.272549e-02 4.609894e-02 4.921272e-02 5.206261e-02 5.457633e-02 5.679241e-02 5.861775e-02 6.011508e-02 6.119311e-02 6.191732e-02 6.222212e-02 6.215282e-02 6.169302e-02 6.084508e-02 5.966325e-02 5.808586e-02 5.625583e-02 5.402943e-02 5.165170e-02 4.888294e-02 4.607840e-02 4.289355e-02 3.979611e-02 3.633323e-02 3.308173e-02 2.948250e-02 2.621253e-02 2.261407e-02 1.945037e-02 1.597794e-02 1.302788e-02 9.788888e-03 7.137579e-03 4.217268e-03 1.924480e-03 -6.163988e-04 -2.517315e-03 -4.642996e-03 -6.144326e-03 -7.842828e-03 -8.960093e-03 -1.024068e-02 -1.100899e-02 -1.189871e-02 -1.236829e-02 -1.290799e-02 -1.313931e-02 -1.337960e-02 -1.343847e-02 -1.343581e-02 -1.338888e-02 -1.320213e-02 -1.311289e-02 -1.280042e-02 -1.272599e-02 -1.234337e-02 -1.233219e-02 -1.193042e-02 -1.202076e-02 -1.164508e-02 -1.186446e-02 -1.155353e-02 -1.191885e-02 -1.170428e-02 -1.222259e-02 -1.212877e-02 -1.279848e-02 -1.284259e-02 -1.365494e-02 -1.384715e-02 -1.478779e-02 -1.513156e-02 -1.618200e-02 -1.667451e-02 -1.781338e-02 -1.844599e-02 -1.965004e-02 -2.040877e-02 -2.165345e-02 -2.251943e-02 -2.377918e-02 -2.472907e-02 -2.597731e-02 -2.698353e-02 -2.819242e-02 -2.922346e-02 -3.036345e-02 -3.138398e-02 -3.242343e-02 -3.339445e-02 -3.429920e-02 -3.517823e-02 
-5.392550e-02 -5.504829e-02 -5.596626e-02 -5.681871e-02 -5.736159e-02 -5.786831e-02 -5.796940e-02 -5.805384e-02 -5.764572e-02 -5.723275e-02 -5.625016e-02 -5.526938e-02 -5.365295e-02 -5.204284e-02 -4.974375e-02 -4.745653e-02 -4.444167e-02 -4.144862e-02 -3.770617e-02 -3.400305e-02 -2.954788e-02 -2.515993e-02 -2.003826e-02 -1.502420e-02 -9.316862e-03 -3.771253e-03 2.405050e-03 8.351733e-03 1.484581e-02 2.102978e-02 2.766019e-02 3.388987e-02 4.045215e-02 4.651646e-02 5.279289e-02 5.847193e-02 6.424325e-02 6.932049e-02 7.437861e-02 7.865370e-02 8.281432e-02 8.611542e-02 8.922949e-02 9.142413e-02 9.338724e-02 9.439081e-02 9.514976e-02 9.493097e-02 9.448712e-02 9.307009e-02 9.147924e-02 8.894197e-02 8.631077e-02 8.278026e-02 7.925943e-02 7.490357e-02 7.067841e-02 6.569548e-02 6.097420e-02 5.558051e-02 5.058138e-02 4.499828e-02 3.993643e-02 3.437750e-02 2.945250e-02 2.411208e-02 1.949723e-02 1.454109e-02 1.037518e-02 5.933944e-03 2.316003e-03 -1.518404e-03 -4.531124e-03 -7.706080e-03 -1.009714e-02 -1.259726e-02 -1.438739e-02 -1.623042e-02 -1.747184e-02 -1.870306e-02 -1.947243e-02 -2.015836e-02 -2.054908e-02 -2.077101e-02 -2.088544e-02 -2.073329e-02 -2.067555e-02 -2.024243e-02 -2.011204e-02 -1.948974e-02 -1.937653e-02 -1.865192e-02 -1.863229e-02 -1.788465e-02 -1.801923e-02 -1.731848e-02 -1.765112e-02 -1.705661e-02 -1.761464e-02 -1.717459e-02 -1.796992e-02 -1.772123e-02 -1.875233e-02 -1.872072e-02 -1.997485e-02 -2.017527e-02 -2.163098e-02 -2.206818e-02 -2.369756e-02 -2.436681e-02 -2.613754e-02 -2.702541e-02 -2.890225e-02 -2.998736e-02 -3.193317e-02 -3.318694e-02 -3.516311e-02 -3.655032e-02 -3.851679e-02 -3.999610e-02 -4.191093e-02 -4.343518e-02 -4.525397e-02 -4.677035e-02 -4.844549e-02 -4.989576e-02 -5.137575e-02 -5.269644e-02 
-7.217159e-02 -7.370266e-02 -7.478860e-02 -7.594960e-02 -7.653114e-02 -7.722066e-02 -7.721015e-02 -7.732527e-02 -7.663460e-02 -7.607433e-02 -7.461899e-02 -7.328883e-02 -7.099303e-02 -6.881062e-02 -6.561361e-02 -6.251529e-02 -5.837837e-02 -5.432636e-02 -4.924031e-02 -4.423001e-02 -3.822212e-02 -3.228871e-02 -2.542870e-02 -1.865245e-02 -1.105630e-02 -3.565457e-03 4.603629e-03 1.263293e-02 2.116719e-02 2.951474e-02 3.816844e-02 4.657757e-02 5.507740e-02 6.326631e-02 7.132508e-02 7.900108e-02 8.633359e-02 9.320926e-02 9.954910e-02 1.053591e-01 1.104748e-01 1.149919e-01 1.187015e-01 1.217505e-01 1.239324e-01 1.254012e-01 1.260022e-01 1.258488e-01 1.248866e-01 1.231415e-01 1.207041e-01 1.174688e-01 1.137083e-01 1.091489e-01 1.042726e-01 9.860881e-02 9.286586e-02 8.635806e-02 8.002439e-02 7.295697e-02 6.631840e-02 5.898280e-02 5.231813e-02 4.499595e-02 3.856115e-02 3.150890e-02 2.552366e-02 1.896041e-02 1.359800e-02 7.696616e-03 3.077666e-03 -2.039861e-03 -5.849429e-03 -1.011277e-02 -1.309993e-02 -1.648767e-02 -1.868710e-02 -2.122122e-02 -2.270763e-02 -2.444620e-02 -2.532490e-02 -2.635370e-02 -2.675051e-02 -2.717462e-02 -2.722573e-02 -2.716153e-02 -2.700418e-02 -2.657232e-02 -2.633669e-02 -2.565620e-02 -2.545890e-02 -2.464264e-02 -2.458200e-02 -2.373322e-02 -2.388639e-02 -2.309637e-02 -2.351824e-02 -2.286475e-02 -2.358834e-02 -2.313481e-02 -2.417302e-02 -2.396820e-02 -2.531637e-02 -2.539443e-02 -2.703349e-02 -2.741445e-02 -2.931422e-02 -3.000458e-02 -3.212681e-02 -3.312047e-02 -3.542148e-02 -3.670068e-02 -3.913332e-02 -4.066966e-02 -4.318455e-02 -4.493990e-02 -4.748597e-02 -4.941330e-02 -5.193763e-02 -5.398161e-02 -5.642890e-02 -5.852633e-02 -6.083795e-02 -6.291802e-02 -6.503106e-02 -6.701560e-02 -6.886197e-02 -7.066569e-02 
-9.044163e-02 -9.239337e-02 -9.399444e-02 -9.549885e-02 -9.647772e-02 -9.740714e-02 -9.765046e-02 -9.787452e-02 -9.726674e-02 -9.665648e-02 -9.508465e-02 -9.351812e-02 -9.087823e-02 -8.824753e-02 -8.445237e-02 -8.067198e-02 -7.566023e-02 -7.067629e-02 -6.442228e-02 -5.822218e-02 -5.074551e-02 -4.336690e-02 -3.474098e-02 -2.627917e-02 -1.663738e-02 -7.249852e-03 3.211805e-03 1.330468e-02 2.432947e-02 3.484859e-02 4.612615e-02 5.674302e-02 6.792171e-02 7.827275e-02 8.897671e-02 9.868190e-02 1.085316e-01 1.172159e-01 1.258505e-01 1.331662e-01 1.402660e-01 1.459147e-01 1.512207e-01 1.549723e-01 1.583032e-01 1.600105e-01 1.612739e-01 1.608825e-01 1.600809e-01 1.576327e-01 1.548630e-01 1.504933e-01 1.459408e-01 1.398703e-01 1.337968e-01 1.263171e-01 1.190442e-01 1.104993e-01 1.023885e-01 9.315346e-02 8.458299e-02 7.504090e-02 6.638314e-02 5.690266e-02 4.850210e-02 3.941748e-02 3.157209e-02 2.316689e-02 1.611377e-02 8.609663e-03 2.516154e-03 -3.933017e-03 -8.972594e-03 -1.428138e-02 -1.824364e-02 -2.239098e-02 -2.531675e-02 -2.833836e-02 -3.032249e-02 -3.230084e-02 -3.347965e-02 -3.453278e-02 -3.507051e-02 -3.534069e-02 -3.541598e-02 -3.505910e-02 -3.485248e-02 -3.402878e-02 -3.371180e-02 -3.257821e-02 -3.230475e-02 -3.100901e-02 -3.090899e-02 -2.958530e-02 -2.976086e-02 -2.852701e-02 -2.905104e-02 -2.800662e-02 -2.892334e-02 -2.814891e-02 -2.947612e-02 -2.903303e-02 -3.076559e-02 -3.069627e-02 -3.281027e-02 -3.313899e-02 -3.559608e-02 -3.632998e-02 -3.908146e-02 -4.021180e-02 -4.320212e-02 -4.470564e-02 -4.787495e-02 -4.971523e-02 -5.300112e-02 -5.512984e-02 -5.846797e-02 -6.082595e-02 -6.414997e-02 -6.666793e-02 -6.990866e-02 -7.250774e-02 -7.559197e-02 -7.818398e-02 -8.103309e-02 -8.352072e-02 -8.604936e-02 -8.832638e-02 
-1.091244e-01 -1.115426e-01 -1.132768e-01 -1.151447e-01 -1.161263e-01 -1.172888e-01 -1.173827e-01 -1.176810e-01 -1.167501e-01 -1.160270e-01 -1.139381e-01 -1.120449e-01 -1.086764e-01 -1.054814e-01 -1.007335e-01 -9.613221e-02 -8.993763e-02 -8.386449e-02 -7.620071e-02 -6.864052e-02 -5.954118e-02 -5.054031e-02 -4.010527e-02 -2.978053e-02 -1.818265e-02 -6.726663e-03 5.785906e-03 1.810418e-02 3.121157e-02 4.405228e-02 5.737291e-02 7.033705e-02 8.344399e-02 9.609116e-02 1.085339e-01 1.204050e-01 1.317349e-01 1.423780e-01 1.521753e-01 1.611725e-01 1.690724e-01 1.760655e-01 1.817808e-01 1.864935e-01 1.898327e-01 1.920882e-01 1.929674e-01 1.926992e-01 1.911468e-01 1.884032e-01 1.845578e-01 1.794989e-01 1.736009e-01 1.664884e-01 1.588644e-01 1.500454e-01 1.410882e-01 1.309730e-01 1.211174e-01 1.101540e-01 9.984958e-02 8.849601e-02 7.818068e-02 6.687823e-02 5.695264e-02 4.610147e-02 3.690776e-02 2.684735e-02 1.865316e-02 9.648716e-03 2.637635e-03 -5.126883e-03 -1.085818e-02 -1.728061e-02 -2.171893e-02 -2.677391e-02 -2.998084e-02 -3.371044e-02 -3.580963e-02 -3.831124e-02 -3.947326e-02 -4.088608e-02 -4.131216e-02 -4.180372e-02 -4.170980e-02 -4.146343e-02 -4.106547e-02 -4.026943e-02 -3.977081e-02 -3.860942e-02 -3.819094e-02 -3.683777e-02 -3.665051e-02 -3.526344e-02 -3.542457e-02 -3.414241e-02 -3.473375e-02 -3.367426e-02 -3.474326e-02 -3.400199e-02 -3.556477e-02 -3.521476e-02 -3.726047e-02 -3.735246e-02 -3.984844e-02 -4.041162e-02 -4.330876e-02 -4.435183e-02 -4.758952e-02 -4.910211e-02 -5.261238e-02 -5.456661e-02 -5.827719e-02 -6.062928e-02 -6.446545e-02 -6.715723e-02 -7.104248e-02 -7.400263e-02 -7.785833e-02 -8.100331e-02 -8.474759e-02 -8.798223e-02 -9.152839e-02 -9.474620e-02 -9.800092e-02 -1.010842e-01 -1.039460e-01 -1.067663e-01 
-1.277972e-01 -1.306999e-01 -1.330921e-01 -1.353761e-01 -1.369044e-01 -1.383868e-01 -1.388880e-01 -1.393805e-01 -1.386861e-01 -1.380004e-01 -1.359434e-01 -1.338989e-01 -1.303229e-01 -1.267570e-01 -1.215272e-01 -1.163074e-01 -1.093246e-01 -1.023623e-01 -9.357719e-02 -8.484239e-02 -7.427093e-02 -6.380634e-02 -5.154290e-02 -3.947583e-02 -2.570366e-02 -1.225390e-02 2.749794e-03 1.726786e-02 3.313375e-02 4.831643e-02 6.459284e-02 7.996036e-02 9.613141e-02 1.111492e-01 1.266603e-01 1.407667e-01 1.550558e-01 1.676946e-01 1.802259e-01 1.908807e-01 2.011786e-01 2.094053e-01 2.170846e-01 2.225403e-01 2.273314e-01 2.297970e-01 2.315625e-01 2.309567e-01 2.297003e-01 2.260852e-01 2.219513e-01 2.155286e-01 2.087929e-01 1.998907e-01 1.909427e-01 1.799949e-01 1.693130e-01 1.568309e-01 1.449521e-01 1.314926e-01 1.189785e-01 1.051087e-01 9.251053e-02 7.877426e-02 6.660027e-02 5.348790e-02 4.217493e-02 3.009910e-02 1.999149e-02 9.270740e-03 6.073967e-04 -8.541910e-03 -1.563170e-02 -2.309531e-02 -2.858792e-02 -3.434671e-02 -3.831330e-02 -4.243099e-02 -4.502152e-02 -4.762896e-02 -4.905298e-02 -5.033106e-02 -5.083717e-02 -5.099973e-02 -5.085538e-02 -5.013354e-02 -4.960652e-02 -4.823530e-02 -4.757787e-02 -4.578528e-02 -4.522165e-02 -4.322059e-02 -4.293805e-02 -4.092052e-02 -4.106420e-02 -3.919761e-02 -3.986885e-02 -3.829393e-02 -3.955157e-02 -3.838140e-02 -4.024564e-02 -3.956569e-02 -4.202365e-02 -4.189233e-02 -4.490455e-02 -4.535443e-02 -4.886159e-02 -4.990094e-02 -5.383009e-02 -5.544480e-02 -5.971450e-02 -6.187012e-02 -6.639429e-02 -6.903811e-02 -7.372835e-02 -7.679127e-02 -8.155767e-02 -8.495573e-02 -8.970644e-02 -9.334194e-02 -9.798176e-02 -1.017439e-01 -1.061721e-01 -1.099371e-01 -1.140455e-01 -1.176767e-01 -1.213470e-01 -1.246950e-01 
-1.471033e-01 -1.505567e-01 -1.530681e-01 -1.557981e-01 -1.573148e-01 -1.591088e-01 -1.594444e-01 -1.600829e-01 -1.590452e-01 -1.583080e-01 -1.557071e-01 -1.533824e-01 -1.490413e-01 -1.449380e-01 -1.387064e-01 -1.326678e-01 -1.244382e-01 -1.163589e-01 -1.060839e-01 -9.592728e-02 -8.363675e-02 -7.145146e-02 -5.726857e-02 -4.320258e-02 -2.735482e-02 -1.166467e-02 5.511313e-03 2.245842e-02 4.052064e-02 5.825347e-02 7.666811e-02 9.462753e-02 1.127922e-01 1.303566e-01 1.476320e-01 1.641500e-01 1.798971e-01 1.947253e-01 2.083450e-01 2.208875e-01 2.318585e-01 2.416037e-01 2.495161e-01 2.560694e-01 2.606499e-01 2.637583e-01 2.648875e-01 2.644561e-01 2.621749e-01 2.582726e-01 2.527793e-01 2.456349e-01 2.372727e-01 2.272603e-01 2.164959e-01 2.041113e-01 1.915055e-01 1.773350e-01 1.635078e-01 1.481902e-01 1.337823e-01 1.179694e-01 1.036028e-01 8.791986e-02 7.416132e-02 5.917171e-02 4.650183e-02 3.267900e-02 2.146937e-02 9.177863e-03 -3.221042e-04 -1.083579e-02 -1.850206e-02 -2.710897e-02 -3.293692e-02 -3.961706e-02 -4.370785e-02 -4.853554e-02 -5.107697e-02 -5.420240e-02 -5.544649e-02 -5.707578e-02 -5.731519e-02 -5.769085e-02 -5.723594e-02 -5.661911e-02 -5.577715e-02 -5.443259e-02 -5.349018e-02 -5.167431e-02 -5.088355e-02 -4.883559e-02 -4.840455e-02 -4.634032e-02 -4.642761e-02 -4.453556e-02 -4.524891e-02 -4.368784e-02 -4.508616e-02 -4.398409e-02 -4.608233e-02 -4.553635e-02 -4.831227e-02 -4.838901e-02 -5.179101e-02 -5.252772e-02 -5.648283e-02 -5.788900e-02 -6.231010e-02 -6.436953e-02 -6.916129e-02 -7.183437e-02 -7.689757e-02 -8.012364e-02 -8.535754e-02 -8.905712e-02 -9.436013e-02 -9.843669e-02 -1.037056e-01 -1.080468e-01 -1.131747e-01 -1.176531e-01 -1.225271e-01 -1.270003e-01 -1.314982e-01 -1.358089e-01 -1.397969e-01 -1.437726e-01 
-1.663081e-01 -1.703353e-01 -1.736724e-01 -1.769187e-01 -1.791597e-01 -1.813834e-01 -1.823109e-01 -1.832601e-01 -1.826462e-01 -1.820654e-01 -1.796800e-01 -1.773200e-01 -1.729426e-01 -1.685739e-01 -1.620090e-01 -1.554381e-01 -1.465336e-01 -1.376227e-01 -1.262910e-01 -1.149786e-01 -1.012182e-01 -8.754022e-02 -7.145618e-02 -5.556404e-02 -3.738444e-02 -1.955814e-02 3.568583e-04 1.970372e-02 4.086235e-02 6.118818e-02 8.297940e-02 1.036320e-01 1.253502e-01 1.455961e-01 1.664767e-01 1.855404e-01 2.048049e-01 2.219149e-01 2.388188e-01 2.532568e-01 2.671381e-01 2.782857e-01 2.886084e-01 2.959876e-01 3.023763e-01 3.056814e-01 3.079453e-01 3.070629e-01 3.052074e-01 3.002237e-01 2.944499e-01 2.856456e-01 2.763372e-01 2.641692e-01 2.518682e-01 2.369405e-01 2.223124e-01 2.053364e-01 1.891280e-01 1.708766e-01 1.538676e-01 1.351260e-01 1.180794e-01 9.959705e-02 8.321286e-02 6.566019e-02 5.053539e-02 3.447054e-02 2.106962e-02 6.915996e-03 -4.446383e-03 -1.640996e-02 -2.557353e-02 -3.521101e-02 -4.216278e-02 -4.946927e-02 -5.432672e-02 -5.940957e-02 -6.239700e-02 -6.545264e-02 -6.687332e-02 -6.816252e-02 -6.836960e-02 -6.819341e-02 -6.756167e-02 -6.623991e-02 -6.514025e-02 -6.299349e-02 -6.177143e-02 -5.910696e-02 -5.806592e-02 -5.516752e-02 -5.455734e-02 -5.167853e-02 -5.168905e-02 -4.904899e-02 -4.980862e-02 -4.759005e-02 -4.916845e-02 -4.751706e-02 -4.993125e-02 -4.895598e-02 -5.217881e-02 -5.195292e-02 -5.592268e-02 -5.648544e-02 -6.111564e-02 -6.247458e-02 -6.766279e-02 -6.979634e-02 -7.543146e-02 -7.829194e-02 -8.425934e-02 -8.777584e-02 -9.396029e-02 -9.804142e-02 -1.043279e-01 -1.088638e-01 -1.151363e-01 -1.200003e-01 -1.261397e-01 -1.311887e-01 -1.370693e-01 -1.421439e-01 -1.476298e-01 -1.525542e-01 -1.574958e-01 -1.620767e-01 
-1.864237e-01 -1.911135e-01 -1.945777e-01 -1.983821e-01 -2.006205e-01 -2.032656e-01 -2.040351e-01 -2.052340e-01 -2.042795e-01 -2.037398e-01 -2.008039e-01 -1.982390e-01 -1.930758e-01 -1.882204e-01 -1.806131e-01 -1.732420e-01 -1.630253e-01 -1.529763e-01 -1.400602e-01 -1.272583e-01 -1.116536e-01 -9.613566e-02 -7.797749e-02 -5.991354e-02 -3.947926e-02 -1.918761e-02 3.093845e-03 2.514108e-02 4.869207e-02 7.187609e-02 9.598731e-02 1.195635e-01 1.434255e-01 1.665582e-01 1.893055e-01 2.111133e-01 2.318769e-01 2.514860e-01 2.694493e-01 2.860483e-01 3.005006e-01 3.133923e-01 3.237749e-01 3.324214e-01 3.383627e-01 3.424190e-01 3.437572e-01 3.430937e-01 3.398853e-01 3.345957e-01 3.271114e-01 3.175073e-01 3.062147e-01 2.928064e-01 2.783410e-01 2.618049e-01 2.449305e-01 2.260657e-01 2.076264e-01 1.873030e-01 1.681696e-01 1.472722e-01 1.282875e-01 1.076607e-01 8.958851e-02 6.998692e-02 5.346918e-02 3.551935e-02 2.104474e-02 5.219603e-03 -6.893392e-03 -2.028523e-02 -2.989121e-02 -4.070258e-02 -4.781907e-02 -5.605005e-02 -6.083693e-02 -6.661250e-02 -6.934415e-02 -7.288725e-02 -7.392076e-02 -7.552399e-02 -7.526635e-02 -7.526493e-02 -7.414173e-02 -7.288965e-02 -7.131710e-02 -6.916756e-02 -6.752923e-02 -6.481964e-02 -6.344855e-02 -6.048995e-02 -5.965654e-02 -5.672666e-02 -5.663241e-02 -5.397162e-02 -5.474813e-02 -5.255737e-02 -5.427014e-02 -5.271013e-02 -5.536612e-02 -5.455750e-02 -5.811525e-02 -5.813944e-02 -6.252049e-02 -6.342120e-02 -6.852142e-02 -7.030691e-02 -7.600671e-02 -7.865262e-02 -8.482508e-02 -8.827769e-02 -9.479420e-02 -9.897381e-02 -1.057069e-01 -1.105109e-01 -1.173349e-01 -1.226403e-01 -1.294291e-01 -1.350940e-01 -1.417186e-01 -1.475832e-01 -1.539070e-01 -1.597931e-01 -1.656679e-01 -1.713785e-01 -1.766401e-01 -1.819587e-01 
-2.062670e-01 -2.116457e-01 -2.161296e-01 -2.205798e-01 -2.237509e-01 -2.269678e-01 -2.285496e-01 -2.302109e-01 -2.299077e-01 -2.296808e-01 -2.271876e-01 -2.247415e-01 -2.197585e-01 -2.147801e-01 -2.070323e-01 -1.992481e-01 -1.885098e-01 -1.777115e-01 -1.638348e-01 -1.499089e-01 -1.328546e-01 -1.158118e-01 -9.567939e-02 -7.568211e-02 -5.273513e-02 -3.011878e-02 -4.800861e-03 1.991621e-02 4.697860e-02 7.309952e-02 1.011113e-01 1.277823e-01 1.558121e-01 1.820615e-01 2.090907e-01 2.338829e-01 2.588676e-01 2.811673e-01 3.031060e-01 3.219460e-01 3.399472e-01 3.544937e-01 3.678355e-01 3.774440e-01 3.856215e-01 3.898797e-01 3.926366e-01 3.913912e-01 3.887356e-01 3.821024e-01 3.743049e-01 3.626617e-01 3.502384e-01 3.342004e-01 3.178805e-01 2.982609e-01 2.789400e-01 2.566965e-01 2.353789e-01 2.115502e-01 1.892831e-01 1.649205e-01 1.427256e-01 1.188266e-01 9.763536e-02 7.508443e-02 5.568352e-02 3.520642e-02 1.819770e-02 3.325715e-04 -1.388898e-02 -2.880269e-02 -4.005298e-02 -5.186912e-02 -6.016253e-02 -6.890927e-02 -7.443333e-02 -8.028489e-02 -8.336596e-02 -8.660906e-02 -8.767332e-02 -8.867259e-02 -8.820594e-02 -8.737120e-02 -8.588124e-02 -8.363900e-02 -8.162125e-02 -7.839169e-02 -7.630162e-02 -7.248147e-02 -7.071325e-02 -6.666398e-02 -6.553635e-02 -6.157705e-02 -6.132608e-02 -5.772973e-02 -5.850816e-02 -5.550020e-02 -5.738239e-02 -5.514076e-02 -5.813213e-02 -5.678822e-02 -6.083766e-02 -6.047789e-02 -6.549172e-02 -6.615984e-02 -7.201549e-02 -7.371559e-02 -8.027394e-02 -8.297408e-02 -9.008919e-02 -9.372547e-02 -1.012513e-01 -1.057320e-01 -1.135256e-01 -1.187348e-01 -1.266571e-01 -1.324578e-01 -1.403713e-01 -1.466067e-01 -1.543715e-01 -1.608666e-01 -1.683355e-01 -1.748957e-01 -1.819087e-01 -1.883192e-01 -1.946982e-01 -2.007226e-01 
-2.273739e-01 -2.335564e-01 -2.381985e-01 -2.433513e-01 -2.465545e-01 -2.503376e-01 -2.517963e-01 -2.538477e-01 -2.532342e-01 -2.531782e-01 -2.501537e-01 -2.476137e-01 -2.418452e-01 -2.364626e-01 -2.276454e-01 -2.191040e-01 -2.069903e-01 -1.950462e-01 -1.794783e-01 -1.639940e-01 -1.449403e-01 -1.259194e-01 -1.035088e-01 -8.112818e-02 -5.567851e-02 -3.031305e-02 -2.348377e-03 2.541789e-02 5.516720e-02 8.454691e-02 1.151645e-01 1.451931e-01 1.756183e-01 2.052001e-01 2.342885e-01 2.622597e-01 2.888564e-01 3.140575e-01 3.370751e-01 3.584274e-01 3.769195e-01 3.934956e-01 4.067197e-01 4.178039e-01 4.252678e-01 4.304017e-01 4.318922e-01 4.309029e-01 4.264967e-01 4.195082e-01 4.095655e-01 3.969917e-01 3.821335e-01 3.646529e-01 3.457231e-01 3.242362e-01 3.022498e-01 2.778207e-01 2.538989e-01 2.276847e-01 2.029830e-01 1.761567e-01 1.517901e-01 1.254644e-01 1.024367e-01 7.759656e-02 5.674206e-02 3.419218e-02 1.613393e-02 -3.533531e-03 -1.840512e-02 -3.482233e-02 -4.635060e-02 -5.936640e-02 -6.761162e-02 -7.726845e-02 -8.247706e-02 -8.897752e-02 -9.154231e-02 -9.521043e-02 -9.562636e-02 -9.686825e-02 -9.568795e-02 -9.495542e-02 -9.274766e-02 -9.050713e-02 -8.782038e-02 -8.452843e-02 -8.186112e-02 -7.794675e-02 -7.572492e-02 -7.157788e-02 -7.014066e-02 -6.610469e-02 -6.569736e-02 -6.206683e-02 -6.284107e-02 -5.985981e-02 -6.188015e-02 -5.974146e-02 -6.299674e-02 -6.184399e-02 -6.626212e-02 -6.618999e-02 -7.165425e-02 -7.271070e-02 -7.907562e-02 -8.126481e-02 -8.837018e-02 -9.165634e-02 -9.933806e-02 -1.036500e-01 -1.117471e-01 -1.169830e-01 -1.253411e-01 -1.313726e-01 -1.398433e-01 -1.465194e-01 -1.549573e-01 -1.621059e-01 -1.703636e-01 -1.777925e-01 -1.857145e-01 -1.932104e-01 -2.006262e-01 -2.079535e-01 -2.146719e-01 -2.215702e-01 
-2.479321e-01 -2.549451e-01 -2.608282e-01 -2.667867e-01 -2.711648e-01 -2.756971e-01 -2.782289e-01 -2.809347e-01 -2.812473e-01 -2.817052e-01 -2.794041e-01 -2.771846e-01 -2.718714e-01 -2.665565e-01 -2.578519e-01 -2.490620e-01 -2.366381e-01 -2.240658e-01 -2.076837e-01 -1.911333e-01 -1.706861e-01 -1.501156e-01 -1.256718e-01 -1.012339e-01 -7.307628e-02 -4.515158e-02 -1.380454e-02 1.697937e-02 5.074048e-02 8.350991e-02 1.186737e-01 1.523344e-01 1.876946e-01 2.209829e-01 2.552051e-01 2.867611e-01 3.184679e-01 3.469243e-01 3.747900e-01 3.988660e-01 4.217096e-01 4.402999e-01 4.571662e-01 4.694168e-01 4.796394e-01 4.850042e-01 4.882464e-01 4.865222e-01 4.827957e-01 4.741351e-01 4.637976e-01 4.486993e-01 4.324319e-01 4.117099e-01 3.904752e-01 3.652055e-01 3.401872e-01 3.116372e-01 2.841631e-01 2.537053e-01 2.251585e-01 1.941773e-01 1.659027e-01 1.357028e-01 1.089181e-01 8.064340e-02 5.636478e-02 3.093758e-02 9.926330e-03 -1.198943e-02 -2.925408e-02 -4.726386e-02 -6.058636e-02 -7.455282e-02 -8.400032e-02 -9.401306e-02 -9.987739e-02 -1.062109e-01 -1.089595e-01 -1.120255e-01 -1.122475e-01 -1.125471e-01 -1.108992e-01 -1.089795e-01 -1.061359e-01 -1.025530e-01 -9.916172e-02 -9.445269e-02 -9.110048e-02 -8.576316e-02 -8.294911e-02 -7.742982e-02 -7.554875e-02 -7.023592e-02 -6.957081e-02 -6.479262e-02 -6.551560e-02 -6.154018e-02 -6.372086e-02 -6.075752e-02 -6.437723e-02 -6.257818e-02 -6.754801e-02 -6.701055e-02 -7.319103e-02 -7.396040e-02 -8.118063e-02 -8.325385e-02 -9.132824e-02 -9.465892e-02 -1.034000e-01 -1.079040e-01 -1.171309e-01 -1.226917e-01 -1.322336e-01 -1.387081e-01 -1.484038e-01 -1.556258e-01 -1.653200e-01 -1.731024e-01 -1.826396e-01 -1.907754e-01 -1.999924e-01 -2.082530e-01 -2.169711e-01 -2.251044e-01 -2.331213e-01 -2.408486e-01 
-2.702014e-01 -2.781908e-01 -2.842880e-01 -2.911293e-01 -2.956029e-01 -3.008860e-01 -3.033616e-01 -3.066413e-01 -3.067076e-01 -3.075117e-01 -3.047320e-01 -3.025753e-01 -2.965067e-01 -2.909127e-01 -2.811338e-01 -2.716654e-01 -2.578128e-01 -2.441107e-01 -2.259233e-01 -2.077524e-01 -1.851213e-01 -1.624199e-01 -1.354392e-01 -1.083667e-01 -7.737770e-02 -4.635400e-02 -1.197566e-02 2.229722e-02 5.916149e-02 9.570145e-02 1.338864e-01 1.714628e-01 2.095961e-01 2.467907e-01 2.833756e-01 3.186688e-01 3.521864e-01 3.840577e-01 4.130760e-01 4.401082e-01 4.633827e-01 4.843582e-01 5.009159e-01 5.148961e-01 5.240954e-01 5.304793e-01 5.320454e-01 5.306062e-01 5.246423e-01 5.155412e-01 5.025195e-01 4.862976e-01 4.670303e-01 4.445770e-01 4.201687e-01 3.926670e-01 3.644476e-01 3.332971e-01 3.027377e-01 2.694597e-01 2.380752e-01 2.042070e-01 1.734545e-01 1.404450e-01 1.116273e-01 8.074350e-02 5.492890e-02 2.718666e-02 5.154082e-03 -1.872366e-02 -3.651072e-02 -5.610454e-02 -6.949501e-02 -8.467279e-02 -9.380040e-02 -1.046804e-01 -1.099180e-01 -1.168193e-01 -1.187222e-01 -1.221092e-01 -1.213548e-01 -1.217835e-01 -1.191117e-01 -1.171816e-01 -1.133408e-01 -1.096551e-01 -1.053558e-01 -1.004924e-01 -9.637000e-02 -9.086104e-02 -8.744935e-02 -8.177009e-02 -7.948383e-02 -7.404729e-02 -7.317532e-02 -6.833108e-02 -6.903863e-02 -6.507347e-02 -6.741267e-02 -6.455180e-02 -6.847856e-02 -6.688689e-02 -7.228224e-02 -7.206575e-02 -7.875873e-02 -7.996674e-02 -8.775657e-02 -9.038527e-02 -9.906028e-02 -1.030579e-01 -1.124098e-01 -1.176830e-01 -1.275152e-01 -1.339356e-01 -1.440669e-01 -1.514773e-01 -1.617398e-01 -1.699589e-01 -1.801930e-01 -1.890177e-01 -1.990641e-01 -2.082705e-01 -2.179609e-01 -2.273025e-01 -2.364507e-01 -2.456549e-01 -2.540476e-01 -2.628123e-01 
-2.915120e-01 -3.004993e-01 -3.080861e-01 -3.159247e-01 -3.218511e-01 -3.280990e-01 -3.319539e-01 -3.361255e-01 -3.374481e-01 -3.390201e-01 -3.373102e-01 -3.357348e-01 -3.304707e-01 -3.251984e-01 -3.158655e-01 -3.063769e-01 -2.925067e-01 -2.783557e-01 -2.595757e-01 -2.404421e-01 -2.165341e-01 -1.922828e-01 -1.632455e-01 -1.339863e-01 -1.000941e-01 -6.623353e-02 -2.808249e-02 9.641650e-03 5.111266e-02 9.162436e-02 1.351463e-01 1.770598e-01 2.210853e-01 2.627717e-01 3.055649e-01 3.452517e-01 3.850072e-01 4.209013e-01 4.558759e-01 4.862937e-01 5.149355e-01 5.384244e-01 5.594823e-01 5.749218e-01 5.875267e-01 5.942016e-01 5.979175e-01 5.955618e-01 5.904067e-01 5.792191e-01 5.656603e-01 5.462925e-01 5.252179e-01 4.987345e-01 4.714010e-01 4.392127e-01 4.071691e-01 3.709390e-01 3.359253e-01 2.974534e-01 2.612823e-01 2.223779e-01 1.868061e-01 1.491615e-01 1.157677e-01 8.084733e-02 5.093008e-02 1.988937e-02 -5.603273e-03 -3.196380e-02 -5.246685e-02 -7.370973e-02 -8.903714e-02 -1.050641e-01 -1.153739e-01 -1.263781e-01 -1.321153e-01 -1.385191e-01 -1.403463e-01 -1.427340e-01 -1.414573e-01 -1.405102e-01 -1.370071e-01 -1.334462e-01 -1.286009e-01 -1.231405e-01 -1.177892e-01 -1.111028e-01 -1.059894e-01 -9.868859e-02 -9.443397e-02 -8.705619e-02 -8.413881e-02 -7.714412e-02 -7.589289e-02 -6.966459e-02 -7.026263e-02 -6.511030e-02 -6.760828e-02 -6.377084e-02 -6.810797e-02 -6.575633e-02 -7.178613e-02 -7.102565e-02 -7.854372e-02 -7.941732e-02 -8.818773e-02 -9.068050e-02 -1.004583e-01 -1.045038e-01 -1.150518e-01 -1.205398e-01 -1.316385e-01 -1.384230e-01 -1.498740e-01 -1.577804e-01 -1.694044e-01 -1.782349e-01 -1.898651e-01 -1.994018e-01 -2.108745e-01 -2.208795e-01 -2.320235e-01 -2.422367e-01 -2.528619e-01 -2.629968e-01 -2.728837e-01 -2.826224e-01 