# vtk DataFile Version 2.0
Comment goes here
ASCII

DATASET STRUCTURED_POINTS
FIELD FieldData 1
TIME 1 1 double
0.05000000
DIMENSIONS    128   128   1

ORIGIN    0.000   0.000   0.000
SPACING   0.039062 0.039062   1.000

POINT_DATA   16384
SCALARS uY double
LOOKUP_TABLE default

4.581666e-14 4.612195e-14 4.793304e-14 4.892429e-14 5.115846e-14 5.352749e-14 5.714599e-14 6.014455e-14 6.300256e-14 6.631148e-14 6.979401e-14 7.340423e-14 7.613075e-14 7.887444e-14 8.104602e-14 8.479973e-14 8.685045e-14 9.075658e-14 9.279003e-14 9.652516e-14 9.810678e-14 1.021923e-13 1.034372e-13 1.065781e-13 1.076487e-13 1.128742e-13 1.136068e-13 1.186559e-13 1.190230e-13 1.231603e-13 1.243351e-13 1.299220e-13 1.308022e-13 1.343382e-13 1.344549e-13 1.381296e-13 1.381545e-13 1.403886e-13 1.413073e-13 1.438978e-13 1.431298e-13 1.456891e-13 1.457581e-13 1.482992e-13 1.466935e-13 1.480165e-13 1.476295e-13 1.483127e-13 1.474560e-13 1.475780e-13 1.476002e-13 1.475699e-13 1.477234e-13 1.477760e-13 1.468741e-13 1.455393e-13 1.447221e-13 1.441577e-13 1.454484e-13 1.436328e-13 1.437190e-13 1.404312e-13 1.393182e-13 1.347297e-13 1.340184e-13 1.291673e-13 1.289735e-13 1.229720e-13 1.212592e-13 1.148171e-13 1.153752e-13 1.094745e-13 1.089409e-13 1.025674e-13 1.018257e-13 9.558483e-14 9.294971e-14 8.683296e-14 8.662127e-14 7.938449e-14 7.833243e-14 7.284806e-14 7.208966e-14 6.677985e-14 6.655759e-14 6.153064e-14 6.084831e-14 5.356021e-14 5.374365e-14 4.838675e-14 4.944709e-14 4.452541e-14 4.540564e-14 4.026332e-14 4.009524e-14 3.627669e-14 3.530834e-14 3.236412e-14 3.361215e-14 3.018649e-14 3.171145e-14 2.848313e-14 2.980713e-14 2.625441e-14 2.876718e-14 2.640865e-14 2.745611e-14 2.469158e-14 2.740583e-14 2.588280e-14 2.958790e-14 2.813113e-14 3.190636e-14 3.047970e-14 3.355925e-14 3.135225e-14 3.336004e-14 3.122608e-14 3.379363e-14 3.250720e-14 3.528502e-14 3.469355e-14 3.767442e-14 3.701800e-14 4.010254e-14 4.016523e-14 4.313351e-14 4.342865e-14 
-3.268672e-02 -3.171445e-02 -3.055872e-02 -2.955060e-02 -2.836535e-02 -2.731412e-02 -2.609271e-02 -2.498879e-02 -2.372309e-02 -2.255560e-02 -2.123690e-02 -1.999461e-02 -1.861445e-02 -1.728677e-02 -1.583776e-02 -1.441560e-02 -1.289216e-02 -1.136863e-02 -9.767621e-03 -8.138706e-03 -6.459887e-03 -4.724864e-03 -2.971260e-03 -1.132975e-03 6.889770e-04 2.624020e-03 4.504478e-03 6.526196e-03 8.452088e-03 1.054704e-02 1.250238e-02 1.465410e-02 1.662039e-02 1.880975e-02 2.076645e-02 2.297208e-02 2.489709e-02 2.709570e-02 2.896574e-02 3.113242e-02 3.292339e-02 3.503180e-02 3.671898e-02 3.874148e-02 4.029963e-02 4.220734e-02 4.361072e-02 4.537356e-02 4.659597e-02 4.818275e-02 4.919754e-02 5.057616e-02 5.135641e-02 5.249419e-02 5.301306e-02 5.387732e-02 5.410867e-02 5.466752e-02 5.458674e-02 5.481014e-02 5.439536e-02 5.425636e-02 5.348979e-02 5.296605e-02 5.183554e-02 5.091089e-02 4.941152e-02 4.807753e-02 4.621314e-02 4.447069e-02 4.225515e-02 4.011570e-02 3.757382e-02 3.506040e-02 3.222837e-02 2.937603e-02 2.630115e-02 2.315695e-02 1.989671e-02 1.651895e-02 1.313932e-02 9.596126e-03 6.169191e-03 2.536321e-03 -8.626883e-04 -4.504692e-03 -7.800782e-03 -1.137000e-02 -1.449193e-02 -1.790887e-02 -2.079253e-02 -2.398399e-02 -2.657534e-02 -2.947809e-02 -3.173546e-02 -3.429931e-02 -3.619480e-02 -3.838478e-02 -3.990474e-02 -4.170218e-02 -4.284675e-02 -4.424908e-02 -4.503090e-02 -4.605029e-02 -4.649252e-02 -4.715359e-02 -4.728744e-02 -4.762427e-02 -4.748636e-02 -4.753917e-02 -4.716887e-02 -4.698078e-02 -4.641773e-02 -4.603181e-02 -4.531384e-02 -4.477062e-02 -4.393207e-02 -4.326769e-02 -4.233823e-02 -4.158318e-02 -4.058712e-02 -3.976552e-02 -3.872149e-02 -3.785097e-02 -3.677197e-02 -3.586380e-02 -3.475757e-02 -3.381719e-02 
-6.530950e-02 -6.336379e-02 -6.105298e-02 -5.903717e-02 -5.666840e-02 -5.456788e-02 -5.212774e-02 -4.992324e-02 -4.739530e-02 -4.506494e-02 -4.243155e-02 -3.995279e-02 -3.719681e-02 -3.454837e-02 -3.165480e-02 -2.881834e-02 -2.577579e-02 -2.273746e-02 -1.953941e-02 -1.629102e-02 -1.293682e-02 -9.476796e-03 -5.972318e-03 -2.306175e-03 1.335834e-03 5.195280e-03 8.955224e-03 1.298804e-02 1.683981e-02 2.101939e-02 2.493100e-02 2.922470e-02 3.315911e-02 3.752902e-02 4.144507e-02 4.584877e-02 4.970209e-02 5.409338e-02 5.783727e-02 6.216665e-02 6.575272e-02 6.996783e-02 7.334643e-02 7.739225e-02 8.051271e-02 8.433167e-02 8.714233e-02 9.067439e-02 9.312267e-02 9.630546e-02 9.833791e-02 1.011071e-01 1.026698e-01 1.049599e-01 1.059991e-01 1.077443e-01 1.082077e-01 1.093437e-01 1.091822e-01 1.096483e-01 1.088183e-01 1.085599e-01 1.070258e-01 1.059973e-01 1.037352e-01 1.019033e-01 9.890360e-02 9.625057e-02 9.252104e-02 8.904778e-02 8.461637e-02 8.034510e-02 7.526154e-02 7.023779e-02 6.457443e-02 5.886811e-02 5.271941e-02 4.642470e-02 3.990537e-02 3.313924e-02 2.638090e-02 1.928024e-02 1.242667e-02 5.143887e-03 -1.654828e-03 -8.957576e-03 -1.555174e-02 -2.270947e-02 -2.895674e-02 -3.580928e-02 -4.158137e-02 -4.798127e-02 -5.316983e-02 -5.898972e-02 -6.351094e-02 -6.864973e-02 -7.244722e-02 -7.683458e-02 -7.988040e-02 -8.347882e-02 -8.577269e-02 -8.857711e-02 -9.014386e-02 -9.217900e-02 -9.306466e-02 -9.438027e-02 -9.464723e-02 -9.531209e-02 -9.503375e-02 -9.512902e-02 -9.438440e-02 -9.399702e-02 -9.286583e-02 -9.208257e-02 -9.064092e-02 -8.954342e-02 -8.786045e-02 -8.652144e-02 -8.465694e-02 -8.313772e-02 -8.114065e-02 -7.948978e-02 -7.739766e-02 -7.565051e-02 -7.348955e-02 -7.166875e-02 -6.945452e-02 -6.757096e-02 
-9.811729e-02 -9.520441e-02 -9.174148e-02 -8.872439e-02 -8.517526e-02 -8.203117e-02 -7.837505e-02 -7.507420e-02 -7.128583e-02 -6.779457e-02 -6.384692e-02 -6.013066e-02 -5.599755e-02 -5.202366e-02 -4.768220e-02 -4.342259e-02 -3.885542e-02 -3.428887e-02 -2.948606e-02 -2.460006e-02 -1.956056e-02 -1.435267e-02 -9.085405e-03 -3.564064e-03 1.911650e-03 7.726844e-03 1.338131e-02 1.945989e-02 2.525358e-02 3.155490e-02 3.743944e-02 4.391371e-02 4.983314e-02 5.642261e-02 6.231487e-02 6.895504e-02 7.475338e-02 8.137411e-02 8.700839e-02 9.353475e-02 9.893244e-02 1.052853e-01 1.103721e-01 1.164685e-01 1.211687e-01 1.269219e-01 1.311583e-01 1.364780e-01 1.401718e-01 1.449643e-01 1.480356e-01 1.522041e-01 1.545716e-01 1.580177e-01 1.596004e-01 1.622251e-01 1.629436e-01 1.646503e-01 1.644297e-01 1.651269e-01 1.639002e-01 1.635056e-01 1.612180e-01 1.596630e-01 1.562764e-01 1.535108e-01 1.490089e-01 1.450060e-01 1.393990e-01 1.341602e-01 1.274887e-01 1.210474e-01 1.133856e-01 1.058102e-01 9.726689e-02 8.866277e-02 7.938073e-02 6.988975e-02 6.004312e-02 4.984165e-02 3.963075e-02 2.892533e-02 1.856938e-02 7.590127e-03 -2.681823e-03 -1.368984e-02 -2.364930e-02 -3.443654e-02 -4.386641e-02 -5.419047e-02 -6.289548e-02 -7.253311e-02 -8.034888e-02 -8.910729e-02 -9.590737e-02 -1.036338e-01 -1.093340e-01 -1.159226e-01 -1.204824e-01 -1.258772e-01 -1.292984e-01 -1.334931e-01 -1.358155e-01 -1.388490e-01 -1.401445e-01 -1.420936e-01 -1.424585e-01 -1.434287e-01 -1.429757e-01 -1.430909e-01 -1.419404e-01 -1.413330e-01 -1.396061e-01 -1.384078e-01 -1.362195e-01 -1.345537e-01 -1.320083e-01 -1.299847e-01 -1.271720e-01 -1.248827e-01 -1.218759e-01 -1.193935e-01 -1.162483e-01 -1.136255e-01 -1.103808e-01 -1.076508e-01 -1.043291e-01 -1.015077e-01 
-1.307304e-01 -1.268470e-01 -1.222340e-01 -1.182169e-01 -1.134928e-01 -1.093110e-01 -1.044472e-01 -1.000601e-01 -9.502184e-02 -9.038368e-02 -8.513402e-02 -8.019784e-02 -7.470087e-02 -6.942235e-02 -6.364658e-02 -5.798756e-02 -5.190895e-02 -4.584049e-02 -3.944503e-02 -3.294989e-02 -2.623558e-02 -1.931004e-02 -1.228831e-02 -4.943253e-03 2.360399e-03 1.009919e-02 1.764523e-02 2.573744e-02 3.347302e-02 4.186479e-02 4.972513e-02 5.835041e-02 6.626047e-02 7.504269e-02 8.291921e-02 9.177284e-02 9.952627e-02 1.083583e-01 1.158946e-01 1.246057e-01 1.318276e-01 1.403128e-01 1.471208e-01 1.552700e-01 1.615626e-01 1.692606e-01 1.749345e-01 1.820610e-01 1.870109e-01 1.934409e-01 1.975596e-01 2.031637e-01 2.063426e-01 2.109886e-01 2.131191e-01 2.166738e-01 2.176496e-01 2.199825e-01 2.197029e-01 2.206899e-01 2.190650e-01 2.185938e-01 2.155497e-01 2.135261e-01 2.090114e-01 2.053654e-01 1.993580e-01 1.940511e-01 1.865641e-01 1.795954e-01 1.706828e-01 1.620948e-01 1.518553e-01 1.417379e-01 1.303168e-01 1.188099e-01 1.063979e-01 9.369139e-02 8.052130e-02 6.685197e-02 5.319169e-02 3.883776e-02 2.498073e-02 1.025281e-02 -3.494169e-03 -1.826483e-02 -3.159541e-02 -4.607115e-02 -5.869393e-02 -7.254658e-02 -8.419910e-02 -9.712633e-02 -1.075873e-01 -1.193281e-01 -1.284271e-01 -1.387750e-01 -1.463980e-01 -1.552101e-01 -1.613022e-01 -1.685040e-01 -1.730670e-01 -1.786510e-01 -1.817386e-01 -1.857590e-01 -1.874680e-01 -1.900304e-01 -1.904909e-01 -1.917394e-01 -1.911037e-01 -1.912072e-01 -1.896383e-01 -1.887767e-01 -1.864382e-01 -1.847900e-01 -1.818376e-01 -1.795698e-01 -1.761441e-01 -1.734047e-01 -1.696267e-01 -1.665397e-01 -1.625080e-01 -1.591709e-01 -1.549604e-01 -1.514435e-01 -1.471060e-01 -1.434535e-01 -1.390190e-01 -1.352513e-01 
-1.637117e-01 -1.588710e-01 -1.531145e-01 -1.481113e-01 -1.422191e-01 -1.370119e-01 -1.309463e-01 -1.254822e-01 -1.191982e-01 -1.134178e-01 -1.068673e-01 -1.007098e-01 -9.384658e-02 -8.725458e-02 -8.003802e-02 -7.296224e-02 -6.536126e-02 -5.776426e-02 -4.976064e-02 -4.162004e-02 -3.321094e-02 -2.452178e-02 -1.572149e-02 -6.497558e-03 2.661668e-03 1.238743e-02 2.185550e-02 3.203153e-02 4.174149e-02 5.229892e-02 6.216871e-02 7.302323e-02 8.295800e-02 9.401203e-02 1.039067e-01 1.150516e-01 1.247935e-01 1.359113e-01 1.453825e-01 1.563476e-01 1.654265e-01 1.761068e-01 1.846691e-01 1.949261e-01 2.028455e-01 2.125346e-01 2.196826e-01 2.286530e-01 2.348984e-01 2.429932e-01 2.482019e-01 2.552590e-01 2.592948e-01 2.651480e-01 2.678736e-01 2.723556e-01 2.736359e-01 2.765819e-01 2.762884e-01 2.775417e-01 2.755578e-01 2.749764e-01 2.712055e-01 2.686696e-01 2.630428e-01 2.584633e-01 2.509484e-01 2.442756e-01 2.348851e-01 2.261166e-01 2.149151e-01 2.041033e-01 1.912129e-01 1.784703e-01 1.640729e-01 1.495750e-01 1.339119e-01 1.178976e-01 1.012645e-01 8.403250e-02 6.677137e-02 4.867328e-02 3.115954e-02 1.258855e-02 -4.784609e-03 -2.340845e-02 -4.024822e-02 -5.849609e-02 -7.442911e-02 -9.188369e-02 -1.065744e-01 -1.228511e-01 -1.360178e-01 -1.507846e-01 -1.622117e-01 -1.752066e-01 -1.847522e-01 -1.957951e-01 -2.033932e-01 -2.123916e-01 -2.180496e-01 -2.249977e-01 -2.287889e-01 -2.337595e-01 -2.358121e-01 -2.389436e-01 -2.394272e-01 -2.409067e-01 -2.400179e-01 -2.400632e-01 -2.380114e-01 -2.368530e-01 -2.338470e-01 -2.317128e-01 -2.279500e-01 -2.250519e-01 -2.207099e-01 -2.172349e-01 -2.124657e-01 -2.085695e-01 -2.034960e-01 -1.993002e-01 -1.940152e-01 -1.896068e-01 -1.841736e-01 -1.796063e-01 -1.740608e-01 -1.693581e-01 
-1.963591e-01 -1.905557e-01 -1.836595e-01 -1.776725e-01 -1.706216e-01 -1.643991e-01 -1.571461e-01 -1.506223e-01 -1.431107e-01 -1.362118e-01 -1.283817e-01 -1.210325e-01 -1.128260e-01 -1.049556e-01 -9.632163e-02 -8.786907e-02 -7.876840e-02 -6.968712e-02 -6.009620e-02 -5.035809e-02 -4.027221e-02 -2.987035e-02 -1.930581e-02 -8.256113e-03 2.748790e-03 1.440717e-02 2.579222e-02 3.799762e-02 4.968194e-02 6.235186e-02 7.423608e-02 8.726948e-02 9.923863e-02 1.125186e-01 1.244454e-01 1.378419e-01 1.495897e-01 1.629618e-01 1.743879e-01 1.875857e-01 1.985431e-01 2.114086e-01 2.217475e-01 2.341153e-01 2.436835e-01 2.553808e-01 2.640232e-01 2.748693e-01 2.824281e-01 2.922345e-01 2.985480e-01 3.071192e-01 3.120228e-01 3.191577e-01 3.224856e-01 3.279807e-01 3.295690e-01 3.332230e-01 3.329150e-01 3.345353e-01 3.321890e-01 3.315997e-01 3.270965e-01 3.241478e-01 3.174024e-01 3.119812e-01 3.029526e-01 2.949929e-01 2.836943e-01 2.731878e-01 2.596953e-01 2.467005e-01 2.311601e-01 2.158091e-01 1.984396e-01 1.809422e-01 1.620344e-01 1.426789e-01 1.225905e-01 1.017394e-01 8.088411e-02 5.896590e-02 3.779896e-02 1.529425e-02 -5.707044e-03 -2.828364e-02 -4.864182e-02 -7.076407e-02 -9.002471e-02 -1.111800e-01 -1.289342e-01 -1.486498e-01 -1.645539e-01 -1.824222e-01 -1.962129e-01 -2.119125e-01 -2.234164e-01 -2.367278e-01 -2.458645e-01 -2.566766e-01 -2.634556e-01 -2.717649e-01 -2.762765e-01 -2.821764e-01 -2.845788e-01 -2.882435e-01 -2.887457e-01 -2.904087e-01 -2.892526e-01 -2.891844e-01 -2.866275e-01 -2.851131e-01 -2.814117e-01 -2.787315e-01 -2.741274e-01 -2.705414e-01 -2.652518e-01 -2.609880e-01 -2.551979e-01 -2.504457e-01 -2.443044e-01 -2.392106e-01 -2.328300e-01 -2.274990e-01 -2.209549e-01 -2.154504e-01 -2.087849e-01 -2.031335e-01 
-2.295541e-01 -2.228102e-01 -2.147857e-01 -2.078376e-01 -1.996399e-01 -1.924227e-01 -1.839927e-01 -1.764248e-01 -1.676931e-01 -1.596844e-01 -1.505775e-01 -1.420360e-01 -1.324833e-01 -1.233226e-01 -1.132620e-01 -1.034076e-01 -9.279093e-02 -8.218595e-02 -7.098430e-02 -5.959418e-02 -4.780112e-02 -3.561699e-02 -2.325137e-02 -1.029198e-02 2.600939e-03 1.628874e-02 2.963747e-02 4.397974e-02 5.768816e-02 7.258593e-02 8.653599e-02 1.018683e-01 1.159237e-01 1.315509e-01 1.455609e-01 1.613283e-01 1.751321e-01 1.908724e-01 2.043024e-01 2.198386e-01 2.327230e-01 2.478692e-01 2.600335e-01 2.745957e-01 2.858631e-01 2.996389e-01 3.098298e-01 3.226077e-01 3.315385e-01 3.430980e-01 3.505803e-01 3.606921e-01 3.665329e-01 3.749608e-01 3.789641e-01 3.854682e-01 3.874387e-01 3.917809e-01 3.915302e-01 3.934820e-01 3.908372e-01 3.901890e-01 3.850032e-01 3.815757e-01 3.737407e-01 3.673974e-01 3.568566e-01 3.475163e-01 3.342775e-01 3.219271e-01 3.060736e-01 2.907790e-01 2.724781e-01 2.543925e-01 2.339002e-01 2.132693e-01 1.909296e-01 1.680928e-01 1.443318e-01 1.197174e-01 9.503102e-02 6.914652e-02 4.408226e-02 1.749893e-02 -7.367842e-03 -3.403684e-02 -5.812999e-02 -8.425616e-02 -1.070278e-01 -1.319977e-01 -1.529560e-01 -1.762036e-01 -1.949370e-01 -2.159742e-01 -2.321706e-01 -2.506139e-01 -2.640711e-01 -2.796604e-01 -2.902898e-01 -3.028974e-01 -3.107194e-01 -3.203477e-01 -3.254798e-01 -3.322489e-01 -3.348890e-01 -3.390155e-01 -3.394212e-01 -3.411921e-01 -3.396584e-01 -3.394029e-01 -3.362410e-01 -3.343038e-01 -3.298212e-01 -3.265389e-01 -3.210239e-01 -3.167065e-01 -3.104160e-01 -3.053337e-01 -2.984851e-01 -2.928602e-01 -2.856274e-01 -2.796311e-01 -2.721430e-01 -2.658950e-01 -2.582375e-01 -2.518093e-01 -2.440285e-01 -2.374474e-01 
-2.622614e-01 -2.545697e-01 -2.454230e-01 -2.375180e-01 -2.281877e-01 -2.199906e-01 -2.104049e-01 -2.018179e-01 -1.918930e-01 -1.828085e-01 -1.724561e-01 -1.627647e-01 -1.518995e-01 -1.414985e-01 -1.300455e-01 -1.188460e-01 -1.067468e-01 -9.468092e-02 -8.189918e-02 -6.892512e-02 -5.545131e-02 -4.155733e-02 -2.741157e-02 -1.261820e-02 2.148268e-03 1.778779e-02 3.309286e-02 4.949388e-02 6.522645e-02 8.227548e-02 9.829875e-02 1.158571e-01 1.320129e-01 1.499207e-01 1.660344e-01 1.841147e-01 2.000000e-01 2.180621e-01 2.335253e-01 2.513676e-01 2.662107e-01 2.836218e-01 2.976441e-01 3.144036e-01 3.274023e-01 3.432796e-01 3.550487e-01 3.698028e-01 3.801318e-01 3.935104e-01 4.021830e-01 4.139224e-01 4.207164e-01 4.305439e-01 4.352326e-01 4.428695e-01 4.452263e-01 4.503943e-01 4.501994e-01 4.526292e-01 4.496796e-01 4.491222e-01 4.432445e-01 4.394843e-01 4.305489e-01 4.234186e-01 4.113554e-01 4.007515e-01 3.855647e-01 3.714622e-01 3.532440e-01 3.357103e-01 3.146503e-01 2.938555e-01 2.702471e-01 2.464706e-01 2.207101e-01 1.943425e-01 1.669224e-01 1.384606e-01 1.099557e-01 7.999194e-02 5.103836e-02 2.024156e-02 -8.491003e-03 -3.940039e-02 -6.724021e-02 -9.752207e-02 -1.238293e-01 -1.527602e-01 -1.769599e-01 -2.038716e-01 -2.254824e-01 -2.497992e-01 -2.684555e-01 -2.897263e-01 -3.051919e-01 -3.231131e-01 -3.352853e-01 -3.497113e-01 -3.586160e-01 -3.695567e-01 -3.753347e-01 -3.829397e-01 -3.858267e-01 -3.903597e-01 -3.906615e-01 -3.924685e-01 -3.905348e-01 -3.900096e-01 -3.862083e-01 -3.837606e-01 -3.784543e-01 -3.744820e-01 -3.680093e-01 -3.628766e-01 -3.555380e-01 -3.495605e-01 -3.416091e-01 -3.350446e-01 -3.266816e-01 -3.197269e-01 -3.111003e-01 -3.038916e-01 -2.950987e-01 -2.877153e-01 -2.788064e-01 -2.712767e-01 
-2.956904e-01 -2.870844e-01 -2.768340e-01 -2.680062e-01 -2.575620e-01 -2.484161e-01 -2.376911e-01 -2.281099e-01 -2.170037e-01 -2.068587e-01 -1.952661e-01 -1.844272e-01 -1.722471e-01 -1.605923e-01 -1.477355e-01 -1.351594e-01 -1.215562e-01 -1.079779e-01 -9.358454e-02 -7.895389e-02 -6.375795e-02 -4.806022e-02 -3.208388e-02 -1.534235e-02 1.355878e-03 1.907956e-02 3.640524e-02 5.501259e-02 7.283768e-02 9.219669e-02 1.103636e-01 1.303132e-01 1.486401e-01 1.689953e-01 1.872818e-01 2.078387e-01 2.258724e-01 2.464124e-01 2.639733e-01 2.842664e-01 3.011310e-01 3.209372e-01 3.368806e-01 3.559505e-01 3.707458e-01 3.888196e-01 4.022371e-01 4.190432e-01 4.308475e-01 4.461011e-01 4.560496e-01 4.694527e-01 4.772941e-01 4.885367e-01 4.940124e-01 5.027768e-01 5.056252e-01 5.115925e-01 5.115570e-01 5.144173e-01 5.112575e-01 5.107223e-01 5.042292e-01 5.000472e-01 4.900600e-01 4.820342e-01 4.684594e-01 4.564650e-01 4.392944e-01 4.232965e-01 4.026236e-01 3.826929e-01 3.587258e-01 3.350512e-01 3.081202e-01 2.810169e-01 2.515750e-01 2.214868e-01 1.901026e-01 1.575973e-01 1.249390e-01 9.069608e-02 5.750660e-02 2.229691e-02 -1.063898e-02 -4.598237e-02 -7.787640e-02 -1.124948e-01 -1.425966e-01 -1.756485e-01 -2.032856e-01 -2.339924e-01 -2.586052e-01 -2.862962e-01 -3.074644e-01 -3.316157e-01 -3.490737e-01 -3.693367e-01 -3.829777e-01 -3.991915e-01 -4.090603e-01 -4.212484e-01 -4.275239e-01 -4.358744e-01 -4.388448e-01 -4.436789e-01 -4.437118e-01 -4.454444e-01 -4.429549e-01 -4.420538e-01 -4.374740e-01 -4.344212e-01 -4.281737e-01 -4.234332e-01 -4.159091e-01 -4.099021e-01 -4.014455e-01 -3.945334e-01 -3.854315e-01 -3.779070e-01 -3.683855e-01 -3.604689e-01 -3.506917e-01 -3.425329e-01 -3.326050e-01 -3.242883e-01 -3.142612e-01 -3.058120e-01 
-3.284567e-01 -3.189282e-01 -3.075831e-01 -2.978390e-01 -2.863011e-01 -2.762269e-01 -2.643924e-01 -2.538502e-01 -2.416001e-01 -2.304395e-01 -2.176498e-01 -2.057193e-01 -1.922705e-01 -1.794276e-01 -1.652140e-01 -1.513357e-01 -1.362740e-01 -1.212655e-01 -1.053025e-01 -8.910432e-02 -7.222235e-02 -5.481586e-02 -3.703751e-02 -1.844740e-02 1.628921e-04 1.986810e-02 3.920446e-02 5.991445e-02 7.983229e-02 1.013990e-01 1.217198e-01 1.439628e-01 1.644803e-01 1.871927e-01 2.076801e-01 2.306347e-01 2.508516e-01 2.738054e-01 2.935041e-01 3.162023e-01 3.351320e-01 3.573095e-01 3.752184e-01 3.965998e-01 4.132353e-01 4.335337e-01 4.486401e-01 4.675546e-01 4.808701e-01 4.980843e-01 5.093380e-01 5.245188e-01 5.334291e-01 5.462281e-01 5.525037e-01 5.625609e-01 5.659053e-01 5.728568e-01 5.729771e-01 5.764659e-01 5.730857e-01 5.727762e-01 5.656528e-01 5.612489e-01 5.501929e-01 5.414577e-01 5.263550e-01 5.131321e-01 4.939649e-01 4.761994e-01 4.530653e-01 4.308228e-01 4.039501e-01 3.774319e-01 3.471886e-01 3.167422e-01 2.836368e-01 2.497595e-01 2.144337e-01 1.777681e-01 1.409787e-01 1.022992e-01 6.489013e-02 2.507980e-02 -1.205501e-02 -5.203824e-02 -8.799897e-02 -1.271646e-01 -1.610932e-01 -1.984684e-01 -2.295949e-01 -2.642786e-01 -2.919620e-01 -3.231783e-01 -3.469370e-01 -3.740822e-01 -3.936128e-01 -4.162887e-01 -4.314714e-01 -4.495006e-01 -4.603910e-01 -4.738127e-01 -4.806220e-01 -4.896678e-01 -4.927338e-01 -4.977890e-01 -4.975409e-01 -4.990974e-01 -4.960185e-01 -4.946262e-01 -4.892178e-01 -4.854388e-01 -4.781889e-01 -4.725602e-01 -4.639182e-01 -4.569233e-01 -4.472824e-01 -4.393331e-01 -4.290193e-01 -4.204457e-01 -4.097127e-01 -4.007608e-01 -3.897910e-01 -3.806252e-01 -3.695328e-01 -3.602423e-01 -3.490806e-01 -3.396880e-01 
-3.621120e-01 -3.517091e-01 -3.392977e-01 -3.286863e-01 -3.160826e-01 -3.051255e-01 -2.922058e-01 -2.807399e-01 -2.673641e-01 -2.552129e-01 -2.412357e-01 -2.282217e-01 -2.135033e-01 -1.994600e-01 -1.838766e-01 -1.686600e-01 -1.521137e-01 -1.356124e-01 -1.180397e-01 -1.001834e-01 -8.156232e-02 -6.232790e-02 -4.268222e-02 -2.209701e-02 -1.498895e-03 2.035901e-02 4.178985e-02 6.479416e-02 8.689378e-02 1.108749e-01 1.334409e-01 1.581927e-01 1.809916e-01 2.062787e-01 2.290548e-01 2.546198e-01 2.771037e-01 3.026734e-01 3.245892e-01 3.498789e-01 3.709495e-01 3.956651e-01 4.156146e-01 4.394521e-01 4.580054e-01 4.806489e-01 4.975282e-01 5.186473e-01 5.335679e-01 5.528137e-01 5.654795e-01 5.824837e-01 5.925837e-01 6.069591e-01 6.141679e-01 6.255118e-01 6.294940e-01 6.373969e-01 6.378159e-01 6.418734e-01 6.384069e-01 6.382365e-01 6.305959e-01 6.258570e-01 6.138105e-01 6.042276e-01 5.876264e-01 5.730134e-01 5.518169e-01 5.321012e-01 5.064004e-01 4.816449e-01 4.516814e-01 4.221025e-01 3.882801e-01 3.542601e-01 3.171481e-01 2.792398e-01 2.395653e-01 1.984883e-01 1.571163e-01 1.137429e-01 7.164438e-02 2.697402e-02 -1.481833e-02 -5.969592e-02 -1.001405e-01 -1.440937e-01 -1.821978e-01 -2.241107e-01 -2.589864e-01 -2.978230e-01 -3.287361e-01 -3.636042e-01 -3.900106e-01 -4.202182e-01 -4.417846e-01 -4.668814e-01 -4.834900e-01 -5.032859e-01 -5.150232e-01 -5.295821e-01 -5.367133e-01 -5.463235e-01 -5.492571e-01 -5.543834e-01 -5.536285e-01 -5.548548e-01 -5.509771e-01 -5.489481e-01 -5.425279e-01 -5.378953e-01 -5.294916e-01 -5.228717e-01 -5.129942e-01 -5.049360e-01 -4.940259e-01 -4.849914e-01 -4.734103e-01 -4.637656e-01 -4.517914e-01 -4.418047e-01 -4.296332e-01 -4.194795e-01 -4.072296e-01 -3.969987e-01 -3.847206e-01 -3.744276e-01 
-3.949016e-01 -3.836159e-01 -3.701514e-01 -3.586825e-01 -3.450409e-01 -3.332277e-01 -3.192631e-01 -3.069161e-01 -2.924648e-01 -2.793800e-01 -2.642724e-01 -2.502452e-01 -2.343183e-01 -2.191568e-01 -2.022658e-01 -1.858037e-01 -1.678329e-01 -1.499413e-01 -1.308143e-01 -1.114110e-01 -9.109820e-02 -7.015464e-02 -4.867914e-02 -2.622390e-02 -3.663741e-03 2.021729e-02 4.372975e-02 6.889664e-02 9.317855e-02 1.194433e-01 1.442681e-01 1.714025e-01 1.965089e-01 2.242532e-01 2.493551e-01 2.774267e-01 3.022237e-01 3.303239e-01 3.545096e-01 3.823287e-01 4.055973e-01 4.328164e-01 4.548652e-01 4.811556e-01 5.016840e-01 5.267042e-01 5.454098e-01 5.688013e-01 5.853740e-01 6.067571e-01 6.208730e-01 6.398438e-01 6.511611e-01 6.672917e-01 6.754498e-01 6.882917e-01 6.929157e-01 7.020082e-01 7.027190e-01 7.076028e-01 7.040337e-01 7.042691e-01 6.960880e-01 6.912781e-01 6.782147e-01 6.680316e-01 6.499065e-01 6.341202e-01 6.108742e-01 5.893806e-01 5.611022e-01 5.339495e-01 5.008965e-01 4.683071e-01 4.309207e-01 3.933064e-01 3.522154e-01 3.101848e-01 2.661976e-01 2.205525e-01 1.746357e-01 1.263562e-01 7.959892e-02 2.981550e-02 -1.662022e-02 -6.666916e-02 -1.116080e-01 -1.606314e-01 -2.029509e-01 -2.496719e-01 -2.883667e-01 -3.315980e-01 -3.658362e-01 -4.045554e-01 -4.337208e-01 -4.671379e-01 -4.908546e-01 -5.184614e-01 -5.366000e-01 -5.581925e-01 -5.708581e-01 -5.865286e-01 -5.940319e-01 -6.041324e-01 -6.069486e-01 -6.120333e-01 -6.107522e-01 -6.115083e-01 -6.067827e-01 -6.039609e-01 -5.964572e-01 -5.908099e-01 -5.811665e-01 -5.733977e-01 -5.621931e-01 -5.529242e-01 -5.406549e-01 -5.304036e-01 -5.174731e-01 -5.066445e-01 -4.933593e-01 -4.822458e-01 -4.688181e-01 -4.576060e-01 -4.441610e-01 -4.329407e-01 -4.195261e-01 -4.083045e-01 
-4.287388e-01 -4.166379e-01 -4.021618e-01 -3.899040e-01 -3.752646e-01 -3.626593e-01 -3.476850e-01 -3.345109e-01 -3.190110e-01 -3.050312e-01 -2.888092e-01 -2.737866e-01 -2.566535e-01 -2.403659e-01 -2.221538e-01 -2.044082e-01 -1.849822e-01 -1.656284e-01 -1.448984e-01 -1.238398e-01 -1.017694e-01 -7.897119e-02 -5.558390e-02 -3.107712e-02 -6.459220e-03 1.965903e-02 4.535923e-02 7.292990e-02 9.950679e-02 1.283161e-01 1.555149e-01 1.853041e-01 2.128313e-01 2.433074e-01 2.708432e-01 3.016893e-01 3.289001e-01 3.597840e-01 3.863326e-01 4.169131e-01 4.424662e-01 4.723950e-01 4.966266e-01 5.255474e-01 5.481367e-01 5.756808e-01 5.963068e-01 6.220875e-01 6.404205e-01 6.640270e-01 6.797204e-01 7.007134e-01 7.133968e-01 7.313075e-01 7.405843e-01 7.549176e-01 7.603687e-01 7.706121e-01 7.718067e-01 7.774449e-01 7.739591e-01 7.744949e-01 7.659370e-01 7.609176e-01 7.469597e-01 7.360065e-01 7.164187e-01 6.992603e-01 6.739463e-01 6.504503e-01 6.194799e-01 5.896833e-01 5.533196e-01 5.174539e-01 4.761713e-01 4.346809e-01 3.891727e-01 3.427234e-01 2.938947e-01 2.433723e-01 1.923172e-01 1.388119e-01 8.677316e-02 3.155053e-02 -2.013850e-02 -7.568361e-02 -1.256707e-01 -1.800755e-01 -2.270694e-01 -2.788800e-01 -3.217286e-01 -3.695874e-01 -4.073457e-01 -4.500822e-01 -4.820611e-01 -5.187744e-01 -5.445683e-01 -5.746877e-01 -5.941790e-01 -6.174916e-01 -6.308332e-01 -6.474737e-01 -6.550530e-01 -6.654572e-01 -6.678452e-01 -6.726791e-01 -6.705709e-01 -6.706460e-01 -6.647998e-01 -6.609905e-01 -6.521707e-01 -6.453421e-01 -6.342721e-01 -6.252238e-01 -6.125513e-01 -6.019796e-01 -5.882542e-01 -5.767314e-01 -5.623929e-01 -5.503597e-01 -5.357369e-01 -5.235050e-01 -5.088202e-01 -4.965816e-01 -4.819595e-01 -4.697993e-01 -4.552792e-01 -4.431904e-01 
-4.614718e-01 -4.485480e-01 -4.330795e-01 -4.200473e-01 -4.044475e-01 -3.910850e-01 -3.751539e-01 -3.612063e-01 -3.447231e-01 -3.299189e-01 -3.126565e-01 -2.967246e-01 -2.784645e-01 -2.611506e-01 -2.416977e-01 -2.227810e-01 -2.019775e-01 -1.812852e-01 -1.590236e-01 -1.364439e-01 -1.126771e-01 -8.816810e-02 -6.291723e-02 -3.651118e-02 -9.868558e-03 1.832807e-02 4.619970e-02 7.601135e-02 1.048842e-01 1.360750e-01 1.656657e-01 1.979509e-01 2.279327e-01 2.609915e-01 2.910091e-01 3.244963e-01 3.541803e-01 3.877366e-01 4.167160e-01 4.499748e-01 4.778859e-01 5.104752e-01 5.369652e-01 5.685060e-01 5.932302e-01 6.233308e-01 6.459460e-01 6.741943e-01 6.943480e-01 7.203039e-01 7.376235e-01 7.608124e-01 7.748966e-01 7.948075e-01 8.052221e-01 8.213096e-01 8.275910e-01 8.392846e-01 8.409511e-01 8.476704e-01 8.442428e-01 8.454209e-01 8.364513e-01 8.315640e-01 8.166715e-01 8.052716e-01 7.841820e-01 7.659372e-01 7.385231e-01 7.132538e-01 6.795728e-01 6.472880e-01 6.076133e-01 5.685405e-01 5.233828e-01 4.779913e-01 4.281073e-01 3.771201e-01 3.235064e-01 2.678997e-01 2.117683e-01 1.527563e-01 9.549042e-02 3.449320e-02 -2.241703e-02 -8.382481e-02 -1.388633e-01 -1.990224e-01 -2.507377e-01 -3.079927e-01 -3.550880e-01 -4.078894e-01 -4.492996e-01 -4.963109e-01 -5.312601e-01 -5.714561e-01 -5.994898e-01 -6.322300e-01 -6.532212e-01 -6.782831e-01 -6.924144e-01 -7.099803e-01 -7.177033e-01 -7.283036e-01 -7.302804e-01 -7.347068e-01 -7.317400e-01 -7.309445e-01 -7.239055e-01 -7.189018e-01 -7.086642e-01 -7.004440e-01 -6.878287e-01 -6.772982e-01 -6.630339e-01 -6.509732e-01 -6.356719e-01 -6.227135e-01 -6.068596e-01 -5.934835e-01 -5.774333e-01 -5.639719e-01 -5.479611e-01 -5.346123e-01 -5.187669e-01 -5.056098e-01 -4.899609e-01 -4.769733e-01 
-4.954020e-01 -4.817477e-01 -4.653458e-01 -4.516322e-01 -4.351285e-01 -4.210964e-01 -4.042581e-01 -3.896128e-01 -3.721852e-01 -3.566142e-01 -3.383361e-01 -3.215275e-01 -3.021477e-01 -2.838089e-01 -2.631026e-01 -2.429785e-01 -2.207629e-01 -1.986533e-01 -1.748024e-01 -1.505765e-01 -1.250332e-01 -9.864028e-02 -7.142485e-02 -4.289964e-02 -1.411345e-02 1.642403e-02 4.659945e-02 7.895007e-02 1.102594e-01 1.441556e-01 1.762810e-01 2.114006e-01 2.439763e-01 2.799583e-01 3.125883e-01 3.490475e-01 3.813230e-01 4.178625e-01 4.493778e-01 4.855973e-01 5.159600e-01 5.514584e-01 5.802937e-01 6.146664e-01 6.416136e-01 6.744449e-01 6.991475e-01 7.300007e-01 7.520928e-01 7.804991e-01 7.995902e-01 8.250409e-01 8.407034e-01 8.626449e-01 8.744076e-01 8.922434e-01 8.995928e-01 9.126926e-01 9.150852e-01 9.228021e-01 9.196869e-01 9.213829e-01 9.122342e-01 9.073140e-01 8.916727e-01 8.796222e-01 8.571427e-01 8.375723e-01 8.080699e-01 7.807574e-01 7.442538e-01 7.091849e-01 6.659463e-01 6.233493e-01 5.739138e-01 5.242860e-01 4.694775e-01 4.135999e-01 3.545245e-01 2.934640e-01 2.314851e-01 1.665800e-01 1.032696e-01 3.609708e-02 -2.683891e-02 -9.451674e-02 -1.553361e-01 -2.216483e-01 -2.786834e-01 -3.417500e-01 -3.935172e-01 -4.515683e-01 -4.968620e-01 -5.483668e-01 -5.863256e-01 -6.301137e-01 -6.602547e-01 -6.956077e-01 -7.178304e-01 -7.445236e-01 -7.590835e-01 -7.773681e-01 -7.848254e-01 -7.953569e-01 -7.965045e-01 -8.002334e-01 -7.960139e-01 -7.940628e-01 -7.854834e-01 -7.790288e-01 -7.670854e-01 -7.572610e-01 -7.428767e-01 -7.307033e-01 -7.146862e-01 -7.010287e-01 -6.840475e-01 -6.695956e-01 -6.521707e-01 -6.374373e-01 -6.199434e-01 -6.052744e-01 -5.879511e-01 -5.735426e-01 -5.565089e-01 -5.424264e-01 -5.256978e-01 -5.118967e-01 
-5.279448e-01 -5.135551e-01 -4.962471e-01 -4.818733e-01 -4.645153e-01 -4.498584e-01 -4.321817e-01 -4.169049e-01 -3.986169e-01 -3.823646e-01 -3.631658e-01 -3.455835e-01 -3.251853e-01 -3.059402e-01 -2.840830e-01 -2.628845e-01 -2.393558e-01 -2.159749e-01 -1.906254e-01 -1.649116e-01 -1.376697e-01 -1.095630e-01 -8.044424e-02 -4.998112e-02 -1.909307e-02 1.359456e-02 4.605344e-02 8.074555e-02 1.144932e-01 1.508946e-01 1.855782e-01 2.233352e-01 2.585483e-01 2.972665e-01 3.325701e-01 3.718319e-01 4.067748e-01 4.461539e-01 4.802917e-01 5.193619e-01 5.522697e-01 5.906082e-01 6.218849e-01 6.590678e-01 6.883321e-01 7.239251e-01 7.508028e-01 7.843481e-01 8.084554e-01 8.394584e-01 8.603827e-01 8.883010e-01 9.055853e-01 9.298221e-01 9.429556e-01 9.628599e-01 9.712789e-01 9.861544e-01 9.892541e-01 9.983769e-01 9.955367e-01 9.981832e-01 9.888040e-01 9.842879e-01 9.678387e-01 9.555558e-01 9.316272e-01 9.111047e-01 8.794639e-01 8.504110e-01 8.110533e-01 7.734089e-01 7.266017e-01 6.805761e-01 6.268907e-01 5.729981e-01 5.133257e-01 4.524036e-01 3.879534e-01 3.211681e-01 2.534413e-01 1.822737e-01 1.130117e-01 3.922267e-02 -2.967581e-02 -1.041046e-01 -1.706923e-01 -2.436448e-01 -3.060521e-01 -3.753917e-01 -4.319528e-01 -4.956605e-01 -5.450203e-01 -6.013473e-01 -6.425375e-01 -6.901508e-01 -7.226308e-01 -7.607247e-01 -7.843878e-01 -8.127349e-01 -8.278819e-01 -8.468110e-01 -8.540927e-01 -8.643998e-01 -8.647349e-01 -8.675502e-01 -8.620263e-01 -8.586648e-01 -8.484387e-01 -8.402612e-01 -8.264682e-01 -8.147687e-01 -7.984522e-01 -7.843800e-01 -7.664435e-01 -7.509583e-01 -7.321401e-01 -7.159949e-01 -6.968607e-01 -6.806045e-01 -6.615536e-01 -6.455466e-01 -6.268261e-01 -6.112615e-01 -5.929845e-01 -5.779128e-01 -5.600786e-01 -5.454309e-01 