# vtk DataFile Version 2.0
Comment goes here
ASCII

DATASET STRUCTURED_POINTS
FIELD FieldData 1
TIME 1 1 double
0.04000000
DIMENSIONS    128   128   1

ORIGIN    0.000   0.000   0.000
SPACING   0.039062 0.039062   1.000

POINT_DATA   16384
SCALARS uY double
LOOKUP_TABLE default

3.148655e-14 3.281432e-14 3.117582e-14 3.277119e-14 3.277696e-14 3.555581e-14 3.652037e-14 3.936255e-14 4.079652e-14 4.411386e-14 4.526468e-14 4.870961e-14 4.883269e-14 5.099101e-14 5.222740e-14 5.512309e-14 5.644829e-14 5.984839e-14 6.059043e-14 6.274710e-14 6.256556e-14 6.614379e-14 6.486094e-14 6.702226e-14 6.711204e-14 7.138061e-14 7.324390e-14 7.623081e-14 7.600607e-14 7.914803e-14 8.000071e-14 8.369237e-14 8.373293e-14 8.736260e-14 8.762189e-14 9.137592e-14 8.929197e-14 9.319243e-14 9.165898e-14 9.646919e-14 9.342425e-14 9.575208e-14 9.411174e-14 9.737882e-14 9.576505e-14 9.951120e-14 9.642406e-14 9.825910e-14 9.587684e-14 9.795021e-14 9.486967e-14 9.692361e-14 9.465021e-14 9.773630e-14 9.632291e-14 9.621455e-14 9.408456e-14 9.581460e-14 9.482877e-14 9.592045e-14 9.329335e-14 9.286726e-14 8.884571e-14 8.805830e-14 8.473702e-14 8.450454e-14 8.062060e-14 8.137096e-14 7.501166e-14 7.287657e-14 7.280585e-14 7.038175e-14 6.787631e-14 6.736453e-14 6.421473e-14 6.000504e-14 5.731599e-14 5.602878e-14 5.338117e-14 5.173979e-14 4.984516e-14 5.099950e-14 4.973015e-14 4.742223e-14 4.392119e-14 4.338802e-14 4.105372e-14 3.969509e-14 3.834038e-14 4.036449e-14 3.704412e-14 3.724485e-14 3.649441e-14 3.771752e-14 3.465104e-14 3.531199e-14 3.278857e-14 3.411189e-14 3.128359e-14 3.386438e-14 3.166743e-14 3.403714e-14 3.042244e-14 3.190623e-14 2.878060e-14 3.047753e-14 2.721653e-14 2.852776e-14 2.637104e-14 2.903852e-14 2.743400e-14 3.065184e-14 2.941324e-14 3.217173e-14 3.028625e-14 3.265782e-14 2.944561e-14 3.047740e-14 2.791209e-14 2.970942e-14 2.802340e-14 2.991022e-14 2.819517e-14 3.013226e-14 2.909334e-14 3.154980e-14 3.075788e-14 3.258586e-14 
-3.333198e-02 -3.189200e-02 -3.038891e-02 -2.887473e-02 -2.729425e-02 -2.569387e-02 -2.402457e-02 -2.232624e-02 -2.055717e-02 -1.875061e-02 -1.687259e-02 -1.495020e-02 -1.295697e-02 -1.091498e-02 -8.804237e-03 -6.643557e-03 -4.417776e-03 -2.144665e-03 1.883764e-04 2.561977e-03 4.989021e-03 7.445518e-03 9.948005e-03 1.246454e-02 1.501916e-02 1.756833e-02 2.014784e-02 2.269870e-02 2.527302e-02 2.779223e-02 3.032957e-02 3.278257e-02 3.525059e-02 3.760279e-02 3.996951e-02 4.218718e-02 4.442171e-02 4.647272e-02 4.854562e-02 5.039982e-02 5.228319e-02 5.391250e-02 5.557978e-02 5.695813e-02 5.838374e-02 5.948684e-02 6.064578e-02 6.145084e-02 6.231844e-02 6.280409e-02 6.335593e-02 6.350224e-02 6.371445e-02 6.350332e-02 6.335323e-02 6.276909e-02 6.223630e-02 6.126708e-02 6.033482e-02 5.897325e-02 5.763002e-02 5.587500e-02 5.411629e-02 5.197434e-02 4.980431e-02 4.729086e-02 4.472375e-02 4.186413e-02 3.892536e-02 3.575537e-02 3.248206e-02 2.904796e-02 2.548888e-02 2.184677e-02 1.806156e-02 1.427610e-02 1.033386e-02 6.476347e-03 2.453506e-03 -1.400587e-03 -5.423025e-03 -9.196959e-03 -1.313659e-02 -1.675554e-02 -2.053208e-02 -2.392638e-02 -2.746525e-02 -3.057344e-02 -3.380915e-02 -3.658060e-02 -3.945967e-02 -4.185661e-02 -4.433966e-02 -4.633834e-02 -4.840136e-02 -4.999234e-02 -5.162681e-02 -5.281431e-02 -5.402632e-02 -5.482677e-02 -5.563530e-02 -5.607526e-02 -5.650972e-02 -5.662334e-02 -5.672073e-02 -5.654704e-02 -5.634899e-02 -5.592920e-02 -5.547909e-02 -5.485411e-02 -5.419454e-02 -5.340285e-02 -5.257348e-02 -5.164947e-02 -5.068536e-02 -4.965814e-02 -4.858865e-02 -4.748125e-02 -4.632940e-02 -4.515851e-02 -4.394075e-02 -4.271676e-02 -4.144314e-02 -4.017052e-02 -3.884518e-02 -3.752314e-02 -3.614499e-02 -3.476830e-02 
-6.677486e-02 -6.389182e-02 -6.089328e-02 -5.786073e-02 -5.470707e-02 -5.150072e-02 -4.816865e-02 -4.476466e-02 -4.123188e-02 -3.760945e-02 -3.385715e-02 -3.000096e-02 -2.601622e-02 -2.191863e-02 -1.769653e-02 -1.335943e-02 -8.904662e-03 -4.340769e-03 3.312481e-04 5.097738e-03 9.960492e-03 1.489396e-02 1.991020e-02 2.496439e-02 3.008724e-02 3.520677e-02 4.038138e-02 4.550373e-02 5.066950e-02 5.572740e-02 6.082027e-02 6.574411e-02 7.069889e-02 7.541904e-02 8.017134e-02 8.462005e-02 8.910770e-02 9.322051e-02 9.738431e-02 1.011008e-01 1.048847e-01 1.081488e-01 1.114994e-01 1.142589e-01 1.171250e-01 1.193314e-01 1.216627e-01 1.232706e-01 1.250175e-01 1.259841e-01 1.270976e-01 1.273829e-01 1.278148e-01 1.273825e-01 1.270873e-01 1.259060e-01 1.248423e-01 1.228878e-01 1.210217e-01 1.182791e-01 1.155872e-01 1.120543e-01 1.085273e-01 1.042169e-01 9.986295e-02 9.480613e-02 8.965383e-02 8.390158e-02 7.800201e-02 7.162654e-02 6.505449e-02 5.814920e-02 5.100302e-02 4.368123e-02 3.608127e-02 2.847363e-02 2.055932e-02 1.280985e-02 4.735348e-03 -3.003586e-03 -1.107494e-02 -1.864862e-02 -2.655081e-02 -3.380864e-02 -4.138013e-02 -4.818215e-02 -5.527313e-02 -6.149626e-02 -6.797547e-02 -7.351875e-02 -7.927930e-02 -8.406783e-02 -8.903146e-02 -9.301871e-02 -9.713814e-02 -1.003063e-01 -1.035655e-01 -1.059243e-01 -1.083364e-01 -1.099199e-01 -1.115240e-01 -1.123863e-01 -1.132423e-01 -1.134526e-01 -1.136351e-01 -1.132722e-01 -1.128653e-01 -1.120119e-01 -1.111028e-01 -1.098410e-01 -1.085152e-01 -1.069220e-01 -1.052589e-01 -1.034031e-01 -1.014727e-01 -9.941226e-02 -9.727330e-02 -9.505399e-02 -9.275227e-02 -9.040715e-02 -8.797533e-02 -8.552482e-02 -8.298273e-02 -8.043542e-02 -7.779101e-02 -7.514490e-02 -7.239570e-02 -6.963996e-02 
-1.001260e-01 -9.581695e-02 -9.131834e-02 -8.678774e-02 -8.205774e-02 -7.726837e-02 -7.227140e-02 -6.718669e-02 -6.188869e-02 -5.647658e-02 -5.084878e-02 -4.508543e-02 -3.910803e-02 -3.298116e-02 -2.664645e-02 -2.015815e-02 -1.347303e-02 -6.641768e-03 3.706161e-04 7.509000e-03 1.480869e-02 2.220103e-02 2.973182e-02 3.730881e-02 4.499990e-02 5.267836e-02 6.044699e-02 6.813291e-02 7.588767e-02 8.347980e-02 9.112423e-02 9.851782e-02 1.059539e-01 1.130442e-01 1.201753e-01 1.268604e-01 1.335935e-01 1.397767e-01 1.460233e-01 1.516140e-01 1.572907e-01 1.622047e-01 1.672321e-01 1.713915e-01 1.756933e-01 1.790254e-01 1.825269e-01 1.849635e-01 1.875907e-01 1.890676e-01 1.907470e-01 1.912040e-01 1.918632e-01 1.912454e-01 1.908155e-01 1.890752e-01 1.874935e-01 1.845931e-01 1.818078e-01 1.777242e-01 1.736990e-01 1.684274e-01 1.631471e-01 1.567058e-01 1.501815e-01 1.426158e-01 1.348890e-01 1.262744e-01 1.174210e-01 1.078647e-01 9.799606e-02 8.763766e-02 7.690077e-02 6.590978e-02 5.448509e-02 4.305738e-02 3.115429e-02 1.950626e-02 7.356737e-03 -4.282295e-03 -1.643200e-02 -2.782864e-02 -3.972782e-02 -5.065437e-02 -6.205857e-02 -7.230295e-02 -8.298506e-02 -9.236024e-02 -1.021209e-01 -1.104730e-01 -1.191496e-01 -1.263642e-01 -1.338374e-01 -1.398429e-01 -1.460405e-01 -1.508092e-01 -1.557065e-01 -1.592526e-01 -1.628696e-01 -1.652444e-01 -1.676406e-01 -1.689263e-01 -1.701927e-01 -1.704945e-01 -1.707451e-01 -1.701828e-01 -1.695452e-01 -1.682449e-01 -1.668520e-01 -1.649386e-01 -1.629202e-01 -1.605107e-01 -1.579875e-01 -1.551864e-01 -1.522647e-01 -1.491600e-01 -1.459285e-01 -1.425896e-01 -1.391176e-01 -1.355946e-01 -1.319312e-01 -1.282548e-01 -1.244298e-01 -1.206127e-01 -1.166378e-01 -1.126769e-01 -1.085478e-01 -1.044263e-01 
-1.338104e-01 -1.280666e-01 -1.220912e-01 -1.160503e-01 -1.097663e-01 -1.033774e-01 -9.673563e-02 -8.994844e-02 -8.290171e-02 -7.567217e-02 -6.818050e-02 -6.047574e-02 -5.251122e-02 -4.431416e-02 -3.586525e-02 -2.717835e-02 -1.825341e-02 -9.101434e-03 2.691105e-04 9.837692e-03 1.960046e-02 2.951360e-02 3.959301e-02 4.975675e-02 6.005730e-02 7.035883e-02 8.076872e-02 9.108067e-02 1.014763e-01 1.116617e-01 1.219127e-01 1.318299e-01 1.418040e-01 1.513120e-01 1.608789e-01 1.698408e-01 1.788753e-01 1.871613e-01 1.955451e-01 2.030342e-01 2.106554e-01 2.172356e-01 2.239883e-01 2.295560e-01 2.353382e-01 2.397967e-01 2.445088e-01 2.477674e-01 2.513103e-01 2.532834e-01 2.555583e-01 2.561652e-01 2.570748e-01 2.562416e-01 2.556922e-01 2.533541e-01 2.512605e-01 2.473662e-01 2.436573e-01 2.381745e-01 2.327999e-01 2.257210e-01 2.186588e-01 2.100071e-01 2.012706e-01 1.911060e-01 1.807502e-01 1.691735e-01 1.572996e-01 1.444552e-01 1.312128e-01 1.172889e-01 1.028762e-01 8.810200e-02 7.276272e-02 5.740339e-02 4.142065e-02 2.576936e-02 9.457045e-03 -6.175562e-03 -2.248424e-02 -3.778224e-02 -5.374814e-02 -6.840374e-02 -8.369653e-02 -9.742368e-02 -1.117369e-01 -1.242842e-01 -1.373495e-01 -1.485110e-01 -1.601104e-01 -1.697340e-01 -1.797086e-01 -1.877009e-01 -1.959558e-01 -2.022826e-01 -2.087876e-01 -2.134712e-01 -2.182565e-01 -2.213693e-01 -2.245177e-01 -2.261732e-01 -2.278102e-01 -2.281521e-01 -2.284333e-01 -2.276245e-01 -2.267235e-01 -2.249346e-01 -2.230310e-01 -2.204303e-01 -2.176993e-01 -2.144442e-01 -2.110478e-01 -2.072782e-01 -2.033588e-01 -1.991921e-01 -1.948683e-01 -1.903966e-01 -1.857605e-01 -1.810498e-01 -1.761663e-01 -1.712567e-01 -1.661646e-01 -1.610719e-01 -1.557856e-01 -1.505042e-01 -1.450169e-01 -1.395230e-01 
-1.673058e-01 -1.601616e-01 -1.527007e-01 -1.451909e-01 -1.373469e-01 -1.294051e-01 -1.211146e-01 -1.126755e-01 -1.038774e-01 -9.488354e-02 -8.552583e-02 -7.593375e-02 -6.597993e-02 -5.576607e-02 -4.520052e-02 -3.436615e-02 -2.319857e-02 -1.177332e-02 -4.163837e-05 1.191467e-02 2.414324e-02 3.654066e-02 4.917059e-02 6.189116e-02 7.480153e-02 8.770322e-02 1.007525e-01 1.136746e-01 1.267064e-01 1.394761e-01 1.523258e-01 1.647646e-01 1.772655e-01 1.891957e-01 2.011844e-01 2.124338e-01 2.237538e-01 2.341599e-01 2.446639e-01 2.540751e-01 2.636246e-01 2.719013e-01 2.803653e-01 2.873785e-01 2.946312e-01 3.002605e-01 3.061785e-01 3.103110e-01 3.147712e-01 3.172995e-01 3.201785e-01 3.210013e-01 3.221764e-01 3.211998e-01 3.205524e-01 3.176933e-01 3.151145e-01 3.103063e-01 3.057040e-01 2.989030e-01 2.922109e-01 2.834045e-01 2.745915e-01 2.638056e-01 2.528852e-01 2.401919e-01 2.272298e-01 2.127528e-01 1.978733e-01 1.817914e-01 1.651804e-01 1.477281e-01 1.296331e-01 1.110973e-01 9.182382e-02 7.253746e-02 5.244161e-02 3.277368e-02 1.225129e-02 -7.406118e-03 -2.793379e-02 -4.718090e-02 -6.728404e-02 -8.573032e-02 -1.049893e-01 -1.222709e-01 -1.402956e-01 -1.560917e-01 -1.725400e-01 -1.865874e-01 -2.011807e-01 -2.132845e-01 -2.258201e-01 -2.358602e-01 -2.462170e-01 -2.541495e-01 -2.622895e-01 -2.681428e-01 -2.741055e-01 -2.779725e-01 -2.818652e-01 -2.838916e-01 -2.858758e-01 -2.862461e-01 -2.865219e-01 -2.854450e-01 -2.842352e-01 -2.819295e-01 -2.794639e-01 -2.761448e-01 -2.726470e-01 -2.685153e-01 -2.641919e-01 -2.594257e-01 -2.544576e-01 -2.492059e-01 -2.437432e-01 -2.381228e-01 -2.322814e-01 -2.263753e-01 -2.202368e-01 -2.140950e-01 -2.077070e-01 -2.013487e-01 -1.947283e-01 -1.881452e-01 -1.812824e-01 -1.744432e-01 
-2.013588e-01 -1.928009e-01 -1.838946e-01 -1.748966e-01 -1.655314e-01 -1.560101e-01 -1.461058e-01 -1.359794e-01 -1.254588e-01 -1.146550e-01 -1.034519e-01 -9.191568e-02 -7.998292e-02 -6.768392e-02 -5.499991e-02 -4.193845e-02 -2.851290e-02 -1.472441e-02 -6.019636e-04 1.384072e-02 2.857909e-02 4.356583e-02 5.880394e-02 7.418995e-02 8.978010e-02 1.053909e-01 1.211598e-01 1.367982e-01 1.525542e-01 1.680085e-01 1.835501e-01 1.986019e-01 2.137256e-01 2.281583e-01 2.426650e-01 2.562698e-01 2.699699e-01 2.825502e-01 2.952658e-01 3.066396e-01 3.182042e-01 3.282043e-01 3.384610e-01 3.469334e-01 3.557317e-01 3.625330e-01 3.697249e-01 3.747200e-01 3.801576e-01 3.832177e-01 3.867515e-01 3.877541e-01 3.892346e-01 3.880652e-01 3.873467e-01 3.839030e-01 3.808505e-01 3.750490e-01 3.695472e-01 3.613319e-01 3.532964e-01 3.426482e-01 3.320373e-01 3.189843e-01 3.058103e-01 2.904369e-01 2.747766e-01 2.572311e-01 2.392331e-01 2.197317e-01 1.996209e-01 1.784489e-01 1.565262e-01 1.340343e-01 1.106726e-01 8.726844e-02 6.290353e-02 3.903971e-02 1.415647e-02 -9.685768e-03 -3.457084e-02 -5.790098e-02 -8.226089e-02 -1.046003e-01 -1.279209e-01 -1.488247e-01 -1.706285e-01 -1.897058e-01 -2.095754e-01 -2.265072e-01 -2.441043e-01 -2.586567e-01 -2.737369e-01 -2.857685e-01 -2.981893e-01 -3.076525e-01 -3.173732e-01 -3.243094e-01 -3.313847e-01 -3.359135e-01 -3.404809e-01 -3.427857e-01 -3.450480e-01 -3.453588e-01 -3.455650e-01 -3.441398e-01 -3.425649e-01 -3.396723e-01 -3.365989e-01 -3.325019e-01 -3.282035e-01 -3.231468e-01 -3.178745e-01 -3.120736e-01 -3.060468e-01 -2.996814e-01 -2.930808e-01 -2.862907e-01 -2.792552e-01 -2.721388e-01 -2.647650e-01 -2.573803e-01 -2.497237e-01 -2.420913e-01 -2.341699e-01 -2.262769e-01 -2.180758e-01 -2.098814e-01 
-2.351139e-01 -2.251955e-01 -2.148317e-01 -2.044089e-01 -1.935146e-01 -1.824855e-01 -1.709626e-01 -1.592267e-01 -1.469804e-01 -1.344483e-01 -1.213972e-01 -1.079999e-01 -9.408536e-02 -7.978325e-02 -6.497718e-02 -4.976713e-02 -3.407918e-02 -1.800015e-02 -1.481952e-03 1.538216e-02 3.263518e-02 5.015558e-02 6.800560e-02 8.601169e-02 1.042830e-01 1.225685e-01 1.410548e-01 1.593859e-01 1.778595e-01 1.959852e-01 2.142069e-01 2.318688e-01 2.495981e-01 2.665402e-01 2.835430e-01 2.995193e-01 3.155741e-01 3.303543e-01 3.452543e-01 3.586259e-01 3.721792e-01 3.839479e-01 3.959744e-01 4.059616e-01 4.162886e-01 4.243285e-01 4.327859e-01 4.387217e-01 4.451381e-01 4.488194e-01 4.530205e-01 4.543030e-01 4.561124e-01 4.548599e-01 4.541039e-01 4.501928e-01 4.467085e-01 4.400361e-01 4.336827e-01 4.241773e-01 4.148490e-01 4.024819e-01 3.901227e-01 3.749202e-01 3.595378e-01 3.415931e-01 3.232715e-01 3.027531e-01 2.816618e-01 2.588199e-01 2.352191e-01 2.103860e-01 1.846275e-01 1.582139e-01 1.307357e-01 1.032216e-01 7.453727e-02 4.645728e-02 1.714083e-02 -1.093483e-02 -4.027023e-02 -6.775843e-02 -9.648518e-02 -1.228152e-01 -1.503192e-01 -1.749587e-01 -2.006684e-01 -2.231486e-01 -2.465631e-01 -2.665006e-01 -2.872138e-01 -3.043270e-01 -3.220458e-01 -3.361645e-01 -3.507188e-01 -3.617865e-01 -3.731297e-01 -3.811974e-01 -3.893984e-01 -3.946120e-01 -3.998397e-01 -4.024221e-01 -4.049240e-01 -4.051540e-01 -4.052324e-01 -4.034223e-01 -4.014102e-01 -3.978840e-01 -3.941218e-01 -3.891961e-01 -3.840125e-01 -3.779805e-01 -3.716759e-01 -3.647953e-01 -3.576309e-01 -3.501154e-01 -3.423054e-01 -3.343203e-01 -3.260283e-01 -3.176891e-01 -3.090274e-01 -3.004012e-01 -2.914332e-01 -2.825418e-01 -2.732860e-01 -2.641119e-01 -2.545476e-01 -2.450396e-01 
-2.696543e-01 -2.583589e-01 -2.465968e-01 -2.347248e-01 -2.223587e-01 -2.097869e-01 -1.966974e-01 -1.833041e-01 -1.693757e-01 -1.550526e-01 -1.401854e-01 -1.248481e-01 -1.089687e-01 -9.256742e-02 -7.563865e-02 -5.816723e-02 -4.019646e-02 -2.169865e-02 -2.743323e-03 1.668354e-02 3.651372e-02 5.671876e-02 7.726336e-02 9.804597e-02 1.190992e-01 1.402164e-01 1.615359e-01 1.827126e-01 2.040307e-01 2.249718e-01 2.460079e-01 2.664108e-01 2.868834e-01 3.064495e-01 3.260861e-01 3.445302e-01 3.630742e-01 3.801307e-01 3.973447e-01 4.127706e-01 4.284355e-01 4.420098e-01 4.559212e-01 4.674418e-01 4.794040e-01 4.886835e-01 4.985031e-01 5.053637e-01 5.128450e-01 5.171150e-01 5.220568e-01 5.235699e-01 5.257665e-01 5.243634e-01 5.236104e-01 5.191447e-01 5.152480e-01 5.075955e-01 5.003850e-01 4.894562e-01 4.788013e-01 4.645558e-01 4.503835e-01 4.328448e-01 4.151564e-01 3.944261e-01 3.733125e-01 3.495818e-01 3.252349e-01 2.987913e-01 2.715110e-01 2.427405e-01 2.129350e-01 1.823175e-01 1.504979e-01 1.185962e-01 8.536434e-02 5.280670e-02 1.883618e-02 -1.370625e-02 -4.769463e-02 -7.953555e-02 -1.128036e-01 -1.432719e-01 -1.750976e-01 -2.035689e-01 -2.332810e-01 -2.592074e-01 -2.862194e-01 -3.091556e-01 -3.329948e-01 -3.526174e-01 -3.729462e-01 -3.890647e-01 -4.056921e-01 -4.182504e-01 -4.311321e-01 -4.402012e-01 -4.494293e-01 -4.551907e-01 -4.609740e-01 -4.636985e-01 -4.663370e-01 -4.663587e-01 -4.662147e-01 -4.639045e-01 -4.613732e-01 -4.571136e-01 -4.525968e-01 -4.467591e-01 -4.406419e-01 -4.335678e-01 -4.262004e-01 -4.181885e-01 -4.098734e-01 -4.011696e-01 -3.921531e-01 -3.829461e-01 -3.734148e-01 -3.638345e-01 -3.539147e-01 -3.440345e-01 -3.337955e-01 -3.236360e-01 -3.130944e-01 -3.026304e-01 -2.917575e-01 -2.809247e-01 
-3.037707e-01 -2.911717e-01 -2.779974e-01 -2.647634e-01 -2.509173e-01 -2.369014e-01 -2.222407e-01 -2.072974e-01 -1.916843e-01 -1.756828e-01 -1.589973e-01 -1.418345e-01 -1.239872e-01 -1.055999e-01 -8.654374e-02 -6.691908e-02 -4.665913e-02 -2.584246e-02 -4.442344e-03 1.745833e-02 3.987362e-02 6.268749e-02 8.593337e-02 1.094312e-01 1.332699e-01 1.571727e-01 1.813240e-01 2.053151e-01 2.294697e-01 2.532095e-01 2.770442e-01 3.001850e-01 3.233770e-01 3.455768e-01 3.678157e-01 3.887494e-01 4.097458e-01 4.291126e-01 4.486008e-01 4.661273e-01 4.838648e-01 4.993040e-01 5.150659e-01 5.281933e-01 5.417647e-01 5.523721e-01 5.635402e-01 5.714297e-01 5.799766e-01 5.849553e-01 5.906545e-01 5.925333e-01 5.951501e-01 5.937453e-01 5.930430e-01 5.881827e-01 5.839336e-01 5.754687e-01 5.674696e-01 5.552885e-01 5.433798e-01 5.274255e-01 5.115121e-01 4.918001e-01 4.718717e-01 4.485069e-01 4.246562e-01 3.978466e-01 3.702831e-01 3.403487e-01 3.094068e-01 2.767820e-01 2.429223e-01 2.081510e-01 1.719543e-01 1.356778e-01 9.783133e-02 6.076888e-02 2.204529e-02 -1.503189e-02 -5.380258e-02 -9.010278e-02 -1.280673e-01 -1.628134e-01 -1.991340e-01 -2.316004e-01 -2.654960e-01 -2.950441e-01 -3.258308e-01 -3.519403e-01 -3.790663e-01 -4.013592e-01 -4.244314e-01 -4.426856e-01 -4.614838e-01 -4.756358e-01 -4.901132e-01 -5.002494e-01 -5.105199e-01 -5.168572e-01 -5.231722e-01 -5.260320e-01 -5.287490e-01 -5.285266e-01 -5.280746e-01 -5.252073e-01 -5.220521e-01 -5.169887e-01 -5.116014e-01 -5.047759e-01 -4.976057e-01 -4.894158e-01 -4.808688e-01 -4.716600e-01 -4.620851e-01 -4.521404e-01 -4.418196e-01 -4.313542e-01 -4.204991e-01 -4.096597e-01 -3.984116e-01 -3.872787e-01 -3.757123e-01 -3.643056e-01 -3.524351e-01 -3.407208e-01 -3.285078e-01 -3.164076e-01 
-3.389042e-01 -3.249850e-01 -3.104795e-01 -2.958567e-01 -2.806093e-01 -2.651084e-01 -2.489491e-01 -2.323974e-01 -2.151613e-01 -1.974031e-01 -1.789455e-01 -1.598566e-01 -1.400678e-01 -1.195705e-01 -9.838969e-02 -7.646453e-02 -5.389117e-02 -3.058674e-02 -6.688840e-03 1.787301e-02 4.295549e-02 6.857933e-02 9.463630e-02 1.210583e-01 1.478171e-01 1.747156e-01 2.018536e-01 2.288635e-01 2.560245e-01 2.827550e-01 3.095674e-01 3.356199e-01 3.617142e-01 3.866989e-01 4.117221e-01 4.352711e-01 4.588967e-01 4.806726e-01 5.026044e-01 5.223035e-01 5.422735e-01 5.596241e-01 5.773860e-01 5.921427e-01 6.074620e-01 6.193976e-01 6.320409e-01 6.409386e-01 6.506646e-01 6.563112e-01 6.628661e-01 6.650491e-01 6.681660e-01 6.666757e-01 6.660818e-01 6.607183e-01 6.561472e-01 6.467333e-01 6.379439e-01 6.243422e-01 6.111406e-01 5.932743e-01 5.755390e-01 5.534130e-01 5.311191e-01 5.048408e-01 4.780819e-01 4.478781e-01 4.168828e-01 3.831107e-01 3.482529e-01 3.114038e-01 2.732046e-01 2.338986e-01 1.930196e-01 1.519918e-01 1.092196e-01 6.729693e-02 2.351855e-02 -1.841050e-02 -6.224020e-02 -1.032631e-01 -1.461613e-01 -1.853831e-01 -2.263849e-01 -2.629717e-01 -3.011785e-01 -3.343995e-01 -3.690269e-01 -3.982910e-01 -4.287100e-01 -4.535935e-01 -4.793619e-01 -4.996235e-01 -5.205017e-01 -5.360847e-01 -5.520353e-01 -5.630558e-01 -5.742276e-01 -5.809511e-01 -5.876504e-01 -5.904604e-01 -5.931129e-01 -5.924745e-01 -5.915847e-01 -5.880072e-01 -5.841177e-01 -5.781198e-01 -5.717744e-01 -5.638540e-01 -5.555677e-01 -5.461776e-01 -5.364127e-01 -5.259435e-01 -5.150937e-01 -5.038627e-01 -4.922439e-01 -4.804898e-01 -4.683362e-01 -4.562186e-01 -4.436839e-01 -4.312872e-01 -4.184489e-01 -4.057879e-01 -3.926549e-01 -3.796839e-01 -3.662053e-01 -3.528279e-01 
-3.734638e-01 -3.583200e-01 -3.424697e-01 -3.265717e-01 -3.099163e-01 -2.930590e-01 -2.753987e-01 -2.573786e-01 -2.385189e-01 -2.191509e-01 -1.989205e-01 -1.780553e-01 -1.563224e-01 -1.338627e-01 -1.105516e-01 -8.646697e-02 -6.157147e-02 -3.590918e-02 -9.502160e-03 1.760581e-02 4.536799e-02 7.370447e-02 1.025840e-01 1.318524e-01 1.615390e-01 1.913754e-01 2.215012e-01 2.514917e-01 2.816509e-01 3.113524e-01 3.411232e-01 3.700847e-01 3.990500e-01 4.268325e-01 4.545977e-01 4.807894e-01 5.069934e-01 5.312201e-01 5.555397e-01 5.774680e-01 5.996149e-01 6.189494e-01 6.386617e-01 6.551377e-01 6.721665e-01 6.855397e-01 6.996363e-01 7.096723e-01 7.205759e-01 7.270416e-01 7.344729e-01 7.371321e-01 7.407924e-01 7.394074e-01 7.389860e-01 7.333257e-01 7.285142e-01 7.183686e-01 7.088826e-01 6.940830e-01 6.796884e-01 6.601316e-01 6.406739e-01 6.163475e-01 5.917803e-01 5.627874e-01 5.331982e-01 4.997774e-01 4.654075e-01 4.279463e-01 3.892028e-01 3.482422e-01 3.057010e-01 2.619303e-01 2.163284e-01 1.705699e-01 1.227889e-01 7.597261e-02 2.701197e-02 -1.985870e-02 -6.891795e-02 -1.148075e-01 -1.628475e-01 -2.067356e-01 -2.526539e-01 -2.935860e-01 -3.363518e-01 -3.734881e-01 -4.121989e-01 -4.448586e-01 -4.787907e-01 -5.064853e-01 -5.351312e-01 -5.575844e-01 -5.806733e-01 -5.978236e-01 -6.153211e-01 -6.273089e-01 -6.393975e-01 -6.465371e-01 -6.535817e-01 -6.563238e-01 -6.588266e-01 -6.577147e-01 -6.562661e-01 -6.518927e-01 -6.471235e-01 -6.400887e-01 -6.326272e-01 -6.235041e-01 -6.139408e-01 -6.032474e-01 -5.921093e-01 -5.802892e-01 -5.680216e-01 -5.554323e-01 -5.423891e-01 -5.292966e-01 -5.157371e-01 -5.023168e-01 -4.884077e-01 -4.747483e-01 -4.605694e-01 -4.466811e-01 -4.322342e-01 -4.180581e-01 -4.032779e-01 -3.886980e-01 
-4.092774e-01 -3.928962e-01 -3.758076e-01 -3.586084e-01 -3.406497e-01 -3.223924e-01 -3.033284e-01 -2.837740e-01 -2.633751e-01 -2.423056e-01 -2.203674e-01 -1.976048e-01 -1.739676e-01 -1.493936e-01 -1.239613e-01 -9.753384e-02 -7.029000e-02 -4.205712e-02 -1.307670e-02 1.681549e-02 4.736036e-02 7.866671e-02 1.105088e-01 1.428919e-01 1.756791e-01 2.087236e-01 2.420365e-01 2.752702e-01 3.086461e-01 3.415643e-01 3.745230e-01 4.066147e-01 4.386841e-01 4.694550e-01 5.001920e-01 5.291832e-01 5.581873e-01 5.849862e-01 6.119042e-01 6.361483e-01 6.606702e-01 6.820427e-01 7.038900e-01 7.221100e-01 7.410199e-01 7.558289e-01 7.715367e-01 7.826851e-01 7.949097e-01 8.021455e-01 8.105797e-01 8.136427e-01 8.179522e-01 8.165747e-01 8.164054e-01 8.103216e-01 8.053167e-01 7.942789e-01 7.841036e-01 7.679062e-01 7.522788e-01 7.307867e-01 7.095129e-01 6.826922e-01 6.556990e-01 6.236459e-01 5.910128e-01 5.539788e-01 5.159610e-01 4.743692e-01 4.314128e-01 3.858648e-01 3.386105e-01 2.898807e-01 2.391561e-01 1.881749e-01 1.349757e-01 8.279936e-02 2.825847e-02 -2.396988e-02 -7.862350e-02 -1.297234e-01 -1.832168e-01 -2.320258e-01 -2.831025e-01 -3.285355e-01 -3.760219e-01 -4.171286e-01 -4.600003e-01 -4.960164e-01 -5.334577e-01 -5.638434e-01 -5.952911e-01 -6.197529e-01 -6.449192e-01 -6.634111e-01 -6.822816e-01 -6.949882e-01 -7.077977e-01 -7.150999e-01 -7.222891e-01 -7.247198e-01 -7.268815e-01 -7.250737e-01 -7.228954e-01 -7.175319e-01 -7.117399e-01 -7.035058e-01 -6.948170e-01 -6.843608e-01 -6.734429e-01 -6.613462e-01 -6.487898e-01 -6.355461e-01 -6.218457e-01 -6.078486e-01 -5.933932e-01 -5.789320e-01 -5.640025e-01 -5.492633e-01 -5.340361e-01 -5.191076e-01 -5.036615e-01 -4.885445e-01 -4.728710e-01 -4.574892e-01 -4.415047e-01 -4.257180e-01 
-4.443369e-01 -4.268386e-01 -4.085012e-01 -3.901440e-01 -3.708796e-01 -3.513843e-01 -3.309188e-01 -3.100068e-01 -2.880723e-01 -2.654871e-01 -2.418434e-01 -2.173730e-01 -1.918304e-01 -1.653289e-01 -1.377692e-01 -1.091771e-01 -7.957325e-02 -4.893341e-02 -1.736317e-02 1.516922e-02 4.851607e-02 8.267165e-02 1.174953e-01 1.528980e-01 1.888005e-01 2.249842e-01 2.614905e-01 2.979232e-01 3.345093e-01 3.706232e-01 4.067475e-01 4.419685e-01 4.771025e-01 5.108791e-01 5.445321e-01 5.763561e-01 6.080914e-01 6.375117e-01 6.669513e-01 6.935769e-01 7.203959e-01 7.438906e-01 7.678023e-01 7.878715e-01 8.086067e-01 8.249805e-01 8.422660e-01 8.546822e-01 8.682215e-01 8.764105e-01 8.858721e-01 8.895494e-01 8.945634e-01 8.934295e-01 8.935964e-01 8.873463e-01 8.822559e-01 8.705985e-01 8.598588e-01 8.425442e-01 8.258177e-01 8.026708e-01 7.797147e-01 7.506710e-01 7.213771e-01 6.865176e-01 6.509485e-01 6.105290e-01 5.689458e-01 5.234167e-01 4.762963e-01 4.263105e-01 3.743508e-01 3.207585e-01 2.648699e-01 2.086994e-01 1.499847e-01 9.241062e-02 3.213203e-02 -2.556799e-02 -8.603366e-02 -1.425330e-01 -2.017513e-01 -2.557364e-01 -3.122833e-01 -3.625211e-01 -4.150597e-01 -4.604654e-01 -5.078244e-01 -5.475227e-01 -5.887684e-01 -6.221413e-01 -6.566318e-01 -6.833454e-01 -7.107594e-01 -7.307679e-01 -7.511026e-01 -7.646279e-01 -7.781694e-01 -7.856609e-01 -7.929327e-01 -7.950134e-01 -7.967115e-01 -7.941176e-01 -7.910416e-01 -7.845618e-01 -7.775500e-01 -7.679710e-01 -7.578442e-01 -7.459054e-01 -7.334222e-01 -7.197814e-01 -7.056069e-01 -6.908179e-01 -6.755037e-01 -6.600034e-01 -6.439785e-01 -6.280836e-01 -6.116530e-01 -5.955629e-01 -5.789128e-01 -5.627167e-01 -5.459235e-01 -5.296121e-01 -5.126546e-01 -4.961325e-01 -4.789057e-01 -4.620064e-01 
-4.808930e-01 -4.622730e-01 -4.428237e-01 -4.232883e-01 -4.028537e-01 -3.820785e-01 -3.603395e-01 -3.380006e-01 -3.146434e-01 -2.904404e-01 -2.651814e-01 -2.388635e-01 -2.114743e-01 -1.828654e-01 -1.531984e-01 -1.222204e-01 -9.023124e-02 -5.692380e-02 -2.268886e-02 1.277879e-02 4.905330e-02 8.637947e-02 1.243590e-01 1.631182e-01 2.023532e-01 2.420159e-01 2.819670e-01 3.219287e-01 3.620002e-01 4.016169e-01 4.411945e-01 4.798193e-01 5.183076e-01 5.553234e-01 5.921755e-01 6.270211e-01 6.617576e-01 6.939421e-01 7.261570e-01 7.552631e-01 7.846157e-01 8.102914e-01 8.364873e-01 8.584296e-01 8.811947e-01 8.991273e-01 9.181807e-01 9.318322e-01 9.468619e-01 9.559476e-01 9.665950e-01 9.708057e-01 9.766610e-01 9.756627e-01 9.762740e-01 9.697177e-01 9.646127e-01 9.521568e-01 9.408764e-01 9.222186e-01 9.043590e-01 8.792755e-01 8.545353e-01 8.229236e-01 7.911515e-01 7.530722e-01 7.143094e-01 6.700217e-01 6.245355e-01 5.745221e-01 5.228267e-01 4.678048e-01 4.106679e-01 3.515839e-01 2.900185e-01 2.280269e-01 1.632680e-01 9.969476e-02 3.316278e-02 -3.054561e-02 -9.729593e-02 -1.596353e-01 -2.249802e-01 -2.844619e-01 -3.467871e-01 -4.020167e-01 -4.598071e-01 -5.095639e-01 -5.614961e-01 -6.048040e-01 -6.498309e-01 -6.860129e-01 -7.234280e-01 -7.521361e-01 -7.816048e-01 -8.028214e-01 -8.243773e-01 -8.383890e-01 -8.523952e-01 -8.597439e-01 -8.668297e-01 -8.682480e-01 -8.692312e-01 -8.655716e-01 -8.613781e-01 -8.535432e-01 -8.451319e-01 -8.340130e-01 -8.223124e-01 -8.087390e-01 -7.945988e-01 -7.793016e-01 -7.634591e-01 -7.470468e-01 -7.301068e-01 -7.130543e-01 -6.954812e-01 -6.781267e-01 -6.602450e-01 -6.427951e-01 -6.247965e-01 -6.073356e-01 -5.892901e-01 -5.717932e-01 -5.536629e-01 -5.360103e-01 -5.176651e-01 -4.996586e-01 
-5.164768e-01 -4.968837e-01 -4.763187e-01 -4.557815e-01 -4.341821e-01 -4.123273e-01 -3.893247e-01 -3.657772e-01 -3.410081e-01 -3.154177e-01 -2.885509e-01 -2.606209e-01 -2.313867e-01 -2.009028e-01 -1.691219e-01 -1.359794e-01 -1.015896e-01 -6.581698e-02 -2.889387e-02 9.332281e-03 4.856357e-02 8.891423e-02 1.300801e-01 1.720830e-01 2.146768e-01 2.577391e-01 3.011504e-01 3.445931e-01 3.881481e-01 4.312477e-01 4.742548e-01 5.162868e-01 5.580809e-01 5.983591e-01 6.383377e-01 6.762449e-01 7.138903e-01 7.488950e-01 7.837803e-01 8.154399e-01 8.472183e-01 8.751682e-01 9.035487e-01 9.274814e-01 9.521964e-01 9.718338e-01 9.926045e-01 1.007671e+00 1.024177e+00 1.034374e+00 1.046235e+00 1.051230e+00 1.057997e+00 1.057419e+00 1.058583e+00 1.052035e+00 1.047056e+00 1.034137e+00 1.022480e+00 1.002826e+00 9.840096e-01 9.573372e-01 9.309901e-01 8.971482e-01 8.630648e-01 8.220831e-01 7.802729e-01 7.324044e-01 6.831311e-01 6.288810e-01 5.726865e-01 5.128251e-01 4.505370e-01 3.860943e-01 3.188169e-01 2.510590e-01 1.801488e-01 1.105388e-01 3.756557e-02 -3.229101e-02 -1.055977e-01 -1.740209e-01 -2.458417e-01 -3.111572e-01 -3.796702e-01 -4.402987e-01 -5.037818e-01 -5.583323e-01 -6.152735e-01 -6.626288e-01 -7.118301e-01 -7.512150e-01 -7.918717e-01 -8.228917e-01 -8.546333e-01 -8.772783e-01 -9.001636e-01 -9.147772e-01 -9.292478e-01 -9.364683e-01 -9.432710e-01 -9.439544e-01 -9.440476e-01 -9.391830e-01 -9.336409e-01 -9.242680e-01 -9.141927e-01 -9.013301e-01 -8.877791e-01 -8.723666e-01 -8.562983e-01 -8.391564e-01 -8.213936e-01 -8.031983e-01 -7.844086e-01 -7.656804e-01 -7.463687e-01 -7.274719e-01 -7.079842e-01 -6.891346e-01 -6.696672e-01 -6.509438e-01 -6.315576e-01 -6.129183e-01 -5.935550e-01 -5.748534e-01 -5.553533e-01 -5.363563e-01 
-5.538057e-01 -5.332489e-01 -5.117406e-01 -4.901930e-01 -4.676017e-01 -4.446328e-01 -4.205327e-01 -3.957091e-01 -3.696778e-01 -3.425921e-01 -3.142408e-01 -2.845437e-01 -2.535503e-01 -2.209843e-01 -1.871271e-01 -1.515590e-01 -1.147484e-01 -7.619704e-02 -3.650154e-02 4.843234e-03 4.718189e-02 9.095332e-02 1.355198e-01 1.811845e-01 2.274073e-01 2.742921e-01 3.214777e-01 3.688110e-01 4.161927e-01 4.631545e-01 5.099475e-01 5.557217e-01 6.011768e-01 6.449985e-01 6.884458e-01 7.296365e-01 7.705124e-01 8.084998e-01 8.463533e-01 8.806734e-01 9.151520e-01 9.454345e-01 9.762535e-01 1.002195e+00 1.029096e+00 1.050424e+00 1.073135e+00 1.089575e+00 1.107768e+00 1.119013e+00 1.132283e+00 1.137976e+00 1.145828e+00 1.145558e+00 1.147421e+00 1.140734e+00 1.135987e+00 1.122416e+00 1.110433e+00 1.089539e+00 1.069747e+00 1.041175e+00 1.013119e+00 9.766559e-01 9.400632e-01 8.956984e-01 8.505384e-01 7.985140e-01 7.450451e-01 6.858925e-01 6.246905e-01 5.592476e-01 4.912157e-01 4.206222e-01 3.469812e-01 2.726528e-01 1.949143e-01 1.184971e-01 3.841970e-02 -3.827314e-02 -1.187438e-01 -1.938116e-01 -2.726220e-01 -3.441707e-01 -4.192598e-01 -4.855069e-01 -5.549252e-01 -6.143082e-01 -6.763482e-01 -7.276251e-01 -7.809448e-01 -8.232715e-01 -8.669885e-01 -8.999609e-01 -9.336986e-01 -9.573537e-01 -9.812315e-01 -9.960071e-01 -1.010580e+00 -1.017243e+00 -1.023407e+00 -1.022961e+00 -1.021839e+00 -1.015425e+00 -1.008257e+00 -9.970597e-01 -9.851000e-01 -9.702667e-01 -9.547045e-01 -9.372825e-01 -9.191827e-01 -9.000760e-01 -8.803423e-01 -8.602866e-01 -8.396425e-01 -8.191959e-01 -7.981806e-01 -7.777259e-01 -7.567004e-01 -7.364552e-01 -7.156152e-01 -6.956467e-01 -6.750396e-01 -6.552823e-01 -6.348253e-01 -6.151001e-01 -5.945999e-01 -5.746329e-01 