# vtk DataFile Version 2.0
Comment goes here
ASCII

DATASET STRUCTURED_POINTS
FIELD FieldData 1
TIME 1 1 double
0.16000000
DIMENSIONS    128   128   1

ORIGIN    0.000   0.000   0.000
SPACING   0.039062 0.039062   1.000

POINT_DATA   16384
SCALARS uY double
LOOKUP_TABLE default

2.674485e-14 2.571619e-14 2.612388e-14 2.515219e-14 2.495437e-14 2.414922e-14 2.414789e-14 2.379199e-14 2.458755e-14 2.542444e-14 2.623398e-14 2.672675e-14 2.704721e-14 2.787745e-14 2.772933e-14 2.804221e-14 2.647029e-14 2.720359e-14 2.607157e-14 2.615464e-14 2.421307e-14 2.407824e-14 2.309620e-14 2.324228e-14 2.243712e-14 2.325025e-14 2.280367e-14 2.527831e-14 2.496742e-14 2.699903e-14 2.662825e-14 2.838409e-14 2.793911e-14 2.888366e-14 2.822584e-14 2.988577e-14 2.802298e-14 2.942292e-14 2.829975e-14 3.146480e-14 3.157061e-14 3.382830e-14 3.451321e-14 3.733675e-14 3.754181e-14 4.062506e-14 4.019584e-14 4.215838e-14 4.064563e-14 4.247612e-14 4.081439e-14 4.321876e-14 4.213887e-14 4.557516e-14 4.474613e-14 4.660105e-14 4.589172e-14 4.823947e-14 4.920715e-14 5.411647e-14 5.140999e-14 5.329108e-14 5.487193e-14 5.669747e-14 5.617932e-14 5.767041e-14 5.648559e-14 5.961473e-14 5.898308e-14 5.999028e-14 5.922892e-14 5.981879e-14 5.880856e-14 5.968423e-14 5.956874e-14 5.920780e-14 5.945182e-14 6.026602e-14 6.028555e-14 5.859224e-14 6.001895e-14 5.853654e-14 5.891966e-14 5.821524e-14 5.907381e-14 5.925743e-14 6.143012e-14 6.210266e-14 6.464143e-14 6.235289e-14 6.556351e-14 6.276288e-14 6.627211e-14 6.307682e-14 6.510692e-14 6.147405e-14 6.427774e-14 6.046409e-14 6.297348e-14 5.814553e-14 6.038951e-14 5.809806e-14 5.877831e-14 5.555274e-14 5.941084e-14 5.643773e-14 5.793508e-14 5.442458e-14 5.635538e-14 5.183454e-14 5.292067e-14 4.862124e-14 4.978735e-14 4.575480e-14 4.636479e-14 4.192742e-14 4.195427e-14 3.745870e-14 3.710349e-14 3.358993e-14 3.375764e-14 3.069115e-14 3.113030e-14 2.861952e-14 2.926911e-14 2.707291e-14 2.760446e-14 2.613814e-14 
-9.064132e-03 -9.635584e-03 -9.995126e-03 -1.050691e-02 -1.079125e-02 -1.122675e-02 -1.142272e-02 -1.176728e-02 -1.186368e-02 -1.210517e-02 -1.209319e-02 -1.222244e-02 -1.209615e-02 -1.210745e-02 -1.186417e-02 -1.175559e-02 -1.139624e-02 -1.116988e-02 -1.069911e-02 -1.036117e-02 -9.787377e-03 -9.347938e-03 -8.683019e-03 -8.155679e-03 -7.414575e-03 -6.815770e-03 -6.015813e-03 -5.363978e-03 -4.524078e-03 -3.838674e-03 -2.978416e-03 -2.278908e-03 -1.417645e-03 -7.225302e-04 1.214502e-04 7.954850e-04 1.605655e-03 2.244376e-03 3.006466e-03 3.598495e-03 4.300779e-03 4.837734e-03 5.471098e-03 5.947497e-03 6.505315e-03 6.918268e-03 7.396134e-03 7.744896e-03 8.140256e-03 8.425696e-03 8.737459e-03 8.961526e-03 9.189692e-03 9.354933e-03 9.500300e-03 9.609490e-03 9.673468e-03 9.729388e-03 9.713934e-03 9.719303e-03 9.626978e-03 9.584542e-03 9.418673e-03 9.331422e-03 9.096328e-03 8.967802e-03 8.669051e-03 8.503670e-03 8.148310e-03 7.951687e-03 7.548395e-03 7.327543e-03 6.886655e-03 6.650051e-03 6.183414e-03 5.940860e-03 5.461498e-03 5.223763e-03 4.745337e-03 4.523564e-03 4.059653e-03 3.864581e-03 3.427828e-03 3.268874e-03 2.870065e-03 2.754357e-03 2.401536e-03 2.333019e-03 2.030736e-03 2.009451e-03 1.758245e-03 1.779912e-03 1.576117e-03 1.632093e-03 1.468017e-03 1.545679e-03 1.410174e-03 1.493725e-03 1.373094e-03 1.444715e-03 1.323889e-03 1.365141e-03 1.228983e-03 1.222297e-03 1.056913e-03 9.870041e-04 7.809084e-04 6.359758e-04 3.810008e-04 1.535873e-04 -1.545375e-04 -4.670794e-04 -8.285014e-04 -1.223945e-03 -1.634793e-03 -2.106324e-03 -2.559084e-03 -3.095862e-03 -3.579935e-03 -4.167822e-03 -4.670184e-03 -5.292553e-03 -5.798444e-03 -6.436991e-03 -6.930573e-03 -7.566075e-03 -8.031034e-03 -8.644041e-03 
-1.805868e-02 -1.919843e-02 -1.991378e-02 -2.093548e-02 -2.150161e-02 -2.237168e-02 -2.276202e-02 -2.345084e-02 -2.364270e-02 -2.412562e-02 -2.410114e-02 -2.435952e-02 -2.410657e-02 -2.412865e-02 -2.364169e-02 -2.342336e-02 -2.270405e-02 -2.224933e-02 -2.130688e-02 -2.062805e-02 -1.947921e-02 -1.859646e-02 -1.726504e-02 -1.620564e-02 -1.472162e-02 -1.351860e-02 -1.191678e-02 -1.060725e-02 -8.925585e-03 -7.548740e-03 -5.826566e-03 -4.421624e-03 -2.697777e-03 -1.302008e-03 3.868400e-04 1.739825e-03 3.360564e-03 4.642114e-03 6.166204e-03 7.353437e-03 8.757471e-03 9.833565e-03 1.109939e-02 1.205337e-02 1.316783e-02 1.399396e-02 1.494834e-02 1.564518e-02 1.643445e-02 1.700380e-02 1.762581e-02 1.807162e-02 1.852636e-02 1.885373e-02 1.914273e-02 1.935720e-02 1.948316e-02 1.959020e-02 1.955684e-02 1.956180e-02 1.937402e-02 1.928222e-02 1.894644e-02 1.876370e-02 1.828828e-02 1.802151e-02 1.741734e-02 1.707524e-02 1.635622e-02 1.594992e-02 1.513326e-02 1.467676e-02 1.378310e-02 1.329343e-02 1.234654e-02 1.184351e-02 1.086964e-02 1.037510e-02 9.401924e-03 8.938625e-03 7.993781e-03 7.583788e-03 6.693154e-03 6.355987e-03 5.541818e-03 5.292490e-03 4.571601e-03 4.418768e-03 3.800977e-03 3.745458e-03 3.232498e-03 3.266364e-03 2.851444e-03 2.957882e-03 2.626000e-03 2.780038e-03 2.509080e-03 2.679157e-03 2.441703e-03 2.591983e-03 2.357659e-03 2.450840e-03 2.188957e-03 2.189291e-03 1.871506e-03 1.747688e-03 1.350383e-03 1.078010e-03 5.841645e-04 1.475192e-04 -4.520798e-04 -1.059043e-03 -1.765310e-03 -2.538791e-03 -3.344523e-03 -4.271428e-03 -5.162034e-03 -6.221077e-03 -7.175690e-03 -8.338856e-03 -9.331654e-03 -1.056582e-02 -1.156741e-02 -1.283599e-02 -1.381471e-02 -1.507918e-02 -1.600237e-02 -1.722365e-02 
-2.729454e-02 -2.902701e-02 -3.012027e-02 -3.167226e-02 -3.253844e-02 -3.385956e-02 -3.445870e-02 -3.550452e-02 -3.580252e-02 -3.653613e-02 -3.650613e-02 -3.689961e-02 -3.652340e-02 -3.655923e-02 -3.582849e-02 -3.550064e-02 -3.441792e-02 -3.373267e-02 -3.231197e-02 -3.128804e-02 -2.955477e-02 -2.822286e-02 -2.621317e-02 -2.461471e-02 -2.237407e-02 -2.055921e-02 -1.814044e-02 -1.616547e-02 -1.362618e-02 -1.155049e-02 -8.950365e-03 -6.833333e-03 -4.231253e-03 -2.129207e-03 4.192706e-04 2.455625e-03 4.900415e-03 6.827978e-03 9.125987e-03 1.091048e-02 1.302646e-02 1.464283e-02 1.654956e-02 1.798167e-02 1.965954e-02 2.089916e-02 2.233532e-02 2.338074e-02 2.456792e-02 2.542229e-02 2.635758e-02 2.702723e-02 2.771092e-02 2.820385e-02 2.863853e-02 2.896330e-02 2.915326e-02 2.931828e-02 2.926934e-02 2.928268e-02 2.900237e-02 2.887205e-02 2.837011e-02 2.810481e-02 2.739395e-02 2.700394e-02 2.610065e-02 2.559889e-02 2.452414e-02 2.392726e-02 2.270706e-02 2.203603e-02 2.070152e-02 1.998191e-02 1.856899e-02 1.783056e-02 1.637882e-02 1.565447e-02 1.420561e-02 1.352955e-02 1.212517e-02 1.153053e-02 1.020947e-02 9.725469e-03 8.520981e-03 8.169902e-03 7.106872e-03 6.901262e-03 5.993856e-03 5.934267e-03 5.184295e-03 5.257928e-03 4.654212e-03 4.834755e-03 4.353657e-03 4.602441e-03 4.209605e-03 4.478076e-03 4.131243e-03 4.364549e-03 4.017196e-03 4.158531e-03 3.763942e-03 3.759176e-03 3.274504e-03 3.076588e-03 2.466465e-03 2.039133e-03 1.278476e-03 5.988913e-04 -3.253360e-04 -1.265182e-03 -2.353317e-03 -3.546455e-03 -4.786511e-03 -6.211941e-03 -7.580814e-03 -9.205282e-03 -1.067051e-02 -1.245080e-02 -1.397263e-02 -1.585804e-02 -1.739154e-02 -1.932640e-02 -2.082345e-02 -2.274941e-02 -2.416052e-02 -2.601860e-02 
-3.631867e-02 -3.863467e-02 -4.009486e-02 -4.217185e-02 -4.333068e-02 -4.510045e-02 -4.590382e-02 -4.730608e-02 -4.770767e-02 -4.869217e-02 -4.865532e-02 -4.918383e-02 -4.868349e-02 -4.873175e-02 -4.775618e-02 -4.731549e-02 -4.586765e-02 -4.494595e-02 -4.304430e-02 -4.166646e-02 -3.934496e-02 -3.755219e-02 -3.485939e-02 -3.270754e-02 -2.970471e-02 -2.726157e-02 -2.401995e-02 -2.136168e-02 -1.795904e-02 -1.516611e-02 -1.168292e-02 -8.835741e-03 -5.351364e-03 -2.526186e-03 8.846354e-04 3.619291e-03 6.889334e-03 9.475353e-03 1.254697e-02 1.493830e-02 1.776456e-02 1.992776e-02 2.247260e-02 2.438634e-02 2.662401e-02 2.827773e-02 3.019154e-02 3.158344e-02 3.316412e-02 3.429889e-02 3.554290e-02 3.642940e-02 3.733733e-02 3.798653e-02 3.856181e-02 3.898521e-02 3.923335e-02 3.944208e-02 3.937043e-02 3.937495e-02 3.899298e-02 3.880353e-02 3.812356e-02 3.775115e-02 3.678940e-02 3.624715e-02 3.502493e-02 3.432960e-02 3.287434e-02 3.204774e-02 3.039381e-02 2.946379e-02 2.765271e-02 2.665358e-02 2.473356e-02 2.370563e-02 2.173024e-02 2.071840e-02 1.874442e-02 1.779575e-02 1.588017e-02 1.504065e-02 1.323711e-02 1.254774e-02 1.090256e-02 1.039522e-02 8.943588e-03 8.637081e-03 7.399721e-03 7.296585e-03 6.277414e-03 6.361935e-03 5.547057e-03 5.784890e-03 5.143204e-03 5.482829e-03 4.968301e-03 5.344291e-03 4.899734e-03 5.237601e-03 4.799619e-03 5.021742e-03 4.526304e-03 4.558294e-03 3.946331e-03 3.723120e-03 2.945523e-03 2.416514e-03 1.438034e-03 5.708079e-04 -6.274731e-04 -1.845181e-03 -3.264912e-03 -4.824954e-03 -6.450999e-03 -8.326082e-03 -1.012815e-02 -1.227424e-02 -1.420927e-02 -1.656871e-02 -1.858369e-02 -2.108861e-02 -2.312341e-02 -2.569910e-02 -2.768920e-02 -3.025720e-02 -3.213616e-02 -3.461708e-02 
-4.583337e-02 -4.878170e-02 -5.065308e-02 -5.329567e-02 -5.478361e-02 -5.703477e-02 -5.807116e-02 -5.985516e-02 -6.038159e-02 -6.163525e-02 -6.160542e-02 -6.228069e-02 -6.166287e-02 -6.172924e-02 -6.050847e-02 -5.995510e-02 -5.813503e-02 -5.697215e-02 -5.457612e-02 -5.283550e-02 -4.990662e-02 -4.764083e-02 -4.424087e-02 -4.152115e-02 -3.772816e-02 -3.464097e-02 -3.054575e-02 -2.718823e-02 -2.288990e-02 -1.936454e-02 -1.496564e-02 -1.137471e-02 -6.976247e-03 -3.416527e-03 8.865596e-04 4.328385e-03 8.450923e-03 1.170167e-02 1.557089e-02 1.857295e-02 2.212990e-02 2.484190e-02 2.804166e-02 3.043774e-02 3.324859e-02 3.531662e-02 3.771837e-02 3.945733e-02 4.143925e-02 4.285623e-02 4.441474e-02 4.552193e-02 4.665853e-02 4.747055e-02 4.819021e-02 4.872209e-02 4.903218e-02 4.929816e-02 4.920816e-02 4.922138e-02 4.874329e-02 4.851636e-02 4.766563e-02 4.721195e-02 4.600885e-02 4.534437e-02 4.381555e-02 4.296078e-02 4.114065e-02 4.012253e-02 3.805431e-02 3.690754e-02 3.464358e-02 3.341120e-02 3.101240e-02 2.974522e-02 2.727941e-02 2.603422e-02 2.357335e-02 2.240985e-02 2.002614e-02 1.900270e-02 1.676405e-02 1.593269e-02 1.389758e-02 1.329855e-02 1.151108e-02 1.116779e-02 9.653382e-03 9.568248e-03 8.330623e-03 8.482503e-03 7.502441e-03 7.846195e-03 7.082382e-03 7.550826e-03 6.942877e-03 7.451118e-03 6.924573e-03 7.376380e-03 6.849189e-03 7.144756e-03 6.534562e-03 6.578792e-03 5.810181e-03 5.520552e-03 4.531471e-03 3.844603e-03 2.591293e-03 1.467568e-03 -7.242729e-05 -1.646526e-03 -3.473355e-03 -5.485170e-03 -7.577525e-03 -9.990097e-03 -1.230752e-02 -1.506289e-02 -1.754901e-02 -2.057237e-02 -2.315858e-02 -2.636270e-02 -2.897190e-02 -3.226142e-02 -3.481138e-02 -3.808675e-02 -4.049321e-02 -4.365410e-02 
-5.498513e-02 -5.855147e-02 -6.081645e-02 -6.401694e-02 -6.582253e-02 -6.855227e-02 -6.981497e-02 -7.198097e-02 -7.262889e-02 -7.415320e-02 -7.412903e-02 -7.495196e-02 -7.421594e-02 -7.429911e-02 -7.283195e-02 -7.216099e-02 -6.996616e-02 -6.855260e-02 -6.565779e-02 -6.353975e-02 -5.999703e-02 -5.723842e-02 -5.312295e-02 -4.981087e-02 -4.521800e-02 -4.145854e-02 -3.649936e-02 -3.241189e-02 -2.720777e-02 -2.291832e-02 -1.759473e-02 -1.322903e-02 -7.909360e-03 -3.586189e-03 1.613863e-03 5.788373e-03 1.076541e-02 1.470204e-02 1.936819e-02 2.299715e-02 2.728173e-02 3.055345e-02 3.440313e-02 3.728728e-02 4.066493e-02 4.314808e-02 4.603061e-02 4.811291e-02 5.048857e-02 5.217990e-02 5.404534e-02 5.536152e-02 5.671917e-02 5.767861e-02 5.853460e-02 5.915575e-02 5.951868e-02 5.981852e-02 5.969906e-02 5.969280e-02 5.910426e-02 5.880608e-02 5.776567e-02 5.719040e-02 5.572103e-02 5.488650e-02 5.301878e-02 5.194840e-02 4.972257e-02 4.844779e-02 4.591512e-02 4.447726e-02 4.170061e-02 4.015172e-02 3.720502e-02 3.560732e-02 3.257364e-02 3.099743e-02 2.796563e-02 2.648559e-02 2.354564e-02 2.223556e-02 1.947273e-02 1.839926e-02 1.588781e-02 1.510360e-02 1.290042e-02 1.243764e-02 1.057672e-02 1.044163e-02 8.930053e-03 9.099525e-03 7.915706e-03 8.336420e-03 7.430893e-03 8.021509e-03 7.320536e-03 7.976921e-03 7.388606e-03 7.991694e-03 7.414044e-03 7.839525e-03 7.169571e-03 7.298319e-03 6.441264e-03 6.169295e-03 5.046639e-03 4.293460e-03 2.849256e-03 1.563751e-03 -2.315601e-04 -2.068126e-03 -4.216443e-03 -6.590312e-03 -9.066940e-03 -1.193421e-02 -1.469075e-02 -1.798153e-02 -2.094996e-02 -2.457354e-02 -2.767077e-02 -3.152117e-02 -3.465364e-02 -3.861488e-02 -4.168277e-02 -4.563368e-02 -4.853459e-02 -5.235301e-02 
-6.489291e-02 -6.915026e-02 -7.187522e-02 -7.569412e-02 -7.787191e-02 -8.112883e-02 -8.266084e-02 -8.524619e-02 -8.604731e-02 -8.786909e-02 -8.787116e-02 -8.885872e-02 -8.801423e-02 -8.812201e-02 -8.640756e-02 -8.561845e-02 -8.303768e-02 -8.136541e-02 -7.795093e-02 -7.544108e-02 -7.125482e-02 -6.798391e-02 -6.311565e-02 -5.918819e-02 -5.375206e-02 -4.929539e-02 -4.342460e-02 -3.858202e-02 -3.242210e-02 -2.734475e-02 -2.104607e-02 -1.588443e-02 -9.594615e-03 -4.490457e-03 1.652451e-03 6.573021e-03 1.244614e-02 1.707777e-02 2.257723e-02 2.683835e-02 3.188128e-02 3.571487e-02 4.023947e-02 4.361177e-02 4.757583e-02 5.047337e-02 5.385152e-02 5.627697e-02 5.905722e-02 6.102463e-02 6.320484e-02 6.473491e-02 6.631944e-02 6.743544e-02 6.843263e-02 6.915729e-02 6.957792e-02 6.993160e-02 6.978847e-02 6.978884e-02 6.909746e-02 6.876044e-02 6.754059e-02 6.688251e-02 6.516052e-02 6.420101e-02 6.201226e-02 6.077753e-02 5.816885e-02 5.669477e-02 5.372623e-02 5.206069e-02 4.880641e-02 4.701045e-02 4.355802e-02 4.170529e-02 3.815350e-02 3.632777e-02 3.278263e-02 3.107329e-02 2.764233e-02 2.613804e-02 2.292327e-02 2.170421e-02 1.879431e-02 1.792384e-02 1.538642e-02 1.490296e-02 1.277772e-02 1.268811e-02 1.098194e-02 1.125715e-02 9.941952e-03 1.051606e-02 9.529828e-03 1.030280e-02 9.554129e-03 1.039837e-02 9.774104e-03 1.054424e-02 9.919522e-03 1.046445e-02 9.714029e-03 9.889820e-03 8.899288e-03 8.581373e-03 7.257071e-03 6.350331e-03 4.626801e-03 3.072495e-03 9.168741e-04 -1.304101e-03 -3.890924e-03 -6.758346e-03 -9.743442e-03 -1.320109e-02 -1.652339e-02 -2.048446e-02 -2.406001e-02 -2.841366e-02 -3.214133e-02 -3.675948e-02 -4.052653e-02 -4.527026e-02 -4.895734e-02 -5.368244e-02 -5.716786e-02 -6.172965e-02 
-7.427109e-02 -7.920153e-02 -8.236351e-02 -8.679240e-02 -8.932817e-02 -9.311089e-02 -9.490477e-02 -9.791245e-02 -9.886401e-02 -1.009879e-01 -1.010161e-01 -1.021718e-01 -1.012194e-01 -1.013518e-01 -9.938963e-02 -9.847688e-02 -9.550738e-02 -9.356385e-02 -8.962378e-02 -8.670167e-02 -8.186256e-02 -7.805100e-02 -7.241755e-02 -6.783915e-02 -6.154514e-02 -5.634995e-02 -4.955187e-02 -4.390911e-02 -3.677805e-02 -3.086630e-02 -2.357890e-02 -1.757583e-02 -1.030514e-02 -4.377753e-03 2.714976e-03 8.418674e-03 1.519067e-02 2.054779e-02 2.687926e-02 3.179556e-02 3.759190e-02 4.200262e-02 4.719436e-02 5.106248e-02 5.560327e-02 5.891581e-02 6.277891e-02 6.554176e-02 6.871578e-02 7.094784e-02 7.343227e-02 7.515968e-02 7.696086e-02 7.821202e-02 7.934005e-02 8.014183e-02 8.060875e-02 8.098437e-02 8.080368e-02 8.077235e-02 7.995995e-02 7.953808e-02 7.811427e-02 7.731823e-02 7.531058e-02 7.416029e-02 7.160686e-02 7.012995e-02 6.708233e-02 6.531805e-02 6.184381e-02 5.984608e-02 5.603000e-02 5.386912e-02 4.981273e-02 4.757493e-02 4.339413e-02 4.117888e-02 3.699930e-02 3.491405e-02 3.086439e-02 2.901707e-02 2.522064e-02 2.371033e-02 2.027563e-02 1.918231e-02 1.619347e-02 1.556809e-02 1.307636e-02 1.293235e-02 1.094984e-02 1.125751e-02 9.754088e-03 1.043896e-02 9.343224e-03 1.028893e-02 9.493313e-03 1.054915e-02 9.918996e-03 1.091164e-02 1.029722e-02 1.104523e-02 1.029550e-02 1.062505e-02 9.601359e-03 9.361193e-03 7.949396e-03 7.023225e-03 5.142840e-03 3.457856e-03 1.067412e-03 -1.401714e-03 -4.303297e-03 -7.534847e-03 -1.091042e-02 -1.483974e-02 -1.861874e-02 -2.314488e-02 -2.722972e-02 -3.222342e-02 -3.649639e-02 -4.180821e-02 -4.613812e-02 -5.160605e-02 -5.585406e-02 -6.131006e-02 -6.533464e-02 -7.061014e-02 
-8.469556e-02 -9.039595e-02 -9.408329e-02 -9.920200e-02 -1.021682e-01 -1.065404e-01 -1.086531e-01 -1.121319e-01 -1.132758e-01 -1.157363e-01 -1.158178e-01 -1.171632e-01 -1.161154e-01 -1.162817e-01 -1.140699e-01 -1.130314e-01 -1.096573e-01 -1.074301e-01 -1.029352e-01 -9.957960e-02 -9.404619e-02 -8.966568e-02 -8.321498e-02 -7.795244e-02 -7.073998e-02 -6.477053e-02 -5.697864e-02 -5.049982e-02 -4.232795e-02 -3.554806e-02 -2.720194e-02 -2.032777e-02 -1.200852e-02 -5.233703e-03 2.871969e-03 9.376758e-03 1.710440e-02 2.319865e-02 3.041133e-02 3.598870e-02 4.257953e-02 4.756862e-02 5.346042e-02 5.782254e-02 6.296532e-02 6.668982e-02 7.105641e-02 7.415437e-02 7.773518e-02 8.023229e-02 8.302983e-02 8.495946e-02 8.698351e-02 8.838067e-02 8.964451e-02 9.054142e-02 9.105968e-02 9.148324e-02 9.127137e-02 9.124281e-02 9.031824e-02 8.985467e-02 8.823932e-02 8.735709e-02 8.508080e-02 8.379997e-02 8.090449e-02 7.925389e-02 7.579664e-02 7.381870e-02 6.987579e-02 6.763045e-02 6.329835e-02 6.086517e-02 5.626035e-02 5.373829e-02 4.899454e-02 4.649886e-02 4.176193e-02 3.941806e-02 3.483779e-02 3.277239e-02 2.849271e-02 2.682254e-02 2.297011e-02 2.178967e-02 1.846242e-02 1.783186e-02 1.508872e-02 1.502358e-02 1.287680e-02 1.334116e-02 1.175270e-02 1.265712e-02 1.153976e-02 1.274483e-02 1.196848e-02 1.329410e-02 1.269689e-02 1.393648e-02 1.333942e-02 1.427770e-02 1.350139e-02 1.393338e-02 1.281453e-02 1.256352e-02 1.096940e-02 9.901602e-03 7.740683e-03 5.774957e-03 3.002801e-03 1.147796e-04 -3.264963e-03 -7.044177e-03 -1.098305e-02 -1.557254e-02 -1.998364e-02 -2.526120e-02 -3.002725e-02 -3.583924e-02 -4.082100e-02 -4.699212e-02 -5.203628e-02 -5.837838e-02 -6.332420e-02 -6.964369e-02 -7.432845e-02 -8.043226e-02 
-9.440151e-02 -1.008525e-01 -1.050386e-01 -1.108406e-01 -1.142222e-01 -1.191867e-01 -1.216121e-01 -1.255703e-01 -1.269065e-01 -1.297142e-01 -1.298520e-01 -1.313957e-01 -1.302561e-01 -1.304598e-01 -1.279999e-01 -1.268310e-01 -1.230501e-01 -1.205244e-01 -1.154676e-01 -1.116523e-01 -1.054121e-01 -1.004249e-01 -9.313974e-02 -8.714496e-02 -7.899331e-02 -7.219319e-02 -6.338509e-02 -5.600842e-02 -4.677378e-02 -3.906198e-02 -2.963768e-02 -2.183015e-02 -1.244716e-02 -4.767429e-03 4.360829e-03 1.171675e-02 2.040359e-02 2.727563e-02 3.536714e-02 4.163575e-02 4.901349e-02 5.460038e-02 6.118073e-02 6.604596e-02 7.177676e-02 7.591295e-02 8.076811e-02 8.419270e-02 8.816564e-02 9.091229e-02 9.400935e-02 9.611955e-02 9.835409e-02 9.986996e-02 1.012579e-01 1.022169e-01 1.027742e-01 1.032062e-01 1.029482e-01 1.028752e-01 1.018185e-01 1.012564e-01 9.942159e-02 9.838471e-02 9.580072e-02 9.430697e-02 9.101624e-02 8.909352e-02 8.515659e-02 8.284883e-02 7.834834e-02 7.572045e-02 7.076347e-02 6.790435e-02 6.262245e-02 5.964507e-02 5.419155e-02 5.122975e-02 4.577370e-02 4.297527e-02 3.769252e-02 3.520881e-02 3.027017e-02 2.824292e-02 2.380069e-02 2.234721e-02 1.852128e-02 1.771974e-02 1.458494e-02 1.446157e-02 1.203805e-02 1.255830e-02 1.080651e-02 1.187184e-02 1.069329e-02 1.214473e-02 1.138901e-02 1.301764e-02 1.249525e-02 1.405890e-02 1.355869e-02 1.480310e-02 1.411218e-02 1.479386e-02 1.371761e-02 1.362563e-02 1.200512e-02 1.097886e-02 8.703730e-03 6.644686e-03 3.660181e-03 5.368525e-04 -3.155126e-03 -7.308952e-03 -1.165399e-02 -1.674624e-02 -2.164523e-02 -2.753597e-02 -3.285484e-02 -3.936805e-02 -4.494785e-02 -5.188310e-02 -5.754914e-02 -6.469179e-02 -7.026137e-02 -7.739102e-02 -8.267937e-02 -8.957647e-02 
-1.054782e-01 -1.127998e-01 -1.175946e-01 -1.241779e-01 -1.280647e-01 -1.336994e-01 -1.365080e-01 -1.410048e-01 -1.425850e-01 -1.457814e-01 -1.460089e-01 -1.477761e-01 -1.465598e-01 -1.468105e-01 -1.440996e-01 -1.427953e-01 -1.385864e-01 -1.357441e-01 -1.300866e-01 -1.257817e-01 -1.187799e-01 -1.131470e-01 -1.049583e-01 -9.818552e-02 -8.901441e-02 -8.133461e-02 -7.142218e-02 -6.309877e-02 -5.270923e-02 -4.401994e-02 -3.342524e-02 -2.464478e-02 -1.410934e-02 -5.493069e-03 4.739900e-03 1.296959e-02 2.268879e-02 3.035219e-02 3.938517e-02 4.635041e-02 5.456648e-02 6.074998e-02 6.805918e-02 7.342197e-02 7.977081e-02 8.431136e-02 8.967613e-02 9.342100e-02 9.779990e-02 1.007934e-01 1.041985e-01 1.064926e-01 1.089428e-01 1.105887e-01 1.121045e-01 1.131465e-01 1.137468e-01 1.142188e-01 1.139206e-01 1.138458e-01 1.126660e-01 1.120593e-01 1.100185e-01 1.088919e-01 1.060196e-01 1.043885e-01 1.007289e-01 9.861994e-02 9.423807e-02 9.169632e-02 8.668268e-02 8.377795e-02 7.825165e-02 7.508228e-02 6.919137e-02 6.588470e-02 5.980326e-02 5.651215e-02 5.043356e-02 4.732842e-02 4.145483e-02 3.871150e-02 3.324009e-02 3.102419e-02 2.613111e-02 2.458041e-02 2.040421e-02 1.961086e-02 1.623732e-02 1.623241e-02 1.368286e-02 1.442569e-02 1.265099e-02 1.402505e-02 1.290647e-02 1.472372e-02 1.408145e-02 1.609500e-02 1.570372e-02 1.762809e-02 1.723803e-02 1.877470e-02 1.813571e-02 1.900069e-02 1.788618e-02 1.783596e-02 1.606347e-02 1.491583e-02 1.236189e-02 1.000919e-02 6.616810e-03 3.030708e-03 -1.190417e-03 -5.962286e-03 -1.094180e-02 -1.678529e-02 -2.240239e-02 -2.915006e-02 -3.524573e-02 -4.269133e-02 -4.908039e-02 -5.699258e-02 -6.347443e-02 -7.160847e-02 -7.797560e-02 -8.608253e-02 -9.212693e-02 -9.996047e-02 
-1.156176e-01 -1.237922e-01 -1.291679e-01 -1.365312e-01 -1.409101e-01 -1.472254e-01 -1.504154e-01 -1.554683e-01 -1.572982e-01 -1.609031e-01 -1.612295e-01 -1.632373e-01 -1.619532e-01 -1.622608e-01 -1.593042e-01 -1.578632e-01 -1.532257e-01 -1.500509e-01 -1.437846e-01 -1.389583e-01 -1.311787e-01 -1.248518e-01 -1.157363e-01 -1.081228e-01 -9.790352e-02 -8.926961e-02 -7.822160e-02 -6.886953e-02 -5.729439e-02 -4.754306e-02 -3.575088e-02 -2.591523e-02 -1.420647e-02 -4.578208e-03 6.772363e-03 1.594079e-02 2.669651e-02 3.520322e-02 4.517342e-02 5.287287e-02 6.191583e-02 6.871910e-02 7.674042e-02 8.261039e-02 8.955753e-02 9.450012e-02 1.003541e-01 1.044068e-01 1.091725e-01 1.123922e-01 1.160886e-01 1.185393e-01 1.211912e-01 1.229342e-01 1.245659e-01 1.256520e-01 1.262840e-01 1.267502e-01 1.263984e-01 1.262674e-01 1.249457e-01 1.242290e-01 1.219540e-01 1.206581e-01 1.174554e-01 1.155901e-01 1.115016e-01 1.090891e-01 1.041803e-01 1.012641e-01 9.563034e-02 9.228339e-02 8.605403e-02 8.238366e-02 7.572301e-02 7.187217e-02 6.497686e-02 6.112067e-02 5.421229e-02 5.054924e-02 4.386250e-02 4.060056e-02 3.436725e-02 3.170561e-02 2.613575e-02 2.424381e-02 1.950570e-02 1.850163e-02 1.470335e-02 1.463500e-02 1.180978e-02 1.264098e-02 1.073909e-02 1.234374e-02 1.123262e-02 1.339864e-02 1.287217e-02 1.531570e-02 1.511212e-02 1.750109e-02 1.732784e-02 1.931221e-02 1.887461e-02 2.011950e-02 1.914950e-02 1.936646e-02 1.764749e-02 1.661977e-02 1.400458e-02 1.160309e-02 8.022593e-03 4.211380e-03 -3.253945e-04 -5.493480e-03 -1.090703e-02 -1.730211e-02 -2.345504e-02 -3.088631e-02 -3.759805e-02 -4.583119e-02 -5.289235e-02 -6.166563e-02 -6.885039e-02 -7.788813e-02 -8.496385e-02 -9.398669e-02 -1.007208e-01 -1.094530e-01 
-1.274964e-01 -1.366658e-01 -1.427530e-01 -1.510112e-01 -1.559886e-01 -1.630749e-01 -1.667296e-01 -1.724068e-01 -1.745476e-01 -1.786085e-01 -1.790734e-01 -1.813497e-01 -1.800156e-01 -1.803891e-01 -1.771822e-01 -1.755956e-01 -1.705025e-01 -1.669694e-01 -1.600450e-01 -1.546565e-01 -1.460289e-01 -1.389551e-01 -1.288240e-01 -1.203083e-01 -1.089374e-01 -9.928378e-02 -8.698663e-02 -7.654081e-02 -6.366163e-02 -5.278813e-02 -3.968042e-02 -2.873817e-02 -1.574327e-02 -5.062975e-03 7.508689e-03 1.764321e-02 2.952656e-02 3.889125e-02 4.987544e-02 5.831238e-02 6.824390e-02 7.566109e-02 8.444145e-02 9.080673e-02 9.838556e-02 1.037158e-01 1.100808e-01 1.144284e-01 1.195935e-01 1.230313e-01 1.270251e-01 1.296323e-01 1.324881e-01 1.343385e-01 1.360870e-01 1.372400e-01 1.379051e-01 1.384021e-01 1.380004e-01 1.378640e-01 1.364083e-01 1.356464e-01 1.331506e-01 1.317640e-01 1.282512e-01 1.262432e-01 1.217546e-01 1.191420e-01 1.137451e-01 1.105697e-01 1.043663e-01 1.007038e-01 9.383538e-02 8.980243e-02 8.245143e-02 7.820725e-02 7.059479e-02 6.633774e-02 5.871528e-02 5.467293e-02 4.730874e-02 4.372171e-02 3.688220e-02 3.398266e-02 2.791010e-02 2.589681e-02 2.078560e-02 1.979817e-02 1.577257e-02 1.586843e-02 1.296496e-02 1.410258e-02 1.226011e-02 1.429173e-02 1.335157e-02 1.602781e-02 1.574481e-02 1.873178e-02 1.879606e-02 2.170381e-02 2.177076e-02 2.418991e-02 2.391473e-02 2.545635e-02 2.452847e-02 2.486137e-02 2.303385e-02 2.191413e-02 1.902402e-02 1.631281e-02 1.229043e-02 7.958688e-03 2.825802e-03 -3.052799e-03 -9.193695e-03 -1.645855e-02 -2.344061e-02 -3.186458e-02 -3.947487e-02 -4.878539e-02 -5.678216e-02 -6.668012e-02 -7.480697e-02 -8.498185e-02 -9.297814e-02 -1.031188e-01 -1.107265e-01 -1.205283e-01 
-1.381811e-01 -1.483332e-01 -1.551062e-01 -1.642674e-01 -1.698357e-01 -1.777161e-01 -1.818417e-01 -1.881750e-01 -1.906418e-01 -1.951928e-01 -1.958150e-01 -1.983902e-01 -1.970235e-01 -1.974833e-01 -1.940381e-01 -1.923105e-01 -1.867644e-01 -1.828579e-01 -1.752666e-01 -1.692786e-01 -1.597822e-01 -1.519015e-01 -1.407234e-01 -1.312250e-01 -1.186632e-01 -1.078932e-01 -9.430360e-02 -8.265715e-02 -6.843141e-02 -5.632544e-02 -4.186489e-02 -2.970924e-02 -1.539987e-02 -3.570443e-03 1.023921e-02 2.142227e-02 3.443774e-02 4.472494e-02 5.671577e-02 6.593533e-02 7.673817e-02 8.479527e-02 9.431045e-02 1.011796e-01 1.093623e-01 1.150740e-01 1.219221e-01 1.265464e-01 1.320858e-01 1.357147e-01 1.399855e-01 1.427156e-01 1.457605e-01 1.476793e-01 1.495343e-01 1.507103e-01 1.514008e-01 1.518782e-01 1.514184e-01 1.512175e-01 1.496140e-01 1.487359e-01 1.459949e-01 1.444302e-01 1.405667e-01 1.383077e-01 1.333559e-01 1.304098e-01 1.244339e-01 1.208362e-01 1.139401e-01 1.097667e-01 1.021007e-01 9.747602e-02 8.924007e-02 8.434058e-02 7.578189e-02 7.083269e-02 6.223723e-02 5.750145e-02 4.917876e-02 4.493926e-02 3.720103e-02 3.373545e-02 2.686934e-02 2.442058e-02 1.866191e-02 1.740722e-02 1.291189e-02 1.293455e-02 9.757044e-03 1.102509e-02 9.105386e-03 1.146127e-02 1.062349e-02 1.378785e-02 1.375220e-02 1.734270e-02 1.775032e-02 2.131469e-02 2.176292e-02 2.482226e-02 2.490588e-02 2.700254e-02 2.635518e-02 2.709800e-02 2.542767e-02 2.452776e-02 2.164143e-02 1.893362e-02 1.474804e-02 1.019623e-02 4.735161e-03 -1.576959e-03 -8.196342e-03 -1.608494e-02 -2.367226e-02 -3.287834e-02 -4.119214e-02 -5.140688e-02 -6.017500e-02 -7.106194e-02 -7.999784e-02 -9.121002e-02 -1.000243e-01 -1.112160e-01 -1.196235e-01 -1.304576e-01 
-1.510293e-01 -1.623251e-01 -1.699335e-01 -1.801270e-01 -1.864077e-01 -1.951830e-01 -1.998749e-01 -2.069398e-01 -2.098030e-01 -2.148965e-01 -2.157218e-01 -2.186256e-01 -2.172472e-01 -2.178009e-01 -2.141116e-01 -2.122291e-01 -2.061966e-01 -2.018816e-01 -1.935622e-01 -1.869202e-01 -1.764669e-01 -1.677090e-01 -1.553717e-01 -1.448090e-01 -1.309249e-01 -1.189516e-01 -1.039255e-01 -9.099265e-02 -7.527033e-02 -6.185353e-02 -4.589140e-02 -3.245649e-02 -1.669165e-02 -3.663272e-03 1.151229e-02 2.377597e-02 3.803451e-02 4.925874e-02 6.234788e-02 7.234890e-02 8.409469e-02 9.277813e-02 1.030804e-01 1.104316e-01 1.192531e-01 1.253211e-01 1.326726e-01 1.375503e-01 1.434730e-01 1.472760e-01 1.518252e-01 1.546718e-01 1.579025e-01 1.598974e-01 1.618545e-01 1.630771e-01 1.637899e-01 1.642888e-01 1.637709e-01 1.635645e-01 1.618186e-01 1.609004e-01 1.579263e-01 1.562762e-01 1.520820e-01 1.496799e-01 1.442947e-01 1.411368e-01 1.346231e-01 1.307381e-01 1.232038e-01 1.186670e-01 1.102739e-01 1.052180e-01 9.618591e-02 9.080574e-02 8.141079e-02 7.596011e-02 6.652544e-02 6.130509e-02 5.218370e-02 4.752059e-02 3.907043e-02 3.528828e-02 2.784148e-02 2.522576e-02 1.905485e-02 1.781567e-02 1.310107e-02 1.333899e-02 1.014236e-02 1.182228e-02 1.007046e-02 1.300885e-02 1.249202e-02 1.636106e-02 1.674707e-02 2.109739e-02 2.196175e-02 2.626233e-02 2.713094e-02 3.082167e-02 3.122065e-02 3.377025e-02 3.327572e-02 3.423584e-02 3.251597e-02 3.156318e-02 2.840635e-02 2.536581e-02 2.069149e-02 1.554055e-02 9.393372e-03 2.247525e-03 -5.221546e-03 -1.413484e-02 -2.269460e-02 -3.306737e-02 -4.243383e-02 -5.390828e-02 -6.376891e-02 -7.596312e-02 -8.599532e-02 -9.852213e-02 -1.084053e-01 -1.208842e-01 -1.303061e-01 -1.423695e-01 
-1.623787e-01 -1.748170e-01 -1.832411e-01 -1.944903e-01 -2.014858e-01 -2.111976e-01 -2.164748e-01 -2.243236e-01 -2.276129e-01 -2.333038e-01 -2.343657e-01 -2.376479e-01 -2.362883e-01 -2.369721e-01 -2.330607e-01 -2.310382e-01 -2.245276e-01 -2.197921e-01 -2.107358e-01 -2.033971e-01 -1.919604e-01 -1.822512e-01 -1.687124e-01 -1.569830e-01 -1.417225e-01 -1.284211e-01 -1.118985e-01 -9.754055e-02 -8.026279e-02 -6.539217e-02 -4.787722e-02 -3.302544e-02 -1.576684e-02 -1.415828e-03 1.514754e-02 2.859502e-02 4.410088e-02 5.634071e-02 7.051582e-02 8.135071e-02 9.401349e-02 1.033504e-01 1.144046e-01 1.222427e-01 1.316638e-01 1.380748e-01 1.458915e-01 1.509958e-01 1.572689e-01 1.612103e-01 1.660131e-01 1.689350e-01 1.723364e-01 1.743625e-01 1.764152e-01 1.776364e-01 1.783709e-01 1.788389e-01 1.782640e-01 1.779918e-01 1.761002e-01 1.750695e-01 1.718476e-01 1.700215e-01 1.654630e-01 1.628028e-01 1.569235e-01 1.534080e-01 1.462613e-01 1.419062e-01 1.335974e-01 1.284730e-01 1.191706e-01 1.134150e-01 1.033567e-01 9.718321e-02 8.667514e-02 8.036960e-02 6.977739e-02 6.368583e-02 5.341528e-02 4.792037e-02 3.838922e-02 3.387657e-02 2.547849e-02 2.229544e-02 1.535986e-02 1.377101e-02 8.523682e-03 8.669061e-03 5.198893e-03 7.061052e-03 5.299099e-03 8.685382e-03 8.400497e-03 1.294536e-02 1.375921e-02 1.894892e-02 2.037024e-02 2.558897e-02 2.706371e-02 3.165582e-02 3.262675e-02 3.596656e-02 3.593352e-02 3.749131e-02 3.606237e-02 3.545565e-02 3.238120e-02 2.940339e-02 2.458881e-02 1.921286e-02 1.271033e-02 5.070495e-03 -2.944984e-03 -1.258598e-02 -2.184893e-02 -3.313855e-02 -4.332630e-02 -5.585904e-02 -6.662036e-02 -7.996788e-02 -9.094404e-02 -1.046763e-01 -1.155140e-01 -1.292117e-01 -1.395693e-01 -1.528298e-01 