# vtk DataFile Version 2.0
Comment goes here
ASCII

DATASET STRUCTURED_POINTS
FIELD FieldData 1
TIME 1 1 double
0.21500000
DIMENSIONS    128   128   1

ORIGIN    0.000   0.000   0.000
SPACING   0.039062 0.039062   1.000

POINT_DATA   16384
SCALARS uY double
LOOKUP_TABLE default

-3.765184e-14 -3.892904e-14 -3.798505e-14 -3.933130e-14 -3.874921e-14 -3.945129e-14 -3.907886e-14 -3.983276e-14 -3.982878e-14 -4.059478e-14 -4.121875e-14 -4.197430e-14 -4.299650e-14 -4.336788e-14 -4.434515e-14 -4.437154e-14 -4.590335e-14 -4.546800e-14 -4.746116e-14 -4.738143e-14 -4.859825e-14 -4.866684e-14 -5.117001e-14 -5.020283e-14 -5.222748e-14 -5.058181e-14 -5.300499e-14 -5.058104e-14 -5.194144e-14 -4.959125e-14 -5.213607e-14 -4.894825e-14 -5.221548e-14 -4.911911e-14 -5.328450e-14 -5.003192e-14 -5.414617e-14 -5.109753e-14 -5.416957e-14 -4.977245e-14 -5.392622e-14 -4.865369e-14 -5.261215e-14 -4.813081e-14 -5.104073e-14 -4.541708e-14 -4.943911e-14 -4.327044e-14 -4.892637e-14 -4.241076e-14 -4.804594e-14 -4.146730e-14 -4.694703e-14 -4.018802e-14 -4.501978e-14 -3.874381e-14 -4.367187e-14 -3.724375e-14 -4.140532e-14 -3.444269e-14 -3.984771e-14 -3.338552e-14 -3.791186e-14 -3.139248e-14 -3.543357e-14 -3.058273e-14 -3.505883e-14 -3.095810e-14 -3.381456e-14 -3.105014e-14 -3.513909e-14 -3.215842e-14 -3.608817e-14 -3.501332e-14 -3.829208e-14 -3.750881e-14 -3.801754e-14 -4.085236e-14 -4.117759e-14 -4.251879e-14 -4.202813e-14 -4.452948e-14 -4.260748e-14 -4.685676e-14 -4.468571e-14 -4.865215e-14 -4.560252e-14 -5.060170e-14 -4.639285e-14 -5.165911e-14 -4.541398e-14 -5.022043e-14 -4.439042e-14 -5.194219e-14 -4.522155e-14 -5.237100e-14 -4.519420e-14 -5.203672e-14 -4.615454e-14 -5.233925e-14 -4.526276e-14 -5.034259e-14 -4.311803e-14 -4.821266e-14 -4.053338e-14 -4.595941e-14 -3.849138e-14 -4.354068e-14 -3.676063e-14 -4.192851e-14 -3.618119e-14 -4.075551e-14 -3.556228e-14 -3.992684e-14 -3.538435e-14 -3.948049e-14 -3.561556e-14 -3.939413e-14 -3.589494e-14 -3.892028e-14 -3.596636e-14 -3.853939e-14 -3.569934e-14 -3.811962e-14 -3.617182e-14 -3.841890e-14 -3.700341e-14 -3.893846e-14 
-1.100997e-02 -1.125910e-02 -1.146510e-02 -1.162350e-02 -1.174390e-02 -1.180437e-02 -1.183201e-02 -1.178920e-02 -1.171895e-02 -1.156972e-02 -1.139883e-02 -1.114261e-02 -1.087112e-02 -1.051024e-02 -1.014123e-02 -9.681180e-03 -9.220971e-03 -8.670482e-03 -8.128630e-03 -7.499602e-03 -6.888715e-03 -6.195920e-03 -5.531251e-03 -4.791830e-03 -4.090669e-03 -3.323438e-03 -2.604348e-03 -1.828965e-03 -1.110902e-03 -3.469662e-04 3.516197e-04 1.085474e-03 1.747500e-03 2.434429e-03 3.044929e-03 3.670580e-03 4.217282e-03 4.770313e-03 5.244034e-03 5.716445e-03 6.111276e-03 6.498539e-03 6.811829e-03 7.112832e-03 7.345008e-03 7.561845e-03 7.716081e-03 7.853696e-03 7.935484e-03 8.001223e-03 8.017881e-03 8.020967e-03 7.981115e-03 7.932088e-03 7.845133e-03 7.755266e-03 7.630927e-03 7.511659e-03 7.359535e-03 7.221928e-03 7.051147e-03 6.905401e-03 6.724331e-03 6.579362e-03 6.395405e-03 6.258510e-03 6.077960e-03 5.954585e-03 5.782544e-03 5.676143e-03 5.516490e-03 5.428499e-03 5.283879e-03 5.213779e-03 5.085616e-03 5.031081e-03 4.919593e-03 4.876701e-03 4.780912e-03 4.744400e-03 4.662152e-03 4.625700e-03 4.553669e-03 4.510197e-03 4.443937e-03 4.385915e-03 4.319943e-03 4.239698e-03 4.167652e-03 4.057697e-03 3.972570e-03 3.825932e-03 3.720405e-03 3.530961e-03 3.397809e-03 3.160625e-03 2.993179e-03 2.704820e-03 2.497449e-03 2.156244e-03 1.904806e-03 1.511050e-03 1.213265e-03 7.693225e-04 4.250435e-04 -6.464801e-05 -4.533132e-04 -9.823461e-04 -1.411046e-03 -1.971244e-03 -2.433530e-03 -3.015223e-03 -3.502805e-03 -4.095152e-03 -4.598222e-03 -5.189549e-03 -5.697144e-03 -6.275276e-03 -6.775639e-03 -7.328202e-03 -7.809134e-03 -8.323817e-03 -8.772988e-03 -9.237778e-03 -9.643015e-03 -1.004640e-02 -1.039596e-02 -1.072715e-02 
-2.206945e-02 -2.257301e-02 -2.298420e-02 -2.330606e-02 -2.354563e-02 -2.367129e-02 -2.372483e-02 -2.364348e-02 -2.350058e-02 -2.320580e-02 -2.286089e-02 -2.235143e-02 -2.180448e-02 -2.108490e-02 -2.034203e-02 -1.942325e-02 -1.849707e-02 -1.739655e-02 -1.630622e-02 -1.504777e-02 -1.381861e-02 -1.243186e-02 -1.109452e-02 -9.613864e-03 -8.203148e-03 -6.666362e-03 -5.219619e-03 -3.666193e-03 -2.221588e-03 -6.908812e-04 7.144393e-04 2.185009e-03 3.516652e-03 4.893280e-03 6.121115e-03 7.375013e-03 8.474341e-03 9.582781e-03 1.053512e-02 1.148209e-02 1.227555e-02 1.305202e-02 1.368125e-02 1.428504e-02 1.475088e-02 1.518623e-02 1.549504e-02 1.577189e-02 1.593469e-02 1.606779e-02 1.609922e-02 1.610708e-02 1.602444e-02 1.592818e-02 1.575032e-02 1.557252e-02 1.531895e-02 1.508250e-02 1.477248e-02 1.449954e-02 1.415140e-02 1.386237e-02 1.349296e-02 1.320567e-02 1.282990e-02 1.255894e-02 1.218953e-02 1.194577e-02 1.159308e-02 1.138340e-02 1.105534e-02 1.088257e-02 1.058460e-02 1.044767e-02 1.018281e-02 1.007701e-02 9.845879e-03 9.763296e-03 9.564120e-03 9.494180e-03 9.322799e-03 9.252810e-03 9.102715e-03 9.018472e-03 8.880881e-03 8.767276e-03 8.631302e-03 8.472950e-03 8.325897e-03 8.107781e-03 7.935623e-03 7.643750e-03 7.431782e-03 7.053865e-03 6.787524e-03 6.313649e-03 5.979448e-03 5.402698e-03 4.989198e-03 4.306198e-03 3.804924e-03 3.016235e-03 2.422449e-03 1.532790e-03 8.460311e-04 -1.357174e-04 -9.113613e-04 -1.972362e-03 -2.828279e-03 -3.952140e-03 -4.875485e-03 -6.042814e-03 -7.017021e-03 -8.206073e-03 -9.211511e-03 -1.039888e-02 -1.141358e-02 -1.257484e-02 -1.357525e-02 -1.468559e-02 -1.564724e-02 -1.668198e-02 -1.758014e-02 -1.851519e-02 -1.932545e-02 -2.013772e-02 -2.083651e-02 -2.150433e-02 
-3.318884e-02 -3.394489e-02 -3.457169e-02 -3.505405e-02 -3.542240e-02 -3.560916e-02 -3.569722e-02 -3.557195e-02 -3.536392e-02 -3.491680e-02 -3.440411e-02 -3.363311e-02 -3.281555e-02 -3.172743e-02 -3.061408e-02 -2.922520e-02 -2.783501e-02 -2.617165e-02 -2.453348e-02 -2.263163e-02 -2.078371e-02 -1.868819e-02 -1.667689e-02 -1.443981e-02 -1.231777e-02 -9.996415e-03 -7.820187e-03 -5.474435e-03 -3.301796e-03 -9.913463e-04 1.121497e-03 3.339911e-03 5.340966e-03 7.416120e-03 9.259898e-03 1.114821e-02 1.279751e-02 1.446462e-02 1.589171e-02 1.731349e-02 1.850065e-02 1.966357e-02 2.060303e-02 2.150396e-02 2.219733e-02 2.284291e-02 2.330013e-02 2.370564e-02 2.394370e-02 2.413169e-02 2.417304e-02 2.417175e-02 2.404278e-02 2.388442e-02 2.361382e-02 2.333277e-02 2.295013e-02 2.258125e-02 2.211573e-02 2.169270e-02 2.117197e-02 2.072580e-02 2.017518e-02 1.973296e-02 1.917479e-02 1.875866e-02 1.821190e-02 1.783832e-02 1.731832e-02 1.699769e-02 1.651608e-02 1.625264e-02 1.581735e-02 1.560938e-02 1.522468e-02 1.506500e-02 1.473151e-02 1.460810e-02 1.432288e-02 1.421966e-02 1.397624e-02 1.387395e-02 1.366229e-02 1.353940e-02 1.334609e-02 1.317967e-02 1.298811e-02 1.275485e-02 1.254570e-02 1.222279e-02 1.197471e-02 1.154090e-02 1.123154e-02 1.066812e-02 1.027533e-02 9.567197e-03 9.070488e-03 8.207067e-03 7.589099e-03 6.565180e-03 5.813147e-03 4.629506e-03 3.736306e-03 2.400036e-03 1.365094e-03 -1.103882e-04 -1.280732e-03 -2.876005e-03 -4.168549e-03 -5.858809e-03 -7.253957e-03 -9.009871e-03 -1.048242e-02 -1.227113e-02 -1.379130e-02 -1.557745e-02 -1.711199e-02 -1.885875e-02 -2.037204e-02 -2.204202e-02 -2.349715e-02 -2.505320e-02 -2.641288e-02 -2.781875e-02 -2.904620e-02 -3.026715e-02 -3.132687e-02 -3.233030e-02 
-4.445718e-02 -4.548175e-02 -4.632180e-02 -4.697999e-02 -4.747354e-02 -4.773569e-02 -4.785314e-02 -4.769686e-02 -4.741664e-02 -4.682834e-02 -4.613855e-02 -4.511504e-02 -4.401502e-02 -4.256496e-02 -4.106659e-02 -3.921159e-02 -3.734008e-02 -3.511520e-02 -3.290923e-02 -3.036272e-02 -2.787374e-02 -2.506583e-02 -2.235638e-02 -1.935728e-02 -1.649849e-02 -1.338543e-02 -1.045378e-02 -7.307557e-03 -4.381198e-03 -1.282354e-03 1.562687e-03 4.537649e-03 7.231081e-03 1.001315e-02 1.249354e-02 1.502409e-02 1.724125e-02 1.947418e-02 2.139079e-02 2.329381e-02 2.488610e-02 2.644125e-02 2.769891e-02 2.890228e-02 2.982764e-02 3.068841e-02 3.129505e-02 3.183402e-02 3.214495e-02 3.239265e-02 3.243825e-02 3.243283e-02 3.224867e-02 3.203353e-02 3.165831e-02 3.127977e-02 3.075332e-02 3.025825e-02 2.961984e-02 2.905352e-02 2.834038e-02 2.774446e-02 2.699069e-02 2.640151e-02 2.563723e-02 2.508444e-02 2.433525e-02 2.384086e-02 2.312755e-02 2.270537e-02 2.204378e-02 2.169935e-02 2.110038e-02 2.083124e-02 2.030091e-02 2.009720e-02 1.963673e-02 1.948214e-02 1.908794e-02 1.896074e-02 1.862447e-02 1.849869e-02 1.820725e-02 1.805385e-02 1.778953e-02 1.757768e-02 1.731839e-02 1.701667e-02 1.673657e-02 1.631429e-02 1.598465e-02 1.541316e-02 1.500376e-02 1.425781e-02 1.373860e-02 1.279774e-02 1.214077e-02 1.099062e-02 1.017209e-02 8.805513e-03 7.807709e-03 6.225602e-03 5.038496e-03 3.250289e-03 1.872692e-03 -1.036444e-04 -1.663537e-03 -3.801927e-03 -5.526600e-03 -7.793706e-03 -9.656959e-03 -1.201335e-02 -1.398139e-02 -1.638289e-02 -1.841573e-02 -2.081486e-02 -2.286782e-02 -2.521514e-02 -2.724041e-02 -2.948575e-02 -3.143377e-02 -3.352732e-02 -3.534806e-02 -3.724122e-02 -3.888531e-02 -4.053150e-02 -4.195126e-02 -4.330671e-02 
-5.584696e-02 -5.713625e-02 -5.821055e-02 -5.903876e-02 -5.967688e-02 -6.000635e-02 -6.017061e-02 -5.997270e-02 -5.963544e-02 -5.889250e-02 -5.803819e-02 -5.674565e-02 -5.537292e-02 -5.354121e-02 -5.166458e-02 -4.932059e-02 -4.697155e-02 -4.415933e-02 -4.138663e-02 -3.816714e-02 -3.503583e-02 -3.148547e-02 -2.807490e-02 -2.428288e-02 -2.068340e-02 -1.674803e-02 -1.305689e-02 -9.081059e-03 -5.397631e-03 -1.483912e-03 2.095193e-03 5.849422e-03 9.235011e-03 1.274201e-02 1.585630e-02 1.904167e-02 2.182133e-02 2.462672e-02 2.702494e-02 2.940969e-02 3.139698e-02 3.333873e-02 3.490281e-02 3.639711e-02 3.754176e-02 3.860084e-02 3.934411e-02 3.999498e-02 4.036685e-02 4.064885e-02 4.068853e-02 4.065065e-02 4.040384e-02 4.010170e-02 3.961785e-02 3.911070e-02 3.844056e-02 3.778833e-02 3.698171e-02 3.624218e-02 3.534614e-02 3.457243e-02 3.362987e-02 3.286825e-02 3.191687e-02 3.120503e-02 3.027670e-02 2.964252e-02 2.876293e-02 2.822382e-02 2.741235e-02 2.697516e-02 2.624497e-02 2.590634e-02 2.526445e-02 2.501166e-02 2.445910e-02 2.427124e-02 2.380309e-02 2.365240e-02 2.325779e-02 2.311118e-02 2.277330e-02 2.259384e-02 2.229005e-02 2.203853e-02 2.174065e-02 2.137711e-02 2.105216e-02 2.053750e-02 2.014880e-02 1.944646e-02 1.895536e-02 1.803304e-02 1.740107e-02 1.623252e-02 1.542389e-02 1.399058e-02 1.297482e-02 1.126738e-02 1.002186e-02 8.041223e-03 6.553193e-03 4.311168e-03 2.579234e-03 9.853632e-05 -1.866677e-03 -4.552990e-03 -6.728967e-03 -9.578610e-03 -1.193181e-02 -1.489479e-02 -1.738210e-02 -2.040249e-02 -2.297301e-02 -2.599078e-02 -2.858786e-02 -3.154061e-02 -3.410373e-02 -3.692827e-02 -3.939485e-02 -4.202849e-02 -4.433546e-02 -4.671710e-02 -4.880227e-02 -5.087337e-02 -5.267669e-02 -5.438217e-02 
-6.748643e-02 -6.906747e-02 -7.037245e-02 -7.139660e-02 -7.217372e-02 -7.259475e-02 -7.279766e-02 -7.258004e-02 -7.217437e-02 -7.129573e-02 -7.026171e-02 -6.871549e-02 -6.705052e-02 -6.484839e-02 -6.256928e-02 -5.974303e-02 -5.688748e-02 -5.349003e-02 -5.011698e-02 -4.622215e-02 -4.241081e-02 -3.811156e-02 -3.395887e-02 -2.936408e-02 -2.498074e-02 -2.021060e-02 -1.571588e-02 -1.089631e-02 -6.412160e-03 -1.668645e-03 2.686421e-03 7.234823e-03 1.135151e-02 1.559770e-02 1.938085e-02 2.323423e-02 2.660661e-02 2.999637e-02 3.290107e-02 3.577819e-02 3.817968e-02 4.051752e-02 4.240134e-02 4.419519e-02 4.556655e-02 4.683199e-02 4.771351e-02 4.848407e-02 4.891279e-02 4.923697e-02 4.926113e-02 4.919901e-02 4.887461e-02 4.849424e-02 4.788177e-02 4.725553e-02 4.641689e-02 4.561786e-02 4.461374e-02 4.371233e-02 4.260002e-02 4.166083e-02 4.049253e-02 3.957177e-02 3.839334e-02 3.753670e-02 3.638694e-02 3.562809e-02 3.453832e-02 3.389812e-02 3.289211e-02 3.237850e-02 3.147252e-02 3.108102e-02 3.028402e-02 2.999874e-02 2.931249e-02 2.910763e-02 2.852673e-02 2.836823e-02 2.788013e-02 2.772753e-02 2.731245e-02 2.712067e-02 2.675165e-02 2.647288e-02 2.611609e-02 2.570163e-02 2.531711e-02 2.471925e-02 2.426230e-02 2.343636e-02 2.285955e-02 2.176595e-02 2.102180e-02 1.962825e-02 1.867230e-02 1.695586e-02 1.575003e-02 1.369892e-02 1.221462e-02 9.829641e-03 8.050419e-03 5.345681e-03 3.269063e-03 2.720588e-04 -2.089586e-03 -5.338697e-03 -7.958313e-03 -1.140808e-02 -1.424503e-02 -1.783463e-02 -2.083649e-02 -2.449789e-02 -2.760279e-02 -3.126308e-02 -3.440212e-02 -3.798561e-02 -4.108529e-02 -4.451542e-02 -4.749982e-02 -5.070073e-02 -5.349341e-02 -5.639121e-02 -5.891678e-02 -6.144064e-02 -6.362631e-02 -6.570949e-02 
-7.931205e-02 -8.117941e-02 -8.274689e-02 -8.395858e-02 -8.490413e-02 -8.540495e-02 -8.567305e-02 -8.542013e-02 -8.496916e-02 -8.393494e-02 -8.274038e-02 -8.091587e-02 -7.897345e-02 -7.637129e-02 -7.369985e-02 -7.035670e-02 -6.700008e-02 -6.297806e-02 -5.900575e-02 -5.439222e-02 -4.989819e-02 -4.480379e-02 -3.990357e-02 -3.445832e-02 -2.928415e-02 -2.363187e-02 -1.832643e-02 -1.261792e-02 -7.327088e-03 -1.712687e-03 3.421894e-03 8.799725e-03 1.364767e-02 1.866099e-02 2.310913e-02 2.765000e-02 3.160693e-02 3.559133e-02 3.899024e-02 4.236041e-02 4.516023e-02 4.788537e-02 5.007035e-02 5.214589e-02 5.372384e-02 5.516949e-02 5.616891e-02 5.702580e-02 5.749230e-02 5.781936e-02 5.781167e-02 5.768155e-02 5.726738e-02 5.676216e-02 5.601426e-02 5.522101e-02 5.421348e-02 5.322002e-02 5.202514e-02 5.091592e-02 4.960159e-02 4.845400e-02 4.708173e-02 4.596298e-02 4.458649e-02 4.355102e-02 4.221543e-02 4.130323e-02 4.004464e-02 3.928026e-02 3.812577e-02 3.751822e-02 3.648609e-02 3.602953e-02 3.512944e-02 3.480447e-02 3.403776e-02 3.381319e-02 3.317294e-02 3.300786e-02 3.247882e-02 3.232477e-02 3.188324e-02 3.168639e-02 3.130019e-02 3.100345e-02 3.063218e-02 3.017737e-02 2.977321e-02 2.910326e-02 2.861253e-02 2.767385e-02 2.703945e-02 2.578439e-02 2.494899e-02 2.333849e-02 2.224837e-02 2.025446e-02 1.886356e-02 1.647163e-02 1.474538e-02 1.195590e-02 9.874460e-03 6.703941e-03 4.264408e-03 7.454326e-04 -2.037150e-03 -5.856782e-03 -8.949720e-03 -1.300872e-02 -1.636308e-02 -2.058903e-02 -2.414196e-02 -2.845403e-02 -3.213157e-02 -3.644329e-02 -4.016343e-02 -4.438531e-02 -4.806083e-02 -5.210255e-02 -5.564365e-02 -5.941591e-02 -6.273234e-02 -6.614825e-02 -6.915115e-02 -7.212743e-02 -7.473099e-02 -7.718909e-02 
-9.149016e-02 -9.368238e-02 -9.550812e-02 -9.694444e-02 -9.805144e-02 -9.866688e-02 -9.898960e-02 -9.873297e-02 -9.822160e-02 -9.705920e-02 -9.568350e-02 -9.360293e-02 -9.135618e-02 -8.837019e-02 -8.527265e-02 -8.142223e-02 -7.752368e-02 -7.287986e-02 -6.826051e-02 -6.292442e-02 -5.769376e-02 -5.179430e-02 -4.608767e-02 -3.977701e-02 -3.374983e-02 -2.719671e-02 -2.101696e-02 -1.439850e-02 -8.238040e-03 -1.730761e-03 4.243653e-03 1.047265e-02 1.610778e-02 2.190878e-02 2.707198e-02 3.231911e-02 3.690367e-02 4.149943e-02 4.542785e-02 4.930580e-02 5.253105e-02 5.565644e-02 5.816131e-02 6.053016e-02 6.232503e-02 6.396171e-02 6.508111e-02 6.603482e-02 6.653314e-02 6.687372e-02 6.682044e-02 6.663352e-02 6.610836e-02 6.549032e-02 6.457861e-02 6.363150e-02 6.241987e-02 6.124638e-02 5.981917e-02 5.851793e-02 5.695418e-02 5.561543e-02 5.398665e-02 5.268858e-02 5.105715e-02 4.986296e-02 4.828126e-02 4.723709e-02 4.574708e-02 4.488096e-02 4.351425e-02 4.283598e-02 4.161405e-02 4.111607e-02 4.005066e-02 3.970962e-02 3.880296e-02 3.858187e-02 3.782679e-02 3.767744e-02 3.705724e-02 3.692282e-02 3.641098e-02 3.622855e-02 3.578858e-02 3.549151e-02 3.507706e-02 3.459744e-02 3.415312e-02 3.342425e-02 3.288734e-02 3.184640e-02 3.114961e-02 2.974056e-02 2.881585e-02 2.699248e-02 2.577561e-02 2.350457e-02 2.194002e-02 1.920355e-02 1.724922e-02 1.404721e-02 1.167836e-02 8.029579e-03 5.241593e-03 1.183750e-03 -2.006681e-03 -6.417956e-03 -9.973146e-03 -1.466640e-02 -1.852943e-02 -2.342022e-02 -2.751778e-02 -3.251196e-02 -3.675781e-02 -4.175488e-02 -4.605349e-02 -5.094962e-02 -5.519963e-02 -5.989033e-02 -6.398756e-02 -6.836965e-02 -7.220959e-02 -7.618280e-02 -7.966264e-02 -8.313083e-02 -8.615120e-02 -8.902351e-02 
-1.039238e-01 -1.064341e-01 -1.085612e-01 -1.102115e-01 -1.115200e-01 -1.122350e-01 -1.126485e-01 -1.123681e-01 -1.118280e-01 -1.105115e-01 -1.089808e-01 -1.066118e-01 -1.040808e-01 -1.006715e-01 -9.716139e-02 -9.275700e-02 -8.832332e-02 -8.300416e-02 -7.773823e-02 -7.162004e-02 -6.564777e-02 -5.887931e-02 -5.235720e-02 -4.511487e-02 -3.822334e-02 -3.070333e-02 -2.363769e-02 -1.604615e-02 -9.006255e-03 -1.548650e-03 5.271821e-03 1.240127e-02 1.882477e-02 2.545245e-02 3.132593e-02 3.730643e-02 4.250752e-02 4.772885e-02 5.216961e-02 5.655617e-02 6.018438e-02 6.369763e-02 6.649585e-02 6.913303e-02 7.111591e-02 7.290712e-02 7.411716e-02 7.512123e-02 7.562368e-02 7.592315e-02 7.580036e-02 7.549588e-02 7.484159e-02 7.404610e-02 7.295997e-02 7.179270e-02 7.037537e-02 6.895610e-02 6.730496e-02 6.574851e-02 6.395428e-02 6.236552e-02 6.050972e-02 5.897930e-02 5.713253e-02 5.573344e-02 5.395443e-02 5.273966e-02 5.107497e-02 5.007631e-02 4.856055e-02 4.778851e-02 4.644476e-02 4.588970e-02 4.473007e-02 4.436410e-02 4.339016e-02 4.316977e-02 4.237263e-02 4.224157e-02 4.160173e-02 4.149400e-02 4.098092e-02 4.082363e-02 4.039535e-02 4.011142e-02 3.971448e-02 3.922532e-02 3.879551e-02 3.802374e-02 3.748799e-02 3.636047e-02 3.564000e-02 3.409115e-02 3.310599e-02 3.108140e-02 2.975584e-02 2.721586e-02 2.548437e-02 2.240742e-02 2.022029e-02 1.660543e-02 1.393350e-02 9.801859e-03 6.639718e-03 2.034647e-03 -1.597979e-03 -6.612217e-03 -1.067103e-02 -1.601178e-02 -2.043016e-02 -2.599986e-02 -3.069236e-02 -3.638250e-02 -4.124908e-02 -4.694419e-02 -5.187458e-02 -5.745580e-02 -6.233353e-02 -6.768165e-02 -7.238749e-02 -7.738516e-02 -8.179986e-02 -8.633323e-02 -9.033968e-02 -9.429962e-02 -9.778462e-02 -1.010678e-01 
-1.168155e-01 -1.196946e-01 -1.221189e-01 -1.240323e-01 -1.255347e-01 -1.263957e-01 -1.268880e-01 -1.266260e-01 -1.260392e-01 -1.246054e-01 -1.228947e-01 -1.202670e-01 -1.174182e-01 -1.136074e-01 -1.096416e-01 -1.046960e-01 -9.967422e-02 -9.368296e-02 -8.770779e-02 -8.080153e-02 -7.401623e-02 -6.636440e-02 -5.894839e-02 -5.075310e-02 -4.291409e-02 -3.440085e-02 -2.636421e-02 -1.777029e-02 -9.766756e-03 -1.328553e-03 6.418487e-03 1.447789e-02 2.176414e-02 2.924596e-02 3.589600e-02 4.263448e-02 4.850882e-02 5.437721e-02 5.937652e-02 6.429021e-02 6.835658e-02 7.227370e-02 7.538938e-02 7.830905e-02 8.049303e-02 8.245184e-02 8.375486e-02 8.482200e-02 8.532049e-02 8.559186e-02 8.538142e-02 8.497325e-02 8.416198e-02 8.320412e-02 8.190642e-02 8.053560e-02 7.886652e-02 7.721980e-02 7.529031e-02 7.349885e-02 7.141204e-02 6.959541e-02 6.744365e-02 6.570500e-02 6.356813e-02 6.199020e-02 5.993456e-02 5.857704e-02 5.665519e-02 5.555334e-02 5.380444e-02 5.296911e-02 5.141950e-02 5.083843e-02 4.950235e-02 4.914255e-02 4.802264e-02 4.783346e-02 4.692086e-02 4.683743e-02 4.611154e-02 4.605817e-02 4.548594e-02 4.537938e-02 4.491466e-02 4.466705e-02 4.425019e-02 4.377195e-02 4.333043e-02 4.253319e-02 4.198349e-02 4.078343e-02 4.003462e-02 3.835616e-02 3.731509e-02 3.509511e-02 3.367283e-02 3.086486e-02 2.898370e-02 2.556188e-02 2.316227e-02 1.912441e-02 1.617061e-02 1.154001e-02 8.023988e-03 2.849659e-03 -1.207223e-03 -6.852119e-03 -1.139979e-02 -1.742093e-02 -2.238336e-02 -2.866943e-02 -3.394893e-02 -4.037633e-02 -4.585866e-02 -5.229622e-02 -5.785574e-02 -6.416894e-02 -6.967343e-02 -7.572776e-02 -8.104229e-02 -8.670573e-02 -9.169571e-02 -9.684038e-02 -1.013738e-01 -1.058771e-01 -1.098264e-01 -1.135720e-01 
-1.300381e-01 -1.332783e-01 -1.360546e-01 -1.382189e-01 -1.399665e-01 -1.409558e-01 -1.415735e-01 -1.413062e-01 -1.407136e-01 -1.391312e-01 -1.372745e-01 -1.343485e-01 -1.312077e-01 -1.269462e-01 -1.225418e-01 -1.169959e-01 -1.113938e-01 -1.046617e-01 -9.797627e-02 -9.020470e-02 -8.259764e-02 -7.397872e-02 -6.565430e-02 -5.641872e-02 -4.761450e-02 -3.802056e-02 -2.899486e-02 -1.931478e-02 -1.033212e-02 -8.370069e-04 7.846935e-03 1.690170e-02 2.505386e-02 3.344148e-02 4.086274e-02 4.839501e-02 5.492833e-02 6.146238e-02 6.699737e-02 7.243907e-02 7.691324e-02 8.121760e-02 8.461461e-02 8.778353e-02 9.012900e-02 9.220709e-02 9.356265e-02 9.463145e-02 9.508758e-02 9.525881e-02 9.492719e-02 9.433539e-02 9.334126e-02 9.213614e-02 9.061102e-02 8.894980e-02 8.702512e-02 8.506506e-02 8.286675e-02 8.075804e-02 7.840224e-02 7.628153e-02 7.387149e-02 7.185631e-02 6.948044e-02 6.766470e-02 6.539565e-02 6.384654e-02 6.174114e-02 6.049769e-02 5.859756e-02 5.767072e-02 5.600322e-02 5.537755e-02 5.395682e-02 5.359337e-02 5.242103e-02 5.226103e-02 5.132642e-02 5.129531e-02 5.057510e-02 5.058648e-02 5.004369e-02 5.000289e-02 4.958582e-02 4.939313e-02 4.903455e-02 4.858821e-02 4.820569e-02 4.740504e-02 4.690290e-02 4.565193e-02 4.492526e-02 4.313688e-02 4.207760e-02 3.967842e-02 3.818293e-02 3.511833e-02 3.309598e-02 2.933487e-02 2.671605e-02 2.225459e-02 1.899761e-02 1.386146e-02 9.957015e-03 4.201550e-03 -3.253967e-04 -6.616896e-03 -1.170820e-02 -1.842824e-02 -2.399606e-02 -3.101799e-02 -3.695008e-02 -4.413371e-02 -5.029959e-02 -5.749680e-02 -6.375390e-02 -7.081357e-02 -7.701271e-02 -8.378445e-02 -8.977424e-02 -9.611104e-02 -1.017411e-01 -1.075009e-01 -1.126241e-01 -1.176709e-01 -1.221448e-01 -1.263492e-01 
-1.438273e-01 -1.474925e-01 -1.506179e-01 -1.530952e-01 -1.550811e-01 -1.562579e-01 -1.569888e-01 -1.567706e-01 -1.561527e-01 -1.544696e-01 -1.524382e-01 -1.492528e-01 -1.457806e-01 -1.410967e-01 -1.362017e-01 -1.300717e-01 -1.238240e-01 -1.163547e-01 -1.088804e-01 -1.002346e-01 -9.171522e-02 -8.210890e-02 -7.277579e-02 -6.247037e-02 -5.259413e-02 -4.188343e-02 -3.175916e-02 -2.095332e-02 -1.088330e-02 -2.910030e-04 9.432998e-03 1.952169e-02 2.863458e-02 3.796312e-02 4.623956e-02 5.459635e-02 6.185994e-02 6.908577e-02 7.521404e-02 8.120561e-02 8.613105e-02 9.084103e-02 9.454874e-02 9.798286e-02 1.005054e-01 1.027174e-01 1.041277e-01 1.052125e-01 1.056157e-01 1.057016e-01 1.052260e-01 1.044666e-01 1.032548e-01 1.018202e-01 1.000214e-01 9.808960e-02 9.585193e-02 9.360062e-02 9.106559e-02 8.866413e-02 8.596169e-02 8.356393e-02 8.080921e-02 7.854711e-02 7.583838e-02 7.381698e-02 7.123475e-02 6.952863e-02 6.713575e-02 6.578736e-02 6.362991e-02 6.264979e-02 6.075825e-02 6.012709e-02 5.851770e-02 5.818976e-02 5.686538e-02 5.677294e-02 5.572336e-02 5.578142e-02 5.498275e-02 5.509354e-02 5.450695e-02 5.456392e-02 5.413390e-02 5.402513e-02 5.367821e-02 5.328948e-02 5.293409e-02 5.215209e-02 5.168037e-02 5.039653e-02 4.968873e-02 4.780383e-02 4.673525e-02 4.416498e-02 4.261492e-02 3.929576e-02 3.715758e-02 3.305247e-02 3.024339e-02 2.534627e-02 2.181558e-02 1.615411e-02 1.188872e-02 5.524685e-03 5.512990e-04 -6.421554e-03 -1.203771e-02 -1.949805e-02 -2.565756e-02 -3.346246e-02 -4.003816e-02 -4.802984e-02 -5.487425e-02 -6.288671e-02 -6.983937e-02 -7.770399e-02 -8.459785e-02 -9.214768e-02 -9.881406e-02 -1.058866e-01 -1.121585e-01 -1.185971e-01 -1.243117e-01 -1.299663e-01 -1.349660e-01 -1.396935e-01 
-1.580299e-01 -1.621119e-01 -1.656537e-01 -1.684309e-01 -1.707184e-01 -1.720637e-01 -1.729659e-01 -1.727703e-01 -1.721787e-01 -1.703592e-01 -1.681962e-01 -1.647052e-01 -1.609341e-01 -1.557693e-01 -1.504046e-01 -1.436189e-01 -1.367340e-01 -1.284425e-01 -1.201757e-01 -1.105586e-01 -1.011125e-01 -9.041244e-02 -8.004813e-02 -6.856096e-02 -5.758568e-02 -4.564557e-02 -3.439527e-02 -2.235547e-02 -1.117431e-02 6.137814e-04 1.139431e-02 2.260134e-02 3.268134e-02 4.301728e-02 5.214347e-02 6.137061e-02 6.934667e-02 7.728782e-02 8.397972e-02 9.052185e-02 9.585856e-02 1.009524e-01 1.049228e-01 1.085791e-01 1.112258e-01 1.135095e-01 1.149203e-01 1.159422e-01 1.162404e-01 1.161489e-01 1.154833e-01 1.144544e-01 1.129888e-01 1.112167e-01 1.091210e-01 1.068084e-01 1.042503e-01 1.015990e-01 9.873717e-02 9.593932e-02 9.291849e-02 9.014816e-02 8.709530e-02 8.450136e-02 8.152362e-02 7.922396e-02 7.640797e-02 7.448550e-02 7.189772e-02 7.039854e-02 6.808665e-02 6.702047e-02 6.501508e-02 6.435776e-02 6.267426e-02 6.237206e-02 6.101191e-02 6.098678e-02 5.993794e-02 6.009306e-02 5.932929e-02 5.955426e-02 5.903329e-02 5.920849e-02 5.886962e-02 5.886970e-02 5.863167e-02 5.832859e-02 5.808880e-02 5.735502e-02 5.699121e-02 5.570366e-02 5.507873e-02 5.312399e-02 5.209409e-02 4.937476e-02 4.779999e-02 4.424173e-02 4.199813e-02 3.755655e-02 3.454782e-02 2.921399e-02 2.538129e-02 1.918515e-02 1.451349e-02 7.524295e-03 2.044892e-03 -5.631384e-03 -1.184301e-02 -2.006901e-02 -2.689852e-02 -3.551278e-02 -4.281496e-02 -5.164006e-02 -5.924780e-02 -6.809813e-02 -7.583109e-02 -8.451941e-02 -9.219132e-02 -1.005335e-01 -1.079576e-01 -1.157754e-01 -1.227678e-01 -1.298901e-01 -1.362722e-01 -1.425351e-01 -1.481338e-01 -1.533808e-01 
-1.729110e-01 -1.774877e-01 -1.814452e-01 -1.845990e-01 -1.871837e-01 -1.887709e-01 -1.898341e-01 -1.897295e-01 -1.891453e-01 -1.872500e-01 -1.849254e-01 -1.811784e-01 -1.770647e-01 -1.714552e-01 -1.655607e-01 -1.581398e-01 -1.505401e-01 -1.414300e-01 -1.322751e-01 -1.216736e-01 -1.111887e-01 -9.936659e-02 -8.784571e-02 -7.513629e-02 -6.292769e-02 -4.970937e-02 -3.719514e-02 -2.386861e-02 -1.144028e-02 1.596296e-03 1.356241e-02 2.593712e-02 3.710204e-02 4.848913e-02 5.856847e-02 6.870304e-02 7.747850e-02 8.616535e-02 9.349030e-02 1.006074e-01 1.064071e-01 1.119045e-01 1.161720e-01 1.200672e-01 1.228556e-01 1.252260e-01 1.266389e-01 1.276131e-01 1.277929e-01 1.275399e-01 1.266563e-01 1.253757e-01 1.236141e-01 1.215247e-01 1.190762e-01 1.164056e-01 1.134577e-01 1.104322e-01 1.071614e-01 1.039959e-01 1.005624e-01 9.745137e-02 9.399525e-02 9.110456e-02 8.774331e-02 8.520381e-02 8.203203e-02 7.993484e-02 7.702484e-02 7.541935e-02 7.282282e-02 7.171725e-02 6.946754e-02 6.883199e-02 6.694635e-02 6.671796e-02 6.519922e-02 6.528844e-02 6.412559e-02 6.442276e-02 6.358999e-02 6.397128e-02 6.342559e-02 6.375777e-02 6.343566e-02 6.357967e-02 6.339400e-02 6.320780e-02 6.304612e-02 6.238767e-02 6.211345e-02 6.084476e-02 6.030254e-02 5.829527e-02 5.731980e-02 5.446255e-02 5.289134e-02 4.909789e-02 4.678551e-02 4.200303e-02 3.883523e-02 3.305105e-02 2.895661e-02 2.220239e-02 1.716095e-02 9.513375e-03 3.558271e-03 -4.863924e-03 -1.164800e-02 -2.069045e-02 -2.817423e-02 -3.765564e-02 -4.567503e-02 -5.539689e-02 -6.376383e-02 -7.351963e-02 -8.203244e-02 -9.161523e-02 -1.000671e-01 -1.092747e-01 -1.174598e-01 -1.260978e-01 -1.338147e-01 -1.416970e-01 -1.487503e-01 -1.556991e-01 -1.619000e-01 -1.677446e-01 
-1.882956e-01 -1.933590e-01 -1.978129e-01 -2.013300e-01 -2.042886e-01 -2.060986e-01 -2.073939e-01 -2.073529e-01 -2.068398e-01 -2.048309e-01 -2.023981e-01 -1.983442e-01 -1.939285e-01 -1.878076e-01 -1.814088e-01 -1.732683e-01 -1.649625e-01 -1.549313e-01 -1.448805e-01 -1.331753e-01 -1.216289e-01 -1.085519e-01 -9.584036e-02 -8.176742e-02 -6.828511e-02 -5.364548e-02 -3.982638e-02 -2.507533e-02 -1.136415e-02 3.046434e-03 1.622353e-02 2.987306e-02 4.213425e-02 5.465647e-02 6.568404e-02 7.678351e-02 8.633654e-02 9.579815e-02 1.037182e-01 1.114104e-01 1.176211e-01 1.234940e-01 1.279955e-01 1.320749e-01 1.349352e-01 1.373138e-01 1.386567e-01 1.394837e-01 1.394756e-01 1.389454e-01 1.377819e-01 1.361216e-01 1.340147e-01 1.314727e-01 1.286386e-01 1.254725e-01 1.221219e-01 1.185870e-01 1.149167e-01 1.112554e-01 1.074423e-01 1.038732e-01 1.000702e-01 9.677947e-02 9.311311e-02 9.024655e-02 8.681703e-02 8.447507e-02 8.135721e-02 7.959258e-02 7.683828e-02 7.565687e-02 7.329817e-02 7.266290e-02 7.071508e-02 7.055211e-02 6.901604e-02 6.922246e-02 6.808546e-02 6.853702e-02 6.777174e-02 6.832969e-02 6.789097e-02 6.840721e-02 6.822752e-02 6.854806e-02 6.853287e-02 6.850024e-02 6.852515e-02 6.798099e-02 6.789235e-02 6.668134e-02 6.630183e-02 6.427786e-02 6.341719e-02 6.045180e-02 5.892170e-02 5.491401e-02 5.254549e-02 4.743219e-02 4.409247e-02 3.785619e-02 3.346282e-02 2.613729e-02 2.066723e-02 1.233819e-02 5.830807e-03 -3.367680e-03 -1.081400e-02 -2.070740e-02 -2.894385e-02 -3.932779e-02 -4.816719e-02 -5.881920e-02 -6.804915e-02 -7.873961e-02 -8.813468e-02 -9.863555e-02 -1.079669e-01 -1.180575e-01 -1.270996e-01 -1.365692e-01 -1.451029e-01 -1.537512e-01 -1.615650e-01 -1.692005e-01 -1.760899e-01 -1.825284e-01 
-2.044730e-01 -2.101164e-01 -2.150699e-01 -2.190433e-01 -2.223754e-01 -2.244985e-01 -2.260198e-01 -2.261274e-01 -2.256699e-01 -2.236234e-01 -2.210539e-01 -2.167562e-01 -2.119929e-01 -2.054067e-01 -1.984371e-01 -1.896029e-01 -1.805012e-01 -1.695524e-01 -1.584916e-01 -1.456637e-01 -1.329194e-01 -1.185481e-01 -1.044911e-01 -8.899921e-02 -7.407611e-02 -5.794939e-02 -4.265358e-02 -2.640807e-02 -1.124505e-02 4.607921e-03 1.915523e-02 3.414191e-02 4.764335e-02 6.135417e-02 7.345486e-02 8.556273e-02 9.599691e-02 1.062672e-01 1.148638e-01 1.231568e-01 1.298380e-01 1.361059e-01 1.408803e-01 1.451595e-01 1.481107e-01 1.505116e-01 1.517848e-01 1.524794e-01 1.522663e-01 1.514752e-01 1.499981e-01 1.479774e-01 1.454751e-01 1.425029e-01 1.392172e-01 1.355812e-01 1.317461e-01 1.277311e-01 1.235641e-01 1.194397e-01 1.151351e-01 1.111446e-01 1.068692e-01 1.032190e-01 9.911046e-02 9.596164e-02 9.212791e-02 8.959022e-02 8.611132e-02 8.424052e-02 8.117151e-02 7.997034e-02 7.734511e-02 7.676800e-02 7.460314e-02 7.456373e-02 7.286149e-02 7.324184e-02 7.199133e-02 7.265120e-02 7.182705e-02 7.261178e-02 7.217015e-02 7.291626e-02 7.278886e-02 7.332732e-02 7.341498e-02 7.357295e-02 7.374115e-02 7.334388e-02 7.342233e-02 7.229681e-02 7.208519e-02 7.006668e-02 6.934672e-02 6.628847e-02 6.484154e-02 6.062644e-02 5.825417e-02 5.280681e-02 4.935162e-02 4.264853e-02 3.801076e-02 3.008689e-02 2.423607e-02 1.518607e-02 8.164532e-03 -1.861482e-03 -9.942795e-03 -2.074866e-02 -2.972087e-02 -4.107723e-02 -5.072837e-02 -6.238675e-02 -7.247787e-02 -8.418372e-02 -9.446343e-02 -1.059662e-01 -1.161820e-01 -1.272416e-01 -1.371467e-01 -1.475358e-01 -1.568928e-01 -1.663966e-01 -1.749773e-01 -1.833907e-01 -1.909748e-01 -1.980998e-01 