# vtk DataFile Version 2.0
Comment goes here
ASCII

DATASET STRUCTURED_POINTS
FIELD FieldData 1
TIME 1 1 double
0.23500000
DIMENSIONS    128   128   1

ORIGIN    0.000   0.000   0.000
SPACING   0.039062 0.039062   1.000

POINT_DATA   16384
SCALARS uY double
LOOKUP_TABLE default

-6.268514e-14 -6.258932e-14 -6.378550e-14 -6.344270e-14 -6.469086e-14 -6.433322e-14 -6.605512e-14 -6.542941e-14 -6.739597e-14 -6.716530e-14 -6.983664e-14 -6.907857e-14 -7.217504e-14 -7.150919e-14 -7.447385e-14 -7.448844e-14 -7.772195e-14 -7.595728e-14 -7.980025e-14 -7.856075e-14 -8.316521e-14 -8.152135e-14 -8.540322e-14 -8.385009e-14 -8.838218e-14 -8.523842e-14 -8.954134e-14 -8.677093e-14 -9.191683e-14 -8.843330e-14 -9.192350e-14 -8.823003e-14 -9.302265e-14 -8.869202e-14 -9.497339e-14 -9.107416e-14 -9.703128e-14 -9.171502e-14 -9.628729e-14 -9.095831e-14 -9.585171e-14 -9.082914e-14 -9.557713e-14 -8.961821e-14 -9.450744e-14 -8.770544e-14 -9.253304e-14 -8.553043e-14 -9.051368e-14 -8.395651e-14 -8.910712e-14 -8.265718e-14 -8.749168e-14 -8.166881e-14 -8.558044e-14 -7.925323e-14 -8.294293e-14 -7.678312e-14 -7.990920e-14 -7.430495e-14 -7.741070e-14 -7.217124e-14 -7.418647e-14 -6.971320e-14 -7.225025e-14 -6.881036e-14 -6.982732e-14 -6.852063e-14 -6.842679e-14 -6.740685e-14 -6.614703e-14 -6.859468e-14 -6.791739e-14 -6.886381e-14 -6.820420e-14 -7.125194e-14 -6.855179e-14 -7.215423e-14 -6.956853e-14 -7.393244e-14 -7.037768e-14 -7.586961e-14 -7.151974e-14 -7.785253e-14 -7.215732e-14 -7.696209e-14 -7.150186e-14 -7.957449e-14 -7.349290e-14 -7.971892e-14 -7.263420e-14 -7.944499e-14 -7.201848e-14 -7.866133e-14 -7.121473e-14 -7.986395e-14 -7.276522e-14 -7.897374e-14 -7.315041e-14 -7.756796e-14 -6.982081e-14 -7.515424e-14 -6.828039e-14 -7.247718e-14 -6.635035e-14 -7.022582e-14 -6.443727e-14 -6.808169e-14 -6.294655e-14 -6.639520e-14 -6.172657e-14 -6.469754e-14 -6.099349e-14 -6.351870e-14 -6.071149e-14 -6.291511e-14 -6.028789e-14 -6.243492e-14 -6.068529e-14 -6.204906e-14 -6.065505e-14 -6.120815e-14 -6.029066e-14 -6.078305e-14 -6.062601e-14 -6.126481e-14 -6.150814e-14 -6.175475e-14 
-1.052574e-02 -1.084457e-02 -1.107991e-02 -1.131247e-02 -1.145898e-02 -1.159854e-02 -1.164982e-02 -1.169158e-02 -1.164337e-02 -1.158477e-02 -1.143528e-02 -1.127637e-02 -1.102666e-02 -1.077035e-02 -1.042456e-02 -1.007681e-02 -9.642246e-03 -9.212089e-03 -8.699192e-03 -8.198551e-03 -7.620601e-03 -7.063909e-03 -6.436542e-03 -5.840143e-03 -5.180668e-03 -4.562051e-03 -3.888621e-03 -3.265528e-03 -2.596230e-03 -1.985734e-03 -1.337689e-03 -7.553025e-04 -1.438405e-04 3.972495e-04 9.592663e-04 1.448790e-03 1.951448e-03 2.382422e-03 2.819023e-03 3.187890e-03 3.554998e-03 3.861533e-03 4.158827e-03 4.405849e-03 4.635811e-03 4.828722e-03 4.996202e-03 5.142415e-03 5.254111e-03 5.362404e-03 5.426311e-03 5.506160e-03 5.531017e-03 5.591953e-03 5.586708e-03 5.637733e-03 5.611077e-03 5.660164e-03 5.620123e-03 5.673830e-03 5.627449e-03 5.690650e-03 5.643750e-03 5.719494e-03 5.676531e-03 5.766012e-03 5.730016e-03 5.832657e-03 5.805243e-03 5.918864e-03 5.900315e-03 6.021367e-03 6.010754e-03 6.134589e-03 6.129927e-03 6.251085e-03 6.249494e-03 6.361966e-03 6.359826e-03 6.457299e-03 6.450385e-03 6.526435e-03 6.510031e-03 6.558286e-03 6.527286e-03 6.541551e-03 6.490561e-03 6.464938e-03 6.388398e-03 6.317414e-03 6.209755e-03 6.088518e-03 5.944380e-03 5.768771e-03 5.583266e-03 5.350169e-03 5.119193e-03 4.826739e-03 4.547300e-03 4.195114e-03 3.865648e-03 3.455044e-03 3.075679e-03 2.609801e-03 2.182543e-03 1.666400e-03 1.195207e-03 6.356180e-04 1.263668e-04 -4.682039e-04 -1.007863e-03 -1.627544e-03 -2.188420e-03 -2.822230e-03 -3.393883e-03 -4.030058e-03 -4.601122e-03 -5.227434e-03 -5.785942e-03 -6.390002e-03 -6.923703e-03 -7.493231e-03 -7.989875e-03 -8.512936e-03 -8.960548e-03 -9.425776e-03 -9.812913e-03 -1.020973e-02 
-2.111423e-02 -2.175392e-02 -2.222632e-02 -2.269301e-02 -2.298720e-02 -2.326735e-02 -2.337043e-02 -2.345430e-02 -2.335764e-02 -2.324001e-02 -2.293996e-02 -2.262081e-02 -2.211943e-02 -2.160452e-02 -2.091003e-02 -2.021125e-02 -1.933833e-02 -1.847375e-02 -1.744334e-02 -1.643689e-02 -1.527572e-02 -1.415639e-02 -1.289591e-02 -1.169659e-02 -1.037166e-02 -9.127540e-03 -7.774726e-03 -6.521545e-03 -5.177274e-03 -3.949432e-03 -2.648178e-03 -1.476942e-03 -2.495594e-04 8.384912e-04 1.966131e-03 2.950289e-03 3.958270e-03 4.824452e-03 5.699340e-03 6.440362e-03 7.175300e-03 7.790694e-03 8.385095e-03 8.880520e-03 9.339435e-03 9.725759e-03 1.005899e-02 1.035113e-02 1.057220e-02 1.078783e-02 1.091286e-02 1.107106e-02 1.111764e-02 1.123762e-02 1.122376e-02 1.132368e-02 1.126688e-02 1.136280e-02 1.127921e-02 1.138439e-02 1.128818e-02 1.141248e-02 1.131537e-02 1.146495e-02 1.137592e-02 1.155324e-02 1.147840e-02 1.168231e-02 1.162493e-02 1.185109e-02 1.181176e-02 1.205302e-02 1.202992e-02 1.227695e-02 1.226614e-02 1.250795e-02 1.250368e-02 1.272819e-02 1.272326e-02 1.291777e-02 1.290373e-02 1.305536e-02 1.302280e-02 1.311874e-02 1.305743e-02 1.308527e-02 1.298440e-02 1.293232e-02 1.278069e-02 1.263775e-02 1.242414e-02 1.218051e-02 1.189409e-02 1.154154e-02 1.117239e-02 1.070465e-02 1.024441e-02 9.657748e-03 9.100290e-03 8.393925e-03 7.735994e-03 6.912552e-03 6.154309e-03 5.220074e-03 4.365471e-03 3.330478e-03 2.387415e-03 1.265325e-03 2.455755e-04 -9.466405e-04 -2.027721e-03 -3.270275e-03 -4.394224e-03 -5.665105e-03 -6.810945e-03 -8.086573e-03 -9.231470e-03 -1.048734e-02 -1.160726e-02 -1.281856e-02 -1.388890e-02 -1.503101e-02 -1.602718e-02 -1.707619e-02 -1.797414e-02 -1.890727e-02 -1.968403e-02 -2.048005e-02 
-3.173594e-02 -3.270071e-02 -3.341489e-02 -3.411925e-02 -3.456519e-02 -3.498867e-02 -3.514680e-02 -3.527461e-02 -3.513175e-02 -3.495591e-02 -3.450639e-02 -3.402674e-02 -3.327349e-02 -3.249859e-02 -3.145390e-02 -3.040162e-02 -2.908750e-02 -2.778510e-02 -2.623313e-02 -2.471678e-02 -2.296729e-02 -2.128087e-02 -1.938146e-02 -1.757478e-02 -1.557820e-02 -1.370460e-02 -1.166622e-02 -9.779868e-03 -7.754850e-03 -5.907844e-03 -3.948374e-03 -2.188022e-03 -3.407647e-04 1.292785e-03 2.988761e-03 4.464326e-03 5.979015e-03 7.275510e-03 8.588766e-03 9.695606e-03 1.079727e-02 1.171407e-02 1.260349e-02 1.333917e-02 1.402423e-02 1.459556e-02 1.509131e-02 1.552118e-02 1.584828e-02 1.616368e-02 1.634667e-02 1.657668e-02 1.664229e-02 1.681609e-02 1.679165e-02 1.693674e-02 1.684872e-02 1.698941e-02 1.686223e-02 1.701846e-02 1.687348e-02 1.706003e-02 1.691485e-02 1.714088e-02 1.700896e-02 1.727797e-02 1.716836e-02 1.747846e-02 1.739594e-02 1.774036e-02 1.768564e-02 1.805344e-02 1.802359e-02 1.840056e-02 1.838946e-02 1.875894e-02 1.875779e-02 1.910152e-02 1.909932e-02 1.939815e-02 1.938212e-02 1.961664e-02 1.957252e-02 1.972347e-02 1.963585e-02 1.968452e-02 1.953710e-02 1.946569e-02 1.924162e-02 1.903354e-02 1.871591e-02 1.835631e-02 1.792877e-02 1.740504e-02 1.685262e-02 1.615519e-02 1.546525e-02 1.458825e-02 1.375150e-02 1.269362e-02 1.170509e-02 1.047013e-02 9.330033e-03 7.927388e-03 6.641655e-03 5.086411e-03 3.666957e-03 1.979726e-03 4.443247e-04 -1.349256e-03 -2.977423e-03 -4.847440e-03 -6.540506e-03 -8.453695e-03 -1.018002e-02 -1.210076e-02 -1.382591e-02 -1.571723e-02 -1.740500e-02 -1.922946e-02 -2.084280e-02 -2.256331e-02 -2.406522e-02 -2.564576e-02 -2.700003e-02 -2.840629e-02 -2.957834e-02 -3.077833e-02 
-4.254669e-02 -4.384273e-02 -4.480392e-02 -4.575083e-02 -4.635212e-02 -4.692213e-02 -4.713695e-02 -4.730990e-02 -4.712020e-02 -4.688496e-02 -4.628281e-02 -4.563876e-02 -4.462774e-02 -4.358604e-02 -4.218240e-02 -4.076677e-02 -3.899996e-02 -3.724688e-02 -3.515937e-02 -3.311747e-02 -3.076365e-02 -2.849212e-02 -2.593632e-02 -2.350246e-02 -2.081605e-02 -1.829207e-02 -1.555000e-02 -1.300924e-02 -1.028621e-02 -7.799257e-03 -5.165882e-03 -2.796814e-03 -3.161615e-04 1.880666e-03 4.155887e-03 6.138313e-03 8.167737e-03 9.907317e-03 1.166398e-02 1.314653e-02 1.461703e-02 1.584219e-02 1.702598e-02 1.800600e-02 1.891405e-02 1.967181e-02 2.032478e-02 2.089141e-02 2.131744e-02 2.172962e-02 2.196207e-02 2.225927e-02 2.233438e-02 2.255618e-02 2.251096e-02 2.269466e-02 2.256488e-02 2.274345e-02 2.256207e-02 2.276254e-02 2.255838e-02 2.280076e-02 2.259755e-02 2.289425e-02 2.271007e-02 2.306582e-02 2.291285e-02 2.332505e-02 2.320969e-02 2.366913e-02 2.359231e-02 2.408418e-02 2.404193e-02 2.454698e-02 2.453109e-02 2.502679e-02 2.502548e-02 2.548717e-02 2.548574e-02 2.588765e-02 2.586900e-02 2.618501e-02 2.613009e-02 2.633436e-02 2.622254e-02 2.629001e-02 2.609941e-02 2.600620e-02 2.571414e-02 2.543800e-02 2.502160e-02 2.454257e-02 2.397962e-02 2.328074e-02 2.255077e-02 2.161903e-02 2.070467e-02 1.953209e-02 1.842042e-02 1.700506e-02 1.568903e-02 1.403586e-02 1.251542e-02 1.063692e-02 8.919812e-03 6.836165e-03 4.938267e-03 2.677123e-03 6.222735e-04 -1.781941e-03 -3.962560e-03 -6.469668e-03 -8.738535e-03 -1.130387e-02 -1.361837e-02 -1.619412e-02 -1.850794e-02 -2.104449e-02 -2.330892e-02 -2.575611e-02 -2.792137e-02 -3.022949e-02 -3.224585e-02 -3.436665e-02 -3.618552e-02 -3.807299e-02 -3.964788e-02 -4.125911e-02 
-5.342496e-02 -5.506083e-02 -5.627863e-02 -5.747529e-02 -5.824020e-02 -5.896237e-02 -5.924051e-02 -5.946237e-02 -5.923050e-02 -5.893757e-02 -5.818510e-02 -5.737613e-02 -5.610706e-02 -5.479571e-02 -5.303010e-02 -5.124603e-02 -4.902076e-02 -4.680997e-02 -4.417860e-02 -4.160264e-02 -3.863403e-02 -3.576807e-02 -3.254387e-02 -2.947355e-02 -2.608451e-02 -2.290177e-02 -1.944326e-02 -1.624154e-02 -1.280861e-02 -9.677766e-03 -6.360191e-03 -3.381702e-03 -2.595553e-04 2.497666e-03 5.357640e-03 7.840372e-03 1.038728e-02 1.255993e-02 1.476005e-02 1.660530e-02 1.844222e-02 1.996044e-02 2.143416e-02 2.264176e-02 2.376690e-02 2.469381e-02 2.549722e-02 2.618377e-02 2.670174e-02 2.719519e-02 2.747052e-02 2.782150e-02 2.790052e-02 2.815965e-02 2.808950e-02 2.830430e-02 2.813048e-02 2.834277e-02 2.810704e-02 2.835098e-02 2.808973e-02 2.839041e-02 2.813350e-02 2.850628e-02 2.827629e-02 2.872673e-02 2.853873e-02 2.906306e-02 2.892471e-02 2.951084e-02 2.942290e-02 3.005169e-02 3.000872e-02 3.065550e-02 3.064674e-02 3.128282e-02 3.129309e-02 3.188722e-02 3.189774e-02 3.241735e-02 3.240642e-02 3.281862e-02 3.276218e-02 3.303448e-02 3.290650e-02 3.300737e-02 3.278031e-02 3.267963e-02 3.232490e-02 3.199455e-02 3.148326e-02 3.089781e-02 3.020181e-02 2.933952e-02 2.843280e-02 2.727684e-02 2.613720e-02 2.467698e-02 2.328785e-02 2.152045e-02 1.987265e-02 1.780395e-02 1.589718e-02 1.354267e-02 1.138656e-02 8.771599e-03 6.386119e-03 3.545613e-03 9.608870e-04 -2.061606e-03 -4.806139e-03 -7.959743e-03 -1.081663e-02 -1.404480e-02 -1.696021e-02 -2.020249e-02 -2.311792e-02 -2.631166e-02 -2.916572e-02 -3.224763e-02 -3.497762e-02 -3.788511e-02 -4.042844e-02 -4.310075e-02 -4.539626e-02 -4.777551e-02 -4.976467e-02 -5.179679e-02 
-6.462093e-02 -6.660726e-02 -6.809076e-02 -6.954561e-02 -7.048053e-02 -7.136058e-02 -7.170515e-02 -7.197829e-02 -7.170350e-02 -7.135125e-02 -7.044340e-02 -6.946330e-02 -6.792641e-02 -6.633418e-02 -6.419195e-02 -6.202297e-02 -5.931981e-02 -5.662962e-02 -5.343061e-02 -5.029406e-02 -4.668329e-02 -4.319225e-02 -3.926974e-02 -3.552915e-02 -3.140630e-02 -2.752910e-02 -2.332309e-02 -1.942415e-02 -1.525174e-02 -1.144156e-02 -7.412975e-03 -3.791694e-03 -5.026308e-06 3.342780e-03 6.805994e-03 9.815183e-03 1.289307e-02 1.552030e-02 1.817223e-02 2.039672e-02 2.260340e-02 2.442617e-02 2.618844e-02 2.763023e-02 2.896685e-02 3.006496e-02 3.100957e-02 3.181403e-02 3.241171e-02 3.298097e-02 3.328460e-02 3.368117e-02 3.374782e-02 3.403410e-02 3.392165e-02 3.415614e-02 3.392035e-02 3.415447e-02 3.384642e-02 3.412210e-02 3.378619e-02 3.413419e-02 3.380675e-02 3.424580e-02 3.395425e-02 3.449101e-02 3.425352e-02 3.488320e-02 3.470891e-02 3.541646e-02 3.530611e-02 3.606788e-02 3.601470e-02 3.680031e-02 3.679112e-02 3.756536e-02 3.758170e-02 3.830636e-02 3.832550e-02 3.896090e-02 3.895664e-02 3.946283e-02 3.940615e-02 3.974378e-02 3.960327e-02 3.973419e-02 3.947649e-02 3.936428e-02 3.895460e-02 3.856519e-02 3.796816e-02 3.727062e-02 3.645155e-02 3.541927e-02 3.434584e-02 3.295804e-02 3.160243e-02 2.984585e-02 2.818701e-02 2.605766e-02 2.408359e-02 2.158818e-02 1.929781e-02 1.645484e-02 1.385937e-02 1.069942e-02 7.822853e-03 4.388238e-03 1.267113e-03 -2.389265e-03 -5.706933e-03 -9.523250e-03 -1.297963e-02 -1.688719e-02 -2.041668e-02 -2.434213e-02 -2.787354e-02 -3.174093e-02 -3.519964e-02 -3.893236e-02 -4.224224e-02 -4.576460e-02 -4.884974e-02 -5.208829e-02 -5.487453e-02 -5.775923e-02 -6.017556e-02 -6.264093e-02 
-7.592090e-02 -7.827079e-02 -8.003473e-02 -8.175890e-02 -8.287665e-02 -8.392332e-02 -8.434471e-02 -8.467508e-02 -8.436476e-02 -8.395596e-02 -8.289654e-02 -8.174460e-02 -7.993966e-02 -7.806218e-02 -7.553876e-02 -7.297691e-02 -6.978695e-02 -6.660621e-02 -6.282656e-02 -5.911583e-02 -5.484645e-02 -5.071533e-02 -4.607557e-02 -4.164967e-02 -3.677279e-02 -3.218746e-02 -2.721378e-02 -2.260681e-02 -1.767616e-02 -1.318000e-02 -8.424215e-03 -4.158635e-03 3.051878e-04 4.239352e-03 8.314278e-03 1.183984e-02 1.545276e-02 1.851896e-02 2.162245e-02 2.420581e-02 2.677810e-02 2.888142e-02 3.092491e-02 3.257459e-02 3.411304e-02 3.535528e-02 3.643011e-02 3.732613e-02 3.799223e-02 3.861309e-02 3.893442e-02 3.935573e-02 3.940098e-02 3.969787e-02 3.953647e-02 3.977907e-02 3.947759e-02 3.972727e-02 3.934651e-02 3.965297e-02 3.924553e-02 3.964492e-02 3.925362e-02 3.976755e-02 3.942440e-02 4.005998e-02 3.978590e-02 4.053655e-02 4.034161e-02 4.118860e-02 4.107288e-02 4.198735e-02 4.194203e-02 4.288731e-02 4.289609e-02 4.383000e-02 4.387049e-02 4.474756e-02 4.479247e-02 4.556572e-02 4.558392e-02 4.620625e-02 4.616343e-02 4.658856e-02 4.644771e-02 4.663078e-02 4.635260e-02 4.625069e-02 4.579411e-02 4.536683e-02 4.468994e-02 4.390032e-02 4.296180e-02 4.177772e-02 4.053886e-02 3.893487e-02 3.736209e-02 3.532152e-02 3.338919e-02 3.090635e-02 2.859957e-02 2.568162e-02 2.299856e-02 1.966682e-02 1.662035e-02 1.291078e-02 9.529156e-03 5.491822e-03 1.818344e-03 -2.483922e-03 -6.392258e-03 -1.088597e-02 -1.496051e-02 -1.956409e-02 -2.372704e-02 -2.835347e-02 -3.252056e-02 -3.707997e-02 -4.116301e-02 -4.556492e-02 -4.947411e-02 -5.362928e-02 -5.727517e-02 -6.109711e-02 -6.439235e-02 -6.779860e-02 -7.065947e-02 -7.357283e-02 
-8.767109e-02 -9.040010e-02 -9.245794e-02 -9.446405e-02 -9.577435e-02 -9.699649e-02 -9.749982e-02 -9.789160e-02 -9.754541e-02 -9.707858e-02 -9.586100e-02 -9.452913e-02 -9.244268e-02 -9.026454e-02 -8.733927e-02 -8.436140e-02 -8.065686e-02 -7.695467e-02 -7.256007e-02 -6.823704e-02 -6.326930e-02 -5.845378e-02 -5.305316e-02 -4.789292e-02 -4.221646e-02 -3.687115e-02 -3.108441e-02 -2.571676e-02 -1.998474e-02 -1.475119e-02 -9.229237e-03 -4.271117e-03 9.031515e-04 5.467143e-03 1.018029e-02 1.425967e-02 1.842675e-02 2.196251e-02 2.552911e-02 2.849463e-02 3.143675e-02 3.383651e-02 3.615864e-02 3.802500e-02 3.975663e-02 4.114518e-02 4.233641e-02 4.332032e-02 4.403680e-02 4.470066e-02 4.501839e-02 4.545193e-02 4.545215e-02 4.574435e-02 4.550887e-02 4.574261e-02 4.534965e-02 4.559730e-02 4.511805e-02 4.543810e-02 4.493401e-02 4.536880e-02 4.488966e-02 4.546434e-02 4.504719e-02 4.576973e-02 4.543854e-02 4.630072e-02 4.606678e-02 4.704609e-02 4.690899e-02 4.797105e-02 4.792013e-02 4.902149e-02 4.903748e-02 5.012847e-02 5.018519e-02 5.121248e-02 5.127834e-02 5.218715e-02 5.222624e-02 5.296192e-02 5.293479e-02 5.344384e-02 5.330791e-02 5.353860e-02 5.324848e-02 5.315127e-02 5.265925e-02 5.218738e-02 5.144433e-02 5.055477e-02 4.951181e-02 4.816683e-02 4.677770e-02 4.494703e-02 4.317118e-02 4.083456e-02 3.864054e-02 3.579042e-02 3.315936e-02 2.980322e-02 2.673172e-02 2.289368e-02 1.939584e-02 1.511729e-02 1.122552e-02 6.564539e-03 2.329134e-03 -2.641215e-03 -7.153749e-03 -1.234794e-02 -1.705741e-02 -2.238055e-02 -2.719617e-02 -3.254721e-02 -3.737082e-02 -4.264561e-02 -4.737468e-02 -5.246859e-02 -5.699896e-02 -6.180894e-02 -6.603699e-02 -7.046326e-02 -7.428785e-02 -7.823522e-02 -8.155935e-02 -8.493851e-02 
-9.956492e-02 -1.026910e-01 -1.050631e-01 -1.073666e-01 -1.088873e-01 -1.102972e-01 -1.108972e-01 -1.113589e-01 -1.109875e-01 -1.104668e-01 -1.090968e-01 -1.075843e-01 -1.052164e-01 -1.027316e-01 -9.939848e-02 -9.599336e-02 -9.176186e-02 -8.752225e-02 -8.249437e-02 -7.753929e-02 -7.184979e-02 -6.632789e-02 -6.013933e-02 -5.422246e-02 -4.771741e-02 -4.159171e-02 -3.496301e-02 -2.881831e-02 -2.225808e-02 -1.627677e-02 -9.965655e-03 -4.312100e-03 1.590400e-03 6.778772e-03 1.214184e-02 1.676107e-02 2.148756e-02 2.547090e-02 2.949963e-02 3.281847e-02 3.612387e-02 3.878600e-02 4.137566e-02 4.342136e-02 4.533183e-02 4.682827e-02 4.811973e-02 4.915423e-02 4.990455e-02 5.057724e-02 5.087587e-02 5.129236e-02 5.123437e-02 5.149882e-02 5.117947e-02 5.138841e-02 5.089840e-02 5.113562e-02 5.055708e-02 5.088981e-02 5.029327e-02 5.076964e-02 5.021185e-02 5.085975e-02 5.038248e-02 5.120973e-02 5.083945e-02 5.183514e-02 5.158355e-02 5.272026e-02 5.258556e-02 5.382241e-02 5.379105e-02 5.507699e-02 5.512572e-02 5.640294e-02 5.650088e-02 5.770784e-02 5.781824e-02 5.889218e-02 5.897374e-02 5.985241e-02 5.986013e-02 6.048284e-02 6.036831e-02 6.067640e-02 6.038804e-02 6.032518e-02 5.980854e-02 5.932113e-02 5.851987e-02 5.755807e-02 5.641566e-02 5.493515e-02 5.339765e-02 5.136222e-02 4.938188e-02 4.676660e-02 4.430596e-02 4.110047e-02 3.813653e-02 3.434798e-02 3.087574e-02 2.653083e-02 2.256574e-02 1.771147e-02 1.329043e-02 7.993444e-03 3.174223e-03 -2.481280e-03 -7.622058e-03 -1.353745e-02 -1.890741e-02 -2.497337e-02 -3.046810e-02 -3.656850e-02 -4.207540e-02 -4.809091e-02 -5.349268e-02 -5.930377e-02 -6.448155e-02 -6.997082e-02 -7.480659e-02 -7.986055e-02 -8.423918e-02 -8.874957e-02 -9.256055e-02 -9.642565e-02 
-1.120467e-01 -1.155911e-01 -1.182960e-01 -1.209144e-01 -1.226595e-01 -1.242701e-01 -1.249747e-01 -1.255133e-01 -1.251176e-01 -1.245426e-01 -1.230127e-01 -1.213103e-01 -1.186442e-01 -1.158336e-01 -1.120658e-01 -1.082036e-01 -1.034084e-01 -9.859080e-02 -9.288369e-02 -8.724582e-02 -8.078085e-02 -7.449310e-02 -6.745733e-02 -6.071776e-02 -5.332209e-02 -4.634595e-02 -3.881347e-02 -3.182063e-02 -2.437362e-02 -1.757531e-02 -1.042234e-02 -4.008620e-03 2.666763e-03 8.537513e-03 1.458566e-02 1.979433e-02 2.510516e-02 2.957619e-02 3.408159e-02 3.778384e-02 4.145711e-02 4.440166e-02 4.725431e-02 4.948979e-02 5.156652e-02 5.317244e-02 5.454478e-02 5.562362e-02 5.638299e-02 5.705171e-02 5.730230e-02 5.768381e-02 5.753575e-02 5.775090e-02 5.731406e-02 5.747455e-02 5.685311e-02 5.705566e-02 5.634364e-02 5.666555e-02 5.594335e-02 5.643968e-02 5.577168e-02 5.647396e-02 5.590717e-02 5.682364e-02 5.638744e-02 5.750461e-02 5.721142e-02 5.849686e-02 5.834369e-02 5.974949e-02 5.972009e-02 6.118691e-02 6.125423e-02 6.271527e-02 6.284395e-02 6.422862e-02 6.437704e-02 6.561385e-02 6.573567e-02 6.675422e-02 6.679912e-02 6.753119e-02 6.744511e-02 6.782494e-02 6.755000e-02 6.751439e-02 6.698900e-02 6.647754e-02 6.563722e-02 6.459324e-02 6.337254e-02 6.174502e-02 6.008068e-02 5.782729e-02 5.566257e-02 5.275340e-02 5.004306e-02 4.646465e-02 4.317999e-02 3.893894e-02 3.507222e-02 3.019771e-02 2.576507e-02 2.030985e-02 1.535261e-02 9.392185e-03 3.976001e-03 -2.393828e-03 -8.181400e-03 -1.484832e-02 -2.090166e-02 -2.774135e-02 -3.394126e-02 -4.082198e-02 -4.704024e-02 -5.382702e-02 -5.993058e-02 -6.648863e-02 -7.234303e-02 -7.854035e-02 -8.401239e-02 -8.972149e-02 -9.468136e-02 -9.978063e-02 -1.041036e-01 -1.084785e-01 
-1.247158e-01 -1.287018e-01 -1.317661e-01 -1.347196e-01 -1.367127e-01 -1.385405e-01 -1.393695e-01 -1.399968e-01 -1.395915e-01 -1.389683e-01 -1.372871e-01 -1.353943e-01 -1.324310e-01 -1.292870e-01 -1.250771e-01 -1.207428e-01 -1.153679e-01 -1.099503e-01 -1.035395e-01 -9.719137e-02 -8.991921e-02 -8.283467e-02 -7.491470e-02 -6.732071e-02 -5.899468e-02 -5.113874e-02 -4.266285e-02 -3.479801e-02 -2.642753e-02 -1.879666e-02 -1.077063e-02 -3.591598e-03 3.880482e-03 1.042712e-02 1.717558e-02 2.295534e-02 2.885675e-02 3.378601e-02 3.876572e-02 4.281241e-02 4.684354e-02 5.002438e-02 5.312386e-02 5.549860e-02 5.772108e-02 5.938458e-02 6.081493e-02 6.188787e-02 6.263306e-02 6.325199e-02 6.343286e-02 6.374034e-02 6.348379e-02 6.361918e-02 6.305109e-02 6.314243e-02 6.238157e-02 6.253897e-02 6.169196e-02 6.200267e-02 6.116012e-02 6.168544e-02 6.091927e-02 6.169322e-02 6.105527e-02 6.208508e-02 6.160685e-02 6.287493e-02 6.256849e-02 6.403581e-02 6.389568e-02 6.550595e-02 6.551179e-02 6.719622e-02 6.731577e-02 6.899782e-02 6.918991e-02 7.078949e-02 7.100658e-02 7.244336e-02 7.263322e-02 7.382879e-02 7.393531e-02 7.481410e-02 7.477732e-02 7.526662e-02 7.502233e-02 7.505193e-02 7.453143e-02 7.403357e-02 7.316431e-02 7.207447e-02 7.078200e-02 6.904111e-02 6.725265e-02 6.481061e-02 6.246009e-02 5.928039e-02 5.631440e-02 5.237907e-02 4.876296e-02 4.407708e-02 3.980021e-02 3.439508e-02 2.947447e-02 2.340886e-02 1.789063e-02 1.124980e-02 5.208216e-03 -1.899142e-03 -8.364722e-03 -1.581106e-02 -2.258084e-02 -3.022524e-02 -3.716435e-02 -4.485799e-02 -5.182190e-02 -5.941297e-02 -6.625229e-02 -7.358985e-02 -8.015416e-02 -8.709094e-02 -9.323166e-02 -9.962579e-02 -1.051982e-01 -1.109144e-01 -1.157795e-01 -1.206900e-01 
-1.381171e-01 -1.425722e-01 -1.460207e-01 -1.493331e-01 -1.515935e-01 -1.536566e-01 -1.546223e-01 -1.553494e-01 -1.549379e-01 -1.542685e-01 -1.524284e-01 -1.503361e-01 -1.470560e-01 -1.435564e-01 -1.388715e-01 -1.340288e-01 -1.280277e-01 -1.219594e-01 -1.147857e-01 -1.076626e-01 -9.951333e-02 -9.155526e-02 -8.267344e-02 -7.413926e-02 -6.480130e-02 -5.597441e-02 -4.647390e-02 -3.764459e-02 -2.827394e-02 -1.972075e-02 -1.075316e-02 -2.725373e-03 5.600881e-03 1.289761e-02 2.039096e-02 2.680466e-02 3.332749e-02 3.876513e-02 4.423627e-02 4.866434e-02 5.305747e-02 5.649841e-02 5.983713e-02 6.236246e-02 6.471294e-02 6.643394e-02 6.789613e-02 6.895308e-02 6.965124e-02 7.020198e-02 7.027530e-02 7.048390e-02 7.007762e-02 7.010391e-02 6.936139e-02 6.935177e-02 6.840764e-02 6.848760e-02 6.746221e-02 6.773075e-02 6.672590e-02 6.725208e-02 6.634808e-02 6.716960e-02 6.642371e-02 6.754750e-02 6.699382e-02 6.839841e-02 6.804894e-02 6.968840e-02 6.953539e-02 7.134429e-02 7.136343e-02 7.326249e-02 7.341648e-02 7.531815e-02 7.556032e-02 7.737380e-02 7.765104e-02 7.928615e-02 7.954086e-02 8.091040e-02 8.108122e-02 8.210187e-02 8.212333e-02 8.271531e-02 8.251693e-02 8.260313e-02 8.210865e-02 8.161408e-02 8.074177e-02 7.959418e-02 7.825886e-02 7.639098e-02 7.450809e-02 7.186176e-02 6.935337e-02 6.588500e-02 6.268699e-02 5.837363e-02 5.444313e-02 4.928794e-02 4.460982e-02 3.864606e-02 3.323734e-02 2.652991e-02 2.044150e-02 1.308584e-02 6.401326e-03 -1.480277e-03 -8.648499e-03 -1.691245e-02 -2.442882e-02 -3.291676e-02 -4.062910e-02 -4.917439e-02 -5.692031e-02 -6.535374e-02 -7.296618e-02 -8.112029e-02 -8.843182e-02 -9.614383e-02 -1.029896e-01 -1.101031e-01 -1.163228e-01 -1.226885e-01 -1.281280e-01 -1.336045e-01 
-1.517539e-01 -1.567073e-01 -1.605735e-01 -1.642706e-01 -1.668287e-01 -1.691488e-01 -1.702773e-01 -1.711202e-01 -1.707225e-01 -1.700159e-01 -1.680295e-01 -1.657381e-01 -1.621438e-01 -1.582795e-01 -1.531113e-01 -1.477410e-01 -1.410933e-01 -1.343452e-01 -1.263768e-01 -1.184415e-01 -1.093732e-01 -1.004989e-01 -9.060581e-02 -8.108719e-02 -7.068393e-02 -6.084465e-02 -5.026629e-02 -4.043838e-02 -3.001852e-02 -2.052014e-02 -1.056964e-02 -1.684473e-03 7.526976e-03 1.556648e-02 2.382391e-02 3.084803e-02 3.799918e-02 4.390661e-02 4.986442e-02 5.462248e-02 5.936267e-02 6.300274e-02 6.655766e-02 6.916683e-02 7.161669e-02 7.332679e-02 7.478927e-02 7.576425e-02 7.638358e-02 7.680626e-02 7.674249e-02 7.680158e-02 7.622051e-02 7.609867e-02 7.516293e-02 7.502637e-02 7.388786e-02 7.387797e-02 7.267168e-02 7.289888e-02 7.173819e-02 7.227825e-02 7.125172e-02 7.214437e-02 7.131415e-02 7.256398e-02 7.196568e-02 7.354518e-02 7.318931e-02 7.504350e-02 7.491830e-02 7.697076e-02 7.704602e-02 7.920547e-02 7.943695e-02 8.160386e-02 8.193760e-02 8.401002e-02 8.438591e-02 8.626384e-02 8.661790e-02 8.820580e-02 8.847087e-02 8.967825e-02 8.978321e-02 9.052368e-02 9.039193e-02 9.058151e-02 9.012949e-02 8.968544e-02 8.882244e-02 8.766343e-02 8.629352e-02 8.434217e-02 8.236872e-02 7.955645e-02 7.688910e-02 7.316283e-02 6.972614e-02 6.505580e-02 6.079815e-02 5.518357e-02 5.008504e-02 4.356089e-02 3.763863e-02 3.027639e-02 2.358668e-02 1.549328e-02 8.129976e-03 -5.567654e-04 -8.466947e-03 -1.758513e-02 -2.588956e-02 -3.526115e-02 -4.378911e-02 -5.322770e-02 -6.179796e-02 -7.111538e-02 -7.954258e-02 -8.855378e-02 -9.665309e-02 -1.051791e-01 -1.127694e-01 -1.206388e-01 -1.275441e-01 -1.345937e-01 -1.406446e-01 -1.467192e-01 
-1.662742e-01 -1.717610e-01 -1.760772e-01 -1.801901e-01 -1.830722e-01 -1.856747e-01 -1.869840e-01 -1.879600e-01 -1.875837e-01 -1.868462e-01 -1.847077e-01 -1.822100e-01 -1.782802e-01 -1.740272e-01 -1.683370e-01 -1.623965e-01 -1.550455e-01 -1.475557e-01 -1.387183e-01 -1.298902e-01 -1.198137e-01 -1.099264e-01 -9.892212e-02 -8.830989e-02 -7.673601e-02 -6.576802e-02 -5.400700e-02 -4.306264e-02 -3.149507e-02 -2.093764e-02 -9.917024e-03 -6.939341e-05 1.009942e-02 1.897425e-02 2.805062e-02 3.576256e-02 4.357877e-02 5.001678e-02 5.648022e-02 6.161197e-02 6.670166e-02 7.056778e-02 7.432671e-02 7.703088e-02 7.955547e-02 8.125153e-02 8.267954e-02 8.355695e-02 8.405487e-02 8.432362e-02 8.407446e-02 8.395028e-02 8.314236e-02 8.283326e-02 8.165025e-02 8.134484e-02 7.995745e-02 7.981557e-02 7.837479e-02 7.852066e-02 7.715264e-02 7.767077e-02 7.647331e-02 7.740699e-02 7.644783e-02 7.780030e-02 7.711705e-02 7.885495e-02 7.845690e-02 8.051577e-02 8.038723e-02 8.267850e-02 8.278342e-02 8.520223e-02 8.548951e-02 8.792253e-02 8.833120e-02 9.066357e-02 9.112707e-02 9.324750e-02 9.369626e-02 9.549991e-02 9.586187e-02 9.725065e-02 9.744988e-02 9.833085e-02 9.828501e-02 9.856772e-02 9.818562e-02 9.777993e-02 9.696060e-02 9.577640e-02 9.441085e-02 9.236056e-02 9.033696e-02 8.734111e-02 8.455310e-02 8.054840e-02 7.690555e-02 7.185398e-02 6.729276e-02 6.119013e-02 5.568356e-02 4.856558e-02 4.212983e-02 3.407472e-02 2.677154e-02 1.789832e-02 9.833040e-03 2.960693e-04 -8.388362e-03 -1.840767e-02 -2.753922e-02 -3.784194e-02 -4.722905e-02 -5.760801e-02 -6.704856e-02 -7.729595e-02 -8.658461e-02 -9.649741e-02 -1.054308e-01 -1.148138e-01 -1.231934e-01 -1.318603e-01 -1.394941e-01 -1.472673e-01 -1.539700e-01 -1.606804e-01 
-1.810832e-01 -1.871392e-01 -1.919467e-01 -1.965077e-01 -1.997524e-01 -2.026650e-01 -2.041894e-01 -2.053200e-01 -2.049926e-01 -2.042376e-01 -2.019650e-01 -1.992634e-01 -1.950042e-01 -1.903525e-01 -1.841315e-01 -1.775968e-01 -1.695179e-01 -1.612485e-01 -1.515015e-01 -1.417308e-01 -1.305912e-01 -1.196328e-01 -1.074518e-01 -9.568475e-02 -8.286919e-02 -7.071447e-02 -5.769996e-02 -4.559072e-02 -3.281056e-02 -2.116088e-02 -9.016067e-03 1.807819e-03 1.297376e-02 2.267604e-02 3.259487e-02 4.096485e-02 4.945307e-02 5.637162e-02 6.333210e-02 6.877047e-02 7.418770e-02 7.820022e-02 8.213076e-02 8.484287e-02 8.740277e-02 8.899583e-02 9.034647e-02 9.104089e-02 9.137452e-02 9.141233e-02 9.093818e-02 9.056620e-02 8.949788e-02 8.895247e-02 8.749699e-02 8.699093e-02 8.533954e-02 8.505165e-02 8.337244e-02 8.344011e-02 8.187245e-02 8.238731e-02 8.103811e-02 8.204466e-02 8.098644e-02 8.248371e-02 8.175475e-02 8.370054e-02 8.330697e-02 8.562443e-02 8.554431e-02 8.813020e-02 8.831906e-02 9.105300e-02 9.145026e-02 9.420390e-02 9.473923e-02 9.738436e-02 9.798284e-02 1.003972e-01 1.009825e-01 1.030529e-01 1.035474e-01 1.051695e-01 1.054925e-01 1.065677e-01 1.066318e-01 1.070638e-01 1.067706e-01 1.064614e-01 1.057003e-01 1.045493e-01 1.031983e-01 1.011049e-01 9.903668e-02 9.590710e-02 9.299832e-02 8.875544e-02 8.489962e-02 7.949436e-02 7.461509e-02 6.803706e-02 6.209969e-02 5.438494e-02 4.740470e-02 3.863883e-02 3.068373e-02 2.099989e-02 1.218812e-02 1.760084e-03 -7.747348e-03 -1.871538e-02 -2.872514e-02 -4.001024e-02 -5.030819e-02 -6.167976e-02 -7.204163e-02 -8.327030e-02 -9.347005e-02 -1.043336e-01 -1.141490e-01 -1.244355e-01 -1.336510e-01 -1.431590e-01 -1.515663e-01 -1.601043e-01 -1.675028e-01 -1.748874e-01 
-1.969342e-01 -2.036032e-01 -2.089434e-01 -2.139931e-01 -2.176354e-01 -2.208932e-01 -2.226589e-01 -2.239705e-01 -2.237062e-01 -2.229475e-01 -2.205392e-01 -2.176310e-01 -2.130210e-01 -2.079469e-01 -2.011514e-01 -1.939747e-01 -1.850998e-01 -1.759772e-01 -1.652289e-01 -1.544166e-01 -1.421016e-01 -1.299509e-01 -1.164658e-01 -1.034062e-01 -8.921397e-02 -7.572539e-02 -6.132317e-02 -4.790036e-02 -3.378228e-02 -2.089757e-02 -7.518934e-03 4.411711e-03 1.666392e-02 2.730714e-02 3.813447e-02 4.725595e-02 5.645845e-02 6.392946e-02 7.140651e-02 7.720164e-02 8.294529e-02 8.713332e-02 9.121646e-02 9.394603e-02 9.650738e-02 9.798938e-02 9.921705e-02 9.970522e-02 9.982009e-02 9.959123e-02 9.883137e-02 9.816639e-02 9.677305e-02 9.593980e-02 9.414538e-02 9.338410e-02 9.140218e-02 9.091392e-02 8.893132e-02 8.886974e-02 8.704046e-02 8.750698e-02 8.594813e-02 8.699056e-02 8.578033e-02 8.739471e-02 8.657253e-02 8.870810e-02 8.827712e-02 9.084389e-02 9.077583e-02 9.365424e-02 9.389598e-02 9.694776e-02 9.742916e-02 1.005083e-01 1.011498e-01 1.041122e-01 1.048313e-01 1.075416e-01 1.082562e-01 1.105917e-01 1.112204e-01 1.130700e-01 1.135289e-01 1.147890e-01 1.149865e-01 1.155554e-01 1.153864e-01 1.151593e-01 1.145016e-01 1.133681e-01 1.120839e-01 1.099305e-01 1.078724e-01 1.045902e-01 1.016129e-01 9.710975e-02 9.308558e-02 8.729992e-02 8.213494e-02 7.504902e-02 6.869779e-02 6.034729e-02 5.282268e-02 4.330074e-02 3.467739e-02 2.413216e-02 1.454310e-02 3.169327e-03 -7.203365e-03 -1.917689e-02 -3.011517e-02 -4.243976e-02 -5.370366e-02 -6.612392e-02 -7.746429e-02 -8.972847e-02 -1.008966e-01 -1.127631e-01 -1.235165e-01 -1.347566e-01 -1.448621e-01 -1.552597e-01 -1.644926e-01 -1.738424e-01 -1.819858e-01 -1.900905e-01 