# vtk DataFile Version 2.0
Comment goes here
ASCII

DATASET STRUCTURED_POINTS
FIELD FieldData 1
TIME 1 1 double
0.13500000
DIMENSIONS    128   128   1

ORIGIN    0.000   0.000   0.000
SPACING   0.039062 0.039062   1.000

POINT_DATA   16384
SCALARS uY double
LOOKUP_TABLE default

-1.112480e-14 -5.978016e-15 -9.271342e-15 -3.371446e-15 -6.675636e-15 -8.052792e-16 -3.490077e-15 3.513712e-15 9.328056e-16 8.010818e-15 5.589538e-15 1.205643e-14 9.083428e-15 1.562130e-14 1.289707e-14 2.010946e-14 1.761768e-14 2.438803e-14 2.051988e-14 2.642542e-14 2.213281e-14 2.782746e-14 2.415802e-14 3.057383e-14 2.749769e-14 3.430021e-14 3.161464e-14 3.832367e-14 3.601695e-14 4.319655e-14 4.060075e-14 4.694958e-14 4.377667e-14 5.070092e-14 4.953903e-14 5.563470e-14 5.243591e-14 5.989762e-14 5.796768e-14 6.369092e-14 6.290176e-14 7.019124e-14 7.009153e-14 7.531826e-14 7.591611e-14 7.934063e-14 8.064685e-14 8.426027e-14 8.663668e-14 9.048827e-14 9.208998e-14 9.330494e-14 9.630138e-14 9.891190e-14 1.006933e-13 1.003179e-13 1.033341e-13 1.023428e-13 1.070383e-13 1.049670e-13 1.124189e-13 1.085041e-13 1.124798e-13 1.069081e-13 1.116770e-13 1.057169e-13 1.113952e-13 1.041652e-13 1.103285e-13 1.020316e-13 1.076651e-13 9.787341e-14 1.030036e-13 9.281606e-14 9.807108e-14 8.828902e-14 9.334442e-14 8.391064e-14 8.809050e-14 7.880866e-14 8.279517e-14 7.348283e-14 7.671045e-14 6.741818e-14 7.141283e-14 6.361008e-14 6.671540e-14 5.943795e-14 6.282032e-14 5.612283e-14 5.867998e-14 5.418889e-14 5.672371e-14 5.149124e-14 5.211216e-14 4.692060e-14 4.554125e-14 4.146887e-14 3.938847e-14 3.506221e-14 3.265838e-14 2.876908e-14 2.667282e-14 2.588981e-14 2.383359e-14 2.220166e-14 1.767772e-14 1.567608e-14 1.174246e-14 1.218215e-14 6.468959e-15 6.806213e-15 9.724722e-16 1.685938e-15 -3.489378e-15 -2.650942e-15 -8.271680e-15 -7.104690e-15 -1.211873e-14 -9.065500e-15 -1.379110e-14 -1.045413e-14 -1.457581e-14 -1.052725e-14 -1.462362e-14 -1.027099e-14 -1.345384e-14 -7.897180e-15 
-2.290657e-02 -2.352813e-02 -2.350923e-02 -2.400175e-02 -2.386791e-02 -2.423374e-02 -2.398857e-02 -2.423045e-02 -2.387811e-02 -2.399884e-02 -2.354383e-02 -2.354601e-02 -2.299310e-02 -2.287912e-02 -2.223335e-02 -2.200538e-02 -2.127224e-02 -2.093242e-02 -2.011795e-02 -1.966854e-02 -1.877953e-02 -1.822312e-02 -1.726724e-02 -1.660695e-02 -1.559284e-02 -1.483247e-02 -1.376979e-02 -1.291389e-02 -1.181330e-02 -1.086726e-02 -9.740387e-03 -8.710442e-03 -7.569796e-03 -6.463030e-03 -5.321875e-03 -4.146199e-03 -3.018425e-03 -1.782562e-03 -6.825136e-04 6.040243e-04 1.661758e-03 2.988674e-03 3.989517e-03 5.345736e-03 6.275426e-03 7.649100e-03 8.494047e-03 9.872578e-03 1.062025e-02 1.199034e-02 1.262971e-02 1.397743e-02 1.449936e-02 1.581035e-02 1.620805e-02 1.746768e-02 1.773703e-02 1.893075e-02 1.907054e-02 2.018421e-02 2.019635e-02 2.121659e-02 2.110611e-02 2.202076e-02 2.179565e-02 2.259410e-02 2.226502e-02 2.293855e-02 2.251836e-02 2.306037e-02 2.256352e-02 2.296958e-02 2.241133e-02 2.267919e-02 2.207478e-02 2.220413e-02 2.156789e-02 2.156005e-02 2.090451e-02 2.076197e-02 2.009711e-02 1.982301e-02 1.915560e-02 1.875329e-02 1.808657e-02 1.755918e-02 1.689276e-02 1.624300e-02 1.557316e-02 1.480334e-02 1.412372e-02 1.323601e-02 1.253858e-02 1.153557e-02 1.081189e-02 9.697291e-03 8.939932e-03 7.719415e-03 6.923290e-03 5.605278e-03 4.768815e-03 3.365074e-03 2.491017e-03 1.016939e-03 1.126716e-04 -1.412850e-03 -2.335508e-03 -3.890638e-03 -4.816136e-03 -6.377026e-03 -7.287189e-03 -8.829180e-03 -9.704547e-03 -1.120347e-02 -1.202470e-02 -1.345811e-02 -1.420722e-02 -1.555543e-02 -1.621685e-02 -1.746360e-02 -1.802477e-02 -1.915760e-02 -1.960929e-02 -2.061950e-02 -2.095574e-02 -2.183803e-02 -2.205581e-02 -2.280781e-02 
-4.567908e-02 -4.690129e-02 -4.683564e-02 -4.780371e-02 -4.751336e-02 -4.823173e-02 -4.772350e-02 -4.819731e-02 -4.747898e-02 -4.771338e-02 -4.679329e-02 -4.679302e-02 -4.568001e-02 -4.544931e-02 -4.415280e-02 -4.369553e-02 -4.222580e-02 -4.154574e-02 -3.991429e-02 -3.901553e-02 -3.723541e-02 -3.612281e-02 -3.420895e-02 -3.288843e-02 -3.085782e-02 -2.933675e-02 -2.720853e-02 -2.549587e-02 -2.329132e-02 -2.139775e-02 -1.914018e-02 -1.707814e-02 -1.479268e-02 -1.257635e-02 -1.028975e-02 -7.934973e-03 -5.675259e-03 -3.199548e-03 -9.956772e-04 1.581864e-03 3.700438e-03 6.359126e-03 8.362979e-03 1.108056e-02 1.294091e-02 1.569355e-02 1.738298e-02 2.014532e-02 2.163855e-02 2.438378e-02 2.565851e-02 2.835857e-02 2.939633e-02 3.202217e-02 3.280914e-02 3.533120e-02 3.585887e-02 3.824766e-02 3.851342e-02 4.074022e-02 4.074763e-02 4.278528e-02 4.254414e-02 4.436787e-02 4.389396e-02 4.548212e-02 4.479659e-02 4.613137e-02 4.525985e-02 4.632769e-02 4.529904e-02 4.609087e-02 4.493572e-02 4.544693e-02 4.419601e-02 4.442603e-02 4.310839e-02 4.306009e-02 4.170141e-02 4.138019e-02 4.000122e-02 3.941406e-02 3.802934e-02 3.718386e-02 3.580101e-02 3.470460e-02 3.332418e-02 3.198357e-02 3.059958e-02 2.902082e-02 2.762203e-02 2.581093e-02 2.438274e-02 2.234589e-02 2.087282e-02 1.861893e-02 1.708726e-02 1.462872e-02 1.302916e-02 1.038356e-02 8.713486e-03 5.904732e-03 4.169730e-03 1.228595e-03 -5.569187e-04 -3.593062e-03 -5.406237e-03 -8.494488e-03 -1.030542e-02 -1.339917e-02 -1.517302e-02 -1.822426e-02 -1.992385e-02 -2.288569e-02 -2.447420e-02 -2.730325e-02 -2.874658e-02 -3.140487e-02 -3.267359e-02 -3.512991e-02 -3.620045e-02 -3.843097e-02 -3.928610e-02 -4.127426e-02 -4.190298e-02 -4.363882e-02 -4.403572e-02 -4.551482e-02 
-6.896785e-02 -7.083109e-02 -7.077169e-02 -7.224690e-02 -7.184178e-02 -7.293649e-02 -7.219683e-02 -7.291966e-02 -7.185815e-02 -7.221769e-02 -7.084792e-02 -7.085209e-02 -6.918829e-02 -6.884416e-02 -6.690139e-02 -6.621537e-02 -6.400990e-02 -6.298817e-02 -6.053798e-02 -5.918714e-02 -5.651246e-02 -5.484011e-02 -5.196383e-02 -4.997919e-02 -4.692720e-02 -4.464154e-02 -4.144281e-02 -3.886973e-02 -3.555632e-02 -3.271197e-02 -2.931885e-02 -2.622193e-02 -2.278671e-02 -1.945850e-02 -1.602112e-02 -1.248537e-02 -9.087675e-03 -5.370566e-03 -2.055802e-03 1.814113e-03 5.001927e-03 8.993754e-03 1.201058e-02 1.609108e-02 1.889377e-02 2.302740e-02 2.557478e-02 2.972368e-02 3.197776e-02 3.610191e-02 3.802915e-02 4.208666e-02 4.365928e-02 4.760681e-02 4.880404e-02 5.259748e-02 5.340667e-02 5.700199e-02 5.741942e-02 6.077378e-02 6.080515e-02 6.387806e-02 6.353859e-02 6.629315e-02 6.560711e-02 6.801120e-02 6.701108e-02 6.903831e-02 6.776330e-02 6.939374e-02 6.788792e-02 6.910838e-02 6.741838e-02 6.822229e-02 6.639472e-02 6.678149e-02 6.486021e-02 6.483424e-02 6.285764e-02 6.242686e-02 6.042548e-02 5.959983e-02 5.759439e-02 5.638428e-02 5.438453e-02 5.279960e-02 5.080406e-02 4.885243e-02 4.684930e-02 4.453763e-02 4.250679e-02 3.984107e-02 3.775719e-02 3.474442e-02 3.258082e-02 2.923133e-02 2.696434e-02 2.329435e-02 2.090755e-02 1.694174e-02 1.442960e-02 1.020298e-02 7.573427e-03 3.132299e-03 4.076758e-04 -4.190728e-03 -6.974252e-03 -1.166349e-02 -1.445816e-02 -1.916548e-02 -2.191543e-02 -2.656557e-02 -2.921101e-02 -3.373022e-02 -3.621186e-02 -4.053179e-02 -4.279471e-02 -4.685557e-02 -4.885236e-02 -5.260508e-02 -5.429782e-02 -5.770501e-02 -5.906605e-02 -6.210191e-02 -6.311366e-02 -6.576290e-02 -6.641679e-02 -6.867291e-02 
-9.184507e-02 -9.428671e-02 -9.415020e-02 -9.608186e-02 -9.549436e-02 -9.692591e-02 -9.590170e-02 -9.684415e-02 -9.539914e-02 -9.586317e-02 -9.401418e-02 -9.400939e-02 -9.177396e-02 -9.130869e-02 -8.870540e-02 -8.778706e-02 -8.483612e-02 -8.347189e-02 -8.019594e-02 -7.839360e-02 -7.481845e-02 -7.258729e-02 -6.874259e-02 -6.609421e-02 -6.201384e-02 -5.896274e-02 -5.468502e-02 -5.124902e-02 -4.681660e-02 -4.301703e-02 -3.847672e-02 -3.433848e-02 -2.974080e-02 -2.529226e-02 -2.069098e-02 -1.596393e-02 -1.141548e-02 -6.444947e-03 -2.007685e-03 3.168095e-03 7.434738e-03 1.277438e-02 1.681094e-02 2.226992e-02 2.601811e-02 3.154875e-02 3.495293e-02 4.050442e-02 4.351320e-02 4.903173e-02 5.159966e-02 5.702879e-02 5.911813e-02 6.439934e-02 6.598173e-02 7.105532e-02 7.211324e-02 7.691951e-02 7.744740e-02 8.192814e-02 8.193309e-02 8.603318e-02 8.553507e-02 8.920416e-02 8.823513e-02 9.142932e-02 9.003260e-02 9.271575e-02 9.094381e-02 9.308858e-02 9.100063e-02 9.258897e-02 9.024793e-02 9.127095e-02 8.874002e-02 8.919724e-02 8.653628e-02 8.643426e-02 8.369618e-02 8.304673e-02 8.027422e-02 7.909230e-02 7.631522e-02 7.461680e-02 7.185056e-02 6.965094e-02 6.689607e-02 6.420875e-02 6.145202e-02 5.828861e-02 5.550560e-02 5.187677e-02 4.903588e-02 4.495342e-02 4.202098e-02 3.750076e-02 3.444672e-02 2.951203e-02 2.631555e-02 2.100042e-02 1.765470e-02 1.200642e-02 8.522016e-03 2.602371e-03 -9.914885e-04 -7.106667e-03 -1.076291e-02 -1.698602e-02 -2.064270e-02 -2.687819e-02 -3.046305e-02 -3.661241e-02 -4.004844e-02 -4.601551e-02 -4.922661e-02 -5.492264e-02 -5.783875e-02 -6.318651e-02 -6.574754e-02 -7.068401e-02 -7.284231e-02 -7.731988e-02 -7.904116e-02 -8.302739e-02 -8.429027e-02 -8.776632e-02 -8.856093e-02 -9.151927e-02 
-1.157764e-01 -1.188765e-01 -1.187679e-01 -1.212183e-01 -1.205307e-01 -1.223456e-01 -1.210988e-01 -1.222940e-01 -1.205097e-01 -1.211001e-01 -1.188014e-01 -1.188004e-01 -1.160107e-01 -1.154300e-01 -1.121740e-01 -1.110237e-01 -1.073280e-01 -1.056177e-01 -1.015116e-01 -9.925173e-02 -9.476849e-02 -9.197100e-02 -8.714846e-02 -8.382822e-02 -7.870937e-02 -7.488480e-02 -6.951798e-02 -6.521159e-02 -5.965038e-02 -5.488901e-02 -4.919197e-02 -4.400683e-02 -3.823704e-02 -3.266363e-02 -2.688811e-02 -2.096610e-02 -1.525516e-02 -9.028244e-03 -3.454643e-03 3.029560e-03 8.391596e-03 1.508158e-02 2.015763e-02 2.699800e-02 3.171494e-02 3.864637e-02 4.293426e-02 4.989352e-02 5.368758e-02 6.060769e-02 6.385056e-02 7.066118e-02 7.330519e-02 7.993337e-02 8.194272e-02 8.831394e-02 8.966662e-02 9.570635e-02 9.639562e-02 1.020311e-01 1.020664e-01 1.072289e-01 1.066361e-01 1.112627e-01 1.100832e-01 1.141193e-01 1.124089e-01 1.158098e-01 1.136359e-01 1.163680e-01 1.138066e-01 1.158481e-01 1.129797e-01 1.143203e-01 1.112257e-01 1.118655e-01 1.086208e-01 1.085687e-01 1.052406e-01 1.045116e-01 1.011530e-01 9.976531e-02 9.641209e-02 9.438451e-02 9.105317e-02 8.840250e-02 8.508962e-02 8.182941e-02 7.851308e-02 7.465347e-02 7.129676e-02 6.684592e-02 6.340226e-02 5.836935e-02 5.478950e-02 4.918882e-02 4.542861e-02 3.928445e-02 3.531249e-02 2.866383e-02 2.446812e-02 1.737229e-02 1.296489e-02 5.499464e-03 9.183224e-04 -6.819412e-03 -1.151156e-02 -1.940763e-02 -2.412734e-02 -3.205638e-02 -3.670587e-02 -4.453789e-02 -4.901272e-02 -5.662054e-02 -6.081748e-02 -6.808369e-02 -7.190781e-02 -7.873037e-02 -8.210046e-02 -8.839648e-02 -9.124841e-02 -9.695573e-02 -9.924368e-02 -1.043205e-01 -1.060163e-01 -1.104389e-01 -1.115300e-01 -1.152900e-01 
-1.389903e-01 -1.426446e-01 -1.424259e-01 -1.453112e-01 -1.444123e-01 -1.465460e-01 -1.449899e-01 -1.463902e-01 -1.442017e-01 -1.448858e-01 -1.420903e-01 -1.420726e-01 -1.386962e-01 -1.379890e-01 -1.340587e-01 -1.326721e-01 -1.282174e-01 -1.261612e-01 -1.212149e-01 -1.184997e-01 -1.130999e-01 -1.097386e-01 -1.039292e-01 -9.993845e-02 -9.377003e-02 -8.917110e-02 -8.270118e-02 -7.752052e-02 -7.081342e-02 -6.508297e-02 -5.820934e-02 -5.196651e-02 -4.500275e-02 -3.829025e-02 -3.131778e-02 -2.418339e-02 -1.728773e-02 -9.784123e-03 -3.053900e-03 4.761520e-03 1.123585e-02 1.930100e-02 2.542867e-02 3.367677e-02 3.936855e-02 4.772803e-02 5.289845e-02 6.129288e-02 6.586269e-02 7.421095e-02 7.810982e-02 8.632650e-02 8.949574e-02 9.749197e-02 9.988723e-02 1.075720e-01 1.091656e-01 1.164475e-01 1.172303e-01 1.240201e-01 1.240026e-01 1.302154e-01 1.294281e-01 1.349865e-01 1.334790e-01 1.383154e-01 1.361550e-01 1.402139e-01 1.374823e-01 1.407221e-01 1.375119e-01 1.399057e-01 1.363155e-01 1.378509e-01 1.339801e-01 1.346580e-01 1.306008e-01 1.304333e-01 1.262731e-01 1.252804e-01 1.210845e-01 1.192918e-01 1.151069e-01 1.125402e-01 1.083900e-01 1.050735e-01 1.009574e-01 9.691169e-02 9.280661e-02 8.804776e-02 8.391210e-02 7.845362e-02 7.423368e-02 6.808966e-02 6.372790e-02 5.691797e-02 5.236239e-02 4.491747e-02 4.013090e-02 3.209891e-02 2.706704e-02 1.851743e-02 1.325442e-02 4.280437e-03 -1.168802e-03 -1.045061e-02 -1.601185e-02 -2.546532e-02 -3.103998e-02 -4.051573e-02 -4.598860e-02 -5.533222e-02 -6.058075e-02 -6.964178e-02 -7.454552e-02 -8.318578e-02 -8.763474e-02 -9.573496e-02 -9.963596e-02 -1.071001e-01 -1.103805e-01 -1.171375e-01 -1.197463e-01 -1.257494e-01 -1.276563e-01 -1.328801e-01 -1.340729e-01 -1.385095e-01 
-1.638402e-01 -1.681667e-01 -1.679931e-01 -1.714041e-01 -1.704143e-01 -1.729338e-01 -1.711579e-01 -1.728103e-01 -1.702805e-01 -1.710884e-01 -1.678370e-01 -1.678194e-01 -1.638791e-01 -1.630516e-01 -1.584559e-01 -1.568316e-01 -1.516162e-01 -1.492072e-01 -1.434120e-01 -1.402310e-01 -1.339014e-01 -1.299640e-01 -1.231522e-01 -1.184779e-01 -1.112439e-01 -1.058580e-01 -9.826942e-02 -9.220291e-02 -8.433530e-02 -7.762573e-02 -6.956164e-02 -6.225278e-02 -5.408130e-02 -4.622303e-02 -3.803895e-02 -2.968698e-02 -2.158987e-02 -1.280551e-02 -4.898681e-03 4.251340e-03 1.186220e-02 2.130578e-02 2.851432e-02 3.817390e-02 4.487522e-02 5.466769e-02 6.076097e-02 7.059755e-02 7.598901e-02 8.577537e-02 9.038155e-02 1.000182e-01 1.037694e-01 1.131526e-01 1.159960e-01 1.250194e-01 1.269222e-01 1.354790e-01 1.364305e-01 1.444160e-01 1.444293e-01 1.517441e-01 1.508562e-01 1.574096e-01 1.556808e-01 1.613938e-01 1.589055e-01 1.637138e-01 1.605649e-01 1.644206e-01 1.607229e-01 1.635958e-01 1.594684e-01 1.613455e-01 1.569078e-01 1.577920e-01 1.531571e-01 1.530640e-01 1.483312e-01 1.472858e-01 1.425340e-01 1.405656e-01 1.358481e-01 1.329861e-01 1.283266e-01 1.245964e-01 1.199881e-01 1.154090e-01 1.108164e-01 1.054006e-01 1.007645e-01 9.451927e-02 8.976507e-02 8.269758e-02 7.774566e-02 6.986938e-02 6.464737e-02 5.598997e-02 5.044485e-02 4.105594e-02 3.516462e-02 2.512199e-02 1.889877e-02 8.311740e-03 1.811348e-03 -9.179700e-03 -1.586390e-02 -2.709220e-02 -3.383473e-02 -4.511544e-02 -5.176893e-02 -6.290998e-02 -6.931740e-02 -8.013122e-02 -8.613837e-02 -9.645283e-02 -1.019193e-01 -1.115864e-01 -1.163939e-01 -1.252953e-01 -1.293523e-01 -1.374015e-01 -1.406445e-01 -1.477857e-01 -1.501781e-01 -1.563826e-01 -1.579107e-01 -1.631717e-01 
-1.876176e-01 -1.924712e-01 -1.921511e-01 -1.959726e-01 -1.947392e-01 -1.975567e-01 -1.954439e-01 -1.972851e-01 -1.943277e-01 -1.952170e-01 -1.914492e-01 -1.914064e-01 -1.868620e-01 -1.859024e-01 -1.806158e-01 -1.787512e-01 -1.727597e-01 -1.700010e-01 -1.633465e-01 -1.597055e-01 -1.524371e-01 -1.479291e-01 -1.401043e-01 -1.347500e-01 -1.264360e-01 -1.202628e-01 -1.115364e-01 -1.045791e-01 -9.552664e-02 -8.782794e-02 -7.854449e-02 -7.015438e-02 -6.074303e-02 -5.171876e-02 -4.228942e-02 -3.269501e-02 -2.336334e-02 -1.326923e-02 -4.155377e-03 6.361798e-03 1.513480e-02 2.599230e-02 3.430051e-02 4.540935e-02 5.313040e-02 6.439512e-02 7.141119e-02 8.272966e-02 8.893095e-02 1.001943e-01 1.054828e-01 1.165758e-01 1.208693e-01 1.316715e-01 1.349072e-01 1.452943e-01 1.474326e-01 1.572795e-01 1.583065e-01 1.674900e-01 1.674194e-01 1.758225e-01 1.746960e-01 1.822114e-01 1.800982e-01 1.866322e-01 1.836261e-01 1.891025e-01 1.853186e-01 1.896806e-01 1.852494e-01 1.884612e-01 1.835226e-01 1.855694e-01 1.802645e-01 1.811510e-01 1.756141e-01 1.753608e-01 1.697112e-01 1.683503e-01 1.626842e-01 1.602544e-01 1.546382e-01 1.511788e-01 1.456451e-01 1.411912e-01 1.357369e-01 1.303164e-01 1.249045e-01 1.185365e-01 1.131019e-01 1.057995e-01 1.002580e-01 9.203265e-02 8.629357e-02 7.716288e-02 7.114295e-02 6.113979e-02 5.477746e-02 4.395914e-02 3.722700e-02 2.568277e-02 1.859629e-02 6.451451e-03 -9.273426e-04 -1.351192e-02 -2.107668e-02 -3.390991e-02 -4.151771e-02 -5.438807e-02 -6.187148e-02 -7.455979e-02 -8.174126e-02 -9.403442e-02 -1.007408e-01 -1.124445e-01 -1.185195e-01 -1.294682e-01 -1.347818e-01 -1.448447e-01 -1.492980e-01 -1.583814e-01 -1.619079e-01 -1.699531e-01 -1.725164e-01 -1.794956e-01 -1.810846e-01 -1.869942e-01 
-2.136808e-01 -2.192146e-01 -2.189500e-01 -2.232979e-01 -2.219755e-01 -2.251749e-01 -2.228381e-01 -2.249251e-01 -2.216174e-01 -2.226234e-01 -2.183870e-01 -2.183370e-01 -2.132127e-01 -2.121254e-01 -2.061541e-01 -2.040439e-01 -1.972691e-01 -1.941485e-01 -1.866188e-01 -1.825012e-01 -1.742730e-01 -1.691759e-01 -1.603150e-01 -1.542617e-01 -1.448447e-01 -1.378663e-01 -1.279806e-01 -1.201165e-01 -1.098598e-01 -1.011583e-01 -9.063798e-02 -8.115554e-02 -7.048746e-02 -6.028862e-02 -4.959622e-02 -3.875299e-02 -2.816619e-02 -1.675764e-02 -6.411639e-03 5.476345e-03 1.544266e-02 2.771742e-02 3.716359e-02 4.972554e-02 5.851229e-02 7.125458e-02 7.924721e-02 9.205545e-02 9.912786e-02 1.118799e-01 1.179192e-01 1.304854e-01 1.353964e-01 1.476410e-01 1.513511e-01 1.631336e-01 1.655969e-01 1.767754e-01 1.779758e-01 1.884106e-01 1.883645e-01 1.979224e-01 1.966790e-01 2.052381e-01 2.028785e-01 2.103330e-01 2.069677e-01 2.132313e-01 2.089954e-01 2.140052e-01 2.090522e-01 2.127696e-01 2.072635e-01 2.096744e-01 2.037807e-01 2.048934e-01 1.987691e-01 1.986101e-01 1.923938e-01 1.910023e-01 1.848043e-01 1.822255e-01 1.761200e-01 1.723979e-01 1.664170e-01 1.615881e-01 1.557199e-01 1.498094e-01 1.439997e-01 1.370199e-01 1.311792e-01 1.231322e-01 1.171470e-01 1.080313e-01 1.017797e-01 9.160002e-02 8.496921e-02 7.374887e-02 6.665367e-02 5.444664e-02 4.684544e-02 3.374662e-02 2.565284e-02 1.180380e-02 3.290795e-03 -1.112036e-02 -1.992208e-02 -3.466745e-02 -4.358017e-02 -5.840463e-02 -6.721911e-02 -8.185675e-02 -9.035092e-02 -1.045428e-01 -1.125005e-01 -1.260112e-01 -1.332384e-01 -1.458683e-01 -1.522047e-01 -1.637979e-01 -1.691231e-01 -1.795699e-01 -1.838046e-01 -1.930387e-01 -1.961414e-01 -2.041344e-01 -2.060951e-01 -2.128479e-01 
-2.382450e-01 -2.442739e-01 -2.438222e-01 -2.485516e-01 -2.469498e-01 -2.504232e-01 -2.477190e-01 -2.499765e-01 -2.462160e-01 -2.472907e-01 -2.425168e-01 -2.424337e-01 -2.366868e-01 -2.354628e-01 -2.287828e-01 -2.264295e-01 -2.188592e-01 -2.153860e-01 -2.069744e-01 -2.023921e-01 -1.931977e-01 -1.875222e-01 -1.776152e-01 -1.708698e-01 -1.603334e-01 -1.525511e-01 -1.414818e-01 -1.327055e-01 -1.212124e-01 -1.114954e-01 -9.969897e-02 -8.910435e-02 -7.713535e-02 -6.573529e-02 -5.373320e-02 -4.160831e-02 -2.972023e-02 -1.695896e-02 -5.338142e-03 7.963589e-03 1.915953e-02 3.289841e-02 4.350986e-02 5.757493e-02 6.744334e-02 8.171548e-02 9.068722e-02 1.050386e-01 1.129695e-01 1.272631e-01 1.340235e-01 1.481134e-01 1.535936e-01 1.673258e-01 1.714414e-01 1.846560e-01 1.873527e-01 1.998875e-01 2.011447e-01 2.128392e-01 2.126734e-01 2.233740e-01 2.218391e-01 2.314050e-01 2.285918e-01 2.369001e-01 2.329332e-01 2.398840e-01 2.349169e-01 2.404369e-01 2.346449e-01 2.386897e-01 2.322613e-01 2.348153e-01 2.279419e-01 2.290163e-01 2.218806e-01 2.215092e-01 2.142740e-01 2.125063e-01 2.053033e-01 2.021970e-01 1.951169e-01 1.907294e-01 1.838153e-01 1.781961e-01 1.714405e-01 1.646254e-01 1.579719e-01 1.499816e-01 1.433321e-01 1.341740e-01 1.274017e-01 1.170771e-01 1.100440e-01 9.855948e-02 9.113679e-02 7.851794e-02 7.060732e-02 5.691337e-02 4.846552e-02 3.380139e-02 2.482950e-02 9.352917e-03 -6.170033e-05 -1.614012e-02 -2.585125e-02 -4.227571e-02 -5.208404e-02 -6.856816e-02 -7.823963e-02 -9.448570e-02 -1.037733e-01 -1.194928e-01 -1.281580e-01 -1.430907e-01 -1.509219e-01 -1.648496e-01 -1.716747e-01 -1.844300e-01 -1.901230e-01 -2.015910e-01 -2.060718e-01 -2.161869e-01 -2.194175e-01 -2.281557e-01 -2.301322e-01 -2.375012e-01 
-2.658382e-01 -2.725461e-01 -2.721510e-01 -2.773981e-01 -2.756998e-01 -2.795429e-01 -2.766014e-01 -2.790917e-01 -2.749640e-01 -2.761432e-01 -2.708809e-01 -2.707796e-01 -2.644303e-01 -2.630688e-01 -2.556786e-01 -2.530699e-01 -2.446871e-01 -2.408414e-01 -2.315209e-01 -2.264495e-01 -2.162568e-01 -2.099766e-01 -1.989902e-01 -1.915267e-01 -1.798395e-01 -1.712290e-01 -1.589484e-01 -1.492386e-01 -1.364855e-01 -1.257355e-01 -1.126430e-01 -1.009225e-01 -8.763416e-02 -7.502277e-02 -6.169188e-02 -4.827830e-02 -3.506633e-02 -2.094765e-02 -8.023278e-03 6.695381e-03 1.915797e-02 3.436355e-02 4.618702e-02 6.175820e-02 7.276541e-02 8.857198e-02 9.859026e-02 1.144923e-01 1.233588e-01 1.392060e-01 1.467734e-01 1.624051e-01 1.685485e-01 1.837946e-01 1.884172e-01 2.031006e-01 2.061400e-01 2.200798e-01 2.215126e-01 2.345298e-01 2.343748e-01 2.462977e-01 2.446172e-01 2.552882e-01 2.521871e-01 2.614692e-01 2.570916e-01 2.648739e-01 2.593973e-01 2.656000e-01 2.592274e-01 2.638037e-01 2.567533e-01 2.596900e-01 2.521831e-01 2.534978e-01 2.457456e-01 2.454815e-01 2.376712e-01 2.358885e-01 2.281702e-01 2.249368e-01 2.174111e-01 2.127919e-01 2.055016e-01 1.995486e-01 1.924745e-01 1.852201e-01 1.782827e-01 1.697366e-01 1.628046e-01 1.529572e-01 1.458630e-01 1.346940e-01 1.272554e-01 1.147489e-01 1.067945e-01 9.295709e-02 8.435344e-02 6.923330e-02 5.990879e-02 4.361211e-02 3.357444e-02 1.627524e-02 5.619083e-03 -1.244010e-02 -2.353706e-02 -4.205466e-02 -5.334683e-02 -7.198093e-02 -8.317848e-02 -1.015716e-01 -1.123686e-01 -1.301741e-01 -1.402763e-01 -1.571826e-01 -1.663308e-01 -1.820791e-01 -1.900647e-01 -2.044593e-01 -2.111322e-01 -2.240425e-01 -2.293104e-01 -2.406659e-01 -2.444886e-01 -2.542691e-01 -2.566482e-01 -2.648713e-01 
-2.914087e-01 -2.985724e-01 -2.979435e-01 -3.035372e-01 -3.015194e-01 -3.056082e-01 -3.022667e-01 -3.049070e-01 -3.003005e-01 -3.015359e-01 -2.957155e-01 -2.955749e-01 -2.885855e-01 -2.870855e-01 -2.789694e-01 -2.761179e-01 -2.669199e-01 -2.627213e-01 -2.524942e-01 -2.469549e-01 -2.357643e-01 -2.288979e-01 -2.168253e-01 -2.086562e-01 -1.958008e-01 -1.863664e-01 -1.728451e-01 -1.621965e-01 -1.481421e-01 -1.363438e-01 -1.219037e-01 -1.090324e-01 -9.436598e-02 -8.050954e-02 -6.578733e-02 -5.104351e-02 -3.644542e-02 -2.092103e-02 -6.635237e-03 9.554438e-03 2.333337e-02 4.006467e-02 5.313833e-02 7.027881e-02 8.244860e-02 9.985606e-02 1.109280e-01 1.284492e-01 1.382395e-01 1.557093e-01 1.640514e-01 1.812919e-01 1.880433e-01 2.048651e-01 2.099148e-01 2.261191e-01 2.293941e-01 2.447772e-01 2.462480e-01 2.606069e-01 2.602915e-01 2.734306e-01 2.713962e-01 2.831356e-01 2.794975e-01 2.896801e-01 2.845986e-01 2.930973e-01 2.867715e-01 2.934942e-01 2.861528e-01 2.910463e-01 2.829368e-01 2.859868e-01 2.773619e-01 2.785907e-01 2.696933e-01 2.691542e-01 2.602018e-01 2.579694e-01 2.491387e-01 2.452983e-01 2.367111e-01 2.313458e-01 2.230589e-01 2.162378e-01 2.082374e-01 2.000070e-01 1.922097e-01 1.825893e-01 1.748515e-01 1.638361e-01 1.559709e-01 1.435404e-01 1.353419e-01 1.214777e-01 1.127506e-01 9.745675e-02 8.804720e-02 7.137261e-02 6.119597e-02 4.325417e-02 3.231565e-02 1.329674e-02 1.700196e-03 -1.812782e-02 -3.018454e-02 -5.048657e-02 -6.272943e-02 -8.312502e-02 -9.523156e-02 -1.153238e-01 -1.269559e-01 -1.463622e-01 -1.571978e-01 -1.755775e-01 -1.853369e-01 -2.024111e-01 -2.108739e-01 -2.264363e-01 -2.334487e-01 -2.473671e-01 -2.528402e-01 -2.650491e-01 -2.689509e-01 -2.794400e-01 -2.817828e-01 -2.905819e-01 
-3.208735e-01 -3.287008e-01 -3.281163e-01 -3.342059e-01 -3.320716e-01 -3.365067e-01 -3.329039e-01 -3.357556e-01 -3.307561e-01 -3.320778e-01 -3.257422e-01 -3.255691e-01 -3.179490e-01 -3.163000e-01 -3.074426e-01 -3.043254e-01 -2.942797e-01 -2.896974e-01 -2.785210e-01 -2.724787e-01 -2.602432e-01 -2.527543e-01 -2.395494e-01 -2.306396e-01 -2.165747e-01 -2.062846e-01 -1.914880e-01 -1.798736e-01 -1.644909e-01 -1.516227e-01 -1.358141e-01 -1.217759e-01 -1.057140e-01 -9.060142e-02 -7.447026e-02 -5.838921e-02 -4.238303e-02 -2.544907e-02 -9.771683e-03 7.890781e-03 2.302746e-02 4.128526e-02 5.566366e-02 7.437438e-02 8.777514e-02 1.067859e-01 1.189932e-01 1.381392e-01 1.489471e-01 1.680501e-01 1.772709e-01 1.961380e-01 2.036103e-01 2.220351e-01 2.276323e-01 2.453970e-01 2.490357e-01 2.659158e-01 2.675618e-01 2.833329e-01 2.830063e-01 2.974518e-01 2.952290e-01 3.081490e-01 3.041620e-01 3.153826e-01 3.098148e-01 3.191961e-01 3.122757e-01 3.197180e-01 3.117077e-01 3.171562e-01 3.083401e-01 3.117851e-01 3.024537e-01 3.039276e-01 2.943601e-01 2.939304e-01 2.843763e-01 2.821343e-01 2.727948e-01 2.688419e-01 2.598530e-01 2.542844e-01 2.457038e-01 2.385941e-01 2.303936e-01 2.217850e-01 2.138512e-01 2.037481e-01 1.958924e-01 1.842642e-01 1.762433e-01 1.630367e-01 1.545824e-01 1.397423e-01 1.305978e-01 1.140949e-01 1.040544e-01 8.591487e-02 7.485933e-02 5.519069e-02 4.311445e-02 2.212244e-02 9.145437e-03 -1.286342e-02 -2.650124e-02 -4.913304e-02 -6.309447e-02 -8.589576e-02 -9.978227e-02 -1.222773e-01 -1.356714e-01 -1.574019e-01 -1.699080e-01 -1.904684e-01 -2.017461e-01 -2.208083e-01 -2.305933e-01 -2.479197e-01 -2.560322e-01 -2.714763e-01 -2.778176e-01 -2.913144e-01 -2.958557e-01 -3.074058e-01 -3.101716e-01 -3.198227e-01 
-3.476647e-01 -3.558973e-01 -3.550245e-01 -3.614173e-01 -3.589183e-01 -3.635659e-01 -3.595282e-01 -3.625079e-01 -3.570043e-01 -3.583709e-01 -3.514592e-01 -3.512445e-01 -3.429703e-01 -3.411864e-01 -3.315893e-01 -3.282352e-01 -3.173567e-01 -3.124263e-01 -3.003182e-01 -2.938084e-01 -2.805400e-01 -2.724583e-01 -2.581209e-01 -2.484906e-01 -2.331996e-01 -2.220620e-01 -2.059557e-01 -1.933703e-01 -1.766075e-01 -1.626511e-01 -1.454075e-01 -1.301717e-01 -1.126373e-01 -9.622667e-02 -7.860406e-02 -6.113448e-02 -4.363781e-02 -2.523495e-02 -8.089092e-03 1.111227e-02 2.767315e-02 4.752945e-02 6.326448e-02 8.362270e-02 9.828843e-02 1.189845e-01 1.323406e-01 1.531970e-01 1.650137e-01 1.858373e-01 1.959036e-01 2.164841e-01 2.246177e-01 2.447275e-01 2.507841e-01 2.701817e-01 2.740641e-01 2.924984e-01 2.941643e-01 3.113828e-01 3.108502e-01 3.266080e-01 3.239580e-01 3.380282e-01 3.334044e-01 3.455889e-01 3.391935e-01 3.493323e-01 3.414186e-01 3.493977e-01 3.402592e-01 3.460158e-01 3.359724e-01 3.394961e-01 3.288767e-01 3.302069e-01 3.193303e-01 3.185485e-01 3.077022e-01 3.049198e-01 2.943394e-01 2.896815e-01 2.795304e-01 2.731176e-01 2.634717e-01 2.554020e-01 2.462399e-01 2.365741e-01 2.277766e-01 2.165308e-01 2.078916e-01 1.950384e-01 1.862860e-01 1.717678e-01 1.625992e-01 1.463511e-01 1.364736e-01 1.184555e-01 1.076317e-01 8.786287e-02 7.595239e-02 5.454282e-02 4.153396e-02 1.870473e-02 4.728545e-03 -1.918413e-02 -3.386037e-02 -5.842040e-02 -7.342013e-02 -9.812410e-02 -1.130038e-01 -1.373247e-01 -1.516233e-01 -1.750570e-01 -1.883430e-01 -2.104483e-01 -2.223564e-01 -2.427831e-01 -2.530375e-01 -2.715393e-01 -2.799600e-01 -2.963938e-01 -3.028914e-01 -3.172041e-01 -3.217648e-01 -3.339747e-01 -3.366410e-01 -3.468152e-01 
-3.793687e-01 -3.882291e-01 -3.873698e-01 -3.942184e-01 -3.915667e-01 -3.965228e-01 -3.921868e-01 -3.953461e-01 -3.894142e-01 -3.908433e-01 -3.833828e-01 -3.831189e-01 -3.741809e-01 -3.722366e-01 -3.618630e-01 -3.582342e-01 -3.464681e-01 -3.411441e-01 -3.280399e-01 -3.210136e-01 -3.066455e-01 -2.979222e-01 -2.823895e-01 -2.719928e-01 -2.554218e-01 -2.433961e-01 -2.259381e-01 -2.123485e-01 -1.941760e-01 -1.791059e-01 -1.604082e-01 -1.439569e-01 -1.249372e-01 -1.072174e-01 -8.809128e-02 -6.922725e-02 -5.022259e-02 -3.034889e-02 -1.170601e-02 9.033514e-03 2.706247e-02 4.851504e-02 6.566840e-02 8.767159e-02 1.036824e-01 1.260624e-01 1.406647e-01 1.632332e-01 1.761707e-01 1.987221e-01 2.097578e-01 2.320666e-01 2.409941e-01 2.628151e-01 2.694702e-01 2.905405e-01 2.948119e-01 3.148568e-01 3.166952e-01 3.354369e-01 3.348617e-01 3.520296e-01 3.491320e-01 3.644753e-01 3.594183e-01 3.727177e-01 3.657313e-01 3.768113e-01 3.681841e-01 3.769215e-01 3.669889e-01 3.733197e-01 3.624473e-01 3.663683e-01 3.549331e-01 3.564986e-01 3.448664e-01 3.441795e-01 3.326803e-01 3.298776e-01 3.187809e-01 3.140125e-01 3.035028e-01 2.969098e-01 2.870670e-01 2.787578e-01 2.695442e-01 2.595765e-01 2.508347e-01 2.392047e-01 2.306685e-01 2.173125e-01 2.086332e-01 1.934437e-01 1.842302e-01 1.670855e-01 1.569568e-01 1.377621e-01 1.264040e-01 1.051373e-01 9.235634e-02 6.910988e-02 5.487511e-02 2.988365e-02 1.434578e-02 -1.200678e-02 -2.852274e-02 -5.572231e-02 -7.275158e-02 -1.001958e-01 -1.171888e-01 -1.442440e-01 -1.606306e-01 -1.866918e-01 -2.019421e-01 -2.264843e-01 -2.401556e-01 -2.627689e-01 -2.745330e-01 -2.949376e-01 -3.045882e-01 -3.226307e-01 -3.300743e-01 -3.457112e-01 -3.509464e-01 -3.642182e-01 -3.673104e-01 -3.783138e-01 
-4.075863e-01 -4.167858e-01 -4.155728e-01 -4.226698e-01 -4.196023e-01 -4.247311e-01 -4.199241e-01 -4.231880e-01 -4.167297e-01 -4.181955e-01 -4.101471e-01 -4.098458e-01 -4.002474e-01 -3.981805e-01 -3.870609e-01 -3.832103e-01 -3.705996e-01 -3.649402e-01 -3.508820e-01 -3.433940e-01 -3.279565e-01 -3.186365e-01 -3.019190e-01 -2.907862e-01 -2.729211e-01 -2.600206e-01 -2.411706e-01 -2.265718e-01 -2.069246e-01 -1.907186e-01 -1.704812e-01 -1.527764e-01 -1.321710e-01 -1.130905e-01 -9.235292e-02 -7.203184e-02 -5.141120e-02 -2.999505e-02 -9.754324e-03 1.260243e-02 3.218685e-02 5.532133e-02 7.396195e-02 9.770214e-02 1.151048e-01 1.392670e-01 1.551379e-01 1.795226e-01 1.935769e-01 2.179646e-01 2.299378e-01 2.540853e-01 2.637453e-01 2.873847e-01 2.945450e-01 3.173865e-01 3.219181e-01 3.436561e-01 3.454985e-01 3.658214e-01 3.649900e-01 3.835931e-01 3.801835e-01 3.967828e-01 3.909707e-01 4.053173e-01 3.973541e-01 4.092474e-01 3.994518e-01 4.087505e-01 3.974949e-01 4.041253e-01 3.918187e-01 3.957770e-01 3.828441e-01 3.841942e-01 3.710505e-01 3.699145e-01 3.569389e-01 3.534809e-01 3.409872e-01 3.353908e-01 3.236000e-01 3.160412e-01 3.050575e-01 2.956777e-01 2.854727e-01 2.743551e-01 2.647636e-01 2.519190e-01 2.426496e-01 2.280158e-01 2.186791e-01 2.021373e-01 1.922915e-01 1.736992e-01 1.629089e-01 1.421470e-01 1.300493e-01 1.070762e-01 9.344378e-02 6.834532e-02 5.313529e-02 2.615955e-02 9.536631e-03 -1.889678e-02 -3.656897e-02 -6.589040e-02 -8.409045e-02 -1.136298e-01 -1.317437e-01 -1.607975e-01 -1.781942e-01 -2.060964e-01 -2.221977e-01 -2.483787e-01 -2.627118e-01 -2.867370e-01 -2.989628e-01 -3.205472e-01 -3.304657e-01 -3.494673e-01 -3.570032e-01 -3.734011e-01 -3.785785e-01 -3.924418e-01 -3.953537e-01 -4.068087e-01 