# vtk DataFile Version 2.0
Comment goes here
ASCII

DATASET STRUCTURED_POINTS
FIELD FieldData 1
TIME 1 1 double
0.19500000
DIMENSIONS    128   128   1

ORIGIN    0.000   0.000   0.000
SPACING   0.039062 0.039062   1.000

POINT_DATA   16384
SCALARS uY double
LOOKUP_TABLE default

-2.361570e-14 -2.144757e-14 -2.138723e-14 -1.946923e-14 -1.967483e-14 -1.759900e-14 -1.810521e-14 -1.668901e-14 -1.716769e-14 -1.539955e-14 -1.561518e-14 -1.358546e-14 -1.400870e-14 -1.274128e-14 -1.313845e-14 -1.168557e-14 -1.201486e-14 -1.138343e-14 -1.136643e-14 -1.048542e-14 -1.181333e-14 -1.050310e-14 -1.056509e-14 -9.456361e-15 -1.040472e-14 -9.129034e-15 -9.597786e-15 -8.910171e-15 -8.819346e-15 -8.293519e-15 -6.533897e-15 -6.349051e-15 -6.179945e-15 -6.967026e-15 -7.222244e-15 -7.533530e-15 -7.962332e-15 -7.818428e-15 -7.775855e-15 -8.225233e-15 -8.956354e-15 -9.469557e-15 -7.894684e-15 -8.184830e-15 -7.478481e-15 -9.070315e-15 -8.236067e-15 -8.825619e-15 -9.009649e-15 -1.019267e-14 -1.015262e-14 -1.119204e-14 -1.057263e-14 -1.091008e-14 -1.054661e-14 -1.070478e-14 -1.014176e-14 -1.094439e-14 -1.011112e-14 -1.057792e-14 -9.788770e-15 -1.086544e-14 -1.110146e-14 -1.157783e-14 -1.215693e-14 -1.288810e-14 -1.342690e-14 -1.407183e-14 -1.447549e-14 -1.474218e-14 -1.583976e-14 -1.656533e-14 -1.835409e-14 -1.990486e-14 -2.160700e-14 -2.287057e-14 -2.446067e-14 -2.582118e-14 -2.869349e-14 -2.938904e-14 -3.127817e-14 -3.270036e-14 -3.491515e-14 -3.713909e-14 -3.877159e-14 -3.971709e-14 -4.088885e-14 -4.203608e-14 -4.332342e-14 -4.488728e-14 -4.559978e-14 -4.642928e-14 -4.706235e-14 -4.800470e-14 -4.959721e-14 -4.988192e-14 -4.926748e-14 -5.079514e-14 -5.003088e-14 -4.954537e-14 -4.854849e-14 -4.884778e-14 -4.795313e-14 -4.815287e-14 -4.661977e-14 -4.549976e-14 -4.411052e-14 -4.347104e-14 -4.245904e-14 -4.172275e-14 -4.068095e-14 -3.976987e-14 -3.918637e-14 -3.835497e-14 -3.749951e-14 -3.652330e-14 -3.611188e-14 -3.476996e-14 -3.423264e-14 -3.279879e-14 -3.242134e-14 -3.053622e-14 -2.995224e-14 -2.809491e-14 -2.773415e-14 -2.598955e-14 -2.587851e-14 -2.388088e-14 
-6.718805e-03 -7.179882e-03 -7.636578e-03 -8.035575e-03 -8.420188e-03 -8.743944e-03 -9.044904e-03 -9.282269e-03 -9.489875e-03 -9.632085e-03 -9.738883e-03 -9.779939e-03 -9.781092e-03 -9.718097e-03 -9.611716e-03 -9.445139e-03 -9.232527e-03 -8.966359e-03 -8.652131e-03 -8.293880e-03 -7.885935e-03 -7.446440e-03 -6.955739e-03 -6.448791e-03 -5.888966e-03 -5.330742e-03 -4.717537e-03 -4.125888e-03 -3.476480e-03 -2.870117e-03 -2.202368e-03 -1.600018e-03 -9.317056e-04 -3.512905e-04 3.006113e-04 8.427089e-04 1.462674e-03 1.952216e-03 2.526689e-03 2.952032e-03 3.469816e-03 3.822195e-03 4.274697e-03 4.548343e-03 4.929682e-03 5.121795e-03 5.428779e-03 5.539375e-03 5.771381e-03 5.803048e-03 5.961807e-03 5.919399e-03 6.008726e-03 5.899031e-03 5.924522e-03 5.755918e-03 5.724627e-03 5.506761e-03 5.426882e-03 5.170372e-03 5.050934e-03 4.767099e-03 4.617678e-03 4.318294e-03 4.148748e-03 3.845811e-03 3.666026e-03 3.371515e-03 3.191154e-03 2.916770e-03 2.745014e-03 2.501875e-03 2.347149e-03 2.145430e-03 2.015099e-03 1.863624e-03 1.763668e-03 1.669442e-03 1.604115e-03 1.571843e-03 1.543342e-03 1.574956e-03 1.583126e-03 1.677385e-03 1.719512e-03 1.871732e-03 1.942451e-03 2.144423e-03 2.235801e-03 2.475950e-03 2.577755e-03 2.841566e-03 2.941730e-03 3.212440e-03 3.297711e-03 3.557229e-03 3.613961e-03 3.843947e-03 3.858965e-03 4.041978e-03 4.003449e-03 4.124054e-03 4.022274e-03 4.068014e-03 3.896050e-03 3.858180e-03 3.612315e-03 3.486255e-03 3.166193e-03 2.951683e-03 2.560536e-03 2.261495e-03 1.805563e-03 1.429708e-03 9.180993e-04 4.763946e-04 -7.945556e-05 -5.734620e-04 -1.160321e-03 -1.691188e-03 -2.294561e-03 -2.845628e-03 -3.450254e-03 -4.004260e-03 -4.594570e-03 -5.134202e-03 -5.694721e-03 -6.203091e-03 
-1.344134e-02 -1.436833e-02 -1.528652e-02 -1.608883e-02 -1.686230e-02 -1.751349e-02 -1.811898e-02 -1.859663e-02 -1.901466e-02 -1.930114e-02 -1.951671e-02 -1.959993e-02 -1.960331e-02 -1.947741e-02 -1.926478e-02 -1.893067e-02 -1.850463e-02 -1.797029e-02 -1.734012e-02 -1.662064e-02 -1.580222e-02 -1.491937e-02 -1.393477e-02 -1.291630e-02 -1.179294e-02 -1.067140e-02 -9.440977e-03 -8.252296e-03 -6.949391e-03 -5.731234e-03 -4.391785e-03 -3.181842e-03 -1.841615e-03 -6.759498e-04 6.309289e-04 1.719360e-03 2.961691e-03 3.944262e-03 5.094825e-03 5.948143e-03 6.984476e-03 7.690951e-03 8.595839e-03 9.143917e-03 9.905601e-03 1.028970e-02 1.090184e-02 1.112204e-02 1.158344e-02 1.164500e-02 1.195919e-02 1.187191e-02 1.204662e-02 1.182415e-02 1.187067e-02 1.152988e-02 1.146241e-02 1.102266e-02 1.085771e-02 1.034032e-02 1.009605e-02 9.523744e-03 9.219433e-03 8.615821e-03 8.271326e-03 7.660476e-03 7.295725e-03 6.701681e-03 6.336173e-03 5.782442e-03 5.434733e-03 4.943682e-03 4.630827e-03 4.222972e-03 3.959915e-03 3.653095e-03 3.452003e-03 3.260447e-03 3.130013e-03 3.063358e-03 3.008115e-03 3.070441e-03 3.090157e-03 3.279163e-03 3.368402e-03 3.674836e-03 3.822769e-03 4.230240e-03 4.420797e-03 4.906074e-03 5.118487e-03 5.652342e-03 5.862095e-03 6.410694e-03 6.590844e-03 7.117606e-03 7.240397e-03 7.708188e-03 7.746822e-03 8.120293e-03 8.050702e-03 8.298547e-03 8.101007e-03 8.197942e-03 7.858374e-03 7.786639e-03 7.297506e-03 7.047793e-03 6.408518e-03 5.980272e-03 5.197189e-03 4.598325e-03 3.684219e-03 2.930336e-03 1.903662e-03 1.016909e-03 -9.919887e-05 -1.091469e-03 -2.270280e-03 -3.336921e-03 -4.549189e-03 -5.656628e-03 -6.871604e-03 -7.985086e-03 -9.171433e-03 -1.025613e-02 -1.138272e-02 -1.240467e-02 
-2.026277e-02 -2.166078e-02 -2.304393e-02 -2.425408e-02 -2.541948e-02 -2.640190e-02 -2.731448e-02 -2.803534e-02 -2.866561e-02 -2.909823e-02 -2.942346e-02 -2.954953e-02 -2.955488e-02 -2.936542e-02 -2.904498e-02 -2.854126e-02 -2.789880e-02 -2.709280e-02 -2.614221e-02 -2.505662e-02 -2.382183e-02 -2.248955e-02 -2.100382e-02 -1.946680e-02 -1.777158e-02 -1.607905e-02 -1.422226e-02 -1.242860e-02 -1.046251e-02 -8.624691e-03 -6.603659e-03 -4.778678e-03 -2.756762e-03 -9.991207e-04 9.721197e-04 2.612667e-03 4.486130e-03 5.966417e-03 7.701047e-03 8.985861e-03 1.054782e-02 1.161075e-02 1.297415e-02 1.379791e-02 1.494513e-02 1.552146e-02 1.644305e-02 1.677226e-02 1.746655e-02 1.755670e-02 1.802916e-02 1.789514e-02 1.815752e-02 1.782004e-02 1.788945e-02 1.737397e-02 1.727189e-02 1.660765e-02 1.635898e-02 1.557811e-02 1.521020e-02 1.434691e-02 1.388878e-02 1.297862e-02 1.246009e-02 1.153929e-02 1.099027e-02 1.009504e-02 9.544774e-03 8.710511e-03 8.186822e-03 7.447232e-03 6.975693e-03 6.361719e-03 5.964749e-03 5.503320e-03 5.199198e-03 4.911817e-03 4.713638e-03 4.614885e-03 4.529530e-03 4.625604e-03 4.652822e-03 4.940271e-03 5.072001e-03 5.536855e-03 5.756930e-03 6.374404e-03 6.658757e-03 7.393702e-03 7.711166e-03 8.519349e-03 8.833076e-03 9.663288e-03 9.932734e-03 1.072962e-02 1.091298e-02 1.162037e-02 1.167725e-02 1.224172e-02 1.213583e-02 1.251011e-02 1.221170e-02 1.235767e-02 1.184549e-02 1.173647e-02 1.099916e-02 1.062125e-02 9.657953e-03 9.010510e-03 7.830772e-03 6.925935e-03 5.549035e-03 4.410513e-03 2.864257e-03 1.525600e-03 -1.551767e-04 -1.652631e-03 -3.427700e-03 -5.036955e-03 -6.862324e-03 -8.532780e-03 -1.036222e-02 -1.204155e-02 -1.382794e-02 -1.546372e-02 -1.716029e-02 -1.870142e-02 
-2.709622e-02 -2.897990e-02 -3.084252e-02 -3.247358e-02 -3.404374e-02 -3.536854e-02 -3.659902e-02 -3.757195e-02 -3.842299e-02 -3.900803e-02 -3.944891e-02 -3.962121e-02 -3.963178e-02 -3.937908e-02 -3.895121e-02 -3.827500e-02 -3.741365e-02 -3.632991e-02 -3.505369e-02 -3.359294e-02 -3.193404e-02 -3.014061e-02 -2.814396e-02 -2.607446e-02 -2.379605e-02 -2.151704e-02 -1.902162e-02 -1.660659e-02 -1.396483e-02 -1.149081e-02 -8.776144e-03 -6.320174e-03 -3.605580e-03 -1.241268e-03 1.403707e-03 3.609228e-03 6.121133e-03 8.109704e-03 1.043332e-02 1.215759e-02 1.424750e-02 1.567205e-02 1.749362e-02 1.859538e-02 2.012513e-02 2.089327e-02 2.211875e-02 2.255393e-02 2.347319e-02 2.358652e-02 2.420718e-02 2.401893e-02 2.435705e-02 2.389524e-02 2.397404e-02 2.327303e-02 2.312157e-02 2.222073e-02 2.187261e-02 2.081510e-02 2.030725e-02 1.913899e-02 1.851049e-02 1.727918e-02 1.657025e-02 1.532450e-02 1.457549e-02 1.336390e-02 1.261433e-02 1.148451e-02 1.077204e-02 9.769432e-03 9.128787e-03 8.295248e-03 7.756974e-03 7.129111e-03 6.718236e-03 6.325490e-03 6.060083e-03 5.922684e-03 5.812416e-03 5.939353e-03 5.984201e-03 6.371443e-03 6.560720e-03 7.189950e-03 7.501852e-03 8.339992e-03 8.741841e-03 9.741588e-03 1.019090e-02 1.129241e-02 1.173883e-02 1.287259e-02 1.326061e-02 1.435126e-02 1.462361e-02 1.559454e-02 1.569586e-02 1.647410e-02 1.635463e-02 1.687561e-02 1.649460e-02 1.670624e-02 1.603464e-02 1.590049e-02 1.492280e-02 1.442394e-02 1.313906e-02 1.227466e-02 1.069572e-02 9.482397e-03 7.635739e-03 6.105836e-03 4.029362e-03 2.228516e-03 -3.042020e-05 -2.046095e-03 -4.432950e-03 -6.599795e-03 -9.055064e-03 -1.130468e-02 -1.376596e-02 -1.602774e-02 -1.843155e-02 -2.063487e-02 -2.291823e-02 -2.499434e-02 
-3.412821e-02 -3.650787e-02 -3.885702e-02 -4.091816e-02 -4.289942e-02 -4.457433e-02 -4.612800e-02 -4.735900e-02 -4.843466e-02 -4.917604e-02 -4.973453e-02 -4.995457e-02 -4.997003e-02 -4.965286e-02 -4.911456e-02 -4.826174e-02 -4.717555e-02 -4.580700e-02 -4.419616e-02 -4.235034e-02 -4.025540e-02 -3.798842e-02 -3.546620e-02 -3.284987e-02 -2.997134e-02 -2.709015e-02 -2.393748e-02 -2.088481e-02 -1.754770e-02 -1.442140e-02 -1.099301e-02 -7.890870e-03 -4.463774e-03 -1.479110e-03 1.858598e-03 4.640808e-03 7.808860e-03 1.031516e-02 1.324383e-02 1.541459e-02 1.804667e-02 1.983748e-02 2.212947e-02 2.351163e-02 2.543424e-02 2.639453e-02 2.793244e-02 2.847220e-02 2.962334e-02 2.975706e-02 3.053147e-02 3.028511e-02 3.070342e-02 3.011264e-02 3.020446e-02 2.931280e-02 2.911500e-02 2.797221e-02 2.752732e-02 2.618783e-02 2.554242e-02 2.406406e-02 2.326735e-02 2.171016e-02 2.081272e-02 1.923785e-02 1.829034e-02 1.675899e-02 1.581100e-02 1.438316e-02 1.348197e-02 1.221501e-02 1.140424e-02 1.035111e-02 9.669225e-03 8.876351e-03 8.354968e-03 7.859850e-03 7.521929e-03 7.350486e-03 7.208509e-03 7.372468e-03 7.426762e-03 7.921337e-03 8.158797e-03 8.961023e-03 9.354475e-03 1.042255e-02 1.093099e-02 1.220492e-02 1.277484e-02 1.417856e-02 1.474635e-02 1.619138e-02 1.668676e-02 1.807716e-02 1.842751e-02 1.966572e-02 1.980074e-02 2.079393e-02 2.065042e-02 2.131648e-02 2.084266e-02 2.111556e-02 2.027454e-02 2.010826e-02 1.888038e-02 1.825128e-02 1.663519e-02 1.554269e-02 1.355510e-02 1.202077e-02 9.695103e-03 7.760384e-03 5.144659e-03 2.867727e-03 2.181441e-05 -2.526068e-03 -5.533315e-03 -8.271538e-03 -1.136512e-02 -1.420727e-02 -1.730862e-02 -2.016566e-02 -2.319492e-02 -2.597790e-02 -2.885589e-02 -3.147827e-02 
-4.118300e-02 -4.408352e-02 -4.694375e-02 -4.945719e-02 -5.187126e-02 -5.391526e-02 -5.581048e-02 -5.731468e-02 -5.862945e-02 -5.953792e-02 -6.022422e-02 -6.049787e-02 -6.052376e-02 -6.014277e-02 -5.949470e-02 -5.846044e-02 -5.714514e-02 -5.548150e-02 -5.352702e-02 -5.128068e-02 -4.873638e-02 -4.597577e-02 -4.291106e-02 -3.972400e-02 -3.622577e-02 -3.271579e-02 -2.888471e-02 -2.516627e-02 -2.111223e-02 -1.730529e-02 -1.314239e-02 -9.366746e-03 -5.208219e-03 -1.578073e-03 2.468485e-03 5.849323e-03 9.686068e-03 1.272807e-02 1.627022e-02 1.890093e-02 2.207915e-02 2.424488e-02 2.700668e-02 2.867306e-02 3.098337e-02 3.213493e-02 3.397578e-02 3.461482e-02 3.598437e-02 3.612917e-02 3.704026e-02 3.672298e-02 3.720127e-02 3.646570e-02 3.654768e-02 3.544702e-02 3.517790e-02 3.377271e-02 3.320446e-02 3.156083e-02 3.075025e-02 2.893827e-02 2.794532e-02 2.603767e-02 2.492392e-02 2.299464e-02 2.182185e-02 1.994511e-02 1.877381e-02 1.702248e-02 1.591055e-02 1.435455e-02 1.335558e-02 1.205977e-02 1.122126e-02 1.024293e-02 9.604201e-03 8.990036e-03 8.579972e-03 8.362824e-03 8.197523e-03 8.393068e-03 8.473691e-03 9.077432e-03 9.388498e-03 1.037354e-02 1.088202e-02 1.219807e-02 1.285362e-02 1.442761e-02 1.516410e-02 1.690274e-02 1.764125e-02 1.943547e-02 2.008861e-02 2.181970e-02 2.229695e-02 2.384395e-02 2.405767e-02 2.530526e-02 2.517666e-02 2.602286e-02 2.548741e-02 2.585021e-02 2.486207e-02 2.468444e-02 2.321931e-02 2.247213e-02 2.052852e-02 1.921139e-02 1.681024e-02 1.495015e-02 1.213306e-02 9.781514e-03 6.607910e-03 3.836875e-03 3.805928e-04 -2.722120e-03 -6.376497e-03 -9.711918e-03 -1.347257e-02 -1.693495e-02 -2.070598e-02 -2.418667e-02 -2.787086e-02 -3.126155e-02 -3.476267e-02 -3.795815e-02 
-4.853741e-02 -5.197453e-02 -5.535673e-02 -5.833654e-02 -6.119333e-02 -6.361841e-02 -6.586359e-02 -6.765043e-02 -6.921061e-02 -7.029247e-02 -7.111006e-02 -7.143995e-02 -7.147622e-02 -7.102981e-02 -7.026778e-02 -6.904594e-02 -6.749276e-02 -6.552324e-02 -6.321157e-02 -6.054943e-02 -5.753754e-02 -5.426406e-02 -5.063436e-02 -4.685422e-02 -4.271020e-02 -3.854698e-02 -3.400873e-02 -2.959918e-02 -2.479785e-02 -2.028526e-02 -1.535694e-02 -1.088426e-02 -5.963859e-03 -1.667129e-03 3.117358e-03 7.114773e-03 1.164720e-02 1.523924e-02 1.941925e-02 2.252047e-02 2.626625e-02 2.881372e-02 3.206370e-02 3.401758e-02 3.673096e-02 3.807396e-02 4.023029e-02 4.096615e-02 4.256416e-02 4.271546e-02 4.377120e-02 4.337680e-02 4.392141e-02 4.303373e-02 4.311101e-02 4.179333e-02 4.145723e-02 3.978134e-02 3.909357e-02 3.713754e-02 3.616533e-02 3.401180e-02 3.282590e-02 3.056047e-02 2.923340e-02 2.694325e-02 2.554764e-02 2.332017e-02 2.192719e-02 1.984844e-02 1.852614e-02 1.667888e-02 1.549044e-02 1.395173e-02 1.295333e-02 1.179153e-02 1.102992e-02 1.030115e-02 9.810982e-03 9.555101e-03 9.356135e-03 9.592719e-03 9.687141e-03 1.041174e-02 1.078203e-02 1.196336e-02 1.257110e-02 1.414968e-02 1.493565e-02 1.682452e-02 1.771044e-02 1.979809e-02 2.069012e-02 2.284586e-02 2.363976e-02 2.572117e-02 2.630874e-02 2.817061e-02 2.844692e-02 2.995090e-02 2.982152e-02 3.084543e-02 3.023307e-02 3.067895e-02 2.952872e-02 2.932883e-02 2.761175e-02 2.673204e-02 2.444646e-02 2.288737e-02 2.005849e-02 1.785325e-02 1.453084e-02 1.174177e-02 7.996728e-03 4.710284e-03 6.304146e-04 -3.048473e-03 -7.362866e-03 -1.131643e-02 -1.575675e-02 -1.985961e-02 -2.431267e-02 -2.843636e-02 -3.278762e-02 -3.680432e-02 -4.094046e-02 -4.472616e-02 
-5.592968e-02 -5.993915e-02 -6.387849e-02 -6.735665e-02 -7.068730e-02 -7.352083e-02 -7.614234e-02 -7.823376e-02 -8.006026e-02 -8.133122e-02 -8.229488e-02 -8.268973e-02 -8.274446e-02 -8.223380e-02 -8.135879e-02 -7.994260e-02 -7.814529e-02 -7.585511e-02 -7.317299e-02 -7.007264e-02 -6.657353e-02 -6.275792e-02 -5.853827e-02 -5.413013e-02 -4.931140e-02 -4.445598e-02 -3.917933e-02 -3.403750e-02 -2.845706e-02 -2.319736e-02 -1.747299e-02 -1.226340e-02 -6.553301e-03 -1.553426e-03 3.992612e-03 8.638398e-03 1.388484e-02 1.805283e-02 2.288295e-02 2.647394e-02 3.079303e-02 3.373446e-02 3.747169e-02 3.971823e-02 4.282719e-02 4.435996e-02 4.681808e-02 4.764275e-02 4.944980e-02 4.959392e-02 5.076976e-02 5.027962e-02 5.086156e-02 4.979894e-02 4.983880e-02 4.827781e-02 4.783900e-02 4.586322e-02 4.501793e-02 4.271800e-02 4.154464e-02 3.901617e-02 3.759713e-02 3.493903e-02 3.335868e-02 3.067168e-02 2.901455e-02 2.639978e-02 2.474889e-02 2.230616e-02 2.074117e-02 1.856695e-02 1.716216e-02 1.534686e-02 1.416879e-02 1.279331e-02 1.189784e-02 1.102941e-02 1.045856e-02 1.014595e-02 9.924413e-03 1.019300e-02 1.032481e-02 1.117186e-02 1.163765e-02 1.302870e-02 1.378402e-02 1.565091e-02 1.662619e-02 1.886759e-02 1.997009e-02 2.245483e-02 2.357274e-02 2.614604e-02 2.715471e-02 2.964716e-02 3.041689e-02 3.265525e-02 3.306013e-02 3.487906e-02 3.480579e-02 3.605923e-02 3.541518e-02 3.598619e-02 3.470580e-02 3.451382e-02 3.256273e-02 3.156769e-02 2.894442e-02 2.714758e-02 2.388265e-02 2.132431e-02 1.747737e-02 1.423225e-02 9.887715e-03 6.058713e-03 1.320537e-03 -2.968149e-03 -7.981827e-03 -1.259153e-02 -1.775340e-02 -2.253716e-02 -2.771512e-02 -3.252297e-02 -3.758375e-02 -4.226695e-02 -4.707903e-02 -5.149358e-02 
-6.372467e-02 -6.832791e-02 -7.283950e-02 -7.683536e-02 -8.065387e-02 -8.391259e-02 -8.692262e-02 -8.933203e-02 -9.143430e-02 -9.290363e-02 -9.401904e-02 -9.448309e-02 -9.455714e-02 -9.398063e-02 -9.298771e-02 -9.136914e-02 -8.931628e-02 -8.669075e-02 -8.361995e-02 -8.006025e-02 -7.604897e-02 -7.166435e-02 -6.682368e-02 -6.175612e-02 -5.622653e-02 -5.064451e-02 -4.458954e-02 -3.867979e-02 -3.227813e-02 -2.623625e-02 -1.967306e-02 -1.369372e-02 -7.151975e-03 -1.419714e-03 4.927757e-03 1.024656e-02 1.624381e-02 2.100719e-02 2.652043e-02 3.061520e-02 3.553640e-02 3.888050e-02 4.312942e-02 4.567244e-02 4.919717e-02 5.091922e-02 5.369539e-02 5.460479e-02 5.663370e-02 5.676371e-02 5.806964e-02 5.747473e-02 5.810181e-02 5.685380e-02 5.686252e-02 5.504692e-02 5.451072e-02 5.222347e-02 5.122548e-02 4.857016e-02 4.720028e-02 4.428586e-02 4.263819e-02 3.957724e-02 3.774789e-02 3.465502e-02 3.274013e-02 2.973051e-02 2.782444e-02 2.501205e-02 2.320548e-02 2.070089e-02 1.907863e-02 1.698601e-02 1.562433e-02 1.403752e-02 1.300101e-02 1.199870e-02 1.133651e-02 1.097658e-02 1.071837e-02 1.103196e-02 1.118394e-02 1.216975e-02 1.271120e-02 1.433095e-02 1.521209e-02 1.738803e-02 1.852967e-02 2.114487e-02 2.244049e-02 2.534266e-02 2.666306e-02 2.967185e-02 3.087236e-02 3.378991e-02 3.471958e-02 3.734342e-02 3.785537e-02 3.999233e-02 3.995433e-02 4.143406e-02 4.073802e-02 4.142462e-02 3.999417e-02 3.979473e-02 3.759007e-02 3.645936e-02 3.347910e-02 3.142024e-02 2.770029e-02 2.476183e-02 2.037181e-02 1.664198e-02 1.167986e-02 7.279015e-03 1.864933e-03 -3.062680e-03 -8.792769e-03 -1.408701e-02 -1.998717e-02 -2.547916e-02 -3.139845e-02 -3.691652e-02 -4.270304e-02 -4.807741e-02 -5.358145e-02 -5.864800e-02 
-7.157875e-02 -7.682331e-02 -8.195367e-02 -8.650982e-02 -9.085745e-02 -9.457796e-02 -9.801161e-02 -1.007686e-01 -1.031746e-01 -1.048637e-01 -1.061508e-01 -1.066962e-01 -1.068006e-01 -1.061603e-01 -1.050509e-01 -1.032212e-01 -1.009044e-01 -9.792389e-02 -9.444630e-02 -9.039706e-02 -8.584666e-02 -8.085335e-02 -7.535725e-02 -6.958278e-02 -6.330241e-02 -5.694067e-02 -5.006429e-02 -4.333048e-02 -3.606378e-02 -2.918326e-02 -2.173918e-02 -1.493595e-02 -7.524465e-03 -1.010367e-03 6.170761e-03 1.220535e-02 1.897831e-02 2.437167e-02 3.058459e-02 3.520858e-02 4.073956e-02 4.450216e-02 4.926142e-02 5.210714e-02 5.603749e-02 5.794590e-02 6.102167e-02 6.200447e-02 6.422923e-02 6.432635e-02 6.572968e-02 6.500480e-02 6.563855e-02 6.417462e-02 6.410889e-02 6.200379e-02 6.132299e-02 5.868583e-02 5.748496e-02 5.443294e-02 5.281430e-02 4.947029e-02 4.754071e-02 4.403133e-02 4.189976e-02 3.835391e-02 3.612941e-02 3.267679e-02 3.046662e-02 2.723606e-02 2.514372e-02 2.226092e-02 2.038382e-02 1.796814e-02 1.639464e-02 1.455479e-02 1.336056e-02 1.218905e-02 1.143268e-02 1.099921e-02 1.071731e-02 1.106158e-02 1.126384e-02 1.238856e-02 1.305339e-02 1.491843e-02 1.599001e-02 1.850891e-02 1.989652e-02 2.293637e-02 2.451652e-02 2.790198e-02 2.952381e-02 3.304553e-02 3.453929e-02 3.796627e-02 3.915432e-02 4.224934e-02 4.295860e-02 4.549492e-02 4.556956e-02 4.734722e-02 4.666010e-02 4.751991e-02 4.598160e-02 4.581535e-02 4.337980e-02 4.213568e-02 3.880222e-02 3.648539e-02 3.229703e-02 2.896576e-02 2.400461e-02 1.976305e-02 1.414367e-02 9.132556e-03 2.994400e-03 -2.618875e-03 -9.119099e-03 -1.514998e-02 -2.184511e-02 -2.810016e-02 -3.481827e-02 -4.110192e-02 -4.767073e-02 -5.379041e-02 -6.004066e-02 -6.581065e-02 
-7.994096e-02 -8.585433e-02 -9.162327e-02 -9.676488e-02 -1.016604e-01 -1.058649e-01 -1.097391e-01 -1.128618e-01 -1.155852e-01 -1.175072e-01 -1.189749e-01 -1.196084e-01 -1.197458e-01 -1.190407e-01 -1.178098e-01 -1.157595e-01 -1.131649e-01 -1.098106e-01 -1.059032e-01 -1.013367e-01 -9.621492e-02 -9.057721e-02 -8.438504e-02 -7.786163e-02 -7.078290e-02 -6.359532e-02 -5.584491e-02 -4.823933e-02 -4.005215e-02 -3.228623e-02 -2.390517e-02 -1.623454e-02 -7.898572e-03 -5.642521e-04 7.502221e-03 1.428453e-02 2.188053e-02 2.792863e-02 3.488329e-02 4.005387e-02 4.623091e-02 5.042226e-02 5.572224e-02 5.887443e-02 6.323509e-02 6.532801e-02 6.872288e-02 6.977264e-02 7.220824e-02 7.226248e-02 7.377454e-02 7.290719e-02 7.355621e-02 7.186221e-02 7.172883e-02 6.931920e-02 6.849961e-02 6.549724e-02 6.409897e-02 6.063520e-02 5.877340e-02 5.498539e-02 5.277973e-02 4.880857e-02 4.638070e-02 4.236991e-02 3.984132e-02 3.593557e-02 3.342573e-02 2.976916e-02 2.739353e-02 2.412749e-02 2.199511e-02 1.925477e-02 1.746524e-02 1.537475e-02 1.401416e-02 1.268039e-02 1.181644e-02 1.132125e-02 1.099753e-02 1.138930e-02 1.161942e-02 1.290456e-02 1.366682e-02 1.580260e-02 1.703616e-02 1.992617e-02 2.152984e-02 2.502348e-02 2.685783e-02 3.075470e-02 3.264800e-02 3.670757e-02 3.846553e-02 4.242163e-02 4.384015e-02 4.741909e-02 4.829886e-02 5.123913e-02 5.140054e-02 5.347199e-02 5.276859e-02 5.378887e-02 5.211794e-02 5.196424e-02 4.927336e-02 4.788854e-02 4.417770e-02 4.157053e-02 3.688993e-02 3.313007e-02 2.757449e-02 2.278359e-02 1.648430e-02 1.082486e-02 3.940677e-03 -2.395731e-03 -9.687375e-03 -1.649110e-02 -2.400196e-02 -3.105468e-02 -3.859203e-02 -4.567415e-02 -5.304555e-02 -5.994167e-02 -6.695842e-02 -7.346124e-02 
-8.839177e-02 -9.503434e-02 -1.015006e-01 -1.072819e-01 -1.127778e-01 -1.175131e-01 -1.218725e-01 -1.253992e-01 -1.284761e-01 -1.306591e-01 -1.323333e-01 -1.330715e-01 -1.332565e-01 -1.324902e-01 -1.311400e-01 -1.288585e-01 -1.259753e-01 -1.222224e-01 -1.178614e-01 -1.127386e-01 -1.070098e-01 -1.006759e-01 -9.374189e-02 -8.640720e-02 -7.847691e-02 -7.039363e-02 -6.171177e-02 -5.316057e-02 -4.399467e-02 -3.526923e-02 -2.589544e-02 -1.728661e-02 -7.975905e-03 2.429611e-04 9.237067e-03 1.682236e-02 2.527385e-02 3.202095e-02 3.973876e-02 4.548801e-02 5.232084e-02 5.696036e-02 6.279905e-02 6.626460e-02 7.104223e-02 7.331473e-02 7.700479e-02 7.810588e-02 8.071889e-02 8.070529e-02 8.228430e-02 8.124167e-02 8.185707e-02 7.989376e-02 7.963792e-02 7.687941e-02 7.586145e-02 7.244548e-02 7.078653e-02 6.685935e-02 6.468846e-02 6.040210e-02 5.785290e-02 5.336326e-02 5.057134e-02 4.603688e-02 4.313769e-02 3.871838e-02 3.584542e-02 3.170137e-02 2.898429e-02 2.527359e-02 2.283581e-02 1.971108e-02 1.766645e-02 1.526975e-02 1.371812e-02 1.217380e-02 1.119521e-02 1.060107e-02 1.024903e-02 1.066613e-02 1.096030e-02 1.240262e-02 1.332213e-02 1.574740e-02 1.722578e-02 2.052938e-02 2.245260e-02 2.646602e-02 2.867448e-02 3.316985e-02 3.546517e-02 4.016613e-02 4.232250e-02 4.692116e-02 4.870048e-02 5.287886e-02 5.404826e-02 5.750192e-02 5.785155e-02 6.031263e-02 5.967181e-02 6.092870e-02 5.917845e-02 5.908979e-02 5.617043e-02 5.467210e-02 5.058542e-02 4.769037e-02 4.249647e-02 3.828818e-02 3.209827e-02 2.671958e-02 1.968599e-02 1.332542e-02 5.630646e-03 -1.491699e-03 -9.645539e-03 -1.729093e-02 -2.569115e-02 -3.361300e-02 -4.204341e-02 -4.999537e-02 -5.824138e-02 -6.598313e-02 -7.383509e-02 -8.113618e-02 
-9.745845e-02 -1.048641e-01 -1.120529e-01 -1.185056e-01 -1.246262e-01 -1.299211e-01 -1.347885e-01 -1.387435e-01 -1.421930e-01 -1.446553e-01 -1.465499e-01 -1.474031e-01 -1.476416e-01 -1.468146e-01 -1.453413e-01 -1.428177e-01 -1.396306e-01 -1.354558e-01 -1.306133e-01 -1.248990e-01 -1.185227e-01 -1.114465e-01 -1.037189e-01 -9.551813e-02 -8.667535e-02 -7.763600e-02 -6.795522e-02 -5.839608e-02 -4.818049e-02 -3.843478e-02 -2.799683e-02 -1.839375e-02 -8.039092e-03 1.113175e-03 1.109972e-02 1.952798e-02 2.889372e-02 3.637009e-02 4.490267e-02 5.125104e-02 5.878359e-02 6.388241e-02 7.029598e-02 7.407771e-02 7.930105e-02 8.174891e-02 8.575618e-02 8.689875e-02 8.970547e-02 8.961002e-02 9.126774e-02 9.003292e-02 9.062321e-02 8.837199e-02 8.800020e-02 8.487338e-02 8.366272e-02 7.981363e-02 7.789974e-02 7.349010e-02 7.101654e-02 6.621366e-02 6.332823e-02 5.830319e-02 5.515520e-02 5.008179e-02 4.681999e-02 4.187395e-02 3.864487e-02 3.400280e-02 3.094903e-02 2.678643e-02 2.404435e-02 2.053215e-02 1.822861e-02 1.552759e-02 1.377516e-02 1.202801e-02 1.091859e-02 1.023967e-02 9.836670e-03 1.030006e-02 1.062985e-02 1.225686e-02 1.330054e-02 1.604849e-02 1.773545e-02 2.148989e-02 2.369481e-02 2.826705e-02 3.081164e-02 3.594352e-02 3.860384e-02 4.398017e-02 4.649953e-02 5.176780e-02 5.387434e-02 5.866985e-02 6.009695e-02 6.407066e-02 6.457784e-02 6.742342e-02 6.681530e-02 6.829209e-02 6.643303e-02 6.638223e-02 6.320509e-02 6.155743e-02 5.706575e-02 5.384065e-02 4.810465e-02 4.340177e-02 3.654937e-02 3.053496e-02 2.273979e-02 1.563025e-02 7.098622e-03 -8.561376e-04 -9.897472e-03 -1.842890e-02 -2.774306e-02 -3.657600e-02 -4.592372e-02 -5.478520e-02 -6.393007e-02 -7.255510e-02 -8.126685e-02 -8.940199e-02 
-1.066538e-01 -1.148970e-01 -1.228803e-01 -1.300714e-01 -1.368813e-01 -1.427940e-01 -1.482251e-01 -1.526568e-01 -1.565244e-01 -1.593024e-01 -1.614505e-01 -1.624410e-01 -1.627523e-01 -1.618709e-01 -1.602778e-01 -1.575005e-01 -1.539959e-01 -1.493690e-01 -1.440145e-01 -1.376596e-01 -1.305895e-01 -1.227048e-01 -1.141239e-01 -1.049768e-01 -9.515181e-02 -8.506627e-02 -7.431138e-02 -6.364903e-02 -5.230772e-02 -4.144641e-02 -2.987188e-02 -1.918391e-02 -7.720415e-03 2.447050e-03 1.348025e-02 2.282112e-02 3.314237e-02 4.140314e-02 5.077736e-02 5.776406e-02 6.600820e-02 7.158916e-02 7.857454e-02 8.267929e-02 8.833104e-02 9.094620e-02 9.524030e-02 9.640305e-02 9.936146e-02 9.915151e-02 1.008359e-01 9.936698e-02 9.987163e-02 9.728328e-02 9.672807e-02 9.317811e-02 9.170167e-02 8.736032e-02 8.511403e-02 8.015940e-02 7.730242e-02 7.191761e-02 6.861304e-02 6.298451e-02 5.939667e-02 5.371359e-02 5.000613e-02 4.446005e-02 4.079461e-02 3.557902e-02 3.211377e-02 2.742257e-02 2.431021e-02 2.033442e-02 1.771878e-02 1.464084e-02 1.265165e-02 1.063667e-02 9.382247e-03 8.566237e-03 8.124198e-03 8.599974e-03 9.006721e-03 1.080865e-02 1.204904e-02 1.513890e-02 1.713787e-02 2.139435e-02 2.401249e-02 2.922708e-02 3.226199e-02 3.814336e-02 4.133778e-02 4.752569e-02 5.058257e-02 5.667078e-02 5.927413e-02 6.484027e-02 6.667954e-02 7.131841e-02 7.211362e-02 7.546979e-02 7.499416e-02 7.678954e-02 7.488694e-02 7.494000e-02 7.153500e-02 6.976953e-02 6.486946e-02 6.131275e-02 5.500212e-02 4.977401e-02 4.220305e-02 3.549875e-02 2.686854e-02 1.893849e-02 9.485096e-03 6.150595e-04 -9.404952e-03 -1.891135e-02 -2.923270e-02 -3.906752e-02 -4.942474e-02 -5.928519e-02 -6.941791e-02 -7.901207e-02 -8.866792e-02 -9.771783e-02 
-1.165744e-01 -1.256959e-01 -1.345049e-01 -1.424734e-01 -1.500041e-01 -1.565711e-01 -1.625962e-01 -1.675366e-01 -1.718493e-01 -1.749682e-01 -1.773907e-01 -1.785344e-01 -1.789298e-01 -1.779976e-01 -1.762836e-01 -1.732415e-01 -1.694032e-01 -1.642964e-01 -1.583971e-01 -1.513576e-01 -1.435442e-01 -1.347919e-01 -1.252930e-01 -1.151288e-01 -1.042446e-01 -9.303472e-02 -8.112034e-02 -6.927429e-02 -5.671779e-02 -4.466295e-02 -3.186240e-02 -2.001847e-02 -7.360254e-03 3.883409e-03 1.604282e-02 2.634520e-02 3.769323e-02 4.677430e-02 5.705189e-02 6.469997e-02 7.370734e-02 7.978151e-02 8.738028e-02 9.180867e-02 9.792089e-02 1.006954e-01 1.052999e-01 1.064681e-01 1.095947e-01 1.092508e-01 1.109728e-01 1.092474e-01 1.096735e-01 1.067241e-01 1.059905e-01 1.019929e-01 1.002553e-01 9.539738e-02 9.282409e-02 8.730098e-02 8.406762e-02 7.807855e-02 7.436386e-02 6.811099e-02 6.409400e-02 5.778217e-02 5.364055e-02 4.747761e-02 4.338665e-02 3.758360e-02 3.371526e-02 2.848523e-02 2.500651e-02 2.056170e-02 1.763149e-02 1.417720e-02 1.194091e-02 9.665915e-03 8.247444e-03 7.310546e-03 6.801705e-03 7.315150e-03 7.763294e-03 9.774517e-03 1.116996e-02 1.464423e-02 1.690963e-02 2.171680e-02 2.470099e-02 3.060966e-02 3.408817e-02 4.076998e-02 4.445375e-02 5.149918e-02 5.505160e-02 6.199661e-02 6.505766e-02 7.141875e-02 7.363352e-02 7.894703e-02 7.999524e-02 8.385564e-02 8.347831e-02 8.557047e-02 8.359029e-02 8.371166e-02 8.004459e-02 7.811471e-02 7.277190e-02 6.882921e-02 6.190986e-02 5.609777e-02 4.777497e-02 4.032073e-02 3.082346e-02 2.201399e-02 1.160832e-02 1.766790e-03 -9.260955e-03 -1.979509e-02 -3.115164e-02 -4.203763e-02 -5.343194e-02 -6.433763e-02 -7.548610e-02 -8.609332e-02 -9.672210e-02 -1.067290e-01 
-1.266767e-01 -1.367659e-01 -1.464868e-01 -1.553137e-01 -1.636431e-01 -1.709358e-01 -1.776232e-01 -1.831325e-01 -1.879468e-01 -1.914535e-01 -1.941928e-01 -1.955199e-01 -1.960250e-01 -1.950524e-01 -1.932234e-01 -1.899045e-01 -1.857166e-01 -1.800939e-01 -1.736115e-01 -1.658266e-01 -1.572104e-01 -1.475072e-01 -1.370128e-01 -1.257293e-01 -1.136954e-01 -1.012459e-01 -8.807441e-02 -7.492294e-02 -6.105296e-02 -4.768326e-02 -3.356368e-02 -2.044916e-02 -6.513550e-03 5.908898e-03 1.926295e-02 3.061325e-02 4.303953e-02 5.300830e-02 6.422224e-02 7.257848e-02 8.236300e-02 8.895626e-02 9.716363e-02 1.019213e-01 1.084717e-01 1.113926e-01 1.162692e-01 1.174140e-01 1.206565e-01 1.201364e-01 1.218320e-01 1.197972e-01 1.200712e-01 1.166997e-01 1.157063e-01 1.111943e-01 1.091078e-01 1.036626e-01 1.006695e-01 9.450397e-02 9.079752e-02 8.412754e-02 7.990307e-02 7.294635e-02 6.839879e-02 6.137543e-02 5.669799e-02 4.983165e-02 4.521547e-02 3.873448e-02 3.436830e-02 2.850559e-02 2.457474e-02 1.956548e-02 1.624895e-02 1.232463e-02 9.789406e-03 7.167584e-03 5.559523e-03 4.428623e-03 3.859939e-03 4.359724e-03 4.893905e-03 7.093314e-03 8.729348e-03 1.260468e-02 1.526331e-02 2.068074e-02 2.419590e-02 3.090257e-02 3.502088e-02 4.264816e-02 4.703846e-02 5.511931e-02 5.939251e-02 6.739253e-02 7.113029e-02 7.848938e-02 8.127837e-02 8.745796e-02 8.892537e-02 9.345477e-02 9.330035e-02 9.581580e-02 9.383610e-02 9.410711e-02 9.020898e-02 8.814910e-02 8.235102e-02 7.801281e-02 7.043517e-02 6.399206e-02 5.483905e-02 4.655877e-02 3.609597e-02 2.631083e-02 1.484240e-02 3.921186e-03 -8.230073e-03 -1.990523e-02 -3.241299e-02 -4.446342e-02 -5.700758e-02 -6.906825e-02 -8.133989e-02 -9.306424e-02 -1.047669e-01 -1.158279e-01 