# vtk DataFile Version 2.0
Comment goes here
ASCII

DATASET STRUCTURED_POINTS
FIELD FieldData 1
TIME 1 1 double
0.08500000
DIMENSIONS    128   128   1

ORIGIN    0.000   0.000   0.000
SPACING   0.039062 0.039062   1.000

POINT_DATA   16384
SCALARS uY double
LOOKUP_TABLE default

1.544489e-14 1.632996e-14 1.673856e-14 1.810220e-14 1.907880e-14 2.145002e-14 2.325636e-14 2.611412e-14 2.796649e-14 3.099394e-14 3.243664e-14 3.451422e-14 3.465936e-14 3.676676e-14 3.712836e-14 3.935828e-14 3.983734e-14 4.145667e-14 4.101070e-14 4.292090e-14 4.216231e-14 4.443825e-14 4.453263e-14 4.740369e-14 4.690309e-14 5.098771e-14 5.178775e-14 5.591535e-14 5.758120e-14 6.272422e-14 6.388127e-14 6.904484e-14 6.998764e-14 7.435811e-14 7.623368e-14 8.123644e-14 8.134756e-14 8.717914e-14 8.870790e-14 9.444599e-14 9.592993e-14 1.031653e-13 1.042900e-13 1.112293e-13 1.133350e-13 1.189994e-13 1.206452e-13 1.264581e-13 1.272368e-13 1.339768e-13 1.348936e-13 1.427991e-13 1.432836e-13 1.488870e-13 1.495857e-13 1.562730e-13 1.568064e-13 1.630453e-13 1.646063e-13 1.693264e-13 1.690595e-13 1.738001e-13 1.732213e-13 1.766444e-13 1.763187e-13 1.776927e-13 1.760527e-13 1.760904e-13 1.731013e-13 1.743793e-13 1.727289e-13 1.732824e-13 1.686510e-13 1.662204e-13 1.627822e-13 1.593130e-13 1.572385e-13 1.526386e-13 1.502349e-13 1.462342e-13 1.441853e-13 1.395891e-13 1.369204e-13 1.297641e-13 1.271212e-13 1.208863e-13 1.181894e-13 1.130053e-13 1.115601e-13 1.038640e-13 1.015946e-13 9.556817e-14 9.484732e-14 8.542525e-14 8.474683e-14 7.639808e-14 7.630377e-14 7.186412e-14 7.096208e-14 6.662319e-14 6.280153e-14 5.513386e-14 5.425417e-14 4.860380e-14 4.671690e-14 4.118754e-14 3.994178e-14 3.559232e-14 3.475952e-14 2.811194e-14 2.818788e-14 2.507154e-14 2.362991e-14 2.241276e-14 2.148286e-14 1.927918e-14 1.930568e-14 1.747468e-14 1.762718e-14 1.602369e-14 1.548307e-14 1.423451e-14 1.385650e-14 1.371099e-14 1.443048e-14 1.486897e-14 1.578750e-14 1.570672e-14 
-4.833799e-02 -4.859408e-02 -4.871726e-02 -4.873599e-02 -4.864084e-02 -4.843971e-02 -4.814322e-02 -4.773910e-02 -4.725758e-02 -4.666637e-02 -4.601523e-02 -4.525181e-02 -4.444551e-02 -4.352385e-02 -4.257607e-02 -4.150945e-02 -4.043328e-02 -3.923457e-02 -3.804276e-02 -3.672465e-02 -3.542975e-02 -3.400490e-02 -3.261941e-02 -3.110041e-02 -2.963670e-02 -2.803605e-02 -2.650621e-02 -2.483599e-02 -2.325159e-02 -2.152316e-02 -1.989492e-02 -1.811856e-02 -1.645600e-02 -1.464057e-02 -1.295171e-02 -1.110440e-02 -9.395596e-03 -7.521805e-03 -5.797650e-03 -3.901079e-03 -2.164555e-03 -2.474758e-04 1.499766e-03 3.436032e-03 5.193191e-03 7.147632e-03 8.914134e-03 1.088527e-02 1.266004e-02 1.464508e-02 1.642577e-02 1.841976e-02 2.020196e-02 2.219699e-02 2.397356e-02 2.595810e-02 2.771855e-02 2.967699e-02 3.140713e-02 3.331947e-02 3.500119e-02 3.684312e-02 3.845446e-02 4.019760e-02 4.171303e-02 4.332552e-02 4.471653e-02 4.616387e-02 4.739967e-02 4.864581e-02 4.969437e-02 5.070297e-02 5.153204e-02 5.226789e-02 5.284626e-02 5.327675e-02 5.357546e-02 5.367202e-02 5.366565e-02 5.340516e-02 5.307301e-02 5.243906e-02 5.176633e-02 5.075029e-02 4.972910e-02 4.833099e-02 4.696131e-02 4.519036e-02 4.348071e-02 4.135571e-02 3.932362e-02 3.687292e-02 3.454508e-02 3.180621e-02 2.921821e-02 2.623717e-02 2.343285e-02 2.026292e-02 1.729314e-02 1.399327e-02 1.091434e-02 7.547134e-03 4.418649e-03 1.048054e-03 -2.069425e-03 -5.380670e-03 -8.428144e-03 -1.162099e-02 -1.454345e-02 -1.756480e-02 -2.031339e-02 -2.311796e-02 -2.565164e-02 -2.820323e-02 -3.048984e-02 -3.276192e-02 -3.477864e-02 -3.675433e-02 -3.848746e-02 -4.015885e-02 -4.160308e-02 -4.297015e-02 -4.412740e-02 -4.519661e-02 -4.607462e-02 -4.685736e-02 -4.746823e-02 -4.797927e-02 
-9.677623e-02 -9.727568e-02 -9.751833e-02 -9.754330e-02 -9.735023e-02 -9.693598e-02 -9.634114e-02 -9.552150e-02 -9.455743e-02 -9.336424e-02 -9.206159e-02 -9.052454e-02 -8.891208e-02 -8.705901e-02 -8.516390e-02 -8.302127e-02 -8.086951e-02 -7.846292e-02 -7.607984e-02 -7.343457e-02 -7.084516e-02 -6.798643e-02 -6.521560e-02 -6.216861e-02 -5.924105e-02 -5.603078e-02 -5.297069e-02 -4.962138e-02 -4.645194e-02 -4.298643e-02 -3.972913e-02 -3.616811e-02 -3.284208e-02 -2.920342e-02 -2.582482e-02 -2.212301e-02 -1.870464e-02 -1.495062e-02 -1.150177e-02 -7.703046e-03 -4.229763e-03 -3.909343e-04 3.103417e-03 6.979679e-03 1.049345e-02 1.440513e-02 1.793717e-02 2.188135e-02 2.542950e-02 2.940068e-02 3.296027e-02 3.694864e-02 4.051091e-02 4.450079e-02 4.805152e-02 5.201999e-02 5.553833e-02 5.945429e-02 6.291195e-02 6.673559e-02 7.009648e-02 7.377928e-02 7.699960e-02 8.048492e-02 8.351375e-02 8.673794e-02 8.951834e-02 9.241243e-02 9.488294e-02 9.737478e-02 9.947131e-02 1.014881e-01 1.031462e-01 1.046174e-01 1.057745e-01 1.066346e-01 1.072326e-01 1.074241e-01 1.074120e-01 1.068884e-01 1.062245e-01 1.049524e-01 1.036070e-01 1.015687e-01 9.952570e-02 9.672097e-02 9.398011e-02 9.042707e-02 8.700534e-02 8.274143e-02 7.867390e-02 7.375585e-02 6.909599e-02 6.359914e-02 5.841838e-02 5.243520e-02 4.682147e-02 4.045922e-02 3.451463e-02 2.789206e-02 2.172955e-02 1.497285e-02 8.712009e-03 1.950023e-03 -4.287716e-03 -1.092860e-02 -1.702498e-02 -2.342589e-02 -2.927074e-02 -3.532496e-02 -4.082051e-02 -4.643715e-02 -5.150139e-02 -5.660800e-02 -6.117681e-02 -6.572053e-02 -6.974853e-02 -7.369596e-02 -7.715610e-02 -8.049196e-02 -8.337397e-02 -8.609884e-02 -8.840691e-02 -9.053436e-02 -9.228431e-02 -9.383771e-02 -9.505399e-02 -9.606343e-02 
-1.455045e-01 -1.462551e-01 -1.466075e-01 -1.466462e-01 -1.463437e-01 -1.457234e-01 -1.448176e-01 -1.435894e-01 -1.421294e-01 -1.403409e-01 -1.383730e-01 -1.360688e-01 -1.336362e-01 -1.308580e-01 -1.280015e-01 -1.247888e-01 -1.215475e-01 -1.179387e-01 -1.143507e-01 -1.103838e-01 -1.064866e-01 -1.021994e-01 -9.803058e-02 -9.346113e-02 -8.905790e-02 -8.424385e-02 -7.964278e-02 -7.462073e-02 -6.985683e-02 -6.466125e-02 -5.976701e-02 -5.442907e-02 -4.943334e-02 -4.397987e-02 -3.890693e-02 -3.335958e-02 -2.822854e-02 -2.260345e-02 -1.742798e-02 -1.173598e-02 -6.524728e-03 -7.721564e-04 4.470395e-03 1.028022e-02 1.555229e-02 2.141710e-02 2.671770e-02 3.263389e-02 3.796057e-02 4.392064e-02 4.926711e-02 5.525696e-02 6.061072e-02 6.660731e-02 7.194748e-02 7.791670e-02 8.321225e-02 8.910750e-02 9.431602e-02 1.000773e-01 1.051445e-01 1.106986e-01 1.155581e-01 1.208194e-01 1.253942e-01 1.302662e-01 1.344699e-01 1.388480e-01 1.425875e-01 1.463622e-01 1.495401e-01 1.526012e-01 1.551196e-01 1.573598e-01 1.591238e-01 1.604438e-01 1.613654e-01 1.616782e-01 1.616798e-01 1.609147e-01 1.599331e-01 1.580398e-01 1.560295e-01 1.529814e-01 1.499178e-01 1.457142e-01 1.415967e-01 1.362650e-01 1.311186e-01 1.247152e-01 1.185922e-01 1.112026e-01 1.041834e-01 9.592082e-02 8.811300e-02 7.911659e-02 7.065273e-02 6.108396e-02 5.211837e-02 4.215612e-02 3.285971e-02 2.269416e-02 1.324815e-02 3.073616e-03 -6.337822e-03 -1.633060e-02 -2.552803e-02 -3.515964e-02 -4.397590e-02 -5.308522e-02 -6.137204e-02 -6.982195e-02 -7.745512e-02 -8.513640e-02 -9.201905e-02 -9.885217e-02 -1.049160e-01 -1.108510e-01 -1.160557e-01 -1.210699e-01 -1.254006e-01 -1.294954e-01 -1.329594e-01 -1.361556e-01 -1.387775e-01 -1.411110e-01 -1.429286e-01 -1.444449e-01 
-1.945326e-01 -1.954960e-01 -1.959469e-01 -1.959615e-01 -1.955414e-01 -1.946791e-01 -1.934569e-01 -1.917858e-01 -1.898270e-01 -1.874109e-01 -1.847768e-01 -1.816749e-01 -1.784228e-01 -1.746902e-01 -1.708740e-01 -1.665631e-01 -1.622343e-01 -1.573958e-01 -1.526046e-01 -1.472889e-01 -1.420852e-01 -1.363425e-01 -1.307762e-01 -1.246572e-01 -1.187779e-01 -1.123331e-01 -1.061898e-01 -9.946833e-02 -9.310796e-02 -8.615623e-02 -7.962249e-02 -7.248258e-02 -6.581434e-02 -5.852248e-02 -5.175246e-02 -4.433789e-02 -3.749180e-02 -2.997624e-02 -2.307246e-02 -1.547036e-02 -8.520373e-03 -8.400170e-04 6.150383e-03 1.390494e-02 2.093371e-02 2.875999e-02 3.582624e-02 4.372010e-02 5.082110e-02 5.877325e-02 6.590118e-02 7.389358e-02 8.103235e-02 8.903497e-02 9.615727e-02 1.041253e-01 1.111902e-01 1.190619e-01 1.260133e-01 1.337090e-01 1.404745e-01 1.478968e-01 1.543883e-01 1.614226e-01 1.675372e-01 1.740545e-01 1.796767e-01 1.855371e-01 1.905421e-01 1.955986e-01 1.998561e-01 2.039604e-01 2.073390e-01 2.103470e-01 2.127192e-01 2.144968e-01 2.157439e-01 2.161736e-01 2.161910e-01 2.151769e-01 2.138791e-01 2.113526e-01 2.086776e-01 2.046015e-01 2.005156e-01 1.948879e-01 1.893893e-01 1.822457e-01 1.753672e-01 1.667826e-01 1.585940e-01 1.486825e-01 1.392914e-01 1.282052e-01 1.177558e-01 1.056821e-01 9.435256e-02 8.150926e-02 6.950716e-02 5.613582e-02 4.369122e-02 3.004897e-02 1.740583e-02 3.755475e-03 -8.838261e-03 -2.223887e-02 -3.454181e-02 -4.745034e-02 -5.923783e-02 -7.143710e-02 -8.251023e-02 -9.381596e-02 -1.040086e-01 -1.142746e-01 -1.234576e-01 -1.325784e-01 -1.406615e-01 -1.485716e-01 -1.555021e-01 -1.621732e-01 -1.679330e-01 -1.733692e-01 -1.779695e-01 -1.822010e-01 -1.856764e-01 -1.887531e-01 -1.911555e-01 -1.931404e-01 
-2.441438e-01 -2.453354e-01 -2.458646e-01 -2.458700e-01 -2.453087e-01 -2.442185e-01 -2.426542e-01 -2.405540e-01 -2.380694e-01 -2.350391e-01 -2.317111e-01 -2.278244e-01 -2.237248e-01 -2.190503e-01 -2.142462e-01 -2.088489e-01 -2.034046e-01 -1.973478e-01 -1.913260e-01 -1.846722e-01 -1.781353e-01 -1.709478e-01 -1.639584e-01 -1.563008e-01 -1.489215e-01 -1.408575e-01 -1.331502e-01 -1.247418e-01 -1.167660e-01 -1.080720e-01 -9.988294e-02 -9.095657e-02 -8.260336e-02 -7.349014e-02 -6.501400e-02 -5.575043e-02 -4.718339e-02 -3.779613e-02 -2.916065e-02 -1.966681e-02 -1.097628e-02 -1.384850e-03 7.354873e-03 1.704055e-02 2.582860e-02 3.560738e-02 4.444458e-02 5.431335e-02 6.319827e-02 7.314739e-02 8.207217e-02 9.208089e-02 1.010271e-01 1.110592e-01 1.199940e-01 1.299945e-01 1.388675e-01 1.487594e-01 1.575006e-01 1.671841e-01 1.757028e-01 1.850548e-01 1.932395e-01 2.021153e-01 2.098358e-01 2.180718e-01 2.251816e-01 2.325999e-01 2.389402e-01 2.453540e-01 2.507591e-01 2.559797e-01 2.602823e-01 2.641262e-01 2.671640e-01 2.694607e-01 2.710826e-01 2.716823e-01 2.717550e-01 2.705356e-01 2.689500e-01 2.658242e-01 2.625007e-01 2.574211e-01 2.523160e-01 2.452794e-01 2.383889e-01 2.294401e-01 2.208043e-01 2.100372e-01 1.997431e-01 1.873010e-01 1.754831e-01 1.615575e-01 1.483972e-01 1.332239e-01 1.189462e-01 1.027997e-01 8.766737e-02 7.085253e-02 5.515744e-02 3.799921e-02 2.205147e-02 4.882275e-03 -1.100256e-02 -2.785629e-02 -4.337085e-02 -5.960231e-02 -7.446065e-02 -8.979500e-02 -1.037443e-01 -1.179487e-01 -1.307783e-01 -1.436687e-01 -1.552157e-01 -1.666598e-01 -1.768111e-01 -1.867279e-01 -1.954190e-01 -2.037745e-01 -2.109847e-01 -2.177861e-01 -2.235321e-01 -2.288196e-01 -2.331477e-01 -2.369861e-01 -2.399642e-01 -2.424344e-01 
-2.942519e-01 -2.956065e-01 -2.961951e-01 -2.961278e-01 -2.954117e-01 -2.940330e-01 -2.921179e-01 -2.895315e-01 -2.865166e-01 -2.828185e-01 -2.787957e-01 -2.740737e-01 -2.691282e-01 -2.634637e-01 -2.576748e-01 -2.511450e-01 -2.445888e-01 -2.372683e-01 -2.300192e-01 -2.219826e-01 -2.141148e-01 -2.054376e-01 -1.970260e-01 -1.877847e-01 -1.789047e-01 -1.691763e-01 -1.599027e-01 -1.497626e-01 -1.401676e-01 -1.296876e-01 -1.198385e-01 -1.090835e-01 -9.904026e-02 -8.806591e-02 -7.787871e-02 -6.672959e-02 -5.643733e-02 -4.514569e-02 -3.477540e-02 -2.336157e-02 -1.292899e-02 -1.402990e-03 9.085618e-03 2.072101e-02 3.126575e-02 4.301078e-02 5.361406e-02 6.546690e-02 7.612861e-02 8.807970e-02 9.879210e-02 1.108185e-01 1.215610e-01 1.336212e-01 1.443559e-01 1.563850e-01 1.670527e-01 1.789596e-01 1.894769e-01 2.011423e-01 2.114006e-01 2.226766e-01 2.325422e-01 2.432543e-01 2.525700e-01 2.625206e-01 2.711095e-01 2.800829e-01 2.877528e-01 2.955223e-01 3.020721e-01 3.084080e-01 3.136347e-01 3.183134e-01 3.220192e-01 3.248322e-01 3.268329e-01 3.275965e-01 3.277290e-01 3.262932e-01 3.244231e-01 3.206793e-01 3.167085e-01 3.105965e-01 3.044697e-01 2.959833e-01 2.876938e-01 2.768848e-01 2.664797e-01 2.534602e-01 2.410432e-01 2.259860e-01 2.117194e-01 1.948564e-01 1.789600e-01 1.605781e-01 1.433252e-01 1.237591e-01 1.054695e-01 8.509223e-02 6.612159e-02 4.533098e-02 2.605761e-02 5.261029e-03 -1.393011e-02 -3.433276e-02 -5.306691e-02 -7.270021e-02 -9.062925e-02 -1.091578e-01 -1.259747e-01 -1.431156e-01 -1.585656e-01 -1.740966e-01 -1.879841e-01 -2.017474e-01 -2.139382e-01 -2.258391e-01 -2.362583e-01 -2.462605e-01 -2.548870e-01 -2.630041e-01 -2.698620e-01 -2.761476e-01 -2.812967e-01 -2.858336e-01 -2.893591e-01 -2.922491e-01 
-3.452420e-01 -3.467822e-01 -3.473983e-01 -3.472800e-01 -3.463725e-01 -3.447264e-01 -3.424208e-01 -3.393690e-01 -3.357826e-01 -3.314368e-01 -3.266771e-01 -3.211394e-01 -3.153054e-01 -3.086697e-01 -3.018536e-01 -2.942088e-01 -2.864986e-01 -2.779311e-01 -2.694131e-01 -2.600095e-01 -2.507703e-01 -2.406188e-01 -2.307462e-01 -2.199368e-01 -2.095197e-01 -1.981435e-01 -1.872705e-01 -1.754171e-01 -1.641740e-01 -1.519285e-01 -1.403954e-01 -1.278350e-01 -1.160830e-01 -1.032735e-01 -9.136208e-02 -7.835554e-02 -6.632997e-02 -5.316332e-02 -4.105431e-02 -2.774957e-02 -1.557374e-02 -2.140043e-03 1.009785e-02 2.366059e-02 3.596393e-02 4.965982e-02 6.203514e-02 7.586611e-02 8.831718e-02 1.022761e-01 1.147976e-01 1.288613e-01 1.414327e-01 1.555555e-01 1.681351e-01 1.822435e-01 1.947639e-01 2.087523e-01 2.211169e-01 2.348455e-01 2.469269e-01 2.602215e-01 2.718618e-01 2.845156e-01 2.955282e-01 3.073062e-01 3.174806e-01 3.281257e-01 3.372327e-01 3.464743e-01 3.542738e-01 3.618375e-01 3.680867e-01 3.737048e-01 3.781674e-01 3.815906e-01 3.840461e-01 3.850545e-01 3.853076e-01 3.837215e-01 3.816110e-01 3.773000e-01 3.727074e-01 3.655991e-01 3.584562e-01 3.485420e-01 3.388383e-01 3.261783e-01 3.139664e-01 2.986919e-01 2.840920e-01 2.664061e-01 2.496080e-01 2.297835e-01 2.110457e-01 1.894210e-01 1.690668e-01 1.460375e-01 1.244465e-01 1.004541e-01 7.805023e-02 5.356684e-02 3.080183e-02 6.311555e-03 -1.635408e-02 -4.037553e-02 -6.249319e-02 -8.559926e-02 -1.067525e-01 -1.285447e-01 -1.483671e-01 -1.685101e-01 -1.866989e-01 -2.049307e-01 -2.212550e-01 -2.373911e-01 -2.516946e-01 -2.656269e-01 -2.778250e-01 -2.895147e-01 -2.995874e-01 -3.090553e-01 -3.170369e-01 -3.243510e-01 -3.303174e-01 -3.355798e-01 -3.396368e-01 -3.429711e-01 
-3.969211e-01 -3.985530e-01 -3.991701e-01 -3.989102e-01 -3.977925e-01 -3.957935e-01 -3.930861e-01 -3.894887e-01 -3.853258e-01 -3.802577e-01 -3.747612e-01 -3.683377e-01 -3.616191e-01 -3.539458e-01 -3.461083e-01 -3.372847e-01 -3.284268e-01 -3.185497e-01 -3.087685e-01 -2.979356e-01 -2.873289e-01 -2.756404e-01 -2.643083e-01 -2.518676e-01 -2.399123e-01 -2.268246e-01 -2.143486e-01 -2.007183e-01 -1.878214e-01 -1.737480e-01 -1.605238e-01 -1.460977e-01 -1.326293e-01 -1.179279e-01 -1.042845e-01 -8.936846e-02 -7.560288e-02 -6.051475e-02 -4.666207e-02 -3.142637e-02 -1.750473e-02 -2.130225e-03 1.185666e-02 2.737270e-02 4.143116e-02 5.709683e-02 7.123735e-02 8.705871e-02 1.012890e-01 1.172619e-01 1.315793e-01 1.476812e-01 1.620655e-01 1.782477e-01 1.926540e-01 2.088352e-01 2.231888e-01 2.392503e-01 2.534420e-01 2.692247e-01 2.831094e-01 2.984137e-01 3.118103e-01 3.263980e-01 3.390917e-01 3.526912e-01 3.644386e-01 3.767518e-01 3.872876e-01 3.979998e-01 4.070451e-01 4.158364e-01 4.231087e-01 4.296664e-01 4.348901e-01 4.389221e-01 4.418395e-01 4.430872e-01 4.434689e-01 4.417199e-01 4.393758e-01 4.344747e-01 4.292634e-01 4.211215e-01 4.129604e-01 4.015634e-01 3.904362e-01 3.758496e-01 3.618138e-01 3.441865e-01 3.273787e-01 3.069438e-01 2.875821e-01 2.646553e-01 2.430388e-01 2.180135e-01 1.945176e-01 1.678558e-01 1.429229e-01 1.151418e-01 8.926684e-02 6.092046e-02 3.463192e-02 6.289219e-03 -1.987411e-02 -4.765414e-02 -7.316766e-02 -9.986105e-02 -1.242387e-01 -1.493794e-01 -1.721949e-01 -1.953930e-01 -2.162962e-01 -2.372498e-01 -2.559761e-01 -2.744763e-01 -2.908496e-01 -3.067777e-01 -3.207066e-01 -3.340263e-01 -3.454951e-01 -3.562395e-01 -3.652952e-01 -3.735520e-01 -3.802895e-01 -3.861849e-01 -3.907325e-01 -3.944161e-01 
-4.497893e-01 -4.515424e-01 -4.521142e-01 -4.517414e-01 -4.503619e-01 -4.480379e-01 -4.448740e-01 -4.407587e-01 -4.359629e-01 -4.301996e-01 -4.239093e-01 -4.166263e-01 -4.089658e-01 -4.002801e-01 -3.913641e-01 -3.813852e-01 -3.713229e-01 -3.601582e-01 -3.490575e-01 -3.368158e-01 -3.247865e-01 -3.115809e-01 -2.987363e-01 -2.846842e-01 -2.711407e-01 -2.563627e-01 -2.422381e-01 -2.268545e-01 -2.122640e-01 -1.963898e-01 -1.814416e-01 -1.651811e-01 -1.499711e-01 -1.334132e-01 -1.180209e-01 -1.012344e-01 -8.571946e-02 -6.875127e-02 -5.315195e-02 -3.602703e-02 -2.036096e-02 -3.084937e-03 1.264796e-02 3.008372e-02 4.589601e-02 6.350715e-02 7.941694e-02 9.721726e-02 1.132398e-01 1.312316e-01 1.473705e-01 1.655346e-01 1.817729e-01 2.000597e-01 2.163515e-01 2.346732e-01 2.509374e-01 2.691619e-01 2.852772e-01 3.032251e-01 3.190271e-01 3.364709e-01 3.517529e-01 3.684197e-01 3.829351e-01 3.985120e-01 4.119800e-01 4.261226e-01 4.382363e-01 4.505804e-01 4.610170e-01 4.711914e-01 4.796233e-01 4.872651e-01 4.933728e-01 4.981424e-01 5.016268e-01 5.032238e-01 5.038184e-01 5.019957e-01 4.994789e-01 4.940553e-01 4.882614e-01 4.791330e-01 4.699628e-01 4.571108e-01 4.445411e-01 4.280385e-01 4.121303e-01 3.921452e-01 3.730498e-01 3.498468e-01 3.278099e-01 3.017481e-01 2.771097e-01 2.486377e-01 2.218273e-01 1.914736e-01 1.630002e-01 1.313581e-01 1.017936e-01 6.950095e-02 3.945813e-02 7.171094e-03 -2.272394e-02 -5.435963e-02 -8.349684e-02 -1.138760e-01 -1.416907e-01 -1.702758e-01 -1.962742e-01 -2.226175e-01 -2.463965e-01 -2.701539e-01 -2.914118e-01 -3.123482e-01 -3.308884e-01 -3.488747e-01 -3.645999e-01 -3.796027e-01 -3.925039e-01 -4.045701e-01 -4.147112e-01 -4.239496e-01 -4.314487e-01 -4.380114e-01 -4.430239e-01 -4.470881e-01 
-5.035300e-01 -5.052793e-01 -5.057716e-01 -5.051667e-01 -5.035020e-01 -5.007419e-01 -4.971082e-01 -4.923721e-01 -4.869390e-01 -4.803856e-01 -4.733040e-01 -4.650734e-01 -4.564784e-01 -4.466969e-01 -4.367122e-01 -4.254979e-01 -4.142415e-01 -4.017102e-01 -3.892990e-01 -3.755695e-01 -3.621238e-01 -3.473207e-01 -3.329660e-01 -3.172207e-01 -3.020876e-01 -2.855364e-01 -2.697581e-01 -2.525379e-01 -2.362456e-01 -2.184883e-01 -2.018057e-01 -1.836314e-01 -1.666685e-01 -1.481791e-01 -1.310267e-01 -1.123011e-01 -9.502687e-02 -7.611757e-02 -5.876414e-02 -3.969769e-02 -2.228303e-02 -3.062585e-03 1.441650e-02 3.380521e-02 5.136712e-02 7.094744e-02 8.861768e-02 1.084117e-01 1.262132e-01 1.462304e-01 1.641732e-01 1.843991e-01 2.024699e-01 2.228552e-01 2.410081e-01 2.614599e-01 2.796083e-01 2.999831e-01 3.179943e-01 3.380938e-01 3.557860e-01 3.753565e-01 3.924986e-01 4.112335e-01 4.275486e-01 4.450949e-01 4.602663e-01 4.762339e-01 4.899143e-01 5.038892e-01 5.157123e-01 5.272716e-01 5.368651e-01 5.455940e-01 5.525933e-01 5.581029e-01 5.621660e-01 5.641104e-01 5.649314e-01 5.630245e-01 5.603473e-01 5.543776e-01 5.480086e-01 5.378511e-01 5.276717e-01 5.132983e-01 4.992758e-01 4.807625e-01 4.629597e-01 4.404912e-01 4.190746e-01 3.929460e-01 3.681900e-01 3.388060e-01 3.110938e-01 2.789632e-01 2.487818e-01 2.145070e-01 1.824359e-01 1.466967e-01 1.133892e-01 7.691810e-02 4.307554e-02 6.627768e-03 -2.703235e-02 -6.271364e-02 -9.549264e-02 -1.297121e-01 -1.609646e-01 -1.931072e-01 -2.222716e-01 -2.518287e-01 -2.784494e-01 -3.050347e-01 -3.287758e-01 -3.521314e-01 -3.727786e-01 -3.927701e-01 -4.102246e-01 -4.268284e-01 -4.410925e-01 -4.543765e-01 -4.655348e-01 -4.756365e-01 -4.838343e-01 -4.909384e-01 -4.963606e-01 -5.006778e-01 
-5.587772e-01 -5.605580e-01 -5.609075e-01 -5.601053e-01 -5.580867e-01 -5.549251e-01 -5.507503e-01 -5.454281e-01 -5.392854e-01 -5.319762e-01 -5.240309e-01 -5.148861e-01 -5.052844e-01 -4.944389e-01 -4.833137e-01 -4.708934e-01 -4.583711e-01 -4.445003e-01 -4.307072e-01 -4.155146e-01 -4.005820e-01 -3.842047e-01 -3.682716e-01 -3.508561e-01 -3.340686e-01 -3.157686e-01 -2.982773e-01 -2.792484e-01 -2.612025e-01 -2.415950e-01 -2.231356e-01 -2.030863e-01 -1.843388e-01 -1.639633e-01 -1.450305e-01 -1.244169e-01 -1.053741e-01 -8.457925e-02 -6.547174e-02 -4.452086e-02 -2.536431e-02 -4.254433e-03 1.496117e-02 3.625445e-02 5.555788e-02 7.707052e-02 9.649972e-02 1.182671e-01 1.378578e-01 1.599014e-01 1.796748e-01 2.019887e-01 2.219396e-01 2.444780e-01 2.645632e-01 2.872298e-01 3.073592e-01 3.299990e-01 3.500289e-01 3.724233e-01 3.921526e-01 4.140185e-01 4.331887e-01 4.541813e-01 4.724800e-01 4.922000e-01 5.092683e-01 5.272729e-01 5.427162e-01 5.585338e-01 5.719348e-01 5.850830e-01 5.960172e-01 6.060220e-01 6.140739e-01 6.204905e-01 6.252699e-01 6.277028e-01 6.288603e-01 6.269820e-01 6.242244e-01 6.177923e-01 6.108963e-01 5.997662e-01 5.885919e-01 5.727289e-01 5.572323e-01 5.367187e-01 5.169626e-01 4.920022e-01 4.681656e-01 4.390861e-01 4.114707e-01 3.787226e-01 3.477541e-01 3.119061e-01 2.781306e-01 2.398589e-01 2.039311e-01 1.640015e-01 1.266639e-01 8.590554e-02 4.795876e-02 7.229310e-03 -3.050519e-02 -7.036025e-02 -1.070818e-01 -1.452712e-01 -1.802411e-01 -2.160668e-01 -2.486447e-01 -2.815322e-01 -3.112029e-01 -3.407207e-01 -3.671091e-01 -3.929747e-01 -4.158486e-01 -4.379223e-01 -4.571833e-01 -4.754523e-01 -4.911183e-01 -5.056738e-01 -5.178558e-01 -5.288665e-01 -5.377431e-01 -5.454287e-01 -5.512210e-01 -5.558279e-01 
-6.150669e-01 -6.167200e-01 -6.168845e-01 -6.157356e-01 -6.133358e-01 -6.096353e-01 -6.049056e-01 -5.988722e-01 -5.920179e-01 -5.838389e-01 -5.750371e-01 -5.648731e-01 -5.542780e-01 -5.422701e-01 -5.300205e-01 -5.162997e-01 -5.025276e-01 -4.872235e-01 -4.720621e-01 -4.553115e-01 -4.389012e-01 -4.208522e-01 -4.033443e-01 -3.841581e-01 -3.657142e-01 -3.455623e-01 -3.263506e-01 -3.054086e-01 -2.855973e-01 -2.640360e-01 -2.437850e-01 -2.217603e-01 -2.012119e-01 -1.788557e-01 -1.581264e-01 -1.355383e-01 -1.147127e-01 -9.195556e-02 -7.108310e-02 -4.818249e-02 -2.727766e-02 -4.225369e-03 1.672785e-02 3.996606e-02 6.100624e-02 8.447921e-02 1.056565e-01 1.294136e-01 1.507766e-01 1.748525e-01 1.964340e-01 2.208329e-01 2.426361e-01 2.673173e-01 2.893030e-01 3.141689e-01 3.362446e-01 3.611307e-01 3.831430e-01 4.078128e-01 4.295433e-01 4.536863e-01 4.748509e-01 4.980860e-01 5.183390e-01 5.402220e-01 5.591644e-01 5.792005e-01 5.963917e-01 6.140523e-01 6.290254e-01 6.437676e-01 6.560463e-01 6.673356e-01 6.764525e-01 6.837853e-01 6.892999e-01 6.922269e-01 6.937432e-01 6.918901e-01 6.890731e-01 6.821594e-01 6.747512e-01 6.626060e-01 6.504410e-01 6.330151e-01 6.160341e-01 5.934093e-01 5.716731e-01 5.440678e-01 5.177679e-01 4.855407e-01 4.550075e-01 4.186571e-01 3.843625e-01 3.445235e-01 3.070773e-01 2.645099e-01 2.246473e-01 1.802173e-01 1.387760e-01 9.342491e-02 5.131089e-02 6.014945e-03 -3.584066e-02 -8.011847e-02 -1.208083e-01 -1.631686e-01 -2.018578e-01 -2.415109e-01 -2.774796e-01 -3.137816e-01 -3.464562e-01 -3.789309e-01 -4.079009e-01 -4.362460e-01 -4.612660e-01 -4.853444e-01 -5.063221e-01 -5.261418e-01 -5.431168e-01 -5.588025e-01 -5.719182e-01 -5.836800e-01 -5.931530e-01 -6.012549e-01 -6.073462e-01 -6.120778e-01 
-6.731915e-01 -6.747566e-01 -6.746520e-01 -6.731967e-01 -6.703271e-01 -6.661290e-01 -6.607548e-01 -6.540524e-01 -6.463972e-01 -6.373908e-01 -6.276443e-01 -6.165026e-01 -6.048268e-01 -5.916956e-01 -5.782349e-01 -5.632491e-01 -5.481404e-01 -5.314349e-01 -5.148181e-01 -4.965374e-01 -4.785626e-01 -4.588672e-01 -4.396993e-01 -4.187668e-01 -3.985849e-01 -3.766072e-01 -3.556000e-01 -3.327753e-01 -3.111331e-01 -2.876553e-01 -2.655593e-01 -2.416055e-01 -2.192174e-01 -1.949363e-01 -1.723874e-01 -1.478897e-01 -1.252736e-01 -1.006265e-01 -7.799480e-02 -5.322069e-02 -3.058330e-02 -5.663743e-03 1.700622e-02 4.212125e-02 6.487824e-02 9.025711e-02 1.131703e-01 1.388833e-01 1.620210e-01 1.881222e-01 2.115355e-01 2.380449e-01 2.617513e-01 2.886375e-01 3.126059e-01 3.397722e-01 3.639103e-01 3.911835e-01 4.153290e-01 4.424527e-01 4.663676e-01 4.930001e-01 5.163706e-01 5.420883e-01 5.645290e-01 5.888349e-01 6.098982e-01 6.322361e-01 6.514260e-01 6.711998e-01 6.879894e-01 7.045854e-01 7.184371e-01 7.312499e-01 7.416361e-01 7.500953e-01 7.565188e-01 7.601149e-01 7.621285e-01 7.604373e-01 7.576620e-01 7.503652e-01 7.425068e-01 7.294096e-01 7.162751e-01 6.973188e-01 6.788323e-01 6.541034e-01 6.303204e-01 6.000566e-01 5.711774e-01 5.357704e-01 5.021506e-01 4.621474e-01 4.243027e-01 3.804023e-01 3.390071e-01 2.920512e-01 2.479266e-01 1.988802e-01 1.529689e-01 1.028873e-01 5.621511e-02 6.197813e-03 -4.017689e-02 -8.904238e-02 -1.340869e-01 -1.807846e-01 -2.235501e-01 -2.671906e-01 -3.068631e-01 -3.467262e-01 -3.826636e-01 -4.182242e-01 -4.499755e-01 -4.809095e-01 -5.082156e-01 -5.343891e-01 -5.571681e-01 -5.786119e-01 -5.969316e-01 -6.138074e-01 -6.278518e-01 -6.404147e-01 -6.504476e-01 -6.590096e-01 -6.653404e-01 -6.702373e-01 
-7.325076e-01 -7.337877e-01 -7.333638e-01 -7.314206e-01 -7.280511e-01 -7.231913e-01 -7.171605e-01 -7.096423e-01 -7.011896e-01 -6.912246e-01 -6.805482e-01 -6.683098e-01 -6.555756e-01 -6.412106e-01 -6.265640e-01 -6.102068e-01 -5.937859e-01 -5.755725e-01 -5.575204e-01 -5.376003e-01 -5.180745e-01 -4.966183e-01 -4.757958e-01 -4.529971e-01 -4.310742e-01 -4.071461e-01 -3.843327e-01 -3.594980e-01 -3.360080e-01 -3.104864e-01 -2.865247e-01 -2.605179e-01 -2.362674e-01 -2.099444e-01 -1.855536e-01 -1.590397e-01 -1.346131e-01 -1.079823e-01 -8.357587e-02 -5.684906e-02 -3.246959e-02 -5.619417e-03 1.876983e-02 4.580893e-02 7.027769e-02 9.759401e-02 1.222301e-01 1.499158e-01 1.748076e-01 2.029379e-01 2.281550e-01 2.567672e-01 2.823421e-01 3.114167e-01 3.373275e-01 3.667713e-01 3.929275e-01 4.225611e-01 4.487930e-01 4.783431e-01 5.043959e-01 5.334923e-01 5.590248e-01 5.872041e-01 6.117939e-01 6.385083e-01 6.616620e-01 6.862954e-01 7.074642e-01 7.293532e-01 7.479523e-01 7.664121e-01 7.818433e-01 7.961962e-01 8.078709e-01 8.174764e-01 8.248382e-01 8.291220e-01 8.316681e-01 8.301490e-01 8.274499e-01 8.197630e-01 8.114811e-01 7.973971e-01 7.833052e-01 7.627450e-01 7.427446e-01 7.157894e-01 6.899280e-01 6.568270e-01 6.253137e-01 5.864888e-01 5.497066e-01 5.057547e-01 4.642679e-01 4.159603e-01 3.705141e-01 3.187880e-01 2.702963e-01 2.162342e-01 1.657530e-01 1.105457e-01 5.922919e-02 4.122207e-03 -4.683624e-02 -1.006098e-01 -1.500455e-01 -2.013360e-01 -2.481819e-01 -2.959890e-01 -3.393358e-01 -3.828585e-01 -4.219976e-01 -4.606636e-01 -4.951083e-01 -5.285796e-01 -5.580644e-01 -5.862216e-01 -6.106829e-01 -6.335935e-01 -6.531361e-01 -6.710133e-01 -6.858694e-01 -6.990272e-01 -7.095142e-01 -7.183242e-01 -7.248049e-01 -7.296590e-01 
-7.939968e-01 -7.950347e-01 -7.941820e-01 -7.917961e-01 -7.878151e-01 -7.823420e-01 -7.755446e-01 -7.672612e-01 -7.579040e-01 -7.470320e-01 -7.353220e-01 -7.220374e-01 -7.081432e-01 -6.925916e-01 -6.766583e-01 -6.589720e-01 -6.411373e-01 -6.214524e-01 -6.018617e-01 -5.803325e-01 -5.591510e-01 -5.359596e-01 -5.133781e-01 -4.887367e-01 -4.649717e-01 -4.391180e-01 -4.144046e-01 -3.875903e-01 -3.621702e-01 -3.346449e-01 -3.087510e-01 -2.807437e-01 -2.545836e-01 -2.262858e-01 -2.000270e-01 -1.715779e-01 -1.453365e-01 -1.168146e-01 -9.064826e-02 -6.206895e-02 -3.597710e-02 -7.297575e-03 1.877282e-02 4.764151e-02 7.378347e-02 1.029585e-01 1.292876e-01 1.588921e-01 1.855260e-01 2.156648e-01 2.427008e-01 2.734364e-01 3.009296e-01 3.322598e-01 3.602035e-01 3.920422e-01 4.203514e-01 4.525140e-01 4.810127e-01 5.132070e-01 5.416211e-01 5.734435e-01 6.013996e-01 6.323390e-01 6.593692e-01 6.888169e-01 7.143709e-01 7.416386e-01 7.651017e-01 7.894452e-01 8.101610e-01 8.308100e-01 8.481068e-01 8.642980e-01 8.775153e-01 8.885265e-01 8.970408e-01 9.022245e-01 9.054729e-01 9.042868e-01 9.017875e-01 8.938209e-01 8.851926e-01 8.701868e-01 8.551680e-01 8.330314e-01 8.114992e-01 7.823171e-01 7.543066e-01 7.183470e-01 6.840698e-01 6.417880e-01 6.016480e-01 5.536901e-01 5.082949e-01 4.554999e-01 4.056642e-01 3.490591e-01 2.957950e-01 2.365765e-01 1.810656e-01 1.205613e-01 6.410541e-02 3.712870e-03 -5.233480e-02 -1.112265e-01 -1.655429e-01 -2.216379e-01 -2.730132e-01 -3.251881e-01 -3.725976e-01 -4.199611e-01 -4.626164e-01 -5.045433e-01 -5.419164e-01 -5.780525e-01 -6.098729e-01 -6.401150e-01 -6.663440e-01 -6.908005e-01 -7.115900e-01 -7.305307e-01 -7.461735e-01 -7.599767e-01 -7.708562e-01 -7.799585e-01 -7.865023e-01 -7.913557e-01 
-8.567955e-01 -8.573518e-01 -8.560125e-01 -8.529681e-01 -8.483444e-01 -8.420673e-01 -8.344958e-01 -8.252810e-01 -8.150315e-01 -8.031072e-01 -7.903903e-01 -7.759306e-01 -7.609119e-01 -7.440553e-01 -7.268737e-01 -7.077441e-01 -6.885314e-01 -6.672592e-01 -6.461589e-01 -6.228989e-01 -6.000805e-01 -5.750234e-01 -5.506900e-01 -5.240659e-01 -4.984541e-01 -4.705267e-01 -4.438980e-01 -4.149507e-01 -3.875770e-01 -3.578935e-01 -3.300383e-01 -2.998798e-01 -2.717786e-01 -2.413636e-01 -2.132061e-01 -1.826924e-01 -1.546086e-01 -1.240827e-01 -9.613499e-02 -6.560900e-02 -3.779105e-02 -7.208148e-03 2.054806e-02 5.130005e-02 7.911015e-02 1.101779e-01 1.381851e-01 1.697242e-01 1.980754e-01 2.302224e-01 2.590429e-01 2.918878e-01 3.212563e-01 3.548169e-01 3.847432e-01 4.189437e-01 4.493499e-01 4.840040e-01 5.147101e-01 5.495103e-01 5.802260e-01 6.147393e-01 6.450618e-01 6.787327e-01 7.081526e-01 7.403144e-01 7.682281e-01 7.981221e-01 8.238529e-01 8.506553e-01 8.734783e-01 8.963333e-01 9.155051e-01 9.335623e-01 9.483504e-01 9.608029e-01 9.705142e-01 9.766359e-01 9.806409e-01 9.798204e-01 9.775761e-01 9.693452e-01 9.604161e-01 9.444723e-01 9.285517e-01 9.047752e-01 8.817078e-01 8.501726e-01 8.199770e-01 7.809580e-01 7.438482e-01 6.978279e-01 6.542326e-01 6.019074e-01 5.524837e-01 4.947698e-01 4.404100e-01 3.784422e-01 3.202659e-01 2.553805e-01 1.947056e-01 1.283968e-01 6.668431e-02 5.333554e-04 -6.069265e-02 -1.251112e-01 -1.843598e-01 -2.455806e-01 -3.014927e-01 -3.582542e-01 -4.096881e-01 -4.610034e-01 -5.070937e-01 -5.522888e-01 -5.924734e-01 -6.311900e-01 -6.652034e-01 -6.973714e-01 -7.252116e-01 -7.509997e-01 -7.728774e-01 -7.926318e-01 -8.089109e-01 -8.230927e-01 -8.342309e-01 -8.433570e-01 -8.498527e-01 -8.544471e-01 