# vtk DataFile Version 2.0
Comment goes here
ASCII

DATASET STRUCTURED_POINTS
FIELD FieldData 1
TIME 1 1 double
0.08000000
DIMENSIONS    128   128   1

ORIGIN    0.000   0.000   0.000
SPACING   0.039062 0.039062   1.000

POINT_DATA   16384
SCALARS uY double
LOOKUP_TABLE default

8.642484e-16 2.064480e-15 2.822458e-15 4.760254e-15 5.568854e-15 7.949110e-15 8.965219e-15 1.208048e-14 1.306923e-14 1.712991e-14 1.782002e-14 2.174554e-14 2.207303e-14 2.566376e-14 2.517584e-14 2.877420e-14 2.794633e-14 3.136259e-14 2.912881e-14 3.256239e-14 3.141836e-14 3.600785e-14 3.426407e-14 3.932973e-14 3.750658e-14 4.399847e-14 4.304105e-14 5.030511e-14 4.943142e-14 5.744865e-14 5.753392e-14 6.575097e-14 6.454373e-14 7.282357e-14 7.183891e-14 8.042587e-14 7.936130e-14 8.821209e-14 8.699521e-14 9.672708e-14 9.548248e-14 1.061112e-13 1.044653e-13 1.142136e-13 1.126554e-13 1.223039e-13 1.201116e-13 1.309024e-13 1.287975e-13 1.401901e-13 1.374346e-13 1.491866e-13 1.473529e-13 1.574273e-13 1.557283e-13 1.674388e-13 1.638460e-13 1.752709e-13 1.733376e-13 1.835535e-13 1.811454e-13 1.895954e-13 1.857661e-13 1.935622e-13 1.903028e-13 1.962724e-13 1.918439e-13 1.949074e-13 1.907763e-13 1.929203e-13 1.895732e-13 1.895150e-13 1.868557e-13 1.855977e-13 1.815426e-13 1.790981e-13 1.772572e-13 1.723294e-13 1.703137e-13 1.625956e-13 1.609245e-13 1.527347e-13 1.525029e-13 1.419631e-13 1.428122e-13 1.304650e-13 1.330272e-13 1.192000e-13 1.216070e-13 1.086657e-13 1.104921e-13 9.725245e-14 1.005959e-13 8.615646e-14 9.055550e-14 7.549642e-14 7.934426e-14 6.746946e-14 7.285070e-14 5.788567e-14 6.199802e-14 4.735608e-14 5.086681e-14 3.804483e-14 4.027778e-14 3.084095e-14 3.369382e-14 2.297214e-14 2.612267e-14 1.810802e-14 2.107306e-14 1.326211e-14 1.525683e-14 9.825864e-15 1.264980e-14 6.467773e-15 8.470061e-15 3.983492e-15 5.618614e-15 2.472689e-15 3.460891e-15 4.889790e-16 1.176759e-15 9.482719e-17 1.328178e-15 6.661700e-16 1.263024e-15 7.772901e-16 
-4.115519e-02 -4.143911e-02 -4.172666e-02 -4.178896e-02 -4.185388e-02 -4.171118e-02 -4.156842e-02 -4.123762e-02 -4.090205e-02 -4.039986e-02 -3.988606e-02 -3.922889e-02 -3.855112e-02 -3.775500e-02 -3.692734e-02 -3.600800e-02 -3.504456e-02 -3.401753e-02 -3.293264e-02 -3.181329e-02 -3.062166e-02 -2.942516e-02 -2.814192e-02 -2.688308e-02 -2.552368e-02 -2.421671e-02 -2.279663e-02 -2.145476e-02 -1.998919e-02 -1.862426e-02 -1.712762e-02 -1.574963e-02 -1.423509e-02 -1.285192e-02 -1.133093e-02 -9.948035e-03 -8.429980e-03 -7.050372e-03 -5.542317e-03 -4.166667e-03 -2.673295e-03 -1.300264e-03 1.760094e-04 1.549265e-03 3.008000e-03 4.385180e-03 5.827470e-03 7.212384e-03 8.640286e-03 1.003607e-02 1.145197e-02 1.286033e-02 1.426624e-02 1.568679e-02 1.708372e-02 1.851336e-02 1.990068e-02 2.133321e-02 2.270809e-02 2.413395e-02 2.549086e-02 2.689700e-02 2.822738e-02 2.959730e-02 3.088922e-02 3.220315e-02 3.344116e-02 3.467631e-02 3.584137e-02 3.697239e-02 3.804194e-02 3.904138e-02 3.998960e-02 4.082856e-02 4.162685e-02 4.227575e-02 4.289344e-02 4.332296e-02 4.372837e-02 4.391051e-02 4.407229e-02 4.398167e-02 4.387043e-02 4.348564e-02 4.307584e-02 4.238093e-02 4.165286e-02 4.063875e-02 3.958048e-02 3.824630e-02 3.685538e-02 3.520954e-02 3.349429e-02 3.155517e-02 2.953539e-02 2.733144e-02 2.503841e-02 2.260773e-02 2.008337e-02 1.747259e-02 1.476787e-02 1.203037e-02 9.203024e-03 6.396614e-03 3.508324e-03 6.926288e-04 -2.194065e-03 -4.960440e-03 -7.785175e-03 -1.044731e-02 -1.315467e-02 -1.566363e-02 -1.820535e-02 -2.051994e-02 -2.285645e-02 -2.494432e-02 -2.704548e-02 -2.888348e-02 -3.072867e-02 -3.230262e-02 -3.388009e-02 -3.518398e-02 -3.648981e-02 -3.752469e-02 -3.856143e-02 -3.933401e-02 -4.010920e-02 -4.063048e-02 
-8.244735e-02 -8.300275e-02 -8.358093e-02 -8.369403e-02 -8.382551e-02 -8.352961e-02 -8.324447e-02 -8.257328e-02 -8.190142e-02 -8.088826e-02 -7.985893e-02 -7.853643e-02 -7.717822e-02 -7.557824e-02 -7.391936e-02 -7.207318e-02 -7.014186e-02 -6.808038e-02 -6.590535e-02 -6.365918e-02 -6.126993e-02 -5.886935e-02 -5.629625e-02 -5.377089e-02 -5.104497e-02 -4.842331e-02 -4.557574e-02 -4.288432e-02 -3.994571e-02 -3.720831e-02 -3.420775e-02 -3.144455e-02 -2.840865e-02 -2.563546e-02 -2.258741e-02 -1.981526e-02 -1.677406e-02 -1.400900e-02 -1.098903e-02 -8.232375e-03 -5.243218e-03 -2.492223e-03 4.611314e-04 3.212261e-03 6.128813e-03 8.887619e-03 1.176947e-02 1.454373e-02 1.739497e-02 2.019109e-02 2.301650e-02 2.583803e-02 2.864175e-02 3.148792e-02 3.427211e-02 3.713674e-02 3.990037e-02 4.277097e-02 4.550869e-02 4.836591e-02 5.106714e-02 5.388457e-02 5.653272e-02 5.927696e-02 6.184886e-02 6.447986e-02 6.694540e-02 6.941710e-02 7.173904e-02 7.400017e-02 7.613429e-02 7.812947e-02 8.002497e-02 8.169600e-02 8.329635e-02 8.458385e-02 8.582816e-02 8.667339e-02 8.749841e-02 8.784554e-02 8.818824e-02 8.798682e-02 8.778772e-02 8.699542e-02 8.620230e-02 8.478783e-02 8.335978e-02 8.130570e-02 7.921714e-02 7.652247e-02 7.376670e-02 7.044904e-02 6.704102e-02 6.313782e-02 5.911574e-02 5.468458e-02 5.010998e-02 4.522768e-02 4.018389e-02 3.494420e-02 2.953318e-02 2.404330e-02 1.838101e-02 1.275692e-02 6.967620e-03 1.328748e-03 -4.461285e-03 -9.997669e-03 -1.566639e-02 -2.099054e-02 -2.642579e-02 -3.144009e-02 -3.654414e-02 -4.116660e-02 -4.585932e-02 -5.002571e-02 -5.424611e-02 -5.791070e-02 -6.161701e-02 -6.475206e-02 -6.792055e-02 -7.051465e-02 -7.313743e-02 -7.519322e-02 -7.727548e-02 -7.880687e-02 -8.036388e-02 -8.139321e-02 
-1.239401e-01 -1.247761e-01 -1.256243e-01 -1.257945e-01 -1.259743e-01 -1.255293e-01 -1.250862e-01 -1.240770e-01 -1.230557e-01 -1.215328e-01 -1.199771e-01 -1.179896e-01 -1.159422e-01 -1.135381e-01 -1.110410e-01 -1.082675e-01 -1.053628e-01 -1.022664e-01 -9.899697e-02 -9.562374e-02 -9.203375e-02 -8.842940e-02 -8.456428e-02 -8.077354e-02 -7.667984e-02 -7.274571e-02 -6.847029e-02 -6.443285e-02 -6.002173e-02 -5.591688e-02 -5.141380e-02 -4.727197e-02 -4.271688e-02 -3.856188e-02 -3.398952e-02 -2.983782e-02 -2.527657e-02 -2.113706e-02 -1.660819e-02 -1.248256e-02 -8.000003e-03 -3.883738e-03 5.455433e-04 4.661622e-03 9.036758e-03 1.316449e-02 1.748932e-02 2.164092e-02 2.592226e-02 3.010790e-02 3.435355e-02 3.857905e-02 4.279577e-02 4.706046e-02 5.125190e-02 5.554696e-02 5.971177e-02 6.401889e-02 6.814903e-02 7.243963e-02 7.651894e-02 8.075384e-02 8.475689e-02 8.888643e-02 9.277763e-02 9.674217e-02 1.004752e-01 1.042061e-01 1.077238e-01 1.111443e-01 1.143788e-01 1.174060e-01 1.202793e-01 1.228257e-01 1.252512e-01 1.272273e-01 1.291120e-01 1.304286e-01 1.316761e-01 1.322480e-01 1.327627e-01 1.325122e-01 1.322040e-01 1.310656e-01 1.298559e-01 1.277802e-01 1.256079e-01 1.225664e-01 1.193941e-01 1.153831e-01 1.112020e-01 1.062461e-01 1.010805e-01 9.523471e-02 8.914408e-02 8.249414e-02 7.557309e-02 6.823446e-02 6.061038e-02 5.272467e-02 4.455278e-02 3.628243e-02 2.773872e-02 1.925989e-02 1.053247e-02 2.026778e-03 -6.693655e-03 -1.504771e-02 -2.357732e-02 -3.161267e-02 -3.978297e-02 -4.735106e-02 -5.501577e-02 -6.199194e-02 -6.903155e-02 -7.531832e-02 -8.164243e-02 -8.717062e-02 -9.271791e-02 -9.744575e-02 -1.021820e-01 -1.060927e-01 -1.100076e-01 -1.131055e-01 -1.162082e-01 -1.185150e-01 -1.208294e-01 -1.223793e-01 
-1.658446e-01 -1.669238e-01 -1.680509e-01 -1.682438e-01 -1.684766e-01 -1.678511e-01 -1.672509e-01 -1.658752e-01 -1.645022e-01 -1.624433e-01 -1.603560e-01 -1.576792e-01 -1.549346e-01 -1.517033e-01 -1.483573e-01 -1.446341e-01 -1.407427e-01 -1.365891e-01 -1.322096e-01 -1.276870e-01 -1.228781e-01 -1.180473e-01 -1.128701e-01 -1.077909e-01 -1.023079e-01 -9.703801e-02 -9.131230e-02 -8.590565e-02 -7.999936e-02 -7.450437e-02 -6.847665e-02 -6.293438e-02 -5.683938e-02 -5.128197e-02 -4.516682e-02 -3.961644e-02 -3.351965e-02 -2.798815e-02 -2.193861e-02 -1.642800e-02 -1.044464e-02 -4.948417e-03 9.593411e-04 6.454086e-03 1.228512e-02 1.779498e-02 2.355463e-02 2.909672e-02 3.479443e-02 4.038314e-02 4.602982e-02 5.167360e-02 5.727886e-02 6.297736e-02 6.854675e-02 7.428846e-02 7.982104e-02 8.558152e-02 9.106753e-02 9.680833e-02 1.022274e-01 1.078956e-01 1.132150e-01 1.187435e-01 1.239174e-01 1.292255e-01 1.341938e-01 1.391884e-01 1.438766e-01 1.484542e-01 1.527733e-01 1.568218e-01 1.606693e-01 1.640708e-01 1.673324e-01 1.699661e-01 1.725179e-01 1.742642e-01 1.759773e-01 1.767220e-01 1.774668e-01 1.771063e-01 1.767603e-01 1.752070e-01 1.736616e-01 1.708501e-01 1.680195e-01 1.639123e-01 1.597418e-01 1.543350e-01 1.488084e-01 1.421356e-01 1.352813e-01 1.274174e-01 1.193116e-01 1.103725e-01 1.011399e-01 9.128160e-02 8.109201e-02 7.050548e-02 5.956745e-02 4.847172e-02 3.702287e-02 2.565526e-02 1.395038e-02 2.555365e-03 -9.146727e-03 -2.032926e-02 -3.177883e-02 -4.252477e-02 -5.349294e-02 -6.360356e-02 -7.389177e-02 -8.320094e-02 -9.264733e-02 -1.010258e-01 -1.095083e-01 -1.168653e-01 -1.243016e-01 -1.305831e-01 -1.369279e-01 -1.421135e-01 -1.473538e-01 -1.514515e-01 -1.556008e-01 -1.586412e-01 -1.617328e-01 -1.637633e-01 
-2.081517e-01 -2.094917e-01 -2.108560e-01 -2.110836e-01 -2.113330e-01 -2.105347e-01 -2.097462e-01 -2.080084e-01 -2.062576e-01 -2.036646e-01 -2.010244e-01 -1.976585e-01 -1.941994e-01 -1.901402e-01 -1.859316e-01 -1.812574e-01 -1.763686e-01 -1.711566e-01 -1.656587e-01 -1.599859e-01 -1.539521e-01 -1.478951e-01 -1.414016e-01 -1.350360e-01 -1.281612e-01 -1.215597e-01 -1.143830e-01 -1.076140e-01 -1.002136e-01 -9.333843e-02 -8.578895e-02 -7.885943e-02 -7.122903e-02 -6.428570e-02 -5.663357e-02 -4.970410e-02 -4.207835e-02 -3.517718e-02 -2.761349e-02 -2.074234e-02 -1.326357e-02 -6.413205e-03 9.700297e-04 7.817128e-03 1.510489e-02 2.197099e-02 2.917159e-02 3.607970e-02 4.320668e-02 5.017635e-02 5.724502e-02 6.428824e-02 7.131210e-02 7.842972e-02 8.541697e-02 9.259570e-02 9.954598e-02 1.067562e-01 1.136577e-01 1.208522e-01 1.276793e-01 1.347926e-01 1.415039e-01 1.484526e-01 1.549893e-01 1.616732e-01 1.679585e-01 1.742616e-01 1.801999e-01 1.859929e-01 1.914702e-01 1.966127e-01 2.014976e-01 2.058412e-01 2.099870e-01 2.133792e-01 2.166274e-01 2.189161e-01 2.211016e-01 2.221406e-01 2.230982e-01 2.227536e-01 2.223270e-01 2.204843e-01 2.185357e-01 2.151078e-01 2.115287e-01 2.064635e-01 2.011856e-01 1.944733e-01 1.874776e-01 1.791568e-01 1.704813e-01 1.606430e-01 1.503868e-01 1.391755e-01 1.274989e-01 1.151108e-01 1.022317e-01 8.890866e-02 7.509352e-02 6.111423e-02 4.666601e-02 3.233313e-02 1.757589e-02 3.201712e-03 -1.153627e-02 -2.564510e-02 -4.004801e-02 -5.360515e-02 -6.738465e-02 -8.013656e-02 -9.304366e-02 -1.047789e-01 -1.166120e-01 -1.271669e-01 -1.377752e-01 -1.470354e-01 -1.563188e-01 -1.642174e-01 -1.721229e-01 -1.786358e-01 -1.851506e-01 -1.902900e-01 -1.954345e-01 -1.992412e-01 -2.030603e-01 -2.055959e-01 
-2.511477e-01 -2.526856e-01 -2.543014e-01 -2.545062e-01 -2.547792e-01 -2.537559e-01 -2.527804e-01 -2.506331e-01 -2.485005e-01 -2.453305e-01 -2.421284e-01 -2.380336e-01 -2.338466e-01 -2.289217e-01 -2.238325e-01 -2.181705e-01 -2.122621e-01 -2.059551e-01 -1.993121e-01 -1.924521e-01 -1.851629e-01 -1.778419e-01 -1.699982e-01 -1.623074e-01 -1.540043e-01 -1.460322e-01 -1.373663e-01 -1.291959e-01 -1.202628e-01 -1.119691e-01 -1.028601e-01 -9.450657e-02 -8.530533e-02 -7.694146e-02 -6.772064e-02 -5.938010e-02 -5.019877e-02 -4.189875e-02 -3.280062e-02 -2.454248e-02 -1.555540e-02 -7.326782e-03 1.536598e-03 9.758425e-03 1.849870e-02 2.674250e-02 3.537057e-02 4.366611e-02 5.219943e-02 6.057223e-02 6.903060e-02 7.749691e-02 8.589810e-02 9.446036e-02 1.028159e-01 1.114590e-01 1.197702e-01 1.284590e-01 1.367136e-01 1.453908e-01 1.535602e-01 1.621463e-01 1.701830e-01 1.785764e-01 1.864123e-01 1.944904e-01 2.020360e-01 2.096572e-01 2.168004e-01 2.238066e-01 2.304131e-01 2.366329e-01 2.425469e-01 2.477994e-01 2.528460e-01 2.569455e-01 2.609341e-01 2.636956e-01 2.664259e-01 2.676718e-01 2.689416e-01 2.685094e-01 2.681249e-01 2.658760e-01 2.636641e-01 2.594929e-01 2.553145e-01 2.491583e-01 2.429219e-01 2.347689e-01 2.264431e-01 2.163407e-01 2.059637e-01 1.940229e-01 1.817087e-01 1.681059e-01 1.540454e-01 1.390200e-01 1.234760e-01 1.073237e-01 9.062092e-02 7.368210e-02 5.619183e-02 3.883627e-02 2.095699e-02 3.565930e-03 -1.429792e-02 -3.135076e-02 -4.880998e-02 -6.517649e-02 -8.187606e-02 -9.724920e-02 -1.128833e-01 -1.270085e-01 -1.413305e-01 -1.540121e-01 -1.668389e-01 -1.779422e-01 -1.891537e-01 -1.986021e-01 -2.081361e-01 -2.159053e-01 -2.237496e-01 -2.298586e-01 -2.360412e-01 -2.405433e-01 -2.451220e-01 -2.480951e-01 
-2.947505e-01 -2.965112e-01 -2.983151e-01 -2.985137e-01 -2.987554e-01 -2.975174e-01 -2.963081e-01 -2.937571e-01 -2.912038e-01 -2.874589e-01 -2.836635e-01 -2.788394e-01 -2.738993e-01 -2.681069e-01 -2.621174e-01 -2.554650e-01 -2.485214e-01 -2.411168e-01 -2.333169e-01 -2.252680e-01 -2.167143e-01 -2.081292e-01 -1.989289e-01 -1.899154e-01 -1.801802e-01 -1.708432e-01 -1.606869e-01 -1.511251e-01 -1.406609e-01 -1.309633e-01 -1.202993e-01 -1.105415e-01 -9.977661e-02 -9.001716e-02 -7.923710e-02 -6.951537e-02 -5.878934e-02 -4.912467e-02 -3.850321e-02 -2.889568e-02 -1.840996e-02 -8.842914e-03 1.494343e-03 1.105025e-02 2.124243e-02 3.082392e-02 4.088685e-02 5.053193e-02 6.048930e-02 7.023093e-02 8.010912e-02 8.996914e-02 9.979192e-02 1.097757e-01 1.195590e-01 1.296509e-01 1.393984e-01 1.495589e-01 1.592573e-01 1.694210e-01 1.790373e-01 1.891122e-01 1.985903e-01 2.084585e-01 2.177177e-01 2.272367e-01 2.361699e-01 2.451746e-01 2.536475e-01 2.619534e-01 2.698049e-01 2.772109e-01 2.842541e-01 2.905473e-01 2.965719e-01 3.015324e-01 3.063093e-01 3.097164e-01 3.130048e-01 3.146449e-01 3.162018e-01 3.158773e-01 3.154700e-01 3.130101e-01 3.104308e-01 3.057028e-01 3.007852e-01 2.937061e-01 2.863413e-01 2.768892e-01 2.670407e-01 2.552642e-01 2.429795e-01 2.290042e-01 2.144217e-01 1.984530e-01 1.818031e-01 1.641235e-01 1.457227e-01 1.266840e-01 1.069225e-01 8.693167e-02 6.625485e-02 4.575564e-02 2.464029e-02 4.090994e-03 -1.698028e-02 -3.713028e-02 -5.769473e-02 -7.702729e-02 -9.666482e-02 -1.148121e-01 -1.331631e-01 -1.498213e-01 -1.665982e-01 -1.815357e-01 -1.965281e-01 -2.095872e-01 -2.226600e-01 -2.337534e-01 -2.448405e-01 -2.539436e-01 -2.630379e-01 -2.701781e-01 -2.773192e-01 -2.825641e-01 -2.878260e-01 -2.912718e-01 
-3.393230e-01 -3.412175e-01 -3.432278e-01 -3.433395e-01 -3.435585e-01 -3.420333e-01 -3.405909e-01 -3.375709e-01 -3.345907e-01 -3.302119e-01 -3.258104e-01 -3.202028e-01 -3.144906e-01 -3.077792e-01 -3.008640e-01 -2.931712e-01 -2.851608e-01 -2.766083e-01 -2.676139e-01 -2.583245e-01 -2.484630e-01 -2.385608e-01 -2.279555e-01 -2.175647e-01 -2.063449e-01 -1.955873e-01 -1.838857e-01 -1.728767e-01 -1.608255e-01 -1.496695e-01 -1.373956e-01 -1.261812e-01 -1.138010e-01 -1.025969e-01 -9.021134e-02 -7.906335e-02 -6.675364e-02 -5.568360e-02 -4.350890e-02 -3.251547e-02 -2.051185e-02 -9.573472e-03 2.245088e-03 1.316532e-02 2.480408e-02 3.575211e-02 4.723125e-02 5.825470e-02 6.960388e-02 8.074450e-02 9.199678e-02 1.032831e-01 1.144687e-01 1.259096e-01 1.370499e-01 1.486296e-01 1.597316e-01 1.714055e-01 1.824574e-01 1.941505e-01 2.051176e-01 2.167232e-01 2.275450e-01 2.389257e-01 2.495134e-01 2.605031e-01 2.707379e-01 2.811437e-01 2.908763e-01 3.004825e-01 3.095321e-01 3.181041e-01 3.262596e-01 3.335489e-01 3.405710e-01 3.463213e-01 3.519469e-01 3.559012e-01 3.598509e-01 3.617603e-01 3.637487e-01 3.633834e-01 3.631335e-01 3.602944e-01 3.575549e-01 3.520870e-01 3.466521e-01 3.384582e-01 3.301872e-01 3.192411e-01 3.080774e-01 2.944345e-01 2.804205e-01 2.642266e-01 2.475130e-01 2.290072e-01 2.098555e-01 1.893677e-01 1.681443e-01 1.460860e-01 1.232471e-01 1.000955e-01 7.616528e-02 5.244053e-02 2.798243e-02 4.221584e-03 -2.019317e-02 -4.346447e-02 -6.728823e-02 -8.958247e-02 -1.123191e-01 -1.332095e-01 -1.544360e-01 -1.735728e-01 -1.929532e-01 -2.100728e-01 -2.273638e-01 -2.422901e-01 -2.573388e-01 -2.699787e-01 -2.827140e-01 -2.930475e-01 -3.034678e-01 -3.115347e-01 -3.196928e-01 -3.255787e-01 -3.315666e-01 -3.353887e-01 
-3.847094e-01 -3.867678e-01 -3.888987e-01 -3.889429e-01 -3.890655e-01 -3.872643e-01 -3.855271e-01 -3.820435e-01 -3.785859e-01 -3.735743e-01 -3.685262e-01 -3.621331e-01 -3.556170e-01 -3.479827e-01 -3.401170e-01 -3.313789e-01 -3.222825e-01 -3.125773e-01 -3.023734e-01 -2.918399e-01 -2.806591e-01 -2.694382e-01 -2.574196e-01 -2.456534e-01 -2.329439e-01 -2.207723e-01 -2.075236e-01 -1.950798e-01 -1.814437e-01 -1.688482e-01 -1.549707e-01 -1.423260e-01 -1.283408e-01 -1.157257e-01 -1.017485e-01 -8.921501e-02 -7.533805e-02 -6.290967e-02 -4.919908e-02 -3.687169e-02 -2.336612e-02 -1.111160e-02 2.176489e-03 1.440460e-02 2.748554e-02 3.974446e-02 5.264617e-02 6.499524e-02 7.775668e-02 9.024838e-02 1.029123e-01 1.155837e-01 1.281894e-01 1.410547e-01 1.536306e-01 1.666750e-01 1.792327e-01 1.924087e-01 2.049371e-01 2.181617e-01 2.306230e-01 2.437773e-01 2.561031e-01 2.690333e-01 2.811220e-01 2.936411e-01 3.053562e-01 3.172472e-01 3.284159e-01 3.394355e-01 3.498483e-01 3.597308e-01 3.691426e-01 3.776053e-01 3.857377e-01 3.924870e-01 3.990334e-01 4.037725e-01 4.084068e-01 4.108454e-01 4.132342e-01 4.131007e-01 4.129201e-01 4.099759e-01 4.069322e-01 4.009869e-01 3.948394e-01 3.857682e-01 3.763528e-01 3.641123e-01 3.513633e-01 3.360054e-01 3.199728e-01 3.016554e-01 2.825160e-01 2.615076e-01 2.395674e-01 2.162449e-01 1.919318e-01 1.667705e-01 1.406173e-01 1.141712e-01 8.678893e-02 5.966515e-02 3.170913e-02 4.535311e-03 -2.333191e-02 -4.994128e-02 -7.708721e-02 -1.025632e-01 -1.284181e-01 -1.522646e-01 -1.763468e-01 -1.981596e-01 -2.200909e-01 -2.395688e-01 -2.590801e-01 -2.760255e-01 -2.929533e-01 -3.072664e-01 -3.215420e-01 -3.332080e-01 -3.448419e-01 -3.539152e-01 -3.629790e-01 -3.695660e-01 -3.761743e-01 -3.804162e-01 
-4.313504e-01 -4.334566e-01 -4.357284e-01 -4.356012e-01 -4.356362e-01 -4.334669e-01 -4.314341e-01 -4.274052e-01 -4.234610e-01 -4.177434e-01 -4.120318e-01 -4.047862e-01 -3.974414e-01 -3.888210e-01 -3.799720e-01 -3.701264e-01 -3.599031e-01 -3.489822e-01 -3.375197e-01 -3.256768e-01 -3.131197e-01 -3.005119e-01 -2.870159e-01 -2.738032e-01 -2.595341e-01 -2.458756e-01 -2.310061e-01 -2.170541e-01 -2.017579e-01 -1.876509e-01 -1.720957e-01 -1.579517e-01 -1.422917e-01 -1.282013e-01 -1.125696e-01 -9.859213e-02 -8.309477e-02 -6.925588e-02 -5.396837e-02 -4.026102e-02 -2.522664e-02 -1.161526e-02 3.153453e-03 1.672629e-02 3.124356e-02 4.484824e-02 5.914896e-02 7.285858e-02 8.699067e-02 1.008705e-01 1.148865e-01 1.289838e-01 1.429323e-01 1.572677e-01 1.711855e-01 1.857460e-01 1.996506e-01 2.143847e-01 2.282684e-01 2.430837e-01 2.569090e-01 2.716712e-01 2.853668e-01 2.999012e-01 3.133592e-01 3.274531e-01 3.405268e-01 3.539328e-01 3.664355e-01 3.788762e-01 3.905800e-01 4.017526e-01 4.123889e-01 4.219713e-01 4.312320e-01 4.388899e-01 4.464321e-01 4.518277e-01 4.572821e-01 4.600849e-01 4.630688e-01 4.629694e-01 4.631050e-01 4.598306e-01 4.567693e-01 4.501018e-01 4.435507e-01 4.333457e-01 4.230964e-01 4.093014e-01 3.952572e-01 3.779284e-01 3.601261e-01 3.394404e-01 3.180654e-01 2.943269e-01 2.697176e-01 2.433560e-01 2.159965e-01 1.875554e-01 1.580561e-01 1.281715e-01 9.723782e-02 6.660693e-02 3.499879e-02 4.342485e-03 -2.717068e-02 -5.714808e-02 -8.783234e-02 -1.164813e-01 -1.456776e-01 -1.724352e-01 -1.995897e-01 -2.240020e-01 -2.486841e-01 -2.704176e-01 -2.923256e-01 -3.111682e-01 -3.301247e-01 -3.459764e-01 -3.619143e-01 -3.747723e-01 -3.877154e-01 -3.976548e-01 -4.076963e-01 -4.148488e-01 -4.221289e-01 -4.266639e-01 
-4.790148e-01 -4.812013e-01 -4.835049e-01 -4.832258e-01 -4.830807e-01 -4.805537e-01 -4.781490e-01 -4.735784e-01 -4.690864e-01 -4.626617e-01 -4.562385e-01 -4.481359e-01 -4.399252e-01 -4.303119e-01 -4.204512e-01 -4.094903e-01 -3.981179e-01 -3.859735e-01 -3.732350e-01 -3.600759e-01 -3.461290e-01 -3.321301e-01 -3.171465e-01 -3.024875e-01 -2.866522e-01 -2.715128e-01 -2.550200e-01 -2.395734e-01 -2.226195e-01 -2.070237e-01 -1.897989e-01 -1.741882e-01 -1.568671e-01 -1.413443e-01 -1.240774e-01 -1.087085e-01 -9.161440e-02 -7.642619e-02 -5.958758e-02 -4.456829e-02 -2.803012e-02 -1.313440e-02 3.094463e-03 1.793769e-02 3.387973e-02 4.875683e-02 6.445852e-02 7.945912e-02 9.498197e-02 1.101866e-01 1.255972e-01 1.410656e-01 1.564256e-01 1.721868e-01 1.875436e-01 2.035881e-01 2.189667e-01 2.352410e-01 2.506372e-01 2.670414e-01 2.824160e-01 2.988035e-01 3.140784e-01 3.302572e-01 3.453120e-01 3.610480e-01 3.757179e-01 3.907386e-01 4.048124e-01 4.188112e-01 4.320305e-01 4.446722e-01 4.567310e-01 4.676568e-01 4.782035e-01 4.870383e-01 4.956805e-01 5.020416e-01 5.083551e-01 5.118637e-01 5.154080e-01 5.157043e-01 5.160440e-01 5.128053e-01 5.095377e-01 5.024999e-01 4.952863e-01 4.842665e-01 4.728660e-01 4.577850e-01 4.420851e-01 4.229881e-01 4.030305e-01 3.801026e-01 3.560999e-01 3.296750e-01 3.020160e-01 2.725759e-01 2.418175e-01 2.099794e-01 1.768234e-01 1.433154e-01 1.085721e-01 7.419610e-02 3.873694e-02 4.324082e-03 -3.097140e-02 -6.460919e-02 -9.890603e-02 -1.310218e-01 -1.635756e-01 -1.935254e-01 -2.237167e-01 -2.509858e-01 -2.783402e-01 -3.025560e-01 -3.267494e-01 -3.476812e-01 -3.685325e-01 -3.860800e-01 -4.035334e-01 -4.177079e-01 -4.318095e-01 -4.427097e-01 -4.535815e-01 -4.613693e-01 -4.691831e-01 -4.740598e-01 
-5.282215e-01 -5.303444e-01 -5.326997e-01 -5.321419e-01 -5.318238e-01 -5.288281e-01 -5.260483e-01 -5.208394e-01 -5.157872e-01 -5.085703e-01 -5.014142e-01 -4.923776e-01 -4.832708e-01 -4.725918e-01 -4.616795e-01 -4.495311e-01 -4.369596e-01 -4.235173e-01 -4.094421e-01 -3.948883e-01 -3.794801e-01 -3.640066e-01 -3.474542e-01 -3.312605e-01 -3.137697e-01 -2.970579e-01 -2.788469e-01 -2.618129e-01 -2.431041e-01 -2.259281e-01 -2.069377e-01 -1.897730e-01 -1.707000e-01 -1.536641e-01 -1.346798e-01 -1.178471e-01 -9.908647e-02 -8.248550e-02 -6.404159e-02 -4.765569e-02 -2.957767e-02 -1.335051e-02 4.354460e-03 2.050970e-02 3.787089e-02 5.405922e-02 7.113381e-02 8.746438e-02 1.043270e-01 1.208986e-01 1.376297e-01 1.545172e-01 1.711920e-01 1.884347e-01 2.051123e-01 2.227048e-01 2.394193e-01 2.573058e-01 2.740588e-01 2.921302e-01 3.088850e-01 3.269784e-01 3.436556e-01 3.615563e-01 3.780311e-01 3.954764e-01 4.115756e-01 4.282595e-01 4.437600e-01 4.593379e-01 4.739647e-01 4.880600e-01 5.014849e-01 5.136947e-01 5.255366e-01 5.354399e-01 5.452680e-01 5.524351e-01 5.597769e-01 5.637825e-01 5.681392e-01 5.685782e-01 5.694481e-01 5.659562e-01 5.628656e-01 5.551429e-01 5.476835e-01 5.355197e-01 5.233886e-01 5.066889e-01 4.897268e-01 4.685352e-01 4.467590e-01 4.212774e-01 3.949023e-01 3.655018e-01 3.349501e-01 3.021715e-01 2.680650e-01 2.326056e-01 1.957402e-01 1.584257e-01 1.197284e-01 8.147056e-02 4.194303e-02 3.686875e-03 -3.565845e-02 -7.299168e-02 -1.111951e-01 -1.467619e-01 -1.829716e-01 -2.160504e-01 -2.495633e-01 -2.795847e-01 -3.098695e-01 -3.364296e-01 -3.631317e-01 -3.859905e-01 -4.089216e-01 -4.279879e-01 -4.471042e-01 -4.624118e-01 -4.777846e-01 -4.894644e-01 -5.012487e-01 -5.094989e-01 -5.179032e-01 -5.229619e-01 
-5.786621e-01 -5.807522e-01 -5.830258e-01 -5.822059e-01 -5.816038e-01 -5.781463e-01 -5.749019e-01 -5.690546e-01 -5.633722e-01 -5.553580e-01 -5.474159e-01 -5.374368e-01 -5.273938e-01 -5.156385e-01 -5.036444e-01 -4.902966e-01 -4.765028e-01 -4.617502e-01 -4.463197e-01 -4.303599e-01 -4.134753e-01 -3.965187e-01 -3.783852e-01 -3.606535e-01 -3.414984e-01 -3.232180e-01 -3.032847e-01 -2.846772e-01 -2.642154e-01 -2.454847e-01 -2.247381e-01 -2.060582e-01 -1.852510e-01 -1.667543e-01 -1.460786e-01 -1.278476e-01 -1.074534e-01 -8.951678e-02 -6.950489e-02 -5.183880e-02 -3.225880e-02 -1.479273e-02 4.354838e-03 2.172703e-02 4.048402e-02 5.788979e-02 7.633025e-02 9.390187e-02 1.121197e-01 1.299774e-01 1.480729e-01 1.663093e-01 1.843760e-01 2.030426e-01 2.211551e-01 2.402527e-01 2.584565e-01 2.779286e-01 2.962315e-01 3.159617e-01 3.343276e-01 3.541399e-01 3.724841e-01 3.921457e-01 4.103313e-01 4.295568e-01 4.473925e-01 4.658492e-01 4.830866e-01 5.004001e-01 5.167317e-01 5.324911e-01 5.475485e-01 5.613124e-01 5.746660e-01 5.859689e-01 5.971308e-01 6.054924e-01 6.139255e-01 6.188637e-01 6.239989e-01 6.250472e-01 6.263099e-01 6.230407e-01 6.198873e-01 6.119398e-01 6.039007e-01 5.910113e-01 5.777375e-01 5.597712e-01 5.410779e-01 5.180571e-01 4.939609e-01 4.660892e-01 4.368335e-01 4.045109e-01 3.705757e-01 3.344011e-01 2.964950e-01 2.572528e-01 2.162832e-01 1.749116e-01 1.319357e-01 8.947652e-02 4.563480e-02 3.170896e-03 -4.038749e-02 -8.180087e-02 -1.239926e-01 -1.633924e-01 -2.032641e-01 -2.398323e-01 -2.766065e-01 -3.097049e-01 -3.428058e-01 -3.719907e-01 -4.010468e-01 -4.260655e-01 -4.508954e-01 -4.716665e-01 -4.922512e-01 -5.088352e-01 -5.252825e-01 -5.378478e-01 -5.503554e-01 -5.591425e-01 -5.679627e-01 -5.732533e-01 
-6.309332e-01 -6.328177e-01 -6.350256e-01 -6.337942e-01 -6.329111e-01 -6.288644e-01 -6.251481e-01 -6.185541e-01 -6.122253e-01 -6.033205e-01 -5.945670e-01 -5.835619e-01 -5.725479e-01 -5.596372e-01 -5.465152e-01 -5.318887e-01 -5.168137e-01 -5.006672e-01 -4.838088e-01 -4.663522e-01 -4.479043e-01 -4.293655e-01 -4.095510e-01 -3.901742e-01 -3.692437e-01 -3.492823e-01 -3.275076e-01 -3.072115e-01 -2.848740e-01 -2.644753e-01 -2.418506e-01 -2.215478e-01 -1.988904e-01 -1.788342e-01 -1.563622e-01 -1.366456e-01 -1.145283e-01 -9.518163e-02 -7.353177e-02 -5.452336e-02 -3.339409e-02 -1.463765e-02 5.974760e-03 2.460763e-02 4.475596e-02 6.341895e-02 8.319315e-02 1.020459e-01 1.215587e-01 1.407471e-01 1.601183e-01 1.797566e-01 1.990984e-01 2.192532e-01 2.386565e-01 2.593364e-01 2.788591e-01 3.000070e-01 3.196658e-01 3.411560e-01 3.609192e-01 3.825581e-01 4.023418e-01 4.238714e-01 4.435359e-01 4.646388e-01 4.839866e-01 5.042925e-01 5.230659e-01 5.421577e-01 5.600357e-01 5.774561e-01 5.940509e-01 6.093089e-01 6.241629e-01 6.367410e-01 6.493271e-01 6.586910e-01 6.684187e-01 6.740316e-01 6.802628e-01 6.816041e-01 6.836816e-01 6.802720e-01 6.775600e-01 6.689922e-01 6.609271e-01 6.468993e-01 6.330451e-01 6.133965e-01 5.934991e-01 5.682431e-01 5.422770e-01 5.116290e-01 4.798306e-01 4.442280e-01 4.071114e-01 3.672190e-01 3.255693e-01 2.822662e-01 2.371075e-01 1.914515e-01 1.439888e-01 9.715910e-02 4.869985e-02 1.922467e-03 -4.621440e-02 -9.174729e-02 -1.383211e-01 -1.815277e-01 -2.254532e-01 -2.654232e-01 -3.058252e-01 -3.418599e-01 -3.781013e-01 -4.097284e-01 -4.414123e-01 -4.683787e-01 -4.953280e-01 -5.175749e-01 -5.397980e-01 -5.574246e-01 -5.750715e-01 -5.882937e-01 -6.016120e-01 -6.107214e-01 -6.200144e-01 -6.253415e-01 
-6.846460e-01 -6.863490e-01 -6.883328e-01 -6.866998e-01 -6.854070e-01 -6.807714e-01 -6.764825e-01 -6.691358e-01 -6.620848e-01 -6.522790e-01 -6.426589e-01 -6.306146e-01 -6.185897e-01 -6.045083e-01 -5.902296e-01 -5.743072e-01 -5.579290e-01 -5.403705e-01 -5.220657e-01 -5.030947e-01 -4.830671e-01 -4.629311e-01 -4.414206e-01 -4.203895e-01 -3.976714e-01 -3.760283e-01 -3.524050e-01 -3.304322e-01 -3.062190e-01 -2.841794e-01 -2.596868e-01 -2.378052e-01 -2.133195e-01 -1.917661e-01 -1.675317e-01 -1.464094e-01 -1.226139e-01 -1.019526e-01 -7.871742e-02 -5.847468e-02 -3.585178e-02 -1.592119e-02 6.103798e-03 2.587780e-02 4.737615e-02 6.717850e-02 8.826422e-02 1.082867e-01 1.290994e-01 1.495176e-01 1.702046e-01 1.911570e-01 2.118558e-01 2.334266e-01 2.542493e-01 2.764560e-01 2.974769e-01 3.202628e-01 3.415084e-01 3.647403e-01 3.861821e-01 4.096519e-01 4.312019e-01 4.546315e-01 4.761392e-01 4.991867e-01 5.204364e-01 5.427036e-01 5.634119e-01 5.844509e-01 6.042632e-01 6.235818e-01 6.420674e-01 6.591346e-01 6.757827e-01 6.900337e-01 7.042522e-01 7.150963e-01 7.262180e-01 7.330519e-01 7.403522e-01 7.425797e-01 7.453086e-01 7.423696e-01 7.397994e-01 7.312055e-01 7.226895e-01 7.080654e-01 6.931024e-01 6.722283e-01 6.505243e-01 6.233762e-01 5.948973e-01 5.616823e-01 5.266926e-01 4.878738e-01 4.469532e-01 4.032602e-01 3.572982e-01 3.097144e-01 2.598738e-01 2.095971e-01 1.572479e-01 1.056229e-01 5.224978e-02 6.794210e-04 -5.222469e-02 -1.023771e-01 -1.534164e-01 -2.009189e-01 -2.488848e-01 -2.927102e-01 -3.366427e-01 -3.760142e-01 -4.152324e-01 -4.496395e-01 -4.837392e-01 -5.129262e-01 -5.417536e-01 -5.656877e-01 -5.892952e-01 -6.081209e-01 -6.267157e-01 -6.407053e-01 -6.545963e-01 -6.641012e-01 -6.736513e-01 -6.790598e-01 
-7.404724e-01 -7.417913e-01 -7.435590e-01 -7.413536e-01 -7.396473e-01 -7.342815e-01 -7.294077e-01 -7.211923e-01 -7.133989e-01 -7.025955e-01 -6.920804e-01 -6.789123e-01 -6.658383e-01 -6.505061e-01 -6.350196e-01 -6.177191e-01 -5.999711e-01 -5.809102e-01 -5.610751e-01 -5.404874e-01 -5.187774e-01 -4.969288e-01 -4.736017e-01 -4.507884e-01 -4.261467e-01 -4.026852e-01 -3.770659e-01 -3.532754e-01 -3.270334e-01 -3.032135e-01 -2.767001e-01 -2.531081e-01 -2.266482e-01 -2.034784e-01 -1.773490e-01 -1.547180e-01 -1.291310e-01 -1.070698e-01 -8.216034e-02 -6.061535e-02 -3.643791e-02 -1.528025e-02 8.187486e-03 2.914465e-02 5.199075e-02 7.296898e-02 9.533057e-02 1.165596e-01 1.386029e-01 1.602941e-01 1.821933e-01 2.045151e-01 2.264331e-01 2.494914e-01 2.715619e-01 2.953860e-01 3.177001e-01 3.422346e-01 3.648304e-01 3.899326e-01 4.127882e-01 4.382305e-01 4.612601e-01 4.867358e-01 5.097872e-01 5.349181e-01 5.577721e-01 5.821170e-01 6.044841e-01 6.275471e-01 6.490639e-01 6.703005e-01 6.905224e-01 7.093459e-01 7.277389e-01 7.435255e-01 7.594599e-01 7.715572e-01 7.843084e-01 7.920488e-01 8.008113e-01 8.035336e-01 8.074541e-01 8.045337e-01 8.027636e-01 7.936518e-01 7.854164e-01 7.696853e-01 7.543613e-01 7.317509e-01 7.089429e-01 6.794074e-01 6.490139e-01 6.127629e-01 5.750261e-01 5.325575e-01 4.880898e-01 4.402054e-01 3.899876e-01 3.377837e-01 2.831259e-01 2.279499e-01 1.704144e-01 1.137868e-01 5.507709e-02 -1.413903e-03 -5.958238e-02 -1.143973e-01 -1.704260e-01 -2.221831e-01 -2.746987e-01 -3.222595e-01 -3.701866e-01 -4.127076e-01 -4.553018e-01 -4.922493e-01 -5.290912e-01 -5.602241e-01 -5.911830e-01 -6.165114e-01 -6.416905e-01 -6.614202e-01 -6.810933e-01 -6.955664e-01 -7.101150e-01 -7.197531e-01 -7.296106e-01 -7.348663e-01 