# vtk DataFile Version 2.0
Comment goes here
ASCII

DATASET STRUCTURED_POINTS
FIELD FieldData 1
TIME 1 1 double
0.18000000
DIMENSIONS    128   128   1

ORIGIN    0.000   0.000   0.000
SPACING   0.039062 0.039062   1.000

POINT_DATA   16384
SCALARS uY double
LOOKUP_TABLE default

-1.971428e-14 -1.894273e-14 -1.945084e-14 -1.870893e-14 -1.966255e-14 -1.889269e-14 -2.030002e-14 -1.959674e-14 -2.051161e-14 -1.917164e-14 -2.022388e-14 -1.947199e-14 -2.109856e-14 -1.964859e-14 -2.036553e-14 -1.943575e-14 -2.069148e-14 -1.958472e-14 -2.032063e-14 -1.874766e-14 -2.115465e-14 -2.025269e-14 -2.183455e-14 -2.057301e-14 -2.197753e-14 -2.051709e-14 -2.191254e-14 -1.903045e-14 -1.928717e-14 -1.780177e-14 -1.812562e-14 -1.548484e-14 -1.641279e-14 -1.482753e-14 -1.722638e-14 -1.670436e-14 -1.811876e-14 -1.666869e-14 -1.690949e-14 -1.518058e-14 -1.603834e-14 -1.435710e-14 -1.490297e-14 -1.237290e-14 -1.312513e-14 -1.083898e-14 -1.113612e-14 -9.889056e-15 -1.156474e-14 -9.695200e-15 -1.158330e-14 -1.096985e-14 -1.101937e-14 -8.676731e-15 -8.392430e-15 -5.716199e-15 -6.666290e-15 -4.462070e-15 -4.664559e-15 -2.626183e-15 -3.178325e-15 -2.106589e-15 -2.564323e-15 -1.103106e-15 -2.122965e-15 -1.276068e-15 -1.479351e-15 -7.938014e-17 3.916217e-16 1.616659e-15 1.368986e-15 1.694558e-15 9.151093e-16 -1.324720e-16 -8.278296e-16 -1.652728e-15 -2.139020e-15 -3.205522e-15 -2.809039e-15 -4.644825e-15 -4.407506e-15 -6.152396e-15 -6.283249e-15 -8.370336e-15 -7.127699e-15 -8.907473e-15 -7.352267e-15 -8.931685e-15 -7.727850e-15 -1.072573e-14 -8.906095e-15 -1.116354e-14 -9.768980e-15 -1.303175e-14 -1.134170e-14 -1.607830e-14 -1.336892e-14 -1.645666e-14 -1.436410e-14 -1.730127e-14 -1.425850e-14 -1.701952e-14 -1.505982e-14 -1.796798e-14 -1.509545e-14 -1.708473e-14 -1.493635e-14 -1.605232e-14 -1.417620e-14 -1.566399e-14 -1.497239e-14 -1.667226e-14 -1.584172e-14 -1.726095e-14 -1.670322e-14 -1.757960e-14 -1.743288e-14 -1.836955e-14 -1.844539e-14 -1.898413e-14 -1.890850e-14 -1.912311e-14 -1.937637e-14 -1.930167e-14 -1.960098e-14 -1.955609e-14 -2.010627e-14 -1.952455e-14 
-6.960083e-03 -7.186046e-03 -7.491569e-03 -7.654135e-03 -7.896469e-03 -7.980928e-03 -8.145554e-03 -8.139296e-03 -8.214041e-03 -8.107112e-03 -8.082667e-03 -7.868291e-03 -7.738688e-03 -7.413736e-03 -7.176743e-03 -6.742101e-03 -6.399499e-03 -5.860287e-03 -5.417979e-03 -4.783563e-03 -4.251477e-03 -3.535255e-03 -2.927016e-03 -2.145949e-03 -1.478324e-03 -6.522415e-04 5.561461e-05 9.049020e-04 1.632353e-03 2.482058e-03 3.207965e-03 4.035366e-03 4.739060e-03 5.522496e-03 6.184679e-03 6.904420e-03 7.507912e-03 8.146847e-03 8.677156e-03 9.221267e-03 9.666941e-03 1.010556e-02 1.045833e-02 1.078417e-02 1.103892e-02 1.124797e-02 1.140250e-02 1.149375e-02 1.154853e-02 1.152366e-02 1.148138e-02 1.134439e-02 1.120965e-02 1.096653e-02 1.074547e-02 1.040390e-02 1.010389e-02 9.673027e-03 9.302510e-03 8.792820e-03 8.361170e-03 7.784330e-03 7.301832e-03 6.670672e-03 6.148530e-03 5.476975e-03 4.927351e-03 4.230345e-03 3.666360e-03 2.959722e-03 2.395388e-03 1.695572e-03 1.145607e-03 4.693451e-04 -5.116847e-05 -6.873621e-04 -1.163485e-03 -1.743941e-03 -2.161549e-03 -2.672179e-03 -3.018765e-03 -3.447860e-03 -3.713411e-03 -4.052438e-03 -4.230294e-03 -4.474606e-03 -4.562212e-03 -4.711586e-03 -4.711018e-03 -4.769931e-03 -4.688121e-03 -4.665708e-03 -4.514285e-03 -4.423933e-03 -4.218673e-03 -4.077263e-03 -3.837161e-03 -3.664003e-03 -3.410042e-03 -3.225590e-03 -2.979326e-03 -2.803792e-03 -2.585881e-03 -2.437874e-03 -2.266693e-03 -2.162018e-03 -2.052503e-03 -2.003209e-03 -1.966002e-03 -1.979764e-03 -2.020729e-03 -2.100568e-03 -2.220664e-03 -2.365008e-03 -2.560499e-03 -2.763513e-03 -3.026433e-03 -3.278564e-03 -3.597365e-03 -3.886011e-03 -4.246310e-03 -4.556551e-03 -4.941908e-03 -5.257236e-03 -5.649909e-03 -5.952934e-03 -6.334593e-03 -6.607701e-03 
-1.392427e-02 -1.438192e-02 -1.499764e-02 -1.532811e-02 -1.581694e-02 -1.599064e-02 -1.632336e-02 -1.631491e-02 -1.646702e-02 -1.625636e-02 -1.620911e-02 -1.578257e-02 -1.552391e-02 -1.487514e-02 -1.440054e-02 -1.353127e-02 -1.284426e-02 -1.176474e-02 -1.087716e-02 -9.606184e-03 -8.537980e-03 -7.102483e-03 -5.881052e-03 -4.315145e-03 -2.974219e-03 -1.317793e-03 1.040868e-04 1.807149e-03 3.268458e-03 4.972315e-03 6.430522e-03 8.089480e-03 9.503016e-03 1.107353e-02 1.240360e-02 1.384604e-02 1.505812e-02 1.633815e-02 1.740315e-02 1.849265e-02 1.938760e-02 2.026521e-02 2.097355e-02 2.162475e-02 2.213623e-02 2.255302e-02 2.286332e-02 2.304377e-02 2.315381e-02 2.310136e-02 2.301663e-02 2.273935e-02 2.246909e-02 2.197904e-02 2.153554e-02 2.084818e-02 2.024623e-02 1.937992e-02 1.863642e-02 1.761216e-02 1.674585e-02 1.558708e-02 1.461852e-02 1.335097e-02 1.230254e-02 1.095417e-02 9.850196e-03 8.450987e-03 7.317730e-03 5.899463e-03 4.764998e-03 3.360742e-03 2.254605e-03 8.980078e-04 -1.494763e-04 -1.425185e-03 -2.383915e-03 -3.547184e-03 -4.388633e-03 -5.411075e-03 -6.109909e-03 -6.967920e-03 -7.503772e-03 -8.180136e-03 -8.539364e-03 -9.024704e-03 -9.201918e-03 -9.495783e-03 -9.494948e-03 -9.606388e-03 -9.441290e-03 -9.388770e-03 -9.082732e-03 -8.893322e-03 -8.478096e-03 -8.185939e-03 -7.699846e-03 -7.343999e-03 -6.829440e-03 -6.451272e-03 -5.951848e-03 -5.592231e-03 -5.149754e-03 -4.846306e-03 -4.497993e-03 -4.282637e-03 -4.058739e-03 -3.955791e-03 -3.877864e-03 -3.902773e-03 -3.982691e-03 -4.141495e-03 -4.381205e-03 -4.670657e-03 -5.062608e-03 -5.470864e-03 -5.998963e-03 -6.506691e-03 -7.147627e-03 -7.729373e-03 -8.454134e-03 -9.079797e-03 -9.855246e-03 -1.049156e-02 -1.128196e-02 -1.189391e-02 -1.266237e-02 -1.321449e-02 
-2.097430e-02 -2.166843e-02 -2.260133e-02 -2.310373e-02 -2.384525e-02 -2.411123e-02 -2.461728e-02 -2.460846e-02 -2.484200e-02 -2.452799e-02 -2.446063e-02 -2.382062e-02 -2.343405e-02 -2.245830e-02 -2.174555e-02 -2.043650e-02 -1.940280e-02 -1.777579e-02 -1.643894e-02 -1.452230e-02 -1.291242e-02 -1.074679e-02 -8.905305e-03 -6.542274e-03 -4.520247e-03 -2.020186e-03 1.240200e-04 2.694673e-03 4.898170e-03 7.470012e-03 9.668405e-03 1.217228e-02 1.430267e-02 1.667272e-02 1.867646e-02 2.085280e-02 2.267779e-02 2.460863e-02 2.621102e-02 2.785405e-02 2.919936e-02 3.052250e-02 3.158596e-02 3.256751e-02 3.333396e-02 3.396212e-02 3.442530e-02 3.469737e-02 3.485900e-02 3.478038e-02 3.464895e-02 3.423198e-02 3.382164e-02 3.308457e-02 3.241398e-02 3.138011e-02 3.047162e-02 2.916856e-02 2.804760e-02 2.650685e-02 2.520159e-02 2.345824e-02 2.199951e-02 2.009211e-02 1.851351e-02 1.648390e-02 1.482190e-02 1.271507e-02 1.100910e-02 8.872736e-03 7.165022e-03 5.048847e-03 3.383878e-03 1.338581e-03 -2.378907e-04 -2.162142e-03 -3.604628e-03 -5.360090e-03 -6.625415e-03 -8.169024e-03 -9.218794e-03 -1.051463e-02 -1.131794e-02 -1.233969e-02 -1.287582e-02 -1.360900e-02 -1.386975e-02 -1.431341e-02 -1.430479e-02 -1.447242e-02 -1.421537e-02 -1.413476e-02 -1.366473e-02 -1.337681e-02 -1.274205e-02 -1.229852e-02 -1.155724e-02 -1.101732e-02 -1.023389e-02 -9.660324e-03 -8.900879e-03 -8.355669e-03 -7.683558e-03 -7.223735e-03 -6.695254e-03 -6.369178e-03 -6.029983e-03 -5.874428e-03 -5.756938e-03 -5.795200e-03 -5.917127e-03 -6.158218e-03 -6.522235e-03 -6.961099e-03 -7.555529e-03 -8.174122e-03 -8.974420e-03 -9.743410e-03 -1.071419e-02 -1.159504e-02 -1.269237e-02 -1.363959e-02 -1.481340e-02 -1.577677e-02 -1.697311e-02 -1.789980e-02 -1.906303e-02 -1.989957e-02 
-2.803716e-02 -2.898513e-02 -3.024942e-02 -3.093995e-02 -3.194682e-02 -3.231959e-02 -3.300953e-02 -3.301267e-02 -3.333565e-02 -3.292800e-02 -3.284555e-02 -3.199880e-02 -3.148603e-02 -3.018676e-02 -2.923402e-02 -2.748524e-02 -2.609939e-02 -2.392154e-02 -2.212644e-02 -1.955757e-02 -1.739376e-02 -1.448866e-02 -1.201207e-02 -8.840358e-03 -6.119966e-03 -2.763226e-03 1.220598e-04 3.574034e-03 6.539189e-03 9.992610e-03 1.295060e-02 1.631208e-02 1.917797e-02 2.235866e-02 2.505333e-02 2.797258e-02 3.042588e-02 3.301406e-02 3.516707e-02 3.736746e-02 3.917396e-02 4.094377e-02 4.237072e-02 4.368112e-02 4.470846e-02 4.554401e-02 4.616367e-02 4.652116e-02 4.673578e-02 4.662279e-02 4.644408e-02 4.587747e-02 4.532460e-02 4.432906e-02 4.342722e-02 4.203409e-02 4.081327e-02 3.905963e-02 3.755382e-02 3.548187e-02 3.372865e-02 3.138535e-02 2.942579e-02 2.686274e-02 2.474155e-02 2.201480e-02 1.978058e-02 1.695040e-02 1.465581e-02 1.178621e-02 9.487756e-03 6.645608e-03 4.403023e-03 1.656604e-03 -4.684477e-04 -3.051418e-03 -4.997390e-03 -7.352326e-03 -9.060545e-03 -1.112906e-02 -1.254709e-02 -1.428035e-02 -1.536570e-02 -1.672785e-02 -1.745171e-02 -1.842288e-02 -1.877337e-02 -1.935209e-02 -1.933666e-02 -1.954111e-02 -1.918763e-02 -1.905555e-02 -1.841175e-02 -1.799882e-02 -1.713007e-02 -1.650672e-02 -1.549215e-02 -1.473910e-02 -1.366640e-02 -1.286920e-02 -1.182854e-02 -1.107169e-02 -1.014953e-02 -9.510708e-03 -8.783822e-03 -8.328800e-03 -7.859433e-03 -7.638089e-03 -7.470347e-03 -7.514126e-03 -7.671999e-03 -7.992853e-03 -8.479809e-03 -9.070552e-03 -9.870528e-03 -1.070637e-02 -1.178586e-02 -1.282676e-02 -1.413763e-02 -1.533121e-02 -1.681385e-02 -1.809843e-02 -1.968505e-02 -2.099268e-02 -2.261037e-02 -2.386970e-02 -2.544336e-02 -2.658225e-02 
-3.527289e-02 -3.648450e-02 -3.809430e-02 -3.898122e-02 -4.026602e-02 -4.075189e-02 -4.163639e-02 -4.165539e-02 -4.207613e-02 -4.157582e-02 -4.148384e-02 -4.042797e-02 -3.979139e-02 -3.816241e-02 -3.696866e-02 -3.476988e-02 -3.302726e-02 -3.028415e-02 -2.802265e-02 -2.478313e-02 -2.205402e-02 -1.838741e-02 -1.526162e-02 -1.125625e-02 -7.821460e-03 -3.580974e-03 6.247155e-05 4.423908e-03 8.167854e-03 1.253101e-02 1.626480e-02 2.051103e-02 2.412679e-02 2.814337e-02 3.154080e-02 3.522560e-02 3.831596e-02 4.158105e-02 4.429010e-02 4.706414e-02 4.933390e-02 5.156334e-02 5.335274e-02 5.500184e-02 5.628627e-02 5.733627e-02 5.810641e-02 5.855396e-02 5.881393e-02 5.866922e-02 5.843451e-02 5.771929e-02 5.701462e-02 5.576031e-02 5.461778e-02 5.286394e-02 5.132149e-02 4.911469e-02 4.721505e-02 4.460810e-02 4.239833e-02 3.944990e-02 3.698131e-02 3.375579e-02 3.108421e-02 2.765159e-02 2.483776e-02 2.127343e-02 1.838324e-02 1.476745e-02 1.187188e-02 8.288674e-03 5.462968e-03 1.998476e-03 -6.794163e-04 -3.939472e-03 -6.391472e-03 -9.365025e-03 -1.151644e-02 -1.412899e-02 -1.591284e-02 -1.810177e-02 -1.946357e-02 -2.118258e-02 -2.208520e-02 -2.330827e-02 -2.373619e-02 -2.446073e-02 -2.442315e-02 -2.467174e-02 -2.420407e-02 -2.402439e-02 -2.318755e-02 -2.265039e-02 -2.152796e-02 -2.072312e-02 -1.941632e-02 -1.844691e-02 -1.706789e-02 -1.604323e-02 -1.470727e-02 -1.373535e-02 -1.255275e-02 -1.173275e-02 -1.080130e-02 -1.021706e-02 -9.615745e-03 -9.330636e-03 -9.115129e-03 -9.168883e-03 -9.369071e-03 -9.776468e-03 -1.039606e-02 -1.114748e-02 -1.216537e-02 -1.322886e-02 -1.460190e-02 -1.592627e-02 -1.759292e-02 -1.911146e-02 -2.099588e-02 -2.263029e-02 -2.464646e-02 -2.631067e-02 -2.836631e-02 -2.997010e-02 -3.197029e-02 -3.342251e-02 
-4.253180e-02 -4.403659e-02 -4.601623e-02 -4.712710e-02 -4.871151e-02 -4.933519e-02 -5.043239e-02 -5.048829e-02 -5.102059e-02 -5.044423e-02 -5.035148e-02 -4.909797e-02 -4.834072e-02 -4.638793e-02 -4.495022e-02 -4.230146e-02 -4.019292e-02 -3.687870e-02 -3.413554e-02 -3.021399e-02 -2.689868e-02 -2.245433e-02 -1.865359e-02 -1.379451e-02 -9.615746e-03 -4.468886e-03 -3.516462e-05 5.259528e-03 9.815570e-03 1.511198e-02 1.965472e-02 2.480758e-02 2.920497e-02 3.407653e-02 3.820603e-02 4.267178e-02 4.642526e-02 5.037836e-02 5.366569e-02 5.701986e-02 5.977101e-02 6.246189e-02 6.462762e-02 6.661274e-02 6.816404e-02 6.942162e-02 7.034807e-02 7.087505e-02 7.118255e-02 7.099217e-02 7.070029e-02 6.981961e-02 6.895893e-02 6.742650e-02 6.603626e-02 6.390025e-02 6.202646e-02 5.934324e-02 5.703745e-02 5.387077e-02 5.118948e-02 4.761006e-02 4.461469e-02 4.070010e-02 3.745746e-02 3.329207e-02 2.987493e-02 2.554979e-02 2.203733e-02 1.764959e-02 1.412741e-02 9.779112e-03 6.338446e-03 2.134496e-03 -1.129637e-03 -5.084461e-03 -8.076316e-03 -1.168133e-02 -1.430874e-02 -1.747220e-02 -1.965190e-02 -2.229636e-02 -2.396004e-02 -2.602790e-02 -2.712828e-02 -2.858685e-02 -2.910320e-02 -2.994868e-02 -2.989086e-02 -3.015066e-02 -2.956111e-02 -2.929388e-02 -2.824701e-02 -2.754016e-02 -2.613883e-02 -2.510360e-02 -2.347293e-02 -2.223715e-02 -2.051613e-02 -1.921542e-02 -1.754711e-02 -1.631537e-02 -1.483670e-02 -1.379676e-02 -1.262905e-02 -1.188448e-02 -1.112552e-02 -1.075434e-02 -1.047276e-02 -1.052346e-02 -1.075579e-02 -1.124588e-02 -1.199610e-02 -1.291292e-02 -1.415439e-02 -1.545783e-02 -1.713682e-02 -1.876326e-02 -2.080363e-02 -2.267070e-02 -2.497900e-02 -2.699041e-02 -2.946107e-02 -3.151134e-02 -3.403142e-02 -3.601023e-02 -3.846377e-02 -4.025987e-02 
-5.005293e-02 -5.186608e-02 -5.423717e-02 -5.558493e-02 -5.748831e-02 -5.825985e-02 -5.958627e-02 -5.968551e-02 -6.034239e-02 -5.969205e-02 -5.960733e-02 -5.815310e-02 -5.727913e-02 -5.499360e-02 -5.331054e-02 -5.019655e-02 -4.771505e-02 -4.380793e-02 -4.057052e-02 -3.593879e-02 -3.201953e-02 -2.676359e-02 -2.226584e-02 -1.651448e-02 -1.156657e-02 -5.471485e-03 -2.206404e-04 6.050835e-03 1.144590e-02 1.771905e-02 2.309615e-02 2.919748e-02 3.439896e-02 4.016425e-02 4.504418e-02 5.032545e-02 5.475550e-02 5.942627e-02 6.330003e-02 6.725874e-02 7.049414e-02 7.366569e-02 7.620571e-02 7.854121e-02 8.035306e-02 8.182829e-02 8.290134e-02 8.351420e-02 8.385705e-02 8.362454e-02 8.326177e-02 8.221686e-02 8.118571e-02 7.937454e-02 7.772204e-02 7.520163e-02 7.298233e-02 6.981893e-02 6.709341e-02 6.336155e-02 6.019583e-02 5.597793e-02 5.244353e-02 4.782991e-02 4.400453e-02 3.909352e-02 3.506190e-02 2.995986e-02 2.581448e-02 2.063525e-02 1.647658e-02 1.134024e-02 7.275885e-03 2.306489e-03 -1.550863e-03 -6.228800e-03 -9.764967e-03 -1.403115e-02 -1.713561e-02 -2.087977e-02 -2.345216e-02 -2.658059e-02 -2.853804e-02 -3.098042e-02 -3.226510e-02 -3.398075e-02 -3.456667e-02 -3.554963e-02 -3.544778e-02 -3.572974e-02 -3.499060e-02 -3.464117e-02 -3.335402e-02 -3.247786e-02 -3.076661e-02 -2.949742e-02 -2.751301e-02 -2.600480e-02 -2.391496e-02 -2.233125e-02 -2.030846e-02 -1.881068e-02 -1.701978e-02 -1.575580e-02 -1.434238e-02 -1.343658e-02 -1.251745e-02 -1.206307e-02 -1.171962e-02 -1.177409e-02 -1.204879e-02 -1.263211e-02 -1.352832e-02 -1.462427e-02 -1.610871e-02 -1.766829e-02 -1.967555e-02 -2.162199e-02 -2.406032e-02 -2.629481e-02 -2.905231e-02 -3.145991e-02 -3.441069e-02 -3.686593e-02 -3.987579e-02 -4.224777e-02 -4.517923e-02 -4.733613e-02 
-5.761037e-02 -5.977453e-02 -6.257245e-02 -6.419691e-02 -6.645080e-02 -6.740596e-02 -6.898812e-02 -6.916121e-02 -6.996299e-02 -6.926281e-02 -6.919921e-02 -6.756105e-02 -6.657528e-02 -6.396565e-02 -6.203334e-02 -5.845412e-02 -5.558666e-02 -5.107797e-02 -4.732430e-02 -4.196552e-02 -3.741198e-02 -3.132033e-02 -2.608805e-02 -1.941460e-02 -1.365442e-02 -6.577479e-03 -4.626756e-04 6.820881e-03 1.310345e-02 2.038814e-02 2.664772e-02 3.372977e-02 3.978126e-02 4.646827e-02 5.214079e-02 5.825997e-02 6.340387e-02 6.880828e-02 7.330006e-02 7.787247e-02 8.161763e-02 8.527218e-02 8.820584e-02 9.088756e-02 9.297335e-02 9.465609e-02 9.588350e-02 9.656677e-02 9.694760e-02 9.665281e-02 9.621713e-02 9.498383e-02 9.377600e-02 9.165849e-02 8.973370e-02 8.679836e-02 8.421990e-02 8.054328e-02 7.738085e-02 7.304869e-02 6.937772e-02 6.448459e-02 6.038649e-02 5.503595e-02 5.059902e-02 4.490396e-02 4.022466e-02 3.430745e-02 2.949151e-02 2.348361e-02 1.864649e-02 1.268716e-02 7.953432e-03 2.187185e-03 -2.311727e-03 -7.739096e-03 -1.186896e-02 -1.681587e-02 -2.044567e-02 -2.478160e-02 -2.779127e-02 -3.140465e-02 -3.369393e-02 -3.650033e-02 -3.799803e-02 -3.994792e-02 -4.062033e-02 -4.170532e-02 -4.156274e-02 -4.181937e-02 -4.091947e-02 -4.042974e-02 -3.887705e-02 -3.776514e-02 -3.570618e-02 -3.413131e-02 -3.174561e-02 -2.989150e-02 -2.737917e-02 -2.544107e-02 -2.300819e-02 -2.117873e-02 -1.902225e-02 -1.747762e-02 -1.577129e-02 -1.465918e-02 -1.354193e-02 -1.297243e-02 -1.254045e-02 -1.258059e-02 -1.288331e-02 -1.355530e-02 -1.459538e-02 -1.587841e-02 -1.761504e-02 -1.944966e-02 -2.180423e-02 -2.409858e-02 -2.696181e-02 -2.959862e-02 -3.283812e-02 -3.568179e-02 -3.914939e-02 -4.205257e-02 -4.559094e-02 -4.840044e-02 -5.184890e-02 -5.441078e-02 
-6.552284e-02 -6.805910e-02 -7.131350e-02 -7.323287e-02 -7.586403e-02 -7.701730e-02 -7.887823e-02 -7.913494e-02 -8.010001e-02 -7.935393e-02 -7.932414e-02 -7.749896e-02 -7.640742e-02 -7.346251e-02 -7.127949e-02 -6.721495e-02 -6.395205e-02 -5.881241e-02 -5.452502e-02 -4.840069e-02 -4.318794e-02 -3.621385e-02 -3.021582e-02 -2.256677e-02 -1.595853e-02 -7.841475e-03 -8.245035e-04 7.531755e-03 1.474013e-02 2.309683e-02 3.027494e-02 3.839565e-02 4.532886e-02 5.299093e-02 5.948175e-02 6.648605e-02 7.236234e-02 7.854045e-02 8.366114e-02 8.887977e-02 9.313797e-02 9.730064e-02 1.006242e-01 1.036705e-01 1.060205e-01 1.079232e-01 1.092906e-01 1.100519e-01 1.104531e-01 1.100998e-01 1.095717e-01 1.081509e-01 1.067461e-01 1.043211e-01 1.021039e-01 9.875059e-02 9.579367e-02 9.159905e-02 8.798146e-02 8.304219e-02 7.884880e-02 7.327107e-02 6.859302e-02 6.249294e-02 5.742892e-02 5.093321e-02 4.559123e-02 3.883767e-02 3.333664e-02 2.647392e-02 2.094455e-02 1.413109e-02 8.715419e-03 2.116612e-03 -3.034324e-03 -9.250462e-03 -1.398126e-02 -1.965042e-02 -2.380826e-02 -2.877783e-02 -3.222160e-02 -3.636002e-02 -3.897095e-02 -4.217752e-02 -4.387029e-02 -4.608466e-02 -4.681771e-02 -4.802755e-02 -4.781106e-02 -4.805693e-02 -4.695714e-02 -4.633342e-02 -4.447219e-02 -4.312342e-02 -4.067250e-02 -3.878503e-02 -3.595539e-02 -3.374486e-02 -3.077176e-02 -2.846761e-02 -2.559320e-02 -2.342168e-02 -2.087689e-02 -1.904457e-02 -1.703232e-02 -1.571175e-02 -1.439340e-02 -1.371235e-02 -1.319840e-02 -1.323362e-02 -1.357941e-02 -1.435488e-02 -1.556093e-02 -1.705038e-02 -1.906670e-02 -2.119912e-02 -2.393232e-02 -2.659960e-02 -2.992143e-02 -3.298677e-02 -3.674316e-02 -4.004938e-02 -4.406891e-02 -4.744604e-02 -5.154753e-02 -5.481947e-02 -5.881844e-02 -6.180860e-02 
-7.348883e-02 -7.645428e-02 -8.021282e-02 -8.248041e-02 -8.553148e-02 -8.693083e-02 -8.910657e-02 -8.948801e-02 -9.064427e-02 -8.988497e-02 -8.990730e-02 -8.791796e-02 -8.672804e-02 -8.345969e-02 -8.102142e-02 -7.647160e-02 -7.279628e-02 -6.701374e-02 -6.216323e-02 -5.524998e-02 -4.933710e-02 -4.144709e-02 -3.463242e-02 -2.596630e-02 -1.845140e-02 -9.247478e-03 -1.264734e-03 8.213213e-03 1.641308e-02 2.588990e-02 3.405146e-02 4.325518e-02 5.113171e-02 5.980704e-02 6.717235e-02 7.509204e-02 8.174997e-02 8.872304e-02 9.451397e-02 1.003906e-01 1.051949e-01 1.098682e-01 1.136064e-01 1.170109e-01 1.196419e-01 1.217504e-01 1.232671e-01 1.240853e-01 1.245095e-01 1.240708e-01 1.234469e-01 1.218066e-01 1.201964e-01 1.174273e-01 1.149045e-01 1.110932e-01 1.077401e-01 1.029843e-01 9.888957e-02 9.329729e-02 8.855502e-02 8.224457e-02 7.695524e-02 7.005586e-02 6.432804e-02 5.698097e-02 5.093370e-02 4.329301e-02 3.705808e-02 2.929083e-02 2.301422e-02 1.529940e-02 9.141205e-03 1.666878e-03 -4.200984e-03 -1.124252e-02 -1.664135e-02 -2.306074e-02 -2.781298e-02 -3.343309e-02 -3.737295e-02 -4.203983e-02 -4.502594e-02 -4.862061e-02 -5.054938e-02 -5.299918e-02 -5.381748e-02 -5.510561e-02 -5.482074e-02 -5.499236e-02 -5.367772e-02 -5.284147e-02 -5.063657e-02 -4.896048e-02 -4.606451e-02 -4.376632e-02 -4.042562e-02 -3.775797e-02 -3.424828e-02 -3.148020e-02 -2.808582e-02 -2.548249e-02 -2.247447e-02 -2.027748e-02 -1.789353e-02 -1.630381e-02 -1.473205e-02 -1.389727e-02 -1.326538e-02 -1.327274e-02 -1.364312e-02 -1.451785e-02 -1.588853e-02 -1.759720e-02 -1.990750e-02 -2.236515e-02 -2.550450e-02 -2.858399e-02 -3.240239e-02 -3.594450e-02 -4.026330e-02 -4.408650e-02 -4.870829e-02 -5.261753e-02 -5.733480e-02 -6.112884e-02 -6.573116e-02 -6.920884e-02 
-8.190713e-02 -8.532942e-02 -8.963047e-02 -9.227060e-02 -9.577652e-02 -9.744189e-02 -9.996296e-02 -1.004833e-01 -1.018556e-01 -1.010900e-01 -1.011821e-01 -9.902655e-02 -9.774717e-02 -9.414275e-02 -9.144817e-02 -8.638856e-02 -8.228891e-02 -7.582632e-02 -7.038980e-02 -6.263795e-02 -5.599165e-02 -4.712460e-02 -3.945121e-02 -2.969750e-02 -2.122743e-02 -1.085958e-02 -1.859145e-03 8.820710e-03 1.806408e-02 2.874084e-02 3.793466e-02 4.829747e-02 5.715997e-02 6.691808e-02 7.519205e-02 8.408795e-02 9.155170e-02 9.937059e-02 1.058453e-01 1.124205e-01 1.177738e-01 1.229883e-01 1.271346e-01 1.309189e-01 1.338164e-01 1.361445e-01 1.377901e-01 1.386729e-01 1.390956e-01 1.385745e-01 1.378283e-01 1.359685e-01 1.341258e-01 1.310106e-01 1.281560e-01 1.238827e-01 1.201088e-01 1.147863e-01 1.101914e-01 1.039385e-01 9.862607e-02 9.157234e-02 8.565172e-02 7.793848e-02 7.152765e-02 6.330950e-02 5.653813e-02 4.798442e-02 4.099697e-02 3.229245e-02 2.525034e-02 1.659438e-02 9.676415e-03 1.280197e-03 -5.319674e-03 -1.323837e-02 -1.931656e-02 -2.654140e-02 -3.189367e-02 -3.822040e-02 -4.265432e-02 -4.790360e-02 -5.125334e-02 -5.528473e-02 -5.742722e-02 -6.015288e-02 -6.102298e-02 -6.241936e-02 -6.202215e-02 -6.213773e-02 -6.055564e-02 -5.951324e-02 -5.690634e-02 -5.489871e-02 -5.149734e-02 -4.877600e-02 -4.486597e-02 -4.172374e-02 -3.762532e-02 -3.437449e-02 -3.041758e-02 -2.736579e-02 -2.386414e-02 -2.129099e-02 -1.851852e-02 -1.665545e-02 -1.482729e-02 -1.384289e-02 -1.310304e-02 -1.309504e-02 -1.351130e-02 -1.450527e-02 -1.607103e-02 -1.802499e-02 -2.066649e-02 -2.347985e-02 -2.706709e-02 -3.059199e-02 -3.495131e-02 -3.900462e-02 -4.393124e-02 -4.830594e-02 -5.357533e-02 -5.805037e-02 -6.342788e-02 -6.777629e-02 -7.302494e-02 -7.702039e-02 
-9.040177e-02 -9.435403e-02 -9.925916e-02 -1.023402e-01 -1.063562e-01 -1.083494e-01 -1.112629e-01 -1.119754e-01 -1.136006e-01 -1.128714e-01 -1.130580e-01 -1.107664e-01 -1.094085e-01 -1.054838e-01 -1.025283e-01 -9.695914e-02 -9.241409e-02 -8.525568e-02 -7.919554e-02 -7.057387e-02 -6.314106e-02 -5.325202e-02 -4.465342e-02 -3.375629e-02 -2.425427e-02 -1.265955e-02 -2.558125e-03 9.389427e-03 1.976204e-02 3.170305e-02 4.201339e-02 5.359415e-02 6.352199e-02 7.441305e-02 8.366743e-02 9.357876e-02 1.019105e-01 1.106022e-01 1.178122e-01 1.251003e-01 1.310432e-01 1.368009e-01 1.413850e-01 1.455400e-01 1.487234e-01 1.512520e-01 1.530365e-01 1.539565e-01 1.543795e-01 1.537414e-01 1.528677e-01 1.507476e-01 1.486610e-01 1.451539e-01 1.419505e-01 1.371653e-01 1.329488e-01 1.270056e-01 1.218841e-01 1.149133e-01 1.089990e-01 1.011419e-01 9.455252e-02 8.596310e-02 7.882514e-02 6.967204e-02 6.212489e-02 5.259373e-02 4.479376e-02 3.508827e-02 2.721206e-02 1.755371e-02 9.799175e-03 4.244798e-04 -6.990977e-03 -1.583610e-02 -2.268139e-02 -3.075054e-02 -3.679093e-02 -4.384937e-02 -4.886079e-02 -5.470042e-02 -5.848693e-02 -6.294280e-02 -6.535587e-02 -6.832268e-02 -6.927970e-02 -7.072606e-02 -7.022566e-02 -7.020387e-02 -6.833521e-02 -6.698456e-02 -6.392846e-02 -6.147057e-02 -5.749146e-02 -5.421739e-02 -4.964606e-02 -4.589587e-02 -4.110464e-02 -3.724142e-02 -3.261453e-02 -2.899579e-02 -2.489849e-02 -2.184827e-02 -1.859852e-02 -1.638361e-02 -1.422958e-02 -1.304237e-02 -1.214807e-02 -1.209753e-02 -1.253741e-02 -1.364834e-02 -1.541020e-02 -1.762947e-02 -2.062390e-02 -2.383172e-02 -2.790569e-02 -3.192950e-02 -3.688163e-02 -4.151046e-02 -4.710586e-02 -5.210357e-02 -5.808698e-02 -6.320336e-02 -6.930990e-02 -7.428957e-02 -8.025305e-02 -8.484227e-02 
-9.945120e-02 -1.039684e-01 -1.095255e-01 -1.130789e-01 -1.176493e-01 -1.199969e-01 -1.233420e-01 -1.242670e-01 -1.261777e-01 -1.254967e-01 -1.258018e-01 -1.233748e-01 -1.219514e-01 -1.176937e-01 -1.144775e-01 -1.083705e-01 -1.033660e-01 -9.546670e-02 -8.875395e-02 -7.920051e-02 -7.093800e-02 -5.994942e-02 -5.037025e-02 -3.823933e-02 -2.764112e-02 -1.472027e-02 -3.448910e-03 9.869714e-03 2.144058e-02 3.474838e-02 4.623974e-02 5.913554e-02 7.018462e-02 8.229641e-02 9.257539e-02 1.035778e-01 1.128081e-01 1.224347e-01 1.303959e-01 1.384450e-01 1.449794e-01 1.513152e-01 1.563264e-01 1.608751e-01 1.643235e-01 1.670662e-01 1.689610e-01 1.699242e-01 1.703144e-01 1.695605e-01 1.685240e-01 1.661417e-01 1.637763e-01 1.598735e-01 1.562884e-01 1.509864e-01 1.462970e-01 1.397273e-01 1.340516e-01 1.263553e-01 1.198141e-01 1.111430e-01 1.038615e-01 9.438055e-02 8.649301e-02 7.638313e-02 6.803778e-02 5.749927e-02 4.886389e-02 3.811829e-02 2.938462e-02 1.867501e-02 1.006083e-02 -3.505731e-04 -8.602923e-03 -1.844061e-02 -2.607033e-02 -3.505527e-02 -4.179440e-02 -4.965787e-02 -5.524770e-02 -6.174860e-02 -6.596027e-02 -7.090464e-02 -7.356207e-02 -7.682292e-02 -7.782514e-02 -7.935987e-02 -7.869973e-02 -7.856248e-02 -7.633826e-02 -7.468460e-02 -7.110192e-02 -6.818406e-02 -6.354665e-02 -5.969866e-02 -5.438813e-02 -5.000197e-02 -4.444842e-02 -3.994329e-02 -3.459017e-02 -3.037854e-02 -2.564613e-02 -2.210078e-02 -1.835291e-02 -1.577883e-02 -1.329677e-02 -1.191141e-02 -1.087774e-02 -1.080106e-02 -1.129428e-02 -1.254877e-02 -1.454786e-02 -1.706695e-02 -2.046348e-02 -2.410563e-02 -2.872045e-02 -3.328601e-02 -3.888748e-02 -4.413568e-02 -5.045692e-02 -5.612105e-02 -6.287484e-02 -6.867462e-02 -7.556507e-02 -8.121613e-02 -8.794744e-02 -9.316825e-02 
-1.086072e-01 -1.137804e-01 -1.200667e-01 -1.241777e-01 -1.293722e-01 -1.321518e-01 -1.359887e-01 -1.371934e-01 -1.394377e-01 -1.388593e-01 -1.393162e-01 -1.367930e-01 -1.353200e-01 -1.307504e-01 -1.272696e-01 -1.206259e-01 -1.151366e-01 -1.064764e-01 -9.906420e-02 -8.853820e-02 -7.937859e-02 -6.723118e-02 -5.658626e-02 -4.314760e-02 -3.135446e-02 -1.702408e-02 -4.475737e-03 1.030088e-02 2.317974e-02 3.793876e-02 5.071821e-02 6.500561e-02 7.727582e-02 9.067280e-02 1.020656e-01 1.142086e-01 1.244136e-01 1.350081e-01 1.437828e-01 1.526094e-01 1.597830e-01 1.666977e-01 1.721699e-01 1.770992e-01 1.808336e-01 1.837650e-01 1.857800e-01 1.867512e-01 1.871085e-01 1.861951e-01 1.849876e-01 1.822929e-01 1.796335e-01 1.752792e-01 1.712915e-01 1.654121e-01 1.602236e-01 1.529625e-01 1.467016e-01 1.382109e-01 1.310064e-01 1.214488e-01 1.134325e-01 1.029843e-01 9.429659e-02 8.315193e-02 7.394835e-02 6.232308e-02 5.278141e-02 4.091630e-02 3.124251e-02 1.940419e-02 9.835926e-03 -1.685070e-03 -1.087917e-02 -2.177442e-02 -3.030081e-02 -4.025465e-02 -4.780724e-02 -5.651242e-02 -6.279129e-02 -6.996897e-02 -7.470447e-02 -8.012724e-02 -8.310728e-02 -8.662288e-02 -8.772017e-02 -8.927280e-02 -8.846799e-02 -8.811379e-02 -8.551056e-02 -8.342407e-02 -7.925264e-02 -7.572201e-02 -7.032924e-02 -6.573929e-02 -5.956520e-02 -5.436941e-02 -4.791252e-02 -4.259669e-02 -3.637207e-02 -3.141391e-02 -2.590937e-02 -2.173923e-02 -1.737546e-02 -1.434311e-02 -1.144269e-02 -9.794224e-03 -8.562928e-03 -8.429832e-03 -8.951259e-03 -1.035163e-02 -1.259389e-02 -1.544361e-02 -1.927500e-02 -2.340553e-02 -2.861535e-02 -3.379436e-02 -4.011494e-02 -4.606654e-02 -5.319366e-02 -5.961592e-02 -6.722573e-02 -7.380450e-02 -8.156636e-02 -8.798521e-02 -9.557073e-02 -1.015179e-01 
-1.184261e-01 -1.242983e-01 -1.313723e-01 -1.360806e-01 -1.419540e-01 -1.452006e-01 -1.495790e-01 -1.510919e-01 -1.537122e-01 -1.532553e-01 -1.538966e-01 -1.512830e-01 -1.497796e-01 -1.448873e-01 -1.411450e-01 -1.339337e-01 -1.279440e-01 -1.184699e-01 -1.103225e-01 -9.874844e-02 -8.863660e-02 -7.523366e-02 -6.345109e-02 -4.859049e-02 -3.551822e-02 -1.965213e-02 -5.736169e-03 1.062994e-02 2.490739e-02 4.124754e-02 5.539929e-02 7.120024e-02 8.476386e-02 9.955486e-02 1.121176e-01 1.254935e-01 1.367107e-01 1.483468e-01 1.579529e-01 1.676119e-01 1.754241e-01 1.829554e-01 1.888714e-01 1.942039e-01 1.981941e-01 2.013251e-01 2.034208e-01 2.044022e-01 2.046820e-01 2.036064e-01 2.021819e-01 1.991694e-01 1.961716e-01 1.913600e-01 1.869289e-01 1.804664e-01 1.747428e-01 1.667847e-01 1.599070e-01 1.506155e-01 1.427197e-01 1.322664e-01 1.234895e-01 1.120597e-01 1.025470e-01 9.034519e-02 8.025783e-02 6.751313e-02 5.703792e-02 4.400829e-02 3.336520e-02 2.033980e-02 9.787054e-03 -2.915079e-03 -1.308068e-02 -2.511652e-02 -3.456569e-02 -4.557973e-02 -5.396435e-02 -6.360605e-02 -7.058060e-02 -7.852751e-02 -8.377724e-02 -8.976207e-02 -9.303551e-02 -9.687459e-02 -9.801630e-02 -9.963563e-02 -9.861458e-02 -9.806925e-02 -9.499762e-02 -9.248071e-02 -8.761885e-02 -8.345682e-02 -7.720207e-02 -7.183548e-02 -6.469459e-02 -5.864530e-02 -5.119331e-02 -4.502141e-02 -3.785183e-02 -3.210769e-02 -2.578068e-02 -2.095824e-02 -1.595361e-02 -1.245129e-02 -9.132647e-03 -7.226583e-03 -5.820439e-03 -5.652759e-03 -6.243782e-03 -7.825509e-03 -1.036615e-02 -1.359198e-02 -1.792247e-02 -2.259304e-02 -2.846688e-02 -3.431380e-02 -4.142407e-02 -4.813374e-02 -5.613667e-02 -6.337031e-02 -7.190425e-02 -7.931297e-02 -8.801202e-02 -9.524709e-02 -1.037502e-01 -1.104695e-01 