# vtk DataFile Version 2.0
Comment goes here
ASCII

DATASET STRUCTURED_POINTS
FIELD FieldData 1
TIME 1 1 double
0.18500000
DIMENSIONS    128   128   1

ORIGIN    0.000   0.000   0.000
SPACING   0.039062 0.039062   1.000

POINT_DATA   16384
SCALARS uY double
LOOKUP_TABLE default

-3.559207e-14 -3.502794e-14 -3.488347e-14 -3.528168e-14 -3.570545e-14 -3.568267e-14 -3.636834e-14 -3.704926e-14 -3.706176e-14 -3.695945e-14 -3.697567e-14 -3.684653e-14 -3.672864e-14 -3.682115e-14 -3.616192e-14 -3.603654e-14 -3.615413e-14 -3.671147e-14 -3.605707e-14 -3.619613e-14 -3.660484e-14 -3.718653e-14 -3.680411e-14 -3.644841e-14 -3.644995e-14 -3.652700e-14 -3.530149e-14 -3.474820e-14 -3.287725e-14 -3.311999e-14 -3.185390e-14 -3.029059e-14 -2.881531e-14 -2.933788e-14 -2.925403e-14 -2.867072e-14 -2.802510e-14 -2.817284e-14 -2.659228e-14 -2.668653e-14 -2.560142e-14 -2.474776e-14 -2.347869e-14 -2.213161e-14 -2.017616e-14 -1.940382e-14 -1.769358e-14 -1.701274e-14 -1.614025e-14 -1.600556e-14 -1.594286e-14 -1.588701e-14 -1.450420e-14 -1.394187e-14 -1.234884e-14 -1.146349e-14 -1.009423e-14 -9.891195e-15 -8.370900e-15 -8.148965e-15 -6.968415e-15 -7.119604e-15 -5.886227e-15 -5.796344e-15 -5.115480e-15 -5.643797e-15 -4.630563e-15 -4.946024e-15 -3.764642e-15 -4.135097e-15 -3.572743e-15 -4.698627e-15 -4.255392e-15 -6.702787e-15 -7.428707e-15 -9.501103e-15 -9.933216e-15 -1.180996e-14 -1.215788e-14 -1.414934e-14 -1.465836e-14 -1.705209e-14 -1.854134e-14 -2.023343e-14 -2.106125e-14 -2.229180e-14 -2.181109e-14 -2.308338e-14 -2.427261e-14 -2.557807e-14 -2.643020e-14 -2.726462e-14 -2.763363e-14 -2.896831e-14 -3.151070e-14 -3.164300e-14 -3.221534e-14 -3.300064e-14 -3.381137e-14 -3.409884e-14 -3.405566e-14 -3.325753e-14 -3.548299e-14 -3.455509e-14 -3.650575e-14 -3.465637e-14 -3.451146e-14 -3.332705e-14 -3.436121e-14 -3.316532e-14 -3.492635e-14 -3.401838e-14 -3.542164e-14 -3.450126e-14 -3.575225e-14 -3.451054e-14 -3.576469e-14 -3.518245e-14 -3.638897e-14 -3.564069e-14 -3.638031e-14 -3.577455e-14 -3.622435e-14 -3.581955e-14 -3.628858e-14 -3.586765e-14 -3.636808e-14 -3.583240e-14 
-5.747247e-03 -6.047948e-03 -6.377762e-03 -6.618499e-03 -6.885637e-03 -7.052969e-03 -7.244153e-03 -7.326690e-03 -7.430964e-03 -7.419845e-03 -7.429013e-03 -7.318358e-03 -7.227387e-03 -7.014693e-03 -6.822042e-03 -6.508487e-03 -6.216324e-03 -5.806926e-03 -5.421199e-03 -4.924793e-03 -4.455110e-03 -3.884112e-03 -3.343420e-03 -2.713361e-03 -2.117429e-03 -1.446289e-03 -8.130095e-04 -1.203896e-04 5.310382e-04 1.224850e-03 1.874797e-03 2.549775e-03 3.179054e-03 3.816333e-03 4.406998e-03 4.989652e-03 5.525670e-03 6.039316e-03 6.507087e-03 6.940290e-03 7.328989e-03 7.673463e-03 7.975208e-03 8.225823e-03 8.435692e-03 8.590322e-03 8.706232e-03 8.765480e-03 8.787980e-03 8.754831e-03 8.686827e-03 8.566274e-03 8.412729e-03 8.211406e-03 7.979052e-03 7.704917e-03 7.401980e-03 7.064059e-03 6.700037e-03 6.308234e-03 5.893713e-03 5.458681e-03 5.005195e-03 4.538256e-03 4.058164e-03 3.571234e-03 3.077610e-03 2.583116e-03 2.089597e-03 1.600337e-03 1.120926e-03 6.498546e-04 1.986261e-04 -2.414671e-04 -6.507693e-04 -1.047685e-03 -1.402165e-03 -1.744828e-03 -2.033063e-03 -2.312127e-03 -2.524871e-03 -2.733354e-03 -2.864258e-03 -2.998147e-03 -3.044423e-03 -3.103177e-03 -3.066122e-03 -3.052995e-03 -2.938286e-03 -2.860416e-03 -2.678109e-03 -2.546324e-03 -2.310497e-03 -2.138821e-03 -1.866885e-03 -1.671768e-03 -1.383450e-03 -1.182768e-03 -8.988763e-04 -7.107924e-04 -4.518548e-04 -2.936306e-04 -7.855252e-05 3.457079e-05 1.897134e-04 2.454696e-04 3.283887e-04 3.181977e-04 3.210320e-04 2.404202e-04 1.600252e-04 8.744993e-06 -1.533543e-04 -3.714821e-04 -6.094266e-04 -8.868970e-04 -1.191046e-03 -1.517216e-03 -1.874836e-03 -2.236563e-03 -2.632581e-03 -3.014895e-03 -3.432646e-03 -3.819411e-03 -4.241351e-03 -4.615886e-03 -5.024240e-03 -5.369898e-03 
-1.149142e-02 -1.209908e-02 -1.276150e-02 -1.324896e-02 -1.378546e-02 -1.412566e-02 -1.450957e-02 -1.467956e-02 -1.488887e-02 -1.487078e-02 -1.488901e-02 -1.467095e-02 -1.448796e-02 -1.406482e-02 -1.367750e-02 -1.305156e-02 -1.246427e-02 -1.164557e-02 -1.087023e-02 -9.876480e-03 -8.932432e-03 -7.788562e-03 -6.701847e-03 -5.439081e-03 -4.241425e-03 -2.895931e-03 -1.623338e-03 -2.345462e-04 1.074351e-03 2.465619e-03 3.771337e-03 5.124793e-03 6.388749e-03 7.666455e-03 8.852575e-03 1.002050e-02 1.109659e-02 1.212584e-02 1.306459e-02 1.393223e-02 1.471192e-02 1.540134e-02 1.600619e-02 1.650714e-02 1.692731e-02 1.723559e-02 1.746693e-02 1.758381e-02 1.762746e-02 1.755900e-02 1.742083e-02 1.717709e-02 1.686707e-02 1.646142e-02 1.599306e-02 1.544148e-02 1.483129e-02 1.415191e-02 1.341893e-02 1.263160e-02 1.179705e-02 1.092313e-02 1.001016e-02 9.072326e-03 8.105715e-03 7.127858e-03 6.133853e-03 5.140885e-03 4.146889e-03 3.164495e-03 2.198665e-03 1.252873e-03 3.435483e-04 -5.399089e-04 -1.365017e-03 -2.161554e-03 -2.876403e-03 -3.563657e-03 -4.145142e-03 -4.704192e-03 -5.133563e-03 -5.550230e-03 -5.814557e-03 -6.080631e-03 -6.174162e-03 -6.288434e-03 -6.213665e-03 -6.182602e-03 -5.950888e-03 -5.788826e-03 -5.420387e-03 -5.149153e-03 -4.672370e-03 -4.320292e-03 -3.770305e-03 -3.370654e-03 -2.787313e-03 -2.376283e-03 -1.801635e-03 -1.416020e-03 -8.915543e-04 -5.663380e-04 -1.302584e-04 1.036659e-04 4.188876e-04 5.366577e-04 7.062216e-04 6.904501e-04 6.985173e-04 5.401421e-04 3.804116e-04 7.893086e-05 -2.454674e-04 -6.823236e-04 -1.159520e-03 -1.716580e-03 -2.327095e-03 -2.982860e-03 -3.701005e-03 -4.428949e-03 -5.224350e-03 -5.994285e-03 -6.833394e-03 -7.612803e-03 -8.460334e-03 -9.215623e-03 -1.003585e-02 -1.073350e-02 
-1.733428e-02 -1.825138e-02 -1.925596e-02 -1.999161e-02 -2.080630e-02 -2.131968e-02 -2.190419e-02 -2.216066e-02 -2.248167e-02 -2.245420e-02 -2.248673e-02 -2.215727e-02 -2.188590e-02 -2.124664e-02 -2.066652e-02 -1.972084e-02 -1.883840e-02 -1.760137e-02 -1.643458e-02 -1.493296e-02 -1.351096e-02 -1.178243e-02 -1.014459e-02 -8.236431e-03 -6.430741e-03 -4.397722e-03 -2.478681e-03 -3.805280e-04 1.593387e-03 3.694854e-03 5.663886e-03 7.707694e-03 9.613485e-03 1.154226e-02 1.333030e-02 1.509266e-02 1.671433e-02 1.826672e-02 1.968087e-02 2.098879e-02 2.216278e-02 2.320135e-02 2.411153e-02 2.486552e-02 2.549722e-02 2.596052e-02 2.630771e-02 2.648248e-02 2.654707e-02 2.644264e-02 2.623366e-02 2.586536e-02 2.539798e-02 2.478604e-02 2.408074e-02 2.324929e-02 2.233097e-02 2.130728e-02 2.020461e-02 1.901853e-02 1.776342e-02 1.644699e-02 1.507416e-02 1.366142e-02 1.220806e-02 1.073484e-02 9.240327e-03 7.744047e-03 6.249491e-03 4.768761e-03 3.316461e-03 1.890460e-03 5.230355e-04 -8.094377e-04 -2.050235e-03 -3.252056e-03 -4.326913e-03 -5.364250e-03 -6.238201e-03 -7.082379e-03 -7.726967e-03 -8.356436e-03 -8.751946e-03 -9.154168e-03 -9.291712e-03 -9.464733e-03 -9.347907e-03 -9.301402e-03 -8.947242e-03 -8.702820e-03 -8.141835e-03 -7.732469e-03 -7.007597e-03 -6.476131e-03 -5.640609e-03 -5.037389e-03 -4.151639e-03 -3.531438e-03 -2.659240e-03 -2.077730e-03 -1.282015e-03 -7.921031e-04 -1.307927e-04 2.208426e-04 6.985612e-04 8.744102e-04 1.131033e-03 1.104935e-03 1.116587e-03 8.750019e-04 6.322973e-04 1.746393e-04 -3.175123e-04 -9.793960e-04 -1.702865e-03 -2.545913e-03 -3.471087e-03 -4.462732e-03 -5.550662e-03 -6.650804e-03 -7.855516e-03 -9.018587e-03 -1.028938e-02 -1.146635e-02 -1.274993e-02 -1.389018e-02 -1.513266e-02 -1.618571e-02 
-2.316844e-02 -2.441395e-02 -2.576918e-02 -2.677116e-02 -2.787082e-02 -2.857417e-02 -2.936400e-02 -2.972186e-02 -3.015695e-02 -3.013267e-02 -3.017925e-02 -2.974823e-02 -2.938537e-02 -2.853679e-02 -2.775782e-02 -2.649592e-02 -2.530938e-02 -2.365426e-02 -2.208428e-02 -2.007184e-02 -1.815770e-02 -1.583874e-02 -1.363358e-02 -1.107189e-02 -8.640568e-03 -5.910143e-03 -3.326325e-03 -5.079112e-04 2.149373e-03 4.972210e-03 7.622236e-03 1.036711e-02 1.293111e-02 1.552057e-02 1.792503e-02 2.028982e-02 2.246931e-02 2.455081e-02 2.645004e-02 2.820196e-02 2.977717e-02 3.116629e-02 3.238587e-02 3.339202e-02 3.423652e-02 3.485182e-02 3.531339e-02 3.554111e-02 3.562257e-02 3.547558e-02 3.518924e-02 3.468840e-02 3.405483e-02 3.322751e-02 3.227425e-02 3.115296e-02 2.991349e-02 2.853483e-02 2.704760e-02 2.545156e-02 2.375931e-02 2.198876e-02 2.013798e-02 1.823842e-02 1.627894e-02 1.429831e-02 1.228289e-02 1.027127e-02 8.255122e-03 6.264317e-03 4.304329e-03 2.387020e-03 5.406706e-04 -1.250818e-03 -2.927065e-03 -4.542499e-03 -5.995298e-03 -7.388724e-03 -8.570445e-03 -9.702736e-03 -1.057442e-02 -1.141598e-02 -1.195040e-02 -1.248379e-02 -1.266838e-02 -1.289048e-02 -1.272962e-02 -1.265319e-02 -1.216958e-02 -1.182366e-02 -1.105844e-02 -1.048767e-02 -9.499003e-03 -8.761597e-03 -7.621803e-03 -6.786325e-03 -5.577617e-03 -4.718777e-03 -3.528003e-03 -2.721798e-03 -1.634669e-03 -9.533464e-04 -4.871451e-05 4.439950e-04 1.099244e-03 1.352172e-03 1.707147e-03 1.684670e-03 1.707115e-03 1.390871e-03 1.068291e-03 4.576073e-04 -2.030473e-04 -1.091922e-03 -2.065784e-03 -3.201391e-03 -4.448097e-03 -5.786138e-03 -7.252792e-03 -8.738854e-03 -1.036319e-02 -1.193556e-02 -1.364906e-02 -1.524145e-02 -1.697223e-02 -1.851631e-02 -2.019174e-02 -2.161941e-02 
-2.920138e-02 -3.078039e-02 -3.250562e-02 -3.377698e-02 -3.517950e-02 -3.607358e-02 -3.708469e-02 -3.754214e-02 -3.810486e-02 -3.807908e-02 -3.815040e-02 -3.760995e-02 -3.716301e-02 -3.609383e-02 -3.511979e-02 -3.352691e-02 -3.203624e-02 -2.994485e-02 -2.796785e-02 -2.542330e-02 -2.300962e-02 -2.007631e-02 -1.729332e-02 -1.405229e-02 -1.098234e-02 -7.527711e-03 -4.264428e-03 -6.989120e-04 2.657253e-03 6.227372e-03 9.573861e-03 1.304390e-02 1.628074e-02 1.955244e-02 2.258648e-02 2.557216e-02 2.832066e-02 3.094635e-02 3.333959e-02 3.554714e-02 3.753014e-02 3.927811e-02 4.081142e-02 4.207494e-02 4.313456e-02 4.390441e-02 4.448100e-02 4.476197e-02 4.485967e-02 4.466861e-02 4.430345e-02 4.366716e-02 4.286547e-02 4.181875e-02 4.061553e-02 3.919947e-02 3.763702e-02 3.589768e-02 3.402440e-02 3.201194e-02 2.988147e-02 2.764958e-02 2.532015e-02 2.292575e-02 2.045974e-02 1.796281e-02 1.542628e-02 1.288960e-02 1.035172e-02 7.840351e-03 5.372552e-03 2.952840e-03 6.274864e-04 -1.634477e-03 -3.746069e-03 -5.786619e-03 -7.616810e-03 -9.377499e-03 -1.086563e-02 -1.229648e-02 -1.339264e-02 -1.445567e-02 -1.512470e-02 -1.579724e-02 -1.602250e-02 -1.630016e-02 -1.608658e-02 -1.598513e-02 -1.536107e-02 -1.491717e-02 -1.393462e-02 -1.320487e-02 -1.193777e-02 -1.099621e-02 -9.536719e-03 -8.470647e-03 -6.923720e-03 -5.828345e-03 -4.304929e-03 -3.277099e-03 -1.886693e-03 -1.018421e-03 1.383104e-04 7.659644e-04 1.603771e-03 1.925874e-03 2.380087e-03 2.351625e-03 2.381498e-03 1.979530e-03 1.569622e-03 7.937493e-04 -4.656787e-05 -1.175254e-03 -2.413841e-03 -3.855019e-03 -5.440149e-03 -7.137349e-03 -9.001543e-03 -1.088565e-02 -1.294974e-02 -1.494258e-02 -1.711967e-02 -1.913744e-02 -2.133657e-02 -2.329299e-02 -2.542235e-02 -2.723153e-02 
-3.522159e-02 -3.716633e-02 -3.927613e-02 -4.084770e-02 -4.256477e-02 -4.367811e-02 -4.491876e-02 -4.550115e-02 -4.619576e-02 -4.618989e-02 -4.628573e-02 -4.565260e-02 -4.511654e-02 -4.383828e-02 -4.265909e-02 -4.074117e-02 -3.893124e-02 -3.640382e-02 -3.399989e-02 -3.091800e-02 -2.798060e-02 -2.442277e-02 -2.103432e-02 -1.709969e-02 -1.336104e-02 -9.164939e-03 -5.190855e-03 -8.592374e-04 3.227168e-03 7.563987e-03 1.163711e-02 1.585089e-02 1.978845e-02 2.375900e-02 2.744729e-02 3.106760e-02 3.440583e-02 3.758594e-02 4.048949e-02 4.315899e-02 4.556138e-02 4.767048e-02 4.952431e-02 5.104358e-02 5.232032e-02 5.323946e-02 5.392848e-02 5.425420e-02 5.436116e-02 5.411476e-02 5.365970e-02 5.287439e-02 5.188966e-02 5.060812e-02 4.913644e-02 4.740874e-02 4.550146e-02 4.338348e-02 4.109919e-02 3.865149e-02 3.605498e-02 3.334225e-02 3.050379e-02 2.759454e-02 2.458940e-02 2.155587e-02 1.846383e-02 1.538177e-02 1.228657e-02 9.234690e-03 6.223086e-03 3.281957e-03 4.421402e-04 -2.307595e-03 -4.888307e-03 -7.368581e-03 -9.606949e-03 -1.174568e-02 -1.356660e-02 -1.530175e-02 -1.664298e-02 -1.792692e-02 -1.874406e-02 -1.954790e-02 -1.981923e-02 -2.013649e-02 -1.986690e-02 -1.971612e-02 -1.893956e-02 -1.836521e-02 -1.714510e-02 -1.621665e-02 -1.464385e-02 -1.345259e-02 -1.164084e-02 -1.029486e-02 -8.373983e-03 -6.991357e-03 -5.098774e-03 -3.799748e-03 -2.071113e-03 -9.699644e-04 4.701080e-04 1.272767e-03 2.318945e-03 2.742656e-03 3.315317e-03 3.304497e-03 3.353837e-03 2.880407e-03 2.388049e-03 1.451925e-03 4.301695e-04 -9.421646e-04 -2.453030e-03 -4.211458e-03 -6.147229e-03 -8.221933e-03 -1.049934e-02 -1.280520e-02 -1.532696e-02 -1.776803e-02 -2.042776e-02 -2.290146e-02 -2.558809e-02 -2.798903e-02 -3.059070e-02 -3.281409e-02 
-4.154354e-02 -4.386191e-02 -4.638583e-02 -4.826252e-02 -5.032154e-02 -5.165566e-02 -5.315036e-02 -5.385538e-02 -5.470279e-02 -5.471015e-02 -5.484708e-02 -5.410973e-02 -5.349606e-02 -5.199192e-02 -5.061348e-02 -4.834825e-02 -4.621903e-02 -4.322793e-02 -4.039106e-02 -3.673922e-02 -3.326647e-02 -2.904735e-02 -2.503686e-02 -2.036883e-02 -1.594102e-02 -1.096204e-02 -6.254052e-03 -1.114869e-03 3.726114e-03 8.869605e-03 1.369355e-02 1.868812e-02 2.334918e-02 2.805156e-02 3.241443e-02 3.669745e-02 4.064256e-02 4.439982e-02 4.782718e-02 5.097592e-02 5.380748e-02 5.628979e-02 5.847035e-02 6.025272e-02 6.174965e-02 6.282133e-02 6.362324e-02 6.399363e-02 6.410839e-02 6.380392e-02 6.325625e-02 6.231715e-02 6.114608e-02 5.962342e-02 5.787994e-02 5.583309e-02 5.357802e-02 5.107279e-02 4.837516e-02 4.548257e-02 4.241841e-02 3.921406e-02 3.586561e-02 3.242952e-02 2.888477e-02 2.530133e-02 2.165358e-02 1.801146e-02 1.435881e-02 1.075049e-02 7.194853e-03 3.715360e-03 3.607840e-04 -2.894314e-03 -5.944314e-03 -8.882033e-03 -1.152821e-02 -1.406223e-02 -1.621445e-02 -1.827001e-02 -1.985293e-02 -2.137220e-02 -2.233146e-02 -2.327880e-02 -2.358691e-02 -2.395350e-02 -2.361489e-02 -2.342194e-02 -2.247607e-02 -2.177616e-02 -2.029823e-02 -1.917414e-02 -1.727274e-02 -1.583380e-02 -1.364548e-02 -1.202140e-02 -9.702398e-03 -8.035032e-03 -5.750931e-03 -4.184789e-03 -2.099040e-03 -7.713600e-04 9.660443e-04 1.934642e-03 3.197222e-03 3.710589e-03 4.403158e-03 4.395276e-03 4.458837e-03 3.896894e-03 3.310436e-03 2.195271e-03 9.746781e-04 -6.611095e-04 -2.466513e-03 -4.562261e-03 -6.874797e-03 -9.346632e-03 -1.206622e-02 -1.481243e-02 -1.782276e-02 -2.072912e-02 -2.390346e-02 -2.684826e-02 -3.005469e-02 -3.291315e-02 -3.601912e-02 -3.866731e-02 
-4.785143e-02 -5.058989e-02 -5.354922e-02 -5.577544e-02 -5.819360e-02 -5.978962e-02 -6.155067e-02 -6.241493e-02 -6.342174e-02 -6.347327e-02 -6.365150e-02 -6.283415e-02 -6.213609e-02 -6.042271e-02 -5.883089e-02 -5.622678e-02 -5.375673e-02 -5.030200e-02 -4.700358e-02 -4.277371e-02 -3.873066e-02 -3.383484e-02 -2.916220e-02 -2.373930e-02 -1.857858e-02 -1.279082e-02 -7.303346e-03 -1.328186e-03 4.312955e-03 1.029205e-02 1.591058e-02 2.171350e-02 2.713838e-02 3.259710e-02 3.767008e-02 4.263595e-02 4.721766e-02 5.156691e-02 5.554132e-02 5.917833e-02 6.245543e-02 6.531404e-02 6.783076e-02 6.987359e-02 7.159330e-02 7.280963e-02 7.372049e-02 7.412300e-02 7.423546e-02 7.385645e-02 7.320028e-02 7.208777e-02 7.070911e-02 6.892320e-02 6.688165e-02 6.449161e-02 6.185781e-02 5.893983e-02 5.579357e-02 5.242943e-02 4.885828e-02 4.513476e-02 4.123329e-02 3.724206e-02 3.311140e-02 2.894923e-02 2.469679e-02 2.046559e-02 1.620461e-02 1.201109e-02 7.859694e-03 3.814138e-03 -1.064352e-04 -3.892462e-03 -7.460850e-03 -1.087804e-02 -1.397707e-02 -1.692316e-02 -1.944555e-02 -2.183121e-02 -2.368640e-02 -2.544168e-02 -2.656333e-02 -2.764418e-02 -2.799745e-02 -2.839144e-02 -2.797928e-02 -2.770975e-02 -2.657695e-02 -2.570481e-02 -2.393910e-02 -2.256172e-02 -2.029116e-02 -1.853805e-02 -1.592460e-02 -1.395011e-02 -1.117971e-02 -9.153081e-03 -6.423076e-03 -4.516978e-03 -2.022239e-03 -4.006672e-04 1.680183e-03 2.873240e-03 4.389988e-03 5.040059e-03 5.880237e-03 5.909154e-03 6.003799e-03 5.373275e-03 4.698870e-03 3.410841e-03 1.987730e-03 8.184821e-05 -2.030188e-03 -4.481223e-03 -7.189294e-03 -1.008573e-02 -1.327112e-02 -1.649269e-02 -2.001823e-02 -2.343052e-02 -2.714753e-02 -3.060786e-02 -3.436215e-02 -3.772469e-02 -4.136178e-02 -4.448197e-02 
-5.456823e-02 -5.773781e-02 -6.117296e-02 -6.375586e-02 -6.657075e-02 -6.843141e-02 -7.049263e-02 -7.151380e-02 -7.270905e-02 -7.279658e-02 -7.303923e-02 -7.212708e-02 -7.136080e-02 -6.941606e-02 -6.761921e-02 -6.464641e-02 -6.183548e-02 -5.787960e-02 -5.411108e-02 -4.925848e-02 -4.462853e-02 -3.900524e-02 -3.364680e-02 -2.741383e-02 -2.149099e-02 -1.483690e-02 -8.537020e-03 -1.668241e-03 4.807610e-03 1.167776e-02 1.812503e-02 2.478749e-02 3.100813e-02 3.726844e-02 4.307976e-02 4.876666e-02 5.400847e-02 5.898017e-02 6.351985e-02 6.766785e-02 7.140330e-02 7.465359e-02 7.751417e-02 7.982628e-02 8.177202e-02 8.313625e-02 8.415570e-02 8.458914e-02 8.469630e-02 8.423818e-02 8.346894e-02 8.217592e-02 8.058444e-02 7.852638e-02 7.618169e-02 7.343815e-02 7.042129e-02 6.707902e-02 6.348087e-02 5.963241e-02 5.555218e-02 5.129528e-02 4.683974e-02 4.227750e-02 3.756064e-02 3.280198e-02 2.794489e-02 2.310489e-02 1.823556e-02 1.343526e-02 8.687768e-03 4.052966e-03 -4.343192e-04 -4.775509e-03 -8.863139e-03 -1.278434e-02 -1.633664e-02 -1.971876e-02 -2.261041e-02 -2.534858e-02 -2.747268e-02 -2.948391e-02 -3.076093e-02 -3.199200e-02 -3.237867e-02 -3.281307e-02 -3.231010e-02 -3.197321e-02 -3.063049e-02 -2.959188e-02 -2.751012e-02 -2.588246e-02 -2.321034e-02 -2.114443e-02 -1.807113e-02 -1.574724e-02 -1.249067e-02 -1.010684e-02 -6.898649e-03 -4.656986e-03 -1.725922e-03 1.817653e-04 2.626330e-03 4.032004e-03 5.814564e-03 6.585200e-03 7.575153e-03 7.620657e-03 7.738952e-03 7.016199e-03 6.237347e-03 4.750308e-03 3.100153e-03 8.966323e-04 -1.553225e-03 -4.387373e-03 -7.527344e-03 -1.087548e-02 -1.456674e-02 -1.828920e-02 -2.237245e-02 -2.631400e-02 -3.061743e-02 -3.461399e-02 -3.896023e-02 -4.284460e-02 -4.705642e-02 -5.066313e-02 
-6.127366e-02 -6.493631e-02 -6.887614e-02 -7.187495e-02 -7.511010e-02 -7.729032e-02 -7.966883e-02 -8.089594e-02 -8.228928e-02 -8.245437e-02 -8.276262e-02 -8.178826e-02 -8.094561e-02 -7.879183e-02 -7.677184e-02 -7.344147e-02 -7.026140e-02 -6.580392e-02 -6.152723e-02 -5.604021e-02 -5.077646e-02 -4.440378e-02 -3.830544e-02 -3.123204e-02 -2.448792e-02 -1.693105e-02 -9.757062e-03 -1.954846e-03 5.417326e-03 1.321887e-02 2.055387e-02 2.811406e-02 3.518458e-02 4.228022e-02 4.887731e-02 5.531269e-02 6.125400e-02 6.686815e-02 7.200360e-02 7.667446e-02 8.088950e-02 8.453516e-02 8.775155e-02 9.032883e-02 9.250351e-02 9.400447e-02 9.512685e-02 9.557392e-02 9.566212e-02 9.510252e-02 9.419911e-02 9.269923e-02 9.086696e-02 8.850733e-02 8.582514e-02 8.269641e-02 7.925616e-02 7.545624e-02 7.136026e-02 6.699278e-02 6.235227e-02 5.752618e-02 5.246045e-02 4.729041e-02 4.192677e-02 3.653399e-02 3.100788e-02 2.552085e-02 1.997595e-02 1.453054e-02 9.118154e-03 3.856637e-03 -1.266025e-03 -6.197627e-03 -1.087084e-02 -1.532719e-02 -1.939415e-02 -2.323698e-02 -2.655141e-02 -2.965759e-02 -3.209316e-02 -3.436393e-02 -3.582500e-02 -3.719541e-02 -3.762782e-02 -3.807533e-02 -3.747596e-02 -3.702692e-02 -3.545032e-02 -3.418316e-02 -3.174396e-02 -2.978825e-02 -2.665814e-02 -2.418894e-02 -2.058800e-02 -1.781579e-02 -1.399861e-02 -1.115537e-02 -7.393131e-03 -4.715996e-03 -1.276552e-03 1.009405e-03 3.881258e-03 5.579161e-03 7.678973e-03 8.633555e-03 9.810249e-03 9.917180e-03 1.008069e-02 9.291135e-03 8.414385e-03 6.734817e-03 4.850615e-03 2.338521e-03 -4.675276e-04 -3.710867e-03 -7.309905e-03 -1.114829e-02 -1.537876e-02 -1.965037e-02 -2.432833e-02 -2.885446e-02 -3.378284e-02 -3.837559e-02 -4.335195e-02 -4.782061e-02 -5.264346e-02 -5.679977e-02 
-6.850065e-02 -7.267092e-02 -7.716753e-02 -8.059217e-02 -8.429629e-02 -8.680072e-02 -8.954070e-02 -9.097218e-02 -9.260185e-02 -9.283560e-02 -9.324022e-02 -9.218622e-02 -9.128893e-02 -8.889909e-02 -8.666731e-02 -8.294199e-02 -7.939284e-02 -7.438583e-02 -6.958946e-02 -6.341012e-02 -5.749002e-02 -5.030156e-02 -4.343105e-02 -3.544458e-02 -2.783934e-02 -1.930369e-02 -1.121082e-02 -2.399068e-03 5.916222e-03 1.472215e-02 2.299084e-02 3.151575e-02 3.947872e-02 4.746837e-02 5.488843e-02 6.212114e-02 6.879239e-02 7.508725e-02 8.084149e-02 8.606296e-02 9.077312e-02 9.483207e-02 9.841283e-02 1.012646e-01 1.036708e-01 1.053106e-01 1.065337e-01 1.069911e-01 1.070548e-01 1.063864e-01 1.053414e-01 1.036246e-01 1.015436e-01 9.887045e-02 9.584334e-02 9.231619e-02 8.844648e-02 8.417449e-02 7.957640e-02 7.467417e-02 6.947095e-02 6.405825e-02 5.838151e-02 5.258412e-02 4.657395e-02 4.052497e-02 3.433051e-02 2.817160e-02 2.195152e-02 1.583345e-02 9.755771e-03 3.837591e-03 -1.921827e-03 -7.475464e-03 -1.273638e-02 -1.776015e-02 -2.234388e-02 -2.667905e-02 -3.041706e-02 -3.392088e-02 -3.666577e-02 -3.922231e-02 -4.086048e-02 -4.239192e-02 -4.285660e-02 -4.333362e-02 -4.261658e-02 -4.206631e-02 -4.022625e-02 -3.873643e-02 -3.590236e-02 -3.362046e-02 -2.998864e-02 -2.711557e-02 -2.293954e-02 -1.971787e-02 -1.529218e-02 -1.198985e-02 -7.628878e-03 -4.519922e-03 -5.341883e-04 2.121508e-03 5.448748e-03 7.424489e-03 9.857663e-03 1.097563e-02 1.234206e-02 1.248405e-02 1.268261e-02 1.179507e-02 1.079802e-02 8.891321e-03 6.740058e-03 3.882986e-03 6.791438e-04 -3.009986e-03 -7.116149e-03 -1.148018e-02 -1.630236e-02 -2.115620e-02 -2.648409e-02 -3.162483e-02 -3.723467e-02 -4.245011e-02 -4.811330e-02 -5.318897e-02 -5.867885e-02 -6.340351e-02 
-7.572437e-02 -8.048133e-02 -8.557223e-02 -8.949833e-02 -9.370232e-02 -9.660126e-02 -9.972570e-02 -1.014246e-01 -1.033043e-01 -1.036604e-01 -1.041644e-01 -1.030730e-01 -1.021122e-01 -9.951519e-02 -9.704972e-02 -9.294366e-02 -8.899006e-02 -8.343232e-02 -7.806775e-02 -7.117971e-02 -6.454279e-02 -5.650834e-02 -4.879543e-02 -3.985428e-02 -3.131084e-02 -2.174668e-02 -1.265448e-02 -2.779133e-03 6.559452e-03 1.642421e-02 2.570303e-02 3.524382e-02 4.416898e-02 5.309740e-02 6.140108e-02 6.946712e-02 7.691823e-02 8.391955e-02 9.033079e-02 9.611766e-02 1.013491e-01 1.058252e-01 1.097846e-01 1.129045e-01 1.155449e-01 1.173083e-01 1.186242e-01 1.190687e-01 1.190902e-01 1.182836e-01 1.170702e-01 1.151024e-01 1.127374e-01 1.097133e-01 1.062985e-01 1.023330e-01 9.798373e-02 9.319804e-02 8.804092e-02 8.256097e-02 7.673158e-02 7.068812e-02 6.433068e-02 5.786053e-02 5.112835e-02 4.437644e-02 3.743296e-02 3.055421e-02 2.357408e-02 1.673457e-02 9.903984e-03 3.280515e-03 -3.203935e-03 -9.426430e-03 -1.536125e-02 -2.099503e-02 -2.617624e-02 -3.103897e-02 -3.527180e-02 -3.919738e-02 -4.230906e-02 -4.516042e-02 -4.701520e-02 -4.869789e-02 -4.921275e-02 -4.968762e-02 -4.884670e-02 -4.813988e-02 -4.600513e-02 -4.421356e-02 -4.092943e-02 -3.822046e-02 -3.401092e-02 -3.061527e-02 -2.577244e-02 -2.197061e-02 -1.683559e-02 -1.293867e-02 -7.876406e-03 -4.203200e-03 4.257267e-04 3.572900e-03 7.440219e-03 9.798189e-03 1.263218e-02 1.399556e-02 1.559888e-02 1.583262e-02 1.609212e-02 1.513705e-02 1.402521e-02 1.189662e-02 9.465782e-03 6.246237e-03 2.617385e-03 -1.554387e-03 -6.205878e-03 -1.114795e-02 -1.660737e-02 -2.210761e-02 -2.813499e-02 -3.396274e-02 -4.030486e-02 -4.622062e-02 -5.262047e-02 -5.838340e-02 -6.458740e-02 -6.996105e-02 
-8.358892e-02 -8.895105e-02 -9.470099e-02 -9.914191e-02 -1.039068e-01 -1.072077e-01 -1.107725e-01 -1.127391e-01 -1.149179e-01 -1.153879e-01 -1.160312e-01 -1.148835e-01 -1.138877e-01 -1.110525e-01 -1.083686e-01 -1.038370e-01 -9.947941e-02 -9.331199e-02 -8.736423e-02 -7.969496e-02 -7.231135e-02 -6.334662e-02 -5.474834e-02 -4.475952e-02 -3.522475e-02 -2.453443e-02 -1.438334e-02 -3.346610e-03 7.077180e-03 1.809420e-02 2.844345e-02 3.908520e-02 4.902777e-02 5.896863e-02 6.820343e-02 7.716308e-02 8.543211e-02 9.318592e-02 1.002820e-01 1.066664e-01 1.124368e-01 1.173494e-01 1.216958e-01 1.250921e-01 1.279674e-01 1.298537e-01 1.312570e-01 1.316818e-01 1.316514e-01 1.306954e-01 1.293020e-01 1.270692e-01 1.244085e-01 1.210180e-01 1.172048e-01 1.127846e-01 1.079476e-01 1.026311e-01 9.690957e-02 9.083358e-02 8.437553e-02 7.768110e-02 7.064289e-02 6.347715e-02 5.602444e-02 4.854342e-02 4.085288e-02 3.322430e-02 2.548543e-02 1.789058e-02 1.030684e-02 2.940668e-03 -4.271103e-03 -1.120250e-02 -1.781537e-02 -2.410047e-02 -2.988419e-02 -3.531524e-02 -4.004708e-02 -4.443260e-02 -4.791200e-02 -5.109183e-02 -5.315809e-02 -5.501943e-02 -5.557057e-02 -5.606329e-02 -5.507372e-02 -5.422257e-02 -5.175645e-02 -4.966811e-02 -4.588578e-02 -4.274890e-02 -3.790407e-02 -3.398139e-02 -2.840830e-02 -2.402097e-02 -1.811195e-02 -1.361711e-02 -7.792915e-03 -3.556837e-03 1.766807e-03 5.397148e-03 9.842656e-03 1.256622e-02 1.582272e-02 1.740613e-02 1.925021e-02 1.954219e-02 1.984881e-02 1.878607e-02 1.752951e-02 1.513435e-02 1.238040e-02 8.751516e-03 4.643504e-03 -5.768608e-05 -5.316259e-03 -1.088115e-02 -1.704446e-02 -2.323250e-02 -3.002870e-02 -3.658066e-02 -4.372541e-02 -5.037408e-02 -5.758079e-02 -6.405888e-02 -7.104616e-02 -7.709205e-02 
-9.146532e-02 -9.753067e-02 -1.039870e-01 -1.090367e-01 -1.144020e-01 -1.181925e-01 -1.222280e-01 -1.245413e-01 -1.270383e-01 -1.276900e-01 -1.284790e-01 -1.273287e-01 -1.262893e-01 -1.232527e-01 -1.203252e-01 -1.153861e-01 -1.105818e-01 -1.038024e-01 -9.721129e-02 -8.873837e-02 -8.053189e-02 -7.059598e-02 -6.102298e-02 -4.993037e-02 -3.930579e-02 -2.742248e-02 -1.610968e-02 -3.839325e-03 7.771867e-03 2.001336e-02 3.152995e-02 4.333989e-02 5.438759e-02 6.539901e-02 7.564048e-02 8.553978e-02 9.468816e-02 1.032267e-01 1.110539e-01 1.180533e-01 1.243937e-01 1.297462e-01 1.344956e-01 1.381587e-01 1.412708e-01 1.432591e-01 1.447387e-01 1.451132e-01 1.450084e-01 1.438651e-01 1.422584e-01 1.397175e-01 1.367182e-01 1.329146e-01 1.286513e-01 1.237276e-01 1.183426e-01 1.124450e-01 1.060908e-01 9.936743e-02 9.220469e-02 8.480683e-02 7.700417e-02 6.908889e-02 6.082459e-02 5.255858e-02 4.402301e-02 3.558648e-02 2.698490e-02 1.857450e-02 1.012914e-02 1.958818e-03 -6.090912e-03 -1.379203e-02 -2.119244e-02 -2.818606e-02 -3.467631e-02 -4.072515e-02 -4.604924e-02 -5.093141e-02 -5.485511e-02 -5.838171e-02 -6.071340e-02 -6.274776e-02 -6.336119e-02 -6.383754e-02 -6.269342e-02 -6.163214e-02 -5.879511e-02 -5.631199e-02 -5.195931e-02 -4.826652e-02 -4.268576e-02 -3.808328e-02 -3.165770e-02 -2.651523e-02 -1.969757e-02 -1.442824e-02 -7.705454e-03 -2.733908e-03 3.412756e-03 7.684242e-03 1.281877e-02 1.604211e-02 1.980767e-02 2.171478e-02 2.385796e-02 2.427760e-02 2.466064e-02 2.352472e-02 2.212551e-02 1.946534e-02 1.636695e-02 1.230127e-02 7.674329e-03 2.392292e-03 -3.526262e-03 -9.784016e-03 -1.671225e-02 -2.367162e-02 -3.130153e-02 -3.867027e-02 -4.668299e-02 -5.416247e-02 -6.223928e-02 -6.953278e-02 -7.736265e-02 -8.418096e-02 
-1.001092e-01 -1.069006e-01 -1.141418e-01 -1.198178e-01 -1.258584e-01 -1.301500e-01 -1.347255e-01 -1.373894e-01 -1.402665e-01 -1.410939e-01 -1.420797e-01 -1.409082e-01 -1.398627e-01 -1.365908e-01 -1.334404e-01 -1.280421e-01 -1.227925e-01 -1.153307e-01 -1.080772e-01 -9.871160e-02 -8.964325e-02 -7.863091e-02 -6.802660e-02 -5.571283e-02 -4.392830e-02 -3.072815e-02 -1.817520e-02 -4.547243e-03 8.332340e-03 2.191617e-02 3.467817e-02 4.776258e-02 5.998592e-02 7.215855e-02 8.346624e-02 9.437770e-02 1.044519e-01 1.138286e-01 1.224196e-01 1.300694e-01 1.369987e-01 1.428099e-01 1.479693e-01 1.519042e-01 1.552501e-01 1.573347e-01 1.588801e-01 1.591916e-01 1.589967e-01 1.576492e-01 1.558117e-01 1.529437e-01 1.495886e-01 1.453523e-01 1.406241e-01 1.351774e-01 1.292335e-01 1.227352e-01 1.157420e-01 1.083509e-01 1.004814e-01 9.235793e-02 8.379235e-02 7.510212e-02 6.603004e-02 5.694922e-02 4.757300e-02 3.829347e-02 2.883232e-02 1.956577e-02 1.025914e-02 1.238887e-03 -7.652186e-03 -1.617288e-02 -2.436799e-02 -3.212222e-02 -3.932875e-02 -4.604726e-02 -5.197360e-02 -5.740122e-02 -6.177598e-02 -6.569216e-02 -6.828868e-02 -7.053034e-02 -7.119385e-02 -7.167779e-02 -7.035190e-02 -6.909346e-02 -6.584134e-02 -6.296607e-02 -5.798215e-02 -5.372769e-02 -4.733601e-02 -4.204269e-02 -3.468048e-02 -2.877042e-02 -2.095746e-02 -1.490390e-02 -7.200836e-03 -1.490723e-03 5.548407e-03 1.045434e-02 1.632901e-02 2.003363e-02 2.433694e-02 2.653693e-02 2.898373e-02 2.948886e-02 2.992931e-02 2.866899e-02 2.708716e-02 2.410484e-02 2.060498e-02 1.604291e-02 1.082732e-02 4.905589e-03 -1.751103e-03 -8.757262e-03 -1.653341e-02 -2.431466e-02 -3.286339e-02 -4.109362e-02 -5.005970e-02 -5.840872e-02 -6.744020e-02 -7.558218e-02 -8.433771e-02 -9.195625e-02 
-1.087889e-01 -1.164252e-01 -1.245099e-01 -1.309264e-01 -1.376919e-01 -1.425920e-01 -1.477468e-01 -1.508591e-01 -1.541428e-01 -1.552306e-01 -1.564247e-01 -1.552999e-01 -1.542416e-01 -1.507816e-01 -1.473806e-01 -1.415463e-01 -1.358011e-01 -1.276535e-01 -1.196643e-01 -1.093760e-01 -9.935101e-02 -8.720739e-02 -7.545929e-02 -6.184918e-02 -4.878004e-02 -3.417383e-02 -2.025054e-02 -5.169132e-03 9.107718e-03 2.412885e-02 3.825757e-02 5.270385e-02 6.621150e-02 7.961982e-02 9.208610e-02 1.040676e-01 1.151416e-01 1.253958e-01 1.348050e-01 1.431254e-01 1.506790e-01 1.569508e-01 1.625371e-01 1.667292e-01 1.703086e-01 1.724611e-01 1.740569e-01 1.742654e-01 1.739518e-01 1.723518e-01 1.702427e-01 1.669939e-01 1.632314e-01 1.585055e-01 1.532510e-01 1.472226e-01 1.406492e-01 1.334910e-01 1.257789e-01 1.176606e-01 1.089955e-01 1.000859e-01 9.065953e-02 8.113228e-02 7.114533e-02 6.118495e-02 5.085193e-02 4.066098e-02 3.021566e-02 2.002044e-02 9.720850e-03 -2.254228e-04 -1.009416e-02 -1.951224e-02 -2.863915e-02 -3.722996e-02 -4.528534e-02 -5.274236e-02 -5.939206e-02 -6.542000e-02 -7.034752e-02 -7.468632e-02 -7.762145e-02 -8.007360e-02 -8.082521e-02 -8.128299e-02 -7.977144e-02 -7.824022e-02 -7.452412e-02 -7.113754e-02 -6.542922e-02 -6.045280e-02 -5.311798e-02 -4.693906e-02 -3.847833e-02 -3.158216e-02 -2.259510e-02 -1.552876e-02 -6.664290e-03 7.799181e-06 8.108216e-03 1.385198e-02 2.061061e-02 2.496721e-02 2.991781e-02 3.253969e-02 3.536054e-02 3.603397e-02 3.656273e-02 3.521455e-02 3.344494e-02 3.013441e-02 2.619795e-02 2.109705e-02 1.523520e-02 8.602399e-03 1.134981e-03 -6.712361e-03 -1.541724e-02 -2.412778e-02 -3.367894e-02 -4.288708e-02 -5.288893e-02 -6.222863e-02 -7.229330e-02 -8.140641e-02 -9.116053e-02 -9.970110e-02 