# vtk DataFile Version 2.0
Comment goes here
ASCII

DATASET STRUCTURED_POINTS
FIELD FieldData 1
TIME 1 1 double
0.12000000
DIMENSIONS    128   128   1

ORIGIN    0.000   0.000   0.000
SPACING   0.039062 0.039062   1.000

POINT_DATA   16384
SCALARS uY double
LOOKUP_TABLE default

-1.601984e-15 1.711000e-15 2.249383e-15 5.836643e-15 5.659577e-15 9.211581e-15 1.008314e-14 1.428821e-14 1.522463e-14 1.984768e-14 2.068437e-14 2.569051e-14 2.592827e-14 3.068649e-14 3.070574e-14 3.532366e-14 3.508936e-14 3.941487e-14 3.855877e-14 4.219203e-14 4.031094e-14 4.420284e-14 4.283914e-14 4.780641e-14 4.642101e-14 5.202221e-14 5.108186e-14 5.647801e-14 5.535086e-14 6.139025e-14 6.004327e-14 6.623015e-14 6.630548e-14 7.280867e-14 7.214614e-14 7.858289e-14 7.768863e-14 8.339527e-14 8.175730e-14 8.833597e-14 8.790775e-14 9.470182e-14 9.600021e-14 1.029477e-13 1.026907e-13 1.118508e-13 1.096163e-13 1.142194e-13 1.149820e-13 1.193179e-13 1.173513e-13 1.229272e-13 1.234975e-13 1.271238e-13 1.275083e-13 1.290801e-13 1.292579e-13 1.316637e-13 1.316727e-13 1.325273e-13 1.332783e-13 1.326907e-13 1.310153e-13 1.295083e-13 1.287262e-13 1.254507e-13 1.245735e-13 1.208889e-13 1.206914e-13 1.151249e-13 1.136451e-13 1.075004e-13 1.066091e-13 1.001041e-13 9.835173e-14 9.257968e-14 9.322279e-14 8.647118e-14 8.737954e-14 8.058641e-14 8.065079e-14 7.280180e-14 7.269380e-14 6.429105e-14 6.308320e-14 5.603278e-14 5.737064e-14 5.033816e-14 5.210440e-14 4.552678e-14 4.716006e-14 4.032997e-14 4.240923e-14 3.735179e-14 3.829723e-14 3.105278e-14 3.253484e-14 2.529664e-14 2.755001e-14 2.184237e-14 1.852910e-14 1.464839e-14 1.483441e-14 9.132752e-15 1.115668e-14 7.462000e-15 6.429890e-15 3.502283e-15 2.866035e-15 -3.595289e-16 -4.715485e-17 -4.030249e-15 -2.000776e-15 -5.573712e-15 -7.302899e-15 -6.649424e-15 -8.815240e-15 -9.181361e-15 -9.090896e-15 -9.134492e-15 -1.016266e-14 -9.595505e-15 -1.014022e-14 -8.772761e-15 -7.474142e-15 -6.235713e-15 -5.186974e-15 -2.229802e-15 
-4.598099e-02 -4.633137e-02 -4.645470e-02 -4.657050e-02 -4.646342e-02 -4.636226e-02 -4.604384e-02 -4.574315e-02 -4.523202e-02 -4.474839e-02 -4.406218e-02 -4.341092e-02 -4.256596e-02 -4.176100e-02 -4.077229e-02 -3.982617e-02 -3.870747e-02 -3.763154e-02 -3.639557e-02 -3.520024e-02 -3.385887e-02 -3.255385e-02 -3.111831e-02 -2.971286e-02 -2.819391e-02 -2.669701e-02 -2.510501e-02 -2.352551e-02 -2.187048e-02 -2.021716e-02 -1.850877e-02 -1.679041e-02 -1.503806e-02 -1.326348e-02 -1.147625e-02 -9.654355e-03 -7.841129e-03 -5.980986e-03 -4.150516e-03 -2.261445e-03 -4.224901e-04 1.485832e-03 3.324368e-03 5.241801e-03 7.070729e-03 8.986567e-03 1.079629e-02 1.269919e-02 1.447962e-02 1.635755e-02 1.809806e-02 1.993830e-02 2.162771e-02 2.341687e-02 2.504348e-02 2.676760e-02 2.831925e-02 2.996383e-02 3.142798e-02 3.297812e-02 3.434189e-02 3.578236e-02 3.703262e-02 3.834797e-02 3.947135e-02 4.064596e-02 4.162890e-02 4.264707e-02 4.347577e-02 4.432180e-02 4.498226e-02 4.564051e-02 4.611851e-02 4.657352e-02 4.685465e-02 4.709129e-02 4.716109e-02 4.716482e-02 4.700899e-02 4.676612e-02 4.637089e-02 4.586914e-02 4.522185e-02 4.445091e-02 4.354079e-02 4.249315e-02 4.131233e-02 3.998423e-02 3.852893e-02 3.692148e-02 3.519336e-02 3.331367e-02 3.132109e-02 2.918331e-02 2.694253e-02 2.456869e-02 2.210464e-02 1.952504e-02 1.687157e-02 1.412469e-02 1.132415e-02 8.455790e-03 5.557865e-03 2.619710e-03 -3.205052e-04 -3.273011e-03 -6.197505e-03 -9.107687e-03 -1.195839e-02 -1.477109e-02 -1.749280e-02 -2.015703e-02 -2.270010e-02 -2.517134e-02 -2.749380e-02 -2.973573e-02 -3.180481e-02 -3.379029e-02 -3.558305e-02 -3.729441e-02 -3.879765e-02 -4.022621e-02 -4.143572e-02 -4.258090e-02 -4.350017e-02 -4.436804e-02 -4.500678e-02 -4.560854e-02 
-9.193350e-02 -9.262556e-02 -9.286764e-02 -9.309175e-02 -9.287418e-02 -9.266557e-02 -9.202651e-02 -9.141996e-02 -9.039660e-02 -8.942515e-02 -8.805258e-02 -8.674673e-02 -8.505745e-02 -8.344486e-02 -8.146868e-02 -7.957427e-02 -7.733852e-02 -7.518486e-02 -7.271480e-02 -7.032258e-02 -6.764183e-02 -6.503040e-02 -6.216136e-02 -5.934921e-02 -5.631335e-02 -5.331846e-02 -5.013652e-02 -4.697661e-02 -4.366869e-02 -4.036138e-02 -3.694692e-02 -3.350983e-02 -3.000767e-02 -2.645848e-02 -2.288686e-02 -1.924340e-02 -1.562011e-02 -1.190051e-02 -8.243029e-03 -4.465893e-03 -7.916748e-04 3.023705e-03 6.696983e-03 1.053040e-02 1.418453e-02 1.801466e-02 2.163065e-02 2.543488e-02 2.899276e-02 3.274709e-02 3.622580e-02 3.990484e-02 4.328217e-02 4.685916e-02 5.011183e-02 5.355880e-02 5.666255e-02 5.995044e-02 6.288014e-02 6.597905e-02 6.870886e-02 7.158820e-02 7.409168e-02 7.672037e-02 7.897058e-02 8.131722e-02 8.328676e-02 8.531978e-02 8.698081e-02 8.866865e-02 8.999289e-02 9.130414e-02 9.226288e-02 9.316655e-02 9.373080e-02 9.419663e-02 9.433731e-02 9.433622e-02 9.402464e-02 9.352943e-02 9.273803e-02 9.172429e-02 9.042779e-02 8.887515e-02 8.705208e-02 8.494579e-02 8.258053e-02 7.991341e-02 7.699854e-02 7.377313e-02 7.031211e-02 6.654293e-02 6.255269e-02 5.826835e-02 5.378158e-02 4.902642e-02 4.409320e-02 3.892810e-02 3.361639e-02 2.811850e-02 2.251327e-02 1.677439e-02 1.097530e-02 5.098926e-03 -7.835688e-04 -6.686484e-03 -1.253613e-02 -1.835225e-02 -2.405276e-02 -2.967186e-02 -3.511276e-02 -4.043307e-02 -4.551511e-02 -5.044788e-02 -5.508732e-02 -5.956026e-02 -6.369182e-02 -6.765106e-02 -7.122920e-02 -7.463983e-02 -7.763854e-02 -8.048366e-02 -8.289492e-02 -8.517370e-02 -8.700488e-02 -8.872979e-02 -9.000063e-02 -9.119430e-02 
-1.384435e-01 -1.394778e-01 -1.398291e-01 -1.401589e-01 -1.398185e-01 -1.394976e-01 -1.385237e-01 -1.376051e-01 -1.360541e-01 -1.345878e-01 -1.325129e-01 -1.305452e-01 -1.279953e-01 -1.255679e-01 -1.225880e-01 -1.197383e-01 -1.163695e-01 -1.131313e-01 -1.094115e-01 -1.058158e-01 -1.017805e-01 -9.785614e-02 -9.353879e-02 -8.931345e-02 -8.474625e-02 -8.024671e-02 -7.546070e-02 -7.071341e-02 -6.573861e-02 -6.076987e-02 -5.563534e-02 -5.047144e-02 -4.520528e-02 -3.987261e-02 -3.450204e-02 -2.902727e-02 -2.357882e-02 -1.798905e-02 -1.248886e-02 -6.811958e-03 -1.286166e-03 4.448960e-03 9.973778e-03 1.573680e-02 2.123320e-02 2.699207e-02 3.243135e-02 3.815208e-02 4.350402e-02 4.915052e-02 5.438323e-02 5.991730e-02 6.499722e-02 7.037867e-02 7.527065e-02 8.045747e-02 8.512497e-02 9.007359e-02 9.447889e-02 9.914451e-02 1.032489e-01 1.075858e-01 1.113499e-01 1.153116e-01 1.186953e-01 1.222348e-01 1.251974e-01 1.282676e-01 1.307677e-01 1.333214e-01 1.353171e-01 1.373073e-01 1.387557e-01 1.401358e-01 1.409937e-01 1.417182e-01 1.419419e-01 1.419667e-01 1.415130e-01 1.407967e-01 1.396237e-01 1.381287e-01 1.361976e-01 1.338923e-01 1.311698e-01 1.280306e-01 1.244919e-01 1.205065e-01 1.161389e-01 1.113094e-01 1.061167e-01 1.004634e-01 9.446944e-02 8.803408e-02 8.128680e-02 7.413495e-02 6.670892e-02 5.893168e-02 5.092888e-02 4.264243e-02 3.419112e-02 2.553437e-02 1.678550e-02 7.915587e-03 -9.630695e-04 -9.877261e-03 -1.870881e-02 -2.749452e-02 -3.610182e-02 -4.459091e-02 -5.280570e-02 -6.084291e-02 -6.851403e-02 -7.596410e-02 -8.296424e-02 -8.971717e-02 -9.594734e-02 -1.019215e-01 -1.073129e-01 -1.124556e-01 -1.169696e-01 -1.212559e-01 -1.248808e-01 -1.283103e-01 -1.310584e-01 -1.336508e-01 -1.355528e-01 -1.373433e-01 
-1.848658e-01 -1.862163e-01 -1.866629e-01 -1.870759e-01 -1.866026e-01 -1.861505e-01 -1.848353e-01 -1.835891e-01 -1.815073e-01 -1.795339e-01 -1.767562e-01 -1.741169e-01 -1.707085e-01 -1.674584e-01 -1.634787e-01 -1.596673e-01 -1.551706e-01 -1.508426e-01 -1.458788e-01 -1.410750e-01 -1.356912e-01 -1.304498e-01 -1.246903e-01 -1.190480e-01 -1.129555e-01 -1.069480e-01 -1.005641e-01 -9.422664e-02 -8.759133e-02 -8.095911e-02 -7.411134e-02 -6.721948e-02 -6.019687e-02 -5.308064e-02 -4.591959e-02 -3.861452e-02 -3.135041e-02 -2.389257e-02 -1.656013e-02 -8.986534e-03 -1.620370e-03 6.030633e-03 1.339544e-02 2.108364e-02 2.841092e-02 3.609382e-02 4.334579e-02 5.097826e-02 5.811509e-02 6.564917e-02 7.262876e-02 8.001357e-02 8.679150e-02 9.397343e-02 1.005030e-01 1.074260e-01 1.136585e-01 1.202642e-01 1.261494e-01 1.323778e-01 1.378638e-01 1.436535e-01 1.486874e-01 1.539761e-01 1.585040e-01 1.632288e-01 1.671957e-01 1.712933e-01 1.746437e-01 1.780507e-01 1.807279e-01 1.833814e-01 1.853279e-01 1.871655e-01 1.883231e-01 1.892838e-01 1.895939e-01 1.896189e-01 1.890233e-01 1.880573e-01 1.864998e-01 1.844926e-01 1.819211e-01 1.788305e-01 1.752000e-01 1.709946e-01 1.662714e-01 1.609346e-01 1.551014e-01 1.486360e-01 1.416970e-01 1.341300e-01 1.261168e-01 1.175038e-01 1.084801e-01 9.890894e-02 8.897451e-02 7.856718e-02 6.785874e-02 5.677117e-02 4.546106e-02 3.387983e-02 2.217119e-02 1.030748e-02 -1.573762e-03 -1.349293e-02 -2.530851e-02 -3.705097e-02 -4.856243e-02 -5.990243e-02 -7.088348e-02 -8.161286e-02 -9.186063e-02 -1.017985e-01 -1.111426e-01 -1.201424e-01 -1.284510e-01 -1.364044e-01 -1.435867e-01 -1.504248e-01 -1.564303e-01 -1.621214e-01 -1.669364e-01 -1.714815e-01 -1.751241e-01 -1.785513e-01 -1.810643e-01 -1.834220e-01 
-2.324112e-01 -2.340778e-01 -2.345997e-01 -2.350897e-01 -2.344579e-01 -2.338642e-01 -2.321784e-01 -2.305916e-01 -2.279477e-01 -2.254527e-01 -2.219399e-01 -2.186140e-01 -2.143144e-01 -2.102270e-01 -2.052148e-01 -2.004277e-01 -1.947709e-01 -1.893395e-01 -1.831005e-01 -1.770755e-01 -1.703127e-01 -1.637415e-01 -1.565101e-01 -1.494381e-01 -1.417916e-01 -1.342630e-01 -1.262530e-01 -1.183116e-01 -1.099880e-01 -1.016775e-01 -9.308872e-02 -8.445287e-02 -7.564564e-02 -6.672822e-02 -5.774772e-02 -4.859293e-02 -3.948306e-02 -3.013577e-02 -2.093966e-02 -1.144594e-02 -2.206671e-03 7.385642e-03 1.662426e-02 2.626496e-02 3.545758e-02 4.509353e-02 5.419261e-02 6.376729e-02 7.272263e-02 8.217590e-02 9.093437e-02 1.002025e-01 1.087080e-01 1.177237e-01 1.259176e-01 1.346106e-01 1.424316e-01 1.507290e-01 1.581140e-01 1.659408e-01 1.728253e-01 1.801050e-01 1.864230e-01 1.930778e-01 1.987626e-01 2.047141e-01 2.096977e-01 2.148672e-01 2.190808e-01 2.233892e-01 2.267627e-01 2.301314e-01 2.325936e-01 2.349445e-01 2.364227e-01 2.376791e-01 2.380999e-01 2.381873e-01 2.374776e-01 2.363254e-01 2.344132e-01 2.319568e-01 2.287752e-01 2.249590e-01 2.204488e-01 2.152304e-01 2.093464e-01 2.027014e-01 1.954179e-01 1.873462e-01 1.786647e-01 1.691963e-01 1.591528e-01 1.483542e-01 1.370258e-01 1.250049e-01 1.125149e-01 9.942381e-02 8.594338e-02 7.197846e-02 5.772539e-02 4.312314e-02 2.835550e-02 1.338496e-02 -1.609029e-03 -1.665767e-02 -3.157338e-02 -4.640277e-02 -6.093493e-02 -7.525569e-02 -8.911463e-02 -1.026601e-01 -1.155866e-01 -1.281255e-01 -1.399022e-01 -1.512478e-01 -1.617078e-01 -1.717232e-01 -1.807521e-01 -1.893512e-01 -1.968871e-01 -2.040316e-01 -2.100599e-01 -2.157539e-01 -2.203000e-01 -2.245817e-01 -2.277027e-01 -2.306362e-01 
-2.798029e-01 -2.817418e-01 -2.823157e-01 -2.828452e-01 -2.820381e-01 -2.812716e-01 -2.792047e-01 -2.772520e-01 -2.740410e-01 -2.710043e-01 -2.667565e-01 -2.627284e-01 -2.575416e-01 -2.526044e-01 -2.465670e-01 -2.407940e-01 -2.339862e-01 -2.274430e-01 -2.199388e-01 -2.126851e-01 -2.045537e-01 -1.966458e-01 -1.879530e-01 -1.794449e-01 -1.702545e-01 -1.611991e-01 -1.515730e-01 -1.420229e-01 -1.320212e-01 -1.220290e-01 -1.117102e-01 -1.013283e-01 -9.074885e-02 -8.003001e-02 -6.924409e-02 -5.824128e-02 -4.730154e-02 -3.606841e-02 -2.502631e-02 -1.361781e-02 -2.524528e-03 9.002381e-03 2.009497e-02 3.168052e-02 4.271881e-02 5.429967e-02 6.522749e-02 7.673622e-02 8.749411e-02 9.885878e-02 1.093837e-01 1.205279e-01 1.307530e-01 1.415959e-01 1.514510e-01 1.619081e-01 1.713199e-01 1.813032e-01 1.901956e-01 1.996148e-01 2.079099e-01 2.166722e-01 2.242904e-01 2.323021e-01 2.391623e-01 2.463286e-01 2.523486e-01 2.585741e-01 2.636704e-01 2.688597e-01 2.729474e-01 2.770054e-01 2.799980e-01 2.828305e-01 2.846401e-01 2.861545e-01 2.866921e-01 2.867985e-01 2.859751e-01 2.845883e-01 2.823168e-01 2.793586e-01 2.755568e-01 2.709597e-01 2.655553e-01 2.592672e-01 2.522035e-01 2.441942e-01 2.354382e-01 2.257059e-01 2.152573e-01 2.038369e-01 1.917368e-01 1.787072e-01 1.650470e-01 1.505378e-01 1.354653e-01 1.196599e-01 1.033823e-01 8.651850e-02 6.930036e-02 5.166563e-02 3.382146e-02 1.574342e-02 -2.374812e-03 -2.054240e-02 -3.856235e-02 -5.645692e-02 -7.400560e-02 -9.127468e-02 -1.079987e-01 -1.243181e-01 -1.399019e-01 -1.549915e-01 -1.691721e-01 -1.828070e-01 -1.953834e-01 -2.074000e-01 -2.182368e-01 -2.285343e-01 -2.375599e-01 -2.460959e-01 -2.532968e-01 -2.600801e-01 -2.654914e-01 -2.705723e-01 -2.742667e-01 -2.777262e-01 
-3.288990e-01 -3.311075e-01 -3.317008e-01 -3.322578e-01 -3.312350e-01 -3.302779e-01 -3.277844e-01 -3.254445e-01 -3.216181e-01 -3.180170e-01 -3.129845e-01 -3.082312e-01 -3.021073e-01 -2.962981e-01 -2.891859e-01 -2.824059e-01 -2.743987e-01 -2.667234e-01 -2.579069e-01 -2.494053e-01 -2.398595e-01 -2.305961e-01 -2.203975e-01 -2.104345e-01 -1.996572e-01 -1.890557e-01 -1.777716e-01 -1.665925e-01 -1.548716e-01 -1.431758e-01 -1.310860e-01 -1.189343e-01 -1.065408e-01 -9.399439e-02 -8.136000e-02 -6.848024e-02 -5.566571e-02 -4.251476e-02 -2.957953e-02 -1.622108e-02 -3.224391e-03 1.027542e-02 2.327328e-02 3.684491e-02 4.978137e-02 6.335099e-02 7.616015e-02 8.964895e-02 1.022608e-01 1.155847e-01 1.279249e-01 1.409942e-01 1.529841e-01 1.657043e-01 1.772611e-01 1.895331e-01 2.005706e-01 2.122917e-01 2.227210e-01 2.337855e-01 2.435158e-01 2.538159e-01 2.627547e-01 2.721810e-01 2.802346e-01 2.886769e-01 2.957504e-01 3.030980e-01 3.090951e-01 3.152370e-01 3.200597e-01 3.248850e-01 3.284334e-01 3.318318e-01 3.340038e-01 3.358665e-01 3.365579e-01 3.367785e-01 3.358843e-01 3.343608e-01 3.317768e-01 3.284144e-01 3.240411e-01 3.187564e-01 3.125040e-01 3.052305e-01 2.970267e-01 2.877224e-01 2.775214e-01 2.661772e-01 2.539710e-01 2.406208e-01 2.264506e-01 2.111808e-01 1.951481e-01 1.781059e-01 1.603804e-01 1.417793e-01 1.226034e-01 1.027235e-01 8.241056e-02 6.159379e-02 4.051916e-02 1.915781e-02 -2.256165e-03 -2.373663e-02 -4.504173e-02 -6.620418e-02 -8.695081e-02 -1.073699e-01 -1.271322e-01 -1.464174e-01 -1.648161e-01 -1.826306e-01 -1.993512e-01 -2.154264e-01 -2.302301e-01 -2.443729e-01 -2.571013e-01 -2.691948e-01 -2.797674e-01 -2.897661e-01 -2.981722e-01 -3.060922e-01 -3.123794e-01 -3.182863e-01 -3.225469e-01 -3.265423e-01 
-3.777635e-01 -3.801797e-01 -3.807592e-01 -3.812916e-01 -3.800295e-01 -3.788387e-01 -3.759043e-01 -3.731430e-01 -3.686954e-01 -3.645029e-01 -3.586872e-01 -3.531879e-01 -3.461342e-01 -3.394367e-01 -3.312612e-01 -3.234611e-01 -3.142684e-01 -3.054501e-01 -2.953362e-01 -2.855767e-01 -2.746317e-01 -2.640034e-01 -2.523137e-01 -2.408868e-01 -2.285365e-01 -2.163807e-01 -2.034521e-01 -1.906368e-01 -1.772105e-01 -1.638056e-01 -1.499595e-01 -1.360349e-01 -1.218441e-01 -1.074696e-01 -9.300616e-02 -7.825188e-02 -6.358492e-02 -4.852147e-02 -3.371839e-02 -1.841792e-02 -3.545484e-03 1.191723e-02 2.679133e-02 4.233766e-02 5.714328e-02 7.268964e-02 8.735284e-02 1.028098e-01 1.172518e-01 1.325235e-01 1.466605e-01 1.616447e-01 1.753873e-01 1.899758e-01 2.032296e-01 2.173087e-01 2.299753e-01 2.434268e-01 2.554043e-01 2.681066e-01 2.792903e-01 2.911191e-01 3.014025e-01 3.122319e-01 3.215067e-01 3.312097e-01 3.393663e-01 3.478151e-01 3.547422e-01 3.618089e-01 3.673935e-01 3.729504e-01 3.770769e-01 3.809970e-01 3.835475e-01 3.857054e-01 3.865595e-01 3.868327e-01 3.858685e-01 3.841392e-01 3.812356e-01 3.773938e-01 3.724342e-01 3.663824e-01 3.592606e-01 3.509202e-01 3.415488e-01 3.308685e-01 3.191902e-01 3.061560e-01 2.921564e-01 2.768036e-01 2.605250e-01 2.429496e-01 2.245048e-01 2.048740e-01 1.844562e-01 1.630150e-01 1.409037e-01 1.179763e-01 9.453548e-02 7.051969e-02 4.618801e-02 2.154191e-02 -3.185641e-03 -2.796420e-02 -5.256148e-02 -7.696068e-02 -1.008999e-01 -1.244223e-01 -1.472046e-01 -1.693944e-01 -1.905771e-01 -2.110434e-01 -2.302616e-01 -2.486949e-01 -2.656745e-01 -2.818554e-01 -2.964180e-01 -3.102172e-01 -3.222765e-01 -3.336485e-01 -3.432001e-01 -3.521713e-01 -3.592784e-01 -3.659321e-01 -3.707087e-01 -3.751691e-01 
-4.289375e-01 -4.315521e-01 -4.320695e-01 -4.325564e-01 -4.309971e-01 -4.295448e-01 -4.261058e-01 -4.228915e-01 -4.177558e-01 -4.129396e-01 -4.062727e-01 -3.999954e-01 -3.919442e-01 -3.843282e-01 -3.750228e-01 -3.661741e-01 -3.557310e-01 -3.457429e-01 -3.342687e-01 -3.232260e-01 -3.108208e-01 -2.988031e-01 -2.855633e-01 -2.726483e-01 -2.586681e-01 -2.449329e-01 -2.303047e-01 -2.158270e-01 -2.006411e-01 -1.854989e-01 -1.698427e-01 -1.541142e-01 -1.380715e-01 -1.218347e-01 -1.054855e-01 -8.881854e-02 -7.223977e-02 -5.522135e-02 -3.848759e-02 -2.119815e-02 -4.383569e-03 1.309342e-02 2.991327e-02 4.748981e-02 6.423616e-02 8.181838e-02 9.840767e-02 1.158948e-01 1.322377e-01 1.495216e-01 1.655223e-01 1.824874e-01 1.980443e-01 2.145679e-01 2.295736e-01 2.455273e-01 2.598700e-01 2.751203e-01 2.886848e-01 3.030946e-01 3.157630e-01 3.291926e-01 3.408458e-01 3.531538e-01 3.636711e-01 3.747150e-01 3.839746e-01 3.936113e-01 4.014898e-01 4.095760e-01 4.159479e-01 4.223400e-01 4.270769e-01 4.316318e-01 4.346016e-01 4.371770e-01 4.382441e-01 4.386998e-01 4.377252e-01 4.359251e-01 4.327688e-01 4.285838e-01 4.231084e-01 4.164216e-01 4.084992e-01 3.992128e-01 3.887347e-01 3.767799e-01 3.636693e-01 3.490187e-01 3.332464e-01 3.159280e-01 2.975296e-01 2.776414e-01 2.567342e-01 2.344575e-01 2.112539e-01 1.868626e-01 1.616779e-01 1.355412e-01 1.087928e-01 8.136924e-02 5.356521e-02 2.538762e-02 -2.894559e-03 -3.124399e-02 -5.938805e-02 -8.730889e-02 -1.146957e-01 -1.416040e-01 -1.676488e-01 -1.930103e-01 -2.171959e-01 -2.405547e-01 -2.624574e-01 -2.834555e-01 -3.027611e-01 -3.211482e-01 -3.376564e-01 -3.532901e-01 -3.669098e-01 -3.797465e-01 -3.904827e-01 -4.005631e-01 -4.084991e-01 -4.159296e-01 -4.212069e-01 -4.261396e-01 
-4.797838e-01 -4.825167e-01 -4.829285e-01 -4.833031e-01 -4.814165e-01 -4.796487e-01 -4.756878e-01 -4.719781e-01 -4.661489e-01 -4.606765e-01 -4.531627e-01 -4.460832e-01 -4.370464e-01 -4.284934e-01 -4.180753e-01 -4.081633e-01 -3.964899e-01 -3.853194e-01 -3.725059e-01 -3.601680e-01 -3.463232e-01 -3.329042e-01 -3.181335e-01 -3.037184e-01 -2.881258e-01 -2.727999e-01 -2.564885e-01 -2.403382e-01 -2.234092e-01 -2.065217e-01 -1.890732e-01 -1.715359e-01 -1.536618e-01 -1.355616e-01 -1.173512e-01 -9.877470e-02 -8.031299e-02 -6.134693e-02 -4.271591e-02 -2.344853e-02 -4.729044e-03 1.474827e-02 3.347423e-02 5.306512e-02 7.171216e-02 9.131361e-02 1.097910e-01 1.292920e-01 1.475023e-01 1.667833e-01 1.846216e-01 2.035541e-01 2.209082e-01 2.393558e-01 2.561068e-01 2.739258e-01 2.899492e-01 3.069902e-01 3.221572e-01 3.382666e-01 3.524455e-01 3.674665e-01 3.805232e-01 3.942973e-01 4.060963e-01 4.184637e-01 4.288680e-01 4.396681e-01 4.485392e-01 4.576110e-01 4.648079e-01 4.719907e-01 4.773691e-01 4.825023e-01 4.859140e-01 4.888381e-01 4.901305e-01 4.906881e-01 4.897043e-01 4.877422e-01 4.843233e-01 4.796951e-01 4.736838e-01 4.662559e-01 4.575038e-01 4.471624e-01 4.355405e-01 4.222029e-01 4.076165e-01 3.912452e-01 3.736519e-01 3.542706e-01 3.337008e-01 3.114124e-01 2.879895e-01 2.629921e-01 2.369494e-01 2.095482e-01 1.812391e-01 1.518504e-01 1.217482e-01 9.089341e-02 5.957917e-02 2.786722e-02 -3.995806e-03 -3.589716e-02 -6.759943e-02 -9.900081e-02 -1.298295e-01 -1.600610e-01 -1.893442e-01 -2.177953e-01 -2.449418e-01 -2.710944e-01 -2.956238e-01 -3.190754e-01 -3.406364e-01 -3.611108e-01 -3.794855e-01 -3.968319e-01 -4.119292e-01 -4.261107e-01 -4.379498e-01 -4.490254e-01 -4.577141e-01 -4.658165e-01 -4.715269e-01 -4.768388e-01 
-5.335749e-01 -5.364050e-01 -5.366429e-01 -5.368711e-01 -5.345782e-01 -5.324536e-01 -5.278860e-01 -5.236368e-01 -5.170266e-01 -5.108541e-01 -5.024059e-01 -4.944825e-01 -4.843737e-01 -4.748450e-01 -4.632298e-01 -4.522192e-01 -4.392336e-01 -4.268480e-01 -4.126161e-01 -3.989524e-01 -3.835916e-01 -3.687420e-01 -3.523669e-01 -3.364226e-01 -3.191471e-01 -3.022007e-01 -2.841381e-01 -2.662838e-01 -2.475454e-01 -2.288787e-01 -2.095722e-01 -1.901888e-01 -1.704167e-01 -1.504113e-01 -1.302705e-01 -1.097374e-01 -8.931958e-02 -6.835312e-02 -4.774645e-02 -2.644235e-02 -5.734079e-03 1.580829e-02 3.652916e-02 5.820466e-02 7.884465e-02 1.005404e-01 1.209993e-01 1.425931e-01 1.627626e-01 1.841223e-01 2.038853e-01 2.248686e-01 2.440996e-01 2.645552e-01 2.831215e-01 3.028901e-01 3.206531e-01 3.395695e-01 3.563865e-01 3.742811e-01 3.900070e-01 4.067073e-01 4.211953e-01 4.365273e-01 4.496300e-01 4.634185e-01 4.749876e-01 4.870568e-01 4.969423e-01 5.071163e-01 5.151659e-01 5.232680e-01 5.293253e-01 5.351788e-01 5.390823e-01 5.425106e-01 5.440922e-01 5.449192e-01 5.440043e-01 5.420566e-01 5.384651e-01 5.335743e-01 5.271247e-01 5.191333e-01 5.096496e-01 4.984188e-01 4.857430e-01 4.711652e-01 4.551738e-01 4.371889e-01 4.178144e-01 3.964298e-01 3.736857e-01 3.489978e-01 3.230035e-01 2.952184e-01 2.662212e-01 2.356706e-01 2.040596e-01 1.712074e-01 1.375152e-01 1.029523e-01 6.784132e-02 3.226529e-02 -3.501380e-03 -3.932021e-02 -7.492226e-02 -1.101856e-01 -1.447974e-01 -1.787289e-01 -2.115731e-01 -2.434671e-01 -2.738629e-01 -3.031241e-01 -3.305232e-01 -3.566944e-01 -3.807020e-01 -4.034760e-01 -4.238550e-01 -4.430722e-01 -4.597338e-01 -4.753678e-01 -4.883505e-01 -5.004850e-01 -5.099284e-01 -5.187299e-01 -5.248446e-01 -5.305350e-01 
-5.869171e-01 -5.897455e-01 -5.897550e-01 -5.897558e-01 -5.870204e-01 -5.844750e-01 -5.792817e-01 -5.744444e-01 -5.670498e-01 -5.601414e-01 -5.507681e-01 -5.419749e-01 -5.308134e-01 -5.202901e-01 -5.075033e-01 -4.953791e-01 -4.811098e-01 -4.674960e-01 -4.518743e-01 -4.368716e-01 -4.200215e-01 -4.037270e-01 -3.857712e-01 -3.682826e-01 -3.493447e-01 -3.307624e-01 -3.109670e-01 -2.913945e-01 -2.708646e-01 -2.504072e-01 -2.292622e-01 -2.080253e-01 -1.863783e-01 -1.644659e-01 -1.424233e-01 -1.199378e-01 -9.759911e-02 -7.464203e-02 -5.210195e-02 -2.877605e-02 -6.127240e-03 1.746127e-02 4.012476e-02 6.386345e-02 8.644288e-02 1.102106e-01 1.325998e-01 1.562647e-01 1.783481e-01 2.017668e-01 2.234186e-01 2.464359e-01 2.675203e-01 2.899705e-01 3.103429e-01 3.320510e-01 3.515597e-01 3.723437e-01 3.908319e-01 4.105049e-01 4.278126e-01 4.461844e-01 4.621497e-01 4.790282e-01 4.934882e-01 5.086804e-01 5.214712e-01 5.347833e-01 5.457394e-01 5.569773e-01 5.659308e-01 5.748999e-01 5.816785e-01 5.881841e-01 5.926098e-01 5.964574e-01 5.983447e-01 5.993402e-01 5.984957e-01 5.964468e-01 5.926696e-01 5.873888e-01 5.804741e-01 5.717835e-01 5.615298e-01 5.492698e-01 5.354919e-01 5.195347e-01 5.020823e-01 4.823498e-01 4.611322e-01 4.376194e-01 4.126347e-01 3.854352e-01 3.568006e-01 3.261318e-01 2.941105e-01 2.603333e-01 2.253527e-01 1.889814e-01 1.516368e-01 1.133342e-01 7.437404e-02 3.492860e-02 -4.779427e-03 -4.449295e-02 -8.401298e-02 -1.230865e-01 -1.614764e-01 -1.990278e-01 -2.354030e-01 -2.706336e-01 -3.042239e-01 -3.364655e-01 -3.666574e-01 -3.954035e-01 -4.217635e-01 -4.466824e-01 -4.689603e-01 -4.898906e-01 -5.080065e-01 -5.249384e-01 -5.389571e-01 -5.520045e-01 -5.621025e-01 -5.714705e-01 -5.779019e-01 -5.838540e-01 
-6.438754e-01 -6.466625e-01 -6.463492e-01 -6.460696e-01 -6.427870e-01 -6.397617e-01 -6.338333e-01 -6.283480e-01 -6.200587e-01 -6.123574e-01 -6.019504e-01 -5.922351e-01 -5.799148e-01 -5.683499e-01 -5.542889e-01 -5.410093e-01 -5.253572e-01 -5.104772e-01 -4.933703e-01 -4.769936e-01 -4.585625e-01 -4.407897e-01 -4.211655e-01 -4.020993e-01 -3.814155e-01 -3.611634e-01 -3.395552e-01 -3.182288e-01 -2.958303e-01 -2.735435e-01 -2.504841e-01 -2.273507e-01 -2.037522e-01 -1.798840e-01 -1.558596e-01 -1.313662e-01 -1.070207e-01 -8.201022e-02 -5.744311e-02 -3.202474e-02 -7.333467e-03 1.837971e-02 4.309538e-02 6.898304e-02 9.361713e-02 1.195488e-01 1.439859e-01 1.698187e-01 1.939321e-01 2.195097e-01 2.431604e-01 2.683133e-01 2.913512e-01 3.158976e-01 3.381629e-01 3.619114e-01 3.832371e-01 4.059890e-01 4.262035e-01 4.477552e-01 4.666847e-01 4.868298e-01 5.043000e-01 5.228309e-01 5.386674e-01 5.553760e-01 5.694043e-01 5.840822e-01 5.961271e-01 6.085653e-01 6.184489e-01 6.284378e-01 6.359771e-01 6.433060e-01 6.483111e-01 6.527680e-01 6.550388e-01 6.564106e-01 6.557353e-01 6.538081e-01 6.499629e-01 6.445239e-01 6.372756e-01 6.281182e-01 6.172311e-01 6.041633e-01 5.894132e-01 5.722722e-01 5.534672e-01 5.321404e-01 5.091502e-01 4.836028e-01 4.563932e-01 4.266994e-01 3.953703e-01 3.617453e-01 3.265651e-01 2.893913e-01 2.508211e-01 2.106629e-01 1.693641e-01 1.269644e-01 8.378328e-02 4.003852e-02 -4.032996e-03 -4.811955e-02 -9.200516e-02 -1.353873e-01 -1.780011e-01 -2.196620e-01 -2.599862e-01 -2.990080e-01 -3.361619e-01 -3.717830e-01 -4.050730e-01 -4.367246e-01 -4.656707e-01 -4.929912e-01 -5.173296e-01 -5.401569e-01 -5.598214e-01 -5.781690e-01 -5.932588e-01 -6.072805e-01 -6.180203e-01 -6.279711e-01 -6.346690e-01 -6.408659e-01 
-7.002287e-01 -7.028564e-01 -7.021548e-01 -7.015002e-01 -6.976288e-01 -6.940513e-01 -6.873690e-01 -6.811831e-01 -6.720004e-01 -6.634697e-01 -6.520465e-01 -6.413848e-01 -6.279354e-01 -6.153126e-01 -6.000144e-01 -5.855668e-01 -5.685716e-01 -5.524136e-01 -5.338596e-01 -5.160953e-01 -4.961172e-01 -4.768496e-01 -4.555851e-01 -4.349223e-01 -4.125149e-01 -3.905727e-01 -3.671700e-01 -3.440701e-01 -3.198199e-01 -2.956874e-01 -2.707324e-01 -2.456918e-01 -2.201657e-01 -1.943385e-01 -1.683641e-01 -1.418676e-01 -1.155570e-01 -8.850603e-02 -6.196384e-02 -3.447296e-02 -7.800384e-03 2.001208e-02 4.671219e-02 7.472020e-02 1.013385e-01 1.294046e-01 1.558214e-01 1.837938e-01 2.098762e-01 2.375878e-01 2.631888e-01 2.904567e-01 3.154159e-01 3.420434e-01 3.661886e-01 3.919675e-01 4.151180e-01 4.398317e-01 4.618008e-01 4.852273e-01 5.058254e-01 5.277398e-01 5.467765e-01 5.669524e-01 5.842372e-01 6.024478e-01 6.177904e-01 6.338086e-01 6.470179e-01 6.606162e-01 6.714985e-01 6.824487e-01 6.908055e-01 6.988783e-01 7.045032e-01 7.094683e-01 7.121440e-01 7.137693e-01 7.132648e-01 7.113166e-01 7.073858e-01 7.016301e-01 6.940131e-01 6.842191e-01 6.726488e-01 6.585979e-01 6.428140e-01 6.243147e-01 6.040866e-01 5.809978e-01 5.561575e-01 5.284195e-01 4.989024e-01 4.665746e-01 4.324647e-01 3.957635e-01 3.573360e-01 3.166686e-01 2.744211e-01 2.304049e-01 1.850692e-01 1.385305e-01 9.105660e-02 4.300306e-02 -5.485825e-03 -5.391958e-02 -1.021995e-01 -1.498273e-01 -1.966628e-01 -2.423332e-01 -2.865701e-01 -3.292489e-01 -3.698961e-01 -4.087335e-01 -4.450212e-01 -4.793937e-01 -5.108024e-01 -5.403274e-01 -5.665880e-01 -5.911122e-01 -6.121817e-01 -6.317502e-01 -6.477714e-01 -6.625855e-01 -6.738387e-01 -6.842086e-01 -6.910623e-01 -6.973622e-01 
-7.609092e-01 -7.633100e-01 -7.620924e-01 -7.609836e-01 -7.563875e-01 -7.521756e-01 -7.446017e-01 -7.376361e-01 -7.274245e-01 -7.179923e-01 -7.054220e-01 -6.937502e-01 -6.790458e-01 -6.653100e-01 -6.486536e-01 -6.329904e-01 -6.145358e-01 -5.970578e-01 -5.769450e-01 -5.577548e-01 -5.361225e-01 -5.153237e-01 -4.923169e-01 -4.700216e-01 -4.457941e-01 -4.221249e-01 -3.968368e-01 -3.719245e-01 -3.457363e-01 -3.197157e-01 -2.927814e-01 -2.657861e-01 -2.382481e-01 -2.104075e-01 -1.823943e-01 -1.538320e-01 -1.254593e-01 -9.629540e-02 -6.766997e-02 -3.802390e-02 -9.249436e-03 2.075523e-02 4.957213e-02 7.980283e-02 1.085468e-01 1.388576e-01 1.673999e-01 1.976283e-01 2.258244e-01 2.557898e-01 2.834784e-01 3.129824e-01 3.399867e-01 3.688153e-01 3.949462e-01 4.228732e-01 4.479328e-01 4.747234e-01 4.985090e-01 5.239236e-01 5.462312e-01 5.700283e-01 5.906548e-01 6.125926e-01 6.313369e-01 6.511741e-01 6.678369e-01 6.853323e-01 6.997145e-01 7.146266e-01 7.265269e-01 7.386132e-01 7.478247e-01 7.568409e-01 7.631474e-01 7.688462e-01 7.720176e-01 7.741481e-01 7.739360e-01 7.722417e-01 7.683759e-01 7.625953e-01 7.547837e-01 7.446521e-01 7.325856e-01 7.178432e-01 7.012103e-01 6.816182e-01 6.601298e-01 6.354959e-01 6.089234e-01 5.791390e-01 5.473635e-01 5.124488e-01 4.755162e-01 4.356689e-01 3.938440e-01 3.494829e-01 3.032918e-01 2.550848e-01 2.053327e-01 1.541999e-01 1.019566e-01 4.904000e-02 -4.412793e-03 -5.781330e-02 -1.110683e-01 -1.635863e-01 -2.152196e-01 -2.655278e-01 -3.142124e-01 -3.611241e-01 -4.057291e-01 -4.482789e-01 -4.879392e-01 -5.254330e-01 -5.595813e-01 -5.916103e-01 -6.199738e-01 -6.463977e-01 -6.689656e-01 -6.898727e-01 -7.068447e-01 -7.224987e-01 -7.342264e-01 -7.450094e-01 -7.519371e-01 -7.582962e-01 
-8.207820e-01 -8.228186e-01 -8.210075e-01 -8.193381e-01 -8.139715e-01 -8.090473e-01 -8.005655e-01 -7.927672e-01 -7.815362e-01 -7.711694e-01 -7.574821e-01 -7.447817e-01 -7.288672e-01 -7.140085e-01 -6.960469e-01 -6.791615e-01 -6.593022e-01 -6.404961e-01 -6.188752e-01 -5.982462e-01 -5.750024e-01 -5.526534e-01 -5.279369e-01 -5.039845e-01 -4.779598e-01 -4.525358e-01 -4.253781e-01 -3.986258e-01 -3.705124e-01 -3.425802e-01 -3.136814e-01 -2.847157e-01 -2.551876e-01 -2.253280e-01 -1.953092e-01 -1.646870e-01 -1.342996e-01 -1.030398e-01 -7.239383e-02 -4.061929e-02 -9.819588e-03 2.234332e-02 5.318987e-02 8.560512e-02 1.163825e-01 1.488990e-01 1.794765e-01 2.119241e-01 2.421526e-01 2.743399e-01 3.040506e-01 3.357658e-01 3.647716e-01 3.957844e-01 4.238830e-01 4.539489e-01 4.809274e-01 5.097923e-01 5.354316e-01 5.628362e-01 5.869151e-01 6.125980e-01 6.348963e-01 6.585962e-01 6.788960e-01 7.003520e-01 7.184375e-01 7.373893e-01 7.530454e-01 7.692323e-01 7.822420e-01 7.954023e-01 8.055436e-01 8.154140e-01 8.224552e-01 8.287698e-01 8.324646e-01 8.349533e-01 8.350348e-01 8.334211e-01 8.295963e-01 8.235959e-01 8.155433e-01 8.048643e-01 7.922374e-01 7.765867e-01 7.590269e-01 7.381264e-01 7.152902e-01 6.889043e-01 6.605053e-01 6.284829e-01 5.943488e-01 5.566761e-01 5.168154e-01 4.736750e-01 4.283431e-01 3.801686e-01 3.299221e-01 2.774351e-01 2.231578e-01 1.673758e-01 1.102649e-01 5.246894e-02 -6.024840e-03 -6.436495e-02 -1.226400e-01 -1.799741e-01 -2.364089e-01 -2.912329e-01 -3.443223e-01 -3.952996e-01 -4.437731e-01 -4.898301e-01 -5.327324e-01 -5.731145e-01 -6.098406e-01 -6.441252e-01 -6.744112e-01 -7.024838e-01 -7.263639e-01 -7.483675e-01 -7.661109e-01 -7.823810e-01 -7.944207e-01 -8.054183e-01 -8.122819e-01 -8.185314e-01 