# vtk DataFile Version 2.0
Comment goes here
ASCII

DATASET STRUCTURED_POINTS
FIELD FieldData 1
TIME 1 1 double
0.14500000
DIMENSIONS    128   128   1

ORIGIN    0.000   0.000   0.000
SPACING   0.039062 0.039062   1.000

POINT_DATA   16384
SCALARS uY double
LOOKUP_TABLE default

2.841862e-14 3.006035e-14 2.940522e-14 3.127797e-14 3.074265e-14 3.269570e-14 3.235409e-14 3.477963e-14 3.452235e-14 3.701202e-14 3.680347e-14 3.891045e-14 3.789430e-14 4.042730e-14 4.018375e-14 4.304100e-14 4.232744e-14 4.499723e-14 4.328827e-14 4.549707e-14 4.324081e-14 4.468628e-14 4.308883e-14 4.567978e-14 4.439455e-14 4.759229e-14 4.604174e-14 4.966994e-14 4.754496e-14 5.226515e-14 5.062015e-14 5.344971e-14 5.208670e-14 5.501798e-14 5.345067e-14 5.615770e-14 5.444233e-14 5.751614e-14 5.525744e-14 5.870887e-14 5.924211e-14 6.268372e-14 6.320130e-14 6.654227e-14 6.681681e-14 7.061570e-14 7.201974e-14 7.182032e-14 7.270649e-14 7.583062e-14 7.590529e-14 7.790106e-14 7.998812e-14 7.996013e-14 8.092089e-14 7.946178e-14 8.516216e-14 8.470873e-14 8.983644e-14 8.754225e-14 9.209386e-14 8.782780e-14 9.335152e-14 8.860926e-14 9.429594e-14 8.860549e-14 9.481308e-14 8.967845e-14 9.580787e-14 8.979058e-14 9.550624e-14 8.834285e-14 9.362547e-14 8.633450e-14 9.251627e-14 8.516234e-14 9.150273e-14 8.386741e-14 8.971513e-14 8.197341e-14 8.751145e-14 8.045131e-14 8.652504e-14 7.890703e-14 8.495219e-14 7.902625e-14 8.440138e-14 7.817754e-14 8.320136e-14 7.745097e-14 8.315897e-14 7.928940e-14 8.238247e-14 7.743787e-14 7.994261e-14 7.645465e-14 7.796710e-14 7.371537e-14 7.503826e-14 7.153734e-14 7.085597e-14 6.640346e-14 6.624356e-14 6.526305e-14 6.651289e-14 6.279735e-14 6.219915e-14 5.991396e-14 5.820472e-14 5.627566e-14 5.431796e-14 5.286224e-14 4.961092e-14 4.761001e-14 4.498694e-14 4.346690e-14 3.984837e-14 3.785591e-14 3.506943e-14 3.416511e-14 3.155364e-14 3.133718e-14 2.960643e-14 3.008769e-14 2.856110e-14 2.928284e-14 2.793536e-14 2.915460e-14 
-1.704793e-02 -1.769028e-02 -1.813124e-02 -1.868301e-02 -1.901057e-02 -1.946489e-02 -1.967417e-02 -2.002547e-02 -2.011262e-02 -2.035668e-02 -2.031890e-02 -2.045287e-02 -2.028857e-02 -2.031106e-02 -2.002005e-02 -1.993136e-02 -1.951504e-02 -1.931728e-02 -1.877889e-02 -1.847610e-02 -1.782087e-02 -1.741906e-02 -1.665427e-02 -1.616136e-02 -1.529629e-02 -1.472189e-02 -1.376765e-02 -1.312276e-02 -1.209206e-02 -1.138862e-02 -1.029542e-02 -9.545838e-03 -8.404999e-03 -7.621669e-03 -6.448577e-03 -5.643371e-03 -4.453600e-03 -3.637481e-03 -2.446499e-03 -1.629220e-03 -4.521383e-04 3.579241e-04 1.506551e-03 2.302428e-03 3.408765e-03 4.184792e-03 5.235867e-03 5.987471e-03 6.971305e-03 7.694719e-03 8.600457e-03 9.292402e-03 1.011046e-02 1.076785e-02 1.149006e-02 1.210975e-02 1.272956e-02 1.330822e-02 1.382080e-02 1.435489e-02 1.475731e-02 1.524318e-02 1.553455e-02 1.596860e-02 1.615013e-02 1.652914e-02 1.660412e-02 1.692555e-02 1.689929e-02 1.716158e-02 1.704119e-02 1.724398e-02 1.703812e-02 1.718233e-02 1.690074e-02 1.698856e-02 1.664155e-02 1.667615e-02 1.627395e-02 1.625912e-02 1.581127e-02 1.575085e-02 1.526545e-02 1.516272e-02 1.464593e-02 1.450298e-02 1.395856e-02 1.377581e-02 1.320489e-02 1.298079e-02 1.238199e-02 1.211292e-02 1.148271e-02 1.116335e-02 1.049670e-02 1.012055e-02 9.411889e-03 8.972159e-03 8.216391e-03 7.707002e-03 6.900579e-03 6.317207e-03 5.459070e-03 4.800072e-03 3.892331e-03 3.159414e-03 2.207691e-03 1.406239e-03 4.196153e-04 -4.413739e-04 -1.450768e-03 -2.359108e-03 -3.376800e-03 -4.317825e-03 -5.327882e-03 -6.285322e-03 -7.271274e-03 -8.228172e-03 -9.173865e-03 -1.011341e-02 -1.100368e-02 -1.190991e-02 -1.273104e-02 -1.358929e-02 -1.432925e-02 -1.512642e-02 -1.577492e-02 -1.649958e-02 
-3.402944e-02 -3.530842e-02 -3.617367e-02 -3.727367e-02 -3.791438e-02 -3.882145e-02 -3.922776e-02 -3.993056e-02 -4.009456e-02 -4.058432e-02 -4.050018e-02 -4.077088e-02 -4.043510e-02 -4.048367e-02 -3.989549e-02 -3.972221e-02 -3.888411e-02 -3.849293e-02 -3.741104e-02 -3.680982e-02 -3.549430e-02 -3.469492e-02 -3.316008e-02 -3.217826e-02 -3.044246e-02 -2.929739e-02 -2.738278e-02 -2.609646e-02 -2.402841e-02 -2.262479e-02 -2.043125e-02 -1.893526e-02 -1.664603e-02 -1.508254e-02 -1.272849e-02 -1.112137e-02 -8.733806e-03 -7.105047e-03 -4.715064e-03 -3.084221e-03 -7.222033e-04 8.939737e-04 3.198753e-03 4.786372e-03 7.006088e-03 8.553902e-03 1.066246e-02 1.216142e-02 1.413473e-02 1.557740e-02 1.739359e-02 1.877349e-02 2.041323e-02 2.172421e-02 2.317102e-02 2.440676e-02 2.564729e-02 2.680104e-02 2.782540e-02 2.888989e-02 2.969200e-02 3.065966e-02 3.123742e-02 3.210081e-02 3.245634e-02 3.320873e-02 3.334832e-02 3.398437e-02 3.391837e-02 3.443473e-02 3.417723e-02 3.457305e-02 3.414126e-02 3.441840e-02 3.383185e-02 3.399482e-02 3.327431e-02 3.332978e-02 3.249616e-02 3.245213e-02 3.152497e-02 3.138968e-02 3.038594e-02 3.016659e-02 2.909940e-02 2.880089e-02 2.767868e-02 2.730254e-02 2.612859e-02 2.567230e-02 2.444481e-02 2.390170e-02 2.261451e-02 2.197427e-02 2.061815e-02 1.986799e-02 1.843245e-02 1.755877e-02 1.603409e-02 1.502459e-02 1.340395e-02 1.224965e-02 1.053101e-02 9.228178e-03 7.415642e-03 5.967172e-03 4.071680e-03 2.487758e-03 5.270120e-04 -1.174970e-03 -3.177314e-03 -4.973583e-03 -6.989293e-03 -8.851092e-03 -1.084909e-02 -1.274442e-02 -1.469259e-02 -1.658801e-02 -1.845487e-02 -2.031719e-02 -2.207318e-02 -2.387078e-02 -2.548917e-02 -2.719295e-02 -2.865028e-02 -3.023421e-02 -3.151032e-02 -3.295160e-02 
-5.133352e-02 -5.326886e-02 -5.459771e-02 -5.625989e-02 -5.724747e-02 -5.861595e-02 -5.924765e-02 -6.030580e-02 -6.057001e-02 -6.130507e-02 -6.119332e-02 -6.159658e-02 -6.110389e-02 -6.117108e-02 -6.029663e-02 -6.002845e-02 -5.877626e-02 -5.817892e-02 -5.655855e-02 -5.564414e-02 -5.367121e-02 -5.245786e-02 -5.015422e-02 -4.866588e-02 -4.605953e-02 -4.432536e-02 -4.144993e-02 -3.950331e-02 -3.639724e-02 -3.427449e-02 -3.098003e-02 -2.871890e-02 -2.528100e-02 -2.291912e-02 -1.938426e-02 -1.695766e-02 -1.337287e-02 -1.091474e-02 -7.326668e-03 -4.866431e-03 -1.320616e-03 1.116562e-03 4.576292e-03 6.969605e-03 1.030161e-02 1.263427e-02 1.579949e-02 1.805807e-02 2.102044e-02 2.319395e-02 2.592075e-02 2.799966e-02 3.046199e-02 3.243726e-02 3.461048e-02 3.647285e-02 3.833708e-02 4.007659e-02 4.161721e-02 4.322314e-02 4.443130e-02 4.589244e-02 4.676537e-02 4.807071e-02 4.861201e-02 4.975157e-02 4.997120e-02 5.093707e-02 5.085114e-02 5.163839e-02 5.126859e-02 5.187602e-02 5.124871e-02 5.167917e-02 5.082411e-02 5.108437e-02 5.003310e-02 5.013312e-02 4.891703e-02 4.886870e-02 4.751700e-02 4.733246e-02 4.587010e-02 4.555978e-02 4.400566e-02 4.357638e-02 4.194194e-02 4.139526e-02 3.968388e-02 3.901514e-02 3.722226e-02 3.642040e-02 3.453474e-02 3.358315e-02 3.158876e-02 3.046711e-02 2.834621e-02 2.703310e-02 2.476933e-02 2.324549e-02 2.082727e-02 1.907880e-02 1.650227e-02 1.452357e-02 1.179473e-02 9.590597e-03 6.726344e-03 4.312992e-03 1.340994e-03 -1.254161e-03 -4.296808e-03 -7.036499e-03 -1.010550e-02 -1.294485e-02 -1.599147e-02 -1.888075e-02 -2.185475e-02 -2.474225e-02 -2.759448e-02 -3.042910e-02 -3.311361e-02 -3.584695e-02 -3.832236e-02 -4.091018e-02 -4.314037e-02 -4.554329e-02 -4.749746e-02 -4.968124e-02 
-6.843384e-02 -7.100849e-02 -7.275092e-02 -7.496486e-02 -7.625614e-02 -7.808162e-02 -7.890211e-02 -8.031647e-02 -8.065030e-02 -8.163587e-02 -8.147109e-02 -8.201553e-02 -8.134472e-02 -8.144158e-02 -8.026277e-02 -7.991226e-02 -7.822992e-02 -7.743969e-02 -7.526578e-02 -7.405148e-02 -7.140614e-02 -6.979165e-02 -6.670358e-02 -6.472076e-02 -6.122704e-02 -5.891490e-02 -5.506031e-02 -5.246370e-02 -4.829966e-02 -4.546747e-02 -4.105060e-02 -3.803372e-02 -3.342435e-02 -3.027349e-02 -2.553410e-02 -2.229780e-02 -1.749156e-02 -1.421444e-02 -9.404062e-03 -6.125577e-03 -1.372239e-03 1.874053e-03 6.511469e-03 9.697994e-03 1.416355e-02 1.726825e-02 2.150951e-02 2.451487e-02 2.848335e-02 3.137516e-02 3.502688e-02 3.779279e-02 4.108879e-02 4.371700e-02 4.662396e-02 4.910215e-02 5.159306e-02 5.390776e-02 5.596257e-02 5.809906e-02 5.970533e-02 6.164805e-02 6.280147e-02 6.453495e-02 6.523969e-02 6.674981e-02 6.701862e-02 6.829406e-02 6.814800e-02 6.918158e-02 6.864938e-02 6.943915e-02 6.855604e-02 6.910585e-02 6.791194e-02 6.823124e-02 6.676935e-02 6.687229e-02 6.518548e-02 6.508918e-02 6.321790e-02 6.294011e-02 6.091946e-02 6.047584e-02 5.833300e-02 5.773442e-02 5.548670e-02 5.473689e-02 5.239075e-02 5.148482e-02 4.903595e-02 4.796003e-02 4.539482e-02 4.412712e-02 4.142536e-02 3.993860e-02 3.707721e-02 3.534219e-02 3.229962e-02 3.028959e-02 2.705034e-02 2.474547e-02 2.130409e-02 1.869555e-02 1.505954e-02 1.215243e-02 8.343754e-03 5.158526e-03 1.213391e-03 -2.214342e-03 -6.247242e-03 -9.868536e-03 -1.393101e-02 -1.768662e-02 -2.171470e-02 -2.553880e-02 -2.946661e-02 -3.329066e-02 -3.705391e-02 -4.081016e-02 -4.434885e-02 -4.797313e-02 -5.123336e-02 -5.466696e-02 -5.760175e-02 -6.079242e-02 -6.336167e-02 -6.626387e-02 
-8.619110e-02 -8.944412e-02 -9.167869e-02 -9.447180e-02 -9.613400e-02 -9.843325e-02 -9.949895e-02 -1.012767e-01 -1.017265e-01 -1.029612e-01 -1.027805e-01 -1.034573e-01 -1.026370e-01 -1.027482e-01 -1.012863e-01 -1.008324e-01 -9.873481e-02 -9.772580e-02 -9.500785e-02 -9.346371e-02 -9.015120e-02 -8.810237e-02 -8.423191e-02 -8.171897e-02 -7.733775e-02 -7.441040e-02 -6.957534e-02 -6.629066e-02 -6.106698e-02 -5.748715e-02 -5.194650e-02 -4.813616e-02 -4.235469e-02 -3.837817e-02 -3.243452e-02 -2.835327e-02 -2.232679e-02 -1.819714e-02 -1.216641e-02 -8.037987e-03 -2.079564e-03 2.005603e-03 7.818133e-03 1.182572e-02 1.742249e-02 2.132525e-02 2.664074e-02 3.041729e-02 3.539093e-02 3.902405e-02 4.360084e-02 4.707569e-02 5.120694e-02 5.450929e-02 5.815337e-02 6.126829e-02 6.439152e-02 6.730251e-02 6.988003e-02 7.256890e-02 7.458551e-02 7.703290e-02 7.848377e-02 8.067034e-02 8.156141e-02 8.346944e-02 8.381761e-02 8.543284e-02 8.526557e-02 8.657900e-02 8.593344e-02 8.694267e-02 8.586417e-02 8.657414e-02 8.511409e-02 8.553686e-02 8.374993e-02 8.390348e-02 8.184428e-02 8.175031e-02 7.946979e-02 7.915067e-02 7.669243e-02 7.616769e-02 7.356473e-02 7.284750e-02 7.011964e-02 6.921365e-02 6.636628e-02 6.526392e-02 6.228819e-02 6.097011e-02 5.784491e-02 5.628139e-02 5.297701e-02 5.113123e-02 4.761439e-02 4.544718e-02 4.168696e-02 3.916256e-02 3.513640e-02 3.222844e-02 2.792752e-02 2.462433e-02 2.005746e-02 1.636591e-02 1.156146e-02 7.508791e-03 2.514332e-03 -1.852262e-03 -6.972441e-03 -1.158836e-02 -1.675737e-02 -2.154477e-02 -2.667819e-02 -3.155103e-02 -3.656219e-02 -4.143138e-02 -4.623606e-02 -5.101414e-02 -5.553421e-02 -6.013893e-02 -6.430469e-02 -6.866142e-02 -7.241261e-02 -7.645550e-02 -7.974119e-02 -8.341336e-02 
-1.035935e-01 -1.074969e-01 -1.101402e-01 -1.134958e-01 -1.154572e-01 -1.182238e-01 -1.194743e-01 -1.216179e-01 -1.221335e-01 -1.236272e-01 -1.233892e-01 -1.242138e-01 -1.232100e-01 -1.233549e-01 -1.215810e-01 -1.210456e-01 -1.185071e-01 -1.173021e-01 -1.140161e-01 -1.121648e-01 -1.081610e-01 -1.056995e-01 -1.010212e-01 -9.799831e-02 -9.270190e-02 -8.917783e-02 -8.333187e-02 -7.937606e-02 -7.305939e-02 -6.874772e-02 -6.204721e-02 -5.745865e-02 -5.046668e-02 -4.567984e-02 -3.849188e-02 -3.358169e-02 -2.629405e-02 -2.132903e-02 -1.403701e-02 -9.077223e-03 -1.873618e-03 3.030459e-03 1.005652e-02 1.486409e-02 2.162801e-02 2.630714e-02 3.272962e-02 3.725562e-02 4.326331e-02 4.761659e-02 5.314280e-02 5.730647e-02 6.229203e-02 6.624970e-02 7.064380e-02 7.437779e-02 7.813909e-02 8.162935e-02 8.472701e-02 8.795095e-02 9.036565e-02 9.329881e-02 9.502368e-02 9.764131e-02 9.868250e-02 1.009617e-01 1.013386e-01 1.032606e-01 1.030058e-01 1.045585e-01 1.037164e-01 1.048963e-01 1.035218e-01 1.043349e-01 1.024908e-01 1.029523e-01 1.007060e-01 1.008393e-01 9.825877e-02 9.809243e-02 9.524191e-02 9.480591e-02 9.174114e-02 9.106234e-02 8.782646e-02 8.692402e-02 8.354428e-02 8.242564e-02 7.891153e-02 7.756975e-02 7.391304e-02 7.232604e-02 6.850296e-02 6.663506e-02 6.261066e-02 6.041648e-02 5.615071e-02 5.358111e-02 4.903611e-02 4.604538e-02 4.119296e-02 3.774640e-02 3.257474e-02 2.865544e-02 2.317400e-02 1.878780e-02 1.302975e-02 8.207623e-03 2.229434e-03 -2.972985e-03 -9.094592e-03 -1.460016e-02 -2.077332e-02 -2.648857e-02 -3.261257e-02 -3.843397e-02 -4.440569e-02 -5.022611e-02 -5.594569e-02 -6.166005e-02 -6.703529e-02 -7.254497e-02 -7.749399e-02 -8.270966e-02 -8.716195e-02 -9.200488e-02 -9.590099e-02 -1.003032e-01 
-1.220112e-01 -1.266226e-01 -1.297921e-01 -1.337500e-01 -1.361110e-01 -1.393686e-01 -1.408877e-01 -1.434065e-01 -1.440564e-01 -1.458058e-01 -1.455650e-01 -1.465230e-01 -1.453774e-01 -1.455320e-01 -1.434767e-01 -1.428272e-01 -1.398688e-01 -1.384281e-01 -1.345868e-01 -1.323825e-01 -1.276939e-01 -1.247690e-01 -1.192845e-01 -1.156973e-01 -1.094843e-01 -1.053067e-01 -9.844681e-02 -9.376185e-02 -8.634891e-02 -8.124731e-02 -7.338435e-02 -6.796039e-02 -5.975672e-02 -5.410403e-02 -4.567221e-02 -3.987985e-02 -3.133308e-02 -2.548216e-02 -1.693216e-02 -1.109339e-02 -2.648690e-03 3.118903e-03 1.135419e-02 1.700339e-02 2.493052e-02 3.042485e-02 3.795125e-02 4.326299e-02 5.030294e-02 5.541049e-02 6.188601e-02 6.677091e-02 7.261271e-02 7.725695e-02 8.240555e-02 8.678937e-02 9.119640e-02 9.529692e-02 9.892648e-02 1.027175e-01 1.055474e-01 1.090003e-01 1.110231e-01 1.141085e-01 1.153325e-01 1.180232e-01 1.184724e-01 1.207460e-01 1.204603e-01 1.223023e-01 1.213356e-01 1.227418e-01 1.211607e-01 1.221382e-01 1.200185e-01 1.205858e-01 1.180086e-01 1.181940e-01 1.152407e-01 1.150788e-01 1.118258e-01 1.113525e-01 1.078653e-01 1.071130e-01 1.034413e-01 1.024323e-01 9.860553e-02 9.734777e-02 9.337315e-02 9.185647e-02 8.771888e-02 8.591423e-02 8.157910e-02 7.944045e-02 7.485926e-02 7.232851e-02 6.744661e-02 6.446105e-02 5.922687e-02 5.572830e-02 5.010297e-02 4.604722e-02 4.001305e-02 3.537851e-02 2.894525e-02 2.373903e-02 1.694683e-02 1.120765e-02 4.126449e-03 -2.076189e-03 -9.350765e-03 -1.592078e-02 -2.327416e-02 -3.009568e-02 -3.740251e-02 -4.434798e-02 -5.148046e-02 -5.841881e-02 -6.525400e-02 -7.205777e-02 -7.848303e-02 -8.503374e-02 -9.095005e-02 -9.714152e-02 -1.024646e-01 -1.082043e-01 -1.128639e-01 -1.180728e-01 
-1.398994e-01 -1.451806e-01 -1.487593e-01 -1.532977e-01 -1.559584e-01 -1.597000e-01 -1.614046e-01 -1.643042e-01 -1.650202e-01 -1.670412e-01 -1.667422e-01 -1.678576e-01 -1.665250e-01 -1.667186e-01 -1.643441e-01 -1.636131e-01 -1.602014e-01 -1.585586e-01 -1.541305e-01 -1.516061e-01 -1.462006e-01 -1.428434e-01 -1.365184e-01 -1.323953e-01 -1.252277e-01 -1.204222e-01 -1.125060e-01 -1.071151e-01 -9.855896e-02 -9.268878e-02 -8.361223e-02 -7.737332e-02 -6.790328e-02 -6.140539e-02 -5.167252e-02 -4.501978e-02 -3.515539e-02 -2.844226e-02 -1.857574e-02 -1.188399e-02 -2.140890e-03 4.461917e-03 1.396132e-02 2.042198e-02 2.956370e-02 3.584202e-02 4.451919e-02 5.058544e-02 5.869909e-02 6.453066e-02 7.199062e-02 7.756833e-02 8.429423e-02 8.959890e-02 9.552146e-02 1.005311e-01 1.055936e-01 1.102818e-01 1.144416e-01 1.187772e-01 1.220072e-01 1.259554e-01 1.282455e-01 1.317702e-01 1.331283e-01 1.361952e-01 1.366478e-01 1.392284e-01 1.388203e-01 1.408959e-01 1.396889e-01 1.412531e-01 1.393244e-01 1.403854e-01 1.378237e-01 1.384041e-01 1.353054e-01 1.354405e-01 1.319021e-01 1.316357e-01 1.277502e-01 1.271291e-01 1.229769e-01 1.220437e-01 1.176875e-01 1.164736e-01 1.119522e-01 1.104716e-01 1.057976e-01 1.040420e-01 9.920109e-02 9.713861e-02 9.209250e-02 8.966972e-02 8.436261e-02 8.151016e-02 7.587778e-02 7.251931e-02 6.649999e-02 6.256329e-02 5.610947e-02 5.153816e-02 4.462675e-02 3.939089e-02 3.203087e-02 2.613464e-02 1.837078e-02 1.185614e-02 3.768220e-03 -3.286019e-03 -1.158813e-02 -1.907145e-02 -2.745596e-02 -3.523436e-02 -4.355735e-02 -5.148322e-02 -5.959859e-02 -6.752048e-02 -7.528852e-02 -8.305962e-02 -9.035323e-02 -9.783764e-02 -1.045459e-01 -1.116223e-01 -1.176515e-01 -1.242147e-01 -1.294872e-01 -1.354473e-01 
-1.591980e-01 -1.652238e-01 -1.693678e-01 -1.745373e-01 -1.776301e-01 -1.818847e-01 -1.838847e-01 -1.871750e-01 -1.880464e-01 -1.903324e-01 -1.900457e-01 -1.912970e-01 -1.898309e-01 -1.900294e-01 -1.873742e-01 -1.865163e-01 -1.826769e-01 -1.807770e-01 -1.757769e-01 -1.728693e-01 -1.667530e-01 -1.628938e-01 -1.557281e-01 -1.509946e-01 -1.428682e-01 -1.373572e-01 -1.283788e-01 -1.222028e-01 -1.124976e-01 -1.057799e-01 -9.548533e-02 -8.835400e-02 -7.761556e-02 -7.019753e-02 -5.916429e-02 -5.157958e-02 -4.040075e-02 -3.275766e-02 -2.157977e-02 -1.397144e-02 -2.936241e-03 4.561178e-03 1.531810e-02 2.264551e-02 3.299574e-02 4.010944e-02 4.993256e-02 5.680115e-02 6.598548e-02 7.258584e-02 8.102942e-02 8.734228e-02 9.495408e-02 1.009598e-01 1.076613e-01 1.133366e-01 1.190633e-01 1.243793e-01 1.290831e-01 1.340047e-01 1.376551e-01 1.421426e-01 1.447291e-01 1.487406e-01 1.502733e-01 1.537690e-01 1.542796e-01 1.572261e-01 1.567677e-01 1.591427e-01 1.577885e-01 1.595845e-01 1.574251e-01 1.586515e-01 1.557911e-01 1.564748e-01 1.530259e-01 1.532086e-01 1.492849e-01 1.490187e-01 1.447276e-01 1.440680e-01 1.395022e-01 1.384997e-01 1.337295e-01 1.324209e-01 1.274879e-01 1.258884e-01 1.208015e-01 1.188994e-01 1.136344e-01 1.113891e-01 1.058925e-01 1.032367e-01 9.743327e-02 9.428024e-02 8.808470e-02 8.433902e-02 7.766967e-02 7.324113e-02 6.603425e-02 6.085236e-02 5.307516e-02 4.710218e-02 3.876232e-02 3.200273e-02 2.315283e-02 1.565763e-02 6.394083e-03 -1.740694e-03 -1.128420e-02 -1.992421e-02 -2.958725e-02 -3.857047e-02 -4.817841e-02 -5.732761e-02 -6.670425e-02 -7.583922e-02 -8.481742e-02 -9.376535e-02 -1.021947e-01 -1.107976e-01 -1.185486e-01 -1.266673e-01 -1.336323e-01 -1.411478e-01 -1.472391e-01 -1.540514e-01 
-1.777579e-01 -1.844809e-01 -1.890395e-01 -1.948147e-01 -1.982128e-01 -2.029745e-01 -2.051657e-01 -2.088577e-01 -2.098005e-01 -2.123760e-01 -2.120347e-01 -2.134569e-01 -2.118039e-01 -2.120490e-01 -2.090689e-01 -2.081296e-01 -2.038239e-01 -2.017130e-01 -1.961041e-01 -1.928579e-01 -1.859927e-01 -1.816727e-01 -1.736242e-01 -1.683174e-01 -1.591845e-01 -1.530007e-01 -1.429058e-01 -1.359735e-01 -1.250583e-01 -1.175190e-01 -1.059396e-01 -9.794042e-02 -8.586162e-02 -7.754840e-02 -6.513928e-02 -5.664937e-02 -4.407875e-02 -3.553550e-02 -2.296882e-02 -1.447735e-02 -2.074326e-03 6.280635e-03 1.836752e-02 2.652167e-02 3.814819e-02 4.605557e-02 5.708652e-02 6.471568e-02 7.502559e-02 8.235457e-02 9.182869e-02 9.883949e-02 1.073750e-01 1.140484e-01 1.215562e-01 1.278676e-01 1.342739e-01 1.401910e-01 1.454398e-01 1.509218e-01 1.549770e-01 1.599763e-01 1.628236e-01 1.672893e-01 1.689380e-01 1.728209e-01 1.733045e-01 1.765626e-01 1.759392e-01 1.785438e-01 1.768951e-01 1.788354e-01 1.762638e-01 1.775501e-01 1.741749e-01 1.748390e-01 1.707904e-01 1.708834e-01 1.662947e-01 1.658815e-01 1.608802e-01 1.600312e-01 1.547292e-01 1.535100e-01 1.479942e-01 1.464550e-01 1.407793e-01 1.389448e-01 1.331251e-01 1.309874e-01 1.250002e-01 1.225156e-01 1.163021e-01 1.133938e-01 1.068681e-01 1.034337e-01 9.649621e-02 9.242111e-02 8.497494e-02 8.014868e-02 7.211649e-02 6.645045e-02 5.779026e-02 5.123374e-02 4.195035e-02 3.450221e-02 2.465276e-02 1.636686e-02 6.059391e-03 -2.957179e-03 -1.357153e-02 -2.316660e-02 -3.390625e-02 -4.389548e-02 -5.456343e-02 -6.474524e-02 -7.514389e-02 -8.531406e-02 -9.525756e-02 -1.052213e-01 -1.145441e-01 -1.241245e-01 -1.326857e-01 -1.417281e-01 -1.494117e-01 -1.577849e-01 -1.644975e-01 -1.720914e-01 
-1.981745e-01 -2.056844e-01 -2.108513e-01 -2.172910e-01 -2.211572e-01 -2.264579e-01 -2.289745e-01 -2.330766e-01 -2.341990e-01 -2.370517e-01 -2.367403e-01 -2.383031e-01 -2.365265e-01 -2.367723e-01 -2.335121e-01 -2.324315e-01 -2.276877e-01 -2.252941e-01 -2.190907e-01 -2.154239e-01 -2.078132e-01 -2.029423e-01 -1.940066e-01 -1.880301e-01 -1.778817e-01 -1.709248e-01 -1.597027e-01 -1.519124e-01 -1.397774e-01 -1.313154e-01 -1.184438e-01 -1.094781e-01 -9.605579e-02 -8.675223e-02 -7.296833e-02 -6.348274e-02 -4.952527e-02 -3.999664e-02 -2.604897e-02 -1.659468e-02 -2.833244e-03 6.453353e-03 1.986048e-02 2.891002e-02 4.180398e-02 5.056856e-02 6.280026e-02 7.124884e-02 8.267966e-02 9.079204e-02 1.012948e-01 1.090550e-01 1.185154e-01 1.259057e-01 1.342243e-01 1.412198e-01 1.483144e-01 1.548806e-01 1.606887e-01 1.667806e-01 1.712621e-01 1.768258e-01 1.799656e-01 1.849430e-01 1.867526e-01 1.910865e-01 1.916055e-01 1.952471e-01 1.945431e-01 1.974586e-01 1.956262e-01 1.978025e-01 1.949606e-01 1.964093e-01 1.926958e-01 1.934541e-01 1.890197e-01 1.891476e-01 1.841461e-01 1.837202e-01 1.782982e-01 1.774016e-01 1.716868e-01 1.703971e-01 1.644869e-01 1.628631e-01 1.568148e-01 1.548851e-01 1.487099e-01 1.464630e-01 1.401238e-01 1.375051e-01 1.309218e-01 1.278357e-01 1.208951e-01 1.172152e-01 1.097876e-01 1.053720e-01 9.733109e-02 9.204313e-02 8.328738e-02 7.701713e-02 6.748916e-02 6.017330e-02 4.987418e-02 4.151024e-02 3.050622e-02 2.115893e-02 9.579367e-03 -6.219201e-04 -1.259476e-02 -2.346683e-02 -3.561403e-02 -4.693623e-02 -5.902138e-02 -7.055453e-02 -8.234230e-02 -9.384671e-02 -1.051182e-01 -1.163682e-01 -1.269311e-01 -1.377251e-01 -1.474185e-01 -1.575834e-01 -1.662778e-01 -1.756691e-01 -1.832627e-01 -1.917618e-01 
-2.175959e-01 -2.258377e-01 -2.314288e-01 -2.385061e-01 -2.426880e-01 -2.485258e-01 -2.512450e-01 -2.557765e-01 -2.569818e-01 -2.601484e-01 -2.597922e-01 -2.615450e-01 -2.595869e-01 -2.598908e-01 -2.563040e-01 -2.551434e-01 -2.499214e-01 -2.473060e-01 -2.404695e-01 -2.364398e-01 -2.280419e-01 -2.226723e-01 -2.128015e-01 -2.062010e-01 -1.949807e-01 -1.872897e-01 -1.748745e-01 -1.662594e-01 -1.528292e-01 -1.434734e-01 -1.292261e-01 -1.193208e-01 -1.044643e-01 -9.419810e-02 -7.894386e-02 -6.849317e-02 -5.305083e-02 -4.257204e-02 -2.714534e-02 -1.676911e-02 -1.553499e-03 8.618224e-03 2.343704e-02 3.333088e-02 4.757766e-02 5.714569e-02 7.065609e-02 7.987018e-02 9.249128e-02 1.013356e-01 1.129268e-01 1.213897e-01 1.318241e-01 1.398905e-01 1.490570e-01 1.567024e-01 1.645083e-01 1.716947e-01 1.780686e-01 1.847442e-01 1.896388e-01 1.957398e-01 1.991351e-01 2.045910e-01 2.064965e-01 2.112372e-01 2.116936e-01 2.156580e-01 2.147378e-01 2.178823e-01 2.156892e-01 2.179955e-01 2.146617e-01 2.161414e-01 2.118226e-01 2.125192e-01 2.073874e-01 2.073734e-01 2.016069e-01 2.009764e-01 1.947474e-01 1.936047e-01 1.870657e-01 1.855103e-01 1.787808e-01 1.768914e-01 1.700453e-01 1.678647e-01 1.609224e-01 1.584459e-01 1.513713e-01 1.485413e-01 1.412461e-01 1.379543e-01 1.303093e-01 1.264076e-01 1.182619e-01 1.135806e-01 1.047847e-01 9.915762e-02 8.958895e-02 8.287902e-02 7.246517e-02 6.458921e-02 5.332532e-02 4.427150e-02 3.222845e-02 2.206422e-02 9.386126e-03 -1.744922e-03 -1.485298e-02 -2.674420e-02 -4.003585e-02 -5.243751e-02 -6.564790e-02 -7.828991e-02 -9.115754e-02 -1.037708e-01 -1.160552e-01 -1.283885e-01 -1.398813e-01 -1.517123e-01 -1.622421e-01 -1.733820e-01 -1.828133e-01 -1.931062e-01 -2.013340e-01 -2.106533e-01 
-2.393867e-01 -2.484614e-01 -2.547061e-01 -2.624848e-01 -2.671734e-01 -2.735795e-01 -2.766574e-01 -2.816219e-01 -2.830348e-01 -2.864948e-01 -2.861900e-01 -2.880915e-01 -2.860227e-01 -2.863252e-01 -2.824598e-01 -2.811434e-01 -2.754711e-01 -2.725439e-01 -2.650851e-01 -2.605900e-01 -2.514024e-01 -2.454214e-01 -2.346036e-01 -2.272588e-01 -2.149495e-01 -2.063997e-01 -1.927731e-01 -1.832068e-01 -1.684656e-01 -1.580910e-01 -1.424568e-01 -1.314906e-01 -1.151952e-01 -1.038501e-01 -8.712753e-02 -7.560181e-02 -5.868224e-02 -4.715033e-02 -3.025633e-02 -1.886237e-02 -2.206439e-03 8.939041e-03 2.515550e-02 3.597536e-02 5.156238e-02 6.200908e-02 7.678822e-02 8.683707e-02 1.006417e-01 1.102820e-01 1.229583e-01 1.321836e-01 1.435921e-01 1.523912e-01 1.624092e-01 1.707591e-01 1.792839e-01 1.871450e-01 1.940974e-01 2.014128e-01 2.067405e-01 2.134385e-01 2.171200e-01 2.231200e-01 2.251670e-01 2.303879e-01 2.308475e-01 2.352183e-01 2.341739e-01 2.376430e-01 2.352137e-01 2.377588e-01 2.340962e-01 2.357300e-01 2.310130e-01 2.317859e-01 2.262120e-01 2.262087e-01 2.199826e-01 2.193138e-01 2.126330e-01 2.114217e-01 2.044603e-01 2.028243e-01 1.957164e-01 1.937490e-01 1.865742e-01 1.843254e-01 1.770983e-01 1.745611e-01 1.672279e-01 1.643309e-01 1.567739e-01 1.533839e-01 1.454358e-01 1.413706e-01 1.328371e-01 1.278884e-01 1.185773e-01 1.125399e-01 1.022925e-01 9.499737e-02 8.371742e-02 7.506120e-02 6.273649e-02 5.270346e-02 3.941589e-02 2.808714e-02 1.400928e-02 1.558204e-03 -1.306282e-02 -2.638766e-02 -4.125534e-02 -5.515576e-02 -6.995326e-02 -8.411008e-02 -9.852770e-02 -1.126271e-01 -1.263839e-01 -1.401378e-01 -1.529947e-01 -1.661530e-01 -1.779181e-01 -1.902733e-01 -2.007990e-01 -2.121843e-01 -2.213603e-01 -2.316434e-01 
-2.598640e-01 -2.697113e-01 -2.763924e-01 -2.848471e-01 -2.898662e-01 -2.968466e-01 -3.001449e-01 -3.055745e-01 -3.070899e-01 -3.108965e-01 -3.105656e-01 -3.126839e-01 -3.104477e-01 -3.108260e-01 -3.066389e-01 -3.052473e-01 -2.990883e-01 -2.959281e-01 -2.878106e-01 -2.829231e-01 -2.729040e-01 -2.663760e-01 -2.545595e-01 -2.465248e-01 -2.330623e-01 -2.236980e-01 -2.087826e-01 -1.983009e-01 -1.821580e-01 -1.707945e-01 -1.536713e-01 -1.416712e-01 -1.238254e-01 -1.114295e-01 -9.312056e-02 -8.055235e-02 -6.203443e-02 -4.948906e-02 -3.100675e-02 -1.864337e-02 -4.292424e-04 1.163303e-02 2.935930e-02 4.104110e-02 5.807279e-02 6.932988e-02 8.547295e-02 9.628788e-02 1.113610e-01 1.217322e-01 1.355675e-01 1.454973e-01 1.579417e-01 1.674254e-01 1.783434e-01 1.873600e-01 1.966370e-01 2.051441e-01 2.126902e-01 2.206226e-01 2.263766e-01 2.336495e-01 2.375833e-01 2.440991e-01 2.462207e-01 2.518803e-01 2.522368e-01 2.569510e-01 2.556303e-01 2.593333e-01 2.564636e-01 2.591242e-01 2.548724e-01 2.565021e-01 2.510676e-01 2.517243e-01 2.453310e-01 2.451158e-01 2.379990e-01 2.370470e-01 2.294373e-01 2.279013e-01 2.200058e-01 2.180352e-01 2.100178e-01 2.077350e-01 1.996980e-01 1.971756e-01 1.891466e-01 1.863887e-01 1.783148e-01 1.752475e-01 1.669991e-01 1.634721e-01 1.548585e-01 1.506589e-01 1.414542e-01 1.363333e-01 1.263101e-01 1.200192e-01 1.089863e-01 1.013158e-01 8.915305e-02 7.996966e-02 6.665435e-02 5.592753e-02 4.154672e-02 2.936063e-02 1.410692e-02 6.547395e-04 -1.519329e-02 -2.963042e-02 -4.573878e-02 -6.082304e-02 -7.683712e-02 -9.220852e-02 -1.077855e-01 -1.230931e-01 -1.379264e-01 -1.528517e-01 -1.666856e-01 -1.809561e-01 -1.935899e-01 -2.069829e-01 -2.182667e-01 -2.306062e-01 -2.404307e-01 -2.515790e-01 
-2.833068e-01 -2.940341e-01 -3.014139e-01 -3.106078e-01 -3.161734e-01 -3.237539e-01 -3.274474e-01 -3.333368e-01 -3.350928e-01 -3.392141e-01 -3.389622e-01 -3.412428e-01 -3.389145e-01 -3.392936e-01 -3.348335e-01 -3.332730e-01 -3.266519e-01 -3.231481e-01 -3.143762e-01 -3.089706e-01 -2.981078e-01 -2.908947e-01 -2.780561e-01 -2.691842e-01 -2.545395e-01 -2.442082e-01 -2.279747e-01 -2.164239e-01 -1.988549e-01 -1.863512e-01 -1.677227e-01 -1.545428e-01 -1.351404e-01 -1.215553e-01 -1.016637e-01 -8.792304e-02 -6.781876e-02 -5.413901e-02 -3.408601e-02 -2.064140e-02 -8.893181e-04 1.219266e-02 3.140874e-02 4.404685e-02 6.250573e-02 7.465954e-02 9.215306e-02 1.038130e-01 1.201457e-01 1.313201e-01 1.463096e-01 1.570108e-01 1.704901e-01 1.807209e-01 1.925409e-01 2.022842e-01 2.123183e-01 2.215307e-01 2.296793e-01 2.382895e-01 2.444850e-01 2.523974e-01 2.566088e-01 2.637122e-01 2.659492e-01 2.721285e-01 2.724452e-01 2.775964e-01 2.760927e-01 2.801379e-01 2.769600e-01 2.798611e-01 2.751991e-01 2.769679e-01 2.710497e-01 2.717524e-01 2.648343e-01 2.645889e-01 2.569406e-01 2.559056e-01 2.477919e-01 2.461478e-01 2.378054e-01 2.357297e-01 2.273443e-01 2.249827e-01 2.166664e-01 2.141052e-01 2.058800e-01 2.031235e-01 1.949136e-01 1.918713e-01 1.835076e-01 1.799957e-01 1.712340e-01 1.669922e-01 1.575448e-01 1.522681e-01 1.418454e-01 1.352278e-01 1.235848e-01 1.153681e-01 1.023482e-01 9.236746e-02 7.793505e-02 6.615184e-02 5.040802e-02 3.692435e-02 2.010101e-02 5.151459e-03 -1.241421e-02 -2.849010e-02 -4.639495e-02 -6.319283e-02 -8.101214e-02 -9.810646e-02 -1.154346e-01 -1.324172e-01 -1.488978e-01 -1.654056e-01 -1.807483e-01 -1.964783e-01 -2.104622e-01 -2.251745e-01 -2.376416e-01 -2.511530e-01 -2.619943e-01 -2.741670e-01 
-3.050383e-01 -3.165827e-01 -3.244119e-01 -3.343254e-01 -3.402405e-01 -3.484398e-01 -3.523793e-01 -3.587790e-01 -3.606679e-01 -3.651795e-01 -3.649328e-01 -3.674685e-01 -3.649995e-01 -3.654821e-01 -3.607161e-01 -3.590919e-01 -3.519823e-01 -3.482360e-01 -3.387810e-01 -3.329488e-01 -3.212042e-01 -3.133840e-01 -2.994705e-01 -2.898244e-01 -2.739268e-01 -2.626769e-01 -2.450357e-01 -2.324518e-01 -2.133491e-01 -1.997325e-01 -1.794755e-01 -1.651395e-01 -1.440450e-01 -1.292957e-01 -1.076778e-01 -9.279648e-02 -7.095834e-02 -5.618674e-02 -3.441606e-02 -1.994587e-02 1.486737e-03 1.551948e-02 3.636031e-02 4.987480e-02 6.988584e-02 8.284978e-02 1.018073e-01 1.142248e-01 1.319182e-01 1.438138e-01 1.600464e-01 1.714477e-01 1.860376e-01 1.969590e-01 2.097430e-01 2.201729e-01 2.310106e-01 2.409032e-01 2.496822e-01 2.589560e-01 2.655975e-01 2.741391e-01 2.786031e-01 2.862782e-01 2.885686e-01 2.952359e-01 2.954047e-01 3.009345e-01 2.990848e-01 3.033775e-01 2.996646e-01 3.026679e-01 2.972984e-01 2.990203e-01 2.922463e-01 2.927617e-01 2.848716e-01 2.843199e-01 2.756222e-01 2.741955e-01 2.649980e-01 2.629188e-01 2.535028e-01 2.509942e-01 2.415861e-01 2.388372e-01 2.295812e-01 2.267125e-01 2.176494e-01 2.146836e-01 2.057395e-01 2.025851e-01 1.935740e-01 1.900242e-01 1.806678e-01 1.764188e-01 1.663822e-01 1.610706e-01 1.500111e-01 1.432661e-01 1.308888e-01 1.223915e-01 1.085023e-01 9.804222e-02 8.258832e-02 7.010451e-02 5.319328e-02 3.879221e-02 2.068436e-02 4.629881e-03 -1.429197e-02 -3.161294e-02 -5.089237e-02 -6.901934e-02 -8.817972e-02 -1.066316e-01 -1.252240e-01 -1.435445e-01 -1.611821e-01 -1.789721e-01 -1.953476e-01 -2.122801e-01 -2.271677e-01 -2.429898e-01 -2.562349e-01 -2.707585e-01 -2.822602e-01 -2.953470e-01 