# vtk DataFile Version 2.0
Comment goes here
ASCII

DATASET STRUCTURED_POINTS
FIELD FieldData 1
TIME 1 1 double
0.15500000
DIMENSIONS    128   128   1

ORIGIN    0.000   0.000   0.000
SPACING   0.039062 0.039062   1.000

POINT_DATA   16384
SCALARS uY double
LOOKUP_TABLE default

1.228846e-14 1.371886e-14 1.358510e-14 1.476075e-14 1.495722e-14 1.606429e-14 1.562327e-14 1.644606e-14 1.720753e-14 1.876107e-14 2.034356e-14 2.139399e-14 2.228977e-14 2.353305e-14 2.444807e-14 2.476281e-14 2.456215e-14 2.457144e-14 2.530810e-14 2.481065e-14 2.426483e-14 2.317859e-14 2.433312e-14 2.288074e-14 2.434641e-14 2.366488e-14 2.552340e-14 2.536068e-14 2.785208e-14 2.695808e-14 2.954793e-14 3.018032e-14 3.184355e-14 2.927340e-14 3.146962e-14 3.158762e-14 3.202065e-14 3.026791e-14 3.324280e-14 3.352172e-14 3.675459e-14 3.617056e-14 3.942877e-14 3.865005e-14 4.129137e-14 4.232883e-14 4.505778e-14 4.427439e-14 4.488131e-14 4.415634e-14 4.614404e-14 4.459087e-14 4.681220e-14 4.882131e-14 4.899618e-14 4.868672e-14 5.096622e-14 4.971844e-14 5.402767e-14 5.360803e-14 5.563261e-14 5.528580e-14 5.593936e-14 5.491099e-14 5.591427e-14 5.574878e-14 5.602304e-14 5.675391e-14 5.640558e-14 5.549575e-14 5.495870e-14 5.358311e-14 5.345859e-14 5.165392e-14 5.134797e-14 5.060954e-14 4.987783e-14 4.949670e-14 4.859516e-14 4.684102e-14 4.659023e-14 4.565815e-14 4.535110e-14 4.484780e-14 4.457197e-14 4.418447e-14 4.303728e-14 4.458008e-14 4.447114e-14 4.525399e-14 4.455752e-14 4.427654e-14 4.336630e-14 4.323587e-14 4.296170e-14 4.166087e-14 3.989041e-14 4.078778e-14 3.781642e-14 3.632820e-14 3.470655e-14 3.566157e-14 3.242043e-14 3.382602e-14 3.305345e-14 3.377276e-14 3.130907e-14 3.131407e-14 2.896674e-14 2.915060e-14 2.649568e-14 2.632599e-14 2.423768e-14 2.442171e-14 2.171597e-14 2.119254e-14 1.848358e-14 1.784338e-14 1.522618e-14 1.508451e-14 1.327677e-14 1.344248e-14 1.205880e-14 1.278425e-14 1.184147e-14 1.277197e-14 1.187439e-14 1.286489e-14 
-1.238269e-02 -1.292372e-02 -1.352240e-02 -1.399055e-02 -1.448648e-02 -1.486847e-02 -1.525046e-02 -1.553500e-02 -1.579371e-02 -1.597184e-02 -1.610003e-02 -1.616545e-02 -1.615838e-02 -1.610776e-02 -1.596350e-02 -1.579676e-02 -1.551653e-02 -1.523696e-02 -1.482532e-02 -1.443964e-02 -1.390451e-02 -1.342272e-02 -1.277526e-02 -1.221021e-02 -1.146446e-02 -1.083136e-02 -1.000367e-02 -9.319337e-03 -8.427645e-03 -7.709732e-03 -6.772741e-03 -6.038861e-03 -5.075191e-03 -4.342146e-03 -3.369526e-03 -2.652632e-03 -1.687225e-03 -9.998052e-04 -5.570836e-05 5.912186e-04 1.502268e-03 2.100096e-03 2.968798e-03 3.511254e-03 4.330624e-03 4.813549e-03 5.578634e-03 5.999649e-03 6.707140e-03 7.065278e-03 7.713065e-03 8.008402e-03 8.595147e-03 8.828493e-03 9.353260e-03 9.525935e-03 9.987927e-03 1.010165e-02 1.050008e-02 1.055699e-02 1.089104e-02 1.089377e-02 1.116280e-02 1.111468e-02 1.131835e-02 1.122362e-02 1.136223e-02 1.122623e-02 1.130099e-02 1.113033e-02 1.114359e-02 1.094616e-02 1.090155e-02 1.068643e-02 1.058886e-02 1.036602e-02 1.022149e-02 1.000131e-02 9.816571e-03 9.609217e-03 9.391226e-03 9.205844e-03 8.961139e-03 8.805033e-03 8.539032e-03 8.416841e-03 8.133193e-03 8.046197e-03 7.746267e-03 7.691923e-03 7.374499e-03 7.346299e-03 7.007588e-03 6.995287e-03 6.629239e-03 6.619484e-03 6.218422e-03 6.195735e-03 5.751239e-03 5.699270e-03 5.203211e-03 5.106138e-03 4.551744e-03 4.395653e-03 3.778466e-03 3.552566e-03 2.871180e-03 2.568711e-03 1.825210e-03 1.443973e-03 6.440298e-04 1.864983e-04 -6.608415e-04 -1.187791e-03 -2.070578e-03 -2.656235e-03 -3.560258e-03 -4.190848e-03 -5.100335e-03 -5.759876e-03 -6.658187e-03 -7.329327e-03 -8.199561e-03 -8.864348e-03 -9.689835e-03 -1.033036e-02 -1.109504e-02 -1.169399e-02 
-2.471766e-02 -2.579801e-02 -2.698954e-02 -2.792511e-02 -2.891227e-02 -2.967635e-02 -3.043665e-02 -3.100650e-02 -3.152103e-02 -3.187853e-02 -3.213262e-02 -3.226496e-02 -3.224889e-02 -3.214919e-02 -3.185889e-02 -3.152680e-02 -3.096450e-02 -3.040647e-02 -2.958112e-02 -2.881049e-02 -2.773784e-02 -2.677452e-02 -2.547687e-02 -2.434659e-02 -2.285206e-02 -2.158527e-02 -1.992667e-02 -1.855713e-02 -1.677048e-02 -1.533359e-02 -1.345649e-02 -1.198760e-02 -1.005747e-02 -8.590319e-03 -6.642787e-03 -5.208111e-03 -3.275639e-03 -1.900154e-03 -1.102148e-05 1.283197e-03 3.105482e-03 4.301218e-03 6.038072e-03 7.122812e-03 8.760324e-03 9.725792e-03 1.125415e-02 1.209564e-02 1.350832e-02 1.422395e-02 1.551683e-02 1.610677e-02 1.727725e-02 1.774312e-02 1.878938e-02 1.913377e-02 2.005421e-02 2.028050e-02 2.107349e-02 2.118582e-02 2.184970e-02 2.185321e-02 2.238653e-02 2.228773e-02 2.268972e-02 2.249691e-02 2.276804e-02 2.249179e-02 2.263435e-02 2.228775e-02 2.230634e-02 2.190514e-02 2.180699e-02 2.136935e-02 2.116429e-02 2.071023e-02 2.041037e-02 1.996084e-02 1.957984e-02 1.915542e-02 1.870746e-02 1.832678e-02 1.782525e-02 1.750334e-02 1.695942e-02 1.670601e-02 1.612740e-02 1.594549e-02 1.533533e-02 1.522027e-02 1.457650e-02 1.451563e-02 1.383100e-02 1.380409e-02 1.306677e-02 1.304724e-02 1.224206e-02 1.219897e-02 1.130918e-02 1.120970e-02 1.021903e-02 1.003127e-02 8.926106e-03 8.621905e-03 7.393162e-03 6.950535e-03 5.595187e-03 5.000197e-03 3.522136e-03 2.769974e-03 1.180236e-03 2.754676e-04 -1.408192e-03 -2.452143e-03 -4.206179e-03 -5.368169e-03 -7.164507e-03 -8.417209e-03 -1.022465e-02 -1.153625e-02 -1.332182e-02 -1.465775e-02 -1.638792e-02 -1.771232e-02 -1.935396e-02 -2.063105e-02 -2.215219e-02 -2.334727e-02 
-3.729606e-02 -3.893411e-02 -4.074287e-02 -4.216060e-02 -4.365955e-02 -4.481679e-02 -4.597214e-02 -4.683471e-02 -4.761806e-02 -4.815876e-02 -4.854807e-02 -4.874767e-02 -4.872836e-02 -4.857661e-02 -4.814262e-02 -4.763907e-02 -4.679385e-02 -4.594841e-02 -4.470556e-02 -4.353856e-02 -4.192201e-02 -4.046375e-02 -3.850735e-02 -3.679699e-02 -3.454340e-02 -3.262725e-02 -3.012625e-02 -2.805561e-02 -2.536184e-02 -2.319047e-02 -2.036088e-02 -1.814243e-02 -1.523368e-02 -1.301922e-02 -1.008518e-02 -7.921164e-03 -5.010834e-03 -2.937537e-03 -9.349330e-05 1.855914e-03 4.598383e-03 6.398153e-03 9.011265e-03 1.064281e-02 1.310589e-02 1.455705e-02 1.685563e-02 1.811965e-02 2.024424e-02 2.131857e-02 2.326327e-02 2.414846e-02 2.590963e-02 2.660832e-02 2.818341e-02 2.869969e-02 3.008645e-02 3.042548e-02 3.162153e-02 3.178959e-02 3.279243e-02 3.279726e-02 3.360466e-02 3.345604e-02 3.406676e-02 3.377720e-02 3.419184e-02 3.377723e-02 3.399917e-02 3.347929e-02 3.351545e-02 3.291409e-02 3.277535e-02 3.212004e-02 3.182131e-02 3.114242e-02 3.070208e-02 3.003140e-02 2.947021e-02 2.883900e-02 2.817848e-02 2.761503e-02 2.687548e-02 2.640252e-02 2.560085e-02 2.523298e-02 2.438065e-02 2.412219e-02 2.322360e-02 2.306706e-02 2.211856e-02 2.204419e-02 2.103409e-02 2.101053e-02 1.992005e-02 1.990626e-02 1.871148e-02 1.865977e-02 1.733439e-02 1.719432e-02 1.571290e-02 1.543560e-02 1.377687e-02 1.331940e-02 1.146924e-02 1.079830e-02 8.752063e-03 7.846861e-03 5.610686e-03 4.464507e-03 2.055633e-03 6.761641e-04 -1.877798e-03 -3.469354e-03 -6.131921e-03 -7.902666e-03 -1.063049e-02 -1.253825e-02 -1.528334e-02 -1.727931e-02 -1.999113e-02 -2.202250e-02 -2.464986e-02 -2.666213e-02 -2.915463e-02 -3.109355e-02 -3.340275e-02 -3.521590e-02 
-4.972897e-02 -5.191971e-02 -5.432828e-02 -5.622615e-02 -5.822294e-02 -5.977385e-02 -6.131334e-02 -6.247114e-02 -6.351488e-02 -6.424268e-02 -6.476060e-02 -6.503212e-02 -6.500405e-02 -6.480503e-02 -6.422220e-02 -6.355156e-02 -6.241803e-02 -6.128862e-02 -5.962216e-02 -5.806100e-02 -5.589342e-02 -5.394102e-02 -5.131764e-02 -4.902660e-02 -4.600476e-02 -4.343742e-02 -4.008419e-02 -3.730969e-02 -3.369881e-02 -3.078963e-02 -2.699802e-02 -2.402648e-02 -2.013059e-02 -1.716552e-02 -1.323798e-02 -1.034188e-02 -6.448628e-03 -3.675545e-03 1.262597e-04 2.731951e-03 6.395142e-03 8.799167e-03 1.228682e-02 1.446461e-02 1.774949e-02 1.968514e-02 2.274840e-02 2.443328e-02 2.726279e-02 2.869385e-02 3.128223e-02 3.246047e-02 3.480325e-02 3.573235e-02 3.782643e-02 3.851181e-02 4.035428e-02 4.080267e-02 4.239029e-02 4.260976e-02 4.393895e-02 4.393942e-02 4.500683e-02 4.480086e-02 4.560438e-02 4.520820e-02 4.574817e-02 4.518256e-02 4.546307e-02 4.475415e-02 4.478412e-02 4.396357e-02 4.375744e-02 4.286214e-02 4.243993e-02 4.151086e-02 4.089749e-02 3.997784e-02 3.920169e-02 3.833418e-02 3.742487e-02 3.664849e-02 3.563419e-02 3.498063e-02 3.388507e-02 3.337520e-02 3.221483e-02 3.185564e-02 3.063732e-02 3.041983e-02 2.913951e-02 2.903796e-02 2.768051e-02 2.765323e-02 2.619373e-02 2.618563e-02 2.459198e-02 2.453864e-02 2.277526e-02 2.260822e-02 2.064048e-02 2.029316e-02 1.809188e-02 1.750547e-02 1.505101e-02 1.417971e-02 1.146512e-02 1.027996e-02 7.312812e-03 5.803932e-03 2.606708e-03 7.837578e-04 -2.607094e-03 -4.716134e-03 -8.252260e-03 -1.060357e-02 -1.422742e-02 -1.676463e-02 -2.041245e-02 -2.307026e-02 -2.667490e-02 -2.938260e-02 -3.287603e-02 -3.556063e-02 -3.887586e-02 -4.146472e-02 -4.453724e-02 -4.696012e-02 
-6.265604e-02 -6.543634e-02 -6.849355e-02 -7.090102e-02 -7.343678e-02 -7.540345e-02 -7.736053e-02 -7.882834e-02 -8.015836e-02 -8.108083e-02 -8.174586e-02 -8.208987e-02 -8.206438e-02 -8.181193e-02 -8.108477e-02 -8.023452e-02 -7.881072e-02 -7.737907e-02 -7.528109e-02 -7.330246e-02 -7.057068e-02 -6.809678e-02 -6.478880e-02 -6.188678e-02 -5.807562e-02 -5.482511e-02 -5.059617e-02 -4.708544e-02 -4.253262e-02 -3.885413e-02 -3.407530e-02 -3.032115e-02 -2.541345e-02 -2.167107e-02 -1.672661e-02 -1.307513e-02 -8.177259e-03 -4.684863e-03 9.446784e-05 3.372158e-03 7.973887e-03 1.099425e-02 1.537250e-02 1.810534e-02 2.222666e-02 2.465284e-02 2.849446e-02 3.060402e-02 3.415164e-02 3.594160e-02 3.918688e-02 4.065923e-02 4.359735e-02 4.475726e-02 4.738490e-02 4.823954e-02 5.055342e-02 5.111139e-02 5.310752e-02 5.337892e-02 5.505273e-02 5.504983e-02 5.639683e-02 5.613516e-02 5.715231e-02 5.665199e-02 5.733929e-02 5.662629e-02 5.698852e-02 5.609563e-02 5.614380e-02 5.511101e-02 5.486328e-02 5.373740e-02 5.321917e-02 5.205242e-02 5.129553e-02 5.014310e-02 4.918394e-02 4.810055e-02 4.697720e-02 4.601292e-02 4.476159e-02 4.395713e-02 4.260828e-02 4.199039e-02 4.056494e-02 4.014245e-02 3.864875e-02 3.840975e-02 3.684180e-02 3.675260e-02 3.508982e-02 3.509604e-02 3.330497e-02 3.333483e-02 3.137258e-02 3.134230e-02 2.916145e-02 2.898213e-02 2.653660e-02 2.612206e-02 2.337308e-02 2.264755e-02 1.956905e-02 1.847390e-02 1.505665e-02 1.355545e-02 9.809362e-03 7.890566e-03 3.845160e-03 1.522558e-03 -2.774492e-03 -5.463549e-03 -9.949215e-03 -1.294722e-02 -1.754682e-02 -2.078054e-02 -2.541172e-02 -2.879694e-02 -3.337343e-02 -3.681954e-02 -4.125436e-02 -4.466835e-02 -4.887630e-02 -5.216602e-02 -5.606541e-02 -5.914211e-02 
-7.533287e-02 -7.869475e-02 -8.237182e-02 -8.528604e-02 -8.833794e-02 -9.072183e-02 -9.307895e-02 -9.486162e-02 -9.646461e-02 -9.758898e-02 -9.839090e-02 -9.881587e-02 -9.878454e-02 -9.848728e-02 -9.760790e-02 -9.658582e-02 -9.486330e-02 -9.313551e-02 -9.059616e-02 -8.820392e-02 -8.489613e-02 -8.190206e-02 -7.789561e-02 -7.438143e-02 -6.976524e-02 -6.582819e-02 -6.070663e-02 -5.645463e-02 -5.094264e-02 -4.648881e-02 -4.070621e-02 -3.616316e-02 -3.022886e-02 -2.570332e-02 -1.972980e-02 -1.531814e-02 -9.406907e-03 -5.191783e-03 5.699341e-04 4.521453e-03 1.006255e-02 1.369951e-02 1.896530e-02 2.225208e-02 2.720324e-02 3.011777e-02 3.472815e-02 3.725946e-02 4.151320e-02 4.365869e-02 4.754702e-02 4.930983e-02 5.282803e-02 5.421484e-02 5.735962e-02 5.837915e-02 6.114687e-02 6.180917e-02 6.419494e-02 6.451154e-02 6.650933e-02 6.649411e-02 6.809769e-02 6.776830e-02 6.897299e-02 6.835258e-02 6.915732e-02 6.827623e-02 6.868580e-02 6.758288e-02 6.760983e-02 6.633304e-02 6.599896e-02 6.460502e-02 6.394076e-02 6.249351e-02 6.153827e-02 6.010580e-02 5.890484e-02 5.755525e-02 5.615639e-02 5.495258e-02 5.340174e-02 5.239563e-02 5.073191e-02 4.995854e-02 4.820944e-02 4.768191e-02 4.585942e-02 4.556519e-02 4.366335e-02 4.356277e-02 4.155732e-02 4.158475e-02 3.943509e-02 3.950282e-02 3.715620e-02 3.716107e-02 3.455871e-02 3.439069e-02 3.147503e-02 3.102696e-02 2.774917e-02 2.692643e-02 2.325318e-02 2.198220e-02 1.790078e-02 1.613537e-02 1.165664e-02 9.381407e-03 4.540274e-03 1.771176e-03 -3.375192e-03 -6.593136e-03 -1.196886e-02 -1.556585e-02 -2.108094e-02 -2.496796e-02 -3.052324e-02 -3.459796e-02 -4.008967e-02 -4.424212e-02 -4.956576e-02 -5.368320e-02 -5.873646e-02 -6.270733e-02 -6.739214e-02 -7.110899e-02 
-8.876937e-02 -9.276832e-02 -9.713867e-02 -1.006039e-01 -1.042336e-01 -1.070677e-01 -1.098749e-01 -1.119944e-01 -1.139090e-01 -1.152464e-01 -1.162127e-01 -1.167191e-01 -1.166986e-01 -1.163468e-01 -1.153214e-01 -1.141080e-01 -1.120832e-01 -1.100309e-01 -1.070375e-01 -1.041955e-01 -1.002909e-01 -9.673420e-02 -9.200167e-02 -8.782834e-02 -8.237421e-02 -7.770105e-02 -7.165030e-02 -6.660697e-02 -6.009727e-02 -5.481951e-02 -4.799428e-02 -4.261694e-02 -3.561819e-02 -3.026867e-02 -2.323038e-02 -1.802319e-02 -1.106576e-02 -6.098540e-03 6.752233e-04 5.323922e-03 1.183088e-02 1.610211e-02 2.227910e-02 2.613243e-02 3.193484e-02 3.534608e-02 4.074511e-02 4.370320e-02 4.868224e-02 5.118584e-02 5.573652e-02 5.779079e-02 6.190918e-02 6.352302e-02 6.720646e-02 6.839074e-02 7.163563e-02 7.240231e-02 7.520307e-02 7.556541e-02 7.791461e-02 7.788833e-02 7.977795e-02 7.938304e-02 8.080658e-02 8.006950e-02 8.102469e-02 7.998049e-02 8.047204e-02 7.916613e-02 7.920822e-02 7.769721e-02 7.731510e-02 7.566646e-02 7.489691e-02 7.318714e-02 7.207733e-02 7.038841e-02 6.899318e-02 6.740756e-02 6.578511e-02 6.437925e-02 6.258564e-02 6.142285e-02 5.950581e-02 5.862902e-02 5.662198e-02 5.604731e-02 5.396442e-02 5.367656e-02 5.150962e-02 5.145990e-02 4.917780e-02 4.928554e-02 4.683668e-02 4.699400e-02 4.431159e-02 4.439164e-02 4.140134e-02 4.126900e-02 3.789808e-02 3.742211e-02 3.360889e-02 3.267395e-02 2.837632e-02 2.689347e-02 2.209525e-02 2.000961e-02 1.472411e-02 1.201894e-02 6.289333e-03 2.986261e-03 -3.116876e-03 -6.960935e-03 -1.334434e-02 -1.764285e-02 -2.419653e-02 -2.884042e-02 -3.544389e-02 -4.030896e-02 -4.683702e-02 -5.179088e-02 -5.811831e-02 -6.302616e-02 -6.903116e-02 -7.376041e-02 -7.932686e-02 -8.375048e-02 
-1.018388e-01 -1.064645e-01 -1.114884e-01 -1.155016e-01 -1.196782e-01 -1.229660e-01 -1.262000e-01 -1.286646e-01 -1.308738e-01 -1.324358e-01 -1.335539e-01 -1.341552e-01 -1.341354e-01 -1.337425e-01 -1.325616e-01 -1.311690e-01 -1.288312e-01 -1.264638e-01 -1.230032e-01 -1.197172e-01 -1.151995e-01 -1.110820e-01 -1.056036e-01 -1.007690e-01 -9.445413e-02 -8.903938e-02 -8.203460e-02 -7.619192e-02 -6.865900e-02 -6.254785e-02 -5.465538e-02 -4.843400e-02 -4.034877e-02 -3.416632e-02 -2.604526e-02 -2.003526e-02 -1.201875e-02 -6.294399e-03 1.498444e-03 6.846866e-03 1.432068e-02 1.922630e-02 2.630970e-02 3.072763e-02 3.737135e-02 4.127579e-02 4.744924e-02 5.082962e-02 5.651641e-02 5.937317e-02 6.456621e-02 6.690683e-02 7.160370e-02 7.343938e-02 7.763844e-02 7.898192e-02 8.267969e-02 8.354422e-02 8.673411e-02 8.713381e-02 8.980635e-02 8.975765e-02 9.190206e-02 9.142599e-02 9.303290e-02 9.215787e-02 9.322260e-02 9.198716e-02 9.251327e-02 9.096837e-02 9.097078e-02 8.918106e-02 8.868820e-02 8.673179e-02 8.578631e-02 8.375283e-02 8.241048e-02 8.039706e-02 7.872348e-02 7.682884e-02 7.489448e-02 7.321129e-02 7.108474e-02 6.969094e-02 6.743146e-02 6.638142e-02 6.403150e-02 6.334806e-02 6.092721e-02 6.059582e-02 5.809657e-02 5.806254e-02 5.544958e-02 5.561936e-02 5.283215e-02 5.307888e-02 5.003796e-02 5.021109e-02 4.682721e-02 4.676543e-02 4.295060e-02 4.249645e-02 3.817544e-02 3.718999e-02 3.231061e-02 3.068623e-02 2.522710e-02 2.289685e-02 1.687164e-02 1.381416e-02 7.271967e-03 3.511723e-03 -3.466001e-03 -7.862632e-03 -1.516788e-02 -2.009958e-02 -2.760501e-02 -3.294415e-02 -4.051058e-02 -4.611218e-02 -5.359537e-02 -5.930531e-02 -6.656138e-02 -7.222326e-02 -7.911254e-02 -8.457283e-02 -9.096232e-02 -9.607412e-02 
-1.159563e-01 -1.212829e-01 -1.270584e-01 -1.316786e-01 -1.364842e-01 -1.402694e-01 -1.439967e-01 -1.468354e-01 -1.493902e-01 -1.511913e-01 -1.524972e-01 -1.531934e-01 -1.531959e-01 -1.527480e-01 -1.514192e-01 -1.498200e-01 -1.471633e-01 -1.444411e-01 -1.404948e-01 -1.367145e-01 -1.315539e-01 -1.268163e-01 -1.205529e-01 -1.149914e-01 -1.077694e-01 -1.015439e-01 -9.353371e-02 -8.682196e-02 -7.821200e-02 -7.120005e-02 -6.218640e-02 -5.505837e-02 -4.583456e-02 -3.876330e-02 -2.951074e-02 -2.265008e-02 -1.353015e-02 -7.009436e-03 1.842022e-03 7.920824e-03 1.639633e-02 2.195899e-02 2.997949e-02 3.497763e-02 4.249009e-02 4.689751e-02 5.387070e-02 5.767866e-02 6.409759e-02 6.730965e-02 7.316970e-02 7.579687e-02 8.109815e-02 8.315494e-02 8.789770e-02 8.939948e-02 9.358089e-02 9.454280e-02 9.815553e-02 9.859290e-02 1.016254e-01 1.015556e-01 1.039943e-01 1.034396e-01 1.052718e-01 1.042628e-01 1.054812e-01 1.040604e-01 1.046671e-01 1.028916e-01 1.029024e-01 1.008457e-01 1.002925e-01 9.804462e-02 9.697662e-02 9.464183e-02 9.312427e-02 9.081642e-02 8.892691e-02 8.676253e-02 8.458490e-02 8.267407e-02 8.029034e-02 7.872622e-02 7.620743e-02 7.505552e-02 7.245259e-02 7.174092e-02 6.907690e-02 6.878875e-02 6.605376e-02 6.612415e-02 6.327417e-02 6.359123e-02 6.055126e-02 6.096287e-02 5.763453e-02 5.796004e-02 5.423292e-02 5.427887e-02 5.004413e-02 4.962214e-02 4.478674e-02 4.373141e-02 3.823077e-02 3.641515e-02 3.022263e-02 2.756935e-02 2.070123e-02 1.718807e-02 9.703705e-03 5.363271e-03 -2.639182e-03 -7.724767e-03 -1.611585e-02 -2.182394e-02 -3.045207e-02 -3.663034e-02 -4.533119e-02 -5.180853e-02 -6.041329e-02 -6.700966e-02 -7.535139e-02 -8.188569e-02 -8.980374e-02 -9.609956e-02 -1.034420e-01 -1.093315e-01 
-1.295723e-01 -1.355880e-01 -1.420650e-01 -1.472903e-01 -1.526869e-01 -1.569761e-01 -1.611693e-01 -1.643953e-01 -1.672769e-01 -1.693347e-01 -1.708157e-01 -1.716266e-01 -1.716416e-01 -1.711585e-01 -1.696722e-01 -1.678841e-01 -1.648969e-01 -1.618334e-01 -1.573859e-01 -1.531193e-01 -1.472952e-01 -1.419397e-01 -1.348653e-01 -1.285733e-01 -1.204133e-01 -1.133685e-01 -1.043188e-01 -9.672592e-02 -8.700349e-02 -7.907670e-02 -6.890757e-02 -6.085860e-02 -5.046549e-02 -4.249247e-02 -3.208341e-02 -2.436174e-02 -1.412071e-02 -6.796710e-03 3.122776e-03 9.935139e-03 1.941325e-02 2.563259e-02 3.458304e-02 4.015808e-02 4.852512e-02 5.343013e-02 6.118322e-02 6.541223e-02 7.253928e-02 7.609978e-02 8.260001e-02 8.550711e-02 9.138425e-02 9.365591e-02 9.891268e-02 1.005666e-01 1.052009e-01 1.062533e-01 1.102567e-01 1.107229e-01 1.140808e-01 1.139774e-01 1.166720e-01 1.160207e-01 1.180345e-01 1.168662e-01 1.181874e-01 1.165466e-01 1.171744e-01 1.151229e-01 1.150724e-01 1.126916e-01 1.119974e-01 1.093889e-01 1.081065e-01 1.053896e-01 1.035945e-01 1.009014e-01 9.868474e-02 9.615237e-02 9.361382e-02 9.137323e-02 8.861161e-02 8.677565e-02 8.387777e-02 8.252809e-02 7.955767e-02 7.873275e-02 7.572082e-02 7.540681e-02 7.234531e-02 7.247129e-02 6.931114e-02 6.975008e-02 6.640464e-02 6.698087e-02 6.333475e-02 6.383750e-02 5.975994e-02 5.996193e-02 5.532306e-02 5.500186e-02 4.968973e-02 4.864927e-02 4.258509e-02 4.067433e-02 3.382380e-02 3.095014e-02 2.332933e-02 1.946518e-02 1.114051e-02 6.322784e-03 -2.594252e-03 -8.270873e-03 -1.763291e-02 -2.402694e-02 -3.366179e-02 -4.059803e-02 -5.031974e-02 -5.760233e-02 -6.722075e-02 -7.464462e-02 -8.397264e-02 -9.133247e-02 -1.001907e-01 -1.072873e-01 -1.155063e-01 -1.221507e-01 
-1.445559e-01 -1.513538e-01 -1.586549e-01 -1.645588e-01 -1.706486e-01 -1.754961e-01 -1.802375e-01 -1.838866e-01 -1.871581e-01 -1.894901e-01 -1.911903e-01 -1.921153e-01 -1.921687e-01 -1.916318e-01 -1.899961e-01 -1.879831e-01 -1.846560e-01 -1.811990e-01 -1.762247e-01 -1.714051e-01 -1.648772e-01 -1.588251e-01 -1.508868e-01 -1.437773e-01 -1.346169e-01 -1.266612e-01 -1.165033e-01 -1.079370e-01 -9.703076e-02 -8.810039e-02 -7.670477e-02 -6.765309e-02 -5.602279e-02 -4.707580e-02 -3.544753e-02 -2.680387e-02 -1.538550e-02 -7.209136e-03 3.827687e-03 1.141101e-02 2.193435e-02 2.883701e-02 3.875426e-02 4.492356e-02 5.417755e-02 5.959002e-02 6.815252e-02 7.280685e-02 8.067042e-02 8.457988e-02 9.174922e-02 9.493465e-02 1.014186e-01 1.039027e-01 1.097076e-01 1.115115e-01 1.166366e-01 1.177781e-01 1.222142e-01 1.227090e-01 1.264385e-01 1.263027e-01 1.293029e-01 1.285576e-01 1.308058e-01 1.294824e-01 1.309618e-01 1.291071e-01 1.298134e-01 1.274947e-01 1.274424e-01 1.247500e-01 1.239766e-01 1.210253e-01 1.195936e-01 1.165199e-01 1.145170e-01 1.114737e-01 1.090060e-01 1.061528e-01 1.033378e-01 1.008288e-01 9.778376e-02 9.575270e-02 9.258108e-02 9.112585e-02 8.790379e-02 8.707169e-02 8.383618e-02 8.361257e-02 8.035334e-02 8.065561e-02 7.731254e-02 7.799098e-02 7.445808e-02 7.530461e-02 7.144062e-02 7.220510e-02 6.784984e-02 6.826252e-02 6.325690e-02 6.305440e-02 5.726128e-02 5.621261e-02 4.953551e-02 4.746458e-02 3.986140e-02 3.666279e-02 2.815267e-02 2.379894e-02 1.446166e-02 9.001765e-03 -1.029423e-03 -7.479169e-03 -1.802941e-02 -2.529943e-02 -3.616624e-02 -4.404996e-02 -5.501690e-02 -6.328653e-02 -7.413474e-02 -8.255473e-02 -9.307128e-02 -1.014084e-01 -1.113913e-01 -1.194215e-01 -1.286817e-01 -1.361938e-01 
-1.588795e-01 -1.664473e-01 -1.745129e-01 -1.810960e-01 -1.878356e-01 -1.932532e-01 -1.985135e-01 -2.026060e-01 -2.062492e-01 -2.088814e-01 -2.107904e-01 -2.118583e-01 -2.119434e-01 -2.113809e-01 -2.095889e-01 -2.073757e-01 -2.036984e-01 -1.998666e-01 -1.943486e-01 -1.889870e-01 -1.817305e-01 -1.749844e-01 -1.661492e-01 -1.582163e-01 -1.480152e-01 -1.391356e-01 -1.278241e-01 -1.182666e-01 -1.061287e-01 -9.617441e-02 -8.350592e-02 -7.343109e-02 -6.052204e-02 -5.058289e-02 -3.770174e-02 -2.812189e-02 -1.550269e-02 -6.464876e-03 5.701301e-03 1.405921e-02 2.562815e-02 3.321269e-02 4.408625e-02 5.084428e-02 6.096547e-02 6.687717e-02 7.622218e-02 8.129240e-02 8.986064e-02 9.410974e-02 1.019135e-01 1.053689e-01 1.124236e-01 1.151133e-01 1.214298e-01 1.233777e-01 1.289570e-01 1.301816e-01 1.350128e-01 1.355285e-01 1.395897e-01 1.394097e-01 1.426718e-01 1.418142e-01 1.442466e-01 1.427404e-01 1.443189e-01 1.422109e-01 1.429253e-01 1.402857e-01 1.401478e-01 1.370745e-01 1.361234e-01 1.327434e-01 1.310487e-01 1.275163e-01 1.251773e-01 1.216676e-01 1.188080e-01 1.155067e-01 1.122651e-01 1.093542e-01 1.058705e-01 1.035106e-01 9.991039e-02 9.822240e-02 9.460022e-02 9.364748e-02 9.005231e-02 8.982644e-02 8.625152e-02 8.666436e-02 8.304345e-02 8.392712e-02 8.013865e-02 8.125510e-02 7.713438e-02 7.819408e-02 7.355252e-02 7.424080e-02 6.888968e-02 6.889764e-02 6.267303e-02 6.172876e-02 5.451396e-02 5.240957e-02 4.415147e-02 4.076210e-02 3.147921e-02 2.677157e-02 1.655297e-02 1.058309e-02 -4.205518e-04 -7.518628e-03 -1.910954e-02 -2.714109e-02 -3.909116e-02 -4.782038e-02 -5.988733e-02 -6.905600e-02 -8.099659e-02 -9.033969e-02 -1.019189e-01 -1.111759e-01 -1.221721e-01 -1.310941e-01 -1.413009e-01 -1.496541e-01 
-1.749315e-01 -1.833805e-01 -1.923574e-01 -1.997071e-01 -2.072181e-01 -2.132702e-01 -2.191471e-01 -2.237250e-01 -2.278146e-01 -2.307673e-01 -2.329372e-01 -2.341462e-01 -2.342929e-01 -2.336810e-01 -2.317406e-01 -2.292816e-01 -2.252402e-01 -2.209670e-01 -2.148711e-01 -2.088817e-01 -2.008434e-01 -1.933019e-01 -1.835006e-01 -1.746317e-01 -1.633084e-01 -1.533865e-01 -1.408321e-01 -1.301647e-01 -1.167030e-01 -1.056113e-01 -9.157913e-02 -8.037762e-02 -6.610408e-02 -5.508257e-02 -4.087058e-02 -3.027978e-02 -1.639112e-02 -6.433144e-03 6.921216e-03 1.609690e-02 2.876100e-02 3.705662e-02 4.892812e-02 5.629224e-02 6.731631e-02 7.373530e-02 8.389482e-02 8.938233e-02 9.868600e-02 1.032720e-01 1.117419e-01 1.154627e-01 1.231229e-01 1.260131e-01 1.328805e-01 1.349683e-01 1.410464e-01 1.423517e-01 1.476285e-01 1.481642e-01 1.526130e-01 1.523898e-01 1.559744e-01 1.550070e-01 1.576880e-01 1.560031e-01 1.577477e-01 1.553920e-01 1.561835e-01 1.532311e-01 1.530781e-01 1.496354e-01 1.485790e-01 1.447877e-01 1.429054e-01 1.389401e-01 1.363454e-01 1.324068e-01 1.292434e-01 1.255470e-01 1.219774e-01 1.187362e-01 1.149262e-01 1.123302e-01 1.084294e-01 1.066233e-01 1.027449e-01 1.018067e-01 9.800974e-02 9.793306e-02 9.420946e-02 9.489313e-02 9.116275e-02 9.241054e-02 8.852575e-02 9.005731e-02 8.581765e-02 8.729090e-02 8.246643e-02 8.350936e-02 7.786982e-02 7.811796e-02 7.146342e-02 7.059768e-02 6.278605e-02 6.056535e-02 5.153224e-02 4.781584e-02 3.758384e-02 3.234064e-02 2.101718e-02 1.432153e-02 2.086798e-03 -5.896683e-03 -1.880846e-02 -2.784699e-02 -4.116873e-02 -5.098570e-02 -6.443737e-02 -7.473486e-02 -8.803924e-02 -9.851603e-02 -1.114092e-01 -1.217732e-01 -1.340097e-01 -1.439853e-01 -1.553388e-01 -1.646695e-01 
-1.901332e-01 -1.994521e-01 -2.092724e-01 -2.173938e-01 -2.256295e-01 -2.323355e-01 -2.388006e-01 -2.438943e-01 -2.484163e-01 -2.517271e-01 -2.541536e-01 -2.555445e-01 -2.557530e-01 -2.551315e-01 -2.530418e-01 -2.503714e-01 -2.459593e-01 -2.412706e-01 -2.345801e-01 -2.279778e-01 -2.191291e-01 -2.107947e-01 -1.999862e-01 -1.901720e-01 -1.776744e-01 -1.666911e-01 -1.528338e-01 -1.410306e-01 -1.261815e-01 -1.139232e-01 -9.846528e-02 -8.610821e-02 -7.041472e-02 -5.828561e-02 -4.269819e-02 -3.107724e-02 -1.588859e-02 -4.998827e-03 9.558543e-03 1.955572e-02 3.331398e-02 4.231717e-02 5.517118e-02 6.313228e-02 7.503182e-02 8.194555e-02 9.288337e-02 9.877451e-02 1.087719e-01 1.136821e-01 1.227740e-01 1.267498e-01 1.349711e-01 1.380546e-01 1.454295e-01 1.476526e-01 1.541875e-01 1.555699e-01 1.612506e-01 1.618019e-01 1.665955e-01 1.663206e-01 1.701805e-01 1.690873e-01 1.719626e-01 1.700718e-01 1.719175e-01 1.692721e-01 1.700615e-01 1.667359e-01 1.664714e-01 1.625785e-01 1.613009e-01 1.569953e-01 1.547891e-01 1.502659e-01 1.472593e-01 1.427471e-01 1.391060e-01 1.348538e-01 1.307689e-01 1.270267e-01 1.226953e-01 1.196903e-01 1.152931e-01 1.132032e-01 1.088799e-01 1.078075e-01 1.036355e-01 1.035857e-01 9.956334e-02 1.004307e-01 9.647032e-02 9.803666e-02 9.396958e-02 9.591575e-02 9.150879e-02 9.344014e-02 8.842312e-02 8.990673e-02 8.400705e-02 8.461630e-02 7.759570e-02 7.695571e-02 6.864320e-02 6.647021e-02 5.678589e-02 5.291423e-02 4.188009e-02 3.627302e-02 2.400981e-02 1.675382e-02 3.465861e-03 -5.248384e-03 -1.929610e-02 -2.920100e-02 -4.370838e-02 -5.448877e-02 -6.914398e-02 -8.046377e-02 -9.496126e-02 -1.064841e-01 -1.205359e-01 -1.319390e-01 -1.452796e-01 -1.562604e-01 -1.686466e-01 -1.789254e-01 
-2.074752e-01 -2.177927e-01 -2.286261e-01 -2.376196e-01 -2.467199e-01 -2.541534e-01 -2.613187e-01 -2.669765e-01 -2.720165e-01 -2.757083e-01 -2.784512e-01 -2.800212e-01 -2.803253e-01 -2.796648e-01 -2.774334e-01 -2.744952e-01 -2.696935e-01 -2.645060e-01 -2.571762e-01 -2.498531e-01 -2.401251e-01 -2.308693e-01 -2.189640e-01 -2.080612e-01 -1.942842e-01 -1.820886e-01 -1.668138e-01 -1.537241e-01 -1.373703e-01 -1.238025e-01 -1.068045e-01 -9.316318e-02 -7.594345e-02 -6.259653e-02 -4.553888e-02 -3.279857e-02 -1.622845e-02 -4.339117e-03 1.148908e-02 2.235522e-02 3.726281e-02 4.700311e-02 6.088416e-02 6.945704e-02 8.226874e-02 8.968084e-02 1.014290e-01 1.077199e-01 1.184418e-01 1.236680e-01 1.334145e-01 1.376358e-01 1.464554e-01 1.497233e-01 1.576495e-01 1.600010e-01 1.670440e-01 1.684994e-01 1.746432e-01 1.752088e-01 1.804134e-01 1.800878e-01 1.842956e-01 1.830792e-01 1.862257e-01 1.841326e-01 1.861591e-01 1.832284e-01 1.840966e-01 1.804037e-01 1.801090e-01 1.757746e-01 1.743576e-01 1.695518e-01 1.671053e-01 1.620473e-01 1.587171e-01 1.536679e-01 1.496459e-01 1.448933e-01 1.404033e-01 1.362395e-01 1.315149e-01 1.282089e-01 1.234652e-01 1.212301e-01 1.166359e-01 1.155978e-01 1.112471e-01 1.114181e-01 1.073100e-01 1.085711e-01 1.046007e-01 1.066981e-01 1.026616e-01 1.052203e-01 1.008346e-01 1.033888e-01 9.832514e-02 1.003630e-01 9.428919e-02 9.530728e-02 8.793315e-02 8.749167e-02 7.860963e-02 7.638006e-02 6.589418e-02 6.169123e-02 4.962975e-02 4.342278e-02 2.993289e-02 2.183689e-02 7.164426e-03 -2.585576e-03 -1.812579e-02 -2.920946e-02 -4.526593e-02 -5.731409e-02 -7.352741e-02 -8.615393e-02 -1.021781e-01 -1.150037e-01 -1.305187e-01 -1.431853e-01 -1.579012e-01 -1.700786e-01 -1.837337e-01 -1.951197e-01 
-2.237355e-01 -2.350432e-01 -2.468151e-01 -2.566929e-01 -2.666106e-01 -2.748015e-01 -2.826437e-01 -2.889095e-01 -2.944626e-01 -2.985888e-01 -3.016553e-01 -3.034617e-01 -3.038735e-01 -3.032295e-01 -3.008663e-01 -2.977082e-01 -2.925176e-01 -2.868667e-01 -2.788837e-01 -2.708593e-01 -2.602201e-01 -2.500448e-01 -2.369923e-01 -2.249863e-01 -2.098628e-01 -1.964264e-01 -1.796553e-01 -1.652414e-01 -1.472984e-01 -1.323794e-01 -1.137588e-01 -9.879257e-02 -7.997290e-02 -6.537338e-02 -4.678683e-02 -3.290151e-02 -1.491062e-02 -2.007213e-03 1.510955e-02 2.684771e-02 4.290094e-02 5.337120e-02 6.825640e-02 7.742622e-02 9.111186e-02 9.900314e-02 1.115129e-01 1.181835e-01 1.295754e-01 1.351001e-01 1.454454e-01 1.498991e-01 1.592630e-01 1.627081e-01 1.711349e-01 1.736130e-01 1.811174e-01 1.826474e-01 1.892104e-01 1.897921e-01 1.953641e-01 1.949860e-01 1.994947e-01 1.981451e-01 2.015081e-01 1.991894e-01 2.013293e-01 1.980717e-01 1.989338e-01 1.948092e-01 1.943775e-01 1.895103e-01 1.878218e-01 1.823954e-01 1.795493e-01 1.738067e-01 1.699665e-01 1.642028e-01 1.595891e-01 1.541357e-01 1.490103e-01 1.442093e-01 1.388492e-01 1.350211e-01 1.296864e-01 1.270918e-01 1.219900e-01 1.207923e-01 1.160449e-01 1.162763e-01 1.118937e-01 1.134334e-01 1.093020e-01 1.118699e-01 1.077571e-01 1.109276e-01 1.065044e-01 1.097404e-01 1.046202e-01 1.073260e-01 1.011157e-01 1.027014e-01 9.505545e-02 9.500380e-02 8.567314e-02 8.359748e-02 7.246466e-02 6.814766e-02 5.524135e-02 4.864846e-02 3.413625e-02 2.540354e-02 9.566389e-03 -1.031618e-03 -1.783603e-02 -2.992943e-02 -4.730565e-02 -6.047332e-02 -7.802199e-02 -9.182923e-02 -1.091712e-01 -1.231968e-01 -1.399864e-01 -1.538379e-01 -1.697657e-01 -1.830852e-01 -1.978745e-01 -2.103368e-01 