# vtk DataFile Version 2.0
Comment goes here
ASCII

DATASET STRUCTURED_POINTS
FIELD FieldData 1
TIME 1 1 double
0.00500000
DIMENSIONS    128   128   1

ORIGIN    0.000   0.000   0.000
SPACING   0.039062 0.039062   1.000

POINT_DATA   16384
SCALARS uY double
LOOKUP_TABLE default

-4.845182e-16 2.614791e-17 -1.659485e-15 -1.989169e-15 -9.216567e-16 8.536389e-16 4.984905e-16 2.145923e-15 1.933078e-15 1.232221e-15 -3.497198e-16 -8.646519e-16 -5.408644e-16 2.589405e-16 6.413062e-16 2.098525e-15 3.212013e-15 4.285680e-15 3.757388e-15 3.395800e-15 1.846713e-15 1.982446e-15 1.695734e-15 4.041326e-16 -3.881573e-16 -1.889647e-16 -1.063219e-15 -7.707458e-16 -1.004606e-16 -5.804055e-17 3.270349e-16 9.473308e-16 2.486454e-15 -4.309460e-16 4.396646e-16 5.410882e-16 1.492234e-15 2.040646e-15 1.658366e-15 1.857101e-16 1.392028e-16 -1.559049e-15 2.794563e-16 -1.413685e-15 -1.821121e-15 1.203764e-15 3.377305e-15 -1.126430e-15 3.012087e-15 -2.089407e-15 3.033728e-15 -3.085664e-16 2.271235e-15 2.240103e-15 5.831894e-15 7.503051e-16 2.176908e-15 -1.492605e-15 1.587238e-15 2.679389e-15 4.158967e-15 -2.558921e-15 1.776985e-16 -3.525640e-15 2.516740e-15 1.751190e-16 5.949817e-15 1.071164e-15 8.204929e-16 -3.281049e-15 3.253438e-16 -2.224716e-15 5.696485e-16 -2.587450e-15 5.750122e-16 -3.406803e-15 -9.318761e-16 -4.119995e-15 -7.355050e-16 -1.907139e-15 1.431432e-15 -1.845593e-15 1.505052e-15 -7.426793e-16 2.411690e-15 3.753201e-16 5.109369e-16 -2.271536e-15 1.464386e-15 9.252221e-16 4.420658e-15 3.349228e-15 6.098442e-15 4.778995e-15 5.378784e-15 1.551341e-15 3.366415e-17 -2.462226e-15 -1.381751e-16 2.342322e-16 2.619628e-15 1.202676e-15 1.447952e-15 -2.631387e-17 1.446429e-15 4.938853e-16 1.523428e-15 -1.387429e-16 -4.133484e-16 -1.761588e-15 -1.254664e-15 -9.002546e-16 1.506816e-15 1.373690e-15 1.081826e-16 -9.135317e-16 -1.327446e-16 1.930616e-16 9.185229e-16 1.466369e-15 2.079533e-15 1.453972e-15 1.844896e-15 1.755988e-15 1.073677e-15 4.256022e-16 -2.111313e-16 -1.535156e-15 
-5.087548e-03 -5.421477e-03 -5.021502e-03 -5.352321e-03 -4.906892e-03 -5.224968e-03 -4.735891e-03 -5.030914e-03 -4.500177e-03 -4.761281e-03 -4.191056e-03 -4.407004e-03 -3.799675e-03 -3.959127e-03 -3.317365e-03 -3.409257e-03 -2.736136e-03 -2.750191e-03 -2.049376e-03 -1.976759e-03 -1.252765e-03 -1.086871e-03 -3.453903e-04 -8.274247e-05 6.689720e-04 1.027799e-03 1.780543e-03 2.230063e-03 2.972351e-03 3.501519e-03 4.219401e-03 4.811323e-03 5.488447e-03 6.120604e-03 6.738608e-03 7.383693e-03 7.922972e-03 8.550364e-03 8.991216e-03 9.569038e-03 9.893092e-03 1.039067e-02 1.058247e-02 1.097296e-02 1.102149e-02 1.128427e-02 1.118424e-02 1.130689e-02 1.105956e-02 1.103904e-02 1.065241e-02 1.049531e-02 9.983738e-03 9.705547e-03 9.088698e-03 8.712238e-03 8.013549e-03 7.566729e-03 6.811601e-03 6.324827e-03 5.538737e-03 5.042300e-03 4.249075e-03 3.770818e-03 2.991238e-03 2.554738e-03 1.805597e-03 1.428988e-03 7.226347e-04 4.181032e-04 -2.375595e-04 -4.636674e-04 -1.064820e-03 -1.211421e-03 -1.757712e-03 -1.828087e-03 -2.321881e-03 -2.322626e-03 -2.768228e-03 -2.708190e-03 -3.111109e-03 -3.000420e-03 -3.366730e-03 -3.216001e-03 -3.551799e-03 -3.371515e-03 -3.682500e-03 -3.482610e-03 -3.773742e-03 -3.563434e-03 -3.838678e-03 -3.626293e-03 -3.888437e-03 -3.681488e-03 -3.932018e-03 -3.737268e-03 -3.976323e-03 -3.799874e-03 -4.026274e-03 -3.873639e-03 -4.084996e-03 -3.961130e-03 -4.154044e-03 -4.063322e-03 -4.233639e-03 -4.179788e-03 -4.322914e-03 -4.308912e-03 -4.420131e-03 -4.448095e-03 -4.522876e-03 -4.593953e-03 -4.628209e-03 -4.742499e-03 -4.732777e-03 -4.889276e-03 -4.832871e-03 -5.029462e-03 -4.924454e-03 -5.157918e-03 -5.003150e-03 -5.269200e-03 -5.064212e-03 -5.357544e-03 -5.102475e-03 -5.416817e-03 -5.112304e-03 -5.440468e-03 
-9.328626e-03 -9.766615e-03 -9.257674e-03 -9.703990e-03 -9.101351e-03 -9.541523e-03 -8.846090e-03 -9.264991e-03 -8.477311e-03 -8.859346e-03 -7.979582e-03 -8.308948e-03 -7.336932e-03 -7.597983e-03 -6.533379e-03 -6.711148e-03 -5.553755e-03 -5.634653e-03 -4.384886e-03 -4.357624e-03 -3.017199e-03 -2.873917e-03 -1.446744e-03 -1.184302e-03 3.224399e-04 7.011006e-04 2.275807e-03 2.760405e-03 4.385940e-03 4.957921e-03 6.610771e-03 7.242948e-03 8.892860e-03 9.549875e-03 1.116019e-02 1.179999e-02 1.332884e-02 1.390516e-02 1.530755e-02 1.577340e-02 1.700408e-02 1.731581e-02 1.833262e-02 1.845424e-02 1.922164e-02 1.912872e-02 1.962092e-02 1.930360e-02 1.950694e-02 1.897155e-02 1.888574e-02 1.815477e-02 1.779281e-02 1.690320e-02 1.628996e-02 1.528987e-02 1.445967e-02 1.340414e-02 1.239755e-02 1.134373e-02 1.020405e-02 9.206489e-03 7.976446e-03 7.083038e-03 5.801941e-03 5.050920e-03 3.752619e-03 3.170813e-03 1.882491e-03 1.484851e-03 2.266459e-04 1.688622e-05 -1.197810e-03 -1.225727e-03 -2.389478e-03 -2.249341e-03 -3.359591e-03 -3.070723e-03 -4.128620e-03 -3.713726e-03 -4.722975e-03 -4.206238e-03 -5.172057e-03 -4.577606e-03 -5.505843e-03 -4.856644e-03 -5.753022e-03 -5.070185e-03 -5.939691e-03 -5.242144e-03 -6.088529e-03 -5.392979e-03 -6.218357e-03 -5.539457e-03 -6.344029e-03 -5.694643e-03 -6.476536e-03 -5.868022e-03 -6.623291e-03 -6.065735e-03 -6.788522e-03 -6.290867e-03 -6.973732e-03 -6.543792e-03 -7.178181e-03 -6.822547e-03 -7.399354e-03 -7.123229e-03 -7.633388e-03 -7.440393e-03 -7.875429e-03 -7.767422e-03 -8.119902e-03 -8.096850e-03 -8.360693e-03 -8.420613e-03 -8.591239e-03 -8.730219e-03 -8.804547e-03 -9.016827e-03 -8.993143e-03 -9.271248e-03 -9.148984e-03 -9.483882e-03 -9.263345e-03 -9.644615e-03 -9.326705e-03 -9.742697e-03 
-1.530393e-02 -1.631459e-02 -1.511307e-02 -1.611516e-02 -1.477707e-02 -1.574160e-02 -1.427239e-02 -1.516831e-02 -1.357394e-02 -1.436848e-02 -1.265542e-02 -1.331461e-02 -1.148995e-02 -1.197937e-02 -1.005101e-02 -1.033697e-02 -8.313936e-03 -8.364942e-03 -6.257979e-03 -6.046737e-03 -3.869056e-03 -3.374863e-03 -1.143160e-03 -3.546515e-04 1.909705e-03 2.991660e-03 5.261388e-03 6.620983e-03 8.861807e-03 1.046619e-02 1.263620e-02 1.443448e-02 1.648422e-02 1.840800e-02 2.028161e-02 2.224749e-02 2.388503e-02 2.579909e-02 2.714002e-02 2.890417e-02 2.989178e-02 3.141140e-02 3.199779e-02 3.318987e-02 3.334074e-02 3.414151e-02 3.384016e-02 3.421118e-02 3.346114e-02 3.339302e-02 3.221876e-02 3.173196e-02 3.017758e-02 2.932019e-02 2.744619e-02 2.628891e-02 2.416743e-02 2.279657e-02 2.050570e-02 1.901509e-02 1.663299e-02 1.511584e-02 1.271538e-02 1.125703e-02 8.901507e-03 7.573869e-03 5.314105e-03 4.172084e-03 2.045132e-03 1.125187e-03 -8.456116e-04 -1.525023e-03 -3.328827e-03 -3.765352e-03 -5.401852e-03 -5.606386e-03 -7.083457e-03 -7.076850e-03 -8.408139e-03 -8.217901e-03 -9.420581e-03 -9.077908e-03 -1.017073e-02 -9.708065e-03 -1.070976e-02 -1.015896e-02 -1.108695e-02 -1.047810e-02 -1.134753e-02 -1.070826e-02 -1.153121e-02 -1.088654e-02 -1.167148e-02 -1.104388e-02 -1.179533e-02 -1.120498e-02 -1.192332e-02 -1.138846e-02 -1.207005e-02 -1.160719e-02 -1.224466e-02 -1.186869e-02 -1.245158e-02 -1.217569e-02 -1.269124e-02 -1.252671e-02 -1.296080e-02 -1.291668e-02 -1.325487e-02 -1.333761e-02 -1.356604e-02 -1.377917e-02 -1.388539e-02 -1.422926e-02 -1.420281e-02 -1.467442e-02 -1.450713e-02 -1.510012e-02 -1.478625e-02 -1.549092e-02 -1.502708e-02 -1.583054e-02 -1.521543e-02 -1.610170e-02 -1.533586e-02 -1.628607e-02 -1.537150e-02 -1.636404e-02 
-1.873013e-02 -1.961977e-02 -1.860072e-02 -1.950782e-02 -1.830164e-02 -1.919711e-02 -1.780570e-02 -1.865909e-02 -1.708358e-02 -1.786344e-02 -1.610409e-02 -1.677846e-02 -1.483477e-02 -1.537184e-02 -1.324283e-02 -1.361196e-02 -1.129675e-02 -1.146985e-02 -8.968584e-03 -8.921938e-03 -6.237159e-03 -5.953753e-03 -3.092209e-03 -2.564406e-03 4.607083e-04 1.228283e-03 4.394859e-03 5.382583e-03 8.657193e-03 9.828318e-03 1.316429e-02 1.446398e-02 1.780048e-02 1.915656e-02 2.241907e-02 2.374491e-02 2.684761e-02 2.804724e-02 3.089728e-02 3.187263e-02 3.437610e-02 3.503560e-02 3.710472e-02 3.737245e-02 3.893298e-02 3.875706e-02 3.975507e-02 3.911414e-02 3.952108e-02 3.842783e-02 3.824320e-02 3.674436e-02 3.599552e-02 3.416819e-02 3.290738e-02 3.085215e-02 2.915120e-02 2.698298e-02 2.492650e-02 2.276430e-02 2.044223e-02 1.839921e-02 1.589981e-02 1.407475e-02 1.147871e-02 9.949833e-03 7.326053e-03 6.147477e-03 3.550704e-03 2.751695e-03 2.219022e-04 -1.915911e-04 -2.628410e-03 -2.670469e-03 -5.000515e-03 -4.700927e-03 -6.920268e-03 -6.319837e-03 -8.431917e-03 -7.577957e-03 -9.591221e-03 -8.533628e-03 -1.045941e-02 -9.247550e-03 -1.109829e-02 -9.778789e-03 -1.156655e-02 -1.018195e-02 -1.191721e-02 -1.050541e-02 -1.219606e-02 -1.079031e-02 -1.244087e-02 -1.107021e-02 -1.268122e-02 -1.137109e-02 -1.293882e-02 -1.171171e-02 -1.322810e-02 -1.210405e-02 -1.355706e-02 -1.255394e-02 -1.392822e-02 -1.306175e-02 -1.433964e-02 -1.362317e-02 -1.478585e-02 -1.422998e-02 -1.525877e-02 -1.487092e-02 -1.574843e-02 -1.553245e-02 -1.624349e-02 -1.619937e-02 -1.673163e-02 -1.685538e-02 -1.719972e-02 -1.748344e-02 -1.763381e-02 -1.806584e-02 -1.801904e-02 -1.858428e-02 -1.833945e-02 -1.901966e-02 -1.857770e-02 -1.935188e-02 -1.871485e-02 -1.955956e-02 
-2.564362e-02 -2.735768e-02 -2.534977e-02 -2.705210e-02 -2.481591e-02 -2.645795e-02 -2.400264e-02 -2.553225e-02 -2.286775e-02 -2.422971e-02 -2.136674e-02 -2.250356e-02 -1.945369e-02 -2.030679e-02 -1.708278e-02 -1.759429e-02 -1.421061e-02 -1.432588e-02 -1.079954e-02 -1.047040e-02 -6.822319e-03 -6.011215e-03 -2.267898e-03 -9.526950e-04 2.851611e-03 4.672466e-03 8.493482e-03 1.079597e-02 1.457727e-02 1.730774e-02 2.097935e-02 2.405235e-02 2.753059e-02 3.082939e-02 3.401858e-02 3.739918e-02 4.019552e-02 4.349437e-02 4.579204e-02 4.883718e-02 5.053623e-02 5.316095e-02 5.417620e-02 5.623371e-02 5.650355e-02 5.788081e-02 5.737456e-02 5.800339e-02 5.672611e-02 5.658996e-02 5.458390e-02 5.371937e-02 5.106163e-02 4.955435e-02 4.635104e-02 4.432661e-02 4.070424e-02 3.831549e-02 3.441073e-02 3.182306e-02 2.777209e-02 2.514886e-02 2.107790e-02 1.856755e-02 1.458526e-02 1.231157e-02 8.504160e-03 6.560254e-03 2.989387e-03 1.435561e-03 -1.861190e-03 -2.996273e-03 -6.003010e-03 -6.718581e-03 -9.437391e-03 -9.755250e-03 -1.220193e-02 -1.216048e-02 -1.436027e-02 -1.400864e-02 -1.599232e-02 -1.538523e-02 -1.718583e-02 -1.637938e-02 -1.802953e-02 -1.707815e-02 -1.860801e-02 -1.756256e-02 -1.899819e-02 -1.790498e-02 -1.926714e-02 -1.816773e-02 -1.947096e-02 -1.840250e-02 -1.965448e-02 -1.865030e-02 -1.985159e-02 -1.894181e-02 -2.008593e-02 -1.929797e-02 -2.037202e-02 -1.973075e-02 -2.071639e-02 -2.024405e-02 -2.111893e-02 -2.083467e-02 -2.157419e-02 -2.149349e-02 -2.207249e-02 -2.220649e-02 -2.260102e-02 -2.295586e-02 -2.314452e-02 -2.372096e-02 -2.368593e-02 -2.447902e-02 -2.420657e-02 -2.520566e-02 -2.468633e-02 -2.587512e-02 -2.510350e-02 -2.646032e-02 -2.543458e-02 -2.693264e-02 -2.565402e-02 -2.726171e-02 -2.573389e-02 -2.741503e-02 
-2.827634e-02 -2.964508e-02 -2.811345e-02 -2.951041e-02 -2.769881e-02 -2.907999e-02 -2.699151e-02 -2.831082e-02 -2.594721e-02 -2.715687e-02 -2.451843e-02 -2.556961e-02 -2.265521e-02 -2.349895e-02 -2.030641e-02 -2.089501e-02 -1.742183e-02 -1.771085e-02 -1.395553e-02 -1.390655e-02 -9.870628e-03 -9.454780e-03 -5.145620e-03 -4.347885e-03 2.177654e-04 1.393823e-03 6.185752e-03 7.713295e-03 1.268370e-02 1.450875e-02 1.958875e-02 2.162809e-02 2.672569e-02 2.886747e-02 3.386799e-02 3.597584e-02 4.074522e-02 4.266629e-02 4.705781e-02 4.863428e-02 5.249828e-02 5.358154e-02 5.677713e-02 5.724292e-02 5.965044e-02 5.941296e-02 6.094524e-02 5.996809e-02 6.057908e-02 5.888130e-02 5.857046e-02 5.622669e-02 5.503871e-02 5.217310e-02 5.019286e-02 4.696760e-02 4.431130e-02 4.091138e-02 3.771507e-02 3.433132e-02 3.073861e-02 2.755132e-02 2.370189e-02 2.086695e-02 1.688708e-02 1.452619e-02 1.052219e-02 8.717557e-03 4.772377e-03 3.566024e-03 -2.613311e-04 -8.645035e-04 -4.537224e-03 -4.563660e-03 -8.063911e-03 -7.564092e-03 -1.088905e-02 -9.929769e-03 -1.308756e-02 -1.174466e-02 -1.475058e-02 -1.310278e-02 -1.597607e-02 -1.410019e-02 -1.686135e-02 -1.482902e-02 -1.749767e-02 -1.537343e-02 -1.796653e-02 -1.580724e-02 -1.833763e-02 -1.619265e-02 -1.866782e-02 -1.657997e-02 -1.900115e-02 -1.700780e-02 -1.936941e-02 -1.750367e-02 -1.979322e-02 -1.808481e-02 -2.028339e-02 -1.875909e-02 -2.084246e-02 -1.952611e-02 -2.146629e-02 -2.037838e-02 -2.214562e-02 -2.130259e-02 -2.286742e-02 -2.228088e-02 -2.361602e-02 -2.329208e-02 -2.437400e-02 -2.431278e-02 -2.512263e-02 -2.531812e-02 -2.584221e-02 -2.628231e-02 -2.651194e-02 -2.717883e-02 -2.710978e-02 -2.798038e-02 -2.761208e-02 -2.865861e-02 -2.799316e-02 -2.918369e-02 -2.822488e-02 -2.952388e-02 
-3.618688e-02 -3.864899e-02 -3.582647e-02 -3.827758e-02 -3.513417e-02 -3.750583e-02 -3.405451e-02 -3.627299e-02 -3.252769e-02 -3.451455e-02 -3.049008e-02 -3.216310e-02 -2.787527e-02 -2.914990e-02 -2.461581e-02 -2.540754e-02 -2.064617e-02 -2.087388e-02 -1.590725e-02 -1.549779e-02 -1.035277e-02 -9.246940e-03 -3.957728e-03 -2.117437e-03 3.271142e-03 5.854857e-03 1.128364e-02 1.458259e-02 1.997441e-02 2.391637e-02 2.917331e-02 3.363772e-02 3.864017e-02 4.345797e-02 4.806656e-02 5.302545e-02 5.708643e-02 6.194207e-02 6.529641e-02 6.978932e-02 7.228492e-02 7.616163e-02 7.766727e-02 8.070337e-02 8.112277e-02 8.314481e-02 8.242849e-02 8.333174e-02 8.148488e-02 8.124418e-02 7.832913e-02 7.700127e-02 7.313397e-02 7.085122e-02 6.619202e-02 6.314763e-02 5.788770e-02 5.431566e-02 4.866076e-02 4.481268e-02 3.896665e-02 3.508887e-02 2.923879e-02 2.555262e-02 1.985741e-02 1.654452e-02 1.112784e-02 8.321736e-03 3.269431e-03 1.053037e-03 -3.585516e-03 -5.177066e-03 -9.384608e-03 -1.035745e-02 -1.414273e-02 -1.453554e-02 -1.792657e-02 -1.780115e-02 -2.083862e-02 -2.027094e-02 -2.300255e-02 -2.207498e-02 -2.455071e-02 -2.334605e-02 -2.561450e-02 -2.421170e-02 -2.631733e-02 -2.478900e-02 -2.677005e-02 -2.518134e-02 -2.706817e-02 -2.547689e-02 -2.729071e-02 -2.574809e-02 -2.750005e-02 -2.605191e-02 -2.774260e-02 -2.643050e-02 -2.805008e-02 -2.691213e-02 -2.844109e-02 -2.751230e-02 -2.892301e-02 -2.823506e-02 -2.949392e-02 -2.907445e-02 -3.014452e-02 -3.001612e-02 -3.085990e-02 -3.103899e-02 -3.162101e-02 -3.211683e-02 -3.240576e-02 -3.321971e-02 -3.318980e-02 -3.431505e-02 -3.394691e-02 -3.536837e-02 -3.464901e-02 -3.634358e-02 -3.526600e-02 -3.720296e-02 -3.576538e-02 -3.790683e-02 -3.611176e-02 -3.841309e-02 -3.626643e-02 -3.867667e-02 
-3.803689e-02 -3.992624e-02 -3.787795e-02 -3.980873e-02 -3.738864e-02 -3.930163e-02 -3.651432e-02 -3.834731e-02 -3.519533e-02 -3.688361e-02 -3.336722e-02 -3.484416e-02 -3.096125e-02 -3.215935e-02 -2.790578e-02 -2.875829e-02 -2.412861e-02 -2.457201e-02 -1.956107e-02 -1.953866e-02 -1.414418e-02 -1.361098e-02 -7.837379e-03 -6.766226e-03 -6.297434e-04 9.815410e-04 7.446722e-03 9.567965e-03 1.630315e-02 1.886527e-02 2.578133e-02 2.867211e-02 3.564558e-02 3.870937e-02 4.558195e-02 4.862470e-02 5.520742e-02 5.800780e-02 6.409041e-02 6.641669e-02 7.178198e-02 7.341337e-02 7.785497e-02 7.860478e-02 8.194628e-02 8.168381e-02 8.379630e-02 8.246401e-02 8.327946e-02 8.090265e-02 8.042082e-02 7.710808e-02 7.539601e-02 7.132998e-02 6.851411e-02 6.393386e-02 6.018614e-02 5.536371e-02 5.088393e-02 4.609835e-02 4.109533e-02 3.660784e-02 3.128211e-02 2.731558e-02 2.184558e-02 1.857041e-02 1.310329e-02 1.063052e-02 5.277952e-03 3.659313e-03 -1.502382e-03 -2.268831e-03 -7.195250e-03 -7.155626e-03 -1.182886e-02 -1.106206e-02 -1.548448e-02 -1.409053e-02 -1.827870e-02 -1.636817e-02 -2.034748e-02 -1.803269e-02 -2.183294e-02 -1.922144e-02 -2.287337e-02 -2.006366e-02 -2.359622e-02 -2.067553e-02 -2.411362e-02 -2.115747e-02 -2.452008e-02 -2.159309e-02 -2.489162e-02 -2.204920e-02 -2.528614e-02 -2.257646e-02 -2.574444e-02 -2.321036e-02 -2.629198e-02 -2.397242e-02 -2.694082e-02 -2.487150e-02 -2.769192e-02 -2.590522e-02 -2.853744e-02 -2.706167e-02 -2.946292e-02 -2.832112e-02 -3.044926e-02 -2.965792e-02 -3.147426e-02 -3.104222e-02 -3.251384e-02 -3.244157e-02 -3.354270e-02 -3.382202e-02 -3.453454e-02 -3.514885e-02 -3.546196e-02 -3.638678e-02 -3.629608e-02 -3.749980e-02 -3.700596e-02 -3.845070e-02 -3.755797e-02 -3.920038e-02 -3.791521e-02 -3.970720e-02 
-4.701099e-02 -5.028399e-02 -4.663505e-02 -4.990337e-02 -4.583979e-02 -4.901476e-02 -4.455352e-02 -4.753929e-02 -4.269838e-02 -4.539236e-02 -4.019062e-02 -4.248434e-02 -3.694149e-02 -3.872216e-02 -3.285898e-02 -3.401208e-02 -2.785097e-02 -2.826429e-02 -2.183051e-02 -2.139998e-02 -1.472378e-02 -1.336137e-02 -6.481382e-03 -4.125052e-03 2.907036e-03 6.281702e-03 1.339549e-02 1.776303e-02 2.486339e-02 3.013730e-02 3.709926e-02 4.312404e-02 4.979016e-02 5.633924e-02 6.252100e-02 6.930255e-02 7.478718e-02 8.145917e-02 8.602226e-02 9.221654e-02 9.563979e-02 1.009931e-01 1.030853e-01 1.072736e-01 1.078919e-01 1.106636e-01 1.097318e-01 1.109348e-01 1.084559e-01 1.080539e-01 1.041138e-01 1.021904e-01 9.695307e-02 9.370162e-02 8.739530e-02 8.309694e-02 7.599364e-02 7.098667e-02 6.337782e-02 5.802294e-02 5.019480e-02 4.484112e-02 3.705305e-02 3.200938e-02 2.447764e-02 1.999202e-02 1.288032e-02 9.129039e-03 2.545993e-03 -3.681375e-04 -6.365677e-03 -8.407599e-03 -1.380713e-02 -1.499860e-02 -1.982230e-02 -2.022830e-02 -2.452290e-02 -2.423761e-02 -2.806504e-02 -2.719894e-02 -3.062848e-02 -2.929768e-02 -3.239990e-02 -3.071811e-02 -3.356035e-02 -3.163357e-02 -3.427674e-02 -3.220037e-02 -3.469648e-02 -3.255449e-02 -3.494477e-02 -3.281040e-02 -3.512365e-02 -3.306107e-02 -3.531238e-02 -3.337875e-02 -3.556868e-02 -3.381615e-02 -3.593068e-02 -3.440775e-02 -3.641926e-02 -3.517127e-02 -3.704065e-02 -3.610946e-02 -3.778920e-02 -3.721196e-02 -3.865007e-02 -3.845757e-02 -3.960159e-02 -3.981651e-02 -4.061736e-02 -4.125276e-02 -4.166770e-02 -4.272599e-02 -4.272062e-02 -4.419310e-02 -4.374226e-02 -4.560919e-02 -4.469680e-02 -4.692787e-02 -4.554612e-02 -4.810110e-02 -4.624916e-02 -4.907862e-02 -4.676120e-02 -4.980714e-02 -4.703317e-02 -5.022953e-02 
-4.807809e-02 -5.054395e-02 -4.797284e-02 -5.049665e-02 -4.746352e-02 -4.997046e-02 -4.648181e-02 -4.889317e-02 -4.495260e-02 -4.718608e-02 -4.279386e-02 -4.476404e-02 -3.991680e-02 -4.153602e-02 -3.622684e-02 -3.740680e-02 -3.162575e-02 -3.228026e-02 -2.601593e-02 -2.606515e-02 -1.930762e-02 -1.868430e-02 -1.142993e-02 -1.008766e-02 -2.346033e-03 -2.694835e-04 7.927787e-03 1.071167e-02 1.930090e-02 2.271216e-02 3.158790e-02 3.548564e-02 4.449338e-02 4.867315e-02 5.760681e-02 6.180579e-02 7.041206e-02 7.432352e-02 8.231432e-02 8.561135e-02 9.268411e-02 9.505050e-02 1.009143e-01 1.020791e-01 1.064832e-01 1.062535e-01 1.090141e-01 1.073016e-01 1.083215e-01 1.051573e-01 1.044373e-01 9.997311e-02 9.761043e-02 9.210499e-02 8.828150e-02 8.207427e-02 7.703534e-02 7.051137e-02 6.453930e-02 5.809064e-02 5.147679e-02 4.546616e-02 3.848574e-02 3.321716e-02 2.610990e-02 2.180934e-02 1.476746e-02 1.157478e-02 4.738537e-03 2.709484e-03 -3.830905e-03 -4.714577e-03 -1.091255e-02 -1.072803e-02 -1.657182e-02 -1.543806e-02 -2.094132e-02 -1.900219e-02 -2.419530e-02 -2.160485e-02 -2.652768e-02 -2.343839e-02 -2.813482e-02 -2.468924e-02 -2.920297e-02 -2.552868e-02 -2.990020e-02 -2.610757e-02 -3.037163e-02 -2.655402e-02 -3.073741e-02 -2.697303e-02 -3.109244e-02 -2.744728e-02 -3.150731e-02 -2.803846e-02 -3.203023e-02 -2.878888e-02 -3.268941e-02 -2.972302e-02 -3.349596e-02 -3.084925e-02 -3.444695e-02 -3.216161e-02 -3.552863e-02 -3.364195e-02 -3.671938e-02 -3.526232e-02 -3.799242e-02 -3.698745e-02 -3.931791e-02 -3.877733e-02 -4.066443e-02 -4.058927e-02 -4.199980e-02 -4.237955e-02 -4.329130e-02 -4.410430e-02 -4.450530e-02 -4.571965e-02 -4.560664e-02 -4.718135e-02 -4.655772e-02 -4.844399e-02 -4.731759e-02 -4.945994e-02 -4.784110e-02 -5.017830e-02 
-5.818887e-02 -6.235404e-02 -5.786292e-02 -6.203712e-02 -5.703639e-02 -6.111050e-02 -5.562139e-02 -5.947701e-02 -5.352166e-02 -5.703121e-02 -5.063249e-02 -5.365970e-02 -4.684107e-02 -4.924228e-02 -4.202762e-02 -4.365429e-02 -3.606820e-02 -3.677123e-02 -2.884001e-02 -2.847650e-02 -2.023043e-02 -1.867356e-02 -1.015105e-02 -7.303206e-03 1.442890e-03 5.633821e-03 1.452785e-02 2.005036e-02 2.898434e-02 3.574554e-02 4.457011e-02 5.238173e-02 6.090014e-02 6.947225e-02 7.744004e-02 8.638625e-02 9.351897e-02 1.023756e-01 1.083657e-01 1.166248e-01 1.211668e-01 1.283208e-01 1.311423e-01 1.367346e-01 1.376277e-01 1.413016e-01 1.401512e-01 1.416903e-01 1.384931e-01 1.378465e-01 1.327171e-01 1.300050e-01 1.231692e-01 1.186679e-01 1.104423e-01 1.045517e-01 9.531351e-02 8.851091e-02 7.866185e-02 7.145102e-02 6.138145e-02 5.424299e-02 4.430078e-02 3.765153e-02 2.811966e-02 2.228495e-02 1.336971e-02 8.570413e-03 3.998965e-04 -3.247087e-03 -1.061601e-02 -1.308661e-02 -1.965585e-02 -2.100102e-02 -2.681633e-02 -2.714141e-02 -3.227760e-02 -3.172201e-02 -3.627006e-02 -3.498948e-02 -3.904635e-02 -3.719864e-02 -4.085996e-02 -3.859509e-02 -4.195021e-02 -3.940408e-02 -4.253273e-02 -3.982439e-02 -4.279432e-02 -4.002584e-02 -4.289075e-02 -4.014914e-02 -4.294673e-02 -4.030701e-02 -4.305712e-02 -4.058587e-02 -4.328904e-02 -4.104762e-02 -4.368471e-02 -4.173143e-02 -4.426461e-02 -4.265558e-02 -4.503112e-02 -4.381954e-02 -4.597218e-02 -4.520637e-02 -4.706496e-02 -4.678567e-02 -4.827904e-02 -4.851674e-02 -4.957915e-02 -5.035172e-02 -5.092705e-02 -5.223838e-02 -5.228273e-02 -5.412217e-02 -5.360469e-02 -5.594742e-02 -5.484981e-02 -5.765761e-02 -5.597252e-02 -5.919495e-02 -5.692394e-02 -6.049938e-02 -5.765071e-02 -6.150729e-02 -5.809407e-02 -6.215031e-02 
-5.846157e-02 -6.157458e-02 -5.847183e-02 -6.166346e-02 -5.801081e-02 -6.119036e-02 -5.699682e-02 -6.006881e-02 -5.533943e-02 -5.820351e-02 -5.293882e-02 -5.548989e-02 -4.968526e-02 -5.181389e-02 -4.545903e-02 -4.705266e-02 -4.013161e-02 -4.107711e-02 -3.356926e-02 -3.375746e-02 -2.564041e-02 -2.497348e-02 -1.622864e-02 -1.463076e-02 -5.252180e-03 -2.683610e-03 7.309643e-03 1.083590e-02 2.138483e-02 2.578595e-02 3.677605e-02 4.188505e-02 5.313329e-02 5.869175e-02 6.993985e-02 7.560175e-02 8.651961e-02 9.186917e-02 1.020706e-01 1.066547e-01 1.157256e-01 1.190983e-01 1.266347e-01 1.284076e-01 1.340580e-01 1.339498e-01 1.374551e-01 1.353315e-01 1.365551e-01 1.324520e-01 1.313964e-01 1.255222e-01 1.223270e-01 1.150428e-01 1.099662e-01 1.017471e-01 9.513460e-02 8.651701e-02 7.876134e-02 7.028682e-02 6.178694e-02 5.394911e-02 4.507432e-02 3.827760e-02 2.934089e-02 2.387502e-02 1.511817e-02 1.114970e-02 2.739647e-03 3.183346e-04 -7.647239e-03 -8.571036e-03 -1.605224e-02 -1.560395e-02 -2.260459e-02 -2.096005e-02 -2.751371e-02 -2.487542e-02 -3.103349e-02 -2.761070e-02 -3.343314e-02 -2.942684e-02 -3.497567e-02 -3.056849e-02 -3.590349e-02 -3.125426e-02 -3.642994e-02 -3.167204e-02 -3.673526e-02 -3.197800e-02 -3.696549e-02 -3.229773e-02 -3.723337e-02 -3.272841e-02 -3.762041e-02 -3.334123e-02 -3.817973e-02 -3.418367e-02 -3.893947e-02 -3.528153e-02 -3.990664e-02 -3.664085e-02 -4.107129e-02 -3.825000e-02 -4.241072e-02 -4.008222e-02 -4.389354e-02 -4.209875e-02 -4.548314e-02 -4.425226e-02 -4.714054e-02 -4.649037e-02 -4.882616e-02 -4.875863e-02 -5.050080e-02 -5.100264e-02 -5.212557e-02 -5.316917e-02 -5.366133e-02 -5.520617e-02 -5.506748e-02 -5.706198e-02 -5.630071e-02 -5.868399e-02 -5.731361e-02 -6.001708e-02 -5.805353e-02 -6.100212e-02 
-6.978749e-02 -7.494469e-02 -6.959136e-02 -7.478051e-02 -6.882146e-02 -7.391306e-02 -6.737397e-02 -7.222698e-02 -6.513435e-02 -6.959568e-02 -6.197659e-02 -6.588092e-02 -5.776263e-02 -6.093291e-02 -5.234218e-02 -5.459154e-02 -4.555417e-02 -4.668981e-02 -3.723083e-02 -3.706125e-02 -2.720684e-02 -2.555321e-02 -1.533524e-02 -1.204815e-02 -1.512278e-03 3.506240e-03 1.428867e-02 2.105881e-02 3.197595e-02 4.041248e-02 5.129660e-02 6.118478e-02 7.180012e-02 8.278153e-02 9.281992e-02 1.043945e-01 1.134829e-01 1.250321e-01 1.327546e-01 1.435863e-01 1.495194e-01 1.589314e-01 1.626895e-01 1.700429e-01 1.713256e-01 1.761184e-01 1.747525e-01 1.766790e-01 1.726483e-01 1.716372e-01 1.650923e-01 1.613152e-01 1.525640e-01 1.464132e-01 1.358912e-01 1.279308e-01 1.161559e-01 1.070539e-01 9.457427e-02 8.502677e-02 7.236801e-02 6.302788e-02 5.064870e-02 4.206842e-02 3.033034e-02 2.292560e-02 1.207891e-02 6.114597e-03 -3.700086e-03 -8.104074e-03 -1.684233e-02 -1.969072e-02 -2.738380e-02 -2.877740e-02 -3.550941e-02 -3.561422e-02 -4.150096e-02 -4.051945e-02 -4.569109e-02 -4.383825e-02 -4.842676e-02 -4.591225e-02 -5.004329e-02 -4.705949e-02 -5.084770e-02 -4.756323e-02 -5.110959e-02 -4.766724e-02 -5.105725e-02 -4.757531e-02 -5.087715e-02 -4.745329e-02 -5.071539e-02 -4.743196e-02 -5.068030e-02 -4.761010e-02 -5.084566e-02 -4.805702e-02 -5.125449e-02 -4.881477e-02 -5.192335e-02 -4.990010e-02 -5.284702e-02 -5.130674e-02 -5.400345e-02 -5.300830e-02 -5.535854e-02 -5.496202e-02 -5.687045e-02 -5.711307e-02 -5.849313e-02 -5.939901e-02 -6.017865e-02 -6.175365e-02 -6.187854e-02 -6.410979e-02 -6.354399e-02 -6.640069e-02 -6.512521e-02 -6.856020e-02 -6.657022e-02 -7.052171e-02 -6.782335e-02 -7.221662e-02 -6.882365e-02 -7.357232e-02 -6.950351e-02 -7.451035e-02 
-6.924285e-02 -7.308880e-02 -6.944214e-02 -7.339222e-02 -6.911109e-02 -7.305872e-02 -6.815525e-02 -7.198816e-02 -6.646949e-02 -7.006923e-02 -6.393676e-02 -6.717810e-02 -6.042641e-02 -6.317697e-02 -5.579242e-02 -5.791285e-02 -4.987241e-02 -5.121809e-02 -4.248905e-02 -4.291416e-02 -3.345610e-02 -3.282154e-02 -2.259199e-02 -2.077843e-02 -9.743608e-03 -6.670293e-03 5.178235e-03 9.529399e-03 2.215286e-02 2.771048e-02 4.099832e-02 4.757669e-02 6.132394e-02 6.860692e-02 8.249973e-02 9.004025e-02 1.036559e-01 1.108967e-01 1.237226e-01 1.300402e-01 1.415128e-01 1.462805e-01 1.558405e-01 1.585033e-01 1.656587e-01 1.658069e-01 1.701927e-01 1.676227e-01 1.690473e-01 1.637973e-01 1.622663e-01 1.546212e-01 1.503348e-01 1.407971e-01 1.341221e-01 1.233544e-01 1.147757e-01 1.035230e-01 9.358479e-02 8.259071e-02 7.183556e-02 6.176599e-02 5.068388e-02 4.206913e-02 3.106128e-02 2.426341e-02 1.362472e-02 8.830569e-03 -1.250877e-03 -4.014944e-03 -1.344549e-02 -1.428410e-02 -2.304461e-02 -2.215683e-02 -3.028061e-02 -2.792290e-02 -3.547546e-02 -3.192883e-02 -3.899182e-02 -3.453579e-02 -4.119571e-02 -3.608982e-02 -4.243121e-02 -3.690367e-02 -4.300534e-02 -3.724786e-02 -4.318080e-02 -3.734834e-02 -4.317395e-02 -3.738821e-02 -4.315588e-02 -3.751148e-02 -4.325511e-02 -3.782739e-02 -4.356121e-02 -3.841435e-02 -4.412879e-02 -3.932301e-02 -4.498206e-02 -4.057857e-02 -4.611981e-02 -4.218263e-02 -4.752082e-02 -4.411532e-02 -4.914942e-02 -4.633820e-02 -5.096090e-02 -4.879820e-02 -5.290607e-02 -5.143249e-02 -5.493494e-02 -5.417330e-02 -5.699890e-02 -5.695225e-02 -5.905166e-02 -5.970321e-02 -6.104888e-02 -6.236358e-02 -6.294698e-02 -6.487389e-02 -6.470127e-02 -6.717641e-02 -6.626404e-02 -6.921290e-02 -6.758263e-02 -7.092228e-02 -6.859787e-02 -7.223852e-02 
-8.186618e-02 -8.813384e-02 -8.189357e-02 -8.822709e-02 -8.128408e-02 -8.753416e-02 -7.991864e-02 -8.592210e-02 -7.766513e-02 -8.324353e-02 -7.437686e-02 -7.933528e-02 -6.989060e-02 -7.401681e-02 -6.402426e-02 -6.708905e-02 -5.657537e-02 -5.833517e-02 -4.732225e-02 -4.752544e-02 -3.603078e-02 -3.442994e-02 -2.247074e-02 -1.884256e-02 -6.445396e-03 -6.197395e-04 1.216315e-02 2.026585e-02 3.333412e-02 4.366038e-02 5.684009e-02 6.916295e-02 8.218369e-02 9.607418e-02 1.085564e-01 1.233779e-01 1.348381e-01 1.497721e-01 1.596503e-01 1.737572e-01 1.814670e-01 1.937759e-01 1.987708e-01 2.083883e-01 2.102329e-01 2.164508e-01 2.148852e-01 2.172710e-01 2.122554e-01 2.107086e-01 2.024399e-01 1.972056e-01 1.861034e-01 1.777389e-01 1.644020e-01 1.537039e-01 1.388441e-01 1.267465e-01 1.111108e-01 9.857365e-02 8.286712e-02 7.077272e-02 5.559530e-02 4.466820e-02 3.047386e-02 2.123411e-02 8.315609e-03 1.066286e-03 -1.043674e-02 -1.559312e-02 -2.566926e-02 -2.879476e-02 -3.752738e-02 -3.880352e-02 -4.633630e-02 -4.601850e-02 -5.252553e-02 -5.090319e-02 -5.656637e-02 -5.393172e-02 -5.892614e-02 -5.555251e-02 -6.003859e-02 -5.616730e-02 -6.028760e-02 -5.612207e-02 -6.000061e-02 -5.570598e-02 -5.944790e-02 -5.515485e-02 -5.884515e-02 -5.465672e-02 -5.835734e-02 -5.435745e-02 -5.810301e-02 -5.436554e-02 -5.815880e-02 -5.475559e-02 -5.856425e-02 -5.557052e-02 -5.932728e-02 -5.682331e-02 -6.043017e-02 -5.849904e-02 -6.183605e-02 -6.055810e-02 -6.349528e-02 -6.294104e-02 -6.535111e-02 -6.557451e-02 -6.734427e-02 -6.837762e-02 -6.941587e-02 -7.126742e-02 -7.150879e-02 -7.416264e-02 -7.356751e-02 -7.698538e-02 -7.553682e-02 -7.966076e-02 -7.735981e-02 -8.211507e-02 -7.897558e-02 -8.427305e-02 -8.031701e-02 -8.605500e-02 -8.130883e-02 -8.737403e-02 
-8.046987e-02 -8.514987e-02 -8.094283e-02 -8.575788e-02 -8.083621e-02 -8.566411e-02 -8.004364e-02 -8.475586e-02 -7.844655e-02 -8.290711e-02 -7.591235e-02 -7.997631e-02 -7.229122e-02 -7.580300e-02 -6.741183e-02 -7.020370e-02 -6.107656e-02 -6.296830e-02 -5.305842e-02 -5.385964e-02 -4.310291e-02 -4.262025e-02 -3.093954e-02 -2.899135e-02 -1.630841e-02 -1.274881e-02 9.941759e-04 6.241195e-03 2.105023e-02 2.794956e-02 4.374059e-02 5.210405e-02 6.866460e-02 7.811882e-02 9.507933e-02 1.050555e-01 1.218815e-01 1.316374e-01 1.476508e-01 1.563289e-01 1.707619e-01 1.774804e-01 1.895554e-01 1.935185e-01 2.025430e-01 2.031520e-01 2.086093e-01 2.055552e-01 2.071747e-01 2.004936e-01 1.982866e-01 1.883684e-01 1.826240e-01 1.701706e-01 1.614119e-01 1.473508e-01 1.362619e-01 1.216304e-01 1.089669e-01 9.478727e-02 8.128699e-02 6.845516e-02 5.476460e-02 4.396955e-02 3.059577e-02 2.227882e-02 9.570367e-03 3.923950e-03 -7.922412e-03 -1.092479e-02 -2.183929e-02 -2.239382e-02 -3.240016e-02 -3.081658e-02 -3.999782e-02 -3.664604e-02 -4.511573e-02 -4.038136e-02 -4.826261e-02 -4.251390e-02 -4.992667e-02 -4.349304e-02 -5.054810e-02 -4.370854e-02 -5.050581e-02 -4.348519e-02 -5.011392e-02 -4.308526e-02 -4.962383e-02 -4.271500e-02 -4.922891e-02 -4.253255e-02 -4.906995e-02 -4.265530e-02 -4.924049e-02 -4.316575e-02 -4.979212e-02 -4.411544e-02 -5.074015e-02 -4.552709e-02 -5.206971e-02 -4.739578e-02 -5.374273e-02 -4.969046e-02 -5.570525e-02 -5.235704e-02 -5.789454e-02 -5.532340e-02 -6.024530e-02 -5.850620e-02 -6.269425e-02 -6.181810e-02 -6.518285e-02 -6.517387e-02 -6.765807e-02 -6.849442e-02 -7.007134e-02 -7.170805e-02 -7.237645e-02 -7.474944e-02 -7.452661e-02 -7.755690e-02 -7.647159e-02 -8.006892e-02 -7.815505e-02 -8.222064e-02 -7.951249e-02 -8.394087e-02 