# vtk DataFile Version 2.0
Comment goes here
ASCII

DATASET STRUCTURED_POINTS
FIELD FieldData 1
TIME 1 1 double
0.02000000
DIMENSIONS    128   128   1

ORIGIN    0.000   0.000   0.000
SPACING   0.039062 0.039062   1.000

POINT_DATA   16384
SCALARS uY double
LOOKUP_TABLE default

1.065543e-14 1.224164e-14 8.859362e-15 1.191367e-14 9.821273e-15 1.278165e-14 1.201528e-14 1.627537e-14 1.370075e-14 1.805166e-14 1.668696e-14 2.081006e-14 1.905986e-14 2.205765e-14 1.929571e-14 2.405403e-14 2.292434e-14 2.731725e-14 2.455987e-14 2.759413e-14 2.441773e-14 2.797690e-14 2.418125e-14 2.690871e-14 2.250285e-14 2.716068e-14 2.434011e-14 2.687885e-14 2.313187e-14 2.766966e-14 2.522835e-14 2.734633e-14 2.353204e-14 2.696269e-14 2.492073e-14 3.014003e-14 2.864392e-14 3.157430e-14 2.755291e-14 2.900086e-14 2.579656e-14 2.613398e-14 2.460198e-14 2.652504e-14 2.769838e-14 2.993805e-14 2.635662e-14 2.734203e-14 2.404690e-14 2.529164e-14 2.573001e-14 2.935561e-14 2.614463e-14 2.727286e-14 2.484424e-14 2.540788e-14 2.357204e-14 2.364922e-14 2.345085e-14 2.500163e-14 2.225861e-14 2.248688e-14 2.057965e-14 2.275054e-14 2.098708e-14 2.315355e-14 1.934357e-14 2.029912e-14 1.758859e-14 1.480307e-14 1.208701e-14 1.241673e-14 9.833526e-15 9.744690e-15 7.060947e-15 8.094979e-15 5.645557e-15 6.296507e-15 5.755618e-15 6.701981e-15 5.188141e-15 5.715574e-15 4.120222e-15 6.066563e-15 4.108355e-15 3.386925e-15 1.469728e-15 2.624678e-15 3.397157e-15 3.623137e-15 3.888579e-15 6.201765e-15 6.345949e-15 8.559572e-15 6.848471e-15 6.403741e-15 2.980780e-15 4.271579e-15 3.554850e-15 6.329543e-15 5.975528e-15 7.578354e-15 5.672396e-15 6.602520e-15 4.433897e-15 4.946186e-15 2.588001e-15 4.687558e-15 4.200621e-15 5.695661e-15 4.601784e-15 7.003792e-15 6.350075e-15 9.885577e-15 1.031404e-14 1.268355e-14 9.790587e-15 1.126802e-14 8.905514e-15 1.056972e-14 9.116662e-15 1.052942e-14 7.926883e-15 1.019821e-14 8.797978e-15 1.174651e-14 1.026407e-14 1.295111e-14 
-2.256386e-02 -2.248939e-02 -2.151603e-02 -2.136784e-02 -2.026591e-02 -2.002619e-02 -1.878564e-02 -1.843622e-02 -1.704841e-02 -1.657158e-02 -1.503011e-02 -1.440959e-02 -1.271126e-02 -1.193328e-02 -1.007898e-02 -9.133427e-03 -7.128979e-03 -6.010526e-03 -3.867424e-03 -2.576581e-03 -3.125014e-04 1.143544e-03 3.504485e-03 5.111312e-03 7.538628e-03 9.274399e-03 1.173165e-02 1.356735e-02 1.601293e-02 1.791302e-02 2.030127e-02 2.222479e-02 2.450740e-02 2.640933e-02 2.853692e-02 3.036982e-02 3.229360e-02 3.400939e-02 3.568279e-02 3.723447e-02 3.861472e-02 3.995807e-02 4.100755e-02 4.210278e-02 4.279023e-02 4.360344e-02 4.390503e-02 4.440954e-02 4.430982e-02 4.448747e-02 4.398019e-02 4.382238e-02 4.291127e-02 4.241979e-02 4.111912e-02 4.030668e-02 3.864155e-02 3.753179e-02 3.553797e-02 3.416497e-02 3.188817e-02 3.029516e-02 2.778959e-02 2.602707e-02 2.335332e-02 2.147649e-02 1.869873e-02 1.676459e-02 1.394745e-02 1.201162e-02 9.216926e-03 7.330675e-03 4.614476e-03 2.822192e-03 2.323192e-04 -1.430378e-03 -3.855927e-03 -5.363230e-03 -7.597013e-03 -8.933133e-03 -1.095809e-02 -1.211670e-02 -1.392525e-02 -1.490832e-02 -1.650088e-02 -1.731712e-02 -1.870038e-02 -1.936351e-02 -2.054861e-02 -2.107563e-02 -2.207648e-02 -2.248613e-02 -2.331799e-02 -2.362945e-02 -2.430781e-02 -2.453970e-02 -2.507947e-02 -2.524916e-02 -2.566418e-02 -2.578734e-02 -2.609010e-02 -2.618045e-02 -2.638189e-02 -2.645110e-02 -2.656064e-02 -2.661832e-02 -2.664379e-02 -2.669753e-02 -2.664518e-02 -2.670056e-02 -2.657505e-02 -2.663566e-02 -2.644001e-02 -2.650745e-02 -2.624298e-02 -2.631682e-02 -2.598310e-02 -2.606080e-02 -2.565563e-02 -2.573250e-02 -2.525185e-02 -2.532099e-02 -2.475908e-02 -2.481136e-02 -2.416080e-02 -2.418487e-02 -2.343683e-02 -2.341928e-02 
-4.488796e-02 -4.471907e-02 -4.277774e-02 -4.245850e-02 -4.026137e-02 -3.975675e-02 -3.728445e-02 -3.655886e-02 -3.379481e-02 -3.281373e-02 -2.974586e-02 -2.847778e-02 -2.510034e-02 -2.351892e-02 -1.983423e-02 -1.792052e-02 -1.394069e-02 -1.168536e-02 -7.433600e-03 -4.838949e-03 -3.506134e-04 2.567848e-03 7.244839e-03 1.045737e-02 1.526269e-02 1.872504e-02 2.358681e-02 2.724077e-02 3.207710e-02 3.585188e-02 4.057308e-02 4.438741e-02 4.889866e-02 5.266359e-02 5.686803e-02 6.049008e-02 6.429195e-02 6.767650e-02 7.098433e-02 7.403903e-02 7.676859e-02 7.940664e-02 8.148361e-02 8.362691e-02 8.498925e-02 8.657124e-02 8.717130e-02 8.813967e-02 8.794612e-02 8.826529e-02 8.726490e-02 8.691814e-02 8.511737e-02 8.410853e-02 8.153482e-02 7.988943e-02 7.659185e-02 7.435725e-02 7.040635e-02 6.765065e-02 6.313702e-02 5.994672e-02 5.497815e-02 5.145432e-02 4.615152e-02 4.240472e-02 3.689579e-02 3.304007e-02 2.745409e-02 2.360072e-02 1.806117e-02 1.431256e-02 8.931246e-03 5.375753e-03 2.479006e-04 -3.043942e-03 -7.843008e-03 -1.082063e-02 -1.523691e-02 -1.787006e-02 -2.187053e-02 -2.414813e-02 -2.771880e-02 -2.964645e-02 -3.278939e-02 -3.438616e-02 -3.711586e-02 -3.841068e-02 -4.075034e-02 -4.177844e-02 -4.375652e-02 -4.455619e-02 -4.620349e-02 -4.681349e-02 -4.816089e-02 -4.861842e-02 -4.969533e-02 -5.003465e-02 -5.086800e-02 -5.111962e-02 -5.173337e-02 -5.192364e-02 -5.233858e-02 -5.248962e-02 -5.272336e-02 -5.285309e-02 -5.292015e-02 -5.304245e-02 -5.295429e-02 -5.307918e-02 -5.284423e-02 -5.297787e-02 -5.260149e-02 -5.274625e-02 -5.223063e-02 -5.238501e-02 -5.172905e-02 -5.188753e-02 -5.108675e-02 -5.123967e-02 -5.028617e-02 -5.041959e-02 -4.930210e-02 -4.939773e-02 -4.810186e-02 -4.813715e-02 -4.664577e-02 -4.659408e-02 
-6.786642e-02 -6.765978e-02 -6.475038e-02 -6.432359e-02 -6.102787e-02 -6.032684e-02 -5.661388e-02 -5.558329e-02 -5.142628e-02 -5.001203e-02 -4.539088e-02 -4.354305e-02 -3.844723e-02 -3.612338e-02 -3.055467e-02 -2.772331e-02 -2.169850e-02 -1.834263e-02 -1.189566e-02 -8.015953e-03 -1.199604e-03 3.182929e-03 1.029625e-02 1.513853e-02 2.245694e-02 2.769323e-02 3.510662e-02 4.064919e-02 4.803164e-02 5.377283e-02 6.098596e-02 6.680146e-02 7.369875e-02 7.945192e-02 8.588354e-02 9.143034e-02 9.724827e-02 1.024426e-01 1.075057e-01 1.122049e-01 1.163833e-01 1.204532e-01 1.236329e-01 1.269526e-01 1.290387e-01 1.315051e-01 1.324253e-01 1.339570e-01 1.336640e-01 1.342057e-01 1.326800e-01 1.322048e-01 1.294572e-01 1.279701e-01 1.240429e-01 1.215819e-01 1.165506e-01 1.131874e-01 1.071601e-01 1.029979e-01 9.611318e-02 9.128367e-02 8.370637e-02 7.836357e-02 7.027813e-02 6.459066e-02 5.619277e-02 5.033471e-02 4.182149e-02 3.596269e-02 2.752262e-02 2.181946e-02 1.362309e-02 8.210584e-03 4.030364e-04 -4.610899e-03 -1.191492e-02 -1.645266e-02 -2.317100e-02 -2.718573e-02 -3.326814e-02 -3.674204e-02 -4.216721e-02 -4.510775e-02 -4.987870e-02 -5.231374e-02 -5.645235e-02 -5.842476e-02 -6.196612e-02 -6.352848e-02 -6.651576e-02 -6.772556e-02 -7.020564e-02 -7.112142e-02 -7.314156e-02 -7.381989e-02 -7.542534e-02 -7.591878e-02 -7.715137e-02 -7.750715e-02 -7.840443e-02 -7.866382e-02 -7.925873e-02 -7.945676e-02 -7.977753e-02 -7.994302e-02 -8.001315e-02 -8.016881e-02 -8.000709e-02 -8.016964e-02 -7.979008e-02 -7.997032e-02 -7.938203e-02 -7.958480e-02 -7.879181e-02 -7.901585e-02 -7.801692e-02 -7.825471e-02 -7.704320e-02 -7.728072e-02 -7.584453e-02 -7.606109e-02 -7.438278e-02 -7.455093e-02 -7.260807e-02 -7.269369e-02 -7.045950e-02 -7.042210e-02 
-9.012838e-02 -8.982368e-02 -8.596168e-02 -8.535817e-02 -8.098335e-02 -8.000964e-02 -7.508170e-02 -7.366496e-02 -6.814901e-02 -6.621828e-02 -6.008838e-02 -5.757851e-02 -5.082135e-02 -4.767739e-02 -4.029598e-02 -3.647783e-02 -2.849497e-02 -2.398198e-02 -1.544313e-02 -1.023830e-02 -1.213686e-03 4.652972e-03 1.406733e-02 2.053661e-02 3.021920e-02 3.720207e-02 4.700757e-02 5.438623e-02 6.414870e-02 7.177941e-02 8.131675e-02 8.903426e-02 9.815377e-02 1.057770e-01 1.142817e-01 1.216204e-01 1.293157e-01 1.361770e-01 1.428770e-01 1.490731e-01 1.546065e-01 1.599608e-01 1.641767e-01 1.685299e-01 1.713021e-01 1.745185e-01 1.757498e-01 1.777222e-01 1.773482e-01 1.780034e-01 1.759960e-01 1.752988e-01 1.716696e-01 1.696266e-01 1.644299e-01 1.610919e-01 1.544261e-01 1.498889e-01 1.418964e-01 1.362987e-01 1.271635e-01 1.206820e-01 1.106241e-01 1.034659e-01 9.273224e-02 8.512455e-02 7.397767e-02 6.615492e-02 5.485954e-02 4.705033e-02 3.585949e-02 2.827380e-02 1.741605e-02 1.023442e-02 -9.652194e-05 -6.730907e-03 -1.638294e-02 -2.236854e-02 -3.123405e-02 -3.651157e-02 -4.452640e-02 -4.907609e-02 -5.621529e-02 -6.005161e-02 -6.632292e-02 -6.948762e-02 -7.492375e-02 -7.747826e-02 -8.212905e-02 -8.414700e-02 -8.807231e-02 -8.963295e-02 -9.289661e-02 -9.407947e-02 -9.674483e-02 -9.762566e-02 -9.975251e-02 -1.004007e-01 -1.020434e-01 -1.025203e-01 -1.037270e-01 -1.040854e-01 -1.048977e-01 -1.051818e-01 -1.056348e-01 -1.058803e-01 -1.060030e-01 -1.062376e-01 -1.060528e-01 -1.062964e-01 -1.058212e-01 -1.060861e-01 -1.053311e-01 -1.056222e-01 -1.045920e-01 -1.049063e-01 -1.035989e-01 -1.039255e-01 -1.023318e-01 -1.026516e-01 -1.007559e-01 -1.010409e-01 -9.882039e-02 -9.903419e-02 -9.645961e-02 -9.655677e-02 -9.359328e-02 -9.352010e-02 
-1.136919e-01 -1.134039e-01 -1.085912e-01 -1.079398e-01 -1.024813e-01 -1.013742e-01 -9.521572e-02 -9.355794e-02 -8.665192e-02 -8.435006e-02 -7.665988e-02 -7.362711e-02 -6.513209e-02 -6.129377e-02 -5.199400e-02 -4.729379e-02 -3.721474e-02 -3.162074e-02 -2.081718e-02 -1.432762e-02 -2.886611e-03 4.465423e-03 1.642302e-02 2.456641e-02 3.688607e-02 4.571046e-02 5.820604e-02 6.756298e-02 8.002079e-02 8.972723e-02 1.019119e-01 1.117559e-01 1.234179e-01 1.331662e-01 1.440501e-01 1.534567e-01 1.633102e-01 1.721259e-01 1.807084e-01 1.886895e-01 1.957802e-01 2.026977e-01 2.081024e-01 2.137498e-01 2.173070e-01 2.215079e-01 2.230937e-01 2.257086e-01 2.252415e-01 2.261741e-01 2.236191e-01 2.228219e-01 2.181948e-01 2.156742e-01 2.090447e-01 2.048639e-01 1.963581e-01 1.906379e-01 1.804384e-01 1.733554e-01 1.616978e-01 1.534778e-01 1.406442e-01 1.315525e-01 1.178597e-01 1.081874e-01 9.397236e-02 8.402046e-02 6.962281e-02 5.968458e-02 4.542875e-02 3.577356e-02 2.195210e-02 1.281135e-02 -3.283725e-04 -8.771287e-03 -2.103574e-02 -2.865082e-02 -3.990378e-02 -4.661506e-02 -5.677606e-02 -6.255791e-02 -7.159653e-02 -7.646680e-02 -8.439414e-02 -8.840525e-02 -9.526398e-02 -9.849324e-02 -1.043476e-01 -1.068879e-01 -1.118147e-01 -1.137662e-01 -1.178472e-01 -1.193108e-01 -1.226274e-01 -1.236997e-01 -1.263290e-01 -1.270990e-01 -1.291116e-01 -1.296587e-01 -1.311176e-01 -1.315110e-01 -1.324712e-01 -1.327692e-01 -1.332777e-01 -1.335283e-01 -1.336243e-01 -1.338651e-01 -1.335800e-01 -1.338390e-01 -1.331962e-01 -1.334913e-01 -1.325063e-01 -1.328456e-01 -1.315254e-01 -1.319071e-01 -1.302496e-01 -1.306615e-01 -1.286558e-01 -1.290746e-01 -1.267003e-01 -1.270917e-01 -1.243194e-01 -1.246375e-01 -1.214292e-01 -1.216168e-01 -1.179267e-01 -1.179156e-01 
-1.360707e-01 -1.356974e-01 -1.299574e-01 -1.291409e-01 -1.226288e-01 -1.212587e-01 -1.139101e-01 -1.118731e-01 -1.036313e-01 -1.008160e-01 -9.163749e-02 -8.794063e-02 -7.780087e-02 -7.313434e-02 -6.203354e-02 -5.633148e-02 -4.430021e-02 -3.752648e-02 -2.463033e-02 -1.678527e-02 -3.128328e-03 5.745723e-03 2.001906e-02 2.983408e-02 4.453939e-02 5.516047e-02 7.007587e-02 8.132281e-02 9.619376e-02 1.078455e-01 1.223919e-01 1.341934e-01 1.481184e-01 1.597901e-01 1.727900e-01 1.840376e-01 1.958124e-01 2.063384e-01 2.166017e-01 2.261158e-01 2.346042e-01 2.428337e-01 2.493147e-01 2.560136e-01 2.602928e-01 2.652507e-01 2.671774e-01 2.702276e-01 2.697007e-01 2.707275e-01 2.677009e-01 2.666470e-01 2.611348e-01 2.580071e-01 2.500887e-01 2.449629e-01 2.347860e-01 2.278079e-01 2.155896e-01 2.069732e-01 1.929965e-01 1.830167e-01 1.676224e-01 1.566029e-01 1.401759e-01 1.284728e-01 1.114233e-01 9.940488e-02 8.214722e-02 7.017201e-02 5.310151e-02 4.149800e-02 2.497026e-02 1.401906e-02 -1.666870e-03 -1.174560e-02 -2.635802e-02 -3.541115e-02 -4.878986e-02 -5.673175e-02 -6.878572e-02 -7.559325e-02 -8.629308e-02 -9.199653e-02 -1.013633e-01 -1.060347e-01 -1.141273e-01 -1.178680e-01 -1.247700e-01 -1.276986e-01 -1.335072e-01 -1.357494e-01 -1.405660e-01 -1.422460e-01 -1.461695e-01 -1.474043e-01 -1.505266e-01 -1.514223e-01 -1.538262e-01 -1.544756e-01 -1.562336e-01 -1.567161e-01 -1.578905e-01 -1.582720e-01 -1.589152e-01 -1.592490e-01 -1.594043e-01 -1.597313e-01 -1.594330e-01 -1.597830e-01 -1.590566e-01 -1.594479e-01 -1.583099e-01 -1.587501e-01 -1.572075e-01 -1.576925e-01 -1.557426e-01 -1.562565e-01 -1.538859e-01 -1.544003e-01 -1.515851e-01 -1.520584e-01 -1.487640e-01 -1.491413e-01 -1.453230e-01 -1.455356e-01 -1.411394e-01 -1.411059e-01 
-1.603834e-01 -1.601004e-01 -1.534410e-01 -1.526572e-01 -1.450903e-01 -1.436719e-01 -1.351158e-01 -1.329240e-01 -1.233058e-01 -1.202030e-01 -1.094646e-01 -1.053214e-01 -9.342724e-02 -8.813065e-02 -7.507452e-02 -6.853727e-02 -5.434932e-02 -4.651894e-02 -3.127183e-02 -2.213937e-02 -5.952861e-03 4.439695e-03 2.139613e-02 3.295081e-02 5.045794e-02 6.301867e-02 8.081028e-02 9.416438e-02 1.119331e-01 1.258164e-01 1.432226e-01 1.573281e-01 1.740105e-01 1.879996e-01 2.035885e-01 2.171041e-01 2.312341e-01 2.439145e-01 2.562378e-01 2.677297e-01 2.779272e-01 2.878988e-01 2.956902e-01 3.038419e-01 3.089940e-01 3.150693e-01 3.174020e-01 3.211967e-01 3.205901e-01 3.219614e-01 3.183608e-01 3.172358e-01 3.106588e-01 3.070419e-01 2.975833e-01 2.915619e-01 2.793985e-01 2.711454e-01 2.565373e-01 2.463078e-01 2.295951e-01 2.177193e-01 1.993123e-01 1.861805e-01 1.665433e-01 1.525853e-01 1.322135e-01 1.178743e-01 9.726806e-02 8.298089e-02 6.261708e-02 4.877827e-02 2.908469e-02 1.603212e-02 -2.632930e-03 -1.463502e-02 -3.199575e-02 -4.276438e-02 -5.863209e-02 -6.806575e-02 -8.233545e-02 -9.040762e-02 -1.030483e-01 -1.097961e-01 -1.208370e-01 -1.263470e-01 -1.358615e-01 -1.402549e-01 -1.483454e-01 -1.517636e-01 -1.585479e-01 -1.611404e-01 -1.667409e-01 -1.686559e-01 -1.731918e-01 -1.745692e-01 -1.781516e-01 -1.791188e-01 -1.818483e-01 -1.825180e-01 -1.844833e-01 -1.849525e-01 -1.862308e-01 -1.865810e-01 -1.872380e-01 -1.875360e-01 -1.876264e-01 -1.879247e-01 -1.874927e-01 -1.878300e-01 -1.869087e-01 -1.873103e-01 -1.859217e-01 -1.863995e-01 -1.845538e-01 -1.851055e-01 -1.828005e-01 -1.834096e-01 -1.806300e-01 -1.812644e-01 -1.779816e-01 -1.785935e-01 -1.747654e-01 -1.752907e-01 -1.708626e-01 -1.712203e-01 -1.661261e-01 -1.662193e-01 
-1.830578e-01 -1.827191e-01 -1.751685e-01 -1.742492e-01 -1.656645e-01 -1.640112e-01 -1.542990e-01 -1.517527e-01 -1.408290e-01 -1.372319e-01 -1.250297e-01 -1.202338e-01 -1.067114e-01 -1.005879e-01 -8.573737e-02 -7.818737e-02 -6.204222e-02 -5.300729e-02 -3.564978e-02 -2.512206e-02 -6.688373e-03 5.281102e-03 2.459796e-02 3.789355e-02 5.784373e-02 7.228307e-02 9.256320e-02 1.078993e-01 1.281592e-01 1.440865e-01 1.639393e-01 1.801043e-01 1.991388e-01 2.151526e-01 2.329482e-01 2.484021e-01 2.645430e-01 2.790237e-01 2.931139e-01 3.062186e-01 3.178944e-01 3.292450e-01 3.381854e-01 3.474406e-01 3.533769e-01 3.602435e-01 3.629661e-01 3.672101e-01 3.665759e-01 3.680322e-01 3.639716e-01 3.625546e-01 3.550795e-01 3.507921e-01 3.400035e-01 3.329445e-01 3.190390e-01 3.094067e-01 2.926792e-01 2.807697e-01 2.616105e-01 2.478088e-01 2.266933e-01 2.114565e-01 1.889258e-01 1.727591e-01 1.493931e-01 1.328200e-01 1.092050e-01 9.273503e-02 6.942958e-02 5.352726e-02 3.103080e-02 1.608943e-02 -5.182856e-03 -1.885949e-02 -3.859220e-02 -5.079891e-02 -6.878153e-02 -7.941131e-02 -9.553353e-02 -1.045690e-01 -1.188081e-01 -1.263069e-01 -1.387102e-01 -1.447872e-01 -1.554523e-01 -1.602607e-01 -1.693165e-01 -1.730305e-01 -1.806208e-01 -1.834204e-01 -1.896909e-01 -1.917512e-01 -1.968407e-01 -1.983236e-01 -2.023586e-01 -2.034089e-01 -2.065014e-01 -2.072440e-01 -2.094910e-01 -2.100317e-01 -2.115156e-01 -2.119415e-01 -2.127316e-01 -2.131125e-01 -2.132661e-01 -2.136559e-01 -2.132186e-01 -2.136563e-01 -2.126623e-01 -2.131727e-01 -2.116445e-01 -2.122379e-01 -2.101857e-01 -2.108573e-01 -2.082781e-01 -2.090077e-01 -2.058841e-01 -2.066346e-01 -2.029346e-01 -2.036511e-01 -1.993278e-01 -1.999370e-01 -1.949289e-01 -1.953385e-01 -1.895709e-01 -1.896703e-01 
-2.082746e-01 -2.081208e-01 -1.996992e-01 -1.989167e-01 -1.893230e-01 -1.877318e-01 -1.768513e-01 -1.742629e-01 -1.619907e-01 -1.582161e-01 -1.444656e-01 -1.393244e-01 -1.240377e-01 -1.173699e-01 -1.005276e-01 -9.220557e-02 -7.383630e-02 -6.377837e-02 -4.396810e-02 -3.215079e-02 -1.104939e-02 2.481540e-03 2.465608e-02 3.977788e-02 6.273880e-02 7.924824e-02 1.026434e-01 1.202584e-01 1.436782e-01 1.620450e-01 1.850341e-01 2.037393e-01 2.258124e-01 2.443991e-01 2.650587e-01 2.830450e-01 3.017999e-01 3.186982e-01 3.350815e-01 3.504164e-01 3.640012e-01 3.773266e-01 3.877383e-01 3.986514e-01 4.055779e-01 4.137324e-01 4.169318e-01 4.220498e-01 4.213573e-01 4.232409e-01 4.185766e-01 4.171199e-01 4.084971e-01 4.036971e-01 3.912315e-01 3.831975e-01 3.671154e-01 3.560741e-01 3.367168e-01 3.230108e-01 3.008322e-01 2.849105e-01 2.604656e-01 2.428637e-01 2.167867e-01 1.980979e-01 1.710694e-01 1.519093e-01 1.246180e-01 1.055853e-01 7.868621e-02 6.032561e-02 3.440221e-02 1.717324e-02 -7.292339e-03 -2.303687e-02 -4.568203e-02 -5.970606e-02 -8.029298e-02 -9.247589e-02 -1.108848e-01 -1.212105e-01 -1.374238e-01 -1.459628e-01 -1.600434e-01 -1.669316e-01 -1.789991e-01 -1.844155e-01 -1.946242e-01 -1.987710e-01 -2.072903e-01 -2.103759e-01 -2.173766e-01 -2.196032e-01 -2.252472e-01 -2.268024e-01 -2.312375e-01 -2.322894e-01 -2.356470e-01 -2.363421e-01 -2.387368e-01 -2.392001e-01 -2.407308e-01 -2.410665e-01 -2.418172e-01 -2.421102e-01 -2.421510e-01 -2.424680e-01 -2.418558e-01 -2.422461e-01 -2.410242e-01 -2.415207e-01 -2.397183e-01 -2.403366e-01 -2.379677e-01 -2.387061e-01 -2.357688e-01 -2.366069e-01 -2.330821e-01 -2.339800e-01 -2.298306e-01 -2.307273e-01 -2.258982e-01 -2.267112e-01 -2.211297e-01 -2.217542e-01 -2.153316e-01 -2.156407e-01 
-2.314211e-01 -2.312594e-01 -2.219946e-01 -2.211257e-01 -2.105621e-01 -2.087843e-01 -1.967928e-01 -1.938946e-01 -1.803563e-01 -1.761252e-01 -1.609413e-01 -1.551748e-01 -1.382782e-01 -1.307964e-01 -1.121627e-01 -1.028229e-01 -8.248186e-02 -7.119336e-02 -4.923846e-02 -3.597688e-02 -1.257341e-02 2.607168e-03 2.721757e-02 4.417600e-02 6.967474e-02 8.817920e-02 1.141746e-01 1.339050e-01 1.599413e-01 1.804976e-01 2.060684e-01 2.269850e-01 2.515506e-01 2.723148e-01 2.953222e-01 3.153950e-01 3.362988e-01 3.551362e-01 3.734176e-01 3.904908e-01 4.056747e-01 4.204876e-01 4.321562e-01 4.442608e-01 4.520633e-01 4.610732e-01 4.647342e-01 4.703375e-01 4.696645e-01 4.716369e-01 4.665294e-01 4.647474e-01 4.552072e-01 4.496624e-01 4.358062e-01 4.266166e-01 4.086868e-01 3.961049e-01 3.744772e-01 3.588902e-01 3.340729e-01 3.159925e-01 2.886147e-01 2.686556e-01 2.394414e-01 2.182876e-01 1.880189e-01 1.663814e-01 1.358507e-01 1.144211e-01 8.438176e-02 6.378671e-02 3.490682e-02 1.567086e-02 -1.150270e-02 -2.898310e-02 -5.404612e-02 -6.951404e-02 -9.221046e-02 -1.055461e-01 -1.257588e-01 -1.369650e-01 -1.546957e-01 -1.638756e-01 -1.792173e-01 -1.865472e-01 -1.996555e-01 -2.053579e-01 -2.164235e-01 -2.207428e-01 -2.299688e-01 -2.331512e-01 -2.407365e-01 -2.430153e-01 -2.491440e-01 -2.507307e-01 -2.555663e-01 -2.566460e-01 -2.603301e-01 -2.610604e-01 -2.637136e-01 -2.642255e-01 -2.659495e-01 -2.663499e-01 -2.672298e-01 -2.676039e-01 -2.677102e-01 -2.681237e-01 -2.675130e-01 -2.680140e-01 -2.667297e-01 -2.673489e-01 -2.654204e-01 -2.661715e-01 -2.636128e-01 -2.644914e-01 -2.613001e-01 -2.622824e-01 -2.584379e-01 -2.594793e-01 -2.549415e-01 -2.559746e-01 -2.506838e-01 -2.516171e-01 -2.454939e-01 -2.462111e-01 -2.391578e-01 -2.395178e-01 
-2.576842e-01 -2.578251e-01 -2.477582e-01 -2.471566e-01 -2.356513e-01 -2.340752e-01 -2.209758e-01 -2.181795e-01 -2.033400e-01 -1.990734e-01 -1.823692e-01 -1.763900e-01 -1.577306e-01 -1.498188e-01 -1.291617e-01 -1.191365e-01 -9.650032e-02 -8.423812e-02 -5.971508e-02 -4.516713e-02 -1.893300e-02 -2.141080e-03 2.553831e-02 4.443017e-02 7.319712e-02 9.393689e-02 1.233456e-01 1.455748e-01 1.751013e-01 1.983643e-01 2.274224e-01 2.511834e-01 2.791456e-01 3.028111e-01 3.290334e-01 3.519776e-01 3.758251e-01 3.974162e-01 4.182875e-01 4.379117e-01 4.552587e-01 4.723410e-01 4.856852e-01 4.997066e-01 5.086494e-01 5.191619e-01 5.233920e-01 5.300320e-01 5.293328e-01 5.318356e-01 5.260930e-01 5.243084e-01 5.135227e-01 5.074311e-01 4.917309e-01 4.814583e-01 4.611150e-01 4.469432e-01 4.223816e-01 4.047505e-01 3.765501e-01 3.560470e-01 3.249300e-01 3.022645e-01 2.690667e-01 2.450315e-01 2.106581e-01 1.860780e-01 1.514472e-01 1.271238e-01 9.310671e-02 6.976435e-02 3.712988e-02 1.537120e-02 -1.525663e-02 -3.498016e-02 -6.314676e-02 -8.054726e-02 -1.059724e-01 -1.209211e-01 -1.434863e-01 -1.559954e-01 -1.757179e-01 -1.859127e-01 -2.029129e-01 -2.110006e-01 -2.254667e-01 -2.317044e-01 -2.438613e-01 -2.485286e-01 -2.586122e-01 -2.619890e-01 -2.702277e-01 -2.725787e-01 -2.791828e-01 -2.807480e-01 -2.859042e-01 -2.868944e-01 -2.907653e-01 -2.913611e-01 -2.940864e-01 -2.944398e-01 -2.961388e-01 -2.963752e-01 -2.971493e-01 -2.973706e-01 -2.973050e-01 -2.975912e-01 -2.967555e-01 -2.971663e-01 -2.956145e-01 -2.961901e-01 -2.939596e-01 -2.947203e-01 -2.918302e-01 -2.927755e-01 -2.892251e-01 -2.903322e-01 -2.860993e-01 -2.873212e-01 -2.823604e-01 -2.836245e-01 -2.778670e-01 -2.790726e-01 -2.724265e-01 -2.734445e-01 -2.657959e-01 -2.664683e-01 
-2.814747e-01 -2.816751e-01 -2.708270e-01 -2.702099e-01 -2.577970e-01 -2.561058e-01 -2.419544e-01 -2.389164e-01 -2.228625e-01 -2.181996e-01 -2.001018e-01 -1.935440e-01 -1.732980e-01 -1.646001e-01 -1.421542e-01 -1.311148e-01 -1.064846e-01 -9.296657e-02 -6.624918e-02 -5.019942e-02 -2.158458e-02 -3.051628e-03 2.717110e-02 4.802417e-02 7.946346e-02 1.023530e-01 1.345201e-01 1.590443e-01 1.913643e-01 2.170145e-01 2.488438e-01 2.750242e-01 3.056746e-01 3.317274e-01 3.604931e-01 3.857281e-01 4.119139e-01 4.356364e-01 4.585843e-01 4.801216e-01 4.992318e-01 5.179548e-01 5.327020e-01 5.480425e-01 5.579861e-01 5.694517e-01 5.742424e-01 5.814304e-01 5.808180e-01 5.834309e-01 5.772730e-01 5.751361e-01 5.634128e-01 5.564939e-01 5.393261e-01 5.277548e-01 5.054239e-01 4.895065e-01 4.624695e-01 4.426940e-01 4.115894e-01 3.886161e-01 3.542516e-01 3.288862e-01 2.922071e-01 2.653547e-01 2.273913e-01 1.999974e-01 1.617984e-01 1.347815e-01 9.734092e-02 7.152771e-02 3.571824e-02 1.179024e-02 -2.168812e-02 -4.323013e-02 -7.387886e-02 -9.272871e-02 -1.202554e-01 -1.362947e-01 -1.605959e-01 -1.738704e-01 -1.949991e-01 -2.056841e-01 -2.238083e-01 -2.321688e-01 -2.475293e-01 -2.538818e-01 -2.667536e-01 -2.714326e-01 -2.820951e-01 -2.854270e-01 -2.941430e-01 -2.964288e-01 -3.034330e-01 -3.049384e-01 -3.104328e-01 -3.113846e-01 -3.155396e-01 -3.161265e-01 -3.190842e-01 -3.194605e-01 -3.213395e-01 -3.216292e-01 -3.225284e-01 -3.228300e-01 -3.228320e-01 -3.232214e-01 -3.223939e-01 -3.229273e-01 -3.213234e-01 -3.220377e-01 -3.196947e-01 -3.206079e-01 -3.175452e-01 -3.186544e-01 -3.148717e-01 -3.161515e-01 -3.116260e-01 -3.130256e-01 -3.077099e-01 -3.091509e-01 -3.029722e-01 -3.043457e-01 -2.972053e-01 -2.983709e-01 -2.901454e-01 -2.909305e-01 
-3.089079e-01 -3.095545e-01 -2.979981e-01 -2.978089e-01 -2.845481e-01 -2.832324e-01 -2.680604e-01 -2.653059e-01 -2.480243e-01 -2.435077e-01 -2.239407e-01 -2.173427e-01 -1.953539e-01 -1.863783e-01 -1.618884e-01 -1.502831e-01 -1.232884e-01 -1.088704e-01 -7.945914e-02 -6.213867e-02 -3.050621e-02 -1.030940e-02 2.323246e-02 4.614609e-02 8.116496e-02 1.064930e-01 1.424396e-01 1.697377e-01 2.059577e-01 2.346520e-01 2.704071e-01 2.998168e-01 3.343129e-01 3.636822e-01 3.961031e-01 4.246365e-01 4.541794e-01 4.810769e-01 5.069848e-01 5.314734e-01 5.530621e-01 5.744207e-01 5.910965e-01 6.086752e-01 6.199452e-01 6.331802e-01 6.386571e-01 6.470851e-01 6.464916e-01 6.497654e-01 6.429424e-01 6.408511e-01 6.277716e-01 6.202638e-01 6.010553e-01 5.882631e-01 5.632319e-01 5.454905e-01 5.151435e-01 4.930004e-01 4.580551e-01 4.322610e-01 3.936355e-01 3.651135e-01 3.238901e-01 2.936829e-01 2.510470e-01 2.202449e-01 1.774043e-01 1.470653e-01 1.051625e-01 7.623498e-02 3.626671e-02 9.526152e-03 -2.771727e-02 -5.170837e-02 -8.567548e-02 -1.065819e-01 -1.369628e-01 -1.546659e-01 -1.813691e-01 -1.959366e-01 -2.190476e-01 -2.306917e-01 -2.504226e-01 -2.594531e-01 -2.760926e-01 -2.828725e-01 -2.967416e-01 -3.016500e-01 -3.130690e-01 -3.164727e-01 -3.257390e-01 -3.279747e-01 -3.353520e-01 -3.367166e-01 -3.424315e-01 -3.431794e-01 -3.474240e-01 -3.477687e-01 -3.507051e-01 -3.508231e-01 -3.525889e-01 -3.526245e-01 -3.533368e-01 -3.534065e-01 -3.531646e-01 -3.533602e-01 -3.522470e-01 -3.526381e-01 -3.507191e-01 -3.513535e-01 -3.486757e-01 -3.495792e-01 -3.461686e-01 -3.473436e-01 -3.432024e-01 -3.446254e-01 -3.397294e-01 -3.413484e-01 -3.356450e-01 -3.373767e-01 -3.307831e-01 -3.325102e-01 -3.249135e-01 -3.264828e-01 -3.177412e-01 -3.189625e-01 
-3.335056e-01 -3.343007e-01 -3.220420e-01 -3.219330e-01 -3.078449e-01 -3.065126e-01 -2.903659e-01 -2.874658e-01 -2.690384e-01 -2.642130e-01 -2.433063e-01 -2.362016e-01 -2.126589e-01 -2.029455e-01 -1.766723e-01 -1.640699e-01 -1.350540e-01 -1.193590e-01 -8.768978e-02 -6.880289e-02 -3.468723e-02 -1.263858e-02 2.358795e-02 4.861933e-02 8.648839e-02 1.141646e-01 1.530792e-01 1.829054e-01 2.221534e-01 2.534929e-01 2.922701e-01 3.243709e-01 3.618132e-01 3.938441e-01 4.290643e-01 4.601549e-01 4.922820e-01 5.215613e-01 5.497759e-01 5.764058e-01 5.999679e-01 6.231688e-01 6.414350e-01 6.605041e-01 6.729367e-01 6.872614e-01 6.934310e-01 7.025026e-01 7.020911e-01 7.055210e-01 6.983305e-01 6.958727e-01 6.818434e-01 6.734227e-01 6.526603e-01 6.384030e-01 6.112121e-01 5.914728e-01 5.583871e-01 5.337639e-01 4.955635e-01 4.668926e-01 4.245962e-01 3.929192e-01 3.477451e-01 3.142484e-01 2.675425e-01 2.334728e-01 1.866123e-01 1.531800e-01 1.074666e-01 7.575236e-02 3.231435e-02 3.192093e-03 -3.708858e-02 -6.299973e-02 -9.952569e-02 -1.218771e-01 -1.543365e-01 -1.730348e-01 -2.013707e-01 -2.165393e-01 -2.408972e-01 -2.528230e-01 -2.734884e-01 -2.825636e-01 -2.999006e-01 -3.065692e-01 -3.209675e-01 -3.256799e-01 -3.375156e-01 -3.406964e-01 -3.503081e-01 -3.523355e-01 -3.600128e-01 -3.612103e-01 -3.671930e-01 -3.678282e-01 -3.723118e-01 -3.726012e-01 -3.757448e-01 -3.758615e-01 -3.777962e-01 -3.778770e-01 -3.787128e-01 -3.788658e-01 -3.786958e-01 -3.790050e-01 -3.779077e-01 -3.784364e-01 -3.764755e-01 -3.772672e-01 -3.744899e-01 -3.755680e-01 -3.720017e-01 -3.733671e-01 -3.690158e-01 -3.706438e-01 -3.654844e-01 -3.673209e-01 -3.613002e-01 -3.632576e-01 -3.562899e-01 -3.582439e-01 -3.502098e-01 -3.519964e-01 -3.427440e-01 -3.441581e-01 
-3.622083e-01 -3.636211e-01 -3.507783e-01 -3.512915e-01 -3.364824e-01 -3.357390e-01 -3.186936e-01 -3.163034e-01 -2.967561e-01 -2.923078e-01 -2.700152e-01 -2.630943e-01 -2.378561e-01 -2.280677e-01 -1.997498e-01 -1.867469e-01 -1.553057e-01 -1.388212e-01 -1.043272e-01 -8.420784e-02 -4.686560e-02 -2.310444e-02 1.673212e-02 4.396952e-02 8.578972e-02 1.161498e-01 1.592887e-01 1.922289e-01 2.358814e-01 2.706862e-01 3.139334e-01 3.497464e-01 3.915939e-01 4.274614e-01 4.668854e-01 5.018070e-01 5.378036e-01 5.707801e-01 6.024107e-01 6.324847e-01 6.589100e-01 6.851954e-01 7.056964e-01 7.273973e-01 7.413814e-01 7.578042e-01 7.648039e-01 7.753689e-01 7.750386e-01 7.792963e-01 7.714168e-01 7.690722e-01 7.535688e-01 7.445142e-01 7.214883e-01 7.058424e-01 6.756136e-01 6.537561e-01 6.169040e-01 5.894985e-01 5.468892e-01 5.148807e-01 4.676638e-01 4.322424e-01 3.818083e-01 3.443380e-01 2.922327e-01 2.541497e-01 2.019583e-01 1.646544e-01 1.138710e-01 7.858162e-02 3.049110e-02 -1.794875e-03 -4.620353e-02 -7.479847e-02 -1.148744e-01 -1.394063e-01 -1.748331e-01 -1.952236e-01 -2.259783e-01 -2.423930e-01 -2.686793e-01 -2.814638e-01 -3.036362e-01 -3.132471e-01 -3.317383e-01 -3.386820e-01 -3.539428e-01 -3.587258e-01 -3.711825e-01 -3.742769e-01 -3.843072e-01 -3.861310e-01 -3.940547e-01 -3.949647e-01 -4.010460e-01 -4.013385e-01 -4.057944e-01 -4.057116e-01 -4.087215e-01 -4.084600e-01 -4.101754e-01 -4.098939e-01 -4.104449e-01 -4.102711e-01 -4.097702e-01 -4.098059e-01 -4.083493e-01 -4.086729e-01 -4.063396e-01 -4.070070e-01 -4.038559e-01 -4.048999e-01 -4.009665e-01 -4.023946e-01 -3.976867e-01 -3.994775e-01 -3.939713e-01 -3.960705e-01 -3.897072e-01 -3.920237e-01 -3.847068e-01 -3.871086e-01 -3.787033e-01 -3.810140e-01 -3.713474e-01 -3.733441e-01 
-3.877622e-01 -3.894369e-01 -3.759912e-01 -3.767088e-01 -3.611755e-01 -3.605459e-01 -3.426267e-01 -3.402214e-01 -3.196199e-01 -3.149853e-01 -2.914272e-01 -2.841043e-01 -2.573604e-01 -2.469108e-01 -2.168234e-01 -2.028608e-01 -1.693706e-01 -1.515973e-01 -1.147698e-01 -9.301500e-02 -5.306326e-02 -2.731949e-02 1.537934e-02 4.492706e-02 8.982342e-02 1.227811e-01 1.691560e-01 2.049208e-01 2.519020e-01 2.896819e-01 3.362729e-01 3.751243e-01 4.202472e-01 4.591253e-01 5.016727e-01 5.394883e-01 5.783775e-01 6.140501e-01 6.482727e-01 6.807736e-01 7.094311e-01 7.378122e-01 7.601349e-01 7.835452e-01 7.988951e-01 8.165889e-01 8.244533e-01 8.357988e-01 8.357836e-01 8.402788e-01 8.321127e-01 8.294120e-01 8.129678e-01 8.029221e-01 7.782578e-01 7.609626e-01 7.283758e-01 7.042187e-01 6.643030e-01 6.339976e-01 5.876820e-01 5.522725e-01 5.008260e-01 4.616510e-01 4.066366e-01 3.652479e-01 3.084236e-01 2.664659e-01 2.096437e-01 1.687137e-01 1.136006e-01 7.510926e-02 2.316234e-02 -1.177542e-02 -5.945436e-02 -9.008526e-02 -1.327990e-01 -1.587468e-01 -1.961947e-01 -2.174301e-01 -2.496542e-01 -2.664312e-01 -2.937319e-01 -3.065068e-01 -3.293488e-01 -3.386954e-01 -3.576187e-01 -3.641533e-01 -3.797012e-01 -3.840230e-01 -3.966931e-01 -3.993445e-01 -4.095619e-01 -4.110078e-01 -4.191181e-01 -4.197402e-01 -4.260155e-01 -4.261176e-01 -4.307704e-01 -4.305896e-01 -4.337877e-01 -4.335078e-01 -4.353882e-01 -4.351524e-01 -4.358314e-01 -4.357519e-01 -4.353313e-01 -4.354970e-01 -4.340661e-01 -4.345464e-01 -4.321814e-01 -4.330272e-01 -4.297882e-01 -4.310303e-01 -4.269561e-01 -4.286025e-01 -4.237054e-01 -4.257358e-01 -4.199959e-01 -4.223566e-01 -4.157168e-01 -4.183150e-01 -4.106775e-01 -4.133760e-01 -4.046001e-01 -4.072129e-01 -3.971154e-01 -3.994047e-01 