# vtk DataFile Version 2.0
Comment goes here
ASCII

DATASET STRUCTURED_POINTS
FIELD FieldData 1
TIME 1 1 double
0.22500000
DIMENSIONS    128   128   1

ORIGIN    0.000   0.000   0.000
SPACING   0.039062 0.039062   1.000

POINT_DATA   16384
SCALARS uY double
LOOKUP_TABLE default

-7.310076e-14 -7.247018e-14 -7.348440e-14 -7.288321e-14 -7.432263e-14 -7.320210e-14 -7.446084e-14 -7.345836e-14 -7.491811e-14 -7.422333e-14 -7.657174e-14 -7.560691e-14 -7.790350e-14 -7.724365e-14 -7.952292e-14 -7.816043e-14 -8.076254e-14 -7.972454e-14 -8.226586e-14 -8.102340e-14 -8.459686e-14 -8.325145e-14 -8.683552e-14 -8.504288e-14 -8.819651e-14 -8.580837e-14 -8.926301e-14 -8.588882e-14 -8.831153e-14 -8.604106e-14 -8.797642e-14 -8.390561e-14 -8.812218e-14 -8.554396e-14 -8.872571e-14 -8.536443e-14 -8.873100e-14 -8.575886e-14 -8.841106e-14 -8.439208e-14 -8.743312e-14 -8.302790e-14 -8.529846e-14 -8.100596e-14 -8.335456e-14 -7.857551e-14 -8.108438e-14 -7.605021e-14 -7.799024e-14 -7.376442e-14 -7.593432e-14 -7.194522e-14 -7.404109e-14 -7.037013e-14 -7.183232e-14 -6.792201e-14 -6.925994e-14 -6.572284e-14 -6.545679e-14 -6.285167e-14 -6.329986e-14 -6.078362e-14 -6.051979e-14 -5.926205e-14 -5.875570e-14 -5.855652e-14 -5.806715e-14 -5.848182e-14 -5.664529e-14 -5.819369e-14 -5.799662e-14 -5.924669e-14 -5.905940e-14 -6.290247e-14 -6.040039e-14 -6.369629e-14 -6.308319e-14 -6.761314e-14 -6.483596e-14 -7.087137e-14 -6.828306e-14 -7.313471e-14 -6.998325e-14 -7.556475e-14 -7.261556e-14 -7.768467e-14 -7.545015e-14 -8.042096e-14 -7.753439e-14 -8.283881e-14 -7.826192e-14 -8.309667e-14 -7.875756e-14 -8.248277e-14 -7.981205e-14 -8.483519e-14 -8.133042e-14 -8.534600e-14 -8.227541e-14 -8.435392e-14 -8.181507e-14 -8.433799e-14 -8.114739e-14 -8.250649e-14 -7.929793e-14 -8.054798e-14 -7.785636e-14 -7.861954e-14 -7.624708e-14 -7.665610e-14 -7.492888e-14 -7.550919e-14 -7.400029e-14 -7.467424e-14 -7.384938e-14 -7.410902e-14 -7.362913e-14 -7.373139e-14 -7.338105e-14 -7.333799e-14 -7.300229e-14 -7.241099e-14 -7.234674e-14 -7.188896e-14 -7.230207e-14 -7.209119e-14 -7.269569e-14 -7.220779e-14 
-1.231581e-02 -1.259753e-02 -1.284444e-02 -1.303005e-02 -1.317906e-02 -1.326152e-02 -1.330644e-02 -1.328062e-02 -1.321742e-02 -1.308046e-02 -1.290760e-02 -1.265932e-02 -1.237808e-02 -1.202125e-02 -1.163606e-02 -1.117664e-02 -1.069517e-02 -1.014242e-02 -9.575591e-03 -8.941905e-03 -8.303639e-03 -7.604261e-03 -6.911026e-03 -6.163468e-03 -5.433616e-03 -4.656925e-03 -3.909856e-03 -3.123736e-03 -2.378967e-03 -1.602838e-03 -8.790502e-04 -1.311193e-04 5.547266e-04 1.258291e-03 1.891706e-03 2.537449e-03 3.106977e-03 3.684627e-03 4.182183e-03 4.684906e-03 5.105892e-03 5.530322e-03 5.873527e-03 6.219601e-03 6.486928e-03 6.757550e-03 6.953596e-03 7.154181e-03 7.285720e-03 7.423647e-03 7.499066e-03 7.583089e-03 7.611808e-03 7.651460e-03 7.643366e-03 7.648387e-03 7.613319e-03 7.593135e-03 7.540429e-03 7.503701e-03 7.441807e-03 7.396064e-03 7.332253e-03 7.283622e-03 7.223770e-03 7.176799e-03 7.125260e-03 7.082846e-03 7.042395e-03 7.005796e-03 6.977640e-03 6.946571e-03 6.930410e-03 6.903192e-03 6.897317e-03 6.871068e-03 6.872477e-03 6.843314e-03 6.847842e-03 6.811088e-03 6.813532e-03 6.763902e-03 6.758170e-03 6.689943e-03 6.669207e-03 6.576397e-03 6.533294e-03 6.409816e-03 6.336702e-03 6.176580e-03 6.065844e-03 5.863446e-03 5.707898e-03 5.458231e-03 5.251532e-03 4.950568e-03 4.687686e-03 4.332702e-03 4.010347e-03 3.600252e-03 3.217229e-03 2.752828e-03 2.310291e-03 1.794454e-03 1.296006e-03 7.337232e-04 1.853673e-04 -4.163372e-04 -1.006397e-03 -1.638659e-03 -2.260336e-03 -2.912746e-03 -3.554467e-03 -4.215429e-03 -4.864565e-03 -5.521672e-03 -6.164969e-03 -6.805368e-03 -7.429330e-03 -8.040054e-03 -8.631278e-03 -9.199531e-03 -9.744981e-03 -1.025838e-02 -1.074561e-02 -1.119238e-02 -1.160975e-02 -1.197895e-02 
-2.469260e-02 -2.525752e-02 -2.575427e-02 -2.612663e-02 -2.642695e-02 -2.659258e-02 -2.668401e-02 -2.663253e-02 -2.650688e-02 -2.623248e-02 -2.588656e-02 -2.538875e-02 -2.482508e-02 -2.410933e-02 -2.333670e-02 -2.241489e-02 -2.144866e-02 -2.033929e-02 -1.920136e-02 -1.792929e-02 -1.664767e-02 -1.524347e-02 -1.385128e-02 -1.235014e-02 -1.088434e-02 -9.324553e-03 -7.824208e-03 -6.245408e-03 -4.749845e-03 -3.191096e-03 -1.737949e-03 -2.358891e-04 1.140689e-03 2.553524e-03 3.824373e-03 5.120909e-03 6.262996e-03 7.422567e-03 8.419666e-03 9.428520e-03 1.027144e-02 1.112280e-02 1.180918e-02 1.250292e-02 1.303667e-02 1.357861e-02 1.396907e-02 1.437009e-02 1.463096e-02 1.490589e-02 1.505413e-02 1.522056e-02 1.527517e-02 1.535225e-02 1.533318e-02 1.534051e-02 1.526759e-02 1.522412e-02 1.511616e-02 1.503931e-02 1.491334e-02 1.481827e-02 1.468891e-02 1.458798e-02 1.446704e-02 1.436945e-02 1.426567e-02 1.417728e-02 1.409621e-02 1.401962e-02 1.396367e-02 1.389836e-02 1.386687e-02 1.380954e-02 1.379906e-02 1.374397e-02 1.374843e-02 1.368786e-02 1.369886e-02 1.362348e-02 1.363055e-02 1.352979e-02 1.352067e-02 1.338310e-02 1.334407e-02 1.315768e-02 1.307392e-02 1.282653e-02 1.268266e-02 1.236225e-02 1.214293e-02 1.173816e-02 1.142889e-02 1.092969e-02 1.051767e-02 9.915880e-03 9.390931e-03 8.680998e-03 8.036438e-03 7.216090e-03 6.449463e-03 5.520237e-03 4.633818e-03 3.601410e-03 2.602417e-03 1.476787e-03 3.772765e-04 -8.275115e-04 -2.011047e-03 -3.277227e-03 -4.524502e-03 -5.831206e-03 -7.118949e-03 -8.442923e-03 -9.745750e-03 -1.106212e-02 -1.235340e-02 -1.363639e-02 -1.488902e-02 -1.611267e-02 -1.729973e-02 -1.843839e-02 -1.953373e-02 -2.056258e-02 -2.154125e-02 -2.243671e-02 -2.327531e-02 -2.401544e-02 
-3.712491e-02 -3.797868e-02 -3.872737e-02 -3.929125e-02 -3.974444e-02 -3.999694e-02 -4.013575e-02 -4.006113e-02 -3.987307e-02 -3.946240e-02 -3.894251e-02 -3.819489e-02 -3.734678e-02 -3.627029e-02 -3.510706e-02 -3.371955e-02 -3.226424e-02 -3.059356e-02 -2.887916e-02 -2.696287e-02 -2.503160e-02 -2.291595e-02 -2.081790e-02 -1.855617e-02 -1.634722e-02 -1.399744e-02 -1.173671e-02 -9.358934e-03 -7.105942e-03 -4.759340e-03 -2.571012e-03 -3.110423e-04 1.760991e-03 3.885151e-03 5.796863e-03 7.744376e-03 9.461057e-03 1.120086e-02 1.269814e-02 1.420970e-02 1.547388e-02 1.674725e-02 1.777498e-02 1.881032e-02 1.960772e-02 2.041418e-02 2.099555e-02 2.158994e-02 2.197617e-02 2.238120e-02 2.259804e-02 2.284057e-02 2.291683e-02 2.302604e-02 2.299190e-02 2.299752e-02 2.288297e-02 2.281374e-02 2.264715e-02 2.252943e-02 2.233646e-02 2.219309e-02 2.199577e-02 2.184532e-02 2.166140e-02 2.151759e-02 2.136019e-02 2.123169e-02 2.110913e-02 2.099962e-02 2.091545e-02 2.082393e-02 2.077716e-02 2.069839e-02 2.068377e-02 2.060890e-02 2.061730e-02 2.053449e-02 2.055327e-02 2.044828e-02 2.046171e-02 2.031852e-02 2.030814e-02 2.010944e-02 2.005458e-02 1.978222e-02 1.966054e-02 1.929607e-02 1.908432e-02 1.860957e-02 1.828454e-02 1.768232e-02 1.722200e-02 1.647702e-02 1.586194e-02 1.496176e-02 1.417640e-02 1.311253e-02 1.214665e-02 1.091556e-02 9.765336e-03 8.369261e-03 7.038044e-03 5.485548e-03 3.984201e-03 2.290328e-03 6.370572e-04 -1.176917e-03 -2.957184e-03 -4.864371e-03 -6.740974e-03 -8.709796e-03 -1.064758e-02 -1.264287e-02 -1.460353e-02 -1.658770e-02 -1.853108e-02 -2.046524e-02 -2.235052e-02 -2.419548e-02 -2.598218e-02 -2.769932e-02 -2.934811e-02 -3.090005e-02 -3.237339e-02 -3.372464e-02 -3.498740e-02 -3.610490e-02 
-4.974093e-02 -5.088808e-02 -5.189759e-02 -5.265650e-02 -5.326959e-02 -5.361121e-02 -5.380225e-02 -5.370509e-02 -5.345697e-02 -5.290868e-02 -5.221431e-02 -5.121324e-02 -5.007711e-02 -4.863371e-02 -4.707307e-02 -4.521097e-02 -4.325660e-02 -4.101300e-02 -3.870917e-02 -3.613446e-02 -3.353806e-02 -3.069450e-02 -2.787315e-02 -2.483260e-02 -2.186190e-02 -1.870270e-02 -1.566269e-02 -1.246602e-02 -9.437250e-03 -6.283102e-03 -3.342643e-03 -3.059717e-04 2.476356e-03 5.329127e-03 7.893877e-03 1.050765e-02 1.280807e-02 1.514100e-02 1.714442e-02 1.916894e-02 2.085717e-02 2.256007e-02 2.392896e-02 2.531063e-02 2.636884e-02 2.744187e-02 2.820909e-02 2.899633e-02 2.950113e-02 3.003341e-02 3.031086e-02 3.062455e-02 3.071381e-02 3.084838e-02 3.079038e-02 3.078604e-02 3.062137e-02 3.051695e-02 3.028399e-02 3.011510e-02 2.984849e-02 2.964598e-02 2.937542e-02 2.916436e-02 2.891373e-02 2.871265e-02 2.849953e-02 2.832016e-02 2.815563e-02 2.800297e-02 2.789169e-02 2.776439e-02 2.770490e-02 2.759597e-02 2.758107e-02 2.747864e-02 2.749595e-02 2.738415e-02 2.741661e-02 2.727638e-02 2.730277e-02 2.711267e-02 2.710815e-02 2.684496e-02 2.678169e-02 2.642109e-02 2.626893e-02 2.578612e-02 2.551368e-02 2.488416e-02 2.445999e-02 2.366051e-02 2.305474e-02 2.206448e-02 2.125059e-02 2.005254e-02 1.900931e-02 1.759170e-02 1.630503e-02 1.466279e-02 1.312725e-02 1.126310e-02 9.483042e-03 7.408266e-03 5.398224e-03 3.132904e-03 9.173912e-04 -1.509943e-03 -3.897296e-03 -6.450517e-03 -8.968335e-03 -1.160499e-02 -1.420585e-02 -1.687866e-02 -1.951094e-02 -2.216943e-02 -2.477907e-02 -2.737104e-02 -2.990319e-02 -3.237610e-02 -3.477638e-02 -3.707850e-02 -3.929414e-02 -4.137540e-02 -4.335609e-02 -4.516894e-02 -4.686753e-02 -4.836766e-02 
-6.246922e-02 -6.392119e-02 -6.519583e-02 -6.615944e-02 -6.693566e-02 -6.737397e-02 -6.761913e-02 -6.750461e-02 -6.719666e-02 -6.651319e-02 -6.564264e-02 -6.438759e-02 -6.295950e-02 -6.114554e-02 -5.918119e-02 -5.683775e-02 -5.437560e-02 -5.154947e-02 -4.864525e-02 -4.540011e-02 -4.212576e-02 -3.854058e-02 -3.498180e-02 -3.114790e-02 -2.740070e-02 -2.341778e-02 -1.958389e-02 -1.555526e-02 -1.173711e-02 -7.764560e-03 -4.060047e-03 -2.388361e-04 3.263430e-03 6.849060e-03 1.007381e-02 1.335420e-02 1.624244e-02 1.916499e-02 2.167574e-02 2.420612e-02 2.631690e-02 2.843914e-02 3.014532e-02 3.186079e-02 3.317401e-02 3.449957e-02 3.544541e-02 3.641090e-02 3.702610e-02 3.767138e-02 3.800081e-02 3.837267e-02 3.846626e-02 3.861525e-02 3.852506e-02 3.850251e-02 3.828003e-02 3.813536e-02 3.782918e-02 3.760755e-02 3.726143e-02 3.700185e-02 3.665322e-02 3.638720e-02 3.606608e-02 3.581673e-02 3.554516e-02 3.532688e-02 3.511865e-02 3.493725e-02 3.479807e-02 3.465133e-02 3.457920e-02 3.445775e-02 3.444352e-02 3.433189e-02 3.435990e-02 3.423766e-02 3.428642e-02 3.412923e-02 3.417205e-02 3.395261e-02 3.395823e-02 3.364715e-02 3.358046e-02 3.314695e-02 3.296991e-02 3.238256e-02 3.205535e-02 3.128309e-02 3.076573e-02 2.977895e-02 2.903329e-02 2.780538e-02 2.679741e-02 2.530647e-02 2.400885e-02 2.223962e-02 2.063403e-02 1.857968e-02 1.665889e-02 1.432258e-02 1.209181e-02 9.487618e-03 6.965166e-03 4.118434e-03 1.335320e-03 -1.717801e-03 -4.718930e-03 -7.932609e-03 -1.109929e-02 -1.441967e-02 -1.769182e-02 -2.105901e-02 -2.437134e-02 -2.772143e-02 -3.100570e-02 -3.427278e-02 -3.745985e-02 -4.057766e-02 -4.359915e-02 -4.650252e-02 -4.929214e-02 -5.191811e-02 -5.441268e-02 -5.670143e-02 -5.884175e-02 -6.073750e-02 
-7.550623e-02 -7.727084e-02 -7.882574e-02 -8.000025e-02 -8.095169e-02 -8.149077e-02 -8.179853e-02 -8.166805e-02 -8.130451e-02 -8.048398e-02 -7.943668e-02 -7.792188e-02 -7.619602e-02 -7.400136e-02 -7.162194e-02 -6.878236e-02 -6.579556e-02 -6.236735e-02 -5.884073e-02 -5.490113e-02 -5.092233e-02 -4.656755e-02 -4.224147e-02 -3.758313e-02 -3.302750e-02 -2.818772e-02 -2.352747e-02 -1.863291e-02 -1.399387e-02 -9.169348e-03 -4.671736e-03 -3.399202e-05 4.213560e-03 8.561417e-03 1.246686e-02 1.643976e-02 1.993124e-02 2.346519e-02 2.649316e-02 2.954666e-02 3.208442e-02 3.463854e-02 3.668133e-02 3.873843e-02 4.030145e-02 4.188278e-02 4.299825e-02 4.414091e-02 4.485460e-02 4.560786e-02 4.597536e-02 4.639683e-02 4.647976e-02 4.663157e-02 4.649399e-02 4.643911e-02 4.614423e-02 4.594322e-02 4.555055e-02 4.525866e-02 4.482167e-02 4.448661e-02 4.405091e-02 4.371115e-02 4.331320e-02 4.299691e-02 4.266334e-02 4.238800e-02 4.213535e-02 4.190794e-02 4.174284e-02 4.156056e-02 4.148025e-02 4.133159e-02 4.132467e-02 4.119077e-02 4.123800e-02 4.109399e-02 4.116912e-02 4.098549e-02 4.105601e-02 4.079972e-02 4.082762e-02 4.046309e-02 4.040563e-02 3.989555e-02 3.970635e-02 3.901256e-02 3.864291e-02 3.772746e-02 3.712827e-02 3.595482e-02 3.507902e-02 3.361465e-02 3.242010e-02 3.063748e-02 2.909004e-02 2.696982e-02 2.504643e-02 2.257955e-02 2.027076e-02 1.746039e-02 1.477215e-02 1.163493e-02 8.589322e-03 5.155790e-03 1.790645e-03 -1.895347e-03 -5.527892e-03 -9.410590e-03 -1.324637e-02 -1.726021e-02 -2.122581e-02 -2.529793e-02 -2.931370e-02 -3.336645e-02 -3.734933e-02 -4.130277e-02 -4.516877e-02 -4.894268e-02 -5.260892e-02 -5.612450e-02 -5.951075e-02 -6.269194e-02 -6.572176e-02 -6.849628e-02 -7.109804e-02 -7.339841e-02 
-8.871465e-02 -9.080941e-02 -9.265130e-02 -9.405157e-02 -9.518341e-02 -9.583503e-02 -9.620859e-02 -9.607028e-02 -9.565189e-02 -9.469829e-02 -9.347199e-02 -9.169682e-02 -8.966748e-02 -8.708663e-02 -8.428269e-02 -8.093655e-02 -7.741181e-02 -7.336653e-02 -6.920058e-02 -6.454765e-02 -5.984447e-02 -5.469844e-02 -4.958295e-02 -4.407717e-02 -3.868998e-02 -3.297060e-02 -2.746113e-02 -2.167984e-02 -1.619860e-02 -1.050482e-02 -5.195493e-03 2.712494e-04 5.279054e-03 1.039587e-02 1.499269e-02 1.965866e-02 2.375949e-02 2.789921e-02 3.144598e-02 3.501127e-02 3.797335e-02 4.094319e-02 4.331626e-02 4.569512e-02 4.749863e-02 4.931356e-02 5.058716e-02 5.188394e-02 5.268326e-02 5.352203e-02 5.391411e-02 5.436472e-02 5.442355e-02 5.456093e-02 5.436313e-02 5.426291e-02 5.388384e-02 5.361848e-02 5.312888e-02 5.276423e-02 5.222747e-02 5.182011e-02 5.129007e-02 5.088531e-02 5.040492e-02 5.003562e-02 4.963604e-02 4.932217e-02 4.902257e-02 4.877150e-02 4.857932e-02 4.838675e-02 4.829843e-02 4.814977e-02 4.815159e-02 4.802364e-02 4.809276e-02 4.795541e-02 4.806083e-02 4.787867e-02 4.798211e-02 4.771577e-02 4.777244e-02 4.737969e-02 4.733917e-02 4.677582e-02 4.658314e-02 4.580392e-02 4.540115e-02 4.436088e-02 4.368928e-02 4.234448e-02 4.134742e-02 3.965839e-02 3.828485e-02 3.621836e-02 3.442675e-02 3.195893e-02 2.972085e-02 2.684008e-02 2.414348e-02 2.085282e-02 1.770422e-02 1.402299e-02 1.044840e-02 6.412671e-03 2.457069e-03 -1.881011e-03 -6.155467e-03 -1.072947e-02 -1.524629e-02 -1.997811e-02 -2.464992e-02 -2.945286e-02 -3.418507e-02 -3.896698e-02 -4.366126e-02 -4.832747e-02 -5.288467e-02 -5.734046e-02 -6.166301e-02 -6.581554e-02 -6.980914e-02 -7.356892e-02 -7.714387e-02 -8.042587e-02 -8.349804e-02 -8.622280e-02 
-1.023606e-01 -1.047969e-01 -1.069477e-01 -1.085831e-01 -1.099131e-01 -1.106838e-01 -1.111358e-01 -1.109925e-01 -1.105260e-01 -1.094375e-01 -1.080320e-01 -1.059891e-01 -1.036484e-01 -1.006676e-01 -9.742322e-02 -9.354988e-02 -8.946309e-02 -8.477304e-02 -7.993595e-02 -7.453527e-02 -6.906917e-02 -6.309156e-02 -5.714301e-02 -5.074480e-02 -4.447927e-02 -3.783225e-02 -3.142593e-02 -2.470864e-02 -1.833908e-02 -1.172741e-02 -5.563984e-03 7.779974e-04 6.582867e-03 1.251095e-02 1.782898e-02 2.322514e-02 2.795730e-02 3.273385e-02 3.681319e-02 4.091472e-02 4.430685e-02 4.770999e-02 5.041160e-02 5.312297e-02 5.515867e-02 5.721134e-02 5.862933e-02 6.007821e-02 6.094523e-02 6.186187e-02 6.225779e-02 6.272489e-02 6.273741e-02 6.284339e-02 6.256296e-02 6.239690e-02 6.191220e-02 6.155921e-02 6.095326e-02 6.049058e-02 5.983750e-02 5.933135e-02 5.869395e-02 5.819725e-02 5.762532e-02 5.717629e-02 5.670573e-02 5.632742e-02 5.598001e-02 5.568068e-02 5.546450e-02 5.523877e-02 5.514905e-02 5.497957e-02 5.499987e-02 5.485935e-02 5.496274e-02 5.481603e-02 5.496630e-02 5.477226e-02 5.492487e-02 5.463793e-02 5.474088e-02 5.431223e-02 5.430692e-02 5.368541e-02 5.350776e-02 5.264082e-02 5.222297e-02 5.105782e-02 5.033058e-02 4.881599e-02 4.771223e-02 4.580100e-02 4.425983e-02 4.191193e-02 3.988331e-02 3.706949e-02 3.451880e-02 3.122409e-02 2.813609e-02 2.436283e-02 2.074432e-02 1.651413e-02 1.239512e-02 7.749533e-03 3.182617e-03 -1.817767e-03 -6.759673e-03 -1.203738e-02 -1.726451e-02 -2.272840e-02 -2.813838e-02 -3.368739e-02 -3.916969e-02 -4.469663e-02 -5.013669e-02 -5.553177e-02 -6.081446e-02 -6.596811e-02 -7.098051e-02 -7.578558e-02 -8.041880e-02 -8.477215e-02 -8.892269e-02 -9.272634e-02 -9.629710e-02 -9.945928e-02 
-1.162405e-01 -1.190425e-01 -1.215117e-01 -1.234027e-01 -1.249384e-01 -1.258446e-01 -1.263801e-01 -1.262434e-01 -1.257305e-01 -1.245130e-01 -1.229261e-01 -1.206149e-01 -1.179559e-01 -1.145678e-01 -1.108704e-01 -1.064554e-01 -1.017885e-01 -9.643259e-02 -9.090093e-02 -8.472567e-02 -7.846871e-02 -7.162850e-02 -6.481568e-02 -5.749189e-02 -5.031527e-02 -4.270774e-02 -3.537215e-02 -2.768876e-02 -2.040070e-02 -1.284612e-02 -5.802354e-03 1.432875e-03 8.055731e-03 1.480476e-02 2.085871e-02 2.698577e-02 3.235737e-02 3.776257e-02 4.237609e-02 4.699747e-02 5.081528e-02 5.462841e-02 5.764904e-02 6.066439e-02 6.291868e-02 6.517728e-02 6.672313e-02 6.829113e-02 6.920754e-02 7.016999e-02 7.055073e-02 7.100514e-02 7.095254e-02 7.100258e-02 7.062172e-02 7.037129e-02 6.976477e-02 6.931273e-02 6.857622e-02 6.801186e-02 6.723047e-02 6.662990e-02 6.587544e-02 6.529902e-02 6.462814e-02 6.411888e-02 6.357210e-02 6.315526e-02 6.275681e-02 6.244038e-02 6.219880e-02 6.197500e-02 6.188420e-02 6.173156e-02 6.177226e-02 6.165810e-02 6.179931e-02 6.168223e-02 6.188257e-02 6.171475e-02 6.192352e-02 6.165243e-02 6.181048e-02 6.138017e-02 6.142066e-02 6.077261e-02 6.062214e-02 5.969607e-02 5.927636e-02 5.801145e-02 5.724213e-02 5.557886e-02 5.438132e-02 5.226432e-02 5.056672e-02 4.794846e-02 4.569123e-02 4.253639e-02 3.967783e-02 3.596755e-02 3.248860e-02 2.822426e-02 2.413182e-02 1.933747e-02 1.466575e-02 9.388891e-03 4.198638e-03 -1.490809e-03 -7.115088e-03 -1.312749e-02 -1.908181e-02 -2.531173e-02 -3.147777e-02 -3.780856e-02 -4.405898e-02 -5.036732e-02 -5.657071e-02 -6.273071e-02 -6.875559e-02 -7.464214e-02 -8.035996e-02 -8.585109e-02 -9.113834e-02 -9.611687e-02 -1.008563e-01 -1.052110e-01 -1.092925e-01 -1.129189e-01 
-1.306917e-01 -1.338750e-01 -1.366920e-01 -1.388520e-01 -1.406176e-01 -1.416691e-01 -1.423060e-01 -1.421810e-01 -1.416318e-01 -1.402845e-01 -1.385171e-01 -1.359295e-01 -1.329427e-01 -1.291304e-01 -1.249596e-01 -1.199767e-01 -1.146978e-01 -1.086399e-01 -1.023710e-01 -9.537554e-02 -8.827557e-02 -8.051882e-02 -7.278228e-02 -6.447241e-02 -5.632078e-02 -4.768797e-02 -3.935802e-02 -3.064208e-02 -2.237261e-02 -1.380966e-02 -5.827949e-03 2.362557e-03 9.853084e-03 1.747954e-02 2.430925e-02 3.121649e-02 3.725639e-02 4.333114e-02 4.849634e-02 5.366946e-02 5.791941e-02 6.216515e-02 6.550110e-02 6.883387e-02 7.129418e-02 7.376341e-02 7.541730e-02 7.710094e-02 7.804147e-02 7.903882e-02 7.937547e-02 7.979974e-02 7.965131e-02 7.962233e-02 7.911024e-02 7.874776e-02 7.799010e-02 7.740774e-02 7.651424e-02 7.581440e-02 7.488231e-02 7.415203e-02 7.326303e-02 7.257109e-02 7.178921e-02 7.118435e-02 7.055498e-02 7.006542e-02 6.961517e-02 6.924931e-02 6.898682e-02 6.873499e-02 6.865234e-02 6.848932e-02 6.856375e-02 6.845175e-02 6.864751e-02 6.853919e-02 6.880910e-02 6.865014e-02 6.893676e-02 6.866790e-02 6.890439e-02 6.846265e-02 6.857341e-02 6.789290e-02 6.779452e-02 6.680707e-02 6.641006e-02 6.504628e-02 6.425800e-02 6.244931e-02 6.117840e-02 5.886018e-02 5.702237e-02 5.413836e-02 5.166311e-02 4.817059e-02 4.500783e-02 4.088291e-02 3.700885e-02 3.225107e-02 2.767226e-02 2.230756e-02 1.706256e-02 1.114433e-02 5.302712e-03 -1.089515e-03 -7.430552e-03 -1.419438e-02 -2.091523e-02 -2.793018e-02 -3.489507e-02 -4.202808e-02 -4.909146e-02 -5.620233e-02 -6.321462e-02 -7.016084e-02 -7.697313e-02 -8.361359e-02 -9.008096e-02 -9.627860e-02 -1.022622e-01 -1.078856e-01 -1.132539e-01 -1.181784e-01 -1.228078e-01 -1.269161e-01 
-1.454440e-01 -1.490396e-01 -1.522170e-01 -1.546728e-01 -1.566788e-01 -1.578976e-01 -1.586434e-01 -1.585461e-01 -1.579642e-01 -1.564958e-01 -1.545462e-01 -1.516824e-01 -1.483598e-01 -1.441143e-01 -1.394547e-01 -1.338851e-01 -1.279710e-01 -1.211830e-01 -1.141461e-01 -1.062942e-01 -9.831394e-02 -8.959818e-02 -8.089597e-02 -7.155434e-02 -6.238340e-02 -5.267982e-02 -4.331160e-02 -3.352140e-02 -2.422973e-02 -1.462375e-02 -5.668880e-03 3.501781e-03 1.188775e-02 2.040489e-02 2.802948e-02 3.571771e-02 4.243592e-02 4.916874e-02 5.488676e-02 6.058889e-02 6.526406e-02 6.991026e-02 7.354779e-02 7.715880e-02 7.980609e-02 8.244241e-02 8.418162e-02 8.593592e-02 8.687572e-02 8.786437e-02 8.813144e-02 8.848594e-02 8.821678e-02 8.807548e-02 8.740883e-02 8.690919e-02 8.597939e-02 8.525122e-02 8.418251e-02 8.334216e-02 8.224418e-02 8.138993e-02 8.035429e-02 7.956307e-02 7.866111e-02 7.798660e-02 7.726833e-02 7.674049e-02 7.623466e-02 7.586067e-02 7.557575e-02 7.534222e-02 7.526821e-02 7.514428e-02 7.525485e-02 7.519584e-02 7.545048e-02 7.540147e-02 7.574734e-02 7.564631e-02 7.601946e-02 7.579947e-02 7.612559e-02 7.571609e-02 7.591086e-02 7.523819e-02 7.520803e-02 7.419577e-02 7.383933e-02 7.240912e-02 7.162051e-02 6.969398e-02 6.836772e-02 6.587010e-02 6.390791e-02 6.077313e-02 5.809192e-02 5.426881e-02 5.080880e-02 4.626759e-02 4.199937e-02 3.673728e-02 3.166676e-02 2.571179e-02 1.988218e-02 1.329428e-02 6.784853e-03 -3.455741e-04 -7.423677e-03 -1.497987e-02 -2.249001e-02 -3.033466e-02 -3.812222e-02 -4.610412e-02 -5.400415e-02 -6.196472e-02 -6.980866e-02 -7.758750e-02 -8.520850e-02 -9.264769e-02 -9.988426e-02 -1.068311e-01 -1.135291e-01 -1.198376e-01 -1.258514e-01 -1.313831e-01 -1.365758e-01 -1.412002e-01 
-1.609073e-01 -1.649358e-01 -1.685116e-01 -1.712813e-01 -1.735598e-01 -1.749601e-01 -1.758392e-01 -1.757784e-01 -1.751786e-01 -1.735905e-01 -1.714621e-01 -1.683142e-01 -1.646458e-01 -1.599480e-01 -1.547749e-01 -1.485868e-01 -1.419976e-01 -1.344344e-01 -1.265748e-01 -1.178085e-01 -1.088801e-01 -9.913599e-02 -8.938998e-02 -7.893828e-02 -6.866373e-02 -5.780529e-02 -4.731287e-02 -3.636214e-02 -2.596544e-02 -1.523166e-02 -5.228193e-03 5.002555e-03 1.434844e-02 2.382857e-02 3.229907e-02 4.083084e-02 4.826351e-02 5.570583e-02 6.199761e-02 6.826832e-02 7.337502e-02 7.844920e-02 8.238135e-02 8.628634e-02 8.910222e-02 9.191025e-02 9.370715e-02 9.552640e-02 9.643101e-02 9.739593e-02 9.755453e-02 9.781608e-02 9.738522e-02 9.710141e-02 9.623943e-02 9.556673e-02 9.442621e-02 9.351192e-02 9.223343e-02 9.120919e-02 8.991623e-02 8.889290e-02 8.768811e-02 8.675208e-02 8.571479e-02 8.492582e-02 8.411095e-02 8.350173e-02 8.293996e-02 8.251727e-02 8.221639e-02 8.196369e-02 8.191084e-02 8.179206e-02 8.195635e-02 8.192021e-02 8.225547e-02 8.223979e-02 8.268665e-02 8.262197e-02 8.310932e-02 8.292135e-02 8.336682e-02 8.297770e-02 8.328777e-02 8.261621e-02 8.268643e-02 8.164760e-02 8.136389e-02 7.986987e-02 7.911172e-02 7.707337e-02 7.571943e-02 7.305033e-02 7.098631e-02 6.760878e-02 6.473692e-02 6.058949e-02 5.683841e-02 5.188372e-02 4.721703e-02 4.144873e-02 3.587105e-02 2.931845e-02 2.287786e-02 1.560745e-02 8.393897e-03 5.074486e-04 -7.352344e-03 -1.572274e-02 -2.407309e-02 -3.277212e-02 -4.143745e-02 -5.029459e-02 -5.908857e-02 -6.792581e-02 -7.665920e-02 -8.529755e-02 -9.378428e-02 -1.020485e-01 -1.101096e-01 -1.178311e-01 -1.252965e-01 -1.323147e-01 -1.390242e-01 -1.451867e-01 -1.509895e-01 -1.561525e-01 
-1.767437e-01 -1.812437e-01 -1.852343e-01 -1.883519e-01 -1.909171e-01 -1.925275e-01 -1.935511e-01 -1.935483e-01 -1.929372e-01 -1.912420e-01 -1.889350e-01 -1.855050e-01 -1.814827e-01 -1.763223e-01 -1.706178e-01 -1.637879e-01 -1.564951e-01 -1.481203e-01 -1.393989e-01 -1.296701e-01 -1.197452e-01 -1.089160e-01 -9.807108e-02 -8.644767e-02 -7.501094e-02 -6.293597e-02 -5.126122e-02 -3.909330e-02 -2.753775e-02 -1.562918e-02 -4.531019e-03 6.793403e-03 1.713501e-02 2.759584e-02 3.693620e-02 4.631228e-02 5.447107e-02 6.260704e-02 6.947242e-02 7.628083e-02 8.180834e-02 8.726716e-02 9.147445e-02 9.562088e-02 9.857923e-02 1.015009e-01 1.033249e-01 1.051493e-01 1.059859e-01 1.068693e-01 1.068863e-01 1.070025e-01 1.063779e-01 1.059077e-01 1.048208e-01 1.039420e-01 1.025644e-01 1.014436e-01 9.993280e-02 9.871797e-02 9.721159e-02 9.602655e-02 9.463823e-02 9.357842e-02 9.239525e-02 9.152546e-02 9.060691e-02 8.996086e-02 8.933912e-02 8.892096e-02 8.860270e-02 8.839029e-02 8.835940e-02 8.830885e-02 8.852975e-02 8.858075e-02 8.900160e-02 8.908261e-02 8.963782e-02 8.967038e-02 9.028209e-02 9.018359e-02 9.076188e-02 9.044663e-02 9.088908e-02 9.026798e-02 9.045921e-02 8.943888e-02 8.925141e-02 8.773398e-02 8.703138e-02 8.491615e-02 8.355927e-02 8.074694e-02 7.860315e-02 7.500285e-02 7.195740e-02 6.749571e-02 6.346360e-02 5.809419e-02 5.303075e-02 4.674290e-02 4.065105e-02 3.347547e-02 2.640867e-02 1.841933e-02 1.047955e-02 1.791386e-03 -6.877212e-03 -1.611448e-02 -2.533505e-02 -3.494558e-02 -4.451961e-02 -5.431114e-02 -6.402928e-02 -7.380236e-02 -8.345361e-02 -9.300911e-02 -1.023877e-01 -1.115321e-01 -1.204414e-01 -1.289897e-01 -1.372441e-01 -1.450209e-01 -1.524460e-01 -1.592850e-01 -1.657165e-01 -1.714603e-01 
-1.934374e-01 -1.984354e-01 -2.028885e-01 -2.063784e-01 -2.092715e-01 -2.111124e-01 -2.123132e-01 -2.123826e-01 -2.117818e-01 -2.099853e-01 -2.075073e-01 -2.037894e-01 -1.994041e-01 -1.937610e-01 -1.874968e-01 -1.799886e-01 -1.719435e-01 -1.627030e-01 -1.530510e-01 -1.422883e-01 -1.312802e-01 -1.192787e-01 -1.072341e-01 -9.433972e-02 -8.163150e-02 -6.823296e-02 -5.526443e-02 -4.176958e-02 -2.894809e-02 -1.575730e-02 -3.467636e-03 9.051096e-03 2.047023e-02 3.200199e-02 4.227581e-02 5.257348e-02 6.150214e-02 7.039448e-02 7.785722e-02 8.525077e-02 9.120395e-02 9.707959e-02 1.015499e-01 1.059553e-01 1.090297e-01 1.120686e-01 1.138820e-01 1.157026e-01 1.164252e-01 1.172068e-01 1.170308e-01 1.169716e-01 1.160999e-01 1.154047e-01 1.140400e-01 1.129096e-01 1.112454e-01 1.098673e-01 1.080801e-01 1.066203e-01 1.048636e-01 1.034607e-01 1.018606e-01 1.006206e-01 9.927284e-02 9.826698e-02 9.723586e-02 9.650018e-02 9.581906e-02 9.535605e-02 9.502963e-02 9.481213e-02 9.481990e-02 9.479662e-02 9.509691e-02 9.519875e-02 9.573274e-02 9.587906e-02 9.657387e-02 9.667757e-02 9.744781e-02 9.741841e-02 9.816616e-02 9.791069e-02 9.852428e-02 9.794621e-02 9.829884e-02 9.729628e-02 9.724611e-02 9.571070e-02 9.510382e-02 9.292195e-02 9.159912e-02 8.865661e-02 8.646402e-02 8.265428e-02 7.945713e-02 7.469206e-02 7.038900e-02 6.461083e-02 5.914684e-02 5.233867e-02 4.571402e-02 3.790699e-02 3.018080e-02 2.145642e-02 1.274417e-02 3.231407e-03 -6.302880e-03 -1.643514e-02 -2.659056e-02 -3.714414e-02 -4.769626e-02 -5.845544e-02 -6.916919e-02 -7.991166e-02 -9.055213e-02 -1.010577e-01 -1.113978e-01 -1.214542e-01 -1.312788e-01 -1.406847e-01 -1.497922e-01 -1.583572e-01 -1.665586e-01 -1.741028e-01 -1.812202e-01 -1.875727e-01 
-2.105815e-01 -2.161243e-01 -2.210604e-01 -2.249650e-01 -2.282053e-01 -2.303132e-01 -2.317076e-01 -2.318782e-01 -2.312992e-01 -2.294197e-01 -2.267745e-01 -2.227738e-01 -2.180189e-01 -2.118825e-01 -2.050392e-01 -1.968244e-01 -1.879930e-01 -1.778408e-01 -1.672096e-01 -1.553505e-01 -1.431973e-01 -1.299485e-01 -1.166325e-01 -1.023847e-01 -8.832827e-02 -7.352327e-02 -5.918470e-02 -4.428667e-02 -3.012898e-02 -1.559288e-02 -2.052171e-03 1.170565e-02 2.424769e-02 3.687357e-02 4.811015e-02 5.932975e-02 6.904112e-02 7.866804e-02 8.672542e-02 9.466253e-02 1.010250e-01 1.072597e-01 1.119657e-01 1.165604e-01 1.197154e-01 1.227952e-01 1.245576e-01 1.262960e-01 1.268618e-01 1.274663e-01 1.270549e-01 1.267521e-01 1.255929e-01 1.246157e-01 1.229366e-01 1.215118e-01 1.195288e-01 1.178670e-01 1.157763e-01 1.140630e-01 1.120343e-01 1.104228e-01 1.085945e-01 1.072012e-01 1.056772e-01 1.045783e-01 1.034272e-01 1.026587e-01 1.019143e-01 1.014742e-01 1.011386e-01 1.009912e-01 1.010389e-01 1.011220e-01 1.015050e-01 1.017375e-01 1.023900e-01 1.026793e-01 1.035216e-01 1.037701e-01 1.047101e-01 1.048185e-01 1.057511e-01 1.056189e-01 1.064241e-01 1.059476e-01 1.064875e-01 1.055566e-01 1.056742e-01 1.041699e-01 1.036923e-01 1.014873e-01 1.002323e-01 9.719587e-02 9.498512e-02 9.099257e-02 8.766778e-02 8.261373e-02 7.805419e-02 7.186720e-02 6.600557e-02 5.866121e-02 5.149455e-02 4.302432e-02 3.461826e-02 2.511254e-02 1.559815e-02 5.202507e-03 -5.233500e-03 -1.632767e-02 -2.745722e-02 -3.902582e-02 -5.059567e-02 -6.239618e-02 -7.414335e-02 -8.592791e-02 -9.759220e-02 -1.091177e-01 -1.204502e-01 -1.314847e-01 -1.422521e-01 -1.525772e-01 -1.625624e-01 -1.719735e-01 -1.809739e-01 -1.892775e-01 -1.971024e-01 -2.041141e-01 
-2.287356e-01 -2.348565e-01 -2.403347e-01 -2.446858e-01 -2.483259e-01 -2.507295e-01 -2.523610e-01 -2.526553e-01 -2.521292e-01 -2.501798e-01 -2.473819e-01 -2.430977e-01 -2.379669e-01 -2.313186e-01 -2.238655e-01 -2.149041e-01 -2.052289e-01 -1.941014e-01 -1.824061e-01 -1.693636e-01 -1.559559e-01 -1.413514e-01 -1.266354e-01 -1.109093e-01 -9.536402e-02 -7.901752e-02 -6.316541e-02 -4.672596e-02 -3.109480e-02 -1.507884e-02 -1.641686e-04 1.495768e-02 2.872497e-02 4.255577e-02 5.483290e-02 6.706802e-02 7.761362e-02 8.804984e-02 9.672742e-02 1.052634e-01 1.120366e-01 1.186666e-01 1.235886e-01 1.283908e-01 1.315891e-01 1.347113e-01 1.363715e-01 1.380144e-01 1.383626e-01 1.387630e-01 1.380496e-01 1.374647e-01 1.359495e-01 1.346417e-01 1.325808e-01 1.308050e-01 1.284403e-01 1.264319e-01 1.239821e-01 1.219482e-01 1.196015e-01 1.177125e-01 1.156212e-01 1.140057e-01 1.122831e-01 1.110242e-01 1.097434e-01 1.088787e-01 1.080734e-01 1.075972e-01 1.072657e-01 1.071347e-01 1.072446e-01 1.073859e-01 1.078808e-01 1.082012e-01 1.090066e-01 1.094019e-01 1.104298e-01 1.107921e-01 1.119429e-01 1.121647e-01 1.133261e-01 1.133005e-01 1.143440e-01 1.139609e-01 1.147374e-01 1.138791e-01 1.142161e-01 1.127525e-01 1.124558e-01 1.102443e-01 1.091062e-01 1.059966e-01 1.038101e-01 9.965610e-02 9.623496e-02 9.090989e-02 8.610987e-02 7.952503e-02 7.326342e-02 6.538418e-02 5.765337e-02 4.851033e-02 3.938294e-02 2.907556e-02 1.870047e-02 7.392470e-03 -4.017314e-03 -1.610961e-02 -2.829459e-02 -4.091839e-02 -5.359232e-02 -6.647575e-02 -7.934409e-02 -9.221181e-02 -1.049863e-01 -1.175712e-01 -1.299795e-01 -1.420294e-01 -1.538190e-01 -1.650992e-01 -1.760375e-01 -1.863291e-01 -1.962002e-01 -2.052970e-01 -2.138972e-01 -2.216018e-01 