# vtk DataFile Version 2.0
Comment goes here
ASCII

DATASET STRUCTURED_POINTS
FIELD FieldData 1
TIME 1 1 double
0.13000000
DIMENSIONS    128   128   1

ORIGIN    0.000   0.000   0.000
SPACING   0.039062 0.039062   1.000

POINT_DATA   16384
SCALARS uY double
LOOKUP_TABLE default

-2.012511e-14 -1.870901e-14 -1.670677e-14 -1.487772e-14 -1.249249e-14 -1.037525e-14 -6.757217e-15 -4.184542e-15 -9.948398e-16 9.484928e-16 3.855474e-15 5.897608e-15 8.836168e-15 1.037536e-14 1.400302e-14 1.600594e-14 1.938991e-14 2.043669e-14 2.259691e-14 2.254084e-14 2.433174e-14 2.405819e-14 2.606401e-14 2.647416e-14 2.895376e-14 2.959222e-14 3.214371e-14 3.299424e-14 3.650769e-14 3.756890e-14 3.957096e-14 3.996703e-14 4.292228e-14 4.365561e-14 4.582029e-14 4.749833e-14 4.860664e-14 4.996753e-14 5.176854e-14 5.324028e-14 5.587335e-14 5.864749e-14 6.094212e-14 6.455687e-14 6.706084e-14 7.150588e-14 7.084665e-14 7.428285e-14 7.408510e-14 7.927809e-14 7.919973e-14 8.291859e-14 8.275791e-14 8.588730e-14 8.437123e-14 8.845639e-14 8.841547e-14 9.117104e-14 8.948850e-14 9.300830e-14 9.422825e-14 9.711761e-14 9.404733e-14 9.547795e-14 9.244836e-14 9.395204e-14 9.004838e-14 9.108646e-14 8.818048e-14 8.854437e-14 8.569694e-14 8.375406e-14 7.966736e-14 7.881009e-14 7.407762e-14 7.233748e-14 6.853710e-14 6.781332e-14 6.427482e-14 6.280668e-14 5.982246e-14 5.662075e-14 5.227032e-14 4.920300e-14 4.574989e-14 4.247344e-14 4.120951e-14 3.831654e-14 3.629003e-14 3.381422e-14 3.238217e-14 2.960305e-14 2.950159e-14 2.559141e-14 2.540405e-14 2.142082e-14 1.829077e-14 1.536664e-14 1.240848e-14 9.736572e-15 6.134301e-15 3.141522e-15 1.574110e-15 -2.487242e-15 -3.638719e-15 -7.362121e-15 -7.715864e-15 -1.132921e-14 -1.280863e-14 -1.515662e-14 -1.749196e-14 -1.994629e-14 -2.131220e-14 -2.363162e-14 -2.375971e-14 -2.576783e-14 -2.742445e-14 -2.892579e-14 -3.016753e-14 -3.028968e-14 -3.057813e-14 -3.026825e-14 -2.988850e-14 -2.918916e-14 -2.746449e-14 -2.602683e-14 -2.434398e-14 -2.245898e-14 
-2.748505e-02 -2.756232e-02 -2.788869e-02 -2.782614e-02 -2.800592e-02 -2.781084e-02 -2.785220e-02 -2.753245e-02 -2.744341e-02 -2.700705e-02 -2.679512e-02 -2.625013e-02 -2.592213e-02 -2.527637e-02 -2.483835e-02 -2.409959e-02 -2.355693e-02 -2.273295e-02 -2.209056e-02 -2.118930e-02 -2.045178e-02 -1.948151e-02 -1.865339e-02 -1.762277e-02 -1.670868e-02 -1.562687e-02 -1.463167e-02 -1.350831e-02 -1.243726e-02 -1.128244e-02 -1.014124e-02 -8.965435e-03 -7.760321e-03 -6.574328e-03 -5.312148e-03 -4.127005e-03 -2.815302e-03 -1.642213e-03 -2.893212e-04 8.604119e-04 2.245271e-03 3.360327e-03 4.766964e-03 5.836101e-03 7.253306e-03 8.265500e-03 9.681047e-03 1.062567e-02 1.202639e-02 1.289344e-02 1.426537e-02 1.504575e-02 1.637440e-02 1.706021e-02 1.833086e-02 1.891568e-02 2.011378e-02 2.059298e-02 2.170455e-02 2.207546e-02 2.308752e-02 2.334957e-02 2.425049e-02 2.440521e-02 2.518504e-02 2.523590e-02 2.588656e-02 2.583871e-02 2.635406e-02 2.621393e-02 2.658972e-02 2.636454e-02 2.659821e-02 2.629535e-02 2.638575e-02 2.601214e-02 2.595911e-02 2.552062e-02 2.532459e-02 2.482548e-02 2.448706e-02 2.392960e-02 2.344927e-02 2.283353e-02 2.221147e-02 2.153543e-02 2.077161e-02 2.003146e-02 1.912598e-02 1.831683e-02 1.727047e-02 1.638729e-02 1.520234e-02 1.424107e-02 1.292226e-02 1.188109e-02 1.043655e-02 9.317050e-03 7.759126e-03 6.567208e-03 4.912923e-03 3.659423e-03 1.930572e-03 6.313124e-04 -1.145987e-03 -2.470657e-03 -4.266921e-03 -5.593098e-03 -7.376852e-03 -8.678457e-03 -1.041789e-02 -1.166827e-02 -1.333295e-02 -1.450653e-02 -1.606899e-02 -1.714273e-02 -1.857974e-02 -1.953425e-02 -2.082764e-02 -2.164795e-02 -2.278497e-02 -2.346077e-02 -2.443396e-02 -2.495947e-02 -2.576614e-02 -2.613967e-02 -2.678114e-02 -2.700438e-02 
-5.487615e-02 -5.501425e-02 -5.565617e-02 -5.551740e-02 -5.586888e-02 -5.546761e-02 -5.554477e-02 -5.489644e-02 -5.471509e-02 -5.383546e-02 -5.341030e-02 -5.231500e-02 -5.165930e-02 -5.036368e-02 -4.948922e-02 -4.800847e-02 -4.692571e-02 -4.527509e-02 -4.399351e-02 -4.218865e-02 -4.071724e-02 -3.877443e-02 -3.712201e-02 -3.505843e-02 -3.323411e-02 -3.106794e-02 -2.908137e-02 -2.683180e-02 -2.469340e-02 -2.238059e-02 -2.010171e-02 -1.774663e-02 -1.533972e-02 -1.296399e-02 -1.044271e-02 -8.068468e-03 -5.447884e-03 -3.097620e-03 -3.943593e-04 1.909217e-03 4.676766e-03 6.910886e-03 9.722407e-03 1.186444e-02 1.469758e-02 1.672531e-02 1.955566e-02 2.144764e-02 2.424890e-02 2.598491e-02 2.872915e-02 3.029075e-02 3.294892e-02 3.432004e-02 3.686259e-02 3.803013e-02 4.042777e-02 4.138217e-02 4.360670e-02 4.434236e-02 4.636752e-02 4.688303e-02 4.868522e-02 4.898340e-02 5.054235e-02 5.062998e-02 5.192913e-02 5.181642e-02 5.284313e-02 5.254294e-02 5.328837e-02 5.281519e-02 5.327400e-02 5.264277e-02 5.281249e-02 5.203736e-02 5.191767e-02 5.101078e-02 5.060265e-02 4.957308e-02 4.887801e-02 4.773095e-02 4.675031e-02 4.548670e-02 4.422147e-02 4.283807e-02 4.128891e-02 3.977906e-02 3.794696e-02 3.630182e-02 3.418921e-02 3.239962e-02 3.001197e-02 2.807068e-02 2.541830e-02 2.332239e-02 2.042228e-02 1.817543e-02 1.505287e-02 1.266723e-02 9.356685e-03 6.853993e-03 3.399254e-03 8.109650e-04 -2.735786e-03 -5.369415e-03 -8.949499e-03 -1.158134e-02 -1.513232e-02 -1.771107e-02 -2.117005e-02 -2.364341e-02 -2.695037e-02 -2.926823e-02 -3.236919e-02 -3.448652e-02 -3.733596e-02 -3.921502e-02 -4.177753e-02 -4.338922e-02 -4.564010e-02 -4.696454e-02 -4.888952e-02 -4.991570e-02 -5.150994e-02 -5.223483e-02 -5.350130e-02 -5.392847e-02 
-8.275545e-02 -8.298111e-02 -8.395250e-02 -8.375755e-02 -8.428873e-02 -8.369562e-02 -8.381164e-02 -8.284436e-02 -8.256972e-02 -8.125263e-02 -8.061006e-02 -7.896722e-02 -7.797717e-02 -7.603213e-02 -7.471266e-02 -7.248860e-02 -7.085573e-02 -6.837584e-02 -6.644406e-02 -6.373205e-02 -6.151497e-02 -5.859549e-02 -5.610650e-02 -5.300551e-02 -5.025834e-02 -4.700328e-02 -4.401245e-02 -4.063228e-02 -3.741342e-02 -3.393847e-02 -3.050863e-02 -2.697041e-02 -2.334821e-02 -1.977919e-02 -1.598509e-02 -1.241844e-02 -8.474984e-03 -4.944395e-03 -8.764841e-04 2.584061e-03 6.748844e-03 1.010528e-02 1.433641e-02 1.755487e-02 2.181872e-02 2.486595e-02 2.912577e-02 3.196965e-02 3.618576e-02 3.879602e-02 4.292631e-02 4.527535e-02 4.927600e-02 5.133981e-02 5.516630e-02 5.692539e-02 6.053364e-02 6.197388e-02 6.532155e-02 6.643484e-02 6.948261e-02 7.026725e-02 7.297995e-02 7.344061e-02 7.578820e-02 7.593558e-02 7.789372e-02 7.774371e-02 7.929403e-02 7.886645e-02 7.999639e-02 7.931345e-02 8.001565e-02 7.910012e-02 7.937149e-02 7.824479e-02 7.808529e-02 7.676554e-02 7.617686e-02 7.467725e-02 7.366152e-02 7.198904e-02 7.054783e-02 6.870267e-02 6.683648e-02 6.481215e-02 6.252059e-02 6.030503e-02 5.758777e-02 5.516537e-02 5.202396e-02 4.937846e-02 4.581883e-02 4.293686e-02 3.897226e-02 3.584718e-02 3.150122e-02 2.813681e-02 2.344598e-02 1.985941e-02 1.487474e-02 1.109843e-02 5.885745e-03 1.967620e-03 -3.393765e-03 -7.391680e-03 -1.281194e-02 -1.681656e-02 -2.219961e-02 -2.613109e-02 -3.137979e-02 -3.515654e-02 -4.017802e-02 -4.372183e-02 -4.843241e-02 -5.167300e-02 -5.600217e-02 -5.888069e-02 -6.277360e-02 -6.524485e-02 -6.866336e-02 -7.069654e-02 -7.361875e-02 -7.519700e-02 -7.761565e-02 -7.873455e-02 -8.065455e-02 -8.131996e-02 
-1.103472e-01 -1.106112e-01 -1.118797e-01 -1.115878e-01 -1.122746e-01 -1.114566e-01 -1.115951e-01 -1.102827e-01 -1.099053e-01 -1.081304e-01 -1.072668e-01 -1.050608e-01 -1.037377e-01 -1.011312e-01 -9.937186e-02 -9.639511e-02 -9.422007e-02 -9.090322e-02 -8.833111e-02 -8.470510e-02 -8.175343e-02 -7.785064e-02 -7.453672e-02 -7.039138e-02 -6.673311e-02 -6.238155e-02 -5.839800e-02 -5.387872e-02 -4.959055e-02 -4.494396e-02 -4.037375e-02 -3.564195e-02 -3.081443e-02 -2.604082e-02 -2.098318e-02 -1.621218e-02 -1.095435e-02 -6.231074e-03 -8.061319e-04 3.823837e-03 9.379286e-03 1.387020e-02 1.951563e-02 2.382197e-02 2.951266e-02 3.358961e-02 3.927663e-02 4.308084e-02 4.871127e-02 5.220175e-02 5.771926e-02 6.085853e-02 6.620439e-02 6.895969e-02 7.407404e-02 7.641865e-02 8.124208e-02 8.315645e-02 8.763176e-02 8.910443e-02 9.317830e-02 9.420647e-02 9.783112e-02 9.842067e-02 1.015551e-01 1.017201e-01 1.043311e-01 1.040928e-01 1.061551e-01 1.055402e-01 1.070365e-01 1.060751e-01 1.069953e-01 1.057186e-01 1.060584e-01 1.044960e-01 1.042557e-01 1.024328e-01 1.016151e-01 9.955072e-02 9.815918e-02 9.586411e-02 9.390185e-02 9.137782e-02 8.884665e-02 8.608652e-02 8.298715e-02 7.997628e-02 7.630957e-02 7.302845e-02 6.879770e-02 6.522579e-02 6.044010e-02 5.656047e-02 5.123862e-02 4.704314e-02 4.121760e-02 3.671178e-02 3.043213e-02 2.563916e-02 1.897426e-02 1.393745e-02 6.975771e-03 1.758955e-03 -5.393220e-03 -1.070761e-02 -1.793018e-02 -2.324517e-02 -3.041002e-02 -3.561985e-02 -4.259776e-02 -4.759461e-02 -5.426248e-02 -5.894328e-02 -6.519065e-02 -6.946310e-02 -7.519736e-02 -7.898458e-02 -8.413425e-02 -8.737756e-02 -9.189353e-02 -9.455343e-02 -9.840821e-02 -1.004636e-01 -1.036491e-01 -1.050953e-01 -1.076192e-01 -1.084649e-01 
-1.389298e-01 -1.392847e-01 -1.408772e-01 -1.405274e-01 -1.413849e-01 -1.403697e-01 -1.405359e-01 -1.388967e-01 -1.384137e-01 -1.361918e-01 -1.350982e-01 -1.323339e-01 -1.306638e-01 -1.273963e-01 -1.251794e-01 -1.214468e-01 -1.187092e-01 -1.145497e-01 -1.113150e-01 -1.067676e-01 -1.030575e-01 -9.816290e-02 -9.399932e-02 -8.880053e-02 -8.420576e-02 -7.874853e-02 -7.374640e-02 -6.807909e-02 -6.269540e-02 -5.686879e-02 -5.113166e-02 -4.519855e-02 -3.913878e-02 -3.315352e-02 -2.680494e-02 -2.082305e-02 -1.422289e-02 -8.300751e-03 -1.490195e-03 4.315301e-03 1.129058e-02 1.692232e-02 2.401163e-02 2.941274e-02 3.656003e-02 4.167446e-02 4.881823e-02 5.359168e-02 6.066529e-02 6.504638e-02 7.197881e-02 7.592051e-02 8.263766e-02 8.609892e-02 9.252526e-02 9.547269e-02 1.015334e-01 1.039427e-01 1.095657e-01 1.114231e-01 1.165417e-01 1.178441e-01 1.223986e-01 1.231545e-01 1.270942e-01 1.273222e-01 1.306062e-01 1.303341e-01 1.329320e-01 1.321948e-01 1.340863e-01 1.329228e-01 1.340967e-01 1.325471e-01 1.329995e-01 1.311015e-01 1.308339e-01 1.286197e-01 1.276362e-01 1.251291e-01 1.234345e-01 1.206468e-01 1.182442e-01 1.151760e-01 1.120661e-01 1.087055e-01 1.048864e-01 1.012111e-01 9.668037e-02 9.266099e-02 8.741849e-02 8.302408e-02 7.707639e-02 7.228039e-02 6.564630e-02 6.043358e-02 5.314959e-02 4.752313e-02 3.964828e-02 3.363469e-02 2.525375e-02 1.890673e-02 1.013088e-02 3.531883e-03 -5.503424e-03 -1.224768e-02 -2.138797e-02 -2.815091e-02 -3.723038e-02 -4.387335e-02 -5.272413e-02 -5.910551e-02 -6.756735e-02 -7.355174e-02 -8.148088e-02 -8.694721e-02 -9.422329e-02 -9.907108e-02 -1.056016e-01 -1.097546e-01 -1.154764e-01 -1.188838e-01 -1.237623e-01 -1.263977e-01 -1.304234e-01 -1.322817e-01 -1.354661e-01 -1.365599e-01 
-1.670140e-01 -1.673781e-01 -1.692410e-01 -1.687660e-01 -1.697548e-01 -1.684884e-01 -1.686559e-01 -1.666474e-01 -1.660441e-01 -1.633425e-01 -1.620139e-01 -1.586666e-01 -1.566527e-01 -1.527053e-01 -1.500404e-01 -1.455375e-01 -1.422516e-01 -1.372375e-01 -1.333574e-01 -1.278779e-01 -1.234287e-01 -1.175317e-01 -1.125384e-01 -1.062749e-01 -1.007637e-01 -9.418826e-02 -8.818705e-02 -8.135763e-02 -7.489711e-02 -6.787465e-02 -6.098834e-02 -5.383638e-02 -4.656106e-02 -3.934510e-02 -3.172113e-02 -2.450816e-02 -1.657997e-02 -9.438015e-03 -1.254716e-03 5.747486e-03 1.413143e-02 2.092478e-02 2.944888e-02 3.596442e-02 4.456166e-02 5.073126e-02 5.932790e-02 6.508538e-02 7.360128e-02 7.888375e-02 8.723324e-02 9.198291e-02 1.000762e-01 1.042424e-01 1.119879e-01 1.155291e-01 1.228354e-01 1.257211e-01 1.325004e-01 1.347128e-01 1.408832e-01 1.424180e-01 1.479061e-01 1.487728e-01 1.535161e-01 1.537372e-01 1.576852e-01 1.572946e-01 1.604098e-01 1.594500e-01 1.617073e-01 1.602267e-01 1.616124e-01 1.596608e-01 1.601706e-01 1.577955e-01 1.574318e-01 1.546740e-01 1.534431e-01 1.503331e-01 1.482420e-01 1.447971e-01 1.418514e-01 1.380740e-01 1.342761e-01 1.301539e-01 1.255033e-01 1.210109e-01 1.155061e-01 1.106096e-01 1.042515e-01 9.891417e-02 9.171150e-02 8.590174e-02 7.787781e-02 7.157731e-02 6.277663e-02 5.598872e-02 4.648304e-02 3.923949e-02 2.913169e-02 2.149700e-02 1.092208e-02 2.994340e-03 -7.883349e-03 -1.597546e-02 -2.696861e-02 -3.507252e-02 -4.598039e-02 -5.392915e-02 -6.454904e-02 -7.217253e-02 -8.231165e-02 -8.944776e-02 -9.893404e-02 -1.054386e-01 -1.141290e-01 -1.198832e-01 -1.276690e-01 -1.325835e-01 -1.393920e-01 -1.434084e-01 -1.492011e-01 -1.522904e-01 -1.570593e-01 -1.592180e-01 -1.629796e-01 -1.642249e-01 
-1.966207e-01 -1.970704e-01 -1.992416e-01 -1.986976e-01 -1.998377e-01 -1.983591e-01 -1.985334e-01 -1.961809e-01 -1.954510e-01 -1.922840e-01 -1.907051e-01 -1.867804e-01 -1.844003e-01 -1.797721e-01 -1.766317e-01 -1.713525e-01 -1.674868e-01 -1.616088e-01 -1.570490e-01 -1.506255e-01 -1.454009e-01 -1.384881e-01 -1.326275e-01 -1.252852e-01 -1.188191e-01 -1.111113e-01 -1.040721e-01 -9.606686e-02 -8.849017e-02 -8.025912e-02 -7.218387e-02 -6.380147e-02 -5.527029e-02 -4.681319e-02 -3.787283e-02 -2.941926e-02 -2.012115e-02 -1.175046e-02 -2.151498e-03 6.056180e-03 1.589271e-02 2.385679e-02 3.386040e-02 4.150033e-02 5.159261e-02 5.882866e-02 6.892305e-02 7.567753e-02 8.567963e-02 9.187860e-02 1.016872e-01 1.072626e-01 1.167717e-01 1.216638e-01 1.307647e-01 1.349247e-01 1.435096e-01 1.469018e-01 1.548670e-01 1.574711e-01 1.647201e-01 1.665320e-01 1.729791e-01 1.740113e-01 1.795839e-01 1.798646e-01 1.845049e-01 1.840760e-01 1.877419e-01 1.866559e-01 1.893202e-01 1.876361e-01 1.892855e-01 1.870640e-01 1.876962e-01 1.849949e-01 1.846150e-01 1.814829e-01 1.801001e-01 1.765730e-01 1.741963e-01 1.702932e-01 1.669285e-01 1.626493e-01 1.582972e-01 1.536227e-01 1.482785e-01 1.431726e-01 1.368285e-01 1.312432e-01 1.238928e-01 1.177760e-01 1.094213e-01 1.027264e-01 9.338616e-02 8.608292e-02 7.580168e-02 6.788665e-02 5.674288e-02 4.824865e-02 3.636011e-02 2.736100e-02 1.488650e-02 5.499915e-03 -7.363796e-03 -1.698097e-02 -3.000708e-02 -3.966701e-02 -5.261069e-02 -6.210684e-02 -7.471983e-02 -8.384133e-02 -9.588718e-02 -1.044333e-01 -1.157012e-01 -1.234938e-01 -1.338092e-01 -1.407026e-01 -1.499336e-01 -1.558192e-01 -1.638789e-01 -1.686870e-01 -1.755310e-01 -1.792285e-01 -1.848498e-01 -1.874351e-01 -1.918569e-01 -1.933535e-01 
-2.254885e-01 -2.259104e-01 -2.283157e-01 -2.276100e-01 -2.288478e-01 -2.270835e-01 -2.272297e-01 -2.244761e-01 -2.236013e-01 -2.199256e-01 -2.180921e-01 -2.135578e-01 -2.108186e-01 -2.054858e-01 -2.018855e-01 -1.958119e-01 -1.913884e-01 -1.846316e-01 -1.794182e-01 -1.720373e-01 -1.660655e-01 -1.581233e-01 -1.514245e-01 -1.429885e-01 -1.355961e-01 -1.267390e-01 -1.186895e-01 -1.094890e-01 -1.008226e-01 -9.136070e-02 -8.212149e-02 -7.248382e-02 -6.272027e-02 -5.299493e-02 -4.276012e-02 -3.303705e-02 -2.238931e-02 -1.275980e-02 -1.763587e-03 7.680099e-03 1.895313e-02 2.811805e-02 3.958794e-02 4.838095e-02 5.995853e-02 6.828713e-02 7.987357e-02 8.764727e-02 9.913433e-02 1.062666e-01 1.175377e-01 1.239485e-01 1.348809e-01 1.404995e-01 1.509671e-01 1.557352e-01 1.656123e-01 1.694871e-01 1.786521e-01 1.816085e-01 1.899484e-01 1.919804e-01 1.993944e-01 2.005158e-01 2.069182e-01 2.071615e-01 2.124842e-01 2.118985e-01 2.160918e-01 2.147389e-01 2.177710e-01 2.157211e-01 2.175768e-01 2.149028e-01 2.155802e-01 2.123515e-01 2.118583e-01 2.081350e-01 2.064838e-01 2.023109e-01 1.995147e-01 1.949176e-01 1.909857e-01 1.859674e-01 1.809031e-01 1.754439e-01 1.692437e-01 1.633037e-01 1.559597e-01 1.494844e-01 1.409898e-01 1.339188e-01 1.242757e-01 1.165542e-01 1.057834e-01 9.737465e-02 8.552689e-02 7.642526e-02 6.359047e-02 5.383198e-02 4.014618e-02 2.981564e-02 1.546306e-02 4.695793e-03 -1.009470e-02 -2.111712e-02 -3.608150e-02 -4.714132e-02 -6.199479e-02 -7.285273e-02 -8.730721e-02 -9.771956e-02 -1.115018e-01 -1.212376e-01 -1.341056e-01 -1.429613e-01 -1.547165e-01 -1.625268e-01 -1.730216e-01 -1.796656e-01 -1.888049e-01 -1.942070e-01 -2.019455e-01 -2.060723e-01 -2.124078e-01 -2.152620e-01 -2.202264e-01 -2.218390e-01 
-2.564549e-01 -2.569461e-01 -2.596310e-01 -2.588336e-01 -2.601909e-01 -2.581882e-01 -2.583091e-01 -2.551838e-01 -2.541518e-01 -2.499828e-01 -2.478707e-01 -2.427313e-01 -2.396005e-01 -2.335592e-01 -2.294601e-01 -2.225822e-01 -2.175573e-01 -2.099072e-01 -2.039934e-01 -1.956377e-01 -1.888694e-01 -1.798786e-01 -1.722908e-01 -1.627411e-01 -1.543709e-01 -1.443446e-01 -1.352328e-01 -1.248180e-01 -1.150094e-01 -1.042994e-01 -9.384340e-02 -8.293500e-02 -7.188562e-02 -6.087838e-02 -4.929472e-02 -3.828999e-02 -2.623692e-02 -1.533739e-02 -2.886647e-03 7.803980e-03 2.057240e-02 3.094955e-02 4.394598e-02 5.390463e-02 6.702857e-02 7.646406e-02 8.960352e-02 9.841308e-02 1.114448e-01 1.195298e-01 1.323207e-01 1.395895e-01 1.519989e-01 1.583706e-01 1.702538e-01 1.756618e-01 1.868746e-01 1.912700e-01 2.016734e-01 2.050282e-01 2.144932e-01 2.168020e-01 2.252141e-01 2.264944e-01 2.337577e-01 2.340492e-01 2.400880e-01 2.394498e-01 2.442107e-01 2.427168e-01 2.461676e-01 2.439019e-01 2.460295e-01 2.430786e-01 2.438853e-01 2.403316e-01 2.398304e-01 2.357445e-01 2.339532e-01 2.293872e-01 2.263225e-01 2.213041e-01 2.169765e-01 2.115056e-01 2.059158e-01 1.999634e-01 1.931018e-01 1.866131e-01 1.784617e-01 1.713626e-01 1.619021e-01 1.541097e-01 1.433288e-01 1.347656e-01 1.226742e-01 1.132839e-01 9.992676e-02 8.969072e-02 7.516003e-02 6.411096e-02 4.855588e-02 3.678733e-02 2.041732e-02 8.086328e-03 -8.832611e-03 -2.151056e-02 -3.866727e-02 -5.143082e-02 -6.848681e-02 -8.104715e-02 -9.765858e-02 -1.097211e-01 -1.255616e-01 -1.368476e-01 -1.516285e-01 -1.618936e-01 -1.753798e-01 -1.844272e-01 -1.964456e-01 -2.041336e-01 -2.145753e-01 -2.208174e-01 -2.296336e-01 -2.343949e-01 -2.415885e-01 -2.448772e-01 -2.504913e-01 -2.523490e-01 
-2.863984e-01 -2.868149e-01 -2.896857e-01 -2.886806e-01 -2.900913e-01 -2.877595e-01 -2.878139e-01 -2.842479e-01 -2.830395e-01 -2.783261e-01 -2.759345e-01 -2.701531e-01 -2.666441e-01 -2.598679e-01 -2.552945e-01 -2.475927e-01 -2.419983e-01 -2.334394e-01 -2.268615e-01 -2.175165e-01 -2.099906e-01 -1.999358e-01 -1.914981e-01 -1.808169e-01 -1.715069e-01 -1.602904e-01 -1.501525e-01 -1.384988e-01 -1.275822e-01 -1.155954e-01 -1.039548e-01 -9.174325e-02 -7.943833e-02 -6.711355e-02 -5.420948e-02 -4.188490e-02 -2.845303e-02 -1.624352e-02 -2.362589e-03 9.615740e-03 2.385797e-02 3.548783e-02 4.999282e-02 6.115602e-02 7.581287e-02 8.639116e-02 1.010757e-01 1.109523e-01 1.255270e-01 1.345892e-01 1.489047e-01 1.570473e-01 1.709448e-01 1.780738e-01 1.913893e-01 1.974270e-01 2.099961e-01 2.148849e-01 2.265486e-01 2.302545e-01 2.408649e-01 2.433800e-01 2.528054e-01 2.541488e-01 2.622786e-01 2.624950e-01 2.692422e-01 2.683994e-01 2.737025e-01 2.718862e-01 2.757086e-01 2.730166e-01 2.753443e-01 2.718782e-01 2.727157e-01 2.685734e-01 2.679381e-01 2.632043e-01 2.611199e-01 2.558585e-01 2.523478e-01 2.465952e-01 2.416740e-01 2.354343e-01 2.291068e-01 2.223506e-01 2.146081e-01 2.072750e-01 1.980984e-01 1.901047e-01 1.794713e-01 1.707216e-01 1.586166e-01 1.490201e-01 1.354515e-01 1.249404e-01 1.099553e-01 9.850415e-02 8.220398e-02 6.984596e-02 5.239777e-02 3.923621e-02 2.087705e-02 7.088767e-03 -1.187856e-02 -2.604900e-02 -4.526933e-02 -5.952440e-02 -7.861139e-02 -9.262235e-02 -1.111844e-01 -1.246169e-01 -1.422841e-01 -1.548232e-01 -1.712712e-01 -1.826434e-01 -1.976109e-01 -2.075985e-01 -2.208970e-01 -2.293464e-01 -2.408615e-01 -2.476828e-01 -2.573691e-01 -2.625307e-01 -2.704008e-01 -2.739194e-01 -2.800304e-01 -2.819592e-01 
-3.190768e-01 -3.195316e-01 -3.226369e-01 -3.215028e-01 -3.229861e-01 -3.203763e-01 -3.203602e-01 -3.163832e-01 -3.149764e-01 -3.097318e-01 -3.070255e-01 -3.006028e-01 -2.966706e-01 -2.891509e-01 -2.840509e-01 -2.755097e-01 -2.692886e-01 -2.598002e-01 -2.524977e-01 -2.421393e-01 -2.337926e-01 -2.226477e-01 -2.132955e-01 -2.014560e-01 -1.911411e-01 -1.787081e-01 -1.674787e-01 -1.545614e-01 -1.424714e-01 -1.291856e-01 -1.162947e-01 -1.027607e-01 -8.913393e-02 -7.547508e-02 -6.118316e-02 -4.752446e-02 -3.264455e-02 -1.911225e-02 -3.729574e-03 9.548818e-03 2.533894e-02 3.823448e-02 5.432439e-02 6.670669e-02 8.297438e-02 9.471233e-02 1.110202e-01 1.219836e-01 1.381782e-01 1.482408e-01 1.641545e-01 1.731976e-01 1.886518e-01 1.965696e-01 2.113792e-01 2.180838e-01 2.320634e-01 2.374898e-01 2.504603e-01 2.545710e-01 2.663663e-01 2.691540e-01 2.796274e-01 2.811159e-01 2.901452e-01 2.903883e-01 2.978794e-01 2.969574e-01 3.028459e-01 3.008603e-01 3.051108e-01 3.021767e-01 3.047801e-01 3.010174e-01 3.019858e-01 2.975090e-01 2.968689e-01 2.917771e-01 2.895607e-01 2.839279e-01 2.801646e-01 2.740310e-01 2.687395e-01 2.621056e-01 2.552878e-01 2.481123e-01 2.397506e-01 2.319534e-01 2.220138e-01 2.134838e-01 2.019238e-01 1.925334e-01 1.793161e-01 1.689409e-01 1.540534e-01 1.425950e-01 1.260692e-01 1.134797e-01 9.541259e-02 8.171533e-02 6.228399e-02 4.758912e-02 2.705745e-02 1.156663e-02 -9.718741e-03 -2.571887e-02 -4.734456e-02 -6.350065e-02 -8.501263e-02 -1.009319e-01 -1.218680e-01 -1.371505e-01 -1.570738e-01 -1.713442e-01 -1.898732e-01 -2.028074e-01 -2.196372e-01 -2.309808e-01 -2.458952e-01 -2.554718e-01 -2.683441e-01 -2.760552e-01 -2.868407e-01 -2.926573e-01 -3.013800e-01 -3.053304e-01 -3.120656e-01 -3.142197e-01 
-3.503897e-01 -3.507099e-01 -3.539381e-01 -3.525384e-01 -3.540183e-01 -3.510261e-01 -3.508953e-01 -3.464302e-01 -3.448082e-01 -3.389776e-01 -3.359623e-01 -3.288607e-01 -3.245287e-01 -3.162400e-01 -3.106499e-01 -3.012515e-01 -2.944486e-01 -2.840167e-01 -2.760390e-01 -2.646536e-01 -2.555372e-01 -2.432864e-01 -2.330702e-01 -2.200528e-01 -2.087811e-01 -1.951071e-01 -1.828314e-01 -1.686204e-01 -1.553992e-01 -1.407789e-01 -1.266771e-01 -1.117802e-01 -9.686859e-02 -8.183084e-02 -6.618604e-02 -5.114490e-02 -3.485001e-02 -1.994413e-02 -3.090542e-03 1.154001e-02 2.885019e-02 4.306347e-02 6.071465e-02 7.436661e-02 9.222710e-02 1.051721e-01 1.230923e-01 1.351847e-01 1.529966e-01 1.640941e-01 1.816126e-01 1.915806e-01 2.086071e-01 2.173244e-01 2.336518e-01 2.410166e-01 2.564365e-01 2.623730e-01 2.766831e-01 2.811462e-01 2.941583e-01 2.971375e-01 3.086850e-01 3.102054e-01 3.201494e-01 3.202711e-01 3.285044e-01 3.273185e-01 3.337682e-01 3.313908e-01 3.360177e-01 3.325815e-01 3.353768e-01 3.310210e-01 3.320014e-01 3.268603e-01 3.260595e-01 3.202510e-01 3.177106e-01 3.113243e-01 3.070832e-01 3.001710e-01 2.942559e-01 2.868241e-01 2.792419e-01 2.712488e-01 2.619830e-01 2.533405e-01 2.423535e-01 2.329368e-01 2.201788e-01 2.098413e-01 1.952660e-01 1.838624e-01 1.674484e-01 1.548608e-01 1.366365e-01 1.228028e-01 1.028699e-01 8.780931e-02 6.636143e-02 5.019229e-02 2.752363e-02 1.046994e-02 -1.302935e-02 -3.064535e-02 -5.450784e-02 -7.228703e-02 -9.599885e-02 -1.134975e-01 -1.365367e-01 -1.533043e-01 -1.751806e-01 -1.907971e-01 -2.110861e-01 -2.251925e-01 -2.435604e-01 -2.558794e-01 -2.720955e-01 -2.824402e-01 -2.963765e-01 -3.046487e-01 -3.162699e-01 -3.224496e-01 -3.317969e-01 -3.359267e-01 -3.430970e-01 -3.452645e-01 
-3.851505e-01 -3.854583e-01 -3.888541e-01 -3.872699e-01 -3.887565e-01 -3.854311e-01 -3.851694e-01 -3.802411e-01 -3.783681e-01 -3.719583e-01 -3.685841e-01 -3.607972e-01 -3.560053e-01 -3.469316e-01 -3.407842e-01 -3.305054e-01 -3.230485e-01 -3.116446e-01 -3.029161e-01 -2.904715e-01 -2.805076e-01 -2.671167e-01 -2.559573e-01 -2.417273e-01 -2.294194e-01 -2.144706e-01 -2.010696e-01 -1.855339e-01 -1.711029e-01 -1.551208e-01 -1.397299e-01 -1.234469e-01 -1.071721e-01 -9.073645e-02 -7.365895e-02 -5.721982e-02 -3.942768e-02 -2.313485e-02 -4.724719e-03 1.127072e-02 3.019044e-02 4.573508e-02 6.504073e-02 7.997813e-02 9.952741e-02 1.136983e-01 1.333279e-01 1.465719e-01 1.660969e-01 1.782557e-01 1.974709e-01 2.083942e-01 2.270781e-01 2.366298e-01 2.545510e-01 2.626168e-01 2.795420e-01 2.860367e-01 3.017400e-01 3.066138e-01 3.208858e-01 3.241285e-01 3.367851e-01 3.384279e-01 3.493174e-01 3.494316e-01 3.584393e-01 3.571322e-01 3.641836e-01 3.615911e-01 3.666505e-01 3.629282e-01 3.659956e-01 3.613062e-01 3.624102e-01 3.569109e-01 3.560996e-01 3.499279e-01 3.472569e-01 3.405169e-01 3.360365e-01 3.287868e-01 3.225296e-01 3.147737e-01 3.067449e-01 2.984265e-01 2.885986e-01 2.796038e-01 2.679180e-01 2.580846e-01 2.444617e-01 2.335979e-01 2.179566e-01 2.058679e-01 1.881515e-01 1.746734e-01 1.548816e-01 1.399153e-01 1.181343e-01 1.016791e-01 7.810722e-02 6.028458e-02 3.524438e-02 1.630719e-02 -9.758046e-03 -2.943379e-02 -5.598238e-02 -7.592395e-02 -1.023539e-01 -1.220324e-01 -1.477294e-01 -1.666077e-01 -1.909949e-01 -2.085742e-01 -2.311554e-01 -2.470135e-01 -2.674029e-01 -2.812190e-01 -2.991557e-01 -3.107197e-01 -3.260668e-01 -3.352757e-01 -3.480063e-01 -3.548502e-01 -3.650263e-01 -3.695682e-01 -3.773153e-01 -3.796687e-01 
-4.181262e-01 -4.182229e-01 -4.216596e-01 -4.197377e-01 -4.211489e-01 -4.173767e-01 -4.169412e-01 -4.114694e-01 -4.093360e-01 -4.022934e-01 -3.985777e-01 -3.900719e-01 -3.848584e-01 -3.749798e-01 -3.683276e-01 -3.571565e-01 -3.491072e-01 -3.367222e-01 -3.273085e-01 -3.137946e-01 -3.030490e-01 -2.885036e-01 -2.764644e-01 -2.610011e-01 -2.477161e-01 -2.314647e-01 -2.169927e-01 -2.000969e-01 -1.845060e-01 -1.671195e-01 -1.504857e-01 -1.327675e-01 -1.151726e-01 -9.728430e-02 -7.881551e-02 -6.091892e-02 -4.166942e-02 -2.392680e-02 -3.998219e-03 1.342688e-02 3.392086e-02 5.086205e-02 7.179137e-02 8.807816e-02 1.092921e-01 1.247497e-01 1.460737e-01 1.605246e-01 1.817587e-01 1.950263e-01 2.159463e-01 2.278611e-01 2.482233e-01 2.586303e-01 2.781778e-01 2.869456e-01 3.054181e-01 3.124472e-01 3.295913e-01 3.348221e-01 3.504023e-01 3.538200e-01 3.676285e-01 3.692657e-01 3.811309e-01 3.810665e-01 3.908591e-01 3.892138e-01 3.968497e-01 3.937783e-01 3.992184e-01 3.948987e-01 3.981454e-01 3.927653e-01 3.938548e-01 3.875972e-01 3.865893e-01 3.796162e-01 3.765807e-01 3.690176e-01 3.640194e-01 3.559407e-01 3.490248e-01 3.404426e-01 3.316218e-01 3.224794e-01 3.117274e-01 3.019005e-01 2.891524e-01 2.784589e-01 2.636220e-01 2.518424e-01 2.348174e-01 2.217248e-01 2.024365e-01 1.878347e-01 1.662689e-01 1.500341e-01 1.262742e-01 1.083933e-01 8.265113e-02 6.325080e-02 3.588230e-02 1.524120e-02 -1.325751e-02 -3.471815e-02 -6.373650e-02 -8.548374e-02 -1.143420e-01 -1.357792e-01 -1.637855e-01 -1.843089e-01 -2.108179e-01 -2.298712e-01 -2.543343e-01 -2.714528e-01 -2.934516e-01 -3.082891e-01 -3.275504e-01 -3.398889e-01 -3.562810e-01 -3.660241e-01 -3.795391e-01 -3.866940e-01 -3.974217e-01 -4.020748e-01 -4.101724e-01 -4.124633e-01 
-4.553567e-01 -4.553635e-01 -4.588730e-01 -4.566879e-01 -4.580170e-01 -4.538373e-01 -4.531930e-01 -4.471916e-01 -4.447426e-01 -4.370632e-01 -4.329372e-01 -4.236957e-01 -4.179824e-01 -4.072730e-01 -4.000317e-01 -3.879355e-01 -3.792049e-01 -3.658010e-01 -3.556103e-01 -3.409853e-01 -3.293643e-01 -3.136204e-01 -3.006068e-01 -2.838659e-01 -2.695097e-01 -2.519132e-01 -2.362773e-01 -2.179828e-01 -2.011407e-01 -1.823166e-01 -1.643498e-01 -1.451697e-01 -1.261651e-01 -1.068034e-01 -8.685220e-02 -6.748259e-02 -4.668137e-02 -2.747655e-02 -5.930319e-03 1.293599e-02 3.510929e-02 5.345994e-02 7.612391e-02 9.377616e-02 1.167706e-01 1.335352e-01 1.566719e-01 1.723547e-01 1.954154e-01 2.098212e-01 2.325591e-01 2.454988e-01 2.676434e-01 2.789432e-01 3.002088e-01 3.097208e-01 3.298171e-01 3.374297e-01 3.560747e-01 3.617215e-01 3.786541e-01 3.823204e-01 3.973119e-01 3.990374e-01 4.119014e-01 4.117792e-01 4.223786e-01 4.205498e-01 4.288000e-01 4.254451e-01 4.313138e-01 4.266402e-01 4.301430e-01 4.243696e-01 4.255614e-01 4.189019e-01 4.178639e-01 4.105079e-01 4.073319e-01 3.994261e-01 3.941956e-01 3.858262e-01 3.785978e-01 3.697759e-01 3.605634e-01 3.512160e-01 3.399798e-01 3.299495e-01 3.165964e-01 3.056514e-01 2.900461e-01 2.779037e-01 2.598941e-01 2.462566e-01 2.257114e-01 2.103128e-01 1.871678e-01 1.698258e-01 1.441322e-01 1.247981e-01 9.676239e-02 7.555942e-02 4.556707e-02 2.280765e-02 -8.579273e-03 -3.240345e-02 -6.447684e-02 -8.873307e-02 -1.206949e-01 -1.446702e-01 -1.757044e-01 -1.986777e-01 -2.280245e-01 -2.493354e-01 -2.763536e-01 -2.954571e-01 -3.196660e-01 -3.361649e-01 -3.572605e-01 -3.709149e-01 -3.887631e-01 -3.994799e-01 -4.140933e-01 -4.219014e-01 -4.334053e-01 -4.384250e-01 -4.470200e-01 -4.494297e-01 
-4.902849e-01 -4.899818e-01 -4.934262e-01 -4.908137e-01 -4.919773e-01 -4.872741e-01 -4.863852e-01 -4.797776e-01 -4.770170e-01 -4.686550e-01 -4.641541e-01 -4.541537e-01 -4.479996e-01 -4.364507e-01 -4.286949e-01 -4.156724e-01 -4.063438e-01 -3.919209e-01 -3.810388e-01 -3.652990e-01 -3.528858e-01 -3.359324e-01 -3.220221e-01 -3.039831e-01 -2.886263e-01 -2.696539e-01 -2.529172e-01 -2.331831e-01 -2.151465e-01 -1.948345e-01 -1.755867e-01 -1.548858e-01 -1.345203e-01 -1.136193e-01 -9.223313e-02 -7.131857e-02 -4.901260e-02 -2.826931e-02 -5.151761e-03 1.523475e-02 3.904294e-02 5.888307e-02 8.324161e-02 1.023386e-01 1.270810e-01 1.452292e-01 1.701572e-01 1.871435e-01 2.120238e-01 2.276313e-01 2.521967e-01 2.662132e-01 2.901675e-01 3.023956e-01 3.254232e-01 3.356929e-01 3.574710e-01 3.656520e-01 3.858655e-01 3.918783e-01 4.102341e-01 4.140573e-01 4.302982e-01 4.319729e-01 4.458888e-01 4.455173e-01 4.569533e-01 4.546938e-01 4.635551e-01 4.596116e-01 4.658630e-01 4.604718e-01 4.641337e-01 4.575461e-01 4.586853e-01 4.511486e-01 4.498640e-01 4.416005e-01 4.380051e-01 4.291905e-01 4.233898e-01 4.141324e-01 4.062023e-01 3.965260e-01 3.864925e-01 3.763251e-01 3.641512e-01 3.533217e-01 3.389045e-01 3.271538e-01 3.103365e-01 2.973416e-01 2.779411e-01 2.633560e-01 2.412068e-01 2.247156e-01 1.997237e-01 1.811015e-01 1.533022e-01 1.324749e-01 1.020821e-01 7.917261e-02 4.660779e-02 2.195840e-02 -1.215031e-02 -3.798853e-02 -7.284224e-02 -9.915450e-02 -1.338505e-01 -1.598307e-01 -1.934487e-01 -2.182848e-01 -2.499747e-01 -2.729303e-01 -3.019851e-01 -3.224623e-01 -3.483645e-01 -3.659390e-01 -3.883767e-01 -4.028056e-01 -4.216610e-01 -4.328678e-01 -4.481866e-01 -4.562302e-01 -4.681806e-01 -4.732175e-01 -4.820464e-01 -4.842926e-01 