# vtk DataFile Version 2.0
Comment goes here
ASCII

DATASET STRUCTURED_POINTS
FIELD FieldData 1
TIME 1 1 double
0.24000000
DIMENSIONS    128   128   1

ORIGIN    0.000   0.000   0.000
SPACING   0.039062 0.039062   1.000

POINT_DATA   16384
SCALARS uY double
LOOKUP_TABLE default

-7.142859e-14 -7.194672e-14 -7.269044e-14 -7.288669e-14 -7.388259e-14 -7.402102e-14 -7.529880e-14 -7.538052e-14 -7.699814e-14 -7.739886e-14 -7.933795e-14 -7.974599e-14 -8.167872e-14 -8.220241e-14 -8.453720e-14 -8.518301e-14 -8.747716e-14 -8.727566e-14 -9.037011e-14 -9.041813e-14 -9.360937e-14 -9.354030e-14 -9.629384e-14 -9.538395e-14 -9.859569e-14 -9.745924e-14 -1.002307e-13 -9.988692e-14 -1.024073e-13 -1.003107e-13 -1.028104e-13 -1.009718e-13 -1.028511e-13 -1.013926e-13 -1.052902e-13 -1.029397e-13 -1.065586e-13 -1.035741e-13 -1.064155e-13 -1.025046e-13 -1.060315e-13 -1.026410e-13 -1.049453e-13 -1.009734e-13 -1.035054e-13 -9.877460e-14 -1.009618e-13 -9.662188e-14 -9.901626e-14 -9.490727e-14 -9.754926e-14 -9.304248e-14 -9.585739e-14 -9.166703e-14 -9.396595e-14 -8.910017e-14 -9.115066e-14 -8.644450e-14 -8.778083e-14 -8.392434e-14 -8.537208e-14 -8.113774e-14 -8.257402e-14 -7.815276e-14 -7.999919e-14 -7.755030e-14 -7.815754e-14 -7.629524e-14 -7.662906e-14 -7.468167e-14 -7.501723e-14 -7.506598e-14 -7.603067e-14 -7.630605e-14 -7.546202e-14 -7.784536e-14 -7.690188e-14 -7.871947e-14 -7.844938e-14 -8.052064e-14 -7.762338e-14 -8.103510e-14 -7.844686e-14 -8.294789e-14 -7.992969e-14 -8.325111e-14 -8.043761e-14 -8.500976e-14 -8.177439e-14 -8.562625e-14 -8.130973e-14 -8.555337e-14 -8.078155e-14 -8.473865e-14 -8.052149e-14 -8.604721e-14 -8.171122e-14 -8.459029e-14 -8.064660e-14 -8.311877e-14 -7.862279e-14 -8.127018e-14 -7.602700e-14 -7.926460e-14 -7.444054e-14 -7.666523e-14 -7.238725e-14 -7.423471e-14 -7.050821e-14 -7.259579e-14 -6.927183e-14 -7.119196e-14 -6.847471e-14 -6.992303e-14 -6.800806e-14 -6.945369e-14 -6.773446e-14 -6.945349e-14 -6.810805e-14 -6.911431e-14 -6.801363e-14 -6.879533e-14 -6.794902e-14 -6.875105e-14 -6.871882e-14 -6.960052e-14 -6.977601e-14 -7.068941e-14 
-1.001661e-02 -1.028317e-02 -1.051496e-02 -1.070501e-02 -1.085300e-02 -1.095991e-02 -1.101816e-02 -1.103705e-02 -1.100160e-02 -1.092967e-02 -1.079887e-02 -1.063576e-02 -1.041059e-02 -1.015858e-02 -9.842882e-03 -9.507115e-03 -9.107662e-03 -8.696114e-03 -8.222560e-03 -7.745900e-03 -7.210498e-03 -6.681727e-03 -6.098863e-03 -5.532771e-03 -4.918319e-03 -4.330784e-03 -3.701327e-03 -3.108521e-03 -2.480512e-03 -1.898066e-03 -1.286994e-03 -7.292128e-04 -1.488493e-04 3.719704e-04 9.101781e-04 1.384264e-03 1.871618e-03 2.292048e-03 2.722818e-03 3.085640e-03 3.457079e-03 3.761234e-03 4.073408e-03 4.320479e-03 4.575940e-03 4.769760e-03 4.973104e-03 5.119276e-03 5.276624e-03 5.381976e-03 5.500427e-03 5.572458e-03 5.659540e-03 5.705899e-03 5.769061e-03 5.797073e-03 5.843240e-03 5.859519e-03 5.894727e-03 5.904883e-03 5.934013e-03 5.942457e-03 5.969067e-03 5.978920e-03 6.005187e-03 6.018275e-03 6.045021e-03 6.061952e-03 6.088759e-03 6.109058e-03 6.134450e-03 6.156726e-03 6.178387e-03 6.200524e-03 6.215532e-03 6.234863e-03 6.239919e-03 6.253383e-03 6.245000e-03 6.249255e-03 6.223902e-03 6.215402e-03 6.169592e-03 6.144626e-03 6.074953e-03 6.029666e-03 5.932815e-03 5.863231e-03 5.735974e-03 5.638047e-03 5.477269e-03 5.346977e-03 5.149744e-03 4.983254e-03 4.746939e-03 4.540828e-03 4.263299e-03 4.014825e-03 3.694685e-03 3.402080e-03 3.038916e-03 2.701668e-03 2.296294e-03 1.915381e-03 1.470027e-03 1.048069e-03 5.664989e-04 1.078128e-04 -4.046552e-04 -8.941046e-04 -1.430666e-03 -1.943412e-03 -2.495929e-03 -3.023224e-03 -3.582445e-03 -4.114529e-03 -4.670338e-03 -5.196732e-03 -5.738422e-03 -6.248214e-03 -6.764755e-03 -7.246881e-03 -7.727174e-03 -8.170674e-03 -8.603807e-03 -8.998067e-03 -9.373558e-03 -9.708556e-03 
-2.009098e-02 -2.062515e-02 -2.109137e-02 -2.147223e-02 -2.177031e-02 -2.198451e-02 -2.210250e-02 -2.214018e-02 -2.207005e-02 -2.192554e-02 -2.166392e-02 -2.133637e-02 -2.088516e-02 -2.037912e-02 -1.974594e-02 -1.907163e-02 -1.827005e-02 -1.744345e-02 -1.649281e-02 -1.553530e-02 -1.446022e-02 -1.339791e-02 -1.222729e-02 -1.108990e-02 -9.855676e-03 -8.675127e-03 -7.410674e-03 -6.219499e-03 -4.957933e-03 -3.787586e-03 -2.560089e-03 -1.439360e-03 -2.736585e-04 7.726991e-04 1.853560e-03 2.805870e-03 3.784381e-03 4.628700e-03 5.493330e-03 6.221688e-03 6.966910e-03 7.577155e-03 8.203105e-03 8.698397e-03 9.210214e-03 9.598248e-03 1.000518e-02 1.029721e-02 1.061159e-02 1.082132e-02 1.105744e-02 1.119997e-02 1.137299e-02 1.146370e-02 1.158862e-02 1.164227e-02 1.173304e-02 1.176295e-02 1.183175e-02 1.184925e-02 1.190592e-02 1.191992e-02 1.197164e-02 1.198849e-02 1.203966e-02 1.206307e-02 1.211537e-02 1.214663e-02 1.219924e-02 1.223743e-02 1.228739e-02 1.232978e-02 1.237245e-02 1.241482e-02 1.244435e-02 1.248136e-02 1.249114e-02 1.251667e-02 1.249971e-02 1.250707e-02 1.245632e-02 1.243839e-02 1.234687e-02 1.229620e-02 1.215712e-02 1.206596e-02 1.187267e-02 1.173303e-02 1.147906e-02 1.128280e-02 1.096187e-02 1.070090e-02 1.030708e-02 9.973674e-03 9.501608e-03 9.088874e-03 8.534200e-03 8.036602e-03 7.396413e-03 6.810380e-03 6.083746e-03 5.408234e-03 4.596699e-03 3.833657e-03 2.941629e-03 2.096307e-03 1.131297e-03 2.123532e-04 -8.149804e-04 -1.795582e-03 -2.871578e-03 -3.898865e-03 -5.007171e-03 -6.063607e-03 -7.185625e-03 -8.251652e-03 -9.367050e-03 -1.042168e-02 -1.150894e-02 -1.253031e-02 -1.356728e-02 -1.453325e-02 -1.549764e-02 -1.638626e-02 -1.725616e-02 -1.804616e-02 -1.880052e-02 -1.947182e-02 
-3.019459e-02 -3.100231e-02 -3.170524e-02 -3.228202e-02 -3.273192e-02 -3.305753e-02 -3.323624e-02 -3.329569e-02 -3.319097e-02 -3.297557e-02 -3.258218e-02 -3.209055e-02 -3.141121e-02 -3.065006e-02 -2.969618e-02 -2.868089e-02 -2.747288e-02 -2.622757e-02 -2.479466e-02 -2.335168e-02 -2.173109e-02 -2.012999e-02 -1.836552e-02 -1.665136e-02 -1.479142e-02 -1.301265e-02 -1.110782e-02 -9.313768e-03 -7.414250e-03 -5.652604e-03 -3.805609e-03 -2.119961e-03 -3.674141e-04 1.204826e-03 2.828160e-03 4.257351e-03 5.725158e-03 6.990414e-03 8.285488e-03 9.375030e-03 1.048930e-02 1.140020e-02 1.233419e-02 1.307158e-02 1.383338e-02 1.440926e-02 1.501318e-02 1.544488e-02 1.590983e-02 1.621838e-02 1.656621e-02 1.677465e-02 1.702844e-02 1.716018e-02 1.734273e-02 1.742014e-02 1.755259e-02 1.759580e-02 1.769653e-02 1.772257e-02 1.780638e-02 1.782858e-02 1.790622e-02 1.793395e-02 1.801192e-02 1.805057e-02 1.813122e-02 1.818248e-02 1.826438e-02 1.832667e-02 1.840516e-02 1.847411e-02 1.854202e-02 1.861110e-02 1.865942e-02 1.872048e-02 1.873913e-02 1.878287e-02 1.876124e-02 1.877755e-02 1.870497e-02 1.868317e-02 1.854914e-02 1.847808e-02 1.827237e-02 1.814047e-02 1.785312e-02 1.764841e-02 1.726973e-02 1.697996e-02 1.650054e-02 1.611349e-02 1.552440e-02 1.502834e-02 1.432152e-02 1.370591e-02 1.287472e-02 1.213106e-02 1.117105e-02 1.029374e-02 9.203430e-03 8.190707e-03 6.972354e-03 5.826995e-03 4.487171e-03 3.216980e-03 1.766952e-03 3.849303e-04 -1.159276e-03 -2.635088e-03 -4.252904e-03 -5.799886e-03 -7.466687e-03 -9.058326e-03 -1.074610e-02 -1.235283e-02 -1.403096e-02 -1.562104e-02 -1.725714e-02 -1.879757e-02 -2.035828e-02 -2.181561e-02 -2.326740e-02 -2.460851e-02 -2.591838e-02 -2.711118e-02 -2.824744e-02 -2.926160e-02 
-4.047212e-02 -4.155664e-02 -4.250426e-02 -4.327932e-02 -4.388745e-02 -4.432569e-02 -4.456969e-02 -4.465070e-02 -4.451383e-02 -4.422563e-02 -4.370049e-02 -4.304087e-02 -4.213082e-02 -4.110850e-02 -3.982859e-02 -3.846400e-02 -3.684149e-02 -3.516689e-02 -3.324101e-02 -3.129990e-02 -2.912082e-02 -2.696648e-02 -2.459332e-02 -2.228660e-02 -1.978478e-02 -1.739115e-02 -1.482912e-02 -1.241531e-02 -9.860993e-03 -7.491501e-03 -5.008767e-03 -2.742540e-03 -3.880734e-04 1.724336e-03 3.903592e-03 5.822179e-03 7.790764e-03 9.487402e-03 1.122222e-02 1.268112e-02 1.417147e-02 1.538883e-02 1.663563e-02 1.761856e-02 1.863297e-02 1.939781e-02 2.019938e-02 2.076973e-02 2.138421e-02 2.178860e-02 2.224568e-02 2.251534e-02 2.284636e-02 2.301300e-02 2.324887e-02 2.334279e-02 2.351215e-02 2.356061e-02 2.368834e-02 2.371438e-02 2.382050e-02 2.384216e-02 2.394118e-02 2.397111e-02 2.407177e-02 2.411730e-02 2.422271e-02 2.428613e-02 2.439430e-02 2.447344e-02 2.457801e-02 2.466701e-02 2.475821e-02 2.484828e-02 2.491394e-02 2.499410e-02 2.502063e-02 2.507839e-02 2.505153e-02 2.507335e-02 2.497880e-02 2.495036e-02 2.477413e-02 2.468049e-02 2.440894e-02 2.423458e-02 2.385445e-02 2.358328e-02 2.308158e-02 2.269713e-02 2.206118e-02 2.154693e-02 2.076460e-02 2.010467e-02 1.916488e-02 1.834492e-02 1.723847e-02 1.624683e-02 1.496737e-02 1.379634e-02 1.234153e-02 1.098855e-02 9.361070e-03 7.829733e-03 6.038171e-03 4.338868e-03 2.398195e-03 5.483462e-04 -1.519977e-03 -3.496148e-03 -5.664484e-03 -7.736586e-03 -9.971791e-03 -1.210421e-02 -1.436857e-02 -1.652160e-02 -1.877390e-02 -2.090499e-02 -2.310166e-02 -2.516656e-02 -2.726276e-02 -2.921664e-02 -3.116732e-02 -3.296579e-02 -3.472662e-02 -3.632670e-02 -3.785508e-02 -3.921607e-02 
-5.080923e-02 -5.218258e-02 -5.337962e-02 -5.436336e-02 -5.513331e-02 -5.569259e-02 -5.600399e-02 -5.611268e-02 -5.594393e-02 -5.558645e-02 -5.492774e-02 -5.410085e-02 -5.295593e-02 -5.167026e-02 -5.005778e-02 -4.833888e-02 -4.629309e-02 -4.418165e-02 -4.175216e-02 -3.930331e-02 -3.655373e-02 -3.383523e-02 -3.084077e-02 -2.793011e-02 -2.477408e-02 -2.175472e-02 -1.852433e-02 -1.548134e-02 -1.226309e-02 -9.278634e-03 -6.153774e-03 -3.302829e-03 -3.433058e-04 2.310023e-03 5.044834e-03 7.450051e-03 9.915564e-03 1.203747e-02 1.420497e-02 1.602421e-02 1.788085e-02 1.939341e-02 2.094118e-02 2.215695e-02 2.341084e-02 2.435146e-02 2.533708e-02 2.603329e-02 2.678403e-02 2.727276e-02 2.782687e-02 2.814829e-02 2.854597e-02 2.874070e-02 2.902146e-02 2.912808e-02 2.932839e-02 2.938146e-02 2.953285e-02 2.956140e-02 2.968911e-02 2.971566e-02 2.983781e-02 2.987796e-02 3.000526e-02 3.006777e-02 3.020374e-02 3.029094e-02 3.043258e-02 3.054121e-02 3.068000e-02 3.080216e-02 3.092531e-02 3.104949e-02 3.114123e-02 3.125332e-02 3.129617e-02 3.138026e-02 3.135607e-02 3.139509e-02 3.128576e-02 3.126179e-02 3.104972e-02 3.094412e-02 3.061227e-02 3.040569e-02 2.993751e-02 2.960985e-02 2.898913e-02 2.851967e-02 2.773051e-02 2.709836e-02 2.612546e-02 2.531033e-02 2.413959e-02 2.312298e-02 2.174255e-02 2.050926e-02 1.891084e-02 1.745058e-02 1.563088e-02 1.393990e-02 1.190199e-02 9.984374e-03 7.738819e-03 5.607394e-03 3.172887e-03 8.494957e-04 -1.747007e-03 -4.231794e-03 -6.955483e-03 -9.563201e-03 -1.237229e-02 -1.505782e-02 -1.790475e-02 -2.061783e-02 -2.345066e-02 -2.613742e-02 -2.890126e-02 -3.150576e-02 -3.414416e-02 -3.660981e-02 -3.906605e-02 -4.133682e-02 -4.355512e-02 -4.557675e-02 -4.750342e-02 -4.922455e-02 
-6.143838e-02 -6.310623e-02 -6.456627e-02 -6.576290e-02 -6.670569e-02 -6.738834e-02 -6.777509e-02 -6.791142e-02 -6.771516e-02 -6.728548e-02 -6.649349e-02 -6.549306e-02 -6.410910e-02 -6.255009e-02 -6.059617e-02 -5.850904e-02 -5.602637e-02 -5.346027e-02 -5.050903e-02 -4.753100e-02 -4.418880e-02 -4.088158e-02 -3.724046e-02 -3.369895e-02 -2.986109e-02 -2.618764e-02 -2.226011e-02 -1.855916e-02 -1.464819e-02 -1.102059e-02 -7.225910e-03 -3.763605e-03 -1.733910e-04 3.045112e-03 6.358273e-03 9.271313e-03 1.225313e-02 1.481793e-02 1.743373e-02 1.962705e-02 2.186168e-02 2.367912e-02 2.553569e-02 2.698994e-02 2.848748e-02 2.960560e-02 3.077610e-02 3.159625e-02 3.248118e-02 3.304901e-02 3.369570e-02 3.406075e-02 3.451883e-02 3.473109e-02 3.504921e-02 3.515610e-02 3.537909e-02 3.542301e-02 3.558956e-02 3.560605e-02 3.574706e-02 3.576364e-02 3.590117e-02 3.593685e-02 3.608384e-02 3.614917e-02 3.630969e-02 3.640741e-02 3.657749e-02 3.670346e-02 3.687240e-02 3.701682e-02 3.716872e-02 3.731747e-02 3.743288e-02 3.756869e-02 3.762620e-02 3.772973e-02 3.770724e-02 3.775781e-02 3.763345e-02 3.760941e-02 3.736202e-02 3.724091e-02 3.685010e-02 3.660856e-02 3.605451e-02 3.566823e-02 3.493141e-02 3.437520e-02 3.343630e-02 3.268460e-02 3.152479e-02 3.055262e-02 2.915429e-02 2.793871e-02 2.628680e-02 2.480879e-02 2.289240e-02 2.113890e-02 1.895321e-02 1.691916e-02 1.446716e-02 1.215713e-02 9.451063e-03 6.880360e-03 3.942570e-03 1.137600e-03 -1.999341e-03 -5.001462e-03 -8.295270e-03 -1.144778e-02 -1.484759e-02 -1.809566e-02 -2.154355e-02 -2.482614e-02 -2.825889e-02 -3.151066e-02 -3.486156e-02 -3.801476e-02 -4.121525e-02 -4.420137e-02 -4.718263e-02 -4.993392e-02 -5.262827e-02 -5.507907e-02 -5.742134e-02 -5.950939e-02 
-7.215960e-02 -7.414039e-02 -7.587093e-02 -7.729645e-02 -7.841789e-02 -7.923695e-02 -7.970263e-02 -7.987612e-02 -7.965314e-02 -7.915680e-02 -7.822903e-02 -7.705623e-02 -7.542708e-02 -7.359134e-02 -7.128603e-02 -6.882279e-02 -6.588965e-02 -6.285693e-02 -5.936724e-02 -5.584476e-02 -5.189101e-02 -4.797761e-02 -4.366985e-02 -3.947922e-02 -3.493991e-02 -3.059486e-02 -2.595241e-02 -2.157829e-02 -1.696003e-02 -1.267778e-02 -8.203078e-03 -4.122693e-03 1.032293e-04 3.888186e-03 7.779127e-03 1.119563e-02 1.468764e-02 1.768562e-02 2.073850e-02 2.329154e-02 2.588867e-02 2.799308e-02 3.013972e-02 3.181230e-02 3.353278e-02 3.480747e-02 3.614146e-02 3.706531e-02 3.806361e-02 3.869237e-02 3.941254e-02 3.980631e-02 4.030835e-02 4.052741e-02 4.086987e-02 4.097107e-02 4.120762e-02 4.124145e-02 4.141817e-02 4.142662e-02 4.158003e-02 4.159526e-02 4.175114e-02 4.179494e-02 4.196800e-02 4.205198e-02 4.224626e-02 4.237264e-02 4.258254e-02 4.274543e-02 4.295731e-02 4.314420e-02 4.333836e-02 4.353177e-02 4.368440e-02 4.386342e-02 4.394862e-02 4.409014e-02 4.408144e-02 4.416106e-02 4.403256e-02 4.402499e-02 4.375186e-02 4.363101e-02 4.318951e-02 4.292827e-02 4.229539e-02 4.186541e-02 4.101845e-02 4.039012e-02 3.930645e-02 3.844942e-02 3.710672e-02 3.599095e-02 3.436810e-02 3.296564e-02 3.104425e-02 2.933156e-02 2.709802e-02 2.505854e-02 2.250635e-02 2.013299e-02 1.726497e-02 1.456228e-02 1.139230e-02 8.377798e-03 4.931863e-03 1.636537e-03 -2.047060e-03 -5.579273e-03 -9.450607e-03 -1.316416e-02 -1.716307e-02 -2.099275e-02 -2.505075e-02 -2.892402e-02 -3.296640e-02 -3.680573e-02 -4.075374e-02 -4.447887e-02 -4.825166e-02 -5.178158e-02 -5.529804e-02 -5.855269e-02 -6.173306e-02 -6.463487e-02 -6.740225e-02 -6.987759e-02 
-8.329418e-02 -8.559633e-02 -8.761706e-02 -8.927796e-02 -9.059419e-02 -9.155359e-02 -9.211003e-02 -9.232133e-02 -9.207840e-02 -9.151195e-02 -9.044934e-02 -8.909590e-02 -8.721604e-02 -8.508986e-02 -8.242075e-02 -7.956192e-02 -7.615890e-02 -7.263426e-02 -6.858005e-02 -6.448237e-02 -5.988502e-02 -5.533003e-02 -5.031878e-02 -4.544008e-02 -4.015912e-02 -3.510140e-02 -2.970214e-02 -2.461316e-02 -1.924580e-02 -1.426810e-02 -9.073272e-03 -4.336346e-03 5.622666e-04 4.948582e-03 9.450016e-03 1.340036e-02 1.743019e-02 2.088649e-02 2.439853e-02 2.733074e-02 3.030669e-02 3.271165e-02 3.515906e-02 3.705769e-02 3.900648e-02 4.043981e-02 4.193785e-02 4.296220e-02 4.407029e-02 4.475204e-02 4.553871e-02 4.594914e-02 4.648559e-02 4.669596e-02 4.705145e-02 4.712880e-02 4.736665e-02 4.737037e-02 4.754477e-02 4.752408e-02 4.767779e-02 4.767022e-02 4.783326e-02 4.786405e-02 4.805326e-02 4.813564e-02 4.835519e-02 4.849134e-02 4.873403e-02 4.891662e-02 4.916584e-02 4.937983e-02 4.961188e-02 4.983657e-02 5.002316e-02 5.023395e-02 5.034454e-02 5.051451e-02 5.051822e-02 5.061912e-02 5.048605e-02 5.048881e-02 5.019059e-02 5.006528e-02 4.957494e-02 4.929046e-02 4.858190e-02 4.810558e-02 4.715286e-02 4.645035e-02 4.522725e-02 4.426298e-02 4.274320e-02 4.148164e-02 3.963979e-02 3.804755e-02 3.586101e-02 3.390964e-02 3.136112e-02 2.903020e-02 2.611062e-02 2.339090e-02 2.010214e-02 1.699809e-02 1.335520e-02 9.886690e-03 5.919216e-03 2.122017e-03 -2.125815e-03 -6.200628e-03 -1.067076e-02 -1.495850e-02 -1.958080e-02 -2.400555e-02 -2.870015e-02 -3.317757e-02 -3.785748e-02 -4.229763e-02 -4.687127e-02 -5.118122e-02 -5.555477e-02 -5.964086e-02 -6.372032e-02 -6.749006e-02 -7.118303e-02 -7.454676e-02 -7.776410e-02 -8.063659e-02 
-9.455647e-02 -9.720536e-02 -9.952701e-02 -1.014454e-01 -1.029650e-01 -1.040829e-01 -1.047357e-01 -1.049983e-01 -1.047372e-01 -1.041086e-01 -1.029083e-01 -1.013761e-01 -9.923748e-02 -9.681621e-02 -9.376976e-02 -9.050416e-02 -8.661237e-02 -8.257865e-02 -7.793630e-02 -7.324134e-02 -6.797335e-02 -6.275136e-02 -5.700786e-02 -5.141441e-02 -4.536341e-02 -3.956733e-02 -3.338544e-02 -2.755925e-02 -2.142159e-02 -1.573150e-02 -9.801691e-03 -4.398257e-03 1.180339e-03 6.170015e-03 1.128113e-02 1.575908e-02 2.031790e-02 2.421848e-02 2.817351e-02 3.146414e-02 3.479663e-02 3.747623e-02 4.019758e-02 4.229316e-02 4.444069e-02 4.600251e-02 4.763416e-02 4.872993e-02 4.991830e-02 5.062703e-02 5.145325e-02 5.185907e-02 5.240688e-02 5.259335e-02 5.294375e-02 5.298892e-02 5.321553e-02 5.318800e-02 5.335342e-02 5.330950e-02 5.346270e-02 5.344472e-02 5.361953e-02 5.365529e-02 5.387003e-02 5.397322e-02 5.423136e-02 5.440282e-02 5.469459e-02 5.492423e-02 5.522895e-02 5.549805e-02 5.578701e-02 5.607058e-02 5.631002e-02 5.657907e-02 5.673304e-02 5.695638e-02 5.698903e-02 5.713448e-02 5.701155e-02 5.704642e-02 5.673587e-02 5.662679e-02 5.609852e-02 5.581086e-02 5.503586e-02 5.453303e-02 5.348234e-02 5.272538e-02 5.136941e-02 5.031741e-02 4.862595e-02 4.723737e-02 4.518073e-02 4.341590e-02 4.096709e-02 3.879153e-02 3.592934e-02 3.331766e-02 3.003017e-02 2.696987e-02 2.325786e-02 1.975254e-02 1.563215e-02 1.170359e-02 7.207934e-03 2.896742e-03 -1.923864e-03 -6.559039e-03 -1.163816e-02 -1.652271e-02 -2.177993e-02 -2.682626e-02 -3.217001e-02 -3.728093e-02 -4.261160e-02 -4.768370e-02 -5.289666e-02 -5.782338e-02 -6.281161e-02 -6.748580e-02 -7.214220e-02 -7.645825e-02 -8.067752e-02 -8.453306e-02 -8.821352e-02 -9.151109e-02 
-1.063577e-01 -1.093651e-01 -1.120141e-01 -1.141994e-01 -1.159444e-01 -1.172271e-01 -1.179927e-01 -1.183086e-01 -1.180393e-01 -1.173453e-01 -1.160097e-01 -1.142889e-01 -1.118852e-01 -1.091517e-01 -1.057121e-01 -1.020147e-01 -9.760863e-02 -9.303266e-02 -8.776742e-02 -8.243436e-02 -7.645264e-02 -7.051624e-02 -6.399068e-02 -5.763012e-02 -5.075462e-02 -4.416484e-02 -3.714363e-02 -3.052407e-02 -2.355964e-02 -1.710233e-02 -1.038359e-02 -4.262143e-03 2.045910e-03 7.685477e-03 1.344972e-02 1.849554e-02 2.361973e-02 2.799770e-02 3.242442e-02 3.609885e-02 3.980875e-02 4.278045e-02 4.578895e-02 4.809107e-02 5.044341e-02 5.213576e-02 5.390067e-02 5.506291e-02 5.632570e-02 5.705014e-02 5.790559e-02 5.829008e-02 5.883559e-02 5.897695e-02 5.930638e-02 5.929470e-02 5.949308e-02 5.940724e-02 5.954657e-02 5.945103e-02 5.958733e-02 5.953023e-02 5.970185e-02 5.971444e-02 5.994162e-02 6.003881e-02 6.032454e-02 6.050645e-02 6.083836e-02 6.109257e-02 6.144578e-02 6.175007e-02 6.209057e-02 6.241579e-02 6.270408e-02 6.301678e-02 6.321127e-02 6.347589e-02 6.353565e-02 6.371591e-02 6.360242e-02 6.366180e-02 6.333958e-02 6.324105e-02 6.267715e-02 6.238226e-02 6.154499e-02 6.101284e-02 5.987028e-02 5.905689e-02 5.757577e-02 5.643431e-02 5.457985e-02 5.306217e-02 5.079933e-02 4.885882e-02 4.615489e-02 4.375049e-02 4.057890e-02 3.767976e-02 3.402439e-02 3.061451e-02 2.647391e-02 2.255598e-02 1.794673e-02 1.354461e-02 8.503234e-03 3.662737e-03 -1.754029e-03 -6.966213e-03 -1.268278e-02 -1.818162e-02 -2.410626e-02 -2.979197e-02 -3.582027e-02 -4.158241e-02 -4.760100e-02 -5.332240e-02 -5.921252e-02 -6.477281e-02 -7.041337e-02 -7.569183e-02 -8.096185e-02 -8.583960e-02 -9.062027e-02 -9.498210e-02 -9.915857e-02 -1.028945e-01 
-1.183265e-01 -1.217252e-01 -1.247162e-01 -1.271975e-01 -1.291799e-01 -1.306515e-01 -1.315385e-01 -1.319258e-01 -1.316519e-01 -1.309035e-01 -1.294299e-01 -1.275236e-01 -1.248450e-01 -1.217935e-01 -1.179434e-01 -1.137992e-01 -1.088540e-01 -1.037123e-01 -9.779246e-02 -9.179079e-02 -8.505844e-02 -7.837224e-02 -7.102501e-02 -6.385990e-02 -5.612056e-02 -4.870092e-02 -4.080446e-02 -3.335995e-02 -2.553922e-02 -1.829067e-02 -1.076233e-02 -3.908686e-03 3.138954e-03 9.431405e-03 1.584762e-02 2.145277e-02 2.713006e-02 3.196598e-02 3.684210e-02 4.087156e-02 4.492823e-02 4.815619e-02 5.141512e-02 5.388362e-02 5.640047e-02 5.818183e-02 6.003870e-02 6.122749e-02 6.252489e-02 6.322948e-02 6.407801e-02 6.441228e-02 6.492481e-02 6.500055e-02 6.528514e-02 6.520556e-02 6.535947e-02 6.521412e-02 6.531911e-02 6.518033e-02 6.529933e-02 6.522022e-02 6.539552e-02 6.540945e-02 6.566232e-02 6.578380e-02 6.611554e-02 6.634214e-02 6.673642e-02 6.705156e-02 6.747782e-02 6.785412e-02 6.827162e-02 6.867434e-02 6.903653e-02 6.942677e-02 6.968533e-02 7.002263e-02 7.013080e-02 7.037469e-02 7.028927e-02 7.039981e-02 7.008180e-02 7.001898e-02 6.943279e-02 6.915516e-02 6.826681e-02 6.772989e-02 6.650491e-02 6.566007e-02 6.406184e-02 6.285625e-02 6.084560e-02 5.922377e-02 5.676024e-02 5.466740e-02 5.171232e-02 4.909921e-02 4.562024e-02 4.244881e-02 3.842524e-02 3.467436e-02 3.010221e-02 2.577246e-02 2.066855e-02 1.578529e-02 1.018961e-02 4.803902e-03 -1.220146e-03 -7.032872e-03 -1.340018e-02 -1.954330e-02 -2.615035e-02 -3.251048e-02 -3.923954e-02 -4.569146e-02 -5.241501e-02 -5.882636e-02 -6.541121e-02 -7.164657e-02 -7.795728e-02 -8.388128e-02 -8.978282e-02 -9.526253e-02 -1.006223e-01 -1.055290e-01 -1.102187e-01 -1.144291e-01 
-1.309650e-01 -1.347707e-01 -1.381379e-01 -1.409283e-01 -1.431770e-01 -1.448471e-01 -1.458778e-01 -1.463412e-01 -1.460768e-01 -1.452722e-01 -1.436652e-01 -1.415631e-01 -1.386031e-01 -1.352136e-01 -1.309341e-01 -1.263127e-01 -1.207964e-01 -1.150476e-01 -1.084286e-01 -1.017064e-01 -9.416768e-02 -8.667069e-02 -7.843693e-02 -7.039949e-02 -6.172523e-02 -5.340393e-02 -4.455826e-02 -3.621602e-02 -2.746555e-02 -1.935495e-02 -1.094724e-02 -3.295178e-03 4.555554e-03 1.156034e-02 1.868379e-02 2.489934e-02 3.117546e-02 3.651094e-02 4.187196e-02 4.628800e-02 5.071665e-02 5.422213e-02 5.774675e-02 6.039278e-02 6.308015e-02 6.495203e-02 6.689867e-02 6.810660e-02 6.942942e-02 7.009874e-02 7.092558e-02 7.118730e-02 7.164795e-02 7.163009e-02 7.184830e-02 7.166856e-02 7.175527e-02 7.151525e-02 7.156330e-02 7.134459e-02 7.142495e-02 7.128693e-02 7.144673e-02 7.142609e-02 7.168817e-02 7.179999e-02 7.216422e-02 7.240426e-02 7.285026e-02 7.319831e-02 7.368950e-02 7.411325e-02 7.460168e-02 7.506085e-02 7.549240e-02 7.594254e-02 7.626180e-02 7.665731e-02 7.681152e-02 7.710754e-02 7.704898e-02 7.720188e-02 7.688846e-02 7.685499e-02 7.624901e-02 7.598441e-02 7.505015e-02 7.450595e-02 7.320663e-02 7.232899e-02 7.062443e-02 6.935376e-02 6.719952e-02 6.547218e-02 6.282095e-02 6.057310e-02 5.737831e-02 5.455163e-02 5.077305e-02 4.732164e-02 4.293191e-02 3.882914e-02 3.382013e-02 2.906441e-02 2.345226e-02 1.807072e-02 1.189869e-02 5.948182e-03 -7.130964e-04 -7.147674e-03 -1.420241e-02 -2.101208e-02 -2.834344e-02 -3.540052e-02 -4.287581e-02 -5.003975e-02 -5.751571e-02 -6.463863e-02 -7.196628e-02 -7.889753e-02 -8.592598e-02 -9.251556e-02 -9.909485e-02 -1.051957e-01 -1.111789e-01 -1.166486e-01 -1.218932e-01 -1.265953e-01 
-1.438156e-01 -1.480697e-01 -1.518324e-01 -1.549689e-01 -1.575006e-01 -1.594003e-01 -1.605872e-01 -1.611506e-01 -1.609024e-01 -1.600564e-01 -1.583149e-01 -1.560217e-01 -1.527696e-01 -1.490352e-01 -1.443051e-01 -1.391871e-01 -1.330680e-01 -1.266811e-01 -1.193214e-01 -1.118375e-01 -1.034432e-01 -9.508716e-02 -8.591343e-02 -7.695222e-02 -6.728955e-02 -5.801663e-02 -4.817273e-02 -3.888899e-02 -2.916846e-02 -2.016244e-02 -1.084719e-02 -2.376942e-03 6.290598e-03 1.401205e-02 2.184104e-02 2.865546e-02 3.551369e-02 4.132235e-02 4.713806e-02 5.190165e-02 5.666106e-02 6.039555e-02 6.413672e-02 6.690606e-02 6.971035e-02 7.161689e-02 7.359871e-02 7.477230e-02 7.606824e-02 7.665489e-02 7.741289e-02 7.756379e-02 7.793291e-02 7.779457e-02 7.791595e-02 7.762188e-02 7.762115e-02 7.728545e-02 7.726686e-02 7.697990e-02 7.702223e-02 7.684842e-02 7.700279e-02 7.698027e-02 7.726985e-02 7.741198e-02 7.783359e-02 7.813184e-02 7.865919e-02 7.908718e-02 7.967571e-02 8.019392e-02 8.078651e-02 8.134723e-02 8.188042e-02 8.243229e-02 8.284214e-02 8.333375e-02 8.356050e-02 8.394265e-02 8.393358e-02 8.415965e-02 8.386958e-02 8.389426e-02 8.328390e-02 8.306053e-02 8.209307e-02 8.157048e-02 8.020758e-02 7.932748e-02 7.752596e-02 7.622204e-02 7.393250e-02 7.213203e-02 6.930015e-02 6.692844e-02 6.349936e-02 6.048664e-02 5.641160e-02 5.270147e-02 4.794579e-02 4.350369e-02 3.805455e-02 3.287496e-02 2.674753e-02 2.085849e-02 1.409936e-02 7.563685e-03 2.510827e-04 -6.835814e-03 -1.459482e-02 -2.210986e-02 -3.018445e-02 -3.798354e-02 -4.622536e-02 -5.415053e-02 -6.240008e-02 -7.028600e-02 -7.837810e-02 -8.605731e-02 -9.382542e-02 -1.011321e-01 -1.084112e-01 -1.151832e-01 -1.218118e-01 -1.278925e-01 -1.337137e-01 -1.389525e-01 
-1.574726e-01 -1.621954e-01 -1.663965e-01 -1.698970e-01 -1.727488e-01 -1.748927e-01 -1.762653e-01 -1.769376e-01 -1.767257e-01 -1.758395e-01 -1.739718e-01 -1.714783e-01 -1.679285e-01 -1.638275e-01 -1.586252e-01 -1.529751e-01 -1.462146e-01 -1.391391e-01 -1.309834e-01 -1.226733e-01 -1.133529e-01 -1.040610e-01 -9.386443e-02 -8.389348e-02 -7.315134e-02 -6.283555e-02 -5.189876e-02 -4.158117e-02 -3.079704e-02 -2.080617e-02 -1.049514e-02 -1.123628e-03 8.440238e-03 1.695234e-02 2.555525e-02 3.303153e-02 4.052759e-02 4.686018e-02 5.317304e-02 5.832206e-02 6.344144e-02 6.742987e-02 7.140418e-02 7.430909e-02 7.723527e-02 7.917673e-02 8.118845e-02 8.231688e-02 8.357207e-02 8.405534e-02 8.472379e-02 8.473470e-02 8.498665e-02 8.469177e-02 8.468765e-02 8.423802e-02 8.412004e-02 8.364400e-02 8.352955e-02 8.312805e-02 8.310516e-02 8.284932e-02 8.297427e-02 8.290519e-02 8.320219e-02 8.333277e-02 8.379578e-02 8.411413e-02 8.471077e-02 8.518491e-02 8.586201e-02 8.644546e-02 8.713591e-02 8.777345e-02 8.840359e-02 8.903670e-02 8.953338e-02 9.010452e-02 9.040075e-02 9.085601e-02 9.089427e-02 9.118376e-02 9.091655e-02 9.099266e-02 9.038010e-02 9.019397e-02 8.919922e-02 8.869655e-02 8.728039e-02 8.639780e-02 8.451400e-02 8.317753e-02 8.077067e-02 7.889733e-02 7.590414e-02 7.340710e-02 6.976161e-02 6.655847e-02 6.220023e-02 5.822309e-02 5.310713e-02 4.831297e-02 4.241940e-02 3.679869e-02 3.014035e-02 2.372247e-02 1.634913e-02 9.203692e-03 1.202092e-03 -6.563861e-03 -1.507359e-02 -2.332175e-02 -3.219251e-02 -4.076141e-02 -4.982687e-02 -5.854038e-02 -6.762262e-02 -7.629757e-02 -8.521351e-02 -9.366558e-02 -1.022317e-01 -1.102793e-01 -1.183147e-01 -1.257810e-01 -1.331090e-01 -1.398230e-01 -1.462717e-01 -1.520688e-01 
-1.713914e-01 -1.766336e-01 -1.812985e-01 -1.852091e-01 -1.884038e-01 -1.908313e-01 -1.924081e-01 -1.932206e-01 -1.930564e-01 -1.921507e-01 -1.901584e-01 -1.874722e-01 -1.836142e-01 -1.791390e-01 -1.734400e-01 -1.672336e-01 -1.597922e-01 -1.519877e-01 -1.429825e-01 -1.337914e-01 -1.234800e-01 -1.131871e-01 -1.018963e-01 -9.084548e-02 -7.895174e-02 -6.752457e-02 -5.542853e-02 -4.401694e-02 -3.211462e-02 -2.109299e-02 -9.748220e-03 5.517668e-04 1.103021e-02 2.033903e-02 2.971326e-02 3.783588e-02 4.594705e-02 5.276800e-02 5.953743e-02 6.501944e-02 7.044388e-02 7.462126e-02 7.876372e-02 8.173188e-02 8.470955e-02 8.661172e-02 8.858216e-02 8.959476e-02 9.074150e-02 9.105910e-02 9.157756e-02 9.139856e-02 9.148305e-02 9.099701e-02 9.082935e-02 9.020647e-02 8.994662e-02 8.932992e-02 8.910872e-02 8.860891e-02 8.852322e-02 8.821632e-02 8.832640e-02 8.825390e-02 8.858327e-02 8.875445e-02 8.929210e-02 8.968832e-02 9.039327e-02 9.097357e-02 9.178143e-02 9.248924e-02 9.332030e-02 9.409034e-02 9.485838e-02 9.562316e-02 9.624390e-02 9.693891e-02 9.733678e-02 9.790360e-02 9.801579e-02 9.840245e-02 9.817934e-02 9.833790e-02 9.773987e-02 9.762163e-02 9.661306e-02 9.616276e-02 9.470482e-02 9.385546e-02 9.189982e-02 9.057003e-02 8.805569e-02 8.615106e-02 8.300560e-02 8.042462e-02 7.657022e-02 7.321421e-02 6.857773e-02 6.436336e-02 5.888836e-02 5.376050e-02 4.741917e-02 4.136163e-02 3.416404e-02 2.720632e-02 1.920546e-02 1.142433e-02 2.716074e-03 -5.768087e-03 -1.504963e-02 -2.408064e-02 -3.377107e-02 -4.316700e-02 -5.308104e-02 -6.264466e-02 -7.258525e-02 -8.211301e-02 -9.187878e-02 -1.011675e-01 -1.105579e-01 -1.194090e-01 -1.282271e-01 -1.364481e-01 -1.445021e-01 -1.519072e-01 -1.590104e-01 -1.654203e-01 
-1.862591e-01 -1.920467e-01 -1.972281e-01 -2.015731e-01 -2.051577e-01 -2.078901e-01 -2.097100e-01 -2.106780e-01 -2.105898e-01 -2.096710e-01 -2.075686e-01 -2.046838e-01 -2.005146e-01 -1.956436e-01 -1.894245e-01 -1.826219e-01 -1.744540e-01 -1.658609e-01 -1.559382e-01 -1.457872e-01 -1.343966e-01 -1.230069e-01 -1.105170e-01 -9.827831e-02 -8.511729e-02 -7.246385e-02 -5.908855e-02 -4.646701e-02 -3.332866e-02 -2.116472e-02 -8.676133e-03 2.655008e-03 1.414602e-02 2.434205e-02 3.457057e-02 4.341566e-02 5.220834e-02 5.957817e-02 6.685352e-02 7.271288e-02 7.847502e-02 8.286966e-02 8.719715e-02 9.024128e-02 9.327302e-02 9.513395e-02 9.705319e-02 9.793453e-02 9.895248e-02 9.907702e-02 9.941695e-02 9.901045e-02 9.889316e-02 9.817010e-02 9.780123e-02 9.695312e-02 9.651277e-02 9.569949e-02 9.533420e-02 9.467849e-02 9.449583e-02 9.408078e-02 9.414648e-02 9.401587e-02 9.435365e-02 9.451475e-02 9.510886e-02 9.553737e-02 9.633778e-02 9.698444e-02 9.791449e-02 9.871279e-02 9.967881e-02 1.005532e-01 1.014549e-01 1.023284e-01 1.030693e-01 1.038698e-01 1.043653e-01 1.050294e-01 1.052117e-01 1.056851e-01 1.055037e-01 1.057379e-01 1.051552e-01 1.051015e-01 1.040851e-01 1.036870e-01 1.021998e-01 1.013859e-01 9.937801e-02 9.805841e-02 9.546197e-02 9.352922e-02 9.025991e-02 8.759597e-02 8.356013e-02 8.004829e-02 7.515536e-02 7.069543e-02 6.487307e-02 5.939697e-02 5.260593e-02 4.609074e-02 3.833640e-02 3.081245e-02 2.215095e-02 1.370346e-02 4.241354e-03 -4.994312e-03 -1.510614e-02 -2.495423e-02 -3.553067e-02 -4.578741e-02 -5.662089e-02 -6.706696e-02 -7.793842e-02 -8.834953e-02 -9.903709e-02 -1.091914e-01 -1.194760e-01 -1.291581e-01 -1.388263e-01 -1.478288e-01 -1.566730e-01 -1.647958e-01 -1.726143e-01 -1.796635e-01 