# vtk DataFile Version 2.0
Comment goes here
ASCII

DATASET STRUCTURED_POINTS
FIELD FieldData 1
TIME 1 1 double
0.20000000
DIMENSIONS    128   128   1

ORIGIN    0.000   0.000   0.000
SPACING   0.039062 0.039062   1.000

POINT_DATA   16384
SCALARS uY double
LOOKUP_TABLE default

-2.504849e-14 -2.598478e-14 -2.415625e-14 -2.481723e-14 -2.359079e-14 -2.410900e-14 -2.344858e-14 -2.350572e-14 -2.335969e-14 -2.321933e-14 -2.281659e-14 -2.224500e-14 -2.321008e-14 -2.276634e-14 -2.381101e-14 -2.250859e-14 -2.398498e-14 -2.298496e-14 -2.447083e-14 -2.261424e-14 -2.523670e-14 -2.283764e-14 -2.555767e-14 -2.336688e-14 -2.691331e-14 -2.363798e-14 -2.621333e-14 -2.297520e-14 -2.697334e-14 -2.312853e-14 -2.505940e-14 -2.182248e-14 -2.543835e-14 -2.186612e-14 -2.710434e-14 -2.262793e-14 -2.837734e-14 -2.347080e-14 -2.805718e-14 -2.361616e-14 -2.880072e-14 -2.453251e-14 -2.842895e-14 -2.301379e-14 -2.836447e-14 -2.368681e-14 -2.754837e-14 -2.209708e-14 -2.790793e-14 -2.306610e-14 -2.859995e-14 -2.384856e-14 -2.824020e-14 -2.318844e-14 -2.676121e-14 -2.198624e-14 -2.624524e-14 -2.214593e-14 -2.523159e-14 -2.132654e-14 -2.460481e-14 -2.177546e-14 -2.476854e-14 -2.228070e-14 -2.447080e-14 -2.294802e-14 -2.459395e-14 -2.230964e-14 -2.425103e-14 -2.316587e-14 -2.494316e-14 -2.504906e-14 -2.632517e-14 -2.693839e-14 -2.859539e-14 -2.938466e-14 -2.967919e-14 -3.224487e-14 -3.257030e-14 -3.508381e-14 -3.377334e-14 -3.801627e-14 -3.709397e-14 -4.184612e-14 -3.967109e-14 -4.264998e-14 -4.028136e-14 -4.393007e-14 -4.127351e-14 -4.606573e-14 -4.266308e-14 -4.527524e-14 -4.238865e-14 -4.827352e-14 -4.455248e-14 -4.814416e-14 -4.411622e-14 -4.787270e-14 -4.415256e-14 -4.684109e-14 -4.251615e-14 -4.573429e-14 -4.161362e-14 -4.438781e-14 -4.011180e-14 -4.269648e-14 -3.716420e-14 -3.994408e-14 -3.513107e-14 -3.833080e-14 -3.367277e-14 -3.661406e-14 -3.302539e-14 -3.570794e-14 -3.165544e-14 -3.418558e-14 -3.021558e-14 -3.278074e-14 -2.944846e-14 -3.173052e-14 -2.828562e-14 -3.051465e-14 -2.733839e-14 -2.906184e-14 -2.622175e-14 -2.785351e-14 -2.562900e-14 -2.716750e-14 
-8.445695e-03 -8.952967e-03 -9.340577e-03 -9.781157e-03 -1.008991e-02 -1.045168e-02 -1.067130e-02 -1.094402e-02 -1.106607e-02 -1.124170e-02 -1.126002e-02 -1.133311e-02 -1.124413e-02 -1.121210e-02 -1.101523e-02 -1.087865e-02 -1.057647e-02 -1.033918e-02 -9.937585e-03 -9.606638e-03 -9.114748e-03 -8.700278e-03 -8.130181e-03 -7.644985e-03 -7.011300e-03 -6.470290e-03 -5.789558e-03 -5.209076e-03 -4.499035e-03 -3.896079e-03 -3.174873e-03 -2.566312e-03 -1.851708e-03 -1.253531e-03 -5.621876e-04 1.114444e-05 6.643023e-04 1.200370e-03 1.802639e-03 2.291419e-03 2.832652e-03 3.266708e-03 3.739493e-03 4.114003e-03 4.513694e-03 4.826341e-03 5.150955e-03 5.401705e-03 5.651718e-03 5.842517e-03 6.020576e-03 6.154998e-03 6.265584e-03 6.348474e-03 6.397537e-03 6.434657e-03 6.429255e-03 6.426980e-03 6.374929e-03 6.339991e-03 6.249550e-03 6.188846e-03 6.068439e-03 5.988892e-03 5.846869e-03 5.755347e-03 5.599780e-03 5.503034e-03 5.341541e-03 5.246153e-03 5.085736e-03 4.998042e-03 4.844927e-03 4.770892e-03 4.630357e-03 4.575376e-03 4.451570e-03 4.420193e-03 4.315927e-03 4.311508e-03 4.228053e-03 4.252355e-03 4.189243e-03 4.242035e-03 4.196925e-03 4.275636e-03 4.244243e-03 4.343745e-03 4.319904e-03 4.432475e-03 4.408340e-03 4.523864e-03 4.490272e-03 4.596689e-03 4.543664e-03 4.627658e-03 4.545040e-03 4.592909e-03 4.471042e-03 4.469674e-03 4.300108e-03 4.237949e-03 4.014072e-03 3.882007e-03 3.599558e-03 3.391589e-03 3.049010e-03 2.762694e-03 2.361287e-03 1.997890e-03 1.541790e-03 1.106185e-03 6.021634e-04 1.024982e-04 -4.403608e-04 -9.931569e-04 -1.563862e-03 -2.156663e-03 -2.742763e-03 -3.360864e-03 -3.948889e-03 -4.576600e-03 -5.152487e-03 -5.773679e-03 -6.323153e-03 -6.921732e-03 -7.430658e-03 -7.990988e-03 
-1.692420e-02 -1.794449e-02 -1.872215e-02 -1.960849e-02 -2.022798e-02 -2.095600e-02 -2.139668e-02 -2.194575e-02 -2.219070e-02 -2.254466e-02 -2.258146e-02 -2.272929e-02 -2.255076e-02 -2.248727e-02 -2.209217e-02 -2.181843e-02 -2.121194e-02 -2.073564e-02 -1.992957e-02 -1.926491e-02 -1.827757e-02 -1.744492e-02 -1.630061e-02 -1.532573e-02 -1.405385e-02 -1.296678e-02 -1.160059e-02 -1.043425e-02 -9.009416e-03 -7.798059e-03 -6.351052e-03 -5.128663e-03 -3.695182e-03 -2.493969e-03 -1.107463e-03 4.344990e-05 1.353035e-03 2.428651e-03 3.635854e-03 4.616014e-03 5.700529e-03 6.570290e-03 7.517317e-03 8.267013e-03 9.067313e-03 9.692328e-03 1.034201e-02 1.084233e-02 1.134245e-02 1.172203e-02 1.207798e-02 1.234408e-02 1.256492e-02 1.272733e-02 1.282506e-02 1.289541e-02 1.288422e-02 1.287537e-02 1.277096e-02 1.269648e-02 1.251541e-02 1.238920e-02 1.214833e-02 1.198433e-02 1.170035e-02 1.151241e-02 1.120144e-02 1.100317e-02 1.068040e-02 1.048510e-02 1.016446e-02 9.984948e-03 9.678855e-03 9.527225e-03 9.246188e-03 9.133422e-03 8.885708e-03 8.821103e-03 8.612338e-03 8.602798e-03 8.435543e-03 8.484767e-03 8.358139e-03 8.465792e-03 8.375161e-03 8.536163e-03 8.473021e-03 8.677083e-03 8.629140e-03 8.860684e-03 8.812264e-03 9.050812e-03 8.983565e-03 9.204653e-03 9.098569e-03 9.275141e-03 9.109805e-03 9.213992e-03 8.969981e-03 8.975083e-03 8.635378e-03 8.517860e-03 8.069130e-03 7.810405e-03 7.244056e-03 6.831878e-03 6.144759e-03 5.574111e-03 4.768832e-03 4.042242e-03 3.127120e-03 2.254432e-03 1.243090e-03 2.407860e-04 -8.485056e-04 -1.958322e-03 -3.103472e-03 -4.294272e-03 -5.470268e-03 -6.712359e-03 -7.892166e-03 -9.153895e-03 -1.030930e-02 -1.155816e-02 -1.266053e-02 -1.386411e-02 -1.488512e-02 -1.601195e-02 
-2.545729e-02 -2.699273e-02 -2.816731e-02 -2.950116e-02 -3.043770e-02 -3.153327e-02 -3.220054e-02 -3.302671e-02 -3.339906e-02 -3.393141e-02 -3.398990e-02 -3.421174e-02 -3.394540e-02 -3.384877e-02 -3.325555e-02 -3.284200e-02 -3.192958e-02 -3.121061e-02 -2.999672e-02 -2.899375e-02 -2.750600e-02 -2.624979e-02 -2.452488e-02 -2.305438e-02 -2.113678e-02 -1.949741e-02 -1.743748e-02 -1.567903e-02 -1.353076e-02 -1.170502e-02 -9.523629e-03 -7.681947e-03 -5.521470e-03 -3.712465e-03 -1.623499e-03 1.089302e-04 2.081122e-03 3.699362e-03 5.516334e-03 6.990128e-03 8.621259e-03 9.928265e-03 1.135129e-02 1.247715e-02 1.367822e-02 1.461621e-02 1.558959e-02 1.633989e-02 1.708729e-02 1.765611e-02 1.818581e-02 1.858423e-02 1.891003e-02 1.915292e-02 1.929304e-02 1.939801e-02 1.937397e-02 1.936039e-02 1.919597e-02 1.908424e-02 1.880448e-02 1.861542e-02 1.824584e-02 1.800033e-02 1.756618e-02 1.728486e-02 1.681053e-02 1.651371e-02 1.602223e-02 1.572974e-02 1.524226e-02 1.497322e-02 1.450860e-02 1.428111e-02 1.385536e-02 1.368587e-02 1.331164e-02 1.321415e-02 1.290008e-02 1.288506e-02 1.263515e-02 1.270828e-02 1.252128e-02 1.268221e-02 1.255115e-02 1.279240e-02 1.270437e-02 1.301058e-02 1.294689e-02 1.329470e-02 1.323145e-02 1.359006e-02 1.349925e-02 1.383180e-02 1.368288e-02 1.394855e-02 1.371034e-02 1.386706e-02 1.350990e-02 1.351735e-02 1.301526e-02 1.283790e-02 1.217052e-02 1.178033e-02 1.093454e-02 1.031308e-02 9.284040e-03 8.423827e-03 7.215474e-03 6.120415e-03 4.745347e-03 3.430389e-03 1.909245e-03 3.993228e-04 -1.240238e-03 -2.911749e-03 -4.636308e-03 -6.429414e-03 -8.201171e-03 -1.007116e-02 -1.184929e-02 -1.374855e-02 -1.549048e-02 -1.737014e-02 -1.903269e-02 -2.084406e-02 -2.238450e-02 -2.408029e-02 
-3.408961e-02 -3.615761e-02 -3.773650e-02 -3.953354e-02 -4.079314e-02 -4.226980e-02 -4.316808e-02 -4.428239e-02 -4.478472e-02 -4.550364e-02 -4.558440e-02 -4.588528e-02 -4.552945e-02 -4.540137e-02 -4.460599e-02 -4.405086e-02 -4.282607e-02 -4.185925e-02 -4.022880e-02 -3.887911e-02 -3.688013e-02 -3.518907e-02 -3.287106e-02 -3.089127e-02 -2.831425e-02 -2.610718e-02 -2.333914e-02 -2.097220e-02 -1.808605e-02 -1.562934e-02 -1.269962e-02 -1.022261e-02 -7.322186e-03 -4.890616e-03 -2.087638e-03 2.392139e-04 2.883874e-03 5.055296e-03 7.490046e-03 9.465339e-03 1.164921e-02 1.339843e-02 1.530177e-02 1.680580e-02 1.841032e-02 1.966039e-02 2.095874e-02 2.195542e-02 2.295027e-02 2.370219e-02 2.440502e-02 2.492742e-02 2.535709e-02 2.567024e-02 2.585148e-02 2.597928e-02 2.594118e-02 2.590988e-02 2.568447e-02 2.552158e-02 2.514255e-02 2.487614e-02 2.437769e-02 2.403584e-02 2.345175e-02 2.306225e-02 2.242511e-02 2.201528e-02 2.135578e-02 2.095236e-02 2.029870e-02 1.992759e-02 1.930489e-02 1.899067e-02 1.842033e-02 1.818550e-02 1.768446e-02 1.754834e-02 1.712824e-02 1.710546e-02 1.677182e-02 1.687058e-02 1.662194e-02 1.684230e-02 1.666952e-02 1.700178e-02 1.688775e-02 1.731142e-02 1.723118e-02 1.771471e-02 1.763619e-02 1.813772e-02 1.802321e-02 1.849241e-02 1.830063e-02 1.868163e-02 1.837036e-02 1.860543e-02 1.813441e-02 1.816815e-02 1.750205e-02 1.728561e-02 1.639674e-02 1.589154e-02 1.476199e-02 1.394266e-02 1.256581e-02 1.142200e-02 9.803128e-03 8.340111e-03 6.496251e-03 4.734402e-03 2.693459e-03 6.667529e-04 -1.533908e-03 -3.780061e-03 -6.095358e-03 -8.506646e-03 -1.088566e-02 -1.340148e-02 -1.578929e-02 -1.834525e-02 -2.068466e-02 -2.321477e-02 -2.544785e-02 -2.788646e-02 -2.995587e-02 -3.223931e-02 
-4.283179e-02 -4.543663e-02 -4.743380e-02 -4.969760e-02 -5.129314e-02 -5.315358e-02 -5.429417e-02 -5.569823e-02 -5.633977e-02 -5.724552e-02 -5.735519e-02 -5.773373e-02 -5.729207e-02 -5.712927e-02 -5.613204e-02 -5.543002e-02 -5.388963e-02 -5.266758e-02 -5.061378e-02 -4.890804e-02 -4.638770e-02 -4.425082e-02 -4.132663e-02 -3.882540e-02 -3.557354e-02 -3.278601e-02 -2.929288e-02 -2.630466e-02 -2.266293e-02 -1.956304e-02 -1.586743e-02 -1.274398e-02 -9.087008e-03 -6.023244e-03 -2.491357e-03 4.378233e-04 3.767539e-03 6.498256e-03 9.560605e-03 1.204181e-02 1.478516e-02 1.697953e-02 1.936669e-02 2.125067e-02 2.325892e-02 2.482208e-02 2.644255e-02 2.768625e-02 2.892278e-02 2.985853e-02 3.072606e-02 3.137357e-02 3.189634e-02 3.228160e-02 3.249122e-02 3.264460e-02 3.257812e-02 3.253279e-02 3.223088e-02 3.202149e-02 3.152685e-02 3.118854e-02 3.054450e-02 3.011232e-02 2.936163e-02 2.887019e-02 2.805409e-02 2.753738e-02 2.669475e-02 2.618602e-02 2.535265e-02 2.488419e-02 2.409205e-02 2.369465e-02 2.297106e-02 2.267306e-02 2.203977e-02 2.186571e-02 2.133783e-02 2.130650e-02 2.089137e-02 2.101365e-02 2.070970e-02 2.098622e-02 2.078208e-02 2.120117e-02 2.107516e-02 2.161140e-02 2.153169e-02 2.214550e-02 2.207107e-02 2.270960e-02 2.259207e-02 2.319154e-02 2.297785e-02 2.346726e-02 2.310308e-02 2.340895e-02 2.284246e-02 2.289425e-02 2.207997e-02 2.181545e-02 2.071769e-02 2.008781e-02 1.868350e-02 1.765606e-02 1.593663e-02 1.449862e-02 1.247073e-02 1.062907e-02 8.314409e-03 6.095174e-03 3.529262e-03 9.757184e-04 -1.793940e-03 -4.624148e-03 -7.540339e-03 -1.057845e-02 -1.357666e-02 -1.674614e-02 -1.975692e-02 -2.297658e-02 -2.592770e-02 -2.911451e-02 -3.193285e-02 -3.500427e-02 -3.761753e-02 -4.049354e-02 
-5.174208e-02 -5.491328e-02 -5.734125e-02 -6.009841e-02 -6.204013e-02 -6.430737e-02 -6.569788e-02 -6.741045e-02 -6.819578e-02 -6.930231e-02 -6.944203e-02 -6.990686e-02 -6.937671e-02 -6.918213e-02 -6.797634e-02 -6.712445e-02 -6.525763e-02 -6.377148e-02 -6.127952e-02 -5.920329e-02 -5.614319e-02 -5.354107e-02 -4.998936e-02 -4.694318e-02 -4.299303e-02 -3.959856e-02 -3.535574e-02 -3.171809e-02 -2.729608e-02 -2.352452e-02 -1.903920e-02 -1.524181e-02 -1.080625e-02 -7.084998e-03 -2.804631e-03 7.489260e-04 4.780312e-03 8.088302e-03 1.179164e-02 1.479208e-02 1.810505e-02 2.075291e-02 2.363091e-02 2.589813e-02 2.831429e-02 3.018888e-02 3.213329e-02 3.361770e-02 3.509585e-02 3.620487e-02 3.723573e-02 3.799410e-02 3.860784e-02 3.904779e-02 3.928339e-02 3.944235e-02 3.934525e-02 3.926388e-02 3.888373e-02 3.860430e-02 3.799304e-02 3.755830e-02 3.676844e-02 3.622090e-02 3.530410e-02 3.468567e-02 3.369166e-02 3.304354e-02 3.201911e-02 3.138170e-02 3.036992e-02 2.978263e-02 2.882196e-02 2.832264e-02 2.744608e-02 2.706989e-02 2.630386e-02 2.608160e-02 2.544465e-02 2.540037e-02 2.490180e-02 2.505002e-02 2.468844e-02 2.503115e-02 2.479329e-02 2.531723e-02 2.517723e-02 2.585198e-02 2.577144e-02 2.654875e-02 2.647777e-02 2.729254e-02 2.717198e-02 2.794514e-02 2.770984e-02 2.835296e-02 2.793596e-02 2.835728e-02 2.769455e-02 2.780578e-02 2.684098e-02 2.656420e-02 2.525306e-02 2.452678e-02 2.284065e-02 2.162454e-02 1.955267e-02 1.783043e-02 1.538095e-02 1.316115e-02 1.036066e-02 7.675687e-03 4.567800e-03 1.471295e-03 -1.885790e-03 -5.322579e-03 -8.858911e-03 -1.255127e-02 -1.618817e-02 -2.004211e-02 -2.369509e-02 -2.761123e-02 -3.119257e-02 -3.506956e-02 -3.849063e-02 -4.222793e-02 -4.540115e-02 -4.890144e-02 
-6.081880e-02 -6.456287e-02 -6.744317e-02 -7.069921e-02 -7.300704e-02 -7.568538e-02 -7.734338e-02 -7.936720e-02 -8.031076e-02 -8.161880e-02 -8.179911e-02 -8.234846e-02 -8.173572e-02 -8.150466e-02 -8.009101e-02 -7.908132e-02 -7.688321e-02 -7.512173e-02 -7.218117e-02 -6.972010e-02 -6.610450e-02 -6.302015e-02 -5.882053e-02 -5.521049e-02 -5.053800e-02 -4.651667e-02 -4.149766e-02 -3.719065e-02 -3.196074e-02 -2.749854e-02 -2.219616e-02 -1.770766e-02 -1.246771e-02 -8.074227e-03 -3.022278e-03 1.167603e-03 5.920117e-03 9.814443e-03 1.417388e-02 1.769990e-02 2.159279e-02 2.469814e-02 2.807227e-02 3.072490e-02 3.354929e-02 3.573630e-02 3.800011e-02 3.972572e-02 4.143648e-02 4.271942e-02 4.390055e-02 4.477113e-02 4.545926e-02 4.595641e-02 4.619844e-02 4.636698e-02 4.621729e-02 4.610547e-02 4.562330e-02 4.528099e-02 4.452809e-02 4.400540e-02 4.304408e-02 4.239059e-02 4.128209e-02 4.054651e-02 3.934974e-02 3.857986e-02 3.735030e-02 3.659306e-02 3.538186e-02 3.468322e-02 3.353625e-02 3.294060e-02 3.189742e-02 3.144642e-02 3.053895e-02 3.026950e-02 2.952047e-02 2.946193e-02 2.888311e-02 2.905386e-02 2.864429e-02 2.904800e-02 2.879239e-02 2.941465e-02 2.928241e-02 3.008815e-02 3.003339e-02 3.096594e-02 3.092865e-02 3.191079e-02 3.181951e-02 3.275686e-02 3.253266e-02 3.331923e-02 3.288085e-02 3.340640e-02 3.267603e-02 3.283438e-02 3.174355e-02 3.144096e-02 2.993586e-02 2.909848e-02 2.714425e-02 2.572384e-02 2.330733e-02 2.128464e-02 1.841554e-02 1.580123e-02 1.251147e-02 9.344700e-03 5.686547e-03 2.031752e-03 -1.925183e-03 -5.982830e-03 -1.015512e-02 -1.451475e-02 -1.880883e-02 -2.335894e-02 -2.767457e-02 -3.229764e-02 -3.653102e-02 -4.110748e-02 -4.515387e-02 -4.956533e-02 -5.332133e-02 -5.745328e-02 
-7.013666e-02 -7.449596e-02 -7.784658e-02 -8.163969e-02 -8.432848e-02 -8.745101e-02 -8.938771e-02 -9.174987e-02 -9.285862e-02 -9.438839e-02 -9.461136e-02 -9.525785e-02 -9.455912e-02 -9.429595e-02 -9.266515e-02 -9.149344e-02 -8.894868e-02 -8.689903e-02 -8.348858e-02 -8.062161e-02 -7.642387e-02 -7.282888e-02 -6.795030e-02 -6.374194e-02 -5.831290e-02 -5.362589e-02 -4.779483e-02 -4.277718e-02 -3.670341e-02 -3.150885e-02 -2.535486e-02 -2.013507e-02 -1.405889e-02 -8.956323e-03 -3.104711e-03 1.753505e-03 7.250778e-03 1.175742e-02 1.679178e-02 2.086250e-02 2.534930e-02 2.892396e-02 3.280361e-02 3.584610e-02 3.908397e-02 4.158069e-02 4.416574e-02 4.612313e-02 4.806565e-02 4.950705e-02 5.083577e-02 5.179783e-02 5.255663e-02 5.308584e-02 5.333031e-02 5.347966e-02 5.327379e-02 5.309996e-02 5.251304e-02 5.207422e-02 5.117813e-02 5.053247e-02 4.939944e-02 4.860424e-02 4.730498e-02 4.641640e-02 4.501871e-02 4.409187e-02 4.265947e-02 4.174867e-02 4.034029e-02 3.949902e-02 3.816741e-02 3.744783e-02 3.623865e-02 3.569033e-02 3.464074e-02 3.430828e-02 3.344515e-02 3.336484e-02 3.270267e-02 3.289830e-02 3.243698e-02 3.291520e-02 3.263804e-02 3.338398e-02 3.325631e-02 3.423030e-02 3.419923e-02 3.533530e-02 3.533093e-02 3.653792e-02 3.647636e-02 3.764183e-02 3.742988e-02 3.842684e-02 3.796809e-02 3.866392e-02 3.786575e-02 3.813243e-02 3.691312e-02 3.663750e-02 3.493274e-02 3.402572e-02 3.179375e-02 3.019719e-02 2.742218e-02 2.511297e-02 2.180626e-02 1.879730e-02 1.499661e-02 1.133489e-02 7.101890e-03 2.864355e-03 -1.719058e-03 -6.431178e-03 -1.126717e-02 -1.633456e-02 -2.131380e-02 -2.660520e-02 -3.161099e-02 -3.698866e-02 -4.190051e-02 -4.722486e-02 -5.192145e-02 -5.705472e-02 -6.141643e-02 -6.622561e-02 
-7.967935e-02 -8.466272e-02 -8.851339e-02 -9.285130e-02 -9.594874e-02 -9.952175e-02 -1.017618e-01 -1.044666e-01 -1.057610e-01 -1.075142e-01 -1.077949e-01 -1.085368e-01 -1.077608e-01 -1.074597e-01 -1.056132e-01 -1.042690e-01 -1.013712e-01 -9.901807e-02 -9.512335e-02 -9.183061e-02 -8.702875e-02 -8.289935e-02 -7.731316e-02 -7.247989e-02 -6.626041e-02 -6.087965e-02 -5.419915e-02 -4.844284e-02 -4.148629e-02 -3.553283e-02 -2.848875e-02 -2.251384e-02 -1.556527e-02 -9.733405e-03 -3.049881e-03 2.492754e-03 8.761815e-03 1.389262e-02 1.962277e-02 2.424609e-02 2.934088e-02 3.338938e-02 3.778164e-02 4.121593e-02 4.486741e-02 4.767414e-02 5.057390e-02 5.276274e-02 5.492435e-02 5.652417e-02 5.798230e-02 5.903696e-02 5.984348e-02 6.040764e-02 6.062760e-02 6.076289e-02 6.047065e-02 6.024236e-02 5.951804e-02 5.899258e-02 5.791899e-02 5.716224e-02 5.582231e-02 5.489872e-02 5.337347e-02 5.234591e-02 5.071296e-02 4.964298e-02 4.797534e-02 4.692367e-02 4.528877e-02 4.431555e-02 4.277424e-02 4.193871e-02 4.054404e-02 3.990312e-02 3.869873e-02 3.830453e-02 3.732252e-02 3.721836e-02 3.647677e-02 3.669222e-02 3.619223e-02 3.673746e-02 3.646085e-02 3.732122e-02 3.722854e-02 3.836033e-02 3.839039e-02 3.971876e-02 3.978996e-02 4.120999e-02 4.122377e-02 4.260489e-02 4.245135e-02 4.364527e-02 4.321042e-02 4.406181e-02 4.323597e-02 4.359462e-02 4.228098e-02 4.201419e-02 4.013656e-02 3.913998e-02 3.664892e-02 3.485484e-02 3.173157e-02 2.911356e-02 2.537130e-02 2.194519e-02 1.762809e-02 1.344940e-02 8.629430e-03 3.788228e-03 -1.439358e-03 -6.825287e-03 -1.234718e-02 -1.813981e-02 -2.382991e-02 -2.987814e-02 -3.560235e-02 -4.174837e-02 -4.736867e-02 -5.345311e-02 -5.883091e-02 -6.469688e-02 -6.969562e-02 -7.519186e-02 
-8.954208e-02 -9.520572e-02 -9.958034e-02 -1.045138e-01 -1.080398e-01 -1.121074e-01 -1.146661e-01 -1.177499e-01 -1.192399e-01 -1.212437e-01 -1.215859e-01 -1.224404e-01 -1.215834e-01 -1.212505e-01 -1.191766e-01 -1.176545e-01 -1.143835e-01 -1.117098e-01 -1.073024e-01 -1.035554e-01 -9.811358e-02 -9.341107e-02 -8.707524e-02 -8.156998e-02 -7.451362e-02 -6.838602e-02 -6.080738e-02 -5.425598e-02 -4.636795e-02 -3.959867e-02 -3.161791e-02 -2.483320e-02 -1.696959e-02 -1.035848e-02 -2.805747e-03 3.464466e-03 1.053632e-02 1.632609e-02 2.277631e-02 2.797759e-02 3.369796e-02 3.823571e-02 4.315184e-02 4.698332e-02 5.105411e-02 5.416662e-02 5.738215e-02 5.978926e-02 6.216750e-02 6.390459e-02 6.548732e-02 6.660653e-02 6.745474e-02 6.802010e-02 6.820937e-02 6.829227e-02 6.790821e-02 6.758358e-02 6.671786e-02 6.606132e-02 6.480807e-02 6.389406e-02 6.234705e-02 6.124793e-02 5.949837e-02 5.828447e-02 5.641933e-02 5.515948e-02 5.326040e-02 5.202274e-02 5.016504e-02 4.901762e-02 4.726943e-02 4.628007e-02 4.470112e-02 4.393606e-02 4.257603e-02 4.209704e-02 4.099320e-02 4.085301e-02 4.002727e-02 4.026356e-02 3.971911e-02 4.034756e-02 4.006565e-02 4.107312e-02 4.101055e-02 4.234956e-02 4.243770e-02 4.402354e-02 4.416953e-02 4.588103e-02 4.597155e-02 4.765623e-02 4.756392e-02 4.904727e-02 4.863929e-02 4.973764e-02 4.888568e-02 4.942094e-02 4.801139e-02 4.782608e-02 4.576938e-02 4.473981e-02 4.197780e-02 4.002392e-02 3.653443e-02 3.362538e-02 2.942371e-02 2.557862e-02 2.071609e-02 1.600074e-02 1.056075e-02 5.080972e-03 -8.265379e-04 -6.933275e-03 -1.317818e-02 -1.975184e-02 -2.619004e-02 -3.305658e-02 -3.953560e-02 -4.651433e-02 -5.287791e-02 -5.978733e-02 -6.587901e-02 -7.254119e-02 -7.820711e-02 -8.445091e-02 
-9.969023e-02 -1.060454e-01 -1.109828e-01 -1.165220e-01 -1.205132e-01 -1.250841e-01 -1.279943e-01 -1.314636e-01 -1.331767e-01 -1.354347e-01 -1.358590e-01 -1.368251e-01 -1.358997e-01 -1.355285e-01 -1.332300e-01 -1.315171e-01 -1.278652e-01 -1.248511e-01 -1.199125e-01 -1.156851e-01 -1.095742e-01 -1.042669e-01 -9.714315e-02 -9.093026e-02 -8.299152e-02 -7.607937e-02 -6.755238e-02 -6.016830e-02 -5.129659e-02 -4.367613e-02 -3.470726e-02 -2.708135e-02 -1.825456e-02 -1.083800e-02 -2.373375e-03 4.644743e-03 1.255495e-02 1.901805e-02 2.621554e-02 3.200367e-02 3.836776e-02 4.339898e-02 4.884782e-02 5.307726e-02 5.756702e-02 6.098393e-02 6.450621e-02 6.712949e-02 6.970738e-02 7.158022e-02 7.326351e-02 7.444749e-02 7.530730e-02 7.587672e-02 7.600013e-02 7.603673e-02 7.552166e-02 7.511027e-02 7.406086e-02 7.328619e-02 7.180885e-02 7.075343e-02 6.895374e-02 6.769710e-02 6.567742e-02 6.429626e-02 6.215409e-02 6.072326e-02 5.855012e-02 5.714388e-02 5.502444e-02 5.371747e-02 5.172878e-02 5.059643e-02 4.880664e-02 4.792371e-02 4.639028e-02 4.582794e-02 4.459488e-02 4.441545e-02 4.350981e-02 4.375967e-02 4.318737e-02 4.388860e-02 4.363032e-02 4.477232e-02 4.478025e-02 4.631270e-02 4.650903e-02 4.833798e-02 4.861606e-02 5.060436e-02 5.083300e-02 5.280604e-02 5.283701e-02 5.459357e-02 5.427180e-02 5.559920e-02 5.477461e-02 5.546630e-02 5.400597e-02 5.387933e-02 5.167854e-02 5.059052e-02 4.758138e-02 4.544009e-02 4.159680e-02 3.836770e-02 3.370813e-02 2.941470e-02 2.399832e-02 1.871764e-02 1.264067e-02 6.495306e-03 -1.161650e-04 -6.968375e-03 -1.396589e-02 -2.134256e-02 -2.856268e-02 -3.626680e-02 -4.353749e-02 -5.136575e-02 -5.851151e-02 -6.626073e-02 -7.310640e-02 -8.057808e-02 -8.695169e-02 -9.395525e-02 
-1.102450e-01 -1.173630e-01 -1.228935e-01 -1.291028e-01 -1.335850e-01 -1.387154e-01 -1.419975e-01 -1.458989e-01 -1.478492e-01 -1.503966e-01 -1.509091e-01 -1.520096e-01 -1.510124e-01 -1.506116e-01 -1.480746e-01 -1.461645e-01 -1.421066e-01 -1.387303e-01 -1.332243e-01 -1.284794e-01 -1.216530e-01 -1.156902e-01 -1.077237e-01 -1.007411e-01 -9.185917e-02 -8.409239e-02 -7.455329e-02 -6.626213e-02 -5.634315e-02 -4.779661e-02 -3.777916e-02 -2.924042e-02 -1.939558e-02 -1.110846e-02 -1.684505e-03 6.137403e-03 1.492479e-02 2.210588e-02 3.008039e-02 3.648750e-02 4.351608e-02 4.905982e-02 5.505381e-02 5.968719e-02 6.460107e-02 6.831590e-02 7.214414e-02 7.496569e-02 7.773801e-02 7.971863e-02 8.149440e-02 8.270665e-02 8.356866e-02 8.409865e-02 8.414693e-02 8.408824e-02 8.343419e-02 8.288293e-02 8.164408e-02 8.069520e-02 7.899084e-02 7.773592e-02 7.568362e-02 7.421017e-02 7.192321e-02 7.031511e-02 6.790088e-02 6.623984e-02 6.379874e-02 6.216618e-02 5.979105e-02 5.826970e-02 5.604519e-02 5.471982e-02 5.272143e-02 5.167785e-02 4.997008e-02 4.929176e-02 4.792523e-02 4.768740e-02 4.669478e-02 4.695591e-02 4.634694e-02 4.713857e-02 4.689495e-02 4.821120e-02 4.828218e-02 5.007069e-02 5.037073e-02 5.252726e-02 5.293675e-02 5.530507e-02 5.567488e-02 5.805310e-02 5.821312e-02 6.036646e-02 6.013747e-02 6.181639e-02 6.102412e-02 6.198550e-02 6.047516e-02 6.050391e-02 5.815336e-02 5.708132e-02 5.381139e-02 5.153112e-02 4.731179e-02 4.378380e-02 3.863585e-02 3.388888e-02 2.788113e-02 2.200629e-02 1.524946e-02 8.389997e-03 1.028342e-03 -6.633010e-03 -1.443081e-02 -2.268474e-02 -3.073426e-02 -3.935658e-02 -4.746497e-02 -5.622618e-02 -6.419784e-02 -7.287017e-02 -8.051072e-02 -8.887285e-02 -9.599186e-02 -1.038320e-01 
-1.211480e-01 -1.290426e-01 -1.352153e-01 -1.421079e-01 -1.471275e-01 -1.528295e-01 -1.565261e-01 -1.608694e-01 -1.630931e-01 -1.659363e-01 -1.665650e-01 -1.678007e-01 -1.667492e-01 -1.663126e-01 -1.635422e-01 -1.614200e-01 -1.569473e-01 -1.531846e-01 -1.470876e-01 -1.417921e-01 -1.342127e-01 -1.275533e-01 -1.186940e-01 -1.108950e-01 -1.010104e-01 -9.233944e-02 -8.172243e-02 -7.247498e-02 -6.144051e-02 -5.192198e-02 -4.078902e-02 -3.129722e-02 -2.037205e-02 -1.118154e-02 -7.434109e-04 7.906935e-03 1.761677e-02 2.553232e-02 3.431810e-02 4.135319e-02 4.906871e-02 5.512776e-02 6.167732e-02 6.671290e-02 7.204963e-02 7.605797e-02 8.017990e-02 8.319455e-02 8.613911e-02 8.822336e-02 9.006073e-02 9.129967e-02 9.212563e-02 9.261840e-02 9.254720e-02 9.240004e-02 9.155782e-02 9.087840e-02 8.939724e-02 8.829062e-02 8.630375e-02 8.486997e-02 8.250800e-02 8.084146e-02 7.822976e-02 7.642009e-02 7.367715e-02 7.181121e-02 6.904786e-02 6.721236e-02 6.453138e-02 6.281531e-02 6.031107e-02 5.880710e-02 5.656472e-02 5.536860e-02 5.346203e-02 5.266917e-02 5.115793e-02 5.085674e-02 4.978100e-02 5.004299e-02 4.941752e-02 5.028515e-02 5.009282e-02 5.156651e-02 5.175265e-02 5.377946e-02 5.424850e-02 5.671491e-02 5.733086e-02 6.006184e-02 6.065338e-02 6.341939e-02 6.378980e-02 6.632158e-02 6.626284e-02 6.827277e-02 6.758223e-02 6.878961e-02 6.728719e-02 6.744381e-02 6.498765e-02 6.390016e-02 6.039863e-02 5.794469e-02 5.336346e-02 4.949982e-02 4.386342e-02 3.862562e-02 3.201380e-02 2.550859e-02 1.804856e-02 1.044123e-02 2.297527e-03 -6.203309e-03 -1.483977e-02 -2.399742e-02 -3.291946e-02 -4.248269e-02 -5.147522e-02 -6.118883e-02 -7.003504e-02 -7.964744e-02 -8.813284e-02 -9.740071e-02 -1.053156e-01 -1.140067e-01 
-1.325537e-01 -1.413124e-01 -1.481647e-01 -1.558200e-01 -1.614097e-01 -1.677530e-01 -1.718906e-01 -1.767344e-01 -1.792507e-01 -1.824348e-01 -1.831895e-01 -1.845900e-01 -1.834826e-01 -1.830222e-01 -1.800033e-01 -1.776618e-01 -1.727444e-01 -1.685680e-01 -1.618354e-01 -1.559420e-01 -1.475509e-01 -1.401297e-01 -1.303075e-01 -1.216120e-01 -1.106464e-01 -1.009805e-01 -8.920362e-02 -7.890360e-02 -6.667223e-02 -5.608515e-02 -4.375986e-02 -3.322312e-02 -2.114865e-02 -1.097179e-02 5.392430e-04 1.008864e-02 2.076807e-02 2.947389e-02 3.910603e-02 4.680860e-02 5.523440e-02 6.183137e-02 6.894909e-02 7.439281e-02 8.015568e-02 8.444778e-02 8.885926e-02 9.204302e-02 9.515026e-02 9.730185e-02 9.918792e-02 1.004070e-01 1.011827e-01 1.015836e-01 1.013793e-01 1.010827e-01 1.000409e-01 9.916776e-02 9.743626e-02 9.610317e-02 9.382994e-02 9.214642e-02 8.947535e-02 8.754352e-02 8.461172e-02 8.252762e-02 7.946382e-02 7.732017e-02 7.424420e-02 7.213400e-02 6.915678e-02 6.717673e-02 6.440042e-02 6.265324e-02 6.017086e-02 5.876521e-02 5.665901e-02 5.570607e-02 5.404406e-02 5.364997e-02 5.248054e-02 5.273474e-02 5.207937e-02 5.303982e-02 5.288501e-02 5.456207e-02 5.485191e-02 5.719382e-02 5.782515e-02 6.070828e-02 6.153018e-02 6.475695e-02 6.557597e-02 6.888233e-02 6.947371e-02 7.254652e-02 7.267063e-02 7.517320e-02 7.459530e-02 7.619793e-02 7.470880e-02 7.511987e-02 7.255451e-02 7.154751e-02 6.779955e-02 6.523242e-02 6.026241e-02 5.608678e-02 4.992366e-02 4.418372e-02 3.692003e-02 2.974251e-02 2.152464e-02 1.310277e-02 4.118416e-03 -5.306823e-03 -1.484181e-02 -2.500010e-02 -3.485362e-02 -4.546112e-02 -5.539432e-02 -6.616570e-02 -7.593964e-02 -8.659608e-02 -9.597578e-02 -1.062495e-01 -1.150060e-01 -1.246425e-01 
-1.443723e-01 -1.540115e-01 -1.616038e-01 -1.700385e-01 -1.762565e-01 -1.832575e-01 -1.878901e-01 -1.932490e-01 -1.961052e-01 -1.996411e-01 -2.005594e-01 -2.021292e-01 -2.009905e-01 -2.005016e-01 -1.972429e-01 -1.946661e-01 -1.892945e-01 -1.846756e-01 -1.772784e-01 -1.707457e-01 -1.614952e-01 -1.532596e-01 -1.424102e-01 -1.327575e-01 -1.206338e-01 -1.099086e-01 -9.688665e-02 -8.547025e-02 -7.195402e-02 -6.023946e-02 -4.663606e-02 -3.500366e-02 -2.170071e-02 -1.049719e-02 2.155861e-03 1.263328e-02 2.433875e-02 3.385267e-02 4.437328e-02 5.275118e-02 6.191422e-02 6.904882e-02 7.674642e-02 8.259218e-02 8.877824e-02 9.334472e-02 9.802923e-02 1.013721e-01 1.046134e-01 1.068240e-01 1.087197e-01 1.099144e-01 1.105921e-01 1.109018e-01 1.105097e-01 1.100708e-01 1.087691e-01 1.077163e-01 1.056699e-01 1.041310e-01 1.015038e-01 9.959699e-02 9.654720e-02 9.438098e-02 9.105863e-02 8.873349e-02 8.527890e-02 8.289109e-02 7.943475e-02 7.708098e-02 7.374407e-02 7.152622e-02 6.842129e-02 6.644994e-02 6.368092e-02 6.207613e-02 5.973683e-02 5.862492e-02 5.679516e-02 5.630048e-02 5.503967e-02 5.527111e-02 5.460937e-02 5.564264e-02 5.557071e-02 5.742864e-02 5.788829e-02 6.052261e-02 6.140013e-02 6.467862e-02 6.580356e-02 6.950646e-02 7.065741e-02 7.448544e-02 7.540313e-02 7.899763e-02 7.940441e-02 8.237760e-02 8.200099e-02 8.397235e-02 8.256954e-02 8.320284e-02 8.058278e-02 7.961822e-02 7.565847e-02 7.293518e-02 6.759135e-02 6.305765e-02 5.636462e-02 5.007570e-02 4.214120e-02 3.424617e-02 2.523866e-02 1.596076e-02 6.094068e-03 -4.292016e-03 -1.477441e-02 -2.596421e-02 -3.680305e-02 -4.848044e-02 -5.941145e-02 -7.126188e-02 -8.202284e-02 -9.374157e-02 -1.040762e-01 -1.153724e-01 -1.250317e-01 -1.356297e-01 
-1.568009e-01 -1.674257e-01 -1.758033e-01 -1.851130e-01 -1.919997e-01 -1.997433e-01 -2.049055e-01 -2.108517e-01 -2.140742e-01 -2.180188e-01 -2.191164e-01 -2.208943e-01 -2.197260e-01 -2.192259e-01 -2.157123e-01 -2.128931e-01 -2.070330e-01 -2.019385e-01 -1.938224e-01 -1.865913e-01 -1.764082e-01 -1.672751e-01 -1.553096e-01 -1.445969e-01 -1.312154e-01 -1.193143e-01 -1.049428e-01 -9.228664e-02 -7.738228e-02 -6.441709e-02 -4.943911e-02 -3.659463e-02 -2.197779e-02 -9.643389e-03 4.223102e-03 1.571636e-02 2.850378e-02 3.889429e-02 5.034346e-02 5.944415e-02 6.936937e-02 7.706755e-02 8.535626e-02 9.160905e-02 9.821792e-02 1.030442e-01 1.079922e-01 1.114623e-01 1.148216e-01 1.170445e-01 1.189302e-01 1.200418e-01 1.206007e-01 1.207514e-01 1.201519e-01 1.194961e-01 1.179184e-01 1.166066e-01 1.142342e-01 1.124070e-01 1.094207e-01 1.072063e-01 1.037791e-01 1.012927e-01 9.758716e-02 9.493422e-02 9.110098e-02 8.838168e-02 8.455989e-02 8.187532e-02 7.819380e-02 7.565232e-02 7.223114e-02 6.995342e-02 6.690473e-02 6.502575e-02 6.245293e-02 6.111907e-02 5.911302e-02 5.847297e-02 5.710502e-02 5.729405e-02 5.660550e-02 5.772403e-02 5.771363e-02 5.980282e-02 6.041440e-02 6.343288e-02 6.454613e-02 6.835301e-02 6.978051e-02 7.412939e-02 7.562216e-02 8.016956e-02 8.143177e-02 8.576060e-02 8.647238e-02 9.012833e-02 8.997385e-02 9.250948e-02 9.120635e-02 9.222635e-02 8.955235e-02 8.875254e-02 8.456582e-02 8.176024e-02 7.601041e-02 7.114296e-02 6.387204e-02 5.701237e-02 4.834637e-02 3.967291e-02 2.980641e-02 1.958117e-02 8.758441e-03 -2.700935e-03 -1.420499e-02 -2.655137e-02 -3.844750e-02 -5.132537e-02 -6.332209e-02 -7.638228e-02 -8.819331e-02 -1.011014e-01 -1.124491e-01 -1.248889e-01 -1.355045e-01 -1.471777e-01 