# vtk DataFile Version 2.0
Comment goes here
ASCII

DATASET STRUCTURED_POINTS
FIELD FieldData 1
TIME 1 1 double
0.03000000
DIMENSIONS    128   128   1

ORIGIN    0.000   0.000   0.000
SPACING   0.039062 0.039062   1.000

POINT_DATA   16384
SCALARS uY double
LOOKUP_TABLE default

9.398000e-15 8.533994e-15 8.236732e-15 7.602725e-15 9.248797e-15 9.381789e-15 1.208544e-14 1.164569e-14 1.378642e-14 1.234937e-14 1.578344e-14 1.499979e-14 1.939542e-14 1.695919e-14 2.062460e-14 1.882675e-14 2.348390e-14 2.042537e-14 2.528660e-14 2.166219e-14 2.639368e-14 2.242322e-14 2.804625e-14 2.475482e-14 3.103977e-14 2.645672e-14 3.133536e-14 2.614302e-14 3.420923e-14 2.939897e-14 3.744449e-14 3.224151e-14 3.832842e-14 3.427210e-14 4.129933e-14 3.658718e-14 4.394371e-14 3.982063e-14 4.521785e-14 3.999737e-14 4.444224e-14 3.999048e-14 4.551923e-14 4.180733e-14 4.801224e-14 4.415740e-14 4.756367e-14 4.456171e-14 4.807481e-14 4.633753e-14 5.014536e-14 4.778589e-14 5.096552e-14 4.833068e-14 4.981288e-14 4.703042e-14 4.796709e-14 4.713282e-14 4.970015e-14 4.873474e-14 4.815169e-14 4.541081e-14 4.696950e-14 4.434678e-14 4.481605e-14 4.293327e-14 4.287901e-14 3.959702e-14 3.814506e-14 3.296381e-14 3.151882e-14 2.792757e-14 3.050028e-14 2.662179e-14 2.837331e-14 2.281031e-14 2.130335e-14 1.940478e-14 2.035374e-14 1.887128e-14 1.986056e-14 1.794151e-14 1.729909e-14 1.680481e-14 1.539713e-14 1.125878e-14 1.198817e-14 9.925813e-15 1.071612e-14 1.051815e-14 9.785091e-15 1.028628e-14 1.029581e-14 1.151902e-14 9.903890e-15 1.050922e-14 7.730603e-15 9.047116e-15 6.732135e-15 9.872662e-15 7.760526e-15 1.045514e-14 7.386987e-15 9.483001e-15 6.508536e-15 8.213280e-15 5.288626e-15 8.216066e-15 5.639101e-15 9.055555e-15 6.625292e-15 9.257474e-15 6.853433e-15 9.612528e-15 7.943491e-15 1.050654e-14 7.511596e-15 9.188357e-15 7.103248e-15 8.662673e-15 7.062899e-15 7.921320e-15 6.364398e-15 6.979699e-15 6.689222e-15 8.075048e-15 8.031441e-15 9.119463e-15 
-2.460735e-02 -2.361816e-02 -2.244024e-02 -2.136244e-02 -2.011089e-02 -1.892885e-02 -1.759103e-02 -1.628961e-02 -1.485433e-02 -1.341981e-02 -1.187820e-02 -1.029926e-02 -8.645597e-03 -6.914394e-03 -5.146880e-03 -3.259967e-03 -1.381393e-03 6.593880e-04 2.641154e-03 4.828004e-03 6.899744e-03 9.218487e-03 1.136161e-02 1.379159e-02 1.598237e-02 1.849668e-02 2.070679e-02 2.327287e-02 2.547006e-02 2.805059e-02 3.019963e-02 3.275363e-02 3.481731e-02 3.730140e-02 3.924153e-02 4.161114e-02 4.338957e-02 4.560011e-02 4.717954e-02 4.918734e-02 5.053205e-02 5.229514e-02 5.337149e-02 5.485014e-02 5.562705e-02 5.678423e-02 5.723352e-02 5.803532e-02 5.813215e-02 5.854834e-02 5.827176e-02 5.827650e-02 5.761026e-02 5.718315e-02 5.611672e-02 5.524412e-02 5.377397e-02 5.245053e-02 5.058162e-02 4.881195e-02 4.655913e-02 4.435937e-02 4.174874e-02 3.914776e-02 3.621745e-02 3.325756e-02 3.005799e-02 2.679471e-02 2.338791e-02 1.988891e-02 1.634688e-02 1.268977e-02 9.091861e-03 5.361054e-03 1.790480e-03 -1.926706e-03 -5.386973e-03 -9.004698e-03 -1.227624e-02 -1.571457e-02 -1.872767e-02 -2.191661e-02 -2.461380e-02 -2.749661e-02 -2.983517e-02 -3.237057e-02 -3.432401e-02 -3.648714e-02 -3.804528e-02 -3.982746e-02 -4.099540e-02 -4.240275e-02 -4.319887e-02 -4.425004e-02 -4.470333e-02 -4.542671e-02 -4.557373e-02 -4.600440e-02 -4.588621e-02 -4.606298e-02 -4.572227e-02 -4.568496e-02 -4.516359e-02 -4.495078e-02 -4.428783e-02 -4.393513e-02 -4.316548e-02 -4.270429e-02 -4.185766e-02 -4.131444e-02 -4.041497e-02 -3.981084e-02 -3.887697e-02 -3.822768e-02 -3.727227e-02 -3.658836e-02 -3.561908e-02 -3.490615e-02 -3.392592e-02 -3.318507e-02 -3.219260e-02 -3.142082e-02 -3.041121e-02 -2.960191e-02 -2.856722e-02 -2.771075e-02 -2.664066e-02 -2.572485e-02 
-4.910213e-02 -4.712862e-02 -4.477688e-02 -4.262702e-02 -4.012836e-02 -3.777071e-02 -3.509976e-02 -3.250384e-02 -2.963811e-02 -2.677625e-02 -2.369790e-02 -2.054728e-02 -1.724480e-02 -1.378951e-02 -1.025927e-02 -6.492213e-03 -2.739796e-03 1.335520e-03 5.294348e-03 9.662474e-03 1.380121e-02 1.843390e-02 2.271526e-02 2.757127e-02 3.194770e-02 3.697325e-02 4.138794e-02 4.651793e-02 5.090630e-02 5.606607e-02 6.035757e-02 6.546520e-02 6.958540e-02 7.455414e-02 7.842678e-02 8.316761e-02 8.671654e-02 9.114046e-02 9.429139e-02 9.831130e-02 1.009932e-01 1.045254e-01 1.066714e-01 1.096368e-01 1.111853e-01 1.135100e-01 1.144051e-01 1.160215e-01 1.162139e-01 1.170614e-01 1.165094e-01 1.165361e-01 1.152071e-01 1.143717e-01 1.122444e-01 1.105186e-01 1.075854e-01 1.049574e-01 1.012273e-01 9.770495e-02 9.320642e-02 8.882052e-02 8.360461e-02 7.841142e-02 7.255326e-02 6.663610e-02 6.023560e-02 5.370469e-02 4.688538e-02 3.987576e-02 3.278164e-02 2.544890e-02 1.823927e-02 1.075333e-02 3.595723e-03 -3.867108e-03 -1.080518e-02 -1.807110e-02 -2.463104e-02 -3.153788e-02 -3.757848e-02 -4.398405e-02 -4.938881e-02 -5.517776e-02 -5.986019e-02 -6.494860e-02 -6.885511e-02 -7.319255e-02 -7.630277e-02 -7.987179e-02 -8.219641e-02 -8.500970e-02 -8.658639e-02 -8.868213e-02 -8.956999e-02 -9.100612e-02 -9.127952e-02 -9.212744e-02 -9.186971e-02 -9.220823e-02 -9.150583e-02 -9.141567e-02 -9.035321e-02 -8.991241e-02 -8.856868e-02 -8.784913e-02 -8.629429e-02 -8.535925e-02 -8.365296e-02 -8.255563e-02 -8.074621e-02 -7.952896e-02 -7.765317e-02 -7.634754e-02 -7.443095e-02 -7.305797e-02 -7.111569e-02 -6.968648e-02 -6.772410e-02 -6.624073e-02 -6.425542e-02 -6.271178e-02 -6.069348e-02 -5.907626e-02 -5.700888e-02 -5.529862e-02 -5.316133e-02 -5.133356e-02 
-7.395585e-02 -7.100349e-02 -6.748297e-02 -6.426518e-02 -6.052315e-02 -5.699219e-02 -5.298990e-02 -4.909938e-02 -4.480242e-02 -4.051016e-02 -3.589105e-02 -3.116211e-02 -2.620291e-02 -2.101276e-02 -1.570741e-02 -1.004487e-02 -4.401246e-03 1.728847e-03 7.687407e-03 1.426207e-02 2.049594e-02 2.747276e-02 3.392592e-02 4.124267e-02 4.784345e-02 5.541885e-02 6.208149e-02 6.981699e-02 7.644386e-02 8.422637e-02 9.071076e-02 9.841614e-02 1.046454e-01 1.121422e-01 1.180008e-01 1.251542e-01 1.305268e-01 1.372022e-01 1.419762e-01 1.480416e-01 1.521093e-01 1.574384e-01 1.606985e-01 1.651716e-01 1.675304e-01 1.710359e-01 1.724086e-01 1.748443e-01 1.751557e-01 1.764301e-01 1.756166e-01 1.756512e-01 1.736629e-01 1.723953e-01 1.691994e-01 1.665870e-01 1.621715e-01 1.581966e-01 1.525749e-01 1.472498e-01 1.404652e-01 1.338371e-01 1.259670e-01 1.181218e-01 1.092804e-01 1.003452e-01 9.068443e-02 8.082695e-02 7.053456e-02 5.995995e-02 4.925455e-02 3.819878e-02 2.732190e-02 1.604215e-02 5.247508e-03 -5.989920e-03 -1.644907e-02 -2.738223e-02 -3.726652e-02 -4.765152e-02 -5.674828e-02 -6.637189e-02 -7.450608e-02 -8.319585e-02 -9.023801e-02 -9.786910e-02 -1.037396e-01 -1.102377e-01 -1.149070e-01 -1.202475e-01 -1.237329e-01 -1.279363e-01 -1.302957e-01 -1.334208e-01 -1.347441e-01 -1.368792e-01 -1.372792e-01 -1.385324e-01 -1.381351e-01 -1.386256e-01 -1.375616e-01 -1.374111e-01 -1.358079e-01 -1.351339e-01 -1.331102e-01 -1.320206e-01 -1.296819e-01 -1.282719e-01 -1.257079e-01 -1.240571e-01 -1.213403e-01 -1.195121e-01 -1.166976e-01 -1.147392e-01 -1.118653e-01 -1.098080e-01 -1.068972e-01 -1.047573e-01 -1.018179e-01 -9.959835e-02 -9.662588e-02 -9.431711e-02 -9.129622e-02 -8.887798e-02 -8.578422e-02 -8.322696e-02 -8.002873e-02 -7.729533e-02 
-9.847032e-02 -9.455390e-02 -8.987703e-02 -8.560871e-02 -8.063682e-02 -7.595199e-02 -7.063259e-02 -6.546839e-02 -5.975479e-02 -5.405388e-02 -4.790869e-02 -4.162341e-02 -3.502206e-02 -2.811859e-02 -2.105248e-02 -1.351494e-02 -5.994256e-03 2.171732e-03 1.011599e-02 1.888037e-02 2.719524e-02 3.650174e-02 4.511216e-02 5.487780e-02 6.368763e-02 7.380370e-02 8.269782e-02 9.303231e-02 1.018797e-01 1.122811e-01 1.209386e-01 1.312406e-01 1.395573e-01 1.495838e-01 1.574052e-01 1.669759e-01 1.741481e-01 1.830831e-01 1.894560e-01 1.975796e-01 2.030100e-01 2.101538e-01 2.145074e-01 2.205121e-01 2.236648e-01 2.283822e-01 2.302215e-01 2.335149e-01 2.339412e-01 2.356883e-01 2.346166e-01 2.347116e-01 2.320748e-01 2.304322e-01 2.261851e-01 2.227455e-01 2.168699e-01 2.116062e-01 2.041171e-01 1.970418e-01 1.879937e-01 1.791657e-01 1.686587e-01 1.581890e-01 1.463728e-01 1.344283e-01 1.215037e-01 1.083069e-01 9.452430e-02 8.034943e-02 6.600197e-02 5.116653e-02 3.657979e-02 2.143152e-02 6.948897e-03 -8.150648e-03 -2.218530e-02 -3.687943e-02 -5.014040e-02 -6.409637e-02 -7.629399e-02 -8.922061e-02 -1.001165e-01 -1.117785e-01 -1.211968e-01 -1.314242e-01 -1.392575e-01 -1.479499e-01 -1.541596e-01 -1.612850e-01 -1.658966e-01 -1.714850e-01 -1.745793e-01 -1.787128e-01 -1.804142e-01 -1.832151e-01 -1.836785e-01 -1.852956e-01 -1.846936e-01 -1.852900e-01 -1.838006e-01 -1.835422e-01 -1.813385e-01 -1.803849e-01 -1.776274e-01 -1.761250e-01 -1.729556e-01 -1.710323e-01 -1.675715e-01 -1.653344e-01 -1.616788e-01 -1.592127e-01 -1.554356e-01 -1.528033e-01 -1.489550e-01 -1.461979e-01 -1.423077e-01 -1.394472e-01 -1.355253e-01 -1.325646e-01 -1.286041e-01 -1.255301e-01 -1.215096e-01 -1.182946e-01 -1.141807e-01 -1.107846e-01 -1.065343e-01 -1.029070e-01 
-1.237043e-01 -1.188352e-01 -1.130126e-01 -1.077025e-01 -1.015088e-01 -9.567529e-02 -8.904299e-02 -8.260553e-02 -7.547438e-02 -6.835930e-02 -6.068065e-02 -5.282630e-02 -4.456758e-02 -3.592975e-02 -2.707861e-02 -1.763571e-02 -8.203608e-03 2.038622e-03 1.201375e-02 2.301847e-02 3.347065e-02 4.516755e-02 5.600261e-02 6.828719e-02 7.938395e-02 9.211878e-02 1.033318e-01 1.163496e-01 1.275130e-01 1.406215e-01 1.515541e-01 1.645422e-01 1.750526e-01 1.876970e-01 1.975895e-01 2.096616e-01 2.187410e-01 2.300130e-01 2.380893e-01 2.483390e-01 2.552310e-01 2.642459e-01 2.697832e-01 2.773625e-01 2.813881e-01 2.873444e-01 2.897153e-01 2.938767e-01 2.944659e-01 2.966773e-01 2.953763e-01 2.955036e-01 2.922259e-01 2.901603e-01 2.848467e-01 2.805122e-01 2.731378e-01 2.664992e-01 2.570812e-01 2.481535e-01 2.367596e-01 2.256170e-01 2.123731e-01 1.991567e-01 1.842523e-01 1.691740e-01 1.528644e-01 1.362076e-01 1.188110e-01 1.009248e-01 8.281460e-02 6.410299e-02 4.569357e-02 2.659850e-02 8.326710e-03 -1.069300e-02 -2.839023e-02 -4.688281e-02 -6.359233e-02 -8.113741e-02 -9.649267e-02 -1.127236e-01 -1.264241e-01 -1.410458e-01 -1.528711e-01 -1.656723e-01 -1.754893e-01 -1.863471e-01 -1.941102e-01 -2.029885e-01 -2.087335e-01 -2.156743e-01 -2.195070e-01 -2.246179e-01 -2.266985e-01 -2.301369e-01 -2.306639e-01 -2.326206e-01 -2.318137e-01 -2.324962e-01 -2.305814e-01 -2.302001e-01 -2.273965e-01 -2.261531e-01 -2.226632e-01 -2.207418e-01 -2.167444e-01 -2.143058e-01 -2.099519e-01 -2.071300e-01 -2.025407e-01 -1.994414e-01 -1.947080e-01 -1.914092e-01 -1.865943e-01 -1.831470e-01 -1.782865e-01 -1.747169e-01 -1.698227e-01 -1.661339e-01 -1.611968e-01 -1.573712e-01 -1.523635e-01 -1.483659e-01 -1.432447e-01 -1.390237e-01 -1.337341e-01 -1.292260e-01 
-1.483678e-01 -1.425712e-01 -1.356241e-01 -1.293019e-01 -1.219093e-01 -1.149601e-01 -1.070390e-01 -9.936386e-02 -9.083979e-02 -8.234750e-02 -7.316007e-02 -6.377396e-02 -5.388227e-02 -4.354661e-02 -3.293437e-02 -2.162082e-02 -1.030074e-02 1.985791e-03 1.396866e-02 2.718533e-02 3.975165e-02 5.381467e-02 6.685058e-02 8.163427e-02 9.499292e-02 1.103312e-01 1.238361e-01 1.395264e-01 1.529762e-01 1.687853e-01 1.819601e-01 1.976321e-01 2.103001e-01 2.255646e-01 2.374889e-01 2.520695e-01 2.630148e-01 2.766367e-01 2.863747e-01 2.987706e-01 3.070838e-01 3.179985e-01 3.246835e-01 3.338764e-01 3.387456e-01 3.459922e-01 3.488750e-01 3.539684e-01 3.547130e-01 3.574659e-01 3.559413e-01 3.561901e-01 3.522905e-01 3.499004e-01 3.435513e-01 3.384252e-01 3.295919e-01 3.216803e-01 3.103774e-01 2.996904e-01 2.859925e-01 2.726114e-01 2.566635e-01 2.407507e-01 2.227753e-01 2.045810e-01 1.848822e-01 1.647452e-01 1.437061e-01 1.220485e-01 1.001223e-01 7.743629e-02 5.512917e-02 3.195689e-02 9.805566e-03 -1.328758e-02 -3.474433e-02 -5.719963e-02 -7.745110e-02 -9.874764e-02 -1.173404e-01 -1.370237e-01 -1.535864e-01 -1.712915e-01 -1.855531e-01 -2.010199e-01 -2.128186e-01 -2.258982e-01 -2.351817e-01 -2.458337e-01 -2.526513e-01 -2.609328e-01 -2.654201e-01 -2.714695e-01 -2.738294e-01 -2.778460e-01 -2.783271e-01 -2.805501e-01 -2.794261e-01 -2.801142e-01 -2.776646e-01 -2.770783e-01 -2.735730e-01 -2.719605e-01 -2.676470e-01 -2.652336e-01 -2.603295e-01 -2.573109e-01 -2.519987e-01 -2.485369e-01 -2.429620e-01 -2.391844e-01 -2.334554e-01 -2.294550e-01 -2.236458e-01 -2.194831e-01 -2.136349e-01 -2.093399e-01 -2.034653e-01 -1.990405e-01 -1.931261e-01 -1.885494e-01 -1.825602e-01 -1.777874e-01 -1.716700e-01 -1.666383e-01 -1.603248e-01 -1.549558e-01 
-1.741145e-01 -1.674087e-01 -1.593543e-01 -1.520343e-01 -1.434564e-01 -1.354008e-01 -1.261988e-01 -1.172881e-01 -1.073715e-01 -9.749519e-02 -8.678958e-02 -7.585409e-02 -6.430816e-02 -5.224433e-02 -3.983587e-02 -2.660703e-02 -1.334836e-02 1.042591e-03 1.510049e-02 3.060525e-02 4.537025e-02 6.189134e-02 7.722981e-02 9.461928e-02 1.103578e-01 1.284190e-01 1.443486e-01 1.628406e-01 1.787223e-01 1.973676e-01 2.129401e-01 2.314339e-01 2.464216e-01 2.644421e-01 2.785637e-01 2.957824e-01 3.087585e-01 3.248495e-01 3.364094e-01 3.510565e-01 3.609427e-01 3.738446e-01 3.818163e-01 3.926894e-01 3.985243e-01 4.071041e-01 4.105997e-01 4.166420e-01 4.176172e-01 4.209003e-01 4.191979e-01 4.195267e-01 4.150181e-01 4.122310e-01 4.048241e-01 3.988029e-01 3.884518e-01 3.791347e-01 3.658521e-01 3.532478e-01 3.371182e-01 3.213205e-01 3.025129e-01 2.837133e-01 2.624904e-01 2.409859e-01 2.177090e-01 1.939037e-01 1.690298e-01 1.434282e-01 1.174989e-01 9.068940e-02 6.431082e-02 3.694151e-02 1.075597e-02 -1.649796e-02 -4.184608e-02 -6.831869e-02 -9.221965e-02 -1.172918e-01 -1.392057e-01 -1.623392e-01 -1.818262e-01 -2.025916e-01 -2.193329e-01 -2.374273e-01 -2.512361e-01 -2.664902e-01 -2.773112e-01 -2.896853e-01 -2.975843e-01 -3.071549e-01 -3.123004e-01 -3.192397e-01 -3.218792e-01 -3.264305e-01 -3.268647e-01 -3.293172e-01 -3.278749e-01 -3.285388e-01 -3.255541e-01 -3.247403e-01 -3.205338e-01 -3.185369e-01 -3.134019e-01 -3.104879e-01 -3.046809e-01 -3.010797e-01 -2.948147e-01 -2.907158e-01 -2.841628e-01 -2.797144e-01 -2.729996e-01 -2.683092e-01 -2.615173e-01 -2.566540e-01 -2.498319e-01 -2.448293e-01 -2.379898e-01 -2.328490e-01 -2.259749e-01 -2.206681e-01 -2.137165e-01 -2.081904e-01 -2.010968e-01 -1.952760e-01 -1.879588e-01 -1.817495e-01 
-1.990521e-01 -1.914733e-01 -1.823424e-01 -1.740674e-01 -1.643373e-01 -1.552228e-01 -1.447745e-01 -1.346794e-01 -1.234053e-01 -1.121984e-01 -1.000096e-01 -8.757843e-02 -7.441265e-02 -6.067323e-02 -4.650201e-02 -3.140775e-02 -1.624298e-02 2.066365e-04 1.630776e-02 3.406015e-02 5.099219e-02 6.993696e-02 8.754568e-02 1.075130e-01 1.255975e-01 1.463602e-01 1.646776e-01 1.859563e-01 2.042289e-01 2.257015e-01 2.436257e-01 2.649380e-01 2.821942e-01 3.029730e-01 3.192357e-01 3.391011e-01 3.540481e-01 3.726242e-01 3.859444e-01 4.028684e-01 4.142674e-01 4.291943e-01 4.383979e-01 4.510039e-01 4.577597e-01 4.677428e-01 4.718207e-01 4.789016e-01 4.800948e-01 4.840179e-01 4.821455e-01 4.826832e-01 4.775945e-01 4.745545e-01 4.661379e-01 4.593749e-01 4.475689e-01 4.369995e-01 4.218077e-01 4.074280e-01 3.889352e-01 3.708389e-01 3.492271e-01 3.276213e-01 3.031827e-01 2.783998e-01 2.515436e-01 2.240444e-01 1.952959e-01 1.656633e-01 1.356519e-01 1.045732e-01 7.400932e-02 4.224732e-02 1.188879e-02 -1.975698e-02 -4.914622e-02 -7.988397e-02 -1.075791e-01 -1.366711e-01 -1.620299e-01 -1.888352e-01 -2.113356e-01 -2.353442e-01 -2.546106e-01 -2.754660e-01 -2.912820e-01 -3.087896e-01 -3.210977e-01 -3.352191e-01 -3.441072e-01 -3.549434e-01 -3.606210e-01 -3.683869e-01 -3.711565e-01 -3.761498e-01 -3.763749e-01 -3.789451e-01 -3.770195e-01 -3.775387e-01 -3.738594e-01 -3.726969e-01 -3.676422e-01 -3.651453e-01 -3.590585e-01 -3.555385e-01 -3.487172e-01 -3.444411e-01 -3.371320e-01 -3.323181e-01 -3.247152e-01 -3.195329e-01 -3.117785e-01 -3.063496e-01 -2.985380e-01 -2.929394e-01 -2.851210e-01 -2.793889e-01 -2.715747e-01 -2.657080e-01 -2.578750e-01 -2.518395e-01 -2.439351e-01 -2.376673e-01 -2.296143e-01 -2.230252e-01 -2.147271e-01 -2.077066e-01 
-2.254408e-01 -2.170155e-01 -2.068335e-01 -1.976251e-01 -1.867636e-01 -1.766053e-01 -1.649245e-01 -1.536508e-01 -1.410230e-01 -1.284792e-01 -1.147981e-01 -1.008506e-01 -8.603963e-02 -7.058662e-02 -5.460839e-02 -3.759096e-02 -2.045449e-02 -1.866891e-03 1.636622e-02 3.646807e-02 5.567996e-02 7.717264e-02 9.718840e-02 1.198789e-01 1.404689e-01 1.640966e-01 1.849822e-01 2.092254e-01 2.300872e-01 2.545739e-01 2.750621e-01 2.993834e-01 3.191299e-01 3.428550e-01 3.614852e-01 3.841766e-01 4.013205e-01 4.225469e-01 4.378477e-01 4.571941e-01 4.703150e-01 4.873884e-01 4.980162e-01 5.124484e-01 5.202945e-01 5.317426e-01 5.365436e-01 5.446892e-01 5.462069e-01 5.507574e-01 5.487812e-01 5.494736e-01 5.438256e-01 5.404355e-01 5.309804e-01 5.233347e-01 5.099934e-01 4.979892e-01 4.807569e-01 4.643821e-01 4.433476e-01 4.227034e-01 3.980689e-01 3.733891e-01 3.454863e-01 3.171516e-01 2.864502e-01 2.549923e-01 2.220994e-01 1.881938e-01 1.538395e-01 1.182842e-01 8.329453e-02 4.697560e-02 1.223238e-02 -2.392195e-02 -5.753022e-02 -9.260241e-02 -1.242341e-01 -1.573718e-01 -1.862840e-01 -2.167500e-01 -2.423419e-01 -2.695543e-01 -2.913981e-01 -3.149554e-01 -3.328110e-01 -3.525014e-01 -3.663143e-01 -3.821080e-01 -3.919924e-01 -4.040208e-01 -4.102316e-01 -4.187559e-01 -4.216536e-01 -4.270288e-01 -4.270415e-01 -4.296793e-01 -4.272676e-01 -4.276021e-01 -4.232267e-01 -4.216859e-01 -4.157833e-01 -4.127666e-01 -4.057303e-01 -4.015937e-01 -3.937630e-01 -3.888094e-01 -3.804636e-01 -3.749395e-01 -3.662966e-01 -3.603915e-01 -3.516103e-01 -3.454592e-01 -3.366435e-01 -3.303306e-01 -3.215342e-01 -3.150973e-01 -3.063296e-01 -2.997646e-01 -2.909964e-01 -2.842617e-01 -2.754306e-01 -2.684516e-01 -2.594671e-01 -2.521402e-01 -2.428896e-01 -2.350870e-01 
-2.507710e-01 -2.415480e-01 -2.303562e-01 -2.202716e-01 -2.083229e-01 -1.971843e-01 -1.843166e-01 -1.719327e-01 -1.579976e-01 -1.441882e-01 -1.290604e-01 -1.136683e-01 -9.725685e-02 -8.016037e-02 -6.241814e-02 -4.354391e-02 -2.447699e-02 -3.812050e-03 1.651321e-02 3.891119e-02 6.036377e-02 8.435946e-02 1.067426e-01 1.321202e-01 1.551741e-01 1.816396e-01 2.050480e-01 2.322368e-01 2.556366e-01 2.831260e-01 3.061199e-01 3.334453e-01 3.556157e-01 3.822887e-01 4.032121e-01 4.287380e-01 4.479977e-01 4.718915e-01 4.890882e-01 5.108854e-01 5.256442e-01 5.449076e-01 5.568819e-01 5.732035e-01 5.820753e-01 5.950752e-01 6.005540e-01 6.098787e-01 6.117009e-01 6.170224e-01 6.149519e-01 6.159712e-01 6.098046e-01 6.062605e-01 5.958369e-01 5.875210e-01 5.727380e-01 5.595152e-01 5.403491e-01 5.221835e-01 4.987134e-01 4.756948e-01 4.481268e-01 4.204961e-01 3.891846e-01 3.573526e-01 3.228136e-01 2.873693e-01 2.502820e-01 2.119870e-01 1.731803e-01 1.329460e-01 9.336772e-02 5.221607e-02 1.288679e-02 -2.810385e-02 -6.614999e-02 -1.059085e-01 -1.416888e-01 -1.792178e-01 -2.118643e-01 -2.463021e-01 -2.751155e-01 -3.057848e-01 -3.302716e-01 -3.567109e-01 -3.766015e-01 -3.985756e-01 -4.138205e-01 -4.313105e-01 -4.420591e-01 -4.552356e-01 -4.618010e-01 -4.709855e-01 -4.738015e-01 -4.794218e-01 -4.789972e-01 -4.815426e-01 -4.784184e-01 -4.783992e-01 -4.731120e-01 -4.710260e-01 -4.640787e-01 -4.603859e-01 -4.522279e-01 -4.473343e-01 -4.383492e-01 -4.325970e-01 -4.230972e-01 -4.167620e-01 -4.069885e-01 -4.002799e-01 -3.904057e-01 -3.834711e-01 -3.736068e-01 -3.665364e-01 -3.567364e-01 -3.495682e-01 -3.398377e-01 -3.325632e-01 -3.228641e-01 -3.154334e-01 -3.056908e-01 -2.980169e-01 -2.881252e-01 -2.800888e-01 -2.699173e-01 -2.613719e-01 
-2.779253e-01 -2.679410e-01 -2.557752e-01 -2.448452e-01 -2.318401e-01 -2.197444e-01 -2.057123e-01 -1.922303e-01 -1.769980e-01 -1.619204e-01 -1.453401e-01 -1.284824e-01 -1.104440e-01 -9.166080e-02 -7.210365e-02 -5.130368e-02 -3.022752e-02 -7.387806e-03 1.513884e-02 3.996053e-02 6.379484e-02 9.045139e-02 1.153748e-01 1.436260e-01 1.693470e-01 1.988619e-01 2.250240e-01 2.553897e-01 2.815820e-01 3.123184e-01 3.380912e-01 3.686701e-01 3.935507e-01 4.234177e-01 4.469271e-01 4.755226e-01 4.971909e-01 5.239684e-01 5.433469e-01 5.677861e-01 5.844549e-01 6.060686e-01 6.196406e-01 6.379758e-01 6.480962e-01 6.627317e-01 6.690756e-01 6.796179e-01 6.818880e-01 6.879694e-01 6.858963e-01 6.871776e-01 6.805245e-01 6.767046e-01 6.652792e-01 6.561125e-01 6.397850e-01 6.251059e-01 6.038340e-01 5.835879e-01 5.574454e-01 5.317209e-01 5.009275e-01 4.699871e-01 4.349341e-01 3.992374e-01 3.605046e-01 3.207186e-01 2.790767e-01 2.360691e-01 1.924642e-01 1.472770e-01 1.027949e-01 5.659790e-02 1.240916e-02 -3.356352e-02 -7.627282e-02 -1.207975e-01 -1.609023e-01 -2.028433e-01 -2.393537e-01 -2.777350e-01 -3.098589e-01 -3.439204e-01 -3.711064e-01 -4.003391e-01 -4.222958e-01 -4.464525e-01 -4.631428e-01 -4.822251e-01 -4.938400e-01 -5.080650e-01 -5.149808e-01 -5.247351e-01 -5.274627e-01 -5.332500e-01 -5.323811e-01 -5.347699e-01 -5.309279e-01 -5.305050e-01 -5.243027e-01 -5.216352e-01 -5.136429e-01 -5.092506e-01 -4.999737e-01 -4.943113e-01 -4.841776e-01 -4.776253e-01 -4.669805e-01 -4.598417e-01 -4.489499e-01 -4.414532e-01 -4.305018e-01 -4.228058e-01 -4.119124e-01 -4.041121e-01 -3.933318e-01 -3.854646e-01 -3.747980e-01 -3.668503e-01 -3.562506e-01 -3.481626e-01 -3.375424e-01 -3.292138e-01 -3.184514e-01 -3.097461e-01 -2.986917e-01 -2.894428e-01 
-3.037584e-01 -2.930753e-01 -2.799888e-01 -2.682866e-01 -2.542815e-01 -2.413100e-01 -2.261718e-01 -2.116790e-01 -1.952081e-01 -1.789534e-01 -1.609779e-01 -1.427465e-01 -1.231364e-01 -1.027564e-01 -8.143688e-02 -5.879590e-02 -3.576013e-02 -1.082268e-02 1.385831e-02 4.103656e-02 6.720719e-02 9.646878e-02 1.238870e-01 1.549679e-01 1.833086e-01 2.158407e-01 2.447040e-01 2.782248e-01 3.071499e-01 3.411202e-01 3.696019e-01 4.034285e-01 4.309372e-01 4.639986e-01 4.899997e-01 5.216715e-01 5.456432e-01 5.753195e-01 5.967672e-01 6.238756e-01 6.423404e-01 6.663492e-01 6.814114e-01 7.018294e-01 7.131066e-01 7.294780e-01 7.366205e-01 7.485179e-01 7.512040e-01 7.582237e-01 7.561574e-01 7.579204e-01 7.508354e-01 7.469965e-01 7.346675e-01 7.249342e-01 7.071969e-01 6.913574e-01 6.681371e-01 6.460964e-01 6.174421e-01 5.892610e-01 5.553819e-01 5.213159e-01 4.826153e-01 4.431454e-01 4.002442e-01 3.560935e-01 3.098385e-01 2.619697e-01 2.134198e-01 1.630077e-01 1.133948e-01 6.177462e-02 1.244094e-02 -3.896641e-02 -8.665152e-02 -1.364289e-01 -1.811615e-01 -2.279904e-01 -2.686232e-01 -3.113716e-01 -3.469905e-01 -3.847826e-01 -4.147593e-01 -4.470182e-01 -4.710325e-01 -4.974924e-01 -5.155243e-01 -5.362126e-01 -5.485085e-01 -5.637039e-01 -5.707234e-01 -5.808988e-01 -5.832524e-01 -5.890102e-01 -5.873950e-01 -5.894050e-01 -5.845460e-01 -5.834905e-01 -5.760923e-01 -5.726225e-01 -5.633333e-01 -5.580387e-01 -5.474261e-01 -5.408164e-01 -5.293551e-01 -5.218513e-01 -5.099196e-01 -5.018533e-01 -4.897361e-01 -4.813537e-01 -4.692492e-01 -4.607188e-01 -4.487474e-01 -4.401668e-01 -4.283803e-01 -4.197845e-01 -4.081755e-01 -3.995434e-01 -3.880529e-01 -3.793139e-01 -3.678389e-01 -3.588780e-01 -3.472783e-01 -3.379412e-01 -3.260459e-01 -3.161440e-01 
-3.317935e-01 -3.204601e-01 -3.065018e-01 -2.940703e-01 -2.791093e-01 -2.652964e-01 -2.490869e-01 -2.336054e-01 -2.159166e-01 -1.984896e-01 -1.791204e-01 -1.594979e-01 -1.382926e-01 -1.162707e-01 -9.313489e-02 -6.857562e-02 -4.349092e-02 -1.634189e-02 1.062166e-02 4.030954e-02 6.898564e-02 1.010452e-01 1.311686e-01 1.653104e-01 1.965203e-01 2.323342e-01 2.641843e-01 3.011516e-01 3.331255e-01 3.706388e-01 4.021699e-01 4.395604e-01 4.700545e-01 5.066229e-01 5.354817e-01 5.705281e-01 5.971698e-01 6.300194e-01 6.538951e-01 6.839155e-01 7.045189e-01 7.311271e-01 7.479975e-01 7.706583e-01 7.833770e-01 8.015947e-01 8.097778e-01 8.230857e-01 8.263765e-01 8.343291e-01 8.323943e-01 8.345665e-01 8.270994e-01 8.230961e-01 8.098287e-01 7.993067e-01 7.800340e-01 7.627351e-01 7.373485e-01 7.131427e-01 6.816712e-01 6.506043e-01 6.132595e-01 5.755994e-01 5.328157e-01 4.890905e-01 4.415551e-01 3.925736e-01 3.412366e-01 2.880852e-01 2.341444e-01 1.781554e-01 1.230110e-01 6.570149e-02 1.088205e-02 -4.613327e-02 -9.906768e-02 -1.541813e-01 -2.037480e-01 -2.554694e-01 -3.003693e-01 -3.474269e-01 -3.866335e-01 -4.280538e-01 -4.608730e-01 -4.960289e-01 -5.221232e-01 -5.507454e-01 -5.701220e-01 -5.922760e-01 -6.052448e-01 -6.212799e-01 -6.283900e-01 -6.388707e-01 -6.408364e-01 -6.464672e-01 -6.440934e-01 -6.456463e-01 -6.397612e-01 -6.380135e-01 -6.294143e-01 -6.251001e-01 -6.145128e-01 -6.082902e-01 -5.963446e-01 -5.887761e-01 -5.759938e-01 -5.675393e-01 -5.543314e-01 -5.453492e-01 -5.320211e-01 -5.227740e-01 -5.095350e-01 -5.001991e-01 -4.871727e-01 -4.778474e-01 -4.650825e-01 -4.557990e-01 -4.432802e-01 -4.340093e-01 -4.216655e-01 -4.123245e-01 -4.000370e-01 -3.904949e-01 -3.781043e-01 -3.681874e-01 -3.555004e-01 -3.449969e-01 
-3.582283e-01 -3.463225e-01 -3.315593e-01 -3.184894e-01 -3.026429e-01 -2.880901e-01 -2.708813e-01 -2.545202e-01 -2.356854e-01 -2.171999e-01 -1.965070e-01 -1.756084e-01 -1.528745e-01 -1.293231e-01 -1.044331e-01 -7.806125e-02 -5.098516e-02 -2.172008e-02 7.472925e-03 3.958806e-02 7.071978e-02 1.055102e-01 1.382900e-01 1.754411e-01 2.094698e-01 2.485294e-01 2.833101e-01 3.237008e-01 3.586576e-01 3.997009e-01 4.342013e-01 4.751499e-01 5.085323e-01 5.486063e-01 5.802071e-01 6.186308e-01 6.478092e-01 6.838409e-01 7.099980e-01 7.429503e-01 7.655402e-01 7.947868e-01 8.133184e-01 8.382899e-01 8.523212e-01 8.724926e-01 8.816193e-01 8.964942e-01 9.003386e-01 9.094367e-01 9.076395e-01 9.104924e-01 9.027129e-01 8.988727e-01 8.848010e-01 8.738630e-01 8.532450e-01 8.348848e-01 8.075604e-01 7.815843e-01 7.475356e-01 7.139374e-01 6.733434e-01 6.323620e-01 5.856507e-01 5.378202e-01 4.857096e-01 4.318902e-01 3.754086e-01 3.167909e-01 2.572658e-01 1.953403e-01 1.343512e-01 7.084067e-02 1.013383e-02 -5.310841e-02 -1.117355e-01 -1.728514e-01 -2.276827e-01 -2.849445e-01 -3.344767e-01 -3.864125e-01 -4.294646e-01 -4.749572e-01 -5.107431e-01 -5.490884e-01 -5.772456e-01 -6.081646e-01 -6.287369e-01 -6.523449e-01 -6.657283e-01 -6.824700e-01 -6.893333e-01 -6.998968e-01 -7.010911e-01 -7.063166e-01 -7.027856e-01 -7.035780e-01 -6.962795e-01 -6.935362e-01 -6.833792e-01 -6.779357e-01 -6.657369e-01 -6.583310e-01 -6.447889e-01 -6.360420e-01 -6.217261e-01 -6.121389e-01 -5.974906e-01 -5.874466e-01 -5.727876e-01 -5.625632e-01 -5.481078e-01 -5.378840e-01 -5.237533e-01 -5.136278e-01 -4.998622e-01 -4.898596e-01 -4.764310e-01 -4.665119e-01 -4.533330e-01 -4.434008e-01 -4.303337e-01 -4.202401e-01 -4.071034e-01 -3.966539e-01 -3.832295e-01 -3.721877e-01 
-3.872466e-01 -3.748319e-01 -3.593291e-01 -3.456792e-01 -3.290083e-01 -3.137653e-01 -2.956094e-01 -2.784051e-01 -2.584613e-01 -2.389344e-01 -2.169324e-01 -1.947490e-01 -1.704714e-01 -1.453489e-01 -1.186526e-01 -9.038671e-02 -6.122316e-02 -2.971458e-02 1.852865e-03 3.657302e-02 7.035724e-02 1.081082e-01 1.437936e-01 1.842342e-01 2.213810e-01 2.640110e-01 3.020674e-01 3.462421e-01 3.845656e-01 4.295233e-01 4.674079e-01 5.123087e-01 5.490157e-01 5.929850e-01 6.277757e-01 6.699480e-01 7.021123e-01 7.416674e-01 7.705464e-01 8.067321e-01 8.317305e-01 8.638700e-01 8.844568e-01 9.119407e-01 9.276407e-01 9.499090e-01 9.602866e-01 9.768073e-01 9.814506e-01 9.917008e-01 9.902097e-01 9.936688e-01 9.856535e-01 9.818109e-01 9.669048e-01 9.552862e-01 9.331751e-01 9.133869e-01 8.838545e-01 8.556437e-01 8.186302e-01 7.819531e-01 7.376210e-01 6.927136e-01 6.415111e-01 5.889491e-01 5.316603e-01 4.723973e-01 4.101675e-01 3.455402e-01 2.798637e-01 2.115559e-01 1.442215e-01 7.418450e-02 7.175508e-03 -6.249085e-02 -1.271317e-01 -1.943259e-01 -2.546522e-01 -3.174272e-01 -3.717419e-01 -4.284505e-01 -4.754329e-01 -5.248403e-01 -5.636295e-01 -6.049787e-01 -6.352029e-01 -6.682256e-01 -6.899784e-01 -7.148550e-01 -7.286287e-01 -7.459093e-01 -7.524996e-01 -7.630020e-01 -7.634012e-01 -7.681031e-01 -7.633963e-01 -7.633357e-01 -7.546106e-01 -7.508038e-01 -7.390816e-01 -7.324627e-01 -7.186505e-01 -7.100347e-01 -6.948990e-01 -6.849644e-01 -6.691224e-01 -6.584075e-01 -6.423307e-01 -6.312423e-01 -6.152687e-01 -6.040950e-01 -5.884445e-01 -5.773697e-01 -5.621611e-01 -5.512797e-01 -5.365456e-01 -5.258748e-01 -5.115747e-01 -5.010635e-01 -4.870942e-01 -4.766311e-01 -4.628357e-01 -4.522540e-01 -4.384285e-01 -4.275114e-01 -4.134119e-01 -4.018971e-01 
-4.143660e-01 -4.015375e-01 -3.853777e-01 -3.712587e-01 -3.538499e-01 -3.380408e-01 -3.190255e-01 -3.011120e-01 -2.801460e-01 -2.597181e-01 -2.364908e-01 -2.131644e-01 -1.874220e-01 -1.608669e-01 -1.324366e-01 -1.024067e-01 -7.122072e-02 -3.758546e-02 -3.701412e-03 3.352435e-02 6.990908e-02 1.105414e-01 1.490837e-01 1.927557e-01 2.329710e-01 2.791335e-01 3.204100e-01 3.683473e-01 4.099699e-01 4.588323e-01 5.000146e-01 5.488638e-01 5.887846e-01 6.366465e-01 6.744884e-01 7.204057e-01 7.553896e-01 7.984652e-01 8.298772e-01 8.693009e-01 8.965060e-01 9.315612e-01 9.540031e-01 9.840550e-01 1.001243e+00 1.025712e+00 1.037200e+00 1.055534e+00 1.060894e+00 1.072540e+00 1.071351e+00 1.075743e+00 1.067577e+00 1.064141e+00 1.048579e+00 1.036762e+00 1.013422e+00 9.927360e-01 9.613237e-01 9.314198e-01 8.917967e-01 8.525434e-01 8.048057e-01 7.563761e-01 7.009352e-01 6.438846e-01 5.815358e-01 5.168575e-01 4.488211e-01 3.779640e-01 3.058842e-01 2.307219e-01 1.566105e-01 7.935515e-02 5.478466e-03 -7.145822e-02 -1.427420e-01 -2.169258e-01 -2.833579e-01 -3.525260e-01 -4.121373e-01 -4.743792e-01 -5.256488e-01 -5.795474e-01 -6.215043e-01 -6.662156e-01 -6.984715e-01 -7.337346e-01 -7.564511e-01 -7.825344e-01 -7.963365e-01 -8.139360e-01 -8.197921e-01 -8.299038e-01 -8.289952e-01 -8.327829e-01 -8.263788e-01 -8.250557e-01 -8.144088e-01 -8.091421e-01 -7.954096e-01 -7.872544e-01 -7.714476e-01 -7.613084e-01 -7.442672e-01 -7.328828e-01 -7.152707e-01 -7.032166e-01 -6.855297e-01 -6.732318e-01 -6.558161e-01 -6.435688e-01 -6.266415e-01 -6.146267e-01 -5.982961e-01 -5.866009e-01 -5.708844e-01 -5.595146e-01 -5.443535e-01 -5.332441e-01 -5.185146e-01 -5.075374e-01 -4.930595e-01 -4.820280e-01 -4.675723e-01 -4.562464e-01 -4.415406e-01 -4.296306e-01 