# vtk DataFile Version 2.0
Comment goes here
ASCII

DATASET STRUCTURED_POINTS
FIELD FieldData 1
TIME 1 1 double
0.17000000
DIMENSIONS    128   128   1

ORIGIN    0.000   0.000   0.000
SPACING   0.039062 0.039062   1.000

POINT_DATA   16384
SCALARS uY double
LOOKUP_TABLE default

3.734451e-15 5.658680e-15 3.928225e-15 5.806488e-15 3.923308e-15 5.252526e-15 3.378678e-15 4.391341e-15 3.384876e-15 5.163536e-15 4.084282e-15 5.616082e-15 5.075163e-15 6.404734e-15 6.420614e-15 7.464226e-15 6.739729e-15 6.981184e-15 6.325721e-15 6.816379e-15 5.923746e-15 5.476992e-15 4.966615e-15 5.389271e-15 5.756358e-15 6.434329e-15 5.507520e-15 5.135798e-15 6.889491e-15 7.697744e-15 8.890151e-15 9.380504e-15 1.022542e-14 1.010317e-14 1.064615e-14 1.118673e-14 1.203796e-14 1.142726e-14 1.329989e-14 1.253272e-14 1.486512e-14 1.544169e-14 1.696553e-14 1.699886e-14 1.975085e-14 1.925365e-14 2.125273e-14 2.093867e-14 2.235244e-14 2.072844e-14 2.381711e-14 2.225625e-14 2.482035e-14 2.491683e-14 2.618432e-14 2.550888e-14 2.860750e-14 2.631971e-14 2.943263e-14 2.815095e-14 3.209131e-14 2.944059e-14 3.204780e-14 3.092837e-14 3.300844e-14 3.126823e-14 3.367069e-14 3.311440e-14 3.543106e-14 3.360356e-14 3.583414e-14 3.364740e-14 3.508045e-14 3.253869e-14 3.373270e-14 3.107789e-14 3.235142e-14 3.054350e-14 3.270362e-14 3.093627e-14 3.223480e-14 3.090611e-14 3.119341e-14 2.948733e-14 2.931144e-14 2.891909e-14 3.012556e-14 2.985895e-14 3.011715e-14 3.089059e-14 3.065886e-14 3.010637e-14 2.992779e-14 3.041719e-14 2.902094e-14 2.951769e-14 2.712695e-14 2.810849e-14 2.647161e-14 2.667510e-14 2.356526e-14 2.719820e-14 2.358912e-14 2.397517e-14 1.960116e-14 2.250391e-14 2.095978e-14 2.295181e-14 1.933204e-14 2.102836e-14 1.723227e-14 1.915551e-14 1.524416e-14 1.718799e-14 1.344471e-14 1.542070e-14 1.136451e-14 1.229709e-14 7.925541e-15 9.733231e-15 6.148069e-15 8.489420e-15 5.125032e-15 7.257607e-15 4.424715e-15 6.294893e-15 3.364516e-15 5.750766e-15 
-5.566034e-03 -5.977162e-03 -6.126230e-03 -6.481400e-03 -6.581492e-03 -6.865145e-03 -6.899824e-03 -7.098461e-03 -7.053787e-03 -7.156512e-03 -7.021655e-03 -7.020686e-03 -6.788460e-03 -6.679575e-03 -6.346876e-03 -6.129749e-03 -5.697843e-03 -5.376231e-03 -4.850860e-03 -4.432579e-03 -3.823839e-03 -3.320512e-03 -2.642489e-03 -2.069039e-03 -1.339203e-03 -7.131179e-04 4.849006e-05 7.080744e-04 1.479808e-03 2.153136e-03 2.912780e-03 3.580524e-03 4.306319e-03 4.950557e-03 5.622126e-03 6.227163e-03 6.826278e-03 7.379242e-03 7.890384e-03 8.381568e-03 8.792258e-03 9.215193e-03 9.516111e-03 9.867393e-03 1.005230e-02 1.033121e-02 1.039676e-02 1.060472e-02 1.055012e-02 1.069013e-02 1.051687e-02 1.059288e-02 1.030440e-02 1.032076e-02 9.922211e-03 9.883295e-03 9.381414e-03 9.291314e-03 8.694347e-03 8.556810e-03 7.874539e-03 7.693052e-03 6.936882e-03 6.714905e-03 5.897972e-03 5.639282e-03 4.776550e-03 4.485642e-03 3.593926e-03 3.276394e-03 2.374285e-03 2.037119e-03 1.144753e-03 7.964883e-04 -6.487252e-05 -4.142136e-04 -1.222801e-03 -1.562011e-03 -2.296376e-03 -2.613608e-03 -3.253623e-03 -3.537169e-03 -4.065151e-03 -4.304379e-03 -4.706259e-03 -4.892625e-03 -5.159049e-03 -5.287069e-03 -5.414318e-03 -5.482367e-03 -5.472970e-03 -5.483801e-03 -5.346736e-03 -5.307612e-03 -5.058035e-03 -4.980430e-03 -4.638899e-03 -4.537770e-03 -4.129013e-03 -4.021702e-03 -3.573012e-03 -3.477889e-03 -3.017310e-03 -2.952309e-03 -2.506767e-03 -2.487962e-03 -2.081540e-03 -2.121926e-03 -1.774426e-03 -1.883003e-03 -1.608923e-03 -1.790153e-03 -1.598118e-03 -1.851765e-03 -1.744428e-03 -2.065744e-03 -2.040080e-03 -2.420267e-03 -2.468192e-03 -2.895046e-03 -3.004245e-03 -3.462912e-03 -3.617779e-03 -4.091533e-03 -4.274145e-03 -4.745154e-03 -4.936224e-03 -5.386265e-03 
-1.115793e-02 -1.197872e-02 -1.227743e-02 -1.298694e-02 -1.318757e-02 -1.375452e-02 -1.382403e-02 -1.422121e-02 -1.413155e-02 -1.433694e-02 -1.406630e-02 -1.406411e-02 -1.359797e-02 -1.337954e-02 -1.271159e-02 -1.227609e-02 -1.140882e-02 -1.076362e-02 -9.708513e-03 -8.869199e-03 -7.646518e-03 -6.636336e-03 -5.274390e-03 -4.123257e-03 -2.657183e-03 -1.400208e-03 1.296786e-04 1.454049e-03 3.004196e-03 4.356256e-03 5.881977e-03 7.222876e-03 8.680415e-03 9.974137e-03 1.132255e-02 1.253756e-02 1.374024e-02 1.485070e-02 1.587652e-02 1.686298e-02 1.768696e-02 1.853646e-02 1.913997e-02 1.984574e-02 2.021634e-02 2.077700e-02 2.090805e-02 2.132652e-02 2.121652e-02 2.149884e-02 2.115081e-02 2.130490e-02 2.072576e-02 2.076035e-02 1.996042e-02 1.988420e-02 1.887694e-02 1.869801e-02 1.749989e-02 1.722562e-02 1.585616e-02 1.549335e-02 1.397533e-02 1.353070e-02 1.189038e-02 1.137128e-02 9.638574e-03 9.053794e-03 7.262381e-03 6.622933e-03 4.810083e-03 4.129824e-03 2.335944e-03 1.631891e-03 -1.003032e-04 -8.080708e-04 -2.434801e-03 -3.123733e-03 -4.601813e-03 -5.247980e-03 -6.536837e-03 -7.116484e-03 -8.180424e-03 -8.671866e-03 -9.482435e-03 -9.868101e-03 -1.040631e-02 -1.067473e-02 -1.093293e-02 -1.108035e-02 -1.106347e-02 -1.109494e-02 -1.082092e-02 -1.075061e-02 -1.024984e-02 -1.010045e-02 -9.414235e-03 -9.215550e-03 -8.393627e-03 -8.180338e-03 -7.277641e-03 -7.086620e-03 -6.159606e-03 -6.026950e-03 -5.129839e-03 -5.088010e-03 -4.269297e-03 -4.344639e-03 -3.644202e-03 -3.855089e-03 -3.302119e-03 -3.657841e-03 -3.269716e-03 -3.770143e-03 -3.552220e-03 -4.188159e-03 -4.134388e-03 -4.888494e-03 -4.982658e-03 -5.830729e-03 -6.048117e-03 -6.960587e-03 -7.269884e-03 -8.213390e-03 -8.578635e-03 -9.517541e-03 -9.900029e-03 -1.079786e-02 
-1.676776e-02 -1.801819e-02 -1.848366e-02 -1.956472e-02 -1.988144e-02 -2.074589e-02 -2.086387e-02 -2.147067e-02 -2.134748e-02 -2.166343e-02 -2.126605e-02 -2.126736e-02 -2.057379e-02 -2.024745e-02 -1.924810e-02 -1.859295e-02 -1.729150e-02 -1.631884e-02 -1.473264e-02 -1.346617e-02 -1.162587e-02 -1.010097e-02 -8.049432e-03 -6.311588e-03 -4.102044e-03 -2.204646e-03 1.018216e-04 2.100337e-03 4.437754e-03 6.477070e-03 8.777768e-03 1.079893e-02 1.299670e-02 1.494512e-02 1.697807e-02 1.880606e-02 2.061895e-02 2.228756e-02 2.383348e-02 2.531351e-02 2.655493e-02 2.782715e-02 2.873617e-02 2.979074e-02 3.034886e-02 3.118415e-02 3.138158e-02 3.200248e-02 3.183721e-02 3.225331e-02 3.173008e-02 3.195373e-02 3.108310e-02 3.112783e-02 2.992543e-02 2.980457e-02 2.829066e-02 2.801660e-02 2.621589e-02 2.579979e-02 2.374154e-02 2.319362e-02 2.091195e-02 2.024224e-02 1.777646e-02 1.699591e-02 1.439088e-02 1.351257e-02 1.081883e-02 9.859251e-03 7.132792e-03 6.112766e-03 3.414413e-03 2.359602e-03 -2.462384e-04 -1.305471e-03 -3.752674e-03 -4.782154e-03 -7.005371e-03 -7.968789e-03 -9.906510e-03 -1.076780e-02 -1.236581e-02 -1.309206e-02 -1.430706e-02 -1.487167e-02 -1.567467e-02 -1.606038e-02 -1.643961e-02 -1.664103e-02 -1.660387e-02 -1.662912e-02 -1.620278e-02 -1.607395e-02 -1.530467e-02 -1.505691e-02 -1.400760e-02 -1.368688e-02 -1.243332e-02 -1.209302e-02 -1.071891e-02 -1.041561e-02 -9.006943e-03 -8.795865e-03 -7.435152e-03 -7.365743e-03 -6.126666e-03 -6.238826e-03 -5.181822e-03 -5.503092e-03 -4.672216e-03 -5.216142e-03 -4.637377e-03 -5.403066e-03 -5.084068e-03 -6.056815e-03 -5.987897e-03 -7.140656e-03 -7.296740e-03 -8.592153e-03 -8.935349e-03 -1.032807e-02 -1.081058e-02 -1.224967e-02 -1.281679e-02 -1.424803e-02 -1.484100e-02 -1.620906e-02 
-2.245436e-02 -2.413015e-02 -2.476427e-02 -2.621457e-02 -2.664888e-02 -2.780997e-02 -2.797704e-02 -2.879341e-02 -2.863592e-02 -2.906249e-02 -2.853572e-02 -2.853998e-02 -2.761403e-02 -2.717798e-02 -2.583963e-02 -2.496123e-02 -2.321521e-02 -2.190924e-02 -1.977878e-02 -1.807689e-02 -1.560324e-02 -1.355294e-02 -1.079393e-02 -8.456542e-03 -5.484084e-03 -2.931676e-03 1.716442e-04 2.860106e-03 6.005091e-03 8.748074e-03 1.184328e-02 1.456112e-02 1.751716e-02 2.013616e-02 2.286960e-02 2.532549e-02 2.776201e-02 3.000242e-02 3.207911e-02 3.406498e-02 3.573162e-02 3.743743e-02 3.865691e-02 4.006987e-02 4.081778e-02 4.193617e-02 4.219980e-02 4.303069e-02 4.280770e-02 4.336441e-02 4.266143e-02 4.296088e-02 4.179223e-02 4.185271e-02 4.023937e-02 4.007879e-02 3.804776e-02 3.768251e-02 3.526669e-02 3.471132e-02 3.194958e-02 3.121722e-02 2.815489e-02 2.725828e-02 2.394767e-02 2.290070e-02 1.940159e-02 1.822103e-02 1.460093e-02 1.330820e-02 9.642089e-03 8.264569e-03 4.634105e-03 3.205930e-03 -3.022198e-04 -1.740309e-03 -5.036934e-03 -6.438742e-03 -9.435459e-03 -1.075157e-02 -1.336497e-02 -1.454598e-02 -1.670231e-02 -1.770281e-02 -1.934294e-02 -2.012580e-02 -2.120989e-02 -2.175051e-02 -2.226200e-02 -2.255183e-02 -2.250016e-02 -2.254899e-02 -2.197056e-02 -2.180729e-02 -2.076446e-02 -2.043591e-02 -1.901376e-02 -1.858172e-02 -1.688296e-02 -1.641952e-02 -1.455767e-02 -1.413954e-02 -1.223129e-02 -1.193353e-02 -1.009080e-02 -9.980800e-03 -8.303484e-03 -8.435798e-03 -7.005715e-03 -7.418198e-03 -6.294863e-03 -7.006436e-03 -6.224808e-03 -7.234851e-03 -6.805036e-03 -8.094251e-03 -8.002903e-03 -9.535311e-03 -9.748331e-03 -1.147403e-02 -1.194010e-02 -1.379839e-02 -1.445293e-02 -1.637557e-02 -1.714475e-02 -1.905902e-02 -1.986364e-02 -2.169527e-02 
-2.818050e-02 -3.032192e-02 -3.115935e-02 -3.301351e-02 -3.359683e-02 -3.508310e-02 -3.532680e-02 -3.637495e-02 -3.620628e-02 -3.675923e-02 -3.612133e-02 -3.613791e-02 -3.499262e-02 -3.444997e-02 -3.278028e-02 -3.167582e-02 -2.948750e-02 -2.784007e-02 -2.516241e-02 -2.301236e-02 -1.989766e-02 -1.730566e-02 -1.382740e-02 -1.087177e-02 -7.121444e-03 -3.894279e-03 2.301669e-05 3.420797e-03 7.391568e-03 1.085585e-02 1.476382e-02 1.819301e-02 2.192468e-02 2.522500e-02 2.867461e-02 3.176455e-02 3.483815e-02 3.765164e-02 4.026997e-02 4.275812e-02 4.485823e-02 4.698962e-02 4.852529e-02 5.028484e-02 5.122601e-02 5.261280e-02 5.294418e-02 5.396845e-02 5.368780e-02 5.436759e-02 5.348384e-02 5.384162e-02 5.237317e-02 5.243288e-02 5.040631e-02 5.019110e-02 4.764037e-02 4.717116e-02 4.413735e-02 4.343244e-02 3.996403e-02 3.903963e-02 3.519306e-02 3.406470e-02 2.990516e-02 2.858966e-02 2.419177e-02 2.270962e-02 1.815783e-02 1.653541e-02 1.192379e-02 1.019527e-02 5.626540e-03 3.834832e-03 -5.815866e-04 -2.384888e-03 -6.536023e-03 -8.292108e-03 -1.206566e-02 -1.371137e-02 -1.700099e-02 -1.847300e-02 -2.118435e-02 -2.242430e-02 -2.448139e-02 -2.544158e-02 -2.679295e-02 -2.744182e-02 -2.806568e-02 -2.839243e-02 -2.830033e-02 -2.831799e-02 -2.755617e-02 -2.730254e-02 -2.595068e-02 -2.548684e-02 -2.365399e-02 -2.306032e-02 -2.087826e-02 -2.024841e-02 -1.786288e-02 -1.729620e-02 -1.485693e-02 -1.445033e-02 -1.210075e-02 -1.194084e-02 -9.808647e-03 -9.965042e-03 -8.154455e-03 -8.674875e-03 -7.261192e-03 -8.168708e-03 -7.195530e-03 -8.487964e-03 -7.966963e-03 -9.618184e-03 -9.531064e-03 -1.149375e-02 -1.179585e-02 -1.400516e-02 -1.463012e-02 -1.700781e-02 -1.787267e-02 -2.033129e-02 -2.134166e-02 -2.378844e-02 -2.484339e-02 -2.718390e-02 
-3.403177e-02 -3.663216e-02 -3.767655e-02 -3.993134e-02 -4.066674e-02 -4.247748e-02 -4.279944e-02 -4.408004e-02 -4.389947e-02 -4.457968e-02 -4.382671e-02 -4.385542e-02 -4.248291e-02 -4.183126e-02 -3.981780e-02 -3.848167e-02 -3.583374e-02 -3.383533e-02 -3.058828e-02 -2.797629e-02 -2.419385e-02 -2.104211e-02 -1.681413e-02 -1.321840e-02 -8.656996e-03 -4.730162e-03 3.578124e-05 4.169894e-03 9.001164e-03 1.321477e-02 1.796887e-02 2.213737e-02 2.667540e-02 3.068398e-02 3.487684e-02 3.862601e-02 4.235937e-02 4.576885e-02 4.894669e-02 5.195756e-02 5.450407e-02 5.707902e-02 5.893901e-02 6.106091e-02 6.219893e-02 6.386801e-02 6.426660e-02 6.549665e-02 6.515406e-02 6.596820e-02 6.489597e-02 6.532244e-02 6.354326e-02 6.361171e-02 6.115783e-02 6.089646e-02 5.780869e-02 5.724252e-02 5.356999e-02 5.272038e-02 4.852092e-02 4.740627e-02 4.274720e-02 4.138475e-02 3.634398e-02 3.475237e-02 2.941931e-02 2.762162e-02 2.209780e-02 2.012443e-02 1.452342e-02 1.241454e-02 6.860844e-03 4.667819e-03 -7.054612e-04 -2.920075e-03 -7.974939e-03 -1.013907e-02 -1.473780e-02 -1.677332e-02 -2.078497e-02 -2.261286e-02 -2.592071e-02 -2.746746e-02 -2.997699e-02 -3.118174e-02 -3.282829e-02 -3.364978e-02 -3.440518e-02 -3.482769e-02 -3.470488e-02 -3.474225e-02 -3.379714e-02 -3.349413e-02 -3.182417e-02 -3.125476e-02 -2.899402e-02 -2.825656e-02 -2.556743e-02 -2.477718e-02 -2.183950e-02 -2.111922e-02 -1.811780e-02 -1.758754e-02 -1.469930e-02 -1.446659e-02 -1.184882e-02 -1.200026e-02 -9.780981e-03 -1.037614e-02 -8.647447e-03 -9.715487e-03 -8.530209e-03 -1.006916e-02 -9.440753e-03 -1.141922e-02 -1.132434e-02 -1.368494e-02 -1.406809e-02 -1.673208e-02 -1.751139e-02 -2.038373e-02 -2.145731e-02 -2.443175e-02 -2.568405e-02 -2.864794e-02 -2.995565e-02 -3.279423e-02 
-3.995178e-02 -4.307233e-02 -4.437662e-02 -4.708446e-02 -4.801990e-02 -5.019819e-02 -5.064039e-02 -5.218690e-02 -5.202965e-02 -5.286074e-02 -5.202048e-02 -5.207514e-02 -5.049520e-02 -4.973878e-02 -4.739302e-02 -4.582036e-02 -4.271593e-02 -4.035334e-02 -3.653195e-02 -3.343766e-02 -2.897510e-02 -2.523763e-02 -2.024122e-02 -1.597565e-02 -1.057947e-02 -5.921603e-03 -2.799918e-04 4.621202e-03 1.034160e-02 1.533249e-02 2.096126e-02 2.589229e-02 3.126366e-02 3.599745e-02 4.095774e-02 4.537575e-02 4.978943e-02 5.379674e-02 5.755054e-02 6.107830e-02 6.408345e-02 6.708913e-02 6.928168e-02 7.174718e-02 7.308678e-02 7.501488e-02 7.548253e-02 7.689216e-02 7.648724e-02 7.740825e-02 7.614556e-02 7.661348e-02 7.452058e-02 7.457209e-02 7.168729e-02 7.135675e-02 6.772796e-02 6.704526e-02 6.272973e-02 6.171977e-02 5.678460e-02 5.546820e-02 4.999142e-02 4.838757e-02 4.245956e-02 4.058867e-02 3.431343e-02 3.220108e-02 2.569713e-02 2.337779e-02 1.677827e-02 1.429837e-02 7.749897e-03 5.169719e-03 -1.170209e-03 -3.776399e-03 -9.743715e-03 -1.228961e-02 -1.771979e-02 -2.011121e-02 -2.484705e-02 -2.698822e-02 -3.088887e-02 -3.269035e-02 -3.564105e-02 -3.702852e-02 -3.895008e-02 -3.987303e-02 -4.073005e-02 -4.116921e-02 -4.097601e-02 -4.094837e-02 -3.977147e-02 -3.933205e-02 -3.728860e-02 -3.652836e-02 -3.378023e-02 -3.282002e-02 -2.956373e-02 -2.854500e-02 -2.499834e-02 -2.407138e-02 -2.045805e-02 -1.976933e-02 -1.630315e-02 -1.598313e-02 -1.285359e-02 -1.300650e-02 -1.036699e-02 -1.106350e-02 -9.023359e-03 -1.029665e-02 -8.917342e-03 -1.076265e-02 -1.005790e-02 -1.243491e-02 -1.237420e-02 -1.521163e-02 -1.572607e-02 -1.892748e-02 -1.991712e-02 -2.336724e-02 -2.470879e-02 -2.827967e-02 -2.983417e-02 -3.339089e-02 -3.501073e-02 -3.841648e-02 
-4.604082e-02 -4.967317e-02 -5.124365e-02 -5.440133e-02 -5.554231e-02 -5.808871e-02 -5.865466e-02 -6.046973e-02 -6.033598e-02 -6.132090e-02 -6.038890e-02 -6.047088e-02 -5.867326e-02 -5.781009e-02 -5.511507e-02 -5.329901e-02 -4.971384e-02 -4.697425e-02 -4.254694e-02 -3.895100e-02 -3.376995e-02 -2.942095e-02 -2.361197e-02 -1.864497e-02 -1.236574e-02 -6.940608e-03 -3.728464e-04 5.334747e-03 1.199481e-02 1.780369e-02 2.435561e-02 3.008963e-02 3.633881e-02 4.183655e-02 4.760323e-02 5.272602e-02 5.785237e-02 6.248991e-02 6.684488e-02 7.091813e-02 7.439987e-02 7.786117e-02 8.039725e-02 8.322796e-02 8.477367e-02 8.697970e-02 8.751513e-02 8.912124e-02 8.864756e-02 8.969089e-02 8.822668e-02 8.875049e-02 8.632848e-02 8.637663e-02 8.304127e-02 8.265403e-02 7.846020e-02 7.767171e-02 7.268446e-02 7.152218e-02 6.581746e-02 6.430327e-02 5.796942e-02 5.612248e-02 4.926201e-02 4.710276e-02 3.983412e-02 3.738894e-02 2.984781e-02 2.715368e-02 1.949328e-02 1.660172e-02 8.991708e-03 5.971294e-03 -1.405064e-03 -4.468294e-03 -1.141906e-02 -1.442368e-02 -2.075533e-02 -2.358938e-02 -2.911595e-02 -3.166435e-02 -3.621823e-02 -3.837226e-02 -4.181585e-02 -4.348391e-02 -4.572113e-02 -4.683936e-02 -4.782580e-02 -4.836730e-02 -4.811750e-02 -4.809878e-02 -4.668958e-02 -4.617299e-02 -4.374192e-02 -4.283335e-02 -3.957167e-02 -3.841359e-02 -3.455429e-02 -3.331450e-02 -2.911623e-02 -2.797377e-02 -2.370222e-02 -2.283199e-02 -1.874091e-02 -1.829892e-02 -1.461263e-02 -1.472363e-02 -1.162301e-02 -1.237171e-02 -9.984759e-03 -1.141124e-02 -9.808786e-03 -1.190805e-02 -1.110431e-02 -1.382937e-02 -1.378642e-02 -1.705394e-02 -1.768902e-02 -2.138632e-02 -2.258066e-02 -2.657326e-02 -2.818138e-02 -3.232027e-02 -3.417893e-02 -3.830713e-02 -4.024350e-02 -4.420189e-02 
-5.223969e-02 -5.646682e-02 -5.837581e-02 -6.205412e-02 -6.346605e-02 -6.643853e-02 -6.718547e-02 -6.931389e-02 -6.925165e-02 -7.042183e-02 -6.943593e-02 -6.956327e-02 -6.757484e-02 -6.660978e-02 -6.358086e-02 -6.151363e-02 -5.745142e-02 -5.431541e-02 -4.927454e-02 -4.514742e-02 -3.922977e-02 -3.423171e-02 -2.758308e-02 -2.187174e-02 -1.467542e-02 -8.437812e-03 -9.052603e-04 5.653029e-03 1.329347e-02 1.996056e-02 2.747597e-02 3.404627e-02 4.121108e-02 4.749693e-02 5.410355e-02 5.994465e-02 6.581180e-02 7.108186e-02 7.606008e-02 8.067008e-02 8.464442e-02 8.854259e-02 9.143253e-02 9.460129e-02 9.635853e-02 9.880906e-02 9.941372e-02 1.011789e-01 1.006350e-01 1.017616e-01 1.000925e-01 1.006338e-01 9.787804e-02 9.788694e-02 9.409584e-02 9.362000e-02 8.885570e-02 8.793456e-02 8.226998e-02 8.093412e-02 7.445392e-02 7.272651e-02 6.552897e-02 6.342926e-02 5.562862e-02 5.317683e-02 4.490559e-02 4.212867e-02 3.353939e-02 3.047676e-02 2.174273e-02 1.845123e-02 9.765542e-03 6.322651e-03 -2.104790e-03 -5.600201e-03 -1.354815e-02 -1.697810e-02 -2.422206e-02 -2.745508e-02 -3.377794e-02 -3.667789e-02 -4.188260e-02 -4.432013e-02 -4.824365e-02 -5.010912e-02 -5.263629e-02 -5.385281e-02 -5.492877e-02 -5.546352e-02 -5.510281e-02 -5.497501e-02 -5.326596e-02 -5.254994e-02 -4.965312e-02 -4.847569e-02 -4.461582e-02 -4.314769e-02 -3.859940e-02 -3.704153e-02 -3.211005e-02 -3.067638e-02 -2.567514e-02 -2.457384e-02 -1.980155e-02 -1.921721e-02 -1.493686e-02 -1.501565e-02 -1.143782e-02 -1.227724e-02 -9.549125e-03 -1.119298e-02 -9.393738e-03 -1.183224e-02 -1.097417e-02 -1.414827e-02 -1.418276e-02 -1.799137e-02 -1.881805e-02 -2.312681e-02 -2.460434e-02 -2.925477e-02 -3.121193e-02 -3.602993e-02 -3.827611e-02 -4.307955e-02 -4.541411e-02 -5.001927e-02 
-5.864482e-02 -6.345771e-02 -6.571530e-02 -6.991242e-02 -7.160452e-02 -7.500657e-02 -7.594121e-02 -7.838947e-02 -7.840112e-02 -7.976348e-02 -7.871990e-02 -7.889729e-02 -7.670640e-02 -7.563937e-02 -7.225563e-02 -6.993021e-02 -6.535986e-02 -6.181185e-02 -5.611598e-02 -5.143272e-02 -4.472732e-02 -3.904595e-02 -3.149831e-02 -2.500012e-02 -1.682138e-02 -9.722232e-03 -1.156441e-03 6.305873e-03 1.499518e-02 2.257557e-02 3.111993e-02 3.858096e-02 4.672114e-02 5.384679e-02 6.134525e-02 6.795206e-02 7.460263e-02 8.054737e-02 8.618152e-02 9.136491e-02 9.585456e-02 1.002210e-01 1.034781e-01 1.070118e-01 1.089853e-01 1.117036e-01 1.123749e-01 1.143199e-01 1.136966e-01 1.149259e-01 1.130370e-01 1.136142e-01 1.105048e-01 1.104923e-01 1.062204e-01 1.056731e-01 1.003079e-01 9.926959e-02 9.289140e-02 9.139449e-02 8.409594e-02 8.216303e-02 7.405167e-02 7.169983e-02 6.290102e-02 6.014781e-02 5.080779e-02 4.767823e-02 3.796650e-02 3.450018e-02 2.461069e-02 2.086796e-02 1.101839e-02 7.084567e-03 -2.486751e-03 -6.500055e-03 -1.554016e-02 -1.949735e-02 -2.774780e-02 -3.149562e-02 -3.870468e-02 -4.208247e-02 -4.801996e-02 -5.087310e-02 -5.534683e-02 -5.754230e-02 -6.041468e-02 -6.185674e-02 -6.305976e-02 -6.370394e-02 -6.325042e-02 -6.311345e-02 -6.110276e-02 -6.026679e-02 -5.688345e-02 -5.549337e-02 -5.099784e-02 -4.925140e-02 -4.396334e-02 -4.209504e-02 -3.637047e-02 -3.463099e-02 -2.883558e-02 -2.746938e-02 -2.195112e-02 -2.117511e-02 -1.623939e-02 -1.622528e-02 -1.211524e-02 -1.297744e-02 -9.861297e-03 -1.165122e-02 -9.617294e-03 -1.232384e-02 -1.138259e-02 -1.493760e-02 -1.502923e-02 -1.931631e-02 -2.032198e-02 -2.518701e-02 -2.694179e-02 -3.220360e-02 -3.450944e-02 -3.996966e-02 -4.260746e-02 -4.805904e-02 -5.079917e-02 -5.603350e-02 
-6.521773e-02 -7.072213e-02 -7.342145e-02 -7.822713e-02 -8.028346e-02 -8.418828e-02 -8.538417e-02 -8.820860e-02 -8.835588e-02 -8.994965e-02 -8.889705e-02 -8.914654e-02 -8.678763e-02 -8.562360e-02 -8.190442e-02 -7.930916e-02 -7.423459e-02 -7.024743e-02 -6.388530e-02 -5.860510e-02 -5.108662e-02 -4.467022e-02 -3.618616e-02 -2.884198e-02 -1.963409e-02 -1.161108e-02 -1.959280e-03 6.468063e-03 1.626149e-02 2.481045e-02 3.443807e-02 4.283542e-02 5.200134e-02 5.999962e-02 6.843401e-02 7.582459e-02 8.329486e-02 8.991679e-02 9.623465e-02 1.019788e-01 1.070031e-01 1.118115e-01 1.154474e-01 1.193083e-01 1.215033e-01 1.244435e-01 1.251814e-01 1.272553e-01 1.265492e-01 1.278283e-01 1.257139e-01 1.262757e-01 1.228058e-01 1.227243e-01 1.179646e-01 1.173038e-01 1.113308e-01 1.101406e-01 1.030420e-01 1.013570e-01 9.323323e-02 9.107557e-02 8.204276e-02 7.942700e-02 6.962100e-02 6.656146e-02 5.614152e-02 5.266072e-02 4.181273e-02 3.795010e-02 2.688843e-02 2.270795e-02 1.167517e-02 7.270721e-03 -3.465410e-03 -7.968070e-03 -1.812106e-02 -2.256665e-02 -3.184143e-02 -3.605237e-02 -4.415923e-02 -4.794758e-02 -5.461937e-02 -5.780287e-02 -6.281437e-02 -6.523504e-02 -6.842278e-02 -6.996597e-02 -7.124644e-02 -7.185784e-02 -7.124141e-02 -7.093932e-02 -6.853771e-02 -6.741845e-02 -6.344365e-02 -6.167841e-02 -5.643226e-02 -5.425530e-02 -4.810984e-02 -4.579894e-02 -3.916919e-02 -3.702066e-02 -3.033278e-02 -2.863436e-02 -2.229290e-02 -2.129812e-02 -1.565630e-02 -1.556353e-02 -1.090008e-02 -1.183865e-02 -8.343328e-03 -1.036756e-02 -8.135994e-03 -1.122677e-02 -1.026390e-02 -1.433618e-02 -1.456613e-02 -1.948024e-02 -2.076038e-02 -2.633497e-02 -2.847149e-02 -3.449627e-02 -3.725955e-02 -4.350674e-02 -4.664517e-02 -5.287895e-02 -5.613071e-02 -6.211493e-02 
-7.202469e-02 -7.821236e-02 -8.136882e-02 -8.678456e-02 -8.921977e-02 -9.363607e-02 -9.510496e-02 -9.831844e-02 -9.860779e-02 -1.004465e-01 -9.938353e-02 -9.971571e-02 -9.717715e-02 -9.592017e-02 -9.184156e-02 -8.897087e-02 -8.335436e-02 -7.891049e-02 -7.183015e-02 -6.592235e-02 -5.752539e-02 -5.033028e-02 -4.083294e-02 -3.258758e-02 -2.226535e-02 -1.325429e-02 -2.426959e-03 7.035263e-03 1.802231e-02 2.761173e-02 3.840781e-02 4.781199e-02 5.808081e-02 6.701793e-02 7.645453e-02 8.468868e-02 9.303223e-02 1.003836e-01 1.074253e-01 1.137746e-01 1.193605e-01 1.246480e-01 1.286774e-01 1.328968e-01 1.353173e-01 1.385059e-01 1.393053e-01 1.415319e-01 1.407303e-01 1.420817e-01 1.397229e-01 1.402913e-01 1.364363e-01 1.363083e-01 1.310304e-01 1.302789e-01 1.236618e-01 1.223412e-01 1.144790e-01 1.126249e-01 1.036246e-01 1.012559e-01 9.124131e-02 8.836710e-02 7.748344e-02 7.411136e-02 6.253027e-02 5.867685e-02 4.660048e-02 4.230174e-02 2.996543e-02 2.528628e-02 1.295885e-02 8.000014e-03 -4.019170e-03 -9.118208e-03 -2.050603e-02 -2.556919e-02 -3.599007e-02 -4.081257e-02 -4.993422e-02 -5.429629e-02 -6.180954e-02 -6.549516e-02 -7.113661e-02 -7.395554e-02 -7.753115e-02 -7.934186e-02 -8.074872e-02 -8.147914e-02 -8.072266e-02 -8.038550e-02 -7.758895e-02 -7.628890e-02 -7.169297e-02 -6.962373e-02 -6.357479e-02 -6.100557e-02 -5.393283e-02 -5.118541e-02 -4.356889e-02 -4.098799e-02 -3.332070e-02 -3.124170e-02 -2.399081e-02 -2.270916e-02 -1.628081e-02 -1.602726e-02 -1.073948e-02 -1.166379e-02 -7.730032e-03 -9.894537e-03 -7.418543e-03 -1.080056e-02 -9.781444e-03 -1.428278e-02 -1.462765e-02 -2.008838e-02 -2.162944e-02 -2.784332e-02 -3.035643e-02 -3.708577e-02 -4.030830e-02 -4.729684e-02 -5.094330e-02 -5.792679e-02 -6.170176e-02 -6.841609e-02 
-7.908006e-02 -8.608049e-02 -8.980960e-02 -9.594466e-02 -9.886284e-02 -1.038794e-01 -1.057125e-01 -1.093830e-01 -1.098911e-01 -1.120220e-01 -1.110092e-01 -1.114499e-01 -1.087746e-01 -1.074292e-01 -1.030150e-01 -9.985222e-02 -9.369761e-02 -8.876031e-02 -8.094578e-02 -7.435557e-02 -6.504560e-02 -5.700232e-02 -4.644117e-02 -3.721510e-02 -2.571577e-02 -1.563276e-02 -3.559460e-03 7.019769e-03 1.927363e-02 2.997777e-02 4.201356e-02 5.248554e-02 6.392250e-02 7.384196e-02 8.433690e-02 9.343802e-02 1.027000e-01 1.107831e-01 1.185820e-01 1.255184e-01 1.316879e-01 1.374182e-01 1.418531e-01 1.463798e-01 1.490291e-01 1.524045e-01 1.532627e-01 1.555741e-01 1.546700e-01 1.560242e-01 1.534119e-01 1.539199e-01 1.496700e-01 1.494342e-01 1.436288e-01 1.427334e-01 1.354637e-01 1.339695e-01 1.253362e-01 1.232799e-01 1.133958e-01 1.107934e-01 9.978910e-02 9.664309e-02 8.467218e-02 8.098249e-02 6.822773e-02 6.400379e-02 5.068259e-02 4.595616e-02 3.232420e-02 2.716096e-02 1.351335e-02 8.021609e-03 -5.309647e-03 -1.097490e-02 -2.362790e-02 -2.926692e-02 -4.086211e-02 -4.623920e-02 -5.639712e-02 -6.125649e-02 -6.962055e-02 -7.370842e-02 -7.997136e-02 -8.306231e-02 -8.699423e-02 -8.891883e-02 -9.039356e-02 -9.106364e-02 -9.007997e-02 -8.950759e-02 -8.620158e-02 -8.450808e-02 -7.915362e-02 -7.656644e-02 -6.956209e-02 -6.639861e-02 -5.824100e-02 -5.488080e-02 -4.612661e-02 -4.297551e-02 -3.419641e-02 -3.164740e-02 -2.338346e-02 -2.177994e-02 -1.449784e-02 -1.410427e-02 -8.165379e-03 -9.148857e-03 -4.790566e-03 -7.214360e-03 -4.545413e-03 -8.373563e-03 -7.381587e-03 -1.249173e-02 -1.305965e-02 -1.926060e-02 -2.118785e-02 -2.823848e-02 -3.126346e-02 -3.889032e-02 -4.271120e-02 -5.062327e-02 -5.491567e-02 -6.281583e-02 -6.724699e-02 -7.484040e-02 
-8.638440e-02 -9.419200e-02 -9.851640e-02 -1.053781e-01 -1.088015e-01 -1.144353e-01 -1.166518e-01 -1.208022e-01 -1.215421e-01 -1.239889e-01 -1.230298e-01 -1.235992e-01 -1.207776e-01 -1.193551e-01 -1.145796e-01 -1.111230e-01 -1.043864e-01 -9.893729e-02 -9.032541e-02 -8.301627e-02 -7.271163e-02 -6.376563e-02 -5.204318e-02 -4.176593e-02 -2.898048e-02 -1.774287e-02 -4.308633e-03 7.477607e-03 2.111308e-02 3.302411e-02 4.640829e-02 5.803756e-02 7.074013e-02 8.172476e-02 9.336053e-02 1.034020e-01 1.136476e-01 1.225250e-01 1.311286e-01 1.387037e-01 1.454870e-01 1.517020e-01 1.565569e-01 1.614247e-01 1.643046e-01 1.678949e-01 1.688029e-01 1.712242e-01 1.702006e-01 1.715820e-01 1.686924e-01 1.691653e-01 1.644912e-01 1.641746e-01 1.578069e-01 1.567964e-01 1.488329e-01 1.471945e-01 1.377409e-01 1.355103e-01 1.246841e-01 1.218706e-01 1.098071e-01 1.064030e-01 9.326253e-02 8.925519e-02 7.523059e-02 7.061750e-02 5.594095e-02 5.074504e-02 3.569299e-02 2.997680e-02 1.487210e-02 8.748789e-03 -6.041335e-03 -1.240230e-02 -2.647335e-02 -3.284750e-02 -4.577099e-02 -5.188828e-02 -6.323157e-02 -6.879440e-02 -7.814671e-02 -8.285551e-02 -8.985874e-02 -9.344312e-02 -9.782492e-02 -1.000768e-01 -1.016822e-01 -1.024865e-01 -1.013040e-01 -1.006622e-01 -9.683931e-02 -9.488168e-02 -8.872696e-02 -8.570950e-02 -7.767806e-02 -7.396440e-02 -6.462705e-02 -6.065586e-02 -5.065438e-02 -4.689678e-02 -3.689047e-02 -3.380332e-02 -2.441360e-02 -2.239571e-02 -1.415662e-02 -1.351395e-02 -6.834878e-03 -7.759112e-03 -2.903817e-03 -5.465663e-03 -2.548296e-03 -6.704005e-03 -5.699710e-03 -1.130728e-02 -1.207298e-02 -1.891356e-02 -2.121391e-02 -2.901429e-02 -3.254818e-02 -4.100116e-02 -4.542573e-02 -5.420673e-02 -5.915714e-02 -6.793652e-02 -7.304112e-02 -8.149281e-02 
-9.404734e-02 -1.028160e-01 -1.078752e-01 -1.155926e-01 -1.196469e-01 -1.260024e-01 -1.287125e-01 -1.334228e-01 -1.344878e-01 -1.373058e-01 -1.364745e-01 -1.372025e-01 -1.342873e-01 -1.327915e-01 -1.276837e-01 -1.239106e-01 -1.165956e-01 -1.105864e-01 -1.011551e-01 -9.305491e-02 -8.170930e-02 -7.176870e-02 -5.881760e-02 -4.738360e-02 -3.322870e-02 -2.072482e-02 -5.836641e-03 7.265940e-03 2.237887e-02 3.559543e-02 5.042023e-02 6.328734e-02 7.733867e-02 8.944529e-02 1.022920e-01 1.133035e-01 1.245875e-01 1.342606e-01 1.437074e-01 1.518956e-01 1.593161e-01 1.659662e-01 1.712513e-01 1.763916e-01 1.795015e-01 1.832248e-01 1.841747e-01 1.866169e-01 1.854614e-01 1.867797e-01 1.835988e-01 1.839505e-01 1.788384e-01 1.783637e-01 1.714214e-01 1.702301e-01 1.615627e-01 1.597279e-01 1.494461e-01 1.470025e-01 1.352273e-01 1.321774e-01 1.190476e-01 1.153716e-01 1.010526e-01 9.672353e-02 8.141624e-02 7.641764e-02 6.036730e-02 5.471158e-02 3.821410e-02 3.195996e-02 1.536546e-02 8.631466e-03 -7.656782e-03 -1.468452e-02 -3.021697e-02 -3.728540e-02 -5.158034e-02 -5.837977e-02 -7.094525e-02 -7.712994e-02 -8.749344e-02 -9.271170e-02 -1.004560e-01 -1.043872e-01 -1.091896e-01 -1.115843e-01 -1.132547e-01 -1.139719e-01 -1.124852e-01 -1.115215e-01 -1.070375e-01 -1.045425e-01 -9.741004e-02 -9.368367e-02 -8.442463e-02 -7.989513e-02 -6.916874e-02 -6.435343e-02 -5.290316e-02 -4.835655e-02 -3.694609e-02 -3.320318e-02 -2.255003e-02 -2.007342e-02 -1.078959e-02 -9.928311e-03 -2.476451e-03 -3.441735e-03 1.888409e-03 -9.710502e-04 2.123088e-03 -2.564884e-03 -1.660679e-03 -7.999921e-03 -9.106104e-03 -1.683501e-02 -1.967074e-02 -2.847080e-02 -3.268587e-02 -4.220569e-02 -4.740834e-02 -5.728229e-02 -6.306128e-02 -7.292249e-02 -7.886316e-02 -8.835185e-02 
-1.019569e-01 -1.116860e-01 -1.175122e-01 -1.261016e-01 -1.308192e-01 -1.379259e-01 -1.411594e-01 -1.464668e-01 -1.478800e-01 -1.511085e-01 -1.504168e-01 -1.513378e-01 -1.483247e-01 -1.467786e-01 -1.413136e-01 -1.372292e-01 -1.292868e-01 -1.227000e-01 -1.123742e-01 -1.034404e-01 -9.095324e-02 -7.995052e-02 -6.564828e-02 -5.296806e-02 -3.730527e-02 -2.342916e-02 -6.940496e-03 7.593798e-03 2.433025e-02 3.896966e-02 5.537236e-02 6.958978e-02 8.511146e-02 9.844228e-02 1.126009e-01 1.246708e-01 1.370708e-01 1.476126e-01 1.579566e-01 1.668158e-01 1.749050e-01 1.820348e-01 1.877624e-01 1.932094e-01 1.965460e-01 2.004297e-01 2.014063e-01 2.038937e-01 2.025827e-01 2.038625e-01 2.003609e-01 2.006191e-01 1.950348e-01 1.944339e-01 1.868781e-01 1.855425e-01 1.761263e-01 1.741345e-01 1.629714e-01 1.603548e-01 1.475668e-01 1.443164e-01 1.300431e-01 1.261218e-01 1.105311e-01 1.058913e-01 8.919058e-02 8.379519e-02 6.624169e-02 6.008628e-02 4.199546e-02 3.512922e-02 1.687989e-02 9.422635e-03 -8.542942e-03 -1.639051e-02 -3.357320e-02 -4.152873e-02 -5.738735e-02 -6.509756e-02 -7.907314e-02 -8.613688e-02 -9.768626e-02 -1.036893e-01 -1.123266e-01 -1.168852e-01 -1.222282e-01 -1.250368e-01 -1.268525e-01 -1.277296e-01 -1.259737e-01 -1.248975e-01 -1.197400e-01 -1.168689e-01 -1.087006e-01 -1.043714e-01 -9.378682e-02 -8.849012e-02 -7.624646e-02 -7.058048e-02 -5.753484e-02 -5.214379e-02 -3.917701e-02 -3.468312e-02 -2.262049e-02 -1.956064e-02 -9.101336e-03 -7.878102e-03 4.561737e-04 -3.974732e-04 5.493709e-03 2.490634e-03 5.824782e-03 7.533085e-04 1.600021e-03 -5.332614e-03 -6.754202e-03 -1.524778e-02 -1.860823e-02 -2.830218e-02 -3.319942e-02 -4.370050e-02 -4.969173e-02 -6.059466e-02 -6.722050e-02 -7.812165e-02 -8.492295e-02 -9.542822e-02 