# vtk DataFile Version 2.0
Comment goes here
ASCII

DATASET STRUCTURED_POINTS
FIELD FieldData 1
TIME 1 1 double
0.19000000
DIMENSIONS    128   128   1

ORIGIN    0.000   0.000   0.000
SPACING   0.039062 0.039062   1.000

POINT_DATA   16384
SCALARS uY double
LOOKUP_TABLE default

-2.422339e-14 -2.266301e-14 -2.256806e-14 -2.181320e-14 -2.160275e-14 -2.072777e-14 -2.124333e-14 -2.072628e-14 -2.094736e-14 -2.007352e-14 -2.000475e-14 -1.882689e-14 -1.870371e-14 -1.770456e-14 -1.732582e-14 -1.633034e-14 -1.635259e-14 -1.548686e-14 -1.499500e-14 -1.451082e-14 -1.464866e-14 -1.449159e-14 -1.431758e-14 -1.367591e-14 -1.318132e-14 -1.239909e-14 -1.212677e-14 -1.150122e-14 -9.813671e-15 -9.287099e-15 -8.347875e-15 -7.124417e-15 -6.408310e-15 -7.405982e-15 -6.450183e-15 -6.899682e-15 -5.516992e-15 -5.525286e-15 -4.929990e-15 -5.028769e-15 -5.274541e-15 -5.146047e-15 -4.167603e-15 -3.564051e-15 -2.787256e-15 -1.452504e-15 -7.750467e-16 -1.361498e-15 -6.329680e-16 -8.552890e-16 -1.235631e-15 -8.191688e-16 -7.534177e-16 5.146536e-16 7.018131e-16 1.777245e-15 1.470234e-15 2.106883e-15 2.117348e-15 2.838143e-15 2.642960e-15 3.265055e-15 2.561279e-15 3.422360e-15 2.519318e-15 2.954643e-15 2.205591e-15 2.881351e-15 2.275606e-15 2.401400e-15 1.388349e-15 8.384860e-16 -9.303942e-16 -2.356966e-15 -4.820180e-15 -6.139039e-15 -7.816642e-15 -9.481602e-15 -1.121982e-14 -1.312770e-14 -1.463722e-14 -1.669225e-14 -1.901720e-14 -2.072856e-14 -2.214014e-14 -2.338626e-14 -2.370795e-14 -2.493022e-14 -2.463918e-14 -2.890359e-14 -2.884137e-14 -3.058738e-14 -3.053780e-14 -3.270320e-14 -3.279339e-14 -3.525246e-14 -3.540045e-14 -3.605396e-14 -3.609654e-14 -3.570053e-14 -3.489814e-14 -3.672629e-14 -3.497308e-14 -3.762629e-14 -3.686701e-14 -3.657436e-14 -3.459864e-14 -3.470750e-14 -3.413697e-14 -3.346526e-14 -3.293469e-14 -3.271277e-14 -3.244260e-14 -3.238190e-14 -3.216062e-14 -3.169836e-14 -3.128506e-14 -3.089505e-14 -3.063054e-14 -3.022515e-14 -2.988733e-14 -2.876882e-14 -2.811599e-14 -2.705854e-14 -2.685464e-14 -2.579779e-14 -2.567876e-14 -2.482028e-14 
-5.736217e-03 -6.127705e-03 -6.547766e-03 -6.878285e-03 -7.234120e-03 -7.489752e-03 -7.768913e-03 -7.937780e-03 -8.129870e-03 -8.202575e-03 -8.299633e-03 -8.269693e-03 -8.266559e-03 -8.130788e-03 -8.025419e-03 -7.784238e-03 -7.577939e-03 -7.235561e-03 -6.933079e-03 -6.497526e-03 -6.106990e-03 -5.589915e-03 -5.122595e-03 -4.538885e-03 -4.008761e-03 -3.375944e-03 -2.799121e-03 -2.136605e-03 -1.530598e-03 -8.587926e-04 -2.417498e-04 4.188593e-04 1.028947e-03 1.658697e-03 2.244738e-03 2.825611e-03 3.372061e-03 3.888363e-03 4.381750e-03 4.820628e-03 5.249926e-03 5.601702e-03 5.958557e-03 6.216873e-03 6.495688e-03 6.657493e-03 6.855388e-03 6.920775e-03 7.037448e-03 7.009392e-03 7.046904e-03 6.930923e-03 6.893445e-03 6.697226e-03 6.590766e-03 6.323785e-03 6.155914e-03 5.829076e-03 5.608673e-03 5.233982e-03 4.971002e-03 4.561261e-03 4.266521e-03 3.835076e-03 3.520055e-03 3.080544e-03 2.757175e-03 2.323284e-03 2.003726e-03 1.588923e-03 1.285282e-03 9.025089e-04 6.265042e-04 2.878091e-04 5.036043e-05 -2.335232e-04 -4.227782e-04 -6.429127e-04 -7.761567e-04 -9.259097e-04 -9.977042e-04 -1.073252e-03 -1.081066e-03 -1.081840e-03 -1.026485e-03 -9.554955e-04 -8.414026e-04 -7.053891e-04 -5.406584e-04 -3.500086e-04 -1.461967e-04 8.540128e-05 3.137800e-04 5.699529e-04 8.061937e-04 1.068745e-03 1.294936e-03 1.544894e-03 1.743040e-03 1.961812e-03 2.114984e-03 2.285513e-03 2.378938e-03 2.486755e-03 2.508726e-03 2.542811e-03 2.485355e-03 2.438731e-03 2.297992e-03 2.168020e-03 1.944334e-03 1.732713e-03 1.430424e-03 1.142920e-03 7.699704e-04 4.159420e-04 -1.668896e-05 -4.249036e-04 -9.038387e-04 -1.351603e-03 -1.861731e-03 -2.332799e-03 -2.857912e-03 -3.335086e-03 -3.858458e-03 -4.324193e-03 -4.829098e-03 -5.266042e-03 
-1.145974e-02 -1.224791e-02 -1.309236e-02 -1.375825e-02 -1.447358e-02 -1.498918e-02 -1.555042e-02 -1.589182e-02 -1.627809e-02 -1.642638e-02 -1.662168e-02 -1.656378e-02 -1.655776e-02 -1.628720e-02 -1.607576e-02 -1.559333e-02 -1.517910e-02 -1.449322e-02 -1.388575e-02 -1.301252e-02 -1.222817e-02 -1.119100e-02 -1.025247e-02 -9.081291e-03 -8.016733e-03 -6.746807e-03 -5.588650e-03 -4.259028e-03 -3.042540e-03 -1.694294e-03 -4.560029e-04 8.696400e-04 2.093536e-03 3.357016e-03 4.532148e-03 5.697220e-03 6.792353e-03 7.827465e-03 8.815549e-03 9.694877e-03 1.055380e-02 1.125791e-02 1.197095e-02 1.248711e-02 1.304309e-02 1.336522e-02 1.375844e-02 1.388676e-02 1.411669e-02 1.405723e-02 1.412810e-02 1.389199e-02 1.381225e-02 1.341497e-02 1.319675e-02 1.265736e-02 1.231593e-02 1.165633e-02 1.120958e-02 1.045388e-02 9.921850e-03 9.095765e-03 8.500238e-03 7.630552e-03 6.994641e-03 6.108740e-03 5.456483e-03 4.581865e-03 3.937763e-03 3.101512e-03 2.489980e-03 1.718157e-03 1.162842e-03 4.797596e-04 2.709181e-06 -5.699222e-04 -9.492369e-04 -1.393274e-03 -1.659052e-03 -1.960956e-03 -2.102205e-03 -2.254070e-03 -2.265682e-03 -2.266156e-03 -2.149794e-03 -2.004763e-03 -1.769428e-03 -1.492339e-03 -1.154475e-03 -7.661979e-04 -3.492574e-04 1.226028e-04 5.891734e-04 1.111511e-03 1.593835e-03 2.129790e-03 2.591562e-03 3.102656e-03 3.507426e-03 3.955911e-03 4.269432e-03 4.620656e-03 4.813080e-03 5.037640e-03 5.085368e-03 5.160864e-03 5.047891e-03 4.960140e-03 4.678802e-03 4.422432e-03 3.973558e-03 3.551996e-03 2.944501e-03 2.369414e-03 1.619457e-03 9.097718e-04 3.960751e-05 -7.797401e-04 -1.743069e-03 -2.642527e-03 -3.668532e-03 -4.615330e-03 -5.671358e-03 -6.630840e-03 -7.683239e-03 -8.620073e-03 -9.635227e-03 -1.051449e-02 
-1.730427e-02 -1.849424e-02 -1.976853e-02 -2.077400e-02 -2.185395e-02 -2.263272e-02 -2.348060e-02 -2.399659e-02 -2.458082e-02 -2.480542e-02 -2.510175e-02 -2.501512e-02 -2.500776e-02 -2.460003e-02 -2.428262e-02 -2.355486e-02 -2.293122e-02 -2.189606e-02 -2.098049e-02 -1.966218e-02 -1.847930e-02 -1.691319e-02 -1.549725e-02 -1.372859e-02 -1.212211e-02 -1.020426e-02 -8.456268e-03 -6.448309e-03 -4.612137e-03 -2.576227e-03 -7.071039e-04 1.294395e-03 3.141755e-03 5.049040e-03 6.822713e-03 8.581042e-03 1.023388e-02 1.179565e-02 1.328686e-02 1.461319e-02 1.590945e-02 1.697116e-02 1.804734e-02 1.882535e-02 1.966469e-02 2.015003e-02 2.074403e-02 2.093722e-02 2.128518e-02 2.119550e-02 2.130386e-02 2.094822e-02 2.082977e-02 2.023162e-02 1.990466e-02 1.909280e-02 1.858029e-02 1.758775e-02 1.691657e-02 1.577968e-02 1.497990e-02 1.373732e-02 1.284161e-02 1.153363e-02 1.057663e-02 9.244403e-03 8.262138e-03 6.946998e-03 5.976217e-03 4.718873e-03 3.796234e-03 2.635870e-03 1.796940e-03 7.701278e-04 4.814790e-05 -8.124371e-04 -1.388018e-03 -2.055054e-03 -2.460226e-03 -2.913313e-03 -3.131233e-03 -3.358455e-03 -3.381095e-03 -3.380416e-03 -3.209937e-03 -2.990241e-03 -2.639878e-03 -2.221466e-03 -1.715735e-03 -1.130113e-03 -5.041805e-04 2.069725e-04 9.087976e-04 1.695501e-03 2.422122e-03 3.228736e-03 3.925299e-03 4.693758e-03 5.305116e-03 5.978486e-03 6.452774e-03 6.978828e-03 7.270809e-03 7.605281e-03 7.679166e-03 7.788400e-03 7.619895e-03 7.482662e-03 7.060111e-03 6.668501e-03 5.993104e-03 5.352479e-03 4.437675e-03 3.565810e-03 2.435984e-03 1.361567e-03 5.030305e-05 -1.188971e-03 -2.640881e-03 -4.000412e-03 -5.547001e-03 -6.977393e-03 -8.569453e-03 -1.001851e-02 -1.160535e-02 -1.301990e-02 -1.455087e-02 -1.587836e-02 
-2.311145e-02 -2.471900e-02 -2.643621e-02 -2.779597e-02 -2.925161e-02 -3.030671e-02 -3.145004e-02 -3.215178e-02 -3.294029e-02 -3.324996e-02 -3.365092e-02 -3.354158e-02 -3.353364e-02 -3.299173e-02 -3.256622e-02 -3.159295e-02 -3.075492e-02 -2.936709e-02 -2.813576e-02 -2.636591e-02 -2.477451e-02 -2.267025e-02 -2.076503e-02 -1.838741e-02 -1.622586e-02 -1.364695e-02 -1.129537e-02 -8.595048e-03 -6.125538e-03 -3.387807e-03 -8.750178e-04 1.815848e-03 4.298023e-03 6.861254e-03 9.242770e-03 1.160450e-02 1.382184e-02 1.591792e-02 1.791623e-02 1.969436e-02 2.142896e-02 2.284997e-02 2.428725e-02 2.532569e-02 2.644339e-02 2.708742e-02 2.787441e-02 2.812503e-02 2.858069e-02 2.845064e-02 2.858392e-02 2.809622e-02 2.792459e-02 2.711094e-02 2.665921e-02 2.555847e-02 2.485769e-02 2.351436e-02 2.260077e-02 2.106364e-02 1.997777e-02 1.829878e-02 1.708459e-02 1.531781e-02 1.402194e-02 1.222263e-02 1.089361e-02 9.117294e-03 7.804678e-03 6.106125e-03 4.859421e-03 3.291476e-03 2.158806e-03 7.709416e-04 -2.026221e-04 -1.366021e-03 -2.140448e-03 -3.042060e-03 -3.584615e-03 -4.196334e-03 -4.483954e-03 -4.789052e-03 -4.810631e-03 -4.805717e-03 -4.564022e-03 -4.260540e-03 -3.773460e-03 -3.198447e-03 -2.499302e-03 -1.695174e-03 -8.318826e-04 1.449137e-04 1.111900e-03 2.193411e-03 3.194335e-03 4.304706e-03 5.264682e-03 6.324603e-03 7.168380e-03 8.099994e-03 8.756878e-03 9.488726e-03 9.897172e-03 1.036869e-02 1.048016e-02 1.064534e-02 1.042706e-02 1.025694e-02 9.693439e-03 9.177281e-03 8.270626e-03 7.415844e-03 6.184705e-03 5.015612e-03 3.493454e-03 2.049161e-03 2.818009e-04 -1.386434e-03 -3.343570e-03 -5.175240e-03 -7.259892e-03 -9.188132e-03 -1.133383e-02 -1.328811e-02 -1.542651e-02 -1.733508e-02 -1.939805e-02 -2.119009e-02 
-2.916159e-02 -3.119703e-02 -3.336824e-02 -3.509085e-02 -3.693264e-02 -3.827062e-02 -3.971878e-02 -4.061052e-02 -4.161112e-02 -4.200746e-02 -4.251885e-02 -4.238540e-02 -4.238015e-02 -4.169939e-02 -4.116612e-02 -3.993919e-02 -3.888389e-02 -3.713172e-02 -3.557841e-02 -3.334201e-02 -3.133256e-02 -2.867216e-02 -2.626506e-02 -2.325811e-02 -2.052625e-02 -1.726425e-02 -1.429177e-02 -1.087621e-02 -7.754628e-03 -4.292233e-03 -1.116301e-03 2.285921e-03 5.422496e-03 8.662096e-03 1.167058e-02 1.465401e-02 1.745406e-02 2.010026e-02 2.262263e-02 2.486567e-02 2.705410e-02 2.884484e-02 3.065715e-02 3.196392e-02 3.337233e-02 3.418068e-02 3.517152e-02 3.548328e-02 3.605611e-02 3.588786e-02 3.605429e-02 3.543553e-02 3.521779e-02 3.418888e-02 3.361840e-02 3.222856e-02 3.134449e-02 2.964990e-02 2.849781e-02 2.655997e-02 2.519071e-02 2.307496e-02 2.154361e-02 1.931790e-02 1.768286e-02 1.541659e-02 1.373867e-02 1.150157e-02 9.842912e-03 7.703855e-03 6.126663e-03 4.152154e-03 2.717072e-03 9.694813e-04 -2.664683e-04 -1.731067e-03 -2.716981e-03 -3.851316e-03 -4.545268e-03 -5.313616e-03 -5.685710e-03 -6.066667e-03 -6.102004e-03 -6.091024e-03 -5.792226e-03 -5.403566e-03 -4.792470e-03 -4.060200e-03 -3.178356e-03 -2.156129e-03 -1.063822e-03 1.768231e-04 1.403144e-03 2.775981e-03 4.047794e-03 5.456511e-03 6.678563e-03 8.022437e-03 9.098855e-03 1.027904e-02 1.111967e-02 1.204551e-02 1.257183e-02 1.316662e-02 1.331672e-02 1.352233e-02 1.325444e-02 1.303452e-02 1.232896e-02 1.167036e-02 1.052983e-02 9.442439e-03 7.890748e-03 6.405847e-03 4.485579e-03 2.653094e-03 4.224230e-04 -1.692492e-03 -4.163326e-03 -6.483996e-03 -9.116234e-03 -1.155812e-02 -1.426781e-02 -1.674191e-02 -1.944283e-02 -2.185872e-02 -2.446496e-02 -2.673342e-02 
-3.515200e-02 -3.764220e-02 -4.028956e-02 -4.240006e-02 -4.464675e-02 -4.629002e-02 -4.805796e-02 -4.915874e-02 -5.038218e-02 -5.088018e-02 -5.150816e-02 -5.136092e-02 -5.135972e-02 -5.054527e-02 -4.990064e-02 -4.841975e-02 -4.713867e-02 -4.501636e-02 -4.312794e-02 -4.041388e-02 -3.796919e-02 -3.473677e-02 -3.180736e-02 -2.815124e-02 -2.482641e-02 -2.085864e-02 -1.724152e-02 -1.308647e-02 -9.289282e-03 -5.077763e-03 -1.216569e-03 2.920330e-03 6.730855e-03 1.066776e-02 1.431921e-02 1.794181e-02 2.133626e-02 2.454571e-02 2.759898e-02 3.031514e-02 3.295911e-02 3.512253e-02 3.730638e-02 3.887904e-02 4.056964e-02 4.153462e-02 4.271604e-02 4.307627e-02 4.374871e-02 4.352506e-02 4.370329e-02 4.293224e-02 4.264387e-02 4.137495e-02 4.065861e-02 3.895197e-02 3.785552e-02 3.577957e-02 3.435857e-02 3.198798e-02 3.030425e-02 2.771824e-02 2.583870e-02 2.311954e-02 2.111514e-02 1.834689e-02 1.629154e-02 1.355875e-02 1.152812e-02 8.914435e-03 6.984454e-03 4.570935e-03 2.815858e-03 6.788464e-04 -8.312482e-04 -2.622722e-03 -3.824993e-03 -5.212289e-03 -6.054691e-03 -6.992973e-03 -7.438095e-03 -7.899850e-03 -7.928675e-03 -7.906979e-03 -7.522121e-03 -7.033211e-03 -6.261135e-03 -5.345846e-03 -4.237578e-03 -2.961216e-03 -1.591197e-03 -4.157072e-05 1.495521e-03 3.212008e-03 4.806366e-03 6.570427e-03 8.103816e-03 9.790394e-03 1.114385e-02 1.263004e-02 1.369182e-02 1.486485e-02 1.553785e-02 1.630235e-02 1.651033e-02 1.679416e-02 1.648606e-02 1.624430e-02 1.539660e-02 1.461326e-02 1.323017e-02 1.191787e-02 1.002964e-02 8.227451e-03 5.887296e-03 3.657160e-03 9.372007e-04 -1.640402e-03 -4.653578e-03 -7.484301e-03 -1.069405e-02 -1.367422e-02 -1.697790e-02 -1.999870e-02 -2.329123e-02 -2.624234e-02 -2.941924e-02 -3.219199e-02 
-4.150916e-02 -4.446982e-02 -4.761042e-02 -5.012197e-02 -5.278975e-02 -5.474854e-02 -5.685090e-02 -5.816752e-02 -5.962615e-02 -6.022863e-02 -6.098247e-02 -6.081973e-02 -6.082797e-02 -5.987305e-02 -5.911793e-02 -5.737090e-02 -5.585990e-02 -5.334974e-02 -5.111681e-02 -4.790212e-02 -4.500757e-02 -4.117546e-02 -3.770431e-02 -3.336756e-02 -2.942619e-02 -2.471856e-02 -2.043004e-02 -1.550012e-02 -1.099838e-02 -6.002460e-03 -1.425988e-03 3.479456e-03 7.994011e-03 1.265954e-02 1.698323e-02 2.127290e-02 2.528949e-02 2.908613e-02 3.269600e-02 3.590499e-02 3.902785e-02 4.157941e-02 4.415571e-02 4.600577e-02 4.799702e-02 4.912663e-02 5.051481e-02 5.092858e-02 5.171469e-02 5.143840e-02 5.164063e-02 5.071835e-02 5.036988e-02 4.886092e-02 4.800771e-02 4.598360e-02 4.468231e-02 4.222408e-02 4.054016e-02 3.773596e-02 3.574202e-02 3.268511e-02 3.045964e-02 2.724676e-02 2.487285e-02 2.160276e-02 1.916703e-02 1.593912e-02 1.353038e-02 1.044312e-02 8.150746e-03 5.299748e-03 3.211512e-03 6.870937e-04 -1.113715e-03 -3.229585e-03 -4.667755e-03 -6.305120e-03 -7.317762e-03 -8.422796e-03 -8.964000e-03 -9.503282e-03 -9.548752e-03 -9.513277e-03 -9.064398e-03 -8.472777e-03 -7.559486e-03 -6.459791e-03 -5.141642e-03 -3.611350e-03 -1.976311e-03 -1.200236e-04 1.719230e-03 3.774451e-03 5.686646e-03 7.798141e-03 9.641501e-03 1.165961e-02 1.329121e-02 1.506884e-02 1.635432e-02 1.775664e-02 1.857923e-02 1.949244e-02 1.976052e-02 2.009889e-02 1.975130e-02 1.946184e-02 1.847061e-02 1.753515e-02 1.590567e-02 1.434026e-02 1.210912e-02 9.961287e-03 7.192429e-03 4.536753e-03 1.316464e-03 -1.750733e-03 -5.319218e-03 -8.685525e-03 -1.248734e-02 -1.602969e-02 -1.994317e-02 -2.353273e-02 -2.743359e-02 -3.094001e-02 -3.470486e-02 -3.799988e-02 
-4.778810e-02 -5.125805e-02 -5.492356e-02 -5.787231e-02 -6.098807e-02 -6.329479e-02 -6.575305e-02 -6.731313e-02 -6.902245e-02 -6.975124e-02 -7.063994e-02 -7.047680e-02 -7.049655e-02 -6.940881e-02 -6.853807e-02 -6.652456e-02 -6.477132e-02 -6.186486e-02 -5.926829e-02 -5.553664e-02 -5.216709e-02 -4.771187e-02 -4.366895e-02 -3.862230e-02 -3.403103e-02 -2.855003e-02 -2.355515e-02 -1.781453e-02 -1.257358e-02 -6.757139e-03 -1.432841e-03 4.275532e-03 9.522843e-03 1.494781e-02 1.996719e-02 2.494959e-02 2.960541e-02 3.400848e-02 3.818494e-02 4.189873e-02 4.550297e-02 4.844694e-02 5.141062e-02 5.353451e-02 5.581405e-02 5.709712e-02 5.867288e-02 5.912188e-02 5.999636e-02 5.964264e-02 5.983820e-02 5.873421e-02 5.829044e-02 5.650604e-02 5.547713e-02 5.309606e-02 5.154830e-02 4.866495e-02 4.667458e-02 4.339124e-02 4.104261e-02 3.746722e-02 3.485130e-02 3.109566e-02 2.830878e-02 2.448701e-02 2.162964e-02 1.785673e-02 1.503216e-02 1.142231e-02 8.734823e-03 5.399419e-03 2.951876e-03 -3.282832e-06 -2.112732e-03 -4.590909e-03 -6.273065e-03 -8.190886e-03 -9.370569e-03 -1.066296e-02 -1.128465e-02 -1.191004e-02 -1.194357e-02 -1.188893e-02 -1.133454e-02 -1.061946e-02 -9.511474e-03 -8.190706e-03 -6.598994e-03 -4.762691e-03 -2.791380e-03 -5.626135e-04 1.654285e-03 4.124961e-03 6.430903e-03 8.973652e-03 1.119936e-02 1.363546e-02 1.561030e-02 1.776381e-02 1.932756e-02 2.103714e-02 2.205097e-02 2.318057e-02 2.353611e-02 2.398355e-02 2.360916e-02 2.331176e-02 2.217568e-02 2.111254e-02 1.922277e-02 1.741393e-02 1.481542e-02 1.231822e-02 9.087978e-03 5.991556e-03 2.232445e-03 -1.348830e-03 -5.514654e-03 -9.448050e-03 -1.388549e-02 -1.802638e-02 -2.259307e-02 -2.679068e-02 -3.134176e-02 -3.544403e-02 -3.983610e-02 -4.369373e-02 
-5.456018e-02 -5.856079e-02 -6.277488e-02 -6.617895e-02 -6.976531e-02 -7.243432e-02 -7.526915e-02 -7.708260e-02 -7.906027e-02 -7.992000e-02 -8.095707e-02 -8.079199e-02 -8.083146e-02 -7.960236e-02 -7.861789e-02 -7.632178e-02 -7.432111e-02 -7.099441e-02 -6.802153e-02 -6.374143e-02 -5.987678e-02 -5.476020e-02 -5.011858e-02 -4.431827e-02 -3.904432e-02 -3.274246e-02 -2.700395e-02 -2.040336e-02 -1.438297e-02 -7.696988e-03 -1.583295e-03 4.974884e-03 1.099641e-02 1.722391e-02 2.297910e-02 2.869233e-02 3.402514e-02 3.906698e-02 4.384478e-02 4.808962e-02 5.220660e-02 5.556323e-02 5.894213e-02 6.135455e-02 6.394681e-02 6.539316e-02 6.717776e-02 6.766781e-02 6.864909e-02 6.822069e-02 6.842554e-02 6.714039e-02 6.661515e-02 6.455451e-02 6.336183e-02 6.062230e-02 5.883822e-02 5.552808e-02 5.323955e-02 4.947559e-02 4.677842e-02 4.268350e-02 3.968071e-02 3.538183e-02 3.218239e-02 2.780906e-02 2.452668e-02 2.020950e-02 1.696130e-02 1.283025e-02 9.734948e-03 5.917174e-03 3.092518e-03 -2.906679e-04 -2.731534e-03 -5.568619e-03 -7.521936e-03 -9.716170e-03 -1.109344e-02 -1.256862e-02 -1.330329e-02 -1.400998e-02 -1.406428e-02 -1.398579e-02 -1.335701e-02 -1.251448e-02 -1.123957e-02 -9.695086e-03 -7.852808e-03 -5.709967e-03 -3.419658e-03 -8.207713e-04 1.762566e-03 4.642743e-03 7.336998e-03 1.030087e-02 1.290839e-02 1.574776e-02 1.806888e-02 2.057877e-02 2.242582e-02 2.441843e-02 2.562889e-02 2.694627e-02 2.739350e-02 2.791759e-02 2.751828e-02 2.717748e-02 2.589521e-02 2.466685e-02 2.251185e-02 2.042092e-02 1.744645e-02 1.456112e-02 1.085742e-02 7.282273e-03 2.969174e-03 -1.162663e-03 -5.943617e-03 -1.047858e-02 -1.557158e-02 -2.034316e-02 -2.558467e-02 -3.041997e-02 -3.564413e-02 -4.036926e-02 -4.541224e-02 -4.985674e-02 
-6.124125e-02 -6.582446e-02 -7.062895e-02 -7.453672e-02 -7.862925e-02 -8.170402e-02 -8.494401e-02 -8.704802e-02 -8.931486e-02 -9.033510e-02 -9.153279e-02 -9.138644e-02 -9.144866e-02 -9.008883e-02 -8.898394e-02 -8.640502e-02 -8.414041e-02 -8.038208e-02 -7.700698e-02 -7.215617e-02 -6.776210e-02 -6.195199e-02 -5.667054e-02 -5.007625e-02 -4.407377e-02 -3.690482e-02 -3.037460e-02 -2.286460e-02 -1.601712e-02 -8.411815e-03 -1.464056e-03 5.991229e-03 1.282631e-02 1.989861e-02 2.642164e-02 3.290076e-02 3.893383e-02 4.464064e-02 5.003329e-02 5.482541e-02 5.945842e-02 6.323340e-02 6.702062e-02 6.971666e-02 7.260495e-02 7.419946e-02 7.616715e-02 7.667365e-02 7.772788e-02 7.719166e-02 7.736495e-02 7.585810e-02 7.520468e-02 7.282095e-02 7.141305e-02 6.826303e-02 6.618757e-02 6.239438e-02 5.975015e-02 5.544595e-02 5.234132e-02 4.766464e-02 4.421591e-02 3.930960e-02 3.563968e-02 3.064938e-02 2.688669e-02 2.195945e-02 1.823664e-02 1.351930e-02 9.971449e-03 5.608394e-03 2.370262e-03 -1.499750e-03 -4.297740e-03 -7.545981e-03 -9.783208e-03 -1.229665e-02 -1.386918e-02 -1.555728e-02 -1.638578e-02 -1.718794e-02 -1.722603e-02 -1.711897e-02 -1.636087e-02 -1.536501e-02 -1.385140e-02 -1.203514e-02 -9.856034e-03 -7.336858e-03 -4.630412e-03 -1.572078e-03 1.481027e-03 4.875622e-03 8.062305e-03 1.156239e-02 1.465097e-02 1.801248e-02 2.076888e-02 2.375104e-02 2.595556e-02 2.833771e-02 2.980074e-02 3.139761e-02 3.197236e-02 3.264609e-02 3.223722e-02 3.190507e-02 3.047261e-02 2.910968e-02 2.666830e-02 2.430559e-02 2.091986e-02 1.763853e-02 1.341538e-02 9.338362e-03 4.417993e-03 -2.996269e-04 -5.753142e-03 -1.093377e-02 -1.674121e-02 -2.219353e-02 -2.816801e-02 -3.369443e-02 -3.964740e-02 -4.505006e-02 -5.079595e-02 -5.588142e-02 
-6.854510e-02 -7.373825e-02 -7.916414e-02 -8.359920e-02 -8.822787e-02 -9.172758e-02 -9.540046e-02 -9.780890e-02 -1.003890e-01 -1.015771e-01 -1.029543e-01 -1.028261e-01 -1.029231e-01 -1.014229e-01 -1.002013e-01 -9.731970e-02 -9.478533e-02 -9.056493e-02 -8.677162e-02 -8.130927e-02 -7.635967e-02 -6.980586e-02 -6.384912e-02 -5.640311e-02 -4.962876e-02 -4.152984e-02 -3.415862e-02 -2.567399e-02 -1.794636e-02 -9.357040e-03 -1.520623e-03 6.893272e-03 1.459601e-02 2.256921e-02 2.991199e-02 3.720608e-02 4.398788e-02 5.040072e-02 5.645241e-02 6.182452e-02 6.701306e-02 7.123097e-02 7.546123e-02 7.845805e-02 8.167252e-02 8.342599e-02 8.560280e-02 8.613139e-02 8.728101e-02 8.663879e-02 8.679993e-02 8.507060e-02 8.430590e-02 8.159683e-02 7.998850e-02 7.642512e-02 7.407114e-02 6.979209e-02 6.680299e-02 6.195625e-02 5.845264e-02 5.319261e-02 4.930341e-02 4.378891e-02 3.965014e-02 3.404295e-02 2.979676e-02 2.426034e-02 2.005395e-02 1.475200e-02 1.073604e-02 5.830216e-03 2.156014e-03 -2.197425e-03 -5.382104e-03 -9.037150e-03 -1.159413e-02 -1.442146e-02 -1.622998e-02 -1.812482e-02 -1.909081e-02 -1.998167e-02 -2.004767e-02 -1.990518e-02 -1.905969e-02 -1.790429e-02 -1.618920e-02 -1.409651e-02 -1.161096e-02 -8.713419e-03 -5.613028e-03 -2.096925e-03 1.412441e-03 5.315058e-03 8.988889e-03 1.301324e-02 1.658451e-02 2.045006e-02 2.364829e-02 2.707821e-02 2.964935e-02 3.239017e-02 3.411514e-02 3.595470e-02 3.666440e-02 3.744583e-02 3.703122e-02 3.666174e-02 3.507824e-02 3.353199e-02 3.079825e-02 2.811367e-02 2.430563e-02 2.057827e-02 1.581995e-02 1.119228e-02 5.644889e-03 2.949151e-04 -5.854247e-03 -1.172428e-02 -1.827193e-02 -2.444556e-02 -3.118088e-02 -3.743572e-02 -4.414696e-02 -5.026118e-02 -5.674055e-02 -6.249773e-02 
-7.575280e-02 -8.162235e-02 -8.772238e-02 -9.274668e-02 -9.795652e-02 -1.019370e-01 -1.060793e-01 -1.088403e-01 -1.117606e-01 -1.131551e-01 -1.147280e-01 -1.146454e-01 -1.147816e-01 -1.131554e-01 -1.118089e-01 -1.086249e-01 -1.057997e-01 -1.011026e-01 -9.685737e-02 -9.075425e-02 -8.520406e-02 -7.786395e-02 -7.117755e-02 -6.282614e-02 -5.521913e-02 -4.612857e-02 -3.785254e-02 -2.832735e-02 -1.965634e-02 -1.001674e-02 -1.232523e-03 8.202764e-03 1.682507e-02 2.575503e-02 3.395969e-02 4.211488e-02 4.967580e-02 5.682895e-02 6.355717e-02 6.953031e-02 7.527847e-02 7.994650e-02 8.461063e-02 8.790161e-02 9.142052e-02 9.331314e-02 9.566581e-02 9.618461e-02 9.738616e-02 9.659535e-02 9.669218e-02 9.468862e-02 9.375324e-02 9.065946e-02 8.878551e-02 8.474321e-02 8.204110e-02 7.720567e-02 7.379901e-02 6.833524e-02 6.435815e-02 5.843717e-02 5.403258e-02 4.782985e-02 4.314838e-02 3.684246e-02 3.204175e-02 2.581335e-02 2.105722e-02 1.508802e-02 1.054507e-02 5.015650e-03 8.565217e-04 -4.057044e-03 -7.664197e-03 -1.179553e-02 -1.469180e-02 -1.789145e-02 -1.993620e-02 -2.208071e-02 -2.316252e-02 -2.416485e-02 -2.421344e-02 -2.403370e-02 -2.303139e-02 -2.168655e-02 -1.967754e-02 -1.724850e-02 -1.434406e-02 -1.097844e-02 -7.356410e-03 -3.265778e-03 8.364141e-04 5.385569e-03 9.684518e-03 1.438590e-02 1.857135e-02 2.309899e-02 2.685655e-02 3.088798e-02 3.392287e-02 3.716284e-02 3.922187e-02 4.142384e-02 4.231313e-02 4.329591e-02 4.289251e-02 4.255053e-02 4.080705e-02 3.911333e-02 3.605579e-02 3.305809e-02 2.877825e-02 2.458991e-02 1.923371e-02 1.402108e-02 7.775449e-03 1.743974e-03 -5.176370e-03 -1.179544e-02 -1.915969e-02 -2.612091e-02 -3.369165e-02 -4.074466e-02 -4.828501e-02 -5.518139e-02 -6.245997e-02 -6.895828e-02 
-8.371646e-02 -9.029612e-02 -9.710950e-02 -1.027528e-01 -1.085822e-01 -1.130685e-01 -1.177163e-01 -1.208488e-01 -1.241415e-01 -1.257537e-01 -1.275484e-01 -1.275129e-01 -1.277058e-01 -1.259437e-01 -1.244790e-01 -1.209696e-01 -1.178476e-01 -1.126367e-01 -1.079202e-01 -1.011252e-01 -9.494148e-02 -8.675120e-02 -7.928974e-02 -6.995877e-02 -6.146323e-02 -5.130001e-02 -4.205561e-02 -3.140584e-02 -2.172331e-02 -1.095043e-02 -1.148780e-03 9.386251e-03 1.899653e-02 2.895401e-02 3.808553e-02 4.716285e-02 5.556291e-02 6.350649e-02 7.096531e-02 7.757842e-02 8.393388e-02 8.908026e-02 9.421964e-02 9.782340e-02 1.016822e-01 1.037245e-01 1.062833e-01 1.067965e-01 1.080758e-01 1.071361e-01 1.071910e-01 1.049100e-01 1.038235e-01 1.003404e-01 9.821831e-02 9.369223e-02 9.065760e-02 8.526145e-02 8.145093e-02 7.536678e-02 7.092760e-02 6.434347e-02 5.943170e-02 5.253970e-02 4.731935e-02 4.031476e-02 3.495749e-02 2.803815e-02 2.272292e-02 1.608843e-02 1.100050e-02 4.850395e-03 1.788835e-04 -5.290796e-03 -9.357480e-03 -1.395982e-02 -1.724126e-02 -2.080654e-02 -2.314046e-02 -2.552656e-02 -2.678147e-02 -2.788605e-02 -2.797540e-02 -2.774865e-02 -2.664481e-02 -2.510115e-02 -2.284698e-02 -2.007387e-02 -1.678969e-02 -1.295137e-02 -8.835284e-03 -4.170099e-03 5.095837e-04 5.699283e-03 1.061955e-02 1.598479e-02 2.079017e-02 2.595871e-02 3.028801e-02 3.489136e-02 3.840565e-02 4.210682e-02 4.451538e-02 4.703397e-02 4.811515e-02 4.924669e-02 4.886137e-02 4.848902e-02 4.658566e-02 4.468308e-02 4.129468e-02 3.792095e-02 3.315536e-02 2.844354e-02 2.246946e-02 1.661136e-02 9.642460e-03 2.872201e-03 -4.848356e-03 -1.226980e-02 -2.048280e-02 -2.828074e-02 -3.672152e-02 -4.461765e-02 -5.302363e-02 -6.074322e-02 -6.885903e-02 -7.613581e-02 
-9.158874e-02 -9.896105e-02 -1.065522e-01 -1.128915e-01 -1.193959e-01 -1.244579e-01 -1.296567e-01 -1.332215e-01 -1.369206e-01 -1.388001e-01 -1.408376e-01 -1.408850e-01 -1.411413e-01 -1.392628e-01 -1.376707e-01 -1.338370e-01 -1.303924e-01 -1.246495e-01 -1.194191e-01 -1.118947e-01 -1.050195e-01 -9.592378e-02 -8.761680e-02 -7.723609e-02 -6.777291e-02 -5.645622e-02 -4.616027e-02 -3.429956e-02 -2.352322e-02 -1.153048e-02 -6.346399e-04 1.108183e-02 2.174715e-02 3.280447e-02 4.291693e-02 5.297570e-02 6.225362e-02 7.103136e-02 7.924273e-02 8.652230e-02 9.348984e-02 9.912319e-02 1.047257e-01 1.086333e-01 1.128041e-01 1.149705e-01 1.176933e-01 1.181604e-01 1.194630e-01 1.183207e-01 1.182686e-01 1.156458e-01 1.143347e-01 1.103890e-01 1.079384e-01 1.028482e-01 9.939558e-02 9.335287e-02 8.904936e-02 8.225466e-02 7.726195e-02 6.992102e-02 6.440976e-02 5.673192e-02 5.088116e-02 4.307885e-02 3.707622e-02 2.936500e-02 2.340694e-02 1.600533e-02 1.029663e-02 3.424787e-03 -1.823496e-03 -7.946979e-03 -1.252223e-02 -1.768614e-02 -2.138215e-02 -2.539154e-02 -2.802004e-02 -3.070814e-02 -3.211371e-02 -3.335629e-02 -3.343327e-02 -3.316410e-02 -3.187365e-02 -3.009918e-02 -2.748383e-02 -2.429465e-02 -2.048733e-02 -1.606395e-02 -1.128921e-02 -5.900000e-03 -4.655785e-04 5.544273e-03 1.126554e-02 1.749409e-02 2.309067e-02 2.910682e-02 3.416027e-02 3.953616e-02 4.365458e-02 4.799891e-02 5.084781e-02 5.383599e-02 5.516279e-02 5.656013e-02 5.620962e-02 5.588476e-02 5.380423e-02 5.173194e-02 4.796652e-02 4.422052e-02 3.890065e-02 3.363905e-02 2.696295e-02 2.040934e-02 1.262382e-02 5.047369e-03 -3.570498e-03 -1.187332e-02 -2.103165e-02 -2.975202e-02 -3.915579e-02 -4.798366e-02 -5.734261e-02 -6.597404e-02 -7.500750e-02 -8.314921e-02 
-1.003536e-01 -1.085589e-01 -1.169763e-01 -1.240482e-01 -1.312760e-01 -1.369457e-01 -1.427420e-01 -1.467649e-01 -1.509128e-01 -1.530767e-01 -1.553925e-01 -1.555287e-01 -1.558733e-01 -1.538700e-01 -1.521618e-01 -1.479786e-01 -1.442064e-01 -1.378877e-01 -1.321206e-01 -1.238041e-01 -1.161967e-01 -1.061154e-01 -9.690549e-02 -8.538113e-02 -7.487914e-02 -6.230586e-02 -5.087746e-02 -3.769901e-02 -2.574256e-02 -1.242500e-02 -3.475614e-04 1.264851e-02 2.445380e-02 3.669844e-02 4.787149e-02 5.898589e-02 6.921418e-02 7.888558e-02 8.791386e-02 9.590459e-02 1.035400e-01 1.096912e-01 1.158045e-01 1.200344e-01 1.245574e-01 1.268564e-01 1.297768e-01 1.301987e-01 1.315530e-01 1.302041e-01 1.300695e-01 1.270977e-01 1.255837e-01 1.211673e-01 1.184080e-01 1.127461e-01 1.088939e-01 1.021983e-01 9.741883e-02 8.990897e-02 8.437791e-02 7.627735e-02 7.017876e-02 6.171387e-02 5.524014e-02 4.664024e-02 3.999285e-02 3.149099e-02 2.488163e-02 1.671509e-02 1.036604e-02 2.775645e-03 -3.081611e-03 -9.854454e-03 -1.498362e-02 -2.070304e-02 -2.487131e-02 -2.931677e-02 -3.230771e-02 -3.528760e-02 -3.691816e-02 -3.828651e-02 -3.842712e-02 -3.810193e-02 -3.669718e-02 -3.467812e-02 -3.176489e-02 -2.814738e-02 -2.386685e-02 -1.884965e-02 -1.344991e-02 -7.333517e-03 -1.160789e-03 5.664802e-03 1.218674e-02 1.926502e-02 2.566559e-02 3.250550e-02 3.830475e-02 4.441846e-02 4.916657e-02 5.410846e-02 5.742224e-02 6.082421e-02 6.241599e-02 6.401443e-02 6.370991e-02 6.336096e-02 6.110471e-02 5.878671e-02 5.463579e-02 5.043988e-02 4.454809e-02 3.866008e-02 3.125667e-02 2.393411e-02 1.530067e-02 6.849310e-03 -2.701710e-03 -1.194909e-02 -2.209198e-02 -3.179236e-02 -4.220098e-02 -5.201296e-02 -6.236895e-02 -7.196003e-02 -8.195711e-02 -9.100767e-02 
-1.090441e-01 -1.181827e-01 -1.275031e-01 -1.354016e-01 -1.434194e-01 -1.497826e-01 -1.562321e-01 -1.607888e-01 -1.654283e-01 -1.679394e-01 -1.705613e-01 -1.708327e-01 -1.712760e-01 -1.691744e-01 -1.673407e-01 -1.628116e-01 -1.586807e-01 -1.517645e-01 -1.454077e-01 -1.362518e-01 -1.278387e-01 -1.167009e-01 -1.064976e-01 -9.373868e-02 -8.209578e-02 -6.816091e-02 -5.549261e-02 -4.088430e-02 -2.764163e-02 -1.288725e-02 4.702739e-04 1.485105e-02 2.788182e-02 4.140618e-02 5.370822e-02 6.595342e-02 7.718051e-02 8.780035e-02 9.767245e-02 1.064069e-01 1.147153e-01 1.213940e-01 1.280021e-01 1.325420e-01 1.373816e-01 1.397803e-01 1.428456e-01 1.431710e-01 1.445095e-01 1.428873e-01 1.425905e-01 1.391905e-01 1.373842e-01 1.324079e-01 1.292430e-01 1.229125e-01 1.185580e-01 1.111072e-01 1.057448e-01 9.741313e-02 9.123386e-02 8.226341e-02 7.546620e-02 6.610067e-02 5.889284e-02 4.937849e-02 4.197740e-02 3.256485e-02 2.520000e-02 1.614585e-02 9.060327e-03 6.274756e-04 -5.922625e-03 -1.346726e-02 -1.921692e-02 -2.560844e-02 -3.029255e-02 -3.527860e-02 -3.864646e-02 -4.200261e-02 -4.383784e-02 -4.538717e-02 -4.553167e-02 -4.516693e-02 -4.354619e-02 -4.125184e-02 -3.789759e-02 -3.376811e-02 -2.883382e-02 -2.308460e-02 -1.684983e-02 -9.817100e-03 -2.677957e-03 5.194350e-03 1.274924e-02 2.093592e-02 2.836192e-02 3.629438e-02 4.303556e-02 5.014716e-02 5.568359e-02 6.145679e-02 6.534812e-02 6.935713e-02 7.127661e-02 7.321977e-02 7.297479e-02 7.269222e-02 7.022948e-02 6.770483e-02 6.310113e-02 5.844873e-02 5.189065e-02 4.533226e-02 3.708958e-02 2.892596e-02 1.932364e-02 9.905902e-03 -7.012090e-04 -1.099638e-02 -2.224364e-02 -3.303303e-02 -4.455988e-02 -5.546636e-02 -6.692444e-02 -7.758399e-02 -8.864062e-02 -9.870528e-02 