# vtk DataFile Version 2.0
Comment goes here
ASCII

DATASET STRUCTURED_POINTS
FIELD FieldData 1
TIME 1 1 double
0.11500000
DIMENSIONS    128   128   1

ORIGIN    0.000   0.000   0.000
SPACING   0.039062 0.039062   1.000

POINT_DATA   16384
SCALARS uY double
LOOKUP_TABLE default

-1.741978e-14 -1.277763e-14 -1.100432e-14 -6.063001e-15 -4.685159e-15 -6.743058e-17 1.874985e-15 6.748574e-15 8.372736e-15 1.388099e-14 1.538320e-14 2.099866e-14 2.212055e-14 2.740508e-14 2.791375e-14 3.258331e-14 3.305419e-14 3.753121e-14 3.692580e-14 4.047952e-14 3.933555e-14 4.301332e-14 4.231430e-14 4.647610e-14 4.582747e-14 5.057157e-14 4.973493e-14 5.411837e-14 5.350294e-14 5.869799e-14 5.941986e-14 6.438501e-14 6.457713e-14 6.987618e-14 6.991186e-14 7.495738e-14 7.598517e-14 8.014719e-14 7.954553e-14 8.411670e-14 8.513138e-14 8.953554e-14 9.232628e-14 9.762204e-14 9.945083e-14 1.039411e-13 1.048039e-13 1.084036e-13 1.090485e-13 1.097275e-13 1.116620e-13 1.141873e-13 1.156119e-13 1.168088e-13 1.171666e-13 1.195899e-13 1.185661e-13 1.192110e-13 1.200370e-13 1.199068e-13 1.193696e-13 1.182256e-13 1.147853e-13 1.132282e-13 1.124436e-13 1.083829e-13 1.041152e-13 9.944784e-14 9.691579e-14 9.233874e-14 8.673272e-14 8.349742e-14 7.728911e-14 7.332202e-14 6.905623e-14 6.364929e-14 5.940246e-14 5.599290e-14 5.138779e-14 4.769986e-14 4.221078e-14 3.772523e-14 3.163662e-14 2.710040e-14 2.079142e-14 1.728301e-14 1.314788e-14 8.867807e-15 5.387537e-15 2.573427e-15 -2.040293e-15 -4.690454e-15 -7.194049e-15 -1.051777e-14 -1.330069e-14 -1.610528e-14 -1.853374e-14 -2.109795e-14 -2.531874e-14 -2.668780e-14 -3.049729e-14 -3.620918e-14 -3.750148e-14 -3.684747e-14 -3.922449e-14 -3.881325e-14 -4.013645e-14 -4.095613e-14 -4.202751e-14 -4.331424e-14 -4.426118e-14 -4.323496e-14 -4.381363e-14 -4.260412e-14 -4.281245e-14 -4.042840e-14 -4.069190e-14 -4.113607e-14 -3.980991e-14 -3.764647e-14 -3.726610e-14 -3.487968e-14 -3.406353e-14 -3.056477e-14 -2.878184e-14 -2.589052e-14 -2.362369e-14 -1.879457e-14 
-5.299467e-02 -5.333944e-02 -5.355045e-02 -5.362135e-02 -5.356816e-02 -5.339033e-02 -5.309820e-02 -5.269640e-02 -5.218953e-02 -5.158722e-02 -5.088804e-02 -5.010672e-02 -4.923545e-02 -4.829440e-02 -4.726893e-02 -4.618519e-02 -4.502114e-02 -4.380961e-02 -4.252059e-02 -4.119431e-02 -3.979222e-02 -3.836271e-02 -3.685812e-02 -3.533566e-02 -3.373806e-02 -3.213202e-02 -3.045016e-02 -2.876922e-02 -2.701127e-02 -2.526357e-02 -2.343724e-02 -2.163055e-02 -1.974319e-02 -1.788489e-02 -1.594355e-02 -1.404072e-02 -1.205212e-02 -1.011156e-02 -8.082192e-03 -6.110410e-03 -4.046642e-03 -2.049951e-03 4.185543e-05 2.057236e-03 4.170495e-03 6.198267e-03 8.325899e-03 1.035946e-02 1.249357e-02 1.452572e-02 1.665725e-02 1.867987e-02 2.079826e-02 2.280198e-02 2.489486e-02 2.686868e-02 2.892161e-02 3.085263e-02 3.284897e-02 3.472208e-02 3.664290e-02 3.844068e-02 4.026482e-02 4.196744e-02 4.367168e-02 4.525697e-02 4.681631e-02 4.825996e-02 4.964799e-02 5.092388e-02 5.211319e-02 5.319381e-02 5.415653e-02 5.501358e-02 5.572193e-02 5.632695e-02 5.675389e-02 5.707905e-02 5.719897e-02 5.721794e-02 5.700751e-02 5.669653e-02 5.613566e-02 5.547462e-02 5.454757e-02 5.352141e-02 5.221808e-02 5.081813e-02 4.913548e-02 4.736100e-02 4.530443e-02 4.316396e-02 4.074864e-02 3.826125e-02 3.551313e-02 3.270912e-02 2.966546e-02 2.658657e-02 2.329574e-02 1.999454e-02 1.651499e-02 1.305343e-02 9.451884e-03 5.898965e-03 2.247687e-03 -1.323478e-03 -4.949950e-03 -8.465625e-03 -1.199406e-02 -1.538346e-02 -1.874547e-02 -2.194412e-02 -2.507931e-02 -2.803183e-02 -3.089025e-02 -3.355240e-02 -3.609605e-02 -3.843581e-02 -4.063926e-02 -4.263693e-02 -4.448699e-02 -4.613455e-02 -4.762915e-02 -4.892888e-02 -5.007541e-02 -5.103809e-02 -5.185142e-02 -5.249430e-02 
-1.060205e-01 -1.066988e-01 -1.071177e-01 -1.072492e-01 -1.071403e-01 -1.067757e-01 -1.061896e-01 -1.053785e-01 -1.043637e-01 -1.031532e-01 -1.017545e-01 -1.001875e-01 -9.844533e-02 -9.656053e-02 -9.451046e-02 -9.234182e-02 -9.001498e-02 -8.759224e-02 -8.501567e-02 -8.236484e-02 -7.956222e-02 -7.670622e-02 -7.369851e-02 -7.065781e-02 -6.746395e-02 -6.425717e-02 -6.089458e-02 -5.753893e-02 -5.402393e-02 -5.053559e-02 -4.688362e-02 -4.327789e-02 -3.950369e-02 -3.579517e-02 -3.191282e-02 -2.811541e-02 -2.413841e-02 -2.026540e-02 -1.620673e-02 -1.227083e-02 -8.143178e-03 -4.156657e-03 2.732922e-05 4.052372e-03 8.279632e-03 1.233093e-02 1.658744e-02 2.065207e-02 2.492216e-02 2.898597e-02 3.325166e-02 3.729854e-02 4.153879e-02 4.555002e-02 4.974014e-02 5.369366e-02 5.780478e-02 6.167457e-02 6.567331e-02 6.942890e-02 7.327727e-02 7.688340e-02 8.053891e-02 8.395547e-02 8.737148e-02 9.055362e-02 9.367990e-02 9.657849e-02 9.936196e-02 1.019242e-01 1.043099e-01 1.064804e-01 1.084122e-01 1.101339e-01 1.115563e-01 1.127720e-01 1.136305e-01 1.142843e-01 1.145278e-01 1.145668e-01 1.141485e-01 1.135252e-01 1.124048e-01 1.110789e-01 1.092249e-01 1.071665e-01 1.045586e-01 1.017504e-01 9.838245e-02 9.482317e-02 9.070594e-02 8.641302e-02 8.157680e-02 7.658869e-02 7.108543e-02 6.546320e-02 5.936751e-02 5.319518e-02 4.660400e-02 3.998729e-02 3.301790e-02 2.608134e-02 1.886759e-02 1.174984e-02 4.436748e-03 -2.715380e-03 -9.978199e-03 -1.701674e-02 -2.408233e-02 -3.086536e-02 -3.759655e-02 -4.399494e-02 -5.027067e-02 -5.617370e-02 -6.189392e-02 -6.721332e-02 -7.230210e-02 -7.697417e-02 -8.138084e-02 -8.536671e-02 -8.906518e-02 -9.234935e-02 -9.533585e-02 -9.792348e-02 -1.002132e-01 -1.021264e-01 -1.037495e-01 -1.050233e-01 
-1.595715e-01 -1.605816e-01 -1.611894e-01 -1.613770e-01 -1.611922e-01 -1.606339e-01 -1.597333e-01 -1.585045e-01 -1.569614e-01 -1.551330e-01 -1.530152e-01 -1.506519e-01 -1.480203e-01 -1.451801e-01 -1.420880e-01 -1.388219e-01 -1.353162e-01 -1.316685e-01 -1.277895e-01 -1.237992e-01 -1.195824e-01 -1.152836e-01 -1.107603e-01 -1.061836e-01 -1.013820e-01 -9.655525e-02 -9.150151e-02 -8.645052e-02 -8.116894e-02 -7.591810e-02 -7.043177e-02 -6.500426e-02 -5.933518e-02 -5.375318e-02 -4.792239e-02 -4.220712e-02 -3.623480e-02 -3.040657e-02 -2.431211e-02 -1.839042e-02 -1.219274e-02 -6.196412e-03 8.559652e-05 6.138070e-03 1.248493e-02 1.857488e-02 2.496567e-02 3.107357e-02 3.748494e-02 4.358952e-02 4.999465e-02 5.607191e-02 6.243942e-02 6.846157e-02 7.475461e-02 8.068899e-02 8.686441e-02 9.267253e-02 9.868046e-02 1.043172e-01 1.101008e-01 1.155140e-01 1.210096e-01 1.261396e-01 1.312773e-01 1.360575e-01 1.407619e-01 1.451190e-01 1.493105e-01 1.531656e-01 1.567615e-01 1.600316e-01 1.629476e-01 1.655472e-01 1.676993e-01 1.695422e-01 1.708486e-01 1.718504e-01 1.722335e-01 1.723142e-01 1.717030e-01 1.707901e-01 1.691232e-01 1.671552e-01 1.643841e-01 1.613142e-01 1.574073e-01 1.532082e-01 1.481548e-01 1.428228e-01 1.366379e-01 1.301975e-01 1.229255e-01 1.154330e-01 1.071514e-01 9.869765e-02 8.951827e-02 8.022906e-02 7.029804e-02 6.033253e-02 4.982716e-02 3.937346e-02 2.849655e-02 1.776470e-02 6.736314e-03 -4.050907e-03 -1.500356e-02 -2.562137e-02 -3.627505e-02 -4.650774e-02 -5.665416e-02 -6.630547e-02 -7.576100e-02 -8.466282e-02 -9.327603e-02 -1.012945e-01 -1.089509e-01 -1.159898e-01 -1.226134e-01 -1.286144e-01 -1.341666e-01 -1.391071e-01 -1.435834e-01 -1.474718e-01 -1.508965e-01 -1.537673e-01 -1.561871e-01 -1.580940e-01 
-2.132150e-01 -2.145228e-01 -2.153099e-01 -2.155225e-01 -2.152540e-01 -2.144750e-01 -2.132543e-01 -2.115852e-01 -2.095107e-01 -2.070466e-01 -2.042088e-01 -2.010364e-01 -1.975163e-01 -1.937127e-01 -1.895815e-01 -1.852145e-01 -1.805337e-01 -1.756622e-01 -1.704855e-01 -1.651609e-01 -1.595347e-01 -1.538022e-01 -1.477679e-01 -1.416679e-01 -1.352627e-01 -1.288319e-01 -1.220905e-01 -1.153630e-01 -1.083176e-01 -1.013255e-01 -9.400686e-02 -8.678080e-02 -7.921830e-02 -7.178731e-02 -6.400911e-02 -5.640098e-02 -4.843396e-02 -4.067518e-02 -3.254516e-02 -2.466100e-02 -1.639303e-02 -8.407829e-03 -2.678516e-05 8.035635e-03 1.650418e-02 2.461977e-02 3.314842e-02 4.129192e-02 4.985006e-02 5.799380e-02 6.654616e-02 7.465867e-02 8.316382e-02 9.120835e-02 9.961740e-02 1.075505e-01 1.158060e-01 1.235760e-01 1.316115e-01 1.391579e-01 1.468970e-01 1.541494e-01 1.615071e-01 1.683850e-01 1.752672e-01 1.816806e-01 1.879863e-01 1.938362e-01 1.994582e-01 2.046381e-01 2.094654e-01 2.138634e-01 2.177828e-01 2.212835e-01 2.241824e-01 2.266697e-01 2.284381e-01 2.297984e-01 2.303322e-01 2.304578e-01 2.296615e-01 2.284550e-01 2.262457e-01 2.236240e-01 2.199363e-01 2.158365e-01 2.106269e-01 2.050117e-01 1.982651e-01 1.911291e-01 1.828643e-01 1.742400e-01 1.645155e-01 1.544783e-01 1.433971e-01 1.320687e-01 1.197803e-01 1.073299e-01 9.403023e-02 8.067236e-02 6.659968e-02 5.258792e-02 3.801534e-02 2.363308e-02 8.857270e-03 -5.594936e-03 -2.026754e-02 -3.448654e-02 -4.875489e-02 -6.245010e-02 -7.603352e-02 -8.894103e-02 -1.015925e-01 -1.134869e-01 -1.250032e-01 -1.357057e-01 -1.459339e-01 -1.553170e-01 -1.641564e-01 -1.721436e-01 -1.795442e-01 -1.861075e-01 -1.920652e-01 -1.972184e-01 -2.017676e-01 -2.055590e-01 -2.087643e-01 -2.112681e-01 
-2.679149e-01 -2.695160e-01 -2.704437e-01 -2.706711e-01 -2.702777e-01 -2.692638e-01 -2.676812e-01 -2.655545e-01 -2.629075e-01 -2.597881e-01 -2.561910e-01 -2.521879e-01 -2.477422e-01 -2.429520e-01 -2.377467e-01 -2.322538e-01 -2.263658e-01 -2.202432e-01 -2.137390e-01 -2.070504e-01 -1.999876e-01 -1.927889e-01 -1.852186e-01 -1.775598e-01 -1.695283e-01 -1.614549e-01 -1.530049e-01 -1.445595e-01 -1.357313e-01 -1.269541e-01 -1.177857e-01 -1.087152e-01 -9.924334e-02 -8.991637e-02 -8.017597e-02 -7.062787e-02 -6.065239e-02 -5.091693e-02 -4.073842e-02 -3.084789e-02 -2.049741e-02 -1.048284e-02 8.871882e-06 1.011721e-02 2.071859e-02 3.089036e-02 4.156762e-02 5.177121e-02 6.248663e-02 7.268770e-02 8.339773e-02 9.355746e-02 1.042109e-01 1.142841e-01 1.248204e-01 1.347538e-01 1.451015e-01 1.548318e-01 1.649081e-01 1.743607e-01 1.840706e-01 1.931587e-01 2.023956e-01 2.110197e-01 2.196662e-01 2.277145e-01 2.356438e-01 2.429930e-01 2.500708e-01 2.565881e-01 2.626747e-01 2.682200e-01 2.731732e-01 2.776014e-01 2.812792e-01 2.844443e-01 2.867079e-01 2.884662e-01 2.891835e-01 2.893983e-01 2.884478e-01 2.869945e-01 2.842701e-01 2.810416e-01 2.764582e-01 2.713721e-01 2.648721e-01 2.578775e-01 2.494384e-01 2.405244e-01 2.301665e-01 2.193697e-01 2.071637e-01 1.945754e-01 1.806482e-01 1.664189e-01 1.509576e-01 1.352990e-01 1.185504e-01 1.017326e-01 8.399848e-02 6.634266e-02 4.797024e-02 2.983676e-02 1.120400e-02 -7.024035e-03 -2.552612e-02 -4.346178e-02 -6.144898e-02 -7.872122e-02 -9.583562e-02 -1.121077e-01 -1.280350e-01 -1.430200e-01 -1.575024e-01 -1.709736e-01 -1.838185e-01 -1.956151e-01 -2.066971e-01 -2.167242e-01 -2.259831e-01 -2.342077e-01 -2.416416e-01 -2.480844e-01 -2.537405e-01 -2.584656e-01 -2.624289e-01 -2.655330e-01 
-3.227655e-01 -3.246018e-01 -3.256532e-01 -3.258430e-01 -3.253113e-01 -3.240168e-01 -3.220629e-01 -3.194406e-01 -3.162159e-01 -3.124115e-01 -3.080537e-01 -3.031985e-01 -2.978295e-01 -2.920394e-01 -2.857653e-01 -2.791410e-01 -2.720529e-01 -2.646813e-01 -2.568577e-01 -2.488142e-01 -2.403231e-01 -2.316738e-01 -2.225756e-01 -2.133795e-01 -2.037286e-01 -1.940398e-01 -1.838870e-01 -1.737556e-01 -1.631490e-01 -1.526228e-01 -1.416080e-01 -1.307324e-01 -1.193535e-01 -1.081722e-01 -9.647123e-02 -8.502581e-02 -7.304293e-02 -6.137297e-02 -4.914651e-02 -3.728964e-02 -2.485644e-02 -1.284859e-02 -2.448952e-04 1.187910e-02 2.461634e-02 3.682160e-02 4.965297e-02 6.190311e-02 7.478453e-02 8.703976e-02 9.992012e-02 1.121351e-01 1.249539e-01 1.370752e-01 1.497605e-01 1.617246e-01 1.741911e-01 1.859219e-01 1.980700e-01 2.094776e-01 2.211928e-01 2.321717e-01 2.433253e-01 2.537546e-01 2.642043e-01 2.739478e-01 2.835400e-01 2.924475e-01 3.010192e-01 3.089289e-01 3.163109e-01 3.230517e-01 3.290716e-01 3.344671e-01 3.389526e-01 3.428249e-01 3.456077e-01 3.477820e-01 3.487015e-01 3.490113e-01 3.479197e-01 3.462127e-01 3.429803e-01 3.391257e-01 3.336475e-01 3.275435e-01 3.197474e-01 3.113306e-01 3.011863e-01 2.904412e-01 2.779701e-01 2.649391e-01 2.502234e-01 2.350153e-01 2.182064e-01 2.010027e-01 1.823255e-01 1.633829e-01 1.431362e-01 1.227837e-01 1.013345e-01 7.996427e-02 5.773612e-02 3.578886e-02 1.324383e-02 -8.811563e-03 -3.119501e-02 -5.288508e-02 -7.463682e-02 -9.550814e-02 -1.161908e-01 -1.358329e-01 -1.550633e-01 -1.731277e-01 -1.905931e-01 -2.068065e-01 -2.222746e-01 -2.364450e-01 -2.497669e-01 -2.617838e-01 -2.728907e-01 -2.827191e-01 -2.916136e-01 -2.992840e-01 -3.060281e-01 -3.116236e-01 -3.163252e-01 -3.199676e-01 
-3.792158e-01 -3.812784e-01 -3.823926e-01 -3.825277e-01 -3.817939e-01 -3.801957e-01 -3.778063e-01 -3.746615e-01 -3.707964e-01 -3.662771e-01 -3.610988e-01 -3.553592e-01 -3.490107e-01 -3.421861e-01 -3.347907e-01 -3.269978e-01 -3.186612e-01 -3.100002e-01 -3.008128e-01 -2.913702e-01 -2.814102e-01 -2.712617e-01 -2.605983e-01 -2.498117e-01 -2.385076e-01 -2.271451e-01 -2.152588e-01 -2.033787e-01 -1.909655e-01 -1.786235e-01 -1.657366e-01 -1.529861e-01 -1.396765e-01 -1.265691e-01 -1.128856e-01 -9.947079e-02 -8.546006e-02 -7.178494e-02 -5.749129e-02 -4.360074e-02 -2.906663e-02 -1.500337e-02 -2.703757e-04 1.392436e-02 2.881405e-02 4.309940e-02 5.810084e-02 7.243461e-02 8.749754e-02 1.018340e-01 1.169001e-01 1.311875e-01 1.461873e-01 1.603650e-01 1.752156e-01 1.892112e-01 2.038140e-01 2.175410e-01 2.317805e-01 2.451357e-01 2.588785e-01 2.717408e-01 2.848365e-01 2.970663e-01 3.093486e-01 3.207879e-01 3.320765e-01 3.425507e-01 3.526543e-01 3.619741e-01 3.706938e-01 3.786589e-01 3.857916e-01 3.921944e-01 3.975369e-01 4.021675e-01 4.055206e-01 4.081719e-01 4.093449e-01 4.098185e-01 4.086348e-01 4.067480e-01 4.030512e-01 3.986448e-01 3.923065e-01 3.852547e-01 3.761841e-01 3.664049e-01 3.545597e-01 3.420270e-01 3.274254e-01 3.121811e-01 2.949138e-01 2.770792e-01 2.573192e-01 2.371030e-01 2.151127e-01 1.928147e-01 1.689465e-01 1.449551e-01 1.196451e-01 9.442694e-02 6.818088e-02 4.226275e-02 1.563457e-02 -1.042118e-02 -3.685694e-02 -6.248149e-02 -8.816008e-02 -1.128086e-01 -1.372053e-01 -1.603853e-01 -1.830418e-01 -2.043367e-01 -2.248810e-01 -2.439658e-01 -2.621244e-01 -2.787734e-01 -2.943740e-01 -3.084604e-01 -3.214276e-01 -3.329159e-01 -3.432600e-01 -3.521929e-01 -3.599953e-01 -3.664781e-01 -3.718734e-01 -3.760565e-01 
-4.358691e-01 -4.380742e-01 -4.392261e-01 -4.392311e-01 -4.382753e-01 -4.363085e-01 -4.334700e-01 -4.297489e-01 -4.252363e-01 -4.199602e-01 -4.139603e-01 -4.073065e-01 -3.999826e-01 -3.921053e-01 -3.835971e-01 -3.746285e-01 -3.650546e-01 -3.551077e-01 -3.445691e-01 -3.337407e-01 -3.223245e-01 -3.106993e-01 -2.984825e-01 -2.861365e-01 -2.731893e-01 -2.601920e-01 -2.465801e-01 -2.329971e-01 -2.187834e-01 -2.046774e-01 -1.899226e-01 -1.753539e-01 -1.601164e-01 -1.451431e-01 -1.294792e-01 -1.141567e-01 -9.811960e-02 -8.250070e-02 -6.614086e-02 -5.027517e-02 -3.364045e-02 -1.757486e-02 -7.115461e-04 1.550911e-02 3.255449e-02 4.888601e-02 6.606415e-02 8.246089e-02 9.971659e-02 1.161288e-01 1.333975e-01 1.497683e-01 1.669726e-01 1.832344e-01 2.002809e-01 2.163520e-01 2.331289e-01 2.489106e-01 2.652856e-01 2.806596e-01 2.964796e-01 3.113060e-01 3.263976e-01 3.405144e-01 3.546853e-01 3.679089e-01 3.809505e-01 3.930775e-01 4.047682e-01 4.155784e-01 4.256877e-01 4.349477e-01 4.432404e-01 4.507086e-01 4.569492e-01 4.623812e-01 4.663388e-01 4.694934e-01 4.709467e-01 4.715926e-01 4.703356e-01 4.682590e-01 4.641083e-01 4.591224e-01 4.519258e-01 4.438810e-01 4.335285e-01 4.223255e-01 4.087620e-01 3.943655e-01 3.776055e-01 3.600590e-01 3.402007e-01 3.196402e-01 2.968785e-01 2.735430e-01 2.481780e-01 2.224144e-01 1.948535e-01 1.671141e-01 1.378648e-01 1.086956e-01 7.834963e-02 4.836862e-02 1.757583e-02 -1.255615e-02 -4.312060e-02 -7.273517e-02 -1.024077e-01 -1.308656e-01 -1.590305e-01 -1.857559e-01 -2.118776e-01 -2.363858e-01 -2.600323e-01 -2.819486e-01 -3.028054e-01 -3.218737e-01 -3.397470e-01 -3.558285e-01 -3.706389e-01 -3.837019e-01 -3.954709e-01 -4.055754e-01 -4.144068e-01 -4.216845e-01 -4.277432e-01 -4.323773e-01 
-4.946826e-01 -4.970138e-01 -4.981173e-01 -4.979655e-01 -4.966987e-01 -4.943299e-01 -4.909537e-01 -4.866187e-01 -4.813729e-01 -4.752993e-01 -4.683968e-01 -4.607857e-01 -4.524107e-01 -4.434350e-01 -4.337440e-01 -4.235509e-01 -4.126754e-01 -4.013894e-01 -3.894407e-01 -3.771683e-01 -3.642420e-01 -3.510760e-01 -3.372566e-01 -3.232802e-01 -3.086451e-01 -2.939352e-01 -2.785571e-01 -2.631868e-01 -2.471355e-01 -2.311752e-01 -2.145186e-01 -1.980366e-01 -1.808403e-01 -1.639030e-01 -1.462298e-01 -1.289009e-01 -1.108105e-01 -9.315065e-02 -7.469930e-02 -5.676576e-02 -3.800640e-02 -1.985296e-02 -8.364288e-04 1.748585e-02 3.670880e-02 5.515019e-02 7.452602e-02 9.303587e-02 1.125046e-01 1.310284e-01 1.505197e-01 1.689955e-01 1.884244e-01 2.067789e-01 2.260422e-01 2.441868e-01 2.631601e-01 2.809868e-01 2.995224e-01 3.169012e-01 3.348271e-01 3.516033e-01 3.687241e-01 3.847175e-01 4.008156e-01 4.158207e-01 4.306599e-01 4.444480e-01 4.577767e-01 4.700991e-01 4.816551e-01 4.922473e-01 5.017628e-01 5.103501e-01 5.175565e-01 5.238598e-01 5.284930e-01 5.322356e-01 5.340411e-01 5.349560e-01 5.336956e-01 5.315341e-01 5.269932e-01 5.215347e-01 5.135323e-01 5.045967e-01 4.929977e-01 4.804599e-01 4.651901e-01 4.489968e-01 4.300606e-01 4.102478e-01 3.877456e-01 3.644562e-01 3.386008e-01 3.120979e-01 2.832260e-01 2.539005e-01 2.224762e-01 1.908450e-01 1.574529e-01 1.241458e-01 8.947206e-02 5.520706e-02 2.000878e-02 -1.444345e-02 -4.937763e-02 -8.323592e-02 -1.171306e-01 -1.496479e-01 -1.817850e-01 -2.122898e-01 -2.420471e-01 -2.699770e-01 -2.968567e-01 -3.217808e-01 -3.454251e-01 -3.670535e-01 -3.872478e-01 -4.054293e-01 -4.220940e-01 -4.368033e-01 -4.499762e-01 -4.612941e-01 -4.711078e-01 -4.791977e-01 -4.858541e-01 -4.909371e-01 
-5.537419e-01 -5.560871e-01 -5.571072e-01 -5.566987e-01 -5.550939e-01 -5.522374e-01 -5.483056e-01 -5.432864e-01 -5.372987e-01 -5.303737e-01 -5.225684e-01 -5.139619e-01 -5.045432e-01 -4.944465e-01 -4.835855e-01 -4.721598e-01 -4.599993e-01 -4.473800e-01 -4.340394e-01 -4.203414e-01 -4.059230e-01 -3.912463e-01 -3.758408e-01 -3.602751e-01 -3.439658e-01 -3.275945e-01 -3.104606e-01 -2.933634e-01 -2.754820e-01 -2.577359e-01 -2.391824e-01 -2.208625e-01 -2.017104e-01 -1.828894e-01 -1.632090e-01 -1.439567e-01 -1.238149e-01 -1.041971e-01 -8.365599e-02 -6.373430e-02 -4.285169e-02 -2.268320e-02 -1.513680e-03 1.884817e-02 4.025100e-02 6.075470e-02 8.233476e-02 1.029281e-01 1.246225e-01 1.452489e-01 1.669832e-01 1.875775e-01 2.092604e-01 2.297442e-01 2.512637e-01 2.715405e-01 2.927596e-01 3.127106e-01 3.334653e-01 3.529454e-01 3.730436e-01 3.918791e-01 4.111011e-01 4.290887e-01 4.471894e-01 4.640964e-01 4.808090e-01 4.963757e-01 5.114161e-01 5.253600e-01 5.384320e-01 5.504525e-01 5.612536e-01 5.710387e-01 5.792655e-01 5.864983e-01 5.918522e-01 5.962183e-01 5.984113e-01 5.996067e-01 5.983678e-01 5.961084e-01 5.911916e-01 5.852236e-01 5.764186e-01 5.665322e-01 5.536782e-01 5.397240e-01 5.227269e-01 5.046353e-01 4.834879e-01 4.612900e-01 4.360938e-01 4.099422e-01 3.809273e-01 3.511132e-01 3.186529e-01 2.856162e-01 2.502330e-01 2.145613e-01 1.769200e-01 1.393339e-01 1.002200e-01 6.154467e-02 2.182883e-02 -1.704805e-02 -5.645713e-02 -9.463546e-02 -1.328442e-01 -1.694647e-01 -2.056476e-01 -2.399410e-01 -2.733859e-01 -3.047126e-01 -3.348545e-01 -3.627300e-01 -3.891689e-01 -4.132744e-01 -4.357780e-01 -4.559558e-01 -4.744480e-01 -4.906860e-01 -5.052256e-01 -5.176324e-01 -5.283856e-01 -5.371624e-01 -5.443725e-01 -5.497835e-01 
-6.155437e-01 -6.178747e-01 -6.186953e-01 -6.179907e-01 -6.159301e-01 -6.125397e-01 -6.079370e-01 -6.021837e-01 -5.953442e-01 -5.875156e-01 -5.787047e-01 -5.690489e-01 -5.584911e-01 -5.472173e-01 -5.350988e-01 -5.223809e-01 -5.088553e-01 -4.948380e-01 -4.800323e-01 -4.648374e-01 -4.488603e-01 -4.325936e-01 -4.155411e-01 -3.982980e-01 -3.802590e-01 -3.621288e-01 -3.431889e-01 -3.242580e-01 -3.045008e-01 -2.848538e-01 -2.643619e-01 -2.440821e-01 -2.229361e-01 -2.021050e-01 -1.803823e-01 -1.590785e-01 -1.368522e-01 -1.151501e-01 -9.248801e-02 -7.045734e-02 -4.742177e-02 -2.512672e-02 -1.775835e-03 2.072409e-02 4.433388e-02 6.698229e-02 9.079243e-02 1.135332e-01 1.374780e-01 1.602514e-01 1.842525e-01 2.069902e-01 2.309511e-01 2.535712e-01 2.773713e-01 2.997725e-01 3.232637e-01 3.453203e-01 3.683236e-01 3.898805e-01 4.121850e-01 4.330551e-01 4.544182e-01 4.743804e-01 4.945308e-01 5.133302e-01 5.319715e-01 5.493223e-01 5.661381e-01 5.817274e-01 5.963878e-01 6.098817e-01 6.220489e-01 6.330994e-01 6.424342e-01 6.506865e-01 6.568543e-01 6.619549e-01 6.646313e-01 6.662360e-01 6.651136e-01 6.628976e-01 6.576938e-01 6.513629e-01 6.418316e-01 6.311370e-01 6.170835e-01 6.018403e-01 5.831416e-01 5.632513e-01 5.398798e-01 5.153558e-01 4.874056e-01 4.583983e-01 4.261105e-01 3.929302e-01 3.567123e-01 3.198425e-01 2.802773e-01 2.403766e-01 1.982160e-01 1.561024e-01 1.122434e-01 6.886103e-02 2.430390e-02 -1.932588e-02 -6.353391e-02 -1.063730e-01 -1.492017e-01 -1.902594e-01 -2.307589e-01 -2.691510e-01 -3.065069e-01 -3.415029e-01 -3.750754e-01 -4.061288e-01 -4.354729e-01 -4.622321e-01 -4.870997e-01 -5.094015e-01 -5.297258e-01 -5.475751e-01 -5.634441e-01 -5.769837e-01 -5.886064e-01 -5.980825e-01 -6.057530e-01 -6.114807e-01 
-6.776197e-01 -6.797928e-01 -6.803671e-01 -6.792396e-01 -6.766878e-01 -6.726560e-01 -6.673596e-01 -6.607855e-01 -6.530842e-01 -6.442861e-01 -6.344714e-01 -6.237207e-01 -6.120358e-01 -5.995586e-01 -5.862021e-01 -5.721840e-01 -5.573172e-01 -5.419107e-01 -5.256658e-01 -5.089983e-01 -4.914873e-01 -4.736692e-01 -4.549917e-01 -4.361231e-01 -4.163723e-01 -3.965476e-01 -3.758146e-01 -3.551261e-01 -3.335016e-01 -3.120402e-01 -2.896147e-01 -2.674707e-01 -2.443333e-01 -2.215948e-01 -1.978313e-01 -1.745830e-01 -1.502741e-01 -1.265956e-01 -1.018153e-01 -7.778011e-02 -5.259491e-02 -2.826966e-02 -2.740227e-03 2.181474e-02 4.763113e-02 7.235967e-02 9.840447e-02 1.232513e-01 1.494588e-01 1.743648e-01 2.006554e-01 2.255519e-01 2.518253e-01 2.766277e-01 3.027566e-01 3.273580e-01 3.531830e-01 3.774481e-01 4.027744e-01 4.265341e-01 4.511298e-01 4.741779e-01 4.977750e-01 5.198660e-01 5.421634e-01 5.630131e-01 5.836810e-01 6.029698e-01 6.216562e-01 6.390340e-01 6.553714e-01 6.704644e-01 6.840774e-01 6.964961e-01 7.070079e-01 7.163555e-01 7.233939e-01 7.292750e-01 7.324789e-01 7.345079e-01 7.335330e-01 7.313442e-01 7.258716e-01 7.191309e-01 7.088784e-01 6.972994e-01 6.820379e-01 6.654021e-01 6.449780e-01 6.231602e-01 5.975236e-01 5.705218e-01 5.397573e-01 5.077236e-01 4.720815e-01 4.353494e-01 3.952707e-01 3.543738e-01 3.105033e-01 2.661788e-01 2.193596e-01 1.725320e-01 1.237793e-01 7.552207e-02 2.597434e-02 -2.254743e-02 -7.169470e-02 -1.192962e-01 -1.668667e-01 -2.124192e-01 -2.573317e-01 -2.998331e-01 -3.411659e-01 -3.797958e-01 -4.168328e-01 -4.509866e-01 -4.832398e-01 -5.125402e-01 -5.397498e-01 -5.640365e-01 -5.861511e-01 -6.054555e-01 -6.225991e-01 -6.371072e-01 -6.495386e-01 -6.595502e-01 -6.676201e-01 -6.735081e-01 
-7.430445e-01 -7.450139e-01 -7.451903e-01 -7.435834e-01 -7.403896e-01 -7.356545e-01 -7.295197e-01 -7.220609e-01 -7.133620e-01 -7.035303e-01 -6.925863e-01 -6.806767e-01 -6.677497e-01 -6.540037e-01 -6.393045e-01 -6.239174e-01 -6.076142e-01 -5.907437e-01 -5.729727e-01 -5.547497e-01 -5.356257e-01 -5.161629e-01 -4.957883e-01 -4.751891e-01 -4.536610e-01 -4.320241e-01 -4.094388e-01 -3.868625e-01 -3.633170e-01 -3.398999e-01 -3.154921e-01 -2.913329e-01 -2.661597e-01 -2.413560e-01 -2.155107e-01 -1.901571e-01 -1.637270e-01 -1.379128e-01 -1.109774e-01 -8.478493e-02 -5.741487e-02 -3.091823e-02 -3.176446e-03 2.355803e-02 5.161328e-02 7.852531e-02 1.068354e-01 1.338672e-01 1.623663e-01 1.894577e-01 2.180652e-01 2.451470e-01 2.737597e-01 3.007467e-01 3.292314e-01 3.560152e-01 3.842029e-01 4.106440e-01 4.383257e-01 4.642478e-01 4.911729e-01 5.163579e-01 5.422347e-01 5.664202e-01 5.909193e-01 6.137987e-01 6.365585e-01 6.577845e-01 6.784178e-01 6.976076e-01 7.157102e-01 7.324537e-01 7.476117e-01 7.614800e-01 7.732781e-01 7.838326e-01 7.918597e-01 7.986618e-01 8.025169e-01 8.051358e-01 8.044339e-01 8.024573e-01 7.968367e-01 7.898819e-01 7.790161e-01 7.667471e-01 7.503620e-01 7.325118e-01 7.104113e-01 6.868110e-01 6.589095e-01 6.295237e-01 5.958840e-01 5.608491e-01 5.217207e-01 4.813797e-01 4.372322e-01 3.921603e-01 3.437015e-01 2.947140e-01 2.428873e-01 1.910233e-01 1.369785e-01 8.345772e-02 2.849428e-02 -2.535103e-02 -7.986319e-02 -1.326740e-01 -1.853862e-01 -2.358687e-01 -2.855448e-01 -3.325549e-01 -3.781488e-01 -4.207578e-01 -4.614673e-01 -4.990020e-01 -5.342938e-01 -5.663471e-01 -5.959541e-01 -6.223718e-01 -6.462670e-01 -6.671138e-01 -6.854694e-01 -7.009844e-01 -7.141217e-01 -7.246691e-01 -7.330088e-01 -7.390295e-01 
-8.087506e-01 -8.103372e-01 -8.100543e-01 -8.078115e-01 -8.039308e-01 -7.983617e-01 -7.913611e-01 -7.829135e-01 -7.732070e-01 -7.622642e-01 -7.501969e-01 -7.370760e-01 -7.229261e-01 -7.078828e-01 -6.918696e-01 -6.751066e-01 -6.574013e-01 -6.390801e-01 -6.198189e-01 -6.000716e-01 -5.793684e-01 -5.583091e-01 -5.362663e-01 -5.140001e-01 -4.907170e-01 -4.673467e-01 -4.429240e-01 -4.185529e-01 -3.930948e-01 -3.678281e-01 -3.414413e-01 -3.153851e-01 -2.881764e-01 -2.614355e-01 -2.335081e-01 -2.061838e-01 -1.776338e-01 -1.498209e-01 -1.207344e-01 -9.251869e-02 -6.297015e-02 -3.442721e-02 -4.480433e-03 2.432437e-02 5.461292e-02 8.362215e-02 1.141973e-01 1.433573e-01 1.741573e-01 2.034119e-01 2.343589e-01 2.636423e-01 2.946331e-01 3.238610e-01 3.547583e-01 3.838195e-01 4.144449e-01 4.431929e-01 4.733221e-01 5.015678e-01 5.309286e-01 5.584345e-01 5.867079e-01 6.131860e-01 6.400097e-01 6.651217e-01 6.900969e-01 7.134578e-01 7.361577e-01 7.573429e-01 7.773216e-01 7.958761e-01 8.126782e-01 8.281269e-01 8.412958e-01 8.531535e-01 8.622379e-01 8.700190e-01 8.745781e-01 8.778058e-01 8.774141e-01 8.756292e-01 8.698831e-01 8.626559e-01 8.511846e-01 8.381314e-01 8.206155e-01 8.014229e-01 7.776217e-01 7.520796e-01 7.218686e-01 6.899111e-01 6.533273e-01 6.150782e-01 5.723673e-01 5.281840e-01 4.798416e-01 4.303480e-01 3.771462e-01 3.232453e-01 2.662325e-01 2.090903e-01 1.495599e-01 9.055614e-02 2.998082e-02 -2.937058e-02 -8.943230e-02 -1.475856e-01 -2.055991e-01 -2.610861e-01 -3.156495e-01 -3.671798e-01 -4.171161e-01 -4.636543e-01 -5.080737e-01 -5.488837e-01 -5.872105e-01 -6.218661e-01 -6.538326e-01 -6.821971e-01 -7.078098e-01 -7.299946e-01 -7.494832e-01 -7.657928e-01 -7.795511e-01 -7.904248e-01 -7.989511e-01 -8.049069e-01 
-8.784361e-01 -8.795690e-01 -8.786325e-01 -8.756747e-01 -8.709183e-01 -8.644342e-01 -8.563903e-01 -8.468749e-01 -8.359974e-01 -8.238677e-01 -8.105285e-01 -7.961234e-01 -7.806165e-01 -7.642032e-01 -7.467549e-01 -7.285406e-01 -7.093236e-01 -6.894694e-01 -6.686184e-01 -6.472543e-01 -6.248810e-01 -6.021192e-01 -5.783253e-01 -5.542711e-01 -5.291576e-01 -5.039160e-01 -4.775881e-01 -4.512679e-01 -4.238363e-01 -3.965502e-01 -3.681297e-01 -3.399933e-01 -3.106994e-01 -2.818285e-01 -2.517729e-01 -2.222800e-01 -1.915665e-01 -1.615576e-01 -1.302779e-01 -9.984895e-02 -6.808122e-02 -3.731606e-02 -5.124935e-03 2.590504e-02 5.846450e-02 8.969857e-02 1.225743e-01 1.539581e-01 1.870918e-01 2.185708e-01 2.518875e-01 2.833988e-01 3.167960e-01 3.482588e-01 3.815966e-01 4.129021e-01 4.459947e-01 4.769966e-01 5.096069e-01 5.401122e-01 5.719491e-01 6.017112e-01 6.324309e-01 6.611459e-01 6.903554e-01 7.176620e-01 7.449274e-01 7.704110e-01 7.952664e-01 8.184666e-01 8.404252e-01 8.608467e-01 8.794115e-01 8.965354e-01 9.112080e-01 9.245033e-01 9.347907e-01 9.437243e-01 9.491433e-01 9.531885e-01 9.532688e-01 9.519134e-01 9.462027e-01 9.389596e-01 9.270331e-01 9.134565e-01 8.949356e-01 8.746469e-01 8.492300e-01 8.219547e-01 7.894600e-01 7.550765e-01 7.154967e-01 6.740914e-01 6.276524e-01 5.795759e-01 5.267902e-01 4.727015e-01 4.144049e-01 3.552921e-01 2.926490e-01 2.298153e-01 1.642848e-01 9.929366e-02 3.255370e-02 -3.286603e-02 -9.903098e-02 -1.631075e-01 -2.269391e-01 -2.879909e-01 -3.478891e-01 -4.044461e-01 -4.590796e-01 -5.099755e-01 -5.583546e-01 -6.027778e-01 -6.442837e-01 -6.817860e-01 -7.161586e-01 -7.466274e-01 -7.739211e-01 -7.975263e-01 -8.180465e-01 -8.351728e-01 -8.494040e-01 -8.605815e-01 -8.691171e-01 -8.749554e-01 
-9.483787e-01 -9.488386e-01 -9.471696e-01 -9.433083e-01 -9.376204e-01 -9.300661e-01 -9.209471e-01 -9.102427e-01 -8.981858e-01 -8.847811e-01 -8.701826e-01 -8.544360e-01 -8.376018e-01 -8.197896e-01 -8.009482e-01 -7.812791e-01 -7.605991e-01 -7.392311e-01 -7.168398e-01 -6.938986e-01 -6.699008e-01 -6.454950e-01 -6.199878e-01 -5.942216e-01 -5.673052e-01 -5.402859e-01 -5.120692e-01 -4.839105e-01 -4.545121e-01 -4.253339e-01 -3.948791e-01 -3.648055e-01 -3.334222e-01 -3.025774e-01 -2.703899e-01 -2.388946e-01 -2.060172e-01 -1.739836e-01 -1.405161e-01 -1.080438e-01 -7.406783e-02 -4.124110e-02 -6.820293e-03 2.629254e-02 6.110850e-02 9.445288e-02 1.296203e-01 1.631501e-01 1.986201e-01 2.322898e-01 2.679960e-01 3.017508e-01 3.375956e-01 3.713604e-01 4.072038e-01 4.408715e-01 4.765208e-01 5.099410e-01 5.451447e-01 5.781133e-01 6.125580e-01 6.448096e-01 6.781211e-01 7.093246e-01 7.410733e-01 7.708322e-01 8.005419e-01 8.283990e-01 8.555584e-01 8.810057e-01 9.050812e-01 9.275720e-01 9.480202e-01 9.669834e-01 9.832612e-01 9.981137e-01 1.009685e+00 1.019843e+00 1.026183e+00 1.031067e+00 1.031663e+00 1.030711e+00 1.025062e+00 1.017731e+00 1.005360e+00 9.911457e-01 9.716158e-01 9.500763e-01 9.230217e-01 8.938211e-01 8.589982e-01 8.219612e-01 7.793118e-01 7.344904e-01 6.842139e-01 6.319562e-01 5.745774e-01 5.155850e-01 4.520026e-01 3.873602e-01 3.188597e-01 2.500238e-01 1.782424e-01 1.069789e-01 3.381718e-02 -3.790948e-02 -1.104203e-01 -1.805940e-01 -2.504518e-01 -3.171641e-01 -3.825549e-01 -4.441503e-01 -5.035793e-01 -5.587626e-01 -6.111390e-01 -6.590323e-01 -7.036996e-01 -7.438475e-01 -7.805635e-01 -8.128948e-01 -8.417753e-01 -8.665360e-01 -8.879755e-01 -9.056474e-01 -9.202338e-01 -9.314513e-01 -9.398841e-01 -9.453593e-01 