# vtk DataFile Version 2.0
Comment goes here
ASCII

DATASET STRUCTURED_POINTS
FIELD FieldData 1
TIME 1 1 double
0.14000000
DIMENSIONS    128   128   1

ORIGIN    0.000   0.000   0.000
SPACING   0.039062 0.039062   1.000

POINT_DATA   16384
SCALARS uY double
LOOKUP_TABLE default

3.720911e-16 -5.693154e-16 1.329784e-15 4.599742e-16 2.054748e-15 1.706830e-15 4.339991e-15 4.894075e-15 7.700703e-15 8.332301e-15 1.092734e-14 1.108951e-14 1.313690e-14 1.346919e-14 1.552724e-14 1.613202e-14 1.821764e-14 1.856085e-14 1.929124e-14 1.943745e-14 1.960138e-14 1.898525e-14 1.947995e-14 2.000412e-14 2.060665e-14 2.261883e-14 2.388784e-14 2.534140e-14 2.587656e-14 2.791172e-14 2.854367e-14 3.046834e-14 3.012839e-14 3.274111e-14 3.258253e-14 3.480845e-14 3.342914e-14 3.668407e-14 3.548829e-14 3.831182e-14 3.811260e-14 4.335910e-14 4.243344e-14 4.571639e-14 4.796124e-14 5.215692e-14 5.129063e-14 5.364158e-14 5.575536e-14 6.025667e-14 5.986740e-14 6.639682e-14 6.410299e-14 6.774638e-14 6.662292e-14 6.944604e-14 6.968806e-14 7.443150e-14 7.313359e-14 7.693807e-14 7.760915e-14 8.039160e-14 7.918123e-14 8.093521e-14 7.982698e-14 8.089502e-14 8.060019e-14 8.216033e-14 8.105330e-14 8.180847e-14 7.945861e-14 7.929486e-14 7.664540e-14 7.625311e-14 7.388721e-14 7.402995e-14 7.194880e-14 7.230808e-14 6.995385e-14 6.980721e-14 6.736549e-14 6.657561e-14 6.442827e-14 6.287343e-14 6.160714e-14 6.041504e-14 5.928114e-14 5.825122e-14 5.811290e-14 5.685568e-14 5.666757e-14 5.573222e-14 5.592432e-14 5.390343e-14 5.345230e-14 5.089867e-14 4.986281e-14 4.632538e-14 4.556687e-14 4.171370e-14 4.044040e-14 3.572728e-14 3.504256e-14 3.273310e-14 3.320763e-14 2.986685e-14 2.811300e-14 2.412177e-14 2.357784e-14 2.047619e-14 1.932510e-14 1.548769e-14 1.476449e-14 1.052619e-14 1.035761e-14 6.697504e-15 5.353920e-15 1.117279e-15 1.467009e-15 -1.581855e-15 -1.110056e-15 -3.330271e-15 -1.544941e-15 -3.284930e-15 -1.842622e-15 -2.939042e-15 -9.926101e-16 -1.822610e-15 
-2.005746e-02 -2.042547e-02 -2.094354e-02 -2.120582e-02 -2.161194e-02 -2.176573e-02 -2.205820e-02 -2.210157e-02 -2.227925e-02 -2.221100e-02 -2.227311e-02 -2.209271e-02 -2.203889e-02 -2.174661e-02 -2.157696e-02 -2.117404e-02 -2.088930e-02 -2.037818e-02 -1.997999e-02 -1.936454e-02 -1.885558e-02 -1.814129e-02 -1.752550e-02 -1.671963e-02 -1.600231e-02 -1.511390e-02 -1.430175e-02 -1.334154e-02 -1.244265e-02 -1.142291e-02 -1.044665e-02 -9.380909e-03 -8.337822e-03 -7.240537e-03 -6.142157e-03 -5.028354e-03 -3.887033e-03 -2.771925e-03 -1.600634e-03 -4.992622e-04 6.886071e-04 1.761705e-03 2.952547e-03 3.983616e-03 5.163816e-03 6.140118e-03 7.296259e-03 8.206250e-03 9.325324e-03 1.015879e-02 1.122840e-02 1.197655e-02 1.298511e-02 1.364068e-02 1.457762e-02 1.513491e-02 1.599087e-02 1.644584e-02 1.721285e-02 1.756316e-02 1.823482e-02 1.847992e-02 1.905151e-02 1.919270e-02 1.966132e-02 1.970173e-02 2.006630e-02 2.001090e-02 2.027216e-02 2.012764e-02 2.028801e-02 2.006256e-02 2.012595e-02 1.982892e-02 1.980038e-02 1.944186e-02 1.932713e-02 1.891737e-02 1.872242e-02 1.827118e-02 1.800161e-02 1.751748e-02 1.717801e-02 1.666781e-02 1.626180e-02 1.573002e-02 1.525916e-02 1.470768e-02 1.417193e-02 1.359993e-02 1.299768e-02 1.240197e-02 1.173049e-02 1.110608e-02 1.036229e-02 9.703250e-03 8.884610e-03 8.185174e-03 7.290668e-03 6.546357e-03 5.577439e-03 4.786117e-03 3.747432e-03 2.910135e-03 1.809926e-03 9.313298e-04 -2.185547e-04 -1.130081e-03 -2.314586e-03 -3.247349e-03 -4.448972e-03 -5.388675e-03 -6.588466e-03 -7.519168e-03 -8.697841e-03 -9.603004e-03 -1.074198e-02 -1.160546e-02 -1.268777e-02 -1.349465e-02 -1.450553e-02 -1.524264e-02 -1.616987e-02 -1.682617e-02 -1.766010e-02 -1.822667e-02 -1.896002e-02 -1.942993e-02 
-4.003163e-02 -4.075605e-02 -4.176986e-02 -4.228534e-02 -4.307884e-02 -4.337955e-02 -4.394911e-02 -4.403086e-02 -4.437381e-02 -4.423378e-02 -4.434818e-02 -4.398494e-02 -4.386959e-02 -4.328327e-02 -4.293796e-02 -4.213067e-02 -4.155651e-02 -4.053282e-02 -3.973269e-02 -3.850008e-02 -3.747909e-02 -3.604838e-02 -3.481420e-02 -3.319978e-02 -3.176285e-02 -2.998277e-02 -2.835642e-02 -2.643216e-02 -2.463253e-02 -2.258871e-02 -2.063452e-02 -1.849830e-02 -1.641064e-02 -1.421107e-02 -1.201301e-02 -9.780269e-03 -7.496495e-03 -5.261148e-03 -2.917585e-03 -7.098410e-04 1.666754e-03 3.817697e-03 6.200134e-03 8.266652e-03 1.062770e-02 1.258421e-02 1.489701e-02 1.672028e-02 1.895873e-02 2.062822e-02 2.276735e-02 2.426533e-02 2.628175e-02 2.759350e-02 2.946576e-02 3.057968e-02 3.228867e-02 3.319644e-02 3.472579e-02 3.542247e-02 3.675890e-02 3.724311e-02 3.837673e-02 3.865078e-02 3.957529e-02 3.964521e-02 4.035807e-02 4.023359e-02 4.073597e-02 4.043032e-02 4.072690e-02 4.025640e-02 4.035497e-02 3.973840e-02 3.964921e-02 3.890697e-02 3.864190e-02 3.779485e-02 3.736640e-02 3.643460e-02 3.585477e-02 3.485613e-02 3.413533e-02 3.308433e-02 3.223042e-02 3.113701e-02 3.015465e-02 2.902360e-02 2.791400e-02 2.674475e-02 2.550601e-02 2.429313e-02 2.292105e-02 2.165541e-02 2.014490e-02 1.881531e-02 1.716216e-02 1.575751e-02 1.396030e-02 1.247179e-02 1.053373e-02 8.956985e-03 6.887338e-03 5.224049e-03 3.038946e-03 1.297867e-03 -9.796489e-04 -2.782567e-03 -5.123308e-03 -6.965598e-03 -9.335688e-03 -1.118975e-02 -1.355256e-02 -1.538752e-02 -1.770581e-02 -1.948956e-02 -2.172750e-02 -2.342862e-02 -2.555350e-02 -2.714288e-02 -2.912628e-02 -3.057821e-02 -3.239657e-02 -3.368936e-02 -3.532408e-02 -3.644012e-02 -3.787711e-02 -3.880260e-02 
-6.038377e-02 -6.149163e-02 -6.304832e-02 -6.383792e-02 -6.505795e-02 -6.552123e-02 -6.639981e-02 -6.653114e-02 -6.706493e-02 -6.686068e-02 -6.704741e-02 -6.650593e-02 -6.634437e-02 -6.546628e-02 -6.495657e-02 -6.374538e-02 -6.288956e-02 -6.135233e-02 -6.015507e-02 -5.830321e-02 -5.677239e-02 -5.462228e-02 -5.276962e-02 -5.034298e-02 -4.818432e-02 -4.550835e-02 -4.306382e-02 -4.017092e-02 -3.746487e-02 -3.439211e-02 -3.145279e-02 -2.824110e-02 -2.510029e-02 -2.179341e-02 -1.848590e-02 -1.512927e-02 -1.169231e-02 -8.331942e-03 -4.804649e-03 -1.485986e-03 2.091258e-03 5.324314e-03 8.910483e-03 1.201644e-02 1.557048e-02 1.851093e-02 2.199238e-02 2.473257e-02 2.810220e-02 3.061137e-02 3.383177e-02 3.608350e-02 3.911973e-02 4.109212e-02 4.391228e-02 4.558819e-02 4.816401e-02 4.953124e-02 5.183865e-02 5.289013e-02 5.490977e-02 5.564381e-02 5.736147e-02 5.778190e-02 5.918879e-02 5.930507e-02 6.039802e-02 6.022516e-02 6.100649e-02 6.056477e-02 6.104199e-02 6.035628e-02 6.054141e-02 5.964025e-02 5.954886e-02 5.846308e-02 5.811293e-02 5.687390e-02 5.628343e-02 5.492109e-02 5.410767e-02 5.264848e-02 5.162670e-02 5.009159e-02 4.887184e-02 4.727462e-02 4.586209e-02 4.420840e-02 4.260277e-02 4.088994e-02 3.908589e-02 3.730374e-02 3.529239e-02 3.342504e-02 3.119623e-02 2.922486e-02 2.676995e-02 2.467611e-02 2.199114e-02 1.976033e-02 1.684893e-02 1.447393e-02 1.134963e-02 8.833061e-03 5.520584e-03 2.876425e-03 -5.882830e-04 -3.334556e-03 -6.905573e-03 -9.718156e-03 -1.334197e-02 -1.617702e-02 -1.979568e-02 -2.260432e-02 -2.615890e-02 -2.889053e-02 -3.232444e-02 -3.492980e-02 -3.819149e-02 -4.062523e-02 -4.367009e-02 -4.589248e-02 -4.868380e-02 -5.066163e-02 -5.317066e-02 -5.487730e-02 -5.708259e-02 -5.849752e-02 
-8.047965e-02 -8.193633e-02 -8.396905e-02 -8.500579e-02 -8.659643e-02 -8.720203e-02 -8.834382e-02 -8.851013e-02 -8.919796e-02 -8.891934e-02 -8.914934e-02 -8.842269e-02 -8.819224e-02 -8.701747e-02 -8.632575e-02 -8.470661e-02 -8.355540e-02 -8.150053e-02 -7.989518e-02 -7.741916e-02 -7.536952e-02 -7.249371e-02 -7.001488e-02 -6.676803e-02 -6.388085e-02 -6.029917e-02 -5.703035e-02 -5.315723e-02 -4.953921e-02 -4.542441e-02 -4.149494e-02 -3.719345e-02 -3.299503e-02 -2.856570e-02 -2.414484e-02 -1.964878e-02 -1.505526e-02 -1.055434e-02 -5.840402e-03 -1.395695e-03 3.384747e-03 7.714276e-03 1.250644e-02 1.666508e-02 2.141411e-02 2.535032e-02 3.000208e-02 3.366919e-02 3.817106e-02 4.152774e-02 4.582941e-02 4.884008e-02 5.289435e-02 5.552942e-02 5.929300e-02 6.152915e-02 6.496345e-02 6.678388e-02 6.985582e-02 7.125053e-02 7.393323e-02 7.489936e-02 7.717281e-02 7.771489e-02 7.956640e-02 7.969655e-02 8.112105e-02 8.085891e-02 8.185896e-02 8.123137e-02 8.181674e-02 8.085696e-02 8.104384e-02 7.979035e-02 7.960009e-02 7.809476e-02 7.755212e-02 7.583796e-02 7.496905e-02 7.308753e-02 7.191745e-02 6.990569e-02 6.845622e-02 6.634421e-02 6.463173e-02 6.244008e-02 6.047413e-02 5.821253e-02 5.599526e-02 5.366211e-02 5.118881e-02 4.877214e-02 4.603306e-02 4.351290e-02 4.049610e-02 3.784799e-02 3.454311e-02 3.174258e-02 2.814497e-02 2.517231e-02 2.128694e-02 1.813174e-02 1.397633e-02 1.064100e-02 6.247768e-03 2.749669e-03 -1.834539e-03 -5.462832e-03 -1.017818e-02 -1.389035e-02 -1.866714e-02 -2.240613e-02 -2.716899e-02 -3.087100e-02 -3.554341e-02 -3.914229e-02 -4.365090e-02 -4.708224e-02 -5.136043e-02 -5.456487e-02 -5.855521e-02 -6.148076e-02 -6.513610e-02 -6.773926e-02 -7.102277e-02 -7.326862e-02 -7.615286e-02 -7.801434e-02 
-1.013468e-01 -1.032057e-01 -1.058081e-01 -1.071330e-01 -1.091718e-01 -1.099501e-01 -1.114182e-01 -1.116410e-01 -1.125332e-01 -1.121946e-01 -1.125072e-01 -1.116040e-01 -1.113346e-01 -1.098672e-01 -1.090154e-01 -1.069888e-01 -1.055573e-01 -1.029825e-01 -1.009783e-01 -9.787369e-02 -9.530933e-02 -9.170167e-02 -8.859629e-02 -8.452171e-02 -8.090156e-02 -7.640563e-02 -7.230439e-02 -6.744173e-02 -6.290024e-02 -5.773356e-02 -5.279937e-02 -4.739799e-02 -4.212462e-02 -3.656268e-02 -3.100873e-02 -2.536327e-02 -1.959148e-02 -1.394037e-02 -8.016615e-03 -2.436736e-03 3.571002e-03 9.005536e-03 1.502818e-02 2.024743e-02 2.621585e-02 3.115523e-02 3.700130e-02 4.160240e-02 4.726003e-02 5.147131e-02 5.687748e-02 6.065462e-02 6.575040e-02 6.905672e-02 7.378830e-02 7.659500e-02 8.091466e-02 8.320117e-02 8.706825e-02 8.882258e-02 9.220435e-02 9.342348e-02 9.629590e-02 9.698613e-02 9.933441e-02 9.951159e-02 1.013305e-01 1.010200e-01 1.023139e-01 1.015501e-01 1.023321e-01 1.011577e-01 1.014490e-01 9.991293e-02 9.974092e-02 9.789651e-02 9.729253e-02 9.519426e-02 9.419092e-02 9.189103e-02 9.051914e-02 8.806390e-02 8.634942e-02 8.377553e-02 8.173687e-02 7.906845e-02 7.671459e-02 7.396128e-02 7.129107e-02 6.844750e-02 6.545051e-02 6.249770e-02 5.915665e-02 5.606514e-02 5.235992e-02 4.909461e-02 4.500740e-02 4.153360e-02 3.705455e-02 3.334443e-02 2.847703e-02 2.451569e-02 1.928106e-02 1.507124e-02 9.510543e-03 5.075344e-03 -7.501094e-04 -5.366931e-03 -1.137797e-02 -1.611422e-02 -2.221817e-02 -2.699742e-02 -3.309387e-02 -3.783103e-02 -4.381812e-02 -4.842543e-02 -5.420581e-02 -5.859837e-02 -6.408403e-02 -6.818433e-02 -7.329987e-02 -7.704071e-02 -8.172487e-02 -8.505078e-02 -8.925637e-02 -9.212356e-02 -9.581608e-02 -9.819133e-02 
-1.217653e-01 -1.239693e-01 -1.270304e-01 -1.285996e-01 -1.309941e-01 -1.319127e-01 -1.336318e-01 -1.338883e-01 -1.349249e-01 -1.345108e-01 -1.348590e-01 -1.337690e-01 -1.334243e-01 -1.316573e-01 -1.306174e-01 -1.281778e-01 -1.264442e-01 -1.233436e-01 -1.209232e-01 -1.171824e-01 -1.140890e-01 -1.097393e-01 -1.059951e-01 -1.010796e-01 -9.671541e-02 -9.128878e-02 -8.634502e-02 -8.047330e-02 -7.499909e-02 -6.875832e-02 -6.281103e-02 -5.628544e-02 -4.992968e-02 -4.320944e-02 -3.651592e-02 -2.969467e-02 -2.273906e-02 -1.591145e-02 -8.773100e-03 -2.032427e-03 5.206775e-03 1.177064e-02 1.902751e-02 2.532984e-02 3.252110e-02 3.848372e-02 4.552714e-02 5.107939e-02 5.789505e-02 6.297449e-02 6.948591e-02 7.403881e-02 8.017418e-02 8.415584e-02 8.984924e-02 9.322436e-02 9.841697e-02 1.011600e-01 1.058013e-01 1.078969e-01 1.119457e-01 1.133892e-01 1.168151e-01 1.176131e-01 1.203966e-01 1.205674e-01 1.227009e-01 1.222743e-01 1.237622e-01 1.227795e-01 1.236374e-01 1.221499e-01 1.224038e-01 1.204715e-01 1.201554e-01 1.178440e-01 1.169977e-01 1.143750e-01 1.130405e-01 1.101721e-01 1.083900e-01 1.053350e-01 1.031405e-01 9.994682e-02 9.736620e-02 9.406652e-02 9.111482e-02 8.772415e-02 8.440387e-02 8.091865e-02 7.722054e-02 7.361996e-02 6.952579e-02 6.577547e-02 6.126272e-02 5.732050e-02 5.236854e-02 4.819178e-02 4.278880e-02 3.834239e-02 3.249202e-02 2.775594e-02 2.148255e-02 1.645785e-02 9.809660e-03 4.521981e-03 -2.428730e-03 -7.928693e-03 -1.508832e-02 -2.072739e-02 -2.798627e-02 -3.367393e-02 -4.091336e-02 -4.654856e-02 -5.364840e-02 -5.912683e-02 -6.597270e-02 -7.119357e-02 -7.768254e-02 -8.255399e-02 -8.859841e-02 -9.304104e-02 -9.857018e-02 -1.025186e-01 -1.074784e-01 -1.108810e-01 -1.152322e-01 -1.180500e-01 
-1.433795e-01 -1.460069e-01 -1.496655e-01 -1.515383e-01 -1.544029e-01 -1.555053e-01 -1.575678e-01 -1.578882e-01 -1.591426e-01 -1.586727e-01 -1.591135e-01 -1.578481e-01 -1.574713e-01 -1.554096e-01 -1.542130e-01 -1.513601e-01 -1.493459e-01 -1.457153e-01 -1.428916e-01 -1.385073e-01 -1.348903e-01 -1.297890e-01 -1.254047e-01 -1.196366e-01 -1.145213e-01 -1.081508e-01 -1.023520e-01 -9.545690e-02 -8.903239e-02 -8.170248e-02 -7.471985e-02 -6.705462e-02 -5.959001e-02 -5.169599e-02 -4.383277e-02 -3.582054e-02 -2.764792e-02 -1.962919e-02 -1.124083e-02 -3.325568e-03 5.181898e-03 1.288789e-02 2.141628e-02 2.881346e-02 3.726453e-02 4.426123e-02 5.253812e-02 5.905171e-02 6.706042e-02 7.301806e-02 8.066893e-02 8.600812e-02 9.321723e-02 9.788619e-02 1.045768e-01 1.085348e-01 1.146388e-01 1.178565e-01 1.233159e-01 1.257760e-01 1.305438e-01 1.322417e-01 1.362836e-01 1.372278e-01 1.405226e-01 1.407353e-01 1.432759e-01 1.427934e-01 1.445864e-01 1.434582e-01 1.445238e-01 1.428117e-01 1.431818e-01 1.409576e-01 1.406736e-01 1.380161e-01 1.371257e-01 1.341160e-01 1.326690e-01 1.293852e-01 1.274289e-01 1.239408e-01 1.215152e-01 1.178783e-01 1.150117e-01 1.112624e-01 1.079683e-01 1.041206e-01 1.003962e-01 9.644073e-02 9.226806e-02 8.817391e-02 8.352327e-02 7.924255e-02 7.407873e-02 6.955409e-02 6.384443e-02 5.901844e-02 5.274180e-02 4.756725e-02 4.072273e-02 3.517228e-02 2.778617e-02 2.185995e-02 1.398973e-02 7.719732e-03 -5.456396e-04 -7.095209e-03 -1.563895e-02 -2.237527e-02 -3.105978e-02 -3.786829e-02 -4.654438e-02 -5.329779e-02 -6.181474e-02 -6.838255e-02 -7.659740e-02 -8.285463e-02 -9.063964e-02 -9.647362e-02 -1.037211e-01 -1.090358e-01 -1.156599e-01 -1.203776e-01 -1.263142e-01 -1.303751e-01 -1.355788e-01 -1.389388e-01 
-1.643191e-01 -1.672916e-01 -1.713935e-01 -1.735106e-01 -1.767180e-01 -1.779611e-01 -1.802647e-01 -1.806197e-01 -1.820110e-01 -1.814665e-01 -1.819375e-01 -1.804853e-01 -1.800286e-01 -1.776650e-01 -1.762754e-01 -1.730036e-01 -1.706808e-01 -1.665137e-01 -1.632644e-01 -1.582274e-01 -1.540683e-01 -1.482019e-01 -1.431611e-01 -1.365222e-01 -1.306408e-01 -1.233032e-01 -1.166354e-01 -1.086890e-01 -1.013012e-01 -9.285025e-02 -8.482046e-02 -7.598060e-02 -6.739667e-02 -5.829186e-02 -4.924991e-02 -4.000878e-02 -3.061155e-02 -2.136389e-02 -1.171908e-02 -2.592497e-03 7.188848e-03 1.607181e-02 2.587689e-02 3.440115e-02 4.411702e-02 5.217673e-02 6.169190e-02 6.919172e-02 7.839773e-02 8.525362e-02 9.404662e-02 1.001864e-01 1.084687e-01 1.138322e-01 1.215141e-01 1.260537e-01 1.330550e-01 1.367358e-01 1.429874e-01 1.457884e-01 1.512339e-01 1.531482e-01 1.577455e-01 1.587814e-01 1.625042e-01 1.626858e-01 1.655239e-01 1.648918e-01 1.668517e-01 1.654625e-01 1.665671e-01 1.644922e-01 1.647788e-01 1.621022e-01 1.616205e-01 1.584353e-01 1.572433e-01 1.536462e-01 1.518056e-01 1.478912e-01 1.454619e-01 1.413158e-01 1.383499e-01 1.340416e-01 1.305778e-01 1.261549e-01 1.222149e-01 1.176986e-01 1.132845e-01 1.086678e-01 1.037631e-01 9.901280e-02 9.358604e-02 8.864758e-02 8.265949e-02 7.746566e-02 7.087846e-02 6.536048e-02 5.814854e-02 5.224835e-02 4.440862e-02 3.809060e-02 2.965106e-02 2.291136e-02 1.393598e-02 6.808054e-03 -2.602734e-03 -1.004750e-02 -1.976103e-02 -2.741748e-02 -3.727712e-02 -4.501450e-02 -5.485060e-02 -6.252325e-02 -7.216493e-02 -7.962362e-02 -8.890968e-02 -9.601189e-02 -1.047993e-01 -1.114171e-01 -1.195863e-01 -1.256114e-01 -1.330684e-01 -1.384135e-01 -1.450888e-01 -1.496873e-01 -1.555326e-01 -1.593356e-01 
-1.869270e-01 -1.903451e-01 -1.950719e-01 -1.975082e-01 -2.012067e-01 -2.026444e-01 -2.053077e-01 -2.057338e-01 -2.073557e-01 -2.067596e-01 -2.073330e-01 -2.057063e-01 -2.052240e-01 -2.025627e-01 -2.010194e-01 -1.973267e-01 -1.947216e-01 -1.900111e-01 -1.863517e-01 -1.806513e-01 -1.759558e-01 -1.693106e-01 -1.636108e-01 -1.560849e-01 -1.494271e-01 -1.411043e-01 -1.335500e-01 -1.245327e-01 -1.161575e-01 -1.065649e-01 -9.745764e-02 -8.742203e-02 -7.768271e-02 -6.734598e-02 -5.708412e-02 -4.659341e-02 -3.592614e-02 -2.542973e-02 -1.447992e-02 -4.123419e-03 6.982186e-03 1.705923e-02 2.819186e-02 3.785869e-02 4.888948e-02 5.802617e-02 6.882804e-02 7.732691e-02 8.777649e-02 9.554292e-02 1.055224e-01 1.124754e-01 1.218745e-01 1.279467e-01 1.366643e-01 1.418028e-01 1.497491e-01 1.539153e-01 1.610134e-01 1.641841e-01 1.703720e-01 1.725403e-01 1.777723e-01 1.789483e-01 1.831966e-01 1.834090e-01 1.866643e-01 1.859603e-01 1.882324e-01 1.866780e-01 1.879953e-01 1.856737e-01 1.860811e-01 1.830903e-01 1.826466e-01 1.790950e-01 1.778683e-01 1.738689e-01 1.719309e-01 1.675935e-01 1.650128e-01 1.604363e-01 1.572712e-01 1.525347e-01 1.488267e-01 1.439821e-01 1.397506e-01 1.348175e-01 1.300570e-01 1.250204e-01 1.197017e-01 1.145139e-01 1.085888e-01 1.031761e-01 9.658633e-02 9.085963e-02 8.354865e-02 7.741759e-02 6.934427e-02 6.273257e-02 5.388465e-02 4.674490e-02 3.714982e-02 2.947519e-02 1.920650e-02 1.103747e-02 2.153939e-04 -8.359757e-03 -1.957382e-02 -2.842474e-02 -3.983899e-02 -4.880403e-02 -6.021049e-02 -6.911060e-02 -8.030033e-02 -8.895357e-02 -9.973059e-02 -1.079651e-01 -1.181571e-01 -1.258207e-01 -1.352857e-01 -1.422518e-01 -1.508802e-01 -1.570495e-01 -1.647624e-01 -1.700610e-01 -1.768060e-01 -1.811820e-01 
-2.085857e-01 -2.123515e-01 -2.175070e-01 -2.201902e-01 -2.242199e-01 -2.258018e-01 -2.286980e-01 -2.291628e-01 -2.309169e-01 -2.302503e-01 -2.308515e-01 -2.290407e-01 -2.284771e-01 -2.255137e-01 -2.237750e-01 -2.196581e-01 -2.167392e-01 -2.114801e-01 -2.073854e-01 -2.010119e-01 -1.957587e-01 -1.883186e-01 -1.819403e-01 -1.735043e-01 -1.660516e-01 -1.567132e-01 -1.482546e-01 -1.381294e-01 -1.287501e-01 -1.179732e-01 -1.077730e-01 -9.649488e-02 -8.558654e-02 -7.396848e-02 -6.247519e-02 -5.068436e-02 -3.873758e-02 -2.694219e-02 -1.467960e-02 -3.044487e-03 9.392076e-03 2.070933e-02 3.317584e-02 4.402794e-02 5.638019e-02 6.663236e-02 7.872797e-02 8.825937e-02 9.995971e-02 1.086642e-01 1.198365e-01 1.276230e-01 1.381421e-01 1.449349e-01 1.546855e-01 1.604241e-01 1.693029e-01 1.739428e-01 1.818606e-01 1.853739e-01 1.922577e-01 1.946345e-01 2.004296e-01 2.016791e-01 2.063511e-01 2.065032e-01 2.100391e-01 2.091451e-01 2.115542e-01 2.096872e-01 2.110008e-01 2.082546e-01 2.085242e-01 2.050106e-01 2.043051e-01 2.001493e-01 1.985498e-01 1.938838e-01 1.914773e-01 1.864313e-01 1.833028e-01 1.779958e-01 1.742195e-01 1.687489e-01 1.643804e-01 1.588128e-01 1.538823e-01 1.482469e-01 1.427555e-01 1.370404e-01 1.309604e-01 1.251147e-01 1.183946e-01 1.123350e-01 1.049093e-01 9.853251e-02 9.033569e-02 8.353445e-02 7.451662e-02 6.719823e-02 5.734121e-02 4.944505e-02 3.877545e-02 3.028734e-02 1.888439e-02 9.844869e-03 -2.158613e-03 -1.165330e-02 -2.407733e-02 -3.388185e-02 -4.651188e-02 -5.644457e-02 -6.904820e-02 -7.890747e-02 -9.125220e-02 -1.008336e-01 -1.127029e-01 -1.218143e-01 -1.330196e-01 -1.414922e-01 -1.518802e-01 -1.595747e-01 -1.690292e-01 -1.758375e-01 -1.842767e-01 -1.901199e-01 -1.974909e-01 -2.023139e-01 
-2.324511e-01 -2.366835e-01 -2.424886e-01 -2.455052e-01 -2.500442e-01 -2.518303e-01 -2.551007e-01 -2.556432e-01 -2.576397e-01 -2.569254e-01 -2.576386e-01 -2.556545e-01 -2.550722e-01 -2.518083e-01 -2.499188e-01 -2.453726e-01 -2.421694e-01 -2.363511e-01 -2.318377e-01 -2.247761e-01 -2.189705e-01 -2.107173e-01 -2.036556e-01 -1.942881e-01 -1.860265e-01 -1.756488e-01 -1.662633e-01 -1.550048e-01 -1.445902e-01 -1.326024e-01 -1.212704e-01 -1.087226e-01 -9.659890e-02 -8.367229e-02 -7.089450e-02 -5.777694e-02 -4.449192e-02 -3.137216e-02 -1.773386e-02 -4.796478e-03 9.036344e-03 2.161530e-02 3.548136e-02 4.753784e-02 6.127571e-02 7.266012e-02 8.611059e-02 9.668932e-02 1.096977e-01 1.193539e-01 1.317725e-01 1.404062e-01 1.520963e-01 1.596247e-01 1.704591e-01 1.768163e-01 1.866816e-01 1.918192e-01 2.006180e-01 2.045061e-01 2.121595e-01 2.147877e-01 2.212376e-01 2.226171e-01 2.278277e-01 2.279926e-01 2.319525e-01 2.309614e-01 2.336842e-01 2.316205e-01 2.331443e-01 2.301155e-01 2.305014e-01 2.266357e-01 2.259642e-01 2.214057e-01 2.197710e-01 2.146718e-01 2.121742e-01 2.066843e-01 2.034209e-01 1.976766e-01 1.937306e-01 1.878422e-01 1.832735e-01 1.773139e-01 1.721501e-01 1.661465e-01 1.603790e-01 1.543086e-01 1.478920e-01 1.416840e-01 1.345428e-01 1.280869e-01 1.201277e-01 1.132892e-01 1.044180e-01 9.705799e-02 8.720029e-02 7.919874e-02 6.832000e-02 5.959770e-02 4.772011e-02 3.825656e-02 2.546914e-02 1.531278e-02 1.772575e-03 -8.958535e-03 -2.303472e-02 -3.416189e-02 -4.851387e-02 -5.981446e-02 -7.416022e-02 -8.538889e-02 -9.944736e-02 -1.103578e-01 -1.238692e-01 -1.342329e-01 -1.469740e-01 -1.565936e-01 -1.683858e-01 -1.771025e-01 -1.878140e-01 -1.955083e-01 -2.050500e-01 -2.116381e-01 -2.199565e-01 -2.253837e-01 
-2.550265e-01 -2.596107e-01 -2.658296e-01 -2.690976e-01 -2.739570e-01 -2.758933e-01 -2.793909e-01 -2.799798e-01 -2.821075e-01 -2.813311e-01 -2.820744e-01 -2.799135e-01 -2.792535e-01 -2.756910e-01 -2.736083e-01 -2.686350e-01 -2.651158e-01 -2.587369e-01 -2.537794e-01 -2.460214e-01 -2.396408e-01 -2.305567e-01 -2.227901e-01 -2.124633e-01 -2.033709e-01 -1.919159e-01 -1.815815e-01 -1.691426e-01 -1.576716e-01 -1.444183e-01 -1.319349e-01 -1.180572e-01 -1.047011e-01 -9.040263e-02 -7.632631e-02 -6.181746e-02 -4.718319e-02 -3.267515e-02 -1.765260e-02 -3.351242e-03 1.188494e-02 2.578390e-02 4.105643e-02 5.437126e-02 6.950266e-02 8.206817e-02 9.688312e-02 1.085522e-01 1.228799e-01 1.335241e-01 1.472007e-01 1.567098e-01 1.695808e-01 1.778631e-01 1.897856e-01 1.967675e-01 2.076129e-01 2.132394e-01 2.228961e-01 2.271316e-01 2.355080e-01 2.383380e-01 2.453651e-01 2.467985e-01 2.524323e-01 2.525037e-01 2.567278e-01 2.554990e-01 2.583259e-01 2.558875e-01 2.573584e-01 2.538292e-01 2.540130e-01 2.495372e-01 2.485268e-01 2.432684e-01 2.411745e-01 2.353091e-01 2.322518e-01 2.259552e-01 2.220530e-01 2.154875e-01 2.108452e-01 2.041453e-01 1.988419e-01 1.921002e-01 1.861781e-01 1.794350e-01 1.728940e-01 1.661311e-01 1.589273e-01 1.520690e-01 1.441209e-01 1.370432e-01 1.282456e-01 1.207927e-01 1.110361e-01 1.030443e-01 9.223874e-02 8.356269e-02 7.166183e-02 6.220174e-02 4.922292e-02 3.894585e-02 2.498262e-02 1.393530e-02 -8.408042e-04 -1.253068e-02 -2.787970e-02 -4.001389e-02 -5.564670e-02 -6.797622e-02 -8.357987e-02 -9.583011e-02 -1.110944e-01 -1.229907e-01 -1.376317e-01 -1.489210e-01 -1.626977e-01 -1.731640e-01 -1.858872e-01 -1.953590e-01 -2.068926e-01 -2.152432e-01 -2.254989e-01 -2.326417e-01 -2.415695e-01 -2.474495e-01 
-2.804331e-01 -2.855006e-01 -2.923877e-01 -2.959991e-01 -3.013813e-01 -3.035284e-01 -3.074113e-01 -3.080833e-01 -3.104637e-01 -3.096443e-01 -3.105094e-01 -3.081779e-01 -3.075072e-01 -3.036432e-01 -3.014143e-01 -2.960041e-01 -2.921994e-01 -2.852446e-01 -2.798591e-01 -2.713848e-01 -2.644329e-01 -2.544942e-01 -2.460147e-01 -2.347016e-01 -2.247601e-01 -2.121981e-01 -2.008865e-01 -1.872352e-01 -1.746696e-01 -1.601176e-01 -1.464349e-01 -1.311934e-01 -1.165477e-01 -1.008434e-01 -8.540252e-02 -6.946930e-02 -5.341227e-02 -3.748448e-02 -2.099856e-02 -5.304125e-03 1.141760e-02 2.666265e-02 4.342402e-02 5.801984e-02 7.462444e-02 8.839021e-02 1.046443e-01 1.174197e-01 1.331350e-01 1.447807e-01 1.597771e-01 1.701744e-01 1.842825e-01 1.933328e-01 2.063971e-01 2.140212e-01 2.259024e-01 2.320414e-01 2.426193e-01 2.472350e-01 2.564118e-01 2.594890e-01 2.671919e-01 2.687407e-01 2.749248e-01 2.749839e-01 2.796347e-01 2.782732e-01 2.814082e-01 2.787283e-01 2.803973e-01 2.765331e-01 2.768169e-01 2.719324e-01 2.709388e-01 2.652213e-01 2.630784e-01 2.567293e-01 2.535752e-01 2.467963e-01 2.427667e-01 2.357440e-01 2.309575e-01 2.238438e-01 2.183865e-01 2.112843e-01 2.051972e-01 1.981454e-01 1.914160e-01 1.843823e-01 1.769431e-01 1.698249e-01 1.615609e-01 1.541962e-01 1.449618e-01 1.371500e-01 1.267931e-01 1.183241e-01 1.067166e-01 9.740430e-02 8.447257e-02 7.418811e-02 5.993898e-02 4.863799e-02 3.317476e-02 2.091297e-02 4.437778e-03 -8.628041e-03 -2.582657e-02 -3.945262e-02 -5.702438e-02 -7.090584e-02 -8.847193e-02 -1.022754e-01 -1.194623e-01 -1.328583e-01 -1.493274e-01 -1.620174e-01 -1.774859e-01 -1.892203e-01 -2.034715e-01 -2.140580e-01 -2.269414e-01 -2.362442e-01 -2.476682e-01 -2.556004e-01 -2.655197e-01 -2.720318e-01 
-3.041223e-01 -3.095453e-01 -3.168286e-01 -3.206967e-01 -3.263885e-01 -3.286946e-01 -3.328016e-01 -3.335323e-01 -3.360480e-01 -3.351811e-01 -3.360855e-01 -3.335914e-01 -3.328542e-01 -3.287018e-01 -3.262888e-01 -3.204538e-01 -3.163364e-01 -3.088114e-01 -3.029757e-01 -2.937800e-01 -2.862353e-01 -2.754238e-01 -2.662085e-01 -2.538763e-01 -2.430604e-01 -2.293449e-01 -2.170292e-01 -2.021068e-01 -1.884199e-01 -1.725004e-01 -1.575938e-01 -1.409130e-01 -1.249566e-01 -1.077670e-01 -9.094510e-02 -7.350701e-02 -5.601525e-02 -3.858853e-02 -2.063095e-02 -3.467455e-03 1.474610e-02 3.140869e-02 4.966526e-02 6.560812e-02 8.369448e-02 9.872055e-02 1.164260e-01 1.303614e-01 1.474807e-01 1.601743e-01 1.765101e-01 1.878333e-01 2.031990e-01 2.130442e-01 2.272668e-01 2.355470e-01 2.484700e-01 2.551186e-01 2.666055e-01 2.715774e-01 2.815150e-01 2.847895e-01 2.930918e-01 2.946749e-01 3.012866e-01 3.012154e-01 3.061151e-01 3.044611e-01 3.076641e-01 3.045359e-01 3.060950e-01 3.016390e-01 3.016440e-01 2.960420e-01 2.946158e-01 2.880792e-01 2.853708e-01 2.781302e-01 2.743035e-01 2.665936e-01 2.618130e-01 2.538542e-01 2.482671e-01 2.402446e-01 2.339636e-01 2.260073e-01 2.190938e-01 2.112607e-01 2.037139e-01 1.959784e-01 1.877319e-01 1.799848e-01 1.709140e-01 1.629734e-01 1.529133e-01 1.445480e-01 1.333216e-01 1.242840e-01 1.117373e-01 1.018033e-01 8.784136e-02 7.685025e-02 6.146877e-02 4.935604e-02 3.266108e-02 1.947834e-02 1.689728e-03 -1.239351e-02 -3.095658e-02 -4.566937e-02 -6.461788e-02 -7.961879e-02 -9.853262e-02 -1.134484e-01 -1.319164e-01 -1.463803e-01 -1.640340e-01 -1.777172e-01 -1.942543e-01 -2.068858e-01 -2.220804e-01 -2.334558e-01 -2.471571e-01 -2.571362e-01 -2.692586e-01 -2.777556e-01 -2.882632e-01 -2.952330e-01 
-3.313747e-01 -3.372886e-01 -3.452485e-01 -3.494625e-01 -3.556822e-01 -3.582012e-01 -3.626996e-01 -3.635173e-01 -3.662947e-01 -3.653905e-01 -3.664280e-01 -3.637695e-01 -3.630331e-01 -3.585823e-01 -3.560317e-01 -3.497559e-01 -3.453547e-01 -3.372384e-01 -3.309664e-01 -3.210241e-01 -3.128871e-01 -3.011733e-01 -2.912104e-01 -2.778261e-01 -2.661126e-01 -2.512070e-01 -2.378530e-01 -2.216204e-01 -2.067667e-01 -1.894392e-01 -1.732515e-01 -1.550901e-01 -1.377541e-01 -1.190379e-01 -1.007549e-01 -8.177158e-02 -6.275490e-02 -4.379099e-02 -2.426392e-02 -5.596218e-03 1.421111e-02 3.232230e-02 5.217594e-02 6.949208e-02 8.915775e-02 1.054652e-01 1.247117e-01 1.398232e-01 1.584258e-01 1.721797e-01 1.899231e-01 2.021825e-01 2.188644e-01 2.295151e-01 2.449485e-01 2.538983e-01 2.679151e-01 2.750933e-01 2.875478e-01 2.929063e-01 3.036787e-01 3.071947e-01 3.161949e-01 3.178749e-01 3.250464e-01 3.249305e-01 3.302543e-01 3.284210e-01 3.319180e-01 3.284878e-01 3.302211e-01 3.253579e-01 3.254318e-01 3.193410e-01 3.178973e-01 3.108196e-01 3.080301e-01 3.002292e-01 2.962828e-01 2.880285e-01 2.831144e-01 2.746602e-01 2.689468e-01 2.605048e-01 2.541177e-01 2.458336e-01 2.388356e-01 2.307674e-01 2.231435e-01 2.152485e-01 2.069016e-01 1.990346e-01 1.897938e-01 1.817205e-01 1.713627e-01 1.627876e-01 1.510731e-01 1.416811e-01 1.283974e-01 1.179030e-01 1.029115e-01 9.110916e-02 7.438519e-02 6.119091e-02 4.284967e-02 2.832553e-02 8.626629e-03 -7.017798e-03 -2.768888e-02 -4.411868e-02 -6.528914e-02 -8.208483e-02 -1.032448e-01 -1.199524e-01 -1.406062e-01 -1.567861e-01 -1.764957e-01 -1.917611e-01 -2.101737e-01 -2.242149e-01 -2.410753e-01 -2.536673e-01 -2.688140e-01 -2.798120e-01 -2.931634e-01 -3.024886e-01 -3.140224e-01 -3.216436e-01 
-3.563726e-01 -3.626419e-01 -3.709753e-01 -3.754504e-01 -3.819678e-01 -3.846570e-01 -3.893795e-01 -3.902742e-01 -3.931980e-01 -3.922698e-01 -3.933658e-01 -3.905695e-01 -3.897891e-01 -3.850710e-01 -3.823565e-01 -3.756673e-01 -3.709656e-01 -3.622749e-01 -3.555518e-01 -3.448637e-01 -3.361165e-01 -3.234823e-01 -3.127483e-01 -2.982737e-01 -2.856333e-01 -2.694807e-01 -2.550553e-01 -2.374393e-01 -2.213849e-01 -2.025636e-01 -1.850636e-01 -1.653273e-01 -1.465859e-01 -1.262448e-01 -1.064814e-01 -8.585409e-02 -6.530040e-02 -4.470294e-02 -2.359996e-02 -3.336426e-03 1.806807e-02 3.771337e-02 5.916788e-02 7.793605e-02 9.918872e-02 1.168495e-01 1.376514e-01 1.540039e-01 1.741125e-01 1.889842e-01 2.081659e-01 2.214105e-01 2.394439e-01 2.509389e-01 2.676178e-01 2.772625e-01 2.923993e-01 3.001146e-01 3.135442e-01 3.192736e-01 3.308578e-01 3.345706e-01 3.442028e-01 3.458988e-01 3.535090e-01 3.532242e-01 3.587837e-01 3.565965e-01 3.601221e-01 3.561582e-01 3.577154e-01 3.521508e-01 3.518538e-01 3.449143e-01 3.429233e-01 3.348780e-01 3.313910e-01 3.225402e-01 3.177797e-01 3.084358e-01 3.026292e-01 2.930914e-01 2.864468e-01 2.769716e-01 2.696515e-01 2.604227e-01 2.525185e-01 2.436206e-01 2.351341e-01 2.265347e-01 2.173701e-01 2.089154e-01 1.988866e-01 1.903140e-01 1.791683e-01 1.701377e-01 1.575956e-01 1.477363e-01 1.335432e-01 1.225121e-01 1.064935e-01 9.403575e-02 7.614570e-02 6.214574e-02 4.249937e-02 2.701176e-02 5.891511e-03 -1.085599e-02 -3.302209e-02 -5.065482e-02 -7.333912e-02 -9.138459e-02 -1.140198e-01 -1.319678e-01 -1.540078e-01 -1.713682e-01 -1.923370e-01 -2.086847e-01 -2.282082e-01 -2.432091e-01 -2.610258e-01 -2.744449e-01 -2.903994e-01 -3.020925e-01 -3.161174e-01 -3.260136e-01 -3.381044e-01 -3.461833e-01 