# vtk DataFile Version 2.0
Comment goes here
ASCII

DATASET STRUCTURED_POINTS
FIELD FieldData 1
TIME 1 1 double
0.09500000
DIMENSIONS    128   128   1

ORIGIN    0.000   0.000   0.000
SPACING   0.039062 0.039062   1.000

POINT_DATA   16384
SCALARS uY double
LOOKUP_TABLE default

5.286115e-14 5.278928e-14 5.418949e-14 5.407112e-14 5.665013e-14 5.769612e-14 6.080926e-14 6.181700e-14 6.483972e-14 6.574825e-14 6.890992e-14 6.913215e-14 7.167450e-14 7.198757e-14 7.440455e-14 7.470793e-14 7.712665e-14 7.684634e-14 7.896154e-14 7.923994e-14 8.100752e-14 8.072465e-14 8.343129e-14 8.357065e-14 8.598521e-14 8.645140e-14 8.903409e-14 8.981509e-14 9.310328e-14 9.617235e-14 9.930597e-14 1.011435e-13 1.042190e-13 1.066600e-13 1.097741e-13 1.123157e-13 1.154085e-13 1.185556e-13 1.212839e-13 1.241629e-13 1.266473e-13 1.306394e-13 1.333208e-13 1.379869e-13 1.404525e-13 1.443543e-13 1.475564e-13 1.520898e-13 1.534803e-13 1.580958e-13 1.587327e-13 1.624540e-13 1.639201e-13 1.659882e-13 1.669141e-13 1.703857e-13 1.700335e-13 1.747321e-13 1.727811e-13 1.772899e-13 1.770786e-13 1.782748e-13 1.766024e-13 1.780764e-13 1.756200e-13 1.755687e-13 1.713303e-13 1.714908e-13 1.676159e-13 1.684448e-13 1.633073e-13 1.630308e-13 1.606278e-13 1.568243e-13 1.523317e-13 1.492522e-13 1.482468e-13 1.446207e-13 1.421896e-13 1.393482e-13 1.365762e-13 1.330297e-13 1.291793e-13 1.262453e-13 1.227308e-13 1.193637e-13 1.164858e-13 1.129845e-13 1.121890e-13 1.105462e-13 1.083138e-13 1.048838e-13 1.020341e-13 9.942448e-14 9.677319e-14 9.224320e-14 9.301112e-14 8.889527e-14 9.090599e-14 8.708388e-14 8.634462e-14 8.041491e-14 7.672810e-14 7.469429e-14 7.449203e-14 6.971319e-14 6.943139e-14 6.488583e-14 6.425002e-14 6.107578e-14 6.167626e-14 5.848060e-14 5.925699e-14 5.574784e-14 5.578039e-14 5.514061e-14 5.449733e-14 5.197503e-14 5.228961e-14 5.059671e-14 5.174131e-14 5.033156e-14 5.100387e-14 4.923772e-14 5.046753e-14 5.017717e-14 5.206278e-14 5.154790e-14 
-5.700467e-02 -5.680740e-02 -5.658101e-02 -5.611066e-02 -5.563577e-02 -5.491891e-02 -5.422121e-02 -5.328346e-02 -5.238746e-02 -5.125310e-02 -5.018185e-02 -4.887370e-02 -4.764867e-02 -4.618817e-02 -4.482939e-02 -4.323677e-02 -4.176296e-02 -4.005747e-02 -3.848626e-02 -3.668629e-02 -3.503438e-02 -3.315749e-02 -3.144067e-02 -2.950355e-02 -2.773664e-02 -2.575484e-02 -2.395150e-02 -2.193909e-02 -2.011155e-02 -1.808076e-02 -1.623949e-02 -1.420030e-02 -1.235367e-02 -1.031351e-02 -8.467587e-03 -6.431187e-03 -4.589581e-03 -2.558987e-03 -7.229205e-04 1.302223e-03 3.133670e-03 5.155623e-03 6.985048e-03 9.007236e-03 1.083825e-02 1.286435e-02 1.470076e-02 1.673363e-02 1.857847e-02 2.061906e-02 2.247362e-02 2.451982e-02 2.638264e-02 2.842833e-02 3.029426e-02 3.232844e-02 3.418794e-02 3.619412e-02 3.803267e-02 3.998859e-02 4.178636e-02 4.366404e-02 4.539590e-02 4.716198e-02 4.879777e-02 5.041430e-02 5.191942e-02 5.334491e-02 5.468122e-02 5.587203e-02 5.699902e-02 5.791098e-02 5.878722e-02 5.937744e-02 5.996215e-02 6.019091e-02 6.044577e-02 6.027848e-02 6.016944e-02 5.957851e-02 5.907765e-02 5.804425e-02 5.713154e-02 5.564710e-02 5.431199e-02 5.237943e-02 5.062222e-02 4.825678e-02 4.608959e-02 4.331917e-02 4.076649e-02 3.763146e-02 3.473016e-02 3.128259e-02 2.808128e-02 2.438356e-02 2.094134e-02 1.706420e-02 1.344874e-02 9.468764e-03 5.753810e-03 1.750526e-03 -1.987058e-03 -5.934328e-03 -9.617793e-03 -1.343310e-02 -1.698908e-02 -2.060283e-02 -2.396437e-02 -2.731587e-02 -3.042499e-02 -3.346438e-02 -3.627399e-02 -3.896340e-02 -4.143837e-02 -4.375232e-02 -4.586975e-02 -4.779474e-02 -4.954349e-02 -5.107697e-02 -5.245648e-02 -5.360533e-02 -5.462402e-02 -5.540272e-02 -5.607613e-02 -5.650484e-02 -5.685367e-02 -5.695635e-02 
-1.141762e-01 -1.137748e-01 -1.133100e-01 -1.123630e-01 -1.114017e-01 -1.099625e-01 -1.085562e-01 -1.066762e-01 -1.048740e-01 -1.026018e-01 -1.004497e-01 -9.783082e-02 -9.537187e-02 -9.244909e-02 -8.972315e-02 -8.653690e-02 -8.358137e-02 -8.016999e-02 -7.702009e-02 -7.342024e-02 -7.010935e-02 -6.635608e-02 -6.291579e-02 -5.904236e-02 -5.550237e-02 -5.153979e-02 -4.792749e-02 -4.390382e-02 -4.024375e-02 -3.618335e-02 -3.249648e-02 -2.841921e-02 -2.472234e-02 -2.064295e-02 -1.694820e-02 -1.287598e-02 -9.190525e-03 -5.129427e-03 -1.455605e-03 2.595271e-03 6.259441e-03 1.030480e-02 1.396470e-02 1.801159e-02 2.167466e-02 2.573062e-02 2.940470e-02 3.347563e-02 3.716702e-02 4.125497e-02 4.496643e-02 4.906732e-02 5.279609e-02 5.689773e-02 6.063365e-02 6.471402e-02 6.843804e-02 7.246411e-02 7.614712e-02 8.007423e-02 8.367646e-02 8.744838e-02 9.091935e-02 9.446904e-02 9.774814e-02 1.009993e-01 1.040169e-01 1.068860e-01 1.095655e-01 1.119647e-01 1.142247e-01 1.160650e-01 1.178221e-01 1.190170e-01 1.201893e-01 1.206588e-01 1.211691e-01 1.208436e-01 1.206235e-01 1.194470e-01 1.184405e-01 1.163751e-01 1.145418e-01 1.115699e-01 1.088887e-01 1.050162e-01 1.014876e-01 9.674500e-02 9.239350e-02 8.683678e-02 8.171166e-02 7.542203e-02 6.959748e-02 6.267973e-02 5.625358e-02 4.883328e-02 4.192447e-02 3.414404e-02 2.688876e-02 1.890237e-02 1.144902e-02 3.416767e-03 -4.080059e-03 -1.199853e-02 -1.938452e-02 -2.703645e-02 -3.416417e-02 -4.140970e-02 -4.814475e-02 -5.486203e-02 -6.108820e-02 -6.717730e-02 -7.280035e-02 -7.818558e-02 -8.313546e-02 -8.776612e-02 -9.199743e-02 -9.584699e-02 -9.933796e-02 -1.024019e-01 -1.051520e-01 -1.074447e-01 -1.094715e-01 -1.110226e-01 -1.123578e-01 -1.132082e-01 -1.138936e-01 -1.140918e-01 
-1.715887e-01 -1.709700e-01 -1.702646e-01 -1.688270e-01 -1.673766e-01 -1.652004e-01 -1.630828e-01 -1.602453e-01 -1.575342e-01 -1.541083e-01 -1.508731e-01 -1.469272e-01 -1.432321e-01 -1.388303e-01 -1.347353e-01 -1.299382e-01 -1.254991e-01 -1.203643e-01 -1.156339e-01 -1.102164e-01 -1.052449e-01 -9.959760e-02 -9.443232e-02 -8.860542e-02 -8.329103e-02 -7.733154e-02 -7.190930e-02 -6.585985e-02 -6.036677e-02 -5.426442e-02 -4.873221e-02 -4.260720e-02 -3.706124e-02 -3.093604e-02 -2.539464e-02 -1.928338e-02 -1.375732e-02 -7.665886e-03 -2.158575e-03 3.914607e-03 9.406382e-03 1.546882e-02 2.095351e-02 2.701641e-02 3.250568e-02 3.858111e-02 4.408732e-02 5.018499e-02 5.571825e-02 6.184209e-02 6.740724e-02 7.355198e-02 7.914553e-02 8.529361e-02 9.090094e-02 9.701994e-02 1.026130e-01 1.086537e-01 1.141892e-01 1.200849e-01 1.255033e-01 1.311697e-01 1.363954e-01 1.417316e-01 1.466736e-01 1.515647e-01 1.561181e-01 1.604382e-01 1.644876e-01 1.681043e-01 1.715267e-01 1.743055e-01 1.769749e-01 1.787853e-01 1.805777e-01 1.812986e-01 1.820972e-01 1.816229e-01 1.813238e-01 1.795698e-01 1.780873e-01 1.749956e-01 1.722680e-01 1.678117e-01 1.638062e-01 1.579931e-01 1.527095e-01 1.455851e-01 1.390592e-01 1.307074e-01 1.230126e-01 1.135554e-01 1.048029e-01 9.439779e-02 8.473479e-02 7.357086e-02 6.317653e-02 5.146853e-02 4.054837e-02 2.852895e-02 1.730717e-02 5.218051e-03 -6.071519e-03 -1.798920e-02 -2.911305e-02 -4.062848e-02 -5.136345e-02 -6.226532e-02 -7.240797e-02 -8.251228e-02 -9.188680e-02 -1.010428e-01 -1.095068e-01 -1.176004e-01 -1.250483e-01 -1.320036e-01 -1.383670e-01 -1.441445e-01 -1.493913e-01 -1.539849e-01 -1.581150e-01 -1.615470e-01 -1.645876e-01 -1.669035e-01 -1.689030e-01 -1.701652e-01 -1.711876e-01 -1.714695e-01 
-2.295012e-01 -2.286443e-01 -2.276620e-01 -2.257146e-01 -2.237405e-01 -2.208108e-01 -2.179491e-01 -2.141405e-01 -2.104901e-01 -2.059000e-01 -2.015530e-01 -1.962724e-01 -1.913145e-01 -1.854286e-01 -1.799393e-01 -1.735285e-01 -1.675821e-01 -1.607228e-01 -1.543896e-01 -1.471549e-01 -1.405015e-01 -1.329617e-01 -1.260514e-01 -1.182736e-01 -1.111662e-01 -1.032130e-01 -9.596384e-02 -8.789217e-02 -8.055101e-02 -7.241037e-02 -6.501980e-02 -5.685053e-02 -4.944464e-02 -4.127655e-02 -3.387982e-02 -2.573145e-02 -1.835814e-02 -1.023682e-02 -2.891101e-03 5.205963e-03 1.252899e-02 2.061267e-02 2.792509e-02 3.601135e-02 4.332972e-02 5.143574e-02 5.877761e-02 6.691746e-02 7.429748e-02 8.247743e-02 8.990314e-02 9.811709e-02 1.055848e-01 1.138100e-01 1.213009e-01 1.294946e-01 1.369717e-01 1.450685e-01 1.524742e-01 1.603847e-01 1.676396e-01 1.752504e-01 1.822529e-01 1.894287e-01 1.960563e-01 2.026421e-01 2.087541e-01 2.145801e-01 2.200206e-01 2.249079e-01 2.295112e-01 2.332782e-01 2.368743e-01 2.393443e-01 2.417658e-01 2.427747e-01 2.438638e-01 2.432683e-01 2.428844e-01 2.405695e-01 2.385967e-01 2.344831e-01 2.308378e-01 2.248883e-01 2.195253e-01 2.117496e-01 2.046682e-01 1.951267e-01 1.863746e-01 1.751797e-01 1.648555e-01 1.521713e-01 1.404244e-01 1.264632e-01 1.134921e-01 9.850899e-02 8.455520e-02 6.884016e-02 5.418117e-02 3.804837e-02 2.298695e-02 6.762927e-03 -8.385170e-03 -2.437473e-02 -3.929427e-02 -5.473784e-02 -6.912784e-02 -8.374057e-02 -9.732704e-02 -1.108614e-01 -1.234081e-01 -1.356618e-01 -1.469781e-01 -1.577991e-01 -1.677444e-01 -1.770321e-01 -1.855166e-01 -1.932201e-01 -2.002026e-01 -2.063160e-01 -2.117988e-01 -2.163546e-01 -2.203764e-01 -2.234377e-01 -2.260660e-01 -2.277184e-01 -2.290407e-01 -2.293844e-01 
-2.878979e-01 -2.867762e-01 -2.855122e-01 -2.830268e-01 -2.805232e-01 -2.768105e-01 -2.731990e-01 -2.683887e-01 -2.637934e-01 -2.580076e-01 -2.525440e-01 -2.458962e-01 -2.396712e-01 -2.322677e-01 -2.253803e-01 -2.173212e-01 -2.098641e-01 -2.012448e-01 -1.933054e-01 -1.842176e-01 -1.758790e-01 -1.664110e-01 -1.577526e-01 -1.479890e-01 -1.390858e-01 -1.291060e-01 -1.200279e-01 -1.099044e-01 -1.007140e-01 -9.050987e-02 -8.126128e-02 -7.102801e-02 -6.176437e-02 -5.154000e-02 -4.229225e-02 -3.210024e-02 -2.288622e-02 -1.273551e-02 -3.560087e-03 6.553656e-03 1.569740e-02 2.578916e-02 3.491755e-02 4.500910e-02 5.414437e-02 6.425943e-02 7.342535e-02 8.358391e-02 9.280078e-02 1.030131e-01 1.122924e-01 1.225532e-01 1.318920e-01 1.421749e-01 1.515516e-01 1.618046e-01 1.711743e-01 1.813165e-01 1.906081e-01 2.005281e-01 2.096426e-01 2.191986e-01 2.280090e-01 2.370304e-01 2.453830e-01 2.536746e-01 2.613918e-01 2.687393e-01 2.756246e-01 2.818014e-01 2.876451e-01 2.924214e-01 2.970080e-01 3.001597e-01 3.032766e-01 3.045952e-01 3.060417e-01 3.053447e-01 3.049411e-01 3.020819e-01 2.996797e-01 2.945563e-01 2.900472e-01 2.826107e-01 2.759351e-01 2.661959e-01 2.573503e-01 2.453828e-01 2.344249e-01 2.203696e-01 2.074217e-01 1.914844e-01 1.767339e-01 1.591818e-01 1.428780e-01 1.240331e-01 1.064811e-01 8.670963e-02 6.826049e-02 4.796001e-02 2.899742e-02 8.581496e-03 -1.049379e-02 -3.061246e-02 -4.940010e-02 -6.882672e-02 -8.694437e-02 -1.053181e-01 -1.224179e-01 -1.394256e-01 -1.552081e-01 -1.705944e-01 -1.848186e-01 -1.983924e-01 -2.108814e-01 -2.225173e-01 -2.331592e-01 -2.427952e-01 -2.515402e-01 -2.591713e-01 -2.660248e-01 -2.716947e-01 -2.767085e-01 -2.804993e-01 -2.837609e-01 -2.857829e-01 -2.874051e-01 -2.877866e-01 
-3.471259e-01 -3.457034e-01 -3.440963e-01 -3.410404e-01 -3.379492e-01 -3.334256e-01 -3.290096e-01 -3.231751e-01 -3.175841e-01 -3.105851e-01 -3.039575e-01 -2.959300e-01 -2.883936e-01 -2.794643e-01 -2.711373e-01 -2.614255e-01 -2.524182e-01 -2.420376e-01 -2.324545e-01 -2.215147e-01 -2.114554e-01 -2.000622e-01 -1.896222e-01 -1.778773e-01 -1.671471e-01 -1.551463e-01 -1.442106e-01 -1.320415e-01 -1.209766e-01 -1.087154e-01 -9.758700e-02 -8.529593e-02 -7.415648e-02 -6.188116e-02 -5.076811e-02 -3.853622e-02 -2.747076e-02 -1.529200e-02 -4.279159e-03 7.853250e-03 1.882316e-02 3.092928e-02 4.187779e-02 5.398626e-02 6.494246e-02 7.708449e-02 8.807961e-02 1.002821e-01 1.113433e-01 1.236213e-01 1.347650e-01 1.471146e-01 1.583399e-01 1.707316e-01 1.820143e-01 1.943869e-01 2.056745e-01 2.179314e-01 2.291391e-01 2.411462e-01 2.521550e-01 2.637405e-01 2.743967e-01 2.853535e-01 2.954704e-01 3.055607e-01 3.149225e-01 3.238847e-01 3.322516e-01 3.398088e-01 3.469251e-01 3.527958e-01 3.583983e-01 3.623074e-01 3.661359e-01 3.678275e-01 3.696360e-01 3.688853e-01 3.684535e-01 3.650791e-01 3.622242e-01 3.560994e-01 3.506875e-01 3.417500e-01 3.337065e-01 3.219667e-01 3.112852e-01 2.968317e-01 2.835809e-01 2.665834e-01 2.509108e-01 2.316193e-01 2.137522e-01 1.924921e-01 1.727344e-01 1.498985e-01 1.286224e-01 1.046585e-01 8.229294e-02 5.768735e-02 3.470189e-02 9.960677e-03 -1.315421e-02 -3.752603e-02 -6.028046e-02 -8.380016e-02 -1.057268e-01 -1.279539e-01 -1.486283e-01 -1.691816e-01 -1.882398e-01 -2.068099e-01 -2.239603e-01 -2.403175e-01 -2.553479e-01 -2.693436e-01 -2.821225e-01 -2.936858e-01 -3.041576e-01 -3.132878e-01 -3.214645e-01 -3.282202e-01 -3.341698e-01 -3.386556e-01 -3.424892e-01 -3.448433e-01 -3.467020e-01 -3.470833e-01 
-4.070858e-01 -4.053216e-01 -4.033628e-01 -3.996934e-01 -3.960051e-01 -3.906259e-01 -3.853963e-01 -3.784915e-01 -3.718964e-01 -3.636370e-01 -3.558381e-01 -3.463823e-01 -3.375282e-01 -3.270228e-01 -3.172505e-01 -3.058341e-01 -2.952715e-01 -2.830761e-01 -2.718443e-01 -2.589979e-01 -2.472129e-01 -2.338398e-01 -2.216131e-01 -2.078334e-01 -1.952717e-01 -1.811993e-01 -1.684023e-01 -1.541417e-01 -1.412001e-01 -1.268427e-01 -1.138344e-01 -9.945490e-02 -8.644255e-02 -7.209554e-02 -5.912349e-02 -4.484178e-02 -3.193481e-02 -1.772911e-02 -4.892326e-03 9.247046e-03 2.202662e-02 3.612596e-02 4.887595e-02 6.297250e-02 7.573012e-02 8.986484e-02 1.026703e-01 1.168795e-01 1.297686e-01 1.440747e-01 1.570708e-01 1.714740e-01 1.845799e-01 1.990495e-01 2.122404e-01 2.267081e-01 2.399254e-01 2.542803e-01 2.674269e-01 2.815131e-01 2.944506e-01 3.080666e-01 3.206154e-01 3.335173e-01 3.454577e-01 3.573644e-01 3.684418e-01 3.790431e-01 3.889737e-01 3.979409e-01 4.064209e-01 4.134191e-01 4.201354e-01 4.248368e-01 4.294791e-01 4.315779e-01 4.338516e-01 4.330787e-01 4.327193e-01 4.288565e-01 4.256431e-01 4.185366e-01 4.123059e-01 4.018781e-01 3.925367e-01 3.787962e-01 3.663314e-01 3.493797e-01 3.338680e-01 3.139028e-01 2.955151e-01 2.728298e-01 2.518323e-01 2.268110e-01 2.035616e-01 1.766692e-01 1.516087e-01 1.233761e-01 9.701406e-02 6.801915e-02 4.091475e-02 1.175963e-02 -1.550213e-02 -4.421617e-02 -7.105038e-02 -9.874856e-02 -1.245972e-01 -1.507555e-01 -1.751124e-01 -1.992782e-01 -2.217101e-01 -2.435175e-01 -2.636791e-01 -2.828582e-01 -3.005003e-01 -3.168788e-01 -3.318491e-01 -3.453482e-01 -3.575861e-01 -3.682108e-01 -3.777362e-01 -3.855615e-01 -3.924610e-01 -3.976164e-01 -4.020271e-01 -4.046808e-01 -4.067743e-01 -4.071179e-01 
-4.682043e-01 -4.660457e-01 -4.636480e-01 -4.593181e-01 -4.549503e-01 -4.486759e-01 -4.425560e-01 -4.345491e-01 -4.268789e-01 -4.173350e-01 -4.082992e-01 -3.973980e-01 -3.871650e-01 -3.750729e-01 -3.637978e-01 -3.506713e-01 -3.384986e-01 -3.244874e-01 -3.115546e-01 -2.968039e-01 -2.832433e-01 -2.678951e-01 -2.538346e-01 -2.380269e-01 -2.235894e-01 -2.074536e-01 -1.927549e-01 -1.764121e-01 -1.615578e-01 -1.451139e-01 -1.301950e-01 -1.137365e-01 -9.882599e-02 -8.241573e-02 -6.756504e-02 -5.123990e-02 -3.647711e-02 -2.024761e-02 -5.577164e-03 1.057059e-02 2.516608e-02 4.126603e-02 5.582176e-02 7.192126e-02 8.648425e-02 1.026354e-01 1.172568e-01 1.335068e-01 1.482327e-01 1.646127e-01 1.794752e-01 1.959903e-01 2.109973e-01 2.276163e-01 2.427434e-01 2.593912e-01 2.745739e-01 2.911250e-01 3.062536e-01 3.225291e-01 3.374453e-01 3.532126e-01 3.677088e-01 3.826846e-01 3.965064e-01 4.103632e-01 4.232140e-01 4.355894e-01 4.471384e-01 4.576474e-01 4.675396e-01 4.757889e-01 4.836578e-01 4.892622e-01 4.947437e-01 4.973427e-01 5.000909e-01 4.993663e-01 4.990695e-01 4.947620e-01 4.911592e-01 4.830848e-01 4.759814e-01 4.640448e-01 4.533277e-01 4.375344e-01 4.231848e-01 4.036491e-01 3.857524e-01 3.627018e-01 3.414541e-01 3.152289e-01 2.909385e-01 2.619862e-01 2.350697e-01 2.039333e-01 1.749058e-01 1.422068e-01 1.116650e-01 7.808075e-02 4.668046e-02 1.291747e-02 -1.865457e-02 -5.189083e-02 -8.294805e-02 -1.149838e-01 -1.448719e-01 -1.750940e-01 -2.032211e-01 -2.311020e-01 -2.569636e-01 -2.820796e-01 -3.052765e-01 -3.273181e-01 -3.475656e-01 -3.663397e-01 -3.834687e-01 -3.988922e-01 -4.128414e-01 -4.249300e-01 -4.357326e-01 -4.445831e-01 -4.523494e-01 -4.581216e-01 -4.630196e-01 -4.659163e-01 -4.681525e-01 -4.684022e-01 
-5.303081e-01 -5.276988e-01 -5.248484e-01 -5.197992e-01 -5.147379e-01 -5.075080e-01 -5.004846e-01 -4.913142e-01 -4.825574e-01 -4.716663e-01 -4.613836e-01 -4.489727e-01 -4.373525e-01 -4.236070e-01 -4.108218e-01 -3.959159e-01 -3.821266e-01 -3.662274e-01 -3.515872e-01 -3.348579e-01 -3.195149e-01 -3.021167e-01 -2.862152e-01 -2.683056e-01 -2.519854e-01 -2.337158e-01 -2.171096e-01 -1.986204e-01 -1.818494e-01 -1.632642e-01 -1.464337e-01 -1.278533e-01 -1.110477e-01 -9.254521e-02 -7.582392e-02 -5.744177e-02 -4.083657e-02 -2.258548e-02 -6.100089e-03 1.203870e-02 2.842671e-02 4.649645e-02 6.283110e-02 8.089176e-02 9.723170e-02 1.153499e-01 1.317593e-01 1.499964e-01 1.665346e-01 1.849344e-01 2.016445e-01 2.202207e-01 2.371184e-01 2.558428e-01 2.729065e-01 2.916996e-01 3.088614e-01 3.275852e-01 3.447246e-01 3.631783e-01 3.801183e-01 3.980385e-01 4.145446e-01 4.316083e-01 4.473911e-01 4.632233e-01 4.779440e-01 4.921283e-01 5.054074e-01 5.175004e-01 5.289296e-01 5.384774e-01 5.476337e-01 5.541906e-01 5.606526e-01 5.638007e-01 5.671665e-01 5.665355e-01 5.664414e-01 5.617282e-01 5.578675e-01 5.488547e-01 5.409964e-01 5.275681e-01 5.155741e-01 4.977301e-01 4.815704e-01 4.594357e-01 4.392003e-01 4.130307e-01 3.889378e-01 3.591197e-01 3.315177e-01 2.985619e-01 2.679262e-01 2.324552e-01 1.993765e-01 1.621050e-01 1.272708e-01 8.897969e-02 5.314795e-02 1.465288e-02 -2.138087e-02 -5.926439e-02 -9.470390e-02 -1.311970e-01 -1.652834e-01 -1.996782e-01 -2.317262e-01 -2.634151e-01 -2.928424e-01 -3.213404e-01 -3.476891e-01 -3.726451e-01 -3.955928e-01 -4.167923e-01 -4.361518e-01 -4.535091e-01 -4.692197e-01 -4.827629e-01 -4.948736e-01 -5.047247e-01 -5.133728e-01 -5.197246e-01 -5.251127e-01 -5.282063e-01 -5.305794e-01 -5.306829e-01 
-5.938911e-01 -5.907594e-01 -5.873412e-01 -5.815102e-01 -5.756480e-01 -5.674107e-01 -5.593850e-01 -5.490102e-01 -5.390762e-01 -5.268077e-01 -5.151949e-01 -5.012538e-01 -4.881690e-01 -4.727579e-01 -4.583898e-01 -4.416991e-01 -4.262237e-01 -4.084364e-01 -3.920218e-01 -3.733183e-01 -3.561284e-01 -3.366874e-01 -3.188833e-01 -2.988815e-01 -2.806207e-01 -2.602290e-01 -2.416619e-01 -2.210393e-01 -2.023043e-01 -1.815915e-01 -1.628091e-01 -1.421204e-01 -1.233871e-01 -1.028050e-01 -8.418846e-02 -6.375949e-02 -4.529472e-02 -2.502830e-02 -6.717349e-03 1.341190e-02 3.159803e-02 5.164459e-02 6.976079e-02 8.979923e-02 1.079182e-01 1.280315e-01 1.462331e-01 1.664992e-01 1.848583e-01 2.053351e-01 2.239085e-01 2.446198e-01 2.634329e-01 2.843545e-01 3.033901e-01 3.244385e-01 3.436258e-01 3.646501e-01 3.838575e-01 4.046341e-01 4.236648e-01 4.438972e-01 4.624876e-01 4.818102e-01 4.996330e-01 5.176189e-01 5.342892e-01 5.504631e-01 5.655486e-01 5.794029e-01 5.924372e-01 6.034508e-01 6.139498e-01 6.216100e-01 6.290903e-01 6.329149e-01 6.369146e-01 6.364748e-01 6.365744e-01 6.315175e-01 6.273617e-01 6.174320e-01 6.087509e-01 5.938088e-01 5.804380e-01 5.604755e-01 5.423735e-01 5.175266e-01 4.947891e-01 4.653438e-01 4.382135e-01 4.046064e-01 3.734765e-01 3.362884e-01 3.016986e-01 2.616398e-01 2.242643e-01 1.821527e-01 1.427787e-01 9.950984e-02 5.900739e-02 1.551781e-02 -2.519868e-02 -6.797233e-02 -1.079874e-01 -1.491513e-01 -1.875937e-01 -2.263374e-01 -2.624225e-01 -2.980540e-01 -3.311189e-01 -3.630895e-01 -3.926179e-01 -4.205366e-01 -4.461710e-01 -4.698057e-01 -4.913463e-01 -5.106145e-01 -5.280078e-01 -5.429576e-01 -5.562757e-01 -5.670616e-01 -5.764764e-01 -5.833320e-01 -5.890876e-01 -5.922985e-01 -5.946844e-01 -5.945639e-01 
-6.587190e-01 -6.549917e-01 -6.509847e-01 -6.442967e-01 -6.376133e-01 -6.282926e-01 -6.192466e-01 -6.075909e-01 -5.964646e-01 -5.827411e-01 -5.697861e-01 -5.542349e-01 -5.396760e-01 -5.225163e-01 -5.065573e-01 -4.879948e-01 -4.708257e-01 -4.510593e-01 -4.328625e-01 -4.120896e-01 -3.930442e-01 -3.714632e-01 -3.517471e-01 -3.295562e-01 -3.093451e-01 -2.867380e-01 -2.662011e-01 -2.433599e-01 -2.226541e-01 -1.997402e-01 -1.790031e-01 -1.561485e-01 -1.354902e-01 -1.127899e-01 -9.228736e-02 -6.979395e-02 -4.948655e-02 -2.720874e-02 -7.096861e-03 1.499820e-02 3.495095e-02 5.693125e-02 7.679226e-02 9.875054e-02 1.186089e-01 1.406491e-01 1.606034e-01 1.828247e-01 2.029690e-01 2.254489e-01 2.458571e-01 2.686343e-01 2.893454e-01 3.124041e-01 3.334082e-01 3.566647e-01 3.778913e-01 4.011844e-01 4.224934e-01 4.455782e-01 4.667546e-01 4.893020e-01 5.100544e-01 5.316553e-01 5.516188e-01 5.717930e-01 5.905360e-01 6.087470e-01 6.257826e-01 6.414555e-01 6.562564e-01 6.688000e-01 6.808171e-01 6.896478e-01 6.983311e-01 7.028987e-01 7.077203e-01 7.075340e-01 7.080120e-01 7.026655e-01 6.983891e-01 6.875847e-01 6.782378e-01 6.618080e-01 6.471927e-01 6.251186e-01 6.051751e-01 5.776003e-01 5.524243e-01 5.196627e-01 4.895169e-01 4.520540e-01 4.173732e-01 3.758596e-01 3.372473e-01 2.924827e-01 2.506984e-01 2.036071e-01 1.595426e-01 1.111400e-01 6.578465e-02 1.713497e-02 -2.846798e-02 -7.629886e-02 -1.211035e-01 -1.670982e-01 -2.101091e-01 -2.533466e-01 -2.936688e-01 -3.333653e-01 -3.702464e-01 -4.057852e-01 -4.386440e-01 -4.695911e-01 -4.980317e-01 -5.241375e-01 -5.479473e-01 -5.691340e-01 -5.882687e-01 -6.046082e-01 -6.191668e-01 -6.308506e-01 -6.410446e-01 -6.483517e-01 -6.544720e-01 -6.577374e-01 -6.601229e-01 -6.597088e-01 
-7.253347e-01 -7.209181e-01 -7.161778e-01 -7.085528e-01 -7.009156e-01 -6.904464e-01 -6.802596e-01 -6.672733e-01 -6.548456e-01 -6.396317e-01 -6.252350e-01 -6.080511e-01 -5.919258e-01 -5.730054e-01 -5.553685e-01 -5.349304e-01 -5.159840e-01 -4.942408e-01 -4.741803e-01 -4.513452e-01 -4.303648e-01 -4.066543e-01 -3.849494e-01 -3.605827e-01 -3.383482e-01 -3.135413e-01 -2.909673e-01 -2.659247e-01 -2.431885e-01 -2.180921e-01 -1.953496e-01 -1.703481e-01 -1.477246e-01 -1.229241e-01 -1.005063e-01 -7.596395e-02 -5.379488e-02 -2.951680e-02 -7.594033e-03 1.646239e-02 3.818467e-02 6.210337e-02 8.370778e-02 1.076023e-01 1.291976e-01 1.531953e-01 1.749025e-01 1.991267e-01 2.210623e-01 2.456123e-01 2.678709e-01 2.928025e-01 3.154393e-01 3.407466e-01 3.637612e-01 3.893611e-01 4.126843e-01 4.384050e-01 4.618879e-01 4.874621e-01 5.108702e-01 5.359338e-01 5.589451e-01 5.830415e-01 6.052496e-01 6.278403e-01 6.487618e-01 6.692425e-01 6.883302e-01 7.060512e-01 7.227111e-01 7.370024e-01 7.506141e-01 7.608127e-01 7.707535e-01 7.762323e-01 7.819028e-01 7.821003e-01 7.829518e-01 7.774004e-01 7.729621e-01 7.613157e-01 7.512225e-01 7.332811e-01 7.172992e-01 6.930302e-01 6.710812e-01 6.406354e-01 6.128157e-01 5.765374e-01 5.431327e-01 5.015618e-01 4.630535e-01 4.169183e-01 3.739815e-01 3.241821e-01 2.776713e-01 2.252519e-01 1.761754e-01 1.222858e-01 7.176598e-02 1.761422e-02 -3.316321e-02 -8.636683e-02 -1.362123e-01 -1.873133e-01 -2.350959e-01 -2.830521e-01 -3.277591e-01 -3.716885e-01 -4.124738e-01 -4.516893e-01 -4.879075e-01 -5.219347e-01 -5.531559e-01 -5.817335e-01 -6.077395e-01 -6.308037e-01 -6.515693e-01 -6.692255e-01 -6.848873e-01 -6.973746e-01 -7.081939e-01 -7.158470e-01 -7.221707e-01 -7.253826e-01 -7.276069e-01 -7.267959e-01 
-7.934608e-01 -7.882626e-01 -7.827581e-01 -7.741033e-01 -7.654841e-01 -7.537747e-01 -7.424235e-01 -7.280153e-01 -7.142679e-01 -6.974718e-01 -6.816198e-01 -6.627091e-01 -6.450075e-01 -6.242280e-01 -6.049052e-01 -5.824872e-01 -5.617560e-01 -5.379250e-01 -5.159924e-01 -4.909775e-01 -4.680518e-01 -4.420900e-01 -4.183837e-01 -3.917180e-01 -3.674464e-01 -3.403200e-01 -3.156953e-01 -2.883407e-01 -2.635627e-01 -2.361882e-01 -2.114339e-01 -1.842103e-01 -1.596221e-01 -1.326713e-01 -1.083480e-01 -8.173449e-02 -5.772416e-02 -3.145237e-02 -7.750001e-03 1.823354e-02 4.168408e-02 6.748238e-02 9.078108e-02 1.165332e-01 1.398118e-01 1.656748e-01 1.890806e-01 2.152085e-01 2.388852e-01 2.654063e-01 2.894738e-01 3.164675e-01 3.410019e-01 3.684781e-01 3.934931e-01 4.213741e-01 4.468053e-01 4.749123e-01 5.006054e-01 5.286504e-01 5.543540e-01 5.819381e-01 6.073012e-01 6.339195e-01 6.584945e-01 6.835480e-01 7.067994e-01 7.296126e-01 7.509309e-01 7.707757e-01 7.894967e-01 8.056200e-01 8.210473e-01 8.327022e-01 8.441344e-01 8.506125e-01 8.573714e-01 8.580357e-01 8.594972e-01 8.538141e-01 8.494387e-01 8.370089e-01 8.263727e-01 8.069586e-01 7.897830e-01 7.633335e-01 7.395122e-01 7.061813e-01 6.758037e-01 6.359625e-01 5.993307e-01 5.535710e-01 5.112089e-01 4.603366e-01 4.129890e-01 3.580058e-01 3.066243e-01 2.486982e-01 1.944133e-01 1.348356e-01 7.891252e-02 1.904361e-02 -3.717580e-02 -9.596993e-02 -1.511367e-01 -2.075526e-01 -2.603841e-01 -3.132468e-01 -3.625970e-01 -4.109165e-01 -4.558336e-01 -4.988458e-01 -5.386117e-01 -5.757986e-01 -6.099453e-01 -6.410343e-01 -6.693388e-01 -6.942830e-01 -7.167426e-01 -7.356866e-01 -7.524817e-01 -7.657189e-01 -7.771678e-01 -7.850952e-01 -7.916086e-01 -7.946835e-01 -7.967217e-01 -7.954238e-01 
-8.636632e-01 -8.575648e-01 -8.511202e-01 -8.413365e-01 -8.315768e-01 -8.185490e-01 -8.058922e-01 -7.900045e-01 -7.748114e-01 -7.563943e-01 -7.389734e-01 -7.183132e-01 -6.989304e-01 -6.762820e-01 -6.551739e-01 -6.307758e-01 -6.081630e-01 -5.822507e-01 -5.583502e-01 -5.311669e-01 -5.062007e-01 -4.780019e-01 -4.522009e-01 -4.232534e-01 -3.968551e-01 -3.674289e-01 -3.406703e-01 -3.110257e-01 -2.841324e-01 -2.545038e-01 -2.276759e-01 -1.982556e-01 -1.716547e-01 -1.425786e-01 -1.163161e-01 -8.765432e-02 -6.178308e-02 -3.353576e-02 -8.046545e-03 1.985333e-02 4.502962e-02 7.270720e-02 9.769153e-02 1.253147e-01 1.502661e-01 1.780250e-01 2.031217e-01 2.312047e-01 2.566225e-01 2.851897e-01 3.110786e-01 3.402361e-01 3.666968e-01 3.964724e-01 4.235354e-01 4.538582e-01 4.814658e-01 5.121500e-01 5.401425e-01 5.708783e-01 5.989855e-01 6.293368e-01 6.571750e-01 6.865840e-01 7.136598e-01 7.414603e-01 7.671794e-01 7.926171e-01 8.163003e-01 8.385588e-01 8.594637e-01 8.776963e-01 8.950427e-01 9.084070e-01 9.214070e-01 9.291018e-01 9.369918e-01 9.382936e-01 9.403678e-01 9.346670e-01 9.303122e-01 9.171476e-01 9.058771e-01 8.849671e-01 8.664544e-01 8.377255e-01 8.118351e-01 7.754435e-01 7.422581e-01 6.986047e-01 6.584458e-01 6.081805e-01 5.616205e-01 5.056367e-01 4.534991e-01 3.929143e-01 3.362603e-01 2.723832e-01 2.124812e-01 1.467642e-01 8.504004e-02 1.901730e-02 -4.301222e-02 -1.077984e-01 -1.686067e-01 -2.306852e-01 -2.888226e-01 -3.468715e-01 -4.010478e-01 -4.539606e-01 -5.031131e-01 -5.500464e-01 -5.933854e-01 -6.337815e-01 -6.708079e-01 -7.043919e-01 -7.348888e-01 -7.616433e-01 -7.856445e-01 -8.057676e-01 -8.235117e-01 -8.373657e-01 -8.492423e-01 -8.572999e-01 -8.637955e-01 -8.665898e-01 -8.682387e-01 -8.663197e-01 
-9.356446e-01 -9.285319e-01 -9.211031e-01 -9.100793e-01 -8.991413e-01 -8.846875e-01 -8.706954e-01 -8.532235e-01 -8.365633e-01 -8.164213e-01 -7.974173e-01 -7.749012e-01 -7.538283e-01 -7.291990e-01 -7.062994e-01 -6.798006e-01 -6.553000e-01 -6.271755e-01 -6.012987e-01 -5.718053e-01 -5.447866e-01 -5.142008e-01 -4.862890e-01 -4.549054e-01 -4.263612e-01 -3.944832e-01 -3.655707e-01 -3.334943e-01 -3.044672e-01 -2.724612e-01 -2.435470e-01 -2.118327e-01 -1.832157e-01 -1.519497e-01 -1.237571e-01 -9.301908e-02 -6.531050e-02 -3.509792e-02 -7.860734e-03 2.190854e-02 4.875744e-02 7.823494e-02 1.048402e-01 1.342293e-01 1.607814e-01 1.903134e-01 2.170272e-01 2.469337e-01 2.740231e-01 3.045057e-01 3.321567e-01 3.633567e-01 3.917008e-01 4.236719e-01 4.527620e-01 4.854459e-01 5.152357e-01 5.484441e-01 5.787726e-01 6.121763e-01 6.427578e-01 6.758834e-01 7.063040e-01 7.385393e-01 7.682604e-01 7.988691e-01 8.272373e-01 8.553816e-01 8.816461e-01 9.064165e-01 9.297527e-01 9.502033e-01 9.697415e-01 9.849295e-01 9.997879e-01 1.008813e+00 1.018134e+00 1.020182e+00 1.023166e+00 1.017545e+00 1.013495e+00 9.996758e-01 9.880305e-01 9.656810e-01 9.460534e-01 9.150717e-01 8.872857e-01 8.478246e-01 8.119457e-01 7.644304e-01 7.207908e-01 6.659263e-01 6.151400e-01 5.539055e-01 4.968718e-01 4.305015e-01 3.683925e-01 2.983405e-01 2.325691e-01 1.604571e-01 9.262303e-02 2.017075e-02 -4.801612e-02 -1.190748e-01 -1.858884e-01 -2.538981e-01 -3.176986e-01 -3.811741e-01 -4.405059e-01 -4.982107e-01 -5.518834e-01 -6.028857e-01 -6.500273e-01 -6.937257e-01 -7.338020e-01 -7.699207e-01 -8.027225e-01 -8.312793e-01 -8.568835e-01 -8.781383e-01 -8.968512e-01 -9.112447e-01 -9.235376e-01 -9.316279e-01 -9.380739e-01 -9.404783e-01 -9.416951e-01 -9.390409e-01 
-1.009960e+00 -1.001685e+00 -9.930633e-01 -9.806796e-01 -9.683793e-01 -9.524085e-01 -9.369209e-01 -9.178012e-01 -8.995341e-01 -8.776277e-01 -8.569163e-01 -8.325248e-01 -8.096479e-01 -7.830332e-01 -7.582331e-01 -7.296396e-01 -7.031432e-01 -6.728191e-01 -6.448563e-01 -6.130694e-01 -5.838865e-01 -5.509328e-01 -5.207980e-01 -4.869997e-01 -4.562004e-01 -4.218947e-01 -3.907263e-01 -3.562453e-01 -3.249944e-01 -2.906414e-01 -2.595663e-01 -2.255911e-01 -1.949014e-01 -1.614795e-01 -1.313192e-01 -9.853750e-02 -6.897287e-02 -3.682309e-02 -7.836029e-03 2.378245e-02 5.229244e-02 8.356131e-02 1.117673e-01 1.429293e-01 1.710590e-01 2.023911e-01 2.307020e-01 2.624835e-01 2.912342e-01 3.237122e-01 3.531308e-01 3.864860e-01 4.167401e-01 4.510548e-01 4.822238e-01 5.174547e-01 5.495061e-01 5.854632e-01 6.182350e-01 6.545687e-01 6.877579e-01 7.239545e-01 7.571127e-01 7.925008e-01 8.250376e-01 8.588031e-01 8.899976e-01 9.212095e-01 9.502297e-01 9.778733e-01 1.003802e+00 1.026819e+00 1.048687e+00 1.066019e+00 1.082841e+00 1.093475e+00 1.104290e+00 1.107305e+00 1.111215e+00 1.105825e+00 1.102042e+00 1.087638e+00 1.075518e+00 1.051711e+00 1.030805e+00 9.974565e-01 9.675446e-01 9.248031e-01 8.859333e-01 8.342511e-01 7.867684e-01 7.269128e-01 6.714794e-01 6.045277e-01 5.421292e-01 4.694494e-01 4.013841e-01 3.245974e-01 2.524430e-01 1.733659e-01 9.891913e-02 1.948541e-02 -5.532505e-02 -1.331619e-01 -2.063854e-01 -2.807606e-01 -3.505455e-01 -4.197908e-01 -4.845011e-01 -5.472388e-01 -6.055498e-01 -6.607572e-01 -7.117169e-01 -7.587556e-01 -8.018049e-01 -8.404119e-01 -8.753660e-01 -9.056123e-01 -9.326105e-01 -9.548381e-01 -9.742747e-01 -9.890225e-01 -1.001470e+00 -1.009399e+00 -1.015532e+00 -1.017358e+00 -1.017890e+00 -1.014329e+00 