# vtk DataFile Version 2.0
Comment goes here
ASCII

DATASET STRUCTURED_POINTS
FIELD FieldData 1
TIME 1 1 double
0.20500000
DIMENSIONS    128   128   1

ORIGIN    0.000   0.000   0.000
SPACING   0.039062 0.039062   1.000

POINT_DATA   16384
SCALARS uY double
LOOKUP_TABLE default

-3.900603e-14 -4.093355e-14 -3.887699e-14 -4.051869e-14 -3.834201e-14 -4.045064e-14 -3.872144e-14 -4.036296e-14 -3.910542e-14 -4.096774e-14 -3.939595e-14 -4.143381e-14 -4.054022e-14 -4.243118e-14 -4.130736e-14 -4.271883e-14 -4.213543e-14 -4.396112e-14 -4.259826e-14 -4.419568e-14 -4.380642e-14 -4.547822e-14 -4.484355e-14 -4.583813e-14 -4.497609e-14 -4.574364e-14 -4.438234e-14 -4.538387e-14 -4.489978e-14 -4.473954e-14 -4.318198e-14 -4.257194e-14 -4.279181e-14 -4.321699e-14 -4.312859e-14 -4.267571e-14 -4.349973e-14 -4.207925e-14 -4.280928e-14 -4.237591e-14 -4.184673e-14 -4.019133e-14 -3.983673e-14 -3.954823e-14 -3.961179e-14 -3.761235e-14 -3.773073e-14 -3.548119e-14 -3.680925e-14 -3.522112e-14 -3.670609e-14 -3.470554e-14 -3.554864e-14 -3.259119e-14 -3.337125e-14 -3.059413e-14 -3.210066e-14 -2.937018e-14 -3.046029e-14 -2.769648e-14 -2.954470e-14 -2.704165e-14 -2.859032e-14 -2.599999e-14 -2.829644e-14 -2.592217e-14 -2.791519e-14 -2.505730e-14 -2.767865e-14 -2.577326e-14 -2.808876e-14 -2.634048e-14 -2.944799e-14 -2.789641e-14 -3.286028e-14 -3.079879e-14 -3.467831e-14 -3.491406e-14 -3.814991e-14 -3.779359e-14 -3.990439e-14 -3.999782e-14 -4.240268e-14 -4.324797e-14 -4.500257e-14 -4.500854e-14 -4.630121e-14 -4.675232e-14 -4.745558e-14 -4.905254e-14 -4.871528e-14 -4.894185e-14 -4.830157e-14 -5.062693e-14 -4.969814e-14 -5.139163e-14 -5.130629e-14 -5.285744e-14 -5.066341e-14 -5.215794e-14 -5.027012e-14 -5.111195e-14 -4.943085e-14 -4.973357e-14 -4.745357e-14 -4.816733e-14 -4.491468e-14 -4.664614e-14 -4.319930e-14 -4.499165e-14 -4.195619e-14 -4.388421e-14 -4.126519e-14 -4.321663e-14 -4.082083e-14 -4.289202e-14 -4.025601e-14 -4.240639e-14 -4.011817e-14 -4.240160e-14 -3.965838e-14 -4.149829e-14 -3.858080e-14 -4.034523e-14 -3.826295e-14 -4.044420e-14 -3.862752e-14 -4.099534e-14 
-1.158909e-02 -1.198193e-02 -1.226420e-02 -1.257558e-02 -1.277873e-02 -1.299829e-02 -1.311351e-02 -1.323262e-02 -1.325256e-02 -1.326472e-02 -1.318391e-02 -1.308510e-02 -1.290039e-02 -1.268946e-02 -1.240040e-02 -1.207932e-02 -1.168845e-02 -1.126249e-02 -1.077544e-02 -1.025322e-02 -9.678705e-03 -9.071996e-03 -8.421549e-03 -7.744914e-03 -7.032471e-03 -6.302725e-03 -5.544018e-03 -4.779530e-03 -3.991376e-03 -3.211277e-03 -2.410804e-03 -1.634161e-03 -8.380530e-04 -8.306805e-05 6.931266e-04 1.409832e-03 2.152273e-03 2.816253e-03 3.513233e-03 4.112660e-03 4.754863e-03 5.280810e-03 5.861412e-03 6.307971e-03 6.822591e-03 7.186844e-03 7.633364e-03 7.915223e-03 8.293521e-03 8.495460e-03 8.807066e-03 8.933774e-03 9.181494e-03 9.239475e-03 9.427020e-03 9.424162e-03 9.555787e-03 9.500930e-03 9.581122e-03 9.483642e-03 9.516868e-03 9.386287e-03 9.376807e-03 9.222449e-03 9.174201e-03 9.004903e-03 8.921450e-03 8.745316e-03 8.629852e-03 8.454062e-03 8.309459e-03 8.140118e-03 7.968987e-03 7.811005e-03 7.615766e-03 7.472754e-03 7.255684e-03 7.129863e-03 6.893106e-03 6.785216e-03 6.530753e-03 6.439967e-03 6.169548e-03 6.093405e-03 5.808441e-03 5.742821e-03 5.444264e-03 5.383438e-03 5.071675e-03 5.008447e-03 4.683231e-03 4.609219e-03 4.269661e-03 4.175701e-03 3.820348e-03 3.697029e-03 3.324024e-03 3.162312e-03 2.769632e-03 2.561533e-03 2.147290e-03 1.886486e-03 1.449253e-03 1.131647e-03 6.707735e-04 2.948820e-04 -1.892181e-04 -6.220539e-04 -1.127696e-03 -1.613299e-03 -2.137398e-03 -2.668924e-03 -3.206957e-03 -3.775213e-03 -4.321259e-03 -4.915121e-03 -5.461975e-03 -6.068849e-03 -6.608179e-03 -7.214473e-03 -7.737009e-03 -8.328574e-03 -8.824318e-03 -9.386836e-03 -9.845286e-03 -1.036462e-02 -1.077501e-02 -1.123753e-02 
-2.321593e-02 -2.400380e-02 -2.457287e-02 -2.519741e-02 -2.560769e-02 -2.604809e-02 -2.628194e-02 -2.652085e-02 -2.656352e-02 -2.658785e-02 -2.642835e-02 -2.623000e-02 -2.586202e-02 -2.543861e-02 -2.486122e-02 -2.421667e-02 -2.343494e-02 -2.257981e-02 -2.160508e-02 -2.055666e-02 -1.940642e-02 -1.818836e-02 -1.688583e-02 -1.552742e-02 -1.410063e-02 -1.263571e-02 -1.111630e-02 -9.581826e-03 -8.003630e-03 -6.438112e-03 -4.835548e-03 -3.277367e-03 -1.683940e-03 -1.697280e-04 1.383371e-03 2.820175e-03 4.305222e-03 5.635570e-03 7.029159e-03 8.229288e-03 9.512851e-03 1.056485e-02 1.172484e-02 1.261689e-02 1.364471e-02 1.437100e-02 1.526259e-02 1.582305e-02 1.657835e-02 1.697807e-02 1.760035e-02 1.784887e-02 1.834393e-02 1.845445e-02 1.882990e-02 1.881843e-02 1.908293e-02 1.896735e-02 1.913001e-02 1.892930e-02 1.899912e-02 1.873254e-02 1.871807e-02 1.840445e-02 1.831356e-02 1.797073e-02 1.781047e-02 1.745477e-02 1.723142e-02 1.687729e-02 1.659643e-02 1.625613e-02 1.592279e-02 1.560614e-02 1.522493e-02 1.493914e-02 1.451436e-02 1.426382e-02 1.379951e-02 1.358563e-02 1.308548e-02 1.290651e-02 1.237379e-02 1.222470e-02 1.166198e-02 1.153441e-02 1.094340e-02 1.082574e-02 1.020704e-02 1.008475e-02 9.437726e-03 9.293866e-03 8.616655e-03 8.432722e-03 7.722373e-03 7.479368e-03 6.732173e-03 6.411863e-03 5.623842e-03 5.210096e-03 4.377585e-03 3.857661e-03 2.977961e-03 2.343603e-03 1.415613e-03 6.638427e-04 -3.113922e-04 -1.177855e-03 -2.196734e-03 -3.169452e-03 -4.225576e-03 -5.290748e-03 -6.374858e-03 -7.513963e-03 -8.614033e-03 -9.804681e-03 -1.090615e-02 -1.212302e-02 -1.320910e-02 -1.442488e-02 -1.547697e-02 -1.666325e-02 -1.766130e-02 -1.878936e-02 -1.971233e-02 -2.075383e-02 -2.158018e-02 -2.250775e-02 
-3.490629e-02 -3.609657e-02 -3.695320e-02 -3.789773e-02 -3.851596e-02 -3.918327e-02 -3.953628e-02 -3.990012e-02 -3.996540e-02 -4.000588e-02 -3.976659e-02 -3.947133e-02 -3.891766e-02 -3.828288e-02 -3.741320e-02 -3.644465e-02 -3.526640e-02 -3.397992e-02 -3.251007e-02 -3.093165e-02 -2.919656e-02 -2.736187e-02 -2.539659e-02 -2.334987e-02 -2.119681e-02 -1.898920e-02 -1.669627e-02 -1.438367e-02 -1.200207e-02 -9.642702e-03 -7.224595e-03 -4.876454e-03 -2.472575e-03 -1.909886e-04 2.151447e-03 4.316022e-03 6.555069e-03 8.558852e-03 1.065913e-02 1.246635e-02 1.439980e-02 1.598357e-02 1.772978e-02 1.907239e-02 2.061838e-02 2.171124e-02 2.305093e-02 2.389404e-02 2.502741e-02 2.562854e-02 2.656055e-02 2.693416e-02 2.767361e-02 2.783965e-02 2.839802e-02 2.838058e-02 2.877096e-02 2.859699e-02 2.883309e-02 2.853110e-02 2.862651e-02 2.822542e-02 2.819304e-02 2.772112e-02 2.757280e-02 2.705680e-02 2.680324e-02 2.626766e-02 2.591840e-02 2.538493e-02 2.494851e-02 2.443558e-02 2.391977e-02 2.344222e-02 2.285423e-02 2.242297e-02 2.176962e-02 2.139142e-02 2.067916e-02 2.035631e-02 1.959117e-02 1.932126e-02 1.850859e-02 1.828426e-02 1.742841e-02 1.723726e-02 1.634119e-02 1.616589e-02 1.523083e-02 1.504952e-02 1.407474e-02 1.386185e-02 1.284462e-02 1.257214e-02 1.150792e-02 1.114699e-02 1.002999e-02 9.552839e-03 8.376682e-03 7.758699e-03 6.517397e-03 5.739081e-03 4.428028e-03 3.476691e-03 2.093662e-03 9.646462e-04 -4.893339e-04 -1.792020e-03 -3.312025e-03 -4.775678e-03 -6.352492e-03 -7.956263e-03 -9.576272e-03 -1.129217e-02 -1.293750e-02 -1.473167e-02 -1.638056e-02 -1.821477e-02 -1.984202e-02 -2.167505e-02 -2.325265e-02 -2.504165e-02 -2.653938e-02 -2.824106e-02 -2.962717e-02 -3.119882e-02 -3.244075e-02 -3.384115e-02 
-4.671078e-02 -4.831011e-02 -4.946793e-02 -5.073782e-02 -5.157602e-02 -5.247413e-02 -5.295658e-02 -5.344749e-02 -5.354381e-02 -5.360056e-02 -5.328791e-02 -5.289358e-02 -5.215854e-02 -5.130780e-02 -5.014796e-02 -4.884827e-02 -4.727349e-02 -4.554596e-02 -4.357898e-02 -4.145850e-02 -3.913482e-02 -3.666941e-02 -3.403632e-02 -3.128567e-02 -2.840044e-02 -2.543361e-02 -2.236099e-02 -1.925352e-02 -1.606270e-02 -1.289327e-02 -9.654627e-03 -6.501617e-03 -3.283557e-03 -2.216724e-04 2.912272e-03 5.814955e-03 8.808485e-03 1.149298e-02 1.429876e-02 1.671696e-02 1.929767e-02 2.141351e-02 2.374216e-02 2.553207e-02 2.759179e-02 2.904449e-02 3.082774e-02 3.194360e-02 3.345095e-02 3.424084e-02 3.547958e-02 3.596340e-02 3.694591e-02 3.715094e-02 3.789315e-02 3.785226e-02 3.837214e-02 3.812198e-02 3.843824e-02 3.801754e-02 3.814859e-02 3.759656e-02 3.755975e-02 3.691466e-02 3.672580e-02 3.602380e-02 3.569701e-02 3.497115e-02 3.451888e-02 3.379836e-02 3.323163e-02 3.254120e-02 3.186991e-02 3.122942e-02 3.046270e-02 2.988673e-02 2.903315e-02 2.853067e-02 2.759832e-02 2.717231e-02 2.616875e-02 2.581583e-02 2.474777e-02 2.445793e-02 2.333077e-02 2.308719e-02 2.190454e-02 2.168374e-02 2.044693e-02 2.021926e-02 1.892705e-02 1.865780e-02 1.730630e-02 1.695741e-02 1.554039e-02 1.507260e-02 1.358217e-02 1.295767e-02 1.138528e-02 1.057052e-02 8.908193e-03 7.876599e-03 6.118300e-03 4.852559e-03 2.995540e-03 1.489278e-03 -4.647830e-04 -2.206146e-03 -4.250289e-03 -6.209529e-03 -8.331022e-03 -1.047989e-02 -1.266011e-02 -1.496072e-02 -1.717540e-02 -1.958201e-02 -2.180171e-02 -2.426274e-02 -2.645352e-02 -2.891348e-02 -3.103768e-02 -3.343896e-02 -3.545607e-02 -3.774052e-02 -3.960800e-02 -4.171832e-02 -4.339256e-02 -4.527346e-02 
-5.864228e-02 -6.066561e-02 -6.212646e-02 -6.373557e-02 -6.479572e-02 -6.593700e-02 -6.655031e-02 -6.717877e-02 -6.730621e-02 -6.738740e-02 -6.699945e-02 -6.651150e-02 -6.559050e-02 -6.452612e-02 -6.306837e-02 -6.143653e-02 -5.945395e-02 -5.728095e-02 -5.480193e-02 -5.213164e-02 -4.920093e-02 -4.609402e-02 -4.277152e-02 -3.930357e-02 -3.566198e-02 -3.192061e-02 -2.804222e-02 -2.412328e-02 -2.009609e-02 -1.609944e-02 -1.201294e-02 -8.037952e-03 -3.979061e-03 -1.203823e-04 3.830272e-03 7.486541e-03 1.125762e-02 1.463702e-02 1.816869e-02 2.121067e-02 2.445585e-02 2.711519e-02 3.004003e-02 3.228733e-02 3.487082e-02 3.669232e-02 3.892526e-02 4.032187e-02 4.220538e-02 4.319122e-02 4.473483e-02 4.533538e-02 4.655505e-02 4.680500e-02 4.772109e-02 4.766208e-02 4.829744e-02 4.797579e-02 4.835416e-02 4.781871e-02 4.796335e-02 4.726344e-02 4.719626e-02 4.637999e-02 4.612091e-02 4.523367e-02 4.480047e-02 4.388374e-02 4.329214e-02 4.238257e-02 4.164657e-02 4.077524e-02 3.990755e-02 3.909951e-02 3.811196e-02 3.738572e-02 3.628962e-02 3.565674e-02 3.446295e-02 3.392755e-02 3.264635e-02 3.220466e-02 3.084534e-02 3.048521e-02 2.905544e-02 2.875608e-02 2.726120e-02 2.699324e-02 2.543557e-02 2.516168e-02 2.354003e-02 2.321625e-02 2.152581e-02 2.110363e-02 1.933633e-02 1.876552e-02 1.691086e-02 1.614287e-02 1.418921e-02 1.318083e-02 1.111706e-02 9.833920e-03 7.651272e-03 6.070860e-03 3.764659e-03 1.878505e-03 -5.502666e-04 -2.735507e-03 -5.279071e-03 -7.741626e-03 -1.038475e-02 -1.308876e-02 -1.580859e-02 -1.870596e-02 -2.147232e-02 -2.450505e-02 -2.728113e-02 -3.038388e-02 -3.312704e-02 -3.622963e-02 -3.889249e-02 -4.192220e-02 -4.445364e-02 -4.733717e-02 -4.968349e-02 -5.234864e-02 -5.445470e-02 -5.683181e-02 
-7.076689e-02 -7.322552e-02 -7.501221e-02 -7.696975e-02 -7.827200e-02 -7.966321e-02 -8.042467e-02 -8.119451e-02 -8.136730e-02 -8.147336e-02 -8.102099e-02 -8.043603e-02 -7.933634e-02 -7.805077e-02 -7.629864e-02 -7.432271e-02 -7.193215e-02 -6.929733e-02 -6.630261e-02 -6.306205e-02 -5.951764e-02 -5.574520e-02 -5.172428e-02 -4.751231e-02 -4.310391e-02 -3.855963e-02 -3.386460e-02 -2.910544e-02 -2.423158e-02 -1.937986e-02 -1.443672e-02 -9.614134e-03 -4.707874e-03 -3.019777e-05 4.740936e-03 9.168545e-03 1.371795e-02 1.780475e-02 2.206012e-02 2.573255e-02 2.963744e-02 3.284080e-02 3.635505e-02 3.905414e-02 4.215340e-02 4.433218e-02 4.700656e-02 4.866697e-02 5.091913e-02 5.207927e-02 5.392208e-02 5.461389e-02 5.606791e-02 5.633452e-02 5.742549e-02 5.731844e-02 5.807493e-02 5.765137e-02 5.810278e-02 5.742280e-02 5.759769e-02 5.672186e-02 5.664684e-02 5.563409e-02 5.533313e-02 5.423889e-02 5.373310e-02 5.260790e-02 5.191568e-02 5.080403e-02 4.994153e-02 4.888113e-02 4.786279e-02 4.688389e-02 4.572311e-02 4.484801e-02 4.355751e-02 4.280011e-02 4.139217e-02 4.075736e-02 3.924366e-02 3.872677e-02 3.711791e-02 3.670410e-02 3.500882e-02 3.467269e-02 3.289700e-02 3.260262e-02 3.074890e-02 3.045046e-02 2.851688e-02 2.816028e-02 2.614065e-02 2.566601e-02 2.355016e-02 2.289535e-02 2.067021e-02 1.977504e-02 1.742623e-02 1.623703e-02 1.375090e-02 1.222494e-02 9.590790e-03 7.700036e-03 4.912321e-03 2.646142e-03 -2.936861e-04 -2.927178e-03 -6.009290e-03 -8.983310e-03 -1.218876e-02 -1.545920e-02 -1.875979e-02 -2.226761e-02 -2.562631e-02 -2.930047e-02 -3.267230e-02 -3.643298e-02 -3.976606e-02 -4.352778e-02 -4.676460e-02 -5.043897e-02 -5.351765e-02 -5.701577e-02 -5.987135e-02 -6.310576e-02 -6.567154e-02 -6.855789e-02 
-8.308194e-02 -8.599872e-02 -8.811485e-02 -9.044210e-02 -9.199031e-02 -9.365053e-02 -9.456316e-02 -9.549066e-02 -9.570980e-02 -9.585352e-02 -9.533460e-02 -9.466122e-02 -9.337659e-02 -9.187364e-02 -8.981591e-02 -8.749448e-02 -8.467918e-02 -8.157579e-02 -7.804287e-02 -7.422003e-02 -7.003384e-02 -6.557910e-02 -6.082668e-02 -5.584990e-02 -5.063749e-02 -4.526647e-02 -3.971464e-02 -3.408949e-02 -2.832719e-02 -2.259384e-02 -1.675202e-02 -1.105550e-02 -5.260928e-03 2.610012e-04 5.891267e-03 1.111376e-02 1.647680e-02 2.129245e-02 2.630266e-02 3.062472e-02 3.521559e-02 3.897996e-02 4.310455e-02 4.627040e-02 4.990067e-02 5.244996e-02 5.557512e-02 5.751112e-02 6.013527e-02 6.148034e-02 6.361960e-02 6.441236e-02 6.609187e-02 6.638403e-02 6.763491e-02 6.748791e-02 6.834446e-02 6.782620e-02 6.832348e-02 6.750511e-02 6.767705e-02 6.663012e-02 6.650815e-02 6.530210e-02 6.491443e-02 6.361447e-02 6.298587e-02 6.165136e-02 6.080343e-02 5.948665e-02 5.843839e-02 5.718364e-02 5.595224e-02 5.479522e-02 5.339683e-02 5.236406e-02 5.081435e-02 4.992265e-02 4.823701e-02 4.749283e-02 4.568623e-02 4.508487e-02 4.317117e-02 4.269596e-02 4.068688e-02 4.030858e-02 3.821251e-02 3.788912e-02 3.570994e-02 3.538736e-02 3.312355e-02 3.273732e-02 3.038167e-02 2.985997e-02 2.740001e-02 2.666784e-02 2.408708e-02 2.307146e-02 2.035137e-02 1.898694e-02 1.610947e-02 1.434399e-02 1.129442e-02 9.093400e-03 5.863057e-03 3.213104e-03 -1.982160e-04 -3.287792e-03 -6.870118e-03 -1.036744e-02 -1.409967e-02 -1.795203e-02 -2.180179e-02 -2.593864e-02 -2.986283e-02 -3.419944e-02 -3.814528e-02 -4.258671e-02 -4.649315e-02 -5.093799e-02 -5.473717e-02 -5.908085e-02 -6.269967e-02 -6.683722e-02 -7.019887e-02 -7.402712e-02 -7.705260e-02 -8.047213e-02 
-9.567339e-02 -9.906462e-02 -1.015423e-01 -1.042527e-01 -1.060753e-01 -1.080146e-01 -1.091030e-01 -1.101941e-01 -1.104799e-01 -1.106625e-01 -1.100925e-01 -1.093265e-01 -1.078673e-01 -1.061366e-01 -1.037782e-01 -1.010946e-01 -9.785395e-02 -9.425872e-02 -9.018180e-02 -8.574727e-02 -8.090896e-02 -7.573715e-02 -7.023937e-02 -6.445887e-02 -5.842645e-02 -5.218728e-02 -4.576203e-02 -3.922883e-02 -3.256238e-02 -2.590664e-02 -1.915278e-02 -1.254481e-02 -5.852056e-03 5.466401e-04 7.041637e-03 1.308500e-02 1.926268e-02 2.482544e-02 3.058698e-02 3.556843e-02 4.083778e-02 4.516396e-02 4.988829e-02 5.351272e-02 5.766150e-02 6.056450e-02 6.412744e-02 6.631434e-02 6.929848e-02 7.079694e-02 7.322327e-02 7.407989e-02 7.597964e-02 7.625620e-02 7.766728e-02 7.743681e-02 7.840045e-02 7.774328e-02 7.830116e-02 7.730120e-02 7.749324e-02 7.623461e-02 7.609735e-02 7.466142e-02 7.422722e-02 7.269016e-02 7.198696e-02 7.041788e-02 6.946959e-02 6.792914e-02 6.675641e-02 6.529582e-02 6.391708e-02 6.257747e-02 6.100989e-02 5.982181e-02 5.808210e-02 5.706487e-02 5.516962e-02 5.433067e-02 5.229618e-02 5.163010e-02 4.947162e-02 4.895915e-02 4.668967e-02 4.629683e-02 4.392560e-02 4.360335e-02 4.113442e-02 4.081924e-02 3.825038e-02 3.786621e-02 3.518849e-02 3.465018e-02 3.184849e-02 3.106680e-02 2.812127e-02 2.700907e-02 2.389745e-02 2.237653e-02 1.907726e-02 1.708495e-02 1.358051e-02 1.107537e-02 7.355511e-03 4.321295e-03 3.858991e-04 -3.166516e-03 -7.305510e-03 -1.133842e-02 -1.565597e-02 -2.010706e-02 -2.456496e-02 -2.935104e-02 -3.389870e-02 -3.892021e-02 -4.349597e-02 -4.864177e-02 -5.317461e-02 -5.832643e-02 -6.273770e-02 -6.777402e-02 -7.197920e-02 -7.677839e-02 -8.068874e-02 -8.513151e-02 -8.865577e-02 -9.262716e-02 
-1.085185e-01 -1.124154e-01 -1.152610e-01 -1.183838e-01 -1.204878e-01 -1.227326e-01 -1.240024e-01 -1.252800e-01 -1.256354e-01 -1.258749e-01 -1.252527e-01 -1.244063e-01 -1.227655e-01 -1.208128e-01 -1.181396e-01 -1.150921e-01 -1.114041e-01 -1.073078e-01 -1.026567e-01 -9.759373e-02 -9.206503e-02 -8.615262e-02 -7.986401e-02 -7.325058e-02 -6.634679e-02 -5.920601e-02 -5.185179e-02 -4.437448e-02 -3.674609e-02 -2.913096e-02 -2.140701e-02 -1.385115e-02 -6.203769e-03 1.106337e-03 8.519212e-03 1.541545e-02 2.245617e-02 2.879491e-02 3.535031e-02 4.101670e-02 4.700034e-02 5.191071e-02 5.726324e-02 6.136580e-02 6.605379e-02 6.932767e-02 7.334107e-02 7.579416e-02 7.914286e-02 8.080855e-02 8.351833e-02 8.445154e-02 8.655974e-02 8.683253e-02 8.838384e-02 8.808083e-02 8.912340e-02 8.833722e-02 8.891938e-02 8.774641e-02 8.791409e-02 8.645061e-02 8.624557e-02 8.458443e-02 8.404336e-02 8.227126e-02 8.142566e-02 7.962108e-02 7.849780e-02 7.672954e-02 7.535182e-02 7.367800e-02 7.206677e-02 7.053426e-02 6.870937e-02 6.735326e-02 6.533450e-02 6.417752e-02 6.198505e-02 6.103674e-02 5.869083e-02 5.794638e-02 5.546648e-02 5.490535e-02 5.230845e-02 5.189310e-02 4.919184e-02 4.886701e-02 4.606768e-02 4.576077e-02 4.286187e-02 4.248492e-02 3.947641e-02 3.893008e-02 3.579387e-02 3.497325e-02 3.168487e-02 3.048692e-02 2.701840e-02 2.535015e-02 2.167369e-02 1.946035e-02 1.555249e-02 1.274426e-02 8.590000e-03 5.166923e-03 7.631133e-04 -3.262692e-03 -7.904836e-03 -1.248963e-02 -1.734330e-02 -2.241457e-02 -2.743732e-02 -3.289835e-02 -3.803306e-02 -4.376848e-02 -4.894508e-02 -5.482659e-02 -5.996406e-02 -6.585569e-02 -7.086422e-02 -7.662679e-02 -8.140977e-02 -8.690440e-02 -9.136034e-02 -9.645107e-02 -1.004754e-01 -1.050313e-01 
-1.217291e-01 -1.261536e-01 -1.294087e-01 -1.329621e-01 -1.353844e-01 -1.379487e-01 -1.394322e-01 -1.409051e-01 -1.413569e-01 -1.416561e-01 -1.410022e-01 -1.400710e-01 -1.382622e-01 -1.360749e-01 -1.330932e-01 -1.296603e-01 -1.255238e-01 -1.208959e-01 -1.156618e-01 -1.099313e-01 -1.036972e-01 -9.699741e-02 -8.989795e-02 -8.239891e-02 -7.460066e-02 -6.650194e-02 -5.819482e-02 -4.971605e-02 -4.110320e-02 -3.247306e-02 -2.375995e-02 -1.520500e-02 -6.589033e-03 1.676825e-03 1.001535e-02 1.779986e-02 2.570475e-02 3.284433e-02 4.018824e-02 4.655281e-02 5.323963e-02 5.873528e-02 6.470042e-02 6.927000e-02 7.447877e-02 7.810076e-02 8.254533e-02 8.523113e-02 8.892636e-02 9.071653e-02 9.369515e-02 9.465472e-02 9.696227e-02 9.717564e-02 9.886552e-02 9.843113e-02 9.956009e-02 9.858522e-02 9.920954e-02 9.780534e-02 9.797784e-02 9.625492e-02 9.602298e-02 9.408760e-02 9.349215e-02 9.144312e-02 9.051857e-02 8.844497e-02 8.721993e-02 8.519947e-02 8.369811e-02 8.179621e-02 8.003990e-02 7.830910e-02 7.631801e-02 7.479761e-02 7.259207e-02 7.130757e-02 6.890866e-02 6.787092e-02 6.530030e-02 6.450421e-02 6.178301e-02 6.120574e-02 5.835268e-02 5.795203e-02 5.498107e-02 5.469431e-02 5.161225e-02 5.135625e-02 4.816088e-02 4.783416e-02 4.451336e-02 4.400051e-02 4.053274e-02 3.971123e-02 3.606745e-02 3.481640e-02 3.096348e-02 2.917348e-02 2.507858e-02 2.266137e-02 1.829684e-02 1.519354e-02 1.054169e-02 6.728548e-03 1.785670e-03 -2.723397e-03 -7.944268e-03 -1.309839e-02 -1.856618e-02 -2.428113e-02 -2.994687e-02 -3.611077e-02 -4.190894e-02 -4.838893e-02 -5.423958e-02 -6.088871e-02 -6.669989e-02 -7.336326e-02 -7.903344e-02 -8.555328e-02 -9.097362e-02 -9.719310e-02 -1.022494e-01 -1.080154e-01 -1.125901e-01 -1.177552e-01 
-1.352561e-01 -1.402483e-01 -1.439236e-01 -1.479457e-01 -1.506978e-01 -1.536163e-01 -1.553237e-01 -1.570220e-01 -1.575770e-01 -1.579601e-01 -1.572756e-01 -1.562765e-01 -1.542932e-01 -1.518795e-01 -1.485732e-01 -1.447534e-01 -1.401413e-01 -1.349699e-01 -1.291148e-01 -1.226946e-01 -1.157058e-01 -1.081873e-01 -1.002178e-01 -9.179399e-02 -8.303405e-02 -7.393267e-02 -6.459978e-02 -5.507155e-02 -4.539844e-02 -3.570438e-02 -2.592611e-02 -1.632435e-02 -6.666141e-03 2.600367e-03 1.193361e-02 2.064734e-02 2.947906e-02 3.745590e-02 4.564313e-02 5.273769e-02 6.017364e-02 6.628202e-02 7.289614e-02 7.795644e-02 8.371237e-02 8.770310e-02 9.259500e-02 9.553186e-02 9.957946e-02 1.015108e-01 1.047538e-01 1.057553e-01 1.082475e-01 1.084162e-01 1.102197e-01 1.096678e-01 1.108479e-01 1.096972e-01 1.103182e-01 1.086942e-01 1.088157e-01 1.068427e-01 1.065178e-01 1.043147e-01 1.035887e-01 1.012659e-01 1.001764e-01 9.783296e-02 9.641110e-02 9.413322e-02 9.240515e-02 9.026542e-02 8.825449e-02 8.631143e-02 8.404024e-02 8.233806e-02 7.983006e-02 7.839824e-02 7.567857e-02 7.453089e-02 7.162614e-02 7.075903e-02 6.769579e-02 6.708613e-02 6.388864e-02 6.349133e-02 6.017840e-02 5.992454e-02 5.650644e-02 5.630295e-02 5.277882e-02 5.251037e-02 4.886693e-02 4.840077e-02 4.461263e-02 4.380653e-02 3.983843e-02 3.855106e-02 3.436182e-02 3.246456e-02 2.801249e-02 2.540108e-02 2.064995e-02 1.725445e-02 1.217941e-02 7.971070e-03 2.563589e-03 -2.442211e-03 -8.170930e-03 -1.391576e-02 -1.993323e-02 -2.632015e-02 -3.257289e-02 -3.947349e-02 -4.588870e-02 -5.315122e-02 -5.963949e-02 -6.709699e-02 -7.355523e-02 -8.103275e-02 -8.734715e-02 -9.466741e-02 -1.007160e-01 -1.077035e-01 -1.133582e-01 -1.198423e-01 -1.249711e-01 -1.307873e-01 
-1.492452e-01 -1.548330e-01 -1.589796e-01 -1.634940e-01 -1.666219e-01 -1.699135e-01 -1.718851e-01 -1.738217e-01 -1.745137e-01 -1.749861e-01 -1.742973e-01 -1.732266e-01 -1.710863e-01 -1.684319e-01 -1.648089e-01 -1.605762e-01 -1.554863e-01 -1.497333e-01 -1.432448e-01 -1.360850e-01 -1.283203e-01 -1.199225e-01 -1.110548e-01 -1.016376e-01 -9.188358e-02 -8.170567e-02 -7.131354e-02 -6.066045e-02 -4.989569e-02 -3.906453e-02 -2.819471e-02 -1.747878e-02 -6.759202e-03 3.566193e-03 1.390456e-02 2.359395e-02 3.335357e-02 4.220024e-02 5.122282e-02 5.906466e-02 6.723378e-02 7.395625e-02 8.119711e-02 8.673359e-02 9.301041e-02 9.734013e-02 1.026517e-01 1.057959e-01 1.101696e-01 1.121865e-01 1.156719e-01 1.166499e-01 1.193118e-01 1.193634e-01 1.212752e-01 1.205294e-01 1.217673e-01 1.203633e-01 1.210011e-01 1.190818e-01 1.191872e-01 1.168936e-01 1.165259e-01 1.139921e-01 1.132010e-01 1.105508e-01 1.093763e-01 1.067204e-01 1.051944e-01 1.026286e-01 1.007772e-01 9.838151e-02 9.622743e-02 9.406616e-02 9.163124e-02 8.975299e-02 8.706049e-02 8.549781e-02 8.257349e-02 8.134202e-02 7.821401e-02 7.731059e-02 7.400779e-02 7.340776e-02 6.995698e-02 6.961105e-02 6.603335e-02 6.586500e-02 6.217182e-02 6.207627e-02 5.826632e-02 5.811228e-02 5.416979e-02 5.380480e-02 4.969983e-02 4.895929e-02 4.465030e-02 4.336976e-02 3.880830e-02 3.683747e-02 3.197453e-02 2.919129e-02 2.398433e-02 2.030663e-02 1.472649e-02 1.012048e-02 4.157110e-03 -1.359520e-03 -7.693291e-03 -1.405289e-02 -2.071980e-02 -2.781054e-02 -3.474954e-02 -4.242409e-02 -4.955263e-02 -5.763804e-02 -6.485542e-02 -7.316273e-02 -8.035363e-02 -8.868627e-02 -9.572409e-02 -1.038842e-01 -1.106338e-01 -1.184265e-01 -1.247464e-01 -1.319829e-01 -1.377269e-01 -1.442255e-01 
-1.636123e-01 -1.698457e-01 -1.744804e-01 -1.795350e-01 -1.830566e-01 -1.867656e-01 -1.890181e-01 -1.912320e-01 -1.920737e-01 -1.926674e-01 -1.919799e-01 -1.908605e-01 -1.885588e-01 -1.856755e-01 -1.817188e-01 -1.770723e-01 -1.714734e-01 -1.651240e-01 -1.579557e-01 -1.500279e-01 -1.414259e-01 -1.321080e-01 -1.222674e-01 -1.118057e-01 -1.009721e-01 -8.965929e-02 -7.811500e-02 -6.627476e-02 -5.432180e-02 -4.229063e-02 -3.023275e-02 -1.834199e-02 -6.467956e-03 4.972602e-03 1.640292e-02 2.711845e-02 3.788430e-02 4.764486e-02 5.757095e-02 6.619780e-02 7.515690e-02 8.252543e-02 9.043778e-02 9.647754e-02 1.033075e-01 1.079996e-01 1.137505e-01 1.171229e-01 1.218298e-01 1.239512e-01 1.276737e-01 1.286464e-01 1.314604e-01 1.314124e-01 1.334026e-01 1.324800e-01 1.337333e-01 1.320924e-01 1.326923e-01 1.304926e-01 1.305147e-01 1.279130e-01 1.274227e-01 1.245674e-01 1.236186e-01 1.206460e-01 1.192816e-01 1.163129e-01 1.145663e-01 1.117062e-01 1.096044e-01 1.069403e-01 1.045071e-01 1.021093e-01 9.936827e-02 9.729053e-02 9.426808e-02 9.254758e-02 8.927404e-02 8.793043e-02 8.444007e-02 8.347328e-02 7.980229e-02 7.918898e-02 7.537188e-02 7.506126e-02 7.112618e-02 7.103614e-02 6.699987e-02 6.701491e-02 6.287863e-02 6.285119e-02 5.859803e-02 5.835412e-02 5.394918e-02 5.329884e-02 4.869204e-02 4.744385e-02 4.257550e-02 4.055347e-02 3.536195e-02 3.242239e-02 2.685280e-02 2.289877e-02 1.691147e-02 1.190245e-02 5.480115e-03 -5.641677e-04 -7.411891e-03 -1.441373e-02 -2.164842e-02 -2.947945e-02 -3.703485e-02 -4.552677e-02 -5.331178e-02 -6.226832e-02 -7.017118e-02 -7.937958e-02 -8.727227e-02 -9.651285e-02 -1.042550e-01 -1.133083e-01 -1.207503e-01 -1.294015e-01 -1.363870e-01 -1.444285e-01 -1.507957e-01 -1.580283e-01 
-1.785465e-01 -1.854600e-01 -1.906435e-01 -1.962683e-01 -2.002392e-01 -2.043902e-01 -2.069731e-01 -2.094825e-01 -2.105161e-01 -2.112405e-01 -2.105875e-01 -2.094178e-01 -2.069773e-01 -2.038502e-01 -1.995700e-01 -1.944796e-01 -1.883682e-01 -1.813763e-01 -1.735112e-01 -1.647532e-01 -1.552847e-01 -1.449702e-01 -1.341177e-01 -1.225236e-01 -1.105655e-01 -9.802289e-02 -8.528021e-02 -7.215560e-02 -5.897131e-02 -4.564575e-02 -3.236381e-02 -1.921148e-02 -6.157204e-03 6.473360e-03 1.900927e-02 3.081046e-02 4.258332e-02 5.329940e-02 6.411737e-02 7.355125e-02 8.327778e-02 9.129402e-02 9.984672e-02 1.063711e-01 1.137176e-01 1.187339e-01 1.248853e-01 1.284300e-01 1.334328e-01 1.355878e-01 1.395153e-01 1.403993e-01 1.433421e-01 1.431025e-01 1.451600e-01 1.439634e-01 1.452361e-01 1.432599e-01 1.438431e-01 1.412676e-01 1.412465e-01 1.382477e-01 1.376945e-01 1.344384e-01 1.334113e-01 1.300494e-01 1.285928e-01 1.252588e-01 1.234059e-01 1.202145e-01 1.179905e-01 1.150367e-01 1.124629e-01 1.098226e-01 1.069205e-01 1.046518e-01 1.014465e-01 9.958993e-02 9.611195e-02 9.468975e-02 9.097528e-02 8.998900e-02 8.607756e-02 8.550380e-02 8.143401e-02 8.121905e-02 7.702289e-02 7.707743e-02 7.277418e-02 7.297008e-02 6.856108e-02 6.873196e-02 6.419751e-02 6.414479e-02 5.944398e-02 5.894879e-02 5.402287e-02 5.286310e-02 4.764203e-02 4.561250e-02 4.002397e-02 3.695675e-02 3.093647e-02 2.671818e-02 2.021980e-02 1.480316e-02 7.806477e-03 1.214561e-03 -6.269321e-03 -1.394628e-02 -2.187328e-02 -3.048721e-02 -3.878186e-02 -4.814007e-02 -5.669953e-02 -6.657925e-02 -7.527850e-02 -8.544051e-02 -9.413759e-02 -1.043372e-01 -1.128777e-01 -1.228727e-01 -1.310929e-01 -1.406478e-01 -1.483771e-01 -1.572654e-01 -1.643275e-01 -1.723322e-01 
-1.939182e-01 -2.015725e-01 -2.073301e-01 -2.135838e-01 -2.180312e-01 -2.226797e-01 -2.256190e-01 -2.284738e-01 -2.297205e-01 -2.306176e-01 -2.300119e-01 -2.288230e-01 -2.262438e-01 -2.228900e-01 -2.182704e-01 -2.127368e-01 -2.060781e-01 -1.984262e-01 -1.898092e-01 -1.801854e-01 -1.697752e-01 -1.584116e-01 -1.464543e-01 -1.336618e-01 -1.204721e-01 -1.066242e-01 -9.256648e-02 -7.807762e-02 -6.354100e-02 -4.884125e-02 -3.421490e-02 -1.972520e-02 -5.375328e-03 8.514281e-03 2.226261e-02 3.521009e-02 4.808563e-02 5.980891e-02 7.160140e-02 8.188543e-02 9.244780e-02 1.011473e-01 1.103938e-01 1.174323e-01 1.253335e-01 1.306992e-01 1.372742e-01 1.410136e-01 1.463205e-01 1.485298e-01 1.526559e-01 1.534717e-01 1.565225e-01 1.561118e-01 1.582016e-01 1.567517e-01 1.579945e-01 1.557034e-01 1.562062e-01 1.532739e-01 1.531311e-01 1.497519e-01 1.490423e-01 1.453982e-01 1.441837e-01 1.404400e-01 1.387669e-01 1.350685e-01 1.329701e-01 1.294404e-01 1.269412e-01 1.236823e-01 1.208030e-01 1.178967e-01 1.146595e-01 1.121689e-01 1.086015e-01 1.065726e-01 1.027107e-01 1.011711e-01 9.705873e-02 9.601534e-02 9.170182e-02 9.113537e-02 8.667024e-02 8.652810e-02 8.195381e-02 8.214271e-02 7.748679e-02 7.786762e-02 7.313579e-02 7.352308e-02 6.869488e-02 6.886298e-02 6.389112e-02 6.358786e-02 5.840188e-02 5.736885e-02 5.188291e-02 4.987979e-02 4.400360e-02 4.083287e-02 3.448438e-02 3.001230e-02 2.313001e-02 1.730051e-02 9.853665e-03 2.693086e-03 -5.312016e-03 -1.369932e-02 -2.221738e-02 -3.166092e-02 -4.060990e-02 -5.088945e-02 -6.015582e-02 -7.101912e-02 -8.046440e-02 -9.164326e-02 -1.011106e-01 -1.123335e-01 -1.216529e-01 -1.326537e-01 -1.416456e-01 -1.521679e-01 -1.606456e-01 -1.704436e-01 -1.782142e-01 -1.870531e-01 
-2.099713e-01 -2.184078e-01 -2.248101e-01 -2.317300e-01 -2.367195e-01 -2.418976e-01 -2.452532e-01 -2.484786e-01 -2.499908e-01 -2.510762e-01 -2.505600e-01 -2.493546e-01 -2.466660e-01 -2.430720e-01 -2.381263e-01 -2.321164e-01 -2.249058e-01 -2.165396e-01 -2.071476e-01 -1.965820e-01 -1.851900e-01 -1.726819e-01 -1.595661e-01 -1.454640e-01 -1.309810e-01 -1.157069e-01 -1.002706e-01 -8.429336e-02 -6.834549e-02 -5.215117e-02 -3.613167e-02 -2.019426e-02 -4.514413e-03 1.072914e-02 2.570747e-02 3.987644e-02 5.385468e-02 6.663753e-02 7.938777e-02 9.054951e-02 1.019163e-01 1.113008e-01 1.211982e-01 1.287271e-01 1.371325e-01 1.427994e-01 1.497443e-01 1.536080e-01 1.591670e-01 1.613412e-01 1.656201e-01 1.662629e-01 1.693870e-01 1.686895e-01 1.707919e-01 1.689668e-01 1.701788e-01 1.674498e-01 1.678929e-01 1.644847e-01 1.642647e-01 1.603943e-01 1.595975e-01 1.554674e-01 1.541596e-01 1.499520e-01 1.481801e-01 1.440535e-01 1.418484e-01 1.379364e-01 1.353185e-01 1.317304e-01 1.287154e-01 1.255380e-01 1.221436e-01 1.194439e-01 1.156949e-01 1.135221e-01 1.094540e-01 1.078393e-01 1.034986e-01 1.024526e-01 9.789360e-02 9.739948e-02 9.267837e-02 9.268326e-02 8.784905e-02 8.825420e-02 8.333922e-02 8.399253e-02 7.900392e-02 7.969797e-02 7.461221e-02 7.509042e-02 6.985233e-02 6.982449e-02 6.435153e-02 6.351770e-02 5.770919e-02 5.578891e-02 4.953898e-02 4.630118e-02 3.951379e-02 3.480217e-02 2.740566e-02 2.115524e-02 1.311410e-02 5.356518e-03 -3.321524e-03 -1.246407e-02 -2.172651e-02 -3.205642e-02 -4.180939e-02 -5.307403e-02 -6.318921e-02 -7.510244e-02 -8.542528e-02 -9.768653e-02 -1.080440e-01 -1.203528e-01 -1.305594e-01 -1.426244e-01 -1.524857e-01 -1.640289e-01 -1.733439e-01 -1.841009e-01 -1.926614e-01 -2.023797e-01 