# vtk DataFile Version 2.0
Comment goes here
ASCII

DATASET STRUCTURED_POINTS
FIELD FieldData 1
TIME 1 1 double
0.02500000
DIMENSIONS    128   128   1

ORIGIN    0.000   0.000   0.000
SPACING   0.039062 0.039062   1.000

POINT_DATA   16384
SCALARS uY double
LOOKUP_TABLE default

9.023594e-15 1.175902e-14 8.214764e-15 1.241195e-14 9.510539e-15 1.468002e-14 1.180642e-14 1.720045e-14 1.393259e-14 1.974224e-14 1.679291e-14 2.406560e-14 2.085654e-14 2.666869e-14 2.194170e-14 2.859111e-14 2.448183e-14 3.234467e-14 2.718693e-14 3.335649e-14 2.782552e-14 3.475602e-14 3.024779e-14 3.665684e-14 3.010529e-14 3.823231e-14 3.187549e-14 3.923909e-14 3.340464e-14 4.076512e-14 3.594126e-14 4.283335e-14 3.794285e-14 4.485855e-14 4.043841e-14 4.796624e-14 4.378103e-14 4.976865e-14 4.417453e-14 4.773371e-14 4.200912e-14 4.548470e-14 4.180678e-14 4.692290e-14 4.481631e-14 4.882628e-14 4.441109e-14 4.750686e-14 4.431947e-14 4.690666e-14 4.642375e-14 4.933713e-14 4.615585e-14 4.713473e-14 4.453229e-14 4.459426e-14 4.325760e-14 4.361798e-14 4.227766e-14 4.235927e-14 4.061153e-14 4.089049e-14 3.976935e-14 3.792744e-14 3.952533e-14 3.739979e-14 3.691991e-14 3.203815e-14 3.249544e-14 2.631876e-14 2.830215e-14 2.397407e-14 2.803507e-14 2.377753e-14 2.320766e-14 1.877212e-14 1.985903e-14 1.693263e-14 2.030252e-14 1.639061e-14 2.043961e-14 1.571458e-14 1.996430e-14 1.515505e-14 1.670146e-14 1.125838e-14 1.411174e-14 1.042690e-14 1.430546e-14 1.144432e-14 1.459118e-14 1.189787e-14 1.664162e-14 1.412218e-14 1.554070e-14 1.156325e-14 1.180783e-14 9.344293e-15 1.105433e-14 1.048131e-14 1.229366e-14 1.090408e-14 1.136468e-14 9.902673e-15 9.843983e-15 8.347796e-15 7.931799e-15 7.175941e-15 7.993330e-15 8.157857e-15 7.656142e-15 8.312015e-15 8.509217e-15 1.022378e-14 1.032494e-14 1.103027e-14 8.328910e-15 8.391120e-15 6.480720e-15 7.930415e-15 5.925096e-15 7.536570e-15 5.287516e-15 7.397902e-15 5.250266e-15 9.089069e-15 7.679298e-15 1.187583e-14 
-2.161954e-02 -2.111530e-02 -1.999887e-02 -1.940157e-02 -1.820243e-02 -1.749001e-02 -1.619641e-02 -1.534728e-02 -1.394933e-02 -1.294342e-02 -1.143379e-02 -1.025372e-02 -8.628330e-03 -7.260632e-03 -5.519233e-03 -3.955625e-03 -2.102299e-03 -3.408311e-04 1.615658e-03 3.569619e-03 5.615652e-03 7.748735e-03 9.865838e-03 1.215636e-02 1.432140e-02 1.673951e-02 1.892505e-02 2.143332e-02 2.360813e-02 2.616259e-02 2.829228e-02 3.084381e-02 3.289148e-02 3.538738e-02 3.731435e-02 3.970007e-02 4.146656e-02 4.368732e-02 4.525310e-02 4.725537e-02 4.858047e-02 5.031323e-02 5.135853e-02 5.277438e-02 5.350238e-02 5.455848e-02 5.493415e-02 5.559316e-02 5.558505e-02 5.581615e-02 5.539778e-02 5.517793e-02 5.432943e-02 5.364479e-02 5.235488e-02 5.120242e-02 4.947044e-02 4.785956e-02 4.569750e-02 4.365140e-02 4.108549e-02 3.864209e-02 3.571378e-02 3.292581e-02 2.969176e-02 2.662576e-02 2.315669e-02 1.989093e-02 1.626909e-02 1.289024e-02 9.205788e-03 5.804693e-03 2.151051e-03 -1.182154e-03 -4.713407e-03 -7.894284e-03 -1.121855e-02 -1.417298e-02 -1.721721e-02 -1.988517e-02 -2.259144e-02 -2.492953e-02 -2.725729e-02 -2.923991e-02 -3.116673e-02 -3.278577e-02 -3.430676e-02 -3.557007e-02 -3.669604e-02 -3.762490e-02 -3.837973e-02 -3.900572e-02 -3.942317e-02 -3.978484e-02 -3.990526e-02 -4.004482e-02 -3.991197e-02 -3.987241e-02 -3.953066e-02 -3.935334e-02 -3.884532e-02 -3.856815e-02 -3.793301e-02 -3.758920e-02 -3.686134e-02 -3.647873e-02 -3.568703e-02 -3.528776e-02 -3.445527e-02 -3.405579e-02 -3.319971e-02 -3.281104e-02 -3.194296e-02 -3.157103e-02 -3.069735e-02 -3.034340e-02 -2.946589e-02 -2.912687e-02 -2.824324e-02 -2.791222e-02 -2.701674e-02 -2.668328e-02 -2.576743e-02 -2.541795e-02 -2.447104e-02 -2.408921e-02 -2.309900e-02 -2.266619e-02 
-4.323630e-02 -4.223822e-02 -4.002199e-02 -3.883797e-02 -3.645816e-02 -3.504396e-02 -3.247688e-02 -3.078917e-02 -2.801481e-02 -2.601326e-02 -2.301662e-02 -2.066628e-02 -1.743880e-02 -1.471258e-02 -1.125328e-02 -8.134504e-03 -4.451016e-03 -9.357553e-04 2.954957e-03 6.855895e-03 1.092714e-02 1.518685e-02 1.940220e-02 2.397705e-02 2.829070e-02 3.312067e-02 3.747815e-02 4.248806e-02 4.682724e-02 5.192892e-02 5.618126e-02 6.127632e-02 6.536826e-02 7.035142e-02 7.420583e-02 7.896829e-02 8.250587e-02 8.693865e-02 9.007929e-02 9.407618e-02 9.674022e-02 1.002003e-01 1.023098e-01 1.051394e-01 1.066197e-01 1.087343e-01 1.095154e-01 1.108415e-01 1.108603e-01 1.113372e-01 1.105400e-01 1.101222e-01 1.084684e-01 1.071282e-01 1.045937e-01 1.023244e-01 9.890604e-02 9.572543e-02 9.144489e-02 8.739759e-02 8.230503e-02 7.746471e-02 7.164083e-02 6.611048e-02 5.966677e-02 5.357710e-02 4.665375e-02 4.015913e-02 3.292027e-02 2.619244e-02 1.881884e-02 1.203857e-02 4.718416e-03 -1.934182e-03 -9.015750e-03 -1.537126e-02 -2.204265e-02 -2.795178e-02 -3.406441e-02 -3.940571e-02 -4.484148e-02 -4.952670e-02 -5.420264e-02 -5.817923e-02 -6.204925e-02 -6.529989e-02 -6.835358e-02 -7.089315e-02 -7.315208e-02 -7.502267e-02 -7.653498e-02 -7.779953e-02 -7.863345e-02 -7.936897e-02 -7.960607e-02 -7.989704e-02 -7.962575e-02 -7.955822e-02 -7.886814e-02 -7.852487e-02 -7.750205e-02 -7.695888e-02 -7.568223e-02 -7.500559e-02 -7.354436e-02 -7.278989e-02 -7.120218e-02 -7.041412e-02 -6.874625e-02 -6.795749e-02 -6.624398e-02 -6.547655e-02 -6.374067e-02 -6.300647e-02 -6.126107e-02 -6.056262e-02 -5.881127e-02 -5.814256e-02 -5.638071e-02 -5.572799e-02 -5.394423e-02 -5.328672e-02 -5.146404e-02 -5.077468e-02 -4.889175e-02 -4.813796e-02 -4.617034e-02 -4.531486e-02 
-6.499984e-02 -6.350873e-02 -6.017236e-02 -5.840249e-02 -5.481686e-02 -5.270116e-02 -4.883029e-02 -4.630295e-02 -4.211644e-02 -3.911609e-02 -3.459130e-02 -3.106454e-02 -2.618862e-02 -2.209382e-02 -1.686554e-02 -1.217668e-02 -6.607925e-03 -1.318195e-03 4.564930e-03 1.044013e-02 1.659675e-02 2.301761e-02 2.939212e-02 3.629346e-02 4.281607e-02 5.010775e-02 5.669566e-02 6.426437e-02 7.082328e-02 7.853574e-02 8.496176e-02 9.266899e-02 9.885074e-02 1.063930e-01 1.122137e-01 1.194257e-01 1.247653e-01 1.314812e-01 1.362186e-01 1.422764e-01 1.462908e-01 1.515366e-01 1.547099e-01 1.590004e-01 1.612194e-01 1.644251e-01 1.655835e-01 1.675914e-01 1.675935e-01 1.683099e-01 1.670746e-01 1.664289e-01 1.638946e-01 1.618437e-01 1.579746e-01 1.545078e-01 1.492998e-01 1.444440e-01 1.379315e-01 1.317553e-01 1.240160e-01 1.166332e-01 1.077915e-01 9.936104e-02 8.958819e-02 8.031194e-02 6.982246e-02 5.993850e-02 4.898285e-02 3.875547e-02 2.760871e-02 1.731528e-02 6.262819e-03 -3.821241e-03 -1.449956e-02 -2.411632e-02 -3.416211e-02 -4.308546e-02 -5.227603e-02 -6.032332e-02 -6.848265e-02 -7.552258e-02 -8.252821e-02 -8.848424e-02 -9.426955e-02 -9.911889e-02 -1.036710e-01 -1.074397e-01 -1.107937e-01 -1.135487e-01 -1.157794e-01 -1.176189e-01 -1.188309e-01 -1.198737e-01 -1.201912e-01 -1.205669e-01 -1.201240e-01 -1.199639e-01 -1.188960e-01 -1.183262e-01 -1.167630e-01 -1.158982e-01 -1.139584e-01 -1.128992e-01 -1.106867e-01 -1.095167e-01 -1.071186e-01 -1.059043e-01 -1.033896e-01 -1.021802e-01 -9.960033e-02 -9.842840e-02 -9.581773e-02 -9.470071e-02 -9.207792e-02 -9.101910e-02 -8.838888e-02 -8.737873e-02 -8.473358e-02 -8.375092e-02 -8.107304e-02 -8.008620e-02 -7.734938e-02 -7.631724e-02 -7.348875e-02 -7.236190e-02 -6.940439e-02 -6.812639e-02 
-8.675291e-02 -8.480003e-02 -8.039354e-02 -7.806968e-02 -7.333380e-02 -7.054868e-02 -6.543462e-02 -6.209948e-02 -5.656577e-02 -5.259760e-02 -4.661294e-02 -4.193933e-02 -3.548535e-02 -3.004960e-02 -2.312335e-02 -1.688975e-02 -9.505756e-03 -2.464498e-03 5.343703e-03 1.317240e-02 2.135144e-02 2.991435e-02 3.839102e-02 4.760059e-02 5.628254e-02 6.601750e-02 7.479475e-02 8.490264e-02 9.364967e-02 1.039513e-01 1.125296e-01 1.228250e-01 1.310861e-01 1.411612e-01 1.489493e-01 1.585832e-01 1.657385e-01 1.747103e-01 1.810712e-01 1.891660e-01 1.945719e-01 2.015857e-01 2.058795e-01 2.116232e-01 2.146536e-01 2.189566e-01 2.205817e-01 2.232948e-01 2.233857e-01 2.243852e-01 2.228314e-01 2.220236e-01 2.187398e-01 2.160661e-01 2.110001e-01 2.064441e-01 1.995855e-01 1.931796e-01 1.845683e-01 1.764001e-01 1.661343e-01 1.563507e-01 1.445914e-01 1.334001e-01 1.203725e-01 1.080388e-01 9.402798e-02 8.086702e-02 6.620852e-02 5.257211e-02 3.763677e-02 2.389610e-02 9.070688e-03 -4.403963e-03 -1.873864e-02 -3.159904e-02 -4.509033e-02 -5.703011e-02 -6.937344e-02 -8.014438e-02 -9.109878e-02 -1.005219e-01 -1.099198e-01 -1.178904e-01 -1.256408e-01 -1.321273e-01 -1.382130e-01 -1.432502e-01 -1.477198e-01 -1.513982e-01 -1.543545e-01 -1.568066e-01 -1.583928e-01 -1.597795e-01 -1.601652e-01 -1.606611e-01 -1.600289e-01 -1.598111e-01 -1.583449e-01 -1.575825e-01 -1.554579e-01 -1.543051e-01 -1.516826e-01 -1.502737e-01 -1.472931e-01 -1.457399e-01 -1.425182e-01 -1.409091e-01 -1.375389e-01 -1.359393e-01 -1.324890e-01 -1.309423e-01 -1.274576e-01 -1.259867e-01 -1.224924e-01 -1.211014e-01 -1.176033e-01 -1.162796e-01 -1.127673e-01 -1.114826e-01 -1.079322e-01 -1.066442e-01 -1.030202e-01 -1.016740e-01 -9.793262e-02 -9.646227e-02 -9.255330e-02 -9.088322e-02 
-1.088030e-01 -1.063906e-01 -1.008738e-01 -9.799841e-02 -9.206236e-02 -8.860912e-02 -8.219144e-02 -7.804719e-02 -7.109484e-02 -6.615339e-02 -5.862635e-02 -5.279451e-02 -4.466931e-02 -3.787346e-02 -2.914637e-02 -2.133917e-02 -1.202881e-02 -3.195524e-03 6.655215e-03 1.649128e-02 2.681426e-02 3.758786e-02 4.828973e-02 5.989182e-02 7.085503e-02 8.313334e-02 9.421813e-02 1.069803e-01 1.180274e-01 1.310467e-01 1.418806e-01 1.549032e-01 1.653359e-01 1.780898e-01 1.879244e-01 2.001285e-01 2.091626e-01 2.205356e-01 2.285651e-01 2.388329e-01 2.456545e-01 2.545567e-01 2.599714e-01 2.672663e-01 2.710822e-01 2.765509e-01 2.785875e-01 2.820382e-01 2.821314e-01 2.834039e-01 2.814128e-01 2.803846e-01 2.762001e-01 2.727938e-01 2.663491e-01 2.605413e-01 2.518228e-01 2.436532e-01 2.327124e-01 2.222924e-01 2.092553e-01 1.967739e-01 1.818476e-01 1.675728e-01 1.510466e-01 1.353220e-01 1.175616e-01 1.007952e-01 8.223074e-02 6.487749e-02 4.598308e-02 2.852193e-02 9.790899e-03 -7.301966e-03 -2.538559e-02 -4.166441e-02 -5.865429e-02 -7.372927e-02 -8.924202e-02 -1.028001e-01 -1.165348e-01 -1.283532e-01 -1.401032e-01 -1.500556e-01 -1.597121e-01 -1.677659e-01 -1.753138e-01 -1.815211e-01 -1.870282e-01 -1.915114e-01 -1.951133e-01 -1.980475e-01 -1.999297e-01 -2.015242e-01 -2.019046e-01 -2.023852e-01 -2.014967e-01 -2.010904e-01 -1.991666e-01 -1.980893e-01 -1.953522e-01 -1.937995e-01 -1.904510e-01 -1.885926e-01 -1.848085e-01 -1.827848e-01 -1.787111e-01 -1.766326e-01 -1.723844e-01 -1.703322e-01 -1.659943e-01 -1.640217e-01 -1.596498e-01 -1.577843e-01 -1.534077e-01 -1.516536e-01 -1.472781e-01 -1.456180e-01 -1.412291e-01 -1.396265e-01 -1.351925e-01 -1.335933e-01 -1.290683e-01 -1.274028e-01 -1.227302e-01 -1.209147e-01 -1.160300e-01 -1.139687e-01 
-1.308286e-01 -1.280090e-01 -1.214655e-01 -1.180920e-01 -1.110490e-01 -1.069816e-01 -9.936214e-02 -9.446248e-02 -8.620082e-02 -8.033839e-02 -7.138415e-02 -6.444391e-02 -5.476641e-02 -4.665687e-02 -3.624908e-02 -2.691057e-02 -1.579241e-02 -5.205061e-03 6.574170e-03 1.838365e-02 3.074396e-02 4.369737e-02 5.652799e-02 7.049331e-02 8.365386e-02 9.844597e-02 1.117688e-01 1.271536e-01 1.404473e-01 1.561487e-01 1.692018e-01 1.849113e-01 1.974974e-01 2.128852e-01 2.247671e-01 2.394934e-01 2.504279e-01 2.641538e-01 2.738954e-01 2.862923e-01 2.945970e-01 3.053539e-01 3.119827e-01 3.208116e-01 3.255338e-01 3.321745e-01 3.347721e-01 3.389962e-01 3.392693e-01 3.408856e-01 3.386602e-01 3.375209e-01 3.326592e-01 3.286685e-01 3.210813e-01 3.142063e-01 3.038671e-01 2.941487e-01 2.811084e-01 2.686725e-01 2.530721e-01 2.381377e-01 2.202179e-01 2.031003e-01 1.832036e-01 1.643109e-01 1.428772e-01 1.226981e-01 1.002492e-01 7.933302e-02 5.644921e-02 3.537781e-02 1.266643e-02 -7.978592e-03 -2.991892e-02 -4.959073e-02 -7.020637e-02 -8.842523e-02 -1.072400e-01 -1.236198e-01 -1.402603e-01 -1.545263e-01 -1.687369e-01 -1.807334e-01 -1.923812e-01 -2.020689e-01 -2.111379e-01 -2.185824e-01 -2.251599e-01 -2.305135e-01 -2.347704e-01 -2.382497e-01 -2.404185e-01 -2.422814e-01 -2.426331e-01 -2.431571e-01 -2.419800e-01 -2.414428e-01 -2.390247e-01 -2.376890e-01 -2.343024e-01 -2.324057e-01 -2.282972e-01 -2.260441e-01 -2.214273e-01 -2.189870e-01 -2.140387e-01 -2.115433e-01 -2.064021e-01 -2.039483e-01 -1.987156e-01 -1.963666e-01 -1.911086e-01 -1.888966e-01 -1.836474e-01 -1.815768e-01 -1.763422e-01 -1.743918e-01 -1.691532e-01 -1.672788e-01 -1.619968e-01 -1.601332e-01 -1.547519e-01 -1.528149e-01 -1.472653e-01 -1.451538e-01 -1.393574e-01 -1.369557e-01 
-1.533085e-01 -1.500866e-01 -1.424576e-01 -1.385912e-01 -1.303673e-01 -1.256896e-01 -1.167782e-01 -1.111232e-01 -1.014451e-01 -9.465569e-02 -8.414994e-02 -7.608661e-02 -6.471590e-02 -5.526638e-02 -4.302182e-02 -3.211112e-02 -1.901616e-02 -6.616230e-03 7.270441e-03 2.113233e-02 3.571528e-02 5.095030e-02 6.609741e-02 8.255209e-02 9.809605e-02 1.155529e-01 1.312942e-01 1.494763e-01 1.651874e-01 1.837670e-01 1.991972e-01 2.178069e-01 2.326878e-01 2.509342e-01 2.649851e-01 2.824628e-01 2.953958e-01 3.117002e-01 3.232250e-01 3.379635e-01 3.477914e-01 3.605922e-01 3.684397e-01 3.789583e-01 3.845513e-01 3.924753e-01 3.955538e-01 4.006079e-01 4.009326e-01 4.028840e-01 4.002458e-01 3.989127e-01 3.931445e-01 3.884065e-01 3.793991e-01 3.712107e-01 3.589298e-01 3.473353e-01 3.318397e-01 3.169870e-01 2.984448e-01 2.805965e-01 2.592962e-01 2.388337e-01 2.151880e-01 1.926072e-01 1.671460e-01 1.430422e-01 1.163947e-01 9.143666e-02 6.430145e-02 3.919639e-02 1.230297e-02 -1.224450e-02 -3.817954e-02 -6.151029e-02 -8.582738e-02 -1.073672e-01 -1.295028e-01 -1.487945e-01 -1.683109e-01 -1.850346e-01 -2.016374e-01 -2.156189e-01 -2.291616e-01 -2.403679e-01 -2.508437e-01 -2.593674e-01 -2.668920e-01 -2.729285e-01 -2.777157e-01 -2.815355e-01 -2.838702e-01 -2.857905e-01 -2.860008e-01 -2.863593e-01 -2.847918e-01 -2.839235e-01 -2.809216e-01 -2.791412e-01 -2.750283e-01 -2.726180e-01 -2.676853e-01 -2.648871e-01 -2.593853e-01 -2.563974e-01 -2.505329e-01 -2.475091e-01 -2.414428e-01 -2.384946e-01 -2.323427e-01 -2.295419e-01 -2.233793e-01 -2.207614e-01 -2.146252e-01 -2.121928e-01 -2.060868e-01 -2.038131e-01 -1.977124e-01 -1.955437e-01 -1.893994e-01 -1.872576e-01 -1.810011e-01 -1.787860e-01 -1.723336e-01 -1.699251e-01 -1.631823e-01 -1.604429e-01 
-1.757385e-01 -1.721881e-01 -1.635912e-01 -1.593078e-01 -1.500345e-01 -1.448232e-01 -1.347643e-01 -1.284305e-01 -1.174914e-01 -1.098496e-01 -9.795661e-02 -8.884120e-02 -7.594725e-02 -6.522358e-02 -5.131428e-02 -3.889084e-02 -2.398906e-02 -9.829116e-03 6.001410e-03 2.186959e-02 3.852232e-02 5.599788e-02 7.332331e-02 9.222901e-02 1.100363e-01 1.301193e-01 1.481798e-01 1.691171e-01 1.871692e-01 2.085784e-01 2.263334e-01 2.477865e-01 2.649351e-01 2.859752e-01 3.021943e-01 3.223519e-01 3.373109e-01 3.561199e-01 3.694858e-01 3.864963e-01 3.979385e-01 4.127267e-01 4.219209e-01 4.340955e-01 4.407272e-01 4.499343e-01 4.537037e-01 4.596307e-01 4.602593e-01 4.626406e-01 4.598808e-01 4.585061e-01 4.521551e-01 4.468810e-01 4.367985e-01 4.275637e-01 4.136928e-01 4.005362e-01 3.829255e-01 3.660032e-01 3.448276e-01 3.244273e-01 3.000040e-01 2.765523e-01 2.493469e-01 2.234065e-01 1.940279e-01 1.662816e-01 1.354620e-01 1.066842e-01 7.524473e-02 4.626091e-02 1.506510e-02 -1.329731e-02 -4.339675e-02 -7.035994e-02 -9.857587e-02 -1.234602e-01 -1.491198e-01 -1.713835e-01 -1.939653e-01 -2.132302e-01 -2.323863e-01 -2.484483e-01 -2.640092e-01 -2.768329e-01 -2.887977e-01 -2.984977e-01 -3.070118e-01 -3.138240e-01 -3.191491e-01 -3.233976e-01 -3.258779e-01 -3.279400e-01 -3.279690e-01 -3.282435e-01 -3.262337e-01 -3.251142e-01 -3.214717e-01 -3.193255e-01 -3.144302e-01 -3.115847e-01 -3.057765e-01 -3.025104e-01 -2.960806e-01 -2.926208e-01 -2.858071e-01 -2.823287e-01 -2.753153e-01 -2.719441e-01 -2.648629e-01 -2.616791e-01 -2.546136e-01 -2.516563e-01 -2.446465e-01 -2.419172e-01 -2.349650e-01 -2.324320e-01 -2.255064e-01 -2.231073e-01 -2.161501e-01 -2.137949e-01 -2.067254e-01 -2.042986e-01 -1.970192e-01 -1.943823e-01 -1.867824e-01 -1.837766e-01 
-1.987911e-01 -1.949214e-01 -1.852806e-01 -1.805902e-01 -1.701710e-01 -1.644345e-01 -1.531091e-01 -1.461001e-01 -1.337575e-01 -1.252594e-01 -1.118124e-01 -1.016298e-01 -8.702253e-02 -7.499437e-02 -5.920885e-02 -4.522287e-02 -2.828448e-02 -1.229090e-02 5.727383e-03 2.370349e-02 4.267894e-02 6.252831e-02 8.228844e-02 1.038126e-01 1.241373e-01 1.470490e-01 1.676749e-01 1.916042e-01 2.122306e-01 2.367372e-01 2.570326e-01 2.816225e-01 3.012326e-01 3.253771e-01 3.439323e-01 3.670884e-01 3.842107e-01 4.058394e-01 4.211482e-01 4.407297e-01 4.538470e-01 4.708916e-01 4.814457e-01 4.955011e-01 5.031308e-01 5.137862e-01 5.181453e-01 5.250360e-01 5.258009e-01 5.286137e-01 5.254946e-01 5.239772e-01 5.167340e-01 5.107099e-01 4.991734e-01 4.885604e-01 4.726575e-01 4.574902e-01 4.372712e-01 4.177235e-01 3.933870e-01 3.697906e-01 3.417033e-01 3.145573e-01 2.832618e-01 2.532297e-01 2.194386e-01 1.873286e-01 1.518996e-01 1.186295e-01 8.252421e-02 4.907068e-02 1.329860e-02 -1.936268e-02 -5.380838e-02 -8.476536e-02 -1.169728e-01 -1.454351e-01 -1.746308e-01 -1.999762e-01 -2.255683e-01 -2.473717e-01 -2.689736e-01 -2.870178e-01 -3.044529e-01 -3.187194e-01 -3.320071e-01 -3.426522e-01 -3.519802e-01 -3.592997e-01 -3.649874e-01 -3.693757e-01 -3.718344e-01 -3.737433e-01 -3.734369e-01 -3.733384e-01 -3.707484e-01 -3.691031e-01 -3.646998e-01 -3.619341e-01 -3.561544e-01 -3.526446e-01 -3.458767e-01 -3.419406e-01 -3.345147e-01 -3.304086e-01 -3.225926e-01 -3.185121e-01 -3.105112e-01 -3.065952e-01 -2.985547e-01 -2.948900e-01 -2.868998e-01 -2.835264e-01 -2.756269e-01 -2.725432e-01 -2.647315e-01 -2.618979e-01 -2.541343e-01 -2.514777e-01 -2.436915e-01 -2.411073e-01 -2.332031e-01 -2.305584e-01 -2.224209e-01 -2.195567e-01 -2.110570e-01 -2.077910e-01 
-2.217519e-01 -2.176587e-01 -2.071263e-01 -2.021280e-01 -1.907338e-01 -1.845730e-01 -1.721695e-01 -1.645866e-01 -1.510442e-01 -1.417886e-01 -1.270039e-01 -1.158479e-01 -9.975201e-02 -8.650569e-02 -6.907198e-02 -5.360043e-02 -3.485112e-02 -1.709057e-02 2.898162e-03 2.292547e-02 4.402069e-02 6.619511e-02 8.820685e-02 1.123052e-01 1.349887e-01 1.606847e-01 1.837454e-01 2.106170e-01 2.337170e-01 2.612614e-01 2.840280e-01 3.116815e-01 3.337161e-01 3.608776e-01 3.817649e-01 4.078199e-01 4.271363e-01 4.514784e-01 4.687989e-01 4.908474e-01 5.057510e-01 5.249624e-01 5.370357e-01 5.529107e-01 5.617509e-01 5.738376e-01 5.790566e-01 5.869526e-01 5.881834e-01 5.915408e-01 5.884485e-01 5.869824e-01 5.792817e-01 5.727856e-01 5.602643e-01 5.486314e-01 5.311797e-01 5.144290e-01 4.920726e-01 4.703764e-01 4.433084e-01 4.170159e-01 3.856232e-01 3.552752e-01 3.201521e-01 2.864812e-01 2.484256e-01 2.123377e-01 1.723265e-01 1.348617e-01 9.400298e-02 5.627914e-02 1.574642e-02 -2.111143e-02 -6.015687e-02 -9.509143e-02 -1.315802e-01 -1.636724e-01 -1.966977e-01 -2.252239e-01 -2.540948e-01 -2.785631e-01 -3.028338e-01 -3.229972e-01 -3.424718e-01 -3.583174e-01 -3.730323e-01 -3.847520e-01 -3.949408e-01 -4.028881e-01 -4.089368e-01 -4.135774e-01 -4.159755e-01 -4.178380e-01 -4.171318e-01 -4.167634e-01 -4.135147e-01 -4.114455e-01 -4.061984e-01 -4.029145e-01 -3.961705e-01 -3.920974e-01 -3.842985e-01 -3.797924e-01 -3.713115e-01 -3.666571e-01 -3.577942e-01 -3.532069e-01 -3.441893e-01 -3.398204e-01 -3.308070e-01 -3.267496e-01 -3.178365e-01 -3.141321e-01 -3.053599e-01 -3.020039e-01 -2.933649e-01 -2.903116e-01 -2.817573e-01 -2.789236e-01 -2.703717e-01 -2.676403e-01 -2.589806e-01 -2.562024e-01 -2.473035e-01 -2.442999e-01 -2.350147e-01 -2.315804e-01 
-2.455183e-01 -2.412174e-01 -2.297027e-01 -2.244136e-01 -2.119272e-01 -2.053577e-01 -1.917296e-01 -1.835833e-01 -1.686633e-01 -1.586519e-01 -1.423197e-01 -1.301786e-01 -1.123530e-01 -9.785847e-02 -7.850660e-02 -6.149525e-02 -4.064031e-02 -2.102837e-02 1.244588e-03 2.344363e-02 4.698458e-02 7.164604e-02 9.623991e-02 1.231199e-01 1.484897e-01 1.772249e-01 2.030373e-01 2.331531e-01 2.590269e-01 2.899541e-01 3.154696e-01 3.465678e-01 3.712773e-01 4.018628e-01 4.253007e-01 4.546744e-01 4.763664e-01 5.038398e-01 5.233106e-01 5.482255e-01 5.650036e-01 5.867454e-01 6.003671e-01 6.183708e-01 6.283827e-01 6.421353e-01 6.480978e-01 6.571393e-01 6.586333e-01 6.625603e-01 6.591993e-01 6.576751e-01 6.491249e-01 6.418973e-01 6.279037e-01 6.148316e-01 5.952558e-01 5.763418e-01 5.511999e-01 5.266255e-01 4.961277e-01 4.662840e-01 4.308663e-01 3.963736e-01 3.567158e-01 3.184240e-01 2.754450e-01 2.344114e-01 1.892393e-01 1.466807e-01 1.005960e-01 5.781829e-02 1.217483e-02 -2.951241e-02 -7.338013e-02 -1.127539e-01 -1.536244e-01 -1.896319e-01 -2.264792e-01 -2.583036e-01 -2.903572e-01 -3.174582e-01 -3.442354e-01 -3.663611e-01 -3.876689e-01 -4.048397e-01 -4.207513e-01 -4.332225e-01 -4.440340e-01 -4.522425e-01 -4.584192e-01 -4.629244e-01 -4.650431e-01 -4.664690e-01 -4.651642e-01 -4.641481e-01 -4.600652e-01 -4.572169e-01 -4.509750e-01 -4.468479e-01 -4.390129e-01 -4.340860e-01 -4.251527e-01 -4.198225e-01 -4.102046e-01 -4.047846e-01 -3.948117e-01 -3.895357e-01 -3.794549e-01 -3.744843e-01 -3.644651e-01 -3.598965e-01 -3.500382e-01 -3.459113e-01 -3.362513e-01 -3.325555e-01 -3.230779e-01 -3.197578e-01 -3.104019e-01 -3.073615e-01 -2.980293e-01 -2.951355e-01 -2.856987e-01 -2.827833e-01 -2.730901e-01 -2.699523e-01 -2.598336e-01 -2.562427e-01 
-2.691284e-01 -2.647384e-01 -2.524285e-01 -2.469724e-01 -2.336052e-01 -2.267543e-01 -2.121361e-01 -2.035544e-01 -1.875123e-01 -1.768706e-01 -1.592634e-01 -1.462562e-01 -1.269853e-01 -1.113513e-01 -9.037091e-02 -7.191513e-02 -4.924190e-02 -2.785878e-02 -3.578453e-03 2.072711e-02 4.645551e-02 7.355125e-02 1.004950e-01 1.301114e-01 1.579670e-01 1.896968e-01 2.180966e-01 2.514045e-01 2.799262e-01 3.141688e-01 3.423464e-01 3.768009e-01 4.041373e-01 4.380346e-01 4.640139e-01 4.965726e-01 5.206714e-01 5.511277e-01 5.728236e-01 6.004539e-01 6.192317e-01 6.433665e-01 6.587207e-01 6.787490e-01 6.901848e-01 7.055543e-01 7.125887e-01 7.228028e-01 7.249693e-01 7.295885e-01 7.264480e-01 7.250978e-01 7.162587e-01 7.086481e-01 6.937967e-01 6.797473e-01 6.586882e-01 6.381720e-01 6.108760e-01 5.840573e-01 5.507097e-01 5.179846e-01 4.790280e-01 4.410514e-01 3.972123e-01 3.549055e-01 3.071963e-01 2.617265e-01 2.114156e-01 1.641461e-01 1.126948e-01 6.510564e-02 1.407501e-02 -3.233601e-02 -8.139650e-02 -1.252220e-01 -1.708898e-01 -2.109143e-01 -2.519959e-01 -2.872772e-01 -3.228823e-01 -3.528020e-01 -3.823825e-01 -4.066607e-01 -4.300122e-01 -4.486885e-01 -4.659193e-01 -4.793059e-01 -4.907830e-01 -4.994001e-01 -5.056825e-01 -5.101868e-01 -5.119562e-01 -5.130720e-01 -5.110685e-01 -5.095274e-01 -5.044956e-01 -5.009905e-01 -4.936374e-01 -4.887901e-01 -4.797553e-01 -4.740983e-01 -4.639357e-01 -4.579049e-01 -4.470731e-01 -4.410087e-01 -4.298689e-01 -4.240216e-01 -4.128409e-01 -4.073811e-01 -3.963393e-01 -3.913668e-01 -3.805657e-01 -3.761187e-01 -3.655917e-01 -3.616545e-01 -3.513774e-01 -3.478867e-01 -3.377863e-01 -3.346353e-01 -3.245986e-01 -3.216401e-01 -3.115218e-01 -3.085706e-01 -2.981997e-01 -2.950343e-01 -2.842211e-01 -2.805863e-01 
-2.937457e-01 -2.892916e-01 -2.760846e-01 -2.704886e-01 -2.561057e-01 -2.489993e-01 -2.332188e-01 -2.242229e-01 -2.068464e-01 -1.955861e-01 -1.764503e-01 -1.625741e-01 -1.415632e-01 -1.247656e-01 -1.018243e-01 -8.187149e-02 -5.701479e-02 -3.377140e-02 -7.093335e-03 1.945261e-02 4.777480e-02 7.749121e-02 1.071968e-01 1.397949e-01 1.705439e-01 2.055761e-01 2.369572e-01 2.738276e-01 3.053695e-01 3.433566e-01 3.745409e-01 4.128306e-01 4.431059e-01 4.808309e-01 5.096263e-01 5.459063e-01 5.726439e-01 6.066208e-01 6.307248e-01 6.615891e-01 6.824912e-01 7.094964e-01 7.266383e-01 7.491049e-01 7.619377e-01 7.792490e-01 7.872330e-01 7.988298e-01 8.014382e-01 8.068171e-01 8.035472e-01 8.022690e-01 7.926646e-01 7.843752e-01 7.680620e-01 7.525284e-01 7.292623e-01 7.064203e-01 6.761442e-01 6.461521e-01 6.090556e-01 5.723447e-01 5.289164e-01 4.862269e-01 4.372874e-01 3.896787e-01 3.363837e-01 2.852098e-01 2.290144e-01 1.758614e-01 1.184440e-01 6.503250e-02 8.183735e-03 -4.375258e-02 -9.826306e-02 -1.471068e-01 -1.976657e-01 -2.420357e-01 -2.873039e-01 -3.261484e-01 -3.651455e-01 -3.977968e-01 -4.299414e-01 -4.561287e-01 -4.812354e-01 -5.010561e-01 -5.192948e-01 -5.331558e-01 -5.449853e-01 -5.535237e-01 -5.596122e-01 -5.636107e-01 -5.647546e-01 -5.650606e-01 -5.621118e-01 -5.595685e-01 -5.533734e-01 -5.487689e-01 -5.401226e-01 -5.341549e-01 -5.237701e-01 -5.170293e-01 -5.055167e-01 -4.984792e-01 -4.863397e-01 -4.793718e-01 -4.669951e-01 -4.603621e-01 -4.480319e-01 -4.419099e-01 -4.298128e-01 -4.243006e-01 -4.125368e-01 -4.076669e-01 -3.962622e-01 -3.920096e-01 -3.809270e-01 -3.772161e-01 -3.663660e-01 -3.630752e-01 -3.523250e-01 -3.492897e-01 -3.384722e-01 -3.354868e-01 -3.244071e-01 -3.212263e-01 -3.096689e-01 -3.060100e-01 
-3.181124e-01 -3.137363e-01 -2.998544e-01 -2.942688e-01 -2.791230e-01 -2.719174e-01 -2.552578e-01 -2.460062e-01 -2.276062e-01 -2.158833e-01 -1.955528e-01 -1.809555e-01 -1.585556e-01 -1.407285e-01 -1.161851e-01 -9.485071e-02 -6.816761e-02 -4.315734e-02 -1.442585e-02 1.428957e-02 4.488488e-02 7.717047e-02 1.093509e-01 1.448915e-01 1.782882e-01 2.165860e-01 2.507491e-01 2.911352e-01 3.255461e-01 3.672086e-01 4.012956e-01 4.433193e-01 4.764742e-01 5.178884e-01 5.494836e-01 5.893098e-01 6.187130e-01 6.560075e-01 6.825935e-01 7.164763e-01 7.396329e-01 7.693028e-01 7.884316e-01 8.131671e-01 8.276800e-01 8.468300e-01 8.561449e-01 8.691178e-01 8.726577e-01 8.789141e-01 8.761157e-01 8.751733e-01 8.655081e-01 8.569623e-01 8.399748e-01 8.235377e-01 7.988998e-01 7.744542e-01 7.420325e-01 7.096961e-01 6.696257e-01 6.298136e-01 5.825663e-01 5.360405e-01 4.824730e-01 4.303631e-01 3.717318e-01 3.155172e-01 2.534455e-01 1.948910e-01 1.312860e-01 7.233353e-02 9.255887e-03 -4.811632e-02 -1.086139e-01 -1.625466e-01 -2.185865e-01 -2.674864e-01 -3.175137e-01 -3.601696e-01 -4.030562e-01 -4.387080e-01 -4.738020e-01 -5.021565e-01 -5.292758e-01 -5.504715e-01 -5.698506e-01 -5.843844e-01 -5.965903e-01 -6.052208e-01 -6.110549e-01 -6.146991e-01 -6.150992e-01 -6.147367e-01 -6.106912e-01 -6.072847e-01 -5.997626e-01 -5.941998e-01 -5.841008e-01 -5.771576e-01 -5.652781e-01 -5.576014e-01 -5.446164e-01 -5.367206e-01 -5.231767e-01 -5.154513e-01 -5.017675e-01 -4.944897e-01 -4.809660e-01 -4.743157e-01 -4.611438e-01 -4.552180e-01 -4.424951e-01 -4.373211e-01 -4.250638e-01 -4.206090e-01 -4.087666e-01 -4.049453e-01 -3.934118e-01 -3.900906e-01 -3.787146e-01 -3.757143e-01 -3.643083e-01 -3.614055e-01 -3.497525e-01 -3.466806e-01 -3.345416e-01 -3.309918e-01 
-3.437110e-01 -3.394500e-01 -3.247846e-01 -3.192498e-01 -3.031921e-01 -2.959276e-01 -2.781937e-01 -2.687226e-01 -2.490534e-01 -2.368954e-01 -2.150719e-01 -1.997656e-01 -1.756256e-01 -1.567584e-01 -1.302126e-01 -1.074538e-01 -7.850132e-02 -5.163885e-02 -2.037796e-02 1.064610e-02 4.401110e-02 7.906998e-02 1.142286e-01 1.529906e-01 1.895316e-01 2.314548e-01 2.688777e-01 3.132223e-01 3.509524e-01 3.968118e-01 4.342178e-01 4.805652e-01 5.169780e-01 5.627227e-01 5.974542e-01 6.414989e-01 6.738581e-01 7.151491e-01 7.444542e-01 7.820159e-01 8.075998e-01 8.405502e-01 8.617604e-01 8.893084e-01 9.055007e-01 9.269317e-01 9.374627e-01 9.521198e-01 9.563436e-01 9.636153e-01 9.608908e-01 9.602137e-01 9.499273e-01 9.408097e-01 9.224193e-01 9.044889e-01 8.775877e-01 8.506596e-01 8.150580e-01 7.792170e-01 7.350321e-01 6.907136e-01 6.384531e-01 5.865076e-01 5.271301e-01 4.688508e-01 4.037843e-01 3.408845e-01 2.719874e-01 2.065196e-01 1.359796e-01 7.020042e-02 3.775066e-04 -6.342547e-02 -1.301910e-01 -1.898864e-01 -2.514714e-01 -3.052565e-01 -3.599251e-01 -4.064580e-01 -4.529788e-01 -4.914525e-01 -5.291489e-01 -5.593012e-01 -5.880359e-01 -6.101007e-01 -6.302070e-01 -6.448211e-01 -6.570000e-01 -6.650863e-01 -6.702895e-01 -6.729346e-01 -6.722518e-01 -6.705945e-01 -6.651552e-01 -6.602970e-01 -6.511945e-01 -6.441356e-01 -6.323724e-01 -6.239742e-01 -6.104285e-01 -6.013974e-01 -5.868049e-01 -5.776936e-01 -5.626428e-01 -5.538616e-01 -5.387972e-01 -5.306312e-01 -5.158650e-01 -5.084929e-01 -4.942174e-01 -4.877292e-01 -4.740340e-01 -4.684461e-01 -4.553338e-01 -4.506002e-01 -4.380019e-01 -4.340219e-01 -4.218100e-01 -4.184333e-01 -4.064326e-01 -4.034614e-01 -3.914581e-01 -3.886476e-01 -3.763971e-01 -3.734558e-01 -3.606893e-01 -3.572794e-01 
-3.689255e-01 -3.649464e-01 -3.497540e-01 -3.444490e-01 -3.277751e-01 -3.206404e-01 -3.021667e-01 -2.926699e-01 -2.721026e-01 -2.597013e-01 -2.367872e-01 -2.209545e-01 -1.955000e-01 -1.757572e-01 -1.476473e-01 -1.236027e-01 -9.281842e-02 -6.421058e-02 -3.084277e-02 2.416760e-03 3.815891e-02 7.594818e-02 1.137358e-01 1.556971e-01 1.950870e-01 2.406196e-01 2.810667e-01 3.293412e-01 3.702153e-01 4.202112e-01 4.608176e-01 5.113801e-01 5.509826e-01 6.008912e-01 6.387350e-01 6.867729e-01 7.221056e-01 7.671190e-01 7.992063e-01 8.401440e-01 8.682764e-01 9.042048e-01 9.276945e-01 9.577897e-01 9.759600e-01 9.994841e-01 1.011654e+00 1.027927e+00 1.033402e+00 1.041779e+00 1.039849e+00 1.039720e+00 1.029683e+00 1.020491e+00 1.001694e+00 9.829875e-01 9.549026e-01 9.264113e-01 8.887277e-01 8.504593e-01 8.031938e-01 7.555337e-01 6.991383e-01 6.429342e-01 5.783817e-01 5.149901e-01 4.438128e-01 3.750890e-01 2.993492e-01 2.275675e-01 1.497486e-01 7.745382e-02 2.767956e-04 -6.991670e-02 -1.437281e-01 -2.093625e-01 -2.773287e-01 -3.363166e-01 -3.964167e-01 -4.472086e-01 -4.980273e-01 -5.397060e-01 -5.804945e-01 -6.127879e-01 -6.434394e-01 -6.666587e-01 -6.876181e-01 -7.025414e-01 -7.146742e-01 -7.224016e-01 -7.268488e-01 -7.286536e-01 -7.266959e-01 -7.238925e-01 -7.168355e-01 -7.106759e-01 -6.997639e-01 -6.913673e-01 -6.777257e-01 -6.680399e-01 -6.526406e-01 -6.424295e-01 -6.260757e-01 -6.159254e-01 -5.992498e-01 -5.895863e-01 -5.730587e-01 -5.641706e-01 -5.481121e-01 -5.401740e-01 -5.247747e-01 -5.178685e-01 -5.032072e-01 -4.973390e-01 -4.834019e-01 -4.785148e-01 -4.652132e-01 -4.611951e-01 -4.483796e-01 -4.450673e-01 -4.325399e-01 -4.297210e-01 -4.172442e-01 -4.146564e-01 -4.019605e-01 -3.992907e-01 -3.860805e-01 -3.829639e-01 