# vtk DataFile Version 2.0
Comment goes here
ASCII

DATASET STRUCTURED_POINTS
FIELD FieldData 1
TIME 1 1 double
0.06000000
DIMENSIONS    128   128   1

ORIGIN    0.000   0.000   0.000
SPACING   0.039062 0.039062   1.000

POINT_DATA   16384
SCALARS uY double
LOOKUP_TABLE default

2.355977e-14 2.591188e-14 2.494864e-14 2.743065e-14 2.742379e-14 3.062695e-14 3.076185e-14 3.430891e-14 3.507376e-14 3.853430e-14 3.977313e-14 4.345603e-14 4.468045e-14 4.785585e-14 4.874490e-14 5.191922e-14 5.262786e-14 5.585766e-14 5.667750e-14 5.969207e-14 6.021632e-14 6.357645e-14 6.425141e-14 6.780170e-14 6.852349e-14 7.177348e-14 7.294359e-14 7.625383e-14 7.906611e-14 8.206661e-14 8.389900e-14 8.800939e-14 9.025350e-14 9.392728e-14 9.531691e-14 9.711510e-14 9.997747e-14 1.014996e-13 1.027389e-13 1.038630e-13 1.058246e-13 1.076494e-13 1.099044e-13 1.121538e-13 1.146820e-13 1.149668e-13 1.167043e-13 1.179141e-13 1.176380e-13 1.190507e-13 1.214108e-13 1.216830e-13 1.239493e-13 1.236518e-13 1.254440e-13 1.238858e-13 1.261105e-13 1.243364e-13 1.274179e-13 1.254035e-13 1.278670e-13 1.240309e-13 1.255826e-13 1.208725e-13 1.221062e-13 1.168612e-13 1.176993e-13 1.112453e-13 1.108211e-13 1.042809e-13 1.046839e-13 9.741267e-14 9.848019e-14 9.170365e-14 9.154527e-14 8.356746e-14 8.286570e-14 7.495910e-14 7.553206e-14 6.788967e-14 6.792284e-14 6.177606e-14 6.052745e-14 5.460668e-14 5.537296e-14 4.815484e-14 4.705126e-14 4.060602e-14 4.016225e-14 3.617317e-14 3.574697e-14 3.101061e-14 2.989635e-14 2.615744e-14 2.506194e-14 2.333286e-14 2.101192e-14 2.029913e-14 1.761410e-14 1.708503e-14 1.519422e-14 1.616366e-14 1.529899e-14 1.639590e-14 1.332263e-14 1.507545e-14 1.337835e-14 1.468667e-14 1.272339e-14 1.496474e-14 1.364843e-14 1.574384e-14 1.432617e-14 1.736866e-14 1.559270e-14 1.774718e-14 1.614248e-14 1.804412e-14 1.641693e-14 1.885824e-14 1.764656e-14 2.029618e-14 1.922844e-14 2.173031e-14 2.062988e-14 2.297548e-14 2.211402e-14 2.440495e-14 
-3.140693e-02 -3.107009e-02 -3.057888e-02 -3.014246e-02 -2.955489e-02 -2.901705e-02 -2.833206e-02 -2.769037e-02 -2.690613e-02 -2.615790e-02 -2.527224e-02 -2.441489e-02 -2.342571e-02 -2.245730e-02 -2.136308e-02 -2.028284e-02 -1.908313e-02 -1.789198e-02 -1.658788e-02 -1.528892e-02 -1.388351e-02 -1.248237e-02 -1.098105e-02 -9.486151e-03 -7.896836e-03 -6.319432e-03 -4.652667e-03 -3.006739e-03 -1.275631e-03 4.223993e-04 2.202357e-03 3.934063e-03 5.745283e-03 7.490776e-03 9.313965e-03 1.105248e-02 1.286709e-02 1.457758e-02 1.636225e-02 1.802390e-02 1.975694e-02 2.134955e-02 2.300937e-02 2.451364e-02 2.607905e-02 2.747673e-02 2.892721e-02 3.020104e-02 3.151697e-02 3.265064e-02 3.381336e-02 3.479137e-02 3.578328e-02 3.659085e-02 3.739552e-02 3.801856e-02 3.862079e-02 3.904605e-02 3.943209e-02 3.964743e-02 3.980524e-02 3.980013e-02 3.971973e-02 3.948589e-02 3.915988e-02 3.869206e-02 3.811620e-02 3.741302e-02 3.658688e-02 3.565168e-02 3.457931e-02 3.342085e-02 3.211138e-02 3.074439e-02 2.921255e-02 2.765781e-02 2.592423e-02 2.420841e-02 2.229959e-02 2.045444e-02 1.840238e-02 1.646355e-02 1.430491e-02 1.231029e-02 1.008509e-02 8.072946e-03 5.822882e-03 3.829776e-03 1.596265e-03 -3.447322e-04 -2.522575e-03 -4.383368e-03 -6.470578e-03 -8.228944e-03 -1.019616e-02 -1.183601e-02 -1.366034e-02 -1.517137e-02 -1.683670e-02 -1.821358e-02 -1.971016e-02 -2.095144e-02 -2.227515e-02 -2.338211e-02 -2.453338e-02 -2.550896e-02 -2.649164e-02 -2.733962e-02 -2.815990e-02 -2.888436e-02 -2.954987e-02 -3.015483e-02 -3.067389e-02 -3.116320e-02 -3.154434e-02 -3.192161e-02 -3.217313e-02 -3.244171e-02 -3.257139e-02 -3.273437e-02 -3.274926e-02 -3.280933e-02 -3.271552e-02 -3.267487e-02 -3.247737e-02 -3.233753e-02 -3.204010e-02 -3.180183e-02 
-6.289057e-02 -6.220939e-02 -6.122824e-02 -6.034888e-02 -5.917508e-02 -5.809390e-02 -5.672539e-02 -5.543749e-02 -5.387068e-02 -5.237052e-02 -5.060105e-02 -4.888335e-02 -4.690694e-02 -4.496767e-02 -4.278119e-02 -4.061863e-02 -3.822108e-02 -3.583693e-02 -3.323041e-02 -3.063073e-02 -2.782133e-02 -2.501730e-02 -2.201574e-02 -1.902413e-02 -1.584623e-02 -1.268954e-02 -9.356376e-03 -6.062615e-03 -2.600411e-03 7.975181e-04 4.357729e-03 7.822890e-03 1.144589e-02 1.493841e-02 1.858558e-02 2.206385e-02 2.569405e-02 2.911591e-02 3.268646e-02 3.601024e-02 3.947782e-02 4.266313e-02 4.598462e-02 4.899293e-02 5.212608e-02 5.492094e-02 5.782490e-02 6.037193e-02 6.300760e-02 6.527428e-02 6.760453e-02 6.955998e-02 7.154982e-02 7.316452e-02 7.478123e-02 7.602706e-02 7.724039e-02 7.809083e-02 7.887335e-02 7.930409e-02 7.963173e-02 7.962161e-02 7.947441e-02 7.900675e-02 7.836981e-02 7.743398e-02 7.629865e-02 7.489179e-02 7.325694e-02 7.138562e-02 6.925902e-02 6.694070e-02 6.434020e-02 6.160423e-02 5.855880e-02 5.544675e-02 5.199704e-02 4.856219e-02 4.476057e-02 4.106638e-02 3.697618e-02 3.309390e-02 2.878774e-02 2.479311e-02 2.035040e-02 1.631981e-02 1.182341e-02 7.829918e-03 3.362308e-03 -5.280145e-04 -4.888766e-03 -8.619698e-03 -1.280356e-02 -1.633050e-02 -2.027838e-02 -2.356882e-02 -2.723434e-02 -3.026720e-02 -3.361725e-02 -3.638126e-02 -3.939540e-02 -4.188702e-02 -4.455599e-02 -4.677715e-02 -4.910085e-02 -5.105696e-02 -5.304226e-02 -5.474057e-02 -5.639920e-02 -5.784776e-02 -5.919454e-02 -6.040151e-02 -6.145291e-02 -6.242628e-02 -6.319932e-02 -6.394673e-02 -6.445817e-02 -6.498684e-02 -6.525253e-02 -6.556913e-02 -6.560352e-02 -6.571394e-02 -6.552960e-02 -6.543867e-02 -6.504599e-02 -6.475715e-02 -6.416398e-02 -6.367901e-02 
-9.441566e-02 -9.340616e-02 -9.193259e-02 -9.062513e-02 -8.886351e-02 -8.725241e-02 -8.519923e-02 -8.327690e-02 -8.092635e-02 -7.868423e-02 -7.602934e-02 -7.345924e-02 -7.049322e-02 -6.758878e-02 -6.430655e-02 -6.106493e-02 -5.746466e-02 -5.388817e-02 -4.997274e-02 -4.607027e-02 -4.184861e-02 -3.763682e-02 -3.312489e-02 -2.862898e-02 -2.385047e-02 -1.910430e-02 -1.409087e-02 -9.136688e-03 -3.927834e-03 1.184659e-03 6.542154e-03 1.175715e-02 1.721014e-02 2.246737e-02 2.795753e-02 3.319414e-02 3.865932e-02 4.381165e-02 4.918735e-02 5.419251e-02 5.941328e-02 6.421041e-02 6.921107e-02 7.374219e-02 7.845892e-02 8.266921e-02 8.704030e-02 9.087812e-02 9.484453e-02 9.826106e-02 1.017668e-01 1.047156e-01 1.077077e-01 1.101445e-01 1.125737e-01 1.144560e-01 1.162765e-01 1.175644e-01 1.187345e-01 1.193911e-01 1.198744e-01 1.198674e-01 1.196335e-01 1.189373e-01 1.179635e-01 1.165614e-01 1.148342e-01 1.127213e-01 1.102389e-01 1.074245e-01 1.041983e-01 1.007082e-01 9.676509e-02 9.264327e-02 8.802717e-02 8.333629e-02 7.810908e-02 7.292981e-02 6.717141e-02 6.160024e-02 5.540747e-02 4.955300e-02 4.303709e-02 3.701496e-02 3.029768e-02 2.422462e-02 1.743301e-02 1.142060e-02 4.680934e-03 -1.170166e-03 -7.738690e-03 -1.334329e-02 -1.963433e-02 -2.492550e-02 -3.085007e-02 -3.577988e-02 -4.126909e-02 -4.580747e-02 -5.081323e-02 -5.494528e-02 -5.943918e-02 -6.316172e-02 -6.713244e-02 -7.045034e-02 -7.390032e-02 -7.682324e-02 -7.976510e-02 -8.230495e-02 -8.475818e-02 -8.692750e-02 -8.891568e-02 -9.072670e-02 -9.227538e-02 -9.373968e-02 -9.487480e-02 -9.600323e-02 -9.674997e-02 -9.755266e-02 -9.793464e-02 -9.842088e-02 -9.845943e-02 -9.863743e-02 -9.835102e-02 -9.822750e-02 -9.763125e-02 -9.721097e-02 -9.631622e-02 -9.560152e-02 
-1.261701e-01 -1.248097e-01 -1.228473e-01 -1.210922e-01 -1.187467e-01 -1.165892e-01 -1.138558e-01 -1.112855e-01 -1.081563e-01 -1.051612e-01 -1.016265e-01 -9.819519e-02 -9.424550e-02 -9.036868e-02 -8.599671e-02 -8.166993e-02 -7.687269e-02 -7.209838e-02 -6.687923e-02 -6.166874e-02 -5.603916e-02 -5.041438e-02 -4.439540e-02 -3.838974e-02 -3.201280e-02 -2.567149e-02 -1.897886e-02 -1.235848e-02 -5.402976e-03 1.429776e-03 8.585487e-03 1.555565e-02 2.284034e-02 2.986698e-02 3.720251e-02 4.420123e-02 5.150437e-02 5.838980e-02 6.557427e-02 7.226223e-02 7.924055e-02 8.564976e-02 9.233500e-02 9.838814e-02 1.046953e-01 1.103194e-01 1.161664e-01 1.212931e-01 1.266014e-01 1.311658e-01 1.358612e-01 1.398016e-01 1.438139e-01 1.470715e-01 1.503350e-01 1.528532e-01 1.553072e-01 1.570324e-01 1.586214e-01 1.595041e-01 1.601792e-01 1.601757e-01 1.598961e-01 1.589714e-01 1.577062e-01 1.558374e-01 1.535678e-01 1.507475e-01 1.474701e-01 1.437100e-01 1.394390e-01 1.347730e-01 1.295431e-01 1.240295e-01 1.178981e-01 1.116206e-01 1.046689e-01 9.773565e-02 9.006921e-02 8.260946e-02 7.435653e-02 6.651611e-02 5.782446e-02 4.975869e-02 4.079045e-02 3.265611e-02 2.358086e-02 1.552773e-02 6.514404e-03 -1.322487e-03 -1.011408e-02 -1.762055e-02 -2.604747e-02 -3.313380e-02 -4.107605e-02 -4.767794e-02 -5.504221e-02 -6.111909e-02 -6.783974e-02 -7.337122e-02 -7.940883e-02 -8.439006e-02 -8.972815e-02 -9.416502e-02 -9.880559e-02 -1.027105e-01 -1.066693e-01 -1.100579e-01 -1.133603e-01 -1.162492e-01 -1.189263e-01 -1.213323e-01 -1.234180e-01 -1.253571e-01 -1.268864e-01 -1.283740e-01 -1.293810e-01 -1.304316e-01 -1.309486e-01 -1.315758e-01 -1.316320e-01 -1.318480e-01 -1.314690e-01 -1.312836e-01 -1.304904e-01 -1.299109e-01 -1.287194e-01 -1.277495e-01 
-1.580069e-01 -1.563279e-01 -1.538723e-01 -1.516995e-01 -1.487673e-01 -1.460905e-01 -1.426750e-01 -1.394805e-01 -1.355706e-01 -1.318429e-01 -1.274255e-01 -1.231490e-01 -1.182112e-01 -1.133736e-01 -1.079052e-01 -1.025000e-01 -9.649620e-02 -9.052551e-02 -8.398980e-02 -7.746721e-02 -7.041327e-02 -6.336576e-02 -5.581946e-02 -4.828874e-02 -4.028927e-02 -3.233220e-02 -2.393250e-02 -1.562045e-02 -6.886965e-03 1.695741e-03 1.068403e-02 1.944252e-02 2.859571e-02 3.742754e-02 4.664689e-02 5.544529e-02 6.462564e-02 7.328272e-02 8.231500e-02 9.072458e-02 9.949828e-02 1.075580e-01 1.159634e-01 1.235762e-01 1.315060e-01 1.385806e-01 1.459313e-01 1.523820e-01 1.590549e-01 1.648007e-01 1.707021e-01 1.756662e-01 1.807078e-01 1.848163e-01 1.889155e-01 1.920973e-01 1.951772e-01 1.973647e-01 1.993553e-01 2.004853e-01 2.013245e-01 2.013412e-01 2.009766e-01 1.998345e-01 1.982262e-01 1.958948e-01 1.930184e-01 1.894865e-01 1.853363e-01 1.806168e-01 1.752099e-01 1.693442e-01 1.627236e-01 1.557842e-01 1.480221e-01 1.401143e-01 1.313137e-01 1.225743e-01 1.128697e-01 1.034637e-01 9.301913e-02 8.313321e-02 7.213841e-02 6.197186e-02 5.063552e-02 4.038983e-02 2.893041e-02 1.879794e-02 7.432878e-03 -2.413549e-03 -1.347920e-02 -2.289453e-02 -3.347851e-02 -4.235035e-02 -5.230133e-02 -6.055109e-02 -6.975342e-02 -7.733392e-02 -8.570869e-02 -9.259897e-02 -1.001016e-01 -1.063004e-01 -1.129158e-01 -1.184349e-01 -1.241710e-01 -1.290293e-01 -1.339108e-01 -1.381300e-01 -1.421926e-01 -1.457944e-01 -1.490797e-01 -1.520852e-01 -1.546375e-01 -1.570659e-01 -1.589298e-01 -1.607992e-01 -1.620176e-01 -1.633450e-01 -1.639580e-01 -1.647592e-01 -1.648029e-01 -1.650921e-01 -1.645980e-01 -1.643868e-01 -1.633804e-01 -1.626773e-01 -1.611779e-01 -1.599871e-01 
-1.902231e-01 -1.881875e-01 -1.852442e-01 -1.826211e-01 -1.791084e-01 -1.758852e-01 -1.717948e-01 -1.679540e-01 -1.632720e-01 -1.587937e-01 -1.535032e-01 -1.483675e-01 -1.424517e-01 -1.366419e-01 -1.300874e-01 -1.235941e-01 -1.163937e-01 -1.092180e-01 -1.013746e-01 -9.353154e-02 -8.506069e-02 -7.658185e-02 -6.751389e-02 -5.844906e-02 -4.883071e-02 -3.924833e-02 -2.914325e-02 -1.912967e-02 -8.618072e-03 1.724375e-03 1.254695e-02 2.310299e-02 3.412768e-02 4.477281e-02 5.588003e-02 6.648460e-02 7.754708e-02 8.798033e-02 9.886626e-02 1.089998e-01 1.195759e-01 1.292864e-01 1.394204e-01 1.485914e-01 1.581546e-01 1.666768e-01 1.755451e-01 1.833162e-01 1.913716e-01 1.982952e-01 2.054257e-01 2.114102e-01 2.175104e-01 2.224674e-01 2.274384e-01 2.312826e-01 2.350324e-01 2.376820e-01 2.401262e-01 2.415044e-01 2.425678e-01 2.426058e-01 2.422247e-01 2.408660e-01 2.389909e-01 2.361966e-01 2.327964e-01 2.285510e-01 2.236168e-01 2.179339e-01 2.114839e-01 2.044117e-01 1.964952e-01 1.881203e-01 1.788217e-01 1.692707e-01 1.587117e-01 1.481504e-01 1.364911e-01 1.251198e-01 1.125565e-01 1.006024e-01 8.736324e-02 7.506934e-02 6.140607e-02 4.901801e-02 3.519499e-02 2.294707e-02 9.228130e-03 -2.669575e-03 -1.603511e-02 -2.740679e-02 -4.019694e-02 -5.090689e-02 -6.293706e-02 -7.289083e-02 -8.401971e-02 -9.316083e-02 -1.032917e-01 -1.115953e-01 -1.206730e-01 -1.281378e-01 -1.361431e-01 -1.427832e-01 -1.497249e-01 -1.555628e-01 -1.614700e-01 -1.665319e-01 -1.714471e-01 -1.757596e-01 -1.797330e-01 -1.833217e-01 -1.864070e-01 -1.892963e-01 -1.915477e-01 -1.937608e-01 -1.952311e-01 -1.967901e-01 -1.975290e-01 -1.984548e-01 -1.985073e-01 -1.988188e-01 -1.982240e-01 -1.979371e-01 -1.967274e-01 -1.958535e-01 -1.940531e-01 -1.925984e-01 
-2.225618e-01 -2.202188e-01 -2.167823e-01 -2.137543e-01 -2.096583e-01 -2.059296e-01 -2.011626e-01 -1.967117e-01 -1.912556e-01 -1.860576e-01 -1.798907e-01 -1.739203e-01 -1.670209e-01 -1.602567e-01 -1.526067e-01 -1.450358e-01 -1.366251e-01 -1.282468e-01 -1.190770e-01 -1.099074e-01 -9.999520e-02 -9.007038e-02 -7.945040e-02 -6.882819e-02 -5.755465e-02 -4.631546e-02 -3.446286e-02 -2.270877e-02 -1.037150e-02 1.776173e-03 1.448534e-02 2.688970e-02 3.984201e-02 5.235517e-02 6.540906e-02 7.787714e-02 9.088188e-02 1.031500e-01 1.159495e-01 1.278659e-01 1.403024e-01 1.517220e-01 1.636393e-01 1.744254e-01 1.856715e-01 1.956965e-01 2.061254e-01 2.152701e-01 2.247428e-01 2.328951e-01 2.412802e-01 2.483335e-01 2.555071e-01 2.613582e-01 2.672040e-01 2.717530e-01 2.761623e-01 2.793124e-01 2.821854e-01 2.838449e-01 2.850920e-01 2.851777e-01 2.847222e-01 2.831650e-01 2.809466e-01 2.776970e-01 2.736768e-01 2.687129e-01 2.628780e-01 2.562121e-01 2.485816e-01 2.402675e-01 2.308976e-01 2.210352e-01 2.100243e-01 1.987624e-01 1.862542e-01 1.737896e-01 1.599748e-01 1.465472e-01 1.316612e-01 1.175442e-01 1.018620e-01 8.734926e-02 7.117554e-02 5.656460e-02 4.021998e-02 2.579447e-02 9.598856e-03 -4.388020e-03 -2.013325e-02 -3.347164e-02 -4.850016e-02 -6.103112e-02 -7.512445e-02 -8.674118e-02 -9.973585e-02 -1.103792e-01 -1.221678e-01 -1.318173e-01 -1.423441e-01 -1.510072e-01 -1.602594e-01 -1.679606e-01 -1.759583e-01 -1.827299e-01 -1.895157e-01 -1.953921e-01 -2.010224e-01 -2.060359e-01 -2.105740e-01 -2.147544e-01 -2.182659e-01 -2.216402e-01 -2.241898e-01 -2.267832e-01 -2.284330e-01 -2.302694e-01 -2.310771e-01 -2.321791e-01 -2.321967e-01 -2.325852e-01 -2.318577e-01 -2.315504e-01 -2.301147e-01 -2.291245e-01 -2.270081e-01 -2.253417e-01 
-2.554250e-01 -2.527208e-01 -2.487978e-01 -2.453193e-01 -2.406480e-01 -2.363764e-01 -2.309428e-01 -2.258516e-01 -2.196336e-01 -2.136920e-01 -2.066626e-01 -1.998389e-01 -1.919708e-01 -1.842375e-01 -1.755074e-01 -1.668464e-01 -1.572400e-01 -1.476479e-01 -1.371648e-01 -1.266577e-01 -1.153150e-01 -1.039326e-01 -9.176873e-02 -7.957650e-02 -6.665289e-02 -5.374327e-02 -4.014531e-02 -2.663640e-02 -1.247292e-02 1.494352e-03 1.609290e-02 3.035922e-02 4.524370e-02 5.963691e-02 7.464331e-02 8.898452e-02 1.039384e-01 1.180479e-01 1.327688e-01 1.464713e-01 1.607774e-01 1.739060e-01 1.876176e-01 2.000159e-01 2.129590e-01 2.244818e-01 2.364895e-01 2.470016e-01 2.579156e-01 2.672905e-01 2.769613e-01 2.850781e-01 2.933649e-01 3.001066e-01 3.068768e-01 3.121290e-01 3.172586e-01 3.209095e-01 3.242838e-01 3.262263e-01 3.277415e-01 3.278775e-01 3.274441e-01 3.256903e-01 3.232365e-01 3.195323e-01 3.150102e-01 3.093259e-01 3.027168e-01 2.950629e-01 2.863847e-01 2.768196e-01 2.661325e-01 2.547694e-01 2.421821e-01 2.291916e-01 2.148657e-01 2.004756e-01 1.846273e-01 1.691169e-01 1.520155e-01 1.357043e-01 1.176661e-01 1.008981e-01 8.227552e-02 6.539913e-02 4.656453e-02 2.991154e-02 1.123754e-02 -4.896876e-03 -2.305856e-02 -3.843110e-02 -5.576941e-02 -7.019728e-02 -8.645706e-02 -9.981889e-02 -1.148095e-01 -1.270394e-01 -1.406359e-01 -1.517126e-01 -1.638501e-01 -1.737841e-01 -1.844480e-01 -1.932683e-01 -2.024821e-01 -2.102267e-01 -2.180399e-01 -2.247484e-01 -2.312262e-01 -2.369366e-01 -2.421525e-01 -2.468996e-01 -2.509299e-01 -2.547462e-01 -2.576669e-01 -2.605833e-01 -2.624673e-01 -2.645138e-01 -2.654294e-01 -2.666349e-01 -2.666443e-01 -2.670355e-01 -2.661927e-01 -2.657926e-01 -2.641420e-01 -2.629676e-01 -2.605427e-01 -2.586033e-01 
-2.884499e-01 -2.854512e-01 -2.810368e-01 -2.771691e-01 -2.719209e-01 -2.671618e-01 -2.610614e-01 -2.553791e-01 -2.483985e-01 -2.417553e-01 -2.338607e-01 -2.262178e-01 -2.173746e-01 -2.086972e-01 -1.988757e-01 -1.891397e-01 -1.783204e-01 -1.675185e-01 -1.556977e-01 -1.438454e-01 -1.310401e-01 -1.181804e-01 -1.044323e-01 -9.063837e-02 -7.601603e-02 -6.139289e-02 -4.599276e-02 -3.067552e-02 -1.462142e-02 1.227946e-03 1.778702e-02 3.398501e-02 5.087829e-02 6.722658e-02 8.426601e-02 1.005587e-01 1.175442e-01 1.335751e-01 1.502997e-01 1.658684e-01 1.821239e-01 1.970403e-01 2.126217e-01 2.267089e-01 2.414174e-01 2.545120e-01 2.681580e-01 2.801088e-01 2.925127e-01 3.031784e-01 3.141709e-01 3.234164e-01 3.328379e-01 3.405320e-01 3.482324e-01 3.542455e-01 3.600837e-01 3.642882e-01 3.681328e-01 3.704048e-01 3.721362e-01 3.723605e-01 3.718739e-01 3.699508e-01 3.671613e-01 3.630157e-01 3.578645e-01 3.514560e-01 3.439174e-01 3.352515e-01 3.253411e-01 3.144786e-01 3.022612e-01 2.893268e-01 2.749236e-01 2.601105e-01 2.437047e-01 2.272745e-01 2.091145e-01 1.913912e-01 1.717893e-01 1.531469e-01 1.324730e-01 1.133161e-01 9.198452e-02 7.272434e-02 5.117462e-02 3.220261e-02 1.087495e-02 -7.462295e-03 -2.815370e-02 -4.557402e-02 -6.526601e-02 -8.156264e-02 -9.996226e-02 -1.150048e-01 -1.318997e-01 -1.456259e-01 -1.608846e-01 -1.732856e-01 -1.868495e-01 -1.979522e-01 -2.098214e-01 -2.196718e-01 -2.298886e-01 -2.385392e-01 -2.471730e-01 -2.546739e-01 -2.618085e-01 -2.682040e-01 -2.739292e-01 -2.792574e-01 -2.836631e-01 -2.879581e-01 -2.911315e-01 -2.944247e-01 -2.964483e-01 -2.987708e-01 -2.997211e-01 -3.011031e-01 -3.010493e-01 -3.015195e-01 -3.005218e-01 -3.001054e-01 -2.982128e-01 -2.969288e-01 -2.941779e-01 -2.920366e-01 
-3.221365e-01 -3.187733e-01 -3.138741e-01 -3.095589e-01 -3.037430e-01 -2.984492e-01 -2.916946e-01 -2.853841e-01 -2.776568e-01 -2.702836e-01 -2.615426e-01 -2.530587e-01 -2.432612e-01 -2.336228e-01 -2.227312e-01 -2.119062e-01 -1.998942e-01 -1.878698e-01 -1.747294e-01 -1.615189e-01 -1.472659e-01 -1.329145e-01 -1.175931e-01 -1.021813e-01 -8.586675e-02 -6.951206e-02 -5.231210e-02 -3.516717e-02 -1.722106e-02 5.301514e-04 1.905413e-02 3.720273e-02 5.611134e-02 7.443147e-02 9.351185e-02 1.117694e-01 1.307952e-01 1.487564e-01 1.674943e-01 1.849331e-01 2.031488e-01 2.198522e-01 2.373158e-01 2.530869e-01 2.695767e-01 2.842352e-01 2.995405e-01 3.129206e-01 3.268425e-01 3.387896e-01 3.511412e-01 3.615076e-01 3.721129e-01 3.807541e-01 3.894469e-01 3.962190e-01 4.028427e-01 4.076019e-01 4.120095e-01 4.146146e-01 4.166710e-01 4.169884e-01 4.165738e-01 4.144858e-01 4.115013e-01 4.069167e-01 4.012911e-01 3.941575e-01 3.858561e-01 3.761725e-01 3.652059e-01 3.530349e-01 3.394686e-01 3.249462e-01 3.089091e-01 2.922508e-01 2.739423e-01 2.554437e-01 2.351377e-01 2.151679e-01 1.932125e-01 1.721995e-01 1.490104e-01 1.274191e-01 1.034652e-01 8.176824e-02 5.754944e-02 3.619587e-02 1.221491e-02 -8.399602e-03 -3.166887e-02 -5.122496e-02 -7.336710e-02 -9.163393e-02 -1.123146e-01 -1.291499e-01 -1.481278e-01 -1.634673e-01 -1.805946e-01 -1.944338e-01 -2.096460e-01 -2.220194e-01 -2.353189e-01 -2.462811e-01 -2.577178e-01 -2.673291e-01 -2.769829e-01 -2.853000e-01 -2.932669e-01 -3.003400e-01 -3.067220e-01 -3.125949e-01 -3.174945e-01 -3.222067e-01 -3.257237e-01 -3.293132e-01 -3.315425e-01 -3.340474e-01 -3.350778e-01 -3.365360e-01 -3.364482e-01 -3.368961e-01 -3.357608e-01 -3.352303e-01 -3.331057e-01 -3.316213e-01 -3.285506e-01 -3.261263e-01 
-3.560233e-01 -3.523803e-01 -3.469939e-01 -3.423092e-01 -3.359271e-01 -3.301694e-01 -3.227635e-01 -3.158875e-01 -3.074159e-01 -2.993668e-01 -2.897788e-01 -2.804981e-01 -2.697411e-01 -2.591746e-01 -2.472010e-01 -2.353073e-01 -2.220829e-01 -2.088421e-01 -1.943531e-01 -1.797754e-01 -1.640354e-01 -1.481675e-01 -1.312225e-01 -1.141523e-01 -9.608437e-02 -7.794246e-02 -5.887063e-02 -3.982858e-02 -1.990826e-02 -1.739724e-04 2.040616e-02 4.059595e-02 6.161861e-02 8.200783e-02 1.032333e-01 1.235569e-01 1.447302e-01 1.647244e-01 1.855828e-01 2.049939e-01 2.252739e-01 2.438644e-01 2.633084e-01 2.808605e-01 2.992209e-01 3.155367e-01 3.325792e-01 3.474781e-01 3.629821e-01 3.762964e-01 3.900553e-01 4.016245e-01 4.134438e-01 4.231103e-01 4.328060e-01 4.404110e-01 4.478090e-01 4.531916e-01 4.581271e-01 4.611269e-01 4.634469e-01 4.639095e-01 4.634765e-01 4.612628e-01 4.579608e-01 4.529595e-01 4.467027e-01 4.388444e-01 4.295866e-01 4.188594e-01 4.066047e-01 3.930688e-01 3.778832e-01 3.616832e-01 3.437049e-01 3.250785e-01 3.045271e-01 2.838067e-01 2.609896e-01 2.385961e-01 2.139090e-01 1.903358e-01 1.642563e-01 1.400432e-01 1.131146e-01 8.881317e-02 6.161821e-02 3.775277e-02 1.087867e-02 -1.209121e-02 -3.809240e-02 -5.980126e-02 -8.445027e-02 -1.046426e-01 -1.275616e-01 -1.460917e-01 -1.670189e-01 -1.838363e-01 -2.026244e-01 -2.177493e-01 -2.343509e-01 -2.478464e-01 -2.622905e-01 -2.742377e-01 -2.866043e-01 -2.970835e-01 -3.074813e-01 -3.165622e-01 -3.251114e-01 -3.328503e-01 -3.396726e-01 -3.461146e-01 -3.513274e-01 -3.565112e-01 -3.602257e-01 -3.641879e-01 -3.665085e-01 -3.692867e-01 -3.703104e-01 -3.719435e-01 -3.717582e-01 -3.722849e-01 -3.709677e-01 -3.704231e-01 -3.680372e-01 -3.664488e-01 -3.630410e-01 -3.604247e-01 
-3.906966e-01 -3.866873e-01 -3.808189e-01 -3.756937e-01 -3.687554e-01 -3.624776e-01 -3.544358e-01 -3.469517e-01 -3.377563e-01 -3.289997e-01 -3.185896e-01 -3.084894e-01 -2.968003e-01 -2.852889e-01 -2.722618e-01 -2.592857e-01 -2.448760e-01 -2.304062e-01 -2.145926e-01 -1.986338e-01 -1.814262e-01 -1.640254e-01 -1.454707e-01 -1.267224e-01 -1.069089e-01 -8.695678e-02 -6.601513e-02 -4.505059e-02 -2.315309e-02 -1.409362e-03 2.123374e-02 4.349027e-02 6.663629e-02 8.911733e-02 1.124984e-01 1.349061e-01 1.582377e-01 1.802768e-01 2.032663e-01 2.246545e-01 2.470101e-01 2.674855e-01 2.889226e-01 3.082474e-01 3.284945e-01 3.464551e-01 3.652565e-01 3.816596e-01 3.987761e-01 4.134434e-01 4.286514e-01 4.414120e-01 4.545014e-01 4.651860e-01 4.759577e-01 4.843934e-01 4.926575e-01 4.986664e-01 5.042421e-01 5.076432e-01 5.103603e-01 5.109767e-01 5.106797e-01 5.083487e-01 5.049042e-01 4.994918e-01 4.927974e-01 4.842156e-01 4.742110e-01 4.624351e-01 4.491150e-01 4.342017e-01 4.176278e-01 3.997301e-01 3.800444e-01 3.594222e-01 3.368577e-01 3.138807e-01 2.887695e-01 2.639112e-01 2.366869e-01 2.105065e-01 1.816981e-01 1.548100e-01 1.250249e-01 9.805767e-02 6.795204e-02 4.150179e-02 1.173976e-02 -1.367435e-02 -4.246720e-02 -6.643747e-02 -9.371857e-02 -1.159661e-01 -1.413097e-01 -1.616822e-01 -1.847962e-01 -2.032490e-01 -2.239724e-01 -2.405386e-01 -2.588238e-01 -2.735814e-01 -2.894667e-01 -3.025103e-01 -3.160900e-01 -3.275108e-01 -3.389093e-01 -3.487847e-01 -3.581384e-01 -3.665305e-01 -3.739760e-01 -3.809348e-01 -3.866039e-01 -3.921739e-01 -3.961920e-01 -4.004166e-01 -4.029023e-01 -4.058277e-01 -4.068918e-01 -4.085664e-01 -4.083107e-01 -4.087832e-01 -4.072972e-01 -4.066117e-01 -4.039695e-01 -4.021612e-01 -3.984179e-01 -3.955076e-01 
-4.256083e-01 -4.213362e-01 -4.149885e-01 -4.095179e-01 -4.020301e-01 -3.953189e-01 -3.866495e-01 -3.786346e-01 -3.687227e-01 -3.593259e-01 -3.480974e-01 -3.372332e-01 -3.246096e-01 -3.121957e-01 -2.981043e-01 -2.840729e-01 -2.684569e-01 -2.527675e-01 -2.355964e-01 -2.182469e-01 -1.995256e-01 -1.805622e-01 -1.603379e-01 -1.398613e-01 -1.182282e-01 -9.639634e-02 -7.349698e-02 -5.052261e-02 -2.654687e-02 -2.691296e-03 2.212771e-02 4.656511e-02 7.195738e-02 9.665241e-02 1.223194e-01 1.469377e-01 1.725620e-01 1.967736e-01 2.220293e-01 2.455206e-01 2.700831e-01 2.925659e-01 3.161202e-01 3.373356e-01 3.595824e-01 3.793005e-01 3.999596e-01 4.179747e-01 4.367853e-01 4.529088e-01 4.696280e-01 4.836792e-01 4.980793e-01 5.098773e-01 5.217419e-01 5.310997e-01 5.402213e-01 5.469427e-01 5.531216e-01 5.570037e-01 5.600494e-01 5.608893e-01 5.606252e-01 5.582324e-01 5.545036e-01 5.487160e-01 5.413998e-01 5.321036e-01 5.211223e-01 5.082737e-01 4.936090e-01 4.772547e-01 4.589629e-01 4.392593e-01 4.174867e-01 3.947138e-01 3.697103e-01 3.442777e-01 3.164087e-01 2.888503e-01 2.586012e-01 2.295564e-01 1.975285e-01 1.677067e-01 1.345987e-01 1.047309e-01 7.130359e-02 4.208465e-02 9.111790e-03 -1.885627e-02 -5.064720e-02 -7.689978e-02 -1.068846e-01 -1.311176e-01 -1.588190e-01 -1.808863e-01 -2.059940e-01 -2.258815e-01 -2.482474e-01 -2.660322e-01 -2.856431e-01 -3.014499e-01 -3.183892e-01 -3.323521e-01 -3.467602e-01 -3.589978e-01 -3.710393e-01 -3.816436e-01 -3.914859e-01 -4.005228e-01 -4.083246e-01 -4.158416e-01 -4.217500e-01 -4.277858e-01 -4.319368e-01 -4.365303e-01 -4.390510e-01 -4.422458e-01 -4.432547e-01 -4.451001e-01 -4.447063e-01 -4.452542e-01 -4.435542e-01 -4.428538e-01 -4.399276e-01 -4.380189e-01 -4.339258e-01 -4.308332e-01 
-4.614132e-01 -4.567746e-01 -4.499497e-01 -4.440510e-01 -4.360236e-01 -4.288157e-01 -4.195370e-01 -4.109453e-01 -4.003428e-01 -3.902740e-01 -3.782592e-01 -3.666100e-01 -3.530883e-01 -3.397575e-01 -3.246394e-01 -3.095418e-01 -2.927554e-01 -2.758356e-01 -2.573387e-01 -2.385850e-01 -2.183753e-01 -1.978312e-01 -1.759547e-01 -1.537265e-01 -1.302827e-01 -1.065424e-01 -8.168622e-02 -5.666928e-02 -3.060954e-02 -4.607321e-03 2.239820e-02 4.905065e-02 7.670251e-02 1.036421e-01 1.316091e-01 1.584622e-01 1.863925e-01 2.127920e-01 2.403256e-01 2.659255e-01 2.927055e-01 3.171912e-01 3.428736e-01 3.659663e-01 3.902266e-01 4.116828e-01 4.342193e-01 4.538244e-01 4.743587e-01 4.919172e-01 5.101911e-01 5.255158e-01 5.412875e-01 5.541887e-01 5.672282e-01 5.775057e-01 5.875904e-01 5.950298e-01 6.019431e-01 6.063176e-01 6.098499e-01 6.109282e-01 6.108818e-01 6.084418e-01 6.046394e-01 5.984877e-01 5.907844e-01 5.807789e-01 5.690769e-01 5.551518e-01 5.394164e-01 5.216075e-01 5.018844e-01 4.803513e-01 4.567845e-01 4.318277e-01 4.046758e-01 3.767459e-01 3.463967e-01 3.160896e-01 2.830681e-01 2.511046e-01 2.160702e-01 1.832554e-01 1.469836e-01 1.141488e-01 7.749227e-02 4.542558e-02 9.256491e-03 -2.136503e-02 -5.622486e-02 -8.488781e-02 -1.177348e-01 -1.441144e-01 -1.744145e-01 -1.983678e-01 -2.257799e-01 -2.473119e-01 -2.716800e-01 -2.908941e-01 -3.122149e-01 -3.292612e-01 -3.476384e-01 -3.626716e-01 -3.782698e-01 -3.914221e-01 -4.044292e-01 -4.158006e-01 -4.264043e-01 -4.360648e-01 -4.444418e-01 -4.524422e-01 -4.587552e-01 -4.651391e-01 -4.695397e-01 -4.743533e-01 -4.769842e-01 -4.802814e-01 -4.812775e-01 -4.831198e-01 -4.826065e-01 -4.830591e-01 -4.811483e-01 -4.802728e-01 -4.770578e-01 -4.749047e-01 -4.704551e-01 -4.670558e-01 
-4.974960e-01 -4.926134e-01 -4.853217e-01 -4.791074e-01 -4.705553e-01 -4.629534e-01 -4.530817e-01 -4.440062e-01 -4.327278e-01 -4.220690e-01 -4.092781e-01 -3.969130e-01 -3.824957e-01 -3.683020e-01 -3.521494e-01 -3.360211e-01 -3.180439e-01 -2.999081e-01 -2.800498e-01 -2.598828e-01 -2.381326e-01 -2.159733e-01 -1.923751e-01 -1.683349e-01 -1.429934e-01 -1.172593e-01 -9.034194e-02 -6.317450e-02 -3.490954e-02 -6.633787e-03 2.269481e-02 5.170363e-02 8.176474e-02 1.110997e-01 1.415262e-01 1.707694e-01 2.011711e-01 2.299138e-01 2.598919e-01 2.877523e-01 3.169124e-01 3.435470e-01 3.715110e-01 3.966203e-01 4.230339e-01 4.463605e-01 4.708968e-01 4.922174e-01 5.145769e-01 5.336906e-01 5.535976e-01 5.703116e-01 5.875083e-01 6.016250e-01 6.158653e-01 6.271720e-01 6.382162e-01 6.464795e-01 6.540914e-01 6.590588e-01 6.630060e-01 6.644142e-01 6.644734e-01 6.620636e-01 6.580303e-01 6.515701e-01 6.432720e-01 6.325820e-01 6.198956e-01 6.048785e-01 5.877476e-01 5.684181e-01 5.468744e-01 5.233866e-01 4.975701e-01 4.702402e-01 4.404202e-01 4.097401e-01 3.763344e-01 3.429705e-01 3.065592e-01 2.713314e-01 2.326577e-01 1.964946e-01 1.564468e-01 1.203166e-01 7.988350e-02 4.470829e-02 4.908771e-03 -2.852215e-02 -6.672798e-02 -9.782774e-02 -1.336272e-01 -1.620460e-01 -1.948414e-01 -2.204588e-01 -2.498969e-01 -2.727757e-01 -2.987340e-01 -3.190529e-01 -3.415907e-01 -3.595735e-01 -3.788682e-01 -3.947274e-01 -4.110124e-01 -4.249159e-01 -4.384337e-01 -4.504953e-01 -4.614715e-01 -4.717590e-01 -4.803930e-01 -4.889459e-01 -4.954135e-01 -5.022624e-01 -5.067227e-01 -5.119037e-01 -5.145055e-01 -5.180676e-01 -5.189525e-01 -5.209582e-01 -5.202591e-01 -5.207790e-01 -5.186160e-01 -5.177198e-01 -5.141938e-01 -5.119401e-01 -5.071265e-01 -5.035533e-01 
-5.345516e-01 -5.293045e-01 -5.215433e-01 -5.149201e-01 -5.058526e-01 -4.977888e-01 -4.873456e-01 -4.777399e-01 -4.658187e-01 -4.545410e-01 -4.410161e-01 -4.279192e-01 -4.126540e-01 -3.975895e-01 -3.804521e-01 -3.632883e-01 -3.441675e-01 -3.248096e-01 -3.036313e-01 -2.820398e-01 -2.587814e-01 -2.349884e-01 -2.096898e-01 -1.838103e-01 -1.565806e-01 -1.288173e-01 -9.983718e-02 -7.047709e-02 -3.999648e-02 -9.401298e-03 2.226690e-02 5.367788e-02 8.616764e-02 1.179393e-01 1.508444e-01 1.825102e-01 2.153998e-01 2.465061e-01 2.789410e-01 3.090679e-01 3.406168e-01 3.693920e-01 3.996444e-01 4.267495e-01 4.553244e-01 4.804919e-01 5.070418e-01 5.300449e-01 5.542544e-01 5.748919e-01 5.964728e-01 6.145516e-01 6.332351e-01 6.485533e-01 6.640821e-01 6.764159e-01 6.885369e-01 6.976338e-01 7.060935e-01 7.116728e-01 7.162173e-01 7.179796e-01 7.183604e-01 7.160051e-01 7.119893e-01 7.052404e-01 6.966261e-01 6.852626e-01 6.718977e-01 6.557878e-01 6.375913e-01 6.167270e-01 5.937113e-01 5.682411e-01 5.405352e-01 5.107922e-01 4.786663e-01 4.451856e-01 4.090749e-01 3.725963e-01 3.331192e-01 2.945655e-01 2.525307e-01 2.129561e-01 1.693456e-01 1.298534e-01 8.577414e-02 4.741300e-02 4.014487e-03 -3.232797e-02 -7.395962e-02 -1.076393e-01 -1.465880e-01 -1.772412e-01 -2.128410e-01 -2.403684e-01 -2.722364e-01 -2.967425e-01 -3.247599e-01 -3.464701e-01 -3.707237e-01 -3.899029e-01 -4.106082e-01 -4.274977e-01 -4.449264e-01 -4.597100e-01 -4.741375e-01 -4.869344e-01 -4.986115e-01 -5.094895e-01 -5.186347e-01 -5.276329e-01 -5.344381e-01 -5.415896e-01 -5.462297e-01 -5.515782e-01 -5.542193e-01 -5.578264e-01 -5.586290e-01 -5.605738e-01 -5.596908e-01 -5.600617e-01 -5.576326e-01 -5.565166e-01 -5.526592e-01 -5.501294e-01 -5.449321e-01 -5.410366e-01 