# vtk DataFile Version 2.0
Comment goes here
ASCII

DATASET STRUCTURED_POINTS
FIELD FieldData 1
TIME 1 1 double
0.23000000
DIMENSIONS    128   128   1

ORIGIN    0.000   0.000   0.000
SPACING   0.039062 0.039062   1.000

POINT_DATA   16384
SCALARS uY double
LOOKUP_TABLE default

-7.040768e-14 -6.975697e-14 -7.152161e-14 -7.067658e-14 -7.264275e-14 -7.177321e-14 -7.376498e-14 -7.256056e-14 -7.495024e-14 -7.449923e-14 -7.717857e-14 -7.618614e-14 -7.936503e-14 -7.884987e-14 -8.150688e-14 -8.061513e-14 -8.354859e-14 -8.290112e-14 -8.582823e-14 -8.489398e-14 -8.830135e-14 -8.723451e-14 -9.061174e-14 -8.954391e-14 -9.329277e-14 -9.112389e-14 -9.403157e-14 -9.180646e-14 -9.489918e-14 -9.171749e-14 -9.447689e-14 -9.085361e-14 -9.472001e-14 -9.184428e-14 -9.582528e-14 -9.328826e-14 -9.635649e-14 -9.314993e-14 -9.524047e-14 -9.172112e-14 -9.473763e-14 -9.112999e-14 -9.280757e-14 -8.873133e-14 -9.103282e-14 -8.674480e-14 -8.839409e-14 -8.406293e-14 -8.559082e-14 -8.201546e-14 -8.410654e-14 -8.096787e-14 -8.270454e-14 -7.994851e-14 -8.035886e-14 -7.752072e-14 -7.777548e-14 -7.500230e-14 -7.458854e-14 -7.273663e-14 -7.174730e-14 -7.023927e-14 -6.936346e-14 -6.857096e-14 -6.769786e-14 -6.791112e-14 -6.607296e-14 -6.805494e-14 -6.537665e-14 -6.704816e-14 -6.560775e-14 -6.803500e-14 -6.670844e-14 -7.016886e-14 -6.722992e-14 -7.234550e-14 -6.994048e-14 -7.459472e-14 -7.142289e-14 -7.737348e-14 -7.356288e-14 -7.815746e-14 -7.482157e-14 -8.002503e-14 -7.632532e-14 -8.213927e-14 -7.899709e-14 -8.432903e-14 -7.962413e-14 -8.422081e-14 -8.002719e-14 -8.473007e-14 -7.999356e-14 -8.286456e-14 -7.934170e-14 -8.421271e-14 -8.167245e-14 -8.366609e-14 -8.036371e-14 -8.230932e-14 -7.877160e-14 -8.091707e-14 -7.686807e-14 -7.802186e-14 -7.506667e-14 -7.611216e-14 -7.315063e-14 -7.369309e-14 -7.130287e-14 -7.163750e-14 -7.020852e-14 -7.011542e-14 -6.925979e-14 -6.909327e-14 -6.855885e-14 -6.803571e-14 -6.814939e-14 -6.797067e-14 -6.834555e-14 -6.788304e-14 -6.814658e-14 -6.716257e-14 -6.781892e-14 -6.712068e-14 -6.825888e-14 -6.791850e-14 -6.931209e-14 -6.879834e-14 
-1.159079e-02 -1.189537e-02 -1.213475e-02 -1.234690e-02 -1.249167e-02 -1.260423e-02 -1.264825e-02 -1.265599e-02 -1.259531e-02 -1.249532e-02 -1.232854e-02 -1.212063e-02 -1.184927e-02 -1.153624e-02 -1.116496e-02 -1.075282e-02 -1.028956e-02 -9.787608e-03 -9.243518e-03 -8.664118e-03 -8.053269e-03 -7.411528e-03 -6.750406e-03 -6.063556e-03 -5.370349e-03 -4.656960e-03 -3.950688e-03 -3.229768e-03 -2.529333e-03 -1.819366e-03 -1.142598e-03 -4.606304e-04 1.765737e-04 8.157348e-04 1.400126e-03 1.984531e-03 2.506008e-03 3.026968e-03 3.478850e-03 3.931107e-03 4.310169e-03 4.691844e-03 4.998151e-03 5.310494e-03 5.547045e-03 5.794031e-03 5.966289e-03 6.154098e-03 6.269423e-03 6.405860e-03 6.472912e-03 6.566795e-03 6.594937e-03 6.655506e-03 6.654243e-03 6.690606e-03 6.669083e-03 6.689733e-03 6.656316e-03 6.668728e-03 6.630673e-03 6.640996e-03 6.604214e-03 6.617061e-03 6.585981e-03 6.604321e-03 6.581836e-03 6.606977e-03 6.594476e-03 6.626140e-03 6.623594e-03 6.660062e-03 6.666160e-03 6.704465e-03 6.716769e-03 6.752925e-03 6.768033e-03 6.797269e-03 6.810960e-03 6.827947e-03 6.835318e-03 6.834368e-03 6.829952e-03 6.805196e-03 6.783071e-03 6.728616e-03 6.682543e-03 6.592616e-03 6.516203e-03 6.385320e-03 6.272244e-03 6.095394e-03 5.939681e-03 5.712557e-03 5.508921e-03 5.228173e-03 4.972384e-03 4.635897e-03 4.325150e-03 3.932306e-03 3.565549e-03 3.117452e-03 2.695634e-03 2.195255e-03 1.721462e-03 1.173695e-03 6.531596e-04 6.476498e-05 -4.952523e-04 -1.115807e-03 -1.706247e-03 -2.349026e-03 -2.959345e-03 -3.613248e-03 -4.231774e-03 -4.884860e-03 -5.499166e-03 -6.138979e-03 -6.736233e-03 -7.350109e-03 -7.917399e-03 -8.492732e-03 -9.017346e-03 -9.541837e-03 -1.001151e-02 -1.047339e-02 -1.087655e-02 -1.126479e-02 
-2.323955e-02 -2.385107e-02 -2.433130e-02 -2.475756e-02 -2.504815e-02 -2.527471e-02 -2.536325e-02 -2.537952e-02 -2.525799e-02 -2.505806e-02 -2.472356e-02 -2.430693e-02 -2.376240e-02 -2.313459e-02 -2.238933e-02 -2.156234e-02 -2.063224e-02 -1.962463e-02 -1.853205e-02 -1.736865e-02 -1.614185e-02 -1.485300e-02 -1.352514e-02 -1.214547e-02 -1.075315e-02 -9.320027e-03 -7.901532e-03 -6.453209e-03 -5.046599e-03 -3.620283e-03 -2.261454e-03 -8.914655e-04 3.875981e-04 1.671445e-03 2.844101e-03 4.017749e-03 5.063707e-03 6.109663e-03 7.015534e-03 7.923211e-03 8.682569e-03 9.448178e-03 1.006122e-02 1.068726e-02 1.116008e-02 1.165455e-02 1.199818e-02 1.237349e-02 1.260280e-02 1.287463e-02 1.300705e-02 1.319313e-02 1.324752e-02 1.336643e-02 1.336189e-02 1.343196e-02 1.338687e-02 1.342520e-02 1.335637e-02 1.337800e-02 1.330000e-02 1.331734e-02 1.324202e-02 1.326440e-02 1.320063e-02 1.323408e-02 1.318764e-02 1.323485e-02 1.320852e-02 1.326899e-02 1.326269e-02 1.333303e-02 1.334413e-02 1.341845e-02 1.344206e-02 1.351241e-02 1.354171e-02 1.359858e-02 1.362513e-02 1.365787e-02 1.367188e-02 1.366912e-02 1.365966e-02 1.360967e-02 1.356490e-02 1.345587e-02 1.336332e-02 1.318368e-02 1.303054e-02 1.276928e-02 1.254286e-02 1.218988e-02 1.187820e-02 1.142478e-02 1.101720e-02 1.045653e-02 9.944533e-03 9.272256e-03 8.650163e-03 7.864934e-03 7.130584e-03 6.234508e-03 5.389763e-03 4.388710e-03 3.439726e-03 2.343439e-03 1.300689e-03 1.226745e-04 -9.992938e-04 -2.242078e-03 -3.425107e-03 -4.712745e-03 -5.935696e-03 -7.245924e-03 -8.485402e-03 -9.794263e-03 -1.102536e-02 -1.230787e-02 -1.350487e-02 -1.473562e-02 -1.587266e-02 -1.702636e-02 -1.807797e-02 -1.912994e-02 -2.007156e-02 -2.099818e-02 -2.180658e-02 -2.258573e-02 
-3.494272e-02 -3.586520e-02 -3.659130e-02 -3.723492e-02 -3.767540e-02 -3.801828e-02 -3.815432e-02 -3.818041e-02 -3.799976e-02 -3.770000e-02 -3.719816e-02 -3.657162e-02 -3.575286e-02 -3.480775e-02 -3.368596e-02 -3.244029e-02 -3.103936e-02 -2.952112e-02 -2.787477e-02 -2.612147e-02 -2.427244e-02 -2.232999e-02 -2.032843e-02 -1.824931e-02 -1.615067e-02 -1.399150e-02 -1.185378e-02 -9.672530e-03 -7.553389e-03 -5.406437e-03 -3.360234e-03 -1.299514e-03 6.253557e-04 2.554799e-03 4.318084e-03 6.080001e-03 7.651128e-03 9.219281e-03 1.057817e-02 1.193683e-02 1.307398e-02 1.421777e-02 1.513371e-02 1.606678e-02 1.677098e-02 1.750578e-02 1.801520e-02 1.857083e-02 1.890815e-02 1.930865e-02 1.950044e-02 1.977284e-02 1.984776e-02 2.002034e-02 2.000740e-02 2.010798e-02 2.003503e-02 2.008949e-02 1.998196e-02 2.001303e-02 1.989294e-02 1.991928e-02 1.980450e-02 1.984006e-02 1.974392e-02 1.979763e-02 1.972878e-02 1.980448e-02 1.976700e-02 1.986372e-02 1.985739e-02 1.996977e-02 1.999050e-02 2.010941e-02 2.014972e-02 2.026296e-02 2.031251e-02 2.040554e-02 2.045151e-02 2.050816e-02 2.053573e-02 2.053874e-02 2.053140e-02 2.046302e-02 2.040287e-02 2.024526e-02 2.011342e-02 1.984911e-02 1.962618e-02 1.923852e-02 1.890525e-02 1.837899e-02 1.791713e-02 1.723909e-02 1.663241e-02 1.579227e-02 1.502770e-02 1.401885e-02 1.308765e-02 1.190801e-02 1.080679e-02 9.459527e-03 8.190984e-03 6.684956e-03 5.258342e-03 3.608285e-03 2.039418e-03 2.657690e-04 -1.423340e-03 -3.294934e-03 -5.076797e-03 -7.016231e-03 -8.858856e-03 -1.083250e-02 -1.270050e-02 -1.467221e-02 -1.652795e-02 -1.846005e-02 -2.026472e-02 -2.211894e-02 -2.383352e-02 -2.557181e-02 -2.715791e-02 -2.874315e-02 -3.016374e-02 -3.156039e-02 -3.278052e-02 -3.395526e-02 
-4.682041e-02 -4.806107e-02 -4.903757e-02 -4.990455e-02 -5.049813e-02 -5.096181e-02 -5.114691e-02 -5.118537e-02 -5.094517e-02 -5.054584e-02 -4.987389e-02 -4.903509e-02 -4.793675e-02 -4.666913e-02 -4.516272e-02 -4.349018e-02 -4.160761e-02 -3.956757e-02 -3.735413e-02 -3.499701e-02 -3.251025e-02 -2.989792e-02 -2.720559e-02 -2.440890e-02 -2.158596e-02 -1.868147e-02 -1.580642e-02 -1.287256e-02 -1.002343e-02 -7.136474e-03 -4.386818e-03 -1.617012e-03 9.677742e-04 3.559548e-03 5.925169e-03 8.289985e-03 1.039532e-02 1.249785e-02 1.431605e-02 1.613523e-02 1.765379e-02 1.918254e-02 2.040255e-02 2.164670e-02 2.258132e-02 2.355786e-02 2.423031e-02 2.496526e-02 2.540643e-02 2.593237e-02 2.617837e-02 2.653195e-02 2.662158e-02 2.684107e-02 2.681358e-02 2.693659e-02 2.682959e-02 2.689114e-02 2.673889e-02 2.676972e-02 2.660182e-02 2.662716e-02 2.646761e-02 2.650635e-02 2.637298e-02 2.643718e-02 2.634153e-02 2.643644e-02 2.638385e-02 2.650819e-02 2.649823e-02 2.664482e-02 2.667191e-02 2.682850e-02 2.688253e-02 2.703276e-02 2.709980e-02 2.722417e-02 2.728708e-02 2.736390e-02 2.740284e-02 2.740904e-02 2.740193e-02 2.731372e-02 2.723664e-02 2.703013e-02 2.685779e-02 2.650951e-02 2.621587e-02 2.570341e-02 2.526255e-02 2.456526e-02 2.395251e-02 2.305245e-02 2.224581e-02 2.112879e-02 2.011046e-02 1.876724e-02 1.752520e-02 1.595263e-02 1.448207e-02 1.268404e-02 1.098839e-02 8.976544e-03 7.068104e-03 4.862024e-03 2.761978e-03 3.889991e-04 -1.873092e-03 -4.378567e-03 -6.765759e-03 -9.363292e-03 -1.183258e-02 -1.447698e-02 -1.698084e-02 -1.962353e-02 -2.211143e-02 -2.470184e-02 -2.712171e-02 -2.960846e-02 -3.190801e-02 -3.424007e-02 -3.636785e-02 -3.849540e-02 -4.040182e-02 -4.227718e-02 -4.391534e-02 -4.549378e-02 
-5.880843e-02 -6.037539e-02 -6.161246e-02 -6.270941e-02 -6.346439e-02 -6.405365e-02 -6.429393e-02 -6.434744e-02 -6.405133e-02 -6.355271e-02 -6.271152e-02 -6.165814e-02 -6.027810e-02 -5.868291e-02 -5.678671e-02 -5.467952e-02 -5.230720e-02 -4.973515e-02 -4.694383e-02 -4.397072e-02 -4.083333e-02 -3.753770e-02 -3.414028e-02 -3.061227e-02 -2.705017e-02 -2.338724e-02 -1.976041e-02 -1.606246e-02 -1.247024e-02 -8.834354e-03 -5.370302e-03 -1.885766e-03 1.367046e-03 4.623053e-03 7.595840e-03 1.056155e-02 1.320245e-02 1.583357e-02 1.810900e-02 2.037953e-02 2.227427e-02 2.417608e-02 2.569222e-02 2.723364e-02 2.838859e-02 2.959211e-02 3.041605e-02 3.131552e-02 3.184826e-02 3.248578e-02 3.277365e-02 3.319630e-02 3.328894e-02 3.354571e-02 3.349318e-02 3.363206e-02 3.348220e-02 3.354768e-02 3.334400e-02 3.337502e-02 3.315497e-02 3.318334e-02 3.297719e-02 3.302652e-02 3.285664e-02 3.294183e-02 3.282254e-02 3.294977e-02 3.288754e-02 3.305467e-02 3.304867e-02 3.324608e-02 3.328893e-02 3.350064e-02 3.357934e-02 3.378420e-02 3.388097e-02 3.405399e-02 3.414706e-02 3.426058e-02 3.432486e-02 3.434956e-02 3.435716e-02 3.426294e-02 3.418362e-02 3.394028e-02 3.374202e-02 3.331991e-02 3.296968e-02 3.234044e-02 3.180520e-02 3.094266e-02 3.019084e-02 2.907217e-02 2.807546e-02 2.668251e-02 2.541789e-02 2.373872e-02 2.219047e-02 2.022086e-02 1.838246e-02 1.612716e-02 1.400264e-02 1.147622e-02 9.080973e-03 6.308195e-03 3.668987e-03 6.844444e-04 -2.161239e-03 -5.313965e-03 -8.319236e-03 -1.158894e-02 -1.469925e-02 -1.802876e-02 -2.118387e-02 -2.451185e-02 -2.764782e-02 -3.091045e-02 -3.396154e-02 -3.709414e-02 -3.999437e-02 -4.293273e-02 -4.561730e-02 -4.829881e-02 -5.070527e-02 -5.306997e-02 -5.513926e-02 -5.713085e-02 
-7.108942e-02 -7.299507e-02 -7.450060e-02 -7.583792e-02 -7.676003e-02 -7.748273e-02 -7.778118e-02 -7.785439e-02 -7.750199e-02 -7.690491e-02 -7.589014e-02 -7.461855e-02 -7.294803e-02 -7.101673e-02 -6.871727e-02 -6.616175e-02 -6.328142e-02 -6.015855e-02 -5.676669e-02 -5.315398e-02 -4.933952e-02 -4.533285e-02 -4.120110e-02 -3.691083e-02 -3.257876e-02 -2.812447e-02 -2.371482e-02 -1.921914e-02 -1.485394e-02 -1.043607e-02 -6.230160e-03 -1.999629e-03 1.945211e-03 5.893880e-03 9.493628e-03 1.308500e-02 1.627662e-02 1.945687e-02 2.219995e-02 2.493780e-02 2.721454e-02 2.950069e-02 3.131457e-02 3.315989e-02 3.453316e-02 3.596583e-02 3.693623e-02 3.799828e-02 3.861524e-02 3.935866e-02 3.967939e-02 4.016219e-02 4.024781e-02 4.053020e-02 4.044210e-02 4.058300e-02 4.037974e-02 4.043371e-02 4.016836e-02 4.018310e-02 3.990125e-02 3.991567e-02 3.965400e-02 3.969696e-02 3.948246e-02 3.957214e-02 3.942192e-02 3.956580e-02 3.948736e-02 3.968275e-02 3.967475e-02 3.990984e-02 3.996304e-02 4.021827e-02 4.031667e-02 4.056626e-02 4.068818e-02 4.090173e-02 4.102081e-02 4.116477e-02 4.125070e-02 4.128959e-02 4.130871e-02 4.120613e-02 4.112198e-02 4.084138e-02 4.061523e-02 4.012066e-02 3.971238e-02 3.896928e-02 3.833858e-02 3.731487e-02 3.642302e-02 3.509044e-02 3.390250e-02 3.223833e-02 3.072566e-02 2.871462e-02 2.685744e-02 2.449360e-02 2.228337e-02 1.957176e-02 1.701291e-02 1.397067e-02 1.108159e-02 7.738396e-03 4.551497e-03 9.491618e-04 -2.489994e-03 -6.298580e-03 -9.932926e-03 -1.388553e-02 -1.764868e-02 -2.167580e-02 -2.549454e-02 -2.952163e-02 -3.331836e-02 -3.726800e-02 -4.096302e-02 -4.475681e-02 -4.827027e-02 -5.183045e-02 -5.508399e-02 -5.833478e-02 -6.125287e-02 -6.412167e-02 -6.663282e-02 -6.905137e-02 
-8.353956e-02 -8.579638e-02 -8.758597e-02 -8.917389e-02 -9.027596e-02 -9.113963e-02 -9.150582e-02 -9.160311e-02 -9.120022e-02 -9.050538e-02 -8.931859e-02 -8.782543e-02 -8.586138e-02 -8.358629e-02 -8.087568e-02 -7.785984e-02 -7.445896e-02 -7.076932e-02 -6.676011e-02 -6.248866e-02 -5.797686e-02 -5.323794e-02 -4.834930e-02 -4.327491e-02 -3.814940e-02 -3.288283e-02 -2.766753e-02 -2.235578e-02 -1.719691e-02 -1.198277e-02 -7.017769e-03 -2.032199e-03 2.617380e-03 7.261777e-03 1.149598e-02 1.570983e-02 1.945416e-02 2.317434e-02 2.638162e-02 2.957223e-02 3.222257e-02 3.487420e-02 3.697318e-02 3.910055e-02 4.067618e-02 4.231465e-02 4.341332e-02 4.461459e-02 4.529647e-02 4.612393e-02 4.645822e-02 4.698212e-02 4.704241e-02 4.733531e-02 4.719527e-02 4.732788e-02 4.705753e-02 4.709502e-02 4.675763e-02 4.675673e-02 4.640638e-02 4.641310e-02 4.609312e-02 4.614127e-02 4.588329e-02 4.599378e-02 4.581757e-02 4.599845e-02 4.591230e-02 4.615946e-02 4.616114e-02 4.645962e-02 4.653760e-02 4.686326e-02 4.699812e-02 4.731960e-02 4.748535e-02 4.776601e-02 4.793125e-02 4.813092e-02 4.825977e-02 4.833622e-02 4.838892e-02 4.829900e-02 4.823245e-02 4.793294e-02 4.770125e-02 4.714961e-02 4.670502e-02 4.586029e-02 4.515455e-02 4.397851e-02 4.296497e-02 4.142374e-02 4.006000e-02 3.812610e-02 3.637709e-02 3.403180e-02 3.187301e-02 2.910866e-02 2.652903e-02 2.335109e-02 2.035520e-02 1.678366e-02 1.339300e-02 9.462906e-03 5.715876e-03 1.476874e-03 -2.572268e-03 -7.057312e-03 -1.134053e-02 -1.599765e-02 -2.043586e-02 -2.518257e-02 -2.968869e-02 -3.443670e-02 -3.891865e-02 -4.357646e-02 -4.793990e-02 -5.241507e-02 -5.656572e-02 -6.076670e-02 -6.461217e-02 -6.844987e-02 -7.190120e-02 -7.529021e-02 -7.826317e-02 -8.112309e-02 
-9.640421e-02 -9.903025e-02 -1.011157e-01 -1.029696e-01 -1.042605e-01 -1.052770e-01 -1.057160e-01 -1.058447e-01 -1.053916e-01 -1.046010e-01 -1.032368e-01 -1.015176e-01 -9.924810e-02 -9.661762e-02 -9.347699e-02 -8.998163e-02 -8.603423e-02 -8.175101e-02 -7.709180e-02 -7.212763e-02 -6.688015e-02 -6.136881e-02 -5.568066e-02 -4.977724e-02 -4.381328e-02 -3.768654e-02 -3.162025e-02 -2.544354e-02 -1.944741e-02 -1.338906e-02 -7.625078e-03 -1.839255e-03 3.549713e-03 8.930781e-03 1.382776e-02 1.869959e-02 2.301802e-02 2.730737e-02 3.099322e-02 3.465914e-02 3.769070e-02 4.072352e-02 4.310913e-02 4.552755e-02 4.730183e-02 4.914871e-02 5.036767e-02 5.170489e-02 5.244047e-02 5.334337e-02 5.367774e-02 5.422953e-02 5.424967e-02 5.453600e-02 5.432865e-02 5.443279e-02 5.408009e-02 5.407868e-02 5.365456e-02 5.361418e-02 5.318161e-02 5.315614e-02 5.276529e-02 5.279424e-02 5.248146e-02 5.258912e-02 5.237678e-02 5.257229e-02 5.246936e-02 5.274762e-02 5.275081e-02 5.309400e-02 5.318931e-02 5.356897e-02 5.373340e-02 5.411275e-02 5.431592e-02 5.465220e-02 5.485772e-02 5.510426e-02 5.527076e-02 5.537869e-02 5.546046e-02 5.537995e-02 5.532737e-02 5.500852e-02 5.476861e-02 5.416217e-02 5.367946e-02 5.273771e-02 5.195581e-02 5.063383e-02 4.949774e-02 4.775527e-02 4.621462e-02 4.401850e-02 4.203121e-02 3.935824e-02 3.689445e-02 3.373427e-02 3.077993e-02 2.713759e-02 2.369713e-02 1.959485e-02 1.569271e-02 1.117058e-02 6.851267e-03 1.966705e-03 -2.706576e-03 -7.880489e-03 -1.282836e-02 -1.820550e-02 -2.333573e-02 -2.882006e-02 -3.403126e-02 -3.952013e-02 -4.470536e-02 -5.009260e-02 -5.514257e-02 -6.032111e-02 -6.512681e-02 -6.999083e-02 -7.444561e-02 -7.889219e-02 -8.289338e-02 -8.682385e-02 -9.027412e-02 -9.359538e-02 
-1.095011e-01 -1.125136e-01 -1.149163e-01 -1.170505e-01 -1.185480e-01 -1.197281e-01 -1.202534e-01 -1.204202e-01 -1.199253e-01 -1.190405e-01 -1.175014e-01 -1.155521e-01 -1.129733e-01 -1.099771e-01 -1.063958e-01 -1.024044e-01 -9.789300e-02 -9.299378e-02 -8.766091e-02 -8.197679e-02 -7.596485e-02 -6.965063e-02 -6.313078e-02 -5.636673e-02 -4.953073e-02 -4.251349e-02 -3.556348e-02 -2.849514e-02 -2.163213e-02 -1.470876e-02 -8.121212e-03 -1.521945e-03 4.624417e-03 1.074665e-02 1.631684e-02 2.184209e-02 2.673712e-02 3.158236e-02 3.574152e-02 3.986178e-02 4.326224e-02 4.664911e-02 4.930306e-02 5.198117e-02 5.393120e-02 5.595303e-02 5.726634e-02 5.870613e-02 5.946798e-02 6.041515e-02 6.072227e-02 6.127483e-02 6.122903e-02 6.148731e-02 6.118965e-02 6.125069e-02 6.079648e-02 6.074914e-02 6.022381e-02 6.014485e-02 5.962078e-02 5.957193e-02 5.910641e-02 5.913239e-02 5.876650e-02 5.889420e-02 5.865272e-02 5.889135e-02 5.878351e-02 5.912568e-02 5.914658e-02 5.957025e-02 5.970282e-02 6.017379e-02 6.039081e-02 6.086554e-02 6.113164e-02 6.156008e-02 6.183335e-02 6.216134e-02 6.239444e-02 6.256571e-02 6.270655e-02 6.266404e-02 6.265603e-02 6.234275e-02 6.212528e-02 6.148494e-02 6.099412e-02 5.997199e-02 5.914232e-02 5.768651e-02 5.645358e-02 5.451714e-02 5.282136e-02 5.036518e-02 4.815626e-02 4.515244e-02 4.239415e-02 3.882956e-02 3.550408e-02 3.138350e-02 2.749476e-02 2.284305e-02 1.841855e-02 1.328151e-02 8.372399e-03 2.816086e-03 -2.504545e-03 -8.395849e-03 -1.403609e-02 -2.016308e-02 -2.601627e-02 -3.226842e-02 -3.821760e-02 -4.447710e-02 -5.039931e-02 -5.654470e-02 -6.231473e-02 -6.822393e-02 -7.371733e-02 -7.926998e-02 -8.436527e-02 -8.944448e-02 -9.402486e-02 -9.851855e-02 -1.024732e-01 -1.062754e-01 
-1.231382e-01 -1.265615e-01 -1.292979e-01 -1.317336e-01 -1.334506e-01 -1.348113e-01 -1.354308e-01 -1.356469e-01 -1.351121e-01 -1.341369e-01 -1.324174e-01 -1.302333e-01 -1.273308e-01 -1.239547e-01 -1.199085e-01 -1.153963e-01 -1.102869e-01 -1.047364e-01 -9.868630e-02 -9.223691e-02 -8.540879e-02 -7.823769e-02 -7.082827e-02 -6.314294e-02 -5.537360e-02 -4.740106e-02 -3.950558e-02 -3.147950e-02 -2.369043e-02 -1.583739e-02 -8.372406e-03 -8.990023e-04 6.051146e-03 1.296919e-02 1.925003e-02 2.547572e-02 3.097508e-02 3.641462e-02 4.106510e-02 4.566896e-02 4.944713e-02 5.320810e-02 5.613097e-02 5.907982e-02 6.119923e-02 6.339858e-02 6.479429e-02 6.633143e-02 6.710349e-02 6.808273e-02 6.834375e-02 6.887882e-02 6.874668e-02 6.895360e-02 6.854475e-02 6.853538e-02 6.795916e-02 6.783568e-02 6.718964e-02 6.704012e-02 6.640654e-02 6.630157e-02 6.574509e-02 6.573565e-02 6.530214e-02 6.541857e-02 6.513511e-02 6.538737e-02 6.526321e-02 6.564217e-02 6.567055e-02 6.615031e-02 6.631075e-02 6.685162e-02 6.711246e-02 6.766432e-02 6.798510e-02 6.849071e-02 6.882402e-02 6.922192e-02 6.951465e-02 6.974134e-02 6.993524e-02 6.992660e-02 6.995843e-02 6.965044e-02 6.945209e-02 6.878135e-02 6.828048e-02 6.718484e-02 6.630659e-02 6.472644e-02 6.339641e-02 6.127708e-02 5.942571e-02 5.672076e-02 5.428864e-02 5.096403e-02 4.790767e-02 4.394607e-02 4.024315e-02 3.564784e-02 3.130132e-02 2.609890e-02 2.113920e-02 1.538071e-02 9.865770e-03 3.625923e-03 -2.360868e-03 -8.986207e-03 -1.533982e-02 -2.223749e-02 -2.883616e-02 -3.588030e-02 -4.259088e-02 -4.964765e-02 -5.633063e-02 -6.326246e-02 -6.977632e-02 -7.644535e-02 -8.264988e-02 -8.892059e-02 -9.467923e-02 -1.004202e-01 -1.056017e-01 -1.106869e-01 -1.151668e-01 -1.194767e-01 
-1.370762e-01 -1.409327e-01 -1.440306e-01 -1.467868e-01 -1.487467e-01 -1.503027e-01 -1.510348e-01 -1.513096e-01 -1.507467e-01 -1.496844e-01 -1.477886e-01 -1.453655e-01 -1.421349e-01 -1.383660e-01 -1.338414e-01 -1.287869e-01 -1.230565e-01 -1.168248e-01 -1.100259e-01 -1.027743e-01 -9.509104e-02 -8.702127e-02 -7.867840e-02 -7.002807e-02 -6.127942e-02 -5.230939e-02 -4.342362e-02 -3.440259e-02 -2.564693e-02 -1.683516e-02 -8.459282e-03 -9.330956e-05 7.684900e-03 1.540504e-02 2.241032e-02 2.933012e-02 3.543666e-02 4.145212e-02 4.658616e-02 5.164466e-02 5.578323e-02 5.988096e-02 6.304744e-02 6.622401e-02 6.848143e-02 7.081255e-02 7.225535e-02 7.384434e-02 7.458951e-02 7.555844e-02 7.573658e-02 7.621743e-02 7.596439e-02 7.609093e-02 7.554023e-02 7.544069e-02 7.471706e-02 7.450795e-02 7.372212e-02 7.350324e-02 7.274801e-02 7.259872e-02 7.194645e-02 7.192327e-02 7.142461e-02 7.156027e-02 7.124426e-02 7.154800e-02 7.142332e-02 7.188255e-02 7.193976e-02 7.252283e-02 7.273719e-02 7.339701e-02 7.373154e-02 7.440959e-02 7.481791e-02 7.544821e-02 7.587677e-02 7.638927e-02 7.677865e-02 7.710168e-02 7.738707e-02 7.744881e-02 7.755984e-02 7.728888e-02 7.714935e-02 7.647488e-02 7.600317e-02 7.485533e-02 7.396600e-02 7.227718e-02 7.088434e-02 6.859169e-02 6.661407e-02 6.366339e-02 6.103072e-02 5.738142e-02 5.404141e-02 4.967176e-02 4.559648e-02 4.050838e-02 3.569926e-02 2.992157e-02 2.441210e-02 1.800202e-02 1.185774e-02 4.899853e-03 -1.784186e-03 -9.181028e-03 -1.628495e-02 -2.399229e-02 -3.137740e-02 -3.925274e-02 -4.676789e-02 -5.466028e-02 -6.214790e-02 -6.990287e-02 -7.720389e-02 -8.466739e-02 -9.162493e-02 -9.864606e-02 -1.051079e-01 -1.115406e-01 -1.173607e-01 -1.230650e-01 -1.281046e-01 -1.329473e-01 
-1.516847e-01 -1.560063e-01 -1.594878e-01 -1.625927e-01 -1.648137e-01 -1.665881e-01 -1.674452e-01 -1.677950e-01 -1.672089e-01 -1.660669e-01 -1.639901e-01 -1.613244e-01 -1.577495e-01 -1.535718e-01 -1.485397e-01 -1.429129e-01 -1.365187e-01 -1.295616e-01 -1.219580e-01 -1.138462e-01 -1.052407e-01 -9.620234e-02 -8.685025e-02 -7.715598e-02 -6.734743e-02 -5.729541e-02 -4.733818e-02 -3.723608e-02 -2.743635e-02 -1.758196e-02 -8.225156e-03 1.111647e-03 9.777537e-03 1.836966e-02 2.614668e-02 3.382017e-02 4.056804e-02 4.720750e-02 5.284623e-02 5.839546e-02 6.290343e-02 6.736205e-02 7.077053e-02 7.418744e-02 7.657241e-02 7.903716e-02 8.050971e-02 8.214261e-02 8.283858e-02 8.378048e-02 8.385028e-02 8.425263e-02 8.385165e-02 8.386722e-02 8.314739e-02 8.292214e-02 8.202468e-02 8.169086e-02 8.074047e-02 8.041101e-02 7.951160e-02 7.927602e-02 7.850789e-02 7.842960e-02 7.784819e-02 7.796338e-02 7.759950e-02 7.791758e-02 7.777896e-02 7.828451e-02 7.835855e-02 7.901457e-02 7.927178e-02 8.002398e-02 8.042167e-02 8.120326e-02 8.168898e-02 8.242534e-02 8.293944e-02 8.355211e-02 8.402918e-02 8.443861e-02 8.480774e-02 8.493478e-02 8.511896e-02 8.488504e-02 8.480038e-02 8.412729e-02 8.368294e-02 8.249276e-02 8.159240e-02 7.980858e-02 7.835405e-02 7.590412e-02 7.380132e-02 7.062148e-02 6.778796e-02 6.382896e-02 6.020228e-02 5.543594e-02 5.098148e-02 4.540655e-02 4.012354e-02 3.376991e-02 2.769469e-02 2.062513e-02 1.383116e-02 6.140167e-03 -1.265179e-03 -9.455080e-03 -1.733618e-02 -2.588020e-02 -3.408044e-02 -4.281819e-02 -5.116759e-02 -5.992976e-02 -6.825195e-02 -7.686611e-02 -8.498400e-02 -9.327896e-02 -1.010188e-01 -1.088275e-01 -1.160211e-01 -1.231824e-01 -1.296688e-01 -1.360280e-01 -1.416540e-01 -1.470638e-01 
-1.666694e-01 -1.714839e-01 -1.753840e-01 -1.788621e-01 -1.813742e-01 -1.833868e-01 -1.843930e-01 -1.848314e-01 -1.842385e-01 -1.830227e-01 -1.807718e-01 -1.778598e-01 -1.739365e-01 -1.693350e-01 -1.637789e-01 -1.575528e-01 -1.504660e-01 -1.427447e-01 -1.342953e-01 -1.252745e-01 -1.156953e-01 -1.056324e-01 -9.521257e-02 -8.441512e-02 -7.348510e-02 -6.229356e-02 -5.120475e-02 -3.997070e-02 -2.907268e-02 -1.813591e-02 -7.753712e-03 2.579113e-03 1.216453e-02 2.163721e-02 3.020351e-02 3.862207e-02 4.601406e-02 5.325259e-02 5.938468e-02 6.538552e-02 7.023902e-02 7.500829e-02 7.862452e-02 8.222413e-02 8.469471e-02 8.723202e-02 8.868751e-02 9.030384e-02 9.090180e-02 9.176057e-02 9.167390e-02 9.194926e-02 9.135539e-02 9.122184e-02 9.029319e-02 8.991640e-02 8.881239e-02 8.834153e-02 8.720216e-02 8.676380e-02 8.570488e-02 8.539843e-02 8.450860e-02 8.440343e-02 8.374285e-02 8.387715e-02 8.347785e-02 8.385925e-02 8.372717e-02 8.433508e-02 8.445334e-02 8.524289e-02 8.557601e-02 8.648316e-02 8.698153e-02 8.792883e-02 8.853286e-02 8.943501e-02 9.007815e-02 9.084668e-02 9.145699e-02 9.200342e-02 9.250357e-02 9.274075e-02 9.304679e-02 9.288874e-02 9.290856e-02 9.226954e-02 9.190215e-02 9.069598e-02 8.983268e-02 8.797350e-02 8.650187e-02 8.390701e-02 8.171769e-02 7.831298e-02 7.530882e-02 7.103567e-02 6.714182e-02 6.196516e-02 5.713861e-02 5.105408e-02 4.529107e-02 3.833019e-02 3.167015e-02 2.390247e-02 1.642792e-02 7.959599e-03 -2.077438e-04 -9.238559e-03 -1.794486e-02 -2.737501e-02 -3.644314e-02 -4.609256e-02 -5.533123e-02 -6.501086e-02 -7.422289e-02 -8.374138e-02 -9.273015e-02 -1.018988e-01 -1.104725e-01 -1.191081e-01 -1.270824e-01 -1.350085e-01 -1.422070e-01 -1.492548e-01 -1.555096e-01 -1.615174e-01 
-1.824602e-01 -1.878081e-01 -1.921558e-01 -1.960437e-01 -1.988720e-01 -2.011542e-01 -2.023280e-01 -2.028787e-01 -2.022887e-01 -2.010119e-01 -1.985851e-01 -1.954261e-01 -1.911379e-01 -1.860958e-01 -1.799824e-01 -1.731221e-01 -1.652908e-01 -1.567513e-01 -1.473865e-01 -1.373842e-01 -1.267460e-01 -1.155698e-01 -1.039850e-01 -9.198351e-02 -7.982790e-02 -6.738872e-02 -5.506349e-02 -4.258753e-02 -3.049161e-02 -1.836593e-02 -6.869197e-03 4.558223e-03 1.513793e-02 2.557827e-02 3.499188e-02 4.422881e-02 5.230535e-02 6.020121e-02 6.685001e-02 7.334531e-02 7.855210e-02 8.365980e-02 8.747816e-02 9.127393e-02 9.381365e-02 9.642376e-02 9.783753e-02 9.942552e-02 9.989515e-02 1.006484e-01 1.003716e-01 1.004884e-01 9.966655e-02 9.934466e-02 9.817246e-02 9.759891e-02 9.625525e-02 9.559792e-02 9.423902e-02 9.363990e-02 9.239414e-02 9.196433e-02 9.092895e-02 9.074545e-02 8.998524e-02 9.008967e-02 8.963756e-02 9.003685e-02 8.989633e-02 9.056545e-02 9.071462e-02 9.160117e-02 9.199780e-02 9.302808e-02 9.361503e-02 9.470088e-02 9.541111e-02 9.645656e-02 9.721672e-02 9.812352e-02 9.885565e-02 9.952680e-02 1.001479e-01 1.004889e-01 1.009091e-01 1.008272e-01 1.009468e-01 1.003490e-01 1.000572e-01 9.884881e-02 9.802426e-02 9.610897e-02 9.462387e-02 9.190696e-02 8.963508e-02 8.602941e-02 8.285688e-02 7.829157e-02 7.412916e-02 6.855926e-02 6.335399e-02 5.676950e-02 5.051362e-02 4.294599e-02 3.568176e-02 2.720658e-02 1.902613e-02 9.761483e-03 8.019253e-04 -9.097320e-03 -1.866254e-02 -2.901324e-02 -3.898501e-02 -4.958558e-02 -5.975011e-02 -7.039001e-02 -8.052841e-02 -9.099595e-02 -1.008916e-01 -1.109793e-01 -1.204223e-01 -1.299302e-01 -1.387196e-01 -1.474557e-01 -1.554001e-01 -1.631806e-01 -1.700972e-01 -1.767457e-01 
-1.987093e-01 -2.046249e-01 -2.094631e-01 -2.137919e-01 -2.169743e-01 -2.195522e-01 -2.209252e-01 -2.216075e-01 -2.210433e-01 -2.197157e-01 -2.171244e-01 -2.137165e-01 -2.090608e-01 -2.035618e-01 -1.968724e-01 -1.893452e-01 -1.807338e-01 -1.713271e-01 -1.609944e-01 -1.499470e-01 -1.381827e-01 -1.258190e-01 -1.129918e-01 -9.970679e-02 -8.624388e-02 -7.247921e-02 -5.883770e-02 -4.505078e-02 -3.168523e-02 -1.831670e-02 -5.647117e-03 6.908917e-03 1.852401e-02 2.994339e-02 4.022610e-02 5.026957e-02 5.903279e-02 6.755234e-02 7.470143e-02 8.163883e-02 8.716625e-02 9.254554e-02 9.652022e-02 1.004359e-01 1.029894e-01 1.055919e-01 1.069028e-01 1.083833e-01 1.086613e-01 1.092358e-01 1.087069e-01 1.086023e-01 1.074951e-01 1.069356e-01 1.054695e-01 1.046660e-01 1.030414e-01 1.021819e-01 1.005729e-01 9.981542e-02 9.836393e-02 9.783072e-02 9.664301e-02 9.641748e-02 9.556279e-02 9.568800e-02 9.519941e-02 9.567900e-02 9.555634e-02 9.635777e-02 9.657253e-02 9.763254e-02 9.813396e-02 9.936584e-02 1.000876e-01 1.013893e-01 1.022555e-01 1.035178e-01 1.044473e-01 1.055601e-01 1.064685e-01 1.073252e-01 1.081238e-01 1.086221e-01 1.092149e-01 1.092552e-01 1.095351e-01 1.090173e-01 1.088627e-01 1.076837e-01 1.069586e-01 1.050114e-01 1.035702e-01 1.007471e-01 9.844312e-02 9.464277e-02 9.134191e-02 8.647989e-02 8.207515e-02 7.609578e-02 7.052170e-02 6.340914e-02 5.665278e-02 4.843911e-02 4.054588e-02 3.131438e-02 2.238779e-02 1.227085e-02 2.466312e-03 -8.361631e-03 -1.884748e-02 -3.018046e-02 -4.112286e-02 -5.273532e-02 -6.389460e-02 -7.555269e-02 -8.668563e-02 -9.815625e-02 -1.090244e-01 -1.200811e-01 -1.304554e-01 -1.408815e-01 -1.505444e-01 -1.601328e-01 -1.688774e-01 -1.774301e-01 -1.850591e-01 -1.923853e-01 
-2.159050e-01 -2.224384e-01 -2.278047e-01 -2.326214e-01 -2.361919e-01 -2.391073e-01 -2.407072e-01 -2.415546e-01 -2.410339e-01 -2.396768e-01 -2.369246e-01 -2.332730e-01 -2.282352e-01 -2.222639e-01 -2.149618e-01 -2.067289e-01 -1.972761e-01 -1.869381e-01 -1.755518e-01 -1.633701e-01 -1.503723e-01 -1.367098e-01 -1.225161e-01 -1.078199e-01 -9.291604e-02 -7.768870e-02 -6.259642e-02 -4.735946e-02 -3.259734e-02 -1.785223e-02 -3.897604e-03 9.909432e-03 2.265221e-02 3.515730e-02 4.637869e-02 5.731702e-02 6.681314e-02 7.602521e-02 8.369863e-02 9.112747e-02 9.697984e-02 1.026614e-01 1.067802e-01 1.108290e-01 1.133712e-01 1.159635e-01 1.171369e-01 1.184930e-01 1.185387e-01 1.189051e-01 1.180803e-01 1.177138e-01 1.162764e-01 1.154299e-01 1.136262e-01 1.125362e-01 1.105898e-01 1.094667e-01 1.075706e-01 1.065905e-01 1.049008e-01 1.041995e-01 1.028319e-01 1.025014e-01 1.015293e-01 1.016159e-01 1.010720e-01 1.015774e-01 1.014569e-01 1.023419e-01 1.026084e-01 1.037991e-01 1.043922e-01 1.057886e-01 1.066318e-01 1.081177e-01 1.091256e-01 1.105782e-01 1.116622e-01 1.129599e-01 1.140297e-01 1.150568e-01 1.160196e-01 1.166670e-01 1.174224e-01 1.175850e-01 1.180195e-01 1.175912e-01 1.175731e-01 1.164423e-01 1.158210e-01 1.138687e-01 1.124791e-01 1.095821e-01 1.072548e-01 1.032941e-01 9.987170e-02 9.474491e-02 9.009972e-02 8.373618e-02 7.778782e-02 7.016224e-02 6.289115e-02 5.403386e-02 4.548837e-02 3.548943e-02 2.578530e-02 1.479205e-02 4.104749e-03 -7.686992e-03 -1.913547e-02 -3.149437e-02 -4.345145e-02 -5.612529e-02 -6.832372e-02 -8.105290e-02 -9.322401e-02 -1.057522e-01 -1.176352e-01 -1.297156e-01 -1.410625e-01 -1.524611e-01 -1.630379e-01 -1.735324e-01 -1.831173e-01 -1.924953e-01 -2.008764e-01 -2.089322e-01 