# vtk DataFile Version 2.0
Comment goes here
ASCII

DATASET STRUCTURED_POINTS
FIELD FieldData 1
TIME 1 1 double
0.03500000
DIMENSIONS    128   128   1

ORIGIN    0.000   0.000   0.000
SPACING   0.039062 0.039062   1.000

POINT_DATA   16384
SCALARS uY double
LOOKUP_TABLE default

2.420153e-14 2.830392e-14 2.437014e-14 2.877185e-14 2.681774e-14 3.195384e-14 3.111321e-14 3.535991e-14 3.416494e-14 3.811582e-14 3.816668e-14 4.169346e-14 4.091628e-14 4.380453e-14 4.446069e-14 4.770720e-14 4.858753e-14 5.139393e-14 5.142898e-14 5.266140e-14 5.372273e-14 5.500561e-14 5.577554e-14 5.591280e-14 5.813522e-14 5.777382e-14 6.059680e-14 6.097399e-14 6.304412e-14 6.350128e-14 6.791322e-14 6.746910e-14 7.065524e-14 6.949218e-14 7.433772e-14 7.258531e-14 7.612607e-14 7.446781e-14 7.937631e-14 7.625917e-14 7.989896e-14 7.787478e-14 8.126719e-14 7.884593e-14 8.421595e-14 8.014238e-14 8.462666e-14 8.138325e-14 8.584066e-14 8.184453e-14 8.667806e-14 8.234082e-14 8.682421e-14 8.166538e-14 8.580894e-14 7.960641e-14 8.531695e-14 8.070744e-14 8.582889e-14 8.191366e-14 8.441273e-14 8.006581e-14 8.272236e-14 7.505105e-14 7.957476e-14 7.188554e-14 7.510202e-14 6.969101e-14 6.973882e-14 6.139605e-14 6.325678e-14 5.863101e-14 6.030234e-14 5.535545e-14 5.753022e-14 4.894782e-14 5.063368e-14 4.553758e-14 4.838493e-14 4.409515e-14 4.334246e-14 4.159581e-14 3.914303e-14 3.866886e-14 3.439045e-14 3.194231e-14 3.003020e-14 2.922412e-14 2.687979e-14 2.780976e-14 2.424316e-14 2.693796e-14 2.416677e-14 2.734747e-14 2.174388e-14 2.442212e-14 1.932570e-14 2.284152e-14 1.742067e-14 2.230082e-14 1.771588e-14 2.233570e-14 1.635948e-14 2.146680e-14 1.500998e-14 2.019552e-14 1.379923e-14 1.882226e-14 1.315558e-14 1.997954e-14 1.510431e-14 2.150001e-14 1.641761e-14 2.275307e-14 1.756248e-14 2.343311e-14 1.759864e-14 2.254517e-14 1.720583e-14 2.253521e-14 1.796075e-14 2.370762e-14 1.949472e-14 2.395940e-14 2.047650e-14 2.588519e-14 2.213453e-14 2.697870e-14 
-2.633029e-02 -2.513437e-02 -2.367631e-02 -2.242579e-02 -2.089329e-02 -1.957413e-02 -1.795376e-02 -1.655259e-02 -1.483228e-02 -1.333737e-02 -1.150747e-02 -9.909687e-03 -7.963988e-03 -6.257624e-03 -4.194295e-03 -2.377775e-03 -2.000717e-04 1.723523e-03 4.006761e-03 6.029413e-03 8.403561e-03 1.051230e-02 1.295708e-02 1.513422e-02 1.762415e-02 1.984781e-02 2.235298e-02 2.459776e-02 2.708484e-02 2.932263e-02 3.175600e-02 3.395685e-02 3.629981e-02 3.843266e-02 4.064853e-02 4.268191e-02 4.473489e-02 4.663732e-02 4.849322e-02 5.023350e-02 5.186004e-02 5.340730e-02 5.477424e-02 5.609791e-02 5.717701e-02 5.824678e-02 5.901163e-02 5.979754e-02 6.022349e-02 6.069618e-02 6.076047e-02 6.089181e-02 6.057395e-02 6.033802e-02 5.962060e-02 5.899499e-02 5.786479e-02 5.683233e-02 5.528181e-02 5.383239e-02 5.186134e-02 4.999393e-02 4.761116e-02 4.533557e-02 4.256051e-02 3.989889e-02 3.676278e-02 3.375053e-02 3.029707e-02 2.698302e-02 2.326832e-02 1.971407e-02 1.580573e-02 1.208404e-02 8.059379e-03 4.251638e-03 1.949905e-04 -3.612079e-03 -7.612771e-03 -1.133107e-02 -1.518824e-02 -1.873254e-02 -2.236326e-02 -2.565553e-02 -2.898563e-02 -3.195889e-02 -3.492670e-02 -3.752824e-02 -4.008739e-02 -4.228096e-02 -4.440216e-02 -4.616892e-02 -4.784045e-02 -4.917869e-02 -5.040562e-02 -5.132932e-02 -5.213163e-02 -5.266806e-02 -5.307791e-02 -5.326454e-02 -5.332296e-02 -5.320411e-02 -5.295761e-02 -5.258103e-02 -5.207821e-02 -5.149200e-02 -5.078067e-02 -5.003060e-02 -4.915535e-02 -4.828282e-02 -4.728321e-02 -4.632385e-02 -4.523324e-02 -4.421601e-02 -4.306092e-02 -4.200778e-02 -4.080773e-02 -3.973378e-02 -3.850149e-02 -3.741530e-02 -3.615718e-02 -3.506142e-02 -3.377825e-02 -3.267052e-02 -3.135825e-02 -3.023188e-02 -2.888255e-02 -2.772757e-02 
-5.259481e-02 -5.020766e-02 -4.728927e-02 -4.479306e-02 -4.172582e-02 -3.909223e-02 -3.584902e-02 -3.305107e-02 -2.960752e-02 -2.662159e-02 -2.295826e-02 -1.976593e-02 -1.587037e-02 -1.246014e-02 -8.328702e-03 -4.697389e-03 -3.366878e-04 3.509530e-03 8.081650e-03 1.212670e-02 1.688077e-02 2.109866e-02 2.599386e-02 3.034920e-02 3.533433e-02 3.978334e-02 4.479834e-02 4.929028e-02 5.426829e-02 5.874707e-02 6.361677e-02 6.802264e-02 7.271059e-02 7.698170e-02 8.141457e-02 8.548822e-02 8.959458e-02 9.340809e-02 9.711970e-02 1.006109e-01 1.038634e-01 1.069706e-01 1.097037e-01 1.123658e-01 1.145232e-01 1.166794e-01 1.182083e-01 1.197983e-01 1.206493e-01 1.216137e-01 1.217412e-01 1.220230e-01 1.213855e-01 1.209318e-01 1.194940e-01 1.182589e-01 1.159937e-01 1.139415e-01 1.108331e-01 1.079425e-01 1.039896e-01 1.002571e-01 9.547675e-02 9.092119e-02 8.535157e-02 8.001655e-02 7.371987e-02 6.767602e-02 6.073976e-02 5.408511e-02 4.662198e-02 3.948070e-02 3.162690e-02 2.414601e-02 1.605757e-02 8.401836e-03 2.492447e-04 -7.405629e-03 -1.544449e-02 -2.291993e-02 -3.066789e-02 -3.779125e-02 -4.508057e-02 -5.169387e-02 -5.837473e-02 -6.434269e-02 -7.029070e-02 -7.550717e-02 -8.062918e-02 -8.502154e-02 -8.925915e-02 -9.279020e-02 -9.612065e-02 -9.878795e-02 -1.012226e-01 -1.030554e-01 -1.046355e-01 -1.056899e-01 -1.064815e-01 -1.068339e-01 -1.069206e-01 -1.066611e-01 -1.061374e-01 -1.053628e-01 -1.043273e-01 -1.031348e-01 -1.016840e-01 -1.001660e-01 -9.838979e-02 -9.662959e-02 -9.460764e-02 -9.267670e-02 -9.047594e-02 -8.843225e-02 -8.610574e-02 -8.399312e-02 -8.157974e-02 -7.942813e-02 -7.695304e-02 -7.477927e-02 -7.225493e-02 -7.006401e-02 -6.749157e-02 -6.527827e-02 -6.264921e-02 -6.039983e-02 -5.769780e-02 -5.539202e-02 
-7.909255e-02 -7.551848e-02 -7.115798e-02 -6.742043e-02 -6.283636e-02 -5.889224e-02 -5.404323e-02 -4.985144e-02 -4.470016e-02 -4.022458e-02 -3.474106e-02 -2.995344e-02 -2.411818e-02 -1.900068e-02 -1.280742e-02 -7.354806e-03 -8.128374e-04 4.965933e-03 1.183030e-02 1.791119e-02 2.505395e-02 3.139779e-02 3.875764e-02 4.531091e-02 5.281065e-02 5.950700e-02 6.705589e-02 7.381830e-02 8.131518e-02 8.805850e-02 9.539536e-02 1.020289e-01 1.090945e-01 1.155246e-01 1.222080e-01 1.283396e-01 1.345328e-01 1.402713e-01 1.458713e-01 1.511230e-01 1.560329e-01 1.607053e-01 1.648343e-01 1.688357e-01 1.720994e-01 1.753387e-01 1.776579e-01 1.800450e-01 1.813456e-01 1.827918e-01 1.830051e-01 1.834251e-01 1.824888e-01 1.818035e-01 1.796643e-01 1.778047e-01 1.744216e-01 1.713343e-01 1.666829e-01 1.623357e-01 1.564137e-01 1.508016e-01 1.436339e-01 1.367849e-01 1.284285e-01 1.204083e-01 1.109562e-01 1.018706e-01 9.145417e-02 8.145040e-02 7.023874e-02 5.950322e-02 4.770096e-02 3.645446e-02 2.429619e-02 1.278622e-02 5.283804e-04 -1.098096e-02 -2.307057e-02 -3.431068e-02 -4.596513e-02 -5.667610e-02 -6.764241e-02 -7.758619e-02 -8.763820e-02 -9.661069e-02 -1.055605e-01 -1.134014e-01 -1.211081e-01 -1.277077e-01 -1.340830e-01 -1.393850e-01 -1.443946e-01 -1.483953e-01 -1.520561e-01 -1.548000e-01 -1.571748e-01 -1.587465e-01 -1.599350e-01 -1.604506e-01 -1.605794e-01 -1.601751e-01 -1.593870e-01 -1.582091e-01 -1.566529e-01 -1.548484e-01 -1.526699e-01 -1.503782e-01 -1.477129e-01 -1.450597e-01 -1.420275e-01 -1.391205e-01 -1.358221e-01 -1.327484e-01 -1.292636e-01 -1.260891e-01 -1.224763e-01 -1.192458e-01 -1.155426e-01 -1.122813e-01 -1.085061e-01 -1.052213e-01 -1.013758e-01 -9.805928e-02 -9.413043e-02 -9.076129e-02 -8.672421e-02 -8.327159e-02 
-1.053922e-01 -1.006455e-01 -9.483641e-02 -8.987231e-02 -8.376498e-02 -7.852476e-02 -7.206272e-02 -6.649046e-02 -5.962280e-02 -5.366936e-02 -4.635516e-02 -3.998201e-02 -3.219453e-02 -2.537727e-02 -1.710777e-02 -9.839013e-03 -1.099721e-03 6.608730e-03 1.578249e-02 2.389852e-02 3.344754e-02 4.191863e-02 5.176032e-02 6.051469e-02 7.054508e-02 7.949378e-02 8.959071e-02 9.863061e-02 1.086581e-01 1.176753e-01 1.274882e-01 1.363618e-01 1.458111e-01 1.544160e-01 1.633532e-01 1.715632e-01 1.798442e-01 1.875335e-01 1.950210e-01 2.020651e-01 2.086303e-01 2.149060e-01 2.204286e-01 2.258137e-01 2.301812e-01 2.345540e-01 2.376611e-01 2.409004e-01 2.426481e-01 2.446341e-01 2.449301e-01 2.455467e-01 2.443069e-01 2.434456e-01 2.405969e-01 2.381624e-01 2.336477e-01 2.295649e-01 2.233491e-01 2.175711e-01 2.096484e-01 2.021649e-01 1.925658e-01 1.834109e-01 1.722096e-01 1.614688e-01 1.487881e-01 1.366023e-01 1.226171e-01 1.091836e-01 9.412123e-02 7.969159e-02 6.382804e-02 4.870142e-02 3.235418e-02 1.686694e-02 3.839447e-04 -1.510442e-02 -3.135924e-02 -4.648282e-02 -6.214645e-02 -7.655116e-02 -9.127961e-02 -1.046415e-01 -1.181276e-01 -1.301697e-01 -1.421589e-01 -1.526645e-01 -1.629670e-01 -1.717889e-01 -1.802869e-01 -1.873514e-01 -1.940011e-01 -1.993064e-01 -2.041342e-01 -2.077439e-01 -2.108383e-01 -2.128705e-01 -2.143700e-01 -2.149847e-01 -2.150637e-01 -2.144479e-01 -2.133020e-01 -2.116557e-01 -2.094879e-01 -2.070106e-01 -2.040190e-01 -2.008997e-01 -1.972677e-01 -1.936758e-01 -1.895649e-01 -1.856451e-01 -1.811905e-01 -1.770592e-01 -1.723673e-01 -1.681121e-01 -1.632602e-01 -1.589401e-01 -1.539775e-01 -1.496249e-01 -1.445751e-01 -1.401985e-01 -1.350621e-01 -1.306492e-01 -1.254074e-01 -1.209290e-01 -1.155471e-01 -1.109606e-01 
-1.321577e-01 -1.262475e-01 -1.190266e-01 -1.128451e-01 -1.052509e-01 -9.872291e-02 -9.068260e-02 -8.373630e-02 -7.518404e-02 -6.775608e-02 -5.863844e-02 -5.067885e-02 -4.096024e-02 -3.243689e-02 -2.210440e-02 -1.300680e-02 -2.074192e-03 7.583693e-03 1.907326e-02 2.925144e-02 4.122421e-02 5.185657e-02 6.420880e-02 7.520442e-02 8.780483e-02 9.905075e-02 1.117446e-01 1.231097e-01 1.357246e-01 1.470640e-01 1.594157e-01 1.705756e-01 1.824751e-01 1.932971e-01 2.045562e-01 2.148807e-01 2.253172e-01 2.349856e-01 2.444266e-01 2.532825e-01 2.615663e-01 2.694556e-01 2.764313e-01 2.832016e-01 2.887289e-01 2.942282e-01 2.981755e-01 3.022527e-01 3.044964e-01 3.070017e-01 3.074259e-01 3.082139e-01 3.067124e-01 3.056465e-01 3.021265e-01 2.990864e-01 2.934744e-01 2.883646e-01 2.806144e-01 2.733744e-01 2.634764e-01 2.540917e-01 2.420818e-01 2.305940e-01 2.165632e-01 2.030782e-01 1.871792e-01 1.718730e-01 1.543244e-01 1.374445e-01 1.185314e-01 1.003937e-01 8.046315e-02 6.144423e-02 4.089608e-02 2.141972e-02 6.930135e-04 -1.878726e-02 -3.923262e-02 -5.825456e-02 -7.795918e-02 -9.607495e-02 -1.146030e-01 -1.314024e-01 -1.483643e-01 -1.634963e-01 -1.785690e-01 -1.917590e-01 -2.047018e-01 -2.157636e-01 -2.264276e-01 -2.352685e-01 -2.435989e-01 -2.502178e-01 -2.562499e-01 -2.607290e-01 -2.645766e-01 -2.670679e-01 -2.689085e-01 -2.696167e-01 -2.696730e-01 -2.688368e-01 -2.673583e-01 -2.652322e-01 -2.624767e-01 -2.593146e-01 -2.555333e-01 -2.515743e-01 -2.469991e-01 -2.424575e-01 -2.372920e-01 -2.323500e-01 -2.267641e-01 -2.215681e-01 -2.156953e-01 -2.103546e-01 -2.042912e-01 -1.988791e-01 -1.926863e-01 -1.872426e-01 -1.809490e-01 -1.754831e-01 -1.690884e-01 -1.635840e-01 -1.570634e-01 -1.514824e-01 -1.447913e-01 -1.390789e-01 
-1.585903e-01 -1.515414e-01 -1.428992e-01 -1.355259e-01 -1.264349e-01 -1.186440e-01 -1.090141e-01 -1.007166e-01 -9.046581e-02 -8.158339e-02 -7.064504e-02 -6.111552e-02 -4.944487e-02 -3.922802e-02 -2.680814e-02 -1.589025e-02 -2.736970e-03 8.865721e-03 2.270046e-02 3.493982e-02 4.936650e-02 6.216243e-02 7.705476e-02 9.029693e-02 1.054949e-01 1.190462e-01 1.343613e-01 1.480629e-01 1.632850e-01 1.769616e-01 1.918670e-01 2.053331e-01 2.196924e-01 2.327573e-01 2.463431e-01 2.588153e-01 2.714082e-01 2.830979e-01 2.944903e-01 3.052105e-01 3.152089e-01 3.247754e-01 3.331997e-01 3.414297e-01 3.481125e-01 3.548234e-01 3.596074e-01 3.646161e-01 3.673525e-01 3.704764e-01 3.710249e-01 3.720850e-01 3.703155e-01 3.691421e-01 3.649392e-01 3.613807e-01 3.546512e-01 3.485848e-01 3.392673e-01 3.306123e-01 3.186890e-01 3.074201e-01 2.929282e-01 2.790887e-01 2.621326e-01 2.458453e-01 2.266056e-01 2.080803e-01 1.868192e-01 1.663551e-01 1.434177e-01 1.214004e-01 9.720982e-02 7.410099e-02 4.914722e-02 2.546883e-02 2.916879e-04 -2.339620e-02 -4.822987e-02 -7.135574e-02 -9.527894e-02 -1.172890e-01 -1.397637e-01 -1.601514e-01 -1.806973e-01 -1.990302e-01 -2.172505e-01 -2.331923e-01 -2.487930e-01 -2.621183e-01 -2.749206e-01 -2.855205e-01 -2.954629e-01 -3.033428e-01 -3.104755e-01 -3.157436e-01 -3.202139e-01 -3.230640e-01 -3.250971e-01 -3.257871e-01 -3.256627e-01 -3.244907e-01 -3.225196e-01 -3.198017e-01 -3.163036e-01 -3.123527e-01 -3.076369e-01 -3.027467e-01 -2.970973e-01 -2.915290e-01 -2.851942e-01 -2.791687e-01 -2.723539e-01 -2.660476e-01 -2.589129e-01 -2.524562e-01 -2.451163e-01 -2.385954e-01 -2.311217e-01 -2.245818e-01 -2.170059e-01 -2.104557e-01 -2.027743e-01 -1.961910e-01 -1.883712e-01 -1.817063e-01 -1.736911e-01 -1.668757e-01 
-1.857201e-01 -1.775472e-01 -1.675399e-01 -1.589896e-01 -1.484579e-01 -1.394179e-01 -1.282522e-01 -1.186147e-01 -1.067149e-01 -9.638457e-02 -8.366841e-02 -7.256902e-02 -5.897996e-02 -4.706132e-02 -3.257579e-02 -1.981936e-02 -4.452857e-03 9.123968e-03 2.531261e-02 3.965403e-02 5.656071e-02 7.157229e-02 8.904838e-02 1.045991e-01 1.224550e-01 1.383815e-01 1.563932e-01 1.725055e-01 1.904226e-01 2.065118e-01 2.240676e-01 2.399124e-01 2.568339e-01 2.722077e-01 2.882247e-01 3.029007e-01 3.177535e-01 3.315082e-01 3.449523e-01 3.575667e-01 3.693750e-01 3.806341e-01 3.905969e-01 4.002880e-01 4.082103e-01 4.161211e-01 4.218201e-01 4.277373e-01 4.310396e-01 4.347498e-01 4.354907e-01 4.367834e-01 4.348089e-01 4.334833e-01 4.286553e-01 4.245304e-01 4.167353e-01 4.096634e-01 3.988240e-01 3.887057e-01 3.747953e-01 3.615964e-01 3.446535e-01 3.284207e-01 3.085628e-01 2.894371e-01 2.668725e-01 2.450980e-01 2.201326e-01 1.960603e-01 1.690991e-01 1.431827e-01 1.147241e-01 8.750883e-02 5.813207e-02 3.023560e-02 5.803814e-04 -2.733320e-02 -5.659355e-02 -8.384526e-02 -1.120358e-01 -1.379667e-01 -1.644460e-01 -1.884523e-01 -2.126470e-01 -2.342133e-01 -2.556496e-01 -2.743751e-01 -2.927029e-01 -3.083197e-01 -3.233269e-01 -3.357079e-01 -3.473243e-01 -3.564791e-01 -3.647685e-01 -3.708309e-01 -3.759739e-01 -3.791800e-01 -3.814499e-01 -3.821119e-01 -3.818465e-01 -3.803238e-01 -3.778969e-01 -3.745688e-01 -3.703629e-01 -3.656039e-01 -3.599879e-01 -3.541474e-01 -3.474584e-01 -3.408461e-01 -3.333774e-01 -3.262540e-01 -3.182474e-01 -3.108196e-01 -3.024622e-01 -2.948819e-01 -2.863069e-01 -2.786736e-01 -2.699626e-01 -2.623269e-01 -2.535150e-01 -2.458846e-01 -2.369654e-01 -2.293110e-01 -2.202434e-01 -2.125051e-01 -2.032197e-01 -1.953142e-01 
-2.123785e-01 -2.031186e-01 -1.917351e-01 -1.820456e-01 -1.700614e-01 -1.598087e-01 -1.470928e-01 -1.361487e-01 -1.225814e-01 -1.108321e-01 -9.631434e-02 -8.366874e-02 -6.813180e-02 -5.452917e-02 -3.794304e-02 -2.335987e-02 -5.740552e-03 9.804328e-03 2.838971e-02 4.483230e-02 6.426316e-02 8.149400e-02 1.015972e-01 1.194640e-01 1.400184e-01 1.583310e-01 1.790747e-01 1.976128e-01 2.182536e-01 2.367750e-01 2.570024e-01 2.752515e-01 2.947485e-01 3.124649e-01 3.309191e-01 3.478432e-01 3.649557e-01 3.808327e-01 3.963238e-01 4.109046e-01 4.245159e-01 4.375563e-01 4.490499e-01 4.603078e-01 4.694630e-01 4.786954e-01 4.853046e-01 4.922656e-01 4.961307e-01 5.005719e-01 5.015025e-01 5.031760e-01 5.009916e-01 4.996581e-01 4.941937e-01 4.896340e-01 4.807506e-01 4.727816e-01 4.603801e-01 4.488735e-01 4.329117e-01 4.178143e-01 3.983251e-01 3.796781e-01 3.567869e-01 3.347432e-01 3.086822e-01 2.835180e-01 2.546361e-01 2.267559e-01 1.955207e-01 1.654536e-01 1.324463e-01 1.008330e-01 6.673324e-02 3.430345e-02 -1.344357e-04 -3.259356e-02 -6.657288e-02 -9.825496e-02 -1.309756e-01 -1.610977e-01 -1.917989e-01 -2.196447e-01 -2.476475e-01 -2.726075e-01 -2.973528e-01 -3.189564e-01 -3.400345e-01 -3.579719e-01 -3.751399e-01 -3.892700e-01 -4.024552e-01 -4.128014e-01 -4.220915e-01 -4.288243e-01 -4.344454e-01 -4.378558e-01 -4.401426e-01 -4.406096e-01 -4.399710e-01 -4.379269e-01 -4.348110e-01 -4.307083e-01 -4.255704e-01 -4.198525e-01 -4.131284e-01 -4.062059e-01 -3.982910e-01 -3.905253e-01 -3.817608e-01 -3.734535e-01 -3.641183e-01 -3.555063e-01 -3.458143e-01 -3.370697e-01 -3.271706e-01 -3.184035e-01 -3.083871e-01 -2.996511e-01 -2.895524e-01 -2.808514e-01 -2.706580e-01 -2.619529e-01 -2.516120e-01 -2.428292e-01 -2.322557e-01 -2.232943e-01 
-2.399632e-01 -2.296374e-01 -2.169548e-01 -2.061482e-01 -1.927887e-01 -1.813442e-01 -1.671532e-01 -1.549200e-01 -1.397550e-01 -1.265984e-01 -1.103403e-01 -9.615141e-02 -7.871542e-02 -6.342016e-02 -4.476601e-02 -2.833351e-02 -8.474170e-03 9.077174e-03 3.006918e-02 4.866801e-02 7.065746e-02 9.017898e-02 1.129687e-01 1.332376e-01 1.565736e-01 1.773700e-01 2.009501e-01 2.220186e-01 2.455050e-01 2.665648e-01 2.895982e-01 3.103542e-01 3.325682e-01 3.527204e-01 3.737555e-01 3.930066e-01 4.125204e-01 4.305807e-01 4.482548e-01 4.648431e-01 4.803858e-01 4.952277e-01 5.083722e-01 5.211970e-01 5.316970e-01 5.422329e-01 5.498566e-01 5.578278e-01 5.623529e-01 5.674788e-01 5.686899e-01 5.706883e-01 5.683785e-01 5.669741e-01 5.609511e-01 5.558895e-01 5.459878e-01 5.370532e-01 5.231508e-01 5.101885e-01 4.922269e-01 4.751673e-01 4.531733e-01 4.320547e-01 4.061614e-01 3.811505e-01 3.516147e-01 3.230209e-01 2.902341e-01 2.585154e-01 2.230080e-01 1.887674e-01 1.512020e-01 1.151725e-01 7.632784e-02 3.934696e-02 9.022295e-05 -3.693587e-02 -7.568588e-02 -1.118266e-01 -1.491445e-01 -1.834941e-01 -2.184980e-01 -2.502268e-01 -2.821285e-01 -3.105297e-01 -3.386801e-01 -3.632088e-01 -3.871337e-01 -4.074329e-01 -4.268538e-01 -4.427649e-01 -4.576036e-01 -4.691607e-01 -4.795268e-01 -4.869364e-01 -4.931015e-01 -4.967103e-01 -4.990717e-01 -4.993278e-01 -4.983671e-01 -4.957786e-01 -4.920205e-01 -4.871160e-01 -4.810909e-01 -4.743854e-01 -4.665974e-01 -4.585655e-01 -4.494696e-01 -4.405260e-01 -4.305123e-01 -4.210007e-01 -4.103860e-01 -4.005743e-01 -3.895993e-01 -3.796801e-01 -3.685117e-01 -3.586062e-01 -3.473422e-01 -3.375068e-01 -3.261829e-01 -3.164173e-01 -3.050148e-01 -2.952701e-01 -2.837249e-01 -2.739129e-01 -2.621238e-01 -2.521253e-01 
-2.669330e-01 -2.555930e-01 -2.416011e-01 -2.297292e-01 -2.149829e-01 -2.023963e-01 -1.867143e-01 -1.732373e-01 -1.564525e-01 -1.419276e-01 -1.238992e-01 -1.081983e-01 -8.882507e-02 -7.186024e-02 -5.109176e-02 -3.282468e-02 -1.067204e-02 8.878806e-03 3.233564e-02 5.309061e-02 7.769906e-02 9.951680e-02 1.250526e-01 1.477336e-01 1.739065e-01 1.972005e-01 2.236653e-01 2.472819e-01 2.736525e-01 2.972736e-01 3.231405e-01 3.464330e-01 3.713803e-01 3.940078e-01 4.176294e-01 4.392605e-01 4.611725e-01 4.814861e-01 5.013342e-01 5.200202e-01 5.374823e-01 5.542391e-01 5.690224e-01 5.835515e-01 5.953864e-01 6.073867e-01 6.160189e-01 6.251814e-01 6.303647e-01 6.363715e-01 6.378641e-01 6.403909e-01 6.379558e-01 6.366816e-01 6.300942e-01 6.247167e-01 6.137779e-01 6.040347e-01 5.885909e-01 5.742860e-01 5.542527e-01 5.352853e-01 5.106734e-01 4.870659e-01 4.580073e-01 4.299308e-01 3.967001e-01 3.644922e-01 3.275220e-01 2.916962e-01 2.515825e-01 2.128246e-01 1.703213e-01 1.294736e-01 8.547392e-02 4.350521e-02 -9.897243e-04 -4.302675e-02 -8.695152e-02 -1.279730e-01 -1.702518e-01 -2.092022e-01 -2.488088e-01 -2.847225e-01 -3.207411e-01 -3.527989e-01 -3.844789e-01 -4.120544e-01 -4.388530e-01 -4.615433e-01 -4.831499e-01 -5.007869e-01 -5.171275e-01 -5.297695e-01 -5.409911e-01 -5.488975e-01 -5.553349e-01 -5.589263e-01 -5.610582e-01 -5.608696e-01 -5.592688e-01 -5.559000e-01 -5.511839e-01 -5.452531e-01 -5.380398e-01 -5.301438e-01 -5.210159e-01 -5.116996e-01 -5.011780e-01 -4.909133e-01 -4.794402e-01 -4.686140e-01 -4.565446e-01 -4.454548e-01 -4.330556e-01 -4.219128e-01 -4.093649e-01 -3.982979e-01 -3.857035e-01 -3.747678e-01 -3.621588e-01 -3.513458e-01 -3.386930e-01 -3.279400e-01 -3.151631e-01 -3.043633e-01 -2.913410e-01 -2.803536e-01 
-2.950539e-01 -2.827289e-01 -2.675273e-01 -2.546212e-01 -2.385888e-01 -2.248906e-01 -2.078168e-01 -1.931227e-01 -1.748116e-01 -1.589378e-01 -1.392225e-01 -1.220181e-01 -1.007755e-01 -8.213458e-02 -5.929880e-02 -3.917201e-02 -1.474715e-02 6.849779e-03 3.278059e-02 5.576128e-02 8.303095e-02 1.072374e-01 1.355953e-01 1.608016e-01 1.899202e-01 2.158414e-01 2.453284e-01 2.716332e-01 3.010489e-01 3.273742e-01 3.562519e-01 3.822188e-01 4.100855e-01 4.353132e-01 4.617090e-01 4.858252e-01 5.103185e-01 5.329659e-01 5.551621e-01 5.759987e-01 5.955427e-01 6.142388e-01 6.308113e-01 6.470421e-01 6.603511e-01 6.737888e-01 6.835587e-01 6.938653e-01 6.998279e-01 7.066521e-01 7.085397e-01 7.115194e-01 7.090655e-01 7.078376e-01 7.007841e-01 6.950017e-01 6.831146e-01 6.724722e-01 6.555645e-01 6.398281e-01 6.177879e-01 5.968289e-01 5.696507e-01 5.434792e-01 5.112941e-01 4.800885e-01 4.431898e-01 4.073184e-01 3.661804e-01 3.262122e-01 2.814964e-01 2.381981e-01 1.907481e-01 1.450664e-01 9.588724e-02 4.891543e-02 -8.611772e-04 -4.793072e-02 -9.709544e-02 -1.430310e-01 -1.903581e-01 -2.339566e-01 -2.782734e-01 -3.184316e-01 -3.586892e-01 -3.944704e-01 -4.298093e-01 -4.604983e-01 -4.902990e-01 -5.154391e-01 -5.393523e-01 -5.587594e-01 -5.767108e-01 -5.904637e-01 -6.026351e-01 -6.110450e-01 -6.178351e-01 -6.213984e-01 -6.233695e-01 -6.227116e-01 -6.205308e-01 -6.163476e-01 -6.107283e-01 -6.037322e-01 -5.953834e-01 -5.862570e-01 -5.758420e-01 -5.652038e-01 -5.533109e-01 -5.416921e-01 -5.288167e-01 -5.166489e-01 -5.031851e-01 -4.907971e-01 -4.770376e-01 -4.646582e-01 -4.507985e-01 -4.385644e-01 -4.247116e-01 -4.126770e-01 -3.988595e-01 -3.870074e-01 -3.731859e-01 -3.614393e-01 -3.475177e-01 -3.357508e-01 -3.215871e-01 -3.096365e-01 
-3.224115e-01 -3.091705e-01 -2.927533e-01 -2.788818e-01 -2.615546e-01 -2.468100e-01 -2.283292e-01 -2.124768e-01 -1.926152e-01 -1.754426e-01 -1.540052e-01 -1.353369e-01 -1.121776e-01 -9.188910e-02 -6.692711e-02 -4.495780e-02 -1.819170e-02 5.444477e-03 3.392562e-02 5.913393e-02 8.914467e-02 1.157484e-01 1.470073e-01 1.747523e-01 2.068898e-01 2.354550e-01 2.680275e-01 2.970402e-01 3.295508e-01 3.586042e-01 3.905269e-01 4.191990e-01 4.500032e-01 4.778729e-01 5.070463e-01 5.337055e-01 5.607715e-01 5.858319e-01 6.103595e-01 6.334527e-01 6.550584e-01 6.758306e-01 6.941730e-01 7.122753e-01 7.270438e-01 7.421214e-01 7.530220e-01 7.647047e-01 7.714476e-01 7.793447e-01 7.816352e-01 7.853369e-01 7.828749e-01 7.819631e-01 7.744506e-01 7.685179e-01 7.556765e-01 7.443554e-01 7.259530e-01 7.089511e-01 6.848348e-01 6.619751e-01 6.321083e-01 6.033694e-01 5.678687e-01 5.334214e-01 4.925887e-01 4.528234e-01 4.071693e-01 3.627113e-01 3.129658e-01 2.646744e-01 2.117824e-01 1.607311e-01 1.058308e-01 5.326995e-02 -2.346932e-03 -5.504613e-02 -1.099918e-01 -1.614083e-01 -2.142713e-01 -2.630159e-01 -3.124438e-01 -3.572445e-01 -4.020297e-01 -4.418115e-01 -4.809695e-01 -5.149198e-01 -5.477496e-01 -5.753611e-01 -6.014804e-01 -6.225657e-01 -6.419151e-01 -6.565938e-01 -6.694120e-01 -6.780713e-01 -6.848463e-01 -6.880839e-01 -6.894881e-01 -6.880442e-01 -6.848635e-01 -6.795519e-01 -6.726174e-01 -6.642616e-01 -6.543901e-01 -6.437711e-01 -6.317185e-01 -6.195365e-01 -6.059658e-01 -5.928149e-01 -5.782780e-01 -5.646348e-01 -5.495646e-01 -5.357864e-01 -5.204989e-01 -5.068290e-01 -4.915299e-01 -4.781076e-01 -4.629034e-01 -4.497765e-01 -4.346862e-01 -4.218238e-01 -4.067920e-01 -3.940976e-01 -3.790064e-01 -3.663305e-01 -3.510119e-01 -3.381635e-01 
-3.511380e-01 -3.370202e-01 -3.195115e-01 -3.047171e-01 -2.862225e-01 -2.704742e-01 -2.507136e-01 -2.337422e-01 -2.124519e-01 -1.940119e-01 -1.709629e-01 -1.508488e-01 -1.258652e-01 -1.039283e-01 -7.690677e-02 -5.307015e-02 -2.399649e-02 1.732081e-03 3.276910e-02 6.028923e-02 9.309013e-02 1.222067e-01 1.564609e-01 1.868890e-01 2.221830e-01 2.535600e-01 2.893942e-01 3.212976e-01 3.571101e-01 3.890794e-01 4.242748e-01 4.558333e-01 4.898129e-01 5.204882e-01 5.526770e-01 5.820159e-01 6.118837e-01 6.394602e-01 6.665338e-01 6.919491e-01 7.158139e-01 7.386895e-01 7.589821e-01 7.789475e-01 7.953406e-01 8.120187e-01 8.242028e-01 8.371968e-01 8.448635e-01 8.537489e-01 8.565785e-01 8.609035e-01 8.585624e-01 8.578581e-01 8.500069e-01 8.438097e-01 8.301231e-01 8.180070e-01 7.982048e-01 7.798230e-01 7.537090e-01 7.288406e-01 6.963467e-01 6.649439e-01 6.261732e-01 5.884043e-01 5.436692e-01 4.999508e-01 4.498004e-01 4.008155e-01 3.460487e-01 2.927457e-01 2.344067e-01 1.779791e-01 1.173344e-01 5.917878e-02 -2.326416e-03 -6.067163e-02 -1.214764e-01 -1.784102e-01 -2.369192e-01 -2.908701e-01 -3.455487e-01 -3.950732e-01 -4.445466e-01 -4.884230e-01 -5.315702e-01 -5.688762e-01 -6.049026e-01 -6.350677e-01 -6.635476e-01 -6.863717e-01 -7.072540e-01 -7.228915e-01 -7.364697e-01 -7.453834e-01 -7.522362e-01 -7.551284e-01 -7.560423e-01 -7.537743e-01 -7.496596e-01 -7.431695e-01 -7.349799e-01 -7.252094e-01 -7.138736e-01 -7.017077e-01 -6.880773e-01 -6.743014e-01 -6.591161e-01 -6.443903e-01 -6.282588e-01 -6.131060e-01 -5.965007e-01 -5.813073e-01 -5.645675e-01 -5.495912e-01 -5.329333e-01 -5.183162e-01 -5.018462e-01 -4.876292e-01 -4.713576e-01 -4.574959e-01 -4.413516e-01 -4.277286e-01 -4.115726e-01 -3.980145e-01 -3.816530e-01 -3.679407e-01 
-3.789479e-01 -3.640436e-01 -3.454458e-01 -3.298176e-01 -3.101532e-01 -2.934850e-01 -2.724329e-01 -2.544173e-01 -2.316741e-01 -2.120294e-01 -1.873290e-01 -1.658179e-01 -1.389535e-01 -1.154018e-01 -8.624768e-02 -6.056242e-02 -2.909362e-02 -1.277704e-03 3.241355e-02 6.225149e-02 9.794642e-02 1.295896e-01 1.669421e-01 2.000714e-01 2.386176e-01 2.728263e-01 3.120040e-01 3.468188e-01 3.859963e-01 4.209037e-01 4.594134e-01 4.938858e-01 5.310599e-01 5.645795e-01 5.997820e-01 6.318576e-01 6.645090e-01 6.946850e-01 7.242755e-01 7.521304e-01 7.782211e-01 8.033582e-01 8.255703e-01 8.476012e-01 8.655968e-01 8.841227e-01 8.975811e-01 9.121757e-01 9.207715e-01 9.309695e-01 9.343569e-01 9.396527e-01 9.374604e-01 9.373188e-01 9.291582e-01 9.230387e-01 9.085257e-01 8.959196e-01 8.747104e-01 8.551889e-01 8.270254e-01 8.002950e-01 7.650563e-01 7.310153e-01 6.887706e-01 6.475616e-01 5.986167e-01 5.506681e-01 4.956006e-01 4.416507e-01 3.813292e-01 3.224296e-01 2.580116e-01 1.955053e-01 1.284137e-01 6.388868e-02 -4.237372e-03 -6.902031e-02 -1.363980e-01 -1.995990e-01 -2.643983e-01 -3.242094e-01 -3.846662e-01 -4.394289e-01 -4.939655e-01 -5.422838e-01 -5.896209e-01 -6.304533e-01 -6.696972e-01 -7.024169e-01 -7.331087e-01 -7.575230e-01 -7.796426e-01 -7.959706e-01 -8.098978e-01 -8.187122e-01 -8.251526e-01 -8.272959e-01 -8.271864e-01 -8.236735e-01 -8.180819e-01 -8.100036e-01 -8.000340e-01 -7.884719e-01 -7.751861e-01 -7.611441e-01 -7.455035e-01 -7.298613e-01 -7.126898e-01 -6.961759e-01 -6.781419e-01 -6.613245e-01 -6.429375e-01 -6.262276e-01 -6.078457e-01 -5.915093e-01 -5.733525e-01 -5.575273e-01 -5.396939e-01 -5.244067e-01 -5.068907e-01 -4.920754e-01 -4.747823e-01 -4.602962e-01 -4.430586e-01 -4.286972e-01 -4.112886e-01 -3.967994e-01 
-4.083335e-01 -3.926939e-01 -3.731581e-01 -3.567527e-01 -3.360760e-01 -3.185469e-01 -2.963632e-01 -2.773600e-01 -2.533199e-01 -2.325189e-01 -2.063120e-01 -1.834370e-01 -1.548161e-01 -1.296601e-01 -9.846689e-02 -7.091293e-02 -3.710154e-02 -7.141306e-03 2.920175e-02 6.145588e-02 1.000991e-01 1.344100e-01 1.749747e-01 2.109863e-01 2.529563e-01 2.902106e-01 3.329547e-01 3.709168e-01 4.137222e-01 4.518113e-01 4.939243e-01 5.315461e-01 5.722146e-01 6.087904e-01 6.473031e-01 6.822908e-01 7.180069e-01 7.509118e-01 7.832775e-01 8.136508e-01 8.421999e-01 8.696266e-01 8.939664e-01 9.180446e-01 9.378307e-01 9.581472e-01 9.730534e-01 9.891603e-01 9.988496e-01 1.010249e+00 1.014353e+00 1.020493e+00 1.018602e+00 1.018886e+00 1.010561e+00 1.004375e+00 9.891677e-01 9.759252e-01 9.534231e-01 9.326171e-01 9.024964e-01 8.737662e-01 8.358528e-01 7.990504e-01 7.533816e-01 7.086324e-01 6.555121e-01 6.032634e-01 5.433026e-01 4.843518e-01 4.184907e-01 3.539889e-01 2.834959e-01 2.149248e-01 1.413705e-01 7.049177e-02 -4.302169e-03 -7.552478e-02 -1.495646e-01 -2.190684e-01 -2.902944e-01 -3.560415e-01 -4.224566e-01 -4.825695e-01 -5.423804e-01 -5.952739e-01 -6.470246e-01 -6.915180e-01 -7.341962e-01 -7.695863e-01 -8.026844e-01 -8.287708e-01 -8.522909e-01 -8.693500e-01 -8.837562e-01 -8.924713e-01 -8.986001e-01 -8.999600e-01 -8.989064e-01 -8.940897e-01 -8.870874e-01 -8.773486e-01 -8.656598e-01 -8.522297e-01 -8.370551e-01 -8.210640e-01 -8.034784e-01 -7.859050e-01 -7.668181e-01 -7.484622e-01 -7.286023e-01 -7.100781e-01 -6.899917e-01 -6.717351e-01 -6.517987e-01 -6.340836e-01 -6.145209e-01 -5.974800e-01 -5.783822e-01 -5.620279e-01 -5.433732e-01 -5.276181e-01 -5.092900e-01 -4.939648e-01 -4.757682e-01 -4.606377e-01 -4.423142e-01 -4.270916e-01 
-4.366457e-01 -4.203868e-01 -3.999291e-01 -3.828598e-01 -3.611795e-01 -3.428951e-01 -3.195755e-01 -2.996783e-01 -2.743195e-01 -2.524400e-01 -2.246835e-01 -2.005037e-01 -1.700602e-01 -1.433385e-01 -1.100171e-01 -8.061308e-02 -4.434920e-02 -1.224528e-02 2.687528e-02 6.155909e-02 1.032850e-01 1.402859e-01 1.841968e-01 2.231164e-01 2.686344e-01 3.089587e-01 3.553747e-01 3.965043e-01 4.430173e-01 4.843053e-01 5.300709e-01 5.708609e-01 6.150417e-01 6.547020e-01 6.965139e-01 7.344617e-01 7.732088e-01 8.089220e-01 8.440147e-01 8.770287e-01 9.079833e-01 9.378745e-01 9.642942e-01 9.906535e-01 1.012196e+00 1.034598e+00 1.050939e+00 1.068912e+00 1.079705e+00 1.092711e+00 1.097565e+00 1.104991e+00 1.103455e+00 1.104625e+00 1.096199e+00 1.090402e+00 1.074559e+00 1.061098e+00 1.037339e+00 1.015592e+00 9.835009e-01 9.530018e-01 9.123216e-01 8.728358e-01 8.235414e-01 7.751420e-01 7.175075e-01 6.606363e-01 5.952877e-01 5.307933e-01 4.587388e-01 3.878867e-01 3.105209e-01 2.349706e-01 1.540492e-01 7.579805e-02 -6.619127e-03 -8.532640e-02 -1.669658e-01 -2.437598e-01 -3.222593e-01 -3.947950e-01 -4.678587e-01 -5.339793e-01 -5.995471e-01 -6.574430e-01 -7.138535e-01 -7.621947e-01 -8.083121e-01 -8.463327e-01 -8.816174e-01 -9.091412e-01 -9.336519e-01 -9.510563e-01 -9.653870e-01 -9.735143e-01 -9.786830e-01 -9.787170e-01 -9.760262e-01 -9.693530e-01 -9.602463e-01 -9.483199e-01 -9.342530e-01 -9.184805e-01 -9.008187e-01 -8.824738e-01 -8.624210e-01 -8.425900e-01 -8.211491e-01 -8.007041e-01 -7.786633e-01 -7.582604e-01 -7.361984e-01 -7.162906e-01 -6.945941e-01 -6.754538e-01 -6.543407e-01 -6.360855e-01 -6.156292e-01 -5.982477e-01 -5.784003e-01 -5.617748e-01 -5.423880e-01 -5.263146e-01 -5.071570e-01 -4.913627e-01 -4.721358e-01 -4.562932e-01 