# vtk DataFile Version 2.0
Comment goes here
ASCII

DATASET STRUCTURED_POINTS
FIELD FieldData 1
TIME 1 1 double
0.07500000
DIMENSIONS    128   128   1

ORIGIN    0.000   0.000   0.000
SPACING   0.039062 0.039062   1.000

POINT_DATA   16384
SCALARS uY double
LOOKUP_TABLE default

2.087627e-14 1.709062e-14 2.152417e-14 1.816669e-14 2.287039e-14 1.995072e-14 2.529859e-14 2.285200e-14 2.832507e-14 2.638904e-14 3.178864e-14 2.995711e-14 3.559270e-14 3.365418e-14 3.893685e-14 3.649987e-14 4.137632e-14 3.872375e-14 4.281054e-14 4.010050e-14 4.510159e-14 4.303502e-14 4.786887e-14 4.609348e-14 5.134368e-14 5.003198e-14 5.634186e-14 5.711896e-14 6.307999e-14 6.397476e-14 7.049929e-14 7.137730e-14 7.819021e-14 7.926050e-14 8.590515e-14 8.726646e-14 9.233833e-14 9.428234e-14 9.912454e-14 1.026639e-13 1.082013e-13 1.114720e-13 1.164258e-13 1.214263e-13 1.248719e-13 1.294968e-13 1.329234e-13 1.383288e-13 1.408049e-13 1.478402e-13 1.498532e-13 1.577456e-13 1.581197e-13 1.659866e-13 1.660092e-13 1.741108e-13 1.731235e-13 1.825781e-13 1.807875e-13 1.903118e-13 1.873534e-13 1.971860e-13 1.919979e-13 2.011669e-13 1.952753e-13 2.040094e-13 1.961156e-13 2.044198e-13 1.958490e-13 2.030040e-13 1.930679e-13 2.002286e-13 1.905411e-13 1.963311e-13 1.854961e-13 1.903945e-13 1.799668e-13 1.844683e-13 1.738349e-13 1.765832e-13 1.655815e-13 1.679323e-13 1.585589e-13 1.585482e-13 1.486458e-13 1.460425e-13 1.380595e-13 1.364965e-13 1.283391e-13 1.250938e-13 1.194560e-13 1.148619e-13 1.097950e-13 1.046709e-13 9.958945e-14 9.316985e-14 9.001364e-14 8.388698e-14 8.277923e-14 7.639292e-14 7.509962e-14 6.778324e-14 6.525675e-14 5.765059e-14 5.779444e-14 5.168760e-14 5.350841e-14 4.526825e-14 4.615645e-14 3.983101e-14 4.132938e-14 3.558432e-14 3.739575e-14 3.078450e-14 3.415862e-14 2.777340e-14 2.960979e-14 2.396782e-14 2.676399e-14 2.127044e-14 2.460524e-14 1.924717e-14 2.269057e-14 1.818371e-14 2.196151e-14 1.710286e-14 2.112287e-14 1.707043e-14 
-3.724252e-02 -3.739148e-02 -3.759532e-02 -3.753540e-02 -3.752568e-02 -3.727126e-02 -3.706184e-02 -3.662753e-02 -3.623249e-02 -3.563288e-02 -3.506637e-02 -3.431593e-02 -3.359220e-02 -3.270535e-02 -3.183894e-02 -3.083026e-02 -2.983618e-02 -2.872056e-02 -2.761453e-02 -2.640734e-02 -2.520585e-02 -2.392299e-02 -2.264332e-02 -2.130113e-02 -1.996114e-02 -1.857621e-02 -1.719401e-02 -1.578282e-02 -1.437628e-02 -1.295477e-02 -1.154099e-02 -1.012407e-02 -8.718805e-03 -7.319847e-03 -5.936949e-03 -4.567358e-03 -3.218372e-03 -1.887249e-03 -5.810944e-04 7.049520e-04 1.962107e-03 3.199000e-03 4.403702e-03 5.589771e-03 6.741087e-03 7.876797e-03 8.975999e-03 1.006357e-02 1.111372e-02 1.215665e-02 1.316218e-02 1.416474e-02 1.513096e-02 1.609765e-02 1.703031e-02 1.796538e-02 1.887023e-02 1.977711e-02 2.065949e-02 2.154032e-02 2.240469e-02 2.325985e-02 2.410929e-02 2.493686e-02 2.577249e-02 2.656776e-02 2.738806e-02 2.814307e-02 2.894314e-02 2.964621e-02 3.041696e-02 3.105239e-02 3.177986e-02 3.232785e-02 3.299267e-02 3.342952e-02 3.400681e-02 3.430557e-02 3.476531e-02 3.489685e-02 3.520492e-02 3.513952e-02 3.525948e-02 3.496881e-02 3.486422e-02 3.432358e-02 3.396097e-02 3.315161e-02 3.250348e-02 3.141474e-02 3.046263e-02 2.909369e-02 2.783064e-02 2.619163e-02 2.462392e-02 2.273631e-02 2.088412e-02 1.878023e-02 1.667719e-02 1.439889e-02 1.209043e-02 9.687117e-03 7.227877e-03 4.753943e-03 2.204470e-03 -2.836146e-04 -2.860487e-03 -5.307085e-03 -7.849823e-03 -1.020283e-02 -1.265439e-02 -1.486751e-02 -1.717783e-02 -1.921221e-02 -2.133997e-02 -2.316514e-02 -2.507855e-02 -2.667276e-02 -2.834959e-02 -2.969944e-02 -3.112642e-02 -3.222606e-02 -3.339778e-02 -3.424774e-02 -3.516523e-02 -3.577121e-02 -3.644047e-02 -3.681192e-02 
-7.461720e-02 -7.491831e-02 -7.532397e-02 -7.520640e-02 -7.518391e-02 -7.467637e-02 -7.425364e-02 -7.338532e-02 -7.259065e-02 -7.139062e-02 -7.025237e-02 -6.874948e-02 -6.729619e-02 -6.551924e-02 -6.377994e-02 -6.175803e-02 -5.976275e-02 -5.752567e-02 -5.530584e-02 -5.288439e-02 -5.047307e-02 -4.789919e-02 -4.533101e-02 -4.263760e-02 -3.994846e-02 -3.716900e-02 -3.439528e-02 -3.156311e-02 -2.874084e-02 -2.588823e-02 -2.305189e-02 -2.020909e-02 -1.739047e-02 -1.458464e-02 -1.181175e-02 -9.066105e-03 -6.362284e-03 -3.695344e-03 -1.078648e-03 1.496119e-03 4.013195e-03 6.487478e-03 8.897928e-03 1.126833e-02 1.357026e-02 1.583777e-02 1.803374e-02 2.020293e-02 2.229919e-02 2.437729e-02 2.638285e-02 2.837869e-02 3.030440e-02 3.222738e-02 3.408503e-02 3.594401e-02 3.774549e-02 3.954777e-02 4.130419e-02 4.305450e-02 4.477529e-02 4.647481e-02 4.816671e-02 4.981202e-02 5.147791e-02 5.306002e-02 5.469753e-02 5.620086e-02 5.780079e-02 5.920231e-02 6.074706e-02 6.201565e-02 6.347768e-02 6.457391e-02 6.591467e-02 6.679122e-02 6.796084e-02 6.856374e-02 6.950172e-02 6.977252e-02 7.040981e-02 7.028875e-02 7.055126e-02 6.998119e-02 6.979465e-02 6.872557e-02 6.802138e-02 6.641512e-02 6.513671e-02 6.297127e-02 6.108024e-02 5.835329e-02 5.583458e-02 5.256580e-02 4.943126e-02 4.566311e-02 4.195296e-02 3.774974e-02 3.353158e-02 2.897690e-02 2.434243e-02 1.953516e-02 1.459489e-02 9.643995e-03 4.520470e-03 -4.607614e-04 -5.640349e-03 -1.054021e-02 -1.565134e-02 -2.036515e-02 -2.529248e-02 -2.972716e-02 -3.436964e-02 -3.844704e-02 -4.272134e-02 -4.638019e-02 -5.022238e-02 -5.341888e-02 -5.678448e-02 -5.949162e-02 -6.235426e-02 -6.456019e-02 -6.690933e-02 -6.861510e-02 -7.045322e-02 -7.167013e-02 -7.300969e-02 -7.375666e-02 
-1.121769e-01 -1.126101e-01 -1.132084e-01 -1.130143e-01 -1.129713e-01 -1.121934e-01 -1.115510e-01 -1.102335e-01 -1.090342e-01 -1.072209e-01 -1.055072e-01 -1.032414e-01 -1.010557e-01 -9.838056e-02 -9.576631e-02 -9.272537e-02 -8.972743e-02 -8.636520e-02 -8.303059e-02 -7.939313e-02 -7.577140e-02 -7.190646e-02 -6.804961e-02 -6.400644e-02 -5.996839e-02 -5.579710e-02 -5.163262e-02 -4.738311e-02 -4.314639e-02 -3.886696e-02 -3.460987e-02 -3.034573e-02 -2.611605e-02 -2.190776e-02 -1.774752e-02 -1.362962e-02 -9.573728e-03 -5.573734e-03 -1.649084e-03 2.213154e-03 5.988090e-03 9.700463e-03 1.331551e-02 1.687328e-02 2.032596e-02 2.373090e-02 2.702543e-02 3.028465e-02 3.343069e-02 3.655520e-02 3.956648e-02 4.256962e-02 4.546252e-02 4.835836e-02 5.115056e-02 5.395231e-02 5.666152e-02 5.937998e-02 6.202265e-02 6.466478e-02 6.725479e-02 6.982217e-02 7.236935e-02 7.485675e-02 7.736514e-02 7.975894e-02 8.222474e-02 8.450145e-02 8.691075e-02 8.903564e-02 9.136187e-02 9.328796e-02 9.548974e-02 9.715739e-02 9.917676e-02 1.005143e-01 1.022762e-01 1.032015e-01 1.046149e-01 1.050392e-01 1.059999e-01 1.058320e-01 1.062282e-01 1.053809e-01 1.051006e-01 1.034975e-01 1.024371e-01 1.000196e-01 9.809369e-02 9.482830e-02 9.197888e-02 8.786194e-02 8.406646e-02 7.912802e-02 7.440463e-02 6.870953e-02 6.311930e-02 5.676579e-02 5.041120e-02 4.352690e-02 3.654686e-02 2.928257e-02 2.184428e-02 1.436602e-02 6.654768e-03 -8.651256e-04 -8.657265e-03 -1.604917e-02 -2.373441e-02 -3.083976e-02 -3.824444e-02 -4.492268e-02 -5.189497e-02 -5.802855e-02 -6.444360e-02 -6.994090e-02 -7.570329e-02 -8.049936e-02 -8.554308e-02 -8.959850e-02 -9.388485e-02 -9.718320e-02 -1.006973e-01 -1.032415e-01 -1.059880e-01 -1.077964e-01 -1.097947e-01 -1.108969e-01 
-1.501352e-01 -1.507102e-01 -1.514948e-01 -1.512310e-01 -1.511580e-01 -1.501138e-01 -1.492400e-01 -1.474743e-01 -1.458566e-01 -1.434276e-01 -1.411226e-01 -1.380880e-01 -1.351524e-01 -1.315694e-01 -1.280608e-01 -1.239872e-01 -1.199652e-01 -1.154602e-01 -1.109875e-01 -1.061127e-01 -1.012554e-01 -9.607474e-02 -9.090253e-02 -8.548225e-02 -8.006753e-02 -7.447529e-02 -6.889185e-02 -6.319521e-02 -5.751618e-02 -5.178072e-02 -4.607623e-02 -4.036345e-02 -3.469817e-02 -2.906331e-02 -2.349416e-02 -1.798429e-02 -1.255856e-02 -7.211176e-03 -1.965250e-03 3.192636e-03 8.233829e-03 1.318584e-02 1.800867e-02 2.274854e-02 2.734983e-02 3.188030e-02 3.626602e-02 4.059719e-02 4.478070e-02 4.892805e-02 5.292829e-02 5.691060e-02 6.075016e-02 6.458726e-02 6.829062e-02 7.200126e-02 7.559306e-02 7.919287e-02 8.269622e-02 8.619567e-02 8.963046e-02 9.303288e-02 9.641379e-02 9.971340e-02 1.030475e-01 1.062273e-01 1.095115e-01 1.125412e-01 1.157587e-01 1.185929e-01 1.217099e-01 1.242865e-01 1.272491e-01 1.294889e-01 1.322203e-01 1.340273e-01 1.364271e-01 1.376913e-01 1.396363e-01 1.402376e-01 1.415863e-01 1.414013e-01 1.420006e-01 1.409104e-01 1.406059e-01 1.385058e-01 1.371540e-01 1.339635e-01 1.314450e-01 1.271165e-01 1.233494e-01 1.178758e-01 1.128264e-01 1.062465e-01 9.993712e-02 9.233659e-02 8.484857e-02 7.635861e-02 6.783049e-02 5.862235e-02 4.924286e-02 3.951939e-02 2.951626e-02 1.950121e-02 9.126962e-03 -9.472104e-04 -1.143088e-02 -2.133530e-02 -3.167287e-02 -4.119361e-02 -5.114927e-02 -6.009682e-02 -6.946503e-02 -7.768114e-02 -8.629359e-02 -9.365515e-02 -1.013840e-01 -1.078040e-01 -1.145615e-01 -1.199877e-01 -1.257234e-01 -1.301342e-01 -1.348300e-01 -1.382302e-01 -1.418940e-01 -1.443089e-01 -1.469684e-01 -1.484383e-01 
-1.884620e-01 -1.891380e-01 -1.900903e-01 -1.897183e-01 -1.895999e-01 -1.882544e-01 -1.871367e-01 -1.848922e-01 -1.828463e-01 -1.797760e-01 -1.768723e-01 -1.730481e-01 -1.693570e-01 -1.648501e-01 -1.604431e-01 -1.553254e-01 -1.502766e-01 -1.446217e-01 -1.390090e-01 -1.328935e-01 -1.267995e-01 -1.203033e-01 -1.138153e-01 -1.070211e-01 -1.002302e-01 -9.322265e-02 -8.622171e-02 -7.908556e-02 -7.196676e-02 -6.478421e-02 -5.763600e-02 -5.048408e-02 -4.338792e-02 -3.633573e-02 -2.936317e-02 -2.246943e-02 -1.567968e-02 -8.990894e-03 -2.429225e-03 4.021377e-03 1.032432e-02 1.651699e-02 2.254491e-02 2.847265e-02 3.422252e-02 3.988962e-02 4.536983e-02 5.078972e-02 5.601791e-02 6.121068e-02 6.621127e-02 7.120094e-02 7.600276e-02 8.081453e-02 8.544849e-02 9.010607e-02 9.460311e-02 9.912619e-02 1.035152e-01 1.079170e-01 1.122228e-01 1.165076e-01 1.207484e-01 1.249093e-01 1.290942e-01 1.331100e-01 1.372352e-01 1.410684e-01 1.451134e-01 1.487071e-01 1.526303e-01 1.559066e-01 1.596407e-01 1.624997e-01 1.659487e-01 1.682688e-01 1.713064e-01 1.729473e-01 1.754183e-01 1.762264e-01 1.779515e-01 1.777683e-01 1.785530e-01 1.772253e-01 1.768730e-01 1.742656e-01 1.725927e-01 1.686009e-01 1.654550e-01 1.600166e-01 1.552923e-01 1.483974e-01 1.420511e-01 1.337485e-01 1.258082e-01 1.162075e-01 1.067766e-01 9.604594e-02 8.530078e-02 7.365980e-02 6.184087e-02 4.954965e-02 3.694699e-02 2.429210e-02 1.122698e-02 -1.494340e-03 -1.468949e-02 -2.718529e-02 -4.018664e-02 -5.218495e-02 -6.469449e-02 -7.595546e-02 -8.771444e-02 -9.803894e-02 -1.088366e-01 -1.180710e-01 -1.277483e-01 -1.357857e-01 -1.442349e-01 -1.510124e-01 -1.581729e-01 -1.636670e-01 -1.695189e-01 -1.737391e-01 -1.782949e-01 -1.812763e-01 -1.845734e-01 -1.863694e-01 
-2.274606e-01 -2.282536e-01 -2.293621e-01 -2.288935e-01 -2.287134e-01 -2.270736e-01 -2.256918e-01 -2.229704e-01 -2.204730e-01 -2.167576e-01 -2.132291e-01 -2.086056e-01 -2.041300e-01 -1.986831e-01 -1.933455e-01 -1.871609e-01 -1.810497e-01 -1.742153e-01 -1.674236e-01 -1.600314e-01 -1.526585e-01 -1.448048e-01 -1.369561e-01 -1.287414e-01 -1.205273e-01 -1.120547e-01 -1.035884e-01 -9.496172e-02 -8.635578e-02 -7.767598e-02 -6.903864e-02 -6.040062e-02 -5.183171e-02 -4.332068e-02 -3.490792e-02 -2.659629e-02 -1.841219e-02 -1.035727e-02 -2.457103e-03 5.300372e-03 1.287939e-02 2.031548e-02 2.755391e-02 3.466061e-02 4.155536e-02 4.833877e-02 5.490086e-02 6.137856e-02 6.763036e-02 7.382824e-02 7.980049e-02 8.574942e-02 9.147829e-02 9.721071e-02 1.027351e-01 1.082817e-01 1.136406e-01 1.190274e-01 1.242577e-01 1.295029e-01 1.346369e-01 1.397481e-01 1.448108e-01 1.497817e-01 1.547872e-01 1.595950e-01 1.645426e-01 1.691441e-01 1.740129e-01 1.783417e-01 1.830851e-01 1.870489e-01 1.915889e-01 1.950680e-01 1.992907e-01 2.021382e-01 2.058913e-01 2.079366e-01 2.110303e-01 2.120856e-01 2.142987e-01 2.141683e-01 2.152589e-01 2.137530e-01 2.134741e-01 2.104237e-01 2.085434e-01 2.038161e-01 2.001395e-01 1.936548e-01 1.880451e-01 1.797865e-01 1.721840e-01 1.622072e-01 1.526414e-01 1.410774e-01 1.296728e-01 1.167251e-01 1.036981e-01 8.963375e-02 7.528137e-02 6.041809e-02 4.509950e-02 2.978788e-02 1.390122e-02 -1.494785e-03 -1.753800e-02 -3.266095e-02 -4.846067e-02 -6.297794e-02 -7.816734e-02 -9.178612e-02 -1.060482e-01 -1.185263e-01 -1.316046e-01 -1.427559e-01 -1.544589e-01 -1.641549e-01 -1.743547e-01 -1.825213e-01 -1.911483e-01 -1.977593e-01 -2.047937e-01 -2.098631e-01 -2.153246e-01 -2.188972e-01 -2.228351e-01 -2.249776e-01 
-2.670075e-01 -2.678542e-01 -2.690910e-01 -2.684665e-01 -2.682016e-01 -2.662139e-01 -2.645497e-01 -2.613049e-01 -2.583419e-01 -2.539426e-01 -2.497787e-01 -2.443247e-01 -2.390569e-01 -2.326463e-01 -2.263726e-01 -2.191044e-01 -2.119267e-01 -2.039027e-01 -1.959292e-01 -1.872559e-01 -1.786024e-01 -1.693920e-01 -1.601819e-01 -1.505520e-01 -1.409153e-01 -1.309869e-01 -1.210573e-01 -1.109523e-01 -1.008629e-01 -9.070021e-02 -8.057937e-02 -7.047055e-02 -6.043630e-02 -5.048143e-02 -4.063726e-02 -3.092109e-02 -2.135212e-02 -1.194124e-02 -2.711801e-03 6.347034e-03 1.519436e-02 2.387443e-02 3.231836e-02 4.061191e-02 4.865061e-02 5.656652e-02 6.421480e-02 7.177533e-02 7.906120e-02 8.629825e-02 9.325926e-02 1.002103e-01 1.068900e-01 1.135939e-01 1.200386e-01 1.265323e-01 1.327881e-01 1.391025e-01 1.452130e-01 1.513701e-01 1.573732e-01 1.633825e-01 1.693079e-01 1.751632e-01 1.810283e-01 1.867038e-01 1.925090e-01 1.979553e-01 2.036779e-01 2.088182e-01 2.144055e-01 2.191322e-01 2.244945e-01 2.286664e-01 2.336714e-01 2.371141e-01 2.415829e-01 2.440926e-01 2.478008e-01 2.491511e-01 2.518351e-01 2.517894e-01 2.531594e-01 2.514865e-01 2.512452e-01 2.477382e-01 2.456055e-01 2.401014e-01 2.358406e-01 2.282391e-01 2.216833e-01 2.119617e-01 2.030366e-01 1.912603e-01 1.799994e-01 1.663252e-01 1.528769e-01 1.375497e-01 1.221733e-01 1.055157e-01 8.856767e-02 7.096310e-02 5.287469e-02 3.474599e-02 1.599460e-02 -2.220102e-03 -2.114204e-02 -3.901377e-02 -5.762908e-02 -7.476033e-02 -9.263330e-02 -1.086762e-01 -1.254325e-01 -1.401016e-01 -1.554407e-01 -1.685194e-01 -1.822192e-01 -1.935608e-01 -2.054759e-01 -2.149990e-01 -2.250535e-01 -2.327340e-01 -2.409107e-01 -2.467718e-01 -2.530998e-01 -2.572005e-01 -2.617425e-01 -2.641667e-01 
-3.075101e-01 -3.084331e-01 -3.097798e-01 -3.090161e-01 -3.086419e-01 -3.063166e-01 -3.043409e-01 -3.005760e-01 -2.971143e-01 -2.920268e-01 -2.871908e-01 -2.808935e-01 -2.747928e-01 -2.673965e-01 -2.601417e-01 -2.517580e-01 -2.434642e-01 -2.342087e-01 -2.249987e-01 -2.149928e-01 -2.049990e-01 -1.943717e-01 -1.837362e-01 -1.726237e-01 -1.614972e-01 -1.500406e-01 -1.385788e-01 -1.269210e-01 -1.152798e-01 -1.035608e-01 -9.189074e-02 -8.024225e-02 -6.868193e-02 -5.722223e-02 -4.589324e-02 -3.472249e-02 -2.372460e-02 -1.292128e-02 -2.329549e-03 8.051602e-03 1.818802e-02 2.811632e-02 3.777356e-02 4.724112e-02 5.641838e-02 6.543727e-02 7.415339e-02 8.275178e-02 9.104110e-02 9.925867e-02 1.071667e-01 1.150498e-01 1.226290e-01 1.302260e-01 1.375321e-01 1.448887e-01 1.519776e-01 1.591332e-01 1.660580e-01 1.730414e-01 1.798496e-01 1.866755e-01 1.934057e-01 2.000709e-01 2.067486e-01 2.132274e-01 2.198592e-01 2.260989e-01 2.326656e-01 2.385814e-01 2.450291e-01 2.505000e-01 2.567313e-01 2.615965e-01 2.674628e-01 2.715213e-01 2.768173e-01 2.798317e-01 2.842955e-01 2.859998e-01 2.893195e-01 2.894334e-01 2.912620e-01 2.895094e-01 2.894879e-01 2.856193e-01 2.834054e-01 2.772219e-01 2.725235e-01 2.638992e-01 2.565066e-01 2.454073e-01 2.352216e-01 2.217174e-01 2.087702e-01 1.930398e-01 1.775019e-01 1.598293e-01 1.420062e-01 1.227683e-01 1.030836e-01 8.273009e-02 6.169782e-02 4.072575e-02 1.891513e-02 -2.160145e-03 -2.416285e-02 -4.483706e-02 -6.646559e-02 -8.627232e-02 -1.070122e-01 -1.255447e-01 -1.449570e-01 -1.618830e-01 -1.796186e-01 -1.946884e-01 -2.104931e-01 -2.235395e-01 -2.372509e-01 -2.481840e-01 -2.597219e-01 -2.685193e-01 -2.778723e-01 -2.845662e-01 -2.917762e-01 -2.964398e-01 -3.015870e-01 -3.043215e-01 
-3.487348e-01 -3.496458e-01 -3.510647e-01 -3.500799e-01 -3.495658e-01 -3.468299e-01 -3.445188e-01 -3.401709e-01 -3.361927e-01 -3.303648e-01 -3.248438e-01 -3.176618e-01 -3.107190e-01 -3.023059e-01 -2.940635e-01 -2.845430e-01 -2.751284e-01 -2.646286e-01 -2.541787e-01 -2.428354e-01 -2.314988e-01 -2.194568e-01 -2.073947e-01 -1.948079e-01 -1.821919e-01 -1.692207e-01 -1.562291e-01 -1.430363e-01 -1.298483e-01 -1.165938e-01 -1.033821e-01 -9.021630e-02 -7.714039e-02 -6.419804e-02 -5.139700e-02 -3.879173e-02 -2.637905e-02 -1.419916e-02 -2.259242e-03 9.434703e-03 2.084785e-02 3.202327e-02 4.288515e-02 5.353581e-02 6.384861e-02 7.399118e-02 8.377954e-02 9.344893e-02 1.027549e-01 1.119988e-01 1.208766e-01 1.297499e-01 1.382611e-01 1.468204e-01 1.550294e-01 1.633281e-01 1.712991e-01 1.793829e-01 1.871765e-01 1.950793e-01 2.027499e-01 2.104900e-01 2.180824e-01 2.256579e-01 2.332028e-01 2.405873e-01 2.480951e-01 2.552314e-01 2.626842e-01 2.694791e-01 2.768201e-01 2.831380e-01 2.902613e-01 2.959201e-01 3.026600e-01 3.074293e-01 3.135537e-01 3.171584e-01 3.223673e-01 3.244963e-01 3.284291e-01 3.287518e-01 3.310041e-01 3.291926e-01 3.293428e-01 3.250988e-01 3.227429e-01 3.158268e-01 3.106177e-01 3.008756e-01 2.925625e-01 2.799491e-01 2.684110e-01 2.530044e-01 2.382741e-01 2.202818e-01 2.025563e-01 1.823105e-01 1.619459e-01 1.398886e-01 1.173800e-01 9.403946e-02 6.998779e-02 4.594724e-02 2.101717e-02 -3.119924e-03 -2.824569e-02 -5.189098e-02 -7.655573e-02 -9.916794e-02 -1.227784e-01 -1.438890e-01 -1.659429e-01 -1.851733e-01 -2.052755e-01 -2.223455e-01 -2.402129e-01 -2.549402e-01 -2.703970e-01 -2.826896e-01 -2.956552e-01 -3.054990e-01 -3.159714e-01 -3.234145e-01 -3.314517e-01 -3.365879e-01 -3.422897e-01 -3.452431e-01 
-3.912133e-01 -3.921416e-01 -3.936055e-01 -3.924214e-01 -3.917335e-01 -3.886009e-01 -3.859156e-01 -3.809902e-01 -3.764526e-01 -3.698799e-01 -3.636269e-01 -3.555450e-01 -3.477085e-01 -3.382512e-01 -3.289639e-01 -3.182659e-01 -3.076669e-01 -2.958685e-01 -2.841079e-01 -2.713594e-01 -2.586023e-01 -2.450655e-01 -2.314925e-01 -2.173410e-01 -2.031463e-01 -1.885629e-01 -1.739496e-01 -1.591208e-01 -1.442941e-01 -1.294041e-01 -1.145624e-01 -9.978511e-02 -8.511174e-02 -7.060314e-02 -5.625799e-02 -4.214951e-02 -2.826261e-02 -1.465596e-02 -1.323337e-03 1.171236e-02 2.443021e-02 3.685886e-02 4.893585e-02 6.075240e-02 7.219343e-02 8.341981e-02 9.425564e-02 1.049352e-01 1.152165e-01 1.254074e-01 1.351986e-01 1.449676e-01 1.543411e-01 1.637568e-01 1.727886e-01 1.819159e-01 1.906815e-01 1.995769e-01 2.081485e-01 2.168552e-01 2.252987e-01 2.338427e-01 2.422148e-01 2.505999e-01 2.589430e-01 2.671455e-01 2.754810e-01 2.834435e-01 2.917620e-01 2.993860e-01 3.076353e-01 3.147739e-01 3.228454e-01 3.292973e-01 3.370126e-01 3.425195e-01 3.496205e-01 3.538695e-01 3.600152e-01 3.626487e-01 3.674219e-01 3.680559e-01 3.709819e-01 3.692315e-01 3.698095e-01 3.653213e-01 3.630660e-01 3.555519e-01 3.500412e-01 3.393115e-01 3.302345e-01 3.162248e-01 3.034239e-01 2.862135e-01 2.697138e-01 2.495334e-01 2.295560e-01 2.067824e-01 1.837391e-01 1.588782e-01 1.333469e-01 1.070064e-01 7.969104e-02 5.254327e-02 2.422250e-02 -3.036391e-03 -3.156465e-02 -5.825670e-02 -8.622825e-02 -1.117315e-01 -1.384605e-01 -1.622390e-01 -1.871502e-01 -2.087744e-01 -2.314211e-01 -2.505766e-01 -2.706453e-01 -2.871320e-01 -3.044349e-01 -3.181572e-01 -3.326172e-01 -3.435688e-01 -3.551982e-01 -3.634432e-01 -3.723216e-01 -3.779749e-01 -3.842272e-01 -3.874361e-01 
-4.345776e-01 -4.354066e-01 -4.368677e-01 -4.353777e-01 -4.344781e-01 -4.308551e-01 -4.277669e-01 -4.221841e-01 -4.170665e-01 -4.096839e-01 -4.026845e-01 -3.936516e-01 -3.849118e-01 -3.743725e-01 -3.640340e-01 -3.521329e-01 -3.403446e-01 -3.272333e-01 -3.141583e-01 -3.000000e-01 -2.858194e-01 -2.707920e-01 -2.557061e-01 -2.400021e-01 -2.242284e-01 -2.080515e-01 -1.918189e-01 -1.753786e-01 -1.589189e-01 -1.424222e-01 -1.259602e-01 -1.096026e-01 -9.334577e-02 -7.730222e-02 -6.143065e-02 -4.584787e-02 -3.050690e-02 -1.549721e-02 -7.926024e-04 1.356925e-02 2.757294e-02 4.125019e-02 5.452802e-02 6.751934e-02 8.008173e-02 9.241626e-02 1.043027e-01 1.160334e-01 1.273052e-01 1.385012e-01 1.492341e-01 1.599731e-01 1.702510e-01 1.806122e-01 1.905213e-01 2.005792e-01 2.102045e-01 2.200235e-01 2.294457e-01 2.390759e-01 2.483691e-01 2.578416e-01 2.670701e-01 2.763925e-01 2.856067e-01 2.947570e-01 3.039855e-01 3.129052e-01 3.221447e-01 3.307296e-01 3.399304e-01 3.480218e-01 3.570716e-01 3.644476e-01 3.731546e-01 3.795256e-01 3.876055e-01 3.926158e-01 3.996862e-01 4.029241e-01 4.085103e-01 4.095290e-01 4.130852e-01 4.114330e-01 4.123784e-01 4.076369e-01 4.054045e-01 3.972300e-01 3.913233e-01 3.794860e-01 3.695360e-01 3.539528e-01 3.397683e-01 3.205245e-01 3.021272e-01 2.794851e-01 2.571257e-01 2.315196e-01 2.056712e-01 1.776865e-01 1.490161e-01 1.193566e-01 8.867677e-02 5.812105e-02 2.632966e-02 -4.318228e-03 -3.630429e-02 -6.626461e-02 -9.757170e-02 -1.261337e-01 -1.559835e-01 -1.825406e-01 -2.102867e-01 -2.343591e-01 -2.595070e-01 -2.807510e-01 -3.029614e-01 -3.211665e-01 -3.402453e-01 -3.553217e-01 -3.712001e-01 -3.831591e-01 -3.958689e-01 -4.048001e-01 -4.144465e-01 -4.204942e-01 -4.272305e-01 -4.305725e-01 
-4.795109e-01 -4.802763e-01 -4.816959e-01 -4.799272e-01 -4.787710e-01 -4.746757e-01 -4.711356e-01 -4.649038e-01 -4.591535e-01 -4.509578e-01 -4.431556e-01 -4.331552e-01 -4.234503e-01 -4.117972e-01 -4.003386e-01 -3.871857e-01 -3.741311e-01 -3.596399e-01 -3.451638e-01 -3.295107e-01 -3.138098e-01 -2.971899e-01 -2.804851e-01 -2.631121e-01 -2.456461e-01 -2.277490e-01 -2.097792e-01 -1.915953e-01 -1.733843e-01 -1.551495e-01 -1.369528e-01 -1.188907e-01 -1.009442e-01 -8.325520e-02 -6.576365e-02 -4.861556e-02 -3.174339e-02 -1.526407e-02 8.701967e-04 1.659680e-02 3.192244e-02 4.685677e-02 6.134885e-02 7.549275e-02 8.916692e-02 1.025577e-01 1.154627e-01 1.281652e-01 1.403740e-01 1.524718e-01 1.640735e-01 1.756597e-01 1.867515e-01 1.979208e-01 2.086025e-01 2.194440e-01 2.298139e-01 2.404056e-01 2.505576e-01 2.609617e-01 2.709838e-01 2.812419e-01 2.912133e-01 3.013419e-01 3.113289e-01 3.213128e-01 3.313611e-01 3.411451e-01 3.512674e-01 3.607465e-01 3.709060e-01 3.799136e-01 3.900036e-01 3.983005e-01 4.081229e-01 4.153908e-01 4.246378e-01 4.304787e-01 4.387236e-01 4.426700e-01 4.493714e-01 4.509096e-01 4.554338e-01 4.540388e-01 4.557015e-01 4.508814e-01 4.490065e-01 4.403514e-01 4.343389e-01 4.215681e-01 4.109640e-01 3.939646e-01 3.785227e-01 3.573763e-01 3.371020e-01 3.120955e-01 2.872662e-01 2.588860e-01 2.300439e-01 1.989532e-01 1.668710e-01 1.338713e-01 9.949408e-02 6.547463e-02 2.984584e-02 -4.274718e-03 -4.009242e-02 -7.342457e-02 -1.084245e-01 -1.401605e-01 -1.734533e-01 -2.029081e-01 -2.337642e-01 -2.604013e-01 -2.882721e-01 -3.117139e-01 -3.362336e-01 -3.562564e-01 -3.772278e-01 -3.937457e-01 -4.111150e-01 -4.241569e-01 -4.379828e-01 -4.476642e-01 -4.580857e-01 -4.645815e-01 -4.717876e-01 -4.753070e-01 
-5.254780e-01 -5.260309e-01 -5.273510e-01 -5.251697e-01 -5.237124e-01 -5.190287e-01 -5.150045e-01 -5.080266e-01 -5.016218e-01 -4.925350e-01 -4.839160e-01 -4.728882e-01 -4.622098e-01 -4.493996e-01 -4.368157e-01 -4.223826e-01 -4.080577e-01 -3.921716e-01 -3.762905e-01 -3.591393e-01 -3.419143e-01 -3.237091e-01 -3.053820e-01 -2.863569e-01 -2.671966e-01 -2.476048e-01 -2.278990e-01 -2.080043e-01 -1.880479e-01 -1.681135e-01 -1.481939e-01 -1.284693e-01 -1.088513e-01 -8.955976e-02 -7.047208e-02 -5.179927e-02 -3.342398e-02 -1.550953e-02 2.024623e-03 1.909147e-02 3.571090e-02 5.189167e-02 6.757529e-02 8.287847e-02 9.765113e-02 1.121250e-01 1.260482e-01 1.397712e-01 1.529330e-01 1.660034e-01 1.785076e-01 1.910332e-01 2.029911e-01 2.150798e-01 2.266036e-01 2.383562e-01 2.495546e-01 2.610589e-01 2.720353e-01 2.833617e-01 2.942126e-01 3.054100e-01 3.162243e-01 3.273153e-01 3.381698e-01 3.491448e-01 3.600973e-01 3.709045e-01 3.819803e-01 3.925142e-01 4.036871e-01 4.137737e-01 4.249417e-01 4.343243e-01 4.452827e-01 4.536109e-01 4.640289e-01 4.708561e-01 4.802625e-01 4.850558e-01 4.928412e-01 4.950068e-01 5.004480e-01 4.993726e-01 5.016804e-01 4.967845e-01 4.951720e-01 4.859686e-01 4.797326e-01 4.658833e-01 4.544872e-01 4.358492e-01 4.189957e-01 3.956526e-01 3.733367e-01 3.456116e-01 3.181441e-01 2.865930e-01 2.545932e-01 2.199780e-01 1.843324e-01 1.475758e-01 1.093700e-01 7.149524e-02 3.192577e-02 -6.012793e-03 -4.573237e-02 -8.271879e-02 -1.214460e-01 -1.565649e-01 -1.932996e-01 -2.257836e-01 -2.597157e-01 -2.889742e-01 -3.195065e-01 -3.451352e-01 -3.718823e-01 -3.936554e-01 -4.164242e-01 -4.342734e-01 -4.530325e-01 -4.670173e-01 -4.818590e-01 -4.921337e-01 -5.032361e-01 -5.100174e-01 -5.176092e-01 -5.211468e-01 
-5.733477e-01 -5.737300e-01 -5.748966e-01 -5.723359e-01 -5.705193e-01 -5.652711e-01 -5.607025e-01 -5.529916e-01 -5.458703e-01 -5.358924e-01 -5.263917e-01 -5.143206e-01 -5.025984e-01 -4.885966e-01 -4.748090e-01 -4.590397e-01 -4.433551e-01 -4.259945e-01 -4.086062e-01 -3.898534e-01 -3.709880e-01 -3.510710e-01 -3.309921e-01 -3.101686e-01 -2.891736e-01 -2.677258e-01 -2.461368e-01 -2.243619e-01 -2.025111e-01 -1.807077e-01 -1.589201e-01 -1.373725e-01 -1.159480e-01 -9.491072e-02 -7.410804e-02 -5.379228e-02 -3.381601e-02 -1.437980e-02 4.627198e-03 2.308463e-02 4.104333e-02 5.848192e-02 7.537375e-02 9.180807e-02 1.076669e-01 1.231576e-01 1.380587e-01 1.527010e-01 1.667484e-01 1.806600e-01 1.939747e-01 2.072834e-01 2.199934e-01 2.328270e-01 2.450600e-01 2.575376e-01 2.694173e-01 2.816432e-01 2.932874e-01 3.053471e-01 3.168680e-01 3.288239e-01 3.403280e-01 3.522153e-01 3.638005e-01 3.756207e-01 3.873690e-01 3.990797e-01 4.110426e-01 4.225435e-01 4.347199e-01 4.458354e-01 4.581419e-01 4.686023e-01 4.808393e-01 4.902660e-01 5.020858e-01 5.099853e-01 5.208709e-01 5.266433e-01 5.359066e-01 5.388734e-01 5.456799e-01 5.451313e-01 5.485552e-01 5.438123e-01 5.429176e-01 5.334020e-01 5.273409e-01 5.126419e-01 5.007562e-01 4.806861e-01 4.625968e-01 4.372283e-01 4.129008e-01 3.825829e-01 3.523581e-01 3.177092e-01 2.822948e-01 2.441735e-01 2.045948e-01 1.640474e-01 1.215645e-01 7.975476e-02 3.575561e-02 -6.116384e-03 -5.022968e-02 -9.101018e-02 -1.339271e-01 -1.725815e-01 -2.131669e-01 -2.488349e-01 -2.861837e-01 -3.182121e-01 -3.516721e-01 -3.796242e-01 -4.087917e-01 -4.324364e-01 -4.571295e-01 -4.764146e-01 -4.966342e-01 -5.116507e-01 -5.275340e-01 -5.384766e-01 -5.502521e-01 -5.573811e-01 -5.653275e-01 -5.689349e-01 
-6.223753e-01 -6.224012e-01 -6.233463e-01 -6.202420e-01 -6.180162e-01 -6.120639e-01 -6.069171e-01 -5.983588e-01 -5.905004e-01 -5.795414e-01 -5.691480e-01 -5.559664e-01 -5.431954e-01 -5.279549e-01 -5.129613e-01 -4.958264e-01 -4.787799e-01 -4.599309e-01 -4.410315e-01 -4.206766e-01 -4.001651e-01 -3.785480e-01 -3.567109e-01 -3.341116e-01 -3.112768e-01 -2.880062e-01 -2.645325e-01 -2.409201e-01 -2.171797e-01 -1.935579e-01 -1.699156e-01 -1.466008e-01 -1.233926e-01 -1.006674e-01 -7.818129e-02 -5.627857e-02 -3.473985e-02 -1.383110e-02 6.606581e-03 2.641731e-02 4.567398e-02 6.435025e-02 8.241516e-02 9.998240e-02 1.169040e-01 1.334390e-01 1.493115e-01 1.649288e-01 1.798766e-01 1.947139e-01 2.088778e-01 2.230819e-01 2.366075e-01 2.503228e-01 2.633521e-01 2.767114e-01 2.893793e-01 3.024983e-01 3.149317e-01 3.279053e-01 3.402251e-01 3.531245e-01 3.654473e-01 3.783169e-01 3.907539e-01 4.036052e-01 4.162561e-01 4.290565e-01 4.419947e-01 4.546516e-01 4.678986e-01 4.802372e-01 4.937277e-01 5.054673e-01 5.190077e-01 5.297396e-01 5.429668e-01 5.521433e-01 5.644951e-01 5.714366e-01 5.821445e-01 5.860694e-01 5.941849e-01 5.942651e-01 5.987220e-01 5.941580e-01 5.938684e-01 5.839737e-01 5.779446e-01 5.622261e-01 5.496800e-01 5.279040e-01 5.083856e-01 4.806211e-01 4.540739e-01 4.207113e-01 3.875151e-01 3.492584e-01 3.102192e-01 2.680518e-01 2.243450e-01 1.794688e-01 1.325403e-01 8.629210e-02 3.773133e-02 -8.514123e-03 -5.710896e-02 -1.020375e-01 -1.491839e-01 -1.916279e-01 -2.360564e-01 -2.750586e-01 -3.157731e-01 -3.506226e-01 -3.869240e-01 -4.171637e-01 -4.486394e-01 -4.740492e-01 -5.005392e-01 -5.211016e-01 -5.426488e-01 -5.585049e-01 -5.753001e-01 -5.867019e-01 -5.990311e-01 -6.062964e-01 -6.144931e-01 -6.179675e-01 
-6.736568e-01 -6.733740e-01 -6.740243e-01 -6.704159e-01 -6.677075e-01 -6.610816e-01 -6.552851e-01 -6.458992e-01 -6.372336e-01 -6.252996e-01 -6.139423e-01 -5.996382e-01 -5.857425e-01 -5.692287e-01 -5.529437e-01 -5.343817e-01 -5.158741e-01 -4.954450e-01 -4.749177e-01 -4.528374e-01 -4.305437e-01 -4.070723e-01 -3.833217e-01 -3.587653e-01 -3.339194e-01 -3.086236e-01 -2.830831e-01 -2.574188e-01 -2.316028e-01 -2.059468e-01 -1.802679e-01 -1.549803e-01 -1.298189e-01 -1.052219e-01 -8.090318e-02 -5.726152e-02 -3.403787e-02 -1.154516e-02 1.041405e-02 3.164287e-02 5.225367e-02 7.218250e-02 9.144064e-02 1.101053e-01 1.280740e-01 1.455696e-01 1.623630e-01 1.788277e-01 1.945927e-01 2.101903e-01 2.250899e-01 2.399936e-01 2.541936e-01 2.685723e-01 2.822326e-01 2.962416e-01 3.095128e-01 3.232874e-01 3.363111e-01 3.499637e-01 3.628768e-01 3.764950e-01 3.894337e-01 4.030783e-01 4.161796e-01 4.298786e-01 4.432750e-01 4.570128e-01 4.708171e-01 4.845157e-01 4.987923e-01 5.122853e-01 5.270078e-01 5.400100e-01 5.550090e-01 5.670879e-01 5.819972e-01 5.925546e-01 6.067690e-01 6.150448e-01 6.277045e-01 6.328086e-01 6.428234e-01 6.437989e-01 6.499200e-01 6.458315e-01 6.467648e-01 6.367985e-01 6.313469e-01 6.149072e-01 6.021179e-01 5.789051e-01 5.582014e-01 5.282631e-01 4.995398e-01 4.632934e-01 4.269639e-01 3.851895e-01 3.421758e-01 2.959789e-01 2.476429e-01 1.983846e-01 1.464078e-01 9.560798e-02 4.183688e-02 -8.940805e-03 -6.265926e-02 -1.119236e-01 -1.638914e-01 -2.103254e-01 -2.591074e-01 -3.016427e-01 -3.461351e-01 -3.839922e-01 -4.234442e-01 -4.561384e-01 -4.901345e-01 -5.174537e-01 -5.458673e-01 -5.678286e-01 -5.907606e-01 -6.075570e-01 -6.252688e-01 -6.372124e-01 -6.500628e-01 -6.575330e-01 -6.659240e-01 -6.693225e-01 