# vtk DataFile Version 2.0
fMag
ASCII
DATASET UNSTRUCTURED_GRID

FIELD FieldData 1
TIME 1 1 double
0.04000000
POINTS 64 float
7.619615293737692e-01 5.000000000000000e-01 0.000000000000000e+00
7.613807041270833e-01 5.253905475739159e-01 0.000000000000000e+00
7.597097878838400e-01 5.508591356588128e-01 0.000000000000000e+00
7.566244206753833e-01 5.763678446632114e-01 0.000000000000000e+00
7.520661117357001e-01 6.018539877408652e-01 0.000000000000000e+00
7.459183027644031e-01 6.272755743239492e-01 0.000000000000000e+00
7.378107447256932e-01 6.524477269332780e-01 0.000000000000000e+00
7.270953339485627e-01 6.769431313243097e-01 0.000000000000000e+00
7.132961045690377e-01 6.999475083194947e-01 0.000000000000000e+00
6.963943548824898e-01 7.207664135080032e-01 0.000000000000000e+00
6.760661137152518e-01 7.387863747474406e-01 0.000000000000000e+00
6.526669035886294e-01 7.536128373086818e-01 0.000000000000000e+00
6.258550454040570e-01 7.655714062384855e-01 0.000000000000000e+00
5.960959392686562e-01 7.746024088044069e-01 0.000000000000000e+00
5.642445443937220e-01 7.809642724906192e-01 0.000000000000000e+00
5.319578080245463e-01 7.846287258960117e-01 0.000000000000000e+00
5.000000000000000e-01 7.857919809332312e-01 0.000000000000000e+00
4.680421919754539e-01 7.846287258960116e-01 0.000000000000000e+00
4.357554556062781e-01 7.809642724906192e-01 0.000000000000000e+00
4.039040607313437e-01 7.746024088044068e-01 0.000000000000000e+00
3.741449545959429e-01 7.655714062384859e-01 0.000000000000000e+00
3.473330964113703e-01 7.536128373086820e-01 0.000000000000000e+00
3.239338862847486e-01 7.387863747474409e-01 0.000000000000000e+00
3.036056451175098e-01 7.207664135080031e-01 0.000000000000000e+00
2.867038954309624e-01 6.999475083194946e-01 0.000000000000000e+00
2.729046660514372e-01 6.769431313243097e-01 0.000000000000000e+00
2.621892552743069e-01 6.524477269332782e-01 0.000000000000000e+00
2.540816972355970e-01 6.272755743239491e-01 0.000000000000000e+00
2.479338882642998e-01 6.018539877408654e-01 0.000000000000000e+00
2.433755793246170e-01 5.763678446632116e-01 0.000000000000000e+00
2.402902121161600e-01 5.508591356588129e-01 0.000000000000000e+00
2.386192958729167e-01 5.253905475739160e-01 0.000000000000000e+00
2.380384706262308e-01 5.000000000000000e-01 0.000000000000000e+00
2.386192958729166e-01 4.746094524260843e-01 0.000000000000000e+00
2.402902121161599e-01 4.491408643411872e-01 0.000000000000000e+00
2.433755793246169e-01 4.236321553367886e-01 0.000000000000000e+00
2.479338882642999e-01 3.981460122591349e-01 0.000000000000000e+00
2.540816972355970e-01 3.727244256760510e-01 0.000000000000000e+00
2.621892552743070e-01 3.475522730667218e-01 0.000000000000000e+00
2.729046660514373e-01 3.230568686756902e-01 0.000000000000000e+00
2.867038954309622e-01 3.000524916805055e-01 0.000000000000000e+00
3.036056451175099e-01 2.792335864919968e-01 0.000000000000000e+00
3.239338862847481e-01 2.612136252525591e-01 0.000000000000000e+00
3.473330964113703e-01 2.463871626913177e-01 0.000000000000000e+00
3.741449545959428e-01 2.344285937615145e-01 0.000000000000000e+00
4.039040607313437e-01 2.253975911955932e-01 0.000000000000000e+00
4.357554556062782e-01 2.190357275093808e-01 0.000000000000000e+00
4.680421919754537e-01 2.153712741039885e-01 0.000000000000000e+00
4.999999999999999e-01 2.142080190667687e-01 0.000000000000000e+00
5.319578080245462e-01 2.153712741039884e-01 0.000000000000000e+00
5.642445443937218e-01 2.190357275093807e-01 0.000000000000000e+00
5.960959392686560e-01 2.253975911955932e-01 0.000000000000000e+00
6.258550454040569e-01 2.344285937615145e-01 0.000000000000000e+00
6.526669035886293e-01 2.463871626913180e-01 0.000000000000000e+00
6.760661137152517e-01 2.612136252525595e-01 0.000000000000000e+00
6.963943548824897e-01 2.792335864919968e-01 0.000000000000000e+00
7.132961045690375e-01 3.000524916805057e-01 0.000000000000000e+00
7.270953339485626e-01 3.230568686756901e-01 0.000000000000000e+00
7.378107447256929e-01 3.475522730667219e-01 0.000000000000000e+00
7.459183027644032e-01 3.727244256760507e-01 0.000000000000000e+00
7.520661117357003e-01 3.981460122591348e-01 0.000000000000000e+00
7.566244206753833e-01 4.236321553367883e-01 0.000000000000000e+00
7.597097878838400e-01 4.491408643411872e-01 0.000000000000000e+00
7.613807041270833e-01 4.746094524260841e-01 0.000000000000000e+00

POINT_DATA   64
SCALARS fMag double
LOOKUP_TABLE default

2.785067e+01 
2.605147e+01 
3.396741e+01 
3.549029e+01 
3.876853e+01 
4.857824e+01 
6.588945e+01 
8.283351e+01 
9.360321e+01 
1.106635e+02 
1.124949e+02 
1.143415e+02 
1.064478e+02 
8.735006e+01 
7.171788e+01 
6.471118e+01 
5.889484e+01 
6.471118e+01 
7.171788e+01 
8.735006e+01 
1.064478e+02 
1.143415e+02 
1.124949e+02 
1.106635e+02 
9.360321e+01 
8.283351e+01 
6.588945e+01 
4.857824e+01 
3.876853e+01 
3.549029e+01 
3.396741e+01 
2.605147e+01 
2.785067e+01 
2.605147e+01 
3.396741e+01 
3.549029e+01 
3.876853e+01 
4.857824e+01 
6.588945e+01 
8.283351e+01 
9.360321e+01 
1.106635e+02 
1.124949e+02 
1.143415e+02 
1.064478e+02 
8.735006e+01 
7.171788e+01 
6.471118e+01 
5.889484e+01 
6.471118e+01 
7.171788e+01 
8.735006e+01 
1.064478e+02 
1.143415e+02 
1.124949e+02 
1.106635e+02 
9.360321e+01 
8.283351e+01 
6.588945e+01 
4.857824e+01 
3.876853e+01 
3.549029e+01 
3.396741e+01 
2.605147e+01 
