# vtk DataFile Version 2.0
fMag
ASCII
DATASET UNSTRUCTURED_GRID

FIELD FieldData 1
TIME 1 1 double
1.26000000
POINTS 64 float
7.143179909453867e-01 4.999999999999554e-01 0.000000000000000e+00
7.137647881391009e-01 5.233579202412919e-01 0.000000000000000e+00
7.111627249245143e-01 5.457991539448712e-01 0.000000000000000e+00
7.052668349614527e-01 5.705888203099188e-01 0.000000000000000e+00
7.009553548123370e-01 5.885744483655022e-01 0.000000000000000e+00
6.914385911981100e-01 6.122329555558277e-01 0.000000000000000e+00
6.816150797044389e-01 6.315155159201657e-01 0.000000000000000e+00
6.689201692138452e-01 6.516051015028637e-01 0.000000000000000e+00
6.554554456162024e-01 6.694349003739803e-01 0.000000000000000e+00
6.401041686178286e-01 6.856745684543040e-01 0.000000000000000e+00
6.223032085396631e-01 7.013079056610950e-01 0.000000000000000e+00
6.055994395669041e-01 7.129492941886707e-01 0.000000000000000e+00
5.837066348593126e-01 7.253453738257035e-01 0.000000000000000e+00
5.676168188004344e-01 7.304789219730463e-01 0.000000000000000e+00
5.441859195211805e-01 7.380101217128041e-01 0.000000000000000e+00
5.224059475390539e-01 7.415314703909156e-01 0.000000000000000e+00
5.000000000000477e-01 7.422424765702630e-01 0.000000000000000e+00
4.775940524610397e-01 7.415314703909253e-01 0.000000000000000e+00
4.558140804789238e-01 7.380101217128265e-01 0.000000000000000e+00
4.323831811996497e-01 7.304789219730675e-01 0.000000000000000e+00
4.162933651408074e-01 7.253453738257596e-01 0.000000000000000e+00
3.944005604332074e-01 7.129492941887300e-01 0.000000000000000e+00
3.776967914604454e-01 7.013079056611681e-01 0.000000000000000e+00
3.598958313822732e-01 6.856745684543846e-01 0.000000000000000e+00
3.445445543838893e-01 6.694349003740622e-01 0.000000000000000e+00
3.310798307862299e-01 6.516051015029455e-01 0.000000000000000e+00
3.183849202956391e-01 6.315155159202570e-01 0.000000000000000e+00
3.085614088019636e-01 6.122329555559357e-01 0.000000000000000e+00
2.990446451877155e-01 5.885744483655969e-01 0.000000000000000e+00
2.947331650386085e-01 5.705888203100341e-01 0.000000000000000e+00
2.888372750755406e-01 5.457991539449906e-01 0.000000000000000e+00
2.862352118609436e-01 5.233579202414075e-01 0.000000000000000e+00
2.856820090546496e-01 5.000000000000672e-01 0.000000000000000e+00
2.862352118609364e-01 4.766420797587270e-01 0.000000000000000e+00
2.888372750755251e-01 4.542008460551499e-01 0.000000000000000e+00
2.947331650385917e-01 4.294111796900954e-01 0.000000000000000e+00
2.990446451876938e-01 4.114255516345333e-01 0.000000000000000e+00
3.085614088019266e-01 3.877670444442041e-01 0.000000000000000e+00
3.183849202955998e-01 3.684844840798678e-01 0.000000000000000e+00
3.310798307861912e-01 3.483948984971710e-01 0.000000000000000e+00
3.445445543838392e-01 3.305650996260518e-01 0.000000000000000e+00
3.598958313822168e-01 3.143254315457253e-01 0.000000000000000e+00
3.776967914603783e-01 2.986920943389362e-01 0.000000000000000e+00
3.944005604331359e-01 2.870507058113659e-01 0.000000000000000e+00
4.162933651407298e-01 2.746546261743281e-01 0.000000000000000e+00
4.323831811995923e-01 2.695210780269969e-01 0.000000000000000e+00
4.558140804788521e-01 2.619898782872371e-01 0.000000000000000e+00
4.775940524609746e-01 2.584685296091251e-01 0.000000000000000e+00
4.999999999999825e-01 2.577575234297768e-01 0.000000000000000e+00
5.224059475389897e-01 2.584685296091149e-01 0.000000000000000e+00
5.441859195211092e-01 2.619898782872143e-01 0.000000000000000e+00
5.676168188003775e-01 2.695210780269671e-01 0.000000000000000e+00
5.837066348592331e-01 2.746546261742842e-01 0.000000000000000e+00
6.055994395668347e-01 2.870507058113129e-01 0.000000000000000e+00
6.223032085395959e-01 2.986920943388752e-01 0.000000000000000e+00
6.401041686177656e-01 3.143254315456564e-01 0.000000000000000e+00
6.554554456161488e-01 3.305650996259776e-01 0.000000000000000e+00
6.689201692138057e-01 3.483948984970919e-01 0.000000000000000e+00
6.816150797044003e-01 3.684844840797832e-01 0.000000000000000e+00
6.914385911980739e-01 3.877670444441053e-01 0.000000000000000e+00
7.009553548123230e-01 4.114255516344431e-01 0.000000000000000e+00
7.052668349614226e-01 4.294111796899897e-01 0.000000000000000e+00
7.111627249244941e-01 4.542008460550362e-01 0.000000000000000e+00
7.137647881390921e-01 4.766420797586149e-01 0.000000000000000e+00

POINT_DATA   64
SCALARS fMag double
LOOKUP_TABLE default

2.768387e+01 
5.598760e+01 
1.010494e+02 
1.746486e+02 
1.923256e+02 
1.095042e+02 
7.453338e+01 
5.984622e+01 
6.179127e+01 
6.316827e+01 
1.038205e+02 
1.311578e+02 
2.319355e+02 
1.920986e+02 
1.082154e+02 
7.226442e+01 
3.600045e+01 
7.226442e+01 
1.082154e+02 
1.920986e+02 
2.319355e+02 
1.311578e+02 
1.038205e+02 
6.316827e+01 
6.179127e+01 
5.984622e+01 
7.453338e+01 
1.095042e+02 
1.923256e+02 
1.746486e+02 
1.010494e+02 
5.598760e+01 
2.768387e+01 
5.598760e+01 
1.010494e+02 
1.746486e+02 
1.923256e+02 
1.095042e+02 
7.453338e+01 
5.984622e+01 
6.179127e+01 
6.316827e+01 
1.038205e+02 
1.311578e+02 
2.319355e+02 
1.920986e+02 
1.082154e+02 
7.226442e+01 
3.600045e+01 
7.226442e+01 
1.082154e+02 
1.920986e+02 
2.319355e+02 
1.311578e+02 
1.038205e+02 
6.316827e+01 
6.179127e+01 
5.984622e+01 
7.453338e+01 
1.095042e+02 
1.923256e+02 
1.746486e+02 
1.010494e+02 
5.598760e+01 
