# vtk DataFile Version 2.0
fMag
ASCII
DATASET UNSTRUCTURED_GRID

FIELD FieldData 1
TIME 1 1 double
1.16000000
POINTS 64 float
7.496321069049268e-01 4.999999999999870e-01 0.000000000000000e+00
7.484310189206235e-01 5.228703173782602e-01 0.000000000000000e+00
7.447393067778368e-01 5.451111539771668e-01 0.000000000000000e+00
7.376980487211712e-01 5.682349954592907e-01 0.000000000000000e+00
7.302075623246419e-01 5.876321397833162e-01 0.000000000000000e+00
7.177801573956391e-01 6.091690907207803e-01 0.000000000000000e+00
7.059553106816636e-01 6.262988590002083e-01 0.000000000000000e+00
6.898700735449016e-01 6.442106217711394e-01 0.000000000000000e+00
6.729194783475055e-01 6.597105375437315e-01 0.000000000000000e+00
6.549812802317526e-01 6.732353133228225e-01 0.000000000000000e+00
6.341892680245351e-01 6.859809075603862e-01 0.000000000000000e+00
6.143119185130490e-01 6.958949482144722e-01 0.000000000000000e+00
5.905425416975372e-01 7.054605729946262e-01 0.000000000000000e+00
5.719423850842127e-01 7.099326776277830e-01 0.000000000000000e+00
5.470593379917950e-01 7.158112964929236e-01 0.000000000000000e+00
5.241583106070753e-01 7.185284790484113e-01 0.000000000000000e+00
5.000000000000113e-01 7.190578057388916e-01 0.000000000000000e+00
4.758416893929417e-01 7.185284790484139e-01 0.000000000000000e+00
4.529406620082244e-01 7.158112964929227e-01 0.000000000000000e+00
4.280576149158001e-01 7.099326776277801e-01 0.000000000000000e+00
4.094574583025070e-01 7.054605729946474e-01 0.000000000000000e+00
3.856880814869841e-01 6.958949482144839e-01 0.000000000000000e+00
3.658107319755048e-01 6.859809075604059e-01 0.000000000000000e+00
3.450187197682830e-01 6.732353133228424e-01 0.000000000000000e+00
3.270805216525307e-01 6.597105375437514e-01 0.000000000000000e+00
3.101299264551303e-01 6.442106217711608e-01 0.000000000000000e+00
2.940446893183689e-01 6.262988590002331e-01 0.000000000000000e+00
2.822198426043940e-01 6.091690907208109e-01 0.000000000000000e+00
2.697924376753815e-01 5.876321397833416e-01 0.000000000000000e+00
2.623019512788586e-01 5.682349954593281e-01 0.000000000000000e+00
2.552606932221874e-01 5.451111539772030e-01 0.000000000000000e+00
2.515689810793963e-01 5.228703173782977e-01 0.000000000000000e+00
2.503678930950893e-01 5.000000000000223e-01 0.000000000000000e+00
2.515689810793918e-01 4.771296826217491e-01 0.000000000000000e+00
2.552606932221791e-01 4.548888460228441e-01 0.000000000000000e+00
2.623019512788483e-01 4.317650045407156e-01 0.000000000000000e+00
2.697924376753691e-01 4.123678602167006e-01 0.000000000000000e+00
2.822198426043770e-01 3.908309092792321e-01 0.000000000000000e+00
2.940446893183508e-01 3.737011409998068e-01 0.000000000000000e+00
3.101299264551115e-01 3.557893782288770e-01 0.000000000000000e+00
3.270805216525079e-01 3.402894624562857e-01 0.000000000000000e+00
3.450187197682623e-01 3.267646866771933e-01 0.000000000000000e+00
3.658107319754825e-01 3.140190924396282e-01 0.000000000000000e+00
3.856880814869655e-01 3.041050517855444e-01 0.000000000000000e+00
4.094574583024824e-01 2.945394270053861e-01 0.000000000000000e+00
4.280576149157923e-01 2.900673223722397e-01 0.000000000000000e+00
4.529406620082127e-01 2.841887035070966e-01 0.000000000000000e+00
4.758416893929309e-01 2.814715209516066e-01 0.000000000000000e+00
4.999999999999982e-01 2.809421942611257e-01 0.000000000000000e+00
5.241583106070646e-01 2.814715209516037e-01 0.000000000000000e+00
5.470593379917834e-01 2.841887035070931e-01 0.000000000000000e+00
5.719423850842054e-01 2.900673223722345e-01 0.000000000000000e+00
5.905425416975086e-01 2.945394270053742e-01 0.000000000000000e+00
6.143119185130288e-01 3.041050517855332e-01 0.000000000000000e+00
6.341892680245108e-01 3.140190924396137e-01 0.000000000000000e+00
6.549812802317329e-01 3.267646866771763e-01 0.000000000000000e+00
6.729194783474874e-01 3.402894624562680e-01 0.000000000000000e+00
6.898700735448874e-01 3.557893782288578e-01 0.000000000000000e+00
7.059553106816489e-01 3.737011409997856e-01 0.000000000000000e+00
7.177801573956222e-01 3.908309092792050e-01 0.000000000000000e+00
7.302075623246381e-01 4.123678602166768e-01 0.000000000000000e+00
7.376980487211536e-01 4.317650045406807e-01 0.000000000000000e+00
7.447393067778287e-01 4.548888460228093e-01 0.000000000000000e+00
7.484310189206191e-01 4.771296826217130e-01 0.000000000000000e+00

POINT_DATA   64
SCALARS fMag double
LOOKUP_TABLE default

6.042837e+01 
6.428262e+01 
8.623623e+01 
9.354817e+01 
1.340480e+02 
1.109101e+02 
1.083658e+02 
6.402798e+01 
5.532435e+01 
7.426815e+01 
7.416755e+01 
9.778818e+01 
1.812617e+02 
1.607706e+02 
9.346864e+01 
6.312359e+01 
2.645366e+01 
6.312359e+01 
9.346864e+01 
1.607706e+02 
1.812617e+02 
9.778818e+01 
7.416755e+01 
7.426815e+01 
5.532435e+01 
6.402798e+01 
1.083658e+02 
1.109101e+02 
1.340480e+02 
9.354817e+01 
8.623623e+01 
6.428262e+01 
6.042837e+01 
6.428262e+01 
8.623623e+01 
9.354817e+01 
1.340480e+02 
1.109101e+02 
1.083658e+02 
6.402798e+01 
5.532435e+01 
7.426815e+01 
7.416755e+01 
9.778818e+01 
1.812617e+02 
1.607706e+02 
9.346864e+01 
6.312359e+01 
2.645366e+01 
6.312359e+01 
9.346864e+01 
1.607706e+02 
1.812617e+02 
9.778818e+01 
7.416755e+01 
7.426815e+01 
5.532435e+01 
6.402798e+01 
1.083658e+02 
1.109101e+02 
1.340480e+02 
9.354817e+01 
8.623623e+01 
6.428262e+01 
