# vtk DataFile Version 2.0
fMag
ASCII
DATASET UNSTRUCTURED_GRID

FIELD FieldData 1
TIME 1 1 double
0.86000000
POINTS 64 float
7.766134661233107e-01 5.000000000000044e-01 0.000000000000000e+00
7.749336838719455e-01 5.243963400961846e-01 0.000000000000000e+00
7.705242152902264e-01 5.482436546409371e-01 0.000000000000000e+00
7.632923349091677e-01 5.715280287699167e-01 0.000000000000000e+00
7.532948181273270e-01 5.939645885769381e-01 0.000000000000000e+00
7.406777212685182e-01 6.151454112361141e-01 0.000000000000000e+00
7.254815473185059e-01 6.349687810033653e-01 0.000000000000000e+00
7.090767728542848e-01 6.526680459933824e-01 0.000000000000000e+00
6.903414388765273e-01 6.688663981677664e-01 0.000000000000000e+00
6.700432682580669e-01 6.836128865514581e-01 0.000000000000000e+00
6.484387109008946e-01 6.956643422228067e-01 0.000000000000000e+00
6.257473948211982e-01 7.060936896227574e-01 0.000000000000000e+00
6.007551716652824e-01 7.154862494253750e-01 0.000000000000000e+00
5.765876659636950e-01 7.215918908326849e-01 0.000000000000000e+00
5.510704135991535e-01 7.264629037997139e-01 0.000000000000000e+00
5.257975927792736e-01 7.292449830796743e-01 0.000000000000000e+00
4.999999999999943e-01 7.298727686754828e-01 0.000000000000000e+00
4.742024072207133e-01 7.292449830796732e-01 0.000000000000000e+00
4.489295864008356e-01 7.264629037997131e-01 0.000000000000000e+00
4.234123340362916e-01 7.215918908326815e-01 0.000000000000000e+00
3.992448283347104e-01 7.154862494253754e-01 0.000000000000000e+00
3.742526051787886e-01 7.060936896227521e-01 0.000000000000000e+00
3.515612890990991e-01 6.956643422228054e-01 0.000000000000000e+00
3.299567317419258e-01 6.836128865514552e-01 0.000000000000000e+00
3.096585611234651e-01 6.688663981677625e-01 0.000000000000000e+00
2.909232271457080e-01 6.526680459933776e-01 0.000000000000000e+00
2.745184526814867e-01 6.349687810033600e-01 0.000000000000000e+00
2.593222787314762e-01 6.151454112361091e-01 0.000000000000000e+00
2.467051818726659e-01 5.939645885769312e-01 0.000000000000000e+00
2.367076650908277e-01 5.715280287699102e-01 0.000000000000000e+00
2.294757847097686e-01 5.482436546409305e-01 0.000000000000000e+00
2.250663161280498e-01 5.243963400961774e-01 0.000000000000000e+00
2.233865338766855e-01 4.999999999999980e-01 0.000000000000000e+00
2.250663161280507e-01 4.756036599038179e-01 0.000000000000000e+00
2.294757847097700e-01 4.517563453590654e-01 0.000000000000000e+00
2.367076650908297e-01 4.284719712300857e-01 0.000000000000000e+00
2.467051818726685e-01 4.060354114230651e-01 0.000000000000000e+00
2.593222787314794e-01 3.848545887638873e-01 0.000000000000000e+00
2.745184526814902e-01 3.650312189966374e-01 0.000000000000000e+00
2.909232271457118e-01 3.473319540066196e-01 0.000000000000000e+00
3.096585611234697e-01 3.311336018322359e-01 0.000000000000000e+00
3.299567317419301e-01 3.163871134485431e-01 0.000000000000000e+00
3.515612890991027e-01 3.043356577771946e-01 0.000000000000000e+00
3.742526051787969e-01 2.939063103772454e-01 0.000000000000000e+00
3.992448283347150e-01 2.845137505746258e-01 0.000000000000000e+00
4.234123340363000e-01 2.784081091673180e-01 0.000000000000000e+00
4.489295864008422e-01 2.735370962002884e-01 0.000000000000000e+00
4.742024072207224e-01 2.707550169203282e-01 0.000000000000000e+00
5.000000000000012e-01 2.701272313245203e-01 0.000000000000000e+00
5.257975927792828e-01 2.707550169203288e-01 0.000000000000000e+00
5.510704135991608e-01 2.735370962002896e-01 0.000000000000000e+00
5.765876659637040e-01 2.784081091673205e-01 0.000000000000000e+00
6.007551716652868e-01 2.845137505746272e-01 0.000000000000000e+00
6.257473948212071e-01 2.939063103772496e-01 0.000000000000000e+00
6.484387109008980e-01 3.043356577771971e-01 0.000000000000000e+00
6.700432682580706e-01 3.163871134485470e-01 0.000000000000000e+00
6.903414388765309e-01 3.311336018322401e-01 0.000000000000000e+00
7.090767728542882e-01 3.473319540066246e-01 0.000000000000000e+00
7.254815473185103e-01 3.650312189966435e-01 0.000000000000000e+00
7.406777212685187e-01 3.848545887638927e-01 0.000000000000000e+00
7.532948181273316e-01 4.060354114230723e-01 0.000000000000000e+00
7.632923349091681e-01 4.284719712300922e-01 0.000000000000000e+00
7.705242152902281e-01 4.517563453590722e-01 0.000000000000000e+00
7.749336838719468e-01 4.756036599038256e-01 0.000000000000000e+00

POINT_DATA   64
SCALARS fMag double
LOOKUP_TABLE default

8.356207e+01 
6.936449e+01 
7.216334e+01 
7.207336e+01 
7.231806e+01 
7.331079e+01 
6.083377e+01 
6.947422e+01 
5.354329e+01 
7.445884e+01 
4.853056e+01 
6.322992e+01 
8.514414e+01 
4.615946e+01 
5.272785e+01 
5.534296e+01 
3.118513e+01 
5.534296e+01 
5.272785e+01 
4.615946e+01 
8.514414e+01 
6.322992e+01 
4.853056e+01 
7.445884e+01 
5.354329e+01 
6.947422e+01 
6.083377e+01 
7.331079e+01 
7.231806e+01 
7.207336e+01 
7.216334e+01 
6.936449e+01 
8.356207e+01 
6.936449e+01 
7.216334e+01 
7.207336e+01 
7.231806e+01 
7.331079e+01 
6.083377e+01 
6.947422e+01 
5.354329e+01 
7.445884e+01 
4.853056e+01 
6.322992e+01 
8.514414e+01 
4.615946e+01 
5.272785e+01 
5.534296e+01 
3.118513e+01 
5.534296e+01 
5.272785e+01 
4.615946e+01 
8.514414e+01 
6.322992e+01 
4.853056e+01 
7.445884e+01 
5.354329e+01 
6.947422e+01 
6.083377e+01 
7.331079e+01 
7.231806e+01 
7.207336e+01 
7.216334e+01 
6.936449e+01 
