# vtk DataFile Version 2.0
fMag
ASCII
DATASET UNSTRUCTURED_GRID

FIELD FieldData 1
TIME 1 1 double
1.28000000
POINTS 64 float
7.237076569894175e-01 4.999999999999446e-01 0.000000000000000e+00
7.230384897886232e-01 5.231531802988876e-01 0.000000000000000e+00
7.200649855064838e-01 5.451162534063801e-01 0.000000000000000e+00
7.135493017552511e-01 5.692304106263778e-01 0.000000000000000e+00
7.086953395467979e-01 5.864482247395292e-01 0.000000000000000e+00
6.982176382515556e-01 6.092273357472180e-01 0.000000000000000e+00
6.875685311339724e-01 6.278901250466005e-01 0.000000000000000e+00
6.736530577204947e-01 6.471691212079690e-01 0.000000000000000e+00
6.593749396911173e-01 6.637789241332167e-01 0.000000000000000e+00
6.428546017061246e-01 6.792132861427783e-01 0.000000000000000e+00
6.244844180616383e-01 6.932714645085055e-01 0.000000000000000e+00
6.071895091254143e-01 7.038562981994317e-01 0.000000000000000e+00
5.846841813386142e-01 7.150957492664032e-01 0.000000000000000e+00
5.689814704612962e-01 7.191309623612008e-01 0.000000000000000e+00
5.447234386204992e-01 7.260888876465240e-01 0.000000000000000e+00
5.226336034345882e-01 7.291891980869663e-01 0.000000000000000e+00
5.000000000000642e-01 7.297342055623860e-01 0.000000000000000e+00
4.773663965655369e-01 7.291891980869747e-01 0.000000000000000e+00
4.552765613796418e-01 7.260888876465490e-01 0.000000000000000e+00
4.310185295388260e-01 7.191309623612265e-01 0.000000000000000e+00
4.153158186615470e-01 7.150957492664628e-01 0.000000000000000e+00
3.928104908747369e-01 7.038562981994996e-01 0.000000000000000e+00
3.755155819385098e-01 6.932714645085861e-01 0.000000000000000e+00
3.571453982940210e-01 6.792132861428737e-01 0.000000000000000e+00
3.406250603090145e-01 6.637789241333142e-01 0.000000000000000e+00
3.263469422796169e-01 6.471691212080679e-01 0.000000000000000e+00
3.124314688661423e-01 6.278901250467110e-01 0.000000000000000e+00
3.017823617485450e-01 6.092273357473438e-01 0.000000000000000e+00
2.913046604532789e-01 5.864482247396433e-01 0.000000000000000e+00
2.864506982448334e-01 5.692304106265144e-01 0.000000000000000e+00
2.799350144935905e-01 5.451162534065286e-01 0.000000000000000e+00
2.769615102114319e-01 5.231531802990297e-01 0.000000000000000e+00
2.762923430106243e-01 5.000000000000827e-01 0.000000000000000e+00
2.769615102114192e-01 4.768468197011373e-01 0.000000000000000e+00
2.799350144935598e-01 4.548837465936485e-01 0.000000000000000e+00
2.864506982447984e-01 4.307695893736455e-01 0.000000000000000e+00
2.913046604532362e-01 4.135517752605151e-01 0.000000000000000e+00
3.017823617484853e-01 3.907726642528203e-01 0.000000000000000e+00
3.124314688660710e-01 3.721098749534400e-01 0.000000000000000e+00
3.263469422795438e-01 3.528308787920744e-01 0.000000000000000e+00
3.406250603089243e-01 3.362210758668255e-01 0.000000000000000e+00
3.571453982939246e-01 3.207867138572584e-01 0.000000000000000e+00
3.755155819384080e-01 3.067285354915318e-01 0.000000000000000e+00
3.928104908746325e-01 2.961437018006108e-01 0.000000000000000e+00
4.153158186614350e-01 2.849042507336367e-01 0.000000000000000e+00
4.310185295387376e-01 2.808690376388474e-01 0.000000000000000e+00
4.552765613795406e-01 2.739111123535216e-01 0.000000000000000e+00
4.773663965654463e-01 2.708108019130811e-01 0.000000000000000e+00
4.999999999999721e-01 2.702657944376605e-01 0.000000000000000e+00
5.226336034344985e-01 2.708108019130718e-01 0.000000000000000e+00
5.447234386204006e-01 2.739111123534991e-01 0.000000000000000e+00
5.689814704612113e-01 2.808690376388173e-01 0.000000000000000e+00
5.846841813385039e-01 2.849042507335908e-01 0.000000000000000e+00
6.071895091253119e-01 2.961437018005522e-01 0.000000000000000e+00
6.244844180615384e-01 3.067285354914645e-01 0.000000000000000e+00
6.428546017060289e-01 3.207867138571776e-01 0.000000000000000e+00
6.593749396910354e-01 3.362210758667358e-01 0.000000000000000e+00
6.736530577204288e-01 3.528308787919781e-01 0.000000000000000e+00
6.875685311339078e-01 3.721098749533352e-01 0.000000000000000e+00
6.982176382514991e-01 3.907726642526977e-01 0.000000000000000e+00
7.086953395467673e-01 4.135517752603968e-01 0.000000000000000e+00
7.135493017552050e-01 4.307695893735112e-01 0.000000000000000e+00
7.200649855064516e-01 4.548837465935014e-01 0.000000000000000e+00
7.230384897886095e-01 4.768468197009955e-01 0.000000000000000e+00

POINT_DATA   64
SCALARS fMag double
LOOKUP_TABLE default

3.332956e+01 
6.474996e+01 
1.033829e+02 
1.770686e+02 
1.977049e+02 
1.031476e+02 
8.266025e+01 
6.710391e+01 
6.314766e+01 
5.767479e+01 
9.101593e+01 
1.313693e+02 
2.473673e+02 
2.254525e+02 
1.105759e+02 
6.545656e+01 
2.746373e+01 
6.545656e+01 
1.105759e+02 
2.254525e+02 
2.473673e+02 
1.313693e+02 
9.101593e+01 
5.767479e+01 
6.314766e+01 
6.710391e+01 
8.266025e+01 
1.031476e+02 
1.977049e+02 
1.770686e+02 
1.033829e+02 
6.474996e+01 
3.332956e+01 
6.474996e+01 
1.033829e+02 
1.770686e+02 
1.977049e+02 
1.031476e+02 
8.266025e+01 
6.710391e+01 
6.314766e+01 
5.767479e+01 
9.101593e+01 
1.313693e+02 
2.473673e+02 
2.254525e+02 
1.105759e+02 
6.545656e+01 
2.746373e+01 
6.545656e+01 
1.105759e+02 
2.254525e+02 
2.473673e+02 
1.313693e+02 
9.101593e+01 
5.767479e+01 
6.314766e+01 
6.710391e+01 
8.266025e+01 
1.031476e+02 
1.977049e+02 
1.770686e+02 
1.033829e+02 
6.474996e+01 
