# vtk DataFile Version 2.0
fMag
ASCII
DATASET UNSTRUCTURED_GRID

FIELD FieldData 1
TIME 1 1 double
0.18000000
POINTS 64 float
7.230023943129662e-01 4.999999999999994e-01 0.000000000000000e+00
7.222508892842064e-01 5.316714940996946e-01 0.000000000000000e+00
7.194090162342848e-01 5.638876822723218e-01 0.000000000000000e+00
7.152504835098654e-01 5.960399146522006e-01 0.000000000000000e+00
7.092527281788655e-01 6.272341061164020e-01 0.000000000000000e+00
7.020350855834858e-01 6.564257752308083e-01 0.000000000000000e+00
6.931314228497401e-01 6.844475412410531e-01 0.000000000000000e+00
6.828696237206040e-01 7.106456855033976e-01 0.000000000000000e+00
6.703600789522710e-01 7.362139746142982e-01 0.000000000000000e+00
6.556869181478886e-01 7.603233796901718e-01 0.000000000000000e+00
6.383225621740783e-01 7.824416701416992e-01 0.000000000000000e+00
6.192239064072520e-01 8.011285521201423e-01 0.000000000000000e+00
5.988143128028881e-01 8.174964400667200e-01 0.000000000000000e+00
5.763288578075298e-01 8.309411108637583e-01 0.000000000000000e+00
5.522200631838259e-01 8.409308640898490e-01 0.000000000000000e+00
5.267362925623802e-01 8.464498065320354e-01 0.000000000000000e+00
5.000000000000000e-01 8.485129713436999e-01 0.000000000000000e+00
4.732637074376221e-01 8.464498065320357e-01 0.000000000000000e+00
4.477799368161743e-01 8.409308640898494e-01 0.000000000000000e+00
4.236711421924714e-01 8.309411108637590e-01 0.000000000000000e+00
4.011856871971127e-01 8.174964400667208e-01 0.000000000000000e+00
3.807760935927488e-01 8.011285521201431e-01 0.000000000000000e+00
3.616774378259221e-01 7.824416701416997e-01 0.000000000000000e+00
3.443130818521121e-01 7.603233796901726e-01 0.000000000000000e+00
3.296399210477295e-01 7.362139746142990e-01 0.000000000000000e+00
3.171303762793962e-01 7.106456855033986e-01 0.000000000000000e+00
3.068685771502603e-01 6.844475412410542e-01 0.000000000000000e+00
2.979649144165145e-01 6.564257752308097e-01 0.000000000000000e+00
2.907472718211350e-01 6.272341061164032e-01 0.000000000000000e+00
2.847495164901345e-01 5.960399146522022e-01 0.000000000000000e+00
2.805909837657153e-01 5.638876822723228e-01 0.000000000000000e+00
2.777491107157936e-01 5.316714940996958e-01 0.000000000000000e+00
2.769976056870337e-01 5.000000000000004e-01 0.000000000000000e+00
2.777491107157935e-01 4.683285059003053e-01 0.000000000000000e+00
2.805909837657148e-01 4.361123177276780e-01 0.000000000000000e+00
2.847495164901342e-01 4.039600853477989e-01 0.000000000000000e+00
2.907472718211342e-01 3.727658938835979e-01 0.000000000000000e+00
2.979649144165142e-01 3.435742247691915e-01 0.000000000000000e+00
3.068685771502596e-01 3.155524587589468e-01 0.000000000000000e+00
3.171303762793958e-01 2.893543144966023e-01 0.000000000000000e+00
3.296399210477287e-01 2.637860253857018e-01 0.000000000000000e+00
3.443130818521114e-01 2.396766203098279e-01 0.000000000000000e+00
3.616774378259211e-01 2.175583298583008e-01 0.000000000000000e+00
3.807760935927481e-01 1.988714478798571e-01 0.000000000000000e+00
4.011856871971118e-01 1.825035599332795e-01 0.000000000000000e+00
4.236711421924703e-01 1.690588891362410e-01 0.000000000000000e+00
4.477799368161734e-01 1.590691359101505e-01 0.000000000000000e+00
4.732637074376204e-01 1.535501934679639e-01 0.000000000000000e+00
4.999999999999992e-01 1.514870286562997e-01 0.000000000000000e+00
5.267362925623787e-01 1.535501934679639e-01 0.000000000000000e+00
5.522200631838250e-01 1.590691359101503e-01 0.000000000000000e+00
5.763288578075285e-01 1.690588891362409e-01 0.000000000000000e+00
5.988143128028873e-01 1.825035599332792e-01 0.000000000000000e+00
6.192239064072513e-01 1.988714478798566e-01 0.000000000000000e+00
6.383225621740775e-01 2.175583298583000e-01 0.000000000000000e+00
6.556869181478880e-01 2.396766203098271e-01 0.000000000000000e+00
6.703600789522703e-01 2.637860253857008e-01 0.000000000000000e+00
6.828696237206037e-01 2.893543144966011e-01 0.000000000000000e+00
6.931314228497396e-01 3.155524587589458e-01 0.000000000000000e+00
7.020350855834854e-01 3.435742247691903e-01 0.000000000000000e+00
7.092527281788650e-01 3.727658938835969e-01 0.000000000000000e+00
7.152504835098651e-01 4.039600853477976e-01 0.000000000000000e+00
7.194090162342845e-01 4.361123177276772e-01 0.000000000000000e+00
7.222508892842063e-01 4.683285059003037e-01 0.000000000000000e+00

POINT_DATA   64
SCALARS fMag double
LOOKUP_TABLE default

3.787147e+01 
5.370598e+01 
3.175845e+01 
5.122710e+01 
5.683362e+01 
4.925641e+01 
5.546334e+01 
5.781575e+01 
6.487765e+01 
8.422117e+01 
9.559283e+01 
6.644020e+01 
9.172352e+01 
9.789747e+01 
1.178841e+02 
9.336081e+01 
1.047424e+02 
9.336081e+01 
1.178841e+02 
9.789747e+01 
9.172352e+01 
6.644020e+01 
9.559283e+01 
8.422117e+01 
6.487765e+01 
5.781575e+01 
5.546334e+01 
4.925641e+01 
5.683362e+01 
5.122710e+01 
3.175845e+01 
5.370598e+01 
3.787147e+01 
5.370598e+01 
3.175845e+01 
5.122710e+01 
5.683362e+01 
4.925641e+01 
5.546334e+01 
5.781575e+01 
6.487765e+01 
8.422117e+01 
9.559283e+01 
6.644020e+01 
9.172352e+01 
9.789747e+01 
1.178841e+02 
9.336081e+01 
1.047424e+02 
9.336081e+01 
1.178841e+02 
9.789747e+01 
9.172352e+01 
6.644020e+01 
9.559283e+01 
8.422117e+01 
6.487765e+01 
5.781575e+01 
5.546334e+01 
4.925641e+01 
5.683362e+01 
5.122710e+01 
3.175845e+01 
5.370598e+01 
