# vtk DataFile Version 2.0
fMag
ASCII
DATASET UNSTRUCTURED_GRID

FIELD FieldData 1
TIME 1 1 double
0.62000000
POINTS 64 float
7.436081970834881e-01 5.000000000000000e-01 0.000000000000000e+00
7.423760108160908e-01 5.270571668964911e-01 0.000000000000000e+00
7.395225592389160e-01 5.533838222155094e-01 0.000000000000000e+00
7.344249616291580e-01 5.799824407571960e-01 0.000000000000000e+00
7.276204047358458e-01 6.057910778107827e-01 0.000000000000000e+00
7.183015642135837e-01 6.313295858060061e-01 0.000000000000000e+00
7.076049106166657e-01 6.551091304881247e-01 0.000000000000000e+00
6.945488420605859e-01 6.780881284836819e-01 0.000000000000000e+00
6.791436198227372e-01 6.993877381523425e-01 0.000000000000000e+00
6.626737247962109e-01 7.189545925749002e-01 0.000000000000000e+00
6.433819714580933e-01 7.364321454289894e-01 0.000000000000000e+00
6.227512003020257e-01 7.519774162470502e-01 0.000000000000000e+00
5.999379373543816e-01 7.648738730877603e-01 0.000000000000000e+00
5.766499230151455e-01 7.754028620934665e-01 0.000000000000000e+00
5.514834979407685e-01 7.830220859168459e-01 0.000000000000000e+00
5.260381879711846e-01 7.874895832258811e-01 0.000000000000000e+00
4.999999999999990e-01 7.890478558750306e-01 0.000000000000000e+00
4.739618120288128e-01 7.874895832258809e-01 0.000000000000000e+00
4.485165020592298e-01 7.830220859168464e-01 0.000000000000000e+00
4.233500769848531e-01 7.754028620934662e-01 0.000000000000000e+00
4.000620626456168e-01 7.648738730877614e-01 0.000000000000000e+00
3.772487996979728e-01 7.519774162470497e-01 0.000000000000000e+00
3.566180285419057e-01 7.364321454289909e-01 0.000000000000000e+00
3.373262752037881e-01 7.189545925749001e-01 0.000000000000000e+00
3.208563801772620e-01 6.993877381523437e-01 0.000000000000000e+00
3.054511579394134e-01 6.780881284836828e-01 0.000000000000000e+00
2.923950893833336e-01 6.551091304881259e-01 0.000000000000000e+00
2.816984357864147e-01 6.313295858060070e-01 0.000000000000000e+00
2.723795952641530e-01 6.057910778107831e-01 0.000000000000000e+00
2.655750383708407e-01 5.799824407571976e-01 0.000000000000000e+00
2.604774407610824e-01 5.533838222155097e-01 0.000000000000000e+00
2.576239891839082e-01 5.270571668964930e-01 0.000000000000000e+00
2.563918029165105e-01 5.000000000000004e-01 0.000000000000000e+00
2.576239891839081e-01 4.729428331035082e-01 0.000000000000000e+00
2.604774407610822e-01 4.466161777844914e-01 0.000000000000000e+00
2.655750383708408e-01 4.200175592428034e-01 0.000000000000000e+00
2.723795952641523e-01 3.942089221892180e-01 0.000000000000000e+00
2.816984357864150e-01 3.686704141939935e-01 0.000000000000000e+00
2.923950893833329e-01 3.448908695118754e-01 0.000000000000000e+00
3.054511579394126e-01 3.219118715163184e-01 0.000000000000000e+00
3.208563801772612e-01 3.006122618476577e-01 0.000000000000000e+00
3.373262752037878e-01 2.810454074251003e-01 0.000000000000000e+00
3.566180285419048e-01 2.635678545710106e-01 0.000000000000000e+00
3.772487996979727e-01 2.480225837529505e-01 0.000000000000000e+00
4.000620626456169e-01 2.351261269122396e-01 0.000000000000000e+00
4.233500769848527e-01 2.245971379065342e-01 0.000000000000000e+00
4.485165020592297e-01 2.169779140831544e-01 0.000000000000000e+00
4.739618120288128e-01 2.125104167741192e-01 0.000000000000000e+00
4.999999999999992e-01 2.109521441249698e-01 0.000000000000000e+00
5.260381879711844e-01 2.125104167741190e-01 0.000000000000000e+00
5.514834979407681e-01 2.169779140831541e-01 0.000000000000000e+00
5.766499230151451e-01 2.245971379065339e-01 0.000000000000000e+00
5.999379373543812e-01 2.351261269122391e-01 0.000000000000000e+00
6.227512003020251e-01 2.480225837529505e-01 0.000000000000000e+00
6.433819714580928e-01 2.635678545710096e-01 0.000000000000000e+00
6.626737247962099e-01 2.810454074250999e-01 0.000000000000000e+00
6.791436198227369e-01 3.006122618476569e-01 0.000000000000000e+00
6.945488420605852e-01 3.219118715163175e-01 0.000000000000000e+00
7.076049106166655e-01 3.448908695118747e-01 0.000000000000000e+00
7.183015642135830e-01 3.686704141939928e-01 0.000000000000000e+00
7.276204047358460e-01 3.942089221892174e-01 0.000000000000000e+00
7.344249616291575e-01 4.200175592428025e-01 0.000000000000000e+00
7.395225592389163e-01 4.466161777844906e-01 0.000000000000000e+00
7.423760108160904e-01 4.729428331035069e-01 0.000000000000000e+00

POINT_DATA   64
SCALARS fMag double
LOOKUP_TABLE default

6.151786e+01 
4.431555e+01 
5.674648e+01 
4.773401e+01 
6.312269e+01 
5.580248e+01 
6.321595e+01 
7.282601e+01 
5.081678e+01 
8.779463e+01 
5.840280e+01 
8.546619e+01 
6.062497e+01 
8.641143e+01 
7.809500e+01 
7.390981e+01 
7.804363e+01 
7.390981e+01 
7.809500e+01 
8.641143e+01 
6.062497e+01 
8.546619e+01 
5.840280e+01 
8.779463e+01 
5.081678e+01 
7.282601e+01 
6.321595e+01 
5.580248e+01 
6.312269e+01 
4.773401e+01 
5.674648e+01 
4.431555e+01 
6.151786e+01 
4.431555e+01 
5.674648e+01 
4.773401e+01 
6.312269e+01 
5.580248e+01 
6.321595e+01 
7.282601e+01 
5.081678e+01 
8.779463e+01 
5.840280e+01 
8.546619e+01 
6.062497e+01 
8.641143e+01 
7.809500e+01 
7.390981e+01 
7.804363e+01 
7.390981e+01 
7.809500e+01 
8.641143e+01 
6.062497e+01 
8.546619e+01 
5.840280e+01 
8.779463e+01 
5.081678e+01 
7.282601e+01 
6.321595e+01 
5.580248e+01 
6.312269e+01 
4.773401e+01 
5.674648e+01 
4.431555e+01 
