# vtk DataFile Version 2.0
fMag
ASCII
DATASET UNSTRUCTURED_GRID

FIELD FieldData 1
TIME 1 1 double
0.32000000
POINTS 64 float
7.267782839835293e-01 4.999999999999991e-01 0.000000000000000e+00
7.257215991669763e-01 5.310633908986121e-01 0.000000000000000e+00
7.231499895938678e-01 5.616212613064639e-01 0.000000000000000e+00
7.187379172657996e-01 5.924152693196412e-01 0.000000000000000e+00
7.127775319129102e-01 6.215071092555333e-01 0.000000000000000e+00
7.046228862794793e-01 6.501810582403594e-01 0.000000000000000e+00
6.949583785598997e-01 6.777453829939885e-01 0.000000000000000e+00
6.836053413012941e-01 7.040806544945847e-01 0.000000000000000e+00
6.698776816511257e-01 7.293305714187376e-01 0.000000000000000e+00
6.546026274174342e-01 7.526546292698847e-01 0.000000000000000e+00
6.372466873309540e-01 7.740811407592607e-01 0.000000000000000e+00
6.179335473911161e-01 7.930761639246819e-01 0.000000000000000e+00
5.968673713545319e-01 8.093109845385420e-01 0.000000000000000e+00
5.740323744194189e-01 8.226787891795367e-01 0.000000000000000e+00
5.500494873619854e-01 8.322969715671715e-01 0.000000000000000e+00
5.252856385717125e-01 8.378336994376652e-01 0.000000000000000e+00
4.999999999999999e-01 8.398718452444915e-01 0.000000000000000e+00
4.747143614282905e-01 8.378336994376657e-01 0.000000000000000e+00
4.499505126380154e-01 8.322969715671720e-01 0.000000000000000e+00
4.259676255805825e-01 8.226787891795373e-01 0.000000000000000e+00
4.031326286454684e-01 8.093109845385426e-01 0.000000000000000e+00
3.820664526088854e-01 7.930761639246832e-01 0.000000000000000e+00
3.627533126690463e-01 7.740811407592615e-01 0.000000000000000e+00
3.453973725825665e-01 7.526546292698862e-01 0.000000000000000e+00
3.301223183488743e-01 7.293305714187392e-01 0.000000000000000e+00
3.163946586987058e-01 7.040806544945861e-01 0.000000000000000e+00
3.050416214401002e-01 6.777453829939903e-01 0.000000000000000e+00
2.953771137205202e-01 6.501810582403611e-01 0.000000000000000e+00
2.872224680870895e-01 6.215071092555352e-01 0.000000000000000e+00
2.812620827341998e-01 5.924152693196441e-01 0.000000000000000e+00
2.768500104061312e-01 5.616212613064657e-01 0.000000000000000e+00
2.742784008330232e-01 5.310633908986149e-01 0.000000000000000e+00
2.732217160164701e-01 5.000000000000004e-01 0.000000000000000e+00
2.742784008330231e-01 4.689366091013881e-01 0.000000000000000e+00
2.768500104061312e-01 4.383787386935356e-01 0.000000000000000e+00
2.812620827341998e-01 4.075847306803586e-01 0.000000000000000e+00
2.872224680870890e-01 3.784928907444668e-01 0.000000000000000e+00
2.953771137205201e-01 3.498189417596405e-01 0.000000000000000e+00
3.050416214400995e-01 3.222546170060118e-01 0.000000000000000e+00
3.163946586987054e-01 2.959193455054149e-01 0.000000000000000e+00
3.301223183488731e-01 2.706694285812626e-01 0.000000000000000e+00
3.453973725825654e-01 2.473453707301149e-01 0.000000000000000e+00
3.627533126690447e-01 2.259188592407394e-01 0.000000000000000e+00
3.820664526088834e-01 2.069238360753178e-01 0.000000000000000e+00
4.031326286454668e-01 1.906890154614579e-01 0.000000000000000e+00
4.259676255805804e-01 1.773212108204631e-01 0.000000000000000e+00
4.499505126380136e-01 1.677030284328282e-01 0.000000000000000e+00
4.747143614282873e-01 1.621663005623346e-01 0.000000000000000e+00
4.999999999999987e-01 1.601281547555083e-01 0.000000000000000e+00
5.252856385717097e-01 1.621663005623342e-01 0.000000000000000e+00
5.500494873619839e-01 1.677030284328276e-01 0.000000000000000e+00
5.740323744194169e-01 1.773212108204622e-01 0.000000000000000e+00
5.968673713545304e-01 1.906890154614568e-01 0.000000000000000e+00
6.179335473911142e-01 2.069238360753164e-01 0.000000000000000e+00
6.372466873309527e-01 2.259188592407380e-01 0.000000000000000e+00
6.546026274174332e-01 2.473453707301138e-01 0.000000000000000e+00
6.698776816511243e-01 2.706694285812604e-01 0.000000000000000e+00
6.836053413012932e-01 2.959193455054134e-01 0.000000000000000e+00
6.949583785598986e-01 3.222546170060097e-01 0.000000000000000e+00
7.046228862794788e-01 3.498189417596386e-01 0.000000000000000e+00
7.127775319129098e-01 3.784928907444651e-01 0.000000000000000e+00
7.187379172657994e-01 4.075847306803559e-01 0.000000000000000e+00
7.231499895938686e-01 4.383787386935342e-01 0.000000000000000e+00
7.257215991669761e-01 4.689366091013853e-01 0.000000000000000e+00

POINT_DATA   64
SCALARS fMag double
LOOKUP_TABLE default

5.253268e+01 
3.956919e+01 
4.650887e+01 
5.838539e+01 
5.603484e+01 
4.673330e+01 
5.279609e+01 
6.507137e+01 
6.171362e+01 
7.057322e+01 
7.815409e+01 
8.167305e+01 
8.355951e+01 
9.734624e+01 
1.043950e+02 
8.838597e+01 
1.013438e+02 
8.838597e+01 
1.043950e+02 
9.734624e+01 
8.355951e+01 
8.167305e+01 
7.815409e+01 
7.057322e+01 
6.171362e+01 
6.507137e+01 
5.279609e+01 
4.673330e+01 
5.603484e+01 
5.838539e+01 
4.650887e+01 
3.956919e+01 
5.253268e+01 
3.956919e+01 
4.650887e+01 
5.838539e+01 
5.603484e+01 
4.673330e+01 
5.279609e+01 
6.507137e+01 
6.171362e+01 
7.057322e+01 
7.815409e+01 
8.167305e+01 
8.355951e+01 
9.734624e+01 
1.043950e+02 
8.838597e+01 
1.013438e+02 
8.838597e+01 
1.043950e+02 
9.734624e+01 
8.355951e+01 
8.167305e+01 
7.815409e+01 
7.057322e+01 
6.171362e+01 
6.507137e+01 
5.279609e+01 
4.673330e+01 
5.603484e+01 
5.838539e+01 
4.650887e+01 
3.956919e+01 
