# vtk DataFile Version 2.0
fMag
ASCII
DATASET UNSTRUCTURED_GRID

FIELD FieldData 1
TIME 1 1 double
0.56000000
POINTS 64 float
8.118663772936497e-01 5.000000000000000e-01 0.000000000000000e+00
8.098464564236019e-01 5.257055482251983e-01 0.000000000000000e+00
8.049814297389066e-01 5.509362046722865e-01 0.000000000000000e+00
7.963440088185419e-01 5.755465977251600e-01 0.000000000000000e+00
7.844014695347306e-01 5.986491792327870e-01 0.000000000000000e+00
7.695989350479897e-01 6.202530658485492e-01 0.000000000000000e+00
7.517680172699662e-01 6.399075206179400e-01 0.000000000000000e+00
7.322328878065492e-01 6.575318358503899e-01 0.000000000000000e+00
7.104836561873829e-01 6.730710056999298e-01 0.000000000000000e+00
6.871854248437523e-01 6.871740310188278e-01 0.000000000000000e+00
6.624496592782424e-01 6.986635797073090e-01 0.000000000000000e+00
6.372029487364979e-01 7.085296734640254e-01 0.000000000000000e+00
6.102100159740936e-01 7.166570197895310e-01 0.000000000000000e+00
5.837347782410719e-01 7.224810081605183e-01 0.000000000000000e+00
5.556085242315136e-01 7.269814068584746e-01 0.000000000000000e+00
5.282498095794623e-01 7.293940440752513e-01 0.000000000000000e+00
4.999999999999996e-01 7.300924359800857e-01 0.000000000000000e+00
4.717501904205366e-01 7.293940440752509e-01 0.000000000000000e+00
4.443914757684858e-01 7.269814068584756e-01 0.000000000000000e+00
4.162652217589267e-01 7.224810081605177e-01 0.000000000000000e+00
3.897899840259060e-01 7.166570197895316e-01 0.000000000000000e+00
3.627970512635006e-01 7.085296734640247e-01 0.000000000000000e+00
3.375503407217575e-01 6.986635797073100e-01 0.000000000000000e+00
3.128145751562462e-01 6.871740310188276e-01 0.000000000000000e+00
2.895163438126164e-01 6.730710056999299e-01 0.000000000000000e+00
2.677671121934502e-01 6.575318358503907e-01 0.000000000000000e+00
2.482319827300333e-01 6.399075206179410e-01 0.000000000000000e+00
2.304010649520093e-01 6.202530658485499e-01 0.000000000000000e+00
2.155985304652681e-01 5.986491792327875e-01 0.000000000000000e+00
2.036559911814568e-01 5.755465977251609e-01 0.000000000000000e+00
1.950185702610916e-01 5.509362046722875e-01 0.000000000000000e+00
1.901535435763964e-01 5.257055482252000e-01 0.000000000000000e+00
1.881336227063480e-01 5.000000000000004e-01 0.000000000000000e+00
1.901535435763964e-01 4.742944517748023e-01 0.000000000000000e+00
1.950185702610912e-01 4.490637953277135e-01 0.000000000000000e+00
2.036559911814564e-01 4.244534022748403e-01 0.000000000000000e+00
2.155985304652673e-01 4.013508207672137e-01 0.000000000000000e+00
2.304010649520087e-01 3.797469341514509e-01 0.000000000000000e+00
2.482319827300322e-01 3.600924793820600e-01 0.000000000000000e+00
2.677671121934491e-01 3.424681641496106e-01 0.000000000000000e+00
2.895163438126155e-01 3.269289943000706e-01 0.000000000000000e+00
3.128145751562458e-01 3.128259689811728e-01 0.000000000000000e+00
3.375503407217559e-01 3.013364202926913e-01 0.000000000000000e+00
3.627970512635000e-01 2.914703265359754e-01 0.000000000000000e+00
3.897899840259047e-01 2.833429802104693e-01 0.000000000000000e+00
4.162652217589261e-01 2.775189918394823e-01 0.000000000000000e+00
4.443914757684848e-01 2.730185931415253e-01 0.000000000000000e+00
4.717501904205355e-01 2.706059559247487e-01 0.000000000000000e+00
4.999999999999989e-01 2.699075640199146e-01 0.000000000000000e+00
5.282498095794612e-01 2.706059559247485e-01 0.000000000000000e+00
5.556085242315127e-01 2.730185931415251e-01 0.000000000000000e+00
5.837347782410710e-01 2.775189918394820e-01 0.000000000000000e+00
6.102100159740927e-01 2.833429802104687e-01 0.000000000000000e+00
6.372029487364975e-01 2.914703265359749e-01 0.000000000000000e+00
6.624496592782414e-01 3.013364202926905e-01 0.000000000000000e+00
6.871854248437517e-01 3.128259689811726e-01 0.000000000000000e+00
7.104836561873820e-01 3.269289943000695e-01 0.000000000000000e+00
7.322328878065482e-01 3.424681641496097e-01 0.000000000000000e+00
7.517680172699652e-01 3.600924793820594e-01 0.000000000000000e+00
7.695989350479885e-01 3.797469341514500e-01 0.000000000000000e+00
7.844014695347304e-01 4.013508207672130e-01 0.000000000000000e+00
7.963440088185412e-01 4.244534022748392e-01 0.000000000000000e+00
8.049814297389067e-01 4.490637953277127e-01 0.000000000000000e+00
8.098464564236015e-01 4.742944517748005e-01 0.000000000000000e+00

POINT_DATA   64
SCALARS fMag double
LOOKUP_TABLE default

1.008690e+02 
7.187390e+01 
9.528868e+01 
9.045539e+01 
8.063421e+01 
9.094411e+01 
6.570363e+01 
7.561968e+01 
5.342195e+01 
7.467262e+01 
4.213404e+01 
6.122068e+01 
5.943432e+01 
5.336297e+01 
5.640410e+01 
4.836420e+01 
3.404989e+01 
4.836420e+01 
5.640410e+01 
5.336297e+01 
5.943432e+01 
6.122068e+01 
4.213404e+01 
7.467262e+01 
5.342195e+01 
7.561968e+01 
6.570363e+01 
9.094411e+01 
8.063421e+01 
9.045539e+01 
9.528868e+01 
7.187390e+01 
1.008690e+02 
7.187390e+01 
9.528868e+01 
9.045539e+01 
8.063421e+01 
9.094411e+01 
6.570363e+01 
7.561968e+01 
5.342195e+01 
7.467262e+01 
4.213404e+01 
6.122068e+01 
5.943432e+01 
5.336297e+01 
5.640410e+01 
4.836420e+01 
3.404989e+01 
4.836420e+01 
5.640410e+01 
5.336297e+01 
5.943432e+01 
6.122068e+01 
4.213404e+01 
7.467262e+01 
5.342195e+01 
7.561968e+01 
6.570363e+01 
9.094411e+01 
8.063421e+01 
9.045539e+01 
9.528868e+01 
7.187390e+01 
