# vtk DataFile Version 2.0
fMag
ASCII
DATASET UNSTRUCTURED_GRID

FIELD FieldData 1
TIME 1 1 double
1.20000000
POINTS 64 float
7.384705203693485e-01 4.999999999999765e-01 0.000000000000000e+00
7.376776018079390e-01 5.229453767373543e-01 0.000000000000000e+00
7.343896402465909e-01 5.455169472170408e-01 0.000000000000000e+00
7.274770273863679e-01 5.691343973681204e-01 0.000000000000000e+00
7.217738336022809e-01 5.872930698757453e-01 0.000000000000000e+00
7.104731954505704e-01 6.092439299066627e-01 0.000000000000000e+00
6.986586865207205e-01 6.270375123100878e-01 0.000000000000000e+00
6.838759482788660e-01 6.455583891508186e-01 0.000000000000000e+00
6.680975765535948e-01 6.613599744635449e-01 0.000000000000000e+00
6.509814171689836e-01 6.754155278315314e-01 0.000000000000000e+00
6.310711709005801e-01 6.891827129886571e-01 0.000000000000000e+00
6.119167220663857e-01 6.994513613994425e-01 0.000000000000000e+00
5.886685811740863e-01 7.096585640004615e-01 0.000000000000000e+00
5.706259527014980e-01 7.146152345891418e-01 0.000000000000000e+00
5.461897175066515e-01 7.207646727839893e-01 0.000000000000000e+00
5.236841347101439e-01 7.237107977200413e-01 0.000000000000000e+00
5.000000000000192e-01 7.243708359926081e-01 0.000000000000000e+00
4.763158652898902e-01 7.237107977200462e-01 0.000000000000000e+00
4.538102824933860e-01 7.207646727839929e-01 0.000000000000000e+00
4.293740472985313e-01 7.146152345891440e-01 0.000000000000000e+00
4.113314188259771e-01 7.096585640004929e-01 0.000000000000000e+00
3.880832779336679e-01 6.994513613994631e-01 0.000000000000000e+00
3.689288290994835e-01 6.891827129886934e-01 0.000000000000000e+00
3.490185828310720e-01 6.754155278315647e-01 0.000000000000000e+00
3.319024234464623e-01 6.613599744635804e-01 0.000000000000000e+00
3.161240517211860e-01 6.455583891508587e-01 0.000000000000000e+00
3.013413134793293e-01 6.270375123101301e-01 0.000000000000000e+00
2.895268045494829e-01 6.092439299067163e-01 0.000000000000000e+00
2.782261663977568e-01 5.872930698757913e-01 0.000000000000000e+00
2.725229726136823e-01 5.691343973681853e-01 0.000000000000000e+00
2.656103597534531e-01 5.455169472171085e-01 0.000000000000000e+00
2.623223981920960e-01 5.229453767374195e-01 0.000000000000000e+00
2.615294796306811e-01 5.000000000000383e-01 0.000000000000000e+00
2.623223981920914e-01 4.770546232626610e-01 0.000000000000000e+00
2.656103597534391e-01 4.544830527829759e-01 0.000000000000000e+00
2.725229726136658e-01 4.308656026318912e-01 0.000000000000000e+00
2.782261663977413e-01 4.127069301242808e-01 0.000000000000000e+00
2.895268045494560e-01 3.907560700933585e-01 0.000000000000000e+00
3.013413134793027e-01 3.729624876899368e-01 0.000000000000000e+00
3.161240517211534e-01 3.544416108492082e-01 0.000000000000000e+00
3.319024234464290e-01 3.386400255364770e-01 0.000000000000000e+00
3.490185828310384e-01 3.245844721684893e-01 0.000000000000000e+00
3.689288290994427e-01 3.108172870113620e-01 0.000000000000000e+00
3.880832779336327e-01 3.005486386005788e-01 0.000000000000000e+00
4.113314188259368e-01 2.903414359995528e-01 0.000000000000000e+00
4.293740472985095e-01 2.853847654108833e-01 0.000000000000000e+00
4.538102824933593e-01 2.792353272160322e-01 0.000000000000000e+00
4.763158652898649e-01 2.762892022799774e-01 0.000000000000000e+00
4.999999999999923e-01 2.756291640074104e-01 0.000000000000000e+00
5.236841347101202e-01 2.762892022799718e-01 0.000000000000000e+00
5.461897175066266e-01 2.792353272160228e-01 0.000000000000000e+00
5.706259527014793e-01 2.853847654108692e-01 0.000000000000000e+00
5.886685811740445e-01 2.903414359995289e-01 0.000000000000000e+00
6.119167220663532e-01 3.005486386005530e-01 0.000000000000000e+00
6.310711709005430e-01 3.108172870113290e-01 0.000000000000000e+00
6.509814171689529e-01 3.245844721684543e-01 0.000000000000000e+00
6.680975765535654e-01 3.386400255364397e-01 0.000000000000000e+00
6.838759482788421e-01 3.544416108491626e-01 0.000000000000000e+00
6.986586865206997e-01 3.729624876898917e-01 0.000000000000000e+00
7.104731954505482e-01 3.907560700933065e-01 0.000000000000000e+00
7.217738336022744e-01 4.127069301242323e-01 0.000000000000000e+00
7.274770273863429e-01 4.308656026318269e-01 0.000000000000000e+00
7.343896402465764e-01 4.544830527829091e-01 0.000000000000000e+00
7.376776018079325e-01 4.770546232625950e-01 0.000000000000000e+00

POINT_DATA   64
SCALARS fMag double
LOOKUP_TABLE default

3.971136e+01 
6.313428e+01 
9.438045e+01 
1.390535e+02 
1.685794e+02 
1.046048e+02 
7.675972e+01 
7.262912e+01 
5.494392e+01 
6.982742e+01 
8.873287e+01 
1.026320e+02 
1.848635e+02 
1.624952e+02 
9.353454e+01 
6.413741e+01 
3.271919e+01 
6.413741e+01 
9.353454e+01 
1.624952e+02 
1.848635e+02 
1.026320e+02 
8.873287e+01 
6.982742e+01 
5.494392e+01 
7.262912e+01 
7.675972e+01 
1.046048e+02 
1.685794e+02 
1.390535e+02 
9.438045e+01 
6.313428e+01 
3.971136e+01 
6.313428e+01 
9.438045e+01 
1.390535e+02 
1.685794e+02 
1.046048e+02 
7.675972e+01 
7.262912e+01 
5.494392e+01 
6.982742e+01 
8.873287e+01 
1.026320e+02 
1.848635e+02 
1.624952e+02 
9.353454e+01 
6.413741e+01 
3.271919e+01 
6.413741e+01 
9.353454e+01 
1.624952e+02 
1.848635e+02 
1.026320e+02 
8.873287e+01 
6.982742e+01 
5.494392e+01 
7.262912e+01 
7.675972e+01 
1.046048e+02 
1.685794e+02 
1.390535e+02 
9.438045e+01 
6.313428e+01 
