# vtk DataFile Version 2.0
fMag
ASCII
DATASET UNSTRUCTURED_GRID

FIELD FieldData 1
TIME 1 1 double
0.14000000
POINTS 64 float
7.389212126479116e-01 4.999999999999994e-01 0.000000000000000e+00
7.383538471576406e-01 5.320799537650515e-01 0.000000000000000e+00
7.355638668110693e-01 5.630670544769598e-01 0.000000000000000e+00
7.315554280334605e-01 5.918665777268385e-01 0.000000000000000e+00
7.250382827405226e-01 6.199615062715593e-01 0.000000000000000e+00
7.162807652372533e-01 6.478834069501326e-01 0.000000000000000e+00
7.052639909458941e-01 6.757219528071581e-01 0.000000000000000e+00
6.925917218765536e-01 7.020426519382100e-01 0.000000000000000e+00
6.783814433184436e-01 7.267169639910901e-01 0.000000000000000e+00
6.635066797995141e-01 7.482738630551780e-01 0.000000000000000e+00
6.464007719658796e-01 7.677884571003833e-01 0.000000000000000e+00
6.270521651086911e-01 7.845582547378294e-01 0.000000000000000e+00
6.053825894694473e-01 7.991301183056466e-01 0.000000000000000e+00
5.811339305916253e-01 8.110975250666275e-01 0.000000000000000e+00
5.551595209001140e-01 8.195392091511452e-01 0.000000000000000e+00
5.278181168591846e-01 8.244814263695293e-01 0.000000000000000e+00
5.000000000000000e-01 8.261282458295119e-01 0.000000000000000e+00
4.721818831408171e-01 8.244814263695294e-01 0.000000000000000e+00
4.448404790998863e-01 8.195392091511458e-01 0.000000000000000e+00
4.188660694083758e-01 8.110975250666275e-01 0.000000000000000e+00
3.946174105305528e-01 7.991301183056472e-01 0.000000000000000e+00
3.729478348913095e-01 7.845582547378303e-01 0.000000000000000e+00
3.535992280341210e-01 7.677884571003842e-01 0.000000000000000e+00
3.364933202004862e-01 7.482738630551786e-01 0.000000000000000e+00
3.216185566815568e-01 7.267169639910911e-01 0.000000000000000e+00
3.074082781234470e-01 7.020426519382114e-01 0.000000000000000e+00
2.947360090541062e-01 6.757219528071587e-01 0.000000000000000e+00
2.837192347627472e-01 6.478834069501335e-01 0.000000000000000e+00
2.749617172594777e-01 6.199615062715603e-01 0.000000000000000e+00
2.684445719665391e-01 5.918665777268396e-01 0.000000000000000e+00
2.644361331889307e-01 5.630670544769604e-01 0.000000000000000e+00
2.616461528423593e-01 5.320799537650521e-01 0.000000000000000e+00
2.610787873520883e-01 5.000000000000003e-01 0.000000000000000e+00
2.616461528423591e-01 4.679200462349486e-01 0.000000000000000e+00
2.644361331889302e-01 4.369329455230400e-01 0.000000000000000e+00
2.684445719665391e-01 4.081334222731614e-01 0.000000000000000e+00
2.749617172594771e-01 3.800384937284405e-01 0.000000000000000e+00
2.837192347627471e-01 3.521165930498672e-01 0.000000000000000e+00
2.947360090541055e-01 3.242780471928421e-01 0.000000000000000e+00
3.074082781234465e-01 2.979573480617896e-01 0.000000000000000e+00
3.216185566815563e-01 2.732830360089097e-01 0.000000000000000e+00
3.364933202004860e-01 2.517261369448219e-01 0.000000000000000e+00
3.535992280341203e-01 2.322115428996164e-01 0.000000000000000e+00
3.729478348913092e-01 2.154417452621706e-01 0.000000000000000e+00
3.946174105305521e-01 2.008698816943536e-01 0.000000000000000e+00
4.188660694083747e-01 1.889024749333727e-01 0.000000000000000e+00
4.448404790998855e-01 1.804607908488547e-01 0.000000000000000e+00
4.721818831408153e-01 1.755185736304707e-01 0.000000000000000e+00
4.999999999999994e-01 1.738717541704878e-01 0.000000000000000e+00
5.278181168591832e-01 1.755185736304705e-01 0.000000000000000e+00
5.551595209001133e-01 1.804607908488543e-01 0.000000000000000e+00
5.811339305916242e-01 1.889024749333722e-01 0.000000000000000e+00
6.053825894694466e-01 2.008698816943529e-01 0.000000000000000e+00
6.270521651086906e-01 2.154417452621700e-01 0.000000000000000e+00
6.464007719658788e-01 2.322115428996155e-01 0.000000000000000e+00
6.635066797995138e-01 2.517261369448213e-01 0.000000000000000e+00
6.783814433184427e-01 2.732830360089086e-01 0.000000000000000e+00
6.925917218765530e-01 2.979573480617885e-01 0.000000000000000e+00
7.052639909458938e-01 3.242780471928412e-01 0.000000000000000e+00
7.162807652372528e-01 3.521165930498659e-01 0.000000000000000e+00
7.250382827405224e-01 3.800384937284397e-01 0.000000000000000e+00
7.315554280334605e-01 4.081334222731600e-01 0.000000000000000e+00
7.355638668110691e-01 4.369329455230393e-01 0.000000000000000e+00
7.383538471576403e-01 4.679200462349473e-01 0.000000000000000e+00

POINT_DATA   64
SCALARS fMag double
LOOKUP_TABLE default

3.142342e+01 
6.548312e+01 
6.591886e+01 
6.598632e+01 
5.556256e+01 
5.608267e+01 
5.682058e+01 
5.800589e+01 
8.058221e+01 
7.531492e+01 
8.717765e+01 
7.922053e+01 
9.115566e+01 
9.639760e+01 
9.204609e+01 
8.194214e+01 
8.139242e+01 
8.194214e+01 
9.204609e+01 
9.639760e+01 
9.115566e+01 
7.922053e+01 
8.717765e+01 
7.531492e+01 
8.058221e+01 
5.800589e+01 
5.682058e+01 
5.608267e+01 
5.556256e+01 
6.598632e+01 
6.591886e+01 
6.548312e+01 
3.142342e+01 
6.548312e+01 
6.591886e+01 
6.598632e+01 
5.556256e+01 
5.608267e+01 
5.682058e+01 
5.800589e+01 
8.058221e+01 
7.531492e+01 
8.717765e+01 
7.922053e+01 
9.115566e+01 
9.639760e+01 
9.204609e+01 
8.194214e+01 
8.139242e+01 
8.194214e+01 
9.204609e+01 
9.639760e+01 
9.115566e+01 
7.922053e+01 
8.717765e+01 
7.531492e+01 
8.058221e+01 
5.800589e+01 
5.682058e+01 
5.608267e+01 
5.556256e+01 
6.598632e+01 
6.591886e+01 
6.548312e+01 
