# vtk DataFile Version 2.0
fNorm
ASCII
DATASET UNSTRUCTURED_GRID

FIELD FieldData 1
TIME 1 1 double
0.92000000
POINTS 64 float
7.405502162717097e-01 5.000000000000017e-01 0.000000000000000e+00
7.395714566696914e-01 5.250721215692290e-01 0.000000000000000e+00
7.365238818070260e-01 5.498500539119380e-01 0.000000000000000e+00
7.306122674885573e-01 5.744982789340322e-01 0.000000000000000e+00
7.241141246510656e-01 5.968304265023398e-01 0.000000000000000e+00
7.136606002022977e-01 6.205483957771221e-01 0.000000000000000e+00
7.023960152996438e-01 6.414529891695158e-01 0.000000000000000e+00
6.888106059668233e-01 6.619471468009998e-01 0.000000000000000e+00
6.733882921665978e-01 6.803284842199858e-01 0.000000000000000e+00
6.560124706124113e-01 6.978315416690882e-01 0.000000000000000e+00
6.373762904300604e-01 7.126606274442377e-01 0.000000000000000e+00
6.172441698627570e-01 7.254239687944878e-01 0.000000000000000e+00
5.945105212022079e-01 7.373297455336263e-01 0.000000000000000e+00
5.723496641560281e-01 7.451005904963357e-01 0.000000000000000e+00
5.484799953447729e-01 7.515808984991321e-01 0.000000000000000e+00
5.242947512023988e-01 7.552287406615575e-01 0.000000000000000e+00
4.999999999999949e-01 7.561655259967446e-01 0.000000000000000e+00
4.757052487975882e-01 7.552287406615564e-01 0.000000000000000e+00
4.515200046552162e-01 7.515808984991319e-01 0.000000000000000e+00
4.276503358439602e-01 7.451005904963330e-01 0.000000000000000e+00
4.054894787977836e-01 7.373297455336277e-01 0.000000000000000e+00
3.827558301372305e-01 7.254239687944829e-01 0.000000000000000e+00
3.626237095699332e-01 7.126606274442381e-01 0.000000000000000e+00
3.439875293875801e-01 6.978315416690858e-01 0.000000000000000e+00
3.266117078333947e-01 6.803284842199826e-01 0.000000000000000e+00
3.111893940331690e-01 6.619471468009960e-01 0.000000000000000e+00
2.976039847003500e-01 6.414529891695115e-01 0.000000000000000e+00
2.863393997976985e-01 6.205483957771192e-01 0.000000000000000e+00
2.758858753489282e-01 5.968304265023335e-01 0.000000000000000e+00
2.693877325114402e-01 5.744982789340304e-01 0.000000000000000e+00
2.634761181929708e-01 5.498500539119340e-01 0.000000000000000e+00
2.604285433303059e-01 5.250721215692248e-01 0.000000000000000e+00
2.594497837282877e-01 4.999999999999991e-01 0.000000000000000e+00
2.604285433303062e-01 4.749278784307723e-01 0.000000000000000e+00
2.634761181929714e-01 4.501499460880636e-01 0.000000000000000e+00
2.693877325114412e-01 4.255017210659677e-01 0.000000000000000e+00
2.758858753489301e-01 4.031695734976645e-01 0.000000000000000e+00
2.863393997977004e-01 3.794516042228789e-01 0.000000000000000e+00
2.976039847003529e-01 3.585470108304873e-01 0.000000000000000e+00
3.111893940331726e-01 3.380528531990034e-01 0.000000000000000e+00
3.266117078333988e-01 3.196715157800168e-01 0.000000000000000e+00
3.439875293875856e-01 3.021684583309141e-01 0.000000000000000e+00
3.626237095699372e-01 2.873393725557639e-01 0.000000000000000e+00
3.827558301372381e-01 2.745760312055165e-01 0.000000000000000e+00
4.054894787977891e-01 2.626702544663755e-01 0.000000000000000e+00
4.276503358439681e-01 2.548994095036681e-01 0.000000000000000e+00
4.515200046552232e-01 2.484191015008711e-01 0.000000000000000e+00
4.757052487975968e-01 2.447712593384463e-01 0.000000000000000e+00
5.000000000000012e-01 2.438344740032588e-01 0.000000000000000e+00
5.242947512024075e-01 2.447712593384465e-01 0.000000000000000e+00
5.484799953447799e-01 2.484191015008716e-01 0.000000000000000e+00
5.723496641560356e-01 2.548994095036696e-01 0.000000000000000e+00
5.945105212022127e-01 2.626702544663757e-01 0.000000000000000e+00
6.172441698627655e-01 2.745760312055197e-01 0.000000000000000e+00
6.373762904300639e-01 2.873393725557651e-01 0.000000000000000e+00
6.560124706124166e-01 3.021684583309169e-01 0.000000000000000e+00
6.733882921666023e-01 3.196715157800202e-01 0.000000000000000e+00
6.888106059668276e-01 3.380528531990067e-01 0.000000000000000e+00
7.023960152996470e-01 3.585470108304917e-01 0.000000000000000e+00
7.136606002022976e-01 3.794516042228815e-01 0.000000000000000e+00
7.241141246510702e-01 4.031695734976705e-01 0.000000000000000e+00
7.306122674885558e-01 4.255017210659706e-01 0.000000000000000e+00
7.365238818070262e-01 4.501499460880674e-01 0.000000000000000e+00
7.395714566696913e-01 4.749278784307770e-01 0.000000000000000e+00

POINT_DATA   64
SCALARS fNorm double
LOOKUP_TABLE default

4.968235e+01 
5.264920e+01 
7.134732e+01 
2.888066e+01 
8.054958e+01 
4.890392e+01 
5.576900e+01 
6.846489e+01 
5.105866e+01 
7.072943e+01 
6.372513e+01 
5.057876e+01 
8.883484e+01 
4.363896e+01 
6.988169e+01 
6.745275e+01 
4.699172e+01 
6.745275e+01 
6.988169e+01 
4.363896e+01 
8.883484e+01 
5.057876e+01 
6.372513e+01 
7.072943e+01 
5.105866e+01 
6.846489e+01 
5.576900e+01 
4.890392e+01 
8.054958e+01 
2.888066e+01 
7.134732e+01 
5.264920e+01 
4.968235e+01 
5.264920e+01 
7.134732e+01 
2.888066e+01 
8.054958e+01 
4.890392e+01 
5.576900e+01 
6.846489e+01 
5.105866e+01 
7.072943e+01 
6.372513e+01 
5.057876e+01 
8.883484e+01 
4.363896e+01 
6.988169e+01 
6.745275e+01 
4.699172e+01 
6.745275e+01 
6.988169e+01 
4.363896e+01 
8.883484e+01 
5.057876e+01 
6.372513e+01 
7.072943e+01 
5.105866e+01 
6.846489e+01 
5.576900e+01 
4.890392e+01 
8.054958e+01 
2.888066e+01 
7.134732e+01 
5.264920e+01 
