# vtk DataFile Version 2.0
fNorm
ASCII
DATASET UNSTRUCTURED_GRID

FIELD FieldData 1
TIME 1 1 double
0.08000000
POINTS 64 float
8.887072898438696e-01 5.000000000000000e-01 0.000000000000000e+00
8.863827267529638e-01 5.252979430434410e-01 0.000000000000000e+00
8.790902079643987e-01 5.500627489250663e-01 0.000000000000000e+00
8.664144975048728e-01 5.738041251227077e-01 0.000000000000000e+00
8.488511700904093e-01 5.956930573760054e-01 0.000000000000000e+00
8.271008561466251e-01 6.154797281829437e-01 0.000000000000000e+00
8.025454705011189e-01 6.329138968560133e-01 0.000000000000000e+00
7.753156672908398e-01 6.483832313734073e-01 0.000000000000000e+00
7.463319112267035e-01 6.610634814294073e-01 0.000000000000000e+00
7.169237199348900e-01 6.716711222148722e-01 0.000000000000000e+00
6.871476010212932e-01 6.803895206583688e-01 0.000000000000000e+00
6.564832295977732e-01 6.874151215147463e-01 0.000000000000000e+00
6.248071963365521e-01 6.926547788511875e-01 0.000000000000000e+00
5.932178757368746e-01 6.963829196004692e-01 0.000000000000000e+00
5.614219964950148e-01 6.989147277793809e-01 0.000000000000000e+00
5.304643274436167e-01 7.002868816894873e-01 0.000000000000000e+00
5.000000000000000e-01 7.006646895280103e-01 0.000000000000000e+00
4.695356725563842e-01 7.002868816894874e-01 0.000000000000000e+00
4.385780035049855e-01 6.989147277793809e-01 0.000000000000000e+00
4.067821242631256e-01 6.963829196004691e-01 0.000000000000000e+00
3.751928036634481e-01 6.926547788511880e-01 0.000000000000000e+00
3.435167704022274e-01 6.874151215147466e-01 0.000000000000000e+00
3.128523989787068e-01 6.803895206583689e-01 0.000000000000000e+00
2.830762800651105e-01 6.716711222148724e-01 0.000000000000000e+00
2.536680887732968e-01 6.610634814294075e-01 0.000000000000000e+00
2.246843327091606e-01 6.483832313734077e-01 0.000000000000000e+00
1.974545294988812e-01 6.329138968560135e-01 0.000000000000000e+00
1.728991438533750e-01 6.154797281829443e-01 0.000000000000000e+00
1.511488299095907e-01 5.956930573760056e-01 0.000000000000000e+00
1.335855024951270e-01 5.738041251227081e-01 0.000000000000000e+00
1.209097920356014e-01 5.500627489250665e-01 0.000000000000000e+00
1.136172732470363e-01 5.252979430434414e-01 0.000000000000000e+00
1.112927101561304e-01 5.000000000000000e-01 0.000000000000000e+00
1.136172732470363e-01 4.747020569565593e-01 0.000000000000000e+00
1.209097920356011e-01 4.499372510749336e-01 0.000000000000000e+00
1.335855024951268e-01 4.261958748772923e-01 0.000000000000000e+00
1.511488299095904e-01 4.043069426239946e-01 0.000000000000000e+00
1.728991438533748e-01 3.845202718170561e-01 0.000000000000000e+00
1.974545294988810e-01 3.670861031439867e-01 0.000000000000000e+00
2.246843327091601e-01 3.516167686265924e-01 0.000000000000000e+00
2.536680887732964e-01 3.389365185705926e-01 0.000000000000000e+00
2.830762800651099e-01 3.283288777851279e-01 0.000000000000000e+00
3.128523989787064e-01 3.196104793416312e-01 0.000000000000000e+00
3.435167704022272e-01 3.125848784852538e-01 0.000000000000000e+00
3.751928036634478e-01 3.073452211488123e-01 0.000000000000000e+00
4.067821242631254e-01 3.036170803995309e-01 0.000000000000000e+00
4.385780035049849e-01 3.010852722206190e-01 0.000000000000000e+00
4.695356725563837e-01 2.997131183105126e-01 0.000000000000000e+00
4.999999999999998e-01 2.993353104719895e-01 0.000000000000000e+00
5.304643274436164e-01 2.997131183105128e-01 0.000000000000000e+00
5.614219964950146e-01 3.010852722206190e-01 0.000000000000000e+00
5.932178757368742e-01 3.036170803995311e-01 0.000000000000000e+00
6.248071963365520e-01 3.073452211488122e-01 0.000000000000000e+00
6.564832295977726e-01 3.125848784852534e-01 0.000000000000000e+00
6.871476010212934e-01 3.196104793416309e-01 0.000000000000000e+00
7.169237199348898e-01 3.283288777851271e-01 0.000000000000000e+00
7.463319112267033e-01 3.389365185705926e-01 0.000000000000000e+00
7.753156672908392e-01 3.516167686265921e-01 0.000000000000000e+00
8.025454705011189e-01 3.670861031439868e-01 0.000000000000000e+00
8.271008561466247e-01 3.845202718170556e-01 0.000000000000000e+00
8.488511700904093e-01 4.043069426239946e-01 0.000000000000000e+00
8.664144975048726e-01 4.261958748772918e-01 0.000000000000000e+00
8.790902079643985e-01 4.499372510749335e-01 0.000000000000000e+00
8.863827267529638e-01 4.747020569565588e-01 0.000000000000000e+00

POINT_DATA   64
SCALARS fNorm double
LOOKUP_TABLE default

1.176479e+02 
1.247810e+02 
1.332322e+02 
1.279208e+02 
1.137886e+02 
9.082677e+01 
7.947369e+01 
8.443284e+01 
5.302413e+01 
4.751409e+01 
4.617480e+01 
4.891702e+01 
3.712980e+01 
2.890043e+01 
2.536861e+01 
2.318720e+01 
1.817543e+01 
2.318720e+01 
2.536861e+01 
2.890043e+01 
3.712980e+01 
4.891702e+01 
4.617480e+01 
4.751409e+01 
5.302413e+01 
8.443284e+01 
7.947369e+01 
9.082677e+01 
1.137886e+02 
1.279208e+02 
1.332322e+02 
1.247810e+02 
1.176479e+02 
1.247810e+02 
1.332322e+02 
1.279208e+02 
1.137886e+02 
9.082677e+01 
7.947369e+01 
8.443284e+01 
5.302413e+01 
4.751409e+01 
4.617480e+01 
4.891702e+01 
3.712980e+01 
2.890043e+01 
2.536861e+01 
2.318720e+01 
1.817543e+01 
2.318720e+01 
2.536861e+01 
2.890043e+01 
3.712980e+01 
4.891702e+01 
4.617480e+01 
4.751409e+01 
5.302413e+01 
8.443284e+01 
7.947369e+01 
9.082677e+01 
1.137886e+02 
1.279208e+02 
1.332322e+02 
1.247810e+02 
