# vtk DataFile Version 2.0
fNorm
ASCII
DATASET UNSTRUCTURED_GRID

FIELD FieldData 1
TIME 1 1 double
0.38000000
POINTS 64 float
8.034095355624413e-01 4.999999999999991e-01 0.000000000000000e+00
8.015638290575097e-01 5.278998311395234e-01 0.000000000000000e+00
7.969919655889176e-01 5.552849388564042e-01 0.000000000000000e+00
7.889312732979268e-01 5.818730078203534e-01 0.000000000000000e+00
7.774837381379347e-01 6.071630824198868e-01 0.000000000000000e+00
7.636230191148444e-01 6.304952853312119e-01 0.000000000000000e+00
7.472415264886353e-01 6.515705124350405e-01 0.000000000000000e+00
7.283523467420698e-01 6.710372471361303e-01 0.000000000000000e+00
7.072770660628070e-01 6.877925829916043e-01 0.000000000000000e+00
6.846954932360052e-01 7.024638381370649e-01 0.000000000000000e+00
6.600987010918973e-01 7.149462396568717e-01 0.000000000000000e+00
6.347613839859886e-01 7.250809133820386e-01 0.000000000000000e+00
6.086098315549779e-01 7.335061701125071e-01 0.000000000000000e+00
5.819533565474508e-01 7.395958398038970e-01 0.000000000000000e+00
5.549848486503016e-01 7.438945549194007e-01 0.000000000000000e+00
5.275422051525163e-01 7.462478806662480e-01 0.000000000000000e+00
4.999999999999996e-01 7.470650407542408e-01 0.000000000000000e+00
4.724577948474855e-01 7.462478806662485e-01 0.000000000000000e+00
4.450151513496985e-01 7.438945549194010e-01 0.000000000000000e+00
4.180466434525505e-01 7.395958398038975e-01 0.000000000000000e+00
3.913901684450225e-01 7.335061701125080e-01 0.000000000000000e+00
3.652386160140126e-01 7.250809133820396e-01 0.000000000000000e+00
3.399012989081031e-01 7.149462396568729e-01 0.000000000000000e+00
3.153045067639957e-01 7.024638381370658e-01 0.000000000000000e+00
2.927229339371937e-01 6.877925829916062e-01 0.000000000000000e+00
2.716476532579301e-01 6.710372471361319e-01 0.000000000000000e+00
2.527584735113651e-01 6.515705124350420e-01 0.000000000000000e+00
2.363769808851559e-01 6.304952853312144e-01 0.000000000000000e+00
2.225162618620651e-01 6.071630824198888e-01 0.000000000000000e+00
2.110687267020729e-01 5.818730078203564e-01 0.000000000000000e+00
2.030080344110816e-01 5.552849388564060e-01 0.000000000000000e+00
1.984361709424896e-01 5.278998311395265e-01 0.000000000000000e+00
1.965904644375576e-01 5.000000000000004e-01 0.000000000000000e+00
1.984361709424894e-01 4.721001688604765e-01 0.000000000000000e+00
2.030080344110813e-01 4.447150611435956e-01 0.000000000000000e+00
2.110687267020725e-01 4.181269921796459e-01 0.000000000000000e+00
2.225162618620646e-01 3.928369175801127e-01 0.000000000000000e+00
2.363769808851549e-01 3.695047146687881e-01 0.000000000000000e+00
2.527584735113640e-01 3.484294875649595e-01 0.000000000000000e+00
2.716476532579293e-01 3.289627528638698e-01 0.000000000000000e+00
2.927229339371919e-01 3.122074170083955e-01 0.000000000000000e+00
3.153045067639947e-01 2.975361618629349e-01 0.000000000000000e+00
3.399012989081014e-01 2.850537603431286e-01 0.000000000000000e+00
3.652386160140108e-01 2.749190866179610e-01 0.000000000000000e+00
3.913901684450209e-01 2.664938298874929e-01 0.000000000000000e+00
4.180466434525481e-01 2.604041601961030e-01 0.000000000000000e+00
4.450151513496970e-01 2.561054450805991e-01 0.000000000000000e+00
4.724577948474830e-01 2.537521193337519e-01 0.000000000000000e+00
4.999999999999982e-01 2.529349592457589e-01 0.000000000000000e+00
5.275422051525138e-01 2.537521193337517e-01 0.000000000000000e+00
5.549848486502996e-01 2.561054450805990e-01 0.000000000000000e+00
5.819533565474486e-01 2.604041601961029e-01 0.000000000000000e+00
6.086098315549762e-01 2.664938298874926e-01 0.000000000000000e+00
6.347613839859867e-01 2.749190866179606e-01 0.000000000000000e+00
6.600987010918957e-01 2.850537603431276e-01 0.000000000000000e+00
6.846954932360032e-01 2.975361618629340e-01 0.000000000000000e+00
7.072770660628055e-01 3.122074170083941e-01 0.000000000000000e+00
7.283523467420685e-01 3.289627528638682e-01 0.000000000000000e+00
7.472415264886338e-01 3.484294875649582e-01 0.000000000000000e+00
7.636230191148428e-01 3.695047146687863e-01 0.000000000000000e+00
7.774837381379338e-01 3.928369175801114e-01 0.000000000000000e+00
7.889312732979258e-01 4.181269921796441e-01 0.000000000000000e+00
7.969919655889176e-01 4.447150611435940e-01 0.000000000000000e+00
8.015638290575094e-01 4.721001688604736e-01 0.000000000000000e+00

POINT_DATA   64
SCALARS fNorm double
LOOKUP_TABLE default

9.194278e+01 
6.856553e+01 
8.852511e+01 
9.000338e+01 
7.586364e+01 
8.342700e+01 
7.347602e+01 
8.679515e+01 
6.409769e+01 
7.274633e+01 
6.150126e+01 
4.802347e+01 
6.018193e+01 
4.492499e+01 
5.032148e+01 
3.927552e+01 
4.134330e+01 
3.927552e+01 
5.032148e+01 
4.492499e+01 
6.018193e+01 
4.802347e+01 
6.150126e+01 
7.274633e+01 
6.409769e+01 
8.679515e+01 
7.347602e+01 
8.342700e+01 
7.586364e+01 
9.000338e+01 
8.852511e+01 
6.856553e+01 
9.194278e+01 
6.856553e+01 
8.852511e+01 
9.000338e+01 
7.586364e+01 
8.342700e+01 
7.347602e+01 
8.679515e+01 
6.409769e+01 
7.274633e+01 
6.150126e+01 
4.802347e+01 
6.018193e+01 
4.492499e+01 
5.032148e+01 
3.927552e+01 
4.134330e+01 
3.927552e+01 
5.032148e+01 
4.492499e+01 
6.018193e+01 
4.802347e+01 
6.150126e+01 
7.274633e+01 
6.409769e+01 
8.679515e+01 
7.347602e+01 
8.342700e+01 
7.586364e+01 
9.000338e+01 
8.852511e+01 
6.856553e+01 
