# vtk DataFile Version 2.0
fNorm
ASCII
DATASET UNSTRUCTURED_GRID

FIELD FieldData 1
TIME 1 1 double
1.06000000
POINTS 64 float
7.419654333412445e-01 5.000000000000007e-01 0.000000000000000e+00
7.409431132950334e-01 5.242218265715636e-01 0.000000000000000e+00
7.376900222050629e-01 5.475120544584611e-01 0.000000000000000e+00
7.310852636477794e-01 5.715589266762143e-01 0.000000000000000e+00
7.245219501774803e-01 5.916366970877560e-01 0.000000000000000e+00
7.137977704835390e-01 6.139197500967574e-01 0.000000000000000e+00
7.016949385153667e-01 6.333795074340343e-01 0.000000000000000e+00
6.870922174276231e-01 6.529448407555180e-01 0.000000000000000e+00
6.718574355908713e-01 6.691494858734152e-01 0.000000000000000e+00
6.541093970221912e-01 6.850130920973108e-01 0.000000000000000e+00
6.346049861424302e-01 6.992729177907325e-01 0.000000000000000e+00
6.154279836330941e-01 7.098122823457955e-01 0.000000000000000e+00
5.923610810761619e-01 7.210787400558961e-01 0.000000000000000e+00
5.712901579591659e-01 7.277461262811432e-01 0.000000000000000e+00
5.473623155874860e-01 7.334644172298921e-01 0.000000000000000e+00
5.241583562489843e-01 7.369311259040979e-01 0.000000000000000e+00
4.999999999999978e-01 7.380005152868865e-01 0.000000000000000e+00
4.758416437510077e-01 7.369311259040978e-01 0.000000000000000e+00
4.526376844125083e-01 7.334644172298916e-01 0.000000000000000e+00
4.287098420408247e-01 7.277461262811381e-01 0.000000000000000e+00
4.076389189238417e-01 7.210787400559034e-01 0.000000000000000e+00
3.845720163669006e-01 7.098122823457929e-01 0.000000000000000e+00
3.653950138575740e-01 6.992729177907375e-01 0.000000000000000e+00
3.458906029778116e-01 6.850130920973155e-01 0.000000000000000e+00
3.281425644091322e-01 6.691494858734175e-01 0.000000000000000e+00
3.129077825723801e-01 6.529448407555209e-01 0.000000000000000e+00
2.983050614846375e-01 6.333795074340376e-01 0.000000000000000e+00
2.862022295164673e-01 6.139197500967626e-01 0.000000000000000e+00
2.754780498225206e-01 5.916366970877552e-01 0.000000000000000e+00
2.689147363522287e-01 5.715589266762224e-01 0.000000000000000e+00
2.623099777949429e-01 5.475120544584663e-01 0.000000000000000e+00
2.590568867049713e-01 5.242218265715693e-01 0.000000000000000e+00
2.580345666587598e-01 5.000000000000054e-01 0.000000000000000e+00
2.590568867049711e-01 4.757781734284422e-01 0.000000000000000e+00
2.623099777949419e-01 4.524879455415459e-01 0.000000000000000e+00
2.689147363522272e-01 4.284410733237894e-01 0.000000000000000e+00
2.754780498225203e-01 4.083633029122551e-01 0.000000000000000e+00
2.862022295164647e-01 3.860802499032497e-01 0.000000000000000e+00
2.983050614846355e-01 3.666204925659741e-01 0.000000000000000e+00
3.129077825723786e-01 3.470551592444903e-01 0.000000000000000e+00
3.281425644091309e-01 3.308505141265928e-01 0.000000000000000e+00
3.458906029778101e-01 3.149869079026966e-01 0.000000000000000e+00
3.653950138575723e-01 3.007270822092744e-01 0.000000000000000e+00
3.845720163669049e-01 2.901877176542141e-01 0.000000000000000e+00
4.076389189238405e-01 2.789212599441092e-01 0.000000000000000e+00
4.287098420408307e-01 2.722538737188669e-01 0.000000000000000e+00
4.526376844125128e-01 2.665355827701157e-01 0.000000000000000e+00
4.758416437510130e-01 2.630688740959098e-01 0.000000000000000e+00
5.000000000000020e-01 2.619994847131208e-01 0.000000000000000e+00
5.241583562489907e-01 2.630688740959097e-01 0.000000000000000e+00
5.473623155874913e-01 2.665355827701149e-01 0.000000000000000e+00
5.712901579591748e-01 2.722538737188669e-01 0.000000000000000e+00
5.923610810761611e-01 2.789212599441059e-01 0.000000000000000e+00
6.154279836331003e-01 2.901877176542130e-01 0.000000000000000e+00
6.346049861424294e-01 3.007270822092713e-01 0.000000000000000e+00
6.541093970221920e-01 3.149869079026927e-01 0.000000000000000e+00
6.718574355908719e-01 3.308505141265909e-01 0.000000000000000e+00
6.870922174276246e-01 3.470551592444877e-01 0.000000000000000e+00
7.016949385153678e-01 3.666204925659721e-01 0.000000000000000e+00
7.137977704835372e-01 3.860802499032455e-01 0.000000000000000e+00
7.245219501774856e-01 4.083633029122550e-01 0.000000000000000e+00
7.310852636477733e-01 4.284410733237817e-01 0.000000000000000e+00
7.376900222050611e-01 4.524879455415404e-01 0.000000000000000e+00
7.409431132950327e-01 4.757781734284366e-01 0.000000000000000e+00

POINT_DATA   64
SCALARS fNorm double
LOOKUP_TABLE default

5.142833e+01 
5.794725e+01 
7.862251e+01 
2.744841e+01 
7.555977e+01 
6.419141e+01 
5.051522e+01 
6.580945e+01 
4.997761e+01 
5.877588e+01 
7.375344e+01 
2.842956e+01 
8.685606e+01 
4.184201e+01 
5.180037e+01 
6.172028e+01 
5.317789e+01 
6.172028e+01 
5.180037e+01 
4.184201e+01 
8.685606e+01 
2.842956e+01 
7.375344e+01 
5.877588e+01 
4.997761e+01 
6.580945e+01 
5.051522e+01 
6.419141e+01 
7.555977e+01 
2.744841e+01 
7.862251e+01 
5.794725e+01 
5.142833e+01 
5.794725e+01 
7.862251e+01 
2.744841e+01 
7.555977e+01 
6.419141e+01 
5.051522e+01 
6.580945e+01 
4.997761e+01 
5.877588e+01 
7.375344e+01 
2.842956e+01 
8.685606e+01 
4.184201e+01 
5.180037e+01 
6.172028e+01 
5.317789e+01 
6.172028e+01 
5.180037e+01 
4.184201e+01 
8.685606e+01 
2.842956e+01 
7.375344e+01 
5.877588e+01 
4.997761e+01 
6.580945e+01 
5.051522e+01 
6.419141e+01 
7.555977e+01 
2.744841e+01 
7.862251e+01 
5.794725e+01 
