# vtk DataFile Version 2.0
fNorm
ASCII
DATASET UNSTRUCTURED_GRID

FIELD FieldData 1
TIME 1 1 double
0.70000000
POINTS 64 float
7.848800073610572e-01 5.000000000000014e-01 0.000000000000000e+00
7.831226763433219e-01 5.255777482075554e-01 0.000000000000000e+00
7.787804750861997e-01 5.504800017122328e-01 0.000000000000000e+00
7.714381752574050e-01 5.752609979754627e-01 0.000000000000000e+00
7.611704452469170e-01 5.983873161480207e-01 0.000000000000000e+00
7.482206296068287e-01 6.207578145808297e-01 0.000000000000000e+00
7.331783407166491e-01 6.409381064417098e-01 0.000000000000000e+00
7.154617885646050e-01 6.598501956812868e-01 0.000000000000000e+00
6.959405462115374e-01 6.762128955506886e-01 0.000000000000000e+00
6.750433479146264e-01 6.910265779805798e-01 0.000000000000000e+00
6.526137241433647e-01 7.036605544880072e-01 0.000000000000000e+00
6.285096649382050e-01 7.151067582643993e-01 0.000000000000000e+00
6.047228554392415e-01 7.234508502461803e-01 0.000000000000000e+00
5.786914289455914e-01 7.308048183073811e-01 0.000000000000000e+00
5.532625767651453e-01 7.354684506368305e-01 0.000000000000000e+00
5.266261686065810e-01 7.384549430869087e-01 0.000000000000000e+00
4.999999999999991e-01 7.395909462161164e-01 0.000000000000000e+00
4.733738313934158e-01 7.384549430869085e-01 0.000000000000000e+00
4.467374232348526e-01 7.354684506368310e-01 0.000000000000000e+00
4.213085710544049e-01 7.308048183073800e-01 0.000000000000000e+00
3.952771445607568e-01 7.234508502461815e-01 0.000000000000000e+00
3.714903350617899e-01 7.151067582643967e-01 0.000000000000000e+00
3.473862758566329e-01 7.036605544880071e-01 0.000000000000000e+00
3.249566520853705e-01 6.910265779805784e-01 0.000000000000000e+00
3.040594537884598e-01 6.762128955506878e-01 0.000000000000000e+00
2.845382114353915e-01 6.598501956812844e-01 0.000000000000000e+00
2.668216592833484e-01 6.409381064417086e-01 0.000000000000000e+00
2.517793703931689e-01 6.207578145808286e-01 0.000000000000000e+00
2.388295547530800e-01 5.983873161480192e-01 0.000000000000000e+00
2.285618247425925e-01 5.752609979754609e-01 0.000000000000000e+00
2.212195249137975e-01 5.504800017122312e-01 0.000000000000000e+00
2.168773236566758e-01 5.255777482075539e-01 0.000000000000000e+00
2.151199926389405e-01 4.999999999999996e-01 0.000000000000000e+00
2.168773236566760e-01 4.744222517924451e-01 0.000000000000000e+00
2.212195249137976e-01 4.495199982877683e-01 0.000000000000000e+00
2.285618247425928e-01 4.247390020245383e-01 0.000000000000000e+00
2.388295547530800e-01 4.016126838519803e-01 0.000000000000000e+00
2.517793703931696e-01 3.792421854191710e-01 0.000000000000000e+00
2.668216592833488e-01 3.590618935582906e-01 0.000000000000000e+00
2.845382114353927e-01 3.401498043187146e-01 0.000000000000000e+00
3.040594537884606e-01 3.237871044493119e-01 0.000000000000000e+00
3.249566520853714e-01 3.089734220194210e-01 0.000000000000000e+00
3.473862758566330e-01 2.963394455119934e-01 0.000000000000000e+00
3.714903350617916e-01 2.848932417356024e-01 0.000000000000000e+00
3.952771445607566e-01 2.765491497538194e-01 0.000000000000000e+00
4.213085710544059e-01 2.691951816926200e-01 0.000000000000000e+00
4.467374232348529e-01 2.645315493631699e-01 0.000000000000000e+00
4.733738313934165e-01 2.615450569130917e-01 0.000000000000000e+00
4.999999999999995e-01 2.604090537838847e-01 0.000000000000000e+00
5.266261686065816e-01 2.615450569130919e-01 0.000000000000000e+00
5.532625767651455e-01 2.645315493631702e-01 0.000000000000000e+00
5.786914289455927e-01 2.691951816926205e-01 0.000000000000000e+00
6.047228554392411e-01 2.765491497538198e-01 0.000000000000000e+00
6.285096649382075e-01 2.848932417356038e-01 0.000000000000000e+00
6.526137241433649e-01 2.963394455119938e-01 0.000000000000000e+00
6.750433479146273e-01 3.089734220194222e-01 0.000000000000000e+00
6.959405462115381e-01 3.237871044493127e-01 0.000000000000000e+00
7.154617885646061e-01 3.401498043187156e-01 0.000000000000000e+00
7.331783407166501e-01 3.590618935582917e-01 0.000000000000000e+00
7.482206296068286e-01 3.792421854191718e-01 0.000000000000000e+00
7.611704452469185e-01 4.016126838519815e-01 0.000000000000000e+00
7.714381752574053e-01 4.247390020245396e-01 0.000000000000000e+00
7.787804750862005e-01 4.495199982877694e-01 0.000000000000000e+00
7.831226763433218e-01 4.744222517924466e-01 0.000000000000000e+00

POINT_DATA   64
SCALARS fNorm double
LOOKUP_TABLE default

8.768444e+01 
6.585725e+01 
7.335297e+01 
8.252485e+01 
6.785125e+01 
7.346603e+01 
7.152136e+01 
7.773546e+01 
5.137384e+01 
6.661058e+01 
4.660157e+01 
6.892044e+01 
3.993021e+01 
6.239147e+01 
4.574795e+01 
4.649623e+01 
5.759106e+01 
4.649623e+01 
4.574795e+01 
6.239147e+01 
3.993021e+01 
6.892044e+01 
4.660157e+01 
6.661058e+01 
5.137384e+01 
7.773546e+01 
7.152136e+01 
7.346603e+01 
6.785125e+01 
8.252485e+01 
7.335297e+01 
6.585725e+01 
8.768444e+01 
6.585725e+01 
7.335297e+01 
8.252485e+01 
6.785125e+01 
7.346603e+01 
7.152136e+01 
7.773546e+01 
5.137384e+01 
6.661058e+01 
4.660157e+01 
6.892044e+01 
3.993021e+01 
6.239147e+01 
4.574795e+01 
4.649623e+01 
5.759106e+01 
4.649623e+01 
4.574795e+01 
6.239147e+01 
3.993021e+01 
6.892044e+01 
4.660157e+01 
6.661058e+01 
5.137384e+01 
7.773546e+01 
7.152136e+01 
7.346603e+01 
6.785125e+01 
8.252485e+01 
7.335297e+01 
6.585725e+01 
