# vtk DataFile Version 2.0
fNorm
ASCII
DATASET UNSTRUCTURED_GRID

FIELD FieldData 1
TIME 1 1 double
0.52000000
POINTS 64 float
7.602219755954822e-01 5.000000000000000e-01 0.000000000000000e+00
7.589055432572602e-01 5.277018150294484e-01 0.000000000000000e+00
7.557787275377750e-01 5.549053703874434e-01 0.000000000000000e+00
7.498125175114739e-01 5.818695302746315e-01 0.000000000000000e+00
7.415718317624147e-01 6.077236090884022e-01 0.000000000000000e+00
7.312638237889285e-01 6.328146714254770e-01 0.000000000000000e+00
7.182462744390333e-01 6.563906556600726e-01 0.000000000000000e+00
7.041961922002397e-01 6.785302836070726e-01 0.000000000000000e+00
6.872778679697216e-01 6.988579110630593e-01 0.000000000000000e+00
6.685614975824169e-01 7.173290607648006e-01 0.000000000000000e+00
6.482089537165669e-01 7.332078087394013e-01 0.000000000000000e+00
6.266113472643459e-01 7.466872640932272e-01 0.000000000000000e+00
6.023740128762367e-01 7.587677241789661e-01 0.000000000000000e+00
5.786075448199521e-01 7.672350408722834e-01 0.000000000000000e+00
5.525856445308477e-01 7.740247750360540e-01 0.000000000000000e+00
5.266101422599706e-01 7.777008608638862e-01 0.000000000000000e+00
4.999999999999993e-01 7.787287655090467e-01 0.000000000000000e+00
4.733898577400282e-01 7.777008608638865e-01 0.000000000000000e+00
4.474143554691511e-01 7.740247750360546e-01 0.000000000000000e+00
4.213924551800464e-01 7.672350408722830e-01 0.000000000000000e+00
3.976259871237627e-01 7.587677241789678e-01 0.000000000000000e+00
3.733886527356524e-01 7.466872640932272e-01 0.000000000000000e+00
3.517910462834317e-01 7.332078087394025e-01 0.000000000000000e+00
3.314385024175817e-01 7.173290607648012e-01 0.000000000000000e+00
3.127221320302770e-01 6.988579110630606e-01 0.000000000000000e+00
2.958038077997590e-01 6.785302836070735e-01 0.000000000000000e+00
2.817537255609654e-01 6.563906556600740e-01 0.000000000000000e+00
2.687361762110698e-01 6.328146714254781e-01 0.000000000000000e+00
2.584281682375838e-01 6.077236090884033e-01 0.000000000000000e+00
2.501874824885242e-01 5.818695302746327e-01 0.000000000000000e+00
2.442212724622229e-01 5.549053703874443e-01 0.000000000000000e+00
2.410944567427382e-01 5.277018150294501e-01 0.000000000000000e+00
2.397780244045158e-01 5.000000000000004e-01 0.000000000000000e+00
2.410944567427383e-01 4.722981849705515e-01 0.000000000000000e+00
2.442212724622228e-01 4.450946296125570e-01 0.000000000000000e+00
2.501874824885243e-01 4.181304697253684e-01 0.000000000000000e+00
2.584281682375834e-01 3.922763909115979e-01 0.000000000000000e+00
2.687361762110694e-01 3.671853285745230e-01 0.000000000000000e+00
2.817537255609648e-01 3.436093443399270e-01 0.000000000000000e+00
2.958038077997585e-01 3.214697163929277e-01 0.000000000000000e+00
3.127221320302763e-01 3.011420889369408e-01 0.000000000000000e+00
3.314385024175814e-01 2.826709392351998e-01 0.000000000000000e+00
3.517910462834311e-01 2.667921912605989e-01 0.000000000000000e+00
3.733886527356520e-01 2.533127359067732e-01 0.000000000000000e+00
3.976259871237616e-01 2.412322758210334e-01 0.000000000000000e+00
4.213924551800458e-01 2.327649591277172e-01 0.000000000000000e+00
4.474143554691503e-01 2.259752249639462e-01 0.000000000000000e+00
4.733898577400272e-01 2.222991391361137e-01 0.000000000000000e+00
4.999999999999984e-01 2.212712344909538e-01 0.000000000000000e+00
5.266101422599695e-01 2.222991391361136e-01 0.000000000000000e+00
5.525856445308472e-01 2.259752249639461e-01 0.000000000000000e+00
5.786075448199516e-01 2.327649591277168e-01 0.000000000000000e+00
6.023740128762363e-01 2.412322758210331e-01 0.000000000000000e+00
6.266113472643458e-01 2.533127359067729e-01 0.000000000000000e+00
6.482089537165663e-01 2.667921912605981e-01 0.000000000000000e+00
6.685614975824167e-01 2.826709392351993e-01 0.000000000000000e+00
6.872778679697210e-01 3.011420889369402e-01 0.000000000000000e+00
7.041961922002393e-01 3.214697163929272e-01 0.000000000000000e+00
7.182462744390331e-01 3.436093443399270e-01 0.000000000000000e+00
7.312638237889280e-01 3.671853285745224e-01 0.000000000000000e+00
7.415718317624145e-01 3.922763909115974e-01 0.000000000000000e+00
7.498125175114736e-01 4.181304697253673e-01 0.000000000000000e+00
7.557787275377756e-01 4.450946296125565e-01 0.000000000000000e+00
7.589055432572601e-01 4.722981849705497e-01 0.000000000000000e+00

POINT_DATA   64
SCALARS fNorm double
LOOKUP_TABLE default

6.486013e+01 
4.586091e+01 
7.116491e+01 
6.158274e+01 
5.512964e+01 
7.710572e+01 
3.984623e+01 
8.442197e+01 
6.451232e+01 
7.600636e+01 
6.720604e+01 
6.235864e+01 
7.910015e+01 
5.760999e+01 
7.673054e+01 
6.739079e+01 
5.115684e+01 
6.739079e+01 
7.673054e+01 
5.760999e+01 
7.910015e+01 
6.235864e+01 
6.720604e+01 
7.600636e+01 
6.451232e+01 
8.442197e+01 
3.984623e+01 
7.710572e+01 
5.512964e+01 
6.158274e+01 
7.116491e+01 
4.586091e+01 
6.486013e+01 
4.586091e+01 
7.116491e+01 
6.158274e+01 
5.512964e+01 
7.710572e+01 
3.984623e+01 
8.442197e+01 
6.451232e+01 
7.600636e+01 
6.720604e+01 
6.235864e+01 
7.910015e+01 
5.760999e+01 
7.673054e+01 
6.739079e+01 
5.115684e+01 
6.739079e+01 
7.673054e+01 
5.760999e+01 
7.910015e+01 
6.235864e+01 
6.720604e+01 
7.600636e+01 
6.451232e+01 
8.442197e+01 
3.984623e+01 
7.710572e+01 
5.512964e+01 
6.158274e+01 
7.116491e+01 
4.586091e+01 
