# vtk DataFile Version 2.0
fNorm
ASCII
DATASET UNSTRUCTURED_GRID

FIELD FieldData 1
TIME 1 1 double
0.06000000
POINTS 64 float
8.474335316906457e-01 5.000000000000000e-01 0.000000000000000e+00
8.448783675400656e-01 5.350973877354939e-01 0.000000000000000e+00
8.374332872789229e-01 5.685049745733293e-01 0.000000000000000e+00
8.252812692276145e-01 5.987502186089931e-01 0.000000000000000e+00
8.090231349685092e-01 6.251716582246574e-01 0.000000000000000e+00
7.894235406901543e-01 6.471852458545229e-01 0.000000000000000e+00
7.674090062403891e-01 6.645316968509776e-01 0.000000000000000e+00
7.439262156356122e-01 6.778091801372604e-01 0.000000000000000e+00
7.190008783138023e-01 6.876145525859984e-01 0.000000000000000e+00
6.926329586626491e-01 6.954693398968688e-01 0.000000000000000e+00
6.646526661173219e-01 7.015691800492054e-01 0.000000000000000e+00
6.363101553590839e-01 7.057639297059917e-01 0.000000000000000e+00
6.081981573371436e-01 7.083612884630992e-01 0.000000000000000e+00
5.813736544418857e-01 7.098868903304778e-01 0.000000000000000e+00
5.548494910280921e-01 7.107432173071541e-01 0.000000000000000e+00
5.279167156293969e-01 7.111443803645556e-01 0.000000000000000e+00
5.000000000000000e-01 7.112161754343657e-01 0.000000000000000e+00
4.720832843706034e-01 7.111443803645556e-01 0.000000000000000e+00
4.451505089719082e-01 7.107432173071538e-01 0.000000000000000e+00
4.186263455581147e-01 7.098868903304776e-01 0.000000000000000e+00
3.918018426628569e-01 7.083612884630994e-01 0.000000000000000e+00
3.636898446409160e-01 7.057639297059920e-01 0.000000000000000e+00
3.353473338826785e-01 7.015691800492053e-01 0.000000000000000e+00
3.073670413373512e-01 6.954693398968689e-01 0.000000000000000e+00
2.809991216861976e-01 6.876145525859981e-01 0.000000000000000e+00
2.560737843643881e-01 6.778091801372607e-01 0.000000000000000e+00
2.325909937596111e-01 6.645316968509777e-01 0.000000000000000e+00
2.105764593098457e-01 6.471852458545230e-01 0.000000000000000e+00
1.909768650314910e-01 6.251716582246576e-01 0.000000000000000e+00
1.747187307723855e-01 5.987502186089934e-01 0.000000000000000e+00
1.625667127210771e-01 5.685049745733294e-01 0.000000000000000e+00
1.551216324599342e-01 5.350973877354943e-01 0.000000000000000e+00
1.525664683093542e-01 5.000000000000000e-01 0.000000000000000e+00
1.551216324599342e-01 4.649026122645060e-01 0.000000000000000e+00
1.625667127210771e-01 4.314950254266708e-01 0.000000000000000e+00
1.747187307723853e-01 4.012497813910070e-01 0.000000000000000e+00
1.909768650314910e-01 3.748283417753426e-01 0.000000000000000e+00
2.105764593098456e-01 3.528147541454772e-01 0.000000000000000e+00
2.325909937596108e-01 3.354683031490225e-01 0.000000000000000e+00
2.560737843643878e-01 3.221908198627396e-01 0.000000000000000e+00
2.809991216861973e-01 3.123854474140016e-01 0.000000000000000e+00
3.073670413373510e-01 3.045306601031313e-01 0.000000000000000e+00
3.353473338826781e-01 2.984308199507947e-01 0.000000000000000e+00
3.636898446409160e-01 2.942360702940081e-01 0.000000000000000e+00
3.918018426628564e-01 2.916387115369009e-01 0.000000000000000e+00
4.186263455581143e-01 2.901131096695222e-01 0.000000000000000e+00
4.451505089719080e-01 2.892567826928459e-01 0.000000000000000e+00
4.720832843706030e-01 2.888556196354443e-01 0.000000000000000e+00
4.999999999999998e-01 2.887838245656342e-01 0.000000000000000e+00
5.279167156293966e-01 2.888556196354444e-01 0.000000000000000e+00
5.548494910280919e-01 2.892567826928457e-01 0.000000000000000e+00
5.813736544418854e-01 2.901131096695223e-01 0.000000000000000e+00
6.081981573371432e-01 2.916387115369007e-01 0.000000000000000e+00
6.363101553590836e-01 2.942360702940080e-01 0.000000000000000e+00
6.646526661173217e-01 2.984308199507946e-01 0.000000000000000e+00
6.926329586626485e-01 3.045306601031311e-01 0.000000000000000e+00
7.190008783138028e-01 3.123854474140019e-01 0.000000000000000e+00
7.439262156356121e-01 3.221908198627396e-01 0.000000000000000e+00
7.674090062403892e-01 3.354683031490229e-01 0.000000000000000e+00
7.894235406901542e-01 3.528147541454768e-01 0.000000000000000e+00
8.090231349685091e-01 3.748283417753426e-01 0.000000000000000e+00
8.252812692276145e-01 4.012497813910066e-01 0.000000000000000e+00
8.374332872789229e-01 4.314950254266708e-01 0.000000000000000e+00
8.448783675400656e-01 4.649026122645057e-01 0.000000000000000e+00

POINT_DATA   64
SCALARS fNorm double
LOOKUP_TABLE default

1.252527e+02 
1.250731e+02 
1.340292e+02 
1.327519e+02 
1.328171e+02 
1.273057e+02 
1.056771e+02 
9.409504e+01 
5.731926e+01 
5.207956e+01 
4.859851e+01 
3.958386e+01 
2.501947e+01 
1.671071e+01 
1.182710e+01 
9.161575e+00 
4.727726e+00 
9.161575e+00 
1.182710e+01 
1.671071e+01 
2.501947e+01 
3.958386e+01 
4.859851e+01 
5.207956e+01 
5.731926e+01 
9.409504e+01 
1.056771e+02 
1.273057e+02 
1.328171e+02 
1.327519e+02 
1.340292e+02 
1.250731e+02 
1.252527e+02 
1.250731e+02 
1.340292e+02 
1.327519e+02 
1.328171e+02 
1.273057e+02 
1.056771e+02 
9.409504e+01 
5.731926e+01 
5.207956e+01 
4.859851e+01 
3.958386e+01 
2.501947e+01 
1.671071e+01 
1.182710e+01 
9.161575e+00 
4.727726e+00 
9.161575e+00 
1.182710e+01 
1.671071e+01 
2.501947e+01 
3.958386e+01 
4.859851e+01 
5.207956e+01 
5.731926e+01 
9.409504e+01 
1.056771e+02 
1.273057e+02 
1.328171e+02 
1.327519e+02 
1.340292e+02 
1.250731e+02 
