# vtk DataFile Version 2.0
fNorm
ASCII
DATASET UNSTRUCTURED_GRID

FIELD FieldData 1
TIME 1 1 double
0.24000000
POINTS 64 float
8.533870458585702e-01 4.999999999999991e-01 0.000000000000000e+00
8.509794773155528e-01 5.264081913390455e-01 0.000000000000000e+00
8.442329388532315e-01 5.526065730136765e-01 0.000000000000000e+00
8.333238764532491e-01 5.775300437049908e-01 0.000000000000000e+00
8.183822745887680e-01 6.006367122047859e-01 0.000000000000000e+00
8.000538798258990e-01 6.218311674110160e-01 0.000000000000000e+00
7.791896981954129e-01 6.405665523295803e-01 0.000000000000000e+00
7.560974063171519e-01 6.571605012271610e-01 0.000000000000000e+00
7.309464445866654e-01 6.716868778271227e-01 0.000000000000000e+00
7.047177347158661e-01 6.839073702781436e-01 0.000000000000000e+00
6.772708343338943e-01 6.940312532909638e-01 0.000000000000000e+00
6.489921461077583e-01 7.016323221857159e-01 0.000000000000000e+00
6.195309618873296e-01 7.079823778027027e-01 0.000000000000000e+00
5.899063870569174e-01 7.124439973559125e-01 0.000000000000000e+00
5.597748307241520e-01 7.158473342741892e-01 0.000000000000000e+00
5.298712955242365e-01 7.176733418765667e-01 0.000000000000000e+00
5.000000000000000e-01 7.182020083983159e-01 0.000000000000000e+00
4.701287044757656e-01 7.176733418765670e-01 0.000000000000000e+00
4.402251692758484e-01 7.158473342741895e-01 0.000000000000000e+00
4.100936129430848e-01 7.124439973559121e-01 0.000000000000000e+00
3.804690381126707e-01 7.079823778027032e-01 0.000000000000000e+00
3.510078538922429e-01 7.016323221857157e-01 0.000000000000000e+00
3.227291656661067e-01 6.940312532909646e-01 0.000000000000000e+00
2.952822652841345e-01 6.839073702781442e-01 0.000000000000000e+00
2.690535554133356e-01 6.716868778271240e-01 0.000000000000000e+00
2.439025936828487e-01 6.571605012271620e-01 0.000000000000000e+00
2.208103018045879e-01 6.405665523295815e-01 0.000000000000000e+00
1.999461201741019e-01 6.218311674110174e-01 0.000000000000000e+00
1.816177254112325e-01 6.006367122047874e-01 0.000000000000000e+00
1.666761235467513e-01 5.775300437049924e-01 0.000000000000000e+00
1.557670611467685e-01 5.526065730136777e-01 0.000000000000000e+00
1.490205226844473e-01 5.264081913390473e-01 0.000000000000000e+00
1.466129541414294e-01 5.000000000000004e-01 0.000000000000000e+00
1.490205226844470e-01 4.735918086609544e-01 0.000000000000000e+00
1.557670611467680e-01 4.473934269863233e-01 0.000000000000000e+00
1.666761235467507e-01 4.224699562950089e-01 0.000000000000000e+00
1.816177254112318e-01 3.993632877952135e-01 0.000000000000000e+00
1.999461201741006e-01 3.781688325889839e-01 0.000000000000000e+00
2.208103018045867e-01 3.594334476704190e-01 0.000000000000000e+00
2.439025936828474e-01 3.428394987728388e-01 0.000000000000000e+00
2.690535554133336e-01 3.283131221728769e-01 0.000000000000000e+00
2.952822652841334e-01 3.160926297218559e-01 0.000000000000000e+00
3.227291656661049e-01 3.059687467090357e-01 0.000000000000000e+00
3.510078538922416e-01 2.983676778142839e-01 0.000000000000000e+00
3.804690381126692e-01 2.920176221972970e-01 0.000000000000000e+00
4.100936129430830e-01 2.875560026440874e-01 0.000000000000000e+00
4.402251692758470e-01 2.841526657258106e-01 0.000000000000000e+00
4.701287044757636e-01 2.823266581234330e-01 0.000000000000000e+00
4.999999999999989e-01 2.817979916016837e-01 0.000000000000000e+00
5.298712955242342e-01 2.823266581234328e-01 0.000000000000000e+00
5.597748307241506e-01 2.841526657258104e-01 0.000000000000000e+00
5.899063870569154e-01 2.875560026440871e-01 0.000000000000000e+00
6.195309618873286e-01 2.920176221972967e-01 0.000000000000000e+00
6.489921461077564e-01 2.983676778142832e-01 0.000000000000000e+00
6.772708343338929e-01 3.059687467090350e-01 0.000000000000000e+00
7.047177347158646e-01 3.160926297218551e-01 0.000000000000000e+00
7.309464445866641e-01 3.283131221728758e-01 0.000000000000000e+00
7.560974063171504e-01 3.428394987728373e-01 0.000000000000000e+00
7.791896981954116e-01 3.594334476704181e-01 0.000000000000000e+00
8.000538798258976e-01 3.781688325889827e-01 0.000000000000000e+00
8.183822745887668e-01 3.993632877952123e-01 0.000000000000000e+00
8.333238764532481e-01 4.224699562950073e-01 0.000000000000000e+00
8.442329388532313e-01 4.473934269863217e-01 0.000000000000000e+00
8.509794773155525e-01 4.735918086609523e-01 0.000000000000000e+00

POINT_DATA   64
SCALARS fNorm double
LOOKUP_TABLE default

1.207075e+02 
1.071118e+02 
1.067613e+02 
1.094126e+02 
9.605295e+01 
8.796994e+01 
7.622775e+01 
7.081106e+01 
6.391262e+01 
6.122116e+01 
6.653514e+01 
3.746148e+01 
4.871682e+01 
2.888057e+01 
3.820735e+01 
3.204116e+01 
2.681061e+01 
3.204116e+01 
3.820735e+01 
2.888057e+01 
4.871682e+01 
3.746148e+01 
6.653514e+01 
6.122116e+01 
6.391262e+01 
7.081106e+01 
7.622775e+01 
8.796994e+01 
9.605295e+01 
1.094126e+02 
1.067613e+02 
1.071118e+02 
1.207075e+02 
1.071118e+02 
1.067613e+02 
1.094126e+02 
9.605295e+01 
8.796994e+01 
7.622775e+01 
7.081106e+01 
6.391262e+01 
6.122116e+01 
6.653514e+01 
3.746148e+01 
4.871682e+01 
2.888057e+01 
3.820735e+01 
3.204116e+01 
2.681061e+01 
3.204116e+01 
3.820735e+01 
2.888057e+01 
4.871682e+01 
3.746148e+01 
6.653514e+01 
6.122116e+01 
6.391262e+01 
7.081106e+01 
7.622775e+01 
8.796994e+01 
9.605295e+01 
1.094126e+02 
1.067613e+02 
1.071118e+02 
