# vtk DataFile Version 2.0
fNorm
ASCII
DATASET UNSTRUCTURED_GRID

FIELD FieldData 1
TIME 1 1 double
0.90000000
POINTS 64 float
7.626825853799118e-01 5.000000000000023e-01 0.000000000000000e+00
7.615226432529251e-01 5.246209864017495e-01 0.000000000000000e+00
7.579653110816909e-01 5.491022084043370e-01 0.000000000000000e+00
7.512526219887107e-01 5.728134047876744e-01 0.000000000000000e+00
7.430110553998733e-01 5.949467389999525e-01 0.000000000000000e+00
7.305714791717831e-01 6.173527103876906e-01 0.000000000000000e+00
7.174981986350731e-01 6.366565002427489e-01 0.000000000000000e+00
7.018881029828662e-01 6.549898469266592e-01 0.000000000000000e+00
6.841571869352475e-01 6.715463517503667e-01 0.000000000000000e+00
6.644981842325821e-01 6.868350534661608e-01 0.000000000000000e+00
6.437905443690959e-01 6.998580151214906e-01 0.000000000000000e+00
6.222783115902318e-01 7.105043215868229e-01 0.000000000000000e+00
5.982956658189773e-01 7.206009394004725e-01 0.000000000000000e+00
5.746976904246313e-01 7.274779919587141e-01 0.000000000000000e+00
5.498840739822837e-01 7.327368917935010e-01 0.000000000000000e+00
5.251948482273072e-01 7.358101580825249e-01 0.000000000000000e+00
4.999999999999949e-01 7.366209001670287e-01 0.000000000000000e+00
4.748051517726801e-01 7.358101580825235e-01 0.000000000000000e+00
4.501159260177057e-01 7.327368917935000e-01 0.000000000000000e+00
4.253023095753572e-01 7.274779919587102e-01 0.000000000000000e+00
4.017043341810148e-01 7.206009394004722e-01 0.000000000000000e+00
3.777216884097558e-01 7.105043215868168e-01 0.000000000000000e+00
3.562094556308980e-01 6.998580151214886e-01 0.000000000000000e+00
3.355018157674091e-01 6.868350534661574e-01 0.000000000000000e+00
3.158428130647447e-01 6.715463517503627e-01 0.000000000000000e+00
2.981118970171263e-01 6.549898469266555e-01 0.000000000000000e+00
2.825018013649199e-01 6.366565002427456e-01 0.000000000000000e+00
2.694285208282108e-01 6.173527103876870e-01 0.000000000000000e+00
2.569889446001181e-01 5.949467389999455e-01 0.000000000000000e+00
2.487473780112855e-01 5.728134047876713e-01 0.000000000000000e+00
2.420346889183047e-01 5.491022084043329e-01 0.000000000000000e+00
2.384773567470706e-01 5.246209864017444e-01 0.000000000000000e+00
2.373174146200845e-01 4.999999999999986e-01 0.000000000000000e+00
2.384773567470717e-01 4.753790135982518e-01 0.000000000000000e+00
2.420346889183061e-01 4.508977915956640e-01 0.000000000000000e+00
2.487473780112874e-01 4.271865952123259e-01 0.000000000000000e+00
2.569889446001214e-01 4.050532610000513e-01 0.000000000000000e+00
2.694285208282145e-01 3.826472896123102e-01 0.000000000000000e+00
2.825018013649236e-01 3.633434997572527e-01 0.000000000000000e+00
2.981118970171299e-01 3.450101530733429e-01 0.000000000000000e+00
3.158428130647492e-01 3.284536482496360e-01 0.000000000000000e+00
3.355018157674145e-01 3.131649465338417e-01 0.000000000000000e+00
3.562094556309016e-01 3.001419848785117e-01 0.000000000000000e+00
3.777216884097638e-01 2.894956784131814e-01 0.000000000000000e+00
4.017043341810198e-01 2.793990605995296e-01 0.000000000000000e+00
4.253023095753646e-01 2.725220080412899e-01 0.000000000000000e+00
4.501159260177123e-01 2.672631082065021e-01 0.000000000000000e+00
4.748051517726886e-01 2.641898419174784e-01 0.000000000000000e+00
5.000000000000012e-01 2.633790998329746e-01 0.000000000000000e+00
5.251948482273161e-01 2.641898419174793e-01 0.000000000000000e+00
5.498840739822904e-01 2.672631082065030e-01 0.000000000000000e+00
5.746976904246391e-01 2.725220080412925e-01 0.000000000000000e+00
5.982956658189823e-01 2.793990605995315e-01 0.000000000000000e+00
6.222783115902399e-01 2.894956784131857e-01 0.000000000000000e+00
6.437905443690990e-01 3.001419848785140e-01 0.000000000000000e+00
6.644981842325874e-01 3.131649465338451e-01 0.000000000000000e+00
6.841571869352523e-01 3.284536482496398e-01 0.000000000000000e+00
7.018881029828704e-01 3.450101530733466e-01 0.000000000000000e+00
7.174981986350776e-01 3.633434997572573e-01 0.000000000000000e+00
7.305714791717846e-01 3.826472896123138e-01 0.000000000000000e+00
7.430110553998797e-01 4.050532610000575e-01 0.000000000000000e+00
7.512526219887097e-01 4.271865952123290e-01 0.000000000000000e+00
7.579653110816913e-01 4.508977915956676e-01 0.000000000000000e+00
7.615226432529262e-01 4.753790135982572e-01 0.000000000000000e+00

POINT_DATA   64
SCALARS fNorm double
LOOKUP_TABLE default

5.855095e+01 
6.050470e+01 
8.145232e+01 
4.866883e+01 
9.249896e+01 
5.413987e+01 
6.505651e+01 
6.891364e+01 
5.563704e+01 
6.126103e+01 
6.136159e+01 
3.829584e+01 
7.216167e+01 
4.666140e+01 
5.340398e+01 
5.701860e+01 
3.988929e+01 
5.701860e+01 
5.340398e+01 
4.666140e+01 
7.216167e+01 
3.829584e+01 
6.136159e+01 
6.126103e+01 
5.563704e+01 
6.891364e+01 
6.505651e+01 
5.413987e+01 
9.249896e+01 
4.866883e+01 
8.145232e+01 
6.050470e+01 
5.855095e+01 
6.050470e+01 
8.145232e+01 
4.866883e+01 
9.249896e+01 
5.413987e+01 
6.505651e+01 
6.891364e+01 
5.563704e+01 
6.126103e+01 
6.136159e+01 
3.829584e+01 
7.216167e+01 
4.666140e+01 
5.340398e+01 
5.701860e+01 
3.988929e+01 
5.701860e+01 
5.340398e+01 
4.666140e+01 
7.216167e+01 
3.829584e+01 
6.136159e+01 
6.126103e+01 
5.563704e+01 
6.891364e+01 
6.505651e+01 
5.413987e+01 
9.249896e+01 
4.866883e+01 
8.145232e+01 
6.050470e+01 
