# vtk DataFile Version 2.0
fNorm
ASCII
DATASET UNSTRUCTURED_GRID

FIELD FieldData 1
TIME 1 1 double
1.12000000
POINTS 64 float
7.238105594011417e-01 4.999999999999963e-01 0.000000000000000e+00
7.229272660079609e-01 5.240211947421086e-01 0.000000000000000e+00
7.202147754270974e-01 5.472536974930620e-01 0.000000000000000e+00
7.147231701160808e-01 5.717649761287279e-01 0.000000000000000e+00
7.087744251834769e-01 5.923530053099452e-01 0.000000000000000e+00
6.991894259700252e-01 6.157463234937119e-01 0.000000000000000e+00
6.889653368314305e-01 6.359875329463430e-01 0.000000000000000e+00
6.758627787059032e-01 6.561783665092072e-01 0.000000000000000e+00
6.617558860313747e-01 6.743742110669897e-01 0.000000000000000e+00
6.465753717933669e-01 6.906985778566220e-01 0.000000000000000e+00
6.278849780493017e-01 7.066489615551116e-01 0.000000000000000e+00
6.096147538191780e-01 7.194226382939886e-01 0.000000000000000e+00
5.880094665945234e-01 7.310333922508877e-01 0.000000000000000e+00
5.695917812778363e-01 7.373740528697788e-01 0.000000000000000e+00
5.458470386622223e-01 7.447919200823077e-01 0.000000000000000e+00
5.233680232030843e-01 7.481595042282044e-01 0.000000000000000e+00
5.000000000000029e-01 7.488218700037356e-01 0.000000000000000e+00
4.766319767969167e-01 7.481595042282052e-01 0.000000000000000e+00
4.541529613377810e-01 7.447919200823073e-01 0.000000000000000e+00
4.304082187221628e-01 7.373740528697748e-01 0.000000000000000e+00
4.119905334054944e-01 7.310333922509021e-01 0.000000000000000e+00
3.903852461808294e-01 7.194226382939917e-01 0.000000000000000e+00
3.721150219507145e-01 7.066489615551245e-01 0.000000000000000e+00
3.534246282066454e-01 6.906985778566327e-01 0.000000000000000e+00
3.382441139686372e-01 6.743742110670004e-01 0.000000000000000e+00
3.241372212941049e-01 6.561783665092160e-01 0.000000000000000e+00
3.110346631685790e-01 6.359875329463519e-01 0.000000000000000e+00
3.008105740299851e-01 6.157463234937262e-01 0.000000000000000e+00
2.912255748165279e-01 5.923530053099514e-01 0.000000000000000e+00
2.852768298839309e-01 5.717649761287450e-01 0.000000000000000e+00
2.797852245729109e-01 5.472536974930766e-01 0.000000000000000e+00
2.770727339920473e-01 5.240211947421233e-01 0.000000000000000e+00
2.761894405988656e-01 5.000000000000098e-01 0.000000000000000e+00
2.770727339920462e-01 4.759788052578969e-01 0.000000000000000e+00
2.797852245729100e-01 4.527463025069438e-01 0.000000000000000e+00
2.852768298839301e-01 4.282350238712749e-01 0.000000000000000e+00
2.912255748165274e-01 4.076469946900686e-01 0.000000000000000e+00
3.008105740299831e-01 3.842536765062965e-01 0.000000000000000e+00
3.110346631685778e-01 3.640124670536686e-01 0.000000000000000e+00
3.241372212941049e-01 3.438216334908043e-01 0.000000000000000e+00
3.382441139686347e-01 3.256257889330222e-01 0.000000000000000e+00
3.534246282066431e-01 3.093014221433900e-01 0.000000000000000e+00
3.721150219507098e-01 2.933510384448993e-01 0.000000000000000e+00
3.903852461808293e-01 2.805773617060270e-01 0.000000000000000e+00
4.119905334054885e-01 2.689666077491231e-01 0.000000000000000e+00
4.304082187221669e-01 2.626259471302405e-01 0.000000000000000e+00
4.541529613377823e-01 2.552080799177099e-01 0.000000000000000e+00
4.766319767969190e-01 2.518404957718123e-01 0.000000000000000e+00
5.000000000000028e-01 2.511781299962807e-01 0.000000000000000e+00
5.233680232030855e-01 2.518404957718113e-01 0.000000000000000e+00
5.458470386622233e-01 2.552080799177083e-01 0.000000000000000e+00
5.695917812778392e-01 2.626259471302388e-01 0.000000000000000e+00
5.880094665945135e-01 2.689666077491163e-01 0.000000000000000e+00
6.096147538191765e-01 2.805773617060230e-01 0.000000000000000e+00
6.278849780492934e-01 2.933510384448928e-01 0.000000000000000e+00
6.465753717933612e-01 3.093014221433830e-01 0.000000000000000e+00
6.617558860313690e-01 3.256257889330145e-01 0.000000000000000e+00
6.758627787059011e-01 3.438216334907974e-01 0.000000000000000e+00
6.889653368314279e-01 3.640124670536625e-01 0.000000000000000e+00
6.991894259700200e-01 3.842536765062856e-01 0.000000000000000e+00
7.087744251834810e-01 4.076469946900630e-01 0.000000000000000e+00
7.147231701160727e-01 4.282350238712609e-01 0.000000000000000e+00
7.202147754270954e-01 4.527463025069312e-01 0.000000000000000e+00
7.229272660079593e-01 4.759788052578833e-01 0.000000000000000e+00

POINT_DATA   64
SCALARS fNorm double
LOOKUP_TABLE default

4.385866e+01 
4.691761e+01 
6.299698e+01 
3.500813e+01 
6.222435e+01 
4.738253e+01 
6.256525e+01 
4.928287e+01 
5.087439e+01 
6.732385e+01 
5.650033e+01 
6.802937e+01 
8.784232e+01 
1.585973e+01 
9.191848e+01 
6.937774e+01 
3.314576e+01 
6.937774e+01 
9.191848e+01 
1.585973e+01 
8.784232e+01 
6.802937e+01 
5.650033e+01 
6.732385e+01 
5.087439e+01 
4.928287e+01 
6.256525e+01 
4.738253e+01 
6.222435e+01 
3.500813e+01 
6.299698e+01 
4.691761e+01 
4.385866e+01 
4.691761e+01 
6.299698e+01 
3.500813e+01 
6.222435e+01 
4.738253e+01 
6.256525e+01 
4.928287e+01 
5.087439e+01 
6.732385e+01 
5.650033e+01 
6.802937e+01 
8.784232e+01 
1.585973e+01 
9.191848e+01 
6.937774e+01 
3.314576e+01 
6.937774e+01 
9.191848e+01 
1.585973e+01 
8.784232e+01 
6.802937e+01 
5.650033e+01 
6.732385e+01 
5.087439e+01 
4.928287e+01 
6.256525e+01 
4.738253e+01 
6.222435e+01 
3.500813e+01 
6.299698e+01 
4.691761e+01 
