# vtk DataFile Version 2.0
fNorm
ASCII
DATASET UNSTRUCTURED_GRID

FIELD FieldData 1
TIME 1 1 double
0.44000000
POINTS 64 float
7.852549467441075e-01 4.999999999999996e-01 0.000000000000000e+00
7.838219742429408e-01 5.278048915276831e-01 0.000000000000000e+00
7.803235752444214e-01 5.548806754708032e-01 0.000000000000000e+00
7.735790198609860e-01 5.815028342938031e-01 0.000000000000000e+00
7.639946935965577e-01 6.067079134574558e-01 0.000000000000000e+00
7.513703618346824e-01 6.308284019443935e-01 0.000000000000000e+00
7.366211063256312e-01 6.528701037183102e-01 0.000000000000000e+00
7.199204790813680e-01 6.731093598866101e-01 0.000000000000000e+00
7.008136447252341e-01 6.911293684090765e-01 0.000000000000000e+00
6.799329691947673e-01 7.070294914254577e-01 0.000000000000000e+00
6.571269568381677e-01 7.207046915483228e-01 0.000000000000000e+00
6.330303196815623e-01 7.325290689466188e-01 0.000000000000000e+00
6.076636347785586e-01 7.419200781947881e-01 0.000000000000000e+00
5.816784909737385e-01 7.493136745717753e-01 0.000000000000000e+00
5.547554401984565e-01 7.545611988445329e-01 0.000000000000000e+00
5.276016495004342e-01 7.574823665693543e-01 0.000000000000000e+00
4.999999999999998e-01 7.584430468993889e-01 0.000000000000000e+00
4.723983504995668e-01 7.574823665693543e-01 0.000000000000000e+00
4.452445598015434e-01 7.545611988445337e-01 0.000000000000000e+00
4.183215090262623e-01 7.493136745717757e-01 0.000000000000000e+00
3.923363652214415e-01 7.419200781947888e-01 0.000000000000000e+00
3.669696803184382e-01 7.325290689466192e-01 0.000000000000000e+00
3.428730431618321e-01 7.207046915483233e-01 0.000000000000000e+00
3.200670308052327e-01 7.070294914254585e-01 0.000000000000000e+00
2.991863552747656e-01 6.911293684090775e-01 0.000000000000000e+00
2.800795209186314e-01 6.731093598866112e-01 0.000000000000000e+00
2.633788936743686e-01 6.528701037183118e-01 0.000000000000000e+00
2.486296381653168e-01 6.308284019443949e-01 0.000000000000000e+00
2.360053064034414e-01 6.067079134574570e-01 0.000000000000000e+00
2.264209801390131e-01 5.815028342938048e-01 0.000000000000000e+00
2.196764247555776e-01 5.548806754708046e-01 0.000000000000000e+00
2.161780257570578e-01 5.278048915276857e-01 0.000000000000000e+00
2.147450532558912e-01 5.000000000000004e-01 0.000000000000000e+00
2.161780257570577e-01 4.721951084723168e-01 0.000000000000000e+00
2.196764247555770e-01 4.451193245291968e-01 0.000000000000000e+00
2.264209801390125e-01 4.184971657061970e-01 0.000000000000000e+00
2.360053064034404e-01 3.932920865425444e-01 0.000000000000000e+00
2.486296381653157e-01 3.691715980556067e-01 0.000000000000000e+00
2.633788936743672e-01 3.471298962816897e-01 0.000000000000000e+00
2.800795209186301e-01 3.268906401133903e-01 0.000000000000000e+00
2.991863552747638e-01 3.088706315909239e-01 0.000000000000000e+00
3.200670308052311e-01 2.929705085745420e-01 0.000000000000000e+00
3.428730431618303e-01 2.792953084516775e-01 0.000000000000000e+00
3.669696803184362e-01 2.674709310533813e-01 0.000000000000000e+00
3.923363652214395e-01 2.580799218052121e-01 0.000000000000000e+00
4.183215090262600e-01 2.506863254282249e-01 0.000000000000000e+00
4.452445598015417e-01 2.454388011554673e-01 0.000000000000000e+00
4.723983504995645e-01 2.425176334306460e-01 0.000000000000000e+00
4.999999999999982e-01 2.415569531006111e-01 0.000000000000000e+00
5.276016495004314e-01 2.425176334306458e-01 0.000000000000000e+00
5.547554401984548e-01 2.454388011554668e-01 0.000000000000000e+00
5.816784909737361e-01 2.506863254282242e-01 0.000000000000000e+00
6.076636347785569e-01 2.580799218052113e-01 0.000000000000000e+00
6.330303196815603e-01 2.674709310533809e-01 0.000000000000000e+00
6.571269568381662e-01 2.792953084516765e-01 0.000000000000000e+00
6.799329691947660e-01 2.929705085745416e-01 0.000000000000000e+00
7.008136447252330e-01 3.088706315909227e-01 0.000000000000000e+00
7.199204790813669e-01 3.268906401133890e-01 0.000000000000000e+00
7.366211063256302e-01 3.471298962816886e-01 0.000000000000000e+00
7.513703618346811e-01 3.691715980556048e-01 0.000000000000000e+00
7.639946935965570e-01 3.932920865425433e-01 0.000000000000000e+00
7.735790198609851e-01 4.184971657061955e-01 0.000000000000000e+00
7.803235752444209e-01 4.451193245291958e-01 0.000000000000000e+00
7.838219742429405e-01 4.721951084723147e-01 0.000000000000000e+00

POINT_DATA   64
SCALARS fNorm double
LOOKUP_TABLE default

7.263739e+01 
5.365040e+01 
8.163787e+01 
7.883992e+01 
8.135020e+01 
7.215327e+01 
6.611117e+01 
8.160033e+01 
6.907138e+01 
7.317042e+01 
5.535810e+01 
6.828582e+01 
5.262767e+01 
5.676033e+01 
5.803196e+01 
4.953160e+01 
4.768973e+01 
4.953160e+01 
5.803196e+01 
5.676033e+01 
5.262767e+01 
6.828582e+01 
5.535810e+01 
7.317042e+01 
6.907138e+01 
8.160033e+01 
6.611117e+01 
7.215327e+01 
8.135020e+01 
7.883992e+01 
8.163787e+01 
5.365040e+01 
7.263739e+01 
5.365040e+01 
8.163787e+01 
7.883992e+01 
8.135020e+01 
7.215327e+01 
6.611117e+01 
8.160033e+01 
6.907138e+01 
7.317042e+01 
5.535810e+01 
6.828582e+01 
5.262767e+01 
5.676033e+01 
5.803196e+01 
4.953160e+01 
4.768973e+01 
4.953160e+01 
5.803196e+01 
5.676033e+01 
5.262767e+01 
6.828582e+01 
5.535810e+01 
7.317042e+01 
6.907138e+01 
8.160033e+01 
6.611117e+01 
7.215327e+01 
8.135020e+01 
7.883992e+01 
8.163787e+01 
5.365040e+01 
