# vtk DataFile Version 2.0
fNorm
ASCII
DATASET UNSTRUCTURED_GRID

FIELD FieldData 1
TIME 1 1 double
1.08000000
POINTS 64 float
7.243350163691011e-01 4.999999999999992e-01 0.000000000000000e+00
7.235599725627182e-01 5.242060314257381e-01 0.000000000000000e+00
7.210017746618401e-01 5.476677201958179e-01 0.000000000000000e+00
7.155074050788206e-01 5.725182266025115e-01 0.000000000000000e+00
7.099986451676700e-01 5.934438281155172e-01 0.000000000000000e+00
7.005347799195155e-01 6.172351372043403e-01 0.000000000000000e+00
6.903757512333376e-01 6.376518267692295e-01 0.000000000000000e+00
6.778781973158845e-01 6.581276830900717e-01 0.000000000000000e+00
6.640032751951426e-01 6.758591762696409e-01 0.000000000000000e+00
6.476778563081004e-01 6.933091066291838e-01 0.000000000000000e+00
6.293286546993581e-01 7.092829488451466e-01 0.000000000000000e+00
6.114654634961665e-01 7.212490745272591e-01 0.000000000000000e+00
5.893172815957927e-01 7.338978435213989e-01 0.000000000000000e+00
5.693387326470774e-01 7.412249858625888e-01 0.000000000000000e+00
5.461881148238648e-01 7.483710633600585e-01 0.000000000000000e+00
5.232672823883064e-01 7.523153878457869e-01 0.000000000000000e+00
4.999999999999970e-01 7.534138361546601e-01 0.000000000000000e+00
4.767327176116836e-01 7.523153878457864e-01 0.000000000000000e+00
4.538118851761291e-01 7.483710633600572e-01 0.000000000000000e+00
4.306612673529131e-01 7.412249858625819e-01 0.000000000000000e+00
4.106827184042111e-01 7.338978435214062e-01 0.000000000000000e+00
3.885345365038306e-01 7.212490745272565e-01 0.000000000000000e+00
3.706713453006474e-01 7.092829488451522e-01 0.000000000000000e+00
3.523221436919040e-01 6.933091066291887e-01 0.000000000000000e+00
3.359967248048625e-01 6.758591762696442e-01 0.000000000000000e+00
3.221218026841184e-01 6.581276830900745e-01 0.000000000000000e+00
3.096242487666665e-01 6.376518267692325e-01 0.000000000000000e+00
2.994652200804907e-01 6.172351372043465e-01 0.000000000000000e+00
2.900013548323312e-01 5.934438281155171e-01 0.000000000000000e+00
2.844925949211884e-01 5.725182266025233e-01 0.000000000000000e+00
2.789982253381663e-01 5.476677201958269e-01 0.000000000000000e+00
2.764400274372871e-01 5.242060314257475e-01 0.000000000000000e+00
2.756649836309044e-01 5.000000000000082e-01 0.000000000000000e+00
2.764400274372872e-01 4.757939685742693e-01 0.000000000000000e+00
2.789982253381659e-01 4.523322798041896e-01 0.000000000000000e+00
2.844925949211880e-01 4.274817733974927e-01 0.000000000000000e+00
2.900013548323320e-01 4.065561718844971e-01 0.000000000000000e+00
2.994652200804891e-01 3.827648627956692e-01 0.000000000000000e+00
3.096242487666660e-01 3.623481732307819e-01 0.000000000000000e+00
3.221218026841189e-01 3.418723169099385e-01 0.000000000000000e+00
3.359967248048621e-01 3.241408237303687e-01 0.000000000000000e+00
3.523221436919035e-01 3.066908933708257e-01 0.000000000000000e+00
3.706713453006465e-01 2.907170511548615e-01 0.000000000000000e+00
3.885345365038343e-01 2.787509254727529e-01 0.000000000000000e+00
4.106827184042110e-01 2.661021564786079e-01 0.000000000000000e+00
4.306612673529207e-01 2.587750141374233e-01 0.000000000000000e+00
4.538118851761351e-01 2.516289366399516e-01 0.000000000000000e+00
4.767327176116914e-01 2.476846121542226e-01 0.000000000000000e+00
5.000000000000039e-01 2.465861638453486e-01 0.000000000000000e+00
5.232672823883157e-01 2.476846121542229e-01 0.000000000000000e+00
5.461881148238715e-01 2.516289366399517e-01 0.000000000000000e+00
5.693387326470866e-01 2.587750141374246e-01 0.000000000000000e+00
5.893172815957927e-01 2.661021564786052e-01 0.000000000000000e+00
6.114654634961718e-01 2.787509254727524e-01 0.000000000000000e+00
6.293286546993571e-01 2.907170511548590e-01 0.000000000000000e+00
6.476778563081002e-01 3.066908933708222e-01 0.000000000000000e+00
6.640032751951424e-01 3.241408237303664e-01 0.000000000000000e+00
6.778781973158861e-01 3.418723169099352e-01 0.000000000000000e+00
6.903757512333384e-01 3.623481732307779e-01 0.000000000000000e+00
7.005347799195144e-01 3.827648627956625e-01 0.000000000000000e+00
7.099986451676759e-01 4.065561718844956e-01 0.000000000000000e+00
7.155074050788144e-01 4.274817733974821e-01 0.000000000000000e+00
7.210017746618383e-01 4.523322798041811e-01 0.000000000000000e+00
7.235599725627179e-01 4.757939685742599e-01 0.000000000000000e+00

POINT_DATA   64
SCALARS fNorm double
LOOKUP_TABLE default

3.856672e+01 
4.570630e+01 
6.682604e+01 
2.341114e+01 
7.158308e+01 
5.038389e+01 
5.048026e+01 
6.747070e+01 
5.098782e+01 
6.140120e+01 
7.193715e+01 
4.135070e+01 
9.698723e+01 
2.984619e+01 
7.538865e+01 
7.163962e+01 
5.538742e+01 
7.163962e+01 
7.538865e+01 
2.984619e+01 
9.698723e+01 
4.135070e+01 
7.193715e+01 
6.140120e+01 
5.098782e+01 
6.747070e+01 
5.048026e+01 
5.038389e+01 
7.158308e+01 
2.341114e+01 
6.682604e+01 
4.570630e+01 
3.856672e+01 
4.570630e+01 
6.682604e+01 
2.341114e+01 
7.158308e+01 
5.038389e+01 
5.048026e+01 
6.747070e+01 
5.098782e+01 
6.140120e+01 
7.193715e+01 
4.135070e+01 
9.698723e+01 
2.984619e+01 
7.538865e+01 
7.163962e+01 
5.538742e+01 
7.163962e+01 
7.538865e+01 
2.984619e+01 
9.698723e+01 
4.135070e+01 
7.193715e+01 
6.140120e+01 
5.098782e+01 
6.747070e+01 
5.048026e+01 
5.038389e+01 
7.158308e+01 
2.341114e+01 
6.682604e+01 
4.570630e+01 
