# vtk DataFile Version 2.0
fTan
ASCII
DATASET UNSTRUCTURED_GRID

FIELD FieldData 1
TIME 1 1 double
0.96000000
POINTS 64 float
7.243459273260417e-01 5.000000000000024e-01 0.000000000000000e+00
7.234527360516257e-01 5.252809312492541e-01 0.000000000000000e+00
7.208670607312330e-01 5.498537511468454e-01 0.000000000000000e+00
7.158789906555421e-01 5.752214281729094e-01 0.000000000000000e+00
7.101541101725835e-01 5.981016520240009e-01 0.000000000000000e+00
7.008638608097125e-01 6.227989874667285e-01 0.000000000000000e+00
6.914082872918860e-01 6.444820435206595e-01 0.000000000000000e+00
6.790265203528039e-01 6.661211458910165e-01 0.000000000000000e+00
6.646056172627153e-01 6.863061539304683e-01 0.000000000000000e+00
6.491142839771282e-01 7.042844016934146e-01 0.000000000000000e+00
6.315754912942740e-01 7.207395968284498e-01 0.000000000000000e+00
6.134904673655313e-01 7.341925254751051e-01 0.000000000000000e+00
5.917305643524630e-01 7.477407049415210e-01 0.000000000000000e+00
5.704098909632375e-01 7.564838221959392e-01 0.000000000000000e+00
5.474162093553757e-01 7.638420757315634e-01 0.000000000000000e+00
5.239198141084693e-01 7.682085398035990e-01 0.000000000000000e+00
4.999999999999947e-01 7.693899474945065e-01 0.000000000000000e+00
4.760801858915172e-01 7.682085398035980e-01 0.000000000000000e+00
4.525837906446125e-01 7.638420757315603e-01 0.000000000000000e+00
4.295901090367485e-01 7.564838221959321e-01 0.000000000000000e+00
4.082694356475315e-01 7.477407049415220e-01 0.000000000000000e+00
3.865095326344573e-01 7.341925254750978e-01 0.000000000000000e+00
3.684245087057199e-01 7.207395968284487e-01 0.000000000000000e+00
3.508857160228651e-01 7.042844016934109e-01 0.000000000000000e+00
3.353943827372799e-01 6.863061539304653e-01 0.000000000000000e+00
3.209734796471899e-01 6.661211458910118e-01 0.000000000000000e+00
3.085917127081092e-01 6.444820435206537e-01 0.000000000000000e+00
2.991361391902844e-01 6.227989874667260e-01 0.000000000000000e+00
2.898458898274109e-01 5.981016520239949e-01 0.000000000000000e+00
2.841210093444564e-01 5.752214281729076e-01 0.000000000000000e+00
2.791329392687638e-01 5.498537511468422e-01 0.000000000000000e+00
2.765472639483713e-01 5.252809312492505e-01 0.000000000000000e+00
2.756540726739555e-01 4.999999999999996e-01 0.000000000000000e+00
2.765472639483716e-01 4.747190687507483e-01 0.000000000000000e+00
2.791329392687644e-01 4.501462488531569e-01 0.000000000000000e+00
2.841210093444567e-01 4.247785718270914e-01 0.000000000000000e+00
2.898458898274122e-01 4.018983479760043e-01 0.000000000000000e+00
2.991361391902856e-01 3.772010125332735e-01 0.000000000000000e+00
3.085917127081109e-01 3.555179564793455e-01 0.000000000000000e+00
3.209734796471924e-01 3.338788541089881e-01 0.000000000000000e+00
3.353943827372822e-01 3.136938460695350e-01 0.000000000000000e+00
3.508857160228689e-01 2.957155983065894e-01 0.000000000000000e+00
3.684245087057235e-01 2.792604031715535e-01 0.000000000000000e+00
3.865095326344648e-01 2.658074745249008e-01 0.000000000000000e+00
4.082694356475355e-01 2.522592950584820e-01 0.000000000000000e+00
4.295901090367574e-01 2.435161778040678e-01 0.000000000000000e+00
4.525837906446202e-01 2.361579242684420e-01 0.000000000000000e+00
4.760801858915261e-01 2.317914601964063e-01 0.000000000000000e+00
5.000000000000022e-01 2.306100525054981e-01 0.000000000000000e+00
5.239198141084788e-01 2.317914601964068e-01 0.000000000000000e+00
5.474162093553839e-01 2.361579242684436e-01 0.000000000000000e+00
5.704098909632472e-01 2.435161778040703e-01 0.000000000000000e+00
5.917305643524663e-01 2.522592950584827e-01 0.000000000000000e+00
6.134904673655392e-01 2.658074745249047e-01 0.000000000000000e+00
6.315754912942778e-01 2.792604031715553e-01 0.000000000000000e+00
6.491142839771326e-01 2.957155983065925e-01 0.000000000000000e+00
6.646056172627179e-01 3.136938460695385e-01 0.000000000000000e+00
6.790265203528079e-01 3.338788541089921e-01 0.000000000000000e+00
6.914082872918886e-01 3.555179564793506e-01 0.000000000000000e+00
7.008638608097117e-01 3.772010125332759e-01 0.000000000000000e+00
7.101541101725872e-01 4.018983479760099e-01 0.000000000000000e+00
7.158789906555395e-01 4.247785718270944e-01 0.000000000000000e+00
7.208670607312333e-01 4.501462488531605e-01 0.000000000000000e+00
7.234527360516252e-01 4.747190687507524e-01 0.000000000000000e+00

POINT_DATA   64
SCALARS fTan double
LOOKUP_TABLE default

3.964613e-11 
1.477100e+01 
2.839247e+01 
5.698326e+01 
7.035450e+01 
6.805927e+01 
3.190974e+01 
2.951564e+00 
2.650378e+01 
7.579635e+00 
3.734054e+01 
7.693284e+01 
6.477578e+01 
2.760586e+01 
6.295593e+00 
1.373576e+00 
7.468339e-11 
1.373576e+00 
6.295593e+00 
2.760586e+01 
6.477578e+01 
7.693284e+01 
3.734054e+01 
7.579635e+00 
2.650378e+01 
2.951564e+00 
3.190974e+01 
6.805927e+01 
7.035450e+01 
5.698326e+01 
2.839247e+01 
1.477100e+01 
1.138806e-11 
1.477100e+01 
2.839247e+01 
5.698326e+01 
7.035450e+01 
6.805927e+01 
3.190974e+01 
2.951564e+00 
2.650378e+01 
7.579635e+00 
3.734054e+01 
7.693284e+01 
6.477578e+01 
2.760586e+01 
6.295593e+00 
1.373576e+00 
1.457175e-11 
1.373576e+00 
6.295593e+00 
2.760586e+01 
6.477578e+01 
7.693284e+01 
3.734054e+01 
7.579635e+00 
2.650378e+01 
2.951564e+00 
3.190974e+01 
6.805927e+01 
7.035450e+01 
5.698326e+01 
2.839247e+01 
1.477100e+01 
