# vtk DataFile Version 2.0
fTan
ASCII
DATASET UNSTRUCTURED_GRID

FIELD FieldData 1
TIME 1 1 double
0.34000000
POINTS 64 float
7.284749334451540e-01 4.999999999999991e-01 0.000000000000000e+00
7.275149401491041e-01 5.289844161327351e-01 0.000000000000000e+00
7.255050928910941e-01 5.578611916559049e-01 0.000000000000000e+00
7.218726870011527e-01 5.869533207555609e-01 0.000000000000000e+00
7.167288523853425e-01 6.153140184637415e-01 0.000000000000000e+00
7.096783431606211e-01 6.435328686697160e-01 0.000000000000000e+00
7.007897238150316e-01 6.706847448839305e-01 0.000000000000000e+00
6.901336155686018e-01 6.968395384715206e-01 0.000000000000000e+00
6.769151091774038e-01 7.218528591871801e-01 0.000000000000000e+00
6.618560157564228e-01 7.449906301181267e-01 0.000000000000000e+00
6.441135651388408e-01 7.663647663110114e-01 0.000000000000000e+00
6.248507800512759e-01 7.845149070714573e-01 0.000000000000000e+00
6.031491733576201e-01 8.004057893217478e-01 0.000000000000000e+00
5.789193801494457e-01 8.137993760185080e-01 0.000000000000000e+00
5.539324320888572e-01 8.227645040563207e-01 0.000000000000000e+00
5.273399371533875e-01 8.283062811738325e-01 0.000000000000000e+00
4.999999999999993e-01 8.304179072696947e-01 0.000000000000000e+00
4.726600628466145e-01 8.283062811738328e-01 0.000000000000000e+00
4.460675679111430e-01 8.227645040563215e-01 0.000000000000000e+00
4.210806198505554e-01 8.137993760185088e-01 0.000000000000000e+00
3.968508266423805e-01 8.004057893217489e-01 0.000000000000000e+00
3.751492199487253e-01 7.845149070714589e-01 0.000000000000000e+00
3.558864348611593e-01 7.663647663110124e-01 0.000000000000000e+00
3.381439842435778e-01 7.449906301181282e-01 0.000000000000000e+00
3.230848908225966e-01 7.218528591871817e-01 0.000000000000000e+00
3.098663844313986e-01 6.968395384715220e-01 0.000000000000000e+00
2.992102761849686e-01 6.706847448839324e-01 0.000000000000000e+00
2.903216568393793e-01 6.435328686697177e-01 0.000000000000000e+00
2.832711476146574e-01 6.153140184637429e-01 0.000000000000000e+00
2.781273129988469e-01 5.869533207555631e-01 0.000000000000000e+00
2.744949071089051e-01 5.578611916559063e-01 0.000000000000000e+00
2.724850598508952e-01 5.289844161327378e-01 0.000000000000000e+00
2.715250665548453e-01 5.000000000000004e-01 0.000000000000000e+00
2.724850598508951e-01 4.710155838672655e-01 0.000000000000000e+00
2.744949071089047e-01 4.421388083440946e-01 0.000000000000000e+00
2.781273129988464e-01 4.130466792444392e-01 0.000000000000000e+00
2.832711476146565e-01 3.846859815362583e-01 0.000000000000000e+00
2.903216568393787e-01 3.564671313302838e-01 0.000000000000000e+00
2.992102761849671e-01 3.293152551160697e-01 0.000000000000000e+00
3.098663844313976e-01 3.031604615284795e-01 0.000000000000000e+00
3.230848908225951e-01 2.781471408128204e-01 0.000000000000000e+00
3.381439842435767e-01 2.550093698818730e-01 0.000000000000000e+00
3.558864348611582e-01 2.336352336889891e-01 0.000000000000000e+00
3.751492199487235e-01 2.154850929285427e-01 0.000000000000000e+00
3.968508266423788e-01 1.995942106782521e-01 0.000000000000000e+00
4.210806198505535e-01 1.862006239814920e-01 0.000000000000000e+00
4.460675679111415e-01 1.772354959436792e-01 0.000000000000000e+00
4.726600628466119e-01 1.716937188261674e-01 0.000000000000000e+00
4.999999999999984e-01 1.695820927303054e-01 0.000000000000000e+00
5.273399371533843e-01 1.716937188261671e-01 0.000000000000000e+00
5.539324320888555e-01 1.772354959436787e-01 0.000000000000000e+00
5.789193801494438e-01 1.862006239814913e-01 0.000000000000000e+00
6.031491733576184e-01 1.995942106782512e-01 0.000000000000000e+00
6.248507800512740e-01 2.154850929285411e-01 0.000000000000000e+00
6.441135651388394e-01 2.336352336889869e-01 0.000000000000000e+00
6.618560157564221e-01 2.550093698818715e-01 0.000000000000000e+00
6.769151091774025e-01 2.781471408128181e-01 0.000000000000000e+00
6.901336155686009e-01 3.031604615284776e-01 0.000000000000000e+00
7.007897238150309e-01 3.293152551160676e-01 0.000000000000000e+00
7.096783431606195e-01 3.564671313302817e-01 0.000000000000000e+00
7.167288523853420e-01 3.846859815362565e-01 0.000000000000000e+00
7.218726870011524e-01 4.130466792444365e-01 0.000000000000000e+00
7.255050928910943e-01 4.421388083440932e-01 0.000000000000000e+00
7.275149401491039e-01 4.710155838672623e-01 0.000000000000000e+00

POINT_DATA   64
SCALARS fTan double
LOOKUP_TABLE default

1.961946e-11 
1.949904e+00 
9.314498e+00 
1.192394e+01 
7.046972e+00 
1.347224e+01 
8.596700e+00 
1.028435e+00 
1.811860e+01 
4.013596e+00 
3.217510e+01 
1.127107e+01 
1.949374e+01 
2.872381e+01 
1.497217e+01 
6.158919e+00 
8.512028e-11 
6.158919e+00 
1.497217e+01 
2.872381e+01 
1.949374e+01 
1.127107e+01 
3.217510e+01 
4.013596e+00 
1.811860e+01 
1.028435e+00 
8.596700e+00 
1.347224e+01 
7.046972e+00 
1.192394e+01 
9.314498e+00 
1.949904e+00 
5.988733e-11 
1.949904e+00 
9.314498e+00 
1.192394e+01 
7.046972e+00 
1.347224e+01 
8.596700e+00 
1.028435e+00 
1.811860e+01 
4.013596e+00 
3.217510e+01 
1.127107e+01 
1.949374e+01 
2.872381e+01 
1.497217e+01 
6.158919e+00 
1.576514e-11 
6.158919e+00 
1.497217e+01 
2.872381e+01 
1.949374e+01 
1.127107e+01 
3.217510e+01 
4.013596e+00 
1.811860e+01 
1.028435e+00 
8.596700e+00 
1.347224e+01 
7.046972e+00 
1.192394e+01 
9.314498e+00 
1.949904e+00 
