# vtk DataFile Version 2.0
fTan
ASCII
DATASET UNSTRUCTURED_GRID

FIELD FieldData 1
TIME 1 1 double
1.34000000
POINTS 64 float
7.323100062585414e-01 4.999999999998867e-01 0.000000000000000e+00
7.316105495964784e-01 5.224387106251365e-01 0.000000000000000e+00
7.283654988735914e-01 5.441050903432354e-01 0.000000000000000e+00
7.212681055691534e-01 5.678361862364032e-01 0.000000000000000e+00
7.163348079189376e-01 5.836175951366734e-01 0.000000000000000e+00
7.045605863951728e-01 6.053641999982979e-01 0.000000000000000e+00
6.935728993736251e-01 6.222676076694890e-01 0.000000000000000e+00
6.785896301144532e-01 6.399725719992562e-01 0.000000000000000e+00
6.628710687432782e-01 6.557378323167342e-01 0.000000000000000e+00
6.457091815823149e-01 6.692332563978859e-01 0.000000000000000e+00
6.258529867291991e-01 6.825788809882641e-01 0.000000000000000e+00
6.073972257247445e-01 6.923863844764611e-01 0.000000000000000e+00
5.840696159092007e-01 7.022911723140380e-01 0.000000000000000e+00
5.695063949061810e-01 7.052477533158313e-01 0.000000000000000e+00
5.448455343579388e-01 7.116912011228056e-01 0.000000000000000e+00
5.228730309321713e-01 7.143608035376282e-01 0.000000000000000e+00
5.000000000001498e-01 7.147859536649290e-01 0.000000000000000e+00
4.771269690681180e-01 7.143608035376530e-01 0.000000000000000e+00
4.551544656423755e-01 7.116912011228638e-01 0.000000000000000e+00
4.304936050941012e-01 7.052477533159023e-01 0.000000000000000e+00
4.159303840911151e-01 7.022911723141434e-01 0.000000000000000e+00
3.926027742755804e-01 6.923863844765933e-01 0.000000000000000e+00
3.741470132711098e-01 6.825788809884256e-01 0.000000000000000e+00
3.542908184179777e-01 6.692332563980665e-01 0.000000000000000e+00
3.371289312569956e-01 6.557378323169256e-01 0.000000000000000e+00
3.214103698858175e-01 6.399725719994819e-01 0.000000000000000e+00
3.064271006266145e-01 6.222676076697229e-01 0.000000000000000e+00
2.954394136050524e-01 6.053641999985483e-01 0.000000000000000e+00
2.836651920812556e-01 5.836175951369325e-01 0.000000000000000e+00
2.787318944310271e-01 5.678361862366763e-01 0.000000000000000e+00
2.716345011265660e-01 5.441050903435379e-01 0.000000000000000e+00
2.683894504036434e-01 5.224387106254249e-01 0.000000000000000e+00
2.676899937415481e-01 5.000000000001578e-01 0.000000000000000e+00
2.683894504036125e-01 4.775612893749043e-01 0.000000000000000e+00
2.716345011264976e-01 4.558949096568151e-01 0.000000000000000e+00
2.787318944309396e-01 4.321638137636367e-01 0.000000000000000e+00
2.836651920811437e-01 4.163824048633891e-01 0.000000000000000e+00
2.954394136049066e-01 3.946358000017674e-01 0.000000000000000e+00
3.064271006264567e-01 3.777323923305695e-01 0.000000000000000e+00
3.214103698856236e-01 3.600274280008053e-01 0.000000000000000e+00
3.371289312568025e-01 3.442621676833232e-01 0.000000000000000e+00
3.542908184177652e-01 3.307667436021692e-01 0.000000000000000e+00
3.741470132708807e-01 3.174211190117905e-01 0.000000000000000e+00
3.926027742753346e-01 3.076136155235945e-01 0.000000000000000e+00
4.159303840908751e-01 2.977088276860140e-01 0.000000000000000e+00
4.304936050938823e-01 2.947522466842291e-01 0.000000000000000e+00
4.551544656421299e-01 2.883087988772511e-01 0.000000000000000e+00
4.771269690678909e-01 2.856391964624275e-01 0.000000000000000e+00
4.999999999999188e-01 2.852140463351275e-01 0.000000000000000e+00
5.228730309319465e-01 2.856391964624042e-01 0.000000000000000e+00
5.448455343576952e-01 2.883087988771952e-01 0.000000000000000e+00
5.695063949059652e-01 2.947522466841528e-01 0.000000000000000e+00
5.840696159089654e-01 2.977088276859192e-01 0.000000000000000e+00
6.073972257245083e-01 3.076136155234712e-01 0.000000000000000e+00
6.258529867289775e-01 3.174211190116408e-01 0.000000000000000e+00
6.457091815821101e-01 3.307667436019988e-01 0.000000000000000e+00
6.628710687430929e-01 3.442621676831406e-01 0.000000000000000e+00
6.785896301142799e-01 3.600274280005920e-01 0.000000000000000e+00
6.935728993734762e-01 3.777323923303452e-01 0.000000000000000e+00
7.045605863950413e-01 3.946358000015194e-01 0.000000000000000e+00
7.163348079188436e-01 4.163824048631398e-01 0.000000000000000e+00
7.212681055690531e-01 4.321638137633682e-01 0.000000000000000e+00
7.283654988735209e-01 4.558949096565136e-01 0.000000000000000e+00
7.316105495964444e-01 4.775612893746206e-01 0.000000000000000e+00

POINT_DATA   64
SCALARS fTan double
LOOKUP_TABLE default

4.303977e-10 
1.375952e+01 
7.136235e+01 
2.053261e+02 
2.057466e+02 
1.144161e+02 
7.584268e+01 
2.378525e+01 
1.012060e+01 
5.203601e+01 
7.581428e+01 
1.110739e+02 
2.632307e+02 
2.658182e+02 
8.397167e+01 
1.846101e+01 
2.397052e-10 
1.846101e+01 
8.397167e+01 
2.658182e+02 
2.632307e+02 
1.110739e+02 
7.581428e+01 
5.203601e+01 
1.012060e+01 
2.378525e+01 
7.584268e+01 
1.144161e+02 
2.057466e+02 
2.053261e+02 
7.136235e+01 
1.375952e+01 
3.643337e-10 
1.375952e+01 
7.136235e+01 
2.053261e+02 
2.057466e+02 
1.144161e+02 
7.584268e+01 
2.378525e+01 
1.012060e+01 
5.203601e+01 
7.581428e+01 
1.110739e+02 
2.632307e+02 
2.658182e+02 
8.397167e+01 
1.846101e+01 
2.334940e-11 
1.846101e+01 
8.397167e+01 
2.658182e+02 
2.632307e+02 
1.110739e+02 
7.581428e+01 
5.203601e+01 
1.012060e+01 
2.378525e+01 
7.584268e+01 
1.144161e+02 
2.057466e+02 
2.053261e+02 
7.136235e+01 
1.375952e+01 
