# vtk DataFile Version 2.0
fTan
ASCII
DATASET UNSTRUCTURED_GRID

FIELD FieldData 1
TIME 1 1 double
0.02000000
POINTS 64 float
7.090164354749131e-01 5.000000000000000e-01 0.000000000000000e+00
7.085328465704656e-01 5.295405895433027e-01 0.000000000000000e+00
7.071604341006055e-01 5.590570420064853e-01 0.000000000000000e+00
7.047344247423323e-01 5.885794523339619e-01 0.000000000000000e+00
7.012357729040540e-01 6.180520381293413e-01 0.000000000000000e+00
6.965800557066004e-01 6.472760447667373e-01 0.000000000000000e+00
6.905108763135304e-01 6.761599165073762e-01 0.000000000000000e+00
6.827591743797040e-01 7.047269261676257e-01 0.000000000000000e+00
6.730577221335756e-01 7.324971309509394e-01 0.000000000000000e+00
6.611672756022541e-01 7.591564446854621e-01 0.000000000000000e+00
6.467647115592631e-01 7.841941681810707e-01 0.000000000000000e+00
6.297745503843206e-01 8.067510716829579e-01 0.000000000000000e+00
6.095916874245210e-01 8.270006346039035e-01 0.000000000000000e+00
5.862048067333078e-01 8.441950372558128e-01 0.000000000000000e+00
5.595533067592068e-01 8.574735167355526e-01 0.000000000000000e+00
5.305021205255291e-01 8.657806898704838e-01 0.000000000000000e+00
5.000000000000000e-01 8.685076253021161e-01 0.000000000000000e+00
4.694978794744709e-01 8.657806898704838e-01 0.000000000000000e+00
4.404466932407933e-01 8.574735167355526e-01 0.000000000000000e+00
4.137951932666924e-01 8.441950372558128e-01 0.000000000000000e+00
3.904083125754790e-01 8.270006346039035e-01 0.000000000000000e+00
3.702254496156792e-01 8.067510716829579e-01 0.000000000000000e+00
3.532352884407370e-01 7.841941681810709e-01 0.000000000000000e+00
3.388327243977458e-01 7.591564446854618e-01 0.000000000000000e+00
3.269422778664244e-01 7.324971309509397e-01 0.000000000000000e+00
3.172408256202962e-01 7.047269261676257e-01 0.000000000000000e+00
3.094891236864694e-01 6.761599165073763e-01 0.000000000000000e+00
3.034199442933997e-01 6.472760447667372e-01 0.000000000000000e+00
2.987642270959461e-01 6.180520381293413e-01 0.000000000000000e+00
2.952655752576679e-01 5.885794523339620e-01 0.000000000000000e+00
2.928395658993946e-01 5.590570420064852e-01 0.000000000000000e+00
2.914671534295345e-01 5.295405895433030e-01 0.000000000000000e+00
2.909835645250869e-01 5.000000000000000e-01 0.000000000000000e+00
2.914671534295344e-01 4.704594104566972e-01 0.000000000000000e+00
2.928395658993945e-01 4.409429579935147e-01 0.000000000000000e+00
2.952655752576678e-01 4.114205476660380e-01 0.000000000000000e+00
2.987642270959462e-01 3.819479618706587e-01 0.000000000000000e+00
3.034199442933996e-01 3.527239552332628e-01 0.000000000000000e+00
3.094891236864695e-01 3.238400834926238e-01 0.000000000000000e+00
3.172408256202960e-01 2.952730738323744e-01 0.000000000000000e+00
3.269422778664244e-01 2.675028690490605e-01 0.000000000000000e+00
3.388327243977456e-01 2.408435553145382e-01 0.000000000000000e+00
3.532352884407368e-01 2.158058318189294e-01 0.000000000000000e+00
3.702254496156793e-01 1.932489283170420e-01 0.000000000000000e+00
3.904083125754789e-01 1.729993653960967e-01 0.000000000000000e+00
4.137951932666923e-01 1.558049627441875e-01 0.000000000000000e+00
4.404466932407931e-01 1.425264832644475e-01 0.000000000000000e+00
4.694978794744707e-01 1.342193101295162e-01 0.000000000000000e+00
4.999999999999999e-01 1.314923746978841e-01 0.000000000000000e+00
5.305021205255289e-01 1.342193101295161e-01 0.000000000000000e+00
5.595533067592068e-01 1.425264832644474e-01 0.000000000000000e+00
5.862048067333075e-01 1.558049627441873e-01 0.000000000000000e+00
6.095916874245210e-01 1.729993653960966e-01 0.000000000000000e+00
6.297745503843206e-01 1.932489283170420e-01 0.000000000000000e+00
6.467647115592630e-01 2.158058318189294e-01 0.000000000000000e+00
6.611672756022541e-01 2.408435553145380e-01 0.000000000000000e+00
6.730577221335755e-01 2.675028690490605e-01 0.000000000000000e+00
6.827591743797040e-01 2.952730738323743e-01 0.000000000000000e+00
6.905108763135303e-01 3.238400834926238e-01 0.000000000000000e+00
6.965800557066006e-01 3.527239552332628e-01 0.000000000000000e+00
7.012357729040539e-01 3.819479618706587e-01 0.000000000000000e+00
7.047344247423322e-01 4.114205476660378e-01 0.000000000000000e+00
7.071604341006054e-01 4.409429579935149e-01 0.000000000000000e+00
7.085328465704656e-01 4.704594104566970e-01 0.000000000000000e+00

POINT_DATA   64
SCALARS fTan double
LOOKUP_TABLE default

5.569132e-12 
1.906970e-01 
1.247071e+00 
3.816969e-01 
3.449582e+00 
2.733922e+00 
1.336486e+00 
6.615819e+00 
6.406305e+00 
8.955465e+00 
1.728593e+01 
8.524849e+00 
1.038610e+01 
1.660788e+01 
8.122727e+00 
8.052682e+00 
1.469711e-12 
8.052682e+00 
8.122727e+00 
1.660788e+01 
1.038610e+01 
8.524849e+00 
1.728593e+01 
8.955465e+00 
6.406305e+00 
6.615819e+00 
1.336486e+00 
2.733922e+00 
3.449582e+00 
3.816969e-01 
1.247071e+00 
1.906970e-01 
4.228262e-12 
1.906970e-01 
1.247071e+00 
3.816969e-01 
3.449582e+00 
2.733922e+00 
1.336486e+00 
6.615819e+00 
6.406305e+00 
8.955465e+00 
1.728593e+01 
8.524849e+00 
1.038610e+01 
1.660788e+01 
8.122727e+00 
8.052682e+00 
4.206630e-12 
8.052682e+00 
8.122727e+00 
1.660788e+01 
1.038610e+01 
8.524849e+00 
1.728593e+01 
8.955465e+00 
6.406305e+00 
6.615819e+00 
1.336486e+00 
2.733922e+00 
3.449582e+00 
3.816969e-01 
1.247071e+00 
1.906970e-01 
