# vtk DataFile Version 2.0
fTan
ASCII
DATASET UNSTRUCTURED_GRID

FIELD FieldData 1
TIME 1 1 double
0.12000000
POINTS 64 float
7.935210133977909e-01 4.999999999999998e-01 0.000000000000000e+00
7.925047104350254e-01 5.292948841435052e-01 0.000000000000000e+00
7.886910680261505e-01 5.594044360689929e-01 0.000000000000000e+00
7.820026703085468e-01 5.896752061551331e-01 0.000000000000000e+00
7.713564865787503e-01 6.192202664066958e-01 0.000000000000000e+00
7.584520624117435e-01 6.456185096602099e-01 0.000000000000000e+00
7.430392556289918e-01 6.681559937454672e-01 0.000000000000000e+00
7.254680586164604e-01 6.878366535549243e-01 0.000000000000000e+00
7.054697799020304e-01 7.047075229511186e-01 0.000000000000000e+00
6.833005958158813e-01 7.187447848227673e-01 0.000000000000000e+00
6.587090587571588e-01 7.303598547443171e-01 0.000000000000000e+00
6.328803489195248e-01 7.391098242819579e-01 0.000000000000000e+00
6.064681830815678e-01 7.456726219519447e-01 0.000000000000000e+00
5.800387926023891e-01 7.504290840559834e-01 0.000000000000000e+00
5.537779391466030e-01 7.539715908730281e-01 0.000000000000000e+00
5.269593234019622e-01 7.555705701214236e-01 0.000000000000000e+00
5.000000000000000e-01 7.559590971450240e-01 0.000000000000000e+00
4.730406765980386e-01 7.555705701214233e-01 0.000000000000000e+00
4.462220608533973e-01 7.539715908730281e-01 0.000000000000000e+00
4.199612073976117e-01 7.504290840559833e-01 0.000000000000000e+00
3.935318169184324e-01 7.456726219519448e-01 0.000000000000000e+00
3.671196510804757e-01 7.391098242819581e-01 0.000000000000000e+00
3.412909412428415e-01 7.303598547443173e-01 0.000000000000000e+00
3.166994041841187e-01 7.187447848227676e-01 0.000000000000000e+00
2.945302200979692e-01 7.047075229511192e-01 0.000000000000000e+00
2.745319413835400e-01 6.878366535549252e-01 0.000000000000000e+00
2.569607443710085e-01 6.681559937454677e-01 0.000000000000000e+00
2.415479375882569e-01 6.456185096602108e-01 0.000000000000000e+00
2.286435134212501e-01 6.192202664066966e-01 0.000000000000000e+00
2.179973296914530e-01 5.896752061551334e-01 0.000000000000000e+00
2.113089319738497e-01 5.594044360689939e-01 0.000000000000000e+00
2.074952895649746e-01 5.292948841435066e-01 0.000000000000000e+00
2.064789866022089e-01 5.000000000000000e-01 0.000000000000000e+00
2.074952895649746e-01 4.707051158564949e-01 0.000000000000000e+00
2.113089319738496e-01 4.405955639310066e-01 0.000000000000000e+00
2.179973296914533e-01 4.103247938448672e-01 0.000000000000000e+00
2.286435134212500e-01 3.807797335933043e-01 0.000000000000000e+00
2.415479375882568e-01 3.543814903397900e-01 0.000000000000000e+00
2.569607443710080e-01 3.318440062545328e-01 0.000000000000000e+00
2.745319413835396e-01 3.121633464450753e-01 0.000000000000000e+00
2.945302200979688e-01 2.952924770488812e-01 0.000000000000000e+00
3.166994041841182e-01 2.812552151772327e-01 0.000000000000000e+00
3.412909412428408e-01 2.696401452556828e-01 0.000000000000000e+00
3.671196510804751e-01 2.608901757180422e-01 0.000000000000000e+00
3.935318169184318e-01 2.543273780480552e-01 0.000000000000000e+00
4.199612073976109e-01 2.495709159440169e-01 0.000000000000000e+00
4.462220608533968e-01 2.460284091269718e-01 0.000000000000000e+00
4.730406765980378e-01 2.444294298785765e-01 0.000000000000000e+00
4.999999999999997e-01 2.440409028549759e-01 0.000000000000000e+00
5.269593234019612e-01 2.444294298785764e-01 0.000000000000000e+00
5.537779391466023e-01 2.460284091269716e-01 0.000000000000000e+00
5.800387926023886e-01 2.495709159440166e-01 0.000000000000000e+00
6.064681830815671e-01 2.543273780480548e-01 0.000000000000000e+00
6.328803489195244e-01 2.608901757180417e-01 0.000000000000000e+00
6.587090587571579e-01 2.696401452556824e-01 0.000000000000000e+00
6.833005958158811e-01 2.812552151772320e-01 0.000000000000000e+00
7.054697799020302e-01 2.952924770488809e-01 0.000000000000000e+00
7.254680586164597e-01 3.121633464450748e-01 0.000000000000000e+00
7.430392556289916e-01 3.318440062545321e-01 0.000000000000000e+00
7.584520624117428e-01 3.543814903397889e-01 0.000000000000000e+00
7.713564865787499e-01 3.807797335933036e-01 0.000000000000000e+00
7.820026703085468e-01 4.103247938448661e-01 0.000000000000000e+00
7.886910680261500e-01 4.405955639310060e-01 0.000000000000000e+00
7.925047104350252e-01 4.707051158564934e-01 0.000000000000000e+00

POINT_DATA   64
SCALARS fTan double
LOOKUP_TABLE default

2.226122e-11 
2.315035e+01 
1.420304e+01 
1.013249e+01 
4.857272e+01 
4.925284e+01 
2.214524e+01 
3.556882e+00 
1.427298e+00 
2.575437e+01 
1.540826e+00 
1.929597e+00 
1.015894e+01 
1.001178e+01 
8.590615e+00 
2.700220e+00 
1.523158e-11 
2.700220e+00 
8.590615e+00 
1.001178e+01 
1.015894e+01 
1.929597e+00 
1.540826e+00 
2.575437e+01 
1.427298e+00 
3.556882e+00 
2.214524e+01 
4.925284e+01 
4.857272e+01 
1.013249e+01 
1.420304e+01 
2.315035e+01 
3.748973e-11 
2.315035e+01 
1.420304e+01 
1.013249e+01 
4.857272e+01 
4.925284e+01 
2.214524e+01 
3.556882e+00 
1.427298e+00 
2.575437e+01 
1.540826e+00 
1.929597e+00 
1.015894e+01 
1.001178e+01 
8.590615e+00 
2.700220e+00 
8.430853e-12 
2.700220e+00 
8.590615e+00 
1.001178e+01 
1.015894e+01 
1.929597e+00 
1.540826e+00 
2.575437e+01 
1.427298e+00 
3.556882e+00 
2.214524e+01 
4.925284e+01 
4.857272e+01 
1.013249e+01 
1.420304e+01 
2.315035e+01 
