# vtk DataFile Version 2.0
fTan
ASCII
DATASET UNSTRUCTURED_GRID

FIELD FieldData 1
TIME 1 1 double
0.10000000
POINTS 64 float
8.536440312475702e-01 4.999999999999998e-01 0.000000000000000e+00
8.523949815880734e-01 5.250665525573560e-01 0.000000000000000e+00
8.475435926688427e-01 5.487039224466518e-01 0.000000000000000e+00
8.393545199444903e-01 5.713511482202486e-01 0.000000000000000e+00
8.275166184672994e-01 5.922207196996517e-01 0.000000000000000e+00
8.130657407420252e-01 6.113118613285525e-01 0.000000000000000e+00
7.957071116998220e-01 6.283635517145577e-01 0.000000000000000e+00
7.751052080077153e-01 6.448695579286520e-01 0.000000000000000e+00
7.515962023572627e-01 6.599176446170492e-01 0.000000000000000e+00
7.260389632060184e-01 6.733274703818857e-01 0.000000000000000e+00
6.983736943773603e-01 6.856802001522816e-01 0.000000000000000e+00
6.694985074079125e-01 6.959969284533144e-01 0.000000000000000e+00
6.386051527007854e-01 7.047892879073244e-01 0.000000000000000e+00
6.055898889859166e-01 7.122870399253781e-01 0.000000000000000e+00
5.708000122012367e-01 7.179373701872545e-01 0.000000000000000e+00
5.353649419232013e-01 7.210419988802784e-01 0.000000000000000e+00
5.000000000000000e-01 7.221784027005603e-01 0.000000000000000e+00
4.646350580767989e-01 7.210419988802785e-01 0.000000000000000e+00
4.291999877987632e-01 7.179373701872546e-01 0.000000000000000e+00
3.944101110140840e-01 7.122870399253782e-01 0.000000000000000e+00
3.613948472992147e-01 7.047892879073245e-01 0.000000000000000e+00
3.305014925920877e-01 6.959969284533146e-01 0.000000000000000e+00
3.016263056226401e-01 6.856802001522818e-01 0.000000000000000e+00
2.739610367939823e-01 6.733274703818858e-01 0.000000000000000e+00
2.484037976427373e-01 6.599176446170493e-01 0.000000000000000e+00
2.248947919922847e-01 6.448695579286522e-01 0.000000000000000e+00
2.042928883001781e-01 6.283635517145579e-01 0.000000000000000e+00
1.869342592579752e-01 6.113118613285533e-01 0.000000000000000e+00
1.724833815327009e-01 5.922207196996526e-01 0.000000000000000e+00
1.606454800555095e-01 5.713511482202492e-01 0.000000000000000e+00
1.524564073311576e-01 5.487039224466529e-01 0.000000000000000e+00
1.476050184119267e-01 5.250665525573573e-01 0.000000000000000e+00
1.463559687524296e-01 5.000000000000000e-01 0.000000000000000e+00
1.476050184119267e-01 4.749334474426439e-01 0.000000000000000e+00
1.524564073311572e-01 4.512960775533480e-01 0.000000000000000e+00
1.606454800555094e-01 4.286488517797513e-01 0.000000000000000e+00
1.724833815327006e-01 4.077792803003480e-01 0.000000000000000e+00
1.869342592579750e-01 3.886881386714474e-01 0.000000000000000e+00
2.042928883001778e-01 3.716364482854423e-01 0.000000000000000e+00
2.248947919922845e-01 3.551304420713481e-01 0.000000000000000e+00
2.484037976427371e-01 3.400823553829510e-01 0.000000000000000e+00
2.739610367939820e-01 3.266725296181143e-01 0.000000000000000e+00
3.016263056226399e-01 3.143197998477183e-01 0.000000000000000e+00
3.305014925920875e-01 3.040030715466855e-01 0.000000000000000e+00
3.613948472992143e-01 2.952107120926756e-01 0.000000000000000e+00
3.944101110140835e-01 2.877129600746217e-01 0.000000000000000e+00
4.291999877987629e-01 2.820626298127455e-01 0.000000000000000e+00
4.646350580767986e-01 2.789580011197216e-01 0.000000000000000e+00
4.999999999999997e-01 2.778215972994393e-01 0.000000000000000e+00
5.353649419232008e-01 2.789580011197215e-01 0.000000000000000e+00
5.708000122012363e-01 2.820626298127457e-01 0.000000000000000e+00
6.055898889859160e-01 2.877129600746217e-01 0.000000000000000e+00
6.386051527007848e-01 2.952107120926755e-01 0.000000000000000e+00
6.694985074079122e-01 3.040030715466854e-01 0.000000000000000e+00
6.983736943773599e-01 3.143197998477181e-01 0.000000000000000e+00
7.260389632060176e-01 3.266725296181140e-01 0.000000000000000e+00
7.515962023572625e-01 3.400823553829509e-01 0.000000000000000e+00
7.751052080077150e-01 3.551304420713475e-01 0.000000000000000e+00
7.957071116998217e-01 3.716364482854422e-01 0.000000000000000e+00
8.130657407420248e-01 3.886881386714465e-01 0.000000000000000e+00
8.275166184672993e-01 4.077792803003476e-01 0.000000000000000e+00
8.393545199444904e-01 4.286488517797505e-01 0.000000000000000e+00
8.475435926688423e-01 4.512960775533471e-01 0.000000000000000e+00
8.523949815880734e-01 4.749334474426428e-01 0.000000000000000e+00

POINT_DATA   64
SCALARS fTan double
LOOKUP_TABLE default

1.943650e-11 
2.168617e+01 
1.187747e+00 
2.710167e+00 
2.576332e+00 
7.175955e+00 
5.040893e+01 
3.758859e+01 
2.493391e+01 
3.703852e+01 
9.658464e+00 
3.592086e+01 
4.391424e+01 
3.615898e+01 
9.335677e+00 
2.820329e+00 
7.022678e-12 
2.820329e+00 
9.335677e+00 
3.615898e+01 
4.391424e+01 
3.592086e+01 
9.658464e+00 
3.703852e+01 
2.493391e+01 
3.758859e+01 
5.040893e+01 
7.175955e+00 
2.576332e+00 
2.710167e+00 
1.187747e+00 
2.168617e+01 
3.053547e-11 
2.168617e+01 
1.187747e+00 
2.710167e+00 
2.576332e+00 
7.175955e+00 
5.040893e+01 
3.758859e+01 
2.493391e+01 
3.703852e+01 
9.658464e+00 
3.592086e+01 
4.391424e+01 
3.615898e+01 
9.335677e+00 
2.820329e+00 
2.640703e-12 
2.820329e+00 
9.335677e+00 
3.615898e+01 
4.391424e+01 
3.592086e+01 
9.658464e+00 
3.703852e+01 
2.493391e+01 
3.758859e+01 
5.040893e+01 
7.175955e+00 
2.576332e+00 
2.710167e+00 
1.187747e+00 
2.168617e+01 
