# vtk DataFile Version 2.0
fTan
ASCII
DATASET UNSTRUCTURED_GRID

FIELD FieldData 1
TIME 1 1 double
0.66000000
POINTS 64 float
7.361951926713721e-01 5.000000000000003e-01 0.000000000000000e+00
7.350556168527876e-01 5.271879003674251e-01 0.000000000000000e+00
7.323205501862596e-01 5.540388656116609e-01 0.000000000000000e+00
7.273975228236610e-01 5.808733592018380e-01 0.000000000000000e+00
7.211118052752359e-01 6.065465704831404e-01 0.000000000000000e+00
7.121737751120678e-01 6.323626483507023e-01 0.000000000000000e+00
7.016741539395182e-01 6.563203682979863e-01 0.000000000000000e+00
6.895410231575844e-01 6.794987986143068e-01 0.000000000000000e+00
6.747349656261880e-01 7.012631737990063e-01 0.000000000000000e+00
6.587931770022386e-01 7.213738931805168e-01 0.000000000000000e+00
6.401548641944144e-01 7.395663981837834e-01 0.000000000000000e+00
6.204452440979424e-01 7.554389106384353e-01 0.000000000000000e+00
5.993772607729955e-01 7.679427066715128e-01 0.000000000000000e+00
5.754393701418677e-01 7.793568815348414e-01 0.000000000000000e+00
5.511375370328437e-01 7.863141284838874e-01 0.000000000000000e+00
5.258753096285740e-01 7.907484929491652e-01 0.000000000000000e+00
4.999999999999993e-01 7.924287759218765e-01 0.000000000000000e+00
4.741246903714240e-01 7.907484929491647e-01 0.000000000000000e+00
4.488624629671552e-01 7.863141284838879e-01 0.000000000000000e+00
4.245606298581301e-01 7.793568815348407e-01 0.000000000000000e+00
4.006227392270038e-01 7.679427066715142e-01 0.000000000000000e+00
3.795547559020546e-01 7.554389106384342e-01 0.000000000000000e+00
3.598451358055831e-01 7.395663981837843e-01 0.000000000000000e+00
3.412068229977591e-01 7.213738931805170e-01 0.000000000000000e+00
3.252650343738102e-01 7.012631737990075e-01 0.000000000000000e+00
3.104589768424133e-01 6.794987986143071e-01 0.000000000000000e+00
2.983258460604798e-01 6.563203682979877e-01 0.000000000000000e+00
2.878262248879296e-01 6.323626483507032e-01 0.000000000000000e+00
2.788881947247615e-01 6.065465704831411e-01 0.000000000000000e+00
2.726024771763366e-01 5.808733592018386e-01 0.000000000000000e+00
2.676794498137378e-01 5.540388656116612e-01 0.000000000000000e+00
2.649443831472101e-01 5.271879003674260e-01 0.000000000000000e+00
2.638048073286255e-01 5.000000000000004e-01 0.000000000000000e+00
2.649443831472104e-01 4.728120996325754e-01 0.000000000000000e+00
2.676794498137375e-01 4.459611343883398e-01 0.000000000000000e+00
2.726024771763370e-01 4.191266407981626e-01 0.000000000000000e+00
2.788881947247617e-01 3.934534295168599e-01 0.000000000000000e+00
2.878262248879301e-01 3.676373516492978e-01 0.000000000000000e+00
2.983258460604801e-01 3.436796317020135e-01 0.000000000000000e+00
3.104589768424140e-01 3.205012013856938e-01 0.000000000000000e+00
3.252650343738104e-01 2.987368262009941e-01 0.000000000000000e+00
3.412068229977599e-01 2.786261068194839e-01 0.000000000000000e+00
3.598451358055835e-01 2.604336018162172e-01 0.000000000000000e+00
3.795547559020555e-01 2.445610893615660e-01 0.000000000000000e+00
4.006227392270037e-01 2.320572933284872e-01 0.000000000000000e+00
4.245606298581305e-01 2.206431184651595e-01 0.000000000000000e+00
4.488624629671554e-01 2.136858715161128e-01 0.000000000000000e+00
4.741246903714242e-01 2.092515070508352e-01 0.000000000000000e+00
4.999999999999995e-01 2.075712240781240e-01 0.000000000000000e+00
5.258753096285740e-01 2.092515070508351e-01 0.000000000000000e+00
5.511375370328436e-01 2.136858715161128e-01 0.000000000000000e+00
5.754393701418682e-01 2.206431184651595e-01 0.000000000000000e+00
5.993772607729949e-01 2.320572933284862e-01 0.000000000000000e+00
6.204452440979435e-01 2.445610893615659e-01 0.000000000000000e+00
6.401548641944153e-01 2.604336018162163e-01 0.000000000000000e+00
6.587931770022393e-01 2.786261068194835e-01 0.000000000000000e+00
6.747349656261886e-01 2.987368262009929e-01 0.000000000000000e+00
6.895410231575847e-01 3.205012013856930e-01 0.000000000000000e+00
7.016741539395194e-01 3.436796317020132e-01 0.000000000000000e+00
7.121737751120684e-01 3.676373516492976e-01 0.000000000000000e+00
7.211118052752370e-01 3.934534295168594e-01 0.000000000000000e+00
7.273975228236613e-01 4.191266407981621e-01 0.000000000000000e+00
7.323205501862603e-01 4.459611343883397e-01 0.000000000000000e+00
7.350556168527875e-01 4.728120996325745e-01 0.000000000000000e+00

POINT_DATA   64
SCALARS fTan double
LOOKUP_TABLE default

2.660134e-11 
5.355913e+00 
7.341926e+00 
2.125216e+01 
2.229818e+01 
2.909358e+01 
2.380820e-01 
4.187161e+00 
1.666717e+01 
9.381889e+00 
1.818809e+01 
1.942858e+01 
5.009233e+01 
3.170953e+01 
8.953753e+00 
7.358691e+00 
1.744086e-11 
7.358691e+00 
8.953753e+00 
3.170953e+01 
5.009233e+01 
1.942858e+01 
1.818809e+01 
9.381889e+00 
1.666717e+01 
4.187161e+00 
2.380820e-01 
2.909358e+01 
2.229818e+01 
2.125216e+01 
7.341926e+00 
5.355913e+00 
1.357686e-11 
5.355913e+00 
7.341926e+00 
2.125216e+01 
2.229818e+01 
2.909358e+01 
2.380820e-01 
4.187161e+00 
1.666717e+01 
9.381889e+00 
1.818809e+01 
1.942858e+01 
5.009233e+01 
3.170953e+01 
8.953753e+00 
7.358691e+00 
2.104891e-11 
7.358691e+00 
8.953753e+00 
3.170953e+01 
5.009233e+01 
1.942858e+01 
1.818809e+01 
9.381889e+00 
1.666717e+01 
4.187161e+00 
2.380820e-01 
2.909358e+01 
2.229818e+01 
2.125216e+01 
7.341926e+00 
5.355913e+00 
