# vtk DataFile Version 2.0
fTan
ASCII
DATASET UNSTRUCTURED_GRID

FIELD FieldData 1
TIME 1 1 double
0.26000000
POINTS 64 float
8.414321236592044e-01 4.999999999999991e-01 0.000000000000000e+00
8.391870805141171e-01 5.293345888660111e-01 0.000000000000000e+00
8.327438975410372e-01 5.571061760727509e-01 0.000000000000000e+00
8.222439659126936e-01 5.830592528018318e-01 0.000000000000000e+00
8.086403489338659e-01 6.062862731811246e-01 0.000000000000000e+00
7.906970274035044e-01 6.281183210348914e-01 0.000000000000000e+00
7.704222133112337e-01 6.467920792044511e-01 0.000000000000000e+00
7.475194864478482e-01 6.634471401238545e-01 0.000000000000000e+00
7.227748664927763e-01 6.778524064540880e-01 0.000000000000000e+00
6.966917940121815e-01 6.898869678699575e-01 0.000000000000000e+00
6.698806493475218e-01 6.997563192293559e-01 0.000000000000000e+00
6.423914550641103e-01 7.072575052628276e-01 0.000000000000000e+00
6.145342122221105e-01 7.132984992154273e-01 0.000000000000000e+00
5.864824839840629e-01 7.175142964900986e-01 0.000000000000000e+00
5.577457269391488e-01 7.205813703025082e-01 0.000000000000000e+00
5.289964610171876e-01 7.223306747918617e-01 0.000000000000000e+00
5.000000000000000e-01 7.229356718791137e-01 0.000000000000000e+00
4.710035389828156e-01 7.223306747918619e-01 0.000000000000000e+00
4.422542730608514e-01 7.205813703025091e-01 0.000000000000000e+00
4.135175160159391e-01 7.175142964900990e-01 0.000000000000000e+00
3.854657877778908e-01 7.132984992154283e-01 0.000000000000000e+00
3.576085449358916e-01 7.072575052628283e-01 0.000000000000000e+00
3.301193506524793e-01 6.997563192293567e-01 0.000000000000000e+00
3.033082059878196e-01 6.898869678699580e-01 0.000000000000000e+00
2.772251335072247e-01 6.778524064540891e-01 0.000000000000000e+00
2.524805135521526e-01 6.634471401238553e-01 0.000000000000000e+00
2.295777866887671e-01 6.467920792044523e-01 0.000000000000000e+00
2.093029725964959e-01 6.281183210348930e-01 0.000000000000000e+00
1.913596510661341e-01 6.062862731811259e-01 0.000000000000000e+00
1.777560340873064e-01 5.830592528018338e-01 0.000000000000000e+00
1.672561024589624e-01 5.571061760727525e-01 0.000000000000000e+00
1.608129194858828e-01 5.293345888660136e-01 0.000000000000000e+00
1.585678763407947e-01 5.000000000000004e-01 0.000000000000000e+00
1.608129194858823e-01 4.706654111339883e-01 0.000000000000000e+00
1.672561024589617e-01 4.428938239272489e-01 0.000000000000000e+00
1.777560340873056e-01 4.169407471981678e-01 0.000000000000000e+00
1.913596510661332e-01 3.937137268188750e-01 0.000000000000000e+00
2.093029725964948e-01 3.718816789651085e-01 0.000000000000000e+00
2.295777866887658e-01 3.532079207955482e-01 0.000000000000000e+00
2.524805135521516e-01 3.365528598761454e-01 0.000000000000000e+00
2.772251335072230e-01 3.221475935459117e-01 0.000000000000000e+00
3.033082059878183e-01 3.101130321300423e-01 0.000000000000000e+00
3.301193506524776e-01 3.002436807706442e-01 0.000000000000000e+00
3.576085449358898e-01 2.927424947371720e-01 0.000000000000000e+00
3.854657877778890e-01 2.867015007845723e-01 0.000000000000000e+00
4.135175160159371e-01 2.824857035099009e-01 0.000000000000000e+00
4.422542730608499e-01 2.794186296974910e-01 0.000000000000000e+00
4.710035389828128e-01 2.776693252081377e-01 0.000000000000000e+00
4.999999999999989e-01 2.770643281208856e-01 0.000000000000000e+00
5.289964610171850e-01 2.776693252081375e-01 0.000000000000000e+00
5.577457269391480e-01 2.794186296974907e-01 0.000000000000000e+00
5.864824839840607e-01 2.824857035099007e-01 0.000000000000000e+00
6.145342122221086e-01 2.867015007845718e-01 0.000000000000000e+00
6.423914550641080e-01 2.927424947371712e-01 0.000000000000000e+00
6.698806493475200e-01 3.002436807706435e-01 0.000000000000000e+00
6.966917940121798e-01 3.101130321300412e-01 0.000000000000000e+00
7.227748664927751e-01 3.221475935459108e-01 0.000000000000000e+00
7.475194864478470e-01 3.365528598761439e-01 0.000000000000000e+00
7.704222133112328e-01 3.532079207955472e-01 0.000000000000000e+00
7.906970274035036e-01 3.718816789651070e-01 0.000000000000000e+00
8.086403489338652e-01 3.937137268188734e-01 0.000000000000000e+00
8.222439659126930e-01 4.169407471981661e-01 0.000000000000000e+00
8.327438975410373e-01 4.428938239272474e-01 0.000000000000000e+00
8.391870805141166e-01 4.706654111339862e-01 0.000000000000000e+00

POINT_DATA   64
SCALARS fTan double
LOOKUP_TABLE default

1.892124e-11 
2.129348e+01 
1.143664e+01 
2.777970e+01 
3.198421e+01 
1.838221e+01 
1.829940e+01 
7.651481e+00 
2.582100e+00 
4.053066e+00 
2.440277e+00 
1.926577e-01 
4.368418e+00 
1.280135e+01 
2.291513e+00 
5.515995e+00 
7.645411e-11 
5.515995e+00 
2.291513e+00 
1.280135e+01 
4.368418e+00 
1.926577e-01 
2.440277e+00 
4.053066e+00 
2.582100e+00 
7.651481e+00 
1.829940e+01 
1.838221e+01 
3.198421e+01 
2.777970e+01 
1.143664e+01 
2.129348e+01 
2.710670e-11 
2.129348e+01 
1.143664e+01 
2.777970e+01 
3.198421e+01 
1.838221e+01 
1.829940e+01 
7.651481e+00 
2.582100e+00 
4.053066e+00 
2.440277e+00 
1.926577e-01 
4.368418e+00 
1.280135e+01 
2.291513e+00 
5.515995e+00 
1.149858e-13 
5.515995e+00 
2.291513e+00 
1.280135e+01 
4.368418e+00 
1.926577e-01 
2.440277e+00 
4.053066e+00 
2.582100e+00 
7.651481e+00 
1.829940e+01 
1.838221e+01 
3.198421e+01 
2.777970e+01 
1.143664e+01 
2.129348e+01 
