# vtk DataFile Version 2.0
fTan
ASCII
DATASET UNSTRUCTURED_GRID

FIELD FieldData 1
TIME 1 1 double
1.24000000
POINTS 64 float
7.139651450122901e-01 4.999999999999630e-01 0.000000000000000e+00
7.133680579140901e-01 5.236771384196113e-01 0.000000000000000e+00
7.107355852326261e-01 5.463122495884315e-01 0.000000000000000e+00
7.049994669807067e-01 5.708940847960611e-01 0.000000000000000e+00
7.007742948442038e-01 5.889576290074592e-01 0.000000000000000e+00
6.912927699659729e-01 6.126001136795319e-01 0.000000000000000e+00
6.813146428326212e-01 6.322690216863077e-01 0.000000000000000e+00
6.685447343452169e-01 6.529583293364879e-01 0.000000000000000e+00
6.550136500586071e-01 6.710955020763104e-01 0.000000000000000e+00
6.401201250849959e-01 6.871763810868777e-01 0.000000000000000e+00
6.226757453066410e-01 7.031479552356867e-01 0.000000000000000e+00
6.061362381722177e-01 7.147865178494331e-01 0.000000000000000e+00
5.843366444736475e-01 7.276686944627609e-01 0.000000000000000e+00
5.673884788696719e-01 7.336115618514656e-01 0.000000000000000e+00
5.440286512490949e-01 7.410385462005165e-01 0.000000000000000e+00
5.224563034868805e-01 7.447325435275814e-01 0.000000000000000e+00
5.000000000000301e-01 7.456145194125284e-01 0.000000000000000e+00
4.775436965131775e-01 7.447325435275920e-01 0.000000000000000e+00
4.559713487509721e-01 7.410385462005324e-01 0.000000000000000e+00
4.326115211303805e-01 7.336115618514808e-01 0.000000000000000e+00
4.156633555264414e-01 7.276686944628158e-01 0.000000000000000e+00
3.938637618278629e-01 7.147865178494841e-01 0.000000000000000e+00
3.773242546934399e-01 7.031479552357500e-01 0.000000000000000e+00
3.598798749150811e-01 6.871763810869460e-01 0.000000000000000e+00
3.449863499414640e-01 6.710955020763782e-01 0.000000000000000e+00
3.314552656548445e-01 6.529583293365570e-01 0.000000000000000e+00
3.186853571674413e-01 6.322690216863799e-01 0.000000000000000e+00
3.087072300340889e-01 6.126001136796155e-01 0.000000000000000e+00
2.992257051558415e-01 5.889576290075311e-01 0.000000000000000e+00
2.950005330193500e-01 5.708940847961563e-01 0.000000000000000e+00
2.892644147674245e-01 5.463122495885280e-01 0.000000000000000e+00
2.866319420859524e-01 5.236771384197043e-01 0.000000000000000e+00
2.860348549877462e-01 5.000000000000553e-01 0.000000000000000e+00
2.866319420859471e-01 4.763228615804055e-01 0.000000000000000e+00
2.892644147674123e-01 4.536877504115872e-01 0.000000000000000e+00
2.950005330193355e-01 4.291059152039519e-01 0.000000000000000e+00
2.992257051558260e-01 4.110423709925743e-01 0.000000000000000e+00
3.087072300340605e-01 3.873998863204965e-01 0.000000000000000e+00
3.186853571674138e-01 3.677309783137200e-01 0.000000000000000e+00
3.314552656548146e-01 3.470416706635407e-01 0.000000000000000e+00
3.449863499414266e-01 3.289044979237156e-01 0.000000000000000e+00
3.598798749150379e-01 3.128236189131488e-01 0.000000000000000e+00
3.773242546933903e-01 2.968520447643401e-01 0.000000000000000e+00
3.938637618278132e-01 2.852134821505954e-01 0.000000000000000e+00
4.156633555263869e-01 2.723313055372614e-01 0.000000000000000e+00
4.326115211303465e-01 2.663884381485701e-01 0.000000000000000e+00
4.559713487509279e-01 2.589614537995161e-01 0.000000000000000e+00
4.775436965131379e-01 2.552674564724495e-01 0.000000000000000e+00
4.999999999999905e-01 2.543854805875029e-01 0.000000000000000e+00
5.224563034868421e-01 2.552674564724401e-01 0.000000000000000e+00
5.440286512490505e-01 2.589614537994990e-01 0.000000000000000e+00
5.673884788696389e-01 2.663884381485466e-01 0.000000000000000e+00
5.843366444735901e-01 2.723313055372233e-01 0.000000000000000e+00
6.061362381721676e-01 2.852134821505513e-01 0.000000000000000e+00
6.226757453065921e-01 2.968520447642869e-01 0.000000000000000e+00
6.401201250849512e-01 3.128236189130891e-01 0.000000000000000e+00
6.550136500585687e-01 3.289044979236564e-01 0.000000000000000e+00
6.685447343451887e-01 3.470416706634762e-01 0.000000000000000e+00
6.813146428325936e-01 3.677309783136514e-01 0.000000000000000e+00
6.912927699659459e-01 3.873998863204144e-01 0.000000000000000e+00
7.007742948441951e-01 4.110423709924984e-01 0.000000000000000e+00
7.049994669806798e-01 4.291059152038584e-01 0.000000000000000e+00
7.107355852326087e-01 4.536877504114901e-01 0.000000000000000e+00
7.133680579140825e-01 4.763228615803109e-01 0.000000000000000e+00

POINT_DATA   64
SCALARS fTan double
LOOKUP_TABLE default

9.913908e-11 
2.261855e+01 
6.116437e+01 
1.669829e+02 
1.733433e+02 
8.547170e+01 
5.650465e+01 
4.217359e+01 
1.809420e+01 
4.354623e+01 
8.586540e+01 
1.275289e+02 
1.843095e+02 
1.633837e+02 
6.600630e+01 
1.474489e+01 
4.783737e-11 
1.474489e+01 
6.600630e+01 
1.633837e+02 
1.843095e+02 
1.275289e+02 
8.586540e+01 
4.354623e+01 
1.809420e+01 
4.217359e+01 
5.650465e+01 
8.547170e+01 
1.733433e+02 
1.669829e+02 
6.116437e+01 
2.261855e+01 
2.023884e-11 
2.261855e+01 
6.116437e+01 
1.669829e+02 
1.733433e+02 
8.547170e+01 
5.650465e+01 
4.217359e+01 
1.809420e+01 
4.354623e+01 
8.586540e+01 
1.275289e+02 
1.843095e+02 
1.633837e+02 
6.600630e+01 
1.474489e+01 
2.871884e-11 
1.474489e+01 
6.600630e+01 
1.633837e+02 
1.843095e+02 
1.275289e+02 
8.586540e+01 
4.354623e+01 
1.809420e+01 
4.217359e+01 
5.650465e+01 
8.547170e+01 
1.733433e+02 
1.669829e+02 
6.116437e+01 
2.261855e+01 
