# vtk DataFile Version 2.0
fTan
ASCII
DATASET UNSTRUCTURED_GRID

FIELD FieldData 1
TIME 1 1 double
1.10000000
POINTS 64 float
7.180644292110228e-01 4.999999999999980e-01 0.000000000000000e+00
7.172660378263639e-01 5.246109775106313e-01 0.000000000000000e+00
7.147469492271612e-01 5.481406227404835e-01 0.000000000000000e+00
7.095050452507131e-01 5.729181816593687e-01 0.000000000000000e+00
7.041337408536854e-01 5.939158179699841e-01 0.000000000000000e+00
6.950102537362984e-01 6.180809063638687e-01 0.000000000000000e+00
6.850718565977855e-01 6.389039424872900e-01 0.000000000000000e+00
6.727172074903669e-01 6.598672686459749e-01 0.000000000000000e+00
6.592864308220073e-01 6.786339616116858e-01 0.000000000000000e+00
6.441451764272649e-01 6.960943598570167e-01 0.000000000000000e+00
6.261789946997380e-01 7.127439653304838e-01 0.000000000000000e+00
6.089236989619126e-01 7.257069386323138e-01 0.000000000000000e+00
5.877747434852435e-01 7.384247182673783e-01 0.000000000000000e+00
5.687986063909806e-01 7.458336233378768e-01 0.000000000000000e+00
5.454805104916592e-01 7.538398061762795e-01 0.000000000000000e+00
5.228773249000129e-01 7.576438389598976e-01 0.000000000000000e+00
5.000000000000006e-01 7.585278876523527e-01 0.000000000000000e+00
4.771226750999824e-01 7.576438389598976e-01 0.000000000000000e+00
4.545194895083372e-01 7.538398061762779e-01 0.000000000000000e+00
4.312013936090129e-01 7.458336233378701e-01 0.000000000000000e+00
4.122252565147652e-01 7.384247182673878e-01 0.000000000000000e+00
3.910763010380874e-01 7.257069386323129e-01 0.000000000000000e+00
3.738210053002702e-01 7.127439653304918e-01 0.000000000000000e+00
3.558548235727416e-01 6.960943598570225e-01 0.000000000000000e+00
3.407135691779989e-01 6.786339616116912e-01 0.000000000000000e+00
3.272827925096363e-01 6.598672686459796e-01 0.000000000000000e+00
3.149281434022203e-01 6.389039424872952e-01 0.000000000000000e+00
3.049897462637092e-01 6.180809063638795e-01 0.000000000000000e+00
2.958662591463167e-01 5.939158179699869e-01 0.000000000000000e+00
2.904949547492958e-01 5.729181816593821e-01 0.000000000000000e+00
2.852530507728450e-01 5.481406227404936e-01 0.000000000000000e+00
2.827339621736421e-01 5.246109775106425e-01 0.000000000000000e+00
2.819355707889828e-01 5.000000000000090e-01 0.000000000000000e+00
2.827339621736418e-01 4.753890224893758e-01 0.000000000000000e+00
2.852530507728453e-01 4.518593772595245e-01 0.000000000000000e+00
2.904949547492965e-01 4.270818183406355e-01 0.000000000000000e+00
2.958662591463181e-01 4.060841820300302e-01 0.000000000000000e+00
3.049897462637086e-01 3.819190936361399e-01 0.000000000000000e+00
3.149281434022212e-01 3.610960575127218e-01 0.000000000000000e+00
3.272827925096383e-01 3.401327313540366e-01 0.000000000000000e+00
3.407135691779991e-01 3.213660383883254e-01 0.000000000000000e+00
3.558548235727418e-01 3.039056401429946e-01 0.000000000000000e+00
3.738210053002693e-01 2.872560346695257e-01 0.000000000000000e+00
3.910763010380909e-01 2.742930613676997e-01 0.000000000000000e+00
4.122252565147640e-01 2.615752817326307e-01 0.000000000000000e+00
4.312013936090202e-01 2.541663766621389e-01 0.000000000000000e+00
4.545194895083428e-01 2.461601938237341e-01 0.000000000000000e+00
4.771226750999885e-01 2.423561610401154e-01 0.000000000000000e+00
5.000000000000039e-01 2.414721123476600e-01 0.000000000000000e+00
5.228773249000184e-01 2.423561610401155e-01 0.000000000000000e+00
5.454805104916650e-01 2.461601938237341e-01 0.000000000000000e+00
5.687986063909882e-01 2.541663766621398e-01 0.000000000000000e+00
5.877747434852404e-01 2.615752817326267e-01 0.000000000000000e+00
6.089236989619159e-01 2.742930613676983e-01 0.000000000000000e+00
6.261789946997354e-01 2.872560346695215e-01 0.000000000000000e+00
6.441451764272632e-01 3.039056401429900e-01 0.000000000000000e+00
6.592864308220067e-01 3.213660383883217e-01 0.000000000000000e+00
6.727172074903690e-01 3.401327313540329e-01 0.000000000000000e+00
6.850718565977852e-01 3.610960575127174e-01 0.000000000000000e+00
6.950102537362950e-01 3.819190936361307e-01 0.000000000000000e+00
7.041337408536900e-01 4.060841820300261e-01 0.000000000000000e+00
7.095050452507063e-01 4.270818183406228e-01 0.000000000000000e+00
7.147469492271594e-01 4.518593772595140e-01 0.000000000000000e+00
7.172660378263628e-01 4.753890224893645e-01 0.000000000000000e+00

POINT_DATA   64
SCALARS fTan double
LOOKUP_TABLE default

6.466497e-12 
2.421542e+01 
4.147956e+01 
9.151130e+01 
1.039810e+02 
6.901083e+01 
3.184025e+01 
3.141124e+01 
1.467348e+00 
3.384455e+01 
7.320862e+01 
7.817221e+01 
1.077366e+02 
1.064455e+02 
4.292466e+01 
1.121855e+00 
1.485914e-10 
1.121855e+00 
4.292466e+01 
1.064455e+02 
1.077366e+02 
7.817221e+01 
7.320862e+01 
3.384455e+01 
1.467348e+00 
3.141124e+01 
3.184025e+01 
6.901083e+01 
1.039810e+02 
9.151130e+01 
4.147956e+01 
2.421542e+01 
5.679100e-12 
2.421542e+01 
4.147956e+01 
9.151130e+01 
1.039810e+02 
6.901083e+01 
3.184025e+01 
3.141124e+01 
1.467348e+00 
3.384455e+01 
7.320862e+01 
7.817221e+01 
1.077366e+02 
1.064455e+02 
4.292466e+01 
1.121855e+00 
2.225318e-11 
1.121855e+00 
4.292466e+01 
1.064455e+02 
1.077366e+02 
7.817221e+01 
7.320862e+01 
3.384455e+01 
1.467348e+00 
3.141124e+01 
3.184025e+01 
6.901083e+01 
1.039810e+02 
9.151130e+01 
4.147956e+01 
2.421542e+01 
