# vtk DataFile Version 2.0
fX_Lag
ASCII
DATASET UNSTRUCTURED_GRID

FIELD FieldData 1
TIME 1 1 double
1.04000000
POINTS 64 float
7.594502798440927e-01 5.000000000000001e-01 0.000000000000000e+00
7.582601345906885e-01 5.236667390306278e-01 0.000000000000000e+00
7.545819558735039e-01 5.463299604235913e-01 0.000000000000000e+00
7.471269770560145e-01 5.698066118497758e-01 0.000000000000000e+00
7.391271135728115e-01 5.901403985782860e-01 0.000000000000000e+00
7.266526869748769e-01 6.116276107063849e-01 0.000000000000000e+00
7.134869749481717e-01 6.298769989848413e-01 0.000000000000000e+00
6.973609045065042e-01 6.480653097139752e-01 0.000000000000000e+00
6.801851388735122e-01 6.632792809465572e-01 0.000000000000000e+00
6.610548120520867e-01 6.774244868616313e-01 0.000000000000000e+00
6.399565269849418e-01 6.902492691245603e-01 0.000000000000000e+00
6.192124082947225e-01 6.997433182342331e-01 0.000000000000000e+00
5.949308640304036e-01 7.094050147725670e-01 0.000000000000000e+00
5.732189780667969e-01 7.150658646738530e-01 0.000000000000000e+00
5.483696328113227e-01 7.202528391993076e-01 0.000000000000000e+00
5.244651682254083e-01 7.229537179515055e-01 0.000000000000000e+00
4.999999999999976e-01 7.236363726010843e-01 0.000000000000000e+00
4.755348317745837e-01 7.229537179515042e-01 0.000000000000000e+00
4.516303671886719e-01 7.202528391993063e-01 0.000000000000000e+00
4.267810219331942e-01 7.150658646738478e-01 0.000000000000000e+00
4.050691359696003e-01 7.094050147725721e-01 0.000000000000000e+00
3.807875917052714e-01 6.997433182342291e-01 0.000000000000000e+00
3.600434730150628e-01 6.902492691245634e-01 0.000000000000000e+00
3.389451879479152e-01 6.774244868616339e-01 0.000000000000000e+00
3.198148611264890e-01 6.632792809465575e-01 0.000000000000000e+00
3.026390954934963e-01 6.480653097139757e-01 0.000000000000000e+00
2.865130250518293e-01 6.298769989848431e-01 0.000000000000000e+00
2.733473130251265e-01 6.116276107063886e-01 0.000000000000000e+00
2.608728864271871e-01 5.901403985782854e-01 0.000000000000000e+00
2.528730229439899e-01 5.698066118497818e-01 0.000000000000000e+00
2.454180441264985e-01 5.463299604235955e-01 0.000000000000000e+00
2.417398654093139e-01 5.236667390306328e-01 0.000000000000000e+00
2.405497201559096e-01 5.000000000000052e-01 0.000000000000000e+00
2.417398654093136e-01 4.763332609693770e-01 0.000000000000000e+00
2.454180441264984e-01 4.536700395764139e-01 0.000000000000000e+00
2.528730229439898e-01 4.301933881502270e-01 0.000000000000000e+00
2.608728864271879e-01 4.098596014217225e-01 0.000000000000000e+00
2.733473130251254e-01 3.883723892936203e-01 0.000000000000000e+00
2.865130250518293e-01 3.701230010151652e-01 0.000000000000000e+00
3.026390954934965e-01 3.519346902860313e-01 0.000000000000000e+00
3.198148611264893e-01 3.367207190534489e-01 0.000000000000000e+00
3.389451879479145e-01 3.225755131383741e-01 0.000000000000000e+00
3.600434730150607e-01 3.097507308754450e-01 0.000000000000000e+00
3.807875917052760e-01 3.002566817657745e-01 0.000000000000000e+00
4.050691359695989e-01 2.905949852274371e-01 0.000000000000000e+00
4.267810219332002e-01 2.849341353261557e-01 0.000000000000000e+00
4.516303671886765e-01 2.797471608006991e-01 0.000000000000000e+00
4.755348317745895e-01 2.770462820485017e-01 0.000000000000000e+00
5.000000000000024e-01 2.763636273989225e-01 0.000000000000000e+00
5.244651682254143e-01 2.770462820485021e-01 0.000000000000000e+00
5.483696328113271e-01 2.797471608006998e-01 0.000000000000000e+00
5.732189780668043e-01 2.849341353261575e-01 0.000000000000000e+00
5.949308640304011e-01 2.905949852274359e-01 0.000000000000000e+00
6.192124082947277e-01 3.002566817657757e-01 0.000000000000000e+00
6.399565269849397e-01 3.097507308754446e-01 0.000000000000000e+00
6.610548120520870e-01 3.225755131383731e-01 0.000000000000000e+00
6.801851388735128e-01 3.367207190534489e-01 0.000000000000000e+00
6.973609045065059e-01 3.519346902860301e-01 0.000000000000000e+00
7.134869749481734e-01 3.701230010151637e-01 0.000000000000000e+00
7.266526869748757e-01 3.883723892936166e-01 0.000000000000000e+00
7.391271135728174e-01 4.098596014217226e-01 0.000000000000000e+00
7.471269770560103e-01 4.301933881502212e-01 0.000000000000000e+00
7.545819558735039e-01 4.536700395764096e-01 0.000000000000000e+00
7.582601345906882e-01 4.763332609693721e-01 0.000000000000000e+00

POINT_DATA   64
SCALARS fX_Lag double
LOOKUP_TABLE default

-5.991773e+01 
-6.250186e+01 
-9.451835e+01 
-1.372091e+01 
-1.122096e+02 
-1.665288e+01 
-7.387596e+01 
-2.663391e+01 
-4.865951e+01 
-4.963550e+01 
8.798523e+00 
-8.836811e+01 
6.479500e+01 
-7.827261e+01 
2.346774e+01 
-1.397472e+01 
-7.639755e-11 
1.397472e+01 
-2.346774e+01 
7.827261e+01 
-6.479500e+01 
8.836811e+01 
-8.798523e+00 
4.963550e+01 
4.865951e+01 
2.663391e+01 
7.387596e+01 
1.665288e+01 
1.122096e+02 
1.372091e+01 
9.451835e+01 
6.250186e+01 
5.991773e+01 
6.250186e+01 
9.451835e+01 
1.372091e+01 
1.122096e+02 
1.665288e+01 
7.387596e+01 
2.663391e+01 
4.865951e+01 
4.963550e+01 
-8.798523e+00 
8.836811e+01 
-6.479500e+01 
7.827261e+01 
-2.346774e+01 
1.397472e+01 
-2.910383e-11 
-1.397472e+01 
2.346774e+01 
-7.827261e+01 
6.479500e+01 
-8.836811e+01 
8.798523e+00 
-4.963550e+01 
-4.865951e+01 
-2.663391e+01 
-7.387596e+01 
-1.665288e+01 
-1.122096e+02 
-1.372091e+01 
-9.451835e+01 
-6.250186e+01 
