# vtk DataFile Version 2.0
fX_Lag
ASCII
DATASET UNSTRUCTURED_GRID

FIELD FieldData 1
TIME 1 1 double
0.36000000
POINTS 64 float
7.592065421087202e-01 4.999999999999991e-01 0.000000000000000e+00
7.580483347124134e-01 5.278990881485467e-01 0.000000000000000e+00
7.552243170575770e-01 5.552981103602830e-01 0.000000000000000e+00
7.498609215911078e-01 5.823115048148897e-01 0.000000000000000e+00
7.425125575979671e-01 6.087298094664149e-01 0.000000000000000e+00
7.333620181930991e-01 6.344155832964019e-01 0.000000000000000e+00
7.216544370022702e-01 6.587816751734913e-01 0.000000000000000e+00
7.080375051898793e-01 6.821303310117238e-01 0.000000000000000e+00
6.924605626302338e-01 7.032795091519281e-01 0.000000000000000e+00
6.749642263561503e-01 7.226305716158646e-01 0.000000000000000e+00
6.546333443915072e-01 7.401755476129586e-01 0.000000000000000e+00
6.326646936820285e-01 7.552892510954473e-01 0.000000000000000e+00
6.087180947711346e-01 7.683617113847734e-01 0.000000000000000e+00
5.828366769084337e-01 7.783708672413361e-01 0.000000000000000e+00
5.562417316346483e-01 7.856284658936453e-01 0.000000000000000e+00
5.282354249322864e-01 7.899602561468376e-01 0.000000000000000e+00
4.999999999999999e-01 7.914574757880846e-01 0.000000000000000e+00
4.717645750677159e-01 7.899602561468378e-01 0.000000000000000e+00
4.437582683653519e-01 7.856284658936455e-01 0.000000000000000e+00
4.171633230915673e-01 7.783708672413362e-01 0.000000000000000e+00
3.912819052288658e-01 7.683617113847737e-01 0.000000000000000e+00
3.673353063179724e-01 7.552892510954488e-01 0.000000000000000e+00
3.453666556084925e-01 7.401755476129596e-01 0.000000000000000e+00
3.250357736438502e-01 7.226305716158656e-01 0.000000000000000e+00
3.075394373697665e-01 7.032795091519300e-01 0.000000000000000e+00
2.919624948101208e-01 6.821303310117253e-01 0.000000000000000e+00
2.783455629977303e-01 6.587816751734930e-01 0.000000000000000e+00
2.666379818069011e-01 6.344155832964037e-01 0.000000000000000e+00
2.574874424020325e-01 6.087298094664162e-01 0.000000000000000e+00
2.501390784088917e-01 5.823115048148920e-01 0.000000000000000e+00
2.447756829424224e-01 5.552981103602846e-01 0.000000000000000e+00
2.419516652875862e-01 5.278990881485495e-01 0.000000000000000e+00
2.407934578912793e-01 5.000000000000004e-01 0.000000000000000e+00
2.419516652875861e-01 4.721009118514535e-01 0.000000000000000e+00
2.447756829424220e-01 4.447018896397168e-01 0.000000000000000e+00
2.501390784088914e-01 4.176884951851105e-01 0.000000000000000e+00
2.574874424020317e-01 3.912701905335852e-01 0.000000000000000e+00
2.666379818069002e-01 3.655844167035986e-01 0.000000000000000e+00
2.783455629977288e-01 3.412183248265084e-01 0.000000000000000e+00
2.919624948101199e-01 3.178696689882759e-01 0.000000000000000e+00
3.075394373697646e-01 2.967204908480718e-01 0.000000000000000e+00
3.250357736438486e-01 2.773694283841353e-01 0.000000000000000e+00
3.453666556084909e-01 2.598244523870420e-01 0.000000000000000e+00
3.673353063179706e-01 2.447107489045524e-01 0.000000000000000e+00
3.912819052288644e-01 2.316382886152270e-01 0.000000000000000e+00
4.171633230915652e-01 2.216291327586644e-01 0.000000000000000e+00
4.437582683653503e-01 2.143715341063549e-01 0.000000000000000e+00
4.717645750677131e-01 2.100397438531626e-01 0.000000000000000e+00
4.999999999999988e-01 2.085425242119154e-01 0.000000000000000e+00
5.282354249322838e-01 2.100397438531624e-01 0.000000000000000e+00
5.562417316346467e-01 2.143715341063545e-01 0.000000000000000e+00
5.828366769084318e-01 2.216291327586639e-01 0.000000000000000e+00
6.087180947711328e-01 2.316382886152265e-01 0.000000000000000e+00
6.326646936820266e-01 2.447107489045513e-01 0.000000000000000e+00
6.546333443915061e-01 2.598244523870404e-01 0.000000000000000e+00
6.749642263561492e-01 2.773694283841341e-01 0.000000000000000e+00
6.924605626302325e-01 2.967204908480700e-01 0.000000000000000e+00
7.080375051898781e-01 3.178696689882743e-01 0.000000000000000e+00
7.216544370022689e-01 3.412183248265069e-01 0.000000000000000e+00
7.333620181930978e-01 3.655844167035964e-01 0.000000000000000e+00
7.425125575979666e-01 3.912701905335833e-01 0.000000000000000e+00
7.498609215911074e-01 4.176884951851078e-01 0.000000000000000e+00
7.552243170575773e-01 4.447018896397149e-01 0.000000000000000e+00
7.580483347124132e-01 4.721009118514504e-01 0.000000000000000e+00

POINT_DATA   64
SCALARS fX_Lag double
LOOKUP_TABLE default

-5.673433e+01 
-4.097206e+01 
-6.313028e+01 
-4.853647e+01 
-4.468759e+01 
-6.413974e+01 
-4.737210e+01 
-4.920194e+01 
-4.814577e+01 
-7.150070e+01 
-4.162009e+01 
-4.934672e+01 
-4.885108e+01 
-1.846956e+01 
-3.610628e+01 
-6.002574e+00 
5.820766e-11 
6.002574e+00 
3.610628e+01 
1.846956e+01 
4.885108e+01 
4.934672e+01 
4.162009e+01 
7.150070e+01 
4.814577e+01 
4.920194e+01 
4.737210e+01 
6.413974e+01 
4.468759e+01 
4.853647e+01 
6.313028e+01 
4.097206e+01 
5.673433e+01 
4.097206e+01 
6.313028e+01 
4.853647e+01 
4.468759e+01 
6.413974e+01 
4.737210e+01 
4.920194e+01 
4.814577e+01 
7.150070e+01 
4.162009e+01 
4.934672e+01 
4.885108e+01 
1.846956e+01 
3.610628e+01 
6.002574e+00 
-1.944045e-11 
-6.002574e+00 
-3.610628e+01 
-1.846956e+01 
-4.885108e+01 
-4.934672e+01 
-4.162009e+01 
-7.150070e+01 
-4.814577e+01 
-4.920194e+01 
-4.737210e+01 
-6.413974e+01 
-4.468759e+01 
-4.853647e+01 
-6.313028e+01 
-4.097206e+01 
