# vtk DataFile Version 2.0
fX_Lag
ASCII
DATASET UNSTRUCTURED_GRID

FIELD FieldData 1
TIME 1 1 double
0.94000000
POINTS 64 float
7.254250936643559e-01 5.000000000000020e-01 0.000000000000000e+00
7.245634647896985e-01 5.253666254590585e-01 0.000000000000000e+00
7.218969054555674e-01 5.500880026295881e-01 0.000000000000000e+00
7.167414923395894e-01 5.753438143100109e-01 0.000000000000000e+00
7.110926415593566e-01 5.982891406332579e-01 0.000000000000000e+00
7.016447047489001e-01 6.230953513300848e-01 0.000000000000000e+00
6.919619549599548e-01 6.447730318616792e-01 0.000000000000000e+00
6.801460430233993e-01 6.660919309309300e-01 0.000000000000000e+00
6.658308550848879e-01 6.860914734177127e-01 0.000000000000000e+00
6.498978249652525e-01 7.049050328807417e-01 0.000000000000000e+00
6.321251485712249e-01 7.217323119284330e-01 0.000000000000000e+00
6.133829806791906e-01 7.360206376343988e-01 0.000000000000000e+00
5.920531524829262e-01 7.492720106594418e-01 0.000000000000000e+00
5.706919961513489e-01 7.583014756907445e-01 0.000000000000000e+00
5.474566209298219e-01 7.659988387519017e-01 0.000000000000000e+00
5.239235593711493e-01 7.703170563782605e-01 0.000000000000000e+00
4.999999999999959e-01 7.714597466337304e-01 0.000000000000000e+00
4.760764406288393e-01 7.703170563782596e-01 0.000000000000000e+00
4.525433790701682e-01 7.659988387519002e-01 0.000000000000000e+00
4.293080038486400e-01 7.583014756907397e-01 0.000000000000000e+00
4.079468475170681e-01 7.492720106594430e-01 0.000000000000000e+00
3.866170193207985e-01 7.360206376343923e-01 0.000000000000000e+00
3.678748514287687e-01 7.217323119284319e-01 0.000000000000000e+00
3.501021750347389e-01 7.049050328807372e-01 0.000000000000000e+00
3.341691449151049e-01 6.860914734177084e-01 0.000000000000000e+00
3.198539569765926e-01 6.660919309309253e-01 0.000000000000000e+00
3.080380450400387e-01 6.447730318616743e-01 0.000000000000000e+00
2.983552952510949e-01 6.230953513300826e-01 0.000000000000000e+00
2.889073584406361e-01 5.982891406332514e-01 0.000000000000000e+00
2.832585076604073e-01 5.753438143100091e-01 0.000000000000000e+00
2.781030945444278e-01 5.500880026295849e-01 0.000000000000000e+00
2.754365352102980e-01 5.253666254590549e-01 0.000000000000000e+00
2.745749063356413e-01 4.999999999999996e-01 0.000000000000000e+00
2.754365352102986e-01 4.746333745409435e-01 0.000000000000000e+00
2.781030945444296e-01 4.499119973704144e-01 0.000000000000000e+00
2.832585076604093e-01 4.246561856899900e-01 0.000000000000000e+00
2.889073584406392e-01 4.017108593667476e-01 0.000000000000000e+00
2.983552952510983e-01 3.769046486699169e-01 0.000000000000000e+00
3.080380450400426e-01 3.552269681383252e-01 0.000000000000000e+00
3.198539569765973e-01 3.339080690690743e-01 0.000000000000000e+00
3.341691449151092e-01 3.139085265822912e-01 0.000000000000000e+00
3.501021750347443e-01 2.950949671192623e-01 0.000000000000000e+00
3.678748514287722e-01 2.782676880715699e-01 0.000000000000000e+00
3.866170193208049e-01 2.639793623656063e-01 0.000000000000000e+00
4.079468475170715e-01 2.507279893405598e-01 0.000000000000000e+00
4.293080038486469e-01 2.416985243092596e-01 0.000000000000000e+00
4.525433790701745e-01 2.340011612481009e-01 0.000000000000000e+00
4.760764406288467e-01 2.296829436217426e-01 0.000000000000000e+00
5.000000000000012e-01 2.285402533662723e-01 0.000000000000000e+00
5.239235593711566e-01 2.296829436217431e-01 0.000000000000000e+00
5.474566209298285e-01 2.340011612481027e-01 0.000000000000000e+00
5.706919961513567e-01 2.416985243092628e-01 0.000000000000000e+00
5.920531524829294e-01 2.507279893405611e-01 0.000000000000000e+00
6.133829806791981e-01 2.639793623656106e-01 0.000000000000000e+00
6.321251485712283e-01 2.782676880715720e-01 0.000000000000000e+00
6.498978249652573e-01 2.950949671192659e-01 0.000000000000000e+00
6.658308550848919e-01 3.139085265822951e-01 0.000000000000000e+00
6.801460430234039e-01 3.339080690690783e-01 0.000000000000000e+00
6.919619549599586e-01 3.552269681383300e-01 0.000000000000000e+00
7.016447047489012e-01 3.769046486699190e-01 0.000000000000000e+00
7.110926415593620e-01 4.017108593667524e-01 0.000000000000000e+00
7.167414923395887e-01 4.246561856899917e-01 0.000000000000000e+00
7.218969054555691e-01 4.499119973704169e-01 0.000000000000000e+00
7.245634647896986e-01 4.746333745409473e-01 0.000000000000000e+00

POINT_DATA   64
SCALARS fX_Lag double
LOOKUP_TABLE default

-4.316129e+01 
-4.522703e+01 
-6.223247e+01 
-1.220928e+01 
-9.525856e+01 
-6.144914e+00 
-5.298264e+01 
-6.276711e+01 
-4.091821e+01 
-4.552314e+01 
-2.451443e+01 
-6.424789e+01 
-5.796934e-01 
-4.690824e+01 
-7.392369e+00 
-9.610656e+00 
-8.196821e-11 
9.610656e+00 
7.392369e+00 
4.690824e+01 
5.796934e-01 
6.424789e+01 
2.451443e+01 
4.552314e+01 
4.091821e+01 
6.276711e+01 
5.298264e+01 
6.144914e+00 
9.525856e+01 
1.220928e+01 
6.223247e+01 
4.522703e+01 
4.316129e+01 
4.522703e+01 
6.223247e+01 
1.220928e+01 
9.525856e+01 
6.144914e+00 
5.298264e+01 
6.276711e+01 
4.091821e+01 
4.552314e+01 
2.451443e+01 
6.424789e+01 
5.796934e-01 
4.690824e+01 
7.392369e+00 
9.610656e+00 
2.205525e-11 
-9.610656e+00 
-7.392369e+00 
-4.690824e+01 
-5.796934e-01 
-6.424789e+01 
-2.451443e+01 
-4.552314e+01 
-4.091821e+01 
-6.276711e+01 
-5.298264e+01 
-6.144914e+00 
-9.525856e+01 
-1.220928e+01 
-6.223247e+01 
-4.522703e+01 
