# vtk DataFile Version 2.0
fX_Lag
ASCII
DATASET UNSTRUCTURED_GRID

FIELD FieldData 1
TIME 1 1 double
0.28000000
POINTS 64 float
7.897732666963387e-01 4.999999999999991e-01 0.000000000000000e+00
7.886457742488223e-01 5.267016656227920e-01 0.000000000000000e+00
7.853902890736302e-01 5.531337835042377e-01 0.000000000000000e+00
7.795972118735839e-01 5.797003853544782e-01 0.000000000000000e+00
7.715900846372784e-01 6.048612176026735e-01 0.000000000000000e+00
7.604716960082910e-01 6.292230050993967e-01 0.000000000000000e+00
7.472881332832237e-01 6.511058895117866e-01 0.000000000000000e+00
7.316052937343011e-01 6.711476491869416e-01 0.000000000000000e+00
7.130045291363787e-01 6.899457131020894e-01 0.000000000000000e+00
6.922733178597363e-01 7.061696892716132e-01 0.000000000000000e+00
6.690266338261013e-01 7.205851271957294e-01 0.000000000000000e+00
6.437551655297337e-01 7.330038936134715e-01 0.000000000000000e+00
6.167915716280304e-01 7.430329490267117e-01 0.000000000000000e+00
5.886680149909782e-01 7.510638298071282e-01 0.000000000000000e+00
5.596729706895858e-01 7.569912324271464e-01 0.000000000000000e+00
5.301588379667931e-01 7.603851773630879e-01 0.000000000000000e+00
5.000000000000000e-01 7.615944856802247e-01 0.000000000000000e+00
4.698411620332106e-01 7.603851773630879e-01 0.000000000000000e+00
4.403270293104147e-01 7.569912324271466e-01 0.000000000000000e+00
4.113319850090243e-01 7.510638298071282e-01 0.000000000000000e+00
3.832084283719702e-01 7.430329490267121e-01 0.000000000000000e+00
3.562448344702677e-01 7.330038936134721e-01 0.000000000000000e+00
3.309733661738992e-01 7.205851271957304e-01 0.000000000000000e+00
3.077266821402648e-01 7.061696892716148e-01 0.000000000000000e+00
2.869954708636220e-01 6.899457131020914e-01 0.000000000000000e+00
2.683947062656991e-01 6.711476491869428e-01 0.000000000000000e+00
2.527118667167765e-01 6.511058895117883e-01 0.000000000000000e+00
2.395283039917092e-01 6.292230050993985e-01 0.000000000000000e+00
2.284099153627214e-01 6.048612176026754e-01 0.000000000000000e+00
2.204027881264161e-01 5.797003853544809e-01 0.000000000000000e+00
2.146097109263696e-01 5.531337835042394e-01 0.000000000000000e+00
2.113542257511775e-01 5.267016656227945e-01 0.000000000000000e+00
2.102267333036605e-01 5.000000000000004e-01 0.000000000000000e+00
2.113542257511773e-01 4.732983343772080e-01 0.000000000000000e+00
2.146097109263691e-01 4.468662164957620e-01 0.000000000000000e+00
2.204027881264159e-01 4.202996146455213e-01 0.000000000000000e+00
2.284099153627210e-01 3.951387823973260e-01 0.000000000000000e+00
2.395283039917087e-01 3.707769949006030e-01 0.000000000000000e+00
2.527118667167752e-01 3.488941104882128e-01 0.000000000000000e+00
2.683947062656983e-01 3.288523508130579e-01 0.000000000000000e+00
2.869954708636203e-01 3.100542868979097e-01 0.000000000000000e+00
3.077266821402634e-01 2.938303107283858e-01 0.000000000000000e+00
3.309733661738976e-01 2.794148728042701e-01 0.000000000000000e+00
3.562448344702659e-01 2.669961063865282e-01 0.000000000000000e+00
3.832084283719686e-01 2.569670509732881e-01 0.000000000000000e+00
4.113319850090222e-01 2.489361701928715e-01 0.000000000000000e+00
4.403270293104134e-01 2.430087675728534e-01 0.000000000000000e+00
4.698411620332077e-01 2.396148226369118e-01 0.000000000000000e+00
4.999999999999988e-01 2.384055143197748e-01 0.000000000000000e+00
5.301588379667900e-01 2.396148226369116e-01 0.000000000000000e+00
5.596729706895843e-01 2.430087675728531e-01 0.000000000000000e+00
5.886680149909755e-01 2.489361701928711e-01 0.000000000000000e+00
6.167915716280291e-01 2.569670509732875e-01 0.000000000000000e+00
6.437551655297320e-01 2.669961063865277e-01 0.000000000000000e+00
6.690266338261001e-01 2.794148728042695e-01 0.000000000000000e+00
6.922733178597350e-01 2.938303107283848e-01 0.000000000000000e+00
7.130045291363772e-01 3.100542868979085e-01 0.000000000000000e+00
7.316052937343005e-01 3.288523508130565e-01 0.000000000000000e+00
7.472881332832231e-01 3.488941104882113e-01 0.000000000000000e+00
7.604716960082897e-01 3.707769949006011e-01 0.000000000000000e+00
7.715900846372777e-01 3.951387823973245e-01 0.000000000000000e+00
7.795972118735827e-01 4.202996146455195e-01 0.000000000000000e+00
7.853902890736298e-01 4.468662164957602e-01 0.000000000000000e+00
7.886457742488219e-01 4.732983343772054e-01 0.000000000000000e+00

POINT_DATA   64
SCALARS fX_Lag double
LOOKUP_TABLE default

-5.745123e+01 
-5.381882e+01 
-6.385621e+01 
-5.646749e+01 
-7.864356e+01 
-5.203398e+01 
-6.262850e+01 
-7.254822e+01 
-5.297005e+01 
-6.265252e+01 
-5.011367e+01 
-4.145158e+01 
-2.886411e+01 
-2.090272e+01 
-1.183390e+01 
-1.544882e+01 
9.299583e-11 
1.544882e+01 
1.183390e+01 
2.090272e+01 
2.886411e+01 
4.145158e+01 
5.011367e+01 
6.265252e+01 
5.297005e+01 
7.254822e+01 
6.262850e+01 
5.203398e+01 
7.864356e+01 
5.646749e+01 
6.385621e+01 
5.381882e+01 
5.745123e+01 
5.381882e+01 
6.385621e+01 
5.646749e+01 
7.864356e+01 
5.203398e+01 
6.262850e+01 
7.254822e+01 
5.297005e+01 
6.265252e+01 
5.011367e+01 
4.145158e+01 
2.886411e+01 
2.090272e+01 
1.183390e+01 
1.544882e+01 
0 
-1.544882e+01 
-1.183390e+01 
-2.090272e+01 
-2.886411e+01 
-4.145158e+01 
-5.011367e+01 
-6.265252e+01 
-5.297005e+01 
-7.254822e+01 
-6.262850e+01 
-5.203398e+01 
-7.864356e+01 
-5.646749e+01 
-6.385621e+01 
-5.381882e+01 
