# vtk DataFile Version 2.0
fX_Lag
ASCII
DATASET UNSTRUCTURED_GRID

FIELD FieldData 1
TIME 1 1 double
0.80000000
POINTS 64 float
7.271025660428660e-01 5.000000000000028e-01 0.000000000000000e+00
7.261738717606262e-01 5.262130611139251e-01 0.000000000000000e+00
7.237470097131082e-01 5.523932132201932e-01 0.000000000000000e+00
7.191942512023910e-01 5.781503881802068e-01 0.000000000000000e+00
7.128578128826912e-01 6.034794367693063e-01 0.000000000000000e+00
7.047403927408931e-01 6.278336555687195e-01 0.000000000000000e+00
6.942523781654466e-01 6.517348524517371e-01 0.000000000000000e+00
6.829256078176629e-01 6.743294026643366e-01 0.000000000000000e+00
6.687957986551198e-01 6.958197104218046e-01 0.000000000000000e+00
6.529948547513355e-01 7.159909990834550e-01 0.000000000000000e+00
6.357158609071231e-01 7.337444626888585e-01 0.000000000000000e+00
6.162916875936113e-01 7.495838392229426e-01 0.000000000000000e+00
5.951568771196365e-01 7.628407013261387e-01 0.000000000000000e+00
5.727998272667045e-01 7.733664402992767e-01 0.000000000000000e+00
5.489804214005305e-01 7.812148435582359e-01 0.000000000000000e+00
5.245987892951085e-01 7.856814201936206e-01 0.000000000000000e+00
4.999999999999961e-01 7.869459311473337e-01 0.000000000000000e+00
4.754012107048815e-01 7.856814201936201e-01 0.000000000000000e+00
4.510195785994606e-01 7.812148435582349e-01 0.000000000000000e+00
4.272001727332864e-01 7.733664402992743e-01 0.000000000000000e+00
4.048431228803567e-01 7.628407013261383e-01 0.000000000000000e+00
3.837083124063791e-01 7.495838392229378e-01 0.000000000000000e+00
3.642841390928693e-01 7.337444626888563e-01 0.000000000000000e+00
3.470051452486576e-01 7.159909990834512e-01 0.000000000000000e+00
3.312042013448735e-01 6.958197104218008e-01 0.000000000000000e+00
3.170743921823309e-01 6.743294026643323e-01 0.000000000000000e+00
3.057476218345472e-01 6.517348524517325e-01 0.000000000000000e+00
2.952596072591023e-01 6.278336555687156e-01 0.000000000000000e+00
2.871421871173035e-01 6.034794367693013e-01 0.000000000000000e+00
2.808057487976050e-01 5.781503881802021e-01 0.000000000000000e+00
2.762529902868872e-01 5.523932132201884e-01 0.000000000000000e+00
2.738261282393702e-01 5.262130611139197e-01 0.000000000000000e+00
2.728974339571306e-01 4.999999999999987e-01 0.000000000000000e+00
2.738261282393706e-01 4.737869388860771e-01 0.000000000000000e+00
2.762529902868880e-01 4.476067867798088e-01 0.000000000000000e+00
2.808057487976061e-01 4.218496118197948e-01 0.000000000000000e+00
2.871421871173049e-01 3.965205632306964e-01 0.000000000000000e+00
2.952596072591043e-01 3.721663444312815e-01 0.000000000000000e+00
3.057476218345499e-01 3.482651475482654e-01 0.000000000000000e+00
3.170743921823340e-01 3.256705973356653e-01 0.000000000000000e+00
3.312042013448773e-01 3.041802895781973e-01 0.000000000000000e+00
3.470051452486618e-01 2.840090009165471e-01 0.000000000000000e+00
3.642841390928733e-01 2.662555373111433e-01 0.000000000000000e+00
3.837083124063846e-01 2.504161607770604e-01 0.000000000000000e+00
4.048431228803610e-01 2.371592986738628e-01 0.000000000000000e+00
4.272001727332922e-01 2.266335597007255e-01 0.000000000000000e+00
4.510195785994662e-01 2.187851564417659e-01 0.000000000000000e+00
4.754012107048882e-01 2.143185798063807e-01 0.000000000000000e+00
5.000000000000004e-01 2.130540688526683e-01 0.000000000000000e+00
5.245987892951146e-01 2.143185798063809e-01 0.000000000000000e+00
5.489804214005360e-01 2.187851564417672e-01 0.000000000000000e+00
5.727998272667097e-01 2.266335597007270e-01 0.000000000000000e+00
5.951568771196400e-01 2.371592986738636e-01 0.000000000000000e+00
6.162916875936167e-01 2.504161607770634e-01 0.000000000000000e+00
6.357158609071274e-01 2.662555373111454e-01 0.000000000000000e+00
6.529948547513387e-01 2.840090009165503e-01 0.000000000000000e+00
6.687957986551227e-01 3.041802895782004e-01 0.000000000000000e+00
6.829256078176656e-01 3.256705973356689e-01 0.000000000000000e+00
6.942523781654503e-01 3.482651475482705e-01 0.000000000000000e+00
7.047403927408941e-01 3.721663444312851e-01 0.000000000000000e+00
7.128578128826945e-01 3.965205632307012e-01 0.000000000000000e+00
7.191942512023916e-01 4.218496118197992e-01 0.000000000000000e+00
7.237470097131098e-01 4.476067867798132e-01 0.000000000000000e+00
7.261738717606262e-01 4.737869388860820e-01 0.000000000000000e+00

POINT_DATA   64
SCALARS fX_Lag double
LOOKUP_TABLE default

-4.641337e+01 
-3.742765e+01 
-5.313459e+01 
-4.462443e+01 
-4.448560e+01 
-5.922747e+01 
-2.086220e+01 
-7.032198e+01 
-4.173890e+01 
-3.689512e+01 
-5.424435e+01 
-4.239558e+01 
-3.040065e+01 
-3.595235e+01 
-1.444741e+01 
-5.452673e+00 
-5.411493e-11 
5.452673e+00 
1.444741e+01 
3.595235e+01 
3.040065e+01 
4.239558e+01 
5.424435e+01 
3.689512e+01 
4.173890e+01 
7.032198e+01 
2.086220e+01 
5.922747e+01 
4.448560e+01 
4.462443e+01 
5.313459e+01 
3.742765e+01 
4.641337e+01 
3.742765e+01 
5.313459e+01 
4.462443e+01 
4.448560e+01 
5.922747e+01 
2.086220e+01 
7.032198e+01 
4.173890e+01 
3.689512e+01 
5.424435e+01 
4.239558e+01 
3.040065e+01 
3.595235e+01 
1.444741e+01 
5.452673e+00 
5.138645e-11 
-5.452673e+00 
-1.444741e+01 
-3.595235e+01 
-3.040065e+01 
-4.239558e+01 
-5.424435e+01 
-3.689512e+01 
-4.173890e+01 
-7.032198e+01 
-2.086220e+01 
-5.922747e+01 
-4.448560e+01 
-4.462443e+01 
-5.313459e+01 
-3.742765e+01 
