# vtk DataFile Version 2.0
fX_Lag
ASCII
DATASET UNSTRUCTURED_GRID

FIELD FieldData 1
TIME 1 1 double
1.02000000
POINTS 64 float
7.652377298164795e-01 5.000000000000017e-01 0.000000000000000e+00
7.640360007135447e-01 5.234682137486121e-01 0.000000000000000e+00
7.602724474580724e-01 5.465731538393146e-01 0.000000000000000e+00
7.524535535359476e-01 5.700449305793472e-01 0.000000000000000e+00
7.443694059451448e-01 5.902230825501494e-01 0.000000000000000e+00
7.314229660644165e-01 6.113996481011325e-01 0.000000000000000e+00
7.178002185484327e-01 6.292946821872365e-01 0.000000000000000e+00
7.010454357063705e-01 6.469924677601208e-01 0.000000000000000e+00
6.825032715587216e-01 6.624729199092048e-01 0.000000000000000e+00
6.631665428852835e-01 6.761086884016787e-01 0.000000000000000e+00
6.418610451706537e-01 6.881877549458608e-01 0.000000000000000e+00
6.209581923553962e-01 6.976419685797361e-01 0.000000000000000e+00
5.964079729673242e-01 7.071566713675393e-01 0.000000000000000e+00
5.745469085797781e-01 7.125042847751544e-01 0.000000000000000e+00
5.496125754644899e-01 7.176180586315767e-01 0.000000000000000e+00
5.251389341605849e-01 7.202679247526140e-01 0.000000000000000e+00
4.999999999999954e-01 7.208704916779874e-01 0.000000000000000e+00
4.748610658394037e-01 7.202679247526127e-01 0.000000000000000e+00
4.503874245355012e-01 7.176180586315757e-01 0.000000000000000e+00
4.254530914202088e-01 7.125042847751495e-01 0.000000000000000e+00
4.035920270326768e-01 7.071566713675447e-01 0.000000000000000e+00
3.790418076445938e-01 6.976419685797319e-01 0.000000000000000e+00
3.581389548293470e-01 6.881877549458629e-01 0.000000000000000e+00
3.368334571147161e-01 6.761086884016805e-01 0.000000000000000e+00
3.174967284412787e-01 6.624729199092054e-01 0.000000000000000e+00
2.989545642936290e-01 6.469924677601210e-01 0.000000000000000e+00
2.821997814515671e-01 6.292946821872367e-01 0.000000000000000e+00
2.685770339355855e-01 6.113996481011341e-01 0.000000000000000e+00
2.556305940548537e-01 5.902230825501479e-01 0.000000000000000e+00
2.475464464640557e-01 5.700449305793502e-01 0.000000000000000e+00
2.397275525419287e-01 5.465731538393159e-01 0.000000000000000e+00
2.359639992864559e-01 5.234682137486134e-01 0.000000000000000e+00
2.347622701835207e-01 5.000000000000020e-01 0.000000000000000e+00
2.359639992864552e-01 4.765317862513906e-01 0.000000000000000e+00
2.397275525419280e-01 4.534268461606887e-01 0.000000000000000e+00
2.475464464640545e-01 4.299550694206547e-01 0.000000000000000e+00
2.556305940548539e-01 4.097769174498568e-01 0.000000000000000e+00
2.685770339355851e-01 3.886003518988714e-01 0.000000000000000e+00
2.821997814515678e-01 3.707053178127691e-01 0.000000000000000e+00
2.989545642936304e-01 3.530075322398846e-01 0.000000000000000e+00
3.174967284412801e-01 3.375270800908008e-01 0.000000000000000e+00
3.368334571147177e-01 3.238913115983267e-01 0.000000000000000e+00
3.581389548293480e-01 3.118122450541443e-01 0.000000000000000e+00
3.790418076446015e-01 3.023580314202712e-01 0.000000000000000e+00
4.035920270326784e-01 2.928433286324643e-01 0.000000000000000e+00
4.254530914202185e-01 2.874957152248539e-01 0.000000000000000e+00
4.503874245355084e-01 2.823819413684296e-01 0.000000000000000e+00
4.748610658394118e-01 2.797320752473927e-01 0.000000000000000e+00
5.000000000000026e-01 2.791295083220182e-01 0.000000000000000e+00
5.251389341605930e-01 2.797320752473927e-01 0.000000000000000e+00
5.496125754644965e-01 2.823819413684298e-01 0.000000000000000e+00
5.745469085797881e-01 2.874957152248547e-01 0.000000000000000e+00
5.964079729673234e-01 2.928433286324624e-01 0.000000000000000e+00
6.209581923554032e-01 3.023580314202720e-01 0.000000000000000e+00
6.418610451706530e-01 3.118122450541434e-01 0.000000000000000e+00
6.631665428852834e-01 3.238913115983254e-01 0.000000000000000e+00
6.825032715587206e-01 3.375270800908010e-01 0.000000000000000e+00
7.010454357063702e-01 3.530075322398847e-01 0.000000000000000e+00
7.178002185484329e-01 3.707053178127702e-01 0.000000000000000e+00
7.314229660644131e-01 3.886003518988708e-01 0.000000000000000e+00
7.443694059451476e-01 4.097769174498588e-01 0.000000000000000e+00
7.524535535359416e-01 4.299550694206525e-01 0.000000000000000e+00
7.602724474580705e-01 4.534268461606875e-01 0.000000000000000e+00
7.640360007135438e-01 4.765317862513898e-01 0.000000000000000e+00

POINT_DATA   64
SCALARS fX_Lag double
LOOKUP_TABLE default

-5.982193e+01 
-6.397387e+01 
-1.017129e+02 
-6.469422e+00 
-1.215135e+02 
-1.684968e+01 
-7.828097e+01 
-4.519159e+01 
-1.895717e+01 
-4.931553e+01 
9.875287e+00 
-9.142871e+01 
6.705081e+01 
-7.666785e+01 
1.141458e+01 
-1.644308e+01 
-5.968559e-11 
1.644308e+01 
-1.141458e+01 
7.666785e+01 
-6.705081e+01 
9.142871e+01 
-9.875287e+00 
4.931553e+01 
1.895717e+01 
4.519159e+01 
7.828097e+01 
1.684968e+01 
1.215135e+02 
6.469422e+00 
1.017129e+02 
6.397387e+01 
5.982193e+01 
6.397387e+01 
1.017129e+02 
6.469422e+00 
1.215135e+02 
1.684968e+01 
7.828097e+01 
4.519159e+01 
1.895717e+01 
4.931553e+01 
-9.875287e+00 
9.142871e+01 
-6.705081e+01 
7.666785e+01 
-1.141458e+01 
1.644308e+01 
-5.570655e-12 
-1.644308e+01 
1.141458e+01 
-7.666785e+01 
6.705081e+01 
-9.142871e+01 
9.875287e+00 
-4.931553e+01 
-1.895717e+01 
-4.519159e+01 
-7.828097e+01 
-1.684968e+01 
-1.215135e+02 
-6.469422e+00 
-1.017129e+02 
-6.397387e+01 
