# vtk DataFile Version 2.0
fX_Lag
ASCII
DATASET UNSTRUCTURED_GRID

FIELD FieldData 1
TIME 1 1 double
0.98000000
POINTS 64 float
7.374893265938678e-01 5.000000000000024e-01 0.000000000000000e+00
7.362885826293112e-01 5.248199599083092e-01 0.000000000000000e+00
7.330846966647775e-01 5.487339469542850e-01 0.000000000000000e+00
7.275425251711968e-01 5.731736422065631e-01 0.000000000000000e+00
7.207627158703200e-01 5.954903218839096e-01 0.000000000000000e+00
7.100098167442730e-01 6.191594908552702e-01 0.000000000000000e+00
6.995902199992878e-01 6.393315984183550e-01 0.000000000000000e+00
6.861765028295052e-01 6.590998860690080e-01 0.000000000000000e+00
6.704346559269756e-01 6.779741056754884e-01 0.000000000000000e+00
6.540035987872687e-01 6.944395146383517e-01 0.000000000000000e+00
6.347117027355278e-01 7.099365409226196e-01 0.000000000000000e+00
6.156528810039437e-01 7.220163843526228e-01 0.000000000000000e+00
5.933584804964099e-01 7.336414029311870e-01 0.000000000000000e+00
5.722293205197847e-01 7.409457350598758e-01 0.000000000000000e+00
5.485868022907500e-01 7.474849146740611e-01 0.000000000000000e+00
5.243445735174894e-01 7.510023425646590e-01 0.000000000000000e+00
4.999999999999943e-01 7.518631961410133e-01 0.000000000000000e+00
4.756554264824963e-01 7.510023425646580e-01 0.000000000000000e+00
4.514131977092377e-01 7.474849146740584e-01 0.000000000000000e+00
4.277706794801999e-01 7.409457350598693e-01 0.000000000000000e+00
4.066415195035863e-01 7.336414029311896e-01 0.000000000000000e+00
3.843471189960437e-01 7.220163843526157e-01 0.000000000000000e+00
3.652882972644657e-01 7.099365409226185e-01 0.000000000000000e+00
3.459964012127241e-01 6.944395146383485e-01 0.000000000000000e+00
3.295653440730197e-01 6.779741056754855e-01 0.000000000000000e+00
3.138234971704885e-01 6.590998860690037e-01 0.000000000000000e+00
3.004097800007076e-01 6.393315984183503e-01 0.000000000000000e+00
2.899901832557249e-01 6.191594908552689e-01 0.000000000000000e+00
2.792372841296751e-01 5.954903218839044e-01 0.000000000000000e+00
2.724574748288023e-01 5.731736422065613e-01 0.000000000000000e+00
2.669153033352198e-01 5.487339469542818e-01 0.000000000000000e+00
2.637114173706869e-01 5.248199599083064e-01 0.000000000000000e+00
2.625106734061299e-01 4.999999999999997e-01 0.000000000000000e+00
2.637114173706868e-01 4.751800400916932e-01 0.000000000000000e+00
2.669153033352204e-01 4.512660530457179e-01 0.000000000000000e+00
2.724574748288025e-01 4.268263577934381e-01 0.000000000000000e+00
2.792372841296762e-01 4.045096781160954e-01 0.000000000000000e+00
2.899901832557257e-01 3.808405091447316e-01 0.000000000000000e+00
3.004097800007094e-01 3.606684015816497e-01 0.000000000000000e+00
3.138234971704912e-01 3.409001139309967e-01 0.000000000000000e+00
3.295653440730222e-01 3.220258943245158e-01 0.000000000000000e+00
3.459964012127279e-01 3.055604853616535e-01 0.000000000000000e+00
3.652882972644692e-01 2.900634590773850e-01 0.000000000000000e+00
3.843471189960520e-01 2.779836156473843e-01 0.000000000000000e+00
4.066415195035895e-01 2.663585970688165e-01 0.000000000000000e+00
4.277706794802100e-01 2.590542649401318e-01 0.000000000000000e+00
4.514131977092464e-01 2.525150853259446e-01 0.000000000000000e+00
4.756554264825059e-01 2.489976574353468e-01 0.000000000000000e+00
5.000000000000020e-01 2.481368038589918e-01 0.000000000000000e+00
5.243445735174991e-01 2.489976574353475e-01 0.000000000000000e+00
5.485868022907583e-01 2.525150853259467e-01 0.000000000000000e+00
5.722293205197955e-01 2.590542649401355e-01 0.000000000000000e+00
5.933584804964118e-01 2.663585970688176e-01 0.000000000000000e+00
6.156528810039523e-01 2.779836156473886e-01 0.000000000000000e+00
6.347117027355319e-01 2.900634590773877e-01 0.000000000000000e+00
6.540035987872734e-01 3.055604853616568e-01 0.000000000000000e+00
6.704346559269780e-01 3.220258943245196e-01 0.000000000000000e+00
6.861765028295096e-01 3.409001139310008e-01 0.000000000000000e+00
6.995902199992911e-01 3.606684015816544e-01 0.000000000000000e+00
7.100098167442723e-01 3.808405091447337e-01 0.000000000000000e+00
7.207627158703244e-01 4.045096781161002e-01 0.000000000000000e+00
7.275425251711944e-01 4.268263577934401e-01 0.000000000000000e+00
7.330846966647784e-01 4.512660530457202e-01 0.000000000000000e+00
7.362885826293106e-01 4.751800400916958e-01 0.000000000000000e+00

POINT_DATA   64
SCALARS fX_Lag double
LOOKUP_TABLE default

-5.955038e+01 
-4.976828e+01 
-5.847244e+01 
-3.100112e+01 
-9.863547e+01 
8.016681e+00 
-7.485786e+01 
-5.768683e+01 
-1.769413e+01 
-7.090347e+01 
5.379552e+00 
-8.139065e+01 
2.823967e+01 
-6.214328e+01 
-1.479690e+01 
-2.763187e+00 
-7.366907e-11 
2.763187e+00 
1.479690e+01 
6.214328e+01 
-2.823967e+01 
8.139065e+01 
-5.379552e+00 
7.090347e+01 
1.769413e+01 
5.768683e+01 
7.485786e+01 
-8.016681e+00 
9.863547e+01 
3.100112e+01 
5.847244e+01 
4.976828e+01 
5.955038e+01 
4.976828e+01 
5.847244e+01 
3.100112e+01 
9.863547e+01 
-8.016681e+00 
7.485786e+01 
5.768683e+01 
1.769413e+01 
7.090347e+01 
-5.379552e+00 
8.139065e+01 
-2.823967e+01 
6.214328e+01 
1.479690e+01 
2.763187e+00 
2.091838e-11 
-2.763187e+00 
-1.479690e+01 
-6.214328e+01 
2.823967e+01 
-8.139065e+01 
5.379552e+00 
-7.090347e+01 
-1.769413e+01 
-5.768683e+01 
-7.485786e+01 
8.016681e+00 
-9.863547e+01 
-3.100112e+01 
-5.847244e+01 
-4.976828e+01 
