# vtk DataFile Version 2.0
fX_Lag
ASCII
DATASET UNSTRUCTURED_GRID

FIELD FieldData 1
TIME 1 1 double
0.40000000
POINTS 64 float
8.301483310111032e-01 4.999999999999993e-01 0.000000000000000e+00
8.280695699893962e-01 5.264988850500225e-01 0.000000000000000e+00
8.226970433983570e-01 5.523027552437479e-01 0.000000000000000e+00
8.130015282292155e-01 5.771610498986812e-01 0.000000000000000e+00
7.997607048990168e-01 6.004438987898932e-01 0.000000000000000e+00
7.833402496491207e-01 6.221200237096910e-01 0.000000000000000e+00
7.644977754081934e-01 6.415199807249764e-01 0.000000000000000e+00
7.434397901833416e-01 6.589622885548626e-01 0.000000000000000e+00
7.204119945547550e-01 6.739730595512983e-01 0.000000000000000e+00
6.959701944947249e-01 6.870904715997515e-01 0.000000000000000e+00
6.698859093998426e-01 6.982624586616726e-01 0.000000000000000e+00
6.430900109346372e-01 7.073426881698852e-01 0.000000000000000e+00
6.151507050684623e-01 7.147938869628648e-01 0.000000000000000e+00
5.868663062016696e-01 7.204937628767617e-01 0.000000000000000e+00
5.581244415692300e-01 7.244773480318150e-01 0.000000000000000e+00
5.291657820503978e-01 7.266319157643999e-01 0.000000000000000e+00
4.999999999999999e-01 7.273891121126341e-01 0.000000000000000e+00
4.708342179496043e-01 7.266319157644001e-01 0.000000000000000e+00
4.418755584307702e-01 7.244773480318154e-01 0.000000000000000e+00
4.131336937983321e-01 7.204937628767623e-01 0.000000000000000e+00
3.848492949315381e-01 7.147938869628655e-01 0.000000000000000e+00
3.569099890653636e-01 7.073426881698864e-01 0.000000000000000e+00
3.301140906001575e-01 6.982624586616738e-01 0.000000000000000e+00
3.040298055052756e-01 6.870904715997528e-01 0.000000000000000e+00
2.795880054452454e-01 6.739730595513004e-01 0.000000000000000e+00
2.565602098166586e-01 6.589622885548643e-01 0.000000000000000e+00
2.355022245918068e-01 6.415199807249777e-01 0.000000000000000e+00
2.166597503508793e-01 6.221200237096925e-01 0.000000000000000e+00
2.002392951009826e-01 6.004438987898946e-01 0.000000000000000e+00
1.869984717707841e-01 5.771610498986834e-01 0.000000000000000e+00
1.773029566016421e-01 5.523027552437491e-01 0.000000000000000e+00
1.719304300106030e-01 5.264988850500260e-01 0.000000000000000e+00
1.698516689888956e-01 5.000000000000004e-01 0.000000000000000e+00
1.719304300106025e-01 4.735011149499779e-01 0.000000000000000e+00
1.773029566016414e-01 4.476972447562524e-01 0.000000000000000e+00
1.869984717707833e-01 4.228389501013189e-01 0.000000000000000e+00
2.002392951009816e-01 3.995561012101072e-01 0.000000000000000e+00
2.166597503508781e-01 3.778799762903093e-01 0.000000000000000e+00
2.355022245918057e-01 3.584800192750233e-01 0.000000000000000e+00
2.565602098166573e-01 3.410377114451373e-01 0.000000000000000e+00
2.795880054452433e-01 3.260269404487012e-01 0.000000000000000e+00
3.040298055052743e-01 3.129095284002480e-01 0.000000000000000e+00
3.301140906001556e-01 3.017375413383274e-01 0.000000000000000e+00
3.569099890653618e-01 2.926573118301145e-01 0.000000000000000e+00
3.848492949315366e-01 2.852061130371353e-01 0.000000000000000e+00
4.131336937983298e-01 2.795062371232383e-01 0.000000000000000e+00
4.418755584307689e-01 2.755226519681850e-01 0.000000000000000e+00
4.708342179496018e-01 2.733680842356003e-01 0.000000000000000e+00
4.999999999999986e-01 2.726108878873659e-01 0.000000000000000e+00
5.291657820503956e-01 2.733680842355999e-01 0.000000000000000e+00
5.581244415692284e-01 2.755226519681846e-01 0.000000000000000e+00
5.868663062016675e-01 2.795062371232377e-01 0.000000000000000e+00
6.151507050684603e-01 2.852061130371347e-01 0.000000000000000e+00
6.430900109346354e-01 2.926573118301138e-01 0.000000000000000e+00
6.698859093998412e-01 3.017375413383265e-01 0.000000000000000e+00
6.959701944947232e-01 3.129095284002475e-01 0.000000000000000e+00
7.204119945547537e-01 3.260269404487001e-01 0.000000000000000e+00
7.434397901833401e-01 3.410377114451358e-01 0.000000000000000e+00
7.644977754081920e-01 3.584800192750222e-01 0.000000000000000e+00
7.833402496491192e-01 3.778799762903075e-01 0.000000000000000e+00
7.997607048990162e-01 3.995561012101054e-01 0.000000000000000e+00
8.130015282292145e-01 4.228389501013168e-01 0.000000000000000e+00
8.226970433983569e-01 4.476972447562508e-01 0.000000000000000e+00
8.280695699893960e-01 4.735011149499748e-01 0.000000000000000e+00

POINT_DATA   64
SCALARS fX_Lag double
LOOKUP_TABLE default

-1.038978e+02 
-8.242447e+01 
-1.077253e+02 
-8.843558e+01 
-8.003117e+01 
-6.063135e+01 
-5.519432e+01 
-4.903713e+01 
-3.542205e+01 
-4.092447e+01 
-1.762168e+01 
-2.872916e+01 
-8.585363e+00 
-1.090548e+01 
-5.136792e+00 
-4.824242e+00 
5.684342e-11 
4.824242e+00 
5.136792e+00 
1.090548e+01 
8.585363e+00 
2.872916e+01 
1.762168e+01 
4.092447e+01 
3.542205e+01 
4.903713e+01 
5.519432e+01 
6.063135e+01 
8.003117e+01 
8.843558e+01 
1.077253e+02 
8.242447e+01 
1.038978e+02 
8.242447e+01 
1.077253e+02 
8.843558e+01 
8.003117e+01 
6.063135e+01 
5.519432e+01 
4.903713e+01 
3.542205e+01 
4.092447e+01 
1.762168e+01 
2.872916e+01 
8.585363e+00 
1.090548e+01 
5.136792e+00 
4.824242e+00 
9.663381e-12 
-4.824242e+00 
-5.136792e+00 
-1.090548e+01 
-8.585363e+00 
-2.872916e+01 
-1.762168e+01 
-4.092447e+01 
-3.542205e+01 
-4.903713e+01 
-5.519432e+01 
-6.063135e+01 
-8.003117e+01 
-8.843558e+01 
-1.077253e+02 
-8.242447e+01 
