# vtk DataFile Version 2.0
fX_Lag
ASCII
DATASET UNSTRUCTURED_GRID

FIELD FieldData 1
TIME 1 1 double
0.54000000
POINTS 64 float
7.925964729733923e-01 5.000000000000000e-01 0.000000000000000e+00
7.908681580666780e-01 5.259382889294605e-01 0.000000000000000e+00
7.867934503285197e-01 5.514808807254545e-01 0.000000000000000e+00
7.793552616500331e-01 5.765509190576434e-01 0.000000000000000e+00
7.690132359829674e-01 6.002130780408471e-01 0.000000000000000e+00
7.561606336105848e-01 6.231077697464948e-01 0.000000000000000e+00
7.405376041195934e-01 6.442986231745638e-01 0.000000000000000e+00
7.235255824947964e-01 6.634925152520997e-01 0.000000000000000e+00
7.039610315435361e-01 6.806646912199457e-01 0.000000000000000e+00
6.825438605957624e-01 6.966128766162659e-01 0.000000000000000e+00
6.594263353452583e-01 7.099610829237576e-01 0.000000000000000e+00
6.352415788051916e-01 7.211012656442691e-01 0.000000000000000e+00
6.087944251996853e-01 7.309841079809757e-01 0.000000000000000e+00
5.828809372221452e-01 7.378336054108188e-01 0.000000000000000e+00
5.551426119753018e-01 7.431448370765232e-01 0.000000000000000e+00
5.281152907038406e-01 7.460395522983668e-01 0.000000000000000e+00
4.999999999999993e-01 7.468539986006827e-01 0.000000000000000e+00
4.718847092961583e-01 7.460395522983664e-01 0.000000000000000e+00
4.448573880246972e-01 7.431448370765240e-01 0.000000000000000e+00
4.171190627778530e-01 7.378336054108181e-01 0.000000000000000e+00
3.912055748003143e-01 7.309841079809768e-01 0.000000000000000e+00
3.647584211948063e-01 7.211012656442687e-01 0.000000000000000e+00
3.405736646547414e-01 7.099610829237594e-01 0.000000000000000e+00
3.174561394042365e-01 6.966128766162668e-01 0.000000000000000e+00
2.960389684564627e-01 6.806646912199465e-01 0.000000000000000e+00
2.764744175052017e-01 6.634925152521003e-01 0.000000000000000e+00
2.594623958804052e-01 6.442986231745650e-01 0.000000000000000e+00
2.438393663894136e-01 6.231077697464957e-01 0.000000000000000e+00
2.309867640170309e-01 6.002130780408480e-01 0.000000000000000e+00
2.206447383499653e-01 5.765509190576446e-01 0.000000000000000e+00
2.132065496714788e-01 5.514808807254553e-01 0.000000000000000e+00
2.091318419333205e-01 5.259382889294621e-01 0.000000000000000e+00
2.074035270266059e-01 5.000000000000004e-01 0.000000000000000e+00
2.091318419333204e-01 4.740617110705396e-01 0.000000000000000e+00
2.132065496714785e-01 4.485191192745459e-01 0.000000000000000e+00
2.206447383499652e-01 4.234490809423568e-01 0.000000000000000e+00
2.309867640170303e-01 3.997869219591532e-01 0.000000000000000e+00
2.438393663894133e-01 3.768922302535053e-01 0.000000000000000e+00
2.594623958804046e-01 3.557013768254362e-01 0.000000000000000e+00
2.764744175052011e-01 3.365074847479009e-01 0.000000000000000e+00
2.960389684564619e-01 3.193353087800547e-01 0.000000000000000e+00
3.174561394042359e-01 3.033871233837339e-01 0.000000000000000e+00
3.405736646547400e-01 2.900389170762419e-01 0.000000000000000e+00
3.647584211948059e-01 2.788987343557313e-01 0.000000000000000e+00
3.912055748003130e-01 2.690158920190240e-01 0.000000000000000e+00
4.171190627778525e-01 2.621663945891817e-01 0.000000000000000e+00
4.448573880246963e-01 2.568551629234769e-01 0.000000000000000e+00
4.718847092961576e-01 2.539604477016334e-01 0.000000000000000e+00
4.999999999999989e-01 2.531460013993179e-01 0.000000000000000e+00
5.281152907038396e-01 2.539604477016335e-01 0.000000000000000e+00
5.551426119753013e-01 2.568551629234769e-01 0.000000000000000e+00
5.828809372221445e-01 2.621663945891818e-01 0.000000000000000e+00
6.087944251996843e-01 2.690158920190239e-01 0.000000000000000e+00
6.352415788051913e-01 2.788987343557311e-01 0.000000000000000e+00
6.594263353452573e-01 2.900389170762414e-01 0.000000000000000e+00
6.825438605957619e-01 3.033871233837337e-01 0.000000000000000e+00
7.039610315435358e-01 3.193353087800540e-01 0.000000000000000e+00
7.235255824947965e-01 3.365074847478998e-01 0.000000000000000e+00
7.405376041195934e-01 3.557013768254356e-01 0.000000000000000e+00
7.561606336105842e-01 3.768922302535042e-01 0.000000000000000e+00
7.690132359829678e-01 3.997869219591526e-01 0.000000000000000e+00
7.793552616500331e-01 4.234490809423555e-01 0.000000000000000e+00
7.867934503285198e-01 4.485191192745452e-01 0.000000000000000e+00
7.908681580666779e-01 4.740617110705379e-01 0.000000000000000e+00

POINT_DATA   64
SCALARS fX_Lag double
LOOKUP_TABLE default

-8.636927e+01 
-5.813170e+01 
-8.276307e+01 
-7.273702e+01 
-6.327732e+01 
-6.878782e+01 
-3.494151e+01 
-6.355002e+01 
-4.657108e+01 
-4.246411e+01 
-2.712950e+01 
-5.652350e+01 
1.358553e+01 
-4.616098e+01 
1.731836e+01 
-2.695012e+01 
5.684342e-12 
2.695012e+01 
-1.731836e+01 
4.616098e+01 
-1.358553e+01 
5.652350e+01 
2.712950e+01 
4.246411e+01 
4.657108e+01 
6.355002e+01 
3.494151e+01 
6.878782e+01 
6.327732e+01 
7.273702e+01 
8.276307e+01 
5.813170e+01 
8.636927e+01 
5.813170e+01 
8.276307e+01 
7.273702e+01 
6.327732e+01 
6.878782e+01 
3.494151e+01 
6.355002e+01 
4.657108e+01 
4.246411e+01 
2.712950e+01 
5.652350e+01 
-1.358553e+01 
4.616098e+01 
-1.731836e+01 
2.695012e+01 
-1.807621e-11 
-2.695012e+01 
1.731836e+01 
-4.616098e+01 
1.358553e+01 
-5.652350e+01 
-2.712950e+01 
-4.246411e+01 
-4.657108e+01 
-6.355002e+01 
-3.494151e+01 
-6.878782e+01 
-6.327732e+01 
-7.273702e+01 
-8.276307e+01 
-5.813170e+01 
