# vtk DataFile Version 2.0
fX_Lag
ASCII
DATASET UNSTRUCTURED_GRID

FIELD FieldData 1
TIME 1 1 double
0.88000000
POINTS 64 float
7.786946096339857e-01 5.000000000000033e-01 0.000000000000000e+00
7.771616034780635e-01 5.241644725767654e-01 0.000000000000000e+00
7.728610179039370e-01 5.481399222673528e-01 0.000000000000000e+00
7.654863567822006e-01 5.712500552086788e-01 0.000000000000000e+00
7.557616738524137e-01 5.931406488276558e-01 0.000000000000000e+00
7.423331965447133e-01 6.146305231631747e-01 0.000000000000000e+00
7.274426363840057e-01 6.334676951823821e-01 0.000000000000000e+00
7.105084615450221e-01 6.505752393795640e-01 0.000000000000000e+00
6.913560043504376e-01 6.662945749723903e-01 0.000000000000000e+00
6.703931430624914e-01 6.807599347255913e-01 0.000000000000000e+00
6.482377659572632e-01 6.926511077768395e-01 0.000000000000000e+00
6.257038210063592e-01 7.024677454319644e-01 0.000000000000000e+00
6.011920758409112e-01 7.114642858014493e-01 0.000000000000000e+00
5.771442171341526e-01 7.174542298056336e-01 0.000000000000000e+00
5.514190195866824e-01 7.222244246841000e-01 0.000000000000000e+00
5.259653727137328e-01 7.249155645173918e-01 0.000000000000000e+00
4.999999999999950e-01 7.255447320316419e-01 0.000000000000000e+00
4.740346272862552e-01 7.249155645173901e-01 0.000000000000000e+00
4.485809804133080e-01 7.222244246840998e-01 0.000000000000000e+00
4.228557828658354e-01 7.174542298056305e-01 0.000000000000000e+00
3.988079241590811e-01 7.114642858014492e-01 0.000000000000000e+00
3.742961789936275e-01 7.024677454319589e-01 0.000000000000000e+00
3.517622340427302e-01 6.926511077768379e-01 0.000000000000000e+00
3.296068569374996e-01 6.807599347255877e-01 0.000000000000000e+00
3.086439956495534e-01 6.662945749723855e-01 0.000000000000000e+00
2.894915384549699e-01 6.505752393795590e-01 0.000000000000000e+00
2.725573636159870e-01 6.334676951823778e-01 0.000000000000000e+00
2.576668034552812e-01 6.146305231631701e-01 0.000000000000000e+00
2.442383261475791e-01 5.931406488276488e-01 0.000000000000000e+00
2.345136432177954e-01 5.712500552086739e-01 0.000000000000000e+00
2.271389820960583e-01 5.481399222673478e-01 0.000000000000000e+00
2.228383965219319e-01 5.241644725767590e-01 0.000000000000000e+00
2.213053903660104e-01 4.999999999999980e-01 0.000000000000000e+00
2.228383965219325e-01 4.758355274232366e-01 0.000000000000000e+00
2.271389820960594e-01 4.518600777326485e-01 0.000000000000000e+00
2.345136432177971e-01 4.287499447913226e-01 0.000000000000000e+00
2.442383261475816e-01 4.068593511723477e-01 0.000000000000000e+00
2.576668034552843e-01 3.853694768368265e-01 0.000000000000000e+00
2.725573636159907e-01 3.665323048176203e-01 0.000000000000000e+00
2.894915384549743e-01 3.494247606204385e-01 0.000000000000000e+00
3.086439956495586e-01 3.337054250276127e-01 0.000000000000000e+00
3.296068569375054e-01 3.192400652744111e-01 0.000000000000000e+00
3.517622340427342e-01 3.073488922231629e-01 0.000000000000000e+00
3.742961789936361e-01 2.975322545680393e-01 0.000000000000000e+00
3.988079241590862e-01 2.885357141985523e-01 0.000000000000000e+00
4.228557828658436e-01 2.825457701943697e-01 0.000000000000000e+00
4.485809804133144e-01 2.777755753159022e-01 0.000000000000000e+00
4.740346272862638e-01 2.750844354826106e-01 0.000000000000000e+00
5.000000000000012e-01 2.744552679683606e-01 0.000000000000000e+00
5.259653727137413e-01 2.750844354826113e-01 0.000000000000000e+00
5.514190195866883e-01 2.777755753159027e-01 0.000000000000000e+00
5.771442171341603e-01 2.825457701943717e-01 0.000000000000000e+00
6.011920758409155e-01 2.885357141985537e-01 0.000000000000000e+00
6.257038210063677e-01 2.975322545680432e-01 0.000000000000000e+00
6.482377659572670e-01 3.073488922231653e-01 0.000000000000000e+00
6.703931430624969e-01 3.192400652744153e-01 0.000000000000000e+00
6.913560043504431e-01 3.337054250276172e-01 0.000000000000000e+00
7.105084615450261e-01 3.494247606204433e-01 0.000000000000000e+00
7.274426363840102e-01 3.665323048176258e-01 0.000000000000000e+00
7.423331965447137e-01 3.853694768368310e-01 0.000000000000000e+00
7.557616738524188e-01 4.068593511723546e-01 0.000000000000000e+00
7.654863567821999e-01 4.287499447913279e-01 0.000000000000000e+00
7.728610179039376e-01 4.518600777326535e-01 0.000000000000000e+00
7.771616034780648e-01 4.758355274232428e-01 0.000000000000000e+00

POINT_DATA   64
SCALARS fX_Lag double
LOOKUP_TABLE default

-7.662250e+01 
-6.898518e+01 
-7.670594e+01 
-5.958239e+01 
-9.193847e+01 
-3.734159e+01 
-5.126619e+01 
-5.571912e+01 
-4.475574e+01 
-2.939759e+01 
-9.499789e+00 
-4.933749e+01 
1.163405e+01 
-4.220556e+01 
6.690892e+00 
-1.275768e+01 
-5.275069e-11 
1.275768e+01 
-6.690892e+00 
4.220556e+01 
-1.163405e+01 
4.933749e+01 
9.499789e+00 
2.939759e+01 
4.475574e+01 
5.571912e+01 
5.126619e+01 
3.734159e+01 
9.193847e+01 
5.958239e+01 
7.670594e+01 
6.898518e+01 
7.662250e+01 
6.898518e+01 
7.670594e+01 
5.958239e+01 
9.193847e+01 
3.734159e+01 
5.126619e+01 
5.571912e+01 
4.475574e+01 
2.939759e+01 
9.499789e+00 
4.933749e+01 
-1.163405e+01 
4.220556e+01 
-6.690892e+00 
1.275768e+01 
6.662049e-11 
-1.275768e+01 
6.690892e+00 
-4.220556e+01 
1.163405e+01 
-4.933749e+01 
-9.499789e+00 
-2.939759e+01 
-4.475574e+01 
-5.571912e+01 
-5.126619e+01 
-3.734159e+01 
-9.193847e+01 
-5.958239e+01 
-7.670594e+01 
-6.898518e+01 
