# vtk DataFile Version 2.0
fX_Lag
ASCII
DATASET UNSTRUCTURED_GRID

FIELD FieldData 1
TIME 1 1 double
0.82000000
POINTS 64 float
7.365452007196168e-01 5.000000000000037e-01 0.000000000000000e+00
7.354589190449539e-01 5.257831224256143e-01 0.000000000000000e+00
7.326811616918466e-01 5.514990683705648e-01 0.000000000000000e+00
7.277443420441370e-01 5.767378808301351e-01 0.000000000000000e+00
7.206846186199942e-01 6.015959446510141e-01 0.000000000000000e+00
7.116365013521118e-01 6.255454410214565e-01 0.000000000000000e+00
7.003526535731363e-01 6.486563979290754e-01 0.000000000000000e+00
6.878386781034382e-01 6.700562002052429e-01 0.000000000000000e+00
6.727347743513532e-01 6.900759153175262e-01 0.000000000000000e+00
6.561826742824839e-01 7.085508799741094e-01 0.000000000000000e+00
6.381684849404310e-01 7.245325525098251e-01 0.000000000000000e+00
6.182298007932960e-01 7.388285863173120e-01 0.000000000000000e+00
5.959999338736660e-01 7.514037201537541e-01 0.000000000000000e+00
5.736465892292744e-01 7.605368070363866e-01 0.000000000000000e+00
5.496465538007836e-01 7.677736096849195e-01 0.000000000000000e+00
5.251058369554868e-01 7.719763061220293e-01 0.000000000000000e+00
4.999999999999950e-01 7.730378544655881e-01 0.000000000000000e+00
4.748941630445017e-01 7.719763061220286e-01 0.000000000000000e+00
4.503534461992064e-01 7.677736096849179e-01 0.000000000000000e+00
4.263534107707148e-01 7.605368070363834e-01 0.000000000000000e+00
4.040000661263272e-01 7.514037201537543e-01 0.000000000000000e+00
3.817701992066934e-01 7.388285863173064e-01 0.000000000000000e+00
3.618315150595614e-01 7.245325525098226e-01 0.000000000000000e+00
3.438173257175092e-01 7.085508799741056e-01 0.000000000000000e+00
3.272652256486399e-01 6.900759153175221e-01 0.000000000000000e+00
3.121613218965550e-01 6.700562002052378e-01 0.000000000000000e+00
2.996473464268571e-01 6.486563979290701e-01 0.000000000000000e+00
2.883634986478831e-01 6.255454410214517e-01 0.000000000000000e+00
2.793153813799999e-01 6.015959446510082e-01 0.000000000000000e+00
2.722556579558589e-01 5.767378808301297e-01 0.000000000000000e+00
2.673188383081490e-01 5.514990683705591e-01 0.000000000000000e+00
2.645410809550425e-01 5.257831224256085e-01 0.000000000000000e+00
2.634547992803798e-01 4.999999999999982e-01 0.000000000000000e+00
2.645410809550433e-01 4.742168775743877e-01 0.000000000000000e+00
2.673188383081503e-01 4.485009316294375e-01 0.000000000000000e+00
2.722556579558605e-01 4.232621191698670e-01 0.000000000000000e+00
2.793153813800021e-01 3.984040553489888e-01 0.000000000000000e+00
2.883634986478855e-01 3.744545589785447e-01 0.000000000000000e+00
2.996473464268599e-01 3.513436020709273e-01 0.000000000000000e+00
3.121613218965580e-01 3.299437997947592e-01 0.000000000000000e+00
3.272652256486434e-01 3.099240846824758e-01 0.000000000000000e+00
3.438173257175129e-01 2.914491200258923e-01 0.000000000000000e+00
3.618315150595656e-01 2.754674474901765e-01 0.000000000000000e+00
3.817701992066997e-01 2.611714136826908e-01 0.000000000000000e+00
4.040000661263313e-01 2.485962798462467e-01 0.000000000000000e+00
4.263534107707213e-01 2.394631929636162e-01 0.000000000000000e+00
4.503534461992124e-01 2.322263903150829e-01 0.000000000000000e+00
4.748941630445092e-01 2.280236938779723e-01 0.000000000000000e+00
5.000000000000007e-01 2.269621455344142e-01 0.000000000000000e+00
5.251058369554942e-01 2.280236938779728e-01 0.000000000000000e+00
5.496465538007901e-01 2.322263903150844e-01 0.000000000000000e+00
5.736465892292809e-01 2.394631929636181e-01 0.000000000000000e+00
5.959999338736698e-01 2.485962798462477e-01 0.000000000000000e+00
6.182298007933027e-01 2.611714136826949e-01 0.000000000000000e+00
6.381684849404354e-01 2.754674474901794e-01 0.000000000000000e+00
6.561826742824879e-01 2.914491200258961e-01 0.000000000000000e+00
6.727347743513568e-01 3.099240846824797e-01 0.000000000000000e+00
6.878386781034415e-01 3.299437997947635e-01 0.000000000000000e+00
7.003526535731400e-01 3.513436020709325e-01 0.000000000000000e+00
7.116365013521123e-01 3.744545589785490e-01 0.000000000000000e+00
7.206846186199970e-01 3.984040553489944e-01 0.000000000000000e+00
7.277443420441372e-01 4.232621191698721e-01 0.000000000000000e+00
7.326811616918476e-01 4.485009316294430e-01 0.000000000000000e+00
7.354589190449541e-01 4.742168775743939e-01 0.000000000000000e+00

POINT_DATA   64
SCALARS fX_Lag double
LOOKUP_TABLE default

-5.396865e+01 
-4.204895e+01 
-5.391143e+01 
-5.280250e+01 
-4.910355e+01 
-5.614786e+01 
-3.085038e+01 
-6.463247e+01 
-3.634514e+01 
-3.686027e+01 
-4.813393e+01 
-5.666677e+01 
-3.661642e+00 
-4.154327e+01 
-1.392789e+01 
-1.405828e+01 
-4.013145e-11 
1.405828e+01 
1.392789e+01 
4.154327e+01 
3.661642e+00 
5.666677e+01 
4.813393e+01 
3.686027e+01 
3.634514e+01 
6.463247e+01 
3.085038e+01 
5.614786e+01 
4.910355e+01 
5.280250e+01 
5.391143e+01 
4.204895e+01 
5.396865e+01 
4.204895e+01 
5.391143e+01 
5.280250e+01 
4.910355e+01 
5.614786e+01 
3.085038e+01 
6.463247e+01 
3.634514e+01 
3.686027e+01 
4.813393e+01 
5.666677e+01 
3.661642e+00 
4.154327e+01 
1.392789e+01 
1.405828e+01 
4.865797e-11 
-1.405828e+01 
-1.392789e+01 
-4.154327e+01 
-3.661642e+00 
-5.666677e+01 
-4.813393e+01 
-3.686027e+01 
-3.634514e+01 
-6.463247e+01 
-3.085038e+01 
-5.614786e+01 
-4.910355e+01 
-5.280250e+01 
-5.391143e+01 
-4.204895e+01 
