# vtk DataFile Version 2.0
fX_Lag
ASCII
DATASET UNSTRUCTURED_GRID

FIELD FieldData 1
TIME 1 1 double
1.18000000
POINTS 64 float
7.503429324645798e-01 4.999999999999833e-01 0.000000000000000e+00
7.493277240018216e-01 5.225851205670756e-01 0.000000000000000e+00
7.456032262797186e-01 5.447764492168232e-01 0.000000000000000e+00
7.380071625735869e-01 5.676270369076818e-01 0.000000000000000e+00
7.308932685944282e-01 5.861605746284816e-01 0.000000000000000e+00
7.185976913585763e-01 6.075524892871027e-01 0.000000000000000e+00
7.061004437209978e-01 6.247560809901612e-01 0.000000000000000e+00
6.900172979045626e-01 6.427781899305531e-01 0.000000000000000e+00
6.733398529269348e-01 6.579801246830612e-01 0.000000000000000e+00
6.553090414548324e-01 6.712432521538229e-01 0.000000000000000e+00
6.345836072336708e-01 6.838899075916831e-01 0.000000000000000e+00
6.146254629692384e-01 6.936115185116355e-01 0.000000000000000e+00
5.904173206921415e-01 7.030435438270036e-01 0.000000000000000e+00
5.716864952629499e-01 7.074766581508894e-01 0.000000000000000e+00
5.466090711404804e-01 7.131875749482913e-01 0.000000000000000e+00
5.238008795978101e-01 7.158071209078292e-01 0.000000000000000e+00
5.000000000000168e-01 7.163242439809063e-01 0.000000000000000e+00
4.761991204022188e-01 7.158071209078336e-01 0.000000000000000e+00
4.533909288595516e-01 7.131875749482927e-01 0.000000000000000e+00
4.283135047370731e-01 7.074766581508889e-01 0.000000000000000e+00
4.095826793079157e-01 7.030435438270298e-01 0.000000000000000e+00
3.853745370308088e-01 6.936115185116523e-01 0.000000000000000e+00
3.654163927663852e-01 6.838899075917109e-01 0.000000000000000e+00
3.446909585452153e-01 6.712432521538489e-01 0.000000000000000e+00
3.266601470731126e-01 6.579801246830875e-01 0.000000000000000e+00
3.099827020954802e-01 6.427781899305828e-01 0.000000000000000e+00
2.938995562790431e-01 6.247560809901934e-01 0.000000000000000e+00
2.814023086414667e-01 6.075524892871451e-01 0.000000000000000e+00
2.691067314056005e-01 5.861605746285163e-01 0.000000000000000e+00
2.619928374264520e-01 5.676270369077301e-01 0.000000000000000e+00
2.543967737203151e-01 5.447764492168738e-01 0.000000000000000e+00
2.506722759982052e-01 5.225851205671265e-01 0.000000000000000e+00
2.496570675354423e-01 5.000000000000312e-01 0.000000000000000e+00
2.506722759982008e-01 4.774148794329387e-01 0.000000000000000e+00
2.543967737203042e-01 4.552235507831925e-01 0.000000000000000e+00
2.619928374264390e-01 4.323729630923294e-01 0.000000000000000e+00
2.691067314055872e-01 4.138394253715411e-01 0.000000000000000e+00
2.814023086414444e-01 3.924475107129141e-01 0.000000000000000e+00
2.938995562790206e-01 3.752439190098583e-01 0.000000000000000e+00
3.099827020954541e-01 3.572218100694675e-01 0.000000000000000e+00
3.266601470730840e-01 3.420198753169574e-01 0.000000000000000e+00
3.446909585451859e-01 3.287567478461941e-01 0.000000000000000e+00
3.654163927663493e-01 3.161100924083327e-01 0.000000000000000e+00
3.853745370307771e-01 3.063884814883828e-01 0.000000000000000e+00
4.095826793078788e-01 2.969564561730088e-01 0.000000000000000e+00
4.283135047370550e-01 2.925233418491332e-01 0.000000000000000e+00
4.533909288595290e-01 2.868124250517282e-01 0.000000000000000e+00
4.761991204021980e-01 2.841928790921879e-01 0.000000000000000e+00
4.999999999999941e-01 2.836757560191108e-01 0.000000000000000e+00
5.238008795977900e-01 2.841928790921840e-01 0.000000000000000e+00
5.466090711404593e-01 2.868124250517225e-01 0.000000000000000e+00
5.716864952629364e-01 2.925233418491247e-01 0.000000000000000e+00
5.904173206921056e-01 2.969564561729921e-01 0.000000000000000e+00
6.146254629692113e-01 3.063884814883652e-01 0.000000000000000e+00
6.345836072336387e-01 3.161100924083096e-01 0.000000000000000e+00
6.553090414548056e-01 3.287567478461680e-01 0.000000000000000e+00
6.733398529269099e-01 3.420198753169297e-01 0.000000000000000e+00
6.900172979045428e-01 3.572218100694353e-01 0.000000000000000e+00
7.061004437209810e-01 3.752439190098255e-01 0.000000000000000e+00
7.185976913585577e-01 3.924475107128741e-01 0.000000000000000e+00
7.308932685944245e-01 4.138394253715045e-01 0.000000000000000e+00
7.380071625735664e-01 4.323729630922803e-01 0.000000000000000e+00
7.456032262797087e-01 4.552235507831423e-01 0.000000000000000e+00
7.493277240018166e-01 4.774148794328884e-01 0.000000000000000e+00

POINT_DATA   64
SCALARS fX_Lag double
LOOKUP_TABLE default

-5.120075e+01 
-6.776874e+01 
-9.661618e+01 
1.154805e+01 
-1.294143e+02 
-4.500384e+00 
-9.011288e+01 
-1.487426e+01 
-3.390119e+01 
-6.753219e+01 
1.949861e+01 
-1.059510e+02 
1.369338e+02 
-1.586905e+02 
5.664438e+01 
-2.492237e+01 
-1.207354e-10 
2.492237e+01 
-5.664438e+01 
1.586905e+02 
-1.369338e+02 
1.059510e+02 
-1.949861e+01 
6.753219e+01 
3.390119e+01 
1.487426e+01 
9.011288e+01 
4.500384e+00 
1.294143e+02 
-1.154805e+01 
9.661618e+01 
6.776874e+01 
5.120075e+01 
6.776874e+01 
9.661618e+01 
-1.154805e+01 
1.294143e+02 
4.500384e+00 
9.011288e+01 
1.487426e+01 
3.390119e+01 
6.753219e+01 
-1.949861e+01 
1.059510e+02 
-1.369338e+02 
1.586905e+02 
-5.664438e+01 
2.492237e+01 
-6.934897e-12 
-2.492237e+01 
5.664438e+01 
-1.586905e+02 
1.369338e+02 
-1.059510e+02 
1.949861e+01 
-6.753219e+01 
-3.390119e+01 
-1.487426e+01 
-9.011288e+01 
-4.500384e+00 
-1.294143e+02 
1.154805e+01 
-9.661618e+01 
-6.776874e+01 
