# vtk DataFile Version 2.0
fY_Lag
ASCII
DATASET UNSTRUCTURED_GRID

FIELD FieldData 1
TIME 1 1 double
1.14000000
POINTS 64 float
7.376079211015724e-01 4.999999999999921e-01 0.000000000000000e+00
7.364493303390132e-01 5.234969406188483e-01 0.000000000000000e+00
7.331581879165255e-01 5.460089510823630e-01 0.000000000000000e+00
7.272006592696066e-01 5.696744768552361e-01 0.000000000000000e+00
7.203549684538999e-01 5.897528294531177e-01 0.000000000000000e+00
7.093319836873337e-01 6.120029095605234e-01 0.000000000000000e+00
6.981340389130802e-01 6.307729710551466e-01 0.000000000000000e+00
6.830699009115282e-01 6.500748792787931e-01 0.000000000000000e+00
6.673278943523488e-01 6.669248304903092e-01 0.000000000000000e+00
6.511580401158518e-01 6.813012682000091e-01 0.000000000000000e+00
6.317770068157220e-01 6.950572422766592e-01 0.000000000000000e+00
6.126958884562016e-01 7.063201166366396e-01 0.000000000000000e+00
5.896552075663773e-01 7.170535209837471e-01 0.000000000000000e+00
5.709806626253143e-01 7.222090733558844e-01 0.000000000000000e+00
5.463318681056781e-01 7.286285584274058e-01 0.000000000000000e+00
5.236132031687388e-01 7.316199443953458e-01 0.000000000000000e+00
5.000000000000064e-01 7.321766676179933e-01 0.000000000000000e+00
4.763867968312690e-01 7.316199443953473e-01 0.000000000000000e+00
4.536681318943327e-01 7.286285584274045e-01 0.000000000000000e+00
4.290193373746905e-01 7.222090733558798e-01 0.000000000000000e+00
4.103447924336533e-01 7.170535209837634e-01 0.000000000000000e+00
3.873041115438177e-01 7.063201166366466e-01 0.000000000000000e+00
3.682229931843051e-01 6.950572422766744e-01 0.000000000000000e+00
3.488419598841714e-01 6.813012682000230e-01 0.000000000000000e+00
3.326721056476741e-01 6.669248304903240e-01 0.000000000000000e+00
3.169300990884900e-01 6.500748792788078e-01 0.000000000000000e+00
3.018659610869390e-01 6.307729710551624e-01 0.000000000000000e+00
2.906680163126854e-01 6.120029095605440e-01 0.000000000000000e+00
2.796450315461115e-01 5.897528294531322e-01 0.000000000000000e+00
2.727993407304111e-01 5.696744768552622e-01 0.000000000000000e+00
2.668418120834877e-01 5.460089510823863e-01 0.000000000000000e+00
2.635506696609985e-01 5.234969406188723e-01 0.000000000000000e+00
2.623920788984377e-01 5.000000000000152e-01 0.000000000000000e+00
2.635506696609965e-01 4.765030593811585e-01 0.000000000000000e+00
2.668418120834852e-01 4.539910489176442e-01 0.000000000000000e+00
2.727993407304086e-01 4.303255231447672e-01 0.000000000000000e+00
2.796450315461077e-01 4.102471705468972e-01 0.000000000000000e+00
2.906680163126786e-01 3.879970904394872e-01 0.000000000000000e+00
3.018659610869314e-01 3.692270289448662e-01 0.000000000000000e+00
3.169300990884835e-01 3.499251207212195e-01 0.000000000000000e+00
3.326721056476636e-01 3.330751695097043e-01 0.000000000000000e+00
3.488419598841615e-01 3.186987318000033e-01 0.000000000000000e+00
3.682229931842921e-01 3.049427577233531e-01 0.000000000000000e+00
3.873041115438082e-01 2.936798833633774e-01 0.000000000000000e+00
4.103447924336376e-01 2.829464790162654e-01 0.000000000000000e+00
4.290193373746893e-01 2.777909266441371e-01 0.000000000000000e+00
4.536681318943284e-01 2.713714415726138e-01 0.000000000000000e+00
4.763867968312656e-01 2.683800556046727e-01 0.000000000000000e+00
5.000000000000006e-01 2.678233323820252e-01 0.000000000000000e+00
5.236132031687348e-01 2.683800556046718e-01 0.000000000000000e+00
5.463318681056737e-01 2.713714415726134e-01 0.000000000000000e+00
5.709806626253134e-01 2.777909266441366e-01 0.000000000000000e+00
5.896552075663588e-01 2.829464790162592e-01 0.000000000000000e+00
6.126958884561915e-01 2.936798833633724e-01 0.000000000000000e+00
6.317770068157061e-01 3.049427577233453e-01 0.000000000000000e+00
6.511580401158388e-01 3.186987317999941e-01 0.000000000000000e+00
6.673278943523362e-01 3.330751695096935e-01 0.000000000000000e+00
6.830699009115198e-01 3.499251207212078e-01 0.000000000000000e+00
6.981340389130721e-01 3.692270289448530e-01 0.000000000000000e+00
7.093319836873232e-01 3.879970904394681e-01 0.000000000000000e+00
7.203549684539009e-01 4.102471705468829e-01 0.000000000000000e+00
7.272006592695948e-01 4.303255231447435e-01 0.000000000000000e+00
7.331581879165213e-01 4.539910489176217e-01 0.000000000000000e+00
7.364493303390107e-01 4.765030593811348e-01 0.000000000000000e+00

POINT_DATA   64
SCALARS fY_Lag double
LOOKUP_TABLE default

-2.637535e-11 
-2.466342e+01 
2.890174e+01 
-8.998990e+01 
5.443953e+01 
-8.624873e+01 
1.304286e+01 
-6.130409e+01 
-6.191558e+01 
-1.513558e+01 
-6.229283e+01 
-1.372837e+01 
-1.395093e+02 
3.174831e+01 
-8.592064e+01 
-6.121250e+01 
-2.828263e+01 
-6.121250e+01 
-8.592064e+01 
3.174831e+01 
-1.395093e+02 
-1.372837e+01 
-6.229283e+01 
-1.513558e+01 
-6.191558e+01 
-6.130409e+01 
1.304286e+01 
-8.624873e+01 
5.443953e+01 
-8.998990e+01 
2.890174e+01 
-2.466342e+01 
8.412826e-12 
2.466342e+01 
-2.890174e+01 
8.998990e+01 
-5.443953e+01 
8.624873e+01 
-1.304286e+01 
6.130409e+01 
6.191558e+01 
1.513558e+01 
6.229283e+01 
1.372837e+01 
1.395093e+02 
-3.174831e+01 
8.592064e+01 
6.121250e+01 
2.828263e+01 
6.121250e+01 
8.592064e+01 
-3.174831e+01 
1.395093e+02 
1.372837e+01 
6.229283e+01 
1.513558e+01 
6.191558e+01 
6.130409e+01 
-1.304286e+01 
8.624873e+01 
-5.443953e+01 
8.998990e+01 
-2.890174e+01 
2.466342e+01 
