# vtk DataFile Version 2.0
fY_Lag
ASCII
DATASET UNSTRUCTURED_GRID

FIELD FieldData 1
TIME 1 1 double
0.64000000
POINTS 64 float
7.301341576004328e-01 5.000000000000000e-01 0.000000000000000e+00
7.291714313843299e-01 5.277367915523400e-01 0.000000000000000e+00
7.267084816453487e-01 5.550058146042613e-01 0.000000000000000e+00
7.219302804805358e-01 5.823617180972129e-01 0.000000000000000e+00
7.160866143089850e-01 6.087794820919026e-01 0.000000000000000e+00
7.076463012222743e-01 6.352026307399268e-01 0.000000000000000e+00
6.975489590970466e-01 6.598408736492550e-01 0.000000000000000e+00
6.856516664381244e-01 6.839017486759202e-01 0.000000000000000e+00
6.712890942172747e-01 7.063499234632188e-01 0.000000000000000e+00
6.556694095957564e-01 7.271809206090573e-01 0.000000000000000e+00
6.376479355012811e-01 7.459546348674789e-01 0.000000000000000e+00
6.181863407493658e-01 7.630127042159869e-01 0.000000000000000e+00
5.968279150877963e-01 7.768687010041463e-01 0.000000000000000e+00
5.738559323962600e-01 7.888382202843783e-01 0.000000000000000e+00
5.496319358555469e-01 7.970546641582582e-01 0.000000000000000e+00
5.252094477733197e-01 8.020085826890250e-01 0.000000000000000e+00
4.999999999999997e-01 8.037836354405088e-01 0.000000000000000e+00
4.747905522266788e-01 8.020085826890251e-01 0.000000000000000e+00
4.503680641444516e-01 7.970546641582590e-01 0.000000000000000e+00
4.261440676037384e-01 7.888382202843780e-01 0.000000000000000e+00
4.031720849122024e-01 7.768687010041480e-01 0.000000000000000e+00
3.818136592506321e-01 7.630127042159868e-01 0.000000000000000e+00
3.623520644987169e-01 7.459546348674804e-01 0.000000000000000e+00
3.443305904042416e-01 7.271809206090576e-01 0.000000000000000e+00
3.287109057827234e-01 7.063499234632199e-01 0.000000000000000e+00
3.143483335618734e-01 6.839017486759202e-01 0.000000000000000e+00
3.024510409029515e-01 6.598408736492558e-01 0.000000000000000e+00
2.923536987777233e-01 6.352026307399276e-01 0.000000000000000e+00
2.839133856910129e-01 6.087794820919035e-01 0.000000000000000e+00
2.780697195194624e-01 5.823617180972143e-01 0.000000000000000e+00
2.732915183546495e-01 5.550058146042618e-01 0.000000000000000e+00
2.708285686156687e-01 5.277367915523418e-01 0.000000000000000e+00
2.698658423995656e-01 5.000000000000004e-01 0.000000000000000e+00
2.708285686156688e-01 4.722632084476598e-01 0.000000000000000e+00
2.732915183546493e-01 4.449941853957394e-01 0.000000000000000e+00
2.780697195194629e-01 4.176382819027870e-01 0.000000000000000e+00
2.839133856910129e-01 3.912205179080982e-01 0.000000000000000e+00
2.923536987777239e-01 3.647973692600738e-01 0.000000000000000e+00
3.024510409029516e-01 3.401591263507456e-01 0.000000000000000e+00
3.143483335618739e-01 3.160982513240805e-01 0.000000000000000e+00
3.287109057827237e-01 2.936500765367812e-01 0.000000000000000e+00
3.443305904042420e-01 2.728190793909430e-01 0.000000000000000e+00
3.623520644987168e-01 2.540453651325211e-01 0.000000000000000e+00
3.818136592506323e-01 2.369872957840137e-01 0.000000000000000e+00
4.031720849122021e-01 2.231312989958532e-01 0.000000000000000e+00
4.261440676037381e-01 2.111617797156224e-01 0.000000000000000e+00
4.503680641444517e-01 2.029453358417420e-01 0.000000000000000e+00
4.747905522266785e-01 1.979914173109751e-01 0.000000000000000e+00
4.999999999999995e-01 1.962163645594917e-01 0.000000000000000e+00
5.252094477733196e-01 1.979914173109749e-01 0.000000000000000e+00
5.496319358555471e-01 2.029453358417417e-01 0.000000000000000e+00
5.738559323962603e-01 2.111617797156221e-01 0.000000000000000e+00
5.968279150877963e-01 2.231312989958524e-01 0.000000000000000e+00
6.181863407493663e-01 2.369872957840134e-01 0.000000000000000e+00
6.376479355012816e-01 2.540453651325201e-01 0.000000000000000e+00
6.556694095957565e-01 2.728190793909429e-01 0.000000000000000e+00
6.712890942172751e-01 2.936500765367805e-01 0.000000000000000e+00
6.856516664381243e-01 3.160982513240795e-01 0.000000000000000e+00
6.975489590970471e-01 3.401591263507447e-01 0.000000000000000e+00
7.076463012222742e-01 3.647973692600726e-01 0.000000000000000e+00
7.160866143089855e-01 3.912205179080969e-01 0.000000000000000e+00
7.219302804805353e-01 4.176382819027860e-01 0.000000000000000e+00
7.267084816453491e-01 4.449941853957384e-01 0.000000000000000e+00
7.291714313843297e-01 4.722632084476583e-01 0.000000000000000e+00

POINT_DATA   64
SCALARS fY_Lag double
LOOKUP_TABLE default

-4.149570e-11 
-1.211503e+01 
2.110906e+00 
-2.342674e+01 
-2.229917e-01 
-4.430560e+01 
-1.415346e+01 
-4.062872e+01 
-4.035497e+01 
-5.104116e+01 
-4.249610e+01 
-8.058436e+01 
-4.788266e+01 
-9.304416e+01 
-8.214561e+01 
-7.932741e+01 
-8.816263e+01 
-7.932741e+01 
-8.214561e+01 
-9.304416e+01 
-4.788266e+01 
-8.058436e+01 
-4.249610e+01 
-5.104116e+01 
-4.035497e+01 
-4.062872e+01 
-1.415346e+01 
-4.430560e+01 
-2.229917e-01 
-2.342674e+01 
2.110906e+00 
-1.211503e+01 
1.796252e-11 
1.211503e+01 
-2.110906e+00 
2.342674e+01 
2.229917e-01 
4.430560e+01 
1.415346e+01 
4.062872e+01 
4.035497e+01 
5.104116e+01 
4.249610e+01 
8.058436e+01 
4.788266e+01 
9.304416e+01 
8.214561e+01 
7.932741e+01 
8.816263e+01 
7.932741e+01 
8.214561e+01 
9.304416e+01 
4.788266e+01 
8.058436e+01 
4.249610e+01 
5.104116e+01 
4.035497e+01 
4.062872e+01 
1.415346e+01 
4.430560e+01 
2.229917e-01 
2.342674e+01 
-2.110906e+00 
1.211503e+01 
