# vtk DataFile Version 2.0
fY_Lag
ASCII
DATASET UNSTRUCTURED_GRID

FIELD FieldData 1
TIME 1 1 double
0.72000000
POINTS 64 float
7.956812136004620e-01 5.000000000000014e-01 0.000000000000000e+00
7.939098900236583e-01 5.251885284766050e-01 0.000000000000000e+00
7.893061581325349e-01 5.493674518706756e-01 0.000000000000000e+00
7.810311084207109e-01 5.736495953637829e-01 0.000000000000000e+00
7.696699107967938e-01 5.962222766094456e-01 0.000000000000000e+00
7.560183492754633e-01 6.177202739980392e-01 0.000000000000000e+00
7.398612659724086e-01 6.369744516120202e-01 0.000000000000000e+00
7.213635830779345e-01 6.549109080778667e-01 0.000000000000000e+00
7.008585845684878e-01 6.707032213576058e-01 0.000000000000000e+00
6.789794280820910e-01 6.846870837668938e-01 0.000000000000000e+00
6.559056940951075e-01 6.961041741174825e-01 0.000000000000000e+00
6.309811657524671e-01 7.066651344444927e-01 0.000000000000000e+00
6.061834983270797e-01 7.143632930462643e-01 0.000000000000000e+00
5.796282999975400e-01 7.206981067236334e-01 0.000000000000000e+00
5.536809349011284e-01 7.250215988260575e-01 0.000000000000000e+00
5.266257835670836e-01 7.275918469278353e-01 0.000000000000000e+00
4.999999999999988e-01 7.284789177769029e-01 0.000000000000000e+00
4.733742164329122e-01 7.275918469278346e-01 0.000000000000000e+00
4.463190650988690e-01 7.250215988260581e-01 0.000000000000000e+00
4.203717000024563e-01 7.206981067236320e-01 0.000000000000000e+00
3.938165016729180e-01 7.143632930462649e-01 0.000000000000000e+00
3.690188342475280e-01 7.066651344444904e-01 0.000000000000000e+00
3.440943059048905e-01 6.961041741174820e-01 0.000000000000000e+00
3.210205719179054e-01 6.846870837668918e-01 0.000000000000000e+00
2.991414154315079e-01 6.707032213576039e-01 0.000000000000000e+00
2.786364169220615e-01 6.549109080778640e-01 0.000000000000000e+00
2.601387340275884e-01 6.369744516120184e-01 0.000000000000000e+00
2.439816507245338e-01 6.177202739980368e-01 0.000000000000000e+00
2.303300892032023e-01 5.962222766094430e-01 0.000000000000000e+00
2.189688915792862e-01 5.736495953637802e-01 0.000000000000000e+00
2.106938418674626e-01 5.493674518706733e-01 0.000000000000000e+00
2.060901099763392e-01 5.251885284766022e-01 0.000000000000000e+00
2.043187863995355e-01 4.999999999999992e-01 0.000000000000000e+00
2.060901099763396e-01 4.748114715233954e-01 0.000000000000000e+00
2.106938418674628e-01 4.506325481293247e-01 0.000000000000000e+00
2.189688915792870e-01 4.263504046362175e-01 0.000000000000000e+00
2.303300892032030e-01 4.037777233905552e-01 0.000000000000000e+00
2.439816507245348e-01 3.822797260019615e-01 0.000000000000000e+00
2.601387340275889e-01 3.630255483879805e-01 0.000000000000000e+00
2.786364169220628e-01 3.450890919221347e-01 0.000000000000000e+00
2.991414154315090e-01 3.292967786423951e-01 0.000000000000000e+00
3.210205719179067e-01 3.153129162331074e-01 0.000000000000000e+00
3.440943059048908e-01 3.038958258825183e-01 0.000000000000000e+00
3.690188342475299e-01 2.933348655555088e-01 0.000000000000000e+00
3.938165016729187e-01 2.856367069537362e-01 0.000000000000000e+00
4.203717000024576e-01 2.793018932763678e-01 0.000000000000000e+00
4.463190650988698e-01 2.749784011739431e-01 0.000000000000000e+00
4.733742164329134e-01 2.724081530721655e-01 0.000000000000000e+00
4.999999999999996e-01 2.715210822230983e-01 0.000000000000000e+00
5.266257835670847e-01 2.724081530721655e-01 0.000000000000000e+00
5.536809349011292e-01 2.749784011739432e-01 0.000000000000000e+00
5.796282999975412e-01 2.793018932763683e-01 0.000000000000000e+00
6.061834983270801e-01 2.856367069537363e-01 0.000000000000000e+00
6.309811657524692e-01 2.933348655555100e-01 0.000000000000000e+00
6.559056940951072e-01 3.038958258825188e-01 0.000000000000000e+00
6.789794280820922e-01 3.153129162331090e-01 0.000000000000000e+00
7.008585845684898e-01 3.292967786423969e-01 0.000000000000000e+00
7.213635830779358e-01 3.450890919221367e-01 0.000000000000000e+00
7.398612659724098e-01 3.630255483879828e-01 0.000000000000000e+00
7.560183492754630e-01 3.822797260019640e-01 0.000000000000000e+00
7.696699107967957e-01 4.037777233905585e-01 0.000000000000000e+00
7.810311084207107e-01 4.263504046362202e-01 0.000000000000000e+00
7.893061581325352e-01 4.506325481293276e-01 0.000000000000000e+00
7.939098900236583e-01 4.748114715233983e-01 0.000000000000000e+00

POINT_DATA   64
SCALARS fY_Lag double
LOOKUP_TABLE default

1.250555e-11 
-2.505540e+01 
2.313713e+00 
-4.284561e+01 
-2.629114e+01 
-5.660828e+01 
-3.320886e+01 
-5.315484e+01 
-4.517101e+01 
-6.432939e+01 
-2.156185e+01 
-7.186429e+01 
-3.398811e+01 
-5.003958e+01 
-4.371486e+01 
-4.211216e+01 
-4.444329e+01 
-4.211216e+01 
-4.371486e+01 
-5.003958e+01 
-3.398811e+01 
-7.186429e+01 
-2.156185e+01 
-6.432939e+01 
-4.517101e+01 
-5.315484e+01 
-3.320886e+01 
-5.660828e+01 
-2.629114e+01 
-4.284561e+01 
2.313713e+00 
-2.505540e+01 
-1.944045e-11 
2.505540e+01 
-2.313713e+00 
4.284561e+01 
2.629114e+01 
5.660828e+01 
3.320886e+01 
5.315484e+01 
4.517101e+01 
6.432939e+01 
2.156185e+01 
7.186429e+01 
3.398811e+01 
5.003958e+01 
4.371486e+01 
4.211216e+01 
4.444329e+01 
4.211216e+01 
4.371486e+01 
5.003958e+01 
3.398811e+01 
7.186429e+01 
2.156185e+01 
6.432939e+01 
4.517101e+01 
5.315484e+01 
3.320886e+01 
5.660828e+01 
2.629114e+01 
4.284561e+01 
-2.313713e+00 
2.505540e+01 
