# vtk DataFile Version 2.0
fY_Lag
ASCII
DATASET UNSTRUCTURED_GRID

FIELD FieldData 1
TIME 1 1 double
0.46000000
POINTS 64 float
7.490757684928938e-01 4.999999999999998e-01 0.000000000000000e+00
7.480591652352448e-01 5.284077069560651e-01 0.000000000000000e+00
7.455855840184494e-01 5.561404499253353e-01 0.000000000000000e+00
7.404228090509990e-01 5.836795670712601e-01 0.000000000000000e+00
7.332598705706387e-01 6.101739876130383e-01 0.000000000000000e+00
7.236851932242078e-01 6.362467268479306e-01 0.000000000000000e+00
7.121765547832656e-01 6.611099427709608e-01 0.000000000000000e+00
6.990075197763732e-01 6.846199394067124e-01 0.000000000000000e+00
6.833560256874283e-01 7.065552931095384e-01 0.000000000000000e+00
6.659705125162437e-01 7.265633597132869e-01 0.000000000000000e+00
6.465201014100866e-01 7.441947752186098e-01 0.000000000000000e+00
6.253450758163469e-01 7.598615135085440e-01 0.000000000000000e+00
6.022959737749746e-01 7.729362844341769e-01 0.000000000000000e+00
5.779458461534127e-01 7.835110969458301e-01 0.000000000000000e+00
5.523765380860299e-01 7.909219807495311e-01 0.000000000000000e+00
5.264430832257230e-01 7.952884449652895e-01 0.000000000000000e+00
4.999999999999996e-01 7.968215250234300e-01 0.000000000000000e+00
4.735569167742775e-01 7.952884449652895e-01 0.000000000000000e+00
4.476234619139697e-01 7.909219807495317e-01 0.000000000000000e+00
4.220541538465871e-01 7.835110969458305e-01 0.000000000000000e+00
3.977040262250252e-01 7.729362844341778e-01 0.000000000000000e+00
3.746549241836532e-01 7.598615135085444e-01 0.000000000000000e+00
3.534798985899125e-01 7.441947752186103e-01 0.000000000000000e+00
3.340294874837560e-01 7.265633597132880e-01 0.000000000000000e+00
3.166439743125709e-01 7.065552931095392e-01 0.000000000000000e+00
3.009924802236258e-01 6.846199394067131e-01 0.000000000000000e+00
2.878234452167338e-01 6.611099427709620e-01 0.000000000000000e+00
2.763148067757911e-01 6.362467268479316e-01 0.000000000000000e+00
2.667401294293606e-01 6.101739876130393e-01 0.000000000000000e+00
2.595771909490001e-01 5.836795670712616e-01 0.000000000000000e+00
2.544144159815494e-01 5.561404499253361e-01 0.000000000000000e+00
2.519408347647538e-01 5.284077069560666e-01 0.000000000000000e+00
2.509242315071046e-01 5.000000000000004e-01 0.000000000000000e+00
2.519408347647537e-01 4.715922930439351e-01 0.000000000000000e+00
2.544144159815490e-01 4.438595500746652e-01 0.000000000000000e+00
2.595771909489997e-01 4.163204329287398e-01 0.000000000000000e+00
2.667401294293595e-01 3.898260123869620e-01 0.000000000000000e+00
2.763148067757903e-01 3.637532731520698e-01 0.000000000000000e+00
2.878234452167330e-01 3.388900572290392e-01 0.000000000000000e+00
3.009924802236251e-01 3.153800605932880e-01 0.000000000000000e+00
3.166439743125697e-01 2.934447068904619e-01 0.000000000000000e+00
3.340294874837549e-01 2.734366402867129e-01 0.000000000000000e+00
3.534798985899110e-01 2.558052247813907e-01 0.000000000000000e+00
3.746549241836513e-01 2.401384864914560e-01 0.000000000000000e+00
3.977040262250236e-01 2.270637155658229e-01 0.000000000000000e+00
4.220541538465855e-01 2.164889030541699e-01 0.000000000000000e+00
4.476234619139680e-01 2.090780192504689e-01 0.000000000000000e+00
4.735569167742751e-01 2.047115550347106e-01 0.000000000000000e+00
4.999999999999985e-01 2.031784749765701e-01 0.000000000000000e+00
5.264430832257208e-01 2.047115550347104e-01 0.000000000000000e+00
5.523765380860286e-01 2.090780192504686e-01 0.000000000000000e+00
5.779458461534107e-01 2.164889030541695e-01 0.000000000000000e+00
6.022959737749728e-01 2.270637155658225e-01 0.000000000000000e+00
6.253450758163450e-01 2.401384864914555e-01 0.000000000000000e+00
6.465201014100852e-01 2.558052247813897e-01 0.000000000000000e+00
6.659705125162420e-01 2.734366402867123e-01 0.000000000000000e+00
6.833560256874271e-01 2.934447068904606e-01 0.000000000000000e+00
6.990075197763719e-01 3.153800605932865e-01 0.000000000000000e+00
7.121765547832649e-01 3.388900572290384e-01 0.000000000000000e+00
7.236851932242071e-01 3.637532731520683e-01 0.000000000000000e+00
7.332598705706381e-01 3.898260123869607e-01 0.000000000000000e+00
7.404228090509982e-01 4.163204329287382e-01 0.000000000000000e+00
7.455855840184491e-01 4.438595500746641e-01 0.000000000000000e+00
7.480591652352447e-01 4.715922930439330e-01 0.000000000000000e+00

POINT_DATA   64
SCALARS fY_Lag double
LOOKUP_TABLE default

-4.308731e-11 
-1.660375e+01 
-4.898334e+00 
-2.662783e+01 
-1.112675e+01 
-3.065786e+01 
-3.402267e+01 
-3.957843e+01 
-4.885889e+01 
-5.978075e+01 
-4.942370e+01 
-6.416882e+01 
-6.286426e+01 
-7.834992e+01 
-7.459015e+01 
-7.020473e+01 
-7.664092e+01 
-7.020473e+01 
-7.459015e+01 
-7.834992e+01 
-6.286426e+01 
-6.416882e+01 
-4.942370e+01 
-5.978075e+01 
-4.885889e+01 
-3.957843e+01 
-3.402267e+01 
-3.065786e+01 
-1.112675e+01 
-2.662783e+01 
-4.898334e+00 
-1.660375e+01 
2.216893e-11 
1.660375e+01 
4.898334e+00 
2.662783e+01 
1.112675e+01 
3.065786e+01 
3.402267e+01 
3.957843e+01 
4.885889e+01 
5.978075e+01 
4.942370e+01 
6.416882e+01 
6.286426e+01 
7.834992e+01 
7.459015e+01 
7.020473e+01 
7.664092e+01 
7.020473e+01 
7.459015e+01 
7.834992e+01 
6.286426e+01 
6.416882e+01 
4.942370e+01 
5.978075e+01 
4.885889e+01 
3.957843e+01 
3.402267e+01 
3.065786e+01 
1.112675e+01 
2.662783e+01 
4.898334e+00 
1.660375e+01 
