# vtk DataFile Version 2.0
fY_Lag
ASCII
DATASET UNSTRUCTURED_GRID

FIELD FieldData 1
TIME 1 1 double
0.22000000
POINTS 64 float
8.146241982912011e-01 4.999999999999991e-01 0.000000000000000e+00
8.133120846653331e-01 5.259168934791244e-01 0.000000000000000e+00
8.093874499567224e-01 5.514007446180093e-01 0.000000000000000e+00
8.023233212227785e-01 5.763941812134133e-01 0.000000000000000e+00
7.920943089187126e-01 6.005881517624908e-01 0.000000000000000e+00
7.793220768144439e-01 6.231196076425775e-01 0.000000000000000e+00
7.637444990413575e-01 6.435070239014080e-01 0.000000000000000e+00
7.457384555499948e-01 6.619992631074825e-01 0.000000000000000e+00
7.254134260569792e-01 6.786488121211075e-01 0.000000000000000e+00
7.027002123215188e-01 6.934181736876505e-01 0.000000000000000e+00
6.770487835675087e-01 7.071907944949031e-01 0.000000000000000e+00
6.499872785371621e-01 7.185550066565426e-01 0.000000000000000e+00
6.209905251268582e-01 7.282740417950955e-01 0.000000000000000e+00
5.916036989502622e-01 7.358878663447080e-01 0.000000000000000e+00
5.616986877096158e-01 7.417597708713008e-01 0.000000000000000e+00
5.311617003348794e-01 7.450440415574724e-01 0.000000000000000e+00
4.999999999999997e-01 7.461962045038589e-01 0.000000000000000e+00
4.688382996651229e-01 7.450440415574726e-01 0.000000000000000e+00
4.383013122903842e-01 7.417597708713010e-01 0.000000000000000e+00
4.083963010497393e-01 7.358878663447080e-01 0.000000000000000e+00
3.790094748731426e-01 7.282740417950960e-01 0.000000000000000e+00
3.500127214628389e-01 7.185550066565429e-01 0.000000000000000e+00
3.229512164324922e-01 7.071907944949036e-01 0.000000000000000e+00
2.972997876784819e-01 6.934181736876508e-01 0.000000000000000e+00
2.745865739430217e-01 6.786488121211086e-01 0.000000000000000e+00
2.542615444500058e-01 6.619992631074834e-01 0.000000000000000e+00
2.362555009586432e-01 6.435070239014087e-01 0.000000000000000e+00
2.206779231855566e-01 6.231196076425786e-01 0.000000000000000e+00
2.079056910812881e-01 6.005881517624916e-01 0.000000000000000e+00
1.976766787772217e-01 5.763941812134149e-01 0.000000000000000e+00
1.906125500432775e-01 5.514007446180107e-01 0.000000000000000e+00
1.866879153346669e-01 5.259168934791263e-01 0.000000000000000e+00
1.853758017087986e-01 5.000000000000004e-01 0.000000000000000e+00
1.866879153346666e-01 4.740831065208752e-01 0.000000000000000e+00
1.906125500432771e-01 4.485992553819901e-01 0.000000000000000e+00
1.976766787772211e-01 4.236058187865862e-01 0.000000000000000e+00
2.079056910812872e-01 3.994118482375092e-01 0.000000000000000e+00
2.206779231855557e-01 3.768803923574228e-01 0.000000000000000e+00
2.362555009586421e-01 3.564929760985919e-01 0.000000000000000e+00
2.542615444500052e-01 3.380007368925172e-01 0.000000000000000e+00
2.745865739430204e-01 3.213511878788920e-01 0.000000000000000e+00
2.972997876784808e-01 3.065818263123491e-01 0.000000000000000e+00
3.229512164324903e-01 2.928092055050969e-01 0.000000000000000e+00
3.500127214628377e-01 2.814449933434570e-01 0.000000000000000e+00
3.790094748731409e-01 2.717259582049041e-01 0.000000000000000e+00
4.083963010497378e-01 2.641121336552917e-01 0.000000000000000e+00
4.383013122903831e-01 2.582402291286987e-01 0.000000000000000e+00
4.688382996651208e-01 2.549559584425271e-01 0.000000000000000e+00
4.999999999999988e-01 2.538037954961406e-01 0.000000000000000e+00
5.311617003348770e-01 2.549559584425268e-01 0.000000000000000e+00
5.616986877096148e-01 2.582402291286987e-01 0.000000000000000e+00
5.916036989502601e-01 2.641121336552913e-01 0.000000000000000e+00
6.209905251268568e-01 2.717259582049038e-01 0.000000000000000e+00
6.499872785371608e-01 2.814449933434567e-01 0.000000000000000e+00
6.770487835675075e-01 2.928092055050961e-01 0.000000000000000e+00
7.027002123215172e-01 3.065818263123482e-01 0.000000000000000e+00
7.254134260569781e-01 3.213511878788913e-01 0.000000000000000e+00
7.457384555499937e-01 3.380007368925161e-01 0.000000000000000e+00
7.637444990413568e-01 3.564929760985908e-01 0.000000000000000e+00
7.793220768144429e-01 3.768803923574213e-01 0.000000000000000e+00
7.920943089187117e-01 3.994118482375079e-01 0.000000000000000e+00
8.023233212227784e-01 4.236058187865848e-01 0.000000000000000e+00
8.093874499567225e-01 4.485992553819887e-01 0.000000000000000e+00
8.133120846653332e-01 4.740831065208735e-01 0.000000000000000e+00

POINT_DATA   64
SCALARS fY_Lag double
LOOKUP_TABLE default

-2.728484e-12 
-9.800749e+00 
-1.103114e+01 
-2.012919e+01 
-4.284548e+01 
-5.435515e+01 
-4.707191e+01 
-4.609286e+01 
-4.704515e+01 
-2.474690e+01 
-5.918737e+01 
-4.056838e+01 
-5.371952e+01 
-4.474240e+01 
-6.414689e+01 
-5.335317e+01 
-5.968125e+01 
-5.335317e+01 
-6.414689e+01 
-4.474240e+01 
-5.371952e+01 
-4.056838e+01 
-5.918737e+01 
-2.474690e+01 
-4.704515e+01 
-4.609286e+01 
-4.707191e+01 
-5.435515e+01 
-4.284548e+01 
-2.012919e+01 
-1.103114e+01 
-9.800749e+00 
1.386979e-11 
9.800749e+00 
1.103114e+01 
2.012919e+01 
4.284548e+01 
5.435515e+01 
4.707191e+01 
4.609286e+01 
4.704515e+01 
2.474690e+01 
5.918737e+01 
4.056838e+01 
5.371952e+01 
4.474240e+01 
6.414689e+01 
5.335317e+01 
5.968125e+01 
5.335317e+01 
6.414689e+01 
4.474240e+01 
5.371952e+01 
4.056838e+01 
5.918737e+01 
2.474690e+01 
4.704515e+01 
4.609286e+01 
4.707191e+01 
5.435515e+01 
4.284548e+01 
2.012919e+01 
1.103114e+01 
9.800749e+00 
