# vtk DataFile Version 2.0
fY_Lag
ASCII
DATASET UNSTRUCTURED_GRID

FIELD FieldData 1
TIME 1 1 double
0.48000000
POINTS 64 float
7.286083904931671e-01 4.999999999999997e-01 0.000000000000000e+00
7.277386353561837e-01 5.279560564922936e-01 0.000000000000000e+00
7.258881280056799e-01 5.556679821513821e-01 0.000000000000000e+00
7.219059459302686e-01 5.836234629390180e-01 0.000000000000000e+00
7.162524951387876e-01 6.108197474258281e-01 0.000000000000000e+00
7.087699608935341e-01 6.378924933083286e-01 0.000000000000000e+00
6.994340308509934e-01 6.640788841872181e-01 0.000000000000000e+00
6.886921834835117e-01 6.892924191881634e-01 0.000000000000000e+00
6.754793734501131e-01 7.134792815470657e-01 0.000000000000000e+00
6.602197365074691e-01 7.361529624922881e-01 0.000000000000000e+00
6.427588830598875e-01 7.566816228822744e-01 0.000000000000000e+00
6.232232579068593e-01 7.752423968528152e-01 0.000000000000000e+00
6.012123030634398e-01 7.913728121407093e-01 0.000000000000000e+00
5.778611083619435e-01 8.041841143059325e-01 0.000000000000000e+00
5.527364123542661e-01 8.135529877509649e-01 0.000000000000000e+00
5.265708439853258e-01 8.191961009505047e-01 0.000000000000000e+00
4.999999999999993e-01 8.211342963931446e-01 0.000000000000000e+00
4.734291560146741e-01 8.191961009505043e-01 0.000000000000000e+00
4.472635876457329e-01 8.135529877509652e-01 0.000000000000000e+00
4.221388916380560e-01 8.041841143059323e-01 0.000000000000000e+00
3.987876969365598e-01 7.913728121407100e-01 0.000000000000000e+00
3.767767420931404e-01 7.752423968528155e-01 0.000000000000000e+00
3.572411169401112e-01 7.566816228822748e-01 0.000000000000000e+00
3.397802634925302e-01 7.361529624922890e-01 0.000000000000000e+00
3.245206265498856e-01 7.134792815470667e-01 0.000000000000000e+00
3.113078165164871e-01 6.892924191881641e-01 0.000000000000000e+00
3.005659691490058e-01 6.640788841872194e-01 0.000000000000000e+00
2.912300391064645e-01 6.378924933083294e-01 0.000000000000000e+00
2.837475048612114e-01 6.108197474258291e-01 0.000000000000000e+00
2.780940540697299e-01 5.836234629390192e-01 0.000000000000000e+00
2.741118719943185e-01 5.556679821513830e-01 0.000000000000000e+00
2.722613646438143e-01 5.279560564922955e-01 0.000000000000000e+00
2.713916095068308e-01 5.000000000000004e-01 0.000000000000000e+00
2.722613646438147e-01 4.720439435077062e-01 0.000000000000000e+00
2.741118719943182e-01 4.443320178486180e-01 0.000000000000000e+00
2.780940540697298e-01 4.163765370609820e-01 0.000000000000000e+00
2.837475048612108e-01 3.891802525741720e-01 0.000000000000000e+00
2.912300391064643e-01 3.621075066916716e-01 0.000000000000000e+00
3.005659691490051e-01 3.359211158127818e-01 0.000000000000000e+00
3.113078165164865e-01 3.107075808118370e-01 0.000000000000000e+00
3.245206265498850e-01 2.865207184529345e-01 0.000000000000000e+00
3.397802634925294e-01 2.638470375077118e-01 0.000000000000000e+00
3.572411169401105e-01 2.433183771177261e-01 0.000000000000000e+00
3.767767420931390e-01 2.247576031471850e-01 0.000000000000000e+00
3.987876969365587e-01 2.086271878592907e-01 0.000000000000000e+00
4.221388916380547e-01 1.958158856940681e-01 0.000000000000000e+00
4.472635876457318e-01 1.864470122490354e-01 0.000000000000000e+00
4.734291560146723e-01 1.808038990494956e-01 0.000000000000000e+00
4.999999999999985e-01 1.788657036068556e-01 0.000000000000000e+00
5.265708439853238e-01 1.808038990494953e-01 0.000000000000000e+00
5.527364123542652e-01 1.864470122490350e-01 0.000000000000000e+00
5.778611083619420e-01 1.958158856940675e-01 0.000000000000000e+00
6.012123030634385e-01 2.086271878592900e-01 0.000000000000000e+00
6.232232579068581e-01 2.247576031471845e-01 0.000000000000000e+00
6.427588830598864e-01 2.433183771177251e-01 0.000000000000000e+00
6.602197365074682e-01 2.638470375077113e-01 0.000000000000000e+00
6.754793734501124e-01 2.865207184529334e-01 0.000000000000000e+00
6.886921834835109e-01 3.107075808118357e-01 0.000000000000000e+00
6.994340308509929e-01 3.359211158127809e-01 0.000000000000000e+00
7.087699608935332e-01 3.621075066916703e-01 0.000000000000000e+00
7.162524951387871e-01 3.891802525741712e-01 0.000000000000000e+00
7.219059459302679e-01 4.163765370609808e-01 0.000000000000000e+00
7.258881280056797e-01 4.443320178486173e-01 0.000000000000000e+00
7.277386353561835e-01 4.720439435077045e-01 0.000000000000000e+00

POINT_DATA   64
SCALARS fY_Lag double
LOOKUP_TABLE default

-3.331024e-11 
-6.039465e+00 
6.208909e+00 
-1.906210e+01 
-3.320210e+00 
-2.213559e+01 
-2.407595e+01 
-2.595501e+01 
-3.821056e+01 
-5.341306e+01 
-4.870283e+01 
-6.112972e+01 
-8.239422e+01 
-8.635747e+01 
-9.233253e+01 
-9.276437e+01 
-9.779044e+01 
-9.276437e+01 
-9.233253e+01 
-8.635747e+01 
-8.239422e+01 
-6.112972e+01 
-4.870283e+01 
-5.341306e+01 
-3.821056e+01 
-2.595501e+01 
-2.407595e+01 
-2.213559e+01 
-3.320210e+00 
-1.906210e+01 
6.208909e+00 
-6.039465e+00 
1.818989e-11 
6.039465e+00 
-6.208909e+00 
1.906210e+01 
3.320210e+00 
2.213559e+01 
2.407595e+01 
2.595501e+01 
3.821056e+01 
5.341306e+01 
4.870283e+01 
6.112972e+01 
8.239422e+01 
8.635747e+01 
9.233253e+01 
9.276437e+01 
9.779044e+01 
9.276437e+01 
9.233253e+01 
8.635747e+01 
8.239422e+01 
6.112972e+01 
4.870283e+01 
5.341306e+01 
3.821056e+01 
2.595501e+01 
2.407595e+01 
2.213559e+01 
3.320210e+00 
1.906210e+01 
-6.208909e+00 
6.039465e+00 
