# vtk DataFile Version 2.0
fY_Lag
ASCII
DATASET UNSTRUCTURED_GRID

FIELD FieldData 1
TIME 1 1 double
0.78000000
POINTS 64 float
7.351833955448959e-01 5.000000000000028e-01 0.000000000000000e+00
7.340900865387553e-01 5.264305870513323e-01 0.000000000000000e+00
7.314225973537994e-01 5.524584803296069e-01 0.000000000000000e+00
7.267074325088825e-01 5.781032789801847e-01 0.000000000000000e+00
7.196541049990506e-01 6.032853355496638e-01 0.000000000000000e+00
7.108427128076181e-01 6.274713953763271e-01 0.000000000000000e+00
6.993581715496970e-01 6.509627672823415e-01 0.000000000000000e+00
6.869869595155474e-01 6.729415450002779e-01 0.000000000000000e+00
6.722329020413302e-01 6.934311504583009e-01 0.000000000000000e+00
6.558053939451057e-01 7.124884125511683e-01 0.000000000000000e+00
6.378457631079133e-01 7.292934014294599e-01 0.000000000000000e+00
6.174423314779603e-01 7.447759300163743e-01 0.000000000000000e+00
5.960991057633209e-01 7.572525296434207e-01 0.000000000000000e+00
5.730388795822686e-01 7.674935628353472e-01 0.000000000000000e+00
5.492271876626180e-01 7.745637611688561e-01 0.000000000000000e+00
5.248122278777436e-01 7.791101365194760e-01 0.000000000000000e+00
4.999999999999972e-01 7.806697956941173e-01 0.000000000000000e+00
4.751877721222486e-01 7.791101365194757e-01 0.000000000000000e+00
4.507728123373752e-01 7.745637611688555e-01 0.000000000000000e+00
4.269611204177245e-01 7.674935628353456e-01 0.000000000000000e+00
4.039008942366731e-01 7.572525296434204e-01 0.000000000000000e+00
3.825576685220319e-01 7.447759300163710e-01 0.000000000000000e+00
3.621542368920803e-01 7.292934014294585e-01 0.000000000000000e+00
3.441946060548876e-01 7.124884125511652e-01 0.000000000000000e+00
3.277670979586631e-01 6.934311504582982e-01 0.000000000000000e+00
3.130130404844465e-01 6.729415450002746e-01 0.000000000000000e+00
3.006418284502965e-01 6.509627672823375e-01 0.000000000000000e+00
2.891572871923766e-01 6.274713953763235e-01 0.000000000000000e+00
2.803458950009439e-01 6.032853355496594e-01 0.000000000000000e+00
2.732925674911132e-01 5.781032789801805e-01 0.000000000000000e+00
2.685774026461961e-01 5.524584803296029e-01 0.000000000000000e+00
2.659099134612413e-01 5.264305870513274e-01 0.000000000000000e+00
2.648166044551010e-01 4.999999999999987e-01 0.000000000000000e+00
2.659099134612417e-01 4.735694129486695e-01 0.000000000000000e+00
2.685774026461973e-01 4.475415196703948e-01 0.000000000000000e+00
2.732925674911148e-01 4.218967210198167e-01 0.000000000000000e+00
2.803458950009458e-01 3.967146644503387e-01 0.000000000000000e+00
2.891572871923794e-01 3.725286046236739e-01 0.000000000000000e+00
3.006418284502991e-01 3.490372327176609e-01 0.000000000000000e+00
3.130130404844497e-01 3.270584549997240e-01 0.000000000000000e+00
3.277670979586667e-01 3.065688495417005e-01 0.000000000000000e+00
3.441946060548913e-01 2.875115874488332e-01 0.000000000000000e+00
3.621542368920836e-01 2.707065985705411e-01 0.000000000000000e+00
3.825576685220362e-01 2.552240699836274e-01 0.000000000000000e+00
4.039008942366764e-01 2.427474703565805e-01 0.000000000000000e+00
4.269611204177282e-01 2.325064371646546e-01 0.000000000000000e+00
4.507728123373789e-01 2.254362388311457e-01 0.000000000000000e+00
4.751877721222533e-01 2.208898634805252e-01 0.000000000000000e+00
5.000000000000003e-01 2.193302043058849e-01 0.000000000000000e+00
5.248122278777481e-01 2.208898634805255e-01 0.000000000000000e+00
5.492271876626221e-01 2.254362388311466e-01 0.000000000000000e+00
5.730388795822724e-01 2.325064371646557e-01 0.000000000000000e+00
5.960991057633244e-01 2.427474703565815e-01 0.000000000000000e+00
6.174423314779649e-01 2.552240699836300e-01 0.000000000000000e+00
6.378457631079171e-01 2.707065985705431e-01 0.000000000000000e+00
6.558053939451092e-01 2.875115874488362e-01 0.000000000000000e+00
6.722329020413333e-01 3.065688495417032e-01 0.000000000000000e+00
6.869869595155498e-01 3.270584549997267e-01 0.000000000000000e+00
6.993581715497007e-01 3.490372327176646e-01 0.000000000000000e+00
7.108427128076191e-01 3.725286046236765e-01 0.000000000000000e+00
7.196541049990535e-01 3.967146644503431e-01 0.000000000000000e+00
7.267074325088835e-01 4.218967210198205e-01 0.000000000000000e+00
7.314225973538010e-01 4.475415196703991e-01 0.000000000000000e+00
7.340900865387555e-01 4.735694129486744e-01 0.000000000000000e+00

POINT_DATA   64
SCALARS fY_Lag double
LOOKUP_TABLE default

2.773959e-11 
-1.025896e+01 
-9.621499e+00 
-1.208530e+01 
-2.526759e+01 
-1.754839e+01 
-3.726438e+01 
-3.676440e+01 
-3.633811e+01 
-5.689303e+01 
-3.285760e+01 
-7.574775e+01 
-5.522286e+01 
-7.908393e+01 
-6.307354e+01 
-7.415838e+01 
-7.738448e+01 
-7.415838e+01 
-6.307354e+01 
-7.908393e+01 
-5.522286e+01 
-7.574775e+01 
-3.285760e+01 
-5.689303e+01 
-3.633811e+01 
-3.676440e+01 
-3.726438e+01 
-1.754839e+01 
-2.526759e+01 
-1.208530e+01 
-9.621499e+00 
-1.025896e+01 
-1.523404e-11 
1.025896e+01 
9.621499e+00 
1.208530e+01 
2.526759e+01 
1.754839e+01 
3.726438e+01 
3.676440e+01 
3.633811e+01 
5.689303e+01 
3.285760e+01 
7.574775e+01 
5.522286e+01 
7.908393e+01 
6.307354e+01 
7.415838e+01 
7.738448e+01 
7.415838e+01 
6.307354e+01 
7.908393e+01 
5.522286e+01 
7.574775e+01 
3.285760e+01 
5.689303e+01 
3.633811e+01 
3.676440e+01 
3.726438e+01 
1.754839e+01 
2.526759e+01 
1.208530e+01 
9.621499e+00 
1.025896e+01 
