# vtk DataFile Version 2.0
fY_Lag
ASCII
DATASET UNSTRUCTURED_GRID

FIELD FieldData 1
TIME 1 1 double
0.68000000
POINTS 64 float
7.584622880755321e-01 5.000000000000003e-01 0.000000000000000e+00
7.572997063902663e-01 5.259823348781323e-01 0.000000000000000e+00
7.541264134698220e-01 5.515301532450382e-01 0.000000000000000e+00
7.478866580486848e-01 5.772135515615173e-01 0.000000000000000e+00
7.400322903222740e-01 6.015355362140183e-01 0.000000000000000e+00
7.296503048017474e-01 6.255809891430832e-01 0.000000000000000e+00
7.168034779144018e-01 6.480198272385309e-01 0.000000000000000e+00
7.023176256119879e-01 6.693133607555981e-01 0.000000000000000e+00
6.857303043853175e-01 6.879683396050168e-01 0.000000000000000e+00
6.674488177798317e-01 7.054988252175105e-01 0.000000000000000e+00
6.470374251642202e-01 7.210779753986527e-01 0.000000000000000e+00
6.249238053706674e-01 7.350037644416162e-01 0.000000000000000e+00
6.023536023513587e-01 7.454122862551897e-01 0.000000000000000e+00
5.773254339507923e-01 7.546750287224413e-01 0.000000000000000e+00
5.523631204673374e-01 7.604698800851923e-01 0.000000000000000e+00
5.261735019736670e-01 7.639923731722131e-01 0.000000000000000e+00
4.999999999999991e-01 7.652788242911167e-01 0.000000000000000e+00
4.738264980263303e-01 7.639923731722130e-01 0.000000000000000e+00
4.476368795326607e-01 7.604698800851928e-01 0.000000000000000e+00
4.226745660492050e-01 7.546750287224403e-01 0.000000000000000e+00
3.976463976486407e-01 7.454122862551915e-01 0.000000000000000e+00
3.750761946293286e-01 7.350037644416144e-01 0.000000000000000e+00
3.529625748357771e-01 7.210779753986534e-01 0.000000000000000e+00
3.325511822201656e-01 7.054988252175100e-01 0.000000000000000e+00
3.142696956146802e-01 6.879683396050171e-01 0.000000000000000e+00
2.976823743880092e-01 6.693133607555973e-01 0.000000000000000e+00
2.831965220855956e-01 6.480198272385308e-01 0.000000000000000e+00
2.703496951982498e-01 6.255809891430826e-01 0.000000000000000e+00
2.599677096777235e-01 6.015355362140181e-01 0.000000000000000e+00
2.521133419513129e-01 5.772135515615178e-01 0.000000000000000e+00
2.458735865301760e-01 5.515301532450381e-01 0.000000000000000e+00
2.427002936097320e-01 5.259823348781323e-01 0.000000000000000e+00
2.415377119244662e-01 5.000000000000004e-01 0.000000000000000e+00
2.427002936097322e-01 4.740176651218681e-01 0.000000000000000e+00
2.458735865301761e-01 4.484698467549623e-01 0.000000000000000e+00
2.521133419513136e-01 4.227864484384830e-01 0.000000000000000e+00
2.599677096777235e-01 3.984644637859823e-01 0.000000000000000e+00
2.703496951982504e-01 3.744190108569179e-01 0.000000000000000e+00
2.831965220855958e-01 3.519801727614698e-01 0.000000000000000e+00
2.976823743880094e-01 3.306866392444029e-01 0.000000000000000e+00
3.142696956146802e-01 3.120316603949837e-01 0.000000000000000e+00
3.325511822201662e-01 2.945011747824901e-01 0.000000000000000e+00
3.529625748357774e-01 2.789220246013474e-01 0.000000000000000e+00
3.750761946293300e-01 2.649962355583850e-01 0.000000000000000e+00
3.976463976486402e-01 2.545877137448100e-01 0.000000000000000e+00
4.226745660492054e-01 2.453249712775600e-01 0.000000000000000e+00
4.476368795326610e-01 2.395301199148082e-01 0.000000000000000e+00
4.738264980263308e-01 2.360076268277872e-01 0.000000000000000e+00
4.999999999999995e-01 2.347211757088843e-01 0.000000000000000e+00
5.261735019736677e-01 2.360076268277873e-01 0.000000000000000e+00
5.523631204673378e-01 2.395301199148080e-01 0.000000000000000e+00
5.773254339507933e-01 2.453249712775599e-01 0.000000000000000e+00
6.023536023513582e-01 2.545877137448095e-01 0.000000000000000e+00
6.249238053706694e-01 2.649962355583858e-01 0.000000000000000e+00
6.470374251642210e-01 2.789220246013474e-01 0.000000000000000e+00
6.674488177798326e-01 2.945011747824907e-01 0.000000000000000e+00
6.857303043853182e-01 3.120316603949836e-01 0.000000000000000e+00
7.023176256119886e-01 3.306866392444034e-01 0.000000000000000e+00
7.168034779144028e-01 3.519801727614700e-01 0.000000000000000e+00
7.296503048017475e-01 3.744190108569179e-01 0.000000000000000e+00
7.400322903222746e-01 3.984644637859823e-01 0.000000000000000e+00
7.478866580486849e-01 4.227864484384830e-01 0.000000000000000e+00
7.541264134698221e-01 4.484698467549622e-01 0.000000000000000e+00
7.572997063902662e-01 4.740176651218679e-01 0.000000000000000e+00

POINT_DATA   64
SCALARS fY_Lag double
LOOKUP_TABLE default

-1.250555e-11 
-1.074758e+01 
3.190033e+00 
-3.357676e+01 
-6.345533e+00 
-4.046566e+01 
-2.876303e+01 
-6.548966e+01 
-2.820319e+01 
-4.814416e+01 
-4.179187e+01 
-8.861407e+01 
-2.823167e+01 
-8.631344e+01 
-5.745789e+01 
-5.669494e+01 
-6.504561e+01 
-5.669494e+01 
-5.745789e+01 
-8.631344e+01 
-2.823167e+01 
-8.861407e+01 
-4.179187e+01 
-4.814416e+01 
-2.820319e+01 
-6.548966e+01 
-2.876303e+01 
-4.046566e+01 
-6.345533e+00 
-3.357676e+01 
3.190033e+00 
-1.074758e+01 
-9.777068e-12 
1.074758e+01 
-3.190033e+00 
3.357676e+01 
6.345533e+00 
4.046566e+01 
2.876303e+01 
6.548966e+01 
2.820319e+01 
4.814416e+01 
4.179187e+01 
8.861407e+01 
2.823167e+01 
8.631344e+01 
5.745789e+01 
5.669494e+01 
6.504561e+01 
5.669494e+01 
5.745789e+01 
8.631344e+01 
2.823167e+01 
8.861407e+01 
4.179187e+01 
4.814416e+01 
2.820319e+01 
6.548966e+01 
2.876303e+01 
4.046566e+01 
6.345533e+00 
3.357676e+01 
-3.190033e+00 
1.074758e+01 
