# vtk DataFile Version 2.0
Comment goes here
ASCII

DATASET STRUCTURED_POINTS
FIELD FieldData 1
TIME 1 1 double
0.05000000
DIMENSIONS    256   256   1

ORIGIN    0.000   0.000   0.000
SPACING   0.0039062 0.0039062   1.000

POINT_DATA   65536
SCALARS Omega double
LOOKUP_TABLE default

5.306187e-14 6.198867e-08 1.239306e-07 1.857229e-07 2.473749e-07 3.087257e-07 3.698411e-07 4.304999e-07 4.908262e-07 5.505352e-07 6.098119e-07 6.683031e-07 7.262594e-07 7.832535e-07 8.396053e-07 8.948086e-07 9.492588e-07 1.002364e-06 1.054600e-06 1.105285e-06 1.154980e-06 1.202905e-06 1.249717e-06 1.294531e-06 1.338103e-06 1.379439e-06 1.419402e-06 1.456885e-06 1.492860e-06 1.526105e-06 1.557707e-06 1.586326e-06 1.613167e-06 1.636771e-06 1.658464e-06 1.676673e-06 1.692841e-06 1.705285e-06 1.715564e-06 1.721892e-06 1.725940e-06 1.725828e-06 1.723333e-06 1.716494e-06 1.707180e-06 1.693367e-06 1.677007e-06 1.656027e-06 1.632446e-06 1.604164e-06 1.573253e-06 1.537606e-06 1.499327e-06 1.456328e-06 1.410722e-06 1.360470e-06 1.307669e-06 1.250353e-06 1.190579e-06 1.126487e-06 1.060064e-06 9.895833e-07 9.169376e-07 8.405612e-07 7.622236e-07 6.805489e-07 5.971560e-07 5.108845e-07 4.231755e-07 3.331097e-07 2.419243e-07 1.489614e-07 5.523143e-08 -3.964344e-08 -1.349014e-07 -2.306265e-07 -3.263227e-07 -4.217704e-07 -5.167545e-07 -6.107472e-07 -7.038248e-07 -7.951511e-07 -8.850998e-07 -9.725324e-07 -1.058122e-06 -1.140437e-06 -1.220447e-06 -1.296446e-06 -1.369691e-06 -1.438222e-06 -1.503571e-06 -1.563549e-06 -1.619945e-06 -1.670375e-06 -1.716863e-06 -1.756859e-06 -1.792598e-06 -1.821406e-06 -1.845695e-06 -1.862706e-06 -1.874999e-06 -1.879768e-06 -1.879685e-06 -1.871945e-06 -1.859289e-06 -1.838957e-06 -1.813721e-06 -1.780908e-06 -1.743280e-06 -1.698291e-06 -1.648654e-06 -1.591992e-06 -1.530925e-06 -1.463281e-06 -1.391550e-06 -1.313799e-06 -1.232349e-06 -1.145535e-06 -1.055472e-06 -9.607933e-07 -8.633736e-07 -7.621634e-07 -6.587684e-07 -5.524723e-07 -4.445874e-07 -3.347403e-07 -2.239278e-07 -1.121256e-07 -1.360466e-13 1.121257e-07 2.239277e-07 3.347398e-07 4.445873e-07 5.524724e-07 6.587684e-07 7.621636e-07 8.633740e-07 9.607937e-07 1.055472e-06 1.145535e-06 1.232349e-06 1.313800e-06 1.391550e-06 1.463281e-06 1.530925e-06 1.591992e-06 1.648654e-06 1.698291e-06 1.743280e-06 1.780908e-06 1.813722e-06 1.838957e-06 1.859289e-06 1.871945e-06 1.879685e-06 1.879768e-06 1.874998e-06 1.862706e-06 1.845695e-06 1.821405e-06 1.792598e-06 1.756858e-06 1.716862e-06 1.670375e-06 1.619945e-06 1.563549e-06 1.503571e-06 1.438222e-06 1.369691e-06 1.296446e-06 1.220447e-06 1.140437e-06 1.058122e-06 9.725325e-07 8.851000e-07 7.951512e-07 7.038250e-07 6.107474e-07 5.167545e-07 4.217702e-07 3.263226e-07 2.306264e-07 1.349016e-07 3.964368e-08 -5.523128e-08 -1.489614e-07 -2.419242e-07 -3.331095e-07 -4.231752e-07 -5.108842e-07 -5.971558e-07 -6.805489e-07 -7.622237e-07 -8.405612e-07 -9.169378e-07 -9.895836e-07 -1.060064e-06 -1.126487e-06 -1.190579e-06 -1.250353e-06 -1.307669e-06 -1.360470e-06 -1.410722e-06 -1.456328e-06 -1.499326e-06 -1.537606e-06 -1.573253e-06 -1.604164e-06 -1.632446e-06 -1.656027e-06 -1.677008e-06 -1.693368e-06 -1.707181e-06 -1.716494e-06 -1.723333e-06 -1.725828e-06 -1.725939e-06 -1.721892e-06 -1.715563e-06 -1.705284e-06 -1.692840e-06 -1.676673e-06 -1.658464e-06 -1.636771e-06 -1.613166e-06 -1.586326e-06 -1.557707e-06 -1.526105e-06 -1.492860e-06 -1.456885e-06 -1.419402e-06 -1.379439e-06 -1.338103e-06 -1.294531e-06 -1.249717e-06 -1.202906e-06 -1.154980e-06 -1.105285e-06 -1.054601e-06 -1.002364e-06 -9.492591e-07 -8.948090e-07 -8.396056e-07 -7.832536e-07 -7.262595e-07 -6.683036e-07 -6.098124e-07 -5.505354e-07 -4.908264e-07 -4.305000e-07 -3.698414e-07 -3.087260e-07 -2.473748e-07 -1.857227e-07 -1.239305e-07 -6.198860e-08 
8.614605e-14 6.209258e-08 1.241273e-07 1.860291e-07 2.477573e-07 3.092177e-07 3.703873e-07 4.311502e-07 4.915036e-07 5.513063e-07 6.105778e-07 6.691472e-07 7.270613e-07 7.841135e-07 8.403820e-07 8.956187e-07 9.499406e-07 1.003051e-06 1.055110e-06 1.105768e-06 1.155236e-06 1.203099e-06 1.249630e-06 1.294345e-06 1.337582e-06 1.378780e-06 1.418354e-06 1.455659e-06 1.491191e-06 1.524218e-06 1.555325e-06 1.583685e-06 1.609980e-06 1.633288e-06 1.654390e-06 1.672264e-06 1.687799e-06 1.699874e-06 1.709485e-06 1.715414e-06 1.718765e-06 1.718228e-06 1.715014e-06 1.707727e-06 1.697683e-06 1.683407e-06 1.666312e-06 1.644859e-06 1.620550e-06 1.591793e-06 1.560171e-06 1.524053e-06 1.485091e-06 1.441633e-06 1.395383e-06 1.344691e-06 1.291294e-06 1.233566e-06 1.173257e-06 1.108786e-06 1.041898e-06 9.710801e-07 8.980476e-07 8.213824e-07 7.427449e-07 6.608352e-07 5.772358e-07 4.907881e-07 4.029720e-07 3.127923e-07 2.216025e-07 1.285910e-07 3.496155e-08 -5.989559e-08 -1.549480e-07 -2.505889e-07 -3.459762e-07 -4.412746e-07 -5.358504e-07 -6.296319e-07 -7.222074e-07 -8.132645e-07 -9.026252e-07 -9.897366e-07 -1.074661e-06 -1.156610e-06 -1.235889e-06 -1.311485e-06 -1.383946e-06 -1.452045e-06 -1.516568e-06 -1.576096e-06 -1.631641e-06 -1.681612e-06 -1.727236e-06 -1.766775e-06 -1.801652e-06 -1.830014e-06 -1.853458e-06 -1.870044e-06 -1.881520e-06 -1.885895e-06 -1.885037e-06 -1.876938e-06 -1.863560e-06 -1.842913e-06 -1.817017e-06 -1.783936e-06 -1.745717e-06 -1.700511e-06 -1.650357e-06 -1.593529e-06 -1.532022e-06 -1.464262e-06 -1.392170e-06 -1.314350e-06 -1.232615e-06 -1.145773e-06 -1.055498e-06 -9.608272e-07 -8.632628e-07 -7.620862e-07 -6.586059e-07 -5.523605e-07 -4.444407e-07 -3.346502e-07 -2.238427e-07 -1.120917e-07 2.107836e-14 1.120918e-07 2.238425e-07 3.346495e-07 4.444405e-07 5.523605e-07 6.586060e-07 7.620864e-07 8.632629e-07 9.608276e-07 1.055499e-06 1.145774e-06 1.232615e-06 1.314351e-06 1.392171e-06 1.464263e-06 1.532023e-06 1.593529e-06 1.650358e-06 1.700511e-06 1.745717e-06 1.783936e-06 1.817017e-06 1.842913e-06 1.863560e-06 1.876938e-06 1.885037e-06 1.885894e-06 1.881520e-06 1.870044e-06 1.853457e-06 1.830014e-06 1.801651e-06 1.766774e-06 1.727235e-06 1.681612e-06 1.631641e-06 1.576096e-06 1.516568e-06 1.452045e-06 1.383946e-06 1.311485e-06 1.235889e-06 1.156610e-06 1.074661e-06 9.897367e-07 9.026254e-07 8.132648e-07 7.222076e-07 6.296320e-07 5.358505e-07 4.412744e-07 3.459760e-07 2.505888e-07 1.549481e-07 5.989569e-08 -3.496140e-08 -1.285908e-07 -2.216024e-07 -3.127921e-07 -4.029718e-07 -4.907880e-07 -5.772357e-07 -6.608351e-07 -7.427449e-07 -8.213824e-07 -8.980477e-07 -9.710804e-07 -1.041898e-06 -1.108786e-06 -1.173257e-06 -1.233566e-06 -1.291294e-06 -1.344691e-06 -1.395383e-06 -1.441633e-06 -1.485090e-06 -1.524053e-06 -1.560171e-06 -1.591793e-06 -1.620550e-06 -1.644859e-06 -1.666312e-06 -1.683407e-06 -1.697683e-06 -1.707728e-06 -1.715014e-06 -1.718228e-06 -1.718765e-06 -1.715414e-06 -1.709485e-06 -1.699874e-06 -1.687799e-06 -1.672263e-06 -1.654389e-06 -1.633287e-06 -1.609980e-06 -1.583684e-06 -1.555324e-06 -1.524217e-06 -1.491191e-06 -1.455659e-06 -1.418354e-06 -1.378780e-06 -1.337582e-06 -1.294345e-06 -1.249630e-06 -1.203099e-06 -1.155236e-06 -1.105768e-06 -1.055111e-06 -1.003051e-06 -9.499409e-07 -8.956191e-07 -8.403822e-07 -7.841136e-07 -7.270615e-07 -6.691476e-07 -6.105783e-07 -5.513065e-07 -4.915037e-07 -4.311503e-07 -3.703875e-07 -3.092179e-07 -2.477573e-07 -1.860288e-07 -1.241272e-07 -6.209251e-08 
7.636671e-14 6.209889e-08 1.241292e-07 1.860430e-07 2.477514e-07 3.092249e-07 3.703545e-07 4.311267e-07 4.914154e-07 5.512193e-07 6.103969e-07 6.689549e-07 7.267423e-07 7.837665e-07 8.398716e-07 8.950603e-07 9.491789e-07 1.002218e-06 1.054032e-06 1.104592e-06 1.153770e-06 1.201507e-06 1.247703e-06 1.292261e-06 1.335117e-06 1.376129e-06 1.415276e-06 1.452362e-06 1.487423e-06 1.520200e-06 1.550794e-06 1.578874e-06 1.604618e-06 1.627616e-06 1.648132e-06 1.665672e-06 1.680591e-06 1.692309e-06 1.701281e-06 1.706834e-06 1.709530e-06 1.708604e-06 1.704727e-06 1.697043e-06 1.686336e-06 1.671659e-06 1.653912e-06 1.632062e-06 1.607121e-06 1.577979e-06 1.545754e-06 1.509269e-06 1.469745e-06 1.425945e-06 1.379184e-06 1.328183e-06 1.274337e-06 1.216339e-06 1.155651e-06 1.090957e-06 1.023770e-06 9.527813e-07 8.795388e-07 8.027598e-07 7.240068e-07 6.420456e-07 5.584310e-07 4.719973e-07 3.842698e-07 2.941722e-07 2.031768e-07 1.103161e-07 1.698679e-08 -7.765141e-08 -1.722998e-07 -2.676559e-07 -3.625395e-07 -4.574911e-07 -5.514696e-07 -6.448472e-07 -7.367397e-07 -8.273436e-07 -9.159459e-07 -1.002562e-06 -1.086664e-06 -1.168086e-06 -1.246493e-06 -1.321541e-06 -1.393093e-06 -1.460635e-06 -1.524229e-06 -1.583201e-06 -1.637813e-06 -1.687243e-06 -1.731946e-06 -1.770969e-06 -1.804954e-06 -1.832839e-06 -1.855434e-06 -1.871592e-06 -1.882277e-06 -1.886282e-06 -1.884705e-06 -1.876304e-06 -1.862289e-06 -1.841412e-06 -1.814971e-06 -1.781738e-06 -1.743071e-06 -1.697793e-06 -1.647295e-06 -1.590474e-06 -1.528727e-06 -1.461051e-06 -1.388822e-06 -1.311158e-06 -1.229384e-06 -1.142763e-06 -1.052542e-06 -9.581460e-07 -8.607197e-07 -7.598613e-07 -6.565923e-07 -5.506951e-07 -4.430466e-07 -3.336199e-07 -2.231301e-07 -1.117431e-07 -8.467333e-14 1.117431e-07 2.231298e-07 3.336193e-07 4.430466e-07 5.506952e-07 6.565923e-07 7.598615e-07 8.607198e-07 9.581464e-07 1.052543e-06 1.142763e-06 1.229384e-06 1.311158e-06 1.388822e-06 1.461052e-06 1.528727e-06 1.590474e-06 1.647295e-06 1.697793e-06 1.743071e-06 1.781738e-06 1.814971e-06 1.841412e-06 1.862289e-06 1.876304e-06 1.884705e-06 1.886282e-06 1.882277e-06 1.871592e-06 1.855434e-06 1.832838e-06 1.804954e-06 1.770969e-06 1.731945e-06 1.687242e-06 1.637813e-06 1.583201e-06 1.524229e-06 1.460634e-06 1.393093e-06 1.321541e-06 1.246493e-06 1.168086e-06 1.086664e-06 1.002562e-06 9.159460e-07 8.273438e-07 7.367401e-07 6.448475e-07 5.514694e-07 4.574908e-07 3.625394e-07 2.676558e-07 1.722999e-07 7.765155e-08 -1.698666e-08 -1.103159e-07 -2.031768e-07 -2.941721e-07 -3.842697e-07 -4.719973e-07 -5.584309e-07 -6.420456e-07 -7.240070e-07 -8.027598e-07 -8.795389e-07 -9.527817e-07 -1.023771e-06 -1.090957e-06 -1.155652e-06 -1.216339e-06 -1.274337e-06 -1.328183e-06 -1.379185e-06 -1.425945e-06 -1.469745e-06 -1.509269e-06 -1.545754e-06 -1.577979e-06 -1.607121e-06 -1.632063e-06 -1.653913e-06 -1.671659e-06 -1.686336e-06 -1.697043e-06 -1.704727e-06 -1.708604e-06 -1.709530e-06 -1.706834e-06 -1.701281e-06 -1.692309e-06 -1.680591e-06 -1.665671e-06 -1.648131e-06 -1.627615e-06 -1.604617e-06 -1.578873e-06 -1.550793e-06 -1.520199e-06 -1.487423e-06 -1.452362e-06 -1.415276e-06 -1.376129e-06 -1.335117e-06 -1.292262e-06 -1.247703e-06 -1.201507e-06 -1.153770e-06 -1.104592e-06 -1.054032e-06 -1.002218e-06 -9.491792e-07 -8.950607e-07 -8.398718e-07 -7.837666e-07 -7.267423e-07 -6.689553e-07 -6.103974e-07 -5.512195e-07 -4.914155e-07 -4.311267e-07 -3.703546e-07 -3.092251e-07 -2.477513e-07 -1.860427e-07 -1.241290e-07 -6.209871e-08 
1.135724e-13 6.223008e-08 1.243805e-07 1.864317e-07 2.482440e-07 3.098560e-07 3.710684e-07 4.319756e-07 4.923212e-07 5.522517e-07 6.114559e-07 6.701275e-07 7.279068e-07 7.850274e-07 8.410859e-07 8.963497e-07 9.503799e-07 1.003469e-06 1.055150e-06 1.105732e-06 1.154729e-06 1.202457e-06 1.248423e-06 1.292940e-06 1.335516e-06 1.376450e-06 1.415267e-06 1.452240e-06 1.486921e-06 1.519549e-06 1.549714e-06 1.577608e-06 1.602877e-06 1.625654e-06 1.645653e-06 1.662937e-06 1.677301e-06 1.688732e-06 1.697115e-06 1.702351e-06 1.704432e-06 1.703163e-06 1.698651e-06 1.690603e-06 1.679249e-06 1.664193e-06 1.645795e-06 1.623554e-06 1.597968e-06 1.568429e-06 1.535575e-06 1.498695e-06 1.458565e-06 1.414378e-06 1.367047e-06 1.315673e-06 1.261301e-06 1.202951e-06 1.141792e-06 1.076773e-06 1.009178e-06 9.378985e-07 8.643181e-07 7.872883e-07 7.082761e-07 6.261088e-07 5.423196e-07 4.557289e-07 3.679162e-07 2.777140e-07 1.867260e-07 9.381550e-08 5.881060e-10 -9.404363e-08 -1.884957e-07 -2.837891e-07 -3.783839e-07 -4.732179e-07 -5.668185e-07 -6.600263e-07 -7.514576e-07 -8.418429e-07 -9.299075e-07 -1.016262e-06 -1.099758e-06 -1.180881e-06 -1.258625e-06 -1.333343e-06 -1.404185e-06 -1.471374e-06 -1.534226e-06 -1.592832e-06 -1.646679e-06 -1.695738e-06 -1.739667e-06 -1.778324e-06 -1.811541e-06 -1.839072e-06 -1.860916e-06 -1.876742e-06 -1.886707e-06 -1.890409e-06 -1.888152e-06 -1.879483e-06 -1.864840e-06 -1.843736e-06 -1.816727e-06 -1.783311e-06 -1.744143e-06 -1.698729e-06 -1.647800e-06 -1.590891e-06 -1.528786e-06 -1.461068e-06 -1.388555e-06 -1.310892e-06 -1.228907e-06 -1.142326e-06 -1.051963e-06 -9.576379e-07 -8.601330e-07 -7.593698e-07 -6.560785e-07 -5.502909e-07 -4.426682e-07 -3.333560e-07 -2.229299e-07 -1.116514e-07 -6.866913e-14 1.116514e-07 2.229296e-07 3.333554e-07 4.426681e-07 5.502910e-07 6.560784e-07 7.593698e-07 8.601332e-07 9.576384e-07 1.051963e-06 1.142326e-06 1.228907e-06 1.310893e-06 1.388555e-06 1.461069e-06 1.528786e-06 1.590891e-06 1.647800e-06 1.698729e-06 1.744143e-06 1.783311e-06 1.816727e-06 1.843736e-06 1.864840e-06 1.879483e-06 1.888152e-06 1.890409e-06 1.886707e-06 1.876742e-06 1.860916e-06 1.839071e-06 1.811540e-06 1.778324e-06 1.739667e-06 1.695737e-06 1.646678e-06 1.592831e-06 1.534225e-06 1.471374e-06 1.404185e-06 1.333342e-06 1.258625e-06 1.180881e-06 1.099759e-06 1.016262e-06 9.299075e-07 8.418430e-07 7.514579e-07 6.600265e-07 5.668186e-07 4.732176e-07 3.783837e-07 2.837891e-07 1.884958e-07 9.404375e-08 -5.880261e-10 -9.381543e-08 -1.867259e-07 -2.777138e-07 -3.679159e-07 -4.557287e-07 -5.423195e-07 -6.261088e-07 -7.082763e-07 -7.872884e-07 -8.643182e-07 -9.378988e-07 -1.009178e-06 -1.076774e-06 -1.141792e-06 -1.202951e-06 -1.261301e-06 -1.315673e-06 -1.367047e-06 -1.414378e-06 -1.458565e-06 -1.498695e-06 -1.535575e-06 -1.568429e-06 -1.597968e-06 -1.623554e-06 -1.645795e-06 -1.664193e-06 -1.679249e-06 -1.690603e-06 -1.698651e-06 -1.703163e-06 -1.704432e-06 -1.702351e-06 -1.697115e-06 -1.688731e-06 -1.677301e-06 -1.662937e-06 -1.645652e-06 -1.625654e-06 -1.602877e-06 -1.577608e-06 -1.549713e-06 -1.519548e-06 -1.486921e-06 -1.452240e-06 -1.415267e-06 -1.376450e-06 -1.335516e-06 -1.292940e-06 -1.248424e-06 -1.202458e-06 -1.154729e-06 -1.105732e-06 -1.055150e-06 -1.003469e-06 -9.503802e-07 -8.963500e-07 -8.410861e-07 -7.850275e-07 -7.279069e-07 -6.701278e-07 -6.114563e-07 -5.522518e-07 -4.923213e-07 -4.319756e-07 -3.710685e-07 -3.098562e-07 -2.482438e-07 -1.864313e-07 -1.243802e-07 -6.222988e-08 
9.496151e-14 6.226083e-08 1.244312e-07 1.865197e-07 2.483368e-07 3.099882e-07 3.711863e-07 4.321309e-07 4.924389e-07 5.524006e-07 6.115401e-07 6.702331e-07 7.279170e-07 7.850456e-07 8.409750e-07 8.962301e-07 9.500944e-07 1.003155e-06 1.054631e-06 1.105162e-06 1.153915e-06 1.201568e-06 1.247248e-06 1.291663e-06 1.333911e-06 1.374718e-06 1.413165e-06 1.449983e-06 1.484254e-06 1.516699e-06 1.546417e-06 1.574102e-06 1.598889e-06 1.621432e-06 1.640917e-06 1.657944e-06 1.671768e-06 1.682922e-06 1.690745e-06 1.695688e-06 1.697194e-06 1.695619e-06 1.690526e-06 1.682163e-06 1.670229e-06 1.654856e-06 1.635888e-06 1.613333e-06 1.587196e-06 1.557351e-06 1.523974e-06 1.486803e-06 1.446189e-06 1.401732e-06 1.353963e-06 1.302346e-06 1.247593e-06 1.189033e-06 1.127559e-06 1.062369e-06 9.945319e-07 9.231263e-07 8.493839e-07 7.722771e-07 6.931892e-07 6.109978e-07 5.272239e-07 4.406648e-07 3.529613e-07 2.628484e-07 1.720654e-07 7.930242e-08 -1.362484e-08 -1.080518e-07 -2.021106e-07 -2.971439e-07 -3.912563e-07 -4.857785e-07 -5.788138e-07 -6.716628e-07 -7.624534e-07 -8.524396e-07 -9.397977e-07 -1.025720e-06 -1.108455e-06 -1.189122e-06 -1.266062e-06 -1.340309e-06 -1.410320e-06 -1.477034e-06 -1.539039e-06 -1.597177e-06 -1.650179e-06 -1.698786e-06 -1.741887e-06 -1.780121e-06 -1.812539e-06 -1.839687e-06 -1.860778e-06 -1.876269e-06 -1.885538e-06 -1.888962e-06 -1.886080e-06 -1.877198e-06 -1.862010e-06 -1.840763e-06 -1.813296e-06 -1.779812e-06 -1.740280e-06 -1.694873e-06 -1.643680e-06 -1.586852e-06 -1.524583e-06 -1.457019e-06 -1.384439e-06 -1.306997e-06 -1.225039e-06 -1.138738e-06 -1.048491e-06 -9.544975e-07 -8.571884e-07 -7.567964e-07 -6.537699e-07 -5.483809e-07 -4.410807e-07 -3.321809e-07 -2.221215e-07 -1.112549e-07 -2.022503e-13 1.112549e-07 2.221212e-07 3.321803e-07 4.410805e-07 5.483810e-07 6.537699e-07 7.567963e-07 8.571884e-07 9.544978e-07 1.048492e-06 1.138738e-06 1.225039e-06 1.306997e-06 1.384439e-06 1.457019e-06 1.524583e-06 1.586852e-06 1.643680e-06 1.694873e-06 1.740280e-06 1.779812e-06 1.813296e-06 1.840763e-06 1.862010e-06 1.877198e-06 1.886080e-06 1.888962e-06 1.885538e-06 1.876268e-06 1.860777e-06 1.839687e-06 1.812539e-06 1.780121e-06 1.741886e-06 1.698786e-06 1.650178e-06 1.597176e-06 1.539039e-06 1.477034e-06 1.410320e-06 1.340309e-06 1.266062e-06 1.189122e-06 1.108456e-06 1.025720e-06 9.397978e-07 8.524398e-07 7.624537e-07 6.716630e-07 5.788137e-07 4.857782e-07 3.912562e-07 2.971439e-07 2.021107e-07 1.080519e-07 1.362492e-08 -7.930234e-08 -1.720654e-07 -2.628483e-07 -3.529611e-07 -4.406646e-07 -5.272236e-07 -6.109977e-07 -6.931893e-07 -7.722771e-07 -8.493841e-07 -9.231266e-07 -9.945320e-07 -1.062370e-06 -1.127559e-06 -1.189033e-06 -1.247593e-06 -1.302346e-06 -1.353963e-06 -1.401731e-06 -1.446188e-06 -1.486803e-06 -1.523974e-06 -1.557351e-06 -1.587196e-06 -1.613333e-06 -1.635888e-06 -1.654856e-06 -1.670229e-06 -1.682164e-06 -1.690526e-06 -1.695619e-06 -1.697194e-06 -1.695688e-06 -1.690745e-06 -1.682922e-06 -1.671768e-06 -1.657944e-06 -1.640916e-06 -1.621431e-06 -1.598888e-06 -1.574102e-06 -1.546416e-06 -1.516699e-06 -1.484254e-06 -1.449983e-06 -1.413165e-06 -1.374718e-06 -1.333911e-06 -1.291664e-06 -1.247248e-06 -1.201568e-06 -1.153915e-06 -1.105163e-06 -1.054631e-06 -1.003155e-06 -9.500947e-07 -8.962303e-07 -8.409751e-07 -7.850457e-07 -7.279171e-07 -6.702335e-07 -6.115405e-07 -5.524007e-07 -4.924389e-07 -4.321309e-07 -3.711863e-07 -3.099884e-07 -2.483367e-07 -1.865193e-07 -1.244310e-07 -6.226065e-08 
1.305856e-13 6.241575e-08 1.247296e-07 1.869799e-07 2.489249e-07 3.107404e-07 3.720461e-07 4.331528e-07 4.935440e-07 5.536616e-07 6.128558e-07 6.716944e-07 7.294007e-07 7.866606e-07 8.425766e-07 8.979451e-07 9.517571e-07 1.004910e-06 1.056292e-06 1.106891e-06 1.155506e-06 1.203201e-06 1.248697e-06 1.293125e-06 1.335144e-06 1.375932e-06 1.414103e-06 1.450870e-06 1.484821e-06 1.517182e-06 1.546534e-06 1.574103e-06 1.598481e-06 1.620876e-06 1.639913e-06 1.656760e-06 1.670101e-06 1.681045e-06 1.688354e-06 1.693060e-06 1.694027e-06 1.692191e-06 1.686540e-06 1.677896e-06 1.665393e-06 1.649720e-06 1.630179e-06 1.607312e-06 1.580607e-06 1.550443e-06 1.516511e-06 1.479019e-06 1.437871e-06 1.393097e-06 1.344826e-06 1.292901e-06 1.237686e-06 1.178833e-06 1.116945e-06 1.051483e-06 9.832884e-07 9.116361e-07 8.376012e-07 7.602787e-07 6.809691e-07 5.985977e-07 5.146781e-07 4.279786e-07 3.402100e-07 2.499993e-07 1.592345e-07 6.641858e-08 -2.640575e-08 -1.208396e-07 -2.147110e-07 -3.097049e-07 -4.035474e-07 -4.979847e-07 -5.906709e-07 -6.833922e-07 -7.737595e-07 -8.635779e-07 -9.504452e-07 -1.036164e-06 -1.118350e-06 -1.198783e-06 -1.275123e-06 -1.349113e-06 -1.418484e-06 -1.484924e-06 -1.546260e-06 -1.604114e-06 -1.656431e-06 -1.704753e-06 -1.747164e-06 -1.785120e-06 -1.816855e-06 -1.843738e-06 -1.864166e-06 -1.879413e-06 -1.888050e-06 -1.891258e-06 -1.887785e-06 -1.878721e-06 -1.862990e-06 -1.841600e-06 -1.813649e-06 -1.780062e-06 -1.740110e-06 -1.694644e-06 -1.643097e-06 -1.586254e-06 -1.523701e-06 -1.456164e-06 -1.383371e-06 -1.305995e-06 -1.223893e-06 -1.137693e-06 -1.047366e-06 -9.535025e-07 -8.561739e-07 -7.559326e-07 -6.529403e-07 -5.477149e-07 -4.404944e-07 -3.317612e-07 -2.218182e-07 -1.111116e-07 -6.386022e-14 1.111116e-07 2.218179e-07 3.317606e-07 4.404941e-07 5.477150e-07 6.529404e-07 7.559326e-07 8.561740e-07 9.535028e-07 1.047367e-06 1.137693e-06 1.223893e-06 1.305995e-06 1.383371e-06 1.456165e-06 1.523701e-06 1.586254e-06 1.643097e-06 1.694644e-06 1.740110e-06 1.780062e-06 1.813649e-06 1.841600e-06 1.862991e-06 1.878721e-06 1.887785e-06 1.891258e-06 1.888050e-06 1.879413e-06 1.864166e-06 1.843738e-06 1.816855e-06 1.785119e-06 1.747163e-06 1.704753e-06 1.656430e-06 1.604114e-06 1.546260e-06 1.484923e-06 1.418484e-06 1.349113e-06 1.275123e-06 1.198783e-06 1.118350e-06 1.036164e-06 9.504454e-07 8.635782e-07 7.737598e-07 6.833924e-07 5.906708e-07 4.979845e-07 4.035472e-07 3.097049e-07 2.147112e-07 1.208397e-07 2.640591e-08 -6.641845e-08 -1.592345e-07 -2.499992e-07 -3.402098e-07 -4.279785e-07 -5.146779e-07 -5.985976e-07 -6.809692e-07 -7.602787e-07 -8.376014e-07 -9.116363e-07 -9.832887e-07 -1.051483e-06 -1.116945e-06 -1.178833e-06 -1.237686e-06 -1.292901e-06 -1.344826e-06 -1.393097e-06 -1.437871e-06 -1.479019e-06 -1.516511e-06 -1.550443e-06 -1.580607e-06 -1.607312e-06 -1.630179e-06 -1.649720e-06 -1.665393e-06 -1.677896e-06 -1.686540e-06 -1.692191e-06 -1.694027e-06 -1.693060e-06 -1.688354e-06 -1.681045e-06 -1.670101e-06 -1.656760e-06 -1.639912e-06 -1.620875e-06 -1.598480e-06 -1.574102e-06 -1.546533e-06 -1.517182e-06 -1.484820e-06 -1.450871e-06 -1.414103e-06 -1.375932e-06 -1.335144e-06 -1.293125e-06 -1.248698e-06 -1.203201e-06 -1.155506e-06 -1.106892e-06 -1.056292e-06 -1.004910e-06 -9.517574e-07 -8.979453e-07 -8.425767e-07 -7.866607e-07 -7.294008e-07 -6.716948e-07 -6.128562e-07 -5.536618e-07 -4.935441e-07 -4.331528e-07 -3.720461e-07 -3.107406e-07 -2.489247e-07 -1.869796e-07 -1.247295e-07 -6.241559e-08 
5.057111e-14 6.246759e-08 1.248226e-07 1.871319e-07 2.491031e-07 3.109811e-07 3.722948e-07 4.334638e-07 4.938411e-07 5.540169e-07 6.131722e-07 6.720620e-07 7.297010e-07 7.870016e-07 8.428192e-07 8.982152e-07 9.518954e-07 1.005060e-06 1.056275e-06 1.106868e-06 1.155278e-06 1.202946e-06 1.248201e-06 1.292581e-06 1.334320e-06 1.375037e-06 1.412892e-06 1.449565e-06 1.483162e-06 1.515407e-06 1.544371e-06 1.571801e-06 1.595761e-06 1.617994e-06 1.636585e-06 1.653252e-06 1.666123e-06 1.676869e-06 1.683690e-06 1.688183e-06 1.688650e-06 1.686589e-06 1.680433e-06 1.671556e-06 1.658550e-06 1.642642e-06 1.622608e-06 1.599506e-06 1.572326e-06 1.541934e-06 1.507553e-06 1.469844e-06 1.428284e-06 1.383308e-06 1.334669e-06 1.282565e-06 1.227033e-06 1.168029e-06 1.105883e-06 1.040302e-06 9.719178e-07 9.001828e-07 8.260314e-07 7.486668e-07 6.693190e-07 5.869492e-07 5.030741e-07 4.164224e-07 3.287833e-07 2.386680e-07 1.481187e-07 5.544598e-08 -3.707713e-08 -1.313207e-07 -2.248077e-07 -3.195663e-07 -4.129451e-07 -5.071054e-07 -5.992545e-07 -6.916615e-07 -7.814259e-07 -8.708984e-07 -9.571062e-07 -1.042455e-06 -1.123934e-06 -1.203979e-06 -1.279579e-06 -1.353173e-06 -1.421781e-06 -1.487826e-06 -1.548392e-06 -1.605862e-06 -1.657413e-06 -1.705372e-06 -1.747036e-06 -1.784659e-06 -1.815682e-06 -1.842271e-06 -1.862032e-06 -1.877034e-06 -1.885062e-06 -1.888081e-06 -1.884068e-06 -1.874877e-06 -1.858685e-06 -1.837235e-06 -1.808908e-06 -1.775332e-06 -1.735095e-06 -1.689711e-06 -1.637974e-06 -1.581283e-06 -1.518636e-06 -1.451319e-06 -1.378524e-06 -1.301431e-06 -1.219418e-06 -1.133557e-06 -1.043403e-06 -9.499249e-07 -8.528458e-07 -7.530265e-07 -6.503504e-07 -5.455717e-07 -4.387221e-07 -3.304479e-07 -2.209179e-07 -1.106691e-07 -9.066582e-14 1.106692e-07 2.209179e-07 3.304473e-07 4.387218e-07 5.455719e-07 6.503504e-07 7.530268e-07 8.528461e-07 9.499252e-07 1.043404e-06 1.133557e-06 1.219418e-06 1.301431e-06 1.378525e-06 1.451319e-06 1.518636e-06 1.581284e-06 1.637974e-06 1.689711e-06 1.735095e-06 1.775332e-06 1.808908e-06 1.837235e-06 1.858685e-06 1.874877e-06 1.884068e-06 1.888081e-06 1.885062e-06 1.877034e-06 1.862032e-06 1.842271e-06 1.815681e-06 1.784659e-06 1.747036e-06 1.705372e-06 1.657412e-06 1.605862e-06 1.548392e-06 1.487826e-06 1.421781e-06 1.353173e-06 1.279579e-06 1.203979e-06 1.123934e-06 1.042455e-06 9.571063e-07 8.708987e-07 7.814262e-07 6.916617e-07 5.992545e-07 5.071052e-07 4.129450e-07 3.195662e-07 2.248079e-07 1.313210e-07 3.707728e-08 -5.544588e-08 -1.481187e-07 -2.386677e-07 -3.287831e-07 -4.164221e-07 -5.030739e-07 -5.869491e-07 -6.693191e-07 -7.486667e-07 -8.260316e-07 -9.001832e-07 -9.719181e-07 -1.040302e-06 -1.105884e-06 -1.168028e-06 -1.227033e-06 -1.282565e-06 -1.334669e-06 -1.383308e-06 -1.428283e-06 -1.469844e-06 -1.507553e-06 -1.541934e-06 -1.572326e-06 -1.599506e-06 -1.622608e-06 -1.642642e-06 -1.658550e-06 -1.671557e-06 -1.680434e-06 -1.686589e-06 -1.688650e-06 -1.688183e-06 -1.683690e-06 -1.676869e-06 -1.666123e-06 -1.653252e-06 -1.636584e-06 -1.617994e-06 -1.595760e-06 -1.571801e-06 -1.544371e-06 -1.515407e-06 -1.483162e-06 -1.449565e-06 -1.412892e-06 -1.375037e-06 -1.334320e-06 -1.292581e-06 -1.248202e-06 -1.202947e-06 -1.155278e-06 -1.106868e-06 -1.056275e-06 -1.005060e-06 -9.518958e-07 -8.982155e-07 -8.428195e-07 -7.870017e-07 -7.297011e-07 -6.720624e-07 -6.131727e-07 -5.540172e-07 -4.938411e-07 -4.334638e-07 -3.722950e-07 -3.109814e-07 -2.491030e-07 -1.871316e-07 -1.248224e-07 -6.246748e-08 
5.301466e-14 6.264348e-08 1.251627e-07 1.876553e-07 2.497755e-07 3.118405e-07 3.732839e-07 4.346394e-07 4.951234e-07 5.554819e-07 6.147172e-07 6.737818e-07 7.314709e-07 7.889354e-07 8.447699e-07 9.003152e-07 9.539765e-07 1.007273e-06 1.058431e-06 1.109135e-06 1.157448e-06 1.205206e-06 1.250322e-06 1.294766e-06 1.336323e-06 1.377078e-06 1.414709e-06 1.451392e-06 1.484723e-06 1.516949e-06 1.545606e-06 1.572988e-06 1.596602e-06 1.618759e-06 1.636967e-06 1.653528e-06 1.665985e-06 1.676598e-06 1.682976e-06 1.687310e-06 1.687310e-06 1.685068e-06 1.678428e-06 1.669348e-06 1.655847e-06 1.639718e-06 1.619185e-06 1.595850e-06 1.568173e-06 1.537537e-06 1.502673e-06 1.464714e-06 1.422689e-06 1.377463e-06 1.328387e-06 1.276036e-06 1.220104e-06 1.160862e-06 1.098359e-06 1.032553e-06 9.638621e-07 8.919220e-07 8.175209e-07 7.399737e-07 6.604396e-07 5.779140e-07 4.939209e-07 4.071435e-07 3.194584e-07 2.292502e-07 1.387296e-07 4.599896e-08 -4.642002e-08 -1.406851e-07 -2.339927e-07 -3.287365e-07 -4.218623e-07 -5.159721e-07 -6.077982e-07 -7.001206e-07 -7.894965e-07 -8.788531e-07 -9.646132e-07 -1.049818e-06 -1.130798e-06 -1.210676e-06 -1.285734e-06 -1.359143e-06 -1.427175e-06 -1.493024e-06 -1.552990e-06 -1.610258e-06 -1.661198e-06 -1.708956e-06 -1.750008e-06 -1.787438e-06 -1.817858e-06 -1.844270e-06 -1.863449e-06 -1.878294e-06 -1.885771e-06 -1.888660e-06 -1.884136e-06 -1.874846e-06 -1.858192e-06 -1.836679e-06 -1.807945e-06 -1.774344e-06 -1.733761e-06 -1.688392e-06 -1.636373e-06 -1.579738e-06 -1.516875e-06 -1.449651e-06 -1.376708e-06 -1.299743e-06 -1.217647e-06 -1.131945e-06 -1.041770e-06 -9.484764e-07 -8.514327e-07 -7.518167e-07 -6.492268e-07 -5.446619e-07 -4.379420e-07 -3.298835e-07 -2.205187e-07 -1.104780e-07 -1.918724e-14 1.104782e-07 2.205186e-07 3.298829e-07 4.379418e-07 5.446620e-07 6.492269e-07 7.518169e-07 8.514331e-07 9.484767e-07 1.041771e-06 1.131945e-06 1.217647e-06 1.299743e-06 1.376708e-06 1.449651e-06 1.516875e-06 1.579738e-06 1.636373e-06 1.688392e-06 1.733761e-06 1.774345e-06 1.807945e-06 1.836679e-06 1.858192e-06 1.874846e-06 1.884136e-06 1.888660e-06 1.885771e-06 1.878293e-06 1.863448e-06 1.844269e-06 1.817858e-06 1.787438e-06 1.750008e-06 1.708956e-06 1.661198e-06 1.610258e-06 1.552990e-06 1.493024e-06 1.427175e-06 1.359143e-06 1.285734e-06 1.210676e-06 1.130798e-06 1.049818e-06 9.646132e-07 8.788533e-07 7.894968e-07 7.001208e-07 6.077981e-07 5.159719e-07 4.218623e-07 3.287365e-07 2.339929e-07 1.406853e-07 4.642019e-08 -4.599885e-08 -1.387295e-07 -2.292501e-07 -3.194582e-07 -4.071433e-07 -4.939207e-07 -5.779140e-07 -6.604397e-07 -7.399736e-07 -8.175210e-07 -8.919223e-07 -9.638624e-07 -1.032554e-06 -1.098359e-06 -1.160862e-06 -1.220104e-06 -1.276037e-06 -1.328387e-06 -1.377463e-06 -1.422689e-06 -1.464714e-06 -1.502673e-06 -1.537537e-06 -1.568173e-06 -1.595850e-06 -1.619185e-06 -1.639718e-06 -1.655847e-06 -1.669348e-06 -1.678428e-06 -1.685068e-06 -1.687310e-06 -1.687310e-06 -1.682975e-06 -1.676597e-06 -1.665984e-06 -1.653528e-06 -1.636966e-06 -1.618758e-06 -1.596601e-06 -1.572988e-06 -1.545606e-06 -1.516949e-06 -1.484723e-06 -1.451392e-06 -1.414709e-06 -1.377078e-06 -1.336323e-06 -1.294766e-06 -1.250322e-06 -1.205206e-06 -1.157449e-06 -1.109135e-06 -1.058431e-06 -1.007273e-06 -9.539769e-07 -9.003155e-07 -8.447701e-07 -7.889355e-07 -7.314710e-07 -6.737822e-07 -6.147176e-07 -5.554822e-07 -4.951235e-07 -4.346395e-07 -3.732840e-07 -3.118407e-07 -2.497754e-07 -1.876550e-07 -1.251626e-07 -6.264336e-08 