# vtk DataFile Version 2.0
Comment goes here
ASCII

DATASET STRUCTURED_POINTS
FIELD FieldData 1
TIME 1 1 double
0.02000000
DIMENSIONS    256   256   1

ORIGIN    0.000   0.000   0.000
SPACING   0.0039062 0.0039062   1.000

POINT_DATA   65536
SCALARS Omega double
LOOKUP_TABLE default

6.418299e-14 -8.124336e-09 -1.624083e-08 -2.436518e-08 -3.246593e-08 -4.058228e-08 -4.865842e-08 -5.675769e-08 -6.479861e-08 -7.287005e-08 -8.086356e-08 -8.889427e-08 -9.682512e-08 -1.047996e-07 -1.126498e-07 -1.205492e-07 -1.282968e-07 -1.360984e-07 -1.437176e-07 -1.513943e-07 -1.588550e-07 -1.663760e-07 -1.736433e-07 -1.809720e-07 -1.880061e-07 -1.951016e-07 -2.018581e-07 -2.086741e-07 -2.151037e-07 -2.215890e-07 -2.276378e-07 -2.337367e-07 -2.393461e-07 -2.449980e-07 -2.501062e-07 -2.552466e-07 -2.597878e-07 -2.643492e-07 -2.682559e-07 -2.721681e-07 -2.753707e-07 -2.785621e-07 -2.809909e-07 -2.833897e-07 -2.849758e-07 -2.865113e-07 -2.871885e-07 -2.877929e-07 -2.874984e-07 -2.871077e-07 -2.857850e-07 -2.843415e-07 -2.819409e-07 -2.793952e-07 -2.758768e-07 -2.721889e-07 -2.675235e-07 -2.626655e-07 -2.568370e-07 -2.507947e-07 -2.438020e-07 -2.365765e-07 -2.284347e-07 -2.200446e-07 -2.107864e-07 -2.012685e-07 -1.909457e-07 -1.803565e-07 -1.690409e-07 -1.574576e-07 -1.452410e-07 -1.327619e-07 -1.197565e-07 -1.065003e-07 -9.283839e-08 -7.894447e-08 -6.477782e-08 -5.040465e-08 -3.590226e-08 -2.122605e-08 -6.573101e-09 8.214382e-09 2.281995e-08 3.751428e-08 5.186388e-08 6.625105e-08 8.012962e-08 9.398985e-08 1.071790e-07 1.202913e-07 1.325748e-07 1.447202e-07 1.558878e-07 1.668555e-07 1.767072e-07 1.862987e-07 1.946505e-07 2.026846e-07 2.093721e-07 2.156891e-07 2.205732e-07 2.250403e-07 2.280102e-07 2.305243e-07 2.315017e-07 2.319938e-07 2.309355e-07 2.293730e-07 2.262736e-07 2.226622e-07 2.175546e-07 2.119399e-07 2.048973e-07 1.973640e-07 1.884979e-07 1.791700e-07 1.686290e-07 1.576674e-07 1.456362e-07 1.332356e-07 1.199295e-07 1.063156e-07 9.197805e-08 7.740206e-08 6.229865e-08 4.703255e-08 3.144576e-08 1.577665e-08 2.942801e-15 -1.577678e-08 -3.144587e-08 -4.703260e-08 -6.229867e-08 -7.740199e-08 -9.197806e-08 -1.063155e-07 -1.199295e-07 -1.332355e-07 -1.456360e-07 -1.576673e-07 -1.686290e-07 -1.791699e-07 -1.884978e-07 -1.973639e-07 -2.048972e-07 -2.119399e-07 -2.175547e-07 -2.226622e-07 -2.262735e-07 -2.293730e-07 -2.309354e-07 -2.319936e-07 -2.315016e-07 -2.305243e-07 -2.280103e-07 -2.250404e-07 -2.205733e-07 -2.156894e-07 -2.093723e-07 -2.026846e-07 -1.946506e-07 -1.862991e-07 -1.767076e-07 -1.668557e-07 -1.558879e-07 -1.447204e-07 -1.325748e-07 -1.202912e-07 -1.071791e-07 -9.398974e-08 -8.012942e-08 -6.625101e-08 -5.186378e-08 -3.751426e-08 -2.281995e-08 -8.214326e-09 6.573112e-09 2.122613e-08 3.590229e-08 5.040463e-08 6.477777e-08 7.894447e-08 9.283844e-08 1.065002e-07 1.197564e-07 1.327618e-07 1.452410e-07 1.574577e-07 1.690409e-07 1.803567e-07 1.909457e-07 2.012684e-07 2.107864e-07 2.200446e-07 2.284347e-07 2.365766e-07 2.438020e-07 2.507947e-07 2.568370e-07 2.626654e-07 2.675234e-07 2.721888e-07 2.758767e-07 2.793951e-07 2.819410e-07 2.843416e-07 2.857849e-07 2.871077e-07 2.874985e-07 2.877928e-07 2.871885e-07 2.865114e-07 2.849758e-07 2.833896e-07 2.809907e-07 2.785620e-07 2.753706e-07 2.721681e-07 2.682560e-07 2.643494e-07 2.597881e-07 2.552467e-07 2.501063e-07 2.449982e-07 2.393464e-07 2.337368e-07 2.276379e-07 2.215892e-07 2.151038e-07 2.086741e-07 2.018580e-07 1.951015e-07 1.880061e-07 1.809719e-07 1.736431e-07 1.663760e-07 1.588551e-07 1.513945e-07 1.437175e-07 1.360982e-07 1.282967e-07 1.205490e-07 1.126497e-07 1.047997e-07 9.682515e-08 8.889420e-08 8.086341e-08 7.286988e-08 6.479851e-08 5.675757e-08 4.865837e-08 4.058233e-08 3.246605e-08 2.436541e-08 1.624094e-08 8.124357e-09 
8.760066e-14 -8.140664e-09 -1.627439e-08 -2.441210e-08 -3.252874e-08 -4.065340e-08 -4.874199e-08 -5.684232e-08 -6.489018e-08 -7.295338e-08 -8.094624e-08 -8.895737e-08 -9.687804e-08 -1.048197e-07 -1.126482e-07 -1.204997e-07 -1.282123e-07 -1.359490e-07 -1.435182e-07 -1.511117e-07 -1.585057e-07 -1.659236e-07 -1.731062e-07 -1.803107e-07 -1.872408e-07 -1.941899e-07 -2.008220e-07 -2.074688e-07 -2.137530e-07 -2.200455e-07 -2.259271e-07 -2.318099e-07 -2.372303e-07 -2.426426e-07 -2.475398e-07 -2.524179e-07 -2.567268e-07 -2.610040e-07 -2.646577e-07 -2.682653e-07 -2.711954e-07 -2.740637e-07 -2.762021e-07 -2.782613e-07 -2.795413e-07 -2.807237e-07 -2.810813e-07 -2.813220e-07 -2.806974e-07 -2.799361e-07 -2.782758e-07 -2.764588e-07 -2.737169e-07 -2.707988e-07 -2.669393e-07 -2.628850e-07 -2.578826e-07 -2.526688e-07 -2.465121e-07 -2.401294e-07 -2.328216e-07 -2.252762e-07 -2.168367e-07 -2.081521e-07 -1.986184e-07 -1.888358e-07 -1.782639e-07 -1.674446e-07 -1.559100e-07 -1.441351e-07 -1.317336e-07 -1.191047e-07 -1.059517e-07 -9.259075e-08 -7.882104e-08 -6.486946e-08 -5.063669e-08 -3.625462e-08 -2.172928e-08 -7.093395e-09 7.538941e-09 2.223694e-08 3.677859e-08 5.133531e-08 6.557879e-08 7.978220e-08 9.351413e-08 1.071473e-07 1.201521e-07 1.329972e-07 1.450618e-07 1.569044e-07 1.678220e-07 1.784559e-07 1.880312e-07 1.972631e-07 2.053162e-07 2.129701e-07 2.193419e-07 2.252637e-07 2.298194e-07 2.338818e-07 2.365153e-07 2.386206e-07 2.392579e-07 2.393418e-07 2.379439e-07 2.359781e-07 2.325425e-07 2.285365e-07 2.230993e-07 2.171018e-07 2.097375e-07 2.018354e-07 1.926571e-07 1.829756e-07 1.721325e-07 1.608328e-07 1.485087e-07 1.357856e-07 1.221951e-07 1.082727e-07 9.365725e-08 7.878549e-08 6.340834e-08 4.785656e-08 3.199763e-08 1.605032e-08 -9.493682e-14 -1.605048e-08 -3.199774e-08 -4.785669e-08 -6.340841e-08 -7.878545e-08 -9.365730e-08 -1.082728e-07 -1.221951e-07 -1.357857e-07 -1.485087e-07 -1.608327e-07 -1.721325e-07 -1.829757e-07 -1.926571e-07 -2.018354e-07 -2.097375e-07 -2.171017e-07 -2.230993e-07 -2.285366e-07 -2.325424e-07 -2.359780e-07 -2.379437e-07 -2.393416e-07 -2.392579e-07 -2.386206e-07 -2.365154e-07 -2.338819e-07 -2.298195e-07 -2.252640e-07 -2.193420e-07 -2.129702e-07 -2.053164e-07 -1.972634e-07 -1.880315e-07 -1.784562e-07 -1.678221e-07 -1.569045e-07 -1.450618e-07 -1.329972e-07 -1.201521e-07 -1.071472e-07 -9.351400e-08 -7.978212e-08 -6.557874e-08 -5.133538e-08 -3.677852e-08 -2.223686e-08 -7.538906e-09 7.093504e-09 2.172929e-08 3.625458e-08 5.063672e-08 6.486947e-08 7.882103e-08 9.259070e-08 1.059517e-07 1.191047e-07 1.317336e-07 1.441352e-07 1.559101e-07 1.674446e-07 1.782639e-07 1.888358e-07 1.986184e-07 2.081522e-07 2.168368e-07 2.252762e-07 2.328215e-07 2.401294e-07 2.465120e-07 2.526687e-07 2.578825e-07 2.628849e-07 2.669392e-07 2.707989e-07 2.737169e-07 2.764588e-07 2.782758e-07 2.799361e-07 2.806974e-07 2.813220e-07 2.810813e-07 2.807237e-07 2.795413e-07 2.782613e-07 2.762019e-07 2.740635e-07 2.711954e-07 2.682654e-07 2.646578e-07 2.610042e-07 2.567270e-07 2.524180e-07 2.475400e-07 2.426428e-07 2.372305e-07 2.318101e-07 2.259274e-07 2.200458e-07 2.137530e-07 2.074688e-07 2.008220e-07 1.941898e-07 1.872408e-07 1.803106e-07 1.731061e-07 1.659236e-07 1.585059e-07 1.511119e-07 1.435181e-07 1.359489e-07 1.282122e-07 1.204996e-07 1.126482e-07 1.048198e-07 9.687813e-08 8.895737e-08 8.094612e-08 7.295324e-08 6.489014e-08 5.684227e-08 4.874202e-08 4.065350e-08 3.252892e-08 2.441242e-08 1.627456e-08 8.140756e-09 
6.435319e-14 -8.080549e-09 -1.615476e-08 -2.422967e-08 -3.228536e-08 -4.034239e-08 -4.836651e-08 -5.639241e-08 -6.437027e-08 -7.235030e-08 -8.026571e-08 -8.818304e-08 -9.601696e-08 -1.038524e-07 -1.115831e-07 -1.193142e-07 -1.269164e-07 -1.345175e-07 -1.419622e-07 -1.494032e-07 -1.566574e-07 -1.639049e-07 -1.709314e-07 -1.779470e-07 -1.847041e-07 -1.914451e-07 -1.978866e-07 -2.043062e-07 -2.103820e-07 -2.164283e-07 -2.220841e-07 -2.277020e-07 -2.328797e-07 -2.380096e-07 -2.426481e-07 -2.472278e-07 -2.512634e-07 -2.552278e-07 -2.585954e-07 -2.618783e-07 -2.645117e-07 -2.670462e-07 -2.688800e-07 -2.705995e-07 -2.715701e-07 -2.724106e-07 -2.724575e-07 -2.723582e-07 -2.714255e-07 -2.703307e-07 -2.683690e-07 -2.662297e-07 -2.631979e-07 -2.599738e-07 -2.558403e-07 -2.515013e-07 -2.462460e-07 -2.407742e-07 -2.343904e-07 -2.277815e-07 -2.202771e-07 -2.125424e-07 -2.039415e-07 -1.951092e-07 -1.854535e-07 -1.755691e-07 -1.649183e-07 -1.540467e-07 -1.424798e-07 -1.307052e-07 -1.183201e-07 -1.057463e-07 -9.266018e-08 -7.941022e-08 -6.575857e-08 -5.197405e-08 -3.791038e-08 -2.375054e-08 -9.443549e-09 4.917052e-09 1.928408e-08 3.365707e-08 4.789013e-08 6.207674e-08 7.597321e-08 8.976688e-08 1.031190e-07 1.163095e-07 1.289084e-07 1.412854e-07 1.529255e-07 1.642827e-07 1.747654e-07 1.849057e-07 1.940436e-07 2.027823e-07 2.104046e-07 2.175751e-07 2.235308e-07 2.289880e-07 2.331505e-07 2.367751e-07 2.390456e-07 2.407477e-07 2.410589e-07 2.407810e-07 2.390988e-07 2.368178e-07 2.331442e-07 2.288738e-07 2.232473e-07 2.170380e-07 2.095343e-07 2.014740e-07 1.922051e-07 1.824178e-07 1.715307e-07 1.601749e-07 1.478495e-07 1.351156e-07 1.215607e-07 1.076670e-07 9.311731e-08 7.830630e-08 6.301706e-08 4.755013e-08 3.179256e-08 1.594506e-08 -6.959105e-14 -1.594519e-08 -3.179266e-08 -4.755026e-08 -6.301712e-08 -7.830626e-08 -9.311724e-08 -1.076670e-07 -1.215607e-07 -1.351157e-07 -1.478494e-07 -1.601749e-07 -1.715307e-07 -1.824178e-07 -1.922050e-07 -2.014738e-07 -2.095342e-07 -2.170379e-07 -2.232473e-07 -2.288738e-07 -2.331442e-07 -2.368178e-07 -2.390987e-07 -2.407808e-07 -2.410587e-07 -2.407477e-07 -2.390457e-07 -2.367752e-07 -2.331505e-07 -2.289882e-07 -2.235309e-07 -2.175752e-07 -2.104049e-07 -2.027826e-07 -1.940438e-07 -1.849058e-07 -1.747655e-07 -1.642829e-07 -1.529255e-07 -1.412853e-07 -1.289084e-07 -1.163093e-07 -1.031188e-07 -8.976677e-08 -7.597310e-08 -6.207678e-08 -4.789015e-08 -3.365700e-08 -1.928400e-08 -4.916931e-09 9.443541e-09 2.375039e-08 3.791039e-08 5.197414e-08 6.575866e-08 7.941022e-08 9.266013e-08 1.057463e-07 1.183201e-07 1.307052e-07 1.424799e-07 1.540468e-07 1.649183e-07 1.755691e-07 1.854535e-07 1.951092e-07 2.039416e-07 2.125424e-07 2.202770e-07 2.277815e-07 2.343903e-07 2.407741e-07 2.462459e-07 2.515013e-07 2.558403e-07 2.599738e-07 2.631979e-07 2.662298e-07 2.683690e-07 2.703306e-07 2.714255e-07 2.723582e-07 2.724574e-07 2.724106e-07 2.715701e-07 2.705995e-07 2.688798e-07 2.670461e-07 2.645117e-07 2.618784e-07 2.585954e-07 2.552280e-07 2.512636e-07 2.472279e-07 2.426483e-07 2.380098e-07 2.328799e-07 2.277021e-07 2.220843e-07 2.164285e-07 2.103821e-07 2.043061e-07 1.978866e-07 1.914450e-07 1.847040e-07 1.779470e-07 1.709313e-07 1.639049e-07 1.566575e-07 1.494033e-07 1.419620e-07 1.345173e-07 1.269163e-07 1.193141e-07 1.115830e-07 1.038524e-07 9.601701e-08 8.818302e-08 8.026557e-08 7.235014e-08 6.437019e-08 5.639235e-08 4.836651e-08 4.034244e-08 3.228546e-08 2.422992e-08 1.615493e-08 8.080607e-09 
8.509858e-14 -8.108226e-09 -1.621106e-08 -2.431059e-08 -3.239376e-08 -4.047034e-08 -4.851866e-08 -5.655696e-08 -6.455380e-08 -7.253704e-08 -8.046417e-08 -8.837361e-08 -9.620998e-08 -1.040245e-07 -1.117467e-07 -1.194422e-07 -1.270229e-07 -1.345718e-07 -1.419805e-07 -1.493514e-07 -1.565535e-07 -1.637116e-07 -1.706685e-07 -1.775741e-07 -1.842429e-07 -1.908525e-07 -1.971861e-07 -2.034519e-07 -2.093994e-07 -2.152694e-07 -2.207759e-07 -2.261947e-07 -2.312018e-07 -2.361102e-07 -2.405570e-07 -2.448932e-07 -2.487163e-07 -2.524165e-07 -2.555516e-07 -2.585507e-07 -2.609328e-07 -2.631656e-07 -2.647310e-07 -2.661335e-07 -2.668203e-07 -2.673310e-07 -2.670811e-07 -2.666422e-07 -2.654026e-07 -2.639619e-07 -2.616862e-07 -2.591986e-07 -2.558492e-07 -2.522783e-07 -2.478273e-07 -2.431477e-07 -2.375790e-07 -2.317771e-07 -2.250882e-07 -2.181646e-07 -2.103678e-07 -2.023383e-07 -1.934619e-07 -1.843592e-07 -1.744491e-07 -1.643234e-07 -1.534434e-07 -1.423636e-07 -1.305964e-07 -1.186504e-07 -1.060975e-07 -9.339241e-08 -8.017376e-08 -6.683522e-08 -5.308881e-08 -3.926042e-08 -2.514146e-08 -1.098365e-08 3.338058e-09 1.765019e-08 3.199117e-08 4.626980e-08 6.043629e-08 7.448385e-08 8.827444e-08 1.018865e-07 1.150955e-07 1.280645e-07 1.404857e-07 1.526050e-07 1.640361e-07 1.751035e-07 1.853495e-07 1.951727e-07 2.040506e-07 2.124499e-07 2.197934e-07 2.266076e-07 2.322701e-07 2.373593e-07 2.412190e-07 2.444693e-07 2.464321e-07 2.477587e-07 2.477610e-07 2.471109e-07 2.451229e-07 2.424771e-07 2.385035e-07 2.338791e-07 2.279613e-07 2.214117e-07 2.136268e-07 2.052418e-07 1.957027e-07 1.856075e-07 1.744617e-07 1.628148e-07 1.502414e-07 1.372326e-07 1.234393e-07 1.092856e-07 9.450486e-08 7.944685e-08 6.393176e-08 4.822811e-08 3.224661e-08 1.616987e-08 -4.408007e-14 -1.617007e-08 -3.224674e-08 -4.822815e-08 -6.393174e-08 -7.944683e-08 -9.450480e-08 -1.092855e-07 -1.234393e-07 -1.372327e-07 -1.502414e-07 -1.628147e-07 -1.744616e-07 -1.856075e-07 -1.957028e-07 -2.052417e-07 -2.136267e-07 -2.214117e-07 -2.279612e-07 -2.338791e-07 -2.385036e-07 -2.424771e-07 -2.451226e-07 -2.471108e-07 -2.477610e-07 -2.477586e-07 -2.464321e-07 -2.444694e-07 -2.412191e-07 -2.373595e-07 -2.322703e-07 -2.266077e-07 -2.197936e-07 -2.124502e-07 -2.040508e-07 -1.951728e-07 -1.853498e-07 -1.751038e-07 -1.640361e-07 -1.526050e-07 -1.404857e-07 -1.280644e-07 -1.150954e-07 -1.018865e-07 -8.827440e-08 -7.448388e-08 -6.043635e-08 -4.626977e-08 -3.199110e-08 -1.765018e-08 -3.338070e-09 1.098354e-08 2.514137e-08 3.926049e-08 5.308886e-08 6.683517e-08 8.017373e-08 9.339243e-08 1.060975e-07 1.186504e-07 1.305965e-07 1.423637e-07 1.534434e-07 1.643234e-07 1.744491e-07 1.843592e-07 1.934620e-07 2.023383e-07 2.103677e-07 2.181646e-07 2.250882e-07 2.317771e-07 2.375790e-07 2.431477e-07 2.478273e-07 2.522783e-07 2.558492e-07 2.591986e-07 2.616863e-07 2.639619e-07 2.654026e-07 2.666422e-07 2.670811e-07 2.673310e-07 2.668203e-07 2.661335e-07 2.647309e-07 2.631656e-07 2.609328e-07 2.585507e-07 2.555517e-07 2.524167e-07 2.487165e-07 2.448934e-07 2.405572e-07 2.361105e-07 2.312021e-07 2.261948e-07 2.207761e-07 2.152696e-07 2.093995e-07 2.034519e-07 1.971861e-07 1.908524e-07 1.842429e-07 1.775741e-07 1.706684e-07 1.637115e-07 1.565536e-07 1.493515e-07 1.419803e-07 1.345716e-07 1.270228e-07 1.194420e-07 1.117466e-07 1.040246e-07 9.621003e-08 8.837355e-08 8.046402e-08 7.253688e-08 6.455372e-08 5.655688e-08 4.851864e-08 4.047035e-08 3.239387e-08 2.431084e-08 1.621116e-08 8.108273e-09 
6.195758e-14 -8.056800e-09 -1.610894e-08 -2.415433e-08 -3.218555e-08 -4.020326e-08 -4.819641e-08 -5.616921e-08 -6.410570e-08 -7.201494e-08 -7.987470e-08 -8.769981e-08 -9.546005e-08 -1.031783e-07 -1.108139e-07 -1.183995e-07 -1.258817e-07 -1.333059e-07 -1.406027e-07 -1.478329e-07 -1.549087e-07 -1.619090e-07 -1.687242e-07 -1.754543e-07 -1.819652e-07 -1.883812e-07 -1.945404e-07 -2.005944e-07 -2.063508e-07 -2.119910e-07 -2.172899e-07 -2.224617e-07 -2.272452e-07 -2.318903e-07 -2.360985e-07 -2.401565e-07 -2.437274e-07 -2.471363e-07 -2.500074e-07 -2.527045e-07 -2.548128e-07 -2.567357e-07 -2.580201e-07 -2.591078e-07 -2.595095e-07 -2.597041e-07 -2.591684e-07 -2.584162e-07 -2.568937e-07 -2.551466e-07 -2.525951e-07 -2.498126e-07 -2.461986e-07 -2.423493e-07 -2.376495e-07 -2.327126e-07 -2.269154e-07 -2.208824e-07 -2.139899e-07 -2.068662e-07 -1.988950e-07 -1.907011e-07 -1.816839e-07 -1.724568e-07 -1.624434e-07 -1.522371e-07 -1.412947e-07 -1.301814e-07 -1.183956e-07 -1.064659e-07 -9.394035e-08 -8.130314e-08 -6.815923e-08 -5.494086e-08 -4.131692e-08 -2.766105e-08 -1.371161e-08 2.225500e-10 1.432898e-08 2.836878e-08 4.245143e-08 5.641228e-08 7.028125e-08 8.397011e-08 9.742838e-08 1.106465e-07 1.234943e-07 1.360404e-07 1.480778e-07 1.597525e-07 1.707842e-07 1.813936e-07 1.912326e-07 2.005920e-07 2.090631e-07 2.170021e-07 2.239468e-07 2.303124e-07 2.355926e-07 2.402531e-07 2.437539e-07 2.466037e-07 2.482382e-07 2.491991e-07 2.489097e-07 2.479347e-07 2.456963e-07 2.427717e-07 2.385929e-07 2.337389e-07 2.276631e-07 2.209353e-07 2.130404e-07 2.045288e-07 1.949272e-07 1.847556e-07 1.735919e-07 1.619164e-07 1.493659e-07 1.363717e-07 1.226366e-07 1.085352e-07 9.384172e-08 7.886663e-08 6.345981e-08 4.786189e-08 3.200169e-08 1.604484e-08 -2.841668e-14 -1.604495e-08 -3.200174e-08 -4.786196e-08 -6.345983e-08 -7.886651e-08 -9.384162e-08 -1.085352e-07 -1.226367e-07 -1.363718e-07 -1.493658e-07 -1.619163e-07 -1.735918e-07 -1.847555e-07 -1.949271e-07 -2.045286e-07 -2.130403e-07 -2.209352e-07 -2.276630e-07 -2.337389e-07 -2.385929e-07 -2.427716e-07 -2.456962e-07 -2.479345e-07 -2.489095e-07 -2.491990e-07 -2.482382e-07 -2.466038e-07 -2.437541e-07 -2.402534e-07 -2.355926e-07 -2.303124e-07 -2.239470e-07 -2.170024e-07 -2.090633e-07 -2.005922e-07 -1.912326e-07 -1.813937e-07 -1.707843e-07 -1.597526e-07 -1.480778e-07 -1.360403e-07 -1.234942e-07 -1.106465e-07 -9.742837e-08 -8.397012e-08 -7.028125e-08 -5.641227e-08 -4.245140e-08 -2.836867e-08 -1.432894e-08 -2.225924e-10 1.371159e-08 2.766110e-08 4.131696e-08 5.494087e-08 6.815915e-08 8.130318e-08 9.394044e-08 1.064660e-07 1.183957e-07 1.301816e-07 1.412947e-07 1.522370e-07 1.624434e-07 1.724569e-07 1.816840e-07 1.907011e-07 1.988950e-07 2.068661e-07 2.139898e-07 2.208824e-07 2.269153e-07 2.327125e-07 2.376494e-07 2.423493e-07 2.461987e-07 2.498127e-07 2.525951e-07 2.551466e-07 2.568937e-07 2.584162e-07 2.591684e-07 2.597041e-07 2.595095e-07 2.591077e-07 2.580199e-07 2.567356e-07 2.548128e-07 2.527045e-07 2.500074e-07 2.471364e-07 2.437276e-07 2.401566e-07 2.360987e-07 2.318905e-07 2.272454e-07 2.224618e-07 2.172901e-07 2.119912e-07 2.063508e-07 2.005944e-07 1.945403e-07 1.883811e-07 1.819651e-07 1.754542e-07 1.687240e-07 1.619089e-07 1.549087e-07 1.478329e-07 1.406025e-07 1.333056e-07 1.258816e-07 1.183993e-07 1.108137e-07 1.031783e-07 9.546004e-08 8.769974e-08 7.987452e-08 7.201471e-08 6.410558e-08 5.616907e-08 4.819635e-08 4.020327e-08 3.218563e-08 2.415457e-08 1.610905e-08 8.056822e-09 
8.938621e-14 -8.093474e-09 -1.618337e-08 -2.426235e-08 -3.233030e-08 -4.037653e-08 -4.840340e-08 -5.639765e-08 -6.436286e-08 -7.228449e-08 -8.016604e-08 -8.799262e-08 -9.576580e-08 -1.034728e-07 -1.111106e-07 -1.186705e-07 -1.261425e-07 -1.335249e-07 -1.407975e-07 -1.479683e-07 -1.550044e-07 -1.619264e-07 -1.686850e-07 -1.753169e-07 -1.817530e-07 -1.880499e-07 -1.941152e-07 -2.000286e-07 -2.056713e-07 -2.111489e-07 -2.163137e-07 -2.213009e-07 -2.259299e-07 -2.303686e-07 -2.344016e-07 -2.382321e-07 -2.416077e-07 -2.447690e-07 -2.474254e-07 -2.498560e-07 -2.517314e-07 -2.533709e-07 -2.544055e-07 -2.551950e-07 -2.553321e-07 -2.552164e-07 -2.544034e-07 -2.533316e-07 -2.515218e-07 -2.494495e-07 -2.466037e-07 -2.434939e-07 -2.395819e-07 -2.354071e-07 -2.304094e-07 -2.251532e-07 -2.190620e-07 -2.127202e-07 -2.055415e-07 -1.981239e-07 -1.898786e-07 -1.814103e-07 -1.721351e-07 -1.626574e-07 -1.524062e-07 -1.419775e-07 -1.308214e-07 -1.195175e-07 -1.075457e-07 -9.546085e-08 -8.278015e-08 -7.002621e-08 -5.676079e-08 -4.346662e-08 -2.975707e-08 -1.606796e-08 -2.070444e-09 1.185346e-08 2.596950e-08 3.995517e-08 5.400883e-08 6.787229e-08 8.167423e-08 9.522376e-08 1.085783e-07 1.216174e-07 1.343266e-07 1.466570e-07 1.585237e-07 1.699493e-07 1.807817e-07 1.911130e-07 2.007275e-07 2.097845e-07 2.180103e-07 2.256274e-07 2.323104e-07 2.383398e-07 2.433465e-07 2.476620e-07 2.508820e-07 2.533826e-07 2.547333e-07 2.553460e-07 2.547738e-07 2.534561e-07 2.509396e-07 2.476814e-07 2.432321e-07 2.380572e-07 2.317208e-07 2.246870e-07 2.165432e-07 2.077424e-07 1.979042e-07 1.874610e-07 1.760731e-07 1.641436e-07 1.513806e-07 1.381492e-07 1.242119e-07 1.098885e-07 9.500095e-08 7.981706e-08 6.422182e-08 4.842558e-08 3.237924e-08 1.623159e-08 -7.999840e-14 -1.623168e-08 -3.237931e-08 -4.842562e-08 -6.422179e-08 -7.981704e-08 -9.500086e-08 -1.098885e-07 -1.242119e-07 -1.381492e-07 -1.513805e-07 -1.641434e-07 -1.760730e-07 -1.874609e-07 -1.979041e-07 -2.077422e-07 -2.165431e-07 -2.246870e-07 -2.317208e-07 -2.380572e-07 -2.432321e-07 -2.476813e-07 -2.509394e-07 -2.534560e-07 -2.547736e-07 -2.553458e-07 -2.547333e-07 -2.533827e-07 -2.508821e-07 -2.476621e-07 -2.433466e-07 -2.383400e-07 -2.323106e-07 -2.256276e-07 -2.180105e-07 -2.097846e-07 -2.007276e-07 -1.911130e-07 -1.807818e-07 -1.699495e-07 -1.585237e-07 -1.466568e-07 -1.343264e-07 -1.216173e-07 -1.085783e-07 -9.522378e-08 -8.167415e-08 -6.787223e-08 -5.400878e-08 -3.995508e-08 -2.596946e-08 -1.185347e-08 2.070456e-09 1.606799e-08 2.975709e-08 4.346661e-08 5.676080e-08 7.002624e-08 8.278019e-08 9.546096e-08 1.075458e-07 1.195176e-07 1.308214e-07 1.419775e-07 1.524063e-07 1.626575e-07 1.721352e-07 1.814103e-07 1.898785e-07 1.981238e-07 2.055414e-07 2.127201e-07 2.190619e-07 2.251531e-07 2.304094e-07 2.354071e-07 2.395819e-07 2.434939e-07 2.466036e-07 2.494494e-07 2.515218e-07 2.533316e-07 2.544033e-07 2.552163e-07 2.553320e-07 2.551950e-07 2.544053e-07 2.533708e-07 2.517313e-07 2.498560e-07 2.474253e-07 2.447691e-07 2.416079e-07 2.382323e-07 2.344018e-07 2.303687e-07 2.259301e-07 2.213011e-07 2.163139e-07 2.111491e-07 2.056713e-07 2.000286e-07 1.941152e-07 1.880497e-07 1.817529e-07 1.753167e-07 1.686848e-07 1.619263e-07 1.550044e-07 1.479684e-07 1.407974e-07 1.335246e-07 1.261424e-07 1.186703e-07 1.111105e-07 1.034728e-07 9.576577e-08 8.799255e-08 8.016588e-08 7.228430e-08 6.436276e-08 5.639751e-08 4.840333e-08 4.037654e-08 3.233038e-08 2.426261e-08 1.618348e-08 8.093523e-09 
1.269554e-13 -8.048678e-09 -1.609467e-08 -2.412617e-08 -3.214912e-08 -4.014321e-08 -4.812218e-08 -5.605776e-08 -6.397024e-08 -7.182492e-08 -7.964714e-08 -8.739677e-08 -9.510238e-08 -1.027208e-07 -1.102812e-07 -1.177395e-07 -1.251228e-07 -1.323892e-07 -1.395605e-07 -1.466000e-07 -1.535209e-07 -1.602954e-07 -1.669242e-07 -1.733917e-07 -1.796828e-07 -1.857980e-07 -1.917026e-07 -1.974170e-07 -2.028831e-07 -2.081449e-07 -2.131176e-07 -2.178726e-07 -2.222944e-07 -2.264857e-07 -2.302974e-07 -2.338666e-07 -2.370082e-07 -2.398961e-07 -2.423074e-07 -2.444551e-07 -2.460762e-07 -2.474258e-07 -2.481997e-07 -2.486953e-07 -2.485680e-07 -2.481579e-07 -2.470801e-07 -2.457173e-07 -2.436459e-07 -2.412899e-07 -2.381895e-07 -2.348079e-07 -2.306524e-07 -2.262223e-07 -2.209964e-07 -2.155058e-07 -2.092060e-07 -2.026556e-07 -1.952921e-07 -1.876961e-07 -1.792943e-07 -1.706820e-07 -1.612824e-07 -1.516994e-07 -1.413594e-07 -1.308673e-07 -1.196613e-07 -1.083392e-07 -9.635900e-08 -8.430316e-08 -7.165741e-08 -5.898131e-08 -4.579536e-08 -3.262841e-08 -1.904312e-08 -5.530227e-09 8.298893e-09 2.199890e-08 3.590422e-08 4.962065e-08 6.342384e-08 7.697639e-08 9.049164e-08 1.036931e-07 1.167295e-07 1.293885e-07 1.417536e-07 1.536783e-07 1.651810e-07 1.761828e-07 1.866380e-07 1.965344e-07 2.057665e-07 2.143855e-07 2.222306e-07 2.294150e-07 2.357270e-07 2.413371e-07 2.459897e-07 2.499069e-07 2.527970e-07 2.549277e-07 2.559789e-07 2.562567e-07 2.554211e-07 2.538089e-07 2.510696e-07 2.475620e-07 2.429338e-07 2.375573e-07 2.310880e-07 2.239024e-07 2.156720e-07 2.067692e-07 1.968900e-07 1.863933e-07 1.750073e-07 1.630701e-07 1.503482e-07 1.371506e-07 1.232883e-07 1.090346e-07 9.424969e-08 7.916486e-08 6.369256e-08 4.801701e-08 3.210598e-08 1.609245e-08 -1.393276e-13 -1.609271e-08 -3.210612e-08 -4.801707e-08 -6.369260e-08 -7.916488e-08 -9.424977e-08 -1.090347e-07 -1.232884e-07 -1.371507e-07 -1.503482e-07 -1.630700e-07 -1.750073e-07 -1.863934e-07 -1.968899e-07 -2.067690e-07 -2.156719e-07 -2.239024e-07 -2.310880e-07 -2.375575e-07 -2.429339e-07 -2.475619e-07 -2.510696e-07 -2.538088e-07 -2.554210e-07 -2.562566e-07 -2.559790e-07 -2.549278e-07 -2.527972e-07 -2.499072e-07 -2.459899e-07 -2.413373e-07 -2.357274e-07 -2.294154e-07 -2.222310e-07 -2.143858e-07 -2.057666e-07 -1.965346e-07 -1.866382e-07 -1.761828e-07 -1.651811e-07 -1.536782e-07 -1.417534e-07 -1.293884e-07 -1.167295e-07 -1.036931e-07 -9.049166e-08 -7.697635e-08 -6.342381e-08 -4.962065e-08 -3.590414e-08 -2.199901e-08 -8.298997e-09 5.530240e-09 1.904317e-08 3.262840e-08 4.579528e-08 5.898126e-08 7.165745e-08 8.430324e-08 9.635906e-08 1.083393e-07 1.196614e-07 1.308673e-07 1.413595e-07 1.516994e-07 1.612825e-07 1.706821e-07 1.792942e-07 1.876961e-07 1.952921e-07 2.026554e-07 2.092059e-07 2.155058e-07 2.209963e-07 2.262223e-07 2.306525e-07 2.348080e-07 2.381895e-07 2.412899e-07 2.436459e-07 2.457173e-07 2.470801e-07 2.481579e-07 2.485680e-07 2.486953e-07 2.481996e-07 2.474257e-07 2.460763e-07 2.444551e-07 2.423074e-07 2.398964e-07 2.370084e-07 2.338668e-07 2.302976e-07 2.264859e-07 2.222947e-07 2.178728e-07 2.131178e-07 2.081452e-07 2.028833e-07 1.974171e-07 1.917026e-07 1.857980e-07 1.796828e-07 1.733917e-07 1.669241e-07 1.602954e-07 1.535211e-07 1.466002e-07 1.395604e-07 1.323891e-07 1.251227e-07 1.177395e-07 1.102811e-07 1.027209e-07 9.510245e-08 8.739681e-08 7.964706e-08 7.182483e-08 6.397023e-08 5.605772e-08 4.812223e-08 4.014332e-08 3.214931e-08 2.412652e-08 1.609488e-08 8.048827e-09 
9.995901e-14 -8.092278e-09 -1.618295e-08 -2.425488e-08 -3.232172e-08 -4.035117e-08 -4.837123e-08 -5.633516e-08 -6.428398e-08 -7.215811e-08 -8.001010e-08 -8.776841e-08 -9.549531e-08 -1.031100e-07 -1.106814e-07 -1.181217e-07 -1.255041e-07 -1.327369e-07 -1.398937e-07 -1.468824e-07 -1.537738e-07 -1.604791e-07 -1.670621e-07 -1.734409e-07 -1.796686e-07 -1.856748e-07 -1.914976e-07 -1.970820e-07 -2.024470e-07 -2.075575e-07 -2.124093e-07 -2.169916e-07 -2.212725e-07 -2.252700e-07 -2.289209e-07 -2.322758e-07 -2.352368e-07 -2.378910e-07 -2.401027e-07 -2.419986e-07 -2.434023e-07 -2.444836e-07 -2.450236e-07 -2.452368e-07 -2.448609e-07 -2.441567e-07 -2.428179e-07 -2.411523e-07 -2.388099e-07 -2.361456e-07 -2.327673e-07 -2.290756e-07 -2.246384e-07 -2.199001e-07 -2.143922e-07 -2.085996e-07 -2.020213e-07 -1.951792e-07 -1.875447e-07 -1.796717e-07 -1.710100e-07 -1.621398e-07 -1.524958e-07 -1.426779e-07 -1.321127e-07 -1.214130e-07 -1.100048e-07 -9.850601e-08 -8.635001e-08 -7.415170e-08 -6.135970e-08 -4.857810e-08 -3.527815e-08 -2.204502e-08 -8.380036e-09 5.158299e-09 1.903135e-08 3.271509e-08 4.662763e-08 6.028600e-08 7.405979e-08 8.751327e-08 1.009629e-07 1.140256e-07 1.269615e-07 1.394445e-07 1.516764e-07 1.633906e-07 1.747301e-07 1.854905e-07 1.957558e-07 2.053841e-07 2.144029e-07 2.227319e-07 2.303448e-07 2.372221e-07 2.432874e-07 2.485781e-07 2.529736e-07 2.565644e-07 2.591920e-07 2.609942e-07 2.617811e-07 2.617330e-07 2.606358e-07 2.587046e-07 2.557093e-07 2.518932e-07 2.470179e-07 2.413466e-07 2.346410e-07 2.271765e-07 2.187224e-07 2.095581e-07 1.994681e-07 1.887283e-07 1.771448e-07 1.649822e-07 1.520749e-07 1.386692e-07 1.246325e-07 1.101860e-07 9.523511e-08 7.997076e-08 6.433837e-08 4.849380e-08 3.242553e-08 1.625026e-08 -7.617564e-14 -1.625042e-08 -3.242560e-08 -4.849388e-08 -6.433844e-08 -7.997074e-08 -9.523516e-08 -1.101860e-07 -1.246325e-07 -1.386693e-07 -1.520749e-07 -1.649820e-07 -1.771447e-07 -1.887283e-07 -1.994681e-07 -2.095580e-07 -2.187223e-07 -2.271764e-07 -2.346410e-07 -2.413466e-07 -2.470179e-07 -2.518932e-07 -2.557092e-07 -2.587044e-07 -2.606356e-07 -2.617330e-07 -2.617813e-07 -2.609942e-07 -2.591920e-07 -2.565647e-07 -2.529738e-07 -2.485781e-07 -2.432876e-07 -2.372224e-07 -2.303452e-07 -2.227321e-07 -2.144031e-07 -2.053843e-07 -1.957559e-07 -1.854905e-07 -1.747301e-07 -1.633905e-07 -1.516762e-07 -1.394445e-07 -1.269616e-07 -1.140256e-07 -1.009629e-07 -8.751322e-08 -7.405970e-08 -6.028597e-08 -4.662765e-08 -3.271519e-08 -1.903143e-08 -5.158270e-09 8.380045e-09 2.204498e-08 3.527810e-08 4.857810e-08 6.135974e-08 7.415175e-08 8.635001e-08 9.850607e-08 1.100048e-07 1.214130e-07 1.321127e-07 1.426779e-07 1.524958e-07 1.621398e-07 1.710099e-07 1.796716e-07 1.875446e-07 1.951790e-07 2.020212e-07 2.085996e-07 2.143921e-07 2.199001e-07 2.246384e-07 2.290756e-07 2.327673e-07 2.361456e-07 2.388099e-07 2.411522e-07 2.428179e-07 2.441567e-07 2.448609e-07 2.452367e-07 2.450235e-07 2.444835e-07 2.434023e-07 2.419986e-07 2.401028e-07 2.378912e-07 2.352370e-07 2.322759e-07 2.289210e-07 2.252702e-07 2.212728e-07 2.169918e-07 2.124095e-07 2.075578e-07 2.024471e-07 1.970821e-07 1.914976e-07 1.856747e-07 1.796686e-07 1.734408e-07 1.670620e-07 1.604791e-07 1.537740e-07 1.468825e-07 1.398936e-07 1.327367e-07 1.255040e-07 1.181216e-07 1.106813e-07 1.031100e-07 9.549539e-08 8.776842e-08 8.000998e-08 7.215798e-08 6.428396e-08 5.633508e-08 4.837123e-08 4.035124e-08 3.232187e-08 2.425518e-08 1.618313e-08 8.092369e-09 