# vtk DataFile Version 2.0
Comment goes here
ASCII

DATASET STRUCTURED_POINTS
FIELD FieldData 1
TIME 1 1 double
0.09000000
DIMENSIONS    256   256   1

ORIGIN    0.000   0.000   0.000
SPACING   0.0039062 0.0039062   1.000

POINT_DATA   65536
SCALARS Omega double
LOOKUP_TABLE default

1.130710e-13 1.685725e-07 3.369620e-07 5.049527e-07 6.723933e-07 8.390337e-07 1.004753e-06 1.169264e-06 1.332477e-06 1.494065e-06 1.653971e-06 1.811823e-06 1.967599e-06 2.120878e-06 2.271677e-06 2.419524e-06 2.564474e-06 2.705999e-06 2.844201e-06 2.978490e-06 3.109019e-06 3.235134e-06 3.357041e-06 3.474021e-06 3.586340e-06 3.693210e-06 3.794961e-06 3.890735e-06 3.980934e-06 4.064627e-06 4.142295e-06 4.212935e-06 4.277110e-06 4.333748e-06 4.383499e-06 4.425227e-06 4.459669e-06 4.485631e-06 4.503944e-06 4.513359e-06 4.514802e-06 4.506980e-06 4.490914e-06 4.465275e-06 4.431180e-06 4.387276e-06 4.334771e-06 4.272302e-06 4.201167e-06 4.120003e-06 4.030194e-06 3.930394e-06 3.822062e-06 3.703887e-06 3.577394e-06 3.441324e-06 3.297257e-06 3.144000e-06 2.983179e-06 2.813683e-06 2.637168e-06 2.452624e-06 2.261721e-06 2.063562e-06 1.859818e-06 1.649719e-06 1.434919e-06 1.214786e-06 9.909396e-07 7.628970e-07 5.322256e-07 2.985978e-07 6.351140e-08 -1.732002e-07 -4.101269e-07 -6.472730e-07 -8.833321e-07 -1.118147e-06 -1.350531e-06 -1.580170e-06 -1.806012e-06 -2.027591e-06 -2.244004e-06 -2.454645e-06 -2.658768e-06 -2.855641e-06 -3.044686e-06 -3.225058e-06 -3.396356e-06 -3.557639e-06 -3.708684e-06 -3.848480e-06 -3.976982e-06 -4.093126e-06 -4.197051e-06 -4.287659e-06 -4.365266e-06 -4.428771e-06 -4.478657e-06 -4.513842e-06 -4.534970e-06 -4.540998e-06 -4.532724e-06 -4.509166e-06 -4.471258e-06 -4.418102e-06 -4.350755e-06 -4.268422e-06 -4.172263e-06 -4.061606e-06 -3.937693e-06 -3.799991e-06 -3.649803e-06 -3.486746e-06 -3.312167e-06 -3.125840e-06 -2.929130e-06 -2.721978e-06 -2.505747e-06 -2.280545e-06 -2.047709e-06 -1.807518e-06 -1.561259e-06 -1.309376e-06 -1.053089e-06 -7.930020e-07 -5.302435e-07 -2.655694e-07 -1.581069e-13 2.655691e-07 5.302433e-07 7.930019e-07 1.053089e-06 1.309376e-06 1.561259e-06 1.807518e-06 2.047710e-06 2.280546e-06 2.505747e-06 2.721979e-06 2.929130e-06 3.125840e-06 3.312167e-06 3.486747e-06 3.649803e-06 3.799991e-06 3.937693e-06 4.061606e-06 4.172263e-06 4.268423e-06 4.350755e-06 4.418102e-06 4.471258e-06 4.509166e-06 4.532724e-06 4.540998e-06 4.534970e-06 4.513841e-06 4.478657e-06 4.428770e-06 4.365266e-06 4.287658e-06 4.197050e-06 4.093126e-06 3.976982e-06 3.848479e-06 3.708684e-06 3.557638e-06 3.396355e-06 3.225058e-06 3.044686e-06 2.855641e-06 2.658768e-06 2.454644e-06 2.244004e-06 2.027591e-06 1.806012e-06 1.580170e-06 1.350531e-06 1.118147e-06 8.833322e-07 6.472730e-07 4.101271e-07 1.732004e-07 -6.351137e-08 -2.985977e-07 -5.322254e-07 -7.628968e-07 -9.909394e-07 -1.214786e-06 -1.434919e-06 -1.649719e-06 -1.859818e-06 -2.063562e-06 -2.261721e-06 -2.452624e-06 -2.637168e-06 -2.813683e-06 -2.983179e-06 -3.144000e-06 -3.297257e-06 -3.441324e-06 -3.577394e-06 -3.703887e-06 -3.822062e-06 -3.930394e-06 -4.030194e-06 -4.120003e-06 -4.201167e-06 -4.272302e-06 -4.334771e-06 -4.387276e-06 -4.431180e-06 -4.465275e-06 -4.490914e-06 -4.506980e-06 -4.514802e-06 -4.513359e-06 -4.503943e-06 -4.485631e-06 -4.459668e-06 -4.425226e-06 -4.383498e-06 -4.333748e-06 -4.277109e-06 -4.212934e-06 -4.142294e-06 -4.064627e-06 -3.980933e-06 -3.890735e-06 -3.794961e-06 -3.693210e-06 -3.586341e-06 -3.474021e-06 -3.357041e-06 -3.235134e-06 -3.109019e-06 -2.978490e-06 -2.844201e-06 -2.705999e-06 -2.564474e-06 -2.419524e-06 -2.271678e-06 -2.120879e-06 -1.967599e-06 -1.811823e-06 -1.653971e-06 -1.494066e-06 -1.332478e-06 -1.169264e-06 -1.004753e-06 -8.390337e-07 -6.723935e-07 -5.049528e-07 -3.369619e-07 -1.685723e-07 
1.161583e-13 1.686682e-07 3.371555e-07 5.052331e-07 6.727676e-07 8.394798e-07 1.005282e-06 1.169844e-06 1.333125e-06 1.494736e-06 1.654687e-06 1.812530e-06 1.968323e-06 2.121556e-06 2.272340e-06 2.420097e-06 2.564996e-06 2.706386e-06 2.844497e-06 2.978602e-06 3.108997e-06 3.234876e-06 3.356605e-06 3.473296e-06 3.585392e-06 3.691920e-06 3.793402e-06 3.888782e-06 3.978668e-06 4.061918e-06 4.139231e-06 4.209382e-06 4.273163e-06 4.329272e-06 4.378595e-06 4.419757e-06 4.453745e-06 4.479113e-06 4.496951e-06 4.505753e-06 4.506708e-06 4.498264e-06 4.481707e-06 4.455447e-06 4.420867e-06 4.376355e-06 4.323384e-06 4.260333e-06 4.188759e-06 4.107052e-06 4.016844e-06 3.916553e-06 3.807874e-06 3.689273e-06 3.562497e-06 3.426077e-06 3.281801e-06 3.128284e-06 2.967338e-06 2.797683e-06 2.621136e-06 2.436543e-06 2.245708e-06 2.047619e-06 1.844050e-06 1.634144e-06 1.419629e-06 1.199817e-06 9.763671e-07 7.487744e-07 5.186102e-07 2.855594e-07 5.108760e-08 -1.849246e-07 -4.211353e-07 -6.574671e-07 -8.927177e-07 -1.126614e-06 -1.358108e-06 -1.586737e-06 -1.811622e-06 -2.032116e-06 -2.247521e-06 -2.457019e-06 -2.660103e-06 -2.855796e-06 -3.043789e-06 -3.222968e-06 -3.393221e-06 -3.553320e-06 -3.703353e-06 -3.841997e-06 -3.969539e-06 -4.084590e-06 -4.187629e-06 -4.277225e-06 -4.354044e-06 -4.416639e-06 -4.465854e-06 -4.500253e-06 -4.520843e-06 -4.526229e-06 -4.517566e-06 -4.493524e-06 -4.455387e-06 -4.401919e-06 -4.334512e-06 -4.252046e-06 -4.156002e-06 -4.045395e-06 -3.921772e-06 -3.784303e-06 -3.634576e-06 -3.471933e-06 -3.297977e-06 -3.112234e-06 -2.916298e-06 -2.709890e-06 -2.494567e-06 -2.270250e-06 -2.038439e-06 -1.799253e-06 -1.554111e-06 -1.303332e-06 -1.048229e-06 -7.893183e-07 -5.277850e-07 -2.643320e-07 -8.092721e-14 2.643318e-07 5.277847e-07 7.893183e-07 1.048229e-06 1.303332e-06 1.554111e-06 1.799253e-06 2.038439e-06 2.270250e-06 2.494568e-06 2.709890e-06 2.916299e-06 3.112234e-06 3.297977e-06 3.471933e-06 3.634576e-06 3.784303e-06 3.921772e-06 4.045395e-06 4.156002e-06 4.252046e-06 4.334512e-06 4.401919e-06 4.455387e-06 4.493524e-06 4.517566e-06 4.526229e-06 4.520843e-06 4.500252e-06 4.465853e-06 4.416638e-06 4.354043e-06 4.277224e-06 4.187628e-06 4.084589e-06 3.969539e-06 3.841996e-06 3.703352e-06 3.553320e-06 3.393221e-06 3.222968e-06 3.043789e-06 2.855796e-06 2.660103e-06 2.457019e-06 2.247521e-06 2.032116e-06 1.811622e-06 1.586737e-06 1.358108e-06 1.126614e-06 8.927177e-07 6.574671e-07 4.211355e-07 1.849248e-07 -5.108756e-08 -2.855592e-07 -5.186101e-07 -7.487742e-07 -9.763670e-07 -1.199817e-06 -1.419629e-06 -1.634144e-06 -1.844050e-06 -2.047619e-06 -2.245708e-06 -2.436543e-06 -2.621136e-06 -2.797683e-06 -2.967338e-06 -3.128285e-06 -3.281801e-06 -3.426077e-06 -3.562497e-06 -3.689273e-06 -3.807874e-06 -3.916553e-06 -4.016844e-06 -4.107052e-06 -4.188759e-06 -4.260333e-06 -4.323383e-06 -4.376355e-06 -4.420867e-06 -4.455447e-06 -4.481707e-06 -4.498264e-06 -4.506708e-06 -4.505752e-06 -4.496950e-06 -4.479113e-06 -4.453744e-06 -4.419756e-06 -4.378594e-06 -4.329271e-06 -4.273162e-06 -4.209381e-06 -4.139230e-06 -4.061918e-06 -3.978667e-06 -3.888782e-06 -3.793402e-06 -3.691920e-06 -3.585392e-06 -3.473297e-06 -3.356605e-06 -3.234876e-06 -3.108997e-06 -2.978602e-06 -2.844497e-06 -2.706386e-06 -2.564997e-06 -2.420098e-06 -2.272340e-06 -2.121556e-06 -1.968323e-06 -1.812530e-06 -1.654687e-06 -1.494736e-06 -1.333125e-06 -1.169844e-06 -1.005283e-06 -8.394798e-07 -6.727677e-07 -5.052331e-07 -3.371553e-07 -1.686680e-07 
5.254793e-14 1.690150e-07 3.378512e-07 5.062675e-07 6.741465e-07 8.411828e-07 1.007319e-06 1.172184e-06 1.335783e-06 1.497671e-06 1.657917e-06 1.816004e-06 1.972065e-06 2.125504e-06 2.276523e-06 2.424445e-06 2.569541e-06 2.711048e-06 2.849314e-06 2.983486e-06 3.113991e-06 3.239884e-06 3.361675e-06 3.478324e-06 3.590432e-06 3.696860e-06 3.798304e-06 3.893526e-06 3.983322e-06 4.066358e-06 4.143531e-06 4.213412e-06 4.277004e-06 4.332789e-06 4.381878e-06 4.422668e-06 4.456378e-06 4.481331e-06 4.498853e-06 4.507202e-06 4.507811e-06 4.498883e-06 4.481954e-06 4.455189e-06 4.420219e-06 4.375189e-06 4.321818e-06 4.258245e-06 4.186272e-06 4.104051e-06 4.013452e-06 3.912664e-06 3.803612e-06 3.684544e-06 3.557422e-06 3.420575e-06 3.275990e-06 3.122097e-06 2.960886e-06 2.790915e-06 2.614158e-06 2.429317e-06 2.238333e-06 2.040074e-06 1.836422e-06 1.626430e-06 1.411903e-06 1.192092e-06 9.687058e-07 7.412058e-07 5.111803e-07 2.783142e-07 4.405645e-08 -1.916800e-07 -4.276042e-07 -6.635725e-07 -8.984681e-07 -1.131918e-06 -1.362996e-06 -1.591105e-06 -1.815519e-06 -2.035428e-06 -2.250319e-06 -2.459179e-06 -2.661715e-06 -2.856730e-06 -3.044155e-06 -3.222631e-06 -3.392310e-06 -3.551695e-06 -3.701161e-06 -3.839097e-06 -3.966096e-06 -4.080460e-06 -4.182993e-06 -4.271940e-06 -4.348303e-06 -4.410304e-06 -4.459126e-06 -4.492999e-06 -4.513271e-06 -4.518212e-06 -4.509316e-06 -4.484921e-06 -4.446645e-06 -4.392925e-06 -4.325478e-06 -4.242867e-06 -4.146885e-06 -4.036245e-06 -3.912787e-06 -3.775397e-06 -3.625936e-06 -3.463483e-06 -3.289890e-06 -3.104443e-06 -2.908959e-06 -2.702945e-06 -2.488154e-06 -2.264321e-06 -2.033108e-06 -1.794484e-06 -1.549994e-06 -1.299839e-06 -1.045427e-06 -7.871878e-07 -5.263663e-07 -2.636158e-07 3.647939e-14 2.636157e-07 5.263661e-07 7.871878e-07 1.045427e-06 1.299839e-06 1.549994e-06 1.794484e-06 2.033109e-06 2.264322e-06 2.488155e-06 2.702946e-06 2.908960e-06 3.104444e-06 3.289890e-06 3.463484e-06 3.625937e-06 3.775398e-06 3.912787e-06 4.036245e-06 4.146885e-06 4.242868e-06 4.325478e-06 4.392925e-06 4.446645e-06 4.484921e-06 4.509316e-06 4.518212e-06 4.513271e-06 4.492998e-06 4.459125e-06 4.410303e-06 4.348302e-06 4.271940e-06 4.182992e-06 4.080460e-06 3.966095e-06 3.839097e-06 3.701161e-06 3.551695e-06 3.392310e-06 3.222630e-06 3.044155e-06 2.856730e-06 2.661715e-06 2.459179e-06 2.250319e-06 2.035428e-06 1.815519e-06 1.591105e-06 1.362996e-06 1.131919e-06 8.984683e-07 6.635724e-07 4.276043e-07 1.916802e-07 -4.405635e-08 -2.783141e-07 -5.111802e-07 -7.412056e-07 -9.687056e-07 -1.192092e-06 -1.411903e-06 -1.626430e-06 -1.836422e-06 -2.040074e-06 -2.238333e-06 -2.429318e-06 -2.614158e-06 -2.790915e-06 -2.960886e-06 -3.122097e-06 -3.275990e-06 -3.420575e-06 -3.557422e-06 -3.684544e-06 -3.803612e-06 -3.912664e-06 -4.013452e-06 -4.104051e-06 -4.186272e-06 -4.258246e-06 -4.321818e-06 -4.375189e-06 -4.420219e-06 -4.455189e-06 -4.481954e-06 -4.498883e-06 -4.507811e-06 -4.507202e-06 -4.498853e-06 -4.481330e-06 -4.456377e-06 -4.422667e-06 -4.381877e-06 -4.332788e-06 -4.277003e-06 -4.213411e-06 -4.143530e-06 -4.066358e-06 -3.983322e-06 -3.893526e-06 -3.798304e-06 -3.696860e-06 -3.590432e-06 -3.478324e-06 -3.361675e-06 -3.239884e-06 -3.113991e-06 -2.983486e-06 -2.849314e-06 -2.711048e-06 -2.569541e-06 -2.424445e-06 -2.276523e-06 -2.125505e-06 -1.972065e-06 -1.816004e-06 -1.657917e-06 -1.497671e-06 -1.335783e-06 -1.172185e-06 -1.007320e-06 -8.411830e-07 -6.741467e-07 -5.062676e-07 -3.378512e-07 -1.690149e-07 
1.364438e-13 1.692115e-07 3.382467e-07 5.068519e-07 6.749272e-07 8.421399e-07 1.008465e-06 1.173489e-06 1.337264e-06 1.499289e-06 1.659694e-06 1.817891e-06 1.974090e-06 2.127609e-06 2.278741e-06 2.426707e-06 2.571888e-06 2.713402e-06 2.851722e-06 2.985861e-06 3.116386e-06 3.242204e-06 3.363980e-06 3.480511e-06 3.592569e-06 3.698836e-06 3.800194e-06 3.895212e-06 3.984888e-06 4.067679e-06 4.144698e-06 4.214296e-06 4.277705e-06 4.333174e-06 4.382053e-06 4.422497e-06 4.455976e-06 4.480561e-06 4.497837e-06 4.505802e-06 4.506155e-06 4.496835e-06 4.479648e-06 4.452493e-06 4.417272e-06 4.371863e-06 4.318256e-06 4.254327e-06 4.182141e-06 4.099596e-06 4.008818e-06 3.907750e-06 3.798563e-06 3.679268e-06 3.552063e-06 3.415055e-06 3.270447e-06 3.116467e-06 2.955304e-06 2.785330e-06 2.608695e-06 2.423944e-06 2.233163e-06 2.035090e-06 1.831727e-06 1.622024e-06 1.407874e-06 1.188458e-06 9.655353e-07 7.385340e-07 5.090589e-07 2.767940e-07 4.316867e-08 -1.918694e-07 -4.270855e-07 -6.622656e-07 -8.963867e-07 -1.128969e-06 -1.359217e-06 -1.586391e-06 -1.809933e-06 -2.028855e-06 -2.242847e-06 -2.450686e-06 -2.652314e-06 -2.846294e-06 -3.032819e-06 -3.210264e-06 -3.379073e-06 -3.537455e-06 -3.686100e-06 -3.823082e-06 -3.949329e-06 -4.062812e-06 -4.164682e-06 -4.252842e-06 -4.328651e-06 -4.389978e-06 -4.438374e-06 -4.471706e-06 -4.491695e-06 -4.496246e-06 -4.487221e-06 -4.462600e-06 -4.424361e-06 -4.370590e-06 -4.303353e-06 -4.220874e-06 -4.125278e-06 -4.014955e-06 -3.892059e-06 -3.755171e-06 -3.606443e-06 -3.444671e-06 -3.271973e-06 -3.087378e-06 -2.892940e-06 -2.687935e-06 -2.474323e-06 -2.251639e-06 -2.021720e-06 -1.784365e-06 -1.541260e-06 -1.292473e-06 -1.039511e-06 -7.827116e-07 -5.233801e-07 -2.621143e-07 -6.250878e-14 2.621140e-07 5.233799e-07 7.827116e-07 1.039511e-06 1.292473e-06 1.541260e-06 1.784365e-06 2.021720e-06 2.251640e-06 2.474323e-06 2.687935e-06 2.892940e-06 3.087378e-06 3.271973e-06 3.444671e-06 3.606443e-06 3.755171e-06 3.892059e-06 4.014955e-06 4.125279e-06 4.220874e-06 4.303353e-06 4.370590e-06 4.424361e-06 4.462600e-06 4.487221e-06 4.496245e-06 4.491694e-06 4.471706e-06 4.438373e-06 4.389978e-06 4.328650e-06 4.252841e-06 4.164681e-06 4.062811e-06 3.949329e-06 3.823081e-06 3.686099e-06 3.537454e-06 3.379073e-06 3.210264e-06 3.032819e-06 2.846294e-06 2.652314e-06 2.450686e-06 2.242847e-06 2.028855e-06 1.809933e-06 1.586391e-06 1.359217e-06 1.128969e-06 8.963866e-07 6.622655e-07 4.270858e-07 1.918695e-07 -4.316857e-08 -2.767939e-07 -5.090589e-07 -7.385338e-07 -9.655351e-07 -1.188458e-06 -1.407874e-06 -1.622024e-06 -1.831727e-06 -2.035090e-06 -2.233163e-06 -2.423944e-06 -2.608695e-06 -2.785330e-06 -2.955304e-06 -3.116468e-06 -3.270447e-06 -3.415055e-06 -3.552063e-06 -3.679268e-06 -3.798563e-06 -3.907750e-06 -4.008818e-06 -4.099596e-06 -4.182141e-06 -4.254327e-06 -4.318256e-06 -4.371863e-06 -4.417272e-06 -4.452493e-06 -4.479648e-06 -4.496835e-06 -4.506154e-06 -4.505801e-06 -4.497836e-06 -4.480561e-06 -4.455976e-06 -4.422497e-06 -4.382052e-06 -4.333173e-06 -4.277704e-06 -4.214296e-06 -4.144697e-06 -4.067678e-06 -3.984887e-06 -3.895212e-06 -3.800193e-06 -3.698836e-06 -3.592569e-06 -3.480511e-06 -3.363981e-06 -3.242204e-06 -3.116387e-06 -2.985861e-06 -2.851722e-06 -2.713403e-06 -2.571888e-06 -2.426707e-06 -2.278741e-06 -2.127609e-06 -1.974090e-06 -1.817891e-06 -1.659694e-06 -1.499289e-06 -1.337264e-06 -1.173489e-06 -1.008466e-06 -8.421399e-07 -6.749273e-07 -5.068519e-07 -3.382465e-07 -1.692113e-07 
1.763306e-13 1.696571e-07 3.391398e-07 5.081834e-07 6.767036e-07 8.443428e-07 1.011105e-06 1.176539e-06 1.340738e-06 1.503152e-06 1.663965e-06 1.822524e-06 1.979110e-06 2.132961e-06 2.284455e-06 2.432719e-06 2.578232e-06 2.720007e-06 2.858627e-06 2.992985e-06 3.123775e-06 3.249768e-06 3.371772e-06 3.488433e-06 3.600679e-06 3.707028e-06 3.808534e-06 3.903588e-06 3.993370e-06 4.076149e-06 4.153233e-06 4.222773e-06 4.286208e-06 4.341572e-06 4.390439e-06 4.430738e-06 4.464170e-06 4.488570e-06 4.505767e-06 4.513514e-06 4.513759e-06 4.504194e-06 4.486877e-06 4.459454e-06 4.424085e-06 4.378394e-06 4.324627e-06 4.260408e-06 4.188058e-06 4.105225e-06 4.014285e-06 3.912938e-06 3.803598e-06 3.684042e-06 3.556700e-06 3.419458e-06 3.274736e-06 3.120557e-06 2.959308e-06 2.789177e-06 2.612492e-06 2.427634e-06 2.236843e-06 2.038719e-06 1.835389e-06 1.625695e-06 1.411625e-06 1.192281e-06 9.694874e-07 7.426234e-07 5.133261e-07 2.812638e-07 4.786354e-08 -1.869081e-07 -4.218548e-07 -6.567081e-07 -8.905197e-07 -1.122721e-06 -1.352625e-06 -1.579369e-06 -1.802541e-06 -2.020995e-06 -2.234599e-06 -2.441941e-06 -2.643173e-06 -2.836638e-06 -3.022772e-06 -3.199697e-06 -3.368129e-06 -3.526000e-06 -3.674294e-06 -3.810788e-06 -3.936723e-06 -4.049754e-06 -4.151362e-06 -4.239120e-06 -4.314730e-06 -4.375718e-06 -4.423986e-06 -4.457054e-06 -4.476996e-06 -4.481369e-06 -4.472387e-06 -4.447681e-06 -4.409580e-06 -4.355826e-06 -4.288825e-06 -4.206469e-06 -4.111210e-06 -4.001118e-06 -3.878658e-06 -3.742110e-06 -3.593914e-06 -3.432589e-06 -3.260515e-06 -3.076467e-06 -2.882736e-06 -2.678373e-06 -2.465542e-06 -2.243585e-06 -2.014509e-06 -1.777954e-06 -1.535740e-06 -1.287813e-06 -1.035778e-06 -7.798832e-07 -5.214973e-07 -2.611662e-07 -1.809031e-13 2.611658e-07 5.214970e-07 7.798832e-07 1.035778e-06 1.287813e-06 1.535740e-06 1.777954e-06 2.014509e-06 2.243585e-06 2.465543e-06 2.678374e-06 2.882736e-06 3.076468e-06 3.260515e-06 3.432589e-06 3.593915e-06 3.742110e-06 3.878658e-06 4.001118e-06 4.111210e-06 4.206469e-06 4.288825e-06 4.355826e-06 4.409580e-06 4.447681e-06 4.472386e-06 4.481368e-06 4.476996e-06 4.457054e-06 4.423985e-06 4.375717e-06 4.314729e-06 4.239119e-06 4.151361e-06 4.049753e-06 3.936722e-06 3.810787e-06 3.674293e-06 3.525999e-06 3.368128e-06 3.199697e-06 3.022772e-06 2.836639e-06 2.643173e-06 2.441941e-06 2.234599e-06 2.020995e-06 1.802541e-06 1.579369e-06 1.352625e-06 1.122721e-06 8.905197e-07 6.567081e-07 4.218549e-07 1.869083e-07 -4.786345e-08 -2.812637e-07 -5.133260e-07 -7.426231e-07 -9.694873e-07 -1.192281e-06 -1.411625e-06 -1.625695e-06 -1.835389e-06 -2.038719e-06 -2.236843e-06 -2.427634e-06 -2.612493e-06 -2.789178e-06 -2.959308e-06 -3.120557e-06 -3.274736e-06 -3.419458e-06 -3.556700e-06 -3.684042e-06 -3.803598e-06 -3.912938e-06 -4.014285e-06 -4.105225e-06 -4.188058e-06 -4.260408e-06 -4.324627e-06 -4.378393e-06 -4.424085e-06 -4.459454e-06 -4.486877e-06 -4.504194e-06 -4.513759e-06 -4.513513e-06 -4.505766e-06 -4.488570e-06 -4.464169e-06 -4.430737e-06 -4.390439e-06 -4.341571e-06 -4.286207e-06 -4.222772e-06 -4.153233e-06 -4.076148e-06 -3.993370e-06 -3.903587e-06 -3.808534e-06 -3.707028e-06 -3.600679e-06 -3.488433e-06 -3.371772e-06 -3.249768e-06 -3.123775e-06 -2.992985e-06 -2.858627e-06 -2.720007e-06 -2.578232e-06 -2.432719e-06 -2.284455e-06 -2.132961e-06 -1.979110e-06 -1.822524e-06 -1.663965e-06 -1.503152e-06 -1.340738e-06 -1.176539e-06 -1.011106e-06 -8.443427e-07 -6.767036e-07 -5.081834e-07 -3.391396e-07 -1.696568e-07 
1.128350e-13 1.699535e-07 3.397352e-07 5.090689e-07 6.778869e-07 8.458061e-07 1.012862e-06 1.178562e-06 1.343046e-06 1.505708e-06 1.666795e-06 1.825583e-06 1.982427e-06 2.136483e-06 2.288217e-06 2.436660e-06 2.582394e-06 2.724318e-06 2.863137e-06 2.997613e-06 3.128579e-06 3.254658e-06 3.376812e-06 3.493525e-06 3.605896e-06 3.712265e-06 3.813869e-06 3.908909e-06 3.998765e-06 4.081499e-06 4.158634e-06 4.228099e-06 4.291563e-06 4.346827e-06 4.395705e-06 4.435880e-06 4.469307e-06 4.493567e-06 4.510749e-06 4.518343e-06 4.518568e-06 4.508845e-06 4.491508e-06 4.463929e-06 4.428547e-06 4.382709e-06 4.328943e-06 4.264596e-06 4.192267e-06 4.109332e-06 4.018442e-06 3.917028e-06 3.807772e-06 3.688195e-06 3.560978e-06 3.423768e-06 3.279219e-06 3.125133e-06 2.964112e-06 2.794142e-06 2.617743e-06 2.433119e-06 2.242677e-06 2.044865e-06 1.841949e-06 1.632649e-06 1.419058e-06 1.200190e-06 9.779398e-07 7.516336e-07 5.229412e-07 2.915150e-07 5.877625e-08 -1.752865e-07 -4.095219e-07 -6.436015e-07 -8.766611e-07 -1.108033e-06 -1.337156e-06 -1.563029e-06 -1.785403e-06 -2.002959e-06 -2.215762e-06 -2.422194e-06 -2.622640e-06 -2.815202e-06 -3.000581e-06 -3.176629e-06 -3.344356e-06 -3.501396e-06 -3.649054e-06 -3.784785e-06 -3.910172e-06 -4.022527e-06 -4.123693e-06 -4.210883e-06 -4.286173e-06 -4.346721e-06 -4.394808e-06 -4.427580e-06 -4.447495e-06 -4.451731e-06 -4.442886e-06 -4.418216e-06 -4.380425e-06 -4.326888e-06 -4.260377e-06 -4.178425e-06 -4.083836e-06 -3.974338e-06 -3.852727e-06 -3.716961e-06 -3.569788e-06 -3.409427e-06 -3.238539e-06 -3.055629e-06 -2.863235e-06 -2.660168e-06 -2.448808e-06 -2.228289e-06 -2.000797e-06 -1.765801e-06 -1.525264e-06 -1.278993e-06 -1.028700e-06 -7.745349e-07 -5.179304e-07 -2.593739e-07 -1.023991e-14 2.593737e-07 5.179300e-07 7.745348e-07 1.028700e-06 1.278993e-06 1.525264e-06 1.765801e-06 2.000797e-06 2.228289e-06 2.448809e-06 2.660168e-06 2.863236e-06 3.055629e-06 3.238540e-06 3.409427e-06 3.569789e-06 3.716961e-06 3.852727e-06 3.974338e-06 4.083836e-06 4.178425e-06 4.260377e-06 4.326888e-06 4.380425e-06 4.418216e-06 4.442886e-06 4.451730e-06 4.447495e-06 4.427580e-06 4.394808e-06 4.346720e-06 4.286172e-06 4.210882e-06 4.123692e-06 4.022526e-06 3.910171e-06 3.784785e-06 3.649054e-06 3.501396e-06 3.344356e-06 3.176629e-06 3.000581e-06 2.815202e-06 2.622640e-06 2.422194e-06 2.215762e-06 2.002959e-06 1.785404e-06 1.563030e-06 1.337156e-06 1.108033e-06 8.766612e-07 6.436015e-07 4.095221e-07 1.752867e-07 -5.877614e-08 -2.915149e-07 -5.229411e-07 -7.516334e-07 -9.779397e-07 -1.200190e-06 -1.419058e-06 -1.632649e-06 -1.841949e-06 -2.044865e-06 -2.242677e-06 -2.433119e-06 -2.617743e-06 -2.794142e-06 -2.964112e-06 -3.125133e-06 -3.279219e-06 -3.423768e-06 -3.560978e-06 -3.688195e-06 -3.807772e-06 -3.917028e-06 -4.018442e-06 -4.109332e-06 -4.192267e-06 -4.264596e-06 -4.328943e-06 -4.382709e-06 -4.428547e-06 -4.463929e-06 -4.491508e-06 -4.508845e-06 -4.518568e-06 -4.518343e-06 -4.510748e-06 -4.493566e-06 -4.469307e-06 -4.435879e-06 -4.395704e-06 -4.346826e-06 -4.291562e-06 -4.228098e-06 -4.158634e-06 -4.081498e-06 -3.998765e-06 -3.908909e-06 -3.813869e-06 -3.712265e-06 -3.605896e-06 -3.493526e-06 -3.376812e-06 -3.254658e-06 -3.128579e-06 -2.997613e-06 -2.863137e-06 -2.724318e-06 -2.582395e-06 -2.436660e-06 -2.288218e-06 -2.136483e-06 -1.982427e-06 -1.825583e-06 -1.666795e-06 -1.505709e-06 -1.343046e-06 -1.178562e-06 -1.012862e-06 -8.458062e-07 -6.778871e-07 -5.090690e-07 -3.397351e-07 -1.699533e-07 
9.732388e-14 1.704977e-07 3.408260e-07 5.106982e-07 6.800616e-07 8.485101e-07 1.016107e-06 1.182323e-06 1.347340e-06 1.510503e-06 1.672111e-06 1.831380e-06 1.988731e-06 2.143245e-06 2.295470e-06 2.444345e-06 2.590549e-06 2.732877e-06 2.872143e-06 3.006993e-06 3.138381e-06 3.264800e-06 3.387349e-06 3.504368e-06 3.617105e-06 3.723742e-06 3.825684e-06 3.920955e-06 4.011118e-06 4.094045e-06 4.171457e-06 4.241078e-06 4.304788e-06 4.360171e-06 4.409266e-06 4.449525e-06 4.483142e-06 4.507453e-06 4.524798e-06 4.532415e-06 4.532780e-06 4.523054e-06 4.505836e-06 4.478233e-06 4.442954e-06 4.397075e-06 4.343399e-06 4.279001e-06 4.206753e-06 4.123763e-06 4.032949e-06 3.931483e-06 3.822303e-06 3.702680e-06 3.575545e-06 3.438303e-06 3.293846e-06 3.139747e-06 2.978830e-06 2.808873e-06 2.632595e-06 2.448015e-06 2.257713e-06 2.059978e-06 1.857224e-06 1.648038e-06 1.434631e-06 1.215916e-06 9.938725e-07 7.677588e-07 5.392942e-07 3.080990e-07 7.560713e-08 -1.581884e-07 -3.921613e-07 -6.259413e-07 -8.587276e-07 -1.089773e-06 -1.318617e-06 -1.544143e-06 -1.766241e-06 -1.983436e-06 -2.195973e-06 -2.402042e-06 -2.602239e-06 -2.794444e-06 -2.979603e-06 -3.155312e-06 -3.322856e-06 -3.479586e-06 -3.627108e-06 -3.762569e-06 -3.887876e-06 -4.000014e-06 -4.101167e-06 -4.188204e-06 -4.263556e-06 -4.324023e-06 -4.372255e-06 -4.405031e-06 -4.425179e-06 -4.429510e-06 -4.420993e-06 -4.396517e-06 -4.359153e-06 -4.305912e-06 -4.239927e-06 -4.158379e-06 -4.064415e-06 -3.955428e-06 -3.834540e-06 -3.699391e-06 -3.553035e-06 -3.393394e-06 -3.223409e-06 -3.041317e-06 -2.849906e-06 -2.647747e-06 -2.437439e-06 -2.217909e-06 -1.991526e-06 -1.757589e-06 -1.518207e-06 -1.273053e-06 -1.023945e-06 -7.709401e-07 -5.155375e-07 -2.581704e-07 -3.280513e-14 2.581703e-07 5.155373e-07 7.709402e-07 1.023945e-06 1.273053e-06 1.518207e-06 1.757590e-06 1.991527e-06 2.217909e-06 2.437439e-06 2.647747e-06 2.849906e-06 3.041318e-06 3.223410e-06 3.393394e-06 3.553035e-06 3.699392e-06 3.834540e-06 3.955428e-06 4.064415e-06 4.158379e-06 4.239927e-06 4.305912e-06 4.359153e-06 4.396517e-06 4.420993e-06 4.429510e-06 4.425179e-06 4.405031e-06 4.372254e-06 4.324023e-06 4.263555e-06 4.188203e-06 4.101166e-06 4.000014e-06 3.887876e-06 3.762568e-06 3.627107e-06 3.479586e-06 3.322855e-06 3.155312e-06 2.979603e-06 2.794444e-06 2.602239e-06 2.402042e-06 2.195973e-06 1.983436e-06 1.766241e-06 1.544144e-06 1.318617e-06 1.089773e-06 8.587277e-07 6.259413e-07 3.921615e-07 1.581886e-07 -7.560702e-08 -3.080989e-07 -5.392941e-07 -7.677586e-07 -9.938724e-07 -1.215916e-06 -1.434631e-06 -1.648038e-06 -1.857224e-06 -2.059978e-06 -2.257713e-06 -2.448015e-06 -2.632596e-06 -2.808874e-06 -2.978830e-06 -3.139748e-06 -3.293846e-06 -3.438303e-06 -3.575545e-06 -3.702680e-06 -3.822303e-06 -3.931483e-06 -4.032949e-06 -4.123763e-06 -4.206753e-06 -4.279001e-06 -4.343399e-06 -4.397075e-06 -4.442954e-06 -4.478233e-06 -4.505836e-06 -4.523053e-06 -4.532780e-06 -4.532415e-06 -4.524798e-06 -4.507453e-06 -4.483141e-06 -4.449525e-06 -4.409265e-06 -4.360170e-06 -4.304787e-06 -4.241077e-06 -4.171456e-06 -4.094045e-06 -4.011118e-06 -3.920955e-06 -3.825684e-06 -3.723742e-06 -3.617105e-06 -3.504368e-06 -3.387350e-06 -3.264800e-06 -3.138381e-06 -3.006993e-06 -2.872144e-06 -2.732878e-06 -2.590550e-06 -2.444345e-06 -2.295470e-06 -2.143246e-06 -1.988732e-06 -1.831380e-06 -1.672111e-06 -1.510503e-06 -1.347340e-06 -1.182323e-06 -1.016107e-06 -8.485102e-07 -6.800618e-07 -5.106983e-07 -3.408259e-07 -1.704976e-07 
1.918405e-14 1.708957e-07 3.416249e-07 5.118901e-07 6.816547e-07 8.504886e-07 1.018485e-06 1.185077e-06 1.350489e-06 1.514015e-06 1.676013e-06 1.835631e-06 1.993364e-06 2.148211e-06 2.300807e-06 2.449997e-06 2.596561e-06 2.739184e-06 2.878797e-06 3.013920e-06 3.145641e-06 3.272310e-06 3.395179e-06 3.512425e-06 3.625466e-06 3.732307e-06 3.834538e-06 3.929990e-06 4.020427e-06 4.103513e-06 4.181185e-06 4.250944e-06 4.314902e-06 4.370406e-06 4.419738e-06 4.460102e-06 4.493948e-06 4.518353e-06 4.535922e-06 4.543624e-06 4.544214e-06 4.534569e-06 4.517579e-06 4.490061e-06 4.455016e-06 4.409231e-06 4.355803e-06 4.291513e-06 4.219530e-06 4.136670e-06 4.046143e-06 3.944835e-06 3.835970e-06 3.716541e-06 3.589752e-06 3.452745e-06 3.308670e-06 3.154855e-06 2.994359e-06 2.824738e-06 2.648924e-06 2.464735e-06 2.274941e-06 2.077658e-06 1.875456e-06 1.666782e-06 1.453971e-06 1.235829e-06 1.014422e-06 7.889390e-07 5.611482e-07 3.306380e-07 9.885102e-08 -1.342114e-07 -3.674559e-07 -6.004626e-07 -8.325065e-07 -1.062749e-06 -1.290848e-06 -1.515553e-06 -1.736915e-06 -1.953287e-06 -2.165111e-06 -2.370369e-06 -2.569894e-06 -2.761318e-06 -2.945859e-06 -3.120835e-06 -3.287834e-06 -3.443899e-06 -3.590966e-06 -3.725849e-06 -3.850809e-06 -3.962474e-06 -4.063404e-06 -4.150092e-06 -4.225361e-06 -4.285622e-06 -4.333925e-06 -4.366652e-06 -4.387038e-06 -4.391492e-06 -4.383390e-06 -4.359220e-06 -4.322452e-06 -4.269709e-06 -4.204509e-06 -4.123654e-06 -4.030663e-06 -3.922566e-06 -3.802837e-06 -3.668773e-06 -3.523753e-06 -3.365384e-06 -3.196905e-06 -3.016262e-06 -2.826509e-06 -2.625963e-06 -2.417450e-06 -2.199676e-06 -1.975205e-06 -1.743149e-06 -1.505770e-06 -1.262597e-06 -1.015560e-06 -7.646094e-07 -5.113158e-07 -2.560506e-07 -7.615775e-14 2.560505e-07 5.113158e-07 7.646094e-07 1.015560e-06 1.262597e-06 1.505770e-06 1.743150e-06 1.975206e-06 2.199677e-06 2.417450e-06 2.625963e-06 2.826510e-06 3.016262e-06 3.196905e-06 3.365385e-06 3.523754e-06 3.668773e-06 3.802837e-06 3.922567e-06 4.030663e-06 4.123654e-06 4.204509e-06 4.269709e-06 4.322452e-06 4.359220e-06 4.383389e-06 4.391492e-06 4.387038e-06 4.366652e-06 4.333924e-06 4.285621e-06 4.225360e-06 4.150091e-06 4.063403e-06 3.962473e-06 3.850808e-06 3.725848e-06 3.590966e-06 3.443898e-06 3.287834e-06 3.120835e-06 2.945859e-06 2.761318e-06 2.569894e-06 2.370369e-06 2.165111e-06 1.953287e-06 1.736915e-06 1.515554e-06 1.290848e-06 1.062749e-06 8.325065e-07 6.004626e-07 3.674560e-07 1.342115e-07 -9.885090e-08 -3.306379e-07 -5.611480e-07 -7.889388e-07 -1.014422e-06 -1.235829e-06 -1.453971e-06 -1.666782e-06 -1.875456e-06 -2.077658e-06 -2.274941e-06 -2.464735e-06 -2.648924e-06 -2.824738e-06 -2.994360e-06 -3.154855e-06 -3.308670e-06 -3.452745e-06 -3.589752e-06 -3.716541e-06 -3.835970e-06 -3.944835e-06 -4.046143e-06 -4.136670e-06 -4.219530e-06 -4.291513e-06 -4.355803e-06 -4.409231e-06 -4.455016e-06 -4.490061e-06 -4.517579e-06 -4.534569e-06 -4.544213e-06 -4.543624e-06 -4.535922e-06 -4.518352e-06 -4.493948e-06 -4.460102e-06 -4.419737e-06 -4.370405e-06 -4.314901e-06 -4.250944e-06 -4.181184e-06 -4.103513e-06 -4.020427e-06 -3.929990e-06 -3.834538e-06 -3.732308e-06 -3.625466e-06 -3.512425e-06 -3.395179e-06 -3.272311e-06 -3.145641e-06 -3.013920e-06 -2.878797e-06 -2.739184e-06 -2.596561e-06 -2.449997e-06 -2.300807e-06 -2.148211e-06 -1.993364e-06 -1.835631e-06 -1.676013e-06 -1.514016e-06 -1.350489e-06 -1.185077e-06 -1.018485e-06 -8.504889e-07 -6.816549e-07 -5.118902e-07 -3.416248e-07 -1.708957e-07 