# vtk DataFile Version 2.0
Comment goes here
ASCII

DATASET STRUCTURED_POINTS
FIELD FieldData 1
TIME 1 1 double
0.01000000
DIMENSIONS    256   256   1

ORIGIN    0.000   0.000   0.000
SPACING   0.0039062 0.0039062   1.000

POINT_DATA   65536
SCALARS Omega double
LOOKUP_TABLE default

-3.754143e-14 -2.552472e-09 -5.100084e-09 -7.648057e-09 -1.018143e-08 -1.271576e-08 -1.522539e-08 -1.773624e-08 -2.021211e-08 -2.268977e-08 -2.512155e-08 -2.755562e-08 -2.993232e-08 -3.231184e-08 -3.462185e-08 -3.693535e-08 -3.916637e-08 -4.140152e-08 -4.354042e-08 -4.568410e-08 -4.771709e-08 -4.975558e-08 -5.166795e-08 -5.358658e-08 -5.536302e-08 -5.714650e-08 -5.877112e-08 -6.040359e-08 -6.186006e-08 -6.332498e-08 -6.459657e-08 -6.587746e-08 -6.694739e-08 -6.802738e-08 -6.887912e-08 -6.974151e-08 -7.035898e-08 -7.098778e-08 -7.135559e-08 -7.173534e-08 -7.183930e-08 -7.195585e-08 -7.178337e-08 -7.162403e-08 -7.116433e-08 -7.071841e-08 -6.996300e-08 -6.922220e-08 -6.816542e-08 -6.712403e-08 -6.576323e-08 -6.441878e-08 -6.275475e-08 -6.110830e-08 -5.914561e-08 -5.720193e-08 -5.494907e-08 -5.271712e-08 -5.018715e-08 -4.768011e-08 -4.488999e-08 -4.212554e-08 -3.909702e-08 -3.609717e-08 -3.285622e-08 -2.964750e-08 -2.622429e-08 -2.283737e-08 -1.926604e-08 -1.573557e-08 -1.205396e-08 -8.418174e-09 -4.667270e-09 -9.675735e-10 2.809204e-09 6.528796e-09 1.028574e-08 1.397936e-08 1.766963e-08 2.129034e-08 2.486644e-08 2.836651e-08 3.178124e-08 3.511375e-08 3.832097e-08 4.143985e-08 4.439552e-08 4.725692e-08 4.991924e-08 5.248228e-08 5.481344e-08 5.704048e-08 5.900636e-08 6.086446e-08 6.243615e-08 6.389696e-08 6.505048e-08 6.609134e-08 6.680890e-08 6.741283e-08 6.768242e-08 6.783883e-08 6.765499e-08 6.735931e-08 6.672291e-08 6.597755e-08 6.489595e-08 6.370924e-08 6.219612e-08 6.058323e-08 5.865841e-08 5.664006e-08 5.432908e-08 5.193201e-08 4.926597e-08 4.652215e-08 4.353683e-08 4.048327e-08 3.721914e-08 3.389672e-08 3.039799e-08 2.685186e-08 2.316578e-08 1.944364e-08 1.562013e-08 1.177235e-08 7.863260e-09 3.941906e-09 -3.070973e-14 -3.941898e-09 -7.863274e-09 -1.177242e-08 -1.562018e-08 -1.944366e-08 -2.316572e-08 -2.685183e-08 -3.039801e-08 -3.389678e-08 -3.721911e-08 -4.048322e-08 -4.353689e-08 -4.652216e-08 -4.926585e-08 -5.193193e-08 -5.432907e-08 -5.664003e-08 -5.865838e-08 -6.058324e-08 -6.219619e-08 -6.370927e-08 -6.489588e-08 -6.597748e-08 -6.672289e-08 -6.735932e-08 -6.765491e-08 -6.783879e-08 -6.768245e-08 -6.741290e-08 -6.680896e-08 -6.609143e-08 -6.505061e-08 -6.389701e-08 -6.243616e-08 -6.086453e-08 -5.900649e-08 -5.704050e-08 -5.481341e-08 -5.248230e-08 -4.991930e-08 -4.725688e-08 -4.439540e-08 -4.143990e-08 -3.832100e-08 -3.511367e-08 -3.178123e-08 -2.836648e-08 -2.486639e-08 -2.129029e-08 -1.766968e-08 -1.397938e-08 -1.028572e-08 -6.528784e-09 -2.809179e-09 9.676137e-10 4.667214e-09 8.418223e-09 1.205401e-08 1.573562e-08 1.926608e-08 2.283740e-08 2.622428e-08 2.964748e-08 3.285622e-08 3.609717e-08 3.909696e-08 4.212551e-08 4.489003e-08 4.768005e-08 5.018704e-08 5.271710e-08 5.494912e-08 5.720193e-08 5.914555e-08 6.110830e-08 6.275480e-08 6.441881e-08 6.576324e-08 6.712404e-08 6.816546e-08 6.922222e-08 6.996302e-08 7.071838e-08 7.116429e-08 7.162398e-08 7.178328e-08 7.195582e-08 7.183932e-08 7.173535e-08 7.135558e-08 7.098781e-08 7.035906e-08 6.974162e-08 6.887917e-08 6.802739e-08 6.694744e-08 6.587751e-08 6.459662e-08 6.332506e-08 6.186007e-08 6.040357e-08 5.877109e-08 5.714647e-08 5.536302e-08 5.358656e-08 5.166790e-08 4.975557e-08 4.771714e-08 4.568415e-08 4.354041e-08 4.140149e-08 3.916638e-08 3.693535e-08 3.462184e-08 3.231186e-08 2.993231e-08 2.755556e-08 2.512150e-08 2.268975e-08 2.021213e-08 1.773624e-08 1.522533e-08 1.271575e-08 1.018152e-08 7.648115e-09 5.100100e-09 2.552462e-09 
-5.620482e-14 -2.525625e-09 -5.046885e-09 -7.567020e-09 -1.007416e-08 -1.257926e-08 -1.506230e-08 -1.754210e-08 -1.999068e-08 -2.243510e-08 -2.483847e-08 -2.723673e-08 -2.958355e-08 -3.192439e-08 -3.420271e-08 -3.647436e-08 -3.867168e-08 -4.086159e-08 -4.296453e-08 -4.505947e-08 -4.705407e-08 -4.904022e-08 -5.091171e-08 -5.277441e-08 -5.450744e-08 -5.623150e-08 -5.781030e-08 -5.938002e-08 -6.078835e-08 -6.218754e-08 -6.340894e-08 -6.462146e-08 -6.563952e-08 -6.664903e-08 -6.744758e-08 -6.823802e-08 -6.880150e-08 -6.935759e-08 -6.967127e-08 -6.997837e-08 -7.002871e-08 -7.007363e-08 -6.984880e-08 -6.961983e-08 -6.910990e-08 -6.859749e-08 -6.779488e-08 -6.699179e-08 -6.589176e-08 -6.479351e-08 -6.339440e-08 -6.199977e-08 -6.030331e-08 -5.861441e-08 -5.662618e-08 -5.464904e-08 -5.237842e-08 -5.012306e-08 -4.758383e-08 -4.506442e-08 -4.227450e-08 -3.950950e-08 -3.649112e-08 -3.350333e-08 -3.028299e-08 -2.709933e-08 -2.370758e-08 -2.035907e-08 -1.683008e-08 -1.335142e-08 -9.722883e-09 -6.152190e-09 -2.464851e-09 1.157097e-09 4.860307e-09 8.490178e-09 1.216443e-08 1.575744e-08 1.935696e-08 2.286728e-08 2.634573e-08 2.972746e-08 3.303920e-08 3.624680e-08 3.934736e-08 4.233709e-08 4.518417e-08 4.791413e-08 5.046795e-08 5.289945e-08 5.512419e-08 5.722207e-08 5.908566e-08 6.081915e-08 6.229476e-08 6.363795e-08 6.470351e-08 6.563582e-08 6.627543e-08 6.678195e-08 6.698531e-08 6.705719e-08 6.682018e-08 6.645462e-08 6.577938e-08 6.497975e-08 6.387440e-08 6.265018e-08 6.112895e-08 5.949567e-08 5.757848e-08 5.555698e-08 5.326915e-08 5.088589e-08 4.825769e-08 4.554385e-08 4.261019e-08 3.960160e-08 3.640137e-08 3.313754e-08 2.971313e-08 2.623717e-08 2.263385e-08 1.899137e-08 1.525665e-08 1.149569e-08 7.678860e-09 3.848786e-09 1.369603e-14 -3.848764e-09 -7.678835e-09 -1.149568e-08 -1.525668e-08 -1.899134e-08 -2.263373e-08 -2.623711e-08 -2.971314e-08 -3.313753e-08 -3.640131e-08 -3.960153e-08 -4.261017e-08 -4.554384e-08 -4.825762e-08 -5.088577e-08 -5.326905e-08 -5.555690e-08 -5.757844e-08 -5.949564e-08 -6.112899e-08 -6.265018e-08 -6.387435e-08 -6.497968e-08 -6.577928e-08 -6.645456e-08 -6.682011e-08 -6.705712e-08 -6.698528e-08 -6.678198e-08 -6.627546e-08 -6.563586e-08 -6.470358e-08 -6.363795e-08 -6.229479e-08 -6.081926e-08 -5.908575e-08 -5.722204e-08 -5.512414e-08 -5.289948e-08 -5.046790e-08 -4.791403e-08 -4.518405e-08 -4.233708e-08 -3.934741e-08 -3.624678e-08 -3.303911e-08 -2.972737e-08 -2.634574e-08 -2.286724e-08 -1.935693e-08 -1.575748e-08 -1.216446e-08 -8.490213e-09 -4.860299e-09 -1.157068e-09 2.464815e-09 6.152194e-09 9.722958e-09 1.335143e-08 1.683009e-08 2.035907e-08 2.370756e-08 2.709935e-08 3.028298e-08 3.350332e-08 3.649111e-08 3.950946e-08 4.227451e-08 4.506436e-08 4.758376e-08 5.012301e-08 5.237843e-08 5.464903e-08 5.662611e-08 5.861440e-08 6.030333e-08 6.199975e-08 6.339440e-08 6.479352e-08 6.589177e-08 6.699178e-08 6.779486e-08 6.859742e-08 6.910986e-08 6.961977e-08 6.984867e-08 7.007359e-08 7.002874e-08 6.997836e-08 6.967123e-08 6.935762e-08 6.880158e-08 6.823812e-08 6.744762e-08 6.664903e-08 6.563955e-08 6.462151e-08 6.340898e-08 6.218760e-08 6.078835e-08 5.937997e-08 5.781023e-08 5.623144e-08 5.450741e-08 5.277435e-08 5.091163e-08 4.904018e-08 4.705407e-08 4.505945e-08 4.296448e-08 4.086153e-08 3.867164e-08 3.647433e-08 3.420268e-08 3.192435e-08 2.958348e-08 2.723663e-08 2.483837e-08 2.243505e-08 1.999068e-08 1.754208e-08 1.506220e-08 1.257918e-08 1.007419e-08 7.567044e-09 5.046863e-09 2.525578e-09 
-3.966782e-14 -2.547624e-09 -5.091318e-09 -7.632475e-09 -1.016188e-08 -1.268636e-08 -1.519095e-08 -1.768801e-08 -2.015678e-08 -2.261574e-08 -2.503746e-08 -2.744700e-08 -2.980979e-08 -3.215820e-08 -3.444960e-08 -3.672465e-08 -3.893173e-08 -4.112047e-08 -4.322942e-08 -4.531826e-08 -4.731479e-08 -4.928962e-08 -5.115864e-08 -5.300459e-08 -5.473053e-08 -5.643227e-08 -5.799914e-08 -5.954091e-08 -6.093239e-08 -6.229800e-08 -6.349760e-08 -6.467106e-08 -6.566236e-08 -6.662751e-08 -6.739451e-08 -6.813559e-08 -6.866293e-08 -6.916498e-08 -6.943819e-08 -6.968712e-08 -6.969298e-08 -6.967606e-08 -6.940319e-08 -6.910937e-08 -6.854831e-08 -6.796872e-08 -6.711237e-08 -6.624050e-08 -6.508476e-08 -6.391690e-08 -6.246062e-08 -6.099635e-08 -5.924196e-08 -5.748416e-08 -5.543780e-08 -5.339330e-08 -5.106500e-08 -4.874462e-08 -4.614883e-08 -4.356741e-08 -4.072247e-08 -3.789917e-08 -3.482791e-08 -3.178607e-08 -2.851542e-08 -2.528256e-08 -2.184346e-08 -1.845092e-08 -1.487789e-08 -1.136076e-08 -7.691823e-09 -4.088382e-09 -3.643862e-10 3.284356e-09 7.020370e-09 1.067113e-08 1.437409e-08 1.798204e-08 2.160630e-08 2.512575e-08 2.862479e-08 3.200987e-08 3.533823e-08 3.854365e-08 4.165671e-08 4.463885e-08 4.749433e-08 5.021145e-08 5.276950e-08 5.518308e-08 5.740781e-08 5.948269e-08 6.134189e-08 6.304746e-08 6.451408e-08 6.582440e-08 6.687620e-08 6.777063e-08 6.839134e-08 6.885499e-08 6.903405e-08 6.905796e-08 6.879099e-08 6.837220e-08 6.766104e-08 6.680297e-08 6.565545e-08 6.436746e-08 6.279772e-08 6.109532e-08 5.912316e-08 5.702742e-08 5.467810e-08 5.221569e-08 4.951964e-08 4.672202e-08 4.371444e-08 4.061792e-08 3.733814e-08 3.398283e-08 3.047376e-08 2.690335e-08 2.321099e-08 1.947206e-08 1.564466e-08 1.178601e-08 7.873849e-09 3.945911e-09 -7.629044e-15 -3.945863e-09 -7.873813e-09 -1.178608e-08 -1.564473e-08 -1.947202e-08 -2.321088e-08 -2.690330e-08 -3.047372e-08 -3.398279e-08 -3.733811e-08 -4.061786e-08 -4.371447e-08 -4.672205e-08 -4.951954e-08 -5.221557e-08 -5.467804e-08 -5.702738e-08 -5.912312e-08 -6.109534e-08 -6.279774e-08 -6.436746e-08 -6.565542e-08 -6.680289e-08 -6.766098e-08 -6.837217e-08 -6.879092e-08 -6.905789e-08 -6.903406e-08 -6.885503e-08 -6.839139e-08 -6.777065e-08 -6.687624e-08 -6.582444e-08 -6.451412e-08 -6.304756e-08 -6.134199e-08 -5.948266e-08 -5.740779e-08 -5.518309e-08 -5.276952e-08 -5.021140e-08 -4.749421e-08 -4.463882e-08 -4.165676e-08 -3.854364e-08 -3.533816e-08 -3.200984e-08 -2.862477e-08 -2.512563e-08 -2.160621e-08 -1.798214e-08 -1.437417e-08 -1.067116e-08 -7.020375e-09 -3.284388e-09 3.643418e-10 4.088386e-09 7.691862e-09 1.136082e-08 1.487794e-08 1.845094e-08 2.184343e-08 2.528256e-08 2.851544e-08 3.178610e-08 3.482790e-08 3.789913e-08 4.072246e-08 4.356733e-08 4.614870e-08 4.874457e-08 5.106508e-08 5.339332e-08 5.543773e-08 5.748417e-08 5.924195e-08 6.099634e-08 6.246064e-08 6.391691e-08 6.508478e-08 6.624052e-08 6.711235e-08 6.796864e-08 6.854827e-08 6.910934e-08 6.940311e-08 6.967603e-08 6.969301e-08 6.968711e-08 6.943816e-08 6.916502e-08 6.866301e-08 6.813569e-08 6.739458e-08 6.662753e-08 6.566243e-08 6.467110e-08 6.349764e-08 6.229809e-08 6.093241e-08 5.954087e-08 5.799908e-08 5.643221e-08 5.473050e-08 5.300455e-08 5.115858e-08 4.928960e-08 4.731479e-08 4.531824e-08 4.322939e-08 4.112041e-08 3.893169e-08 3.672463e-08 3.444959e-08 3.215817e-08 2.980973e-08 2.744691e-08 2.503736e-08 2.261570e-08 2.015680e-08 1.768800e-08 1.519087e-08 1.268632e-08 1.016192e-08 7.632492e-09 5.091314e-09 2.547588e-09 
-2.397206e-14 -2.522489e-09 -5.041624e-09 -7.556658e-09 -1.006170e-08 -1.255871e-08 -1.503870e-08 -1.750648e-08 -1.995007e-08 -2.237765e-08 -2.477322e-08 -2.714894e-08 -2.948426e-08 -3.179610e-08 -3.405852e-08 -3.629399e-08 -3.847025e-08 -4.061622e-08 -4.269232e-08 -4.473510e-08 -4.669660e-08 -4.862200e-08 -5.045371e-08 -5.224689e-08 -5.393327e-08 -5.557901e-08 -5.710413e-08 -5.858683e-08 -5.993448e-08 -6.123831e-08 -6.239217e-08 -6.350146e-08 -6.444553e-08 -6.534468e-08 -6.606329e-08 -6.673703e-08 -6.721529e-08 -6.764950e-08 -6.787347e-08 -6.805474e-08 -6.801189e-08 -6.792845e-08 -6.760809e-08 -6.724980e-08 -6.664324e-08 -6.600228e-08 -6.510326e-08 -6.417418e-08 -6.297945e-08 -6.175966e-08 -6.026900e-08 -5.875911e-08 -5.697582e-08 -5.518003e-08 -5.311110e-08 -5.103708e-08 -4.869346e-08 -4.635311e-08 -4.374995e-08 -4.115897e-08 -3.831533e-08 -3.549368e-08 -3.243294e-08 -2.940455e-08 -2.615413e-08 -2.294698e-08 -1.953799e-08 -1.618358e-08 -1.265073e-08 -9.184254e-09 -5.565388e-09 -2.024792e-09 1.639466e-09 5.213569e-09 8.880835e-09 1.244597e-08 1.607186e-08 1.958411e-08 2.312398e-08 2.653897e-08 2.994749e-08 3.322088e-08 3.645391e-08 3.954199e-08 4.255657e-08 4.541758e-08 4.817303e-08 5.076725e-08 5.322563e-08 5.551660e-08 5.764383e-08 5.959865e-08 6.136437e-08 6.295441e-08 6.433356e-08 6.553514e-08 6.650716e-08 6.730158e-08 6.785201e-08 6.822626e-08 6.834593e-08 6.829261e-08 6.797858e-08 6.749627e-08 6.675125e-08 6.584432e-08 6.467706e-08 6.335575e-08 6.178062e-08 6.006088e-08 5.809786e-08 5.600080e-08 5.367486e-08 5.122666e-08 4.856761e-08 4.579920e-08 4.284115e-08 3.978772e-08 3.656869e-08 3.326887e-08 2.983010e-08 2.632590e-08 2.271151e-08 1.904753e-08 1.530356e-08 1.152641e-08 7.700842e-09 3.858519e-09 -1.177860e-14 -3.858513e-09 -7.700843e-09 -1.152648e-08 -1.530369e-08 -1.904755e-08 -2.271145e-08 -2.632591e-08 -2.983010e-08 -3.326887e-08 -3.656870e-08 -3.978771e-08 -4.284118e-08 -4.579922e-08 -4.856756e-08 -5.122662e-08 -5.367484e-08 -5.600075e-08 -5.809785e-08 -6.006094e-08 -6.178071e-08 -6.335579e-08 -6.467705e-08 -6.584429e-08 -6.675123e-08 -6.749624e-08 -6.797852e-08 -6.829262e-08 -6.834597e-08 -6.822633e-08 -6.785211e-08 -6.730164e-08 -6.650722e-08 -6.553516e-08 -6.433363e-08 -6.295455e-08 -6.136447e-08 -5.959864e-08 -5.764379e-08 -5.551665e-08 -5.322567e-08 -5.076722e-08 -4.817294e-08 -4.541756e-08 -4.255660e-08 -3.954200e-08 -3.645390e-08 -3.322081e-08 -2.994750e-08 -2.653892e-08 -2.312391e-08 -1.958415e-08 -1.607189e-08 -1.244599e-08 -8.880831e-09 -5.213619e-09 -1.639516e-09 2.024843e-09 5.565461e-09 9.184316e-09 1.265079e-08 1.618363e-08 1.953798e-08 2.294695e-08 2.615412e-08 2.940458e-08 3.243292e-08 3.549366e-08 3.831532e-08 4.115891e-08 4.374984e-08 4.635308e-08 4.869350e-08 5.103710e-08 5.311106e-08 5.518002e-08 5.697585e-08 5.875914e-08 6.026902e-08 6.175968e-08 6.297947e-08 6.417420e-08 6.510325e-08 6.600223e-08 6.664320e-08 6.724979e-08 6.760801e-08 6.792842e-08 6.801194e-08 6.805474e-08 6.787344e-08 6.764955e-08 6.721539e-08 6.673716e-08 6.606336e-08 6.534470e-08 6.444563e-08 6.350156e-08 6.239223e-08 6.123837e-08 5.993450e-08 5.858680e-08 5.710406e-08 5.557900e-08 5.393330e-08 5.224688e-08 5.045368e-08 4.862199e-08 4.669662e-08 4.473511e-08 4.269230e-08 4.061619e-08 3.847022e-08 3.629400e-08 3.405854e-08 3.179611e-08 2.948427e-08 2.714888e-08 2.477316e-08 2.237764e-08 1.995012e-08 1.750651e-08 1.503865e-08 1.255870e-08 1.006179e-08 7.556727e-09 5.041659e-09 2.522495e-09 
-3.040978e-14 -2.546208e-09 -5.089520e-09 -7.627210e-09 -1.015632e-08 -1.267438e-08 -1.517777e-08 -1.766445e-08 -2.013021e-08 -2.257397e-08 -2.498994e-08 -2.737865e-08 -2.973210e-08 -3.205325e-08 -3.433101e-08 -3.657167e-08 -3.876004e-08 -4.090673e-08 -4.299130e-08 -4.502994e-08 -4.699594e-08 -4.891208e-08 -5.074401e-08 -5.252259e-08 -5.420463e-08 -5.583031e-08 -5.734629e-08 -5.880345e-08 -6.013713e-08 -6.140988e-08 -6.254483e-08 -6.361763e-08 -6.453792e-08 -6.539538e-08 -6.608536e-08 -6.671250e-08 -6.715748e-08 -6.754053e-08 -6.772686e-08 -6.785283e-08 -6.776821e-08 -6.762589e-08 -6.726008e-08 -6.683992e-08 -6.618463e-08 -6.547948e-08 -6.452900e-08 -6.353406e-08 -6.228564e-08 -6.099913e-08 -5.945313e-08 -5.787646e-08 -5.603678e-08 -5.417479e-08 -5.204909e-08 -4.991040e-08 -4.751021e-08 -4.510736e-08 -4.244838e-08 -3.979781e-08 -3.689983e-08 -3.402214e-08 -3.090887e-08 -2.782863e-08 -2.452815e-08 -2.127381e-08 -1.781760e-08 -1.442107e-08 -1.084423e-08 -7.341055e-09 -3.681744e-09 -1.101735e-10 3.590787e-09 7.190047e-09 1.088996e-08 1.447433e-08 1.812883e-08 2.165442e-08 2.521863e-08 2.864105e-08 3.206981e-08 3.534496e-08 3.859392e-08 4.167817e-08 4.470442e-08 4.755617e-08 5.031901e-08 5.289882e-08 5.536027e-08 5.763182e-08 5.975779e-08 6.168832e-08 6.344844e-08 6.500937e-08 6.637840e-08 6.754630e-08 6.850361e-08 6.925974e-08 6.979067e-08 7.012213e-08 7.021740e-08 7.011686e-08 6.977332e-08 6.923921e-08 6.845944e-08 6.749637e-08 6.628893e-08 6.490710e-08 6.328637e-08 6.150174e-08 5.948766e-08 5.732160e-08 5.493910e-08 5.241804e-08 4.969718e-08 4.685226e-08 4.382744e-08 4.069426e-08 3.740373e-08 3.402147e-08 3.050706e-08 2.691828e-08 2.322452e-08 1.947445e-08 1.564817e-08 1.178410e-08 7.873930e-09 3.944705e-09 2.091602e-15 -3.944649e-09 -7.873909e-09 -1.178421e-08 -1.564828e-08 -1.947447e-08 -2.322449e-08 -2.691825e-08 -3.050700e-08 -3.402147e-08 -3.740375e-08 -4.069423e-08 -4.382745e-08 -4.685229e-08 -4.969713e-08 -5.241796e-08 -5.493909e-08 -5.732155e-08 -5.948761e-08 -6.150180e-08 -6.328644e-08 -6.490712e-08 -6.628890e-08 -6.749630e-08 -6.845941e-08 -6.923919e-08 -6.977323e-08 -7.011682e-08 -7.021744e-08 -7.012221e-08 -6.979077e-08 -6.925980e-08 -6.850366e-08 -6.754628e-08 -6.637844e-08 -6.500952e-08 -6.344851e-08 -6.168831e-08 -5.975776e-08 -5.763184e-08 -5.536031e-08 -5.289882e-08 -5.031897e-08 -4.755614e-08 -4.470439e-08 -4.167815e-08 -3.859382e-08 -3.534487e-08 -3.206986e-08 -2.864110e-08 -2.521862e-08 -2.165442e-08 -1.812883e-08 -1.447437e-08 -1.088994e-08 -7.190043e-09 -3.590797e-09 1.102081e-10 3.681818e-09 7.341112e-09 1.084430e-08 1.442112e-08 1.781756e-08 2.127375e-08 2.452817e-08 2.782867e-08 3.090888e-08 3.402208e-08 3.689977e-08 3.979776e-08 4.244831e-08 4.510729e-08 4.751021e-08 4.991042e-08 5.204911e-08 5.417480e-08 5.603676e-08 5.787646e-08 5.945313e-08 6.099914e-08 6.228566e-08 6.353405e-08 6.452896e-08 6.547944e-08 6.618462e-08 6.683991e-08 6.726001e-08 6.762588e-08 6.776826e-08 6.785282e-08 6.772681e-08 6.754055e-08 6.715758e-08 6.671262e-08 6.608542e-08 6.539542e-08 6.453800e-08 6.361772e-08 6.254490e-08 6.140993e-08 6.013713e-08 5.880342e-08 5.734624e-08 5.583026e-08 5.420463e-08 5.252258e-08 5.074397e-08 4.891209e-08 4.699597e-08 4.502995e-08 4.299128e-08 4.090668e-08 3.876003e-08 3.657166e-08 3.433100e-08 3.205325e-08 2.973208e-08 2.737858e-08 2.498987e-08 2.257396e-08 2.013025e-08 1.766448e-08 1.517773e-08 1.267437e-08 1.015640e-08 7.627265e-09 5.089533e-09 2.546194e-09 
-3.988572e-14 -2.522309e-09 -5.042341e-09 -7.555128e-09 -1.006122e-08 -1.255300e-08 -1.503325e-08 -1.749193e-08 -1.993410e-08 -2.234782e-08 -2.473940e-08 -2.709572e-08 -2.942371e-08 -3.170983e-08 -3.396072e-08 -3.616356e-08 -3.832347e-08 -4.042930e-08 -4.248361e-08 -4.447831e-08 -4.641211e-08 -4.828115e-08 -5.007887e-08 -5.180724e-08 -5.345300e-08 -5.502548e-08 -5.650323e-08 -5.790435e-08 -5.919793e-08 -6.041214e-08 -6.150531e-08 -6.251748e-08 -6.339457e-08 -6.418973e-08 -6.483549e-08 -6.539925e-08 -6.579941e-08 -6.611867e-08 -6.626007e-08 -6.632261e-08 -6.619357e-08 -6.598901e-08 -6.557989e-08 -6.509962e-08 -6.440292e-08 -6.364065e-08 -6.265135e-08 -6.160346e-08 -6.031964e-08 -5.898527e-08 -5.740814e-08 -5.578975e-08 -5.392402e-08 -5.202754e-08 -4.988170e-08 -4.771666e-08 -4.530297e-08 -4.288290e-08 -4.021782e-08 -3.755994e-08 -3.466381e-08 -3.178945e-08 -2.868669e-08 -2.562090e-08 -2.233980e-08 -1.911145e-08 -1.568382e-08 -1.232502e-08 -8.786036e-09 -5.332270e-09 -1.719942e-09 1.790753e-09 5.435848e-09 8.963287e-09 1.259904e-08 1.610135e-08 1.968405e-08 2.311840e-08 2.660410e-08 2.992722e-08 3.327183e-08 3.644102e-08 3.960164e-08 4.257490e-08 4.550994e-08 4.824742e-08 5.091782e-08 5.338193e-08 5.575134e-08 5.790776e-08 5.994391e-08 6.176188e-08 6.343613e-08 6.488911e-08 6.617784e-08 6.724427e-08 6.812874e-08 6.879181e-08 6.925874e-08 6.950720e-08 6.954873e-08 6.937685e-08 6.899097e-08 6.839837e-08 6.758868e-08 6.658091e-08 6.535668e-08 6.394467e-08 6.232052e-08 6.052070e-08 5.851660e-08 5.635019e-08 5.399089e-08 5.148405e-08 4.879892e-08 4.598212e-08 4.300460e-08 3.991239e-08 3.667952e-08 3.334979e-08 2.990177e-08 2.637543e-08 2.275516e-08 1.907557e-08 1.532777e-08 1.154028e-08 7.711462e-09 3.862681e-09 1.923484e-14 -3.862652e-09 -7.711464e-09 -1.154033e-08 -1.532787e-08 -1.907561e-08 -2.275511e-08 -2.637540e-08 -2.990176e-08 -3.334979e-08 -3.667953e-08 -3.991234e-08 -4.300458e-08 -4.598218e-08 -4.879888e-08 -5.148397e-08 -5.399087e-08 -5.635013e-08 -5.851654e-08 -6.052073e-08 -6.232058e-08 -6.394468e-08 -6.535663e-08 -6.658087e-08 -6.758863e-08 -6.839835e-08 -6.899092e-08 -6.937676e-08 -6.954876e-08 -6.950726e-08 -6.925883e-08 -6.879185e-08 -6.812876e-08 -6.724434e-08 -6.617794e-08 -6.488922e-08 -6.343621e-08 -6.176185e-08 -5.994391e-08 -5.790782e-08 -5.575136e-08 -5.338188e-08 -5.091774e-08 -4.824741e-08 -4.550992e-08 -4.257487e-08 -3.960156e-08 -3.644099e-08 -3.327188e-08 -2.992724e-08 -2.660407e-08 -2.311842e-08 -1.968411e-08 -1.610140e-08 -1.259901e-08 -8.963313e-09 -5.435877e-09 -1.790733e-09 1.720012e-09 5.332329e-09 8.786083e-09 1.232504e-08 1.568377e-08 1.911140e-08 2.233981e-08 2.562092e-08 2.868663e-08 3.178937e-08 3.466383e-08 3.755987e-08 4.021774e-08 4.288287e-08 4.530299e-08 4.771665e-08 4.988166e-08 5.202755e-08 5.392404e-08 5.578976e-08 5.740817e-08 5.898528e-08 6.031966e-08 6.160345e-08 6.265134e-08 6.364062e-08 6.440288e-08 6.509960e-08 6.557982e-08 6.598900e-08 6.619363e-08 6.632261e-08 6.626003e-08 6.611871e-08 6.579951e-08 6.539938e-08 6.483556e-08 6.418976e-08 6.339467e-08 6.251757e-08 6.150540e-08 6.041221e-08 5.919794e-08 5.790434e-08 5.650318e-08 5.502546e-08 5.345302e-08 5.180723e-08 5.007883e-08 4.828115e-08 4.641212e-08 4.447831e-08 4.248362e-08 4.042926e-08 3.832343e-08 3.616355e-08 3.396074e-08 3.170982e-08 2.942367e-08 2.709565e-08 2.473934e-08 2.234781e-08 1.993414e-08 1.749194e-08 1.503321e-08 1.255298e-08 1.006129e-08 7.555188e-09 5.042369e-09 2.522291e-09 
-6.960605e-15 -2.547206e-09 -5.092694e-09 -7.629313e-09 -1.016082e-08 -1.267483e-08 -1.517988e-08 -1.765861e-08 -2.012443e-08 -2.255553e-08 -2.496909e-08 -2.733961e-08 -2.968739e-08 -3.198408e-08 -3.425213e-08 -3.646146e-08 -3.863540e-08 -4.074333e-08 -4.280814e-08 -4.480014e-08 -4.674057e-08 -4.860191e-08 -5.040204e-08 -5.211746e-08 -5.376117e-08 -5.531534e-08 -5.678637e-08 -5.816375e-08 -5.944575e-08 -6.063081e-08 -6.170760e-08 -6.268531e-08 -6.354104e-08 -6.429659e-08 -6.491619e-08 -6.543554e-08 -6.580487e-08 -6.607518e-08 -6.618125e-08 -6.619079e-08 -6.602224e-08 -6.576112e-08 -6.530864e-08 -6.476885e-08 -6.402535e-08 -6.320121e-08 -6.216220e-08 -6.105078e-08 -5.971483e-08 -5.831604e-08 -5.668488e-08 -5.500188e-08 -5.308087e-08 -5.112042e-08 -4.891862e-08 -4.669097e-08 -4.422132e-08 -4.174073e-08 -3.902030e-08 -3.630469e-08 -3.335438e-08 -3.042580e-08 -2.727062e-08 -2.415465e-08 -2.082334e-08 -1.754942e-08 -1.407435e-08 -1.067504e-08 -7.091760e-09 -3.602902e-09 5.019929e-11 3.590367e-09 7.272419e-09 1.082349e-08 1.449213e-08 1.801219e-08 2.162352e-08 2.506965e-08 2.857974e-08 3.190880e-08 3.527328e-08 3.844255e-08 4.161863e-08 4.458644e-08 4.753247e-08 5.025909e-08 5.293604e-08 5.538410e-08 5.775566e-08 5.989104e-08 6.192487e-08 6.371702e-08 6.538452e-08 6.680719e-08 6.808478e-08 6.911647e-08 6.998529e-08 7.060945e-08 7.105617e-08 7.126166e-08 7.127847e-08 7.105962e-08 7.064440e-08 7.000094e-08 6.915730e-08 6.809507e-08 6.683210e-08 6.536200e-08 6.369443e-08 6.183300e-08 5.978088e-08 5.754963e-08 5.513775e-08 5.256305e-08 4.982093e-08 4.693348e-08 4.389484e-08 4.072959e-08 3.743177e-08 3.402693e-08 3.051050e-08 2.690755e-08 2.321583e-08 1.945865e-08 1.563690e-08 1.177129e-08 7.866649e-09 3.939872e-09 -4.357139e-14 -3.939900e-09 -7.866670e-09 -1.177138e-08 -1.563701e-08 -1.945870e-08 -2.321585e-08 -2.690758e-08 -3.051051e-08 -3.402694e-08 -3.743179e-08 -4.072960e-08 -4.389490e-08 -4.693355e-08 -4.982092e-08 -5.256298e-08 -5.513774e-08 -5.754965e-08 -5.978087e-08 -6.183305e-08 -6.369448e-08 -6.536202e-08 -6.683207e-08 -6.809500e-08 -6.915729e-08 -7.000102e-08 -7.064435e-08 -7.105954e-08 -7.127850e-08 -7.126175e-08 -7.105630e-08 -7.060952e-08 -6.998534e-08 -6.911655e-08 -6.808486e-08 -6.680730e-08 -6.538461e-08 -6.371701e-08 -6.192488e-08 -5.989110e-08 -5.775571e-08 -5.538407e-08 -5.293598e-08 -5.025910e-08 -4.753247e-08 -4.458640e-08 -4.161859e-08 -3.844249e-08 -3.527328e-08 -3.190876e-08 -2.857970e-08 -2.506970e-08 -2.162358e-08 -1.801222e-08 -1.449214e-08 -1.082351e-08 -7.272459e-09 -3.590363e-09 -5.014195e-11 3.602952e-09 7.091784e-09 1.067506e-08 1.407431e-08 1.754940e-08 2.082334e-08 2.415463e-08 2.727052e-08 3.042576e-08 3.335439e-08 3.630463e-08 3.902022e-08 4.174069e-08 4.422134e-08 4.669098e-08 4.891862e-08 5.112042e-08 5.308089e-08 5.500191e-08 5.668490e-08 5.831601e-08 5.971483e-08 6.105079e-08 6.216221e-08 6.320121e-08 6.402534e-08 6.476881e-08 6.530858e-08 6.576111e-08 6.602230e-08 6.619081e-08 6.618122e-08 6.607523e-08 6.580497e-08 6.543568e-08 6.491630e-08 6.429666e-08 6.354115e-08 6.268538e-08 6.170768e-08 6.063093e-08 5.944580e-08 5.816373e-08 5.678633e-08 5.531533e-08 5.376121e-08 5.211746e-08 5.040203e-08 4.860192e-08 4.674062e-08 4.480020e-08 4.280816e-08 4.074329e-08 3.863540e-08 3.646148e-08 3.425215e-08 3.198412e-08 2.968740e-08 2.733957e-08 2.496905e-08 2.255555e-08 2.012449e-08 1.765865e-08 1.517986e-08 1.267484e-08 1.016093e-08 7.629425e-09 5.092745e-09 2.547223e-09 
-1.096507e-14 -2.524047e-09 -5.047041e-09 -7.559481e-09 -1.006884e-08 -1.255729e-08 -1.504019e-08 -1.749170e-08 -1.993507e-08 -2.233694e-08 -2.472742e-08 -2.706647e-08 -2.939025e-08 -3.165301e-08 -3.389587e-08 -3.606857e-08 -3.821594e-08 -4.028440e-08 -4.232110e-08 -4.427073e-08 -4.618132e-08 -4.799732e-08 -4.976583e-08 -5.143305e-08 -5.304334e-08 -5.454650e-08 -5.598234e-08 -5.730614e-08 -5.855127e-08 -5.968047e-08 -6.071889e-08 -6.163879e-08 -6.245493e-08 -6.315125e-08 -6.373031e-08 -6.418948e-08 -6.451772e-08 -6.472761e-08 -6.479249e-08 -6.474208e-08 -6.453285e-08 -6.421303e-08 -6.372091e-08 -6.312451e-08 -6.234309e-08 -6.146541e-08 -6.039084e-08 -5.922989e-08 -5.786157e-08 -5.641821e-08 -5.475859e-08 -5.303697e-08 -5.109219e-08 -4.910012e-08 -4.687997e-08 -4.462849e-08 -4.214668e-08 -3.965098e-08 -3.692516e-08 -3.420398e-08 -3.125572e-08 -2.833164e-08 -2.518637e-08 -2.208555e-08 -1.877249e-08 -1.552462e-08 -1.207629e-08 -8.714195e-09 -5.166228e-09 -1.725556e-09 1.883686e-09 5.364889e-09 8.994897e-09 1.247674e-08 1.608559e-08 1.952681e-08 2.307132e-08 2.642995e-08 2.986699e-08 3.310113e-08 3.638749e-08 3.945570e-08 4.254960e-08 4.541177e-08 4.827312e-08 5.089117e-08 5.348233e-08 5.582070e-08 5.810693e-08 6.013331e-08 6.208393e-08 6.376967e-08 6.535769e-08 6.667851e-08 6.788199e-08 6.881813e-08 6.961972e-08 7.015635e-08 7.054423e-08 7.067181e-08 7.063942e-08 7.035368e-08 6.989994e-08 6.920182e-08 6.833117e-08 6.722734e-08 6.594962e-08 6.445157e-08 6.278174e-08 6.090643e-08 5.886456e-08 5.663340e-08 5.424402e-08 5.168299e-08 4.897504e-08 4.611432e-08 4.312058e-08 3.999406e-08 3.675075e-08 3.339538e-08 2.994159e-08 2.639740e-08 2.277483e-08 1.908388e-08 1.533595e-08 1.154227e-08 7.714034e-09 3.862814e-09 -1.178180e-14 -3.862858e-09 -7.714090e-09 -1.154236e-08 -1.533608e-08 -1.908396e-08 -2.277485e-08 -2.639744e-08 -2.994167e-08 -3.339543e-08 -3.675074e-08 -3.999404e-08 -4.312063e-08 -4.611441e-08 -4.897507e-08 -5.168298e-08 -5.424402e-08 -5.663336e-08 -5.886455e-08 -6.090648e-08 -6.278181e-08 -6.445164e-08 -6.594960e-08 -6.722727e-08 -6.833119e-08 -6.920186e-08 -6.989988e-08 -7.035362e-08 -7.063944e-08 -7.067192e-08 -7.054434e-08 -7.015644e-08 -6.961982e-08 -6.881817e-08 -6.788204e-08 -6.667861e-08 -6.535778e-08 -6.376970e-08 -6.208391e-08 -6.013339e-08 -5.810700e-08 -5.582062e-08 -5.348226e-08 -5.089118e-08 -4.827313e-08 -4.541178e-08 -4.254960e-08 -3.945566e-08 -3.638744e-08 -3.310107e-08 -2.986698e-08 -2.642999e-08 -2.307137e-08 -1.952683e-08 -1.608555e-08 -1.247672e-08 -8.994951e-09 -5.364863e-09 -1.883607e-09 1.725602e-09 5.166271e-09 8.714222e-09 1.207630e-08 1.552464e-08 1.877251e-08 2.208558e-08 2.518634e-08 2.833162e-08 3.125573e-08 3.420394e-08 3.692512e-08 3.965097e-08 4.214669e-08 4.462854e-08 4.687993e-08 4.910013e-08 5.109225e-08 5.303699e-08 5.475858e-08 5.641817e-08 5.786155e-08 5.922988e-08 6.039084e-08 6.146539e-08 6.234306e-08 6.312447e-08 6.372083e-08 6.421301e-08 6.453291e-08 6.474212e-08 6.479250e-08 6.472767e-08 6.451783e-08 6.418962e-08 6.373039e-08 6.315129e-08 6.245504e-08 6.163889e-08 6.071897e-08 5.968057e-08 5.855133e-08 5.730612e-08 5.598229e-08 5.454650e-08 5.304336e-08 5.143305e-08 4.976581e-08 4.799735e-08 4.618139e-08 4.427077e-08 4.232111e-08 4.028438e-08 3.821594e-08 3.606859e-08 3.389589e-08 3.165303e-08 2.939025e-08 2.706643e-08 2.472740e-08 2.233698e-08 1.993512e-08 1.749174e-08 1.504019e-08 1.255732e-08 1.006896e-08 7.559590e-09 5.047105e-09 2.524064e-09 