# vtk DataFile Version 2.0
Comment goes here
ASCII

DATASET STRUCTURED_POINTS
FIELD FieldData 1
TIME 1 1 double
0.08000000
DIMENSIONS    256   256   1

ORIGIN    0.000   0.000   0.000
SPACING   0.0039062 0.0039062   1.000

POINT_DATA   65536
SCALARS Omega double
LOOKUP_TABLE default

7.431303e-14 1.578852e-07 3.155947e-07 4.729772e-07 6.298309e-07 7.860274e-07 9.413377e-07 1.095655e-06 1.248722e-06 1.400452e-06 1.550555e-06 1.698969e-06 1.845367e-06 1.989711e-06 2.131636e-06 2.271129e-06 2.407784e-06 2.541615e-06 2.672174e-06 2.799503e-06 2.923109e-06 3.043067e-06 3.158836e-06 3.270526e-06 3.377549e-06 3.480054e-06 3.577402e-06 3.669788e-06 3.756522e-06 3.837847e-06 3.913025e-06 3.982349e-06 4.045036e-06 4.101434e-06 4.150718e-06 4.193293e-06 4.228295e-06 4.256192e-06 4.276086e-06 4.288511e-06 4.292542e-06 4.288779e-06 4.276278e-06 4.255707e-06 4.226113e-06 4.188232e-06 4.141110e-06 4.085553e-06 4.020617e-06 3.947174e-06 3.864303e-06 3.772939e-06 3.672195e-06 3.563067e-06 3.444715e-06 3.318189e-06 3.182707e-06 3.039369e-06 2.887465e-06 2.728134e-06 2.560749e-06 2.386483e-06 2.204802e-06 2.016899e-06 1.822347e-06 1.622348e-06 1.416589e-06 1.206270e-06 9.911970e-07 7.725557e-07 5.502799e-07 3.255248e-07 9.835455e-08 -1.301193e-07 -3.597012e-07 -5.893372e-07 -8.187020e-07 -1.046813e-06 -1.273219e-06 -1.497023e-06 -1.717653e-06 -1.934311e-06 -2.146314e-06 -2.352974e-06 -2.553509e-06 -2.747350e-06 -2.933631e-06 -3.111914e-06 -3.281259e-06 -3.441368e-06 -3.591249e-06 -3.730744e-06 -3.858830e-06 -3.975495e-06 -4.079699e-06 -4.171583e-06 -4.250110e-06 -4.315569e-06 -4.366949e-06 -4.404683e-06 -4.427811e-06 -4.436901e-06 -4.431058e-06 -4.410985e-06 -4.375872e-06 -4.326540e-06 -4.262283e-06 -4.184032e-06 -4.091195e-06 -3.984802e-06 -3.864389e-06 -3.731064e-06 -3.584506e-06 -3.425884e-06 -3.255025e-06 -3.073142e-06 -2.880214e-06 -2.677478e-06 -2.465071e-06 -2.244231e-06 -2.015250e-06 -1.779350e-06 -1.536973e-06 -1.289305e-06 -1.036932e-06 -7.809807e-07 -5.221752e-07 -2.615660e-07 -1.075229e-13 2.615659e-07 5.221752e-07 7.809806e-07 1.036931e-06 1.289305e-06 1.536974e-06 1.779350e-06 2.015251e-06 2.244232e-06 2.465071e-06 2.677479e-06 2.880214e-06 3.073142e-06 3.255025e-06 3.425885e-06 3.584506e-06 3.731065e-06 3.864389e-06 3.984802e-06 4.091195e-06 4.184032e-06 4.262283e-06 4.326541e-06 4.375871e-06 4.410985e-06 4.431058e-06 4.436901e-06 4.427810e-06 4.404683e-06 4.366948e-06 4.315567e-06 4.250109e-06 4.171582e-06 4.079699e-06 3.975494e-06 3.858829e-06 3.730744e-06 3.591248e-06 3.441368e-06 3.281259e-06 3.111913e-06 2.933631e-06 2.747350e-06 2.553509e-06 2.352974e-06 2.146314e-06 1.934311e-06 1.717653e-06 1.497023e-06 1.273219e-06 1.046813e-06 8.187021e-07 5.893372e-07 3.597013e-07 1.301193e-07 -9.835448e-08 -3.255248e-07 -5.502799e-07 -7.725554e-07 -9.911967e-07 -1.206269e-06 -1.416589e-06 -1.622348e-06 -1.822347e-06 -2.016899e-06 -2.204802e-06 -2.386483e-06 -2.560750e-06 -2.728134e-06 -2.887465e-06 -3.039369e-06 -3.182707e-06 -3.318189e-06 -3.444715e-06 -3.563067e-06 -3.672195e-06 -3.772939e-06 -3.864303e-06 -3.947174e-06 -4.020617e-06 -4.085553e-06 -4.141110e-06 -4.188232e-06 -4.226113e-06 -4.255707e-06 -4.276278e-06 -4.288779e-06 -4.292542e-06 -4.288511e-06 -4.276086e-06 -4.256191e-06 -4.228294e-06 -4.193292e-06 -4.150717e-06 -4.101433e-06 -4.045036e-06 -3.982348e-06 -3.913025e-06 -3.837846e-06 -3.756522e-06 -3.669787e-06 -3.577402e-06 -3.480053e-06 -3.377549e-06 -3.270526e-06 -3.158836e-06 -3.043067e-06 -2.923109e-06 -2.799504e-06 -2.672174e-06 -2.541616e-06 -2.407784e-06 -2.271129e-06 -2.131636e-06 -1.989711e-06 -1.845367e-06 -1.698969e-06 -1.550555e-06 -1.400452e-06 -1.248722e-06 -1.095656e-06 -9.413380e-07 -7.860275e-07 -6.298309e-07 -4.729771e-07 -3.155947e-07 -1.578851e-07 
9.696693e-14 1.580162e-07 3.158516e-07 4.733649e-07 6.303343e-07 7.866567e-07 9.420675e-07 1.096501e-06 1.249648e-06 1.401480e-06 1.551639e-06 1.700135e-06 1.846560e-06 1.990963e-06 2.132882e-06 2.272407e-06 2.409021e-06 2.542854e-06 2.673332e-06 2.800631e-06 2.924115e-06 3.044008e-06 3.159612e-06 3.271201e-06 3.378016e-06 3.480382e-06 3.577480e-06 3.669691e-06 3.756133e-06 3.837247e-06 3.912093e-06 3.981173e-06 4.043490e-06 4.099614e-06 4.148494e-06 4.190767e-06 4.225338e-06 4.252910e-06 4.272351e-06 4.284434e-06 4.287996e-06 4.283880e-06 4.270902e-06 4.249974e-06 4.219903e-06 4.181668e-06 4.134079e-06 4.078179e-06 4.012794e-06 3.939027e-06 3.855735e-06 3.764074e-06 3.662948e-06 3.553559e-06 3.434872e-06 3.308128e-06 3.172369e-06 3.028864e-06 2.876748e-06 2.717308e-06 2.549784e-06 2.375472e-06 2.193732e-06 2.005853e-06 1.811327e-06 1.611423e-06 1.405779e-06 1.195629e-06 9.807618e-07 7.623650e-07 5.403859e-07 3.159488e-07 8.916444e-08 -1.389204e-07 -3.680311e-07 -5.972123e-07 -8.260264e-07 -1.053623e-06 -1.279407e-06 -1.502645e-06 -1.722591e-06 -1.938642e-06 -2.149910e-06 -2.355934e-06 -2.555696e-06 -2.748884e-06 -2.934370e-06 -3.111994e-06 -3.280537e-06 -3.439998e-06 -3.589084e-06 -3.727957e-06 -3.855271e-06 -3.971353e-06 -4.074828e-06 -4.166181e-06 -4.244034e-06 -4.309028e-06 -4.359805e-06 -4.397154e-06 -4.419762e-06 -4.428555e-06 -4.422288e-06 -4.402016e-06 -4.366583e-06 -4.317156e-06 -4.252691e-06 -4.174452e-06 -4.081525e-06 -3.975253e-06 -3.854868e-06 -3.721772e-06 -3.575360e-06 -3.417071e-06 -3.246472e-06 -3.065018e-06 -2.872457e-06 -2.670240e-06 -2.458298e-06 -2.238053e-06 -2.009624e-06 -1.774382e-06 -1.532630e-06 -1.285667e-06 -1.033976e-06 -7.787620e-07 -5.206793e-07 -2.608204e-07 -6.525355e-14 2.608203e-07 5.206792e-07 7.787618e-07 1.033976e-06 1.285667e-06 1.532630e-06 1.774382e-06 2.009624e-06 2.238053e-06 2.458298e-06 2.670240e-06 2.872458e-06 3.065018e-06 3.246472e-06 3.417071e-06 3.575360e-06 3.721772e-06 3.854868e-06 3.975253e-06 4.081526e-06 4.174452e-06 4.252692e-06 4.317156e-06 4.366583e-06 4.402016e-06 4.422288e-06 4.428555e-06 4.419762e-06 4.397154e-06 4.359805e-06 4.309027e-06 4.244033e-06 4.166180e-06 4.074827e-06 3.971352e-06 3.855271e-06 3.727956e-06 3.589083e-06 3.439998e-06 3.280536e-06 3.111994e-06 2.934370e-06 2.748884e-06 2.555696e-06 2.355934e-06 2.149911e-06 1.938642e-06 1.722591e-06 1.502645e-06 1.279407e-06 1.053623e-06 8.260264e-07 5.972124e-07 3.680313e-07 1.389206e-07 -8.916444e-08 -3.159488e-07 -5.403858e-07 -7.623646e-07 -9.807616e-07 -1.195629e-06 -1.405779e-06 -1.611423e-06 -1.811327e-06 -2.005853e-06 -2.193733e-06 -2.375473e-06 -2.549785e-06 -2.717308e-06 -2.876748e-06 -3.028864e-06 -3.172369e-06 -3.308128e-06 -3.434872e-06 -3.553559e-06 -3.662948e-06 -3.764074e-06 -3.855735e-06 -3.939027e-06 -4.012794e-06 -4.078179e-06 -4.134079e-06 -4.181668e-06 -4.219903e-06 -4.249974e-06 -4.270902e-06 -4.283880e-06 -4.287996e-06 -4.284434e-06 -4.272351e-06 -4.252910e-06 -4.225337e-06 -4.190766e-06 -4.148493e-06 -4.099613e-06 -4.043489e-06 -3.981172e-06 -3.912092e-06 -3.837247e-06 -3.756132e-06 -3.669691e-06 -3.577480e-06 -3.480382e-06 -3.378016e-06 -3.271201e-06 -3.159612e-06 -3.044008e-06 -2.924115e-06 -2.800631e-06 -2.673333e-06 -2.542854e-06 -2.409021e-06 -2.272407e-06 -2.132882e-06 -1.990963e-06 -1.846560e-06 -1.700135e-06 -1.551639e-06 -1.401480e-06 -1.249648e-06 -1.096502e-06 -9.420678e-07 -7.866569e-07 -6.303344e-07 -4.733648e-07 -3.158515e-07 -1.580160e-07 
5.567605e-14 1.582375e-07 3.162888e-07 4.740243e-07 6.311996e-07 7.877405e-07 9.433428e-07 1.097987e-06 1.251307e-06 1.403336e-06 1.553645e-06 1.702323e-06 1.848871e-06 1.993436e-06 2.135448e-06 2.275110e-06 2.411783e-06 2.545728e-06 2.676229e-06 2.803611e-06 2.927079e-06 3.047023e-06 3.162572e-06 3.274180e-06 3.380898e-06 3.483250e-06 3.580211e-06 3.672374e-06 3.758637e-06 3.839671e-06 3.914299e-06 3.983266e-06 4.045330e-06 4.101310e-06 4.149903e-06 4.192006e-06 4.226260e-06 4.253639e-06 4.272738e-06 4.284608e-06 4.287809e-06 4.283464e-06 4.270113e-06 4.248947e-06 4.218498e-06 4.180021e-06 4.132056e-06 4.075917e-06 4.010167e-06 3.936170e-06 3.852532e-06 3.760657e-06 3.659211e-06 3.549631e-06 3.430661e-06 3.303755e-06 3.167755e-06 3.024125e-06 2.871819e-06 2.712295e-06 2.544641e-06 2.370291e-06 2.188483e-06 2.000617e-06 1.806092e-06 1.606255e-06 1.400684e-06 1.190656e-06 9.759372e-07 7.577187e-07 5.359624e-07 3.117593e-07 8.527101e-08 -1.425267e-07 -3.712706e-07 -6.001151e-07 -8.284965e-07 -1.055712e-06 -1.281004e-06 -1.503823e-06 -1.723226e-06 -1.938829e-06 -2.149512e-06 -2.355067e-06 -2.554214e-06 -2.746922e-06 -2.931774e-06 -3.108920e-06 -3.276823e-06 -3.435818e-06 -3.584272e-06 -3.722703e-06 -3.849408e-06 -3.965084e-06 -4.067985e-06 -4.158979e-06 -4.236307e-06 -4.301001e-06 -4.351314e-06 -4.388431e-06 -4.410648e-06 -4.419285e-06 -4.412710e-06 -4.392365e-06 -4.356716e-06 -4.307305e-06 -4.242721e-06 -4.164589e-06 -4.071645e-06 -3.965572e-06 -3.845273e-06 -3.712469e-06 -3.566244e-06 -3.408335e-06 -3.238023e-06 -3.057030e-06 -2.864851e-06 -2.663168e-06 -2.451693e-06 -2.232048e-06 -2.004162e-06 -1.769571e-06 -1.528427e-06 -1.282154e-06 -1.031123e-06 -7.766234e-07 -5.192369e-07 -2.601023e-07 -3.455003e-14 2.601022e-07 5.192369e-07 7.766234e-07 1.031122e-06 1.282154e-06 1.528427e-06 1.769571e-06 2.004162e-06 2.232048e-06 2.451694e-06 2.663169e-06 2.864851e-06 3.057030e-06 3.238023e-06 3.408335e-06 3.566245e-06 3.712469e-06 3.845273e-06 3.965573e-06 4.071645e-06 4.164590e-06 4.242721e-06 4.307305e-06 4.356716e-06 4.392366e-06 4.412710e-06 4.419285e-06 4.410648e-06 4.388430e-06 4.351314e-06 4.301000e-06 4.236306e-06 4.158978e-06 4.067984e-06 3.965083e-06 3.849408e-06 3.722703e-06 3.584272e-06 3.435818e-06 3.276823e-06 3.108920e-06 2.931774e-06 2.746923e-06 2.554214e-06 2.355067e-06 2.149513e-06 1.938829e-06 1.723226e-06 1.503824e-06 1.281004e-06 1.055712e-06 8.284965e-07 6.001150e-07 3.712707e-07 1.425269e-07 -8.527095e-08 -3.117593e-07 -5.359624e-07 -7.577184e-07 -9.759368e-07 -1.190656e-06 -1.400684e-06 -1.606255e-06 -1.806092e-06 -2.000617e-06 -2.188483e-06 -2.370291e-06 -2.544641e-06 -2.712295e-06 -2.871819e-06 -3.024125e-06 -3.167755e-06 -3.303755e-06 -3.430661e-06 -3.549631e-06 -3.659211e-06 -3.760657e-06 -3.852532e-06 -3.936170e-06 -4.010167e-06 -4.075917e-06 -4.132056e-06 -4.180021e-06 -4.218498e-06 -4.248947e-06 -4.270113e-06 -4.283464e-06 -4.287809e-06 -4.284608e-06 -4.272738e-06 -4.253638e-06 -4.226260e-06 -4.192006e-06 -4.149903e-06 -4.101310e-06 -4.045329e-06 -3.983266e-06 -3.914299e-06 -3.839670e-06 -3.758637e-06 -3.672373e-06 -3.580211e-06 -3.483250e-06 -3.380898e-06 -3.274180e-06 -3.162572e-06 -3.047023e-06 -2.927079e-06 -2.803611e-06 -2.676230e-06 -2.545729e-06 -2.411784e-06 -2.275111e-06 -2.135448e-06 -1.993436e-06 -1.848871e-06 -1.702323e-06 -1.553645e-06 -1.403336e-06 -1.251307e-06 -1.097987e-06 -9.433433e-07 -7.877407e-07 -6.311997e-07 -4.740242e-07 -3.162888e-07 -1.582374e-07 
5.088069e-14 1.584574e-07 3.167240e-07 4.746803e-07 6.320625e-07 7.888212e-07 9.446182e-07 1.099474e-06 1.252972e-06 1.405203e-06 1.555671e-06 1.704536e-06 1.851222e-06 1.995957e-06 2.138081e-06 2.277896e-06 2.414652e-06 2.548727e-06 2.679281e-06 2.806769e-06 2.930259e-06 3.050284e-06 3.165821e-06 3.277483e-06 3.384156e-06 3.486536e-06 3.583418e-06 3.675582e-06 3.761734e-06 3.842742e-06 3.917228e-06 3.986145e-06 4.048037e-06 4.103945e-06 4.152341e-06 4.194351e-06 4.228385e-06 4.255655e-06 4.274517e-06 4.286265e-06 4.289217e-06 4.284742e-06 4.271135e-06 4.249835e-06 4.219131e-06 4.180523e-06 4.132309e-06 4.076047e-06 4.010063e-06 3.935957e-06 3.852106e-06 3.760142e-06 3.658514e-06 3.548870e-06 3.429753e-06 3.302816e-06 3.166713e-06 3.023087e-06 2.870728e-06 2.711250e-06 2.543598e-06 2.369339e-06 2.187595e-06 1.999867e-06 1.805469e-06 1.605821e-06 1.400442e-06 1.190654e-06 9.761940e-07 7.582655e-07 5.368338e-07 3.129686e-07 8.686857e-08 -1.405467e-07 -3.688429e-07 -5.972656e-07 -8.251457e-07 -1.051907e-06 -1.276651e-06 -1.498990e-06 -1.717807e-06 -1.932913e-06 -2.142985e-06 -2.348037e-06 -2.546556e-06 -2.738766e-06 -2.922988e-06 -3.099652e-06 -3.266936e-06 -3.425477e-06 -3.573337e-06 -3.711355e-06 -3.837503e-06 -3.952818e-06 -4.055215e-06 -4.145912e-06 -4.222802e-06 -4.287273e-06 -4.337225e-06 -4.374204e-06 -4.396147e-06 -4.404739e-06 -4.397989e-06 -4.377697e-06 -4.341978e-06 -4.292724e-06 -4.228180e-06 -4.150311e-06 -4.057521e-06 -3.951816e-06 -3.831786e-06 -3.699453e-06 -3.553611e-06 -3.396271e-06 -3.226449e-06 -3.046119e-06 -2.854532e-06 -2.653594e-06 -2.442805e-06 -2.223975e-06 -1.996856e-06 -1.763140e-06 -1.522832e-06 -1.277478e-06 -1.027337e-06 -7.737837e-07 -5.173271e-07 -2.591501e-07 -1.123422e-13 2.591500e-07 5.173271e-07 7.737837e-07 1.027337e-06 1.277478e-06 1.522833e-06 1.763140e-06 1.996857e-06 2.223975e-06 2.442805e-06 2.653595e-06 2.854532e-06 3.046119e-06 3.226450e-06 3.396271e-06 3.553611e-06 3.699453e-06 3.831786e-06 3.951816e-06 4.057521e-06 4.150311e-06 4.228180e-06 4.292723e-06 4.341978e-06 4.377698e-06 4.397989e-06 4.404739e-06 4.396147e-06 4.374203e-06 4.337225e-06 4.287272e-06 4.222801e-06 4.145911e-06 4.055214e-06 3.952818e-06 3.837503e-06 3.711354e-06 3.573337e-06 3.425477e-06 3.266936e-06 3.099652e-06 2.922988e-06 2.738767e-06 2.546557e-06 2.348037e-06 2.142985e-06 1.932914e-06 1.717808e-06 1.498990e-06 1.276651e-06 1.051907e-06 8.251458e-07 5.972656e-07 3.688431e-07 1.405469e-07 -8.686854e-08 -3.129686e-07 -5.368337e-07 -7.582652e-07 -9.761936e-07 -1.190654e-06 -1.400442e-06 -1.605821e-06 -1.805469e-06 -1.999867e-06 -2.187595e-06 -2.369340e-06 -2.543598e-06 -2.711250e-06 -2.870729e-06 -3.023087e-06 -3.166713e-06 -3.302816e-06 -3.429753e-06 -3.548870e-06 -3.658514e-06 -3.760142e-06 -3.852106e-06 -3.935957e-06 -4.010063e-06 -4.076047e-06 -4.132309e-06 -4.180523e-06 -4.219131e-06 -4.249835e-06 -4.271135e-06 -4.284742e-06 -4.289216e-06 -4.286264e-06 -4.274517e-06 -4.255654e-06 -4.228385e-06 -4.194350e-06 -4.152340e-06 -4.103944e-06 -4.048036e-06 -3.986145e-06 -3.917227e-06 -3.842742e-06 -3.761734e-06 -3.675582e-06 -3.583418e-06 -3.486536e-06 -3.384156e-06 -3.277483e-06 -3.165821e-06 -3.050284e-06 -2.930259e-06 -2.806769e-06 -2.679281e-06 -2.548727e-06 -2.414652e-06 -2.277896e-06 -2.138081e-06 -1.995957e-06 -1.851222e-06 -1.704537e-06 -1.555671e-06 -1.405203e-06 -1.252972e-06 -1.099474e-06 -9.446186e-07 -7.888215e-07 -6.320626e-07 -4.746803e-07 -3.167239e-07 -1.584573e-07 
6.609382e-14 1.587671e-07 3.173385e-07 4.756062e-07 6.332848e-07 7.903534e-07 9.464355e-07 1.101596e-06 1.255365e-06 1.407893e-06 1.558614e-06 1.707767e-06 1.854684e-06 1.999694e-06 2.142027e-06 2.282099e-06 2.419040e-06 2.553354e-06 2.684065e-06 2.811773e-06 2.935391e-06 3.055614e-06 3.171249e-06 3.283087e-06 3.389827e-06 3.492359e-06 3.589276e-06 3.681568e-06 3.767725e-06 3.848838e-06 3.923298e-06 3.992298e-06 4.054136e-06 4.110105e-06 4.158420e-06 4.200471e-06 4.234402e-06 4.261694e-06 4.280434e-06 4.292189e-06 4.295003e-06 4.290525e-06 4.276769e-06 4.255457e-06 4.224598e-06 4.185974e-06 4.137606e-06 4.081328e-06 4.015195e-06 3.941077e-06 3.857090e-06 3.765124e-06 3.663377e-06 3.553744e-06 3.434534e-06 3.307624e-06 3.171458e-06 3.027882e-06 2.875495e-06 2.716091e-06 2.548452e-06 2.374295e-06 2.192607e-06 2.005012e-06 1.810717e-06 1.611233e-06 1.406007e-06 1.196414e-06 9.821578e-07 7.644553e-07 5.432766e-07 3.196669e-07 9.386768e-08 -1.332657e-07 -3.612168e-07 -5.893347e-07 -8.168299e-07 -1.043268e-06 -1.267594e-06 -1.489599e-06 -1.707972e-06 -1.922740e-06 -2.132349e-06 -2.337065e-06 -2.535114e-06 -2.727002e-06 -2.910755e-06 -3.087117e-06 -3.253946e-06 -3.412216e-06 -3.559645e-06 -3.697432e-06 -3.823185e-06 -3.938319e-06 -4.040369e-06 -4.130944e-06 -4.207544e-06 -4.271960e-06 -4.321692e-06 -4.358689e-06 -4.380490e-06 -4.389180e-06 -4.382373e-06 -4.362265e-06 -4.326580e-06 -4.277598e-06 -4.213185e-06 -4.135677e-06 -4.043116e-06 -3.937863e-06 -3.818162e-06 -3.686367e-06 -3.540951e-06 -3.384232e-06 -3.214931e-06 -3.035298e-06 -2.844320e-06 -2.644147e-06 -2.434048e-06 -2.216042e-06 -1.989686e-06 -1.756841e-06 -1.517357e-06 -1.272908e-06 -1.023639e-06 -7.710137e-07 -5.154639e-07 -2.582219e-07 -1.530960e-13 2.582218e-07 5.154638e-07 7.710134e-07 1.023639e-06 1.272908e-06 1.517357e-06 1.756841e-06 1.989687e-06 2.216043e-06 2.434049e-06 2.644148e-06 2.844320e-06 3.035298e-06 3.214931e-06 3.384232e-06 3.540951e-06 3.686367e-06 3.818162e-06 3.937863e-06 4.043117e-06 4.135678e-06 4.213185e-06 4.277598e-06 4.326580e-06 4.362265e-06 4.382373e-06 4.389180e-06 4.380489e-06 4.358688e-06 4.321691e-06 4.271959e-06 4.207543e-06 4.130943e-06 4.040368e-06 3.938319e-06 3.823185e-06 3.697431e-06 3.559644e-06 3.412216e-06 3.253945e-06 3.087117e-06 2.910755e-06 2.727002e-06 2.535114e-06 2.337065e-06 2.132349e-06 1.922740e-06 1.707972e-06 1.489599e-06 1.267594e-06 1.043268e-06 8.168300e-07 5.893347e-07 3.612169e-07 1.332659e-07 -9.386757e-08 -3.196670e-07 -5.432766e-07 -7.644549e-07 -9.821574e-07 -1.196414e-06 -1.406007e-06 -1.611233e-06 -1.810717e-06 -2.005012e-06 -2.192607e-06 -2.374295e-06 -2.548452e-06 -2.716092e-06 -2.875496e-06 -3.027882e-06 -3.171458e-06 -3.307624e-06 -3.434534e-06 -3.553744e-06 -3.663377e-06 -3.765124e-06 -3.857090e-06 -3.941077e-06 -4.015195e-06 -4.081328e-06 -4.137606e-06 -4.185974e-06 -4.224598e-06 -4.255457e-06 -4.276769e-06 -4.290524e-06 -4.295003e-06 -4.292189e-06 -4.280434e-06 -4.261694e-06 -4.234401e-06 -4.200470e-06 -4.158419e-06 -4.110104e-06 -4.054135e-06 -3.992297e-06 -3.923298e-06 -3.848838e-06 -3.767724e-06 -3.681568e-06 -3.589276e-06 -3.492359e-06 -3.389827e-06 -3.283087e-06 -3.171249e-06 -3.055614e-06 -2.935391e-06 -2.811773e-06 -2.684066e-06 -2.553355e-06 -2.419040e-06 -2.282100e-06 -2.142027e-06 -1.999694e-06 -1.854685e-06 -1.707767e-06 -1.558615e-06 -1.407893e-06 -1.255365e-06 -1.101596e-06 -9.464358e-07 -7.903535e-07 -6.332848e-07 -4.756060e-07 -3.173384e-07 -1.587670e-07 
9.277027e-14 1.590758e-07 3.179517e-07 4.765297e-07 6.345061e-07 7.918843e-07 9.482548e-07 1.103722e-06 1.257768e-06 1.410597e-06 1.561581e-06 1.711027e-06 1.858191e-06 2.003484e-06 2.146046e-06 2.286390e-06 2.423540e-06 2.558113e-06 2.689012e-06 2.816964e-06 2.940747e-06 3.061199e-06 3.176975e-06 3.289025e-06 3.395883e-06 3.498611e-06 3.595622e-06 3.688093e-06 3.774320e-06 3.855596e-06 3.930105e-06 3.999251e-06 4.061117e-06 4.117218e-06 4.165544e-06 4.207714e-06 4.241640e-06 4.269041e-06 4.287762e-06 4.299620e-06 4.302407e-06 4.298024e-06 4.284237e-06 4.263021e-06 4.232130e-06 4.193603e-06 4.145209e-06 4.089033e-06 4.022884e-06 3.948878e-06 3.864891e-06 3.773049e-06 3.671323e-06 3.561831e-06 3.442666e-06 3.315918e-06 3.179828e-06 3.036436e-06 2.884161e-06 2.724965e-06 2.557475e-06 2.383555e-06 2.202057e-06 2.014725e-06 1.820664e-06 1.621471e-06 1.416523e-06 1.207248e-06 9.933113e-07 7.759527e-07 5.551347e-07 3.318910e-07 1.064907e-07 -1.202588e-07 -3.477775e-07 -5.754988e-07 -8.025338e-07 -1.028569e-06 -1.252414e-06 -1.474017e-06 -1.691896e-06 -1.906271e-06 -2.115383e-06 -2.319724e-06 -2.517284e-06 -2.708824e-06 -2.892106e-06 -3.068158e-06 -3.234546e-06 -3.392553e-06 -3.539582e-06 -3.677164e-06 -3.802572e-06 -3.917567e-06 -4.019335e-06 -4.109848e-06 -4.186243e-06 -4.250681e-06 -4.300293e-06 -4.337404e-06 -4.359180e-06 -4.368081e-06 -4.361350e-06 -4.341556e-06 -4.306054e-06 -4.257489e-06 -4.193370e-06 -4.116385e-06 -4.024232e-06 -3.919604e-06 -3.800422e-06 -3.669353e-06 -3.524567e-06 -3.368669e-06 -3.200102e-06 -3.021377e-06 -2.831232e-06 -2.632046e-06 -2.422868e-06 -2.205915e-06 -1.980559e-06 -1.748821e-06 -1.510402e-06 -1.267101e-06 -1.018950e-06 -7.674980e-07 -5.131035e-07 -2.570447e-07 -1.200581e-13 2.570447e-07 5.131034e-07 7.674977e-07 1.018950e-06 1.267101e-06 1.510402e-06 1.748821e-06 1.980559e-06 2.205915e-06 2.422868e-06 2.632046e-06 2.831232e-06 3.021377e-06 3.200102e-06 3.368669e-06 3.524567e-06 3.669354e-06 3.800423e-06 3.919605e-06 4.024232e-06 4.116386e-06 4.193371e-06 4.257489e-06 4.306054e-06 4.341556e-06 4.361350e-06 4.368081e-06 4.359179e-06 4.337403e-06 4.300293e-06 4.250680e-06 4.186242e-06 4.109847e-06 4.019335e-06 3.917566e-06 3.802571e-06 3.677163e-06 3.539582e-06 3.392552e-06 3.234545e-06 3.068158e-06 2.892106e-06 2.708824e-06 2.517285e-06 2.319724e-06 2.115384e-06 1.906271e-06 1.691896e-06 1.474017e-06 1.252414e-06 1.028569e-06 8.025338e-07 5.754987e-07 3.477776e-07 1.202591e-07 -1.064905e-07 -3.318911e-07 -5.551348e-07 -7.759524e-07 -9.933110e-07 -1.207248e-06 -1.416523e-06 -1.621471e-06 -1.820664e-06 -2.014725e-06 -2.202057e-06 -2.383555e-06 -2.557476e-06 -2.724966e-06 -2.884161e-06 -3.036436e-06 -3.179828e-06 -3.315918e-06 -3.442666e-06 -3.561831e-06 -3.671322e-06 -3.773049e-06 -3.864891e-06 -3.948878e-06 -4.022884e-06 -4.089033e-06 -4.145209e-06 -4.193603e-06 -4.232130e-06 -4.263021e-06 -4.284237e-06 -4.298024e-06 -4.302406e-06 -4.299620e-06 -4.287762e-06 -4.269041e-06 -4.241639e-06 -4.207714e-06 -4.165543e-06 -4.117217e-06 -4.061117e-06 -3.999250e-06 -3.930104e-06 -3.855595e-06 -3.774320e-06 -3.688092e-06 -3.595621e-06 -3.498611e-06 -3.395883e-06 -3.289025e-06 -3.176975e-06 -3.061198e-06 -2.940747e-06 -2.816964e-06 -2.689013e-06 -2.558114e-06 -2.423540e-06 -2.286391e-06 -2.146046e-06 -2.003484e-06 -1.858191e-06 -1.711027e-06 -1.561581e-06 -1.410597e-06 -1.257768e-06 -1.103722e-06 -9.482551e-07 -7.918844e-07 -6.345061e-07 -4.765295e-07 -3.179516e-07 -1.590756e-07 
7.583795e-14 1.594747e-07 3.187450e-07 4.777246e-07 6.360891e-07 7.938695e-07 9.506199e-07 1.106488e-06 1.260903e-06 1.414130e-06 1.565472e-06 1.715311e-06 1.862819e-06 2.008499e-06 2.151389e-06 2.292113e-06 2.429573e-06 2.564517e-06 2.695708e-06 2.824019e-06 2.948076e-06 3.068875e-06 3.184905e-06 3.297291e-06 3.404380e-06 3.507430e-06 3.604652e-06 3.697432e-06 3.783850e-06 3.865421e-06 3.940099e-06 4.009527e-06 4.071543e-06 4.127913e-06 4.176369e-06 4.218797e-06 4.252836e-06 4.280484e-06 4.299305e-06 4.311398e-06 4.314273e-06 4.310118e-06 4.296411e-06 4.275415e-06 4.244599e-06 4.206289e-06 4.157967e-06 4.102005e-06 4.035932e-06 3.962140e-06 3.878233e-06 3.786607e-06 3.684972e-06 3.575700e-06 3.456640e-06 3.330117e-06 3.194149e-06 3.050990e-06 2.898857e-06 2.739904e-06 2.572578e-06 2.398909e-06 2.217601e-06 2.030529e-06 1.836684e-06 1.637760e-06 1.433054e-06 1.224057e-06 1.010388e-06 7.933119e-07 5.727865e-07 3.498286e-07 1.247424e-07 -1.017218e-07 -3.289083e-07 -5.563488e-07 -7.830383e-07 -1.008803e-06 -1.232294e-06 -1.453642e-06 -1.671167e-06 -1.885308e-06 -2.094074e-06 -2.298209e-06 -2.495437e-06 -2.686806e-06 -2.869780e-06 -3.045705e-06 -3.211818e-06 -3.369748e-06 -3.516545e-06 -3.654107e-06 -3.779334e-06 -3.894375e-06 -3.996023e-06 -4.086652e-06 -4.162996e-06 -4.227628e-06 -4.277266e-06 -4.314653e-06 -4.336538e-06 -4.345801e-06 -4.339269e-06 -4.319925e-06 -4.284716e-06 -4.236690e-06 -4.172961e-06 -4.096605e-06 -4.004939e-06 -3.901027e-06 -3.782430e-06 -3.652161e-06 -3.508054e-06 -3.353034e-06 -3.185238e-06 -3.007463e-06 -2.818172e-06 -2.620000e-06 -2.411755e-06 -2.195870e-06 -1.971514e-06 -1.740888e-06 -1.503527e-06 -1.261369e-06 -1.014323e-06 -7.640322e-07 -5.107765e-07 -2.558851e-07 -1.419191e-14 2.558851e-07 5.107764e-07 7.640321e-07 1.014323e-06 1.261369e-06 1.503527e-06 1.740888e-06 1.971514e-06 2.195870e-06 2.411755e-06 2.620001e-06 2.818173e-06 3.007463e-06 3.185238e-06 3.353034e-06 3.508054e-06 3.652161e-06 3.782430e-06 3.901028e-06 4.004939e-06 4.096605e-06 4.172962e-06 4.236690e-06 4.284716e-06 4.319925e-06 4.339269e-06 4.345801e-06 4.336537e-06 4.314652e-06 4.277265e-06 4.227627e-06 4.162995e-06 4.086651e-06 3.996022e-06 3.894374e-06 3.779333e-06 3.654106e-06 3.516544e-06 3.369748e-06 3.211817e-06 3.045705e-06 2.869780e-06 2.686807e-06 2.495437e-06 2.298209e-06 2.094074e-06 1.885308e-06 1.671168e-06 1.453642e-06 1.232294e-06 1.008803e-06 7.830383e-07 5.563488e-07 3.289084e-07 1.017219e-07 -1.247423e-07 -3.498286e-07 -5.727865e-07 -7.933116e-07 -1.010387e-06 -1.224057e-06 -1.433054e-06 -1.637761e-06 -1.836684e-06 -2.030529e-06 -2.217601e-06 -2.398909e-06 -2.572579e-06 -2.739904e-06 -2.898857e-06 -3.050990e-06 -3.194150e-06 -3.330117e-06 -3.456640e-06 -3.575700e-06 -3.684972e-06 -3.786607e-06 -3.878233e-06 -3.962140e-06 -4.035932e-06 -4.102005e-06 -4.157967e-06 -4.206289e-06 -4.244599e-06 -4.275415e-06 -4.296411e-06 -4.310118e-06 -4.314273e-06 -4.311398e-06 -4.299305e-06 -4.280483e-06 -4.252835e-06 -4.218796e-06 -4.176368e-06 -4.127912e-06 -4.071542e-06 -4.009526e-06 -3.940098e-06 -3.865420e-06 -3.783849e-06 -3.697432e-06 -3.604652e-06 -3.507430e-06 -3.404380e-06 -3.297291e-06 -3.184905e-06 -3.068875e-06 -2.948076e-06 -2.824020e-06 -2.695709e-06 -2.564517e-06 -2.429574e-06 -2.292113e-06 -2.151389e-06 -2.008499e-06 -1.862819e-06 -1.715311e-06 -1.565472e-06 -1.414131e-06 -1.260903e-06 -1.106488e-06 -9.506202e-07 -7.938697e-07 -6.360891e-07 -4.777245e-07 -3.187449e-07 -1.594746e-07 
5.333782e-14 1.598743e-07 3.195404e-07 4.789222e-07 6.376776e-07 7.958617e-07 9.529968e-07 1.109269e-06 1.264062e-06 1.417692e-06 1.569403e-06 1.719643e-06 1.867511e-06 2.013590e-06 2.156829e-06 2.297948e-06 2.435746e-06 2.571080e-06 2.702597e-06 2.831294e-06 2.955663e-06 3.076843e-06 3.193171e-06 3.305931e-06 3.413306e-06 3.516724e-06 3.614217e-06 3.707358e-06 3.794034e-06 3.875960e-06 3.950883e-06 4.020660e-06 4.082910e-06 4.139623e-06 4.188302e-06 4.231068e-06 4.265322e-06 4.293304e-06 4.312332e-06 4.324757e-06 4.327834e-06 4.324011e-06 4.310503e-06 4.289839e-06 4.259223e-06 4.221246e-06 4.173128e-06 4.117503e-06 4.051640e-06 3.978190e-06 3.894503e-06 3.803226e-06 3.701823e-06 3.592907e-06 3.474095e-06 3.347937e-06 3.212235e-06 3.069450e-06 2.917603e-06 2.759032e-06 2.592014e-06 2.418737e-06 2.237758e-06 2.051086e-06 1.857592e-06 1.659074e-06 1.454740e-06 1.246151e-06 1.032874e-06 8.162070e-07 5.960894e-07 3.735362e-07 1.488701e-07 -7.719805e-08 -3.039570e-07 -5.310163e-07 -7.572767e-07 -9.826808e-07 -1.205749e-06 -1.426764e-06 -1.643880e-06 -1.857723e-06 -2.066100e-06 -2.269982e-06 -2.466853e-06 -2.658020e-06 -2.840678e-06 -3.016461e-06 -3.182307e-06 -3.340163e-06 -3.486754e-06 -3.624318e-06 -3.749410e-06 -3.864536e-06 -3.966127e-06 -4.056933e-06 -4.133308e-06 -4.198212e-06 -4.247977e-06 -4.285737e-06 -4.307852e-06 -4.317593e-06 -4.311398e-06 -4.292638e-06 -4.257877e-06 -4.210544e-06 -4.147376e-06 -4.071818e-06 -3.980826e-06 -3.877817e-06 -3.760006e-06 -3.630737e-06 -3.487525e-06 -3.333599e-06 -3.166800e-06 -2.990203e-06 -2.802006e-06 -2.605086e-06 -2.398020e-06 -2.183452e-06 -1.960352e-06 -1.731092e-06 -1.495052e-06 -1.254298e-06 -1.008622e-06 -7.597595e-07 -5.079111e-07 -2.544557e-07 -4.514327e-14 2.544557e-07 5.079110e-07 7.597594e-07 1.008622e-06 1.254298e-06 1.495052e-06 1.731092e-06 1.960352e-06 2.183452e-06 2.398021e-06 2.605086e-06 2.802006e-06 2.990203e-06 3.166800e-06 3.333599e-06 3.487526e-06 3.630738e-06 3.760006e-06 3.877817e-06 3.980827e-06 4.071818e-06 4.147376e-06 4.210544e-06 4.257877e-06 4.292638e-06 4.311398e-06 4.317593e-06 4.307852e-06 4.285737e-06 4.247977e-06 4.198211e-06 4.133307e-06 4.056932e-06 3.966127e-06 3.864535e-06 3.749409e-06 3.624318e-06 3.486754e-06 3.340163e-06 3.182306e-06 3.016460e-06 2.840678e-06 2.658021e-06 2.466853e-06 2.269982e-06 2.066100e-06 1.857723e-06 1.643880e-06 1.426764e-06 1.205749e-06 9.826807e-07 7.572768e-07 5.310162e-07 3.039572e-07 7.719821e-08 -1.488701e-07 -3.735362e-07 -5.960893e-07 -8.162067e-07 -1.032874e-06 -1.246151e-06 -1.454740e-06 -1.659074e-06 -1.857592e-06 -2.051086e-06 -2.237758e-06 -2.418737e-06 -2.592015e-06 -2.759033e-06 -2.917603e-06 -3.069450e-06 -3.212236e-06 -3.347937e-06 -3.474095e-06 -3.592907e-06 -3.701823e-06 -3.803226e-06 -3.894503e-06 -3.978190e-06 -4.051640e-06 -4.117503e-06 -4.173128e-06 -4.221246e-06 -4.259223e-06 -4.289839e-06 -4.310503e-06 -4.324011e-06 -4.327834e-06 -4.324757e-06 -4.312332e-06 -4.293303e-06 -4.265321e-06 -4.231067e-06 -4.188301e-06 -4.139622e-06 -4.082909e-06 -4.020659e-06 -3.950883e-06 -3.875959e-06 -3.794034e-06 -3.707358e-06 -3.614217e-06 -3.516724e-06 -3.413306e-06 -3.305931e-06 -3.193171e-06 -3.076843e-06 -2.955663e-06 -2.831294e-06 -2.702598e-06 -2.571081e-06 -2.435746e-06 -2.297948e-06 -2.156829e-06 -2.013590e-06 -1.867512e-06 -1.719644e-06 -1.569403e-06 -1.417692e-06 -1.264062e-06 -1.109269e-06 -9.529971e-07 -7.958618e-07 -6.376777e-07 -4.789221e-07 -3.195404e-07 -1.598743e-07 