# vtk DataFile Version 2.0
Comment goes here
ASCII

DATASET STRUCTURED_POINTS
FIELD FieldData 1
TIME 1 1 double
0.03000000
DIMENSIONS    256   256   1

ORIGIN    0.000   0.000   0.000
SPACING   0.0039062 0.0039062   1.000

POINT_DATA   65536
SCALARS Omega double
LOOKUP_TABLE default

7.926800e-14 -3.825689e-09 -7.645182e-09 -1.148666e-08 -1.530919e-08 -1.917571e-08 -2.300945e-08 -2.690939e-08 -3.076188e-08 -3.470276e-08 -3.857944e-08 -4.256727e-08 -4.647173e-08 -5.051046e-08 -5.444411e-08 -5.853526e-08 -6.249642e-08 -6.663853e-08 -7.062255e-08 -7.481106e-08 -7.880996e-08 -8.303681e-08 -8.703870e-08 -9.129171e-08 -9.528091e-08 -9.954398e-08 -1.035011e-07 -1.077537e-07 -1.116547e-07 -1.158721e-07 -1.196896e-07 -1.238426e-07 -1.275450e-07 -1.315999e-07 -1.351518e-07 -1.390710e-07 -1.424338e-07 -1.461757e-07 -1.493076e-07 -1.528272e-07 -1.556843e-07 -1.589337e-07 -1.614703e-07 -1.644000e-07 -1.665692e-07 -1.691279e-07 -1.708834e-07 -1.730196e-07 -1.743154e-07 -1.759787e-07 -1.767712e-07 -1.779127e-07 -1.781615e-07 -1.787358e-07 -1.784051e-07 -1.783712e-07 -1.774305e-07 -1.767533e-07 -1.751790e-07 -1.738305e-07 -1.716074e-07 -1.695684e-07 -1.666902e-07 -1.639507e-07 -1.604211e-07 -1.569823e-07 -1.528162e-07 -1.486905e-07 -1.439140e-07 -1.391263e-07 -1.337774e-07 -1.283653e-07 -1.224942e-07 -1.165081e-07 -1.101765e-07 -1.036796e-07 -9.696077e-08 -9.002831e-08 -8.300589e-08 -7.572448e-08 -6.849178e-08 -6.095837e-08 -5.361625e-08 -4.593618e-08 -3.859213e-08 -3.087760e-08 -2.364310e-08 -1.601098e-08 -8.999817e-09 -1.569380e-09 5.105428e-09 1.221514e-08 1.844304e-08 2.511574e-08 3.079190e-08 3.691698e-08 4.194424e-08 4.741890e-08 5.171071e-08 5.644301e-08 5.992555e-08 6.383694e-08 6.645090e-08 6.947737e-08 7.118049e-08 7.327577e-08 7.404360e-08 7.517960e-08 7.500642e-08 7.517512e-08 7.407554e-08 7.328834e-08 7.129578e-08 6.958443e-08 6.675223e-08 6.416849e-08 6.056830e-08 5.718285e-08 5.290404e-08 4.880484e-08 4.395089e-08 3.924147e-08 3.393017e-08 2.872751e-08 2.308697e-08 1.751881e-08 1.168476e-08 5.886924e-09 -7.826854e-14 -5.887136e-09 -1.168501e-08 -1.751905e-08 -2.308717e-08 -2.872760e-08 -3.393004e-08 -3.924115e-08 -4.395064e-08 -4.880464e-08 -5.290376e-08 -5.718278e-08 -6.056838e-08 -6.416834e-08 -6.675196e-08 -6.958417e-08 -7.129554e-08 -7.328815e-08 -7.407529e-08 -7.517513e-08 -7.500667e-08 -7.517986e-08 -7.404353e-08 -7.327560e-08 -7.118039e-08 -6.947726e-08 -6.645076e-08 -6.383676e-08 -5.992567e-08 -5.644324e-08 -5.171094e-08 -4.741933e-08 -4.194456e-08 -3.691723e-08 -3.079235e-08 -2.511611e-08 -1.844326e-08 -1.221533e-08 -5.105564e-09 1.569282e-09 8.999781e-09 1.601102e-08 2.364323e-08 3.087771e-08 3.859226e-08 4.593625e-08 5.361631e-08 6.095843e-08 6.849178e-08 7.572448e-08 8.300588e-08 9.002817e-08 9.696065e-08 1.036795e-07 1.101765e-07 1.165081e-07 1.224942e-07 1.283654e-07 1.337775e-07 1.391264e-07 1.439142e-07 1.486905e-07 1.528162e-07 1.569824e-07 1.604212e-07 1.639506e-07 1.666901e-07 1.695683e-07 1.716073e-07 1.738303e-07 1.751788e-07 1.767531e-07 1.774304e-07 1.783711e-07 1.784051e-07 1.787360e-07 1.781616e-07 1.779126e-07 1.767711e-07 1.759787e-07 1.743154e-07 1.730195e-07 1.708833e-07 1.691280e-07 1.665692e-07 1.643998e-07 1.614702e-07 1.589338e-07 1.556843e-07 1.528272e-07 1.493076e-07 1.461758e-07 1.424342e-07 1.390714e-07 1.351523e-07 1.316003e-07 1.275453e-07 1.238429e-07 1.196899e-07 1.158724e-07 1.116549e-07 1.077536e-07 1.035009e-07 9.954392e-08 9.528085e-08 9.129161e-08 8.703850e-08 8.303663e-08 7.880994e-08 7.481109e-08 7.062247e-08 6.663838e-08 6.249620e-08 5.853488e-08 5.444392e-08 5.051048e-08 4.647172e-08 4.256706e-08 3.857915e-08 3.470261e-08 3.076186e-08 2.690944e-08 2.300939e-08 1.917566e-08 1.530942e-08 1.148693e-08 7.645390e-09 3.825903e-09 
1.939251e-14 -3.714454e-09 -7.424309e-09 -1.115070e-08 -1.486334e-08 -1.860880e-08 -2.233022e-08 -2.610133e-08 -2.983706e-08 -3.363907e-08 -3.739270e-08 -4.122996e-08 -4.500310e-08 -4.887767e-08 -5.267010e-08 -5.658195e-08 -6.039037e-08 -6.433644e-08 -6.815476e-08 -7.212934e-08 -7.594829e-08 -7.994226e-08 -8.374894e-08 -8.774945e-08 -9.152742e-08 -9.551779e-08 -9.924716e-08 -1.032069e-07 -1.068635e-07 -1.107681e-07 -1.143247e-07 -1.181458e-07 -1.215713e-07 -1.252763e-07 -1.285362e-07 -1.320893e-07 -1.351465e-07 -1.385082e-07 -1.413227e-07 -1.444506e-07 -1.469808e-07 -1.498306e-07 -1.520335e-07 -1.545591e-07 -1.563912e-07 -1.585458e-07 -1.599643e-07 -1.617011e-07 -1.626642e-07 -1.639377e-07 -1.644062e-07 -1.651736e-07 -1.651119e-07 -1.653330e-07 -1.647104e-07 -1.643505e-07 -1.631415e-07 -1.621714e-07 -1.603578e-07 -1.587555e-07 -1.563269e-07 -1.540789e-07 -1.510341e-07 -1.481358e-07 -1.444831e-07 -1.409403e-07 -1.366984e-07 -1.325280e-07 -1.277264e-07 -1.229565e-07 -1.176360e-07 -1.123064e-07 -1.065186e-07 -1.006812e-07 -9.448855e-08 -8.820638e-08 -8.168174e-08 -7.502863e-08 -6.825397e-08 -6.131417e-08 -5.437987e-08 -4.724609e-08 -4.024893e-08 -3.302139e-08 -2.606351e-08 -1.884762e-08 -1.203435e-08 -4.939302e-09 1.623244e-09 8.486781e-09 1.469347e-08 2.121602e-08 2.696517e-08 3.304082e-08 3.823663e-08 4.376477e-08 4.831942e-08 5.320797e-08 5.704388e-08 6.121103e-08 6.426307e-08 6.763972e-08 6.985644e-08 7.238740e-08 7.373333e-08 7.537988e-08 7.583619e-08 7.657635e-08 7.614179e-08 7.597208e-08 7.466311e-08 7.359758e-08 7.144908e-08 6.952042e-08 6.658423e-08 6.384346e-08 6.018852e-08 5.670304e-08 5.241389e-08 4.826696e-08 4.344109e-08 3.872996e-08 3.347716e-08 2.831086e-08 2.275057e-08 1.724803e-08 1.150628e-08 5.793202e-09 -7.548610e-14 -5.793291e-09 -1.150630e-08 -1.724828e-08 -2.275084e-08 -2.831094e-08 -3.347706e-08 -3.872965e-08 -4.344079e-08 -4.826658e-08 -5.241363e-08 -5.670304e-08 -6.018850e-08 -6.384326e-08 -6.658425e-08 -6.952034e-08 -7.144874e-08 -7.359733e-08 -7.466290e-08 -7.597182e-08 -7.614180e-08 -7.657661e-08 -7.583613e-08 -7.537969e-08 -7.373313e-08 -7.238726e-08 -6.985625e-08 -6.763949e-08 -6.426319e-08 -6.121130e-08 -5.704415e-08 -5.320838e-08 -4.831978e-08 -4.376512e-08 -3.823705e-08 -3.304109e-08 -2.696549e-08 -2.121627e-08 -1.469359e-08 -8.486800e-09 -1.623194e-09 4.939310e-09 1.203433e-08 1.884777e-08 2.606367e-08 3.302146e-08 4.024897e-08 4.724613e-08 5.437977e-08 6.131421e-08 6.825404e-08 7.502863e-08 8.168168e-08 8.820622e-08 9.448853e-08 1.006812e-07 1.065187e-07 1.123065e-07 1.176361e-07 1.229567e-07 1.277266e-07 1.325281e-07 1.366984e-07 1.409403e-07 1.444830e-07 1.481357e-07 1.510340e-07 1.540788e-07 1.563268e-07 1.587553e-07 1.603576e-07 1.621712e-07 1.631414e-07 1.643504e-07 1.647104e-07 1.653332e-07 1.651120e-07 1.651735e-07 1.644063e-07 1.639377e-07 1.626640e-07 1.617009e-07 1.599641e-07 1.585458e-07 1.563912e-07 1.545589e-07 1.520333e-07 1.498306e-07 1.469809e-07 1.444507e-07 1.413227e-07 1.385083e-07 1.351468e-07 1.320897e-07 1.285367e-07 1.252767e-07 1.215716e-07 1.181461e-07 1.143250e-07 1.107684e-07 1.068636e-07 1.032068e-07 9.924701e-08 9.551772e-08 9.152734e-08 8.774932e-08 8.374872e-08 7.994206e-08 7.594826e-08 7.212933e-08 6.815464e-08 6.433624e-08 6.039004e-08 5.658154e-08 5.266989e-08 4.887766e-08 4.500306e-08 4.122972e-08 3.739244e-08 3.363890e-08 2.983695e-08 2.610130e-08 2.233018e-08 1.860876e-08 1.486349e-08 1.115093e-08 7.424542e-09 3.714603e-09 
2.964416e-14 -3.747514e-09 -7.491704e-09 -1.124743e-08 -1.499301e-08 -1.876150e-08 -2.251204e-08 -2.629736e-08 -3.005581e-08 -3.386084e-08 -3.762843e-08 -4.145512e-08 -4.523105e-08 -4.907909e-08 -5.286092e-08 -5.672821e-08 -6.051042e-08 -6.439188e-08 -6.816636e-08 -7.205441e-08 -7.581002e-08 -7.969388e-08 -8.341616e-08 -8.728158e-08 -9.095252e-08 -9.478172e-08 -9.838030e-08 -1.021521e-07 -1.056530e-07 -1.093422e-07 -1.127180e-07 -1.162962e-07 -1.195153e-07 -1.229502e-07 -1.259785e-07 -1.292351e-07 -1.320357e-07 -1.350757e-07 -1.376097e-07 -1.403926e-07 -1.426199e-07 -1.451034e-07 -1.469828e-07 -1.491235e-07 -1.506140e-07 -1.523684e-07 -1.534298e-07 -1.547548e-07 -1.553488e-07 -1.562031e-07 -1.562941e-07 -1.566392e-07 -1.561955e-07 -1.559964e-07 -1.549918e-07 -1.542187e-07 -1.526323e-07 -1.512614e-07 -1.490797e-07 -1.470946e-07 -1.443122e-07 -1.417044e-07 -1.383251e-07 -1.350956e-07 -1.311321e-07 -1.272917e-07 -1.227674e-07 -1.183377e-07 -1.132862e-07 -1.082994e-07 -1.027652e-07 -9.726487e-08 -9.130292e-08 -8.534383e-08 -7.901906e-08 -7.266655e-08 -6.605370e-08 -5.938286e-08 -5.256514e-08 -4.566081e-08 -3.872888e-08 -3.168345e-08 -2.473377e-08 -1.764598e-08 -1.077954e-08 -3.753044e-09 2.926765e-09 9.785819e-09 1.617522e-08 2.275989e-08 2.875710e-08 3.496185e-08 4.046874e-08 4.619231e-08 5.111686e-08 5.626396e-08 6.052269e-08 6.500610e-08 6.852556e-08 7.226895e-08 7.498822e-08 7.792774e-08 7.979965e-08 8.188484e-08 8.287740e-08 8.407437e-08 8.417228e-08 8.446320e-08 8.366794e-08 8.305266e-08 8.138320e-08 7.987894e-08 7.737168e-08 7.501360e-08 7.172150e-08 6.856184e-08 6.455449e-08 6.066153e-08 5.602304e-08 5.148051e-08 4.630797e-08 4.121293e-08 3.561500e-08 3.007520e-08 2.416940e-08 1.830264e-08 1.221372e-08 6.143995e-09 3.791478e-14 -6.144097e-09 -1.221392e-08 -1.830293e-08 -2.416955e-08 -3.007508e-08 -3.561471e-08 -4.121257e-08 -4.630783e-08 -5.148028e-08 -5.602275e-08 -6.066137e-08 -6.455430e-08 -6.856163e-08 -7.172149e-08 -7.501337e-08 -7.737136e-08 -7.987872e-08 -8.138297e-08 -8.305246e-08 -8.366793e-08 -8.446337e-08 -8.417227e-08 -8.407426e-08 -8.287733e-08 -8.188464e-08 -7.979935e-08 -7.792754e-08 -7.498837e-08 -7.226921e-08 -6.852597e-08 -6.500648e-08 -6.052286e-08 -5.626421e-08 -5.111738e-08 -4.619271e-08 -4.046900e-08 -3.496208e-08 -2.875719e-08 -2.275986e-08 -1.617526e-08 -9.785817e-09 -2.926711e-09 3.753153e-09 1.077963e-08 1.764601e-08 2.473377e-08 3.168350e-08 3.872886e-08 4.566080e-08 5.256511e-08 5.938286e-08 6.605359e-08 7.266637e-08 7.901907e-08 8.534386e-08 9.130300e-08 9.726505e-08 1.027653e-07 1.082996e-07 1.132864e-07 1.183377e-07 1.227674e-07 1.272918e-07 1.311320e-07 1.350955e-07 1.383250e-07 1.417043e-07 1.443122e-07 1.470943e-07 1.490795e-07 1.512612e-07 1.526322e-07 1.542186e-07 1.549918e-07 1.559965e-07 1.561956e-07 1.566391e-07 1.562942e-07 1.562032e-07 1.553487e-07 1.547547e-07 1.534297e-07 1.523684e-07 1.506140e-07 1.491233e-07 1.469827e-07 1.451034e-07 1.426199e-07 1.403927e-07 1.376098e-07 1.350758e-07 1.320360e-07 1.292355e-07 1.259789e-07 1.229507e-07 1.195156e-07 1.162965e-07 1.127183e-07 1.093425e-07 1.056532e-07 1.021519e-07 9.838014e-08 9.478168e-08 9.095242e-08 8.728141e-08 8.341592e-08 7.969372e-08 7.581003e-08 7.205437e-08 6.816625e-08 6.439166e-08 6.051007e-08 5.672781e-08 5.286071e-08 4.907908e-08 4.523099e-08 4.145486e-08 3.762816e-08 3.386069e-08 3.005573e-08 2.629735e-08 2.251193e-08 1.876141e-08 1.499316e-08 1.124763e-08 7.491897e-09 3.747679e-09 
-2.369958e-14 -3.646564e-09 -7.291547e-09 -1.094237e-08 -1.458864e-08 -1.824634e-08 -2.189545e-08 -2.556204e-08 -2.921491e-08 -3.289143e-08 -3.654740e-08 -4.023388e-08 -4.389045e-08 -4.758502e-08 -5.123793e-08 -5.493680e-08 -5.857903e-08 -6.227580e-08 -6.589789e-08 -6.958376e-08 -7.317336e-08 -7.683662e-08 -8.037816e-08 -8.400392e-08 -8.747882e-08 -9.104895e-08 -9.443563e-08 -9.792885e-08 -1.012020e-07 -1.045936e-07 -1.077258e-07 -1.109881e-07 -1.139483e-07 -1.170505e-07 -1.198055e-07 -1.227141e-07 -1.252286e-07 -1.279074e-07 -1.301443e-07 -1.325558e-07 -1.344770e-07 -1.365819e-07 -1.381491e-07 -1.399080e-07 -1.410832e-07 -1.424565e-07 -1.432033e-07 -1.441527e-07 -1.444366e-07 -1.449256e-07 -1.447154e-07 -1.447110e-07 -1.439797e-07 -1.434524e-07 -1.421783e-07 -1.411041e-07 -1.392714e-07 -1.376322e-07 -1.352323e-07 -1.330172e-07 -1.300495e-07 -1.272556e-07 -1.237283e-07 -1.203615e-07 -1.162918e-07 -1.123673e-07 -1.077821e-07 -1.033253e-07 -9.826146e-08 -9.330739e-08 -8.781164e-08 -8.240605e-08 -7.653458e-08 -7.073291e-08 -6.455138e-08 -5.841863e-08 -5.200083e-08 -4.561092e-08 -3.903824e-08 -3.247280e-08 -2.583306e-08 -1.918050e-08 -1.256581e-08 -5.919592e-09 5.739200e-10 7.116843e-09 1.339237e-08 1.973330e-08 2.569405e-08 3.173464e-08 3.728682e-08 4.293091e-08 4.798457e-08 5.314031e-08 5.761245e-08 6.219465e-08 6.601036e-08 6.994174e-08 7.303616e-08 7.624994e-08 7.857037e-08 8.101165e-08 8.251808e-08 8.414459e-08 8.481175e-08 8.559642e-08 8.541403e-08 8.534491e-08 8.431814e-08 8.339888e-08 8.154908e-08 7.979955e-08 7.716338e-08 7.461901e-08 7.124852e-08 6.796045e-08 6.392226e-08 5.995606e-08 5.532960e-08 5.076423e-08 4.564029e-08 4.056620e-08 3.504645e-08 2.956422e-08 2.375764e-08 1.797624e-08 1.199781e-08 6.031807e-09 7.415149e-14 -6.031916e-09 -1.199788e-08 -1.797636e-08 -2.375782e-08 -2.956413e-08 -3.504615e-08 -4.056589e-08 -4.564005e-08 -5.076382e-08 -5.532921e-08 -5.995580e-08 -6.392215e-08 -6.796040e-08 -7.124840e-08 -7.461872e-08 -7.716298e-08 -7.979919e-08 -8.154885e-08 -8.339877e-08 -8.431808e-08 -8.534481e-08 -8.541392e-08 -8.559641e-08 -8.481165e-08 -8.414444e-08 -8.251786e-08 -8.101136e-08 -7.857038e-08 -7.625010e-08 -7.303645e-08 -6.994197e-08 -6.601047e-08 -6.219491e-08 -5.761285e-08 -5.314073e-08 -4.798474e-08 -4.293098e-08 -3.728688e-08 -3.173468e-08 -2.569415e-08 -1.973329e-08 -1.339220e-08 -7.116630e-09 -5.737339e-10 5.919764e-09 1.256594e-08 1.918054e-08 2.583311e-08 3.247289e-08 3.903826e-08 4.561079e-08 5.200070e-08 5.841859e-08 6.455137e-08 7.073298e-08 7.653475e-08 8.240623e-08 8.781178e-08 9.330767e-08 9.826163e-08 1.033253e-07 1.077822e-07 1.123673e-07 1.162917e-07 1.203614e-07 1.237282e-07 1.272555e-07 1.300494e-07 1.330169e-07 1.352321e-07 1.376320e-07 1.392713e-07 1.411040e-07 1.421782e-07 1.434525e-07 1.439798e-07 1.447109e-07 1.447154e-07 1.449256e-07 1.444364e-07 1.441525e-07 1.432033e-07 1.424565e-07 1.410832e-07 1.399077e-07 1.381490e-07 1.365818e-07 1.344770e-07 1.325557e-07 1.301443e-07 1.279075e-07 1.252288e-07 1.227144e-07 1.198059e-07 1.170508e-07 1.139486e-07 1.109883e-07 1.077260e-07 1.045938e-07 1.012021e-07 9.792865e-08 9.443540e-08 9.104881e-08 8.747869e-08 8.400373e-08 8.037788e-08 7.683641e-08 7.317327e-08 6.958365e-08 6.589769e-08 6.227554e-08 5.857869e-08 5.493640e-08 5.123767e-08 4.758489e-08 4.389033e-08 4.023363e-08 3.654709e-08 3.289120e-08 2.921476e-08 2.556196e-08 2.189528e-08 1.824622e-08 1.458880e-08 1.094254e-08 7.291730e-09 3.646669e-09 
-1.392451e-14 -3.689186e-09 -7.378158e-09 -1.106776e-08 -1.475682e-08 -1.844684e-08 -2.213503e-08 -2.582509e-08 -2.951085e-08 -3.319951e-08 -3.687974e-08 -4.056469e-08 -4.423450e-08 -4.791163e-08 -5.156451e-08 -5.522792e-08 -5.885469e-08 -6.249589e-08 -6.608515e-08 -6.969366e-08 -7.323108e-08 -7.679357e-08 -8.026202e-08 -8.376225e-08 -8.714166e-08 -9.056038e-08 -9.382802e-08 -9.714328e-08 -1.002729e-07 -1.034595e-07 -1.064231e-07 -1.094534e-07 -1.122198e-07 -1.150634e-07 -1.175994e-07 -1.202235e-07 -1.224944e-07 -1.248642e-07 -1.268340e-07 -1.289137e-07 -1.305457e-07 -1.322982e-07 -1.335559e-07 -1.349447e-07 -1.357924e-07 -1.367811e-07 -1.371854e-07 -1.377392e-07 -1.376687e-07 -1.377555e-07 -1.371827e-07 -1.367740e-07 -1.356758e-07 -1.347467e-07 -1.331059e-07 -1.316375e-07 -1.294428e-07 -1.274223e-07 -1.246699e-07 -1.220917e-07 -1.187857e-07 -1.156522e-07 -1.118054e-07 -1.081276e-07 -1.037622e-07 -9.956012e-08 -9.470716e-08 -9.001072e-08 -8.471124e-08 -7.955943e-08 -7.386374e-08 -6.830567e-08 -6.227310e-08 -5.636701e-08 -5.006550e-08 -4.387836e-08 -3.738353e-08 -3.099029e-08 -2.438453e-08 -1.786718e-08 -1.123852e-08 -4.684892e-09 1.875131e-09 8.373138e-09 1.476980e-08 2.111750e-08 2.725584e-08 3.335770e-08 3.914392e-08 4.490517e-08 5.024858e-08 5.557740e-08 6.039180e-08 6.520143e-08 6.940813e-08 7.361816e-08 7.714622e-08 8.068497e-08 8.347439e-08 8.628015e-08 8.828211e-08 9.030541e-08 9.148425e-08 9.268776e-08 9.302197e-08 9.338312e-08 9.286572e-08 9.237662e-08 9.101588e-08 8.968367e-08 8.750301e-08 8.535017e-08 8.238801e-08 7.945221e-08 7.576144e-08 7.209514e-08 6.774250e-08 6.341186e-08 5.847679e-08 5.356038e-08 4.813266e-08 4.272063e-08 3.690025e-08 3.109168e-08 2.498582e-08 1.888798e-08 1.260947e-08 6.334946e-09 -5.985976e-15 -6.334977e-09 -1.260971e-08 -1.888822e-08 -2.498599e-08 -3.109165e-08 -3.689989e-08 -4.272028e-08 -4.813243e-08 -5.356015e-08 -5.847641e-08 -6.341165e-08 -6.774237e-08 -7.209496e-08 -7.576146e-08 -7.945202e-08 -8.238756e-08 -8.534985e-08 -8.750276e-08 -8.968348e-08 -9.101583e-08 -9.237664e-08 -9.286568e-08 -9.338301e-08 -9.302175e-08 -9.268767e-08 -9.148417e-08 -9.030513e-08 -8.828208e-08 -8.628031e-08 -8.347455e-08 -8.068535e-08 -7.714647e-08 -7.361845e-08 -6.940846e-08 -6.520185e-08 -6.039211e-08 -5.557753e-08 -5.024850e-08 -4.490514e-08 -3.914402e-08 -3.335775e-08 -2.725569e-08 -2.111721e-08 -1.476957e-08 -8.373047e-09 -1.874986e-09 4.684913e-09 1.123851e-08 1.786727e-08 2.438453e-08 3.099022e-08 3.738344e-08 4.387827e-08 5.006548e-08 5.636710e-08 6.227325e-08 6.830582e-08 7.386390e-08 7.955966e-08 8.471143e-08 9.001076e-08 9.470727e-08 9.956018e-08 1.037621e-07 1.081276e-07 1.118054e-07 1.156520e-07 1.187855e-07 1.220915e-07 1.246696e-07 1.274221e-07 1.294427e-07 1.316374e-07 1.331058e-07 1.347468e-07 1.356758e-07 1.367738e-07 1.371827e-07 1.377555e-07 1.376686e-07 1.377391e-07 1.371853e-07 1.367811e-07 1.357924e-07 1.349444e-07 1.335557e-07 1.322981e-07 1.305456e-07 1.289137e-07 1.268340e-07 1.248643e-07 1.224947e-07 1.202238e-07 1.175998e-07 1.150637e-07 1.122201e-07 1.094537e-07 1.064233e-07 1.034598e-07 1.002730e-07 9.714308e-08 9.382783e-08 9.056027e-08 8.714150e-08 8.376204e-08 8.026174e-08 7.679336e-08 7.323101e-08 6.969360e-08 6.608500e-08 6.249566e-08 5.885435e-08 5.522751e-08 5.156427e-08 4.791152e-08 4.423440e-08 4.056446e-08 3.687942e-08 3.319927e-08 2.951071e-08 2.582503e-08 2.213492e-08 1.844677e-08 1.475694e-08 1.106795e-08 7.378378e-09 3.689293e-09 
7.618553e-14 -3.595705e-09 -7.193285e-09 -1.078547e-08 -1.438315e-08 -1.796977e-08 -2.156460e-08 -2.514339e-08 -2.873208e-08 -3.229969e-08 -3.587705e-08 -3.942949e-08 -4.298900e-08 -4.652040e-08 -5.005397e-08 -5.355705e-08 -5.705382e-08 -6.051864e-08 -6.396592e-08 -6.738100e-08 -7.076336e-08 -7.411442e-08 -7.741371e-08 -8.068390e-08 -8.387937e-08 -8.704923e-08 -9.011764e-08 -9.316524e-08 -9.608031e-08 -9.898088e-08 -1.017147e-07 -1.044415e-07 -1.069636e-07 -1.094873e-07 -1.117654e-07 -1.140552e-07 -1.160557e-07 -1.180791e-07 -1.197680e-07 -1.214917e-07 -1.228343e-07 -1.242245e-07 -1.251872e-07 -1.262112e-07 -1.267613e-07 -1.273864e-07 -1.274938e-07 -1.276904e-07 -1.273275e-07 -1.270679e-07 -1.262115e-07 -1.254724e-07 -1.241040e-07 -1.228660e-07 -1.209728e-07 -1.192225e-07 -1.167979e-07 -1.145281e-07 -1.115730e-07 -1.087833e-07 -1.053064e-07 -1.020044e-07 -9.802307e-08 -9.422424e-08 -8.976436e-08 -8.549319e-08 -8.058962e-08 -7.587916e-08 -7.057546e-08 -6.546753e-08 -5.981622e-08 -5.436164e-08 -4.842325e-08 -4.268080e-08 -3.652350e-08 -3.055963e-08 -2.425828e-08 -1.814608e-08 -1.178112e-08 -5.599860e-09 7.436561e-10 6.910526e-09 1.314512e-08 1.921103e-08 2.524733e-08 3.112414e-08 3.687317e-08 4.247263e-08 4.784764e-08 5.308338e-08 5.800114e-08 6.279044e-08 6.717305e-08 7.143845e-08 7.521530e-08 7.888590e-08 8.199482e-08 8.500828e-08 8.739720e-08 8.970106e-08 9.132911e-08 9.288239e-08 9.372065e-08 9.449363e-08 9.452673e-08 9.450339e-08 9.372918e-08 9.290671e-08 9.133691e-08 8.972642e-08 8.738613e-08 8.501210e-08 8.194062e-08 7.884099e-08 7.508960e-08 7.131539e-08 6.694783e-08 6.256259e-08 5.765421e-08 5.273154e-08 4.736611e-08 4.199004e-08 3.626016e-08 3.052272e-08 2.452743e-08 1.852739e-08 1.237072e-08 6.211549e-09 -1.025423e-13 -6.211723e-09 -1.237096e-08 -1.852777e-08 -2.452774e-08 -3.052260e-08 -3.625988e-08 -4.198985e-08 -4.736587e-08 -5.273130e-08 -5.765393e-08 -6.256261e-08 -6.694798e-08 -7.131525e-08 -7.508953e-08 -7.884079e-08 -8.194021e-08 -8.501188e-08 -8.738606e-08 -8.972628e-08 -9.133699e-08 -9.290692e-08 -9.372910e-08 -9.450337e-08 -9.452673e-08 -9.449363e-08 -9.372050e-08 -9.288220e-08 -9.132931e-08 -8.970129e-08 -8.739738e-08 -8.500864e-08 -8.199513e-08 -7.888630e-08 -7.521571e-08 -7.143874e-08 -6.717334e-08 -6.279063e-08 -5.800125e-08 -5.308350e-08 -4.784771e-08 -4.247264e-08 -3.687306e-08 -3.112400e-08 -2.524716e-08 -1.921099e-08 -1.314512e-08 -6.910566e-09 -7.436757e-10 5.599936e-09 1.178116e-08 1.814605e-08 2.425819e-08 3.055949e-08 3.652345e-08 4.268079e-08 4.842336e-08 5.436179e-08 5.981636e-08 6.546774e-08 7.057561e-08 7.587918e-08 8.058963e-08 8.549323e-08 8.976437e-08 9.422422e-08 9.802297e-08 1.020042e-07 1.053063e-07 1.087831e-07 1.115728e-07 1.145279e-07 1.167978e-07 1.192225e-07 1.209727e-07 1.228660e-07 1.241040e-07 1.254724e-07 1.262116e-07 1.270679e-07 1.273274e-07 1.276902e-07 1.274938e-07 1.273865e-07 1.267612e-07 1.262109e-07 1.251871e-07 1.242246e-07 1.228343e-07 1.214917e-07 1.197680e-07 1.180793e-07 1.160561e-07 1.140555e-07 1.117658e-07 1.094877e-07 1.069639e-07 1.044418e-07 1.017150e-07 9.898121e-08 9.608046e-08 9.316509e-08 9.011752e-08 8.704916e-08 8.387930e-08 8.068380e-08 7.741347e-08 7.411422e-08 7.076336e-08 6.738106e-08 6.396588e-08 6.051847e-08 5.705352e-08 5.355670e-08 5.005383e-08 4.652041e-08 4.298896e-08 3.942934e-08 3.587687e-08 3.229954e-08 2.873200e-08 2.514343e-08 2.156461e-08 1.796977e-08 1.438334e-08 1.078576e-08 7.193555e-09 3.595912e-09 
2.977101e-14 -3.645393e-09 -7.294192e-09 -1.093202e-08 -1.457980e-08 -1.820562e-08 -2.184703e-08 -2.545591e-08 -2.908502e-08 -3.267144e-08 -3.628087e-08 -3.983828e-08 -4.341891e-08 -4.693933e-08 -5.048101e-08 -5.395499e-08 -5.744460e-08 -6.086034e-08 -6.428312e-08 -6.762732e-08 -7.096609e-08 -7.422289e-08 -7.745779e-08 -8.060908e-08 -8.371796e-08 -8.674330e-08 -8.970168e-08 -9.257834e-08 -9.535911e-08 -9.806199e-08 -1.006366e-07 -1.031390e-07 -1.054767e-07 -1.077498e-07 -1.098185e-07 -1.118323e-07 -1.135991e-07 -1.153224e-07 -1.167539e-07 -1.181552e-07 -1.192187e-07 -1.202665e-07 -1.209298e-07 -1.215941e-07 -1.218270e-07 -1.220787e-07 -1.218538e-07 -1.216665e-07 -1.209598e-07 -1.203102e-07 -1.191017e-07 -1.179711e-07 -1.162463e-07 -1.146199e-07 -1.123705e-07 -1.102401e-07 -1.074640e-07 -1.048272e-07 -1.015299e-07 -9.839198e-08 -9.458709e-08 -9.096039e-08 -8.666993e-08 -8.257523e-08 -7.782963e-08 -7.329592e-08 -6.813446e-08 -6.319937e-08 -5.766947e-08 -5.237850e-08 -4.653643e-08 -4.094355e-08 -3.485262e-08 -2.901937e-08 -2.275016e-08 -1.674465e-08 -1.037367e-08 -4.269856e-09 2.121442e-09 8.244159e-09 1.457082e-08 2.062979e-08 2.680490e-08 3.271522e-08 3.865085e-08 4.432683e-08 4.993636e-08 5.529306e-08 6.049240e-08 6.544745e-08 7.015680e-08 7.463184e-08 7.877738e-08 8.269974e-08 8.621490e-08 8.951920e-08 9.234653e-08 9.497564e-08 9.706711e-08 9.897420e-08 1.002938e-07 1.014428e-07 1.019657e-07 1.023320e-07 1.020467e-07 1.016189e-07 1.005266e-07 9.930551e-08 9.742100e-08 9.542142e-08 9.277207e-08 9.002077e-08 8.664708e-08 8.318442e-08 7.913881e-08 7.501653e-08 7.036291e-08 6.564488e-08 6.045777e-08 5.521747e-08 4.957967e-08 4.390018e-08 3.790264e-08 3.187393e-08 2.561366e-08 1.933283e-08 1.291115e-08 6.479100e-09 -1.473930e-13 -6.479361e-09 -1.291137e-08 -1.933309e-08 -2.561381e-08 -3.187391e-08 -3.790237e-08 -4.389983e-08 -4.957964e-08 -5.521734e-08 -6.045753e-08 -6.564473e-08 -7.036284e-08 -7.501646e-08 -7.913870e-08 -8.318407e-08 -8.664674e-08 -9.002063e-08 -9.277173e-08 -9.542127e-08 -9.742112e-08 -9.930568e-08 -1.005265e-07 -1.016186e-07 -1.020467e-07 -1.023319e-07 -1.019656e-07 -1.014426e-07 -1.002939e-07 -9.897447e-08 -9.706747e-08 -9.497598e-08 -9.234680e-08 -8.951949e-08 -8.621535e-08 -8.270011e-08 -7.877766e-08 -7.463196e-08 -7.015689e-08 -6.544744e-08 -6.049238e-08 -5.529307e-08 -4.993626e-08 -4.432675e-08 -3.865073e-08 -3.271504e-08 -2.680485e-08 -2.062982e-08 -1.457081e-08 -8.244084e-09 -2.121405e-09 4.269877e-09 1.037359e-08 1.674449e-08 2.275017e-08 2.901939e-08 3.485278e-08 4.094375e-08 4.653651e-08 5.237875e-08 5.766969e-08 6.319935e-08 6.813448e-08 7.329605e-08 7.782962e-08 8.257518e-08 8.666984e-08 9.096024e-08 9.458699e-08 9.839181e-08 1.015298e-07 1.048271e-07 1.074639e-07 1.102400e-07 1.123705e-07 1.146200e-07 1.162464e-07 1.179711e-07 1.191018e-07 1.203103e-07 1.209597e-07 1.216665e-07 1.218538e-07 1.220787e-07 1.218270e-07 1.215939e-07 1.209297e-07 1.202665e-07 1.192187e-07 1.181552e-07 1.167540e-07 1.153225e-07 1.135994e-07 1.118326e-07 1.098189e-07 1.077502e-07 1.054771e-07 1.031393e-07 1.006369e-07 9.806229e-08 9.535922e-08 9.257816e-08 8.970155e-08 8.674320e-08 8.371783e-08 8.060894e-08 7.745755e-08 7.422264e-08 7.096603e-08 6.762733e-08 6.428302e-08 6.086010e-08 5.744423e-08 5.395455e-08 5.048077e-08 4.693933e-08 4.341887e-08 3.983802e-08 3.628057e-08 3.267124e-08 2.908492e-08 2.545590e-08 2.184693e-08 1.820551e-08 1.457998e-08 1.093223e-08 7.294344e-09 3.645544e-09 
6.750067e-14 -3.556925e-09 -7.119388e-09 -1.066463e-08 -1.422634e-08 -1.775352e-08 -2.130714e-08 -2.480955e-08 -2.834733e-08 -3.181751e-08 -3.533020e-08 -3.875998e-08 -4.223686e-08 -4.561658e-08 -4.904573e-08 -5.236461e-08 -5.573151e-08 -5.897638e-08 -6.226496e-08 -6.542147e-08 -6.861339e-08 -7.166489e-08 -7.473933e-08 -7.766717e-08 -8.060135e-08 -8.338477e-08 -8.615376e-08 -8.877017e-08 -9.134664e-08 -9.377158e-08 -9.612731e-08 -9.833474e-08 -1.004394e-07 -1.024019e-07 -1.042245e-07 -1.059139e-07 -1.074225e-07 -1.088097e-07 -1.099731e-07 -1.110294e-07 -1.118165e-07 -1.125138e-07 -1.128953e-07 -1.132069e-07 -1.131554e-07 -1.130565e-07 -1.125480e-07 -1.120166e-07 -1.110308e-07 -1.100484e-07 -1.085694e-07 -1.071223e-07 -1.051399e-07 -1.032186e-07 -1.007289e-07 -9.833051e-08 -9.533593e-08 -9.246346e-08 -8.897429e-08 -8.563794e-08 -8.167194e-08 -7.788919e-08 -7.347273e-08 -6.926879e-08 -6.443599e-08 -5.984366e-08 -5.463711e-08 -4.969734e-08 -4.416739e-08 -3.892799e-08 -3.313259e-08 -2.764917e-08 -2.165291e-08 -1.598709e-08 -9.860704e-09 -4.080204e-09 2.100880e-09 7.923986e-09 1.408004e-08 1.986960e-08 2.591880e-08 3.159624e-08 3.745564e-08 4.294152e-08 4.852836e-08 5.374331e-08 5.897687e-08 6.384354e-08 6.864646e-08 7.309041e-08 7.739048e-08 8.134215e-08 8.507322e-08 8.846910e-08 9.157273e-08 9.435628e-08 9.678322e-08 9.890713e-08 1.006170e-07 1.020426e-07 1.030069e-07 1.037064e-07 1.039071e-07 1.038632e-07 1.032943e-07 1.025015e-07 1.011689e-07 9.963341e-08 9.755484e-08 9.529448e-08 9.249945e-08 8.954306e-08 8.607213e-08 8.246011e-08 7.836457e-08 7.414725e-08 6.948822e-08 6.472657e-08 5.957386e-08 5.433683e-08 4.876769e-08 4.313218e-08 3.723086e-08 3.128000e-08 2.513537e-08 1.895797e-08 1.266260e-08 6.351061e-09 -5.430456e-15 -6.351328e-09 -1.266291e-08 -1.895833e-08 -2.513568e-08 -3.127999e-08 -3.723071e-08 -4.313202e-08 -4.876761e-08 -5.433663e-08 -5.957363e-08 -6.472641e-08 -6.948825e-08 -7.414727e-08 -7.836444e-08 -8.245988e-08 -8.607186e-08 -8.954283e-08 -9.249931e-08 -9.529446e-08 -9.755497e-08 -9.963362e-08 -1.011689e-07 -1.025014e-07 -1.032942e-07 -1.038632e-07 -1.039069e-07 -1.037062e-07 -1.030070e-07 -1.020429e-07 -1.006173e-07 -9.890752e-08 -9.678358e-08 -9.435670e-08 -9.157316e-08 -8.846947e-08 -8.507352e-08 -8.134233e-08 -7.739060e-08 -7.309047e-08 -6.864653e-08 -6.384358e-08 -5.897681e-08 -5.374326e-08 -4.852823e-08 -4.294141e-08 -3.745562e-08 -3.159630e-08 -2.591885e-08 -1.986952e-08 -1.408007e-08 -7.924039e-09 -2.100984e-09 4.080025e-09 9.860636e-09 1.598715e-08 2.165297e-08 2.764930e-08 3.313272e-08 3.892826e-08 4.416757e-08 4.969737e-08 5.463716e-08 5.984373e-08 6.443592e-08 6.926868e-08 7.347269e-08 7.788913e-08 8.167188e-08 8.563782e-08 8.897413e-08 9.246339e-08 9.533585e-08 9.833048e-08 1.007289e-07 1.032187e-07 1.051399e-07 1.071223e-07 1.085695e-07 1.100485e-07 1.110307e-07 1.120166e-07 1.125481e-07 1.130565e-07 1.131554e-07 1.132067e-07 1.128952e-07 1.125139e-07 1.118165e-07 1.110295e-07 1.099731e-07 1.088099e-07 1.074228e-07 1.059142e-07 1.042249e-07 1.024024e-07 1.004398e-07 9.833510e-08 9.612758e-08 9.377192e-08 9.134689e-08 8.877009e-08 8.615362e-08 8.338471e-08 8.060124e-08 7.766706e-08 7.473917e-08 7.166471e-08 6.861338e-08 6.542153e-08 6.226494e-08 5.897622e-08 5.573123e-08 5.236426e-08 4.904559e-08 4.561661e-08 4.223680e-08 3.875979e-08 3.532999e-08 3.181733e-08 2.834725e-08 2.480955e-08 2.130708e-08 1.775350e-08 1.422652e-08 1.066485e-08 7.119569e-09 3.557109e-09 