# vtk DataFile Version 2.0
Comment goes here
ASCII

DATASET STRUCTURED_POINTS
FIELD FieldData 1
TIME 1 1 double
0.04000000
DIMENSIONS    256   256   1

ORIGIN    0.000   0.000   0.000
SPACING   0.0039062 0.0039062   1.000

POINT_DATA   65536
SCALARS Omega double
LOOKUP_TABLE default

1.184607e-13 2.585825e-08 5.170385e-08 7.747223e-08 1.032025e-07 1.287776e-07 1.542891e-07 1.795648e-07 2.047517e-07 2.296193e-07 2.543719e-07 2.787179e-07 3.029233e-07 3.266298e-07 3.501693e-07 3.731121e-07 3.958614e-07 4.179107e-07 4.397397e-07 4.607595e-07 4.815316e-07 5.013791e-07 5.209516e-07 5.394782e-07 5.577018e-07 5.747537e-07 5.914746e-07 6.068933e-07 6.219527e-07 6.355763e-07 6.488128e-07 6.604775e-07 6.717271e-07 6.812695e-07 6.903697e-07 6.976291e-07 7.044194e-07 7.092398e-07 7.135656e-07 7.157989e-07 7.175135e-07 7.170223e-07 7.159905e-07 7.126521e-07 7.087536e-07 7.024632e-07 6.955964e-07 6.862702e-07 6.763550e-07 6.639346e-07 6.509176e-07 6.353737e-07 6.192307e-07 6.005658e-07 5.813057e-07 5.595582e-07 5.372267e-07 5.124736e-07 4.871554e-07 4.595146e-07 4.313361e-07 4.009689e-07 3.701011e-07 3.372124e-07 3.038704e-07 2.687110e-07 2.331562e-07 1.960214e-07 1.585598e-07 1.197890e-07 8.077105e-08 4.074475e-08 5.620908e-10 -4.029959e-08 -8.121640e-08 -1.224597e-07 -1.636466e-07 -2.047868e-07 -2.457509e-07 -2.862807e-07 -3.265066e-07 -3.659017e-07 -4.048591e-07 -4.425858e-07 -4.797371e-07 -5.152615e-07 -5.500713e-07 -5.828681e-07 -6.148113e-07 -6.443726e-07 -6.729453e-07 -6.987913e-07 -7.235200e-07 -7.452075e-07 -7.656584e-07 -7.827916e-07 -7.985807e-07 -8.108189e-07 -8.216216e-07 -8.286882e-07 -8.342453e-07 -8.359349e-07 -8.360621e-07 -8.322473e-07 -8.268393e-07 -8.174743e-07 -8.065107e-07 -7.916370e-07 -7.751840e-07 -7.549296e-07 -7.331427e-07 -7.077244e-07 -6.808467e-07 -6.505671e-07 -6.189271e-07 -5.841717e-07 -5.481794e-07 -5.094105e-07 -4.695520e-07 -4.273026e-07 -3.841312e-07 -3.389953e-07 -2.931230e-07 -2.457469e-07 -1.978344e-07 -1.489046e-07 -9.964825e-08 -4.987896e-08 -7.835203e-14 4.987880e-08 9.964820e-08 1.489044e-07 1.978342e-07 2.457470e-07 2.931231e-07 3.389954e-07 3.841312e-07 4.273029e-07 4.695524e-07 5.094109e-07 5.481798e-07 5.841719e-07 6.189272e-07 6.505671e-07 6.808467e-07 7.077245e-07 7.331429e-07 7.549298e-07 7.751841e-07 7.916369e-07 8.065107e-07 8.174743e-07 8.268392e-07 8.322473e-07 8.360625e-07 8.359351e-07 8.342453e-07 8.286880e-07 8.216211e-07 8.108185e-07 7.985802e-07 7.827909e-07 7.656579e-07 7.452071e-07 7.235193e-07 6.987909e-07 6.729451e-07 6.443725e-07 6.148112e-07 5.828681e-07 5.500715e-07 5.152617e-07 4.797373e-07 4.425858e-07 4.048592e-07 3.659017e-07 3.265066e-07 2.862807e-07 2.457508e-07 2.047868e-07 1.636465e-07 1.224594e-07 8.121639e-08 4.029960e-08 -5.621503e-10 -4.074466e-08 -8.077082e-08 -1.197887e-07 -1.585596e-07 -1.960212e-07 -2.331561e-07 -2.687112e-07 -3.038705e-07 -3.372124e-07 -3.701011e-07 -4.009690e-07 -4.313364e-07 -4.595147e-07 -4.871555e-07 -5.124738e-07 -5.372269e-07 -5.595583e-07 -5.813057e-07 -6.005657e-07 -6.192306e-07 -6.353735e-07 -6.509176e-07 -6.639348e-07 -6.763550e-07 -6.862702e-07 -6.955965e-07 -7.024634e-07 -7.087539e-07 -7.126524e-07 -7.159906e-07 -7.170224e-07 -7.175135e-07 -7.157988e-07 -7.135655e-07 -7.092397e-07 -7.044191e-07 -6.976286e-07 -6.903691e-07 -6.812691e-07 -6.717265e-07 -6.604769e-07 -6.488124e-07 -6.355761e-07 -6.219528e-07 -6.068932e-07 -5.914748e-07 -5.747539e-07 -5.577019e-07 -5.394782e-07 -5.209515e-07 -5.013792e-07 -4.815317e-07 -4.607596e-07 -4.397399e-07 -4.179110e-07 -3.958617e-07 -3.731124e-07 -3.501694e-07 -3.266299e-07 -3.029235e-07 -2.787181e-07 -2.543721e-07 -2.296193e-07 -2.047516e-07 -1.795648e-07 -1.542892e-07 -1.287776e-07 -1.032025e-07 -7.747196e-08 -5.170355e-08 -2.585811e-08 
1.426585e-13 2.584500e-08 5.167195e-08 7.743062e-08 1.031350e-07 1.287019e-07 1.541784e-07 1.794458e-07 2.045866e-07 2.294438e-07 2.541378e-07 2.784699e-07 3.026027e-07 3.262903e-07 3.497416e-07 3.726591e-07 3.953041e-07 4.173207e-07 4.390281e-07 4.600068e-07 4.806397e-07 5.004373e-07 5.198528e-07 5.383203e-07 5.563695e-07 5.733529e-07 5.898827e-07 6.052238e-07 6.200764e-07 6.336139e-07 6.466293e-07 6.582004e-07 6.692167e-07 6.786590e-07 6.875160e-07 6.946703e-07 7.012105e-07 7.059226e-07 7.099944e-07 7.121180e-07 7.135786e-07 7.129788e-07 7.116967e-07 7.082532e-07 7.041123e-07 6.977228e-07 6.906261e-07 6.812096e-07 6.710814e-07 6.585823e-07 6.453741e-07 6.297657e-07 6.134573e-07 5.947452e-07 5.753504e-07 5.535753e-07 5.311435e-07 5.063848e-07 4.810047e-07 4.533824e-07 4.251839e-07 3.948609e-07 3.640174e-07 3.312001e-07 2.979290e-07 2.628688e-07 2.274326e-07 1.904250e-07 1.531303e-07 1.145144e-07 7.571123e-08 3.586631e-08 -4.054993e-09 -4.471050e-08 -8.532187e-08 -1.263365e-07 -1.671773e-07 -2.080696e-07 -2.486510e-07 -2.889175e-07 -3.287293e-07 -3.678499e-07 -4.063679e-07 -4.438142e-07 -4.805076e-07 -5.157510e-07 -5.500917e-07 -5.826125e-07 -6.140832e-07 -6.433800e-07 -6.714853e-07 -6.970841e-07 -7.213584e-07 -7.428226e-07 -7.628408e-07 -7.797797e-07 -7.951661e-07 -8.072452e-07 -8.176822e-07 -8.246299e-07 -8.298658e-07 -8.314805e-07 -8.313370e-07 -8.274953e-07 -8.218723e-07 -8.125304e-07 -8.014117e-07 -7.866124e-07 -7.700670e-07 -7.499387e-07 -7.281231e-07 -7.028812e-07 -6.760386e-07 -6.459836e-07 -6.144410e-07 -5.799541e-07 -5.441191e-07 -5.056578e-07 -4.660115e-07 -4.241030e-07 -3.811935e-07 -3.364241e-07 -2.908568e-07 -2.438656e-07 -1.962933e-07 -1.477574e-07 -9.886856e-08 -4.949345e-08 -8.215672e-14 4.949334e-08 9.886839e-08 1.477572e-07 1.962932e-07 2.438656e-07 2.908571e-07 3.364244e-07 3.811935e-07 4.241030e-07 4.660118e-07 5.056581e-07 5.441193e-07 5.799544e-07 6.144412e-07 6.459834e-07 6.760386e-07 7.028814e-07 7.281233e-07 7.499388e-07 7.700668e-07 7.866123e-07 8.014116e-07 8.125304e-07 8.218723e-07 8.274954e-07 8.313375e-07 8.314807e-07 8.298655e-07 8.246296e-07 8.176819e-07 8.072448e-07 7.951656e-07 7.797792e-07 7.628401e-07 7.428220e-07 7.213578e-07 6.970836e-07 6.714851e-07 6.433799e-07 6.140833e-07 5.826125e-07 5.500917e-07 5.157512e-07 4.805079e-07 4.438143e-07 4.063679e-07 3.678500e-07 3.287293e-07 2.889176e-07 2.486509e-07 2.080697e-07 1.671772e-07 1.263363e-07 8.532194e-08 4.471058e-08 4.054942e-09 -3.586635e-08 -7.571099e-08 -1.145141e-07 -1.531301e-07 -1.904248e-07 -2.274325e-07 -2.628688e-07 -2.979290e-07 -3.312001e-07 -3.640175e-07 -3.948610e-07 -4.251841e-07 -4.533825e-07 -4.810049e-07 -5.063849e-07 -5.311436e-07 -5.535753e-07 -5.753503e-07 -5.947451e-07 -6.134572e-07 -6.297656e-07 -6.453740e-07 -6.585824e-07 -6.710814e-07 -6.812096e-07 -6.906262e-07 -6.977230e-07 -7.041125e-07 -7.082533e-07 -7.116968e-07 -7.129789e-07 -7.135785e-07 -7.121179e-07 -7.099943e-07 -7.059224e-07 -7.012101e-07 -6.946698e-07 -6.875155e-07 -6.786586e-07 -6.692161e-07 -6.581999e-07 -6.466289e-07 -6.336138e-07 -6.200764e-07 -6.052237e-07 -5.898829e-07 -5.733532e-07 -5.563696e-07 -5.383203e-07 -5.198527e-07 -5.004374e-07 -4.806398e-07 -4.600069e-07 -4.390282e-07 -4.173210e-07 -3.953043e-07 -3.726595e-07 -3.497418e-07 -3.262904e-07 -3.026028e-07 -2.784702e-07 -2.541380e-07 -2.294438e-07 -2.045865e-07 -1.794457e-07 -1.541784e-07 -1.287020e-07 -1.031350e-07 -7.743039e-08 -5.167174e-08 -2.584489e-08 
9.637311e-14 2.595579e-08 5.188871e-08 7.776124e-08 1.035650e-07 1.292470e-07 1.548144e-07 1.801964e-07 2.054180e-07 2.303877e-07 2.551508e-07 2.795914e-07 3.037801e-07 3.275707e-07 3.510633e-07 3.740769e-07 3.967471e-07 4.188513e-07 4.405670e-07 4.616237e-07 4.822470e-07 5.021118e-07 5.214990e-07 5.400218e-07 5.580236e-07 5.750496e-07 5.915127e-07 6.068830e-07 6.216496e-07 6.352025e-07 6.481129e-07 6.596851e-07 6.705782e-07 6.800072e-07 6.887235e-07 6.958503e-07 7.022337e-07 7.069040e-07 7.108043e-07 7.128726e-07 7.141487e-07 7.134805e-07 7.120032e-07 7.084791e-07 7.041347e-07 6.976532e-07 6.903469e-07 6.808284e-07 6.704874e-07 6.578774e-07 6.444560e-07 6.287293e-07 6.122103e-07 5.933739e-07 5.737741e-07 5.518704e-07 5.292421e-07 5.043520e-07 4.787869e-07 4.510323e-07 4.226632e-07 3.922083e-07 3.612112e-07 3.282643e-07 2.948588e-07 2.596727e-07 2.241238e-07 1.869956e-07 1.496114e-07 1.108814e-07 7.201349e-08 3.206234e-08 -7.897958e-09 -4.865122e-08 -8.927518e-08 -1.303778e-07 -1.712044e-07 -2.121750e-07 -2.527156e-07 -2.930498e-07 -3.327952e-07 -3.719731e-07 -4.104000e-07 -4.478930e-07 -4.844722e-07 -5.197523e-07 -5.539572e-07 -5.865050e-07 -6.178212e-07 -6.471359e-07 -6.750699e-07 -7.006785e-07 -7.247676e-07 -7.462340e-07 -7.660559e-07 -7.829911e-07 -7.981731e-07 -8.102427e-07 -8.204702e-07 -8.274039e-07 -8.324282e-07 -8.340257e-07 -8.336713e-07 -8.298091e-07 -8.239786e-07 -8.146145e-07 -8.032938e-07 -7.884704e-07 -7.717310e-07 -7.515773e-07 -7.295774e-07 -7.043086e-07 -6.772931e-07 -6.472093e-07 -6.155063e-07 -5.809887e-07 -5.450064e-07 -5.065119e-07 -4.667315e-07 -4.247858e-07 -3.817561e-07 -3.369452e-07 -2.912707e-07 -2.442321e-07 -1.965651e-07 -1.479751e-07 -9.900342e-08 -4.956563e-08 -1.038416e-14 4.956564e-08 9.900319e-08 1.479747e-07 1.965651e-07 2.442320e-07 2.912709e-07 3.369455e-07 3.817561e-07 4.247859e-07 4.667318e-07 5.065121e-07 5.450066e-07 5.809891e-07 6.155064e-07 6.472093e-07 6.772931e-07 7.043088e-07 7.295776e-07 7.515775e-07 7.717311e-07 7.884703e-07 8.032936e-07 8.146144e-07 8.239786e-07 8.298092e-07 8.336715e-07 8.340258e-07 8.324283e-07 8.274037e-07 8.204699e-07 8.102423e-07 7.981723e-07 7.829905e-07 7.660555e-07 7.462336e-07 7.247670e-07 7.006779e-07 6.750696e-07 6.471358e-07 6.178211e-07 5.865051e-07 5.539574e-07 5.197525e-07 4.844725e-07 4.478933e-07 4.104001e-07 3.719731e-07 3.327953e-07 2.930500e-07 2.527156e-07 2.121749e-07 1.712044e-07 1.303777e-07 8.927515e-08 4.865121e-08 7.897987e-09 -3.206223e-08 -7.201322e-08 -1.108810e-07 -1.496111e-07 -1.869954e-07 -2.241237e-07 -2.596729e-07 -2.948589e-07 -3.282643e-07 -3.612113e-07 -3.922084e-07 -4.226633e-07 -4.510324e-07 -4.787871e-07 -5.043521e-07 -5.292422e-07 -5.518704e-07 -5.737740e-07 -5.933737e-07 -6.122102e-07 -6.287291e-07 -6.444559e-07 -6.578775e-07 -6.704874e-07 -6.808283e-07 -6.903470e-07 -6.976534e-07 -7.041349e-07 -7.084792e-07 -7.120034e-07 -7.134806e-07 -7.141486e-07 -7.128724e-07 -7.108042e-07 -7.069037e-07 -7.022332e-07 -6.958497e-07 -6.887231e-07 -6.800068e-07 -6.705776e-07 -6.596847e-07 -6.481126e-07 -6.352023e-07 -6.216496e-07 -6.068830e-07 -5.915129e-07 -5.750499e-07 -5.580237e-07 -5.400217e-07 -5.214989e-07 -5.021118e-07 -4.822471e-07 -4.616238e-07 -4.405672e-07 -4.188516e-07 -3.967474e-07 -3.740772e-07 -3.510635e-07 -3.275708e-07 -3.037802e-07 -2.795916e-07 -2.551511e-07 -2.303878e-07 -2.054180e-07 -1.801963e-07 -1.548144e-07 -1.292471e-07 -1.035650e-07 -7.776106e-08 -5.188848e-08 -2.595569e-08 
1.343962e-13 2.594948e-08 5.187044e-08 7.774052e-08 1.035250e-07 1.292069e-07 1.547463e-07 1.801286e-07 2.053119e-07 2.302811e-07 2.549941e-07 2.794319e-07 3.035573e-07 3.273416e-07 3.507568e-07 3.737592e-07 3.963372e-07 4.184246e-07 4.400323e-07 4.610658e-07 4.815653e-07 5.013998e-07 5.206474e-07 5.391327e-07 5.569793e-07 5.739604e-07 5.902534e-07 6.055717e-07 6.201546e-07 6.336489e-07 6.463634e-07 6.578709e-07 6.685577e-07 6.779171e-07 6.864193e-07 6.934727e-07 6.996366e-07 7.042315e-07 7.079099e-07 7.099021e-07 7.109577e-07 7.102149e-07 7.085217e-07 7.049266e-07 7.003747e-07 6.938280e-07 6.863270e-07 6.767512e-07 6.662324e-07 6.535757e-07 6.399972e-07 6.242365e-07 6.075855e-07 5.887300e-07 5.690270e-07 5.471214e-07 5.244226e-07 4.995498e-07 4.739497e-07 4.462328e-07 4.178675e-07 3.874725e-07 3.565200e-07 3.236559e-07 2.903375e-07 2.552577e-07 2.198391e-07 1.828406e-07 1.456304e-07 1.070528e-07 6.840168e-08 2.862475e-08 -1.107747e-08 -5.163660e-08 -9.196379e-08 -1.328548e-07 -1.733492e-07 -2.140932e-07 -2.542703e-07 -2.943671e-07 -3.337226e-07 -3.726561e-07 -4.106724e-07 -4.479184e-07 -4.840728e-07 -5.191084e-07 -5.528812e-07 -5.851922e-07 -6.160760e-07 -6.451669e-07 -6.726762e-07 -6.980796e-07 -7.217589e-07 -7.430443e-07 -7.624793e-07 -7.792625e-07 -7.940872e-07 -8.060392e-07 -8.159464e-07 -8.228006e-07 -8.275478e-07 -8.291080e-07 -8.285248e-07 -8.246703e-07 -8.186643e-07 -8.093547e-07 -7.979150e-07 -7.831943e-07 -7.663949e-07 -7.463913e-07 -7.243914e-07 -6.993194e-07 -6.723635e-07 -6.425206e-07 -6.109356e-07 -5.766992e-07 -5.408901e-07 -5.027126e-07 -4.631570e-07 -4.215584e-07 -3.787994e-07 -3.343592e-07 -2.889956e-07 -2.423434e-07 -1.950204e-07 -1.468252e-07 -9.822248e-08 -4.917963e-08 -1.973309e-13 4.917946e-08 9.822232e-08 1.468250e-07 1.950204e-07 2.423434e-07 2.889954e-07 3.343593e-07 3.787996e-07 4.215585e-07 4.631573e-07 5.027127e-07 5.408902e-07 5.766993e-07 6.109356e-07 6.425204e-07 6.723635e-07 6.993196e-07 7.243917e-07 7.463915e-07 7.663947e-07 7.831941e-07 7.979150e-07 8.093546e-07 8.186640e-07 8.246704e-07 8.285251e-07 8.291082e-07 8.275477e-07 8.228005e-07 8.159460e-07 8.060385e-07 7.940866e-07 7.792619e-07 7.624787e-07 7.430438e-07 7.217584e-07 6.980792e-07 6.726759e-07 6.451668e-07 6.160759e-07 5.851920e-07 5.528812e-07 5.191085e-07 4.840731e-07 4.479186e-07 4.106725e-07 3.726561e-07 3.337227e-07 2.943672e-07 2.542702e-07 2.140932e-07 1.733490e-07 1.328546e-07 9.196372e-08 5.163663e-08 1.107756e-08 -2.862469e-08 -6.840149e-08 -1.070526e-07 -1.456301e-07 -1.828405e-07 -2.198390e-07 -2.552578e-07 -2.903376e-07 -3.236560e-07 -3.565201e-07 -3.874727e-07 -4.178676e-07 -4.462330e-07 -4.739499e-07 -4.995498e-07 -5.244227e-07 -5.471215e-07 -5.690269e-07 -5.887299e-07 -6.075854e-07 -6.242363e-07 -6.399971e-07 -6.535758e-07 -6.662324e-07 -6.767513e-07 -6.863271e-07 -6.938282e-07 -7.003750e-07 -7.049267e-07 -7.085217e-07 -7.102150e-07 -7.109576e-07 -7.099020e-07 -7.079097e-07 -7.042312e-07 -6.996362e-07 -6.934722e-07 -6.864188e-07 -6.779167e-07 -6.685571e-07 -6.578703e-07 -6.463629e-07 -6.336487e-07 -6.201546e-07 -6.055716e-07 -5.902535e-07 -5.739606e-07 -5.569793e-07 -5.391325e-07 -5.206473e-07 -5.013999e-07 -4.815653e-07 -4.610659e-07 -4.400325e-07 -4.184249e-07 -3.963374e-07 -3.737595e-07 -3.507570e-07 -3.273417e-07 -3.035574e-07 -2.794321e-07 -2.549942e-07 -2.302811e-07 -2.053119e-07 -1.801286e-07 -1.547462e-07 -1.292069e-07 -1.035251e-07 -7.774024e-08 -5.187012e-08 -2.594934e-08 
1.578116e-13 2.606785e-08 5.210216e-08 7.809406e-08 1.039854e-07 1.297909e-07 1.554289e-07 1.809353e-07 2.062076e-07 2.312995e-07 2.560905e-07 2.806484e-07 3.048394e-07 3.287395e-07 3.522068e-07 3.753195e-07 3.979347e-07 4.201256e-07 4.417551e-07 4.628840e-07 4.833886e-07 5.033094e-07 5.225450e-07 5.411064e-07 5.589237e-07 5.759699e-07 5.922159e-07 6.075875e-07 6.221058e-07 6.356408e-07 6.482734e-07 6.598090e-07 6.703972e-07 6.797713e-07 6.881590e-07 6.952137e-07 7.012483e-07 7.058311e-07 7.093669e-07 7.113339e-07 7.122347e-07 7.114538e-07 7.095959e-07 7.059502e-07 7.012257e-07 6.946167e-07 6.869373e-07 6.772882e-07 6.665874e-07 6.538473e-07 6.400861e-07 6.242331e-07 6.074011e-07 5.884454e-07 5.685657e-07 5.465533e-07 5.236848e-07 4.986997e-07 4.729395e-07 4.451068e-07 4.165931e-07 3.860798e-07 3.549932e-07 3.220097e-07 2.885736e-07 2.533748e-07 2.178567e-07 1.807408e-07 1.434509e-07 1.047589e-07 6.604907e-08 2.616183e-08 -1.357705e-08 -5.424138e-08 -9.458252e-08 -1.355728e-07 -1.760584e-07 -2.168949e-07 -2.570407e-07 -2.972225e-07 -3.365246e-07 -3.755354e-07 -4.134772e-07 -4.507927e-07 -4.868528e-07 -5.219499e-07 -5.556101e-07 -5.879747e-07 -6.187294e-07 -6.478665e-07 -6.752325e-07 -7.006750e-07 -7.241991e-07 -7.455169e-07 -7.647872e-07 -7.815968e-07 -7.962497e-07 -8.082228e-07 -8.179543e-07 -8.248249e-07 -8.293941e-07 -8.309665e-07 -8.302063e-07 -8.263605e-07 -8.201802e-07 -8.108764e-07 -7.992676e-07 -7.845499e-07 -7.675883e-07 -7.475851e-07 -7.254319e-07 -7.003576e-07 -6.732583e-07 -6.434103e-07 -6.116928e-07 -5.774485e-07 -5.415188e-07 -5.033295e-07 -4.636654e-07 -4.220507e-07 -3.791954e-07 -3.347341e-07 -2.892861e-07 -2.426067e-07 -1.952109e-07 -1.469813e-07 -9.831678e-08 -4.923124e-08 -1.210799e-13 4.923114e-08 9.831656e-08 1.469810e-07 1.952109e-07 2.426068e-07 2.892861e-07 3.347341e-07 3.791955e-07 4.220510e-07 4.636658e-07 5.033298e-07 5.415189e-07 5.774486e-07 6.116928e-07 6.434103e-07 6.732584e-07 7.003578e-07 7.254319e-07 7.475852e-07 7.675883e-07 7.845497e-07 7.992675e-07 8.108763e-07 8.201801e-07 8.263605e-07 8.302066e-07 8.309669e-07 8.293941e-07 8.248246e-07 8.179537e-07 8.082225e-07 7.962494e-07 7.815961e-07 7.647866e-07 7.455164e-07 7.241986e-07 7.006744e-07 6.752323e-07 6.478667e-07 6.187294e-07 5.879746e-07 5.556101e-07 5.219500e-07 4.868530e-07 4.507930e-07 4.134773e-07 3.755354e-07 3.365247e-07 2.972227e-07 2.570406e-07 2.168948e-07 1.760583e-07 1.355726e-07 9.458240e-08 5.424137e-08 1.357711e-08 -2.616168e-08 -6.604884e-08 -1.047586e-07 -1.434506e-07 -1.807407e-07 -2.178566e-07 -2.533749e-07 -2.885736e-07 -3.220097e-07 -3.549933e-07 -3.860799e-07 -4.165933e-07 -4.451070e-07 -4.729398e-07 -4.986999e-07 -5.236848e-07 -5.465533e-07 -5.685656e-07 -5.884453e-07 -6.074010e-07 -6.242329e-07 -6.400860e-07 -6.538474e-07 -6.665875e-07 -6.772882e-07 -6.869374e-07 -6.946168e-07 -7.012259e-07 -7.059504e-07 -7.095960e-07 -7.114539e-07 -7.122347e-07 -7.113338e-07 -7.093667e-07 -7.058308e-07 -7.012479e-07 -6.952132e-07 -6.881585e-07 -6.797709e-07 -6.703966e-07 -6.598084e-07 -6.482730e-07 -6.356406e-07 -6.221057e-07 -6.075874e-07 -5.922161e-07 -5.759700e-07 -5.589238e-07 -5.411064e-07 -5.225449e-07 -5.033094e-07 -4.833887e-07 -4.628840e-07 -4.417552e-07 -4.201259e-07 -3.979350e-07 -3.753199e-07 -3.522069e-07 -3.287396e-07 -3.048395e-07 -2.806486e-07 -2.560907e-07 -2.312996e-07 -2.062075e-07 -1.809352e-07 -1.554289e-07 -1.297909e-07 -1.039854e-07 -7.809386e-08 -5.210189e-08 -2.606767e-08 
5.560820e-14 2.606748e-08 5.209576e-08 7.809173e-08 1.039698e-07 1.297823e-07 1.553985e-07 1.809134e-07 2.061541e-07 2.312547e-07 2.560030e-07 2.805685e-07 3.047049e-07 3.286106e-07 3.520102e-07 3.751254e-07 3.976594e-07 4.198488e-07 4.413829e-07 4.625057e-07 4.829008e-07 5.028105e-07 5.219225e-07 5.404674e-07 5.581475e-07 5.751718e-07 5.912676e-07 6.066121e-07 6.209684e-07 6.344715e-07 6.469320e-07 6.584312e-07 6.688388e-07 6.781733e-07 6.863741e-07 6.933869e-07 6.992308e-07 7.037706e-07 7.071150e-07 7.090391e-07 7.097509e-07 7.089291e-07 7.068876e-07 7.032047e-07 6.983061e-07 6.916653e-07 6.838245e-07 6.741511e-07 6.633058e-07 6.505505e-07 6.366652e-07 6.208081e-07 6.038761e-07 5.849295e-07 5.649772e-07 5.429885e-07 5.200779e-07 4.951328e-07 4.693641e-07 4.415887e-07 4.131023e-07 3.826647e-07 3.516430e-07 3.187541e-07 2.854217e-07 2.503367e-07 2.149617e-07 1.779786e-07 1.408709e-07 1.023299e-07 6.384044e-08 2.412093e-08 -1.536103e-08 -5.584223e-08 -9.589270e-08 -1.366869e-07 -1.768511e-07 -2.174815e-07 -2.572796e-07 -2.972483e-07 -3.361810e-07 -3.749756e-07 -4.125319e-07 -4.496322e-07 -4.852964e-07 -5.201837e-07 -5.534444e-07 -5.856092e-07 -6.159676e-07 -6.449200e-07 -6.718994e-07 -6.971769e-07 -7.203315e-07 -7.415090e-07 -7.604335e-07 -7.771318e-07 -7.914697e-07 -8.033648e-07 -8.128172e-07 -8.196473e-07 -8.239799e-07 -8.255517e-07 -8.246019e-07 -8.207981e-07 -8.144792e-07 -8.052614e-07 -7.935682e-07 -7.789813e-07 -7.619909e-07 -7.421629e-07 -7.200376e-07 -6.951817e-07 -6.681666e-07 -6.385776e-07 -6.069990e-07 -5.730506e-07 -5.373116e-07 -4.994513e-07 -4.600260e-07 -4.187677e-07 -3.761945e-07 -3.321105e-07 -2.869818e-07 -2.406945e-07 -1.936492e-07 -1.458185e-07 -9.752786e-08 -4.884099e-08 -1.771566e-13 4.884095e-08 9.752792e-08 1.458184e-07 1.936491e-07 2.406947e-07 2.869822e-07 3.321106e-07 3.761945e-07 4.187680e-07 4.600266e-07 4.994517e-07 5.373119e-07 5.730509e-07 6.069992e-07 6.385777e-07 6.681668e-07 6.951819e-07 7.200378e-07 7.421631e-07 7.619910e-07 7.789812e-07 7.935681e-07 8.052615e-07 8.144793e-07 8.207983e-07 8.246023e-07 8.255521e-07 8.239800e-07 8.196471e-07 8.128169e-07 8.033644e-07 7.914692e-07 7.771313e-07 7.604328e-07 7.415085e-07 7.203310e-07 6.971764e-07 6.718993e-07 6.449201e-07 6.159677e-07 5.856093e-07 5.534445e-07 5.201838e-07 4.852968e-07 4.496325e-07 4.125321e-07 3.749757e-07 3.361812e-07 2.972485e-07 2.572795e-07 2.174815e-07 1.768511e-07 1.366867e-07 9.589268e-08 5.584230e-08 1.536108e-08 -2.412084e-08 -6.384013e-08 -1.023294e-07 -1.408706e-07 -1.779784e-07 -2.149616e-07 -2.503368e-07 -2.854218e-07 -3.187541e-07 -3.516430e-07 -3.826648e-07 -4.131025e-07 -4.415889e-07 -4.693642e-07 -4.951330e-07 -5.200780e-07 -5.429885e-07 -5.649771e-07 -5.849294e-07 -6.038760e-07 -6.208080e-07 -6.366652e-07 -6.505507e-07 -6.633058e-07 -6.741511e-07 -6.838246e-07 -6.916655e-07 -6.983063e-07 -7.032049e-07 -7.068878e-07 -7.089292e-07 -7.097509e-07 -7.090391e-07 -7.071149e-07 -7.037704e-07 -6.992306e-07 -6.933864e-07 -6.863737e-07 -6.781730e-07 -6.688383e-07 -6.584308e-07 -6.469316e-07 -6.344714e-07 -6.209685e-07 -6.066120e-07 -5.912678e-07 -5.751721e-07 -5.581476e-07 -5.404674e-07 -5.219226e-07 -5.028107e-07 -4.829010e-07 -4.625059e-07 -4.413831e-07 -4.198492e-07 -3.976597e-07 -3.751259e-07 -3.520105e-07 -3.286108e-07 -3.047052e-07 -2.805689e-07 -2.560034e-07 -2.312549e-07 -2.061541e-07 -1.809134e-07 -1.553986e-07 -1.297824e-07 -1.039699e-07 -7.809163e-08 -5.209563e-08 -2.606750e-08 
7.364850e-14 2.619253e-08 5.234058e-08 7.846534e-08 1.044567e-07 1.304006e-07 1.561221e-07 1.817696e-07 2.071065e-07 2.323394e-07 2.571737e-07 2.818700e-07 3.060808e-07 3.301146e-07 3.535760e-07 3.768152e-07 3.993977e-07 4.217059e-07 4.432742e-07 4.645095e-07 4.849238e-07 5.049386e-07 5.240544e-07 5.426959e-07 5.603640e-07 5.774757e-07 5.935436e-07 6.089653e-07 6.232778e-07 6.368473e-07 6.492483e-07 6.608025e-07 6.711355e-07 6.805131e-07 6.886249e-07 6.956683e-07 7.014099e-07 7.059678e-07 7.091975e-07 7.111271e-07 7.117133e-07 7.108843e-07 7.087081e-07 7.050052e-07 6.999643e-07 6.932915e-07 6.853028e-07 6.755855e-07 6.645889e-07 6.517784e-07 6.377403e-07 6.218175e-07 6.047336e-07 5.857115e-07 5.656104e-07 5.435374e-07 5.204836e-07 4.954462e-07 4.695417e-07 4.416672e-07 4.130549e-07 3.825126e-07 3.513766e-07 3.183786e-07 2.849453e-07 2.497479e-07 2.142872e-07 1.771896e-07 1.400125e-07 1.013563e-07 6.281502e-08 2.298071e-08 -1.653486e-08 -5.712957e-08 -9.719480e-08 -1.380999e-07 -1.782600e-07 -2.189980e-07 -2.587730e-07 -2.988452e-07 -3.377364e-07 -3.766297e-07 -4.141271e-07 -4.513207e-07 -4.869094e-07 -5.218841e-07 -5.550540e-07 -5.873006e-07 -6.175544e-07 -6.465824e-07 -6.734453e-07 -6.987925e-07 -7.218206e-07 -7.430619e-07 -7.618520e-07 -7.786084e-07 -7.928062e-07 -8.047538e-07 -8.140626e-07 -8.209402e-07 -8.251276e-07 -8.267425e-07 -8.256478e-07 -8.218826e-07 -8.154218e-07 -8.062386e-07 -7.944076e-07 -7.798510e-07 -7.627292e-07 -7.429280e-07 -7.206788e-07 -6.958455e-07 -6.687151e-07 -6.391450e-07 -6.074608e-07 -5.735267e-07 -5.376927e-07 -4.998419e-07 -4.603322e-07 -4.190783e-07 -3.764316e-07 -3.323463e-07 -2.871550e-07 -2.408596e-07 -1.937621e-07 -1.459163e-07 -9.758387e-08 -4.887334e-08 -1.149874e-13 4.887331e-08 9.758384e-08 1.459160e-07 1.937620e-07 2.408596e-07 2.871552e-07 3.323465e-07 3.764316e-07 4.190784e-07 4.603327e-07 4.998422e-07 5.376929e-07 5.735271e-07 6.074607e-07 6.391449e-07 6.687153e-07 6.958457e-07 7.206788e-07 7.429281e-07 7.627294e-07 7.798511e-07 7.944074e-07 8.062384e-07 8.154218e-07 8.218828e-07 8.256483e-07 8.267427e-07 8.251278e-07 8.209401e-07 8.140620e-07 8.047533e-07 7.928054e-07 7.786080e-07 7.618514e-07 7.430613e-07 7.218201e-07 6.987921e-07 6.734452e-07 6.465824e-07 6.175545e-07 5.873006e-07 5.550542e-07 5.218843e-07 4.869096e-07 4.513209e-07 4.141271e-07 3.766298e-07 3.377367e-07 2.988453e-07 2.587729e-07 2.189980e-07 1.782599e-07 1.380997e-07 9.719470e-08 5.712951e-08 1.653498e-08 -2.298055e-08 -6.281477e-08 -1.013559e-07 -1.400122e-07 -1.771894e-07 -2.142870e-07 -2.497480e-07 -2.849454e-07 -3.183786e-07 -3.513766e-07 -3.825127e-07 -4.130551e-07 -4.416675e-07 -4.695420e-07 -4.954463e-07 -5.204837e-07 -5.435374e-07 -5.656103e-07 -5.857114e-07 -6.047335e-07 -6.218174e-07 -6.377403e-07 -6.517785e-07 -6.645888e-07 -6.755854e-07 -6.853029e-07 -6.932917e-07 -6.999645e-07 -7.050055e-07 -7.087082e-07 -7.108843e-07 -7.117132e-07 -7.111271e-07 -7.091974e-07 -7.059676e-07 -7.014096e-07 -6.956679e-07 -6.886245e-07 -6.805127e-07 -6.711349e-07 -6.608020e-07 -6.492479e-07 -6.368471e-07 -6.232778e-07 -6.089652e-07 -5.935438e-07 -5.774759e-07 -5.603640e-07 -5.426959e-07 -5.240543e-07 -5.049387e-07 -4.849240e-07 -4.645095e-07 -4.432744e-07 -4.217063e-07 -3.993980e-07 -3.768156e-07 -3.535762e-07 -3.301146e-07 -3.060810e-07 -2.818703e-07 -2.571739e-07 -2.323395e-07 -2.071064e-07 -1.817695e-07 -1.561221e-07 -1.304006e-07 -1.044568e-07 -7.846520e-08 -5.234036e-08 -2.619247e-08 
1.199091e-13 2.619784e-08 5.234530e-08 7.848021e-08 1.044637e-07 1.304213e-07 1.561269e-07 1.817904e-07 2.071020e-07 2.323524e-07 2.571510e-07 2.818651e-07 3.060291e-07 3.300799e-07 3.534830e-07 3.767378e-07 3.992494e-07 4.215711e-07 4.430561e-07 4.643021e-07 4.846205e-07 5.046429e-07 5.236503e-07 5.422962e-07 5.598441e-07 5.769566e-07 5.928932e-07 6.083126e-07 6.224839e-07 6.360480e-07 6.482994e-07 6.598457e-07 6.700225e-07 6.793902e-07 6.873413e-07 6.943740e-07 6.999526e-07 7.044996e-07 7.075669e-07 7.094869e-07 7.099143e-07 7.090780e-07 7.067493e-07 7.030431e-07 6.978598e-07 6.911888e-07 6.830710e-07 6.733621e-07 6.622531e-07 6.494595e-07 6.353289e-07 6.194325e-07 6.022795e-07 5.832949e-07 5.631511e-07 5.411276e-07 5.180602e-07 4.930859e-07 4.671992e-07 4.394019e-07 4.108407e-07 3.803904e-07 3.493402e-07 3.164493e-07 2.831373e-07 2.480621e-07 2.127583e-07 1.757974e-07 1.388126e-07 1.003067e-07 6.199157e-08 2.231988e-08 -1.693748e-08 -5.735892e-08 -9.713671e-08 -1.378602e-07 -1.777069e-07 -2.182575e-07 -2.576971e-07 -2.975793e-07 -3.361181e-07 -3.748219e-07 -4.119549e-07 -4.489634e-07 -4.841814e-07 -5.189796e-07 -5.517786e-07 -5.838612e-07 -6.137501e-07 -6.426311e-07 -6.691419e-07 -6.943630e-07 -7.170578e-07 -7.381984e-07 -7.566805e-07 -7.733656e-07 -7.872863e-07 -7.991954e-07 -8.082641e-07 -8.151390e-07 -8.191281e-07 -8.207789e-07 -8.195318e-07 -8.158431e-07 -8.092791e-07 -8.002142e-07 -7.883318e-07 -7.739355e-07 -7.568162e-07 -7.372167e-07 -7.150234e-07 -6.904319e-07 -6.634111e-07 -6.341202e-07 -6.025973e-07 -5.689771e-07 -5.333530e-07 -4.958461e-07 -4.565918e-07 -4.157068e-07 -3.733561e-07 -3.296588e-07 -2.847989e-07 -2.389047e-07 -1.921676e-07 -1.447288e-07 -9.677918e-08 -4.847523e-08 -1.612044e-13 4.847506e-08 9.677906e-08 1.447286e-07 1.921676e-07 2.389046e-07 2.847989e-07 3.296590e-07 3.733560e-07 4.157069e-07 4.565922e-07 4.958463e-07 5.333531e-07 5.689772e-07 6.025975e-07 6.341203e-07 6.634111e-07 6.904321e-07 7.150236e-07 7.372167e-07 7.568161e-07 7.739356e-07 7.883319e-07 8.002141e-07 8.092790e-07 8.158432e-07 8.195321e-07 8.207791e-07 8.191282e-07 8.151390e-07 8.082636e-07 7.991949e-07 7.872857e-07 7.733649e-07 7.566798e-07 7.381979e-07 7.170574e-07 6.943625e-07 6.691416e-07 6.426311e-07 6.137503e-07 5.838612e-07 5.517788e-07 5.189798e-07 4.841816e-07 4.489636e-07 4.119549e-07 3.748220e-07 3.361182e-07 2.975794e-07 2.576971e-07 2.182575e-07 1.777068e-07 1.378600e-07 9.713661e-08 5.735892e-08 1.693755e-08 -2.231982e-08 -6.199134e-08 -1.003063e-07 -1.388123e-07 -1.757972e-07 -2.127582e-07 -2.480622e-07 -2.831374e-07 -3.164493e-07 -3.493403e-07 -3.803906e-07 -4.108409e-07 -4.394022e-07 -4.671994e-07 -4.930860e-07 -5.180603e-07 -5.411277e-07 -5.631510e-07 -5.832948e-07 -6.022795e-07 -6.194324e-07 -6.353289e-07 -6.494594e-07 -6.622531e-07 -6.733621e-07 -6.830711e-07 -6.911889e-07 -6.978600e-07 -7.030433e-07 -7.067495e-07 -7.090780e-07 -7.099142e-07 -7.094868e-07 -7.075668e-07 -7.044994e-07 -6.999522e-07 -6.943735e-07 -6.873408e-07 -6.793898e-07 -6.700219e-07 -6.598452e-07 -6.482990e-07 -6.360478e-07 -6.224839e-07 -6.083125e-07 -5.928934e-07 -5.769568e-07 -5.598440e-07 -5.422962e-07 -5.236503e-07 -5.046429e-07 -4.846206e-07 -4.643022e-07 -4.430562e-07 -4.215714e-07 -3.992497e-07 -3.767381e-07 -3.534831e-07 -3.300800e-07 -3.060293e-07 -2.818653e-07 -2.571512e-07 -2.323524e-07 -2.071019e-07 -1.817903e-07 -1.561268e-07 -1.304213e-07 -1.044638e-07 -7.847999e-08 -5.234504e-08 -2.619774e-08 