# vtk DataFile Version 2.0
Comment goes here
ASCII

DATASET STRUCTURED_POINTS
FIELD FieldData 1
TIME 1 1 double
0.06000000
DIMENSIONS    256   256   1

ORIGIN    0.000   0.000   0.000
SPACING   0.0039062 0.0039062   1.000

POINT_DATA   65536
SCALARS Omega double
LOOKUP_TABLE default

1.762083e-13 9.714182e-08 1.941887e-07 2.910271e-07 3.875803e-07 4.837144e-07 5.793701e-07 6.743914e-07 7.687370e-07 8.622266e-07 9.548361e-07 1.046360e-06 1.136793e-06 1.225902e-06 1.313699e-06 1.399922e-06 1.484604e-06 1.567450e-06 1.648516e-06 1.727471e-06 1.804399e-06 1.878931e-06 1.951177e-06 2.020732e-06 2.087733e-06 2.151738e-06 2.212916e-06 2.270785e-06 2.325549e-06 2.376687e-06 2.424440e-06 2.468250e-06 2.508395e-06 2.544281e-06 2.576229e-06 2.603611e-06 2.626791e-06 2.645110e-06 2.658977e-06 2.667709e-06 2.671757e-06 2.670422e-06 2.664195e-06 2.652370e-06 2.635478e-06 2.612810e-06 2.584937e-06 2.551156e-06 2.512076e-06 2.467010e-06 2.416598e-06 2.360184e-06 2.298431e-06 2.230726e-06 2.157750e-06 2.078943e-06 1.994997e-06 1.905419e-06 1.810901e-06 1.711033e-06 1.606496e-06 1.496972e-06 1.383123e-06 1.264735e-06 1.142440e-06 1.016140e-06 8.864224e-07 7.533160e-07 6.173523e-07 4.786949e-07 3.378071e-07 1.949937e-07 5.063817e-08 -9.480853e-08 -2.410556e-07 -3.875027e-07 -5.339622e-07 -6.796851e-07 -8.245971e-07 -9.678028e-07 -1.109350e-06 -1.248201e-06 -1.384535e-06 -1.517180e-06 -1.646450e-06 -1.771052e-06 -1.891436e-06 -2.006200e-06 -2.115936e-06 -2.219147e-06 -2.316565e-06 -2.406616e-06 -2.490168e-06 -2.565592e-06 -2.633887e-06 -2.693387e-06 -2.745216e-06 -2.787695e-06 -2.822060e-06 -2.846644e-06 -2.862781e-06 -2.868840e-06 -2.866241e-06 -2.853410e-06 -2.831838e-06 -2.800029e-06 -2.759526e-06 -2.708938e-06 -2.649837e-06 -2.580955e-06 -2.503877e-06 -2.417476e-06 -2.323326e-06 -2.220459e-06 -2.110417e-06 -1.992405e-06 -1.867909e-06 -1.736317e-06 -1.599043e-06 -1.455666e-06 -1.307501e-06 -1.154327e-06 -9.973413e-07 -8.365238e-07 -6.729360e-07 -5.067573e-07 -3.388971e-07 -1.697306e-07 -2.504163e-13 1.697302e-07 3.388968e-07 5.067571e-07 6.729359e-07 8.365238e-07 9.973416e-07 1.154327e-06 1.307501e-06 1.455666e-06 1.599043e-06 1.736318e-06 1.867909e-06 1.992405e-06 2.110418e-06 2.220460e-06 2.323326e-06 2.417476e-06 2.503877e-06 2.580955e-06 2.649837e-06 2.708938e-06 2.759527e-06 2.800029e-06 2.831838e-06 2.853411e-06 2.866241e-06 2.868840e-06 2.862781e-06 2.846643e-06 2.822059e-06 2.787695e-06 2.745215e-06 2.693387e-06 2.633886e-06 2.565591e-06 2.490167e-06 2.406615e-06 2.316564e-06 2.219147e-06 2.115936e-06 2.006200e-06 1.891436e-06 1.771052e-06 1.646450e-06 1.517181e-06 1.384535e-06 1.248201e-06 1.109350e-06 9.678028e-07 8.245970e-07 6.796849e-07 5.339621e-07 3.875028e-07 2.410556e-07 9.480875e-08 -5.063798e-08 -1.949936e-07 -3.378069e-07 -4.786948e-07 -6.173521e-07 -7.533157e-07 -8.864222e-07 -1.016140e-06 -1.142440e-06 -1.264735e-06 -1.383123e-06 -1.496972e-06 -1.606496e-06 -1.711033e-06 -1.810902e-06 -1.905419e-06 -1.994996e-06 -2.078943e-06 -2.157750e-06 -2.230726e-06 -2.298431e-06 -2.360184e-06 -2.416598e-06 -2.467010e-06 -2.512076e-06 -2.551156e-06 -2.584937e-06 -2.612810e-06 -2.635478e-06 -2.652370e-06 -2.664196e-06 -2.670422e-06 -2.671757e-06 -2.667709e-06 -2.658976e-06 -2.645110e-06 -2.626790e-06 -2.603611e-06 -2.576228e-06 -2.544280e-06 -2.508394e-06 -2.468249e-06 -2.424440e-06 -2.376687e-06 -2.325549e-06 -2.270785e-06 -2.212916e-06 -2.151738e-06 -2.087733e-06 -2.020732e-06 -1.951177e-06 -1.878932e-06 -1.804399e-06 -1.727472e-06 -1.648516e-06 -1.567450e-06 -1.484604e-06 -1.399922e-06 -1.313700e-06 -1.225902e-06 -1.136794e-06 -1.046361e-06 -9.548365e-07 -8.622268e-07 -7.687371e-07 -6.743916e-07 -5.793703e-07 -4.837146e-07 -3.875805e-07 -2.910269e-07 -1.941884e-07 -9.714158e-08 
1.230590e-13 9.721540e-08 1.943231e-07 2.912425e-07 3.878379e-07 4.840547e-07 5.797286e-07 6.748290e-07 7.691634e-07 8.627232e-07 9.552874e-07 1.046868e-06 1.137217e-06 1.226363e-06 1.314032e-06 1.400270e-06 1.484777e-06 1.567611e-06 1.648452e-06 1.727366e-06 1.804016e-06 1.878474e-06 1.950388e-06 2.019834e-06 2.086448e-06 2.150308e-06 2.211044e-06 2.268731e-06 2.322999e-06 2.373919e-06 2.421125e-06 2.464679e-06 2.504229e-06 2.539826e-06 2.571135e-06 2.598196e-06 2.620698e-06 2.638668e-06 2.651826e-06 2.660184e-06 2.663500e-06 2.661769e-06 2.654797e-06 2.642562e-06 2.624918e-06 2.601833e-06 2.573213e-06 2.539014e-06 2.499203e-06 2.453724e-06 2.402609e-06 2.345795e-06 2.283379e-06 2.215293e-06 2.141705e-06 2.062546e-06 1.978049e-06 1.888155e-06 1.793161e-06 1.693018e-06 1.588088e-06 1.478339e-06 1.364189e-06 1.245631e-06 1.123135e-06 9.967243e-07 8.669131e-07 7.337592e-07 5.978128e-07 4.591736e-07 3.184170e-07 1.756890e-07 3.157912e-08 -1.137153e-07 -2.596038e-07 -4.058336e-07 -5.518254e-07 -6.972694e-07 -8.416101e-07 -9.844800e-07 -1.125360e-06 -1.263826e-06 -1.399408e-06 -1.531625e-06 -1.660069e-06 -1.784208e-06 -1.903707e-06 -2.017986e-06 -2.126792e-06 -2.229504e-06 -2.325962e-06 -2.415513e-06 -2.498093e-06 -2.573028e-06 -2.640354e-06 -2.699386e-06 -2.750266e-06 -2.792310e-06 -2.825763e-06 -2.849953e-06 -2.865230e-06 -2.870947e-06 -2.867553e-06 -2.854440e-06 -2.832149e-06 -2.800123e-06 -2.758988e-06 -2.708250e-06 -2.648612e-06 -2.579652e-06 -2.502135e-06 -2.415726e-06 -2.321239e-06 -2.218432e-06 -2.108154e-06 -1.990263e-06 -1.865629e-06 -1.734215e-06 -1.596894e-06 -1.453741e-06 -1.305614e-06 -1.152698e-06 -9.958262e-07 -8.352887e-07 -6.718772e-07 -5.059872e-07 -3.383531e-07 -1.694688e-07 -8.924029e-14 1.694686e-07 3.383527e-07 5.059870e-07 6.718772e-07 8.352888e-07 9.958265e-07 1.152699e-06 1.305615e-06 1.453741e-06 1.596895e-06 1.734216e-06 1.865629e-06 1.990263e-06 2.108154e-06 2.218433e-06 2.321239e-06 2.415727e-06 2.502135e-06 2.579652e-06 2.648612e-06 2.708251e-06 2.758988e-06 2.800123e-06 2.832149e-06 2.854440e-06 2.867553e-06 2.870947e-06 2.865230e-06 2.849953e-06 2.825762e-06 2.792309e-06 2.750266e-06 2.699385e-06 2.640353e-06 2.573027e-06 2.498093e-06 2.415513e-06 2.325962e-06 2.229504e-06 2.126791e-06 2.017986e-06 1.903708e-06 1.784209e-06 1.660070e-06 1.531625e-06 1.399408e-06 1.263826e-06 1.125361e-06 9.844801e-07 8.416100e-07 6.972692e-07 5.518252e-07 4.058337e-07 2.596039e-07 1.137156e-07 -3.157895e-08 -1.756889e-07 -3.184169e-07 -4.591734e-07 -5.978125e-07 -7.337588e-07 -8.669129e-07 -9.967245e-07 -1.123135e-06 -1.245631e-06 -1.364189e-06 -1.478339e-06 -1.588088e-06 -1.693019e-06 -1.793161e-06 -1.888155e-06 -1.978050e-06 -2.062546e-06 -2.141705e-06 -2.215293e-06 -2.283379e-06 -2.345795e-06 -2.402609e-06 -2.453724e-06 -2.499203e-06 -2.539014e-06 -2.573213e-06 -2.601833e-06 -2.624919e-06 -2.642562e-06 -2.654797e-06 -2.661769e-06 -2.663499e-06 -2.660183e-06 -2.651826e-06 -2.638667e-06 -2.620698e-06 -2.598195e-06 -2.571134e-06 -2.539825e-06 -2.504228e-06 -2.464678e-06 -2.421125e-06 -2.373918e-06 -2.322999e-06 -2.268731e-06 -2.211044e-06 -2.150308e-06 -2.086448e-06 -2.019834e-06 -1.950388e-06 -1.878475e-06 -1.804017e-06 -1.727367e-06 -1.648452e-06 -1.567611e-06 -1.484777e-06 -1.400270e-06 -1.314033e-06 -1.226363e-06 -1.137217e-06 -1.046868e-06 -9.552877e-07 -8.627235e-07 -7.691636e-07 -6.748292e-07 -5.797288e-07 -4.840549e-07 -3.878380e-07 -2.912423e-07 -1.943228e-07 -9.721522e-08 
1.336015e-13 9.728902e-08 1.944576e-07 2.914583e-07 3.880967e-07 4.843976e-07 5.800917e-07 6.752741e-07 7.696013e-07 8.632360e-07 9.557609e-07 1.047405e-06 1.137678e-06 1.226872e-06 1.314426e-06 1.400693e-06 1.485041e-06 1.567881e-06 1.648517e-06 1.727411e-06 1.803808e-06 1.878218e-06 1.949830e-06 2.019197e-06 2.085459e-06 2.149210e-06 2.209544e-06 2.267090e-06 2.320908e-06 2.371655e-06 2.418365e-06 2.461716e-06 2.500726e-06 2.536090e-06 2.566822e-06 2.593623e-06 2.615515e-06 2.633201e-06 2.645721e-06 2.653775e-06 2.656434e-06 2.654384e-06 2.646743e-06 2.634177e-06 2.615863e-06 2.592440e-06 2.563158e-06 2.528621e-06 2.488165e-06 2.442355e-06 2.390623e-06 2.333491e-06 2.270497e-06 2.202113e-06 2.127995e-06 2.048563e-06 1.963597e-06 1.873462e-06 1.778068e-06 1.677722e-06 1.572470e-06 1.462561e-06 1.348175e-06 1.229506e-06 1.106868e-06 9.803969e-07 8.505411e-07 7.173822e-07 5.814934e-07 4.429057e-07 3.023104e-07 1.596910e-07 1.584640e-08 -1.292835e-07 -2.748045e-07 -4.208156e-07 -5.663422e-07 -7.115169e-07 -8.553004e-07 -9.978552e-07 -1.138094e-06 -1.276205e-06 -1.411071e-06 -1.542901e-06 -1.670567e-06 -1.794295e-06 -1.912964e-06 -2.026817e-06 -2.134757e-06 -2.237038e-06 -2.332609e-06 -2.421734e-06 -2.503420e-06 -2.577944e-06 -2.644386e-06 -2.703032e-06 -2.753053e-06 -2.794746e-06 -2.827377e-06 -2.851261e-06 -2.865770e-06 -2.871233e-06 -2.867134e-06 -2.853824e-06 -2.830904e-06 -2.798745e-06 -2.757065e-06 -2.706261e-06 -2.646168e-06 -2.577209e-06 -2.499332e-06 -2.412990e-06 -2.318240e-06 -2.215563e-06 -2.105118e-06 -1.987415e-06 -1.862708e-06 -1.731533e-06 -1.594228e-06 -1.451354e-06 -1.303324e-06 -1.150719e-06 -9.940145e-07 -8.338083e-07 -6.706239e-07 -5.050717e-07 -3.377125e-07 -1.691591e-07 -1.269825e-13 1.691588e-07 3.377121e-07 5.050715e-07 6.706240e-07 8.338083e-07 9.940146e-07 1.150720e-06 1.303324e-06 1.451355e-06 1.594228e-06 1.731534e-06 1.862708e-06 1.987416e-06 2.105118e-06 2.215563e-06 2.318241e-06 2.412990e-06 2.499332e-06 2.577209e-06 2.646168e-06 2.706261e-06 2.757066e-06 2.798745e-06 2.830904e-06 2.853825e-06 2.867134e-06 2.871232e-06 2.865769e-06 2.851261e-06 2.827377e-06 2.794745e-06 2.753052e-06 2.703032e-06 2.644385e-06 2.577943e-06 2.503420e-06 2.421734e-06 2.332609e-06 2.237038e-06 2.134757e-06 2.026817e-06 1.912965e-06 1.794295e-06 1.670567e-06 1.542901e-06 1.411071e-06 1.276205e-06 1.138094e-06 9.978552e-07 8.553003e-07 7.115167e-07 5.663421e-07 4.208157e-07 2.748047e-07 1.292837e-07 -1.584619e-08 -1.596908e-07 -3.023103e-07 -4.429055e-07 -5.814930e-07 -7.173818e-07 -8.505410e-07 -9.803970e-07 -1.106868e-06 -1.229506e-06 -1.348175e-06 -1.462561e-06 -1.572470e-06 -1.677723e-06 -1.778068e-06 -1.873462e-06 -1.963597e-06 -2.048563e-06 -2.127995e-06 -2.202113e-06 -2.270496e-06 -2.333491e-06 -2.390623e-06 -2.442356e-06 -2.488165e-06 -2.528621e-06 -2.563158e-06 -2.592440e-06 -2.615863e-06 -2.634177e-06 -2.646743e-06 -2.654384e-06 -2.656434e-06 -2.653775e-06 -2.645721e-06 -2.633200e-06 -2.615514e-06 -2.593623e-06 -2.566821e-06 -2.536090e-06 -2.500725e-06 -2.461715e-06 -2.418364e-06 -2.371655e-06 -2.320908e-06 -2.267090e-06 -2.209544e-06 -2.149210e-06 -2.085459e-06 -2.019197e-06 -1.949830e-06 -1.878219e-06 -1.803808e-06 -1.727412e-06 -1.648517e-06 -1.567881e-06 -1.485041e-06 -1.400693e-06 -1.314427e-06 -1.226873e-06 -1.137679e-06 -1.047406e-06 -9.557613e-07 -8.632363e-07 -7.696013e-07 -6.752743e-07 -5.800921e-07 -4.843979e-07 -3.880969e-07 -2.914581e-07 -1.944573e-07 -9.728888e-08 
1.909724e-13 9.740822e-08 1.946830e-07 2.918109e-07 3.885382e-07 4.849695e-07 5.807301e-07 6.760414e-07 7.704083e-07 8.641662e-07 9.566995e-07 1.048456e-06 1.138703e-06 1.227996e-06 1.315484e-06 1.401831e-06 1.486072e-06 1.568971e-06 1.649455e-06 1.728385e-06 1.804583e-06 1.879002e-06 1.950365e-06 2.019713e-06 2.085679e-06 2.149380e-06 2.209369e-06 2.266834e-06 2.320260e-06 2.370895e-06 2.417167e-06 2.460376e-06 2.498905e-06 2.534098e-06 2.564310e-06 2.590912e-06 2.612250e-06 2.629712e-06 2.641651e-06 2.649459e-06 2.651514e-06 2.649201e-06 2.640943e-06 2.628100e-06 2.609164e-06 2.585455e-06 2.555554e-06 2.520728e-06 2.479667e-06 2.433570e-06 2.381258e-06 2.323846e-06 2.260305e-06 2.191655e-06 2.117035e-06 2.037358e-06 1.951943e-06 1.861589e-06 1.765810e-06 1.665277e-06 1.559712e-06 1.449653e-06 1.335034e-06 1.216256e-06 1.093472e-06 9.669377e-07 8.370286e-07 7.038543e-07 5.680082e-07 4.294554e-07 2.890010e-07 1.464673e-07 2.862121e-09 -1.421315e-07 -2.873164e-07 -4.331425e-07 -5.782395e-07 -7.231836e-07 -8.664497e-07 -1.008733e-06 -1.148374e-06 -1.286177e-06 -1.420374e-06 -1.551867e-06 -1.678804e-06 -1.802174e-06 -1.920067e-06 -2.033549e-06 -2.140677e-06 -2.242584e-06 -2.337323e-06 -2.426080e-06 -2.506928e-06 -2.581100e-06 -2.646713e-06 -2.705034e-06 -2.754250e-06 -2.795653e-06 -2.827518e-06 -2.851155e-06 -2.864949e-06 -2.870215e-06 -2.865466e-06 -2.852018e-06 -2.828521e-06 -2.796285e-06 -2.754112e-06 -2.703295e-06 -2.642798e-06 -2.573892e-06 -2.495706e-06 -2.409482e-06 -2.314518e-06 -2.212020e-06 -2.101457e-06 -1.983990e-06 -1.859256e-06 -1.728366e-06 -1.591121e-06 -1.448575e-06 -1.300684e-06 -1.148437e-06 -9.919423e-07 -8.321116e-07 -6.691978e-07 -5.040270e-07 -3.369860e-07 -1.688064e-07 -4.363205e-14 1.688061e-07 3.369856e-07 5.040267e-07 6.691976e-07 8.321116e-07 9.919425e-07 1.148437e-06 1.300684e-06 1.448575e-06 1.591122e-06 1.728367e-06 1.859256e-06 1.983990e-06 2.101457e-06 2.212021e-06 2.314518e-06 2.409482e-06 2.495706e-06 2.573893e-06 2.642799e-06 2.703296e-06 2.754112e-06 2.796285e-06 2.828522e-06 2.852018e-06 2.865466e-06 2.870215e-06 2.864949e-06 2.851155e-06 2.827518e-06 2.795652e-06 2.754250e-06 2.705034e-06 2.646712e-06 2.581100e-06 2.506928e-06 2.426079e-06 2.337322e-06 2.242584e-06 2.140677e-06 2.033548e-06 1.920067e-06 1.802174e-06 1.678805e-06 1.551868e-06 1.420374e-06 1.286177e-06 1.148374e-06 1.008733e-06 8.664497e-07 7.231835e-07 5.782394e-07 4.331425e-07 2.873164e-07 1.421317e-07 -2.861902e-09 -1.464672e-07 -2.890009e-07 -4.294551e-07 -5.680079e-07 -7.038539e-07 -8.370284e-07 -9.669378e-07 -1.093472e-06 -1.216256e-06 -1.335034e-06 -1.449653e-06 -1.559712e-06 -1.665277e-06 -1.765810e-06 -1.861589e-06 -1.951943e-06 -2.037358e-06 -2.117035e-06 -2.191655e-06 -2.260304e-06 -2.323846e-06 -2.381258e-06 -2.433570e-06 -2.479667e-06 -2.520728e-06 -2.555554e-06 -2.585455e-06 -2.609164e-06 -2.628100e-06 -2.640943e-06 -2.649201e-06 -2.651514e-06 -2.649459e-06 -2.641650e-06 -2.629712e-06 -2.612249e-06 -2.590912e-06 -2.564309e-06 -2.534098e-06 -2.498904e-06 -2.460375e-06 -2.417166e-06 -2.370895e-06 -2.320260e-06 -2.266834e-06 -2.209369e-06 -2.149380e-06 -2.085679e-06 -2.019714e-06 -1.950366e-06 -1.879002e-06 -1.804583e-06 -1.728385e-06 -1.649455e-06 -1.568972e-06 -1.486072e-06 -1.401832e-06 -1.315485e-06 -1.227996e-06 -1.138703e-06 -1.048457e-06 -9.567000e-07 -8.641664e-07 -7.704085e-07 -6.760416e-07 -5.807304e-07 -4.849697e-07 -3.885384e-07 -2.918108e-07 -1.946828e-07 -9.740804e-08 
1.698244e-13 9.752574e-08 1.949054e-07 2.921591e-07 3.889743e-07 4.855357e-07 5.813632e-07 6.768047e-07 7.712135e-07 8.650976e-07 9.576439e-07 1.049520e-06 1.139747e-06 1.229147e-06 1.316580e-06 1.403020e-06 1.487168e-06 1.570143e-06 1.650492e-06 1.729478e-06 1.805499e-06 1.879952e-06 1.951095e-06 2.020453e-06 2.086155e-06 2.149841e-06 2.209522e-06 2.266948e-06 2.320023e-06 2.370593e-06 2.416474e-06 2.459592e-06 2.497693e-06 2.532772e-06 2.562521e-06 2.588986e-06 2.609833e-06 2.627138e-06 2.638562e-06 2.646195e-06 2.647719e-06 2.645216e-06 2.636416e-06 2.623373e-06 2.603893e-06 2.579978e-06 2.549540e-06 2.514506e-06 2.472923e-06 2.426621e-06 2.373810e-06 2.316201e-06 2.252195e-06 2.183362e-06 2.108320e-06 2.028476e-06 1.942691e-06 1.852194e-06 1.756104e-06 1.655455e-06 1.549647e-06 1.439503e-06 1.324716e-06 1.205887e-06 1.083015e-06 9.564685e-07 8.265553e-07 6.934084e-07 5.576457e-07 4.191611e-07 2.788787e-07 1.364541e-07 -6.890598e-09 -1.517350e-07 -2.965732e-07 -4.422125e-07 -5.868802e-07 -7.316025e-07 -8.743627e-07 -1.016393e-06 -1.155459e-06 -1.292985e-06 -1.426546e-06 -1.557743e-06 -1.683993e-06 -1.807055e-06 -1.924223e-06 -2.037393e-06 -2.143769e-06 -2.245369e-06 -2.339343e-06 -2.427805e-06 -2.507890e-06 -2.581789e-06 -2.646652e-06 -2.704730e-06 -2.753224e-06 -2.794421e-06 -2.825606e-06 -2.849082e-06 -2.862248e-06 -2.867405e-06 -2.862092e-06 -2.848590e-06 -2.824603e-06 -2.792374e-06 -2.749790e-06 -2.699043e-06 -2.638222e-06 -2.569447e-06 -2.491028e-06 -2.404995e-06 -2.309890e-06 -2.207641e-06 -2.097027e-06 -1.979862e-06 -1.855165e-06 -1.724623e-06 -1.587498e-06 -1.445335e-06 -1.297641e-06 -1.145804e-06 -9.895736e-07 -8.301697e-07 -6.675768e-07 -5.028369e-07 -3.361629e-07 -1.684054e-07 -2.893650e-15 1.684052e-07 3.361624e-07 5.028365e-07 6.675767e-07 8.301698e-07 9.895737e-07 1.145805e-06 1.297641e-06 1.445335e-06 1.587498e-06 1.724623e-06 1.855165e-06 1.979862e-06 2.097027e-06 2.207642e-06 2.309890e-06 2.404996e-06 2.491028e-06 2.569447e-06 2.638222e-06 2.699043e-06 2.749791e-06 2.792374e-06 2.824603e-06 2.848591e-06 2.862092e-06 2.867405e-06 2.862247e-06 2.849081e-06 2.825605e-06 2.794420e-06 2.753223e-06 2.704729e-06 2.646651e-06 2.581788e-06 2.507889e-06 2.427805e-06 2.339343e-06 2.245369e-06 2.143769e-06 2.037393e-06 1.924223e-06 1.807056e-06 1.683994e-06 1.557743e-06 1.426546e-06 1.292985e-06 1.155459e-06 1.016394e-06 8.743627e-07 7.316024e-07 5.868800e-07 4.422125e-07 2.965734e-07 1.517353e-07 6.890739e-09 -1.364540e-07 -2.788786e-07 -4.191609e-07 -5.576454e-07 -6.934081e-07 -8.265552e-07 -9.564686e-07 -1.083015e-06 -1.205887e-06 -1.324716e-06 -1.439503e-06 -1.549647e-06 -1.655455e-06 -1.756104e-06 -1.852194e-06 -1.942691e-06 -2.028476e-06 -2.108319e-06 -2.183362e-06 -2.252195e-06 -2.316201e-06 -2.373810e-06 -2.426621e-06 -2.472923e-06 -2.514506e-06 -2.549540e-06 -2.579978e-06 -2.603894e-06 -2.623373e-06 -2.636416e-06 -2.645216e-06 -2.647719e-06 -2.646195e-06 -2.638561e-06 -2.627138e-06 -2.609833e-06 -2.588986e-06 -2.562520e-06 -2.532771e-06 -2.497692e-06 -2.459591e-06 -2.416473e-06 -2.370593e-06 -2.320023e-06 -2.266948e-06 -2.209522e-06 -2.149841e-06 -2.086155e-06 -2.020454e-06 -1.951096e-06 -1.879952e-06 -1.805499e-06 -1.729478e-06 -1.650492e-06 -1.570143e-06 -1.487168e-06 -1.403021e-06 -1.316581e-06 -1.229147e-06 -1.139747e-06 -1.049520e-06 -9.576444e-07 -8.650979e-07 -7.712137e-07 -6.768050e-07 -5.813636e-07 -4.855360e-07 -3.889745e-07 -2.921590e-07 -1.949051e-07 -9.752558e-08 
2.020225e-13 9.768739e-08 1.952159e-07 2.926401e-07 3.895876e-07 4.863240e-07 5.822633e-07 6.778807e-07 7.723769e-07 8.664342e-07 9.590400e-07 1.051082e-06 1.141337e-06 1.230895e-06 1.318322e-06 1.404906e-06 1.489010e-06 1.572113e-06 1.652380e-06 1.731475e-06 1.807372e-06 1.881915e-06 1.952892e-06 2.022318e-06 2.087810e-06 2.151540e-06 2.210969e-06 2.268414e-06 2.321196e-06 2.371761e-06 2.417307e-06 2.460396e-06 2.498126e-06 2.533150e-06 2.562494e-06 2.588883e-06 2.609293e-06 2.626501e-06 2.637464e-06 2.644980e-06 2.646024e-06 2.643388e-06 2.634097e-06 2.620907e-06 2.600930e-06 2.576860e-06 2.545927e-06 2.510732e-06 2.468666e-06 2.422202e-06 2.368928e-06 2.311160e-06 2.246719e-06 2.177735e-06 2.102295e-06 2.022313e-06 1.936177e-06 1.845558e-06 1.749171e-06 1.648421e-06 1.542379e-06 1.432159e-06 1.317206e-06 1.198329e-06 1.075365e-06 9.488019e-07 8.188754e-07 6.857454e-07 5.500510e-07 4.116177e-07 2.714872e-07 1.291489e-07 -1.396076e-08 -1.586847e-07 -3.032062e-07 -4.486923e-07 -5.929653e-07 -7.375046e-07 -8.797970e-07 -1.021619e-06 -1.160151e-06 -1.297446e-06 -1.430416e-06 -1.561367e-06 -1.686978e-06 -1.809785e-06 -1.926276e-06 -2.039189e-06 -2.144864e-06 -2.246213e-06 -2.339474e-06 -2.427700e-06 -2.507073e-06 -2.580757e-06 -2.644923e-06 -2.702817e-06 -2.750641e-06 -2.791692e-06 -2.822248e-06 -2.845621e-06 -2.858211e-06 -2.863316e-06 -2.857490e-06 -2.843992e-06 -2.819564e-06 -2.787396e-06 -2.744452e-06 -2.693827e-06 -2.632732e-06 -2.564140e-06 -2.485535e-06 -2.399745e-06 -2.304544e-06 -2.202595e-06 -2.091975e-06 -1.975160e-06 -1.850545e-06 -1.720397e-06 -1.583437e-06 -1.441704e-06 -1.294249e-06 -1.142869e-06 -9.869450e-07 -8.280122e-07 -6.657831e-07 -5.015178e-07 -3.352536e-07 -1.679616e-07 -2.837511e-14 1.679614e-07 3.352530e-07 5.015174e-07 6.657832e-07 8.280124e-07 9.869453e-07 1.142869e-06 1.294250e-06 1.441704e-06 1.583437e-06 1.720398e-06 1.850546e-06 1.975161e-06 2.091975e-06 2.202595e-06 2.304545e-06 2.399746e-06 2.485535e-06 2.564141e-06 2.632732e-06 2.693828e-06 2.744453e-06 2.787397e-06 2.819564e-06 2.843992e-06 2.857490e-06 2.863316e-06 2.858211e-06 2.845621e-06 2.822247e-06 2.791691e-06 2.750641e-06 2.702816e-06 2.644922e-06 2.580756e-06 2.507072e-06 2.427700e-06 2.339474e-06 2.246213e-06 2.144864e-06 2.039189e-06 1.926276e-06 1.809785e-06 1.686978e-06 1.561367e-06 1.430416e-06 1.297446e-06 1.160151e-06 1.021619e-06 8.797971e-07 7.375045e-07 5.929650e-07 4.486923e-07 3.032064e-07 1.586849e-07 1.396092e-08 -1.291488e-07 -2.714871e-07 -4.116177e-07 -5.500508e-07 -6.857452e-07 -8.188753e-07 -9.488021e-07 -1.075365e-06 -1.198329e-06 -1.317206e-06 -1.432159e-06 -1.542379e-06 -1.648422e-06 -1.749172e-06 -1.845558e-06 -1.936178e-06 -2.022314e-06 -2.102295e-06 -2.177735e-06 -2.246719e-06 -2.311160e-06 -2.368928e-06 -2.422202e-06 -2.468666e-06 -2.510732e-06 -2.545927e-06 -2.576860e-06 -2.600931e-06 -2.620908e-06 -2.634097e-06 -2.643388e-06 -2.646024e-06 -2.644980e-06 -2.637463e-06 -2.626500e-06 -2.609293e-06 -2.588882e-06 -2.562493e-06 -2.533150e-06 -2.498125e-06 -2.460395e-06 -2.417307e-06 -2.371761e-06 -2.321196e-06 -2.268415e-06 -2.210969e-06 -2.151540e-06 -2.087810e-06 -2.022318e-06 -1.952892e-06 -1.881915e-06 -1.807373e-06 -1.731476e-06 -1.652380e-06 -1.572113e-06 -1.489010e-06 -1.404906e-06 -1.318322e-06 -1.230895e-06 -1.141338e-06 -1.051083e-06 -9.590404e-07 -8.664344e-07 -7.723771e-07 -6.778809e-07 -5.822636e-07 -4.863243e-07 -3.895878e-07 -2.926399e-07 -1.952157e-07 -9.768715e-08 
1.910556e-13 9.784641e-08 1.955214e-07 2.931136e-07 3.901916e-07 4.871017e-07 5.831523e-07 6.789459e-07 7.735307e-07 8.677632e-07 9.604319e-07 1.052646e-06 1.142935e-06 1.232657e-06 1.320087e-06 1.406827e-06 1.490900e-06 1.574147e-06 1.654348e-06 1.733573e-06 1.809368e-06 1.884024e-06 1.954861e-06 2.024384e-06 2.089698e-06 2.153506e-06 2.212720e-06 2.270224e-06 2.322753e-06 2.373358e-06 2.418617e-06 2.461727e-06 2.499136e-06 2.534163e-06 2.563157e-06 2.589531e-06 2.609567e-06 2.626742e-06 2.637310e-06 2.644780e-06 2.645414e-06 2.642720e-06 2.633010e-06 2.619752e-06 2.599355e-06 2.575209e-06 2.543861e-06 2.508587e-06 2.466118e-06 2.419575e-06 2.365919e-06 2.308075e-06 2.243281e-06 2.174227e-06 2.098470e-06 2.018429e-06 1.932020e-06 1.841355e-06 1.744746e-06 1.643967e-06 1.537759e-06 1.427530e-06 1.312474e-06 1.193611e-06 1.070612e-06 9.440851e-07 8.141953e-07 6.811261e-07 5.455419e-07 4.071946e-07 2.672485e-07 1.250210e-07 -1.783055e-08 -1.624200e-07 -3.066121e-07 -4.519420e-07 -5.958180e-07 -7.401824e-07 -8.820155e-07 -1.023647e-06 -1.161664e-06 -1.298759e-06 -1.431166e-06 -1.561911e-06 -1.686922e-06 -1.809524e-06 -1.925387e-06 -2.038102e-06 -2.143133e-06 -2.244297e-06 -2.336910e-06 -2.424971e-06 -2.503703e-06 -2.577251e-06 -2.640796e-06 -2.698587e-06 -2.745823e-06 -2.786811e-06 -2.816821e-06 -2.840180e-06 -2.852277e-06 -2.857418e-06 -2.851163e-06 -2.837755e-06 -2.812969e-06 -2.780949e-06 -2.737726e-06 -2.687306e-06 -2.626014e-06 -2.557685e-06 -2.478969e-06 -2.393498e-06 -2.298274e-06 -2.196695e-06 -2.086138e-06 -1.969740e-06 -1.845271e-06 -1.715580e-06 -1.578844e-06 -1.437600e-06 -1.290442e-06 -1.139574e-06 -9.840106e-07 -8.256021e-07 -6.637887e-07 -5.000487e-07 -3.342447e-07 -1.674681e-07 -7.363568e-14 1.674679e-07 3.342442e-07 5.000482e-07 6.637886e-07 8.256021e-07 9.840109e-07 1.139574e-06 1.290443e-06 1.437601e-06 1.578844e-06 1.715581e-06 1.845271e-06 1.969740e-06 2.086138e-06 2.196695e-06 2.298274e-06 2.393499e-06 2.478969e-06 2.557686e-06 2.626014e-06 2.687306e-06 2.737726e-06 2.780949e-06 2.812969e-06 2.837755e-06 2.851163e-06 2.857418e-06 2.852277e-06 2.840179e-06 2.816821e-06 2.786811e-06 2.745822e-06 2.698586e-06 2.640795e-06 2.577250e-06 2.503702e-06 2.424971e-06 2.336909e-06 2.244297e-06 2.143133e-06 2.038102e-06 1.925387e-06 1.809524e-06 1.686922e-06 1.561912e-06 1.431166e-06 1.298759e-06 1.161664e-06 1.023647e-06 8.820155e-07 7.401822e-07 5.958178e-07 4.519420e-07 3.066121e-07 1.624202e-07 1.783081e-08 -1.250209e-07 -2.672485e-07 -4.071945e-07 -5.455416e-07 -6.811259e-07 -8.141953e-07 -9.440852e-07 -1.070612e-06 -1.193611e-06 -1.312475e-06 -1.427530e-06 -1.537759e-06 -1.643967e-06 -1.744746e-06 -1.841355e-06 -1.932020e-06 -2.018429e-06 -2.098470e-06 -2.174227e-06 -2.243281e-06 -2.308075e-06 -2.365919e-06 -2.419575e-06 -2.466118e-06 -2.508587e-06 -2.543861e-06 -2.575209e-06 -2.599355e-06 -2.619753e-06 -2.633010e-06 -2.642720e-06 -2.645414e-06 -2.644780e-06 -2.637310e-06 -2.626742e-06 -2.609566e-06 -2.589530e-06 -2.563156e-06 -2.534162e-06 -2.499135e-06 -2.461726e-06 -2.418616e-06 -2.373358e-06 -2.322753e-06 -2.270224e-06 -2.212720e-06 -2.153506e-06 -2.089698e-06 -2.024384e-06 -1.954862e-06 -1.884024e-06 -1.809368e-06 -1.733573e-06 -1.654348e-06 -1.574147e-06 -1.490900e-06 -1.406827e-06 -1.320088e-06 -1.232657e-06 -1.142936e-06 -1.052646e-06 -9.604323e-07 -8.677634e-07 -7.735308e-07 -6.789460e-07 -5.831525e-07 -4.871020e-07 -3.901917e-07 -2.931134e-07 -1.955211e-07 -9.784608e-08 
2.580713e-13 9.804882e-08 1.959138e-07 2.937179e-07 3.909701e-07 4.880984e-07 5.843045e-07 6.803194e-07 7.750378e-07 8.694918e-07 9.622696e-07 1.054702e-06 1.145073e-06 1.235009e-06 1.322491e-06 1.409436e-06 1.493529e-06 1.576971e-06 1.657158e-06 1.736567e-06 1.812312e-06 1.887137e-06 1.957888e-06 2.027564e-06 2.092755e-06 2.156701e-06 2.215754e-06 2.273378e-06 2.325710e-06 2.376416e-06 2.421444e-06 2.464636e-06 2.501781e-06 2.536872e-06 2.565573e-06 2.591992e-06 2.611708e-06 2.628913e-06 2.639139e-06 2.646622e-06 2.646897e-06 2.644202e-06 2.634121e-06 2.620850e-06 2.600077e-06 2.575909e-06 2.544187e-06 2.508883e-06 2.466049e-06 2.419471e-06 2.365466e-06 2.307586e-06 2.242466e-06 2.173378e-06 2.097327e-06 2.017255e-06 1.930591e-06 1.839903e-06 1.743084e-06 1.642293e-06 1.535927e-06 1.425698e-06 1.310543e-06 1.191694e-06 1.068657e-06 9.421626e-07 8.123003e-07 6.792816e-07 5.437930e-07 4.055151e-07 2.657338e-07 1.235946e-07 -1.902346e-08 -1.635071e-07 -3.073984e-07 -4.526058e-07 -5.961178e-07 -7.403459e-07 -8.817560e-07 -1.023241e-06 -1.160782e-06 -1.297724e-06 -1.429611e-06 -1.560200e-06 -1.684655e-06 -1.807104e-06 -1.922386e-06 -2.034958e-06 -2.139392e-06 -2.240429e-06 -2.332441e-06 -2.420397e-06 -2.498537e-06 -2.572007e-06 -2.634981e-06 -2.692729e-06 -2.739425e-06 -2.780411e-06 -2.809924e-06 -2.833326e-06 -2.844980e-06 -2.850214e-06 -2.843579e-06 -2.830318e-06 -2.805224e-06 -2.773407e-06 -2.729952e-06 -2.679792e-06 -2.618351e-06 -2.550339e-06 -2.471559e-06 -2.386459e-06 -2.291257e-06 -2.190101e-06 -2.079652e-06 -1.963721e-06 -1.839444e-06 -1.710259e-06 -1.573793e-06 -1.433086e-06 -1.286270e-06 -1.135961e-06 -9.808029e-07 -8.229653e-07 -6.616122e-07 -4.984440e-07 -3.331451e-07 -1.669293e-07 -1.622618e-13 1.669289e-07 3.331445e-07 4.984435e-07 6.616120e-07 8.229653e-07 9.808031e-07 1.135961e-06 1.286270e-06 1.433087e-06 1.573793e-06 1.710260e-06 1.839444e-06 1.963722e-06 2.079652e-06 2.190101e-06 2.291258e-06 2.386459e-06 2.471559e-06 2.550339e-06 2.618351e-06 2.679792e-06 2.729952e-06 2.773407e-06 2.805224e-06 2.830319e-06 2.843579e-06 2.850214e-06 2.844980e-06 2.833325e-06 2.809923e-06 2.780410e-06 2.739424e-06 2.692728e-06 2.634979e-06 2.572006e-06 2.498536e-06 2.420397e-06 2.332441e-06 2.240429e-06 2.139392e-06 2.034957e-06 1.922386e-06 1.807105e-06 1.684655e-06 1.560200e-06 1.429611e-06 1.297724e-06 1.160783e-06 1.023241e-06 8.817560e-07 7.403456e-07 5.961176e-07 4.526059e-07 3.073985e-07 1.635071e-07 1.902378e-08 -1.235943e-07 -2.657338e-07 -4.055149e-07 -5.437928e-07 -6.792814e-07 -8.123001e-07 -9.421626e-07 -1.068657e-06 -1.191694e-06 -1.310543e-06 -1.425698e-06 -1.535927e-06 -1.642293e-06 -1.743084e-06 -1.839903e-06 -1.930591e-06 -2.017256e-06 -2.097327e-06 -2.173378e-06 -2.242466e-06 -2.307585e-06 -2.365466e-06 -2.419471e-06 -2.466049e-06 -2.508883e-06 -2.544187e-06 -2.575909e-06 -2.600078e-06 -2.620851e-06 -2.634121e-06 -2.644202e-06 -2.646897e-06 -2.646621e-06 -2.639138e-06 -2.628912e-06 -2.611708e-06 -2.591991e-06 -2.565572e-06 -2.536871e-06 -2.501781e-06 -2.464635e-06 -2.421443e-06 -2.376415e-06 -2.325710e-06 -2.273378e-06 -2.215754e-06 -2.156700e-06 -2.092755e-06 -2.027564e-06 -1.957888e-06 -1.887138e-06 -1.812312e-06 -1.736567e-06 -1.657158e-06 -1.576972e-06 -1.493529e-06 -1.409436e-06 -1.322491e-06 -1.235009e-06 -1.145074e-06 -1.054703e-06 -9.622699e-07 -8.694920e-07 -7.750379e-07 -6.803195e-07 -5.843046e-07 -4.880986e-07 -3.909702e-07 -2.937177e-07 -1.959135e-07 -9.804850e-08 