# vtk DataFile Version 2.0
Comment goes here
ASCII

DATASET STRUCTURED_POINTS
FIELD FieldData 1
TIME 1 1 double
0.03000000
DIMENSIONS    256   256   1

ORIGIN    0.000   0.000   0.000
SPACING   0.0039062 0.0039062   1.000

POINT_DATA   65536
SCALARS P double
LOOKUP_TABLE default

-2.939010e-01 -2.938930e-01 -2.939593e-01 -2.940099e-01 -2.941343e-01 -2.942439e-01 -2.944263e-01 -2.945953e-01 -2.948356e-01 -2.950644e-01 -2.953626e-01 -2.956519e-01 -2.960081e-01 -2.963584e-01 -2.967728e-01 -2.971847e-01 -2.976575e-01 -2.981317e-01 -2.986630e-01 -2.992002e-01 -2.997905e-01 -3.003912e-01 -3.010407e-01 -3.017057e-01 -3.024147e-01 -3.031445e-01 -3.039135e-01 -3.047086e-01 -3.055378e-01 -3.063986e-01 -3.072884e-01 -3.082153e-01 -3.091658e-01 -3.101591e-01 -3.111705e-01 -3.122303e-01 -3.133027e-01 -3.144288e-01 -3.155620e-01 -3.167543e-01 -3.179482e-01 -3.192062e-01 -3.204605e-01 -3.217834e-01 -3.230974e-01 -3.244844e-01 -3.258575e-01 -3.273073e-01 -3.287384e-01 -3.302496e-01 -3.317374e-01 -3.333083e-01 -3.348513e-01 -3.364796e-01 -3.380761e-01 -3.397594e-01 -3.414072e-01 -3.431428e-01 -3.448395e-01 -3.466241e-01 -3.483669e-01 -3.501971e-01 -3.519828e-01 -3.538547e-01 -3.556799e-01 -3.575893e-01 -3.594501e-01 -3.613924e-01 -3.632847e-01 -3.652549e-01 -3.671741e-01 -3.691670e-01 -3.711081e-01 -3.731181e-01 -3.750760e-01 -3.770971e-01 -3.790662e-01 -3.810923e-01 -3.830668e-01 -3.850913e-01 -3.870651e-01 -3.890814e-01 -3.910481e-01 -3.930494e-01 -3.950024e-01 -3.969815e-01 -3.989140e-01 -4.008640e-01 -4.027690e-01 -4.046825e-01 -4.065532e-01 -4.084229e-01 -4.102520e-01 -4.120708e-01 -4.138512e-01 -4.156119e-01 -4.173365e-01 -4.190319e-01 -4.206938e-01 -4.223169e-01 -4.239091e-01 -4.254533e-01 -4.269691e-01 -4.284278e-01 -4.298606e-01 -4.312276e-01 -4.325712e-01 -4.338406e-01 -4.350890e-01 -4.362554e-01 -4.374028e-01 -4.384611e-01 -4.395024e-01 -4.404478e-01 -4.413783e-01 -4.422067e-01 -4.430219e-01 -4.437296e-01 -4.444257e-01 -4.450096e-01 -4.455832e-01 -4.460408e-01 -4.464891e-01 -4.468185e-01 -4.471393e-01 -4.473389e-01 -4.475306e-01 -4.475998e-01 -4.476612e-01 -4.475998e-01 -4.475306e-01 -4.473389e-01 -4.471393e-01 -4.468185e-01 -4.464891e-01 -4.460408e-01 -4.455832e-01 -4.450096e-01 -4.444257e-01 -4.437296e-01 -4.430219e-01 -4.422067e-01 -4.413783e-01 -4.404478e-01 -4.395024e-01 -4.384611e-01 -4.374028e-01 -4.362554e-01 -4.350890e-01 -4.338406e-01 -4.325712e-01 -4.312276e-01 -4.298606e-01 -4.284278e-01 -4.269691e-01 -4.254533e-01 -4.239091e-01 -4.223169e-01 -4.206938e-01 -4.190319e-01 -4.173365e-01 -4.156119e-01 -4.138512e-01 -4.120708e-01 -4.102520e-01 -4.084229e-01 -4.065532e-01 -4.046825e-01 -4.027690e-01 -4.008640e-01 -3.989140e-01 -3.969815e-01 -3.950024e-01 -3.930494e-01 -3.910481e-01 -3.890814e-01 -3.870651e-01 -3.850913e-01 -3.830668e-01 -3.810923e-01 -3.790662e-01 -3.770971e-01 -3.750760e-01 -3.731181e-01 -3.711081e-01 -3.691670e-01 -3.671741e-01 -3.652549e-01 -3.632847e-01 -3.613924e-01 -3.594501e-01 -3.575893e-01 -3.556799e-01 -3.538547e-01 -3.519828e-01 -3.501971e-01 -3.483669e-01 -3.466241e-01 -3.448395e-01 -3.431428e-01 -3.414072e-01 -3.397594e-01 -3.380761e-01 -3.364796e-01 -3.348513e-01 -3.333083e-01 -3.317374e-01 -3.302496e-01 -3.287384e-01 -3.273073e-01 -3.258575e-01 -3.244844e-01 -3.230974e-01 -3.217834e-01 -3.204605e-01 -3.192062e-01 -3.179482e-01 -3.167543e-01 -3.155620e-01 -3.144288e-01 -3.133027e-01 -3.122303e-01 -3.111705e-01 -3.101591e-01 -3.091658e-01 -3.082153e-01 -3.072884e-01 -3.063986e-01 -3.055378e-01 -3.047086e-01 -3.039135e-01 -3.031445e-01 -3.024147e-01 -3.017057e-01 -3.010407e-01 -3.003912e-01 -2.997905e-01 -2.992002e-01 -2.986630e-01 -2.981317e-01 -2.976575e-01 -2.971847e-01 -2.967728e-01 -2.963584e-01 -2.960081e-01 -2.956519e-01 -2.953626e-01 -2.950644e-01 -2.948356e-01 -2.945953e-01 -2.944263e-01 -2.942439e-01 -2.941343e-01 -2.940099e-01 -2.939593e-01 -2.938930e-01 
-2.713238e-01 -2.712895e-01 -2.713663e-01 -2.713749e-01 -2.714941e-01 -2.715460e-01 -2.717074e-01 -2.718032e-01 -2.720067e-01 -2.721470e-01 -2.723927e-01 -2.725782e-01 -2.728663e-01 -2.730977e-01 -2.734284e-01 -2.737066e-01 -2.740802e-01 -2.744061e-01 -2.748230e-01 -2.751976e-01 -2.756583e-01 -2.760823e-01 -2.765874e-01 -2.770619e-01 -2.776118e-01 -2.781378e-01 -2.787333e-01 -2.793115e-01 -2.799531e-01 -2.805846e-01 -2.812728e-01 -2.819583e-01 -2.826938e-01 -2.834339e-01 -2.842173e-01 -2.850127e-01 -2.858444e-01 -2.866955e-01 -2.875760e-01 -2.884831e-01 -2.894126e-01 -2.903759e-01 -2.913544e-01 -2.923738e-01 -2.934016e-01 -2.944768e-01 -2.955536e-01 -2.966841e-01 -2.978094e-01 -2.989945e-01 -3.001678e-01 -3.014063e-01 -3.026269e-01 -3.039175e-01 -3.051841e-01 -3.065251e-01 -3.078365e-01 -3.092260e-01 -3.105805e-01 -3.120160e-01 -3.134116e-01 -3.148906e-01 -3.163249e-01 -3.178444e-01 -3.193149e-01 -3.208714e-01 -3.223751e-01 -3.239650e-01 -3.254985e-01 -3.271177e-01 -3.286776e-01 -3.303217e-01 -3.319038e-01 -3.335681e-01 -3.351682e-01 -3.368477e-01 -3.384612e-01 -3.401506e-01 -3.417725e-01 -3.434663e-01 -3.450914e-01 -3.467837e-01 -3.484067e-01 -3.500916e-01 -3.517067e-01 -3.533779e-01 -3.549793e-01 -3.566305e-01 -3.582122e-01 -3.598370e-01 -3.613928e-01 -3.629848e-01 -3.645085e-01 -3.660611e-01 -3.675464e-01 -3.690531e-01 -3.704937e-01 -3.719482e-01 -3.733378e-01 -3.747339e-01 -3.760663e-01 -3.773977e-01 -3.786670e-01 -3.799279e-01 -3.811281e-01 -3.823128e-01 -3.834383e-01 -3.845413e-01 -3.855868e-01 -3.866032e-01 -3.875635e-01 -3.884885e-01 -3.893589e-01 -3.901883e-01 -3.909644e-01 -3.916944e-01 -3.923722e-01 -3.929993e-01 -3.935754e-01 -3.940968e-01 -3.945681e-01 -3.949814e-01 -3.953453e-01 -3.956487e-01 -3.959033e-01 -3.960955e-01 -3.962392e-01 -3.963194e-01 -3.963514e-01 -3.963194e-01 -3.962392e-01 -3.960955e-01 -3.959033e-01 -3.956487e-01 -3.953453e-01 -3.949814e-01 -3.945681e-01 -3.940968e-01 -3.935754e-01 -3.929993e-01 -3.923722e-01 -3.916944e-01 -3.909644e-01 -3.901883e-01 -3.893589e-01 -3.884885e-01 -3.875635e-01 -3.866032e-01 -3.855868e-01 -3.845413e-01 -3.834383e-01 -3.823128e-01 -3.811281e-01 -3.799279e-01 -3.786670e-01 -3.773977e-01 -3.760663e-01 -3.747339e-01 -3.733378e-01 -3.719482e-01 -3.704937e-01 -3.690531e-01 -3.675464e-01 -3.660611e-01 -3.645085e-01 -3.629848e-01 -3.613928e-01 -3.598370e-01 -3.582122e-01 -3.566305e-01 -3.549793e-01 -3.533779e-01 -3.517067e-01 -3.500916e-01 -3.484067e-01 -3.467837e-01 -3.450914e-01 -3.434663e-01 -3.417725e-01 -3.401506e-01 -3.384612e-01 -3.368477e-01 -3.351682e-01 -3.335681e-01 -3.319038e-01 -3.303217e-01 -3.286776e-01 -3.271177e-01 -3.254985e-01 -3.239650e-01 -3.223751e-01 -3.208714e-01 -3.193149e-01 -3.178444e-01 -3.163249e-01 -3.148906e-01 -3.134116e-01 -3.120160e-01 -3.105805e-01 -3.092260e-01 -3.078365e-01 -3.065251e-01 -3.051841e-01 -3.039175e-01 -3.026269e-01 -3.014063e-01 -3.001678e-01 -2.989945e-01 -2.978094e-01 -2.966841e-01 -2.955536e-01 -2.944768e-01 -2.934016e-01 -2.923738e-01 -2.913544e-01 -2.903759e-01 -2.894126e-01 -2.884831e-01 -2.875760e-01 -2.866955e-01 -2.858444e-01 -2.850127e-01 -2.842173e-01 -2.834339e-01 -2.826938e-01 -2.819583e-01 -2.812728e-01 -2.805846e-01 -2.799531e-01 -2.793115e-01 -2.787333e-01 -2.781378e-01 -2.776118e-01 -2.770619e-01 -2.765874e-01 -2.760823e-01 -2.756583e-01 -2.751976e-01 -2.748230e-01 -2.744061e-01 -2.740802e-01 -2.737066e-01 -2.734284e-01 -2.730977e-01 -2.728663e-01 -2.725782e-01 -2.723927e-01 -2.721470e-01 -2.720067e-01 -2.718032e-01 -2.717074e-01 -2.715460e-01 -2.714941e-01 -2.713749e-01 -2.713663e-01 -2.712895e-01 
-2.478557e-01 -2.478123e-01 -2.478821e-01 -2.478655e-01 -2.479614e-01 -2.479721e-01 -2.480941e-01 -2.481326e-01 -2.482807e-01 -2.483478e-01 -2.485221e-01 -2.486185e-01 -2.488194e-01 -2.489461e-01 -2.491739e-01 -2.493319e-01 -2.495870e-01 -2.497775e-01 -2.500606e-01 -2.502845e-01 -2.505964e-01 -2.508550e-01 -2.511963e-01 -2.514909e-01 -2.518625e-01 -2.521944e-01 -2.525972e-01 -2.529675e-01 -2.534025e-01 -2.538125e-01 -2.542807e-01 -2.547315e-01 -2.552339e-01 -2.557267e-01 -2.562642e-01 -2.568001e-01 -2.573737e-01 -2.579536e-01 -2.585642e-01 -2.591890e-01 -2.598374e-01 -2.605077e-01 -2.611946e-01 -2.619110e-01 -2.626370e-01 -2.633999e-01 -2.641655e-01 -2.649749e-01 -2.657803e-01 -2.666362e-01 -2.674816e-01 -2.683836e-01 -2.692688e-01 -2.702163e-01 -2.711411e-01 -2.721331e-01 -2.730968e-01 -2.741322e-01 -2.751339e-01 -2.762113e-01 -2.772499e-01 -2.783672e-01 -2.794413e-01 -2.805966e-01 -2.817043e-01 -2.828950e-01 -2.840343e-01 -2.852576e-01 -2.864261e-01 -2.876788e-01 -2.888737e-01 -2.901524e-01 -2.913708e-01 -2.926717e-01 -2.939102e-01 -2.952291e-01 -2.964840e-01 -2.978167e-01 -2.990839e-01 -3.004257e-01 -3.017011e-01 -3.030471e-01 -3.043261e-01 -3.056713e-01 -3.069492e-01 -3.082883e-01 -3.095602e-01 -3.108876e-01 -3.121484e-01 -3.134588e-01 -3.147031e-01 -3.159908e-01 -3.172133e-01 -3.184726e-01 -3.196679e-01 -3.208932e-01 -3.220558e-01 -3.232414e-01 -3.243658e-01 -3.255063e-01 -3.265871e-01 -3.276770e-01 -3.287089e-01 -3.297430e-01 -3.307207e-01 -3.316941e-01 -3.326127e-01 -3.335205e-01 -3.343751e-01 -3.352128e-01 -3.359990e-01 -3.367625e-01 -3.374760e-01 -3.381614e-01 -3.387983e-01 -3.394022e-01 -3.399589e-01 -3.404784e-01 -3.409518e-01 -3.413842e-01 -3.417715e-01 -3.421147e-01 -3.424137e-01 -3.426661e-01 -3.428749e-01 -3.430354e-01 -3.431527e-01 -3.432205e-01 -3.432454e-01 -3.432205e-01 -3.431527e-01 -3.430354e-01 -3.428749e-01 -3.426661e-01 -3.424137e-01 -3.421147e-01 -3.417715e-01 -3.413842e-01 -3.409518e-01 -3.404784e-01 -3.399589e-01 -3.394022e-01 -3.387983e-01 -3.381614e-01 -3.374760e-01 -3.367625e-01 -3.359990e-01 -3.352128e-01 -3.343751e-01 -3.335205e-01 -3.326127e-01 -3.316941e-01 -3.307207e-01 -3.297430e-01 -3.287089e-01 -3.276770e-01 -3.265871e-01 -3.255063e-01 -3.243658e-01 -3.232414e-01 -3.220558e-01 -3.208932e-01 -3.196679e-01 -3.184726e-01 -3.172133e-01 -3.159908e-01 -3.147031e-01 -3.134588e-01 -3.121484e-01 -3.108876e-01 -3.095602e-01 -3.082883e-01 -3.069492e-01 -3.056713e-01 -3.043261e-01 -3.030471e-01 -3.017011e-01 -3.004257e-01 -2.990839e-01 -2.978167e-01 -2.964840e-01 -2.952291e-01 -2.939102e-01 -2.926717e-01 -2.913708e-01 -2.901524e-01 -2.888737e-01 -2.876788e-01 -2.864261e-01 -2.852576e-01 -2.840343e-01 -2.828950e-01 -2.817043e-01 -2.805966e-01 -2.794413e-01 -2.783672e-01 -2.772499e-01 -2.762113e-01 -2.751339e-01 -2.741322e-01 -2.730968e-01 -2.721331e-01 -2.711411e-01 -2.702163e-01 -2.692688e-01 -2.683836e-01 -2.674816e-01 -2.666362e-01 -2.657803e-01 -2.649749e-01 -2.641655e-01 -2.633999e-01 -2.626370e-01 -2.619110e-01 -2.611946e-01 -2.605077e-01 -2.598374e-01 -2.591890e-01 -2.585642e-01 -2.579536e-01 -2.573737e-01 -2.568001e-01 -2.562642e-01 -2.557267e-01 -2.552339e-01 -2.547315e-01 -2.542807e-01 -2.538125e-01 -2.534025e-01 -2.529675e-01 -2.525972e-01 -2.521944e-01 -2.518625e-01 -2.514909e-01 -2.511963e-01 -2.508550e-01 -2.505964e-01 -2.502845e-01 -2.500606e-01 -2.497775e-01 -2.495870e-01 -2.493319e-01 -2.491739e-01 -2.489461e-01 -2.488194e-01 -2.486185e-01 -2.485221e-01 -2.483478e-01 -2.482807e-01 -2.481326e-01 -2.480941e-01 -2.479721e-01 -2.479614e-01 -2.478655e-01 -2.478821e-01 -2.478123e-01 
-2.252519e-01 -2.251821e-01 -2.252626e-01 -2.252039e-01 -2.252949e-01 -2.252478e-01 -2.253491e-01 -2.253145e-01 -2.254262e-01 -2.254048e-01 -2.255270e-01 -2.255198e-01 -2.256530e-01 -2.256611e-01 -2.258056e-01 -2.258303e-01 -2.259868e-01 -2.260293e-01 -2.261985e-01 -2.262603e-01 -2.264432e-01 -2.265257e-01 -2.267232e-01 -2.268280e-01 -2.270412e-01 -2.271698e-01 -2.273999e-01 -2.275541e-01 -2.278023e-01 -2.279836e-01 -2.282513e-01 -2.284614e-01 -2.287498e-01 -2.289903e-01 -2.293009e-01 -2.295733e-01 -2.299074e-01 -2.302132e-01 -2.305722e-01 -2.309129e-01 -2.312979e-01 -2.316748e-01 -2.320872e-01 -2.325013e-01 -2.329424e-01 -2.333947e-01 -2.338653e-01 -2.343567e-01 -2.348578e-01 -2.353888e-01 -2.359212e-01 -2.364923e-01 -2.370565e-01 -2.376677e-01 -2.382642e-01 -2.389154e-01 -2.395442e-01 -2.402351e-01 -2.408962e-01 -2.416260e-01 -2.423190e-01 -2.430868e-01 -2.438110e-01 -2.446155e-01 -2.453701e-01 -2.462096e-01 -2.469933e-01 -2.478659e-01 -2.486773e-01 -2.495807e-01 -2.504179e-01 -2.513495e-01 -2.522104e-01 -2.531674e-01 -2.540495e-01 -2.550286e-01 -2.559292e-01 -2.569270e-01 -2.578430e-01 -2.588557e-01 -2.597839e-01 -2.608074e-01 -2.617442e-01 -2.627744e-01 -2.637159e-01 -2.647483e-01 -2.656905e-01 -2.667206e-01 -2.676592e-01 -2.686822e-01 -2.696129e-01 -2.706240e-01 -2.715423e-01 -2.725366e-01 -2.734377e-01 -2.744103e-01 -2.752897e-01 -2.762356e-01 -2.770885e-01 -2.780029e-01 -2.788247e-01 -2.797028e-01 -2.804889e-01 -2.813260e-01 -2.820718e-01 -2.828635e-01 -2.835647e-01 -2.843067e-01 -2.849590e-01 -2.856473e-01 -2.862468e-01 -2.868776e-01 -2.874205e-01 -2.879904e-01 -2.884732e-01 -2.889791e-01 -2.893987e-01 -2.898380e-01 -2.901915e-01 -2.905617e-01 -2.908469e-01 -2.911460e-01 -2.913607e-01 -2.915874e-01 -2.917300e-01 -2.918832e-01 -2.919525e-01 -2.920315e-01 -2.920268e-01 -2.920315e-01 -2.919525e-01 -2.918832e-01 -2.917300e-01 -2.915874e-01 -2.913607e-01 -2.911460e-01 -2.908469e-01 -2.905617e-01 -2.901915e-01 -2.898380e-01 -2.893987e-01 -2.889791e-01 -2.884732e-01 -2.879904e-01 -2.874205e-01 -2.868776e-01 -2.862468e-01 -2.856473e-01 -2.849590e-01 -2.843067e-01 -2.835647e-01 -2.828635e-01 -2.820718e-01 -2.813260e-01 -2.804889e-01 -2.797028e-01 -2.788247e-01 -2.780029e-01 -2.770885e-01 -2.762356e-01 -2.752897e-01 -2.744103e-01 -2.734377e-01 -2.725366e-01 -2.715423e-01 -2.706240e-01 -2.696129e-01 -2.686822e-01 -2.676592e-01 -2.667206e-01 -2.656905e-01 -2.647483e-01 -2.637159e-01 -2.627744e-01 -2.617442e-01 -2.608074e-01 -2.597839e-01 -2.588557e-01 -2.578430e-01 -2.569270e-01 -2.559292e-01 -2.550286e-01 -2.540495e-01 -2.531674e-01 -2.522104e-01 -2.513495e-01 -2.504179e-01 -2.495807e-01 -2.486773e-01 -2.478659e-01 -2.469933e-01 -2.462096e-01 -2.453701e-01 -2.446155e-01 -2.438110e-01 -2.430868e-01 -2.423190e-01 -2.416260e-01 -2.408962e-01 -2.402351e-01 -2.395442e-01 -2.389154e-01 -2.382642e-01 -2.376677e-01 -2.370565e-01 -2.364923e-01 -2.359212e-01 -2.353888e-01 -2.348578e-01 -2.343567e-01 -2.338653e-01 -2.333947e-01 -2.329424e-01 -2.325013e-01 -2.320872e-01 -2.316748e-01 -2.312979e-01 -2.309129e-01 -2.305722e-01 -2.302132e-01 -2.299074e-01 -2.295733e-01 -2.293009e-01 -2.289903e-01 -2.287498e-01 -2.284614e-01 -2.282513e-01 -2.279836e-01 -2.278023e-01 -2.275541e-01 -2.273999e-01 -2.271698e-01 -2.270412e-01 -2.268280e-01 -2.267232e-01 -2.265257e-01 -2.264432e-01 -2.262603e-01 -2.261985e-01 -2.260293e-01 -2.259868e-01 -2.258303e-01 -2.258056e-01 -2.256611e-01 -2.256530e-01 -2.255198e-01 -2.255270e-01 -2.254048e-01 -2.254262e-01 -2.253145e-01 -2.253491e-01 -2.252478e-01 -2.252949e-01 -2.252039e-01 -2.252626e-01 -2.251821e-01 
-2.017587e-01 -2.016797e-01 -2.017533e-01 -2.016693e-01 -2.017373e-01 -2.016489e-01 -2.017112e-01 -2.016192e-01 -2.016758e-01 -2.015812e-01 -2.016325e-01 -2.015363e-01 -2.015826e-01 -2.014861e-01 -2.015282e-01 -2.014328e-01 -2.014714e-01 -2.013786e-01 -2.014146e-01 -2.013261e-01 -2.013607e-01 -2.012781e-01 -2.013125e-01 -2.012377e-01 -2.012733e-01 -2.012083e-01 -2.012464e-01 -2.011931e-01 -2.012356e-01 -2.011960e-01 -2.012443e-01 -2.012205e-01 -2.012765e-01 -2.012705e-01 -2.013359e-01 -2.013498e-01 -2.014265e-01 -2.014622e-01 -2.015521e-01 -2.016115e-01 -2.017164e-01 -2.018013e-01 -2.019230e-01 -2.020353e-01 -2.021755e-01 -2.023168e-01 -2.024772e-01 -2.026488e-01 -2.028310e-01 -2.030343e-01 -2.032398e-01 -2.034758e-01 -2.037058e-01 -2.039755e-01 -2.042311e-01 -2.045350e-01 -2.048172e-01 -2.051558e-01 -2.054652e-01 -2.058386e-01 -2.061758e-01 -2.065837e-01 -2.069489e-01 -2.073910e-01 -2.077841e-01 -2.082596e-01 -2.086803e-01 -2.091881e-01 -2.096358e-01 -2.101745e-01 -2.106483e-01 -2.112163e-01 -2.117149e-01 -2.123103e-01 -2.128322e-01 -2.134526e-01 -2.139960e-01 -2.146389e-01 -2.152017e-01 -2.158642e-01 -2.164441e-01 -2.171232e-01 -2.177174e-01 -2.184097e-01 -2.190155e-01 -2.197175e-01 -2.203316e-01 -2.210396e-01 -2.216588e-01 -2.223689e-01 -2.229896e-01 -2.236979e-01 -2.243164e-01 -2.250189e-01 -2.256315e-01 -2.263239e-01 -2.269267e-01 -2.276050e-01 -2.281940e-01 -2.288541e-01 -2.294255e-01 -2.300632e-01 -2.306131e-01 -2.312246e-01 -2.317491e-01 -2.323304e-01 -2.328257e-01 -2.333733e-01 -2.338359e-01 -2.343462e-01 -2.347726e-01 -2.352425e-01 -2.356294e-01 -2.360559e-01 -2.364004e-01 -2.367807e-01 -2.370800e-01 -2.374118e-01 -2.376634e-01 -2.379448e-01 -2.381467e-01 -2.383758e-01 -2.385261e-01 -2.387018e-01 -2.387992e-01 -2.389205e-01 -2.389638e-01 -2.390302e-01 -2.390188e-01 -2.390302e-01 -2.389638e-01 -2.389205e-01 -2.387992e-01 -2.387018e-01 -2.385261e-01 -2.383758e-01 -2.381467e-01 -2.379448e-01 -2.376634e-01 -2.374118e-01 -2.370800e-01 -2.367807e-01 -2.364004e-01 -2.360559e-01 -2.356294e-01 -2.352425e-01 -2.347726e-01 -2.343462e-01 -2.338359e-01 -2.333733e-01 -2.328257e-01 -2.323304e-01 -2.317491e-01 -2.312246e-01 -2.306131e-01 -2.300632e-01 -2.294255e-01 -2.288541e-01 -2.281940e-01 -2.276050e-01 -2.269267e-01 -2.263239e-01 -2.256315e-01 -2.250189e-01 -2.243164e-01 -2.236979e-01 -2.229896e-01 -2.223689e-01 -2.216588e-01 -2.210396e-01 -2.203316e-01 -2.197175e-01 -2.190155e-01 -2.184097e-01 -2.177174e-01 -2.171232e-01 -2.164441e-01 -2.158642e-01 -2.152017e-01 -2.146389e-01 -2.139960e-01 -2.134526e-01 -2.128322e-01 -2.123103e-01 -2.117149e-01 -2.112163e-01 -2.106483e-01 -2.101745e-01 -2.096358e-01 -2.091881e-01 -2.086803e-01 -2.082596e-01 -2.077841e-01 -2.073910e-01 -2.069489e-01 -2.065837e-01 -2.061758e-01 -2.058386e-01 -2.054652e-01 -2.051558e-01 -2.048172e-01 -2.045350e-01 -2.042311e-01 -2.039755e-01 -2.037058e-01 -2.034758e-01 -2.032398e-01 -2.030343e-01 -2.028310e-01 -2.026488e-01 -2.024772e-01 -2.023168e-01 -2.021755e-01 -2.020353e-01 -2.019230e-01 -2.018013e-01 -2.017164e-01 -2.016115e-01 -2.015521e-01 -2.014622e-01 -2.014265e-01 -2.013498e-01 -2.013359e-01 -2.012705e-01 -2.012765e-01 -2.012205e-01 -2.012443e-01 -2.011960e-01 -2.012356e-01 -2.011931e-01 -2.012464e-01 -2.012083e-01 -2.012733e-01 -2.012377e-01 -2.013125e-01 -2.012781e-01 -2.013607e-01 -2.013261e-01 -2.014146e-01 -2.013786e-01 -2.014714e-01 -2.014328e-01 -2.015282e-01 -2.014861e-01 -2.015826e-01 -2.015363e-01 -2.016325e-01 -2.015812e-01 -2.016758e-01 -2.016192e-01 -2.017112e-01 -2.016489e-01 -2.017373e-01 -2.016693e-01 -2.017533e-01 -2.016797e-01 
-1.791593e-01 -1.790536e-01 -1.791383e-01 -1.790120e-01 -1.790752e-01 -1.789291e-01 -1.789709e-01 -1.788057e-01 -1.788262e-01 -1.786430e-01 -1.786425e-01 -1.784427e-01 -1.784217e-01 -1.782066e-01 -1.781658e-01 -1.779371e-01 -1.778775e-01 -1.776368e-01 -1.775594e-01 -1.773088e-01 -1.772149e-01 -1.769563e-01 -1.768474e-01 -1.765830e-01 -1.764607e-01 -1.761927e-01 -1.760587e-01 -1.757895e-01 -1.756457e-01 -1.753778e-01 -1.752261e-01 -1.749619e-01 -1.748046e-01 -1.745466e-01 -1.743857e-01 -1.741365e-01 -1.739744e-01 -1.737364e-01 -1.735753e-01 -1.733511e-01 -1.731933e-01 -1.729853e-01 -1.728333e-01 -1.726437e-01 -1.724997e-01 -1.723310e-01 -1.721972e-01 -1.720513e-01 -1.719300e-01 -1.718090e-01 -1.717022e-01 -1.716080e-01 -1.715177e-01 -1.714518e-01 -1.713798e-01 -1.713437e-01 -1.712917e-01 -1.712865e-01 -1.712560e-01 -1.712826e-01 -1.712749e-01 -1.713341e-01 -1.713502e-01 -1.714422e-01 -1.714829e-01 -1.716080e-01 -1.716738e-01 -1.718317e-01 -1.719230e-01 -1.721132e-01 -1.722298e-01 -1.724516e-01 -1.725933e-01 -1.728455e-01 -1.730117e-01 -1.732930e-01 -1.734828e-01 -1.737914e-01 -1.740036e-01 -1.743377e-01 -1.745709e-01 -1.749281e-01 -1.751806e-01 -1.755586e-01 -1.758283e-01 -1.762243e-01 -1.765091e-01 -1.769203e-01 -1.772177e-01 -1.776410e-01 -1.779483e-01 -1.783806e-01 -1.786951e-01 -1.791330e-01 -1.794516e-01 -1.798918e-01 -1.802115e-01 -1.806504e-01 -1.809682e-01 -1.814025e-01 -1.817151e-01 -1.821412e-01 -1.824454e-01 -1.828601e-01 -1.831527e-01 -1.835526e-01 -1.838306e-01 -1.842126e-01 -1.844728e-01 -1.848339e-01 -1.850735e-01 -1.854109e-01 -1.856271e-01 -1.859382e-01 -1.861286e-01 -1.864110e-01 -1.865731e-01 -1.868248e-01 -1.869566e-01 -1.871757e-01 -1.872754e-01 -1.874606e-01 -1.875265e-01 -1.876766e-01 -1.877076e-01 -1.878217e-01 -1.878169e-01 -1.878946e-01 -1.878535e-01 -1.878946e-01 -1.878169e-01 -1.878217e-01 -1.877076e-01 -1.876766e-01 -1.875265e-01 -1.874606e-01 -1.872754e-01 -1.871757e-01 -1.869566e-01 -1.868248e-01 -1.865731e-01 -1.864110e-01 -1.861286e-01 -1.859382e-01 -1.856271e-01 -1.854109e-01 -1.850735e-01 -1.848339e-01 -1.844728e-01 -1.842126e-01 -1.838306e-01 -1.835526e-01 -1.831527e-01 -1.828601e-01 -1.824454e-01 -1.821412e-01 -1.817151e-01 -1.814025e-01 -1.809682e-01 -1.806504e-01 -1.802115e-01 -1.798918e-01 -1.794516e-01 -1.791330e-01 -1.786951e-01 -1.783806e-01 -1.779483e-01 -1.776410e-01 -1.772177e-01 -1.769203e-01 -1.765091e-01 -1.762243e-01 -1.758283e-01 -1.755586e-01 -1.751806e-01 -1.749281e-01 -1.745709e-01 -1.743377e-01 -1.740036e-01 -1.737914e-01 -1.734828e-01 -1.732930e-01 -1.730117e-01 -1.728455e-01 -1.725933e-01 -1.724516e-01 -1.722298e-01 -1.721132e-01 -1.719230e-01 -1.718317e-01 -1.716738e-01 -1.716080e-01 -1.714829e-01 -1.714422e-01 -1.713502e-01 -1.713341e-01 -1.712749e-01 -1.712826e-01 -1.712560e-01 -1.712865e-01 -1.712917e-01 -1.713437e-01 -1.713798e-01 -1.714518e-01 -1.715177e-01 -1.716080e-01 -1.717022e-01 -1.718090e-01 -1.719300e-01 -1.720513e-01 -1.721972e-01 -1.723310e-01 -1.724997e-01 -1.726437e-01 -1.728333e-01 -1.729853e-01 -1.731933e-01 -1.733511e-01 -1.735753e-01 -1.737364e-01 -1.739744e-01 -1.741365e-01 -1.743857e-01 -1.745466e-01 -1.748046e-01 -1.749619e-01 -1.752261e-01 -1.753778e-01 -1.756457e-01 -1.757895e-01 -1.760587e-01 -1.761927e-01 -1.764607e-01 -1.765830e-01 -1.768474e-01 -1.769563e-01 -1.772149e-01 -1.773088e-01 -1.775594e-01 -1.776368e-01 -1.778775e-01 -1.779371e-01 -1.781658e-01 -1.782066e-01 -1.784217e-01 -1.784427e-01 -1.786425e-01 -1.786430e-01 -1.788262e-01 -1.788057e-01 -1.789709e-01 -1.789291e-01 -1.790752e-01 -1.790120e-01 -1.791383e-01 -1.790536e-01 
-1.556730e-01 -1.555579e-01 -1.556358e-01 -1.554840e-01 -1.555246e-01 -1.553368e-01 -1.553399e-01 -1.551172e-01 -1.550829e-01 -1.548264e-01 -1.547552e-01 -1.544663e-01 -1.543588e-01 -1.540391e-01 -1.538962e-01 -1.535473e-01 -1.533701e-01 -1.529941e-01 -1.527838e-01 -1.523829e-01 -1.521411e-01 -1.517175e-01 -1.514457e-01 -1.510020e-01 -1.507022e-01 -1.502408e-01 -1.499151e-01 -1.494387e-01 -1.490894e-01 -1.486008e-01 -1.482302e-01 -1.477324e-01 -1.473429e-01 -1.468387e-01 -1.464330e-01 -1.459256e-01 -1.455064e-01 -1.449987e-01 -1.445689e-01 -1.440638e-01 -1.436262e-01 -1.431268e-01 -1.426843e-01 -1.421935e-01 -1.417490e-01 -1.412698e-01 -1.408261e-01 -1.403611e-01 -1.399212e-01 -1.394732e-01 -1.390398e-01 -1.386112e-01 -1.381870e-01 -1.377803e-01 -1.373679e-01 -1.369852e-01 -1.365870e-01 -1.362302e-01 -1.358486e-01 -1.355195e-01 -1.351564e-01 -1.348566e-01 -1.345140e-01 -1.342446e-01 -1.339242e-01 -1.336862e-01 -1.333893e-01 -1.331834e-01 -1.329113e-01 -1.327379e-01 -1.324915e-01 -1.323506e-01 -1.321305e-01 -1.320220e-01 -1.318285e-01 -1.317520e-01 -1.315851e-01 -1.315397e-01 -1.313993e-01 -1.313841e-01 -1.312695e-01 -1.312831e-01 -1.311936e-01 -1.312345e-01 -1.311690e-01 -1.312355e-01 -1.311927e-01 -1.312826e-01 -1.312610e-01 -1.313723e-01 -1.313701e-01 -1.315003e-01 -1.315156e-01 -1.316623e-01 -1.316929e-01 -1.318535e-01 -1.318973e-01 -1.320691e-01 -1.321236e-01 -1.323040e-01 -1.323667e-01 -1.325530e-01 -1.326215e-01 -1.328109e-01 -1.328828e-01 -1.330726e-01 -1.331453e-01 -1.333331e-01 -1.334042e-01 -1.335875e-01 -1.336546e-01 -1.338312e-01 -1.338920e-01 -1.340597e-01 -1.341122e-01 -1.342690e-01 -1.343113e-01 -1.344556e-01 -1.344859e-01 -1.346162e-01 -1.346329e-01 -1.347480e-01 -1.347499e-01 -1.348489e-01 -1.348350e-01 -1.349170e-01 -1.348866e-01 -1.349514e-01 -1.349038e-01 -1.349514e-01 -1.348866e-01 -1.349170e-01 -1.348350e-01 -1.348489e-01 -1.347499e-01 -1.347480e-01 -1.346329e-01 -1.346162e-01 -1.344859e-01 -1.344556e-01 -1.343113e-01 -1.342690e-01 -1.341122e-01 -1.340597e-01 -1.338920e-01 -1.338312e-01 -1.336546e-01 -1.335875e-01 -1.334042e-01 -1.333331e-01 -1.331453e-01 -1.330726e-01 -1.328828e-01 -1.328109e-01 -1.326215e-01 -1.325530e-01 -1.323667e-01 -1.323040e-01 -1.321236e-01 -1.320691e-01 -1.318973e-01 -1.318535e-01 -1.316929e-01 -1.316623e-01 -1.315156e-01 -1.315003e-01 -1.313701e-01 -1.313723e-01 -1.312610e-01 -1.312826e-01 -1.311927e-01 -1.312355e-01 -1.311690e-01 -1.312345e-01 -1.311936e-01 -1.312831e-01 -1.312695e-01 -1.313841e-01 -1.313993e-01 -1.315397e-01 -1.315851e-01 -1.317520e-01 -1.318285e-01 -1.320220e-01 -1.321305e-01 -1.323506e-01 -1.324915e-01 -1.327379e-01 -1.329113e-01 -1.331834e-01 -1.333893e-01 -1.336862e-01 -1.339242e-01 -1.342446e-01 -1.345140e-01 -1.348566e-01 -1.351564e-01 -1.355195e-01 -1.358486e-01 -1.362302e-01 -1.365870e-01 -1.369852e-01 -1.373679e-01 -1.377803e-01 -1.381870e-01 -1.386112e-01 -1.390398e-01 -1.394732e-01 -1.399212e-01 -1.403611e-01 -1.408261e-01 -1.412698e-01 -1.417490e-01 -1.421935e-01 -1.426843e-01 -1.431268e-01 -1.436262e-01 -1.440638e-01 -1.445689e-01 -1.449987e-01 -1.455064e-01 -1.459256e-01 -1.464330e-01 -1.468387e-01 -1.473429e-01 -1.477324e-01 -1.482302e-01 -1.486008e-01 -1.490894e-01 -1.494387e-01 -1.499151e-01 -1.502408e-01 -1.507022e-01 -1.510020e-01 -1.514457e-01 -1.517175e-01 -1.521411e-01 -1.523829e-01 -1.527838e-01 -1.529941e-01 -1.533701e-01 -1.535473e-01 -1.538962e-01 -1.540391e-01 -1.543588e-01 -1.544663e-01 -1.547552e-01 -1.548264e-01 -1.550829e-01 -1.551172e-01 -1.553399e-01 -1.553368e-01 -1.555246e-01 -1.554840e-01 -1.556358e-01 -1.555579e-01 
-1.331091e-01 -1.329671e-01 -1.330563e-01 -1.328620e-01 -1.328980e-01 -1.326523e-01 -1.326351e-01 -1.323390e-01 -1.322688e-01 -1.319237e-01 -1.318009e-01 -1.314082e-01 -1.312336e-01 -1.307950e-01 -1.305695e-01 -1.300872e-01 -1.298120e-01 -1.292881e-01 -1.289646e-01 -1.284014e-01 -1.280313e-01 -1.274316e-01 -1.270168e-01 -1.263832e-01 -1.259258e-01 -1.252613e-01 -1.247636e-01 -1.240713e-01 -1.235359e-01 -1.228189e-01 -1.222484e-01 -1.215101e-01 -1.209074e-01 -1.201512e-01 -1.195194e-01 -1.187488e-01 -1.180909e-01 -1.173094e-01 -1.166288e-01 -1.158400e-01 -1.151399e-01 -1.143474e-01 -1.136312e-01 -1.128386e-01 -1.121099e-01 -1.113206e-01 -1.105827e-01 -1.098003e-01 -1.090568e-01 -1.082845e-01 -1.075388e-01 -1.067800e-01 -1.060355e-01 -1.052931e-01 -1.045531e-01 -1.038302e-01 -1.030978e-01 -1.023972e-01 -1.016755e-01 -1.009996e-01 -1.002915e-01 -9.964279e-02 -9.895100e-02 -9.833144e-02 -9.765847e-02 -9.706992e-02 -9.641806e-02 -9.586208e-02 -9.523336e-02 -9.471124e-02 -9.410746e-02 -9.362017e-02 -9.304286e-02 -9.259112e-02 -9.204153e-02 -9.162574e-02 -9.110485e-02 -9.072512e-02 -9.023362e-02 -8.988979e-02 -8.942808e-02 -8.911973e-02 -8.868794e-02 -8.841436e-02 -8.801234e-02 -8.777259e-02 -8.739995e-02 -8.719286e-02 -8.684893e-02 -8.667312e-02 -8.635703e-02 -8.621093e-02 -8.592158e-02 -8.580347e-02 -8.553959e-02 -8.544760e-02 -8.520774e-02 -8.513992e-02 -8.492249e-02 -8.487680e-02 -8.468011e-02 -8.465447e-02 -8.447673e-02 -8.446904e-02 -8.430843e-02 -8.431661e-02 -8.417128e-02 -8.419329e-02 -8.406140e-02 -8.409527e-02 -8.397501e-02 -8.401888e-02 -8.390852e-02 -8.396065e-02 -8.385854e-02 -8.391734e-02 -8.382196e-02 -8.388601e-02 -8.379599e-02 -8.386407e-02 -8.377820e-02 -8.384928e-02 -8.376654e-02 -8.383982e-02 -8.375939e-02 -8.383430e-02 -8.375557e-02 -8.383177e-02 -8.375438e-02 -8.383177e-02 -8.375557e-02 -8.383430e-02 -8.375939e-02 -8.383982e-02 -8.376654e-02 -8.384928e-02 -8.377820e-02 -8.386407e-02 -8.379599e-02 -8.388601e-02 -8.382196e-02 -8.391734e-02 -8.385854e-02 -8.396065e-02 -8.390852e-02 -8.401888e-02 -8.397501e-02 -8.409527e-02 -8.406140e-02 -8.419329e-02 -8.417128e-02 -8.431661e-02 -8.430843e-02 -8.446904e-02 -8.447673e-02 -8.465447e-02 -8.468011e-02 -8.487680e-02 -8.492249e-02 -8.513992e-02 -8.520774e-02 -8.544760e-02 -8.553959e-02 -8.580347e-02 -8.592158e-02 -8.621093e-02 -8.635703e-02 -8.667312e-02 -8.684893e-02 -8.719286e-02 -8.739995e-02 -8.777259e-02 -8.801234e-02 -8.841436e-02 -8.868794e-02 -8.911973e-02 -8.942808e-02 -8.988979e-02 -9.023362e-02 -9.072512e-02 -9.110485e-02 -9.162574e-02 -9.204153e-02 -9.259112e-02 -9.304286e-02 -9.362017e-02 -9.410746e-02 -9.471124e-02 -9.523336e-02 -9.586208e-02 -9.641806e-02 -9.706992e-02 -9.765847e-02 -9.833144e-02 -9.895100e-02 -9.964279e-02 -1.002915e-01 -1.009996e-01 -1.016755e-01 -1.023972e-01 -1.030978e-01 -1.038302e-01 -1.045531e-01 -1.052931e-01 -1.060355e-01 -1.067800e-01 -1.075388e-01 -1.082845e-01 -1.090568e-01 -1.098003e-01 -1.105827e-01 -1.113206e-01 -1.121099e-01 -1.128386e-01 -1.136312e-01 -1.143474e-01 -1.151399e-01 -1.158400e-01 -1.166288e-01 -1.173094e-01 -1.180909e-01 -1.187488e-01 -1.195194e-01 -1.201512e-01 -1.209074e-01 -1.215101e-01 -1.222484e-01 -1.228189e-01 -1.235359e-01 -1.240713e-01 -1.247636e-01 -1.252613e-01 -1.259258e-01 -1.263832e-01 -1.270168e-01 -1.274316e-01 -1.280313e-01 -1.284014e-01 -1.289646e-01 -1.292881e-01 -1.298120e-01 -1.300872e-01 -1.305695e-01 -1.307950e-01 -1.312336e-01 -1.314082e-01 -1.318009e-01 -1.319237e-01 -1.322688e-01 -1.323390e-01 -1.326351e-01 -1.326523e-01 -1.328980e-01 -1.328620e-01 -1.330563e-01 -1.329671e-01 