# vtk DataFile Version 2.0
Comment goes here
ASCII

DATASET STRUCTURED_POINTS
FIELD FieldData 1
TIME 1 1 double
0.02000000
DIMENSIONS    256   256   1

ORIGIN    0.000   0.000   0.000
SPACING   0.0039062 0.0039062   1.000

POINT_DATA   65536
SCALARS P double
LOOKUP_TABLE default

-6.567127e-01 -6.567461e-01 -6.568936e-01 -6.571082e-01 -6.574364e-01 -6.578325e-01 -6.583414e-01 -6.589192e-01 -6.596085e-01 -6.603685e-01 -6.612382e-01 -6.621807e-01 -6.632306e-01 -6.643561e-01 -6.655863e-01 -6.668949e-01 -6.683053e-01 -6.697975e-01 -6.713881e-01 -6.730641e-01 -6.748347e-01 -6.766947e-01 -6.786452e-01 -6.806892e-01 -6.828194e-01 -6.850474e-01 -6.873570e-01 -6.897687e-01 -6.922571e-01 -6.948521e-01 -6.975187e-01 -7.002962e-01 -7.031403e-01 -7.060994e-01 -7.091197e-01 -7.122591e-01 -7.154543e-01 -7.187723e-01 -7.221406e-01 -7.256353e-01 -7.291747e-01 -7.328435e-01 -7.365515e-01 -7.403915e-01 -7.442650e-01 -7.482726e-01 -7.523083e-01 -7.564795e-01 -7.606732e-01 -7.650033e-01 -7.693506e-01 -7.738342e-01 -7.783297e-01 -7.829608e-01 -7.875986e-01 -7.923704e-01 -7.971438e-01 -8.020488e-01 -8.069505e-01 -8.119804e-01 -8.170021e-01 -8.221477e-01 -8.272804e-01 -8.325317e-01 -8.377656e-01 -8.431118e-01 -8.484361e-01 -8.538655e-01 -8.592687e-01 -8.647686e-01 -8.702383e-01 -8.757954e-01 -8.813182e-01 -8.869183e-01 -8.924799e-01 -8.981079e-01 -9.036935e-01 -9.093334e-01 -9.149272e-01 -9.205625e-01 -9.261479e-01 -9.317614e-01 -9.373211e-01 -9.428948e-01 -9.484110e-01 -9.539265e-01 -9.593808e-01 -9.648191e-01 -9.701926e-01 -9.755344e-01 -9.808078e-01 -9.860336e-01 -9.911874e-01 -9.962774e-01 -1.001292e+00 -1.006226e+00 -1.011082e+00 -1.015841e+00 -1.020518e+00 -1.025082e+00 -1.029561e+00 -1.033912e+00 -1.038174e+00 -1.042292e+00 -1.046318e+00 -1.050186e+00 -1.053959e+00 -1.057559e+00 -1.061061e+00 -1.064378e+00 -1.067593e+00 -1.070611e+00 -1.073525e+00 -1.076229e+00 -1.078828e+00 -1.081206e+00 -1.083477e+00 -1.085518e+00 -1.087449e+00 -1.089144e+00 -1.090727e+00 -1.092066e+00 -1.093293e+00 -1.094271e+00 -1.095135e+00 -1.095746e+00 -1.096244e+00 -1.096486e+00 -1.096614e+00 -1.096486e+00 -1.096244e+00 -1.095746e+00 -1.095135e+00 -1.094271e+00 -1.093293e+00 -1.092066e+00 -1.090727e+00 -1.089144e+00 -1.087449e+00 -1.085518e+00 -1.083477e+00 -1.081206e+00 -1.078828e+00 -1.076229e+00 -1.073525e+00 -1.070611e+00 -1.067593e+00 -1.064378e+00 -1.061061e+00 -1.057559e+00 -1.053959e+00 -1.050186e+00 -1.046318e+00 -1.042292e+00 -1.038174e+00 -1.033912e+00 -1.029561e+00 -1.025082e+00 -1.020518e+00 -1.015841e+00 -1.011082e+00 -1.006226e+00 -1.001292e+00 -9.962774e-01 -9.911874e-01 -9.860336e-01 -9.808078e-01 -9.755344e-01 -9.701926e-01 -9.648191e-01 -9.593808e-01 -9.539265e-01 -9.484110e-01 -9.428948e-01 -9.373211e-01 -9.317614e-01 -9.261479e-01 -9.205625e-01 -9.149272e-01 -9.093334e-01 -9.036935e-01 -8.981079e-01 -8.924799e-01 -8.869183e-01 -8.813182e-01 -8.757954e-01 -8.702383e-01 -8.647686e-01 -8.592687e-01 -8.538655e-01 -8.484361e-01 -8.431118e-01 -8.377656e-01 -8.325317e-01 -8.272804e-01 -8.221477e-01 -8.170021e-01 -8.119804e-01 -8.069505e-01 -8.020488e-01 -7.971438e-01 -7.923704e-01 -7.875986e-01 -7.829608e-01 -7.783297e-01 -7.738342e-01 -7.693506e-01 -7.650033e-01 -7.606732e-01 -7.564795e-01 -7.523083e-01 -7.482726e-01 -7.442650e-01 -7.403915e-01 -7.365515e-01 -7.328435e-01 -7.291747e-01 -7.256353e-01 -7.221406e-01 -7.187723e-01 -7.154543e-01 -7.122591e-01 -7.091197e-01 -7.060994e-01 -7.031403e-01 -7.002962e-01 -6.975187e-01 -6.948521e-01 -6.922571e-01 -6.897687e-01 -6.873570e-01 -6.850474e-01 -6.828194e-01 -6.806892e-01 -6.786452e-01 -6.766947e-01 -6.748347e-01 -6.730641e-01 -6.713881e-01 -6.697975e-01 -6.683053e-01 -6.668949e-01 -6.655863e-01 -6.643561e-01 -6.632306e-01 -6.621807e-01 -6.612382e-01 -6.603685e-01 -6.596085e-01 -6.589192e-01 -6.583414e-01 -6.578325e-01 -6.574364e-01 -6.571082e-01 -6.568936e-01 -6.567461e-01 
-6.293318e-01 -6.293422e-01 -6.294918e-01 -6.296626e-01 -6.299721e-01 -6.303035e-01 -6.307727e-01 -6.312653e-01 -6.318940e-01 -6.325481e-01 -6.333363e-01 -6.341525e-01 -6.351002e-01 -6.360789e-01 -6.371861e-01 -6.383280e-01 -6.395947e-01 -6.409002e-01 -6.423265e-01 -6.437960e-01 -6.453821e-01 -6.470160e-01 -6.487618e-01 -6.505605e-01 -6.524659e-01 -6.544297e-01 -6.564946e-01 -6.586234e-01 -6.608477e-01 -6.631415e-01 -6.655247e-01 -6.679831e-01 -6.705247e-01 -6.731473e-01 -6.758465e-01 -6.786323e-01 -6.814882e-01 -6.844361e-01 -6.874473e-01 -6.905558e-01 -6.937208e-01 -6.969878e-01 -7.003046e-01 -7.037279e-01 -7.071939e-01 -7.107706e-01 -7.143831e-01 -7.181098e-01 -7.218654e-01 -7.257381e-01 -7.296329e-01 -7.336471e-01 -7.376765e-01 -7.418269e-01 -7.459858e-01 -7.502665e-01 -7.545492e-01 -7.589537e-01 -7.633536e-01 -7.678743e-01 -7.723843e-01 -7.770132e-01 -7.816252e-01 -7.863534e-01 -7.910586e-01 -7.958765e-01 -8.006653e-01 -8.055622e-01 -8.104243e-01 -8.153888e-01 -8.203131e-01 -8.253331e-01 -8.303074e-01 -8.353700e-01 -8.403816e-01 -8.454731e-01 -8.505084e-01 -8.556143e-01 -8.606590e-01 -8.657642e-01 -8.708032e-01 -8.758918e-01 -8.809096e-01 -8.859652e-01 -8.909454e-01 -8.959512e-01 -9.008769e-01 -9.058156e-01 -9.106696e-01 -9.155234e-01 -9.202882e-01 -9.250391e-01 -9.296968e-01 -9.343267e-01 -9.388593e-01 -9.433500e-01 -9.477394e-01 -9.520729e-01 -9.563012e-01 -9.604595e-01 -9.645089e-01 -9.684744e-01 -9.723275e-01 -9.760832e-01 -9.797231e-01 -9.832524e-01 -9.866626e-01 -9.899497e-01 -9.931146e-01 -9.961446e-01 -9.990495e-01 -1.001808e+00 -1.004439e+00 -1.006914e+00 -1.009259e+00 -1.011438e+00 -1.013484e+00 -1.015357e+00 -1.017096e+00 -1.018654e+00 -1.020075e+00 -1.021310e+00 -1.022408e+00 -1.023315e+00 -1.024083e+00 -1.024657e+00 -1.025091e+00 -1.025329e+00 -1.025428e+00 -1.025329e+00 -1.025091e+00 -1.024657e+00 -1.024083e+00 -1.023315e+00 -1.022408e+00 -1.021310e+00 -1.020075e+00 -1.018654e+00 -1.017096e+00 -1.015357e+00 -1.013484e+00 -1.011438e+00 -1.009259e+00 -1.006914e+00 -1.004439e+00 -1.001808e+00 -9.990495e-01 -9.961446e-01 -9.931146e-01 -9.899497e-01 -9.866626e-01 -9.832524e-01 -9.797231e-01 -9.760832e-01 -9.723275e-01 -9.684744e-01 -9.645089e-01 -9.604595e-01 -9.563012e-01 -9.520729e-01 -9.477394e-01 -9.433500e-01 -9.388593e-01 -9.343267e-01 -9.296968e-01 -9.250391e-01 -9.202882e-01 -9.155234e-01 -9.106696e-01 -9.058156e-01 -9.008769e-01 -8.959512e-01 -8.909454e-01 -8.859652e-01 -8.809096e-01 -8.758918e-01 -8.708032e-01 -8.657642e-01 -8.606590e-01 -8.556143e-01 -8.505084e-01 -8.454731e-01 -8.403816e-01 -8.353700e-01 -8.303074e-01 -8.253331e-01 -8.203131e-01 -8.153888e-01 -8.104243e-01 -8.055622e-01 -8.006653e-01 -7.958765e-01 -7.910586e-01 -7.863534e-01 -7.816252e-01 -7.770132e-01 -7.723843e-01 -7.678743e-01 -7.633536e-01 -7.589537e-01 -7.545492e-01 -7.502665e-01 -7.459858e-01 -7.418269e-01 -7.376765e-01 -7.336471e-01 -7.296329e-01 -7.257381e-01 -7.218654e-01 -7.181098e-01 -7.143831e-01 -7.107706e-01 -7.071939e-01 -7.037279e-01 -7.003046e-01 -6.969878e-01 -6.937208e-01 -6.905558e-01 -6.874473e-01 -6.844361e-01 -6.814882e-01 -6.786323e-01 -6.758465e-01 -6.731473e-01 -6.705247e-01 -6.679831e-01 -6.655247e-01 -6.631415e-01 -6.608477e-01 -6.586234e-01 -6.564946e-01 -6.544297e-01 -6.524659e-01 -6.505605e-01 -6.487618e-01 -6.470160e-01 -6.453821e-01 -6.437960e-01 -6.423265e-01 -6.409002e-01 -6.395947e-01 -6.383280e-01 -6.371861e-01 -6.360789e-01 -6.351002e-01 -6.341525e-01 -6.333363e-01 -6.325481e-01 -6.318940e-01 -6.312653e-01 -6.307727e-01 -6.303035e-01 -6.299721e-01 -6.296626e-01 -6.294918e-01 -6.293422e-01 
-6.034190e-01 -6.034197e-01 -6.035604e-01 -6.037028e-01 -6.039847e-01 -6.042691e-01 -6.046920e-01 -6.051191e-01 -6.056829e-01 -6.062531e-01 -6.069579e-01 -6.076718e-01 -6.085177e-01 -6.093759e-01 -6.103631e-01 -6.113663e-01 -6.124949e-01 -6.136438e-01 -6.149142e-01 -6.162095e-01 -6.176218e-01 -6.190641e-01 -6.206186e-01 -6.222085e-01 -6.239055e-01 -6.256436e-01 -6.274832e-01 -6.293697e-01 -6.313521e-01 -6.333874e-01 -6.355125e-01 -6.376966e-01 -6.399643e-01 -6.422971e-01 -6.447070e-01 -6.471882e-01 -6.497398e-01 -6.523686e-01 -6.550611e-01 -6.578366e-01 -6.606688e-01 -6.635896e-01 -6.665602e-01 -6.696245e-01 -6.727317e-01 -6.759373e-01 -6.791788e-01 -6.825229e-01 -6.858962e-01 -6.893756e-01 -6.928773e-01 -6.964882e-01 -7.001146e-01 -7.038525e-01 -7.075994e-01 -7.114593e-01 -7.153216e-01 -7.192977e-01 -7.232699e-01 -7.273558e-01 -7.314315e-01 -7.356199e-01 -7.397922e-01 -7.440752e-01 -7.483362e-01 -7.527051e-01 -7.570463e-01 -7.614917e-01 -7.659037e-01 -7.704152e-01 -7.748881e-01 -7.794547e-01 -7.839774e-01 -7.885873e-01 -7.931483e-01 -7.977890e-01 -8.023758e-01 -8.070340e-01 -8.116335e-01 -8.162951e-01 -8.208936e-01 -8.255442e-01 -8.301271e-01 -8.347514e-01 -8.393038e-01 -8.438862e-01 -8.483924e-01 -8.529168e-01 -8.573609e-01 -8.618107e-01 -8.661763e-01 -8.705348e-01 -8.748053e-01 -8.790556e-01 -8.832141e-01 -8.873393e-01 -8.913690e-01 -8.953520e-01 -8.992362e-01 -9.030603e-01 -9.067822e-01 -9.104310e-01 -9.139744e-01 -9.174317e-01 -9.207806e-01 -9.240310e-01 -9.271700e-01 -9.301986e-01 -9.331130e-01 -9.359057e-01 -9.385817e-01 -9.411254e-01 -9.435499e-01 -9.458324e-01 -9.479936e-01 -9.500038e-01 -9.518909e-01 -9.536191e-01 -9.552224e-01 -9.566602e-01 -9.579716e-01 -9.591118e-01 -9.601245e-01 -9.609615e-01 -9.616701e-01 -9.621999e-01 -9.626007e-01 -9.628207e-01 -9.629115e-01 -9.628207e-01 -9.626007e-01 -9.621999e-01 -9.616701e-01 -9.609615e-01 -9.601245e-01 -9.591118e-01 -9.579716e-01 -9.566602e-01 -9.552224e-01 -9.536191e-01 -9.518909e-01 -9.500038e-01 -9.479936e-01 -9.458324e-01 -9.435499e-01 -9.411254e-01 -9.385817e-01 -9.359057e-01 -9.331130e-01 -9.301986e-01 -9.271700e-01 -9.240310e-01 -9.207806e-01 -9.174317e-01 -9.139744e-01 -9.104310e-01 -9.067822e-01 -9.030603e-01 -8.992362e-01 -8.953520e-01 -8.913690e-01 -8.873393e-01 -8.832141e-01 -8.790556e-01 -8.748053e-01 -8.705348e-01 -8.661763e-01 -8.618107e-01 -8.573609e-01 -8.529168e-01 -8.483924e-01 -8.438862e-01 -8.393038e-01 -8.347514e-01 -8.301271e-01 -8.255442e-01 -8.208936e-01 -8.162951e-01 -8.116335e-01 -8.070340e-01 -8.023758e-01 -7.977890e-01 -7.931483e-01 -7.885873e-01 -7.839774e-01 -7.794547e-01 -7.748881e-01 -7.704152e-01 -7.659037e-01 -7.614917e-01 -7.570463e-01 -7.527051e-01 -7.483362e-01 -7.440752e-01 -7.397922e-01 -7.356199e-01 -7.314315e-01 -7.273558e-01 -7.232699e-01 -7.192977e-01 -7.153216e-01 -7.114593e-01 -7.075994e-01 -7.038525e-01 -7.001146e-01 -6.964882e-01 -6.928773e-01 -6.893756e-01 -6.858962e-01 -6.825229e-01 -6.791788e-01 -6.759373e-01 -6.727317e-01 -6.696245e-01 -6.665602e-01 -6.635896e-01 -6.606688e-01 -6.578366e-01 -6.550611e-01 -6.523686e-01 -6.497398e-01 -6.471882e-01 -6.447070e-01 -6.422971e-01 -6.399643e-01 -6.376966e-01 -6.355125e-01 -6.333874e-01 -6.313521e-01 -6.293697e-01 -6.274832e-01 -6.256436e-01 -6.239055e-01 -6.222085e-01 -6.206186e-01 -6.190641e-01 -6.176218e-01 -6.162095e-01 -6.149142e-01 -6.136438e-01 -6.124949e-01 -6.113663e-01 -6.103631e-01 -6.093759e-01 -6.085177e-01 -6.076718e-01 -6.069579e-01 -6.062531e-01 -6.056829e-01 -6.051191e-01 -6.046920e-01 -6.042691e-01 -6.039847e-01 -6.037028e-01 -6.035604e-01 -6.034197e-01 
-5.758597e-01 -5.758372e-01 -5.759802e-01 -5.760786e-01 -5.763419e-01 -5.765616e-01 -5.769450e-01 -5.772866e-01 -5.777901e-01 -5.782543e-01 -5.788780e-01 -5.794654e-01 -5.802094e-01 -5.809209e-01 -5.817854e-01 -5.826218e-01 -5.836071e-01 -5.845693e-01 -5.856759e-01 -5.867648e-01 -5.879930e-01 -5.892095e-01 -5.905597e-01 -5.919047e-01 -5.933774e-01 -5.948516e-01 -5.964473e-01 -5.980515e-01 -5.997704e-01 -6.015053e-01 -6.033477e-01 -6.052137e-01 -6.071799e-01 -6.091771e-01 -6.112671e-01 -6.133959e-01 -6.156095e-01 -6.178695e-01 -6.202064e-01 -6.225972e-01 -6.250568e-01 -6.275776e-01 -6.301590e-01 -6.328086e-01 -6.355106e-01 -6.382875e-01 -6.411084e-01 -6.440105e-01 -6.469484e-01 -6.499733e-01 -6.530256e-01 -6.561702e-01 -6.593340e-01 -6.625947e-01 -6.658665e-01 -6.692392e-01 -6.726148e-01 -6.760946e-01 -6.795695e-01 -6.831509e-01 -6.867197e-01 -6.903966e-01 -6.940532e-01 -6.978187e-01 -7.015566e-01 -7.054030e-01 -7.092147e-01 -7.131339e-01 -7.170113e-01 -7.209940e-01 -7.249283e-01 -7.289649e-01 -7.329465e-01 -7.370264e-01 -7.410449e-01 -7.451570e-01 -7.492015e-01 -7.533338e-01 -7.573927e-01 -7.615327e-01 -7.655935e-01 -7.697281e-01 -7.737780e-01 -7.778935e-01 -7.819189e-01 -7.860011e-01 -7.899882e-01 -7.940225e-01 -7.979568e-01 -8.019283e-01 -8.057950e-01 -8.096885e-01 -8.134727e-01 -8.172728e-01 -8.209592e-01 -8.246505e-01 -8.282239e-01 -8.317911e-01 -8.352362e-01 -8.386639e-01 -8.419658e-01 -8.452389e-01 -8.483827e-01 -8.514867e-01 -8.544580e-01 -8.573787e-01 -8.601635e-01 -8.628873e-01 -8.654723e-01 -8.679865e-01 -8.703590e-01 -8.726515e-01 -8.747998e-01 -8.768595e-01 -8.787728e-01 -8.805896e-01 -8.822580e-01 -8.838230e-01 -8.852379e-01 -8.865434e-01 -8.876972e-01 -8.887367e-01 -8.896234e-01 -8.903917e-01 -8.910064e-01 -8.914999e-01 -8.918391e-01 -8.920555e-01 -8.921172e-01 -8.920555e-01 -8.918391e-01 -8.914999e-01 -8.910064e-01 -8.903917e-01 -8.896234e-01 -8.887367e-01 -8.876972e-01 -8.865434e-01 -8.852379e-01 -8.838230e-01 -8.822580e-01 -8.805896e-01 -8.787728e-01 -8.768595e-01 -8.747998e-01 -8.726515e-01 -8.703590e-01 -8.679865e-01 -8.654723e-01 -8.628873e-01 -8.601635e-01 -8.573787e-01 -8.544580e-01 -8.514867e-01 -8.483827e-01 -8.452389e-01 -8.419658e-01 -8.386639e-01 -8.352362e-01 -8.317911e-01 -8.282239e-01 -8.246505e-01 -8.209592e-01 -8.172728e-01 -8.134727e-01 -8.096885e-01 -8.057950e-01 -8.019283e-01 -7.979568e-01 -7.940225e-01 -7.899882e-01 -7.860011e-01 -7.819189e-01 -7.778935e-01 -7.737780e-01 -7.697281e-01 -7.655935e-01 -7.615327e-01 -7.573927e-01 -7.533338e-01 -7.492015e-01 -7.451570e-01 -7.410449e-01 -7.370264e-01 -7.329465e-01 -7.289649e-01 -7.249283e-01 -7.209940e-01 -7.170113e-01 -7.131339e-01 -7.092147e-01 -7.054030e-01 -7.015566e-01 -6.978187e-01 -6.940532e-01 -6.903966e-01 -6.867197e-01 -6.831509e-01 -6.795695e-01 -6.760946e-01 -6.726148e-01 -6.692392e-01 -6.658665e-01 -6.625947e-01 -6.593340e-01 -6.561702e-01 -6.530256e-01 -6.499733e-01 -6.469484e-01 -6.440105e-01 -6.411084e-01 -6.382875e-01 -6.355106e-01 -6.328086e-01 -6.301590e-01 -6.275776e-01 -6.250568e-01 -6.225972e-01 -6.202064e-01 -6.178695e-01 -6.156095e-01 -6.133959e-01 -6.112671e-01 -6.091771e-01 -6.071799e-01 -6.052137e-01 -6.033477e-01 -6.015053e-01 -5.997704e-01 -5.980515e-01 -5.964473e-01 -5.948516e-01 -5.933774e-01 -5.919047e-01 -5.905597e-01 -5.892095e-01 -5.879930e-01 -5.867648e-01 -5.856759e-01 -5.845693e-01 -5.836071e-01 -5.826218e-01 -5.817854e-01 -5.809209e-01 -5.802094e-01 -5.794654e-01 -5.788780e-01 -5.782543e-01 -5.777901e-01 -5.772866e-01 -5.769450e-01 -5.765616e-01 -5.763419e-01 -5.760786e-01 -5.759802e-01 -5.758372e-01 
-5.498434e-01 -5.498110e-01 -5.499452e-01 -5.500151e-01 -5.502510e-01 -5.504236e-01 -5.507610e-01 -5.510370e-01 -5.514759e-01 -5.518560e-01 -5.523966e-01 -5.528817e-01 -5.535242e-01 -5.541151e-01 -5.548600e-01 -5.555578e-01 -5.564054e-01 -5.572112e-01 -5.581621e-01 -5.590770e-01 -5.601318e-01 -5.611569e-01 -5.623164e-01 -5.634529e-01 -5.647177e-01 -5.659666e-01 -5.673375e-01 -5.687000e-01 -5.701776e-01 -5.716546e-01 -5.732396e-01 -5.748320e-01 -5.765249e-01 -5.782334e-01 -5.800349e-01 -5.818600e-01 -5.837702e-01 -5.857123e-01 -5.877315e-01 -5.897906e-01 -5.919187e-01 -5.940946e-01 -5.963312e-01 -5.986235e-01 -6.009680e-01 -6.033756e-01 -6.058271e-01 -6.083487e-01 -6.109059e-01 -6.135397e-01 -6.162009e-01 -6.189446e-01 -6.217075e-01 -6.245584e-01 -6.274204e-01 -6.303751e-01 -6.333329e-01 -6.363874e-01 -6.394372e-01 -6.425870e-01 -6.457245e-01 -6.489643e-01 -6.521844e-01 -6.555083e-01 -6.588053e-01 -6.622069e-01 -6.655745e-01 -6.690463e-01 -6.724774e-01 -6.760115e-01 -6.794984e-01 -6.830861e-01 -6.866203e-01 -6.902523e-01 -6.938246e-01 -6.974907e-01 -7.010914e-01 -7.047810e-01 -7.083995e-01 -7.121012e-01 -7.157264e-01 -7.194283e-01 -7.230485e-01 -7.267380e-01 -7.303410e-01 -7.340052e-01 -7.375781e-01 -7.412036e-01 -7.447333e-01 -7.483065e-01 -7.517794e-01 -7.552861e-01 -7.586885e-01 -7.621145e-01 -7.654323e-01 -7.687635e-01 -7.719826e-01 -7.752045e-01 -7.783109e-01 -7.814095e-01 -7.843891e-01 -7.873504e-01 -7.901895e-01 -7.929999e-01 -7.956851e-01 -7.983314e-01 -8.008496e-01 -8.033192e-01 -8.056580e-01 -8.079388e-01 -8.100866e-01 -8.121674e-01 -8.141130e-01 -8.159836e-01 -8.177169e-01 -8.193677e-01 -8.208795e-01 -8.223023e-01 -8.235845e-01 -8.247720e-01 -8.258176e-01 -8.267637e-01 -8.275670e-01 -8.282669e-01 -8.288233e-01 -8.292736e-01 -8.295797e-01 -8.297783e-01 -8.298324e-01 -8.297783e-01 -8.295797e-01 -8.292736e-01 -8.288233e-01 -8.282669e-01 -8.275670e-01 -8.267637e-01 -8.258176e-01 -8.247720e-01 -8.235845e-01 -8.223023e-01 -8.208795e-01 -8.193677e-01 -8.177169e-01 -8.159836e-01 -8.141130e-01 -8.121674e-01 -8.100866e-01 -8.079388e-01 -8.056580e-01 -8.033192e-01 -8.008496e-01 -7.983314e-01 -7.956851e-01 -7.929999e-01 -7.901895e-01 -7.873504e-01 -7.843891e-01 -7.814095e-01 -7.783109e-01 -7.752045e-01 -7.719826e-01 -7.687635e-01 -7.654323e-01 -7.621145e-01 -7.586885e-01 -7.552861e-01 -7.517794e-01 -7.483065e-01 -7.447333e-01 -7.412036e-01 -7.375781e-01 -7.340052e-01 -7.303410e-01 -7.267380e-01 -7.230485e-01 -7.194283e-01 -7.157264e-01 -7.121012e-01 -7.083995e-01 -7.047810e-01 -7.010914e-01 -6.974907e-01 -6.938246e-01 -6.902523e-01 -6.866203e-01 -6.830861e-01 -6.794984e-01 -6.760115e-01 -6.724774e-01 -6.690463e-01 -6.655745e-01 -6.622069e-01 -6.588053e-01 -6.555083e-01 -6.521844e-01 -6.489643e-01 -6.457245e-01 -6.425870e-01 -6.394372e-01 -6.363874e-01 -6.333329e-01 -6.303751e-01 -6.274204e-01 -6.245584e-01 -6.217075e-01 -6.189446e-01 -6.162009e-01 -6.135397e-01 -6.109059e-01 -6.083487e-01 -6.058271e-01 -6.033756e-01 -6.009680e-01 -5.986235e-01 -5.963312e-01 -5.940946e-01 -5.919187e-01 -5.897906e-01 -5.877315e-01 -5.857123e-01 -5.837702e-01 -5.818600e-01 -5.800349e-01 -5.782334e-01 -5.765249e-01 -5.748320e-01 -5.732396e-01 -5.716546e-01 -5.701776e-01 -5.687000e-01 -5.673375e-01 -5.659666e-01 -5.647177e-01 -5.634529e-01 -5.623164e-01 -5.611569e-01 -5.601318e-01 -5.590770e-01 -5.581621e-01 -5.572112e-01 -5.564054e-01 -5.555578e-01 -5.548600e-01 -5.541151e-01 -5.535242e-01 -5.528817e-01 -5.523966e-01 -5.518560e-01 -5.514759e-01 -5.510370e-01 -5.507610e-01 -5.504236e-01 -5.502510e-01 -5.500151e-01 -5.499452e-01 -5.498110e-01 
-5.221470e-01 -5.220913e-01 -5.222280e-01 -5.222537e-01 -5.224711e-01 -5.225788e-01 -5.228769e-01 -5.230673e-01 -5.234460e-01 -5.237200e-01 -5.241795e-01 -5.245380e-01 -5.250787e-01 -5.255228e-01 -5.261451e-01 -5.266760e-01 -5.273804e-01 -5.279994e-01 -5.287867e-01 -5.294952e-01 -5.303661e-01 -5.311654e-01 -5.321209e-01 -5.330124e-01 -5.340533e-01 -5.350385e-01 -5.361658e-01 -5.372461e-01 -5.384608e-01 -5.396376e-01 -5.409405e-01 -5.422150e-01 -5.436072e-01 -5.449806e-01 -5.464630e-01 -5.479363e-01 -5.495095e-01 -5.510835e-01 -5.527482e-01 -5.544236e-01 -5.561801e-01 -5.579573e-01 -5.598060e-01 -5.616850e-01 -5.636258e-01 -5.656064e-01 -5.676390e-01 -5.697205e-01 -5.718444e-01 -5.740258e-01 -5.762398e-01 -5.785197e-01 -5.808225e-01 -5.831989e-01 -5.855886e-01 -5.880590e-01 -5.905333e-01 -5.930948e-01 -5.956508e-01 -5.982998e-01 -6.009340e-01 -6.036663e-01 -6.063749e-01 -6.091856e-01 -6.119640e-01 -6.148477e-01 -6.176907e-01 -6.206413e-01 -6.235429e-01 -6.265537e-01 -6.295075e-01 -6.325710e-01 -6.355698e-01 -6.386780e-01 -6.417140e-01 -6.448581e-01 -6.479230e-01 -6.510936e-01 -6.541782e-01 -6.573654e-01 -6.604600e-01 -6.636533e-01 -6.667479e-01 -6.699362e-01 -6.730199e-01 -6.761918e-01 -6.792534e-01 -6.823970e-01 -6.854248e-01 -6.885279e-01 -6.915100e-01 -6.945601e-01 -6.974843e-01 -7.004685e-01 -7.033224e-01 -7.062281e-01 -7.089990e-01 -7.118134e-01 -7.144888e-01 -7.171991e-01 -7.197666e-01 -7.223603e-01 -7.248076e-01 -7.272724e-01 -7.295874e-01 -7.319114e-01 -7.340826e-01 -7.362544e-01 -7.382706e-01 -7.402795e-01 -7.421300e-01 -7.439658e-01 -7.456409e-01 -7.472943e-01 -7.487848e-01 -7.502473e-01 -7.515450e-01 -7.528090e-01 -7.539066e-01 -7.549655e-01 -7.558567e-01 -7.567051e-01 -7.573848e-01 -7.580183e-01 -7.584823e-01 -7.588979e-01 -7.591433e-01 -7.593389e-01 -7.593640e-01 -7.593389e-01 -7.591433e-01 -7.588979e-01 -7.584823e-01 -7.580183e-01 -7.573848e-01 -7.567051e-01 -7.558567e-01 -7.549655e-01 -7.539066e-01 -7.528090e-01 -7.515450e-01 -7.502473e-01 -7.487848e-01 -7.472943e-01 -7.456409e-01 -7.439658e-01 -7.421300e-01 -7.402795e-01 -7.382706e-01 -7.362544e-01 -7.340826e-01 -7.319114e-01 -7.295874e-01 -7.272724e-01 -7.248076e-01 -7.223603e-01 -7.197666e-01 -7.171991e-01 -7.144888e-01 -7.118134e-01 -7.089990e-01 -7.062281e-01 -7.033224e-01 -7.004685e-01 -6.974843e-01 -6.945601e-01 -6.915100e-01 -6.885279e-01 -6.854248e-01 -6.823970e-01 -6.792534e-01 -6.761918e-01 -6.730199e-01 -6.699362e-01 -6.667479e-01 -6.636533e-01 -6.604600e-01 -6.573654e-01 -6.541782e-01 -6.510936e-01 -6.479230e-01 -6.448581e-01 -6.417140e-01 -6.386780e-01 -6.355698e-01 -6.325710e-01 -6.295075e-01 -6.265537e-01 -6.235429e-01 -6.206413e-01 -6.176907e-01 -6.148477e-01 -6.119640e-01 -6.091856e-01 -6.063749e-01 -6.036663e-01 -6.009340e-01 -5.982998e-01 -5.956508e-01 -5.930948e-01 -5.905333e-01 -5.880590e-01 -5.855886e-01 -5.831989e-01 -5.808225e-01 -5.785197e-01 -5.762398e-01 -5.740258e-01 -5.718444e-01 -5.697205e-01 -5.676390e-01 -5.656064e-01 -5.636258e-01 -5.616850e-01 -5.598060e-01 -5.579573e-01 -5.561801e-01 -5.544236e-01 -5.527482e-01 -5.510835e-01 -5.495095e-01 -5.479363e-01 -5.464630e-01 -5.449806e-01 -5.436072e-01 -5.422150e-01 -5.409405e-01 -5.396376e-01 -5.384608e-01 -5.372461e-01 -5.361658e-01 -5.350385e-01 -5.340533e-01 -5.330124e-01 -5.321209e-01 -5.311654e-01 -5.303661e-01 -5.294952e-01 -5.287867e-01 -5.279994e-01 -5.273804e-01 -5.266760e-01 -5.261451e-01 -5.255228e-01 -5.250787e-01 -5.245380e-01 -5.241795e-01 -5.237200e-01 -5.234460e-01 -5.230673e-01 -5.228769e-01 -5.225788e-01 -5.224711e-01 -5.222537e-01 -5.222280e-01 -5.220913e-01 
-4.960643e-01 -4.959985e-01 -4.961266e-01 -4.961236e-01 -4.963138e-01 -4.963743e-01 -4.966264e-01 -4.967511e-01 -4.970653e-01 -4.972551e-01 -4.976317e-01 -4.978877e-01 -4.983270e-01 -4.986504e-01 -4.991532e-01 -4.995454e-01 -5.001122e-01 -5.005747e-01 -5.012066e-01 -5.017409e-01 -5.024387e-01 -5.030466e-01 -5.038114e-01 -5.044945e-01 -5.053277e-01 -5.060877e-01 -5.069904e-01 -5.078291e-01 -5.088027e-01 -5.097219e-01 -5.107676e-01 -5.117689e-01 -5.128882e-01 -5.139733e-01 -5.151674e-01 -5.163376e-01 -5.176078e-01 -5.188646e-01 -5.202120e-01 -5.215565e-01 -5.229820e-01 -5.244152e-01 -5.259198e-01 -5.274424e-01 -5.290266e-01 -5.306389e-01 -5.323031e-01 -5.340053e-01 -5.357495e-01 -5.375413e-01 -5.393653e-01 -5.412459e-01 -5.431491e-01 -5.451174e-01 -5.470987e-01 -5.491531e-01 -5.512111e-01 -5.533495e-01 -5.554822e-01 -5.577019e-01 -5.599068e-01 -5.622045e-01 -5.644786e-01 -5.668506e-01 -5.691904e-01 -5.716321e-01 -5.740334e-01 -5.765398e-01 -5.789977e-01 -5.815632e-01 -5.840724e-01 -5.866905e-01 -5.892450e-01 -5.919088e-01 -5.945019e-01 -5.972038e-01 -5.998282e-01 -6.025600e-01 -6.052078e-01 -6.079607e-01 -6.106235e-01 -6.133882e-01 -6.160569e-01 -6.188235e-01 -6.214887e-01 -6.242469e-01 -6.268984e-01 -6.296376e-01 -6.322651e-01 -6.349741e-01 -6.375667e-01 -6.402342e-01 -6.427809e-01 -6.453954e-01 -6.478850e-01 -6.504348e-01 -6.528557e-01 -6.553291e-01 -6.576699e-01 -6.600553e-01 -6.623047e-01 -6.645904e-01 -6.667371e-01 -6.689120e-01 -6.709448e-01 -6.729980e-01 -6.749063e-01 -6.768272e-01 -6.786008e-01 -6.803794e-01 -6.820085e-01 -6.836355e-01 -6.851110e-01 -6.865777e-01 -6.878911e-01 -6.891897e-01 -6.903334e-01 -6.914570e-01 -6.924241e-01 -6.933665e-01 -6.941514e-01 -6.949076e-01 -6.955053e-01 -6.960712e-01 -6.964780e-01 -6.968507e-01 -6.970639e-01 -6.972416e-01 -6.972596e-01 -6.972416e-01 -6.970639e-01 -6.968507e-01 -6.964780e-01 -6.960712e-01 -6.955053e-01 -6.949076e-01 -6.941514e-01 -6.933665e-01 -6.924241e-01 -6.914570e-01 -6.903334e-01 -6.891897e-01 -6.878911e-01 -6.865777e-01 -6.851110e-01 -6.836355e-01 -6.820085e-01 -6.803794e-01 -6.786008e-01 -6.768272e-01 -6.749063e-01 -6.729980e-01 -6.709448e-01 -6.689120e-01 -6.667371e-01 -6.645904e-01 -6.623047e-01 -6.600553e-01 -6.576699e-01 -6.553291e-01 -6.528557e-01 -6.504348e-01 -6.478850e-01 -6.453954e-01 -6.427809e-01 -6.402342e-01 -6.375667e-01 -6.349741e-01 -6.322651e-01 -6.296376e-01 -6.268984e-01 -6.242469e-01 -6.214887e-01 -6.188235e-01 -6.160569e-01 -6.133882e-01 -6.106235e-01 -6.079607e-01 -6.052078e-01 -6.025600e-01 -5.998282e-01 -5.972038e-01 -5.945019e-01 -5.919088e-01 -5.892450e-01 -5.866905e-01 -5.840724e-01 -5.815632e-01 -5.789977e-01 -5.765398e-01 -5.740334e-01 -5.716321e-01 -5.691904e-01 -5.668506e-01 -5.644786e-01 -5.622045e-01 -5.599068e-01 -5.577019e-01 -5.554822e-01 -5.533495e-01 -5.512111e-01 -5.491531e-01 -5.470987e-01 -5.451174e-01 -5.431491e-01 -5.412459e-01 -5.393653e-01 -5.375413e-01 -5.357495e-01 -5.340053e-01 -5.323031e-01 -5.306389e-01 -5.290266e-01 -5.274424e-01 -5.259198e-01 -5.244152e-01 -5.229820e-01 -5.215565e-01 -5.202120e-01 -5.188646e-01 -5.176078e-01 -5.163376e-01 -5.151674e-01 -5.139733e-01 -5.128882e-01 -5.117689e-01 -5.107676e-01 -5.097219e-01 -5.088027e-01 -5.078291e-01 -5.069904e-01 -5.060877e-01 -5.053277e-01 -5.044945e-01 -5.038114e-01 -5.030466e-01 -5.024387e-01 -5.017409e-01 -5.012066e-01 -5.005747e-01 -5.001122e-01 -4.995454e-01 -4.991532e-01 -4.986504e-01 -4.983270e-01 -4.978877e-01 -4.976317e-01 -4.972551e-01 -4.970653e-01 -4.967511e-01 -4.966264e-01 -4.963743e-01 -4.963138e-01 -4.961236e-01 -4.961266e-01 -4.959985e-01 
-4.682724e-01 -4.681831e-01 -4.683139e-01 -4.682665e-01 -4.684384e-01 -4.684337e-01 -4.686466e-01 -4.686854e-01 -4.689396e-01 -4.690228e-01 -4.693185e-01 -4.694476e-01 -4.697852e-01 -4.699614e-01 -4.703417e-01 -4.705666e-01 -4.709904e-01 -4.712658e-01 -4.717340e-01 -4.720616e-01 -4.725756e-01 -4.729573e-01 -4.735182e-01 -4.739561e-01 -4.745654e-01 -4.750614e-01 -4.757207e-01 -4.762770e-01 -4.769878e-01 -4.776066e-01 -4.783706e-01 -4.790539e-01 -4.798727e-01 -4.806226e-01 -4.814980e-01 -4.823165e-01 -4.832501e-01 -4.841391e-01 -4.851325e-01 -4.860936e-01 -4.871484e-01 -4.881833e-01 -4.893008e-01 -4.904108e-01 -4.915923e-01 -4.927784e-01 -4.940248e-01 -4.952880e-01 -4.966002e-01 -4.979408e-01 -4.993192e-01 -5.007375e-01 -5.021822e-01 -5.036778e-01 -5.051888e-01 -5.067611e-01 -5.083377e-01 -5.099854e-01 -5.116266e-01 -5.133481e-01 -5.150525e-01 -5.168456e-01 -5.186113e-01 -5.204732e-01 -5.222976e-01 -5.242251e-01 -5.261053e-01 -5.280943e-01 -5.300267e-01 -5.320730e-01 -5.340533e-01 -5.361517e-01 -5.381753e-01 -5.403201e-01 -5.423817e-01 -5.445666e-01 -5.466603e-01 -5.488785e-01 -5.509978e-01 -5.532419e-01 -5.553797e-01 -5.576418e-01 -5.597907e-01 -5.620624e-01 -5.642142e-01 -5.664866e-01 -5.686330e-01 -5.708968e-01 -5.730288e-01 -5.752745e-01 -5.773828e-01 -5.796005e-01 -5.816756e-01 -5.838553e-01 -5.858874e-01 -5.880187e-01 -5.899980e-01 -5.920707e-01 -5.939872e-01 -5.959910e-01 -5.978348e-01 -5.997595e-01 -6.015206e-01 -6.033564e-01 -6.050252e-01 -6.067623e-01 -6.083293e-01 -6.099585e-01 -6.114148e-01 -6.129271e-01 -6.142641e-01 -6.156512e-01 -6.168608e-01 -6.181152e-01 -6.191900e-01 -6.203045e-01 -6.212377e-01 -6.222062e-01 -6.229919e-01 -6.238089e-01 -6.244419e-01 -6.251029e-01 -6.255790e-01 -6.260805e-01 -6.263962e-01 -6.267355e-01 -6.268886e-01 -6.270640e-01 -6.270531e-01 -6.270640e-01 -6.268886e-01 -6.267355e-01 -6.263962e-01 -6.260805e-01 -6.255790e-01 -6.251029e-01 -6.244419e-01 -6.238089e-01 -6.229919e-01 -6.222062e-01 -6.212377e-01 -6.203045e-01 -6.191900e-01 -6.181152e-01 -6.168608e-01 -6.156512e-01 -6.142641e-01 -6.129271e-01 -6.114148e-01 -6.099585e-01 -6.083293e-01 -6.067623e-01 -6.050252e-01 -6.033564e-01 -6.015206e-01 -5.997595e-01 -5.978348e-01 -5.959910e-01 -5.939872e-01 -5.920707e-01 -5.899980e-01 -5.880187e-01 -5.858874e-01 -5.838553e-01 -5.816756e-01 -5.796005e-01 -5.773828e-01 -5.752745e-01 -5.730288e-01 -5.708968e-01 -5.686330e-01 -5.664866e-01 -5.642142e-01 -5.620624e-01 -5.597907e-01 -5.576418e-01 -5.553797e-01 -5.532419e-01 -5.509978e-01 -5.488785e-01 -5.466603e-01 -5.445666e-01 -5.423817e-01 -5.403201e-01 -5.381753e-01 -5.361517e-01 -5.340533e-01 -5.320730e-01 -5.300267e-01 -5.280943e-01 -5.261053e-01 -5.242251e-01 -5.222976e-01 -5.204732e-01 -5.186113e-01 -5.168456e-01 -5.150525e-01 -5.133481e-01 -5.116266e-01 -5.099854e-01 -5.083377e-01 -5.067611e-01 -5.051888e-01 -5.036778e-01 -5.021822e-01 -5.007375e-01 -4.993192e-01 -4.979408e-01 -4.966002e-01 -4.952880e-01 -4.940248e-01 -4.927784e-01 -4.915923e-01 -4.904108e-01 -4.893008e-01 -4.881833e-01 -4.871484e-01 -4.860936e-01 -4.851325e-01 -4.841391e-01 -4.832501e-01 -4.823165e-01 -4.814980e-01 -4.806226e-01 -4.798727e-01 -4.790539e-01 -4.783706e-01 -4.776066e-01 -4.769878e-01 -4.762770e-01 -4.757207e-01 -4.750614e-01 -4.745654e-01 -4.739561e-01 -4.735182e-01 -4.729573e-01 -4.725756e-01 -4.720616e-01 -4.717340e-01 -4.712658e-01 -4.709904e-01 -4.705666e-01 -4.703417e-01 -4.699614e-01 -4.697852e-01 -4.694476e-01 -4.693185e-01 -4.690228e-01 -4.689396e-01 -4.686854e-01 -4.686466e-01 -4.684337e-01 -4.684384e-01 -4.682665e-01 -4.683139e-01 -4.681831e-01 