# vtk DataFile Version 2.0
Comment goes here
ASCII

DATASET STRUCTURED_POINTS
FIELD FieldData 1
TIME 1 1 double
0.07000000
DIMENSIONS    256   256   1

ORIGIN    0.000   0.000   0.000
SPACING   0.0039062 0.0039062   1.000

POINT_DATA   65536
SCALARS P double
LOOKUP_TABLE default

3.743147e-01 3.742978e-01 3.743746e-01 3.744179e-01 3.745542e-01 3.746574e-01 3.748526e-01 3.750153e-01 3.752682e-01 3.754897e-01 3.757990e-01 3.760782e-01 3.764423e-01 3.767779e-01 3.771949e-01 3.775853e-01 3.780531e-01 3.784964e-01 3.790126e-01 3.795066e-01 3.800686e-01 3.806109e-01 3.812158e-01 3.818037e-01 3.824485e-01 3.830791e-01 3.837607e-01 3.844307e-01 3.851456e-01 3.858519e-01 3.865966e-01 3.873356e-01 3.881065e-01 3.888746e-01 3.896677e-01 3.904611e-01 3.912728e-01 3.920875e-01 3.929139e-01 3.937460e-01 3.945830e-01 3.954286e-01 3.962724e-01 3.971272e-01 3.979740e-01 3.988340e-01 3.996798e-01 4.005410e-01 4.013822e-01 4.022407e-01 4.030736e-01 4.039253e-01 4.047464e-01 4.055877e-01 4.063937e-01 4.072210e-01 4.080087e-01 4.088184e-01 4.095850e-01 4.103739e-01 4.111166e-01 4.118817e-01 4.125981e-01 4.133366e-01 4.140245e-01 4.147340e-01 4.153914e-01 4.160696e-01 4.166950e-01 4.173400e-01 4.179320e-01 4.185422e-01 4.191000e-01 4.196741e-01 4.201968e-01 4.207339e-01 4.212213e-01 4.217206e-01 4.221726e-01 4.226339e-01 4.230507e-01 4.234741e-01 4.238561e-01 4.242418e-01 4.245899e-01 4.249386e-01 4.252538e-01 4.255663e-01 4.258499e-01 4.261274e-01 4.263809e-01 4.266248e-01 4.268498e-01 4.270616e-01 4.272600e-01 4.274417e-01 4.276153e-01 4.277687e-01 4.279196e-01 4.280469e-01 4.281772e-01 4.282805e-01 4.283924e-01 4.284739e-01 4.285695e-01 4.286315e-01 4.287129e-01 4.287576e-01 4.288269e-01 4.288566e-01 4.289156e-01 4.289325e-01 4.289831e-01 4.289892e-01 4.290331e-01 4.290303e-01 4.290691e-01 4.290591e-01 4.290940e-01 4.290785e-01 4.291106e-01 4.290909e-01 4.291211e-01 4.290984e-01 4.291273e-01 4.291025e-01 4.291305e-01 4.291043e-01 4.291314e-01 4.291043e-01 4.291305e-01 4.291025e-01 4.291273e-01 4.290984e-01 4.291211e-01 4.290909e-01 4.291106e-01 4.290785e-01 4.290940e-01 4.290591e-01 4.290691e-01 4.290303e-01 4.290331e-01 4.289892e-01 4.289831e-01 4.289325e-01 4.289156e-01 4.288566e-01 4.288269e-01 4.287576e-01 4.287129e-01 4.286315e-01 4.285695e-01 4.284739e-01 4.283924e-01 4.282805e-01 4.281772e-01 4.280469e-01 4.279196e-01 4.277687e-01 4.276153e-01 4.274417e-01 4.272600e-01 4.270616e-01 4.268498e-01 4.266248e-01 4.263809e-01 4.261274e-01 4.258499e-01 4.255663e-01 4.252538e-01 4.249386e-01 4.245899e-01 4.242418e-01 4.238561e-01 4.234741e-01 4.230507e-01 4.226339e-01 4.221726e-01 4.217206e-01 4.212213e-01 4.207339e-01 4.201968e-01 4.196741e-01 4.191000e-01 4.185422e-01 4.179320e-01 4.173400e-01 4.166950e-01 4.160696e-01 4.153914e-01 4.147340e-01 4.140245e-01 4.133366e-01 4.125981e-01 4.118817e-01 4.111166e-01 4.103739e-01 4.095850e-01 4.088184e-01 4.080087e-01 4.072210e-01 4.063937e-01 4.055877e-01 4.047464e-01 4.039253e-01 4.030736e-01 4.022407e-01 4.013822e-01 4.005410e-01 3.996798e-01 3.988340e-01 3.979740e-01 3.971272e-01 3.962724e-01 3.954286e-01 3.945830e-01 3.937460e-01 3.929139e-01 3.920875e-01 3.912728e-01 3.904611e-01 3.896677e-01 3.888746e-01 3.881065e-01 3.873356e-01 3.865966e-01 3.858519e-01 3.851456e-01 3.844307e-01 3.837607e-01 3.830791e-01 3.824485e-01 3.818037e-01 3.812158e-01 3.806109e-01 3.800686e-01 3.795066e-01 3.790126e-01 3.784964e-01 3.780531e-01 3.775853e-01 3.771949e-01 3.767779e-01 3.764423e-01 3.760782e-01 3.757990e-01 3.754897e-01 3.752682e-01 3.750153e-01 3.748526e-01 3.746574e-01 3.745542e-01 3.744179e-01 3.743746e-01 3.742978e-01 
3.678941e-01 3.679123e-01 3.679496e-01 3.680234e-01 3.681158e-01 3.682450e-01 3.683919e-01 3.685760e-01 3.687764e-01 3.690146e-01 3.692673e-01 3.695585e-01 3.698619e-01 3.702048e-01 3.705572e-01 3.709502e-01 3.713496e-01 3.717906e-01 3.722348e-01 3.727217e-01 3.732081e-01 3.737386e-01 3.742646e-01 3.748358e-01 3.753985e-01 3.760077e-01 3.766040e-01 3.772480e-01 3.778747e-01 3.785503e-01 3.792041e-01 3.799077e-01 3.805851e-01 3.813132e-01 3.820106e-01 3.827595e-01 3.834732e-01 3.842390e-01 3.849655e-01 3.857443e-01 3.864798e-01 3.872677e-01 3.880086e-01 3.888015e-01 3.895441e-01 3.903382e-01 3.910789e-01 3.918702e-01 3.926056e-01 3.933902e-01 3.941169e-01 3.948911e-01 3.956059e-01 3.963661e-01 3.970658e-01 3.978085e-01 3.984904e-01 3.992124e-01 3.998737e-01 4.005719e-01 4.012103e-01 4.018819e-01 4.024950e-01 4.031375e-01 4.037236e-01 4.043346e-01 4.048920e-01 4.054696e-01 4.059969e-01 4.065394e-01 4.070356e-01 4.075416e-01 4.080061e-01 4.084746e-01 4.089068e-01 4.093371e-01 4.097369e-01 4.101286e-01 4.104963e-01 4.108494e-01 4.111853e-01 4.115001e-01 4.118050e-01 4.120821e-01 4.123569e-01 4.125973e-01 4.128432e-01 4.130480e-01 4.132666e-01 4.134371e-01 4.136300e-01 4.137681e-01 4.139371e-01 4.140446e-01 4.141916e-01 4.142706e-01 4.143978e-01 4.144505e-01 4.145600e-01 4.145887e-01 4.146827e-01 4.146900e-01 4.147707e-01 4.147589e-01 4.148286e-01 4.148004e-01 4.148612e-01 4.148190e-01 4.148730e-01 4.148192e-01 4.148685e-01 4.148055e-01 4.148519e-01 4.147819e-01 4.148271e-01 4.147524e-01 4.147978e-01 4.147202e-01 4.147673e-01 4.146886e-01 4.147383e-01 4.146600e-01 4.147132e-01 4.146367e-01 4.146939e-01 4.146202e-01 4.146818e-01 4.146117e-01 4.146777e-01 4.146117e-01 4.146818e-01 4.146202e-01 4.146939e-01 4.146367e-01 4.147132e-01 4.146600e-01 4.147383e-01 4.146886e-01 4.147673e-01 4.147202e-01 4.147978e-01 4.147524e-01 4.148271e-01 4.147819e-01 4.148519e-01 4.148055e-01 4.148685e-01 4.148192e-01 4.148730e-01 4.148190e-01 4.148612e-01 4.148004e-01 4.148286e-01 4.147589e-01 4.147707e-01 4.146900e-01 4.146827e-01 4.145887e-01 4.145600e-01 4.144505e-01 4.143978e-01 4.142706e-01 4.141916e-01 4.140446e-01 4.139371e-01 4.137681e-01 4.136300e-01 4.134371e-01 4.132666e-01 4.130480e-01 4.128432e-01 4.125973e-01 4.123569e-01 4.120821e-01 4.118050e-01 4.115001e-01 4.111853e-01 4.108494e-01 4.104963e-01 4.101286e-01 4.097369e-01 4.093371e-01 4.089068e-01 4.084746e-01 4.080061e-01 4.075416e-01 4.070356e-01 4.065394e-01 4.059969e-01 4.054696e-01 4.048920e-01 4.043346e-01 4.037236e-01 4.031375e-01 4.024950e-01 4.018819e-01 4.012103e-01 4.005719e-01 3.998737e-01 3.992124e-01 3.984904e-01 3.978085e-01 3.970658e-01 3.963661e-01 3.956059e-01 3.948911e-01 3.941169e-01 3.933902e-01 3.926056e-01 3.918702e-01 3.910789e-01 3.903382e-01 3.895441e-01 3.888015e-01 3.880086e-01 3.872677e-01 3.864798e-01 3.857443e-01 3.849655e-01 3.842390e-01 3.834732e-01 3.827595e-01 3.820106e-01 3.813132e-01 3.805851e-01 3.799077e-01 3.792041e-01 3.785503e-01 3.778747e-01 3.772480e-01 3.766040e-01 3.760077e-01 3.753985e-01 3.748358e-01 3.742646e-01 3.737386e-01 3.732081e-01 3.727217e-01 3.722348e-01 3.717906e-01 3.713496e-01 3.709502e-01 3.705572e-01 3.702048e-01 3.698619e-01 3.695585e-01 3.692673e-01 3.690146e-01 3.687764e-01 3.685760e-01 3.683919e-01 3.682450e-01 3.681158e-01 3.680234e-01 3.679496e-01 3.679123e-01 
3.615467e-01 3.616067e-01 3.615979e-01 3.617091e-01 3.617512e-01 3.619134e-01 3.620059e-01 3.622185e-01 3.623604e-01 3.626226e-01 3.628129e-01 3.631235e-01 3.633607e-01 3.637184e-01 3.640010e-01 3.644040e-01 3.647300e-01 3.651765e-01 3.655438e-01 3.660315e-01 3.664379e-01 3.669643e-01 3.674072e-01 3.679698e-01 3.684464e-01 3.690422e-01 3.695498e-01 3.701757e-01 3.707111e-01 3.713640e-01 3.719241e-01 3.726004e-01 3.731820e-01 3.738781e-01 3.744779e-01 3.751902e-01 3.758047e-01 3.765294e-01 3.771551e-01 3.778885e-01 3.785221e-01 3.792601e-01 3.798981e-01 3.806369e-01 3.812759e-01 3.820118e-01 3.826485e-01 3.833775e-01 3.840086e-01 3.847270e-01 3.853496e-01 3.860538e-01 3.866648e-01 3.873513e-01 3.879479e-01 3.886135e-01 3.891931e-01 3.898346e-01 3.903948e-01 3.910094e-01 3.915480e-01 3.921331e-01 3.926482e-01 3.932013e-01 3.936914e-01 3.942104e-01 3.946740e-01 3.951573e-01 3.955933e-01 3.960394e-01 3.964470e-01 3.968547e-01 3.972334e-01 3.976020e-01 3.979517e-01 3.982806e-01 3.986013e-01 3.988906e-01 3.991826e-01 3.994324e-01 3.996965e-01 3.999074e-01 4.001444e-01 4.003173e-01 4.005283e-01 4.006644e-01 4.008509e-01 4.009515e-01 4.011151e-01 4.011820e-01 4.013245e-01 4.013596e-01 4.014829e-01 4.014885e-01 4.015946e-01 4.015729e-01 4.016641e-01 4.016177e-01 4.016961e-01 4.016275e-01 4.016955e-01 4.016075e-01 4.016673e-01 4.015625e-01 4.016165e-01 4.014977e-01 4.015480e-01 4.014180e-01 4.014667e-01 4.013281e-01 4.013773e-01 4.012326e-01 4.012841e-01 4.011359e-01 4.011914e-01 4.010419e-01 4.011028e-01 4.009543e-01 4.010219e-01 4.008762e-01 4.009515e-01 4.008103e-01 4.008941e-01 4.007589e-01 4.008518e-01 4.007237e-01 4.008257e-01 4.007058e-01 4.008170e-01 4.007058e-01 4.008257e-01 4.007237e-01 4.008518e-01 4.007589e-01 4.008941e-01 4.008103e-01 4.009515e-01 4.008762e-01 4.010219e-01 4.009543e-01 4.011028e-01 4.010419e-01 4.011914e-01 4.011359e-01 4.012841e-01 4.012326e-01 4.013773e-01 4.013281e-01 4.014667e-01 4.014180e-01 4.015480e-01 4.014977e-01 4.016165e-01 4.015625e-01 4.016673e-01 4.016075e-01 4.016955e-01 4.016275e-01 4.016961e-01 4.016177e-01 4.016641e-01 4.015729e-01 4.015946e-01 4.014885e-01 4.014829e-01 4.013596e-01 4.013245e-01 4.011820e-01 4.011151e-01 4.009515e-01 4.008509e-01 4.006644e-01 4.005283e-01 4.003173e-01 4.001444e-01 3.999074e-01 3.996965e-01 3.994324e-01 3.991826e-01 3.988906e-01 3.986013e-01 3.982806e-01 3.979517e-01 3.976020e-01 3.972334e-01 3.968547e-01 3.964470e-01 3.960394e-01 3.955933e-01 3.951573e-01 3.946740e-01 3.942104e-01 3.936914e-01 3.932013e-01 3.926482e-01 3.921331e-01 3.915480e-01 3.910094e-01 3.903948e-01 3.898346e-01 3.891931e-01 3.886135e-01 3.879479e-01 3.873513e-01 3.866648e-01 3.860538e-01 3.853496e-01 3.847270e-01 3.840086e-01 3.833775e-01 3.826485e-01 3.820118e-01 3.812759e-01 3.806369e-01 3.798981e-01 3.792601e-01 3.785221e-01 3.778885e-01 3.771551e-01 3.765294e-01 3.758047e-01 3.751902e-01 3.744779e-01 3.738781e-01 3.731820e-01 3.726004e-01 3.719241e-01 3.713640e-01 3.707111e-01 3.701757e-01 3.695498e-01 3.690422e-01 3.684464e-01 3.679698e-01 3.674072e-01 3.669643e-01 3.664379e-01 3.660315e-01 3.655438e-01 3.651765e-01 3.647300e-01 3.644040e-01 3.640010e-01 3.637184e-01 3.633607e-01 3.631235e-01 3.628129e-01 3.626226e-01 3.623604e-01 3.622185e-01 3.620059e-01 3.619134e-01 3.617512e-01 3.617091e-01 3.615979e-01 3.616067e-01 
3.550720e-01 3.551669e-01 3.551187e-01 3.552603e-01 3.552584e-01 3.554464e-01 3.554905e-01 3.557241e-01 3.558134e-01 3.560919e-01 3.562254e-01 3.565476e-01 3.567239e-01 3.570883e-01 3.573060e-01 3.577110e-01 3.579682e-01 3.584118e-01 3.587067e-01 3.591867e-01 3.595170e-01 3.600310e-01 3.603943e-01 3.609397e-01 3.613335e-01 3.619073e-01 3.623289e-01 3.629282e-01 3.633747e-01 3.639961e-01 3.644646e-01 3.651049e-01 3.655923e-01 3.662478e-01 3.667510e-01 3.674182e-01 3.679340e-01 3.686092e-01 3.691344e-01 3.698138e-01 3.703452e-01 3.710250e-01 3.715594e-01 3.722359e-01 3.727701e-01 3.734395e-01 3.739706e-01 3.746292e-01 3.751541e-01 3.757984e-01 3.763143e-01 3.769408e-01 3.774450e-01 3.780503e-01 3.785403e-01 3.791214e-01 3.795948e-01 3.801488e-01 3.806036e-01 3.811277e-01 3.815619e-01 3.820537e-01 3.824658e-01 3.829232e-01 3.833117e-01 3.837328e-01 3.840966e-01 3.844799e-01 3.848183e-01 3.851626e-01 3.854749e-01 3.857793e-01 3.860654e-01 3.863293e-01 3.865893e-01 3.868125e-01 3.870466e-01 3.872294e-01 3.874381e-01 3.875810e-01 3.877653e-01 3.878691e-01 3.880301e-01 3.880959e-01 3.882349e-01 3.882642e-01 3.883829e-01 3.883773e-01 3.884774e-01 3.884390e-01 3.885225e-01 3.884535e-01 3.885223e-01 3.884252e-01 3.884817e-01 3.883590e-01 3.884054e-01 3.882599e-01 3.882986e-01 3.881332e-01 3.881665e-01 3.879840e-01 3.880144e-01 3.878179e-01 3.878477e-01 3.876401e-01 3.876714e-01 3.874557e-01 3.874909e-01 3.872700e-01 3.873109e-01 3.870875e-01 3.871361e-01 3.869130e-01 3.869709e-01 3.867505e-01 3.868192e-01 3.866038e-01 3.866846e-01 3.864763e-01 3.865701e-01 3.863708e-01 3.864783e-01 3.862896e-01 3.864113e-01 3.862344e-01 3.863705e-01 3.862066e-01 3.863568e-01 3.862066e-01 3.863705e-01 3.862344e-01 3.864113e-01 3.862896e-01 3.864783e-01 3.863708e-01 3.865701e-01 3.864763e-01 3.866846e-01 3.866038e-01 3.868192e-01 3.867505e-01 3.869709e-01 3.869130e-01 3.871361e-01 3.870875e-01 3.873109e-01 3.872700e-01 3.874909e-01 3.874557e-01 3.876714e-01 3.876401e-01 3.878477e-01 3.878179e-01 3.880144e-01 3.879840e-01 3.881665e-01 3.881332e-01 3.882986e-01 3.882599e-01 3.884054e-01 3.883590e-01 3.884817e-01 3.884252e-01 3.885223e-01 3.884535e-01 3.885225e-01 3.884390e-01 3.884774e-01 3.883773e-01 3.883829e-01 3.882642e-01 3.882349e-01 3.880959e-01 3.880301e-01 3.878691e-01 3.877653e-01 3.875810e-01 3.874381e-01 3.872294e-01 3.870466e-01 3.868125e-01 3.865893e-01 3.863293e-01 3.860654e-01 3.857793e-01 3.854749e-01 3.851626e-01 3.848183e-01 3.844799e-01 3.840966e-01 3.837328e-01 3.833117e-01 3.829232e-01 3.824658e-01 3.820537e-01 3.815619e-01 3.811277e-01 3.806036e-01 3.801488e-01 3.795948e-01 3.791214e-01 3.785403e-01 3.780503e-01 3.774450e-01 3.769408e-01 3.763143e-01 3.757984e-01 3.751541e-01 3.746292e-01 3.739706e-01 3.734395e-01 3.727701e-01 3.722359e-01 3.715594e-01 3.710250e-01 3.703452e-01 3.698138e-01 3.691344e-01 3.686092e-01 3.679340e-01 3.674182e-01 3.667510e-01 3.662478e-01 3.655923e-01 3.651049e-01 3.644646e-01 3.639961e-01 3.633747e-01 3.629282e-01 3.623289e-01 3.619073e-01 3.613335e-01 3.609397e-01 3.603943e-01 3.600310e-01 3.595170e-01 3.591867e-01 3.587067e-01 3.584118e-01 3.579682e-01 3.577110e-01 3.573060e-01 3.570883e-01 3.567239e-01 3.565476e-01 3.562254e-01 3.560919e-01 3.558134e-01 3.557241e-01 3.554905e-01 3.554464e-01 3.552584e-01 3.552603e-01 3.551187e-01 3.551669e-01 
3.486754e-01 3.488122e-01 3.487177e-01 3.488967e-01 3.488444e-01 3.490652e-01 3.490547e-01 3.493166e-01 3.493472e-01 3.496493e-01 3.497201e-01 3.500613e-01 3.501710e-01 3.505498e-01 3.506971e-01 3.511117e-01 3.512950e-01 3.517435e-01 3.519610e-01 3.524412e-01 3.526908e-01 3.532002e-01 3.534797e-01 3.540157e-01 3.543228e-01 3.548826e-01 3.552146e-01 3.557951e-01 3.561495e-01 3.567475e-01 3.571215e-01 3.577337e-01 3.581245e-01 3.587474e-01 3.591520e-01 3.597820e-01 3.601976e-01 3.608311e-01 3.612547e-01 3.618880e-01 3.623166e-01 3.629460e-01 3.633766e-01 3.639986e-01 3.644284e-01 3.650391e-01 3.654653e-01 3.660613e-01 3.664812e-01 3.670590e-01 3.674700e-01 3.680263e-01 3.684261e-01 3.689576e-01 3.693439e-01 3.698478e-01 3.702185e-01 3.706920e-01 3.710454e-01 3.714859e-01 3.718203e-01 3.722257e-01 3.725397e-01 3.729079e-01 3.732005e-01 3.735300e-01 3.738002e-01 3.740897e-01 3.743370e-01 3.745855e-01 3.748096e-01 3.750164e-01 3.752174e-01 3.753822e-01 3.755602e-01 3.756831e-01 3.758388e-01 3.759201e-01 3.760543e-01 3.760949e-01 3.762085e-01 3.762094e-01 3.763038e-01 3.762665e-01 3.763432e-01 3.762693e-01 3.763300e-01 3.762216e-01 3.762683e-01 3.761276e-01 3.761622e-01 3.759917e-01 3.760165e-01 3.758188e-01 3.758361e-01 3.756142e-01 3.756263e-01 3.753831e-01 3.753925e-01 3.751311e-01 3.751403e-01 3.748639e-01 3.748751e-01 3.745869e-01 3.746026e-01 3.743058e-01 3.743283e-01 3.740260e-01 3.740574e-01 3.737527e-01 3.737951e-01 3.734911e-01 3.735462e-01 3.732456e-01 3.733152e-01 3.730208e-01 3.731062e-01 3.728205e-01 3.729229e-01 3.726480e-01 3.727684e-01 3.725065e-01 3.726455e-01 3.723982e-01 3.725561e-01 3.723250e-01 3.725019e-01 3.722881e-01 3.724838e-01 3.722881e-01 3.725019e-01 3.723250e-01 3.725561e-01 3.723982e-01 3.726455e-01 3.725065e-01 3.727684e-01 3.726480e-01 3.729229e-01 3.728205e-01 3.731062e-01 3.730208e-01 3.733152e-01 3.732456e-01 3.735462e-01 3.734911e-01 3.737951e-01 3.737527e-01 3.740574e-01 3.740260e-01 3.743283e-01 3.743058e-01 3.746026e-01 3.745869e-01 3.748751e-01 3.748639e-01 3.751403e-01 3.751311e-01 3.753925e-01 3.753831e-01 3.756263e-01 3.756142e-01 3.758361e-01 3.758188e-01 3.760165e-01 3.759917e-01 3.761622e-01 3.761276e-01 3.762683e-01 3.762216e-01 3.763300e-01 3.762693e-01 3.763432e-01 3.762665e-01 3.763038e-01 3.762094e-01 3.762085e-01 3.760949e-01 3.760543e-01 3.759201e-01 3.758388e-01 3.756831e-01 3.755602e-01 3.753822e-01 3.752174e-01 3.750164e-01 3.748096e-01 3.745855e-01 3.743370e-01 3.740897e-01 3.738002e-01 3.735300e-01 3.732005e-01 3.729079e-01 3.725397e-01 3.722257e-01 3.718203e-01 3.714859e-01 3.710454e-01 3.706920e-01 3.702185e-01 3.698478e-01 3.693439e-01 3.689576e-01 3.684261e-01 3.680263e-01 3.674700e-01 3.670590e-01 3.664812e-01 3.660613e-01 3.654653e-01 3.650391e-01 3.644284e-01 3.639986e-01 3.633766e-01 3.629460e-01 3.623166e-01 3.618880e-01 3.612547e-01 3.608311e-01 3.601976e-01 3.597820e-01 3.591520e-01 3.587474e-01 3.581245e-01 3.577337e-01 3.571215e-01 3.567475e-01 3.561495e-01 3.557951e-01 3.552146e-01 3.548826e-01 3.543228e-01 3.540157e-01 3.534797e-01 3.532002e-01 3.526908e-01 3.524412e-01 3.519610e-01 3.517435e-01 3.512950e-01 3.511117e-01 3.506971e-01 3.505498e-01 3.501710e-01 3.500613e-01 3.497201e-01 3.496493e-01 3.493472e-01 3.493166e-01 3.490547e-01 3.490652e-01 3.488444e-01 3.488967e-01 3.487177e-01 3.488122e-01 
3.421550e-01 3.423267e-01 3.421927e-01 3.424019e-01 3.423056e-01 3.425519e-01 3.424929e-01 3.427756e-01 3.427533e-01 3.430714e-01 3.430850e-01 3.434374e-01 3.434857e-01 3.438709e-01 3.439528e-01 3.443689e-01 3.444828e-01 3.449280e-01 3.450723e-01 3.455443e-01 3.457170e-01 3.462135e-01 3.464126e-01 3.469308e-01 3.471542e-01 3.476913e-01 3.479365e-01 3.484896e-01 3.487543e-01 3.493202e-01 3.496016e-01 3.501770e-01 3.504727e-01 3.510542e-01 3.513614e-01 3.519456e-01 3.522616e-01 3.528448e-01 3.531668e-01 3.537456e-01 3.540710e-01 3.546416e-01 3.549677e-01 3.555266e-01 3.558508e-01 3.563945e-01 3.567142e-01 3.572394e-01 3.575522e-01 3.580554e-01 3.583591e-01 3.588372e-01 3.591296e-01 3.595797e-01 3.598587e-01 3.602779e-01 3.605420e-01 3.609278e-01 3.611753e-01 3.615253e-01 3.617550e-01 3.620672e-01 3.622779e-01 3.625507e-01 3.627416e-01 3.629734e-01 3.631439e-01 3.633338e-01 3.634837e-01 3.636308e-01 3.637600e-01 3.638640e-01 3.639728e-01 3.640336e-01 3.641225e-01 3.641404e-01 3.642102e-01 3.641860e-01 3.642376e-01 3.641723e-01 3.642071e-01 3.641019e-01 3.641214e-01 3.639781e-01 3.639840e-01 3.638046e-01 3.637987e-01 3.635854e-01 3.635698e-01 3.633252e-01 3.633022e-01 3.630289e-01 3.630008e-01 3.627018e-01 3.626711e-01 3.623495e-01 3.623185e-01 3.619776e-01 3.619489e-01 3.615920e-01 3.615682e-01 3.611987e-01 3.611821e-01 3.608034e-01 3.607966e-01 3.604121e-01 3.604173e-01 3.600305e-01 3.600498e-01 3.596640e-01 3.596995e-01 3.593177e-01 3.593713e-01 3.589967e-01 3.590700e-01 3.587054e-01 3.587998e-01 3.584478e-01 3.585644e-01 3.582275e-01 3.583673e-01 3.580475e-01 3.582110e-01 3.579103e-01 3.580978e-01 3.578178e-01 3.580293e-01 3.577712e-01 3.580063e-01 3.577712e-01 3.580293e-01 3.578178e-01 3.580978e-01 3.579103e-01 3.582110e-01 3.580475e-01 3.583673e-01 3.582275e-01 3.585644e-01 3.584478e-01 3.587998e-01 3.587054e-01 3.590700e-01 3.589967e-01 3.593713e-01 3.593177e-01 3.596995e-01 3.596640e-01 3.600498e-01 3.600305e-01 3.604173e-01 3.604121e-01 3.607966e-01 3.608034e-01 3.611821e-01 3.611987e-01 3.615682e-01 3.615920e-01 3.619489e-01 3.619776e-01 3.623185e-01 3.623495e-01 3.626711e-01 3.627018e-01 3.630008e-01 3.630289e-01 3.633022e-01 3.633252e-01 3.635698e-01 3.635854e-01 3.637987e-01 3.638046e-01 3.639840e-01 3.639781e-01 3.641214e-01 3.641019e-01 3.642071e-01 3.641723e-01 3.642376e-01 3.641860e-01 3.642102e-01 3.641404e-01 3.641225e-01 3.640336e-01 3.639728e-01 3.638640e-01 3.637600e-01 3.636308e-01 3.634837e-01 3.633338e-01 3.631439e-01 3.629734e-01 3.627416e-01 3.625507e-01 3.622779e-01 3.620672e-01 3.617550e-01 3.615253e-01 3.611753e-01 3.609278e-01 3.605420e-01 3.602779e-01 3.598587e-01 3.595797e-01 3.591296e-01 3.588372e-01 3.583591e-01 3.580554e-01 3.575522e-01 3.572394e-01 3.567142e-01 3.563945e-01 3.558508e-01 3.555266e-01 3.549677e-01 3.546416e-01 3.540710e-01 3.537456e-01 3.531668e-01 3.528448e-01 3.522616e-01 3.519456e-01 3.513614e-01 3.510542e-01 3.504727e-01 3.501770e-01 3.496016e-01 3.493202e-01 3.487543e-01 3.484896e-01 3.479365e-01 3.476913e-01 3.471542e-01 3.469308e-01 3.464126e-01 3.462135e-01 3.457170e-01 3.455443e-01 3.450723e-01 3.449280e-01 3.444828e-01 3.443689e-01 3.439528e-01 3.438709e-01 3.434857e-01 3.434374e-01 3.430850e-01 3.430714e-01 3.427533e-01 3.427756e-01 3.424929e-01 3.425519e-01 3.423056e-01 3.424019e-01 3.421927e-01 3.423267e-01 
3.357171e-01 3.359307e-01 3.357504e-01 3.359970e-01 3.358499e-01 3.361290e-01 3.360150e-01 3.363259e-01 3.362444e-01 3.365860e-01 3.365364e-01 3.369075e-01 3.368887e-01 3.372878e-01 3.372987e-01 3.377240e-01 3.377633e-01 3.382129e-01 3.382790e-01 3.387506e-01 3.388418e-01 3.393331e-01 3.394475e-01 3.399557e-01 3.400914e-01 3.406138e-01 3.407685e-01 3.413021e-01 3.414736e-01 3.420153e-01 3.422012e-01 3.427479e-01 3.429458e-01 3.434940e-01 3.437015e-01 3.442477e-01 3.444623e-01 3.450032e-01 3.452224e-01 3.457544e-01 3.459758e-01 3.464954e-01 3.467166e-01 3.472204e-01 3.474390e-01 3.479235e-01 3.481373e-01 3.485992e-01 3.488060e-01 3.492423e-01 3.494402e-01 3.498476e-01 3.500347e-01 3.504106e-01 3.505853e-01 3.509269e-01 3.510876e-01 3.513927e-01 3.515382e-01 3.518046e-01 3.519339e-01 3.521597e-01 3.522720e-01 3.524557e-01 3.525504e-01 3.526908e-01 3.527676e-01 3.528639e-01 3.529228e-01 3.529744e-01 3.530156e-01 3.530224e-01 3.530464e-01 3.530086e-01 3.530161e-01 3.529343e-01 3.529263e-01 3.528014e-01 3.527791e-01 3.526123e-01 3.525773e-01 3.523703e-01 3.523241e-01 3.520788e-01 3.520233e-01 3.517419e-01 3.516793e-01 3.513642e-01 3.512966e-01 3.509507e-01 3.508804e-01 3.505067e-01 3.504361e-01 3.500378e-01 3.499694e-01 3.495498e-01 3.494862e-01 3.490488e-01 3.489925e-01 3.485408e-01 3.484944e-01 3.480322e-01 3.479981e-01 3.475289e-01 3.475097e-01 3.470371e-01 3.470349e-01 3.465626e-01 3.465797e-01 3.461111e-01 3.461495e-01 3.456880e-01 3.457495e-01 3.452983e-01 3.453845e-01 3.449465e-01 3.450588e-01 3.446370e-01 3.447764e-01 3.443732e-01 3.445405e-01 3.441584e-01 3.443541e-01 3.439950e-01 3.442194e-01 3.438850e-01 3.441379e-01 3.438297e-01 3.441106e-01 3.438297e-01 3.441379e-01 3.438850e-01 3.442194e-01 3.439950e-01 3.443541e-01 3.441584e-01 3.445405e-01 3.443732e-01 3.447764e-01 3.446370e-01 3.450588e-01 3.449465e-01 3.453845e-01 3.452983e-01 3.457495e-01 3.456880e-01 3.461495e-01 3.461111e-01 3.465797e-01 3.465626e-01 3.470349e-01 3.470371e-01 3.475097e-01 3.475289e-01 3.479981e-01 3.480322e-01 3.484944e-01 3.485408e-01 3.489925e-01 3.490488e-01 3.494862e-01 3.495498e-01 3.499694e-01 3.500378e-01 3.504361e-01 3.505067e-01 3.508804e-01 3.509507e-01 3.512966e-01 3.513642e-01 3.516793e-01 3.517419e-01 3.520233e-01 3.520788e-01 3.523241e-01 3.523703e-01 3.525773e-01 3.526123e-01 3.527791e-01 3.528014e-01 3.529263e-01 3.529343e-01 3.530161e-01 3.530086e-01 3.530464e-01 3.530224e-01 3.530156e-01 3.529744e-01 3.529228e-01 3.528639e-01 3.527676e-01 3.526908e-01 3.525504e-01 3.524557e-01 3.522720e-01 3.521597e-01 3.519339e-01 3.518046e-01 3.515382e-01 3.513927e-01 3.510876e-01 3.509269e-01 3.505853e-01 3.504106e-01 3.500347e-01 3.498476e-01 3.494402e-01 3.492423e-01 3.488060e-01 3.485992e-01 3.481373e-01 3.479235e-01 3.474390e-01 3.472204e-01 3.467166e-01 3.464954e-01 3.459758e-01 3.457544e-01 3.452224e-01 3.450032e-01 3.444623e-01 3.442477e-01 3.437015e-01 3.434940e-01 3.429458e-01 3.427479e-01 3.422012e-01 3.420153e-01 3.414736e-01 3.413021e-01 3.407685e-01 3.406138e-01 3.400914e-01 3.399557e-01 3.394475e-01 3.393331e-01 3.388418e-01 3.387506e-01 3.382790e-01 3.382129e-01 3.377633e-01 3.377240e-01 3.372987e-01 3.372878e-01 3.368887e-01 3.369075e-01 3.365364e-01 3.365860e-01 3.362444e-01 3.363259e-01 3.360150e-01 3.361290e-01 3.358499e-01 3.359970e-01 3.357504e-01 3.359307e-01 
3.291591e-01 3.294076e-01 3.291877e-01 3.294644e-01 3.292732e-01 3.295776e-01 3.294149e-01 3.297463e-01 3.296116e-01 3.299688e-01 3.298616e-01 3.302435e-01 3.301628e-01 3.305678e-01 3.305127e-01 3.309390e-01 3.309083e-01 3.313539e-01 3.313462e-01 3.318089e-01 3.318225e-01 3.323000e-01 3.323333e-01 3.328229e-01 3.328739e-01 3.333730e-01 3.334398e-01 3.339453e-01 3.340259e-01 3.345348e-01 3.346270e-01 3.351361e-01 3.352377e-01 3.357438e-01 3.358526e-01 3.363522e-01 3.364660e-01 3.369558e-01 3.370723e-01 3.375489e-01 3.376660e-01 3.381260e-01 3.382414e-01 3.386815e-01 3.387932e-01 3.392101e-01 3.393162e-01 3.397067e-01 3.398053e-01 3.401664e-01 3.402558e-01 3.405847e-01 3.406633e-01 3.409573e-01 3.410238e-01 3.412805e-01 3.413337e-01 3.415507e-01 3.415897e-01 3.417653e-01 3.417893e-01 3.419218e-01 3.419302e-01 3.420184e-01 3.420110e-01 3.420538e-01 3.420307e-01 3.420275e-01 3.419888e-01 3.419394e-01 3.418856e-01 3.417900e-01 3.417220e-01 3.415806e-01 3.414993e-01 3.413131e-01 3.412196e-01 3.409897e-01 3.408856e-01 3.406135e-01 3.405004e-01 3.401880e-01 3.400678e-01 3.397174e-01 3.395921e-01 3.392060e-01 3.390779e-01 3.386590e-01 3.385304e-01 3.380816e-01 3.379550e-01 3.374796e-01 3.373575e-01 3.368590e-01 3.367440e-01 3.362259e-01 3.361207e-01 3.355867e-01 3.354939e-01 3.349479e-01 3.348700e-01 3.343158e-01 3.342555e-01 3.336969e-01 3.336566e-01 3.330975e-01 3.330796e-01 3.325237e-01 3.325303e-01 3.319813e-01 3.320144e-01 3.314759e-01 3.315373e-01 3.310126e-01 3.311039e-01 3.305963e-01 3.307188e-01 3.302311e-01 3.303858e-01 3.299209e-01 3.301085e-01 3.296687e-01 3.298898e-01 3.294773e-01 3.297320e-01 3.293486e-01 3.296366e-01 3.292840e-01 3.296047e-01 3.292840e-01 3.296366e-01 3.293486e-01 3.297320e-01 3.294773e-01 3.298898e-01 3.296687e-01 3.301085e-01 3.299209e-01 3.303858e-01 3.302311e-01 3.307188e-01 3.305963e-01 3.311039e-01 3.310126e-01 3.315373e-01 3.314759e-01 3.320144e-01 3.319813e-01 3.325303e-01 3.325237e-01 3.330796e-01 3.330975e-01 3.336566e-01 3.336969e-01 3.342555e-01 3.343158e-01 3.348700e-01 3.349479e-01 3.354939e-01 3.355867e-01 3.361207e-01 3.362259e-01 3.367440e-01 3.368590e-01 3.373575e-01 3.374796e-01 3.379550e-01 3.380816e-01 3.385304e-01 3.386590e-01 3.390779e-01 3.392060e-01 3.395921e-01 3.397174e-01 3.400678e-01 3.401880e-01 3.405004e-01 3.406135e-01 3.408856e-01 3.409897e-01 3.412196e-01 3.413131e-01 3.414993e-01 3.415806e-01 3.417220e-01 3.417900e-01 3.418856e-01 3.419394e-01 3.419888e-01 3.420275e-01 3.420307e-01 3.420538e-01 3.420110e-01 3.420184e-01 3.419302e-01 3.419218e-01 3.417893e-01 3.417653e-01 3.415897e-01 3.415507e-01 3.413337e-01 3.412805e-01 3.410238e-01 3.409573e-01 3.406633e-01 3.405847e-01 3.402558e-01 3.401664e-01 3.398053e-01 3.397067e-01 3.393162e-01 3.392101e-01 3.387932e-01 3.386815e-01 3.382414e-01 3.381260e-01 3.376660e-01 3.375489e-01 3.370723e-01 3.369558e-01 3.364660e-01 3.363522e-01 3.358526e-01 3.357438e-01 3.352377e-01 3.351361e-01 3.346270e-01 3.345348e-01 3.340259e-01 3.339453e-01 3.334398e-01 3.333730e-01 3.328739e-01 3.328229e-01 3.323333e-01 3.323000e-01 3.318225e-01 3.318089e-01 3.313462e-01 3.313539e-01 3.309083e-01 3.309390e-01 3.305127e-01 3.305678e-01 3.301628e-01 3.302435e-01 3.298616e-01 3.299688e-01 3.296116e-01 3.297463e-01 3.294149e-01 3.295776e-01 3.292732e-01 3.294644e-01 3.291877e-01 3.294076e-01 