# vtk DataFile Version 2.0
Comment goes here
ASCII

DATASET STRUCTURED_POINTS
FIELD FieldData 1
TIME 1 1 double
0.01000000
DIMENSIONS    256   256   1

ORIGIN    0.000   0.000   0.000
SPACING   0.0039062 0.0039062   1.000

POINT_DATA   65536
SCALARS P double
LOOKUP_TABLE default

-1.046113e+00 -1.046153e+00 -1.046324e+00 -1.046576e+00 -1.046957e+00 -1.047420e+00 -1.048012e+00 -1.048687e+00 -1.049489e+00 -1.050375e+00 -1.051385e+00 -1.052482e+00 -1.053701e+00 -1.055009e+00 -1.056435e+00 -1.057953e+00 -1.059586e+00 -1.061312e+00 -1.063150e+00 -1.065085e+00 -1.067126e+00 -1.069267e+00 -1.071511e+00 -1.073858e+00 -1.076302e+00 -1.078852e+00 -1.081494e+00 -1.084245e+00 -1.087083e+00 -1.090033e+00 -1.093064e+00 -1.096210e+00 -1.099431e+00 -1.102770e+00 -1.106177e+00 -1.109705e+00 -1.113295e+00 -1.117009e+00 -1.120777e+00 -1.124671e+00 -1.128613e+00 -1.132683e+00 -1.136794e+00 -1.141033e+00 -1.145307e+00 -1.149709e+00 -1.154140e+00 -1.158699e+00 -1.163279e+00 -1.167988e+00 -1.172710e+00 -1.177560e+00 -1.182417e+00 -1.187399e+00 -1.192382e+00 -1.197486e+00 -1.202586e+00 -1.207803e+00 -1.213009e+00 -1.218328e+00 -1.223629e+00 -1.229039e+00 -1.234425e+00 -1.239913e+00 -1.245371e+00 -1.250925e+00 -1.256443e+00 -1.262049e+00 -1.267614e+00 -1.273257e+00 -1.278856e+00 -1.284523e+00 -1.290140e+00 -1.295815e+00 -1.301436e+00 -1.307105e+00 -1.312714e+00 -1.318359e+00 -1.323941e+00 -1.329547e+00 -1.335086e+00 -1.340635e+00 -1.346115e+00 -1.351591e+00 -1.356994e+00 -1.362381e+00 -1.367691e+00 -1.372971e+00 -1.378170e+00 -1.383327e+00 -1.388400e+00 -1.393415e+00 -1.398345e+00 -1.403203e+00 -1.407972e+00 -1.412656e+00 -1.417250e+00 -1.421744e+00 -1.426146e+00 -1.430435e+00 -1.434629e+00 -1.438697e+00 -1.442670e+00 -1.446503e+00 -1.450239e+00 -1.453823e+00 -1.457310e+00 -1.460633e+00 -1.463856e+00 -1.466906e+00 -1.469855e+00 -1.472620e+00 -1.475284e+00 -1.477754e+00 -1.480123e+00 -1.482290e+00 -1.484354e+00 -1.486209e+00 -1.487961e+00 -1.489498e+00 -1.490931e+00 -1.492144e+00 -1.493253e+00 -1.494137e+00 -1.494917e+00 -1.495470e+00 -1.495919e+00 -1.496138e+00 -1.496253e+00 -1.496138e+00 -1.495919e+00 -1.495470e+00 -1.494917e+00 -1.494137e+00 -1.493253e+00 -1.492144e+00 -1.490931e+00 -1.489498e+00 -1.487961e+00 -1.486209e+00 -1.484354e+00 -1.482290e+00 -1.480123e+00 -1.477754e+00 -1.475284e+00 -1.472620e+00 -1.469855e+00 -1.466906e+00 -1.463856e+00 -1.460633e+00 -1.457310e+00 -1.453823e+00 -1.450239e+00 -1.446503e+00 -1.442670e+00 -1.438697e+00 -1.434629e+00 -1.430435e+00 -1.426146e+00 -1.421744e+00 -1.417250e+00 -1.412656e+00 -1.407972e+00 -1.403203e+00 -1.398345e+00 -1.393415e+00 -1.388400e+00 -1.383327e+00 -1.378170e+00 -1.372971e+00 -1.367691e+00 -1.362381e+00 -1.356994e+00 -1.351591e+00 -1.346115e+00 -1.340635e+00 -1.335086e+00 -1.329547e+00 -1.323941e+00 -1.318359e+00 -1.312714e+00 -1.307105e+00 -1.301436e+00 -1.295815e+00 -1.290140e+00 -1.284523e+00 -1.278856e+00 -1.273257e+00 -1.267614e+00 -1.262049e+00 -1.256443e+00 -1.250925e+00 -1.245371e+00 -1.239913e+00 -1.234425e+00 -1.229039e+00 -1.223629e+00 -1.218328e+00 -1.213009e+00 -1.207803e+00 -1.202586e+00 -1.197486e+00 -1.192382e+00 -1.187399e+00 -1.182417e+00 -1.177560e+00 -1.172710e+00 -1.167988e+00 -1.163279e+00 -1.158699e+00 -1.154140e+00 -1.149709e+00 -1.145307e+00 -1.141033e+00 -1.136794e+00 -1.132683e+00 -1.128613e+00 -1.124671e+00 -1.120777e+00 -1.117009e+00 -1.113295e+00 -1.109705e+00 -1.106177e+00 -1.102770e+00 -1.099431e+00 -1.096210e+00 -1.093064e+00 -1.090033e+00 -1.087083e+00 -1.084245e+00 -1.081494e+00 -1.078852e+00 -1.076302e+00 -1.073858e+00 -1.071511e+00 -1.069267e+00 -1.067126e+00 -1.065085e+00 -1.063150e+00 -1.061312e+00 -1.059586e+00 -1.057953e+00 -1.056435e+00 -1.055009e+00 -1.053701e+00 -1.052482e+00 -1.051385e+00 -1.050375e+00 -1.049489e+00 -1.048687e+00 -1.048012e+00 -1.047420e+00 -1.046957e+00 -1.046576e+00 -1.046324e+00 -1.046153e+00 
-1.014052e+00 -1.014075e+00 -1.014240e+00 -1.014450e+00 -1.014802e+00 -1.015200e+00 -1.015740e+00 -1.016326e+00 -1.017051e+00 -1.017825e+00 -1.018737e+00 -1.019699e+00 -1.020795e+00 -1.021944e+00 -1.023225e+00 -1.024562e+00 -1.026025e+00 -1.027549e+00 -1.029195e+00 -1.030904e+00 -1.032732e+00 -1.034626e+00 -1.036633e+00 -1.038711e+00 -1.040896e+00 -1.043157e+00 -1.045518e+00 -1.047959e+00 -1.050496e+00 -1.053116e+00 -1.055824e+00 -1.058621e+00 -1.061499e+00 -1.064469e+00 -1.067514e+00 -1.070655e+00 -1.073864e+00 -1.077172e+00 -1.080541e+00 -1.084013e+00 -1.087538e+00 -1.091169e+00 -1.094845e+00 -1.098631e+00 -1.102454e+00 -1.106388e+00 -1.110352e+00 -1.114429e+00 -1.118529e+00 -1.122743e+00 -1.126971e+00 -1.131314e+00 -1.135665e+00 -1.140129e+00 -1.144594e+00 -1.149172e+00 -1.153742e+00 -1.158425e+00 -1.163093e+00 -1.167870e+00 -1.172626e+00 -1.177487e+00 -1.182321e+00 -1.187256e+00 -1.192157e+00 -1.197155e+00 -1.202112e+00 -1.207160e+00 -1.212161e+00 -1.217246e+00 -1.222279e+00 -1.227389e+00 -1.232441e+00 -1.237562e+00 -1.242620e+00 -1.247738e+00 -1.252787e+00 -1.257887e+00 -1.262914e+00 -1.267982e+00 -1.272972e+00 -1.277992e+00 -1.282930e+00 -1.287887e+00 -1.292758e+00 -1.297637e+00 -1.302426e+00 -1.307210e+00 -1.311902e+00 -1.316577e+00 -1.321156e+00 -1.325706e+00 -1.330157e+00 -1.334566e+00 -1.338874e+00 -1.343128e+00 -1.347278e+00 -1.351362e+00 -1.355340e+00 -1.359238e+00 -1.363030e+00 -1.366730e+00 -1.370321e+00 -1.373810e+00 -1.377188e+00 -1.380452e+00 -1.383604e+00 -1.386632e+00 -1.389546e+00 -1.392327e+00 -1.394993e+00 -1.397516e+00 -1.399923e+00 -1.402179e+00 -1.404319e+00 -1.406299e+00 -1.408163e+00 -1.409861e+00 -1.411441e+00 -1.412850e+00 -1.414140e+00 -1.415254e+00 -1.416250e+00 -1.417066e+00 -1.417763e+00 -1.418278e+00 -1.418674e+00 -1.418885e+00 -1.418977e+00 -1.418885e+00 -1.418674e+00 -1.418278e+00 -1.417763e+00 -1.417066e+00 -1.416250e+00 -1.415254e+00 -1.414140e+00 -1.412850e+00 -1.411441e+00 -1.409861e+00 -1.408163e+00 -1.406299e+00 -1.404319e+00 -1.402179e+00 -1.399923e+00 -1.397516e+00 -1.394993e+00 -1.392327e+00 -1.389546e+00 -1.386632e+00 -1.383604e+00 -1.380452e+00 -1.377188e+00 -1.373810e+00 -1.370321e+00 -1.366730e+00 -1.363030e+00 -1.359238e+00 -1.355340e+00 -1.351362e+00 -1.347278e+00 -1.343128e+00 -1.338874e+00 -1.334566e+00 -1.330157e+00 -1.325706e+00 -1.321156e+00 -1.316577e+00 -1.311902e+00 -1.307210e+00 -1.302426e+00 -1.297637e+00 -1.292758e+00 -1.287887e+00 -1.282930e+00 -1.277992e+00 -1.272972e+00 -1.267982e+00 -1.262914e+00 -1.257887e+00 -1.252787e+00 -1.247738e+00 -1.242620e+00 -1.237562e+00 -1.232441e+00 -1.227389e+00 -1.222279e+00 -1.217246e+00 -1.212161e+00 -1.207160e+00 -1.202112e+00 -1.197155e+00 -1.192157e+00 -1.187256e+00 -1.182321e+00 -1.177487e+00 -1.172626e+00 -1.167870e+00 -1.163093e+00 -1.158425e+00 -1.153742e+00 -1.149172e+00 -1.144594e+00 -1.140129e+00 -1.135665e+00 -1.131314e+00 -1.126971e+00 -1.122743e+00 -1.118529e+00 -1.114429e+00 -1.110352e+00 -1.106388e+00 -1.102454e+00 -1.098631e+00 -1.094845e+00 -1.091169e+00 -1.087538e+00 -1.084013e+00 -1.080541e+00 -1.077172e+00 -1.073864e+00 -1.070655e+00 -1.067514e+00 -1.064469e+00 -1.061499e+00 -1.058621e+00 -1.055824e+00 -1.053116e+00 -1.050496e+00 -1.047959e+00 -1.045518e+00 -1.043157e+00 -1.040896e+00 -1.038711e+00 -1.036633e+00 -1.034626e+00 -1.032732e+00 -1.030904e+00 -1.029195e+00 -1.027549e+00 -1.026025e+00 -1.024562e+00 -1.023225e+00 -1.021944e+00 -1.020795e+00 -1.019699e+00 -1.018737e+00 -1.017825e+00 -1.017051e+00 -1.016326e+00 -1.015740e+00 -1.015200e+00 -1.014802e+00 -1.014450e+00 -1.014240e+00 -1.014075e+00 
-9.806037e-01 -9.806141e-01 -9.807668e-01 -9.809406e-01 -9.812560e-01 -9.815934e-01 -9.820712e-01 -9.825723e-01 -9.832121e-01 -9.838769e-01 -9.846783e-01 -9.855069e-01 -9.864693e-01 -9.874615e-01 -9.885843e-01 -9.897400e-01 -9.910224e-01 -9.923412e-01 -9.937825e-01 -9.952640e-01 -9.968632e-01 -9.985068e-01 -1.000263e+00 -1.002068e+00 -1.003980e+00 -1.005945e+00 -1.008011e+00 -1.010135e+00 -1.012354e+00 -1.014635e+00 -1.017005e+00 -1.019443e+00 -1.021962e+00 -1.024552e+00 -1.027218e+00 -1.029960e+00 -1.032770e+00 -1.035660e+00 -1.038611e+00 -1.041647e+00 -1.044735e+00 -1.047913e+00 -1.051135e+00 -1.054450e+00 -1.057803e+00 -1.061251e+00 -1.064729e+00 -1.068305e+00 -1.071904e+00 -1.075603e+00 -1.079316e+00 -1.083131e+00 -1.086954e+00 -1.090879e+00 -1.094804e+00 -1.098831e+00 -1.102851e+00 -1.106973e+00 -1.111082e+00 -1.115290e+00 -1.119478e+00 -1.123764e+00 -1.128023e+00 -1.132376e+00 -1.136697e+00 -1.141108e+00 -1.145481e+00 -1.149939e+00 -1.154353e+00 -1.158848e+00 -1.163292e+00 -1.167811e+00 -1.172274e+00 -1.176806e+00 -1.181276e+00 -1.185807e+00 -1.190273e+00 -1.194791e+00 -1.199239e+00 -1.203730e+00 -1.208148e+00 -1.212599e+00 -1.216973e+00 -1.221370e+00 -1.225687e+00 -1.230017e+00 -1.234262e+00 -1.238510e+00 -1.242671e+00 -1.246824e+00 -1.250887e+00 -1.254929e+00 -1.258880e+00 -1.262799e+00 -1.266624e+00 -1.270407e+00 -1.274093e+00 -1.277725e+00 -1.281259e+00 -1.284728e+00 -1.288097e+00 -1.291391e+00 -1.294583e+00 -1.297689e+00 -1.300692e+00 -1.303599e+00 -1.306402e+00 -1.309099e+00 -1.311691e+00 -1.314168e+00 -1.316540e+00 -1.318788e+00 -1.320930e+00 -1.322941e+00 -1.324844e+00 -1.326610e+00 -1.328268e+00 -1.329782e+00 -1.331188e+00 -1.332444e+00 -1.333592e+00 -1.334586e+00 -1.335472e+00 -1.336201e+00 -1.336821e+00 -1.337280e+00 -1.337632e+00 -1.337821e+00 -1.337902e+00 -1.337821e+00 -1.337632e+00 -1.337280e+00 -1.336821e+00 -1.336201e+00 -1.335472e+00 -1.334586e+00 -1.333592e+00 -1.332444e+00 -1.331188e+00 -1.329782e+00 -1.328268e+00 -1.326610e+00 -1.324844e+00 -1.322941e+00 -1.320930e+00 -1.318788e+00 -1.316540e+00 -1.314168e+00 -1.311691e+00 -1.309099e+00 -1.306402e+00 -1.303599e+00 -1.300692e+00 -1.297689e+00 -1.294583e+00 -1.291391e+00 -1.288097e+00 -1.284728e+00 -1.281259e+00 -1.277725e+00 -1.274093e+00 -1.270407e+00 -1.266624e+00 -1.262799e+00 -1.258880e+00 -1.254929e+00 -1.250887e+00 -1.246824e+00 -1.242671e+00 -1.238510e+00 -1.234262e+00 -1.230017e+00 -1.225687e+00 -1.221370e+00 -1.216973e+00 -1.212599e+00 -1.208148e+00 -1.203730e+00 -1.199239e+00 -1.194791e+00 -1.190273e+00 -1.185807e+00 -1.181276e+00 -1.176806e+00 -1.172274e+00 -1.167811e+00 -1.163292e+00 -1.158848e+00 -1.154353e+00 -1.149939e+00 -1.145481e+00 -1.141108e+00 -1.136697e+00 -1.132376e+00 -1.128023e+00 -1.123764e+00 -1.119478e+00 -1.115290e+00 -1.111082e+00 -1.106973e+00 -1.102851e+00 -1.098831e+00 -1.094804e+00 -1.090879e+00 -1.086954e+00 -1.083131e+00 -1.079316e+00 -1.075603e+00 -1.071904e+00 -1.068305e+00 -1.064729e+00 -1.061251e+00 -1.057803e+00 -1.054450e+00 -1.051135e+00 -1.047913e+00 -1.044735e+00 -1.041647e+00 -1.038611e+00 -1.035660e+00 -1.032770e+00 -1.029960e+00 -1.027218e+00 -1.024552e+00 -1.021962e+00 -1.019443e+00 -1.017005e+00 -1.014635e+00 -1.012354e+00 -1.010135e+00 -1.008011e+00 -1.005945e+00 -1.003980e+00 -1.002068e+00 -1.000263e+00 -9.985068e-01 -9.968632e-01 -9.952640e-01 -9.937825e-01 -9.923412e-01 -9.910224e-01 -9.897400e-01 -9.885843e-01 -9.874615e-01 -9.864693e-01 -9.855069e-01 -9.846783e-01 -9.838769e-01 -9.832121e-01 -9.825723e-01 -9.820712e-01 -9.815934e-01 -9.812560e-01 -9.809406e-01 -9.807668e-01 -9.806141e-01 
-9.483870e-01 -9.483792e-01 -9.485266e-01 -9.486586e-01 -9.489452e-01 -9.492174e-01 -9.496429e-01 -9.500554e-01 -9.506195e-01 -9.511725e-01 -9.518747e-01 -9.525685e-01 -9.534084e-01 -9.542430e-01 -9.552202e-01 -9.561956e-01 -9.573095e-01 -9.584257e-01 -9.596758e-01 -9.609326e-01 -9.623182e-01 -9.637153e-01 -9.652356e-01 -9.667727e-01 -9.684268e-01 -9.701032e-01 -9.718902e-01 -9.737050e-01 -9.756238e-01 -9.775762e-01 -9.796253e-01 -9.817140e-01 -9.838920e-01 -9.861154e-01 -9.884205e-01 -9.907769e-01 -9.932071e-01 -9.956944e-01 -9.982474e-01 -1.000863e+00 -1.003536e+00 -1.006277e+00 -1.009068e+00 -1.011932e+00 -1.014836e+00 -1.017818e+00 -1.020833e+00 -1.023930e+00 -1.027051e+00 -1.030258e+00 -1.033480e+00 -1.036792e+00 -1.040111e+00 -1.043523e+00 -1.046933e+00 -1.050438e+00 -1.053934e+00 -1.057525e+00 -1.061100e+00 -1.064770e+00 -1.068417e+00 -1.072159e+00 -1.075871e+00 -1.079677e+00 -1.083444e+00 -1.087305e+00 -1.091121e+00 -1.095027e+00 -1.098882e+00 -1.102824e+00 -1.106709e+00 -1.110676e+00 -1.114580e+00 -1.118563e+00 -1.122476e+00 -1.126462e+00 -1.130374e+00 -1.134353e+00 -1.138252e+00 -1.142211e+00 -1.146086e+00 -1.150014e+00 -1.153853e+00 -1.157737e+00 -1.161528e+00 -1.165355e+00 -1.169087e+00 -1.172845e+00 -1.176505e+00 -1.180182e+00 -1.183756e+00 -1.187340e+00 -1.190818e+00 -1.194294e+00 -1.197663e+00 -1.201021e+00 -1.204269e+00 -1.207497e+00 -1.210612e+00 -1.213697e+00 -1.216668e+00 -1.219599e+00 -1.222414e+00 -1.225180e+00 -1.227830e+00 -1.230421e+00 -1.232894e+00 -1.235300e+00 -1.237587e+00 -1.239799e+00 -1.241891e+00 -1.243901e+00 -1.245789e+00 -1.247589e+00 -1.249266e+00 -1.250848e+00 -1.252308e+00 -1.253667e+00 -1.254903e+00 -1.256033e+00 -1.257041e+00 -1.257938e+00 -1.258712e+00 -1.259373e+00 -1.259911e+00 -1.260333e+00 -1.260632e+00 -1.260814e+00 -1.260873e+00 -1.260814e+00 -1.260632e+00 -1.260333e+00 -1.259911e+00 -1.259373e+00 -1.258712e+00 -1.257938e+00 -1.257041e+00 -1.256033e+00 -1.254903e+00 -1.253667e+00 -1.252308e+00 -1.250848e+00 -1.249266e+00 -1.247589e+00 -1.245789e+00 -1.243901e+00 -1.241891e+00 -1.239799e+00 -1.237587e+00 -1.235300e+00 -1.232894e+00 -1.230421e+00 -1.227830e+00 -1.225180e+00 -1.222414e+00 -1.219599e+00 -1.216668e+00 -1.213697e+00 -1.210612e+00 -1.207497e+00 -1.204269e+00 -1.201021e+00 -1.197663e+00 -1.194294e+00 -1.190818e+00 -1.187340e+00 -1.183756e+00 -1.180182e+00 -1.176505e+00 -1.172845e+00 -1.169087e+00 -1.165355e+00 -1.161528e+00 -1.157737e+00 -1.153853e+00 -1.150014e+00 -1.146086e+00 -1.142211e+00 -1.138252e+00 -1.134353e+00 -1.130374e+00 -1.126462e+00 -1.122476e+00 -1.118563e+00 -1.114580e+00 -1.110676e+00 -1.106709e+00 -1.102824e+00 -1.098882e+00 -1.095027e+00 -1.091121e+00 -1.087305e+00 -1.083444e+00 -1.079677e+00 -1.075871e+00 -1.072159e+00 -1.068417e+00 -1.064770e+00 -1.061100e+00 -1.057525e+00 -1.053934e+00 -1.050438e+00 -1.046933e+00 -1.043523e+00 -1.040111e+00 -1.036792e+00 -1.033480e+00 -1.030258e+00 -1.027051e+00 -1.023930e+00 -1.020833e+00 -1.017818e+00 -1.014836e+00 -1.011932e+00 -1.009068e+00 -1.006277e+00 -1.003536e+00 -1.000863e+00 -9.982474e-01 -9.956944e-01 -9.932071e-01 -9.907769e-01 -9.884205e-01 -9.861154e-01 -9.838920e-01 -9.817140e-01 -9.796253e-01 -9.775762e-01 -9.756238e-01 -9.737050e-01 -9.718902e-01 -9.701032e-01 -9.684268e-01 -9.667727e-01 -9.652356e-01 -9.637153e-01 -9.623182e-01 -9.609326e-01 -9.596758e-01 -9.584257e-01 -9.573095e-01 -9.561956e-01 -9.552202e-01 -9.542430e-01 -9.534084e-01 -9.525685e-01 -9.518747e-01 -9.511725e-01 -9.506195e-01 -9.500554e-01 -9.496429e-01 -9.492174e-01 -9.489452e-01 -9.486586e-01 -9.485266e-01 -9.483792e-01 
-9.147686e-01 -9.147486e-01 -9.148838e-01 -9.149792e-01 -9.152292e-01 -9.154405e-01 -9.158050e-01 -9.161323e-01 -9.166111e-01 -9.170548e-01 -9.176476e-01 -9.182080e-01 -9.189145e-01 -9.195919e-01 -9.204117e-01 -9.212064e-01 -9.221393e-01 -9.230514e-01 -9.240970e-01 -9.251266e-01 -9.262846e-01 -9.274317e-01 -9.287016e-01 -9.299663e-01 -9.313476e-01 -9.327295e-01 -9.342216e-01 -9.357205e-01 -9.373227e-01 -9.389379e-01 -9.406494e-01 -9.423804e-01 -9.442001e-01 -9.460458e-01 -9.479725e-01 -9.499319e-01 -9.519643e-01 -9.540357e-01 -9.561722e-01 -9.583541e-01 -9.605927e-01 -9.628829e-01 -9.652215e-01 -9.676176e-01 -9.700537e-01 -9.725529e-01 -9.750838e-01 -9.776829e-01 -9.803054e-01 -9.830008e-01 -9.857114e-01 -9.884990e-01 -9.912937e-01 -9.941690e-01 -9.970435e-01 -1.000002e+00 -1.002951e+00 -1.005986e+00 -1.009006e+00 -1.012112e+00 -1.015196e+00 -1.018367e+00 -1.021508e+00 -1.024738e+00 -1.027930e+00 -1.031211e+00 -1.034447e+00 -1.037770e+00 -1.041043e+00 -1.044401e+00 -1.047702e+00 -1.051085e+00 -1.054407e+00 -1.057806e+00 -1.061139e+00 -1.064545e+00 -1.067880e+00 -1.071283e+00 -1.074610e+00 -1.078000e+00 -1.081310e+00 -1.084676e+00 -1.087958e+00 -1.091289e+00 -1.094533e+00 -1.097819e+00 -1.101014e+00 -1.104244e+00 -1.107379e+00 -1.110542e+00 -1.113607e+00 -1.116691e+00 -1.119675e+00 -1.122670e+00 -1.125563e+00 -1.128457e+00 -1.131248e+00 -1.134031e+00 -1.136709e+00 -1.139371e+00 -1.141926e+00 -1.144457e+00 -1.146880e+00 -1.149269e+00 -1.151550e+00 -1.153790e+00 -1.155920e+00 -1.158000e+00 -1.159971e+00 -1.161884e+00 -1.163687e+00 -1.165427e+00 -1.167055e+00 -1.168612e+00 -1.170059e+00 -1.171429e+00 -1.172688e+00 -1.173865e+00 -1.174931e+00 -1.175911e+00 -1.176779e+00 -1.177558e+00 -1.178225e+00 -1.178799e+00 -1.179261e+00 -1.179629e+00 -1.179885e+00 -1.180045e+00 -1.180093e+00 -1.180045e+00 -1.179885e+00 -1.179629e+00 -1.179261e+00 -1.178799e+00 -1.178225e+00 -1.177558e+00 -1.176779e+00 -1.175911e+00 -1.174931e+00 -1.173865e+00 -1.172688e+00 -1.171429e+00 -1.170059e+00 -1.168612e+00 -1.167055e+00 -1.165427e+00 -1.163687e+00 -1.161884e+00 -1.159971e+00 -1.158000e+00 -1.155920e+00 -1.153790e+00 -1.151550e+00 -1.149269e+00 -1.146880e+00 -1.144457e+00 -1.141926e+00 -1.139371e+00 -1.136709e+00 -1.134031e+00 -1.131248e+00 -1.128457e+00 -1.125563e+00 -1.122670e+00 -1.119675e+00 -1.116691e+00 -1.113607e+00 -1.110542e+00 -1.107379e+00 -1.104244e+00 -1.101014e+00 -1.097819e+00 -1.094533e+00 -1.091289e+00 -1.087958e+00 -1.084676e+00 -1.081310e+00 -1.078000e+00 -1.074610e+00 -1.071283e+00 -1.067880e+00 -1.064545e+00 -1.061139e+00 -1.057806e+00 -1.054407e+00 -1.051085e+00 -1.047702e+00 -1.044401e+00 -1.041043e+00 -1.037770e+00 -1.034447e+00 -1.031211e+00 -1.027930e+00 -1.024738e+00 -1.021508e+00 -1.018367e+00 -1.015196e+00 -1.012112e+00 -1.009006e+00 -1.005986e+00 -1.002951e+00 -1.000002e+00 -9.970435e-01 -9.941690e-01 -9.912937e-01 -9.884990e-01 -9.857114e-01 -9.830008e-01 -9.803054e-01 -9.776829e-01 -9.750838e-01 -9.725529e-01 -9.700537e-01 -9.676176e-01 -9.652215e-01 -9.628829e-01 -9.605927e-01 -9.583541e-01 -9.561722e-01 -9.540357e-01 -9.519643e-01 -9.499319e-01 -9.479725e-01 -9.460458e-01 -9.442001e-01 -9.423804e-01 -9.406494e-01 -9.389379e-01 -9.373227e-01 -9.357205e-01 -9.342216e-01 -9.327295e-01 -9.313476e-01 -9.299663e-01 -9.287016e-01 -9.274317e-01 -9.262846e-01 -9.251266e-01 -9.240970e-01 -9.230514e-01 -9.221393e-01 -9.212064e-01 -9.204117e-01 -9.195919e-01 -9.189145e-01 -9.182080e-01 -9.176476e-01 -9.170548e-01 -9.166111e-01 -9.161323e-01 -9.158050e-01 -9.154405e-01 -9.152292e-01 -9.149792e-01 -9.148838e-01 -9.147486e-01 
-8.824429e-01 -8.824045e-01 -8.825346e-01 -8.825881e-01 -8.828095e-01 -8.829554e-01 -8.832678e-01 -8.835065e-01 -8.839097e-01 -8.842416e-01 -8.847354e-01 -8.851611e-01 -8.857453e-01 -8.862652e-01 -8.869397e-01 -8.875542e-01 -8.883189e-01 -8.890285e-01 -8.898833e-01 -8.906883e-01 -8.916331e-01 -8.925340e-01 -8.935686e-01 -8.945658e-01 -8.956900e-01 -8.967835e-01 -8.979972e-01 -8.991873e-01 -9.004900e-01 -9.017766e-01 -9.031681e-01 -9.045511e-01 -9.060308e-01 -9.075098e-01 -9.090771e-01 -9.106516e-01 -9.123058e-01 -9.139750e-01 -9.157150e-01 -9.174779e-01 -9.193027e-01 -9.211580e-01 -9.230661e-01 -9.250121e-01 -9.270019e-01 -9.290369e-01 -9.311064e-01 -9.332280e-01 -9.353750e-01 -9.375807e-01 -9.398026e-01 -9.420892e-01 -9.443831e-01 -9.467474e-01 -9.491100e-01 -9.515480e-01 -9.539757e-01 -9.564830e-01 -9.589717e-01 -9.615438e-01 -9.640890e-01 -9.667207e-01 -9.693175e-01 -9.720030e-01 -9.746461e-01 -9.773794e-01 -9.800630e-01 -9.828377e-01 -9.855555e-01 -9.883645e-01 -9.911101e-01 -9.939461e-01 -9.967123e-01 -9.995675e-01 -1.002347e+00 -1.005213e+00 -1.007998e+00 -1.010867e+00 -1.013649e+00 -1.016512e+00 -1.019283e+00 -1.022131e+00 -1.024882e+00 -1.027705e+00 -1.030428e+00 -1.033217e+00 -1.035902e+00 -1.038647e+00 -1.041286e+00 -1.043978e+00 -1.046560e+00 -1.049188e+00 -1.051705e+00 -1.054261e+00 -1.056702e+00 -1.059176e+00 -1.061533e+00 -1.063916e+00 -1.066179e+00 -1.068461e+00 -1.070622e+00 -1.072794e+00 -1.074845e+00 -1.076898e+00 -1.078829e+00 -1.080756e+00 -1.082560e+00 -1.084353e+00 -1.086021e+00 -1.087673e+00 -1.089199e+00 -1.090702e+00 -1.092079e+00 -1.093429e+00 -1.094651e+00 -1.095840e+00 -1.096903e+00 -1.097927e+00 -1.098825e+00 -1.099680e+00 -1.100408e+00 -1.101092e+00 -1.101648e+00 -1.102156e+00 -1.102537e+00 -1.102868e+00 -1.103071e+00 -1.103225e+00 -1.103250e+00 -1.103225e+00 -1.103071e+00 -1.102868e+00 -1.102537e+00 -1.102156e+00 -1.101648e+00 -1.101092e+00 -1.100408e+00 -1.099680e+00 -1.098825e+00 -1.097927e+00 -1.096903e+00 -1.095840e+00 -1.094651e+00 -1.093429e+00 -1.092079e+00 -1.090702e+00 -1.089199e+00 -1.087673e+00 -1.086021e+00 -1.084353e+00 -1.082560e+00 -1.080756e+00 -1.078829e+00 -1.076898e+00 -1.074845e+00 -1.072794e+00 -1.070622e+00 -1.068461e+00 -1.066179e+00 -1.063916e+00 -1.061533e+00 -1.059176e+00 -1.056702e+00 -1.054261e+00 -1.051705e+00 -1.049188e+00 -1.046560e+00 -1.043978e+00 -1.041286e+00 -1.038647e+00 -1.035902e+00 -1.033217e+00 -1.030428e+00 -1.027705e+00 -1.024882e+00 -1.022131e+00 -1.019283e+00 -1.016512e+00 -1.013649e+00 -1.010867e+00 -1.007998e+00 -1.005213e+00 -1.002347e+00 -9.995675e-01 -9.967123e-01 -9.939461e-01 -9.911101e-01 -9.883645e-01 -9.855555e-01 -9.828377e-01 -9.800630e-01 -9.773794e-01 -9.746461e-01 -9.720030e-01 -9.693175e-01 -9.667207e-01 -9.640890e-01 -9.615438e-01 -9.589717e-01 -9.564830e-01 -9.539757e-01 -9.515480e-01 -9.491100e-01 -9.467474e-01 -9.443831e-01 -9.420892e-01 -9.398026e-01 -9.375807e-01 -9.353750e-01 -9.332280e-01 -9.311064e-01 -9.290369e-01 -9.270019e-01 -9.250121e-01 -9.230661e-01 -9.211580e-01 -9.193027e-01 -9.174779e-01 -9.157150e-01 -9.139750e-01 -9.123058e-01 -9.106516e-01 -9.090771e-01 -9.075098e-01 -9.060308e-01 -9.045511e-01 -9.031681e-01 -9.017766e-01 -9.004900e-01 -8.991873e-01 -8.979972e-01 -8.967835e-01 -8.956900e-01 -8.945658e-01 -8.935686e-01 -8.925340e-01 -8.916331e-01 -8.906883e-01 -8.898833e-01 -8.890285e-01 -8.883189e-01 -8.875542e-01 -8.869397e-01 -8.862652e-01 -8.857453e-01 -8.851611e-01 -8.847354e-01 -8.842416e-01 -8.839097e-01 -8.835065e-01 -8.832678e-01 -8.829554e-01 -8.828095e-01 -8.825881e-01 -8.825346e-01 -8.824045e-01 
-8.487033e-01 -8.486526e-01 -8.487705e-01 -8.487874e-01 -8.489723e-01 -8.490571e-01 -8.493087e-01 -8.494621e-01 -8.497802e-01 -8.500028e-01 -8.503873e-01 -8.506796e-01 -8.511305e-01 -8.514932e-01 -8.520106e-01 -8.524443e-01 -8.530282e-01 -8.535337e-01 -8.541844e-01 -8.547623e-01 -8.554798e-01 -8.561310e-01 -8.569155e-01 -8.576405e-01 -8.584922e-01 -8.592917e-01 -8.602108e-01 -8.610854e-01 -8.620721e-01 -8.630222e-01 -8.640765e-01 -8.651025e-01 -8.662246e-01 -8.673267e-01 -8.685165e-01 -8.696948e-01 -8.709521e-01 -8.722066e-01 -8.735311e-01 -8.748615e-01 -8.762528e-01 -8.776585e-01 -8.791161e-01 -8.805963e-01 -8.821193e-01 -8.836730e-01 -8.852603e-01 -8.868862e-01 -8.885366e-01 -8.902331e-01 -8.919450e-01 -8.937099e-01 -8.954815e-01 -8.973126e-01 -8.991416e-01 -9.010362e-01 -9.029201e-01 -9.048751e-01 -9.068110e-01 -9.088228e-01 -9.108076e-01 -9.128723e-01 -9.149023e-01 -9.170157e-01 -9.190868e-01 -9.212440e-01 -9.233519e-01 -9.255480e-01 -9.276879e-01 -9.299171e-01 -9.320839e-01 -9.343404e-01 -9.365285e-01 -9.388060e-01 -9.410094e-01 -9.433013e-01 -9.455139e-01 -9.478131e-01 -9.500283e-01 -9.523276e-01 -9.545385e-01 -9.568304e-01 -9.590299e-01 -9.613065e-01 -9.634872e-01 -9.657408e-01 -9.678951e-01 -9.701175e-01 -9.722378e-01 -9.744208e-01 -9.764992e-01 -9.786346e-01 -9.806632e-01 -9.827429e-01 -9.847138e-01 -9.867296e-01 -9.886351e-01 -9.905789e-01 -9.924111e-01 -9.942752e-01 -9.960265e-01 -9.978033e-01 -9.994662e-01 -1.001148e+00 -1.002716e+00 -1.004296e+00 -1.005761e+00 -1.007233e+00 -1.008589e+00 -1.009946e+00 -1.011188e+00 -1.012424e+00 -1.013545e+00 -1.014656e+00 -1.015651e+00 -1.016631e+00 -1.017495e+00 -1.018341e+00 -1.019071e+00 -1.019778e+00 -1.020369e+00 -1.020936e+00 -1.021386e+00 -1.021809e+00 -1.022115e+00 -1.022393e+00 -1.022554e+00 -1.022685e+00 -1.022701e+00 -1.022685e+00 -1.022554e+00 -1.022393e+00 -1.022115e+00 -1.021809e+00 -1.021386e+00 -1.020936e+00 -1.020369e+00 -1.019778e+00 -1.019071e+00 -1.018341e+00 -1.017495e+00 -1.016631e+00 -1.015651e+00 -1.014656e+00 -1.013545e+00 -1.012424e+00 -1.011188e+00 -1.009946e+00 -1.008589e+00 -1.007233e+00 -1.005761e+00 -1.004296e+00 -1.002716e+00 -1.001148e+00 -9.994662e-01 -9.978033e-01 -9.960265e-01 -9.942752e-01 -9.924111e-01 -9.905789e-01 -9.886351e-01 -9.867296e-01 -9.847138e-01 -9.827429e-01 -9.806632e-01 -9.786346e-01 -9.764992e-01 -9.744208e-01 -9.722378e-01 -9.701175e-01 -9.678951e-01 -9.657408e-01 -9.634872e-01 -9.613065e-01 -9.590299e-01 -9.568304e-01 -9.545385e-01 -9.523276e-01 -9.500283e-01 -9.478131e-01 -9.455139e-01 -9.433013e-01 -9.410094e-01 -9.388060e-01 -9.365285e-01 -9.343404e-01 -9.320839e-01 -9.299171e-01 -9.276879e-01 -9.255480e-01 -9.233519e-01 -9.212440e-01 -9.190868e-01 -9.170157e-01 -9.149023e-01 -9.128723e-01 -9.108076e-01 -9.088228e-01 -9.068110e-01 -9.048751e-01 -9.029201e-01 -9.010362e-01 -8.991416e-01 -8.973126e-01 -8.954815e-01 -8.937099e-01 -8.919450e-01 -8.902331e-01 -8.885366e-01 -8.868862e-01 -8.852603e-01 -8.836730e-01 -8.821193e-01 -8.805963e-01 -8.791161e-01 -8.776585e-01 -8.762528e-01 -8.748615e-01 -8.735311e-01 -8.722066e-01 -8.709521e-01 -8.696948e-01 -8.685165e-01 -8.673267e-01 -8.662246e-01 -8.651025e-01 -8.640765e-01 -8.630222e-01 -8.620721e-01 -8.610854e-01 -8.602108e-01 -8.592917e-01 -8.584922e-01 -8.576405e-01 -8.569155e-01 -8.561310e-01 -8.554798e-01 -8.547623e-01 -8.541844e-01 -8.535337e-01 -8.530282e-01 -8.524443e-01 -8.520106e-01 -8.514932e-01 -8.511305e-01 -8.506796e-01 -8.503873e-01 -8.500028e-01 -8.497802e-01 -8.494621e-01 -8.493087e-01 -8.490571e-01 -8.489723e-01 -8.487874e-01 -8.487705e-01 -8.486526e-01 
-8.163156e-01 -8.162462e-01 -8.163593e-01 -8.163340e-01 -8.164904e-01 -8.165098e-01 -8.167094e-01 -8.167740e-01 -8.170167e-01 -8.171271e-01 -8.174129e-01 -8.175701e-01 -8.178990e-01 -8.181038e-01 -8.184761e-01 -8.187294e-01 -8.191453e-01 -8.194481e-01 -8.199080e-01 -8.202613e-01 -8.207657e-01 -8.211705e-01 -8.217198e-01 -8.221772e-01 -8.227720e-01 -8.232831e-01 -8.239239e-01 -8.244897e-01 -8.251771e-01 -8.257986e-01 -8.265333e-01 -8.272113e-01 -8.279938e-01 -8.287293e-01 -8.295601e-01 -8.303538e-01 -8.312333e-01 -8.320858e-01 -8.330146e-01 -8.339263e-01 -8.349045e-01 -8.358758e-01 -8.369036e-01 -8.379345e-01 -8.390119e-01 -8.401022e-01 -8.412291e-01 -8.423784e-01 -8.435544e-01 -8.447622e-01 -8.459866e-01 -8.472518e-01 -8.485239e-01 -8.498453e-01 -8.511639e-01 -8.525398e-01 -8.539036e-01 -8.553322e-01 -8.567394e-01 -8.582184e-01 -8.596671e-01 -8.611937e-01 -8.626815e-01 -8.642528e-01 -8.657769e-01 -8.673895e-01 -8.689469e-01 -8.705970e-01 -8.721844e-01 -8.738677e-01 -8.754812e-01 -8.771933e-01 -8.788289e-01 -8.805649e-01 -8.822181e-01 -8.839727e-01 -8.856387e-01 -8.874064e-01 -8.890802e-01 -8.908552e-01 -8.925312e-01 -8.943074e-01 -8.959801e-01 -8.977511e-01 -8.994145e-01 -9.011739e-01 -9.028219e-01 -9.045629e-01 -9.061892e-01 -9.079051e-01 -9.095033e-01 -9.111871e-01 -9.127507e-01 -9.143956e-01 -9.159180e-01 -9.175171e-01 -9.189918e-01 -9.205382e-01 -9.219586e-01 -9.234457e-01 -9.248054e-01 -9.262267e-01 -9.275194e-01 -9.288685e-01 -9.300882e-01 -9.313591e-01 -9.324998e-01 -9.336867e-01 -9.347428e-01 -9.358404e-01 -9.368067e-01 -9.378099e-01 -9.386815e-01 -9.395857e-01 -9.403581e-01 -9.411592e-01 -9.418283e-01 -9.425226e-01 -9.430849e-01 -9.436694e-01 -9.441217e-01 -9.445937e-01 -9.449335e-01 -9.452910e-01 -9.455163e-01 -9.457578e-01 -9.458672e-01 -9.459918e-01 -9.459843e-01 -9.459918e-01 -9.458672e-01 -9.457578e-01 -9.455163e-01 -9.452910e-01 -9.449335e-01 -9.445937e-01 -9.441217e-01 -9.436694e-01 -9.430849e-01 -9.425226e-01 -9.418283e-01 -9.411592e-01 -9.403581e-01 -9.395857e-01 -9.386815e-01 -9.378099e-01 -9.368067e-01 -9.358404e-01 -9.347428e-01 -9.336867e-01 -9.324998e-01 -9.313591e-01 -9.300882e-01 -9.288685e-01 -9.275194e-01 -9.262267e-01 -9.248054e-01 -9.234457e-01 -9.219586e-01 -9.205382e-01 -9.189918e-01 -9.175171e-01 -9.159180e-01 -9.143956e-01 -9.127507e-01 -9.111871e-01 -9.095033e-01 -9.079051e-01 -9.061892e-01 -9.045629e-01 -9.028219e-01 -9.011739e-01 -8.994145e-01 -8.977511e-01 -8.959801e-01 -8.943074e-01 -8.925312e-01 -8.908552e-01 -8.890802e-01 -8.874064e-01 -8.856387e-01 -8.839727e-01 -8.822181e-01 -8.805649e-01 -8.788289e-01 -8.771933e-01 -8.754812e-01 -8.738677e-01 -8.721844e-01 -8.705970e-01 -8.689469e-01 -8.673895e-01 -8.657769e-01 -8.642528e-01 -8.626815e-01 -8.611937e-01 -8.596671e-01 -8.582184e-01 -8.567394e-01 -8.553322e-01 -8.539036e-01 -8.525398e-01 -8.511639e-01 -8.498453e-01 -8.485239e-01 -8.472518e-01 -8.459866e-01 -8.447622e-01 -8.435544e-01 -8.423784e-01 -8.412291e-01 -8.401022e-01 -8.390119e-01 -8.379345e-01 -8.369036e-01 -8.358758e-01 -8.349045e-01 -8.339263e-01 -8.330146e-01 -8.320858e-01 -8.312333e-01 -8.303538e-01 -8.295601e-01 -8.287293e-01 -8.279938e-01 -8.272113e-01 -8.265333e-01 -8.257986e-01 -8.251771e-01 -8.244897e-01 -8.239239e-01 -8.232831e-01 -8.227720e-01 -8.221772e-01 -8.217198e-01 -8.211705e-01 -8.207657e-01 -8.202613e-01 -8.199080e-01 -8.194481e-01 -8.191453e-01 -8.187294e-01 -8.184761e-01 -8.181038e-01 -8.178990e-01 -8.175701e-01 -8.174129e-01 -8.171271e-01 -8.170167e-01 -8.167740e-01 -8.167094e-01 -8.165098e-01 -8.164904e-01 -8.163340e-01 -8.163593e-01 -8.162462e-01 