# vtk DataFile Version 2.0
Comment goes here
ASCII

DATASET STRUCTURED_POINTS
FIELD FieldData 1
TIME 1 1 double
0.09000000
DIMENSIONS    256   256   1

ORIGIN    0.000   0.000   0.000
SPACING   0.0039062 0.0039062   1.000

POINT_DATA   65536
SCALARS P double
LOOKUP_TABLE default

-1.875011e-01 -1.874736e-01 -1.875568e-01 -1.875854e-01 -1.877241e-01 -1.878094e-01 -1.880033e-01 -1.881461e-01 -1.883952e-01 -1.885963e-01 -1.889008e-01 -1.891611e-01 -1.895213e-01 -1.898420e-01 -1.902582e-01 -1.906404e-01 -1.911132e-01 -1.915582e-01 -1.920883e-01 -1.925972e-01 -1.931854e-01 -1.937597e-01 -1.944067e-01 -1.950476e-01 -1.957545e-01 -1.964634e-01 -1.972310e-01 -1.980092e-01 -1.988385e-01 -1.996872e-01 -2.005794e-01 -2.014996e-01 -2.024555e-01 -2.034485e-01 -2.044691e-01 -2.055355e-01 -2.066216e-01 -2.077623e-01 -2.089147e-01 -2.101301e-01 -2.113494e-01 -2.126397e-01 -2.139263e-01 -2.152916e-01 -2.166458e-01 -2.180858e-01 -2.195076e-01 -2.210216e-01 -2.225107e-01 -2.240978e-01 -2.256537e-01 -2.273125e-01 -2.289343e-01 -2.306631e-01 -2.323494e-01 -2.341461e-01 -2.358955e-01 -2.377574e-01 -2.395677e-01 -2.414918e-01 -2.433607e-01 -2.453434e-01 -2.472679e-01 -2.493053e-01 -2.512821e-01 -2.533697e-01 -2.553949e-01 -2.575278e-01 -2.595972e-01 -2.617699e-01 -2.638786e-01 -2.660854e-01 -2.682281e-01 -2.704625e-01 -2.726336e-01 -2.748890e-01 -2.770822e-01 -2.793514e-01 -2.815601e-01 -2.838356e-01 -2.860529e-01 -2.883268e-01 -2.905452e-01 -2.928094e-01 -2.950212e-01 -2.972673e-01 -2.994644e-01 -3.016837e-01 -3.038579e-01 -3.060417e-01 -3.081844e-01 -3.103239e-01 -3.124264e-01 -3.145126e-01 -3.165663e-01 -3.185903e-01 -3.205862e-01 -3.225392e-01 -3.244687e-01 -3.263420e-01 -3.281964e-01 -3.299815e-01 -3.317522e-01 -3.334409e-01 -3.351196e-01 -3.367041e-01 -3.382828e-01 -3.397555e-01 -3.412265e-01 -3.425803e-01 -3.439363e-01 -3.451649e-01 -3.463991e-01 -3.474963e-01 -3.486024e-01 -3.495629e-01 -3.505353e-01 -3.513544e-01 -3.521879e-01 -3.528616e-01 -3.535518e-01 -3.540767e-01 -3.546200e-01 -3.549937e-01 -3.553870e-01 -3.556076e-01 -3.558488e-01 -3.559154e-01 -3.560030e-01 -3.559154e-01 -3.558488e-01 -3.556076e-01 -3.553870e-01 -3.549937e-01 -3.546200e-01 -3.540767e-01 -3.535518e-01 -3.528616e-01 -3.521879e-01 -3.513544e-01 -3.505353e-01 -3.495629e-01 -3.486024e-01 -3.474963e-01 -3.463991e-01 -3.451649e-01 -3.439363e-01 -3.425803e-01 -3.412265e-01 -3.397555e-01 -3.382828e-01 -3.367041e-01 -3.351196e-01 -3.334409e-01 -3.317522e-01 -3.299815e-01 -3.281964e-01 -3.263420e-01 -3.244687e-01 -3.225392e-01 -3.205862e-01 -3.185903e-01 -3.165663e-01 -3.145126e-01 -3.124264e-01 -3.103239e-01 -3.081844e-01 -3.060417e-01 -3.038579e-01 -3.016837e-01 -2.994644e-01 -2.972673e-01 -2.950212e-01 -2.928094e-01 -2.905452e-01 -2.883268e-01 -2.860529e-01 -2.838356e-01 -2.815601e-01 -2.793514e-01 -2.770822e-01 -2.748890e-01 -2.726336e-01 -2.704625e-01 -2.682281e-01 -2.660854e-01 -2.638786e-01 -2.617699e-01 -2.595972e-01 -2.575278e-01 -2.553949e-01 -2.533697e-01 -2.512821e-01 -2.493053e-01 -2.472679e-01 -2.453434e-01 -2.433607e-01 -2.414918e-01 -2.395677e-01 -2.377574e-01 -2.358955e-01 -2.341461e-01 -2.323494e-01 -2.306631e-01 -2.289343e-01 -2.273125e-01 -2.256537e-01 -2.240978e-01 -2.225107e-01 -2.210216e-01 -2.195076e-01 -2.180858e-01 -2.166458e-01 -2.152916e-01 -2.139263e-01 -2.126397e-01 -2.113494e-01 -2.101301e-01 -2.089147e-01 -2.077623e-01 -2.066216e-01 -2.055355e-01 -2.044691e-01 -2.034485e-01 -2.024555e-01 -2.014996e-01 -2.005794e-01 -1.996872e-01 -1.988385e-01 -1.980092e-01 -1.972310e-01 -1.964634e-01 -1.957545e-01 -1.950476e-01 -1.944067e-01 -1.937597e-01 -1.931854e-01 -1.925972e-01 -1.920883e-01 -1.915582e-01 -1.911132e-01 -1.906404e-01 -1.902582e-01 -1.898420e-01 -1.895213e-01 -1.891611e-01 -1.889008e-01 -1.885963e-01 -1.883952e-01 -1.881461e-01 -1.880033e-01 -1.878094e-01 -1.877241e-01 -1.875854e-01 -1.875568e-01 -1.874736e-01 
-2.076009e-01 -2.076039e-01 -2.076707e-01 -2.077439e-01 -2.078803e-01 -2.080242e-01 -2.082300e-01 -2.084452e-01 -2.087204e-01 -2.090077e-01 -2.093524e-01 -2.097127e-01 -2.101270e-01 -2.105611e-01 -2.110455e-01 -2.115544e-01 -2.121093e-01 -2.126940e-01 -2.133200e-01 -2.139815e-01 -2.146791e-01 -2.154186e-01 -2.161885e-01 -2.170069e-01 -2.178499e-01 -2.187483e-01 -2.196651e-01 -2.206445e-01 -2.216358e-01 -2.226969e-01 -2.237636e-01 -2.249072e-01 -2.260498e-01 -2.272766e-01 -2.284958e-01 -2.298061e-01 -2.311024e-01 -2.324964e-01 -2.338702e-01 -2.353480e-01 -2.367994e-01 -2.383608e-01 -2.398898e-01 -2.415341e-01 -2.431405e-01 -2.448668e-01 -2.465502e-01 -2.483573e-01 -2.501168e-01 -2.520031e-01 -2.538376e-01 -2.558012e-01 -2.577092e-01 -2.597475e-01 -2.617273e-01 -2.638375e-01 -2.658866e-01 -2.680654e-01 -2.701812e-01 -2.724247e-01 -2.746042e-01 -2.769082e-01 -2.791475e-01 -2.815072e-01 -2.838024e-01 -2.862126e-01 -2.885590e-01 -2.910138e-01 -2.934064e-01 -2.958997e-01 -2.983328e-01 -3.008579e-01 -3.033254e-01 -3.058752e-01 -3.083706e-01 -3.109374e-01 -3.134537e-01 -3.160297e-01 -3.185594e-01 -3.211361e-01 -3.236714e-01 -3.262402e-01 -3.287727e-01 -3.313247e-01 -3.338460e-01 -3.363720e-01 -3.388730e-01 -3.413636e-01 -3.438352e-01 -3.462809e-01 -3.487139e-01 -3.511051e-01 -3.534900e-01 -3.558170e-01 -3.581442e-01 -3.603975e-01 -3.626575e-01 -3.648276e-01 -3.670108e-01 -3.690885e-01 -3.711856e-01 -3.731617e-01 -3.751634e-01 -3.770292e-01 -3.789265e-01 -3.806736e-01 -3.824580e-01 -3.840785e-01 -3.857416e-01 -3.872280e-01 -3.887621e-01 -3.901074e-01 -3.915051e-01 -3.927030e-01 -3.939576e-01 -3.950026e-01 -3.961079e-01 -3.969949e-01 -3.979456e-01 -3.986703e-01 -3.994616e-01 -4.000207e-01 -4.006485e-01 -4.010393e-01 -4.015006e-01 -4.017212e-01 -4.020135e-01 -4.020630e-01 -4.021848e-01 -4.020630e-01 -4.020135e-01 -4.017212e-01 -4.015006e-01 -4.010393e-01 -4.006485e-01 -4.000207e-01 -3.994616e-01 -3.986703e-01 -3.979456e-01 -3.969949e-01 -3.961079e-01 -3.950026e-01 -3.939576e-01 -3.927030e-01 -3.915051e-01 -3.901074e-01 -3.887621e-01 -3.872280e-01 -3.857416e-01 -3.840785e-01 -3.824580e-01 -3.806736e-01 -3.789265e-01 -3.770292e-01 -3.751634e-01 -3.731617e-01 -3.711856e-01 -3.690885e-01 -3.670108e-01 -3.648276e-01 -3.626575e-01 -3.603975e-01 -3.581442e-01 -3.558170e-01 -3.534900e-01 -3.511051e-01 -3.487139e-01 -3.462809e-01 -3.438352e-01 -3.413636e-01 -3.388730e-01 -3.363720e-01 -3.338460e-01 -3.313247e-01 -3.287727e-01 -3.262402e-01 -3.236714e-01 -3.211361e-01 -3.185594e-01 -3.160297e-01 -3.134537e-01 -3.109374e-01 -3.083706e-01 -3.058752e-01 -3.033254e-01 -3.008579e-01 -2.983328e-01 -2.958997e-01 -2.934064e-01 -2.910138e-01 -2.885590e-01 -2.862126e-01 -2.838024e-01 -2.815072e-01 -2.791475e-01 -2.769082e-01 -2.746042e-01 -2.724247e-01 -2.701812e-01 -2.680654e-01 -2.658866e-01 -2.638375e-01 -2.617273e-01 -2.597475e-01 -2.577092e-01 -2.558012e-01 -2.538376e-01 -2.520031e-01 -2.501168e-01 -2.483573e-01 -2.465502e-01 -2.448668e-01 -2.431405e-01 -2.415341e-01 -2.398898e-01 -2.383608e-01 -2.367994e-01 -2.353480e-01 -2.338702e-01 -2.324964e-01 -2.311024e-01 -2.298061e-01 -2.284958e-01 -2.272766e-01 -2.260498e-01 -2.249072e-01 -2.237636e-01 -2.226969e-01 -2.216358e-01 -2.206445e-01 -2.196651e-01 -2.187483e-01 -2.178499e-01 -2.170069e-01 -2.161885e-01 -2.154186e-01 -2.146791e-01 -2.139815e-01 -2.133200e-01 -2.126940e-01 -2.121093e-01 -2.115544e-01 -2.110455e-01 -2.105611e-01 -2.101270e-01 -2.097127e-01 -2.093524e-01 -2.090077e-01 -2.087204e-01 -2.084452e-01 -2.082300e-01 -2.080242e-01 -2.078803e-01 -2.077439e-01 -2.076707e-01 -2.076039e-01 
-2.298049e-01 -2.298278e-01 -2.298911e-01 -2.300007e-01 -2.301499e-01 -2.303465e-01 -2.305816e-01 -2.308658e-01 -2.311867e-01 -2.315592e-01 -2.319658e-01 -2.324274e-01 -2.329200e-01 -2.334713e-01 -2.340501e-01 -2.346920e-01 -2.353574e-01 -2.360907e-01 -2.368431e-01 -2.376687e-01 -2.385085e-01 -2.394272e-01 -2.403549e-01 -2.413675e-01 -2.423837e-01 -2.434910e-01 -2.445961e-01 -2.457987e-01 -2.469933e-01 -2.482918e-01 -2.495763e-01 -2.509709e-01 -2.523457e-01 -2.538368e-01 -2.553022e-01 -2.568897e-01 -2.584458e-01 -2.601295e-01 -2.617762e-01 -2.635557e-01 -2.652928e-01 -2.671673e-01 -2.689943e-01 -2.709626e-01 -2.728789e-01 -2.749395e-01 -2.769440e-01 -2.790951e-01 -2.811864e-01 -2.834258e-01 -2.856022e-01 -2.879271e-01 -2.901866e-01 -2.925938e-01 -2.949338e-01 -2.974198e-01 -2.998372e-01 -3.023978e-01 -3.048893e-01 -3.075199e-01 -3.100815e-01 -3.127770e-01 -3.154042e-01 -3.181589e-01 -3.208468e-01 -3.236545e-01 -3.263976e-01 -3.292516e-01 -3.320438e-01 -3.349371e-01 -3.377719e-01 -3.406965e-01 -3.435669e-01 -3.465148e-01 -3.494131e-01 -3.523758e-01 -3.552940e-01 -3.582623e-01 -3.611919e-01 -3.641565e-01 -3.670885e-01 -3.700397e-01 -3.729647e-01 -3.758924e-01 -3.788008e-01 -3.816947e-01 -3.845765e-01 -3.874262e-01 -3.902710e-01 -3.930660e-01 -3.958634e-01 -3.985929e-01 -4.013324e-01 -4.039857e-01 -4.066567e-01 -4.092232e-01 -4.118149e-01 -4.142842e-01 -4.167861e-01 -4.191478e-01 -4.215495e-01 -4.237936e-01 -4.260848e-01 -4.282018e-01 -4.303726e-01 -4.323530e-01 -4.343938e-01 -4.362290e-01 -4.381307e-01 -4.398124e-01 -4.415663e-01 -4.430870e-01 -4.446850e-01 -4.460376e-01 -4.474723e-01 -4.486506e-01 -4.499152e-01 -4.509138e-01 -4.520023e-01 -4.528165e-01 -4.537237e-01 -4.543497e-01 -4.550712e-01 -4.555060e-01 -4.560384e-01 -4.562800e-01 -4.566205e-01 -4.566680e-01 -4.568149e-01 -4.566680e-01 -4.566205e-01 -4.562800e-01 -4.560384e-01 -4.555060e-01 -4.550712e-01 -4.543497e-01 -4.537237e-01 -4.528165e-01 -4.520023e-01 -4.509138e-01 -4.499152e-01 -4.486506e-01 -4.474723e-01 -4.460376e-01 -4.446850e-01 -4.430870e-01 -4.415663e-01 -4.398124e-01 -4.381307e-01 -4.362290e-01 -4.343938e-01 -4.323530e-01 -4.303726e-01 -4.282018e-01 -4.260848e-01 -4.237936e-01 -4.215495e-01 -4.191478e-01 -4.167861e-01 -4.142842e-01 -4.118149e-01 -4.092232e-01 -4.066567e-01 -4.039857e-01 -4.013324e-01 -3.985929e-01 -3.958634e-01 -3.930660e-01 -3.902710e-01 -3.874262e-01 -3.845765e-01 -3.816947e-01 -3.788008e-01 -3.758924e-01 -3.729647e-01 -3.700397e-01 -3.670885e-01 -3.641565e-01 -3.611919e-01 -3.582623e-01 -3.552940e-01 -3.523758e-01 -3.494131e-01 -3.465148e-01 -3.435669e-01 -3.406965e-01 -3.377719e-01 -3.349371e-01 -3.320438e-01 -3.292516e-01 -3.263976e-01 -3.236545e-01 -3.208468e-01 -3.181589e-01 -3.154042e-01 -3.127770e-01 -3.100815e-01 -3.075199e-01 -3.048893e-01 -3.023978e-01 -2.998372e-01 -2.974198e-01 -2.949338e-01 -2.925938e-01 -2.901866e-01 -2.879271e-01 -2.856022e-01 -2.834258e-01 -2.811864e-01 -2.790951e-01 -2.769440e-01 -2.749395e-01 -2.728789e-01 -2.709626e-01 -2.689943e-01 -2.671673e-01 -2.652928e-01 -2.635557e-01 -2.617762e-01 -2.601295e-01 -2.584458e-01 -2.568897e-01 -2.553022e-01 -2.538368e-01 -2.523457e-01 -2.509709e-01 -2.495763e-01 -2.482918e-01 -2.469933e-01 -2.457987e-01 -2.445961e-01 -2.434910e-01 -2.423837e-01 -2.413675e-01 -2.403549e-01 -2.394272e-01 -2.385085e-01 -2.376687e-01 -2.368431e-01 -2.360907e-01 -2.353574e-01 -2.346920e-01 -2.340501e-01 -2.334713e-01 -2.329200e-01 -2.324274e-01 -2.319658e-01 -2.315592e-01 -2.311867e-01 -2.308658e-01 -2.305816e-01 -2.303465e-01 -2.301499e-01 -2.300007e-01 -2.298911e-01 -2.298278e-01 
-2.498481e-01 -2.499014e-01 -2.499485e-01 -2.501026e-01 -2.502499e-01 -2.505052e-01 -2.507525e-01 -2.511093e-01 -2.514566e-01 -2.519156e-01 -2.523630e-01 -2.529247e-01 -2.534721e-01 -2.541372e-01 -2.547849e-01 -2.555539e-01 -2.563021e-01 -2.571758e-01 -2.580248e-01 -2.590037e-01 -2.599538e-01 -2.610385e-01 -2.620900e-01 -2.632810e-01 -2.644343e-01 -2.657321e-01 -2.669875e-01 -2.683924e-01 -2.697500e-01 -2.712621e-01 -2.727223e-01 -2.743417e-01 -2.759044e-01 -2.776308e-01 -2.792960e-01 -2.811290e-01 -2.828966e-01 -2.848354e-01 -2.867048e-01 -2.887486e-01 -2.907193e-01 -2.928665e-01 -2.949376e-01 -2.971867e-01 -2.993569e-01 -3.017059e-01 -3.039737e-01 -3.064200e-01 -3.087835e-01 -3.113243e-01 -3.137813e-01 -3.164131e-01 -3.189608e-01 -3.216799e-01 -3.243152e-01 -3.271171e-01 -3.298364e-01 -3.327163e-01 -3.355154e-01 -3.384680e-01 -3.413422e-01 -3.443615e-01 -3.473058e-01 -3.503854e-01 -3.533939e-01 -3.565268e-01 -3.595934e-01 -3.627720e-01 -3.658898e-01 -3.691062e-01 -3.722677e-01 -3.755134e-01 -3.787109e-01 -3.819768e-01 -3.852019e-01 -3.884786e-01 -3.917222e-01 -3.949999e-01 -3.982528e-01 -4.015212e-01 -4.047735e-01 -4.080221e-01 -4.112636e-01 -4.144816e-01 -4.177017e-01 -4.208779e-01 -4.240658e-01 -4.271891e-01 -4.303337e-01 -4.333926e-01 -4.364826e-01 -4.394658e-01 -4.424898e-01 -4.453859e-01 -4.483325e-01 -4.511302e-01 -4.539879e-01 -4.566761e-01 -4.594336e-01 -4.620013e-01 -4.646475e-01 -4.670842e-01 -4.696081e-01 -4.719036e-01 -4.742946e-01 -4.764391e-01 -4.786871e-01 -4.806712e-01 -4.827665e-01 -4.845817e-01 -4.865150e-01 -4.881533e-01 -4.899160e-01 -4.913701e-01 -4.929544e-01 -4.942177e-01 -4.956164e-01 -4.966833e-01 -4.978899e-01 -4.987555e-01 -4.997645e-01 -5.004248e-01 -5.012316e-01 -5.016837e-01 -5.022845e-01 -5.025262e-01 -5.029181e-01 -5.029484e-01 -5.031297e-01 -5.029484e-01 -5.029181e-01 -5.025262e-01 -5.022845e-01 -5.016837e-01 -5.012316e-01 -5.004248e-01 -4.997645e-01 -4.987555e-01 -4.978899e-01 -4.966833e-01 -4.956164e-01 -4.942177e-01 -4.929544e-01 -4.913701e-01 -4.899160e-01 -4.881533e-01 -4.865150e-01 -4.845817e-01 -4.827665e-01 -4.806712e-01 -4.786871e-01 -4.764391e-01 -4.742946e-01 -4.719036e-01 -4.696081e-01 -4.670842e-01 -4.646475e-01 -4.620013e-01 -4.594336e-01 -4.566761e-01 -4.539879e-01 -4.511302e-01 -4.483325e-01 -4.453859e-01 -4.424898e-01 -4.394658e-01 -4.364826e-01 -4.333926e-01 -4.303337e-01 -4.271891e-01 -4.240658e-01 -4.208779e-01 -4.177017e-01 -4.144816e-01 -4.112636e-01 -4.080221e-01 -4.047735e-01 -4.015212e-01 -3.982528e-01 -3.949999e-01 -3.917222e-01 -3.884786e-01 -3.852019e-01 -3.819768e-01 -3.787109e-01 -3.755134e-01 -3.722677e-01 -3.691062e-01 -3.658898e-01 -3.627720e-01 -3.595934e-01 -3.565268e-01 -3.533939e-01 -3.503854e-01 -3.473058e-01 -3.443615e-01 -3.413422e-01 -3.384680e-01 -3.355154e-01 -3.327163e-01 -3.298364e-01 -3.271171e-01 -3.243152e-01 -3.216799e-01 -3.189608e-01 -3.164131e-01 -3.137813e-01 -3.113243e-01 -3.087835e-01 -3.064200e-01 -3.039737e-01 -3.017059e-01 -2.993569e-01 -2.971867e-01 -2.949376e-01 -2.928665e-01 -2.907193e-01 -2.887486e-01 -2.867048e-01 -2.848354e-01 -2.828966e-01 -2.811290e-01 -2.792960e-01 -2.776308e-01 -2.759044e-01 -2.743417e-01 -2.727223e-01 -2.712621e-01 -2.697500e-01 -2.683924e-01 -2.669875e-01 -2.657321e-01 -2.644343e-01 -2.632810e-01 -2.620900e-01 -2.610385e-01 -2.599538e-01 -2.590037e-01 -2.580248e-01 -2.571758e-01 -2.563021e-01 -2.555539e-01 -2.547849e-01 -2.541372e-01 -2.534721e-01 -2.529247e-01 -2.523630e-01 -2.519156e-01 -2.514566e-01 -2.511093e-01 -2.507525e-01 -2.505052e-01 -2.502499e-01 -2.501026e-01 -2.499485e-01 -2.499014e-01 
-2.719377e-01 -2.720108e-01 -2.720546e-01 -2.722449e-01 -2.724055e-01 -2.727134e-01 -2.729904e-01 -2.734163e-01 -2.738098e-01 -2.743541e-01 -2.748641e-01 -2.755273e-01 -2.761536e-01 -2.769363e-01 -2.776791e-01 -2.785816e-01 -2.794412e-01 -2.804640e-01 -2.814403e-01 -2.825840e-01 -2.836772e-01 -2.849420e-01 -2.861524e-01 -2.875386e-01 -2.888662e-01 -2.903740e-01 -2.918189e-01 -2.934483e-01 -2.950105e-01 -2.967614e-01 -2.984408e-01 -3.003127e-01 -3.021092e-01 -3.041016e-01 -3.060146e-01 -3.081267e-01 -3.101557e-01 -3.123863e-01 -3.145305e-01 -3.168781e-01 -3.191365e-01 -3.215992e-01 -3.239704e-01 -3.265461e-01 -3.290284e-01 -3.317144e-01 -3.343057e-01 -3.370989e-01 -3.397968e-01 -3.426936e-01 -3.454953e-01 -3.484917e-01 -3.513937e-01 -3.544852e-01 -3.574837e-01 -3.606651e-01 -3.637558e-01 -3.670215e-01 -3.701995e-01 -3.735432e-01 -3.768031e-01 -3.802181e-01 -3.835539e-01 -3.870329e-01 -3.904379e-01 -3.939729e-01 -3.974401e-01 -4.010227e-01 -4.045443e-01 -4.081654e-01 -4.117331e-01 -4.153833e-01 -4.189881e-01 -4.226573e-01 -4.262898e-01 -4.299676e-01 -4.336179e-01 -4.372933e-01 -4.409509e-01 -4.446126e-01 -4.482666e-01 -4.519031e-01 -4.555421e-01 -4.591413e-01 -4.627537e-01 -4.663034e-01 -4.698773e-01 -4.733652e-01 -4.768882e-01 -4.803018e-01 -4.837616e-01 -4.870885e-01 -4.904724e-01 -4.937001e-01 -4.969957e-01 -5.001118e-01 -5.033065e-01 -5.062988e-01 -5.093801e-01 -5.122368e-01 -5.151926e-01 -5.179020e-01 -5.207202e-01 -5.232713e-01 -5.259404e-01 -5.283224e-01 -5.308312e-01 -5.330341e-01 -5.353720e-01 -5.373863e-01 -5.395432e-01 -5.413602e-01 -5.433268e-01 -5.449385e-01 -5.467061e-01 -5.481054e-01 -5.496662e-01 -5.508469e-01 -5.521939e-01 -5.531507e-01 -5.542779e-01 -5.550063e-01 -5.559086e-01 -5.564055e-01 -5.570787e-01 -5.573419e-01 -5.577829e-01 -5.578111e-01 -5.580180e-01 -5.578111e-01 -5.577829e-01 -5.573419e-01 -5.570787e-01 -5.564055e-01 -5.559086e-01 -5.550063e-01 -5.542779e-01 -5.531507e-01 -5.521939e-01 -5.508469e-01 -5.496662e-01 -5.481054e-01 -5.467061e-01 -5.449385e-01 -5.433268e-01 -5.413602e-01 -5.395432e-01 -5.373863e-01 -5.353720e-01 -5.330341e-01 -5.308312e-01 -5.283224e-01 -5.259404e-01 -5.232713e-01 -5.207202e-01 -5.179020e-01 -5.151926e-01 -5.122368e-01 -5.093801e-01 -5.062988e-01 -5.033065e-01 -5.001118e-01 -4.969957e-01 -4.937001e-01 -4.904724e-01 -4.870885e-01 -4.837616e-01 -4.803018e-01 -4.768882e-01 -4.733652e-01 -4.698773e-01 -4.663034e-01 -4.627537e-01 -4.591413e-01 -4.555421e-01 -4.519031e-01 -4.482666e-01 -4.446126e-01 -4.409509e-01 -4.372933e-01 -4.336179e-01 -4.299676e-01 -4.262898e-01 -4.226573e-01 -4.189881e-01 -4.153833e-01 -4.117331e-01 -4.081654e-01 -4.045443e-01 -4.010227e-01 -3.974401e-01 -3.939729e-01 -3.904379e-01 -3.870329e-01 -3.835539e-01 -3.802181e-01 -3.768031e-01 -3.735432e-01 -3.701995e-01 -3.670215e-01 -3.637558e-01 -3.606651e-01 -3.574837e-01 -3.544852e-01 -3.513937e-01 -3.484917e-01 -3.454953e-01 -3.426936e-01 -3.397968e-01 -3.370989e-01 -3.343057e-01 -3.317144e-01 -3.290284e-01 -3.265461e-01 -3.239704e-01 -3.215992e-01 -3.191365e-01 -3.168781e-01 -3.145305e-01 -3.123863e-01 -3.101557e-01 -3.081267e-01 -3.060146e-01 -3.041016e-01 -3.021092e-01 -3.003127e-01 -2.984408e-01 -2.967614e-01 -2.950105e-01 -2.934483e-01 -2.918189e-01 -2.903740e-01 -2.888662e-01 -2.875386e-01 -2.861524e-01 -2.849420e-01 -2.836772e-01 -2.825840e-01 -2.814403e-01 -2.804640e-01 -2.794412e-01 -2.785816e-01 -2.776791e-01 -2.769363e-01 -2.761536e-01 -2.755273e-01 -2.748641e-01 -2.743541e-01 -2.738098e-01 -2.734163e-01 -2.729904e-01 -2.727134e-01 -2.724055e-01 -2.722449e-01 -2.720546e-01 -2.720108e-01 
-2.918967e-01 -2.920002e-01 -2.920279e-01 -2.922629e-01 -2.924216e-01 -2.927883e-01 -2.930780e-01 -2.935768e-01 -2.939972e-01 -2.946284e-01 -2.951795e-01 -2.959434e-01 -2.966252e-01 -2.975222e-01 -2.983346e-01 -2.993651e-01 -3.003082e-01 -3.014723e-01 -3.025461e-01 -3.038440e-01 -3.050486e-01 -3.064805e-01 -3.078157e-01 -3.093816e-01 -3.108475e-01 -3.125471e-01 -3.141435e-01 -3.159767e-01 -3.177034e-01 -3.196695e-01 -3.215261e-01 -3.236244e-01 -3.256104e-01 -3.278399e-01 -3.299546e-01 -3.323140e-01 -3.345564e-01 -3.370441e-01 -3.394130e-01 -3.420270e-01 -3.445211e-01 -3.472590e-01 -3.498763e-01 -3.527353e-01 -3.554737e-01 -3.584506e-01 -3.613076e-01 -3.643987e-01 -3.673712e-01 -3.705723e-01 -3.736569e-01 -3.769632e-01 -3.801561e-01 -3.835624e-01 -3.868589e-01 -3.903594e-01 -3.937546e-01 -3.973428e-01 -4.008313e-01 -4.045003e-01 -4.080758e-01 -4.118179e-01 -4.154738e-01 -4.192810e-01 -4.230098e-01 -4.268733e-01 -4.306671e-01 -4.345777e-01 -4.384280e-01 -4.423758e-01 -4.462734e-01 -4.502481e-01 -4.541832e-01 -4.581739e-01 -4.621364e-01 -4.661317e-01 -4.701107e-01 -4.740988e-01 -4.780830e-01 -4.820519e-01 -4.860294e-01 -4.899666e-01 -4.939253e-01 -4.978179e-01 -5.017452e-01 -5.055804e-01 -5.094635e-01 -5.132280e-01 -5.170538e-01 -5.207345e-01 -5.244897e-01 -5.280732e-01 -5.317445e-01 -5.352177e-01 -5.387917e-01 -5.421416e-01 -5.456049e-01 -5.488186e-01 -5.521581e-01 -5.552231e-01 -5.584258e-01 -5.613299e-01 -5.643832e-01 -5.671147e-01 -5.700063e-01 -5.725540e-01 -5.752722e-01 -5.776256e-01 -5.801591e-01 -5.823082e-01 -5.846464e-01 -5.865823e-01 -5.887153e-01 -5.904295e-01 -5.923482e-01 -5.938334e-01 -5.955296e-01 -5.967793e-01 -5.982456e-01 -5.992543e-01 -6.004843e-01 -6.012475e-01 -6.022359e-01 -6.027502e-01 -6.034926e-01 -6.037557e-01 -6.042488e-01 -6.042596e-01 -6.045013e-01 -6.042596e-01 -6.042488e-01 -6.037557e-01 -6.034926e-01 -6.027502e-01 -6.022359e-01 -6.012475e-01 -6.004843e-01 -5.992543e-01 -5.982456e-01 -5.967793e-01 -5.955296e-01 -5.938334e-01 -5.923482e-01 -5.904295e-01 -5.887153e-01 -5.865823e-01 -5.846464e-01 -5.823082e-01 -5.801591e-01 -5.776256e-01 -5.752722e-01 -5.725540e-01 -5.700063e-01 -5.671147e-01 -5.643832e-01 -5.613299e-01 -5.584258e-01 -5.552231e-01 -5.521581e-01 -5.488186e-01 -5.456049e-01 -5.421416e-01 -5.387917e-01 -5.352177e-01 -5.317445e-01 -5.280732e-01 -5.244897e-01 -5.207345e-01 -5.170538e-01 -5.132280e-01 -5.094635e-01 -5.055804e-01 -5.017452e-01 -4.978179e-01 -4.939253e-01 -4.899666e-01 -4.860294e-01 -4.820519e-01 -4.780830e-01 -4.740988e-01 -4.701107e-01 -4.661317e-01 -4.621364e-01 -4.581739e-01 -4.541832e-01 -4.502481e-01 -4.462734e-01 -4.423758e-01 -4.384280e-01 -4.345777e-01 -4.306671e-01 -4.268733e-01 -4.230098e-01 -4.192810e-01 -4.154738e-01 -4.118179e-01 -4.080758e-01 -4.045003e-01 -4.008313e-01 -3.973428e-01 -3.937546e-01 -3.903594e-01 -3.868589e-01 -3.835624e-01 -3.801561e-01 -3.769632e-01 -3.736569e-01 -3.705723e-01 -3.673712e-01 -3.643987e-01 -3.613076e-01 -3.584506e-01 -3.554737e-01 -3.527353e-01 -3.498763e-01 -3.472590e-01 -3.445211e-01 -3.420270e-01 -3.394130e-01 -3.370441e-01 -3.345564e-01 -3.323140e-01 -3.299546e-01 -3.278399e-01 -3.256104e-01 -3.236244e-01 -3.215261e-01 -3.196695e-01 -3.177034e-01 -3.159767e-01 -3.141435e-01 -3.125471e-01 -3.108475e-01 -3.093816e-01 -3.078157e-01 -3.064805e-01 -3.050486e-01 -3.038440e-01 -3.025461e-01 -3.014723e-01 -3.003082e-01 -2.993651e-01 -2.983346e-01 -2.975222e-01 -2.966252e-01 -2.959434e-01 -2.951795e-01 -2.946284e-01 -2.939972e-01 -2.935768e-01 -2.930780e-01 -2.927883e-01 -2.924216e-01 -2.922629e-01 -2.920279e-01 -2.920002e-01 
-3.138397e-01 -3.139627e-01 -3.139875e-01 -3.142586e-01 -3.144310e-01 -3.148504e-01 -3.151703e-01 -3.157382e-01 -3.162054e-01 -3.169222e-01 -3.175365e-01 -3.184024e-01 -3.191638e-01 -3.201789e-01 -3.210874e-01 -3.222519e-01 -3.233073e-01 -3.246213e-01 -3.258235e-01 -3.272871e-01 -3.286360e-01 -3.302490e-01 -3.317444e-01 -3.335066e-01 -3.351483e-01 -3.370593e-01 -3.388468e-01 -3.409059e-01 -3.428388e-01 -3.450453e-01 -3.471230e-01 -3.494758e-01 -3.516973e-01 -3.541950e-01 -3.565594e-01 -3.592002e-01 -3.617063e-01 -3.644881e-01 -3.671342e-01 -3.700547e-01 -3.728390e-01 -3.758952e-01 -3.788153e-01 -3.820039e-01 -3.850573e-01 -3.883745e-01 -3.915580e-01 -3.949995e-01 -3.983096e-01 -4.018705e-01 -4.053032e-01 -4.089781e-01 -4.125287e-01 -4.163116e-01 -4.199752e-01 -4.238595e-01 -4.276302e-01 -4.316088e-01 -4.354803e-01 -4.395453e-01 -4.435108e-01 -4.476537e-01 -4.517056e-01 -4.559175e-01 -4.600476e-01 -4.643187e-01 -4.685182e-01 -4.728384e-01 -4.770976e-01 -4.814560e-01 -4.857650e-01 -4.901502e-01 -4.944982e-01 -4.988984e-01 -5.032740e-01 -5.076767e-01 -5.120682e-01 -5.164604e-01 -5.208553e-01 -5.252240e-01 -5.296094e-01 -5.339409e-01 -5.383034e-01 -5.425838e-01 -5.469099e-01 -5.511251e-01 -5.554005e-01 -5.595363e-01 -5.637469e-01 -5.677888e-01 -5.719203e-01 -5.758539e-01 -5.798916e-01 -5.837027e-01 -5.876321e-01 -5.913066e-01 -5.951132e-01 -5.986371e-01 -6.023066e-01 -6.056664e-01 -6.091847e-01 -6.123672e-01 -6.157206e-01 -6.187131e-01 -6.218883e-01 -6.246787e-01 -6.276630e-01 -6.302398e-01 -6.330210e-01 -6.353736e-01 -6.379401e-01 -6.400586e-01 -6.423998e-01 -6.442752e-01 -6.463812e-01 -6.480054e-01 -6.498673e-01 -6.512333e-01 -6.528431e-01 -6.539450e-01 -6.552957e-01 -6.561288e-01 -6.572146e-01 -6.577750e-01 -6.585913e-01 -6.588765e-01 -6.594197e-01 -6.594285e-01 -6.596962e-01 -6.594285e-01 -6.594197e-01 -6.588765e-01 -6.585913e-01 -6.577750e-01 -6.572146e-01 -6.561288e-01 -6.552957e-01 -6.539450e-01 -6.528431e-01 -6.512333e-01 -6.498673e-01 -6.480054e-01 -6.463812e-01 -6.442752e-01 -6.423998e-01 -6.400586e-01 -6.379401e-01 -6.353736e-01 -6.330210e-01 -6.302398e-01 -6.276630e-01 -6.246787e-01 -6.218883e-01 -6.187131e-01 -6.157206e-01 -6.123672e-01 -6.091847e-01 -6.056664e-01 -6.023066e-01 -5.986371e-01 -5.951132e-01 -5.913066e-01 -5.876321e-01 -5.837027e-01 -5.798916e-01 -5.758539e-01 -5.719203e-01 -5.677888e-01 -5.637469e-01 -5.595363e-01 -5.554005e-01 -5.511251e-01 -5.469099e-01 -5.425838e-01 -5.383034e-01 -5.339409e-01 -5.296094e-01 -5.252240e-01 -5.208553e-01 -5.164604e-01 -5.120682e-01 -5.076767e-01 -5.032740e-01 -4.988984e-01 -4.944982e-01 -4.901502e-01 -4.857650e-01 -4.814560e-01 -4.770976e-01 -4.728384e-01 -4.685182e-01 -4.643187e-01 -4.600476e-01 -4.559175e-01 -4.517056e-01 -4.476537e-01 -4.435108e-01 -4.395453e-01 -4.354803e-01 -4.316088e-01 -4.276302e-01 -4.238595e-01 -4.199752e-01 -4.163116e-01 -4.125287e-01 -4.089781e-01 -4.053032e-01 -4.018705e-01 -3.983096e-01 -3.949995e-01 -3.915580e-01 -3.883745e-01 -3.850573e-01 -3.820039e-01 -3.788153e-01 -3.758952e-01 -3.728390e-01 -3.700547e-01 -3.671342e-01 -3.644881e-01 -3.617063e-01 -3.592002e-01 -3.565594e-01 -3.541950e-01 -3.516973e-01 -3.494758e-01 -3.471230e-01 -3.450453e-01 -3.428388e-01 -3.409059e-01 -3.388468e-01 -3.370593e-01 -3.351483e-01 -3.335066e-01 -3.317444e-01 -3.302490e-01 -3.286360e-01 -3.272871e-01 -3.258235e-01 -3.246213e-01 -3.233073e-01 -3.222519e-01 -3.210874e-01 -3.201789e-01 -3.191638e-01 -3.184024e-01 -3.175365e-01 -3.169222e-01 -3.162054e-01 -3.157382e-01 -3.151703e-01 -3.148504e-01 -3.144310e-01 -3.142586e-01 -3.139875e-01 -3.139627e-01 
-3.336868e-01 -3.338402e-01 -3.338490e-01 -3.341649e-01 -3.343358e-01 -3.348143e-01 -3.351471e-01 -3.357883e-01 -3.362829e-01 -3.370870e-01 -3.377432e-01 -3.387104e-01 -3.395279e-01 -3.406582e-01 -3.416371e-01 -3.429304e-01 -3.440704e-01 -3.455267e-01 -3.468275e-01 -3.484466e-01 -3.499079e-01 -3.516894e-01 -3.533110e-01 -3.552544e-01 -3.570357e-01 -3.591403e-01 -3.610808e-01 -3.633456e-01 -3.654446e-01 -3.678684e-01 -3.701249e-01 -3.727063e-01 -3.751193e-01 -3.778564e-01 -3.804245e-01 -3.833151e-01 -3.860367e-01 -3.890784e-01 -3.919514e-01 -3.951412e-01 -3.981634e-01 -4.014978e-01 -4.046665e-01 -4.081417e-01 -4.114538e-01 -4.150652e-01 -4.185171e-01 -4.222600e-01 -4.258476e-01 -4.297163e-01 -4.334350e-01 -4.374235e-01 -4.412681e-01 -4.453697e-01 -4.493346e-01 -4.535418e-01 -4.576205e-01 -4.619256e-01 -4.661112e-01 -4.705055e-01 -4.747902e-01 -4.792645e-01 -4.836401e-01 -4.881845e-01 -4.926421e-01 -4.972461e-01 -5.017760e-01 -5.064286e-01 -5.110205e-01 -5.157099e-01 -5.203529e-01 -5.250669e-01 -5.297493e-01 -5.344752e-01 -5.391850e-01 -5.439094e-01 -5.486337e-01 -5.533430e-01 -5.580685e-01 -5.627486e-01 -5.674616e-01 -5.720980e-01 -5.767842e-01 -5.813622e-01 -5.860071e-01 -5.905117e-01 -5.951004e-01 -5.995165e-01 -6.040339e-01 -6.083465e-01 -6.127772e-01 -6.169710e-01 -6.212998e-01 -6.253599e-01 -6.295713e-01 -6.334827e-01 -6.375615e-01 -6.413098e-01 -6.452408e-01 -6.488117e-01 -6.525802e-01 -6.559600e-01 -6.595515e-01 -6.627269e-01 -6.661275e-01 -6.690858e-01 -6.722821e-01 -6.750115e-01 -6.779907e-01 -6.804800e-01 -6.832301e-01 -6.854691e-01 -6.879788e-01 -6.899580e-01 -6.922170e-01 -6.939283e-01 -6.959273e-01 -6.973633e-01 -6.990938e-01 -7.002484e-01 -7.017032e-01 -7.025714e-01 -7.037445e-01 -7.043225e-01 -7.052088e-01 -7.054940e-01 -7.060899e-01 -7.060811e-01 -7.063840e-01 -7.060811e-01 -7.060899e-01 -7.054940e-01 -7.052088e-01 -7.043225e-01 -7.037445e-01 -7.025714e-01 -7.017032e-01 -7.002484e-01 -6.990938e-01 -6.973633e-01 -6.959273e-01 -6.939283e-01 -6.922170e-01 -6.899580e-01 -6.879788e-01 -6.854691e-01 -6.832301e-01 -6.804800e-01 -6.779907e-01 -6.750115e-01 -6.722821e-01 -6.690858e-01 -6.661275e-01 -6.627269e-01 -6.595515e-01 -6.559600e-01 -6.525802e-01 -6.488117e-01 -6.452408e-01 -6.413098e-01 -6.375615e-01 -6.334827e-01 -6.295713e-01 -6.253599e-01 -6.212998e-01 -6.169710e-01 -6.127772e-01 -6.083465e-01 -6.040339e-01 -5.995165e-01 -5.951004e-01 -5.905117e-01 -5.860071e-01 -5.813622e-01 -5.767842e-01 -5.720980e-01 -5.674616e-01 -5.627486e-01 -5.580685e-01 -5.533430e-01 -5.486337e-01 -5.439094e-01 -5.391850e-01 -5.344752e-01 -5.297493e-01 -5.250669e-01 -5.203529e-01 -5.157099e-01 -5.110205e-01 -5.064286e-01 -5.017760e-01 -4.972461e-01 -4.926421e-01 -4.881845e-01 -4.836401e-01 -4.792645e-01 -4.747902e-01 -4.705055e-01 -4.661112e-01 -4.619256e-01 -4.576205e-01 -4.535418e-01 -4.493346e-01 -4.453697e-01 -4.412681e-01 -4.374235e-01 -4.334350e-01 -4.297163e-01 -4.258476e-01 -4.222600e-01 -4.185171e-01 -4.150652e-01 -4.114538e-01 -4.081417e-01 -4.046665e-01 -4.014978e-01 -3.981634e-01 -3.951412e-01 -3.919514e-01 -3.890784e-01 -3.860367e-01 -3.833151e-01 -3.804245e-01 -3.778564e-01 -3.751193e-01 -3.727063e-01 -3.701249e-01 -3.678684e-01 -3.654446e-01 -3.633456e-01 -3.610808e-01 -3.591403e-01 -3.570357e-01 -3.552544e-01 -3.533110e-01 -3.516894e-01 -3.499079e-01 -3.484466e-01 -3.468275e-01 -3.455267e-01 -3.440704e-01 -3.429304e-01 -3.416371e-01 -3.406582e-01 -3.395279e-01 -3.387104e-01 -3.377432e-01 -3.370870e-01 -3.362829e-01 -3.357883e-01 -3.351471e-01 -3.348143e-01 -3.343358e-01 -3.341649e-01 -3.338490e-01 -3.338402e-01 