# vtk DataFile Version 2.0
Comment goes here
ASCII

DATASET STRUCTURED_POINTS
FIELD FieldData 1
TIME 1 1 double
0.05000000
DIMENSIONS    256   256   1

ORIGIN    0.000   0.000   0.000
SPACING   0.0039062 0.0039062   1.000

POINT_DATA   65536
SCALARS P double
LOOKUP_TABLE default

3.422478e-01 3.423120e-01 3.423035e-01 3.424231e-01 3.424706e-01 3.426447e-01 3.427481e-01 3.429756e-01 3.431345e-01 3.434141e-01 3.436277e-01 3.439579e-01 3.442252e-01 3.446041e-01 3.449238e-01 3.453492e-01 3.457197e-01 3.461892e-01 3.466088e-01 3.471199e-01 3.475863e-01 3.481361e-01 3.486470e-01 3.492326e-01 3.497853e-01 3.504034e-01 3.509951e-01 3.516425e-01 3.522701e-01 3.529433e-01 3.536035e-01 3.542989e-01 3.549883e-01 3.557022e-01 3.564172e-01 3.571459e-01 3.578828e-01 3.586225e-01 3.593774e-01 3.601244e-01 3.608935e-01 3.616440e-01 3.624233e-01 3.631735e-01 3.639591e-01 3.647053e-01 3.654932e-01 3.662320e-01 3.670183e-01 3.677461e-01 3.685271e-01 3.692406e-01 3.700124e-01 3.707086e-01 3.714677e-01 3.721435e-01 3.728865e-01 3.735394e-01 3.742630e-01 3.748903e-01 3.755916e-01 3.761912e-01 3.768673e-01 3.774373e-01 3.780858e-01 3.786245e-01 3.792431e-01 3.797492e-01 3.803360e-01 3.808085e-01 3.813619e-01 3.817999e-01 3.823186e-01 3.827219e-01 3.832049e-01 3.835733e-01 3.840200e-01 3.843537e-01 3.847639e-01 3.850633e-01 3.854370e-01 3.857030e-01 3.860405e-01 3.862742e-01 3.865761e-01 3.867787e-01 3.870460e-01 3.872192e-01 3.874531e-01 3.875984e-01 3.878004e-01 3.879199e-01 3.880917e-01 3.881874e-01 3.883309e-01 3.884049e-01 3.885222e-01 3.885768e-01 3.886700e-01 3.887076e-01 3.887791e-01 3.888020e-01 3.888542e-01 3.888647e-01 3.889001e-01 3.889005e-01 3.889214e-01 3.889139e-01 3.889229e-01 3.889097e-01 3.889089e-01 3.888920e-01 3.888838e-01 3.888650e-01 3.888515e-01 3.888325e-01 3.888157e-01 3.887978e-01 3.887797e-01 3.887642e-01 3.887461e-01 3.887340e-01 3.887175e-01 3.887095e-01 3.886958e-01 3.886923e-01 3.886821e-01 3.886834e-01 3.886775e-01 3.886834e-01 3.886821e-01 3.886923e-01 3.886958e-01 3.887095e-01 3.887175e-01 3.887340e-01 3.887461e-01 3.887642e-01 3.887797e-01 3.887978e-01 3.888157e-01 3.888325e-01 3.888515e-01 3.888650e-01 3.888838e-01 3.888920e-01 3.889089e-01 3.889097e-01 3.889229e-01 3.889139e-01 3.889214e-01 3.889005e-01 3.889001e-01 3.888647e-01 3.888542e-01 3.888020e-01 3.887791e-01 3.887076e-01 3.886700e-01 3.885768e-01 3.885222e-01 3.884049e-01 3.883309e-01 3.881874e-01 3.880917e-01 3.879199e-01 3.878004e-01 3.875984e-01 3.874531e-01 3.872192e-01 3.870460e-01 3.867787e-01 3.865761e-01 3.862742e-01 3.860405e-01 3.857030e-01 3.854370e-01 3.850633e-01 3.847639e-01 3.843537e-01 3.840200e-01 3.835733e-01 3.832049e-01 3.827219e-01 3.823186e-01 3.817999e-01 3.813619e-01 3.808085e-01 3.803360e-01 3.797492e-01 3.792431e-01 3.786245e-01 3.780858e-01 3.774373e-01 3.768673e-01 3.761912e-01 3.755916e-01 3.748903e-01 3.742630e-01 3.735394e-01 3.728865e-01 3.721435e-01 3.714677e-01 3.707086e-01 3.700124e-01 3.692406e-01 3.685271e-01 3.677461e-01 3.670183e-01 3.662320e-01 3.654932e-01 3.647053e-01 3.639591e-01 3.631735e-01 3.624233e-01 3.616440e-01 3.608935e-01 3.601244e-01 3.593774e-01 3.586225e-01 3.578828e-01 3.571459e-01 3.564172e-01 3.557022e-01 3.549883e-01 3.542989e-01 3.536035e-01 3.529433e-01 3.522701e-01 3.516425e-01 3.509951e-01 3.504034e-01 3.497853e-01 3.492326e-01 3.486470e-01 3.481361e-01 3.475863e-01 3.471199e-01 3.466088e-01 3.461892e-01 3.457197e-01 3.453492e-01 3.449238e-01 3.446041e-01 3.442252e-01 3.439579e-01 3.436277e-01 3.434141e-01 3.431345e-01 3.429756e-01 3.427481e-01 3.426447e-01 3.424706e-01 3.424231e-01 3.423035e-01 3.423120e-01 
3.516421e-01 3.517545e-01 3.517038e-01 3.518772e-01 3.518885e-01 3.521222e-01 3.521953e-01 3.524880e-01 3.526227e-01 3.529730e-01 3.531686e-01 3.535746e-01 3.538301e-01 3.542899e-01 3.546040e-01 3.551153e-01 3.554864e-01 3.560466e-01 3.564730e-01 3.570793e-01 3.575586e-01 3.582081e-01 3.587380e-01 3.594273e-01 3.600053e-01 3.607310e-01 3.613540e-01 3.621126e-01 3.627775e-01 3.635653e-01 3.642687e-01 3.650818e-01 3.658202e-01 3.666547e-01 3.674245e-01 3.682763e-01 3.690735e-01 3.699385e-01 3.707593e-01 3.716335e-01 3.724738e-01 3.733530e-01 3.742088e-01 3.750890e-01 3.759560e-01 3.768332e-01 3.777075e-01 3.785777e-01 3.794551e-01 3.803146e-01 3.811910e-01 3.820361e-01 3.829077e-01 3.837350e-01 3.845979e-01 3.854041e-01 3.862546e-01 3.870367e-01 3.878714e-01 3.886265e-01 3.894421e-01 3.901677e-01 3.909612e-01 3.916550e-01 3.924235e-01 3.930836e-01 3.938247e-01 3.944494e-01 3.951608e-01 3.957488e-01 3.964286e-01 3.969789e-01 3.976255e-01 3.981373e-01 3.987495e-01 3.992225e-01 3.997993e-01 4.002335e-01 4.007742e-01 4.011698e-01 4.016741e-01 4.020317e-01 4.024998e-01 4.028201e-01 4.032522e-01 4.035365e-01 4.039332e-01 4.041827e-01 4.045450e-01 4.047613e-01 4.050903e-01 4.052752e-01 4.055722e-01 4.057276e-01 4.059943e-01 4.061222e-01 4.063604e-01 4.064630e-01 4.066745e-01 4.067540e-01 4.069409e-01 4.069996e-01 4.071640e-01 4.072041e-01 4.073483e-01 4.073721e-01 4.074980e-01 4.075077e-01 4.076177e-01 4.076154e-01 4.077115e-01 4.076992e-01 4.077835e-01 4.077629e-01 4.078373e-01 4.078102e-01 4.078766e-01 4.078443e-01 4.079042e-01 4.078682e-01 4.079230e-01 4.078842e-01 4.079353e-01 4.078944e-01 4.079427e-01 4.079003e-01 4.079466e-01 4.079030e-01 4.079479e-01 4.079030e-01 4.079466e-01 4.079003e-01 4.079427e-01 4.078944e-01 4.079353e-01 4.078842e-01 4.079230e-01 4.078682e-01 4.079042e-01 4.078443e-01 4.078766e-01 4.078102e-01 4.078373e-01 4.077629e-01 4.077835e-01 4.076992e-01 4.077115e-01 4.076154e-01 4.076177e-01 4.075077e-01 4.074980e-01 4.073721e-01 4.073483e-01 4.072041e-01 4.071640e-01 4.069996e-01 4.069409e-01 4.067540e-01 4.066745e-01 4.064630e-01 4.063604e-01 4.061222e-01 4.059943e-01 4.057276e-01 4.055722e-01 4.052752e-01 4.050903e-01 4.047613e-01 4.045450e-01 4.041827e-01 4.039332e-01 4.035365e-01 4.032522e-01 4.028201e-01 4.024998e-01 4.020317e-01 4.016741e-01 4.011698e-01 4.007742e-01 4.002335e-01 3.997993e-01 3.992225e-01 3.987495e-01 3.981373e-01 3.976255e-01 3.969789e-01 3.964286e-01 3.957488e-01 3.951608e-01 3.944494e-01 3.938247e-01 3.930836e-01 3.924235e-01 3.916550e-01 3.909612e-01 3.901677e-01 3.894421e-01 3.886265e-01 3.878714e-01 3.870367e-01 3.862546e-01 3.854041e-01 3.845979e-01 3.837350e-01 3.829077e-01 3.820361e-01 3.811910e-01 3.803146e-01 3.794551e-01 3.785777e-01 3.777075e-01 3.768332e-01 3.759560e-01 3.750890e-01 3.742088e-01 3.733530e-01 3.724738e-01 3.716335e-01 3.707593e-01 3.699385e-01 3.690735e-01 3.682763e-01 3.674245e-01 3.666547e-01 3.658202e-01 3.650818e-01 3.642687e-01 3.635653e-01 3.627775e-01 3.621126e-01 3.613540e-01 3.607310e-01 3.600053e-01 3.594273e-01 3.587380e-01 3.582081e-01 3.575586e-01 3.570793e-01 3.564730e-01 3.560466e-01 3.554864e-01 3.551153e-01 3.546040e-01 3.542899e-01 3.538301e-01 3.535746e-01 3.531686e-01 3.529730e-01 3.526227e-01 3.524880e-01 3.521953e-01 3.521222e-01 3.518885e-01 3.518772e-01 3.517038e-01 3.517545e-01 
3.613869e-01 3.615374e-01 3.614548e-01 3.616725e-01 3.616582e-01 3.619421e-01 3.619960e-01 3.623449e-01 3.624667e-01 3.628790e-01 3.630681e-01 3.635419e-01 3.637973e-01 3.643305e-01 3.646508e-01 3.652410e-01 3.656247e-01 3.662691e-01 3.667144e-01 3.674099e-01 3.679146e-01 3.686582e-01 3.692198e-01 3.700080e-01 3.706238e-01 3.714529e-01 3.721199e-01 3.729861e-01 3.737011e-01 3.746006e-01 3.753601e-01 3.762886e-01 3.770891e-01 3.780425e-01 3.788800e-01 3.798540e-01 3.807247e-01 3.817149e-01 3.826146e-01 3.836166e-01 3.845411e-01 3.855506e-01 3.864957e-01 3.875083e-01 3.884697e-01 3.894809e-01 3.904543e-01 3.914601e-01 3.924411e-01 3.934373e-01 3.944217e-01 3.954043e-01 3.963880e-01 3.973532e-01 3.983321e-01 3.992763e-01 4.002464e-01 4.011662e-01 4.021239e-01 4.030162e-01 4.039577e-01 4.048196e-01 4.057418e-01 4.065707e-01 4.074704e-01 4.082640e-01 4.091384e-01 4.098947e-01 4.107412e-01 4.114585e-01 4.122750e-01 4.129520e-01 4.137364e-01 4.143722e-01 4.151229e-01 4.157167e-01 4.164324e-01 4.169839e-01 4.176637e-01 4.181729e-01 4.188161e-01 4.192832e-01 4.198895e-01 4.203151e-01 4.208845e-01 4.212694e-01 4.218021e-01 4.221474e-01 4.226440e-01 4.229511e-01 4.234123e-01 4.236827e-01 4.241097e-01 4.243450e-01 4.247389e-01 4.249411e-01 4.253034e-01 4.254744e-01 4.258067e-01 4.259486e-01 4.262526e-01 4.263674e-01 4.266449e-01 4.267348e-01 4.269876e-01 4.270547e-01 4.272848e-01 4.273312e-01 4.275405e-01 4.275682e-01 4.277585e-01 4.277693e-01 4.279424e-01 4.279381e-01 4.280957e-01 4.280780e-01 4.282217e-01 4.281919e-01 4.283232e-01 4.282826e-01 4.284027e-01 4.283524e-01 4.284623e-01 4.284030e-01 4.285037e-01 4.284359e-01 4.285280e-01 4.284521e-01 4.285360e-01 4.284521e-01 4.285280e-01 4.284359e-01 4.285037e-01 4.284030e-01 4.284623e-01 4.283524e-01 4.284027e-01 4.282826e-01 4.283232e-01 4.281919e-01 4.282217e-01 4.280780e-01 4.280957e-01 4.279381e-01 4.279424e-01 4.277693e-01 4.277585e-01 4.275682e-01 4.275405e-01 4.273312e-01 4.272848e-01 4.270547e-01 4.269876e-01 4.267348e-01 4.266449e-01 4.263674e-01 4.262526e-01 4.259486e-01 4.258067e-01 4.254744e-01 4.253034e-01 4.249411e-01 4.247389e-01 4.243450e-01 4.241097e-01 4.236827e-01 4.234123e-01 4.229511e-01 4.226440e-01 4.221474e-01 4.218021e-01 4.212694e-01 4.208845e-01 4.203151e-01 4.198895e-01 4.192832e-01 4.188161e-01 4.181729e-01 4.176637e-01 4.169839e-01 4.164324e-01 4.157167e-01 4.151229e-01 4.143722e-01 4.137364e-01 4.129520e-01 4.122750e-01 4.114585e-01 4.107412e-01 4.098947e-01 4.091384e-01 4.082640e-01 4.074704e-01 4.065707e-01 4.057418e-01 4.048196e-01 4.039577e-01 4.030162e-01 4.021239e-01 4.011662e-01 4.002464e-01 3.992763e-01 3.983321e-01 3.973532e-01 3.963880e-01 3.954043e-01 3.944217e-01 3.934373e-01 3.924411e-01 3.914601e-01 3.904543e-01 3.894809e-01 3.884697e-01 3.875083e-01 3.864957e-01 3.855506e-01 3.845411e-01 3.836166e-01 3.826146e-01 3.817149e-01 3.807247e-01 3.798540e-01 3.788800e-01 3.780425e-01 3.770891e-01 3.762886e-01 3.753601e-01 3.746006e-01 3.737011e-01 3.729861e-01 3.721199e-01 3.714529e-01 3.706238e-01 3.700080e-01 3.692198e-01 3.686582e-01 3.679146e-01 3.674099e-01 3.667144e-01 3.662691e-01 3.656247e-01 3.652410e-01 3.646508e-01 3.643305e-01 3.637973e-01 3.635419e-01 3.630681e-01 3.628790e-01 3.624667e-01 3.623449e-01 3.619960e-01 3.619421e-01 3.616582e-01 3.616725e-01 3.614548e-01 3.615374e-01 
3.707160e-01 3.709147e-01 3.707897e-01 3.710614e-01 3.710105e-01 3.713541e-01 3.713774e-01 3.717915e-01 3.718887e-01 3.723717e-01 3.725422e-01 3.730919e-01 3.733349e-01 3.739490e-01 3.742632e-01 3.749391e-01 3.753228e-01 3.760577e-01 3.765091e-01 3.772997e-01 3.778167e-01 3.786596e-01 3.792397e-01 3.801312e-01 3.807716e-01 3.817080e-01 3.824056e-01 3.833828e-01 3.841344e-01 3.851481e-01 3.859502e-01 3.869961e-01 3.878450e-01 3.889186e-01 3.898103e-01 3.909070e-01 3.918375e-01 3.929526e-01 3.939177e-01 3.950466e-01 3.960420e-01 3.971799e-01 3.982011e-01 3.993433e-01 4.003859e-01 4.015278e-01 4.025874e-01 4.037244e-01 4.047964e-01 4.059241e-01 4.070041e-01 4.081182e-01 4.092017e-01 4.102981e-01 4.113809e-01 4.124555e-01 4.135335e-01 4.145827e-01 4.156518e-01 4.166721e-01 4.177286e-01 4.187168e-01 4.197570e-01 4.207101e-01 4.217307e-01 4.226462e-01 4.236440e-01 4.245195e-01 4.254917e-01 4.263254e-01 4.272694e-01 4.280595e-01 4.289731e-01 4.297184e-01 4.305996e-01 4.312992e-01 4.321464e-01 4.327996e-01 4.336115e-01 4.342181e-01 4.349937e-01 4.355537e-01 4.362924e-01 4.368061e-01 4.375075e-01 4.379755e-01 4.386395e-01 4.390629e-01 4.396897e-01 4.400695e-01 4.406596e-01 4.409971e-01 4.415513e-01 4.418481e-01 4.423672e-01 4.426251e-01 4.431102e-01 4.433310e-01 4.437835e-01 4.439691e-01 4.443903e-01 4.445427e-01 4.449342e-01 4.450555e-01 4.454188e-01 4.455111e-01 4.458479e-01 4.459130e-01 4.462249e-01 4.462649e-01 4.465536e-01 4.465703e-01 4.468373e-01 4.468325e-01 4.470792e-01 4.470546e-01 4.472825e-01 4.472393e-01 4.474496e-01 4.473893e-01 4.475830e-01 4.475066e-01 4.476847e-01 4.475930e-01 4.477561e-01 4.476498e-01 4.477986e-01 4.476780e-01 4.478126e-01 4.476780e-01 4.477986e-01 4.476498e-01 4.477561e-01 4.475930e-01 4.476847e-01 4.475066e-01 4.475830e-01 4.473893e-01 4.474496e-01 4.472393e-01 4.472825e-01 4.470546e-01 4.470792e-01 4.468325e-01 4.468373e-01 4.465703e-01 4.465536e-01 4.462649e-01 4.462249e-01 4.459130e-01 4.458479e-01 4.455111e-01 4.454188e-01 4.450555e-01 4.449342e-01 4.445427e-01 4.443903e-01 4.439691e-01 4.437835e-01 4.433310e-01 4.431102e-01 4.426251e-01 4.423672e-01 4.418481e-01 4.415513e-01 4.409971e-01 4.406596e-01 4.400695e-01 4.396897e-01 4.390629e-01 4.386395e-01 4.379755e-01 4.375075e-01 4.368061e-01 4.362924e-01 4.355537e-01 4.349937e-01 4.342181e-01 4.336115e-01 4.327996e-01 4.321464e-01 4.312992e-01 4.305996e-01 4.297184e-01 4.289731e-01 4.280595e-01 4.272694e-01 4.263254e-01 4.254917e-01 4.245195e-01 4.236440e-01 4.226462e-01 4.217307e-01 4.207101e-01 4.197570e-01 4.187168e-01 4.177286e-01 4.166721e-01 4.156518e-01 4.145827e-01 4.135335e-01 4.124555e-01 4.113809e-01 4.102981e-01 4.092017e-01 4.081182e-01 4.070041e-01 4.059241e-01 4.047964e-01 4.037244e-01 4.025874e-01 4.015278e-01 4.003859e-01 3.993433e-01 3.982011e-01 3.971799e-01 3.960420e-01 3.950466e-01 3.939177e-01 3.929526e-01 3.918375e-01 3.909070e-01 3.898103e-01 3.889186e-01 3.878450e-01 3.869961e-01 3.859502e-01 3.851481e-01 3.841344e-01 3.833828e-01 3.824056e-01 3.817080e-01 3.807716e-01 3.801312e-01 3.792397e-01 3.786596e-01 3.778167e-01 3.772997e-01 3.765091e-01 3.760577e-01 3.753228e-01 3.749391e-01 3.742632e-01 3.739490e-01 3.733349e-01 3.730919e-01 3.725422e-01 3.723717e-01 3.718887e-01 3.717915e-01 3.713774e-01 3.713541e-01 3.710105e-01 3.710614e-01 3.707897e-01 3.709147e-01 
3.803902e-01 3.806274e-01 3.804701e-01 3.807864e-01 3.807094e-01 3.811036e-01 3.811071e-01 3.815777e-01 3.816615e-01 3.822066e-01 3.823701e-01 3.829877e-01 3.832300e-01 3.839176e-01 3.842374e-01 3.849922e-01 3.853880e-01 3.862069e-01 3.866768e-01 3.875565e-01 3.880983e-01 3.890352e-01 3.896463e-01 3.906366e-01 3.913143e-01 3.923538e-01 3.930949e-01 3.941795e-01 3.949807e-01 3.961059e-01 3.969636e-01 3.981247e-01 3.990351e-01 4.002275e-01 4.011865e-01 4.024052e-01 4.034088e-01 4.046489e-01 4.056926e-01 4.069491e-01 4.080285e-01 4.092965e-01 4.104069e-01 4.116813e-01 4.128182e-01 4.140942e-01 4.152528e-01 4.165254e-01 4.177011e-01 4.189655e-01 4.201537e-01 4.214053e-01 4.226012e-01 4.238356e-01 4.250349e-01 4.262477e-01 4.274458e-01 4.286331e-01 4.298258e-01 4.309837e-01 4.321668e-01 4.332918e-01 4.344616e-01 4.355503e-01 4.367030e-01 4.377527e-01 4.388849e-01 4.398928e-01 4.410013e-01 4.419651e-01 4.430470e-01 4.439649e-01 4.450177e-01 4.458880e-01 4.469093e-01 4.477307e-01 4.487186e-01 4.494903e-01 4.504430e-01 4.511645e-01 4.520808e-01 4.527516e-01 4.536304e-01 4.542508e-01 4.550914e-01 4.556616e-01 4.564635e-01 4.569843e-01 4.577474e-01 4.582196e-01 4.589440e-01 4.593687e-01 4.600547e-01 4.604333e-01 4.610815e-01 4.614154e-01 4.620266e-01 4.623176e-01 4.628927e-01 4.631424e-01 4.636825e-01 4.638928e-01 4.643991e-01 4.645718e-01 4.650456e-01 4.651827e-01 4.656252e-01 4.657286e-01 4.661413e-01 4.662127e-01 4.665969e-01 4.666382e-01 4.669952e-01 4.670080e-01 4.673390e-01 4.673249e-01 4.676311e-01 4.675914e-01 4.678739e-01 4.678098e-01 4.680694e-01 4.679822e-01 4.682196e-01 4.681100e-01 4.683259e-01 4.681945e-01 4.683892e-01 4.682365e-01 4.684102e-01 4.682365e-01 4.683892e-01 4.681945e-01 4.683259e-01 4.681100e-01 4.682196e-01 4.679822e-01 4.680694e-01 4.678098e-01 4.678739e-01 4.675914e-01 4.676311e-01 4.673249e-01 4.673390e-01 4.670080e-01 4.669952e-01 4.666382e-01 4.665969e-01 4.662127e-01 4.661413e-01 4.657286e-01 4.656252e-01 4.651827e-01 4.650456e-01 4.645718e-01 4.643991e-01 4.638928e-01 4.636825e-01 4.631424e-01 4.628927e-01 4.623176e-01 4.620266e-01 4.614154e-01 4.610815e-01 4.604333e-01 4.600547e-01 4.593687e-01 4.589440e-01 4.582196e-01 4.577474e-01 4.569843e-01 4.564635e-01 4.556616e-01 4.550914e-01 4.542508e-01 4.536304e-01 4.527516e-01 4.520808e-01 4.511645e-01 4.504430e-01 4.494903e-01 4.487186e-01 4.477307e-01 4.469093e-01 4.458880e-01 4.450177e-01 4.439649e-01 4.430470e-01 4.419651e-01 4.410013e-01 4.398928e-01 4.388849e-01 4.377527e-01 4.367030e-01 4.355503e-01 4.344616e-01 4.332918e-01 4.321668e-01 4.309837e-01 4.298258e-01 4.286331e-01 4.274458e-01 4.262477e-01 4.250349e-01 4.238356e-01 4.226012e-01 4.214053e-01 4.201537e-01 4.189655e-01 4.177011e-01 4.165254e-01 4.152528e-01 4.140942e-01 4.128182e-01 4.116813e-01 4.104069e-01 4.092965e-01 4.080285e-01 4.069491e-01 4.056926e-01 4.046489e-01 4.034088e-01 4.024052e-01 4.011865e-01 4.002275e-01 3.990351e-01 3.981247e-01 3.969636e-01 3.961059e-01 3.949807e-01 3.941795e-01 3.930949e-01 3.923538e-01 3.913143e-01 3.906366e-01 3.896463e-01 3.890352e-01 3.880983e-01 3.875565e-01 3.866768e-01 3.862069e-01 3.853880e-01 3.849922e-01 3.842374e-01 3.839176e-01 3.832300e-01 3.829877e-01 3.823701e-01 3.822066e-01 3.816615e-01 3.815777e-01 3.811071e-01 3.811036e-01 3.807094e-01 3.807864e-01 3.804701e-01 3.806274e-01 
3.896423e-01 3.899281e-01 3.897279e-01 3.900986e-01 3.899846e-01 3.904387e-01 3.904112e-01 3.909471e-01 3.910059e-01 3.916218e-01 3.917663e-01 3.924598e-01 3.926892e-01 3.934577e-01 3.937708e-01 3.946114e-01 3.950066e-01 3.959160e-01 3.963915e-01 3.973662e-01 3.979197e-01 3.989558e-01 3.995848e-01 4.006784e-01 4.013801e-01 4.025268e-01 4.032980e-01 4.044934e-01 4.053307e-01 4.065700e-01 4.074697e-01 4.087481e-01 4.097064e-01 4.110188e-01 4.120317e-01 4.133729e-01 4.144360e-01 4.158009e-01 4.169097e-01 4.182930e-01 4.194429e-01 4.208393e-01 4.220257e-01 4.234298e-01 4.246478e-01 4.260545e-01 4.272993e-01 4.287033e-01 4.299700e-01 4.313662e-01 4.326501e-01 4.340335e-01 4.353296e-01 4.366955e-01 4.379991e-01 4.393428e-01 4.406493e-01 4.419665e-01 4.432714e-01 4.445578e-01 4.458567e-01 4.471086e-01 4.483974e-01 4.496112e-01 4.508858e-01 4.520582e-01 4.533150e-01 4.544432e-01 4.556786e-01 4.567599e-01 4.579709e-01 4.590030e-01 4.601865e-01 4.611676e-01 4.623211e-01 4.632497e-01 4.643708e-01 4.652457e-01 4.663325e-01 4.671529e-01 4.682036e-01 4.689689e-01 4.699822e-01 4.706924e-01 4.716671e-01 4.723223e-01 4.732577e-01 4.738583e-01 4.747539e-01 4.753006e-01 4.761562e-01 4.766499e-01 4.774654e-01 4.779074e-01 4.786831e-01 4.790746e-01 4.798110e-01 4.801536e-01 4.808511e-01 4.811464e-01 4.818060e-01 4.820557e-01 4.826781e-01 4.828840e-01 4.834703e-01 4.836342e-01 4.841854e-01 4.843091e-01 4.848263e-01 4.849116e-01 4.853958e-01 4.854444e-01 4.858968e-01 4.859104e-01 4.863319e-01 4.863120e-01 4.867035e-01 4.866515e-01 4.870140e-01 4.869311e-01 4.872652e-01 4.871525e-01 4.874588e-01 4.873173e-01 4.875961e-01 4.874265e-01 4.876781e-01 4.874809e-01 4.877054e-01 4.874809e-01 4.876781e-01 4.874265e-01 4.875961e-01 4.873173e-01 4.874588e-01 4.871525e-01 4.872652e-01 4.869311e-01 4.870140e-01 4.866515e-01 4.867035e-01 4.863120e-01 4.863319e-01 4.859104e-01 4.858968e-01 4.854444e-01 4.853958e-01 4.849116e-01 4.848263e-01 4.843091e-01 4.841854e-01 4.836342e-01 4.834703e-01 4.828840e-01 4.826781e-01 4.820557e-01 4.818060e-01 4.811464e-01 4.808511e-01 4.801536e-01 4.798110e-01 4.790746e-01 4.786831e-01 4.779074e-01 4.774654e-01 4.766499e-01 4.761562e-01 4.753006e-01 4.747539e-01 4.738583e-01 4.732577e-01 4.723223e-01 4.716671e-01 4.706924e-01 4.699822e-01 4.689689e-01 4.682036e-01 4.671529e-01 4.663325e-01 4.652457e-01 4.643708e-01 4.632497e-01 4.623211e-01 4.611676e-01 4.601865e-01 4.590030e-01 4.579709e-01 4.567599e-01 4.556786e-01 4.544432e-01 4.533150e-01 4.520582e-01 4.508858e-01 4.496112e-01 4.483974e-01 4.471086e-01 4.458567e-01 4.445578e-01 4.432714e-01 4.419665e-01 4.406493e-01 4.393428e-01 4.379991e-01 4.366955e-01 4.353296e-01 4.340335e-01 4.326501e-01 4.313662e-01 4.299700e-01 4.287033e-01 4.272993e-01 4.260545e-01 4.246478e-01 4.234298e-01 4.220257e-01 4.208393e-01 4.194429e-01 4.182930e-01 4.169097e-01 4.158009e-01 4.144360e-01 4.133729e-01 4.120317e-01 4.110188e-01 4.097064e-01 4.087481e-01 4.074697e-01 4.065700e-01 4.053307e-01 4.044934e-01 4.032980e-01 4.025268e-01 4.013801e-01 4.006784e-01 3.995848e-01 3.989558e-01 3.979197e-01 3.973662e-01 3.963915e-01 3.959160e-01 3.950066e-01 3.946114e-01 3.937708e-01 3.934577e-01 3.926892e-01 3.924598e-01 3.917663e-01 3.916218e-01 3.910059e-01 3.909471e-01 3.904112e-01 3.904387e-01 3.899846e-01 3.900986e-01 3.897279e-01 3.899281e-01 
3.992335e-01 3.995582e-01 3.993253e-01 3.997408e-01 3.996003e-01 4.001053e-01 4.000575e-01 4.006502e-01 4.006950e-01 4.013734e-01 4.015103e-01 4.022720e-01 4.025002e-01 4.033423e-01 4.036605e-01 4.045801e-01 4.049869e-01 4.059805e-01 4.064738e-01 4.075377e-01 4.081154e-01 4.092457e-01 4.099052e-01 4.110976e-01 4.118360e-01 4.130860e-01 4.139001e-01 4.152030e-01 4.160894e-01 4.174402e-01 4.183952e-01 4.197888e-01 4.208083e-01 4.222395e-01 4.233194e-01 4.247827e-01 4.259186e-01 4.274086e-01 4.285958e-01 4.301069e-01 4.313407e-01 4.328674e-01 4.341429e-01 4.356795e-01 4.369919e-01 4.385328e-01 4.398769e-01 4.414167e-01 4.427875e-01 4.443208e-01 4.457132e-01 4.472346e-01 4.486437e-01 4.501481e-01 4.515688e-01 4.530512e-01 4.544787e-01 4.559345e-01 4.573639e-01 4.587886e-01 4.602153e-01 4.616048e-01 4.630243e-01 4.643746e-01 4.657827e-01 4.670903e-01 4.684829e-01 4.697444e-01 4.711178e-01 4.723304e-01 4.736809e-01 4.748421e-01 4.761666e-01 4.772740e-01 4.785695e-01 4.796214e-01 4.808852e-01 4.818801e-01 4.831098e-01 4.840466e-01 4.852401e-01 4.861180e-01 4.872736e-01 4.880922e-01 4.892084e-01 4.899676e-01 4.910432e-01 4.917431e-01 4.927773e-01 4.934183e-01 4.944105e-01 4.949933e-01 4.959430e-01 4.964686e-01 4.973758e-01 4.978453e-01 4.987100e-01 4.991247e-01 4.999471e-01 5.003084e-01 5.010890e-01 5.013984e-01 5.021378e-01 5.023969e-01 5.030956e-01 5.033061e-01 5.039650e-01 5.041285e-01 5.047483e-01 5.048665e-01 5.054480e-01 5.055225e-01 5.060665e-01 5.060989e-01 5.066060e-01 5.065978e-01 5.070689e-01 5.070212e-01 5.074569e-01 5.073712e-01 5.077720e-01 5.076491e-01 5.080154e-01 5.078564e-01 5.081884e-01 5.079941e-01 5.082919e-01 5.080627e-01 5.083263e-01 5.080627e-01 5.082919e-01 5.079941e-01 5.081884e-01 5.078564e-01 5.080154e-01 5.076491e-01 5.077720e-01 5.073712e-01 5.074569e-01 5.070212e-01 5.070689e-01 5.065978e-01 5.066060e-01 5.060989e-01 5.060665e-01 5.055225e-01 5.054480e-01 5.048665e-01 5.047483e-01 5.041285e-01 5.039650e-01 5.033061e-01 5.030956e-01 5.023969e-01 5.021378e-01 5.013984e-01 5.010890e-01 5.003084e-01 4.999471e-01 4.991247e-01 4.987100e-01 4.978453e-01 4.973758e-01 4.964686e-01 4.959430e-01 4.949933e-01 4.944105e-01 4.934183e-01 4.927773e-01 4.917431e-01 4.910432e-01 4.899676e-01 4.892084e-01 4.880922e-01 4.872736e-01 4.861180e-01 4.852401e-01 4.840466e-01 4.831098e-01 4.818801e-01 4.808852e-01 4.796214e-01 4.785695e-01 4.772740e-01 4.761666e-01 4.748421e-01 4.736809e-01 4.723304e-01 4.711178e-01 4.697444e-01 4.684829e-01 4.670903e-01 4.657827e-01 4.643746e-01 4.630243e-01 4.616048e-01 4.602153e-01 4.587886e-01 4.573639e-01 4.559345e-01 4.544787e-01 4.530512e-01 4.515688e-01 4.501481e-01 4.486437e-01 4.472346e-01 4.457132e-01 4.443208e-01 4.427875e-01 4.414167e-01 4.398769e-01 4.385328e-01 4.369919e-01 4.356795e-01 4.341429e-01 4.328674e-01 4.313407e-01 4.301069e-01 4.285958e-01 4.274086e-01 4.259186e-01 4.247827e-01 4.233194e-01 4.222395e-01 4.208083e-01 4.197888e-01 4.183952e-01 4.174402e-01 4.160894e-01 4.152030e-01 4.139001e-01 4.130860e-01 4.118360e-01 4.110976e-01 4.099052e-01 4.092457e-01 4.081154e-01 4.075377e-01 4.064738e-01 4.059805e-01 4.049869e-01 4.045801e-01 4.036605e-01 4.033423e-01 4.025002e-01 4.022720e-01 4.015103e-01 4.013734e-01 4.006950e-01 4.006502e-01 4.000575e-01 4.001053e-01 3.996003e-01 3.997408e-01 3.993253e-01 3.995582e-01 
4.083965e-01 4.087703e-01 4.084941e-01 4.089643e-01 4.087864e-01 4.093517e-01 4.092723e-01 4.099308e-01 4.099500e-01 4.106994e-01 4.108168e-01 4.116546e-01 4.118693e-01 4.127927e-01 4.131035e-01 4.141091e-01 4.145147e-01 4.155990e-01 4.160973e-01 4.172564e-01 4.178452e-01 4.190749e-01 4.197517e-01 4.210476e-01 4.218094e-01 4.231667e-01 4.240104e-01 4.254242e-01 4.263462e-01 4.278113e-01 4.288078e-01 4.303188e-01 4.313859e-01 4.329373e-01 4.340706e-01 4.356567e-01 4.368518e-01 4.384668e-01 4.397189e-01 4.413571e-01 4.426613e-01 4.443167e-01 4.456681e-01 4.473348e-01 4.487284e-01 4.504004e-01 4.518309e-01 4.535025e-01 4.549647e-01 4.566301e-01 4.581188e-01 4.597725e-01 4.612823e-01 4.629188e-01 4.644446e-01 4.660586e-01 4.675953e-01 4.691818e-01 4.707244e-01 4.722786e-01 4.738221e-01 4.753395e-01 4.768793e-01 4.783557e-01 4.798871e-01 4.813186e-01 4.828374e-01 4.842204e-01 4.857224e-01 4.870538e-01 4.885352e-01 4.898120e-01 4.912692e-01 4.924890e-01 4.939187e-01 4.950794e-01 4.964786e-01 4.975784e-01 4.989444e-01 4.999819e-01 5.013122e-01 5.022865e-01 5.035790e-01 5.044893e-01 5.057422e-01 5.065882e-01 5.078000e-01 5.085816e-01 5.097510e-01 5.104685e-01 5.115945e-01 5.122484e-01 5.133303e-01 5.139213e-01 5.149586e-01 5.154878e-01 5.164802e-01 5.169485e-01 5.178960e-01 5.183048e-01 5.192074e-01 5.195581e-01 5.204160e-01 5.207101e-01 5.215237e-01 5.217628e-01 5.225325e-01 5.227181e-01 5.234444e-01 5.235781e-01 5.242615e-01 5.243449e-01 5.249859e-01 5.250204e-01 5.256197e-01 5.256068e-01 5.261647e-01 5.261057e-01 5.266226e-01 5.265188e-01 5.269951e-01 5.268475e-01 5.272834e-01 5.270929e-01 5.274885e-01 5.272561e-01 5.276113e-01 5.273375e-01 5.276522e-01 5.273375e-01 5.276113e-01 5.272561e-01 5.274885e-01 5.270929e-01 5.272834e-01 5.268475e-01 5.269951e-01 5.265188e-01 5.266226e-01 5.261057e-01 5.261647e-01 5.256068e-01 5.256197e-01 5.250204e-01 5.249859e-01 5.243449e-01 5.242615e-01 5.235781e-01 5.234444e-01 5.227181e-01 5.225325e-01 5.217628e-01 5.215237e-01 5.207101e-01 5.204160e-01 5.195581e-01 5.192074e-01 5.183048e-01 5.178960e-01 5.169485e-01 5.164802e-01 5.154878e-01 5.149586e-01 5.139213e-01 5.133303e-01 5.122484e-01 5.115945e-01 5.104685e-01 5.097510e-01 5.085816e-01 5.078000e-01 5.065882e-01 5.057422e-01 5.044893e-01 5.035790e-01 5.022865e-01 5.013122e-01 4.999819e-01 4.989444e-01 4.975784e-01 4.964786e-01 4.950794e-01 4.939187e-01 4.924890e-01 4.912692e-01 4.898120e-01 4.885352e-01 4.870538e-01 4.857224e-01 4.842204e-01 4.828374e-01 4.813186e-01 4.798871e-01 4.783557e-01 4.768793e-01 4.753395e-01 4.738221e-01 4.722786e-01 4.707244e-01 4.691818e-01 4.675953e-01 4.660586e-01 4.644446e-01 4.629188e-01 4.612823e-01 4.597725e-01 4.581188e-01 4.566301e-01 4.549647e-01 4.535025e-01 4.518309e-01 4.504004e-01 4.487284e-01 4.473348e-01 4.456681e-01 4.443167e-01 4.426613e-01 4.413571e-01 4.397189e-01 4.384668e-01 4.368518e-01 4.356567e-01 4.340706e-01 4.329373e-01 4.313859e-01 4.303188e-01 4.288078e-01 4.278113e-01 4.263462e-01 4.254242e-01 4.240104e-01 4.231667e-01 4.218094e-01 4.210476e-01 4.197517e-01 4.190749e-01 4.178452e-01 4.172564e-01 4.160973e-01 4.155990e-01 4.145147e-01 4.141091e-01 4.131035e-01 4.127927e-01 4.118693e-01 4.116546e-01 4.108168e-01 4.106994e-01 4.099500e-01 4.099308e-01 4.092723e-01 4.093517e-01 4.087864e-01 4.089643e-01 4.084941e-01 4.087703e-01 