# vtk DataFile Version 2.0
Comment goes here
ASCII

DATASET STRUCTURED_POINTS
FIELD FieldData 1
TIME 1 1 double
0.08000000
DIMENSIONS    256   256   1

ORIGIN    0.000   0.000   0.000
SPACING   0.0039062 0.0039062   1.000

POINT_DATA   65536
SCALARS P double
LOOKUP_TABLE default

1.680790e-01 1.680402e-01 1.680785e-01 1.680394e-01 1.680767e-01 1.680372e-01 1.680731e-01 1.680328e-01 1.680662e-01 1.680248e-01 1.680547e-01 1.680112e-01 1.680363e-01 1.679898e-01 1.680086e-01 1.679578e-01 1.679687e-01 1.679123e-01 1.679132e-01 1.678496e-01 1.678387e-01 1.677660e-01 1.677410e-01 1.676573e-01 1.676160e-01 1.675193e-01 1.674593e-01 1.673472e-01 1.672660e-01 1.671364e-01 1.670315e-01 1.668819e-01 1.667509e-01 1.665789e-01 1.664191e-01 1.662222e-01 1.660312e-01 1.658070e-01 1.655823e-01 1.653284e-01 1.650678e-01 1.647818e-01 1.644830e-01 1.641628e-01 1.638238e-01 1.634672e-01 1.630860e-01 1.626911e-01 1.622663e-01 1.618313e-01 1.613614e-01 1.608849e-01 1.603687e-01 1.598495e-01 1.592863e-01 1.587233e-01 1.581127e-01 1.575053e-01 1.568472e-01 1.561952e-01 1.554897e-01 1.547932e-01 1.540411e-01 1.533005e-01 1.525029e-01 1.517190e-01 1.508774e-01 1.500516e-01 1.491679e-01 1.483019e-01 1.473784e-01 1.464744e-01 1.455140e-01 1.445745e-01 1.435803e-01 1.426084e-01 1.415840e-01 1.405831e-01 1.395325e-01 1.385064e-01 1.374341e-01 1.363870e-01 1.352976e-01 1.342340e-01 1.331326e-01 1.320575e-01 1.309495e-01 1.298680e-01 1.287588e-01 1.276765e-01 1.265719e-01 1.254943e-01 1.244004e-01 1.233333e-01 1.222560e-01 1.212055e-01 1.201509e-01 1.191229e-01 1.180972e-01 1.170979e-01 1.161070e-01 1.151423e-01 1.141923e-01 1.132681e-01 1.123649e-01 1.114870e-01 1.106361e-01 1.098102e-01 1.090169e-01 1.082482e-01 1.075176e-01 1.068113e-01 1.061481e-01 1.055088e-01 1.049172e-01 1.043493e-01 1.038332e-01 1.033405e-01 1.029033e-01 1.024892e-01 1.021337e-01 1.018012e-01 1.015297e-01 1.012810e-01 1.010952e-01 1.009322e-01 1.008334e-01 1.007572e-01 1.007459e-01 1.007572e-01 1.008334e-01 1.009322e-01 1.010952e-01 1.012810e-01 1.015297e-01 1.018012e-01 1.021337e-01 1.024892e-01 1.029033e-01 1.033405e-01 1.038332e-01 1.043493e-01 1.049172e-01 1.055088e-01 1.061481e-01 1.068113e-01 1.075176e-01 1.082482e-01 1.090169e-01 1.098102e-01 1.106361e-01 1.114870e-01 1.123649e-01 1.132681e-01 1.141923e-01 1.151423e-01 1.161070e-01 1.170979e-01 1.180972e-01 1.191229e-01 1.201509e-01 1.212055e-01 1.222560e-01 1.233333e-01 1.244004e-01 1.254943e-01 1.265719e-01 1.276765e-01 1.287588e-01 1.298680e-01 1.309495e-01 1.320575e-01 1.331326e-01 1.342340e-01 1.352976e-01 1.363870e-01 1.374341e-01 1.385064e-01 1.395325e-01 1.405831e-01 1.415840e-01 1.426084e-01 1.435803e-01 1.445745e-01 1.455140e-01 1.464744e-01 1.473784e-01 1.483019e-01 1.491679e-01 1.500516e-01 1.508774e-01 1.517190e-01 1.525029e-01 1.533005e-01 1.540411e-01 1.547932e-01 1.554897e-01 1.561952e-01 1.568472e-01 1.575053e-01 1.581127e-01 1.587233e-01 1.592863e-01 1.598495e-01 1.603687e-01 1.608849e-01 1.613614e-01 1.618313e-01 1.622663e-01 1.626911e-01 1.630860e-01 1.634672e-01 1.638238e-01 1.641628e-01 1.644830e-01 1.647818e-01 1.650678e-01 1.653284e-01 1.655823e-01 1.658070e-01 1.660312e-01 1.662222e-01 1.664191e-01 1.665789e-01 1.667509e-01 1.668819e-01 1.670315e-01 1.671364e-01 1.672660e-01 1.673472e-01 1.674593e-01 1.675193e-01 1.676160e-01 1.676573e-01 1.677410e-01 1.677660e-01 1.678387e-01 1.678496e-01 1.679132e-01 1.679123e-01 1.679687e-01 1.679578e-01 1.680086e-01 1.679898e-01 1.680363e-01 1.680112e-01 1.680547e-01 1.680248e-01 1.680662e-01 1.680328e-01 1.680731e-01 1.680372e-01 1.680767e-01 1.680394e-01 1.680785e-01 1.680402e-01 
1.555052e-01 1.554741e-01 1.554951e-01 1.554541e-01 1.554647e-01 1.554137e-01 1.554133e-01 1.553520e-01 1.553397e-01 1.552676e-01 1.552424e-01 1.551588e-01 1.551194e-01 1.550233e-01 1.549684e-01 1.548586e-01 1.547865e-01 1.546617e-01 1.545707e-01 1.544293e-01 1.543175e-01 1.541579e-01 1.540232e-01 1.538435e-01 1.536838e-01 1.534820e-01 1.532950e-01 1.530691e-01 1.528527e-01 1.526004e-01 1.523521e-01 1.520713e-01 1.517889e-01 1.514773e-01 1.511584e-01 1.508137e-01 1.504562e-01 1.500762e-01 1.496778e-01 1.492604e-01 1.488191e-01 1.483621e-01 1.478760e-01 1.473775e-01 1.468449e-01 1.463030e-01 1.457224e-01 1.451356e-01 1.445056e-01 1.438725e-01 1.431923e-01 1.425117e-01 1.417804e-01 1.410515e-01 1.402689e-01 1.394911e-01 1.386570e-01 1.378302e-01 1.369451e-01 1.360694e-01 1.351341e-01 1.342100e-01 1.332256e-01 1.322541e-01 1.312223e-01 1.302049e-01 1.291277e-01 1.280661e-01 1.269459e-01 1.258425e-01 1.246824e-01 1.235398e-01 1.223431e-01 1.211646e-01 1.199351e-01 1.187242e-01 1.174662e-01 1.162271e-01 1.149451e-01 1.136822e-01 1.123814e-01 1.110996e-01 1.097852e-01 1.084897e-01 1.071675e-01 1.058638e-01 1.045398e-01 1.032338e-01 1.019142e-01 1.006121e-01 9.930318e-02 9.801126e-02 9.671973e-02 9.544450e-02 9.417700e-02 9.292506e-02 9.168833e-02 9.046636e-02 8.926709e-02 8.808179e-02 8.692664e-02 8.578463e-02 8.468012e-02 8.358795e-02 8.254044e-02 8.150445e-02 8.052006e-02 7.954640e-02 7.863095e-02 7.772549e-02 7.688446e-02 7.605272e-02 7.529121e-02 7.453833e-02 7.386099e-02 7.319170e-02 7.260269e-02 7.202120e-02 7.152417e-02 7.103421e-02 7.063224e-02 7.023696e-02 6.993255e-02 6.963453e-02 6.942955e-02 6.923075e-02 6.912645e-02 6.902821e-02 6.902520e-02 6.902821e-02 6.912645e-02 6.923075e-02 6.942955e-02 6.963453e-02 6.993255e-02 7.023696e-02 7.063224e-02 7.103421e-02 7.152417e-02 7.202120e-02 7.260269e-02 7.319170e-02 7.386099e-02 7.453833e-02 7.529121e-02 7.605272e-02 7.688446e-02 7.772549e-02 7.863095e-02 7.954640e-02 8.052006e-02 8.150445e-02 8.254044e-02 8.358795e-02 8.468012e-02 8.578463e-02 8.692664e-02 8.808179e-02 8.926709e-02 9.046636e-02 9.168833e-02 9.292506e-02 9.417700e-02 9.544450e-02 9.671973e-02 9.801126e-02 9.930318e-02 1.006121e-01 1.019142e-01 1.032338e-01 1.045398e-01 1.058638e-01 1.071675e-01 1.084897e-01 1.097852e-01 1.110996e-01 1.123814e-01 1.136822e-01 1.149451e-01 1.162271e-01 1.174662e-01 1.187242e-01 1.199351e-01 1.211646e-01 1.223431e-01 1.235398e-01 1.246824e-01 1.258425e-01 1.269459e-01 1.280661e-01 1.291277e-01 1.302049e-01 1.312223e-01 1.322541e-01 1.332256e-01 1.342100e-01 1.351341e-01 1.360694e-01 1.369451e-01 1.378302e-01 1.386570e-01 1.394911e-01 1.402689e-01 1.410515e-01 1.417804e-01 1.425117e-01 1.431923e-01 1.438725e-01 1.445056e-01 1.451356e-01 1.457224e-01 1.463030e-01 1.468449e-01 1.473775e-01 1.478760e-01 1.483621e-01 1.488191e-01 1.492604e-01 1.496778e-01 1.500762e-01 1.504562e-01 1.508137e-01 1.511584e-01 1.514773e-01 1.517889e-01 1.520713e-01 1.523521e-01 1.526004e-01 1.528527e-01 1.530691e-01 1.532950e-01 1.534820e-01 1.536838e-01 1.538435e-01 1.540232e-01 1.541579e-01 1.543175e-01 1.544293e-01 1.545707e-01 1.546617e-01 1.547865e-01 1.548586e-01 1.549684e-01 1.550233e-01 1.551194e-01 1.551588e-01 1.552424e-01 1.552676e-01 1.553397e-01 1.553520e-01 1.554133e-01 1.554137e-01 1.554647e-01 1.554541e-01 1.554951e-01 1.554741e-01 
1.438250e-01 1.438173e-01 1.438062e-01 1.437797e-01 1.437495e-01 1.437042e-01 1.436542e-01 1.435898e-01 1.435194e-01 1.434352e-01 1.433434e-01 1.432388e-01 1.431245e-01 1.429986e-01 1.428604e-01 1.427119e-01 1.425484e-01 1.423761e-01 1.421856e-01 1.419880e-01 1.417688e-01 1.415442e-01 1.412944e-01 1.410410e-01 1.407587e-01 1.404747e-01 1.401578e-01 1.398411e-01 1.394876e-01 1.391362e-01 1.387439e-01 1.383558e-01 1.379227e-01 1.374956e-01 1.370196e-01 1.365515e-01 1.360307e-01 1.355196e-01 1.349520e-01 1.343958e-01 1.337798e-01 1.331767e-01 1.325106e-01 1.318589e-01 1.311414e-01 1.304395e-01 1.296694e-01 1.289160e-01 1.280924e-01 1.272864e-01 1.264087e-01 1.255492e-01 1.246172e-01 1.237037e-01 1.227174e-01 1.217498e-01 1.207096e-01 1.196880e-01 1.185948e-01 1.175199e-01 1.163748e-01 1.152475e-01 1.140523e-01 1.128740e-01 1.116308e-01 1.104034e-01 1.091147e-01 1.078406e-01 1.065094e-01 1.051914e-01 1.038212e-01 1.024625e-01 1.010572e-01 9.966157e-02 9.822557e-02 9.679715e-02 9.533522e-02 9.387867e-02 9.239600e-02 9.091637e-02 8.941853e-02 8.792129e-02 8.641420e-02 8.490518e-02 8.339509e-02 8.188045e-02 8.037389e-02 7.886011e-02 7.736383e-02 7.585763e-02 7.437858e-02 7.288692e-02 7.143219e-02 6.996217e-02 6.853893e-02 6.709775e-02 6.571322e-02 6.430815e-02 6.296950e-02 6.160779e-02 6.032213e-02 5.901097e-02 5.778525e-02 5.653169e-02 5.537267e-02 5.418359e-02 5.309775e-02 5.197978e-02 5.097330e-02 4.993276e-02 4.901144e-02 4.805428e-02 4.722350e-02 4.635526e-02 4.561993e-02 4.484569e-02 4.421018e-02 4.353450e-02 4.300264e-02 4.242953e-02 4.200454e-02 4.153742e-02 4.122190e-02 4.086354e-02 4.065944e-02 4.041201e-02 4.032060e-02 4.018555e-02 4.020742e-02 4.018555e-02 4.032060e-02 4.041201e-02 4.065944e-02 4.086354e-02 4.122190e-02 4.153742e-02 4.200454e-02 4.242953e-02 4.300264e-02 4.353450e-02 4.421018e-02 4.484569e-02 4.561993e-02 4.635526e-02 4.722350e-02 4.805428e-02 4.901144e-02 4.993276e-02 5.097330e-02 5.197978e-02 5.309775e-02 5.418359e-02 5.537267e-02 5.653169e-02 5.778525e-02 5.901097e-02 6.032213e-02 6.160779e-02 6.296950e-02 6.430815e-02 6.571322e-02 6.709775e-02 6.853893e-02 6.996217e-02 7.143219e-02 7.288692e-02 7.437858e-02 7.585763e-02 7.736383e-02 7.886011e-02 8.037389e-02 8.188045e-02 8.339509e-02 8.490518e-02 8.641420e-02 8.792129e-02 8.941853e-02 9.091637e-02 9.239600e-02 9.387867e-02 9.533522e-02 9.679715e-02 9.822557e-02 9.966157e-02 1.010572e-01 1.024625e-01 1.038212e-01 1.051914e-01 1.065094e-01 1.078406e-01 1.091147e-01 1.104034e-01 1.116308e-01 1.128740e-01 1.140523e-01 1.152475e-01 1.163748e-01 1.175199e-01 1.185948e-01 1.196880e-01 1.207096e-01 1.217498e-01 1.227174e-01 1.237037e-01 1.246172e-01 1.255492e-01 1.264087e-01 1.272864e-01 1.280924e-01 1.289160e-01 1.296694e-01 1.304395e-01 1.311414e-01 1.318589e-01 1.325106e-01 1.331767e-01 1.337798e-01 1.343958e-01 1.349520e-01 1.355196e-01 1.360307e-01 1.365515e-01 1.370196e-01 1.374956e-01 1.379227e-01 1.383558e-01 1.387439e-01 1.391362e-01 1.394876e-01 1.398411e-01 1.401578e-01 1.404747e-01 1.407587e-01 1.410410e-01 1.412944e-01 1.415442e-01 1.417688e-01 1.419880e-01 1.421856e-01 1.423761e-01 1.425484e-01 1.427119e-01 1.428604e-01 1.429986e-01 1.431245e-01 1.432388e-01 1.433434e-01 1.434352e-01 1.435194e-01 1.435898e-01 1.436542e-01 1.437042e-01 1.437495e-01 1.437797e-01 1.438062e-01 1.438173e-01 
1.312726e-01 1.312723e-01 1.312441e-01 1.312155e-01 1.311585e-01 1.311014e-01 1.310151e-01 1.309292e-01 1.308130e-01 1.306978e-01 1.305507e-01 1.304054e-01 1.302264e-01 1.300502e-01 1.298380e-01 1.296298e-01 1.293830e-01 1.291415e-01 1.288586e-01 1.285825e-01 1.282619e-01 1.279495e-01 1.275893e-01 1.272390e-01 1.268376e-01 1.264476e-01 1.260030e-01 1.255714e-01 1.250818e-01 1.246067e-01 1.240701e-01 1.235496e-01 1.229642e-01 1.223964e-01 1.217602e-01 1.211432e-01 1.204546e-01 1.197865e-01 1.190440e-01 1.183230e-01 1.175250e-01 1.167496e-01 1.158949e-01 1.150636e-01 1.141511e-01 1.132626e-01 1.122915e-01 1.113448e-01 1.103146e-01 1.093090e-01 1.082194e-01 1.071544e-01 1.060056e-01 1.048810e-01 1.036735e-01 1.024896e-01 1.012242e-01 9.998170e-02 9.865977e-02 9.735958e-02 9.598285e-02 9.462647e-02 9.319711e-02 9.178647e-02 9.030713e-02 8.884463e-02 8.731841e-02 8.580693e-02 8.423742e-02 8.268031e-02 8.107158e-02 7.947269e-02 7.782925e-02 7.619292e-02 7.451975e-02 7.285078e-02 7.115329e-02 6.945695e-02 6.774098e-02 6.602297e-02 6.429473e-02 6.256118e-02 6.082725e-02 5.908466e-02 5.735194e-02 5.560715e-02 5.388282e-02 5.214299e-02 5.043447e-02 4.870700e-02 4.702190e-02 4.531442e-02 4.366046e-02 4.198075e-02 4.036575e-02 3.872169e-02 3.715349e-02 3.555299e-02 3.403937e-02 3.249034e-02 3.103898e-02 2.954923e-02 2.816766e-02 2.674485e-02 2.544037e-02 2.409195e-02 2.287156e-02 2.160470e-02 2.047507e-02 1.929661e-02 1.826398e-02 1.718037e-02 1.625052e-02 1.526776e-02 1.444596e-02 1.356952e-02 1.286049e-02 1.209529e-02 1.150314e-02 1.085352e-02 1.038169e-02 9.851341e-03 9.502627e-03 9.094560e-03 8.871041e-03 8.587574e-03 8.490609e-03 8.333339e-03 8.363552e-03 8.333339e-03 8.490609e-03 8.587574e-03 8.871041e-03 9.094560e-03 9.502627e-03 9.851341e-03 1.038169e-02 1.085352e-02 1.150314e-02 1.209529e-02 1.286049e-02 1.356952e-02 1.444596e-02 1.526776e-02 1.625052e-02 1.718037e-02 1.826398e-02 1.929661e-02 2.047507e-02 2.160470e-02 2.287156e-02 2.409195e-02 2.544037e-02 2.674485e-02 2.816766e-02 2.954923e-02 3.103898e-02 3.249034e-02 3.403937e-02 3.555299e-02 3.715349e-02 3.872169e-02 4.036575e-02 4.198075e-02 4.366046e-02 4.531442e-02 4.702190e-02 4.870700e-02 5.043447e-02 5.214299e-02 5.388282e-02 5.560715e-02 5.735194e-02 5.908466e-02 6.082725e-02 6.256118e-02 6.429473e-02 6.602297e-02 6.774098e-02 6.945695e-02 7.115329e-02 7.285078e-02 7.451975e-02 7.619292e-02 7.782925e-02 7.947269e-02 8.107158e-02 8.268031e-02 8.423742e-02 8.580693e-02 8.731841e-02 8.884463e-02 9.030713e-02 9.178647e-02 9.319711e-02 9.462647e-02 9.598285e-02 9.735958e-02 9.865977e-02 9.998170e-02 1.012242e-01 1.024896e-01 1.036735e-01 1.048810e-01 1.060056e-01 1.071544e-01 1.082194e-01 1.093090e-01 1.103146e-01 1.113448e-01 1.122915e-01 1.132626e-01 1.141511e-01 1.150636e-01 1.158949e-01 1.167496e-01 1.175250e-01 1.183230e-01 1.190440e-01 1.197865e-01 1.204546e-01 1.211432e-01 1.217602e-01 1.223964e-01 1.229642e-01 1.235496e-01 1.240701e-01 1.246067e-01 1.250818e-01 1.255714e-01 1.260030e-01 1.264476e-01 1.268376e-01 1.272390e-01 1.275893e-01 1.279495e-01 1.282619e-01 1.285825e-01 1.288586e-01 1.291415e-01 1.293830e-01 1.296298e-01 1.298380e-01 1.300502e-01 1.302264e-01 1.304054e-01 1.305507e-01 1.306978e-01 1.308130e-01 1.309292e-01 1.310151e-01 1.311014e-01 1.311585e-01 1.312155e-01 1.312441e-01 1.312723e-01 
1.196072e-01 1.196303e-01 1.195699e-01 1.195557e-01 1.194578e-01 1.194062e-01 1.192702e-01 1.191809e-01 1.190063e-01 1.188787e-01 1.186646e-01 1.184981e-01 1.182436e-01 1.180371e-01 1.177411e-01 1.174937e-01 1.171549e-01 1.168653e-01 1.164823e-01 1.161492e-01 1.157205e-01 1.153423e-01 1.148663e-01 1.144416e-01 1.139166e-01 1.134435e-01 1.128680e-01 1.123448e-01 1.117170e-01 1.111419e-01 1.104601e-01 1.098313e-01 1.090940e-01 1.084097e-01 1.076151e-01 1.068736e-01 1.060205e-01 1.052201e-01 1.043070e-01 1.034461e-01 1.024720e-01 1.015493e-01 1.005131e-01 9.952731e-02 9.842838e-02 9.737855e-02 9.621645e-02 9.510181e-02 9.387637e-02 9.269647e-02 9.140788e-02 9.016258e-02 8.881139e-02 8.750089e-02 8.608802e-02 8.471293e-02 8.323970e-02 8.180104e-02 8.026923e-02 7.876843e-02 7.718024e-02 7.561922e-02 7.397733e-02 7.235846e-02 7.066602e-02 6.899218e-02 6.725282e-02 6.552739e-02 6.374521e-02 6.197207e-02 6.015168e-02 5.833521e-02 5.648166e-02 5.462675e-02 5.274558e-02 5.085760e-02 4.895477e-02 4.703958e-02 4.512148e-02 4.318536e-02 4.125877e-02 3.930845e-02 3.738050e-02 3.542309e-02 3.350124e-02 3.154419e-02 2.963616e-02 2.768725e-02 2.580101e-02 2.386826e-02 2.201192e-02 2.010357e-02 1.828540e-02 1.640982e-02 1.463815e-02 1.280381e-02 1.108694e-02 9.302359e-03 7.648560e-03 5.922188e-03 4.339596e-03 2.679801e-03 1.176365e-03 -4.086574e-04 -1.825241e-03 -3.327531e-03 -4.649881e-03 -6.061777e-03 -7.282891e-03 -8.597096e-03 -9.710408e-03 -1.092005e-02 -1.191949e-02 -1.301819e-02 -1.389823e-02 -1.488013e-02 -1.563586e-02 -1.649571e-02 -1.712283e-02 -1.785601e-02 -1.835093e-02 -1.895349e-02 -1.931332e-02 -1.978203e-02 -2.000463e-02 -2.033698e-02 -2.042098e-02 -2.061525e-02 -2.056002e-02 -2.061525e-02 -2.042098e-02 -2.033698e-02 -2.000463e-02 -1.978203e-02 -1.931332e-02 -1.895349e-02 -1.835093e-02 -1.785601e-02 -1.712283e-02 -1.649571e-02 -1.563586e-02 -1.488013e-02 -1.389823e-02 -1.301819e-02 -1.191949e-02 -1.092005e-02 -9.710408e-03 -8.597096e-03 -7.282891e-03 -6.061777e-03 -4.649881e-03 -3.327531e-03 -1.825241e-03 -4.086574e-04 1.176365e-03 2.679802e-03 4.339596e-03 5.922188e-03 7.648560e-03 9.302359e-03 1.108694e-02 1.280381e-02 1.463815e-02 1.640982e-02 1.828540e-02 2.010357e-02 2.201192e-02 2.386826e-02 2.580101e-02 2.768725e-02 2.963616e-02 3.154419e-02 3.350124e-02 3.542309e-02 3.738050e-02 3.930845e-02 4.125877e-02 4.318536e-02 4.512148e-02 4.703958e-02 4.895477e-02 5.085760e-02 5.274558e-02 5.462675e-02 5.648166e-02 5.833521e-02 6.015168e-02 6.197207e-02 6.374521e-02 6.552739e-02 6.725282e-02 6.899218e-02 7.066602e-02 7.235846e-02 7.397733e-02 7.561922e-02 7.718024e-02 7.876843e-02 8.026923e-02 8.180104e-02 8.323970e-02 8.471293e-02 8.608802e-02 8.750089e-02 8.881139e-02 9.016258e-02 9.140788e-02 9.269647e-02 9.387637e-02 9.510181e-02 9.621645e-02 9.737855e-02 9.842838e-02 9.952731e-02 1.005131e-01 1.015493e-01 1.024720e-01 1.034461e-01 1.043070e-01 1.052201e-01 1.060205e-01 1.068736e-01 1.076151e-01 1.084097e-01 1.090940e-01 1.098313e-01 1.104601e-01 1.111419e-01 1.117170e-01 1.123448e-01 1.128680e-01 1.134435e-01 1.139166e-01 1.144416e-01 1.148663e-01 1.153423e-01 1.157205e-01 1.161492e-01 1.164823e-01 1.168653e-01 1.171549e-01 1.174937e-01 1.177411e-01 1.180371e-01 1.182436e-01 1.184981e-01 1.186646e-01 1.188787e-01 1.190063e-01 1.191809e-01 1.192702e-01 1.194062e-01 1.194578e-01 1.195557e-01 1.195699e-01 1.196303e-01 
1.070946e-01 1.071249e-01 1.070475e-01 1.070309e-01 1.069062e-01 1.068425e-01 1.066701e-01 1.065590e-01 1.063383e-01 1.061792e-01 1.059096e-01 1.057018e-01 1.053822e-01 1.051250e-01 1.047544e-01 1.044466e-01 1.040240e-01 1.036645e-01 1.031884e-01 1.027760e-01 1.022451e-01 1.017783e-01 1.011911e-01 1.006684e-01 1.000235e-01 9.944332e-02 9.873911e-02 9.809989e-02 9.733488e-02 9.663493e-02 9.580763e-02 9.504531e-02 9.415431e-02 9.332799e-02 9.237195e-02 9.148010e-02 9.045781e-02 8.949898e-02 8.840940e-02 8.738226e-02 8.622452e-02 8.512794e-02 8.390140e-02 8.273443e-02 8.143870e-02 8.020064e-02 7.883564e-02 7.752605e-02 7.609199e-02 7.471077e-02 7.320822e-02 7.175558e-02 7.018551e-02 6.866205e-02 6.702581e-02 6.543255e-02 6.373193e-02 6.207031e-02 6.030755e-02 5.857946e-02 5.675728e-02 5.496512e-02 5.308671e-02 5.123336e-02 4.930241e-02 4.739127e-02 4.541196e-02 4.344695e-02 4.142398e-02 3.940955e-02 3.734811e-02 3.528923e-02 3.319499e-02 3.109715e-02 2.897626e-02 2.684547e-02 2.470454e-02 2.254728e-02 2.039333e-02 1.821655e-02 1.605702e-02 1.386811e-02 1.171080e-02 9.517540e-03 7.370573e-03 5.181100e-03 3.052866e-03 8.756396e-04 -1.225239e-03 -3.381504e-03 -5.446232e-03 -7.572616e-03 -9.592283e-03 -1.167972e-02 -1.364536e-02 -1.568470e-02 -1.758737e-02 -1.956945e-02 -2.140026e-02 -2.331596e-02 -2.506618e-02 -2.690650e-02 -2.856760e-02 -3.032374e-02 -3.188749e-02 -3.355090e-02 -3.500938e-02 -3.657183e-02 -3.791756e-02 -3.937123e-02 -4.059718e-02 -4.193471e-02 -4.303441e-02 -4.424895e-02 -4.521648e-02 -4.630178e-02 -4.713190e-02 -4.808231e-02 -4.877045e-02 -4.958103e-02 -5.012336e-02 -5.078988e-02 -5.118331e-02 -5.170232e-02 -5.194457e-02 -5.231339e-02 -5.240299e-02 -5.261976e-02 -5.255608e-02 -5.261976e-02 -5.240299e-02 -5.231339e-02 -5.194457e-02 -5.170232e-02 -5.118331e-02 -5.078988e-02 -5.012336e-02 -4.958103e-02 -4.877045e-02 -4.808231e-02 -4.713190e-02 -4.630178e-02 -4.521648e-02 -4.424895e-02 -4.303441e-02 -4.193471e-02 -4.059718e-02 -3.937123e-02 -3.791756e-02 -3.657183e-02 -3.500938e-02 -3.355090e-02 -3.188749e-02 -3.032374e-02 -2.856760e-02 -2.690650e-02 -2.506618e-02 -2.331596e-02 -2.140026e-02 -1.956945e-02 -1.758737e-02 -1.568470e-02 -1.364536e-02 -1.167972e-02 -9.592283e-03 -7.572616e-03 -5.446232e-03 -3.381504e-03 -1.225239e-03 8.756396e-04 3.052866e-03 5.181100e-03 7.370573e-03 9.517540e-03 1.171080e-02 1.386811e-02 1.605702e-02 1.821655e-02 2.039333e-02 2.254728e-02 2.470454e-02 2.684547e-02 2.897626e-02 3.109715e-02 3.319499e-02 3.528923e-02 3.734811e-02 3.940955e-02 4.142398e-02 4.344695e-02 4.541196e-02 4.739127e-02 4.930241e-02 5.123336e-02 5.308671e-02 5.496512e-02 5.675728e-02 5.857946e-02 6.030755e-02 6.207031e-02 6.373193e-02 6.543255e-02 6.702581e-02 6.866205e-02 7.018551e-02 7.175558e-02 7.320822e-02 7.471077e-02 7.609199e-02 7.752605e-02 7.883564e-02 8.020064e-02 8.143870e-02 8.273443e-02 8.390140e-02 8.512794e-02 8.622452e-02 8.738226e-02 8.840940e-02 8.949898e-02 9.045781e-02 9.148010e-02 9.237195e-02 9.332799e-02 9.415431e-02 9.504531e-02 9.580763e-02 9.663493e-02 9.733488e-02 9.809989e-02 9.873911e-02 9.944332e-02 1.000235e-01 1.006684e-01 1.011911e-01 1.017783e-01 1.022451e-01 1.027760e-01 1.031884e-01 1.036645e-01 1.040240e-01 1.044466e-01 1.047544e-01 1.051250e-01 1.053822e-01 1.057018e-01 1.059096e-01 1.061792e-01 1.063383e-01 1.065590e-01 1.066701e-01 1.068425e-01 1.069062e-01 1.070309e-01 1.070475e-01 1.071249e-01 
9.546076e-02 9.551453e-02 9.540479e-02 9.540259e-02 9.523670e-02 9.517837e-02 9.495598e-02 9.484116e-02 9.456176e-02 9.438994e-02 9.405287e-02 9.382337e-02 9.342782e-02 9.313978e-02 9.268481e-02 9.233726e-02 9.182181e-02 9.141361e-02 9.083653e-02 9.036645e-02 8.972651e-02 8.919318e-02 8.848910e-02 8.789110e-02 8.712156e-02 8.645740e-02 8.562106e-02 8.488921e-02 8.398477e-02 8.318369e-02 8.220990e-02 8.133808e-02 8.029375e-02 7.934971e-02 7.823377e-02 7.721614e-02 7.602766e-02 7.493517e-02 7.367339e-02 7.250492e-02 7.116930e-02 6.992392e-02 6.851415e-02 6.719116e-02 6.570719e-02 6.430616e-02 6.274827e-02 6.126904e-02 5.963784e-02 5.808059e-02 5.637706e-02 5.474235e-02 5.296786e-02 5.125664e-02 4.941299e-02 4.762664e-02 4.571607e-02 4.385643e-02 4.188166e-02 3.995104e-02 3.791526e-02 3.591650e-02 3.382340e-02 3.175985e-02 2.961364e-02 2.748917e-02 2.529456e-02 2.311360e-02 2.087581e-02 1.864334e-02 1.636810e-02 1.408963e-02 1.178317e-02 9.464750e-03 7.133783e-03 4.781980e-03 2.433667e-03 5.555812e-05 -2.302503e-03 -4.699369e-03 -7.059181e-03 -9.466811e-03 -1.182002e-02 -1.423001e-02 -1.656793e-02 -1.897154e-02 -2.128522e-02 -2.367336e-02 -2.595364e-02 -2.831698e-02 -3.055453e-02 -3.288354e-02 -3.506892e-02 -3.735392e-02 -3.947767e-02 -4.170891e-02 -4.376157e-02 -4.592930e-02 -4.790153e-02 -4.999606e-02 -5.187867e-02 -5.389045e-02 -5.567449e-02 -5.759418e-02 -5.927099e-02 -6.108952e-02 -6.265084e-02 -6.435951e-02 -6.579749e-02 -6.738801e-02 -6.869531e-02 -7.015989e-02 -7.132975e-02 -7.266114e-02 -7.368741e-02 -7.487899e-02 -7.575619e-02 -7.680200e-02 -7.752540e-02 -7.842019e-02 -7.898579e-02 -7.972509e-02 -8.012973e-02 -8.070985e-02 -8.095118e-02 -8.136927e-02 -8.144580e-02 -8.169985e-02 -8.161096e-02 -8.169985e-02 -8.144580e-02 -8.136927e-02 -8.095118e-02 -8.070985e-02 -8.012973e-02 -7.972509e-02 -7.898579e-02 -7.842019e-02 -7.752540e-02 -7.680200e-02 -7.575619e-02 -7.487899e-02 -7.368741e-02 -7.266114e-02 -7.132975e-02 -7.015989e-02 -6.869531e-02 -6.738801e-02 -6.579749e-02 -6.435951e-02 -6.265084e-02 -6.108952e-02 -5.927099e-02 -5.759418e-02 -5.567449e-02 -5.389045e-02 -5.187867e-02 -4.999606e-02 -4.790153e-02 -4.592930e-02 -4.376157e-02 -4.170891e-02 -3.947767e-02 -3.735392e-02 -3.506892e-02 -3.288354e-02 -3.055453e-02 -2.831698e-02 -2.595364e-02 -2.367336e-02 -2.128522e-02 -1.897154e-02 -1.656793e-02 -1.423001e-02 -1.182002e-02 -9.466811e-03 -7.059181e-03 -4.699368e-03 -2.302503e-03 5.555814e-05 2.433667e-03 4.781980e-03 7.133783e-03 9.464750e-03 1.178317e-02 1.408963e-02 1.636810e-02 1.864334e-02 2.087581e-02 2.311360e-02 2.529456e-02 2.748917e-02 2.961364e-02 3.175985e-02 3.382340e-02 3.591650e-02 3.791526e-02 3.995104e-02 4.188166e-02 4.385643e-02 4.571607e-02 4.762664e-02 4.941299e-02 5.125664e-02 5.296786e-02 5.474235e-02 5.637706e-02 5.808059e-02 5.963784e-02 6.126904e-02 6.274827e-02 6.430616e-02 6.570719e-02 6.719116e-02 6.851415e-02 6.992392e-02 7.116930e-02 7.250492e-02 7.367339e-02 7.493517e-02 7.602766e-02 7.721614e-02 7.823377e-02 7.934971e-02 8.029375e-02 8.133808e-02 8.220990e-02 8.318369e-02 8.398477e-02 8.488921e-02 8.562106e-02 8.645740e-02 8.712156e-02 8.789110e-02 8.848910e-02 8.919318e-02 8.972651e-02 9.036645e-02 9.083653e-02 9.141361e-02 9.182181e-02 9.233726e-02 9.268481e-02 9.313978e-02 9.342782e-02 9.382337e-02 9.405287e-02 9.438994e-02 9.456176e-02 9.484116e-02 9.495598e-02 9.517837e-02 9.523670e-02 9.540259e-02 9.540479e-02 9.551453e-02 
8.300610e-02 8.306700e-02 8.294032e-02 8.293544e-02 8.274282e-02 8.267198e-02 8.241310e-02 8.227598e-02 8.195038e-02 8.174647e-02 8.135353e-02 8.108219e-02 8.062116e-02 8.028158e-02 7.975161e-02 7.934286e-02 7.874297e-02 7.826399e-02 7.759313e-02 7.704275e-02 7.629981e-02 7.567677e-02 7.486059e-02 7.416356e-02 7.327296e-02 7.250057e-02 7.153439e-02 7.068524e-02 6.964235e-02 6.871505e-02 6.759437e-02 6.658756e-02 6.538813e-02 6.430054e-02 6.302150e-02 6.185193e-02 6.049261e-02 5.924001e-02 5.779992e-02 5.646341e-02 5.494228e-02 5.352119e-02 5.191903e-02 5.041293e-02 4.873001e-02 4.713875e-02 4.537572e-02 4.369947e-02 4.185730e-02 4.009659e-02 3.817665e-02 3.633239e-02 3.433648e-02 3.241001e-02 3.034036e-02 2.833347e-02 2.619279e-02 2.410776e-02 2.189924e-02 1.973884e-02 1.746619e-02 1.523373e-02 1.290117e-02 1.060050e-02 8.212776e-03 5.848317e-03 3.410704e-03 9.874246e-04 -1.494263e-03 -3.970818e-03 -6.490246e-03 -9.013970e-03 -1.156429e-02 -1.412852e-02 -1.670240e-02 -1.929994e-02 -2.188956e-02 -2.451268e-02 -2.710980e-02 -2.975029e-02 -3.234623e-02 -3.499544e-02 -3.758118e-02 -4.023001e-02 -4.279620e-02 -4.543521e-02 -4.797221e-02 -5.059163e-02 -5.308960e-02 -5.567939e-02 -5.812834e-02 -6.067827e-02 -6.306809e-02 -6.556779e-02 -6.788835e-02 -7.032739e-02 -7.256859e-02 -7.493654e-02 -7.708842e-02 -7.937492e-02 -8.142767e-02 -8.362253e-02 -8.556661e-02 -8.765986e-02 -8.948607e-02 -9.146804e-02 -9.316757e-02 -9.502899e-02 -9.659349e-02 -9.832554e-02 -9.974721e-02 -1.013416e-01 -1.026132e-01 -1.040622e-01 -1.051773e-01 -1.064739e-01 -1.074266e-01 -1.085644e-01 -1.093497e-01 -1.103231e-01 -1.109369e-01 -1.117411e-01 -1.121799e-01 -1.128111e-01 -1.130724e-01 -1.135275e-01 -1.136097e-01 -1.138866e-01 -1.137891e-01 -1.138866e-01 -1.136097e-01 -1.135275e-01 -1.130724e-01 -1.128111e-01 -1.121799e-01 -1.117411e-01 -1.109369e-01 -1.103231e-01 -1.093497e-01 -1.085644e-01 -1.074266e-01 -1.064739e-01 -1.051773e-01 -1.040622e-01 -1.026132e-01 -1.013416e-01 -9.974721e-02 -9.832554e-02 -9.659349e-02 -9.502899e-02 -9.316757e-02 -9.146804e-02 -8.948607e-02 -8.765986e-02 -8.556661e-02 -8.362253e-02 -8.142767e-02 -7.937492e-02 -7.708842e-02 -7.493654e-02 -7.256859e-02 -7.032739e-02 -6.788835e-02 -6.556779e-02 -6.306809e-02 -6.067827e-02 -5.812834e-02 -5.567939e-02 -5.308960e-02 -5.059163e-02 -4.797221e-02 -4.543521e-02 -4.279620e-02 -4.023001e-02 -3.758118e-02 -3.499544e-02 -3.234623e-02 -2.975029e-02 -2.710980e-02 -2.451268e-02 -2.188956e-02 -1.929994e-02 -1.670240e-02 -1.412852e-02 -1.156429e-02 -9.013970e-03 -6.490246e-03 -3.970818e-03 -1.494263e-03 9.874246e-04 3.410704e-03 5.848317e-03 8.212776e-03 1.060050e-02 1.290117e-02 1.523373e-02 1.746619e-02 1.973884e-02 2.189924e-02 2.410776e-02 2.619279e-02 2.833347e-02 3.034036e-02 3.241001e-02 3.433648e-02 3.633239e-02 3.817665e-02 4.009659e-02 4.185730e-02 4.369947e-02 4.537572e-02 4.713875e-02 4.873001e-02 5.041293e-02 5.191903e-02 5.352119e-02 5.494228e-02 5.646341e-02 5.779992e-02 5.924001e-02 6.049261e-02 6.185193e-02 6.302150e-02 6.430054e-02 6.538813e-02 6.658756e-02 6.759437e-02 6.871505e-02 6.964235e-02 7.068524e-02 7.153439e-02 7.250057e-02 7.327296e-02 7.416356e-02 7.486059e-02 7.567677e-02 7.629981e-02 7.704275e-02 7.759313e-02 7.826399e-02 7.874297e-02 7.934286e-02 7.975161e-02 8.028158e-02 8.062116e-02 8.108219e-02 8.135353e-02 8.174647e-02 8.195038e-02 8.227598e-02 8.241310e-02 8.267198e-02 8.274282e-02 8.293544e-02 8.294032e-02 8.306700e-02 