# vtk DataFile Version 2.0
Comment goes here
ASCII

DATASET STRUCTURED_POINTS
FIELD FieldData 1
TIME 1 1 double
0.09000000
DIMENSIONS    256   256   1

ORIGIN    0.000   0.000   0.000
SPACING   0.0039062 0.0039062   1.000

POINT_DATA   65536
VECTORS u double

0.000000 -0.271086 0.000000 -0.000246 -0.271131 0.000000 -0.000492 -0.271269 0.000000 -0.000738 -0.271496 0.000000 -0.000984 -0.271817 0.000000 -0.001230 -0.272226 0.000000 -0.001475 -0.272729 0.000000 -0.001719 -0.273320 0.000000 -0.001964 -0.274004 0.000000 -0.002207 -0.274776 0.000000 -0.002450 -0.275640 0.000000 -0.002692 -0.276591 0.000000 -0.002934 -0.277633 0.000000 -0.003174 -0.278762 0.000000 -0.003414 -0.279981 0.000000 -0.003652 -0.281286 0.000000 -0.003890 -0.282680 0.000000 -0.004126 -0.284158 0.000000 -0.004361 -0.285724 0.000000 -0.004595 -0.287374 0.000000 -0.004826 -0.289109 0.000000 -0.005057 -0.290927 0.000000 -0.005286 -0.292829 0.000000 -0.005513 -0.294811 0.000000 -0.005738 -0.296877 0.000000 -0.005961 -0.299020 0.000000 -0.006182 -0.301245 0.000000 -0.006401 -0.303546 0.000000 -0.006618 -0.305926 0.000000 -0.006832 -0.308380 0.000000 -0.007044 -0.310911 0.000000 -0.007253 -0.313513 0.000000 -0.007460 -0.316190 0.000000 -0.007663 -0.318936 0.000000 -0.007864 -0.321754 0.000000 -0.008061 -0.324638 0.000000 -0.008256 -0.327591 0.000000 -0.008447 -0.330608 0.000000 -0.008634 -0.333690 0.000000 -0.008818 -0.336834 0.000000 -0.008998 -0.340039 0.000000 -0.009174 -0.343303 0.000000 -0.009346 -0.346625 0.000000 -0.009515 -0.350002 0.000000 -0.009678 -0.353434 0.000000 -0.009838 -0.356917 0.000000 -0.009993 -0.360451 0.000000 -0.010143 -0.364033 0.000000 -0.010288 -0.367662 0.000000 -0.010428 -0.371334 0.000000 -0.010564 -0.375050 0.000000 -0.010694 -0.378806 0.000000 -0.010818 -0.382601 0.000000 -0.010937 -0.386431 0.000000 -0.011050 -0.390295 0.000000 -0.011158 -0.394191 0.000000 -0.011259 -0.398117 0.000000 -0.011355 -0.402069 0.000000 -0.011444 -0.406047 0.000000 -0.011527 -0.410047 0.000000 -0.011604 -0.414068 0.000000 -0.011673 -0.418106 0.000000 -0.011737 -0.422160 0.000000 -0.011793 -0.426227 0.000000 -0.011842 -0.430304 0.000000 -0.011884 -0.434389 0.000000 -0.011919 -0.438479 0.000000 -0.011947 -0.442573 0.000000 -0.011968 -0.446667 0.000000 -0.011980 -0.450759 0.000000 -0.011986 -0.454846 0.000000 -0.011983 -0.458926 0.000000 -0.011973 -0.462996 0.000000 -0.011956 -0.467053 0.000000 -0.011930 -0.471096 0.000000 -0.011896 -0.475121 0.000000 -0.011854 -0.479125 0.000000 -0.011805 -0.483107 0.000000 -0.011747 -0.487063 0.000000 -0.011681 -0.490991 0.000000 -0.011607 -0.494889 0.000000 -0.011525 -0.498753 0.000000 -0.011434 -0.502582 0.000000 -0.011336 -0.506372 0.000000 -0.011229 -0.510121 0.000000 -0.011114 -0.513828 0.000000 -0.010991 -0.517488 0.000000 -0.010860 -0.521101 0.000000 -0.010720 -0.524662 0.000000 -0.010573 -0.528171 0.000000 -0.010418 -0.531623 0.000000 -0.010254 -0.535019 0.000000 -0.010084 -0.538354 0.000000 -0.009905 -0.541627 0.000000 -0.009718 -0.544834 0.000000 -0.009524 -0.547976 0.000000 -0.009323 -0.551047 0.000000 -0.009114 -0.554049 0.000000 -0.008898 -0.556976 0.000000 -0.008675 -0.559830 0.000000 -0.008445 -0.562604 0.000000 -0.008208 -0.565301 0.000000 -0.007965 -0.567915 0.000000 -0.007715 -0.570449 0.000000 -0.007458 -0.572896 0.000000 -0.007196 -0.575258 0.000000 -0.006928 -0.577531 0.000000 -0.006654 -0.579716 0.000000 -0.006374 -0.581808 0.000000 -0.006090 -0.583809 0.000000 -0.005800 -0.585715 0.000000 -0.005505 -0.587527 0.000000 -0.005206 -0.589240 0.000000 -0.004902 -0.590858 0.000000 -0.004595 -0.592375 0.000000 -0.004283 -0.593794 0.000000 -0.003968 -0.595110 0.000000 -0.003649 -0.596327 0.000000 -0.003327 -0.597438 0.000000 -0.003003 -0.598448 0.000000 -0.002676 -0.599351 0.000000 -0.002346 -0.600152 0.000000 -0.002015 -0.600845 0.000000 -0.001682 -0.601434 0.000000 -0.001347 -0.601915 0.000000 -0.001011 -0.602291 0.000000 -0.000675 -0.602558 0.000000 -0.000337 -0.602720 0.000000 -0.000000 -0.602773 0.000000 0.000337 -0.602720 0.000000 0.000675 -0.602558 0.000000 0.001011 -0.602291 0.000000 0.001347 -0.601915 0.000000 0.001682 -0.601434 0.000000 0.002015 -0.600845 0.000000 0.002346 -0.600152 0.000000 0.002676 -0.599351 0.000000 0.003003 -0.598448 0.000000 0.003327 -0.597438 0.000000 0.003649 -0.596327 0.000000 0.003968 -0.595110 0.000000 0.004283 -0.593794 0.000000 0.004595 -0.592375 0.000000 0.004902 -0.590858 0.000000 0.005206 -0.589240 0.000000 0.005505 -0.587527 0.000000 0.005800 -0.585715 0.000000 0.006090 -0.583809 0.000000 0.006374 -0.581808 0.000000 0.006654 -0.579716 0.000000 0.006928 -0.577531 0.000000 0.007196 -0.575258 0.000000 0.007458 -0.572896 0.000000 0.007715 -0.570449 0.000000 0.007965 -0.567915 0.000000 0.008208 -0.565301 0.000000 0.008445 -0.562604 0.000000 0.008675 -0.559830 0.000000 0.008898 -0.556976 0.000000 0.009114 -0.554049 0.000000 0.009323 -0.551047 0.000000 0.009524 -0.547976 0.000000 0.009718 -0.544834 0.000000 0.009905 -0.541627 0.000000 0.010084 -0.538354 0.000000 0.010254 -0.535019 0.000000 0.010418 -0.531623 0.000000 0.010573 -0.528171 0.000000 0.010720 -0.524662 0.000000 0.010860 -0.521101 0.000000 0.010991 -0.517488 0.000000 0.011114 -0.513828 0.000000 0.011229 -0.510121 0.000000 0.011336 -0.506372 0.000000 0.011434 -0.502582 0.000000 0.011525 -0.498753 0.000000 0.011607 -0.494889 0.000000 0.011681 -0.490991 0.000000 0.011747 -0.487063 0.000000 0.011805 -0.483107 0.000000 0.011854 -0.479125 0.000000 0.011896 -0.475121 0.000000 0.011930 -0.471096 0.000000 0.011956 -0.467053 0.000000 0.011973 -0.462996 0.000000 0.011983 -0.458926 0.000000 0.011986 -0.454846 0.000000 0.011980 -0.450759 0.000000 0.011968 -0.446667 0.000000 0.011947 -0.442573 0.000000 0.011919 -0.438479 0.000000 0.011884 -0.434389 0.000000 0.011842 -0.430304 0.000000 0.011793 -0.426227 0.000000 0.011737 -0.422160 0.000000 0.011673 -0.418106 0.000000 0.011604 -0.414068 0.000000 0.011527 -0.410047 0.000000 0.011444 -0.406047 0.000000 0.011355 -0.402069 0.000000 0.011259 -0.398117 0.000000 0.011158 -0.394191 0.000000 0.011050 -0.390295 0.000000 0.010937 -0.386431 0.000000 0.010818 -0.382601 0.000000 0.010694 -0.378806 0.000000 0.010564 -0.375050 0.000000 0.010428 -0.371334 0.000000 0.010288 -0.367662 0.000000 0.010143 -0.364033 0.000000 0.009993 -0.360451 0.000000 0.009838 -0.356917 0.000000 0.009678 -0.353434 0.000000 0.009515 -0.350002 0.000000 0.009346 -0.346625 0.000000 0.009174 -0.343303 0.000000 0.008998 -0.340039 0.000000 0.008818 -0.336834 0.000000 0.008634 -0.333690 0.000000 0.008447 -0.330608 0.000000 0.008256 -0.327591 0.000000 0.008061 -0.324638 0.000000 0.007864 -0.321754 0.000000 0.007663 -0.318936 0.000000 0.007460 -0.316190 0.000000 0.007253 -0.313513 0.000000 0.007044 -0.310911 0.000000 0.006832 -0.308380 0.000000 0.006618 -0.305926 0.000000 0.006401 -0.303546 0.000000 0.006182 -0.301245 0.000000 0.005961 -0.299020 0.000000 0.005738 -0.296877 0.000000 0.005513 -0.294811 0.000000 0.005286 -0.292829 0.000000 0.005057 -0.290927 0.000000 0.004826 -0.289109 0.000000 0.004595 -0.287374 0.000000 0.004361 -0.285724 0.000000 0.004126 -0.284158 0.000000 0.003890 -0.282680 0.000000 0.003652 -0.281286 0.000000 0.003414 -0.279981 0.000000 0.003174 -0.278762 0.000000 0.002934 -0.277633 0.000000 0.002692 -0.276591 0.000000 0.002450 -0.275640 0.000000 0.002207 -0.274776 0.000000 0.001964 -0.274004 0.000000 0.001719 -0.273320 0.000000 0.001475 -0.272729 0.000000 0.001230 -0.272226 0.000000 0.000984 -0.271817 0.000000 0.000738 -0.271496 0.000000 0.000492 -0.271269 0.000000 0.000246 -0.271131 0.000000 
0.000000 -0.270794 0.000000 -0.000338 -0.270839 0.000000 -0.000675 -0.270977 0.000000 -0.001012 -0.271205 0.000000 -0.001349 -0.271526 0.000000 -0.001686 -0.271936 0.000000 -0.002022 -0.272439 0.000000 -0.002357 -0.273031 0.000000 -0.002692 -0.273715 0.000000 -0.003026 -0.274488 0.000000 -0.003358 -0.275353 0.000000 -0.003690 -0.276305 0.000000 -0.004020 -0.277348 0.000000 -0.004349 -0.278478 0.000000 -0.004677 -0.279699 0.000000 -0.005003 -0.281005 0.000000 -0.005327 -0.282400 0.000000 -0.005649 -0.283880 0.000000 -0.005970 -0.285448 0.000000 -0.006288 -0.287099 0.000000 -0.006604 -0.288837 0.000000 -0.006918 -0.290656 0.000000 -0.007229 -0.292561 0.000000 -0.007538 -0.294545 0.000000 -0.007844 -0.296613 0.000000 -0.008147 -0.298759 0.000000 -0.008447 -0.300986 0.000000 -0.008744 -0.303290 0.000000 -0.009037 -0.305673 0.000000 -0.009327 -0.308130 0.000000 -0.009613 -0.310664 0.000000 -0.009895 -0.313270 0.000000 -0.010173 -0.315950 0.000000 -0.010447 -0.318700 0.000000 -0.010717 -0.321521 0.000000 -0.010983 -0.324409 0.000000 -0.011243 -0.327366 0.000000 -0.011499 -0.330387 0.000000 -0.011750 -0.333474 0.000000 -0.011995 -0.336622 0.000000 -0.012235 -0.339832 0.000000 -0.012470 -0.343100 0.000000 -0.012699 -0.346427 0.000000 -0.012922 -0.349809 0.000000 -0.013139 -0.353246 0.000000 -0.013350 -0.356735 0.000000 -0.013554 -0.360275 0.000000 -0.013752 -0.363862 0.000000 -0.013943 -0.367497 0.000000 -0.014127 -0.371176 0.000000 -0.014303 -0.374898 0.000000 -0.014473 -0.378660 0.000000 -0.014634 -0.382461 0.000000 -0.014789 -0.386298 0.000000 -0.014935 -0.390169 0.000000 -0.015073 -0.394072 0.000000 -0.015203 -0.398005 0.000000 -0.015325 -0.401965 0.000000 -0.015438 -0.405950 0.000000 -0.015542 -0.409958 0.000000 -0.015638 -0.413986 0.000000 -0.015724 -0.418032 0.000000 -0.015802 -0.422094 0.000000 -0.015870 -0.426169 0.000000 -0.015928 -0.430254 0.000000 -0.015977 -0.434348 0.000000 -0.016017 -0.438447 0.000000 -0.016046 -0.442549 0.000000 -0.016066 -0.446652 0.000000 -0.016075 -0.450752 0.000000 -0.016075 -0.454848 0.000000 -0.016064 -0.458937 0.000000 -0.016043 -0.463016 0.000000 -0.016011 -0.467083 0.000000 -0.015969 -0.471134 0.000000 -0.015917 -0.475169 0.000000 -0.015853 -0.479182 0.000000 -0.015779 -0.483173 0.000000 -0.015695 -0.487139 0.000000 -0.015600 -0.491077 0.000000 -0.015494 -0.494983 0.000000 -0.015377 -0.498857 0.000000 -0.015250 -0.502695 0.000000 -0.015111 -0.506495 0.000000 -0.014963 -0.510254 0.000000 -0.014803 -0.513970 0.000000 -0.014633 -0.517639 0.000000 -0.014452 -0.521261 0.000000 -0.014261 -0.524832 0.000000 -0.014059 -0.528350 0.000000 -0.013848 -0.531811 0.000000 -0.013625 -0.535216 0.000000 -0.013393 -0.538559 0.000000 -0.013150 -0.541842 0.000000 -0.012898 -0.545057 0.000000 -0.012636 -0.548208 0.000000 -0.012365 -0.551288 0.000000 -0.012084 -0.554298 0.000000 -0.011793 -0.557233 0.000000 -0.011494 -0.560094 0.000000 -0.011186 -0.562876 0.000000 -0.010868 -0.565581 0.000000 -0.010543 -0.568203 0.000000 -0.010209 -0.570744 0.000000 -0.009867 -0.573197 0.000000 -0.009518 -0.575567 0.000000 -0.009161 -0.577846 0.000000 -0.008796 -0.580037 0.000000 -0.008425 -0.582135 0.000000 -0.008047 -0.584143 0.000000 -0.007662 -0.586054 0.000000 -0.007271 -0.587871 0.000000 -0.006875 -0.589590 0.000000 -0.006473 -0.591213 0.000000 -0.006065 -0.592734 0.000000 -0.005653 -0.594157 0.000000 -0.005236 -0.595477 0.000000 -0.004815 -0.596697 0.000000 -0.004390 -0.597812 0.000000 -0.003961 -0.598825 0.000000 -0.003529 -0.599731 0.000000 -0.003094 -0.600534 0.000000 -0.002657 -0.601229 0.000000 -0.002218 -0.601820 0.000000 -0.001776 -0.602302 0.000000 -0.001333 -0.602680 0.000000 -0.000890 -0.602948 0.000000 -0.000445 -0.603110 0.000000 -0.000000 -0.603163 0.000000 0.000445 -0.603110 0.000000 0.000890 -0.602948 0.000000 0.001333 -0.602680 0.000000 0.001776 -0.602302 0.000000 0.002218 -0.601820 0.000000 0.002657 -0.601229 0.000000 0.003094 -0.600534 0.000000 0.003529 -0.599731 0.000000 0.003961 -0.598825 0.000000 0.004390 -0.597812 0.000000 0.004815 -0.596697 0.000000 0.005236 -0.595477 0.000000 0.005653 -0.594157 0.000000 0.006065 -0.592734 0.000000 0.006473 -0.591213 0.000000 0.006875 -0.589590 0.000000 0.007271 -0.587871 0.000000 0.007662 -0.586054 0.000000 0.008047 -0.584143 0.000000 0.008425 -0.582135 0.000000 0.008796 -0.580037 0.000000 0.009161 -0.577846 0.000000 0.009518 -0.575567 0.000000 0.009867 -0.573197 0.000000 0.010209 -0.570744 0.000000 0.010543 -0.568203 0.000000 0.010868 -0.565581 0.000000 0.011186 -0.562876 0.000000 0.011494 -0.560094 0.000000 0.011793 -0.557233 0.000000 0.012084 -0.554298 0.000000 0.012365 -0.551288 0.000000 0.012636 -0.548208 0.000000 0.012898 -0.545057 0.000000 0.013150 -0.541842 0.000000 0.013393 -0.538559 0.000000 0.013625 -0.535216 0.000000 0.013848 -0.531811 0.000000 0.014059 -0.528350 0.000000 0.014261 -0.524832 0.000000 0.014452 -0.521261 0.000000 0.014633 -0.517639 0.000000 0.014803 -0.513970 0.000000 0.014963 -0.510254 0.000000 0.015111 -0.506495 0.000000 0.015250 -0.502695 0.000000 0.015377 -0.498857 0.000000 0.015494 -0.494983 0.000000 0.015600 -0.491077 0.000000 0.015695 -0.487139 0.000000 0.015779 -0.483173 0.000000 0.015853 -0.479182 0.000000 0.015917 -0.475169 0.000000 0.015969 -0.471134 0.000000 0.016011 -0.467083 0.000000 0.016043 -0.463016 0.000000 0.016064 -0.458937 0.000000 0.016075 -0.454848 0.000000 0.016075 -0.450752 0.000000 0.016066 -0.446652 0.000000 0.016046 -0.442549 0.000000 0.016017 -0.438447 0.000000 0.015977 -0.434348 0.000000 0.015928 -0.430254 0.000000 0.015870 -0.426169 0.000000 0.015802 -0.422094 0.000000 0.015724 -0.418032 0.000000 0.015638 -0.413986 0.000000 0.015542 -0.409958 0.000000 0.015438 -0.405950 0.000000 0.015325 -0.401965 0.000000 0.015203 -0.398005 0.000000 0.015073 -0.394072 0.000000 0.014935 -0.390169 0.000000 0.014789 -0.386298 0.000000 0.014634 -0.382461 0.000000 0.014473 -0.378660 0.000000 0.014303 -0.374898 0.000000 0.014127 -0.371176 0.000000 0.013943 -0.367497 0.000000 0.013752 -0.363862 0.000000 0.013554 -0.360275 0.000000 0.013350 -0.356735 0.000000 0.013139 -0.353246 0.000000 0.012922 -0.349809 0.000000 0.012699 -0.346427 0.000000 0.012470 -0.343100 0.000000 0.012235 -0.339832 0.000000 0.011995 -0.336622 0.000000 0.011750 -0.333474 0.000000 0.011499 -0.330387 0.000000 0.011243 -0.327366 0.000000 0.010983 -0.324409 0.000000 0.010717 -0.321521 0.000000 0.010447 -0.318700 0.000000 0.010173 -0.315950 0.000000 0.009895 -0.313270 0.000000 0.009613 -0.310664 0.000000 0.009327 -0.308130 0.000000 0.009037 -0.305673 0.000000 0.008744 -0.303290 0.000000 0.008447 -0.300986 0.000000 0.008147 -0.298759 0.000000 0.007844 -0.296613 0.000000 0.007538 -0.294545 0.000000 0.007229 -0.292561 0.000000 0.006918 -0.290656 0.000000 0.006604 -0.288837 0.000000 0.006288 -0.287099 0.000000 0.005970 -0.285448 0.000000 0.005649 -0.283880 0.000000 0.005327 -0.282400 0.000000 0.005003 -0.281005 0.000000 0.004677 -0.279699 0.000000 0.004349 -0.278478 0.000000 0.004020 -0.277348 0.000000 0.003690 -0.276305 0.000000 0.003358 -0.275353 0.000000 0.003026 -0.274488 0.000000 0.002692 -0.273715 0.000000 0.002357 -0.273031 0.000000 0.002022 -0.272439 0.000000 0.001686 -0.271936 0.000000 0.001349 -0.271526 0.000000 0.001012 -0.271205 0.000000 0.000675 -0.270977 0.000000 0.000338 -0.270839 0.000000 
0.000000 -0.270411 0.000000 -0.000429 -0.270455 0.000000 -0.000858 -0.270594 0.000000 -0.001287 -0.270822 0.000000 -0.001715 -0.271143 0.000000 -0.002143 -0.271554 0.000000 -0.002570 -0.272057 0.000000 -0.002996 -0.272650 0.000000 -0.003421 -0.273336 0.000000 -0.003844 -0.274109 0.000000 -0.004267 -0.274975 0.000000 -0.004688 -0.275929 0.000000 -0.005107 -0.276974 0.000000 -0.005525 -0.278105 0.000000 -0.005940 -0.279328 0.000000 -0.006354 -0.280636 0.000000 -0.006765 -0.282033 0.000000 -0.007174 -0.283515 0.000000 -0.007580 -0.285085 0.000000 -0.007983 -0.286739 0.000000 -0.008384 -0.288479 0.000000 -0.008781 -0.290302 0.000000 -0.009175 -0.292209 0.000000 -0.009565 -0.294197 0.000000 -0.009952 -0.296268 0.000000 -0.010335 -0.298417 0.000000 -0.010713 -0.300648 0.000000 -0.011088 -0.302956 0.000000 -0.011458 -0.305343 0.000000 -0.011823 -0.307804 0.000000 -0.012184 -0.310342 0.000000 -0.012539 -0.312953 0.000000 -0.012890 -0.315638 0.000000 -0.013234 -0.318392 0.000000 -0.013573 -0.321219 0.000000 -0.013907 -0.324112 0.000000 -0.014234 -0.327075 0.000000 -0.014554 -0.330101 0.000000 -0.014869 -0.333194 0.000000 -0.015176 -0.336348 0.000000 -0.015476 -0.339564 0.000000 -0.015770 -0.342839 0.000000 -0.016055 -0.346173 0.000000 -0.016334 -0.349562 0.000000 -0.016604 -0.353006 0.000000 -0.016866 -0.356502 0.000000 -0.017120 -0.360049 0.000000 -0.017365 -0.363644 0.000000 -0.017602 -0.367287 0.000000 -0.017829 -0.370974 0.000000 -0.018048 -0.374704 0.000000 -0.018257 -0.378475 0.000000 -0.018456 -0.382285 0.000000 -0.018645 -0.386130 0.000000 -0.018825 -0.390011 0.000000 -0.018994 -0.393923 0.000000 -0.019152 -0.397865 0.000000 -0.019300 -0.401835 0.000000 -0.019437 -0.405830 0.000000 -0.019563 -0.409847 0.000000 -0.019678 -0.413886 0.000000 -0.019781 -0.417942 0.000000 -0.019873 -0.422015 0.000000 -0.019953 -0.426100 0.000000 -0.020021 -0.430196 0.000000 -0.020077 -0.434300 0.000000 -0.020121 -0.438411 0.000000 -0.020152 -0.442524 0.000000 -0.020171 -0.446638 0.000000 -0.020177 -0.450750 0.000000 -0.020171 -0.454857 0.000000 -0.020151 -0.458958 0.000000 -0.020119 -0.463048 0.000000 -0.020074 -0.467127 0.000000 -0.020016 -0.471190 0.000000 -0.019944 -0.475236 0.000000 -0.019859 -0.479262 0.000000 -0.019761 -0.483265 0.000000 -0.019650 -0.487243 0.000000 -0.019525 -0.491193 0.000000 -0.019388 -0.495111 0.000000 -0.019236 -0.498997 0.000000 -0.019072 -0.502847 0.000000 -0.018894 -0.506659 0.000000 -0.018703 -0.510430 0.000000 -0.018499 -0.514158 0.000000 -0.018282 -0.517839 0.000000 -0.018052 -0.521473 0.000000 -0.017809 -0.525055 0.000000 -0.017553 -0.528585 0.000000 -0.017284 -0.532058 0.000000 -0.017003 -0.535474 0.000000 -0.016709 -0.538828 0.000000 -0.016403 -0.542122 0.000000 -0.016085 -0.545348 0.000000 -0.015754 -0.548510 0.000000 -0.015413 -0.551600 0.000000 -0.015059 -0.554621 0.000000 -0.014694 -0.557566 0.000000 -0.014318 -0.560437 0.000000 -0.013932 -0.563229 0.000000 -0.013534 -0.565944 0.000000 -0.013127 -0.568575 0.000000 -0.012709 -0.571124 0.000000 -0.012282 -0.573587 0.000000 -0.011844 -0.575965 0.000000 -0.011398 -0.578252 0.000000 -0.010943 -0.580452 0.000000 -0.010480 -0.582557 0.000000 -0.010008 -0.584572 0.000000 -0.009529 -0.586490 0.000000 -0.009041 -0.588314 0.000000 -0.008547 -0.590039 0.000000 -0.008046 -0.591668 0.000000 -0.007539 -0.593195 0.000000 -0.007026 -0.594624 0.000000 -0.006507 -0.595948 0.000000 -0.005983 -0.597173 0.000000 -0.005455 -0.598291 0.000000 -0.004922 -0.599308 0.000000 -0.004385 -0.600218 0.000000 -0.003844 -0.601024 0.000000 -0.003301 -0.601722 0.000000 -0.002755 -0.602315 0.000000 -0.002207 -0.602799 0.000000 -0.001656 -0.603178 0.000000 -0.001105 -0.603447 0.000000 -0.000553 -0.603610 0.000000 -0.000000 -0.603663 0.000000 0.000553 -0.603610 0.000000 0.001105 -0.603447 0.000000 0.001656 -0.603178 0.000000 0.002207 -0.602799 0.000000 0.002755 -0.602315 0.000000 0.003301 -0.601722 0.000000 0.003844 -0.601024 0.000000 0.004385 -0.600218 0.000000 0.004922 -0.599308 0.000000 0.005455 -0.598291 0.000000 0.005983 -0.597173 0.000000 0.006507 -0.595948 0.000000 0.007026 -0.594624 0.000000 0.007539 -0.593195 0.000000 0.008046 -0.591668 0.000000 0.008547 -0.590039 0.000000 0.009041 -0.588314 0.000000 0.009529 -0.586490 0.000000 0.010008 -0.584572 0.000000 0.010480 -0.582557 0.000000 0.010943 -0.580452 0.000000 0.011398 -0.578252 0.000000 0.011844 -0.575965 0.000000 0.012282 -0.573587 0.000000 0.012709 -0.571124 0.000000 0.013127 -0.568575 0.000000 0.013534 -0.565944 0.000000 0.013932 -0.563229 0.000000 0.014318 -0.560437 0.000000 0.014694 -0.557566 0.000000 0.015059 -0.554621 0.000000 0.015413 -0.551600 0.000000 0.015754 -0.548510 0.000000 0.016085 -0.545348 0.000000 0.016403 -0.542122 0.000000 0.016709 -0.538828 0.000000 0.017003 -0.535474 0.000000 0.017284 -0.532058 0.000000 0.017553 -0.528585 0.000000 0.017809 -0.525055 0.000000 0.018052 -0.521473 0.000000 0.018282 -0.517839 0.000000 0.018499 -0.514158 0.000000 0.018703 -0.510430 0.000000 0.018894 -0.506659 0.000000 0.019072 -0.502847 0.000000 0.019236 -0.498997 0.000000 0.019388 -0.495111 0.000000 0.019525 -0.491193 0.000000 0.019650 -0.487243 0.000000 0.019761 -0.483265 0.000000 0.019859 -0.479262 0.000000 0.019944 -0.475236 0.000000 0.020016 -0.471190 0.000000 0.020074 -0.467127 0.000000 0.020119 -0.463048 0.000000 0.020151 -0.458958 0.000000 0.020171 -0.454857 0.000000 0.020177 -0.450750 0.000000 0.020171 -0.446638 0.000000 0.020152 -0.442524 0.000000 0.020121 -0.438411 0.000000 0.020077 -0.434300 0.000000 0.020021 -0.430196 0.000000 0.019953 -0.426100 0.000000 0.019873 -0.422015 0.000000 0.019781 -0.417942 0.000000 0.019678 -0.413886 0.000000 0.019563 -0.409847 0.000000 0.019437 -0.405830 0.000000 0.019300 -0.401835 0.000000 0.019152 -0.397865 0.000000 0.018994 -0.393923 0.000000 0.018825 -0.390011 0.000000 0.018645 -0.386130 0.000000 0.018456 -0.382285 0.000000 0.018257 -0.378475 0.000000 0.018048 -0.374704 0.000000 0.017829 -0.370974 0.000000 0.017602 -0.367287 0.000000 0.017365 -0.363644 0.000000 0.017120 -0.360049 0.000000 0.016866 -0.356502 0.000000 0.016604 -0.353006 0.000000 0.016334 -0.349562 0.000000 0.016055 -0.346173 0.000000 0.015770 -0.342839 0.000000 0.015476 -0.339564 0.000000 0.015176 -0.336348 0.000000 0.014869 -0.333194 0.000000 0.014554 -0.330101 0.000000 0.014234 -0.327075 0.000000 0.013907 -0.324112 0.000000 0.013573 -0.321219 0.000000 0.013234 -0.318392 0.000000 0.012890 -0.315638 0.000000 0.012539 -0.312953 0.000000 0.012184 -0.310342 0.000000 0.011823 -0.307804 0.000000 0.011458 -0.305343 0.000000 0.011088 -0.302956 0.000000 0.010713 -0.300648 0.000000 0.010335 -0.298417 0.000000 0.009952 -0.296268 0.000000 0.009565 -0.294197 0.000000 0.009175 -0.292209 0.000000 0.008781 -0.290302 0.000000 0.008384 -0.288479 0.000000 0.007983 -0.286739 0.000000 0.007580 -0.285085 0.000000 0.007174 -0.283515 0.000000 0.006765 -0.282033 0.000000 0.006354 -0.280636 0.000000 0.005940 -0.279328 0.000000 0.005525 -0.278105 0.000000 0.005107 -0.276974 0.000000 0.004688 -0.275929 0.000000 0.004267 -0.274975 0.000000 0.003844 -0.274109 0.000000 0.003421 -0.273336 0.000000 0.002996 -0.272650 0.000000 0.002570 -0.272057 0.000000 0.002143 -0.271554 0.000000 0.001715 -0.271143 0.000000 0.001287 -0.270822 0.000000 0.000858 -0.270594 0.000000 0.000429 -0.270455 0.000000 
0.000000 -0.269936 0.000000 -0.000521 -0.269981 0.000000 -0.001041 -0.270120 0.000000 -0.001562 -0.270348 0.000000 -0.002081 -0.270670 0.000000 -0.002600 -0.271081 0.000000 -0.003118 -0.271586 0.000000 -0.003635 -0.272180 0.000000 -0.004151 -0.272866 0.000000 -0.004665 -0.273642 0.000000 -0.005178 -0.274509 0.000000 -0.005688 -0.275464 0.000000 -0.006197 -0.276511 0.000000 -0.006703 -0.277645 0.000000 -0.007207 -0.278870 0.000000 -0.007708 -0.280180 0.000000 -0.008207 -0.281580 0.000000 -0.008702 -0.283065 0.000000 -0.009194 -0.284639 0.000000 -0.009682 -0.286295 0.000000 -0.010167 -0.288039 0.000000 -0.010648 -0.289865 0.000000 -0.011125 -0.291776 0.000000 -0.011597 -0.293768 0.000000 -0.012065 -0.295843 0.000000 -0.012528 -0.297997 0.000000 -0.012985 -0.300233 0.000000 -0.013438 -0.302545 0.000000 -0.013885 -0.304937 0.000000 -0.014326 -0.307404 0.000000 -0.014761 -0.309948 0.000000 -0.015191 -0.312564 0.000000 -0.015613 -0.315255 0.000000 -0.016029 -0.318016 0.000000 -0.016437 -0.320849 0.000000 -0.016839 -0.323749 0.000000 -0.017232 -0.326718 0.000000 -0.017618 -0.329752 0.000000 -0.017996 -0.332852 0.000000 -0.018366 -0.336014 0.000000 -0.018727 -0.339238 0.000000 -0.019079 -0.342521 0.000000 -0.019422 -0.345863 0.000000 -0.019755 -0.349261 0.000000 -0.020079 -0.352714 0.000000 -0.020393 -0.356219 0.000000 -0.020697 -0.359776 0.000000 -0.020990 -0.363380 0.000000 -0.021272 -0.367033 0.000000 -0.021544 -0.370730 0.000000 -0.021804 -0.374471 0.000000 -0.022053 -0.378252 0.000000 -0.022290 -0.382072 0.000000 -0.022515 -0.385929 0.000000 -0.022727 -0.389821 0.000000 -0.022928 -0.393744 0.000000 -0.023115 -0.397699 0.000000 -0.023289 -0.401680 0.000000 -0.023451 -0.405687 0.000000 -0.023599 -0.409717 0.000000 -0.023733 -0.413768 0.000000 -0.023853 -0.417837 0.000000 -0.023959 -0.421922 0.000000 -0.024051 -0.426021 0.000000 -0.024129 -0.430130 0.000000 -0.024192 -0.434248 0.000000 -0.024240 -0.438372 0.000000 -0.024274 -0.442499 0.000000 -0.024292 -0.446626 0.000000 -0.024295 -0.450753 0.000000 -0.024283 -0.454874 0.000000 -0.024255 -0.458989 0.000000 -0.024212 -0.463094 0.000000 -0.024153 -0.467186 0.000000 -0.024079 -0.471264 0.000000 -0.023988 -0.475325 0.000000 -0.023882 -0.479365 0.000000 -0.023760 -0.483383 0.000000 -0.023622 -0.487374 0.000000 -0.023468 -0.491339 0.000000 -0.023299 -0.495272 0.000000 -0.023113 -0.499173 0.000000 -0.022912 -0.503037 0.000000 -0.022694 -0.506864 0.000000 -0.022461 -0.510649 0.000000 -0.022212 -0.514391 0.000000 -0.021948 -0.518087 0.000000 -0.021668 -0.521735 0.000000 -0.021373 -0.525331 0.000000 -0.021062 -0.528875 0.000000 -0.020737 -0.532361 0.000000 -0.020396 -0.535791 0.000000 -0.020041 -0.539159 0.000000 -0.019671 -0.542466 0.000000 -0.019286 -0.545706 0.000000 -0.018888 -0.548880 0.000000 -0.018476 -0.551983 0.000000 -0.018049 -0.555016 0.000000 -0.017610 -0.557973 0.000000 -0.017157 -0.560857 0.000000 -0.016692 -0.563661 0.000000 -0.016214 -0.566386 0.000000 -0.015724 -0.569028 0.000000 -0.015221 -0.571589 0.000000 -0.014708 -0.574062 0.000000 -0.014183 -0.576450 0.000000 -0.013647 -0.578747 0.000000 -0.013101 -0.580956 0.000000 -0.012545 -0.583071 0.000000 -0.011979 -0.585094 0.000000 -0.011405 -0.587020 0.000000 -0.010821 -0.588852 0.000000 -0.010229 -0.590585 0.000000 -0.009628 -0.592221 0.000000 -0.009021 -0.593754 0.000000 -0.008406 -0.595189 0.000000 -0.007785 -0.596520 0.000000 -0.007158 -0.597750 0.000000 -0.006525 -0.598873 0.000000 -0.005887 -0.599895 0.000000 -0.005245 -0.600808 0.000000 -0.004598 -0.601618 0.000000 -0.003948 -0.602319 0.000000 -0.003295 -0.602915 0.000000 -0.002639 -0.603401 0.000000 -0.001981 -0.603781 0.000000 -0.001322 -0.604051 0.000000 -0.000661 -0.604215 0.000000 -0.000000 -0.604268 0.000000 0.000661 -0.604215 0.000000 0.001322 -0.604051 0.000000 0.001981 -0.603781 0.000000 0.002639 -0.603401 0.000000 0.003295 -0.602915 0.000000 0.003948 -0.602319 0.000000 0.004598 -0.601618 0.000000 0.005245 -0.600808 0.000000 0.005887 -0.599895 0.000000 0.006525 -0.598873 0.000000 0.007158 -0.597750 0.000000 0.007785 -0.596520 0.000000 0.008406 -0.595189 0.000000 0.009021 -0.593754 0.000000 0.009628 -0.592221 0.000000 0.010229 -0.590585 0.000000 0.010821 -0.588852 0.000000 0.011405 -0.587020 0.000000 0.011979 -0.585094 0.000000 0.012545 -0.583071 0.000000 0.013101 -0.580956 0.000000 0.013647 -0.578747 0.000000 0.014183 -0.576450 0.000000 0.014708 -0.574062 0.000000 0.015221 -0.571589 0.000000 0.015724 -0.569028 0.000000 0.016214 -0.566386 0.000000 0.016692 -0.563661 0.000000 0.017157 -0.560857 0.000000 0.017610 -0.557973 0.000000 0.018049 -0.555016 0.000000 0.018476 -0.551983 0.000000 0.018888 -0.548880 0.000000 0.019286 -0.545706 0.000000 0.019671 -0.542466 0.000000 0.020041 -0.539159 0.000000 0.020396 -0.535791 0.000000 0.020737 -0.532361 0.000000 0.021062 -0.528875 0.000000 0.021373 -0.525331 0.000000 0.021668 -0.521735 0.000000 0.021948 -0.518087 0.000000 0.022212 -0.514391 0.000000 0.022461 -0.510649 0.000000 0.022694 -0.506864 0.000000 0.022912 -0.503037 0.000000 0.023113 -0.499173 0.000000 0.023299 -0.495272 0.000000 0.023468 -0.491339 0.000000 0.023622 -0.487374 0.000000 0.023760 -0.483383 0.000000 0.023882 -0.479365 0.000000 0.023988 -0.475325 0.000000 0.024079 -0.471264 0.000000 0.024153 -0.467186 0.000000 0.024212 -0.463094 0.000000 0.024255 -0.458989 0.000000 0.024283 -0.454874 0.000000 0.024295 -0.450753 0.000000 0.024292 -0.446626 0.000000 0.024274 -0.442499 0.000000 0.024240 -0.438372 0.000000 0.024192 -0.434248 0.000000 0.024129 -0.430130 0.000000 0.024051 -0.426021 0.000000 0.023959 -0.421922 0.000000 0.023853 -0.417837 0.000000 0.023733 -0.413768 0.000000 0.023599 -0.409717 0.000000 0.023451 -0.405687 0.000000 0.023289 -0.401680 0.000000 0.023115 -0.397699 0.000000 0.022928 -0.393744 0.000000 0.022727 -0.389821 0.000000 0.022515 -0.385929 0.000000 0.022290 -0.382072 0.000000 0.022053 -0.378252 0.000000 0.021804 -0.374471 0.000000 0.021544 -0.370730 0.000000 0.021272 -0.367033 0.000000 0.020990 -0.363380 0.000000 0.020697 -0.359776 0.000000 0.020393 -0.356219 0.000000 0.020079 -0.352714 0.000000 0.019755 -0.349261 0.000000 0.019422 -0.345863 0.000000 0.019079 -0.342521 0.000000 0.018727 -0.339238 0.000000 0.018366 -0.336014 0.000000 0.017996 -0.332852 0.000000 0.017618 -0.329752 0.000000 0.017232 -0.326718 0.000000 0.016839 -0.323749 0.000000 0.016437 -0.320849 0.000000 0.016029 -0.318016 0.000000 0.015613 -0.315255 0.000000 0.015191 -0.312564 0.000000 0.014761 -0.309948 0.000000 0.014326 -0.307404 0.000000 0.013885 -0.304937 0.000000 0.013438 -0.302545 0.000000 0.012985 -0.300233 0.000000 0.012528 -0.297997 0.000000 0.012065 -0.295843 0.000000 0.011597 -0.293768 0.000000 0.011125 -0.291776 0.000000 0.010648 -0.289865 0.000000 0.010167 -0.288039 0.000000 0.009682 -0.286295 0.000000 0.009194 -0.284639 0.000000 0.008702 -0.283065 0.000000 0.008207 -0.281580 0.000000 0.007708 -0.280180 0.000000 0.007207 -0.278870 0.000000 0.006703 -0.277645 0.000000 0.006197 -0.276511 0.000000 0.005688 -0.275464 0.000000 0.005178 -0.274509 0.000000 0.004665 -0.273642 0.000000 0.004151 -0.272866 0.000000 0.003635 -0.272180 0.000000 0.003118 -0.271586 0.000000 0.002600 -0.271081 0.000000 0.002081 -0.270670 0.000000 0.001562 -0.270348 0.000000 0.001041 -0.270120 0.000000 0.000521 -0.269981 0.000000 