# vtk DataFile Version 2.0
Comment goes here
ASCII

DATASET STRUCTURED_POINTS
FIELD FieldData 1
TIME 1 1 double
0.04000000
DIMENSIONS    256   256   1

ORIGIN    0.000   0.000   0.000
SPACING   0.0039062 0.0039062   1.000

POINT_DATA   65536
VECTORS u double

0.000000 -0.294273 0.000000 0.000456 -0.294325 0.000000 0.000913 -0.294478 0.000000 0.001369 -0.294735 0.000000 0.001825 -0.295093 0.000000 0.002281 -0.295555 0.000000 0.002736 -0.296117 0.000000 0.003191 -0.296783 0.000000 0.003646 -0.297548 0.000000 0.004099 -0.298417 0.000000 0.004553 -0.299384 0.000000 0.005005 -0.300455 0.000000 0.005456 -0.301623 0.000000 0.005907 -0.302893 0.000000 0.006357 -0.304261 0.000000 0.006805 -0.305729 0.000000 0.007252 -0.307294 0.000000 0.007698 -0.308958 0.000000 0.008142 -0.310717 0.000000 0.008584 -0.312574 0.000000 0.009025 -0.314525 0.000000 0.009464 -0.316572 0.000000 0.009902 -0.318711 0.000000 0.010336 -0.320946 0.000000 0.010769 -0.323270 0.000000 0.011199 -0.325687 0.000000 0.011627 -0.328193 0.000000 0.012051 -0.330789 0.000000 0.012473 -0.333472 0.000000 0.012892 -0.336243 0.000000 0.013307 -0.339098 0.000000 0.013719 -0.342039 0.000000 0.014127 -0.345061 0.000000 0.014531 -0.348167 0.000000 0.014932 -0.351351 0.000000 0.015327 -0.354616 0.000000 0.015718 -0.357957 0.000000 0.016104 -0.361374 0.000000 0.016485 -0.364865 0.000000 0.016861 -0.368429 0.000000 0.017231 -0.372063 0.000000 0.017595 -0.375768 0.000000 0.017953 -0.379538 0.000000 0.018304 -0.383375 0.000000 0.018649 -0.387274 0.000000 0.018987 -0.391236 0.000000 0.019317 -0.395256 0.000000 0.019639 -0.399335 0.000000 0.019954 -0.403468 0.000000 0.020260 -0.407655 0.000000 0.020558 -0.411892 0.000000 0.020847 -0.416179 0.000000 0.021126 -0.420511 0.000000 0.021396 -0.424888 0.000000 0.021656 -0.429306 0.000000 0.021906 -0.433764 0.000000 0.022145 -0.438258 0.000000 0.022373 -0.442787 0.000000 0.022589 -0.447347 0.000000 0.022794 -0.451936 0.000000 0.022988 -0.456551 0.000000 0.023168 -0.461190 0.000000 0.023336 -0.465849 0.000000 0.023491 -0.470527 0.000000 0.023633 -0.475221 0.000000 0.023761 -0.479926 0.000000 0.023875 -0.484642 0.000000 0.023975 -0.489364 0.000000 0.024060 -0.494090 0.000000 0.024131 -0.498816 0.000000 0.024186 -0.503541 0.000000 0.024225 -0.508260 0.000000 0.024249 -0.512972 0.000000 0.024257 -0.517672 0.000000 0.024248 -0.522359 0.000000 0.024223 -0.527028 0.000000 0.024182 -0.531677 0.000000 0.024123 -0.536302 0.000000 0.024047 -0.540902 0.000000 0.023954 -0.545471 0.000000 0.023843 -0.550009 0.000000 0.023715 -0.554511 0.000000 0.023569 -0.558975 0.000000 0.023405 -0.563396 0.000000 0.023223 -0.567774 0.000000 0.023023 -0.572103 0.000000 0.022805 -0.576383 0.000000 0.022569 -0.580607 0.000000 0.022314 -0.584777 0.000000 0.022042 -0.588885 0.000000 0.021751 -0.592933 0.000000 0.021442 -0.596914 0.000000 0.021116 -0.600828 0.000000 0.020771 -0.604670 0.000000 0.020409 -0.608440 0.000000 0.020029 -0.612132 0.000000 0.019632 -0.615746 0.000000 0.019218 -0.619277 0.000000 0.018786 -0.622726 0.000000 0.018338 -0.626086 0.000000 0.017873 -0.629358 0.000000 0.017393 -0.632538 0.000000 0.016896 -0.635625 0.000000 0.016384 -0.638613 0.000000 0.015857 -0.641506 0.000000 0.015315 -0.644295 0.000000 0.014759 -0.646984 0.000000 0.014189 -0.649566 0.000000 0.013605 -0.652044 0.000000 0.013009 -0.654411 0.000000 0.012400 -0.656669 0.000000 0.011779 -0.658813 0.000000 0.011147 -0.660846 0.000000 0.010505 -0.662762 0.000000 0.009852 -0.664563 0.000000 0.009189 -0.666243 0.000000 0.008517 -0.667807 0.000000 0.007838 -0.669247 0.000000 0.007150 -0.670569 0.000000 0.006455 -0.671765 0.000000 0.005754 -0.672840 0.000000 0.005048 -0.673789 0.000000 0.004336 -0.674614 0.000000 0.003620 -0.675312 0.000000 0.002900 -0.675886 0.000000 0.002178 -0.676330 0.000000 0.001453 -0.676650 0.000000 0.000727 -0.676840 0.000000 0.000000 -0.676905 0.000000 -0.000727 -0.676840 0.000000 -0.001453 -0.676650 0.000000 -0.002178 -0.676330 0.000000 -0.002900 -0.675886 0.000000 -0.003620 -0.675312 0.000000 -0.004336 -0.674614 0.000000 -0.005048 -0.673789 0.000000 -0.005754 -0.672840 0.000000 -0.006455 -0.671765 0.000000 -0.007150 -0.670569 0.000000 -0.007838 -0.669247 0.000000 -0.008517 -0.667807 0.000000 -0.009189 -0.666243 0.000000 -0.009852 -0.664563 0.000000 -0.010505 -0.662762 0.000000 -0.011147 -0.660846 0.000000 -0.011779 -0.658813 0.000000 -0.012400 -0.656669 0.000000 -0.013009 -0.654411 0.000000 -0.013605 -0.652044 0.000000 -0.014189 -0.649566 0.000000 -0.014759 -0.646984 0.000000 -0.015315 -0.644295 0.000000 -0.015857 -0.641506 0.000000 -0.016384 -0.638613 0.000000 -0.016896 -0.635625 0.000000 -0.017393 -0.632538 0.000000 -0.017873 -0.629358 0.000000 -0.018338 -0.626086 0.000000 -0.018786 -0.622726 0.000000 -0.019218 -0.619277 0.000000 -0.019632 -0.615746 0.000000 -0.020029 -0.612132 0.000000 -0.020409 -0.608440 0.000000 -0.020771 -0.604670 0.000000 -0.021116 -0.600828 0.000000 -0.021442 -0.596914 0.000000 -0.021751 -0.592933 0.000000 -0.022042 -0.588885 0.000000 -0.022314 -0.584777 0.000000 -0.022569 -0.580607 0.000000 -0.022805 -0.576383 0.000000 -0.023023 -0.572103 0.000000 -0.023223 -0.567774 0.000000 -0.023405 -0.563396 0.000000 -0.023569 -0.558975 0.000000 -0.023715 -0.554511 0.000000 -0.023843 -0.550009 0.000000 -0.023954 -0.545471 0.000000 -0.024047 -0.540902 0.000000 -0.024123 -0.536302 0.000000 -0.024182 -0.531677 0.000000 -0.024223 -0.527028 0.000000 -0.024248 -0.522359 0.000000 -0.024257 -0.517672 0.000000 -0.024249 -0.512972 0.000000 -0.024225 -0.508260 0.000000 -0.024186 -0.503541 0.000000 -0.024131 -0.498816 0.000000 -0.024060 -0.494090 0.000000 -0.023975 -0.489364 0.000000 -0.023875 -0.484642 0.000000 -0.023761 -0.479926 0.000000 -0.023633 -0.475221 0.000000 -0.023491 -0.470527 0.000000 -0.023336 -0.465849 0.000000 -0.023168 -0.461190 0.000000 -0.022988 -0.456551 0.000000 -0.022794 -0.451936 0.000000 -0.022589 -0.447347 0.000000 -0.022373 -0.442787 0.000000 -0.022145 -0.438258 0.000000 -0.021906 -0.433764 0.000000 -0.021656 -0.429306 0.000000 -0.021396 -0.424888 0.000000 -0.021126 -0.420511 0.000000 -0.020847 -0.416179 0.000000 -0.020558 -0.411892 0.000000 -0.020260 -0.407655 0.000000 -0.019954 -0.403468 0.000000 -0.019639 -0.399335 0.000000 -0.019317 -0.395256 0.000000 -0.018987 -0.391236 0.000000 -0.018649 -0.387274 0.000000 -0.018304 -0.383375 0.000000 -0.017953 -0.379538 0.000000 -0.017595 -0.375768 0.000000 -0.017231 -0.372063 0.000000 -0.016861 -0.368429 0.000000 -0.016485 -0.364865 0.000000 -0.016104 -0.361374 0.000000 -0.015718 -0.357957 0.000000 -0.015327 -0.354616 0.000000 -0.014932 -0.351351 0.000000 -0.014531 -0.348167 0.000000 -0.014127 -0.345061 0.000000 -0.013719 -0.342039 0.000000 -0.013307 -0.339098 0.000000 -0.012892 -0.336243 0.000000 -0.012473 -0.333472 0.000000 -0.012051 -0.330789 0.000000 -0.011627 -0.328193 0.000000 -0.011199 -0.325687 0.000000 -0.010769 -0.323270 0.000000 -0.010336 -0.320946 0.000000 -0.009902 -0.318711 0.000000 -0.009464 -0.316572 0.000000 -0.009025 -0.314525 0.000000 -0.008584 -0.312574 0.000000 -0.008142 -0.310717 0.000000 -0.007698 -0.308958 0.000000 -0.007252 -0.307294 0.000000 -0.006805 -0.305729 0.000000 -0.006357 -0.304261 0.000000 -0.005907 -0.302893 0.000000 -0.005456 -0.301623 0.000000 -0.005005 -0.300455 0.000000 -0.004553 -0.299384 0.000000 -0.004099 -0.298417 0.000000 -0.003646 -0.297548 0.000000 -0.003191 -0.296783 0.000000 -0.002736 -0.296117 0.000000 -0.002281 -0.295555 0.000000 -0.001825 -0.295093 0.000000 -0.001369 -0.294735 0.000000 -0.000913 -0.294478 0.000000 -0.000456 -0.294325 0.000000 
0.000000 -0.294678 0.000000 0.000354 -0.294730 0.000000 0.000708 -0.294883 0.000000 0.001062 -0.295140 0.000000 0.001416 -0.295498 0.000000 0.001769 -0.295959 0.000000 0.002123 -0.296521 0.000000 0.002476 -0.297186 0.000000 0.002829 -0.297951 0.000000 0.003181 -0.298819 0.000000 0.003534 -0.299786 0.000000 0.003886 -0.300856 0.000000 0.004237 -0.302024 0.000000 0.004588 -0.303294 0.000000 0.004939 -0.304660 0.000000 0.005289 -0.306128 0.000000 0.005638 -0.307691 0.000000 0.005987 -0.309354 0.000000 0.006334 -0.311112 0.000000 0.006681 -0.312968 0.000000 0.007027 -0.314917 0.000000 0.007372 -0.316963 0.000000 0.007716 -0.319101 0.000000 0.008058 -0.321333 0.000000 0.008399 -0.323656 0.000000 0.008739 -0.326071 0.000000 0.009077 -0.328574 0.000000 0.009413 -0.331168 0.000000 0.009748 -0.333849 0.000000 0.010080 -0.336617 0.000000 0.010411 -0.339469 0.000000 0.010739 -0.342407 0.000000 0.011065 -0.345426 0.000000 0.011388 -0.348529 0.000000 0.011709 -0.351710 0.000000 0.012026 -0.354971 0.000000 0.012341 -0.358307 0.000000 0.012652 -0.361721 0.000000 0.012960 -0.365207 0.000000 0.013264 -0.368767 0.000000 0.013564 -0.372396 0.000000 0.013860 -0.376095 0.000000 0.014152 -0.379860 0.000000 0.014439 -0.383691 0.000000 0.014721 -0.387584 0.000000 0.014999 -0.391540 0.000000 0.015271 -0.395553 0.000000 0.015537 -0.399625 0.000000 0.015798 -0.403751 0.000000 0.016052 -0.407931 0.000000 0.016300 -0.412161 0.000000 0.016541 -0.416440 0.000000 0.016776 -0.420764 0.000000 0.017003 -0.425132 0.000000 0.017223 -0.429541 0.000000 0.017434 -0.433990 0.000000 0.017638 -0.438474 0.000000 0.017833 -0.442993 0.000000 0.018020 -0.447543 0.000000 0.018198 -0.452121 0.000000 0.018366 -0.456726 0.000000 0.018524 -0.461354 0.000000 0.018673 -0.466002 0.000000 0.018812 -0.470668 0.000000 0.018940 -0.475349 0.000000 0.019057 -0.480042 0.000000 0.019163 -0.484745 0.000000 0.019258 -0.489454 0.000000 0.019341 -0.494167 0.000000 0.019412 -0.498880 0.000000 0.019470 -0.503591 0.000000 0.019517 -0.508296 0.000000 0.019550 -0.512993 0.000000 0.019571 -0.517679 0.000000 0.019578 -0.522351 0.000000 0.019572 -0.527004 0.000000 0.019552 -0.531638 0.000000 0.019518 -0.536248 0.000000 0.019470 -0.540832 0.000000 0.019408 -0.545386 0.000000 0.019331 -0.549908 0.000000 0.019240 -0.554393 0.000000 0.019134 -0.558841 0.000000 0.019013 -0.563246 0.000000 0.018878 -0.567607 0.000000 0.018727 -0.571919 0.000000 0.018561 -0.576182 0.000000 0.018380 -0.580390 0.000000 0.018183 -0.584543 0.000000 0.017972 -0.588635 0.000000 0.017745 -0.592666 0.000000 0.017503 -0.596630 0.000000 0.017246 -0.600528 0.000000 0.016973 -0.604354 0.000000 0.016686 -0.608107 0.000000 0.016384 -0.611783 0.000000 0.016067 -0.615381 0.000000 0.015735 -0.618897 0.000000 0.015389 -0.622330 0.000000 0.015029 -0.625674 0.000000 0.014655 -0.628932 0.000000 0.014267 -0.632096 0.000000 0.013865 -0.635169 0.000000 0.013450 -0.638143 0.000000 0.013022 -0.641022 0.000000 0.012582 -0.643798 0.000000 0.012129 -0.646474 0.000000 0.011665 -0.649043 0.000000 0.011189 -0.651508 0.000000 0.010702 -0.653863 0.000000 0.010204 -0.656111 0.000000 0.009696 -0.658244 0.000000 0.009178 -0.660267 0.000000 0.008651 -0.662172 0.000000 0.008115 -0.663964 0.000000 0.007571 -0.665636 0.000000 0.007019 -0.667192 0.000000 0.006460 -0.668625 0.000000 0.005894 -0.669939 0.000000 0.005322 -0.671130 0.000000 0.004745 -0.672199 0.000000 0.004163 -0.673143 0.000000 0.003576 -0.673964 0.000000 0.002986 -0.674658 0.000000 0.002392 -0.675228 0.000000 0.001797 -0.675670 0.000000 0.001199 -0.675988 0.000000 0.000600 -0.676178 0.000000 0.000000 -0.676242 0.000000 -0.000600 -0.676178 0.000000 -0.001199 -0.675988 0.000000 -0.001797 -0.675670 0.000000 -0.002392 -0.675228 0.000000 -0.002986 -0.674658 0.000000 -0.003576 -0.673964 0.000000 -0.004163 -0.673143 0.000000 -0.004745 -0.672199 0.000000 -0.005322 -0.671130 0.000000 -0.005894 -0.669939 0.000000 -0.006460 -0.668625 0.000000 -0.007019 -0.667192 0.000000 -0.007571 -0.665636 0.000000 -0.008115 -0.663964 0.000000 -0.008651 -0.662172 0.000000 -0.009178 -0.660267 0.000000 -0.009696 -0.658244 0.000000 -0.010204 -0.656111 0.000000 -0.010702 -0.653863 0.000000 -0.011189 -0.651508 0.000000 -0.011665 -0.649043 0.000000 -0.012129 -0.646474 0.000000 -0.012582 -0.643798 0.000000 -0.013022 -0.641022 0.000000 -0.013450 -0.638143 0.000000 -0.013865 -0.635169 0.000000 -0.014267 -0.632096 0.000000 -0.014655 -0.628932 0.000000 -0.015029 -0.625674 0.000000 -0.015389 -0.622330 0.000000 -0.015735 -0.618897 0.000000 -0.016067 -0.615381 0.000000 -0.016384 -0.611783 0.000000 -0.016686 -0.608107 0.000000 -0.016973 -0.604354 0.000000 -0.017246 -0.600528 0.000000 -0.017503 -0.596630 0.000000 -0.017745 -0.592666 0.000000 -0.017972 -0.588635 0.000000 -0.018183 -0.584543 0.000000 -0.018380 -0.580390 0.000000 -0.018561 -0.576182 0.000000 -0.018727 -0.571919 0.000000 -0.018878 -0.567607 0.000000 -0.019013 -0.563246 0.000000 -0.019134 -0.558841 0.000000 -0.019240 -0.554393 0.000000 -0.019331 -0.549908 0.000000 -0.019408 -0.545386 0.000000 -0.019470 -0.540832 0.000000 -0.019518 -0.536248 0.000000 -0.019552 -0.531638 0.000000 -0.019572 -0.527004 0.000000 -0.019578 -0.522351 0.000000 -0.019571 -0.517679 0.000000 -0.019550 -0.512993 0.000000 -0.019517 -0.508296 0.000000 -0.019470 -0.503591 0.000000 -0.019412 -0.498880 0.000000 -0.019341 -0.494167 0.000000 -0.019258 -0.489454 0.000000 -0.019163 -0.484745 0.000000 -0.019057 -0.480042 0.000000 -0.018940 -0.475349 0.000000 -0.018812 -0.470668 0.000000 -0.018673 -0.466002 0.000000 -0.018524 -0.461354 0.000000 -0.018366 -0.456726 0.000000 -0.018198 -0.452121 0.000000 -0.018020 -0.447543 0.000000 -0.017833 -0.442993 0.000000 -0.017638 -0.438474 0.000000 -0.017434 -0.433990 0.000000 -0.017223 -0.429541 0.000000 -0.017003 -0.425132 0.000000 -0.016776 -0.420764 0.000000 -0.016541 -0.416440 0.000000 -0.016300 -0.412161 0.000000 -0.016052 -0.407931 0.000000 -0.015798 -0.403751 0.000000 -0.015537 -0.399625 0.000000 -0.015271 -0.395553 0.000000 -0.014999 -0.391540 0.000000 -0.014721 -0.387584 0.000000 -0.014439 -0.383691 0.000000 -0.014152 -0.379860 0.000000 -0.013860 -0.376095 0.000000 -0.013564 -0.372396 0.000000 -0.013264 -0.368767 0.000000 -0.012960 -0.365207 0.000000 -0.012652 -0.361721 0.000000 -0.012341 -0.358307 0.000000 -0.012026 -0.354971 0.000000 -0.011709 -0.351710 0.000000 -0.011388 -0.348529 0.000000 -0.011065 -0.345426 0.000000 -0.010739 -0.342407 0.000000 -0.010411 -0.339469 0.000000 -0.010080 -0.336617 0.000000 -0.009748 -0.333849 0.000000 -0.009413 -0.331168 0.000000 -0.009077 -0.328574 0.000000 -0.008739 -0.326071 0.000000 -0.008399 -0.323656 0.000000 -0.008058 -0.321333 0.000000 -0.007716 -0.319101 0.000000 -0.007372 -0.316963 0.000000 -0.007027 -0.314917 0.000000 -0.006681 -0.312968 0.000000 -0.006334 -0.311112 0.000000 -0.005987 -0.309354 0.000000 -0.005638 -0.307691 0.000000 -0.005289 -0.306128 0.000000 -0.004939 -0.304660 0.000000 -0.004588 -0.303294 0.000000 -0.004237 -0.302024 0.000000 -0.003886 -0.300856 0.000000 -0.003534 -0.299786 0.000000 -0.003181 -0.298819 0.000000 -0.002829 -0.297951 0.000000 -0.002476 -0.297186 0.000000 -0.002123 -0.296521 0.000000 -0.001769 -0.295959 0.000000 -0.001416 -0.295498 0.000000 -0.001062 -0.295140 0.000000 -0.000708 -0.294883 0.000000 -0.000354 -0.294730 0.000000 
0.000000 -0.294981 0.000000 0.000252 -0.295033 0.000000 0.000503 -0.295186 0.000000 0.000755 -0.295443 0.000000 0.001006 -0.295800 0.000000 0.001258 -0.296262 0.000000 0.001509 -0.296823 0.000000 0.001761 -0.297489 0.000000 0.002012 -0.298253 0.000000 0.002264 -0.299122 0.000000 0.002516 -0.300089 0.000000 0.002767 -0.301158 0.000000 0.003019 -0.302326 0.000000 0.003271 -0.303595 0.000000 0.003522 -0.304961 0.000000 0.003774 -0.306428 0.000000 0.004025 -0.307991 0.000000 0.004277 -0.309654 0.000000 0.004528 -0.311411 0.000000 0.004779 -0.313267 0.000000 0.005030 -0.315215 0.000000 0.005281 -0.317261 0.000000 0.005531 -0.319397 0.000000 0.005781 -0.321629 0.000000 0.006031 -0.323951 0.000000 0.006280 -0.326365 0.000000 0.006529 -0.328867 0.000000 0.006777 -0.331460 0.000000 0.007025 -0.334139 0.000000 0.007271 -0.336906 0.000000 0.007517 -0.339757 0.000000 0.007762 -0.342693 0.000000 0.008006 -0.345710 0.000000 0.008248 -0.348811 0.000000 0.008490 -0.351990 0.000000 0.008730 -0.355248 0.000000 0.008968 -0.358582 0.000000 0.009204 -0.361993 0.000000 0.009439 -0.365477 0.000000 0.009672 -0.369034 0.000000 0.009903 -0.372660 0.000000 0.010131 -0.376355 0.000000 0.010357 -0.380117 0.000000 0.010580 -0.383944 0.000000 0.010800 -0.387833 0.000000 0.011017 -0.391785 0.000000 0.011231 -0.395794 0.000000 0.011441 -0.399861 0.000000 0.011648 -0.403983 0.000000 0.011851 -0.408157 0.000000 0.012050 -0.412381 0.000000 0.012244 -0.416654 0.000000 0.012434 -0.420973 0.000000 0.012618 -0.425335 0.000000 0.012798 -0.429738 0.000000 0.012972 -0.434180 0.000000 0.013141 -0.438657 0.000000 0.013304 -0.443169 0.000000 0.013461 -0.447711 0.000000 0.013611 -0.452282 0.000000 0.013755 -0.456878 0.000000 0.013892 -0.461497 0.000000 0.014022 -0.466137 0.000000 0.014144 -0.470794 0.000000 0.014259 -0.475466 0.000000 0.014365 -0.480149 0.000000 0.014464 -0.484842 0.000000 0.014553 -0.489541 0.000000 0.014635 -0.494244 0.000000 0.014707 -0.498946 0.000000 0.014769 -0.503646 0.000000 0.014823 -0.508340 0.000000 0.014866 -0.513026 0.000000 0.014900 -0.517700 0.000000 0.014923 -0.522360 0.000000 0.014936 -0.527002 0.000000 0.014938 -0.531623 0.000000 0.014929 -0.536220 0.000000 0.014909 -0.540792 0.000000 0.014878 -0.545333 0.000000 0.014836 -0.549842 0.000000 0.014782 -0.554314 0.000000 0.014716 -0.558748 0.000000 0.014639 -0.563140 0.000000 0.014549 -0.567487 0.000000 0.014448 -0.571786 0.000000 0.014334 -0.576035 0.000000 0.014208 -0.580230 0.000000 0.014069 -0.584369 0.000000 0.013919 -0.588447 0.000000 0.013756 -0.592464 0.000000 0.013580 -0.596415 0.000000 0.013392 -0.600299 0.000000 0.013192 -0.604110 0.000000 0.012980 -0.607850 0.000000 0.012755 -0.611513 0.000000 0.012518 -0.615098 0.000000 0.012269 -0.618600 0.000000 0.012008 -0.622020 0.000000 0.011736 -0.625351 0.000000 0.011451 -0.628596 0.000000 0.011156 -0.631748 0.000000 0.010849 -0.634808 0.000000 0.010531 -0.637771 0.000000 0.010202 -0.640638 0.000000 0.009863 -0.643402 0.000000 0.009513 -0.646067 0.000000 0.009154 -0.648626 0.000000 0.008785 -0.651081 0.000000 0.008406 -0.653426 0.000000 0.008019 -0.655663 0.000000 0.007623 -0.657788 0.000000 0.007219 -0.659801 0.000000 0.006807 -0.661699 0.000000 0.006388 -0.663483 0.000000 0.005962 -0.665147 0.000000 0.005529 -0.666696 0.000000 0.005090 -0.668123 0.000000 0.004645 -0.669431 0.000000 0.004196 -0.670616 0.000000 0.003741 -0.671681 0.000000 0.003283 -0.672620 0.000000 0.002821 -0.673438 0.000000 0.002355 -0.674128 0.000000 0.001888 -0.674696 0.000000 0.001418 -0.675136 0.000000 0.000946 -0.675453 0.000000 0.000473 -0.675641 0.000000 0.000000 -0.675705 0.000000 -0.000473 -0.675641 0.000000 -0.000946 -0.675453 0.000000 -0.001418 -0.675136 0.000000 -0.001888 -0.674696 0.000000 -0.002355 -0.674128 0.000000 -0.002821 -0.673438 0.000000 -0.003283 -0.672620 0.000000 -0.003741 -0.671681 0.000000 -0.004196 -0.670616 0.000000 -0.004645 -0.669431 0.000000 -0.005090 -0.668123 0.000000 -0.005529 -0.666696 0.000000 -0.005962 -0.665147 0.000000 -0.006388 -0.663483 0.000000 -0.006807 -0.661699 0.000000 -0.007219 -0.659801 0.000000 -0.007623 -0.657788 0.000000 -0.008019 -0.655663 0.000000 -0.008406 -0.653426 0.000000 -0.008785 -0.651081 0.000000 -0.009154 -0.648626 0.000000 -0.009513 -0.646067 0.000000 -0.009863 -0.643402 0.000000 -0.010202 -0.640638 0.000000 -0.010531 -0.637771 0.000000 -0.010849 -0.634808 0.000000 -0.011156 -0.631748 0.000000 -0.011451 -0.628596 0.000000 -0.011736 -0.625351 0.000000 -0.012008 -0.622020 0.000000 -0.012269 -0.618600 0.000000 -0.012518 -0.615098 0.000000 -0.012755 -0.611513 0.000000 -0.012980 -0.607850 0.000000 -0.013192 -0.604110 0.000000 -0.013392 -0.600299 0.000000 -0.013580 -0.596415 0.000000 -0.013756 -0.592464 0.000000 -0.013919 -0.588447 0.000000 -0.014069 -0.584369 0.000000 -0.014208 -0.580230 0.000000 -0.014334 -0.576035 0.000000 -0.014448 -0.571786 0.000000 -0.014549 -0.567487 0.000000 -0.014639 -0.563140 0.000000 -0.014716 -0.558748 0.000000 -0.014782 -0.554314 0.000000 -0.014836 -0.549842 0.000000 -0.014878 -0.545333 0.000000 -0.014909 -0.540792 0.000000 -0.014929 -0.536220 0.000000 -0.014938 -0.531623 0.000000 -0.014936 -0.527002 0.000000 -0.014923 -0.522360 0.000000 -0.014900 -0.517700 0.000000 -0.014866 -0.513026 0.000000 -0.014823 -0.508340 0.000000 -0.014769 -0.503646 0.000000 -0.014707 -0.498946 0.000000 -0.014635 -0.494244 0.000000 -0.014553 -0.489541 0.000000 -0.014464 -0.484842 0.000000 -0.014365 -0.480149 0.000000 -0.014259 -0.475466 0.000000 -0.014144 -0.470794 0.000000 -0.014022 -0.466137 0.000000 -0.013892 -0.461497 0.000000 -0.013755 -0.456878 0.000000 -0.013611 -0.452282 0.000000 -0.013461 -0.447711 0.000000 -0.013304 -0.443169 0.000000 -0.013141 -0.438657 0.000000 -0.012972 -0.434180 0.000000 -0.012798 -0.429738 0.000000 -0.012618 -0.425335 0.000000 -0.012434 -0.420973 0.000000 -0.012244 -0.416654 0.000000 -0.012050 -0.412381 0.000000 -0.011851 -0.408157 0.000000 -0.011648 -0.403983 0.000000 -0.011441 -0.399861 0.000000 -0.011231 -0.395794 0.000000 -0.011017 -0.391785 0.000000 -0.010800 -0.387833 0.000000 -0.010580 -0.383944 0.000000 -0.010357 -0.380117 0.000000 -0.010131 -0.376355 0.000000 -0.009903 -0.372660 0.000000 -0.009672 -0.369034 0.000000 -0.009439 -0.365477 0.000000 -0.009204 -0.361993 0.000000 -0.008968 -0.358582 0.000000 -0.008730 -0.355248 0.000000 -0.008490 -0.351990 0.000000 -0.008248 -0.348811 0.000000 -0.008006 -0.345710 0.000000 -0.007762 -0.342693 0.000000 -0.007517 -0.339757 0.000000 -0.007271 -0.336906 0.000000 -0.007025 -0.334139 0.000000 -0.006777 -0.331460 0.000000 -0.006529 -0.328867 0.000000 -0.006280 -0.326365 0.000000 -0.006031 -0.323951 0.000000 -0.005781 -0.321629 0.000000 -0.005531 -0.319397 0.000000 -0.005281 -0.317261 0.000000 -0.005030 -0.315215 0.000000 -0.004779 -0.313267 0.000000 -0.004528 -0.311411 0.000000 -0.004277 -0.309654 0.000000 -0.004025 -0.307991 0.000000 -0.003774 -0.306428 0.000000 -0.003522 -0.304961 0.000000 -0.003271 -0.303595 0.000000 -0.003019 -0.302326 0.000000 -0.002767 -0.301158 0.000000 -0.002516 -0.300089 0.000000 -0.002264 -0.299122 0.000000 -0.002012 -0.298253 0.000000 -0.001761 -0.297489 0.000000 -0.001509 -0.296823 0.000000 -0.001258 -0.296262 0.000000 -0.001006 -0.295800 0.000000 -0.000755 -0.295443 0.000000 -0.000503 -0.295186 0.000000 -0.000252 -0.295033 0.000000 
0.000000 -0.295181 0.000000 0.000149 -0.295233 0.000000 0.000298 -0.295386 0.000000 0.000447 -0.295643 0.000000 0.000597 -0.296001 0.000000 0.000746 -0.296462 0.000000 0.000896 -0.297024 0.000000 0.001046 -0.297690 0.000000 0.001196 -0.298454 0.000000 0.001346 -0.299323 0.000000 0.001497 -0.300290 0.000000 0.001649 -0.301360 0.000000 0.001801 -0.302527 0.000000 0.001953 -0.303797 0.000000 0.002106 -0.305163 0.000000 0.002259 -0.306631 0.000000 0.002413 -0.308194 0.000000 0.002567 -0.309857 0.000000 0.002722 -0.311614 0.000000 0.002877 -0.313470 0.000000 0.003033 -0.315419 0.000000 0.003190 -0.317464 0.000000 0.003347 -0.319601 0.000000 0.003505 -0.321833 0.000000 0.003663 -0.324154 0.000000 0.003822 -0.326569 0.000000 0.003982 -0.329071 0.000000 0.004141 -0.331664 0.000000 0.004302 -0.334343 0.000000 0.004463 -0.337110 0.000000 0.004624 -0.339960 0.000000 0.004785 -0.342896 0.000000 0.004947 -0.345913 0.000000 0.005109 -0.349013 0.000000 0.005271 -0.352191 0.000000 0.005433 -0.355449 0.000000 0.005596 -0.358782 0.000000 0.005758 -0.362192 0.000000 0.005920 -0.365674 0.000000 0.006081 -0.369230 0.000000 0.006243 -0.372855 0.000000 0.006403 -0.376549 0.000000 0.006563 -0.380309 0.000000 0.006722 -0.384134 0.000000 0.006881 -0.388021 0.000000 0.007038 -0.391971 0.000000 0.007194 -0.395978 0.000000 0.007348 -0.400042 0.000000 0.007502 -0.404161 0.000000 0.007653 -0.408333 0.000000 0.007803 -0.412554 0.000000 0.007950 -0.416823 0.000000 0.008095 -0.421138 0.000000 0.008238 -0.425497 0.000000 0.008378 -0.429895 0.000000 0.008515 -0.434333 0.000000 0.008649 -0.438806 0.000000 0.008780 -0.443313 0.000000 0.008907 -0.447850 0.000000 0.009031 -0.452416 0.000000 0.009150 -0.457006 0.000000 0.009265 -0.461620 0.000000 0.009377 -0.466254 0.000000 0.009483 -0.470905 0.000000 0.009584 -0.475570 0.000000 0.009680 -0.480247 0.000000 0.009771 -0.484933 0.000000 0.009856 -0.489625 0.000000 0.009936 -0.494320 0.000000 0.010009 -0.499015 0.000000 0.010076 -0.503707 0.000000 0.010137 -0.508393 0.000000 0.010190 -0.513070 0.000000 0.010237 -0.517736 0.000000 0.010276 -0.522387 0.000000 0.010308 -0.527019 0.000000 0.010333 -0.531632 0.000000 0.010349 -0.536220 0.000000 0.010358 -0.540781 0.000000 0.010358 -0.545312 0.000000 0.010350 -0.549811 0.000000 0.010334 -0.554273 0.000000 0.010308 -0.558697 0.000000 0.010274 -0.563078 0.000000 0.010231 -0.567416 0.000000 0.010179 -0.571704 0.000000 0.010117 -0.575942 0.000000 0.010046 -0.580126 0.000000 0.009966 -0.584254 0.000000 0.009876 -0.588321 0.000000 0.009777 -0.592327 0.000000 0.009668 -0.596267 0.000000 0.009550 -0.600140 0.000000 0.009422 -0.603941 0.000000 0.009284 -0.607670 0.000000 0.009137 -0.611321 0.000000 0.008980 -0.614895 0.000000 0.008813 -0.618387 0.000000 0.008638 -0.621796 0.000000 0.008452 -0.625117 0.000000 0.008258 -0.628352 0.000000 0.008055 -0.631493 0.000000 0.007842 -0.634544 0.000000 0.007621 -0.637497 0.000000 0.007391 -0.640354 0.000000 0.007153 -0.643109 0.000000 0.006906 -0.645765 0.000000 0.006651 -0.648315 0.000000 0.006389 -0.650761 0.000000 0.006119 -0.653098 0.000000 0.005842 -0.655327 0.000000 0.005558 -0.657444 0.000000 0.005267 -0.659451 0.000000 0.004970 -0.661341 0.000000 0.004667 -0.663119 0.000000 0.004358 -0.664777 0.000000 0.004044 -0.666320 0.000000 0.003725 -0.667742 0.000000 0.003401 -0.669045 0.000000 0.003073 -0.670226 0.000000 0.002741 -0.671286 0.000000 0.002406 -0.672222 0.000000 0.002068 -0.673036 0.000000 0.001727 -0.673725 0.000000 0.001384 -0.674290 0.000000 0.001040 -0.674729 0.000000 0.000694 -0.675044 0.000000 0.000347 -0.675232 0.000000 0.000000 -0.675296 0.000000 -0.000347 -0.675232 0.000000 -0.000694 -0.675044 0.000000 -0.001040 -0.674729 0.000000 -0.001384 -0.674290 0.000000 -0.001727 -0.673725 0.000000 -0.002068 -0.673036 0.000000 -0.002406 -0.672222 0.000000 -0.002741 -0.671286 0.000000 -0.003073 -0.670226 0.000000 -0.003401 -0.669045 0.000000 -0.003725 -0.667742 0.000000 -0.004044 -0.666320 0.000000 -0.004358 -0.664777 0.000000 -0.004667 -0.663119 0.000000 -0.004970 -0.661341 0.000000 -0.005267 -0.659451 0.000000 -0.005558 -0.657444 0.000000 -0.005842 -0.655327 0.000000 -0.006119 -0.653098 0.000000 -0.006389 -0.650761 0.000000 -0.006651 -0.648315 0.000000 -0.006906 -0.645765 0.000000 -0.007153 -0.643109 0.000000 -0.007391 -0.640354 0.000000 -0.007621 -0.637497 0.000000 -0.007842 -0.634544 0.000000 -0.008055 -0.631493 0.000000 -0.008258 -0.628352 0.000000 -0.008452 -0.625117 0.000000 -0.008638 -0.621796 0.000000 -0.008813 -0.618387 0.000000 -0.008980 -0.614895 0.000000 -0.009137 -0.611321 0.000000 -0.009284 -0.607670 0.000000 -0.009422 -0.603941 0.000000 -0.009550 -0.600140 0.000000 -0.009668 -0.596267 0.000000 -0.009777 -0.592327 0.000000 -0.009876 -0.588321 0.000000 -0.009966 -0.584254 0.000000 -0.010046 -0.580126 0.000000 -0.010117 -0.575942 0.000000 -0.010179 -0.571704 0.000000 -0.010231 -0.567416 0.000000 -0.010274 -0.563078 0.000000 -0.010308 -0.558697 0.000000 -0.010334 -0.554273 0.000000 -0.010350 -0.549811 0.000000 -0.010358 -0.545312 0.000000 -0.010358 -0.540781 0.000000 -0.010349 -0.536220 0.000000 -0.010333 -0.531632 0.000000 -0.010308 -0.527019 0.000000 -0.010276 -0.522387 0.000000 -0.010237 -0.517736 0.000000 -0.010190 -0.513070 0.000000 -0.010137 -0.508393 0.000000 -0.010076 -0.503707 0.000000 -0.010009 -0.499015 0.000000 -0.009936 -0.494320 0.000000 -0.009856 -0.489625 0.000000 -0.009771 -0.484933 0.000000 -0.009680 -0.480247 0.000000 -0.009584 -0.475570 0.000000 -0.009483 -0.470905 0.000000 -0.009377 -0.466254 0.000000 -0.009265 -0.461620 0.000000 -0.009150 -0.457006 0.000000 -0.009031 -0.452416 0.000000 -0.008907 -0.447850 0.000000 -0.008780 -0.443313 0.000000 -0.008649 -0.438806 0.000000 -0.008515 -0.434333 0.000000 -0.008378 -0.429895 0.000000 -0.008238 -0.425497 0.000000 -0.008095 -0.421138 0.000000 -0.007950 -0.416823 0.000000 -0.007803 -0.412554 0.000000 -0.007653 -0.408333 0.000000 -0.007502 -0.404161 0.000000 -0.007348 -0.400042 0.000000 -0.007194 -0.395978 0.000000 -0.007038 -0.391971 0.000000 -0.006881 -0.388021 0.000000 -0.006722 -0.384134 0.000000 -0.006563 -0.380309 0.000000 -0.006403 -0.376549 0.000000 -0.006243 -0.372855 0.000000 -0.006081 -0.369230 0.000000 -0.005920 -0.365674 0.000000 -0.005758 -0.362192 0.000000 -0.005596 -0.358782 0.000000 -0.005433 -0.355449 0.000000 -0.005271 -0.352191 0.000000 -0.005109 -0.349013 0.000000 -0.004947 -0.345913 0.000000 -0.004785 -0.342896 0.000000 -0.004624 -0.339960 0.000000 -0.004463 -0.337110 0.000000 -0.004302 -0.334343 0.000000 -0.004141 -0.331664 0.000000 -0.003982 -0.329071 0.000000 -0.003822 -0.326569 0.000000 -0.003663 -0.324154 0.000000 -0.003505 -0.321833 0.000000 -0.003347 -0.319601 0.000000 -0.003190 -0.317464 0.000000 -0.003033 -0.315419 0.000000 -0.002877 -0.313470 0.000000 -0.002722 -0.311614 0.000000 -0.002567 -0.309857 0.000000 -0.002413 -0.308194 0.000000 -0.002259 -0.306631 0.000000 -0.002106 -0.305163 0.000000 -0.001953 -0.303797 0.000000 -0.001801 -0.302527 0.000000 -0.001649 -0.301360 0.000000 -0.001497 -0.300290 0.000000 -0.001346 -0.299323 0.000000 -0.001196 -0.298454 0.000000 -0.001046 -0.297690 0.000000 -0.000896 -0.297024 0.000000 -0.000746 -0.296462 0.000000 -0.000597 -0.296001 0.000000 -0.000447 -0.295643 0.000000 -0.000298 -0.295386 0.000000 -0.000149 -0.295233 0.000000 