# vtk DataFile Version 2.0
Comment goes here
ASCII

DATASET STRUCTURED_POINTS
FIELD FieldData 1
TIME 1 1 double
0.08000000
DIMENSIONS    256   256   1

ORIGIN    0.000   0.000   0.000
SPACING   0.0039062 0.0039062   1.000

POINT_DATA   65536
VECTORS u double

0.000000 -0.313716 0.000000 -0.000210 -0.313771 0.000000 -0.000420 -0.313930 0.000000 -0.000629 -0.314198 0.000000 -0.000839 -0.314571 0.000000 -0.001048 -0.315052 0.000000 -0.001257 -0.315638 0.000000 -0.001466 -0.316332 0.000000 -0.001674 -0.317130 0.000000 -0.001882 -0.318035 0.000000 -0.002089 -0.319043 0.000000 -0.002296 -0.320158 0.000000 -0.002502 -0.321375 0.000000 -0.002708 -0.322698 0.000000 -0.002912 -0.324123 0.000000 -0.003116 -0.325652 0.000000 -0.003319 -0.327281 0.000000 -0.003521 -0.329013 0.000000 -0.003723 -0.330844 0.000000 -0.003923 -0.332777 0.000000 -0.004121 -0.334807 0.000000 -0.004319 -0.336936 0.000000 -0.004515 -0.339162 0.000000 -0.004710 -0.341485 0.000000 -0.004904 -0.343902 0.000000 -0.005095 -0.346415 0.000000 -0.005286 -0.349019 0.000000 -0.005474 -0.351716 0.000000 -0.005661 -0.354503 0.000000 -0.005846 -0.357381 0.000000 -0.006029 -0.360345 0.000000 -0.006209 -0.363398 0.000000 -0.006388 -0.366534 0.000000 -0.006564 -0.369756 0.000000 -0.006738 -0.373058 0.000000 -0.006909 -0.376443 0.000000 -0.007078 -0.379905 0.000000 -0.007244 -0.383447 0.000000 -0.007408 -0.387062 0.000000 -0.007568 -0.390753 0.000000 -0.007725 -0.394515 0.000000 -0.007879 -0.398348 0.000000 -0.008030 -0.402248 0.000000 -0.008178 -0.406215 0.000000 -0.008322 -0.410246 0.000000 -0.008462 -0.414339 0.000000 -0.008599 -0.418492 0.000000 -0.008732 -0.422703 0.000000 -0.008861 -0.426969 0.000000 -0.008985 -0.431289 0.000000 -0.009106 -0.435659 0.000000 -0.009222 -0.440079 0.000000 -0.009333 -0.444543 0.000000 -0.009440 -0.449052 0.000000 -0.009542 -0.453601 0.000000 -0.009639 -0.458189 0.000000 -0.009732 -0.462813 0.000000 -0.009819 -0.467470 0.000000 -0.009901 -0.472157 0.000000 -0.009977 -0.476873 0.000000 -0.010049 -0.481613 0.000000 -0.010114 -0.486375 0.000000 -0.010174 -0.491157 0.000000 -0.010228 -0.495955 0.000000 -0.010276 -0.500766 0.000000 -0.010317 -0.505589 0.000000 -0.010353 -0.510419 0.000000 -0.010383 -0.515254 0.000000 -0.010406 -0.520090 0.000000 -0.010422 -0.524926 0.000000 -0.010433 -0.529757 0.000000 -0.010436 -0.534580 0.000000 -0.010433 -0.539394 0.000000 -0.010423 -0.544193 0.000000 -0.010406 -0.548976 0.000000 -0.010382 -0.553740 0.000000 -0.010351 -0.558481 0.000000 -0.010313 -0.563196 0.000000 -0.010268 -0.567882 0.000000 -0.010215 -0.572536 0.000000 -0.010156 -0.577155 0.000000 -0.010089 -0.581736 0.000000 -0.010015 -0.586276 0.000000 -0.009934 -0.590771 0.000000 -0.009845 -0.595219 0.000000 -0.009750 -0.599617 0.000000 -0.009647 -0.603962 0.000000 -0.009536 -0.608250 0.000000 -0.009418 -0.612480 0.000000 -0.009294 -0.616647 0.000000 -0.009162 -0.620750 0.000000 -0.009022 -0.624784 0.000000 -0.008876 -0.628749 0.000000 -0.008723 -0.632639 0.000000 -0.008562 -0.636455 0.000000 -0.008395 -0.640191 0.000000 -0.008221 -0.643846 0.000000 -0.008041 -0.647417 0.000000 -0.007853 -0.650902 0.000000 -0.007660 -0.654298 0.000000 -0.007459 -0.657603 0.000000 -0.007253 -0.660813 0.000000 -0.007041 -0.663929 0.000000 -0.006822 -0.666946 0.000000 -0.006598 -0.669864 0.000000 -0.006368 -0.672677 0.000000 -0.006133 -0.675388 0.000000 -0.005892 -0.677991 0.000000 -0.005647 -0.680488 0.000000 -0.005396 -0.682873 0.000000 -0.005141 -0.685148 0.000000 -0.004881 -0.687308 0.000000 -0.004617 -0.689354 0.000000 -0.004349 -0.691283 0.000000 -0.004076 -0.693095 0.000000 -0.003801 -0.694787 0.000000 -0.003522 -0.696360 0.000000 -0.003239 -0.697809 0.000000 -0.002954 -0.699138 0.000000 -0.002667 -0.700342 0.000000 -0.002376 -0.701423 0.000000 -0.002084 -0.702377 0.000000 -0.001790 -0.703207 0.000000 -0.001494 -0.703908 0.000000 -0.001197 -0.704485 0.000000 -0.000899 -0.704932 0.000000 -0.000599 -0.705253 0.000000 -0.000300 -0.705444 0.000000 -0.000000 -0.705509 0.000000 0.000300 -0.705444 0.000000 0.000599 -0.705253 0.000000 0.000899 -0.704932 0.000000 0.001197 -0.704485 0.000000 0.001494 -0.703908 0.000000 0.001790 -0.703207 0.000000 0.002084 -0.702377 0.000000 0.002376 -0.701423 0.000000 0.002667 -0.700342 0.000000 0.002954 -0.699138 0.000000 0.003239 -0.697809 0.000000 0.003522 -0.696360 0.000000 0.003801 -0.694787 0.000000 0.004076 -0.693095 0.000000 0.004349 -0.691283 0.000000 0.004617 -0.689354 0.000000 0.004881 -0.687308 0.000000 0.005141 -0.685148 0.000000 0.005396 -0.682873 0.000000 0.005647 -0.680488 0.000000 0.005892 -0.677991 0.000000 0.006133 -0.675388 0.000000 0.006368 -0.672677 0.000000 0.006598 -0.669864 0.000000 0.006822 -0.666946 0.000000 0.007041 -0.663929 0.000000 0.007253 -0.660813 0.000000 0.007459 -0.657603 0.000000 0.007660 -0.654298 0.000000 0.007853 -0.650902 0.000000 0.008041 -0.647417 0.000000 0.008221 -0.643846 0.000000 0.008395 -0.640191 0.000000 0.008562 -0.636455 0.000000 0.008723 -0.632639 0.000000 0.008876 -0.628749 0.000000 0.009022 -0.624784 0.000000 0.009162 -0.620750 0.000000 0.009294 -0.616647 0.000000 0.009418 -0.612480 0.000000 0.009536 -0.608250 0.000000 0.009647 -0.603962 0.000000 0.009750 -0.599617 0.000000 0.009845 -0.595219 0.000000 0.009934 -0.590771 0.000000 0.010015 -0.586276 0.000000 0.010089 -0.581736 0.000000 0.010156 -0.577155 0.000000 0.010215 -0.572536 0.000000 0.010268 -0.567882 0.000000 0.010313 -0.563196 0.000000 0.010351 -0.558481 0.000000 0.010382 -0.553740 0.000000 0.010406 -0.548976 0.000000 0.010423 -0.544193 0.000000 0.010433 -0.539394 0.000000 0.010436 -0.534580 0.000000 0.010433 -0.529757 0.000000 0.010422 -0.524926 0.000000 0.010406 -0.520090 0.000000 0.010383 -0.515254 0.000000 0.010353 -0.510419 0.000000 0.010317 -0.505589 0.000000 0.010276 -0.500766 0.000000 0.010228 -0.495955 0.000000 0.010174 -0.491157 0.000000 0.010114 -0.486375 0.000000 0.010049 -0.481613 0.000000 0.009977 -0.476873 0.000000 0.009901 -0.472157 0.000000 0.009819 -0.467470 0.000000 0.009732 -0.462813 0.000000 0.009639 -0.458189 0.000000 0.009542 -0.453601 0.000000 0.009440 -0.449052 0.000000 0.009333 -0.444543 0.000000 0.009222 -0.440079 0.000000 0.009106 -0.435659 0.000000 0.008985 -0.431289 0.000000 0.008861 -0.426969 0.000000 0.008732 -0.422703 0.000000 0.008599 -0.418492 0.000000 0.008462 -0.414339 0.000000 0.008322 -0.410246 0.000000 0.008178 -0.406215 0.000000 0.008030 -0.402248 0.000000 0.007879 -0.398348 0.000000 0.007725 -0.394515 0.000000 0.007568 -0.390753 0.000000 0.007408 -0.387062 0.000000 0.007244 -0.383447 0.000000 0.007078 -0.379905 0.000000 0.006909 -0.376443 0.000000 0.006738 -0.373058 0.000000 0.006564 -0.369756 0.000000 0.006388 -0.366534 0.000000 0.006209 -0.363398 0.000000 0.006029 -0.360345 0.000000 0.005846 -0.357381 0.000000 0.005661 -0.354503 0.000000 0.005474 -0.351716 0.000000 0.005286 -0.349019 0.000000 0.005095 -0.346415 0.000000 0.004904 -0.343902 0.000000 0.004710 -0.341485 0.000000 0.004515 -0.339162 0.000000 0.004319 -0.336936 0.000000 0.004121 -0.334807 0.000000 0.003923 -0.332777 0.000000 0.003723 -0.330844 0.000000 0.003521 -0.329013 0.000000 0.003319 -0.327281 0.000000 0.003116 -0.325652 0.000000 0.002912 -0.324123 0.000000 0.002708 -0.322698 0.000000 0.002502 -0.321375 0.000000 0.002296 -0.320158 0.000000 0.002089 -0.319043 0.000000 0.001882 -0.318035 0.000000 0.001674 -0.317130 0.000000 0.001466 -0.316332 0.000000 0.001257 -0.315638 0.000000 0.001048 -0.315052 0.000000 0.000839 -0.314571 0.000000 0.000629 -0.314198 0.000000 0.000420 -0.313930 0.000000 0.000210 -0.313771 0.000000 
0.000000 -0.313453 0.000000 -0.000317 -0.313507 0.000000 -0.000633 -0.313667 0.000000 -0.000950 -0.313935 0.000000 -0.001266 -0.314308 0.000000 -0.001582 -0.314790 0.000000 -0.001897 -0.315376 0.000000 -0.002212 -0.316070 0.000000 -0.002526 -0.316869 0.000000 -0.002839 -0.317774 0.000000 -0.003151 -0.318784 0.000000 -0.003463 -0.319899 0.000000 -0.003773 -0.321118 0.000000 -0.004082 -0.322442 0.000000 -0.004389 -0.323867 0.000000 -0.004696 -0.325397 0.000000 -0.005001 -0.327028 0.000000 -0.005304 -0.328761 0.000000 -0.005605 -0.330594 0.000000 -0.005904 -0.332528 0.000000 -0.006202 -0.334559 0.000000 -0.006497 -0.336691 0.000000 -0.006790 -0.338918 0.000000 -0.007081 -0.341243 0.000000 -0.007369 -0.343662 0.000000 -0.007655 -0.346177 0.000000 -0.007937 -0.348783 0.000000 -0.008217 -0.351483 0.000000 -0.008494 -0.354273 0.000000 -0.008768 -0.357153 0.000000 -0.009038 -0.360120 0.000000 -0.009305 -0.363175 0.000000 -0.009568 -0.366315 0.000000 -0.009827 -0.369539 0.000000 -0.010083 -0.372845 0.000000 -0.010334 -0.376233 0.000000 -0.010581 -0.379699 0.000000 -0.010824 -0.383244 0.000000 -0.011062 -0.386863 0.000000 -0.011296 -0.390558 0.000000 -0.011524 -0.394324 0.000000 -0.011748 -0.398161 0.000000 -0.011966 -0.402065 0.000000 -0.012179 -0.406037 0.000000 -0.012386 -0.410072 0.000000 -0.012587 -0.414171 0.000000 -0.012783 -0.418328 0.000000 -0.012972 -0.422545 0.000000 -0.013155 -0.426816 0.000000 -0.013332 -0.431141 0.000000 -0.013502 -0.435517 0.000000 -0.013666 -0.439942 0.000000 -0.013822 -0.444412 0.000000 -0.013971 -0.448927 0.000000 -0.014113 -0.453482 0.000000 -0.014248 -0.458077 0.000000 -0.014375 -0.462707 0.000000 -0.014494 -0.467370 0.000000 -0.014605 -0.472064 0.000000 -0.014708 -0.476786 0.000000 -0.014802 -0.481533 0.000000 -0.014889 -0.486303 0.000000 -0.014966 -0.491092 0.000000 -0.015035 -0.495897 0.000000 -0.015095 -0.500716 0.000000 -0.015147 -0.505546 0.000000 -0.015189 -0.510384 0.000000 -0.015221 -0.515227 0.000000 -0.015245 -0.520071 0.000000 -0.015259 -0.524914 0.000000 -0.015263 -0.529754 0.000000 -0.015258 -0.534585 0.000000 -0.015242 -0.539407 0.000000 -0.015217 -0.544215 0.000000 -0.015182 -0.549007 0.000000 -0.015137 -0.553779 0.000000 -0.015082 -0.558528 0.000000 -0.015017 -0.563252 0.000000 -0.014941 -0.567947 0.000000 -0.014855 -0.572609 0.000000 -0.014759 -0.577237 0.000000 -0.014653 -0.581827 0.000000 -0.014536 -0.586375 0.000000 -0.014409 -0.590879 0.000000 -0.014272 -0.595337 0.000000 -0.014124 -0.599743 0.000000 -0.013967 -0.604097 0.000000 -0.013799 -0.608394 0.000000 -0.013620 -0.612632 0.000000 -0.013432 -0.616808 0.000000 -0.013234 -0.620920 0.000000 -0.013025 -0.624962 0.000000 -0.012807 -0.628936 0.000000 -0.012579 -0.632834 0.000000 -0.012341 -0.636658 0.000000 -0.012094 -0.640402 0.000000 -0.011838 -0.644066 0.000000 -0.011572 -0.647644 0.000000 -0.011297 -0.651137 0.000000 -0.011013 -0.654540 0.000000 -0.010720 -0.657853 0.000000 -0.010419 -0.661071 0.000000 -0.010110 -0.664194 0.000000 -0.009792 -0.667217 0.000000 -0.009466 -0.670142 0.000000 -0.009133 -0.672962 0.000000 -0.008792 -0.675680 0.000000 -0.008445 -0.678289 0.000000 -0.008090 -0.680791 0.000000 -0.007728 -0.683182 0.000000 -0.007360 -0.685462 0.000000 -0.006986 -0.687627 0.000000 -0.006606 -0.689679 0.000000 -0.006221 -0.691612 0.000000 -0.005830 -0.693429 0.000000 -0.005435 -0.695124 0.000000 -0.005034 -0.696701 0.000000 -0.004630 -0.698155 0.000000 -0.004222 -0.699487 0.000000 -0.003810 -0.700693 0.000000 -0.003395 -0.701777 0.000000 -0.002977 -0.702733 0.000000 -0.002556 -0.703565 0.000000 -0.002134 -0.704268 0.000000 -0.001709 -0.704846 0.000000 -0.001283 -0.705294 0.000000 -0.000856 -0.705617 0.000000 -0.000428 -0.705808 0.000000 -0.000000 -0.705873 0.000000 0.000428 -0.705808 0.000000 0.000856 -0.705617 0.000000 0.001283 -0.705294 0.000000 0.001709 -0.704846 0.000000 0.002134 -0.704268 0.000000 0.002556 -0.703565 0.000000 0.002977 -0.702733 0.000000 0.003395 -0.701777 0.000000 0.003810 -0.700693 0.000000 0.004222 -0.699487 0.000000 0.004630 -0.698155 0.000000 0.005034 -0.696701 0.000000 0.005435 -0.695124 0.000000 0.005830 -0.693429 0.000000 0.006221 -0.691612 0.000000 0.006606 -0.689679 0.000000 0.006986 -0.687627 0.000000 0.007360 -0.685462 0.000000 0.007728 -0.683182 0.000000 0.008090 -0.680791 0.000000 0.008445 -0.678289 0.000000 0.008792 -0.675680 0.000000 0.009133 -0.672962 0.000000 0.009466 -0.670142 0.000000 0.009792 -0.667217 0.000000 0.010110 -0.664194 0.000000 0.010419 -0.661071 0.000000 0.010720 -0.657853 0.000000 0.011013 -0.654540 0.000000 0.011297 -0.651137 0.000000 0.011572 -0.647644 0.000000 0.011838 -0.644066 0.000000 0.012094 -0.640402 0.000000 0.012341 -0.636658 0.000000 0.012579 -0.632834 0.000000 0.012807 -0.628936 0.000000 0.013025 -0.624962 0.000000 0.013234 -0.620920 0.000000 0.013432 -0.616808 0.000000 0.013620 -0.612632 0.000000 0.013799 -0.608394 0.000000 0.013967 -0.604097 0.000000 0.014124 -0.599743 0.000000 0.014272 -0.595337 0.000000 0.014409 -0.590879 0.000000 0.014536 -0.586375 0.000000 0.014653 -0.581827 0.000000 0.014759 -0.577237 0.000000 0.014855 -0.572609 0.000000 0.014941 -0.567947 0.000000 0.015017 -0.563252 0.000000 0.015082 -0.558528 0.000000 0.015137 -0.553779 0.000000 0.015182 -0.549007 0.000000 0.015217 -0.544215 0.000000 0.015242 -0.539407 0.000000 0.015258 -0.534585 0.000000 0.015263 -0.529754 0.000000 0.015259 -0.524914 0.000000 0.015245 -0.520071 0.000000 0.015221 -0.515227 0.000000 0.015189 -0.510384 0.000000 0.015147 -0.505546 0.000000 0.015095 -0.500716 0.000000 0.015035 -0.495897 0.000000 0.014966 -0.491092 0.000000 0.014889 -0.486303 0.000000 0.014802 -0.481533 0.000000 0.014708 -0.476786 0.000000 0.014605 -0.472064 0.000000 0.014494 -0.467370 0.000000 0.014375 -0.462707 0.000000 0.014248 -0.458077 0.000000 0.014113 -0.453482 0.000000 0.013971 -0.448927 0.000000 0.013822 -0.444412 0.000000 0.013666 -0.439942 0.000000 0.013502 -0.435517 0.000000 0.013332 -0.431141 0.000000 0.013155 -0.426816 0.000000 0.012972 -0.422545 0.000000 0.012783 -0.418328 0.000000 0.012587 -0.414171 0.000000 0.012386 -0.410072 0.000000 0.012179 -0.406037 0.000000 0.011966 -0.402065 0.000000 0.011748 -0.398161 0.000000 0.011524 -0.394324 0.000000 0.011296 -0.390558 0.000000 0.011062 -0.386863 0.000000 0.010824 -0.383244 0.000000 0.010581 -0.379699 0.000000 0.010334 -0.376233 0.000000 0.010083 -0.372845 0.000000 0.009827 -0.369539 0.000000 0.009568 -0.366315 0.000000 0.009305 -0.363175 0.000000 0.009038 -0.360120 0.000000 0.008768 -0.357153 0.000000 0.008494 -0.354273 0.000000 0.008217 -0.351483 0.000000 0.007937 -0.348783 0.000000 0.007655 -0.346177 0.000000 0.007369 -0.343662 0.000000 0.007081 -0.341243 0.000000 0.006790 -0.338918 0.000000 0.006497 -0.336691 0.000000 0.006202 -0.334559 0.000000 0.005904 -0.332528 0.000000 0.005605 -0.330594 0.000000 0.005304 -0.328761 0.000000 0.005001 -0.327028 0.000000 0.004696 -0.325397 0.000000 0.004389 -0.323867 0.000000 0.004082 -0.322442 0.000000 0.003773 -0.321118 0.000000 0.003463 -0.319899 0.000000 0.003151 -0.318784 0.000000 0.002839 -0.317774 0.000000 0.002526 -0.316869 0.000000 0.002212 -0.316070 0.000000 0.001897 -0.315376 0.000000 0.001582 -0.314790 0.000000 0.001266 -0.314308 0.000000 0.000950 -0.313935 0.000000 0.000633 -0.313667 0.000000 0.000317 -0.313507 0.000000 
0.000000 -0.313083 0.000000 -0.000424 -0.313137 0.000000 -0.000847 -0.313297 0.000000 -0.001271 -0.313566 0.000000 -0.001694 -0.313939 0.000000 -0.002116 -0.314421 0.000000 -0.002538 -0.315008 0.000000 -0.002958 -0.315703 0.000000 -0.003378 -0.316502 0.000000 -0.003797 -0.317409 0.000000 -0.004214 -0.318419 0.000000 -0.004630 -0.319536 0.000000 -0.005045 -0.320756 0.000000 -0.005457 -0.322082 0.000000 -0.005868 -0.323509 0.000000 -0.006277 -0.325041 0.000000 -0.006683 -0.326673 0.000000 -0.007088 -0.328409 0.000000 -0.007489 -0.330243 0.000000 -0.007888 -0.332180 0.000000 -0.008285 -0.334214 0.000000 -0.008678 -0.336348 0.000000 -0.009068 -0.338578 0.000000 -0.009454 -0.340906 0.000000 -0.009837 -0.343328 0.000000 -0.010217 -0.345846 0.000000 -0.010592 -0.348456 0.000000 -0.010963 -0.351160 0.000000 -0.011331 -0.353953 0.000000 -0.011693 -0.356837 0.000000 -0.012051 -0.359808 0.000000 -0.012404 -0.362868 0.000000 -0.012752 -0.366011 0.000000 -0.013095 -0.369241 0.000000 -0.013432 -0.372551 0.000000 -0.013763 -0.375944 0.000000 -0.014089 -0.379415 0.000000 -0.014409 -0.382966 0.000000 -0.014722 -0.386591 0.000000 -0.015028 -0.390291 0.000000 -0.015328 -0.394063 0.000000 -0.015621 -0.397906 0.000000 -0.015907 -0.401817 0.000000 -0.016185 -0.405795 0.000000 -0.016456 -0.409837 0.000000 -0.016718 -0.413942 0.000000 -0.016973 -0.418107 0.000000 -0.017219 -0.422331 0.000000 -0.017457 -0.426609 0.000000 -0.017686 -0.430943 0.000000 -0.017906 -0.435326 0.000000 -0.018117 -0.439759 0.000000 -0.018318 -0.444238 0.000000 -0.018510 -0.448761 0.000000 -0.018692 -0.453325 0.000000 -0.018864 -0.457928 0.000000 -0.019025 -0.462567 0.000000 -0.019176 -0.467240 0.000000 -0.019317 -0.471943 0.000000 -0.019446 -0.476675 0.000000 -0.019565 -0.481432 0.000000 -0.019672 -0.486211 0.000000 -0.019768 -0.491010 0.000000 -0.019852 -0.495826 0.000000 -0.019925 -0.500655 0.000000 -0.019985 -0.505496 0.000000 -0.020034 -0.510344 0.000000 -0.020070 -0.515198 0.000000 -0.020094 -0.520053 0.000000 -0.020105 -0.524907 0.000000 -0.020103 -0.529758 0.000000 -0.020089 -0.534601 0.000000 -0.020062 -0.539434 0.000000 -0.020022 -0.544253 0.000000 -0.019969 -0.549057 0.000000 -0.019903 -0.553840 0.000000 -0.019824 -0.558601 0.000000 -0.019731 -0.563336 0.000000 -0.019625 -0.568043 0.000000 -0.019506 -0.572718 0.000000 -0.019373 -0.577357 0.000000 -0.019227 -0.581959 0.000000 -0.019068 -0.586519 0.000000 -0.018895 -0.591035 0.000000 -0.018709 -0.595504 0.000000 -0.018510 -0.599922 0.000000 -0.018297 -0.604288 0.000000 -0.018072 -0.608596 0.000000 -0.017833 -0.612847 0.000000 -0.017581 -0.617034 0.000000 -0.017316 -0.621157 0.000000 -0.017038 -0.625211 0.000000 -0.016748 -0.629195 0.000000 -0.016445 -0.633105 0.000000 -0.016130 -0.636940 0.000000 -0.015803 -0.640694 0.000000 -0.015463 -0.644369 0.000000 -0.015112 -0.647957 0.000000 -0.014749 -0.651461 0.000000 -0.014375 -0.654874 0.000000 -0.013990 -0.658197 0.000000 -0.013594 -0.661424 0.000000 -0.013187 -0.664557 0.000000 -0.012770 -0.667589 0.000000 -0.012343 -0.670522 0.000000 -0.011906 -0.673351 0.000000 -0.011460 -0.676077 0.000000 -0.011004 -0.678694 0.000000 -0.010540 -0.681205 0.000000 -0.010067 -0.683602 0.000000 -0.009586 -0.685890 0.000000 -0.009097 -0.688062 0.000000 -0.008601 -0.690120 0.000000 -0.008098 -0.692059 0.000000 -0.007589 -0.693881 0.000000 -0.007073 -0.695582 0.000000 -0.006552 -0.697164 0.000000 -0.006025 -0.698622 0.000000 -0.005493 -0.699959 0.000000 -0.004957 -0.701169 0.000000 -0.004416 -0.702256 0.000000 -0.003872 -0.703215 0.000000 -0.003325 -0.704050 0.000000 -0.002775 -0.704756 0.000000 -0.002223 -0.705335 0.000000 -0.001669 -0.705785 0.000000 -0.001113 -0.706108 0.000000 -0.000557 -0.706300 0.000000 -0.000000 -0.706366 0.000000 0.000557 -0.706300 0.000000 0.001113 -0.706108 0.000000 0.001669 -0.705785 0.000000 0.002223 -0.705335 0.000000 0.002775 -0.704756 0.000000 0.003325 -0.704050 0.000000 0.003872 -0.703215 0.000000 0.004416 -0.702256 0.000000 0.004957 -0.701169 0.000000 0.005493 -0.699959 0.000000 0.006025 -0.698622 0.000000 0.006552 -0.697164 0.000000 0.007073 -0.695582 0.000000 0.007589 -0.693881 0.000000 0.008098 -0.692059 0.000000 0.008601 -0.690120 0.000000 0.009097 -0.688062 0.000000 0.009586 -0.685890 0.000000 0.010067 -0.683602 0.000000 0.010540 -0.681205 0.000000 0.011004 -0.678694 0.000000 0.011460 -0.676077 0.000000 0.011906 -0.673351 0.000000 0.012343 -0.670522 0.000000 0.012770 -0.667589 0.000000 0.013187 -0.664557 0.000000 0.013594 -0.661424 0.000000 0.013990 -0.658197 0.000000 0.014375 -0.654874 0.000000 0.014749 -0.651461 0.000000 0.015112 -0.647957 0.000000 0.015463 -0.644369 0.000000 0.015803 -0.640694 0.000000 0.016130 -0.636940 0.000000 0.016445 -0.633105 0.000000 0.016748 -0.629195 0.000000 0.017038 -0.625211 0.000000 0.017316 -0.621157 0.000000 0.017581 -0.617034 0.000000 0.017833 -0.612847 0.000000 0.018072 -0.608596 0.000000 0.018297 -0.604288 0.000000 0.018510 -0.599922 0.000000 0.018709 -0.595504 0.000000 0.018895 -0.591035 0.000000 0.019068 -0.586519 0.000000 0.019227 -0.581959 0.000000 0.019373 -0.577357 0.000000 0.019506 -0.572718 0.000000 0.019625 -0.568043 0.000000 0.019731 -0.563336 0.000000 0.019824 -0.558601 0.000000 0.019903 -0.553840 0.000000 0.019969 -0.549057 0.000000 0.020022 -0.544253 0.000000 0.020062 -0.539434 0.000000 0.020089 -0.534601 0.000000 0.020103 -0.529758 0.000000 0.020105 -0.524907 0.000000 0.020094 -0.520053 0.000000 0.020070 -0.515198 0.000000 0.020034 -0.510344 0.000000 0.019985 -0.505496 0.000000 0.019925 -0.500655 0.000000 0.019852 -0.495826 0.000000 0.019768 -0.491010 0.000000 0.019672 -0.486211 0.000000 0.019565 -0.481432 0.000000 0.019446 -0.476675 0.000000 0.019317 -0.471943 0.000000 0.019176 -0.467240 0.000000 0.019025 -0.462567 0.000000 0.018864 -0.457928 0.000000 0.018692 -0.453325 0.000000 0.018510 -0.448761 0.000000 0.018318 -0.444238 0.000000 0.018117 -0.439759 0.000000 0.017906 -0.435326 0.000000 0.017686 -0.430943 0.000000 0.017457 -0.426609 0.000000 0.017219 -0.422331 0.000000 0.016973 -0.418107 0.000000 0.016718 -0.413942 0.000000 0.016456 -0.409837 0.000000 0.016185 -0.405795 0.000000 0.015907 -0.401817 0.000000 0.015621 -0.397906 0.000000 0.015328 -0.394063 0.000000 0.015028 -0.390291 0.000000 0.014722 -0.386591 0.000000 0.014409 -0.382966 0.000000 0.014089 -0.379415 0.000000 0.013763 -0.375944 0.000000 0.013432 -0.372551 0.000000 0.013095 -0.369241 0.000000 0.012752 -0.366011 0.000000 0.012404 -0.362868 0.000000 0.012051 -0.359808 0.000000 0.011693 -0.356837 0.000000 0.011331 -0.353953 0.000000 0.010963 -0.351160 0.000000 0.010592 -0.348456 0.000000 0.010217 -0.345846 0.000000 0.009837 -0.343328 0.000000 0.009454 -0.340906 0.000000 0.009068 -0.338578 0.000000 0.008678 -0.336348 0.000000 0.008285 -0.334214 0.000000 0.007888 -0.332180 0.000000 0.007489 -0.330243 0.000000 0.007088 -0.328409 0.000000 0.006683 -0.326673 0.000000 0.006277 -0.325041 0.000000 0.005868 -0.323509 0.000000 0.005457 -0.322082 0.000000 0.005045 -0.320756 0.000000 0.004630 -0.319536 0.000000 0.004214 -0.318419 0.000000 0.003797 -0.317409 0.000000 0.003378 -0.316502 0.000000 0.002958 -0.315703 0.000000 0.002538 -0.315008 0.000000 0.002116 -0.314421 0.000000 0.001694 -0.313939 0.000000 0.001271 -0.313566 0.000000 0.000847 -0.313297 0.000000 0.000424 -0.313137 0.000000 
0.000000 -0.312606 0.000000 -0.000531 -0.312660 0.000000 -0.001062 -0.312820 0.000000 -0.001592 -0.313089 0.000000 -0.002122 -0.313463 0.000000 -0.002651 -0.313946 0.000000 -0.003179 -0.314534 0.000000 -0.003706 -0.315230 0.000000 -0.004232 -0.316030 0.000000 -0.004756 -0.316938 0.000000 -0.005279 -0.317950 0.000000 -0.005799 -0.319069 0.000000 -0.006318 -0.320291 0.000000 -0.006834 -0.321618 0.000000 -0.007349 -0.323048 0.000000 -0.007860 -0.324582 0.000000 -0.008368 -0.326217 0.000000 -0.008874 -0.327955 0.000000 -0.009376 -0.329793 0.000000 -0.009875 -0.331733 0.000000 -0.010370 -0.333770 0.000000 -0.010861 -0.335908 0.000000 -0.011348 -0.338141 0.000000 -0.011831 -0.340474 0.000000 -0.012309 -0.342900 0.000000 -0.012783 -0.345422 0.000000 -0.013251 -0.348037 0.000000 -0.013714 -0.350745 0.000000 -0.014171 -0.353543 0.000000 -0.014623 -0.356432 0.000000 -0.015069 -0.359409 0.000000 -0.015508 -0.362474 0.000000 -0.015941 -0.365624 0.000000 -0.016367 -0.368859 0.000000 -0.016787 -0.372176 0.000000 -0.017198 -0.375576 0.000000 -0.017603 -0.379054 0.000000 -0.017999 -0.382611 0.000000 -0.018388 -0.386244 0.000000 -0.018768 -0.389952 0.000000 -0.019139 -0.393731 0.000000 -0.019502 -0.397582 0.000000 -0.019855 -0.401501 0.000000 -0.020199 -0.405488 0.000000 -0.020533 -0.409539 0.000000 -0.020857 -0.413654 0.000000 -0.021171 -0.417828 0.000000 -0.021475 -0.422061 0.000000 -0.021767 -0.426349 0.000000 -0.022049 -0.430692 0.000000 -0.022319 -0.435086 0.000000 -0.022577 -0.439530 0.000000 -0.022824 -0.444019 0.000000 -0.023058 -0.448553 0.000000 -0.023280 -0.453129 0.000000 -0.023490 -0.457743 0.000000 -0.023686 -0.462394 0.000000 -0.023870 -0.467079 0.000000 -0.024040 -0.471794 0.000000 -0.024196 -0.476538 0.000000 -0.024338 -0.481307 0.000000 -0.024467 -0.486100 0.000000 -0.024581 -0.490911 0.000000 -0.024681 -0.495740 0.000000 -0.024766 -0.500583 0.000000 -0.024836 -0.505437 0.000000 -0.024891 -0.510299 0.000000 -0.024930 -0.515167 0.000000 -0.024955 -0.520036 0.000000 -0.024963 -0.524904 0.000000 -0.024956 -0.529769 0.000000 -0.024934 -0.534626 0.000000 -0.024895 -0.539474 0.000000 -0.024840 -0.544308 0.000000 -0.024769 -0.549126 0.000000 -0.024682 -0.553924 0.000000 -0.024578 -0.558700 0.000000 -0.024459 -0.563450 0.000000 -0.024322 -0.568172 0.000000 -0.024170 -0.572861 0.000000 -0.024000 -0.577516 0.000000 -0.023815 -0.582132 0.000000 -0.023613 -0.586708 0.000000 -0.023394 -0.591238 0.000000 -0.023159 -0.595722 0.000000 -0.022908 -0.600155 0.000000 -0.022641 -0.604535 0.000000 -0.022357 -0.608858 0.000000 -0.022057 -0.613123 0.000000 -0.021742 -0.617325 0.000000 -0.021411 -0.621462 0.000000 -0.021064 -0.625530 0.000000 -0.020701 -0.629529 0.000000 -0.020324 -0.633452 0.000000 -0.019931 -0.637301 0.000000 -0.019523 -0.641069 0.000000 -0.019101 -0.644756 0.000000 -0.018664 -0.648358 0.000000 -0.018213 -0.651874 0.000000 -0.017749 -0.655300 0.000000 -0.017270 -0.658634 0.000000 -0.016779 -0.661874 0.000000 -0.016275 -0.665018 0.000000 -0.015758 -0.668062 0.000000 -0.015229 -0.671006 0.000000 -0.014688 -0.673846 0.000000 -0.014135 -0.676582 0.000000 -0.013572 -0.679209 0.000000 -0.012998 -0.681728 0.000000 -0.012414 -0.684136 0.000000 -0.011819 -0.686432 0.000000 -0.011216 -0.688612 0.000000 -0.010603 -0.690678 0.000000 -0.009983 -0.692624 0.000000 -0.009354 -0.694454 0.000000 -0.008717 -0.696162 0.000000 -0.008074 -0.697750 0.000000 -0.007424 -0.699213 0.000000 -0.006769 -0.700555 0.000000 -0.006107 -0.701770 0.000000 -0.005441 -0.702861 0.000000 -0.004771 -0.703824 0.000000 -0.004096 -0.704662 0.000000 -0.003419 -0.705371 0.000000 -0.002738 -0.705953 0.000000 -0.002056 -0.706404 0.000000 -0.001371 -0.706728 0.000000 -0.000686 -0.706921 0.000000 -0.000000 -0.706987 0.000000 0.000686 -0.706921 0.000000 0.001371 -0.706728 0.000000 0.002056 -0.706404 0.000000 0.002738 -0.705953 0.000000 0.003419 -0.705371 0.000000 0.004096 -0.704662 0.000000 0.004771 -0.703824 0.000000 0.005441 -0.702861 0.000000 0.006107 -0.701770 0.000000 0.006769 -0.700555 0.000000 0.007424 -0.699213 0.000000 0.008074 -0.697750 0.000000 0.008717 -0.696162 0.000000 0.009354 -0.694454 0.000000 0.009983 -0.692624 0.000000 0.010603 -0.690678 0.000000 0.011216 -0.688612 0.000000 0.011819 -0.686432 0.000000 0.012414 -0.684136 0.000000 0.012998 -0.681728 0.000000 0.013572 -0.679209 0.000000 0.014135 -0.676582 0.000000 0.014688 -0.673846 0.000000 0.015229 -0.671006 0.000000 0.015758 -0.668062 0.000000 0.016275 -0.665018 0.000000 0.016779 -0.661874 0.000000 0.017270 -0.658634 0.000000 0.017749 -0.655300 0.000000 0.018213 -0.651874 0.000000 0.018664 -0.648358 0.000000 0.019101 -0.644756 0.000000 0.019523 -0.641069 0.000000 0.019931 -0.637301 0.000000 0.020324 -0.633452 0.000000 0.020701 -0.629529 0.000000 0.021064 -0.625530 0.000000 0.021411 -0.621462 0.000000 0.021742 -0.617325 0.000000 0.022057 -0.613123 0.000000 0.022357 -0.608858 0.000000 0.022641 -0.604535 0.000000 0.022908 -0.600155 0.000000 0.023159 -0.595722 0.000000 0.023394 -0.591238 0.000000 0.023613 -0.586708 0.000000 0.023815 -0.582132 0.000000 0.024000 -0.577516 0.000000 0.024170 -0.572861 0.000000 0.024322 -0.568172 0.000000 0.024459 -0.563450 0.000000 0.024578 -0.558700 0.000000 0.024682 -0.553924 0.000000 0.024769 -0.549126 0.000000 0.024840 -0.544308 0.000000 0.024895 -0.539474 0.000000 0.024934 -0.534626 0.000000 0.024956 -0.529769 0.000000 0.024963 -0.524904 0.000000 0.024955 -0.520036 0.000000 0.024930 -0.515167 0.000000 0.024891 -0.510299 0.000000 0.024836 -0.505437 0.000000 0.024766 -0.500583 0.000000 0.024681 -0.495740 0.000000 0.024581 -0.490911 0.000000 0.024467 -0.486100 0.000000 0.024338 -0.481307 0.000000 0.024196 -0.476538 0.000000 0.024040 -0.471794 0.000000 0.023870 -0.467079 0.000000 0.023686 -0.462394 0.000000 0.023490 -0.457743 0.000000 0.023280 -0.453129 0.000000 0.023058 -0.448553 0.000000 0.022824 -0.444019 0.000000 0.022577 -0.439530 0.000000 0.022319 -0.435086 0.000000 0.022049 -0.430692 0.000000 0.021767 -0.426349 0.000000 0.021475 -0.422061 0.000000 0.021171 -0.417828 0.000000 0.020857 -0.413654 0.000000 0.020533 -0.409539 0.000000 0.020199 -0.405488 0.000000 0.019855 -0.401501 0.000000 0.019502 -0.397582 0.000000 0.019139 -0.393731 0.000000 0.018768 -0.389952 0.000000 0.018388 -0.386244 0.000000 0.017999 -0.382611 0.000000 0.017603 -0.379054 0.000000 0.017198 -0.375576 0.000000 0.016787 -0.372176 0.000000 0.016367 -0.368859 0.000000 0.015941 -0.365624 0.000000 0.015508 -0.362474 0.000000 0.015069 -0.359409 0.000000 0.014623 -0.356432 0.000000 0.014171 -0.353543 0.000000 0.013714 -0.350745 0.000000 0.013251 -0.348037 0.000000 0.012783 -0.345422 0.000000 0.012309 -0.342900 0.000000 0.011831 -0.340474 0.000000 0.011348 -0.338141 0.000000 0.010861 -0.335908 0.000000 0.010370 -0.333770 0.000000 0.009875 -0.331733 0.000000 0.009376 -0.329793 0.000000 0.008874 -0.327955 0.000000 0.008368 -0.326217 0.000000 0.007860 -0.324582 0.000000 0.007349 -0.323048 0.000000 0.006834 -0.321618 0.000000 0.006318 -0.320291 0.000000 0.005799 -0.319069 0.000000 0.005279 -0.317950 0.000000 0.004756 -0.316938 0.000000 0.004232 -0.316030 0.000000 0.003706 -0.315230 0.000000 0.003179 -0.314534 0.000000 0.002651 -0.313946 0.000000 0.002122 -0.313463 0.000000 0.001592 -0.313089 0.000000 0.001062 -0.312820 0.000000 0.000531 -0.312660 0.000000 