# vtk DataFile Version 2.0
Comment goes here
ASCII

DATASET STRUCTURED_POINTS
FIELD FieldData 1
TIME 1 1 double
0.01000000
DIMENSIONS    256   256   1

ORIGIN    0.000   0.000   0.000
SPACING   0.0039062 0.0039062   1.000

POINT_DATA   65536
VECTORS u double

-0.000000 -0.097284 0.000000 0.000175 -0.097302 0.000000 0.000350 -0.097351 0.000000 0.000525 -0.097436 0.000000 0.000700 -0.097552 0.000000 0.000875 -0.097703 0.000000 0.001049 -0.097887 0.000000 0.001223 -0.098104 0.000000 0.001397 -0.098354 0.000000 0.001571 -0.098638 0.000000 0.001744 -0.098954 0.000000 0.001916 -0.099303 0.000000 0.002088 -0.099684 0.000000 0.002259 -0.100099 0.000000 0.002430 -0.100545 0.000000 0.002600 -0.101025 0.000000 0.002769 -0.101535 0.000000 0.002937 -0.102078 0.000000 0.003105 -0.102651 0.000000 0.003271 -0.103257 0.000000 0.003436 -0.103893 0.000000 0.003601 -0.104560 0.000000 0.003764 -0.105257 0.000000 0.003926 -0.105985 0.000000 0.004086 -0.106742 0.000000 0.004246 -0.107529 0.000000 0.004403 -0.108344 0.000000 0.004560 -0.109189 0.000000 0.004714 -0.110062 0.000000 0.004867 -0.110963 0.000000 0.005018 -0.111891 0.000000 0.005168 -0.112846 0.000000 0.005315 -0.113828 0.000000 0.005460 -0.114836 0.000000 0.005604 -0.115870 0.000000 0.005744 -0.116929 0.000000 0.005883 -0.118012 0.000000 0.006019 -0.119120 0.000000 0.006153 -0.120251 0.000000 0.006284 -0.121405 0.000000 0.006413 -0.122581 0.000000 0.006538 -0.123780 0.000000 0.006661 -0.124999 0.000000 0.006781 -0.126239 0.000000 0.006897 -0.127498 0.000000 0.007011 -0.128777 0.000000 0.007121 -0.130074 0.000000 0.007227 -0.131389 0.000000 0.007330 -0.132720 0.000000 0.007430 -0.134069 0.000000 0.007525 -0.135432 0.000000 0.007617 -0.136811 0.000000 0.007705 -0.138203 0.000000 0.007789 -0.139609 0.000000 0.007868 -0.141026 0.000000 0.007944 -0.142456 0.000000 0.008015 -0.143896 0.000000 0.008081 -0.145346 0.000000 0.008143 -0.146804 0.000000 0.008201 -0.148271 0.000000 0.008253 -0.149746 0.000000 0.008301 -0.151226 0.000000 0.008344 -0.152712 0.000000 0.008382 -0.154202 0.000000 0.008415 -0.155696 0.000000 0.008442 -0.157193 0.000000 0.008465 -0.158691 0.000000 0.008482 -0.160190 0.000000 0.008493 -0.161689 0.000000 0.008499 -0.163187 0.000000 0.008500 -0.164683 0.000000 0.008495 -0.166175 0.000000 0.008485 -0.167664 0.000000 0.008469 -0.169147 0.000000 0.008447 -0.170625 0.000000 0.008420 -0.172096 0.000000 0.008387 -0.173559 0.000000 0.008348 -0.175013 0.000000 0.008303 -0.176458 0.000000 0.008252 -0.177891 0.000000 0.008196 -0.179313 0.000000 0.008134 -0.180722 0.000000 0.008066 -0.182119 0.000000 0.007993 -0.183500 0.000000 0.007913 -0.184866 0.000000 0.007828 -0.186215 0.000000 0.007737 -0.187548 0.000000 0.007641 -0.188862 0.000000 0.007539 -0.190158 0.000000 0.007431 -0.191434 0.000000 0.007318 -0.192689 0.000000 0.007199 -0.193922 0.000000 0.007075 -0.195134 0.000000 0.006946 -0.196321 0.000000 0.006812 -0.197486 0.000000 0.006672 -0.198625 0.000000 0.006527 -0.199739 0.000000 0.006378 -0.200826 0.000000 0.006223 -0.201887 0.000000 0.006064 -0.202920 0.000000 0.005900 -0.203924 0.000000 0.005731 -0.204900 0.000000 0.005558 -0.205846 0.000000 0.005381 -0.206761 0.000000 0.005200 -0.207646 0.000000 0.005015 -0.208499 0.000000 0.004826 -0.209320 0.000000 0.004633 -0.210108 0.000000 0.004436 -0.210864 0.000000 0.004236 -0.211585 0.000000 0.004033 -0.212273 0.000000 0.003827 -0.212926 0.000000 0.003617 -0.213544 0.000000 0.003405 -0.214127 0.000000 0.003190 -0.214674 0.000000 0.002973 -0.215184 0.000000 0.002753 -0.215659 0.000000 0.002531 -0.216096 0.000000 0.002308 -0.216497 0.000000 0.002082 -0.216859 0.000000 0.001855 -0.217185 0.000000 0.001626 -0.217472 0.000000 0.001396 -0.217722 0.000000 0.001165 -0.217933 0.000000 0.000933 -0.218107 0.000000 0.000701 -0.218242 0.000000 0.000467 -0.218338 0.000000 0.000234 -0.218396 0.000000 -0.000000 -0.218416 0.000000 -0.000234 -0.218396 0.000000 -0.000467 -0.218338 0.000000 -0.000701 -0.218242 0.000000 -0.000933 -0.218107 0.000000 -0.001165 -0.217933 0.000000 -0.001396 -0.217722 0.000000 -0.001626 -0.217472 0.000000 -0.001855 -0.217185 0.000000 -0.002082 -0.216859 0.000000 -0.002308 -0.216497 0.000000 -0.002531 -0.216096 0.000000 -0.002753 -0.215659 0.000000 -0.002973 -0.215184 0.000000 -0.003190 -0.214674 0.000000 -0.003405 -0.214127 0.000000 -0.003617 -0.213544 0.000000 -0.003827 -0.212926 0.000000 -0.004033 -0.212273 0.000000 -0.004236 -0.211585 0.000000 -0.004436 -0.210864 0.000000 -0.004633 -0.210108 0.000000 -0.004826 -0.209320 0.000000 -0.005015 -0.208499 0.000000 -0.005200 -0.207646 0.000000 -0.005381 -0.206761 0.000000 -0.005558 -0.205846 0.000000 -0.005731 -0.204900 0.000000 -0.005900 -0.203924 0.000000 -0.006064 -0.202920 0.000000 -0.006223 -0.201887 0.000000 -0.006378 -0.200826 0.000000 -0.006527 -0.199739 0.000000 -0.006672 -0.198625 0.000000 -0.006812 -0.197486 0.000000 -0.006946 -0.196321 0.000000 -0.007075 -0.195134 0.000000 -0.007199 -0.193922 0.000000 -0.007318 -0.192689 0.000000 -0.007431 -0.191434 0.000000 -0.007539 -0.190158 0.000000 -0.007641 -0.188862 0.000000 -0.007737 -0.187548 0.000000 -0.007828 -0.186215 0.000000 -0.007913 -0.184866 0.000000 -0.007993 -0.183500 0.000000 -0.008066 -0.182119 0.000000 -0.008134 -0.180722 0.000000 -0.008196 -0.179313 0.000000 -0.008252 -0.177891 0.000000 -0.008303 -0.176458 0.000000 -0.008348 -0.175013 0.000000 -0.008387 -0.173559 0.000000 -0.008420 -0.172096 0.000000 -0.008447 -0.170625 0.000000 -0.008469 -0.169147 0.000000 -0.008485 -0.167664 0.000000 -0.008495 -0.166175 0.000000 -0.008500 -0.164683 0.000000 -0.008499 -0.163187 0.000000 -0.008493 -0.161689 0.000000 -0.008482 -0.160190 0.000000 -0.008465 -0.158691 0.000000 -0.008442 -0.157193 0.000000 -0.008415 -0.155696 0.000000 -0.008382 -0.154202 0.000000 -0.008344 -0.152712 0.000000 -0.008301 -0.151226 0.000000 -0.008253 -0.149746 0.000000 -0.008201 -0.148271 0.000000 -0.008143 -0.146804 0.000000 -0.008081 -0.145346 0.000000 -0.008015 -0.143896 0.000000 -0.007944 -0.142456 0.000000 -0.007868 -0.141026 0.000000 -0.007789 -0.139609 0.000000 -0.007705 -0.138203 0.000000 -0.007617 -0.136811 0.000000 -0.007525 -0.135432 0.000000 -0.007430 -0.134069 0.000000 -0.007330 -0.132720 0.000000 -0.007227 -0.131389 0.000000 -0.007121 -0.130074 0.000000 -0.007011 -0.128777 0.000000 -0.006897 -0.127498 0.000000 -0.006781 -0.126239 0.000000 -0.006661 -0.124999 0.000000 -0.006538 -0.123780 0.000000 -0.006413 -0.122581 0.000000 -0.006284 -0.121405 0.000000 -0.006153 -0.120251 0.000000 -0.006019 -0.119120 0.000000 -0.005883 -0.118012 0.000000 -0.005744 -0.116929 0.000000 -0.005604 -0.115870 0.000000 -0.005460 -0.114836 0.000000 -0.005315 -0.113828 0.000000 -0.005168 -0.112846 0.000000 -0.005018 -0.111891 0.000000 -0.004867 -0.110963 0.000000 -0.004714 -0.110062 0.000000 -0.004560 -0.109189 0.000000 -0.004403 -0.108344 0.000000 -0.004246 -0.107529 0.000000 -0.004086 -0.106742 0.000000 -0.003926 -0.105985 0.000000 -0.003764 -0.105257 0.000000 -0.003601 -0.104560 0.000000 -0.003436 -0.103893 0.000000 -0.003271 -0.103257 0.000000 -0.003105 -0.102651 0.000000 -0.002937 -0.102078 0.000000 -0.002769 -0.101535 0.000000 -0.002600 -0.101025 0.000000 -0.002430 -0.100545 0.000000 -0.002259 -0.100099 0.000000 -0.002088 -0.099684 0.000000 -0.001916 -0.099303 0.000000 -0.001744 -0.098954 0.000000 -0.001571 -0.098638 0.000000 -0.001397 -0.098354 0.000000 -0.001223 -0.098104 0.000000 -0.001049 -0.097887 0.000000 -0.000875 -0.097703 0.000000 -0.000700 -0.097552 0.000000 -0.000525 -0.097436 0.000000 -0.000350 -0.097351 0.000000 -0.000175 -0.097302 0.000000 
-0.000000 -0.097443 0.000000 0.000142 -0.097460 0.000000 0.000283 -0.097510 0.000000 0.000425 -0.097594 0.000000 0.000566 -0.097711 0.000000 0.000708 -0.097862 0.000000 0.000849 -0.098045 0.000000 0.000990 -0.098262 0.000000 0.001131 -0.098512 0.000000 0.001271 -0.098795 0.000000 0.001411 -0.099110 0.000000 0.001551 -0.099460 0.000000 0.001690 -0.099840 0.000000 0.001829 -0.100255 0.000000 0.001968 -0.100700 0.000000 0.002106 -0.101179 0.000000 0.002243 -0.101688 0.000000 0.002380 -0.102230 0.000000 0.002516 -0.102803 0.000000 0.002651 -0.103408 0.000000 0.002786 -0.104043 0.000000 0.002919 -0.104709 0.000000 0.003052 -0.105405 0.000000 0.003184 -0.106132 0.000000 0.003316 -0.106887 0.000000 0.003445 -0.107673 0.000000 0.003574 -0.108487 0.000000 0.003702 -0.109331 0.000000 0.003829 -0.110202 0.000000 0.003954 -0.111102 0.000000 0.004078 -0.112028 0.000000 0.004200 -0.112982 0.000000 0.004322 -0.113962 0.000000 0.004441 -0.114968 0.000000 0.004559 -0.116000 0.000000 0.004675 -0.117057 0.000000 0.004789 -0.118138 0.000000 0.004902 -0.119244 0.000000 0.005012 -0.120372 0.000000 0.005121 -0.121524 0.000000 0.005227 -0.122698 0.000000 0.005332 -0.123894 0.000000 0.005434 -0.125110 0.000000 0.005533 -0.126347 0.000000 0.005630 -0.127604 0.000000 0.005725 -0.128880 0.000000 0.005817 -0.130174 0.000000 0.005906 -0.131485 0.000000 0.005993 -0.132814 0.000000 0.006076 -0.134159 0.000000 0.006157 -0.135519 0.000000 0.006234 -0.136894 0.000000 0.006309 -0.138283 0.000000 0.006380 -0.139684 0.000000 0.006448 -0.141098 0.000000 0.006512 -0.142524 0.000000 0.006573 -0.143960 0.000000 0.006630 -0.145406 0.000000 0.006684 -0.146860 0.000000 0.006733 -0.148323 0.000000 0.006779 -0.149793 0.000000 0.006821 -0.151269 0.000000 0.006859 -0.152750 0.000000 0.006893 -0.154236 0.000000 0.006923 -0.155725 0.000000 0.006948 -0.157217 0.000000 0.006969 -0.158711 0.000000 0.006986 -0.160205 0.000000 0.006999 -0.161699 0.000000 0.007006 -0.163192 0.000000 0.007010 -0.164682 0.000000 0.007009 -0.166170 0.000000 0.007003 -0.167653 0.000000 0.006992 -0.169132 0.000000 0.006977 -0.170604 0.000000 0.006957 -0.172070 0.000000 0.006932 -0.173527 0.000000 0.006902 -0.174976 0.000000 0.006868 -0.176415 0.000000 0.006829 -0.177843 0.000000 0.006784 -0.179260 0.000000 0.006735 -0.180664 0.000000 0.006681 -0.182055 0.000000 0.006623 -0.183431 0.000000 0.006559 -0.184792 0.000000 0.006491 -0.186136 0.000000 0.006418 -0.187463 0.000000 0.006340 -0.188772 0.000000 0.006257 -0.190063 0.000000 0.006170 -0.191333 0.000000 0.006077 -0.192583 0.000000 0.005981 -0.193812 0.000000 0.005879 -0.195018 0.000000 0.005774 -0.196201 0.000000 0.005663 -0.197360 0.000000 0.005549 -0.198495 0.000000 0.005430 -0.199604 0.000000 0.005307 -0.200687 0.000000 0.005180 -0.201743 0.000000 0.005048 -0.202771 0.000000 0.004913 -0.203772 0.000000 0.004774 -0.204743 0.000000 0.004631 -0.205685 0.000000 0.004484 -0.206597 0.000000 0.004334 -0.207478 0.000000 0.004180 -0.208327 0.000000 0.004023 -0.209145 0.000000 0.003863 -0.209929 0.000000 0.003700 -0.210682 0.000000 0.003534 -0.211400 0.000000 0.003365 -0.212085 0.000000 0.003193 -0.212735 0.000000 0.003019 -0.213350 0.000000 0.002842 -0.213930 0.000000 0.002663 -0.214475 0.000000 0.002482 -0.214983 0.000000 0.002299 -0.215455 0.000000 0.002114 -0.215890 0.000000 0.001927 -0.216289 0.000000 0.001739 -0.216650 0.000000 0.001549 -0.216975 0.000000 0.001358 -0.217261 0.000000 0.001166 -0.217510 0.000000 0.000973 -0.217720 0.000000 0.000780 -0.217893 0.000000 0.000585 -0.218027 0.000000 0.000390 -0.218123 0.000000 0.000195 -0.218180 0.000000 -0.000000 -0.218200 0.000000 -0.000195 -0.218180 0.000000 -0.000390 -0.218123 0.000000 -0.000585 -0.218027 0.000000 -0.000780 -0.217893 0.000000 -0.000973 -0.217720 0.000000 -0.001166 -0.217510 0.000000 -0.001358 -0.217261 0.000000 -0.001549 -0.216975 0.000000 -0.001739 -0.216650 0.000000 -0.001927 -0.216289 0.000000 -0.002114 -0.215890 0.000000 -0.002299 -0.215455 0.000000 -0.002482 -0.214983 0.000000 -0.002663 -0.214475 0.000000 -0.002842 -0.213930 0.000000 -0.003019 -0.213350 0.000000 -0.003193 -0.212735 0.000000 -0.003365 -0.212085 0.000000 -0.003534 -0.211400 0.000000 -0.003700 -0.210682 0.000000 -0.003863 -0.209929 0.000000 -0.004023 -0.209145 0.000000 -0.004180 -0.208327 0.000000 -0.004334 -0.207478 0.000000 -0.004484 -0.206597 0.000000 -0.004631 -0.205685 0.000000 -0.004774 -0.204743 0.000000 -0.004913 -0.203772 0.000000 -0.005048 -0.202771 0.000000 -0.005180 -0.201743 0.000000 -0.005307 -0.200687 0.000000 -0.005430 -0.199604 0.000000 -0.005549 -0.198495 0.000000 -0.005663 -0.197360 0.000000 -0.005774 -0.196201 0.000000 -0.005879 -0.195018 0.000000 -0.005981 -0.193812 0.000000 -0.006077 -0.192583 0.000000 -0.006170 -0.191333 0.000000 -0.006257 -0.190063 0.000000 -0.006340 -0.188772 0.000000 -0.006418 -0.187463 0.000000 -0.006491 -0.186136 0.000000 -0.006559 -0.184792 0.000000 -0.006623 -0.183431 0.000000 -0.006681 -0.182055 0.000000 -0.006735 -0.180664 0.000000 -0.006784 -0.179260 0.000000 -0.006829 -0.177843 0.000000 -0.006868 -0.176415 0.000000 -0.006902 -0.174976 0.000000 -0.006932 -0.173527 0.000000 -0.006957 -0.172070 0.000000 -0.006977 -0.170604 0.000000 -0.006992 -0.169132 0.000000 -0.007003 -0.167653 0.000000 -0.007009 -0.166170 0.000000 -0.007010 -0.164682 0.000000 -0.007006 -0.163192 0.000000 -0.006999 -0.161699 0.000000 -0.006986 -0.160205 0.000000 -0.006969 -0.158711 0.000000 -0.006948 -0.157217 0.000000 -0.006923 -0.155725 0.000000 -0.006893 -0.154236 0.000000 -0.006859 -0.152750 0.000000 -0.006821 -0.151269 0.000000 -0.006779 -0.149793 0.000000 -0.006733 -0.148323 0.000000 -0.006684 -0.146860 0.000000 -0.006630 -0.145406 0.000000 -0.006573 -0.143960 0.000000 -0.006512 -0.142524 0.000000 -0.006448 -0.141098 0.000000 -0.006380 -0.139684 0.000000 -0.006309 -0.138283 0.000000 -0.006234 -0.136894 0.000000 -0.006157 -0.135519 0.000000 -0.006076 -0.134159 0.000000 -0.005993 -0.132814 0.000000 -0.005906 -0.131485 0.000000 -0.005817 -0.130174 0.000000 -0.005725 -0.128880 0.000000 -0.005630 -0.127604 0.000000 -0.005533 -0.126347 0.000000 -0.005434 -0.125110 0.000000 -0.005332 -0.123894 0.000000 -0.005227 -0.122698 0.000000 -0.005121 -0.121524 0.000000 -0.005012 -0.120372 0.000000 -0.004902 -0.119244 0.000000 -0.004789 -0.118138 0.000000 -0.004675 -0.117057 0.000000 -0.004559 -0.116000 0.000000 -0.004441 -0.114968 0.000000 -0.004322 -0.113962 0.000000 -0.004200 -0.112982 0.000000 -0.004078 -0.112028 0.000000 -0.003954 -0.111102 0.000000 -0.003829 -0.110202 0.000000 -0.003702 -0.109331 0.000000 -0.003574 -0.108487 0.000000 -0.003445 -0.107673 0.000000 -0.003316 -0.106887 0.000000 -0.003184 -0.106132 0.000000 -0.003052 -0.105405 0.000000 -0.002919 -0.104709 0.000000 -0.002786 -0.104043 0.000000 -0.002651 -0.103408 0.000000 -0.002516 -0.102803 0.000000 -0.002380 -0.102230 0.000000 -0.002243 -0.101688 0.000000 -0.002106 -0.101179 0.000000 -0.001968 -0.100700 0.000000 -0.001829 -0.100255 0.000000 -0.001690 -0.099840 0.000000 -0.001551 -0.099460 0.000000 -0.001411 -0.099110 0.000000 -0.001271 -0.098795 0.000000 -0.001131 -0.098512 0.000000 -0.000990 -0.098262 0.000000 -0.000849 -0.098045 0.000000 -0.000708 -0.097862 0.000000 -0.000566 -0.097711 0.000000 -0.000425 -0.097594 0.000000 -0.000283 -0.097510 0.000000 -0.000142 -0.097460 0.000000 
-0.000000 -0.097568 0.000000 0.000108 -0.097585 0.000000 0.000216 -0.097635 0.000000 0.000325 -0.097719 0.000000 0.000433 -0.097835 0.000000 0.000541 -0.097986 0.000000 0.000649 -0.098169 0.000000 0.000757 -0.098386 0.000000 0.000864 -0.098635 0.000000 0.000972 -0.098918 0.000000 0.001079 -0.099233 0.000000 0.001186 -0.099582 0.000000 0.001293 -0.099963 0.000000 0.001399 -0.100377 0.000000 0.001506 -0.100822 0.000000 0.001612 -0.101300 0.000000 0.001717 -0.101809 0.000000 0.001822 -0.102351 0.000000 0.001927 -0.102923 0.000000 0.002031 -0.103527 0.000000 0.002135 -0.104161 0.000000 0.002238 -0.104827 0.000000 0.002341 -0.105522 0.000000 0.002443 -0.106248 0.000000 0.002545 -0.107003 0.000000 0.002646 -0.107788 0.000000 0.002746 -0.108601 0.000000 0.002845 -0.109443 0.000000 0.002944 -0.110313 0.000000 0.003041 -0.111212 0.000000 0.003138 -0.112137 0.000000 0.003234 -0.113090 0.000000 0.003329 -0.114068 0.000000 0.003422 -0.115074 0.000000 0.003515 -0.116104 0.000000 0.003606 -0.117159 0.000000 0.003696 -0.118239 0.000000 0.003785 -0.119343 0.000000 0.003873 -0.120470 0.000000 0.003959 -0.121620 0.000000 0.004043 -0.122792 0.000000 0.004126 -0.123986 0.000000 0.004207 -0.125200 0.000000 0.004287 -0.126435 0.000000 0.004365 -0.127690 0.000000 0.004441 -0.128963 0.000000 0.004515 -0.130255 0.000000 0.004587 -0.131564 0.000000 0.004657 -0.132890 0.000000 0.004725 -0.134233 0.000000 0.004790 -0.135590 0.000000 0.004854 -0.136963 0.000000 0.004915 -0.138348 0.000000 0.004973 -0.139747 0.000000 0.005029 -0.141158 0.000000 0.005082 -0.142581 0.000000 0.005133 -0.144014 0.000000 0.005181 -0.145456 0.000000 0.005226 -0.146908 0.000000 0.005268 -0.148367 0.000000 0.005308 -0.149833 0.000000 0.005344 -0.151306 0.000000 0.005377 -0.152784 0.000000 0.005407 -0.154266 0.000000 0.005433 -0.155751 0.000000 0.005457 -0.157240 0.000000 0.005477 -0.158729 0.000000 0.005493 -0.160219 0.000000 0.005507 -0.161709 0.000000 0.005516 -0.163198 0.000000 0.005522 -0.164685 0.000000 0.005524 -0.166168 0.000000 0.005523 -0.167647 0.000000 0.005518 -0.169122 0.000000 0.005509 -0.170590 0.000000 0.005497 -0.172051 0.000000 0.005480 -0.173505 0.000000 0.005460 -0.174949 0.000000 0.005436 -0.176384 0.000000 0.005407 -0.177808 0.000000 0.005375 -0.179220 0.000000 0.005339 -0.180620 0.000000 0.005300 -0.182006 0.000000 0.005256 -0.183377 0.000000 0.005208 -0.184734 0.000000 0.005156 -0.186074 0.000000 0.005101 -0.187397 0.000000 0.005041 -0.188702 0.000000 0.004978 -0.189988 0.000000 0.004911 -0.191254 0.000000 0.004840 -0.192500 0.000000 0.004765 -0.193724 0.000000 0.004686 -0.194926 0.000000 0.004604 -0.196105 0.000000 0.004518 -0.197261 0.000000 0.004428 -0.198391 0.000000 0.004335 -0.199497 0.000000 0.004238 -0.200576 0.000000 0.004138 -0.201628 0.000000 0.004035 -0.202653 0.000000 0.003928 -0.203650 0.000000 0.003818 -0.204618 0.000000 0.003705 -0.205556 0.000000 0.003589 -0.206464 0.000000 0.003470 -0.207342 0.000000 0.003348 -0.208188 0.000000 0.003223 -0.209003 0.000000 0.003096 -0.209785 0.000000 0.002966 -0.210535 0.000000 0.002833 -0.211250 0.000000 0.002698 -0.211933 0.000000 0.002561 -0.212580 0.000000 0.002422 -0.213193 0.000000 0.002281 -0.213771 0.000000 0.002137 -0.214314 0.000000 0.001992 -0.214820 0.000000 0.001846 -0.215291 0.000000 0.001697 -0.215724 0.000000 0.001548 -0.216122 0.000000 0.001397 -0.216481 0.000000 0.001244 -0.216804 0.000000 0.001091 -0.217089 0.000000 0.000937 -0.217337 0.000000 0.000782 -0.217547 0.000000 0.000626 -0.217719 0.000000 0.000470 -0.217852 0.000000 0.000314 -0.217948 0.000000 0.000157 -0.218005 0.000000 -0.000000 -0.218025 0.000000 -0.000157 -0.218005 0.000000 -0.000314 -0.217948 0.000000 -0.000470 -0.217852 0.000000 -0.000626 -0.217719 0.000000 -0.000782 -0.217547 0.000000 -0.000937 -0.217337 0.000000 -0.001091 -0.217089 0.000000 -0.001244 -0.216804 0.000000 -0.001397 -0.216481 0.000000 -0.001548 -0.216122 0.000000 -0.001697 -0.215724 0.000000 -0.001846 -0.215291 0.000000 -0.001992 -0.214820 0.000000 -0.002137 -0.214314 0.000000 -0.002281 -0.213771 0.000000 -0.002422 -0.213193 0.000000 -0.002561 -0.212580 0.000000 -0.002698 -0.211933 0.000000 -0.002833 -0.211250 0.000000 -0.002966 -0.210535 0.000000 -0.003096 -0.209785 0.000000 -0.003223 -0.209003 0.000000 -0.003348 -0.208188 0.000000 -0.003470 -0.207342 0.000000 -0.003589 -0.206464 0.000000 -0.003705 -0.205556 0.000000 -0.003818 -0.204618 0.000000 -0.003928 -0.203650 0.000000 -0.004035 -0.202653 0.000000 -0.004138 -0.201628 0.000000 -0.004238 -0.200576 0.000000 -0.004335 -0.199497 0.000000 -0.004428 -0.198391 0.000000 -0.004518 -0.197261 0.000000 -0.004604 -0.196105 0.000000 -0.004686 -0.194926 0.000000 -0.004765 -0.193724 0.000000 -0.004840 -0.192500 0.000000 -0.004911 -0.191254 0.000000 -0.004978 -0.189988 0.000000 -0.005041 -0.188702 0.000000 -0.005101 -0.187397 0.000000 -0.005156 -0.186074 0.000000 -0.005208 -0.184734 0.000000 -0.005256 -0.183377 0.000000 -0.005300 -0.182006 0.000000 -0.005339 -0.180620 0.000000 -0.005375 -0.179220 0.000000 -0.005407 -0.177808 0.000000 -0.005436 -0.176384 0.000000 -0.005460 -0.174949 0.000000 -0.005480 -0.173505 0.000000 -0.005497 -0.172051 0.000000 -0.005509 -0.170590 0.000000 -0.005518 -0.169122 0.000000 -0.005523 -0.167647 0.000000 -0.005524 -0.166168 0.000000 -0.005522 -0.164685 0.000000 -0.005516 -0.163198 0.000000 -0.005507 -0.161709 0.000000 -0.005493 -0.160219 0.000000 -0.005477 -0.158729 0.000000 -0.005457 -0.157240 0.000000 -0.005433 -0.155751 0.000000 -0.005407 -0.154266 0.000000 -0.005377 -0.152784 0.000000 -0.005344 -0.151306 0.000000 -0.005308 -0.149833 0.000000 -0.005268 -0.148367 0.000000 -0.005226 -0.146908 0.000000 -0.005181 -0.145456 0.000000 -0.005133 -0.144014 0.000000 -0.005082 -0.142581 0.000000 -0.005029 -0.141158 0.000000 -0.004973 -0.139747 0.000000 -0.004915 -0.138348 0.000000 -0.004854 -0.136963 0.000000 -0.004790 -0.135590 0.000000 -0.004725 -0.134233 0.000000 -0.004657 -0.132890 0.000000 -0.004587 -0.131564 0.000000 -0.004515 -0.130255 0.000000 -0.004441 -0.128963 0.000000 -0.004365 -0.127690 0.000000 -0.004287 -0.126435 0.000000 -0.004207 -0.125200 0.000000 -0.004126 -0.123986 0.000000 -0.004043 -0.122792 0.000000 -0.003959 -0.121620 0.000000 -0.003873 -0.120470 0.000000 -0.003785 -0.119343 0.000000 -0.003696 -0.118239 0.000000 -0.003606 -0.117159 0.000000 -0.003515 -0.116104 0.000000 -0.003422 -0.115074 0.000000 -0.003329 -0.114068 0.000000 -0.003234 -0.113090 0.000000 -0.003138 -0.112137 0.000000 -0.003041 -0.111212 0.000000 -0.002944 -0.110313 0.000000 -0.002845 -0.109443 0.000000 -0.002746 -0.108601 0.000000 -0.002646 -0.107788 0.000000 -0.002545 -0.107003 0.000000 -0.002443 -0.106248 0.000000 -0.002341 -0.105522 0.000000 -0.002238 -0.104827 0.000000 -0.002135 -0.104161 0.000000 -0.002031 -0.103527 0.000000 -0.001927 -0.102923 0.000000 -0.001822 -0.102351 0.000000 -0.001717 -0.101809 0.000000 -0.001612 -0.101300 0.000000 -0.001506 -0.100822 0.000000 -0.001399 -0.100377 0.000000 -0.001293 -0.099963 0.000000 -0.001186 -0.099582 0.000000 -0.001079 -0.099233 0.000000 -0.000972 -0.098918 0.000000 -0.000864 -0.098635 0.000000 -0.000757 -0.098386 0.000000 -0.000649 -0.098169 0.000000 -0.000541 -0.097986 0.000000 -0.000433 -0.097835 0.000000 -0.000325 -0.097719 0.000000 -0.000216 -0.097635 0.000000 -0.000108 -0.097585 0.000000 
-0.000000 -0.097660 0.000000 0.000075 -0.097677 0.000000 0.000150 -0.097727 0.000000 0.000225 -0.097811 0.000000 0.000299 -0.097927 0.000000 0.000374 -0.098078 0.000000 0.000449 -0.098261 0.000000 0.000524 -0.098478 0.000000 0.000598 -0.098727 0.000000 0.000673 -0.099010 0.000000 0.000747 -0.099325 0.000000 0.000822 -0.099673 0.000000 0.000896 -0.100054 0.000000 0.000970 -0.100467 0.000000 0.001044 -0.100912 0.000000 0.001118 -0.101390 0.000000 0.001192 -0.101899 0.000000 0.001266 -0.102440 0.000000 0.001339 -0.103012 0.000000 0.001413 -0.103616 0.000000 0.001486 -0.104250 0.000000 0.001559 -0.104915 0.000000 0.001631 -0.105610 0.000000 0.001704 -0.106335 0.000000 0.001776 -0.107090 0.000000 0.001847 -0.107874 0.000000 0.001919 -0.108687 0.000000 0.001990 -0.109529 0.000000 0.002060 -0.110398 0.000000 0.002130 -0.111296 0.000000 0.002200 -0.112220 0.000000 0.002269 -0.113172 0.000000 0.002338 -0.114150 0.000000 0.002406 -0.115155 0.000000 0.002473 -0.116184 0.000000 0.002540 -0.117238 0.000000 0.002606 -0.118317 0.000000 0.002671 -0.119420 0.000000 0.002735 -0.120546 0.000000 0.002799 -0.121695 0.000000 0.002862 -0.122865 0.000000 0.002923 -0.124058 0.000000 0.002984 -0.125271 0.000000 0.003044 -0.126505 0.000000 0.003102 -0.127758 0.000000 0.003160 -0.129030 0.000000 0.003216 -0.130320 0.000000 0.003271 -0.131628 0.000000 0.003324 -0.132952 0.000000 0.003376 -0.134292 0.000000 0.003427 -0.135648 0.000000 0.003476 -0.137018 0.000000 0.003524 -0.138402 0.000000 0.003570 -0.139799 0.000000 0.003614 -0.141208 0.000000 0.003657 -0.142628 0.000000 0.003697 -0.144059 0.000000 0.003736 -0.145499 0.000000 0.003773 -0.146948 0.000000 0.003808 -0.148405 0.000000 0.003840 -0.149868 0.000000 0.003871 -0.151338 0.000000 0.003899 -0.152813 0.000000 0.003925 -0.154293 0.000000 0.003949 -0.155776 0.000000 0.003970 -0.157261 0.000000 0.003989 -0.158747 0.000000 0.004006 -0.160235 0.000000 0.004020 -0.161722 0.000000 0.004031 -0.163207 0.000000 0.004040 -0.164691 0.000000 0.004046 -0.166171 0.000000 0.004049 -0.167647 0.000000 0.004050 -0.169118 0.000000 0.004047 -0.170583 0.000000 0.004042 -0.172041 0.000000 0.004034 -0.173491 0.000000 0.004023 -0.174932 0.000000 0.004009 -0.176363 0.000000 0.003992 -0.177783 0.000000 0.003972 -0.179192 0.000000 0.003950 -0.180588 0.000000 0.003924 -0.181971 0.000000 0.003895 -0.183339 0.000000 0.003863 -0.184692 0.000000 0.003828 -0.186029 0.000000 0.003790 -0.187348 0.000000 0.003749 -0.188650 0.000000 0.003705 -0.189932 0.000000 0.003658 -0.191195 0.000000 0.003607 -0.192438 0.000000 0.003554 -0.193658 0.000000 0.003498 -0.194857 0.000000 0.003440 -0.196033 0.000000 0.003378 -0.197185 0.000000 0.003313 -0.198312 0.000000 0.003245 -0.199414 0.000000 0.003175 -0.200490 0.000000 0.003102 -0.201540 0.000000 0.003027 -0.202561 0.000000 0.002948 -0.203555 0.000000 0.002867 -0.204520 0.000000 0.002784 -0.205456 0.000000 0.002698 -0.206361 0.000000 0.002610 -0.207237 0.000000 0.002520 -0.208080 0.000000 0.002427 -0.208893 0.000000 0.002332 -0.209672 0.000000 0.002235 -0.210419 0.000000 0.002136 -0.211133 0.000000 0.002035 -0.211813 0.000000 0.001932 -0.212458 0.000000 0.001828 -0.213070 0.000000 0.001722 -0.213646 0.000000 0.001614 -0.214187 0.000000 0.001505 -0.214691 0.000000 0.001395 -0.215160 0.000000 0.001283 -0.215593 0.000000 0.001170 -0.215989 0.000000 0.001056 -0.216347 0.000000 0.000941 -0.216669 0.000000 0.000825 -0.216953 0.000000 0.000709 -0.217201 0.000000 0.000592 -0.217409 0.000000 0.000474 -0.217581 0.000000 0.000356 -0.217714 0.000000 0.000237 -0.217810 0.000000 0.000119 -0.217867 0.000000 -0.000000 -0.217886 0.000000 -0.000119 -0.217867 0.000000 -0.000237 -0.217810 0.000000 -0.000356 -0.217714 0.000000 -0.000474 -0.217581 0.000000 -0.000592 -0.217409 0.000000 -0.000709 -0.217201 0.000000 -0.000825 -0.216953 0.000000 -0.000941 -0.216669 0.000000 -0.001056 -0.216347 0.000000 -0.001170 -0.215989 0.000000 -0.001283 -0.215593 0.000000 -0.001395 -0.215160 0.000000 -0.001505 -0.214691 0.000000 -0.001614 -0.214187 0.000000 -0.001722 -0.213646 0.000000 -0.001828 -0.213070 0.000000 -0.001932 -0.212458 0.000000 -0.002035 -0.211813 0.000000 -0.002136 -0.211133 0.000000 -0.002235 -0.210419 0.000000 -0.002332 -0.209672 0.000000 -0.002427 -0.208893 0.000000 -0.002520 -0.208080 0.000000 -0.002610 -0.207237 0.000000 -0.002698 -0.206361 0.000000 -0.002784 -0.205456 0.000000 -0.002867 -0.204520 0.000000 -0.002948 -0.203555 0.000000 -0.003027 -0.202561 0.000000 -0.003102 -0.201540 0.000000 -0.003175 -0.200490 0.000000 -0.003245 -0.199414 0.000000 -0.003313 -0.198312 0.000000 -0.003378 -0.197185 0.000000 -0.003440 -0.196033 0.000000 -0.003498 -0.194857 0.000000 -0.003554 -0.193658 0.000000 -0.003607 -0.192438 0.000000 -0.003658 -0.191195 0.000000 -0.003705 -0.189932 0.000000 -0.003749 -0.188650 0.000000 -0.003790 -0.187348 0.000000 -0.003828 -0.186029 0.000000 -0.003863 -0.184692 0.000000 -0.003895 -0.183339 0.000000 -0.003924 -0.181971 0.000000 -0.003950 -0.180588 0.000000 -0.003972 -0.179192 0.000000 -0.003992 -0.177783 0.000000 -0.004009 -0.176363 0.000000 -0.004023 -0.174932 0.000000 -0.004034 -0.173491 0.000000 -0.004042 -0.172041 0.000000 -0.004047 -0.170583 0.000000 -0.004050 -0.169118 0.000000 -0.004049 -0.167647 0.000000 -0.004046 -0.166171 0.000000 -0.004040 -0.164691 0.000000 -0.004031 -0.163207 0.000000 -0.004020 -0.161722 0.000000 -0.004006 -0.160235 0.000000 -0.003989 -0.158747 0.000000 -0.003970 -0.157261 0.000000 -0.003949 -0.155776 0.000000 -0.003925 -0.154293 0.000000 -0.003899 -0.152813 0.000000 -0.003871 -0.151338 0.000000 -0.003840 -0.149868 0.000000 -0.003808 -0.148405 0.000000 -0.003773 -0.146948 0.000000 -0.003736 -0.145499 0.000000 -0.003697 -0.144059 0.000000 -0.003657 -0.142628 0.000000 -0.003614 -0.141208 0.000000 -0.003570 -0.139799 0.000000 -0.003524 -0.138402 0.000000 -0.003476 -0.137018 0.000000 -0.003427 -0.135648 0.000000 -0.003376 -0.134292 0.000000 -0.003324 -0.132952 0.000000 -0.003271 -0.131628 0.000000 -0.003216 -0.130320 0.000000 -0.003160 -0.129030 0.000000 -0.003102 -0.127758 0.000000 -0.003044 -0.126505 0.000000 -0.002984 -0.125271 0.000000 -0.002923 -0.124058 0.000000 -0.002862 -0.122865 0.000000 -0.002799 -0.121695 0.000000 -0.002735 -0.120546 0.000000 -0.002671 -0.119420 0.000000 -0.002606 -0.118317 0.000000 -0.002540 -0.117238 0.000000 -0.002473 -0.116184 0.000000 -0.002406 -0.115155 0.000000 -0.002338 -0.114150 0.000000 -0.002269 -0.113172 0.000000 -0.002200 -0.112220 0.000000 -0.002130 -0.111296 0.000000 -0.002060 -0.110398 0.000000 -0.001990 -0.109529 0.000000 -0.001919 -0.108687 0.000000 -0.001847 -0.107874 0.000000 -0.001776 -0.107090 0.000000 -0.001704 -0.106335 0.000000 -0.001631 -0.105610 0.000000 -0.001559 -0.104915 0.000000 -0.001486 -0.104250 0.000000 -0.001413 -0.103616 0.000000 -0.001339 -0.103012 0.000000 -0.001266 -0.102440 0.000000 -0.001192 -0.101899 0.000000 -0.001118 -0.101390 0.000000 -0.001044 -0.100912 0.000000 -0.000970 -0.100467 0.000000 -0.000896 -0.100054 0.000000 -0.000822 -0.099673 0.000000 -0.000747 -0.099325 0.000000 -0.000673 -0.099010 0.000000 -0.000598 -0.098727 0.000000 -0.000524 -0.098478 0.000000 -0.000449 -0.098261 0.000000 -0.000374 -0.098078 0.000000 -0.000299 -0.097927 0.000000 -0.000225 -0.097811 0.000000 -0.000150 -0.097727 0.000000 -0.000075 -0.097677 0.000000 