# vtk DataFile Version 2.0
Comment goes here
ASCII

DATASET STRUCTURED_POINTS
FIELD FieldData 1
TIME 1 1 double
0.06000000
DIMENSIONS    256   256   1

ORIGIN    0.000   0.000   0.000
SPACING   0.0039062 0.0039062   1.000

POINT_DATA   65536
VECTORS u double

0.000000 -0.345910 0.000000 0.000114 -0.345971 0.000000 0.000227 -0.346146 0.000000 0.000341 -0.346444 0.000000 0.000454 -0.346855 0.000000 0.000568 -0.347388 0.000000 0.000681 -0.348034 0.000000 0.000795 -0.348802 0.000000 0.000908 -0.349683 0.000000 0.001021 -0.350685 0.000000 0.001134 -0.351798 0.000000 0.001247 -0.353032 0.000000 0.001360 -0.354376 0.000000 0.001473 -0.355840 0.000000 0.001586 -0.357413 0.000000 0.001698 -0.359105 0.000000 0.001810 -0.360904 0.000000 0.001922 -0.362821 0.000000 0.002034 -0.364844 0.000000 0.002146 -0.366981 0.000000 0.002257 -0.369224 0.000000 0.002368 -0.371580 0.000000 0.002478 -0.374039 0.000000 0.002589 -0.376608 0.000000 0.002699 -0.379279 0.000000 0.002808 -0.382058 0.000000 0.002917 -0.384936 0.000000 0.003025 -0.387920 0.000000 0.003133 -0.391000 0.000000 0.003240 -0.394182 0.000000 0.003347 -0.397459 0.000000 0.003453 -0.400834 0.000000 0.003558 -0.404301 0.000000 0.003662 -0.407864 0.000000 0.003766 -0.411515 0.000000 0.003868 -0.415258 0.000000 0.003970 -0.419086 0.000000 0.004070 -0.423002 0.000000 0.004170 -0.426999 0.000000 0.004268 -0.431081 0.000000 0.004365 -0.435239 0.000000 0.004461 -0.439478 0.000000 0.004556 -0.443790 0.000000 0.004648 -0.448178 0.000000 0.004740 -0.452634 0.000000 0.004830 -0.457162 0.000000 0.004918 -0.461753 0.000000 0.005004 -0.466411 0.000000 0.005089 -0.471127 0.000000 0.005171 -0.475905 0.000000 0.005252 -0.480737 0.000000 0.005330 -0.485625 0.000000 0.005406 -0.490561 0.000000 0.005480 -0.495548 0.000000 0.005551 -0.500578 0.000000 0.005620 -0.505652 0.000000 0.005686 -0.510765 0.000000 0.005750 -0.515916 0.000000 0.005811 -0.521099 0.000000 0.005869 -0.526314 0.000000 0.005923 -0.531555 0.000000 0.005975 -0.536822 0.000000 0.006024 -0.542110 0.000000 0.006069 -0.547416 0.000000 0.006111 -0.552738 0.000000 0.006149 -0.558071 0.000000 0.006184 -0.563412 0.000000 0.006215 -0.568759 0.000000 0.006242 -0.574108 0.000000 0.006266 -0.579455 0.000000 0.006285 -0.584797 0.000000 0.006300 -0.590131 0.000000 0.006312 -0.595454 0.000000 0.006319 -0.600762 0.000000 0.006322 -0.606052 0.000000 0.006320 -0.611319 0.000000 0.006314 -0.616562 0.000000 0.006303 -0.621775 0.000000 0.006288 -0.626958 0.000000 0.006269 -0.632103 0.000000 0.006244 -0.637212 0.000000 0.006215 -0.642276 0.000000 0.006181 -0.647297 0.000000 0.006142 -0.652267 0.000000 0.006099 -0.657187 0.000000 0.006050 -0.662048 0.000000 0.005997 -0.666854 0.000000 0.005938 -0.671594 0.000000 0.005875 -0.676272 0.000000 0.005807 -0.680878 0.000000 0.005734 -0.685415 0.000000 0.005656 -0.689875 0.000000 0.005573 -0.694259 0.000000 0.005485 -0.698559 0.000000 0.005392 -0.702779 0.000000 0.005295 -0.706908 0.000000 0.005193 -0.710950 0.000000 0.005085 -0.714896 0.000000 0.004974 -0.718751 0.000000 0.004857 -0.722503 0.000000 0.004736 -0.726158 0.000000 0.004611 -0.729706 0.000000 0.004481 -0.733151 0.000000 0.004347 -0.736485 0.000000 0.004209 -0.739711 0.000000 0.004067 -0.742820 0.000000 0.003921 -0.745818 0.000000 0.003770 -0.748694 0.000000 0.003617 -0.751455 0.000000 0.003459 -0.754090 0.000000 0.003298 -0.756605 0.000000 0.003134 -0.758991 0.000000 0.002967 -0.761255 0.000000 0.002796 -0.763385 0.000000 0.002623 -0.765389 0.000000 0.002447 -0.767258 0.000000 0.002269 -0.768998 0.000000 0.002088 -0.770598 0.000000 0.001905 -0.772068 0.000000 0.001720 -0.773397 0.000000 0.001534 -0.774593 0.000000 0.001346 -0.775646 0.000000 0.001156 -0.776565 0.000000 0.000965 -0.777339 0.000000 0.000773 -0.777977 0.000000 0.000581 -0.778470 0.000000 0.000387 -0.778826 0.000000 0.000194 -0.779036 0.000000 -0.000000 -0.779110 0.000000 -0.000194 -0.779036 0.000000 -0.000387 -0.778826 0.000000 -0.000581 -0.778470 0.000000 -0.000773 -0.777977 0.000000 -0.000965 -0.777339 0.000000 -0.001156 -0.776565 0.000000 -0.001346 -0.775646 0.000000 -0.001534 -0.774593 0.000000 -0.001720 -0.773397 0.000000 -0.001905 -0.772068 0.000000 -0.002088 -0.770598 0.000000 -0.002269 -0.768998 0.000000 -0.002447 -0.767258 0.000000 -0.002623 -0.765389 0.000000 -0.002796 -0.763385 0.000000 -0.002967 -0.761255 0.000000 -0.003134 -0.758991 0.000000 -0.003298 -0.756605 0.000000 -0.003459 -0.754090 0.000000 -0.003617 -0.751455 0.000000 -0.003770 -0.748694 0.000000 -0.003921 -0.745818 0.000000 -0.004067 -0.742820 0.000000 -0.004209 -0.739711 0.000000 -0.004347 -0.736485 0.000000 -0.004481 -0.733151 0.000000 -0.004611 -0.729706 0.000000 -0.004736 -0.726158 0.000000 -0.004857 -0.722503 0.000000 -0.004974 -0.718751 0.000000 -0.005085 -0.714896 0.000000 -0.005193 -0.710950 0.000000 -0.005295 -0.706908 0.000000 -0.005392 -0.702779 0.000000 -0.005485 -0.698559 0.000000 -0.005573 -0.694259 0.000000 -0.005656 -0.689875 0.000000 -0.005734 -0.685415 0.000000 -0.005807 -0.680878 0.000000 -0.005875 -0.676272 0.000000 -0.005938 -0.671594 0.000000 -0.005997 -0.666854 0.000000 -0.006050 -0.662048 0.000000 -0.006099 -0.657187 0.000000 -0.006142 -0.652267 0.000000 -0.006181 -0.647297 0.000000 -0.006215 -0.642276 0.000000 -0.006244 -0.637212 0.000000 -0.006269 -0.632103 0.000000 -0.006288 -0.626958 0.000000 -0.006303 -0.621775 0.000000 -0.006314 -0.616562 0.000000 -0.006320 -0.611319 0.000000 -0.006322 -0.606052 0.000000 -0.006319 -0.600762 0.000000 -0.006312 -0.595454 0.000000 -0.006300 -0.590131 0.000000 -0.006285 -0.584797 0.000000 -0.006266 -0.579455 0.000000 -0.006242 -0.574108 0.000000 -0.006215 -0.568759 0.000000 -0.006184 -0.563412 0.000000 -0.006149 -0.558071 0.000000 -0.006111 -0.552738 0.000000 -0.006069 -0.547416 0.000000 -0.006024 -0.542110 0.000000 -0.005975 -0.536822 0.000000 -0.005923 -0.531555 0.000000 -0.005869 -0.526314 0.000000 -0.005811 -0.521099 0.000000 -0.005750 -0.515916 0.000000 -0.005686 -0.510765 0.000000 -0.005620 -0.505652 0.000000 -0.005551 -0.500578 0.000000 -0.005480 -0.495548 0.000000 -0.005406 -0.490561 0.000000 -0.005330 -0.485625 0.000000 -0.005252 -0.480737 0.000000 -0.005171 -0.475905 0.000000 -0.005089 -0.471127 0.000000 -0.005004 -0.466411 0.000000 -0.004918 -0.461753 0.000000 -0.004830 -0.457162 0.000000 -0.004740 -0.452634 0.000000 -0.004648 -0.448178 0.000000 -0.004556 -0.443790 0.000000 -0.004461 -0.439478 0.000000 -0.004365 -0.435239 0.000000 -0.004268 -0.431081 0.000000 -0.004170 -0.426999 0.000000 -0.004070 -0.423002 0.000000 -0.003970 -0.419086 0.000000 -0.003868 -0.415258 0.000000 -0.003766 -0.411515 0.000000 -0.003662 -0.407864 0.000000 -0.003558 -0.404301 0.000000 -0.003453 -0.400834 0.000000 -0.003347 -0.397459 0.000000 -0.003240 -0.394182 0.000000 -0.003133 -0.391000 0.000000 -0.003025 -0.387920 0.000000 -0.002917 -0.384936 0.000000 -0.002808 -0.382058 0.000000 -0.002699 -0.379279 0.000000 -0.002589 -0.376608 0.000000 -0.002478 -0.374039 0.000000 -0.002368 -0.371580 0.000000 -0.002257 -0.369224 0.000000 -0.002146 -0.366981 0.000000 -0.002034 -0.364844 0.000000 -0.001922 -0.362821 0.000000 -0.001810 -0.360904 0.000000 -0.001698 -0.359105 0.000000 -0.001586 -0.357413 0.000000 -0.001473 -0.355840 0.000000 -0.001360 -0.354376 0.000000 -0.001247 -0.353032 0.000000 -0.001134 -0.351798 0.000000 -0.001021 -0.350685 0.000000 -0.000908 -0.349683 0.000000 -0.000795 -0.348802 0.000000 -0.000681 -0.348034 0.000000 -0.000568 -0.347388 0.000000 -0.000454 -0.346855 0.000000 -0.000341 -0.346444 0.000000 -0.000227 -0.346146 0.000000 -0.000114 -0.345971 0.000000 
0.000000 -0.345964 0.000000 -0.000005 -0.346026 0.000000 -0.000009 -0.346201 0.000000 -0.000013 -0.346498 0.000000 -0.000018 -0.346909 0.000000 -0.000022 -0.347443 0.000000 -0.000026 -0.348089 0.000000 -0.000030 -0.348857 0.000000 -0.000033 -0.349738 0.000000 -0.000036 -0.350740 0.000000 -0.000039 -0.351853 0.000000 -0.000042 -0.353087 0.000000 -0.000044 -0.354432 0.000000 -0.000045 -0.355896 0.000000 -0.000047 -0.357469 0.000000 -0.000047 -0.359161 0.000000 -0.000047 -0.360961 0.000000 -0.000047 -0.362877 0.000000 -0.000046 -0.364900 0.000000 -0.000044 -0.367038 0.000000 -0.000042 -0.369281 0.000000 -0.000039 -0.371637 0.000000 -0.000035 -0.374096 0.000000 -0.000031 -0.376666 0.000000 -0.000026 -0.379337 0.000000 -0.000020 -0.382116 0.000000 -0.000013 -0.384994 0.000000 -0.000006 -0.387978 0.000000 0.000002 -0.391058 0.000000 0.000011 -0.394240 0.000000 0.000021 -0.397517 0.000000 0.000032 -0.400893 0.000000 0.000044 -0.404360 0.000000 0.000056 -0.407923 0.000000 0.000069 -0.411573 0.000000 0.000084 -0.415316 0.000000 0.000099 -0.419144 0.000000 0.000115 -0.423060 0.000000 0.000131 -0.427057 0.000000 0.000149 -0.431139 0.000000 0.000167 -0.435297 0.000000 0.000187 -0.439536 0.000000 0.000207 -0.443847 0.000000 0.000228 -0.448235 0.000000 0.000249 -0.452690 0.000000 0.000271 -0.457217 0.000000 0.000295 -0.461808 0.000000 0.000318 -0.466465 0.000000 0.000343 -0.471181 0.000000 0.000368 -0.475958 0.000000 0.000393 -0.480790 0.000000 0.000419 -0.485676 0.000000 0.000446 -0.490612 0.000000 0.000473 -0.495598 0.000000 0.000501 -0.500627 0.000000 0.000528 -0.505700 0.000000 0.000557 -0.510812 0.000000 0.000585 -0.515961 0.000000 0.000614 -0.521143 0.000000 0.000642 -0.526356 0.000000 0.000671 -0.531596 0.000000 0.000700 -0.536862 0.000000 0.000729 -0.542148 0.000000 0.000757 -0.547452 0.000000 0.000786 -0.552772 0.000000 0.000814 -0.558103 0.000000 0.000842 -0.563442 0.000000 0.000869 -0.568787 0.000000 0.000897 -0.574134 0.000000 0.000923 -0.579478 0.000000 0.000949 -0.584819 0.000000 0.000974 -0.590150 0.000000 0.000999 -0.595471 0.000000 0.001023 -0.600776 0.000000 0.001046 -0.606063 0.000000 0.001067 -0.611328 0.000000 0.001088 -0.616568 0.000000 0.001108 -0.621778 0.000000 0.001127 -0.626958 0.000000 0.001144 -0.632101 0.000000 0.001160 -0.637206 0.000000 0.001175 -0.642268 0.000000 0.001189 -0.647285 0.000000 0.001200 -0.652252 0.000000 0.001211 -0.657168 0.000000 0.001220 -0.662027 0.000000 0.001227 -0.666829 0.000000 0.001232 -0.671566 0.000000 0.001236 -0.676240 0.000000 0.001238 -0.680843 0.000000 0.001238 -0.685377 0.000000 0.001237 -0.689833 0.000000 0.001233 -0.694214 0.000000 0.001228 -0.698511 0.000000 0.001221 -0.702727 0.000000 0.001212 -0.706853 0.000000 0.001201 -0.710892 0.000000 0.001188 -0.714835 0.000000 0.001173 -0.718686 0.000000 0.001156 -0.722435 0.000000 0.001138 -0.726087 0.000000 0.001117 -0.729631 0.000000 0.001094 -0.733074 0.000000 0.001070 -0.736404 0.000000 0.001044 -0.739627 0.000000 0.001016 -0.742734 0.000000 0.000986 -0.745729 0.000000 0.000954 -0.748602 0.000000 0.000921 -0.751360 0.000000 0.000886 -0.753992 0.000000 0.000849 -0.756506 0.000000 0.000811 -0.758889 0.000000 0.000772 -0.761150 0.000000 0.000731 -0.763278 0.000000 0.000688 -0.765281 0.000000 0.000645 -0.767147 0.000000 0.000600 -0.768885 0.000000 0.000554 -0.770484 0.000000 0.000507 -0.771953 0.000000 0.000459 -0.773280 0.000000 0.000410 -0.774475 0.000000 0.000361 -0.775527 0.000000 0.000310 -0.776445 0.000000 0.000260 -0.777218 0.000000 0.000208 -0.777855 0.000000 0.000157 -0.778347 0.000000 0.000105 -0.778704 0.000000 0.000052 -0.778913 0.000000 -0.000000 -0.778987 0.000000 -0.000052 -0.778913 0.000000 -0.000105 -0.778704 0.000000 -0.000157 -0.778347 0.000000 -0.000208 -0.777855 0.000000 -0.000260 -0.777218 0.000000 -0.000310 -0.776445 0.000000 -0.000361 -0.775527 0.000000 -0.000410 -0.774475 0.000000 -0.000459 -0.773280 0.000000 -0.000507 -0.771953 0.000000 -0.000554 -0.770484 0.000000 -0.000600 -0.768885 0.000000 -0.000645 -0.767147 0.000000 -0.000688 -0.765281 0.000000 -0.000731 -0.763278 0.000000 -0.000772 -0.761150 0.000000 -0.000811 -0.758889 0.000000 -0.000849 -0.756506 0.000000 -0.000886 -0.753992 0.000000 -0.000921 -0.751360 0.000000 -0.000954 -0.748602 0.000000 -0.000986 -0.745729 0.000000 -0.001016 -0.742734 0.000000 -0.001044 -0.739627 0.000000 -0.001070 -0.736404 0.000000 -0.001094 -0.733074 0.000000 -0.001117 -0.729631 0.000000 -0.001138 -0.726087 0.000000 -0.001156 -0.722435 0.000000 -0.001173 -0.718686 0.000000 -0.001188 -0.714835 0.000000 -0.001201 -0.710892 0.000000 -0.001212 -0.706853 0.000000 -0.001221 -0.702727 0.000000 -0.001228 -0.698511 0.000000 -0.001233 -0.694214 0.000000 -0.001237 -0.689833 0.000000 -0.001238 -0.685377 0.000000 -0.001238 -0.680843 0.000000 -0.001236 -0.676240 0.000000 -0.001232 -0.671566 0.000000 -0.001227 -0.666829 0.000000 -0.001220 -0.662027 0.000000 -0.001211 -0.657168 0.000000 -0.001200 -0.652252 0.000000 -0.001189 -0.647285 0.000000 -0.001175 -0.642268 0.000000 -0.001160 -0.637206 0.000000 -0.001144 -0.632101 0.000000 -0.001127 -0.626958 0.000000 -0.001108 -0.621778 0.000000 -0.001088 -0.616568 0.000000 -0.001067 -0.611328 0.000000 -0.001046 -0.606063 0.000000 -0.001023 -0.600776 0.000000 -0.000999 -0.595471 0.000000 -0.000974 -0.590150 0.000000 -0.000949 -0.584819 0.000000 -0.000923 -0.579478 0.000000 -0.000897 -0.574134 0.000000 -0.000869 -0.568787 0.000000 -0.000842 -0.563442 0.000000 -0.000814 -0.558103 0.000000 -0.000786 -0.552772 0.000000 -0.000757 -0.547452 0.000000 -0.000729 -0.542148 0.000000 -0.000700 -0.536862 0.000000 -0.000671 -0.531596 0.000000 -0.000642 -0.526356 0.000000 -0.000614 -0.521143 0.000000 -0.000585 -0.515961 0.000000 -0.000557 -0.510812 0.000000 -0.000528 -0.505700 0.000000 -0.000501 -0.500627 0.000000 -0.000473 -0.495598 0.000000 -0.000446 -0.490612 0.000000 -0.000419 -0.485676 0.000000 -0.000393 -0.480790 0.000000 -0.000368 -0.475958 0.000000 -0.000343 -0.471181 0.000000 -0.000318 -0.466465 0.000000 -0.000295 -0.461808 0.000000 -0.000271 -0.457217 0.000000 -0.000249 -0.452690 0.000000 -0.000228 -0.448235 0.000000 -0.000207 -0.443847 0.000000 -0.000187 -0.439536 0.000000 -0.000167 -0.435297 0.000000 -0.000149 -0.431139 0.000000 -0.000131 -0.427057 0.000000 -0.000115 -0.423060 0.000000 -0.000099 -0.419144 0.000000 -0.000084 -0.415316 0.000000 -0.000069 -0.411573 0.000000 -0.000056 -0.407923 0.000000 -0.000044 -0.404360 0.000000 -0.000032 -0.400893 0.000000 -0.000021 -0.397517 0.000000 -0.000011 -0.394240 0.000000 -0.000002 -0.391058 0.000000 0.000006 -0.387978 0.000000 0.000013 -0.384994 0.000000 0.000020 -0.382116 0.000000 0.000026 -0.379337 0.000000 0.000031 -0.376666 0.000000 0.000035 -0.374096 0.000000 0.000039 -0.371637 0.000000 0.000042 -0.369281 0.000000 0.000044 -0.367038 0.000000 0.000046 -0.364900 0.000000 0.000047 -0.362877 0.000000 0.000047 -0.360961 0.000000 0.000047 -0.359161 0.000000 0.000047 -0.357469 0.000000 0.000045 -0.355896 0.000000 0.000044 -0.354432 0.000000 0.000042 -0.353087 0.000000 0.000039 -0.351853 0.000000 0.000036 -0.350740 0.000000 0.000033 -0.349738 0.000000 0.000030 -0.348857 0.000000 0.000026 -0.348089 0.000000 0.000022 -0.347443 0.000000 0.000018 -0.346909 0.000000 0.000013 -0.346498 0.000000 0.000009 -0.346201 0.000000 0.000005 -0.346026 0.000000 
0.000000 -0.345901 0.000000 -0.000123 -0.345962 0.000000 -0.000245 -0.346137 0.000000 -0.000368 -0.346435 0.000000 -0.000490 -0.346846 0.000000 -0.000612 -0.347380 0.000000 -0.000733 -0.348026 0.000000 -0.000854 -0.348795 0.000000 -0.000975 -0.349676 0.000000 -0.001094 -0.350678 0.000000 -0.001213 -0.351793 0.000000 -0.001331 -0.353027 0.000000 -0.001448 -0.354372 0.000000 -0.001564 -0.355837 0.000000 -0.001679 -0.357412 0.000000 -0.001793 -0.359104 0.000000 -0.001906 -0.360905 0.000000 -0.002017 -0.362822 0.000000 -0.002127 -0.364846 0.000000 -0.002235 -0.366985 0.000000 -0.002342 -0.369229 0.000000 -0.002447 -0.371586 0.000000 -0.002550 -0.374047 0.000000 -0.002652 -0.376618 0.000000 -0.002752 -0.379290 0.000000 -0.002849 -0.382071 0.000000 -0.002945 -0.384950 0.000000 -0.003039 -0.387935 0.000000 -0.003130 -0.391017 0.000000 -0.003219 -0.394201 0.000000 -0.003306 -0.397479 0.000000 -0.003390 -0.400857 0.000000 -0.003472 -0.404325 0.000000 -0.003551 -0.407890 0.000000 -0.003628 -0.411542 0.000000 -0.003702 -0.415287 0.000000 -0.003774 -0.419117 0.000000 -0.003843 -0.423035 0.000000 -0.003909 -0.427033 0.000000 -0.003972 -0.431117 0.000000 -0.004032 -0.435277 0.000000 -0.004089 -0.439518 0.000000 -0.004143 -0.443831 0.000000 -0.004195 -0.448220 0.000000 -0.004243 -0.452678 0.000000 -0.004288 -0.457207 0.000000 -0.004330 -0.461800 0.000000 -0.004369 -0.466459 0.000000 -0.004404 -0.471177 0.000000 -0.004437 -0.475956 0.000000 -0.004466 -0.480789 0.000000 -0.004492 -0.485677 0.000000 -0.004515 -0.490615 0.000000 -0.004535 -0.495602 0.000000 -0.004551 -0.500633 0.000000 -0.004564 -0.505708 0.000000 -0.004574 -0.510822 0.000000 -0.004581 -0.515973 0.000000 -0.004585 -0.521156 0.000000 -0.004585 -0.526371 0.000000 -0.004582 -0.531613 0.000000 -0.004576 -0.536880 0.000000 -0.004567 -0.542167 0.000000 -0.004555 -0.547474 0.000000 -0.004540 -0.552794 0.000000 -0.004522 -0.558127 0.000000 -0.004500 -0.563468 0.000000 -0.004476 -0.568813 0.000000 -0.004449 -0.574161 0.000000 -0.004420 -0.579507 0.000000 -0.004387 -0.584849 0.000000 -0.004352 -0.590181 0.000000 -0.004314 -0.595503 0.000000 -0.004273 -0.600808 0.000000 -0.004230 -0.606096 0.000000 -0.004185 -0.611362 0.000000 -0.004137 -0.616603 0.000000 -0.004087 -0.621814 0.000000 -0.004034 -0.626994 0.000000 -0.003980 -0.632137 0.000000 -0.003923 -0.637243 0.000000 -0.003864 -0.642305 0.000000 -0.003803 -0.647323 0.000000 -0.003741 -0.652289 0.000000 -0.003676 -0.657206 0.000000 -0.003610 -0.662064 0.000000 -0.003542 -0.666866 0.000000 -0.003473 -0.671603 0.000000 -0.003402 -0.676278 0.000000 -0.003330 -0.680880 0.000000 -0.003256 -0.685414 0.000000 -0.003181 -0.689870 0.000000 -0.003105 -0.694250 0.000000 -0.003028 -0.698547 0.000000 -0.002949 -0.702762 0.000000 -0.002870 -0.706887 0.000000 -0.002789 -0.710926 0.000000 -0.002708 -0.714868 0.000000 -0.002626 -0.718719 0.000000 -0.002544 -0.722467 0.000000 -0.002460 -0.726119 0.000000 -0.002376 -0.729663 0.000000 -0.002291 -0.733105 0.000000 -0.002206 -0.736434 0.000000 -0.002120 -0.739657 0.000000 -0.002034 -0.742762 0.000000 -0.001948 -0.745757 0.000000 -0.001861 -0.748629 0.000000 -0.001774 -0.751387 0.000000 -0.001686 -0.754018 0.000000 -0.001599 -0.756531 0.000000 -0.001511 -0.758914 0.000000 -0.001422 -0.761174 0.000000 -0.001334 -0.763302 0.000000 -0.001246 -0.765304 0.000000 -0.001157 -0.767169 0.000000 -0.001068 -0.768907 0.000000 -0.000980 -0.770505 0.000000 -0.000891 -0.771974 0.000000 -0.000802 -0.773301 0.000000 -0.000713 -0.774495 0.000000 -0.000624 -0.775546 0.000000 -0.000535 -0.776464 0.000000 -0.000446 -0.777237 0.000000 -0.000357 -0.777874 0.000000 -0.000267 -0.778366 0.000000 -0.000178 -0.778722 0.000000 -0.000089 -0.778932 0.000000 -0.000000 -0.779005 0.000000 0.000089 -0.778932 0.000000 0.000178 -0.778722 0.000000 0.000267 -0.778366 0.000000 0.000357 -0.777874 0.000000 0.000446 -0.777237 0.000000 0.000535 -0.776464 0.000000 0.000624 -0.775546 0.000000 0.000713 -0.774495 0.000000 0.000802 -0.773301 0.000000 0.000891 -0.771974 0.000000 0.000980 -0.770505 0.000000 0.001068 -0.768907 0.000000 0.001157 -0.767169 0.000000 0.001246 -0.765304 0.000000 0.001334 -0.763302 0.000000 0.001422 -0.761174 0.000000 0.001511 -0.758914 0.000000 0.001599 -0.756531 0.000000 0.001686 -0.754018 0.000000 0.001774 -0.751387 0.000000 0.001861 -0.748629 0.000000 0.001948 -0.745757 0.000000 0.002034 -0.742762 0.000000 0.002120 -0.739657 0.000000 0.002206 -0.736434 0.000000 0.002291 -0.733105 0.000000 0.002376 -0.729663 0.000000 0.002460 -0.726119 0.000000 0.002544 -0.722467 0.000000 0.002626 -0.718719 0.000000 0.002708 -0.714868 0.000000 0.002789 -0.710926 0.000000 0.002870 -0.706887 0.000000 0.002949 -0.702762 0.000000 0.003028 -0.698547 0.000000 0.003105 -0.694250 0.000000 0.003181 -0.689870 0.000000 0.003256 -0.685414 0.000000 0.003330 -0.680880 0.000000 0.003402 -0.676278 0.000000 0.003473 -0.671603 0.000000 0.003542 -0.666866 0.000000 0.003610 -0.662064 0.000000 0.003676 -0.657206 0.000000 0.003741 -0.652289 0.000000 0.003803 -0.647323 0.000000 0.003864 -0.642305 0.000000 0.003923 -0.637243 0.000000 0.003980 -0.632137 0.000000 0.004034 -0.626994 0.000000 0.004087 -0.621814 0.000000 0.004137 -0.616603 0.000000 0.004185 -0.611362 0.000000 0.004230 -0.606096 0.000000 0.004273 -0.600808 0.000000 0.004314 -0.595503 0.000000 0.004352 -0.590181 0.000000 0.004387 -0.584849 0.000000 0.004420 -0.579507 0.000000 0.004449 -0.574161 0.000000 0.004476 -0.568813 0.000000 0.004500 -0.563468 0.000000 0.004522 -0.558127 0.000000 0.004540 -0.552794 0.000000 0.004555 -0.547474 0.000000 0.004567 -0.542167 0.000000 0.004576 -0.536880 0.000000 0.004582 -0.531613 0.000000 0.004585 -0.526371 0.000000 0.004585 -0.521156 0.000000 0.004581 -0.515973 0.000000 0.004574 -0.510822 0.000000 0.004564 -0.505708 0.000000 0.004551 -0.500633 0.000000 0.004535 -0.495602 0.000000 0.004515 -0.490615 0.000000 0.004492 -0.485677 0.000000 0.004466 -0.480789 0.000000 0.004437 -0.475956 0.000000 0.004404 -0.471177 0.000000 0.004369 -0.466459 0.000000 0.004330 -0.461800 0.000000 0.004288 -0.457207 0.000000 0.004243 -0.452678 0.000000 0.004195 -0.448220 0.000000 0.004143 -0.443831 0.000000 0.004089 -0.439518 0.000000 0.004032 -0.435277 0.000000 0.003972 -0.431117 0.000000 0.003909 -0.427033 0.000000 0.003843 -0.423035 0.000000 0.003774 -0.419117 0.000000 0.003702 -0.415287 0.000000 0.003628 -0.411542 0.000000 0.003551 -0.407890 0.000000 0.003472 -0.404325 0.000000 0.003390 -0.400857 0.000000 0.003306 -0.397479 0.000000 0.003219 -0.394201 0.000000 0.003130 -0.391017 0.000000 0.003039 -0.387935 0.000000 0.002945 -0.384950 0.000000 0.002849 -0.382071 0.000000 0.002752 -0.379290 0.000000 0.002652 -0.376618 0.000000 0.002550 -0.374047 0.000000 0.002447 -0.371586 0.000000 0.002342 -0.369229 0.000000 0.002235 -0.366985 0.000000 0.002127 -0.364846 0.000000 0.002017 -0.362822 0.000000 0.001906 -0.360905 0.000000 0.001793 -0.359104 0.000000 0.001679 -0.357412 0.000000 0.001564 -0.355837 0.000000 0.001448 -0.354372 0.000000 0.001331 -0.353027 0.000000 0.001213 -0.351793 0.000000 0.001094 -0.350678 0.000000 0.000975 -0.349676 0.000000 0.000854 -0.348795 0.000000 0.000733 -0.348026 0.000000 0.000612 -0.347380 0.000000 0.000490 -0.346846 0.000000 0.000368 -0.346435 0.000000 0.000245 -0.346137 0.000000 0.000123 -0.345962 0.000000 
0.000000 -0.345719 0.000000 -0.000241 -0.345780 0.000000 -0.000482 -0.345956 0.000000 -0.000722 -0.346254 0.000000 -0.000963 -0.346665 0.000000 -0.001202 -0.347199 0.000000 -0.001441 -0.347846 0.000000 -0.001679 -0.348616 0.000000 -0.001917 -0.349498 0.000000 -0.002153 -0.350501 0.000000 -0.002388 -0.351616 0.000000 -0.002622 -0.352852 0.000000 -0.002854 -0.354198 0.000000 -0.003084 -0.355664 0.000000 -0.003313 -0.357240 0.000000 -0.003540 -0.358934 0.000000 -0.003765 -0.360737 0.000000 -0.003989 -0.362656 0.000000 -0.004209 -0.364682 0.000000 -0.004428 -0.366823 0.000000 -0.004643 -0.369069 0.000000 -0.004857 -0.371428 0.000000 -0.005067 -0.373891 0.000000 -0.005274 -0.376465 0.000000 -0.005479 -0.379139 0.000000 -0.005680 -0.381923 0.000000 -0.005878 -0.384805 0.000000 -0.006073 -0.387793 0.000000 -0.006264 -0.390877 0.000000 -0.006451 -0.394065 0.000000 -0.006634 -0.397346 0.000000 -0.006814 -0.400727 0.000000 -0.006990 -0.404198 0.000000 -0.007161 -0.407766 0.000000 -0.007328 -0.411422 0.000000 -0.007491 -0.415171 0.000000 -0.007649 -0.419004 0.000000 -0.007802 -0.422925 0.000000 -0.007951 -0.426928 0.000000 -0.008095 -0.431015 0.000000 -0.008234 -0.435179 0.000000 -0.008368 -0.439424 0.000000 -0.008496 -0.443742 0.000000 -0.008620 -0.448135 0.000000 -0.008737 -0.452597 0.000000 -0.008850 -0.457130 0.000000 -0.008957 -0.461727 0.000000 -0.009059 -0.466391 0.000000 -0.009154 -0.471113 0.000000 -0.009244 -0.475897 0.000000 -0.009328 -0.480734 0.000000 -0.009407 -0.485627 0.000000 -0.009479 -0.490570 0.000000 -0.009545 -0.495562 0.000000 -0.009605 -0.500598 0.000000 -0.009660 -0.505677 0.000000 -0.009708 -0.510795 0.000000 -0.009750 -0.515951 0.000000 -0.009785 -0.521139 0.000000 -0.009815 -0.526359 0.000000 -0.009838 -0.531605 0.000000 -0.009855 -0.536877 0.000000 -0.009865 -0.542169 0.000000 -0.009869 -0.547480 0.000000 -0.009867 -0.552805 0.000000 -0.009859 -0.558142 0.000000 -0.009845 -0.563488 0.000000 -0.009824 -0.568838 0.000000 -0.009797 -0.574190 0.000000 -0.009764 -0.579541 0.000000 -0.009725 -0.584887 0.000000 -0.009680 -0.590223 0.000000 -0.009628 -0.595549 0.000000 -0.009571 -0.600859 0.000000 -0.009508 -0.606152 0.000000 -0.009439 -0.611421 0.000000 -0.009364 -0.616666 0.000000 -0.009283 -0.621881 0.000000 -0.009197 -0.627065 0.000000 -0.009105 -0.632212 0.000000 -0.009007 -0.637322 0.000000 -0.008905 -0.642387 0.000000 -0.008796 -0.647409 0.000000 -0.008683 -0.652379 0.000000 -0.008564 -0.657299 0.000000 -0.008441 -0.662161 0.000000 -0.008312 -0.666966 0.000000 -0.008179 -0.671706 0.000000 -0.008041 -0.676384 0.000000 -0.007898 -0.680989 0.000000 -0.007751 -0.685526 0.000000 -0.007600 -0.689984 0.000000 -0.007444 -0.694368 0.000000 -0.007284 -0.698667 0.000000 -0.007120 -0.702885 0.000000 -0.006952 -0.707012 0.000000 -0.006780 -0.711053 0.000000 -0.006605 -0.714998 0.000000 -0.006426 -0.718850 0.000000 -0.006244 -0.722601 0.000000 -0.006058 -0.726254 0.000000 -0.005869 -0.729800 0.000000 -0.005677 -0.733244 0.000000 -0.005482 -0.736575 0.000000 -0.005285 -0.739799 0.000000 -0.005084 -0.742906 0.000000 -0.004881 -0.745902 0.000000 -0.004676 -0.748776 0.000000 -0.004468 -0.751535 0.000000 -0.004258 -0.754168 0.000000 -0.004046 -0.756681 0.000000 -0.003832 -0.759065 0.000000 -0.003616 -0.761327 0.000000 -0.003399 -0.763455 0.000000 -0.003179 -0.765458 0.000000 -0.002959 -0.767324 0.000000 -0.002736 -0.769063 0.000000 -0.002513 -0.770662 0.000000 -0.002288 -0.772131 0.000000 -0.002062 -0.773458 0.000000 -0.001836 -0.774653 0.000000 -0.001608 -0.775705 0.000000 -0.001380 -0.776623 0.000000 -0.001151 -0.777396 0.000000 -0.000921 -0.778034 0.000000 -0.000691 -0.778526 0.000000 -0.000461 -0.778882 0.000000 -0.000231 -0.779092 0.000000 -0.000000 -0.779165 0.000000 0.000231 -0.779092 0.000000 0.000461 -0.778882 0.000000 0.000691 -0.778526 0.000000 0.000921 -0.778034 0.000000 0.001151 -0.777396 0.000000 0.001380 -0.776623 0.000000 0.001608 -0.775705 0.000000 0.001836 -0.774653 0.000000 0.002062 -0.773458 0.000000 0.002288 -0.772131 0.000000 0.002513 -0.770662 0.000000 0.002736 -0.769063 0.000000 0.002959 -0.767324 0.000000 0.003179 -0.765458 0.000000 0.003399 -0.763455 0.000000 0.003616 -0.761327 0.000000 0.003832 -0.759065 0.000000 0.004046 -0.756681 0.000000 0.004258 -0.754168 0.000000 0.004468 -0.751535 0.000000 0.004676 -0.748776 0.000000 0.004881 -0.745902 0.000000 0.005084 -0.742906 0.000000 0.005285 -0.739799 0.000000 0.005482 -0.736575 0.000000 0.005677 -0.733244 0.000000 0.005869 -0.729800 0.000000 0.006058 -0.726254 0.000000 0.006244 -0.722601 0.000000 0.006426 -0.718850 0.000000 0.006605 -0.714998 0.000000 0.006780 -0.711053 0.000000 0.006952 -0.707012 0.000000 0.007120 -0.702885 0.000000 0.007284 -0.698667 0.000000 0.007444 -0.694368 0.000000 0.007600 -0.689984 0.000000 0.007751 -0.685526 0.000000 0.007898 -0.680989 0.000000 0.008041 -0.676384 0.000000 0.008179 -0.671706 0.000000 0.008312 -0.666966 0.000000 0.008441 -0.662161 0.000000 0.008564 -0.657299 0.000000 0.008683 -0.652379 0.000000 0.008796 -0.647409 0.000000 0.008905 -0.642387 0.000000 0.009007 -0.637322 0.000000 0.009105 -0.632212 0.000000 0.009197 -0.627065 0.000000 0.009283 -0.621881 0.000000 0.009364 -0.616666 0.000000 0.009439 -0.611421 0.000000 0.009508 -0.606152 0.000000 0.009571 -0.600859 0.000000 0.009628 -0.595549 0.000000 0.009680 -0.590223 0.000000 0.009725 -0.584887 0.000000 0.009764 -0.579541 0.000000 0.009797 -0.574190 0.000000 0.009824 -0.568838 0.000000 0.009845 -0.563488 0.000000 0.009859 -0.558142 0.000000 0.009867 -0.552805 0.000000 0.009869 -0.547480 0.000000 0.009865 -0.542169 0.000000 0.009855 -0.536877 0.000000 0.009838 -0.531605 0.000000 0.009815 -0.526359 0.000000 0.009785 -0.521139 0.000000 0.009750 -0.515951 0.000000 0.009708 -0.510795 0.000000 0.009660 -0.505677 0.000000 0.009605 -0.500598 0.000000 0.009545 -0.495562 0.000000 0.009479 -0.490570 0.000000 0.009407 -0.485627 0.000000 0.009328 -0.480734 0.000000 0.009244 -0.475897 0.000000 0.009154 -0.471113 0.000000 0.009059 -0.466391 0.000000 0.008957 -0.461727 0.000000 0.008850 -0.457130 0.000000 0.008737 -0.452597 0.000000 0.008620 -0.448135 0.000000 0.008496 -0.443742 0.000000 0.008368 -0.439424 0.000000 0.008234 -0.435179 0.000000 0.008095 -0.431015 0.000000 0.007951 -0.426928 0.000000 0.007802 -0.422925 0.000000 0.007649 -0.419004 0.000000 0.007491 -0.415171 0.000000 0.007328 -0.411422 0.000000 0.007161 -0.407766 0.000000 0.006990 -0.404198 0.000000 0.006814 -0.400727 0.000000 0.006634 -0.397346 0.000000 0.006451 -0.394065 0.000000 0.006264 -0.390877 0.000000 0.006073 -0.387793 0.000000 0.005878 -0.384805 0.000000 0.005680 -0.381923 0.000000 0.005479 -0.379139 0.000000 0.005274 -0.376465 0.000000 0.005067 -0.373891 0.000000 0.004857 -0.371428 0.000000 0.004643 -0.369069 0.000000 0.004428 -0.366823 0.000000 0.004209 -0.364682 0.000000 0.003989 -0.362656 0.000000 0.003765 -0.360737 0.000000 0.003540 -0.358934 0.000000 0.003313 -0.357240 0.000000 0.003084 -0.355664 0.000000 0.002854 -0.354198 0.000000 0.002622 -0.352852 0.000000 0.002388 -0.351616 0.000000 0.002153 -0.350501 0.000000 0.001917 -0.349498 0.000000 0.001679 -0.348616 0.000000 0.001441 -0.347846 0.000000 0.001202 -0.347199 0.000000 0.000963 -0.346665 0.000000 0.000722 -0.346254 0.000000 0.000482 -0.345956 0.000000 0.000241 -0.345780 0.000000 