# vtk DataFile Version 2.0
Comment goes here
ASCII

DATASET STRUCTURED_POINTS
FIELD FieldData 1
TIME 1 1 double
0.02000000
DIMENSIONS    256   256   1

ORIGIN    0.000   0.000   0.000
SPACING   0.0039062 0.0039062   1.000

POINT_DATA   65536
VECTORS u double

-0.000000 -0.172344 0.000000 0.000425 -0.172375 0.000000 0.000849 -0.172467 0.000000 0.001274 -0.172621 0.000000 0.001698 -0.172835 0.000000 0.002122 -0.173112 0.000000 0.002546 -0.173449 0.000000 0.002970 -0.173848 0.000000 0.003392 -0.174307 0.000000 0.003815 -0.174827 0.000000 0.004236 -0.175407 0.000000 0.004657 -0.176049 0.000000 0.005077 -0.176750 0.000000 0.005497 -0.177511 0.000000 0.005915 -0.178331 0.000000 0.006332 -0.179212 0.000000 0.006748 -0.180151 0.000000 0.007163 -0.181149 0.000000 0.007576 -0.182205 0.000000 0.007988 -0.183319 0.000000 0.008399 -0.184490 0.000000 0.008807 -0.185719 0.000000 0.009214 -0.187004 0.000000 0.009618 -0.188346 0.000000 0.010021 -0.189743 0.000000 0.010421 -0.191195 0.000000 0.010819 -0.192701 0.000000 0.011215 -0.194262 0.000000 0.011607 -0.195876 0.000000 0.011997 -0.197542 0.000000 0.012383 -0.199260 0.000000 0.012767 -0.201030 0.000000 0.013147 -0.202850 0.000000 0.013523 -0.204720 0.000000 0.013895 -0.206639 0.000000 0.014263 -0.208606 0.000000 0.014628 -0.210620 0.000000 0.014987 -0.212681 0.000000 0.015342 -0.214786 0.000000 0.015692 -0.216937 0.000000 0.016036 -0.219131 0.000000 0.016375 -0.221368 0.000000 0.016709 -0.223646 0.000000 0.017036 -0.225964 0.000000 0.017357 -0.228322 0.000000 0.017672 -0.230718 0.000000 0.017980 -0.233150 0.000000 0.018281 -0.235619 0.000000 0.018574 -0.238122 0.000000 0.018860 -0.240658 0.000000 0.019137 -0.243226 0.000000 0.019407 -0.245825 0.000000 0.019668 -0.248453 0.000000 0.019919 -0.251110 0.000000 0.020162 -0.253792 0.000000 0.020395 -0.256500 0.000000 0.020619 -0.259231 0.000000 0.020832 -0.261984 0.000000 0.021035 -0.264758 0.000000 0.021227 -0.267550 0.000000 0.021408 -0.270360 0.000000 0.021577 -0.273186 0.000000 0.021735 -0.276026 0.000000 0.021880 -0.278878 0.000000 0.022013 -0.281741 0.000000 0.022134 -0.284613 0.000000 0.022242 -0.287492 0.000000 0.022336 -0.290377 0.000000 0.022417 -0.293266 0.000000 0.022484 -0.296157 0.000000 0.022537 -0.299048 0.000000 0.022575 -0.301937 0.000000 0.022599 -0.304823 0.000000 0.022608 -0.307703 0.000000 0.022601 -0.310576 0.000000 0.022580 -0.313440 0.000000 0.022543 -0.316294 0.000000 0.022490 -0.319134 0.000000 0.022421 -0.321960 0.000000 0.022336 -0.324768 0.000000 0.022234 -0.327559 0.000000 0.022117 -0.330329 0.000000 0.021982 -0.333077 0.000000 0.021831 -0.335800 0.000000 0.021663 -0.338497 0.000000 0.021478 -0.341166 0.000000 0.021277 -0.343806 0.000000 0.021058 -0.346413 0.000000 0.020822 -0.348987 0.000000 0.020570 -0.351525 0.000000 0.020300 -0.354026 0.000000 0.020014 -0.356487 0.000000 0.019711 -0.358908 0.000000 0.019391 -0.361285 0.000000 0.019054 -0.363619 0.000000 0.018701 -0.365905 0.000000 0.018332 -0.368145 0.000000 0.017947 -0.370333 0.000000 0.017545 -0.372472 0.000000 0.017128 -0.374556 0.000000 0.016695 -0.376587 0.000000 0.016248 -0.378561 0.000000 0.015785 -0.380478 0.000000 0.015308 -0.382335 0.000000 0.014816 -0.384132 0.000000 0.014311 -0.385866 0.000000 0.013792 -0.387538 0.000000 0.013260 -0.389145 0.000000 0.012716 -0.390686 0.000000 0.012159 -0.392159 0.000000 0.011591 -0.393565 0.000000 0.011011 -0.394901 0.000000 0.010421 -0.396167 0.000000 0.009821 -0.397361 0.000000 0.009211 -0.398483 0.000000 0.008592 -0.399531 0.000000 0.007964 -0.400505 0.000000 0.007329 -0.401404 0.000000 0.006686 -0.402228 0.000000 0.006037 -0.402974 0.000000 0.005381 -0.403645 0.000000 0.004720 -0.404237 0.000000 0.004055 -0.404752 0.000000 0.003385 -0.405187 0.000000 0.002712 -0.405545 0.000000 0.002037 -0.405823 0.000000 0.001359 -0.406022 0.000000 0.000680 -0.406141 0.000000 -0.000000 -0.406181 0.000000 -0.000680 -0.406141 0.000000 -0.001359 -0.406022 0.000000 -0.002037 -0.405823 0.000000 -0.002712 -0.405545 0.000000 -0.003385 -0.405187 0.000000 -0.004055 -0.404752 0.000000 -0.004720 -0.404237 0.000000 -0.005381 -0.403645 0.000000 -0.006037 -0.402974 0.000000 -0.006686 -0.402228 0.000000 -0.007329 -0.401404 0.000000 -0.007964 -0.400505 0.000000 -0.008592 -0.399531 0.000000 -0.009211 -0.398483 0.000000 -0.009821 -0.397361 0.000000 -0.010421 -0.396167 0.000000 -0.011011 -0.394901 0.000000 -0.011591 -0.393565 0.000000 -0.012159 -0.392159 0.000000 -0.012716 -0.390686 0.000000 -0.013260 -0.389145 0.000000 -0.013792 -0.387538 0.000000 -0.014311 -0.385866 0.000000 -0.014816 -0.384132 0.000000 -0.015308 -0.382335 0.000000 -0.015785 -0.380478 0.000000 -0.016248 -0.378561 0.000000 -0.016695 -0.376587 0.000000 -0.017128 -0.374556 0.000000 -0.017545 -0.372472 0.000000 -0.017947 -0.370333 0.000000 -0.018332 -0.368145 0.000000 -0.018701 -0.365905 0.000000 -0.019054 -0.363619 0.000000 -0.019391 -0.361285 0.000000 -0.019711 -0.358908 0.000000 -0.020014 -0.356487 0.000000 -0.020300 -0.354026 0.000000 -0.020570 -0.351525 0.000000 -0.020822 -0.348987 0.000000 -0.021058 -0.346413 0.000000 -0.021277 -0.343806 0.000000 -0.021478 -0.341166 0.000000 -0.021663 -0.338497 0.000000 -0.021831 -0.335800 0.000000 -0.021982 -0.333077 0.000000 -0.022117 -0.330329 0.000000 -0.022234 -0.327559 0.000000 -0.022336 -0.324768 0.000000 -0.022421 -0.321960 0.000000 -0.022490 -0.319134 0.000000 -0.022543 -0.316294 0.000000 -0.022580 -0.313440 0.000000 -0.022601 -0.310576 0.000000 -0.022608 -0.307703 0.000000 -0.022599 -0.304823 0.000000 -0.022575 -0.301937 0.000000 -0.022537 -0.299048 0.000000 -0.022484 -0.296157 0.000000 -0.022417 -0.293266 0.000000 -0.022336 -0.290377 0.000000 -0.022242 -0.287492 0.000000 -0.022134 -0.284613 0.000000 -0.022013 -0.281741 0.000000 -0.021880 -0.278878 0.000000 -0.021735 -0.276026 0.000000 -0.021577 -0.273186 0.000000 -0.021408 -0.270360 0.000000 -0.021227 -0.267550 0.000000 -0.021035 -0.264758 0.000000 -0.020832 -0.261984 0.000000 -0.020619 -0.259231 0.000000 -0.020395 -0.256500 0.000000 -0.020162 -0.253792 0.000000 -0.019919 -0.251110 0.000000 -0.019668 -0.248453 0.000000 -0.019407 -0.245825 0.000000 -0.019137 -0.243226 0.000000 -0.018860 -0.240658 0.000000 -0.018574 -0.238122 0.000000 -0.018281 -0.235619 0.000000 -0.017980 -0.233150 0.000000 -0.017672 -0.230718 0.000000 -0.017357 -0.228322 0.000000 -0.017036 -0.225964 0.000000 -0.016709 -0.223646 0.000000 -0.016375 -0.221368 0.000000 -0.016036 -0.219131 0.000000 -0.015692 -0.216937 0.000000 -0.015342 -0.214786 0.000000 -0.014987 -0.212681 0.000000 -0.014628 -0.210620 0.000000 -0.014263 -0.208606 0.000000 -0.013895 -0.206639 0.000000 -0.013523 -0.204720 0.000000 -0.013147 -0.202850 0.000000 -0.012767 -0.201030 0.000000 -0.012383 -0.199260 0.000000 -0.011997 -0.197542 0.000000 -0.011607 -0.195876 0.000000 -0.011215 -0.194262 0.000000 -0.010819 -0.192701 0.000000 -0.010421 -0.191195 0.000000 -0.010021 -0.189743 0.000000 -0.009618 -0.188346 0.000000 -0.009214 -0.187004 0.000000 -0.008807 -0.185719 0.000000 -0.008399 -0.184490 0.000000 -0.007988 -0.183319 0.000000 -0.007576 -0.182205 0.000000 -0.007163 -0.181149 0.000000 -0.006748 -0.180151 0.000000 -0.006332 -0.179212 0.000000 -0.005915 -0.178331 0.000000 -0.005497 -0.177511 0.000000 -0.005077 -0.176750 0.000000 -0.004657 -0.176049 0.000000 -0.004236 -0.175407 0.000000 -0.003815 -0.174827 0.000000 -0.003392 -0.174307 0.000000 -0.002970 -0.173848 0.000000 -0.002546 -0.173449 0.000000 -0.002122 -0.173112 0.000000 -0.001698 -0.172835 0.000000 -0.001274 -0.172621 0.000000 -0.000849 -0.172467 0.000000 -0.000425 -0.172375 0.000000 
-0.000000 -0.172738 0.000000 0.000363 -0.172769 0.000000 0.000727 -0.172860 0.000000 0.001090 -0.173014 0.000000 0.001453 -0.173228 0.000000 0.001816 -0.173505 0.000000 0.002178 -0.173841 0.000000 0.002541 -0.174240 0.000000 0.002903 -0.174698 0.000000 0.003264 -0.175218 0.000000 0.003626 -0.175798 0.000000 0.003986 -0.176439 0.000000 0.004347 -0.177139 0.000000 0.004706 -0.177900 0.000000 0.005065 -0.178719 0.000000 0.005423 -0.179599 0.000000 0.005780 -0.180536 0.000000 0.006136 -0.181533 0.000000 0.006492 -0.182588 0.000000 0.006846 -0.183701 0.000000 0.007199 -0.184871 0.000000 0.007551 -0.186098 0.000000 0.007901 -0.187381 0.000000 0.008250 -0.188721 0.000000 0.008597 -0.190116 0.000000 0.008943 -0.191566 0.000000 0.009286 -0.193070 0.000000 0.009628 -0.194629 0.000000 0.009968 -0.196240 0.000000 0.010305 -0.197904 0.000000 0.010640 -0.199619 0.000000 0.010973 -0.201386 0.000000 0.011303 -0.203203 0.000000 0.011630 -0.205070 0.000000 0.011954 -0.206985 0.000000 0.012274 -0.208948 0.000000 0.012592 -0.210958 0.000000 0.012905 -0.213015 0.000000 0.013215 -0.215116 0.000000 0.013521 -0.217262 0.000000 0.013823 -0.219451 0.000000 0.014120 -0.221683 0.000000 0.014413 -0.223955 0.000000 0.014700 -0.226268 0.000000 0.014983 -0.228620 0.000000 0.015260 -0.231010 0.000000 0.015532 -0.233436 0.000000 0.015797 -0.235898 0.000000 0.016057 -0.238394 0.000000 0.016310 -0.240923 0.000000 0.016557 -0.243484 0.000000 0.016796 -0.246075 0.000000 0.017029 -0.248695 0.000000 0.017253 -0.251343 0.000000 0.017471 -0.254017 0.000000 0.017680 -0.256716 0.000000 0.017880 -0.259438 0.000000 0.018072 -0.262181 0.000000 0.018256 -0.264945 0.000000 0.018429 -0.267728 0.000000 0.018594 -0.270527 0.000000 0.018749 -0.273342 0.000000 0.018893 -0.276171 0.000000 0.019027 -0.279012 0.000000 0.019151 -0.281863 0.000000 0.019263 -0.284723 0.000000 0.019365 -0.287590 0.000000 0.019454 -0.290463 0.000000 0.019532 -0.293339 0.000000 0.019598 -0.296216 0.000000 0.019652 -0.299094 0.000000 0.019693 -0.301969 0.000000 0.019721 -0.304841 0.000000 0.019737 -0.307708 0.000000 0.019739 -0.310567 0.000000 0.019727 -0.313416 0.000000 0.019702 -0.316255 0.000000 0.019663 -0.319080 0.000000 0.019610 -0.321891 0.000000 0.019542 -0.324684 0.000000 0.019460 -0.327460 0.000000 0.019364 -0.330214 0.000000 0.019253 -0.332946 0.000000 0.019127 -0.335653 0.000000 0.018986 -0.338335 0.000000 0.018831 -0.340988 0.000000 0.018660 -0.343612 0.000000 0.018474 -0.346203 0.000000 0.018273 -0.348761 0.000000 0.018057 -0.351283 0.000000 0.017826 -0.353768 0.000000 0.017580 -0.356213 0.000000 0.017318 -0.358618 0.000000 0.017042 -0.360980 0.000000 0.016751 -0.363298 0.000000 0.016445 -0.365569 0.000000 0.016124 -0.367793 0.000000 0.015789 -0.369966 0.000000 0.015440 -0.372090 0.000000 0.015076 -0.374159 0.000000 0.014699 -0.376175 0.000000 0.014308 -0.378135 0.000000 0.013904 -0.380038 0.000000 0.013486 -0.381881 0.000000 0.013056 -0.383665 0.000000 0.012613 -0.385387 0.000000 0.012158 -0.387046 0.000000 0.011691 -0.388640 0.000000 0.011213 -0.390170 0.000000 0.010724 -0.391632 0.000000 0.010224 -0.393027 0.000000 0.009715 -0.394352 0.000000 0.009195 -0.395609 0.000000 0.008667 -0.396793 0.000000 0.008129 -0.397906 0.000000 0.007584 -0.398946 0.000000 0.007031 -0.399913 0.000000 0.006470 -0.400804 0.000000 0.005903 -0.401621 0.000000 0.005331 -0.402362 0.000000 0.004752 -0.403027 0.000000 0.004169 -0.403614 0.000000 0.003581 -0.404125 0.000000 0.002990 -0.404557 0.000000 0.002396 -0.404912 0.000000 0.001799 -0.405187 0.000000 0.001200 -0.405385 0.000000 0.000601 -0.405503 0.000000 -0.000000 -0.405543 0.000000 -0.000601 -0.405503 0.000000 -0.001200 -0.405385 0.000000 -0.001799 -0.405187 0.000000 -0.002396 -0.404912 0.000000 -0.002990 -0.404557 0.000000 -0.003581 -0.404125 0.000000 -0.004169 -0.403614 0.000000 -0.004752 -0.403027 0.000000 -0.005331 -0.402362 0.000000 -0.005903 -0.401621 0.000000 -0.006470 -0.400804 0.000000 -0.007031 -0.399913 0.000000 -0.007584 -0.398946 0.000000 -0.008129 -0.397906 0.000000 -0.008667 -0.396793 0.000000 -0.009195 -0.395609 0.000000 -0.009715 -0.394352 0.000000 -0.010224 -0.393027 0.000000 -0.010724 -0.391632 0.000000 -0.011213 -0.390170 0.000000 -0.011691 -0.388640 0.000000 -0.012158 -0.387046 0.000000 -0.012613 -0.385387 0.000000 -0.013056 -0.383665 0.000000 -0.013486 -0.381881 0.000000 -0.013904 -0.380038 0.000000 -0.014308 -0.378135 0.000000 -0.014699 -0.376175 0.000000 -0.015076 -0.374159 0.000000 -0.015440 -0.372090 0.000000 -0.015789 -0.369966 0.000000 -0.016124 -0.367793 0.000000 -0.016445 -0.365569 0.000000 -0.016751 -0.363298 0.000000 -0.017042 -0.360980 0.000000 -0.017318 -0.358618 0.000000 -0.017580 -0.356213 0.000000 -0.017826 -0.353768 0.000000 -0.018057 -0.351283 0.000000 -0.018273 -0.348761 0.000000 -0.018474 -0.346203 0.000000 -0.018660 -0.343612 0.000000 -0.018831 -0.340988 0.000000 -0.018986 -0.338335 0.000000 -0.019127 -0.335653 0.000000 -0.019253 -0.332946 0.000000 -0.019364 -0.330214 0.000000 -0.019460 -0.327460 0.000000 -0.019542 -0.324684 0.000000 -0.019610 -0.321891 0.000000 -0.019663 -0.319080 0.000000 -0.019702 -0.316255 0.000000 -0.019727 -0.313416 0.000000 -0.019739 -0.310567 0.000000 -0.019737 -0.307708 0.000000 -0.019721 -0.304841 0.000000 -0.019693 -0.301969 0.000000 -0.019652 -0.299094 0.000000 -0.019598 -0.296216 0.000000 -0.019532 -0.293339 0.000000 -0.019454 -0.290463 0.000000 -0.019365 -0.287590 0.000000 -0.019263 -0.284723 0.000000 -0.019151 -0.281863 0.000000 -0.019027 -0.279012 0.000000 -0.018893 -0.276171 0.000000 -0.018749 -0.273342 0.000000 -0.018594 -0.270527 0.000000 -0.018429 -0.267728 0.000000 -0.018256 -0.264945 0.000000 -0.018072 -0.262181 0.000000 -0.017880 -0.259438 0.000000 -0.017680 -0.256716 0.000000 -0.017471 -0.254017 0.000000 -0.017253 -0.251343 0.000000 -0.017029 -0.248695 0.000000 -0.016796 -0.246075 0.000000 -0.016557 -0.243484 0.000000 -0.016310 -0.240923 0.000000 -0.016057 -0.238394 0.000000 -0.015797 -0.235898 0.000000 -0.015532 -0.233436 0.000000 -0.015260 -0.231010 0.000000 -0.014983 -0.228620 0.000000 -0.014700 -0.226268 0.000000 -0.014413 -0.223955 0.000000 -0.014120 -0.221683 0.000000 -0.013823 -0.219451 0.000000 -0.013521 -0.217262 0.000000 -0.013215 -0.215116 0.000000 -0.012905 -0.213015 0.000000 -0.012592 -0.210958 0.000000 -0.012274 -0.208948 0.000000 -0.011954 -0.206985 0.000000 -0.011630 -0.205070 0.000000 -0.011303 -0.203203 0.000000 -0.010973 -0.201386 0.000000 -0.010640 -0.199619 0.000000 -0.010305 -0.197904 0.000000 -0.009968 -0.196240 0.000000 -0.009628 -0.194629 0.000000 -0.009286 -0.193070 0.000000 -0.008943 -0.191566 0.000000 -0.008597 -0.190116 0.000000 -0.008250 -0.188721 0.000000 -0.007901 -0.187381 0.000000 -0.007551 -0.186098 0.000000 -0.007199 -0.184871 0.000000 -0.006846 -0.183701 0.000000 -0.006492 -0.182588 0.000000 -0.006136 -0.181533 0.000000 -0.005780 -0.180536 0.000000 -0.005423 -0.179599 0.000000 -0.005065 -0.178719 0.000000 -0.004706 -0.177900 0.000000 -0.004347 -0.177139 0.000000 -0.003986 -0.176439 0.000000 -0.003626 -0.175798 0.000000 -0.003264 -0.175218 0.000000 -0.002903 -0.174698 0.000000 -0.002541 -0.174240 0.000000 -0.002178 -0.173841 0.000000 -0.001816 -0.173505 0.000000 -0.001453 -0.173228 0.000000 -0.001090 -0.173014 0.000000 -0.000727 -0.172860 0.000000 -0.000363 -0.172769 0.000000 
-0.000000 -0.173071 0.000000 0.000302 -0.173102 0.000000 0.000604 -0.173193 0.000000 0.000906 -0.173347 0.000000 0.001208 -0.173561 0.000000 0.001510 -0.173838 0.000000 0.001811 -0.174174 0.000000 0.002113 -0.174572 0.000000 0.002414 -0.175030 0.000000 0.002715 -0.175550 0.000000 0.003016 -0.176129 0.000000 0.003316 -0.176770 0.000000 0.003617 -0.177469 0.000000 0.003917 -0.178230 0.000000 0.004216 -0.179048 0.000000 0.004515 -0.179927 0.000000 0.004814 -0.180864 0.000000 0.005111 -0.181861 0.000000 0.005409 -0.182914 0.000000 0.005705 -0.184026 0.000000 0.006001 -0.185195 0.000000 0.006296 -0.186421 0.000000 0.006591 -0.187703 0.000000 0.006884 -0.189042 0.000000 0.007176 -0.190435 0.000000 0.007467 -0.191884 0.000000 0.007757 -0.193387 0.000000 0.008045 -0.194944 0.000000 0.008332 -0.196553 0.000000 0.008618 -0.198215 0.000000 0.008901 -0.199928 0.000000 0.009183 -0.201693 0.000000 0.009463 -0.203507 0.000000 0.009741 -0.205371 0.000000 0.010017 -0.207283 0.000000 0.010290 -0.209244 0.000000 0.010561 -0.211251 0.000000 0.010829 -0.213304 0.000000 0.011094 -0.215402 0.000000 0.011357 -0.217545 0.000000 0.011616 -0.219730 0.000000 0.011871 -0.221958 0.000000 0.012123 -0.224226 0.000000 0.012372 -0.226534 0.000000 0.012616 -0.228881 0.000000 0.012856 -0.231266 0.000000 0.013092 -0.233687 0.000000 0.013322 -0.236144 0.000000 0.013549 -0.238634 0.000000 0.013770 -0.241158 0.000000 0.013985 -0.243712 0.000000 0.014195 -0.246297 0.000000 0.014400 -0.248911 0.000000 0.014598 -0.251552 0.000000 0.014790 -0.254218 0.000000 0.014975 -0.256909 0.000000 0.015153 -0.259624 0.000000 0.015325 -0.262359 0.000000 0.015488 -0.265115 0.000000 0.015645 -0.267889 0.000000 0.015793 -0.270679 0.000000 0.015933 -0.273485 0.000000 0.016065 -0.276304 0.000000 0.016188 -0.279136 0.000000 0.016302 -0.281977 0.000000 0.016407 -0.284827 0.000000 0.016502 -0.287684 0.000000 0.016588 -0.290545 0.000000 0.016663 -0.293410 0.000000 0.016729 -0.296276 0.000000 0.016783 -0.299142 0.000000 0.016827 -0.302006 0.000000 0.016860 -0.304866 0.000000 0.016882 -0.307720 0.000000 0.016893 -0.310567 0.000000 0.016892 -0.313404 0.000000 0.016879 -0.316229 0.000000 0.016854 -0.319042 0.000000 0.016816 -0.321839 0.000000 0.016767 -0.324619 0.000000 0.016705 -0.327381 0.000000 0.016630 -0.330121 0.000000 0.016542 -0.332840 0.000000 0.016442 -0.335533 0.000000 0.016328 -0.338201 0.000000 0.016202 -0.340840 0.000000 0.016062 -0.343449 0.000000 0.015909 -0.346026 0.000000 0.015743 -0.348570 0.000000 0.015563 -0.351077 0.000000 0.015370 -0.353548 0.000000 0.015164 -0.355979 0.000000 0.014944 -0.358370 0.000000 0.014711 -0.360718 0.000000 0.014465 -0.363022 0.000000 0.014206 -0.365279 0.000000 0.013934 -0.367489 0.000000 0.013650 -0.369649 0.000000 0.013352 -0.371759 0.000000 0.013042 -0.373815 0.000000 0.012720 -0.375819 0.000000 0.012385 -0.377765 0.000000 0.012038 -0.379656 0.000000 0.011680 -0.381487 0.000000 0.011311 -0.383259 0.000000 0.010930 -0.384969 0.000000 0.010538 -0.386617 0.000000 0.010136 -0.388200 0.000000 0.009724 -0.389719 0.000000 0.009302 -0.391171 0.000000 0.008870 -0.392556 0.000000 0.008430 -0.393872 0.000000 0.007981 -0.395119 0.000000 0.007523 -0.396295 0.000000 0.007058 -0.397400 0.000000 0.006585 -0.398432 0.000000 0.006106 -0.399392 0.000000 0.005620 -0.400277 0.000000 0.005128 -0.401088 0.000000 0.004631 -0.401823 0.000000 0.004129 -0.402483 0.000000 0.003623 -0.403066 0.000000 0.003112 -0.403573 0.000000 0.002599 -0.404002 0.000000 0.002082 -0.404354 0.000000 0.001564 -0.404627 0.000000 0.001043 -0.404824 0.000000 0.000522 -0.404940 0.000000 0.000000 -0.404980 0.000000 -0.000522 -0.404940 0.000000 -0.001043 -0.404824 0.000000 -0.001564 -0.404627 0.000000 -0.002082 -0.404354 0.000000 -0.002599 -0.404002 0.000000 -0.003112 -0.403573 0.000000 -0.003623 -0.403066 0.000000 -0.004129 -0.402483 0.000000 -0.004631 -0.401823 0.000000 -0.005128 -0.401088 0.000000 -0.005620 -0.400277 0.000000 -0.006106 -0.399392 0.000000 -0.006585 -0.398432 0.000000 -0.007058 -0.397400 0.000000 -0.007523 -0.396295 0.000000 -0.007981 -0.395119 0.000000 -0.008430 -0.393872 0.000000 -0.008870 -0.392556 0.000000 -0.009302 -0.391171 0.000000 -0.009724 -0.389719 0.000000 -0.010136 -0.388200 0.000000 -0.010538 -0.386617 0.000000 -0.010930 -0.384969 0.000000 -0.011311 -0.383259 0.000000 -0.011680 -0.381487 0.000000 -0.012038 -0.379656 0.000000 -0.012385 -0.377765 0.000000 -0.012720 -0.375819 0.000000 -0.013042 -0.373815 0.000000 -0.013352 -0.371759 0.000000 -0.013650 -0.369649 0.000000 -0.013934 -0.367489 0.000000 -0.014206 -0.365279 0.000000 -0.014465 -0.363022 0.000000 -0.014711 -0.360718 0.000000 -0.014944 -0.358370 0.000000 -0.015164 -0.355979 0.000000 -0.015370 -0.353548 0.000000 -0.015563 -0.351077 0.000000 -0.015743 -0.348570 0.000000 -0.015909 -0.346026 0.000000 -0.016062 -0.343449 0.000000 -0.016202 -0.340840 0.000000 -0.016328 -0.338201 0.000000 -0.016442 -0.335533 0.000000 -0.016542 -0.332840 0.000000 -0.016630 -0.330121 0.000000 -0.016705 -0.327381 0.000000 -0.016767 -0.324619 0.000000 -0.016816 -0.321839 0.000000 -0.016854 -0.319042 0.000000 -0.016879 -0.316229 0.000000 -0.016892 -0.313404 0.000000 -0.016893 -0.310567 0.000000 -0.016882 -0.307720 0.000000 -0.016860 -0.304866 0.000000 -0.016827 -0.302006 0.000000 -0.016783 -0.299142 0.000000 -0.016729 -0.296276 0.000000 -0.016663 -0.293410 0.000000 -0.016588 -0.290545 0.000000 -0.016502 -0.287684 0.000000 -0.016407 -0.284827 0.000000 -0.016302 -0.281977 0.000000 -0.016188 -0.279136 0.000000 -0.016065 -0.276304 0.000000 -0.015933 -0.273485 0.000000 -0.015793 -0.270679 0.000000 -0.015645 -0.267889 0.000000 -0.015488 -0.265115 0.000000 -0.015325 -0.262359 0.000000 -0.015153 -0.259624 0.000000 -0.014975 -0.256909 0.000000 -0.014790 -0.254218 0.000000 -0.014598 -0.251552 0.000000 -0.014400 -0.248911 0.000000 -0.014195 -0.246297 0.000000 -0.013985 -0.243712 0.000000 -0.013770 -0.241158 0.000000 -0.013549 -0.238634 0.000000 -0.013322 -0.236144 0.000000 -0.013092 -0.233687 0.000000 -0.012856 -0.231266 0.000000 -0.012616 -0.228881 0.000000 -0.012372 -0.226534 0.000000 -0.012123 -0.224226 0.000000 -0.011871 -0.221958 0.000000 -0.011616 -0.219730 0.000000 -0.011357 -0.217545 0.000000 -0.011094 -0.215402 0.000000 -0.010829 -0.213304 0.000000 -0.010561 -0.211251 0.000000 -0.010290 -0.209244 0.000000 -0.010017 -0.207283 0.000000 -0.009741 -0.205371 0.000000 -0.009463 -0.203507 0.000000 -0.009183 -0.201693 0.000000 -0.008901 -0.199928 0.000000 -0.008618 -0.198215 0.000000 -0.008332 -0.196553 0.000000 -0.008045 -0.194944 0.000000 -0.007757 -0.193387 0.000000 -0.007467 -0.191884 0.000000 -0.007176 -0.190435 0.000000 -0.006884 -0.189042 0.000000 -0.006591 -0.187703 0.000000 -0.006296 -0.186421 0.000000 -0.006001 -0.185195 0.000000 -0.005705 -0.184026 0.000000 -0.005409 -0.182914 0.000000 -0.005111 -0.181861 0.000000 -0.004814 -0.180864 0.000000 -0.004515 -0.179927 0.000000 -0.004216 -0.179048 0.000000 -0.003917 -0.178230 0.000000 -0.003617 -0.177469 0.000000 -0.003316 -0.176770 0.000000 -0.003016 -0.176129 0.000000 -0.002715 -0.175550 0.000000 -0.002414 -0.175030 0.000000 -0.002113 -0.174572 0.000000 -0.001811 -0.174174 0.000000 -0.001510 -0.173838 0.000000 -0.001208 -0.173561 0.000000 -0.000906 -0.173347 0.000000 -0.000604 -0.173193 0.000000 -0.000302 -0.173102 0.000000 
-0.000000 -0.173342 0.000000 0.000241 -0.173373 0.000000 0.000481 -0.173464 0.000000 0.000722 -0.173618 0.000000 0.000963 -0.173832 0.000000 0.001203 -0.174108 0.000000 0.001444 -0.174444 0.000000 0.001684 -0.174843 0.000000 0.001925 -0.175301 0.000000 0.002166 -0.175820 0.000000 0.002406 -0.176399 0.000000 0.002646 -0.177040 0.000000 0.002887 -0.177739 0.000000 0.003127 -0.178499 0.000000 0.003367 -0.179317 0.000000 0.003607 -0.180196 0.000000 0.003847 -0.181133 0.000000 0.004086 -0.182129 0.000000 0.004326 -0.183182 0.000000 0.004565 -0.184293 0.000000 0.004804 -0.185461 0.000000 0.005042 -0.186687 0.000000 0.005280 -0.187969 0.000000 0.005518 -0.189307 0.000000 0.005755 -0.190699 0.000000 0.005991 -0.192147 0.000000 0.006227 -0.193649 0.000000 0.006462 -0.195204 0.000000 0.006697 -0.196812 0.000000 0.006930 -0.198473 0.000000 0.007163 -0.200185 0.000000 0.007394 -0.201948 0.000000 0.007624 -0.203761 0.000000 0.007853 -0.205623 0.000000 0.008081 -0.207534 0.000000 0.008307 -0.209492 0.000000 0.008531 -0.211497 0.000000 0.008754 -0.213548 0.000000 0.008975 -0.215643 0.000000 0.009193 -0.217783 0.000000 0.009410 -0.219966 0.000000 0.009624 -0.222190 0.000000 0.009836 -0.224455 0.000000 0.010045 -0.226761 0.000000 0.010251 -0.229104 0.000000 0.010454 -0.231485 0.000000 0.010654 -0.233903 0.000000 0.010850 -0.236355 0.000000 0.011043 -0.238841 0.000000 0.011232 -0.241360 0.000000 0.011417 -0.243910 0.000000 0.011598 -0.246490 0.000000 0.011774 -0.249098 0.000000 0.011946 -0.251733 0.000000 0.012113 -0.254394 0.000000 0.012274 -0.257079 0.000000 0.012431 -0.259787 0.000000 0.012581 -0.262516 0.000000 0.012726 -0.265265 0.000000 0.012865 -0.268032 0.000000 0.012997 -0.270816 0.000000 0.013123 -0.273614 0.000000 0.013243 -0.276426 0.000000 0.013355 -0.279249 0.000000 0.013459 -0.282082 0.000000 0.013557 -0.284923 0.000000 0.013646 -0.287771 0.000000 0.013728 -0.290624 0.000000 0.013801 -0.293479 0.000000 0.013866 -0.296336 0.000000 0.013922 -0.299193 0.000000 0.013969 -0.302046 0.000000 0.014007 -0.304896 0.000000 0.014036 -0.307740 0.000000 0.014055 -0.310576 0.000000 0.014065 -0.313402 0.000000 0.014064 -0.316217 0.000000 0.014053 -0.319018 0.000000 0.014032 -0.321804 0.000000 0.014001 -0.324573 0.000000 0.013958 -0.327323 0.000000 0.013905 -0.330052 0.000000 0.013841 -0.332758 0.000000 0.013766 -0.335439 0.000000 0.013680 -0.338095 0.000000 0.013583 -0.340722 0.000000 0.013474 -0.343319 0.000000 0.013354 -0.345883 0.000000 0.013222 -0.348415 0.000000 0.013079 -0.350910 0.000000 0.012924 -0.353368 0.000000 0.012758 -0.355787 0.000000 0.012580 -0.358166 0.000000 0.012391 -0.360501 0.000000 0.012190 -0.362793 0.000000 0.011978 -0.365038 0.000000 0.011754 -0.367236 0.000000 0.011519 -0.369384 0.000000 0.011274 -0.371482 0.000000 0.011017 -0.373527 0.000000 0.010749 -0.375518 0.000000 0.010471 -0.377454 0.000000 0.010182 -0.379333 0.000000 0.009883 -0.381154 0.000000 0.009574 -0.382915 0.000000 0.009255 -0.384614 0.000000 0.008927 -0.386253 0.000000 0.008589 -0.387826 0.000000 0.008242 -0.389336 0.000000 0.007887 -0.390778 0.000000 0.007523 -0.392155 0.000000 0.007152 -0.393463 0.000000 0.006772 -0.394702 0.000000 0.006386 -0.395870 0.000000 0.005992 -0.396968 0.000000 0.005592 -0.397994 0.000000 0.005186 -0.398947 0.000000 0.004774 -0.399826 0.000000 0.004357 -0.400632 0.000000 0.003935 -0.401362 0.000000 0.003509 -0.402018 0.000000 0.003079 -0.402597 0.000000 0.002646 -0.403101 0.000000 0.002209 -0.403527 0.000000 0.001770 -0.403877 0.000000 0.001329 -0.404148 0.000000 0.000887 -0.404343 0.000000 0.000444 -0.404459 0.000000 0.000000 -0.404499 0.000000 -0.000444 -0.404459 0.000000 -0.000887 -0.404343 0.000000 -0.001329 -0.404148 0.000000 -0.001770 -0.403877 0.000000 -0.002209 -0.403527 0.000000 -0.002646 -0.403101 0.000000 -0.003079 -0.402597 0.000000 -0.003509 -0.402018 0.000000 -0.003935 -0.401362 0.000000 -0.004357 -0.400632 0.000000 -0.004774 -0.399826 0.000000 -0.005186 -0.398947 0.000000 -0.005592 -0.397994 0.000000 -0.005992 -0.396968 0.000000 -0.006386 -0.395870 0.000000 -0.006772 -0.394702 0.000000 -0.007152 -0.393463 0.000000 -0.007523 -0.392155 0.000000 -0.007887 -0.390778 0.000000 -0.008242 -0.389336 0.000000 -0.008589 -0.387826 0.000000 -0.008927 -0.386253 0.000000 -0.009255 -0.384614 0.000000 -0.009574 -0.382915 0.000000 -0.009883 -0.381154 0.000000 -0.010182 -0.379333 0.000000 -0.010471 -0.377454 0.000000 -0.010749 -0.375518 0.000000 -0.011017 -0.373527 0.000000 -0.011274 -0.371482 0.000000 -0.011519 -0.369384 0.000000 -0.011754 -0.367236 0.000000 -0.011978 -0.365038 0.000000 -0.012190 -0.362793 0.000000 -0.012391 -0.360501 0.000000 -0.012580 -0.358166 0.000000 -0.012758 -0.355787 0.000000 -0.012924 -0.353368 0.000000 -0.013079 -0.350910 0.000000 -0.013222 -0.348415 0.000000 -0.013354 -0.345883 0.000000 -0.013474 -0.343319 0.000000 -0.013583 -0.340722 0.000000 -0.013680 -0.338095 0.000000 -0.013766 -0.335439 0.000000 -0.013841 -0.332758 0.000000 -0.013905 -0.330052 0.000000 -0.013958 -0.327323 0.000000 -0.014001 -0.324573 0.000000 -0.014032 -0.321804 0.000000 -0.014053 -0.319018 0.000000 -0.014064 -0.316217 0.000000 -0.014065 -0.313402 0.000000 -0.014055 -0.310576 0.000000 -0.014036 -0.307740 0.000000 -0.014007 -0.304896 0.000000 -0.013969 -0.302046 0.000000 -0.013922 -0.299193 0.000000 -0.013866 -0.296336 0.000000 -0.013801 -0.293479 0.000000 -0.013728 -0.290624 0.000000 -0.013646 -0.287771 0.000000 -0.013557 -0.284923 0.000000 -0.013459 -0.282082 0.000000 -0.013355 -0.279249 0.000000 -0.013243 -0.276426 0.000000 -0.013123 -0.273614 0.000000 -0.012997 -0.270816 0.000000 -0.012865 -0.268032 0.000000 -0.012726 -0.265265 0.000000 -0.012581 -0.262516 0.000000 -0.012431 -0.259787 0.000000 -0.012274 -0.257079 0.000000 -0.012113 -0.254394 0.000000 -0.011946 -0.251733 0.000000 -0.011774 -0.249098 0.000000 -0.011598 -0.246490 0.000000 -0.011417 -0.243910 0.000000 -0.011232 -0.241360 0.000000 -0.011043 -0.238841 0.000000 -0.010850 -0.236355 0.000000 -0.010654 -0.233903 0.000000 -0.010454 -0.231485 0.000000 -0.010251 -0.229104 0.000000 -0.010045 -0.226761 0.000000 -0.009836 -0.224455 0.000000 -0.009624 -0.222190 0.000000 -0.009410 -0.219966 0.000000 -0.009193 -0.217783 0.000000 -0.008975 -0.215643 0.000000 -0.008754 -0.213548 0.000000 -0.008531 -0.211497 0.000000 -0.008307 -0.209492 0.000000 -0.008081 -0.207534 0.000000 -0.007853 -0.205623 0.000000 -0.007624 -0.203761 0.000000 -0.007394 -0.201948 0.000000 -0.007163 -0.200185 0.000000 -0.006930 -0.198473 0.000000 -0.006697 -0.196812 0.000000 -0.006462 -0.195204 0.000000 -0.006227 -0.193649 0.000000 -0.005991 -0.192147 0.000000 -0.005755 -0.190699 0.000000 -0.005518 -0.189307 0.000000 -0.005280 -0.187969 0.000000 -0.005042 -0.186687 0.000000 -0.004804 -0.185461 0.000000 -0.004565 -0.184293 0.000000 -0.004326 -0.183182 0.000000 -0.004086 -0.182129 0.000000 -0.003847 -0.181133 0.000000 -0.003607 -0.180196 0.000000 -0.003367 -0.179317 0.000000 -0.003127 -0.178499 0.000000 -0.002887 -0.177739 0.000000 -0.002646 -0.177040 0.000000 -0.002406 -0.176399 0.000000 -0.002166 -0.175820 0.000000 -0.001925 -0.175301 0.000000 -0.001684 -0.174843 0.000000 -0.001444 -0.174444 0.000000 -0.001203 -0.174108 0.000000 -0.000963 -0.173832 0.000000 -0.000722 -0.173618 0.000000 -0.000481 -0.173464 0.000000 -0.000241 -0.173373 0.000000 