# vtk DataFile Version 2.0
Comment goes here
ASCII

DATASET STRUCTURED_POINTS
FIELD FieldData 1
TIME 1 1 double
0.03000000
DIMENSIONS    256   256   1

ORIGIN    0.000   0.000   0.000
SPACING   0.0039062 0.0039062   1.000

POINT_DATA   65536
VECTORS u double

0.000000 -0.235069 0.000000 0.000545 -0.235112 0.000000 0.001091 -0.235237 0.000000 0.001636 -0.235448 0.000000 0.002181 -0.235741 0.000000 0.002725 -0.236119 0.000000 0.003270 -0.236580 0.000000 0.003813 -0.237125 0.000000 0.004357 -0.237753 0.000000 0.004899 -0.238465 0.000000 0.005441 -0.239259 0.000000 0.005982 -0.240136 0.000000 0.006522 -0.241095 0.000000 0.007061 -0.242136 0.000000 0.007599 -0.243258 0.000000 0.008135 -0.244463 0.000000 0.008670 -0.245747 0.000000 0.009204 -0.247113 0.000000 0.009736 -0.248557 0.000000 0.010266 -0.250082 0.000000 0.010795 -0.251684 0.000000 0.011321 -0.253366 0.000000 0.011845 -0.255124 0.000000 0.012367 -0.256960 0.000000 0.012886 -0.258871 0.000000 0.013402 -0.260859 0.000000 0.013916 -0.262921 0.000000 0.014426 -0.265057 0.000000 0.014933 -0.267266 0.000000 0.015437 -0.269547 0.000000 0.015936 -0.271899 0.000000 0.016432 -0.274323 0.000000 0.016924 -0.276814 0.000000 0.017411 -0.279375 0.000000 0.017893 -0.282002 0.000000 0.018370 -0.284696 0.000000 0.018842 -0.287455 0.000000 0.019309 -0.290277 0.000000 0.019769 -0.293162 0.000000 0.020224 -0.296108 0.000000 0.020671 -0.299114 0.000000 0.021112 -0.302179 0.000000 0.021546 -0.305300 0.000000 0.021973 -0.308478 0.000000 0.022392 -0.311709 0.000000 0.022802 -0.314994 0.000000 0.023204 -0.318328 0.000000 0.023597 -0.321713 0.000000 0.023980 -0.325145 0.000000 0.024354 -0.328624 0.000000 0.024718 -0.332146 0.000000 0.025071 -0.335711 0.000000 0.025414 -0.339317 0.000000 0.025745 -0.342961 0.000000 0.026065 -0.346642 0.000000 0.026372 -0.350358 0.000000 0.026667 -0.354107 0.000000 0.026949 -0.357886 0.000000 0.027217 -0.361694 0.000000 0.027472 -0.365529 0.000000 0.027712 -0.369388 0.000000 0.027938 -0.373269 0.000000 0.028148 -0.377171 0.000000 0.028344 -0.381089 0.000000 0.028523 -0.385023 0.000000 0.028686 -0.388971 0.000000 0.028832 -0.392928 0.000000 0.028961 -0.396894 0.000000 0.029072 -0.400866 0.000000 0.029166 -0.404841 0.000000 0.029241 -0.408817 0.000000 0.029298 -0.412792 0.000000 0.029336 -0.416762 0.000000 0.029354 -0.420725 0.000000 0.029353 -0.424680 0.000000 0.029331 -0.428622 0.000000 0.029290 -0.432550 0.000000 0.029227 -0.436460 0.000000 0.029144 -0.440352 0.000000 0.029040 -0.444220 0.000000 0.028915 -0.448064 0.000000 0.028768 -0.451880 0.000000 0.028599 -0.455667 0.000000 0.028409 -0.459420 0.000000 0.028196 -0.463138 0.000000 0.027962 -0.466817 0.000000 0.027705 -0.470457 0.000000 0.027426 -0.474052 0.000000 0.027124 -0.477602 0.000000 0.026801 -0.481103 0.000000 0.026455 -0.484553 0.000000 0.026087 -0.487950 0.000000 0.025696 -0.491291 0.000000 0.025284 -0.494572 0.000000 0.024849 -0.497793 0.000000 0.024393 -0.500950 0.000000 0.023916 -0.504042 0.000000 0.023417 -0.507065 0.000000 0.022897 -0.510018 0.000000 0.022356 -0.512898 0.000000 0.021795 -0.515703 0.000000 0.021213 -0.518431 0.000000 0.020612 -0.521080 0.000000 0.019992 -0.523646 0.000000 0.019353 -0.526130 0.000000 0.018695 -0.528528 0.000000 0.018020 -0.530839 0.000000 0.017327 -0.533060 0.000000 0.016617 -0.535191 0.000000 0.015892 -0.537229 0.000000 0.015151 -0.539173 0.000000 0.014395 -0.541021 0.000000 0.013624 -0.542772 0.000000 0.012840 -0.544423 0.000000 0.012044 -0.545976 0.000000 0.011235 -0.547425 0.000000 0.010415 -0.548774 0.000000 0.009585 -0.550017 0.000000 0.008745 -0.551157 0.000000 0.007896 -0.552190 0.000000 0.007039 -0.553118 0.000000 0.006175 -0.553938 0.000000 0.005305 -0.554650 0.000000 0.004429 -0.555253 0.000000 0.003549 -0.555748 0.000000 0.002665 -0.556133 0.000000 0.001778 -0.556409 0.000000 0.000889 -0.556573 0.000000 0.000000 -0.556629 0.000000 -0.000889 -0.556573 0.000000 -0.001778 -0.556409 0.000000 -0.002665 -0.556133 0.000000 -0.003549 -0.555748 0.000000 -0.004429 -0.555253 0.000000 -0.005305 -0.554650 0.000000 -0.006175 -0.553938 0.000000 -0.007039 -0.553118 0.000000 -0.007896 -0.552190 0.000000 -0.008745 -0.551157 0.000000 -0.009585 -0.550017 0.000000 -0.010415 -0.548774 0.000000 -0.011235 -0.547425 0.000000 -0.012044 -0.545976 0.000000 -0.012840 -0.544423 0.000000 -0.013624 -0.542772 0.000000 -0.014395 -0.541021 0.000000 -0.015151 -0.539173 0.000000 -0.015892 -0.537229 0.000000 -0.016617 -0.535191 0.000000 -0.017327 -0.533060 0.000000 -0.018020 -0.530839 0.000000 -0.018695 -0.528528 0.000000 -0.019353 -0.526130 0.000000 -0.019992 -0.523646 0.000000 -0.020612 -0.521080 0.000000 -0.021213 -0.518431 0.000000 -0.021795 -0.515703 0.000000 -0.022356 -0.512898 0.000000 -0.022897 -0.510018 0.000000 -0.023417 -0.507065 0.000000 -0.023916 -0.504042 0.000000 -0.024393 -0.500950 0.000000 -0.024849 -0.497793 0.000000 -0.025284 -0.494572 0.000000 -0.025696 -0.491291 0.000000 -0.026087 -0.487950 0.000000 -0.026455 -0.484553 0.000000 -0.026801 -0.481103 0.000000 -0.027124 -0.477602 0.000000 -0.027426 -0.474052 0.000000 -0.027705 -0.470457 0.000000 -0.027962 -0.466817 0.000000 -0.028196 -0.463138 0.000000 -0.028409 -0.459420 0.000000 -0.028599 -0.455667 0.000000 -0.028768 -0.451880 0.000000 -0.028915 -0.448064 0.000000 -0.029040 -0.444220 0.000000 -0.029144 -0.440352 0.000000 -0.029227 -0.436460 0.000000 -0.029290 -0.432550 0.000000 -0.029331 -0.428622 0.000000 -0.029353 -0.424680 0.000000 -0.029354 -0.420725 0.000000 -0.029336 -0.416762 0.000000 -0.029298 -0.412792 0.000000 -0.029241 -0.408817 0.000000 -0.029166 -0.404841 0.000000 -0.029072 -0.400866 0.000000 -0.028961 -0.396894 0.000000 -0.028832 -0.392928 0.000000 -0.028686 -0.388971 0.000000 -0.028523 -0.385023 0.000000 -0.028344 -0.381089 0.000000 -0.028148 -0.377171 0.000000 -0.027938 -0.373269 0.000000 -0.027712 -0.369388 0.000000 -0.027472 -0.365529 0.000000 -0.027217 -0.361694 0.000000 -0.026949 -0.357886 0.000000 -0.026667 -0.354107 0.000000 -0.026372 -0.350358 0.000000 -0.026065 -0.346642 0.000000 -0.025745 -0.342961 0.000000 -0.025414 -0.339317 0.000000 -0.025071 -0.335711 0.000000 -0.024718 -0.332146 0.000000 -0.024354 -0.328624 0.000000 -0.023980 -0.325145 0.000000 -0.023597 -0.321713 0.000000 -0.023204 -0.318328 0.000000 -0.022802 -0.314994 0.000000 -0.022392 -0.311709 0.000000 -0.021973 -0.308478 0.000000 -0.021546 -0.305300 0.000000 -0.021112 -0.302179 0.000000 -0.020671 -0.299114 0.000000 -0.020224 -0.296108 0.000000 -0.019769 -0.293162 0.000000 -0.019309 -0.290277 0.000000 -0.018842 -0.287455 0.000000 -0.018370 -0.284696 0.000000 -0.017893 -0.282002 0.000000 -0.017411 -0.279375 0.000000 -0.016924 -0.276814 0.000000 -0.016432 -0.274323 0.000000 -0.015936 -0.271899 0.000000 -0.015437 -0.269547 0.000000 -0.014933 -0.267266 0.000000 -0.014426 -0.265057 0.000000 -0.013916 -0.262921 0.000000 -0.013402 -0.260859 0.000000 -0.012886 -0.258871 0.000000 -0.012367 -0.256960 0.000000 -0.011845 -0.255124 0.000000 -0.011321 -0.253366 0.000000 -0.010795 -0.251684 0.000000 -0.010266 -0.250082 0.000000 -0.009736 -0.248557 0.000000 -0.009204 -0.247113 0.000000 -0.008670 -0.245747 0.000000 -0.008135 -0.244463 0.000000 -0.007599 -0.243258 0.000000 -0.007061 -0.242136 0.000000 -0.006522 -0.241095 0.000000 -0.005982 -0.240136 0.000000 -0.005441 -0.239259 0.000000 -0.004899 -0.238465 0.000000 -0.004357 -0.237753 0.000000 -0.003813 -0.237125 0.000000 -0.003270 -0.236580 0.000000 -0.002725 -0.236119 0.000000 -0.002181 -0.235741 0.000000 -0.001636 -0.235448 0.000000 -0.001091 -0.235237 0.000000 -0.000545 -0.235112 0.000000 
0.000000 -0.235573 0.000000 0.000461 -0.235615 0.000000 0.000923 -0.235741 0.000000 0.001384 -0.235951 0.000000 0.001845 -0.236244 0.000000 0.002306 -0.236622 0.000000 0.002767 -0.237082 0.000000 0.003227 -0.237628 0.000000 0.003687 -0.238255 0.000000 0.004147 -0.238966 0.000000 0.004606 -0.239759 0.000000 0.005065 -0.240636 0.000000 0.005522 -0.241593 0.000000 0.005980 -0.242634 0.000000 0.006436 -0.243755 0.000000 0.006892 -0.244959 0.000000 0.007347 -0.246242 0.000000 0.007800 -0.247606 0.000000 0.008253 -0.249049 0.000000 0.008704 -0.250572 0.000000 0.009154 -0.252173 0.000000 0.009602 -0.253853 0.000000 0.010049 -0.255609 0.000000 0.010495 -0.257443 0.000000 0.010938 -0.259352 0.000000 0.011379 -0.261337 0.000000 0.011819 -0.263396 0.000000 0.012256 -0.265530 0.000000 0.012690 -0.267735 0.000000 0.013122 -0.270014 0.000000 0.013551 -0.272362 0.000000 0.013977 -0.274782 0.000000 0.014400 -0.277270 0.000000 0.014819 -0.279826 0.000000 0.015235 -0.282449 0.000000 0.015647 -0.285139 0.000000 0.016055 -0.287892 0.000000 0.016458 -0.290710 0.000000 0.016857 -0.293589 0.000000 0.017251 -0.296530 0.000000 0.017640 -0.299530 0.000000 0.018023 -0.302588 0.000000 0.018401 -0.305703 0.000000 0.018773 -0.308874 0.000000 0.019138 -0.312098 0.000000 0.019497 -0.315375 0.000000 0.019849 -0.318701 0.000000 0.020193 -0.322078 0.000000 0.020530 -0.325501 0.000000 0.020859 -0.328971 0.000000 0.021180 -0.332484 0.000000 0.021492 -0.336039 0.000000 0.021795 -0.339634 0.000000 0.022089 -0.343268 0.000000 0.022373 -0.346938 0.000000 0.022646 -0.350643 0.000000 0.022910 -0.354380 0.000000 0.023162 -0.358147 0.000000 0.023403 -0.361943 0.000000 0.023632 -0.365765 0.000000 0.023850 -0.369610 0.000000 0.024055 -0.373478 0.000000 0.024247 -0.377365 0.000000 0.024426 -0.381269 0.000000 0.024591 -0.385188 0.000000 0.024742 -0.389120 0.000000 0.024879 -0.393062 0.000000 0.025001 -0.397012 0.000000 0.025109 -0.400967 0.000000 0.025200 -0.404925 0.000000 0.025276 -0.408884 0.000000 0.025336 -0.412841 0.000000 0.025379 -0.416793 0.000000 0.025406 -0.420738 0.000000 0.025415 -0.424674 0.000000 0.025407 -0.428597 0.000000 0.025381 -0.432506 0.000000 0.025338 -0.436398 0.000000 0.025276 -0.440269 0.000000 0.025195 -0.444118 0.000000 0.025096 -0.447942 0.000000 0.024978 -0.451738 0.000000 0.024841 -0.455504 0.000000 0.024685 -0.459236 0.000000 0.024509 -0.462933 0.000000 0.024314 -0.466592 0.000000 0.024099 -0.470210 0.000000 0.023865 -0.473785 0.000000 0.023611 -0.477314 0.000000 0.023337 -0.480793 0.000000 0.023043 -0.484223 0.000000 0.022730 -0.487598 0.000000 0.022397 -0.490918 0.000000 0.022044 -0.494179 0.000000 0.021672 -0.497380 0.000000 0.021280 -0.500516 0.000000 0.020870 -0.503588 0.000000 0.020440 -0.506591 0.000000 0.019991 -0.509524 0.000000 0.019524 -0.512384 0.000000 0.019039 -0.515170 0.000000 0.018536 -0.517879 0.000000 0.018015 -0.520509 0.000000 0.017477 -0.523057 0.000000 0.016921 -0.525524 0.000000 0.016350 -0.527904 0.000000 0.015763 -0.530199 0.000000 0.015160 -0.532404 0.000000 0.014541 -0.534520 0.000000 0.013909 -0.536542 0.000000 0.013263 -0.538472 0.000000 0.012603 -0.540306 0.000000 0.011930 -0.542044 0.000000 0.011245 -0.543683 0.000000 0.010549 -0.545223 0.000000 0.009842 -0.546662 0.000000 0.009125 -0.548000 0.000000 0.008398 -0.549234 0.000000 0.007663 -0.550365 0.000000 0.006920 -0.551390 0.000000 0.006169 -0.552311 0.000000 0.005412 -0.553124 0.000000 0.004650 -0.553831 0.000000 0.003882 -0.554429 0.000000 0.003111 -0.554920 0.000000 0.002336 -0.555302 0.000000 0.001559 -0.555575 0.000000 0.000780 -0.555738 0.000000 0.000000 -0.555794 0.000000 -0.000780 -0.555738 0.000000 -0.001559 -0.555575 0.000000 -0.002336 -0.555302 0.000000 -0.003111 -0.554920 0.000000 -0.003882 -0.554429 0.000000 -0.004650 -0.553831 0.000000 -0.005412 -0.553124 0.000000 -0.006169 -0.552311 0.000000 -0.006920 -0.551390 0.000000 -0.007663 -0.550365 0.000000 -0.008398 -0.549234 0.000000 -0.009125 -0.548000 0.000000 -0.009842 -0.546662 0.000000 -0.010549 -0.545223 0.000000 -0.011245 -0.543683 0.000000 -0.011930 -0.542044 0.000000 -0.012603 -0.540306 0.000000 -0.013263 -0.538472 0.000000 -0.013909 -0.536542 0.000000 -0.014541 -0.534520 0.000000 -0.015160 -0.532404 0.000000 -0.015763 -0.530199 0.000000 -0.016350 -0.527904 0.000000 -0.016921 -0.525524 0.000000 -0.017477 -0.523057 0.000000 -0.018015 -0.520509 0.000000 -0.018536 -0.517879 0.000000 -0.019039 -0.515170 0.000000 -0.019524 -0.512384 0.000000 -0.019991 -0.509524 0.000000 -0.020440 -0.506591 0.000000 -0.020870 -0.503588 0.000000 -0.021280 -0.500516 0.000000 -0.021672 -0.497380 0.000000 -0.022044 -0.494179 0.000000 -0.022397 -0.490918 0.000000 -0.022730 -0.487598 0.000000 -0.023043 -0.484223 0.000000 -0.023337 -0.480793 0.000000 -0.023611 -0.477314 0.000000 -0.023865 -0.473785 0.000000 -0.024099 -0.470210 0.000000 -0.024314 -0.466592 0.000000 -0.024509 -0.462933 0.000000 -0.024685 -0.459236 0.000000 -0.024841 -0.455504 0.000000 -0.024978 -0.451738 0.000000 -0.025096 -0.447942 0.000000 -0.025195 -0.444118 0.000000 -0.025276 -0.440269 0.000000 -0.025338 -0.436398 0.000000 -0.025381 -0.432506 0.000000 -0.025407 -0.428597 0.000000 -0.025415 -0.424674 0.000000 -0.025406 -0.420738 0.000000 -0.025379 -0.416793 0.000000 -0.025336 -0.412841 0.000000 -0.025276 -0.408884 0.000000 -0.025200 -0.404925 0.000000 -0.025109 -0.400967 0.000000 -0.025001 -0.397012 0.000000 -0.024879 -0.393062 0.000000 -0.024742 -0.389120 0.000000 -0.024591 -0.385188 0.000000 -0.024426 -0.381269 0.000000 -0.024247 -0.377365 0.000000 -0.024055 -0.373478 0.000000 -0.023850 -0.369610 0.000000 -0.023632 -0.365765 0.000000 -0.023403 -0.361943 0.000000 -0.023162 -0.358147 0.000000 -0.022910 -0.354380 0.000000 -0.022646 -0.350643 0.000000 -0.022373 -0.346938 0.000000 -0.022089 -0.343268 0.000000 -0.021795 -0.339634 0.000000 -0.021492 -0.336039 0.000000 -0.021180 -0.332484 0.000000 -0.020859 -0.328971 0.000000 -0.020530 -0.325501 0.000000 -0.020193 -0.322078 0.000000 -0.019849 -0.318701 0.000000 -0.019497 -0.315375 0.000000 -0.019138 -0.312098 0.000000 -0.018773 -0.308874 0.000000 -0.018401 -0.305703 0.000000 -0.018023 -0.302588 0.000000 -0.017640 -0.299530 0.000000 -0.017251 -0.296530 0.000000 -0.016857 -0.293589 0.000000 -0.016458 -0.290710 0.000000 -0.016055 -0.287892 0.000000 -0.015647 -0.285139 0.000000 -0.015235 -0.282449 0.000000 -0.014819 -0.279826 0.000000 -0.014400 -0.277270 0.000000 -0.013977 -0.274782 0.000000 -0.013551 -0.272362 0.000000 -0.013122 -0.270014 0.000000 -0.012690 -0.267735 0.000000 -0.012256 -0.265530 0.000000 -0.011819 -0.263396 0.000000 -0.011379 -0.261337 0.000000 -0.010938 -0.259352 0.000000 -0.010495 -0.257443 0.000000 -0.010049 -0.255609 0.000000 -0.009602 -0.253853 0.000000 -0.009154 -0.252173 0.000000 -0.008704 -0.250572 0.000000 -0.008253 -0.249049 0.000000 -0.007800 -0.247606 0.000000 -0.007347 -0.246242 0.000000 -0.006892 -0.244959 0.000000 -0.006436 -0.243755 0.000000 -0.005980 -0.242634 0.000000 -0.005522 -0.241593 0.000000 -0.005065 -0.240636 0.000000 -0.004606 -0.239759 0.000000 -0.004147 -0.238966 0.000000 -0.003687 -0.238255 0.000000 -0.003227 -0.237628 0.000000 -0.002767 -0.237082 0.000000 -0.002306 -0.236622 0.000000 -0.001845 -0.236244 0.000000 -0.001384 -0.235951 0.000000 -0.000923 -0.235741 0.000000 -0.000461 -0.235615 0.000000 
0.000000 -0.235992 0.000000 0.000377 -0.236034 0.000000 0.000755 -0.236160 0.000000 0.001132 -0.236370 0.000000 0.001510 -0.236663 0.000000 0.001887 -0.237041 0.000000 0.002264 -0.237501 0.000000 0.002641 -0.238046 0.000000 0.003018 -0.238673 0.000000 0.003395 -0.239384 0.000000 0.003771 -0.240176 0.000000 0.004148 -0.241053 0.000000 0.004523 -0.242010 0.000000 0.004899 -0.243050 0.000000 0.005274 -0.244170 0.000000 0.005649 -0.245373 0.000000 0.006023 -0.246655 0.000000 0.006397 -0.248019 0.000000 0.006770 -0.249461 0.000000 0.007142 -0.250983 0.000000 0.007514 -0.252583 0.000000 0.007885 -0.254261 0.000000 0.008255 -0.256016 0.000000 0.008624 -0.257849 0.000000 0.008992 -0.259756 0.000000 0.009358 -0.261740 0.000000 0.009723 -0.263797 0.000000 0.010087 -0.265929 0.000000 0.010449 -0.268132 0.000000 0.010810 -0.270408 0.000000 0.011168 -0.272754 0.000000 0.011525 -0.275171 0.000000 0.011879 -0.277656 0.000000 0.012231 -0.280210 0.000000 0.012581 -0.282830 0.000000 0.012927 -0.285516 0.000000 0.013271 -0.288266 0.000000 0.013612 -0.291080 0.000000 0.013949 -0.293955 0.000000 0.014283 -0.296891 0.000000 0.014613 -0.299886 0.000000 0.014939 -0.302940 0.000000 0.015261 -0.306050 0.000000 0.015578 -0.309215 0.000000 0.015891 -0.312433 0.000000 0.016198 -0.315704 0.000000 0.016500 -0.319025 0.000000 0.016797 -0.322395 0.000000 0.017087 -0.325811 0.000000 0.017372 -0.329274 0.000000 0.017650 -0.332779 0.000000 0.017921 -0.336326 0.000000 0.018185 -0.339913 0.000000 0.018441 -0.343539 0.000000 0.018690 -0.347200 0.000000 0.018930 -0.350895 0.000000 0.019162 -0.354622 0.000000 0.019386 -0.358380 0.000000 0.019600 -0.362165 0.000000 0.019804 -0.365976 0.000000 0.019999 -0.369810 0.000000 0.020183 -0.373666 0.000000 0.020357 -0.377541 0.000000 0.020520 -0.381433 0.000000 0.020672 -0.385340 0.000000 0.020812 -0.389259 0.000000 0.020940 -0.393188 0.000000 0.021056 -0.397124 0.000000 0.021159 -0.401065 0.000000 0.021249 -0.405009 0.000000 0.021326 -0.408953 0.000000 0.021389 -0.412895 0.000000 0.021438 -0.416832 0.000000 0.021473 -0.420761 0.000000 0.021494 -0.424681 0.000000 0.021499 -0.428588 0.000000 0.021489 -0.432480 0.000000 0.021465 -0.436355 0.000000 0.021424 -0.440209 0.000000 0.021368 -0.444041 0.000000 0.021295 -0.447847 0.000000 0.021206 -0.451626 0.000000 0.021101 -0.455374 0.000000 0.020979 -0.459088 0.000000 0.020840 -0.462767 0.000000 0.020685 -0.466407 0.000000 0.020512 -0.470007 0.000000 0.020323 -0.473563 0.000000 0.020116 -0.477074 0.000000 0.019891 -0.480535 0.000000 0.019650 -0.483946 0.000000 0.019391 -0.487303 0.000000 0.019116 -0.490605 0.000000 0.018823 -0.493847 0.000000 0.018512 -0.497030 0.000000 0.018185 -0.500148 0.000000 0.017841 -0.503202 0.000000 0.017481 -0.506187 0.000000 0.017103 -0.509103 0.000000 0.016710 -0.511945 0.000000 0.016300 -0.514715 0.000000 0.015874 -0.517406 0.000000 0.015433 -0.520020 0.000000 0.014977 -0.522553 0.000000 0.014506 -0.525004 0.000000 0.014020 -0.527369 0.000000 0.013520 -0.529649 0.000000 0.013006 -0.531839 0.000000 0.012479 -0.533941 0.000000 0.011939 -0.535950 0.000000 0.011387 -0.537867 0.000000 0.010823 -0.539688 0.000000 0.010247 -0.541415 0.000000 0.009661 -0.543042 0.000000 0.009065 -0.544572 0.000000 0.008459 -0.546001 0.000000 0.007843 -0.547330 0.000000 0.007220 -0.548555 0.000000 0.006589 -0.549679 0.000000 0.005950 -0.550697 0.000000 0.005306 -0.551611 0.000000 0.004655 -0.552418 0.000000 0.004000 -0.553120 0.000000 0.003340 -0.553714 0.000000 0.002676 -0.554202 0.000000 0.002010 -0.554580 0.000000 0.001341 -0.554852 0.000000 0.000671 -0.555014 0.000000 0.000000 -0.555069 0.000000 -0.000671 -0.555014 0.000000 -0.001341 -0.554852 0.000000 -0.002010 -0.554580 0.000000 -0.002676 -0.554202 0.000000 -0.003340 -0.553714 0.000000 -0.004000 -0.553120 0.000000 -0.004655 -0.552418 0.000000 -0.005306 -0.551611 0.000000 -0.005950 -0.550697 0.000000 -0.006589 -0.549679 0.000000 -0.007220 -0.548555 0.000000 -0.007843 -0.547330 0.000000 -0.008459 -0.546001 0.000000 -0.009065 -0.544572 0.000000 -0.009661 -0.543042 0.000000 -0.010247 -0.541415 0.000000 -0.010823 -0.539688 0.000000 -0.011387 -0.537867 0.000000 -0.011939 -0.535950 0.000000 -0.012479 -0.533941 0.000000 -0.013006 -0.531839 0.000000 -0.013520 -0.529649 0.000000 -0.014020 -0.527369 0.000000 -0.014506 -0.525004 0.000000 -0.014977 -0.522553 0.000000 -0.015433 -0.520020 0.000000 -0.015874 -0.517406 0.000000 -0.016300 -0.514715 0.000000 -0.016710 -0.511945 0.000000 -0.017103 -0.509103 0.000000 -0.017481 -0.506187 0.000000 -0.017841 -0.503202 0.000000 -0.018185 -0.500148 0.000000 -0.018512 -0.497030 0.000000 -0.018823 -0.493847 0.000000 -0.019116 -0.490605 0.000000 -0.019391 -0.487303 0.000000 -0.019650 -0.483946 0.000000 -0.019891 -0.480535 0.000000 -0.020116 -0.477074 0.000000 -0.020323 -0.473563 0.000000 -0.020512 -0.470007 0.000000 -0.020685 -0.466407 0.000000 -0.020840 -0.462767 0.000000 -0.020979 -0.459088 0.000000 -0.021101 -0.455374 0.000000 -0.021206 -0.451626 0.000000 -0.021295 -0.447847 0.000000 -0.021368 -0.444041 0.000000 -0.021424 -0.440209 0.000000 -0.021465 -0.436355 0.000000 -0.021489 -0.432480 0.000000 -0.021499 -0.428588 0.000000 -0.021494 -0.424681 0.000000 -0.021473 -0.420761 0.000000 -0.021438 -0.416832 0.000000 -0.021389 -0.412895 0.000000 -0.021326 -0.408953 0.000000 -0.021249 -0.405009 0.000000 -0.021159 -0.401065 0.000000 -0.021056 -0.397124 0.000000 -0.020940 -0.393188 0.000000 -0.020812 -0.389259 0.000000 -0.020672 -0.385340 0.000000 -0.020520 -0.381433 0.000000 -0.020357 -0.377541 0.000000 -0.020183 -0.373666 0.000000 -0.019999 -0.369810 0.000000 -0.019804 -0.365976 0.000000 -0.019600 -0.362165 0.000000 -0.019386 -0.358380 0.000000 -0.019162 -0.354622 0.000000 -0.018930 -0.350895 0.000000 -0.018690 -0.347200 0.000000 -0.018441 -0.343539 0.000000 -0.018185 -0.339913 0.000000 -0.017921 -0.336326 0.000000 -0.017650 -0.332779 0.000000 -0.017372 -0.329274 0.000000 -0.017087 -0.325811 0.000000 -0.016797 -0.322395 0.000000 -0.016500 -0.319025 0.000000 -0.016198 -0.315704 0.000000 -0.015891 -0.312433 0.000000 -0.015578 -0.309215 0.000000 -0.015261 -0.306050 0.000000 -0.014939 -0.302940 0.000000 -0.014613 -0.299886 0.000000 -0.014283 -0.296891 0.000000 -0.013949 -0.293955 0.000000 -0.013612 -0.291080 0.000000 -0.013271 -0.288266 0.000000 -0.012927 -0.285516 0.000000 -0.012581 -0.282830 0.000000 -0.012231 -0.280210 0.000000 -0.011879 -0.277656 0.000000 -0.011525 -0.275171 0.000000 -0.011168 -0.272754 0.000000 -0.010810 -0.270408 0.000000 -0.010449 -0.268132 0.000000 -0.010087 -0.265929 0.000000 -0.009723 -0.263797 0.000000 -0.009358 -0.261740 0.000000 -0.008992 -0.259756 0.000000 -0.008624 -0.257849 0.000000 -0.008255 -0.256016 0.000000 -0.007885 -0.254261 0.000000 -0.007514 -0.252583 0.000000 -0.007142 -0.250983 0.000000 -0.006770 -0.249461 0.000000 -0.006397 -0.248019 0.000000 -0.006023 -0.246655 0.000000 -0.005649 -0.245373 0.000000 -0.005274 -0.244170 0.000000 -0.004899 -0.243050 0.000000 -0.004523 -0.242010 0.000000 -0.004148 -0.241053 0.000000 -0.003771 -0.240176 0.000000 -0.003395 -0.239384 0.000000 -0.003018 -0.238673 0.000000 -0.002641 -0.238046 0.000000 -0.002264 -0.237501 0.000000 -0.001887 -0.237041 0.000000 -0.001510 -0.236663 0.000000 -0.001132 -0.236370 0.000000 -0.000755 -0.236160 0.000000 -0.000377 -0.236034 0.000000 
0.000000 -0.236328 0.000000 0.000294 -0.236370 0.000000 0.000587 -0.236495 0.000000 0.000881 -0.236706 0.000000 0.001174 -0.236999 0.000000 0.001468 -0.237377 0.000000 0.001762 -0.237837 0.000000 0.002056 -0.238382 0.000000 0.002349 -0.239008 0.000000 0.002643 -0.239719 0.000000 0.002937 -0.240512 0.000000 0.003231 -0.241388 0.000000 0.003525 -0.242345 0.000000 0.003819 -0.243385 0.000000 0.004113 -0.244505 0.000000 0.004407 -0.245708 0.000000 0.004701 -0.246990 0.000000 0.004995 -0.248353 0.000000 0.005289 -0.249794 0.000000 0.005582 -0.251316 0.000000 0.005876 -0.252915 0.000000 0.006169 -0.254593 0.000000 0.006462 -0.256348 0.000000 0.006755 -0.258180 0.000000 0.007047 -0.260086 0.000000 0.007339 -0.262069 0.000000 0.007630 -0.264125 0.000000 0.007921 -0.266256 0.000000 0.008211 -0.268458 0.000000 0.008500 -0.270733 0.000000 0.008788 -0.273077 0.000000 0.009075 -0.275493 0.000000 0.009361 -0.277976 0.000000 0.009646 -0.280528 0.000000 0.009929 -0.283145 0.000000 0.010211 -0.285829 0.000000 0.010491 -0.288577 0.000000 0.010769 -0.291388 0.000000 0.011046 -0.294260 0.000000 0.011320 -0.297194 0.000000 0.011591 -0.300186 0.000000 0.011860 -0.303236 0.000000 0.012126 -0.306342 0.000000 0.012389 -0.309504 0.000000 0.012649 -0.312718 0.000000 0.012906 -0.315984 0.000000 0.013158 -0.319300 0.000000 0.013407 -0.322665 0.000000 0.013652 -0.326076 0.000000 0.013892 -0.329533 0.000000 0.014127 -0.333033 0.000000 0.014358 -0.336574 0.000000 0.014583 -0.340155 0.000000 0.014802 -0.343774 0.000000 0.015016 -0.347428 0.000000 0.015224 -0.351116 0.000000 0.015425 -0.354835 0.000000 0.015619 -0.358585 0.000000 0.015807 -0.362362 0.000000 0.015987 -0.366164 0.000000 0.016159 -0.369989 0.000000 0.016324 -0.373836 0.000000 0.016480 -0.377702 0.000000 0.016627 -0.381584 0.000000 0.016766 -0.385480 0.000000 0.016895 -0.389388 0.000000 0.017014 -0.393306 0.000000 0.017124 -0.397231 0.000000 0.017223 -0.401160 0.000000 0.017312 -0.405092 0.000000 0.017390 -0.409024 0.000000 0.017457 -0.412953 0.000000 0.017513 -0.416877 0.000000 0.017556 -0.420794 0.000000 0.017588 -0.424700 0.000000 0.017608 -0.428593 0.000000 0.017614 -0.432472 0.000000 0.017609 -0.436332 0.000000 0.017590 -0.440172 0.000000 0.017557 -0.443989 0.000000 0.017512 -0.447781 0.000000 0.017452 -0.451544 0.000000 0.017379 -0.455277 0.000000 0.017291 -0.458975 0.000000 0.017190 -0.462639 0.000000 0.017074 -0.466264 0.000000 0.016944 -0.469848 0.000000 0.016799 -0.473388 0.000000 0.016639 -0.476883 0.000000 0.016465 -0.480328 0.000000 0.016275 -0.483723 0.000000 0.016072 -0.487064 0.000000 0.015853 -0.490349 0.000000 0.015619 -0.493576 0.000000 0.015371 -0.496742 0.000000 0.015108 -0.499845 0.000000 0.014831 -0.502883 0.000000 0.014539 -0.505853 0.000000 0.014233 -0.508753 0.000000 0.013912 -0.511581 0.000000 0.013578 -0.514335 0.000000 0.013230 -0.517012 0.000000 0.012868 -0.519612 0.000000 0.012493 -0.522130 0.000000 0.012106 -0.524567 0.000000 0.011705 -0.526919 0.000000 0.011292 -0.529185 0.000000 0.010867 -0.531363 0.000000 0.010431 -0.533453 0.000000 0.009983 -0.535450 0.000000 0.009524 -0.537356 0.000000 0.009055 -0.539166 0.000000 0.008576 -0.540882 0.000000 0.008088 -0.542500 0.000000 0.007590 -0.544021 0.000000 0.007085 -0.545441 0.000000 0.006571 -0.546761 0.000000 0.006050 -0.547979 0.000000 0.005522 -0.549096 0.000000 0.004988 -0.550107 0.000000 0.004448 -0.551016 0.000000 0.003903 -0.551818 0.000000 0.003354 -0.552515 0.000000 0.002801 -0.553106 0.000000 0.002244 -0.553590 0.000000 0.001686 -0.553966 0.000000 0.001125 -0.554236 0.000000 0.000563 -0.554398 0.000000 0.000000 -0.554452 0.000000 -0.000563 -0.554398 0.000000 -0.001125 -0.554236 0.000000 -0.001686 -0.553966 0.000000 -0.002244 -0.553590 0.000000 -0.002801 -0.553106 0.000000 -0.003354 -0.552515 0.000000 -0.003903 -0.551818 0.000000 -0.004448 -0.551016 0.000000 -0.004988 -0.550107 0.000000 -0.005522 -0.549096 0.000000 -0.006050 -0.547979 0.000000 -0.006571 -0.546761 0.000000 -0.007085 -0.545441 0.000000 -0.007590 -0.544021 0.000000 -0.008088 -0.542500 0.000000 -0.008576 -0.540882 0.000000 -0.009055 -0.539166 0.000000 -0.009524 -0.537356 0.000000 -0.009983 -0.535450 0.000000 -0.010431 -0.533453 0.000000 -0.010867 -0.531363 0.000000 -0.011292 -0.529185 0.000000 -0.011705 -0.526919 0.000000 -0.012106 -0.524567 0.000000 -0.012493 -0.522130 0.000000 -0.012868 -0.519612 0.000000 -0.013230 -0.517012 0.000000 -0.013578 -0.514335 0.000000 -0.013912 -0.511581 0.000000 -0.014233 -0.508753 0.000000 -0.014539 -0.505853 0.000000 -0.014831 -0.502883 0.000000 -0.015108 -0.499845 0.000000 -0.015371 -0.496742 0.000000 -0.015619 -0.493576 0.000000 -0.015853 -0.490349 0.000000 -0.016072 -0.487064 0.000000 -0.016275 -0.483723 0.000000 -0.016465 -0.480328 0.000000 -0.016639 -0.476883 0.000000 -0.016799 -0.473388 0.000000 -0.016944 -0.469848 0.000000 -0.017074 -0.466264 0.000000 -0.017190 -0.462639 0.000000 -0.017291 -0.458975 0.000000 -0.017379 -0.455277 0.000000 -0.017452 -0.451544 0.000000 -0.017512 -0.447781 0.000000 -0.017557 -0.443989 0.000000 -0.017590 -0.440172 0.000000 -0.017609 -0.436332 0.000000 -0.017614 -0.432472 0.000000 -0.017608 -0.428593 0.000000 -0.017588 -0.424700 0.000000 -0.017556 -0.420794 0.000000 -0.017513 -0.416877 0.000000 -0.017457 -0.412953 0.000000 -0.017390 -0.409024 0.000000 -0.017312 -0.405092 0.000000 -0.017223 -0.401160 0.000000 -0.017124 -0.397231 0.000000 -0.017014 -0.393306 0.000000 -0.016895 -0.389388 0.000000 -0.016766 -0.385480 0.000000 -0.016627 -0.381584 0.000000 -0.016480 -0.377702 0.000000 -0.016324 -0.373836 0.000000 -0.016159 -0.369989 0.000000 -0.015987 -0.366164 0.000000 -0.015807 -0.362362 0.000000 -0.015619 -0.358585 0.000000 -0.015425 -0.354835 0.000000 -0.015224 -0.351116 0.000000 -0.015016 -0.347428 0.000000 -0.014802 -0.343774 0.000000 -0.014583 -0.340155 0.000000 -0.014358 -0.336574 0.000000 -0.014127 -0.333033 0.000000 -0.013892 -0.329533 0.000000 -0.013652 -0.326076 0.000000 -0.013407 -0.322665 0.000000 -0.013158 -0.319300 0.000000 -0.012906 -0.315984 0.000000 -0.012649 -0.312718 0.000000 -0.012389 -0.309504 0.000000 -0.012126 -0.306342 0.000000 -0.011860 -0.303236 0.000000 -0.011591 -0.300186 0.000000 -0.011320 -0.297194 0.000000 -0.011046 -0.294260 0.000000 -0.010769 -0.291388 0.000000 -0.010491 -0.288577 0.000000 -0.010211 -0.285829 0.000000 -0.009929 -0.283145 0.000000 -0.009646 -0.280528 0.000000 -0.009361 -0.277976 0.000000 -0.009075 -0.275493 0.000000 -0.008788 -0.273077 0.000000 -0.008500 -0.270733 0.000000 -0.008211 -0.268458 0.000000 -0.007921 -0.266256 0.000000 -0.007630 -0.264125 0.000000 -0.007339 -0.262069 0.000000 -0.007047 -0.260086 0.000000 -0.006755 -0.258180 0.000000 -0.006462 -0.256348 0.000000 -0.006169 -0.254593 0.000000 -0.005876 -0.252915 0.000000 -0.005582 -0.251316 0.000000 -0.005289 -0.249794 0.000000 -0.004995 -0.248353 0.000000 -0.004701 -0.246990 0.000000 -0.004407 -0.245708 0.000000 -0.004113 -0.244505 0.000000 -0.003819 -0.243385 0.000000 -0.003525 -0.242345 0.000000 -0.003231 -0.241388 0.000000 -0.002937 -0.240512 0.000000 -0.002643 -0.239719 0.000000 -0.002349 -0.239008 0.000000 -0.002056 -0.238382 0.000000 -0.001762 -0.237837 0.000000 -0.001468 -0.237377 0.000000 -0.001174 -0.236999 0.000000 -0.000881 -0.236706 0.000000 -0.000587 -0.236495 0.000000 -0.000294 -0.236370 0.000000 