# vtk DataFile Version 2.0
Comment goes here
ASCII

DATASET STRUCTURED_POINTS
FIELD FieldData 1
TIME 1 1 double
0.06000000
DIMENSIONS    256   256   1

ORIGIN    0.000   0.000   0.000
SPACING   0.0039062 0.0039062   1.000

POINT_DATA   65536
SCALARS uMag double
LOOKUP_TABLE default

3.459099e-01 3.459713e-01 3.461462e-01 3.464439e-01 3.468549e-01 3.473884e-01 3.480348e-01 3.488031e-01 3.496839e-01 3.506860e-01 3.517998e-01 3.530339e-01 3.543788e-01 3.558430e-01 3.574169e-01 3.591087e-01 3.609090e-01 3.628257e-01 3.648493e-01 3.669876e-01 3.692311e-01 3.715874e-01 3.740471e-01 3.766173e-01 3.792889e-01 3.820686e-01 3.849472e-01 3.879315e-01 3.910121e-01 3.941955e-01 3.974726e-01 4.008494e-01 4.043168e-01 4.078806e-01 4.115320e-01 4.152761e-01 4.191043e-01 4.230215e-01 4.270193e-01 4.311018e-01 4.352612e-01 4.395010e-01 4.438136e-01 4.482021e-01 4.526590e-01 4.571871e-01 4.617792e-01 4.664374e-01 4.711548e-01 4.759331e-01 4.807658e-01 4.856538e-01 4.905911e-01 4.955781e-01 5.006090e-01 5.056837e-01 5.107968e-01 5.159477e-01 5.211313e-01 5.263465e-01 5.315884e-01 5.368556e-01 5.421435e-01 5.474501e-01 5.527713e-01 5.581045e-01 5.634460e-01 5.687927e-01 5.741415e-01 5.794885e-01 5.848311e-01 5.901649e-01 5.954878e-01 6.007949e-01 6.060846e-01 6.113514e-01 6.165943e-01 6.218071e-01 6.269893e-01 6.321345e-01 6.372425e-01 6.423065e-01 6.473268e-01 6.522959e-01 6.572150e-01 6.620760e-01 6.668806e-01 6.716203e-01 6.762973e-01 6.809028e-01 6.854393e-01 6.898979e-01 6.942815e-01 6.985808e-01 7.027993e-01 7.069274e-01 7.109690e-01 7.149144e-01 7.187677e-01 7.225192e-01 7.261734e-01 7.297203e-01 7.331652e-01 7.364975e-01 7.397231e-01 7.428313e-01 7.458284e-01 7.487036e-01 7.514637e-01 7.540977e-01 7.566127e-01 7.589978e-01 7.612606e-01 7.633901e-01 7.653940e-01 7.672616e-01 7.690009e-01 7.706012e-01 7.720708e-01 7.733992e-01 7.745949e-01 7.756474e-01 7.765657e-01 7.773393e-01 7.779776e-01 7.784701e-01 7.788264e-01 7.790362e-01 7.791096e-01 7.790362e-01 7.788264e-01 7.784701e-01 7.779776e-01 7.773393e-01 7.765657e-01 7.756474e-01 7.745949e-01 7.733992e-01 7.720708e-01 7.706012e-01 7.690009e-01 7.672616e-01 7.653940e-01 7.633901e-01 7.612606e-01 7.589978e-01 7.566127e-01 7.540977e-01 7.514637e-01 7.487036e-01 7.458284e-01 7.428313e-01 7.397231e-01 7.364975e-01 7.331652e-01 7.297203e-01 7.261734e-01 7.225192e-01 7.187677e-01 7.149144e-01 7.109690e-01 7.069274e-01 7.027993e-01 6.985808e-01 6.942815e-01 6.898979e-01 6.854393e-01 6.809028e-01 6.762973e-01 6.716203e-01 6.668806e-01 6.620760e-01 6.572150e-01 6.522959e-01 6.473268e-01 6.423065e-01 6.372425e-01 6.321345e-01 6.269893e-01 6.218071e-01 6.165943e-01 6.113514e-01 6.060846e-01 6.007949e-01 5.954878e-01 5.901649e-01 5.848311e-01 5.794885e-01 5.741415e-01 5.687927e-01 5.634460e-01 5.581045e-01 5.527713e-01 5.474501e-01 5.421435e-01 5.368556e-01 5.315884e-01 5.263465e-01 5.211313e-01 5.159477e-01 5.107968e-01 5.056837e-01 5.006090e-01 4.955781e-01 4.905911e-01 4.856538e-01 4.807658e-01 4.759331e-01 4.711548e-01 4.664374e-01 4.617792e-01 4.571871e-01 4.526590e-01 4.482021e-01 4.438136e-01 4.395010e-01 4.352612e-01 4.311018e-01 4.270193e-01 4.230215e-01 4.191043e-01 4.152761e-01 4.115320e-01 4.078806e-01 4.043168e-01 4.008494e-01 3.974726e-01 3.941955e-01 3.910121e-01 3.879315e-01 3.849472e-01 3.820686e-01 3.792889e-01 3.766173e-01 3.740471e-01 3.715874e-01 3.692311e-01 3.669876e-01 3.648493e-01 3.628257e-01 3.609090e-01 3.591087e-01 3.574169e-01 3.558430e-01 3.543788e-01 3.530339e-01 3.517998e-01 3.506860e-01 3.496839e-01 3.488031e-01 3.480348e-01 3.473884e-01 3.468549e-01 3.464439e-01 3.461462e-01 3.459713e-01 
3.459644e-01 3.460258e-01 3.462007e-01 3.464983e-01 3.469092e-01 3.474426e-01 3.480889e-01 3.488571e-01 3.497377e-01 3.507396e-01 3.518531e-01 3.530871e-01 3.544317e-01 3.558956e-01 3.574692e-01 3.591607e-01 3.609606e-01 3.628769e-01 3.649001e-01 3.670380e-01 3.692811e-01 3.716369e-01 3.740961e-01 3.766658e-01 3.793368e-01 3.821159e-01 3.849940e-01 3.879776e-01 3.910577e-01 3.942404e-01 3.975168e-01 4.008928e-01 4.043596e-01 4.079226e-01 4.115732e-01 4.153164e-01 4.191438e-01 4.230601e-01 4.270570e-01 4.311386e-01 4.352969e-01 4.395358e-01 4.438473e-01 4.482347e-01 4.526906e-01 4.572175e-01 4.618084e-01 4.664654e-01 4.711815e-01 4.759586e-01 4.807899e-01 4.856766e-01 4.906124e-01 4.955979e-01 5.006273e-01 5.057005e-01 5.108120e-01 5.159613e-01 5.211432e-01 5.263567e-01 5.315969e-01 5.368622e-01 5.421483e-01 5.474530e-01 5.527723e-01 5.581035e-01 5.634430e-01 5.687876e-01 5.741343e-01 5.794791e-01 5.848196e-01 5.901511e-01 5.954718e-01 6.007767e-01 6.060640e-01 6.113285e-01 6.165689e-01 6.217793e-01 6.269591e-01 6.321018e-01 6.372073e-01 6.422687e-01 6.472865e-01 6.522531e-01 6.571696e-01 6.620280e-01 6.668300e-01 6.715671e-01 6.762415e-01 6.808444e-01 6.853783e-01 6.898343e-01 6.942153e-01 6.985121e-01 7.027281e-01 7.068536e-01 7.108928e-01 7.148356e-01 7.186866e-01 7.224356e-01 7.260875e-01 7.296321e-01 7.330746e-01 7.364047e-01 7.396281e-01 7.427342e-01 7.457293e-01 7.486026e-01 7.513606e-01 7.539928e-01 7.565060e-01 7.588895e-01 7.611507e-01 7.632786e-01 7.652811e-01 7.671473e-01 7.688854e-01 7.704844e-01 7.719530e-01 7.732804e-01 7.744752e-01 7.755269e-01 7.764446e-01 7.772176e-01 7.778554e-01 7.783475e-01 7.787035e-01 7.789132e-01 7.789865e-01 7.789132e-01 7.787035e-01 7.783475e-01 7.778554e-01 7.772176e-01 7.764446e-01 7.755269e-01 7.744752e-01 7.732804e-01 7.719530e-01 7.704844e-01 7.688854e-01 7.671473e-01 7.652811e-01 7.632786e-01 7.611507e-01 7.588895e-01 7.565060e-01 7.539928e-01 7.513606e-01 7.486026e-01 7.457293e-01 7.427342e-01 7.396281e-01 7.364047e-01 7.330746e-01 7.296321e-01 7.260875e-01 7.224356e-01 7.186866e-01 7.148356e-01 7.108928e-01 7.068536e-01 7.027281e-01 6.985121e-01 6.942153e-01 6.898343e-01 6.853783e-01 6.808444e-01 6.762415e-01 6.715671e-01 6.668300e-01 6.620280e-01 6.571696e-01 6.522531e-01 6.472865e-01 6.422687e-01 6.372073e-01 6.321018e-01 6.269591e-01 6.217793e-01 6.165689e-01 6.113285e-01 6.060640e-01 6.007767e-01 5.954718e-01 5.901511e-01 5.848196e-01 5.794791e-01 5.741343e-01 5.687876e-01 5.634430e-01 5.581035e-01 5.527723e-01 5.474530e-01 5.421483e-01 5.368622e-01 5.315969e-01 5.263567e-01 5.211432e-01 5.159613e-01 5.108120e-01 5.057005e-01 5.006273e-01 4.955979e-01 4.906124e-01 4.856766e-01 4.807899e-01 4.759586e-01 4.711815e-01 4.664654e-01 4.618084e-01 4.572175e-01 4.526906e-01 4.482347e-01 4.438473e-01 4.395358e-01 4.352969e-01 4.311386e-01 4.270570e-01 4.230601e-01 4.191438e-01 4.153164e-01 4.115732e-01 4.079226e-01 4.043596e-01 4.008928e-01 3.975168e-01 3.942404e-01 3.910577e-01 3.879776e-01 3.849940e-01 3.821159e-01 3.793368e-01 3.766658e-01 3.740961e-01 3.716369e-01 3.692811e-01 3.670380e-01 3.649001e-01 3.628769e-01 3.609606e-01 3.591607e-01 3.574692e-01 3.558956e-01 3.544317e-01 3.530871e-01 3.518531e-01 3.507396e-01 3.497377e-01 3.488571e-01 3.480889e-01 3.474426e-01 3.469092e-01 3.464983e-01 3.462007e-01 3.460258e-01 
3.459008e-01 3.459623e-01 3.461373e-01 3.464352e-01 3.468465e-01 3.473803e-01 3.480271e-01 3.487961e-01 3.496774e-01 3.506802e-01 3.517947e-01 3.530296e-01 3.543754e-01 3.558406e-01 3.574154e-01 3.591084e-01 3.609097e-01 3.628276e-01 3.648524e-01 3.669920e-01 3.692369e-01 3.715945e-01 3.740556e-01 3.766273e-01 3.793002e-01 3.820814e-01 3.849615e-01 3.879473e-01 3.910294e-01 3.942144e-01 3.974930e-01 4.008712e-01 4.043402e-01 4.079054e-01 4.115583e-01 4.153038e-01 4.191335e-01 4.230521e-01 4.270512e-01 4.311351e-01 4.352957e-01 4.395367e-01 4.438504e-01 4.482401e-01 4.526980e-01 4.572271e-01 4.618201e-01 4.664791e-01 4.711973e-01 4.759763e-01 4.808095e-01 4.856981e-01 4.906358e-01 4.956231e-01 5.006542e-01 5.057291e-01 5.108422e-01 5.159930e-01 5.211764e-01 5.263912e-01 5.316328e-01 5.368994e-01 5.421867e-01 5.474925e-01 5.528129e-01 5.581451e-01 5.634855e-01 5.688310e-01 5.741784e-01 5.795239e-01 5.848650e-01 5.901971e-01 5.955183e-01 6.008235e-01 6.061112e-01 6.113759e-01 6.166165e-01 6.218270e-01 6.270068e-01 6.321495e-01 6.372549e-01 6.423162e-01 6.473337e-01 6.523000e-01 6.572162e-01 6.620742e-01 6.668757e-01 6.716124e-01 6.762862e-01 6.808885e-01 6.854218e-01 6.898771e-01 6.942574e-01 6.985534e-01 7.027686e-01 7.068933e-01 7.109316e-01 7.148736e-01 7.187237e-01 7.224718e-01 7.261228e-01 7.296665e-01 7.331081e-01 7.364373e-01 7.396598e-01 7.427650e-01 7.457592e-01 7.486315e-01 7.513888e-01 7.540201e-01 7.565325e-01 7.589152e-01 7.611756e-01 7.633028e-01 7.653046e-01 7.671701e-01 7.689076e-01 7.705061e-01 7.719741e-01 7.733010e-01 7.744954e-01 7.755467e-01 7.764640e-01 7.772367e-01 7.778742e-01 7.783661e-01 7.787220e-01 7.789317e-01 7.790049e-01 7.789317e-01 7.787220e-01 7.783661e-01 7.778742e-01 7.772367e-01 7.764640e-01 7.755467e-01 7.744954e-01 7.733010e-01 7.719741e-01 7.705061e-01 7.689076e-01 7.671701e-01 7.653046e-01 7.633028e-01 7.611756e-01 7.589152e-01 7.565325e-01 7.540201e-01 7.513888e-01 7.486315e-01 7.457592e-01 7.427650e-01 7.396598e-01 7.364373e-01 7.331081e-01 7.296665e-01 7.261228e-01 7.224718e-01 7.187237e-01 7.148736e-01 7.109316e-01 7.068933e-01 7.027686e-01 6.985534e-01 6.942574e-01 6.898771e-01 6.854218e-01 6.808885e-01 6.762862e-01 6.716124e-01 6.668757e-01 6.620742e-01 6.572162e-01 6.523000e-01 6.473337e-01 6.423162e-01 6.372549e-01 6.321495e-01 6.270068e-01 6.218270e-01 6.166165e-01 6.113759e-01 6.061112e-01 6.008235e-01 5.955183e-01 5.901971e-01 5.848650e-01 5.795239e-01 5.741784e-01 5.688310e-01 5.634855e-01 5.581451e-01 5.528129e-01 5.474925e-01 5.421867e-01 5.368994e-01 5.316328e-01 5.263912e-01 5.211764e-01 5.159930e-01 5.108422e-01 5.057291e-01 5.006542e-01 4.956231e-01 4.906358e-01 4.856981e-01 4.808095e-01 4.759763e-01 4.711973e-01 4.664791e-01 4.618201e-01 4.572271e-01 4.526980e-01 4.482401e-01 4.438504e-01 4.395367e-01 4.352957e-01 4.311351e-01 4.270512e-01 4.230521e-01 4.191335e-01 4.153038e-01 4.115583e-01 4.079054e-01 4.043402e-01 4.008712e-01 3.974930e-01 3.942144e-01 3.910294e-01 3.879473e-01 3.849615e-01 3.820814e-01 3.793002e-01 3.766273e-01 3.740556e-01 3.715945e-01 3.692369e-01 3.669920e-01 3.648524e-01 3.628276e-01 3.609097e-01 3.591084e-01 3.574154e-01 3.558406e-01 3.543754e-01 3.530296e-01 3.517947e-01 3.506802e-01 3.496774e-01 3.487961e-01 3.480271e-01 3.473803e-01 3.468465e-01 3.464352e-01 3.461373e-01 3.459623e-01 
3.457190e-01 3.457806e-01 3.459559e-01 3.462544e-01 3.466665e-01 3.472014e-01 3.478495e-01 3.486199e-01 3.495030e-01 3.505077e-01 3.516243e-01 3.528616e-01 3.542099e-01 3.556778e-01 3.572557e-01 3.589517e-01 3.607564e-01 3.626777e-01 3.647062e-01 3.668496e-01 3.690984e-01 3.714602e-01 3.739255e-01 3.765016e-01 3.791791e-01 3.819649e-01 3.848497e-01 3.878403e-01 3.909274e-01 3.941174e-01 3.974011e-01 4.007845e-01 4.042587e-01 4.078292e-01 4.114874e-01 4.152383e-01 4.190734e-01 4.229973e-01 4.270019e-01 4.310913e-01 4.352573e-01 4.395039e-01 4.438230e-01 4.482181e-01 4.526815e-01 4.572160e-01 4.618143e-01 4.664787e-01 4.712022e-01 4.759864e-01 4.808248e-01 4.857186e-01 4.906613e-01 4.956536e-01 5.006897e-01 5.057694e-01 5.108873e-01 5.160429e-01 5.212309e-01 5.264503e-01 5.316963e-01 5.369672e-01 5.422588e-01 5.475688e-01 5.528932e-01 5.582293e-01 5.635736e-01 5.689229e-01 5.742739e-01 5.796230e-01 5.849674e-01 5.903029e-01 5.956272e-01 6.009355e-01 6.062262e-01 6.114937e-01 6.167371e-01 6.219502e-01 6.271326e-01 6.322777e-01 6.373854e-01 6.424489e-01 6.474685e-01 6.524368e-01 6.573548e-01 6.622147e-01 6.670179e-01 6.717561e-01 6.764314e-01 6.810351e-01 6.855697e-01 6.900262e-01 6.944076e-01 6.987047e-01 7.029208e-01 7.070465e-01 7.110856e-01 7.150283e-01 7.188791e-01 7.226278e-01 7.262794e-01 7.298236e-01 7.332657e-01 7.365952e-01 7.398181e-01 7.429236e-01 7.459180e-01 7.487906e-01 7.515481e-01 7.541795e-01 7.566921e-01 7.590749e-01 7.613353e-01 7.634626e-01 7.654644e-01 7.673300e-01 7.690675e-01 7.706660e-01 7.721341e-01 7.734609e-01 7.746553e-01 7.757066e-01 7.766239e-01 7.773966e-01 7.780341e-01 7.785260e-01 7.788819e-01 7.790915e-01 7.791648e-01 7.790915e-01 7.788819e-01 7.785260e-01 7.780341e-01 7.773966e-01 7.766239e-01 7.757066e-01 7.746553e-01 7.734609e-01 7.721341e-01 7.706660e-01 7.690675e-01 7.673300e-01 7.654644e-01 7.634626e-01 7.613353e-01 7.590749e-01 7.566921e-01 7.541795e-01 7.515481e-01 7.487906e-01 7.459180e-01 7.429236e-01 7.398181e-01 7.365952e-01 7.332657e-01 7.298236e-01 7.262794e-01 7.226278e-01 7.188791e-01 7.150283e-01 7.110856e-01 7.070465e-01 7.029208e-01 6.987047e-01 6.944076e-01 6.900262e-01 6.855697e-01 6.810351e-01 6.764314e-01 6.717561e-01 6.670179e-01 6.622147e-01 6.573548e-01 6.524368e-01 6.474685e-01 6.424489e-01 6.373854e-01 6.322777e-01 6.271326e-01 6.219502e-01 6.167371e-01 6.114937e-01 6.062262e-01 6.009355e-01 5.956272e-01 5.903029e-01 5.849674e-01 5.796230e-01 5.742739e-01 5.689229e-01 5.635736e-01 5.582293e-01 5.528932e-01 5.475688e-01 5.422588e-01 5.369672e-01 5.316963e-01 5.264503e-01 5.212309e-01 5.160429e-01 5.108873e-01 5.057694e-01 5.006897e-01 4.956536e-01 4.906613e-01 4.857186e-01 4.808248e-01 4.759864e-01 4.712022e-01 4.664787e-01 4.618143e-01 4.572160e-01 4.526815e-01 4.482181e-01 4.438230e-01 4.395039e-01 4.352573e-01 4.310913e-01 4.270019e-01 4.229973e-01 4.190734e-01 4.152383e-01 4.114874e-01 4.078292e-01 4.042587e-01 4.007845e-01 3.974011e-01 3.941174e-01 3.909274e-01 3.878403e-01 3.848497e-01 3.819649e-01 3.791791e-01 3.765016e-01 3.739255e-01 3.714602e-01 3.690984e-01 3.668496e-01 3.647062e-01 3.626777e-01 3.607564e-01 3.589517e-01 3.572557e-01 3.556778e-01 3.542099e-01 3.528616e-01 3.516243e-01 3.505077e-01 3.495030e-01 3.486199e-01 3.478495e-01 3.472014e-01 3.466665e-01 3.462544e-01 3.459559e-01 3.457806e-01 
3.454189e-01 3.454806e-01 3.456566e-01 3.459559e-01 3.463693e-01 3.469058e-01 3.475558e-01 3.483286e-01 3.492143e-01 3.502220e-01 3.513420e-01 3.525829e-01 3.539352e-01 3.554074e-01 3.569898e-01 3.586907e-01 3.605005e-01 3.624273e-01 3.644615e-01 3.666109e-01 3.688659e-01 3.712341e-01 3.737060e-01 3.762889e-01 3.789734e-01 3.817665e-01 3.846588e-01 3.876569e-01 3.907517e-01 3.939495e-01 3.972412e-01 4.006327e-01 4.041152e-01 4.076940e-01 4.113606e-01 4.151200e-01 4.189636e-01 4.228962e-01 4.269094e-01 4.310074e-01 4.351821e-01 4.394374e-01 4.437653e-01 4.481691e-01 4.526412e-01 4.571844e-01 4.617913e-01 4.664643e-01 4.711963e-01 4.759891e-01 4.808360e-01 4.857381e-01 4.906892e-01 4.956898e-01 5.007340e-01 5.058218e-01 5.109477e-01 5.161111e-01 5.213069e-01 5.265340e-01 5.317875e-01 5.370659e-01 5.423648e-01 5.476819e-01 5.530134e-01 5.583565e-01 5.637076e-01 5.690634e-01 5.744210e-01 5.797764e-01 5.851271e-01 5.904686e-01 5.957989e-01 6.011130e-01 6.064092e-01 6.116823e-01 6.169309e-01 6.221492e-01 6.273366e-01 6.324866e-01 6.375990e-01 6.426670e-01 6.476910e-01 6.526636e-01 6.575857e-01 6.624496e-01 6.672565e-01 6.719984e-01 6.766772e-01 6.812843e-01 6.858222e-01 6.902818e-01 6.946662e-01 6.989661e-01 7.031850e-01 7.073132e-01 7.113548e-01 7.152999e-01 7.191529e-01 7.229037e-01 7.265573e-01 7.301034e-01 7.335473e-01 7.368786e-01 7.401030e-01 7.432101e-01 7.462059e-01 7.490798e-01 7.518385e-01 7.544711e-01 7.569848e-01 7.593686e-01 7.616300e-01 7.637581e-01 7.657607e-01 7.676270e-01 7.693651e-01 7.709643e-01 7.724329e-01 7.737602e-01 7.749550e-01 7.760067e-01 7.769243e-01 7.776973e-01 7.783350e-01 7.788271e-01 7.791831e-01 7.793928e-01 7.794661e-01 7.793928e-01 7.791831e-01 7.788271e-01 7.783350e-01 7.776973e-01 7.769243e-01 7.760067e-01 7.749550e-01 7.737602e-01 7.724329e-01 7.709643e-01 7.693651e-01 7.676270e-01 7.657607e-01 7.637581e-01 7.616300e-01 7.593686e-01 7.569848e-01 7.544711e-01 7.518385e-01 7.490798e-01 7.462059e-01 7.432101e-01 7.401030e-01 7.368786e-01 7.335473e-01 7.301034e-01 7.265573e-01 7.229037e-01 7.191529e-01 7.152999e-01 7.113548e-01 7.073132e-01 7.031850e-01 6.989661e-01 6.946662e-01 6.902818e-01 6.858222e-01 6.812843e-01 6.766772e-01 6.719984e-01 6.672565e-01 6.624496e-01 6.575857e-01 6.526636e-01 6.476910e-01 6.426670e-01 6.375990e-01 6.324866e-01 6.273366e-01 6.221492e-01 6.169309e-01 6.116823e-01 6.064092e-01 6.011130e-01 5.957989e-01 5.904686e-01 5.851271e-01 5.797764e-01 5.744210e-01 5.690634e-01 5.637076e-01 5.583565e-01 5.530134e-01 5.476819e-01 5.423648e-01 5.370659e-01 5.317875e-01 5.265340e-01 5.213069e-01 5.161111e-01 5.109477e-01 5.058218e-01 5.007340e-01 4.956898e-01 4.906892e-01 4.857381e-01 4.808360e-01 4.759891e-01 4.711963e-01 4.664643e-01 4.617913e-01 4.571844e-01 4.526412e-01 4.481691e-01 4.437653e-01 4.394374e-01 4.351821e-01 4.310074e-01 4.269094e-01 4.228962e-01 4.189636e-01 4.151200e-01 4.113606e-01 4.076940e-01 4.041152e-01 4.006327e-01 3.972412e-01 3.939495e-01 3.907517e-01 3.876569e-01 3.846588e-01 3.817665e-01 3.789734e-01 3.762889e-01 3.737060e-01 3.712341e-01 3.688659e-01 3.666109e-01 3.644615e-01 3.624273e-01 3.605005e-01 3.586907e-01 3.569898e-01 3.554074e-01 3.539352e-01 3.525829e-01 3.513420e-01 3.502220e-01 3.492143e-01 3.483286e-01 3.475558e-01 3.469058e-01 3.463693e-01 3.459559e-01 3.456566e-01 3.454806e-01 
3.450002e-01 3.450623e-01 3.452389e-01 3.455395e-01 3.459546e-01 3.464933e-01 3.471460e-01 3.479219e-01 3.488112e-01 3.498230e-01 3.509475e-01 3.521934e-01 3.535511e-01 3.550291e-01 3.566177e-01 3.583253e-01 3.601421e-01 3.620762e-01 3.641181e-01 3.662756e-01 3.685390e-01 3.709160e-01 3.733969e-01 3.759892e-01 3.786832e-01 3.814861e-01 3.843885e-01 3.873970e-01 3.905023e-01 3.937109e-01 3.970134e-01 4.004160e-01 4.039097e-01 4.074999e-01 4.111779e-01 4.149489e-01 4.188042e-01 4.227486e-01 4.267736e-01 4.308835e-01 4.350702e-01 4.393374e-01 4.436772e-01 4.480930e-01 4.525771e-01 4.571323e-01 4.617512e-01 4.664361e-01 4.711800e-01 4.759846e-01 4.808432e-01 4.857570e-01 4.907196e-01 4.957317e-01 5.007872e-01 5.058864e-01 5.110234e-01 5.161979e-01 5.214046e-01 5.266425e-01 5.319067e-01 5.371956e-01 5.425049e-01 5.478322e-01 5.531738e-01 5.585267e-01 5.638875e-01 5.692530e-01 5.746199e-01 5.799845e-01 5.853442e-01 5.906946e-01 5.960335e-01 6.013560e-01 6.066606e-01 6.119417e-01 6.171982e-01 6.224242e-01 6.276191e-01 6.327764e-01 6.378959e-01 6.429709e-01 6.480016e-01 6.529807e-01 6.579091e-01 6.627791e-01 6.675920e-01 6.723397e-01 6.770240e-01 6.816365e-01 6.861795e-01 6.906442e-01 6.950334e-01 6.993380e-01 7.035613e-01 7.076939e-01 7.117396e-01 7.156886e-01 7.195454e-01 7.232998e-01 7.269569e-01 7.305063e-01 7.339534e-01 7.372876e-01 7.405149e-01 7.436247e-01 7.466231e-01 7.494994e-01 7.522604e-01 7.548952e-01 7.574109e-01 7.597965e-01 7.620597e-01 7.641895e-01 7.661937e-01 7.680614e-01 7.698008e-01 7.714011e-01 7.728708e-01 7.741991e-01 7.753948e-01 7.764472e-01 7.773655e-01 7.781390e-01 7.787772e-01 7.792696e-01 7.796259e-01 7.798357e-01 7.799091e-01 7.798357e-01 7.796259e-01 7.792696e-01 7.787772e-01 7.781390e-01 7.773655e-01 7.764472e-01 7.753948e-01 7.741991e-01 7.728708e-01 7.714011e-01 7.698008e-01 7.680614e-01 7.661937e-01 7.641895e-01 7.620597e-01 7.597965e-01 7.574109e-01 7.548952e-01 7.522604e-01 7.494994e-01 7.466231e-01 7.436247e-01 7.405149e-01 7.372876e-01 7.339534e-01 7.305063e-01 7.269569e-01 7.232998e-01 7.195454e-01 7.156886e-01 7.117396e-01 7.076939e-01 7.035613e-01 6.993380e-01 6.950334e-01 6.906442e-01 6.861795e-01 6.816365e-01 6.770240e-01 6.723397e-01 6.675920e-01 6.627791e-01 6.579091e-01 6.529807e-01 6.480016e-01 6.429709e-01 6.378959e-01 6.327764e-01 6.276191e-01 6.224242e-01 6.171982e-01 6.119417e-01 6.066606e-01 6.013560e-01 5.960335e-01 5.906946e-01 5.853442e-01 5.799845e-01 5.746199e-01 5.692530e-01 5.638875e-01 5.585267e-01 5.531738e-01 5.478322e-01 5.425049e-01 5.371956e-01 5.319067e-01 5.266425e-01 5.214046e-01 5.161979e-01 5.110234e-01 5.058864e-01 5.007872e-01 4.957317e-01 4.907196e-01 4.857570e-01 4.808432e-01 4.759846e-01 4.711800e-01 4.664361e-01 4.617512e-01 4.571323e-01 4.525771e-01 4.480930e-01 4.436772e-01 4.393374e-01 4.350702e-01 4.308835e-01 4.267736e-01 4.227486e-01 4.188042e-01 4.149489e-01 4.111779e-01 4.074999e-01 4.039097e-01 4.004160e-01 3.970134e-01 3.937109e-01 3.905023e-01 3.873970e-01 3.843885e-01 3.814861e-01 3.786832e-01 3.759892e-01 3.733969e-01 3.709160e-01 3.685390e-01 3.662756e-01 3.641181e-01 3.620762e-01 3.601421e-01 3.583253e-01 3.566177e-01 3.550291e-01 3.535511e-01 3.521934e-01 3.509475e-01 3.498230e-01 3.488112e-01 3.479219e-01 3.471460e-01 3.464933e-01 3.459546e-01 3.455395e-01 3.452389e-01 3.450623e-01 
3.444630e-01 3.445254e-01 3.447029e-01 3.450051e-01 3.454223e-01 3.459638e-01 3.466199e-01 3.473998e-01 3.482937e-01 3.493106e-01 3.504408e-01 3.516930e-01 3.530575e-01 3.545429e-01 3.561393e-01 3.578553e-01 3.596810e-01 3.616245e-01 3.636762e-01 3.658439e-01 3.681179e-01 3.705060e-01 3.729983e-01 3.756024e-01 3.783086e-01 3.811240e-01 3.840392e-01 3.870607e-01 3.901794e-01 3.934015e-01 3.967179e-01 4.001346e-01 4.036425e-01 4.072471e-01 4.109397e-01 4.147254e-01 4.185955e-01 4.225548e-01 4.265949e-01 4.307199e-01 4.349218e-01 4.392042e-01 4.435593e-01 4.479904e-01 4.524897e-01 4.570602e-01 4.616943e-01 4.663944e-01 4.711534e-01 4.759731e-01 4.808467e-01 4.857755e-01 4.907529e-01 4.957798e-01 5.008500e-01 5.059636e-01 5.111150e-01 5.163038e-01 5.215246e-01 5.267764e-01 5.320543e-01 5.373569e-01 5.426795e-01 5.480201e-01 5.533747e-01 5.587405e-01 5.641140e-01 5.694919e-01 5.748711e-01 5.802477e-01 5.856192e-01 5.909812e-01 5.963314e-01 6.016651e-01 6.069806e-01 6.122724e-01 6.175394e-01 6.227756e-01 6.279805e-01 6.331475e-01 6.382765e-01 6.433607e-01 6.484005e-01 6.533884e-01 6.583254e-01 6.632036e-01 6.680246e-01 6.727801e-01 6.774721e-01 6.820919e-01 6.866421e-01 6.911136e-01 6.955095e-01 6.998205e-01 7.040501e-01 7.081886e-01 7.122401e-01 7.161947e-01 7.200568e-01 7.238164e-01 7.274784e-01 7.310324e-01 7.344840e-01 7.378226e-01 7.410540e-01 7.441676e-01 7.471697e-01 7.500496e-01 7.528139e-01 7.554518e-01 7.579705e-01 7.603590e-01 7.626248e-01 7.647570e-01 7.667634e-01 7.686332e-01 7.703746e-01 7.719767e-01 7.734480e-01 7.747777e-01 7.759748e-01 7.770283e-01 7.779476e-01 7.787219e-01 7.793608e-01 7.798537e-01 7.802104e-01 7.804205e-01 7.804939e-01 7.804205e-01 7.802104e-01 7.798537e-01 7.793608e-01 7.787219e-01 7.779476e-01 7.770283e-01 7.759748e-01 7.747777e-01 7.734480e-01 7.719767e-01 7.703746e-01 7.686332e-01 7.667634e-01 7.647570e-01 7.626248e-01 7.603590e-01 7.579705e-01 7.554518e-01 7.528139e-01 7.500496e-01 7.471697e-01 7.441676e-01 7.410540e-01 7.378226e-01 7.344840e-01 7.310324e-01 7.274784e-01 7.238164e-01 7.200568e-01 7.161947e-01 7.122401e-01 7.081886e-01 7.040501e-01 6.998205e-01 6.955095e-01 6.911136e-01 6.866421e-01 6.820919e-01 6.774721e-01 6.727801e-01 6.680246e-01 6.632036e-01 6.583254e-01 6.533884e-01 6.484005e-01 6.433607e-01 6.382765e-01 6.331475e-01 6.279805e-01 6.227756e-01 6.175394e-01 6.122724e-01 6.069806e-01 6.016651e-01 5.963314e-01 5.909812e-01 5.856192e-01 5.802477e-01 5.748711e-01 5.694919e-01 5.641140e-01 5.587405e-01 5.533747e-01 5.480201e-01 5.426795e-01 5.373569e-01 5.320543e-01 5.267764e-01 5.215246e-01 5.163038e-01 5.111150e-01 5.059636e-01 5.008500e-01 4.957798e-01 4.907529e-01 4.857755e-01 4.808467e-01 4.759731e-01 4.711534e-01 4.663944e-01 4.616943e-01 4.570602e-01 4.524897e-01 4.479904e-01 4.435593e-01 4.392042e-01 4.349218e-01 4.307199e-01 4.265949e-01 4.225548e-01 4.185955e-01 4.147254e-01 4.109397e-01 4.072471e-01 4.036425e-01 4.001346e-01 3.967179e-01 3.934015e-01 3.901794e-01 3.870607e-01 3.840392e-01 3.811240e-01 3.783086e-01 3.756024e-01 3.729983e-01 3.705060e-01 3.681179e-01 3.658439e-01 3.636762e-01 3.616245e-01 3.596810e-01 3.578553e-01 3.561393e-01 3.545429e-01 3.530575e-01 3.516930e-01 3.504408e-01 3.493106e-01 3.482937e-01 3.473998e-01 3.466199e-01 3.459638e-01 3.454223e-01 3.450051e-01 3.447029e-01 3.445254e-01 
3.438068e-01 3.438695e-01 3.440482e-01 3.443523e-01 3.447721e-01 3.453169e-01 3.459771e-01 3.467618e-01 3.476613e-01 3.486844e-01 3.498216e-01 3.510814e-01 3.524542e-01 3.539485e-01 3.555545e-01 3.572806e-01 3.591170e-01 3.610719e-01 3.631354e-01 3.653155e-01 3.676025e-01 3.700039e-01 3.725102e-01 3.751286e-01 3.778495e-01 3.806800e-01 3.836107e-01 3.866481e-01 3.897829e-01 3.930216e-01 3.963547e-01 3.997884e-01 4.033135e-01 4.069357e-01 4.106459e-01 4.144495e-01 4.183376e-01 4.223151e-01 4.263734e-01 4.305168e-01 4.347371e-01 4.390381e-01 4.434117e-01 4.478613e-01 4.523792e-01 4.569682e-01 4.616209e-01 4.663395e-01 4.711170e-01 4.759551e-01 4.808470e-01 4.857940e-01 4.907895e-01 4.958344e-01 5.009224e-01 5.060538e-01 5.112228e-01 5.164289e-01 5.216670e-01 5.269359e-01 5.322307e-01 5.375499e-01 5.428890e-01 5.482459e-01 5.536166e-01 5.589982e-01 5.643873e-01 5.697805e-01 5.751748e-01 5.805664e-01 5.859525e-01 5.913288e-01 5.966932e-01 6.020407e-01 6.073698e-01 6.126748e-01 6.179549e-01 6.232038e-01 6.284211e-01 6.336003e-01 6.387413e-01 6.438371e-01 6.488882e-01 6.538872e-01 6.588349e-01 6.637237e-01 6.685549e-01 6.733203e-01 6.780219e-01 6.826511e-01 6.872103e-01 6.916906e-01 6.960951e-01 7.004143e-01 7.046518e-01 7.087980e-01 7.128569e-01 7.168186e-01 7.206876e-01 7.244538e-01 7.281222e-01 7.316824e-01 7.351398e-01 7.384839e-01 7.417207e-01 7.448394e-01 7.478464e-01 7.507309e-01 7.534996e-01 7.561417e-01 7.586642e-01 7.610564e-01 7.633257e-01 7.654611e-01 7.674706e-01 7.693432e-01 7.710871e-01 7.726916e-01 7.741650e-01 7.754967e-01 7.766954e-01 7.777505e-01 7.786711e-01 7.794466e-01 7.800864e-01 7.805800e-01 7.809372e-01 7.811475e-01 7.812210e-01 7.811475e-01 7.809372e-01 7.805800e-01 7.800864e-01 7.794466e-01 7.786711e-01 7.777505e-01 7.766954e-01 7.754967e-01 7.741650e-01 7.726916e-01 7.710871e-01 7.693432e-01 7.674706e-01 7.654611e-01 7.633257e-01 7.610564e-01 7.586642e-01 7.561417e-01 7.534996e-01 7.507309e-01 7.478464e-01 7.448394e-01 7.417207e-01 7.384839e-01 7.351398e-01 7.316824e-01 7.281222e-01 7.244538e-01 7.206876e-01 7.168186e-01 7.128569e-01 7.087980e-01 7.046518e-01 7.004143e-01 6.960951e-01 6.916906e-01 6.872103e-01 6.826511e-01 6.780219e-01 6.733203e-01 6.685549e-01 6.637237e-01 6.588349e-01 6.538872e-01 6.488882e-01 6.438371e-01 6.387413e-01 6.336003e-01 6.284211e-01 6.232038e-01 6.179549e-01 6.126748e-01 6.073698e-01 6.020407e-01 5.966932e-01 5.913288e-01 5.859525e-01 5.805664e-01 5.751748e-01 5.697805e-01 5.643873e-01 5.589982e-01 5.536166e-01 5.482459e-01 5.428890e-01 5.375499e-01 5.322307e-01 5.269359e-01 5.216670e-01 5.164289e-01 5.112228e-01 5.060538e-01 5.009224e-01 4.958344e-01 4.907895e-01 4.857940e-01 4.808470e-01 4.759551e-01 4.711170e-01 4.663395e-01 4.616209e-01 4.569682e-01 4.523792e-01 4.478613e-01 4.434117e-01 4.390381e-01 4.347371e-01 4.305168e-01 4.263734e-01 4.223151e-01 4.183376e-01 4.144495e-01 4.106459e-01 4.069357e-01 4.033135e-01 3.997884e-01 3.963547e-01 3.930216e-01 3.897829e-01 3.866481e-01 3.836107e-01 3.806800e-01 3.778495e-01 3.751286e-01 3.725102e-01 3.700039e-01 3.676025e-01 3.653155e-01 3.631354e-01 3.610719e-01 3.591170e-01 3.572806e-01 3.555545e-01 3.539485e-01 3.524542e-01 3.510814e-01 3.498216e-01 3.486844e-01 3.476613e-01 3.467618e-01 3.459771e-01 3.453169e-01 3.447721e-01 3.443523e-01 3.440482e-01 3.438695e-01 