# vtk DataFile Version 2.0
Comment goes here
ASCII

DATASET STRUCTURED_POINTS
FIELD FieldData 1
TIME 1 1 double
0.09000000
DIMENSIONS    256   256   1

ORIGIN    0.000   0.000   0.000
SPACING   0.0039062 0.0039062   1.000

POINT_DATA   65536
SCALARS uMag double
LOOKUP_TABLE default

2.710859e-01 2.711306e-01 2.712691e-01 2.714970e-01 2.718184e-01 2.722290e-01 2.727328e-01 2.733255e-01 2.740109e-01 2.747846e-01 2.756504e-01 2.766038e-01 2.776486e-01 2.787801e-01 2.800020e-01 2.813097e-01 2.827066e-01 2.841881e-01 2.857576e-01 2.874104e-01 2.891496e-01 2.909707e-01 2.928767e-01 2.948629e-01 2.969321e-01 2.990797e-01 3.013083e-01 3.036134e-01 3.059974e-01 3.084556e-01 3.109905e-01 3.135972e-01 3.162780e-01 3.190283e-01 3.218499e-01 3.247383e-01 3.276951e-01 3.307159e-01 3.338020e-01 3.369491e-01 3.401583e-01 3.434253e-01 3.467510e-01 3.501310e-01 3.535661e-01 3.570521e-01 3.605894e-01 3.641739e-01 3.678057e-01 3.714808e-01 3.751992e-01 3.789568e-01 3.827535e-01 3.865853e-01 3.904516e-01 3.943488e-01 3.982760e-01 4.022296e-01 4.062085e-01 4.102093e-01 4.142306e-01 4.182691e-01 4.223231e-01 4.263897e-01 4.304667e-01 4.345514e-01 4.386414e-01 4.427342e-01 4.468273e-01 4.509180e-01 4.550038e-01 4.590823e-01 4.631505e-01 4.672064e-01 4.712466e-01 4.752695e-01 4.792715e-01 4.832511e-01 4.872044e-01 4.911302e-01 4.950246e-01 4.988864e-01 5.027116e-01 5.064993e-01 5.102451e-01 5.139485e-01 5.176049e-01 5.212142e-01 5.247715e-01 5.282769e-01 5.317255e-01 5.351175e-01 5.384480e-01 5.417175e-01 5.449209e-01 5.480589e-01 5.511263e-01 5.541242e-01 5.570472e-01 5.598968e-01 5.626674e-01 5.653608e-01 5.679713e-01 5.705010e-01 5.729442e-01 5.753032e-01 5.775723e-01 5.797540e-01 5.818426e-01 5.838410e-01 5.857433e-01 5.875527e-01 5.892634e-01 5.908787e-01 5.923931e-01 5.938098e-01 5.951235e-01 5.963377e-01 5.974470e-01 5.984552e-01 5.993570e-01 6.001564e-01 6.008482e-01 6.014366e-01 6.019164e-01 6.022920e-01 6.025585e-01 6.027203e-01 6.027727e-01 6.027203e-01 6.025585e-01 6.022920e-01 6.019164e-01 6.014366e-01 6.008482e-01 6.001564e-01 5.993570e-01 5.984552e-01 5.974470e-01 5.963377e-01 5.951235e-01 5.938098e-01 5.923931e-01 5.908787e-01 5.892634e-01 5.875527e-01 5.857433e-01 5.838410e-01 5.818426e-01 5.797540e-01 5.775723e-01 5.753032e-01 5.729442e-01 5.705010e-01 5.679713e-01 5.653608e-01 5.626674e-01 5.598968e-01 5.570472e-01 5.541242e-01 5.511263e-01 5.480589e-01 5.449209e-01 5.417175e-01 5.384480e-01 5.351175e-01 5.317255e-01 5.282769e-01 5.247715e-01 5.212142e-01 5.176049e-01 5.139485e-01 5.102451e-01 5.064993e-01 5.027116e-01 4.988864e-01 4.950246e-01 4.911302e-01 4.872044e-01 4.832511e-01 4.792715e-01 4.752695e-01 4.712466e-01 4.672064e-01 4.631505e-01 4.590823e-01 4.550038e-01 4.509180e-01 4.468273e-01 4.427342e-01 4.386414e-01 4.345514e-01 4.304667e-01 4.263897e-01 4.223231e-01 4.182691e-01 4.142306e-01 4.102093e-01 4.062085e-01 4.022296e-01 3.982760e-01 3.943488e-01 3.904516e-01 3.865853e-01 3.827535e-01 3.789568e-01 3.751992e-01 3.714808e-01 3.678057e-01 3.641739e-01 3.605894e-01 3.570521e-01 3.535661e-01 3.501310e-01 3.467510e-01 3.434253e-01 3.401583e-01 3.369491e-01 3.338020e-01 3.307159e-01 3.276951e-01 3.247383e-01 3.218499e-01 3.190283e-01 3.162780e-01 3.135972e-01 3.109905e-01 3.084556e-01 3.059974e-01 3.036134e-01 3.013083e-01 2.990797e-01 2.969321e-01 2.948629e-01 2.928767e-01 2.909707e-01 2.891496e-01 2.874104e-01 2.857576e-01 2.841881e-01 2.827066e-01 2.813097e-01 2.800020e-01 2.787801e-01 2.776486e-01 2.766038e-01 2.756504e-01 2.747846e-01 2.740109e-01 2.733255e-01 2.727328e-01 2.722290e-01 2.718184e-01 2.714970e-01 2.712691e-01 2.711306e-01 
2.707944e-01 2.708393e-01 2.709782e-01 2.712068e-01 2.715292e-01 2.719411e-01 2.724465e-01 2.730410e-01 2.737285e-01 2.745046e-01 2.753731e-01 2.763295e-01 2.773774e-01 2.785123e-01 2.797378e-01 2.810494e-01 2.824504e-01 2.839363e-01 2.855104e-01 2.871680e-01 2.889122e-01 2.907385e-01 2.926498e-01 2.946416e-01 2.967165e-01 2.988700e-01 3.011047e-01 3.034160e-01 3.058063e-01 3.082711e-01 3.108125e-01 3.134260e-01 3.161137e-01 3.188709e-01 3.216996e-01 3.245951e-01 3.275592e-01 3.305873e-01 3.336808e-01 3.368354e-01 3.400522e-01 3.433267e-01 3.466600e-01 3.500478e-01 3.534907e-01 3.569844e-01 3.605295e-01 3.641218e-01 3.677615e-01 3.714445e-01 3.751708e-01 3.789364e-01 3.827410e-01 3.865807e-01 3.904550e-01 3.943602e-01 3.982953e-01 4.022568e-01 4.062437e-01 4.102524e-01 4.142815e-01 4.183279e-01 4.223898e-01 4.264642e-01 4.305490e-01 4.346414e-01 4.387393e-01 4.428398e-01 4.469404e-01 4.510388e-01 4.551322e-01 4.592182e-01 4.632939e-01 4.673572e-01 4.714048e-01 4.754350e-01 4.794443e-01 4.834310e-01 4.873914e-01 4.913243e-01 4.952256e-01 4.990944e-01 5.029263e-01 5.067207e-01 5.104732e-01 5.141831e-01 5.178461e-01 5.214617e-01 5.250253e-01 5.285369e-01 5.319915e-01 5.353895e-01 5.387258e-01 5.420011e-01 5.452100e-01 5.483535e-01 5.514263e-01 5.544294e-01 5.573576e-01 5.602121e-01 5.629876e-01 5.656856e-01 5.683007e-01 5.708348e-01 5.732823e-01 5.756454e-01 5.779184e-01 5.801039e-01 5.821962e-01 5.841980e-01 5.861037e-01 5.879162e-01 5.896299e-01 5.912481e-01 5.927650e-01 5.941843e-01 5.955002e-01 5.967165e-01 5.978278e-01 5.988377e-01 5.997411e-01 6.005419e-01 6.012349e-01 6.018243e-01 6.023049e-01 6.026812e-01 6.029482e-01 6.031103e-01 6.031628e-01 6.031103e-01 6.029482e-01 6.026812e-01 6.023049e-01 6.018243e-01 6.012349e-01 6.005419e-01 5.997411e-01 5.988377e-01 5.978278e-01 5.967165e-01 5.955002e-01 5.941843e-01 5.927650e-01 5.912481e-01 5.896299e-01 5.879162e-01 5.861037e-01 5.841980e-01 5.821962e-01 5.801039e-01 5.779184e-01 5.756454e-01 5.732823e-01 5.708348e-01 5.683007e-01 5.656856e-01 5.629876e-01 5.602121e-01 5.573576e-01 5.544294e-01 5.514263e-01 5.483535e-01 5.452100e-01 5.420011e-01 5.387258e-01 5.353895e-01 5.319915e-01 5.285369e-01 5.250253e-01 5.214617e-01 5.178461e-01 5.141831e-01 5.104732e-01 5.067207e-01 5.029263e-01 4.990944e-01 4.952256e-01 4.913243e-01 4.873914e-01 4.834310e-01 4.794443e-01 4.754350e-01 4.714048e-01 4.673572e-01 4.632939e-01 4.592182e-01 4.551322e-01 4.510388e-01 4.469404e-01 4.428398e-01 4.387393e-01 4.346414e-01 4.305490e-01 4.264642e-01 4.223898e-01 4.183279e-01 4.142815e-01 4.102524e-01 4.062437e-01 4.022568e-01 3.982953e-01 3.943602e-01 3.904550e-01 3.865807e-01 3.827410e-01 3.789364e-01 3.751708e-01 3.714445e-01 3.677615e-01 3.641218e-01 3.605295e-01 3.569844e-01 3.534907e-01 3.500478e-01 3.466600e-01 3.433267e-01 3.400522e-01 3.368354e-01 3.336808e-01 3.305873e-01 3.275592e-01 3.245951e-01 3.216996e-01 3.188709e-01 3.161137e-01 3.134260e-01 3.108125e-01 3.082711e-01 3.058063e-01 3.034160e-01 3.011047e-01 2.988700e-01 2.967165e-01 2.946416e-01 2.926498e-01 2.907385e-01 2.889122e-01 2.871680e-01 2.855104e-01 2.839363e-01 2.824504e-01 2.810494e-01 2.797378e-01 2.785123e-01 2.773774e-01 2.763295e-01 2.753731e-01 2.745046e-01 2.737285e-01 2.730410e-01 2.724465e-01 2.719411e-01 2.715292e-01 2.712068e-01 2.709782e-01 2.708393e-01 
2.704106e-01 2.704557e-01 2.705952e-01 2.708247e-01 2.711485e-01 2.715621e-01 2.720696e-01 2.726666e-01 2.733570e-01 2.741363e-01 2.750083e-01 2.759686e-01 2.770208e-01 2.781604e-01 2.793908e-01 2.807076e-01 2.821142e-01 2.836060e-01 2.851862e-01 2.868502e-01 2.886012e-01 2.904345e-01 2.923530e-01 2.943522e-01 2.964349e-01 2.985963e-01 3.008391e-01 3.031588e-01 3.055576e-01 3.080311e-01 3.105814e-01 3.132039e-01 3.159007e-01 3.186673e-01 3.215054e-01 3.244105e-01 3.273842e-01 3.304221e-01 3.335256e-01 3.366901e-01 3.399169e-01 3.432016e-01 3.465451e-01 3.499431e-01 3.533962e-01 3.569003e-01 3.604558e-01 3.640585e-01 3.677086e-01 3.714020e-01 3.751387e-01 3.789148e-01 3.827298e-01 3.865800e-01 3.904647e-01 3.943803e-01 3.983258e-01 4.022978e-01 4.062950e-01 4.103140e-01 4.143535e-01 4.184101e-01 4.224822e-01 4.265668e-01 4.306617e-01 4.347642e-01 4.388721e-01 4.429825e-01 4.470931e-01 4.512013e-01 4.553044e-01 4.594001e-01 4.634853e-01 4.675581e-01 4.716152e-01 4.756548e-01 4.796733e-01 4.836691e-01 4.876386e-01 4.915804e-01 4.954906e-01 4.993681e-01 5.032087e-01 5.070116e-01 5.107724e-01 5.144906e-01 5.181617e-01 5.217853e-01 5.253568e-01 5.288760e-01 5.323383e-01 5.357437e-01 5.390873e-01 5.423697e-01 5.455856e-01 5.487359e-01 5.518154e-01 5.548250e-01 5.577595e-01 5.606202e-01 5.634017e-01 5.661055e-01 5.687263e-01 5.712658e-01 5.737185e-01 5.760866e-01 5.783646e-01 5.805547e-01 5.826515e-01 5.846576e-01 5.865673e-01 5.883837e-01 5.901011e-01 5.917227e-01 5.932429e-01 5.946651e-01 5.959838e-01 5.972027e-01 5.983163e-01 5.993285e-01 6.002338e-01 6.010363e-01 6.017307e-01 6.023214e-01 6.028030e-01 6.031801e-01 6.034476e-01 6.036101e-01 6.036627e-01 6.036101e-01 6.034476e-01 6.031801e-01 6.028030e-01 6.023214e-01 6.017307e-01 6.010363e-01 6.002338e-01 5.993285e-01 5.983163e-01 5.972027e-01 5.959838e-01 5.946651e-01 5.932429e-01 5.917227e-01 5.901011e-01 5.883837e-01 5.865673e-01 5.846576e-01 5.826515e-01 5.805547e-01 5.783646e-01 5.760866e-01 5.737185e-01 5.712658e-01 5.687263e-01 5.661055e-01 5.634017e-01 5.606202e-01 5.577595e-01 5.548250e-01 5.518154e-01 5.487359e-01 5.455856e-01 5.423697e-01 5.390873e-01 5.357437e-01 5.323383e-01 5.288760e-01 5.253568e-01 5.217853e-01 5.181617e-01 5.144906e-01 5.107724e-01 5.070116e-01 5.032087e-01 4.993681e-01 4.954906e-01 4.915804e-01 4.876386e-01 4.836691e-01 4.796733e-01 4.756548e-01 4.716152e-01 4.675581e-01 4.634853e-01 4.594001e-01 4.553044e-01 4.512013e-01 4.470931e-01 4.429825e-01 4.388721e-01 4.347642e-01 4.306617e-01 4.265668e-01 4.224822e-01 4.184101e-01 4.143535e-01 4.103140e-01 4.062950e-01 4.022978e-01 3.983258e-01 3.943803e-01 3.904647e-01 3.865800e-01 3.827298e-01 3.789148e-01 3.751387e-01 3.714020e-01 3.677086e-01 3.640585e-01 3.604558e-01 3.569003e-01 3.533962e-01 3.499431e-01 3.465451e-01 3.432016e-01 3.399169e-01 3.366901e-01 3.335256e-01 3.304221e-01 3.273842e-01 3.244105e-01 3.215054e-01 3.186673e-01 3.159007e-01 3.132039e-01 3.105814e-01 3.080311e-01 3.055576e-01 3.031588e-01 3.008391e-01 2.985963e-01 2.964349e-01 2.943522e-01 2.923530e-01 2.904345e-01 2.886012e-01 2.868502e-01 2.851862e-01 2.836060e-01 2.821142e-01 2.807076e-01 2.793908e-01 2.781604e-01 2.770208e-01 2.759686e-01 2.750083e-01 2.741363e-01 2.733570e-01 2.726666e-01 2.720696e-01 2.715621e-01 2.711485e-01 2.708247e-01 2.705952e-01 2.704557e-01 
2.699362e-01 2.699815e-01 2.701217e-01 2.703525e-01 2.706780e-01 2.710938e-01 2.716039e-01 2.722041e-01 2.728980e-01 2.736814e-01 2.745580e-01 2.755232e-01 2.765807e-01 2.777261e-01 2.789628e-01 2.802863e-01 2.816998e-01 2.831990e-01 2.847870e-01 2.864591e-01 2.882185e-01 2.900606e-01 2.919883e-01 2.939969e-01 2.960892e-01 2.982606e-01 3.005136e-01 3.028438e-01 3.052533e-01 3.077377e-01 3.102991e-01 3.129330e-01 3.156413e-01 3.184196e-01 3.212695e-01 3.241866e-01 3.271725e-01 3.302226e-01 3.333384e-01 3.365154e-01 3.397548e-01 3.430521e-01 3.464083e-01 3.498190e-01 3.532850e-01 3.568019e-01 3.603703e-01 3.639859e-01 3.676490e-01 3.713554e-01 3.751051e-01 3.788941e-01 3.827221e-01 3.865852e-01 3.904828e-01 3.944113e-01 3.983697e-01 4.023544e-01 4.063644e-01 4.103962e-01 4.144483e-01 4.185175e-01 4.226022e-01 4.266992e-01 4.308065e-01 4.349213e-01 4.390414e-01 4.431640e-01 4.472866e-01 4.514068e-01 4.555217e-01 4.596291e-01 4.637260e-01 4.678104e-01 4.718788e-01 4.759296e-01 4.799593e-01 4.839662e-01 4.879466e-01 4.918991e-01 4.958199e-01 4.997078e-01 5.035588e-01 5.073718e-01 5.111426e-01 5.148707e-01 5.185514e-01 5.221845e-01 5.257654e-01 5.292938e-01 5.327650e-01 5.361793e-01 5.395315e-01 5.428223e-01 5.460464e-01 5.492048e-01 5.522921e-01 5.553093e-01 5.582513e-01 5.611192e-01 5.639076e-01 5.666183e-01 5.692456e-01 5.717914e-01 5.742503e-01 5.766243e-01 5.789079e-01 5.811035e-01 5.832055e-01 5.852165e-01 5.871310e-01 5.889518e-01 5.906734e-01 5.922990e-01 5.938229e-01 5.952486e-01 5.965706e-01 5.977925e-01 5.989088e-01 5.999234e-01 6.008310e-01 6.016354e-01 6.023316e-01 6.029237e-01 6.034065e-01 6.037845e-01 6.040526e-01 6.042155e-01 6.042682e-01 6.042155e-01 6.040526e-01 6.037845e-01 6.034065e-01 6.029237e-01 6.023316e-01 6.016354e-01 6.008310e-01 5.999234e-01 5.989088e-01 5.977925e-01 5.965706e-01 5.952486e-01 5.938229e-01 5.922990e-01 5.906734e-01 5.889518e-01 5.871310e-01 5.852165e-01 5.832055e-01 5.811035e-01 5.789079e-01 5.766243e-01 5.742503e-01 5.717914e-01 5.692456e-01 5.666183e-01 5.639076e-01 5.611192e-01 5.582513e-01 5.553093e-01 5.522921e-01 5.492048e-01 5.460464e-01 5.428223e-01 5.395315e-01 5.361793e-01 5.327650e-01 5.292938e-01 5.257654e-01 5.221845e-01 5.185514e-01 5.148707e-01 5.111426e-01 5.073718e-01 5.035588e-01 4.997078e-01 4.958199e-01 4.918991e-01 4.879466e-01 4.839662e-01 4.799593e-01 4.759296e-01 4.718788e-01 4.678104e-01 4.637260e-01 4.596291e-01 4.555217e-01 4.514068e-01 4.472866e-01 4.431640e-01 4.390414e-01 4.349213e-01 4.308065e-01 4.266992e-01 4.226022e-01 4.185175e-01 4.144483e-01 4.103962e-01 4.063644e-01 4.023544e-01 3.983697e-01 3.944113e-01 3.904828e-01 3.865852e-01 3.827221e-01 3.788941e-01 3.751051e-01 3.713554e-01 3.676490e-01 3.639859e-01 3.603703e-01 3.568019e-01 3.532850e-01 3.498190e-01 3.464083e-01 3.430521e-01 3.397548e-01 3.365154e-01 3.333384e-01 3.302226e-01 3.271725e-01 3.241866e-01 3.212695e-01 3.184196e-01 3.156413e-01 3.129330e-01 3.102991e-01 3.077377e-01 3.052533e-01 3.028438e-01 3.005136e-01 2.982606e-01 2.960892e-01 2.939969e-01 2.919883e-01 2.900606e-01 2.882185e-01 2.864591e-01 2.847870e-01 2.831990e-01 2.816998e-01 2.802863e-01 2.789628e-01 2.777261e-01 2.765807e-01 2.755232e-01 2.745580e-01 2.736814e-01 2.728980e-01 2.722041e-01 2.716039e-01 2.710938e-01 2.706780e-01 2.703525e-01 2.701217e-01 2.699815e-01 
2.693690e-01 2.694146e-01 2.695557e-01 2.697880e-01 2.701155e-01 2.705339e-01 2.710473e-01 2.716512e-01 2.723495e-01 2.731378e-01 2.740198e-01 2.749910e-01 2.760551e-01 2.772075e-01 2.784516e-01 2.797831e-01 2.812052e-01 2.827132e-01 2.843106e-01 2.859925e-01 2.877621e-01 2.896148e-01 2.915534e-01 2.935734e-01 2.956774e-01 2.978608e-01 3.001262e-01 3.024689e-01 3.048913e-01 3.073889e-01 3.099637e-01 3.126112e-01 3.153334e-01 3.181257e-01 3.209899e-01 3.239214e-01 3.269219e-01 3.299867e-01 3.331174e-01 3.363093e-01 3.395638e-01 3.428762e-01 3.462477e-01 3.496737e-01 3.531551e-01 3.566874e-01 3.602712e-01 3.639023e-01 3.675809e-01 3.713028e-01 3.750680e-01 3.788725e-01 3.827160e-01 3.865945e-01 3.905076e-01 3.944514e-01 3.984252e-01 4.024252e-01 4.064504e-01 4.104973e-01 4.145645e-01 4.186487e-01 4.227483e-01 4.268601e-01 4.309822e-01 4.351116e-01 4.392462e-01 4.433832e-01 4.475201e-01 4.516544e-01 4.557834e-01 4.599047e-01 4.640153e-01 4.681133e-01 4.721952e-01 4.762593e-01 4.803022e-01 4.843220e-01 4.883153e-01 4.922805e-01 4.962138e-01 5.001140e-01 5.039770e-01 5.078020e-01 5.115846e-01 5.153242e-01 5.190163e-01 5.226606e-01 5.262523e-01 5.297915e-01 5.332733e-01 5.366978e-01 5.400601e-01 5.433608e-01 5.465945e-01 5.497623e-01 5.528587e-01 5.558849e-01 5.588355e-01 5.617118e-01 5.645084e-01 5.672270e-01 5.698619e-01 5.724152e-01 5.748811e-01 5.772620e-01 5.795522e-01 5.817541e-01 5.838621e-01 5.858789e-01 5.877989e-01 5.896249e-01 5.913514e-01 5.929816e-01 5.945099e-01 5.959397e-01 5.972654e-01 5.984908e-01 5.996103e-01 6.006278e-01 6.015378e-01 6.023446e-01 6.030427e-01 6.036365e-01 6.041206e-01 6.044997e-01 6.047686e-01 6.049320e-01 6.049848e-01 6.049320e-01 6.047686e-01 6.044997e-01 6.041206e-01 6.036365e-01 6.030427e-01 6.023446e-01 6.015378e-01 6.006278e-01 5.996103e-01 5.984908e-01 5.972654e-01 5.959397e-01 5.945099e-01 5.929816e-01 5.913514e-01 5.896249e-01 5.877989e-01 5.858789e-01 5.838621e-01 5.817541e-01 5.795522e-01 5.772620e-01 5.748811e-01 5.724152e-01 5.698619e-01 5.672270e-01 5.645084e-01 5.617118e-01 5.588355e-01 5.558849e-01 5.528587e-01 5.497623e-01 5.465945e-01 5.433608e-01 5.400601e-01 5.366978e-01 5.332733e-01 5.297915e-01 5.262523e-01 5.226606e-01 5.190163e-01 5.153242e-01 5.115846e-01 5.078020e-01 5.039770e-01 5.001140e-01 4.962138e-01 4.922805e-01 4.883153e-01 4.843220e-01 4.803022e-01 4.762593e-01 4.721952e-01 4.681133e-01 4.640153e-01 4.599047e-01 4.557834e-01 4.516544e-01 4.475201e-01 4.433832e-01 4.392462e-01 4.351116e-01 4.309822e-01 4.268601e-01 4.227483e-01 4.186487e-01 4.145645e-01 4.104973e-01 4.064504e-01 4.024252e-01 3.984252e-01 3.944514e-01 3.905076e-01 3.865945e-01 3.827160e-01 3.788725e-01 3.750680e-01 3.713028e-01 3.675809e-01 3.639023e-01 3.602712e-01 3.566874e-01 3.531551e-01 3.496737e-01 3.462477e-01 3.428762e-01 3.395638e-01 3.363093e-01 3.331174e-01 3.299867e-01 3.269219e-01 3.239214e-01 3.209899e-01 3.181257e-01 3.153334e-01 3.126112e-01 3.099637e-01 3.073889e-01 3.048913e-01 3.024689e-01 3.001262e-01 2.978608e-01 2.956774e-01 2.935734e-01 2.915534e-01 2.896148e-01 2.877621e-01 2.859925e-01 2.843106e-01 2.827132e-01 2.812052e-01 2.797831e-01 2.784516e-01 2.772075e-01 2.760551e-01 2.749910e-01 2.740198e-01 2.731378e-01 2.723495e-01 2.716512e-01 2.710473e-01 2.705339e-01 2.701155e-01 2.697880e-01 2.695557e-01 2.694146e-01 
2.687109e-01 2.687569e-01 2.688990e-01 2.691330e-01 2.694629e-01 2.698845e-01 2.704017e-01 2.710100e-01 2.717134e-01 2.725075e-01 2.733959e-01 2.743741e-01 2.754458e-01 2.766064e-01 2.778594e-01 2.792003e-01 2.806323e-01 2.821508e-01 2.837592e-01 2.854526e-01 2.872342e-01 2.890993e-01 2.910508e-01 2.930840e-01 2.952017e-01 2.973992e-01 2.996790e-01 3.020366e-01 3.044741e-01 3.069871e-01 3.095776e-01 3.122411e-01 3.149795e-01 3.177882e-01 3.206691e-01 3.236175e-01 3.266350e-01 3.297170e-01 3.328650e-01 3.360744e-01 3.393465e-01 3.426766e-01 3.460658e-01 3.495097e-01 3.530090e-01 3.565593e-01 3.601612e-01 3.638103e-01 3.675069e-01 3.712468e-01 3.750301e-01 3.788526e-01 3.827140e-01 3.866105e-01 3.905415e-01 3.945032e-01 3.984947e-01 4.025125e-01 4.065553e-01 4.106197e-01 4.147044e-01 4.188060e-01 4.229228e-01 4.270517e-01 4.311908e-01 4.353371e-01 4.394884e-01 4.436419e-01 4.477953e-01 4.519459e-01 4.560910e-01 4.602283e-01 4.643548e-01 4.684683e-01 4.725657e-01 4.766451e-01 4.807030e-01 4.847377e-01 4.887456e-01 4.927253e-01 4.966729e-01 5.005871e-01 5.044640e-01 5.083025e-01 5.120985e-01 5.158513e-01 5.195563e-01 5.232132e-01 5.268174e-01 5.303687e-01 5.338624e-01 5.372986e-01 5.406723e-01 5.439841e-01 5.472287e-01 5.504070e-01 5.535138e-01 5.565500e-01 5.595103e-01 5.623961e-01 5.652019e-01 5.679293e-01 5.705729e-01 5.731344e-01 5.756084e-01 5.779970e-01 5.802945e-01 5.825035e-01 5.846183e-01 5.866415e-01 5.885676e-01 5.903995e-01 5.921315e-01 5.937668e-01 5.952999e-01 5.967342e-01 5.980642e-01 5.992934e-01 6.004164e-01 6.014371e-01 6.023500e-01 6.031593e-01 6.038596e-01 6.044552e-01 6.049409e-01 6.053212e-01 6.055909e-01 6.057548e-01 6.058078e-01 6.057548e-01 6.055909e-01 6.053212e-01 6.049409e-01 6.044552e-01 6.038596e-01 6.031593e-01 6.023500e-01 6.014371e-01 6.004164e-01 5.992934e-01 5.980642e-01 5.967342e-01 5.952999e-01 5.937668e-01 5.921315e-01 5.903995e-01 5.885676e-01 5.866415e-01 5.846183e-01 5.825035e-01 5.802945e-01 5.779970e-01 5.756084e-01 5.731344e-01 5.705729e-01 5.679293e-01 5.652019e-01 5.623961e-01 5.595103e-01 5.565500e-01 5.535138e-01 5.504070e-01 5.472287e-01 5.439841e-01 5.406723e-01 5.372986e-01 5.338624e-01 5.303687e-01 5.268174e-01 5.232132e-01 5.195563e-01 5.158513e-01 5.120985e-01 5.083025e-01 5.044640e-01 5.005871e-01 4.966729e-01 4.927253e-01 4.887456e-01 4.847377e-01 4.807030e-01 4.766451e-01 4.725657e-01 4.684683e-01 4.643548e-01 4.602283e-01 4.560910e-01 4.519459e-01 4.477953e-01 4.436419e-01 4.394884e-01 4.353371e-01 4.311908e-01 4.270517e-01 4.229228e-01 4.188060e-01 4.147044e-01 4.106197e-01 4.065553e-01 4.025125e-01 3.984947e-01 3.945032e-01 3.905415e-01 3.866105e-01 3.827140e-01 3.788526e-01 3.750301e-01 3.712468e-01 3.675069e-01 3.638103e-01 3.601612e-01 3.565593e-01 3.530090e-01 3.495097e-01 3.460658e-01 3.426766e-01 3.393465e-01 3.360744e-01 3.328650e-01 3.297170e-01 3.266350e-01 3.236175e-01 3.206691e-01 3.177882e-01 3.149795e-01 3.122411e-01 3.095776e-01 3.069871e-01 3.044741e-01 3.020366e-01 2.996790e-01 2.973992e-01 2.952017e-01 2.930840e-01 2.910508e-01 2.890993e-01 2.872342e-01 2.854526e-01 2.837592e-01 2.821508e-01 2.806323e-01 2.792003e-01 2.778594e-01 2.766064e-01 2.754458e-01 2.743741e-01 2.733959e-01 2.725075e-01 2.717134e-01 2.710100e-01 2.704017e-01 2.698845e-01 2.694629e-01 2.691330e-01 2.688990e-01 2.687569e-01 
2.679595e-01 2.680059e-01 2.681492e-01 2.683852e-01 2.687179e-01 2.691431e-01 2.696645e-01 2.702780e-01 2.709873e-01 2.717880e-01 2.726837e-01 2.736700e-01 2.747505e-01 2.759206e-01 2.771837e-01 2.785354e-01 2.799788e-01 2.815094e-01 2.831304e-01 2.848370e-01 2.866323e-01 2.885117e-01 2.904780e-01 2.925265e-01 2.946599e-01 2.968736e-01 2.991700e-01 3.015444e-01 3.039993e-01 3.065300e-01 3.091385e-01 3.118203e-01 3.145773e-01 3.174049e-01 3.203048e-01 3.232725e-01 3.263095e-01 3.294112e-01 3.325791e-01 3.358085e-01 3.391007e-01 3.424511e-01 3.458606e-01 3.493249e-01 3.528447e-01 3.564156e-01 3.600380e-01 3.637077e-01 3.674249e-01 3.711854e-01 3.749893e-01 3.788323e-01 3.827144e-01 3.866313e-01 3.905827e-01 3.945647e-01 3.985766e-01 4.026145e-01 4.066774e-01 4.107618e-01 4.148664e-01 4.189877e-01 4.231241e-01 4.272725e-01 4.314309e-01 4.355964e-01 4.397668e-01 4.439392e-01 4.481112e-01 4.522803e-01 4.564438e-01 4.605992e-01 4.647436e-01 4.688748e-01 4.729898e-01 4.770865e-01 4.811614e-01 4.852130e-01 4.892376e-01 4.932337e-01 4.971974e-01 5.011275e-01 5.050201e-01 5.088740e-01 5.126851e-01 5.164527e-01 5.201723e-01 5.238436e-01 5.274618e-01 5.310269e-01 5.345340e-01 5.379834e-01 5.413700e-01 5.446943e-01 5.479513e-01 5.511416e-01 5.542599e-01 5.573075e-01 5.602788e-01 5.631753e-01 5.659915e-01 5.687289e-01 5.713821e-01 5.739531e-01 5.764360e-01 5.788333e-01 5.811392e-01 5.833561e-01 5.854785e-01 5.875090e-01 5.894420e-01 5.912804e-01 5.930186e-01 5.946598e-01 5.961983e-01 5.976377e-01 5.989723e-01 6.002059e-01 6.013329e-01 6.023572e-01 6.032733e-01 6.040855e-01 6.047882e-01 6.053859e-01 6.058733e-01 6.062549e-01 6.065256e-01 6.066901e-01 6.067432e-01 6.066901e-01 6.065256e-01 6.062549e-01 6.058733e-01 6.053859e-01 6.047882e-01 6.040855e-01 6.032733e-01 6.023572e-01 6.013329e-01 6.002059e-01 5.989723e-01 5.976377e-01 5.961983e-01 5.946598e-01 5.930186e-01 5.912804e-01 5.894420e-01 5.875090e-01 5.854785e-01 5.833561e-01 5.811392e-01 5.788333e-01 5.764360e-01 5.739531e-01 5.713821e-01 5.687289e-01 5.659915e-01 5.631753e-01 5.602788e-01 5.573075e-01 5.542599e-01 5.511416e-01 5.479513e-01 5.446943e-01 5.413700e-01 5.379834e-01 5.345340e-01 5.310269e-01 5.274618e-01 5.238436e-01 5.201723e-01 5.164527e-01 5.126851e-01 5.088740e-01 5.050201e-01 5.011275e-01 4.971974e-01 4.932337e-01 4.892376e-01 4.852130e-01 4.811614e-01 4.770865e-01 4.729898e-01 4.688748e-01 4.647436e-01 4.605992e-01 4.564438e-01 4.522803e-01 4.481112e-01 4.439392e-01 4.397668e-01 4.355964e-01 4.314309e-01 4.272725e-01 4.231241e-01 4.189877e-01 4.148664e-01 4.107618e-01 4.066774e-01 4.026145e-01 3.985766e-01 3.945647e-01 3.905827e-01 3.866313e-01 3.827144e-01 3.788323e-01 3.749893e-01 3.711854e-01 3.674249e-01 3.637077e-01 3.600380e-01 3.564156e-01 3.528447e-01 3.493249e-01 3.458606e-01 3.424511e-01 3.391007e-01 3.358085e-01 3.325791e-01 3.294112e-01 3.263095e-01 3.232725e-01 3.203048e-01 3.174049e-01 3.145773e-01 3.118203e-01 3.091385e-01 3.065300e-01 3.039993e-01 3.015444e-01 2.991700e-01 2.968736e-01 2.946599e-01 2.925265e-01 2.904780e-01 2.885117e-01 2.866323e-01 2.848370e-01 2.831304e-01 2.815094e-01 2.799788e-01 2.785354e-01 2.771837e-01 2.759206e-01 2.747505e-01 2.736700e-01 2.726837e-01 2.717880e-01 2.709873e-01 2.702780e-01 2.696645e-01 2.691431e-01 2.687179e-01 2.683852e-01 2.681492e-01 2.680059e-01 
2.671168e-01 2.671637e-01 2.673083e-01 2.675466e-01 2.678824e-01 2.683117e-01 2.688381e-01 2.694574e-01 2.701733e-01 2.709815e-01 2.718855e-01 2.728810e-01 2.739714e-01 2.751522e-01 2.764269e-01 2.777907e-01 2.792471e-01 2.807913e-01 2.824266e-01 2.841481e-01 2.859590e-01 2.878546e-01 2.898376e-01 2.919033e-01 2.940545e-01 2.962864e-01 2.986016e-01 3.009952e-01 3.034697e-01 3.060203e-01 3.086492e-01 3.113516e-01 3.141296e-01 3.169784e-01 3.198999e-01 3.228894e-01 3.259484e-01 3.290723e-01 3.322626e-01 3.355145e-01 3.388294e-01 3.422026e-01 3.456351e-01 3.491224e-01 3.526652e-01 3.562591e-01 3.599047e-01 3.635976e-01 3.673380e-01 3.711217e-01 3.749487e-01 3.788148e-01 3.827199e-01 3.866598e-01 3.906342e-01 3.946390e-01 3.986736e-01 4.027341e-01 4.068196e-01 4.109263e-01 4.150531e-01 4.191965e-01 4.233550e-01 4.275251e-01 4.317052e-01 4.358921e-01 4.400837e-01 4.442772e-01 4.484701e-01 4.526598e-01 4.568437e-01 4.610193e-01 4.651837e-01 4.693347e-01 4.734692e-01 4.775851e-01 4.816791e-01 4.857494e-01 4.897924e-01 4.938067e-01 4.977883e-01 5.017361e-01 5.056460e-01 5.095170e-01 5.133449e-01 5.171289e-01 5.208647e-01 5.245518e-01 5.281855e-01 5.317658e-01 5.352878e-01 5.387517e-01 5.421525e-01 5.454907e-01 5.487611e-01 5.519645e-01 5.550957e-01 5.581557e-01 5.611392e-01 5.640474e-01 5.668749e-01 5.696234e-01 5.722872e-01 5.748684e-01 5.773612e-01 5.797680e-01 5.820829e-01 5.843086e-01 5.864393e-01 5.884778e-01 5.904183e-01 5.922638e-01 5.940088e-01 5.956563e-01 5.972008e-01 5.986458e-01 5.999855e-01 6.012238e-01 6.023551e-01 6.033833e-01 6.043030e-01 6.051182e-01 6.058237e-01 6.064237e-01 6.069129e-01 6.072960e-01 6.075677e-01 6.077328e-01 6.077862e-01 6.077328e-01 6.075677e-01 6.072960e-01 6.069129e-01 6.064237e-01 6.058237e-01 6.051182e-01 6.043030e-01 6.033833e-01 6.023551e-01 6.012238e-01 5.999855e-01 5.986458e-01 5.972008e-01 5.956563e-01 5.940088e-01 5.922638e-01 5.904183e-01 5.884778e-01 5.864393e-01 5.843086e-01 5.820829e-01 5.797680e-01 5.773612e-01 5.748684e-01 5.722872e-01 5.696234e-01 5.668749e-01 5.640474e-01 5.611392e-01 5.581557e-01 5.550957e-01 5.519645e-01 5.487611e-01 5.454907e-01 5.421525e-01 5.387517e-01 5.352878e-01 5.317658e-01 5.281855e-01 5.245518e-01 5.208647e-01 5.171289e-01 5.133449e-01 5.095170e-01 5.056460e-01 5.017361e-01 4.977883e-01 4.938067e-01 4.897924e-01 4.857494e-01 4.816791e-01 4.775851e-01 4.734692e-01 4.693347e-01 4.651837e-01 4.610193e-01 4.568437e-01 4.526598e-01 4.484701e-01 4.442772e-01 4.400837e-01 4.358921e-01 4.317052e-01 4.275251e-01 4.233550e-01 4.191965e-01 4.150531e-01 4.109263e-01 4.068196e-01 4.027341e-01 3.986736e-01 3.946390e-01 3.906342e-01 3.866598e-01 3.827199e-01 3.788148e-01 3.749487e-01 3.711217e-01 3.673380e-01 3.635976e-01 3.599047e-01 3.562591e-01 3.526652e-01 3.491224e-01 3.456351e-01 3.422026e-01 3.388294e-01 3.355145e-01 3.322626e-01 3.290723e-01 3.259484e-01 3.228894e-01 3.198999e-01 3.169784e-01 3.141296e-01 3.113516e-01 3.086492e-01 3.060203e-01 3.034697e-01 3.009952e-01 2.986016e-01 2.962864e-01 2.940545e-01 2.919033e-01 2.898376e-01 2.878546e-01 2.859590e-01 2.841481e-01 2.824266e-01 2.807913e-01 2.792471e-01 2.777907e-01 2.764269e-01 2.751522e-01 2.739714e-01 2.728810e-01 2.718855e-01 2.709815e-01 2.701733e-01 2.694574e-01 2.688381e-01 2.683117e-01 2.678824e-01 2.675466e-01 2.673083e-01 2.671637e-01 