# vtk DataFile Version 2.0
Comment goes here
ASCII

DATASET STRUCTURED_POINTS
FIELD FieldData 1
TIME 1 1 double
0.03000000
DIMENSIONS    256   256   1

ORIGIN    0.000   0.000   0.000
SPACING   0.0039062 0.0039062   1.000

POINT_DATA   65536
SCALARS uMag double
LOOKUP_TABLE default

2.350689e-01 2.351122e-01 2.352395e-01 2.354533e-01 2.357509e-01 2.361349e-01 2.366025e-01 2.371561e-01 2.377929e-01 2.385153e-01 2.393204e-01 2.402106e-01 2.411828e-01 2.422392e-01 2.433770e-01 2.445983e-01 2.458999e-01 2.472840e-01 2.487476e-01 2.502924e-01 2.519156e-01 2.536187e-01 2.553989e-01 2.572576e-01 2.591920e-01 2.612034e-01 2.632888e-01 2.654495e-01 2.676825e-01 2.699890e-01 2.723659e-01 2.748143e-01 2.773311e-01 2.799171e-01 2.825693e-01 2.852884e-01 2.880715e-01 2.909189e-01 2.938277e-01 2.967983e-01 2.998275e-01 3.029157e-01 3.060597e-01 3.092596e-01 3.125124e-01 3.158178e-01 3.191730e-01 3.225775e-01 3.260284e-01 3.295250e-01 3.330646e-01 3.366462e-01 3.402671e-01 3.439262e-01 3.476207e-01 3.513493e-01 3.551095e-01 3.588996e-01 3.627170e-01 3.665601e-01 3.704262e-01 3.743135e-01 3.782194e-01 3.821419e-01 3.860785e-01 3.900269e-01 3.939847e-01 3.979495e-01 4.019190e-01 4.058904e-01 4.098617e-01 4.138299e-01 4.177930e-01 4.217479e-01 4.256927e-01 4.296241e-01 4.335403e-01 4.374378e-01 4.413151e-01 4.451685e-01 4.489964e-01 4.527953e-01 4.565635e-01 4.602974e-01 4.639955e-01 4.676540e-01 4.712717e-01 4.748446e-01 4.783717e-01 4.818488e-01 4.852751e-01 4.886465e-01 4.919622e-01 4.952179e-01 4.984132e-01 5.015439e-01 5.046094e-01 5.076056e-01 5.105321e-01 5.133849e-01 5.161637e-01 5.188644e-01 5.214870e-01 5.240274e-01 5.264859e-01 5.288582e-01 5.311448e-01 5.333417e-01 5.354494e-01 5.374640e-01 5.393863e-01 5.412123e-01 5.429431e-01 5.445748e-01 5.461086e-01 5.475407e-01 5.488727e-01 5.501008e-01 5.512267e-01 5.522469e-01 5.531631e-01 5.539721e-01 5.546757e-01 5.552708e-01 5.557596e-01 5.561390e-01 5.564113e-01 5.565738e-01 5.566288e-01 5.565738e-01 5.564113e-01 5.561390e-01 5.557596e-01 5.552708e-01 5.546757e-01 5.539721e-01 5.531631e-01 5.522469e-01 5.512267e-01 5.501008e-01 5.488727e-01 5.475407e-01 5.461086e-01 5.445748e-01 5.429431e-01 5.412123e-01 5.393863e-01 5.374640e-01 5.354494e-01 5.333417e-01 5.311448e-01 5.288582e-01 5.264859e-01 5.240274e-01 5.214870e-01 5.188644e-01 5.161637e-01 5.133849e-01 5.105321e-01 5.076056e-01 5.046094e-01 5.015439e-01 4.984132e-01 4.952179e-01 4.919622e-01 4.886465e-01 4.852751e-01 4.818488e-01 4.783717e-01 4.748446e-01 4.712717e-01 4.676540e-01 4.639955e-01 4.602974e-01 4.565635e-01 4.527953e-01 4.489964e-01 4.451685e-01 4.413151e-01 4.374378e-01 4.335403e-01 4.296241e-01 4.256927e-01 4.217479e-01 4.177930e-01 4.138299e-01 4.098617e-01 4.058904e-01 4.019190e-01 3.979495e-01 3.939847e-01 3.900269e-01 3.860785e-01 3.821419e-01 3.782194e-01 3.743135e-01 3.704262e-01 3.665601e-01 3.627170e-01 3.588996e-01 3.551095e-01 3.513493e-01 3.476207e-01 3.439262e-01 3.402671e-01 3.366462e-01 3.330646e-01 3.295250e-01 3.260284e-01 3.225775e-01 3.191730e-01 3.158178e-01 3.125124e-01 3.092596e-01 3.060597e-01 3.029157e-01 2.998275e-01 2.967983e-01 2.938277e-01 2.909189e-01 2.880715e-01 2.852884e-01 2.825693e-01 2.799171e-01 2.773311e-01 2.748143e-01 2.723659e-01 2.699890e-01 2.676825e-01 2.654495e-01 2.632888e-01 2.612034e-01 2.591920e-01 2.572576e-01 2.553989e-01 2.536187e-01 2.519156e-01 2.502924e-01 2.487476e-01 2.472840e-01 2.458999e-01 2.445983e-01 2.433770e-01 2.422392e-01 2.411828e-01 2.402106e-01 2.393204e-01 2.385153e-01 2.377929e-01 2.371561e-01 2.366025e-01 2.361349e-01 2.357509e-01 2.354533e-01 2.352395e-01 2.351122e-01 
2.355726e-01 2.356157e-01 2.357423e-01 2.359551e-01 2.362512e-01 2.366333e-01 2.370986e-01 2.376495e-01 2.382832e-01 2.390020e-01 2.398032e-01 2.406890e-01 2.416565e-01 2.427079e-01 2.438402e-01 2.450557e-01 2.463512e-01 2.477288e-01 2.491855e-01 2.507232e-01 2.523388e-01 2.540342e-01 2.558063e-01 2.576567e-01 2.595824e-01 2.615849e-01 2.636611e-01 2.658124e-01 2.680358e-01 2.703323e-01 2.726991e-01 2.751371e-01 2.776433e-01 2.802186e-01 2.828599e-01 2.855679e-01 2.883396e-01 2.911755e-01 2.940726e-01 2.970313e-01 3.000486e-01 3.031246e-01 3.062563e-01 3.094437e-01 3.126839e-01 3.159766e-01 3.193189e-01 3.227104e-01 3.261481e-01 3.296315e-01 3.331577e-01 3.367258e-01 3.403331e-01 3.439784e-01 3.476590e-01 3.513737e-01 3.551197e-01 3.588956e-01 3.626988e-01 3.665274e-01 3.703790e-01 3.742517e-01 3.781430e-01 3.820506e-01 3.859724e-01 3.899058e-01 3.938486e-01 3.977983e-01 4.017525e-01 4.057087e-01 4.096647e-01 4.136176e-01 4.175652e-01 4.215047e-01 4.254340e-01 4.293499e-01 4.332505e-01 4.371325e-01 4.409942e-01 4.448321e-01 4.486445e-01 4.524278e-01 4.561806e-01 4.598990e-01 4.635818e-01 4.672250e-01 4.708275e-01 4.743852e-01 4.778973e-01 4.813595e-01 4.847710e-01 4.881278e-01 4.914289e-01 4.946704e-01 4.978516e-01 5.009683e-01 5.040201e-01 5.070028e-01 5.099161e-01 5.127559e-01 5.155220e-01 5.182103e-01 5.208208e-01 5.233494e-01 5.257963e-01 5.281575e-01 5.304333e-01 5.326198e-01 5.347175e-01 5.367225e-01 5.386356e-01 5.404528e-01 5.421752e-01 5.437990e-01 5.453253e-01 5.467505e-01 5.480760e-01 5.492981e-01 5.504184e-01 5.514336e-01 5.523453e-01 5.531502e-01 5.538504e-01 5.544426e-01 5.549289e-01 5.553064e-01 5.555774e-01 5.557390e-01 5.557938e-01 5.557390e-01 5.555774e-01 5.553064e-01 5.549289e-01 5.544426e-01 5.538504e-01 5.531502e-01 5.523453e-01 5.514336e-01 5.504184e-01 5.492981e-01 5.480760e-01 5.467505e-01 5.453253e-01 5.437990e-01 5.421752e-01 5.404528e-01 5.386356e-01 5.367225e-01 5.347175e-01 5.326198e-01 5.304333e-01 5.281575e-01 5.257963e-01 5.233494e-01 5.208208e-01 5.182103e-01 5.155220e-01 5.127559e-01 5.099161e-01 5.070028e-01 5.040201e-01 5.009683e-01 4.978516e-01 4.946704e-01 4.914289e-01 4.881278e-01 4.847710e-01 4.813595e-01 4.778973e-01 4.743852e-01 4.708275e-01 4.672250e-01 4.635818e-01 4.598990e-01 4.561806e-01 4.524278e-01 4.486445e-01 4.448321e-01 4.409942e-01 4.371325e-01 4.332505e-01 4.293499e-01 4.254340e-01 4.215047e-01 4.175652e-01 4.136176e-01 4.096647e-01 4.057087e-01 4.017525e-01 3.977983e-01 3.938486e-01 3.899058e-01 3.859724e-01 3.820506e-01 3.781430e-01 3.742517e-01 3.703790e-01 3.665274e-01 3.626988e-01 3.588956e-01 3.551197e-01 3.513737e-01 3.476590e-01 3.439784e-01 3.403331e-01 3.367258e-01 3.331577e-01 3.296315e-01 3.261481e-01 3.227104e-01 3.193189e-01 3.159766e-01 3.126839e-01 3.094437e-01 3.062563e-01 3.031246e-01 3.000486e-01 2.970313e-01 2.940726e-01 2.911755e-01 2.883396e-01 2.855679e-01 2.828599e-01 2.802186e-01 2.776433e-01 2.751371e-01 2.726991e-01 2.703323e-01 2.680358e-01 2.658124e-01 2.636611e-01 2.615849e-01 2.595824e-01 2.576567e-01 2.558063e-01 2.540342e-01 2.523388e-01 2.507232e-01 2.491855e-01 2.477288e-01 2.463512e-01 2.450557e-01 2.438402e-01 2.427079e-01 2.416565e-01 2.406890e-01 2.398032e-01 2.390020e-01 2.382832e-01 2.376495e-01 2.370986e-01 2.366333e-01 2.362512e-01 2.359551e-01 2.357423e-01 2.356157e-01 
2.359918e-01 2.360347e-01 2.361608e-01 2.363727e-01 2.366677e-01 2.370483e-01 2.375118e-01 2.380605e-01 2.386917e-01 2.394078e-01 2.402059e-01 2.410882e-01 2.420520e-01 2.430994e-01 2.442274e-01 2.454383e-01 2.467289e-01 2.481014e-01 2.495526e-01 2.510847e-01 2.526944e-01 2.543836e-01 2.561493e-01 2.579930e-01 2.599119e-01 2.619072e-01 2.639762e-01 2.661200e-01 2.683356e-01 2.706243e-01 2.729830e-01 2.754127e-01 2.779104e-01 2.804771e-01 2.831095e-01 2.858086e-01 2.885712e-01 2.913978e-01 2.942855e-01 2.972346e-01 3.002422e-01 3.033083e-01 3.064300e-01 3.096073e-01 3.128372e-01 3.161195e-01 3.194513e-01 3.228321e-01 3.262590e-01 3.297315e-01 3.332466e-01 3.368035e-01 3.403995e-01 3.440333e-01 3.477024e-01 3.514055e-01 3.551397e-01 3.589037e-01 3.626949e-01 3.665114e-01 3.703508e-01 3.742111e-01 3.780899e-01 3.819850e-01 3.858941e-01 3.898148e-01 3.937447e-01 3.976815e-01 4.016227e-01 4.055658e-01 4.095086e-01 4.134482e-01 4.173825e-01 4.213086e-01 4.252244e-01 4.291268e-01 4.330139e-01 4.368823e-01 4.407304e-01 4.445546e-01 4.483534e-01 4.521231e-01 4.558622e-01 4.595670e-01 4.632362e-01 4.668659e-01 4.704549e-01 4.739992e-01 4.774979e-01 4.809468e-01 4.843452e-01 4.876889e-01 4.909771e-01 4.942058e-01 4.973743e-01 5.004785e-01 5.035180e-01 5.064886e-01 5.093900e-01 5.122181e-01 5.149728e-01 5.176498e-01 5.202494e-01 5.227673e-01 5.252039e-01 5.275550e-01 5.298211e-01 5.319981e-01 5.340868e-01 5.360830e-01 5.379877e-01 5.397970e-01 5.415118e-01 5.431284e-01 5.446479e-01 5.460668e-01 5.473863e-01 5.486029e-01 5.497183e-01 5.507288e-01 5.516364e-01 5.524377e-01 5.531347e-01 5.537242e-01 5.542083e-01 5.545841e-01 5.548539e-01 5.550148e-01 5.550693e-01 5.550148e-01 5.548539e-01 5.545841e-01 5.542083e-01 5.537242e-01 5.531347e-01 5.524377e-01 5.516364e-01 5.507288e-01 5.497183e-01 5.486029e-01 5.473863e-01 5.460668e-01 5.446479e-01 5.431284e-01 5.415118e-01 5.397970e-01 5.379877e-01 5.360830e-01 5.340868e-01 5.319981e-01 5.298211e-01 5.275550e-01 5.252039e-01 5.227673e-01 5.202494e-01 5.176498e-01 5.149728e-01 5.122181e-01 5.093900e-01 5.064886e-01 5.035180e-01 5.004785e-01 4.973743e-01 4.942058e-01 4.909771e-01 4.876889e-01 4.843452e-01 4.809468e-01 4.774979e-01 4.739992e-01 4.704549e-01 4.668659e-01 4.632362e-01 4.595670e-01 4.558622e-01 4.521231e-01 4.483534e-01 4.445546e-01 4.407304e-01 4.368823e-01 4.330139e-01 4.291268e-01 4.252244e-01 4.213086e-01 4.173825e-01 4.134482e-01 4.095086e-01 4.055658e-01 4.016227e-01 3.976815e-01 3.937447e-01 3.898148e-01 3.858941e-01 3.819850e-01 3.780899e-01 3.742111e-01 3.703508e-01 3.665114e-01 3.626949e-01 3.589037e-01 3.551397e-01 3.514055e-01 3.477024e-01 3.440333e-01 3.403995e-01 3.368035e-01 3.332466e-01 3.297315e-01 3.262590e-01 3.228321e-01 3.194513e-01 3.161195e-01 3.128372e-01 3.096073e-01 3.064300e-01 3.033083e-01 3.002422e-01 2.972346e-01 2.942855e-01 2.913978e-01 2.885712e-01 2.858086e-01 2.831095e-01 2.804771e-01 2.779104e-01 2.754127e-01 2.729830e-01 2.706243e-01 2.683356e-01 2.661200e-01 2.639762e-01 2.619072e-01 2.599119e-01 2.579930e-01 2.561493e-01 2.543836e-01 2.526944e-01 2.510847e-01 2.495526e-01 2.481014e-01 2.467289e-01 2.454383e-01 2.442274e-01 2.430994e-01 2.420520e-01 2.410882e-01 2.402059e-01 2.394078e-01 2.386917e-01 2.380605e-01 2.375118e-01 2.370483e-01 2.366677e-01 2.363727e-01 2.361608e-01 2.360347e-01 
2.363276e-01 2.363704e-01 2.364962e-01 2.367075e-01 2.370016e-01 2.373811e-01 2.378432e-01 2.383904e-01 2.390198e-01 2.397338e-01 2.405296e-01 2.414095e-01 2.423705e-01 2.434149e-01 2.445398e-01 2.457473e-01 2.470343e-01 2.484030e-01 2.498503e-01 2.513781e-01 2.529835e-01 2.546681e-01 2.564290e-01 2.582679e-01 2.601816e-01 2.621717e-01 2.642352e-01 2.663734e-01 2.685833e-01 2.708661e-01 2.732187e-01 2.756422e-01 2.781336e-01 2.806937e-01 2.833195e-01 2.860118e-01 2.887674e-01 2.915870e-01 2.944675e-01 2.974093e-01 3.004094e-01 3.034680e-01 3.065820e-01 3.097514e-01 3.129733e-01 3.162475e-01 3.195711e-01 3.229435e-01 3.263620e-01 3.298258e-01 3.333322e-01 3.368803e-01 3.404673e-01 3.440920e-01 3.477519e-01 3.514456e-01 3.551704e-01 3.589247e-01 3.627061e-01 3.665128e-01 3.703422e-01 3.741924e-01 3.780610e-01 3.819458e-01 3.858444e-01 3.897544e-01 3.936737e-01 3.975996e-01 4.015300e-01 4.054620e-01 4.093937e-01 4.133221e-01 4.172451e-01 4.211598e-01 4.250641e-01 4.289550e-01 4.328305e-01 4.366872e-01 4.405236e-01 4.443361e-01 4.481230e-01 4.518809e-01 4.556081e-01 4.593011e-01 4.629584e-01 4.665762e-01 4.701533e-01 4.736859e-01 4.771728e-01 4.806100e-01 4.839967e-01 4.873288e-01 4.906056e-01 4.938229e-01 4.969802e-01 5.000733e-01 5.031018e-01 5.060615e-01 5.089523e-01 5.117699e-01 5.145143e-01 5.171813e-01 5.197710e-01 5.222793e-01 5.247065e-01 5.270485e-01 5.293058e-01 5.314743e-01 5.335548e-01 5.355431e-01 5.374402e-01 5.392423e-01 5.409502e-01 5.425602e-01 5.440737e-01 5.454867e-01 5.468009e-01 5.480125e-01 5.491233e-01 5.501297e-01 5.510335e-01 5.518315e-01 5.525256e-01 5.531126e-01 5.535947e-01 5.539690e-01 5.542376e-01 5.543978e-01 5.544521e-01 5.543978e-01 5.542376e-01 5.539690e-01 5.535947e-01 5.531126e-01 5.525256e-01 5.518315e-01 5.510335e-01 5.501297e-01 5.491233e-01 5.480125e-01 5.468009e-01 5.454867e-01 5.440737e-01 5.425602e-01 5.409502e-01 5.392423e-01 5.374402e-01 5.355431e-01 5.335548e-01 5.314743e-01 5.293058e-01 5.270485e-01 5.247065e-01 5.222793e-01 5.197710e-01 5.171813e-01 5.145143e-01 5.117699e-01 5.089523e-01 5.060615e-01 5.031018e-01 5.000733e-01 4.969802e-01 4.938229e-01 4.906056e-01 4.873288e-01 4.839967e-01 4.806100e-01 4.771728e-01 4.736859e-01 4.701533e-01 4.665762e-01 4.629584e-01 4.593011e-01 4.556081e-01 4.518809e-01 4.481230e-01 4.443361e-01 4.405236e-01 4.366872e-01 4.328305e-01 4.289550e-01 4.250641e-01 4.211598e-01 4.172451e-01 4.133221e-01 4.093937e-01 4.054620e-01 4.015300e-01 3.975996e-01 3.936737e-01 3.897544e-01 3.858444e-01 3.819458e-01 3.780610e-01 3.741924e-01 3.703422e-01 3.665128e-01 3.627061e-01 3.589247e-01 3.551704e-01 3.514456e-01 3.477519e-01 3.440920e-01 3.404673e-01 3.368803e-01 3.333322e-01 3.298258e-01 3.263620e-01 3.229435e-01 3.195711e-01 3.162475e-01 3.129733e-01 3.097514e-01 3.065820e-01 3.034680e-01 3.004094e-01 2.974093e-01 2.944675e-01 2.915870e-01 2.887674e-01 2.860118e-01 2.833195e-01 2.806937e-01 2.781336e-01 2.756422e-01 2.732187e-01 2.708661e-01 2.685833e-01 2.663734e-01 2.642352e-01 2.621717e-01 2.601816e-01 2.582679e-01 2.564290e-01 2.546681e-01 2.529835e-01 2.513781e-01 2.498503e-01 2.484030e-01 2.470343e-01 2.457473e-01 2.445398e-01 2.434149e-01 2.423705e-01 2.414095e-01 2.405296e-01 2.397338e-01 2.390198e-01 2.383904e-01 2.378432e-01 2.373811e-01 2.370016e-01 2.367075e-01 2.364962e-01 2.363704e-01 
2.365789e-01 2.366217e-01 2.367472e-01 2.369581e-01 2.372517e-01 2.376305e-01 2.380918e-01 2.386379e-01 2.392662e-01 2.399789e-01 2.407732e-01 2.416515e-01 2.426108e-01 2.436534e-01 2.447762e-01 2.459815e-01 2.472662e-01 2.486325e-01 2.500772e-01 2.516023e-01 2.532048e-01 2.548865e-01 2.566444e-01 2.584800e-01 2.603904e-01 2.623770e-01 2.644370e-01 2.665715e-01 2.687775e-01 2.710564e-01 2.734050e-01 2.758243e-01 2.783114e-01 2.808672e-01 2.834885e-01 2.861762e-01 2.889271e-01 2.917418e-01 2.946174e-01 2.975542e-01 3.005491e-01 3.036023e-01 3.067109e-01 3.098748e-01 3.130911e-01 3.163595e-01 3.196772e-01 3.230436e-01 3.264559e-01 3.299135e-01 3.334135e-01 3.369551e-01 3.405354e-01 3.441534e-01 3.478064e-01 3.514930e-01 3.552106e-01 3.589576e-01 3.627316e-01 3.665306e-01 3.703523e-01 3.741947e-01 3.780553e-01 3.819319e-01 3.858223e-01 3.897240e-01 3.936347e-01 3.975520e-01 4.014736e-01 4.053967e-01 4.093194e-01 4.132386e-01 4.171525e-01 4.210578e-01 4.249527e-01 4.288339e-01 4.326998e-01 4.365468e-01 4.403734e-01 4.441760e-01 4.479530e-01 4.517009e-01 4.554181e-01 4.591010e-01 4.627482e-01 4.663558e-01 4.699228e-01 4.734452e-01 4.769220e-01 4.803492e-01 4.837258e-01 4.870479e-01 4.903147e-01 4.935221e-01 4.966695e-01 4.997529e-01 5.027718e-01 5.057221e-01 5.086035e-01 5.114119e-01 5.141472e-01 5.168053e-01 5.193864e-01 5.218862e-01 5.243051e-01 5.266391e-01 5.288886e-01 5.310495e-01 5.331226e-01 5.351040e-01 5.369943e-01 5.387899e-01 5.404917e-01 5.420959e-01 5.436038e-01 5.450117e-01 5.463211e-01 5.475283e-01 5.486349e-01 5.496376e-01 5.505380e-01 5.513331e-01 5.520245e-01 5.526094e-01 5.530897e-01 5.534625e-01 5.537301e-01 5.538897e-01 5.539438e-01 5.538897e-01 5.537301e-01 5.534625e-01 5.530897e-01 5.526094e-01 5.520245e-01 5.513331e-01 5.505380e-01 5.496376e-01 5.486349e-01 5.475283e-01 5.463211e-01 5.450117e-01 5.436038e-01 5.420959e-01 5.404917e-01 5.387899e-01 5.369943e-01 5.351040e-01 5.331226e-01 5.310495e-01 5.288886e-01 5.266391e-01 5.243051e-01 5.218862e-01 5.193864e-01 5.168053e-01 5.141472e-01 5.114119e-01 5.086035e-01 5.057221e-01 5.027718e-01 4.997529e-01 4.966695e-01 4.935221e-01 4.903147e-01 4.870479e-01 4.837258e-01 4.803492e-01 4.769220e-01 4.734452e-01 4.699228e-01 4.663558e-01 4.627482e-01 4.591010e-01 4.554181e-01 4.517009e-01 4.479530e-01 4.441760e-01 4.403734e-01 4.365468e-01 4.326998e-01 4.288339e-01 4.249527e-01 4.210578e-01 4.171525e-01 4.132386e-01 4.093194e-01 4.053967e-01 4.014736e-01 3.975520e-01 3.936347e-01 3.897240e-01 3.858223e-01 3.819319e-01 3.780553e-01 3.741947e-01 3.703523e-01 3.665306e-01 3.627316e-01 3.589576e-01 3.552106e-01 3.514930e-01 3.478064e-01 3.441534e-01 3.405354e-01 3.369551e-01 3.334135e-01 3.299135e-01 3.264559e-01 3.230436e-01 3.196772e-01 3.163595e-01 3.130911e-01 3.098748e-01 3.067109e-01 3.036023e-01 3.005491e-01 2.975542e-01 2.946174e-01 2.917418e-01 2.889271e-01 2.861762e-01 2.834885e-01 2.808672e-01 2.783114e-01 2.758243e-01 2.734050e-01 2.710564e-01 2.687775e-01 2.665715e-01 2.644370e-01 2.623770e-01 2.603904e-01 2.584800e-01 2.566444e-01 2.548865e-01 2.532048e-01 2.516023e-01 2.500772e-01 2.486325e-01 2.472662e-01 2.459815e-01 2.447762e-01 2.436534e-01 2.426108e-01 2.416515e-01 2.407732e-01 2.399789e-01 2.392662e-01 2.386379e-01 2.380918e-01 2.376305e-01 2.372517e-01 2.369581e-01 2.367472e-01 2.366217e-01 
2.367469e-01 2.367896e-01 2.369150e-01 2.371258e-01 2.374191e-01 2.377977e-01 2.382585e-01 2.388043e-01 2.394320e-01 2.401442e-01 2.409379e-01 2.418155e-01 2.427740e-01 2.438158e-01 2.449377e-01 2.461420e-01 2.474258e-01 2.487909e-01 2.502345e-01 2.517584e-01 2.533596e-01 2.550399e-01 2.567963e-01 2.586305e-01 2.605393e-01 2.625243e-01 2.645825e-01 2.667153e-01 2.689195e-01 2.711964e-01 2.735429e-01 2.759602e-01 2.784451e-01 2.809986e-01 2.836176e-01 2.863028e-01 2.890513e-01 2.918634e-01 2.947363e-01 2.976702e-01 3.006622e-01 3.037124e-01 3.068179e-01 3.099786e-01 3.131916e-01 3.164565e-01 3.197706e-01 3.231333e-01 3.265419e-01 3.299955e-01 3.334915e-01 3.370288e-01 3.406048e-01 3.442183e-01 3.478667e-01 3.515485e-01 3.552612e-01 3.590033e-01 3.627720e-01 3.665658e-01 3.703820e-01 3.742187e-01 3.780735e-01 3.819443e-01 3.858285e-01 3.897240e-01 3.936284e-01 3.975391e-01 4.014540e-01 4.053704e-01 4.092861e-01 4.131982e-01 4.171048e-01 4.210028e-01 4.248902e-01 4.287639e-01 4.326220e-01 4.364612e-01 4.402799e-01 4.440744e-01 4.478433e-01 4.515830e-01 4.552919e-01 4.589664e-01 4.626052e-01 4.662044e-01 4.697629e-01 4.732768e-01 4.767450e-01 4.801636e-01 4.835316e-01 4.868452e-01 4.901034e-01 4.933023e-01 4.964414e-01 4.995163e-01 5.025269e-01 5.054690e-01 5.083422e-01 5.111426e-01 5.138701e-01 5.165204e-01 5.190938e-01 5.215862e-01 5.239979e-01 5.263248e-01 5.285673e-01 5.307216e-01 5.327883e-01 5.347634e-01 5.366478e-01 5.384376e-01 5.401339e-01 5.417330e-01 5.432360e-01 5.446393e-01 5.459444e-01 5.471476e-01 5.482505e-01 5.492499e-01 5.501474e-01 5.509397e-01 5.516289e-01 5.522117e-01 5.526904e-01 5.530620e-01 5.533287e-01 5.534878e-01 5.535417e-01 5.534878e-01 5.533287e-01 5.530620e-01 5.526904e-01 5.522117e-01 5.516289e-01 5.509397e-01 5.501474e-01 5.492499e-01 5.482505e-01 5.471476e-01 5.459444e-01 5.446393e-01 5.432360e-01 5.417330e-01 5.401339e-01 5.384376e-01 5.366478e-01 5.347634e-01 5.327883e-01 5.307216e-01 5.285673e-01 5.263248e-01 5.239979e-01 5.215862e-01 5.190938e-01 5.165204e-01 5.138701e-01 5.111426e-01 5.083422e-01 5.054690e-01 5.025269e-01 4.995163e-01 4.964414e-01 4.933023e-01 4.901034e-01 4.868452e-01 4.835316e-01 4.801636e-01 4.767450e-01 4.732768e-01 4.697629e-01 4.662044e-01 4.626052e-01 4.589664e-01 4.552919e-01 4.515830e-01 4.478433e-01 4.440744e-01 4.402799e-01 4.364612e-01 4.326220e-01 4.287639e-01 4.248902e-01 4.210028e-01 4.171048e-01 4.131982e-01 4.092861e-01 4.053704e-01 4.014540e-01 3.975391e-01 3.936284e-01 3.897240e-01 3.858285e-01 3.819443e-01 3.780735e-01 3.742187e-01 3.703820e-01 3.665658e-01 3.627720e-01 3.590033e-01 3.552612e-01 3.515485e-01 3.478667e-01 3.442183e-01 3.406048e-01 3.370288e-01 3.334915e-01 3.299955e-01 3.265419e-01 3.231333e-01 3.197706e-01 3.164565e-01 3.131916e-01 3.099786e-01 3.068179e-01 3.037124e-01 3.006622e-01 2.976702e-01 2.947363e-01 2.918634e-01 2.890513e-01 2.863028e-01 2.836176e-01 2.809986e-01 2.784451e-01 2.759602e-01 2.735429e-01 2.711964e-01 2.689195e-01 2.667153e-01 2.645825e-01 2.625243e-01 2.605393e-01 2.586305e-01 2.567963e-01 2.550399e-01 2.533596e-01 2.517584e-01 2.502345e-01 2.487909e-01 2.474258e-01 2.461420e-01 2.449377e-01 2.438158e-01 2.427740e-01 2.418155e-01 2.409379e-01 2.401442e-01 2.394320e-01 2.388043e-01 2.382585e-01 2.377977e-01 2.374191e-01 2.371258e-01 2.369150e-01 2.367896e-01 
2.368304e-01 2.368731e-01 2.369985e-01 2.372094e-01 2.375028e-01 2.378814e-01 2.383424e-01 2.388883e-01 2.395162e-01 2.402286e-01 2.410224e-01 2.419003e-01 2.428590e-01 2.439010e-01 2.450232e-01 2.462278e-01 2.475117e-01 2.488772e-01 2.503210e-01 2.518452e-01 2.534466e-01 2.551272e-01 2.568838e-01 2.587182e-01 2.606272e-01 2.626124e-01 2.646708e-01 2.668036e-01 2.690079e-01 2.712849e-01 2.736315e-01 2.760488e-01 2.785336e-01 2.810870e-01 2.837058e-01 2.863907e-01 2.891388e-01 2.919506e-01 2.948230e-01 2.977564e-01 3.007478e-01 3.037973e-01 3.069020e-01 3.100617e-01 3.132737e-01 3.165375e-01 3.198504e-01 3.232118e-01 3.266188e-01 3.300709e-01 3.335651e-01 3.371006e-01 3.406746e-01 3.442860e-01 3.479320e-01 3.516114e-01 3.553216e-01 3.590609e-01 3.628267e-01 3.666174e-01 3.704304e-01 3.742638e-01 3.781151e-01 3.819821e-01 3.858625e-01 3.897539e-01 3.936541e-01 3.975604e-01 4.014708e-01 4.053825e-01 4.092933e-01 4.132005e-01 4.171019e-01 4.209945e-01 4.248765e-01 4.287445e-01 4.325969e-01 4.364302e-01 4.402428e-01 4.440312e-01 4.477938e-01 4.515271e-01 4.552295e-01 4.588974e-01 4.625295e-01 4.661220e-01 4.696737e-01 4.731806e-01 4.766419e-01 4.800535e-01 4.834146e-01 4.867211e-01 4.899723e-01 4.931641e-01 4.962961e-01 4.993641e-01 5.023677e-01 5.053029e-01 5.081693e-01 5.109629e-01 5.136836e-01 5.163274e-01 5.188943e-01 5.213803e-01 5.237858e-01 5.261066e-01 5.283432e-01 5.304917e-01 5.325528e-01 5.345225e-01 5.364018e-01 5.381867e-01 5.398782e-01 5.414728e-01 5.429716e-01 5.443709e-01 5.456722e-01 5.468719e-01 5.479717e-01 5.489681e-01 5.498630e-01 5.506530e-01 5.513401e-01 5.519213e-01 5.523985e-01 5.527690e-01 5.530349e-01 5.531935e-01 5.532473e-01 5.531935e-01 5.530349e-01 5.527690e-01 5.523985e-01 5.519213e-01 5.513401e-01 5.506530e-01 5.498630e-01 5.489681e-01 5.479717e-01 5.468719e-01 5.456722e-01 5.443709e-01 5.429716e-01 5.414728e-01 5.398782e-01 5.381867e-01 5.364018e-01 5.345225e-01 5.325528e-01 5.304917e-01 5.283432e-01 5.261066e-01 5.237858e-01 5.213803e-01 5.188943e-01 5.163274e-01 5.136836e-01 5.109629e-01 5.081693e-01 5.053029e-01 5.023677e-01 4.993641e-01 4.962961e-01 4.931641e-01 4.899723e-01 4.867211e-01 4.834146e-01 4.800535e-01 4.766419e-01 4.731806e-01 4.696737e-01 4.661220e-01 4.625295e-01 4.588974e-01 4.552295e-01 4.515271e-01 4.477938e-01 4.440312e-01 4.402428e-01 4.364302e-01 4.325969e-01 4.287445e-01 4.248765e-01 4.209945e-01 4.171019e-01 4.132005e-01 4.092933e-01 4.053825e-01 4.014708e-01 3.975604e-01 3.936541e-01 3.897539e-01 3.858625e-01 3.819821e-01 3.781151e-01 3.742638e-01 3.704304e-01 3.666174e-01 3.628267e-01 3.590609e-01 3.553216e-01 3.516114e-01 3.479320e-01 3.442860e-01 3.406746e-01 3.371006e-01 3.335651e-01 3.300709e-01 3.266188e-01 3.232118e-01 3.198504e-01 3.165375e-01 3.132737e-01 3.100617e-01 3.069020e-01 3.037973e-01 3.007478e-01 2.977564e-01 2.948230e-01 2.919506e-01 2.891388e-01 2.863907e-01 2.837058e-01 2.810870e-01 2.785336e-01 2.760488e-01 2.736315e-01 2.712849e-01 2.690079e-01 2.668036e-01 2.646708e-01 2.626124e-01 2.606272e-01 2.587182e-01 2.568838e-01 2.551272e-01 2.534466e-01 2.518452e-01 2.503210e-01 2.488772e-01 2.475117e-01 2.462278e-01 2.450232e-01 2.439010e-01 2.428590e-01 2.419003e-01 2.410224e-01 2.402286e-01 2.395162e-01 2.388883e-01 2.383424e-01 2.378814e-01 2.375028e-01 2.372094e-01 2.369985e-01 2.368731e-01 
2.368303e-01 2.368731e-01 2.369987e-01 2.372098e-01 2.375036e-01 2.378827e-01 2.383443e-01 2.388909e-01 2.395196e-01 2.402329e-01 2.410278e-01 2.419068e-01 2.428667e-01 2.439100e-01 2.450336e-01 2.462397e-01 2.475252e-01 2.488922e-01 2.503377e-01 2.518636e-01 2.534669e-01 2.551493e-01 2.569079e-01 2.587442e-01 2.606552e-01 2.626424e-01 2.647028e-01 2.668377e-01 2.690440e-01 2.713231e-01 2.736717e-01 2.760910e-01 2.785779e-01 2.811332e-01 2.837540e-01 2.864409e-01 2.891909e-01 2.920045e-01 2.948787e-01 2.978138e-01 3.008069e-01 3.038579e-01 3.069641e-01 3.101253e-01 3.133385e-01 3.166036e-01 3.199175e-01 3.232799e-01 3.266878e-01 3.301406e-01 3.336354e-01 3.371714e-01 3.407457e-01 3.443572e-01 3.480033e-01 3.516826e-01 3.553925e-01 3.591313e-01 3.628965e-01 3.666864e-01 3.704985e-01 3.743307e-01 3.781806e-01 3.820461e-01 3.859248e-01 3.898143e-01 3.937125e-01 3.976166e-01 4.015245e-01 4.054336e-01 4.093416e-01 4.132457e-01 4.171440e-01 4.210333e-01 4.249117e-01 4.287761e-01 4.326246e-01 4.364539e-01 4.402623e-01 4.440463e-01 4.478045e-01 4.515331e-01 4.552308e-01 4.588938e-01 4.625210e-01 4.661083e-01 4.696548e-01 4.731564e-01 4.766123e-01 4.800184e-01 4.833740e-01 4.866749e-01 4.899205e-01 4.931067e-01 4.962330e-01 4.992953e-01 5.022932e-01 5.052227e-01 5.080834e-01 5.108714e-01 5.135866e-01 5.162249e-01 5.187864e-01 5.212670e-01 5.236672e-01 5.259829e-01 5.282145e-01 5.303582e-01 5.324145e-01 5.343796e-01 5.362544e-01 5.380351e-01 5.397226e-01 5.413133e-01 5.428084e-01 5.442042e-01 5.455023e-01 5.466990e-01 5.477961e-01 5.487900e-01 5.496825e-01 5.504705e-01 5.511559e-01 5.517356e-01 5.522116e-01 5.525811e-01 5.528463e-01 5.530045e-01 5.530581e-01 5.530045e-01 5.528463e-01 5.525811e-01 5.522116e-01 5.517356e-01 5.511559e-01 5.504705e-01 5.496825e-01 5.487900e-01 5.477961e-01 5.466990e-01 5.455023e-01 5.442042e-01 5.428084e-01 5.413133e-01 5.397226e-01 5.380351e-01 5.362544e-01 5.343796e-01 5.324145e-01 5.303582e-01 5.282145e-01 5.259829e-01 5.236672e-01 5.212670e-01 5.187864e-01 5.162249e-01 5.135866e-01 5.108714e-01 5.080834e-01 5.052227e-01 5.022932e-01 4.992953e-01 4.962330e-01 4.931067e-01 4.899205e-01 4.866749e-01 4.833740e-01 4.800184e-01 4.766123e-01 4.731564e-01 4.696548e-01 4.661083e-01 4.625210e-01 4.588938e-01 4.552308e-01 4.515331e-01 4.478045e-01 4.440463e-01 4.402623e-01 4.364539e-01 4.326246e-01 4.287761e-01 4.249117e-01 4.210333e-01 4.171440e-01 4.132457e-01 4.093416e-01 4.054336e-01 4.015245e-01 3.976166e-01 3.937125e-01 3.898143e-01 3.859248e-01 3.820461e-01 3.781806e-01 3.743307e-01 3.704985e-01 3.666864e-01 3.628965e-01 3.591313e-01 3.553925e-01 3.516826e-01 3.480033e-01 3.443572e-01 3.407457e-01 3.371714e-01 3.336354e-01 3.301406e-01 3.266878e-01 3.232799e-01 3.199175e-01 3.166036e-01 3.133385e-01 3.101253e-01 3.069641e-01 3.038579e-01 3.008069e-01 2.978138e-01 2.948787e-01 2.920045e-01 2.891909e-01 2.864409e-01 2.837540e-01 2.811332e-01 2.785779e-01 2.760910e-01 2.736717e-01 2.713231e-01 2.690440e-01 2.668377e-01 2.647028e-01 2.626424e-01 2.606552e-01 2.587442e-01 2.569079e-01 2.551493e-01 2.534669e-01 2.518636e-01 2.503377e-01 2.488922e-01 2.475252e-01 2.462397e-01 2.450336e-01 2.439100e-01 2.428667e-01 2.419068e-01 2.410278e-01 2.402329e-01 2.395196e-01 2.388909e-01 2.383443e-01 2.378827e-01 2.375036e-01 2.372098e-01 2.369987e-01 2.368731e-01 