# vtk DataFile Version 2.0
Comment goes here
ASCII

DATASET STRUCTURED_POINTS
FIELD FieldData 1
TIME 1 1 double
0.04000000
DIMENSIONS    256   256   1

ORIGIN    0.000   0.000   0.000
SPACING   0.0039062 0.0039062   1.000

POINT_DATA   65536
SCALARS uMag double
LOOKUP_TABLE default

2.942729e-01 2.943257e-01 2.944794e-01 2.947386e-01 2.950985e-01 2.955637e-01 2.961293e-01 2.967997e-01 2.975701e-01 2.984448e-01 2.994188e-01 3.004963e-01 3.016724e-01 3.029510e-01 3.043273e-01 3.058050e-01 3.073793e-01 3.090537e-01 3.108234e-01 3.126919e-01 3.146541e-01 3.167135e-01 3.188650e-01 3.211119e-01 3.234492e-01 3.258797e-01 3.283986e-01 3.310087e-01 3.337050e-01 3.364900e-01 3.393589e-01 3.423140e-01 3.453504e-01 3.484701e-01 3.516685e-01 3.549472e-01 3.583015e-01 3.617331e-01 3.652372e-01 3.688150e-01 3.724621e-01 3.761793e-01 3.799622e-01 3.838114e-01 3.877226e-01 3.916961e-01 3.957276e-01 3.998172e-01 4.039607e-01 4.081579e-01 4.124047e-01 4.167005e-01 4.210414e-01 4.254266e-01 4.298521e-01 4.343169e-01 4.388172e-01 4.433516e-01 4.479165e-01 4.525102e-01 4.571292e-01 4.617714e-01 4.664336e-01 4.711135e-01 4.758079e-01 4.805141e-01 4.852293e-01 4.899505e-01 4.946750e-01 4.993995e-01 5.041214e-01 5.088373e-01 5.135449e-01 5.182402e-01 5.229213e-01 5.275840e-01 5.322265e-01 5.368444e-01 5.414361e-01 5.459971e-01 5.505259e-01 5.550178e-01 5.594715e-01 5.638821e-01 5.682487e-01 5.725660e-01 5.768335e-01 5.810457e-01 5.852023e-01 5.892977e-01 5.933317e-01 5.972989e-01 6.011991e-01 6.050267e-01 6.087821e-01 6.124593e-01 6.160590e-01 6.195753e-01 6.230091e-01 6.263543e-01 6.296122e-01 6.327767e-01 6.358491e-01 6.388236e-01 6.417016e-01 6.444773e-01 6.471525e-01 6.497212e-01 6.521856e-01 6.545398e-01 6.567861e-01 6.589187e-01 6.609402e-01 6.628449e-01 6.646356e-01 6.663066e-01 6.678611e-01 6.692934e-01 6.706070e-01 6.717963e-01 6.728650e-01 6.738078e-01 6.746284e-01 6.753217e-01 6.758918e-01 6.763336e-01 6.766514e-01 6.768403e-01 6.769048e-01 6.768403e-01 6.766514e-01 6.763336e-01 6.758918e-01 6.753217e-01 6.746284e-01 6.738078e-01 6.728650e-01 6.717963e-01 6.706070e-01 6.692934e-01 6.678611e-01 6.663066e-01 6.646356e-01 6.628449e-01 6.609402e-01 6.589187e-01 6.567861e-01 6.545398e-01 6.521856e-01 6.497212e-01 6.471525e-01 6.444773e-01 6.417016e-01 6.388236e-01 6.358491e-01 6.327767e-01 6.296122e-01 6.263543e-01 6.230091e-01 6.195753e-01 6.160590e-01 6.124593e-01 6.087821e-01 6.050267e-01 6.011991e-01 5.972989e-01 5.933317e-01 5.892977e-01 5.852023e-01 5.810457e-01 5.768335e-01 5.725660e-01 5.682487e-01 5.638821e-01 5.594715e-01 5.550178e-01 5.505259e-01 5.459971e-01 5.414361e-01 5.368444e-01 5.322265e-01 5.275840e-01 5.229213e-01 5.182402e-01 5.135449e-01 5.088373e-01 5.041214e-01 4.993995e-01 4.946750e-01 4.899505e-01 4.852293e-01 4.805141e-01 4.758079e-01 4.711135e-01 4.664336e-01 4.617714e-01 4.571292e-01 4.525102e-01 4.479165e-01 4.433516e-01 4.388172e-01 4.343169e-01 4.298521e-01 4.254266e-01 4.210414e-01 4.167005e-01 4.124047e-01 4.081579e-01 4.039607e-01 3.998172e-01 3.957276e-01 3.916961e-01 3.877226e-01 3.838114e-01 3.799622e-01 3.761793e-01 3.724621e-01 3.688150e-01 3.652372e-01 3.617331e-01 3.583015e-01 3.549472e-01 3.516685e-01 3.484701e-01 3.453504e-01 3.423140e-01 3.393589e-01 3.364900e-01 3.337050e-01 3.310087e-01 3.283986e-01 3.258797e-01 3.234492e-01 3.211119e-01 3.188650e-01 3.167135e-01 3.146541e-01 3.126919e-01 3.108234e-01 3.090537e-01 3.073793e-01 3.058050e-01 3.043273e-01 3.029510e-01 3.016724e-01 3.004963e-01 2.994188e-01 2.984448e-01 2.975701e-01 2.967997e-01 2.961293e-01 2.955637e-01 2.950985e-01 2.947386e-01 2.944794e-01 2.943257e-01 
2.946780e-01 2.947306e-01 2.948838e-01 2.951421e-01 2.955009e-01 2.959646e-01 2.965283e-01 2.971966e-01 2.979646e-01 2.988364e-01 2.998073e-01 3.008814e-01 3.020537e-01 3.033284e-01 3.047003e-01 3.061734e-01 3.077428e-01 3.094121e-01 3.111764e-01 3.130392e-01 3.149955e-01 3.170487e-01 3.191939e-01 3.214341e-01 3.237645e-01 3.261880e-01 3.286996e-01 3.313022e-01 3.339908e-01 3.367680e-01 3.396288e-01 3.425756e-01 3.456036e-01 3.487148e-01 3.519044e-01 3.551742e-01 3.585196e-01 3.619420e-01 3.654367e-01 3.690051e-01 3.726426e-01 3.763501e-01 3.801232e-01 3.839624e-01 3.878635e-01 3.918269e-01 3.958481e-01 3.999273e-01 4.040603e-01 4.082468e-01 4.124829e-01 4.167679e-01 4.210979e-01 4.254720e-01 4.298864e-01 4.343400e-01 4.388290e-01 4.433520e-01 4.479055e-01 4.524875e-01 4.570949e-01 4.617254e-01 4.663759e-01 4.710438e-01 4.757263e-01 4.804205e-01 4.851237e-01 4.898328e-01 4.945451e-01 4.992573e-01 5.039670e-01 5.086705e-01 5.133657e-01 5.180487e-01 5.227173e-01 5.273676e-01 5.319977e-01 5.366031e-01 5.411824e-01 5.457309e-01 5.502473e-01 5.547267e-01 5.591681e-01 5.635663e-01 5.679206e-01 5.722258e-01 5.764811e-01 5.806812e-01 5.848258e-01 5.889093e-01 5.929316e-01 5.968870e-01 6.007757e-01 6.045919e-01 6.083360e-01 6.120022e-01 6.155910e-01 6.190966e-01 6.225198e-01 6.258548e-01 6.291025e-01 6.322571e-01 6.353199e-01 6.382850e-01 6.411540e-01 6.439208e-01 6.465875e-01 6.491480e-01 6.516044e-01 6.539510e-01 6.561900e-01 6.583157e-01 6.603306e-01 6.622290e-01 6.640138e-01 6.656792e-01 6.672286e-01 6.686561e-01 6.699653e-01 6.711507e-01 6.722159e-01 6.731555e-01 6.739733e-01 6.746643e-01 6.752325e-01 6.756728e-01 6.759895e-01 6.761778e-01 6.762421e-01 6.761778e-01 6.759895e-01 6.756728e-01 6.752325e-01 6.746643e-01 6.739733e-01 6.731555e-01 6.722159e-01 6.711507e-01 6.699653e-01 6.686561e-01 6.672286e-01 6.656792e-01 6.640138e-01 6.622290e-01 6.603306e-01 6.583157e-01 6.561900e-01 6.539510e-01 6.516044e-01 6.491480e-01 6.465875e-01 6.439208e-01 6.411540e-01 6.382850e-01 6.353199e-01 6.322571e-01 6.291025e-01 6.258548e-01 6.225198e-01 6.190966e-01 6.155910e-01 6.120022e-01 6.083360e-01 6.045919e-01 6.007757e-01 5.968870e-01 5.929316e-01 5.889093e-01 5.848258e-01 5.806812e-01 5.764811e-01 5.722258e-01 5.679206e-01 5.635663e-01 5.591681e-01 5.547267e-01 5.502473e-01 5.457309e-01 5.411824e-01 5.366031e-01 5.319977e-01 5.273676e-01 5.227173e-01 5.180487e-01 5.133657e-01 5.086705e-01 5.039670e-01 4.992573e-01 4.945451e-01 4.898328e-01 4.851237e-01 4.804205e-01 4.757263e-01 4.710438e-01 4.663759e-01 4.617254e-01 4.570949e-01 4.524875e-01 4.479055e-01 4.433520e-01 4.388290e-01 4.343400e-01 4.298864e-01 4.254720e-01 4.210979e-01 4.167679e-01 4.124829e-01 4.082468e-01 4.040603e-01 3.999273e-01 3.958481e-01 3.918269e-01 3.878635e-01 3.839624e-01 3.801232e-01 3.763501e-01 3.726426e-01 3.690051e-01 3.654367e-01 3.619420e-01 3.585196e-01 3.551742e-01 3.519044e-01 3.487148e-01 3.456036e-01 3.425756e-01 3.396288e-01 3.367680e-01 3.339908e-01 3.313022e-01 3.286996e-01 3.261880e-01 3.237645e-01 3.214341e-01 3.191939e-01 3.170487e-01 3.149955e-01 3.130392e-01 3.111764e-01 3.094121e-01 3.077428e-01 3.061734e-01 3.047003e-01 3.033284e-01 3.020537e-01 3.008814e-01 2.998073e-01 2.988364e-01 2.979646e-01 2.971966e-01 2.965283e-01 2.959646e-01 2.955009e-01 2.951421e-01 2.948838e-01 2.947306e-01 
2.949808e-01 2.950334e-01 2.951862e-01 2.954440e-01 2.958020e-01 2.962646e-01 2.968272e-01 2.974940e-01 2.982603e-01 2.991303e-01 3.000991e-01 3.011708e-01 3.023407e-01 3.036126e-01 3.049816e-01 3.064517e-01 3.080178e-01 3.096836e-01 3.114442e-01 3.133032e-01 3.152555e-01 3.173045e-01 3.194453e-01 3.216810e-01 3.240067e-01 3.264253e-01 3.289320e-01 3.315295e-01 3.342128e-01 3.369845e-01 3.398398e-01 3.427809e-01 3.458031e-01 3.489083e-01 3.520919e-01 3.553555e-01 3.586945e-01 3.621105e-01 3.655987e-01 3.691604e-01 3.727911e-01 3.764917e-01 3.802577e-01 3.840899e-01 3.879837e-01 3.919397e-01 3.959535e-01 4.000251e-01 4.041504e-01 4.083292e-01 4.125574e-01 4.168344e-01 4.211563e-01 4.255221e-01 4.299283e-01 4.343734e-01 4.388539e-01 4.433683e-01 4.479130e-01 4.524863e-01 4.570847e-01 4.617062e-01 4.663476e-01 4.710063e-01 4.756795e-01 4.803643e-01 4.850580e-01 4.897575e-01 4.944601e-01 4.991626e-01 5.038625e-01 5.085562e-01 5.132414e-01 5.179144e-01 5.225730e-01 5.272131e-01 5.318330e-01 5.364283e-01 5.409973e-01 5.455356e-01 5.500417e-01 5.545108e-01 5.589418e-01 5.633298e-01 5.676738e-01 5.719686e-01 5.762137e-01 5.804036e-01 5.845381e-01 5.886115e-01 5.926237e-01 5.965692e-01 6.004480e-01 6.042545e-01 6.079889e-01 6.116455e-01 6.152250e-01 6.187213e-01 6.221354e-01 6.254614e-01 6.287004e-01 6.318464e-01 6.349008e-01 6.378577e-01 6.407187e-01 6.434779e-01 6.461370e-01 6.486903e-01 6.511398e-01 6.534797e-01 6.557123e-01 6.578318e-01 6.598409e-01 6.617337e-01 6.635133e-01 6.651739e-01 6.667187e-01 6.681420e-01 6.694474e-01 6.706292e-01 6.716912e-01 6.726280e-01 6.734435e-01 6.741324e-01 6.746989e-01 6.751378e-01 6.754536e-01 6.756413e-01 6.757054e-01 6.756413e-01 6.754536e-01 6.751378e-01 6.746989e-01 6.741324e-01 6.734435e-01 6.726280e-01 6.716912e-01 6.706292e-01 6.694474e-01 6.681420e-01 6.667187e-01 6.651739e-01 6.635133e-01 6.617337e-01 6.598409e-01 6.578318e-01 6.557123e-01 6.534797e-01 6.511398e-01 6.486903e-01 6.461370e-01 6.434779e-01 6.407187e-01 6.378577e-01 6.349008e-01 6.318464e-01 6.287004e-01 6.254614e-01 6.221354e-01 6.187213e-01 6.152250e-01 6.116455e-01 6.079889e-01 6.042545e-01 6.004480e-01 5.965692e-01 5.926237e-01 5.886115e-01 5.845381e-01 5.804036e-01 5.762137e-01 5.719686e-01 5.676738e-01 5.633298e-01 5.589418e-01 5.545108e-01 5.500417e-01 5.455356e-01 5.409973e-01 5.364283e-01 5.318330e-01 5.272131e-01 5.225730e-01 5.179144e-01 5.132414e-01 5.085562e-01 5.038625e-01 4.991626e-01 4.944601e-01 4.897575e-01 4.850580e-01 4.803643e-01 4.756795e-01 4.710063e-01 4.663476e-01 4.617062e-01 4.570847e-01 4.524863e-01 4.479130e-01 4.433683e-01 4.388539e-01 4.343734e-01 4.299283e-01 4.255221e-01 4.211563e-01 4.168344e-01 4.125574e-01 4.083292e-01 4.041504e-01 4.000251e-01 3.959535e-01 3.919397e-01 3.879837e-01 3.840899e-01 3.802577e-01 3.764917e-01 3.727911e-01 3.691604e-01 3.655987e-01 3.621105e-01 3.586945e-01 3.553555e-01 3.520919e-01 3.489083e-01 3.458031e-01 3.427809e-01 3.398398e-01 3.369845e-01 3.342128e-01 3.315295e-01 3.289320e-01 3.264253e-01 3.240067e-01 3.216810e-01 3.194453e-01 3.173045e-01 3.152555e-01 3.133032e-01 3.114442e-01 3.096836e-01 3.080178e-01 3.064517e-01 3.049816e-01 3.036126e-01 3.023407e-01 3.011708e-01 3.000991e-01 2.991303e-01 2.982603e-01 2.974940e-01 2.968272e-01 2.962646e-01 2.958020e-01 2.954440e-01 2.951862e-01 2.950334e-01 
2.951810e-01 2.952335e-01 2.953861e-01 2.956436e-01 2.960012e-01 2.964634e-01 2.970253e-01 2.976914e-01 2.984568e-01 2.993258e-01 3.002935e-01 3.013641e-01 3.025327e-01 3.038032e-01 3.051707e-01 3.066392e-01 3.082035e-01 3.098676e-01 3.116263e-01 3.134832e-01 3.154334e-01 3.174802e-01 3.196187e-01 3.218520e-01 3.241752e-01 3.265912e-01 3.290952e-01 3.316899e-01 3.343703e-01 3.371391e-01 3.399913e-01 3.429293e-01 3.459482e-01 3.490501e-01 3.522302e-01 3.554903e-01 3.588257e-01 3.622379e-01 3.657223e-01 3.692801e-01 3.729068e-01 3.766033e-01 3.803651e-01 3.841930e-01 3.880824e-01 3.920339e-01 3.960431e-01 4.001100e-01 4.042305e-01 4.084043e-01 4.126274e-01 4.168993e-01 4.212159e-01 4.255764e-01 4.299770e-01 4.344165e-01 4.388913e-01 4.433999e-01 4.479386e-01 4.525058e-01 4.570980e-01 4.617132e-01 4.663481e-01 4.710003e-01 4.756668e-01 4.803449e-01 4.850317e-01 4.897241e-01 4.944197e-01 4.991149e-01 5.038075e-01 5.084938e-01 5.131715e-01 5.178368e-01 5.224877e-01 5.271201e-01 5.317321e-01 5.363194e-01 5.408805e-01 5.454107e-01 5.499087e-01 5.543696e-01 5.587925e-01 5.631722e-01 5.675079e-01 5.717945e-01 5.760312e-01 5.802129e-01 5.843390e-01 5.884041e-01 5.924081e-01 5.963454e-01 6.002161e-01 6.040144e-01 6.077409e-01 6.113895e-01 6.149611e-01 6.184496e-01 6.218561e-01 6.251745e-01 6.284061e-01 6.315449e-01 6.345922e-01 6.375421e-01 6.403964e-01 6.431489e-01 6.458017e-01 6.483487e-01 6.507923e-01 6.531264e-01 6.553535e-01 6.574677e-01 6.594718e-01 6.613599e-01 6.631350e-01 6.647914e-01 6.663322e-01 6.677519e-01 6.690539e-01 6.702327e-01 6.712919e-01 6.722263e-01 6.730396e-01 6.737268e-01 6.742917e-01 6.747296e-01 6.750445e-01 6.752317e-01 6.752957e-01 6.752317e-01 6.750445e-01 6.747296e-01 6.742917e-01 6.737268e-01 6.730396e-01 6.722263e-01 6.712919e-01 6.702327e-01 6.690539e-01 6.677519e-01 6.663322e-01 6.647914e-01 6.631350e-01 6.613599e-01 6.594718e-01 6.574677e-01 6.553535e-01 6.531264e-01 6.507923e-01 6.483487e-01 6.458017e-01 6.431489e-01 6.403964e-01 6.375421e-01 6.345922e-01 6.315449e-01 6.284061e-01 6.251745e-01 6.218561e-01 6.184496e-01 6.149611e-01 6.113895e-01 6.077409e-01 6.040144e-01 6.002161e-01 5.963454e-01 5.924081e-01 5.884041e-01 5.843390e-01 5.802129e-01 5.760312e-01 5.717945e-01 5.675079e-01 5.631722e-01 5.587925e-01 5.543696e-01 5.499087e-01 5.454107e-01 5.408805e-01 5.363194e-01 5.317321e-01 5.271201e-01 5.224877e-01 5.178368e-01 5.131715e-01 5.084938e-01 5.038075e-01 4.991149e-01 4.944197e-01 4.897241e-01 4.850317e-01 4.803449e-01 4.756668e-01 4.710003e-01 4.663481e-01 4.617132e-01 4.570980e-01 4.525058e-01 4.479386e-01 4.433999e-01 4.388913e-01 4.344165e-01 4.299770e-01 4.255764e-01 4.212159e-01 4.168993e-01 4.126274e-01 4.084043e-01 4.042305e-01 4.001100e-01 3.960431e-01 3.920339e-01 3.880824e-01 3.841930e-01 3.803651e-01 3.766033e-01 3.729068e-01 3.692801e-01 3.657223e-01 3.622379e-01 3.588257e-01 3.554903e-01 3.522302e-01 3.490501e-01 3.459482e-01 3.429293e-01 3.399913e-01 3.371391e-01 3.343703e-01 3.316899e-01 3.290952e-01 3.265912e-01 3.241752e-01 3.218520e-01 3.196187e-01 3.174802e-01 3.154334e-01 3.134832e-01 3.116263e-01 3.098676e-01 3.082035e-01 3.066392e-01 3.051707e-01 3.038032e-01 3.025327e-01 3.013641e-01 3.002935e-01 2.993258e-01 2.984568e-01 2.976914e-01 2.970253e-01 2.964634e-01 2.960012e-01 2.956436e-01 2.953861e-01 2.952335e-01 
2.952789e-01 2.953314e-01 2.954840e-01 2.957415e-01 2.960991e-01 2.965612e-01 2.971231e-01 2.977892e-01 2.985545e-01 2.994235e-01 3.003912e-01 3.014617e-01 3.026302e-01 3.039006e-01 3.052680e-01 3.067364e-01 3.083006e-01 3.099645e-01 3.117230e-01 3.135797e-01 3.155297e-01 3.175763e-01 3.197145e-01 3.219475e-01 3.242704e-01 3.266861e-01 3.291897e-01 3.317839e-01 3.344639e-01 3.372321e-01 3.400838e-01 3.430211e-01 3.460394e-01 3.491406e-01 3.523199e-01 3.555791e-01 3.589136e-01 3.623248e-01 3.658082e-01 3.693649e-01 3.729903e-01 3.766855e-01 3.804460e-01 3.842723e-01 3.881602e-01 3.921100e-01 3.961174e-01 4.001824e-01 4.043010e-01 4.084727e-01 4.126936e-01 4.169631e-01 4.212773e-01 4.256352e-01 4.300332e-01 4.344699e-01 4.389417e-01 4.434472e-01 4.479827e-01 4.525465e-01 4.571353e-01 4.617468e-01 4.663780e-01 4.710263e-01 4.756887e-01 4.803626e-01 4.850451e-01 4.897331e-01 4.944241e-01 4.991146e-01 5.038023e-01 5.084836e-01 5.131562e-01 5.178163e-01 5.224618e-01 5.270887e-01 5.316951e-01 5.362768e-01 5.408320e-01 5.453563e-01 5.498483e-01 5.543032e-01 5.587199e-01 5.630933e-01 5.674228e-01 5.717030e-01 5.759334e-01 5.801086e-01 5.842282e-01 5.882869e-01 5.922844e-01 5.962152e-01 6.000793e-01 6.038712e-01 6.075911e-01 6.112334e-01 6.147985e-01 6.182808e-01 6.216810e-01 6.249932e-01 6.282187e-01 6.313515e-01 6.343929e-01 6.373371e-01 6.401857e-01 6.429327e-01 6.455801e-01 6.481220e-01 6.505605e-01 6.528898e-01 6.551122e-01 6.572220e-01 6.592218e-01 6.611059e-01 6.628772e-01 6.645299e-01 6.660674e-01 6.674840e-01 6.687831e-01 6.699593e-01 6.710162e-01 6.719485e-01 6.727600e-01 6.734456e-01 6.740093e-01 6.744462e-01 6.747604e-01 6.749472e-01 6.750110e-01 6.749472e-01 6.747604e-01 6.744462e-01 6.740093e-01 6.734456e-01 6.727600e-01 6.719485e-01 6.710162e-01 6.699593e-01 6.687831e-01 6.674840e-01 6.660674e-01 6.645299e-01 6.628772e-01 6.611059e-01 6.592218e-01 6.572220e-01 6.551122e-01 6.528898e-01 6.505605e-01 6.481220e-01 6.455801e-01 6.429327e-01 6.401857e-01 6.373371e-01 6.343929e-01 6.313515e-01 6.282187e-01 6.249932e-01 6.216810e-01 6.182808e-01 6.147985e-01 6.112334e-01 6.075911e-01 6.038712e-01 6.000793e-01 5.962152e-01 5.922844e-01 5.882869e-01 5.842282e-01 5.801086e-01 5.759334e-01 5.717030e-01 5.674228e-01 5.630933e-01 5.587199e-01 5.543032e-01 5.498483e-01 5.453563e-01 5.408320e-01 5.362768e-01 5.316951e-01 5.270887e-01 5.224618e-01 5.178163e-01 5.131562e-01 5.084836e-01 5.038023e-01 4.991146e-01 4.944241e-01 4.897331e-01 4.850451e-01 4.803626e-01 4.756887e-01 4.710263e-01 4.663780e-01 4.617468e-01 4.571353e-01 4.525465e-01 4.479827e-01 4.434472e-01 4.389417e-01 4.344699e-01 4.300332e-01 4.256352e-01 4.212773e-01 4.169631e-01 4.126936e-01 4.084727e-01 4.043010e-01 4.001824e-01 3.961174e-01 3.921100e-01 3.881602e-01 3.842723e-01 3.804460e-01 3.766855e-01 3.729903e-01 3.693649e-01 3.658082e-01 3.623248e-01 3.589136e-01 3.555791e-01 3.523199e-01 3.491406e-01 3.460394e-01 3.430211e-01 3.400838e-01 3.372321e-01 3.344639e-01 3.317839e-01 3.291897e-01 3.266861e-01 3.242704e-01 3.219475e-01 3.197145e-01 3.175763e-01 3.155297e-01 3.135797e-01 3.117230e-01 3.099645e-01 3.083006e-01 3.067364e-01 3.052680e-01 3.039006e-01 3.026302e-01 3.014617e-01 3.003912e-01 2.994235e-01 2.985545e-01 2.977892e-01 2.971231e-01 2.965612e-01 2.960991e-01 2.957415e-01 2.954840e-01 2.953314e-01 
2.952741e-01 2.953266e-01 2.954794e-01 2.957372e-01 2.960951e-01 2.965577e-01 2.971201e-01 2.977869e-01 2.985530e-01 2.994229e-01 3.003915e-01 3.014631e-01 3.026327e-01 3.039043e-01 3.052731e-01 3.067428e-01 3.083084e-01 3.099739e-01 3.117339e-01 3.135923e-01 3.155440e-01 3.175923e-01 3.197323e-01 3.219672e-01 3.242919e-01 3.267095e-01 3.292149e-01 3.318111e-01 3.344930e-01 3.372632e-01 3.401168e-01 3.430561e-01 3.460762e-01 3.491793e-01 3.523605e-01 3.556215e-01 3.589578e-01 3.623708e-01 3.658558e-01 3.694142e-01 3.730412e-01 3.767379e-01 3.804998e-01 3.843275e-01 3.882167e-01 3.921676e-01 3.961761e-01 4.002421e-01 4.043615e-01 4.085340e-01 4.127555e-01 4.170255e-01 4.213401e-01 4.256983e-01 4.300964e-01 4.345330e-01 4.390047e-01 4.435098e-01 4.480449e-01 4.526081e-01 4.571961e-01 4.618067e-01 4.664368e-01 4.710838e-01 4.757449e-01 4.804172e-01 4.850980e-01 4.897841e-01 4.944730e-01 4.991613e-01 5.038466e-01 5.085253e-01 5.131953e-01 5.178525e-01 5.224950e-01 5.271187e-01 5.317219e-01 5.363001e-01 5.408518e-01 5.453723e-01 5.498605e-01 5.543114e-01 5.587240e-01 5.630933e-01 5.674185e-01 5.716943e-01 5.759202e-01 5.800908e-01 5.842059e-01 5.882598e-01 5.922526e-01 5.961786e-01 6.000379e-01 6.038249e-01 6.075400e-01 6.111774e-01 6.147377e-01 6.182150e-01 6.216104e-01 6.249179e-01 6.281386e-01 6.312666e-01 6.343035e-01 6.372431e-01 6.400872e-01 6.428298e-01 6.454730e-01 6.480107e-01 6.504451e-01 6.527705e-01 6.549891e-01 6.570953e-01 6.590916e-01 6.609724e-01 6.627405e-01 6.643904e-01 6.659251e-01 6.673392e-01 6.686359e-01 6.698100e-01 6.708649e-01 6.717955e-01 6.726055e-01 6.732898e-01 6.738525e-01 6.742885e-01 6.746022e-01 6.747886e-01 6.748523e-01 6.747886e-01 6.746022e-01 6.742885e-01 6.738525e-01 6.732898e-01 6.726055e-01 6.717955e-01 6.708649e-01 6.698100e-01 6.686359e-01 6.673392e-01 6.659251e-01 6.643904e-01 6.627405e-01 6.609724e-01 6.590916e-01 6.570953e-01 6.549891e-01 6.527705e-01 6.504451e-01 6.480107e-01 6.454730e-01 6.428298e-01 6.400872e-01 6.372431e-01 6.343035e-01 6.312666e-01 6.281386e-01 6.249179e-01 6.216104e-01 6.182150e-01 6.147377e-01 6.111774e-01 6.075400e-01 6.038249e-01 6.000379e-01 5.961786e-01 5.922526e-01 5.882598e-01 5.842059e-01 5.800908e-01 5.759202e-01 5.716943e-01 5.674185e-01 5.630933e-01 5.587240e-01 5.543114e-01 5.498605e-01 5.453723e-01 5.408518e-01 5.363001e-01 5.317219e-01 5.271187e-01 5.224950e-01 5.178525e-01 5.131953e-01 5.085253e-01 5.038466e-01 4.991613e-01 4.944730e-01 4.897841e-01 4.850980e-01 4.804172e-01 4.757449e-01 4.710838e-01 4.664368e-01 4.618067e-01 4.571961e-01 4.526081e-01 4.480449e-01 4.435098e-01 4.390047e-01 4.345330e-01 4.300964e-01 4.256983e-01 4.213401e-01 4.170255e-01 4.127555e-01 4.085340e-01 4.043615e-01 4.002421e-01 3.961761e-01 3.921676e-01 3.882167e-01 3.843275e-01 3.804998e-01 3.767379e-01 3.730412e-01 3.694142e-01 3.658558e-01 3.623708e-01 3.589578e-01 3.556215e-01 3.523605e-01 3.491793e-01 3.460762e-01 3.430561e-01 3.401168e-01 3.372632e-01 3.344930e-01 3.318111e-01 3.292149e-01 3.267095e-01 3.242919e-01 3.219672e-01 3.197323e-01 3.175923e-01 3.155440e-01 3.135923e-01 3.117339e-01 3.099739e-01 3.083084e-01 3.067428e-01 3.052731e-01 3.039043e-01 3.026327e-01 3.014631e-01 3.003915e-01 2.994229e-01 2.985530e-01 2.977869e-01 2.971201e-01 2.965577e-01 2.960951e-01 2.957372e-01 2.954794e-01 2.953266e-01 
2.951668e-01 2.952194e-01 2.953725e-01 2.956309e-01 2.959895e-01 2.964531e-01 2.970167e-01 2.976848e-01 2.984525e-01 2.993242e-01 3.002948e-01 3.013686e-01 3.025405e-01 3.038147e-01 3.051861e-01 3.066587e-01 3.082274e-01 3.098960e-01 3.116595e-01 3.135213e-01 3.154766e-01 3.175287e-01 3.196725e-01 3.219113e-01 3.242400e-01 3.266617e-01 3.291714e-01 3.317719e-01 3.344581e-01 3.372327e-01 3.400907e-01 3.430345e-01 3.460591e-01 3.491667e-01 3.523524e-01 3.556180e-01 3.589588e-01 3.623763e-01 3.658657e-01 3.694285e-01 3.730599e-01 3.767609e-01 3.805271e-01 3.843590e-01 3.882522e-01 3.922072e-01 3.962196e-01 4.002894e-01 4.044125e-01 4.085886e-01 4.128137e-01 4.170870e-01 4.214048e-01 4.257661e-01 4.301671e-01 4.346065e-01 4.390808e-01 4.435884e-01 4.481258e-01 4.526911e-01 4.572810e-01 4.618934e-01 4.665250e-01 4.711735e-01 4.758358e-01 4.805091e-01 4.851907e-01 4.898774e-01 4.945668e-01 4.992554e-01 5.039408e-01 5.086194e-01 5.132890e-01 5.179457e-01 5.225876e-01 5.272105e-01 5.318126e-01 5.363895e-01 5.409398e-01 5.454588e-01 5.499453e-01 5.543943e-01 5.588049e-01 5.631720e-01 5.674948e-01 5.717682e-01 5.759915e-01 5.801595e-01 5.842717e-01 5.883227e-01 5.923125e-01 5.962354e-01 6.000915e-01 6.038753e-01 6.075871e-01 6.112211e-01 6.147780e-01 6.182519e-01 6.216438e-01 6.249478e-01 6.281651e-01 6.312897e-01 6.343231e-01 6.372593e-01 6.401000e-01 6.428393e-01 6.454792e-01 6.480137e-01 6.504451e-01 6.527674e-01 6.549831e-01 6.570865e-01 6.590801e-01 6.609583e-01 6.627240e-01 6.643715e-01 6.659041e-01 6.673161e-01 6.686110e-01 6.697833e-01 6.708367e-01 6.717659e-01 6.725747e-01 6.732580e-01 6.738198e-01 6.742552e-01 6.745684e-01 6.747546e-01 6.748182e-01 6.747546e-01 6.745684e-01 6.742552e-01 6.738198e-01 6.732580e-01 6.725747e-01 6.717659e-01 6.708367e-01 6.697833e-01 6.686110e-01 6.673161e-01 6.659041e-01 6.643715e-01 6.627240e-01 6.609583e-01 6.590801e-01 6.570865e-01 6.549831e-01 6.527674e-01 6.504451e-01 6.480137e-01 6.454792e-01 6.428393e-01 6.401000e-01 6.372593e-01 6.343231e-01 6.312897e-01 6.281651e-01 6.249478e-01 6.216438e-01 6.182519e-01 6.147780e-01 6.112211e-01 6.075871e-01 6.038753e-01 6.000915e-01 5.962354e-01 5.923125e-01 5.883227e-01 5.842717e-01 5.801595e-01 5.759915e-01 5.717682e-01 5.674948e-01 5.631720e-01 5.588049e-01 5.543943e-01 5.499453e-01 5.454588e-01 5.409398e-01 5.363895e-01 5.318126e-01 5.272105e-01 5.225876e-01 5.179457e-01 5.132890e-01 5.086194e-01 5.039408e-01 4.992554e-01 4.945668e-01 4.898774e-01 4.851907e-01 4.805091e-01 4.758358e-01 4.711735e-01 4.665250e-01 4.618934e-01 4.572810e-01 4.526911e-01 4.481258e-01 4.435884e-01 4.390808e-01 4.346065e-01 4.301671e-01 4.257661e-01 4.214048e-01 4.170870e-01 4.128137e-01 4.085886e-01 4.044125e-01 4.002894e-01 3.962196e-01 3.922072e-01 3.882522e-01 3.843590e-01 3.805271e-01 3.767609e-01 3.730599e-01 3.694285e-01 3.658657e-01 3.623763e-01 3.589588e-01 3.556180e-01 3.523524e-01 3.491667e-01 3.460591e-01 3.430345e-01 3.400907e-01 3.372327e-01 3.344581e-01 3.317719e-01 3.291714e-01 3.266617e-01 3.242400e-01 3.219113e-01 3.196725e-01 3.175287e-01 3.154766e-01 3.135213e-01 3.116595e-01 3.098960e-01 3.082274e-01 3.066587e-01 3.051861e-01 3.038147e-01 3.025405e-01 3.013686e-01 3.002948e-01 2.993242e-01 2.984525e-01 2.976848e-01 2.970167e-01 2.964531e-01 2.959895e-01 2.956309e-01 2.953725e-01 2.952194e-01 
2.949565e-01 2.950093e-01 2.951630e-01 2.954221e-01 2.957819e-01 2.962469e-01 2.968123e-01 2.974826e-01 2.982527e-01 2.991270e-01 3.001006e-01 3.011777e-01 3.023532e-01 3.036313e-01 3.050068e-01 3.064838e-01 3.080571e-01 3.097306e-01 3.114991e-01 3.133663e-01 3.153271e-01 3.173849e-01 3.195346e-01 3.217795e-01 3.241145e-01 3.265426e-01 3.290588e-01 3.316659e-01 3.343589e-01 3.371404e-01 3.400054e-01 3.429562e-01 3.459879e-01 3.491026e-01 3.522955e-01 3.555683e-01 3.589163e-01 3.623410e-01 3.658377e-01 3.694077e-01 3.730463e-01 3.767544e-01 3.805277e-01 3.843666e-01 3.882668e-01 3.922287e-01 3.962478e-01 4.003244e-01 4.044540e-01 4.086366e-01 4.128679e-01 4.171475e-01 4.214713e-01 4.258385e-01 4.302452e-01 4.346902e-01 4.391699e-01 4.436827e-01 4.482252e-01 4.527953e-01 4.573899e-01 4.620068e-01 4.666427e-01 4.712952e-01 4.759613e-01 4.806383e-01 4.853233e-01 4.900132e-01 4.947056e-01 4.993969e-01 5.040849e-01 5.087658e-01 5.134375e-01 5.180961e-01 5.227397e-01 5.273640e-01 5.319673e-01 5.365453e-01 5.410964e-01 5.456160e-01 5.501029e-01 5.545521e-01 5.589627e-01 5.633297e-01 5.676522e-01 5.719250e-01 5.761477e-01 5.803147e-01 5.844260e-01 5.884759e-01 5.924644e-01 5.963858e-01 6.002405e-01 6.040226e-01 6.077327e-01 6.113648e-01 6.149198e-01 6.183917e-01 6.217816e-01 6.250835e-01 6.282986e-01 6.314210e-01 6.344522e-01 6.373862e-01 6.402247e-01 6.429618e-01 6.455995e-01 6.481318e-01 6.505610e-01 6.528812e-01 6.550949e-01 6.571962e-01 6.591879e-01 6.610642e-01 6.628281e-01 6.644740e-01 6.660049e-01 6.674155e-01 6.687090e-01 6.698800e-01 6.709323e-01 6.718605e-01 6.726684e-01 6.733509e-01 6.739121e-01 6.743470e-01 6.746598e-01 6.748458e-01 6.749093e-01 6.748458e-01 6.746598e-01 6.743470e-01 6.739121e-01 6.733509e-01 6.726684e-01 6.718605e-01 6.709323e-01 6.698800e-01 6.687090e-01 6.674155e-01 6.660049e-01 6.644740e-01 6.628281e-01 6.610642e-01 6.591879e-01 6.571962e-01 6.550949e-01 6.528812e-01 6.505610e-01 6.481318e-01 6.455995e-01 6.429618e-01 6.402247e-01 6.373862e-01 6.344522e-01 6.314210e-01 6.282986e-01 6.250835e-01 6.217816e-01 6.183917e-01 6.149198e-01 6.113648e-01 6.077327e-01 6.040226e-01 6.002405e-01 5.963858e-01 5.924644e-01 5.884759e-01 5.844260e-01 5.803147e-01 5.761477e-01 5.719250e-01 5.676522e-01 5.633297e-01 5.589627e-01 5.545521e-01 5.501029e-01 5.456160e-01 5.410964e-01 5.365453e-01 5.319673e-01 5.273640e-01 5.227397e-01 5.180961e-01 5.134375e-01 5.087658e-01 5.040849e-01 4.993969e-01 4.947056e-01 4.900132e-01 4.853233e-01 4.806383e-01 4.759613e-01 4.712952e-01 4.666427e-01 4.620068e-01 4.573899e-01 4.527953e-01 4.482252e-01 4.436827e-01 4.391699e-01 4.346902e-01 4.302452e-01 4.258385e-01 4.214713e-01 4.171475e-01 4.128679e-01 4.086366e-01 4.044540e-01 4.003244e-01 3.962478e-01 3.922287e-01 3.882668e-01 3.843666e-01 3.805277e-01 3.767544e-01 3.730463e-01 3.694077e-01 3.658377e-01 3.623410e-01 3.589163e-01 3.555683e-01 3.522955e-01 3.491026e-01 3.459879e-01 3.429562e-01 3.400054e-01 3.371404e-01 3.343589e-01 3.316659e-01 3.290588e-01 3.265426e-01 3.241145e-01 3.217795e-01 3.195346e-01 3.173849e-01 3.153271e-01 3.133663e-01 3.114991e-01 3.097306e-01 3.080571e-01 3.064838e-01 3.050068e-01 3.036313e-01 3.023532e-01 3.011777e-01 3.001006e-01 2.991270e-01 2.982527e-01 2.974826e-01 2.968123e-01 2.962469e-01 2.957819e-01 2.954221e-01 2.951630e-01 2.950093e-01 