# vtk DataFile Version 2.0
Comment goes here
ASCII

DATASET STRUCTURED_POINTS
FIELD FieldData 1
TIME 1 1 double
0.08000000
DIMENSIONS    256   256   1

ORIGIN    0.000   0.000   0.000
SPACING   0.0039062 0.0039062   1.000

POINT_DATA   65536
SCALARS uMag double
LOOKUP_TABLE default

3.137165e-01 3.137709e-01 3.139305e-01 3.141988e-01 3.145722e-01 3.150541e-01 3.156406e-01 3.163352e-01 3.171340e-01 3.180402e-01 3.190499e-01 3.201662e-01 3.213851e-01 3.227097e-01 3.241359e-01 3.256666e-01 3.272977e-01 3.290319e-01 3.308651e-01 3.327999e-01 3.348321e-01 3.369642e-01 3.391919e-01 3.415175e-01 3.439369e-01 3.464520e-01 3.490587e-01 3.517589e-01 3.545483e-01 3.574286e-01 3.603955e-01 3.634506e-01 3.665896e-01 3.698138e-01 3.731190e-01 3.765063e-01 3.799713e-01 3.835149e-01 3.871330e-01 3.908262e-01 3.945902e-01 3.984255e-01 4.023279e-01 4.062974e-01 4.103301e-01 4.144258e-01 4.185804e-01 4.227936e-01 4.270613e-01 4.313830e-01 4.357546e-01 4.401753e-01 4.446413e-01 4.491513e-01 4.537016e-01 4.582909e-01 4.629153e-01 4.675732e-01 4.722611e-01 4.769770e-01 4.817175e-01 4.864802e-01 4.912620e-01 4.960603e-01 5.008719e-01 5.056942e-01 5.105240e-01 5.153584e-01 5.201944e-01 5.250290e-01 5.298594e-01 5.346820e-01 5.394944e-01 5.442929e-01 5.490751e-01 5.538371e-01 5.585767e-01 5.632900e-01 5.679747e-01 5.726268e-01 5.772444e-01 5.818231e-01 5.863612e-01 5.908543e-01 5.953008e-01 5.996962e-01 6.040392e-01 6.083249e-01 6.125525e-01 6.167170e-01 6.208176e-01 6.248493e-01 6.288117e-01 6.326995e-01 6.365125e-01 6.402456e-01 6.438988e-01 6.474667e-01 6.509496e-01 6.543423e-01 6.576453e-01 6.608532e-01 6.639668e-01 6.669807e-01 6.698961e-01 6.727075e-01 6.754163e-01 6.780171e-01 6.805115e-01 6.828943e-01 6.851672e-01 6.873250e-01 6.893698e-01 6.912965e-01 6.931073e-01 6.947972e-01 6.963687e-01 6.978170e-01 6.991447e-01 7.003470e-01 7.014270e-01 7.023800e-01 7.032091e-01 7.039099e-01 7.044858e-01 7.049324e-01 7.052533e-01 7.054444e-01 7.055094e-01 7.054444e-01 7.052533e-01 7.049324e-01 7.044858e-01 7.039099e-01 7.032091e-01 7.023800e-01 7.014270e-01 7.003470e-01 6.991447e-01 6.978170e-01 6.963687e-01 6.947972e-01 6.931073e-01 6.912965e-01 6.893698e-01 6.873250e-01 6.851672e-01 6.828943e-01 6.805115e-01 6.780171e-01 6.754163e-01 6.727075e-01 6.698961e-01 6.669807e-01 6.639668e-01 6.608532e-01 6.576453e-01 6.543423e-01 6.509496e-01 6.474667e-01 6.438988e-01 6.402456e-01 6.365125e-01 6.326995e-01 6.288117e-01 6.248493e-01 6.208176e-01 6.167170e-01 6.125525e-01 6.083249e-01 6.040392e-01 5.996962e-01 5.953008e-01 5.908543e-01 5.863612e-01 5.818231e-01 5.772444e-01 5.726268e-01 5.679747e-01 5.632900e-01 5.585767e-01 5.538371e-01 5.490751e-01 5.442929e-01 5.394944e-01 5.346820e-01 5.298594e-01 5.250290e-01 5.201944e-01 5.153584e-01 5.105240e-01 5.056942e-01 5.008719e-01 4.960603e-01 4.912620e-01 4.864802e-01 4.817175e-01 4.769770e-01 4.722611e-01 4.675732e-01 4.629153e-01 4.582909e-01 4.537016e-01 4.491513e-01 4.446413e-01 4.401753e-01 4.357546e-01 4.313830e-01 4.270613e-01 4.227936e-01 4.185804e-01 4.144258e-01 4.103301e-01 4.062974e-01 4.023279e-01 3.984255e-01 3.945902e-01 3.908262e-01 3.871330e-01 3.835149e-01 3.799713e-01 3.765063e-01 3.731190e-01 3.698138e-01 3.665896e-01 3.634506e-01 3.603955e-01 3.574286e-01 3.545483e-01 3.517589e-01 3.490587e-01 3.464520e-01 3.439369e-01 3.415175e-01 3.391919e-01 3.369642e-01 3.348321e-01 3.327999e-01 3.308651e-01 3.290319e-01 3.272977e-01 3.256666e-01 3.241359e-01 3.227097e-01 3.213851e-01 3.201662e-01 3.190499e-01 3.180402e-01 3.171340e-01 3.163352e-01 3.156406e-01 3.150541e-01 3.145722e-01 3.141988e-01 3.139305e-01 3.137709e-01 
3.134531e-01 3.135077e-01 3.136677e-01 3.139366e-01 3.143109e-01 3.147939e-01 3.153819e-01 3.160781e-01 3.168787e-01 3.177871e-01 3.187991e-01 3.199180e-01 3.211398e-01 3.224674e-01 3.238969e-01 3.254310e-01 3.270658e-01 3.288038e-01 3.306411e-01 3.325802e-01 3.346168e-01 3.367535e-01 3.389861e-01 3.413167e-01 3.437411e-01 3.462615e-01 3.488736e-01 3.515793e-01 3.543743e-01 3.572604e-01 3.602332e-01 3.632944e-01 3.664395e-01 3.696699e-01 3.729814e-01 3.763750e-01 3.798465e-01 3.833967e-01 3.870215e-01 3.907213e-01 3.944921e-01 3.983341e-01 4.022433e-01 4.062198e-01 4.102594e-01 4.143621e-01 4.185237e-01 4.227439e-01 4.270187e-01 4.313475e-01 4.357262e-01 4.401541e-01 4.446271e-01 4.491444e-01 4.537018e-01 4.582983e-01 4.629298e-01 4.675950e-01 4.722900e-01 4.770131e-01 4.817607e-01 4.865306e-01 4.913195e-01 4.961250e-01 5.009437e-01 5.057730e-01 5.106099e-01 5.154514e-01 5.202945e-01 5.251361e-01 5.299734e-01 5.348029e-01 5.396222e-01 5.444276e-01 5.492166e-01 5.539854e-01 5.587318e-01 5.634517e-01 5.681431e-01 5.728018e-01 5.774259e-01 5.820110e-01 5.865556e-01 5.910550e-01 5.955078e-01 5.999093e-01 6.042584e-01 6.085502e-01 6.127838e-01 6.169541e-01 6.210605e-01 6.250979e-01 6.290659e-01 6.329592e-01 6.367777e-01 6.405160e-01 6.441744e-01 6.477473e-01 6.512352e-01 6.546328e-01 6.579404e-01 6.611529e-01 6.642709e-01 6.672892e-01 6.702087e-01 6.730241e-01 6.757368e-01 6.783414e-01 6.808394e-01 6.832256e-01 6.855018e-01 6.876627e-01 6.897105e-01 6.916399e-01 6.934534e-01 6.951457e-01 6.967195e-01 6.981699e-01 6.994995e-01 7.007036e-01 7.017852e-01 7.027395e-01 7.035699e-01 7.042717e-01 7.048484e-01 7.052956e-01 7.056170e-01 7.058084e-01 7.058735e-01 7.058084e-01 7.056170e-01 7.052956e-01 7.048484e-01 7.042717e-01 7.035699e-01 7.027395e-01 7.017852e-01 7.007036e-01 6.994995e-01 6.981699e-01 6.967195e-01 6.951457e-01 6.934534e-01 6.916399e-01 6.897105e-01 6.876627e-01 6.855018e-01 6.832256e-01 6.808394e-01 6.783414e-01 6.757368e-01 6.730241e-01 6.702087e-01 6.672892e-01 6.642709e-01 6.611529e-01 6.579404e-01 6.546328e-01 6.512352e-01 6.477473e-01 6.441744e-01 6.405160e-01 6.367777e-01 6.329592e-01 6.290659e-01 6.250979e-01 6.210605e-01 6.169541e-01 6.127838e-01 6.085502e-01 6.042584e-01 5.999093e-01 5.955078e-01 5.910550e-01 5.865556e-01 5.820110e-01 5.774259e-01 5.728018e-01 5.681431e-01 5.634517e-01 5.587318e-01 5.539854e-01 5.492166e-01 5.444276e-01 5.396222e-01 5.348029e-01 5.299734e-01 5.251361e-01 5.202945e-01 5.154514e-01 5.106099e-01 5.057730e-01 5.009437e-01 4.961250e-01 4.913195e-01 4.865306e-01 4.817607e-01 4.770131e-01 4.722900e-01 4.675950e-01 4.629298e-01 4.582983e-01 4.537018e-01 4.491444e-01 4.446271e-01 4.401541e-01 4.357262e-01 4.313475e-01 4.270187e-01 4.227439e-01 4.185237e-01 4.143621e-01 4.102594e-01 4.062198e-01 4.022433e-01 3.983341e-01 3.944921e-01 3.907213e-01 3.870215e-01 3.833967e-01 3.798465e-01 3.763750e-01 3.729814e-01 3.696699e-01 3.664395e-01 3.632944e-01 3.602332e-01 3.572604e-01 3.543743e-01 3.515793e-01 3.488736e-01 3.462615e-01 3.437411e-01 3.413167e-01 3.389861e-01 3.367535e-01 3.346168e-01 3.325802e-01 3.306411e-01 3.288038e-01 3.270658e-01 3.254310e-01 3.238969e-01 3.224674e-01 3.211398e-01 3.199180e-01 3.187991e-01 3.177871e-01 3.168787e-01 3.160781e-01 3.153819e-01 3.147939e-01 3.143109e-01 3.139366e-01 3.136677e-01 3.135077e-01 
3.130830e-01 3.131377e-01 3.132983e-01 3.135682e-01 3.139438e-01 3.144284e-01 3.150184e-01 3.157170e-01 3.165204e-01 3.174318e-01 3.184473e-01 3.195699e-01 3.207958e-01 3.221279e-01 3.235621e-01 3.251013e-01 3.267414e-01 3.284851e-01 3.303283e-01 3.322735e-01 3.343166e-01 3.364600e-01 3.386995e-01 3.410373e-01 3.434691e-01 3.459971e-01 3.486170e-01 3.513307e-01 3.541339e-01 3.570284e-01 3.600097e-01 3.630795e-01 3.662334e-01 3.694728e-01 3.727934e-01 3.761962e-01 3.796770e-01 3.832366e-01 3.868708e-01 3.905803e-01 3.943607e-01 3.982125e-01 4.021315e-01 4.061178e-01 4.101673e-01 4.142799e-01 4.184515e-01 4.226817e-01 4.269665e-01 4.313053e-01 4.356941e-01 4.401320e-01 4.446152e-01 4.491425e-01 4.537100e-01 4.583165e-01 4.629582e-01 4.676333e-01 4.723384e-01 4.770715e-01 4.818290e-01 4.866089e-01 4.914077e-01 4.962230e-01 5.010515e-01 5.058907e-01 5.107372e-01 5.155884e-01 5.204411e-01 5.252923e-01 5.301390e-01 5.349781e-01 5.398067e-01 5.446214e-01 5.494196e-01 5.541975e-01 5.589530e-01 5.636819e-01 5.683821e-01 5.730496e-01 5.776824e-01 5.822762e-01 5.868292e-01 5.913370e-01 5.957981e-01 6.002078e-01 6.045650e-01 6.088647e-01 6.131061e-01 6.172841e-01 6.213981e-01 6.254429e-01 6.294181e-01 6.333185e-01 6.371440e-01 6.408892e-01 6.445542e-01 6.481337e-01 6.516280e-01 6.550317e-01 6.583454e-01 6.615637e-01 6.646874e-01 6.677112e-01 6.706360e-01 6.734566e-01 6.761742e-01 6.787835e-01 6.812861e-01 6.836766e-01 6.859569e-01 6.881218e-01 6.901733e-01 6.921063e-01 6.939230e-01 6.956184e-01 6.971951e-01 6.986481e-01 6.999801e-01 7.011864e-01 7.022700e-01 7.032261e-01 7.040579e-01 7.047610e-01 7.053388e-01 7.057868e-01 7.061088e-01 7.063005e-01 7.063658e-01 7.063005e-01 7.061088e-01 7.057868e-01 7.053388e-01 7.047610e-01 7.040579e-01 7.032261e-01 7.022700e-01 7.011864e-01 6.999801e-01 6.986481e-01 6.971951e-01 6.956184e-01 6.939230e-01 6.921063e-01 6.901733e-01 6.881218e-01 6.859569e-01 6.836766e-01 6.812861e-01 6.787835e-01 6.761742e-01 6.734566e-01 6.706360e-01 6.677112e-01 6.646874e-01 6.615637e-01 6.583454e-01 6.550317e-01 6.516280e-01 6.481337e-01 6.445542e-01 6.408892e-01 6.371440e-01 6.333185e-01 6.294181e-01 6.254429e-01 6.213981e-01 6.172841e-01 6.131061e-01 6.088647e-01 6.045650e-01 6.002078e-01 5.957981e-01 5.913370e-01 5.868292e-01 5.822762e-01 5.776824e-01 5.730496e-01 5.683821e-01 5.636819e-01 5.589530e-01 5.541975e-01 5.494196e-01 5.446214e-01 5.398067e-01 5.349781e-01 5.301390e-01 5.252923e-01 5.204411e-01 5.155884e-01 5.107372e-01 5.058907e-01 5.010515e-01 4.962230e-01 4.914077e-01 4.866089e-01 4.818290e-01 4.770715e-01 4.723384e-01 4.676333e-01 4.629582e-01 4.583165e-01 4.537100e-01 4.491425e-01 4.446152e-01 4.401320e-01 4.356941e-01 4.313053e-01 4.269665e-01 4.226817e-01 4.184515e-01 4.142799e-01 4.101673e-01 4.061178e-01 4.021315e-01 3.982125e-01 3.943607e-01 3.905803e-01 3.868708e-01 3.832366e-01 3.796770e-01 3.761962e-01 3.727934e-01 3.694728e-01 3.662334e-01 3.630795e-01 3.600097e-01 3.570284e-01 3.541339e-01 3.513307e-01 3.486170e-01 3.459971e-01 3.434691e-01 3.410373e-01 3.386995e-01 3.364600e-01 3.343166e-01 3.322735e-01 3.303283e-01 3.284851e-01 3.267414e-01 3.251013e-01 3.235621e-01 3.221279e-01 3.207958e-01 3.195699e-01 3.184473e-01 3.174318e-01 3.165204e-01 3.157170e-01 3.150184e-01 3.144284e-01 3.139438e-01 3.135682e-01 3.132983e-01 3.131377e-01 
3.126056e-01 3.126606e-01 3.128219e-01 3.130930e-01 3.134703e-01 3.139572e-01 3.145498e-01 3.152515e-01 3.160585e-01 3.169740e-01 3.179940e-01 3.191216e-01 3.203528e-01 3.216907e-01 3.231311e-01 3.246770e-01 3.263241e-01 3.280752e-01 3.299261e-01 3.318795e-01 3.339311e-01 3.360832e-01 3.383318e-01 3.406790e-01 3.431206e-01 3.456585e-01 3.482887e-01 3.510128e-01 3.538268e-01 3.567321e-01 3.597246e-01 3.628058e-01 3.659712e-01 3.692223e-01 3.725548e-01 3.759696e-01 3.794625e-01 3.830344e-01 3.866810e-01 3.904029e-01 3.941959e-01 3.980603e-01 4.019920e-01 4.059912e-01 4.100535e-01 4.141790e-01 4.183636e-01 4.226068e-01 4.269046e-01 4.312564e-01 4.356582e-01 4.401091e-01 4.446053e-01 4.491456e-01 4.537262e-01 4.583456e-01 4.630002e-01 4.676883e-01 4.724062e-01 4.771521e-01 4.819224e-01 4.867150e-01 4.915265e-01 4.963544e-01 5.011955e-01 5.060471e-01 5.109060e-01 5.157695e-01 5.206344e-01 5.254977e-01 5.303565e-01 5.352075e-01 5.400480e-01 5.448744e-01 5.496842e-01 5.544737e-01 5.592405e-01 5.639807e-01 5.686921e-01 5.733706e-01 5.780143e-01 5.826188e-01 5.871825e-01 5.917007e-01 5.961722e-01 6.005921e-01 6.049592e-01 6.092688e-01 6.135198e-01 6.177074e-01 6.218307e-01 6.258846e-01 6.298688e-01 6.337781e-01 6.376121e-01 6.413657e-01 6.450389e-01 6.486264e-01 6.521285e-01 6.555398e-01 6.588609e-01 6.620863e-01 6.652170e-01 6.682474e-01 6.711788e-01 6.740056e-01 6.767292e-01 6.793443e-01 6.818523e-01 6.842482e-01 6.865335e-01 6.887032e-01 6.907592e-01 6.926964e-01 6.945171e-01 6.962163e-01 6.977964e-01 6.992526e-01 7.005876e-01 7.017965e-01 7.028825e-01 7.038406e-01 7.046743e-01 7.053790e-01 7.059580e-01 7.064070e-01 7.067297e-01 7.069218e-01 7.069872e-01 7.069218e-01 7.067297e-01 7.064070e-01 7.059580e-01 7.053790e-01 7.046743e-01 7.038406e-01 7.028825e-01 7.017965e-01 7.005876e-01 6.992526e-01 6.977964e-01 6.962163e-01 6.945171e-01 6.926964e-01 6.907592e-01 6.887032e-01 6.865335e-01 6.842482e-01 6.818523e-01 6.793443e-01 6.767292e-01 6.740056e-01 6.711788e-01 6.682474e-01 6.652170e-01 6.620863e-01 6.588609e-01 6.555398e-01 6.521285e-01 6.486264e-01 6.450389e-01 6.413657e-01 6.376121e-01 6.337781e-01 6.298688e-01 6.258846e-01 6.218307e-01 6.177074e-01 6.135198e-01 6.092688e-01 6.049592e-01 6.005921e-01 5.961722e-01 5.917007e-01 5.871825e-01 5.826188e-01 5.780143e-01 5.733706e-01 5.686921e-01 5.639807e-01 5.592405e-01 5.544737e-01 5.496842e-01 5.448744e-01 5.400480e-01 5.352075e-01 5.303565e-01 5.254977e-01 5.206344e-01 5.157695e-01 5.109060e-01 5.060471e-01 5.011955e-01 4.963544e-01 4.915265e-01 4.867150e-01 4.819224e-01 4.771521e-01 4.724062e-01 4.676883e-01 4.630002e-01 4.583456e-01 4.537262e-01 4.491456e-01 4.446053e-01 4.401091e-01 4.356582e-01 4.312564e-01 4.269046e-01 4.226068e-01 4.183636e-01 4.141790e-01 4.100535e-01 4.059912e-01 4.019920e-01 3.980603e-01 3.941959e-01 3.904029e-01 3.866810e-01 3.830344e-01 3.794625e-01 3.759696e-01 3.725548e-01 3.692223e-01 3.659712e-01 3.628058e-01 3.597246e-01 3.567321e-01 3.538268e-01 3.510128e-01 3.482887e-01 3.456585e-01 3.431206e-01 3.406790e-01 3.383318e-01 3.360832e-01 3.339311e-01 3.318795e-01 3.299261e-01 3.280752e-01 3.263241e-01 3.246770e-01 3.231311e-01 3.216907e-01 3.203528e-01 3.191216e-01 3.179940e-01 3.169740e-01 3.160585e-01 3.152515e-01 3.145498e-01 3.139572e-01 3.134703e-01 3.130930e-01 3.128219e-01 3.126606e-01 
3.120213e-01 3.120765e-01 3.122387e-01 3.125114e-01 3.128908e-01 3.133803e-01 3.139763e-01 3.146819e-01 3.154934e-01 3.164138e-01 3.174394e-01 3.185732e-01 3.198111e-01 3.211562e-01 3.226043e-01 3.241584e-01 3.258142e-01 3.275745e-01 3.294351e-01 3.313985e-01 3.334605e-01 3.356236e-01 3.378835e-01 3.402423e-01 3.426959e-01 3.452462e-01 3.478890e-01 3.506261e-01 3.534533e-01 3.563722e-01 3.593785e-01 3.624737e-01 3.656534e-01 3.689189e-01 3.722660e-01 3.756956e-01 3.792035e-01 3.827906e-01 3.864524e-01 3.901897e-01 3.939982e-01 3.978783e-01 4.018257e-01 4.058406e-01 4.099187e-01 4.140601e-01 4.182605e-01 4.225197e-01 4.268335e-01 4.312012e-01 4.356190e-01 4.400860e-01 4.445981e-01 4.491543e-01 4.537508e-01 4.583861e-01 4.630565e-01 4.677604e-01 4.724941e-01 4.772556e-01 4.820415e-01 4.868496e-01 4.916765e-01 4.965197e-01 5.013761e-01 5.062428e-01 5.111168e-01 5.159952e-01 5.208750e-01 5.257529e-01 5.306263e-01 5.354918e-01 5.403465e-01 5.451871e-01 5.500110e-01 5.548143e-01 5.595949e-01 5.643486e-01 5.690735e-01 5.737652e-01 5.784220e-01 5.830394e-01 5.876157e-01 5.921465e-01 5.966303e-01 6.010623e-01 6.054414e-01 6.097627e-01 6.140253e-01 6.182242e-01 6.223586e-01 6.264234e-01 6.304183e-01 6.343380e-01 6.381822e-01 6.419458e-01 6.456287e-01 6.492257e-01 6.527370e-01 6.561572e-01 6.594870e-01 6.627209e-01 6.658597e-01 6.688981e-01 6.718370e-01 6.746712e-01 6.774018e-01 6.800237e-01 6.825383e-01 6.849403e-01 6.872315e-01 6.894068e-01 6.914681e-01 6.934103e-01 6.952357e-01 6.969392e-01 6.985234e-01 6.999833e-01 7.013217e-01 7.025337e-01 7.036225e-01 7.045831e-01 7.054189e-01 7.061254e-01 7.067059e-01 7.071561e-01 7.074796e-01 7.076722e-01 7.077377e-01 7.076722e-01 7.074796e-01 7.071561e-01 7.067059e-01 7.061254e-01 7.054189e-01 7.045831e-01 7.036225e-01 7.025337e-01 7.013217e-01 6.999833e-01 6.985234e-01 6.969392e-01 6.952357e-01 6.934103e-01 6.914681e-01 6.894068e-01 6.872315e-01 6.849403e-01 6.825383e-01 6.800237e-01 6.774018e-01 6.746712e-01 6.718370e-01 6.688981e-01 6.658597e-01 6.627209e-01 6.594870e-01 6.561572e-01 6.527370e-01 6.492257e-01 6.456287e-01 6.419458e-01 6.381822e-01 6.343380e-01 6.304183e-01 6.264234e-01 6.223586e-01 6.182242e-01 6.140253e-01 6.097627e-01 6.054414e-01 6.010623e-01 5.966303e-01 5.921465e-01 5.876157e-01 5.830394e-01 5.784220e-01 5.737652e-01 5.690735e-01 5.643486e-01 5.595949e-01 5.548143e-01 5.500110e-01 5.451871e-01 5.403465e-01 5.354918e-01 5.306263e-01 5.257529e-01 5.208750e-01 5.159952e-01 5.111168e-01 5.062428e-01 5.013761e-01 4.965197e-01 4.916765e-01 4.868496e-01 4.820415e-01 4.772556e-01 4.724941e-01 4.677604e-01 4.630565e-01 4.583861e-01 4.537508e-01 4.491543e-01 4.445981e-01 4.400860e-01 4.356190e-01 4.312012e-01 4.268335e-01 4.225197e-01 4.182605e-01 4.140601e-01 4.099187e-01 4.058406e-01 4.018257e-01 3.978783e-01 3.939982e-01 3.901897e-01 3.864524e-01 3.827906e-01 3.792035e-01 3.756956e-01 3.722660e-01 3.689189e-01 3.656534e-01 3.624737e-01 3.593785e-01 3.563722e-01 3.534533e-01 3.506261e-01 3.478890e-01 3.452462e-01 3.426959e-01 3.402423e-01 3.378835e-01 3.356236e-01 3.334605e-01 3.313985e-01 3.294351e-01 3.275745e-01 3.258142e-01 3.241584e-01 3.226043e-01 3.211562e-01 3.198111e-01 3.185732e-01 3.174394e-01 3.164138e-01 3.154934e-01 3.146819e-01 3.139763e-01 3.133803e-01 3.128908e-01 3.125114e-01 3.122387e-01 3.120765e-01 
3.113293e-01 3.113849e-01 3.115482e-01 3.118226e-01 3.122046e-01 3.126974e-01 3.132973e-01 3.140075e-01 3.148243e-01 3.157509e-01 3.167831e-01 3.179242e-01 3.191702e-01 3.205238e-01 3.219812e-01 3.235451e-01 3.252113e-01 3.269825e-01 3.288546e-01 3.308301e-01 3.329046e-01 3.350807e-01 3.373540e-01 3.397268e-01 3.421947e-01 3.447597e-01 3.474177e-01 3.501703e-01 3.530133e-01 3.559483e-01 3.589710e-01 3.620829e-01 3.652796e-01 3.685624e-01 3.719269e-01 3.753742e-01 3.789000e-01 3.825050e-01 3.861851e-01 3.899407e-01 3.937676e-01 3.976662e-01 4.016323e-01 4.056659e-01 4.097629e-01 4.139231e-01 4.181424e-01 4.224205e-01 4.267532e-01 4.311399e-01 4.355767e-01 4.400625e-01 4.445936e-01 4.491687e-01 4.537840e-01 4.584381e-01 4.631272e-01 4.678498e-01 4.726020e-01 4.773820e-01 4.821863e-01 4.870128e-01 4.918578e-01 4.967192e-01 5.015935e-01 5.064781e-01 5.113698e-01 5.162657e-01 5.211629e-01 5.260582e-01 5.309487e-01 5.358311e-01 5.407027e-01 5.455599e-01 5.504002e-01 5.552198e-01 5.600164e-01 5.647860e-01 5.695265e-01 5.742338e-01 5.789058e-01 5.835382e-01 5.881294e-01 5.926748e-01 5.971730e-01 6.016192e-01 6.060122e-01 6.103472e-01 6.146232e-01 6.188352e-01 6.229825e-01 6.270600e-01 6.310672e-01 6.349990e-01 6.388550e-01 6.426301e-01 6.463243e-01 6.499322e-01 6.534542e-01 6.568848e-01 6.602247e-01 6.634683e-01 6.666165e-01 6.696640e-01 6.726118e-01 6.754544e-01 6.781932e-01 6.808228e-01 6.833449e-01 6.857540e-01 6.880520e-01 6.902337e-01 6.923011e-01 6.942490e-01 6.960798e-01 6.977884e-01 6.993772e-01 7.008414e-01 7.021838e-01 7.033994e-01 7.044913e-01 7.054547e-01 7.062930e-01 7.070015e-01 7.075837e-01 7.080352e-01 7.083597e-01 7.085528e-01 7.086186e-01 7.085528e-01 7.083597e-01 7.080352e-01 7.075837e-01 7.070015e-01 7.062930e-01 7.054547e-01 7.044913e-01 7.033994e-01 7.021838e-01 7.008414e-01 6.993772e-01 6.977884e-01 6.960798e-01 6.942490e-01 6.923011e-01 6.902337e-01 6.880520e-01 6.857540e-01 6.833449e-01 6.808228e-01 6.781932e-01 6.754544e-01 6.726118e-01 6.696640e-01 6.666165e-01 6.634683e-01 6.602247e-01 6.568848e-01 6.534542e-01 6.499322e-01 6.463243e-01 6.426301e-01 6.388550e-01 6.349990e-01 6.310672e-01 6.270600e-01 6.229825e-01 6.188352e-01 6.146232e-01 6.103472e-01 6.060122e-01 6.016192e-01 5.971730e-01 5.926748e-01 5.881294e-01 5.835382e-01 5.789058e-01 5.742338e-01 5.695265e-01 5.647860e-01 5.600164e-01 5.552198e-01 5.504002e-01 5.455599e-01 5.407027e-01 5.358311e-01 5.309487e-01 5.260582e-01 5.211629e-01 5.162657e-01 5.113698e-01 5.064781e-01 5.015935e-01 4.967192e-01 4.918578e-01 4.870128e-01 4.821863e-01 4.773820e-01 4.726020e-01 4.678498e-01 4.631272e-01 4.584381e-01 4.537840e-01 4.491687e-01 4.445936e-01 4.400625e-01 4.355767e-01 4.311399e-01 4.267532e-01 4.224205e-01 4.181424e-01 4.139231e-01 4.097629e-01 4.056659e-01 4.016323e-01 3.976662e-01 3.937676e-01 3.899407e-01 3.861851e-01 3.825050e-01 3.789000e-01 3.753742e-01 3.719269e-01 3.685624e-01 3.652796e-01 3.620829e-01 3.589710e-01 3.559483e-01 3.530133e-01 3.501703e-01 3.474177e-01 3.447597e-01 3.421947e-01 3.397268e-01 3.373540e-01 3.350807e-01 3.329046e-01 3.308301e-01 3.288546e-01 3.269825e-01 3.252113e-01 3.235451e-01 3.219812e-01 3.205238e-01 3.191702e-01 3.179242e-01 3.167831e-01 3.157509e-01 3.148243e-01 3.140075e-01 3.132973e-01 3.126974e-01 3.122046e-01 3.118226e-01 3.115482e-01 3.113849e-01 
3.105298e-01 3.105858e-01 3.107504e-01 3.110270e-01 3.114119e-01 3.119084e-01 3.125129e-01 3.132286e-01 3.140517e-01 3.149852e-01 3.160253e-01 3.171749e-01 3.184302e-01 3.197939e-01 3.212620e-01 3.228373e-01 3.245157e-01 3.262997e-01 3.281852e-01 3.301746e-01 3.322638e-01 3.344550e-01 3.367440e-01 3.391329e-01 3.416175e-01 3.441997e-01 3.468752e-01 3.496458e-01 3.525072e-01 3.554610e-01 3.585028e-01 3.616342e-01 3.648506e-01 3.681534e-01 3.715381e-01 3.750060e-01 3.785524e-01 3.821784e-01 3.858795e-01 3.896564e-01 3.935047e-01 3.974249e-01 4.014125e-01 4.054679e-01 4.095866e-01 4.137687e-01 4.180099e-01 4.223099e-01 4.266645e-01 4.310732e-01 4.355318e-01 4.400396e-01 4.445925e-01 4.491895e-01 4.538265e-01 4.585023e-01 4.632130e-01 4.679571e-01 4.727308e-01 4.775322e-01 4.823577e-01 4.872052e-01 4.920712e-01 4.969534e-01 5.018484e-01 5.067535e-01 5.116656e-01 5.165818e-01 5.214990e-01 5.264141e-01 5.313243e-01 5.362262e-01 5.411170e-01 5.459933e-01 5.508524e-01 5.556907e-01 5.605057e-01 5.652935e-01 5.700520e-01 5.747769e-01 5.794664e-01 5.841161e-01 5.887242e-01 5.932863e-01 5.978008e-01 6.022632e-01 6.066720e-01 6.110226e-01 6.153138e-01 6.195408e-01 6.237028e-01 6.277947e-01 6.318160e-01 6.357615e-01 6.396310e-01 6.434192e-01 6.471261e-01 6.507465e-01 6.542805e-01 6.577229e-01 6.610741e-01 6.643288e-01 6.674877e-01 6.705455e-01 6.735032e-01 6.763554e-01 6.791034e-01 6.817418e-01 6.842723e-01 6.866895e-01 6.889952e-01 6.911841e-01 6.932584e-01 6.952128e-01 6.970496e-01 6.987638e-01 7.003580e-01 7.018270e-01 7.031738e-01 7.043933e-01 7.054888e-01 7.064555e-01 7.072965e-01 7.080073e-01 7.085915e-01 7.090444e-01 7.093700e-01 7.095638e-01 7.096297e-01 7.095638e-01 7.093700e-01 7.090444e-01 7.085915e-01 7.080073e-01 7.072965e-01 7.064555e-01 7.054888e-01 7.043933e-01 7.031738e-01 7.018270e-01 7.003580e-01 6.987638e-01 6.970496e-01 6.952128e-01 6.932584e-01 6.911841e-01 6.889952e-01 6.866895e-01 6.842723e-01 6.817418e-01 6.791034e-01 6.763554e-01 6.735032e-01 6.705455e-01 6.674877e-01 6.643288e-01 6.610741e-01 6.577229e-01 6.542805e-01 6.507465e-01 6.471261e-01 6.434192e-01 6.396310e-01 6.357615e-01 6.318160e-01 6.277947e-01 6.237028e-01 6.195408e-01 6.153138e-01 6.110226e-01 6.066720e-01 6.022632e-01 5.978008e-01 5.932863e-01 5.887242e-01 5.841161e-01 5.794664e-01 5.747769e-01 5.700520e-01 5.652935e-01 5.605057e-01 5.556907e-01 5.508524e-01 5.459933e-01 5.411170e-01 5.362262e-01 5.313243e-01 5.264141e-01 5.214990e-01 5.165818e-01 5.116656e-01 5.067535e-01 5.018484e-01 4.969534e-01 4.920712e-01 4.872052e-01 4.823577e-01 4.775322e-01 4.727308e-01 4.679571e-01 4.632130e-01 4.585023e-01 4.538265e-01 4.491895e-01 4.445925e-01 4.400396e-01 4.355318e-01 4.310732e-01 4.266645e-01 4.223099e-01 4.180099e-01 4.137687e-01 4.095866e-01 4.054679e-01 4.014125e-01 3.974249e-01 3.935047e-01 3.896564e-01 3.858795e-01 3.821784e-01 3.785524e-01 3.750060e-01 3.715381e-01 3.681534e-01 3.648506e-01 3.616342e-01 3.585028e-01 3.554610e-01 3.525072e-01 3.496458e-01 3.468752e-01 3.441997e-01 3.416175e-01 3.391329e-01 3.367440e-01 3.344550e-01 3.322638e-01 3.301746e-01 3.281852e-01 3.262997e-01 3.245157e-01 3.228373e-01 3.212620e-01 3.197939e-01 3.184302e-01 3.171749e-01 3.160253e-01 3.149852e-01 3.140517e-01 3.132286e-01 3.125129e-01 3.119084e-01 3.114119e-01 3.110270e-01 3.107504e-01 3.105858e-01 
3.096222e-01 3.096787e-01 3.098447e-01 3.101237e-01 3.105120e-01 3.110129e-01 3.116226e-01 3.123445e-01 3.131747e-01 3.141163e-01 3.151653e-01 3.163247e-01 3.175906e-01 3.189658e-01 3.204462e-01 3.220346e-01 3.237268e-01 3.255254e-01 3.274262e-01 3.294317e-01 3.315375e-01 3.337460e-01 3.360529e-01 3.384603e-01 3.409640e-01 3.435657e-01 3.462613e-01 3.490525e-01 3.519349e-01 3.549101e-01 3.579737e-01 3.611272e-01 3.643661e-01 3.676917e-01 3.710996e-01 3.745908e-01 3.781608e-01 3.818107e-01 3.855358e-01 3.893369e-01 3.932096e-01 3.971542e-01 4.011664e-01 4.052465e-01 4.093900e-01 4.135969e-01 4.178630e-01 4.221879e-01 4.265675e-01 4.310011e-01 4.354846e-01 4.400173e-01 4.445950e-01 4.492167e-01 4.538785e-01 4.585789e-01 4.633142e-01 4.680827e-01 4.728806e-01 4.777062e-01 4.825558e-01 4.874272e-01 4.923170e-01 4.972228e-01 5.021412e-01 5.070696e-01 5.120047e-01 5.169437e-01 5.218836e-01 5.268212e-01 5.317536e-01 5.366774e-01 5.415900e-01 5.464878e-01 5.513683e-01 5.562276e-01 5.610633e-01 5.658717e-01 5.706504e-01 5.753952e-01 5.801044e-01 5.847734e-01 5.894006e-01 5.939815e-01 5.985145e-01 6.029950e-01 6.074216e-01 6.117897e-01 6.160981e-01 6.203420e-01 6.245204e-01 6.286284e-01 6.326655e-01 6.366264e-01 6.405110e-01 6.443139e-01 6.480351e-01 6.516694e-01 6.552170e-01 6.586725e-01 6.620365e-01 6.653035e-01 6.684744e-01 6.715437e-01 6.745125e-01 6.773754e-01 6.801337e-01 6.827820e-01 6.853219e-01 6.877481e-01 6.900623e-01 6.922594e-01 6.943413e-01 6.963029e-01 6.981466e-01 6.998671e-01 7.014670e-01 7.029415e-01 7.042932e-01 7.055172e-01 7.066168e-01 7.075869e-01 7.084310e-01 7.091445e-01 7.097307e-01 7.101853e-01 7.105121e-01 7.107065e-01 7.107728e-01 7.107065e-01 7.105121e-01 7.101853e-01 7.097307e-01 7.091445e-01 7.084310e-01 7.075869e-01 7.066168e-01 7.055172e-01 7.042932e-01 7.029415e-01 7.014670e-01 6.998671e-01 6.981466e-01 6.963029e-01 6.943413e-01 6.922594e-01 6.900623e-01 6.877481e-01 6.853219e-01 6.827820e-01 6.801337e-01 6.773754e-01 6.745125e-01 6.715437e-01 6.684744e-01 6.653035e-01 6.620365e-01 6.586725e-01 6.552170e-01 6.516694e-01 6.480351e-01 6.443139e-01 6.405110e-01 6.366264e-01 6.326655e-01 6.286284e-01 6.245204e-01 6.203420e-01 6.160981e-01 6.117897e-01 6.074216e-01 6.029950e-01 5.985145e-01 5.939815e-01 5.894006e-01 5.847734e-01 5.801044e-01 5.753952e-01 5.706504e-01 5.658717e-01 5.610633e-01 5.562276e-01 5.513683e-01 5.464878e-01 5.415900e-01 5.366774e-01 5.317536e-01 5.268212e-01 5.218836e-01 5.169437e-01 5.120047e-01 5.070696e-01 5.021412e-01 4.972228e-01 4.923170e-01 4.874272e-01 4.825558e-01 4.777062e-01 4.728806e-01 4.680827e-01 4.633142e-01 4.585789e-01 4.538785e-01 4.492167e-01 4.445950e-01 4.400173e-01 4.354846e-01 4.310011e-01 4.265675e-01 4.221879e-01 4.178630e-01 4.135969e-01 4.093900e-01 4.052465e-01 4.011664e-01 3.971542e-01 3.932096e-01 3.893369e-01 3.855358e-01 3.818107e-01 3.781608e-01 3.745908e-01 3.710996e-01 3.676917e-01 3.643661e-01 3.611272e-01 3.579737e-01 3.549101e-01 3.519349e-01 3.490525e-01 3.462613e-01 3.435657e-01 3.409640e-01 3.384603e-01 3.360529e-01 3.337460e-01 3.315375e-01 3.294317e-01 3.274262e-01 3.255254e-01 3.237268e-01 3.220346e-01 3.204462e-01 3.189658e-01 3.175906e-01 3.163247e-01 3.151653e-01 3.141163e-01 3.131747e-01 3.123445e-01 3.116226e-01 3.110129e-01 3.105120e-01 3.101237e-01 3.098447e-01 3.096787e-01 