# vtk DataFile Version 2.0
Comment goes here
ASCII

DATASET STRUCTURED_POINTS
FIELD FieldData 1
TIME 1 1 double
0.01000000
DIMENSIONS    256   256   1

ORIGIN    0.000   0.000   0.000
SPACING   0.0039062 0.0039062   1.000

POINT_DATA   65536
SCALARS uMag double
LOOKUP_TABLE default

9.728437e-02 9.730171e-02 9.735198e-02 9.743692e-02 9.755472e-02 9.770709e-02 9.789222e-02 9.811177e-02 9.836391e-02 9.865026e-02 9.896897e-02 9.932162e-02 9.970635e-02 1.001247e-01 1.005747e-01 1.010580e-01 1.015726e-01 1.021200e-01 1.026982e-01 1.033087e-01 1.039496e-01 1.046220e-01 1.053243e-01 1.060575e-01 1.068199e-01 1.076126e-01 1.084337e-01 1.092843e-01 1.101625e-01 1.110694e-01 1.120032e-01 1.129646e-01 1.139520e-01 1.149661e-01 1.160052e-01 1.170700e-01 1.181588e-01 1.192720e-01 1.204082e-01 1.215677e-01 1.227489e-01 1.239522e-01 1.251760e-01 1.264206e-01 1.276843e-01 1.289675e-01 1.302684e-01 1.315873e-01 1.329227e-01 1.342744e-01 1.356411e-01 1.370226e-01 1.384175e-01 1.398256e-01 1.412456e-01 1.426771e-01 1.441187e-01 1.455702e-01 1.470302e-01 1.484981e-01 1.499729e-01 1.514538e-01 1.529398e-01 1.544300e-01 1.559235e-01 1.574194e-01 1.589168e-01 1.604146e-01 1.619121e-01 1.634081e-01 1.649018e-01 1.663922e-01 1.678784e-01 1.693593e-01 1.708342e-01 1.723017e-01 1.737615e-01 1.752120e-01 1.766528e-01 1.780824e-01 1.795004e-01 1.809054e-01 1.822971e-01 1.836737e-01 1.850352e-01 1.863799e-01 1.877078e-01 1.890170e-01 1.903076e-01 1.915778e-01 1.928278e-01 1.940557e-01 1.952618e-01 1.964441e-01 1.976030e-01 1.987366e-01 1.998453e-01 2.009272e-01 2.019828e-01 2.030101e-01 2.040098e-01 2.049798e-01 2.059209e-01 2.068311e-01 2.077112e-01 2.085592e-01 2.093760e-01 2.101595e-01 2.109108e-01 2.116279e-01 2.123117e-01 2.129604e-01 2.135751e-01 2.141537e-01 2.146976e-01 2.152047e-01 2.156764e-01 2.161106e-01 2.165089e-01 2.168692e-01 2.171930e-01 2.174783e-01 2.177268e-01 2.179366e-01 2.181092e-01 2.182427e-01 2.183389e-01 2.183960e-01 2.184156e-01 2.183960e-01 2.183389e-01 2.182427e-01 2.181092e-01 2.179366e-01 2.177268e-01 2.174783e-01 2.171930e-01 2.168692e-01 2.165089e-01 2.161106e-01 2.156764e-01 2.152047e-01 2.146976e-01 2.141537e-01 2.135751e-01 2.129604e-01 2.123117e-01 2.116279e-01 2.109108e-01 2.101595e-01 2.093760e-01 2.085592e-01 2.077112e-01 2.068311e-01 2.059209e-01 2.049798e-01 2.040098e-01 2.030101e-01 2.019828e-01 2.009272e-01 1.998453e-01 1.987366e-01 1.976030e-01 1.964441e-01 1.952618e-01 1.940557e-01 1.928278e-01 1.915778e-01 1.903076e-01 1.890170e-01 1.877078e-01 1.863799e-01 1.850352e-01 1.836737e-01 1.822971e-01 1.809054e-01 1.795004e-01 1.780824e-01 1.766528e-01 1.752120e-01 1.737615e-01 1.723017e-01 1.708342e-01 1.693593e-01 1.678784e-01 1.663922e-01 1.649018e-01 1.634081e-01 1.619121e-01 1.604146e-01 1.589168e-01 1.574194e-01 1.559235e-01 1.544300e-01 1.529398e-01 1.514538e-01 1.499729e-01 1.484981e-01 1.470302e-01 1.455702e-01 1.441187e-01 1.426771e-01 1.412456e-01 1.398256e-01 1.384175e-01 1.370226e-01 1.356411e-01 1.342744e-01 1.329227e-01 1.315873e-01 1.302684e-01 1.289675e-01 1.276843e-01 1.264206e-01 1.251760e-01 1.239522e-01 1.227489e-01 1.215677e-01 1.204082e-01 1.192720e-01 1.181588e-01 1.170700e-01 1.160052e-01 1.149661e-01 1.139520e-01 1.129646e-01 1.120032e-01 1.110694e-01 1.101625e-01 1.092843e-01 1.084337e-01 1.076126e-01 1.068199e-01 1.060575e-01 1.053243e-01 1.046220e-01 1.039496e-01 1.033087e-01 1.026982e-01 1.021200e-01 1.015726e-01 1.010580e-01 1.005747e-01 1.001247e-01 9.970635e-02 9.932162e-02 9.896897e-02 9.865026e-02 9.836391e-02 9.811177e-02 9.789222e-02 9.770709e-02 9.755472e-02 9.743692e-02 9.735198e-02 9.730171e-02 
9.744331e-02 9.746058e-02 9.751063e-02 9.759519e-02 9.771246e-02 9.786416e-02 9.804847e-02 9.826706e-02 9.851808e-02 9.880318e-02 9.912050e-02 9.947162e-02 9.985468e-02 1.002712e-01 1.007194e-01 1.012006e-01 1.017130e-01 1.022581e-01 1.028339e-01 1.034419e-01 1.040801e-01 1.047498e-01 1.054492e-01 1.061795e-01 1.069389e-01 1.077284e-01 1.085463e-01 1.093936e-01 1.102684e-01 1.111719e-01 1.121021e-01 1.130599e-01 1.140437e-01 1.150541e-01 1.160894e-01 1.171503e-01 1.182351e-01 1.193445e-01 1.204766e-01 1.216321e-01 1.228092e-01 1.240084e-01 1.252280e-01 1.264684e-01 1.277279e-01 1.290068e-01 1.303035e-01 1.316181e-01 1.329491e-01 1.342964e-01 1.356587e-01 1.370359e-01 1.384264e-01 1.398301e-01 1.412457e-01 1.426727e-01 1.441099e-01 1.455569e-01 1.470125e-01 1.484760e-01 1.499463e-01 1.514228e-01 1.529043e-01 1.543901e-01 1.558793e-01 1.573708e-01 1.588637e-01 1.603572e-01 1.618503e-01 1.633420e-01 1.648314e-01 1.663175e-01 1.677994e-01 1.692761e-01 1.707468e-01 1.722102e-01 1.736658e-01 1.751122e-01 1.765489e-01 1.779745e-01 1.793887e-01 1.807897e-01 1.821775e-01 1.835503e-01 1.849081e-01 1.862491e-01 1.875733e-01 1.888789e-01 1.901660e-01 1.914327e-01 1.926793e-01 1.939039e-01 1.951067e-01 1.962858e-01 1.974416e-01 1.985722e-01 1.996780e-01 2.007569e-01 2.018097e-01 2.028343e-01 2.038314e-01 2.047988e-01 2.057375e-01 2.066453e-01 2.075231e-01 2.083688e-01 2.091835e-01 2.099650e-01 2.107143e-01 2.114295e-01 2.121116e-01 2.127587e-01 2.133718e-01 2.139489e-01 2.144914e-01 2.149972e-01 2.154677e-01 2.159008e-01 2.162980e-01 2.166574e-01 2.169804e-01 2.172650e-01 2.175129e-01 2.177221e-01 2.178943e-01 2.180275e-01 2.181235e-01 2.181804e-01 2.181999e-01 2.181804e-01 2.181235e-01 2.180275e-01 2.178943e-01 2.177221e-01 2.175129e-01 2.172650e-01 2.169804e-01 2.166574e-01 2.162980e-01 2.159008e-01 2.154677e-01 2.149972e-01 2.144914e-01 2.139489e-01 2.133718e-01 2.127587e-01 2.121116e-01 2.114295e-01 2.107143e-01 2.099650e-01 2.091835e-01 2.083688e-01 2.075231e-01 2.066453e-01 2.057375e-01 2.047988e-01 2.038314e-01 2.028343e-01 2.018097e-01 2.007569e-01 1.996780e-01 1.985722e-01 1.974416e-01 1.962858e-01 1.951067e-01 1.939039e-01 1.926793e-01 1.914327e-01 1.901660e-01 1.888789e-01 1.875733e-01 1.862491e-01 1.849081e-01 1.835503e-01 1.821775e-01 1.807897e-01 1.793887e-01 1.779745e-01 1.765489e-01 1.751122e-01 1.736658e-01 1.722102e-01 1.707468e-01 1.692761e-01 1.677994e-01 1.663175e-01 1.648314e-01 1.633420e-01 1.618503e-01 1.603572e-01 1.588637e-01 1.573708e-01 1.558793e-01 1.543901e-01 1.529043e-01 1.514228e-01 1.499463e-01 1.484760e-01 1.470125e-01 1.455569e-01 1.441099e-01 1.426727e-01 1.412457e-01 1.398301e-01 1.384264e-01 1.370359e-01 1.356587e-01 1.342964e-01 1.329491e-01 1.316181e-01 1.303035e-01 1.290068e-01 1.277279e-01 1.264684e-01 1.252280e-01 1.240084e-01 1.228092e-01 1.216321e-01 1.204766e-01 1.193445e-01 1.182351e-01 1.171503e-01 1.160894e-01 1.150541e-01 1.140437e-01 1.130599e-01 1.121021e-01 1.111719e-01 1.102684e-01 1.093936e-01 1.085463e-01 1.077284e-01 1.069389e-01 1.061795e-01 1.054492e-01 1.047498e-01 1.040801e-01 1.034419e-01 1.028339e-01 1.022581e-01 1.017130e-01 1.012006e-01 1.007194e-01 1.002712e-01 9.985468e-02 9.947162e-02 9.912050e-02 9.880318e-02 9.851808e-02 9.826706e-02 9.804847e-02 9.786416e-02 9.771246e-02 9.759519e-02 9.751063e-02 9.746058e-02 
9.756775e-02 9.758497e-02 9.763484e-02 9.771912e-02 9.783600e-02 9.798719e-02 9.817088e-02 9.838874e-02 9.863893e-02 9.892309e-02 9.923935e-02 9.958932e-02 9.997111e-02 1.003863e-01 1.008330e-01 1.013127e-01 1.018234e-01 1.023668e-01 1.029408e-01 1.035468e-01 1.041830e-01 1.048507e-01 1.055479e-01 1.062760e-01 1.070330e-01 1.078202e-01 1.086356e-01 1.094804e-01 1.103527e-01 1.112535e-01 1.121810e-01 1.131361e-01 1.141170e-01 1.151246e-01 1.161570e-01 1.172150e-01 1.182968e-01 1.194031e-01 1.205322e-01 1.216845e-01 1.228585e-01 1.240545e-01 1.252709e-01 1.265080e-01 1.277643e-01 1.290398e-01 1.303332e-01 1.316444e-01 1.329720e-01 1.343160e-01 1.356749e-01 1.370486e-01 1.384356e-01 1.398359e-01 1.412479e-01 1.426715e-01 1.441052e-01 1.455487e-01 1.470007e-01 1.484606e-01 1.499274e-01 1.514004e-01 1.528784e-01 1.543606e-01 1.558462e-01 1.573342e-01 1.588236e-01 1.603136e-01 1.618032e-01 1.632913e-01 1.647773e-01 1.662598e-01 1.677384e-01 1.692115e-01 1.706788e-01 1.721388e-01 1.735911e-01 1.750341e-01 1.764675e-01 1.778898e-01 1.793007e-01 1.806985e-01 1.820831e-01 1.834528e-01 1.848074e-01 1.861453e-01 1.874665e-01 1.887691e-01 1.900533e-01 1.913172e-01 1.925609e-01 1.937827e-01 1.949828e-01 1.961593e-01 1.973125e-01 1.984405e-01 1.995438e-01 2.006203e-01 2.016708e-01 2.026930e-01 2.036879e-01 2.046532e-01 2.055897e-01 2.064955e-01 2.073714e-01 2.082153e-01 2.090281e-01 2.098079e-01 2.105556e-01 2.112692e-01 2.119499e-01 2.125955e-01 2.132072e-01 2.137831e-01 2.143244e-01 2.148291e-01 2.152986e-01 2.157308e-01 2.161272e-01 2.164858e-01 2.168080e-01 2.170921e-01 2.173394e-01 2.175482e-01 2.177200e-01 2.178529e-01 2.179487e-01 2.180055e-01 2.180250e-01 2.180055e-01 2.179487e-01 2.178529e-01 2.177200e-01 2.175482e-01 2.173394e-01 2.170921e-01 2.168080e-01 2.164858e-01 2.161272e-01 2.157308e-01 2.152986e-01 2.148291e-01 2.143244e-01 2.137831e-01 2.132072e-01 2.125955e-01 2.119499e-01 2.112692e-01 2.105556e-01 2.098079e-01 2.090281e-01 2.082153e-01 2.073714e-01 2.064955e-01 2.055897e-01 2.046532e-01 2.036879e-01 2.026930e-01 2.016708e-01 2.006203e-01 1.995438e-01 1.984405e-01 1.973125e-01 1.961593e-01 1.949828e-01 1.937827e-01 1.925609e-01 1.913172e-01 1.900533e-01 1.887691e-01 1.874665e-01 1.861453e-01 1.848074e-01 1.834528e-01 1.820831e-01 1.806985e-01 1.793007e-01 1.778898e-01 1.764675e-01 1.750341e-01 1.735911e-01 1.721388e-01 1.706788e-01 1.692115e-01 1.677384e-01 1.662598e-01 1.647773e-01 1.632913e-01 1.618032e-01 1.603136e-01 1.588236e-01 1.573342e-01 1.558462e-01 1.543606e-01 1.528784e-01 1.514004e-01 1.499274e-01 1.484606e-01 1.470007e-01 1.455487e-01 1.441052e-01 1.426715e-01 1.412479e-01 1.398359e-01 1.384356e-01 1.370486e-01 1.356749e-01 1.343160e-01 1.329720e-01 1.316444e-01 1.303332e-01 1.290398e-01 1.277643e-01 1.265080e-01 1.252709e-01 1.240545e-01 1.228585e-01 1.216845e-01 1.205322e-01 1.194031e-01 1.182968e-01 1.172150e-01 1.161570e-01 1.151246e-01 1.141170e-01 1.131361e-01 1.121810e-01 1.112535e-01 1.103527e-01 1.094804e-01 1.086356e-01 1.078202e-01 1.070330e-01 1.062760e-01 1.055479e-01 1.048507e-01 1.041830e-01 1.035468e-01 1.029408e-01 1.023668e-01 1.018234e-01 1.013127e-01 1.008330e-01 1.003863e-01 9.997111e-02 9.958932e-02 9.923935e-02 9.892309e-02 9.863893e-02 9.838874e-02 9.817088e-02 9.798719e-02 9.783600e-02 9.771912e-02 9.763484e-02 9.758497e-02 
9.765980e-02 9.767698e-02 9.772673e-02 9.781083e-02 9.792743e-02 9.807829e-02 9.826156e-02 9.847893e-02 9.872855e-02 9.901207e-02 9.932761e-02 9.967681e-02 1.000578e-01 1.004720e-01 1.009177e-01 1.013963e-01 1.019060e-01 1.024482e-01 1.030209e-01 1.036257e-01 1.042605e-01 1.049267e-01 1.056225e-01 1.063491e-01 1.071045e-01 1.078900e-01 1.087038e-01 1.095468e-01 1.104174e-01 1.113163e-01 1.122420e-01 1.131952e-01 1.141741e-01 1.151797e-01 1.162101e-01 1.172660e-01 1.183457e-01 1.194499e-01 1.205768e-01 1.217270e-01 1.228987e-01 1.240924e-01 1.253065e-01 1.265413e-01 1.277952e-01 1.290684e-01 1.303593e-01 1.316681e-01 1.329933e-01 1.343348e-01 1.356912e-01 1.370623e-01 1.384468e-01 1.398445e-01 1.412540e-01 1.426749e-01 1.441060e-01 1.455469e-01 1.469962e-01 1.484535e-01 1.499176e-01 1.513878e-01 1.528632e-01 1.543427e-01 1.558256e-01 1.573108e-01 1.587975e-01 1.602847e-01 1.617716e-01 1.632569e-01 1.647402e-01 1.662200e-01 1.676957e-01 1.691662e-01 1.706307e-01 1.720880e-01 1.735375e-01 1.749778e-01 1.764086e-01 1.778282e-01 1.792364e-01 1.806316e-01 1.820135e-01 1.833806e-01 1.847327e-01 1.860680e-01 1.873867e-01 1.886868e-01 1.899685e-01 1.912300e-01 1.924714e-01 1.936908e-01 1.948886e-01 1.960627e-01 1.972137e-01 1.983396e-01 1.994407e-01 2.005152e-01 2.015636e-01 2.025839e-01 2.035768e-01 2.045402e-01 2.054750e-01 2.063790e-01 2.072532e-01 2.080954e-01 2.089067e-01 2.096849e-01 2.104312e-01 2.111434e-01 2.118227e-01 2.124671e-01 2.130777e-01 2.136524e-01 2.141927e-01 2.146964e-01 2.151650e-01 2.155963e-01 2.159919e-01 2.163498e-01 2.166715e-01 2.169550e-01 2.172018e-01 2.174102e-01 2.175816e-01 2.177143e-01 2.178099e-01 2.178666e-01 2.178860e-01 2.178666e-01 2.178099e-01 2.177143e-01 2.175816e-01 2.174102e-01 2.172018e-01 2.169550e-01 2.166715e-01 2.163498e-01 2.159919e-01 2.155963e-01 2.151650e-01 2.146964e-01 2.141927e-01 2.136524e-01 2.130777e-01 2.124671e-01 2.118227e-01 2.111434e-01 2.104312e-01 2.096849e-01 2.089067e-01 2.080954e-01 2.072532e-01 2.063790e-01 2.054750e-01 2.045402e-01 2.035768e-01 2.025839e-01 2.015636e-01 2.005152e-01 1.994407e-01 1.983396e-01 1.972137e-01 1.960627e-01 1.948886e-01 1.936908e-01 1.924714e-01 1.912300e-01 1.899685e-01 1.886868e-01 1.873867e-01 1.860680e-01 1.847327e-01 1.833806e-01 1.820135e-01 1.806316e-01 1.792364e-01 1.778282e-01 1.764086e-01 1.749778e-01 1.735375e-01 1.720880e-01 1.706307e-01 1.691662e-01 1.676957e-01 1.662200e-01 1.647402e-01 1.632569e-01 1.617716e-01 1.602847e-01 1.587975e-01 1.573108e-01 1.558256e-01 1.543427e-01 1.528632e-01 1.513878e-01 1.499176e-01 1.484535e-01 1.469962e-01 1.455469e-01 1.441060e-01 1.426749e-01 1.412540e-01 1.398445e-01 1.384468e-01 1.370623e-01 1.356912e-01 1.343348e-01 1.329933e-01 1.316681e-01 1.303593e-01 1.290684e-01 1.277952e-01 1.265413e-01 1.253065e-01 1.240924e-01 1.228987e-01 1.217270e-01 1.205768e-01 1.194499e-01 1.183457e-01 1.172660e-01 1.162101e-01 1.151797e-01 1.141741e-01 1.131952e-01 1.122420e-01 1.113163e-01 1.104174e-01 1.095468e-01 1.087038e-01 1.078900e-01 1.071045e-01 1.063491e-01 1.056225e-01 1.049267e-01 1.042605e-01 1.036257e-01 1.030209e-01 1.024482e-01 1.019060e-01 1.013963e-01 1.009177e-01 1.004720e-01 1.000578e-01 9.967681e-02 9.932761e-02 9.901207e-02 9.872855e-02 9.847893e-02 9.826156e-02 9.807829e-02 9.792743e-02 9.781083e-02 9.772673e-02 9.767698e-02 
9.771744e-02 9.773461e-02 9.778429e-02 9.786829e-02 9.798475e-02 9.813544e-02 9.831848e-02 9.853560e-02 9.878492e-02 9.906811e-02 9.938328e-02 9.973207e-02 1.001126e-01 1.005263e-01 1.009715e-01 1.014496e-01 1.019587e-01 1.025002e-01 1.030723e-01 1.036763e-01 1.043104e-01 1.049759e-01 1.056709e-01 1.063966e-01 1.071512e-01 1.079359e-01 1.087487e-01 1.095908e-01 1.104604e-01 1.113584e-01 1.122830e-01 1.132351e-01 1.142130e-01 1.152174e-01 1.162467e-01 1.173014e-01 1.183799e-01 1.194829e-01 1.206085e-01 1.217574e-01 1.229278e-01 1.241203e-01 1.253330e-01 1.265664e-01 1.278189e-01 1.290907e-01 1.303801e-01 1.316875e-01 1.330111e-01 1.343511e-01 1.357059e-01 1.370755e-01 1.384584e-01 1.398544e-01 1.412622e-01 1.426815e-01 1.441109e-01 1.455500e-01 1.469976e-01 1.484532e-01 1.499155e-01 1.513839e-01 1.528574e-01 1.543351e-01 1.558161e-01 1.572995e-01 1.587843e-01 1.602696e-01 1.617545e-01 1.632380e-01 1.647193e-01 1.661971e-01 1.676709e-01 1.691394e-01 1.706020e-01 1.720573e-01 1.735048e-01 1.749432e-01 1.763719e-01 1.777896e-01 1.791958e-01 1.805890e-01 1.819690e-01 1.833341e-01 1.846843e-01 1.860177e-01 1.873344e-01 1.886327e-01 1.899125e-01 1.911721e-01 1.924117e-01 1.936293e-01 1.948253e-01 1.959977e-01 1.971470e-01 1.982711e-01 1.993706e-01 2.004434e-01 2.014902e-01 2.025090e-01 2.035003e-01 2.044623e-01 2.053956e-01 2.062983e-01 2.071711e-01 2.080120e-01 2.088220e-01 2.095991e-01 2.103442e-01 2.110553e-01 2.117336e-01 2.123769e-01 2.129865e-01 2.135604e-01 2.140998e-01 2.146028e-01 2.150706e-01 2.155013e-01 2.158962e-01 2.162536e-01 2.165747e-01 2.168578e-01 2.171042e-01 2.173123e-01 2.174834e-01 2.176159e-01 2.177114e-01 2.177679e-01 2.177874e-01 2.177679e-01 2.177114e-01 2.176159e-01 2.174834e-01 2.173123e-01 2.171042e-01 2.168578e-01 2.165747e-01 2.162536e-01 2.158962e-01 2.155013e-01 2.150706e-01 2.146028e-01 2.140998e-01 2.135604e-01 2.129865e-01 2.123769e-01 2.117336e-01 2.110553e-01 2.103442e-01 2.095991e-01 2.088220e-01 2.080120e-01 2.071711e-01 2.062983e-01 2.053956e-01 2.044623e-01 2.035003e-01 2.025090e-01 2.014902e-01 2.004434e-01 1.993706e-01 1.982711e-01 1.971470e-01 1.959977e-01 1.948253e-01 1.936293e-01 1.924117e-01 1.911721e-01 1.899125e-01 1.886327e-01 1.873344e-01 1.860177e-01 1.846843e-01 1.833341e-01 1.819690e-01 1.805890e-01 1.791958e-01 1.777896e-01 1.763719e-01 1.749432e-01 1.735048e-01 1.720573e-01 1.706020e-01 1.691394e-01 1.676709e-01 1.661971e-01 1.647193e-01 1.632380e-01 1.617545e-01 1.602696e-01 1.587843e-01 1.572995e-01 1.558161e-01 1.543351e-01 1.528574e-01 1.513839e-01 1.499155e-01 1.484532e-01 1.469976e-01 1.455500e-01 1.441109e-01 1.426815e-01 1.412622e-01 1.398544e-01 1.384584e-01 1.370755e-01 1.357059e-01 1.343511e-01 1.330111e-01 1.316875e-01 1.303801e-01 1.290907e-01 1.278189e-01 1.265664e-01 1.253330e-01 1.241203e-01 1.229278e-01 1.217574e-01 1.206085e-01 1.194829e-01 1.183799e-01 1.173014e-01 1.162467e-01 1.152174e-01 1.142130e-01 1.132351e-01 1.122830e-01 1.113584e-01 1.104604e-01 1.095908e-01 1.087487e-01 1.079359e-01 1.071512e-01 1.063966e-01 1.056709e-01 1.049759e-01 1.043104e-01 1.036763e-01 1.030723e-01 1.025002e-01 1.019587e-01 1.014496e-01 1.009715e-01 1.005263e-01 1.001126e-01 9.973207e-02 9.938328e-02 9.906811e-02 9.878492e-02 9.853560e-02 9.831848e-02 9.813544e-02 9.798475e-02 9.786829e-02 9.778429e-02 9.773461e-02 
9.774264e-02 9.775982e-02 9.780950e-02 9.789349e-02 9.800994e-02 9.816061e-02 9.834363e-02 9.856074e-02 9.881002e-02 9.909319e-02 9.940833e-02 9.975708e-02 1.001375e-01 1.005513e-01 1.009964e-01 1.014744e-01 1.019834e-01 1.025249e-01 1.030969e-01 1.037009e-01 1.043349e-01 1.050003e-01 1.056951e-01 1.064207e-01 1.071752e-01 1.079597e-01 1.087724e-01 1.096143e-01 1.104837e-01 1.113815e-01 1.123059e-01 1.132578e-01 1.142355e-01 1.152396e-01 1.162686e-01 1.173231e-01 1.184013e-01 1.195039e-01 1.206292e-01 1.217777e-01 1.229478e-01 1.241398e-01 1.253521e-01 1.265851e-01 1.278371e-01 1.291083e-01 1.303973e-01 1.317040e-01 1.330271e-01 1.343664e-01 1.357206e-01 1.370895e-01 1.384718e-01 1.398671e-01 1.412742e-01 1.426926e-01 1.441213e-01 1.455595e-01 1.470063e-01 1.484609e-01 1.499223e-01 1.513898e-01 1.528623e-01 1.543390e-01 1.558189e-01 1.573012e-01 1.587849e-01 1.602691e-01 1.617529e-01 1.632352e-01 1.647152e-01 1.661919e-01 1.676645e-01 1.691316e-01 1.705930e-01 1.720469e-01 1.734932e-01 1.749302e-01 1.763576e-01 1.777738e-01 1.791787e-01 1.805705e-01 1.819491e-01 1.833129e-01 1.846616e-01 1.859936e-01 1.873090e-01 1.886058e-01 1.898843e-01 1.911424e-01 1.923806e-01 1.935969e-01 1.947915e-01 1.959625e-01 1.971105e-01 1.982333e-01 1.993314e-01 2.004030e-01 2.014485e-01 2.024660e-01 2.034562e-01 2.044170e-01 2.053491e-01 2.062506e-01 2.071223e-01 2.079622e-01 2.087712e-01 2.095472e-01 2.102914e-01 2.110016e-01 2.116789e-01 2.123215e-01 2.129303e-01 2.135034e-01 2.140421e-01 2.145444e-01 2.150115e-01 2.154417e-01 2.158361e-01 2.161930e-01 2.165137e-01 2.167963e-01 2.170425e-01 2.172502e-01 2.174212e-01 2.175535e-01 2.176488e-01 2.177053e-01 2.177247e-01 2.177053e-01 2.176488e-01 2.175535e-01 2.174212e-01 2.172502e-01 2.170425e-01 2.167963e-01 2.165137e-01 2.161930e-01 2.158361e-01 2.154417e-01 2.150115e-01 2.145444e-01 2.140421e-01 2.135034e-01 2.129303e-01 2.123215e-01 2.116789e-01 2.110016e-01 2.102914e-01 2.095472e-01 2.087712e-01 2.079622e-01 2.071223e-01 2.062506e-01 2.053491e-01 2.044170e-01 2.034562e-01 2.024660e-01 2.014485e-01 2.004030e-01 1.993314e-01 1.982333e-01 1.971105e-01 1.959625e-01 1.947915e-01 1.935969e-01 1.923806e-01 1.911424e-01 1.898843e-01 1.886058e-01 1.873090e-01 1.859936e-01 1.846616e-01 1.833129e-01 1.819491e-01 1.805705e-01 1.791787e-01 1.777738e-01 1.763576e-01 1.749302e-01 1.734932e-01 1.720469e-01 1.705930e-01 1.691316e-01 1.676645e-01 1.661919e-01 1.647152e-01 1.632352e-01 1.617529e-01 1.602691e-01 1.587849e-01 1.573012e-01 1.558189e-01 1.543390e-01 1.528623e-01 1.513898e-01 1.499223e-01 1.484609e-01 1.470063e-01 1.455595e-01 1.441213e-01 1.426926e-01 1.412742e-01 1.398671e-01 1.384718e-01 1.370895e-01 1.357206e-01 1.343664e-01 1.330271e-01 1.317040e-01 1.303973e-01 1.291083e-01 1.278371e-01 1.265851e-01 1.253521e-01 1.241398e-01 1.229478e-01 1.217777e-01 1.206292e-01 1.195039e-01 1.184013e-01 1.173231e-01 1.162686e-01 1.152396e-01 1.142355e-01 1.132578e-01 1.123059e-01 1.113815e-01 1.104837e-01 1.096143e-01 1.087724e-01 1.079597e-01 1.071752e-01 1.064207e-01 1.056951e-01 1.050003e-01 1.043349e-01 1.037009e-01 1.030969e-01 1.025249e-01 1.019834e-01 1.014744e-01 1.009964e-01 1.005513e-01 1.001375e-01 9.975708e-02 9.940833e-02 9.909319e-02 9.881002e-02 9.856074e-02 9.834363e-02 9.816061e-02 9.800994e-02 9.789349e-02 9.780950e-02 9.775982e-02 
9.773348e-02 9.775067e-02 9.780040e-02 9.788448e-02 9.800104e-02 9.815187e-02 9.833507e-02 9.855239e-02 9.880192e-02 9.908537e-02 9.940081e-02 9.974990e-02 1.001307e-01 1.005448e-01 1.009904e-01 1.014688e-01 1.019783e-01 1.025203e-01 1.030928e-01 1.036973e-01 1.043318e-01 1.049978e-01 1.056932e-01 1.064194e-01 1.071745e-01 1.079596e-01 1.087729e-01 1.096155e-01 1.104854e-01 1.113839e-01 1.123089e-01 1.132615e-01 1.142397e-01 1.152445e-01 1.162741e-01 1.173292e-01 1.184080e-01 1.195113e-01 1.206371e-01 1.217862e-01 1.229568e-01 1.241493e-01 1.253622e-01 1.265956e-01 1.278481e-01 1.291198e-01 1.304092e-01 1.317163e-01 1.330397e-01 1.343794e-01 1.357339e-01 1.371031e-01 1.384856e-01 1.398811e-01 1.412884e-01 1.427070e-01 1.441357e-01 1.455741e-01 1.470209e-01 1.484755e-01 1.499369e-01 1.514043e-01 1.528767e-01 1.543532e-01 1.558330e-01 1.573151e-01 1.587986e-01 1.602824e-01 1.617659e-01 1.632478e-01 1.647275e-01 1.662037e-01 1.676758e-01 1.691425e-01 1.706033e-01 1.720567e-01 1.735024e-01 1.749388e-01 1.763655e-01 1.777811e-01 1.791853e-01 1.805764e-01 1.819543e-01 1.833173e-01 1.846653e-01 1.859965e-01 1.873110e-01 1.886070e-01 1.898847e-01 1.911420e-01 1.923794e-01 1.935947e-01 1.947885e-01 1.959587e-01 1.971058e-01 1.982277e-01 1.993251e-01 2.003958e-01 2.014405e-01 2.024572e-01 2.034465e-01 2.044065e-01 2.053378e-01 2.062386e-01 2.071095e-01 2.079486e-01 2.087569e-01 2.095323e-01 2.102757e-01 2.109853e-01 2.116620e-01 2.123039e-01 2.129122e-01 2.134848e-01 2.140230e-01 2.145247e-01 2.149915e-01 2.154212e-01 2.158152e-01 2.161718e-01 2.164922e-01 2.167745e-01 2.170204e-01 2.172280e-01 2.173988e-01 2.175309e-01 2.176261e-01 2.176826e-01 2.177020e-01 2.176826e-01 2.176261e-01 2.175309e-01 2.173988e-01 2.172280e-01 2.170204e-01 2.167745e-01 2.164922e-01 2.161718e-01 2.158152e-01 2.154212e-01 2.149915e-01 2.145247e-01 2.140230e-01 2.134848e-01 2.129122e-01 2.123039e-01 2.116620e-01 2.109853e-01 2.102757e-01 2.095323e-01 2.087569e-01 2.079486e-01 2.071095e-01 2.062386e-01 2.053378e-01 2.044065e-01 2.034465e-01 2.024572e-01 2.014405e-01 2.003958e-01 1.993251e-01 1.982277e-01 1.971058e-01 1.959587e-01 1.947885e-01 1.935947e-01 1.923794e-01 1.911420e-01 1.898847e-01 1.886070e-01 1.873110e-01 1.859965e-01 1.846653e-01 1.833173e-01 1.819543e-01 1.805764e-01 1.791853e-01 1.777811e-01 1.763655e-01 1.749388e-01 1.735024e-01 1.720567e-01 1.706033e-01 1.691425e-01 1.676758e-01 1.662037e-01 1.647275e-01 1.632478e-01 1.617659e-01 1.602824e-01 1.587986e-01 1.573151e-01 1.558330e-01 1.543532e-01 1.528767e-01 1.514043e-01 1.499369e-01 1.484755e-01 1.470209e-01 1.455741e-01 1.441357e-01 1.427070e-01 1.412884e-01 1.398811e-01 1.384856e-01 1.371031e-01 1.357339e-01 1.343794e-01 1.330397e-01 1.317163e-01 1.304092e-01 1.291198e-01 1.278481e-01 1.265956e-01 1.253622e-01 1.241493e-01 1.229568e-01 1.217862e-01 1.206371e-01 1.195113e-01 1.184080e-01 1.173292e-01 1.162741e-01 1.152445e-01 1.142397e-01 1.132615e-01 1.123089e-01 1.113839e-01 1.104854e-01 1.096155e-01 1.087729e-01 1.079596e-01 1.071745e-01 1.064194e-01 1.056932e-01 1.049978e-01 1.043318e-01 1.036973e-01 1.030928e-01 1.025203e-01 1.019783e-01 1.014688e-01 1.009904e-01 1.005448e-01 1.001307e-01 9.974990e-02 9.940081e-02 9.908537e-02 9.880192e-02 9.855239e-02 9.833507e-02 9.815187e-02 9.800104e-02 9.788448e-02 9.780040e-02 9.775067e-02 
9.769179e-02 9.770902e-02 9.775885e-02 9.784311e-02 9.795992e-02 9.811107e-02 9.829464e-02 9.851242e-02 9.876247e-02 9.904650e-02 9.936258e-02 9.971239e-02 1.000940e-01 1.005089e-01 1.009553e-01 1.014347e-01 1.019452e-01 1.024882e-01 1.030618e-01 1.036674e-01 1.043032e-01 1.049703e-01 1.056670e-01 1.063945e-01 1.071509e-01 1.079374e-01 1.087521e-01 1.095960e-01 1.104674e-01 1.113673e-01 1.122938e-01 1.132478e-01 1.142276e-01 1.152339e-01 1.162650e-01 1.173216e-01 1.184019e-01 1.195066e-01 1.206340e-01 1.217845e-01 1.229566e-01 1.241505e-01 1.253648e-01 1.265997e-01 1.278535e-01 1.291266e-01 1.304173e-01 1.317258e-01 1.330505e-01 1.343915e-01 1.357472e-01 1.371176e-01 1.385012e-01 1.398979e-01 1.413062e-01 1.427259e-01 1.441556e-01 1.455949e-01 1.470426e-01 1.484981e-01 1.499603e-01 1.514285e-01 1.529016e-01 1.543789e-01 1.558593e-01 1.573419e-01 1.588260e-01 1.603103e-01 1.617942e-01 1.632765e-01 1.647566e-01 1.662331e-01 1.677055e-01 1.691724e-01 1.706333e-01 1.720868e-01 1.735326e-01 1.749690e-01 1.763958e-01 1.778113e-01 1.792154e-01 1.806064e-01 1.819841e-01 1.833468e-01 1.846946e-01 1.860256e-01 1.873398e-01 1.886355e-01 1.899128e-01 1.911698e-01 1.924067e-01 1.936217e-01 1.948150e-01 1.959848e-01 1.971314e-01 1.982528e-01 1.993497e-01 2.004199e-01 2.014641e-01 2.024802e-01 2.034691e-01 2.044285e-01 2.053594e-01 2.062596e-01 2.071300e-01 2.079686e-01 2.087764e-01 2.095513e-01 2.102943e-01 2.110034e-01 2.116797e-01 2.123211e-01 2.129290e-01 2.135012e-01 2.140390e-01 2.145404e-01 2.150068e-01 2.154362e-01 2.158300e-01 2.161862e-01 2.165064e-01 2.167885e-01 2.170343e-01 2.172417e-01 2.174123e-01 2.175444e-01 2.176395e-01 2.176959e-01 2.177153e-01 2.176959e-01 2.176395e-01 2.175444e-01 2.174123e-01 2.172417e-01 2.170343e-01 2.167885e-01 2.165064e-01 2.161862e-01 2.158300e-01 2.154362e-01 2.150068e-01 2.145404e-01 2.140390e-01 2.135012e-01 2.129290e-01 2.123211e-01 2.116797e-01 2.110034e-01 2.102943e-01 2.095513e-01 2.087764e-01 2.079686e-01 2.071300e-01 2.062596e-01 2.053594e-01 2.044285e-01 2.034691e-01 2.024802e-01 2.014641e-01 2.004199e-01 1.993497e-01 1.982528e-01 1.971314e-01 1.959848e-01 1.948150e-01 1.936217e-01 1.924067e-01 1.911698e-01 1.899128e-01 1.886355e-01 1.873398e-01 1.860256e-01 1.846946e-01 1.833468e-01 1.819841e-01 1.806064e-01 1.792154e-01 1.778113e-01 1.763958e-01 1.749690e-01 1.735326e-01 1.720868e-01 1.706333e-01 1.691724e-01 1.677055e-01 1.662331e-01 1.647566e-01 1.632765e-01 1.617942e-01 1.603103e-01 1.588260e-01 1.573419e-01 1.558593e-01 1.543789e-01 1.529016e-01 1.514285e-01 1.499603e-01 1.484981e-01 1.470426e-01 1.455949e-01 1.441556e-01 1.427259e-01 1.413062e-01 1.398979e-01 1.385012e-01 1.371176e-01 1.357472e-01 1.343915e-01 1.330505e-01 1.317258e-01 1.304173e-01 1.291266e-01 1.278535e-01 1.265997e-01 1.253648e-01 1.241505e-01 1.229566e-01 1.217845e-01 1.206340e-01 1.195066e-01 1.184019e-01 1.173216e-01 1.162650e-01 1.152339e-01 1.142276e-01 1.132478e-01 1.122938e-01 1.113673e-01 1.104674e-01 1.095960e-01 1.087521e-01 1.079374e-01 1.071509e-01 1.063945e-01 1.056670e-01 1.049703e-01 1.043032e-01 1.036674e-01 1.030618e-01 1.024882e-01 1.019452e-01 1.014347e-01 1.009553e-01 1.005089e-01 1.000940e-01 9.971239e-02 9.936258e-02 9.904650e-02 9.876247e-02 9.851242e-02 9.829464e-02 9.811107e-02 9.795992e-02 9.784311e-02 9.775885e-02 9.770902e-02 