# vtk DataFile Version 2.0
Comment goes here
ASCII

DATASET STRUCTURED_POINTS
FIELD FieldData 1
TIME 1 1 double
0.05000000
DIMENSIONS    256   256   1

ORIGIN    0.000   0.000   0.000
SPACING   0.0039062 0.0039062   1.000

POINT_DATA   65536
SCALARS uMag double
LOOKUP_TABLE default

3.340472e-01 3.341066e-01 3.342766e-01 3.345652e-01 3.349642e-01 3.354816e-01 3.361091e-01 3.368545e-01 3.377094e-01 3.386815e-01 3.397625e-01 3.409598e-01 3.422650e-01 3.436855e-01 3.452129e-01 3.468543e-01 3.486013e-01 3.504608e-01 3.524245e-01 3.544991e-01 3.566762e-01 3.589622e-01 3.613489e-01 3.638424e-01 3.664347e-01 3.691314e-01 3.719246e-01 3.748197e-01 3.778088e-01 3.808971e-01 3.840767e-01 3.873525e-01 3.907167e-01 3.941739e-01 3.977165e-01 4.013486e-01 4.050627e-01 4.088626e-01 4.127411e-01 4.167015e-01 4.207366e-01 4.248495e-01 4.290332e-01 4.332902e-01 4.376138e-01 4.420062e-01 4.464609e-01 4.509794e-01 4.555555e-01 4.601905e-01 4.648783e-01 4.696197e-01 4.744089e-01 4.792461e-01 4.841261e-01 4.890483e-01 4.940079e-01 4.990040e-01 5.040319e-01 5.090901e-01 5.141745e-01 5.192831e-01 5.244120e-01 5.295587e-01 5.347197e-01 5.398922e-01 5.450728e-01 5.502582e-01 5.554457e-01 5.606313e-01 5.658126e-01 5.709853e-01 5.761474e-01 5.812941e-01 5.864238e-01 5.915313e-01 5.966153e-01 6.016703e-01 6.066955e-01 6.116848e-01 6.166378e-01 6.215481e-01 6.264158e-01 6.312342e-01 6.360035e-01 6.407169e-01 6.453750e-01 6.499706e-01 6.545049e-01 6.589702e-01 6.633681e-01 6.676908e-01 6.719403e-01 6.761085e-01 6.801978e-01 6.841998e-01 6.881175e-01 6.919421e-01 6.956772e-01 6.993138e-01 7.028557e-01 7.062940e-01 7.096327e-01 7.128629e-01 7.159890e-01 7.190019e-01 7.219065e-01 7.246934e-01 7.273681e-01 7.299212e-01 7.323584e-01 7.346702e-01 7.368629e-01 7.389269e-01 7.408686e-01 7.426788e-01 7.443640e-01 7.459151e-01 7.473390e-01 7.486266e-01 7.497850e-01 7.508052e-01 7.516948e-01 7.524448e-01 7.530630e-01 7.535405e-01 7.538854e-01 7.540891e-01 7.541599e-01 7.540891e-01 7.538854e-01 7.535405e-01 7.530630e-01 7.524448e-01 7.516948e-01 7.508052e-01 7.497850e-01 7.486266e-01 7.473390e-01 7.459151e-01 7.443640e-01 7.426788e-01 7.408686e-01 7.389269e-01 7.368629e-01 7.346702e-01 7.323584e-01 7.299212e-01 7.273681e-01 7.246934e-01 7.219065e-01 7.190019e-01 7.159890e-01 7.128629e-01 7.096327e-01 7.062940e-01 7.028557e-01 6.993138e-01 6.956772e-01 6.919421e-01 6.881175e-01 6.841998e-01 6.801978e-01 6.761085e-01 6.719403e-01 6.676908e-01 6.633681e-01 6.589702e-01 6.545049e-01 6.499706e-01 6.453750e-01 6.407169e-01 6.360035e-01 6.312342e-01 6.264158e-01 6.215481e-01 6.166378e-01 6.116848e-01 6.066955e-01 6.016703e-01 5.966153e-01 5.915313e-01 5.864238e-01 5.812941e-01 5.761474e-01 5.709853e-01 5.658126e-01 5.606313e-01 5.554457e-01 5.502582e-01 5.450728e-01 5.398922e-01 5.347197e-01 5.295587e-01 5.244120e-01 5.192831e-01 5.141745e-01 5.090901e-01 5.040319e-01 4.990040e-01 4.940079e-01 4.890483e-01 4.841261e-01 4.792461e-01 4.744089e-01 4.696197e-01 4.648783e-01 4.601905e-01 4.555555e-01 4.509794e-01 4.464609e-01 4.420062e-01 4.376138e-01 4.332902e-01 4.290332e-01 4.248495e-01 4.207366e-01 4.167015e-01 4.127411e-01 4.088626e-01 4.050627e-01 4.013486e-01 3.977165e-01 3.941739e-01 3.907167e-01 3.873525e-01 3.840767e-01 3.808971e-01 3.778088e-01 3.748197e-01 3.719246e-01 3.691314e-01 3.664347e-01 3.638424e-01 3.613489e-01 3.589622e-01 3.566762e-01 3.544991e-01 3.524245e-01 3.504608e-01 3.486013e-01 3.468543e-01 3.452129e-01 3.436855e-01 3.422650e-01 3.409598e-01 3.397625e-01 3.386815e-01 3.377094e-01 3.368545e-01 3.361091e-01 3.354816e-01 3.349642e-01 3.345652e-01 3.342766e-01 3.341066e-01 
3.342837e-01 3.343430e-01 3.345127e-01 3.348009e-01 3.351993e-01 3.357159e-01 3.363423e-01 3.370865e-01 3.379401e-01 3.389106e-01 3.399899e-01 3.411853e-01 3.424885e-01 3.439068e-01 3.454318e-01 3.470706e-01 3.488149e-01 3.506716e-01 3.526323e-01 3.547037e-01 3.568775e-01 3.591601e-01 3.615432e-01 3.640331e-01 3.666215e-01 3.693143e-01 3.721034e-01 3.749943e-01 3.779791e-01 3.810630e-01 3.842381e-01 3.875093e-01 3.908688e-01 3.943212e-01 3.978589e-01 4.014860e-01 4.051950e-01 4.089897e-01 4.128629e-01 4.168179e-01 4.208476e-01 4.249550e-01 4.291330e-01 4.333844e-01 4.377023e-01 4.420888e-01 4.465376e-01 4.510501e-01 4.556202e-01 4.602490e-01 4.649307e-01 4.696657e-01 4.744486e-01 4.792794e-01 4.841529e-01 4.890686e-01 4.940216e-01 4.990110e-01 5.040321e-01 5.090836e-01 5.141611e-01 5.192628e-01 5.243847e-01 5.295244e-01 5.346783e-01 5.398436e-01 5.450170e-01 5.501952e-01 5.553754e-01 5.605536e-01 5.657276e-01 5.708929e-01 5.760476e-01 5.811868e-01 5.863090e-01 5.914090e-01 5.964855e-01 6.015329e-01 6.065505e-01 6.115322e-01 6.164776e-01 6.213804e-01 6.262406e-01 6.310514e-01 6.358132e-01 6.405191e-01 6.451698e-01 6.497579e-01 6.542849e-01 6.587428e-01 6.631335e-01 6.674490e-01 6.716914e-01 6.758525e-01 6.799349e-01 6.839301e-01 6.878410e-01 6.916591e-01 6.953876e-01 6.990178e-01 7.025535e-01 7.059856e-01 7.093184e-01 7.125428e-01 7.156632e-01 7.186706e-01 7.215699e-01 7.243517e-01 7.270215e-01 7.295698e-01 7.320025e-01 7.343100e-01 7.364985e-01 7.385586e-01 7.404967e-01 7.423034e-01 7.439855e-01 7.455336e-01 7.469548e-01 7.482399e-01 7.493961e-01 7.504143e-01 7.513022e-01 7.520507e-01 7.526677e-01 7.531443e-01 7.534886e-01 7.536919e-01 7.537625e-01 7.536919e-01 7.534886e-01 7.531443e-01 7.526677e-01 7.520507e-01 7.513022e-01 7.504143e-01 7.493961e-01 7.482399e-01 7.469548e-01 7.455336e-01 7.439855e-01 7.423034e-01 7.404967e-01 7.385586e-01 7.364985e-01 7.343100e-01 7.320025e-01 7.295698e-01 7.270215e-01 7.243517e-01 7.215699e-01 7.186706e-01 7.156632e-01 7.125428e-01 7.093184e-01 7.059856e-01 7.025535e-01 6.990178e-01 6.953876e-01 6.916591e-01 6.878410e-01 6.839301e-01 6.799349e-01 6.758525e-01 6.716914e-01 6.674490e-01 6.631335e-01 6.587428e-01 6.542849e-01 6.497579e-01 6.451698e-01 6.405191e-01 6.358132e-01 6.310514e-01 6.262406e-01 6.213804e-01 6.164776e-01 6.115322e-01 6.065505e-01 6.015329e-01 5.964855e-01 5.914090e-01 5.863090e-01 5.811868e-01 5.760476e-01 5.708929e-01 5.657276e-01 5.605536e-01 5.553754e-01 5.501952e-01 5.450170e-01 5.398436e-01 5.346783e-01 5.295244e-01 5.243847e-01 5.192628e-01 5.141611e-01 5.090836e-01 5.040321e-01 4.990110e-01 4.940216e-01 4.890686e-01 4.841529e-01 4.792794e-01 4.744486e-01 4.696657e-01 4.649307e-01 4.602490e-01 4.556202e-01 4.510501e-01 4.465376e-01 4.420888e-01 4.377023e-01 4.333844e-01 4.291330e-01 4.249550e-01 4.208476e-01 4.168179e-01 4.128629e-01 4.089897e-01 4.051950e-01 4.014860e-01 3.978589e-01 3.943212e-01 3.908688e-01 3.875093e-01 3.842381e-01 3.810630e-01 3.779791e-01 3.749943e-01 3.721034e-01 3.693143e-01 3.666215e-01 3.640331e-01 3.615432e-01 3.591601e-01 3.568775e-01 3.547037e-01 3.526323e-01 3.506716e-01 3.488149e-01 3.470706e-01 3.454318e-01 3.439068e-01 3.424885e-01 3.411853e-01 3.399899e-01 3.389106e-01 3.379401e-01 3.370865e-01 3.363423e-01 3.357159e-01 3.351993e-01 3.348009e-01 3.345127e-01 3.343430e-01 
3.344058e-01 3.344650e-01 3.346346e-01 3.349227e-01 3.353208e-01 3.358372e-01 3.364633e-01 3.372071e-01 3.380602e-01 3.390302e-01 3.401089e-01 3.413037e-01 3.426062e-01 3.440237e-01 3.455479e-01 3.471859e-01 3.489293e-01 3.507850e-01 3.527446e-01 3.548149e-01 3.569876e-01 3.592689e-01 3.616508e-01 3.641394e-01 3.667264e-01 3.694178e-01 3.722054e-01 3.750948e-01 3.780780e-01 3.811602e-01 3.843336e-01 3.876030e-01 3.909607e-01 3.944112e-01 3.979470e-01 4.015720e-01 4.052790e-01 4.090716e-01 4.129426e-01 4.168953e-01 4.209227e-01 4.250277e-01 4.292033e-01 4.334521e-01 4.377674e-01 4.421513e-01 4.465973e-01 4.511070e-01 4.556742e-01 4.603001e-01 4.649787e-01 4.697106e-01 4.744903e-01 4.793179e-01 4.841880e-01 4.891003e-01 4.940497e-01 4.990355e-01 5.040530e-01 5.091007e-01 5.141743e-01 5.192721e-01 5.243899e-01 5.295255e-01 5.346753e-01 5.398363e-01 5.450054e-01 5.501792e-01 5.553548e-01 5.605285e-01 5.656978e-01 5.708584e-01 5.760083e-01 5.811426e-01 5.862599e-01 5.913549e-01 5.964264e-01 6.014687e-01 6.064811e-01 6.114576e-01 6.163979e-01 6.212954e-01 6.261502e-01 6.309557e-01 6.357122e-01 6.404127e-01 6.450580e-01 6.496408e-01 6.541623e-01 6.586149e-01 6.630002e-01 6.673104e-01 6.715475e-01 6.757033e-01 6.797805e-01 6.837704e-01 6.876762e-01 6.914892e-01 6.952128e-01 6.988381e-01 7.023689e-01 7.057963e-01 7.091244e-01 7.123442e-01 7.154603e-01 7.184634e-01 7.213584e-01 7.241362e-01 7.268021e-01 7.293467e-01 7.317757e-01 7.340798e-01 7.362650e-01 7.383220e-01 7.402571e-01 7.420611e-01 7.437406e-01 7.452863e-01 7.467053e-01 7.479884e-01 7.491428e-01 7.501595e-01 7.510459e-01 7.517933e-01 7.524093e-01 7.528851e-01 7.532289e-01 7.534319e-01 7.535023e-01 7.534319e-01 7.532289e-01 7.528851e-01 7.524093e-01 7.517933e-01 7.510459e-01 7.501595e-01 7.491428e-01 7.479884e-01 7.467053e-01 7.452863e-01 7.437406e-01 7.420611e-01 7.402571e-01 7.383220e-01 7.362650e-01 7.340798e-01 7.317757e-01 7.293467e-01 7.268021e-01 7.241362e-01 7.213584e-01 7.184634e-01 7.154603e-01 7.123442e-01 7.091244e-01 7.057963e-01 7.023689e-01 6.988381e-01 6.952128e-01 6.914892e-01 6.876762e-01 6.837704e-01 6.797805e-01 6.757033e-01 6.715475e-01 6.673104e-01 6.630002e-01 6.586149e-01 6.541623e-01 6.496408e-01 6.450580e-01 6.404127e-01 6.357122e-01 6.309557e-01 6.261502e-01 6.212954e-01 6.163979e-01 6.114576e-01 6.064811e-01 6.014687e-01 5.964264e-01 5.913549e-01 5.862599e-01 5.811426e-01 5.760083e-01 5.708584e-01 5.656978e-01 5.605285e-01 5.553548e-01 5.501792e-01 5.450054e-01 5.398363e-01 5.346753e-01 5.295255e-01 5.243899e-01 5.192721e-01 5.141743e-01 5.091007e-01 5.040530e-01 4.990355e-01 4.940497e-01 4.891003e-01 4.841880e-01 4.793179e-01 4.744903e-01 4.697106e-01 4.649787e-01 4.603001e-01 4.556742e-01 4.511070e-01 4.465973e-01 4.421513e-01 4.377674e-01 4.334521e-01 4.292033e-01 4.250277e-01 4.209227e-01 4.168953e-01 4.129426e-01 4.090716e-01 4.052790e-01 4.015720e-01 3.979470e-01 3.944112e-01 3.909607e-01 3.876030e-01 3.843336e-01 3.811602e-01 3.780780e-01 3.750948e-01 3.722054e-01 3.694178e-01 3.667264e-01 3.641394e-01 3.616508e-01 3.592689e-01 3.569876e-01 3.548149e-01 3.527446e-01 3.507850e-01 3.489293e-01 3.471859e-01 3.455479e-01 3.440237e-01 3.426062e-01 3.413037e-01 3.401089e-01 3.390302e-01 3.380602e-01 3.372071e-01 3.364633e-01 3.358372e-01 3.353208e-01 3.349227e-01 3.346346e-01 3.344650e-01 
3.344135e-01 3.344728e-01 3.346425e-01 3.349307e-01 3.353291e-01 3.358457e-01 3.364721e-01 3.372163e-01 3.380699e-01 3.390404e-01 3.401197e-01 3.413151e-01 3.426182e-01 3.440365e-01 3.455615e-01 3.472003e-01 3.489445e-01 3.508011e-01 3.527617e-01 3.548329e-01 3.570065e-01 3.592890e-01 3.616719e-01 3.641615e-01 3.667496e-01 3.694420e-01 3.722307e-01 3.751212e-01 3.781055e-01 3.811889e-01 3.843633e-01 3.876338e-01 3.909926e-01 3.944442e-01 3.979809e-01 4.016070e-01 4.053149e-01 4.091084e-01 4.129803e-01 4.169339e-01 4.209621e-01 4.250678e-01 4.292441e-01 4.334936e-01 4.378095e-01 4.421938e-01 4.466403e-01 4.511503e-01 4.557179e-01 4.603439e-01 4.650227e-01 4.697546e-01 4.745343e-01 4.793617e-01 4.842316e-01 4.891435e-01 4.940926e-01 4.990778e-01 5.040946e-01 5.091416e-01 5.142144e-01 5.193112e-01 5.244280e-01 5.295624e-01 5.347109e-01 5.398705e-01 5.450381e-01 5.502103e-01 5.553842e-01 5.605561e-01 5.657234e-01 5.708819e-01 5.760297e-01 5.811618e-01 5.862767e-01 5.913692e-01 5.964381e-01 6.014778e-01 6.064875e-01 6.114612e-01 6.163985e-01 6.212930e-01 6.261448e-01 6.309471e-01 6.357004e-01 6.403976e-01 6.450396e-01 6.496190e-01 6.541371e-01 6.585862e-01 6.629681e-01 6.672748e-01 6.715083e-01 6.756606e-01 6.797342e-01 6.837206e-01 6.876229e-01 6.914324e-01 6.951524e-01 6.987742e-01 7.023016e-01 7.057256e-01 7.090504e-01 7.122669e-01 7.153798e-01 7.183797e-01 7.212717e-01 7.240465e-01 7.267094e-01 7.292512e-01 7.316776e-01 7.339791e-01 7.361618e-01 7.382164e-01 7.401493e-01 7.419512e-01 7.436287e-01 7.451726e-01 7.465900e-01 7.478715e-01 7.490245e-01 7.500400e-01 7.509254e-01 7.516718e-01 7.522871e-01 7.527624e-01 7.531057e-01 7.533084e-01 7.533788e-01 7.533084e-01 7.531057e-01 7.527624e-01 7.522871e-01 7.516718e-01 7.509254e-01 7.500400e-01 7.490245e-01 7.478715e-01 7.465900e-01 7.451726e-01 7.436287e-01 7.419512e-01 7.401493e-01 7.382164e-01 7.361618e-01 7.339791e-01 7.316776e-01 7.292512e-01 7.267094e-01 7.240465e-01 7.212717e-01 7.183797e-01 7.153798e-01 7.122669e-01 7.090504e-01 7.057256e-01 7.023016e-01 6.987742e-01 6.951524e-01 6.914324e-01 6.876229e-01 6.837206e-01 6.797342e-01 6.756606e-01 6.715083e-01 6.672748e-01 6.629681e-01 6.585862e-01 6.541371e-01 6.496190e-01 6.450396e-01 6.403976e-01 6.357004e-01 6.309471e-01 6.261448e-01 6.212930e-01 6.163985e-01 6.114612e-01 6.064875e-01 6.014778e-01 5.964381e-01 5.913692e-01 5.862767e-01 5.811618e-01 5.760297e-01 5.708819e-01 5.657234e-01 5.605561e-01 5.553842e-01 5.502103e-01 5.450381e-01 5.398705e-01 5.347109e-01 5.295624e-01 5.244280e-01 5.193112e-01 5.142144e-01 5.091416e-01 5.040946e-01 4.990778e-01 4.940926e-01 4.891435e-01 4.842316e-01 4.793617e-01 4.745343e-01 4.697546e-01 4.650227e-01 4.603439e-01 4.557179e-01 4.511503e-01 4.466403e-01 4.421938e-01 4.378095e-01 4.334936e-01 4.292441e-01 4.250678e-01 4.209621e-01 4.169339e-01 4.129803e-01 4.091084e-01 4.053149e-01 4.016070e-01 3.979809e-01 3.944442e-01 3.909926e-01 3.876338e-01 3.843633e-01 3.811889e-01 3.781055e-01 3.751212e-01 3.722307e-01 3.694420e-01 3.667496e-01 3.641615e-01 3.616719e-01 3.592890e-01 3.570065e-01 3.548329e-01 3.527617e-01 3.508011e-01 3.489445e-01 3.472003e-01 3.455615e-01 3.440365e-01 3.426182e-01 3.413151e-01 3.401197e-01 3.390404e-01 3.380699e-01 3.372163e-01 3.364721e-01 3.358457e-01 3.353291e-01 3.349307e-01 3.346425e-01 3.344728e-01 
3.343067e-01 3.343661e-01 3.345361e-01 3.348247e-01 3.352238e-01 3.357412e-01 3.363687e-01 3.371141e-01 3.379690e-01 3.389411e-01 3.400220e-01 3.412193e-01 3.425245e-01 3.439450e-01 3.454723e-01 3.471136e-01 3.488604e-01 3.507198e-01 3.526833e-01 3.547575e-01 3.569343e-01 3.592199e-01 3.616062e-01 3.640993e-01 3.666909e-01 3.693869e-01 3.721793e-01 3.750735e-01 3.780616e-01 3.811488e-01 3.843272e-01 3.876016e-01 3.909643e-01 3.944199e-01 3.979606e-01 4.015907e-01 4.053026e-01 4.091001e-01 4.129760e-01 4.169335e-01 4.209656e-01 4.250752e-01 4.292554e-01 4.335086e-01 4.378283e-01 4.422163e-01 4.466664e-01 4.511800e-01 4.557510e-01 4.603804e-01 4.650625e-01 4.697977e-01 4.745804e-01 4.794108e-01 4.842836e-01 4.891983e-01 4.941500e-01 4.991378e-01 5.041570e-01 5.092063e-01 5.142813e-01 5.193801e-01 5.244988e-01 5.296350e-01 5.347851e-01 5.399462e-01 5.451151e-01 5.502884e-01 5.554634e-01 5.606362e-01 5.658043e-01 5.709635e-01 5.761117e-01 5.812441e-01 5.863592e-01 5.914518e-01 5.965206e-01 6.015601e-01 6.065695e-01 6.115427e-01 6.164794e-01 6.213732e-01 6.262241e-01 6.310255e-01 6.357778e-01 6.404738e-01 6.451146e-01 6.496926e-01 6.542093e-01 6.586569e-01 6.630371e-01 6.673421e-01 6.715740e-01 6.757244e-01 6.797962e-01 6.837807e-01 6.876810e-01 6.914885e-01 6.952065e-01 6.988263e-01 7.023517e-01 7.057736e-01 7.090964e-01 7.123109e-01 7.154217e-01 7.184196e-01 7.213097e-01 7.240825e-01 7.267436e-01 7.292835e-01 7.317081e-01 7.340079e-01 7.361889e-01 7.382420e-01 7.401734e-01 7.419738e-01 7.436500e-01 7.451926e-01 7.466088e-01 7.478893e-01 7.490413e-01 7.500559e-01 7.509406e-01 7.516864e-01 7.523012e-01 7.527760e-01 7.531191e-01 7.533216e-01 7.533919e-01 7.533216e-01 7.531191e-01 7.527760e-01 7.523012e-01 7.516864e-01 7.509406e-01 7.500559e-01 7.490413e-01 7.478893e-01 7.466088e-01 7.451926e-01 7.436500e-01 7.419738e-01 7.401734e-01 7.382420e-01 7.361889e-01 7.340079e-01 7.317081e-01 7.292835e-01 7.267436e-01 7.240825e-01 7.213097e-01 7.184196e-01 7.154217e-01 7.123109e-01 7.090964e-01 7.057736e-01 7.023517e-01 6.988263e-01 6.952065e-01 6.914885e-01 6.876810e-01 6.837807e-01 6.797962e-01 6.757244e-01 6.715740e-01 6.673421e-01 6.630371e-01 6.586569e-01 6.542093e-01 6.496926e-01 6.451146e-01 6.404738e-01 6.357778e-01 6.310255e-01 6.262241e-01 6.213732e-01 6.164794e-01 6.115427e-01 6.065695e-01 6.015601e-01 5.965206e-01 5.914518e-01 5.863592e-01 5.812441e-01 5.761117e-01 5.709635e-01 5.658043e-01 5.606362e-01 5.554634e-01 5.502884e-01 5.451151e-01 5.399462e-01 5.347851e-01 5.296350e-01 5.244988e-01 5.193801e-01 5.142813e-01 5.092063e-01 5.041570e-01 4.991378e-01 4.941500e-01 4.891983e-01 4.842836e-01 4.794108e-01 4.745804e-01 4.697977e-01 4.650625e-01 4.603804e-01 4.557510e-01 4.511800e-01 4.466664e-01 4.422163e-01 4.378283e-01 4.335086e-01 4.292554e-01 4.250752e-01 4.209656e-01 4.169335e-01 4.129760e-01 4.091001e-01 4.053026e-01 4.015907e-01 3.979606e-01 3.944199e-01 3.909643e-01 3.876016e-01 3.843272e-01 3.811488e-01 3.780616e-01 3.750735e-01 3.721793e-01 3.693869e-01 3.666909e-01 3.640993e-01 3.616062e-01 3.592199e-01 3.569343e-01 3.547575e-01 3.526833e-01 3.507198e-01 3.488604e-01 3.471136e-01 3.454723e-01 3.439450e-01 3.425245e-01 3.412193e-01 3.400220e-01 3.389411e-01 3.379690e-01 3.371141e-01 3.363687e-01 3.357412e-01 3.352238e-01 3.348247e-01 3.345361e-01 3.343661e-01 
3.340854e-01 3.341449e-01 3.343153e-01 3.346048e-01 3.350049e-01 3.355237e-01 3.361529e-01 3.369003e-01 3.377575e-01 3.387322e-01 3.398160e-01 3.410164e-01 3.423250e-01 3.437492e-01 3.452804e-01 3.469258e-01 3.486771e-01 3.505411e-01 3.525095e-01 3.545888e-01 3.567708e-01 3.590620e-01 3.614539e-01 3.639528e-01 3.665503e-01 3.692525e-01 3.720512e-01 3.749518e-01 3.779464e-01 3.810402e-01 3.842253e-01 3.875065e-01 3.908761e-01 3.943386e-01 3.978862e-01 4.015233e-01 4.052423e-01 4.090469e-01 4.129298e-01 4.168944e-01 4.209336e-01 4.250502e-01 4.292374e-01 4.334976e-01 4.378242e-01 4.422191e-01 4.466759e-01 4.511963e-01 4.557739e-01 4.604099e-01 4.650984e-01 4.698400e-01 4.746290e-01 4.794655e-01 4.843443e-01 4.892649e-01 4.942224e-01 4.992158e-01 5.042405e-01 5.092950e-01 5.143752e-01 5.194790e-01 5.246026e-01 5.297434e-01 5.348981e-01 5.400635e-01 5.452366e-01 5.504140e-01 5.555928e-01 5.607692e-01 5.659408e-01 5.711032e-01 5.762545e-01 5.813899e-01 5.865078e-01 5.916029e-01 5.966742e-01 6.017159e-01 6.067273e-01 6.117024e-01 6.166408e-01 6.215362e-01 6.263886e-01 6.311911e-01 6.359445e-01 6.406415e-01 6.452830e-01 6.498617e-01 6.543789e-01 6.588269e-01 6.632074e-01 6.675125e-01 6.717444e-01 6.758948e-01 6.799663e-01 6.839505e-01 6.878505e-01 6.916575e-01 6.953751e-01 6.989943e-01 7.025190e-01 7.059402e-01 7.092623e-01 7.124760e-01 7.155859e-01 7.185830e-01 7.214722e-01 7.242442e-01 7.269044e-01 7.294434e-01 7.318671e-01 7.341660e-01 7.363462e-01 7.383984e-01 7.403290e-01 7.421286e-01 7.438041e-01 7.453460e-01 7.467616e-01 7.480414e-01 7.491930e-01 7.502071e-01 7.510913e-01 7.518367e-01 7.524512e-01 7.529258e-01 7.532687e-01 7.534711e-01 7.535414e-01 7.534711e-01 7.532687e-01 7.529258e-01 7.524512e-01 7.518367e-01 7.510913e-01 7.502071e-01 7.491930e-01 7.480414e-01 7.467616e-01 7.453460e-01 7.438041e-01 7.421286e-01 7.403290e-01 7.383984e-01 7.363462e-01 7.341660e-01 7.318671e-01 7.294434e-01 7.269044e-01 7.242442e-01 7.214722e-01 7.185830e-01 7.155859e-01 7.124760e-01 7.092623e-01 7.059402e-01 7.025190e-01 6.989943e-01 6.953751e-01 6.916575e-01 6.878505e-01 6.839505e-01 6.799663e-01 6.758948e-01 6.717444e-01 6.675125e-01 6.632074e-01 6.588269e-01 6.543789e-01 6.498617e-01 6.452830e-01 6.406415e-01 6.359445e-01 6.311911e-01 6.263886e-01 6.215362e-01 6.166408e-01 6.117024e-01 6.067273e-01 6.017159e-01 5.966742e-01 5.916029e-01 5.865078e-01 5.813899e-01 5.762545e-01 5.711032e-01 5.659408e-01 5.607692e-01 5.555928e-01 5.504140e-01 5.452366e-01 5.400635e-01 5.348981e-01 5.297434e-01 5.246026e-01 5.194790e-01 5.143752e-01 5.092950e-01 5.042405e-01 4.992158e-01 4.942224e-01 4.892649e-01 4.843443e-01 4.794655e-01 4.746290e-01 4.698400e-01 4.650984e-01 4.604099e-01 4.557739e-01 4.511963e-01 4.466759e-01 4.422191e-01 4.378242e-01 4.334976e-01 4.292374e-01 4.250502e-01 4.209336e-01 4.168944e-01 4.129298e-01 4.090469e-01 4.052423e-01 4.015233e-01 3.978862e-01 3.943386e-01 3.908761e-01 3.875065e-01 3.842253e-01 3.810402e-01 3.779464e-01 3.749518e-01 3.720512e-01 3.692525e-01 3.665503e-01 3.639528e-01 3.614539e-01 3.590620e-01 3.567708e-01 3.545888e-01 3.525095e-01 3.505411e-01 3.486771e-01 3.469258e-01 3.452804e-01 3.437492e-01 3.423250e-01 3.410164e-01 3.398160e-01 3.387322e-01 3.377575e-01 3.369003e-01 3.361529e-01 3.355237e-01 3.350049e-01 3.346048e-01 3.343153e-01 3.341449e-01 
3.337492e-01 3.338090e-01 3.339801e-01 3.342706e-01 3.346723e-01 3.351931e-01 3.358246e-01 3.365748e-01 3.374352e-01 3.384135e-01 3.395013e-01 3.407062e-01 3.420195e-01 3.434489e-01 3.449856e-01 3.466369e-01 3.483944e-01 3.502650e-01 3.522401e-01 3.543267e-01 3.565161e-01 3.588150e-01 3.612148e-01 3.637220e-01 3.663280e-01 3.690389e-01 3.718463e-01 3.747561e-01 3.777599e-01 3.808631e-01 3.840576e-01 3.873485e-01 3.907279e-01 3.942002e-01 3.977579e-01 4.014050e-01 4.051340e-01 4.089488e-01 4.128419e-01 4.168167e-01 4.208660e-01 4.249928e-01 4.291902e-01 4.334606e-01 4.377972e-01 4.422022e-01 4.466690e-01 4.511993e-01 4.557868e-01 4.604325e-01 4.651306e-01 4.698817e-01 4.746801e-01 4.795260e-01 4.844139e-01 4.893435e-01 4.943098e-01 4.993119e-01 5.043451e-01 5.094080e-01 5.144964e-01 5.196082e-01 5.247395e-01 5.298880e-01 5.350501e-01 5.402227e-01 5.454028e-01 5.505870e-01 5.557724e-01 5.609552e-01 5.661330e-01 5.713014e-01 5.764585e-01 5.815994e-01 5.867226e-01 5.918228e-01 5.968989e-01 6.019453e-01 6.069612e-01 6.119405e-01 6.168830e-01 6.217821e-01 6.266381e-01 6.314441e-01 6.362007e-01 6.409007e-01 6.455451e-01 6.501264e-01 6.546461e-01 6.590964e-01 6.634790e-01 6.677861e-01 6.720197e-01 6.761718e-01 6.802448e-01 6.842304e-01 6.881316e-01 6.919397e-01 6.956582e-01 6.992782e-01 7.028037e-01 7.062256e-01 7.095482e-01 7.127623e-01 7.158727e-01 7.188700e-01 7.217594e-01 7.245316e-01 7.271919e-01 7.297310e-01 7.321547e-01 7.344535e-01 7.366337e-01 7.386858e-01 7.406163e-01 7.424158e-01 7.440912e-01 7.456330e-01 7.470484e-01 7.483281e-01 7.494795e-01 7.504935e-01 7.513776e-01 7.521229e-01 7.527373e-01 7.532118e-01 7.535547e-01 7.537571e-01 7.538274e-01 7.537571e-01 7.535547e-01 7.532118e-01 7.527373e-01 7.521229e-01 7.513776e-01 7.504935e-01 7.494795e-01 7.483281e-01 7.470484e-01 7.456330e-01 7.440912e-01 7.424158e-01 7.406163e-01 7.386858e-01 7.366337e-01 7.344535e-01 7.321547e-01 7.297310e-01 7.271919e-01 7.245316e-01 7.217594e-01 7.188700e-01 7.158727e-01 7.127623e-01 7.095482e-01 7.062256e-01 7.028037e-01 6.992782e-01 6.956582e-01 6.919397e-01 6.881316e-01 6.842304e-01 6.802448e-01 6.761718e-01 6.720197e-01 6.677861e-01 6.634790e-01 6.590964e-01 6.546461e-01 6.501264e-01 6.455451e-01 6.409007e-01 6.362007e-01 6.314441e-01 6.266381e-01 6.217821e-01 6.168830e-01 6.119405e-01 6.069612e-01 6.019453e-01 5.968989e-01 5.918228e-01 5.867226e-01 5.815994e-01 5.764585e-01 5.713014e-01 5.661330e-01 5.609552e-01 5.557724e-01 5.505870e-01 5.454028e-01 5.402227e-01 5.350501e-01 5.298880e-01 5.247395e-01 5.196082e-01 5.144964e-01 5.094080e-01 5.043451e-01 4.993119e-01 4.943098e-01 4.893435e-01 4.844139e-01 4.795260e-01 4.746801e-01 4.698817e-01 4.651306e-01 4.604325e-01 4.557868e-01 4.511993e-01 4.466690e-01 4.422022e-01 4.377972e-01 4.334606e-01 4.291902e-01 4.249928e-01 4.208660e-01 4.168167e-01 4.128419e-01 4.089488e-01 4.051340e-01 4.014050e-01 3.977579e-01 3.942002e-01 3.907279e-01 3.873485e-01 3.840576e-01 3.808631e-01 3.777599e-01 3.747561e-01 3.718463e-01 3.690389e-01 3.663280e-01 3.637220e-01 3.612148e-01 3.588150e-01 3.565161e-01 3.543267e-01 3.522401e-01 3.502650e-01 3.483944e-01 3.466369e-01 3.449856e-01 3.434489e-01 3.420195e-01 3.407062e-01 3.395013e-01 3.384135e-01 3.374352e-01 3.365748e-01 3.358246e-01 3.351931e-01 3.346723e-01 3.342706e-01 3.339801e-01 3.338090e-01 
3.332982e-01 3.333582e-01 3.335302e-01 3.338221e-01 3.342257e-01 3.347490e-01 3.353836e-01 3.361374e-01 3.370019e-01 3.379850e-01 3.390779e-01 3.402885e-01 3.416080e-01 3.430440e-01 3.445878e-01 3.462468e-01 3.480123e-01 3.498913e-01 3.518753e-01 3.539711e-01 3.561701e-01 3.584790e-01 3.608891e-01 3.634069e-01 3.660238e-01 3.687459e-01 3.715649e-01 3.744863e-01 3.775021e-01 3.806175e-01 3.838244e-01 3.871278e-01 3.905199e-01 3.940051e-01 3.975757e-01 4.012359e-01 4.049780e-01 4.088060e-01 4.127124e-01 4.167005e-01 4.207632e-01 4.249034e-01 4.291141e-01 4.333978e-01 4.377477e-01 4.421660e-01 4.466460e-01 4.511894e-01 4.557899e-01 4.604486e-01 4.651595e-01 4.699233e-01 4.747342e-01 4.795925e-01 4.844927e-01 4.894344e-01 4.944127e-01 4.994265e-01 5.044713e-01 5.095457e-01 5.146452e-01 5.197680e-01 5.249101e-01 5.300691e-01 5.352415e-01 5.404242e-01 5.456142e-01 5.508080e-01 5.560028e-01 5.611947e-01 5.663814e-01 5.715584e-01 5.767238e-01 5.818729e-01 5.870039e-01 5.921118e-01 5.971953e-01 6.022488e-01 6.072715e-01 6.122574e-01 6.172062e-01 6.221114e-01 6.269733e-01 6.317849e-01 6.365468e-01 6.412519e-01 6.459012e-01 6.504871e-01 6.550112e-01 6.594657e-01 6.638523e-01 6.681631e-01 6.724003e-01 6.765557e-01 6.806319e-01 6.846205e-01 6.885245e-01 6.923352e-01 6.960561e-01 6.996784e-01 7.032060e-01 7.066298e-01 7.099543e-01 7.131701e-01 7.162820e-01 7.192808e-01 7.221715e-01 7.249448e-01 7.276062e-01 7.301463e-01 7.325709e-01 7.348706e-01 7.370515e-01 7.391043e-01 7.410354e-01 7.428355e-01 7.445112e-01 7.460535e-01 7.474692e-01 7.487493e-01 7.499009e-01 7.509152e-01 7.517995e-01 7.525450e-01 7.531595e-01 7.536341e-01 7.539770e-01 7.541795e-01 7.542498e-01 7.541795e-01 7.539770e-01 7.536341e-01 7.531595e-01 7.525450e-01 7.517995e-01 7.509152e-01 7.499009e-01 7.487493e-01 7.474692e-01 7.460535e-01 7.445112e-01 7.428355e-01 7.410354e-01 7.391043e-01 7.370515e-01 7.348706e-01 7.325709e-01 7.301463e-01 7.276062e-01 7.249448e-01 7.221715e-01 7.192808e-01 7.162820e-01 7.131701e-01 7.099543e-01 7.066298e-01 7.032060e-01 6.996784e-01 6.960561e-01 6.923352e-01 6.885245e-01 6.846205e-01 6.806319e-01 6.765557e-01 6.724003e-01 6.681631e-01 6.638523e-01 6.594657e-01 6.550112e-01 6.504871e-01 6.459012e-01 6.412519e-01 6.365468e-01 6.317849e-01 6.269733e-01 6.221114e-01 6.172062e-01 6.122574e-01 6.072715e-01 6.022488e-01 5.971953e-01 5.921118e-01 5.870039e-01 5.818729e-01 5.767238e-01 5.715584e-01 5.663814e-01 5.611947e-01 5.560028e-01 5.508080e-01 5.456142e-01 5.404242e-01 5.352415e-01 5.300691e-01 5.249101e-01 5.197680e-01 5.146452e-01 5.095457e-01 5.044713e-01 4.994265e-01 4.944127e-01 4.894344e-01 4.844927e-01 4.795925e-01 4.747342e-01 4.699233e-01 4.651595e-01 4.604486e-01 4.557899e-01 4.511894e-01 4.466460e-01 4.421660e-01 4.377477e-01 4.333978e-01 4.291141e-01 4.249034e-01 4.207632e-01 4.167005e-01 4.127124e-01 4.088060e-01 4.049780e-01 4.012359e-01 3.975757e-01 3.940051e-01 3.905199e-01 3.871278e-01 3.838244e-01 3.806175e-01 3.775021e-01 3.744863e-01 3.715649e-01 3.687459e-01 3.660238e-01 3.634069e-01 3.608891e-01 3.584790e-01 3.561701e-01 3.539711e-01 3.518753e-01 3.498913e-01 3.480123e-01 3.462468e-01 3.445878e-01 3.430440e-01 3.416080e-01 3.402885e-01 3.390779e-01 3.379850e-01 3.370019e-01 3.361374e-01 3.353836e-01 3.347490e-01 3.342257e-01 3.338221e-01 3.335302e-01 3.333582e-01 