# vtk DataFile Version 2.0
Comment goes here
ASCII

DATASET STRUCTURED_POINTS
FIELD FieldData 1
TIME 1 1 double
0.01000000
DIMENSIONS    256   256   1

ORIGIN    0.000   0.000   0.000
SPACING   0.0039062 0.0039062   1.000

POINT_DATA   65536
SCALARS uX double
LOOKUP_TABLE default

-1.150307e-15 1.751491e-04 3.502560e-04 5.252553e-04 7.001277e-04 8.747841e-04 1.049227e-03 1.223345e-03 1.397160e-03 1.570537e-03 1.743521e-03 1.915951e-03 2.087892e-03 2.259160e-03 2.429837e-03 2.599720e-03 2.768904e-03 2.937166e-03 3.104615e-03 3.271009e-03 3.436469e-03 3.600737e-03 3.763941e-03 3.925808e-03 4.086476e-03 4.245655e-03 4.403489e-03 4.559677e-03 4.714367e-03 4.867247e-03 5.018465e-03 5.167704e-03 5.315110e-03 5.460361e-03 5.603599e-03 5.744500e-03 5.883200e-03 6.019375e-03 6.153155e-03 6.284218e-03 6.412683e-03 6.538236e-03 6.660982e-03 6.780618e-03 6.897233e-03 7.010537e-03 7.120605e-03 7.227158e-03 7.330256e-03 7.429638e-03 7.525344e-03 7.617134e-03 7.705029e-03 7.788810e-03 7.868478e-03 7.943841e-03 8.014877e-03 8.081421e-03 8.143432e-03 8.200771e-03 8.253378e-03 8.301144e-03 8.343987e-03 8.381831e-03 8.414575e-03 8.442174e-03 8.464507e-03 8.481565e-03 8.493209e-03 8.499461e-03 8.500167e-03 8.495383e-03 8.484940e-03 8.468927e-03 8.447162e-03 8.419768e-03 8.386550e-03 8.347664e-03 8.302905e-03 8.252462e-03 8.196120e-03 8.134100e-03 8.066180e-03 7.992609e-03 7.913164e-03 7.828119e-03 7.737250e-03 7.640855e-03 7.538711e-03 7.431141e-03 7.317921e-03 7.199394e-03 7.075344e-03 6.946131e-03 6.811544e-03 6.671958e-03 6.527173e-03 6.377574e-03 6.222972e-03 6.063761e-03 5.899767e-03 5.731388e-03 5.558464e-03 5.381396e-03 5.200044e-03 5.014804e-03 4.825557e-03 4.632695e-03 4.436119e-03 4.236215e-03 4.032906e-03 3.826567e-03 3.617146e-03 3.405005e-03 3.190115e-03 2.972825e-03 2.753133e-03 2.531367e-03 2.307553e-03 2.082001e-03 1.854762e-03 1.626126e-03 1.396172e-03 1.165166e-03 9.332154e-04 7.005612e-04 4.673389e-04 2.337643e-04 -8.218002e-16 -2.337643e-04 -4.673389e-04 -7.005612e-04 -9.332154e-04 -1.165166e-03 -1.396172e-03 -1.626126e-03 -1.854762e-03 -2.082001e-03 -2.307553e-03 -2.531367e-03 -2.753133e-03 -2.972825e-03 -3.190115e-03 -3.405005e-03 -3.617146e-03 -3.826567e-03 -4.032906e-03 -4.236215e-03 -4.436119e-03 -4.632695e-03 -4.825557e-03 -5.014804e-03 -5.200044e-03 -5.381396e-03 -5.558464e-03 -5.731388e-03 -5.899767e-03 -6.063761e-03 -6.222972e-03 -6.377574e-03 -6.527173e-03 -6.671958e-03 -6.811544e-03 -6.946131e-03 -7.075344e-03 -7.199394e-03 -7.317921e-03 -7.431141e-03 -7.538711e-03 -7.640855e-03 -7.737250e-03 -7.828119e-03 -7.913164e-03 -7.992609e-03 -8.066180e-03 -8.134100e-03 -8.196120e-03 -8.252462e-03 -8.302905e-03 -8.347664e-03 -8.386550e-03 -8.419768e-03 -8.447162e-03 -8.468927e-03 -8.484940e-03 -8.495383e-03 -8.500167e-03 -8.499461e-03 -8.493209e-03 -8.481565e-03 -8.464507e-03 -8.442174e-03 -8.414575e-03 -8.381831e-03 -8.343987e-03 -8.301144e-03 -8.253378e-03 -8.200771e-03 -8.143432e-03 -8.081421e-03 -8.014877e-03 -7.943841e-03 -7.868478e-03 -7.788810e-03 -7.705029e-03 -7.617134e-03 -7.525344e-03 -7.429638e-03 -7.330256e-03 -7.227158e-03 -7.120605e-03 -7.010537e-03 -6.897233e-03 -6.780618e-03 -6.660982e-03 -6.538236e-03 -6.412683e-03 -6.284218e-03 -6.153155e-03 -6.019375e-03 -5.883200e-03 -5.744500e-03 -5.603599e-03 -5.460361e-03 -5.315110e-03 -5.167704e-03 -5.018465e-03 -4.867247e-03 -4.714367e-03 -4.559677e-03 -4.403489e-03 -4.245655e-03 -4.086476e-03 -3.925808e-03 -3.763941e-03 -3.600737e-03 -3.436469e-03 -3.271009e-03 -3.104615e-03 -2.937166e-03 -2.768904e-03 -2.599720e-03 -2.429837e-03 -2.259160e-03 -2.087892e-03 -1.915951e-03 -1.743521e-03 -1.570537e-03 -1.397160e-03 -1.223345e-03 -1.049227e-03 -8.747841e-04 -7.001277e-04 -5.252553e-04 -3.502560e-04 -1.751491e-04 
-9.570362e-16 1.416923e-04 2.833567e-04 4.249394e-04 5.664378e-04 7.077723e-04 8.489647e-04 9.899096e-04 1.130653e-03 1.271063e-03 1.411208e-03 1.550932e-03 1.690324e-03 1.829204e-03 1.967681e-03 2.105550e-03 2.242940e-03 2.379623e-03 2.515743e-03 2.651053e-03 2.785712e-03 2.919451e-03 3.052441e-03 3.184398e-03 3.315502e-03 3.445453e-03 3.574439e-03 3.702145e-03 3.828767e-03 3.953979e-03 4.077977e-03 4.200426e-03 4.321526e-03 4.440934e-03 4.558847e-03 4.674920e-03 4.789345e-03 4.901776e-03 5.012399e-03 5.120868e-03 5.227363e-03 5.331541e-03 5.433571e-03 5.533118e-03 5.630338e-03 5.724906e-03 5.816963e-03 5.906197e-03 5.992734e-03 6.076276e-03 6.156931e-03 6.234421e-03 6.308834e-03 6.379911e-03 6.447723e-03 6.512032e-03 6.572888e-03 6.630079e-03 6.683634e-03 6.733367e-03 6.779286e-03 6.821233e-03 6.859195e-03 6.893045e-03 6.922748e-03 6.948207e-03 6.969367e-03 6.986165e-03 6.998525e-03 7.006415e-03 7.009742e-03 7.008508e-03 7.002600e-03 6.992053e-03 6.976741e-03 6.956729e-03 6.931876e-03 6.902282e-03 6.867790e-03 6.828532e-03 6.784341e-03 6.735380e-03 6.681471e-03 6.622805e-03 6.559199e-03 6.490871e-03 6.417632e-03 6.339725e-03 6.256959e-03 6.169599e-03 6.077455e-03 5.980811e-03 5.879479e-03 5.773762e-03 5.663474e-03 5.548934e-03 5.429964e-03 5.306892e-03 5.179550e-03 5.048276e-03 4.912911e-03 4.773801e-03 4.630798e-03 4.484252e-03 4.334029e-03 4.180479e-03 4.023486e-03 3.863396e-03 3.700111e-03 3.533971e-03 3.364898e-03 3.193225e-03 3.018894e-03 2.842226e-03 2.663186e-03 2.482083e-03 2.298905e-03 2.113943e-03 1.927211e-03 1.738983e-03 1.549296e-03 1.358407e-03 1.166377e-03 9.734404e-04 7.796865e-04 5.853266e-04 3.904748e-04 1.953195e-04 -9.896412e-16 -1.953195e-04 -3.904748e-04 -5.853266e-04 -7.796865e-04 -9.734404e-04 -1.166377e-03 -1.358407e-03 -1.549296e-03 -1.738983e-03 -1.927211e-03 -2.113943e-03 -2.298905e-03 -2.482083e-03 -2.663186e-03 -2.842226e-03 -3.018894e-03 -3.193225e-03 -3.364898e-03 -3.533971e-03 -3.700111e-03 -3.863396e-03 -4.023486e-03 -4.180479e-03 -4.334029e-03 -4.484252e-03 -4.630798e-03 -4.773801e-03 -4.912911e-03 -5.048276e-03 -5.179550e-03 -5.306892e-03 -5.429964e-03 -5.548934e-03 -5.663474e-03 -5.773762e-03 -5.879479e-03 -5.980811e-03 -6.077455e-03 -6.169599e-03 -6.256959e-03 -6.339725e-03 -6.417632e-03 -6.490871e-03 -6.559199e-03 -6.622805e-03 -6.681471e-03 -6.735380e-03 -6.784341e-03 -6.828532e-03 -6.867790e-03 -6.902282e-03 -6.931876e-03 -6.956729e-03 -6.976741e-03 -6.992053e-03 -7.002600e-03 -7.008508e-03 -7.009742e-03 -7.006415e-03 -6.998525e-03 -6.986165e-03 -6.969367e-03 -6.948207e-03 -6.922748e-03 -6.893045e-03 -6.859195e-03 -6.821233e-03 -6.779286e-03 -6.733367e-03 -6.683634e-03 -6.630079e-03 -6.572888e-03 -6.512032e-03 -6.447723e-03 -6.379911e-03 -6.308834e-03 -6.234421e-03 -6.156931e-03 -6.076276e-03 -5.992734e-03 -5.906197e-03 -5.816963e-03 -5.724906e-03 -5.630338e-03 -5.533118e-03 -5.433571e-03 -5.331541e-03 -5.227363e-03 -5.120868e-03 -5.012399e-03 -4.901776e-03 -4.789345e-03 -4.674920e-03 -4.558847e-03 -4.440934e-03 -4.321526e-03 -4.200426e-03 -4.077977e-03 -3.953979e-03 -3.828767e-03 -3.702145e-03 -3.574439e-03 -3.445453e-03 -3.315502e-03 -3.184398e-03 -3.052441e-03 -2.919451e-03 -2.785712e-03 -2.651053e-03 -2.515743e-03 -2.379623e-03 -2.242940e-03 -2.105550e-03 -1.967681e-03 -1.829204e-03 -1.690324e-03 -1.550932e-03 -1.411208e-03 -1.271063e-03 -1.130653e-03 -9.899096e-04 -8.489647e-04 -7.077723e-04 -5.664378e-04 -4.249394e-04 -2.833567e-04 -1.416923e-04 
-6.695732e-16 1.082446e-04 2.164753e-04 3.246511e-04 4.327846e-04 5.408077e-04 6.487592e-04 7.565435e-04 8.642249e-04 9.716808e-04 1.078999e-03 1.186032e-03 1.292890e-03 1.399399e-03 1.505691e-03 1.611568e-03 1.717181e-03 1.822309e-03 1.927121e-03 2.031373e-03 2.135252e-03 2.238492e-03 2.341294e-03 2.443373e-03 2.544943e-03 2.645702e-03 2.745873e-03 2.845138e-03 2.943728e-03 3.041314e-03 3.138130e-03 3.233837e-03 3.328672e-03 3.422288e-03 3.514921e-03 3.606220e-03 3.696418e-03 3.785161e-03 3.872678e-03 3.958614e-03 4.043191e-03 4.126057e-03 4.207425e-03 4.286948e-03 4.364828e-03 4.440726e-03 4.514829e-03 4.586812e-03 4.656844e-03 4.724615e-03 4.790276e-03 4.853533e-03 4.914521e-03 4.972962e-03 5.028971e-03 5.082293e-03 5.133022e-03 5.180924e-03 5.226074e-03 5.268262e-03 5.307540e-03 5.343727e-03 5.376851e-03 5.406760e-03 5.433460e-03 5.456829e-03 5.476849e-03 5.493430e-03 5.506534e-03 5.516100e-03 5.522071e-03 5.524416e-03 5.523060e-03 5.518004e-03 5.509152e-03 5.496540e-03 5.480054e-03 5.459760e-03 5.435530e-03 5.407460e-03 5.375408e-03 5.339500e-03 5.299582e-03 5.255808e-03 5.208015e-03 5.156382e-03 5.100741e-03 5.041293e-03 4.977865e-03 4.910683e-03 4.839568e-03 4.764767e-03 4.686100e-03 4.603833e-03 4.517788e-03 4.428242e-03 4.335025e-03 4.238425e-03 4.138277e-03 4.034880e-03 3.928076e-03 3.818172e-03 3.705019e-03 3.588928e-03 3.469763e-03 3.347834e-03 3.223021e-03 3.095632e-03 2.965562e-03 2.833115e-03 2.698204e-03 2.561124e-03 2.421807e-03 2.280540e-03 2.137275e-03 1.992286e-03 1.845547e-03 1.697317e-03 1.547592e-03 1.396616e-03 1.244408e-03 1.091193e-03 9.370134e-04 7.820752e-04 6.264454e-04 4.703080e-04 3.137545e-04 1.569467e-04 -1.317379e-15 -1.569467e-04 -3.137545e-04 -4.703080e-04 -6.264454e-04 -7.820752e-04 -9.370134e-04 -1.091193e-03 -1.244408e-03 -1.396616e-03 -1.547592e-03 -1.697317e-03 -1.845547e-03 -1.992286e-03 -2.137275e-03 -2.280540e-03 -2.421807e-03 -2.561124e-03 -2.698204e-03 -2.833115e-03 -2.965562e-03 -3.095632e-03 -3.223021e-03 -3.347834e-03 -3.469763e-03 -3.588928e-03 -3.705019e-03 -3.818172e-03 -3.928076e-03 -4.034880e-03 -4.138277e-03 -4.238425e-03 -4.335025e-03 -4.428242e-03 -4.517788e-03 -4.603833e-03 -4.686100e-03 -4.764767e-03 -4.839568e-03 -4.910683e-03 -4.977865e-03 -5.041293e-03 -5.100741e-03 -5.156382e-03 -5.208015e-03 -5.255808e-03 -5.299582e-03 -5.339500e-03 -5.375408e-03 -5.407460e-03 -5.435530e-03 -5.459760e-03 -5.480054e-03 -5.496540e-03 -5.509152e-03 -5.518004e-03 -5.523060e-03 -5.524416e-03 -5.522071e-03 -5.516100e-03 -5.506534e-03 -5.493430e-03 -5.476849e-03 -5.456829e-03 -5.433460e-03 -5.406760e-03 -5.376851e-03 -5.343727e-03 -5.307540e-03 -5.268262e-03 -5.226074e-03 -5.180924e-03 -5.133022e-03 -5.082293e-03 -5.028971e-03 -4.972962e-03 -4.914521e-03 -4.853533e-03 -4.790276e-03 -4.724615e-03 -4.656844e-03 -4.586812e-03 -4.514829e-03 -4.440726e-03 -4.364828e-03 -4.286948e-03 -4.207425e-03 -4.126057e-03 -4.043191e-03 -3.958614e-03 -3.872678e-03 -3.785161e-03 -3.696418e-03 -3.606220e-03 -3.514921e-03 -3.422288e-03 -3.328672e-03 -3.233837e-03 -3.138130e-03 -3.041314e-03 -2.943728e-03 -2.845138e-03 -2.745873e-03 -2.645702e-03 -2.544943e-03 -2.443373e-03 -2.341294e-03 -2.238492e-03 -2.135252e-03 -2.031373e-03 -1.927121e-03 -1.822309e-03 -1.717181e-03 -1.611568e-03 -1.505691e-03 -1.399399e-03 -1.292890e-03 -1.186032e-03 -1.078999e-03 -9.716808e-04 -8.642249e-04 -7.565435e-04 -6.487592e-04 -5.408077e-04 -4.327846e-04 -3.246511e-04 -2.164753e-04 -1.082446e-04 
-5.777424e-16 7.484295e-05 1.496864e-04 2.245011e-04 2.993169e-04 3.740750e-04 4.488336e-04 5.235044e-04 5.981735e-04 6.727234e-04 7.472668e-04 8.216578e-04 8.960347e-04 9.702233e-04 1.044386e-03 1.118323e-03 1.192218e-03 1.265845e-03 1.339410e-03 1.412662e-03 1.485825e-03 1.558627e-03 1.631307e-03 1.703573e-03 1.775679e-03 1.847312e-03 1.918741e-03 1.989634e-03 2.060270e-03 2.130303e-03 2.200018e-03 2.269059e-03 2.337714e-03 2.405616e-03 2.473059e-03 2.539665e-03 2.605729e-03 2.670868e-03 2.735374e-03 2.798864e-03 2.861622e-03 2.923266e-03 2.984073e-03 3.043665e-03 3.102308e-03 3.159631e-03 3.215887e-03 3.270713e-03 3.324349e-03 3.376443e-03 3.427219e-03 3.476341e-03 3.524011e-03 3.569912e-03 3.614228e-03 3.656658e-03 3.697366e-03 3.736074e-03 3.772923e-03 3.807658e-03 3.840397e-03 3.870912e-03 3.899297e-03 3.925350e-03 3.949142e-03 3.970498e-03 3.989468e-03 4.005906e-03 4.019837e-03 4.031146e-03 4.039835e-03 4.045821e-03 4.049083e-03 4.049568e-03 4.047237e-03 4.042066e-03 4.033997e-03 4.023036e-03 4.009106e-03 3.992246e-03 3.972360e-03 3.949516e-03 3.923605e-03 3.894722e-03 3.862746e-03 3.827796e-03 3.789742e-03 3.748730e-03 3.704617e-03 3.657574e-03 3.607452e-03 3.554442e-03 3.498392e-03 3.439511e-03 3.377644e-03 3.313016e-03 3.245474e-03 3.175256e-03 3.102211e-03 3.026588e-03 2.948241e-03 2.867426e-03 2.784006e-03 2.698241e-03 2.610004e-03 2.519556e-03 2.426781e-03 2.331941e-03 2.234934e-03 2.136017e-03 2.035102e-03 1.932443e-03 1.827968e-03 1.721920e-03 1.614247e-03 1.505183e-03 1.394692e-03 1.282996e-03 1.170081e-03 1.056154e-03 9.412203e-04 8.254713e-04 7.089341e-04 5.917821e-04 4.740644e-04 3.559353e-04 2.374655e-04 1.187896e-04 -1.401884e-15 -1.187896e-04 -2.374655e-04 -3.559353e-04 -4.740644e-04 -5.917821e-04 -7.089341e-04 -8.254713e-04 -9.412203e-04 -1.056154e-03 -1.170081e-03 -1.282996e-03 -1.394692e-03 -1.505183e-03 -1.614247e-03 -1.721920e-03 -1.827968e-03 -1.932443e-03 -2.035102e-03 -2.136017e-03 -2.234934e-03 -2.331941e-03 -2.426781e-03 -2.519556e-03 -2.610004e-03 -2.698241e-03 -2.784006e-03 -2.867426e-03 -2.948241e-03 -3.026588e-03 -3.102211e-03 -3.175256e-03 -3.245474e-03 -3.313016e-03 -3.377644e-03 -3.439511e-03 -3.498392e-03 -3.554442e-03 -3.607452e-03 -3.657574e-03 -3.704617e-03 -3.748730e-03 -3.789742e-03 -3.827796e-03 -3.862746e-03 -3.894722e-03 -3.923605e-03 -3.949516e-03 -3.972360e-03 -3.992246e-03 -4.009106e-03 -4.023036e-03 -4.033997e-03 -4.042066e-03 -4.047237e-03 -4.049568e-03 -4.049083e-03 -4.045821e-03 -4.039835e-03 -4.031146e-03 -4.019837e-03 -4.005906e-03 -3.989468e-03 -3.970498e-03 -3.949142e-03 -3.925350e-03 -3.899297e-03 -3.870912e-03 -3.840397e-03 -3.807658e-03 -3.772923e-03 -3.736074e-03 -3.697366e-03 -3.656658e-03 -3.614228e-03 -3.569912e-03 -3.524011e-03 -3.476341e-03 -3.427219e-03 -3.376443e-03 -3.324349e-03 -3.270713e-03 -3.215887e-03 -3.159631e-03 -3.102308e-03 -3.043665e-03 -2.984073e-03 -2.923266e-03 -2.861622e-03 -2.798864e-03 -2.735374e-03 -2.670868e-03 -2.605729e-03 -2.539665e-03 -2.473059e-03 -2.405616e-03 -2.337714e-03 -2.269059e-03 -2.200018e-03 -2.130303e-03 -2.060270e-03 -1.989634e-03 -1.918741e-03 -1.847312e-03 -1.775679e-03 -1.703573e-03 -1.631307e-03 -1.558627e-03 -1.485825e-03 -1.412662e-03 -1.339410e-03 -1.265845e-03 -1.192218e-03 -1.118323e-03 -1.044386e-03 -9.702233e-04 -8.960347e-04 -8.216578e-04 -7.472668e-04 -6.727234e-04 -5.981735e-04 -5.235044e-04 -4.488336e-04 -3.740750e-04 -2.993169e-04 -2.245011e-04 -1.496864e-04 -7.484295e-05 
-4.267803e-16 4.142297e-05 8.286063e-05 1.242966e-04 1.657763e-04 2.072522e-04 2.488000e-04 2.903411e-04 3.319808e-04 3.736099e-04 4.153619e-04 4.570979e-04 4.989786e-04 5.408358e-04 5.828563e-04 6.248435e-04 6.670087e-04 7.091283e-04 7.514362e-04 7.936831e-04 8.361236e-04 8.784845e-04 9.210389e-04 9.634913e-04 1.006131e-03 1.048643e-03 1.091330e-03 1.133858e-03 1.176543e-03 1.219034e-03 1.261655e-03 1.304042e-03 1.346527e-03 1.388734e-03 1.430996e-03 1.472931e-03 1.514874e-03 1.556435e-03 1.597948e-03 1.639019e-03 1.679977e-03 1.720430e-03 1.760699e-03 1.800392e-03 1.839824e-03 1.878606e-03 1.917041e-03 1.954749e-03 1.992016e-03 2.028475e-03 2.064396e-03 2.099422e-03 2.133807e-03 2.167210e-03 2.199863e-03 2.231445e-03 2.262164e-03 2.291721e-03 2.320301e-03 2.347625e-03 2.373857e-03 2.398742e-03 2.422417e-03 2.444654e-03 2.465566e-03 2.484950e-03 2.502895e-03 2.519227e-03 2.534008e-03 2.547094e-03 2.558522e-03 2.568179e-03 2.576077e-03 2.582131e-03 2.586334e-03 2.588628e-03 2.588984e-03 2.587376e-03 2.583753e-03 2.578117e-03 2.570399e-03 2.560631e-03 2.548725e-03 2.534740e-03 2.518573e-03 2.500309e-03 2.479833e-03 2.457252e-03 2.432441e-03 2.405531e-03 2.376385e-03 2.345156e-03 2.311702e-03 2.276192e-03 2.238481e-03 2.198753e-03 2.156861e-03 2.113004e-03 2.067034e-03 2.019162e-03 1.969242e-03 1.917492e-03 1.863774e-03 1.808309e-03 1.750967e-03 1.691972e-03 1.631202e-03 1.568884e-03 1.504905e-03 1.439490e-03 1.372539e-03 1.304271e-03 1.234603e-03 1.163746e-03 1.091632e-03 1.018463e-03 9.441884e-04 8.689987e-04 7.928618e-04 7.159547e-04 6.382646e-04 5.599532e-04 4.810279e-04 4.016338e-04 3.217984e-04 2.416490e-04 1.612339e-04 8.066134e-05 -1.558425e-15 -8.066134e-05 -1.612339e-04 -2.416490e-04 -3.217984e-04 -4.016338e-04 -4.810279e-04 -5.599532e-04 -6.382646e-04 -7.159547e-04 -7.928618e-04 -8.689987e-04 -9.441884e-04 -1.018463e-03 -1.091632e-03 -1.163746e-03 -1.234603e-03 -1.304271e-03 -1.372539e-03 -1.439490e-03 -1.504905e-03 -1.568884e-03 -1.631202e-03 -1.691972e-03 -1.750967e-03 -1.808309e-03 -1.863774e-03 -1.917492e-03 -1.969242e-03 -2.019162e-03 -2.067034e-03 -2.113004e-03 -2.156861e-03 -2.198753e-03 -2.238481e-03 -2.276192e-03 -2.311702e-03 -2.345156e-03 -2.376385e-03 -2.405531e-03 -2.432441e-03 -2.457252e-03 -2.479833e-03 -2.500309e-03 -2.518573e-03 -2.534740e-03 -2.548725e-03 -2.560631e-03 -2.570399e-03 -2.578117e-03 -2.583753e-03 -2.587376e-03 -2.588984e-03 -2.588628e-03 -2.586334e-03 -2.582131e-03 -2.576077e-03 -2.568179e-03 -2.558522e-03 -2.547094e-03 -2.534008e-03 -2.519227e-03 -2.502895e-03 -2.484950e-03 -2.465566e-03 -2.444654e-03 -2.422417e-03 -2.398742e-03 -2.373857e-03 -2.347625e-03 -2.320301e-03 -2.291721e-03 -2.262164e-03 -2.231445e-03 -2.199863e-03 -2.167210e-03 -2.133807e-03 -2.099422e-03 -2.064396e-03 -2.028475e-03 -1.992016e-03 -1.954749e-03 -1.917041e-03 -1.878606e-03 -1.839824e-03 -1.800392e-03 -1.760699e-03 -1.720430e-03 -1.679977e-03 -1.639019e-03 -1.597948e-03 -1.556435e-03 -1.514874e-03 -1.472931e-03 -1.430996e-03 -1.388734e-03 -1.346527e-03 -1.304042e-03 -1.261655e-03 -1.219034e-03 -1.176543e-03 -1.133858e-03 -1.091330e-03 -1.048643e-03 -1.006131e-03 -9.634913e-04 -9.210389e-04 -8.784845e-04 -8.361236e-04 -7.936831e-04 -7.514362e-04 -7.091283e-04 -6.670087e-04 -6.248435e-04 -5.828563e-04 -5.408358e-04 -4.989786e-04 -4.570979e-04 -4.153619e-04 -3.736099e-04 -3.319808e-04 -2.903411e-04 -2.488000e-04 -2.072522e-04 -1.657763e-04 -1.242966e-04 -8.286063e-05 -4.142297e-05 
-2.568992e-16 8.021304e-06 1.607183e-05 2.414720e-05 3.230998e-05 4.052217e-05 4.887917e-05 5.730955e-05 6.594084e-05 7.466860e-05 8.365158e-05 9.275291e-05 1.021614e-04 1.117087e-04 1.216123e-04 1.316732e-04 1.421362e-04 1.527729e-04 1.638536e-04 1.751221e-04 1.868721e-04 1.988211e-04 2.112841e-04 2.239544e-04 2.371660e-04 2.505895e-04 2.645758e-04 2.787750e-04 2.935522e-04 3.085393e-04 3.241129e-04 3.398891e-04 3.562533e-04 3.728083e-04 3.899453e-04 4.072565e-04 4.251363e-04 4.431685e-04 4.617480e-04 4.804533e-04 4.996766e-04 5.189937e-04 5.387915e-04 5.586459e-04 5.789358e-04 5.992399e-04 6.199263e-04 6.405796e-04 6.615543e-04 6.824434e-04 7.035860e-04 7.245860e-04 7.457644e-04 7.667389e-04 7.878105e-04 8.086130e-04 8.294257e-04 8.499006e-04 8.702938e-04 8.902777e-04 9.100840e-04 9.294075e-04 9.484541e-04 9.669429e-04 9.850536e-04 1.002531e-03 1.019528e-03 1.035815e-03 1.051520e-03 1.066442e-03 1.080679e-03 1.094061e-03 1.106660e-03 1.118333e-03 1.129128e-03 1.138932e-03 1.147767e-03 1.155550e-03 1.162278e-03 1.167898e-03 1.172387e-03 1.175717e-03 1.177845e-03 1.178772e-03 1.178436e-03 1.176863e-03 1.173975e-03 1.169823e-03 1.164314e-03 1.157523e-03 1.149344e-03 1.139873e-03 1.128994e-03 1.116822e-03 1.103235e-03 1.088363e-03 1.072079e-03 1.054528e-03 1.035580e-03 1.015393e-03 9.938352e-04 9.710747e-04 9.469820e-04 9.217316e-04 8.951982e-04 8.675606e-04 8.387001e-04 8.087972e-04 7.777414e-04 7.457124e-04 7.126101e-04 6.786110e-04 6.436270e-04 6.078290e-04 5.711425e-04 5.337307e-04 4.955339e-04 4.567057e-04 4.172024e-04 3.771659e-04 3.365697e-04 2.955424e-04 2.540750e-04 2.122816e-04 1.701715e-04 1.278427e-04 8.532289e-05 4.269338e-05 -1.834558e-15 -4.269338e-05 -8.532289e-05 -1.278427e-04 -1.701715e-04 -2.122816e-04 -2.540750e-04 -2.955424e-04 -3.365697e-04 -3.771659e-04 -4.172024e-04 -4.567057e-04 -4.955339e-04 -5.337307e-04 -5.711425e-04 -6.078290e-04 -6.436270e-04 -6.786110e-04 -7.126101e-04 -7.457124e-04 -7.777414e-04 -8.087972e-04 -8.387001e-04 -8.675606e-04 -8.951982e-04 -9.217316e-04 -9.469820e-04 -9.710747e-04 -9.938352e-04 -1.015393e-03 -1.035580e-03 -1.054528e-03 -1.072079e-03 -1.088363e-03 -1.103235e-03 -1.116822e-03 -1.128994e-03 -1.139873e-03 -1.149344e-03 -1.157523e-03 -1.164314e-03 -1.169823e-03 -1.173975e-03 -1.176863e-03 -1.178436e-03 -1.178772e-03 -1.177845e-03 -1.175717e-03 -1.172387e-03 -1.167898e-03 -1.162278e-03 -1.155550e-03 -1.147767e-03 -1.138932e-03 -1.129128e-03 -1.118333e-03 -1.106660e-03 -1.094061e-03 -1.080679e-03 -1.066442e-03 -1.051520e-03 -1.035815e-03 -1.019528e-03 -1.002531e-03 -9.850536e-04 -9.669429e-04 -9.484541e-04 -9.294075e-04 -9.100840e-04 -8.902777e-04 -8.702938e-04 -8.499006e-04 -8.294257e-04 -8.086130e-04 -7.878105e-04 -7.667389e-04 -7.457644e-04 -7.245860e-04 -7.035860e-04 -6.824434e-04 -6.615543e-04 -6.405796e-04 -6.199263e-04 -5.992399e-04 -5.789358e-04 -5.586459e-04 -5.387915e-04 -5.189937e-04 -4.996766e-04 -4.804533e-04 -4.617480e-04 -4.431685e-04 -4.251363e-04 -4.072565e-04 -3.899453e-04 -3.728083e-04 -3.562533e-04 -3.398891e-04 -3.241129e-04 -3.085393e-04 -2.935522e-04 -2.787750e-04 -2.645758e-04 -2.505895e-04 -2.371660e-04 -2.239544e-04 -2.112841e-04 -1.988211e-04 -1.868721e-04 -1.751221e-04 -1.638536e-04 -1.527729e-04 -1.421362e-04 -1.316732e-04 -1.216123e-04 -1.117087e-04 -1.021614e-04 -9.275291e-05 -8.365158e-05 -7.466860e-05 -6.594084e-05 -5.730955e-05 -4.887917e-05 -4.052217e-05 -3.230998e-05 -2.414720e-05 -1.607183e-05 -8.021304e-06 
-1.012953e-16 -2.542634e-05 -5.080909e-05 -7.613990e-05 -1.013401e-04 -1.264367e-04 -1.513163e-04 -1.760410e-04 -2.004635e-04 -2.246803e-04 -2.485111e-04 -2.720865e-04 -2.951940e-04 -3.179973e-04 -3.402535e-04 -3.621580e-04 -3.834388e-04 -4.043221e-04 -4.245086e-04 -4.442537e-04 -4.632326e-04 -4.817285e-04 -4.993933e-04 -5.165358e-04 -5.327870e-04 -5.484797e-04 -5.632262e-04 -5.773812e-04 -5.905410e-04 -6.030797e-04 -6.145806e-04 -6.254348e-04 -6.352153e-04 -6.443277e-04 -6.523377e-04 -6.596630e-04 -6.658648e-04 -6.713701e-04 -6.757388e-04 -6.794045e-04 -6.819287e-04 -6.837489e-04 -6.844314e-04 -6.844146e-04 -6.832722e-04 -6.814413e-04 -6.785059e-04 -6.748985e-04 -6.702164e-04 -6.648850e-04 -6.585174e-04 -6.515291e-04 -6.435513e-04 -6.349874e-04 -6.254890e-04 -6.154445e-04 -6.045282e-04 -5.931113e-04 -5.808924e-04 -5.682234e-04 -5.548286e-04 -5.410388e-04 -5.266051e-04 -5.118354e-04 -4.965087e-04 -4.809084e-04 -4.648421e-04 -4.485670e-04 -4.319199e-04 -4.151311e-04 -3.980660e-04 -3.809273e-04 -3.636091e-04 -3.462856e-04 -3.288791e-04 -3.115352e-04 -2.942035e-04 -2.770008e-04 -2.599030e-04 -2.429985e-04 -2.262878e-04 -2.098319e-04 -1.936542e-04 -1.777888e-04 -1.622805e-04 -1.471376e-04 -1.324242e-04 -1.181241e-04 -1.043186e-04 -9.096875e-05 -7.817062e-05 -6.586417e-05 -5.415803e-05 -4.297309e-05 -3.242799e-05 -2.242673e-05 -1.309546e-05 -4.323601e-06 3.757707e-06 1.127125e-05 1.808334e-05 2.432652e-05 2.986698e-05 3.484454e-05 3.912759e-05 4.286072e-05 4.591677e-05 4.844260e-05 5.031764e-05 5.168856e-05 5.244338e-05 5.272619e-05 5.243540e-05 5.171030e-05 5.046130e-05 4.882075e-05 4.671251e-05 4.426001e-05 4.140177e-05 3.825050e-05 3.476038e-05 3.103178e-05 2.703534e-05 2.285765e-05 1.848633e-05 1.399304e-05 9.382641e-06 4.710917e-06 -1.986253e-15 -4.710917e-06 -9.382641e-06 -1.399304e-05 -1.848633e-05 -2.285765e-05 -2.703534e-05 -3.103178e-05 -3.476038e-05 -3.825050e-05 -4.140177e-05 -4.426001e-05 -4.671251e-05 -4.882075e-05 -5.046130e-05 -5.171030e-05 -5.243540e-05 -5.272619e-05 -5.244338e-05 -5.168856e-05 -5.031764e-05 -4.844260e-05 -4.591677e-05 -4.286072e-05 -3.912759e-05 -3.484454e-05 -2.986698e-05 -2.432652e-05 -1.808334e-05 -1.127125e-05 -3.757707e-06 4.323601e-06 1.309546e-05 2.242673e-05 3.242799e-05 4.297309e-05 5.415803e-05 6.586417e-05 7.817062e-05 9.096875e-05 1.043186e-04 1.181241e-04 1.324242e-04 1.471376e-04 1.622805e-04 1.777888e-04 1.936542e-04 2.098319e-04 2.262878e-04 2.429985e-04 2.599030e-04 2.770008e-04 2.942035e-04 3.115352e-04 3.288791e-04 3.462856e-04 3.636091e-04 3.809273e-04 3.980660e-04 4.151311e-04 4.319199e-04 4.485670e-04 4.648421e-04 4.809084e-04 4.965087e-04 5.118354e-04 5.266051e-04 5.410388e-04 5.548286e-04 5.682234e-04 5.808924e-04 5.931113e-04 6.045282e-04 6.154445e-04 6.254890e-04 6.349874e-04 6.435513e-04 6.515291e-04 6.585174e-04 6.648850e-04 6.702164e-04 6.748985e-04 6.785059e-04 6.814413e-04 6.832722e-04 6.844146e-04 6.844314e-04 6.837489e-04 6.819287e-04 6.794045e-04 6.757388e-04 6.713701e-04 6.658648e-04 6.596630e-04 6.523377e-04 6.443277e-04 6.352153e-04 6.254348e-04 6.145806e-04 6.030797e-04 5.905410e-04 5.773812e-04 5.632262e-04 5.484797e-04 5.327870e-04 5.165358e-04 4.993933e-04 4.817285e-04 4.632326e-04 4.442537e-04 4.245086e-04 4.043221e-04 3.834388e-04 3.621580e-04 3.402535e-04 3.179973e-04 2.951940e-04 2.720865e-04 2.485111e-04 2.246803e-04 2.004635e-04 1.760410e-04 1.513163e-04 1.264367e-04 1.013401e-04 7.613990e-05 5.080909e-05 2.542634e-05 
-1.331305e-16 -5.888364e-05 -1.177090e-04 -1.764558e-04 -2.350280e-04 -2.934431e-04 -3.515677e-04 -4.094570e-04 -4.669408e-04 -5.241114e-04 -5.807628e-04 -6.370235e-04 -6.926528e-04 -7.478146e-04 -8.022349e-04 -8.561118e-04 -9.091394e-04 -9.615488e-04 -1.013004e-03 -1.063767e-03 -1.113475e-03 -1.162419e-03 -1.210209e-03 -1.257166e-03 -1.302875e-03 -1.347684e-03 -1.391156e-03 -1.433663e-03 -1.474750e-03 -1.514810e-03 -1.553372e-03 -1.590850e-03 -1.626759e-03 -1.661529e-03 -1.694667e-03 -1.726616e-03 -1.756877e-03 -1.785904e-03 -1.813195e-03 -1.839213e-03 -1.863455e-03 -1.886391e-03 -1.907520e-03 -1.927315e-03 -1.945283e-03 -1.961897e-03 -1.976671e-03 -1.990078e-03 -2.001644e-03 -2.011835e-03 -2.020194e-03 -2.027179e-03 -2.032350e-03 -2.036156e-03 -2.038176e-03 -2.038845e-03 -2.037768e-03 -2.035362e-03 -2.031257e-03 -2.025855e-03 -2.018809e-03 -2.010503e-03 -2.000618e-03 -1.989516e-03 -1.976909e-03 -1.963133e-03 -1.947932e-03 -1.931618e-03 -1.913963e-03 -1.895255e-03 -1.875298e-03 -1.854352e-03 -1.832252e-03 -1.809229e-03 -1.785151e-03 -1.760220e-03 -1.734334e-03 -1.707668e-03 -1.680147e-03 -1.651919e-03 -1.622936e-03 -1.593319e-03 -1.563048e-03 -1.532214e-03 -1.500823e-03 -1.468940e-03 -1.436593e-03 -1.403823e-03 -1.370679e-03 -1.337177e-03 -1.303384e-03 -1.269296e-03 -1.234995e-03 -1.200457e-03 -1.165778e-03 -1.130915e-03 -1.095975e-03 -1.060900e-03 -1.025806e-03 -9.906192e-04 -9.554622e-04 -9.202516e-04 -8.851115e-04 -8.499503e-04 -8.148931e-04 -7.798418e-04 -7.449199e-04 -7.100256e-04 -6.752786e-04 -6.405756e-04 -6.060304e-04 -5.715405e-04 -5.372121e-04 -5.029456e-04 -4.688379e-04 -4.347944e-04 -4.009009e-04 -3.670701e-04 -3.333754e-04 -2.997383e-04 -2.662190e-04 -2.327494e-04 -1.993753e-04 -1.660407e-04 -1.327764e-04 -9.953935e-05 -6.634543e-05 -3.316546e-05 -2.021513e-15 3.316546e-05 6.634543e-05 9.953935e-05 1.327764e-04 1.660407e-04 1.993753e-04 2.327494e-04 2.662190e-04 2.997383e-04 3.333754e-04 3.670701e-04 4.009009e-04 4.347944e-04 4.688379e-04 5.029456e-04 5.372121e-04 5.715405e-04 6.060304e-04 6.405756e-04 6.752786e-04 7.100256e-04 7.449199e-04 7.798418e-04 8.148931e-04 8.499503e-04 8.851115e-04 9.202516e-04 9.554622e-04 9.906192e-04 1.025806e-03 1.060900e-03 1.095975e-03 1.130915e-03 1.165778e-03 1.200457e-03 1.234995e-03 1.269296e-03 1.303384e-03 1.337177e-03 1.370679e-03 1.403823e-03 1.436593e-03 1.468940e-03 1.500823e-03 1.532214e-03 1.563048e-03 1.593319e-03 1.622936e-03 1.651919e-03 1.680147e-03 1.707668e-03 1.734334e-03 1.760220e-03 1.785151e-03 1.809229e-03 1.832252e-03 1.854352e-03 1.875298e-03 1.895255e-03 1.913963e-03 1.931618e-03 1.947932e-03 1.963133e-03 1.976909e-03 1.989516e-03 2.000618e-03 2.010503e-03 2.018809e-03 2.025855e-03 2.031257e-03 2.035362e-03 2.037768e-03 2.038845e-03 2.038176e-03 2.036156e-03 2.032350e-03 2.027179e-03 2.020194e-03 2.011835e-03 2.001644e-03 1.990078e-03 1.976671e-03 1.961897e-03 1.945283e-03 1.927315e-03 1.907520e-03 1.886391e-03 1.863455e-03 1.839213e-03 1.813195e-03 1.785904e-03 1.756877e-03 1.726616e-03 1.694667e-03 1.661529e-03 1.626759e-03 1.590850e-03 1.553372e-03 1.514810e-03 1.474750e-03 1.433663e-03 1.391156e-03 1.347684e-03 1.302875e-03 1.257166e-03 1.210209e-03 1.162419e-03 1.113475e-03 1.063767e-03 1.013004e-03 9.615488e-04 9.091394e-04 8.561118e-04 8.022349e-04 7.478146e-04 6.926528e-04 6.370235e-04 5.807628e-04 5.241114e-04 4.669408e-04 4.094570e-04 3.515677e-04 2.934431e-04 2.350280e-04 1.764558e-04 1.177090e-04 5.888364e-05 