# vtk DataFile Version 2.0
Comment goes here
ASCII

DATASET STRUCTURED_POINTS
FIELD FieldData 1
TIME 1 1 double
0.04000000
DIMENSIONS    256   256   1

ORIGIN    0.000   0.000   0.000
SPACING   0.0039062 0.0039062   1.000

POINT_DATA   65536
SCALARS uX double
LOOKUP_TABLE default

1.063837e-15 4.564664e-04 9.128719e-04 1.369112e-03 1.825168e-03 2.280890e-03 2.736301e-03 3.191206e-03 3.645664e-03 4.099436e-03 4.552618e-03 5.004924e-03 5.456482e-03 5.906963e-03 6.356525e-03 6.804794e-03 7.251954e-03 7.697588e-03 8.141906e-03 8.584447e-03 9.025440e-03 9.464386e-03 9.901528e-03 1.033633e-02 1.076905e-02 1.119911e-02 1.162678e-02 1.205145e-02 1.247340e-02 1.289197e-02 1.330745e-02 1.371918e-02 1.412740e-02 1.453145e-02 1.493157e-02 1.532706e-02 1.571816e-02 1.610417e-02 1.648528e-02 1.686080e-02 1.723091e-02 1.759488e-02 1.795289e-02 1.830421e-02 1.864899e-02 1.898651e-02 1.931687e-02 1.963936e-02 1.995407e-02 2.026029e-02 2.055808e-02 2.084674e-02 2.112629e-02 2.139607e-02 2.165605e-02 2.190560e-02 2.214466e-02 2.237263e-02 2.258940e-02 2.279441e-02 2.298753e-02 2.316823e-02 2.333633e-02 2.349137e-02 2.363312e-02 2.376117e-02 2.387527e-02 2.397505e-02 2.406023e-02 2.413050e-02 2.418557e-02 2.422516e-02 2.424897e-02 2.425679e-02 2.424830e-02 2.422334e-02 2.418158e-02 2.412294e-02 2.404708e-02 2.395396e-02 2.384326e-02 2.371501e-02 2.356888e-02 2.340497e-02 2.322297e-02 2.302303e-02 2.280486e-02 2.256868e-02 2.231421e-02 2.204175e-02 2.175104e-02 2.144243e-02 2.111570e-02 2.077127e-02 2.040894e-02 2.002919e-02 1.963188e-02 1.921752e-02 1.878602e-02 1.833796e-02 1.787328e-02 1.739261e-02 1.689594e-02 1.638395e-02 1.585669e-02 1.531487e-02 1.475859e-02 1.418861e-02 1.360508e-02 1.300878e-02 1.239993e-02 1.177934e-02 1.114728e-02 1.050456e-02 9.851540e-03 9.189032e-03 8.517443e-03 7.837601e-03 7.149964e-03 6.455362e-03 5.754308e-03 5.047623e-03 4.335873e-03 3.619865e-03 2.900214e-03 2.177707e-03 1.453004e-03 7.268692e-04 3.716930e-17 -7.268692e-04 -1.453004e-03 -2.177707e-03 -2.900214e-03 -3.619865e-03 -4.335873e-03 -5.047623e-03 -5.754308e-03 -6.455362e-03 -7.149964e-03 -7.837601e-03 -8.517443e-03 -9.189032e-03 -9.851540e-03 -1.050456e-02 -1.114728e-02 -1.177934e-02 -1.239993e-02 -1.300878e-02 -1.360508e-02 -1.418861e-02 -1.475859e-02 -1.531487e-02 -1.585669e-02 -1.638395e-02 -1.689594e-02 -1.739261e-02 -1.787328e-02 -1.833796e-02 -1.878602e-02 -1.921752e-02 -1.963188e-02 -2.002919e-02 -2.040894e-02 -2.077127e-02 -2.111570e-02 -2.144243e-02 -2.175104e-02 -2.204175e-02 -2.231421e-02 -2.256868e-02 -2.280486e-02 -2.302303e-02 -2.322297e-02 -2.340497e-02 -2.356888e-02 -2.371501e-02 -2.384326e-02 -2.395396e-02 -2.404708e-02 -2.412294e-02 -2.418158e-02 -2.422334e-02 -2.424830e-02 -2.425679e-02 -2.424897e-02 -2.422516e-02 -2.418557e-02 -2.413050e-02 -2.406023e-02 -2.397505e-02 -2.387527e-02 -2.376117e-02 -2.363312e-02 -2.349137e-02 -2.333633e-02 -2.316823e-02 -2.298753e-02 -2.279441e-02 -2.258940e-02 -2.237263e-02 -2.214466e-02 -2.190560e-02 -2.165605e-02 -2.139607e-02 -2.112629e-02 -2.084674e-02 -2.055808e-02 -2.026029e-02 -1.995407e-02 -1.963936e-02 -1.931687e-02 -1.898651e-02 -1.864899e-02 -1.830421e-02 -1.795289e-02 -1.759488e-02 -1.723091e-02 -1.686080e-02 -1.648528e-02 -1.610417e-02 -1.571816e-02 -1.532706e-02 -1.493157e-02 -1.453145e-02 -1.412740e-02 -1.371918e-02 -1.330745e-02 -1.289197e-02 -1.247340e-02 -1.205145e-02 -1.162678e-02 -1.119911e-02 -1.076905e-02 -1.033633e-02 -9.901528e-03 -9.464386e-03 -9.025440e-03 -8.584447e-03 -8.141906e-03 -7.697588e-03 -7.251954e-03 -6.804794e-03 -6.356525e-03 -5.906963e-03 -5.456482e-03 -5.004924e-03 -4.552618e-03 -4.099436e-03 -3.645664e-03 -3.191206e-03 -2.736301e-03 -2.280890e-03 -1.825168e-03 -1.369112e-03 -9.128719e-04 -4.564664e-04 
8.774447e-16 3.539609e-04 7.079005e-04 1.061748e-03 1.415531e-03 1.769128e-03 2.122612e-03 2.475813e-03 2.828846e-03 3.181492e-03 3.533908e-03 3.885822e-03 4.237433e-03 4.588418e-03 4.939013e-03 5.288846e-03 5.638185e-03 5.986611e-03 6.334422e-03 6.681153e-03 7.027128e-03 7.371836e-03 7.715625e-03 8.057942e-03 8.399152e-03 8.738663e-03 9.076855e-03 9.413098e-03 9.747783e-03 1.008024e-02 1.041088e-02 1.073899e-02 1.106498e-02 1.138812e-02 1.170882e-02 1.202631e-02 1.234100e-02 1.265211e-02 1.296003e-02 1.326397e-02 1.356429e-02 1.386020e-02 1.415206e-02 1.443905e-02 1.472149e-02 1.499860e-02 1.527066e-02 1.553688e-02 1.579752e-02 1.605180e-02 1.629994e-02 1.654118e-02 1.677571e-02 1.700278e-02 1.722255e-02 1.743428e-02 1.763811e-02 1.783333e-02 1.802002e-02 1.819752e-02 1.836587e-02 1.852443e-02 1.867323e-02 1.881166e-02 1.893971e-02 1.905681e-02 1.916292e-02 1.925753e-02 1.934055e-02 1.941152e-02 1.947034e-02 1.951659e-02 1.955014e-02 1.957065e-02 1.957794e-02 1.957174e-02 1.955186e-02 1.951807e-02 1.947018e-02 1.940803e-02 1.933141e-02 1.924022e-02 1.913425e-02 1.901346e-02 1.887765e-02 1.872685e-02 1.856084e-02 1.837973e-02 1.818331e-02 1.797175e-02 1.774487e-02 1.750288e-02 1.724562e-02 1.697338e-02 1.668602e-02 1.638388e-02 1.606685e-02 1.573533e-02 1.538925e-02 1.502904e-02 1.465468e-02 1.426667e-02 1.386500e-02 1.345022e-02 1.302239e-02 1.258206e-02 1.212936e-02 1.166488e-02 1.118879e-02 1.070170e-02 1.020385e-02 9.695866e-03 9.178024e-03 8.650997e-03 8.115092e-03 7.571001e-03 7.019079e-03 6.460029e-03 5.894254e-03 5.322457e-03 4.745089e-03 4.162851e-03 3.576237e-03 2.985938e-03 2.392490e-03 1.796570e-03 1.198752e-03 5.996932e-04 1.825214e-16 -5.996932e-04 -1.198752e-03 -1.796570e-03 -2.392490e-03 -2.985938e-03 -3.576237e-03 -4.162851e-03 -4.745089e-03 -5.322457e-03 -5.894254e-03 -6.460029e-03 -7.019079e-03 -7.571001e-03 -8.115092e-03 -8.650997e-03 -9.178024e-03 -9.695866e-03 -1.020385e-02 -1.070170e-02 -1.118879e-02 -1.166488e-02 -1.212936e-02 -1.258206e-02 -1.302239e-02 -1.345022e-02 -1.386500e-02 -1.426667e-02 -1.465468e-02 -1.502904e-02 -1.538925e-02 -1.573533e-02 -1.606685e-02 -1.638388e-02 -1.668602e-02 -1.697338e-02 -1.724562e-02 -1.750288e-02 -1.774487e-02 -1.797175e-02 -1.818331e-02 -1.837973e-02 -1.856084e-02 -1.872685e-02 -1.887765e-02 -1.901346e-02 -1.913425e-02 -1.924022e-02 -1.933141e-02 -1.940803e-02 -1.947018e-02 -1.951807e-02 -1.955186e-02 -1.957174e-02 -1.957794e-02 -1.957065e-02 -1.955014e-02 -1.951659e-02 -1.947034e-02 -1.941152e-02 -1.934055e-02 -1.925753e-02 -1.916292e-02 -1.905681e-02 -1.893971e-02 -1.881166e-02 -1.867323e-02 -1.852443e-02 -1.836587e-02 -1.819752e-02 -1.802002e-02 -1.783333e-02 -1.763811e-02 -1.743428e-02 -1.722255e-02 -1.700278e-02 -1.677571e-02 -1.654118e-02 -1.629994e-02 -1.605180e-02 -1.579752e-02 -1.553688e-02 -1.527066e-02 -1.499860e-02 -1.472149e-02 -1.443905e-02 -1.415206e-02 -1.386020e-02 -1.356429e-02 -1.326397e-02 -1.296003e-02 -1.265211e-02 -1.234100e-02 -1.202631e-02 -1.170882e-02 -1.138812e-02 -1.106498e-02 -1.073899e-02 -1.041088e-02 -1.008024e-02 -9.747783e-03 -9.413098e-03 -9.076855e-03 -8.738663e-03 -8.399152e-03 -8.057942e-03 -7.715625e-03 -7.371836e-03 -7.027128e-03 -6.681153e-03 -6.334422e-03 -5.986611e-03 -5.638185e-03 -5.288846e-03 -4.939013e-03 -4.588418e-03 -4.237433e-03 -3.885822e-03 -3.533908e-03 -3.181492e-03 -2.828846e-03 -2.475813e-03 -2.122612e-03 -1.769128e-03 -1.415531e-03 -1.061748e-03 -7.079005e-04 -3.539609e-04 
7.264738e-16 2.515104e-04 5.030390e-04 7.545511e-04 1.006117e-03 1.257647e-03 1.509263e-03 1.760822e-03 2.012493e-03 2.264079e-03 2.515796e-03 2.767393e-03 3.019128e-03 3.270700e-03 3.522407e-03 3.773894e-03 4.025499e-03 4.276816e-03 4.528218e-03 4.779248e-03 5.030311e-03 5.280903e-03 5.531455e-03 5.781420e-03 6.031251e-03 6.280358e-03 6.529214e-03 6.777189e-03 7.024770e-03 7.271290e-03 7.517248e-03 7.761942e-03 8.005877e-03 8.248322e-03 8.489782e-03 8.729500e-03 8.967979e-03 9.204439e-03 9.439375e-03 9.671989e-03 9.902764e-03 1.013089e-02 1.035683e-02 1.057977e-02 1.080015e-02 1.101714e-02 1.123118e-02 1.144142e-02 1.164828e-02 1.185093e-02 1.204972e-02 1.224386e-02 1.243368e-02 1.261837e-02 1.279823e-02 1.297248e-02 1.314139e-02 1.330420e-02 1.346113e-02 1.361145e-02 1.375535e-02 1.389213e-02 1.402193e-02 1.414410e-02 1.425874e-02 1.436523e-02 1.446364e-02 1.455340e-02 1.463453e-02 1.470651e-02 1.476935e-02 1.482255e-02 1.486609e-02 1.489955e-02 1.492286e-02 1.493566e-02 1.493785e-02 1.492914e-02 1.490940e-02 1.487840e-02 1.483600e-02 1.478202e-02 1.471633e-02 1.463878e-02 1.454925e-02 1.444765e-02 1.433385e-02 1.420784e-02 1.406947e-02 1.391881e-02 1.375570e-02 1.358028e-02 1.339241e-02 1.319226e-02 1.297973e-02 1.275505e-02 1.251813e-02 1.226924e-02 1.200834e-02 1.173575e-02 1.145144e-02 1.115578e-02 1.084879e-02 1.053088e-02 1.020210e-02 9.862887e-03 9.513338e-03 9.153940e-03 8.784815e-03 8.406482e-03 8.019107e-03 7.623234e-03 7.219071e-03 6.807184e-03 6.387821e-03 5.961565e-03 5.528707e-03 5.089838e-03 4.645293e-03 4.195665e-03 3.741329e-03 3.282879e-03 2.820729e-03 2.355464e-03 1.887535e-03 1.417515e-03 9.458888e-04 4.732130e-04 1.288485e-17 -4.732130e-04 -9.458888e-04 -1.417515e-03 -1.887535e-03 -2.355464e-03 -2.820729e-03 -3.282879e-03 -3.741329e-03 -4.195665e-03 -4.645293e-03 -5.089838e-03 -5.528707e-03 -5.961565e-03 -6.387821e-03 -6.807184e-03 -7.219071e-03 -7.623234e-03 -8.019107e-03 -8.406482e-03 -8.784815e-03 -9.153940e-03 -9.513338e-03 -9.862887e-03 -1.020210e-02 -1.053088e-02 -1.084879e-02 -1.115578e-02 -1.145144e-02 -1.173575e-02 -1.200834e-02 -1.226924e-02 -1.251813e-02 -1.275505e-02 -1.297973e-02 -1.319226e-02 -1.339241e-02 -1.358028e-02 -1.375570e-02 -1.391881e-02 -1.406947e-02 -1.420784e-02 -1.433385e-02 -1.444765e-02 -1.454925e-02 -1.463878e-02 -1.471633e-02 -1.478202e-02 -1.483600e-02 -1.487840e-02 -1.490940e-02 -1.492914e-02 -1.493785e-02 -1.493566e-02 -1.492286e-02 -1.489955e-02 -1.486609e-02 -1.482255e-02 -1.476935e-02 -1.470651e-02 -1.463453e-02 -1.455340e-02 -1.446364e-02 -1.436523e-02 -1.425874e-02 -1.414410e-02 -1.402193e-02 -1.389213e-02 -1.375535e-02 -1.361145e-02 -1.346113e-02 -1.330420e-02 -1.314139e-02 -1.297248e-02 -1.279823e-02 -1.261837e-02 -1.243368e-02 -1.224386e-02 -1.204972e-02 -1.185093e-02 -1.164828e-02 -1.144142e-02 -1.123118e-02 -1.101714e-02 -1.080015e-02 -1.057977e-02 -1.035683e-02 -1.013089e-02 -9.902764e-03 -9.671989e-03 -9.439375e-03 -9.204439e-03 -8.967979e-03 -8.729500e-03 -8.489782e-03 -8.248322e-03 -8.005877e-03 -7.761942e-03 -7.517248e-03 -7.271290e-03 -7.024770e-03 -6.777189e-03 -6.529214e-03 -6.280358e-03 -6.031251e-03 -5.781420e-03 -5.531455e-03 -5.280903e-03 -5.030311e-03 -4.779248e-03 -4.528218e-03 -4.276816e-03 -4.025499e-03 -3.773894e-03 -3.522407e-03 -3.270700e-03 -3.019128e-03 -2.767393e-03 -2.515796e-03 -2.264079e-03 -2.012493e-03 -1.760822e-03 -1.509263e-03 -1.257647e-03 -1.006117e-03 -7.545511e-04 -5.030390e-04 -2.515104e-04 
7.351524e-16 1.490335e-04 2.981255e-04 4.472756e-04 5.966001e-04 7.460394e-04 8.957661e-04 1.045661e-03 1.195951e-03 1.346459e-03 1.497463e-03 1.648726e-03 1.800579e-03 1.952726e-03 2.105544e-03 2.258681e-03 2.412559e-03 2.566769e-03 2.721775e-03 2.877114e-03 3.033289e-03 3.189782e-03 3.347133e-03 3.504772e-03 3.663270e-03 3.822009e-03 3.981586e-03 4.141340e-03 4.301886e-03 4.462524e-03 4.623886e-03 4.785233e-03 4.947208e-03 5.109038e-03 5.271374e-03 5.433412e-03 5.595805e-03 5.757722e-03 5.919814e-03 6.081226e-03 6.242604e-03 6.403074e-03 6.563269e-03 6.722301e-03 6.880789e-03 7.037833e-03 7.194033e-03 7.348484e-03 7.501762e-03 7.652961e-03 7.802629e-03 7.949866e-03 8.095187e-03 8.237702e-03 8.377893e-03 8.514882e-03 8.649116e-03 8.779736e-03 8.907150e-03 9.030522e-03 9.150221e-03 9.265437e-03 9.376500e-03 9.482633e-03 9.584122e-03 9.680228e-03 9.771198e-03 9.856329e-03 9.935831e-03 1.000904e-02 1.007614e-02 1.013650e-02 1.019027e-02 1.023688e-02 1.027643e-02 1.030841e-02 1.033289e-02 1.034942e-02 1.035803e-02 1.035833e-02 1.035033e-02 1.033369e-02 1.030841e-02 1.027422e-02 1.023107e-02 1.017877e-02 1.011727e-02 1.004641e-02 9.966162e-03 9.876416e-03 9.777129e-03 9.668264e-03 9.549776e-03 9.421685e-03 9.283953e-03 9.136657e-03 8.979769e-03 8.813419e-03 8.637594e-03 8.452476e-03 8.258070e-03 8.054607e-03 7.842114e-03 7.620866e-03 7.390917e-03 7.152581e-03 6.905942e-03 6.651349e-03 6.388917e-03 6.119028e-03 5.841828e-03 5.557729e-03 5.266908e-03 4.969799e-03 4.666616e-03 4.357810e-03 4.043628e-03 3.724534e-03 3.400809e-03 3.072926e-03 2.741196e-03 2.406095e-03 2.067968e-03 1.727286e-03 1.384423e-03 1.039846e-03 6.939513e-04 3.471958e-04 1.526253e-16 -3.471958e-04 -6.939513e-04 -1.039846e-03 -1.384423e-03 -1.727286e-03 -2.067968e-03 -2.406095e-03 -2.741196e-03 -3.072926e-03 -3.400809e-03 -3.724534e-03 -4.043628e-03 -4.357810e-03 -4.666616e-03 -4.969799e-03 -5.266908e-03 -5.557729e-03 -5.841828e-03 -6.119028e-03 -6.388917e-03 -6.651349e-03 -6.905942e-03 -7.152581e-03 -7.390917e-03 -7.620866e-03 -7.842114e-03 -8.054607e-03 -8.258070e-03 -8.452476e-03 -8.637594e-03 -8.813419e-03 -8.979769e-03 -9.136657e-03 -9.283953e-03 -9.421685e-03 -9.549776e-03 -9.668264e-03 -9.777129e-03 -9.876416e-03 -9.966162e-03 -1.004641e-02 -1.011727e-02 -1.017877e-02 -1.023107e-02 -1.027422e-02 -1.030841e-02 -1.033369e-02 -1.035033e-02 -1.035833e-02 -1.035803e-02 -1.034942e-02 -1.033289e-02 -1.030841e-02 -1.027643e-02 -1.023688e-02 -1.019027e-02 -1.013650e-02 -1.007614e-02 -1.000904e-02 -9.935831e-03 -9.856329e-03 -9.771198e-03 -9.680228e-03 -9.584122e-03 -9.482633e-03 -9.376500e-03 -9.265437e-03 -9.150221e-03 -9.030522e-03 -8.907150e-03 -8.779736e-03 -8.649116e-03 -8.514882e-03 -8.377893e-03 -8.237702e-03 -8.095187e-03 -7.949866e-03 -7.802629e-03 -7.652961e-03 -7.501762e-03 -7.348484e-03 -7.194033e-03 -7.037833e-03 -6.880789e-03 -6.722301e-03 -6.563269e-03 -6.403074e-03 -6.242604e-03 -6.081226e-03 -5.919814e-03 -5.757722e-03 -5.595805e-03 -5.433412e-03 -5.271374e-03 -5.109038e-03 -4.947208e-03 -4.785233e-03 -4.623886e-03 -4.462524e-03 -4.301886e-03 -4.141340e-03 -3.981586e-03 -3.822009e-03 -3.663270e-03 -3.504772e-03 -3.347133e-03 -3.189782e-03 -3.033289e-03 -2.877114e-03 -2.721775e-03 -2.566769e-03 -2.412559e-03 -2.258681e-03 -2.105544e-03 -1.952726e-03 -1.800579e-03 -1.648726e-03 -1.497463e-03 -1.346459e-03 -1.195951e-03 -1.045661e-03 -8.957661e-04 -7.460394e-04 -5.966001e-04 -4.472756e-04 -2.981255e-04 -1.490335e-04 
2.871258e-16 4.653447e-05 9.316742e-05 1.399346e-04 1.869964e-04 2.343253e-04 2.821426e-04 3.303573e-04 3.792499e-04 4.286664e-04 4.789445e-04 5.298675e-04 5.818286e-04 6.345491e-04 6.884748e-04 7.432663e-04 7.994193e-04 8.565351e-04 9.151560e-04 9.748258e-04 1.036130e-03 1.098557e-03 1.162731e-03 1.228087e-03 1.295286e-03 1.363712e-03 1.434055e-03 1.505653e-03 1.579222e-03 1.654056e-03 1.730891e-03 1.808980e-03 1.889078e-03 1.970397e-03 2.053704e-03 2.138179e-03 2.224595e-03 2.312101e-03 2.401471e-03 2.491829e-03 2.583946e-03 2.676922e-03 2.771521e-03 2.866825e-03 2.963584e-03 3.060868e-03 3.159409e-03 3.258269e-03 3.358155e-03 3.458126e-03 3.558864e-03 3.659427e-03 3.760468e-03 3.861050e-03 3.961790e-03 4.061764e-03 4.161552e-03 4.260243e-03 4.358378e-03 4.455066e-03 4.550806e-03 4.644733e-03 4.737300e-03 4.827670e-03 4.916255e-03 5.002249e-03 5.086018e-03 5.166796e-03 5.244902e-03 5.319610e-03 5.391197e-03 5.458980e-03 5.523195e-03 5.583203e-03 5.639202e-03 5.690602e-03 5.737562e-03 5.779547e-03 5.816678e-03 5.848474e-03 5.875026e-03 5.895908e-03 5.911182e-03 5.920479e-03 5.923838e-03 5.920947e-03 5.911825e-03 5.896217e-03 5.874126e-03 5.845357e-03 5.809901e-03 5.767619e-03 5.718496e-03 5.662448e-03 5.599459e-03 5.529501e-03 5.452557e-03 5.368651e-03 5.277776e-03 5.180004e-03 5.075338e-03 4.963899e-03 4.845701e-03 4.720911e-03 4.589560e-03 4.451855e-03 4.307849e-03 4.157782e-03 4.001733e-03 3.839974e-03 3.672607e-03 3.499933e-03 3.322080e-03 3.139373e-03 2.951967e-03 2.760206e-03 2.564272e-03 2.364523e-03 2.161170e-03 1.954578e-03 1.744987e-03 1.532765e-03 1.318179e-03 1.101597e-03 8.833076e-04 6.636774e-04 4.430158e-04 2.216804e-04 5.553316e-16 -2.216804e-04 -4.430158e-04 -6.636774e-04 -8.833076e-04 -1.101597e-03 -1.318179e-03 -1.532765e-03 -1.744987e-03 -1.954578e-03 -2.161170e-03 -2.364523e-03 -2.564272e-03 -2.760206e-03 -2.951967e-03 -3.139373e-03 -3.322080e-03 -3.499933e-03 -3.672607e-03 -3.839974e-03 -4.001733e-03 -4.157782e-03 -4.307849e-03 -4.451855e-03 -4.589560e-03 -4.720911e-03 -4.845701e-03 -4.963899e-03 -5.075338e-03 -5.180004e-03 -5.277776e-03 -5.368651e-03 -5.452557e-03 -5.529501e-03 -5.599459e-03 -5.662448e-03 -5.718496e-03 -5.767619e-03 -5.809901e-03 -5.845357e-03 -5.874126e-03 -5.896217e-03 -5.911825e-03 -5.920947e-03 -5.923838e-03 -5.920479e-03 -5.911182e-03 -5.895908e-03 -5.875026e-03 -5.848474e-03 -5.816678e-03 -5.779547e-03 -5.737562e-03 -5.690602e-03 -5.639202e-03 -5.583203e-03 -5.523195e-03 -5.458980e-03 -5.391197e-03 -5.319610e-03 -5.244902e-03 -5.166796e-03 -5.086018e-03 -5.002249e-03 -4.916255e-03 -4.827670e-03 -4.737300e-03 -4.644733e-03 -4.550806e-03 -4.455066e-03 -4.358378e-03 -4.260243e-03 -4.161552e-03 -4.061764e-03 -3.961790e-03 -3.861050e-03 -3.760468e-03 -3.659427e-03 -3.558864e-03 -3.458126e-03 -3.358155e-03 -3.258269e-03 -3.159409e-03 -3.060868e-03 -2.963584e-03 -2.866825e-03 -2.771521e-03 -2.676922e-03 -2.583946e-03 -2.491829e-03 -2.401471e-03 -2.312101e-03 -2.224595e-03 -2.138179e-03 -2.053704e-03 -1.970397e-03 -1.889078e-03 -1.808980e-03 -1.730891e-03 -1.654056e-03 -1.579222e-03 -1.505653e-03 -1.434055e-03 -1.363712e-03 -1.295286e-03 -1.228087e-03 -1.162731e-03 -1.098557e-03 -1.036130e-03 -9.748258e-04 -9.151560e-04 -8.565351e-04 -7.994193e-04 -7.432663e-04 -6.884748e-04 -6.345491e-04 -5.818286e-04 -5.298675e-04 -4.789445e-04 -4.286664e-04 -3.792499e-04 -3.303573e-04 -2.821426e-04 -2.343253e-04 -1.869964e-04 -1.399346e-04 -9.316742e-05 -4.653447e-05 
1.683831e-16 -5.606893e-05 -1.119987e-04 -1.677188e-04 -2.230220e-04 -2.779071e-04 -3.320995e-04 -3.856672e-04 -4.382700e-04 -4.900446e-04 -5.405867e-04 -5.901014e-04 -6.381224e-04 -6.849218e-04 -7.299740e-04 -7.736171e-04 -8.152687e-04 -8.553315e-04 -8.931692e-04 -9.292475e-04 -9.628798e-04 -9.945924e-04 -1.023652e-03 -1.050644e-03 -1.074793e-03 -1.096738e-03 -1.115667e-03 -1.132273e-03 -1.145709e-03 -1.156719e-03 -1.164427e-03 -1.169624e-03 -1.171410e-03 -1.170618e-03 -1.166333e-03 -1.159425e-03 -1.148966e-03 -1.135864e-03 -1.119181e-03 -1.099857e-03 -1.076954e-03 -1.051437e-03 -1.022372e-03 -9.907486e-04 -9.556402e-04 -9.180542e-04 -8.770796e-04 -8.337370e-04 -7.871348e-04 -7.383024e-04 -6.863728e-04 -6.323793e-04 -5.754836e-04 -5.167186e-04 -4.552788e-04 -3.921916e-04 -3.266884e-04 -2.597862e-04 -1.907565e-04 -1.206012e-04 -4.863480e-05 2.416063e-05 9.842520e-05 1.732013e-04 2.490819e-04 3.251382e-04 4.019150e-04 4.785164e-04 5.554384e-04 6.318220e-04 7.081144e-04 7.834975e-04 8.583701e-04 9.319582e-04 1.004614e-03 1.075610e-03 1.145253e-03 1.212866e-03 1.278713e-03 1.342170e-03 1.403458e-03 1.462009e-03 1.518008e-03 1.570940e-03 1.620957e-03 1.667603e-03 1.710999e-03 1.750745e-03 1.786938e-03 1.819234e-03 1.847709e-03 1.872078e-03 1.892397e-03 1.908438e-03 1.920246e-03 1.927646e-03 1.930676e-03 1.929213e-03 1.923290e-03 1.912838e-03 1.897888e-03 1.878419e-03 1.854467e-03 1.826055e-03 1.793227e-03 1.756048e-03 1.714573e-03 1.668905e-03 1.619111e-03 1.565330e-03 1.507644e-03 1.446221e-03 1.381162e-03 1.312661e-03 1.240838e-03 1.165907e-03 1.088007e-03 1.007372e-03 9.241597e-04 8.386154e-04 7.509165e-04 6.613179e-04 5.700147e-04 4.772665e-04 3.832852e-04 2.883307e-04 1.926301e-04 9.643990e-05 5.434507e-16 -9.643990e-05 -1.926301e-04 -2.883307e-04 -3.832852e-04 -4.772665e-04 -5.700147e-04 -6.613179e-04 -7.509165e-04 -8.386154e-04 -9.241597e-04 -1.007372e-03 -1.088007e-03 -1.165907e-03 -1.240838e-03 -1.312661e-03 -1.381162e-03 -1.446221e-03 -1.507644e-03 -1.565330e-03 -1.619111e-03 -1.668905e-03 -1.714573e-03 -1.756048e-03 -1.793227e-03 -1.826055e-03 -1.854467e-03 -1.878419e-03 -1.897888e-03 -1.912838e-03 -1.923290e-03 -1.929213e-03 -1.930676e-03 -1.927646e-03 -1.920246e-03 -1.908438e-03 -1.892397e-03 -1.872078e-03 -1.847709e-03 -1.819234e-03 -1.786938e-03 -1.750745e-03 -1.710999e-03 -1.667603e-03 -1.620957e-03 -1.570940e-03 -1.518008e-03 -1.462009e-03 -1.403458e-03 -1.342170e-03 -1.278713e-03 -1.212866e-03 -1.145253e-03 -1.075610e-03 -1.004614e-03 -9.319582e-04 -8.583701e-04 -7.834975e-04 -7.081144e-04 -6.318220e-04 -5.554384e-04 -4.785164e-04 -4.019150e-04 -3.251382e-04 -2.490819e-04 -1.732013e-04 -9.842520e-05 -2.416063e-05 4.863480e-05 1.206012e-04 1.907565e-04 2.597862e-04 3.266884e-04 3.921916e-04 4.552788e-04 5.167186e-04 5.754836e-04 6.323793e-04 6.863728e-04 7.383024e-04 7.871348e-04 8.337370e-04 8.770796e-04 9.180542e-04 9.556402e-04 9.907486e-04 1.022372e-03 1.051437e-03 1.076954e-03 1.099857e-03 1.119181e-03 1.135864e-03 1.148966e-03 1.159425e-03 1.166333e-03 1.170618e-03 1.171410e-03 1.169624e-03 1.164427e-03 1.156719e-03 1.145709e-03 1.132273e-03 1.115667e-03 1.096738e-03 1.074793e-03 1.050644e-03 1.023652e-03 9.945924e-04 9.628798e-04 9.292475e-04 8.931692e-04 8.553315e-04 8.152687e-04 7.736171e-04 7.299740e-04 6.849218e-04 6.381224e-04 5.901014e-04 5.405867e-04 4.900446e-04 4.382700e-04 3.856672e-04 3.320995e-04 2.779071e-04 2.230220e-04 1.677188e-04 1.119987e-04 5.606893e-05 
4.077982e-16 -1.587726e-04 -3.173657e-04 -4.756725e-04 -6.334410e-04 -7.906378e-04 -9.469393e-04 -1.102385e-03 -1.256581e-03 -1.409639e-03 -1.561097e-03 -1.711138e-03 -1.859233e-03 -2.005637e-03 -2.149756e-03 -2.291913e-03 -2.431453e-03 -2.568768e-03 -2.703143e-03 -2.835036e-03 -2.963678e-03 -3.089589e-03 -3.211949e-03 -3.331340e-03 -3.446894e-03 -3.559252e-03 -3.667503e-03 -3.772345e-03 -3.872827e-03 -3.969701e-03 -4.061983e-03 -4.150473e-03 -4.234162e-03 -4.313894e-03 -4.388638e-03 -4.459281e-03 -4.524774e-03 -4.586044e-03 -4.642030e-03 -4.693695e-03 -4.739973e-03 -4.781855e-03 -4.818278e-03 -4.850259e-03 -4.876740e-03 -4.898761e-03 -4.915277e-03 -4.927344e-03 -4.933935e-03 -4.936119e-03 -4.932892e-03 -4.925331e-03 -4.912460e-03 -4.895359e-03 -4.873087e-03 -4.846720e-03 -4.815354e-03 -4.780061e-03 -4.739978e-03 -4.696164e-03 -4.647802e-03 -4.595934e-03 -4.539793e-03 -4.480400e-03 -4.417036e-03 -4.350699e-03 -4.280722e-03 -4.208072e-03 -4.132138e-03 -4.053851e-03 -3.972655e-03 -3.889444e-03 -3.803715e-03 -3.716320e-03 -3.626813e-03 -3.535999e-03 -3.443483e-03 -3.350025e-03 -3.255280e-03 -3.159958e-03 -3.063761e-03 -2.967348e-03 -2.870466e-03 -2.773720e-03 -2.676900e-03 -2.580557e-03 -2.484517e-03 -2.389276e-03 -2.294694e-03 -2.201213e-03 -2.108722e-03 -2.017608e-03 -1.927786e-03 -1.839587e-03 -1.752948e-03 -1.668146e-03 -1.585135e-03 -1.504142e-03 -1.425131e-03 -1.348280e-03 -1.273561e-03 -1.201104e-03 -1.130887e-03 -1.062995e-03 -9.974048e-04 -9.341602e-04 -8.732370e-04 -8.146395e-04 -7.583377e-04 -7.043015e-04 -6.524924e-04 -6.028499e-04 -5.553249e-04 -5.098301e-04 -4.663042e-04 -4.246375e-04 -3.847553e-04 -3.465298e-04 -3.098720e-04 -2.746400e-04 -2.407310e-04 -2.079926e-04 -1.763085e-04 -1.455203e-04 -1.154988e-04 -8.608315e-05 -5.713308e-05 -2.848847e-05 7.181219e-16 2.848847e-05 5.713308e-05 8.608315e-05 1.154988e-04 1.455203e-04 1.763085e-04 2.079926e-04 2.407310e-04 2.746400e-04 3.098720e-04 3.465298e-04 3.847553e-04 4.246375e-04 4.663042e-04 5.098301e-04 5.553249e-04 6.028499e-04 6.524924e-04 7.043015e-04 7.583377e-04 8.146395e-04 8.732370e-04 9.341602e-04 9.974048e-04 1.062995e-03 1.130887e-03 1.201104e-03 1.273561e-03 1.348280e-03 1.425131e-03 1.504142e-03 1.585135e-03 1.668146e-03 1.752948e-03 1.839587e-03 1.927786e-03 2.017608e-03 2.108722e-03 2.201213e-03 2.294694e-03 2.389276e-03 2.484517e-03 2.580557e-03 2.676900e-03 2.773720e-03 2.870466e-03 2.967348e-03 3.063761e-03 3.159958e-03 3.255280e-03 3.350025e-03 3.443483e-03 3.535999e-03 3.626813e-03 3.716320e-03 3.803715e-03 3.889444e-03 3.972655e-03 4.053851e-03 4.132138e-03 4.208072e-03 4.280722e-03 4.350699e-03 4.417036e-03 4.480400e-03 4.539793e-03 4.595934e-03 4.647802e-03 4.696164e-03 4.739978e-03 4.780061e-03 4.815354e-03 4.846720e-03 4.873087e-03 4.895359e-03 4.912460e-03 4.925331e-03 4.932892e-03 4.936119e-03 4.933935e-03 4.927344e-03 4.915277e-03 4.898761e-03 4.876740e-03 4.850259e-03 4.818278e-03 4.781855e-03 4.739973e-03 4.693695e-03 4.642030e-03 4.586044e-03 4.524774e-03 4.459281e-03 4.388638e-03 4.313894e-03 4.234162e-03 4.150473e-03 4.061983e-03 3.969701e-03 3.872827e-03 3.772345e-03 3.667503e-03 3.559252e-03 3.446894e-03 3.331340e-03 3.211949e-03 3.089589e-03 2.963678e-03 2.835036e-03 2.703143e-03 2.568768e-03 2.431453e-03 2.291913e-03 2.149756e-03 2.005637e-03 1.859233e-03 1.711138e-03 1.561097e-03 1.409639e-03 1.256581e-03 1.102385e-03 9.469393e-04 7.906378e-04 6.334410e-04 4.756725e-04 3.173657e-04 1.587726e-04 
1.481157e-16 -2.616593e-04 -5.230981e-04 -7.841748e-04 -1.044590e-03 -1.304282e-03 -1.562872e-03 -1.820378e-03 -2.076345e-03 -2.330868e-03 -2.583418e-03 -2.834165e-03 -3.082508e-03 -3.328694e-03 -3.572049e-03 -3.812896e-03 -4.050491e-03 -4.285230e-03 -4.516304e-03 -4.744180e-03 -4.967987e-03 -5.188260e-03 -5.404070e-03 -5.616019e-03 -5.823121e-03 -6.026044e-03 -6.223752e-03 -6.416975e-03 -6.604630e-03 -6.787504e-03 -6.964477e-03 -7.136390e-03 -7.302087e-03 -7.462462e-03 -7.616329e-03 -7.764630e-03 -7.906156e-03 -8.041894e-03 -8.170618e-03 -8.293354e-03 -8.408866e-03 -8.518216e-03 -8.620165e-03 -8.715804e-03 -8.803898e-03 -8.885564e-03 -8.959577e-03 -9.027076e-03 -9.086849e-03 -9.140055e-03 -9.185502e-03 -9.224362e-03 -9.255470e-03 -9.280005e-03 -9.296836e-03 -9.307144e-03 -9.309835e-03 -9.306088e-03 -9.294853e-03 -9.277301e-03 -9.252429e-03 -9.221395e-03 -9.183247e-03 -9.139126e-03 -9.088135e-03 -9.031393e-03 -8.968058e-03 -8.899224e-03 -8.824107e-03 -8.743770e-03 -8.657489e-03 -8.566294e-03 -8.469518e-03 -8.368155e-03 -8.261598e-03 -8.150797e-03 -8.035208e-03 -7.915733e-03 -7.791886e-03 -7.664524e-03 -7.533215e-03 -7.398765e-03 -7.260799e-03 -7.120069e-03 -6.976250e-03 -6.830042e-03 -6.681168e-03 -6.530271e-03 -6.377120e-03 -6.222302e-03 -6.065626e-03 -5.907625e-03 -5.748142e-03 -5.587656e-03 -5.426042e-03 -5.263723e-03 -5.100603e-03 -4.937052e-03 -4.772997e-03 -4.608756e-03 -4.444275e-03 -4.279824e-03 -4.115363e-03 -3.951114e-03 -3.787049e-03 -3.623348e-03 -3.459987e-03 -3.297107e-03 -3.134689e-03 -2.972835e-03 -2.811528e-03 -2.650836e-03 -2.490741e-03 -2.331282e-03 -2.172435e-03 -2.014216e-03 -1.856596e-03 -1.699567e-03 -1.543095e-03 -1.387154e-03 -1.231704e-03 -1.076706e-03 -9.221104e-04 -7.678690e-04 -6.139276e-04 -4.602295e-04 -3.067163e-04 -1.533269e-04 5.536112e-16 1.533269e-04 3.067163e-04 4.602295e-04 6.139276e-04 7.678690e-04 9.221104e-04 1.076706e-03 1.231704e-03 1.387154e-03 1.543095e-03 1.699567e-03 1.856596e-03 2.014216e-03 2.172435e-03 2.331282e-03 2.490741e-03 2.650836e-03 2.811528e-03 2.972835e-03 3.134689e-03 3.297107e-03 3.459987e-03 3.623348e-03 3.787049e-03 3.951114e-03 4.115363e-03 4.279824e-03 4.444275e-03 4.608756e-03 4.772997e-03 4.937052e-03 5.100603e-03 5.263723e-03 5.426042e-03 5.587656e-03 5.748142e-03 5.907625e-03 6.065626e-03 6.222302e-03 6.377120e-03 6.530271e-03 6.681168e-03 6.830042e-03 6.976250e-03 7.120069e-03 7.260799e-03 7.398765e-03 7.533215e-03 7.664524e-03 7.791886e-03 7.915733e-03 8.035208e-03 8.150797e-03 8.261598e-03 8.368155e-03 8.469518e-03 8.566294e-03 8.657489e-03 8.743770e-03 8.824107e-03 8.899224e-03 8.968058e-03 9.031393e-03 9.088135e-03 9.139126e-03 9.183247e-03 9.221395e-03 9.252429e-03 9.277301e-03 9.294853e-03 9.306088e-03 9.309835e-03 9.307144e-03 9.296836e-03 9.280005e-03 9.255470e-03 9.224362e-03 9.185502e-03 9.140055e-03 9.086849e-03 9.027076e-03 8.959577e-03 8.885564e-03 8.803898e-03 8.715804e-03 8.620165e-03 8.518216e-03 8.408866e-03 8.293354e-03 8.170618e-03 8.041894e-03 7.906156e-03 7.764630e-03 7.616329e-03 7.462462e-03 7.302087e-03 7.136390e-03 6.964477e-03 6.787504e-03 6.604630e-03 6.416975e-03 6.223752e-03 6.026044e-03 5.823121e-03 5.616019e-03 5.404070e-03 5.188260e-03 4.967987e-03 4.744180e-03 4.516304e-03 4.285230e-03 4.050491e-03 3.812896e-03 3.572049e-03 3.328694e-03 3.082508e-03 2.834165e-03 2.583418e-03 2.330868e-03 2.076345e-03 1.820378e-03 1.562872e-03 1.304282e-03 1.044590e-03 7.841748e-04 5.230981e-04 2.616593e-04 