# vtk DataFile Version 2.0
Comment goes here
ASCII

DATASET STRUCTURED_POINTS
FIELD FieldData 1
TIME 1 1 double
0.08000000
DIMENSIONS    256   256   1

ORIGIN    0.000   0.000   0.000
SPACING   0.0039062 0.0039062   1.000

POINT_DATA   65536
SCALARS uX double
LOOKUP_TABLE default

4.303148e-15 -2.098329e-04 -4.196171e-04 -6.292809e-04 -8.387982e-04 -1.048074e-03 -1.257104e-03 -1.465769e-03 -1.674086e-03 -1.881914e-03 -2.089288e-03 -2.296045e-03 -2.502238e-03 -2.707681e-03 -2.912446e-03 -3.116323e-03 -3.319402e-03 -3.521451e-03 -3.722573e-03 -3.922516e-03 -4.121398e-03 -4.318947e-03 -4.515291e-03 -4.710140e-03 -4.903632e-03 -5.095460e-03 -5.285771e-03 -5.474242e-03 -5.661025e-03 -5.845784e-03 -6.028676e-03 -6.209352e-03 -6.387971e-03 -6.564177e-03 -6.738125e-03 -6.909454e-03 -7.078318e-03 -7.244348e-03 -7.407696e-03 -7.567990e-03 -7.725376e-03 -7.879482e-03 -8.030446e-03 -8.177899e-03 -8.321969e-03 -8.462291e-03 -8.598983e-03 -8.731687e-03 -8.860510e-03 -8.985102e-03 -9.105556e-03 -9.221536e-03 -9.333120e-03 -9.439985e-03 -9.542195e-03 -9.639444e-03 -9.731779e-03 -9.818913e-03 -9.900877e-03 -9.977404e-03 -1.004851e-02 -1.011395e-02 -1.017372e-02 -1.022761e-02 -1.027560e-02 -1.031748e-02 -1.035324e-02 -1.038270e-02 -1.040581e-02 -1.042245e-02 -1.043254e-02 -1.043598e-02 -1.043270e-02 -1.042261e-02 -1.040564e-02 -1.038173e-02 -1.035079e-02 -1.031281e-02 -1.026769e-02 -1.021543e-02 -1.015593e-02 -1.008924e-02 -1.001525e-02 -9.934022e-03 -9.845460e-03 -9.749662e-03 -9.646520e-03 -9.536164e-03 -9.418490e-03 -9.293657e-03 -9.161564e-03 -9.022397e-03 -8.876064e-03 -8.722775e-03 -8.562447e-03 -8.395314e-03 -8.221304e-03 -8.040673e-03 -7.853363e-03 -7.659649e-03 -7.459489e-03 -7.253174e-03 -7.040680e-03 -6.822315e-03 -6.598071e-03 -6.368269e-03 -6.132922e-03 -5.892361e-03 -5.646621e-03 -5.396039e-03 -5.140673e-03 -4.880865e-03 -4.616696e-03 -4.348511e-03 -4.076414e-03 -3.800749e-03 -3.521644e-03 -3.239440e-03 -2.954290e-03 -2.666528e-03 -2.376330e-03 -2.084025e-03 -1.789809e-03 -1.494001e-03 -1.196820e-03 -8.985719e-04 -5.994966e-04 -2.998865e-04 -3.360483e-15 2.998865e-04 5.994966e-04 8.985719e-04 1.196820e-03 1.494001e-03 1.789809e-03 2.084025e-03 2.376330e-03 2.666528e-03 2.954290e-03 3.239440e-03 3.521644e-03 3.800749e-03 4.076414e-03 4.348511e-03 4.616696e-03 4.880865e-03 5.140673e-03 5.396039e-03 5.646621e-03 5.892361e-03 6.132922e-03 6.368269e-03 6.598071e-03 6.822315e-03 7.040680e-03 7.253174e-03 7.459489e-03 7.659649e-03 7.853363e-03 8.040673e-03 8.221304e-03 8.395314e-03 8.562447e-03 8.722775e-03 8.876064e-03 9.022397e-03 9.161564e-03 9.293657e-03 9.418490e-03 9.536164e-03 9.646520e-03 9.749662e-03 9.845460e-03 9.934022e-03 1.001525e-02 1.008924e-02 1.015593e-02 1.021543e-02 1.026769e-02 1.031281e-02 1.035079e-02 1.038173e-02 1.040564e-02 1.042261e-02 1.043270e-02 1.043598e-02 1.043254e-02 1.042245e-02 1.040581e-02 1.038270e-02 1.035324e-02 1.031748e-02 1.027560e-02 1.022761e-02 1.017372e-02 1.011395e-02 1.004851e-02 9.977404e-03 9.900877e-03 9.818913e-03 9.731779e-03 9.639444e-03 9.542195e-03 9.439985e-03 9.333120e-03 9.221536e-03 9.105556e-03 8.985102e-03 8.860510e-03 8.731687e-03 8.598983e-03 8.462291e-03 8.321969e-03 8.177899e-03 8.030446e-03 7.879482e-03 7.725376e-03 7.567990e-03 7.407696e-03 7.244348e-03 7.078318e-03 6.909454e-03 6.738125e-03 6.564177e-03 6.387971e-03 6.209352e-03 6.028676e-03 5.845784e-03 5.661025e-03 5.474242e-03 5.285771e-03 5.095460e-03 4.903632e-03 4.710140e-03 4.515291e-03 4.318947e-03 4.121398e-03 3.922516e-03 3.722573e-03 3.521451e-03 3.319402e-03 3.116323e-03 2.912446e-03 2.707681e-03 2.502238e-03 2.296045e-03 2.089288e-03 1.881914e-03 1.674086e-03 1.465769e-03 1.257104e-03 1.048074e-03 8.387982e-04 6.292809e-04 4.196171e-04 2.098329e-04 
4.392706e-15 -3.167311e-04 -6.333703e-04 -9.498050e-04 -1.265963e-03 -1.581712e-03 -1.896997e-03 -2.211665e-03 -2.525680e-03 -2.838867e-03 -3.151208e-03 -3.462504e-03 -3.772756e-03 -4.081743e-03 -4.389478e-03 -4.695723e-03 -5.000504e-03 -5.303561e-03 -5.604931e-03 -5.904336e-03 -6.201825e-03 -6.497100e-03 -6.790216e-03 -7.080863e-03 -7.369099e-03 -7.654600e-03 -7.937428e-03 -8.217245e-03 -8.494118e-03 -8.767695e-03 -9.038044e-03 -9.304805e-03 -9.568042e-03 -9.827390e-03 -1.008291e-02 -1.033423e-02 -1.058141e-02 -1.082407e-02 -1.106226e-02 -1.129562e-02 -1.152417e-02 -1.174755e-02 -1.196580e-02 -1.217854e-02 -1.238580e-02 -1.258721e-02 -1.278280e-02 -1.297220e-02 -1.315542e-02 -1.333211e-02 -1.350227e-02 -1.366557e-02 -1.382198e-02 -1.397120e-02 -1.411318e-02 -1.424763e-02 -1.437451e-02 -1.449355e-02 -1.460466e-02 -1.470763e-02 -1.480235e-02 -1.488863e-02 -1.496635e-02 -1.503534e-02 -1.509547e-02 -1.514661e-02 -1.518862e-02 -1.522139e-02 -1.524476e-02 -1.525867e-02 -1.526296e-02 -1.525758e-02 -1.524237e-02 -1.521732e-02 -1.518226e-02 -1.513721e-02 -1.508201e-02 -1.501671e-02 -1.494114e-02 -1.485539e-02 -1.475929e-02 -1.465297e-02 -1.453626e-02 -1.440932e-02 -1.427198e-02 -1.412445e-02 -1.396657e-02 -1.379856e-02 -1.362028e-02 -1.343198e-02 -1.323354e-02 -1.302524e-02 -1.280695e-02 -1.257901e-02 -1.234131e-02 -1.209418e-02 -1.183754e-02 -1.157177e-02 -1.129679e-02 -1.101300e-02 -1.072035e-02 -1.041926e-02 -1.010970e-02 -9.792104e-03 -9.466476e-03 -9.133256e-03 -8.792480e-03 -8.444596e-03 -8.089670e-03 -7.728157e-03 -7.360153e-03 -6.986117e-03 -6.606175e-03 -6.220786e-03 -5.830108e-03 -5.434599e-03 -5.034445e-03 -4.630101e-03 -4.221783e-03 -3.809937e-03 -3.394810e-03 -2.976837e-03 -2.556293e-03 -2.133601e-03 -1.709061e-03 -1.283084e-03 -8.559937e-04 -4.281826e-04 -3.526832e-15 4.281826e-04 8.559937e-04 1.283084e-03 1.709061e-03 2.133601e-03 2.556293e-03 2.976837e-03 3.394810e-03 3.809937e-03 4.221783e-03 4.630101e-03 5.034445e-03 5.434599e-03 5.830108e-03 6.220786e-03 6.606175e-03 6.986117e-03 7.360153e-03 7.728157e-03 8.089670e-03 8.444596e-03 8.792480e-03 9.133256e-03 9.466476e-03 9.792104e-03 1.010970e-02 1.041926e-02 1.072035e-02 1.101300e-02 1.129679e-02 1.157177e-02 1.183754e-02 1.209418e-02 1.234131e-02 1.257901e-02 1.280695e-02 1.302524e-02 1.323354e-02 1.343198e-02 1.362028e-02 1.379856e-02 1.396657e-02 1.412445e-02 1.427198e-02 1.440932e-02 1.453626e-02 1.465297e-02 1.475929e-02 1.485539e-02 1.494114e-02 1.501671e-02 1.508201e-02 1.513721e-02 1.518226e-02 1.521732e-02 1.524237e-02 1.525758e-02 1.526296e-02 1.525867e-02 1.524476e-02 1.522139e-02 1.518862e-02 1.514661e-02 1.509547e-02 1.503534e-02 1.496635e-02 1.488863e-02 1.480235e-02 1.470763e-02 1.460466e-02 1.449355e-02 1.437451e-02 1.424763e-02 1.411318e-02 1.397120e-02 1.382198e-02 1.366557e-02 1.350227e-02 1.333211e-02 1.315542e-02 1.297220e-02 1.278280e-02 1.258721e-02 1.238580e-02 1.217854e-02 1.196580e-02 1.174755e-02 1.152417e-02 1.129562e-02 1.106226e-02 1.082407e-02 1.058141e-02 1.033423e-02 1.008291e-02 9.827390e-03 9.568042e-03 9.304805e-03 9.038044e-03 8.767695e-03 8.494118e-03 8.217245e-03 7.937428e-03 7.654600e-03 7.369099e-03 7.080863e-03 6.790216e-03 6.497100e-03 6.201825e-03 5.904336e-03 5.604931e-03 5.303561e-03 5.000504e-03 4.695723e-03 4.389478e-03 4.081743e-03 3.772756e-03 3.462504e-03 3.151208e-03 2.838867e-03 2.525680e-03 2.211665e-03 1.896997e-03 1.581712e-03 1.265963e-03 9.498050e-04 6.333703e-04 3.167311e-04 
4.655817e-15 -4.237332e-04 -8.473311e-04 -1.270641e-03 -1.693545e-03 -2.115872e-03 -2.537518e-03 -2.958296e-03 -3.378116e-03 -3.796773e-03 -4.214188e-03 -4.630138e-03 -5.044558e-03 -5.457207e-03 -5.868027e-03 -6.276761e-03 -6.683360e-03 -7.087551e-03 -7.489290e-03 -7.888288e-03 -8.284508e-03 -8.677644e-03 -9.067663e-03 -9.454247e-03 -9.837362e-03 -1.021668e-02 -1.059216e-02 -1.096348e-02 -1.133058e-02 -1.169313e-02 -1.205109e-02 -1.240409e-02 -1.275210e-02 -1.309476e-02 -1.343201e-02 -1.376349e-02 -1.408914e-02 -1.440861e-02 -1.472181e-02 -1.502840e-02 -1.532829e-02 -1.562113e-02 -1.590683e-02 -1.618504e-02 -1.645566e-02 -1.671835e-02 -1.697299e-02 -1.721928e-02 -1.745706e-02 -1.768605e-02 -1.790608e-02 -1.811688e-02 -1.831829e-02 -1.851004e-02 -1.869195e-02 -1.886380e-02 -1.902537e-02 -1.917649e-02 -1.931691e-02 -1.944649e-02 -1.956498e-02 -1.967225e-02 -1.976806e-02 -1.985230e-02 -1.992472e-02 -1.998526e-02 -2.003364e-02 -2.006984e-02 -2.009359e-02 -2.010489e-02 -2.010347e-02 -2.008937e-02 -2.006231e-02 -2.002239e-02 -1.996931e-02 -1.990320e-02 -1.982378e-02 -1.973122e-02 -1.962524e-02 -1.950604e-02 -1.937335e-02 -1.922742e-02 -1.906799e-02 -1.889533e-02 -1.870920e-02 -1.850991e-02 -1.829724e-02 -1.807153e-02 -1.783257e-02 -1.758075e-02 -1.731586e-02 -1.703834e-02 -1.674800e-02 -1.644529e-02 -1.613007e-02 -1.580281e-02 -1.546339e-02 -1.511232e-02 -1.474949e-02 -1.437544e-02 -1.399011e-02 -1.359403e-02 -1.318719e-02 -1.277014e-02 -1.234288e-02 -1.190600e-02 -1.145953e-02 -1.100406e-02 -1.053966e-02 -1.006694e-02 -9.585995e-03 -9.097429e-03 -8.601397e-03 -8.098488e-03 -7.588899e-03 -7.073214e-03 -6.551668e-03 -6.024839e-03 -5.492999e-03 -4.956714e-03 -4.416292e-03 -3.872288e-03 -3.325043e-03 -2.775095e-03 -2.222821e-03 -1.668737e-03 -1.113252e-03 -5.568599e-04 -3.849891e-15 5.568599e-04 1.113252e-03 1.668737e-03 2.222821e-03 2.775095e-03 3.325043e-03 3.872288e-03 4.416292e-03 4.956714e-03 5.492999e-03 6.024839e-03 6.551668e-03 7.073214e-03 7.588899e-03 8.098488e-03 8.601397e-03 9.097429e-03 9.585995e-03 1.006694e-02 1.053966e-02 1.100406e-02 1.145953e-02 1.190600e-02 1.234288e-02 1.277014e-02 1.318719e-02 1.359403e-02 1.399011e-02 1.437544e-02 1.474949e-02 1.511232e-02 1.546339e-02 1.580281e-02 1.613007e-02 1.644529e-02 1.674800e-02 1.703834e-02 1.731586e-02 1.758075e-02 1.783257e-02 1.807153e-02 1.829724e-02 1.850991e-02 1.870920e-02 1.889533e-02 1.906799e-02 1.922742e-02 1.937335e-02 1.950604e-02 1.962524e-02 1.973122e-02 1.982378e-02 1.990320e-02 1.996931e-02 2.002239e-02 2.006231e-02 2.008937e-02 2.010347e-02 2.010489e-02 2.009359e-02 2.006984e-02 2.003364e-02 1.998526e-02 1.992472e-02 1.985230e-02 1.976806e-02 1.967225e-02 1.956498e-02 1.944649e-02 1.931691e-02 1.917649e-02 1.902537e-02 1.886380e-02 1.869195e-02 1.851004e-02 1.831829e-02 1.811688e-02 1.790608e-02 1.768605e-02 1.745706e-02 1.721928e-02 1.697299e-02 1.671835e-02 1.645566e-02 1.618504e-02 1.590683e-02 1.562113e-02 1.532829e-02 1.502840e-02 1.472181e-02 1.440861e-02 1.408914e-02 1.376349e-02 1.343201e-02 1.309476e-02 1.275210e-02 1.240409e-02 1.205109e-02 1.169313e-02 1.133058e-02 1.096348e-02 1.059216e-02 1.021668e-02 9.837362e-03 9.454247e-03 9.067663e-03 8.677644e-03 8.284508e-03 7.888288e-03 7.489290e-03 7.087551e-03 6.683360e-03 6.276761e-03 5.868027e-03 5.457207e-03 5.044558e-03 4.630138e-03 4.214188e-03 3.796773e-03 3.378116e-03 2.958296e-03 2.537518e-03 2.115872e-03 1.693545e-03 1.270641e-03 8.473311e-04 4.237332e-04 
5.067960e-15 -5.308682e-04 -1.061558e-03 -1.591877e-03 -2.121660e-03 -2.650700e-03 -3.178844e-03 -3.705868e-03 -4.231632e-03 -4.755895e-03 -5.278528e-03 -5.799273e-03 -6.318008e-03 -6.834462e-03 -7.348518e-03 -7.859889e-03 -8.368464e-03 -8.873940e-03 -9.376210e-03 -9.874958e-03 -1.037008e-02 -1.086124e-02 -1.134833e-02 -1.183102e-02 -1.230919e-02 -1.278250e-02 -1.325083e-02 -1.371382e-02 -1.417135e-02 -1.462306e-02 -1.506881e-02 -1.550825e-02 -1.594123e-02 -1.636739e-02 -1.678658e-02 -1.719842e-02 -1.760276e-02 -1.799923e-02 -1.838766e-02 -1.876769e-02 -1.913914e-02 -1.950165e-02 -1.985501e-02 -2.019891e-02 -2.053311e-02 -2.085729e-02 -2.117122e-02 -2.147460e-02 -2.176717e-02 -2.204865e-02 -2.231878e-02 -2.257729e-02 -2.282390e-02 -2.305840e-02 -2.328045e-02 -2.348988e-02 -2.368637e-02 -2.386975e-02 -2.403968e-02 -2.419604e-02 -2.433849e-02 -2.446693e-02 -2.458100e-02 -2.468065e-02 -2.476552e-02 -2.483560e-02 -2.489051e-02 -2.493028e-02 -2.495453e-02 -2.496334e-02 -2.495633e-02 -2.493362e-02 -2.489482e-02 -2.484010e-02 -2.476908e-02 -2.468197e-02 -2.457839e-02 -2.445861e-02 -2.432225e-02 -2.416962e-02 -2.400036e-02 -2.381482e-02 -2.361265e-02 -2.339425e-02 -2.315928e-02 -2.290819e-02 -2.264067e-02 -2.235719e-02 -2.205747e-02 -2.174201e-02 -2.141057e-02 -2.106369e-02 -2.070115e-02 -2.032353e-02 -1.993063e-02 -1.952306e-02 -1.910067e-02 -1.866408e-02 -1.821320e-02 -1.774866e-02 -1.727040e-02 -1.677908e-02 -1.627469e-02 -1.575790e-02 -1.522873e-02 -1.468787e-02 -1.413540e-02 -1.357202e-02 -1.299783e-02 -1.241354e-02 -1.181931e-02 -1.121585e-02 -1.060336e-02 -9.982551e-03 -9.353666e-03 -8.717408e-03 -8.074071e-03 -7.424347e-03 -6.768572e-03 -6.107426e-03 -5.441287e-03 -4.770820e-03 -4.096444e-03 -3.418803e-03 -2.738356e-03 -2.055723e-03 -1.371400e-03 -6.859821e-04 -4.256111e-15 6.859821e-04 1.371400e-03 2.055723e-03 2.738356e-03 3.418803e-03 4.096444e-03 4.770820e-03 5.441287e-03 6.107426e-03 6.768572e-03 7.424347e-03 8.074071e-03 8.717408e-03 9.353666e-03 9.982551e-03 1.060336e-02 1.121585e-02 1.181931e-02 1.241354e-02 1.299783e-02 1.357202e-02 1.413540e-02 1.468787e-02 1.522873e-02 1.575790e-02 1.627469e-02 1.677908e-02 1.727040e-02 1.774866e-02 1.821320e-02 1.866408e-02 1.910067e-02 1.952306e-02 1.993063e-02 2.032353e-02 2.070115e-02 2.106369e-02 2.141057e-02 2.174201e-02 2.205747e-02 2.235719e-02 2.264067e-02 2.290819e-02 2.315928e-02 2.339425e-02 2.361265e-02 2.381482e-02 2.400036e-02 2.416962e-02 2.432225e-02 2.445861e-02 2.457839e-02 2.468197e-02 2.476908e-02 2.484010e-02 2.489482e-02 2.493362e-02 2.495633e-02 2.496334e-02 2.495453e-02 2.493028e-02 2.489051e-02 2.483560e-02 2.476552e-02 2.468065e-02 2.458100e-02 2.446693e-02 2.433849e-02 2.419604e-02 2.403968e-02 2.386975e-02 2.368637e-02 2.348988e-02 2.328045e-02 2.305840e-02 2.282390e-02 2.257729e-02 2.231878e-02 2.204865e-02 2.176717e-02 2.147460e-02 2.117122e-02 2.085729e-02 2.053311e-02 2.019891e-02 1.985501e-02 1.950165e-02 1.913914e-02 1.876769e-02 1.838766e-02 1.799923e-02 1.760276e-02 1.719842e-02 1.678658e-02 1.636739e-02 1.594123e-02 1.550825e-02 1.506881e-02 1.462306e-02 1.417135e-02 1.371382e-02 1.325083e-02 1.278250e-02 1.230919e-02 1.183102e-02 1.134833e-02 1.086124e-02 1.037008e-02 9.874958e-03 9.376210e-03 8.873940e-03 8.368464e-03 7.859889e-03 7.348518e-03 6.834462e-03 6.318008e-03 5.799273e-03 5.278528e-03 4.755895e-03 4.231632e-03 3.705868e-03 3.178844e-03 2.650700e-03 2.121660e-03 1.591877e-03 1.061558e-03 5.308682e-04 
5.368534e-15 -6.381919e-04 -1.276162e-03 -1.913680e-03 -2.550532e-03 -3.186476e-03 -3.821308e-03 -4.454772e-03 -5.086673e-03 -5.716742e-03 -6.344788e-03 -6.970530e-03 -7.593781e-03 -8.214246e-03 -8.831743e-03 -9.445963e-03 -1.005672e-02 -1.066370e-02 -1.126672e-02 -1.186544e-02 -1.245968e-02 -1.304909e-02 -1.363349e-02 -1.421252e-02 -1.478599e-02 -1.535353e-02 -1.591494e-02 -1.646986e-02 -1.701806e-02 -1.755918e-02 -1.809299e-02 -1.861913e-02 -1.913734e-02 -1.964728e-02 -2.014866e-02 -2.064113e-02 -2.112442e-02 -2.159819e-02 -2.206211e-02 -2.251587e-02 -2.295914e-02 -2.339160e-02 -2.381292e-02 -2.422278e-02 -2.462083e-02 -2.500679e-02 -2.538028e-02 -2.574104e-02 -2.608866e-02 -2.642293e-02 -2.674341e-02 -2.704991e-02 -2.734199e-02 -2.761949e-02 -2.788194e-02 -2.812923e-02 -2.836086e-02 -2.857675e-02 -2.877642e-02 -2.895982e-02 -2.912643e-02 -2.927627e-02 -2.940880e-02 -2.952409e-02 -2.962159e-02 -2.970141e-02 -2.976300e-02 -2.980652e-02 -2.983142e-02 -2.983790e-02 -2.982543e-02 -2.979423e-02 -2.974379e-02 -2.967438e-02 -2.958550e-02 -2.947747e-02 -2.934979e-02 -2.920284e-02 -2.903613e-02 -2.885009e-02 -2.864425e-02 -2.841908e-02 -2.817415e-02 -2.790996e-02 -2.762610e-02 -2.732313e-02 -2.700067e-02 -2.665931e-02 -2.629869e-02 -2.591947e-02 -2.552132e-02 -2.510492e-02 -2.466999e-02 -2.421724e-02 -2.374644e-02 -2.325832e-02 -2.275270e-02 -2.223034e-02 -2.169111e-02 -2.113578e-02 -2.056427e-02 -1.997738e-02 -1.937509e-02 -1.875820e-02 -1.812673e-02 -1.748153e-02 -1.682265e-02 -1.615093e-02 -1.546651e-02 -1.477022e-02 -1.406225e-02 -1.334343e-02 -1.261400e-02 -1.187480e-02 -1.112612e-02 -1.036878e-02 -9.603132e-03 -8.829990e-03 -8.049745e-03 -7.263200e-03 -6.470796e-03 -5.673316e-03 -4.871251e-03 -4.065356e-03 -3.256170e-03 -2.444421e-03 -1.630691e-03 -8.156761e-04 -4.193462e-15 8.156761e-04 1.630691e-03 2.444421e-03 3.256170e-03 4.065356e-03 4.871251e-03 5.673316e-03 6.470796e-03 7.263200e-03 8.049745e-03 8.829990e-03 9.603132e-03 1.036878e-02 1.112612e-02 1.187480e-02 1.261400e-02 1.334343e-02 1.406225e-02 1.477022e-02 1.546651e-02 1.615093e-02 1.682265e-02 1.748153e-02 1.812673e-02 1.875820e-02 1.937509e-02 1.997738e-02 2.056427e-02 2.113578e-02 2.169111e-02 2.223034e-02 2.275270e-02 2.325832e-02 2.374644e-02 2.421724e-02 2.466999e-02 2.510492e-02 2.552132e-02 2.591947e-02 2.629869e-02 2.665931e-02 2.700067e-02 2.732313e-02 2.762610e-02 2.790996e-02 2.817415e-02 2.841908e-02 2.864425e-02 2.885009e-02 2.903613e-02 2.920284e-02 2.934979e-02 2.947747e-02 2.958550e-02 2.967438e-02 2.974379e-02 2.979423e-02 2.982543e-02 2.983790e-02 2.983142e-02 2.980652e-02 2.976300e-02 2.970141e-02 2.962159e-02 2.952409e-02 2.940880e-02 2.927627e-02 2.912643e-02 2.895982e-02 2.877642e-02 2.857675e-02 2.836086e-02 2.812923e-02 2.788194e-02 2.761949e-02 2.734199e-02 2.704991e-02 2.674341e-02 2.642293e-02 2.608866e-02 2.574104e-02 2.538028e-02 2.500679e-02 2.462083e-02 2.422278e-02 2.381292e-02 2.339160e-02 2.295914e-02 2.251587e-02 2.206211e-02 2.159819e-02 2.112442e-02 2.064113e-02 2.014866e-02 1.964728e-02 1.913734e-02 1.861913e-02 1.809299e-02 1.755918e-02 1.701806e-02 1.646986e-02 1.591494e-02 1.535353e-02 1.478599e-02 1.421252e-02 1.363349e-02 1.304909e-02 1.245968e-02 1.186544e-02 1.126672e-02 1.066370e-02 1.005672e-02 9.445963e-03 8.831743e-03 8.214246e-03 7.593781e-03 6.970530e-03 6.344788e-03 5.716742e-03 5.086673e-03 4.454772e-03 3.821308e-03 3.186476e-03 2.550532e-03 1.913680e-03 1.276162e-03 6.381919e-04 
5.550803e-15 -7.457328e-04 -1.491202e-03 -2.236135e-03 -2.980276e-03 -3.723343e-03 -4.465086e-03 -5.205212e-03 -5.943475e-03 -6.679573e-03 -7.413263e-03 -8.144230e-03 -8.872232e-03 -9.596943e-03 -1.031812e-02 -1.103543e-02 -1.174862e-02 -1.245735e-02 -1.316137e-02 -1.386032e-02 -1.455394e-02 -1.524187e-02 -1.592384e-02 -1.659948e-02 -1.726851e-02 -1.793057e-02 -1.858534e-02 -1.923247e-02 -1.987163e-02 -2.050246e-02 -2.112463e-02 -2.173776e-02 -2.234151e-02 -2.293551e-02 -2.351940e-02 -2.409282e-02 -2.465538e-02 -2.520674e-02 -2.574648e-02 -2.627428e-02 -2.678970e-02 -2.729243e-02 -2.778201e-02 -2.825816e-02 -2.872039e-02 -2.916844e-02 -2.960181e-02 -3.002025e-02 -3.042326e-02 -3.081061e-02 -3.118176e-02 -3.153655e-02 -3.187441e-02 -3.219521e-02 -3.249835e-02 -3.278376e-02 -3.305083e-02 -3.329951e-02 -3.352919e-02 -3.373987e-02 -3.393092e-02 -3.410238e-02 -3.425363e-02 -3.438475e-02 -3.449511e-02 -3.458486e-02 -3.465335e-02 -3.470078e-02 -3.472652e-02 -3.473081e-02 -3.471302e-02 -3.467346e-02 -3.461150e-02 -3.452749e-02 -3.442085e-02 -3.429196e-02 -3.414024e-02 -3.396615e-02 -3.376912e-02 -3.354967e-02 -3.330726e-02 -3.304244e-02 -3.275470e-02 -3.244466e-02 -3.211183e-02 -3.175688e-02 -3.137937e-02 -3.097999e-02 -3.055834e-02 -3.011517e-02 -2.965013e-02 -2.916400e-02 -2.865646e-02 -2.812834e-02 -2.757939e-02 -2.701044e-02 -2.642130e-02 -2.581285e-02 -2.518494e-02 -2.453847e-02 -2.387335e-02 -2.319051e-02 -2.248992e-02 -2.177252e-02 -2.103834e-02 -2.028833e-02 -1.952258e-02 -1.874207e-02 -1.794693e-02 -1.713813e-02 -1.631590e-02 -1.548120e-02 -1.463430e-02 -1.377616e-02 -1.290712e-02 -1.202814e-02 -1.113960e-02 -1.024245e-02 -9.337146e-03 -8.424599e-03 -7.505324e-03 -6.580215e-03 -5.649842e-03 -4.715069e-03 -3.776517e-03 -2.835021e-03 -1.891251e-03 -9.460052e-04 -4.281294e-15 9.460052e-04 1.891251e-03 2.835021e-03 3.776517e-03 4.715069e-03 5.649842e-03 6.580215e-03 7.505324e-03 8.424599e-03 9.337146e-03 1.024245e-02 1.113960e-02 1.202814e-02 1.290712e-02 1.377616e-02 1.463430e-02 1.548120e-02 1.631590e-02 1.713813e-02 1.794693e-02 1.874207e-02 1.952258e-02 2.028833e-02 2.103834e-02 2.177252e-02 2.248992e-02 2.319051e-02 2.387335e-02 2.453847e-02 2.518494e-02 2.581285e-02 2.642130e-02 2.701044e-02 2.757939e-02 2.812834e-02 2.865646e-02 2.916400e-02 2.965013e-02 3.011517e-02 3.055834e-02 3.097999e-02 3.137937e-02 3.175688e-02 3.211183e-02 3.244466e-02 3.275470e-02 3.304244e-02 3.330726e-02 3.354967e-02 3.376912e-02 3.396615e-02 3.414024e-02 3.429196e-02 3.442085e-02 3.452749e-02 3.461150e-02 3.467346e-02 3.471302e-02 3.473081e-02 3.472652e-02 3.470078e-02 3.465335e-02 3.458486e-02 3.449511e-02 3.438475e-02 3.425363e-02 3.410238e-02 3.393092e-02 3.373987e-02 3.352919e-02 3.329951e-02 3.305083e-02 3.278376e-02 3.249835e-02 3.219521e-02 3.187441e-02 3.153655e-02 3.118176e-02 3.081061e-02 3.042326e-02 3.002025e-02 2.960181e-02 2.916844e-02 2.872039e-02 2.825816e-02 2.778201e-02 2.729243e-02 2.678970e-02 2.627428e-02 2.574648e-02 2.520674e-02 2.465538e-02 2.409282e-02 2.351940e-02 2.293551e-02 2.234151e-02 2.173776e-02 2.112463e-02 2.050246e-02 1.987163e-02 1.923247e-02 1.858534e-02 1.793057e-02 1.726851e-02 1.659948e-02 1.592384e-02 1.524187e-02 1.455394e-02 1.386032e-02 1.316137e-02 1.245735e-02 1.174862e-02 1.103543e-02 1.031812e-02 9.596943e-03 8.872232e-03 8.144230e-03 7.413263e-03 6.679573e-03 5.943475e-03 5.205212e-03 4.465086e-03 3.723343e-03 2.980276e-03 2.236135e-03 1.491202e-03 7.457328e-04 
5.753990e-15 -8.535464e-04 -1.706787e-03 -2.559410e-03 -3.411113e-03 -4.261579e-03 -5.110508e-03 -5.957576e-03 -6.802481e-03 -7.644893e-03 -8.484510e-03 -9.320992e-03 -1.015403e-02 -1.098329e-02 -1.180844e-02 -1.262914e-02 -1.344507e-02 -1.425586e-02 -1.506119e-02 -1.586068e-02 -1.665400e-02 -1.744077e-02 -1.822064e-02 -1.899322e-02 -1.975816e-02 -2.051507e-02 -2.126355e-02 -2.200324e-02 -2.273371e-02 -2.345461e-02 -2.416548e-02 -2.486598e-02 -2.555563e-02 -2.623408e-02 -2.690085e-02 -2.755559e-02 -2.819779e-02 -2.882713e-02 -2.944307e-02 -3.004529e-02 -3.063324e-02 -3.120663e-02 -3.176487e-02 -3.230769e-02 -3.283448e-02 -3.334500e-02 -3.383863e-02 -3.431515e-02 -3.477389e-02 -3.521471e-02 -3.563690e-02 -3.604035e-02 -3.642434e-02 -3.678879e-02 -3.713297e-02 -3.745685e-02 -3.775969e-02 -3.804148e-02 -3.830149e-02 -3.853976e-02 -3.875553e-02 -3.894891e-02 -3.911914e-02 -3.926637e-02 -3.938983e-02 -3.948976e-02 -3.956536e-02 -3.961693e-02 -3.964368e-02 -3.964597e-02 -3.962303e-02 -3.957526e-02 -3.950191e-02 -3.940343e-02 -3.927911e-02 -3.912945e-02 -3.895374e-02 -3.875256e-02 -3.852524e-02 -3.827239e-02 -3.799337e-02 -3.768886e-02 -3.735826e-02 -3.700230e-02 -3.662040e-02 -3.621336e-02 -3.578064e-02 -3.532308e-02 -3.484021e-02 -3.433291e-02 -3.380074e-02 -3.324462e-02 -3.266420e-02 -3.206043e-02 -3.143300e-02 -3.078289e-02 -3.010987e-02 -2.941495e-02 -2.869796e-02 -2.795994e-02 -2.720077e-02 -2.642152e-02 -2.562216e-02 -2.480375e-02 -2.396633e-02 -2.311098e-02 -2.223782e-02 -2.134793e-02 -2.044148e-02 -1.951959e-02 -1.858248e-02 -1.763126e-02 -1.666623e-02 -1.568850e-02 -1.469844e-02 -1.369712e-02 -1.268500e-02 -1.166314e-02 -1.063205e-02 -9.592779e-03 -8.545898e-03 -7.492422e-03 -6.432993e-03 -5.368591e-03 -4.299917e-03 -3.227915e-03 -2.153341e-03 -1.077100e-03 -4.476754e-15 1.077100e-03 2.153341e-03 3.227915e-03 4.299917e-03 5.368591e-03 6.432993e-03 7.492422e-03 8.545898e-03 9.592779e-03 1.063205e-02 1.166314e-02 1.268500e-02 1.369712e-02 1.469844e-02 1.568850e-02 1.666623e-02 1.763126e-02 1.858248e-02 1.951959e-02 2.044148e-02 2.134793e-02 2.223782e-02 2.311098e-02 2.396633e-02 2.480375e-02 2.562216e-02 2.642152e-02 2.720077e-02 2.795994e-02 2.869796e-02 2.941495e-02 3.010987e-02 3.078289e-02 3.143300e-02 3.206043e-02 3.266420e-02 3.324462e-02 3.380074e-02 3.433291e-02 3.484021e-02 3.532308e-02 3.578064e-02 3.621336e-02 3.662040e-02 3.700230e-02 3.735826e-02 3.768886e-02 3.799337e-02 3.827239e-02 3.852524e-02 3.875256e-02 3.895374e-02 3.912945e-02 3.927911e-02 3.940343e-02 3.950191e-02 3.957526e-02 3.962303e-02 3.964597e-02 3.964368e-02 3.961693e-02 3.956536e-02 3.948976e-02 3.938983e-02 3.926637e-02 3.911914e-02 3.894891e-02 3.875553e-02 3.853976e-02 3.830149e-02 3.804148e-02 3.775969e-02 3.745685e-02 3.713297e-02 3.678879e-02 3.642434e-02 3.604035e-02 3.563690e-02 3.521471e-02 3.477389e-02 3.431515e-02 3.383863e-02 3.334500e-02 3.283448e-02 3.230769e-02 3.176487e-02 3.120663e-02 3.063324e-02 3.004529e-02 2.944307e-02 2.882713e-02 2.819779e-02 2.755559e-02 2.690085e-02 2.623408e-02 2.555563e-02 2.486598e-02 2.416548e-02 2.345461e-02 2.273371e-02 2.200324e-02 2.126355e-02 2.051507e-02 1.975816e-02 1.899322e-02 1.822064e-02 1.744077e-02 1.665400e-02 1.586068e-02 1.506119e-02 1.425586e-02 1.344507e-02 1.262914e-02 1.180844e-02 1.098329e-02 1.015403e-02 9.320992e-03 8.484510e-03 7.644893e-03 6.802481e-03 5.957576e-03 5.110508e-03 4.261579e-03 3.411113e-03 2.559410e-03 1.706787e-03 8.535464e-04 
6.124053e-15 -9.616606e-04 -1.922973e-03 -2.883587e-03 -3.843157e-03 -4.801325e-03 -5.757747e-03 -6.712062e-03 -7.663921e-03 -8.612957e-03 -9.558818e-03 -1.050113e-02 -1.143953e-02 -1.237365e-02 -1.330311e-02 -1.422753e-02 -1.514654e-02 -1.605972e-02 -1.696671e-02 -1.786709e-02 -1.876047e-02 -1.964644e-02 -2.052457e-02 -2.139447e-02 -2.225568e-02 -2.310782e-02 -2.395039e-02 -2.478302e-02 -2.560521e-02 -2.641656e-02 -2.721655e-02 -2.800480e-02 -2.878077e-02 -2.954407e-02 -3.029414e-02 -3.103061e-02 -3.175289e-02 -3.246062e-02 -3.315319e-02 -3.383025e-02 -3.449117e-02 -3.513563e-02 -3.576295e-02 -3.637286e-02 -3.696464e-02 -3.753806e-02 -3.809237e-02 -3.862737e-02 -3.914229e-02 -3.963697e-02 -4.011061e-02 -4.056311e-02 -4.099363e-02 -4.140212e-02 -4.178772e-02 -4.215044e-02 -4.248941e-02 -4.280467e-02 -4.309535e-02 -4.336154e-02 -4.360236e-02 -4.381797e-02 -4.400748e-02 -4.417110e-02 -4.430795e-02 -4.441830e-02 -4.450126e-02 -4.455718e-02 -4.458517e-02 -4.458565e-02 -4.455773e-02 -4.450190e-02 -4.441730e-02 -4.430447e-02 -4.416257e-02 -4.399221e-02 -4.379258e-02 -4.356435e-02 -4.330674e-02 -4.302048e-02 -4.270484e-02 -4.236059e-02 -4.198706e-02 -4.158507e-02 -4.115398e-02 -4.069470e-02 -4.020662e-02 -3.969070e-02 -3.914640e-02 -3.857471e-02 -3.797516e-02 -3.734878e-02 -3.669517e-02 -3.601541e-02 -3.530915e-02 -3.457751e-02 -3.382021e-02 -3.303841e-02 -3.223190e-02 -3.140185e-02 -3.054815e-02 -2.967198e-02 -2.877332e-02 -2.785335e-02 -2.691212e-02 -2.595086e-02 -2.496967e-02 -2.396978e-02 -2.295139e-02 -2.191573e-02 -2.086308e-02 -1.979465e-02 -1.871080e-02 -1.761275e-02 -1.650092e-02 -1.537653e-02 -1.424007e-02 -1.309273e-02 -1.193509e-02 -1.076830e-02 -9.593020e-03 -8.410374e-03 -7.221082e-03 -6.026236e-03 -4.826621e-03 -3.623289e-03 -2.417087e-03 -1.209023e-03 -4.836553e-15 1.209023e-03 2.417087e-03 3.623289e-03 4.826621e-03 6.026236e-03 7.221082e-03 8.410374e-03 9.593020e-03 1.076830e-02 1.193509e-02 1.309273e-02 1.424007e-02 1.537653e-02 1.650092e-02 1.761275e-02 1.871080e-02 1.979465e-02 2.086308e-02 2.191573e-02 2.295139e-02 2.396978e-02 2.496967e-02 2.595086e-02 2.691212e-02 2.785335e-02 2.877332e-02 2.967198e-02 3.054815e-02 3.140185e-02 3.223190e-02 3.303841e-02 3.382021e-02 3.457751e-02 3.530915e-02 3.601541e-02 3.669517e-02 3.734878e-02 3.797516e-02 3.857471e-02 3.914640e-02 3.969070e-02 4.020662e-02 4.069470e-02 4.115398e-02 4.158507e-02 4.198706e-02 4.236059e-02 4.270484e-02 4.302048e-02 4.330674e-02 4.356435e-02 4.379258e-02 4.399221e-02 4.416257e-02 4.430447e-02 4.441730e-02 4.450190e-02 4.455773e-02 4.458565e-02 4.458517e-02 4.455718e-02 4.450126e-02 4.441830e-02 4.430795e-02 4.417110e-02 4.400748e-02 4.381797e-02 4.360236e-02 4.336154e-02 4.309535e-02 4.280467e-02 4.248941e-02 4.215044e-02 4.178772e-02 4.140212e-02 4.099363e-02 4.056311e-02 4.011061e-02 3.963697e-02 3.914229e-02 3.862737e-02 3.809237e-02 3.753806e-02 3.696464e-02 3.637286e-02 3.576295e-02 3.513563e-02 3.449117e-02 3.383025e-02 3.315319e-02 3.246062e-02 3.175289e-02 3.103061e-02 3.029414e-02 2.954407e-02 2.878077e-02 2.800480e-02 2.721655e-02 2.641656e-02 2.560521e-02 2.478302e-02 2.395039e-02 2.310782e-02 2.225568e-02 2.139447e-02 2.052457e-02 1.964644e-02 1.876047e-02 1.786709e-02 1.696671e-02 1.605972e-02 1.514654e-02 1.422753e-02 1.330311e-02 1.237365e-02 1.143953e-02 1.050113e-02 9.558818e-03 8.612957e-03 7.663921e-03 6.712062e-03 5.757747e-03 4.801325e-03 3.843157e-03 2.883587e-03 1.922973e-03 9.616606e-04 