# vtk DataFile Version 2.0
Comment goes here
ASCII

DATASET STRUCTURED_POINTS
FIELD FieldData 1
TIME 1 1 double
0.03000000
DIMENSIONS    256   256   1

ORIGIN    0.000   0.000   0.000
SPACING   0.0039062 0.0039062   1.000

POINT_DATA   65536
SCALARS uX double
LOOKUP_TABLE default

1.856389e-15 5.454048e-04 1.090739e-03 1.635904e-03 2.180856e-03 2.725466e-03 3.269716e-03 3.813446e-03 4.356658e-03 4.899165e-03 5.440986e-03 5.981903e-03 6.521951e-03 7.060881e-03 7.598743e-03 8.135255e-03 8.670479e-03 9.204100e-03 9.736188e-03 1.026640e-02 1.079481e-02 1.132104e-02 1.184517e-02 1.236679e-02 1.288599e-02 1.340232e-02 1.391586e-02 1.442614e-02 1.493324e-02 1.543666e-02 1.593646e-02 1.643213e-02 1.692371e-02 1.741066e-02 1.789302e-02 1.837022e-02 1.884228e-02 1.930862e-02 1.976924e-02 2.022354e-02 2.067149e-02 2.111249e-02 2.154648e-02 2.197286e-02 2.239152e-02 2.280188e-02 2.320379e-02 2.359667e-02 2.398034e-02 2.435422e-02 2.471811e-02 2.507143e-02 2.541394e-02 2.574507e-02 2.606457e-02 2.637188e-02 2.666671e-02 2.694851e-02 2.721697e-02 2.747158e-02 2.771199e-02 2.793771e-02 2.814837e-02 2.834352e-02 2.852275e-02 2.868566e-02 2.883184e-02 2.896089e-02 2.907239e-02 2.916602e-02 2.924132e-02 2.929801e-02 2.933565e-02 2.935400e-02 2.935261e-02 2.933130e-02 2.928963e-02 2.922747e-02 2.914439e-02 2.904032e-02 2.891485e-02 2.876796e-02 2.859928e-02 2.840884e-02 2.819630e-02 2.796176e-02 2.770490e-02 2.742590e-02 2.712447e-02 2.680087e-02 2.645484e-02 2.608670e-02 2.569626e-02 2.528391e-02 2.484948e-02 2.439345e-02 2.391572e-02 2.341680e-02 2.289668e-02 2.235593e-02 2.179458e-02 2.121329e-02 2.061214e-02 1.999184e-02 1.935257e-02 1.869507e-02 1.801958e-02 1.732690e-02 1.661735e-02 1.589176e-02 1.515053e-02 1.439453e-02 1.362421e-02 1.284048e-02 1.204388e-02 1.123532e-02 1.041541e-02 9.585085e-03 8.745010e-03 7.896144e-03 7.039200e-03 6.175145e-03 5.304744e-03 4.428964e-03 3.548618e-03 2.664664e-03 1.777956e-03 8.894382e-04 1.109703e-15 -8.894382e-04 -1.777956e-03 -2.664664e-03 -3.548618e-03 -4.428964e-03 -5.304744e-03 -6.175145e-03 -7.039200e-03 -7.896144e-03 -8.745010e-03 -9.585085e-03 -1.041541e-02 -1.123532e-02 -1.204388e-02 -1.284048e-02 -1.362421e-02 -1.439453e-02 -1.515053e-02 -1.589176e-02 -1.661735e-02 -1.732690e-02 -1.801958e-02 -1.869507e-02 -1.935257e-02 -1.999184e-02 -2.061214e-02 -2.121329e-02 -2.179458e-02 -2.235593e-02 -2.289668e-02 -2.341680e-02 -2.391572e-02 -2.439345e-02 -2.484948e-02 -2.528391e-02 -2.569626e-02 -2.608670e-02 -2.645484e-02 -2.680087e-02 -2.712447e-02 -2.742590e-02 -2.770490e-02 -2.796176e-02 -2.819630e-02 -2.840884e-02 -2.859928e-02 -2.876796e-02 -2.891485e-02 -2.904032e-02 -2.914439e-02 -2.922747e-02 -2.928963e-02 -2.933130e-02 -2.935261e-02 -2.935400e-02 -2.933565e-02 -2.929801e-02 -2.924132e-02 -2.916602e-02 -2.907239e-02 -2.896089e-02 -2.883184e-02 -2.868566e-02 -2.852275e-02 -2.834352e-02 -2.814837e-02 -2.793771e-02 -2.771199e-02 -2.747158e-02 -2.721697e-02 -2.694851e-02 -2.666671e-02 -2.637188e-02 -2.606457e-02 -2.574507e-02 -2.541394e-02 -2.507143e-02 -2.471811e-02 -2.435422e-02 -2.398034e-02 -2.359667e-02 -2.320379e-02 -2.280188e-02 -2.239152e-02 -2.197286e-02 -2.154648e-02 -2.111249e-02 -2.067149e-02 -2.022354e-02 -1.976924e-02 -1.930862e-02 -1.884228e-02 -1.837022e-02 -1.789302e-02 -1.741066e-02 -1.692371e-02 -1.643213e-02 -1.593646e-02 -1.543666e-02 -1.493324e-02 -1.442614e-02 -1.391586e-02 -1.340232e-02 -1.288599e-02 -1.236679e-02 -1.184517e-02 -1.132104e-02 -1.079481e-02 -1.026640e-02 -9.736188e-03 -9.204100e-03 -8.670479e-03 -8.135255e-03 -7.598743e-03 -7.060881e-03 -6.521951e-03 -5.981903e-03 -5.440986e-03 -4.899165e-03 -4.356658e-03 -3.813446e-03 -3.269716e-03 -2.725466e-03 -2.180856e-03 -1.635904e-03 -1.090739e-03 -5.454048e-04 
1.778862e-15 4.614347e-04 9.228280e-04 1.384107e-03 1.845261e-03 2.306184e-03 2.766892e-03 3.227248e-03 3.687292e-03 4.146853e-03 4.605996e-03 5.064514e-03 5.522494e-03 5.979693e-03 6.436218e-03 6.891792e-03 7.346535e-03 7.800136e-03 8.252730e-03 8.703970e-03 9.154002e-03 9.602446e-03 1.004945e-02 1.049461e-02 1.093808e-02 1.137941e-02 1.181876e-02 1.225566e-02 1.269025e-02 1.312205e-02 1.355119e-02 1.397715e-02 1.440007e-02 1.481939e-02 1.523525e-02 1.564706e-02 1.605494e-02 1.645831e-02 1.685723e-02 1.725113e-02 1.764005e-02 1.802339e-02 1.840119e-02 1.877283e-02 1.913831e-02 1.949701e-02 1.984893e-02 2.019342e-02 2.053045e-02 2.085938e-02 2.118015e-02 2.149212e-02 2.179521e-02 2.208879e-02 2.237272e-02 2.264642e-02 2.290970e-02 2.316199e-02 2.340310e-02 2.363246e-02 2.384984e-02 2.405471e-02 2.424683e-02 2.442567e-02 2.459097e-02 2.474225e-02 2.487923e-02 2.500144e-02 2.510860e-02 2.520029e-02 2.527619e-02 2.533595e-02 2.537923e-02 2.540572e-02 2.541508e-02 2.540706e-02 2.538131e-02 2.533764e-02 2.527570e-02 2.519534e-02 2.509625e-02 2.497833e-02 2.484127e-02 2.468504e-02 2.450936e-02 2.431426e-02 2.409947e-02 2.386508e-02 2.361088e-02 2.333702e-02 2.304330e-02 2.272995e-02 2.239681e-02 2.204418e-02 2.167194e-02 2.128045e-02 2.086965e-02 2.043995e-02 1.999136e-02 1.952433e-02 1.903893e-02 1.853569e-02 1.801471e-02 1.747659e-02 1.692149e-02 1.635006e-02 1.576252e-02 1.515957e-02 1.454150e-02 1.390903e-02 1.326253e-02 1.260275e-02 1.193013e-02 1.124546e-02 1.054922e-02 9.842234e-03 9.125039e-03 8.398480e-03 7.663151e-03 6.919909e-03 6.169400e-03 5.412489e-03 4.649868e-03 3.882403e-03 3.110827e-03 2.336002e-03 1.558698e-03 7.797632e-04 1.233383e-15 -7.797632e-04 -1.558698e-03 -2.336002e-03 -3.110827e-03 -3.882403e-03 -4.649868e-03 -5.412489e-03 -6.169400e-03 -6.919909e-03 -7.663151e-03 -8.398480e-03 -9.125039e-03 -9.842234e-03 -1.054922e-02 -1.124546e-02 -1.193013e-02 -1.260275e-02 -1.326253e-02 -1.390903e-02 -1.454150e-02 -1.515957e-02 -1.576252e-02 -1.635006e-02 -1.692149e-02 -1.747659e-02 -1.801471e-02 -1.853569e-02 -1.903893e-02 -1.952433e-02 -1.999136e-02 -2.043995e-02 -2.086965e-02 -2.128045e-02 -2.167194e-02 -2.204418e-02 -2.239681e-02 -2.272995e-02 -2.304330e-02 -2.333702e-02 -2.361088e-02 -2.386508e-02 -2.409947e-02 -2.431426e-02 -2.450936e-02 -2.468504e-02 -2.484127e-02 -2.497833e-02 -2.509625e-02 -2.519534e-02 -2.527570e-02 -2.533764e-02 -2.538131e-02 -2.540706e-02 -2.541508e-02 -2.540572e-02 -2.537923e-02 -2.533595e-02 -2.527619e-02 -2.520029e-02 -2.510860e-02 -2.500144e-02 -2.487923e-02 -2.474225e-02 -2.459097e-02 -2.442567e-02 -2.424683e-02 -2.405471e-02 -2.384984e-02 -2.363246e-02 -2.340310e-02 -2.316199e-02 -2.290970e-02 -2.264642e-02 -2.237272e-02 -2.208879e-02 -2.179521e-02 -2.149212e-02 -2.118015e-02 -2.085938e-02 -2.053045e-02 -2.019342e-02 -1.984893e-02 -1.949701e-02 -1.913831e-02 -1.877283e-02 -1.840119e-02 -1.802339e-02 -1.764005e-02 -1.725113e-02 -1.685723e-02 -1.645831e-02 -1.605494e-02 -1.564706e-02 -1.523525e-02 -1.481939e-02 -1.440007e-02 -1.397715e-02 -1.355119e-02 -1.312205e-02 -1.269025e-02 -1.225566e-02 -1.181876e-02 -1.137941e-02 -1.093808e-02 -1.049461e-02 -1.004945e-02 -9.602446e-03 -9.154002e-03 -8.703970e-03 -8.252730e-03 -7.800136e-03 -7.346535e-03 -6.891792e-03 -6.436218e-03 -5.979693e-03 -5.522494e-03 -5.064514e-03 -4.605996e-03 -4.146853e-03 -3.687292e-03 -3.227248e-03 -2.766892e-03 -2.306184e-03 -1.845261e-03 -1.384107e-03 -9.228280e-04 -4.614347e-04 
1.954685e-15 3.774915e-04 7.549707e-04 1.132393e-03 1.509776e-03 1.887043e-03 2.264241e-03 2.641258e-03 3.018169e-03 3.394826e-03 3.771332e-03 4.147500e-03 4.523459e-03 4.898986e-03 5.274230e-03 5.648933e-03 6.023261e-03 6.396922e-03 6.770097e-03 7.142459e-03 7.514202e-03 7.884964e-03 8.254951e-03 8.623765e-03 8.991619e-03 9.358085e-03 9.723377e-03 1.008704e-02 1.044928e-02 1.080962e-02 1.116827e-02 1.152471e-02 1.187914e-02 1.223104e-02 1.258060e-02 1.292724e-02 1.327116e-02 1.361178e-02 1.394926e-02 1.428301e-02 1.461316e-02 1.493911e-02 1.526099e-02 1.557818e-02 1.589076e-02 1.619813e-02 1.650034e-02 1.679677e-02 1.708746e-02 1.737179e-02 1.764976e-02 1.792075e-02 1.818475e-02 1.844113e-02 1.868985e-02 1.893030e-02 1.916240e-02 1.938556e-02 1.959967e-02 1.980415e-02 1.999887e-02 2.018327e-02 2.035720e-02 2.052012e-02 2.067184e-02 2.081186e-02 2.093998e-02 2.105573e-02 2.115887e-02 2.124897e-02 2.132579e-02 2.138895e-02 2.143817e-02 2.147312e-02 2.149351e-02 2.149907e-02 2.148950e-02 2.146457e-02 2.142399e-02 2.136758e-02 2.129506e-02 2.120629e-02 2.110101e-02 2.097915e-02 2.084044e-02 2.068488e-02 2.051223e-02 2.032253e-02 2.011558e-02 1.989148e-02 1.965004e-02 1.939144e-02 1.911553e-02 1.882254e-02 1.851236e-02 1.818528e-02 1.784123e-02 1.748056e-02 1.710325e-02 1.670971e-02 1.629996e-02 1.587447e-02 1.543332e-02 1.497702e-02 1.450570e-02 1.401993e-02 1.351990e-02 1.300622e-02 1.247912e-02 1.193926e-02 1.138695e-02 1.082286e-02 1.024735e-02 9.661139e-03 9.064639e-03 8.458586e-03 7.843450e-03 7.219984e-03 6.588710e-03 5.950394e-03 5.305604e-03 4.655114e-03 3.999535e-03 3.339642e-03 2.676084e-03 2.009632e-03 1.340970e-03 6.708542e-04 1.144327e-15 -6.708542e-04 -1.340970e-03 -2.009632e-03 -2.676084e-03 -3.339642e-03 -3.999535e-03 -4.655114e-03 -5.305604e-03 -5.950394e-03 -6.588710e-03 -7.219984e-03 -7.843450e-03 -8.458586e-03 -9.064639e-03 -9.661139e-03 -1.024735e-02 -1.082286e-02 -1.138695e-02 -1.193926e-02 -1.247912e-02 -1.300622e-02 -1.351990e-02 -1.401993e-02 -1.450570e-02 -1.497702e-02 -1.543332e-02 -1.587447e-02 -1.629996e-02 -1.670971e-02 -1.710325e-02 -1.748056e-02 -1.784123e-02 -1.818528e-02 -1.851236e-02 -1.882254e-02 -1.911553e-02 -1.939144e-02 -1.965004e-02 -1.989148e-02 -2.011558e-02 -2.032253e-02 -2.051223e-02 -2.068488e-02 -2.084044e-02 -2.097915e-02 -2.110101e-02 -2.120629e-02 -2.129506e-02 -2.136758e-02 -2.142399e-02 -2.146457e-02 -2.148950e-02 -2.149907e-02 -2.149351e-02 -2.147312e-02 -2.143817e-02 -2.138895e-02 -2.132579e-02 -2.124897e-02 -2.115887e-02 -2.105573e-02 -2.093998e-02 -2.081186e-02 -2.067184e-02 -2.052012e-02 -2.035720e-02 -2.018327e-02 -1.999887e-02 -1.980415e-02 -1.959967e-02 -1.938556e-02 -1.916240e-02 -1.893030e-02 -1.868985e-02 -1.844113e-02 -1.818475e-02 -1.792075e-02 -1.764976e-02 -1.737179e-02 -1.708746e-02 -1.679677e-02 -1.650034e-02 -1.619813e-02 -1.589076e-02 -1.557818e-02 -1.526099e-02 -1.493911e-02 -1.461316e-02 -1.428301e-02 -1.394926e-02 -1.361178e-02 -1.327116e-02 -1.292724e-02 -1.258060e-02 -1.223104e-02 -1.187914e-02 -1.152471e-02 -1.116827e-02 -1.080962e-02 -1.044928e-02 -1.008704e-02 -9.723377e-03 -9.358085e-03 -8.991619e-03 -8.623765e-03 -8.254951e-03 -7.884964e-03 -7.514202e-03 -7.142459e-03 -6.770097e-03 -6.396922e-03 -6.023261e-03 -5.648933e-03 -5.274230e-03 -4.898986e-03 -4.523459e-03 -4.147500e-03 -3.771332e-03 -3.394826e-03 -3.018169e-03 -2.641258e-03 -2.264241e-03 -1.887043e-03 -1.509776e-03 -1.132393e-03 -7.549707e-04 -3.774915e-04 
1.935845e-15 2.935912e-04 5.872001e-04 8.808079e-04 1.174468e-03 1.468123e-03 1.761861e-03 2.055587e-03 2.349419e-03 2.643225e-03 2.937153e-03 3.231031e-03 3.525036e-03 3.818956e-03 4.112994e-03 4.406899e-03 4.700899e-03 4.994701e-03 5.288554e-03 5.582129e-03 5.875693e-03 6.168877e-03 6.461964e-03 6.754549e-03 7.046926e-03 7.338657e-03 7.630042e-03 7.920609e-03 8.210665e-03 8.499706e-03 8.788039e-03 9.075133e-03 9.361290e-03 9.645953e-03 9.929420e-03 1.021111e-02 1.049130e-02 1.076940e-02 1.104568e-02 1.131951e-02 1.159116e-02 1.185999e-02 1.212623e-02 1.238924e-02 1.264923e-02 1.290553e-02 1.315836e-02 1.340703e-02 1.365172e-02 1.389175e-02 1.412727e-02 1.435761e-02 1.458287e-02 1.480239e-02 1.501626e-02 1.522381e-02 1.542510e-02 1.561948e-02 1.580696e-02 1.598693e-02 1.615937e-02 1.632366e-02 1.647978e-02 1.662712e-02 1.676564e-02 1.689475e-02 1.701439e-02 1.712400e-02 1.722348e-02 1.731233e-02 1.739042e-02 1.745728e-02 1.751277e-02 1.755646e-02 1.758820e-02 1.760760e-02 1.761449e-02 1.760854e-02 1.758958e-02 1.755732e-02 1.751158e-02 1.745215e-02 1.737883e-02 1.729147e-02 1.718988e-02 1.707396e-02 1.694354e-02 1.679858e-02 1.663892e-02 1.646458e-02 1.627542e-02 1.607153e-02 1.585280e-02 1.561935e-02 1.537112e-02 1.510829e-02 1.483082e-02 1.453897e-02 1.423274e-02 1.391242e-02 1.357805e-02 1.323000e-02 1.286834e-02 1.249348e-02 1.210556e-02 1.170503e-02 1.129207e-02 1.086717e-02 1.043056e-02 9.982787e-03 9.524119e-03 9.055132e-03 8.576151e-03 8.087779e-03 7.590390e-03 7.084614e-03 6.570869e-03 6.049805e-03 5.521885e-03 4.987773e-03 4.447972e-03 3.903157e-03 3.353868e-03 2.800781e-03 2.244472e-03 1.685615e-03 1.124813e-03 5.627313e-04 8.261512e-16 -5.627313e-04 -1.124813e-03 -1.685615e-03 -2.244472e-03 -2.800781e-03 -3.353868e-03 -3.903157e-03 -4.447972e-03 -4.987773e-03 -5.521885e-03 -6.049805e-03 -6.570869e-03 -7.084614e-03 -7.590390e-03 -8.087779e-03 -8.576151e-03 -9.055132e-03 -9.524119e-03 -9.982787e-03 -1.043056e-02 -1.086717e-02 -1.129207e-02 -1.170503e-02 -1.210556e-02 -1.249348e-02 -1.286834e-02 -1.323000e-02 -1.357805e-02 -1.391242e-02 -1.423274e-02 -1.453897e-02 -1.483082e-02 -1.510829e-02 -1.537112e-02 -1.561935e-02 -1.585280e-02 -1.607153e-02 -1.627542e-02 -1.646458e-02 -1.663892e-02 -1.679858e-02 -1.694354e-02 -1.707396e-02 -1.718988e-02 -1.729147e-02 -1.737883e-02 -1.745215e-02 -1.751158e-02 -1.755732e-02 -1.758958e-02 -1.760854e-02 -1.761449e-02 -1.760760e-02 -1.758820e-02 -1.755646e-02 -1.751277e-02 -1.745728e-02 -1.739042e-02 -1.731233e-02 -1.722348e-02 -1.712400e-02 -1.701439e-02 -1.689475e-02 -1.676564e-02 -1.662712e-02 -1.647978e-02 -1.632366e-02 -1.615937e-02 -1.598693e-02 -1.580696e-02 -1.561948e-02 -1.542510e-02 -1.522381e-02 -1.501626e-02 -1.480239e-02 -1.458287e-02 -1.435761e-02 -1.412727e-02 -1.389175e-02 -1.365172e-02 -1.340703e-02 -1.315836e-02 -1.290553e-02 -1.264923e-02 -1.238924e-02 -1.212623e-02 -1.185999e-02 -1.159116e-02 -1.131951e-02 -1.104568e-02 -1.076940e-02 -1.049130e-02 -1.021111e-02 -9.929420e-03 -9.645953e-03 -9.361290e-03 -9.075133e-03 -8.788039e-03 -8.499706e-03 -8.210665e-03 -7.920609e-03 -7.630042e-03 -7.338657e-03 -7.046926e-03 -6.754549e-03 -6.461964e-03 -6.168877e-03 -5.875693e-03 -5.582129e-03 -5.288554e-03 -4.994701e-03 -4.700899e-03 -4.406899e-03 -4.112994e-03 -3.818956e-03 -3.525036e-03 -3.231031e-03 -2.937153e-03 -2.643225e-03 -2.349419e-03 -2.055587e-03 -1.761861e-03 -1.468123e-03 -1.174468e-03 -8.808079e-04 -5.872001e-04 -2.935912e-04 
2.334127e-15 2.096600e-04 4.193676e-04 6.291317e-04 8.390376e-04 1.049055e-03 1.259304e-03 1.469716e-03 1.680445e-03 1.891381e-03 2.102712e-03 2.314286e-03 2.526324e-03 2.738631e-03 2.951457e-03 3.164568e-03 3.378239e-03 3.592195e-03 3.806737e-03 4.021549e-03 4.236952e-03 4.452594e-03 4.668812e-03 4.885217e-03 5.102160e-03 5.319217e-03 5.536750e-03 5.754301e-03 5.972239e-03 6.190074e-03 6.408178e-03 6.626032e-03 6.844009e-03 7.061561e-03 7.279057e-03 7.495923e-03 7.712524e-03 7.928261e-03 8.143488e-03 8.357587e-03 8.570899e-03 8.782786e-03 8.993574e-03 9.202610e-03 9.410200e-03 9.615681e-03 9.819335e-03 1.002049e-02 1.021940e-02 1.041540e-02 1.060871e-02 1.079866e-02 1.098545e-02 1.116839e-02 1.134768e-02 1.152262e-02 1.169337e-02 1.185927e-02 1.202042e-02 1.217618e-02 1.232662e-02 1.247112e-02 1.260972e-02 1.274182e-02 1.286742e-02 1.298595e-02 1.309738e-02 1.320118e-02 1.329729e-02 1.338520e-02 1.346483e-02 1.353570e-02 1.359772e-02 1.365045e-02 1.369377e-02 1.372728e-02 1.375086e-02 1.376415e-02 1.376701e-02 1.375914e-02 1.374038e-02 1.371047e-02 1.366927e-02 1.361658e-02 1.355223e-02 1.347609e-02 1.338800e-02 1.328788e-02 1.317557e-02 1.305106e-02 1.291421e-02 1.276505e-02 1.260347e-02 1.242954e-02 1.224320e-02 1.204456e-02 1.183358e-02 1.161044e-02 1.137513e-02 1.112787e-02 1.086869e-02 1.059787e-02 1.031547e-02 1.002182e-02 9.717016e-03 9.401434e-03 9.075211e-03 8.738769e-03 8.392287e-03 8.036221e-03 7.670796e-03 7.296503e-03 6.913607e-03 6.522630e-03 6.123879e-03 5.717900e-03 5.305043e-03 4.885871e-03 4.460776e-03 4.030333e-03 3.594971e-03 3.155275e-03 2.711708e-03 2.264856e-03 1.815215e-03 1.363369e-03 9.098384e-04 4.552006e-04 4.539959e-16 -4.552006e-04 -9.098384e-04 -1.363369e-03 -1.815215e-03 -2.264856e-03 -2.711708e-03 -3.155275e-03 -3.594971e-03 -4.030333e-03 -4.460776e-03 -4.885871e-03 -5.305043e-03 -5.717900e-03 -6.123879e-03 -6.522630e-03 -6.913607e-03 -7.296503e-03 -7.670796e-03 -8.036221e-03 -8.392287e-03 -8.738769e-03 -9.075211e-03 -9.401434e-03 -9.717016e-03 -1.002182e-02 -1.031547e-02 -1.059787e-02 -1.086869e-02 -1.112787e-02 -1.137513e-02 -1.161044e-02 -1.183358e-02 -1.204456e-02 -1.224320e-02 -1.242954e-02 -1.260347e-02 -1.276505e-02 -1.291421e-02 -1.305106e-02 -1.317557e-02 -1.328788e-02 -1.338800e-02 -1.347609e-02 -1.355223e-02 -1.361658e-02 -1.366927e-02 -1.371047e-02 -1.374038e-02 -1.375914e-02 -1.376701e-02 -1.376415e-02 -1.375086e-02 -1.372728e-02 -1.369377e-02 -1.365045e-02 -1.359772e-02 -1.353570e-02 -1.346483e-02 -1.338520e-02 -1.329729e-02 -1.320118e-02 -1.309738e-02 -1.298595e-02 -1.286742e-02 -1.274182e-02 -1.260972e-02 -1.247112e-02 -1.232662e-02 -1.217618e-02 -1.202042e-02 -1.185927e-02 -1.169337e-02 -1.152262e-02 -1.134768e-02 -1.116839e-02 -1.098545e-02 -1.079866e-02 -1.060871e-02 -1.041540e-02 -1.021940e-02 -1.002049e-02 -9.819335e-03 -9.615681e-03 -9.410200e-03 -9.202610e-03 -8.993574e-03 -8.782786e-03 -8.570899e-03 -8.357587e-03 -8.143488e-03 -7.928261e-03 -7.712524e-03 -7.495923e-03 -7.279057e-03 -7.061561e-03 -6.844009e-03 -6.626032e-03 -6.408178e-03 -6.190074e-03 -5.972239e-03 -5.754301e-03 -5.536750e-03 -5.319217e-03 -5.102160e-03 -4.885217e-03 -4.668812e-03 -4.452594e-03 -4.236952e-03 -4.021549e-03 -3.806737e-03 -3.592195e-03 -3.378239e-03 -3.164568e-03 -2.951457e-03 -2.738631e-03 -2.526324e-03 -2.314286e-03 -2.102712e-03 -1.891381e-03 -1.680445e-03 -1.469716e-03 -1.259304e-03 -1.049055e-03 -8.390376e-04 -6.291317e-04 -4.193676e-04 -2.096600e-04 
2.266675e-15 1.257133e-04 2.515048e-04 3.774101e-04 5.035492e-04 6.299141e-04 7.566653e-04 8.837510e-04 1.011371e-03 1.139429e-03 1.268161e-03 1.397429e-03 1.527503e-03 1.658200e-03 1.789824e-03 1.922149e-03 2.055511e-03 2.189638e-03 2.324895e-03 2.460969e-03 2.598250e-03 2.736384e-03 2.875782e-03 3.016050e-03 3.157621e-03 3.300060e-03 3.443815e-03 3.588417e-03 3.734325e-03 3.881033e-03 4.029011e-03 4.177720e-03 4.327633e-03 4.478181e-03 4.629839e-03 4.782009e-03 4.935163e-03 5.088677e-03 5.243017e-03 5.397536e-03 5.552690e-03 5.707810e-03 5.863340e-03 6.018594e-03 6.173999e-03 6.328853e-03 6.483564e-03 6.637419e-03 6.790803e-03 6.942996e-03 7.094358e-03 7.244162e-03 7.392741e-03 7.539371e-03 7.684351e-03 7.826962e-03 7.967472e-03 8.105167e-03 8.240284e-03 8.372121e-03 8.500880e-03 8.625874e-03 8.747272e-03 8.864405e-03 8.977411e-03 9.085641e-03 9.189200e-03 9.287468e-03 9.380518e-03 9.467759e-03 9.549235e-03 9.624389e-03 9.693238e-03 9.755261e-03 9.810450e-03 9.858327e-03 9.898860e-03 9.931614e-03 9.956540e-03 9.973248e-03 9.981677e-03 9.981482e-03 9.972593e-03 9.954717e-03 9.927775e-03 9.891526e-03 9.845892e-03 9.790684e-03 9.725826e-03 9.651183e-03 9.566686e-03 9.472257e-03 9.367835e-03 9.253397e-03 9.128900e-03 8.994373e-03 8.849793e-03 8.695242e-03 8.530720e-03 8.356361e-03 8.172191e-03 7.978394e-03 7.775026e-03 7.562317e-03 7.340355e-03 7.109416e-03 6.869620e-03 6.621285e-03 6.364567e-03 6.099821e-03 5.827238e-03 5.547208e-03 5.259959e-03 4.965908e-03 4.665320e-03 4.358638e-03 4.046162e-03 3.728354e-03 3.405547e-03 3.078219e-03 2.746735e-03 2.411583e-03 2.073158e-03 1.731950e-03 1.388382e-03 1.042944e-03 6.960810e-04 3.482788e-04 5.398497e-16 -3.482788e-04 -6.960810e-04 -1.042944e-03 -1.388382e-03 -1.731950e-03 -2.073158e-03 -2.411583e-03 -2.746735e-03 -3.078219e-03 -3.405547e-03 -3.728354e-03 -4.046162e-03 -4.358638e-03 -4.665320e-03 -4.965908e-03 -5.259959e-03 -5.547208e-03 -5.827238e-03 -6.099821e-03 -6.364567e-03 -6.621285e-03 -6.869620e-03 -7.109416e-03 -7.340355e-03 -7.562317e-03 -7.775026e-03 -7.978394e-03 -8.172191e-03 -8.356361e-03 -8.530720e-03 -8.695242e-03 -8.849793e-03 -8.994373e-03 -9.128900e-03 -9.253397e-03 -9.367835e-03 -9.472257e-03 -9.566686e-03 -9.651183e-03 -9.725826e-03 -9.790684e-03 -9.845892e-03 -9.891526e-03 -9.927775e-03 -9.954717e-03 -9.972593e-03 -9.981482e-03 -9.981677e-03 -9.973248e-03 -9.956540e-03 -9.931614e-03 -9.898860e-03 -9.858327e-03 -9.810450e-03 -9.755261e-03 -9.693238e-03 -9.624389e-03 -9.549235e-03 -9.467759e-03 -9.380518e-03 -9.287468e-03 -9.189200e-03 -9.085641e-03 -8.977411e-03 -8.864405e-03 -8.747272e-03 -8.625874e-03 -8.500880e-03 -8.372121e-03 -8.240284e-03 -8.105167e-03 -7.967472e-03 -7.826962e-03 -7.684351e-03 -7.539371e-03 -7.392741e-03 -7.244162e-03 -7.094358e-03 -6.942996e-03 -6.790803e-03 -6.637419e-03 -6.483564e-03 -6.328853e-03 -6.173999e-03 -6.018594e-03 -5.863340e-03 -5.707810e-03 -5.552690e-03 -5.397536e-03 -5.243017e-03 -5.088677e-03 -4.935163e-03 -4.782009e-03 -4.629839e-03 -4.478181e-03 -4.327633e-03 -4.177720e-03 -4.029011e-03 -3.881033e-03 -3.734325e-03 -3.588417e-03 -3.443815e-03 -3.300060e-03 -3.157621e-03 -3.016050e-03 -2.875782e-03 -2.736384e-03 -2.598250e-03 -2.460969e-03 -2.324895e-03 -2.189638e-03 -2.055511e-03 -1.922149e-03 -1.789824e-03 -1.658200e-03 -1.527503e-03 -1.397429e-03 -1.268161e-03 -1.139429e-03 -1.011371e-03 -8.837510e-04 -7.566653e-04 -6.299141e-04 -5.035492e-04 -3.774101e-04 -2.515048e-04 -1.257133e-04 
2.155262e-15 4.167666e-05 8.346194e-05 1.254196e-04 1.677023e-04 2.103284e-04 2.534934e-04 2.971698e-04 3.415948e-04 3.866949e-04 4.327474e-04 4.796328e-04 5.276665e-04 5.766837e-04 6.270358e-04 6.785128e-04 7.315000e-04 7.857430e-04 8.416584e-04 8.989483e-04 9.580576e-04 1.018646e-03 1.081184e-03 1.145291e-03 1.211458e-03 1.279266e-03 1.349225e-03 1.420876e-03 1.494747e-03 1.570341e-03 1.648199e-03 1.727788e-03 1.809657e-03 1.893244e-03 1.979098e-03 2.066628e-03 2.156385e-03 2.247749e-03 2.341267e-03 2.436295e-03 2.533372e-03 2.631832e-03 2.732202e-03 2.833798e-03 2.937130e-03 3.041498e-03 3.147396e-03 3.254110e-03 3.362109e-03 3.470672e-03 3.580244e-03 3.690097e-03 3.800646e-03 3.911163e-03 4.022032e-03 4.132526e-03 4.242997e-03 4.352723e-03 4.462021e-03 4.570179e-03 4.677479e-03 4.783219e-03 4.887648e-03 4.990081e-03 5.090728e-03 5.188925e-03 5.284847e-03 5.377855e-03 5.468088e-03 5.554933e-03 5.638497e-03 5.718199e-03 5.794112e-03 5.865690e-03 5.932978e-03 5.995466e-03 6.053173e-03 6.105629e-03 6.152830e-03 6.194348e-03 6.230158e-03 6.259881e-03 6.283473e-03 6.300602e-03 6.311214e-03 6.315024e-03 6.311970e-03 6.301818e-03 6.284503e-03 6.259840e-03 6.227766e-03 6.188148e-03 6.140926e-03 6.086020e-03 6.023379e-03 5.952974e-03 5.874766e-03 5.788778e-03 5.694987e-03 5.593463e-03 5.484206e-03 5.367332e-03 5.242864e-03 5.110963e-03 4.971677e-03 4.825210e-03 4.671639e-03 4.511205e-03 4.344016e-03 4.170349e-03 3.990341e-03 3.804302e-03 3.612402e-03 3.414976e-03 3.212227e-03 3.004513e-03 2.792068e-03 2.575269e-03 2.354380e-03 2.129792e-03 1.901798e-03 1.670797e-03 1.437110e-03 1.201140e-03 9.632301e-04 7.237856e-04 4.831686e-04 2.417804e-04 9.220409e-16 -2.417804e-04 -4.831686e-04 -7.237856e-04 -9.632301e-04 -1.201140e-03 -1.437110e-03 -1.670797e-03 -1.901798e-03 -2.129792e-03 -2.354380e-03 -2.575269e-03 -2.792068e-03 -3.004513e-03 -3.212227e-03 -3.414976e-03 -3.612402e-03 -3.804302e-03 -3.990341e-03 -4.170349e-03 -4.344016e-03 -4.511205e-03 -4.671639e-03 -4.825210e-03 -4.971677e-03 -5.110963e-03 -5.242864e-03 -5.367332e-03 -5.484206e-03 -5.593463e-03 -5.694987e-03 -5.788778e-03 -5.874766e-03 -5.952974e-03 -6.023379e-03 -6.086020e-03 -6.140926e-03 -6.188148e-03 -6.227766e-03 -6.259840e-03 -6.284503e-03 -6.301818e-03 -6.311970e-03 -6.315024e-03 -6.311214e-03 -6.300602e-03 -6.283473e-03 -6.259881e-03 -6.230158e-03 -6.194348e-03 -6.152830e-03 -6.105629e-03 -6.053173e-03 -5.995466e-03 -5.932978e-03 -5.865690e-03 -5.794112e-03 -5.718199e-03 -5.638497e-03 -5.554933e-03 -5.468088e-03 -5.377855e-03 -5.284847e-03 -5.188925e-03 -5.090728e-03 -4.990081e-03 -4.887648e-03 -4.783219e-03 -4.677479e-03 -4.570179e-03 -4.462021e-03 -4.352723e-03 -4.242997e-03 -4.132526e-03 -4.022032e-03 -3.911163e-03 -3.800646e-03 -3.690097e-03 -3.580244e-03 -3.470672e-03 -3.362109e-03 -3.254110e-03 -3.147396e-03 -3.041498e-03 -2.937130e-03 -2.833798e-03 -2.732202e-03 -2.631832e-03 -2.533372e-03 -2.436295e-03 -2.341267e-03 -2.247749e-03 -2.156385e-03 -2.066628e-03 -1.979098e-03 -1.893244e-03 -1.809657e-03 -1.727788e-03 -1.648199e-03 -1.570341e-03 -1.494747e-03 -1.420876e-03 -1.349225e-03 -1.279266e-03 -1.211458e-03 -1.145291e-03 -1.081184e-03 -1.018646e-03 -9.580576e-04 -8.989483e-04 -8.416584e-04 -7.857430e-04 -7.315000e-04 -6.785128e-04 -6.270358e-04 -5.766837e-04 -5.276665e-04 -4.796328e-04 -4.327474e-04 -3.866949e-04 -3.415948e-04 -2.971698e-04 -2.534934e-04 -2.103284e-04 -1.677023e-04 -1.254196e-04 -8.346194e-05 -4.167666e-05 
2.422667e-15 -4.243488e-05 -8.473010e-05 -1.267948e-04 -1.684413e-04 -2.096280e-04 -2.501199e-04 -2.899251e-04 -3.287626e-04 -3.666899e-04 -4.033817e-04 -4.389447e-04 -4.730108e-04 -5.057358e-04 -5.367104e-04 -5.661391e-04 -5.935740e-04 -6.192669e-04 -6.427339e-04 -6.642735e-04 -6.833682e-04 -7.003622e-04 -7.147073e-04 -7.267921e-04 -7.360410e-04 -7.428854e-04 -7.467258e-04 -7.480346e-04 -7.461923e-04 -7.417104e-04 -7.339528e-04 -7.234685e-04 -7.096089e-04 -6.929581e-04 -6.728591e-04 -6.499288e-04 -6.235059e-04 -5.942378e-04 -5.614632e-04 -5.258570e-04 -4.867623e-04 -4.448788e-04 -3.995581e-04 -3.515219e-04 -3.001344e-04 -2.461360e-04 -1.889074e-04 -1.292048e-04 -6.642929e-05 -1.349215e-06 6.661047e-05 1.366725e-04 2.093848e-04 2.839648e-04 3.609304e-04 4.394974e-04 5.201509e-04 6.021091e-04 6.858221e-04 7.705140e-04 8.565984e-04 9.433092e-04 1.031022e-03 1.118985e-03 1.207534e-03 1.295935e-03 1.384486e-03 1.472473e-03 1.560156e-03 1.646846e-03 1.732765e-03 1.817253e-03 1.900495e-03 1.981863e-03 2.061506e-03 2.138833e-03 2.213962e-03 2.286337e-03 2.356046e-03 2.422577e-03 2.485990e-03 2.545815e-03 2.602090e-03 2.654391e-03 2.702736e-03 2.746748e-03 2.786429e-03 2.821451e-03 2.851806e-03 2.877214e-03 2.897660e-03 2.912913e-03 2.922956e-03 2.927610e-03 2.926856e-03 2.920566e-03 2.908728e-03 2.891259e-03 2.868159e-03 2.839392e-03 2.804970e-03 2.764904e-03 2.719220e-03 2.667975e-03 2.611211e-03 2.549029e-03 2.481491e-03 2.408736e-03 2.330848e-03 2.248003e-03 2.160308e-03 2.067972e-03 1.971126e-03 1.870006e-03 1.764770e-03 1.655678e-03 1.542912e-03 1.426752e-03 1.307405e-03 1.185166e-03 1.060265e-03 9.330080e-04 8.036460e-04 6.724919e-04 5.398158e-04 4.059329e-04 2.711293e-04 1.357188e-04 1.025223e-15 -1.357188e-04 -2.711293e-04 -4.059329e-04 -5.398158e-04 -6.724919e-04 -8.036460e-04 -9.330080e-04 -1.060265e-03 -1.185166e-03 -1.307405e-03 -1.426752e-03 -1.542912e-03 -1.655678e-03 -1.764770e-03 -1.870006e-03 -1.971126e-03 -2.067972e-03 -2.160308e-03 -2.248003e-03 -2.330848e-03 -2.408736e-03 -2.481491e-03 -2.549029e-03 -2.611211e-03 -2.667975e-03 -2.719220e-03 -2.764904e-03 -2.804970e-03 -2.839392e-03 -2.868159e-03 -2.891259e-03 -2.908728e-03 -2.920566e-03 -2.926856e-03 -2.927610e-03 -2.922956e-03 -2.912913e-03 -2.897660e-03 -2.877214e-03 -2.851806e-03 -2.821451e-03 -2.786429e-03 -2.746748e-03 -2.702736e-03 -2.654391e-03 -2.602090e-03 -2.545815e-03 -2.485990e-03 -2.422577e-03 -2.356046e-03 -2.286337e-03 -2.213962e-03 -2.138833e-03 -2.061506e-03 -1.981863e-03 -1.900495e-03 -1.817253e-03 -1.732765e-03 -1.646846e-03 -1.560156e-03 -1.472473e-03 -1.384486e-03 -1.295935e-03 -1.207534e-03 -1.118985e-03 -1.031022e-03 -9.433092e-04 -8.565984e-04 -7.705140e-04 -6.858221e-04 -6.021091e-04 -5.201509e-04 -4.394974e-04 -3.609304e-04 -2.839648e-04 -2.093848e-04 -1.366725e-04 -6.661047e-05 1.349215e-06 6.642929e-05 1.292048e-04 1.889074e-04 2.461360e-04 3.001344e-04 3.515219e-04 3.995581e-04 4.448788e-04 4.867623e-04 5.258570e-04 5.614632e-04 5.942378e-04 6.235059e-04 6.499288e-04 6.728591e-04 6.929581e-04 7.096089e-04 7.234685e-04 7.339528e-04 7.417104e-04 7.461923e-04 7.480346e-04 7.467258e-04 7.428854e-04 7.360410e-04 7.267921e-04 7.147073e-04 7.003622e-04 6.833682e-04 6.642735e-04 6.427339e-04 6.192669e-04 5.935740e-04 5.661391e-04 5.367104e-04 5.057358e-04 4.730108e-04 4.389447e-04 4.033817e-04 3.666899e-04 3.287626e-04 2.899251e-04 2.501199e-04 2.096280e-04 1.684413e-04 1.267948e-04 8.473010e-05 4.243488e-05 