# vtk DataFile Version 2.0
Comment goes here
ASCII

DATASET STRUCTURED_POINTS
FIELD FieldData 1
TIME 1 1 double
0.09000000
DIMENSIONS    256   256   1

ORIGIN    0.000   0.000   0.000
SPACING   0.0039062 0.0039062   1.000

POINT_DATA   65536
SCALARS uX double
LOOKUP_TABLE default

7.785967e-15 -2.461888e-04 -4.922971e-04 -7.382836e-04 -9.840285e-04 -1.229528e-03 -1.474624e-03 -1.719350e-03 -1.963507e-03 -2.207164e-03 -2.450085e-03 -2.692373e-03 -2.933755e-03 -3.174363e-03 -3.413889e-03 -3.652497e-03 -3.889842e-03 -4.126114e-03 -4.360938e-03 -4.594527e-03 -4.826476e-03 -5.057018e-03 -5.285722e-03 -5.512838e-03 -5.737911e-03 -5.961203e-03 -6.182241e-03 -6.401297e-03 -6.617879e-03 -6.832266e-03 -7.043952e-03 -7.253220e-03 -7.459555e-03 -7.663235e-03 -7.863744e-03 -8.061354e-03 -8.255546e-03 -8.446584e-03 -8.633953e-03 -8.817904e-03 -8.997930e-03 -9.174265e-03 -9.346414e-03 -9.514593e-03 -9.678323e-03 -9.837795e-03 -9.992553e-03 -1.014276e-02 -1.028799e-02 -1.042838e-02 -1.056352e-02 -1.069352e-02 -1.081801e-02 -1.093706e-02 -1.105035e-02 -1.115791e-02 -1.125944e-02 -1.135495e-02 -1.144420e-02 -1.152714e-02 -1.160356e-02 -1.167342e-02 -1.173653e-02 -1.179281e-02 -1.184213e-02 -1.188436e-02 -1.191943e-02 -1.194718e-02 -1.196760e-02 -1.198047e-02 -1.198584e-02 -1.198347e-02 -1.197346e-02 -1.195553e-02 -1.192984e-02 -1.189608e-02 -1.185446e-02 -1.180466e-02 -1.174692e-02 -1.168091e-02 -1.160691e-02 -1.152458e-02 -1.143424e-02 -1.133555e-02 -1.122886e-02 -1.111382e-02 -1.099083e-02 -1.085953e-02 -1.072036e-02 -1.057295e-02 -1.041778e-02 -1.025448e-02 -1.008357e-02 -9.904677e-03 -9.718340e-03 -9.524216e-03 -9.322855e-03 -9.113932e-03 -8.898013e-03 -8.674794e-03 -8.444851e-03 -8.207907e-03 -7.964545e-03 -7.714515e-03 -7.458403e-03 -7.195990e-03 -6.927862e-03 -6.653832e-03 -6.374481e-03 -6.089659e-03 -5.799937e-03 -5.505203e-03 -5.206015e-03 -4.902301e-03 -4.594601e-03 -4.282886e-03 -3.967673e-03 -3.648977e-03 -3.327290e-03 -3.002671e-03 -2.675583e-03 -2.346130e-03 -2.014744e-03 -1.681572e-03 -1.347011e-03 -1.011255e-03 -6.746627e-04 -3.374709e-04 -7.290562e-15 3.374709e-04 6.746627e-04 1.011255e-03 1.347011e-03 1.681572e-03 2.014744e-03 2.346130e-03 2.675583e-03 3.002671e-03 3.327290e-03 3.648977e-03 3.967673e-03 4.282886e-03 4.594601e-03 4.902301e-03 5.206015e-03 5.505203e-03 5.799937e-03 6.089659e-03 6.374481e-03 6.653832e-03 6.927862e-03 7.195990e-03 7.458403e-03 7.714515e-03 7.964545e-03 8.207907e-03 8.444851e-03 8.674794e-03 8.898013e-03 9.113932e-03 9.322855e-03 9.524216e-03 9.718340e-03 9.904677e-03 1.008357e-02 1.025448e-02 1.041778e-02 1.057295e-02 1.072036e-02 1.085953e-02 1.099083e-02 1.111382e-02 1.122886e-02 1.133555e-02 1.143424e-02 1.152458e-02 1.160691e-02 1.168091e-02 1.174692e-02 1.180466e-02 1.185446e-02 1.189608e-02 1.192984e-02 1.195553e-02 1.197346e-02 1.198347e-02 1.198584e-02 1.198047e-02 1.196760e-02 1.194718e-02 1.191943e-02 1.188436e-02 1.184213e-02 1.179281e-02 1.173653e-02 1.167342e-02 1.160356e-02 1.152714e-02 1.144420e-02 1.135495e-02 1.125944e-02 1.115791e-02 1.105035e-02 1.093706e-02 1.081801e-02 1.069352e-02 1.056352e-02 1.042838e-02 1.028799e-02 1.014276e-02 9.992553e-03 9.837795e-03 9.678323e-03 9.514593e-03 9.346414e-03 9.174265e-03 8.997930e-03 8.817904e-03 8.633953e-03 8.446584e-03 8.255546e-03 8.061354e-03 7.863744e-03 7.663235e-03 7.459555e-03 7.253220e-03 7.043952e-03 6.832266e-03 6.617879e-03 6.401297e-03 6.182241e-03 5.961203e-03 5.737911e-03 5.512838e-03 5.285722e-03 5.057018e-03 4.826476e-03 4.594527e-03 4.360938e-03 4.126114e-03 3.889842e-03 3.652497e-03 3.413889e-03 3.174363e-03 2.933755e-03 2.692373e-03 2.450085e-03 2.207164e-03 1.963507e-03 1.719350e-03 1.474624e-03 1.229528e-03 9.840285e-04 7.382836e-04 4.922971e-04 2.461888e-04 
8.154645e-15 -3.376266e-04 -6.751361e-04 -1.012446e-03 -1.349404e-03 -1.685962e-03 -2.021932e-03 -2.357297e-03 -2.691836e-03 -3.025563e-03 -3.358219e-03 -3.689851e-03 -4.020166e-03 -4.349236e-03 -4.676737e-03 -5.002765e-03 -5.326966e-03 -5.649457e-03 -5.969856e-03 -6.288298e-03 -6.604375e-03 -6.918240e-03 -7.229459e-03 -7.538197e-03 -7.844002e-03 -8.147045e-03 -8.446860e-03 -8.743621e-03 -9.036850e-03 -9.326722e-03 -9.612749e-03 -9.895104e-03 -1.017330e-02 -1.044749e-02 -1.071719e-02 -1.098255e-02 -1.124309e-02 -1.149895e-02 -1.174965e-02 -1.199531e-02 -1.223546e-02 -1.247020e-02 -1.269910e-02 -1.292223e-02 -1.313915e-02 -1.334993e-02 -1.355416e-02 -1.375186e-02 -1.394268e-02 -1.412659e-02 -1.430326e-02 -1.447265e-02 -1.463447e-02 -1.478864e-02 -1.493490e-02 -1.507314e-02 -1.520316e-02 -1.532481e-02 -1.543791e-02 -1.554230e-02 -1.563786e-02 -1.572437e-02 -1.580176e-02 -1.586980e-02 -1.592846e-02 -1.597747e-02 -1.601686e-02 -1.604633e-02 -1.606598e-02 -1.607546e-02 -1.607492e-02 -1.606399e-02 -1.604289e-02 -1.601121e-02 -1.596923e-02 -1.591652e-02 -1.585340e-02 -1.577944e-02 -1.569502e-02 -1.559966e-02 -1.549381e-02 -1.537699e-02 -1.524969e-02 -1.511142e-02 -1.496270e-02 -1.480306e-02 -1.463306e-02 -1.445224e-02 -1.426117e-02 -1.405941e-02 -1.384758e-02 -1.362523e-02 -1.339301e-02 -1.315049e-02 -1.289836e-02 -1.263620e-02 -1.236471e-02 -1.208351e-02 -1.179330e-02 -1.149374e-02 -1.118555e-02 -1.086841e-02 -1.054303e-02 -1.020915e-02 -9.867484e-03 -9.517791e-03 -9.160795e-03 -8.796294e-03 -8.425003e-03 -8.046766e-03 -7.662283e-03 -7.271447e-03 -6.874940e-03 -6.472703e-03 -6.065395e-03 -5.653010e-03 -5.236180e-03 -4.814949e-03 -4.389920e-03 -3.961190e-03 -3.529327e-03 -3.094480e-03 -2.657180e-03 -2.217629e-03 -1.776318e-03 -1.333499e-03 -8.896212e-04 -4.449875e-04 -7.525220e-15 4.449875e-04 8.896212e-04 1.333499e-03 1.776318e-03 2.217629e-03 2.657180e-03 3.094480e-03 3.529327e-03 3.961190e-03 4.389920e-03 4.814949e-03 5.236180e-03 5.653010e-03 6.065395e-03 6.472703e-03 6.874940e-03 7.271447e-03 7.662283e-03 8.046766e-03 8.425003e-03 8.796294e-03 9.160795e-03 9.517791e-03 9.867484e-03 1.020915e-02 1.054303e-02 1.086841e-02 1.118555e-02 1.149374e-02 1.179330e-02 1.208351e-02 1.236471e-02 1.263620e-02 1.289836e-02 1.315049e-02 1.339301e-02 1.362523e-02 1.384758e-02 1.405941e-02 1.426117e-02 1.445224e-02 1.463306e-02 1.480306e-02 1.496270e-02 1.511142e-02 1.524969e-02 1.537699e-02 1.549381e-02 1.559966e-02 1.569502e-02 1.577944e-02 1.585340e-02 1.591652e-02 1.596923e-02 1.601121e-02 1.604289e-02 1.606399e-02 1.607492e-02 1.607546e-02 1.606598e-02 1.604633e-02 1.601686e-02 1.597747e-02 1.592846e-02 1.586980e-02 1.580176e-02 1.572437e-02 1.563786e-02 1.554230e-02 1.543791e-02 1.532481e-02 1.520316e-02 1.507314e-02 1.493490e-02 1.478864e-02 1.463447e-02 1.447265e-02 1.430326e-02 1.412659e-02 1.394268e-02 1.375186e-02 1.355416e-02 1.334993e-02 1.313915e-02 1.292223e-02 1.269910e-02 1.247020e-02 1.223546e-02 1.199531e-02 1.174965e-02 1.149895e-02 1.124309e-02 1.098255e-02 1.071719e-02 1.044749e-02 1.017330e-02 9.895104e-03 9.612749e-03 9.326722e-03 9.036850e-03 8.743621e-03 8.446860e-03 8.147045e-03 7.844002e-03 7.538197e-03 7.229459e-03 6.918240e-03 6.604375e-03 6.288298e-03 5.969856e-03 5.649457e-03 5.326966e-03 5.002765e-03 4.676737e-03 4.349236e-03 4.020166e-03 3.689851e-03 3.358219e-03 3.025563e-03 2.691836e-03 2.357297e-03 2.021932e-03 1.685962e-03 1.349404e-03 1.012446e-03 6.751361e-04 3.376266e-04 
8.932393e-15 -4.291217e-04 -8.580892e-04 -1.286781e-03 -1.715009e-03 -2.142685e-03 -2.569586e-03 -2.995653e-03 -3.420633e-03 -3.844492e-03 -4.266947e-03 -4.687989e-03 -5.107302e-03 -5.524903e-03 -5.940446e-03 -6.353968e-03 -6.765095e-03 -7.173883e-03 -7.579930e-03 -7.983308e-03 -8.383593e-03 -8.780865e-03 -9.174683e-03 -9.565134e-03 -9.951758e-03 -1.033465e-02 -1.071333e-02 -1.108790e-02 -1.145787e-02 -1.182334e-02 -1.218380e-02 -1.253936e-02 -1.288951e-02 -1.323433e-02 -1.357333e-02 -1.390657e-02 -1.423357e-02 -1.455437e-02 -1.486851e-02 -1.517600e-02 -1.547639e-02 -1.576968e-02 -1.605545e-02 -1.633365e-02 -1.660389e-02 -1.686611e-02 -1.711993e-02 -1.736527e-02 -1.760178e-02 -1.782935e-02 -1.804767e-02 -1.825659e-02 -1.845585e-02 -1.864526e-02 -1.882461e-02 -1.899367e-02 -1.915229e-02 -1.930018e-02 -1.943726e-02 -1.956322e-02 -1.967800e-02 -1.978128e-02 -1.987305e-02 -1.995295e-02 -2.002104e-02 -2.007692e-02 -2.012071e-02 -2.015199e-02 -2.017094e-02 -2.017709e-02 -2.017070e-02 -2.015128e-02 -2.011914e-02 -2.007376e-02 -2.001553e-02 -1.994391e-02 -1.985932e-02 -1.976123e-02 -1.965012e-02 -1.952545e-02 -1.938774e-02 -1.923644e-02 -1.907214e-02 -1.889428e-02 -1.870350e-02 -1.849924e-02 -1.828218e-02 -1.805179e-02 -1.780877e-02 -1.755260e-02 -1.728403e-02 -1.700255e-02 -1.670894e-02 -1.640272e-02 -1.608469e-02 -1.575439e-02 -1.541266e-02 -1.505906e-02 -1.469445e-02 -1.431842e-02 -1.393184e-02 -1.353435e-02 -1.312681e-02 -1.270893e-02 -1.228154e-02 -1.184441e-02 -1.139837e-02 -1.094323e-02 -1.047981e-02 -1.000798e-02 -9.528542e-03 -9.041413e-03 -8.547386e-03 -8.046426e-03 -7.539304e-03 -7.026042e-03 -6.507381e-03 -5.983402e-03 -5.454813e-03 -4.921754e-03 -4.384892e-03 -3.844428e-03 -3.300990e-03 -2.754834e-03 -2.206543e-03 -1.656434e-03 -1.105040e-03 -5.527344e-04 -8.545697e-15 5.527344e-04 1.105040e-03 1.656434e-03 2.206543e-03 2.754834e-03 3.300990e-03 3.844428e-03 4.384892e-03 4.921754e-03 5.454813e-03 5.983402e-03 6.507381e-03 7.026042e-03 7.539304e-03 8.046426e-03 8.547386e-03 9.041413e-03 9.528542e-03 1.000798e-02 1.047981e-02 1.094323e-02 1.139837e-02 1.184441e-02 1.228154e-02 1.270893e-02 1.312681e-02 1.353435e-02 1.393184e-02 1.431842e-02 1.469445e-02 1.505906e-02 1.541266e-02 1.575439e-02 1.608469e-02 1.640272e-02 1.670894e-02 1.700255e-02 1.728403e-02 1.755260e-02 1.780877e-02 1.805179e-02 1.828218e-02 1.849924e-02 1.870350e-02 1.889428e-02 1.907214e-02 1.923644e-02 1.938774e-02 1.952545e-02 1.965012e-02 1.976123e-02 1.985932e-02 1.994391e-02 2.001553e-02 2.007376e-02 2.011914e-02 2.015128e-02 2.017070e-02 2.017709e-02 2.017094e-02 2.015199e-02 2.012071e-02 2.007692e-02 2.002104e-02 1.995295e-02 1.987305e-02 1.978128e-02 1.967800e-02 1.956322e-02 1.943726e-02 1.930018e-02 1.915229e-02 1.899367e-02 1.882461e-02 1.864526e-02 1.845585e-02 1.825659e-02 1.804767e-02 1.782935e-02 1.760178e-02 1.736527e-02 1.711993e-02 1.686611e-02 1.660389e-02 1.633365e-02 1.605545e-02 1.576968e-02 1.547639e-02 1.517600e-02 1.486851e-02 1.455437e-02 1.423357e-02 1.390657e-02 1.357333e-02 1.323433e-02 1.288951e-02 1.253936e-02 1.218380e-02 1.182334e-02 1.145787e-02 1.108790e-02 1.071333e-02 1.033465e-02 9.951758e-03 9.565134e-03 9.174683e-03 8.780865e-03 8.383593e-03 7.983308e-03 7.579930e-03 7.173883e-03 6.765095e-03 6.353968e-03 5.940446e-03 5.524903e-03 5.107302e-03 4.687989e-03 4.266947e-03 3.844492e-03 3.420633e-03 2.995653e-03 2.569586e-03 2.142685e-03 1.715009e-03 1.286781e-03 8.580892e-04 4.291217e-04 
9.742516e-15 -5.208140e-04 -1.041437e-03 -1.561708e-03 -2.081406e-03 -2.600397e-03 -3.118432e-03 -3.635401e-03 -4.151025e-03 -4.665221e-03 -5.177679e-03 -5.688338e-03 -6.196860e-03 -6.703203e-03 -7.207003e-03 -7.708234e-03 -8.206508e-03 -8.701811e-03 -9.193734e-03 -9.682271e-03 -1.016699e-02 -1.064791e-02 -1.112456e-02 -1.159696e-02 -1.206465e-02 -1.252763e-02 -1.298543e-02 -1.343805e-02 -1.388502e-02 -1.432633e-02 -1.476150e-02 -1.519051e-02 -1.561289e-02 -1.602859e-02 -1.643717e-02 -1.683855e-02 -1.723229e-02 -1.761830e-02 -1.799616e-02 -1.836575e-02 -1.872667e-02 -1.907878e-02 -1.942169e-02 -1.975525e-02 -2.007909e-02 -2.039301e-02 -2.069671e-02 -2.098995e-02 -2.127245e-02 -2.154394e-02 -2.180419e-02 -2.205290e-02 -2.228988e-02 -2.251479e-02 -2.272749e-02 -2.292761e-02 -2.311508e-02 -2.328946e-02 -2.345076e-02 -2.359851e-02 -2.373275e-02 -2.385300e-02 -2.395937e-02 -2.405132e-02 -2.412905e-02 -2.419198e-02 -2.424036e-02 -2.427360e-02 -2.429201e-02 -2.429499e-02 -2.428289e-02 -2.425509e-02 -2.421202e-02 -2.415305e-02 -2.407865e-02 -2.398818e-02 -2.388219e-02 -2.376001e-02 -2.362227e-02 -2.346828e-02 -2.329872e-02 -2.311292e-02 -2.291161e-02 -2.269411e-02 -2.246121e-02 -2.221225e-02 -2.194806e-02 -2.166798e-02 -2.137289e-02 -2.106217e-02 -2.073671e-02 -2.039593e-02 -2.004074e-02 -1.967060e-02 -1.928646e-02 -1.888778e-02 -1.847556e-02 -1.804929e-02 -1.760998e-02 -1.715718e-02 -1.669189e-02 -1.621372e-02 -1.572368e-02 -1.522142e-02 -1.470794e-02 -1.418296e-02 -1.364748e-02 -1.310126e-02 -1.254529e-02 -1.197941e-02 -1.140456e-02 -1.082066e-02 -1.022863e-02 -9.628453e-03 -9.021013e-03 -8.406357e-03 -7.785343e-03 -7.158082e-03 -6.525394e-03 -5.887455e-03 -5.245042e-03 -4.598400e-03 -3.948258e-03 -3.294927e-03 -2.639084e-03 -1.981108e-03 -1.321620e-03 -6.610621e-04 -9.697594e-15 6.610621e-04 1.321620e-03 1.981108e-03 2.639084e-03 3.294927e-03 3.948258e-03 4.598400e-03 5.245042e-03 5.887455e-03 6.525394e-03 7.158082e-03 7.785343e-03 8.406357e-03 9.021013e-03 9.628453e-03 1.022863e-02 1.082066e-02 1.140456e-02 1.197941e-02 1.254529e-02 1.310126e-02 1.364748e-02 1.418296e-02 1.470794e-02 1.522142e-02 1.572368e-02 1.621372e-02 1.669189e-02 1.715718e-02 1.760998e-02 1.804929e-02 1.847556e-02 1.888778e-02 1.928646e-02 1.967060e-02 2.004074e-02 2.039593e-02 2.073671e-02 2.106217e-02 2.137289e-02 2.166798e-02 2.194806e-02 2.221225e-02 2.246121e-02 2.269411e-02 2.291161e-02 2.311292e-02 2.329872e-02 2.346828e-02 2.362227e-02 2.376001e-02 2.388219e-02 2.398818e-02 2.407865e-02 2.415305e-02 2.421202e-02 2.425509e-02 2.428289e-02 2.429499e-02 2.429201e-02 2.427360e-02 2.424036e-02 2.419198e-02 2.412905e-02 2.405132e-02 2.395937e-02 2.385300e-02 2.373275e-02 2.359851e-02 2.345076e-02 2.328946e-02 2.311508e-02 2.292761e-02 2.272749e-02 2.251479e-02 2.228988e-02 2.205290e-02 2.180419e-02 2.154394e-02 2.127245e-02 2.098995e-02 2.069671e-02 2.039301e-02 2.007909e-02 1.975525e-02 1.942169e-02 1.907878e-02 1.872667e-02 1.836575e-02 1.799616e-02 1.761830e-02 1.723229e-02 1.683855e-02 1.643717e-02 1.602859e-02 1.561289e-02 1.519051e-02 1.476150e-02 1.432633e-02 1.388502e-02 1.343805e-02 1.298543e-02 1.252763e-02 1.206465e-02 1.159696e-02 1.112456e-02 1.064791e-02 1.016699e-02 9.682271e-03 9.193734e-03 8.701811e-03 8.206508e-03 7.708234e-03 7.207003e-03 6.703203e-03 6.196860e-03 5.688338e-03 5.177679e-03 4.665221e-03 4.151025e-03 3.635401e-03 3.118432e-03 2.600397e-03 2.081406e-03 1.561708e-03 1.041437e-03 5.208140e-04 
9.920338e-15 -6.126387e-04 -1.225050e-03 -1.837033e-03 -2.448334e-03 -3.058776e-03 -3.668078e-03 -4.276086e-03 -4.882492e-03 -5.487164e-03 -6.089766e-03 -6.690185e-03 -7.288060e-03 -7.883292e-03 -8.475498e-03 -9.064591e-03 -9.650163e-03 -1.023214e-02 -1.081010e-02 -1.138396e-02 -1.195328e-02 -1.251800e-02 -1.307766e-02 -1.363218e-02 -1.418111e-02 -1.472436e-02 -1.526146e-02 -1.579232e-02 -1.631647e-02 -1.683382e-02 -1.734388e-02 -1.784655e-02 -1.834134e-02 -1.882815e-02 -1.930649e-02 -1.977622e-02 -2.023690e-02 -2.068834e-02 -2.113012e-02 -2.156203e-02 -2.198368e-02 -2.239482e-02 -2.279509e-02 -2.318421e-02 -2.356186e-02 -2.392771e-02 -2.428149e-02 -2.462285e-02 -2.495153e-02 -2.526715e-02 -2.556953e-02 -2.585823e-02 -2.613312e-02 -2.639372e-02 -2.663997e-02 -2.687134e-02 -2.708783e-02 -2.728889e-02 -2.747457e-02 -2.764428e-02 -2.779813e-02 -2.793552e-02 -2.805662e-02 -2.816078e-02 -2.824826e-02 -2.831838e-02 -2.837145e-02 -2.840677e-02 -2.842474e-02 -2.842463e-02 -2.840690e-02 -2.837080e-02 -2.831687e-02 -2.824434e-02 -2.815382e-02 -2.804454e-02 -2.791716e-02 -2.777091e-02 -2.760652e-02 -2.742321e-02 -2.722178e-02 -2.700145e-02 -2.676307e-02 -2.650589e-02 -2.623080e-02 -2.593707e-02 -2.562564e-02 -2.529579e-02 -2.494851e-02 -2.458311e-02 -2.420063e-02 -2.380040e-02 -2.338347e-02 -2.294925e-02 -2.249881e-02 -2.203157e-02 -2.154865e-02 -2.104951e-02 -2.053527e-02 -2.000548e-02 -1.946124e-02 -1.890215e-02 -1.832933e-02 -1.774244e-02 -1.714259e-02 -1.652949e-02 -1.590427e-02 -1.526669e-02 -1.461785e-02 -1.395761e-02 -1.328703e-02 -1.260604e-02 -1.191568e-02 -1.121595e-02 -1.050785e-02 -9.791452e-03 -9.067734e-03 -8.336838e-03 -7.599690e-03 -6.856512e-03 -6.108183e-03 -5.354996e-03 -4.597779e-03 -3.836901e-03 -3.073132e-03 -2.306913e-03 -1.538954e-03 -7.697673e-04 -9.833704e-15 7.697673e-04 1.538954e-03 2.306913e-03 3.073132e-03 3.836901e-03 4.597779e-03 5.354996e-03 6.108183e-03 6.856512e-03 7.599690e-03 8.336838e-03 9.067734e-03 9.791452e-03 1.050785e-02 1.121595e-02 1.191568e-02 1.260604e-02 1.328703e-02 1.395761e-02 1.461785e-02 1.526669e-02 1.590427e-02 1.652949e-02 1.714259e-02 1.774244e-02 1.832933e-02 1.890215e-02 1.946124e-02 2.000548e-02 2.053527e-02 2.104951e-02 2.154865e-02 2.203157e-02 2.249881e-02 2.294925e-02 2.338347e-02 2.380040e-02 2.420063e-02 2.458311e-02 2.494851e-02 2.529579e-02 2.562564e-02 2.593707e-02 2.623080e-02 2.650589e-02 2.676307e-02 2.700145e-02 2.722178e-02 2.742321e-02 2.760652e-02 2.777091e-02 2.791716e-02 2.804454e-02 2.815382e-02 2.824434e-02 2.831687e-02 2.837080e-02 2.840690e-02 2.842463e-02 2.842474e-02 2.840677e-02 2.837145e-02 2.831838e-02 2.824826e-02 2.816078e-02 2.805662e-02 2.793552e-02 2.779813e-02 2.764428e-02 2.747457e-02 2.728889e-02 2.708783e-02 2.687134e-02 2.663997e-02 2.639372e-02 2.613312e-02 2.585823e-02 2.556953e-02 2.526715e-02 2.495153e-02 2.462285e-02 2.428149e-02 2.392771e-02 2.356186e-02 2.318421e-02 2.279509e-02 2.239482e-02 2.198368e-02 2.156203e-02 2.113012e-02 2.068834e-02 2.023690e-02 1.977622e-02 1.930649e-02 1.882815e-02 1.834134e-02 1.784655e-02 1.734388e-02 1.683382e-02 1.631647e-02 1.579232e-02 1.526146e-02 1.472436e-02 1.418111e-02 1.363218e-02 1.307766e-02 1.251800e-02 1.195328e-02 1.138396e-02 1.081010e-02 1.023214e-02 9.650163e-03 9.064591e-03 8.475498e-03 7.883292e-03 7.288060e-03 6.690185e-03 6.089766e-03 5.487164e-03 4.882492e-03 4.276086e-03 3.668078e-03 3.058776e-03 2.448334e-03 1.837033e-03 1.225050e-03 6.126387e-04 
1.058538e-14 -7.047352e-04 -1.409207e-03 -2.113175e-03 -2.816352e-03 -3.518518e-03 -4.219364e-03 -4.918687e-03 -5.616155e-03 -6.311583e-03 -7.004613e-03 -7.695076e-03 -8.382592e-03 -9.067003e-03 -9.747908e-03 -1.042516e-02 -1.109833e-02 -1.176728e-02 -1.243158e-02 -1.309107e-02 -1.374531e-02 -1.439415e-02 -1.503714e-02 -1.567411e-02 -1.630460e-02 -1.692845e-02 -1.754518e-02 -1.815462e-02 -1.875631e-02 -1.935003e-02 -1.993533e-02 -2.051200e-02 -2.107958e-02 -2.163783e-02 -2.218631e-02 -2.272474e-02 -2.325273e-02 -2.376995e-02 -2.427603e-02 -2.477063e-02 -2.525338e-02 -2.572392e-02 -2.618191e-02 -2.662697e-02 -2.705879e-02 -2.747693e-02 -2.788116e-02 -2.827098e-02 -2.864622e-02 -2.900632e-02 -2.935119e-02 -2.968022e-02 -2.999336e-02 -3.028999e-02 -3.057011e-02 -3.083306e-02 -3.107890e-02 -3.130693e-02 -3.151730e-02 -3.170926e-02 -3.188302e-02 -3.203781e-02 -3.217391e-02 -3.229052e-02 -3.238801e-02 -3.246552e-02 -3.252351e-02 -3.256111e-02 -3.257883e-02 -3.257580e-02 -3.255260e-02 -3.250834e-02 -3.244367e-02 -3.235770e-02 -3.225116e-02 -3.212314e-02 -3.197444e-02 -3.180415e-02 -3.161314e-02 -3.140051e-02 -3.116719e-02 -3.091229e-02 -3.063681e-02 -3.033986e-02 -3.002249e-02 -2.968386e-02 -2.932506e-02 -2.894527e-02 -2.854563e-02 -2.812536e-02 -2.768563e-02 -2.722571e-02 -2.674680e-02 -2.624821e-02 -2.573117e-02 -2.519504e-02 -2.464108e-02 -2.406870e-02 -2.347916e-02 -2.287196e-02 -2.224835e-02 -2.160789e-02 -2.095185e-02 -2.027983e-02 -1.959312e-02 -1.889138e-02 -1.817589e-02 -1.744639e-02 -1.670413e-02 -1.594894e-02 -1.518204e-02 -1.440334e-02 -1.361402e-02 -1.281409e-02 -1.200468e-02 -1.118588e-02 -1.035879e-02 -9.523568e-03 -8.681269e-03 -7.832147e-03 -6.977191e-03 -6.116740e-03 -5.251726e-03 -4.382571e-03 -3.510142e-03 -2.634942e-03 -1.757773e-03 -8.792152e-04 -1.050473e-14 8.792152e-04 1.757773e-03 2.634942e-03 3.510142e-03 4.382571e-03 5.251726e-03 6.116740e-03 6.977191e-03 7.832147e-03 8.681269e-03 9.523568e-03 1.035879e-02 1.118588e-02 1.200468e-02 1.281409e-02 1.361402e-02 1.440334e-02 1.518204e-02 1.594894e-02 1.670413e-02 1.744639e-02 1.817589e-02 1.889138e-02 1.959312e-02 2.027983e-02 2.095185e-02 2.160789e-02 2.224835e-02 2.287196e-02 2.347916e-02 2.406870e-02 2.464108e-02 2.519504e-02 2.573117e-02 2.624821e-02 2.674680e-02 2.722571e-02 2.768563e-02 2.812536e-02 2.854563e-02 2.894527e-02 2.932506e-02 2.968386e-02 3.002249e-02 3.033986e-02 3.063681e-02 3.091229e-02 3.116719e-02 3.140051e-02 3.161314e-02 3.180415e-02 3.197444e-02 3.212314e-02 3.225116e-02 3.235770e-02 3.244367e-02 3.250834e-02 3.255260e-02 3.257580e-02 3.257883e-02 3.256111e-02 3.252351e-02 3.246552e-02 3.238801e-02 3.229052e-02 3.217391e-02 3.203781e-02 3.188302e-02 3.170926e-02 3.151730e-02 3.130693e-02 3.107890e-02 3.083306e-02 3.057011e-02 3.028999e-02 2.999336e-02 2.968022e-02 2.935119e-02 2.900632e-02 2.864622e-02 2.827098e-02 2.788116e-02 2.747693e-02 2.705879e-02 2.662697e-02 2.618191e-02 2.572392e-02 2.525338e-02 2.477063e-02 2.427603e-02 2.376995e-02 2.325273e-02 2.272474e-02 2.218631e-02 2.163783e-02 2.107958e-02 2.051200e-02 1.993533e-02 1.935003e-02 1.875631e-02 1.815462e-02 1.754518e-02 1.692845e-02 1.630460e-02 1.567411e-02 1.503714e-02 1.439415e-02 1.374531e-02 1.309107e-02 1.243158e-02 1.176728e-02 1.109833e-02 1.042516e-02 9.747908e-03 9.067003e-03 8.382592e-03 7.695076e-03 7.004613e-03 6.311583e-03 5.616155e-03 4.918687e-03 4.219364e-03 3.518518e-03 2.816352e-03 2.113175e-03 1.409207e-03 7.047352e-04 
1.125926e-14 -7.970385e-04 -1.593778e-03 -2.389938e-03 -3.185199e-03 -3.979300e-03 -4.771899e-03 -5.562751e-03 -6.351492e-03 -7.137893e-03 -7.921567e-03 -8.702296e-03 -9.479674e-03 -1.025349e-02 -1.102332e-02 -1.178896e-02 -1.254997e-02 -1.330613e-02 -1.405701e-02 -1.480238e-02 -1.554178e-02 -1.627500e-02 -1.700156e-02 -1.772124e-02 -1.843356e-02 -1.913828e-02 -1.983491e-02 -2.052321e-02 -2.120269e-02 -2.187308e-02 -2.253390e-02 -2.318486e-02 -2.382550e-02 -2.445549e-02 -2.507439e-02 -2.568183e-02 -2.627741e-02 -2.686073e-02 -2.743139e-02 -2.798897e-02 -2.853312e-02 -2.906336e-02 -2.957938e-02 -3.008067e-02 -3.056696e-02 -3.103769e-02 -3.149266e-02 -3.193125e-02 -3.235331e-02 -3.275819e-02 -3.314581e-02 -3.351546e-02 -3.386712e-02 -3.420005e-02 -3.451430e-02 -3.480908e-02 -3.508451e-02 -3.533976e-02 -3.557504e-02 -3.578947e-02 -3.598334e-02 -3.615575e-02 -3.630704e-02 -3.643629e-02 -3.654394e-02 -3.662903e-02 -3.669207e-02 -3.673209e-02 -3.674968e-02 -3.674385e-02 -3.671527e-02 -3.666294e-02 -3.658761e-02 -3.648826e-02 -3.636574e-02 -3.621901e-02 -3.604899e-02 -3.585467e-02 -3.563702e-02 -3.539504e-02 -3.512979e-02 -3.484026e-02 -3.452757e-02 -3.419077e-02 -3.383101e-02 -3.344736e-02 -3.304105e-02 -3.261117e-02 -3.215900e-02 -3.168367e-02 -3.118649e-02 -3.066667e-02 -3.012553e-02 -2.956232e-02 -2.897842e-02 -2.837313e-02 -2.774784e-02 -2.710192e-02 -2.643677e-02 -2.575183e-02 -2.504851e-02 -2.432633e-02 -2.358669e-02 -2.282918e-02 -2.205520e-02 -2.126444e-02 -2.045826e-02 -1.963643e-02 -1.880031e-02 -1.794974e-02 -1.708606e-02 -1.620920e-02 -1.532046e-02 -1.441987e-02 -1.350867e-02 -1.258698e-02 -1.165602e-02 -1.071598e-02 -9.768032e-03 -8.812462e-03 -7.850368e-03 -6.882142e-03 -5.908813e-03 -4.930862e-03 -3.949252e-03 -2.964549e-03 -1.977644e-03 -9.891893e-04 -1.141904e-14 9.891893e-04 1.977644e-03 2.964549e-03 3.949252e-03 4.930862e-03 5.908813e-03 6.882142e-03 7.850368e-03 8.812462e-03 9.768032e-03 1.071598e-02 1.165602e-02 1.258698e-02 1.350867e-02 1.441987e-02 1.532046e-02 1.620920e-02 1.708606e-02 1.794974e-02 1.880031e-02 1.963643e-02 2.045826e-02 2.126444e-02 2.205520e-02 2.282918e-02 2.358669e-02 2.432633e-02 2.504851e-02 2.575183e-02 2.643677e-02 2.710192e-02 2.774784e-02 2.837313e-02 2.897842e-02 2.956232e-02 3.012553e-02 3.066667e-02 3.118649e-02 3.168367e-02 3.215900e-02 3.261117e-02 3.304105e-02 3.344736e-02 3.383101e-02 3.419077e-02 3.452757e-02 3.484026e-02 3.512979e-02 3.539504e-02 3.563702e-02 3.585467e-02 3.604899e-02 3.621901e-02 3.636574e-02 3.648826e-02 3.658761e-02 3.666294e-02 3.671527e-02 3.674385e-02 3.674968e-02 3.673209e-02 3.669207e-02 3.662903e-02 3.654394e-02 3.643629e-02 3.630704e-02 3.615575e-02 3.598334e-02 3.578947e-02 3.557504e-02 3.533976e-02 3.508451e-02 3.480908e-02 3.451430e-02 3.420005e-02 3.386712e-02 3.351546e-02 3.314581e-02 3.275819e-02 3.235331e-02 3.193125e-02 3.149266e-02 3.103769e-02 3.056696e-02 3.008067e-02 2.957938e-02 2.906336e-02 2.853312e-02 2.798897e-02 2.743139e-02 2.686073e-02 2.627741e-02 2.568183e-02 2.507439e-02 2.445549e-02 2.382550e-02 2.318486e-02 2.253390e-02 2.187308e-02 2.120269e-02 2.052321e-02 1.983491e-02 1.913828e-02 1.843356e-02 1.772124e-02 1.700156e-02 1.627500e-02 1.554178e-02 1.480238e-02 1.405701e-02 1.330613e-02 1.254997e-02 1.178896e-02 1.102332e-02 1.025349e-02 9.479674e-03 8.702296e-03 7.921567e-03 7.137893e-03 6.351492e-03 5.562751e-03 4.771899e-03 3.979300e-03 3.185199e-03 2.389938e-03 1.593778e-03 7.970385e-04 
1.204548e-14 -8.896870e-04 -1.779039e-03 -2.667738e-03 -3.555431e-03 -4.441814e-03 -5.326517e-03 -6.209248e-03 -7.089618e-03 -7.967346e-03 -8.842025e-03 -9.713380e-03 -1.058099e-02 -1.144458e-02 -1.230371e-02 -1.315811e-02 -1.400733e-02 -1.485109e-02 -1.568893e-02 -1.652057e-02 -1.734553e-02 -1.816353e-02 -1.897408e-02 -1.977687e-02 -2.057143e-02 -2.135743e-02 -2.213439e-02 -2.290197e-02 -2.365968e-02 -2.440717e-02 -2.514396e-02 -2.586965e-02 -2.658380e-02 -2.728597e-02 -2.797575e-02 -2.865265e-02 -2.931629e-02 -2.996614e-02 -3.060186e-02 -3.122288e-02 -3.182889e-02 -3.241929e-02 -3.299380e-02 -3.355177e-02 -3.409299e-02 -3.461676e-02 -3.512292e-02 -3.561072e-02 -3.608007e-02 -3.653016e-02 -3.696097e-02 -3.737166e-02 -3.776227e-02 -3.813191e-02 -3.848070e-02 -3.880769e-02 -3.911311e-02 -3.939595e-02 -3.965652e-02 -3.989378e-02 -4.010811e-02 -4.029845e-02 -4.046526e-02 -4.060744e-02 -4.072556e-02 -4.081848e-02 -4.088684e-02 -4.092951e-02 -4.094720e-02 -4.093876e-02 -4.090500e-02 -4.084475e-02 -4.075890e-02 -4.064629e-02 -4.050789e-02 -4.034253e-02 -4.015127e-02 -3.993294e-02 -3.968867e-02 -3.941733e-02 -3.912011e-02 -3.879589e-02 -3.844594e-02 -3.806916e-02 -3.766688e-02 -3.723806e-02 -3.678406e-02 -3.630388e-02 -3.579894e-02 -3.526829e-02 -3.471339e-02 -3.413335e-02 -3.352965e-02 -3.290148e-02 -3.225034e-02 -3.157547e-02 -3.087842e-02 -3.015850e-02 -2.941725e-02 -2.865407e-02 -2.787051e-02 -2.706605e-02 -2.624224e-02 -2.539864e-02 -2.453679e-02 -2.365634e-02 -2.275882e-02 -2.184398e-02 -2.091330e-02 -1.996663e-02 -1.900544e-02 -1.802967e-02 -1.704074e-02 -1.603869e-02 -1.502490e-02 -1.399951e-02 -1.296385e-02 -1.191816e-02 -1.086371e-02 -9.800825e-03 -8.730725e-03 -7.653843e-03 -6.571314e-03 -5.483674e-03 -4.391984e-03 -3.296875e-03 -2.199330e-03 -1.100072e-03 -1.235787e-14 1.100072e-03 2.199330e-03 3.296875e-03 4.391984e-03 5.483674e-03 6.571314e-03 7.653843e-03 8.730725e-03 9.800825e-03 1.086371e-02 1.191816e-02 1.296385e-02 1.399951e-02 1.502490e-02 1.603869e-02 1.704074e-02 1.802967e-02 1.900544e-02 1.996663e-02 2.091330e-02 2.184398e-02 2.275882e-02 2.365634e-02 2.453679e-02 2.539864e-02 2.624224e-02 2.706605e-02 2.787051e-02 2.865407e-02 2.941725e-02 3.015850e-02 3.087842e-02 3.157547e-02 3.225034e-02 3.290148e-02 3.352965e-02 3.413335e-02 3.471339e-02 3.526829e-02 3.579894e-02 3.630388e-02 3.678406e-02 3.723806e-02 3.766688e-02 3.806916e-02 3.844594e-02 3.879589e-02 3.912011e-02 3.941733e-02 3.968867e-02 3.993294e-02 4.015127e-02 4.034253e-02 4.050789e-02 4.064629e-02 4.075890e-02 4.084475e-02 4.090500e-02 4.093876e-02 4.094720e-02 4.092951e-02 4.088684e-02 4.081848e-02 4.072556e-02 4.060744e-02 4.046526e-02 4.029845e-02 4.010811e-02 3.989378e-02 3.965652e-02 3.939595e-02 3.911311e-02 3.880769e-02 3.848070e-02 3.813191e-02 3.776227e-02 3.737166e-02 3.696097e-02 3.653016e-02 3.608007e-02 3.561072e-02 3.512292e-02 3.461676e-02 3.409299e-02 3.355177e-02 3.299380e-02 3.241929e-02 3.182889e-02 3.122288e-02 3.060186e-02 2.996614e-02 2.931629e-02 2.865265e-02 2.797575e-02 2.728597e-02 2.658380e-02 2.586965e-02 2.514396e-02 2.440717e-02 2.365968e-02 2.290197e-02 2.213439e-02 2.135743e-02 2.057143e-02 1.977687e-02 1.897408e-02 1.816353e-02 1.734553e-02 1.652057e-02 1.568893e-02 1.485109e-02 1.400733e-02 1.315811e-02 1.230371e-02 1.144458e-02 1.058099e-02 9.713380e-03 8.842025e-03 7.967346e-03 7.089618e-03 6.209248e-03 5.326517e-03 4.441814e-03 3.555431e-03 2.667738e-03 1.779039e-03 8.896870e-04 