# vtk DataFile Version 2.0
Comment goes here
ASCII

DATASET STRUCTURED_POINTS
FIELD FieldData 1
TIME 1 1 double
0.02000000
DIMENSIONS    256   256   1

ORIGIN    0.000   0.000   0.000
SPACING   0.0039062 0.0039062   1.000

POINT_DATA   65536
SCALARS uX double
LOOKUP_TABLE default

-2.912673e-16 4.247660e-04 8.494711e-04 1.274030e-03 1.698405e-03 2.122485e-03 2.546255e-03 2.969576e-03 3.392454e-03 3.814724e-03 4.236409e-03 4.657317e-03 5.077486e-03 5.496698e-03 5.915005e-03 6.332162e-03 6.748231e-03 7.162941e-03 7.576364e-03 7.988202e-03 8.398532e-03 8.807033e-03 9.213785e-03 9.618442e-03 1.002108e-02 1.042135e-02 1.081930e-02 1.121457e-02 1.160721e-02 1.199683e-02 1.238348e-02 1.276675e-02 1.314668e-02 1.352283e-02 1.389526e-02 1.426350e-02 1.462757e-02 1.498703e-02 1.534186e-02 1.569161e-02 1.603625e-02 1.637532e-02 1.670878e-02 1.703614e-02 1.735736e-02 1.767195e-02 1.797982e-02 1.828052e-02 1.857391e-02 1.885955e-02 1.913729e-02 1.940668e-02 1.966755e-02 1.991946e-02 2.016222e-02 2.039541e-02 2.061880e-02 2.083200e-02 2.103476e-02 2.122670e-02 2.140754e-02 2.157695e-02 2.173462e-02 2.188024e-02 2.201348e-02 2.213407e-02 2.224166e-02 2.233602e-02 2.241678e-02 2.248375e-02 2.253654e-02 2.257501e-02 2.259876e-02 2.260770e-02 2.260142e-02 2.257986e-02 2.254264e-02 2.248973e-02 2.242075e-02 2.233573e-02 2.223429e-02 2.211652e-02 2.198205e-02 2.183102e-02 2.166307e-02 2.147839e-02 2.127667e-02 2.105813e-02 2.082248e-02 2.057002e-02 2.030046e-02 2.001416e-02 1.971089e-02 1.939104e-02 1.905441e-02 1.870145e-02 1.833201e-02 1.794658e-02 1.754506e-02 1.712799e-02 1.669530e-02 1.624758e-02 1.578483e-02 1.530766e-02 1.481613e-02 1.431089e-02 1.379205e-02 1.326028e-02 1.271577e-02 1.215921e-02 1.159083e-02 1.101136e-02 1.042109e-02 9.820754e-03 9.210701e-03 8.591685e-03 7.964103e-03 7.328719e-03 6.685980e-03 6.036654e-03 5.381238e-03 4.720495e-03 4.054969e-03 3.385414e-03 2.712419e-03 2.036721e-03 1.358949e-03 6.798210e-04 -6.286002e-16 -6.798210e-04 -1.358949e-03 -2.036721e-03 -2.712419e-03 -3.385414e-03 -4.054969e-03 -4.720495e-03 -5.381238e-03 -6.036654e-03 -6.685980e-03 -7.328719e-03 -7.964103e-03 -8.591685e-03 -9.210701e-03 -9.820754e-03 -1.042109e-02 -1.101136e-02 -1.159083e-02 -1.215921e-02 -1.271577e-02 -1.326028e-02 -1.379205e-02 -1.431089e-02 -1.481613e-02 -1.530766e-02 -1.578483e-02 -1.624758e-02 -1.669530e-02 -1.712799e-02 -1.754506e-02 -1.794658e-02 -1.833201e-02 -1.870145e-02 -1.905441e-02 -1.939104e-02 -1.971089e-02 -2.001416e-02 -2.030046e-02 -2.057002e-02 -2.082248e-02 -2.105813e-02 -2.127667e-02 -2.147839e-02 -2.166307e-02 -2.183102e-02 -2.198205e-02 -2.211652e-02 -2.223429e-02 -2.233573e-02 -2.242075e-02 -2.248973e-02 -2.254264e-02 -2.257986e-02 -2.260142e-02 -2.260770e-02 -2.259876e-02 -2.257501e-02 -2.253654e-02 -2.248375e-02 -2.241678e-02 -2.233602e-02 -2.224166e-02 -2.213407e-02 -2.201348e-02 -2.188024e-02 -2.173462e-02 -2.157695e-02 -2.140754e-02 -2.122670e-02 -2.103476e-02 -2.083200e-02 -2.061880e-02 -2.039541e-02 -2.016222e-02 -1.991946e-02 -1.966755e-02 -1.940668e-02 -1.913729e-02 -1.885955e-02 -1.857391e-02 -1.828052e-02 -1.797982e-02 -1.767195e-02 -1.735736e-02 -1.703614e-02 -1.670878e-02 -1.637532e-02 -1.603625e-02 -1.569161e-02 -1.534186e-02 -1.498703e-02 -1.462757e-02 -1.426350e-02 -1.389526e-02 -1.352283e-02 -1.314668e-02 -1.276675e-02 -1.238348e-02 -1.199683e-02 -1.160721e-02 -1.121457e-02 -1.081930e-02 -1.042135e-02 -1.002108e-02 -9.618442e-03 -9.213785e-03 -8.807033e-03 -8.398532e-03 -7.988202e-03 -7.576364e-03 -7.162941e-03 -6.748231e-03 -6.332162e-03 -5.915005e-03 -5.496698e-03 -5.077486e-03 -4.657317e-03 -4.236409e-03 -3.814724e-03 -3.392454e-03 -2.969576e-03 -2.546255e-03 -2.122485e-03 -1.698405e-03 -1.274030e-03 -8.494711e-04 -4.247660e-04 
-5.978628e-16 3.633445e-04 7.266501e-04 1.089850e-03 1.452932e-03 1.815801e-03 2.178469e-03 2.540813e-03 2.902867e-03 3.264479e-03 3.625705e-03 3.986362e-03 4.346527e-03 4.705986e-03 5.064834e-03 5.422827e-03 5.780074e-03 6.136305e-03 6.491640e-03 6.845779e-03 7.198853e-03 7.550535e-03 7.900964e-03 8.249785e-03 8.597142e-03 8.942656e-03 9.286470e-03 9.628185e-03 9.967941e-03 1.030532e-02 1.064045e-02 1.097290e-02 1.130279e-02 1.162967e-02 1.195366e-02 1.227428e-02 1.259165e-02 1.290526e-02 1.321523e-02 1.352105e-02 1.382280e-02 1.411997e-02 1.441262e-02 1.470025e-02 1.498288e-02 1.526001e-02 1.553165e-02 1.579730e-02 1.605694e-02 1.631006e-02 1.655664e-02 1.679618e-02 1.702860e-02 1.725345e-02 1.747060e-02 1.767962e-02 1.788037e-02 1.807241e-02 1.825559e-02 1.842950e-02 1.859394e-02 1.874855e-02 1.889310e-02 1.902723e-02 1.915073e-02 1.926325e-02 1.936456e-02 1.945436e-02 1.953237e-02 1.959834e-02 1.965200e-02 1.969312e-02 1.972140e-02 1.973668e-02 1.973865e-02 1.972718e-02 1.970195e-02 1.966290e-02 1.960971e-02 1.954233e-02 1.946048e-02 1.936415e-02 1.925306e-02 1.912726e-02 1.898647e-02 1.883081e-02 1.866000e-02 1.847421e-02 1.827319e-02 1.805717e-02 1.782591e-02 1.757968e-02 1.731829e-02 1.704206e-02 1.675082e-02 1.644494e-02 1.612430e-02 1.578930e-02 1.543987e-02 1.507646e-02 1.469903e-02 1.430807e-02 1.390360e-02 1.348614e-02 1.305575e-02 1.261300e-02 1.215800e-02 1.169134e-02 1.121318e-02 1.072414e-02 1.022444e-02 9.714713e-03 9.195230e-03 8.666653e-03 8.129291e-03 7.583823e-03 7.030608e-03 6.470334e-03 5.903406e-03 5.330514e-03 4.752111e-03 4.168883e-03 3.581327e-03 2.990121e-03 2.395799e-03 1.799029e-03 1.200381e-03 6.005044e-04 -2.429618e-16 -6.005044e-04 -1.200381e-03 -1.799029e-03 -2.395799e-03 -2.990121e-03 -3.581327e-03 -4.168883e-03 -4.752111e-03 -5.330514e-03 -5.903406e-03 -6.470334e-03 -7.030608e-03 -7.583823e-03 -8.129291e-03 -8.666653e-03 -9.195230e-03 -9.714713e-03 -1.022444e-02 -1.072414e-02 -1.121318e-02 -1.169134e-02 -1.215800e-02 -1.261300e-02 -1.305575e-02 -1.348614e-02 -1.390360e-02 -1.430807e-02 -1.469903e-02 -1.507646e-02 -1.543987e-02 -1.578930e-02 -1.612430e-02 -1.644494e-02 -1.675082e-02 -1.704206e-02 -1.731829e-02 -1.757968e-02 -1.782591e-02 -1.805717e-02 -1.827319e-02 -1.847421e-02 -1.866000e-02 -1.883081e-02 -1.898647e-02 -1.912726e-02 -1.925306e-02 -1.936415e-02 -1.946048e-02 -1.954233e-02 -1.960971e-02 -1.966290e-02 -1.970195e-02 -1.972718e-02 -1.973865e-02 -1.973668e-02 -1.972140e-02 -1.969312e-02 -1.965200e-02 -1.959834e-02 -1.953237e-02 -1.945436e-02 -1.936456e-02 -1.926325e-02 -1.915073e-02 -1.902723e-02 -1.889310e-02 -1.874855e-02 -1.859394e-02 -1.842950e-02 -1.825559e-02 -1.807241e-02 -1.788037e-02 -1.767962e-02 -1.747060e-02 -1.725345e-02 -1.702860e-02 -1.679618e-02 -1.655664e-02 -1.631006e-02 -1.605694e-02 -1.579730e-02 -1.553165e-02 -1.526001e-02 -1.498288e-02 -1.470025e-02 -1.441262e-02 -1.411997e-02 -1.382280e-02 -1.352105e-02 -1.321523e-02 -1.290526e-02 -1.259165e-02 -1.227428e-02 -1.195366e-02 -1.162967e-02 -1.130279e-02 -1.097290e-02 -1.064045e-02 -1.030532e-02 -9.967941e-03 -9.628185e-03 -9.286470e-03 -8.942656e-03 -8.597142e-03 -8.249785e-03 -7.900964e-03 -7.550535e-03 -7.198853e-03 -6.845779e-03 -6.491640e-03 -6.136305e-03 -5.780074e-03 -5.422827e-03 -5.064834e-03 -4.705986e-03 -4.346527e-03 -3.986362e-03 -3.625705e-03 -3.264479e-03 -2.902867e-03 -2.540813e-03 -2.178469e-03 -1.815801e-03 -1.452932e-03 -1.089850e-03 -7.266501e-04 -3.633445e-04 
-8.646251e-16 3.020115e-04 6.040059e-04 9.059368e-04 1.207815e-03 1.509565e-03 1.811224e-03 2.112685e-03 2.414011e-03 2.715065e-03 3.015932e-03 3.316445e-03 3.616711e-03 3.916530e-03 4.216031e-03 4.514982e-03 4.813528e-03 5.111409e-03 5.408785e-03 5.705365e-03 6.001322e-03 6.296337e-03 6.590591e-03 6.883740e-03 7.175971e-03 7.466913e-03 7.756758e-03 8.045111e-03 8.332164e-03 8.617500e-03 8.901310e-03 9.183156e-03 9.463223e-03 9.741057e-03 1.001683e-02 1.029008e-02 1.056097e-02 1.082901e-02 1.109436e-02 1.135653e-02 1.161564e-02 1.187120e-02 1.212332e-02 1.237151e-02 1.261585e-02 1.285583e-02 1.309154e-02 1.332246e-02 1.354864e-02 1.376959e-02 1.398532e-02 1.419535e-02 1.439965e-02 1.459777e-02 1.478966e-02 1.497485e-02 1.515329e-02 1.532452e-02 1.548846e-02 1.564468e-02 1.579306e-02 1.593320e-02 1.606496e-02 1.618796e-02 1.630203e-02 1.640682e-02 1.650215e-02 1.658771e-02 1.666327e-02 1.672856e-02 1.678336e-02 1.682742e-02 1.686049e-02 1.688239e-02 1.689284e-02 1.689170e-02 1.687869e-02 1.685371e-02 1.681648e-02 1.676694e-02 1.670481e-02 1.663008e-02 1.654248e-02 1.644203e-02 1.632848e-02 1.620190e-02 1.606204e-02 1.590903e-02 1.574263e-02 1.556303e-02 1.537000e-02 1.516378e-02 1.494417e-02 1.471144e-02 1.446544e-02 1.420648e-02 1.393443e-02 1.364965e-02 1.335205e-02 1.304204e-02 1.271955e-02 1.238504e-02 1.203848e-02 1.168036e-02 1.131071e-02 1.093003e-02 1.053841e-02 1.013638e-02 9.724071e-03 9.302042e-03 8.870466e-03 8.429929e-03 7.980649e-03 7.523227e-03 7.057931e-03 6.585373e-03 6.105866e-03 5.620030e-03 5.128223e-03 4.631067e-03 4.128963e-03 3.622530e-03 3.112207e-03 2.598610e-03 2.082213e-03 1.563619e-03 1.043336e-03 5.219500e-04 5.758255e-17 -5.219500e-04 -1.043336e-03 -1.563619e-03 -2.082213e-03 -2.598610e-03 -3.112207e-03 -3.622530e-03 -4.128963e-03 -4.631067e-03 -5.128223e-03 -5.620030e-03 -6.105866e-03 -6.585373e-03 -7.057931e-03 -7.523227e-03 -7.980649e-03 -8.429929e-03 -8.870466e-03 -9.302042e-03 -9.724071e-03 -1.013638e-02 -1.053841e-02 -1.093003e-02 -1.131071e-02 -1.168036e-02 -1.203848e-02 -1.238504e-02 -1.271955e-02 -1.304204e-02 -1.335205e-02 -1.364965e-02 -1.393443e-02 -1.420648e-02 -1.446544e-02 -1.471144e-02 -1.494417e-02 -1.516378e-02 -1.537000e-02 -1.556303e-02 -1.574263e-02 -1.590903e-02 -1.606204e-02 -1.620190e-02 -1.632848e-02 -1.644203e-02 -1.654248e-02 -1.663008e-02 -1.670481e-02 -1.676694e-02 -1.681648e-02 -1.685371e-02 -1.687869e-02 -1.689170e-02 -1.689284e-02 -1.688239e-02 -1.686049e-02 -1.682742e-02 -1.678336e-02 -1.672856e-02 -1.666327e-02 -1.658771e-02 -1.650215e-02 -1.640682e-02 -1.630203e-02 -1.618796e-02 -1.606496e-02 -1.593320e-02 -1.579306e-02 -1.564468e-02 -1.548846e-02 -1.532452e-02 -1.515329e-02 -1.497485e-02 -1.478966e-02 -1.459777e-02 -1.439965e-02 -1.419535e-02 -1.398532e-02 -1.376959e-02 -1.354864e-02 -1.332246e-02 -1.309154e-02 -1.285583e-02 -1.261585e-02 -1.237151e-02 -1.212332e-02 -1.187120e-02 -1.161564e-02 -1.135653e-02 -1.109436e-02 -1.082901e-02 -1.056097e-02 -1.029008e-02 -1.001683e-02 -9.741057e-03 -9.463223e-03 -9.183156e-03 -8.901310e-03 -8.617500e-03 -8.332164e-03 -8.045111e-03 -7.756758e-03 -7.466913e-03 -7.175971e-03 -6.883740e-03 -6.590591e-03 -6.296337e-03 -6.001322e-03 -5.705365e-03 -5.408785e-03 -5.111409e-03 -4.813528e-03 -4.514982e-03 -4.216031e-03 -3.916530e-03 -3.616711e-03 -3.316445e-03 -3.015932e-03 -2.715065e-03 -2.414011e-03 -2.112685e-03 -1.811224e-03 -1.509565e-03 -1.207815e-03 -9.059368e-04 -6.040059e-04 -3.020115e-04 
-1.045111e-15 2.406603e-04 4.813259e-04 7.219698e-04 9.626288e-04 1.203243e-03 1.443879e-03 1.684443e-03 1.925031e-03 2.165515e-03 2.406018e-03 2.646379e-03 2.886745e-03 3.126922e-03 3.367081e-03 3.606993e-03 3.846850e-03 4.086392e-03 4.325828e-03 4.564867e-03 4.803735e-03 5.042108e-03 5.280226e-03 5.517736e-03 5.754889e-03 5.991303e-03 6.227236e-03 6.462281e-03 6.696701e-03 6.930062e-03 7.162630e-03 7.393950e-03 7.624284e-03 7.853157e-03 8.080828e-03 8.306803e-03 8.531333e-03 8.753910e-03 8.974772e-03 9.193401e-03 9.410021e-03 9.624103e-03 9.835855e-03 1.004474e-02 1.025095e-02 1.045395e-02 1.065390e-02 1.085026e-02 1.104318e-02 1.123212e-02 1.141721e-02 1.159790e-02 1.177430e-02 1.194588e-02 1.211271e-02 1.227428e-02 1.243062e-02 1.258125e-02 1.272618e-02 1.286492e-02 1.299746e-02 1.312335e-02 1.324255e-02 1.335462e-02 1.345949e-02 1.355676e-02 1.364634e-02 1.372786e-02 1.380119e-02 1.386600e-02 1.392215e-02 1.396934e-02 1.400741e-02 1.403609e-02 1.405522e-02 1.406457e-02 1.406396e-02 1.405320e-02 1.403210e-02 1.400052e-02 1.395826e-02 1.390524e-02 1.384125e-02 1.376624e-02 1.368002e-02 1.358258e-02 1.347375e-02 1.335356e-02 1.322183e-02 1.307867e-02 1.292389e-02 1.275766e-02 1.257982e-02 1.239056e-02 1.218975e-02 1.197763e-02 1.175409e-02 1.151943e-02 1.127356e-02 1.101681e-02 1.074913e-02 1.047090e-02 1.018209e-02 9.883110e-03 9.573991e-03 9.255162e-03 8.926694e-03 8.589045e-03 8.242327e-03 7.887025e-03 7.523292e-03 7.151634e-03 6.772246e-03 6.385651e-03 5.992086e-03 5.592087e-03 5.185933e-03 4.774167e-03 4.357107e-03 3.935302e-03 3.509107e-03 3.079070e-03 2.645580e-03 2.209183e-03 1.770300e-03 1.329465e-03 8.871300e-04 4.438156e-04 3.007183e-16 -4.438156e-04 -8.871300e-04 -1.329465e-03 -1.770300e-03 -2.209183e-03 -2.645580e-03 -3.079070e-03 -3.509107e-03 -3.935302e-03 -4.357107e-03 -4.774167e-03 -5.185933e-03 -5.592087e-03 -5.992086e-03 -6.385651e-03 -6.772246e-03 -7.151634e-03 -7.523292e-03 -7.887025e-03 -8.242327e-03 -8.589045e-03 -8.926694e-03 -9.255162e-03 -9.573991e-03 -9.883110e-03 -1.018209e-02 -1.047090e-02 -1.074913e-02 -1.101681e-02 -1.127356e-02 -1.151943e-02 -1.175409e-02 -1.197763e-02 -1.218975e-02 -1.239056e-02 -1.257982e-02 -1.275766e-02 -1.292389e-02 -1.307867e-02 -1.322183e-02 -1.335356e-02 -1.347375e-02 -1.358258e-02 -1.368002e-02 -1.376624e-02 -1.384125e-02 -1.390524e-02 -1.395826e-02 -1.400052e-02 -1.403210e-02 -1.405320e-02 -1.406396e-02 -1.406457e-02 -1.405522e-02 -1.403609e-02 -1.400741e-02 -1.396934e-02 -1.392215e-02 -1.386600e-02 -1.380119e-02 -1.372786e-02 -1.364634e-02 -1.355676e-02 -1.345949e-02 -1.335462e-02 -1.324255e-02 -1.312335e-02 -1.299746e-02 -1.286492e-02 -1.272618e-02 -1.258125e-02 -1.243062e-02 -1.227428e-02 -1.211271e-02 -1.194588e-02 -1.177430e-02 -1.159790e-02 -1.141721e-02 -1.123212e-02 -1.104318e-02 -1.085026e-02 -1.065390e-02 -1.045395e-02 -1.025095e-02 -1.004474e-02 -9.835855e-03 -9.624103e-03 -9.410021e-03 -9.193401e-03 -8.974772e-03 -8.753910e-03 -8.531333e-03 -8.306803e-03 -8.080828e-03 -7.853157e-03 -7.624284e-03 -7.393950e-03 -7.162630e-03 -6.930062e-03 -6.696701e-03 -6.462281e-03 -6.227236e-03 -5.991303e-03 -5.754889e-03 -5.517736e-03 -5.280226e-03 -5.042108e-03 -4.803735e-03 -4.564867e-03 -4.325828e-03 -4.086392e-03 -3.846850e-03 -3.606993e-03 -3.367081e-03 -3.126922e-03 -2.886745e-03 -2.646379e-03 -2.406018e-03 -2.165515e-03 -1.925031e-03 -1.684443e-03 -1.443879e-03 -1.203243e-03 -9.626288e-04 -7.219698e-04 -4.813259e-04 -2.406603e-04 
-1.279658e-15 1.793547e-04 3.587371e-04 5.381408e-04 7.176267e-04 8.971537e-04 1.076815e-03 1.256534e-03 1.436434e-03 1.616405e-03 1.796599e-03 1.976869e-03 2.157395e-03 2.337997e-03 2.518879e-03 2.699825e-03 2.881066e-03 3.062349e-03 3.243926e-03 3.425513e-03 3.607379e-03 3.789209e-03 3.971288e-03 4.153269e-03 4.335450e-03 4.517456e-03 4.699594e-03 4.881463e-03 5.063377e-03 5.244907e-03 5.426372e-03 5.607322e-03 5.788073e-03 5.968155e-03 6.147883e-03 6.326766e-03 6.505114e-03 6.682419e-03 6.858983e-03 7.034286e-03 7.208614e-03 7.381439e-03 7.553032e-03 7.722855e-03 7.891164e-03 8.057415e-03 8.221842e-03 8.383902e-03 8.543805e-03 8.701009e-03 8.855701e-03 9.007342e-03 9.156093e-03 9.301423e-03 9.443465e-03 9.581699e-03 9.716229e-03 9.846550e-03 9.972736e-03 1.009430e-02 1.021128e-02 1.032322e-02 1.043013e-02 1.053157e-02 1.062752e-02 1.071756e-02 1.080166e-02 1.087942e-02 1.095078e-02 1.101538e-02 1.107313e-02 1.112372e-02 1.116701e-02 1.120274e-02 1.123076e-02 1.125083e-02 1.126281e-02 1.126647e-02 1.126167e-02 1.124824e-02 1.122600e-02 1.119484e-02 1.115457e-02 1.110513e-02 1.104632e-02 1.097813e-02 1.090037e-02 1.081305e-02 1.071601e-02 1.060930e-02 1.049275e-02 1.036649e-02 1.023035e-02 1.008448e-02 9.928759e-03 9.763371e-03 9.588209e-03 9.403503e-03 9.209170e-03 9.005481e-03 8.792380e-03 8.570173e-03 8.338837e-03 8.098711e-03 7.849806e-03 7.592491e-03 7.326812e-03 7.053168e-03 6.771639e-03 6.482649e-03 6.186316e-03 5.883084e-03 5.573109e-03 5.256853e-03 4.934508e-03 4.606549e-03 4.273206e-03 3.934962e-03 3.592083e-03 3.245056e-03 2.894182e-03 2.539947e-03 2.182685e-03 1.822878e-03 1.460890e-03 1.097194e-03 7.321812e-04 3.663105e-04 4.574693e-16 -3.663105e-04 -7.321812e-04 -1.097194e-03 -1.460890e-03 -1.822878e-03 -2.182685e-03 -2.539947e-03 -2.894182e-03 -3.245056e-03 -3.592083e-03 -3.934962e-03 -4.273206e-03 -4.606549e-03 -4.934508e-03 -5.256853e-03 -5.573109e-03 -5.883084e-03 -6.186316e-03 -6.482649e-03 -6.771639e-03 -7.053168e-03 -7.326812e-03 -7.592491e-03 -7.849806e-03 -8.098711e-03 -8.338837e-03 -8.570173e-03 -8.792380e-03 -9.005481e-03 -9.209170e-03 -9.403503e-03 -9.588209e-03 -9.763371e-03 -9.928759e-03 -1.008448e-02 -1.023035e-02 -1.036649e-02 -1.049275e-02 -1.060930e-02 -1.071601e-02 -1.081305e-02 -1.090037e-02 -1.097813e-02 -1.104632e-02 -1.110513e-02 -1.115457e-02 -1.119484e-02 -1.122600e-02 -1.124824e-02 -1.126167e-02 -1.126647e-02 -1.126281e-02 -1.125083e-02 -1.123076e-02 -1.120274e-02 -1.116701e-02 -1.112372e-02 -1.107313e-02 -1.101538e-02 -1.095078e-02 -1.087942e-02 -1.080166e-02 -1.071756e-02 -1.062752e-02 -1.053157e-02 -1.043013e-02 -1.032322e-02 -1.021128e-02 -1.009430e-02 -9.972736e-03 -9.846550e-03 -9.716229e-03 -9.581699e-03 -9.443465e-03 -9.301423e-03 -9.156093e-03 -9.007342e-03 -8.855701e-03 -8.701009e-03 -8.543805e-03 -8.383902e-03 -8.221842e-03 -8.057415e-03 -7.891164e-03 -7.722855e-03 -7.553032e-03 -7.381439e-03 -7.208614e-03 -7.034286e-03 -6.858983e-03 -6.682419e-03 -6.505114e-03 -6.326766e-03 -6.147883e-03 -5.968155e-03 -5.788073e-03 -5.607322e-03 -5.426372e-03 -5.244907e-03 -5.063377e-03 -4.881463e-03 -4.699594e-03 -4.517456e-03 -4.335450e-03 -4.153269e-03 -3.971288e-03 -3.789209e-03 -3.607379e-03 -3.425513e-03 -3.243926e-03 -3.062349e-03 -2.881066e-03 -2.699825e-03 -2.518879e-03 -2.337997e-03 -2.157395e-03 -1.976869e-03 -1.796599e-03 -1.616405e-03 -1.436434e-03 -1.256534e-03 -1.076815e-03 -8.971537e-04 -7.176267e-04 -5.381408e-04 -3.587371e-04 -1.793547e-04 
-1.390377e-15 1.179870e-04 2.360246e-04 3.541260e-04 4.723786e-04 5.907575e-04 7.093858e-04 8.282002e-04 9.473582e-04 1.066758e-03 1.186591e-03 1.306716e-03 1.427355e-03 1.548331e-03 1.669895e-03 1.791830e-03 1.914417e-03 2.037402e-03 2.161089e-03 2.285191e-03 2.410032e-03 2.535293e-03 2.661316e-03 2.787749e-03 2.914951e-03 3.042538e-03 3.170885e-03 3.299575e-03 3.428995e-03 3.558702e-03 3.689088e-03 3.819683e-03 3.950887e-03 4.082204e-03 4.214035e-03 4.345863e-03 4.478086e-03 4.610170e-03 4.742504e-03 4.874541e-03 5.006660e-03 5.138299e-03 5.269826e-03 5.400669e-03 5.531181e-03 5.660782e-03 5.789806e-03 5.917669e-03 6.044685e-03 6.170268e-03 6.294709e-03 6.417424e-03 6.538679e-03 6.657895e-03 6.775310e-03 6.890356e-03 7.003239e-03 7.113404e-03 7.221029e-03 7.325573e-03 7.427183e-03 7.525336e-03 7.620148e-03 7.711120e-03 7.798336e-03 7.881320e-03 7.960127e-03 8.034309e-03 8.103892e-03 8.168457e-03 8.228004e-03 8.282145e-03 8.330855e-03 8.373783e-03 8.410878e-03 8.441826e-03 8.466558e-03 8.484798e-03 8.496458e-03 8.501303e-03 8.499231e-03 8.490050e-03 8.473646e-03 8.449871e-03 8.418602e-03 8.379734e-03 8.333144e-03 8.278769e-03 8.216486e-03 8.146277e-03 8.068023e-03 7.981750e-03 7.887346e-03 7.784882e-03 7.674256e-03 7.555581e-03 7.428773e-03 7.293983e-03 7.151145e-03 7.000452e-03 6.841857e-03 6.675591e-03 6.501632e-03 6.320244e-03 6.131432e-03 5.935492e-03 5.732459e-03 5.522655e-03 5.306148e-03 5.083283e-03 4.854160e-03 4.619147e-03 4.378374e-03 4.132229e-03 3.880874e-03 3.624709e-03 3.363929e-03 3.098945e-03 2.829984e-03 2.557459e-03 2.281629e-03 2.002910e-03 1.721589e-03 1.438077e-03 1.152690e-03 8.658306e-04 5.778393e-04 2.891090e-04 5.227236e-16 -2.891090e-04 -5.778393e-04 -8.658306e-04 -1.152690e-03 -1.438077e-03 -1.721589e-03 -2.002910e-03 -2.281629e-03 -2.557459e-03 -2.829984e-03 -3.098945e-03 -3.363929e-03 -3.624709e-03 -3.880874e-03 -4.132229e-03 -4.378374e-03 -4.619147e-03 -4.854160e-03 -5.083283e-03 -5.306148e-03 -5.522655e-03 -5.732459e-03 -5.935492e-03 -6.131432e-03 -6.320244e-03 -6.501632e-03 -6.675591e-03 -6.841857e-03 -7.000452e-03 -7.151145e-03 -7.293983e-03 -7.428773e-03 -7.555581e-03 -7.674256e-03 -7.784882e-03 -7.887346e-03 -7.981750e-03 -8.068023e-03 -8.146277e-03 -8.216486e-03 -8.278769e-03 -8.333144e-03 -8.379734e-03 -8.418602e-03 -8.449871e-03 -8.473646e-03 -8.490050e-03 -8.499231e-03 -8.501303e-03 -8.496458e-03 -8.484798e-03 -8.466558e-03 -8.441826e-03 -8.410878e-03 -8.373783e-03 -8.330855e-03 -8.282145e-03 -8.228004e-03 -8.168457e-03 -8.103892e-03 -8.034309e-03 -7.960127e-03 -7.881320e-03 -7.798336e-03 -7.711120e-03 -7.620148e-03 -7.525336e-03 -7.427183e-03 -7.325573e-03 -7.221029e-03 -7.113404e-03 -7.003239e-03 -6.890356e-03 -6.775310e-03 -6.657895e-03 -6.538679e-03 -6.417424e-03 -6.294709e-03 -6.170268e-03 -6.044685e-03 -5.917669e-03 -5.789806e-03 -5.660782e-03 -5.531181e-03 -5.400669e-03 -5.269826e-03 -5.138299e-03 -5.006660e-03 -4.874541e-03 -4.742504e-03 -4.610170e-03 -4.478086e-03 -4.345863e-03 -4.214035e-03 -4.082204e-03 -3.950887e-03 -3.819683e-03 -3.689088e-03 -3.558702e-03 -3.428995e-03 -3.299575e-03 -3.170885e-03 -3.042538e-03 -2.914951e-03 -2.787749e-03 -2.661316e-03 -2.535293e-03 -2.410032e-03 -2.285191e-03 -2.161089e-03 -2.037402e-03 -1.914417e-03 -1.791830e-03 -1.669895e-03 -1.548331e-03 -1.427355e-03 -1.306716e-03 -1.186591e-03 -1.066758e-03 -9.473582e-04 -8.282002e-04 -7.093858e-04 -5.907575e-04 -4.723786e-04 -3.541260e-04 -2.360246e-04 -1.179870e-04 
-1.700432e-15 5.662119e-05 1.133158e-04 1.701179e-04 2.271395e-04 2.843750e-04 3.419742e-04 3.998912e-04 4.583127e-04 5.171527e-04 5.766329e-04 6.366278e-04 6.973926e-04 7.587624e-04 8.210241e-04 8.839742e-04 9.479293e-04 1.012648e-03 1.078474e-03 1.145129e-03 1.212982e-03 1.281719e-03 1.351731e-03 1.422670e-03 1.494945e-03 1.568178e-03 1.642793e-03 1.718379e-03 1.795376e-03 1.873344e-03 1.952730e-03 2.033069e-03 2.114815e-03 2.197476e-03 2.281511e-03 2.366406e-03 2.452617e-03 2.539611e-03 2.627842e-03 2.716757e-03 2.806803e-03 2.897415e-03 2.989026e-03 3.081060e-03 3.173935e-03 3.267069e-03 3.360861e-03 3.454722e-03 3.549033e-03 3.643202e-03 3.737585e-03 3.831591e-03 3.925553e-03 4.018882e-03 4.111882e-03 4.203973e-03 4.295429e-03 4.385680e-03 4.474969e-03 4.562741e-03 4.649205e-03 4.733822e-03 4.816770e-03 4.897530e-03 4.976247e-03 5.052424e-03 5.126173e-03 5.197024e-03 5.265056e-03 5.329828e-03 5.391388e-03 5.449326e-03 5.503661e-03 5.554017e-03 5.600385e-03 5.642423e-03 5.680100e-03 5.713110e-03 5.741399e-03 5.764702e-03 5.782945e-03 5.795903e-03 5.803488e-03 5.805514e-03 5.801881e-03 5.792448e-03 5.777104e-03 5.755750e-03 5.728272e-03 5.694613e-03 5.654659e-03 5.608393e-03 5.555706e-03 5.496622e-03 5.431039e-03 5.359021e-03 5.280475e-03 5.195507e-03 5.104038e-03 5.006208e-03 4.901957e-03 4.791461e-03 4.674679e-03 4.551820e-03 4.422865e-03 4.288055e-03 4.147394e-03 4.001150e-03 3.849356e-03 3.692302e-03 3.530048e-03 3.362905e-03 3.190964e-03 3.014551e-03 2.833786e-03 2.649009e-03 2.460368e-03 2.268213e-03 2.072722e-03 1.874247e-03 1.672997e-03 1.469323e-03 1.263461e-03 1.055761e-03 8.464821e-04 6.359672e-04 4.244984e-04 2.124087e-04 9.159233e-16 -2.124087e-04 -4.244984e-04 -6.359672e-04 -8.464821e-04 -1.055761e-03 -1.263461e-03 -1.469323e-03 -1.672997e-03 -1.874247e-03 -2.072722e-03 -2.268213e-03 -2.460368e-03 -2.649009e-03 -2.833786e-03 -3.014551e-03 -3.190964e-03 -3.362905e-03 -3.530048e-03 -3.692302e-03 -3.849356e-03 -4.001150e-03 -4.147394e-03 -4.288055e-03 -4.422865e-03 -4.551820e-03 -4.674679e-03 -4.791461e-03 -4.901957e-03 -5.006208e-03 -5.104038e-03 -5.195507e-03 -5.280475e-03 -5.359021e-03 -5.431039e-03 -5.496622e-03 -5.555706e-03 -5.608393e-03 -5.654659e-03 -5.694613e-03 -5.728272e-03 -5.755750e-03 -5.777104e-03 -5.792448e-03 -5.801881e-03 -5.805514e-03 -5.803488e-03 -5.795903e-03 -5.782945e-03 -5.764702e-03 -5.741399e-03 -5.713110e-03 -5.680100e-03 -5.642423e-03 -5.600385e-03 -5.554017e-03 -5.503661e-03 -5.449326e-03 -5.391388e-03 -5.329828e-03 -5.265056e-03 -5.197024e-03 -5.126173e-03 -5.052424e-03 -4.976247e-03 -4.897530e-03 -4.816770e-03 -4.733822e-03 -4.649205e-03 -4.562741e-03 -4.474969e-03 -4.385680e-03 -4.295429e-03 -4.203973e-03 -4.111882e-03 -4.018882e-03 -3.925553e-03 -3.831591e-03 -3.737585e-03 -3.643202e-03 -3.549033e-03 -3.454722e-03 -3.360861e-03 -3.267069e-03 -3.173935e-03 -3.081060e-03 -2.989026e-03 -2.897415e-03 -2.806803e-03 -2.716757e-03 -2.627842e-03 -2.539611e-03 -2.452617e-03 -2.366406e-03 -2.281511e-03 -2.197476e-03 -2.114815e-03 -2.033069e-03 -1.952730e-03 -1.873344e-03 -1.795376e-03 -1.718379e-03 -1.642793e-03 -1.568178e-03 -1.494945e-03 -1.422670e-03 -1.351731e-03 -1.281719e-03 -1.212982e-03 -1.145129e-03 -1.078474e-03 -1.012648e-03 -9.479293e-04 -8.839742e-04 -8.210241e-04 -7.587624e-04 -6.973926e-04 -6.366278e-04 -5.766329e-04 -5.171527e-04 -4.583127e-04 -3.998912e-04 -3.419742e-04 -2.843750e-04 -2.271395e-04 -1.701179e-04 -1.133158e-04 -5.662119e-05 
-2.215683e-15 -4.851423e-06 -9.606142e-06 -1.421020e-05 -1.852472e-05 -2.253886e-05 -2.607239e-05 -2.915769e-05 -3.157426e-05 -3.339760e-05 -3.436822e-05 -3.460446e-05 -3.380939e-05 -3.214364e-05 -2.927462e-05 -2.540459e-05 -2.016729e-05 -1.380570e-05 -5.922138e-06 3.200797e-06 1.398969e-05 2.612361e-05 4.005536e-05 5.542713e-05 7.271503e-05 9.152599e-05 1.123563e-04 1.347795e-04 1.593087e-04 1.854859e-04 2.138379e-04 2.438772e-04 2.761405e-04 3.101131e-04 3.463379e-04 3.842757e-04 4.244720e-04 4.663650e-04 5.104992e-04 5.562933e-04 6.042867e-04 6.538814e-04 7.056080e-04 7.588547e-04 8.141398e-04 8.708405e-04 9.294593e-04 9.893655e-04 1.051043e-03 1.113855e-03 1.178264e-03 1.243632e-03 1.310396e-03 1.377921e-03 1.446614e-03 1.515845e-03 1.585993e-03 1.656435e-03 1.727518e-03 1.798632e-03 1.870089e-03 1.941294e-03 2.012526e-03 2.083207e-03 2.153579e-03 2.223087e-03 2.291940e-03 2.359602e-03 2.426250e-03 2.491375e-03 2.555118e-03 2.617002e-03 2.677133e-03 2.735065e-03 2.790875e-03 2.844151e-03 2.894939e-03 2.942864e-03 2.987945e-03 3.029844e-03 3.068558e-03 3.103788e-03 3.135508e-03 3.163459e-03 3.187600e-03 3.207713e-03 3.223740e-03 3.235507e-03 3.242946e-03 3.245923e-03 3.244365e-03 3.238178e-03 3.227287e-03 3.211639e-03 3.191158e-03 3.165834e-03 3.135595e-03 3.100467e-03 3.060389e-03 3.015423e-03 2.965518e-03 2.910773e-03 2.851150e-03 2.786781e-03 2.717646e-03 2.643907e-03 2.565563e-03 2.482802e-03 2.395644e-03 2.304305e-03 2.208825e-03 2.109441e-03 2.006218e-03 1.899409e-03 1.789106e-03 1.675573e-03 1.558928e-03 1.439446e-03 1.317268e-03 1.192677e-03 1.065838e-03 9.370346e-04 8.064557e-04 6.743845e-04 5.410302e-04 4.066718e-04 2.715377e-04 1.358986e-04 1.389176e-15 -1.358986e-04 -2.715377e-04 -4.066718e-04 -5.410302e-04 -6.743845e-04 -8.064557e-04 -9.370346e-04 -1.065838e-03 -1.192677e-03 -1.317268e-03 -1.439446e-03 -1.558928e-03 -1.675573e-03 -1.789106e-03 -1.899409e-03 -2.006218e-03 -2.109441e-03 -2.208825e-03 -2.304305e-03 -2.395644e-03 -2.482802e-03 -2.565563e-03 -2.643907e-03 -2.717646e-03 -2.786781e-03 -2.851150e-03 -2.910773e-03 -2.965518e-03 -3.015423e-03 -3.060389e-03 -3.100467e-03 -3.135595e-03 -3.165834e-03 -3.191158e-03 -3.211639e-03 -3.227287e-03 -3.238178e-03 -3.244365e-03 -3.245923e-03 -3.242946e-03 -3.235507e-03 -3.223740e-03 -3.207713e-03 -3.187600e-03 -3.163459e-03 -3.135508e-03 -3.103788e-03 -3.068558e-03 -3.029844e-03 -2.987945e-03 -2.942864e-03 -2.894939e-03 -2.844151e-03 -2.790875e-03 -2.735065e-03 -2.677133e-03 -2.617002e-03 -2.555118e-03 -2.491375e-03 -2.426250e-03 -2.359602e-03 -2.291940e-03 -2.223087e-03 -2.153579e-03 -2.083207e-03 -2.012526e-03 -1.941294e-03 -1.870089e-03 -1.798632e-03 -1.727518e-03 -1.656435e-03 -1.585993e-03 -1.515845e-03 -1.446614e-03 -1.377921e-03 -1.310396e-03 -1.243632e-03 -1.178264e-03 -1.113855e-03 -1.051043e-03 -9.893655e-04 -9.294593e-04 -8.708405e-04 -8.141398e-04 -7.588547e-04 -7.056080e-04 -6.538814e-04 -6.042867e-04 -5.562933e-04 -5.104992e-04 -4.663650e-04 -4.244720e-04 -3.842757e-04 -3.463379e-04 -3.101131e-04 -2.761405e-04 -2.438772e-04 -2.138379e-04 -1.854859e-04 -1.593087e-04 -1.347795e-04 -1.123563e-04 -9.152599e-05 -7.271503e-05 -5.542713e-05 -4.005536e-05 -2.612361e-05 -1.398969e-05 -3.200797e-06 5.922138e-06 1.380570e-05 2.016729e-05 2.540459e-05 2.927462e-05 3.214364e-05 3.380939e-05 3.460446e-05 3.436822e-05 3.339760e-05 3.157426e-05 2.915769e-05 2.607239e-05 2.253886e-05 1.852472e-05 1.421020e-05 9.606142e-06 4.851423e-06 