# vtk DataFile Version 2.0
Comment goes here
ASCII

DATASET STRUCTURED_POINTS
FIELD FieldData 1
TIME 1 1 double
0.02000000
DIMENSIONS    256   256   1

ORIGIN    0.000   0.000   0.000
SPACING   0.0039062 0.0039062   1.000

POINT_DATA   65536
SCALARS uY double
LOOKUP_TABLE default

-1.723441e-01 -1.723754e-01 -1.724670e-01 -1.726211e-01 -1.728354e-01 -1.731121e-01 -1.734489e-01 -1.738479e-01 -1.743066e-01 -1.748273e-01 -1.754074e-01 -1.760490e-01 -1.767496e-01 -1.775113e-01 -1.783315e-01 -1.792121e-01 -1.801507e-01 -1.811490e-01 -1.822046e-01 -1.833191e-01 -1.844902e-01 -1.857194e-01 -1.870041e-01 -1.883460e-01 -1.897426e-01 -1.911951e-01 -1.927013e-01 -1.942622e-01 -1.958756e-01 -1.975424e-01 -1.992604e-01 -2.010304e-01 -2.028501e-01 -2.047204e-01 -2.066388e-01 -2.086061e-01 -2.106199e-01 -2.126808e-01 -2.147865e-01 -2.169373e-01 -2.191310e-01 -2.213678e-01 -2.236455e-01 -2.259642e-01 -2.283215e-01 -2.307176e-01 -2.331501e-01 -2.356188e-01 -2.381216e-01 -2.406582e-01 -2.432262e-01 -2.458253e-01 -2.484534e-01 -2.511096e-01 -2.537920e-01 -2.564997e-01 -2.592307e-01 -2.619840e-01 -2.647576e-01 -2.675503e-01 -2.703602e-01 -2.731860e-01 -2.760258e-01 -2.788781e-01 -2.817411e-01 -2.846131e-01 -2.874925e-01 -2.903773e-01 -2.932661e-01 -2.961567e-01 -2.990477e-01 -3.019368e-01 -3.048226e-01 -3.077029e-01 -3.105763e-01 -3.134403e-01 -3.162937e-01 -3.191339e-01 -3.219597e-01 -3.247684e-01 -3.275591e-01 -3.303288e-01 -3.330767e-01 -3.357998e-01 -3.384973e-01 -3.411662e-01 -3.438057e-01 -3.464127e-01 -3.489868e-01 -3.515246e-01 -3.540257e-01 -3.564869e-01 -3.589079e-01 -3.612853e-01 -3.636188e-01 -3.659054e-01 -3.681447e-01 -3.703335e-01 -3.724718e-01 -3.745562e-01 -3.765869e-01 -3.785607e-01 -3.804777e-01 -3.823346e-01 -3.841319e-01 -3.858663e-01 -3.875383e-01 -3.891446e-01 -3.906861e-01 -3.921594e-01 -3.935654e-01 -3.949010e-01 -3.961671e-01 -3.973607e-01 -3.984829e-01 -3.995307e-01 -4.005053e-01 -4.014039e-01 -4.022278e-01 -4.029743e-01 -4.036448e-01 -4.042368e-01 -4.047518e-01 -4.051872e-01 -4.055450e-01 -4.058226e-01 -4.060220e-01 -4.061408e-01 -4.061812e-01 -4.061408e-01 -4.060220e-01 -4.058226e-01 -4.055450e-01 -4.051872e-01 -4.047518e-01 -4.042368e-01 -4.036448e-01 -4.029743e-01 -4.022278e-01 -4.014039e-01 -4.005053e-01 -3.995307e-01 -3.984829e-01 -3.973607e-01 -3.961671e-01 -3.949010e-01 -3.935654e-01 -3.921594e-01 -3.906861e-01 -3.891446e-01 -3.875383e-01 -3.858663e-01 -3.841319e-01 -3.823346e-01 -3.804777e-01 -3.785607e-01 -3.765869e-01 -3.745562e-01 -3.724718e-01 -3.703335e-01 -3.681447e-01 -3.659054e-01 -3.636188e-01 -3.612853e-01 -3.589079e-01 -3.564869e-01 -3.540257e-01 -3.515246e-01 -3.489868e-01 -3.464127e-01 -3.438057e-01 -3.411662e-01 -3.384973e-01 -3.357998e-01 -3.330767e-01 -3.303288e-01 -3.275591e-01 -3.247684e-01 -3.219597e-01 -3.191339e-01 -3.162937e-01 -3.134403e-01 -3.105763e-01 -3.077029e-01 -3.048226e-01 -3.019368e-01 -2.990477e-01 -2.961567e-01 -2.932661e-01 -2.903773e-01 -2.874925e-01 -2.846131e-01 -2.817411e-01 -2.788781e-01 -2.760258e-01 -2.731860e-01 -2.703602e-01 -2.675503e-01 -2.647576e-01 -2.619840e-01 -2.592307e-01 -2.564997e-01 -2.537920e-01 -2.511096e-01 -2.484534e-01 -2.458253e-01 -2.432262e-01 -2.406582e-01 -2.381216e-01 -2.356188e-01 -2.331501e-01 -2.307176e-01 -2.283215e-01 -2.259642e-01 -2.236455e-01 -2.213678e-01 -2.191310e-01 -2.169373e-01 -2.147865e-01 -2.126808e-01 -2.106199e-01 -2.086061e-01 -2.066388e-01 -2.047204e-01 -2.028501e-01 -2.010304e-01 -1.992604e-01 -1.975424e-01 -1.958756e-01 -1.942622e-01 -1.927013e-01 -1.911951e-01 -1.897426e-01 -1.883460e-01 -1.870041e-01 -1.857194e-01 -1.844902e-01 -1.833191e-01 -1.822046e-01 -1.811490e-01 -1.801507e-01 -1.792121e-01 -1.783315e-01 -1.775113e-01 -1.767496e-01 -1.760490e-01 -1.754074e-01 -1.748273e-01 -1.743066e-01 -1.738479e-01 -1.734489e-01 -1.731121e-01 -1.728354e-01 -1.726211e-01 -1.724670e-01 -1.723754e-01 
-1.727376e-01 -1.727688e-01 -1.728604e-01 -1.730143e-01 -1.732284e-01 -1.735049e-01 -1.738414e-01 -1.742399e-01 -1.746983e-01 -1.752184e-01 -1.757979e-01 -1.764389e-01 -1.771388e-01 -1.778996e-01 -1.787190e-01 -1.795986e-01 -1.805361e-01 -1.815333e-01 -1.825877e-01 -1.837009e-01 -1.848705e-01 -1.860981e-01 -1.873812e-01 -1.887213e-01 -1.901159e-01 -1.915664e-01 -1.930703e-01 -1.946290e-01 -1.962398e-01 -1.979040e-01 -1.996191e-01 -2.013862e-01 -2.032027e-01 -2.050696e-01 -2.069845e-01 -2.089481e-01 -2.109579e-01 -2.130147e-01 -2.151159e-01 -2.172622e-01 -2.194510e-01 -2.216828e-01 -2.239551e-01 -2.262682e-01 -2.286198e-01 -2.310097e-01 -2.334359e-01 -2.358980e-01 -2.383940e-01 -2.409233e-01 -2.434839e-01 -2.460753e-01 -2.486953e-01 -2.513432e-01 -2.540169e-01 -2.567157e-01 -2.594375e-01 -2.621812e-01 -2.649450e-01 -2.677275e-01 -2.705270e-01 -2.733420e-01 -2.761708e-01 -2.790117e-01 -2.818630e-01 -2.847231e-01 -2.875903e-01 -2.904627e-01 -2.933386e-01 -2.962162e-01 -2.990938e-01 -3.019693e-01 -3.048414e-01 -3.077076e-01 -3.105667e-01 -3.134162e-01 -3.162549e-01 -3.190801e-01 -3.218909e-01 -3.246844e-01 -3.274597e-01 -3.302139e-01 -3.329461e-01 -3.356535e-01 -3.383351e-01 -3.409880e-01 -3.436116e-01 -3.462027e-01 -3.487607e-01 -3.512825e-01 -3.537677e-01 -3.562130e-01 -3.586181e-01 -3.609797e-01 -3.632976e-01 -3.655687e-01 -3.677926e-01 -3.699662e-01 -3.720895e-01 -3.741593e-01 -3.761755e-01 -3.781350e-01 -3.800380e-01 -3.818813e-01 -3.836653e-01 -3.853868e-01 -3.870462e-01 -3.886404e-01 -3.901701e-01 -3.916321e-01 -3.930273e-01 -3.943525e-01 -3.956087e-01 -3.967929e-01 -3.979062e-01 -3.989457e-01 -3.999125e-01 -4.008039e-01 -4.016212e-01 -4.023617e-01 -4.030268e-01 -4.036139e-01 -4.041248e-01 -4.045567e-01 -4.049116e-01 -4.051869e-01 -4.053847e-01 -4.055025e-01 -4.055425e-01 -4.055025e-01 -4.053847e-01 -4.051869e-01 -4.049116e-01 -4.045567e-01 -4.041248e-01 -4.036139e-01 -4.030268e-01 -4.023617e-01 -4.016212e-01 -4.008039e-01 -3.999125e-01 -3.989457e-01 -3.979062e-01 -3.967929e-01 -3.956087e-01 -3.943525e-01 -3.930273e-01 -3.916321e-01 -3.901701e-01 -3.886404e-01 -3.870462e-01 -3.853868e-01 -3.836653e-01 -3.818813e-01 -3.800380e-01 -3.781350e-01 -3.761755e-01 -3.741593e-01 -3.720895e-01 -3.699662e-01 -3.677926e-01 -3.655687e-01 -3.632976e-01 -3.609797e-01 -3.586181e-01 -3.562130e-01 -3.537677e-01 -3.512825e-01 -3.487607e-01 -3.462027e-01 -3.436116e-01 -3.409880e-01 -3.383351e-01 -3.356535e-01 -3.329461e-01 -3.302139e-01 -3.274597e-01 -3.246844e-01 -3.218909e-01 -3.190801e-01 -3.162549e-01 -3.134162e-01 -3.105667e-01 -3.077076e-01 -3.048414e-01 -3.019693e-01 -2.990938e-01 -2.962162e-01 -2.933386e-01 -2.904627e-01 -2.875903e-01 -2.847231e-01 -2.818630e-01 -2.790117e-01 -2.761708e-01 -2.733420e-01 -2.705270e-01 -2.677275e-01 -2.649450e-01 -2.621812e-01 -2.594375e-01 -2.567157e-01 -2.540169e-01 -2.513432e-01 -2.486953e-01 -2.460753e-01 -2.434839e-01 -2.409233e-01 -2.383940e-01 -2.358980e-01 -2.334359e-01 -2.310097e-01 -2.286198e-01 -2.262682e-01 -2.239551e-01 -2.216828e-01 -2.194510e-01 -2.172622e-01 -2.151159e-01 -2.130147e-01 -2.109579e-01 -2.089481e-01 -2.069845e-01 -2.050696e-01 -2.032027e-01 -2.013862e-01 -1.996191e-01 -1.979040e-01 -1.962398e-01 -1.946290e-01 -1.930703e-01 -1.915664e-01 -1.901159e-01 -1.887213e-01 -1.873812e-01 -1.860981e-01 -1.848705e-01 -1.837009e-01 -1.825877e-01 -1.815333e-01 -1.805361e-01 -1.795986e-01 -1.787190e-01 -1.778996e-01 -1.771388e-01 -1.764389e-01 -1.757979e-01 -1.752184e-01 -1.746983e-01 -1.742399e-01 -1.738414e-01 -1.735049e-01 -1.732284e-01 -1.730143e-01 -1.728604e-01 -1.727688e-01 
-1.730708e-01 -1.731020e-01 -1.731935e-01 -1.733474e-01 -1.735614e-01 -1.738377e-01 -1.741739e-01 -1.745723e-01 -1.750303e-01 -1.755501e-01 -1.761293e-01 -1.767698e-01 -1.774692e-01 -1.782296e-01 -1.790483e-01 -1.799273e-01 -1.808641e-01 -1.818605e-01 -1.829141e-01 -1.840263e-01 -1.851950e-01 -1.864215e-01 -1.877034e-01 -1.890422e-01 -1.904354e-01 -1.918845e-01 -1.933868e-01 -1.949437e-01 -1.965527e-01 -1.982149e-01 -1.999280e-01 -2.016928e-01 -2.035069e-01 -2.053713e-01 -2.072834e-01 -2.092441e-01 -2.112509e-01 -2.133044e-01 -2.154023e-01 -2.175449e-01 -2.197299e-01 -2.219577e-01 -2.242258e-01 -2.265344e-01 -2.288813e-01 -2.312664e-01 -2.336874e-01 -2.361441e-01 -2.386344e-01 -2.411579e-01 -2.437123e-01 -2.462973e-01 -2.489106e-01 -2.515516e-01 -2.542182e-01 -2.569095e-01 -2.596235e-01 -2.623592e-01 -2.651147e-01 -2.678887e-01 -2.706793e-01 -2.734851e-01 -2.763045e-01 -2.791357e-01 -2.819771e-01 -2.848269e-01 -2.876836e-01 -2.905452e-01 -2.934101e-01 -2.962763e-01 -2.991424e-01 -3.020062e-01 -3.048662e-01 -3.077202e-01 -3.105668e-01 -3.134036e-01 -3.162294e-01 -3.190416e-01 -3.218391e-01 -3.246192e-01 -3.273809e-01 -3.301214e-01 -3.328398e-01 -3.355332e-01 -3.382008e-01 -3.408397e-01 -3.434491e-01 -3.460259e-01 -3.485697e-01 -3.510773e-01 -3.535482e-01 -3.559793e-01 -3.583702e-01 -3.607178e-01 -3.630217e-01 -3.652789e-01 -3.674890e-01 -3.696491e-01 -3.717589e-01 -3.738154e-01 -3.758186e-01 -3.777653e-01 -3.796557e-01 -3.814868e-01 -3.832588e-01 -3.849685e-01 -3.866166e-01 -3.881998e-01 -3.897189e-01 -3.911707e-01 -3.925560e-01 -3.938718e-01 -3.951191e-01 -3.962948e-01 -3.974001e-01 -3.984320e-01 -3.993918e-01 -4.002767e-01 -4.010880e-01 -4.018230e-01 -4.024832e-01 -4.030660e-01 -4.035730e-01 -4.040017e-01 -4.043539e-01 -4.046272e-01 -4.048235e-01 -4.049405e-01 -4.049802e-01 -4.049405e-01 -4.048235e-01 -4.046272e-01 -4.043539e-01 -4.040017e-01 -4.035730e-01 -4.030660e-01 -4.024832e-01 -4.018230e-01 -4.010880e-01 -4.002767e-01 -3.993918e-01 -3.984320e-01 -3.974001e-01 -3.962948e-01 -3.951191e-01 -3.938718e-01 -3.925560e-01 -3.911707e-01 -3.897189e-01 -3.881998e-01 -3.866166e-01 -3.849685e-01 -3.832588e-01 -3.814868e-01 -3.796557e-01 -3.777653e-01 -3.758186e-01 -3.738154e-01 -3.717589e-01 -3.696491e-01 -3.674890e-01 -3.652789e-01 -3.630217e-01 -3.607178e-01 -3.583702e-01 -3.559793e-01 -3.535482e-01 -3.510773e-01 -3.485697e-01 -3.460259e-01 -3.434491e-01 -3.408397e-01 -3.382008e-01 -3.355332e-01 -3.328398e-01 -3.301214e-01 -3.273809e-01 -3.246192e-01 -3.218391e-01 -3.190416e-01 -3.162294e-01 -3.134036e-01 -3.105668e-01 -3.077202e-01 -3.048662e-01 -3.020062e-01 -2.991424e-01 -2.962763e-01 -2.934101e-01 -2.905452e-01 -2.876836e-01 -2.848269e-01 -2.819771e-01 -2.791357e-01 -2.763045e-01 -2.734851e-01 -2.706793e-01 -2.678887e-01 -2.651147e-01 -2.623592e-01 -2.596235e-01 -2.569095e-01 -2.542182e-01 -2.515516e-01 -2.489106e-01 -2.462973e-01 -2.437123e-01 -2.411579e-01 -2.386344e-01 -2.361441e-01 -2.336874e-01 -2.312664e-01 -2.288813e-01 -2.265344e-01 -2.242258e-01 -2.219577e-01 -2.197299e-01 -2.175449e-01 -2.154023e-01 -2.133044e-01 -2.112509e-01 -2.092441e-01 -2.072834e-01 -2.053713e-01 -2.035069e-01 -2.016928e-01 -1.999280e-01 -1.982149e-01 -1.965527e-01 -1.949437e-01 -1.933868e-01 -1.918845e-01 -1.904354e-01 -1.890422e-01 -1.877034e-01 -1.864215e-01 -1.851950e-01 -1.840263e-01 -1.829141e-01 -1.818605e-01 -1.808641e-01 -1.799273e-01 -1.790483e-01 -1.782296e-01 -1.774692e-01 -1.767698e-01 -1.761293e-01 -1.755501e-01 -1.750303e-01 -1.745723e-01 -1.741739e-01 -1.738377e-01 -1.735614e-01 -1.733474e-01 -1.731935e-01 -1.731020e-01 
-1.733416e-01 -1.733729e-01 -1.734643e-01 -1.736181e-01 -1.738321e-01 -1.741083e-01 -1.744445e-01 -1.748427e-01 -1.753006e-01 -1.758203e-01 -1.763993e-01 -1.770396e-01 -1.777389e-01 -1.784989e-01 -1.793174e-01 -1.801961e-01 -1.811326e-01 -1.821286e-01 -1.831816e-01 -1.842934e-01 -1.854615e-01 -1.866874e-01 -1.879686e-01 -1.893067e-01 -1.906991e-01 -1.921472e-01 -1.936485e-01 -1.952044e-01 -1.968122e-01 -1.984732e-01 -2.001848e-01 -2.019481e-01 -2.037606e-01 -2.056232e-01 -2.075335e-01 -2.094922e-01 -2.114968e-01 -2.135481e-01 -2.156434e-01 -2.177834e-01 -2.199657e-01 -2.221905e-01 -2.244554e-01 -2.267608e-01 -2.291041e-01 -2.314854e-01 -2.339025e-01 -2.363551e-01 -2.388411e-01 -2.413600e-01 -2.439097e-01 -2.464896e-01 -2.490977e-01 -2.517332e-01 -2.543940e-01 -2.570794e-01 -2.597872e-01 -2.625164e-01 -2.652651e-01 -2.680321e-01 -2.708155e-01 -2.736139e-01 -2.764255e-01 -2.792488e-01 -2.820819e-01 -2.849233e-01 -2.877712e-01 -2.906238e-01 -2.934795e-01 -2.963363e-01 -2.991926e-01 -3.020465e-01 -3.048964e-01 -3.077400e-01 -3.105760e-01 -3.134020e-01 -3.162169e-01 -3.190179e-01 -3.218041e-01 -3.245727e-01 -3.273228e-01 -3.300515e-01 -3.327581e-01 -3.354395e-01 -3.380950e-01 -3.407216e-01 -3.433187e-01 -3.458833e-01 -3.484147e-01 -3.509099e-01 -3.533684e-01 -3.557871e-01 -3.581657e-01 -3.605010e-01 -3.627927e-01 -3.650377e-01 -3.672358e-01 -3.693839e-01 -3.714819e-01 -3.735268e-01 -3.755185e-01 -3.774539e-01 -3.793334e-01 -3.811536e-01 -3.829150e-01 -3.846145e-01 -3.862525e-01 -3.878261e-01 -3.893358e-01 -3.907785e-01 -3.921551e-01 -3.934626e-01 -3.947020e-01 -3.958702e-01 -3.969684e-01 -3.979936e-01 -3.989472e-01 -3.998263e-01 -4.006323e-01 -4.013624e-01 -4.020183e-01 -4.025972e-01 -4.031008e-01 -4.035267e-01 -4.038766e-01 -4.041480e-01 -4.043430e-01 -4.044592e-01 -4.044986e-01 -4.044592e-01 -4.043430e-01 -4.041480e-01 -4.038766e-01 -4.035267e-01 -4.031008e-01 -4.025972e-01 -4.020183e-01 -4.013624e-01 -4.006323e-01 -3.998263e-01 -3.989472e-01 -3.979936e-01 -3.969684e-01 -3.958702e-01 -3.947020e-01 -3.934626e-01 -3.921551e-01 -3.907785e-01 -3.893358e-01 -3.878261e-01 -3.862525e-01 -3.846145e-01 -3.829150e-01 -3.811536e-01 -3.793334e-01 -3.774539e-01 -3.755185e-01 -3.735268e-01 -3.714819e-01 -3.693839e-01 -3.672358e-01 -3.650377e-01 -3.627927e-01 -3.605010e-01 -3.581657e-01 -3.557871e-01 -3.533684e-01 -3.509099e-01 -3.484147e-01 -3.458833e-01 -3.433187e-01 -3.407216e-01 -3.380950e-01 -3.354395e-01 -3.327581e-01 -3.300515e-01 -3.273228e-01 -3.245727e-01 -3.218041e-01 -3.190179e-01 -3.162169e-01 -3.134020e-01 -3.105760e-01 -3.077400e-01 -3.048964e-01 -3.020465e-01 -2.991926e-01 -2.963363e-01 -2.934795e-01 -2.906238e-01 -2.877712e-01 -2.849233e-01 -2.820819e-01 -2.792488e-01 -2.764255e-01 -2.736139e-01 -2.708155e-01 -2.680321e-01 -2.652651e-01 -2.625164e-01 -2.597872e-01 -2.570794e-01 -2.543940e-01 -2.517332e-01 -2.490977e-01 -2.464896e-01 -2.439097e-01 -2.413600e-01 -2.388411e-01 -2.363551e-01 -2.339025e-01 -2.314854e-01 -2.291041e-01 -2.267608e-01 -2.244554e-01 -2.221905e-01 -2.199657e-01 -2.177834e-01 -2.156434e-01 -2.135481e-01 -2.114968e-01 -2.094922e-01 -2.075335e-01 -2.056232e-01 -2.037606e-01 -2.019481e-01 -2.001848e-01 -1.984732e-01 -1.968122e-01 -1.952044e-01 -1.936485e-01 -1.921472e-01 -1.906991e-01 -1.893067e-01 -1.879686e-01 -1.866874e-01 -1.854615e-01 -1.842934e-01 -1.831816e-01 -1.821286e-01 -1.811326e-01 -1.801961e-01 -1.793174e-01 -1.784989e-01 -1.777389e-01 -1.770396e-01 -1.763993e-01 -1.758203e-01 -1.753006e-01 -1.748427e-01 -1.744445e-01 -1.741083e-01 -1.738321e-01 -1.736181e-01 -1.734643e-01 -1.733729e-01 
-1.735521e-01 -1.735834e-01 -1.736748e-01 -1.738287e-01 -1.740426e-01 -1.743189e-01 -1.746551e-01 -1.750534e-01 -1.755114e-01 -1.760311e-01 -1.766101e-01 -1.772505e-01 -1.779498e-01 -1.787099e-01 -1.795284e-01 -1.804071e-01 -1.813435e-01 -1.823395e-01 -1.833925e-01 -1.845043e-01 -1.856722e-01 -1.868980e-01 -1.881790e-01 -1.895169e-01 -1.909090e-01 -1.923568e-01 -1.938578e-01 -1.954132e-01 -1.970205e-01 -1.986809e-01 -2.003918e-01 -2.021544e-01 -2.039661e-01 -2.058278e-01 -2.077371e-01 -2.096946e-01 -2.116980e-01 -2.137479e-01 -2.158418e-01 -2.179801e-01 -2.201606e-01 -2.223835e-01 -2.246464e-01 -2.269495e-01 -2.292905e-01 -2.316693e-01 -2.340837e-01 -2.365334e-01 -2.390163e-01 -2.415319e-01 -2.440781e-01 -2.466544e-01 -2.492586e-01 -2.518900e-01 -2.545466e-01 -2.572274e-01 -2.599305e-01 -2.626548e-01 -2.653984e-01 -2.681599e-01 -2.709377e-01 -2.737302e-01 -2.765357e-01 -2.793526e-01 -2.821792e-01 -2.850138e-01 -2.878547e-01 -2.907000e-01 -2.935482e-01 -2.963973e-01 -2.992458e-01 -3.020914e-01 -3.049330e-01 -3.077680e-01 -3.105953e-01 -3.134123e-01 -3.162180e-01 -3.190097e-01 -3.217864e-01 -3.245454e-01 -3.272856e-01 -3.300044e-01 -3.327008e-01 -3.353720e-01 -3.380172e-01 -3.406334e-01 -3.432200e-01 -3.457740e-01 -3.482948e-01 -3.507794e-01 -3.532272e-01 -3.556352e-01 -3.580031e-01 -3.603277e-01 -3.626088e-01 -3.648432e-01 -3.670308e-01 -3.691685e-01 -3.712563e-01 -3.732909e-01 -3.752726e-01 -3.771982e-01 -3.790679e-01 -3.808787e-01 -3.826308e-01 -3.843212e-01 -3.859505e-01 -3.875155e-01 -3.890169e-01 -3.904516e-01 -3.918206e-01 -3.931208e-01 -3.943531e-01 -3.955146e-01 -3.966065e-01 -3.976258e-01 -3.985739e-01 -3.994478e-01 -4.002491e-01 -4.009750e-01 -4.016270e-01 -4.022024e-01 -4.027031e-01 -4.031264e-01 -4.034742e-01 -4.037440e-01 -4.039379e-01 -4.040533e-01 -4.040926e-01 -4.040533e-01 -4.039379e-01 -4.037440e-01 -4.034742e-01 -4.031264e-01 -4.027031e-01 -4.022024e-01 -4.016270e-01 -4.009750e-01 -4.002491e-01 -3.994478e-01 -3.985739e-01 -3.976258e-01 -3.966065e-01 -3.955146e-01 -3.943531e-01 -3.931208e-01 -3.918206e-01 -3.904516e-01 -3.890169e-01 -3.875155e-01 -3.859505e-01 -3.843212e-01 -3.826308e-01 -3.808787e-01 -3.790679e-01 -3.771982e-01 -3.752726e-01 -3.732909e-01 -3.712563e-01 -3.691685e-01 -3.670308e-01 -3.648432e-01 -3.626088e-01 -3.603277e-01 -3.580031e-01 -3.556352e-01 -3.532272e-01 -3.507794e-01 -3.482948e-01 -3.457740e-01 -3.432200e-01 -3.406334e-01 -3.380172e-01 -3.353720e-01 -3.327008e-01 -3.300044e-01 -3.272856e-01 -3.245454e-01 -3.217864e-01 -3.190097e-01 -3.162180e-01 -3.134123e-01 -3.105953e-01 -3.077680e-01 -3.049330e-01 -3.020914e-01 -2.992458e-01 -2.963973e-01 -2.935482e-01 -2.907000e-01 -2.878547e-01 -2.850138e-01 -2.821792e-01 -2.793526e-01 -2.765357e-01 -2.737302e-01 -2.709377e-01 -2.681599e-01 -2.653984e-01 -2.626548e-01 -2.599305e-01 -2.572274e-01 -2.545466e-01 -2.518900e-01 -2.492586e-01 -2.466544e-01 -2.440781e-01 -2.415319e-01 -2.390163e-01 -2.365334e-01 -2.340837e-01 -2.316693e-01 -2.292905e-01 -2.269495e-01 -2.246464e-01 -2.223835e-01 -2.201606e-01 -2.179801e-01 -2.158418e-01 -2.137479e-01 -2.116980e-01 -2.096946e-01 -2.077371e-01 -2.058278e-01 -2.039661e-01 -2.021544e-01 -2.003918e-01 -1.986809e-01 -1.970205e-01 -1.954132e-01 -1.938578e-01 -1.923568e-01 -1.909090e-01 -1.895169e-01 -1.881790e-01 -1.868980e-01 -1.856722e-01 -1.845043e-01 -1.833925e-01 -1.823395e-01 -1.813435e-01 -1.804071e-01 -1.795284e-01 -1.787099e-01 -1.779498e-01 -1.772505e-01 -1.766101e-01 -1.760311e-01 -1.755114e-01 -1.750534e-01 -1.746551e-01 -1.743189e-01 -1.740426e-01 -1.738287e-01 -1.736748e-01 -1.735834e-01 
-1.737003e-01 -1.737316e-01 -1.738231e-01 -1.739770e-01 -1.741911e-01 -1.744675e-01 -1.748039e-01 -1.752023e-01 -1.756605e-01 -1.761805e-01 -1.767598e-01 -1.774004e-01 -1.781000e-01 -1.788604e-01 -1.796792e-01 -1.805583e-01 -1.814951e-01 -1.824914e-01 -1.835448e-01 -1.846569e-01 -1.858252e-01 -1.870513e-01 -1.883327e-01 -1.896708e-01 -1.910633e-01 -1.925113e-01 -1.940126e-01 -1.955681e-01 -1.971756e-01 -1.988361e-01 -2.005472e-01 -2.023098e-01 -2.041215e-01 -2.059831e-01 -2.078921e-01 -2.098494e-01 -2.118525e-01 -2.139019e-01 -2.159953e-01 -2.181331e-01 -2.203128e-01 -2.225349e-01 -2.247969e-01 -2.270989e-01 -2.294387e-01 -2.318161e-01 -2.342290e-01 -2.366771e-01 -2.391582e-01 -2.416719e-01 -2.442160e-01 -2.467900e-01 -2.493918e-01 -2.520205e-01 -2.546743e-01 -2.573521e-01 -2.600520e-01 -2.627729e-01 -2.655129e-01 -2.682707e-01 -2.710445e-01 -2.738328e-01 -2.766339e-01 -2.794461e-01 -2.822679e-01 -2.850974e-01 -2.879330e-01 -2.907729e-01 -2.936154e-01 -2.964586e-01 -2.993010e-01 -3.021404e-01 -3.049754e-01 -3.078037e-01 -3.106241e-01 -3.134341e-01 -3.162325e-01 -3.190168e-01 -3.217859e-01 -3.245371e-01 -3.272694e-01 -3.299801e-01 -3.326683e-01 -3.353312e-01 -3.379680e-01 -3.405756e-01 -3.431536e-01 -3.456989e-01 -3.482109e-01 -3.506866e-01 -3.531256e-01 -3.555247e-01 -3.578837e-01 -3.601994e-01 -3.624716e-01 -3.646971e-01 -3.668759e-01 -3.690048e-01 -3.710839e-01 -3.731100e-01 -3.750832e-01 -3.770004e-01 -3.788619e-01 -3.806645e-01 -3.824088e-01 -3.840915e-01 -3.857132e-01 -3.872709e-01 -3.887652e-01 -3.901932e-01 -3.915556e-01 -3.928494e-01 -3.940758e-01 -3.952316e-01 -3.963181e-01 -3.973323e-01 -3.982756e-01 -3.991451e-01 -3.999423e-01 -4.006645e-01 -4.013132e-01 -4.018857e-01 -4.023838e-01 -4.028049e-01 -4.031509e-01 -4.034193e-01 -4.036121e-01 -4.037270e-01 -4.037660e-01 -4.037270e-01 -4.036121e-01 -4.034193e-01 -4.031509e-01 -4.028049e-01 -4.023838e-01 -4.018857e-01 -4.013132e-01 -4.006645e-01 -3.999423e-01 -3.991451e-01 -3.982756e-01 -3.973323e-01 -3.963181e-01 -3.952316e-01 -3.940758e-01 -3.928494e-01 -3.915556e-01 -3.901932e-01 -3.887652e-01 -3.872709e-01 -3.857132e-01 -3.840915e-01 -3.824088e-01 -3.806645e-01 -3.788619e-01 -3.770004e-01 -3.750832e-01 -3.731100e-01 -3.710839e-01 -3.690048e-01 -3.668759e-01 -3.646971e-01 -3.624716e-01 -3.601994e-01 -3.578837e-01 -3.555247e-01 -3.531256e-01 -3.506866e-01 -3.482109e-01 -3.456989e-01 -3.431536e-01 -3.405756e-01 -3.379680e-01 -3.353312e-01 -3.326683e-01 -3.299801e-01 -3.272694e-01 -3.245371e-01 -3.217859e-01 -3.190168e-01 -3.162325e-01 -3.134341e-01 -3.106241e-01 -3.078037e-01 -3.049754e-01 -3.021404e-01 -2.993010e-01 -2.964586e-01 -2.936154e-01 -2.907729e-01 -2.879330e-01 -2.850974e-01 -2.822679e-01 -2.794461e-01 -2.766339e-01 -2.738328e-01 -2.710445e-01 -2.682707e-01 -2.655129e-01 -2.627729e-01 -2.600520e-01 -2.573521e-01 -2.546743e-01 -2.520205e-01 -2.493918e-01 -2.467900e-01 -2.442160e-01 -2.416719e-01 -2.391582e-01 -2.366771e-01 -2.342290e-01 -2.318161e-01 -2.294387e-01 -2.270989e-01 -2.247969e-01 -2.225349e-01 -2.203128e-01 -2.181331e-01 -2.159953e-01 -2.139019e-01 -2.118525e-01 -2.098494e-01 -2.078921e-01 -2.059831e-01 -2.041215e-01 -2.023098e-01 -2.005472e-01 -1.988361e-01 -1.971756e-01 -1.955681e-01 -1.940126e-01 -1.925113e-01 -1.910633e-01 -1.896708e-01 -1.883327e-01 -1.870513e-01 -1.858252e-01 -1.846569e-01 -1.835448e-01 -1.824914e-01 -1.814951e-01 -1.805583e-01 -1.796792e-01 -1.788604e-01 -1.781000e-01 -1.774004e-01 -1.767598e-01 -1.761805e-01 -1.756605e-01 -1.752023e-01 -1.748039e-01 -1.744675e-01 -1.741911e-01 -1.739770e-01 -1.738231e-01 -1.737316e-01 
-1.737881e-01 -1.738194e-01 -1.739109e-01 -1.740650e-01 -1.742793e-01 -1.745559e-01 -1.748926e-01 -1.752914e-01 -1.757499e-01 -1.762703e-01 -1.768501e-01 -1.774913e-01 -1.781914e-01 -1.789524e-01 -1.797719e-01 -1.806516e-01 -1.815891e-01 -1.825862e-01 -1.836403e-01 -1.847532e-01 -1.859223e-01 -1.871492e-01 -1.884315e-01 -1.897705e-01 -1.911638e-01 -1.926127e-01 -1.941148e-01 -1.956713e-01 -1.972796e-01 -1.989410e-01 -2.006528e-01 -2.024162e-01 -2.042286e-01 -2.060910e-01 -2.080007e-01 -2.099587e-01 -2.119623e-01 -2.140123e-01 -2.161061e-01 -2.182443e-01 -2.204244e-01 -2.226467e-01 -2.249088e-01 -2.272109e-01 -2.295506e-01 -2.319279e-01 -2.343406e-01 -2.367883e-01 -2.392689e-01 -2.417819e-01 -2.443253e-01 -2.468984e-01 -2.494991e-01 -2.521266e-01 -2.547790e-01 -2.574553e-01 -2.601536e-01 -2.628726e-01 -2.656105e-01 -2.683661e-01 -2.711375e-01 -2.739232e-01 -2.767215e-01 -2.795308e-01 -2.823494e-01 -2.851756e-01 -2.880077e-01 -2.908438e-01 -2.936824e-01 -2.965214e-01 -2.993595e-01 -3.021943e-01 -3.050246e-01 -3.078480e-01 -3.106633e-01 -3.134680e-01 -3.162610e-01 -3.190396e-01 -3.218029e-01 -3.245482e-01 -3.272744e-01 -3.299788e-01 -3.326606e-01 -3.353170e-01 -3.379471e-01 -3.405480e-01 -3.431191e-01 -3.456574e-01 -3.481623e-01 -3.506309e-01 -3.530627e-01 -3.554546e-01 -3.578063e-01 -3.601146e-01 -3.623795e-01 -3.645977e-01 -3.667692e-01 -3.688909e-01 -3.709628e-01 -3.729816e-01 -3.749478e-01 -3.768580e-01 -3.787126e-01 -3.805085e-01 -3.822461e-01 -3.839222e-01 -3.855376e-01 -3.870891e-01 -3.885775e-01 -3.899996e-01 -3.913565e-01 -3.926450e-01 -3.938662e-01 -3.950171e-01 -3.960990e-01 -3.971089e-01 -3.980481e-01 -3.989139e-01 -3.997076e-01 -4.004266e-01 -4.010724e-01 -4.016424e-01 -4.021383e-01 -4.025575e-01 -4.029020e-01 -4.031692e-01 -4.033611e-01 -4.034755e-01 -4.035143e-01 -4.034755e-01 -4.033611e-01 -4.031692e-01 -4.029020e-01 -4.025575e-01 -4.021383e-01 -4.016424e-01 -4.010724e-01 -4.004266e-01 -3.997076e-01 -3.989139e-01 -3.980481e-01 -3.971089e-01 -3.960990e-01 -3.950171e-01 -3.938662e-01 -3.926450e-01 -3.913565e-01 -3.899996e-01 -3.885775e-01 -3.870891e-01 -3.855376e-01 -3.839222e-01 -3.822461e-01 -3.805085e-01 -3.787126e-01 -3.768580e-01 -3.749478e-01 -3.729816e-01 -3.709628e-01 -3.688909e-01 -3.667692e-01 -3.645977e-01 -3.623795e-01 -3.601146e-01 -3.578063e-01 -3.554546e-01 -3.530627e-01 -3.506309e-01 -3.481623e-01 -3.456574e-01 -3.431191e-01 -3.405480e-01 -3.379471e-01 -3.353170e-01 -3.326606e-01 -3.299788e-01 -3.272744e-01 -3.245482e-01 -3.218029e-01 -3.190396e-01 -3.162610e-01 -3.134680e-01 -3.106633e-01 -3.078480e-01 -3.050246e-01 -3.021943e-01 -2.993595e-01 -2.965214e-01 -2.936824e-01 -2.908438e-01 -2.880077e-01 -2.851756e-01 -2.823494e-01 -2.795308e-01 -2.767215e-01 -2.739232e-01 -2.711375e-01 -2.683661e-01 -2.656105e-01 -2.628726e-01 -2.601536e-01 -2.574553e-01 -2.547790e-01 -2.521266e-01 -2.494991e-01 -2.468984e-01 -2.443253e-01 -2.417819e-01 -2.392689e-01 -2.367883e-01 -2.343406e-01 -2.319279e-01 -2.295506e-01 -2.272109e-01 -2.249088e-01 -2.226467e-01 -2.204244e-01 -2.182443e-01 -2.161061e-01 -2.140123e-01 -2.119623e-01 -2.099587e-01 -2.080007e-01 -2.060910e-01 -2.042286e-01 -2.024162e-01 -2.006528e-01 -1.989410e-01 -1.972796e-01 -1.956713e-01 -1.941148e-01 -1.926127e-01 -1.911638e-01 -1.897705e-01 -1.884315e-01 -1.871492e-01 -1.859223e-01 -1.847532e-01 -1.836403e-01 -1.825862e-01 -1.815891e-01 -1.806516e-01 -1.797719e-01 -1.789524e-01 -1.781914e-01 -1.774913e-01 -1.768501e-01 -1.762703e-01 -1.757499e-01 -1.752914e-01 -1.748926e-01 -1.745559e-01 -1.742793e-01 -1.740650e-01 -1.739109e-01 -1.738194e-01 
-1.738136e-01 -1.738449e-01 -1.739366e-01 -1.740908e-01 -1.743053e-01 -1.745823e-01 -1.749194e-01 -1.753187e-01 -1.757778e-01 -1.762988e-01 -1.768792e-01 -1.775212e-01 -1.782221e-01 -1.789841e-01 -1.798045e-01 -1.806852e-01 -1.816238e-01 -1.826220e-01 -1.836773e-01 -1.847914e-01 -1.859618e-01 -1.871900e-01 -1.884736e-01 -1.898141e-01 -1.912088e-01 -1.926592e-01 -1.941628e-01 -1.957207e-01 -1.973306e-01 -1.989935e-01 -2.007069e-01 -2.024719e-01 -2.042859e-01 -2.061497e-01 -2.080611e-01 -2.100205e-01 -2.120257e-01 -2.140771e-01 -2.161725e-01 -2.183120e-01 -2.204935e-01 -2.227171e-01 -2.249805e-01 -2.272838e-01 -2.296247e-01 -2.320030e-01 -2.344167e-01 -2.368653e-01 -2.393467e-01 -2.418604e-01 -2.444044e-01 -2.469780e-01 -2.495790e-01 -2.522069e-01 -2.548594e-01 -2.575357e-01 -2.602337e-01 -2.629525e-01 -2.656900e-01 -2.684449e-01 -2.712155e-01 -2.740003e-01 -2.767976e-01 -2.796056e-01 -2.824228e-01 -2.852473e-01 -2.880776e-01 -2.909118e-01 -2.937482e-01 -2.965849e-01 -2.994205e-01 -3.022526e-01 -3.050801e-01 -3.079004e-01 -3.107125e-01 -3.135138e-01 -3.163032e-01 -3.190781e-01 -3.218375e-01 -3.245786e-01 -3.273006e-01 -3.300007e-01 -3.326780e-01 -3.353296e-01 -3.379549e-01 -3.405509e-01 -3.431169e-01 -3.456501e-01 -3.481498e-01 -3.506130e-01 -3.530394e-01 -3.554258e-01 -3.577719e-01 -3.600747e-01 -3.623340e-01 -3.645465e-01 -3.667124e-01 -3.688284e-01 -3.708946e-01 -3.729079e-01 -3.748684e-01 -3.767731e-01 -3.786223e-01 -3.804127e-01 -3.821450e-01 -3.838160e-01 -3.854263e-01 -3.869729e-01 -3.884564e-01 -3.898739e-01 -3.912262e-01 -3.925104e-01 -3.937274e-01 -3.948744e-01 -3.959525e-01 -3.969589e-01 -3.978948e-01 -3.987575e-01 -3.995484e-01 -4.002648e-01 -4.009082e-01 -4.014761e-01 -4.019702e-01 -4.023879e-01 -4.027311e-01 -4.029973e-01 -4.031886e-01 -4.033025e-01 -4.033412e-01 -4.033025e-01 -4.031886e-01 -4.029973e-01 -4.027311e-01 -4.023879e-01 -4.019702e-01 -4.014761e-01 -4.009082e-01 -4.002648e-01 -3.995484e-01 -3.987575e-01 -3.978948e-01 -3.969589e-01 -3.959525e-01 -3.948744e-01 -3.937274e-01 -3.925104e-01 -3.912262e-01 -3.898739e-01 -3.884564e-01 -3.869729e-01 -3.854263e-01 -3.838160e-01 -3.821450e-01 -3.804127e-01 -3.786223e-01 -3.767731e-01 -3.748684e-01 -3.729079e-01 -3.708946e-01 -3.688284e-01 -3.667124e-01 -3.645465e-01 -3.623340e-01 -3.600747e-01 -3.577719e-01 -3.554258e-01 -3.530394e-01 -3.506130e-01 -3.481498e-01 -3.456501e-01 -3.431169e-01 -3.405509e-01 -3.379549e-01 -3.353296e-01 -3.326780e-01 -3.300007e-01 -3.273006e-01 -3.245786e-01 -3.218375e-01 -3.190781e-01 -3.163032e-01 -3.135138e-01 -3.107125e-01 -3.079004e-01 -3.050801e-01 -3.022526e-01 -2.994205e-01 -2.965849e-01 -2.937482e-01 -2.909118e-01 -2.880776e-01 -2.852473e-01 -2.824228e-01 -2.796056e-01 -2.767976e-01 -2.740003e-01 -2.712155e-01 -2.684449e-01 -2.656900e-01 -2.629525e-01 -2.602337e-01 -2.575357e-01 -2.548594e-01 -2.522069e-01 -2.495790e-01 -2.469780e-01 -2.444044e-01 -2.418604e-01 -2.393467e-01 -2.368653e-01 -2.344167e-01 -2.320030e-01 -2.296247e-01 -2.272838e-01 -2.249805e-01 -2.227171e-01 -2.204935e-01 -2.183120e-01 -2.161725e-01 -2.140771e-01 -2.120257e-01 -2.100205e-01 -2.080611e-01 -2.061497e-01 -2.042859e-01 -2.024719e-01 -2.007069e-01 -1.989935e-01 -1.973306e-01 -1.957207e-01 -1.941628e-01 -1.926592e-01 -1.912088e-01 -1.898141e-01 -1.884736e-01 -1.871900e-01 -1.859618e-01 -1.847914e-01 -1.836773e-01 -1.826220e-01 -1.816238e-01 -1.806852e-01 -1.798045e-01 -1.789841e-01 -1.782221e-01 -1.775212e-01 -1.768792e-01 -1.762988e-01 -1.757778e-01 -1.753187e-01 -1.749194e-01 -1.745823e-01 -1.743053e-01 -1.740908e-01 -1.739366e-01 -1.738449e-01 