# vtk DataFile Version 2.0
Comment goes here
ASCII

DATASET STRUCTURED_POINTS
FIELD FieldData 1
TIME 1 1 double
0.05000000
DIMENSIONS    256   256   1

ORIGIN    0.000   0.000   0.000
SPACING   0.0039062 0.0039062   1.000

POINT_DATA   65536
SCALARS uY double
LOOKUP_TABLE default

-3.340472e-01 -3.341064e-01 -3.342760e-01 -3.345640e-01 -3.349622e-01 -3.354784e-01 -3.361045e-01 -3.368482e-01 -3.377013e-01 -3.386712e-01 -3.397499e-01 -3.409446e-01 -3.422470e-01 -3.436645e-01 -3.451887e-01 -3.468267e-01 -3.485701e-01 -3.504258e-01 -3.523856e-01 -3.544560e-01 -3.566289e-01 -3.589105e-01 -3.612927e-01 -3.637816e-01 -3.663691e-01 -3.690610e-01 -3.718493e-01 -3.747394e-01 -3.777235e-01 -3.808067e-01 -3.839812e-01 -3.872518e-01 -3.906109e-01 -3.940630e-01 -3.976004e-01 -4.012274e-01 -4.049364e-01 -4.087313e-01 -4.126048e-01 -4.165602e-01 -4.205905e-01 -4.246985e-01 -4.288776e-01 -4.331300e-01 -4.374493e-01 -4.418373e-01 -4.462878e-01 -4.508022e-01 -4.553745e-01 -4.600058e-01 -4.646901e-01 -4.694280e-01 -4.742141e-01 -4.790483e-01 -4.839255e-01 -4.888452e-01 -4.938024e-01 -4.987963e-01 -5.038223e-01 -5.088789e-01 -5.139618e-01 -5.190692e-01 -5.241971e-01 -5.293431e-01 -5.345036e-01 -5.396758e-01 -5.448564e-01 -5.500421e-01 -5.552301e-01 -5.604165e-01 -5.655988e-01 -5.707728e-01 -5.759364e-01 -5.810849e-01 -5.862165e-01 -5.913263e-01 -5.964128e-01 -6.014705e-01 -6.064986e-01 -6.114910e-01 -6.164473e-01 -6.213612e-01 -6.262327e-01 -6.310550e-01 -6.358285e-01 -6.405461e-01 -6.452087e-01 -6.498089e-01 -6.543479e-01 -6.588181e-01 -6.632210e-01 -6.675488e-01 -6.718035e-01 -6.759769e-01 -6.800716e-01 -6.840789e-01 -6.880020e-01 -6.918322e-01 -6.955727e-01 -6.992148e-01 -7.027621e-01 -7.062058e-01 -7.095499e-01 -7.127854e-01 -7.159167e-01 -7.189347e-01 -7.218444e-01 -7.246363e-01 -7.273158e-01 -7.298735e-01 -7.323152e-01 -7.346314e-01 -7.368282e-01 -7.388961e-01 -7.408417e-01 -7.426554e-01 -7.443440e-01 -7.458982e-01 -7.473250e-01 -7.486151e-01 -7.497759e-01 -7.507983e-01 -7.516897e-01 -7.524412e-01 -7.530607e-01 -7.535392e-01 -7.538849e-01 -7.540890e-01 -7.541599e-01 -7.540890e-01 -7.538849e-01 -7.535392e-01 -7.530607e-01 -7.524412e-01 -7.516897e-01 -7.507983e-01 -7.497759e-01 -7.486151e-01 -7.473250e-01 -7.458982e-01 -7.443440e-01 -7.426554e-01 -7.408417e-01 -7.388961e-01 -7.368282e-01 -7.346314e-01 -7.323152e-01 -7.298735e-01 -7.273158e-01 -7.246363e-01 -7.218444e-01 -7.189347e-01 -7.159167e-01 -7.127854e-01 -7.095499e-01 -7.062058e-01 -7.027621e-01 -6.992148e-01 -6.955727e-01 -6.918322e-01 -6.880020e-01 -6.840789e-01 -6.800716e-01 -6.759769e-01 -6.718035e-01 -6.675488e-01 -6.632210e-01 -6.588181e-01 -6.543479e-01 -6.498089e-01 -6.452087e-01 -6.405461e-01 -6.358285e-01 -6.310550e-01 -6.262327e-01 -6.213612e-01 -6.164473e-01 -6.114910e-01 -6.064986e-01 -6.014705e-01 -5.964128e-01 -5.913263e-01 -5.862165e-01 -5.810849e-01 -5.759364e-01 -5.707728e-01 -5.655988e-01 -5.604165e-01 -5.552301e-01 -5.500421e-01 -5.448564e-01 -5.396758e-01 -5.345036e-01 -5.293431e-01 -5.241971e-01 -5.190692e-01 -5.139618e-01 -5.088789e-01 -5.038223e-01 -4.987963e-01 -4.938024e-01 -4.888452e-01 -4.839255e-01 -4.790483e-01 -4.742141e-01 -4.694280e-01 -4.646901e-01 -4.600058e-01 -4.553745e-01 -4.508022e-01 -4.462878e-01 -4.418373e-01 -4.374493e-01 -4.331300e-01 -4.288776e-01 -4.246985e-01 -4.205905e-01 -4.165602e-01 -4.126048e-01 -4.087313e-01 -4.049364e-01 -4.012274e-01 -3.976004e-01 -3.940630e-01 -3.906109e-01 -3.872518e-01 -3.839812e-01 -3.808067e-01 -3.777235e-01 -3.747394e-01 -3.718493e-01 -3.690610e-01 -3.663691e-01 -3.637816e-01 -3.612927e-01 -3.589105e-01 -3.566289e-01 -3.544560e-01 -3.523856e-01 -3.504258e-01 -3.485701e-01 -3.468267e-01 -3.451887e-01 -3.436645e-01 -3.422470e-01 -3.409446e-01 -3.397499e-01 -3.386712e-01 -3.377013e-01 -3.368482e-01 -3.361045e-01 -3.354784e-01 -3.349622e-01 -3.345640e-01 -3.342760e-01 -3.341064e-01 
-3.342837e-01 -3.343430e-01 -3.345125e-01 -3.348004e-01 -3.351985e-01 -3.357147e-01 -3.363406e-01 -3.370842e-01 -3.379370e-01 -3.389068e-01 -3.399852e-01 -3.411796e-01 -3.424817e-01 -3.438989e-01 -3.454227e-01 -3.470602e-01 -3.488031e-01 -3.506584e-01 -3.526176e-01 -3.546874e-01 -3.568595e-01 -3.591404e-01 -3.615218e-01 -3.640098e-01 -3.665964e-01 -3.692873e-01 -3.720744e-01 -3.749634e-01 -3.779461e-01 -3.810280e-01 -3.842010e-01 -3.874700e-01 -3.908275e-01 -3.942777e-01 -3.978132e-01 -4.014381e-01 -4.051450e-01 -4.089376e-01 -4.128086e-01 -4.167615e-01 -4.207890e-01 -4.248943e-01 -4.290703e-01 -4.333195e-01 -4.376354e-01 -4.420200e-01 -4.464668e-01 -4.509774e-01 -4.555456e-01 -4.601727e-01 -4.648526e-01 -4.695860e-01 -4.743672e-01 -4.791965e-01 -4.840685e-01 -4.889828e-01 -4.939345e-01 -4.989227e-01 -5.039426e-01 -5.089931e-01 -5.140696e-01 -5.191705e-01 -5.242916e-01 -5.294306e-01 -5.345840e-01 -5.397489e-01 -5.449220e-01 -5.501000e-01 -5.552800e-01 -5.604583e-01 -5.656324e-01 -5.707979e-01 -5.759529e-01 -5.810926e-01 -5.862154e-01 -5.913161e-01 -5.963934e-01 -6.014418e-01 -6.064604e-01 -6.114433e-01 -6.163900e-01 -6.212942e-01 -6.261558e-01 -6.309682e-01 -6.357317e-01 -6.404393e-01 -6.450919e-01 -6.496820e-01 -6.542109e-01 -6.586710e-01 -6.630639e-01 -6.673816e-01 -6.716263e-01 -6.757898e-01 -6.798746e-01 -6.838722e-01 -6.877856e-01 -6.916061e-01 -6.953372e-01 -6.989699e-01 -7.025082e-01 -7.059428e-01 -7.092782e-01 -7.125050e-01 -7.156280e-01 -7.186378e-01 -7.215395e-01 -7.243237e-01 -7.269958e-01 -7.295464e-01 -7.319812e-01 -7.342909e-01 -7.364814e-01 -7.385434e-01 -7.404834e-01 -7.422918e-01 -7.439755e-01 -7.455252e-01 -7.469478e-01 -7.482342e-01 -7.493916e-01 -7.504109e-01 -7.512996e-01 -7.520489e-01 -7.526666e-01 -7.531437e-01 -7.534883e-01 -7.536918e-01 -7.537625e-01 -7.536918e-01 -7.534883e-01 -7.531437e-01 -7.526666e-01 -7.520489e-01 -7.512996e-01 -7.504109e-01 -7.493916e-01 -7.482342e-01 -7.469478e-01 -7.455252e-01 -7.439755e-01 -7.422918e-01 -7.404834e-01 -7.385434e-01 -7.364814e-01 -7.342909e-01 -7.319812e-01 -7.295464e-01 -7.269958e-01 -7.243237e-01 -7.215395e-01 -7.186378e-01 -7.156280e-01 -7.125050e-01 -7.092782e-01 -7.059428e-01 -7.025082e-01 -6.989699e-01 -6.953372e-01 -6.916061e-01 -6.877856e-01 -6.838722e-01 -6.798746e-01 -6.757898e-01 -6.716263e-01 -6.673816e-01 -6.630639e-01 -6.586710e-01 -6.542109e-01 -6.496820e-01 -6.450919e-01 -6.404393e-01 -6.357317e-01 -6.309682e-01 -6.261558e-01 -6.212942e-01 -6.163900e-01 -6.114433e-01 -6.064604e-01 -6.014418e-01 -5.963934e-01 -5.913161e-01 -5.862154e-01 -5.810926e-01 -5.759529e-01 -5.707979e-01 -5.656324e-01 -5.604583e-01 -5.552800e-01 -5.501000e-01 -5.449220e-01 -5.397489e-01 -5.345840e-01 -5.294306e-01 -5.242916e-01 -5.191705e-01 -5.140696e-01 -5.089931e-01 -5.039426e-01 -4.989227e-01 -4.939345e-01 -4.889828e-01 -4.840685e-01 -4.791965e-01 -4.743672e-01 -4.695860e-01 -4.648526e-01 -4.601727e-01 -4.555456e-01 -4.509774e-01 -4.464668e-01 -4.420200e-01 -4.376354e-01 -4.333195e-01 -4.290703e-01 -4.248943e-01 -4.207890e-01 -4.167615e-01 -4.128086e-01 -4.089376e-01 -4.051450e-01 -4.014381e-01 -3.978132e-01 -3.942777e-01 -3.908275e-01 -3.874700e-01 -3.842010e-01 -3.810280e-01 -3.779461e-01 -3.749634e-01 -3.720744e-01 -3.692873e-01 -3.665964e-01 -3.640098e-01 -3.615218e-01 -3.591404e-01 -3.568595e-01 -3.546874e-01 -3.526176e-01 -3.506584e-01 -3.488031e-01 -3.470602e-01 -3.454227e-01 -3.438989e-01 -3.424817e-01 -3.411796e-01 -3.399852e-01 -3.389068e-01 -3.379370e-01 -3.370842e-01 -3.363406e-01 -3.357147e-01 -3.351985e-01 -3.348004e-01 -3.345125e-01 -3.343430e-01 
-3.344058e-01 -3.344650e-01 -3.346346e-01 -3.349226e-01 -3.353207e-01 -3.358370e-01 -3.364631e-01 -3.372068e-01 -3.380598e-01 -3.390297e-01 -3.401083e-01 -3.413029e-01 -3.426053e-01 -3.440226e-01 -3.455467e-01 -3.471844e-01 -3.489276e-01 -3.507831e-01 -3.527425e-01 -3.548126e-01 -3.569850e-01 -3.592661e-01 -3.616477e-01 -3.641360e-01 -3.667227e-01 -3.694137e-01 -3.722010e-01 -3.750901e-01 -3.780729e-01 -3.811548e-01 -3.843278e-01 -3.875968e-01 -3.909541e-01 -3.944041e-01 -3.979394e-01 -4.015640e-01 -4.052705e-01 -4.090627e-01 -4.129332e-01 -4.168855e-01 -4.209123e-01 -4.250168e-01 -4.291919e-01 -4.334402e-01 -4.377550e-01 -4.421383e-01 -4.465838e-01 -4.510929e-01 -4.556596e-01 -4.602850e-01 -4.649630e-01 -4.696944e-01 -4.744736e-01 -4.793006e-01 -4.841702e-01 -4.890820e-01 -4.940310e-01 -4.990162e-01 -5.040332e-01 -5.090804e-01 -5.141537e-01 -5.192510e-01 -5.243684e-01 -5.295036e-01 -5.346530e-01 -5.398137e-01 -5.449824e-01 -5.501559e-01 -5.553313e-01 -5.605047e-01 -5.656738e-01 -5.708342e-01 -5.759839e-01 -5.811182e-01 -5.862354e-01 -5.913303e-01 -5.964017e-01 -6.014441e-01 -6.064566e-01 -6.114332e-01 -6.163736e-01 -6.212712e-01 -6.261263e-01 -6.309320e-01 -6.356888e-01 -6.403896e-01 -6.450353e-01 -6.496185e-01 -6.541405e-01 -6.585935e-01 -6.629794e-01 -6.672901e-01 -6.715277e-01 -6.756842e-01 -6.797619e-01 -6.837525e-01 -6.876590e-01 -6.914727e-01 -6.951969e-01 -6.988229e-01 -7.023545e-01 -7.057826e-01 -7.091115e-01 -7.123321e-01 -7.154489e-01 -7.184527e-01 -7.213485e-01 -7.241270e-01 -7.267936e-01 -7.293389e-01 -7.317687e-01 -7.340734e-01 -7.362593e-01 -7.383169e-01 -7.402527e-01 -7.420572e-01 -7.437372e-01 -7.452835e-01 -7.467029e-01 -7.479864e-01 -7.491412e-01 -7.501583e-01 -7.510451e-01 -7.517927e-01 -7.524089e-01 -7.528849e-01 -7.532288e-01 -7.534318e-01 -7.535023e-01 -7.534318e-01 -7.532288e-01 -7.528849e-01 -7.524089e-01 -7.517927e-01 -7.510451e-01 -7.501583e-01 -7.491412e-01 -7.479864e-01 -7.467029e-01 -7.452835e-01 -7.437372e-01 -7.420572e-01 -7.402527e-01 -7.383169e-01 -7.362593e-01 -7.340734e-01 -7.317687e-01 -7.293389e-01 -7.267936e-01 -7.241270e-01 -7.213485e-01 -7.184527e-01 -7.154489e-01 -7.123321e-01 -7.091115e-01 -7.057826e-01 -7.023545e-01 -6.988229e-01 -6.951969e-01 -6.914727e-01 -6.876590e-01 -6.837525e-01 -6.797619e-01 -6.756842e-01 -6.715277e-01 -6.672901e-01 -6.629794e-01 -6.585935e-01 -6.541405e-01 -6.496185e-01 -6.450353e-01 -6.403896e-01 -6.356888e-01 -6.309320e-01 -6.261263e-01 -6.212712e-01 -6.163736e-01 -6.114332e-01 -6.064566e-01 -6.014441e-01 -5.964017e-01 -5.913303e-01 -5.862354e-01 -5.811182e-01 -5.759839e-01 -5.708342e-01 -5.656738e-01 -5.605047e-01 -5.553313e-01 -5.501559e-01 -5.449824e-01 -5.398137e-01 -5.346530e-01 -5.295036e-01 -5.243684e-01 -5.192510e-01 -5.141537e-01 -5.090804e-01 -5.040332e-01 -4.990162e-01 -4.940310e-01 -4.890820e-01 -4.841702e-01 -4.793006e-01 -4.744736e-01 -4.696944e-01 -4.649630e-01 -4.602850e-01 -4.556596e-01 -4.510929e-01 -4.465838e-01 -4.421383e-01 -4.377550e-01 -4.334402e-01 -4.291919e-01 -4.250168e-01 -4.209123e-01 -4.168855e-01 -4.129332e-01 -4.090627e-01 -4.052705e-01 -4.015640e-01 -3.979394e-01 -3.944041e-01 -3.909541e-01 -3.875968e-01 -3.843278e-01 -3.811548e-01 -3.780729e-01 -3.750901e-01 -3.722010e-01 -3.694137e-01 -3.667227e-01 -3.641360e-01 -3.616477e-01 -3.592661e-01 -3.569850e-01 -3.548126e-01 -3.527425e-01 -3.507831e-01 -3.489276e-01 -3.471844e-01 -3.455467e-01 -3.440226e-01 -3.426053e-01 -3.413029e-01 -3.401083e-01 -3.390297e-01 -3.380598e-01 -3.372068e-01 -3.364631e-01 -3.358370e-01 -3.353207e-01 -3.349226e-01 -3.346346e-01 -3.344650e-01 
-3.344135e-01 -3.344728e-01 -3.346425e-01 -3.349306e-01 -3.353290e-01 -3.358456e-01 -3.364720e-01 -3.372162e-01 -3.380696e-01 -3.390402e-01 -3.401193e-01 -3.413147e-01 -3.426178e-01 -3.440360e-01 -3.455608e-01 -3.471996e-01 -3.489437e-01 -3.508002e-01 -3.527607e-01 -3.548319e-01 -3.570055e-01 -3.592878e-01 -3.616707e-01 -3.641602e-01 -3.667483e-01 -3.694407e-01 -3.722293e-01 -3.751198e-01 -3.781040e-01 -3.811873e-01 -3.843618e-01 -3.876323e-01 -3.909910e-01 -3.944426e-01 -3.979793e-01 -4.016054e-01 -4.053133e-01 -4.091069e-01 -4.129788e-01 -4.169324e-01 -4.209606e-01 -4.250664e-01 -4.292427e-01 -4.334922e-01 -4.378082e-01 -4.421926e-01 -4.466391e-01 -4.511493e-01 -4.557169e-01 -4.603430e-01 -4.650218e-01 -4.697539e-01 -4.745336e-01 -4.793611e-01 -4.842310e-01 -4.891430e-01 -4.940921e-01 -4.990774e-01 -5.040943e-01 -5.091413e-01 -5.142142e-01 -5.193110e-01 -5.244279e-01 -5.295623e-01 -5.347108e-01 -5.398705e-01 -5.450381e-01 -5.502103e-01 -5.553842e-01 -5.605561e-01 -5.657234e-01 -5.708819e-01 -5.760296e-01 -5.811617e-01 -5.862766e-01 -5.913691e-01 -5.964380e-01 -6.014777e-01 -6.064873e-01 -6.114609e-01 -6.163982e-01 -6.212927e-01 -6.261444e-01 -6.309467e-01 -6.357000e-01 -6.403971e-01 -6.450391e-01 -6.496185e-01 -6.541366e-01 -6.585856e-01 -6.629675e-01 -6.672741e-01 -6.715077e-01 -6.756599e-01 -6.797335e-01 -6.837199e-01 -6.876222e-01 -6.914316e-01 -6.951517e-01 -6.987735e-01 -7.023009e-01 -7.057249e-01 -7.090497e-01 -7.122662e-01 -7.153791e-01 -7.183790e-01 -7.212711e-01 -7.240459e-01 -7.267089e-01 -7.292507e-01 -7.316771e-01 -7.339786e-01 -7.361614e-01 -7.382161e-01 -7.401490e-01 -7.419509e-01 -7.436285e-01 -7.451724e-01 -7.465898e-01 -7.478713e-01 -7.490244e-01 -7.500399e-01 -7.509253e-01 -7.516718e-01 -7.522871e-01 -7.527623e-01 -7.531057e-01 -7.533084e-01 -7.533788e-01 -7.533084e-01 -7.531057e-01 -7.527623e-01 -7.522871e-01 -7.516718e-01 -7.509253e-01 -7.500399e-01 -7.490244e-01 -7.478713e-01 -7.465898e-01 -7.451724e-01 -7.436285e-01 -7.419509e-01 -7.401490e-01 -7.382161e-01 -7.361614e-01 -7.339786e-01 -7.316771e-01 -7.292507e-01 -7.267089e-01 -7.240459e-01 -7.212711e-01 -7.183790e-01 -7.153791e-01 -7.122662e-01 -7.090497e-01 -7.057249e-01 -7.023009e-01 -6.987735e-01 -6.951517e-01 -6.914316e-01 -6.876222e-01 -6.837199e-01 -6.797335e-01 -6.756599e-01 -6.715077e-01 -6.672741e-01 -6.629675e-01 -6.585856e-01 -6.541366e-01 -6.496185e-01 -6.450391e-01 -6.403971e-01 -6.357000e-01 -6.309467e-01 -6.261444e-01 -6.212927e-01 -6.163982e-01 -6.114609e-01 -6.064873e-01 -6.014777e-01 -5.964380e-01 -5.913691e-01 -5.862766e-01 -5.811617e-01 -5.760296e-01 -5.708819e-01 -5.657234e-01 -5.605561e-01 -5.553842e-01 -5.502103e-01 -5.450381e-01 -5.398705e-01 -5.347108e-01 -5.295623e-01 -5.244279e-01 -5.193110e-01 -5.142142e-01 -5.091413e-01 -5.040943e-01 -4.990774e-01 -4.940921e-01 -4.891430e-01 -4.842310e-01 -4.793611e-01 -4.745336e-01 -4.697539e-01 -4.650218e-01 -4.603430e-01 -4.557169e-01 -4.511493e-01 -4.466391e-01 -4.421926e-01 -4.378082e-01 -4.334922e-01 -4.292427e-01 -4.250664e-01 -4.209606e-01 -4.169324e-01 -4.129788e-01 -4.091069e-01 -4.053133e-01 -4.016054e-01 -3.979793e-01 -3.944426e-01 -3.909910e-01 -3.876323e-01 -3.843618e-01 -3.811873e-01 -3.781040e-01 -3.751198e-01 -3.722293e-01 -3.694407e-01 -3.667483e-01 -3.641602e-01 -3.616707e-01 -3.592878e-01 -3.570055e-01 -3.548319e-01 -3.527607e-01 -3.508002e-01 -3.489437e-01 -3.471996e-01 -3.455608e-01 -3.440360e-01 -3.426178e-01 -3.413147e-01 -3.401193e-01 -3.390402e-01 -3.380696e-01 -3.372162e-01 -3.364720e-01 -3.358456e-01 -3.353290e-01 -3.349306e-01 -3.346425e-01 -3.344728e-01 
-3.343067e-01 -3.343661e-01 -3.345359e-01 -3.348243e-01 -3.352231e-01 -3.357402e-01 -3.363673e-01 -3.371121e-01 -3.379665e-01 -3.389380e-01 -3.400182e-01 -3.412147e-01 -3.425191e-01 -3.439387e-01 -3.454650e-01 -3.471054e-01 -3.488512e-01 -3.507096e-01 -3.526720e-01 -3.547452e-01 -3.569208e-01 -3.592053e-01 -3.615905e-01 -3.640824e-01 -3.666729e-01 -3.693679e-01 -3.721591e-01 -3.750523e-01 -3.780393e-01 -3.811255e-01 -3.843029e-01 -3.875763e-01 -3.909381e-01 -3.943928e-01 -3.979327e-01 -4.015619e-01 -4.052731e-01 -4.090700e-01 -4.129452e-01 -4.169022e-01 -4.209338e-01 -4.250429e-01 -4.292227e-01 -4.334756e-01 -4.377950e-01 -4.421828e-01 -4.466327e-01 -4.511463e-01 -4.557172e-01 -4.603467e-01 -4.650288e-01 -4.697641e-01 -4.745471e-01 -4.793777e-01 -4.842508e-01 -4.891659e-01 -4.941180e-01 -4.991062e-01 -5.041259e-01 -5.091757e-01 -5.142512e-01 -5.193506e-01 -5.244699e-01 -5.296068e-01 -5.347575e-01 -5.399193e-01 -5.450890e-01 -5.502631e-01 -5.554388e-01 -5.606123e-01 -5.657812e-01 -5.709411e-01 -5.760901e-01 -5.812233e-01 -5.863392e-01 -5.914326e-01 -5.965022e-01 -6.015424e-01 -6.065526e-01 -6.115265e-01 -6.164640e-01 -6.213585e-01 -6.262102e-01 -6.310122e-01 -6.357652e-01 -6.404619e-01 -6.451033e-01 -6.496820e-01 -6.541993e-01 -6.586474e-01 -6.630283e-01 -6.673338e-01 -6.715662e-01 -6.757171e-01 -6.797894e-01 -6.837743e-01 -6.876751e-01 -6.914830e-01 -6.952015e-01 -6.988217e-01 -7.023474e-01 -7.057697e-01 -7.090928e-01 -7.123076e-01 -7.154187e-01 -7.184169e-01 -7.213072e-01 -7.240803e-01 -7.267416e-01 -7.292818e-01 -7.317065e-01 -7.340065e-01 -7.361877e-01 -7.382409e-01 -7.401724e-01 -7.419730e-01 -7.436493e-01 -7.451921e-01 -7.466083e-01 -7.478889e-01 -7.490411e-01 -7.500557e-01 -7.509405e-01 -7.516863e-01 -7.523011e-01 -7.527760e-01 -7.531190e-01 -7.533216e-01 -7.533919e-01 -7.533216e-01 -7.531190e-01 -7.527760e-01 -7.523011e-01 -7.516863e-01 -7.509405e-01 -7.500557e-01 -7.490411e-01 -7.478889e-01 -7.466083e-01 -7.451921e-01 -7.436493e-01 -7.419730e-01 -7.401724e-01 -7.382409e-01 -7.361877e-01 -7.340065e-01 -7.317065e-01 -7.292818e-01 -7.267416e-01 -7.240803e-01 -7.213072e-01 -7.184169e-01 -7.154187e-01 -7.123076e-01 -7.090928e-01 -7.057697e-01 -7.023474e-01 -6.988217e-01 -6.952015e-01 -6.914830e-01 -6.876751e-01 -6.837743e-01 -6.797894e-01 -6.757171e-01 -6.715662e-01 -6.673338e-01 -6.630283e-01 -6.586474e-01 -6.541993e-01 -6.496820e-01 -6.451033e-01 -6.404619e-01 -6.357652e-01 -6.310122e-01 -6.262102e-01 -6.213585e-01 -6.164640e-01 -6.115265e-01 -6.065526e-01 -6.015424e-01 -5.965022e-01 -5.914326e-01 -5.863392e-01 -5.812233e-01 -5.760901e-01 -5.709411e-01 -5.657812e-01 -5.606123e-01 -5.554388e-01 -5.502631e-01 -5.450890e-01 -5.399193e-01 -5.347575e-01 -5.296068e-01 -5.244699e-01 -5.193506e-01 -5.142512e-01 -5.091757e-01 -5.041259e-01 -4.991062e-01 -4.941180e-01 -4.891659e-01 -4.842508e-01 -4.793777e-01 -4.745471e-01 -4.697641e-01 -4.650288e-01 -4.603467e-01 -4.557172e-01 -4.511463e-01 -4.466327e-01 -4.421828e-01 -4.377950e-01 -4.334756e-01 -4.292227e-01 -4.250429e-01 -4.209338e-01 -4.169022e-01 -4.129452e-01 -4.090700e-01 -4.052731e-01 -4.015619e-01 -3.979327e-01 -3.943928e-01 -3.909381e-01 -3.875763e-01 -3.843029e-01 -3.811255e-01 -3.780393e-01 -3.750523e-01 -3.721591e-01 -3.693679e-01 -3.666729e-01 -3.640824e-01 -3.615905e-01 -3.592053e-01 -3.569208e-01 -3.547452e-01 -3.526720e-01 -3.507096e-01 -3.488512e-01 -3.471054e-01 -3.454650e-01 -3.439387e-01 -3.425191e-01 -3.412147e-01 -3.400182e-01 -3.389380e-01 -3.379665e-01 -3.371121e-01 -3.363673e-01 -3.357402e-01 -3.352231e-01 -3.348243e-01 -3.345359e-01 -3.343661e-01 
-3.340854e-01 -3.341448e-01 -3.343149e-01 -3.346037e-01 -3.350030e-01 -3.355208e-01 -3.361488e-01 -3.368947e-01 -3.377502e-01 -3.387231e-01 -3.398048e-01 -3.410030e-01 -3.423092e-01 -3.437307e-01 -3.452592e-01 -3.469019e-01 -3.486501e-01 -3.505111e-01 -3.524762e-01 -3.545523e-01 -3.567310e-01 -3.590187e-01 -3.614072e-01 -3.639026e-01 -3.664967e-01 -3.691954e-01 -3.719905e-01 -3.748877e-01 -3.778789e-01 -3.809693e-01 -3.841511e-01 -3.874291e-01 -3.907955e-01 -3.942549e-01 -3.977996e-01 -4.014339e-01 -4.051501e-01 -4.089521e-01 -4.128326e-01 -4.167949e-01 -4.208319e-01 -4.249465e-01 -4.291319e-01 -4.333904e-01 -4.377155e-01 -4.421090e-01 -4.465647e-01 -4.510841e-01 -4.556609e-01 -4.602962e-01 -4.649842e-01 -4.697255e-01 -4.745143e-01 -4.793509e-01 -4.842298e-01 -4.891508e-01 -4.941087e-01 -4.991028e-01 -5.041282e-01 -5.091838e-01 -5.142650e-01 -5.193700e-01 -5.244949e-01 -5.296372e-01 -5.347934e-01 -5.399605e-01 -5.451353e-01 -5.503145e-01 -5.554953e-01 -5.606737e-01 -5.658474e-01 -5.710120e-01 -5.761656e-01 -5.813032e-01 -5.864235e-01 -5.915210e-01 -5.965946e-01 -6.016387e-01 -6.066526e-01 -6.116302e-01 -6.165711e-01 -6.214689e-01 -6.263238e-01 -6.311288e-01 -6.358846e-01 -6.405840e-01 -6.452280e-01 -6.498091e-01 -6.543287e-01 -6.587790e-01 -6.631619e-01 -6.674692e-01 -6.717033e-01 -6.758559e-01 -6.799296e-01 -6.839159e-01 -6.878179e-01 -6.916269e-01 -6.953464e-01 -6.989675e-01 -7.024940e-01 -7.059170e-01 -7.092407e-01 -7.124560e-01 -7.155676e-01 -7.185662e-01 -7.214568e-01 -7.242301e-01 -7.268916e-01 -7.294319e-01 -7.318568e-01 -7.341568e-01 -7.363381e-01 -7.383913e-01 -7.403228e-01 -7.421233e-01 -7.437995e-01 -7.453422e-01 -7.467584e-01 -7.480389e-01 -7.491909e-01 -7.502055e-01 -7.510902e-01 -7.518360e-01 -7.524507e-01 -7.529255e-01 -7.532685e-01 -7.534711e-01 -7.535414e-01 -7.534711e-01 -7.532685e-01 -7.529255e-01 -7.524507e-01 -7.518360e-01 -7.510902e-01 -7.502055e-01 -7.491909e-01 -7.480389e-01 -7.467584e-01 -7.453422e-01 -7.437995e-01 -7.421233e-01 -7.403228e-01 -7.383913e-01 -7.363381e-01 -7.341568e-01 -7.318568e-01 -7.294319e-01 -7.268916e-01 -7.242301e-01 -7.214568e-01 -7.185662e-01 -7.155676e-01 -7.124560e-01 -7.092407e-01 -7.059170e-01 -7.024940e-01 -6.989675e-01 -6.953464e-01 -6.916269e-01 -6.878179e-01 -6.839159e-01 -6.799296e-01 -6.758559e-01 -6.717033e-01 -6.674692e-01 -6.631619e-01 -6.587790e-01 -6.543287e-01 -6.498091e-01 -6.452280e-01 -6.405840e-01 -6.358846e-01 -6.311288e-01 -6.263238e-01 -6.214689e-01 -6.165711e-01 -6.116302e-01 -6.066526e-01 -6.016387e-01 -5.965946e-01 -5.915210e-01 -5.864235e-01 -5.813032e-01 -5.761656e-01 -5.710120e-01 -5.658474e-01 -5.606737e-01 -5.554953e-01 -5.503145e-01 -5.451353e-01 -5.399605e-01 -5.347934e-01 -5.296372e-01 -5.244949e-01 -5.193700e-01 -5.142650e-01 -5.091838e-01 -5.041282e-01 -4.991028e-01 -4.941087e-01 -4.891508e-01 -4.842298e-01 -4.793509e-01 -4.745143e-01 -4.697255e-01 -4.649842e-01 -4.602962e-01 -4.556609e-01 -4.510841e-01 -4.465647e-01 -4.421090e-01 -4.377155e-01 -4.333904e-01 -4.291319e-01 -4.249465e-01 -4.208319e-01 -4.167949e-01 -4.128326e-01 -4.089521e-01 -4.051501e-01 -4.014339e-01 -3.977996e-01 -3.942549e-01 -3.907955e-01 -3.874291e-01 -3.841511e-01 -3.809693e-01 -3.778789e-01 -3.748877e-01 -3.719905e-01 -3.691954e-01 -3.664967e-01 -3.639026e-01 -3.614072e-01 -3.590187e-01 -3.567310e-01 -3.545523e-01 -3.524762e-01 -3.505111e-01 -3.486501e-01 -3.469019e-01 -3.452592e-01 -3.437307e-01 -3.423092e-01 -3.410030e-01 -3.398048e-01 -3.387231e-01 -3.377502e-01 -3.368947e-01 -3.361488e-01 -3.355208e-01 -3.350030e-01 -3.346037e-01 -3.343149e-01 -3.341448e-01 
-3.337492e-01 -3.338088e-01 -3.339792e-01 -3.342685e-01 -3.346686e-01 -3.351873e-01 -3.358163e-01 -3.365636e-01 -3.374207e-01 -3.383953e-01 -3.394789e-01 -3.406793e-01 -3.419878e-01 -3.434120e-01 -3.449432e-01 -3.465888e-01 -3.483403e-01 -3.502046e-01 -3.521733e-01 -3.542532e-01 -3.564358e-01 -3.587277e-01 -3.611205e-01 -3.636205e-01 -3.662193e-01 -3.689230e-01 -3.717233e-01 -3.746258e-01 -3.776225e-01 -3.807186e-01 -3.839062e-01 -3.871903e-01 -3.905629e-01 -3.940287e-01 -3.975800e-01 -4.012210e-01 -4.049441e-01 -4.087531e-01 -4.126408e-01 -4.166104e-01 -4.206549e-01 -4.247771e-01 -4.289701e-01 -4.332365e-01 -4.375695e-01 -4.419711e-01 -4.464350e-01 -4.509625e-01 -4.555477e-01 -4.601914e-01 -4.648879e-01 -4.696377e-01 -4.744351e-01 -4.792803e-01 -4.841679e-01 -4.890976e-01 -4.940642e-01 -4.990670e-01 -5.041012e-01 -5.091655e-01 -5.142554e-01 -5.193691e-01 -5.245026e-01 -5.296535e-01 -5.348182e-01 -5.399938e-01 -5.451771e-01 -5.503647e-01 -5.555537e-01 -5.607403e-01 -5.659221e-01 -5.710947e-01 -5.762561e-01 -5.814015e-01 -5.865293e-01 -5.916343e-01 -5.967153e-01 -6.017666e-01 -6.067875e-01 -6.117719e-01 -6.167196e-01 -6.216240e-01 -6.264852e-01 -6.312965e-01 -6.360584e-01 -6.407637e-01 -6.454134e-01 -6.500000e-01 -6.545250e-01 -6.589804e-01 -6.633683e-01 -6.676805e-01 -6.719193e-01 -6.760763e-01 -6.801543e-01 -6.841447e-01 -6.880507e-01 -6.918634e-01 -6.955865e-01 -6.992110e-01 -7.027408e-01 -7.061669e-01 -7.094936e-01 -7.127117e-01 -7.158259e-01 -7.188270e-01 -7.217200e-01 -7.244955e-01 -7.271591e-01 -7.297014e-01 -7.321280e-01 -7.344297e-01 -7.366126e-01 -7.386672e-01 -7.406001e-01 -7.424019e-01 -7.440792e-01 -7.456230e-01 -7.470401e-01 -7.483214e-01 -7.494742e-01 -7.504894e-01 -7.513746e-01 -7.521209e-01 -7.527360e-01 -7.532111e-01 -7.535543e-01 -7.537570e-01 -7.538274e-01 -7.537570e-01 -7.535543e-01 -7.532111e-01 -7.527360e-01 -7.521209e-01 -7.513746e-01 -7.504894e-01 -7.494742e-01 -7.483214e-01 -7.470401e-01 -7.456230e-01 -7.440792e-01 -7.424019e-01 -7.406001e-01 -7.386672e-01 -7.366126e-01 -7.344297e-01 -7.321280e-01 -7.297014e-01 -7.271591e-01 -7.244955e-01 -7.217200e-01 -7.188270e-01 -7.158259e-01 -7.127117e-01 -7.094936e-01 -7.061669e-01 -7.027408e-01 -6.992110e-01 -6.955865e-01 -6.918634e-01 -6.880507e-01 -6.841447e-01 -6.801543e-01 -6.760763e-01 -6.719193e-01 -6.676805e-01 -6.633683e-01 -6.589804e-01 -6.545250e-01 -6.500000e-01 -6.454134e-01 -6.407637e-01 -6.360584e-01 -6.312965e-01 -6.264852e-01 -6.216240e-01 -6.167196e-01 -6.117719e-01 -6.067875e-01 -6.017666e-01 -5.967153e-01 -5.916343e-01 -5.865293e-01 -5.814015e-01 -5.762561e-01 -5.710947e-01 -5.659221e-01 -5.607403e-01 -5.555537e-01 -5.503647e-01 -5.451771e-01 -5.399938e-01 -5.348182e-01 -5.296535e-01 -5.245026e-01 -5.193691e-01 -5.142554e-01 -5.091655e-01 -5.041012e-01 -4.990670e-01 -4.940642e-01 -4.890976e-01 -4.841679e-01 -4.792803e-01 -4.744351e-01 -4.696377e-01 -4.648879e-01 -4.601914e-01 -4.555477e-01 -4.509625e-01 -4.464350e-01 -4.419711e-01 -4.375695e-01 -4.332365e-01 -4.289701e-01 -4.247771e-01 -4.206549e-01 -4.166104e-01 -4.126408e-01 -4.087531e-01 -4.049441e-01 -4.012210e-01 -3.975800e-01 -3.940287e-01 -3.905629e-01 -3.871903e-01 -3.839062e-01 -3.807186e-01 -3.776225e-01 -3.746258e-01 -3.717233e-01 -3.689230e-01 -3.662193e-01 -3.636205e-01 -3.611205e-01 -3.587277e-01 -3.564358e-01 -3.542532e-01 -3.521733e-01 -3.502046e-01 -3.483403e-01 -3.465888e-01 -3.449432e-01 -3.434120e-01 -3.419878e-01 -3.406793e-01 -3.394789e-01 -3.383953e-01 -3.374207e-01 -3.365636e-01 -3.358163e-01 -3.351873e-01 -3.346686e-01 -3.342685e-01 -3.339792e-01 -3.338088e-01 
-3.332982e-01 -3.333579e-01 -3.335286e-01 -3.338186e-01 -3.342195e-01 -3.347394e-01 -3.353698e-01 -3.361187e-01 -3.369776e-01 -3.379544e-01 -3.390404e-01 -3.402435e-01 -3.415549e-01 -3.429822e-01 -3.445168e-01 -3.461661e-01 -3.479214e-01 -3.497899e-01 -3.517630e-01 -3.538475e-01 -3.560351e-01 -3.583321e-01 -3.607304e-01 -3.632360e-01 -3.658407e-01 -3.685506e-01 -3.713572e-01 -3.742664e-01 -3.772699e-01 -3.803732e-01 -3.835682e-01 -3.868598e-01 -3.902403e-01 -3.937141e-01 -3.972737e-01 -4.009231e-01 -4.046549e-01 -4.084729e-01 -4.123697e-01 -4.163486e-01 -4.204026e-01 -4.245345e-01 -4.287374e-01 -4.330138e-01 -4.373571e-01 -4.417691e-01 -4.462434e-01 -4.507817e-01 -4.553777e-01 -4.600324e-01 -4.647399e-01 -4.695009e-01 -4.743096e-01 -4.791662e-01 -4.840652e-01 -4.890064e-01 -4.939847e-01 -4.989991e-01 -5.040450e-01 -5.091209e-01 -5.142226e-01 -5.193480e-01 -5.244933e-01 -5.296559e-01 -5.348324e-01 -5.400197e-01 -5.452146e-01 -5.504137e-01 -5.556143e-01 -5.608123e-01 -5.660054e-01 -5.711893e-01 -5.763618e-01 -5.815182e-01 -5.866570e-01 -5.917727e-01 -5.968644e-01 -6.019262e-01 -6.069575e-01 -6.119521e-01 -6.169097e-01 -6.218239e-01 -6.266949e-01 -6.315156e-01 -6.362868e-01 -6.410011e-01 -6.456597e-01 -6.502549e-01 -6.547883e-01 -6.592520e-01 -6.636479e-01 -6.679678e-01 -6.722142e-01 -6.763785e-01 -6.804636e-01 -6.844609e-01 -6.883736e-01 -6.921927e-01 -6.959220e-01 -6.995524e-01 -7.030880e-01 -7.065196e-01 -7.098516e-01 -7.130747e-01 -7.161938e-01 -7.191995e-01 -7.220968e-01 -7.248766e-01 -7.275441e-01 -7.300901e-01 -7.325203e-01 -7.348254e-01 -7.370114e-01 -7.390689e-01 -7.410045e-01 -7.428088e-01 -7.444885e-01 -7.460343e-01 -7.474534e-01 -7.487364e-01 -7.498908e-01 -7.509074e-01 -7.517938e-01 -7.525410e-01 -7.531569e-01 -7.536327e-01 -7.539764e-01 -7.541793e-01 -7.542498e-01 -7.541793e-01 -7.539764e-01 -7.536327e-01 -7.531569e-01 -7.525410e-01 -7.517938e-01 -7.509074e-01 -7.498908e-01 -7.487364e-01 -7.474534e-01 -7.460343e-01 -7.444885e-01 -7.428088e-01 -7.410045e-01 -7.390689e-01 -7.370114e-01 -7.348254e-01 -7.325203e-01 -7.300901e-01 -7.275441e-01 -7.248766e-01 -7.220968e-01 -7.191995e-01 -7.161938e-01 -7.130747e-01 -7.098516e-01 -7.065196e-01 -7.030880e-01 -6.995524e-01 -6.959220e-01 -6.921927e-01 -6.883736e-01 -6.844609e-01 -6.804636e-01 -6.763785e-01 -6.722142e-01 -6.679678e-01 -6.636479e-01 -6.592520e-01 -6.547883e-01 -6.502549e-01 -6.456597e-01 -6.410011e-01 -6.362868e-01 -6.315156e-01 -6.266949e-01 -6.218239e-01 -6.169097e-01 -6.119521e-01 -6.069575e-01 -6.019262e-01 -5.968644e-01 -5.917727e-01 -5.866570e-01 -5.815182e-01 -5.763618e-01 -5.711893e-01 -5.660054e-01 -5.608123e-01 -5.556143e-01 -5.504137e-01 -5.452146e-01 -5.400197e-01 -5.348324e-01 -5.296559e-01 -5.244933e-01 -5.193480e-01 -5.142226e-01 -5.091209e-01 -5.040450e-01 -4.989991e-01 -4.939847e-01 -4.890064e-01 -4.840652e-01 -4.791662e-01 -4.743096e-01 -4.695009e-01 -4.647399e-01 -4.600324e-01 -4.553777e-01 -4.507817e-01 -4.462434e-01 -4.417691e-01 -4.373571e-01 -4.330138e-01 -4.287374e-01 -4.245345e-01 -4.204026e-01 -4.163486e-01 -4.123697e-01 -4.084729e-01 -4.046549e-01 -4.009231e-01 -3.972737e-01 -3.937141e-01 -3.902403e-01 -3.868598e-01 -3.835682e-01 -3.803732e-01 -3.772699e-01 -3.742664e-01 -3.713572e-01 -3.685506e-01 -3.658407e-01 -3.632360e-01 -3.607304e-01 -3.583321e-01 -3.560351e-01 -3.538475e-01 -3.517630e-01 -3.497899e-01 -3.479214e-01 -3.461661e-01 -3.445168e-01 -3.429822e-01 -3.415549e-01 -3.402435e-01 -3.390404e-01 -3.379544e-01 -3.369776e-01 -3.361187e-01 -3.353698e-01 -3.347394e-01 -3.342195e-01 -3.338186e-01 -3.335286e-01 -3.333579e-01 