# vtk DataFile Version 2.0
Comment goes here
ASCII

DATASET STRUCTURED_POINTS
FIELD FieldData 1
TIME 1 1 double
0.08000000
DIMENSIONS    256   256   1

ORIGIN    0.000   0.000   0.000
SPACING   0.0039062 0.0039062   1.000

POINT_DATA   65536
SCALARS uY double
LOOKUP_TABLE default

-3.137165e-01 -3.137708e-01 -3.139302e-01 -3.141982e-01 -3.145711e-01 -3.150523e-01 -3.156381e-01 -3.163318e-01 -3.171296e-01 -3.180346e-01 -3.190430e-01 -3.201579e-01 -3.213754e-01 -3.226984e-01 -3.241228e-01 -3.256517e-01 -3.272808e-01 -3.290130e-01 -3.308441e-01 -3.327768e-01 -3.348067e-01 -3.369365e-01 -3.391618e-01 -3.414851e-01 -3.439019e-01 -3.464146e-01 -3.490187e-01 -3.517163e-01 -3.545031e-01 -3.573807e-01 -3.603451e-01 -3.633976e-01 -3.665340e-01 -3.697556e-01 -3.730582e-01 -3.764428e-01 -3.799053e-01 -3.834465e-01 -3.870622e-01 -3.907529e-01 -3.945146e-01 -3.983476e-01 -4.022477e-01 -4.062151e-01 -4.102457e-01 -4.143394e-01 -4.184921e-01 -4.227034e-01 -4.269694e-01 -4.312894e-01 -4.356594e-01 -4.400787e-01 -4.445433e-01 -4.490521e-01 -4.536013e-01 -4.581895e-01 -4.628130e-01 -4.674701e-01 -4.721573e-01 -4.768727e-01 -4.816126e-01 -4.863751e-01 -4.911566e-01 -4.959548e-01 -5.007665e-01 -5.055889e-01 -5.104190e-01 -5.152538e-01 -5.200904e-01 -5.249256e-01 -5.297566e-01 -5.345802e-01 -5.393935e-01 -5.441931e-01 -5.489764e-01 -5.537398e-01 -5.584808e-01 -5.631955e-01 -5.678819e-01 -5.725357e-01 -5.771551e-01 -5.817356e-01 -5.862757e-01 -5.907708e-01 -5.952194e-01 -5.996169e-01 -6.039622e-01 -6.082502e-01 -6.124801e-01 -6.166470e-01 -6.207500e-01 -6.247842e-01 -6.287490e-01 -6.326393e-01 -6.364549e-01 -6.401906e-01 -6.438463e-01 -6.474167e-01 -6.509023e-01 -6.542975e-01 -6.576030e-01 -6.608134e-01 -6.639294e-01 -6.669458e-01 -6.698636e-01 -6.726773e-01 -6.753884e-01 -6.779915e-01 -6.804881e-01 -6.828730e-01 -6.851479e-01 -6.873077e-01 -6.893544e-01 -6.912828e-01 -6.930953e-01 -6.947868e-01 -6.963598e-01 -6.978094e-01 -6.991384e-01 -7.003419e-01 -7.014230e-01 -7.023769e-01 -7.032069e-01 -7.039083e-01 -7.044848e-01 -7.049318e-01 -7.052531e-01 -7.054443e-01 -7.055094e-01 -7.054443e-01 -7.052531e-01 -7.049318e-01 -7.044848e-01 -7.039083e-01 -7.032069e-01 -7.023769e-01 -7.014230e-01 -7.003419e-01 -6.991384e-01 -6.978094e-01 -6.963598e-01 -6.947868e-01 -6.930953e-01 -6.912828e-01 -6.893544e-01 -6.873077e-01 -6.851479e-01 -6.828730e-01 -6.804881e-01 -6.779915e-01 -6.753884e-01 -6.726773e-01 -6.698636e-01 -6.669458e-01 -6.639294e-01 -6.608134e-01 -6.576030e-01 -6.542975e-01 -6.509023e-01 -6.474167e-01 -6.438463e-01 -6.401906e-01 -6.364549e-01 -6.326393e-01 -6.287490e-01 -6.247842e-01 -6.207500e-01 -6.166470e-01 -6.124801e-01 -6.082502e-01 -6.039622e-01 -5.996169e-01 -5.952194e-01 -5.907708e-01 -5.862757e-01 -5.817356e-01 -5.771551e-01 -5.725357e-01 -5.678819e-01 -5.631955e-01 -5.584808e-01 -5.537398e-01 -5.489764e-01 -5.441931e-01 -5.393935e-01 -5.345802e-01 -5.297566e-01 -5.249256e-01 -5.200904e-01 -5.152538e-01 -5.104190e-01 -5.055889e-01 -5.007665e-01 -4.959548e-01 -4.911566e-01 -4.863751e-01 -4.816126e-01 -4.768727e-01 -4.721573e-01 -4.674701e-01 -4.628130e-01 -4.581895e-01 -4.536013e-01 -4.490521e-01 -4.445433e-01 -4.400787e-01 -4.356594e-01 -4.312894e-01 -4.269694e-01 -4.227034e-01 -4.184921e-01 -4.143394e-01 -4.102457e-01 -4.062151e-01 -4.022477e-01 -3.983476e-01 -3.945146e-01 -3.907529e-01 -3.870622e-01 -3.834465e-01 -3.799053e-01 -3.764428e-01 -3.730582e-01 -3.697556e-01 -3.665340e-01 -3.633976e-01 -3.603451e-01 -3.573807e-01 -3.545031e-01 -3.517163e-01 -3.490187e-01 -3.464146e-01 -3.439019e-01 -3.414851e-01 -3.391618e-01 -3.369365e-01 -3.348067e-01 -3.327768e-01 -3.308441e-01 -3.290130e-01 -3.272808e-01 -3.256517e-01 -3.241228e-01 -3.226984e-01 -3.213754e-01 -3.201579e-01 -3.190430e-01 -3.180346e-01 -3.171296e-01 -3.163318e-01 -3.156381e-01 -3.150523e-01 -3.145711e-01 -3.141982e-01 -3.139302e-01 -3.137708e-01 
-3.134531e-01 -3.135075e-01 -3.136670e-01 -3.139352e-01 -3.143084e-01 -3.147899e-01 -3.153762e-01 -3.160704e-01 -3.168687e-01 -3.177744e-01 -3.187835e-01 -3.198993e-01 -3.211176e-01 -3.224416e-01 -3.238671e-01 -3.253971e-01 -3.270275e-01 -3.287611e-01 -3.305936e-01 -3.325278e-01 -3.345594e-01 -3.366909e-01 -3.389180e-01 -3.412432e-01 -3.436621e-01 -3.461769e-01 -3.487833e-01 -3.514833e-01 -3.542725e-01 -3.571528e-01 -3.601198e-01 -3.631752e-01 -3.663146e-01 -3.695393e-01 -3.728451e-01 -3.762331e-01 -3.796991e-01 -3.832439e-01 -3.868633e-01 -3.905580e-01 -3.943237e-01 -3.981609e-01 -4.020653e-01 -4.060372e-01 -4.100724e-01 -4.141709e-01 -4.183285e-01 -4.225449e-01 -4.268160e-01 -4.311414e-01 -4.355169e-01 -4.399419e-01 -4.444123e-01 -4.489270e-01 -4.534823e-01 -4.580767e-01 -4.627066e-01 -4.673703e-01 -4.720642e-01 -4.767863e-01 -4.815332e-01 -4.863028e-01 -4.910915e-01 -4.958971e-01 -5.007162e-01 -5.055462e-01 -5.103840e-01 -5.152266e-01 -5.200711e-01 -5.249143e-01 -5.297535e-01 -5.345853e-01 -5.394069e-01 -5.442149e-01 -5.490067e-01 -5.537785e-01 -5.585282e-01 -5.632515e-01 -5.679466e-01 -5.726091e-01 -5.772372e-01 -5.818265e-01 -5.863754e-01 -5.908793e-01 -5.953367e-01 -5.997430e-01 -6.040970e-01 -6.083938e-01 -6.126324e-01 -6.168079e-01 -6.209195e-01 -6.249622e-01 -6.289355e-01 -6.328342e-01 -6.366580e-01 -6.404018e-01 -6.440656e-01 -6.476440e-01 -6.511373e-01 -6.545401e-01 -6.578531e-01 -6.610708e-01 -6.641940e-01 -6.672173e-01 -6.701418e-01 -6.729622e-01 -6.756796e-01 -6.782888e-01 -6.807913e-01 -6.831819e-01 -6.854623e-01 -6.876272e-01 -6.896789e-01 -6.916120e-01 -6.934289e-01 -6.951245e-01 -6.967013e-01 -6.981545e-01 -6.994868e-01 -7.006932e-01 -7.017770e-01 -7.027332e-01 -7.035652e-01 -7.042685e-01 -7.048463e-01 -7.052945e-01 -7.056165e-01 -7.058082e-01 -7.058735e-01 -7.058082e-01 -7.056165e-01 -7.052945e-01 -7.048463e-01 -7.042685e-01 -7.035652e-01 -7.027332e-01 -7.017770e-01 -7.006932e-01 -6.994868e-01 -6.981545e-01 -6.967013e-01 -6.951245e-01 -6.934289e-01 -6.916120e-01 -6.896789e-01 -6.876272e-01 -6.854623e-01 -6.831819e-01 -6.807913e-01 -6.782888e-01 -6.756796e-01 -6.729622e-01 -6.701418e-01 -6.672173e-01 -6.641940e-01 -6.610708e-01 -6.578531e-01 -6.545401e-01 -6.511373e-01 -6.476440e-01 -6.440656e-01 -6.404018e-01 -6.366580e-01 -6.328342e-01 -6.289355e-01 -6.249622e-01 -6.209195e-01 -6.168079e-01 -6.126324e-01 -6.083938e-01 -6.040970e-01 -5.997430e-01 -5.953367e-01 -5.908793e-01 -5.863754e-01 -5.818265e-01 -5.772372e-01 -5.726091e-01 -5.679466e-01 -5.632515e-01 -5.585282e-01 -5.537785e-01 -5.490067e-01 -5.442149e-01 -5.394069e-01 -5.345853e-01 -5.297535e-01 -5.249143e-01 -5.200711e-01 -5.152266e-01 -5.103840e-01 -5.055462e-01 -5.007162e-01 -4.958971e-01 -4.910915e-01 -4.863028e-01 -4.815332e-01 -4.767863e-01 -4.720642e-01 -4.673703e-01 -4.627066e-01 -4.580767e-01 -4.534823e-01 -4.489270e-01 -4.444123e-01 -4.399419e-01 -4.355169e-01 -4.311414e-01 -4.268160e-01 -4.225449e-01 -4.183285e-01 -4.141709e-01 -4.100724e-01 -4.060372e-01 -4.020653e-01 -3.981609e-01 -3.943237e-01 -3.905580e-01 -3.868633e-01 -3.832439e-01 -3.796991e-01 -3.762331e-01 -3.728451e-01 -3.695393e-01 -3.663146e-01 -3.631752e-01 -3.601198e-01 -3.571528e-01 -3.542725e-01 -3.514833e-01 -3.487833e-01 -3.461769e-01 -3.436621e-01 -3.412432e-01 -3.389180e-01 -3.366909e-01 -3.345594e-01 -3.325278e-01 -3.305936e-01 -3.287611e-01 -3.270275e-01 -3.253971e-01 -3.238671e-01 -3.224416e-01 -3.211176e-01 -3.198993e-01 -3.187835e-01 -3.177744e-01 -3.168687e-01 -3.160704e-01 -3.153762e-01 -3.147899e-01 -3.143084e-01 -3.139352e-01 -3.136670e-01 -3.135075e-01 
-3.130830e-01 -3.131374e-01 -3.132971e-01 -3.135656e-01 -3.139392e-01 -3.144213e-01 -3.150082e-01 -3.157032e-01 -3.165024e-01 -3.174091e-01 -3.184194e-01 -3.195364e-01 -3.207562e-01 -3.220816e-01 -3.235089e-01 -3.250407e-01 -3.266730e-01 -3.284086e-01 -3.302434e-01 -3.321799e-01 -3.342140e-01 -3.363481e-01 -3.385781e-01 -3.409062e-01 -3.433282e-01 -3.458462e-01 -3.484561e-01 -3.511596e-01 -3.539526e-01 -3.568368e-01 -3.598080e-01 -3.628676e-01 -3.660114e-01 -3.692407e-01 -3.725513e-01 -3.759444e-01 -3.794155e-01 -3.829657e-01 -3.865906e-01 -3.902910e-01 -3.940627e-01 -3.979060e-01 -4.018167e-01 -4.057951e-01 -4.098371e-01 -4.139424e-01 -4.181071e-01 -4.223308e-01 -4.266095e-01 -4.309425e-01 -4.353260e-01 -4.397590e-01 -4.442377e-01 -4.487609e-01 -4.533248e-01 -4.579281e-01 -4.625671e-01 -4.672400e-01 -4.719432e-01 -4.766750e-01 -4.814316e-01 -4.862111e-01 -4.910099e-01 -4.958257e-01 -5.006552e-01 -5.054957e-01 -5.103442e-01 -5.151976e-01 -5.200531e-01 -5.249074e-01 -5.297577e-01 -5.346007e-01 -5.394338e-01 -5.442532e-01 -5.490566e-01 -5.538400e-01 -5.586013e-01 -5.633364e-01 -5.680432e-01 -5.727175e-01 -5.773575e-01 -5.819586e-01 -5.865193e-01 -5.910350e-01 -5.955043e-01 -5.999224e-01 -6.042880e-01 -6.085965e-01 -6.128467e-01 -6.170337e-01 -6.211567e-01 -6.252108e-01 -6.291952e-01 -6.331050e-01 -6.369398e-01 -6.406943e-01 -6.443687e-01 -6.479575e-01 -6.514610e-01 -6.548739e-01 -6.581967e-01 -6.614240e-01 -6.645566e-01 -6.675890e-01 -6.705224e-01 -6.733513e-01 -6.760771e-01 -6.786943e-01 -6.812045e-01 -6.836025e-01 -6.858899e-01 -6.880617e-01 -6.901197e-01 -6.920589e-01 -6.938815e-01 -6.955825e-01 -6.971643e-01 -6.986221e-01 -6.999586e-01 -7.011689e-01 -7.022561e-01 -7.032154e-01 -7.040501e-01 -7.047556e-01 -7.053353e-01 -7.057849e-01 -7.061080e-01 -7.063003e-01 -7.063658e-01 -7.063003e-01 -7.061080e-01 -7.057849e-01 -7.053353e-01 -7.047556e-01 -7.040501e-01 -7.032154e-01 -7.022561e-01 -7.011689e-01 -6.999586e-01 -6.986221e-01 -6.971643e-01 -6.955825e-01 -6.938815e-01 -6.920589e-01 -6.901197e-01 -6.880617e-01 -6.858899e-01 -6.836025e-01 -6.812045e-01 -6.786943e-01 -6.760771e-01 -6.733513e-01 -6.705224e-01 -6.675890e-01 -6.645566e-01 -6.614240e-01 -6.581967e-01 -6.548739e-01 -6.514610e-01 -6.479575e-01 -6.443687e-01 -6.406943e-01 -6.369398e-01 -6.331050e-01 -6.291952e-01 -6.252108e-01 -6.211567e-01 -6.170337e-01 -6.128467e-01 -6.085965e-01 -6.042880e-01 -5.999224e-01 -5.955043e-01 -5.910350e-01 -5.865193e-01 -5.819586e-01 -5.773575e-01 -5.727175e-01 -5.680432e-01 -5.633364e-01 -5.586013e-01 -5.538400e-01 -5.490566e-01 -5.442532e-01 -5.394338e-01 -5.346007e-01 -5.297577e-01 -5.249074e-01 -5.200531e-01 -5.151976e-01 -5.103442e-01 -5.054957e-01 -5.006552e-01 -4.958257e-01 -4.910099e-01 -4.862111e-01 -4.814316e-01 -4.766750e-01 -4.719432e-01 -4.672400e-01 -4.625671e-01 -4.579281e-01 -4.533248e-01 -4.487609e-01 -4.442377e-01 -4.397590e-01 -4.353260e-01 -4.309425e-01 -4.266095e-01 -4.223308e-01 -4.181071e-01 -4.139424e-01 -4.098371e-01 -4.057951e-01 -4.018167e-01 -3.979060e-01 -3.940627e-01 -3.902910e-01 -3.865906e-01 -3.829657e-01 -3.794155e-01 -3.759444e-01 -3.725513e-01 -3.692407e-01 -3.660114e-01 -3.628676e-01 -3.598080e-01 -3.568368e-01 -3.539526e-01 -3.511596e-01 -3.484561e-01 -3.458462e-01 -3.433282e-01 -3.409062e-01 -3.385781e-01 -3.363481e-01 -3.342140e-01 -3.321799e-01 -3.302434e-01 -3.284086e-01 -3.266730e-01 -3.250407e-01 -3.235089e-01 -3.220816e-01 -3.207562e-01 -3.195364e-01 -3.184194e-01 -3.174091e-01 -3.165024e-01 -3.157032e-01 -3.150082e-01 -3.144213e-01 -3.139392e-01 -3.135656e-01 -3.132971e-01 -3.131374e-01 
-3.126056e-01 -3.126602e-01 -3.128201e-01 -3.130890e-01 -3.134631e-01 -3.139460e-01 -3.145337e-01 -3.152298e-01 -3.160302e-01 -3.169383e-01 -3.179502e-01 -3.190689e-01 -3.202905e-01 -3.216181e-01 -3.230476e-01 -3.245818e-01 -3.262167e-01 -3.279551e-01 -3.297929e-01 -3.317326e-01 -3.337700e-01 -3.359077e-01 -3.381414e-01 -3.404735e-01 -3.428997e-01 -3.454221e-01 -3.480365e-01 -3.507449e-01 -3.535429e-01 -3.564323e-01 -3.594089e-01 -3.624742e-01 -3.656239e-01 -3.688594e-01 -3.721764e-01 -3.755760e-01 -3.790540e-01 -3.826113e-01 -3.862435e-01 -3.899515e-01 -3.937310e-01 -3.975823e-01 -4.015014e-01 -4.054884e-01 -4.095391e-01 -4.136535e-01 -4.178275e-01 -4.220608e-01 -4.263493e-01 -4.306924e-01 -4.350861e-01 -4.395297e-01 -4.440191e-01 -4.485533e-01 -4.531285e-01 -4.577433e-01 -4.623939e-01 -4.670788e-01 -4.717942e-01 -4.765382e-01 -4.813075e-01 -4.860997e-01 -4.909115e-01 -4.957404e-01 -5.005832e-01 -5.054373e-01 -5.102994e-01 -5.151666e-01 -5.200360e-01 -5.249045e-01 -5.297690e-01 -5.346264e-01 -5.394739e-01 -5.443079e-01 -5.491259e-01 -5.539241e-01 -5.587002e-01 -5.634501e-01 -5.681718e-01 -5.728610e-01 -5.775158e-01 -5.821319e-01 -5.867075e-01 -5.912381e-01 -5.957222e-01 -6.001550e-01 -6.045354e-01 -6.088585e-01 -6.131232e-01 -6.173246e-01 -6.214619e-01 -6.255301e-01 -6.295285e-01 -6.334521e-01 -6.373005e-01 -6.410685e-01 -6.447561e-01 -6.483579e-01 -6.518741e-01 -6.552995e-01 -6.586345e-01 -6.618737e-01 -6.650179e-01 -6.680616e-01 -6.710060e-01 -6.738455e-01 -6.765815e-01 -6.792087e-01 -6.817285e-01 -6.841355e-01 -6.864318e-01 -6.886118e-01 -6.906778e-01 -6.926245e-01 -6.944541e-01 -6.961617e-01 -6.977497e-01 -6.992132e-01 -7.005549e-01 -7.017699e-01 -7.028614e-01 -7.038245e-01 -7.046624e-01 -7.053707e-01 -7.059527e-01 -7.064040e-01 -7.067284e-01 -7.069215e-01 -7.069872e-01 -7.069215e-01 -7.067284e-01 -7.064040e-01 -7.059527e-01 -7.053707e-01 -7.046624e-01 -7.038245e-01 -7.028614e-01 -7.017699e-01 -7.005549e-01 -6.992132e-01 -6.977497e-01 -6.961617e-01 -6.944541e-01 -6.926245e-01 -6.906778e-01 -6.886118e-01 -6.864318e-01 -6.841355e-01 -6.817285e-01 -6.792087e-01 -6.765815e-01 -6.738455e-01 -6.710060e-01 -6.680616e-01 -6.650179e-01 -6.618737e-01 -6.586345e-01 -6.552995e-01 -6.518741e-01 -6.483579e-01 -6.447561e-01 -6.410685e-01 -6.373005e-01 -6.334521e-01 -6.295285e-01 -6.255301e-01 -6.214619e-01 -6.173246e-01 -6.131232e-01 -6.088585e-01 -6.045354e-01 -6.001550e-01 -5.957222e-01 -5.912381e-01 -5.867075e-01 -5.821319e-01 -5.775158e-01 -5.728610e-01 -5.681718e-01 -5.634501e-01 -5.587002e-01 -5.539241e-01 -5.491259e-01 -5.443079e-01 -5.394739e-01 -5.346264e-01 -5.297690e-01 -5.249045e-01 -5.200360e-01 -5.151666e-01 -5.102994e-01 -5.054373e-01 -5.005832e-01 -4.957404e-01 -4.909115e-01 -4.860997e-01 -4.813075e-01 -4.765382e-01 -4.717942e-01 -4.670788e-01 -4.623939e-01 -4.577433e-01 -4.531285e-01 -4.485533e-01 -4.440191e-01 -4.395297e-01 -4.350861e-01 -4.306924e-01 -4.263493e-01 -4.220608e-01 -4.178275e-01 -4.136535e-01 -4.095391e-01 -4.054884e-01 -4.015014e-01 -3.975823e-01 -3.937310e-01 -3.899515e-01 -3.862435e-01 -3.826113e-01 -3.790540e-01 -3.755760e-01 -3.721764e-01 -3.688594e-01 -3.656239e-01 -3.624742e-01 -3.594089e-01 -3.564323e-01 -3.535429e-01 -3.507449e-01 -3.480365e-01 -3.454221e-01 -3.428997e-01 -3.404735e-01 -3.381414e-01 -3.359077e-01 -3.337700e-01 -3.317326e-01 -3.297929e-01 -3.279551e-01 -3.262167e-01 -3.245818e-01 -3.230476e-01 -3.216181e-01 -3.202905e-01 -3.190689e-01 -3.179502e-01 -3.169383e-01 -3.160302e-01 -3.152298e-01 -3.145337e-01 -3.139460e-01 -3.134631e-01 -3.130890e-01 -3.128201e-01 -3.126602e-01 
-3.120213e-01 -3.120759e-01 -3.122361e-01 -3.125055e-01 -3.128804e-01 -3.133641e-01 -3.139530e-01 -3.146504e-01 -3.154524e-01 -3.163622e-01 -3.173760e-01 -3.184969e-01 -3.197210e-01 -3.210511e-01 -3.224834e-01 -3.240207e-01 -3.256590e-01 -3.274009e-01 -3.292423e-01 -3.311860e-01 -3.332277e-01 -3.353698e-01 -3.376083e-01 -3.399453e-01 -3.423767e-01 -3.449046e-01 -3.475248e-01 -3.502391e-01 -3.530434e-01 -3.559394e-01 -3.589228e-01 -3.619951e-01 -3.651522e-01 -3.683954e-01 -3.717203e-01 -3.751282e-01 -3.786147e-01 -3.821808e-01 -3.858222e-01 -3.895396e-01 -3.933287e-01 -3.971901e-01 -4.011195e-01 -4.051170e-01 -4.091787e-01 -4.133043e-01 -4.174898e-01 -4.217349e-01 -4.260354e-01 -4.303909e-01 -4.347973e-01 -4.392539e-01 -4.437566e-01 -4.483044e-01 -4.528934e-01 -4.575222e-01 -4.621872e-01 -4.668867e-01 -4.716169e-01 -4.763762e-01 -4.811608e-01 -4.859686e-01 -4.907962e-01 -4.956412e-01 -5.005003e-01 -5.053708e-01 -5.102495e-01 -5.151336e-01 -5.200200e-01 -5.249056e-01 -5.297875e-01 -5.346623e-01 -5.395273e-01 -5.443789e-01 -5.492147e-01 -5.540307e-01 -5.588247e-01 -5.635926e-01 -5.683322e-01 -5.730394e-01 -5.777123e-01 -5.823463e-01 -5.869399e-01 -5.914884e-01 -5.959903e-01 -6.004410e-01 -6.048391e-01 -6.091797e-01 -6.134619e-01 -6.176806e-01 -6.218351e-01 -6.259202e-01 -6.299354e-01 -6.338755e-01 -6.377402e-01 -6.415243e-01 -6.452277e-01 -6.488450e-01 -6.523765e-01 -6.558167e-01 -6.591663e-01 -6.624197e-01 -6.655778e-01 -6.686350e-01 -6.715924e-01 -6.744446e-01 -6.771929e-01 -6.798319e-01 -6.823630e-01 -6.847810e-01 -6.870876e-01 -6.892776e-01 -6.913530e-01 -6.933086e-01 -6.951466e-01 -6.968621e-01 -6.984574e-01 -6.999276e-01 -7.012755e-01 -7.024962e-01 -7.035927e-01 -7.045603e-01 -7.054021e-01 -7.061137e-01 -7.066984e-01 -7.071518e-01 -7.074777e-01 -7.076717e-01 -7.077377e-01 -7.076717e-01 -7.074777e-01 -7.071518e-01 -7.066984e-01 -7.061137e-01 -7.054021e-01 -7.045603e-01 -7.035927e-01 -7.024962e-01 -7.012755e-01 -6.999276e-01 -6.984574e-01 -6.968621e-01 -6.951466e-01 -6.933086e-01 -6.913530e-01 -6.892776e-01 -6.870876e-01 -6.847810e-01 -6.823630e-01 -6.798319e-01 -6.771929e-01 -6.744446e-01 -6.715924e-01 -6.686350e-01 -6.655778e-01 -6.624197e-01 -6.591663e-01 -6.558167e-01 -6.523765e-01 -6.488450e-01 -6.452277e-01 -6.415243e-01 -6.377402e-01 -6.338755e-01 -6.299354e-01 -6.259202e-01 -6.218351e-01 -6.176806e-01 -6.134619e-01 -6.091797e-01 -6.048391e-01 -6.004410e-01 -5.959903e-01 -5.914884e-01 -5.869399e-01 -5.823463e-01 -5.777123e-01 -5.730394e-01 -5.683322e-01 -5.635926e-01 -5.588247e-01 -5.540307e-01 -5.492147e-01 -5.443789e-01 -5.395273e-01 -5.346623e-01 -5.297875e-01 -5.249056e-01 -5.200200e-01 -5.151336e-01 -5.102495e-01 -5.053708e-01 -5.005003e-01 -4.956412e-01 -4.907962e-01 -4.859686e-01 -4.811608e-01 -4.763762e-01 -4.716169e-01 -4.668867e-01 -4.621872e-01 -4.575222e-01 -4.528934e-01 -4.483044e-01 -4.437566e-01 -4.392539e-01 -4.347973e-01 -4.303909e-01 -4.260354e-01 -4.217349e-01 -4.174898e-01 -4.133043e-01 -4.091787e-01 -4.051170e-01 -4.011195e-01 -3.971901e-01 -3.933287e-01 -3.895396e-01 -3.858222e-01 -3.821808e-01 -3.786147e-01 -3.751282e-01 -3.717203e-01 -3.683954e-01 -3.651522e-01 -3.619951e-01 -3.589228e-01 -3.559394e-01 -3.530434e-01 -3.502391e-01 -3.475248e-01 -3.449046e-01 -3.423767e-01 -3.399453e-01 -3.376083e-01 -3.353698e-01 -3.332277e-01 -3.311860e-01 -3.292423e-01 -3.274009e-01 -3.256590e-01 -3.240207e-01 -3.224834e-01 -3.210511e-01 -3.197210e-01 -3.184969e-01 -3.173760e-01 -3.163622e-01 -3.154524e-01 -3.146504e-01 -3.139530e-01 -3.133641e-01 -3.128804e-01 -3.125055e-01 -3.122361e-01 -3.120759e-01 
-3.113293e-01 -3.113840e-01 -3.115446e-01 -3.118146e-01 -3.121903e-01 -3.126752e-01 -3.132654e-01 -3.139644e-01 -3.147682e-01 -3.156802e-01 -3.166964e-01 -3.178199e-01 -3.190468e-01 -3.203801e-01 -3.218158e-01 -3.233568e-01 -3.249990e-01 -3.267451e-01 -3.285911e-01 -3.305396e-01 -3.325864e-01 -3.347339e-01 -3.369780e-01 -3.393210e-01 -3.417587e-01 -3.442932e-01 -3.469202e-01 -3.496417e-01 -3.524535e-01 -3.553574e-01 -3.583489e-01 -3.614298e-01 -3.645957e-01 -3.678481e-01 -3.711825e-01 -3.746002e-01 -3.780969e-01 -3.816736e-01 -3.853259e-01 -3.890545e-01 -3.928552e-01 -3.967286e-01 -4.006702e-01 -4.046805e-01 -4.087551e-01 -4.128941e-01 -4.170933e-01 -4.213524e-01 -4.256674e-01 -4.300376e-01 -4.344591e-01 -4.389311e-01 -4.434495e-01 -4.480134e-01 -4.526188e-01 -4.572644e-01 -4.619464e-01 -4.666632e-01 -4.714111e-01 -4.761882e-01 -4.809910e-01 -4.858173e-01 -4.906636e-01 -4.955276e-01 -5.004059e-01 -5.052959e-01 -5.101943e-01 -5.150982e-01 -5.200047e-01 -5.249105e-01 -5.298127e-01 -5.347081e-01 -5.395937e-01 -5.444662e-01 -5.493228e-01 -5.541598e-01 -5.589748e-01 -5.637637e-01 -5.685245e-01 -5.732529e-01 -5.779468e-01 -5.826020e-01 -5.872166e-01 -5.917861e-01 -5.963090e-01 -6.007804e-01 -6.051992e-01 -6.095604e-01 -6.138630e-01 -6.181020e-01 -6.222765e-01 -6.263814e-01 -6.304162e-01 -6.343757e-01 -6.382594e-01 -6.420623e-01 -6.457841e-01 -6.494195e-01 -6.529687e-01 -6.564263e-01 -6.597929e-01 -6.630629e-01 -6.662371e-01 -6.693100e-01 -6.722826e-01 -6.751496e-01 -6.779121e-01 -6.805648e-01 -6.831092e-01 -6.855398e-01 -6.878586e-01 -6.900601e-01 -6.921464e-01 -6.941123e-01 -6.959601e-01 -6.976847e-01 -6.992885e-01 -7.007666e-01 -7.021217e-01 -7.033489e-01 -7.044513e-01 -7.054240e-01 -7.062704e-01 -7.069858e-01 -7.075736e-01 -7.080295e-01 -7.083571e-01 -7.085522e-01 -7.086186e-01 -7.085522e-01 -7.083571e-01 -7.080295e-01 -7.075736e-01 -7.069858e-01 -7.062704e-01 -7.054240e-01 -7.044513e-01 -7.033489e-01 -7.021217e-01 -7.007666e-01 -6.992885e-01 -6.976847e-01 -6.959601e-01 -6.941123e-01 -6.921464e-01 -6.900601e-01 -6.878586e-01 -6.855398e-01 -6.831092e-01 -6.805648e-01 -6.779121e-01 -6.751496e-01 -6.722826e-01 -6.693100e-01 -6.662371e-01 -6.630629e-01 -6.597929e-01 -6.564263e-01 -6.529687e-01 -6.494195e-01 -6.457841e-01 -6.420623e-01 -6.382594e-01 -6.343757e-01 -6.304162e-01 -6.263814e-01 -6.222765e-01 -6.181020e-01 -6.138630e-01 -6.095604e-01 -6.051992e-01 -6.007804e-01 -5.963090e-01 -5.917861e-01 -5.872166e-01 -5.826020e-01 -5.779468e-01 -5.732529e-01 -5.685245e-01 -5.637637e-01 -5.589748e-01 -5.541598e-01 -5.493228e-01 -5.444662e-01 -5.395937e-01 -5.347081e-01 -5.298127e-01 -5.249105e-01 -5.200047e-01 -5.150982e-01 -5.101943e-01 -5.052959e-01 -5.004059e-01 -4.955276e-01 -4.906636e-01 -4.858173e-01 -4.809910e-01 -4.761882e-01 -4.714111e-01 -4.666632e-01 -4.619464e-01 -4.572644e-01 -4.526188e-01 -4.480134e-01 -4.434495e-01 -4.389311e-01 -4.344591e-01 -4.300376e-01 -4.256674e-01 -4.213524e-01 -4.170933e-01 -4.128941e-01 -4.087551e-01 -4.046805e-01 -4.006702e-01 -3.967286e-01 -3.928552e-01 -3.890545e-01 -3.853259e-01 -3.816736e-01 -3.780969e-01 -3.746002e-01 -3.711825e-01 -3.678481e-01 -3.645957e-01 -3.614298e-01 -3.583489e-01 -3.553574e-01 -3.524535e-01 -3.496417e-01 -3.469202e-01 -3.442932e-01 -3.417587e-01 -3.393210e-01 -3.369780e-01 -3.347339e-01 -3.325864e-01 -3.305396e-01 -3.285911e-01 -3.267451e-01 -3.249990e-01 -3.233568e-01 -3.218158e-01 -3.203801e-01 -3.190468e-01 -3.178199e-01 -3.166964e-01 -3.156802e-01 -3.147682e-01 -3.139644e-01 -3.132654e-01 -3.126752e-01 -3.121903e-01 -3.118146e-01 -3.115446e-01 -3.113840e-01 
-3.105298e-01 -3.105847e-01 -3.107457e-01 -3.110164e-01 -3.113932e-01 -3.118793e-01 -3.124711e-01 -3.131720e-01 -3.139780e-01 -3.148924e-01 -3.159114e-01 -3.170380e-01 -3.182682e-01 -3.196052e-01 -3.210449e-01 -3.225902e-01 -3.242370e-01 -3.259881e-01 -3.278394e-01 -3.297934e-01 -3.318461e-01 -3.339999e-01 -3.362507e-01 -3.386006e-01 -3.410456e-01 -3.435878e-01 -3.462229e-01 -3.489528e-01 -3.517734e-01 -3.546864e-01 -3.576875e-01 -3.607783e-01 -3.639545e-01 -3.672175e-01 -3.705630e-01 -3.739922e-01 -3.775008e-01 -3.810897e-01 -3.847546e-01 -3.884963e-01 -3.923106e-01 -3.961978e-01 -4.001537e-01 -4.041787e-01 -4.082684e-01 -4.124229e-01 -4.166380e-01 -4.209134e-01 -4.252451e-01 -4.296324e-01 -4.340714e-01 -4.385612e-01 -4.430979e-01 -4.476804e-01 -4.523048e-01 -4.569698e-01 -4.616715e-01 -4.664083e-01 -4.711766e-01 -4.759744e-01 -4.807982e-01 -4.856459e-01 -4.905138e-01 -4.953997e-01 -5.003002e-01 -5.052125e-01 -5.101336e-01 -5.150604e-01 -5.199900e-01 -5.249191e-01 -5.298448e-01 -5.347638e-01 -5.396733e-01 -5.445696e-01 -5.494502e-01 -5.543113e-01 -5.591505e-01 -5.639637e-01 -5.687487e-01 -5.735013e-01 -5.782195e-01 -5.828989e-01 -5.875377e-01 -5.921313e-01 -5.966781e-01 -6.011734e-01 -6.056159e-01 -6.100007e-01 -6.143267e-01 -6.185888e-01 -6.227862e-01 -6.269138e-01 -6.309711e-01 -6.349526e-01 -6.388582e-01 -6.426824e-01 -6.464253e-01 -6.500813e-01 -6.536508e-01 -6.571283e-01 -6.605143e-01 -6.638032e-01 -6.669958e-01 -6.700866e-01 -6.730766e-01 -6.759604e-01 -6.787392e-01 -6.814075e-01 -6.839669e-01 -6.864120e-01 -6.887446e-01 -6.909592e-01 -6.930580e-01 -6.950357e-01 -6.968947e-01 -6.986296e-01 -7.002431e-01 -7.017301e-01 -7.030934e-01 -7.043280e-01 -7.054371e-01 -7.064157e-01 -7.072673e-01 -7.079870e-01 -7.085784e-01 -7.090371e-01 -7.093667e-01 -7.095629e-01 -7.096297e-01 -7.095629e-01 -7.093667e-01 -7.090371e-01 -7.085784e-01 -7.079870e-01 -7.072673e-01 -7.064157e-01 -7.054371e-01 -7.043280e-01 -7.030934e-01 -7.017301e-01 -7.002431e-01 -6.986296e-01 -6.968947e-01 -6.950357e-01 -6.930580e-01 -6.909592e-01 -6.887446e-01 -6.864120e-01 -6.839669e-01 -6.814075e-01 -6.787392e-01 -6.759604e-01 -6.730766e-01 -6.700866e-01 -6.669958e-01 -6.638032e-01 -6.605143e-01 -6.571283e-01 -6.536508e-01 -6.500813e-01 -6.464253e-01 -6.426824e-01 -6.388582e-01 -6.349526e-01 -6.309711e-01 -6.269138e-01 -6.227862e-01 -6.185888e-01 -6.143267e-01 -6.100007e-01 -6.056159e-01 -6.011734e-01 -5.966781e-01 -5.921313e-01 -5.875377e-01 -5.828989e-01 -5.782195e-01 -5.735013e-01 -5.687487e-01 -5.639637e-01 -5.591505e-01 -5.543113e-01 -5.494502e-01 -5.445696e-01 -5.396733e-01 -5.347638e-01 -5.298448e-01 -5.249191e-01 -5.199900e-01 -5.150604e-01 -5.101336e-01 -5.052125e-01 -5.003002e-01 -4.953997e-01 -4.905138e-01 -4.856459e-01 -4.807982e-01 -4.759744e-01 -4.711766e-01 -4.664083e-01 -4.616715e-01 -4.569698e-01 -4.523048e-01 -4.476804e-01 -4.430979e-01 -4.385612e-01 -4.340714e-01 -4.296324e-01 -4.252451e-01 -4.209134e-01 -4.166380e-01 -4.124229e-01 -4.082684e-01 -4.041787e-01 -4.001537e-01 -3.961978e-01 -3.923106e-01 -3.884963e-01 -3.847546e-01 -3.810897e-01 -3.775008e-01 -3.739922e-01 -3.705630e-01 -3.672175e-01 -3.639545e-01 -3.607783e-01 -3.576875e-01 -3.546864e-01 -3.517734e-01 -3.489528e-01 -3.462229e-01 -3.435878e-01 -3.410456e-01 -3.386006e-01 -3.362507e-01 -3.339999e-01 -3.318461e-01 -3.297934e-01 -3.278394e-01 -3.259881e-01 -3.242370e-01 -3.225902e-01 -3.210449e-01 -3.196052e-01 -3.182682e-01 -3.170380e-01 -3.159114e-01 -3.148924e-01 -3.139780e-01 -3.131720e-01 -3.124711e-01 -3.118793e-01 -3.113932e-01 -3.110164e-01 -3.107457e-01 -3.105847e-01 
-3.096222e-01 -3.096772e-01 -3.098388e-01 -3.101103e-01 -3.104882e-01 -3.109758e-01 -3.115694e-01 -3.122724e-01 -3.130809e-01 -3.139982e-01 -3.150203e-01 -3.161504e-01 -3.173845e-01 -3.187257e-01 -3.201700e-01 -3.217202e-01 -3.233723e-01 -3.251290e-01 -3.269863e-01 -3.289468e-01 -3.310063e-01 -3.331672e-01 -3.354256e-01 -3.377835e-01 -3.402368e-01 -3.427878e-01 -3.454320e-01 -3.481716e-01 -3.510022e-01 -3.539256e-01 -3.569376e-01 -3.600397e-01 -3.632276e-01 -3.665028e-01 -3.698610e-01 -3.733033e-01 -3.768254e-01 -3.804283e-01 -3.841077e-01 -3.878643e-01 -3.916939e-01 -3.955969e-01 -3.995692e-01 -4.036109e-01 -4.077178e-01 -4.118899e-01 -4.161231e-01 -4.204171e-01 -4.247678e-01 -4.291746e-01 -4.336335e-01 -4.381436e-01 -4.427011e-01 -4.473048e-01 -4.519507e-01 -4.566377e-01 -4.613618e-01 -4.661214e-01 -4.709128e-01 -4.757342e-01 -4.805819e-01 -4.854537e-01 -4.903462e-01 -4.952569e-01 -5.001825e-01 -5.051203e-01 -5.100671e-01 -5.150199e-01 -5.199756e-01 -5.249311e-01 -5.298834e-01 -5.348292e-01 -5.397656e-01 -5.446890e-01 -5.495968e-01 -5.544852e-01 -5.593517e-01 -5.641922e-01 -5.690047e-01 -5.737847e-01 -5.785304e-01 -5.832371e-01 -5.879032e-01 -5.925240e-01 -5.970979e-01 -6.016202e-01 -6.060895e-01 -6.105009e-01 -6.148532e-01 -6.191415e-01 -6.233648e-01 -6.275180e-01 -6.316004e-01 -6.356069e-01 -6.395370e-01 -6.433854e-01 -6.471520e-01 -6.508314e-01 -6.544237e-01 -6.579235e-01 -6.613313e-01 -6.646415e-01 -6.678548e-01 -6.709658e-01 -6.739754e-01 -6.768781e-01 -6.796752e-01 -6.823611e-01 -6.849375e-01 -6.873988e-01 -6.897469e-01 -6.919763e-01 -6.940892e-01 -6.960801e-01 -6.979515e-01 -6.996981e-01 -7.013225e-01 -7.028195e-01 -7.041920e-01 -7.054351e-01 -7.065516e-01 -7.075369e-01 -7.083942e-01 -7.091188e-01 -7.097143e-01 -7.101761e-01 -7.105080e-01 -7.107055e-01 -7.107728e-01 -7.107055e-01 -7.105080e-01 -7.101761e-01 -7.097143e-01 -7.091188e-01 -7.083942e-01 -7.075369e-01 -7.065516e-01 -7.054351e-01 -7.041920e-01 -7.028195e-01 -7.013225e-01 -6.996981e-01 -6.979515e-01 -6.960801e-01 -6.940892e-01 -6.919763e-01 -6.897469e-01 -6.873988e-01 -6.849375e-01 -6.823611e-01 -6.796752e-01 -6.768781e-01 -6.739754e-01 -6.709658e-01 -6.678548e-01 -6.646415e-01 -6.613313e-01 -6.579235e-01 -6.544237e-01 -6.508314e-01 -6.471520e-01 -6.433854e-01 -6.395370e-01 -6.356069e-01 -6.316004e-01 -6.275180e-01 -6.233648e-01 -6.191415e-01 -6.148532e-01 -6.105009e-01 -6.060895e-01 -6.016202e-01 -5.970979e-01 -5.925240e-01 -5.879032e-01 -5.832371e-01 -5.785304e-01 -5.737847e-01 -5.690047e-01 -5.641922e-01 -5.593517e-01 -5.544852e-01 -5.495968e-01 -5.446890e-01 -5.397656e-01 -5.348292e-01 -5.298834e-01 -5.249311e-01 -5.199756e-01 -5.150199e-01 -5.100671e-01 -5.051203e-01 -5.001825e-01 -4.952569e-01 -4.903462e-01 -4.854537e-01 -4.805819e-01 -4.757342e-01 -4.709128e-01 -4.661214e-01 -4.613618e-01 -4.566377e-01 -4.519507e-01 -4.473048e-01 -4.427011e-01 -4.381436e-01 -4.336335e-01 -4.291746e-01 -4.247678e-01 -4.204171e-01 -4.161231e-01 -4.118899e-01 -4.077178e-01 -4.036109e-01 -3.995692e-01 -3.955969e-01 -3.916939e-01 -3.878643e-01 -3.841077e-01 -3.804283e-01 -3.768254e-01 -3.733033e-01 -3.698610e-01 -3.665028e-01 -3.632276e-01 -3.600397e-01 -3.569376e-01 -3.539256e-01 -3.510022e-01 -3.481716e-01 -3.454320e-01 -3.427878e-01 -3.402368e-01 -3.377835e-01 -3.354256e-01 -3.331672e-01 -3.310063e-01 -3.289468e-01 -3.269863e-01 -3.251290e-01 -3.233723e-01 -3.217202e-01 -3.201700e-01 -3.187257e-01 -3.173845e-01 -3.161504e-01 -3.150203e-01 -3.139982e-01 -3.130809e-01 -3.122724e-01 -3.115694e-01 -3.109758e-01 -3.104882e-01 -3.101103e-01 -3.098388e-01 -3.096772e-01 