# vtk DataFile Version 2.0
Comment goes here
ASCII

DATASET STRUCTURED_POINTS
FIELD FieldData 1
TIME 1 1 double
0.09000000
DIMENSIONS    256   256   1

ORIGIN    0.000   0.000   0.000
SPACING   0.0039062 0.0039062   1.000

POINT_DATA   65536
SCALARS uY double
LOOKUP_TABLE default

-2.710859e-01 -2.711305e-01 -2.712686e-01 -2.714960e-01 -2.718166e-01 -2.722262e-01 -2.727288e-01 -2.733201e-01 -2.740038e-01 -2.747757e-01 -2.756395e-01 -2.765907e-01 -2.776331e-01 -2.787620e-01 -2.799812e-01 -2.812860e-01 -2.826798e-01 -2.841581e-01 -2.857243e-01 -2.873736e-01 -2.891093e-01 -2.909268e-01 -2.928290e-01 -2.948113e-01 -2.968766e-01 -2.990202e-01 -3.012449e-01 -3.035459e-01 -3.059258e-01 -3.083800e-01 -3.109107e-01 -3.135133e-01 -3.161900e-01 -3.189362e-01 -3.217538e-01 -3.246382e-01 -3.275911e-01 -3.306080e-01 -3.336904e-01 -3.368337e-01 -3.400393e-01 -3.433027e-01 -3.466250e-01 -3.500017e-01 -3.534336e-01 -3.569166e-01 -3.604509e-01 -3.640326e-01 -3.676618e-01 -3.713344e-01 -3.750504e-01 -3.788059e-01 -3.826006e-01 -3.864305e-01 -3.902952e-01 -3.941909e-01 -3.981168e-01 -4.020693e-01 -4.060473e-01 -4.100473e-01 -4.140680e-01 -4.181062e-01 -4.221600e-01 -4.262265e-01 -4.303038e-01 -4.343888e-01 -4.384795e-01 -4.425730e-01 -4.466670e-01 -4.507589e-01 -4.548459e-01 -4.589259e-01 -4.629957e-01 -4.670534e-01 -4.710956e-01 -4.751206e-01 -4.791249e-01 -4.831069e-01 -4.870628e-01 -4.909913e-01 -4.948885e-01 -4.987533e-01 -5.025815e-01 -5.063724e-01 -5.101215e-01 -5.138283e-01 -5.174882e-01 -5.211010e-01 -5.246620e-01 -5.281711e-01 -5.316234e-01 -5.350193e-01 -5.383536e-01 -5.416270e-01 -5.448342e-01 -5.479761e-01 -5.510474e-01 -5.540492e-01 -5.569762e-01 -5.598296e-01 -5.626040e-01 -5.653012e-01 -5.679155e-01 -5.704488e-01 -5.728957e-01 -5.752582e-01 -5.775308e-01 -5.797158e-01 -5.818077e-01 -5.838092e-01 -5.857146e-01 -5.875269e-01 -5.892404e-01 -5.908584e-01 -5.923753e-01 -5.937944e-01 -5.951103e-01 -5.963265e-01 -5.974377e-01 -5.984477e-01 -5.993510e-01 -6.001519e-01 -6.008448e-01 -6.014342e-01 -6.019149e-01 -6.022912e-01 -6.025581e-01 -6.027202e-01 -6.027727e-01 -6.027202e-01 -6.025581e-01 -6.022912e-01 -6.019149e-01 -6.014342e-01 -6.008448e-01 -6.001519e-01 -5.993510e-01 -5.984477e-01 -5.974377e-01 -5.963265e-01 -5.951103e-01 -5.937944e-01 -5.923753e-01 -5.908584e-01 -5.892404e-01 -5.875269e-01 -5.857146e-01 -5.838092e-01 -5.818077e-01 -5.797158e-01 -5.775308e-01 -5.752582e-01 -5.728957e-01 -5.704488e-01 -5.679155e-01 -5.653012e-01 -5.626040e-01 -5.598296e-01 -5.569762e-01 -5.540492e-01 -5.510474e-01 -5.479761e-01 -5.448342e-01 -5.416270e-01 -5.383536e-01 -5.350193e-01 -5.316234e-01 -5.281711e-01 -5.246620e-01 -5.211010e-01 -5.174882e-01 -5.138283e-01 -5.101215e-01 -5.063724e-01 -5.025815e-01 -4.987533e-01 -4.948885e-01 -4.909913e-01 -4.870628e-01 -4.831069e-01 -4.791249e-01 -4.751206e-01 -4.710956e-01 -4.670534e-01 -4.629957e-01 -4.589259e-01 -4.548459e-01 -4.507589e-01 -4.466670e-01 -4.425730e-01 -4.384795e-01 -4.343888e-01 -4.303038e-01 -4.262265e-01 -4.221600e-01 -4.181062e-01 -4.140680e-01 -4.100473e-01 -4.060473e-01 -4.020693e-01 -3.981168e-01 -3.941909e-01 -3.902952e-01 -3.864305e-01 -3.826006e-01 -3.788059e-01 -3.750504e-01 -3.713344e-01 -3.676618e-01 -3.640326e-01 -3.604509e-01 -3.569166e-01 -3.534336e-01 -3.500017e-01 -3.466250e-01 -3.433027e-01 -3.400393e-01 -3.368337e-01 -3.336904e-01 -3.306080e-01 -3.275911e-01 -3.246382e-01 -3.217538e-01 -3.189362e-01 -3.161900e-01 -3.135133e-01 -3.109107e-01 -3.083800e-01 -3.059258e-01 -3.035459e-01 -3.012449e-01 -2.990202e-01 -2.968766e-01 -2.948113e-01 -2.928290e-01 -2.909268e-01 -2.891093e-01 -2.873736e-01 -2.857243e-01 -2.841581e-01 -2.826798e-01 -2.812860e-01 -2.799812e-01 -2.787620e-01 -2.776331e-01 -2.765907e-01 -2.756395e-01 -2.747757e-01 -2.740038e-01 -2.733201e-01 -2.727288e-01 -2.722262e-01 -2.718166e-01 -2.714960e-01 -2.712686e-01 -2.711305e-01 
-2.707944e-01 -2.708391e-01 -2.709774e-01 -2.712049e-01 -2.715259e-01 -2.719359e-01 -2.724390e-01 -2.730309e-01 -2.737153e-01 -2.744880e-01 -2.753526e-01 -2.763048e-01 -2.773482e-01 -2.784784e-01 -2.796987e-01 -2.810049e-01 -2.824002e-01 -2.838801e-01 -2.854479e-01 -2.870991e-01 -2.888367e-01 -2.906562e-01 -2.925605e-01 -2.945451e-01 -2.966128e-01 -2.987589e-01 -3.009862e-01 -3.032900e-01 -3.056728e-01 -3.081300e-01 -3.106638e-01 -3.132698e-01 -3.159499e-01 -3.186997e-01 -3.215210e-01 -3.244093e-01 -3.273662e-01 -3.303872e-01 -3.334739e-01 -3.366218e-01 -3.398320e-01 -3.431002e-01 -3.464274e-01 -3.498092e-01 -3.532464e-01 -3.567347e-01 -3.602747e-01 -3.638621e-01 -3.674971e-01 -3.711758e-01 -3.748981e-01 -3.786599e-01 -3.824611e-01 -3.862978e-01 -3.901693e-01 -3.940720e-01 -3.980050e-01 -4.019648e-01 -4.059502e-01 -4.099579e-01 -4.139863e-01 -4.180323e-01 -4.220941e-01 -4.261688e-01 -4.302542e-01 -4.343477e-01 -4.384468e-01 -4.425489e-01 -4.466516e-01 -4.507523e-01 -4.548482e-01 -4.589371e-01 -4.630160e-01 -4.670828e-01 -4.711343e-01 -4.751685e-01 -4.791821e-01 -4.831734e-01 -4.871387e-01 -4.910766e-01 -4.949832e-01 -4.988574e-01 -5.026951e-01 -5.064954e-01 -5.102538e-01 -5.139700e-01 -5.176393e-01 -5.212614e-01 -5.248316e-01 -5.283498e-01 -5.318112e-01 -5.352161e-01 -5.385593e-01 -5.418415e-01 -5.450574e-01 -5.482079e-01 -5.512876e-01 -5.542977e-01 -5.572328e-01 -5.600942e-01 -5.628765e-01 -5.655812e-01 -5.682029e-01 -5.707435e-01 -5.731974e-01 -5.755667e-01 -5.778458e-01 -5.800372e-01 -5.821353e-01 -5.841426e-01 -5.860536e-01 -5.878712e-01 -5.895899e-01 -5.912126e-01 -5.927340e-01 -5.941574e-01 -5.954772e-01 -5.966971e-01 -5.978116e-01 -5.988246e-01 -5.997307e-01 -6.005340e-01 -6.012290e-01 -6.018202e-01 -6.023023e-01 -6.026798e-01 -6.029475e-01 -6.031101e-01 -6.031628e-01 -6.031101e-01 -6.029475e-01 -6.026798e-01 -6.023023e-01 -6.018202e-01 -6.012290e-01 -6.005340e-01 -5.997307e-01 -5.988246e-01 -5.978116e-01 -5.966971e-01 -5.954772e-01 -5.941574e-01 -5.927340e-01 -5.912126e-01 -5.895899e-01 -5.878712e-01 -5.860536e-01 -5.841426e-01 -5.821353e-01 -5.800372e-01 -5.778458e-01 -5.755667e-01 -5.731974e-01 -5.707435e-01 -5.682029e-01 -5.655812e-01 -5.628765e-01 -5.600942e-01 -5.572328e-01 -5.542977e-01 -5.512876e-01 -5.482079e-01 -5.450574e-01 -5.418415e-01 -5.385593e-01 -5.352161e-01 -5.318112e-01 -5.283498e-01 -5.248316e-01 -5.212614e-01 -5.176393e-01 -5.139700e-01 -5.102538e-01 -5.064954e-01 -5.026951e-01 -4.988574e-01 -4.949832e-01 -4.910766e-01 -4.871387e-01 -4.831734e-01 -4.791821e-01 -4.751685e-01 -4.711343e-01 -4.670828e-01 -4.630160e-01 -4.589371e-01 -4.548482e-01 -4.507523e-01 -4.466516e-01 -4.425489e-01 -4.384468e-01 -4.343477e-01 -4.302542e-01 -4.261688e-01 -4.220941e-01 -4.180323e-01 -4.139863e-01 -4.099579e-01 -4.059502e-01 -4.019648e-01 -3.980050e-01 -3.940720e-01 -3.901693e-01 -3.862978e-01 -3.824611e-01 -3.786599e-01 -3.748981e-01 -3.711758e-01 -3.674971e-01 -3.638621e-01 -3.602747e-01 -3.567347e-01 -3.532464e-01 -3.498092e-01 -3.464274e-01 -3.431002e-01 -3.398320e-01 -3.366218e-01 -3.334739e-01 -3.303872e-01 -3.273662e-01 -3.244093e-01 -3.215210e-01 -3.186997e-01 -3.159499e-01 -3.132698e-01 -3.106638e-01 -3.081300e-01 -3.056728e-01 -3.032900e-01 -3.009862e-01 -2.987589e-01 -2.966128e-01 -2.945451e-01 -2.925605e-01 -2.906562e-01 -2.888367e-01 -2.870991e-01 -2.854479e-01 -2.838801e-01 -2.824002e-01 -2.810049e-01 -2.796987e-01 -2.784784e-01 -2.773482e-01 -2.763048e-01 -2.753526e-01 -2.744880e-01 -2.737153e-01 -2.730309e-01 -2.724390e-01 -2.719359e-01 -2.715259e-01 -2.712049e-01 -2.709774e-01 -2.708391e-01 
-2.704106e-01 -2.704554e-01 -2.705938e-01 -2.708217e-01 -2.711431e-01 -2.715537e-01 -2.720575e-01 -2.726502e-01 -2.733356e-01 -2.741094e-01 -2.749752e-01 -2.759288e-01 -2.769737e-01 -2.781055e-01 -2.793277e-01 -2.806357e-01 -2.820331e-01 -2.835152e-01 -2.850854e-01 -2.867391e-01 -2.884794e-01 -2.903017e-01 -2.922090e-01 -2.941968e-01 -2.962678e-01 -2.984174e-01 -3.006483e-01 -3.029559e-01 -3.053427e-01 -3.078041e-01 -3.103423e-01 -3.129528e-01 -3.156377e-01 -3.183923e-01 -3.212187e-01 -3.241123e-01 -3.270747e-01 -3.301014e-01 -3.331940e-01 -3.363479e-01 -3.395644e-01 -3.428391e-01 -3.461730e-01 -3.495617e-01 -3.530059e-01 -3.565016e-01 -3.600490e-01 -3.636441e-01 -3.672870e-01 -3.709738e-01 -3.747044e-01 -3.784747e-01 -3.822846e-01 -3.861301e-01 -3.900107e-01 -3.939227e-01 -3.978651e-01 -4.018346e-01 -4.058298e-01 -4.098474e-01 -4.138860e-01 -4.179423e-01 -4.220146e-01 -4.260998e-01 -4.301961e-01 -4.343004e-01 -4.384106e-01 -4.425239e-01 -4.466378e-01 -4.507499e-01 -4.548574e-01 -4.589579e-01 -4.630485e-01 -4.671270e-01 -4.711903e-01 -4.752365e-01 -4.792620e-01 -4.832653e-01 -4.872426e-01 -4.911925e-01 -4.951112e-01 -4.989974e-01 -5.028471e-01 -5.066594e-01 -5.104298e-01 -5.141579e-01 -5.178390e-01 -5.214729e-01 -5.250548e-01 -5.285847e-01 -5.320576e-01 -5.354738e-01 -5.388283e-01 -5.421216e-01 -5.453485e-01 -5.485097e-01 -5.516001e-01 -5.546206e-01 -5.575659e-01 -5.604373e-01 -5.632294e-01 -5.659437e-01 -5.685747e-01 -5.711244e-01 -5.735870e-01 -5.759649e-01 -5.782523e-01 -5.804516e-01 -5.825573e-01 -5.845719e-01 -5.864899e-01 -5.883142e-01 -5.900392e-01 -5.916679e-01 -5.931950e-01 -5.946236e-01 -5.959483e-01 -5.971728e-01 -5.982915e-01 -5.993083e-01 -6.002178e-01 -6.010240e-01 -6.017217e-01 -6.023151e-01 -6.027990e-01 -6.031779e-01 -6.034466e-01 -6.036099e-01 -6.036627e-01 -6.036099e-01 -6.034466e-01 -6.031779e-01 -6.027990e-01 -6.023151e-01 -6.017217e-01 -6.010240e-01 -6.002178e-01 -5.993083e-01 -5.982915e-01 -5.971728e-01 -5.959483e-01 -5.946236e-01 -5.931950e-01 -5.916679e-01 -5.900392e-01 -5.883142e-01 -5.864899e-01 -5.845719e-01 -5.825573e-01 -5.804516e-01 -5.782523e-01 -5.759649e-01 -5.735870e-01 -5.711244e-01 -5.685747e-01 -5.659437e-01 -5.632294e-01 -5.604373e-01 -5.575659e-01 -5.546206e-01 -5.516001e-01 -5.485097e-01 -5.453485e-01 -5.421216e-01 -5.388283e-01 -5.354738e-01 -5.320576e-01 -5.285847e-01 -5.250548e-01 -5.214729e-01 -5.178390e-01 -5.141579e-01 -5.104298e-01 -5.066594e-01 -5.028471e-01 -4.989974e-01 -4.951112e-01 -4.911925e-01 -4.872426e-01 -4.832653e-01 -4.792620e-01 -4.752365e-01 -4.711903e-01 -4.671270e-01 -4.630485e-01 -4.589579e-01 -4.548574e-01 -4.507499e-01 -4.466378e-01 -4.425239e-01 -4.384106e-01 -4.343004e-01 -4.301961e-01 -4.260998e-01 -4.220146e-01 -4.179423e-01 -4.138860e-01 -4.098474e-01 -4.058298e-01 -4.018346e-01 -3.978651e-01 -3.939227e-01 -3.900107e-01 -3.861301e-01 -3.822846e-01 -3.784747e-01 -3.747044e-01 -3.709738e-01 -3.672870e-01 -3.636441e-01 -3.600490e-01 -3.565016e-01 -3.530059e-01 -3.495617e-01 -3.461730e-01 -3.428391e-01 -3.395644e-01 -3.363479e-01 -3.331940e-01 -3.301014e-01 -3.270747e-01 -3.241123e-01 -3.212187e-01 -3.183923e-01 -3.156377e-01 -3.129528e-01 -3.103423e-01 -3.078041e-01 -3.053427e-01 -3.029559e-01 -3.006483e-01 -2.984174e-01 -2.962678e-01 -2.941968e-01 -2.922090e-01 -2.903017e-01 -2.884794e-01 -2.867391e-01 -2.850854e-01 -2.835152e-01 -2.820331e-01 -2.806357e-01 -2.793277e-01 -2.781055e-01 -2.769737e-01 -2.759288e-01 -2.749752e-01 -2.741094e-01 -2.733356e-01 -2.726502e-01 -2.720575e-01 -2.715537e-01 -2.711431e-01 -2.708217e-01 -2.705938e-01 -2.704554e-01 
-2.699362e-01 -2.699810e-01 -2.701197e-01 -2.703480e-01 -2.706700e-01 -2.710813e-01 -2.715860e-01 -2.721798e-01 -2.728665e-01 -2.736417e-01 -2.745091e-01 -2.754645e-01 -2.765113e-01 -2.776452e-01 -2.788697e-01 -2.801802e-01 -2.815803e-01 -2.830653e-01 -2.846385e-01 -2.862954e-01 -2.880391e-01 -2.898651e-01 -2.917763e-01 -2.937680e-01 -2.958433e-01 -2.979974e-01 -3.002330e-01 -3.025455e-01 -3.049373e-01 -3.074040e-01 -3.099478e-01 -3.125641e-01 -3.152550e-01 -3.180159e-01 -3.208487e-01 -3.237490e-01 -3.267184e-01 -3.297523e-01 -3.328523e-01 -3.360139e-01 -3.392383e-01 -3.425211e-01 -3.458634e-01 -3.492607e-01 -3.527139e-01 -3.562187e-01 -3.597755e-01 -3.633802e-01 -3.670330e-01 -3.707299e-01 -3.744708e-01 -3.782518e-01 -3.820724e-01 -3.859290e-01 -3.898209e-01 -3.937443e-01 -3.976985e-01 -4.016798e-01 -4.056872e-01 -4.097171e-01 -4.137682e-01 -4.178372e-01 -4.219225e-01 -4.260208e-01 -4.301303e-01 -4.342480e-01 -4.383717e-01 -4.424987e-01 -4.466265e-01 -4.507525e-01 -4.548740e-01 -4.589887e-01 -4.630935e-01 -4.671864e-01 -4.712641e-01 -4.753247e-01 -4.793648e-01 -4.833826e-01 -4.873744e-01 -4.913390e-01 -4.952722e-01 -4.991730e-01 -5.030373e-01 -5.068640e-01 -5.106489e-01 -5.143913e-01 -5.180867e-01 -5.217348e-01 -5.253308e-01 -5.288746e-01 -5.323613e-01 -5.357912e-01 -5.391592e-01 -5.424658e-01 -5.457057e-01 -5.488799e-01 -5.519830e-01 -5.550159e-01 -5.579734e-01 -5.608568e-01 -5.636605e-01 -5.663862e-01 -5.690284e-01 -5.715888e-01 -5.740619e-01 -5.764499e-01 -5.787470e-01 -5.809558e-01 -5.830705e-01 -5.850939e-01 -5.870202e-01 -5.888524e-01 -5.905848e-01 -5.922207e-01 -5.937544e-01 -5.951893e-01 -5.965198e-01 -5.977497e-01 -5.988733e-01 -5.998946e-01 -6.008081e-01 -6.016179e-01 -6.023186e-01 -6.029147e-01 -6.034007e-01 -6.037813e-01 -6.040512e-01 -6.042152e-01 -6.042682e-01 -6.042152e-01 -6.040512e-01 -6.037813e-01 -6.034007e-01 -6.029147e-01 -6.023186e-01 -6.016179e-01 -6.008081e-01 -5.998946e-01 -5.988733e-01 -5.977497e-01 -5.965198e-01 -5.951893e-01 -5.937544e-01 -5.922207e-01 -5.905848e-01 -5.888524e-01 -5.870202e-01 -5.850939e-01 -5.830705e-01 -5.809558e-01 -5.787470e-01 -5.764499e-01 -5.740619e-01 -5.715888e-01 -5.690284e-01 -5.663862e-01 -5.636605e-01 -5.608568e-01 -5.579734e-01 -5.550159e-01 -5.519830e-01 -5.488799e-01 -5.457057e-01 -5.424658e-01 -5.391592e-01 -5.357912e-01 -5.323613e-01 -5.288746e-01 -5.253308e-01 -5.217348e-01 -5.180867e-01 -5.143913e-01 -5.106489e-01 -5.068640e-01 -5.030373e-01 -4.991730e-01 -4.952722e-01 -4.913390e-01 -4.873744e-01 -4.833826e-01 -4.793648e-01 -4.753247e-01 -4.712641e-01 -4.671864e-01 -4.630935e-01 -4.589887e-01 -4.548740e-01 -4.507525e-01 -4.466265e-01 -4.424987e-01 -4.383717e-01 -4.342480e-01 -4.301303e-01 -4.260208e-01 -4.219225e-01 -4.178372e-01 -4.137682e-01 -4.097171e-01 -4.056872e-01 -4.016798e-01 -3.976985e-01 -3.937443e-01 -3.898209e-01 -3.859290e-01 -3.820724e-01 -3.782518e-01 -3.744708e-01 -3.707299e-01 -3.670330e-01 -3.633802e-01 -3.597755e-01 -3.562187e-01 -3.527139e-01 -3.492607e-01 -3.458634e-01 -3.425211e-01 -3.392383e-01 -3.360139e-01 -3.328523e-01 -3.297523e-01 -3.267184e-01 -3.237490e-01 -3.208487e-01 -3.180159e-01 -3.152550e-01 -3.125641e-01 -3.099478e-01 -3.074040e-01 -3.049373e-01 -3.025455e-01 -3.002330e-01 -2.979974e-01 -2.958433e-01 -2.937680e-01 -2.917763e-01 -2.898651e-01 -2.880391e-01 -2.862954e-01 -2.846385e-01 -2.830653e-01 -2.815803e-01 -2.801802e-01 -2.788697e-01 -2.776452e-01 -2.765113e-01 -2.754645e-01 -2.745091e-01 -2.736417e-01 -2.728665e-01 -2.721798e-01 -2.715860e-01 -2.710813e-01 -2.706700e-01 -2.703480e-01 -2.701197e-01 -2.699810e-01 
-2.693690e-01 -2.694139e-01 -2.695529e-01 -2.697817e-01 -2.701044e-01 -2.705167e-01 -2.710225e-01 -2.716176e-01 -2.723058e-01 -2.730827e-01 -2.739521e-01 -2.749096e-01 -2.759588e-01 -2.770953e-01 -2.783226e-01 -2.796362e-01 -2.810395e-01 -2.825280e-01 -2.841050e-01 -2.857658e-01 -2.875138e-01 -2.893441e-01 -2.912600e-01 -2.932567e-01 -2.953371e-01 -2.974966e-01 -2.997379e-01 -3.020563e-01 -3.044544e-01 -3.069276e-01 -3.094781e-01 -3.121014e-01 -3.147996e-01 -3.175681e-01 -3.204088e-01 -3.233172e-01 -3.262949e-01 -3.293376e-01 -3.324465e-01 -3.356174e-01 -3.388514e-01 -3.421441e-01 -3.454965e-01 -3.489043e-01 -3.523682e-01 -3.558839e-01 -3.594521e-01 -3.630683e-01 -3.667331e-01 -3.704421e-01 -3.741954e-01 -3.779890e-01 -3.818227e-01 -3.856925e-01 -3.895979e-01 -3.935351e-01 -3.975033e-01 -4.014989e-01 -4.055207e-01 -4.095654e-01 -4.136315e-01 -4.177156e-01 -4.218163e-01 -4.259302e-01 -4.300554e-01 -4.341891e-01 -4.383290e-01 -4.424722e-01 -4.466165e-01 -4.507591e-01 -4.548973e-01 -4.590288e-01 -4.631505e-01 -4.672604e-01 -4.713552e-01 -4.754329e-01 -4.794901e-01 -4.835252e-01 -4.875343e-01 -4.915161e-01 -4.954665e-01 -4.993846e-01 -5.032659e-01 -5.071098e-01 -5.109117e-01 -5.146711e-01 -5.183833e-01 -5.220481e-01 -5.256606e-01 -5.292209e-01 -5.327238e-01 -5.361698e-01 -5.395537e-01 -5.428759e-01 -5.461313e-01 -5.493206e-01 -5.524386e-01 -5.554862e-01 -5.584580e-01 -5.613554e-01 -5.641728e-01 -5.669119e-01 -5.695670e-01 -5.721401e-01 -5.746255e-01 -5.770253e-01 -5.793340e-01 -5.815538e-01 -5.836791e-01 -5.857126e-01 -5.876487e-01 -5.894901e-01 -5.912314e-01 -5.928756e-01 -5.944170e-01 -5.958593e-01 -5.971966e-01 -5.984327e-01 -5.995621e-01 -6.005886e-01 -6.015068e-01 -6.023208e-01 -6.030252e-01 -6.036243e-01 -6.041128e-01 -6.044953e-01 -6.047667e-01 -6.049315e-01 -6.049848e-01 -6.049315e-01 -6.047667e-01 -6.044953e-01 -6.041128e-01 -6.036243e-01 -6.030252e-01 -6.023208e-01 -6.015068e-01 -6.005886e-01 -5.995621e-01 -5.984327e-01 -5.971966e-01 -5.958593e-01 -5.944170e-01 -5.928756e-01 -5.912314e-01 -5.894901e-01 -5.876487e-01 -5.857126e-01 -5.836791e-01 -5.815538e-01 -5.793340e-01 -5.770253e-01 -5.746255e-01 -5.721401e-01 -5.695670e-01 -5.669119e-01 -5.641728e-01 -5.613554e-01 -5.584580e-01 -5.554862e-01 -5.524386e-01 -5.493206e-01 -5.461313e-01 -5.428759e-01 -5.395537e-01 -5.361698e-01 -5.327238e-01 -5.292209e-01 -5.256606e-01 -5.220481e-01 -5.183833e-01 -5.146711e-01 -5.109117e-01 -5.071098e-01 -5.032659e-01 -4.993846e-01 -4.954665e-01 -4.915161e-01 -4.875343e-01 -4.835252e-01 -4.794901e-01 -4.754329e-01 -4.713552e-01 -4.672604e-01 -4.631505e-01 -4.590288e-01 -4.548973e-01 -4.507591e-01 -4.466165e-01 -4.424722e-01 -4.383290e-01 -4.341891e-01 -4.300554e-01 -4.259302e-01 -4.218163e-01 -4.177156e-01 -4.136315e-01 -4.095654e-01 -4.055207e-01 -4.014989e-01 -3.975033e-01 -3.935351e-01 -3.895979e-01 -3.856925e-01 -3.818227e-01 -3.779890e-01 -3.741954e-01 -3.704421e-01 -3.667331e-01 -3.630683e-01 -3.594521e-01 -3.558839e-01 -3.523682e-01 -3.489043e-01 -3.454965e-01 -3.421441e-01 -3.388514e-01 -3.356174e-01 -3.324465e-01 -3.293376e-01 -3.262949e-01 -3.233172e-01 -3.204088e-01 -3.175681e-01 -3.147996e-01 -3.121014e-01 -3.094781e-01 -3.069276e-01 -3.044544e-01 -3.020563e-01 -2.997379e-01 -2.974966e-01 -2.953371e-01 -2.932567e-01 -2.912600e-01 -2.893441e-01 -2.875138e-01 -2.857658e-01 -2.841050e-01 -2.825280e-01 -2.810395e-01 -2.796362e-01 -2.783226e-01 -2.770953e-01 -2.759588e-01 -2.749096e-01 -2.739521e-01 -2.730827e-01 -2.723058e-01 -2.716176e-01 -2.710225e-01 -2.705167e-01 -2.701044e-01 -2.697817e-01 -2.695529e-01 -2.694139e-01 
-2.687109e-01 -2.687560e-01 -2.688953e-01 -2.691247e-01 -2.694482e-01 -2.698616e-01 -2.703687e-01 -2.709654e-01 -2.716554e-01 -2.724344e-01 -2.733061e-01 -2.742662e-01 -2.753182e-01 -2.764578e-01 -2.776884e-01 -2.790056e-01 -2.804127e-01 -2.819054e-01 -2.834867e-01 -2.851522e-01 -2.869051e-01 -2.887407e-01 -2.906621e-01 -2.926646e-01 -2.947511e-01 -2.969170e-01 -2.991650e-01 -3.014904e-01 -3.038959e-01 -3.063766e-01 -3.089351e-01 -3.115666e-01 -3.142734e-01 -3.170507e-01 -3.199007e-01 -3.228186e-01 -3.258062e-01 -3.288591e-01 -3.319786e-01 -3.351603e-01 -3.384055e-01 -3.417097e-01 -3.450740e-01 -3.484940e-01 -3.519704e-01 -3.554990e-01 -3.590804e-01 -3.627102e-01 -3.663887e-01 -3.701119e-01 -3.738797e-01 -3.776882e-01 -3.815369e-01 -3.854221e-01 -3.893432e-01 -3.932965e-01 -3.972810e-01 -4.012931e-01 -4.053318e-01 -4.093935e-01 -4.134770e-01 -4.175787e-01 -4.216972e-01 -4.258291e-01 -4.299727e-01 -4.341248e-01 -4.382833e-01 -4.424454e-01 -4.466086e-01 -4.507704e-01 -4.549279e-01 -4.590787e-01 -4.632200e-01 -4.673495e-01 -4.714639e-01 -4.755614e-01 -4.796384e-01 -4.836932e-01 -4.877221e-01 -4.917237e-01 -4.956940e-01 -4.996317e-01 -5.035328e-01 -5.073963e-01 -5.112177e-01 -5.149965e-01 -5.187280e-01 -5.224119e-01 -5.260434e-01 -5.296224e-01 -5.331440e-01 -5.366083e-01 -5.400103e-01 -5.433504e-01 -5.466234e-01 -5.498301e-01 -5.529650e-01 -5.560293e-01 -5.590175e-01 -5.619308e-01 -5.647639e-01 -5.675181e-01 -5.701881e-01 -5.727755e-01 -5.752748e-01 -5.776882e-01 -5.800098e-01 -5.822422e-01 -5.843796e-01 -5.864247e-01 -5.883717e-01 -5.902237e-01 -5.919749e-01 -5.936285e-01 -5.951789e-01 -5.966294e-01 -5.979744e-01 -5.992177e-01 -6.003536e-01 -6.013861e-01 -6.023096e-01 -6.031283e-01 -6.038367e-01 -6.044393e-01 -6.049307e-01 -6.053154e-01 -6.055883e-01 -6.057541e-01 -6.058078e-01 -6.057541e-01 -6.055883e-01 -6.053154e-01 -6.049307e-01 -6.044393e-01 -6.038367e-01 -6.031283e-01 -6.023096e-01 -6.013861e-01 -6.003536e-01 -5.992177e-01 -5.979744e-01 -5.966294e-01 -5.951789e-01 -5.936285e-01 -5.919749e-01 -5.902237e-01 -5.883717e-01 -5.864247e-01 -5.843796e-01 -5.822422e-01 -5.800098e-01 -5.776882e-01 -5.752748e-01 -5.727755e-01 -5.701881e-01 -5.675181e-01 -5.647639e-01 -5.619308e-01 -5.590175e-01 -5.560293e-01 -5.529650e-01 -5.498301e-01 -5.466234e-01 -5.433504e-01 -5.400103e-01 -5.366083e-01 -5.331440e-01 -5.296224e-01 -5.260434e-01 -5.224119e-01 -5.187280e-01 -5.149965e-01 -5.112177e-01 -5.073963e-01 -5.035328e-01 -4.996317e-01 -4.956940e-01 -4.917237e-01 -4.877221e-01 -4.836932e-01 -4.796384e-01 -4.755614e-01 -4.714639e-01 -4.673495e-01 -4.632200e-01 -4.590787e-01 -4.549279e-01 -4.507704e-01 -4.466086e-01 -4.424454e-01 -4.382833e-01 -4.341248e-01 -4.299727e-01 -4.258291e-01 -4.216972e-01 -4.175787e-01 -4.134770e-01 -4.093935e-01 -4.053318e-01 -4.012931e-01 -3.972810e-01 -3.932965e-01 -3.893432e-01 -3.854221e-01 -3.815369e-01 -3.776882e-01 -3.738797e-01 -3.701119e-01 -3.663887e-01 -3.627102e-01 -3.590804e-01 -3.554990e-01 -3.519704e-01 -3.484940e-01 -3.450740e-01 -3.417097e-01 -3.384055e-01 -3.351603e-01 -3.319786e-01 -3.288591e-01 -3.258062e-01 -3.228186e-01 -3.199007e-01 -3.170507e-01 -3.142734e-01 -3.115666e-01 -3.089351e-01 -3.063766e-01 -3.038959e-01 -3.014904e-01 -2.991650e-01 -2.969170e-01 -2.947511e-01 -2.926646e-01 -2.906621e-01 -2.887407e-01 -2.869051e-01 -2.851522e-01 -2.834867e-01 -2.819054e-01 -2.804127e-01 -2.790056e-01 -2.776884e-01 -2.764578e-01 -2.753182e-01 -2.742662e-01 -2.733061e-01 -2.724344e-01 -2.716554e-01 -2.709654e-01 -2.703687e-01 -2.698616e-01 -2.694482e-01 -2.691247e-01 -2.688953e-01 -2.687560e-01 
-2.679595e-01 -2.680047e-01 -2.681445e-01 -2.683746e-01 -2.686990e-01 -2.691136e-01 -2.696223e-01 -2.702208e-01 -2.709129e-01 -2.716942e-01 -2.725686e-01 -2.735316e-01 -2.745869e-01 -2.757300e-01 -2.769645e-01 -2.782858e-01 -2.796974e-01 -2.811948e-01 -2.827812e-01 -2.844521e-01 -2.862107e-01 -2.880523e-01 -2.899800e-01 -2.919892e-01 -2.940828e-01 -2.962560e-01 -2.985117e-01 -3.008452e-01 -3.032590e-01 -3.057486e-01 -3.083161e-01 -3.109571e-01 -3.136737e-01 -3.164613e-01 -3.193219e-01 -3.222507e-01 -3.252497e-01 -3.283143e-01 -3.314459e-01 -3.346401e-01 -3.378981e-01 -3.412155e-01 -3.445934e-01 -3.480274e-01 -3.515182e-01 -3.550616e-01 -3.586580e-01 -3.623033e-01 -3.659977e-01 -3.697371e-01 -3.735215e-01 -3.773469e-01 -3.812129e-01 -3.851157e-01 -3.890548e-01 -3.930263e-01 -3.970294e-01 -4.010605e-01 -4.051184e-01 -4.091997e-01 -4.133029e-01 -4.174247e-01 -4.215635e-01 -4.257161e-01 -4.298804e-01 -4.340536e-01 -4.382334e-01 -4.424169e-01 -4.466018e-01 -4.507853e-01 -4.549647e-01 -4.591377e-01 -4.633011e-01 -4.674529e-01 -4.715897e-01 -4.757096e-01 -4.798091e-01 -4.838865e-01 -4.879379e-01 -4.919620e-01 -4.959548e-01 -4.999149e-01 -5.038384e-01 -5.077241e-01 -5.115677e-01 -5.153685e-01 -5.191219e-01 -5.228275e-01 -5.264805e-01 -5.300809e-01 -5.336235e-01 -5.371086e-01 -5.405312e-01 -5.438915e-01 -5.471845e-01 -5.504107e-01 -5.535649e-01 -5.566481e-01 -5.596548e-01 -5.625862e-01 -5.654369e-01 -5.682084e-01 -5.708951e-01 -5.734989e-01 -5.760139e-01 -5.784426e-01 -5.807789e-01 -5.830255e-01 -5.851766e-01 -5.872347e-01 -5.891943e-01 -5.910582e-01 -5.928206e-01 -5.944849e-01 -5.960453e-01 -5.975052e-01 -5.988589e-01 -6.001102e-01 -6.012535e-01 -6.022927e-01 -6.032222e-01 -6.040462e-01 -6.047593e-01 -6.053658e-01 -6.058604e-01 -6.062477e-01 -6.065224e-01 -6.066893e-01 -6.067432e-01 -6.066893e-01 -6.065224e-01 -6.062477e-01 -6.058604e-01 -6.053658e-01 -6.047593e-01 -6.040462e-01 -6.032222e-01 -6.022927e-01 -6.012535e-01 -6.001102e-01 -5.988589e-01 -5.975052e-01 -5.960453e-01 -5.944849e-01 -5.928206e-01 -5.910582e-01 -5.891943e-01 -5.872347e-01 -5.851766e-01 -5.830255e-01 -5.807789e-01 -5.784426e-01 -5.760139e-01 -5.734989e-01 -5.708951e-01 -5.682084e-01 -5.654369e-01 -5.625862e-01 -5.596548e-01 -5.566481e-01 -5.535649e-01 -5.504107e-01 -5.471845e-01 -5.438915e-01 -5.405312e-01 -5.371086e-01 -5.336235e-01 -5.300809e-01 -5.264805e-01 -5.228275e-01 -5.191219e-01 -5.153685e-01 -5.115677e-01 -5.077241e-01 -5.038384e-01 -4.999149e-01 -4.959548e-01 -4.919620e-01 -4.879379e-01 -4.838865e-01 -4.798091e-01 -4.757096e-01 -4.715897e-01 -4.674529e-01 -4.633011e-01 -4.591377e-01 -4.549647e-01 -4.507853e-01 -4.466018e-01 -4.424169e-01 -4.382334e-01 -4.340536e-01 -4.298804e-01 -4.257161e-01 -4.215635e-01 -4.174247e-01 -4.133029e-01 -4.091997e-01 -4.051184e-01 -4.010605e-01 -3.970294e-01 -3.930263e-01 -3.890548e-01 -3.851157e-01 -3.812129e-01 -3.773469e-01 -3.735215e-01 -3.697371e-01 -3.659977e-01 -3.623033e-01 -3.586580e-01 -3.550616e-01 -3.515182e-01 -3.480274e-01 -3.445934e-01 -3.412155e-01 -3.378981e-01 -3.346401e-01 -3.314459e-01 -3.283143e-01 -3.252497e-01 -3.222507e-01 -3.193219e-01 -3.164613e-01 -3.136737e-01 -3.109571e-01 -3.083161e-01 -3.057486e-01 -3.032590e-01 -3.008452e-01 -2.985117e-01 -2.962560e-01 -2.940828e-01 -2.919892e-01 -2.899800e-01 -2.880523e-01 -2.862107e-01 -2.844521e-01 -2.827812e-01 -2.811948e-01 -2.796974e-01 -2.782858e-01 -2.769645e-01 -2.757300e-01 -2.745869e-01 -2.735316e-01 -2.725686e-01 -2.716942e-01 -2.709129e-01 -2.702208e-01 -2.696223e-01 -2.691136e-01 -2.686990e-01 -2.683746e-01 -2.681445e-01 -2.680047e-01 
-2.671168e-01 -2.671622e-01 -2.673024e-01 -2.675333e-01 -2.678589e-01 -2.682749e-01 -2.687853e-01 -2.693858e-01 -2.700802e-01 -2.708643e-01 -2.717417e-01 -2.727081e-01 -2.737670e-01 -2.749141e-01 -2.761529e-01 -2.774789e-01 -2.788956e-01 -2.803983e-01 -2.819905e-01 -2.836675e-01 -2.854325e-01 -2.872809e-01 -2.892158e-01 -2.912326e-01 -2.933341e-01 -2.955157e-01 -2.977801e-01 -3.001227e-01 -3.025460e-01 -3.050454e-01 -3.076233e-01 -3.102750e-01 -3.130027e-01 -3.158018e-01 -3.186743e-01 -3.216156e-01 -3.246274e-01 -3.277051e-01 -3.308504e-01 -3.340586e-01 -3.373311e-01 -3.406635e-01 -3.440567e-01 -3.475064e-01 -3.510134e-01 -3.545733e-01 -3.581868e-01 -3.618495e-01 -3.655618e-01 -3.693194e-01 -3.731225e-01 -3.769669e-01 -3.808524e-01 -3.847750e-01 -3.887342e-01 -3.927262e-01 -3.967503e-01 -4.008026e-01 -4.048821e-01 -4.089852e-01 -4.131107e-01 -4.172550e-01 -4.214166e-01 -4.255922e-01 -4.297799e-01 -4.339767e-01 -4.381803e-01 -4.423878e-01 -4.465969e-01 -4.508048e-01 -4.550088e-01 -4.592064e-01 -4.633947e-01 -4.675713e-01 -4.717332e-01 -4.758781e-01 -4.800027e-01 -4.841052e-01 -4.881818e-01 -4.922310e-01 -4.962488e-01 -5.002340e-01 -5.041823e-01 -5.080928e-01 -5.119611e-01 -5.157865e-01 -5.195642e-01 -5.232940e-01 -5.269709e-01 -5.305949e-01 -5.341610e-01 -5.376693e-01 -5.411147e-01 -5.444975e-01 -5.478126e-01 -5.510607e-01 -5.542362e-01 -5.573404e-01 -5.603675e-01 -5.633191e-01 -5.661894e-01 -5.689800e-01 -5.716852e-01 -5.743070e-01 -5.768396e-01 -5.792851e-01 -5.816378e-01 -5.839002e-01 -5.860663e-01 -5.881389e-01 -5.901123e-01 -5.919893e-01 -5.937643e-01 -5.954403e-01 -5.970118e-01 -5.984820e-01 -5.998454e-01 -6.011057e-01 -6.022571e-01 -6.033037e-01 -6.042399e-01 -6.050698e-01 -6.057880e-01 -6.063989e-01 -6.068970e-01 -6.072870e-01 -6.075637e-01 -6.077318e-01 -6.077862e-01 -6.077318e-01 -6.075637e-01 -6.072870e-01 -6.068970e-01 -6.063989e-01 -6.057880e-01 -6.050698e-01 -6.042399e-01 -6.033037e-01 -6.022571e-01 -6.011057e-01 -5.998454e-01 -5.984820e-01 -5.970118e-01 -5.954403e-01 -5.937643e-01 -5.919893e-01 -5.901123e-01 -5.881389e-01 -5.860663e-01 -5.839002e-01 -5.816378e-01 -5.792851e-01 -5.768396e-01 -5.743070e-01 -5.716852e-01 -5.689800e-01 -5.661894e-01 -5.633191e-01 -5.603675e-01 -5.573404e-01 -5.542362e-01 -5.510607e-01 -5.478126e-01 -5.444975e-01 -5.411147e-01 -5.376693e-01 -5.341610e-01 -5.305949e-01 -5.269709e-01 -5.232940e-01 -5.195642e-01 -5.157865e-01 -5.119611e-01 -5.080928e-01 -5.041823e-01 -5.002340e-01 -4.962488e-01 -4.922310e-01 -4.881818e-01 -4.841052e-01 -4.800027e-01 -4.758781e-01 -4.717332e-01 -4.675713e-01 -4.633947e-01 -4.592064e-01 -4.550088e-01 -4.508048e-01 -4.465969e-01 -4.423878e-01 -4.381803e-01 -4.339767e-01 -4.297799e-01 -4.255922e-01 -4.214166e-01 -4.172550e-01 -4.131107e-01 -4.089852e-01 -4.048821e-01 -4.008026e-01 -3.967503e-01 -3.927262e-01 -3.887342e-01 -3.847750e-01 -3.808524e-01 -3.769669e-01 -3.731225e-01 -3.693194e-01 -3.655618e-01 -3.618495e-01 -3.581868e-01 -3.545733e-01 -3.510134e-01 -3.475064e-01 -3.440567e-01 -3.406635e-01 -3.373311e-01 -3.340586e-01 -3.308504e-01 -3.277051e-01 -3.246274e-01 -3.216156e-01 -3.186743e-01 -3.158018e-01 -3.130027e-01 -3.102750e-01 -3.076233e-01 -3.050454e-01 -3.025460e-01 -3.001227e-01 -2.977801e-01 -2.955157e-01 -2.933341e-01 -2.912326e-01 -2.892158e-01 -2.872809e-01 -2.854325e-01 -2.836675e-01 -2.819905e-01 -2.803983e-01 -2.788956e-01 -2.774789e-01 -2.761529e-01 -2.749141e-01 -2.737670e-01 -2.727081e-01 -2.717417e-01 -2.708643e-01 -2.700802e-01 -2.693858e-01 -2.687853e-01 -2.682749e-01 -2.678589e-01 -2.675333e-01 -2.673024e-01 -2.671622e-01 