# vtk DataFile Version 2.0
Comment goes here
ASCII

DATASET STRUCTURED_POINTS
FIELD FieldData 1
TIME 1 1 double
0.03000000
DIMENSIONS    256   256   1

ORIGIN    0.000   0.000   0.000
SPACING   0.0039062 0.0039062   1.000

POINT_DATA   65536
SCALARS uY double
LOOKUP_TABLE default

-2.350689e-01 -2.351116e-01 -2.352369e-01 -2.354476e-01 -2.357408e-01 -2.361192e-01 -2.365799e-01 -2.371254e-01 -2.377530e-01 -2.384650e-01 -2.392586e-01 -2.401361e-01 -2.410946e-01 -2.421363e-01 -2.432584e-01 -2.444629e-01 -2.457470e-01 -2.471127e-01 -2.485570e-01 -2.500818e-01 -2.516842e-01 -2.533659e-01 -2.551240e-01 -2.569602e-01 -2.588715e-01 -2.608593e-01 -2.629208e-01 -2.650572e-01 -2.672657e-01 -2.695474e-01 -2.718993e-01 -2.743226e-01 -2.768142e-01 -2.793751e-01 -2.820022e-01 -2.846964e-01 -2.874546e-01 -2.902774e-01 -2.931619e-01 -2.961085e-01 -2.991141e-01 -3.021790e-01 -3.053003e-01 -3.084780e-01 -3.117092e-01 -3.149936e-01 -3.183284e-01 -3.217133e-01 -3.251453e-01 -3.286238e-01 -3.321461e-01 -3.357113e-01 -3.393167e-01 -3.429612e-01 -3.466421e-01 -3.503582e-01 -3.541068e-01 -3.578864e-01 -3.616944e-01 -3.655292e-01 -3.693882e-01 -3.732694e-01 -3.771705e-01 -3.810893e-01 -3.850234e-01 -3.889706e-01 -3.929283e-01 -3.968943e-01 -4.008661e-01 -4.048412e-01 -4.088173e-01 -4.127915e-01 -4.167618e-01 -4.207251e-01 -4.246795e-01 -4.286217e-01 -4.325497e-01 -4.364603e-01 -4.403517e-01 -4.442203e-01 -4.480644e-01 -4.518805e-01 -4.556669e-01 -4.594198e-01 -4.631380e-01 -4.668173e-01 -4.704567e-01 -4.740519e-01 -4.776021e-01 -4.811029e-01 -4.845535e-01 -4.879497e-01 -4.912906e-01 -4.945721e-01 -4.977934e-01 -5.009503e-01 -5.040423e-01 -5.070652e-01 -5.100184e-01 -5.128979e-01 -5.157034e-01 -5.184306e-01 -5.210795e-01 -5.236459e-01 -5.261301e-01 -5.285276e-01 -5.308390e-01 -5.330601e-01 -5.351915e-01 -5.372290e-01 -5.391735e-01 -5.410208e-01 -5.427721e-01 -5.444233e-01 -5.459757e-01 -5.474254e-01 -5.487739e-01 -5.500173e-01 -5.511574e-01 -5.521905e-01 -5.531183e-01 -5.539377e-01 -5.546503e-01 -5.552532e-01 -5.557483e-01 -5.561326e-01 -5.564085e-01 -5.565731e-01 -5.566288e-01 -5.565731e-01 -5.564085e-01 -5.561326e-01 -5.557483e-01 -5.552532e-01 -5.546503e-01 -5.539377e-01 -5.531183e-01 -5.521905e-01 -5.511574e-01 -5.500173e-01 -5.487739e-01 -5.474254e-01 -5.459757e-01 -5.444233e-01 -5.427721e-01 -5.410208e-01 -5.391735e-01 -5.372290e-01 -5.351915e-01 -5.330601e-01 -5.308390e-01 -5.285276e-01 -5.261301e-01 -5.236459e-01 -5.210795e-01 -5.184306e-01 -5.157034e-01 -5.128979e-01 -5.100184e-01 -5.070652e-01 -5.040423e-01 -5.009503e-01 -4.977934e-01 -4.945721e-01 -4.912906e-01 -4.879497e-01 -4.845535e-01 -4.811029e-01 -4.776021e-01 -4.740519e-01 -4.704567e-01 -4.668173e-01 -4.631380e-01 -4.594198e-01 -4.556669e-01 -4.518805e-01 -4.480644e-01 -4.442203e-01 -4.403517e-01 -4.364603e-01 -4.325497e-01 -4.286217e-01 -4.246795e-01 -4.207251e-01 -4.167618e-01 -4.127915e-01 -4.088173e-01 -4.048412e-01 -4.008661e-01 -3.968943e-01 -3.929283e-01 -3.889706e-01 -3.850234e-01 -3.810893e-01 -3.771705e-01 -3.732694e-01 -3.693882e-01 -3.655292e-01 -3.616944e-01 -3.578864e-01 -3.541068e-01 -3.503582e-01 -3.466421e-01 -3.429612e-01 -3.393167e-01 -3.357113e-01 -3.321461e-01 -3.286238e-01 -3.251453e-01 -3.217133e-01 -3.183284e-01 -3.149936e-01 -3.117092e-01 -3.084780e-01 -3.053003e-01 -3.021790e-01 -2.991141e-01 -2.961085e-01 -2.931619e-01 -2.902774e-01 -2.874546e-01 -2.846964e-01 -2.820022e-01 -2.793751e-01 -2.768142e-01 -2.743226e-01 -2.718993e-01 -2.695474e-01 -2.672657e-01 -2.650572e-01 -2.629208e-01 -2.608593e-01 -2.588715e-01 -2.569602e-01 -2.551240e-01 -2.533659e-01 -2.516842e-01 -2.500818e-01 -2.485570e-01 -2.471127e-01 -2.457470e-01 -2.444629e-01 -2.432584e-01 -2.421363e-01 -2.410946e-01 -2.401361e-01 -2.392586e-01 -2.384650e-01 -2.377530e-01 -2.371254e-01 -2.365799e-01 -2.361192e-01 -2.357408e-01 -2.354476e-01 -2.352369e-01 -2.351116e-01 
-2.355726e-01 -2.356153e-01 -2.357405e-01 -2.359510e-01 -2.362440e-01 -2.366221e-01 -2.370825e-01 -2.376276e-01 -2.382546e-01 -2.389661e-01 -2.397590e-01 -2.406357e-01 -2.415934e-01 -2.426342e-01 -2.437553e-01 -2.449587e-01 -2.462416e-01 -2.476059e-01 -2.490488e-01 -2.505720e-01 -2.521727e-01 -2.538526e-01 -2.556088e-01 -2.574429e-01 -2.593518e-01 -2.613372e-01 -2.633961e-01 -2.655297e-01 -2.677352e-01 -2.700137e-01 -2.723622e-01 -2.747819e-01 -2.772696e-01 -2.798264e-01 -2.824493e-01 -2.851389e-01 -2.878922e-01 -2.907100e-01 -2.935891e-01 -2.965299e-01 -2.995296e-01 -3.025883e-01 -3.057030e-01 -3.088738e-01 -3.120977e-01 -3.153745e-01 -3.187014e-01 -3.220780e-01 -3.255013e-01 -3.289709e-01 -3.324838e-01 -3.360392e-01 -3.396344e-01 -3.432684e-01 -3.469384e-01 -3.506431e-01 -3.543800e-01 -3.581474e-01 -3.619429e-01 -3.657648e-01 -3.696104e-01 -3.734779e-01 -3.773648e-01 -3.812690e-01 -3.851882e-01 -3.891200e-01 -3.930620e-01 -3.970118e-01 -4.009672e-01 -4.049253e-01 -4.088842e-01 -4.128409e-01 -4.167933e-01 -4.207384e-01 -4.246742e-01 -4.285975e-01 -4.325064e-01 -4.363976e-01 -4.402693e-01 -4.441180e-01 -4.479420e-01 -4.517378e-01 -4.555037e-01 -4.592360e-01 -4.629334e-01 -4.665919e-01 -4.702103e-01 -4.737846e-01 -4.773136e-01 -4.807935e-01 -4.842230e-01 -4.875983e-01 -4.909183e-01 -4.941790e-01 -4.973797e-01 -5.005161e-01 -5.035878e-01 -5.065906e-01 -5.095241e-01 -5.123840e-01 -5.151703e-01 -5.178787e-01 -5.205091e-01 -5.230575e-01 -5.255239e-01 -5.279043e-01 -5.301991e-01 -5.324040e-01 -5.345198e-01 -5.365422e-01 -5.384722e-01 -5.403058e-01 -5.420439e-01 -5.436827e-01 -5.452233e-01 -5.466619e-01 -5.480000e-01 -5.492339e-01 -5.503651e-01 -5.513902e-01 -5.523108e-01 -5.531238e-01 -5.538309e-01 -5.544290e-01 -5.549202e-01 -5.553015e-01 -5.555752e-01 -5.557385e-01 -5.557938e-01 -5.557385e-01 -5.555752e-01 -5.553015e-01 -5.549202e-01 -5.544290e-01 -5.538309e-01 -5.531238e-01 -5.523108e-01 -5.513902e-01 -5.503651e-01 -5.492339e-01 -5.480000e-01 -5.466619e-01 -5.452233e-01 -5.436827e-01 -5.420439e-01 -5.403058e-01 -5.384722e-01 -5.365422e-01 -5.345198e-01 -5.324040e-01 -5.301991e-01 -5.279043e-01 -5.255239e-01 -5.230575e-01 -5.205091e-01 -5.178787e-01 -5.151703e-01 -5.123840e-01 -5.095241e-01 -5.065906e-01 -5.035878e-01 -5.005161e-01 -4.973797e-01 -4.941790e-01 -4.909183e-01 -4.875983e-01 -4.842230e-01 -4.807935e-01 -4.773136e-01 -4.737846e-01 -4.702103e-01 -4.665919e-01 -4.629334e-01 -4.592360e-01 -4.555037e-01 -4.517378e-01 -4.479420e-01 -4.441180e-01 -4.402693e-01 -4.363976e-01 -4.325064e-01 -4.285975e-01 -4.246742e-01 -4.207384e-01 -4.167933e-01 -4.128409e-01 -4.088842e-01 -4.049253e-01 -4.009672e-01 -3.970118e-01 -3.930620e-01 -3.891200e-01 -3.851882e-01 -3.812690e-01 -3.773648e-01 -3.734779e-01 -3.696104e-01 -3.657648e-01 -3.619429e-01 -3.581474e-01 -3.543800e-01 -3.506431e-01 -3.469384e-01 -3.432684e-01 -3.396344e-01 -3.360392e-01 -3.324838e-01 -3.289709e-01 -3.255013e-01 -3.220780e-01 -3.187014e-01 -3.153745e-01 -3.120977e-01 -3.088738e-01 -3.057030e-01 -3.025883e-01 -2.995296e-01 -2.965299e-01 -2.935891e-01 -2.907100e-01 -2.878922e-01 -2.851389e-01 -2.824493e-01 -2.798264e-01 -2.772696e-01 -2.747819e-01 -2.723622e-01 -2.700137e-01 -2.677352e-01 -2.655297e-01 -2.633961e-01 -2.613372e-01 -2.593518e-01 -2.574429e-01 -2.556088e-01 -2.538526e-01 -2.521727e-01 -2.505720e-01 -2.490488e-01 -2.476059e-01 -2.462416e-01 -2.449587e-01 -2.437553e-01 -2.426342e-01 -2.415934e-01 -2.406357e-01 -2.397590e-01 -2.389661e-01 -2.382546e-01 -2.376276e-01 -2.370825e-01 -2.366221e-01 -2.362440e-01 -2.359510e-01 -2.357405e-01 -2.356153e-01 
-2.359918e-01 -2.360344e-01 -2.361596e-01 -2.363700e-01 -2.366629e-01 -2.370408e-01 -2.375010e-01 -2.380458e-01 -2.386726e-01 -2.393837e-01 -2.401762e-01 -2.410526e-01 -2.420097e-01 -2.430500e-01 -2.441705e-01 -2.453732e-01 -2.466554e-01 -2.480189e-01 -2.494608e-01 -2.509831e-01 -2.525826e-01 -2.542614e-01 -2.560162e-01 -2.578489e-01 -2.597563e-01 -2.617400e-01 -2.637970e-01 -2.659287e-01 -2.681321e-01 -2.704083e-01 -2.727544e-01 -2.751715e-01 -2.776564e-01 -2.802103e-01 -2.828299e-01 -2.855161e-01 -2.882658e-01 -2.910797e-01 -2.939547e-01 -2.968913e-01 -2.998864e-01 -3.029402e-01 -3.060498e-01 -3.092151e-01 -3.124334e-01 -3.157042e-01 -3.190248e-01 -3.223948e-01 -3.258112e-01 -3.292735e-01 -3.327789e-01 -3.363264e-01 -3.399134e-01 -3.435387e-01 -3.471998e-01 -3.508952e-01 -3.546224e-01 -3.583798e-01 -3.621649e-01 -3.659759e-01 -3.698104e-01 -3.736664e-01 -3.775415e-01 -3.814335e-01 -3.853400e-01 -3.892588e-01 -3.931875e-01 -3.971237e-01 -4.010650e-01 -4.050088e-01 -4.089529e-01 -4.128945e-01 -4.168316e-01 -4.207610e-01 -4.246808e-01 -4.285879e-01 -4.324803e-01 -4.363547e-01 -4.402094e-01 -4.440408e-01 -4.478474e-01 -4.516255e-01 -4.553736e-01 -4.590879e-01 -4.627672e-01 -4.664074e-01 -4.700075e-01 -4.735634e-01 -4.770740e-01 -4.805353e-01 -4.839464e-01 -4.873032e-01 -4.906048e-01 -4.938472e-01 -4.970297e-01 -5.001480e-01 -5.032018e-01 -5.061869e-01 -5.091028e-01 -5.119455e-01 -5.147147e-01 -5.174064e-01 -5.200204e-01 -5.225527e-01 -5.250035e-01 -5.273687e-01 -5.296486e-01 -5.318391e-01 -5.339410e-01 -5.359500e-01 -5.378672e-01 -5.396885e-01 -5.414148e-01 -5.430424e-01 -5.445725e-01 -5.460013e-01 -5.473301e-01 -5.485554e-01 -5.496788e-01 -5.506967e-01 -5.516109e-01 -5.524181e-01 -5.531203e-01 -5.537141e-01 -5.542019e-01 -5.545805e-01 -5.548523e-01 -5.550144e-01 -5.550693e-01 -5.550144e-01 -5.548523e-01 -5.545805e-01 -5.542019e-01 -5.537141e-01 -5.531203e-01 -5.524181e-01 -5.516109e-01 -5.506967e-01 -5.496788e-01 -5.485554e-01 -5.473301e-01 -5.460013e-01 -5.445725e-01 -5.430424e-01 -5.414148e-01 -5.396885e-01 -5.378672e-01 -5.359500e-01 -5.339410e-01 -5.318391e-01 -5.296486e-01 -5.273687e-01 -5.250035e-01 -5.225527e-01 -5.200204e-01 -5.174064e-01 -5.147147e-01 -5.119455e-01 -5.091028e-01 -5.061869e-01 -5.032018e-01 -5.001480e-01 -4.970297e-01 -4.938472e-01 -4.906048e-01 -4.873032e-01 -4.839464e-01 -4.805353e-01 -4.770740e-01 -4.735634e-01 -4.700075e-01 -4.664074e-01 -4.627672e-01 -4.590879e-01 -4.553736e-01 -4.516255e-01 -4.478474e-01 -4.440408e-01 -4.402094e-01 -4.363547e-01 -4.324803e-01 -4.285879e-01 -4.246808e-01 -4.207610e-01 -4.168316e-01 -4.128945e-01 -4.089529e-01 -4.050088e-01 -4.010650e-01 -3.971237e-01 -3.931875e-01 -3.892588e-01 -3.853400e-01 -3.814335e-01 -3.775415e-01 -3.736664e-01 -3.698104e-01 -3.659759e-01 -3.621649e-01 -3.583798e-01 -3.546224e-01 -3.508952e-01 -3.471998e-01 -3.435387e-01 -3.399134e-01 -3.363264e-01 -3.327789e-01 -3.292735e-01 -3.258112e-01 -3.223948e-01 -3.190248e-01 -3.157042e-01 -3.124334e-01 -3.092151e-01 -3.060498e-01 -3.029402e-01 -2.998864e-01 -2.968913e-01 -2.939547e-01 -2.910797e-01 -2.882658e-01 -2.855161e-01 -2.828299e-01 -2.802103e-01 -2.776564e-01 -2.751715e-01 -2.727544e-01 -2.704083e-01 -2.681321e-01 -2.659287e-01 -2.637970e-01 -2.617400e-01 -2.597563e-01 -2.578489e-01 -2.560162e-01 -2.542614e-01 -2.525826e-01 -2.509831e-01 -2.494608e-01 -2.480189e-01 -2.466554e-01 -2.453732e-01 -2.441705e-01 -2.430500e-01 -2.420097e-01 -2.410526e-01 -2.401762e-01 -2.393837e-01 -2.386726e-01 -2.380458e-01 -2.375010e-01 -2.370408e-01 -2.366629e-01 -2.363700e-01 -2.361596e-01 -2.360344e-01 
-2.363276e-01 -2.363702e-01 -2.364954e-01 -2.367058e-01 -2.369987e-01 -2.373766e-01 -2.378367e-01 -2.383815e-01 -2.390082e-01 -2.397192e-01 -2.405117e-01 -2.413879e-01 -2.423449e-01 -2.433850e-01 -2.445052e-01 -2.457078e-01 -2.469896e-01 -2.483528e-01 -2.497943e-01 -2.513161e-01 -2.529152e-01 -2.545934e-01 -2.563476e-01 -2.581795e-01 -2.600862e-01 -2.620690e-01 -2.641250e-01 -2.662556e-01 -2.684578e-01 -2.707327e-01 -2.730773e-01 -2.754928e-01 -2.779760e-01 -2.805279e-01 -2.831455e-01 -2.858294e-01 -2.885768e-01 -2.913881e-01 -2.942603e-01 -2.971938e-01 -3.001857e-01 -3.032361e-01 -3.063421e-01 -3.095035e-01 -3.127176e-01 -3.159841e-01 -3.193001e-01 -3.226651e-01 -3.260763e-01 -3.295332e-01 -3.330327e-01 -3.365742e-01 -3.401548e-01 -3.437735e-01 -3.474276e-01 -3.511157e-01 -3.548352e-01 -3.585847e-01 -3.623615e-01 -3.661640e-01 -3.699895e-01 -3.738362e-01 -3.777016e-01 -3.815837e-01 -3.854799e-01 -3.893881e-01 -3.933059e-01 -3.972307e-01 -4.011604e-01 -4.050923e-01 -4.090242e-01 -4.129532e-01 -4.168774e-01 -4.207937e-01 -4.247001e-01 -4.285934e-01 -4.324719e-01 -4.363321e-01 -4.401723e-01 -4.439891e-01 -4.477807e-01 -4.515437e-01 -4.552766e-01 -4.589755e-01 -4.626391e-01 -4.662637e-01 -4.698479e-01 -4.733879e-01 -4.768826e-01 -4.803279e-01 -4.837230e-01 -4.870637e-01 -4.903494e-01 -4.935758e-01 -4.967424e-01 -4.998450e-01 -5.028831e-01 -5.058526e-01 -5.087532e-01 -5.115807e-01 -5.143351e-01 -5.170120e-01 -5.196117e-01 -5.221299e-01 -5.245669e-01 -5.269185e-01 -5.291854e-01 -5.313632e-01 -5.334528e-01 -5.354501e-01 -5.373558e-01 -5.391662e-01 -5.408822e-01 -5.425000e-01 -5.440207e-01 -5.454407e-01 -5.467614e-01 -5.479791e-01 -5.490955e-01 -5.501071e-01 -5.510156e-01 -5.518177e-01 -5.525154e-01 -5.531055e-01 -5.535902e-01 -5.539664e-01 -5.542365e-01 -5.543975e-01 -5.544521e-01 -5.543975e-01 -5.542365e-01 -5.539664e-01 -5.535902e-01 -5.531055e-01 -5.525154e-01 -5.518177e-01 -5.510156e-01 -5.501071e-01 -5.490955e-01 -5.479791e-01 -5.467614e-01 -5.454407e-01 -5.440207e-01 -5.425000e-01 -5.408822e-01 -5.391662e-01 -5.373558e-01 -5.354501e-01 -5.334528e-01 -5.313632e-01 -5.291854e-01 -5.269185e-01 -5.245669e-01 -5.221299e-01 -5.196117e-01 -5.170120e-01 -5.143351e-01 -5.115807e-01 -5.087532e-01 -5.058526e-01 -5.028831e-01 -4.998450e-01 -4.967424e-01 -4.935758e-01 -4.903494e-01 -4.870637e-01 -4.837230e-01 -4.803279e-01 -4.768826e-01 -4.733879e-01 -4.698479e-01 -4.662637e-01 -4.626391e-01 -4.589755e-01 -4.552766e-01 -4.515437e-01 -4.477807e-01 -4.439891e-01 -4.401723e-01 -4.363321e-01 -4.324719e-01 -4.285934e-01 -4.247001e-01 -4.207937e-01 -4.168774e-01 -4.129532e-01 -4.090242e-01 -4.050923e-01 -4.011604e-01 -3.972307e-01 -3.933059e-01 -3.893881e-01 -3.854799e-01 -3.815837e-01 -3.777016e-01 -3.738362e-01 -3.699895e-01 -3.661640e-01 -3.623615e-01 -3.585847e-01 -3.548352e-01 -3.511157e-01 -3.474276e-01 -3.437735e-01 -3.401548e-01 -3.365742e-01 -3.330327e-01 -3.295332e-01 -3.260763e-01 -3.226651e-01 -3.193001e-01 -3.159841e-01 -3.127176e-01 -3.095035e-01 -3.063421e-01 -3.032361e-01 -3.001857e-01 -2.971938e-01 -2.942603e-01 -2.913881e-01 -2.885768e-01 -2.858294e-01 -2.831455e-01 -2.805279e-01 -2.779760e-01 -2.754928e-01 -2.730773e-01 -2.707327e-01 -2.684578e-01 -2.662556e-01 -2.641250e-01 -2.620690e-01 -2.600862e-01 -2.581795e-01 -2.563476e-01 -2.545934e-01 -2.529152e-01 -2.513161e-01 -2.497943e-01 -2.483528e-01 -2.469896e-01 -2.457078e-01 -2.445052e-01 -2.433850e-01 -2.423449e-01 -2.413879e-01 -2.405117e-01 -2.397192e-01 -2.390082e-01 -2.383815e-01 -2.378367e-01 -2.373766e-01 -2.369987e-01 -2.367058e-01 -2.364954e-01 -2.363702e-01 
-2.365789e-01 -2.366216e-01 -2.367468e-01 -2.369573e-01 -2.372502e-01 -2.376282e-01 -2.380884e-01 -2.386334e-01 -2.392603e-01 -2.399715e-01 -2.407641e-01 -2.416404e-01 -2.425977e-01 -2.436380e-01 -2.447584e-01 -2.459611e-01 -2.472432e-01 -2.486065e-01 -2.500482e-01 -2.515702e-01 -2.531694e-01 -2.548476e-01 -2.566019e-01 -2.584338e-01 -2.603404e-01 -2.623231e-01 -2.643790e-01 -2.665094e-01 -2.687112e-01 -2.709857e-01 -2.733298e-01 -2.757447e-01 -2.782273e-01 -2.807784e-01 -2.833950e-01 -2.860780e-01 -2.888241e-01 -2.916341e-01 -2.945049e-01 -2.974368e-01 -3.004268e-01 -3.034752e-01 -3.065790e-01 -3.097381e-01 -3.129497e-01 -3.162134e-01 -3.195263e-01 -3.228882e-01 -3.262960e-01 -3.297491e-01 -3.332447e-01 -3.367820e-01 -3.403582e-01 -3.439721e-01 -3.476212e-01 -3.513040e-01 -3.550180e-01 -3.587617e-01 -3.625323e-01 -3.663283e-01 -3.701472e-01 -3.739868e-01 -3.778449e-01 -3.817193e-01 -3.856077e-01 -3.895076e-01 -3.934168e-01 -3.973327e-01 -4.012533e-01 -4.051757e-01 -4.090979e-01 -4.130169e-01 -4.169308e-01 -4.208364e-01 -4.247320e-01 -4.286142e-01 -4.324812e-01 -4.363298e-01 -4.401582e-01 -4.439628e-01 -4.477423e-01 -4.514927e-01 -4.552129e-01 -4.588990e-01 -4.625497e-01 -4.661611e-01 -4.697321e-01 -4.732587e-01 -4.767400e-01 -4.801718e-01 -4.835534e-01 -4.868806e-01 -4.901527e-01 -4.933655e-01 -4.965186e-01 -4.996077e-01 -5.026325e-01 -5.055888e-01 -5.084763e-01 -5.112908e-01 -5.140323e-01 -5.166966e-01 -5.192839e-01 -5.217900e-01 -5.242151e-01 -5.265552e-01 -5.288107e-01 -5.309776e-01 -5.330566e-01 -5.350436e-01 -5.369395e-01 -5.387405e-01 -5.404475e-01 -5.420567e-01 -5.435693e-01 -5.449817e-01 -5.462953e-01 -5.475065e-01 -5.486168e-01 -5.496228e-01 -5.505263e-01 -5.513240e-01 -5.520179e-01 -5.526047e-01 -5.530867e-01 -5.534608e-01 -5.537294e-01 -5.538896e-01 -5.539438e-01 -5.538896e-01 -5.537294e-01 -5.534608e-01 -5.530867e-01 -5.526047e-01 -5.520179e-01 -5.513240e-01 -5.505263e-01 -5.496228e-01 -5.486168e-01 -5.475065e-01 -5.462953e-01 -5.449817e-01 -5.435693e-01 -5.420567e-01 -5.404475e-01 -5.387405e-01 -5.369395e-01 -5.350436e-01 -5.330566e-01 -5.309776e-01 -5.288107e-01 -5.265552e-01 -5.242151e-01 -5.217900e-01 -5.192839e-01 -5.166966e-01 -5.140323e-01 -5.112908e-01 -5.084763e-01 -5.055888e-01 -5.026325e-01 -4.996077e-01 -4.965186e-01 -4.933655e-01 -4.901527e-01 -4.868806e-01 -4.835534e-01 -4.801718e-01 -4.767400e-01 -4.732587e-01 -4.697321e-01 -4.661611e-01 -4.625497e-01 -4.588990e-01 -4.552129e-01 -4.514927e-01 -4.477423e-01 -4.439628e-01 -4.401582e-01 -4.363298e-01 -4.324812e-01 -4.286142e-01 -4.247320e-01 -4.208364e-01 -4.169308e-01 -4.130169e-01 -4.090979e-01 -4.051757e-01 -4.012533e-01 -3.973327e-01 -3.934168e-01 -3.895076e-01 -3.856077e-01 -3.817193e-01 -3.778449e-01 -3.739868e-01 -3.701472e-01 -3.663283e-01 -3.625323e-01 -3.587617e-01 -3.550180e-01 -3.513040e-01 -3.476212e-01 -3.439721e-01 -3.403582e-01 -3.367820e-01 -3.332447e-01 -3.297491e-01 -3.262960e-01 -3.228882e-01 -3.195263e-01 -3.162134e-01 -3.129497e-01 -3.097381e-01 -3.065790e-01 -3.034752e-01 -3.004268e-01 -2.974368e-01 -2.945049e-01 -2.916341e-01 -2.888241e-01 -2.860780e-01 -2.833950e-01 -2.807784e-01 -2.782273e-01 -2.757447e-01 -2.733298e-01 -2.709857e-01 -2.687112e-01 -2.665094e-01 -2.643790e-01 -2.623231e-01 -2.603404e-01 -2.584338e-01 -2.566019e-01 -2.548476e-01 -2.531694e-01 -2.515702e-01 -2.500482e-01 -2.486065e-01 -2.472432e-01 -2.459611e-01 -2.447584e-01 -2.436380e-01 -2.425977e-01 -2.416404e-01 -2.407641e-01 -2.399715e-01 -2.392603e-01 -2.386334e-01 -2.380884e-01 -2.376282e-01 -2.372502e-01 -2.369573e-01 -2.367468e-01 -2.366216e-01 
-2.367469e-01 -2.367896e-01 -2.369149e-01 -2.371255e-01 -2.374186e-01 -2.377968e-01 -2.382573e-01 -2.388026e-01 -2.394299e-01 -2.401415e-01 -2.409346e-01 -2.418115e-01 -2.427692e-01 -2.438101e-01 -2.449312e-01 -2.461345e-01 -2.474172e-01 -2.487813e-01 -2.502237e-01 -2.517464e-01 -2.533463e-01 -2.550253e-01 -2.567802e-01 -2.586129e-01 -2.605202e-01 -2.625036e-01 -2.645601e-01 -2.666911e-01 -2.688935e-01 -2.711686e-01 -2.735133e-01 -2.759286e-01 -2.784115e-01 -2.809629e-01 -2.835798e-01 -2.862629e-01 -2.890091e-01 -2.918190e-01 -2.946896e-01 -2.976213e-01 -3.006109e-01 -3.036588e-01 -3.067619e-01 -3.099202e-01 -3.131307e-01 -3.163932e-01 -3.197049e-01 -3.230652e-01 -3.264713e-01 -3.299225e-01 -3.334160e-01 -3.369509e-01 -3.405246e-01 -3.441357e-01 -3.477818e-01 -3.514614e-01 -3.551719e-01 -3.589118e-01 -3.626784e-01 -3.664702e-01 -3.702844e-01 -3.741193e-01 -3.779723e-01 -3.818414e-01 -3.857241e-01 -3.896181e-01 -3.935211e-01 -3.974306e-01 -4.013444e-01 -4.052598e-01 -4.091747e-01 -4.130861e-01 -4.169922e-01 -4.208897e-01 -4.247769e-01 -4.286505e-01 -4.325088e-01 -4.363482e-01 -4.401673e-01 -4.439624e-01 -4.477321e-01 -4.514726e-01 -4.551827e-01 -4.588584e-01 -4.624986e-01 -4.660994e-01 -4.696597e-01 -4.731755e-01 -4.766458e-01 -4.800666e-01 -4.834370e-01 -4.867530e-01 -4.900139e-01 -4.932155e-01 -4.963574e-01 -4.994354e-01 -5.024490e-01 -5.053942e-01 -5.082707e-01 -5.110743e-01 -5.138051e-01 -5.164588e-01 -5.190356e-01 -5.215314e-01 -5.239465e-01 -5.262767e-01 -5.285227e-01 -5.306803e-01 -5.327503e-01 -5.347286e-01 -5.366161e-01 -5.384090e-01 -5.401083e-01 -5.417102e-01 -5.432160e-01 -5.446219e-01 -5.459294e-01 -5.471349e-01 -5.482400e-01 -5.492413e-01 -5.501405e-01 -5.509344e-01 -5.516250e-01 -5.522090e-01 -5.526887e-01 -5.530610e-01 -5.533283e-01 -5.534877e-01 -5.535417e-01 -5.534877e-01 -5.533283e-01 -5.530610e-01 -5.526887e-01 -5.522090e-01 -5.516250e-01 -5.509344e-01 -5.501405e-01 -5.492413e-01 -5.482400e-01 -5.471349e-01 -5.459294e-01 -5.446219e-01 -5.432160e-01 -5.417102e-01 -5.401083e-01 -5.384090e-01 -5.366161e-01 -5.347286e-01 -5.327503e-01 -5.306803e-01 -5.285227e-01 -5.262767e-01 -5.239465e-01 -5.215314e-01 -5.190356e-01 -5.164588e-01 -5.138051e-01 -5.110743e-01 -5.082707e-01 -5.053942e-01 -5.024490e-01 -4.994354e-01 -4.963574e-01 -4.932155e-01 -4.900139e-01 -4.867530e-01 -4.834370e-01 -4.800666e-01 -4.766458e-01 -4.731755e-01 -4.696597e-01 -4.660994e-01 -4.624986e-01 -4.588584e-01 -4.551827e-01 -4.514726e-01 -4.477321e-01 -4.439624e-01 -4.401673e-01 -4.363482e-01 -4.325088e-01 -4.286505e-01 -4.247769e-01 -4.208897e-01 -4.169922e-01 -4.130861e-01 -4.091747e-01 -4.052598e-01 -4.013444e-01 -3.974306e-01 -3.935211e-01 -3.896181e-01 -3.857241e-01 -3.818414e-01 -3.779723e-01 -3.741193e-01 -3.702844e-01 -3.664702e-01 -3.626784e-01 -3.589118e-01 -3.551719e-01 -3.514614e-01 -3.477818e-01 -3.441357e-01 -3.405246e-01 -3.369509e-01 -3.334160e-01 -3.299225e-01 -3.264713e-01 -3.230652e-01 -3.197049e-01 -3.163932e-01 -3.131307e-01 -3.099202e-01 -3.067619e-01 -3.036588e-01 -3.006109e-01 -2.976213e-01 -2.946896e-01 -2.918190e-01 -2.890091e-01 -2.862629e-01 -2.835798e-01 -2.809629e-01 -2.784115e-01 -2.759286e-01 -2.735133e-01 -2.711686e-01 -2.688935e-01 -2.666911e-01 -2.645601e-01 -2.625036e-01 -2.605202e-01 -2.586129e-01 -2.567802e-01 -2.550253e-01 -2.533463e-01 -2.517464e-01 -2.502237e-01 -2.487813e-01 -2.474172e-01 -2.461345e-01 -2.449312e-01 -2.438101e-01 -2.427692e-01 -2.418115e-01 -2.409346e-01 -2.401415e-01 -2.394299e-01 -2.388026e-01 -2.382573e-01 -2.377968e-01 -2.374186e-01 -2.371255e-01 -2.369149e-01 -2.367896e-01 
-2.368304e-01 -2.368731e-01 -2.369985e-01 -2.372093e-01 -2.375027e-01 -2.378813e-01 -2.383423e-01 -2.388881e-01 -2.395159e-01 -2.402282e-01 -2.410221e-01 -2.418998e-01 -2.428584e-01 -2.439003e-01 -2.450224e-01 -2.462268e-01 -2.475107e-01 -2.488759e-01 -2.503196e-01 -2.518435e-01 -2.534448e-01 -2.551252e-01 -2.568815e-01 -2.587157e-01 -2.606244e-01 -2.626093e-01 -2.646673e-01 -2.667999e-01 -2.690038e-01 -2.712804e-01 -2.736265e-01 -2.760433e-01 -2.785277e-01 -2.810806e-01 -2.836989e-01 -2.863833e-01 -2.891308e-01 -2.919420e-01 -2.948137e-01 -2.977464e-01 -3.007371e-01 -3.037859e-01 -3.068898e-01 -3.100488e-01 -3.132599e-01 -3.165229e-01 -3.198349e-01 -3.231954e-01 -3.266015e-01 -3.300526e-01 -3.335459e-01 -3.370804e-01 -3.406534e-01 -3.442637e-01 -3.479088e-01 -3.515872e-01 -3.552962e-01 -3.590345e-01 -3.627993e-01 -3.665889e-01 -3.704009e-01 -3.742332e-01 -3.780835e-01 -3.819495e-01 -3.858289e-01 -3.897194e-01 -3.936186e-01 -3.975241e-01 -4.014336e-01 -4.053444e-01 -4.092545e-01 -4.131609e-01 -4.170616e-01 -4.209536e-01 -4.248350e-01 -4.287026e-01 -4.325545e-01 -4.363875e-01 -4.401998e-01 -4.439880e-01 -4.477505e-01 -4.514837e-01 -4.551862e-01 -4.588542e-01 -4.624865e-01 -4.660792e-01 -4.696313e-01 -4.731387e-01 -4.766005e-01 -4.800127e-01 -4.833745e-01 -4.866817e-01 -4.899338e-01 -4.931266e-01 -4.962596e-01 -4.993286e-01 -5.023334e-01 -5.052697e-01 -5.081374e-01 -5.109323e-01 -5.136543e-01 -5.162995e-01 -5.188678e-01 -5.213553e-01 -5.237622e-01 -5.260844e-01 -5.283226e-01 -5.304726e-01 -5.325351e-01 -5.345063e-01 -5.363869e-01 -5.381732e-01 -5.398662e-01 -5.414620e-01 -5.429621e-01 -5.443626e-01 -5.456650e-01 -5.468658e-01 -5.479666e-01 -5.489640e-01 -5.498597e-01 -5.506504e-01 -5.513383e-01 -5.519200e-01 -5.523977e-01 -5.527685e-01 -5.530347e-01 -5.531935e-01 -5.532473e-01 -5.531935e-01 -5.530347e-01 -5.527685e-01 -5.523977e-01 -5.519200e-01 -5.513383e-01 -5.506504e-01 -5.498597e-01 -5.489640e-01 -5.479666e-01 -5.468658e-01 -5.456650e-01 -5.443626e-01 -5.429621e-01 -5.414620e-01 -5.398662e-01 -5.381732e-01 -5.363869e-01 -5.345063e-01 -5.325351e-01 -5.304726e-01 -5.283226e-01 -5.260844e-01 -5.237622e-01 -5.213553e-01 -5.188678e-01 -5.162995e-01 -5.136543e-01 -5.109323e-01 -5.081374e-01 -5.052697e-01 -5.023334e-01 -4.993286e-01 -4.962596e-01 -4.931266e-01 -4.899338e-01 -4.866817e-01 -4.833745e-01 -4.800127e-01 -4.766005e-01 -4.731387e-01 -4.696313e-01 -4.660792e-01 -4.624865e-01 -4.588542e-01 -4.551862e-01 -4.514837e-01 -4.477505e-01 -4.439880e-01 -4.401998e-01 -4.363875e-01 -4.325545e-01 -4.287026e-01 -4.248350e-01 -4.209536e-01 -4.170616e-01 -4.131609e-01 -4.092545e-01 -4.053444e-01 -4.014336e-01 -3.975241e-01 -3.936186e-01 -3.897194e-01 -3.858289e-01 -3.819495e-01 -3.780835e-01 -3.742332e-01 -3.704009e-01 -3.665889e-01 -3.627993e-01 -3.590345e-01 -3.552962e-01 -3.515872e-01 -3.479088e-01 -3.442637e-01 -3.406534e-01 -3.370804e-01 -3.335459e-01 -3.300526e-01 -3.266015e-01 -3.231954e-01 -3.198349e-01 -3.165229e-01 -3.132599e-01 -3.100488e-01 -3.068898e-01 -3.037859e-01 -3.007371e-01 -2.977464e-01 -2.948137e-01 -2.919420e-01 -2.891308e-01 -2.863833e-01 -2.836989e-01 -2.810806e-01 -2.785277e-01 -2.760433e-01 -2.736265e-01 -2.712804e-01 -2.690038e-01 -2.667999e-01 -2.646673e-01 -2.626093e-01 -2.606244e-01 -2.587157e-01 -2.568815e-01 -2.551252e-01 -2.534448e-01 -2.518435e-01 -2.503196e-01 -2.488759e-01 -2.475107e-01 -2.462268e-01 -2.450224e-01 -2.439003e-01 -2.428584e-01 -2.418998e-01 -2.410221e-01 -2.402282e-01 -2.395159e-01 -2.388881e-01 -2.383423e-01 -2.378813e-01 -2.375027e-01 -2.372093e-01 -2.369985e-01 -2.368731e-01 
-2.368303e-01 -2.368731e-01 -2.369986e-01 -2.372097e-01 -2.375035e-01 -2.378826e-01 -2.383442e-01 -2.388907e-01 -2.395194e-01 -2.402327e-01 -2.410275e-01 -2.419064e-01 -2.428663e-01 -2.439095e-01 -2.450330e-01 -2.462390e-01 -2.475245e-01 -2.488914e-01 -2.503369e-01 -2.518628e-01 -2.534660e-01 -2.551484e-01 -2.569069e-01 -2.587432e-01 -2.606541e-01 -2.626414e-01 -2.647017e-01 -2.668366e-01 -2.690430e-01 -2.713221e-01 -2.736707e-01 -2.760900e-01 -2.785770e-01 -2.811324e-01 -2.837532e-01 -2.864402e-01 -2.891902e-01 -2.920039e-01 -2.948782e-01 -2.978134e-01 -3.008065e-01 -3.038576e-01 -3.069638e-01 -3.101251e-01 -3.133384e-01 -3.166035e-01 -3.199175e-01 -3.232799e-01 -3.266878e-01 -3.301406e-01 -3.336354e-01 -3.371713e-01 -3.407456e-01 -3.443571e-01 -3.480031e-01 -3.516823e-01 -3.553921e-01 -3.591308e-01 -3.628959e-01 -3.666856e-01 -3.704975e-01 -3.743295e-01 -3.781792e-01 -3.820445e-01 -3.859229e-01 -3.898122e-01 -3.937100e-01 -3.976138e-01 -4.015215e-01 -4.054302e-01 -4.093380e-01 -4.132418e-01 -4.171397e-01 -4.210286e-01 -4.249067e-01 -4.287707e-01 -4.326189e-01 -4.364479e-01 -4.402560e-01 -4.440397e-01 -4.477976e-01 -4.515259e-01 -4.552234e-01 -4.588862e-01 -4.625131e-01 -4.661002e-01 -4.696465e-01 -4.731480e-01 -4.766038e-01 -4.800098e-01 -4.833653e-01 -4.866662e-01 -4.899118e-01 -4.930980e-01 -4.962244e-01 -4.992867e-01 -5.022848e-01 -5.052144e-01 -5.080753e-01 -5.108635e-01 -5.135789e-01 -5.162174e-01 -5.187792e-01 -5.212602e-01 -5.236607e-01 -5.259767e-01 -5.282087e-01 -5.303527e-01 -5.324094e-01 -5.343749e-01 -5.362501e-01 -5.380311e-01 -5.397190e-01 -5.413101e-01 -5.428055e-01 -5.442017e-01 -5.455001e-01 -5.466972e-01 -5.477945e-01 -5.487887e-01 -5.496815e-01 -5.504697e-01 -5.511553e-01 -5.517352e-01 -5.522113e-01 -5.525810e-01 -5.528463e-01 -5.530045e-01 -5.530581e-01 -5.530045e-01 -5.528463e-01 -5.525810e-01 -5.522113e-01 -5.517352e-01 -5.511553e-01 -5.504697e-01 -5.496815e-01 -5.487887e-01 -5.477945e-01 -5.466972e-01 -5.455001e-01 -5.442017e-01 -5.428055e-01 -5.413101e-01 -5.397190e-01 -5.380311e-01 -5.362501e-01 -5.343749e-01 -5.324094e-01 -5.303527e-01 -5.282087e-01 -5.259767e-01 -5.236607e-01 -5.212602e-01 -5.187792e-01 -5.162174e-01 -5.135789e-01 -5.108635e-01 -5.080753e-01 -5.052144e-01 -5.022848e-01 -4.992867e-01 -4.962244e-01 -4.930980e-01 -4.899118e-01 -4.866662e-01 -4.833653e-01 -4.800098e-01 -4.766038e-01 -4.731480e-01 -4.696465e-01 -4.661002e-01 -4.625131e-01 -4.588862e-01 -4.552234e-01 -4.515259e-01 -4.477976e-01 -4.440397e-01 -4.402560e-01 -4.364479e-01 -4.326189e-01 -4.287707e-01 -4.249067e-01 -4.210286e-01 -4.171397e-01 -4.132418e-01 -4.093380e-01 -4.054302e-01 -4.015215e-01 -3.976138e-01 -3.937100e-01 -3.898122e-01 -3.859229e-01 -3.820445e-01 -3.781792e-01 -3.743295e-01 -3.704975e-01 -3.666856e-01 -3.628959e-01 -3.591308e-01 -3.553921e-01 -3.516823e-01 -3.480031e-01 -3.443571e-01 -3.407456e-01 -3.371713e-01 -3.336354e-01 -3.301406e-01 -3.266878e-01 -3.232799e-01 -3.199175e-01 -3.166035e-01 -3.133384e-01 -3.101251e-01 -3.069638e-01 -3.038576e-01 -3.008065e-01 -2.978134e-01 -2.948782e-01 -2.920039e-01 -2.891902e-01 -2.864402e-01 -2.837532e-01 -2.811324e-01 -2.785770e-01 -2.760900e-01 -2.736707e-01 -2.713221e-01 -2.690430e-01 -2.668366e-01 -2.647017e-01 -2.626414e-01 -2.606541e-01 -2.587432e-01 -2.569069e-01 -2.551484e-01 -2.534660e-01 -2.518628e-01 -2.503369e-01 -2.488914e-01 -2.475245e-01 -2.462390e-01 -2.450330e-01 -2.439095e-01 -2.428663e-01 -2.419064e-01 -2.410275e-01 -2.402327e-01 -2.395194e-01 -2.388907e-01 -2.383442e-01 -2.378826e-01 -2.375035e-01 -2.372097e-01 -2.369986e-01 -2.368731e-01 