# vtk DataFile Version 2.0
Comment goes here
ASCII

DATASET STRUCTURED_POINTS
FIELD FieldData 1
TIME 1 1 double
0.04000000
DIMENSIONS    256   256   1

ORIGIN    0.000   0.000   0.000
SPACING   0.0039062 0.0039062   1.000

POINT_DATA   65536
SCALARS uY double
LOOKUP_TABLE default

-2.942729e-01 -2.943253e-01 -2.944780e-01 -2.947354e-01 -2.950929e-01 -2.955549e-01 -2.961166e-01 -2.967826e-01 -2.975478e-01 -2.984166e-01 -2.993842e-01 -3.004546e-01 -3.016230e-01 -3.028934e-01 -3.042609e-01 -3.057293e-01 -3.072937e-01 -3.089578e-01 -3.107168e-01 -3.125740e-01 -3.145247e-01 -3.165721e-01 -3.187113e-01 -3.209455e-01 -3.232698e-01 -3.256872e-01 -3.281928e-01 -3.307893e-01 -3.334718e-01 -3.362430e-01 -3.390979e-01 -3.420390e-01 -3.450613e-01 -3.481670e-01 -3.513513e-01 -3.546161e-01 -3.579566e-01 -3.613744e-01 -3.648649e-01 -3.684294e-01 -3.720633e-01 -3.757676e-01 -3.795378e-01 -3.833747e-01 -3.872738e-01 -3.912356e-01 -3.952559e-01 -3.993346e-01 -4.034676e-01 -4.076548e-01 -4.118920e-01 -4.161787e-01 -4.205111e-01 -4.248882e-01 -4.293062e-01 -4.337641e-01 -4.382581e-01 -4.427867e-01 -4.473465e-01 -4.519357e-01 -4.565508e-01 -4.611898e-01 -4.658495e-01 -4.705274e-01 -4.752206e-01 -4.799263e-01 -4.846416e-01 -4.893636e-01 -4.940895e-01 -4.988161e-01 -5.035409e-01 -5.082603e-01 -5.129720e-01 -5.176722e-01 -5.223588e-01 -5.270276e-01 -5.316769e-01 -5.363021e-01 -5.409019e-01 -5.454714e-01 -5.500094e-01 -5.545109e-01 -5.589748e-01 -5.633961e-01 -5.677739e-01 -5.721029e-01 -5.763825e-01 -5.806072e-01 -5.847767e-01 -5.888853e-01 -5.929329e-01 -5.969139e-01 -6.008282e-01 -6.046701e-01 -6.084399e-01 -6.121317e-01 -6.157461e-01 -6.192772e-01 -6.227258e-01 -6.260858e-01 -6.293585e-01 -6.325376e-01 -6.356246e-01 -6.386134e-01 -6.415057e-01 -6.442953e-01 -6.469842e-01 -6.495663e-01 -6.520437e-01 -6.544105e-01 -6.566691e-01 -6.588134e-01 -6.608462e-01 -6.627617e-01 -6.645626e-01 -6.662432e-01 -6.678067e-01 -6.692475e-01 -6.705688e-01 -6.717653e-01 -6.728404e-01 -6.737889e-01 -6.746145e-01 -6.753120e-01 -6.758856e-01 -6.763301e-01 -6.766498e-01 -6.768399e-01 -6.769048e-01 -6.768399e-01 -6.766498e-01 -6.763301e-01 -6.758856e-01 -6.753120e-01 -6.746145e-01 -6.737889e-01 -6.728404e-01 -6.717653e-01 -6.705688e-01 -6.692475e-01 -6.678067e-01 -6.662432e-01 -6.645626e-01 -6.627617e-01 -6.608462e-01 -6.588134e-01 -6.566691e-01 -6.544105e-01 -6.520437e-01 -6.495663e-01 -6.469842e-01 -6.442953e-01 -6.415057e-01 -6.386134e-01 -6.356246e-01 -6.325376e-01 -6.293585e-01 -6.260858e-01 -6.227258e-01 -6.192772e-01 -6.157461e-01 -6.121317e-01 -6.084399e-01 -6.046701e-01 -6.008282e-01 -5.969139e-01 -5.929329e-01 -5.888853e-01 -5.847767e-01 -5.806072e-01 -5.763825e-01 -5.721029e-01 -5.677739e-01 -5.633961e-01 -5.589748e-01 -5.545109e-01 -5.500094e-01 -5.454714e-01 -5.409019e-01 -5.363021e-01 -5.316769e-01 -5.270276e-01 -5.223588e-01 -5.176722e-01 -5.129720e-01 -5.082603e-01 -5.035409e-01 -4.988161e-01 -4.940895e-01 -4.893636e-01 -4.846416e-01 -4.799263e-01 -4.752206e-01 -4.705274e-01 -4.658495e-01 -4.611898e-01 -4.565508e-01 -4.519357e-01 -4.473465e-01 -4.427867e-01 -4.382581e-01 -4.337641e-01 -4.293062e-01 -4.248882e-01 -4.205111e-01 -4.161787e-01 -4.118920e-01 -4.076548e-01 -4.034676e-01 -3.993346e-01 -3.952559e-01 -3.912356e-01 -3.872738e-01 -3.833747e-01 -3.795378e-01 -3.757676e-01 -3.720633e-01 -3.684294e-01 -3.648649e-01 -3.613744e-01 -3.579566e-01 -3.546161e-01 -3.513513e-01 -3.481670e-01 -3.450613e-01 -3.420390e-01 -3.390979e-01 -3.362430e-01 -3.334718e-01 -3.307893e-01 -3.281928e-01 -3.256872e-01 -3.232698e-01 -3.209455e-01 -3.187113e-01 -3.165721e-01 -3.145247e-01 -3.125740e-01 -3.107168e-01 -3.089578e-01 -3.072937e-01 -3.057293e-01 -3.042609e-01 -3.028934e-01 -3.016230e-01 -3.004546e-01 -2.993842e-01 -2.984166e-01 -2.975478e-01 -2.967826e-01 -2.961166e-01 -2.955549e-01 -2.950929e-01 -2.947354e-01 -2.944780e-01 -2.943253e-01 
-2.946780e-01 -2.947304e-01 -2.948829e-01 -2.951402e-01 -2.954975e-01 -2.959593e-01 -2.965207e-01 -2.971863e-01 -2.979511e-01 -2.988195e-01 -2.997865e-01 -3.008563e-01 -3.020240e-01 -3.032936e-01 -3.046603e-01 -3.061278e-01 -3.076912e-01 -3.093542e-01 -3.111119e-01 -3.129679e-01 -3.149171e-01 -3.169630e-01 -3.191006e-01 -3.213331e-01 -3.236555e-01 -3.260709e-01 -3.285743e-01 -3.311685e-01 -3.338485e-01 -3.366171e-01 -3.394692e-01 -3.424073e-01 -3.454264e-01 -3.485288e-01 -3.517096e-01 -3.549706e-01 -3.583071e-01 -3.617207e-01 -3.652068e-01 -3.687667e-01 -3.723956e-01 -3.760948e-01 -3.798596e-01 -3.836908e-01 -3.875841e-01 -3.915397e-01 -3.955534e-01 -3.996254e-01 -4.037514e-01 -4.079312e-01 -4.121607e-01 -4.164395e-01 -4.207636e-01 -4.251321e-01 -4.295413e-01 -4.339899e-01 -4.384744e-01 -4.429932e-01 -4.475428e-01 -4.521215e-01 -4.567258e-01 -4.613536e-01 -4.660019e-01 -4.706680e-01 -4.753491e-01 -4.800424e-01 -4.847451e-01 -4.894541e-01 -4.941667e-01 -4.988798e-01 -5.035907e-01 -5.082960e-01 -5.129933e-01 -5.176789e-01 -5.223506e-01 -5.270043e-01 -5.316383e-01 -5.362480e-01 -5.408321e-01 -5.453857e-01 -5.499076e-01 -5.543930e-01 -5.588406e-01 -5.632455e-01 -5.676068e-01 -5.719192e-01 -5.761822e-01 -5.803903e-01 -5.845430e-01 -5.886350e-01 -5.926660e-01 -5.966303e-01 -6.005281e-01 -6.043536e-01 -6.081072e-01 -6.117828e-01 -6.153813e-01 -6.188966e-01 -6.223296e-01 -6.256743e-01 -6.289318e-01 -6.320961e-01 -6.351686e-01 -6.381433e-01 -6.410217e-01 -6.437979e-01 -6.464737e-01 -6.490431e-01 -6.515084e-01 -6.538634e-01 -6.561107e-01 -6.582443e-01 -6.602668e-01 -6.621725e-01 -6.639642e-01 -6.656362e-01 -6.671916e-01 -6.686249e-01 -6.699394e-01 -6.711296e-01 -6.721991e-01 -6.731426e-01 -6.739639e-01 -6.746577e-01 -6.752283e-01 -6.756704e-01 -6.759885e-01 -6.761775e-01 -6.762421e-01 -6.761775e-01 -6.759885e-01 -6.756704e-01 -6.752283e-01 -6.746577e-01 -6.739639e-01 -6.731426e-01 -6.721991e-01 -6.711296e-01 -6.699394e-01 -6.686249e-01 -6.671916e-01 -6.656362e-01 -6.639642e-01 -6.621725e-01 -6.602668e-01 -6.582443e-01 -6.561107e-01 -6.538634e-01 -6.515084e-01 -6.490431e-01 -6.464737e-01 -6.437979e-01 -6.410217e-01 -6.381433e-01 -6.351686e-01 -6.320961e-01 -6.289318e-01 -6.256743e-01 -6.223296e-01 -6.188966e-01 -6.153813e-01 -6.117828e-01 -6.081072e-01 -6.043536e-01 -6.005281e-01 -5.966303e-01 -5.926660e-01 -5.886350e-01 -5.845430e-01 -5.803903e-01 -5.761822e-01 -5.719192e-01 -5.676068e-01 -5.632455e-01 -5.588406e-01 -5.543930e-01 -5.499076e-01 -5.453857e-01 -5.408321e-01 -5.362480e-01 -5.316383e-01 -5.270043e-01 -5.223506e-01 -5.176789e-01 -5.129933e-01 -5.082960e-01 -5.035907e-01 -4.988798e-01 -4.941667e-01 -4.894541e-01 -4.847451e-01 -4.800424e-01 -4.753491e-01 -4.706680e-01 -4.660019e-01 -4.613536e-01 -4.567258e-01 -4.521215e-01 -4.475428e-01 -4.429932e-01 -4.384744e-01 -4.339899e-01 -4.295413e-01 -4.251321e-01 -4.207636e-01 -4.164395e-01 -4.121607e-01 -4.079312e-01 -4.037514e-01 -3.996254e-01 -3.955534e-01 -3.915397e-01 -3.875841e-01 -3.836908e-01 -3.798596e-01 -3.760948e-01 -3.723956e-01 -3.687667e-01 -3.652068e-01 -3.617207e-01 -3.583071e-01 -3.549706e-01 -3.517096e-01 -3.485288e-01 -3.454264e-01 -3.424073e-01 -3.394692e-01 -3.366171e-01 -3.338485e-01 -3.311685e-01 -3.285743e-01 -3.260709e-01 -3.236555e-01 -3.213331e-01 -3.191006e-01 -3.169630e-01 -3.149171e-01 -3.129679e-01 -3.111119e-01 -3.093542e-01 -3.076912e-01 -3.061278e-01 -3.046603e-01 -3.032936e-01 -3.020240e-01 -3.008563e-01 -2.997865e-01 -2.988195e-01 -2.979511e-01 -2.971863e-01 -2.965207e-01 -2.959593e-01 -2.954975e-01 -2.951402e-01 -2.948829e-01 -2.947304e-01 
-2.949808e-01 -2.950332e-01 -2.951858e-01 -2.954430e-01 -2.958002e-01 -2.962619e-01 -2.968233e-01 -2.974888e-01 -2.982535e-01 -2.991217e-01 -3.000885e-01 -3.011581e-01 -3.023256e-01 -3.035950e-01 -3.049613e-01 -3.064284e-01 -3.079915e-01 -3.096541e-01 -3.114113e-01 -3.132667e-01 -3.152153e-01 -3.172605e-01 -3.193974e-01 -3.216290e-01 -3.239505e-01 -3.263649e-01 -3.288672e-01 -3.314602e-01 -3.341390e-01 -3.369061e-01 -3.397567e-01 -3.426931e-01 -3.457104e-01 -3.488108e-01 -3.519895e-01 -3.552483e-01 -3.585824e-01 -3.619935e-01 -3.654768e-01 -3.690337e-01 -3.726595e-01 -3.763553e-01 -3.801166e-01 -3.839441e-01 -3.878334e-01 -3.917848e-01 -3.957941e-01 -3.998614e-01 -4.039825e-01 -4.081572e-01 -4.123814e-01 -4.166545e-01 -4.209727e-01 -4.253350e-01 -4.297377e-01 -4.341797e-01 -4.386571e-01 -4.431687e-01 -4.477107e-01 -4.522815e-01 -4.568777e-01 -4.614972e-01 -4.661367e-01 -4.707939e-01 -4.754657e-01 -4.801495e-01 -4.848423e-01 -4.895412e-01 -4.942435e-01 -4.989459e-01 -5.036460e-01 -5.083401e-01 -5.130261e-01 -5.177000e-01 -5.223599e-01 -5.270015e-01 -5.316232e-01 -5.362205e-01 -5.407918e-01 -5.453326e-01 -5.498415e-01 -5.543137e-01 -5.587481e-01 -5.631395e-01 -5.674873e-01 -5.717861e-01 -5.760354e-01 -5.802297e-01 -5.843687e-01 -5.884469e-01 -5.924641e-01 -5.964146e-01 -6.002987e-01 -6.041105e-01 -6.078504e-01 -6.115125e-01 -6.150976e-01 -6.185996e-01 -6.220195e-01 -6.253513e-01 -6.285961e-01 -6.317479e-01 -6.348082e-01 -6.377708e-01 -6.406375e-01 -6.434023e-01 -6.460670e-01 -6.486257e-01 -6.510805e-01 -6.534256e-01 -6.556632e-01 -6.577876e-01 -6.598014e-01 -6.616987e-01 -6.634826e-01 -6.651472e-01 -6.666958e-01 -6.681227e-01 -6.694313e-01 -6.706161e-01 -6.716808e-01 -6.726200e-01 -6.734376e-01 -6.741283e-01 -6.746962e-01 -6.751363e-01 -6.754529e-01 -6.756411e-01 -6.757054e-01 -6.756411e-01 -6.754529e-01 -6.751363e-01 -6.746962e-01 -6.741283e-01 -6.734376e-01 -6.726200e-01 -6.716808e-01 -6.706161e-01 -6.694313e-01 -6.681227e-01 -6.666958e-01 -6.651472e-01 -6.634826e-01 -6.616987e-01 -6.598014e-01 -6.577876e-01 -6.556632e-01 -6.534256e-01 -6.510805e-01 -6.486257e-01 -6.460670e-01 -6.434023e-01 -6.406375e-01 -6.377708e-01 -6.348082e-01 -6.317479e-01 -6.285961e-01 -6.253513e-01 -6.220195e-01 -6.185996e-01 -6.150976e-01 -6.115125e-01 -6.078504e-01 -6.041105e-01 -6.002987e-01 -5.964146e-01 -5.924641e-01 -5.884469e-01 -5.843687e-01 -5.802297e-01 -5.760354e-01 -5.717861e-01 -5.674873e-01 -5.631395e-01 -5.587481e-01 -5.543137e-01 -5.498415e-01 -5.453326e-01 -5.407918e-01 -5.362205e-01 -5.316232e-01 -5.270015e-01 -5.223599e-01 -5.177000e-01 -5.130261e-01 -5.083401e-01 -5.036460e-01 -4.989459e-01 -4.942435e-01 -4.895412e-01 -4.848423e-01 -4.801495e-01 -4.754657e-01 -4.707939e-01 -4.661367e-01 -4.614972e-01 -4.568777e-01 -4.522815e-01 -4.477107e-01 -4.431687e-01 -4.386571e-01 -4.341797e-01 -4.297377e-01 -4.253350e-01 -4.209727e-01 -4.166545e-01 -4.123814e-01 -4.081572e-01 -4.039825e-01 -3.998614e-01 -3.957941e-01 -3.917848e-01 -3.878334e-01 -3.839441e-01 -3.801166e-01 -3.763553e-01 -3.726595e-01 -3.690337e-01 -3.654768e-01 -3.619935e-01 -3.585824e-01 -3.552483e-01 -3.519895e-01 -3.488108e-01 -3.457104e-01 -3.426931e-01 -3.397567e-01 -3.369061e-01 -3.341390e-01 -3.314602e-01 -3.288672e-01 -3.263649e-01 -3.239505e-01 -3.216290e-01 -3.193974e-01 -3.172605e-01 -3.152153e-01 -3.132667e-01 -3.114113e-01 -3.096541e-01 -3.079915e-01 -3.064284e-01 -3.049613e-01 -3.035950e-01 -3.023256e-01 -3.011581e-01 -3.000885e-01 -2.991217e-01 -2.982535e-01 -2.974888e-01 -2.968233e-01 -2.962619e-01 -2.958002e-01 -2.954430e-01 -2.951858e-01 -2.950332e-01 
-2.951810e-01 -2.952334e-01 -2.953860e-01 -2.956433e-01 -2.960006e-01 -2.964624e-01 -2.970239e-01 -2.976895e-01 -2.984544e-01 -2.993228e-01 -3.002898e-01 -3.013596e-01 -3.025273e-01 -3.037969e-01 -3.051635e-01 -3.066309e-01 -3.081941e-01 -3.098569e-01 -3.116144e-01 -3.134700e-01 -3.154188e-01 -3.174642e-01 -3.196011e-01 -3.218329e-01 -3.241545e-01 -3.265689e-01 -3.290711e-01 -3.316640e-01 -3.343426e-01 -3.371095e-01 -3.399599e-01 -3.428959e-01 -3.459128e-01 -3.490127e-01 -3.521907e-01 -3.554488e-01 -3.587821e-01 -3.621921e-01 -3.656744e-01 -3.692300e-01 -3.728545e-01 -3.765489e-01 -3.803085e-01 -3.841342e-01 -3.880214e-01 -3.919707e-01 -3.959777e-01 -4.000425e-01 -4.041609e-01 -4.083326e-01 -4.125537e-01 -4.168235e-01 -4.211381e-01 -4.254967e-01 -4.298954e-01 -4.343331e-01 -4.388061e-01 -4.433129e-01 -4.478501e-01 -4.524157e-01 -4.570065e-01 -4.616202e-01 -4.662538e-01 -4.709048e-01 -4.755703e-01 -4.802473e-01 -4.849333e-01 -4.896249e-01 -4.943199e-01 -4.990146e-01 -5.037068e-01 -5.083927e-01 -5.130703e-01 -5.177356e-01 -5.223867e-01 -5.270193e-01 -5.316317e-01 -5.362196e-01 -5.407813e-01 -5.453123e-01 -5.498112e-01 -5.542733e-01 -5.586974e-01 -5.630784e-01 -5.674157e-01 -5.717038e-01 -5.759424e-01 -5.801259e-01 -5.842540e-01 -5.883212e-01 -5.923275e-01 -5.962670e-01 -6.001401e-01 -6.039410e-01 -6.076699e-01 -6.113212e-01 -6.148955e-01 -6.183868e-01 -6.217961e-01 -6.251174e-01 -6.283518e-01 -6.314935e-01 -6.345437e-01 -6.374966e-01 -6.403537e-01 -6.431091e-01 -6.457648e-01 -6.483146e-01 -6.507609e-01 -6.530977e-01 -6.553274e-01 -6.574442e-01 -6.594507e-01 -6.613412e-01 -6.631186e-01 -6.647771e-01 -6.663199e-01 -6.677415e-01 -6.690452e-01 -6.702256e-01 -6.712863e-01 -6.722220e-01 -6.730364e-01 -6.737245e-01 -6.742903e-01 -6.747288e-01 -6.750442e-01 -6.752316e-01 -6.752957e-01 -6.752316e-01 -6.750442e-01 -6.747288e-01 -6.742903e-01 -6.737245e-01 -6.730364e-01 -6.722220e-01 -6.712863e-01 -6.702256e-01 -6.690452e-01 -6.677415e-01 -6.663199e-01 -6.647771e-01 -6.631186e-01 -6.613412e-01 -6.594507e-01 -6.574442e-01 -6.553274e-01 -6.530977e-01 -6.507609e-01 -6.483146e-01 -6.457648e-01 -6.431091e-01 -6.403537e-01 -6.374966e-01 -6.345437e-01 -6.314935e-01 -6.283518e-01 -6.251174e-01 -6.217961e-01 -6.183868e-01 -6.148955e-01 -6.113212e-01 -6.076699e-01 -6.039410e-01 -6.001401e-01 -5.962670e-01 -5.923275e-01 -5.883212e-01 -5.842540e-01 -5.801259e-01 -5.759424e-01 -5.717038e-01 -5.674157e-01 -5.630784e-01 -5.586974e-01 -5.542733e-01 -5.498112e-01 -5.453123e-01 -5.407813e-01 -5.362196e-01 -5.316317e-01 -5.270193e-01 -5.223867e-01 -5.177356e-01 -5.130703e-01 -5.083927e-01 -5.037068e-01 -4.990146e-01 -4.943199e-01 -4.896249e-01 -4.849333e-01 -4.802473e-01 -4.755703e-01 -4.709048e-01 -4.662538e-01 -4.616202e-01 -4.570065e-01 -4.524157e-01 -4.478501e-01 -4.433129e-01 -4.388061e-01 -4.343331e-01 -4.298954e-01 -4.254967e-01 -4.211381e-01 -4.168235e-01 -4.125537e-01 -4.083326e-01 -4.041609e-01 -4.000425e-01 -3.959777e-01 -3.919707e-01 -3.880214e-01 -3.841342e-01 -3.803085e-01 -3.765489e-01 -3.728545e-01 -3.692300e-01 -3.656744e-01 -3.621921e-01 -3.587821e-01 -3.554488e-01 -3.521907e-01 -3.490127e-01 -3.459128e-01 -3.428959e-01 -3.399599e-01 -3.371095e-01 -3.343426e-01 -3.316640e-01 -3.290711e-01 -3.265689e-01 -3.241545e-01 -3.218329e-01 -3.196011e-01 -3.174642e-01 -3.154188e-01 -3.134700e-01 -3.116144e-01 -3.098569e-01 -3.081941e-01 -3.066309e-01 -3.051635e-01 -3.037969e-01 -3.025273e-01 -3.013596e-01 -3.002898e-01 -2.993228e-01 -2.984544e-01 -2.976895e-01 -2.970239e-01 -2.964624e-01 -2.960006e-01 -2.956433e-01 -2.953860e-01 -2.952334e-01 
-2.952789e-01 -2.953314e-01 -2.954840e-01 -2.957415e-01 -2.960990e-01 -2.965611e-01 -2.971230e-01 -2.977890e-01 -2.985543e-01 -2.994232e-01 -3.003908e-01 -3.014612e-01 -3.026296e-01 -3.038999e-01 -3.052673e-01 -3.067355e-01 -3.082995e-01 -3.099633e-01 -3.117216e-01 -3.135782e-01 -3.155280e-01 -3.175744e-01 -3.197124e-01 -3.219452e-01 -3.242678e-01 -3.266832e-01 -3.291865e-01 -3.317805e-01 -3.344601e-01 -3.372281e-01 -3.400794e-01 -3.430164e-01 -3.460342e-01 -3.491350e-01 -3.523139e-01 -3.555727e-01 -3.589067e-01 -3.623175e-01 -3.658003e-01 -3.693564e-01 -3.729814e-01 -3.766760e-01 -3.804359e-01 -3.842616e-01 -3.881489e-01 -3.920981e-01 -3.961048e-01 -4.001692e-01 -4.042870e-01 -4.084581e-01 -4.126783e-01 -4.169471e-01 -4.212605e-01 -4.256177e-01 -4.300149e-01 -4.344509e-01 -4.389220e-01 -4.434267e-01 -4.479615e-01 -4.525246e-01 -4.571126e-01 -4.617234e-01 -4.663539e-01 -4.710015e-01 -4.756633e-01 -4.803366e-01 -4.850184e-01 -4.897058e-01 -4.943962e-01 -4.990862e-01 -5.037735e-01 -5.084543e-01 -5.131265e-01 -5.177862e-01 -5.224314e-01 -5.270580e-01 -5.316642e-01 -5.362456e-01 -5.408007e-01 -5.453249e-01 -5.498169e-01 -5.542718e-01 -5.586886e-01 -5.630622e-01 -5.673919e-01 -5.716723e-01 -5.759030e-01 -5.800786e-01 -5.841987e-01 -5.882578e-01 -5.922559e-01 -5.961873e-01 -6.000521e-01 -6.038446e-01 -6.075653e-01 -6.112084e-01 -6.147744e-01 -6.182575e-01 -6.216586e-01 -6.249718e-01 -6.281982e-01 -6.313320e-01 -6.343744e-01 -6.373196e-01 -6.401692e-01 -6.429173e-01 -6.455658e-01 -6.481087e-01 -6.505482e-01 -6.528785e-01 -6.551019e-01 -6.572127e-01 -6.592134e-01 -6.610984e-01 -6.628706e-01 -6.645242e-01 -6.660625e-01 -6.674798e-01 -6.687797e-01 -6.699565e-01 -6.710140e-01 -6.719468e-01 -6.727587e-01 -6.734447e-01 -6.740088e-01 -6.744459e-01 -6.747603e-01 -6.749472e-01 -6.750110e-01 -6.749472e-01 -6.747603e-01 -6.744459e-01 -6.740088e-01 -6.734447e-01 -6.727587e-01 -6.719468e-01 -6.710140e-01 -6.699565e-01 -6.687797e-01 -6.674798e-01 -6.660625e-01 -6.645242e-01 -6.628706e-01 -6.610984e-01 -6.592134e-01 -6.572127e-01 -6.551019e-01 -6.528785e-01 -6.505482e-01 -6.481087e-01 -6.455658e-01 -6.429173e-01 -6.401692e-01 -6.373196e-01 -6.343744e-01 -6.313320e-01 -6.281982e-01 -6.249718e-01 -6.216586e-01 -6.182575e-01 -6.147744e-01 -6.112084e-01 -6.075653e-01 -6.038446e-01 -6.000521e-01 -5.961873e-01 -5.922559e-01 -5.882578e-01 -5.841987e-01 -5.800786e-01 -5.759030e-01 -5.716723e-01 -5.673919e-01 -5.630622e-01 -5.586886e-01 -5.542718e-01 -5.498169e-01 -5.453249e-01 -5.408007e-01 -5.362456e-01 -5.316642e-01 -5.270580e-01 -5.224314e-01 -5.177862e-01 -5.131265e-01 -5.084543e-01 -5.037735e-01 -4.990862e-01 -4.943962e-01 -4.897058e-01 -4.850184e-01 -4.803366e-01 -4.756633e-01 -4.710015e-01 -4.663539e-01 -4.617234e-01 -4.571126e-01 -4.525246e-01 -4.479615e-01 -4.434267e-01 -4.389220e-01 -4.344509e-01 -4.300149e-01 -4.256177e-01 -4.212605e-01 -4.169471e-01 -4.126783e-01 -4.084581e-01 -4.042870e-01 -4.001692e-01 -3.961048e-01 -3.920981e-01 -3.881489e-01 -3.842616e-01 -3.804359e-01 -3.766760e-01 -3.729814e-01 -3.693564e-01 -3.658003e-01 -3.623175e-01 -3.589067e-01 -3.555727e-01 -3.523139e-01 -3.491350e-01 -3.460342e-01 -3.430164e-01 -3.400794e-01 -3.372281e-01 -3.344601e-01 -3.317805e-01 -3.291865e-01 -3.266832e-01 -3.242678e-01 -3.219452e-01 -3.197124e-01 -3.175744e-01 -3.155280e-01 -3.135782e-01 -3.117216e-01 -3.099633e-01 -3.082995e-01 -3.067355e-01 -3.052673e-01 -3.038999e-01 -3.026296e-01 -3.014612e-01 -3.003908e-01 -2.994232e-01 -2.985543e-01 -2.977890e-01 -2.971230e-01 -2.965611e-01 -2.960990e-01 -2.957415e-01 -2.954840e-01 -2.953314e-01 
-2.952741e-01 -2.953266e-01 -2.954794e-01 -2.957371e-01 -2.960950e-01 -2.965576e-01 -2.971200e-01 -2.977866e-01 -2.985527e-01 -2.994225e-01 -3.003910e-01 -3.014625e-01 -3.026320e-01 -3.039036e-01 -3.052722e-01 -3.067418e-01 -3.083074e-01 -3.099727e-01 -3.117327e-01 -3.135910e-01 -3.155425e-01 -3.175908e-01 -3.197307e-01 -3.219654e-01 -3.242901e-01 -3.267076e-01 -3.292130e-01 -3.318092e-01 -3.344910e-01 -3.372612e-01 -3.401148e-01 -3.430541e-01 -3.460742e-01 -3.491773e-01 -3.523585e-01 -3.556197e-01 -3.589560e-01 -3.623690e-01 -3.658541e-01 -3.694125e-01 -3.730396e-01 -3.767364e-01 -3.804984e-01 -3.843262e-01 -3.882155e-01 -3.921665e-01 -3.961751e-01 -4.002412e-01 -4.043607e-01 -4.085333e-01 -4.127550e-01 -4.170251e-01 -4.213397e-01 -4.256980e-01 -4.300961e-01 -4.345329e-01 -4.390046e-01 -4.435098e-01 -4.480449e-01 -4.526081e-01 -4.571961e-01 -4.618067e-01 -4.664368e-01 -4.710838e-01 -4.757449e-01 -4.804171e-01 -4.850978e-01 -4.897838e-01 -4.944727e-01 -4.991609e-01 -5.038461e-01 -5.085247e-01 -5.131945e-01 -5.178516e-01 -5.224941e-01 -5.271176e-01 -5.317207e-01 -5.362987e-01 -5.408502e-01 -5.453707e-01 -5.498587e-01 -5.543094e-01 -5.587219e-01 -5.630911e-01 -5.674161e-01 -5.716918e-01 -5.759177e-01 -5.800882e-01 -5.842031e-01 -5.882570e-01 -5.922497e-01 -5.961756e-01 -6.000350e-01 -6.038219e-01 -6.075370e-01 -6.111743e-01 -6.147346e-01 -6.182120e-01 -6.216074e-01 -6.249149e-01 -6.281357e-01 -6.312639e-01 -6.343007e-01 -6.372404e-01 -6.400847e-01 -6.428274e-01 -6.454707e-01 -6.480085e-01 -6.504431e-01 -6.527686e-01 -6.549874e-01 -6.570937e-01 -6.590902e-01 -6.609711e-01 -6.627394e-01 -6.643894e-01 -6.659242e-01 -6.673384e-01 -6.686353e-01 -6.698095e-01 -6.708645e-01 -6.717952e-01 -6.726053e-01 -6.732897e-01 -6.738524e-01 -6.742885e-01 -6.746022e-01 -6.747886e-01 -6.748523e-01 -6.747886e-01 -6.746022e-01 -6.742885e-01 -6.738524e-01 -6.732897e-01 -6.726053e-01 -6.717952e-01 -6.708645e-01 -6.698095e-01 -6.686353e-01 -6.673384e-01 -6.659242e-01 -6.643894e-01 -6.627394e-01 -6.609711e-01 -6.590902e-01 -6.570937e-01 -6.549874e-01 -6.527686e-01 -6.504431e-01 -6.480085e-01 -6.454707e-01 -6.428274e-01 -6.400847e-01 -6.372404e-01 -6.343007e-01 -6.312639e-01 -6.281357e-01 -6.249149e-01 -6.216074e-01 -6.182120e-01 -6.147346e-01 -6.111743e-01 -6.075370e-01 -6.038219e-01 -6.000350e-01 -5.961756e-01 -5.922497e-01 -5.882570e-01 -5.842031e-01 -5.800882e-01 -5.759177e-01 -5.716918e-01 -5.674161e-01 -5.630911e-01 -5.587219e-01 -5.543094e-01 -5.498587e-01 -5.453707e-01 -5.408502e-01 -5.362987e-01 -5.317207e-01 -5.271176e-01 -5.224941e-01 -5.178516e-01 -5.131945e-01 -5.085247e-01 -5.038461e-01 -4.991609e-01 -4.944727e-01 -4.897838e-01 -4.850978e-01 -4.804171e-01 -4.757449e-01 -4.710838e-01 -4.664368e-01 -4.618067e-01 -4.571961e-01 -4.526081e-01 -4.480449e-01 -4.435098e-01 -4.390046e-01 -4.345329e-01 -4.300961e-01 -4.256980e-01 -4.213397e-01 -4.170251e-01 -4.127550e-01 -4.085333e-01 -4.043607e-01 -4.002412e-01 -3.961751e-01 -3.921665e-01 -3.882155e-01 -3.843262e-01 -3.804984e-01 -3.767364e-01 -3.730396e-01 -3.694125e-01 -3.658541e-01 -3.623690e-01 -3.589560e-01 -3.556197e-01 -3.523585e-01 -3.491773e-01 -3.460742e-01 -3.430541e-01 -3.401148e-01 -3.372612e-01 -3.344910e-01 -3.318092e-01 -3.292130e-01 -3.267076e-01 -3.242901e-01 -3.219654e-01 -3.197307e-01 -3.175908e-01 -3.155425e-01 -3.135910e-01 -3.117327e-01 -3.099727e-01 -3.083074e-01 -3.067418e-01 -3.052722e-01 -3.039036e-01 -3.026320e-01 -3.014625e-01 -3.003910e-01 -2.994225e-01 -2.985527e-01 -2.977866e-01 -2.971200e-01 -2.965576e-01 -2.960950e-01 -2.957371e-01 -2.954794e-01 -2.953266e-01 
-2.951668e-01 -2.952194e-01 -2.953724e-01 -2.956305e-01 -2.959888e-01 -2.964520e-01 -2.970152e-01 -2.976828e-01 -2.984499e-01 -2.993209e-01 -3.002907e-01 -3.013637e-01 -3.025348e-01 -3.038081e-01 -3.051786e-01 -3.066502e-01 -3.082178e-01 -3.098854e-01 -3.116477e-01 -3.135085e-01 -3.154627e-01 -3.175136e-01 -3.196563e-01 -3.218940e-01 -3.242217e-01 -3.266424e-01 -3.291510e-01 -3.317504e-01 -3.344357e-01 -3.372094e-01 -3.400665e-01 -3.430094e-01 -3.460332e-01 -3.491401e-01 -3.523251e-01 -3.555901e-01 -3.589303e-01 -3.623472e-01 -3.658363e-01 -3.693987e-01 -3.730298e-01 -3.767306e-01 -3.804966e-01 -3.843284e-01 -3.882216e-01 -3.921766e-01 -3.961891e-01 -4.002591e-01 -4.043824e-01 -4.085588e-01 -4.127842e-01 -4.170579e-01 -4.213762e-01 -4.257379e-01 -4.301395e-01 -4.345795e-01 -4.390544e-01 -4.435626e-01 -4.481007e-01 -4.526667e-01 -4.572574e-01 -4.618705e-01 -4.665029e-01 -4.711522e-01 -4.758153e-01 -4.804894e-01 -4.851718e-01 -4.898594e-01 -4.945495e-01 -4.992389e-01 -5.039251e-01 -5.086045e-01 -5.132749e-01 -5.179324e-01 -5.225750e-01 -5.271986e-01 -5.318014e-01 -5.363791e-01 -5.409300e-01 -5.454497e-01 -5.499367e-01 -5.543863e-01 -5.587975e-01 -5.631652e-01 -5.674885e-01 -5.717624e-01 -5.759862e-01 -5.801545e-01 -5.842672e-01 -5.883186e-01 -5.923087e-01 -5.962319e-01 -6.000885e-01 -6.038725e-01 -6.075846e-01 -6.112188e-01 -6.147759e-01 -6.182501e-01 -6.216422e-01 -6.249464e-01 -6.281638e-01 -6.312885e-01 -6.343220e-01 -6.372584e-01 -6.400992e-01 -6.428386e-01 -6.454786e-01 -6.480132e-01 -6.504446e-01 -6.527670e-01 -6.549828e-01 -6.570862e-01 -6.590799e-01 -6.609581e-01 -6.627238e-01 -6.643714e-01 -6.659040e-01 -6.673160e-01 -6.686109e-01 -6.697832e-01 -6.708367e-01 -6.717659e-01 -6.725747e-01 -6.732580e-01 -6.738198e-01 -6.742552e-01 -6.745684e-01 -6.747546e-01 -6.748182e-01 -6.747546e-01 -6.745684e-01 -6.742552e-01 -6.738198e-01 -6.732580e-01 -6.725747e-01 -6.717659e-01 -6.708367e-01 -6.697832e-01 -6.686109e-01 -6.673160e-01 -6.659040e-01 -6.643714e-01 -6.627238e-01 -6.609581e-01 -6.590799e-01 -6.570862e-01 -6.549828e-01 -6.527670e-01 -6.504446e-01 -6.480132e-01 -6.454786e-01 -6.428386e-01 -6.400992e-01 -6.372584e-01 -6.343220e-01 -6.312885e-01 -6.281638e-01 -6.249464e-01 -6.216422e-01 -6.182501e-01 -6.147759e-01 -6.112188e-01 -6.075846e-01 -6.038725e-01 -6.000885e-01 -5.962319e-01 -5.923087e-01 -5.883186e-01 -5.842672e-01 -5.801545e-01 -5.759862e-01 -5.717624e-01 -5.674885e-01 -5.631652e-01 -5.587975e-01 -5.543863e-01 -5.499367e-01 -5.454497e-01 -5.409300e-01 -5.363791e-01 -5.318014e-01 -5.271986e-01 -5.225750e-01 -5.179324e-01 -5.132749e-01 -5.086045e-01 -5.039251e-01 -4.992389e-01 -4.945495e-01 -4.898594e-01 -4.851718e-01 -4.804894e-01 -4.758153e-01 -4.711522e-01 -4.665029e-01 -4.618705e-01 -4.572574e-01 -4.526667e-01 -4.481007e-01 -4.435626e-01 -4.390544e-01 -4.345795e-01 -4.301395e-01 -4.257379e-01 -4.213762e-01 -4.170579e-01 -4.127842e-01 -4.085588e-01 -4.043824e-01 -4.002591e-01 -3.961891e-01 -3.921766e-01 -3.882216e-01 -3.843284e-01 -3.804966e-01 -3.767306e-01 -3.730298e-01 -3.693987e-01 -3.658363e-01 -3.623472e-01 -3.589303e-01 -3.555901e-01 -3.523251e-01 -3.491401e-01 -3.460332e-01 -3.430094e-01 -3.400665e-01 -3.372094e-01 -3.344357e-01 -3.317504e-01 -3.291510e-01 -3.266424e-01 -3.242217e-01 -3.218940e-01 -3.196563e-01 -3.175136e-01 -3.154627e-01 -3.135085e-01 -3.116477e-01 -3.098854e-01 -3.082178e-01 -3.066502e-01 -3.051786e-01 -3.038081e-01 -3.025348e-01 -3.013637e-01 -3.002907e-01 -2.993209e-01 -2.984499e-01 -2.976828e-01 -2.970152e-01 -2.964520e-01 -2.959888e-01 -2.956305e-01 -2.953724e-01 -2.952194e-01 
-2.949565e-01 -2.950092e-01 -2.951625e-01 -2.954211e-01 -2.957800e-01 -2.962441e-01 -2.968082e-01 -2.974770e-01 -2.982454e-01 -2.991180e-01 -3.000895e-01 -3.011644e-01 -3.023375e-01 -3.036131e-01 -3.049859e-01 -3.064601e-01 -3.080305e-01 -3.097010e-01 -3.114664e-01 -3.133304e-01 -3.152880e-01 -3.173425e-01 -3.194889e-01 -3.217305e-01 -3.240622e-01 -3.264870e-01 -3.290000e-01 -3.316038e-01 -3.342937e-01 -3.370721e-01 -3.399340e-01 -3.428819e-01 -3.459108e-01 -3.490228e-01 -3.522131e-01 -3.554835e-01 -3.588292e-01 -3.622518e-01 -3.657465e-01 -3.693146e-01 -3.729515e-01 -3.766581e-01 -3.804300e-01 -3.842678e-01 -3.881670e-01 -3.921280e-01 -3.961465e-01 -4.002226e-01 -4.043519e-01 -4.085343e-01 -4.127657e-01 -4.170455e-01 -4.213697e-01 -4.257374e-01 -4.301448e-01 -4.345906e-01 -4.390713e-01 -4.435851e-01 -4.481288e-01 -4.527003e-01 -4.572964e-01 -4.619147e-01 -4.665523e-01 -4.712066e-01 -4.758746e-01 -4.805534e-01 -4.852404e-01 -4.899324e-01 -4.946269e-01 -4.993204e-01 -5.040105e-01 -5.086937e-01 -5.133677e-01 -5.180285e-01 -5.226744e-01 -5.273010e-01 -5.319066e-01 -5.364869e-01 -5.410403e-01 -5.455622e-01 -5.500513e-01 -5.545027e-01 -5.589156e-01 -5.632847e-01 -5.676093e-01 -5.718842e-01 -5.761089e-01 -5.802780e-01 -5.843912e-01 -5.884430e-01 -5.924333e-01 -5.963566e-01 -6.002130e-01 -6.039968e-01 -6.077084e-01 -6.113421e-01 -6.148987e-01 -6.183720e-01 -6.217633e-01 -6.250665e-01 -6.282829e-01 -6.314065e-01 -6.344389e-01 -6.373739e-01 -6.402135e-01 -6.429516e-01 -6.455902e-01 -6.481234e-01 -6.505534e-01 -6.528744e-01 -6.550888e-01 -6.571909e-01 -6.591832e-01 -6.610601e-01 -6.628246e-01 -6.644709e-01 -6.660023e-01 -6.674133e-01 -6.687072e-01 -6.698786e-01 -6.709312e-01 -6.718596e-01 -6.726677e-01 -6.733505e-01 -6.739118e-01 -6.743468e-01 -6.746597e-01 -6.748458e-01 -6.749093e-01 -6.748458e-01 -6.746597e-01 -6.743468e-01 -6.739118e-01 -6.733505e-01 -6.726677e-01 -6.718596e-01 -6.709312e-01 -6.698786e-01 -6.687072e-01 -6.674133e-01 -6.660023e-01 -6.644709e-01 -6.628246e-01 -6.610601e-01 -6.591832e-01 -6.571909e-01 -6.550888e-01 -6.528744e-01 -6.505534e-01 -6.481234e-01 -6.455902e-01 -6.429516e-01 -6.402135e-01 -6.373739e-01 -6.344389e-01 -6.314065e-01 -6.282829e-01 -6.250665e-01 -6.217633e-01 -6.183720e-01 -6.148987e-01 -6.113421e-01 -6.077084e-01 -6.039968e-01 -6.002130e-01 -5.963566e-01 -5.924333e-01 -5.884430e-01 -5.843912e-01 -5.802780e-01 -5.761089e-01 -5.718842e-01 -5.676093e-01 -5.632847e-01 -5.589156e-01 -5.545027e-01 -5.500513e-01 -5.455622e-01 -5.410403e-01 -5.364869e-01 -5.319066e-01 -5.273010e-01 -5.226744e-01 -5.180285e-01 -5.133677e-01 -5.086937e-01 -5.040105e-01 -4.993204e-01 -4.946269e-01 -4.899324e-01 -4.852404e-01 -4.805534e-01 -4.758746e-01 -4.712066e-01 -4.665523e-01 -4.619147e-01 -4.572964e-01 -4.527003e-01 -4.481288e-01 -4.435851e-01 -4.390713e-01 -4.345906e-01 -4.301448e-01 -4.257374e-01 -4.213697e-01 -4.170455e-01 -4.127657e-01 -4.085343e-01 -4.043519e-01 -4.002226e-01 -3.961465e-01 -3.921280e-01 -3.881670e-01 -3.842678e-01 -3.804300e-01 -3.766581e-01 -3.729515e-01 -3.693146e-01 -3.657465e-01 -3.622518e-01 -3.588292e-01 -3.554835e-01 -3.522131e-01 -3.490228e-01 -3.459108e-01 -3.428819e-01 -3.399340e-01 -3.370721e-01 -3.342937e-01 -3.316038e-01 -3.290000e-01 -3.264870e-01 -3.240622e-01 -3.217305e-01 -3.194889e-01 -3.173425e-01 -3.152880e-01 -3.133304e-01 -3.114664e-01 -3.097010e-01 -3.080305e-01 -3.064601e-01 -3.049859e-01 -3.036131e-01 -3.023375e-01 -3.011644e-01 -3.000895e-01 -2.991180e-01 -2.982454e-01 -2.974770e-01 -2.968082e-01 -2.962441e-01 -2.957800e-01 -2.954211e-01 -2.951625e-01 -2.950092e-01 