# vtk DataFile Version 2.0
Comment goes here
ASCII

DATASET STRUCTURED_POINTS
FIELD FieldData 1
TIME 1 1 double
0.07000000
DIMENSIONS    256   256   1

ORIGIN    0.000   0.000   0.000
SPACING   0.0039062 0.0039062   1.000

POINT_DATA   65536
SCALARS uY double
LOOKUP_TABLE default

-3.366540e-01 -3.367136e-01 -3.368845e-01 -3.371745e-01 -3.375756e-01 -3.380956e-01 -3.387263e-01 -3.394753e-01 -3.403346e-01 -3.413116e-01 -3.423981e-01 -3.436015e-01 -3.449135e-01 -3.463413e-01 -3.478767e-01 -3.495265e-01 -3.512828e-01 -3.531521e-01 -3.551263e-01 -3.572119e-01 -3.594008e-01 -3.616992e-01 -3.640991e-01 -3.666064e-01 -3.692131e-01 -3.719250e-01 -3.747341e-01 -3.776457e-01 -3.806522e-01 -3.837584e-01 -3.869569e-01 -3.902521e-01 -3.936367e-01 -3.971149e-01 -4.006793e-01 -4.043339e-01 -4.080714e-01 -4.118954e-01 -4.157988e-01 -4.197848e-01 -4.238465e-01 -4.279866e-01 -4.321984e-01 -4.364844e-01 -4.408378e-01 -4.452607e-01 -4.497467e-01 -4.542974e-01 -4.589065e-01 -4.635753e-01 -4.682978e-01 -4.730746e-01 -4.779000e-01 -4.827743e-01 -4.876921e-01 -4.926531e-01 -4.976521e-01 -5.026884e-01 -5.077572e-01 -5.128573e-01 -5.179841e-01 -5.231360e-01 -5.283088e-01 -5.335003e-01 -5.387066e-01 -5.439251e-01 -5.491524e-01 -5.543852e-01 -5.596205e-01 -5.648547e-01 -5.700851e-01 -5.753075e-01 -5.805196e-01 -5.857170e-01 -5.908976e-01 -5.960566e-01 -6.011924e-01 -6.062996e-01 -6.113771e-01 -6.164191e-01 -6.214250e-01 -6.263884e-01 -6.313093e-01 -6.361809e-01 -6.410035e-01 -6.457701e-01 -6.504814e-01 -6.551301e-01 -6.597172e-01 -6.642351e-01 -6.686853e-01 -6.730600e-01 -6.773611e-01 -6.815803e-01 -6.857202e-01 -6.897722e-01 -6.937392e-01 -6.976125e-01 -7.013953e-01 -7.050790e-01 -7.086670e-01 -7.121504e-01 -7.155333e-01 -7.188065e-01 -7.219745e-01 -7.250281e-01 -7.279721e-01 -7.307973e-01 -7.335088e-01 -7.360972e-01 -7.385683e-01 -7.409126e-01 -7.431360e-01 -7.452292e-01 -7.471985e-01 -7.490345e-01 -7.507438e-01 -7.523172e-01 -7.537616e-01 -7.550678e-01 -7.562429e-01 -7.572780e-01 -7.581805e-01 -7.589415e-01 -7.595686e-01 -7.600532e-01 -7.604031e-01 -7.606098e-01 -7.606816e-01 -7.606098e-01 -7.604031e-01 -7.600532e-01 -7.595686e-01 -7.589415e-01 -7.581805e-01 -7.572780e-01 -7.562429e-01 -7.550678e-01 -7.537616e-01 -7.523172e-01 -7.507438e-01 -7.490345e-01 -7.471985e-01 -7.452292e-01 -7.431360e-01 -7.409126e-01 -7.385683e-01 -7.360972e-01 -7.335088e-01 -7.307973e-01 -7.279721e-01 -7.250281e-01 -7.219745e-01 -7.188065e-01 -7.155333e-01 -7.121504e-01 -7.086670e-01 -7.050790e-01 -7.013953e-01 -6.976125e-01 -6.937392e-01 -6.897722e-01 -6.857202e-01 -6.815803e-01 -6.773611e-01 -6.730600e-01 -6.686853e-01 -6.642351e-01 -6.597172e-01 -6.551301e-01 -6.504814e-01 -6.457701e-01 -6.410035e-01 -6.361809e-01 -6.313093e-01 -6.263884e-01 -6.214250e-01 -6.164191e-01 -6.113771e-01 -6.062996e-01 -6.011924e-01 -5.960566e-01 -5.908976e-01 -5.857170e-01 -5.805196e-01 -5.753075e-01 -5.700851e-01 -5.648547e-01 -5.596205e-01 -5.543852e-01 -5.491524e-01 -5.439251e-01 -5.387066e-01 -5.335003e-01 -5.283088e-01 -5.231360e-01 -5.179841e-01 -5.128573e-01 -5.077572e-01 -5.026884e-01 -4.976521e-01 -4.926531e-01 -4.876921e-01 -4.827743e-01 -4.779000e-01 -4.730746e-01 -4.682978e-01 -4.635753e-01 -4.589065e-01 -4.542974e-01 -4.497467e-01 -4.452607e-01 -4.408378e-01 -4.364844e-01 -4.321984e-01 -4.279866e-01 -4.238465e-01 -4.197848e-01 -4.157988e-01 -4.118954e-01 -4.080714e-01 -4.043339e-01 -4.006793e-01 -3.971149e-01 -3.936367e-01 -3.902521e-01 -3.869569e-01 -3.837584e-01 -3.806522e-01 -3.776457e-01 -3.747341e-01 -3.719250e-01 -3.692131e-01 -3.666064e-01 -3.640991e-01 -3.616992e-01 -3.594008e-01 -3.572119e-01 -3.551263e-01 -3.531521e-01 -3.512828e-01 -3.495265e-01 -3.478767e-01 -3.463413e-01 -3.449135e-01 -3.436015e-01 -3.423981e-01 -3.413116e-01 -3.403346e-01 -3.394753e-01 -3.387263e-01 -3.380956e-01 -3.375756e-01 -3.371745e-01 -3.368845e-01 -3.367136e-01 
-3.365211e-01 -3.365807e-01 -3.367517e-01 -3.370417e-01 -3.374431e-01 -3.379632e-01 -3.385942e-01 -3.393435e-01 -3.402032e-01 -3.411806e-01 -3.422676e-01 -3.434715e-01 -3.447841e-01 -3.462125e-01 -3.477486e-01 -3.493992e-01 -3.511562e-01 -3.530263e-01 -3.550015e-01 -3.570880e-01 -3.592779e-01 -3.615774e-01 -3.639784e-01 -3.664869e-01 -3.690949e-01 -3.718080e-01 -3.746185e-01 -3.775315e-01 -3.805395e-01 -3.836473e-01 -3.868473e-01 -3.901443e-01 -3.935306e-01 -3.970106e-01 -4.005768e-01 -4.042334e-01 -4.079728e-01 -4.117989e-01 -4.157044e-01 -4.196927e-01 -4.237566e-01 -4.278991e-01 -4.321132e-01 -4.364016e-01 -4.407576e-01 -4.451831e-01 -4.496717e-01 -4.542251e-01 -4.588371e-01 -4.635087e-01 -4.682341e-01 -4.730138e-01 -4.778423e-01 -4.827197e-01 -4.876407e-01 -4.926048e-01 -4.976071e-01 -5.026467e-01 -5.077189e-01 -5.128225e-01 -5.179528e-01 -5.231082e-01 -5.282846e-01 -5.334796e-01 -5.386896e-01 -5.439119e-01 -5.491429e-01 -5.543795e-01 -5.596186e-01 -5.648566e-01 -5.700908e-01 -5.753171e-01 -5.805332e-01 -5.857345e-01 -5.909191e-01 -5.960821e-01 -6.012219e-01 -6.063330e-01 -6.114146e-01 -6.164606e-01 -6.214704e-01 -6.264378e-01 -6.313627e-01 -6.362382e-01 -6.410648e-01 -6.458354e-01 -6.505506e-01 -6.552031e-01 -6.597940e-01 -6.643158e-01 -6.687698e-01 -6.731482e-01 -6.774530e-01 -6.816758e-01 -6.858193e-01 -6.898748e-01 -6.938452e-01 -6.977220e-01 -7.015082e-01 -7.051950e-01 -7.087863e-01 -7.122728e-01 -7.156587e-01 -7.189349e-01 -7.221058e-01 -7.251621e-01 -7.281088e-01 -7.309365e-01 -7.336505e-01 -7.362414e-01 -7.387147e-01 -7.410611e-01 -7.432866e-01 -7.453817e-01 -7.473528e-01 -7.491905e-01 -7.509015e-01 -7.524764e-01 -7.539221e-01 -7.552295e-01 -7.564058e-01 -7.574418e-01 -7.583452e-01 -7.591068e-01 -7.597346e-01 -7.602196e-01 -7.605699e-01 -7.607768e-01 -7.608486e-01 -7.607768e-01 -7.605699e-01 -7.602196e-01 -7.597346e-01 -7.591068e-01 -7.583452e-01 -7.574418e-01 -7.564058e-01 -7.552295e-01 -7.539221e-01 -7.524764e-01 -7.509015e-01 -7.491905e-01 -7.473528e-01 -7.453817e-01 -7.432866e-01 -7.410611e-01 -7.387147e-01 -7.362414e-01 -7.336505e-01 -7.309365e-01 -7.281088e-01 -7.251621e-01 -7.221058e-01 -7.189349e-01 -7.156587e-01 -7.122728e-01 -7.087863e-01 -7.051950e-01 -7.015082e-01 -6.977220e-01 -6.938452e-01 -6.898748e-01 -6.858193e-01 -6.816758e-01 -6.774530e-01 -6.731482e-01 -6.687698e-01 -6.643158e-01 -6.597940e-01 -6.552031e-01 -6.505506e-01 -6.458354e-01 -6.410648e-01 -6.362382e-01 -6.313627e-01 -6.264378e-01 -6.214704e-01 -6.164606e-01 -6.114146e-01 -6.063330e-01 -6.012219e-01 -5.960821e-01 -5.909191e-01 -5.857345e-01 -5.805332e-01 -5.753171e-01 -5.700908e-01 -5.648566e-01 -5.596186e-01 -5.543795e-01 -5.491429e-01 -5.439119e-01 -5.386896e-01 -5.334796e-01 -5.282846e-01 -5.231082e-01 -5.179528e-01 -5.128225e-01 -5.077189e-01 -5.026467e-01 -4.976071e-01 -4.926048e-01 -4.876407e-01 -4.827197e-01 -4.778423e-01 -4.730138e-01 -4.682341e-01 -4.635087e-01 -4.588371e-01 -4.542251e-01 -4.496717e-01 -4.451831e-01 -4.407576e-01 -4.364016e-01 -4.321132e-01 -4.278991e-01 -4.237566e-01 -4.196927e-01 -4.157044e-01 -4.117989e-01 -4.079728e-01 -4.042334e-01 -4.005768e-01 -3.970106e-01 -3.935306e-01 -3.901443e-01 -3.868473e-01 -3.836473e-01 -3.805395e-01 -3.775315e-01 -3.746185e-01 -3.718080e-01 -3.690949e-01 -3.664869e-01 -3.639784e-01 -3.615774e-01 -3.592779e-01 -3.570880e-01 -3.550015e-01 -3.530263e-01 -3.511562e-01 -3.493992e-01 -3.477486e-01 -3.462125e-01 -3.447841e-01 -3.434715e-01 -3.422676e-01 -3.411806e-01 -3.402032e-01 -3.393435e-01 -3.385942e-01 -3.379632e-01 -3.374431e-01 -3.370417e-01 -3.367517e-01 -3.365807e-01 
-3.362728e-01 -3.363325e-01 -3.365036e-01 -3.367939e-01 -3.371956e-01 -3.377161e-01 -3.383477e-01 -3.390976e-01 -3.399580e-01 -3.409362e-01 -3.420242e-01 -3.432290e-01 -3.445427e-01 -3.459723e-01 -3.475097e-01 -3.491617e-01 -3.509203e-01 -3.527920e-01 -3.547689e-01 -3.568572e-01 -3.590491e-01 -3.613506e-01 -3.637538e-01 -3.662645e-01 -3.688749e-01 -3.715905e-01 -3.744035e-01 -3.773194e-01 -3.803301e-01 -3.834409e-01 -3.866440e-01 -3.899441e-01 -3.933337e-01 -3.968172e-01 -4.003870e-01 -4.040472e-01 -4.077904e-01 -4.116205e-01 -4.155300e-01 -4.195224e-01 -4.235906e-01 -4.277375e-01 -4.319562e-01 -4.362492e-01 -4.406099e-01 -4.450403e-01 -4.495340e-01 -4.540926e-01 -4.587097e-01 -4.633867e-01 -4.681176e-01 -4.729030e-01 -4.777371e-01 -4.826204e-01 -4.875472e-01 -4.925174e-01 -4.975258e-01 -5.025717e-01 -5.076502e-01 -5.127601e-01 -5.178970e-01 -5.230590e-01 -5.282420e-01 -5.334438e-01 -5.386607e-01 -5.438898e-01 -5.491278e-01 -5.543714e-01 -5.596176e-01 -5.648627e-01 -5.701041e-01 -5.753376e-01 -5.805610e-01 -5.857695e-01 -5.909615e-01 -5.961317e-01 -6.012788e-01 -6.063974e-01 -6.114862e-01 -6.165396e-01 -6.215567e-01 -6.265315e-01 -6.314636e-01 -6.363464e-01 -6.411802e-01 -6.459579e-01 -6.506802e-01 -6.553398e-01 -6.599378e-01 -6.644665e-01 -6.689274e-01 -6.733126e-01 -6.776240e-01 -6.818535e-01 -6.860034e-01 -6.900653e-01 -6.940420e-01 -6.979249e-01 -7.017171e-01 -7.054099e-01 -7.090069e-01 -7.124990e-01 -7.158904e-01 -7.191719e-01 -7.223479e-01 -7.254093e-01 -7.283608e-01 -7.311931e-01 -7.339115e-01 -7.365066e-01 -7.389841e-01 -7.413344e-01 -7.435635e-01 -7.456621e-01 -7.476365e-01 -7.494773e-01 -7.511911e-01 -7.527686e-01 -7.542167e-01 -7.555263e-01 -7.567046e-01 -7.577424e-01 -7.586472e-01 -7.594102e-01 -7.600390e-01 -7.605248e-01 -7.608757e-01 -7.610829e-01 -7.611549e-01 -7.610829e-01 -7.608757e-01 -7.605248e-01 -7.600390e-01 -7.594102e-01 -7.586472e-01 -7.577424e-01 -7.567046e-01 -7.555263e-01 -7.542167e-01 -7.527686e-01 -7.511911e-01 -7.494773e-01 -7.476365e-01 -7.456621e-01 -7.435635e-01 -7.413344e-01 -7.389841e-01 -7.365066e-01 -7.339115e-01 -7.311931e-01 -7.283608e-01 -7.254093e-01 -7.223479e-01 -7.191719e-01 -7.158904e-01 -7.124990e-01 -7.090069e-01 -7.054099e-01 -7.017171e-01 -6.979249e-01 -6.940420e-01 -6.900653e-01 -6.860034e-01 -6.818535e-01 -6.776240e-01 -6.733126e-01 -6.689274e-01 -6.644665e-01 -6.599378e-01 -6.553398e-01 -6.506802e-01 -6.459579e-01 -6.411802e-01 -6.363464e-01 -6.314636e-01 -6.265315e-01 -6.215567e-01 -6.165396e-01 -6.114862e-01 -6.063974e-01 -6.012788e-01 -5.961317e-01 -5.909615e-01 -5.857695e-01 -5.805610e-01 -5.753376e-01 -5.701041e-01 -5.648627e-01 -5.596176e-01 -5.543714e-01 -5.491278e-01 -5.438898e-01 -5.386607e-01 -5.334438e-01 -5.282420e-01 -5.230590e-01 -5.178970e-01 -5.127601e-01 -5.076502e-01 -5.025717e-01 -4.975258e-01 -4.925174e-01 -4.875472e-01 -4.826204e-01 -4.777371e-01 -4.729030e-01 -4.681176e-01 -4.633867e-01 -4.587097e-01 -4.540926e-01 -4.495340e-01 -4.450403e-01 -4.406099e-01 -4.362492e-01 -4.319562e-01 -4.277375e-01 -4.235906e-01 -4.195224e-01 -4.155300e-01 -4.116205e-01 -4.077904e-01 -4.040472e-01 -4.003870e-01 -3.968172e-01 -3.933337e-01 -3.899441e-01 -3.866440e-01 -3.834409e-01 -3.803301e-01 -3.773194e-01 -3.744035e-01 -3.715905e-01 -3.688749e-01 -3.662645e-01 -3.637538e-01 -3.613506e-01 -3.590491e-01 -3.568572e-01 -3.547689e-01 -3.527920e-01 -3.509203e-01 -3.491617e-01 -3.475097e-01 -3.459723e-01 -3.445427e-01 -3.432290e-01 -3.420242e-01 -3.409362e-01 -3.399580e-01 -3.390976e-01 -3.383477e-01 -3.377161e-01 -3.371956e-01 -3.367939e-01 -3.365036e-01 -3.363325e-01 
-3.359092e-01 -3.359689e-01 -3.361403e-01 -3.364309e-01 -3.368331e-01 -3.373542e-01 -3.379865e-01 -3.387374e-01 -3.395989e-01 -3.405783e-01 -3.416675e-01 -3.428739e-01 -3.441892e-01 -3.456206e-01 -3.471599e-01 -3.488140e-01 -3.505748e-01 -3.524490e-01 -3.544283e-01 -3.565194e-01 -3.587141e-01 -3.610186e-01 -3.634250e-01 -3.659391e-01 -3.685529e-01 -3.712723e-01 -3.740891e-01 -3.770090e-01 -3.800239e-01 -3.831390e-01 -3.863467e-01 -3.896515e-01 -3.930460e-01 -3.965345e-01 -4.001095e-01 -4.037751e-01 -4.075240e-01 -4.113598e-01 -4.152753e-01 -4.192738e-01 -4.233483e-01 -4.275017e-01 -4.317271e-01 -4.360270e-01 -4.403947e-01 -4.448323e-01 -4.493334e-01 -4.538994e-01 -4.585244e-01 -4.632093e-01 -4.679481e-01 -4.727417e-01 -4.775843e-01 -4.824761e-01 -4.874116e-01 -4.923907e-01 -4.974081e-01 -5.024631e-01 -5.075509e-01 -5.126702e-01 -5.178166e-01 -5.229882e-01 -5.281810e-01 -5.333928e-01 -5.386196e-01 -5.438588e-01 -5.491069e-01 -5.543608e-01 -5.596174e-01 -5.648729e-01 -5.701248e-01 -5.753688e-01 -5.806028e-01 -5.858220e-01 -5.910245e-01 -5.962055e-01 -6.013633e-01 -6.064925e-01 -6.115921e-01 -6.166561e-01 -6.216840e-01 -6.266693e-01 -6.316121e-01 -6.365054e-01 -6.413497e-01 -6.461379e-01 -6.508706e-01 -6.555404e-01 -6.601486e-01 -6.646873e-01 -6.691582e-01 -6.735532e-01 -6.778744e-01 -6.821134e-01 -6.862728e-01 -6.903439e-01 -6.943297e-01 -6.982215e-01 -7.020225e-01 -7.057238e-01 -7.093291e-01 -7.128294e-01 -7.162287e-01 -7.195178e-01 -7.227013e-01 -7.257698e-01 -7.287283e-01 -7.315673e-01 -7.342922e-01 -7.368935e-01 -7.393768e-01 -7.417327e-01 -7.439672e-01 -7.460708e-01 -7.480499e-01 -7.498951e-01 -7.516130e-01 -7.531943e-01 -7.546459e-01 -7.559586e-01 -7.571397e-01 -7.581800e-01 -7.590871e-01 -7.598519e-01 -7.604822e-01 -7.609692e-01 -7.613209e-01 -7.615287e-01 -7.616008e-01 -7.615287e-01 -7.613209e-01 -7.609692e-01 -7.604822e-01 -7.598519e-01 -7.590871e-01 -7.581800e-01 -7.571397e-01 -7.559586e-01 -7.546459e-01 -7.531943e-01 -7.516130e-01 -7.498951e-01 -7.480499e-01 -7.460708e-01 -7.439672e-01 -7.417327e-01 -7.393768e-01 -7.368935e-01 -7.342922e-01 -7.315673e-01 -7.287283e-01 -7.257698e-01 -7.227013e-01 -7.195178e-01 -7.162287e-01 -7.128294e-01 -7.093291e-01 -7.057238e-01 -7.020225e-01 -6.982215e-01 -6.943297e-01 -6.903439e-01 -6.862728e-01 -6.821134e-01 -6.778744e-01 -6.735532e-01 -6.691582e-01 -6.646873e-01 -6.601486e-01 -6.555404e-01 -6.508706e-01 -6.461379e-01 -6.413497e-01 -6.365054e-01 -6.316121e-01 -6.266693e-01 -6.216840e-01 -6.166561e-01 -6.115921e-01 -6.064925e-01 -6.013633e-01 -5.962055e-01 -5.910245e-01 -5.858220e-01 -5.806028e-01 -5.753688e-01 -5.701248e-01 -5.648729e-01 -5.596174e-01 -5.543608e-01 -5.491069e-01 -5.438588e-01 -5.386196e-01 -5.333928e-01 -5.281810e-01 -5.229882e-01 -5.178166e-01 -5.126702e-01 -5.075509e-01 -5.024631e-01 -4.974081e-01 -4.923907e-01 -4.874116e-01 -4.824761e-01 -4.775843e-01 -4.727417e-01 -4.679481e-01 -4.632093e-01 -4.585244e-01 -4.538994e-01 -4.493334e-01 -4.448323e-01 -4.403947e-01 -4.360270e-01 -4.317271e-01 -4.275017e-01 -4.233483e-01 -4.192738e-01 -4.152753e-01 -4.113598e-01 -4.075240e-01 -4.037751e-01 -4.001095e-01 -3.965345e-01 -3.930460e-01 -3.896515e-01 -3.863467e-01 -3.831390e-01 -3.800239e-01 -3.770090e-01 -3.740891e-01 -3.712723e-01 -3.685529e-01 -3.659391e-01 -3.634250e-01 -3.610186e-01 -3.587141e-01 -3.565194e-01 -3.544283e-01 -3.524490e-01 -3.505748e-01 -3.488140e-01 -3.471599e-01 -3.456206e-01 -3.441892e-01 -3.428739e-01 -3.416675e-01 -3.405783e-01 -3.395989e-01 -3.387374e-01 -3.379865e-01 -3.373542e-01 -3.368331e-01 -3.364309e-01 -3.361403e-01 -3.359689e-01 
-3.354301e-01 -3.354899e-01 -3.356615e-01 -3.359526e-01 -3.363554e-01 -3.368774e-01 -3.375108e-01 -3.382628e-01 -3.391257e-01 -3.401067e-01 -3.411977e-01 -3.424060e-01 -3.437236e-01 -3.451573e-01 -3.466992e-01 -3.483560e-01 -3.501198e-01 -3.519971e-01 -3.539798e-01 -3.560745e-01 -3.582729e-01 -3.605815e-01 -3.629920e-01 -3.655105e-01 -3.681290e-01 -3.708532e-01 -3.736752e-01 -3.766003e-01 -3.796208e-01 -3.827417e-01 -3.859553e-01 -3.892663e-01 -3.926673e-01 -3.961624e-01 -3.997444e-01 -4.034172e-01 -4.071734e-01 -4.110168e-01 -4.149402e-01 -4.189468e-01 -4.230297e-01 -4.271916e-01 -4.314258e-01 -4.357348e-01 -4.401118e-01 -4.445589e-01 -4.490697e-01 -4.536457e-01 -4.582808e-01 -4.629762e-01 -4.677257e-01 -4.725301e-01 -4.773838e-01 -4.822868e-01 -4.872338e-01 -4.922245e-01 -4.972538e-01 -5.023208e-01 -5.074208e-01 -5.125526e-01 -5.177115e-01 -5.228959e-01 -5.281016e-01 -5.333263e-01 -5.385663e-01 -5.438188e-01 -5.490804e-01 -5.543478e-01 -5.596179e-01 -5.648872e-01 -5.701529e-01 -5.754108e-01 -5.806586e-01 -5.858918e-01 -5.911084e-01 -5.963034e-01 -6.014753e-01 -6.066186e-01 -6.117322e-01 -6.168103e-01 -6.218521e-01 -6.268515e-01 -6.318081e-01 -6.367154e-01 -6.415734e-01 -6.463753e-01 -6.511216e-01 -6.558049e-01 -6.604264e-01 -6.649784e-01 -6.694623e-01 -6.738702e-01 -6.782041e-01 -6.824557e-01 -6.866274e-01 -6.907107e-01 -6.947084e-01 -6.986119e-01 -7.024243e-01 -7.061368e-01 -7.097530e-01 -7.132639e-01 -7.166735e-01 -7.199727e-01 -7.231660e-01 -7.262439e-01 -7.292115e-01 -7.320593e-01 -7.347926e-01 -7.374019e-01 -7.398929e-01 -7.422561e-01 -7.444975e-01 -7.466077e-01 -7.485930e-01 -7.504440e-01 -7.521673e-01 -7.537535e-01 -7.552097e-01 -7.565266e-01 -7.577114e-01 -7.587549e-01 -7.596649e-01 -7.604320e-01 -7.610644e-01 -7.615529e-01 -7.619057e-01 -7.621141e-01 -7.621865e-01 -7.621141e-01 -7.619057e-01 -7.615529e-01 -7.610644e-01 -7.604320e-01 -7.596649e-01 -7.587549e-01 -7.577114e-01 -7.565266e-01 -7.552097e-01 -7.537535e-01 -7.521673e-01 -7.504440e-01 -7.485930e-01 -7.466077e-01 -7.444975e-01 -7.422561e-01 -7.398929e-01 -7.374019e-01 -7.347926e-01 -7.320593e-01 -7.292115e-01 -7.262439e-01 -7.231660e-01 -7.199727e-01 -7.166735e-01 -7.132639e-01 -7.097530e-01 -7.061368e-01 -7.024243e-01 -6.986119e-01 -6.947084e-01 -6.907107e-01 -6.866274e-01 -6.824557e-01 -6.782041e-01 -6.738702e-01 -6.694623e-01 -6.649784e-01 -6.604264e-01 -6.558049e-01 -6.511216e-01 -6.463753e-01 -6.415734e-01 -6.367154e-01 -6.318081e-01 -6.268515e-01 -6.218521e-01 -6.168103e-01 -6.117322e-01 -6.066186e-01 -6.014753e-01 -5.963034e-01 -5.911084e-01 -5.858918e-01 -5.806586e-01 -5.754108e-01 -5.701529e-01 -5.648872e-01 -5.596179e-01 -5.543478e-01 -5.490804e-01 -5.438188e-01 -5.385663e-01 -5.333263e-01 -5.281016e-01 -5.228959e-01 -5.177115e-01 -5.125526e-01 -5.074208e-01 -5.023208e-01 -4.972538e-01 -4.922245e-01 -4.872338e-01 -4.822868e-01 -4.773838e-01 -4.725301e-01 -4.677257e-01 -4.629762e-01 -4.582808e-01 -4.536457e-01 -4.490697e-01 -4.445589e-01 -4.401118e-01 -4.357348e-01 -4.314258e-01 -4.271916e-01 -4.230297e-01 -4.189468e-01 -4.149402e-01 -4.110168e-01 -4.071734e-01 -4.034172e-01 -3.997444e-01 -3.961624e-01 -3.926673e-01 -3.892663e-01 -3.859553e-01 -3.827417e-01 -3.796208e-01 -3.766003e-01 -3.736752e-01 -3.708532e-01 -3.681290e-01 -3.655105e-01 -3.629920e-01 -3.605815e-01 -3.582729e-01 -3.560745e-01 -3.539798e-01 -3.519971e-01 -3.501198e-01 -3.483560e-01 -3.466992e-01 -3.451573e-01 -3.437236e-01 -3.424060e-01 -3.411977e-01 -3.401067e-01 -3.391257e-01 -3.382628e-01 -3.375108e-01 -3.368774e-01 -3.363554e-01 -3.359526e-01 -3.356615e-01 -3.354899e-01 
-3.348352e-01 -3.348951e-01 -3.350671e-01 -3.353588e-01 -3.357624e-01 -3.362854e-01 -3.369200e-01 -3.376736e-01 -3.385382e-01 -3.395212e-01 -3.406144e-01 -3.418252e-01 -3.431454e-01 -3.445820e-01 -3.461271e-01 -3.477874e-01 -3.495548e-01 -3.514360e-01 -3.534230e-01 -3.555220e-01 -3.577252e-01 -3.600387e-01 -3.624545e-01 -3.649785e-01 -3.676028e-01 -3.703330e-01 -3.731613e-01 -3.760930e-01 -3.791203e-01 -3.822484e-01 -3.854695e-01 -3.887883e-01 -3.921972e-01 -3.957007e-01 -3.992912e-01 -4.029729e-01 -4.067383e-01 -4.105913e-01 -4.145244e-01 -4.185411e-01 -4.226343e-01 -4.268069e-01 -4.310521e-01 -4.353723e-01 -4.397608e-01 -4.442197e-01 -4.487426e-01 -4.533311e-01 -4.579789e-01 -4.626871e-01 -4.674499e-01 -4.722678e-01 -4.771352e-01 -4.820522e-01 -4.870135e-01 -4.920187e-01 -4.970627e-01 -5.021447e-01 -5.072599e-01 -5.124070e-01 -5.175816e-01 -5.227818e-01 -5.280034e-01 -5.332444e-01 -5.385007e-01 -5.437697e-01 -5.490479e-01 -5.543321e-01 -5.596192e-01 -5.649055e-01 -5.701882e-01 -5.754634e-01 -5.807285e-01 -5.859790e-01 -5.912130e-01 -5.964254e-01 -6.016147e-01 -6.067755e-01 -6.119065e-01 -6.170020e-01 -6.220613e-01 -6.270780e-01 -6.320519e-01 -6.369763e-01 -6.418515e-01 -6.466703e-01 -6.514334e-01 -6.561335e-01 -6.607715e-01 -6.653399e-01 -6.698400e-01 -6.742639e-01 -6.786136e-01 -6.828807e-01 -6.870677e-01 -6.911660e-01 -6.951785e-01 -6.990964e-01 -7.029230e-01 -7.066493e-01 -7.102790e-01 -7.138031e-01 -7.172255e-01 -7.205371e-01 -7.237424e-01 -7.268320e-01 -7.298109e-01 -7.326695e-01 -7.354132e-01 -7.380325e-01 -7.405330e-01 -7.429053e-01 -7.451553e-01 -7.472736e-01 -7.492666e-01 -7.511247e-01 -7.528546e-01 -7.544470e-01 -7.559088e-01 -7.572308e-01 -7.584202e-01 -7.594678e-01 -7.603813e-01 -7.611514e-01 -7.617862e-01 -7.622766e-01 -7.626308e-01 -7.628400e-01 -7.629127e-01 -7.628400e-01 -7.626308e-01 -7.622766e-01 -7.617862e-01 -7.611514e-01 -7.603813e-01 -7.594678e-01 -7.584202e-01 -7.572308e-01 -7.559088e-01 -7.544470e-01 -7.528546e-01 -7.511247e-01 -7.492666e-01 -7.472736e-01 -7.451553e-01 -7.429053e-01 -7.405330e-01 -7.380325e-01 -7.354132e-01 -7.326695e-01 -7.298109e-01 -7.268320e-01 -7.237424e-01 -7.205371e-01 -7.172255e-01 -7.138031e-01 -7.102790e-01 -7.066493e-01 -7.029230e-01 -6.990964e-01 -6.951785e-01 -6.911660e-01 -6.870677e-01 -6.828807e-01 -6.786136e-01 -6.742639e-01 -6.698400e-01 -6.653399e-01 -6.607715e-01 -6.561335e-01 -6.514334e-01 -6.466703e-01 -6.418515e-01 -6.369763e-01 -6.320519e-01 -6.270780e-01 -6.220613e-01 -6.170020e-01 -6.119065e-01 -6.067755e-01 -6.016147e-01 -5.964254e-01 -5.912130e-01 -5.859790e-01 -5.807285e-01 -5.754634e-01 -5.701882e-01 -5.649055e-01 -5.596192e-01 -5.543321e-01 -5.490479e-01 -5.437697e-01 -5.385007e-01 -5.332444e-01 -5.280034e-01 -5.227818e-01 -5.175816e-01 -5.124070e-01 -5.072599e-01 -5.021447e-01 -4.970627e-01 -4.920187e-01 -4.870135e-01 -4.820522e-01 -4.771352e-01 -4.722678e-01 -4.674499e-01 -4.626871e-01 -4.579789e-01 -4.533311e-01 -4.487426e-01 -4.442197e-01 -4.397608e-01 -4.353723e-01 -4.310521e-01 -4.268069e-01 -4.226343e-01 -4.185411e-01 -4.145244e-01 -4.105913e-01 -4.067383e-01 -4.029729e-01 -3.992912e-01 -3.957007e-01 -3.921972e-01 -3.887883e-01 -3.854695e-01 -3.822484e-01 -3.791203e-01 -3.760930e-01 -3.731613e-01 -3.703330e-01 -3.676028e-01 -3.649785e-01 -3.624545e-01 -3.600387e-01 -3.577252e-01 -3.555220e-01 -3.534230e-01 -3.514360e-01 -3.495548e-01 -3.477874e-01 -3.461271e-01 -3.445820e-01 -3.431454e-01 -3.418252e-01 -3.406144e-01 -3.395212e-01 -3.385382e-01 -3.376736e-01 -3.369200e-01 -3.362854e-01 -3.357624e-01 -3.353588e-01 -3.350671e-01 -3.348951e-01 
-3.341245e-01 -3.341845e-01 -3.343569e-01 -3.346493e-01 -3.350538e-01 -3.355781e-01 -3.362142e-01 -3.369696e-01 -3.378363e-01 -3.388216e-01 -3.399175e-01 -3.411312e-01 -3.424546e-01 -3.438948e-01 -3.454436e-01 -3.471080e-01 -3.488798e-01 -3.507657e-01 -3.527577e-01 -3.548621e-01 -3.570709e-01 -3.593903e-01 -3.618123e-01 -3.643429e-01 -3.669740e-01 -3.697115e-01 -3.725473e-01 -3.754869e-01 -3.785225e-01 -3.816591e-01 -3.848891e-01 -3.882171e-01 -3.916356e-01 -3.951491e-01 -3.987499e-01 -4.024422e-01 -4.062186e-01 -4.100829e-01 -4.140277e-01 -4.180565e-01 -4.221621e-01 -4.263474e-01 -4.306057e-01 -4.349393e-01 -4.393416e-01 -4.438147e-01 -4.483521e-01 -4.529554e-01 -4.576183e-01 -4.623420e-01 -4.671205e-01 -4.719546e-01 -4.768384e-01 -4.817722e-01 -4.867505e-01 -4.917730e-01 -4.968346e-01 -5.019346e-01 -5.070679e-01 -5.122335e-01 -5.174266e-01 -5.226458e-01 -5.278865e-01 -5.331468e-01 -5.384226e-01 -5.437114e-01 -5.490094e-01 -5.543137e-01 -5.596210e-01 -5.649276e-01 -5.702308e-01 -5.755265e-01 -5.808123e-01 -5.860835e-01 -5.913383e-01 -5.965715e-01 -6.017817e-01 -6.069633e-01 -6.121152e-01 -6.172315e-01 -6.223115e-01 -6.273489e-01 -6.323434e-01 -6.372883e-01 -6.421839e-01 -6.470230e-01 -6.518062e-01 -6.565262e-01 -6.611840e-01 -6.657719e-01 -6.702913e-01 -6.747343e-01 -6.791028e-01 -6.833884e-01 -6.875937e-01 -6.917099e-01 -6.957400e-01 -6.996752e-01 -7.035186e-01 -7.072615e-01 -7.109073e-01 -7.144470e-01 -7.178848e-01 -7.212112e-01 -7.244309e-01 -7.275344e-01 -7.305267e-01 -7.333982e-01 -7.361543e-01 -7.387855e-01 -7.412974e-01 -7.436804e-01 -7.459407e-01 -7.480687e-01 -7.500708e-01 -7.519373e-01 -7.536752e-01 -7.552749e-01 -7.567435e-01 -7.580715e-01 -7.592664e-01 -7.603188e-01 -7.612365e-01 -7.620102e-01 -7.626479e-01 -7.631406e-01 -7.634964e-01 -7.637066e-01 -7.637795e-01 -7.637066e-01 -7.634964e-01 -7.631406e-01 -7.626479e-01 -7.620102e-01 -7.612365e-01 -7.603188e-01 -7.592664e-01 -7.580715e-01 -7.567435e-01 -7.552749e-01 -7.536752e-01 -7.519373e-01 -7.500708e-01 -7.480687e-01 -7.459407e-01 -7.436804e-01 -7.412974e-01 -7.387855e-01 -7.361543e-01 -7.333982e-01 -7.305267e-01 -7.275344e-01 -7.244309e-01 -7.212112e-01 -7.178848e-01 -7.144470e-01 -7.109073e-01 -7.072615e-01 -7.035186e-01 -6.996752e-01 -6.957400e-01 -6.917099e-01 -6.875937e-01 -6.833884e-01 -6.791028e-01 -6.747343e-01 -6.702913e-01 -6.657719e-01 -6.611840e-01 -6.565262e-01 -6.518062e-01 -6.470230e-01 -6.421839e-01 -6.372883e-01 -6.323434e-01 -6.273489e-01 -6.223115e-01 -6.172315e-01 -6.121152e-01 -6.069633e-01 -6.017817e-01 -5.965715e-01 -5.913383e-01 -5.860835e-01 -5.808123e-01 -5.755265e-01 -5.702308e-01 -5.649276e-01 -5.596210e-01 -5.543137e-01 -5.490094e-01 -5.437114e-01 -5.384226e-01 -5.331468e-01 -5.278865e-01 -5.226458e-01 -5.174266e-01 -5.122335e-01 -5.070679e-01 -5.019346e-01 -4.968346e-01 -4.917730e-01 -4.867505e-01 -4.817722e-01 -4.768384e-01 -4.719546e-01 -4.671205e-01 -4.623420e-01 -4.576183e-01 -4.529554e-01 -4.483521e-01 -4.438147e-01 -4.393416e-01 -4.349393e-01 -4.306057e-01 -4.263474e-01 -4.221621e-01 -4.180565e-01 -4.140277e-01 -4.100829e-01 -4.062186e-01 -4.024422e-01 -3.987499e-01 -3.951491e-01 -3.916356e-01 -3.882171e-01 -3.848891e-01 -3.816591e-01 -3.785225e-01 -3.754869e-01 -3.725473e-01 -3.697115e-01 -3.669740e-01 -3.643429e-01 -3.618123e-01 -3.593903e-01 -3.570709e-01 -3.548621e-01 -3.527577e-01 -3.507657e-01 -3.488798e-01 -3.471080e-01 -3.454436e-01 -3.438948e-01 -3.424546e-01 -3.411312e-01 -3.399175e-01 -3.388216e-01 -3.378363e-01 -3.369696e-01 -3.362142e-01 -3.355781e-01 -3.350538e-01 -3.346493e-01 -3.343569e-01 -3.341845e-01 
-3.332974e-01 -3.333576e-01 -3.335305e-01 -3.338237e-01 -3.342294e-01 -3.347551e-01 -3.353930e-01 -3.361504e-01 -3.370195e-01 -3.380076e-01 -3.391065e-01 -3.403236e-01 -3.416508e-01 -3.430950e-01 -3.446483e-01 -3.463174e-01 -3.480943e-01 -3.499857e-01 -3.519835e-01 -3.540940e-01 -3.563094e-01 -3.586357e-01 -3.610650e-01 -3.636032e-01 -3.662424e-01 -3.689882e-01 -3.718328e-01 -3.747816e-01 -3.778267e-01 -3.809733e-01 -3.842136e-01 -3.875524e-01 -3.909821e-01 -3.945071e-01 -3.981199e-01 -4.018246e-01 -4.056138e-01 -4.094912e-01 -4.134496e-01 -4.174924e-01 -4.216124e-01 -4.258126e-01 -4.300861e-01 -4.344354e-01 -4.388538e-01 -4.433433e-01 -4.478975e-01 -4.525181e-01 -4.571986e-01 -4.619404e-01 -4.667373e-01 -4.715901e-01 -4.764930e-01 -4.814463e-01 -4.864444e-01 -4.914872e-01 -4.965692e-01 -5.016900e-01 -5.068445e-01 -5.120315e-01 -5.172464e-01 -5.224875e-01 -5.277505e-01 -5.330333e-01 -5.383318e-01 -5.436435e-01 -5.489648e-01 -5.542924e-01 -5.596232e-01 -5.649535e-01 -5.702805e-01 -5.756001e-01 -5.809099e-01 -5.862053e-01 -5.914842e-01 -5.967417e-01 -6.019761e-01 -6.071819e-01 -6.123581e-01 -6.174986e-01 -6.226027e-01 -6.276642e-01 -6.326827e-01 -6.376516e-01 -6.425708e-01 -6.474335e-01 -6.522402e-01 -6.569834e-01 -6.616641e-01 -6.662747e-01 -6.708167e-01 -6.752818e-01 -6.796722e-01 -6.839794e-01 -6.882059e-01 -6.923430e-01 -6.963936e-01 -7.003488e-01 -7.042119e-01 -7.079739e-01 -7.116385e-01 -7.151965e-01 -7.186520e-01 -7.219957e-01 -7.252321e-01 -7.283517e-01 -7.313596e-01 -7.342461e-01 -7.370167e-01 -7.396617e-01 -7.421868e-01 -7.445824e-01 -7.468546e-01 -7.489938e-01 -7.510065e-01 -7.528829e-01 -7.546300e-01 -7.562382e-01 -7.577146e-01 -7.590497e-01 -7.602509e-01 -7.613090e-01 -7.622315e-01 -7.630094e-01 -7.636505e-01 -7.641458e-01 -7.645035e-01 -7.647148e-01 -7.647882e-01 -7.647148e-01 -7.645035e-01 -7.641458e-01 -7.636505e-01 -7.630094e-01 -7.622315e-01 -7.613090e-01 -7.602509e-01 -7.590497e-01 -7.577146e-01 -7.562382e-01 -7.546300e-01 -7.528829e-01 -7.510065e-01 -7.489938e-01 -7.468546e-01 -7.445824e-01 -7.421868e-01 -7.396617e-01 -7.370167e-01 -7.342461e-01 -7.313596e-01 -7.283517e-01 -7.252321e-01 -7.219957e-01 -7.186520e-01 -7.151965e-01 -7.116385e-01 -7.079739e-01 -7.042119e-01 -7.003488e-01 -6.963936e-01 -6.923430e-01 -6.882059e-01 -6.839794e-01 -6.796722e-01 -6.752818e-01 -6.708167e-01 -6.662747e-01 -6.616641e-01 -6.569834e-01 -6.522402e-01 -6.474335e-01 -6.425708e-01 -6.376516e-01 -6.326827e-01 -6.276642e-01 -6.226027e-01 -6.174986e-01 -6.123581e-01 -6.071819e-01 -6.019761e-01 -5.967417e-01 -5.914842e-01 -5.862053e-01 -5.809099e-01 -5.756001e-01 -5.702805e-01 -5.649535e-01 -5.596232e-01 -5.542924e-01 -5.489648e-01 -5.436435e-01 -5.383318e-01 -5.330333e-01 -5.277505e-01 -5.224875e-01 -5.172464e-01 -5.120315e-01 -5.068445e-01 -5.016900e-01 -4.965692e-01 -4.914872e-01 -4.864444e-01 -4.814463e-01 -4.764930e-01 -4.715901e-01 -4.667373e-01 -4.619404e-01 -4.571986e-01 -4.525181e-01 -4.478975e-01 -4.433433e-01 -4.388538e-01 -4.344354e-01 -4.300861e-01 -4.258126e-01 -4.216124e-01 -4.174924e-01 -4.134496e-01 -4.094912e-01 -4.056138e-01 -4.018246e-01 -3.981199e-01 -3.945071e-01 -3.909821e-01 -3.875524e-01 -3.842136e-01 -3.809733e-01 -3.778267e-01 -3.747816e-01 -3.718328e-01 -3.689882e-01 -3.662424e-01 -3.636032e-01 -3.610650e-01 -3.586357e-01 -3.563094e-01 -3.540940e-01 -3.519835e-01 -3.499857e-01 -3.480943e-01 -3.463174e-01 -3.446483e-01 -3.430950e-01 -3.416508e-01 -3.403236e-01 -3.391065e-01 -3.380076e-01 -3.370195e-01 -3.361504e-01 -3.353930e-01 -3.347551e-01 -3.342294e-01 -3.338237e-01 -3.335305e-01 -3.333576e-01 