# vtk DataFile Version 2.0
Comment goes here
ASCII

DATASET STRUCTURED_POINTS
FIELD FieldData 1
TIME 1 1 double
0.06000000
DIMENSIONS    256   256   1

ORIGIN    0.000   0.000   0.000
SPACING   0.0039062 0.0039062   1.000

POINT_DATA   65536
SCALARS uY double
LOOKUP_TABLE default

-3.459099e-01 -3.459713e-01 -3.461461e-01 -3.464437e-01 -3.468546e-01 -3.473879e-01 -3.480341e-01 -3.488022e-01 -3.496828e-01 -3.506845e-01 -3.517979e-01 -3.530317e-01 -3.543762e-01 -3.558400e-01 -3.574134e-01 -3.591047e-01 -3.609044e-01 -3.628206e-01 -3.648436e-01 -3.669813e-01 -3.692242e-01 -3.715799e-01 -3.740389e-01 -3.766085e-01 -3.792793e-01 -3.820582e-01 -3.849362e-01 -3.879197e-01 -3.909996e-01 -3.941822e-01 -3.974585e-01 -4.008345e-01 -4.043012e-01 -4.078642e-01 -4.115148e-01 -4.152580e-01 -4.190855e-01 -4.230019e-01 -4.269989e-01 -4.310807e-01 -4.352393e-01 -4.394784e-01 -4.437902e-01 -4.481780e-01 -4.526342e-01 -4.571616e-01 -4.617530e-01 -4.664105e-01 -4.711273e-01 -4.759050e-01 -4.807371e-01 -4.856246e-01 -4.905613e-01 -4.955478e-01 -5.005782e-01 -5.056525e-01 -5.107652e-01 -5.159157e-01 -5.210989e-01 -5.263137e-01 -5.315554e-01 -5.368223e-01 -5.421101e-01 -5.474164e-01 -5.527375e-01 -5.580706e-01 -5.634121e-01 -5.687588e-01 -5.741076e-01 -5.794546e-01 -5.847973e-01 -5.901312e-01 -5.954544e-01 -6.007617e-01 -6.060517e-01 -6.113188e-01 -6.165619e-01 -6.217751e-01 -6.269578e-01 -6.321034e-01 -6.372120e-01 -6.422764e-01 -6.472972e-01 -6.522670e-01 -6.571867e-01 -6.620484e-01 -6.668536e-01 -6.715941e-01 -6.762718e-01 -6.808780e-01 -6.854153e-01 -6.898747e-01 -6.942591e-01 -6.985593e-01 -7.027786e-01 -7.069076e-01 -7.109501e-01 -7.148963e-01 -7.187505e-01 -7.225028e-01 -7.261580e-01 -7.297058e-01 -7.331515e-01 -7.364847e-01 -7.397111e-01 -7.428202e-01 -7.458181e-01 -7.486941e-01 -7.514550e-01 -7.540897e-01 -7.566055e-01 -7.589914e-01 -7.612548e-01 -7.633849e-01 -7.653895e-01 -7.672577e-01 -7.689976e-01 -7.705983e-01 -7.720685e-01 -7.733973e-01 -7.745934e-01 -7.756462e-01 -7.765649e-01 -7.773387e-01 -7.779772e-01 -7.784698e-01 -7.788263e-01 -7.790362e-01 -7.791096e-01 -7.790362e-01 -7.788263e-01 -7.784698e-01 -7.779772e-01 -7.773387e-01 -7.765649e-01 -7.756462e-01 -7.745934e-01 -7.733973e-01 -7.720685e-01 -7.705983e-01 -7.689976e-01 -7.672577e-01 -7.653895e-01 -7.633849e-01 -7.612548e-01 -7.589914e-01 -7.566055e-01 -7.540897e-01 -7.514550e-01 -7.486941e-01 -7.458181e-01 -7.428202e-01 -7.397111e-01 -7.364847e-01 -7.331515e-01 -7.297058e-01 -7.261580e-01 -7.225028e-01 -7.187505e-01 -7.148963e-01 -7.109501e-01 -7.069076e-01 -7.027786e-01 -6.985593e-01 -6.942591e-01 -6.898747e-01 -6.854153e-01 -6.808780e-01 -6.762718e-01 -6.715941e-01 -6.668536e-01 -6.620484e-01 -6.571867e-01 -6.522670e-01 -6.472972e-01 -6.422764e-01 -6.372120e-01 -6.321034e-01 -6.269578e-01 -6.217751e-01 -6.165619e-01 -6.113188e-01 -6.060517e-01 -6.007617e-01 -5.954544e-01 -5.901312e-01 -5.847973e-01 -5.794546e-01 -5.741076e-01 -5.687588e-01 -5.634121e-01 -5.580706e-01 -5.527375e-01 -5.474164e-01 -5.421101e-01 -5.368223e-01 -5.315554e-01 -5.263137e-01 -5.210989e-01 -5.159157e-01 -5.107652e-01 -5.056525e-01 -5.005782e-01 -4.955478e-01 -4.905613e-01 -4.856246e-01 -4.807371e-01 -4.759050e-01 -4.711273e-01 -4.664105e-01 -4.617530e-01 -4.571616e-01 -4.526342e-01 -4.481780e-01 -4.437902e-01 -4.394784e-01 -4.352393e-01 -4.310807e-01 -4.269989e-01 -4.230019e-01 -4.190855e-01 -4.152580e-01 -4.115148e-01 -4.078642e-01 -4.043012e-01 -4.008345e-01 -3.974585e-01 -3.941822e-01 -3.909996e-01 -3.879197e-01 -3.849362e-01 -3.820582e-01 -3.792793e-01 -3.766085e-01 -3.740389e-01 -3.715799e-01 -3.692242e-01 -3.669813e-01 -3.648436e-01 -3.628206e-01 -3.609044e-01 -3.591047e-01 -3.574134e-01 -3.558400e-01 -3.543762e-01 -3.530317e-01 -3.517979e-01 -3.506845e-01 -3.496828e-01 -3.488022e-01 -3.480341e-01 -3.473879e-01 -3.468546e-01 -3.464437e-01 -3.461461e-01 -3.459713e-01 
-3.459644e-01 -3.460258e-01 -3.462007e-01 -3.464983e-01 -3.469092e-01 -3.474426e-01 -3.480889e-01 -3.488571e-01 -3.497377e-01 -3.507396e-01 -3.518531e-01 -3.530870e-01 -3.544317e-01 -3.558956e-01 -3.574692e-01 -3.591607e-01 -3.609606e-01 -3.628769e-01 -3.649001e-01 -3.670380e-01 -3.692811e-01 -3.716369e-01 -3.740961e-01 -3.766658e-01 -3.793368e-01 -3.821159e-01 -3.849940e-01 -3.879776e-01 -3.910577e-01 -3.942404e-01 -3.975168e-01 -4.008928e-01 -4.043596e-01 -4.079226e-01 -4.115731e-01 -4.153164e-01 -4.191438e-01 -4.230601e-01 -4.270569e-01 -4.311386e-01 -4.352969e-01 -4.395357e-01 -4.438472e-01 -4.482347e-01 -4.526905e-01 -4.572175e-01 -4.618083e-01 -4.664653e-01 -4.711814e-01 -4.759584e-01 -4.807897e-01 -4.856764e-01 -4.906122e-01 -4.955977e-01 -5.006270e-01 -5.057002e-01 -5.108117e-01 -5.159610e-01 -5.211429e-01 -5.263563e-01 -5.315965e-01 -5.368617e-01 -5.421478e-01 -5.474525e-01 -5.527717e-01 -5.581029e-01 -5.634424e-01 -5.687870e-01 -5.741336e-01 -5.794784e-01 -5.848188e-01 -5.901503e-01 -5.954710e-01 -6.007758e-01 -6.060631e-01 -6.113275e-01 -6.165679e-01 -6.217783e-01 -6.269581e-01 -6.321008e-01 -6.372063e-01 -6.422677e-01 -6.472854e-01 -6.522520e-01 -6.571685e-01 -6.620269e-01 -6.668289e-01 -6.715660e-01 -6.762404e-01 -6.808433e-01 -6.853772e-01 -6.898332e-01 -6.942143e-01 -6.985110e-01 -7.027270e-01 -7.068526e-01 -7.108918e-01 -7.148346e-01 -7.186856e-01 -7.224346e-01 -7.260866e-01 -7.296312e-01 -7.330738e-01 -7.364040e-01 -7.396274e-01 -7.427336e-01 -7.457286e-01 -7.486019e-01 -7.513601e-01 -7.539923e-01 -7.565056e-01 -7.588891e-01 -7.611503e-01 -7.632782e-01 -7.652808e-01 -7.671470e-01 -7.688851e-01 -7.704842e-01 -7.719529e-01 -7.732802e-01 -7.744751e-01 -7.755269e-01 -7.764445e-01 -7.772176e-01 -7.778554e-01 -7.783475e-01 -7.787035e-01 -7.789132e-01 -7.789865e-01 -7.789132e-01 -7.787035e-01 -7.783475e-01 -7.778554e-01 -7.772176e-01 -7.764445e-01 -7.755269e-01 -7.744751e-01 -7.732802e-01 -7.719529e-01 -7.704842e-01 -7.688851e-01 -7.671470e-01 -7.652808e-01 -7.632782e-01 -7.611503e-01 -7.588891e-01 -7.565056e-01 -7.539923e-01 -7.513601e-01 -7.486019e-01 -7.457286e-01 -7.427336e-01 -7.396274e-01 -7.364040e-01 -7.330738e-01 -7.296312e-01 -7.260866e-01 -7.224346e-01 -7.186856e-01 -7.148346e-01 -7.108918e-01 -7.068526e-01 -7.027270e-01 -6.985110e-01 -6.942143e-01 -6.898332e-01 -6.853772e-01 -6.808433e-01 -6.762404e-01 -6.715660e-01 -6.668289e-01 -6.620269e-01 -6.571685e-01 -6.522520e-01 -6.472854e-01 -6.422677e-01 -6.372063e-01 -6.321008e-01 -6.269581e-01 -6.217783e-01 -6.165679e-01 -6.113275e-01 -6.060631e-01 -6.007758e-01 -5.954710e-01 -5.901503e-01 -5.848188e-01 -5.794784e-01 -5.741336e-01 -5.687870e-01 -5.634424e-01 -5.581029e-01 -5.527717e-01 -5.474525e-01 -5.421478e-01 -5.368617e-01 -5.315965e-01 -5.263563e-01 -5.211429e-01 -5.159610e-01 -5.108117e-01 -5.057002e-01 -5.006270e-01 -4.955977e-01 -4.906122e-01 -4.856764e-01 -4.807897e-01 -4.759584e-01 -4.711814e-01 -4.664653e-01 -4.618083e-01 -4.572175e-01 -4.526905e-01 -4.482347e-01 -4.438472e-01 -4.395357e-01 -4.352969e-01 -4.311386e-01 -4.270569e-01 -4.230601e-01 -4.191438e-01 -4.153164e-01 -4.115731e-01 -4.079226e-01 -4.043596e-01 -4.008928e-01 -3.975168e-01 -3.942404e-01 -3.910577e-01 -3.879776e-01 -3.849940e-01 -3.821159e-01 -3.793368e-01 -3.766658e-01 -3.740961e-01 -3.716369e-01 -3.692811e-01 -3.670380e-01 -3.649001e-01 -3.628769e-01 -3.609606e-01 -3.591607e-01 -3.574692e-01 -3.558956e-01 -3.544317e-01 -3.530870e-01 -3.518531e-01 -3.507396e-01 -3.497377e-01 -3.488571e-01 -3.480889e-01 -3.474426e-01 -3.469092e-01 -3.464983e-01 -3.462007e-01 -3.460258e-01 
-3.459008e-01 -3.459622e-01 -3.461372e-01 -3.464350e-01 -3.468461e-01 -3.473798e-01 -3.480264e-01 -3.487950e-01 -3.496761e-01 -3.506785e-01 -3.517926e-01 -3.530271e-01 -3.543725e-01 -3.558371e-01 -3.574115e-01 -3.591039e-01 -3.609047e-01 -3.628220e-01 -3.648462e-01 -3.669852e-01 -3.692294e-01 -3.715865e-01 -3.740469e-01 -3.766179e-01 -3.792902e-01 -3.820708e-01 -3.849503e-01 -3.879354e-01 -3.910169e-01 -3.942012e-01 -3.974792e-01 -4.008569e-01 -4.043253e-01 -4.078900e-01 -4.115423e-01 -4.152873e-01 -4.191165e-01 -4.230346e-01 -4.270333e-01 -4.311168e-01 -4.352770e-01 -4.395177e-01 -4.438311e-01 -4.482204e-01 -4.526782e-01 -4.572070e-01 -4.617998e-01 -4.664587e-01 -4.711767e-01 -4.759556e-01 -4.807888e-01 -4.856773e-01 -4.906150e-01 -4.956024e-01 -5.006335e-01 -5.057085e-01 -5.108217e-01 -5.159727e-01 -5.211562e-01 -5.263713e-01 -5.316131e-01 -5.368799e-01 -5.421675e-01 -5.474736e-01 -5.527943e-01 -5.581267e-01 -5.634676e-01 -5.688134e-01 -5.741612e-01 -5.795071e-01 -5.848485e-01 -5.901811e-01 -5.955027e-01 -6.008083e-01 -6.060964e-01 -6.113616e-01 -6.166026e-01 -6.218136e-01 -6.269938e-01 -6.321370e-01 -6.372429e-01 -6.423046e-01 -6.473225e-01 -6.522893e-01 -6.572059e-01 -6.620644e-01 -6.668663e-01 -6.716034e-01 -6.762776e-01 -6.808803e-01 -6.854140e-01 -6.898697e-01 -6.942504e-01 -6.985468e-01 -7.027624e-01 -7.068875e-01 -7.109261e-01 -7.148684e-01 -7.187189e-01 -7.224673e-01 -7.261186e-01 -7.296626e-01 -7.331045e-01 -7.364340e-01 -7.396568e-01 -7.427622e-01 -7.457566e-01 -7.486292e-01 -7.513867e-01 -7.540182e-01 -7.565308e-01 -7.589137e-01 -7.611742e-01 -7.633016e-01 -7.653035e-01 -7.671692e-01 -7.689068e-01 -7.705054e-01 -7.719736e-01 -7.733005e-01 -7.744950e-01 -7.755464e-01 -7.764638e-01 -7.772366e-01 -7.778742e-01 -7.783661e-01 -7.787220e-01 -7.789317e-01 -7.790049e-01 -7.789317e-01 -7.787220e-01 -7.783661e-01 -7.778742e-01 -7.772366e-01 -7.764638e-01 -7.755464e-01 -7.744950e-01 -7.733005e-01 -7.719736e-01 -7.705054e-01 -7.689068e-01 -7.671692e-01 -7.653035e-01 -7.633016e-01 -7.611742e-01 -7.589137e-01 -7.565308e-01 -7.540182e-01 -7.513867e-01 -7.486292e-01 -7.457566e-01 -7.427622e-01 -7.396568e-01 -7.364340e-01 -7.331045e-01 -7.296626e-01 -7.261186e-01 -7.224673e-01 -7.187189e-01 -7.148684e-01 -7.109261e-01 -7.068875e-01 -7.027624e-01 -6.985468e-01 -6.942504e-01 -6.898697e-01 -6.854140e-01 -6.808803e-01 -6.762776e-01 -6.716034e-01 -6.668663e-01 -6.620644e-01 -6.572059e-01 -6.522893e-01 -6.473225e-01 -6.423046e-01 -6.372429e-01 -6.321370e-01 -6.269938e-01 -6.218136e-01 -6.166026e-01 -6.113616e-01 -6.060964e-01 -6.008083e-01 -5.955027e-01 -5.901811e-01 -5.848485e-01 -5.795071e-01 -5.741612e-01 -5.688134e-01 -5.634676e-01 -5.581267e-01 -5.527943e-01 -5.474736e-01 -5.421675e-01 -5.368799e-01 -5.316131e-01 -5.263713e-01 -5.211562e-01 -5.159727e-01 -5.108217e-01 -5.057085e-01 -5.006335e-01 -4.956024e-01 -4.906150e-01 -4.856773e-01 -4.807888e-01 -4.759556e-01 -4.711767e-01 -4.664587e-01 -4.617998e-01 -4.572070e-01 -4.526782e-01 -4.482204e-01 -4.438311e-01 -4.395177e-01 -4.352770e-01 -4.311168e-01 -4.270333e-01 -4.230346e-01 -4.191165e-01 -4.152873e-01 -4.115423e-01 -4.078900e-01 -4.043253e-01 -4.008569e-01 -3.974792e-01 -3.942012e-01 -3.910169e-01 -3.879354e-01 -3.849503e-01 -3.820708e-01 -3.792902e-01 -3.766179e-01 -3.740469e-01 -3.715865e-01 -3.692294e-01 -3.669852e-01 -3.648462e-01 -3.628220e-01 -3.609047e-01 -3.591039e-01 -3.574115e-01 -3.558371e-01 -3.543725e-01 -3.530271e-01 -3.517926e-01 -3.506785e-01 -3.496761e-01 -3.487950e-01 -3.480264e-01 -3.473798e-01 -3.468461e-01 -3.464350e-01 -3.461372e-01 -3.459622e-01 
-3.457190e-01 -3.457805e-01 -3.459556e-01 -3.462537e-01 -3.466652e-01 -3.471993e-01 -3.478465e-01 -3.486158e-01 -3.494977e-01 -3.505011e-01 -3.516162e-01 -3.528519e-01 -3.541984e-01 -3.556645e-01 -3.572403e-01 -3.589343e-01 -3.607367e-01 -3.626558e-01 -3.646819e-01 -3.668229e-01 -3.690692e-01 -3.714285e-01 -3.738912e-01 -3.764647e-01 -3.791395e-01 -3.819226e-01 -3.848049e-01 -3.877928e-01 -3.908772e-01 -3.940646e-01 -3.973457e-01 -4.007265e-01 -4.041982e-01 -4.077663e-01 -4.114221e-01 -4.151707e-01 -4.190036e-01 -4.229254e-01 -4.269279e-01 -4.310153e-01 -4.351794e-01 -4.394242e-01 -4.437417e-01 -4.481352e-01 -4.525972e-01 -4.571304e-01 -4.617275e-01 -4.663907e-01 -4.711132e-01 -4.758967e-01 -4.807343e-01 -4.856275e-01 -4.905697e-01 -4.955617e-01 -5.005975e-01 -5.056771e-01 -5.107951e-01 -5.159507e-01 -5.211390e-01 -5.263588e-01 -5.316052e-01 -5.368768e-01 -5.421691e-01 -5.474798e-01 -5.528051e-01 -5.581422e-01 -5.634877e-01 -5.688380e-01 -5.741904e-01 -5.795407e-01 -5.848866e-01 -5.902235e-01 -5.955494e-01 -6.008593e-01 -6.061516e-01 -6.114209e-01 -6.166660e-01 -6.218810e-01 -6.270652e-01 -6.322121e-01 -6.373218e-01 -6.423872e-01 -6.474087e-01 -6.523790e-01 -6.572990e-01 -6.621609e-01 -6.669661e-01 -6.717063e-01 -6.763836e-01 -6.809893e-01 -6.855258e-01 -6.899843e-01 -6.943677e-01 -6.986667e-01 -7.028848e-01 -7.070123e-01 -7.110533e-01 -7.149978e-01 -7.188504e-01 -7.226008e-01 -7.262541e-01 -7.298000e-01 -7.332437e-01 -7.365748e-01 -7.397992e-01 -7.429062e-01 -7.459020e-01 -7.487760e-01 -7.515348e-01 -7.541675e-01 -7.566813e-01 -7.590652e-01 -7.613267e-01 -7.634550e-01 -7.654578e-01 -7.673243e-01 -7.690626e-01 -7.706619e-01 -7.721307e-01 -7.734581e-01 -7.746531e-01 -7.757049e-01 -7.766227e-01 -7.773958e-01 -7.780336e-01 -7.785257e-01 -7.788818e-01 -7.790915e-01 -7.791648e-01 -7.790915e-01 -7.788818e-01 -7.785257e-01 -7.780336e-01 -7.773958e-01 -7.766227e-01 -7.757049e-01 -7.746531e-01 -7.734581e-01 -7.721307e-01 -7.706619e-01 -7.690626e-01 -7.673243e-01 -7.654578e-01 -7.634550e-01 -7.613267e-01 -7.590652e-01 -7.566813e-01 -7.541675e-01 -7.515348e-01 -7.487760e-01 -7.459020e-01 -7.429062e-01 -7.397992e-01 -7.365748e-01 -7.332437e-01 -7.298000e-01 -7.262541e-01 -7.226008e-01 -7.188504e-01 -7.149978e-01 -7.110533e-01 -7.070123e-01 -7.028848e-01 -6.986667e-01 -6.943677e-01 -6.899843e-01 -6.855258e-01 -6.809893e-01 -6.763836e-01 -6.717063e-01 -6.669661e-01 -6.621609e-01 -6.572990e-01 -6.523790e-01 -6.474087e-01 -6.423872e-01 -6.373218e-01 -6.322121e-01 -6.270652e-01 -6.218810e-01 -6.166660e-01 -6.114209e-01 -6.061516e-01 -6.008593e-01 -5.955494e-01 -5.902235e-01 -5.848866e-01 -5.795407e-01 -5.741904e-01 -5.688380e-01 -5.634877e-01 -5.581422e-01 -5.528051e-01 -5.474798e-01 -5.421691e-01 -5.368768e-01 -5.316052e-01 -5.263588e-01 -5.211390e-01 -5.159507e-01 -5.107951e-01 -5.056771e-01 -5.005975e-01 -4.955617e-01 -4.905697e-01 -4.856275e-01 -4.807343e-01 -4.758967e-01 -4.711132e-01 -4.663907e-01 -4.617275e-01 -4.571304e-01 -4.525972e-01 -4.481352e-01 -4.437417e-01 -4.394242e-01 -4.351794e-01 -4.310153e-01 -4.269279e-01 -4.229254e-01 -4.190036e-01 -4.151707e-01 -4.114221e-01 -4.077663e-01 -4.041982e-01 -4.007265e-01 -3.973457e-01 -3.940646e-01 -3.908772e-01 -3.877928e-01 -3.848049e-01 -3.819226e-01 -3.791395e-01 -3.764647e-01 -3.738912e-01 -3.714285e-01 -3.690692e-01 -3.668229e-01 -3.646819e-01 -3.626558e-01 -3.607367e-01 -3.589343e-01 -3.572403e-01 -3.556645e-01 -3.541984e-01 -3.528519e-01 -3.516162e-01 -3.505011e-01 -3.494977e-01 -3.486158e-01 -3.478465e-01 -3.471993e-01 -3.466652e-01 -3.462537e-01 -3.459556e-01 -3.457805e-01 
-3.454189e-01 -3.454805e-01 -3.456558e-01 -3.459543e-01 -3.463663e-01 -3.469011e-01 -3.475492e-01 -3.483196e-01 -3.492026e-01 -3.502073e-01 -3.513239e-01 -3.525612e-01 -3.539096e-01 -3.553776e-01 -3.569555e-01 -3.586517e-01 -3.604566e-01 -3.623783e-01 -3.644071e-01 -3.665510e-01 -3.688004e-01 -3.711629e-01 -3.736290e-01 -3.762060e-01 -3.788845e-01 -3.816715e-01 -3.845577e-01 -3.875498e-01 -3.906386e-01 -3.938304e-01 -3.971162e-01 -4.005018e-01 -4.039784e-01 -4.075516e-01 -4.112126e-01 -4.149666e-01 -4.188049e-01 -4.227324e-01 -4.267407e-01 -4.308340e-01 -4.350043e-01 -4.392552e-01 -4.435791e-01 -4.479790e-01 -4.524475e-01 -4.569874e-01 -4.615913e-01 -4.662615e-01 -4.709910e-01 -4.757815e-01 -4.806264e-01 -4.855268e-01 -4.904764e-01 -4.954758e-01 -5.005191e-01 -5.056063e-01 -5.107319e-01 -5.158953e-01 -5.210912e-01 -5.263188e-01 -5.315731e-01 -5.368525e-01 -5.421526e-01 -5.474712e-01 -5.528044e-01 -5.581494e-01 -5.635027e-01 -5.688610e-01 -5.742211e-01 -5.795793e-01 -5.849330e-01 -5.902777e-01 -5.956113e-01 -6.009289e-01 -6.062288e-01 -6.115056e-01 -6.167582e-01 -6.219806e-01 -6.271721e-01 -6.323263e-01 -6.374431e-01 -6.425156e-01 -6.475441e-01 -6.525213e-01 -6.574480e-01 -6.623165e-01 -6.671282e-01 -6.718748e-01 -6.765583e-01 -6.811702e-01 -6.857127e-01 -6.901771e-01 -6.945662e-01 -6.988708e-01 -7.030943e-01 -7.072271e-01 -7.112732e-01 -7.152227e-01 -7.190801e-01 -7.228353e-01 -7.264931e-01 -7.300433e-01 -7.334913e-01 -7.368265e-01 -7.400548e-01 -7.431655e-01 -7.461649e-01 -7.490423e-01 -7.518044e-01 -7.544402e-01 -7.569569e-01 -7.593436e-01 -7.616078e-01 -7.637385e-01 -7.657436e-01 -7.676122e-01 -7.693525e-01 -7.709536e-01 -7.724241e-01 -7.737530e-01 -7.749494e-01 -7.760024e-01 -7.769211e-01 -7.776951e-01 -7.783336e-01 -7.788263e-01 -7.791828e-01 -7.793927e-01 -7.794661e-01 -7.793927e-01 -7.791828e-01 -7.788263e-01 -7.783336e-01 -7.776951e-01 -7.769211e-01 -7.760024e-01 -7.749494e-01 -7.737530e-01 -7.724241e-01 -7.709536e-01 -7.693525e-01 -7.676122e-01 -7.657436e-01 -7.637385e-01 -7.616078e-01 -7.593436e-01 -7.569569e-01 -7.544402e-01 -7.518044e-01 -7.490423e-01 -7.461649e-01 -7.431655e-01 -7.400548e-01 -7.368265e-01 -7.334913e-01 -7.300433e-01 -7.264931e-01 -7.228353e-01 -7.190801e-01 -7.152227e-01 -7.112732e-01 -7.072271e-01 -7.030943e-01 -6.988708e-01 -6.945662e-01 -6.901771e-01 -6.857127e-01 -6.811702e-01 -6.765583e-01 -6.718748e-01 -6.671282e-01 -6.623165e-01 -6.574480e-01 -6.525213e-01 -6.475441e-01 -6.425156e-01 -6.374431e-01 -6.323263e-01 -6.271721e-01 -6.219806e-01 -6.167582e-01 -6.115056e-01 -6.062288e-01 -6.009289e-01 -5.956113e-01 -5.902777e-01 -5.849330e-01 -5.795793e-01 -5.742211e-01 -5.688610e-01 -5.635027e-01 -5.581494e-01 -5.528044e-01 -5.474712e-01 -5.421526e-01 -5.368525e-01 -5.315731e-01 -5.263188e-01 -5.210912e-01 -5.158953e-01 -5.107319e-01 -5.056063e-01 -5.005191e-01 -4.954758e-01 -4.904764e-01 -4.855268e-01 -4.806264e-01 -4.757815e-01 -4.709910e-01 -4.662615e-01 -4.615913e-01 -4.569874e-01 -4.524475e-01 -4.479790e-01 -4.435791e-01 -4.392552e-01 -4.350043e-01 -4.308340e-01 -4.267407e-01 -4.227324e-01 -4.188049e-01 -4.149666e-01 -4.112126e-01 -4.075516e-01 -4.039784e-01 -4.005018e-01 -3.971162e-01 -3.938304e-01 -3.906386e-01 -3.875498e-01 -3.845577e-01 -3.816715e-01 -3.788845e-01 -3.762060e-01 -3.736290e-01 -3.711629e-01 -3.688004e-01 -3.665510e-01 -3.644071e-01 -3.623783e-01 -3.604566e-01 -3.586517e-01 -3.569555e-01 -3.553776e-01 -3.539096e-01 -3.525612e-01 -3.513239e-01 -3.502073e-01 -3.492026e-01 -3.483196e-01 -3.475492e-01 -3.469011e-01 -3.463663e-01 -3.459543e-01 -3.456558e-01 -3.454805e-01 
-3.450002e-01 -3.450619e-01 -3.452376e-01 -3.455366e-01 -3.459493e-01 -3.464851e-01 -3.471342e-01 -3.479059e-01 -3.487905e-01 -3.497969e-01 -3.509154e-01 -3.521549e-01 -3.535056e-01 -3.549762e-01 -3.565568e-01 -3.582561e-01 -3.600641e-01 -3.619892e-01 -3.640216e-01 -3.661694e-01 -3.684228e-01 -3.707895e-01 -3.732600e-01 -3.758417e-01 -3.785250e-01 -3.813172e-01 -3.842087e-01 -3.872063e-01 -3.903008e-01 -3.934985e-01 -3.967904e-01 -4.001824e-01 -4.036656e-01 -4.072456e-01 -4.109135e-01 -4.146747e-01 -4.185204e-01 -4.224555e-01 -4.264716e-01 -4.305729e-01 -4.347513e-01 -4.390106e-01 -4.433430e-01 -4.477516e-01 -4.522291e-01 -4.567780e-01 -4.613911e-01 -4.660707e-01 -4.708098e-01 -4.756100e-01 -4.804647e-01 -4.853751e-01 -4.903348e-01 -4.953445e-01 -5.003982e-01 -5.054959e-01 -5.106320e-01 -5.158061e-01 -5.210129e-01 -5.262512e-01 -5.315165e-01 -5.368068e-01 -5.421180e-01 -5.474477e-01 -5.527921e-01 -5.581482e-01 -5.635127e-01 -5.688822e-01 -5.742536e-01 -5.796229e-01 -5.849878e-01 -5.903436e-01 -5.956884e-01 -6.010170e-01 -6.063280e-01 -6.116158e-01 -6.168793e-01 -6.221125e-01 -6.273148e-01 -6.324796e-01 -6.376070e-01 -6.426899e-01 -6.477287e-01 -6.527161e-01 -6.576529e-01 -6.625313e-01 -6.673528e-01 -6.721090e-01 -6.768020e-01 -6.814232e-01 -6.859749e-01 -6.904482e-01 -6.948461e-01 -6.991592e-01 -7.033911e-01 -7.075321e-01 -7.115862e-01 -7.155435e-01 -7.194084e-01 -7.231709e-01 -7.268359e-01 -7.303930e-01 -7.338476e-01 -7.371892e-01 -7.404237e-01 -7.435404e-01 -7.465456e-01 -7.494284e-01 -7.521957e-01 -7.548365e-01 -7.573580e-01 -7.597492e-01 -7.620176e-01 -7.641523e-01 -7.661612e-01 -7.680333e-01 -7.697768e-01 -7.713809e-01 -7.728541e-01 -7.741855e-01 -7.753840e-01 -7.764390e-01 -7.773594e-01 -7.781348e-01 -7.787745e-01 -7.792681e-01 -7.796252e-01 -7.798356e-01 -7.799091e-01 -7.798356e-01 -7.796252e-01 -7.792681e-01 -7.787745e-01 -7.781348e-01 -7.773594e-01 -7.764390e-01 -7.753840e-01 -7.741855e-01 -7.728541e-01 -7.713809e-01 -7.697768e-01 -7.680333e-01 -7.661612e-01 -7.641523e-01 -7.620176e-01 -7.597492e-01 -7.573580e-01 -7.548365e-01 -7.521957e-01 -7.494284e-01 -7.465456e-01 -7.435404e-01 -7.404237e-01 -7.371892e-01 -7.338476e-01 -7.303930e-01 -7.268359e-01 -7.231709e-01 -7.194084e-01 -7.155435e-01 -7.115862e-01 -7.075321e-01 -7.033911e-01 -6.991592e-01 -6.948461e-01 -6.904482e-01 -6.859749e-01 -6.814232e-01 -6.768020e-01 -6.721090e-01 -6.673528e-01 -6.625313e-01 -6.576529e-01 -6.527161e-01 -6.477287e-01 -6.426899e-01 -6.376070e-01 -6.324796e-01 -6.273148e-01 -6.221125e-01 -6.168793e-01 -6.116158e-01 -6.063280e-01 -6.010170e-01 -5.956884e-01 -5.903436e-01 -5.849878e-01 -5.796229e-01 -5.742536e-01 -5.688822e-01 -5.635127e-01 -5.581482e-01 -5.527921e-01 -5.474477e-01 -5.421180e-01 -5.368068e-01 -5.315165e-01 -5.262512e-01 -5.210129e-01 -5.158061e-01 -5.106320e-01 -5.054959e-01 -5.003982e-01 -4.953445e-01 -4.903348e-01 -4.853751e-01 -4.804647e-01 -4.756100e-01 -4.708098e-01 -4.660707e-01 -4.613911e-01 -4.567780e-01 -4.522291e-01 -4.477516e-01 -4.433430e-01 -4.390106e-01 -4.347513e-01 -4.305729e-01 -4.264716e-01 -4.224555e-01 -4.185204e-01 -4.146747e-01 -4.109135e-01 -4.072456e-01 -4.036656e-01 -4.001824e-01 -3.967904e-01 -3.934985e-01 -3.903008e-01 -3.872063e-01 -3.842087e-01 -3.813172e-01 -3.785250e-01 -3.758417e-01 -3.732600e-01 -3.707895e-01 -3.684228e-01 -3.661694e-01 -3.640216e-01 -3.619892e-01 -3.600641e-01 -3.582561e-01 -3.565568e-01 -3.549762e-01 -3.535056e-01 -3.521549e-01 -3.509154e-01 -3.497969e-01 -3.487905e-01 -3.479059e-01 -3.471342e-01 -3.464851e-01 -3.459493e-01 -3.455366e-01 -3.452376e-01 -3.450619e-01 
-3.444630e-01 -3.445248e-01 -3.447009e-01 -3.450005e-01 -3.454141e-01 -3.459510e-01 -3.466015e-01 -3.473748e-01 -3.482613e-01 -3.492698e-01 -3.503907e-01 -3.516329e-01 -3.529865e-01 -3.544602e-01 -3.560443e-01 -3.577472e-01 -3.595591e-01 -3.614884e-01 -3.635253e-01 -3.656778e-01 -3.679361e-01 -3.703081e-01 -3.727842e-01 -3.753716e-01 -3.780610e-01 -3.808595e-01 -3.837576e-01 -3.867620e-01 -3.898637e-01 -3.930688e-01 -3.963683e-01 -3.997683e-01 -4.032597e-01 -4.068481e-01 -4.105248e-01 -4.142949e-01 -4.181499e-01 -4.220945e-01 -4.261203e-01 -4.302317e-01 -4.344204e-01 -4.386902e-01 -4.430333e-01 -4.474530e-01 -4.519417e-01 -4.565021e-01 -4.611269e-01 -4.658184e-01 -4.705695e-01 -4.753821e-01 -4.802493e-01 -4.851724e-01 -4.901450e-01 -4.951678e-01 -5.002347e-01 -5.053458e-01 -5.104955e-01 -5.156832e-01 -5.209038e-01 -5.261561e-01 -5.314354e-01 -5.367399e-01 -5.420654e-01 -5.474094e-01 -5.527681e-01 -5.581387e-01 -5.635177e-01 -5.689017e-01 -5.742876e-01 -5.796716e-01 -5.850510e-01 -5.904214e-01 -5.957807e-01 -6.011239e-01 -6.064493e-01 -6.117515e-01 -6.170294e-01 -6.222768e-01 -6.274932e-01 -6.326722e-01 -6.378135e-01 -6.429102e-01 -6.479628e-01 -6.529636e-01 -6.579139e-01 -6.628055e-01 -6.676400e-01 -6.724091e-01 -6.771148e-01 -6.817484e-01 -6.863124e-01 -6.907977e-01 -6.952074e-01 -6.995321e-01 -7.037753e-01 -7.079274e-01 -7.119923e-01 -7.159601e-01 -7.198353e-01 -7.236078e-01 -7.272825e-01 -7.308490e-01 -7.343127e-01 -7.376631e-01 -7.409061e-01 -7.440310e-01 -7.470440e-01 -7.499344e-01 -7.527089e-01 -7.553566e-01 -7.578846e-01 -7.602820e-01 -7.625563e-01 -7.646966e-01 -7.667107e-01 -7.685876e-01 -7.703356e-01 -7.719438e-01 -7.734208e-01 -7.747556e-01 -7.759572e-01 -7.770149e-01 -7.779377e-01 -7.787151e-01 -7.793564e-01 -7.798513e-01 -7.802093e-01 -7.804202e-01 -7.804939e-01 -7.804202e-01 -7.802093e-01 -7.798513e-01 -7.793564e-01 -7.787151e-01 -7.779377e-01 -7.770149e-01 -7.759572e-01 -7.747556e-01 -7.734208e-01 -7.719438e-01 -7.703356e-01 -7.685876e-01 -7.667107e-01 -7.646966e-01 -7.625563e-01 -7.602820e-01 -7.578846e-01 -7.553566e-01 -7.527089e-01 -7.499344e-01 -7.470440e-01 -7.440310e-01 -7.409061e-01 -7.376631e-01 -7.343127e-01 -7.308490e-01 -7.272825e-01 -7.236078e-01 -7.198353e-01 -7.159601e-01 -7.119923e-01 -7.079274e-01 -7.037753e-01 -6.995321e-01 -6.952074e-01 -6.907977e-01 -6.863124e-01 -6.817484e-01 -6.771148e-01 -6.724091e-01 -6.676400e-01 -6.628055e-01 -6.579139e-01 -6.529636e-01 -6.479628e-01 -6.429102e-01 -6.378135e-01 -6.326722e-01 -6.274932e-01 -6.222768e-01 -6.170294e-01 -6.117515e-01 -6.064493e-01 -6.011239e-01 -5.957807e-01 -5.904214e-01 -5.850510e-01 -5.796716e-01 -5.742876e-01 -5.689017e-01 -5.635177e-01 -5.581387e-01 -5.527681e-01 -5.474094e-01 -5.420654e-01 -5.367399e-01 -5.314354e-01 -5.261561e-01 -5.209038e-01 -5.156832e-01 -5.104955e-01 -5.053458e-01 -5.002347e-01 -4.951678e-01 -4.901450e-01 -4.851724e-01 -4.802493e-01 -4.753821e-01 -4.705695e-01 -4.658184e-01 -4.611269e-01 -4.565021e-01 -4.519417e-01 -4.474530e-01 -4.430333e-01 -4.386902e-01 -4.344204e-01 -4.302317e-01 -4.261203e-01 -4.220945e-01 -4.181499e-01 -4.142949e-01 -4.105248e-01 -4.068481e-01 -4.032597e-01 -3.997683e-01 -3.963683e-01 -3.930688e-01 -3.898637e-01 -3.867620e-01 -3.837576e-01 -3.808595e-01 -3.780610e-01 -3.753716e-01 -3.727842e-01 -3.703081e-01 -3.679361e-01 -3.656778e-01 -3.635253e-01 -3.614884e-01 -3.595591e-01 -3.577472e-01 -3.560443e-01 -3.544602e-01 -3.529865e-01 -3.516329e-01 -3.503907e-01 -3.492698e-01 -3.482613e-01 -3.473748e-01 -3.466015e-01 -3.459510e-01 -3.454141e-01 -3.450005e-01 -3.447009e-01 -3.445248e-01 
-3.438068e-01 -3.438688e-01 -3.440452e-01 -3.443456e-01 -3.447602e-01 -3.452985e-01 -3.459506e-01 -3.467259e-01 -3.476146e-01 -3.486256e-01 -3.497494e-01 -3.509947e-01 -3.523517e-01 -3.538292e-01 -3.554173e-01 -3.571246e-01 -3.589413e-01 -3.608756e-01 -3.629178e-01 -3.650758e-01 -3.673402e-01 -3.697184e-01 -3.722010e-01 -3.747954e-01 -3.774920e-01 -3.802980e-01 -3.832040e-01 -3.862167e-01 -3.893268e-01 -3.925408e-01 -3.958495e-01 -3.992590e-01 -4.027602e-01 -4.063588e-01 -4.100460e-01 -4.138269e-01 -4.176931e-01 -4.216491e-01 -4.256867e-01 -4.298101e-01 -4.340111e-01 -4.382937e-01 -4.426498e-01 -4.470828e-01 -4.515850e-01 -4.561593e-01 -4.607982e-01 -4.655041e-01 -4.702700e-01 -4.750975e-01 -4.799799e-01 -4.849184e-01 -4.899067e-01 -4.949454e-01 -5.000284e-01 -5.051558e-01 -5.103220e-01 -5.155265e-01 -5.207639e-01 -5.260333e-01 -5.313297e-01 -5.366516e-01 -5.419945e-01 -5.473561e-01 -5.527325e-01 -5.581208e-01 -5.635176e-01 -5.689195e-01 -5.743234e-01 -5.797253e-01 -5.851227e-01 -5.905110e-01 -5.958883e-01 -6.012494e-01 -6.065928e-01 -6.119128e-01 -6.172084e-01 -6.224736e-01 -6.277076e-01 -6.329040e-01 -6.380628e-01 -6.431767e-01 -6.482463e-01 -6.532641e-01 -6.582311e-01 -6.631392e-01 -6.679901e-01 -6.727753e-01 -6.774969e-01 -6.821462e-01 -6.867256e-01 -6.912260e-01 -6.956506e-01 -6.999898e-01 -7.042473e-01 -7.084134e-01 -7.124919e-01 -7.164731e-01 -7.203613e-01 -7.241464e-01 -7.278334e-01 -7.314118e-01 -7.348871e-01 -7.382487e-01 -7.415025e-01 -7.446377e-01 -7.476608e-01 -7.505608e-01 -7.533445e-01 -7.560010e-01 -7.585374e-01 -7.609427e-01 -7.632245e-01 -7.653718e-01 -7.673925e-01 -7.692756e-01 -7.710294e-01 -7.726429e-01 -7.741247e-01 -7.754640e-01 -7.766695e-01 -7.777306e-01 -7.786565e-01 -7.794364e-01 -7.800799e-01 -7.805763e-01 -7.809355e-01 -7.811471e-01 -7.812210e-01 -7.811471e-01 -7.809355e-01 -7.805763e-01 -7.800799e-01 -7.794364e-01 -7.786565e-01 -7.777306e-01 -7.766695e-01 -7.754640e-01 -7.741247e-01 -7.726429e-01 -7.710294e-01 -7.692756e-01 -7.673925e-01 -7.653718e-01 -7.632245e-01 -7.609427e-01 -7.585374e-01 -7.560010e-01 -7.533445e-01 -7.505608e-01 -7.476608e-01 -7.446377e-01 -7.415025e-01 -7.382487e-01 -7.348871e-01 -7.314118e-01 -7.278334e-01 -7.241464e-01 -7.203613e-01 -7.164731e-01 -7.124919e-01 -7.084134e-01 -7.042473e-01 -6.999898e-01 -6.956506e-01 -6.912260e-01 -6.867256e-01 -6.821462e-01 -6.774969e-01 -6.727753e-01 -6.679901e-01 -6.631392e-01 -6.582311e-01 -6.532641e-01 -6.482463e-01 -6.431767e-01 -6.380628e-01 -6.329040e-01 -6.277076e-01 -6.224736e-01 -6.172084e-01 -6.119128e-01 -6.065928e-01 -6.012494e-01 -5.958883e-01 -5.905110e-01 -5.851227e-01 -5.797253e-01 -5.743234e-01 -5.689195e-01 -5.635176e-01 -5.581208e-01 -5.527325e-01 -5.473561e-01 -5.419945e-01 -5.366516e-01 -5.313297e-01 -5.260333e-01 -5.207639e-01 -5.155265e-01 -5.103220e-01 -5.051558e-01 -5.000284e-01 -4.949454e-01 -4.899067e-01 -4.849184e-01 -4.799799e-01 -4.750975e-01 -4.702700e-01 -4.655041e-01 -4.607982e-01 -4.561593e-01 -4.515850e-01 -4.470828e-01 -4.426498e-01 -4.382937e-01 -4.340111e-01 -4.298101e-01 -4.256867e-01 -4.216491e-01 -4.176931e-01 -4.138269e-01 -4.100460e-01 -4.063588e-01 -4.027602e-01 -3.992590e-01 -3.958495e-01 -3.925408e-01 -3.893268e-01 -3.862167e-01 -3.832040e-01 -3.802980e-01 -3.774920e-01 -3.747954e-01 -3.722010e-01 -3.697184e-01 -3.673402e-01 -3.650758e-01 -3.629178e-01 -3.608756e-01 -3.589413e-01 -3.571246e-01 -3.554173e-01 -3.538292e-01 -3.523517e-01 -3.509947e-01 -3.497494e-01 -3.486256e-01 -3.476146e-01 -3.467259e-01 -3.459506e-01 -3.452985e-01 -3.447602e-01 -3.443456e-01 -3.440452e-01 -3.438688e-01 