# vtk DataFile Version 2.0
fMag
ASCII
DATASET UNSTRUCTURED_GRID

FIELD FieldData 1
TIME 1 1 double
0.05000000
POINTS 384 float
2.499993750359946e-01 5.000024650272133e-01 0.000000000000000e+00
2.519558882502412e-01 5.003464374267917e-01 0.000000000000000e+00
2.539245379035270e-01 5.008223005052276e-01 0.000000000000000e+00
2.554834660354214e-01 5.010904606477458e-01 0.000000000000000e+00
2.567539638817119e-01 5.012838438303922e-01 0.000000000000000e+00
2.579550354998517e-01 5.015355352821876e-01 0.000000000000000e+00
2.590936613538429e-01 5.018215881926944e-01 0.000000000000000e+00
2.602859902627961e-01 5.021388992517395e-01 0.000000000000000e+00
2.614741778965556e-01 5.024160423889932e-01 0.000000000000000e+00
2.626746942262083e-01 5.026709156387313e-01 0.000000000000000e+00
2.638814986482195e-01 5.029317393846005e-01 0.000000000000000e+00
2.650755978500808e-01 5.031949638682117e-01 0.000000000000000e+00
2.662396258620741e-01 5.034459606631071e-01 0.000000000000000e+00
2.674371944139196e-01 5.037199094887705e-01 0.000000000000000e+00
2.686588146860430e-01 5.039964235077630e-01 0.000000000000000e+00
2.699223691699266e-01 5.042858287882812e-01 0.000000000000000e+00
2.712322734135042e-01 5.045802319515067e-01 0.000000000000000e+00
2.725622940247850e-01 5.048678384181335e-01 0.000000000000000e+00
2.739264155720775e-01 5.051675594160218e-01 0.000000000000000e+00
2.753179657495456e-01 5.054771994677019e-01 0.000000000000000e+00
2.767195614940778e-01 5.057863337470589e-01 0.000000000000000e+00
2.781494992824581e-01 5.061063501672608e-01 0.000000000000000e+00
2.795940440660982e-01 5.064238087051671e-01 0.000000000000000e+00
2.810443666480243e-01 5.067382308983555e-01 0.000000000000000e+00
2.825175427311888e-01 5.070619308220791e-01 0.000000000000000e+00
2.839962143857273e-01 5.073852611883284e-01 0.000000000000000e+00
2.854803658049911e-01 5.077098153939272e-01 0.000000000000000e+00
2.869799313773509e-01 5.080385854682832e-01 0.000000000000000e+00
2.884781924145450e-01 5.083629719830308e-01 0.000000000000000e+00
2.899821408311966e-01 5.086885917662149e-01 0.000000000000000e+00
2.914908788718425e-01 5.090156822773124e-01 0.000000000000000e+00
2.929973835169545e-01 5.093412408956303e-01 0.000000000000000e+00
2.945117182131229e-01 5.096695991588505e-01 0.000000000000000e+00
2.960229055906484e-01 5.099942871991533e-01 0.000000000000000e+00
2.975350528562412e-01 5.103184075089255e-01 0.000000000000000e+00
2.990517521099154e-01 5.106443215295217e-01 0.000000000000000e+00
3.005610414050938e-01 5.109664729040105e-01 0.000000000000000e+00
3.020746011893155e-01 5.112906627383813e-01 0.000000000000000e+00
3.035869557128751e-01 5.116129867469227e-01 0.000000000000000e+00
3.050920289816646e-01 5.119317297594934e-01 0.000000000000000e+00
3.066025781598544e-01 5.122529200108127e-01 0.000000000000000e+00
3.081043758210036e-01 5.125699662231173e-01 0.000000000000000e+00
3.096019089633277e-01 5.128859622512131e-01 0.000000000000000e+00
3.111048808191388e-01 5.132034705983740e-01 0.000000000000000e+00
3.125961525632056e-01 5.135153355059675e-01 0.000000000000000e+00
3.140867859067890e-01 5.138275670985804e-01 0.000000000000000e+00
3.155796073947542e-01 5.141399965738825e-01 0.000000000000000e+00
3.170606209468961e-01 5.144476669323444e-01 0.000000000000000e+00
3.185423959318152e-01 5.147560550957972e-01 0.000000000000000e+00
3.200221795703479e-01 5.150624702234955e-01 0.000000000000000e+00
3.214922412992922e-01 5.153654205697090e-01 0.000000000000000e+00
3.229632442812730e-01 5.156688823426439e-01 0.000000000000000e+00
3.244297451383113e-01 5.159697271661929e-01 0.000000000000000e+00
3.258878262899982e-01 5.162677166777886e-01 0.000000000000000e+00
3.273463095253790e-01 5.165653952983245e-01 0.000000000000000e+00
3.288004099118567e-01 5.168607816121928e-01 0.000000000000000e+00
3.302468372246168e-01 5.171537207673171e-01 0.000000000000000e+00
3.316914529992321e-01 5.174452554416672e-01 0.000000000000000e+00
3.331323913373307e-01 5.177350206210939e-01 0.000000000000000e+00
3.345666303760292e-01 5.180224206228582e-01 0.000000000000000e+00
3.359984199913084e-01 5.183081771798574e-01 0.000000000000000e+00
3.374268405942013e-01 5.185924553019693e-01 0.000000000000000e+00
3.388479055338483e-01 5.188735472299708e-01 0.000000000000000e+00
3.402662550995549e-01 5.191530331868972e-01 0.000000000000000e+00
3.416828317080325e-01 5.194319123728731e-01 0.000000000000000e+00
3.430906717470604e-01 5.197070455708509e-01 0.000000000000000e+00
3.444953681557667e-01 5.199803050234785e-01 0.000000000000000e+00
3.458986831006862e-01 5.202527310304395e-01 0.000000000000000e+00
3.472932443953152e-01 5.205212239921394e-01 0.000000000000000e+00
3.486855364951161e-01 5.207886521758518e-01 0.000000000000000e+00
3.500761983385119e-01 5.210550946702935e-01 0.000000000000000e+00
3.514572135121719e-01 5.213169507355083e-01 0.000000000000000e+00
3.528365327739826e-01 5.215778643811815e-01 0.000000000000000e+00
3.542150319468108e-01 5.218379005603567e-01 0.000000000000000e+00
3.555836534217706e-01 5.220935051612620e-01 0.000000000000000e+00
3.569506069814079e-01 5.223483376427036e-01 0.000000000000000e+00
3.583156562114057e-01 5.226013587585878e-01 0.000000000000000e+00
3.596712474987344e-01 5.228501512889362e-01 0.000000000000000e+00
3.610261347599357e-01 5.230983950280098e-01 0.000000000000000e+00
3.623799703705615e-01 5.233453165776689e-01 0.000000000000000e+00
3.637234485556675e-01 5.235875731442768e-01 0.000000000000000e+00
3.650656232577660e-01 5.238289043082087e-01 0.000000000000000e+00
3.664064339578482e-01 5.240684490270522e-01 0.000000000000000e+00
3.677380098328003e-01 5.243039290798288e-01 0.000000000000000e+00
3.690693049079000e-01 5.245388201400911e-01 0.000000000000000e+00
3.703991123982490e-01 5.247719563403586e-01 0.000000000000000e+00
3.717184484081501e-01 5.250003586082053e-01 0.000000000000000e+00
3.730371200814387e-01 5.252280609681158e-01 0.000000000000000e+00
3.743550284621870e-01 5.254539323994862e-01 0.000000000000000e+00
3.756640120121306e-01 5.256758273481799e-01 0.000000000000000e+00
3.769728316974746e-01 5.258969562287127e-01 0.000000000000000e+00
3.782800240212612e-01 5.261159877264908e-01 0.000000000000000e+00
3.795768906449573e-01 5.263305168582173e-01 0.000000000000000e+00
3.808735767339966e-01 5.265444194129583e-01 0.000000000000000e+00
3.821700532563825e-01 5.267563797043963e-01 0.000000000000000e+00
3.834578211387451e-01 5.269643392443278e-01 0.000000000000000e+00
3.847456082283718e-01 5.271713513371397e-01 0.000000000000000e+00
3.860319980941917e-01 5.273761256682901e-01 0.000000000000000e+00
3.873081264706182e-01 5.275764681788814e-01 0.000000000000000e+00
3.885843811875129e-01 5.277762731518063e-01 0.000000000000000e+00
3.898608310644829e-01 5.279740303996124e-01 0.000000000000000e+00
3.911286370845509e-01 5.281676436987645e-01 0.000000000000000e+00
3.923968822891468e-01 5.283603318092454e-01 0.000000000000000e+00
3.936644792577059e-01 5.285508875041145e-01 0.000000000000000e+00
3.949218802051564e-01 5.287369302851952e-01 0.000000000000000e+00
3.961794935527300e-01 5.289225479235669e-01 0.000000000000000e+00
3.974375463389841e-01 5.291060595067127e-01 0.000000000000000e+00
3.986869613168754e-01 5.292852162297239e-01 0.000000000000000e+00
3.999372920984104e-01 5.294634935710251e-01 0.000000000000000e+00
4.011884204148458e-01 5.296401628485712e-01 0.000000000000000e+00
4.024297947077218e-01 5.298121620432251e-01 0.000000000000000e+00
4.036711386705229e-01 5.299834832477570e-01 0.000000000000000e+00
4.049127680890026e-01 5.301527199268993e-01 0.000000000000000e+00
4.061455624937323e-01 5.303173654346705e-01 0.000000000000000e+00
4.073794847805354e-01 5.304812768551884e-01 0.000000000000000e+00
4.086154275725487e-01 5.306438521453427e-01 0.000000000000000e+00
4.098429925913314e-01 5.308021399588190e-01 0.000000000000000e+00
4.110704685907728e-01 5.309589282835450e-01 0.000000000000000e+00
4.122985136097892e-01 5.311138686326091e-01 0.000000000000000e+00
4.135175469441154e-01 5.312642809296065e-01 0.000000000000000e+00
4.147374724794585e-01 5.314142668277321e-01 0.000000000000000e+00
4.159592572319742e-01 5.315625926734420e-01 0.000000000000000e+00
4.171731328739167e-01 5.317062753308570e-01 0.000000000000000e+00
4.183874898546172e-01 5.318484762250958e-01 0.000000000000000e+00
4.196044390027284e-01 5.319899938917092e-01 0.000000000000000e+00
4.208137200705168e-01 5.321271413547605e-01 0.000000000000000e+00
4.220233810160089e-01 5.322629825650763e-01 0.000000000000000e+00
4.232341811887697e-01 5.323970367469536e-01 0.000000000000000e+00
4.244373209565245e-01 5.325267767853719e-01 0.000000000000000e+00
4.256414362444595e-01 5.326557471860990e-01 0.000000000000000e+00
4.268472137610803e-01 5.327831618072005e-01 0.000000000000000e+00
4.280463384222262e-01 5.329064962611755e-01 0.000000000000000e+00
4.292460754046864e-01 5.330281286360975e-01 0.000000000000000e+00
4.304481687732434e-01 5.331487616875858e-01 0.000000000000000e+00
4.316443288549751e-01 5.332655988646401e-01 0.000000000000000e+00
4.328415860181982e-01 5.333810469206915e-01 0.000000000000000e+00
4.340400053702648e-01 5.334944194968828e-01 0.000000000000000e+00
4.352327190548730e-01 5.336041953258084e-01 0.000000000000000e+00
4.364273039418112e-01 5.337134932221027e-01 0.000000000000000e+00
4.376223397031049e-01 5.338204087346241e-01 0.000000000000000e+00
4.388114923345178e-01 5.339235905505000e-01 0.000000000000000e+00
4.400016556623070e-01 5.340254924276705e-01 0.000000000000000e+00
4.411931425180857e-01 5.341257731844404e-01 0.000000000000000e+00
4.423798616545494e-01 5.342227755925106e-01 0.000000000000000e+00
4.435683459588241e-01 5.343184051073193e-01 0.000000000000000e+00
4.447586787126844e-01 5.344121489473823e-01 0.000000000000000e+00
4.459448344037953e-01 5.345023985346542e-01 0.000000000000000e+00
4.471337885347355e-01 5.345921412443833e-01 0.000000000000000e+00
4.483239241475289e-01 5.346796128952880e-01 0.000000000000000e+00
[...]
POINT_DATA   384
SCALARS fMag double
LOOKUP_TABLE default

1.882052e+02 
3.401769e+02 
1.588383e+02 
2.191618e+02 
1.121321e+02 
1.369683e+02 
3.090559e+01 
6.355979e+01 
6.182302e+01 
7.599345e+00 
7.040758e+00 
6.977547e+00 
1.579398e+01 
9.177367e+00 
1.648827e+00 
1.683621e+01 
2.021142e+01 
2.528026e+00 
9.011796e+00 
2.960751e+00 
5.038736e-01 
1.221905e+01 
1.057597e+01 
3.012019e+00 
1.132600e+00 
7.700044e-01 
2.779550e+00 
8.469027e+00 
4.217063e+00 
2.358299e-01 
6.725476e-01 
2.158331e+00 
6.628656e+00 
4.364885e+00 
1.549678e+00 
2.846351e+00 
1.829370e+00 
4.828732e+00 
5.135023e+00 
2.052005e+00 
4.012827e+00 
2.610073e+00 
2.983889e+00 
6.322900e+00 
2.840616e+00 
2.625889e+00 
4.876836e+00 
3.116644e+00 
4.497892e+00 
4.654112e+00 
2.801942e+00 
4.625166e+00 
4.782239e+00 
3.622861e+00 
4.429174e+00 
4.554136e+00 
4.280214e+00 
4.384350e+00 
4.470067e+00 
4.353744e+00 
4.697306e+00 
5.536303e+00 
4.275693e+00 
3.708890e+00 
5.683180e+00 
5.200726e+00 
4.653039e+00 
5.674000e+00 
4.166645e+00 
4.642894e+00 
6.654953e+00 
4.619268e+00 
4.484238e+00 
6.105838e+00 
4.767216e+00 
5.557164e+00 
6.474262e+00 
4.207431e+00 
5.085448e+00 
6.859470e+00 
5.282968e+00 
5.661664e+00 
6.311213e+00 
4.537263e+00 
5.766759e+00 
7.059702e+00 
5.151697e+00 
5.672221e+00 
6.458670e+00 
5.043317e+00 
6.209739e+00 
6.900621e+00 
5.069722e+00 
5.961482e+00 
6.822560e+00 
5.503531e+00 
6.522956e+00 
6.841689e+00 
4.997289e+00 
6.199060e+00 
7.147483e+00 
5.598615e+00 
6.532140e+00 
6.859953e+00 
4.906301e+00 
6.310275e+00 
7.484419e+00 
5.452165e+00 
6.118443e+00 
7.089749e+00 
5.328699e+00 
6.466231e+00 
7.603475e+00 
5.250963e+00 
5.601849e+00 
7.271563e+00 
6.194346e+00 
6.623365e+00 
7.010632e+00 
4.816306e+00 
6.002504e+00 
8.091571e+00 
5.802831e+00 
5.201111e+00 
6.909250e+00 
6.005860e+00 
6.370952e+00 
7.158211e+00 
5.111656e+00 
5.639274e+00 
7.479666e+00 
5.933006e+00 
5.398147e+00 
6.624541e+00 
6.066602e+00 
6.436735e+00 
6.454797e+00 
4.883961e+00 
6.238298e+00 
7.308802e+00 
5.486869e+00 
5.489300e+00 
6.408876e+00 
5.648795e+00 
6.207147e+00 
6.451466e+00 
4.950602e+00 
6.166375e+00 
6.811575e+00 
4.951238e+00 
5.815619e+00 
6.642339e+00 
5.189375e+00 
5.574336e+00 
6.454768e+00 
5.490600e+00 
5.358315e+00 
6.050838e+00 
5.758167e+00 
5.839839e+00 
5.725539e+00 
5.217187e+00 
5.920510e+00 
5.760809e+00 
5.347285e+00 
6.081783e+00 
5.313272e+00 
5.167464e+00 
6.419547e+00 
5.265655e+00 
5.014899e+00 
6.576001e+00 
5.135236e+00 
4.600911e+00 
6.661561e+00 
5.388479e+00 
4.330744e+00 
6.632881e+00 
5.687085e+00 
4.029950e+00 
6.437735e+00 
6.055026e+00 
3.917868e+00 
6.141881e+00 
6.366956e+00 
3.955774e+00 
5.678305e+00 
6.574435e+00 
4.250069e+00 
5.194429e+00 
6.692585e+00 
4.700455e+00 
4.700455e+00 
6.692585e+00 
5.194429e+00 
4.250069e+00 
6.574435e+00 
5.678305e+00 
3.955774e+00 
6.366956e+00 
6.141881e+00 
3.917868e+00 
6.055026e+00 
6.437735e+00 
4.029950e+00 
5.687085e+00 
6.632881e+00 
4.330744e+00 
5.388479e+00 
6.661561e+00 
4.600911e+00 
5.135236e+00 
6.576001e+00 
5.014899e+00 
5.265655e+00 
6.419547e+00 
5.167464e+00 
5.313272e+00 
6.081783e+00 
5.347285e+00 
5.760809e+00 
5.920510e+00 
5.217187e+00 
5.725539e+00 
5.839839e+00 
5.758167e+00 
6.050838e+00 
5.358315e+00 
5.490600e+00 
6.454768e+00 
5.574336e+00 
5.189375e+00 
6.642339e+00 
5.815619e+00 
4.951238e+00 
6.811575e+00 
6.166375e+00 
4.950602e+00 
6.451466e+00 
6.207147e+00 
5.648795e+00 
6.408876e+00 
5.489300e+00 
5.486869e+00 
7.308802e+00 
6.238298e+00 
4.883961e+00 
6.454797e+00 
6.436735e+00 
6.066602e+00 
6.624541e+00 
5.398147e+00 
5.933006e+00 
7.479666e+00 
5.639274e+00 
5.111656e+00 
7.158211e+00 
6.370952e+00 
6.005860e+00 
6.909250e+00 
5.201111e+00 
5.802831e+00 
8.091571e+00 
6.002504e+00 
4.816306e+00 
7.010632e+00 
6.623365e+00 
6.194346e+00 
7.271563e+00 
5.601849e+00 
5.250963e+00 
7.603475e+00 
6.466231e+00 
5.328699e+00 
7.089749e+00 
6.118443e+00 
5.452165e+00 
7.484419e+00 
6.310275e+00 
4.906301e+00 
6.859953e+00 
6.532140e+00 
5.598615e+00 
7.147483e+00 
6.199060e+00 
4.997289e+00 
6.841689e+00 
6.522956e+00 
5.503531e+00 
6.822560e+00 
5.961482e+00 
5.069722e+00 
6.900621e+00 
6.209739e+00 
5.043317e+00 
6.458670e+00 
5.672221e+00 
5.151697e+00 
7.059702e+00 
5.766759e+00 
4.537263e+00 
6.311213e+00 
5.661664e+00 
5.282968e+00 
6.859470e+00 
5.085448e+00 
4.207431e+00 
6.474262e+00 
5.557164e+00 
4.767216e+00 
6.105838e+00 
4.484238e+00 
4.619268e+00 
6.654953e+00 
4.642894e+00 
4.166645e+00 
5.674000e+00 
4.653039e+00 
5.200726e+00 
5.683180e+00 
3.708890e+00 
4.275693e+00 
5.536303e+00 
4.697306e+00 
4.353744e+00 
4.470067e+00 
4.384350e+00 
4.280214e+00 
4.554136e+00 
4.429174e+00 
3.622861e+00 
4.782239e+00 
4.625166e+00 
2.801942e+00 
4.654112e+00 
4.497892e+00 
3.116644e+00 
4.876836e+00 
2.625889e+00 
2.840616e+00 
6.322900e+00 
2.983889e+00 
2.610073e+00 
4.012827e+00 
2.052005e+00 
5.135023e+00 
4.828732e+00 
1.829370e+00 
2.846351e+00 
1.549678e+00 
4.364885e+00 
6.628656e+00 
2.158331e+00 
6.725476e-01 
2.358299e-01 
4.217063e+00 
8.469027e+00 
2.779550e+00 
7.700044e-01 
1.132600e+00 
3.012019e+00 
1.057597e+01 
1.221905e+01 
5.038736e-01 
2.960751e+00 
9.011796e+00 
2.528026e+00 
2.021142e+01 
1.683621e+01 
1.648827e+00 
9.177367e+00 
1.579398e+01 
6.977547e+00 
7.040758e+00 
7.599345e+00 
6.182302e+01 
6.355979e+01 
3.090559e+01 
1.369683e+02 
1.121321e+02 
2.191618e+02 
1.588383e+02 
3.401769e+02 
1.882052e+02 
