# vtk DataFile Version 2.0
fNorm
ASCII
DATASET UNSTRUCTURED_GRID

FIELD FieldData 1
TIME 1 1 double
0.07000000
POINTS 384 float
2.500002585712196e-01 5.000014108431194e-01 0.000000000000000e+00
2.520574613925411e-01 4.995849579121895e-01 0.000000000000000e+00
2.542493158974826e-01 4.992209021667784e-01 0.000000000000000e+00
2.558916960486833e-01 4.988659097849473e-01 0.000000000000000e+00
2.572035236101692e-01 4.985815535909190e-01 0.000000000000000e+00
2.584907665237626e-01 4.983869557439322e-01 0.000000000000000e+00
2.597063455988742e-01 4.982355718032185e-01 0.000000000000000e+00
2.609594430282524e-01 4.980820524061984e-01 0.000000000000000e+00
2.621360106619579e-01 4.978837621392187e-01 0.000000000000000e+00
2.632639300726579e-01 4.976657758858570e-01 0.000000000000000e+00
2.643805920429724e-01 4.974646290392424e-01 0.000000000000000e+00
2.654715311365987e-01 4.972842273597612e-01 0.000000000000000e+00
2.665078385049638e-01 4.971178492090735e-01 0.000000000000000e+00
2.675844171096453e-01 4.969669357690698e-01 0.000000000000000e+00
2.686797134227208e-01 4.968121081645989e-01 0.000000000000000e+00
2.698139630959963e-01 4.966561298557821e-01 0.000000000000000e+00
2.709858561461145e-01 4.964832945670771e-01 0.000000000000000e+00
2.721677505411942e-01 4.962912174864294e-01 0.000000000000000e+00
2.733862530167448e-01 4.960942885465158e-01 0.000000000000000e+00
2.746411899204898e-01 4.959030278357630e-01 0.000000000000000e+00
2.759098481935867e-01 4.957142318838227e-01 0.000000000000000e+00
2.772171503863235e-01 4.955334827350266e-01 0.000000000000000e+00
2.785396338383100e-01 4.953412370076248e-01 0.000000000000000e+00
2.798673918709110e-01 4.951374242436978e-01 0.000000000000000e+00
2.812258763641638e-01 4.949296933382266e-01 0.000000000000000e+00
2.825959463344722e-01 4.947241978815456e-01 0.000000000000000e+00
2.839775308136677e-01 4.945239349940534e-01 0.000000000000000e+00
2.853824766691712e-01 4.943259935089226e-01 0.000000000000000e+00
2.867866815121657e-01 4.941202806769039e-01 0.000000000000000e+00
2.882002361967692e-01 4.939100044097647e-01 0.000000000000000e+00
2.896238618588885e-01 4.936998258561220e-01 0.000000000000000e+00
2.910491510886707e-01 4.934927697640405e-01 0.000000000000000e+00
2.924888962312496e-01 4.932896108928777e-01 0.000000000000000e+00
2.939276083286739e-01 4.930837259954592e-01 0.000000000000000e+00
2.953695162480291e-01 4.928750908457630e-01 0.000000000000000e+00
2.968199956428565e-01 4.926664056414006e-01 0.000000000000000e+00
2.982648047575953e-01 4.924585174390078e-01 0.000000000000000e+00
2.997189149927983e-01 4.922539242386545e-01 0.000000000000000e+00
3.011748145508034e-01 4.920494090604383e-01 0.000000000000000e+00
3.026244367359861e-01 4.918436947044079e-01 0.000000000000000e+00
3.040834288601556e-01 4.916390224357790e-01 0.000000000000000e+00
3.055342913067842e-01 4.914343405311407e-01 0.000000000000000e+00
3.069840255667349e-01 4.912320222271911e-01 0.000000000000000e+00
3.084430957848401e-01 4.910311060503822e-01 0.000000000000000e+00
3.098903890091534e-01 4.908295403373204e-01 0.000000000000000e+00
3.113401444027591e-01 4.906297364593756e-01 0.000000000000000e+00
3.127935730150870e-01 4.904304206405206e-01 0.000000000000000e+00
3.142357000859316e-01 4.902319707117027e-01 0.000000000000000e+00
3.156821327211394e-01 4.900358098942275e-01 0.000000000000000e+00
3.171274641968084e-01 4.898396819444490e-01 0.000000000000000e+00
3.185644208884290e-01 4.896450198058185e-01 0.000000000000000e+00
3.200044836464051e-01 4.894520857017917e-01 0.000000000000000e+00
3.214403422285418e-01 4.892593334669531e-01 0.000000000000000e+00
3.228696981329912e-01 4.890685541871090e-01 0.000000000000000e+00
3.243011746886502e-01 4.888788420442614e-01 0.000000000000000e+00
3.257292464803696e-01 4.886900025767533e-01 0.000000000000000e+00
3.271513051608747e-01 4.885034230144470e-01 0.000000000000000e+00
3.285721052096061e-01 4.883174022251263e-01 0.000000000000000e+00
3.299907269336534e-01 4.881325894818101e-01 0.000000000000000e+00
3.314039869750536e-01 4.879495131201070e-01 0.000000000000000e+00
3.328155245431489e-01 4.877672283940581e-01 0.000000000000000e+00
3.342256560763919e-01 4.875869796851021e-01 0.000000000000000e+00
3.356286008479506e-01 4.874078646405072e-01 0.000000000000000e+00
3.370296967378071e-01 4.872295453655169e-01 0.000000000000000e+00
3.384314612459368e-01 4.870533429037923e-01 0.000000000000000e+00
3.398244320971201e-01 4.868780453471290e-01 0.000000000000000e+00
3.412154844460319e-01 4.867040485344333e-01 0.000000000000000e+00
3.426070233847453e-01 4.865320894858174e-01 0.000000000000000e+00
3.439893144339594e-01 4.863607473498925e-01 0.000000000000000e+00
3.453713081230070e-01 4.861912247016247e-01 0.000000000000000e+00
3.467532205669923e-01 4.860234559360402e-01 0.000000000000000e+00
3.481247149284776e-01 4.858561017110843e-01 0.000000000000000e+00
3.494967378973280e-01 4.856909049779241e-01 0.000000000000000e+00
3.508690329188470e-01 4.855272254520057e-01 0.000000000000000e+00
3.522308345357295e-01 4.853641971223248e-01 0.000000000000000e+00
3.535934118786646e-01 4.852036136976766e-01 0.000000000000000e+00
3.549544766137321e-01 4.850439818075018e-01 0.000000000000000e+00
3.563058195460827e-01 4.848852063594716e-01 0.000000000000000e+00
3.576589118146501e-01 4.847288380406303e-01 0.000000000000000e+00
3.590114802376508e-01 4.845735553915125e-01 0.000000000000000e+00
3.603533754407326e-01 4.844191815768897e-01 0.000000000000000e+00
3.616961886667880e-01 4.842671775529338e-01 0.000000000000000e+00
3.630378294433724e-01 4.841159517248296e-01 0.000000000000000e+00
3.643704374640847e-01 4.839659471701632e-01 0.000000000000000e+00
3.657049827586838e-01 4.838182577369706e-01 0.000000000000000e+00
3.670382295103587e-01 4.836714284607884e-01 0.000000000000000e+00
3.683609314578322e-01 4.835256884830612e-01 0.000000000000000e+00
3.696850781194545e-01 4.833823273640640e-01 0.000000000000000e+00
3.710084849694726e-01 4.832395967643070e-01 0.000000000000000e+00
3.723233561931760e-01 4.830982845110570e-01 0.000000000000000e+00
3.736399937734958e-01 4.829591859674082e-01 0.000000000000000e+00
3.749549262586104e-01 4.828207566723877e-01 0.000000000000000e+00
3.762596779964067e-01 4.826836298301986e-01 0.000000000000000e+00
3.775662980489109e-01 4.825488671748206e-01 0.000000000000000e+00
3.788726071138689e-01 4.824146180842221e-01 0.000000000000000e+00
3.801705654814552e-01 4.822818247493335e-01 0.000000000000000e+00
3.814703923987279e-01 4.821512375308332e-01 0.000000000000000e+00
3.827686632178167e-01 4.820212507155992e-01 0.000000000000000e+00
3.840567819913475e-01 4.818925605341355e-01 0.000000000000000e+00
3.853472266722094e-01 4.817663811683186e-01 0.000000000000000e+00
3.866377010188366e-01 4.816406557786094e-01 0.000000000000000e+00
3.879195801344726e-01 4.815161672434299e-01 0.000000000000000e+00
3.892038745914603e-01 4.813940115862717e-01 0.000000000000000e+00
3.904874085873212e-01 4.812724955013528e-01 0.000000000000000e+00
3.917604717202683e-01 4.811520302439949e-01 0.000000000000000e+00
3.930362052726832e-01 4.810344049556654e-01 0.000000000000000e+00
3.943122422392714e-01 4.809172779036556e-01 0.000000000000000e+00
3.955791315084152e-01 4.808009047529773e-01 0.000000000000000e+00
3.968490596342046e-01 4.806869529098896e-01 0.000000000000000e+00
3.981200462010664e-01 4.805739816857765e-01 0.000000000000000e+00
3.993804037952973e-01 4.804616231233119e-01 0.000000000000000e+00
4.006431771594430e-01 4.803522179776373e-01 0.000000000000000e+00
4.019063966233547e-01 4.802436337914270e-01 0.000000000000000e+00
4.031597538441061e-01 4.801353377057127e-01 0.000000000000000e+00
4.044164959276305e-01 4.800295833854237e-01 0.000000000000000e+00
4.056759769484005e-01 4.799251136431819e-01 0.000000000000000e+00
4.069260908397476e-01 4.798211259334272e-01 0.000000000000000e+00
4.081777320162640e-01 4.797192820728791e-01 0.000000000000000e+00
4.094306704894115e-01 4.796188288342335e-01 0.000000000000000e+00
4.106734233657549e-01 4.795186854696303e-01 0.000000000000000e+00
4.119190471759402e-01 4.794212590073622e-01 0.000000000000000e+00
4.131676326749218e-01 4.793253262316581e-01 0.000000000000000e+00
4.144070528769557e-01 4.792293694983284e-01 0.000000000000000e+00
4.156479615499087e-01 4.791349882577368e-01 0.000000000000000e+00
4.168933789542607e-01 4.790430333876211e-01 0.000000000000000e+00
4.181300841114174e-01 4.789513235921190e-01 0.000000000000000e+00
4.193679078514404e-01 4.788612644737597e-01 0.000000000000000e+00
4.206082393394630e-01 4.787730209739559e-01 0.000000000000000e+00
4.218400252349418e-01 4.786851638168778e-01 0.000000000000000e+00
4.230735528090724e-01 4.785992276976422e-01 0.000000000000000e+00
4.243101555530540e-01 4.785151243437334e-01 0.000000000000000e+00
4.255396226503390e-01 4.784316075409424e-01 0.000000000000000e+00
4.267698719626457e-01 4.783492261333747e-01 0.000000000000000e+00
4.280039524048396e-01 4.782688725608017e-01 0.000000000000000e+00
4.292320749330381e-01 4.781894462736609e-01 0.000000000000000e+00
4.304616225517151e-01 4.781114828848608e-01 0.000000000000000e+00
4.316928513172089e-01 4.780344687752744e-01 0.000000000000000e+00
4.329186798261293e-01 4.779586251655574e-01 0.000000000000000e+00
4.341472340831868e-01 4.778851693617556e-01 0.000000000000000e+00
4.353762536817929e-01 4.778122883871463e-01 0.000000000000000e+00
4.365997188778772e-01 4.777404653977946e-01 0.000000000000000e+00
4.378248128601981e-01 4.776706308807207e-01 0.000000000000000e+00
4.390514436176052e-01 4.776018690687411e-01 0.000000000000000e+00
4.402737186379143e-01 4.775341613499704e-01 0.000000000000000e+00
4.414985950120631e-01 4.774685044515945e-01 0.000000000000000e+00
4.427253612697004e-01 4.774036795718339e-01 0.000000000000000e+00
4.439479600358452e-01 4.773392444181354e-01 0.000000000000000e+00
4.451748273661087e-01 4.772777669923467e-01 0.000000000000000e+00
4.464027653867690e-01 4.772170595895618e-01 0.000000000000000e+00
[...]
POINT_DATA   384
SCALARS fNorm double
LOOKUP_TABLE default

6.735170e+01 
2.027539e+02 
1.803837e+02 
1.300714e+02 
1.706970e+02 
1.287666e+02 
9.411052e+00 
1.001830e+02 
7.181765e+01 
9.202920e+00 
3.246023e+01 
2.840012e+01 
2.653961e+01 
1.317203e+01 
3.197498e+00 
2.524369e+01 
3.158978e+01 
1.834753e+00 
2.205812e+01 
2.753661e+01 
1.820853e+01 
1.466599e+01 
2.649929e+01 
4.322989e+00 
1.487675e+01 
2.258325e+01 
9.845394e+00 
1.339020e+01 
1.259044e+01 
3.522026e+00 
1.472651e+01 
1.280270e+01 
2.259901e+00 
6.532328e+00 
1.113229e-01 
6.133320e+00 
1.012611e+01 
3.366025e+00 
1.552196e+00 
1.610028e+00 
2.404947e+00 
6.336551e+00 
5.676156e+00 
2.403503e-01 
3.081931e+00 
3.625434e+00 
2.640501e+00 
5.205886e+00 
3.125344e+00 
2.818074e+00 
4.439022e+00 
2.587996e+00 
3.281853e+00 
4.366617e+00 
3.765318e+00 
3.846707e+00 
3.250678e+00 
3.331937e+00 
3.617018e+00 
4.061671e+00 
4.513468e+00 
2.849980e+00 
3.507811e+00 
4.718643e+00 
2.819056e+00 
3.919203e+00 
4.618676e+00 
2.738159e+00 
4.595300e+00 
4.259102e+00 
2.153648e+00 
4.862670e+00 
4.479268e+00 
2.705494e+00 
4.892205e+00 
3.550164e+00 
2.597834e+00 
5.483888e+00 
3.999322e+00 
2.605599e+00 
4.778031e+00 
3.593033e+00 
3.214776e+00 
5.351584e+00 
3.479753e+00 
2.746319e+00 
4.887142e+00 
3.636523e+00 
3.447117e+00 
5.040886e+00 
3.135217e+00 
3.013978e+00 
4.993756e+00 
3.521083e+00 
3.459846e+00 
4.943674e+00 
3.011000e+00 
3.132093e+00 
5.190114e+00 
3.376283e+00 
3.162583e+00 
5.037589e+00 
3.099006e+00 
3.079837e+00 
5.508981e+00 
3.298377e+00 
2.460894e+00 
5.149078e+00 
3.642158e+00 
2.854111e+00 
5.464753e+00 
3.446470e+00 
2.022434e+00 
5.217605e+00 
4.394657e+00 
2.503646e+00 
4.493339e+00 
3.726680e+00 
2.657521e+00 
5.505980e+00 
4.394707e+00 
1.498860e+00 
4.168742e+00 
5.266724e+00 
2.838717e+00 
3.873245e+00 
4.219087e+00 
2.738316e+00 
4.491240e+00 
4.744121e+00 
2.602436e+00 
3.599858e+00 
4.764618e+00 
3.715535e+00 
3.547287e+00 
3.389304e+00 
3.975713e+00 
4.924413e+00 
3.367378e+00 
3.104717e+00 
4.534386e+00 
3.897625e+00 
3.719959e+00 
4.583155e+00 
3.154036e+00 
3.329818e+00 
5.504251e+00 
3.435193e+00 
2.696333e+00 
5.553484e+00 
4.049861e+00 
2.549838e+00 
5.031751e+00 
4.573601e+00 
2.655152e+00 
4.367737e+00 
5.110226e+00 
3.298206e+00 
3.773533e+00 
4.715950e+00 
3.868220e+00 
3.951988e+00 
4.484907e+00 
4.228592e+00 
3.694443e+00 
4.029874e+00 
5.079432e+00 
3.940801e+00 
3.306778e+00 
5.383852e+00 
4.278763e+00 
2.735855e+00 
5.536843e+00 
4.996310e+00 
2.332799e+00 
5.094677e+00 
5.700673e+00 
2.255784e+00 
4.452500e+00 
6.405966e+00 
2.478523e+00 
3.644362e+00 
6.800857e+00 
2.961470e+00 
2.925636e+00 
6.853037e+00 
3.776960e+00 
2.428558e+00 
6.396637e+00 
4.703182e+00 
2.197084e+00 
5.620704e+00 
5.620704e+00 
2.197084e+00 
4.703182e+00 
6.396637e+00 
2.428558e+00 
3.776960e+00 
6.853037e+00 
2.925636e+00 
2.961470e+00 
6.800857e+00 
3.644362e+00 
2.478523e+00 
6.405966e+00 
4.452500e+00 
2.255784e+00 
5.700673e+00 
5.094677e+00 
2.332799e+00 
4.996310e+00 
5.536843e+00 
2.735855e+00 
4.278763e+00 
5.383852e+00 
3.306778e+00 
3.940801e+00 
5.079432e+00 
4.029874e+00 
3.694443e+00 
4.228592e+00 
4.484907e+00 
3.951988e+00 
3.868220e+00 
4.715950e+00 
3.773533e+00 
3.298206e+00 
5.110226e+00 
4.367737e+00 
2.655152e+00 
4.573601e+00 
5.031751e+00 
2.549838e+00 
4.049861e+00 
5.553484e+00 
2.696333e+00 
3.435193e+00 
5.504251e+00 
3.329818e+00 
3.154036e+00 
4.583155e+00 
3.719959e+00 
3.897625e+00 
4.534386e+00 
3.104717e+00 
3.367378e+00 
4.924413e+00 
3.975713e+00 
3.389304e+00 
3.547287e+00 
3.715535e+00 
4.764618e+00 
3.599858e+00 
2.602436e+00 
4.744121e+00 
4.491240e+00 
2.738316e+00 
4.219087e+00 
3.873245e+00 
2.838717e+00 
5.266724e+00 
4.168742e+00 
1.498860e+00 
4.394707e+00 
5.505980e+00 
2.657521e+00 
3.726680e+00 
4.493339e+00 
2.503646e+00 
4.394657e+00 
5.217605e+00 
2.022434e+00 
3.446470e+00 
5.464753e+00 
2.854111e+00 
3.642158e+00 
5.149078e+00 
2.460894e+00 
3.298377e+00 
5.508981e+00 
3.079837e+00 
3.099006e+00 
5.037589e+00 
3.162583e+00 
3.376283e+00 
5.190114e+00 
3.132093e+00 
3.011000e+00 
4.943674e+00 
3.459846e+00 
3.521083e+00 
4.993756e+00 
3.013978e+00 
3.135217e+00 
5.040886e+00 
3.447117e+00 
3.636523e+00 
4.887142e+00 
2.746319e+00 
3.479753e+00 
5.351584e+00 
3.214776e+00 
3.593033e+00 
4.778031e+00 
2.605599e+00 
3.999322e+00 
5.483888e+00 
2.597834e+00 
3.550164e+00 
4.892205e+00 
2.705494e+00 
4.479268e+00 
4.862670e+00 
2.153648e+00 
4.259102e+00 
4.595300e+00 
2.738159e+00 
4.618676e+00 
3.919203e+00 
2.819056e+00 
4.718643e+00 
3.507811e+00 
2.849980e+00 
4.513468e+00 
4.061671e+00 
3.617018e+00 
3.331937e+00 
3.250678e+00 
3.846707e+00 
3.765318e+00 
4.366617e+00 
3.281853e+00 
2.587996e+00 
4.439022e+00 
2.818074e+00 
3.125344e+00 
5.205886e+00 
2.640501e+00 
3.625434e+00 
3.081931e+00 
2.403503e-01 
5.676156e+00 
6.336551e+00 
2.404947e+00 
1.610028e+00 
1.552196e+00 
3.366025e+00 
1.012611e+01 
6.133320e+00 
1.113229e-01 
6.532328e+00 
2.259901e+00 
1.280270e+01 
1.472651e+01 
3.522026e+00 
1.259044e+01 
1.339020e+01 
9.845394e+00 
2.258325e+01 
1.487675e+01 
4.322989e+00 
2.649929e+01 
1.466599e+01 
1.820853e+01 
2.753661e+01 
2.205812e+01 
1.834753e+00 
3.158978e+01 
2.524369e+01 
3.197498e+00 
1.317203e+01 
2.653961e+01 
2.840012e+01 
3.246023e+01 
9.202920e+00 
7.181765e+01 
1.001830e+02 
9.411052e+00 
1.287666e+02 
1.706970e+02 
1.300714e+02 
1.803837e+02 
2.027539e+02 
6.735170e+01 
