# vtk DataFile Version 2.0
fTan
ASCII
DATASET UNSTRUCTURED_GRID

FIELD FieldData 1
TIME 1 1 double
0.03000000
POINTS 384 float
2.499986394837592e-01 5.000020859575149e-01 0.000000000000000e+00
2.516189232603913e-01 5.008665231049045e-01 0.000000000000000e+00
2.531674093491924e-01 5.018369119187990e-01 0.000000000000000e+00
2.546031462712982e-01 5.026469967117327e-01 0.000000000000000e+00
2.559110070859897e-01 5.033418983031684e-01 0.000000000000000e+00
2.571557052809935e-01 5.040412953441370e-01 0.000000000000000e+00
2.583707651319649e-01 5.047504021207820e-01 0.000000000000000e+00
2.596282263874082e-01 5.054942163315677e-01 0.000000000000000e+00
2.609158888345064e-01 5.062229568305617e-01 0.000000000000000e+00
2.622276405402931e-01 5.069589166621239e-01 0.000000000000000e+00
2.635516589465907e-01 5.077128164731013e-01 0.000000000000000e+00
2.648769935348622e-01 5.084700227654382e-01 0.000000000000000e+00
2.662024652734639e-01 5.092204938009041e-01 0.000000000000000e+00
2.675500012671727e-01 5.099832803164105e-01 0.000000000000000e+00
2.689096673306002e-01 5.107478275713343e-01 0.000000000000000e+00
2.702857226793466e-01 5.115264066220367e-01 0.000000000000000e+00
2.716821670002723e-01 5.123134227690510e-01 0.000000000000000e+00
2.730872717929457e-01 5.131008369488245e-01 0.000000000000000e+00
2.745036167818150e-01 5.138969054210266e-01 0.000000000000000e+00
2.759274255586120e-01 5.146950045683399e-01 0.000000000000000e+00
2.773517356705324e-01 5.154909691459540e-01 0.000000000000000e+00
2.787830630506018e-01 5.162912202225025e-01 0.000000000000000e+00
2.802179674073590e-01 5.170903060738828e-01 0.000000000000000e+00
2.816527871577681e-01 5.178884913667461e-01 0.000000000000000e+00
2.830932821373655e-01 5.186901536123188e-01 0.000000000000000e+00
2.845350858337086e-01 5.194895637890925e-01 0.000000000000000e+00
2.859758716420531e-01 5.202865668446836e-01 0.000000000000000e+00
2.874180709980216e-01 5.210839422599939e-01 0.000000000000000e+00
2.888582302537741e-01 5.218786692493151e-01 0.000000000000000e+00
2.902967554232563e-01 5.226707780087272e-01 0.000000000000000e+00
2.917351305273824e-01 5.234610079862919e-01 0.000000000000000e+00
2.931716451736432e-01 5.242488647281937e-01 0.000000000000000e+00
2.946063979512024e-01 5.250342877940212e-01 0.000000000000000e+00
2.960385038986957e-01 5.258163891512863e-01 0.000000000000000e+00
2.974695932016646e-01 5.265967593139397e-01 0.000000000000000e+00
2.988989335076722e-01 5.273741524885236e-01 0.000000000000000e+00
3.003245273519078e-01 5.281473052546704e-01 0.000000000000000e+00
3.017487886108393e-01 5.289186114118773e-01 0.000000000000000e+00
3.031704455195000e-01 5.296866857849185e-01 0.000000000000000e+00
3.045883251171495e-01 5.304507208256911e-01 0.000000000000000e+00
3.060055714866265e-01 5.312126645139924e-01 0.000000000000000e+00
3.074181367909613e-01 5.319694597323219e-01 0.000000000000000e+00
3.088268596081224e-01 5.327227029994988e-01 0.000000000000000e+00
3.102358315955026e-01 5.334747773857652e-01 0.000000000000000e+00
3.116392735357306e-01 5.342207644600434e-01 0.000000000000000e+00
3.130394496888095e-01 5.349629391632265e-01 0.000000000000000e+00
3.144403555115537e-01 5.357041226972310e-01 0.000000000000000e+00
3.158350365706417e-01 5.364390176237536e-01 0.000000000000000e+00
3.172264281022906e-01 5.371701605977613e-01 0.000000000000000e+00
3.186183213406266e-01 5.378996694827208e-01 0.000000000000000e+00
3.200039816472536e-01 5.386227756819582e-01 0.000000000000000e+00
3.213871288501456e-01 5.393425371899181e-01 0.000000000000000e+00
3.227700208337174e-01 5.400600513889995e-01 0.000000000000000e+00
3.241460651327589e-01 5.407704851747824e-01 0.000000000000000e+00
3.255208542847222e-01 5.414784550150558e-01 0.000000000000000e+00
3.268957011140222e-01 5.421842499282336e-01 0.000000000000000e+00
3.282631261382965e-01 5.428824073177951e-01 0.000000000000000e+00
3.296292923205590e-01 5.435776038296191e-01 0.000000000000000e+00
3.309952683786844e-01 5.442702276853183e-01 0.000000000000000e+00
3.323539776398315e-01 5.449556565885261e-01 0.000000000000000e+00
3.337120714101751e-01 5.456387108801103e-01 0.000000000000000e+00
3.350694122976818e-01 5.463183522487554e-01 0.000000000000000e+00
3.364199116681940e-01 5.469902568523132e-01 0.000000000000000e+00
3.377703080876714e-01 5.476599579290822e-01 0.000000000000000e+00
3.391200517587352e-01 5.483266801009439e-01 0.000000000000000e+00
3.404621605200537e-01 5.489856019351378e-01 0.000000000000000e+00
3.418043464541742e-01 5.496417978080670e-01 0.000000000000000e+00
3.431460932635924e-01 5.502943655397268e-01 0.000000000000000e+00
3.444807785779350e-01 5.509392550691418e-01 0.000000000000000e+00
3.458155965475023e-01 5.515819216570789e-01 0.000000000000000e+00
3.471494121732113e-01 5.522208194677598e-01 0.000000000000000e+00
3.484762422218738e-01 5.528517109633648e-01 0.000000000000000e+00
3.498037759261213e-01 5.534800497316490e-01 0.000000000000000e+00
3.511310216290586e-01 5.541048276487145e-01 0.000000000000000e+00
3.524509768194494e-01 5.547215685114407e-01 0.000000000000000e+00
3.537710723084317e-01 5.553355249913635e-01 0.000000000000000e+00
3.550905130044290e-01 5.559452178532702e-01 0.000000000000000e+00
3.564031961534251e-01 5.565472636787571e-01 0.000000000000000e+00
3.577168705671149e-01 5.571467337296030e-01 0.000000000000000e+00
3.590304315749188e-01 5.577425488497301e-01 0.000000000000000e+00
3.603366024490753e-01 5.583298180690758e-01 0.000000000000000e+00
3.616432057822597e-01 5.589137553080924e-01 0.000000000000000e+00
3.629498062101323e-01 5.594937327448792e-01 0.000000000000000e+00
3.642496414260364e-01 5.600660114269493e-01 0.000000000000000e+00
3.655506011715051e-01 5.606355988598974e-01 0.000000000000000e+00
3.668514699566179e-01 5.612012498480533e-01 0.000000000000000e+00
3.681447622762892e-01 5.617579516305957e-01 0.000000000000000e+00
3.694388693663444e-01 5.623113576949801e-01 0.000000000000000e+00
3.707337730821156e-01 5.628608741777029e-01 0.000000000000000e+00
3.720218684514017e-01 5.634024192663056e-01 0.000000000000000e+00
3.733111443085459e-01 5.639410604904257e-01 0.000000000000000e+00
3.746005369276152e-01 5.644755215355440e-01 0.000000000000000e+00
3.758820058892745e-01 5.650010589357655e-01 0.000000000000000e+00
3.771645748093552e-01 5.655234455018930e-01 0.000000000000000e+00
3.784487116402738e-01 5.660419580456557e-01 0.000000000000000e+00
3.797260405965442e-01 5.665521798264825e-01 0.000000000000000e+00
3.810047741385678e-01 5.670591435268518e-01 0.000000000000000e+00
3.822840315224669e-01 5.675617650637822e-01 0.000000000000000e+00
3.835550466378541e-01 5.680554664495904e-01 0.000000000000000e+00
3.848272109685960e-01 5.685462686677691e-01 0.000000000000000e+00
3.861014569733153e-01 5.690332754700013e-01 0.000000000000000e+00
3.873688256984199e-01 5.695118500878035e-01 0.000000000000000e+00
3.886379570962552e-01 5.699869401905902e-01 0.000000000000000e+00
3.899083735584286e-01 5.704576765269879e-01 0.000000000000000e+00
3.911703794435480e-01 5.709192488437904e-01 0.000000000000000e+00
3.924333356334653e-01 5.713778511336919e-01 0.000000000000000e+00
3.936986780712137e-01 5.718325820616932e-01 0.000000000000000e+00
3.949570761894408e-01 5.722787470667779e-01 0.000000000000000e+00
3.962174166564632e-01 5.727215698687912e-01 0.000000000000000e+00
3.974801937123470e-01 5.731607939011737e-01 0.000000000000000e+00
3.987349088891075e-01 5.735909173683164e-01 0.000000000000000e+00
3.999902520780482e-01 5.740174431387044e-01 0.000000000000000e+00
4.012477814197449e-01 5.744396851751135e-01 0.000000000000000e+00
4.024981801469015e-01 5.748529778890709e-01 0.000000000000000e+00
4.037503878689577e-01 5.752629707892234e-01 0.000000000000000e+00
4.050061165045210e-01 5.756698412044267e-01 0.000000000000000e+00
4.062548653317185e-01 5.760683225959741e-01 0.000000000000000e+00
4.075042936212122e-01 5.764626084293741e-01 0.000000000000000e+00
4.087559644102330e-01 5.768528081076947e-01 0.000000000000000e+00
4.100001805514668e-01 5.772342300406780e-01 0.000000000000000e+00
4.112454530930489e-01 5.776124086948271e-01 0.000000000000000e+00
4.124942250955957e-01 5.779867612780495e-01 0.000000000000000e+00
4.137367630425582e-01 5.783523644211694e-01 0.000000000000000e+00
4.149803233512790e-01 5.787135892094514e-01 0.000000000000000e+00
4.162275664180167e-01 5.790719363190981e-01 0.000000000000000e+00
4.174686447148673e-01 5.794219691542538e-01 0.000000000000000e+00
4.187102375943179e-01 5.797677754970066e-01 0.000000000000000e+00
4.199543828945950e-01 5.801095625021817e-01 0.000000000000000e+00
4.211924023614703e-01 5.804431096017305e-01 0.000000000000000e+00
4.224312961336275e-01 5.807728801609308e-01 0.000000000000000e+00
4.236732330926169e-01 5.810988046172574e-01 0.000000000000000e+00
4.249100230381720e-01 5.814168206760302e-01 0.000000000000000e+00
4.261476285240475e-01 5.817299780923393e-01 0.000000000000000e+00
4.273885631209021e-01 5.820398034274821e-01 0.000000000000000e+00
4.286249897739622e-01 5.823421182845081e-01 0.000000000000000e+00
4.298624985599380e-01 5.826397581213075e-01 0.000000000000000e+00
4.311022196955838e-01 5.829329101344497e-01 0.000000000000000e+00
4.323375453754352e-01 5.832189301904527e-01 0.000000000000000e+00
4.335743808364509e-01 5.835011755871958e-01 0.000000000000000e+00
4.348125284552698e-01 5.837784635513191e-01 0.000000000000000e+00
4.360462359161862e-01 5.840486343295436e-01 0.000000000000000e+00
4.372809915202301e-01 5.843141453891412e-01 0.000000000000000e+00
4.385174512205426e-01 5.845752959204914e-01 0.000000000000000e+00
4.397505571114755e-01 5.848300814688775e-01 0.000000000000000e+00
4.409856911794369e-01 5.850801928551628e-01 0.000000000000000e+00
4.422229472370981e-01 5.853254148580542e-01 0.000000000000000e+00
4.434574611995545e-01 5.855641925250905e-01 0.000000000000000e+00
4.446949071655518e-01 5.857992204658102e-01 0.000000000000000e+00
4.459336300453125e-01 5.860286642428986e-01 0.000000000000000e+00
[...]
POINT_DATA   384
SCALARS fTan double
LOOKUP_TABLE default

1.249685e+02 
1.317239e+00 
8.002961e+00 
7.020733e+00 
3.972746e-02 
1.025824e+00 
4.684243e-02 
1.056112e-01 
5.908740e-01 
1.166187e-02 
5.396625e-02 
2.188577e-04 
1.361353e-02 
5.210902e-03 
6.527251e-03 
5.944834e-03 
1.147271e-02 
8.017539e-03 
2.463537e-03 
6.064426e-03 
1.470914e-03 
3.727615e-05 
8.112819e-03 
4.156951e-03 
2.306304e-03 
8.651203e-03 
1.736489e-03 
1.089242e-03 
9.839353e-04 
2.618135e-03 
2.351432e-03 
3.092312e-04 
2.346271e-03 
1.258410e-03 
8.094817e-04 
4.457183e-03 
2.824034e-03 
3.260772e-04 
2.337310e-03 
1.457802e-04 
3.147211e-03 
5.865442e-03 
3.304605e-03 
4.208464e-04 
8.622871e-03 
9.763785e-04 
8.145131e-04 
6.677852e-03 
1.545727e-03 
2.576147e-03 
6.767091e-03 
3.142100e-03 
4.323038e-03 
8.255380e-03 
5.277997e-03 
3.219743e-03 
9.529193e-03 
1.899539e-03 
5.050832e-03 
5.482319e-03 
7.017546e-03 
8.082959e-03 
1.154134e-02 
5.096721e-03 
3.556702e-03 
7.275906e-03 
3.661613e-03 
9.542118e-03 
8.699082e-03 
8.274551e-03 
6.640356e-03 
1.130104e-02 
5.303205e-03 
7.511257e-03 
8.185394e-03 
4.947417e-03 
9.826332e-03 
9.554427e-03 
8.566852e-03 
5.502160e-03 
1.289664e-02 
2.548797e-03 
9.092277e-03 
9.251815e-03 
1.123203e-02 
6.873790e-03 
1.499419e-02 
4.516081e-03 
9.975568e-03 
1.024116e-02 
1.004554e-02 
9.285763e-03 
1.301818e-02 
8.283314e-03 
9.831300e-03 
1.208483e-02 
8.039691e-03 
1.294756e-02 
1.254469e-02 
1.188834e-02 
8.472025e-03 
1.254738e-02 
9.098524e-03 
1.538068e-02 
1.454661e-02 
1.431081e-02 
1.040102e-02 
1.712128e-02 
1.208599e-02 
9.625413e-03 
1.510176e-02 
1.598692e-02 
1.361137e-02 
2.224635e-02 
1.159030e-02 
4.209646e-03 
1.558266e-02 
1.120843e-02 
1.355811e-02 
1.689712e-02 
2.090096e-02 
6.854185e-03 
2.793557e-02 
1.043524e-02 
1.873214e-03 
1.939748e-02 
1.284789e-02 
1.003887e-02 
1.949496e-02 
1.553686e-02 
1.499959e-03 
2.344459e-02 
6.823749e-03 
1.411447e-03 
1.570925e-02 
5.356828e-03 
1.069531e-02 
1.066536e-02 
1.161970e-02 
7.205693e-03 
1.520021e-02 
2.450987e-03 
9.299882e-04 
6.456970e-03 
3.237863e-03 
1.108259e-02 
3.855281e-03 
9.079809e-03 
1.641789e-02 
2.251635e-03 
8.471426e-03 
1.595269e-02 
1.453653e-03 
6.649498e-03 
1.334092e-02 
2.870600e-03 
6.013461e-03 
1.218903e-02 
7.216271e-04 
8.922234e-03 
1.825359e-02 
1.120373e-04 
1.453309e-02 
1.928983e-02 
1.559035e-03 
1.301206e-02 
1.847875e-02 
3.076422e-04 
1.315096e-02 
1.741030e-02 
8.469066e-04 
1.207549e-02 
1.629009e-02 
9.040962e-04 
1.229343e-02 
1.470890e-02 
1.874451e-03 
1.157667e-02 
1.278058e-02 
2.451817e-03 
1.105537e-02 
1.035586e-02 
3.214000e-03 
9.875707e-03 
7.733334e-03 
3.903994e-03 
8.628361e-03 
4.787576e-03 
4.800935e-03 
7.186751e-03 
1.635746e-03 
5.889053e-03 
5.889053e-03 
1.635746e-03 
7.186751e-03 
4.800935e-03 
4.787576e-03 
8.628361e-03 
3.903994e-03 
7.733334e-03 
9.875707e-03 
3.214000e-03 
1.035586e-02 
1.105537e-02 
2.451817e-03 
1.278058e-02 
1.157667e-02 
1.874451e-03 
1.470890e-02 
1.229343e-02 
9.040962e-04 
1.629009e-02 
1.207549e-02 
8.469066e-04 
1.741030e-02 
1.315096e-02 
3.076422e-04 
1.847875e-02 
1.301206e-02 
1.559035e-03 
1.928983e-02 
1.453309e-02 
1.120373e-04 
1.825359e-02 
8.922234e-03 
7.216271e-04 
1.218903e-02 
6.013461e-03 
2.870600e-03 
1.334092e-02 
6.649498e-03 
1.453653e-03 
1.595269e-02 
8.471426e-03 
2.251635e-03 
1.641789e-02 
9.079809e-03 
3.855281e-03 
1.108259e-02 
3.237863e-03 
6.456970e-03 
9.299882e-04 
2.450987e-03 
1.520021e-02 
7.205693e-03 
1.161970e-02 
1.066536e-02 
1.069531e-02 
5.356828e-03 
1.570925e-02 
1.411447e-03 
6.823749e-03 
2.344459e-02 
1.499959e-03 
1.553686e-02 
1.949496e-02 
1.003887e-02 
1.284789e-02 
1.939748e-02 
1.873214e-03 
1.043524e-02 
2.793557e-02 
6.854185e-03 
2.090096e-02 
1.689712e-02 
1.355811e-02 
1.120843e-02 
1.558266e-02 
4.209646e-03 
1.159030e-02 
2.224635e-02 
1.361137e-02 
1.598692e-02 
1.510176e-02 
9.625413e-03 
1.208599e-02 
1.712128e-02 
1.040102e-02 
1.431081e-02 
1.454661e-02 
1.538068e-02 
9.098524e-03 
1.254738e-02 
8.472025e-03 
1.188834e-02 
1.254469e-02 
1.294756e-02 
8.039691e-03 
1.208483e-02 
9.831300e-03 
8.283314e-03 
1.301818e-02 
9.285763e-03 
1.004554e-02 
1.024116e-02 
9.975568e-03 
4.516081e-03 
1.499419e-02 
6.873790e-03 
1.123203e-02 
9.251815e-03 
9.092277e-03 
2.548797e-03 
1.289664e-02 
5.502160e-03 
8.566852e-03 
9.554427e-03 
9.826332e-03 
4.947417e-03 
8.185394e-03 
7.511257e-03 
5.303205e-03 
1.130104e-02 
6.640356e-03 
8.274551e-03 
8.699082e-03 
9.542118e-03 
3.661613e-03 
7.275906e-03 
3.556702e-03 
5.096721e-03 
1.154134e-02 
8.082959e-03 
7.017546e-03 
5.482319e-03 
5.050832e-03 
1.899539e-03 
9.529193e-03 
3.219743e-03 
5.277997e-03 
8.255380e-03 
4.323038e-03 
3.142100e-03 
6.767091e-03 
2.576147e-03 
1.545727e-03 
6.677852e-03 
8.145132e-04 
9.763784e-04 
8.622871e-03 
4.208464e-04 
3.304605e-03 
5.865442e-03 
3.147211e-03 
1.457802e-04 
2.337310e-03 
3.260772e-04 
2.824034e-03 
4.457183e-03 
8.094817e-04 
1.258410e-03 
2.346271e-03 
3.092312e-04 
2.351432e-03 
2.618135e-03 
9.839353e-04 
1.089242e-03 
1.736489e-03 
8.651203e-03 
2.306304e-03 
4.156951e-03 
8.112819e-03 
3.727615e-05 
1.470914e-03 
6.064426e-03 
2.463537e-03 
8.017539e-03 
1.147271e-02 
5.944834e-03 
6.527251e-03 
5.210902e-03 
1.361353e-02 
2.188577e-04 
5.396625e-02 
1.166187e-02 
5.908740e-01 
1.056112e-01 
4.684243e-02 
1.025824e+00 
3.972746e-02 
7.020733e+00 
8.002961e+00 
1.317239e+00 
1.249685e+02 
