# vtk DataFile Version 2.0
fTan
ASCII
DATASET UNSTRUCTURED_GRID

FIELD FieldData 1
TIME 1 1 double
0.08000000
POINTS 384 float
2.500003926904650e-01 5.000010715317714e-01 0.000000000000000e+00
2.520191074692795e-01 4.993041119639020e-01 0.000000000000000e+00
2.542629171079560e-01 4.985957331354782e-01 0.000000000000000e+00
2.559768641812364e-01 4.979864586466027e-01 0.000000000000000e+00
2.573493006833436e-01 4.975048021744581e-01 0.000000000000000e+00
2.587003232557316e-01 4.971052953385257e-01 0.000000000000000e+00
2.599545638319535e-01 4.967532344877494e-01 0.000000000000000e+00
2.612279361098161e-01 4.963891138178422e-01 0.000000000000000e+00
2.623963778912284e-01 4.959969735474601e-01 0.000000000000000e+00
2.635125176791994e-01 4.956068630793588e-01 0.000000000000000e+00
2.646215177083301e-01 4.952424962119779e-01 0.000000000000000e+00
2.657081786472449e-01 4.949107114185728e-01 0.000000000000000e+00
2.667312399252039e-01 4.946051020085414e-01 0.000000000000000e+00
2.677821266658075e-01 4.943039197802411e-01 0.000000000000000e+00
2.688378045831029e-01 4.939917009842824e-01 0.000000000000000e+00
2.699154700456824e-01 4.936683798259298e-01 0.000000000000000e+00
2.710234576111382e-01 4.933248556976981e-01 0.000000000000000e+00
2.721399538746731e-01 4.929641381768565e-01 0.000000000000000e+00
2.732948205462405e-01 4.925987003117333e-01 0.000000000000000e+00
2.744881873222901e-01 4.922383718481320e-01 0.000000000000000e+00
2.756916739874662e-01 4.918761619311509e-01 0.000000000000000e+00
2.769303868969987e-01 4.915141774353950e-01 0.000000000000000e+00
2.781781011835787e-01 4.911357474671422e-01 0.000000000000000e+00
2.794311290680216e-01 4.907453893534062e-01 0.000000000000000e+00
2.807163147709799e-01 4.903475969483065e-01 0.000000000000000e+00
2.820165640538486e-01 4.899517159096807e-01 0.000000000000000e+00
2.833276822966789e-01 4.895600310090056e-01 0.000000000000000e+00
2.846598331033440e-01 4.891675536839022e-01 0.000000000000000e+00
2.859877342341349e-01 4.887661183075481e-01 0.000000000000000e+00
2.873248334676330e-01 4.883577217169974e-01 0.000000000000000e+00
2.886735388764873e-01 4.879472003377581e-01 0.000000000000000e+00
2.900265690999717e-01 4.875402280228724e-01 0.000000000000000e+00
2.913942780728685e-01 4.871361091503200e-01 0.000000000000000e+00
2.927597385454558e-01 4.867299665423304e-01 0.000000000000000e+00
2.941274425705895e-01 4.863192676258392e-01 0.000000000000000e+00
2.955040446176943e-01 4.859061458276696e-01 0.000000000000000e+00
2.968768118060124e-01 4.854936487192134e-01 0.000000000000000e+00
2.982608360580455e-01 4.850839005045632e-01 0.000000000000000e+00
2.996471131862368e-01 4.846748198470789e-01 0.000000000000000e+00
3.010270437394426e-01 4.842651883671311e-01 0.000000000000000e+00
3.024162936331249e-01 4.838542276984292e-01 0.000000000000000e+00
3.037977669042938e-01 4.834434816847231e-01 0.000000000000000e+00
3.051800790492175e-01 4.830350733513030e-01 0.000000000000000e+00
3.065727403917675e-01 4.826273498097325e-01 0.000000000000000e+00
3.079543547505542e-01 4.822209746678964e-01 0.000000000000000e+00
3.093387754260297e-01 4.818154028133462e-01 0.000000000000000e+00
3.107268209739577e-01 4.814092215614940e-01 0.000000000000000e+00
3.121045407535188e-01 4.810049134276767e-01 0.000000000000000e+00
3.134881043435701e-01 4.806024118814758e-01 0.000000000000000e+00
3.148713965392091e-01 4.802003603998188e-01 0.000000000000000e+00
3.162473948015672e-01 4.798008004215589e-01 0.000000000000000e+00
3.176269775064155e-01 4.794022282661522e-01 0.000000000000000e+00
3.190026872949034e-01 4.790040898774597e-01 0.000000000000000e+00
3.203732818202165e-01 4.786085714884936e-01 0.000000000000000e+00
3.217469956448131e-01 4.782139103949269e-01 0.000000000000000e+00
3.231183060936926e-01 4.778205587770042e-01 0.000000000000000e+00
3.244846361995853e-01 4.774301717178399e-01 0.000000000000000e+00
3.258500659824947e-01 4.770404490702730e-01 0.000000000000000e+00
3.272141400688528e-01 4.766519830106186e-01 0.000000000000000e+00
3.285741201522424e-01 4.762659775608621e-01 0.000000000000000e+00
3.299333279392774e-01 4.758810759641408e-01 0.000000000000000e+00
3.312923519713525e-01 4.754983472952432e-01 0.000000000000000e+00
3.326449774821419e-01 4.751178142850954e-01 0.000000000000000e+00
3.339963414500618e-01 4.747382698878521e-01 0.000000000000000e+00
3.353494936267204e-01 4.743605639613042e-01 0.000000000000000e+00
3.366948361071488e-01 4.739851263006068e-01 0.000000000000000e+00
3.380392605686483e-01 4.736113693065049e-01 0.000000000000000e+00
3.393853048355907e-01 4.732395991205439e-01 0.000000000000000e+00
3.407228380473609e-01 4.728699036464051e-01 0.000000000000000e+00
3.420610937389327e-01 4.725020278242322e-01 0.000000000000000e+00
3.434004287744926e-01 4.721359595393716e-01 0.000000000000000e+00
3.447302610227449e-01 4.717720550910042e-01 0.000000000000000e+00
3.460618695612082e-01 4.714103039077029e-01 0.000000000000000e+00
3.473948128576521e-01 4.710501598622594e-01 0.000000000000000e+00
3.487181142930932e-01 4.706923608662877e-01 0.000000000000000e+00
3.500434263432173e-01 4.703369908013652e-01 0.000000000000000e+00
3.513682071019446e-01 4.699829835667494e-01 0.000000000000000e+00
3.526842596369238e-01 4.696314725945371e-01 0.000000000000000e+00
3.540033636035049e-01 4.692822841046198e-01 0.000000000000000e+00
3.553229726751858e-01 4.689345346037241e-01 0.000000000000000e+00
3.566329331222455e-01 4.685895690624287e-01 0.000000000000000e+00
3.579451507002174e-01 4.682471007039702e-01 0.000000000000000e+00
3.592572177542244e-01 4.679059359723655e-01 0.000000000000000e+00
3.605613831520944e-01 4.675676034822730e-01 0.000000000000000e+00
3.618688127600787e-01 4.672316076091553e-01 0.000000000000000e+00
3.631759941976537e-01 4.668970668978106e-01 0.000000000000000e+00
3.644737104462446e-01 4.665655390073998e-01 0.000000000000000e+00
3.657741928894450e-01 4.662365887760324e-01 0.000000000000000e+00
3.670749397828116e-01 4.659088009327470e-01 0.000000000000000e+00
3.683683131935561e-01 4.655840983300254e-01 0.000000000000000e+00
3.696647899457453e-01 4.652618691781018e-01 0.000000000000000e+00
3.709606368920166e-01 4.649411455160952e-01 0.000000000000000e+00
3.722474966325861e-01 4.646237644819338e-01 0.000000000000000e+00
3.735376357952273e-01 4.643090334510926e-01 0.000000000000000e+00
3.748285407795168e-01 4.639954803698343e-01 0.000000000000000e+00
3.761123514973194e-01 4.636851701850159e-01 0.000000000000000e+00
3.773994425027636e-01 4.633774729114994e-01 0.000000000000000e+00
3.786860964096606e-01 4.630713083848614e-01 0.000000000000000e+00
3.799637890561240e-01 4.627685105957571e-01 0.000000000000000e+00
3.812452474315633e-01 4.624685940465602e-01 0.000000000000000e+00
3.825278454263060e-01 4.621698715722982e-01 0.000000000000000e+00
3.838030631384173e-01 4.618743480275259e-01 0.000000000000000e+00
3.850821405778521e-01 4.615816953632465e-01 0.000000000000000e+00
3.863616039076884e-01 4.612906337518637e-01 0.000000000000000e+00
3.876317414490888e-01 4.610028941953009e-01 0.000000000000000e+00
3.889061403451874e-01 4.607185194738793e-01 0.000000000000000e+00
3.901820443465431e-01 4.604355847336816e-01 0.000000000000000e+00
3.914499554441767e-01 4.601556378325024e-01 0.000000000000000e+00
3.927224289380155e-01 4.598786860050898e-01 0.000000000000000e+00
3.939972363401210e-01 4.596035445783854e-01 0.000000000000000e+00
3.952625014717486e-01 4.593313861910846e-01 0.000000000000000e+00
3.965318003034785e-01 4.590629237524943e-01 0.000000000000000e+00
3.978027865762454e-01 4.587963451093416e-01 0.000000000000000e+00
3.990649305631599e-01 4.585323914764283e-01 0.000000000000000e+00
4.003319990137656e-01 4.582716773555959e-01 0.000000000000000e+00
4.016031584318482e-01 4.580130652889970e-01 0.000000000000000e+00
4.028659909954929e-01 4.577573058054178e-01 0.000000000000000e+00
4.041317806546313e-01 4.575048236281600e-01 0.000000000000000e+00
4.054001877397717e-01 4.572548585790098e-01 0.000000000000000e+00
4.066593915956641e-01 4.570077003224833e-01 0.000000000000000e+00
4.079230817522734e-01 4.567642358911855e-01 0.000000000000000e+00
4.091911373565997e-01 4.565233280974831e-01 0.000000000000000e+00
4.104509624315494e-01 4.562849022903798e-01 0.000000000000000e+00
4.117136705647403e-01 4.560493005485181e-01 0.000000000000000e+00
4.129824613581380e-01 4.558170080388445e-01 0.000000000000000e+00
4.142435106920494e-01 4.555873813264579e-01 0.000000000000000e+00
4.155070657313346e-01 4.553607412083802e-01 0.000000000000000e+00
4.167745108189818e-01 4.551371858668904e-01 0.000000000000000e+00
4.180343668759919e-01 4.549164385601418e-01 0.000000000000000e+00
4.192974140510149e-01 4.546988848901733e-01 0.000000000000000e+00
4.205649160668544e-01 4.544844765754958e-01 0.000000000000000e+00
4.218262484145923e-01 4.542730037029063e-01 0.000000000000000e+00
4.230896346532461e-01 4.540641433138091e-01 0.000000000000000e+00
4.243582530651949e-01 4.538586251544913e-01 0.000000000000000e+00
4.256219246790707e-01 4.536563244100892e-01 0.000000000000000e+00
4.268883313176633e-01 4.534569674226110e-01 0.000000000000000e+00
4.281575602630390e-01 4.532602499479386e-01 0.000000000000000e+00
4.294224007845612e-01 4.530670020541852e-01 0.000000000000000e+00
4.306914601773465e-01 4.528774968340269e-01 0.000000000000000e+00
4.319620444311068e-01 4.526904597513631e-01 0.000000000000000e+00
4.332280215893982e-01 4.525069116568183e-01 0.000000000000000e+00
4.344970061513089e-01 4.523268762275636e-01 0.000000000000000e+00
4.357686609103982e-01 4.521496669312610e-01 0.000000000000000e+00
4.370369089476479e-01 4.519758919965008e-01 0.000000000000000e+00
4.383091617681654e-01 4.518056851690482e-01 0.000000000000000e+00
4.395843870637229e-01 4.516380776069609e-01 0.000000000000000e+00
4.408562685828544e-01 4.514733286145466e-01 0.000000000000000e+00
4.421339599789161e-01 4.513129295265907e-01 0.000000000000000e+00
4.434137231077171e-01 4.511551152370037e-01 0.000000000000000e+00
[...]
POINT_DATA   384
SCALARS fTan double
LOOKUP_TABLE default

2.138454e+01 
3.274609e+00 
1.769081e+00 
2.380396e+00 
4.378374e-01 
4.196051e+00 
1.949515e+00 
1.948384e-01 
2.348082e+00 
4.629939e-01 
3.633181e-01 
2.789978e-01 
2.811462e-02 
2.921766e-02 
1.238177e-02 
1.217713e-01 
1.096759e-01 
1.236488e-01 
4.593160e-02 
8.545615e-02 
6.702587e-02 
7.361964e-02 
1.679584e-01 
2.325488e-02 
4.916444e-02 
1.579173e-04 
3.952410e-03 
1.683370e-02 
8.678085e-02 
9.524958e-03 
4.877879e-02 
2.230996e-02 
1.506835e-02 
1.209131e-02 
1.081601e-02 
2.553316e-02 
9.448921e-03 
2.207405e-02 
6.539772e-04 
1.449772e-03 
2.198458e-03 
1.380588e-02 
4.671780e-03 
5.596335e-03 
3.579276e-04 
8.004392e-04 
7.444203e-03 
3.138794e-03 
6.858668e-03 
3.898718e-03 
7.801493e-04 
1.049400e-03 
3.754099e-03 
8.411010e-04 
9.759729e-04 
1.090901e-03 
1.045641e-04 
2.343331e-03 
1.403561e-03 
3.713917e-03 
9.844456e-04 
1.764785e-03 
5.092720e-03 
9.882590e-04 
1.074015e-03 
6.527572e-03 
8.043438e-04 
2.603706e-05 
6.051910e-03 
2.484078e-03 
2.646145e-03 
6.335069e-03 
4.459707e-03 
4.294556e-03 
4.220159e-03 
5.171464e-03 
6.662703e-03 
5.102136e-03 
5.912207e-03 
5.933339e-03 
3.964533e-03 
4.933257e-03 
7.380217e-03 
3.610812e-03 
5.642780e-03 
7.353205e-03 
3.445715e-03 
4.907361e-03 
8.121023e-03 
2.458737e-03 
5.072765e-03 
8.685361e-03 
2.777705e-03 
5.079145e-03 
8.796973e-03 
1.894295e-03 
5.562728e-03 
1.015370e-02 
2.853891e-03 
6.727841e-03 
1.027154e-02 
2.850149e-03 
7.481102e-03 
1.255491e-02 
4.159441e-03 
1.053919e-02 
1.042849e-02 
6.050811e-03 
9.672862e-03 
1.187934e-02 
6.805783e-03 
1.319659e-02 
1.012941e-02 
1.014109e-02 
1.110298e-02 
5.908504e-03 
9.244361e-03 
9.451668e-03 
9.307146e-03 
1.221396e-02 
1.411899e-02 
1.307640e-03 
1.740265e-02 
6.728750e-03 
3.538141e-03 
1.255888e-02 
6.270556e-03 
1.529757e-03 
1.304488e-02 
6.604667e-03 
2.979418e-03 
1.270934e-02 
4.216080e-04 
2.661268e-03 
4.717141e-03 
1.070054e-03 
9.014751e-03 
1.435125e-03 
6.673595e-03 
7.895651e-03 
3.712203e-03 
3.531119e-03 
6.713811e-03 
1.923199e-03 
6.961300e-03 
1.395424e-02 
3.952440e-03 
1.462103e-02 
1.516630e-02 
6.776896e-03 
1.544803e-02 
1.029576e-02 
9.312204e-03 
1.115308e-02 
2.935431e-03 
1.109677e-02 
5.219630e-03 
2.018225e-03 
7.842654e-03 
1.510053e-03 
1.023076e-03 
3.177683e-03 
5.781814e-04 
3.600420e-03 
2.869298e-03 
3.425056e-03 
8.490682e-03 
1.039387e-02 
4.046721e-03 
1.427457e-02 
1.521540e-02 
1.586654e-03 
2.089869e-02 
1.661459e-02 
6.016916e-03 
2.697190e-02 
1.305879e-02 
1.591084e-02 
3.206294e-02 
6.889909e-03 
2.626268e-02 
3.372214e-02 
4.999290e-04 
3.342648e-02 
3.042412e-02 
8.100011e-03 
3.559403e-02 
2.074704e-02 
1.614194e-02 
3.152121e-02 
7.323753e-03 
2.432217e-02 
2.432217e-02 
7.323753e-03 
3.152121e-02 
1.614194e-02 
2.074704e-02 
3.559403e-02 
8.100011e-03 
3.042412e-02 
3.342648e-02 
4.999290e-04 
3.372214e-02 
2.626268e-02 
6.889909e-03 
3.206294e-02 
1.591084e-02 
1.305879e-02 
2.697190e-02 
6.016916e-03 
1.661459e-02 
2.089869e-02 
1.586654e-03 
1.521540e-02 
1.427457e-02 
4.046721e-03 
1.039387e-02 
8.490682e-03 
3.425056e-03 
2.869298e-03 
3.600420e-03 
5.781814e-04 
3.177683e-03 
1.023076e-03 
1.510053e-03 
7.842654e-03 
2.018225e-03 
5.219630e-03 
1.109677e-02 
2.935432e-03 
1.115308e-02 
9.312204e-03 
1.029576e-02 
1.544803e-02 
6.776896e-03 
1.516630e-02 
1.462103e-02 
3.952440e-03 
1.395424e-02 
6.961300e-03 
1.923199e-03 
6.713812e-03 
3.531119e-03 
3.712203e-03 
7.895651e-03 
6.673595e-03 
1.435125e-03 
9.014751e-03 
1.070054e-03 
4.717141e-03 
2.661268e-03 
4.216080e-04 
1.270934e-02 
2.979418e-03 
6.604667e-03 
1.304488e-02 
1.529757e-03 
6.270556e-03 
1.255888e-02 
3.538141e-03 
6.728750e-03 
1.740265e-02 
1.307640e-03 
1.411899e-02 
1.221396e-02 
9.307146e-03 
9.451668e-03 
9.244361e-03 
5.908504e-03 
1.110298e-02 
1.014109e-02 
1.012941e-02 
1.319659e-02 
6.805783e-03 
1.187934e-02 
9.672861e-03 
6.050811e-03 
1.042849e-02 
1.053919e-02 
4.159441e-03 
1.255491e-02 
7.481102e-03 
2.850149e-03 
1.027154e-02 
6.727841e-03 
2.853891e-03 
1.015370e-02 
5.562728e-03 
1.894295e-03 
8.796973e-03 
5.079145e-03 
2.777705e-03 
8.685361e-03 
5.072765e-03 
2.458737e-03 
8.121023e-03 
4.907361e-03 
3.445715e-03 
7.353205e-03 
5.642780e-03 
3.610812e-03 
7.380217e-03 
4.933257e-03 
3.964533e-03 
5.933339e-03 
5.912207e-03 
5.102136e-03 
6.662703e-03 
5.171464e-03 
4.220159e-03 
4.294556e-03 
4.459707e-03 
6.335069e-03 
2.646145e-03 
2.484078e-03 
6.051910e-03 
2.603705e-05 
8.043438e-04 
6.527572e-03 
1.074015e-03 
9.882590e-04 
5.092720e-03 
1.764785e-03 
9.844456e-04 
3.713917e-03 
1.403561e-03 
2.343331e-03 
1.045642e-04 
1.090901e-03 
9.759729e-04 
8.411010e-04 
3.754099e-03 
1.049400e-03 
7.801493e-04 
3.898718e-03 
6.858668e-03 
3.138794e-03 
7.444203e-03 
8.004392e-04 
3.579276e-04 
5.596335e-03 
4.671780e-03 
1.380588e-02 
2.198458e-03 
1.449772e-03 
6.539772e-04 
2.207405e-02 
9.448921e-03 
2.553316e-02 
1.081601e-02 
1.209131e-02 
1.506835e-02 
2.230996e-02 
4.877879e-02 
9.524958e-03 
8.678085e-02 
1.683370e-02 
3.952410e-03 
1.579173e-04 
4.916444e-02 
2.325488e-02 
1.679584e-01 
7.361964e-02 
6.702587e-02 
8.545615e-02 
4.593160e-02 
1.236488e-01 
1.096759e-01 
1.217713e-01 
1.238177e-02 
2.921766e-02 
2.811462e-02 
2.789978e-01 
3.633181e-01 
4.629939e-01 
2.348082e+00 
1.948384e-01 
1.949515e+00 
4.196051e+00 
4.378374e-01 
2.380396e+00 
1.769081e+00 
3.274609e+00 
2.138454e+01 
