# vtk DataFile Version 2.0
fTan
ASCII
DATASET UNSTRUCTURED_GRID

FIELD FieldData 1
TIME 1 1 double
0.09000000
POINTS 384 float
2.500002126744292e-01 5.000003105895049e-01 0.000000000000000e+00
2.519210008132660e-01 4.990055605068175e-01 0.000000000000000e+00
2.541457159812144e-01 4.978904437270244e-01 0.000000000000000e+00
2.559009051947654e-01 4.969683112920379e-01 0.000000000000000e+00
2.573004512601241e-01 4.962455964352470e-01 0.000000000000000e+00
2.586599813838932e-01 4.955938160128622e-01 0.000000000000000e+00
2.598981070336605e-01 4.950032585907195e-01 0.000000000000000e+00
2.611428593359735e-01 4.944019649475218e-01 0.000000000000000e+00
2.622821443891281e-01 4.938058591929513e-01 0.000000000000000e+00
2.633776773395294e-01 4.932306819967779e-01 0.000000000000000e+00
2.644692196391326e-01 4.926861124571988e-01 0.000000000000000e+00
2.655382498946952e-01 4.921783146692797e-01 0.000000000000000e+00
2.665345171689246e-01 4.917041215222062e-01 0.000000000000000e+00
2.675476667606250e-01 4.912271183773326e-01 0.000000000000000e+00
2.685570897996135e-01 4.907370930469656e-01 0.000000000000000e+00
2.695816020818945e-01 4.902342549413845e-01 0.000000000000000e+00
2.706359118180003e-01 4.897154941409975e-01 0.000000000000000e+00
2.716980738951026e-01 4.891847970813857e-01 0.000000000000000e+00
2.727960616093882e-01 4.886497242706074e-01 0.000000000000000e+00
2.739268393072858e-01 4.881189436760538e-01 0.000000000000000e+00
2.750605378695659e-01 4.875810569257381e-01 0.000000000000000e+00
2.762240269825563e-01 4.870366443511828e-01 0.000000000000000e+00
2.773933919987093e-01 4.864747293070460e-01 0.000000000000000e+00
2.785710333177474e-01 4.859050611138501e-01 0.000000000000000e+00
2.797805040263780e-01 4.853271595778790e-01 0.000000000000000e+00
2.810041390099353e-01 4.847521645423656e-01 0.000000000000000e+00
2.822344026967358e-01 4.841790464561453e-01 0.000000000000000e+00
2.834821379379429e-01 4.836016103604189e-01 0.000000000000000e+00
2.847241204348280e-01 4.830164318995784e-01 0.000000000000000e+00
2.859782953147723e-01 4.824259623756887e-01 0.000000000000000e+00
2.872453812781651e-01 4.818338460623995e-01 0.000000000000000e+00
2.885171094159369e-01 4.812460562151111e-01 0.000000000000000e+00
2.898011082480038e-01 4.806590562838856e-01 0.000000000000000e+00
2.910816401017278e-01 4.800704734074404e-01 0.000000000000000e+00
2.923639405841358e-01 4.794782612457295e-01 0.000000000000000e+00
2.936575301438393e-01 4.788846119189460e-01 0.000000000000000e+00
2.949486195589923e-01 4.782936525464976e-01 0.000000000000000e+00
2.962506909837260e-01 4.777053254140962e-01 0.000000000000000e+00
2.975542680146884e-01 4.771174116807862e-01 0.000000000000000e+00
2.988516296373636e-01 4.765301080472891e-01 0.000000000000000e+00
3.001587840649212e-01 4.759414391990109e-01 0.000000000000000e+00
3.014609143789372e-01 4.753554271340854e-01 0.000000000000000e+00
3.027649055748675e-01 4.747731440079704e-01 0.000000000000000e+00
3.040790772593819e-01 4.741915186791977e-01 0.000000000000000e+00
3.053829669054554e-01 4.736127771542507e-01 0.000000000000000e+00
3.066900415098133e-01 4.730351130251667e-01 0.000000000000000e+00
3.080018663736920e-01 4.724573935664828e-01 0.000000000000000e+00
3.093059536022030e-01 4.718839732143911e-01 0.000000000000000e+00
3.106166427527796e-01 4.713131647432934e-01 0.000000000000000e+00
3.119275637888328e-01 4.707439987024926e-01 0.000000000000000e+00
3.132323123005011e-01 4.701786649626838e-01 0.000000000000000e+00
3.145411734390594e-01 4.696146841809472e-01 0.000000000000000e+00
3.158476094112628e-01 4.690525715713332e-01 0.000000000000000e+00
3.171509781990198e-01 4.684947014931714e-01 0.000000000000000e+00
3.184584335587743e-01 4.679386662124129e-01 0.000000000000000e+00
3.197645399965491e-01 4.673853157446596e-01 0.000000000000000e+00
3.210670767534647e-01 4.668363237213656e-01 0.000000000000000e+00
3.223696007941295e-01 4.662890339195874e-01 0.000000000000000e+00
3.236721187087753e-01 4.657441677902404e-01 0.000000000000000e+00
3.249722495899248e-01 4.652030951883528e-01 0.000000000000000e+00
3.262727389373721e-01 4.646643824873772e-01 0.000000000000000e+00
3.275742671121930e-01 4.641289598023559e-01 0.000000000000000e+00
3.288710257724855e-01 4.635973955351085e-01 0.000000000000000e+00
3.301676091916101e-01 4.630680538977872e-01 0.000000000000000e+00
3.314672436128568e-01 4.625414690911969e-01 0.000000000000000e+00
3.327608456677407e-01 4.620188985760515e-01 0.000000000000000e+00
3.340547024318827e-01 4.614992295045418e-01 0.000000000000000e+00
3.353513372214472e-01 4.609824285886850e-01 0.000000000000000e+00
3.366412985812847e-01 4.604694406263167e-01 0.000000000000000e+00
3.379332067002828e-01 4.599593858040789e-01 0.000000000000000e+00
3.392274896189170e-01 4.594522316718297e-01 0.000000000000000e+00
3.405140998331470e-01 4.589492291904518e-01 0.000000000000000e+00
3.418035601035390e-01 4.584493462593935e-01 0.000000000000000e+00
3.430954802718255e-01 4.579519517899197e-01 0.000000000000000e+00
3.443795075543152e-01 4.574586843574222e-01 0.000000000000000e+00
3.456668114782030e-01 4.569688224954587e-01 0.000000000000000e+00
3.469550633129755e-01 4.564815445652523e-01 0.000000000000000e+00
3.482365474143732e-01 4.559987506989281e-01 0.000000000000000e+00
3.495222868016890e-01 4.555191813057033e-01 0.000000000000000e+00
3.508097561152819e-01 4.550421078260237e-01 0.000000000000000e+00
3.520892921358924e-01 4.545696438527334e-01 0.000000000000000e+00
3.533722221115163e-01 4.541005812355556e-01 0.000000000000000e+00
3.546562649324695e-01 4.536338757758812e-01 0.000000000000000e+00
3.559341947892838e-01 4.531716768161621e-01 0.000000000000000e+00
3.572167675047084e-01 4.527127262574468e-01 0.000000000000000e+00
3.585004830883016e-01 4.522564894287086e-01 0.000000000000000e+00
3.597765871298480e-01 4.518053072386322e-01 0.000000000000000e+00
3.610567198895110e-01 4.513575984059986e-01 0.000000000000000e+00
3.623383757408722e-01 4.509121137559070e-01 0.000000000000000e+00
3.636143296698374e-01 4.504712801784398e-01 0.000000000000000e+00
3.648946873350306e-01 4.500337476284296e-01 0.000000000000000e+00
3.661757285803112e-01 4.495989121895629e-01 0.000000000000000e+00
3.674495281419156e-01 4.491692098894366e-01 0.000000000000000e+00
3.687280225048702e-01 4.487430553955226e-01 0.000000000000000e+00
3.700086157929175e-01 4.483191662367324e-01 0.000000000000000e+00
3.712837897560045e-01 4.479002488923199e-01 0.000000000000000e+00
3.725636064256750e-01 4.474848232371481e-01 0.000000000000000e+00
3.738442500157254e-01 4.470721090806806e-01 0.000000000000000e+00
3.751175271210895e-01 4.466644912430776e-01 0.000000000000000e+00
3.763959025243408e-01 4.462605085104331e-01 0.000000000000000e+00
3.776767007114779e-01 4.458587744949495e-01 0.000000000000000e+00
3.789517413119586e-01 4.454618811884972e-01 0.000000000000000e+00
3.802321675556595e-01 4.450687362039434e-01 0.000000000000000e+00
3.815143564718315e-01 4.446783473742872e-01 0.000000000000000e+00
3.827888316534989e-01 4.442931111174247e-01 0.000000000000000e+00
3.840689621324451e-01 4.439120619138082e-01 0.000000000000000e+00
3.853518625626698e-01 4.435334546222799e-01 0.000000000000000e+00
3.866282655141257e-01 4.431594345361082e-01 0.000000000000000e+00
3.879106036501296e-01 4.427891058806478e-01 0.000000000000000e+00
3.891964671957862e-01 4.424215402895058e-01 0.000000000000000e+00
3.904742338546134e-01 4.420586578499099e-01 0.000000000000000e+00
3.917574324592181e-01 4.417003682021230e-01 0.000000000000000e+00
3.930436115064061e-01 4.413450993038361e-01 0.000000000000000e+00
3.943224647709113e-01 4.409942640000551e-01 0.000000000000000e+00
3.956077726588892e-01 4.406475054526297e-01 0.000000000000000e+00
3.968984677619348e-01 4.403037225921217e-01 0.000000000000000e+00
3.981822730588182e-01 4.399644441850744e-01 0.000000000000000e+00
3.994705137225872e-01 4.396292642719964e-01 0.000000000000000e+00
4.007625521009504e-01 4.392975466750281e-01 0.000000000000000e+00
4.020467216352127e-01 4.389701650701291e-01 0.000000000000000e+00
4.033367476545471e-01 4.386471957851145e-01 0.000000000000000e+00
4.046323053777236e-01 4.383277403301947e-01 0.000000000000000e+00
4.059209277010264e-01 4.380123603199254e-01 0.000000000000000e+00
4.072138689331925e-01 4.377007892170034e-01 0.000000000000000e+00
4.085140681053291e-01 4.373933196038463e-01 0.000000000000000e+00
4.098078293227144e-01 4.370900889539284e-01 0.000000000000000e+00
4.111055302149765e-01 4.367909220781221e-01 0.000000000000000e+00
4.124083075479864e-01 4.364957849088551e-01 0.000000000000000e+00
4.137047247464352e-01 4.362049955309636e-01 0.000000000000000e+00
4.150057684702130e-01 4.359182861689916e-01 0.000000000000000e+00
4.163124520792119e-01 4.356356373163125e-01 0.000000000000000e+00
4.176141331854967e-01 4.353573649159689e-01 0.000000000000000e+00
4.189192943447647e-01 4.350826310834449e-01 0.000000000000000e+00
4.202308394349580e-01 4.348121365020672e-01 0.000000000000000e+00
4.215385802540094e-01 4.345461999355623e-01 0.000000000000000e+00
4.228503719822388e-01 4.342841914097290e-01 0.000000000000000e+00
4.241661079858813e-01 4.340258970968919e-01 0.000000000000000e+00
4.254785216444661e-01 4.337723549806128e-01 0.000000000000000e+00
4.267963830434904e-01 4.335234438576921e-01 0.000000000000000e+00
4.281169374624958e-01 4.332781224699881e-01 0.000000000000000e+00
4.294339485985463e-01 4.330376240699083e-01 0.000000000000000e+00
4.307551658318570e-01 4.328015731271035e-01 0.000000000000000e+00
4.320801889596017e-01 4.325693707637077e-01 0.000000000000000e+00
4.334029036148522e-01 4.323418265129363e-01 0.000000000000000e+00
4.347308121531774e-01 4.321187205725152e-01 0.000000000000000e+00
4.360628195808698e-01 4.318992988404642e-01 0.000000000000000e+00
4.373926335674169e-01 4.316839502688565e-01 0.000000000000000e+00
4.387293556756677e-01 4.314737119982891e-01 0.000000000000000e+00
4.400692005303072e-01 4.312672104630616e-01 0.000000000000000e+00
[...]
POINT_DATA   384
SCALARS fTan double
LOOKUP_TABLE default

2.389654e+00 
1.241502e+00 
4.719443e-01 
1.040125e-01 
3.744045e-01 
1.653582e+00 
1.249642e+00 
1.383147e-01 
9.200894e-01 
5.222100e-01 
5.705397e-01 
3.045858e-01 
8.211829e-02 
3.096707e-02 
1.217239e-01 
1.476275e-02 
5.637916e-02 
2.745764e-01 
1.489063e-01 
1.483394e-01 
7.821573e-02 
1.460095e-02 
1.123461e-01 
7.480745e-02 
8.647431e-03 
4.369107e-02 
3.175807e-02 
3.136213e-03 
5.001167e-02 
3.633658e-02 
2.412065e-02 
3.155500e-02 
1.167101e-02 
4.856873e-03 
3.342278e-03 
3.225833e-02 
3.523803e-03 
3.231940e-02 
3.458739e-03 
7.983653e-04 
9.431493e-03 
2.675949e-02 
1.656993e-02 
9.783871e-03 
5.062790e-03 
2.121546e-03 
1.911598e-02 
6.420106e-03 
1.682437e-02 
6.443857e-03 
1.460614e-03 
1.193858e-03 
1.230553e-02 
2.382704e-04 
5.862959e-04 
1.040252e-03 
5.306135e-04 
6.017794e-03 
2.845695e-03 
7.003065e-03 
4.497555e-04 
4.203791e-03 
1.110204e-02 
6.357367e-04 
2.415886e-03 
1.270397e-02 
4.214625e-03 
7.313323e-04 
1.357165e-02 
7.828098e-03 
4.112787e-03 
1.182551e-02 
1.083369e-02 
8.288423e-03 
9.573791e-03 
1.087921e-02 
1.195553e-02 
8.067979e-03 
1.297267e-02 
9.750357e-03 
6.770321e-03 
9.679794e-03 
1.345461e-02 
6.368214e-03 
1.149251e-02 
1.175357e-02 
4.054140e-03 
9.967242e-03 
1.299786e-02 
3.430751e-03 
9.645390e-03 
1.425632e-02 
3.479130e-03 
9.590610e-03 
1.372529e-02 
9.286672e-04 
1.105414e-02 
1.496494e-02 
3.363961e-03 
1.150119e-02 
1.619761e-02 
3.242031e-03 
1.409337e-02 
1.830100e-02 
4.272785e-03 
1.845470e-02 
1.468891e-02 
7.893697e-03 
1.658916e-02 
1.735875e-02 
1.003859e-02 
2.248699e-02 
1.454286e-02 
1.361001e-02 
1.953720e-02 
6.959575e-03 
1.207015e-02 
1.669934e-02 
1.149255e-02 
1.765740e-02 
2.224916e-02 
7.204185e-04 
2.431641e-02 
1.293558e-02 
5.604998e-03 
1.721784e-02 
1.271677e-02 
2.890066e-04 
1.725730e-02 
1.167179e-02 
6.387834e-03 
1.684608e-02 
2.532062e-03 
5.583740e-03 
5.646909e-03 
3.835672e-03 
1.002120e-02 
6.208665e-04 
1.088135e-02 
8.823191e-03 
3.210606e-03 
6.609435e-03 
6.909104e-03 
1.443555e-03 
1.118347e-02 
1.575253e-02 
4.300470e-03 
2.083324e-02 
1.795010e-02 
8.041706e-03 
2.223071e-02 
1.130600e-02 
1.157228e-02 
1.623363e-02 
8.576829e-04 
1.380606e-02 
7.561505e-03 
5.601942e-03 
9.868976e-03 
2.532055e-03 
2.527808e-03 
3.510735e-03 
6.935085e-04 
8.268102e-04 
4.205875e-03 
4.717168e-03 
7.139492e-03 
1.361987e-02 
5.629489e-03 
1.460570e-02 
1.956979e-02 
2.305250e-03 
2.286040e-02 
2.079457e-02 
7.673446e-03 
3.061193e-02 
1.518638e-02 
2.076806e-02 
3.682639e-02 
6.175134e-03 
3.447493e-02 
3.908675e-02 
4.492747e-03 
4.414512e-02 
3.573196e-02 
1.498021e-02 
4.800928e-02 
2.443634e-02 
2.554805e-02 
4.375553e-02 
8.683265e-03 
3.555720e-02 
3.555720e-02 
8.683265e-03 
4.375553e-02 
2.554805e-02 
2.443634e-02 
4.800928e-02 
1.498021e-02 
3.573196e-02 
4.414512e-02 
4.492747e-03 
3.908675e-02 
3.447493e-02 
6.175134e-03 
3.682639e-02 
2.076806e-02 
1.518638e-02 
3.061193e-02 
7.673446e-03 
2.079457e-02 
2.286040e-02 
2.305250e-03 
1.956979e-02 
1.460570e-02 
5.629489e-03 
1.361987e-02 
7.139492e-03 
4.717168e-03 
4.205875e-03 
8.268102e-04 
6.935085e-04 
3.510735e-03 
2.527808e-03 
2.532055e-03 
9.868976e-03 
5.601942e-03 
7.561505e-03 
1.380606e-02 
8.576829e-04 
1.623363e-02 
1.157228e-02 
1.130600e-02 
2.223071e-02 
8.041706e-03 
1.795010e-02 
2.083324e-02 
4.300470e-03 
1.575253e-02 
1.118347e-02 
1.443555e-03 
6.909104e-03 
6.609435e-03 
3.210606e-03 
8.823191e-03 
1.088135e-02 
6.208665e-04 
1.002120e-02 
3.835672e-03 
5.646909e-03 
5.583740e-03 
2.532062e-03 
1.684608e-02 
6.387834e-03 
1.167179e-02 
1.725730e-02 
2.890066e-04 
1.271677e-02 
1.721784e-02 
5.604998e-03 
1.293558e-02 
2.431641e-02 
7.204185e-04 
2.224916e-02 
1.765740e-02 
1.149255e-02 
1.669934e-02 
1.207015e-02 
6.959575e-03 
1.953720e-02 
1.361001e-02 
1.454286e-02 
2.248699e-02 
1.003859e-02 
1.735875e-02 
1.658916e-02 
7.893697e-03 
1.468891e-02 
1.845470e-02 
4.272785e-03 
1.830100e-02 
1.409337e-02 
3.242031e-03 
1.619761e-02 
1.150119e-02 
3.363961e-03 
1.496494e-02 
1.105414e-02 
9.286672e-04 
1.372529e-02 
9.590610e-03 
3.479130e-03 
1.425632e-02 
9.645390e-03 
3.430751e-03 
1.299786e-02 
9.967242e-03 
4.054140e-03 
1.175357e-02 
1.149251e-02 
6.368214e-03 
1.345461e-02 
9.679794e-03 
6.770321e-03 
9.750357e-03 
1.297267e-02 
8.067979e-03 
1.195553e-02 
1.087921e-02 
9.573791e-03 
8.288423e-03 
1.083369e-02 
1.182551e-02 
4.112787e-03 
7.828098e-03 
1.357165e-02 
7.313323e-04 
4.214625e-03 
1.270397e-02 
2.415886e-03 
6.357367e-04 
1.110204e-02 
4.203791e-03 
4.497555e-04 
7.003065e-03 
2.845695e-03 
6.017794e-03 
5.306135e-04 
1.040252e-03 
5.862959e-04 
2.382704e-04 
1.230553e-02 
1.193858e-03 
1.460614e-03 
6.443857e-03 
1.682437e-02 
6.420106e-03 
1.911598e-02 
2.121546e-03 
5.062790e-03 
9.783871e-03 
1.656993e-02 
2.675949e-02 
9.431493e-03 
7.983653e-04 
3.458739e-03 
3.231940e-02 
3.523803e-03 
3.225833e-02 
3.342278e-03 
4.856873e-03 
1.167101e-02 
3.155500e-02 
2.412065e-02 
3.633658e-02 
5.001167e-02 
3.136213e-03 
3.175807e-02 
4.369107e-02 
8.647431e-03 
7.480745e-02 
1.123461e-01 
1.460095e-02 
7.821573e-02 
1.483394e-01 
1.489063e-01 
2.745764e-01 
5.637916e-02 
1.476275e-02 
1.217239e-01 
3.096707e-02 
8.211829e-02 
3.045858e-01 
5.705397e-01 
5.222100e-01 
9.200894e-01 
1.383147e-01 
1.249642e+00 
1.653582e+00 
3.744045e-01 
1.040125e-01 
4.719443e-01 
1.241502e+00 
2.389654e+00 
