# vtk DataFile Version 2.0
fX_Lag
ASCII
DATASET UNSTRUCTURED_GRID

FIELD FieldData 1
TIME 1 1 double
0.09000000
POINTS 384 float
2.500002126744292e-01 5.000003105895049e-01 0.000000000000000e+00
2.519210008132660e-01 4.990055605068175e-01 0.000000000000000e+00
2.541457159812144e-01 4.978904437270244e-01 0.000000000000000e+00
2.559009051947654e-01 4.969683112920379e-01 0.000000000000000e+00
2.573004512601241e-01 4.962455964352470e-01 0.000000000000000e+00
2.586599813838932e-01 4.955938160128622e-01 0.000000000000000e+00
2.598981070336605e-01 4.950032585907195e-01 0.000000000000000e+00
2.611428593359735e-01 4.944019649475218e-01 0.000000000000000e+00
2.622821443891281e-01 4.938058591929513e-01 0.000000000000000e+00
2.633776773395294e-01 4.932306819967779e-01 0.000000000000000e+00
2.644692196391326e-01 4.926861124571988e-01 0.000000000000000e+00
2.655382498946952e-01 4.921783146692797e-01 0.000000000000000e+00
2.665345171689246e-01 4.917041215222062e-01 0.000000000000000e+00
2.675476667606250e-01 4.912271183773326e-01 0.000000000000000e+00
2.685570897996135e-01 4.907370930469656e-01 0.000000000000000e+00
2.695816020818945e-01 4.902342549413845e-01 0.000000000000000e+00
2.706359118180003e-01 4.897154941409975e-01 0.000000000000000e+00
2.716980738951026e-01 4.891847970813857e-01 0.000000000000000e+00
2.727960616093882e-01 4.886497242706074e-01 0.000000000000000e+00
2.739268393072858e-01 4.881189436760538e-01 0.000000000000000e+00
2.750605378695659e-01 4.875810569257381e-01 0.000000000000000e+00
2.762240269825563e-01 4.870366443511828e-01 0.000000000000000e+00
2.773933919987093e-01 4.864747293070460e-01 0.000000000000000e+00
2.785710333177474e-01 4.859050611138501e-01 0.000000000000000e+00
2.797805040263780e-01 4.853271595778790e-01 0.000000000000000e+00
2.810041390099353e-01 4.847521645423656e-01 0.000000000000000e+00
2.822344026967358e-01 4.841790464561453e-01 0.000000000000000e+00
2.834821379379429e-01 4.836016103604189e-01 0.000000000000000e+00
2.847241204348280e-01 4.830164318995784e-01 0.000000000000000e+00
2.859782953147723e-01 4.824259623756887e-01 0.000000000000000e+00
2.872453812781651e-01 4.818338460623995e-01 0.000000000000000e+00
2.885171094159369e-01 4.812460562151111e-01 0.000000000000000e+00
2.898011082480038e-01 4.806590562838856e-01 0.000000000000000e+00
2.910816401017278e-01 4.800704734074404e-01 0.000000000000000e+00
2.923639405841358e-01 4.794782612457295e-01 0.000000000000000e+00
2.936575301438393e-01 4.788846119189460e-01 0.000000000000000e+00
2.949486195589923e-01 4.782936525464976e-01 0.000000000000000e+00
2.962506909837260e-01 4.777053254140962e-01 0.000000000000000e+00
2.975542680146884e-01 4.771174116807862e-01 0.000000000000000e+00
2.988516296373636e-01 4.765301080472891e-01 0.000000000000000e+00
3.001587840649212e-01 4.759414391990109e-01 0.000000000000000e+00
3.014609143789372e-01 4.753554271340854e-01 0.000000000000000e+00
3.027649055748675e-01 4.747731440079704e-01 0.000000000000000e+00
3.040790772593819e-01 4.741915186791977e-01 0.000000000000000e+00
3.053829669054554e-01 4.736127771542507e-01 0.000000000000000e+00
3.066900415098133e-01 4.730351130251667e-01 0.000000000000000e+00
3.080018663736920e-01 4.724573935664828e-01 0.000000000000000e+00
3.093059536022030e-01 4.718839732143911e-01 0.000000000000000e+00
3.106166427527796e-01 4.713131647432934e-01 0.000000000000000e+00
3.119275637888328e-01 4.707439987024926e-01 0.000000000000000e+00
3.132323123005011e-01 4.701786649626838e-01 0.000000000000000e+00
3.145411734390594e-01 4.696146841809472e-01 0.000000000000000e+00
3.158476094112628e-01 4.690525715713332e-01 0.000000000000000e+00
3.171509781990198e-01 4.684947014931714e-01 0.000000000000000e+00
3.184584335587743e-01 4.679386662124129e-01 0.000000000000000e+00
3.197645399965491e-01 4.673853157446596e-01 0.000000000000000e+00
3.210670767534647e-01 4.668363237213656e-01 0.000000000000000e+00
3.223696007941295e-01 4.662890339195874e-01 0.000000000000000e+00
3.236721187087753e-01 4.657441677902404e-01 0.000000000000000e+00
3.249722495899248e-01 4.652030951883528e-01 0.000000000000000e+00
3.262727389373721e-01 4.646643824873772e-01 0.000000000000000e+00
3.275742671121930e-01 4.641289598023559e-01 0.000000000000000e+00
3.288710257724855e-01 4.635973955351085e-01 0.000000000000000e+00
3.301676091916101e-01 4.630680538977872e-01 0.000000000000000e+00
3.314672436128568e-01 4.625414690911969e-01 0.000000000000000e+00
3.327608456677407e-01 4.620188985760515e-01 0.000000000000000e+00
3.340547024318827e-01 4.614992295045418e-01 0.000000000000000e+00
3.353513372214472e-01 4.609824285886850e-01 0.000000000000000e+00
3.366412985812847e-01 4.604694406263167e-01 0.000000000000000e+00
3.379332067002828e-01 4.599593858040789e-01 0.000000000000000e+00
3.392274896189170e-01 4.594522316718297e-01 0.000000000000000e+00
3.405140998331470e-01 4.589492291904518e-01 0.000000000000000e+00
3.418035601035390e-01 4.584493462593935e-01 0.000000000000000e+00
3.430954802718255e-01 4.579519517899197e-01 0.000000000000000e+00
3.443795075543152e-01 4.574586843574222e-01 0.000000000000000e+00
3.456668114782030e-01 4.569688224954587e-01 0.000000000000000e+00
3.469550633129755e-01 4.564815445652523e-01 0.000000000000000e+00
3.482365474143732e-01 4.559987506989281e-01 0.000000000000000e+00
3.495222868016890e-01 4.555191813057033e-01 0.000000000000000e+00
3.508097561152819e-01 4.550421078260237e-01 0.000000000000000e+00
3.520892921358924e-01 4.545696438527334e-01 0.000000000000000e+00
3.533722221115163e-01 4.541005812355556e-01 0.000000000000000e+00
3.546562649324695e-01 4.536338757758812e-01 0.000000000000000e+00
3.559341947892838e-01 4.531716768161621e-01 0.000000000000000e+00
3.572167675047084e-01 4.527127262574468e-01 0.000000000000000e+00
3.585004830883016e-01 4.522564894287086e-01 0.000000000000000e+00
3.597765871298480e-01 4.518053072386322e-01 0.000000000000000e+00
3.610567198895110e-01 4.513575984059986e-01 0.000000000000000e+00
3.623383757408722e-01 4.509121137559070e-01 0.000000000000000e+00
3.636143296698374e-01 4.504712801784398e-01 0.000000000000000e+00
3.648946873350306e-01 4.500337476284296e-01 0.000000000000000e+00
3.661757285803112e-01 4.495989121895629e-01 0.000000000000000e+00
3.674495281419156e-01 4.491692098894366e-01 0.000000000000000e+00
3.687280225048702e-01 4.487430553955226e-01 0.000000000000000e+00
3.700086157929175e-01 4.483191662367324e-01 0.000000000000000e+00
3.712837897560045e-01 4.479002488923199e-01 0.000000000000000e+00
3.725636064256750e-01 4.474848232371481e-01 0.000000000000000e+00
3.738442500157254e-01 4.470721090806806e-01 0.000000000000000e+00
3.751175271210895e-01 4.466644912430776e-01 0.000000000000000e+00
3.763959025243408e-01 4.462605085104331e-01 0.000000000000000e+00
3.776767007114779e-01 4.458587744949495e-01 0.000000000000000e+00
3.789517413119586e-01 4.454618811884972e-01 0.000000000000000e+00
3.802321675556595e-01 4.450687362039434e-01 0.000000000000000e+00
3.815143564718315e-01 4.446783473742872e-01 0.000000000000000e+00
3.827888316534989e-01 4.442931111174247e-01 0.000000000000000e+00
3.840689621324451e-01 4.439120619138082e-01 0.000000000000000e+00
3.853518625626698e-01 4.435334546222799e-01 0.000000000000000e+00
3.866282655141257e-01 4.431594345361082e-01 0.000000000000000e+00
3.879106036501296e-01 4.427891058806478e-01 0.000000000000000e+00
3.891964671957862e-01 4.424215402895058e-01 0.000000000000000e+00
3.904742338546134e-01 4.420586578499099e-01 0.000000000000000e+00
3.917574324592181e-01 4.417003682021230e-01 0.000000000000000e+00
3.930436115064061e-01 4.413450993038361e-01 0.000000000000000e+00
3.943224647709113e-01 4.409942640000551e-01 0.000000000000000e+00
3.956077726588892e-01 4.406475054526297e-01 0.000000000000000e+00
3.968984677619348e-01 4.403037225921217e-01 0.000000000000000e+00
3.981822730588182e-01 4.399644441850744e-01 0.000000000000000e+00
3.994705137225872e-01 4.396292642719964e-01 0.000000000000000e+00
4.007625521009504e-01 4.392975466750281e-01 0.000000000000000e+00
4.020467216352127e-01 4.389701650701291e-01 0.000000000000000e+00
4.033367476545471e-01 4.386471957851145e-01 0.000000000000000e+00
4.046323053777236e-01 4.383277403301947e-01 0.000000000000000e+00
4.059209277010264e-01 4.380123603199254e-01 0.000000000000000e+00
4.072138689331925e-01 4.377007892170034e-01 0.000000000000000e+00
4.085140681053291e-01 4.373933196038463e-01 0.000000000000000e+00
4.098078293227144e-01 4.370900889539284e-01 0.000000000000000e+00
4.111055302149765e-01 4.367909220781221e-01 0.000000000000000e+00
4.124083075479864e-01 4.364957849088551e-01 0.000000000000000e+00
4.137047247464352e-01 4.362049955309636e-01 0.000000000000000e+00
4.150057684702130e-01 4.359182861689916e-01 0.000000000000000e+00
4.163124520792119e-01 4.356356373163125e-01 0.000000000000000e+00
4.176141331854967e-01 4.353573649159689e-01 0.000000000000000e+00
4.189192943447647e-01 4.350826310834449e-01 0.000000000000000e+00
4.202308394349580e-01 4.348121365020672e-01 0.000000000000000e+00
4.215385802540094e-01 4.345461999355623e-01 0.000000000000000e+00
4.228503719822388e-01 4.342841914097290e-01 0.000000000000000e+00
4.241661079858813e-01 4.340258970968919e-01 0.000000000000000e+00
4.254785216444661e-01 4.337723549806128e-01 0.000000000000000e+00
4.267963830434904e-01 4.335234438576921e-01 0.000000000000000e+00
4.281169374624958e-01 4.332781224699881e-01 0.000000000000000e+00
4.294339485985463e-01 4.330376240699083e-01 0.000000000000000e+00
4.307551658318570e-01 4.328015731271035e-01 0.000000000000000e+00
4.320801889596017e-01 4.325693707637077e-01 0.000000000000000e+00
4.334029036148522e-01 4.323418265129363e-01 0.000000000000000e+00
4.347308121531774e-01 4.321187205725152e-01 0.000000000000000e+00
4.360628195808698e-01 4.318992988404642e-01 0.000000000000000e+00
4.373926335674169e-01 4.316839502688565e-01 0.000000000000000e+00
4.387293556756677e-01 4.314737119982891e-01 0.000000000000000e+00
4.400692005303072e-01 4.312672104630616e-01 0.000000000000000e+00
[...]
POINT_DATA   384
SCALARS fX_Lag double
LOOKUP_TABLE default

2.340534e+00 
3.169639e+01 
-5.270088e+01 
-1.154518e+01 
5.978506e+01 
2.520155e+01 
-2.123622e+01 
-3.754404e+01 
-9.960306e+00 
2.387960e+01 
2.341610e+01 
8.352016e+00 
-1.439497e+00 
-7.398877e+00 
-6.682567e+00 
-4.318162e+00 
-9.703133e-01 
1.134968e+01 
1.393506e+01 
4.847206e+00 
-1.878392e+00 
-8.446867e+00 
-4.751341e+00 
6.951460e+00 
1.089989e+01 
8.252304e+00 
6.618026e-01 
-6.045564e+00 
-1.790403e+00 
5.857848e+00 
8.907606e+00 
6.070538e+00 
-1.044403e+00 
-1.897794e+00 
2.382402e+00 
5.513489e+00 
6.838228e+00 
2.920616e+00 
-9.320829e-02 
1.638104e+00 
3.188243e+00 
5.588830e+00 
5.053748e+00 
1.641758e+00 
2.006490e+00 
2.805517e+00 
3.482843e+00 
5.093052e+00 
3.788647e+00 
2.660983e+00 
3.036299e+00 
2.816421e+00 
3.726028e+00 
4.426272e+00 
3.848500e+00 
3.418581e+00 
3.095289e+00 
3.306069e+00 
3.707231e+00 
4.034967e+00 
4.124372e+00 
3.350284e+00 
3.502809e+00 
4.011085e+00 
3.448586e+00 
3.884832e+00 
4.056365e+00 
3.314729e+00 
4.080069e+00 
4.116969e+00 
3.372451e+00 
4.206213e+00 
3.921768e+00 
3.262272e+00 
4.204303e+00 
3.914464e+00 
3.605021e+00 
4.539581e+00 
3.931241e+00 
3.382950e+00 
4.136241e+00 
3.732154e+00 
3.625533e+00 
4.485822e+00 
3.960024e+00 
3.682551e+00 
4.280514e+00 
3.737093e+00 
3.646995e+00 
4.271022e+00 
3.716946e+00 
3.681515e+00 
4.334413e+00 
3.861961e+00 
3.849249e+00 
4.316166e+00 
3.626218e+00 
3.571379e+00 
4.206564e+00 
3.679917e+00 
3.678482e+00 
4.326789e+00 
3.712522e+00 
3.652790e+00 
4.370682e+00 
3.674149e+00 
3.365941e+00 
4.113454e+00 
3.629425e+00 
3.405077e+00 
4.255773e+00 
3.722545e+00 
3.269786e+00 
4.132297e+00 
3.859518e+00 
3.297023e+00 
3.823024e+00 
3.544853e+00 
3.165567e+00 
3.964636e+00 
3.747060e+00 
2.962800e+00 
3.611442e+00 
3.860514e+00 
3.217863e+00 
3.479039e+00 
3.532320e+00 
3.069111e+00 
3.448078e+00 
3.524281e+00 
2.957842e+00 
3.130476e+00 
3.415065e+00 
3.137564e+00 
3.068120e+00 
3.043264e+00 
3.079521e+00 
3.229761e+00 
2.938379e+00 
2.816121e+00 
3.003965e+00 
2.866502e+00 
2.787112e+00 
2.878744e+00 
2.617085e+00 
2.590368e+00 
2.885170e+00 
2.534462e+00 
2.377865e+00 
2.761527e+00 
2.488796e+00 
2.225622e+00 
2.528007e+00 
2.414079e+00 
2.108249e+00 
2.253562e+00 
2.291167e+00 
2.043768e+00 
2.034249e+00 
2.078063e+00 
1.951079e+00 
1.899103e+00 
1.873551e+00 
1.809877e+00 
1.710187e+00 
1.642926e+00 
1.697364e+00 
1.574676e+00 
1.413118e+00 
1.527588e+00 
1.434664e+00 
1.203950e+00 
1.326810e+00 
1.297804e+00 
1.017347e+00 
1.083211e+00 
1.136418e+00 
8.599440e-01 
8.411945e-01 
9.507260e-01 
7.115718e-01 
6.100401e-01 
7.337345e-01 
5.614385e-01 
4.092406e-01 
4.975354e-01 
3.956773e-01 
2.325646e-01 
2.495101e-01 
2.040559e-01 
7.573706e-02 
1.258389e-02 
-1.258389e-02 
-7.573706e-02 
-2.040559e-01 
-2.495101e-01 
-2.325646e-01 
-3.956773e-01 
-4.975354e-01 
-4.092406e-01 
-5.614385e-01 
-7.337345e-01 
-6.100401e-01 
-7.115718e-01 
-9.507260e-01 
-8.411945e-01 
-8.599440e-01 
-1.136418e+00 
-1.083211e+00 
-1.017347e+00 
-1.297804e+00 
-1.326810e+00 
-1.203950e+00 
-1.434664e+00 
-1.527588e+00 
-1.413118e+00 
-1.574676e+00 
-1.697364e+00 
-1.642926e+00 
-1.710187e+00 
-1.809877e+00 
-1.873551e+00 
-1.899103e+00 
-1.951079e+00 
-2.078063e+00 
-2.034249e+00 
-2.043768e+00 
-2.291167e+00 
-2.253562e+00 
-2.108249e+00 
-2.414079e+00 
-2.528007e+00 
-2.225622e+00 
-2.488796e+00 
-2.761527e+00 
-2.377865e+00 
-2.534462e+00 
-2.885170e+00 
-2.590368e+00 
-2.617085e+00 
-2.878744e+00 
-2.787112e+00 
-2.866502e+00 
-3.003965e+00 
-2.816121e+00 
-2.938379e+00 
-3.229761e+00 
-3.079521e+00 
-3.043264e+00 
-3.068120e+00 
-3.137564e+00 
-3.415065e+00 
-3.130476e+00 
-2.957842e+00 
-3.524281e+00 
-3.448078e+00 
-3.069111e+00 
-3.532320e+00 
-3.479039e+00 
-3.217863e+00 
-3.860514e+00 
-3.611442e+00 
-2.962800e+00 
-3.747060e+00 
-3.964636e+00 
-3.165567e+00 
-3.544853e+00 
-3.823024e+00 
-3.297023e+00 
-3.859518e+00 
-4.132297e+00 
-3.269786e+00 
-3.722545e+00 
-4.255773e+00 
-3.405077e+00 
-3.629425e+00 
-4.113454e+00 
-3.365941e+00 
-3.674149e+00 
-4.370682e+00 
-3.652790e+00 
-3.712522e+00 
-4.326789e+00 
-3.678482e+00 
-3.679917e+00 
-4.206564e+00 
-3.571379e+00 
-3.626218e+00 
-4.316166e+00 
-3.849249e+00 
-3.861961e+00 
-4.334413e+00 
-3.681515e+00 
-3.716946e+00 
-4.271022e+00 
-3.646995e+00 
-3.737093e+00 
-4.280514e+00 
-3.682551e+00 
-3.960024e+00 
-4.485822e+00 
-3.625533e+00 
-3.732154e+00 
-4.136241e+00 
-3.382950e+00 
-3.931241e+00 
-4.539581e+00 
-3.605021e+00 
-3.914464e+00 
-4.204303e+00 
-3.262272e+00 
-3.921768e+00 
-4.206213e+00 
-3.372451e+00 
-4.116969e+00 
-4.080069e+00 
-3.314729e+00 
-4.056365e+00 
-3.884832e+00 
-3.448586e+00 
-4.011085e+00 
-3.502809e+00 
-3.350284e+00 
-4.124372e+00 
-4.034967e+00 
-3.707231e+00 
-3.306069e+00 
-3.095289e+00 
-3.418581e+00 
-3.848500e+00 
-4.426272e+00 
-3.726028e+00 
-2.816421e+00 
-3.036299e+00 
-2.660983e+00 
-3.788647e+00 
-5.093052e+00 
-3.482843e+00 
-2.805517e+00 
-2.006490e+00 
-1.641758e+00 
-5.053748e+00 
-5.588830e+00 
-3.188243e+00 
-1.638104e+00 
9.320829e-02 
-2.920616e+00 
-6.838228e+00 
-5.513489e+00 
-2.382402e+00 
1.897794e+00 
1.044403e+00 
-6.070538e+00 
-8.907606e+00 
-5.857848e+00 
1.790403e+00 
6.045564e+00 
-6.618026e-01 
-8.252304e+00 
-1.089989e+01 
-6.951460e+00 
4.751341e+00 
8.446867e+00 
1.878392e+00 
-4.847206e+00 
-1.393506e+01 
-1.134968e+01 
9.703133e-01 
4.318162e+00 
6.682567e+00 
7.398877e+00 
1.439497e+00 
-8.352016e+00 
-2.341610e+01 
-2.387960e+01 
9.960306e+00 
3.754404e+01 
2.123622e+01 
-2.520155e+01 
-5.978506e+01 
1.154518e+01 
5.270088e+01 
-3.169639e+01 
-2.340534e+00 
