# vtk DataFile Version 2.0
fX_Lag
ASCII
DATASET UNSTRUCTURED_GRID

FIELD FieldData 1
TIME 1 1 double
0.01000000
POINTS 384 float
2.499988842852429e-01 5.000012358087648e-01 0.000000000000000e+00
2.514318053238974e-01 5.011296533988314e-01 0.000000000000000e+00
2.528202037321546e-01 5.023053962498055e-01 0.000000000000000e+00
2.542012381682230e-01 5.034517932426041e-01 0.000000000000000e+00
2.555745405769408e-01 5.045555880385945e-01 0.000000000000000e+00
2.569417393261220e-01 5.056564340909803e-01 0.000000000000000e+00
2.582978963560427e-01 5.067659931746881e-01 0.000000000000000e+00
2.596593000220792e-01 5.078843957131179e-01 0.000000000000000e+00
2.610294599411386e-01 5.089932443347441e-01 0.000000000000000e+00
2.624033401461330e-01 5.100983855385145e-01 0.000000000000000e+00
2.637748857923454e-01 5.112081446543555e-01 0.000000000000000e+00
2.651408270946377e-01 5.123149026150515e-01 0.000000000000000e+00
2.665059356374122e-01 5.134144343099710e-01 0.000000000000000e+00
2.678762121123260e-01 5.145151914879269e-01 0.000000000000000e+00
2.692454777297371e-01 5.156124469898145e-01 0.000000000000000e+00
2.706121044036708e-01 5.167081182479057e-01 0.000000000000000e+00
2.719813853401225e-01 5.178046075867551e-01 0.000000000000000e+00
2.733492323387272e-01 5.188958078178743e-01 0.000000000000000e+00
2.747143304269249e-01 5.199817924753709e-01 0.000000000000000e+00
2.760791016403884e-01 5.210665519382210e-01 0.000000000000000e+00
2.774402055485983e-01 5.221463443436012e-01 0.000000000000000e+00
2.787985385351239e-01 5.232216358394101e-01 0.000000000000000e+00
2.801572095549190e-01 5.242944548594139e-01 0.000000000000000e+00
2.815122808132466e-01 5.253611691722586e-01 0.000000000000000e+00
2.828646034771524e-01 5.264244694379230e-01 0.000000000000000e+00
2.842168034552626e-01 5.274856037541840e-01 0.000000000000000e+00
2.855650651808743e-01 5.285394875097470e-01 0.000000000000000e+00
2.869111103915294e-01 5.295899543151306e-01 0.000000000000000e+00
2.882566082720524e-01 5.306380126157226e-01 0.000000000000000e+00
2.895979636635929e-01 5.316787369089258e-01 0.000000000000000e+00
2.909372018377806e-01 5.327157563691987e-01 0.000000000000000e+00
2.922758636681747e-01 5.337505090621529e-01 0.000000000000000e+00
2.936105776402718e-01 5.347779962985212e-01 0.000000000000000e+00
2.949434428114440e-01 5.358013808278578e-01 0.000000000000000e+00
2.962755773375093e-01 5.368222230129280e-01 0.000000000000000e+00
2.976033989978028e-01 5.378360133435174e-01 0.000000000000000e+00
2.989298144799864e-01 5.388459090747598e-01 0.000000000000000e+00
3.002554358528525e-01 5.398523395316188e-01 0.000000000000000e+00
3.015768675468122e-01 5.408519419323369e-01 0.000000000000000e+00
3.028969079492924e-01 5.418480323040935e-01 0.000000000000000e+00
3.042164711199134e-01 5.428405583022492e-01 0.000000000000000e+00
3.055317434766472e-01 5.438255608746396e-01 0.000000000000000e+00
3.068459329747782e-01 5.448074868338753e-01 0.000000000000000e+00
3.081596553003644e-01 5.457859991358807e-01 0.000000000000000e+00
3.094691172073348e-01 5.467566635744119e-01 0.000000000000000e+00
3.107777236270328e-01 5.477239310514329e-01 0.000000000000000e+00
3.120859008450657e-01 5.486878882730389e-01 0.000000000000000e+00
3.133897574777461e-01 5.496441851680612e-01 0.000000000000000e+00
3.146928476431960e-01 5.505968300393476e-01 0.000000000000000e+00
3.159957080727916e-01 5.515456614630030e-01 0.000000000000000e+00
3.172943781089023e-01 5.524870841746677e-01 0.000000000000000e+00
3.185924310934637e-01 5.534251988885189e-01 0.000000000000000e+00
3.198903072185618e-01 5.543592953772265e-01 0.000000000000000e+00
3.211840746344368e-01 5.552853958516921e-01 0.000000000000000e+00
3.224776358507246e-01 5.562083976638950e-01 0.000000000000000e+00
3.237711710371861e-01 5.571277322315843e-01 0.000000000000000e+00
3.250601818779784e-01 5.580387770482924e-01 0.000000000000000e+00
3.263491783291617e-01 5.589462472593091e-01 0.000000000000000e+00
3.276386332528107e-01 5.598499207622323e-01 0.000000000000000e+00
3.289236119503113e-01 5.607456137600730e-01 0.000000000000000e+00
3.302084971391106e-01 5.616379695303432e-01 0.000000000000000e+00
3.314938875811576e-01 5.625261197359934e-01 0.000000000000000e+00
3.327753286661652e-01 5.634059006110065e-01 0.000000000000000e+00
3.340570440342067e-01 5.642825090059898e-01 0.000000000000000e+00
3.353393896797444e-01 5.651555109100479e-01 0.000000000000000e+00
3.366169776035464e-01 5.660196720494157e-01 0.000000000000000e+00
3.378952363863194e-01 5.668800302295626e-01 0.000000000000000e+00
3.391747630462991e-01 5.677364694397629e-01 0.000000000000000e+00
3.404496544577941e-01 5.685844586620659e-01 0.000000000000000e+00
3.417248296561166e-01 5.694290935376543e-01 0.000000000000000e+00
3.430012837861822e-01 5.702696725152316e-01 0.000000000000000e+00
3.442736500350307e-01 5.711009663011579e-01 0.000000000000000e+00
3.455470180367908e-01 5.719286741582071e-01 0.000000000000000e+00
3.468219754899920e-01 5.727530312490984e-01 0.000000000000000e+00
3.480919031932324e-01 5.735683242170139e-01 0.000000000000000e+00
3.493624198455475e-01 5.743794853845623e-01 0.000000000000000e+00
3.506353180679465e-01 5.751863825163700e-01 0.000000000000000e+00
3.519039297604870e-01 5.759841696974229e-01 0.000000000000000e+00
3.531734938102056e-01 5.767783378515222e-01 0.000000000000000e+00
3.544451555918937e-01 5.775692648836436e-01 0.000000000000000e+00
3.557119940803655e-01 5.783503946390504e-01 0.000000000000000e+00
3.569798355115861e-01 5.791266978301007e-01 0.000000000000000e+00
3.582508599736683e-01 5.798993573683876e-01 0.000000000000000e+00
3.595174579137742e-01 5.806628487314424e-01 0.000000000000000e+00
3.607849126158275e-01 5.814221938536415e-01 0.000000000000000e+00
3.620550417012613e-01 5.821780176438427e-01 0.000000000000000e+00
3.633205692637526e-01 5.829235301587401e-01 0.000000000000000e+00
3.645870061302325e-01 5.836640117903412e-01 0.000000000000000e+00
3.658574579737474e-01 5.844012383854958e-01 0.000000000000000e+00
3.671236971012379e-01 5.851291249783619e-01 0.000000000000000e+00
3.683907409357008e-01 5.858520565653257e-01 0.000000000000000e+00
3.696611096244879e-01 5.865711802434035e-01 0.000000000000000e+00
3.709268831170378e-01 5.872799784487411e-01 0.000000000000000e+00
3.721932639222016e-01 5.879834135269948e-01 0.000000000000000e+00
3.734644423831877e-01 5.886836633731576e-01 0.000000000000000e+00
3.747318703818005e-01 5.893744313697301e-01 0.000000000000000e+00
3.760001948750357e-01 5.900593995898478e-01 0.000000000000000e+00
3.772723662310680e-01 5.907404094972437e-01 0.000000000000000e+00
3.785399666960632e-01 5.914112001550581e-01 0.000000000000000e+00
3.798077222738726e-01 5.920761911846710e-01 0.000000000000000e+00
3.810807710968177e-01 5.927377509054623e-01 0.000000000000000e+00
3.823506917208289e-01 5.933897389488761e-01 0.000000000000000e+00
3.836216900889806e-01 5.940351945044410e-01 0.000000000000000e+00
3.848969957216030e-01 5.946766068090937e-01 0.000000000000000e+00
3.861679459000641e-01 5.953079615941063e-01 0.000000000000000e+00
3.874385025331258e-01 5.959330052734210e-01 0.000000000000000e+00
3.887143502444676e-01 5.965541041499337e-01 0.000000000000000e+00
3.899876539290199e-01 5.971655590529937e-01 0.000000000000000e+00
3.912622475443135e-01 5.977699948931616e-01 0.000000000000000e+00
3.925416162222494e-01 5.983703391595085e-01 0.000000000000000e+00
3.938173574847682e-01 5.989609311902657e-01 0.000000000000000e+00
3.950925925229494e-01 5.995444864698893e-01 0.000000000000000e+00
3.963723267433066e-01 6.001232868598748e-01 0.000000000000000e+00
3.976495424666112e-01 6.006924662064634e-01 0.000000000000000e+00
3.989277411126577e-01 6.012545710979357e-01 0.000000000000000e+00
4.002112048219821e-01 6.018121329430586e-01 0.000000000000000e+00
4.014920887878852e-01 6.023604080090131e-01 0.000000000000000e+00
4.027735165499221e-01 6.029008197816260e-01 0.000000000000000e+00
4.040589169981685e-01 6.034358520188396e-01 0.000000000000000e+00
4.053412605337653e-01 6.039615810879803e-01 0.000000000000000e+00
4.066235474136132e-01 6.044804746003645e-01 0.000000000000000e+00
4.079106329440692e-01 6.049936682337306e-01 0.000000000000000e+00
4.091960507402546e-01 6.054972894386953e-01 0.000000000000000e+00
4.104824283604538e-01 6.059929661046684e-01 0.000000000000000e+00
4.117731134651919e-01 6.064834957780519e-01 0.000000000000000e+00
4.130618722667249e-01 6.069650990202871e-01 0.000000000000000e+00
4.143509179332409e-01 6.074390353743166e-01 0.000000000000000e+00
4.156434650136530e-01 6.079066366875389e-01 0.000000000000000e+00
4.169339029379084e-01 6.083651131538172e-01 0.000000000000000e+00
4.182246643946635e-01 6.088163854528050e-01 0.000000000000000e+00
4.195191133065758e-01 6.092609838845799e-01 0.000000000000000e+00
4.208120357509773e-01 6.096964085742737e-01 0.000000000000000e+00
4.221055966470393e-01 6.101238224953419e-01 0.000000000000000e+00
4.234026755881370e-01 6.105453586584386e-01 0.000000000000000e+00
4.246987107667033e-01 6.109583535791981e-01 0.000000000000000e+00
4.259955430025293e-01 6.113634994321326e-01 0.000000000000000e+00
4.272954264295916e-01 6.117618127579042e-01 0.000000000000000e+00
4.285940440500841e-01 6.121516971399990e-01 0.000000000000000e+00
4.298931680833327e-01 6.125346403302218e-01 0.000000000000000e+00
4.311945389199648e-01 6.129100696427189e-01 0.000000000000000e+00
4.324943774504553e-01 6.132765565475599e-01 0.000000000000000e+00
4.337943489591662e-01 6.136351931186956e-01 0.000000000000000e+00
4.350963078572371e-01 6.139870650325536e-01 0.000000000000000e+00
4.363971415120773e-01 6.143308879680248e-01 0.000000000000000e+00
4.376987390220010e-01 6.146668004612912e-01 0.000000000000000e+00
4.390031175009881e-01 6.149958540612080e-01 0.000000000000000e+00
4.403072868296142e-01 6.153169780752725e-01 0.000000000000000e+00
4.416127275554162e-01 6.156310850541987e-01 0.000000000000000e+00
4.429205470512777e-01 6.159381589469615e-01 0.000000000000000e+00
[...]
POINT_DATA   384
SCALARS fX_Lag double
LOOKUP_TABLE default

1.258126e+02 
-1.174824e+02 
-1.834425e+00 
7.352354e+01 
1.238101e+01 
-3.147219e+01 
-7.493828e+00 
2.701666e+01 
1.800071e+01 
-5.908240e+00 
-2.336294e+00 
1.089813e+01 
1.138824e+01 
5.878727e+00 
2.229050e+00 
4.655610e+00 
9.427581e+00 
8.337800e+00 
5.211654e+00 
5.439220e+00 
6.898322e+00 
8.060233e+00 
7.655459e+00 
5.679601e+00 
6.847496e+00 
8.636733e+00 
6.782266e+00 
6.881270e+00 
8.617338e+00 
7.040156e+00 
6.871074e+00 
8.922306e+00 
7.946051e+00 
7.076304e+00 
8.331120e+00 
8.258445e+00 
8.151285e+00 
8.396942e+00 
7.787618e+00 
8.633035e+00 
9.187599e+00 
7.726610e+00 
8.407233e+00 
9.725926e+00 
8.410971e+00 
8.349599e+00 
9.449963e+00 
8.935162e+00 
9.127141e+00 
9.385005e+00 
8.556834e+00 
9.517038e+00 
1.022850e+01 
8.767646e+00 
9.117826e+00 
1.028568e+01 
9.609916e+00 
9.712987e+00 
9.921509e+00 
9.197402e+00 
1.029860e+01 
1.092524e+01 
9.276357e+00 
9.538891e+00 
1.086389e+01 
1.045438e+01 
1.050184e+01 
1.038077e+01 
9.400175e+00 
1.069816e+01 
1.192657e+01 
1.033082e+01 
9.887843e+00 
1.072504e+01 
1.069752e+01 
1.154402e+01 
1.165298e+01 
9.847813e+00 
1.010665e+01 
1.178445e+01 
1.155138e+01 
1.134706e+01 
1.133587e+01 
1.014984e+01 
1.077224e+01 
1.231020e+01 
1.150947e+01 
1.107870e+01 
1.154215e+01 
1.082150e+01 
1.119750e+01 
1.217291e+01 
1.124608e+01 
1.103809e+01 
1.190843e+01 
1.140273e+01 
1.130552e+01 
1.179657e+01 
1.097622e+01 
1.104584e+01 
1.218347e+01 
1.173509e+01 
1.119954e+01 
1.137474e+01 
1.070425e+01 
1.094318e+01 
1.217031e+01 
1.168890e+01 
1.089686e+01 
1.111093e+01 
1.071125e+01 
1.072294e+01 
1.148322e+01 
1.102997e+01 
1.051900e+01 
1.105823e+01 
1.098610e+01 
1.042409e+01 
1.019122e+01 
9.850457e+00 
1.025410e+01 
1.102845e+01 
1.043335e+01 
9.553775e+00 
9.679285e+00 
9.677513e+00 
9.520526e+00 
9.467518e+00 
9.110793e+00 
9.207674e+00 
9.514024e+00 
8.990359e+00 
8.370727e+00 
8.503872e+00 
8.542271e+00 
8.257658e+00 
7.922859e+00 
7.629179e+00 
7.844588e+00 
7.967539e+00 
7.455365e+00 
6.977612e+00 
6.973927e+00 
6.973504e+00 
6.731587e+00 
6.485809e+00 
6.239479e+00 
6.126233e+00 
5.972643e+00 
5.713797e+00 
5.686258e+00 
5.590158e+00 
5.286286e+00 
5.073662e+00 
4.963181e+00 
4.775815e+00 
4.522576e+00 
4.424856e+00 
4.343096e+00 
4.150222e+00 
3.969066e+00 
3.786847e+00 
3.683675e+00 
3.595970e+00 
3.407543e+00 
3.263481e+00 
3.152671e+00 
2.999950e+00 
2.879650e+00 
2.773743e+00 
2.638569e+00 
2.509441e+00 
2.389063e+00 
2.265253e+00 
2.144305e+00 
2.027609e+00 
1.910206e+00 
1.790190e+00 
1.670920e+00 
1.552545e+00 
1.432621e+00 
1.311101e+00 
1.190588e+00 
1.070042e+00 
9.456728e-01 
8.216777e-01 
6.982084e-01 
5.710117e-01 
4.446773e-01 
3.193958e-01 
1.911615e-01 
6.315436e-02 
-6.315436e-02 
-1.911615e-01 
-3.193958e-01 
-4.446773e-01 
-5.710117e-01 
-6.982084e-01 
-8.216777e-01 
-9.456728e-01 
-1.070042e+00 
-1.190588e+00 
-1.311101e+00 
-1.432621e+00 
-1.552545e+00 
-1.670920e+00 
-1.790190e+00 
-1.910206e+00 
-2.027609e+00 
-2.144305e+00 
-2.265253e+00 
-2.389063e+00 
-2.509441e+00 
-2.638569e+00 
-2.773743e+00 
-2.879650e+00 
-2.999950e+00 
-3.152671e+00 
-3.263481e+00 
-3.407543e+00 
-3.595970e+00 
-3.683675e+00 
-3.786847e+00 
-3.969066e+00 
-4.150222e+00 
-4.343096e+00 
-4.424856e+00 
-4.522576e+00 
-4.775815e+00 
-4.963181e+00 
-5.073662e+00 
-5.286286e+00 
-5.590158e+00 
-5.686258e+00 
-5.713797e+00 
-5.972643e+00 
-6.126233e+00 
-6.239479e+00 
-6.485809e+00 
-6.731587e+00 
-6.973504e+00 
-6.973927e+00 
-6.977612e+00 
-7.455365e+00 
-7.967539e+00 
-7.844588e+00 
-7.629179e+00 
-7.922859e+00 
-8.257658e+00 
-8.542271e+00 
-8.503872e+00 
-8.370727e+00 
-8.990359e+00 
-9.514024e+00 
-9.207674e+00 
-9.110793e+00 
-9.467518e+00 
-9.520526e+00 
-9.677513e+00 
-9.679285e+00 
-9.553775e+00 
-1.043335e+01 
-1.102845e+01 
-1.025410e+01 
-9.850457e+00 
-1.019122e+01 
-1.042409e+01 
-1.098610e+01 
-1.105823e+01 
-1.051900e+01 
-1.102997e+01 
-1.148322e+01 
-1.072294e+01 
-1.071125e+01 
-1.111093e+01 
-1.089686e+01 
-1.168890e+01 
-1.217031e+01 
-1.094318e+01 
-1.070425e+01 
-1.137474e+01 
-1.119954e+01 
-1.173509e+01 
-1.218347e+01 
-1.104584e+01 
-1.097622e+01 
-1.179657e+01 
-1.130552e+01 
-1.140273e+01 
-1.190843e+01 
-1.103809e+01 
-1.124608e+01 
-1.217291e+01 
-1.119750e+01 
-1.082150e+01 
-1.154215e+01 
-1.107870e+01 
-1.150947e+01 
-1.231020e+01 
-1.077224e+01 
-1.014984e+01 
-1.133587e+01 
-1.134706e+01 
-1.155138e+01 
-1.178445e+01 
-1.010665e+01 
-9.847813e+00 
-1.165298e+01 
-1.154402e+01 
-1.069752e+01 
-1.072504e+01 
-9.887843e+00 
-1.033082e+01 
-1.192657e+01 
-1.069816e+01 
-9.400175e+00 
-1.038077e+01 
-1.050184e+01 
-1.045438e+01 
-1.086389e+01 
-9.538891e+00 
-9.276357e+00 
-1.092524e+01 
-1.029860e+01 
-9.197402e+00 
-9.921509e+00 
-9.712987e+00 
-9.609916e+00 
-1.028568e+01 
-9.117826e+00 
-8.767646e+00 
-1.022850e+01 
-9.517038e+00 
-8.556834e+00 
-9.385005e+00 
-9.127141e+00 
-8.935162e+00 
-9.449963e+00 
-8.349599e+00 
-8.410971e+00 
-9.725926e+00 
-8.407233e+00 
-7.726610e+00 
-9.187599e+00 
-8.633035e+00 
-7.787618e+00 
-8.396942e+00 
-8.151285e+00 
-8.258445e+00 
-8.331120e+00 
-7.076304e+00 
-7.946051e+00 
-8.922306e+00 
-6.871074e+00 
-7.040156e+00 
-8.617338e+00 
-6.881270e+00 
-6.782266e+00 
-8.636733e+00 
-6.847496e+00 
-5.679601e+00 
-7.655459e+00 
-8.060233e+00 
-6.898322e+00 
-5.439220e+00 
-5.211654e+00 
-8.337800e+00 
-9.427581e+00 
-4.655610e+00 
-2.229050e+00 
-5.878727e+00 
-1.138824e+01 
-1.089813e+01 
2.336294e+00 
5.908240e+00 
-1.800071e+01 
-2.701666e+01 
7.493828e+00 
3.147219e+01 
-1.238101e+01 
-7.352354e+01 
1.834425e+00 
1.174824e+02 
-1.258126e+02 
