# vtk DataFile Version 2.0
fX_Lag
ASCII
DATASET UNSTRUCTURED_GRID

FIELD FieldData 1
TIME 1 1 double
0.02000000
POINTS 384 float
2.499986617817537e-01 5.000017187739997e-01 0.000000000000000e+00
2.515183875305242e-01 5.009963386190524e-01 0.000000000000000e+00
2.529747873620489e-01 5.020720199438012e-01 0.000000000000000e+00
2.543899268432123e-01 5.030580898124182e-01 0.000000000000000e+00
2.557421859354589e-01 5.039587247940125e-01 0.000000000000000e+00
2.570662324343160e-01 5.048569465313126e-01 0.000000000000000e+00
2.583756990531502e-01 5.057703946327431e-01 0.000000000000000e+00
2.597102942518016e-01 5.067071354848882e-01 0.000000000000000e+00
2.610652868833176e-01 5.076309281700424e-01 0.000000000000000e+00
2.624338115032467e-01 5.085601152293594e-01 0.000000000000000e+00
2.638085686381283e-01 5.095035164041271e-01 0.000000000000000e+00
2.651806002684549e-01 5.104471038280605e-01 0.000000000000000e+00
2.665519036048999e-01 5.113820565926996e-01 0.000000000000000e+00
2.679361216176688e-01 5.123230645760819e-01 0.000000000000000e+00
2.693246615223325e-01 5.132647343294686e-01 0.000000000000000e+00
2.707184606946640e-01 5.142139421112594e-01 0.000000000000000e+00
2.721229305838188e-01 5.151670184913284e-01 0.000000000000000e+00
2.735294950602690e-01 5.161168834753137e-01 0.000000000000000e+00
2.749381060792983e-01 5.170679099374761e-01 0.000000000000000e+00
2.763489321651279e-01 5.180196506969236e-01 0.000000000000000e+00
2.777569640040872e-01 5.189672965922731e-01 0.000000000000000e+00
2.791660549445905e-01 5.199141987748221e-01 0.000000000000000e+00
2.805763533871910e-01 5.208591905305808e-01 0.000000000000000e+00
2.819834960082473e-01 5.218003308113208e-01 0.000000000000000e+00
2.833913217890789e-01 5.227415355059812e-01 0.000000000000000e+00
2.847991199773158e-01 5.236802548026515e-01 0.000000000000000e+00
2.862032096785564e-01 5.246133890685605e-01 0.000000000000000e+00
2.876066230171850e-01 5.255453784257740e-01 0.000000000000000e+00
2.890082682929410e-01 5.264745407975910e-01 0.000000000000000e+00
2.904059686913119e-01 5.273981018325231e-01 0.000000000000000e+00
2.918025106920891e-01 5.283192980620380e-01 0.000000000000000e+00
2.931972034040223e-01 5.292377705641960e-01 0.000000000000000e+00
2.945882749761081e-01 5.301510942828311e-01 0.000000000000000e+00
2.959774762873261e-01 5.310611308041667e-01 0.000000000000000e+00
2.973646612809792e-01 5.319681900944961e-01 0.000000000000000e+00
2.987482063785230e-01 5.328703881398980e-01 0.000000000000000e+00
3.001295551190877e-01 5.337689460210104e-01 0.000000000000000e+00
3.015088842098945e-01 5.346639644567122e-01 0.000000000000000e+00
3.028850349656067e-01 5.355545117896349e-01 0.000000000000000e+00
3.042585416918569e-01 5.364413939934737e-01 0.000000000000000e+00
3.056300256823706e-01 5.373245177366180e-01 0.000000000000000e+00
3.069979725135488e-01 5.382023787553050e-01 0.000000000000000e+00
3.083636523843141e-01 5.390769762605281e-01 0.000000000000000e+00
3.097274937218810e-01 5.399481054586647e-01 0.000000000000000e+00
3.110872297169101e-01 5.408133483600365e-01 0.000000000000000e+00
3.124446590252634e-01 5.416749181960886e-01 0.000000000000000e+00
3.138010348314786e-01 5.425336408158214e-01 0.000000000000000e+00
3.151533270757530e-01 5.433865629041568e-01 0.000000000000000e+00
3.165027804375549e-01 5.442352235954856e-01 0.000000000000000e+00
3.178513477273352e-01 5.450807680175974e-01 0.000000000000000e+00
3.191960071100859e-01 5.459207662463437e-01 0.000000000000000e+00
3.205381699452349e-01 5.467568222263801e-01 0.000000000000000e+00
3.218792063179157e-01 5.475893648860344e-01 0.000000000000000e+00
3.232159238740672e-01 5.484156522694562e-01 0.000000000000000e+00
3.245505748961773e-01 5.492383608244725e-01 0.000000000000000e+00
3.258847457962765e-01 5.500581916433775e-01 0.000000000000000e+00
3.272141561564449e-01 5.508714043093887e-01 0.000000000000000e+00
3.285413283168011e-01 5.516804130983259e-01 0.000000000000000e+00
3.298685278985874e-01 5.524866309215321e-01 0.000000000000000e+00
3.311910386830850e-01 5.532865605705788e-01 0.000000000000000e+00
3.325114078029731e-01 5.540826128095332e-01 0.000000000000000e+00
3.338314705375927e-01 5.548752542009228e-01 0.000000000000000e+00
3.351471040267950e-01 5.556611885634064e-01 0.000000000000000e+00
3.364609690618792e-01 5.564435251148968e-01 0.000000000000000e+00
3.377749184752333e-01 5.572231859684432e-01 0.000000000000000e+00
3.390836556751288e-01 5.579958320444147e-01 0.000000000000000e+00
3.403908571852158e-01 5.587643331356426e-01 0.000000000000000e+00
3.416985305370921e-01 5.595298587303659e-01 0.000000000000000e+00
3.430012197299168e-01 5.602886847161570e-01 0.000000000000000e+00
3.443021959178520e-01 5.610439389239584e-01 0.000000000000000e+00
3.456033508241566e-01 5.617959990723720e-01 0.000000000000000e+00
3.468997671663572e-01 5.625407867172063e-01 0.000000000000000e+00
3.481950195064608e-01 5.632818445157813e-01 0.000000000000000e+00
3.494909797937103e-01 5.640204143763430e-01 0.000000000000000e+00
3.507815842993632e-01 5.647519326401217e-01 0.000000000000000e+00
3.520707171274327e-01 5.654795338073977e-01 0.000000000000000e+00
3.533607285918109e-01 5.662037479735286e-01 0.000000000000000e+00
3.546458586450784e-01 5.669209505147998e-01 0.000000000000000e+00
3.559300743639400e-01 5.676347039653034e-01 0.000000000000000e+00
3.572150928187593e-01 5.683459766994511e-01 0.000000000000000e+00
3.584947180470300e-01 5.690497374457206e-01 0.000000000000000e+00
3.597733522061989e-01 5.697493943894746e-01 0.000000000000000e+00
3.610532881602043e-01 5.704461424361722e-01 0.000000000000000e+00
3.623283471498636e-01 5.711359712157337e-01 0.000000000000000e+00
3.636028076676853e-01 5.718224275838373e-01 0.000000000000000e+00
3.648780685741262e-01 5.725060077457923e-01 0.000000000000000e+00
3.661480382729065e-01 5.731817429388896e-01 0.000000000000000e+00
3.674173026262733e-01 5.738536699941763e-01 0.000000000000000e+00
3.686882452110648e-01 5.745228969657603e-01 0.000000000000000e+00
3.699544746280050e-01 5.751852510253638e-01 0.000000000000000e+00
3.712204373935876e-01 5.758441845298381e-01 0.000000000000000e+00
3.724873045821279e-01 5.764997955148449e-01 0.000000000000000e+00
3.737488485675877e-01 5.771475355635750e-01 0.000000000000000e+00
3.750101140569882e-01 5.777917411750980e-01 0.000000000000000e+00
3.762733527685063e-01 5.784331396038069e-01 0.000000000000000e+00
3.775321142802574e-01 5.790676974408131e-01 0.000000000000000e+00
3.787911576626411e-01 5.796988539142504e-01 0.000000000000000e+00
3.800511247238974e-01 5.803263483828649e-01 0.000000000000000e+00
3.813057324380085e-01 5.809459818569757e-01 0.000000000000000e+00
3.825604837944349e-01 5.815622611303624e-01 0.000000000000000e+00
3.838173731581384e-01 5.821753285311777e-01 0.000000000000000e+00
3.850700781683145e-01 5.827814256433674e-01 0.000000000000000e+00
3.863238189486563e-01 5.833842605451102e-01 0.000000000000000e+00
3.875786628431949e-01 5.839833365069754e-01 0.000000000000000e+00
3.888281045949785e-01 5.845745274404248e-01 0.000000000000000e+00
3.900779812501837e-01 5.851624736008102e-01 0.000000000000000e+00
3.913300182428570e-01 5.857466099621245e-01 0.000000000000000e+00
3.925780908652689e-01 5.863233099293809e-01 0.000000000000000e+00
3.938281192435821e-01 5.868968736240426e-01 0.000000000000000e+00
3.950798217812067e-01 5.874669579253841e-01 0.000000000000000e+00
3.963262907505526e-01 5.880291703984292e-01 0.000000000000000e+00
3.975736196854828e-01 5.885881144526955e-01 0.000000000000000e+00
3.988226800359602e-01 5.891426002526694e-01 0.000000000000000e+00
4.000674633081957e-01 5.896888905997666e-01 0.000000000000000e+00
4.013148508757811e-01 5.902321960923880e-01 0.000000000000000e+00
4.025648687346132e-01 5.907719301107761e-01 0.000000000000000e+00
4.038100435950579e-01 5.913038915178292e-01 0.000000000000000e+00
4.050573290325328e-01 5.918323651800406e-01 0.000000000000000e+00
4.063063544916551e-01 5.923562480286004e-01 0.000000000000000e+00
4.075499534324623e-01 5.928714406516674e-01 0.000000000000000e+00
4.087960337795842e-01 5.933839367599796e-01 0.000000000000000e+00
4.100453037659906e-01 5.938920181107161e-01 0.000000000000000e+00
4.112900084469575e-01 5.943910954332702e-01 0.000000000000000e+00
4.125378385258354e-01 5.948868097011015e-01 0.000000000000000e+00
4.137888056099493e-01 5.953790016394278e-01 0.000000000000000e+00
4.150346658083986e-01 5.958623445724631e-01 0.000000000000000e+00
4.162831574462757e-01 5.963423118167708e-01 0.000000000000000e+00
4.175344661431214e-01 5.968174496864119e-01 0.000000000000000e+00
4.187805398545991e-01 5.972830731156822e-01 0.000000000000000e+00
4.200296249747676e-01 5.977453086898457e-01 0.000000000000000e+00
4.212822717106165e-01 5.982029438635714e-01 0.000000000000000e+00
4.225302143050273e-01 5.986511602481009e-01 0.000000000000000e+00
4.237812848320190e-01 5.990952994061280e-01 0.000000000000000e+00
4.250363290978663e-01 5.995357232316771e-01 0.000000000000000e+00
4.262870519119161e-01 5.999669690804044e-01 0.000000000000000e+00
4.275409077936818e-01 6.003939073697628e-01 0.000000000000000e+00
4.287985369004430e-01 6.008158771276911e-01 0.000000000000000e+00
4.300517793668770e-01 6.012284902305098e-01 0.000000000000000e+00
4.313079026899055e-01 6.016369500166386e-01 0.000000000000000e+00
4.325673158093857e-01 6.020399027783305e-01 0.000000000000000e+00
4.338222987953296e-01 6.024331820356700e-01 0.000000000000000e+00
4.350796948387078e-01 6.028212345808077e-01 0.000000000000000e+00
4.363409106032659e-01 6.032046026139588e-01 0.000000000000000e+00
4.375986518714302e-01 6.035790873955191e-01 0.000000000000000e+00
4.388593823175926e-01 6.039480595310605e-01 0.000000000000000e+00
4.401247365674575e-01 6.043119711239542e-01 0.000000000000000e+00
4.413874753629519e-01 6.046669640335375e-01 0.000000000000000e+00
4.426533816332452e-01 6.050167604341291e-01 0.000000000000000e+00
4.439233284929180e-01 6.053606017975055e-01 0.000000000000000e+00
[...]
POINT_DATA   384
SCALARS fX_Lag double
LOOKUP_TABLE default

1.340606e+02 
-1.502101e+02 
2.266204e+01 
9.191499e+01 
-6.026356e+00 
-4.362225e+01 
-5.110109e+00 
3.281891e+01 
1.540874e+01 
-1.172742e+01 
-3.792998e+00 
1.093546e+01 
1.029158e+01 
2.110107e+00 
-1.467844e+00 
5.005971e+00 
8.590669e+00 
3.924688e+00 
2.674786e+00 
4.459562e+00 
5.242999e+00 
5.754748e+00 
4.391497e+00 
3.312244e+00 
5.569918e+00 
6.192622e+00 
4.047931e+00 
4.550525e+00 
5.990461e+00 
4.969990e+00 
4.725817e+00 
5.806479e+00 
5.426896e+00 
4.949392e+00 
5.532527e+00 
5.688790e+00 
5.616070e+00 
5.538531e+00 
5.361704e+00 
5.977009e+00 
6.182991e+00 
5.337493e+00 
5.740405e+00 
6.524205e+00 
5.799224e+00 
5.702191e+00 
6.422473e+00 
6.174058e+00 
6.107285e+00 
6.327491e+00 
6.022896e+00 
6.475192e+00 
6.819881e+00 
5.948743e+00 
6.110399e+00 
6.967811e+00 
6.581262e+00 
6.374327e+00 
6.540789e+00 
6.261806e+00 
6.856195e+00 
7.225792e+00 
6.144447e+00 
6.114322e+00 
7.039612e+00 
6.911251e+00 
6.784006e+00 
6.679185e+00 
6.058662e+00 
6.717271e+00 
7.515850e+00 
6.559933e+00 
6.158138e+00 
6.659563e+00 
6.645702e+00 
7.079692e+00 
7.149734e+00 
6.045336e+00 
6.094726e+00 
7.065082e+00 
6.891549e+00 
6.729459e+00 
6.746051e+00 
6.029295e+00 
6.403830e+00 
7.268006e+00 
6.656558e+00 
6.383646e+00 
6.619980e+00 
6.196746e+00 
6.648158e+00 
7.198218e+00 
6.440464e+00 
6.314120e+00 
6.640593e+00 
6.309993e+00 
6.725329e+00 
7.055990e+00 
6.355160e+00 
6.498251e+00 
6.843000e+00 
6.360669e+00 
6.639032e+00 
6.864677e+00 
6.308402e+00 
6.830181e+00 
7.273891e+00 
6.448416e+00 
6.421733e+00 
6.695268e+00 
6.334919e+00 
7.073591e+00 
7.550458e+00 
6.558875e+00 
6.469333e+00 
6.845898e+00 
6.558797e+00 
7.022553e+00 
7.115814e+00 
6.296893e+00 
7.060365e+00 
7.740934e+00 
6.580421e+00 
6.435483e+00 
6.966334e+00 
6.506480e+00 
7.050929e+00 
7.507774e+00 
6.536807e+00 
6.864572e+00 
7.512713e+00 
6.509971e+00 
6.361019e+00 
7.056545e+00 
6.672311e+00 
6.836403e+00 
7.124452e+00 
6.383229e+00 
6.712842e+00 
7.281560e+00 
6.439428e+00 
6.166068e+00 
6.657699e+00 
6.362959e+00 
6.312742e+00 
6.558754e+00 
6.136730e+00 
6.245734e+00 
6.482895e+00 
5.969213e+00 
5.960667e+00 
6.144925e+00 
5.715848e+00 
5.585087e+00 
5.745166e+00 
5.470801e+00 
5.287639e+00 
5.385141e+00 
5.232960e+00 
5.127349e+00 
5.065243e+00 
4.799608e+00 
4.762046e+00 
4.732834e+00 
4.475682e+00 
4.369151e+00 
4.266150e+00 
4.064263e+00 
3.963337e+00 
3.827280e+00 
3.646348e+00 
3.517828e+00 
3.339831e+00 
3.172337e+00 
3.047296e+00 
2.862144e+00 
2.697840e+00 
2.558883e+00 
2.362703e+00 
2.200589e+00 
2.056091e+00 
1.857953e+00 
1.692183e+00 
1.536002e+00 
1.335717e+00 
1.165246e+00 
1.002306e+00 
8.056510e-01 
6.286824e-01 
4.601116e-01 
2.691126e-01 
8.518872e-02 
-8.518872e-02 
-2.691126e-01 
-4.601116e-01 
-6.286824e-01 
-8.056510e-01 
-1.002306e+00 
-1.165246e+00 
-1.335717e+00 
-1.536002e+00 
-1.692183e+00 
-1.857953e+00 
-2.056091e+00 
-2.200589e+00 
-2.362703e+00 
-2.558883e+00 
-2.697840e+00 
-2.862144e+00 
-3.047296e+00 
-3.172337e+00 
-3.339831e+00 
-3.517828e+00 
-3.646348e+00 
-3.827280e+00 
-3.963337e+00 
-4.064263e+00 
-4.266150e+00 
-4.369151e+00 
-4.475682e+00 
-4.732834e+00 
-4.762046e+00 
-4.799608e+00 
-5.065243e+00 
-5.127349e+00 
-5.232960e+00 
-5.385141e+00 
-5.287639e+00 
-5.470801e+00 
-5.745166e+00 
-5.585087e+00 
-5.715848e+00 
-6.144925e+00 
-5.960667e+00 
-5.969213e+00 
-6.482895e+00 
-6.245734e+00 
-6.136730e+00 
-6.558754e+00 
-6.312742e+00 
-6.362959e+00 
-6.657699e+00 
-6.166068e+00 
-6.439428e+00 
-7.281560e+00 
-6.712842e+00 
-6.383229e+00 
-7.124452e+00 
-6.836403e+00 
-6.672311e+00 
-7.056545e+00 
-6.361019e+00 
-6.509971e+00 
-7.512713e+00 
-6.864572e+00 
-6.536807e+00 
-7.507774e+00 
-7.050929e+00 
-6.506480e+00 
-6.966334e+00 
-6.435483e+00 
-6.580421e+00 
-7.740934e+00 
-7.060365e+00 
-6.296893e+00 
-7.115814e+00 
-7.022553e+00 
-6.558797e+00 
-6.845898e+00 
-6.469333e+00 
-6.558875e+00 
-7.550458e+00 
-7.073591e+00 
-6.334919e+00 
-6.695268e+00 
-6.421733e+00 
-6.448416e+00 
-7.273891e+00 
-6.830181e+00 
-6.308402e+00 
-6.864677e+00 
-6.639032e+00 
-6.360669e+00 
-6.843000e+00 
-6.498251e+00 
-6.355160e+00 
-7.055990e+00 
-6.725329e+00 
-6.309993e+00 
-6.640593e+00 
-6.314120e+00 
-6.440464e+00 
-7.198218e+00 
-6.648158e+00 
-6.196746e+00 
-6.619980e+00 
-6.383646e+00 
-6.656558e+00 
-7.268006e+00 
-6.403830e+00 
-6.029295e+00 
-6.746051e+00 
-6.729459e+00 
-6.891549e+00 
-7.065082e+00 
-6.094726e+00 
-6.045336e+00 
-7.149734e+00 
-7.079692e+00 
-6.645702e+00 
-6.659563e+00 
-6.158138e+00 
-6.559933e+00 
-7.515850e+00 
-6.717271e+00 
-6.058662e+00 
-6.679185e+00 
-6.784006e+00 
-6.911251e+00 
-7.039612e+00 
-6.114322e+00 
-6.144447e+00 
-7.225792e+00 
-6.856195e+00 
-6.261806e+00 
-6.540789e+00 
-6.374327e+00 
-6.581262e+00 
-6.967811e+00 
-6.110399e+00 
-5.948743e+00 
-6.819881e+00 
-6.475192e+00 
-6.022896e+00 
-6.327491e+00 
-6.107285e+00 
-6.174058e+00 
-6.422473e+00 
-5.702191e+00 
-5.799224e+00 
-6.524205e+00 
-5.740405e+00 
-5.337493e+00 
-6.182991e+00 
-5.977009e+00 
-5.361704e+00 
-5.538531e+00 
-5.616070e+00 
-5.688790e+00 
-5.532527e+00 
-4.949392e+00 
-5.426896e+00 
-5.806479e+00 
-4.725817e+00 
-4.969990e+00 
-5.990461e+00 
-4.550525e+00 
-4.047931e+00 
-6.192622e+00 
-5.569918e+00 
-3.312244e+00 
-4.391497e+00 
-5.754748e+00 
-5.242999e+00 
-4.459562e+00 
-2.674786e+00 
-3.924688e+00 
-8.590669e+00 
-5.005971e+00 
1.467844e+00 
-2.110107e+00 
-1.029158e+01 
-1.093546e+01 
3.792998e+00 
1.172742e+01 
-1.540874e+01 
-3.281891e+01 
5.110109e+00 
4.362225e+01 
6.026356e+00 
-9.191499e+01 
-2.266204e+01 
1.502101e+02 
-1.340606e+02 
