# vtk DataFile Version 2.0
fY_Lag
ASCII
DATASET UNSTRUCTURED_GRID

FIELD FieldData 1
TIME 1 1 double
0.06000000
POINTS 384 float
2.499999710730974e-01 5.000018574414046e-01 0.000000000000000e+00
2.520559708913847e-01 4.999283515531417e-01 0.000000000000000e+00
2.541787010994382e-01 4.999500410704198e-01 0.000000000000000e+00
2.557741915048266e-01 4.998715533543990e-01 0.000000000000000e+00
2.570482046055940e-01 4.997984936100496e-01 0.000000000000000e+00
2.582780055712217e-01 4.998102512586052e-01 0.000000000000000e+00
2.594509112057611e-01 4.998649354802986e-01 0.000000000000000e+00
2.606765939304118e-01 4.999338047188762e-01 0.000000000000000e+00
2.618641500451608e-01 4.999555787773201e-01 0.000000000000000e+00
2.630281321615113e-01 4.999459981521949e-01 0.000000000000000e+00
2.641839420965613e-01 4.999443220889365e-01 0.000000000000000e+00
2.653159003510837e-01 4.999510317452724e-01 0.000000000000000e+00
2.663999718785174e-01 4.999551854224486e-01 0.000000000000000e+00
2.675255266747874e-01 4.999827527260621e-01 0.000000000000000e+00
2.686756362471905e-01 5.000118529608357e-01 0.000000000000000e+00
2.698717805498678e-01 5.000488968726937e-01 0.000000000000000e+00
2.711136272910153e-01 5.000781448862868e-01 0.000000000000000e+00
2.723711927239388e-01 5.000916751966893e-01 0.000000000000000e+00
2.736667022743016e-01 5.001069642066865e-01 0.000000000000000e+00
2.749957781300523e-01 5.001311163837640e-01 0.000000000000000e+00
2.763372269902729e-01 5.001573385030377e-01 0.000000000000000e+00
2.777145009348018e-01 5.001945930073765e-01 0.000000000000000e+00
2.791089160054376e-01 5.002242939368050e-01 0.000000000000000e+00
2.805106210864969e-01 5.002464248527474e-01 0.000000000000000e+00
2.819421919676716e-01 5.002722271226236e-01 0.000000000000000e+00
2.833817500391754e-01 5.003002387949320e-01 0.000000000000000e+00
2.848297755151838e-01 5.003321264066559e-01 0.000000000000000e+00
2.862985209935779e-01 5.003671570778737e-01 0.000000000000000e+00
2.877673409694948e-01 5.003963623779210e-01 0.000000000000000e+00
2.892458350168886e-01 5.004247438072404e-01 0.000000000000000e+00
2.907321092003079e-01 5.004557407149596e-01 0.000000000000000e+00
2.922171762709006e-01 5.004877461933243e-01 0.000000000000000e+00
2.937137355153968e-01 5.005233649452802e-01 0.000000000000000e+00
2.952083855185863e-01 5.005557645422893e-01 0.000000000000000e+00
2.967063953282450e-01 5.005873906366127e-01 0.000000000000000e+00
2.982117657423811e-01 5.006214191346133e-01 0.000000000000000e+00
2.997095222590881e-01 5.006544448517559e-01 0.000000000000000e+00
3.012140651098589e-01 5.006906142655780e-01 0.000000000000000e+00
3.027186746408625e-01 5.007259342681144e-01 0.000000000000000e+00
3.042167874835917e-01 5.007595775233736e-01 0.000000000000000e+00
3.057231787072594e-01 5.007961261506872e-01 0.000000000000000e+00
3.072203082473892e-01 5.008312576343742e-01 0.000000000000000e+00
3.087143883504619e-01 5.008676690944277e-01 0.000000000000000e+00
3.102158181905834e-01 5.009059128117307e-01 0.000000000000000e+00
3.117050314885863e-01 5.009414980907246e-01 0.000000000000000e+00
3.131956753702588e-01 5.009791704666108e-01 0.000000000000000e+00
3.146889561755829e-01 5.010177911700752e-01 0.000000000000000e+00
3.161699489638587e-01 5.010550697024402e-01 0.000000000000000e+00
3.176534627082790e-01 5.010945868148218e-01 0.000000000000000e+00
3.191349180009394e-01 5.011334880015136e-01 0.000000000000000e+00
3.206073235542833e-01 5.011722822767738e-01 0.000000000000000e+00
3.220816472797616e-01 5.012128920078381e-01 0.000000000000000e+00
3.235510433889177e-01 5.012528368550343e-01 0.000000000000000e+00
3.250127991982643e-01 5.012933059021147e-01 0.000000000000000e+00
3.264754201977471e-01 5.013346297184084e-01 0.000000000000000e+00
3.279339147339720e-01 5.013758911651870e-01 0.000000000000000e+00
3.293853972990778e-01 5.014178858522423e-01 0.000000000000000e+00
3.308348419741306e-01 5.014599342082073e-01 0.000000000000000e+00
3.322811644998943e-01 5.015026782982976e-01 0.000000000000000e+00
3.337210500972433e-01 5.015458787045377e-01 0.000000000000000e+00
3.351583357852216e-01 5.015891410195408e-01 0.000000000000000e+00
3.365931523555690e-01 5.016336302175717e-01 0.000000000000000e+00
3.380201318544110e-01 5.016775510169055e-01 0.000000000000000e+00
3.394444305214587e-01 5.017217806561689e-01 0.000000000000000e+00
3.408680991658892e-01 5.017679072801813e-01 0.000000000000000e+00
3.422823399349404e-01 5.018131121790805e-01 0.000000000000000e+00
3.436937727117389e-01 5.018588615589396e-01 0.000000000000000e+00
3.451045421911348e-01 5.019060793625578e-01 0.000000000000000e+00
3.465056461299402e-01 5.019520511052117e-01 0.000000000000000e+00
3.479053101185162e-01 5.019994589537431e-01 0.000000000000000e+00
3.493037788965094e-01 5.020480909675081e-01 0.000000000000000e+00
3.506915515216711e-01 5.020950957845763e-01 0.000000000000000e+00
3.520786432859588e-01 5.021438645924526e-01 0.000000000000000e+00
3.534650173213438e-01 5.021935998902333e-01 0.000000000000000e+00
3.548405950287961e-01 5.022419343432523e-01 0.000000000000000e+00
3.562156109809089e-01 5.022923029641170e-01 0.000000000000000e+00
3.575883869578544e-01 5.023428020704209e-01 0.000000000000000e+00
3.589510737845021e-01 5.023922472406382e-01 0.000000000000000e+00
3.603141683178833e-01 5.024438575219476e-01 0.000000000000000e+00
3.616759401211850e-01 5.024958835017332e-01 0.000000000000000e+00
3.630267391602686e-01 5.025466794648498e-01 0.000000000000000e+00
3.643771507274917e-01 5.025993480119046e-01 0.000000000000000e+00
3.657257331576469e-01 5.026519985532439e-01 0.000000000000000e+00
3.670648153557456e-01 5.027040172590658e-01 0.000000000000000e+00
3.684045033123672e-01 5.027580430109045e-01 0.000000000000000e+00
3.697422300950130e-01 5.028120865512348e-01 0.000000000000000e+00
3.710690914711258e-01 5.028650714284209e-01 0.000000000000000e+00
3.723960524892240e-01 5.029199631342066e-01 0.000000000000000e+00
3.737216851684873e-01 5.029747004974130e-01 0.000000000000000e+00
3.750382674524991e-01 5.030289862414989e-01 0.000000000000000e+00
3.763553330779088e-01 5.030850330642227e-01 0.000000000000000e+00
3.776701572976144e-01 5.031407821072450e-01 0.000000000000000e+00
3.789744281659088e-01 5.031957345592191e-01 0.000000000000000e+00
3.802792187027175e-01 5.032526029496179e-01 0.000000000000000e+00
3.815831850947636e-01 5.033091650114174e-01 0.000000000000000e+00
3.828783299542807e-01 5.033652197223848e-01 0.000000000000000e+00
3.841740863379772e-01 5.034229058171585e-01 0.000000000000000e+00
3.854678148522436e-01 5.034801476406522e-01 0.000000000000000e+00
3.867510718772721e-01 5.035365587389554e-01 0.000000000000000e+00
3.880352486853202e-01 5.035950430224163e-01 0.000000000000000e+00
3.893189954163582e-01 5.036530884651420e-01 0.000000000000000e+00
3.905938396295028e-01 5.037102834211405e-01 0.000000000000000e+00
3.918698086499666e-01 5.037692042037600e-01 0.000000000000000e+00
3.931445387004025e-01 5.038276905877681e-01 0.000000000000000e+00
3.944086528184818e-01 5.038849361276629e-01 0.000000000000000e+00
3.956739300171530e-01 5.039445124885461e-01 0.000000000000000e+00
3.969390508893846e-01 5.040035942439276e-01 0.000000000000000e+00
3.981949752110820e-01 5.040612367899042e-01 0.000000000000000e+00
3.994526233338034e-01 5.041207622549613e-01 0.000000000000000e+00
4.007106677417182e-01 5.041802884358443e-01 0.000000000000000e+00
4.019581899979846e-01 5.042379226872487e-01 0.000000000000000e+00
4.032066752547016e-01 5.042977845031389e-01 0.000000000000000e+00
4.044550450172955e-01 5.043573092271917e-01 0.000000000000000e+00
4.056937490214673e-01 5.044147447313606e-01 0.000000000000000e+00
4.069345094616030e-01 5.044742149510992e-01 0.000000000000000e+00
4.081771626774536e-01 5.045340834445279e-01 0.000000000000000e+00
4.094105834722567e-01 5.045919575793395e-01 0.000000000000000e+00
4.106445137453514e-01 5.046510546828861e-01 0.000000000000000e+00
4.118789571018906e-01 5.047103388652022e-01 0.000000000000000e+00
4.131034622603761e-01 5.047672929461831e-01 0.000000000000000e+00
4.143295867972323e-01 5.048261935275260e-01 0.000000000000000e+00
4.155577871096136e-01 5.048855734711751e-01 0.000000000000000e+00
4.167771422968659e-01 5.049423282230220e-01 0.000000000000000e+00
4.179972436547519e-01 5.049996729380887e-01 0.000000000000000e+00
4.192205738290154e-01 5.050586237852391e-01 0.000000000000000e+00
4.204353893991329e-01 5.051151662224277e-01 0.000000000000000e+00
4.216506423532057e-01 5.051721571902268e-01 0.000000000000000e+00
4.228675023561118e-01 5.052298414324918e-01 0.000000000000000e+00
4.240759619861523e-01 5.052851823186894e-01 0.000000000000000e+00
4.252854058070993e-01 5.053411929541969e-01 0.000000000000000e+00
4.264970432005193e-01 5.053980127459103e-01 0.000000000000000e+00
4.277015370102282e-01 5.054527838016042e-01 0.000000000000000e+00
4.289063915488586e-01 5.055071523390855e-01 0.000000000000000e+00
4.301141412389825e-01 5.055625979534367e-01 0.000000000000000e+00
4.313157364383186e-01 5.056164509679069e-01 0.000000000000000e+00
4.325182203227812e-01 5.056701261518053e-01 0.000000000000000e+00
4.337219512667073e-01 5.057235220614791e-01 0.000000000000000e+00
4.349199918427551e-01 5.057756718552656e-01 0.000000000000000e+00
4.361199035266475e-01 5.058284894068293e-01 0.000000000000000e+00
4.373200797893487e-01 5.058803805754185e-01 0.000000000000000e+00
4.385144928078737e-01 5.059309509600672e-01 0.000000000000000e+00
4.397098562149853e-01 5.059814805374089e-01 0.000000000000000e+00
4.409063933474846e-01 5.060315565848567e-01 0.000000000000000e+00
4.420983495353649e-01 5.060805622166097e-01 0.000000000000000e+00
4.432921554943089e-01 5.061295601710699e-01 0.000000000000000e+00
4.444875770178600e-01 5.061776880729111e-01 0.000000000000000e+00
4.456788216899409e-01 5.062241841823124e-01 0.000000000000000e+00
4.468732655704625e-01 5.062716995883558e-01 0.000000000000000e+00
4.480685929746118e-01 5.063179249948700e-01 0.000000000000000e+00
[...]
POINT_DATA   384
SCALARS fY_Lag double
LOOKUP_TABLE default

-1.122860e+02 
2.588540e+02 
-1.783666e+02 
-1.730014e+02 
1.492912e+02 
1.394387e+02 
1.669979e+01 
-7.974287e+01 
-7.165900e+01 
-5.782975e+00 
1.492288e+01 
1.688564e+01 
2.698192e+01 
1.950970e+01 
2.889044e+00 
-2.150399e+01 
-3.044180e+01 
-2.938764e+00 
1.709104e+01 
1.988623e+01 
1.273924e+01 
-1.356051e+01 
-1.943552e+01 
9.811580e-01 
1.123602e+01 
1.265208e+01 
3.211305e+00 
-1.085591e+01 
-5.768634e+00 
5.439372e+00 
8.694116e+00 
5.021378e+00 
-4.348939e+00 
-2.915753e+00 
3.164279e+00 
4.000413e+00 
4.809235e+00 
-2.995192e-01 
-1.346986e+00 
3.040111e+00 
1.853128e+00 
3.513762e+00 
2.575727e+00 
-1.158831e+00 
2.878346e+00 
3.092656e+00 
1.082665e+00 
3.003321e+00 
1.281079e+00 
1.571367e+00 
3.386361e+00 
1.539531e+00 
1.877171e+00 
2.611283e+00 
1.977423e+00 
2.141050e+00 
2.041304e+00 
2.431014e+00 
2.307485e+00 
2.295341e+00 
2.485427e+00 
1.062718e+00 
2.394691e+00 
3.653984e+00 
1.320216e+00 
2.114264e+00 
2.677996e+00 
1.098727e+00 
3.220195e+00 
2.703082e+00 
5.024983e-01 
3.155969e+00 
2.651225e+00 
9.464754e-01 
3.102074e+00 
1.695993e+00 
9.064547e-01 
3.771955e+00 
2.105634e+00 
6.467979e-01 
2.729374e+00 
1.574116e+00 
1.346058e+00 
3.396844e+00 
1.392568e+00 
6.481364e-01 
2.697883e+00 
1.422985e+00 
1.276571e+00 
2.764739e+00 
8.498135e-01 
8.257397e-01 
2.680369e+00 
1.036127e+00 
8.957845e-01 
2.279683e+00 
4.383018e-01 
7.562653e-01 
2.685004e+00 
6.062548e-01 
2.716385e-01 
2.037584e+00 
1.312766e-01 
2.862848e-01 
2.629272e+00 
2.284304e-01 
-5.850678e-01 
2.014089e+00 
2.904420e-01 
-5.202526e-01 
2.027021e+00 
-8.657892e-02 
-1.304578e+00 
1.936156e+00 
7.636405e-01 
-1.244228e+00 
7.413504e-01 
-2.514175e-01 
-1.292628e+00 
1.671803e+00 
3.176136e-01 
-2.613998e+00 
2.437650e-01 
1.084425e+00 
-1.591323e+00 
-4.161612e-01 
-2.126331e-01 
-1.967889e+00 
-1.863216e-02 
2.303003e-01 
-2.305903e+00 
-1.186937e+00 
1.099886e-01 
-1.388002e+00 
-1.522226e+00 
-1.368924e+00 
-1.269323e+00 
-5.636810e-01 
-1.708440e+00 
-2.285198e+00 
-1.258299e+00 
-1.413887e+00 
-1.686716e+00 
-1.428145e+00 
-2.447463e+00 
-2.130737e+00 
-7.336522e-01 
-2.612845e+00 
-2.942580e+00 
-8.277536e-01 
-2.407205e+00 
-3.233411e+00 
-1.299519e+00 
-2.221806e+00 
-3.388141e+00 
-1.920316e+00 
-1.984838e+00 
-3.157404e+00 
-2.542952e+00 
-2.534937e+00 
-3.002733e+00 
-2.398922e+00 
-2.755840e+00 
-3.080317e+00 
-2.811355e+00 
-3.146869e+00 
-2.655441e+00 
-2.837720e+00 
-3.770516e+00 
-2.626379e+00 
-2.797405e+00 
-4.205026e+00 
-2.572219e+00 
-2.469082e+00 
-4.557697e+00 
-2.959070e+00 
-2.197931e+00 
-4.690845e+00 
-3.425558e+00 
-1.865934e+00 
-4.580520e+00 
-3.979230e+00 
-1.746146e+00 
-4.331569e+00 
-4.472099e+00 
-1.804439e+00 
-3.843895e+00 
-4.804466e+00 
-2.159296e+00 
-3.281348e+00 
-4.971866e+00 
-2.693855e+00 
-2.693855e+00 
-4.971866e+00 
-3.281348e+00 
-2.159296e+00 
-4.804466e+00 
-3.843895e+00 
-1.804439e+00 
-4.472099e+00 
-4.331569e+00 
-1.746146e+00 
-3.979230e+00 
-4.580520e+00 
-1.865934e+00 
-3.425558e+00 
-4.690845e+00 
-2.197931e+00 
-2.959070e+00 
-4.557697e+00 
-2.469082e+00 
-2.572219e+00 
-4.205026e+00 
-2.797405e+00 
-2.626379e+00 
-3.770516e+00 
-2.837720e+00 
-2.655441e+00 
-3.146869e+00 
-2.811355e+00 
-3.080317e+00 
-2.755840e+00 
-2.398922e+00 
-3.002733e+00 
-2.534937e+00 
-2.542952e+00 
-3.157404e+00 
-1.984838e+00 
-1.920316e+00 
-3.388141e+00 
-2.221806e+00 
-1.299519e+00 
-3.233411e+00 
-2.407205e+00 
-8.277536e-01 
-2.942580e+00 
-2.612845e+00 
-7.336522e-01 
-2.130737e+00 
-2.447463e+00 
-1.428145e+00 
-1.686716e+00 
-1.413887e+00 
-1.258299e+00 
-2.285198e+00 
-1.708440e+00 
-5.636810e-01 
-1.269323e+00 
-1.368924e+00 
-1.522226e+00 
-1.388002e+00 
1.099886e-01 
-1.186937e+00 
-2.305903e+00 
2.303003e-01 
-1.863216e-02 
-1.967889e+00 
-2.126331e-01 
-4.161612e-01 
-1.591323e+00 
1.084425e+00 
2.437650e-01 
-2.613998e+00 
3.176136e-01 
1.671803e+00 
-1.292628e+00 
-2.514175e-01 
7.413504e-01 
-1.244228e+00 
7.636405e-01 
1.936156e+00 
-1.304578e+00 
-8.657892e-02 
2.027021e+00 
-5.202526e-01 
2.904420e-01 
2.014089e+00 
-5.850678e-01 
2.284304e-01 
2.629272e+00 
2.862848e-01 
1.312766e-01 
2.037584e+00 
2.716385e-01 
6.062548e-01 
2.685004e+00 
7.562653e-01 
4.383018e-01 
2.279683e+00 
8.957845e-01 
1.036127e+00 
2.680369e+00 
8.257397e-01 
8.498135e-01 
2.764739e+00 
1.276571e+00 
1.422985e+00 
2.697883e+00 
6.481364e-01 
1.392568e+00 
3.396844e+00 
1.346058e+00 
1.574116e+00 
2.729374e+00 
6.467979e-01 
2.105634e+00 
3.771955e+00 
9.064547e-01 
1.695993e+00 
3.102074e+00 
9.464754e-01 
2.651225e+00 
3.155969e+00 
5.024983e-01 
2.703082e+00 
3.220195e+00 
1.098727e+00 
2.677996e+00 
2.114264e+00 
1.320216e+00 
3.653984e+00 
2.394691e+00 
1.062718e+00 
2.485427e+00 
2.295341e+00 
2.307485e+00 
2.431014e+00 
2.041304e+00 
2.141050e+00 
1.977423e+00 
2.611283e+00 
1.877171e+00 
1.539531e+00 
3.386361e+00 
1.571367e+00 
1.281079e+00 
3.003321e+00 
1.082665e+00 
3.092656e+00 
2.878346e+00 
-1.158831e+00 
2.575727e+00 
3.513762e+00 
1.853128e+00 
3.040111e+00 
-1.346986e+00 
-2.995192e-01 
4.809235e+00 
4.000413e+00 
3.164279e+00 
-2.915753e+00 
-4.348939e+00 
5.021378e+00 
8.694116e+00 
5.439372e+00 
-5.768634e+00 
-1.085591e+01 
3.211305e+00 
1.265208e+01 
1.123602e+01 
9.811580e-01 
-1.943552e+01 
-1.356051e+01 
1.273924e+01 
1.988623e+01 
1.709104e+01 
-2.938764e+00 
-3.044180e+01 
-2.150399e+01 
2.889044e+00 
1.950970e+01 
2.698192e+01 
1.688564e+01 
1.492288e+01 
-5.782976e+00 
-7.165900e+01 
-7.974287e+01 
1.669979e+01 
1.394387e+02 
1.492912e+02 
-1.730014e+02 
-1.783666e+02 
2.588540e+02 
-1.122860e+02 
