# vtk DataFile Version 2.0
fY_Lag
ASCII
DATASET UNSTRUCTURED_GRID

FIELD FieldData 1
TIME 1 1 double
0.04000000
POINTS 384 float
2.499986526354486e-01 5.000026426728311e-01 0.000000000000000e+00
2.517540071340567e-01 5.007134420476554e-01 0.000000000000000e+00
2.534566537689937e-01 5.015614116550815e-01 0.000000000000000e+00
2.549303846791342e-01 5.021844739806365e-01 0.000000000000000e+00
2.562011770396848e-01 5.026780860193514e-01 0.000000000000000e+00
2.573961872049729e-01 5.031943216442110e-01 0.000000000000000e+00
2.585328180744149e-01 5.037223345912241e-01 0.000000000000000e+00
2.597161626257883e-01 5.042878521937100e-01 0.000000000000000e+00
2.609246006379040e-01 5.048281291675969e-01 0.000000000000000e+00
2.621638600304372e-01 5.053681738535896e-01 0.000000000000000e+00
2.634216362464522e-01 5.059229476665340e-01 0.000000000000000e+00
2.646771940413325e-01 5.064801624374577e-01 0.000000000000000e+00
2.659222531034492e-01 5.070259265304428e-01 0.000000000000000e+00
2.671942430371418e-01 5.075874741558928e-01 0.000000000000000e+00
2.684865564441363e-01 5.081504919891273e-01 0.000000000000000e+00
2.698091672977551e-01 5.087288700310103e-01 0.000000000000000e+00
2.711657309493227e-01 5.093189272609622e-01 0.000000000000000e+00
2.725384678615931e-01 5.099086137345602e-01 0.000000000000000e+00
2.739337614827017e-01 5.105114869819168e-01 0.000000000000000e+00
2.753469619864597e-01 5.111199152833898e-01 0.000000000000000e+00
2.767663848328846e-01 5.117261999143603e-01 0.000000000000000e+00
2.782025542867425e-01 5.123404450346839e-01 0.000000000000000e+00
2.796476066751522e-01 5.129538471699152e-01 0.000000000000000e+00
2.810957985672851e-01 5.135658259788075e-01 0.000000000000000e+00
2.825577907545586e-01 5.141846595927059e-01 0.000000000000000e+00
2.840235569793870e-01 5.148008776809950e-01 0.000000000000000e+00
2.854915740808112e-01 5.154153270263768e-01 0.000000000000000e+00
2.869674641033162e-01 5.160319833070318e-01 0.000000000000000e+00
2.884418948119313e-01 5.166445035384947e-01 0.000000000000000e+00
2.899180550125361e-01 5.172557871778177e-01 0.000000000000000e+00
2.913968824816464e-01 5.178660577973397e-01 0.000000000000000e+00
2.928739911251381e-01 5.184729241809832e-01 0.000000000000000e+00
2.943538109197819e-01 5.190790109671273e-01 0.000000000000000e+00
2.958310398710729e-01 5.196804895001286e-01 0.000000000000000e+00
2.973076970929096e-01 5.202793503308110e-01 0.000000000000000e+00
2.987862271880227e-01 5.208770056833185e-01 0.000000000000000e+00
3.002598008742612e-01 5.214692023674262e-01 0.000000000000000e+00
3.017344512283602e-01 5.220600206748292e-01 0.000000000000000e+00
3.032080423369868e-01 5.226475583978256e-01 0.000000000000000e+00
3.046758713512652e-01 5.232294157793612e-01 0.000000000000000e+00
3.061460913806249e-01 5.238102786228466e-01 0.000000000000000e+00
3.076105617827796e-01 5.243851348724995e-01 0.000000000000000e+00
3.090702970066083e-01 5.249554138795930e-01 0.000000000000000e+00
3.105337349184722e-01 5.255255259119713e-01 0.000000000000000e+00
3.119888074738060e-01 5.260881092775798e-01 0.000000000000000e+00
3.134410887564382e-01 5.266470257721126e-01 0.000000000000000e+00
3.148965745509605e-01 5.272050684522791e-01 0.000000000000000e+00
3.163428540246840e-01 5.277551670814415e-01 0.000000000000000e+00
3.177877592902176e-01 5.283023350349639e-01 0.000000000000000e+00
3.192331334932536e-01 5.288469350049486e-01 0.000000000000000e+00
3.206692835189853e-01 5.293840584292863e-01 0.000000000000000e+00
3.221056618691077e-01 5.299192779715109e-01 0.000000000000000e+00
3.235404436642289e-01 5.304507153988676e-01 0.000000000000000e+00
3.249662513617989e-01 5.309744853973026e-01 0.000000000000000e+00
3.263934615689565e-01 5.314965361185807e-01 0.000000000000000e+00
3.278183496514400e-01 5.320144353396242e-01 0.000000000000000e+00
3.292347773767857e-01 5.325252290451348e-01 0.000000000000000e+00
3.306516531407219e-01 5.330337458149211e-01 0.000000000000000e+00
3.320656732666342e-01 5.335377666342643e-01 0.000000000000000e+00
3.334726952232879e-01 5.340356706573340e-01 0.000000000000000e+00
3.348797552652600e-01 5.345310135634073e-01 0.000000000000000e+00
3.362832030843653e-01 5.350212832859258e-01 0.000000000000000e+00
3.376804789185185e-01 5.355053215536546e-01 0.000000000000000e+00
3.390773829908920e-01 5.359864635844298e-01 0.000000000000000e+00
3.404713973227638e-01 5.364632228465595e-01 0.000000000000000e+00
3.418586707036594e-01 5.369340012209439e-01 0.000000000000000e+00
3.432446118148786e-01 5.374012457405837e-01 0.000000000000000e+00
3.446281258109781e-01 5.378641252290742e-01 0.000000000000000e+00
3.460055774515239e-01 5.383211526283836e-01 0.000000000000000e+00
3.473817147877863e-01 5.387747992955637e-01 0.000000000000000e+00
3.487555237281577e-01 5.392240904008661e-01 0.000000000000000e+00
3.501227586693206e-01 5.396669402217746e-01 0.000000000000000e+00
3.514885236560303e-01 5.401061017655342e-01 0.000000000000000e+00
3.528531198248798e-01 5.405417593890821e-01 0.000000000000000e+00
3.542107442097695e-01 5.409713121435181e-01 0.000000000000000e+00
3.555663530298318e-01 5.413970923163222e-01 0.000000000000000e+00
3.569205361878334e-01 5.418187404819084e-01 0.000000000000000e+00
3.582680095926017e-01 5.422342450490900e-01 0.000000000000000e+00
3.596141107123572e-01 5.426460607732413e-01 0.000000000000000e+00
3.609597931289634e-01 5.430546204856940e-01 0.000000000000000e+00
3.622976939097687e-01 5.434564846483424e-01 0.000000000000000e+00
3.636335343634723e-01 5.438542253957150e-01 0.000000000000000e+00
3.649690733724050e-01 5.442485827479370e-01 0.000000000000000e+00
3.662975656351454e-01 5.446368587207828e-01 0.000000000000000e+00
3.676248591803412e-01 5.450215237332684e-01 0.000000000000000e+00
3.689518048933627e-01 5.454030168774608e-01 0.000000000000000e+00
3.702703739967274e-01 5.457775849268611e-01 0.000000000000000e+00
3.715873336168385e-01 5.461484770949140e-01 0.000000000000000e+00
3.729047949088040e-01 5.465162311834875e-01 0.000000000000000e+00
3.742150585973314e-01 5.468778301447851e-01 0.000000000000000e+00
3.755243086229006e-01 5.472357731826804e-01 0.000000000000000e+00
3.768332352061421e-01 5.475902622748503e-01 0.000000000000000e+00
3.781334949404859e-01 5.479379596310908e-01 0.000000000000000e+00
3.794325986829177e-01 5.482822903031795e-01 0.000000000000000e+00
3.807326627528564e-01 5.486236969592900e-01 0.000000000000000e+00
3.820254389061798e-01 5.489591559899824e-01 0.000000000000000e+00
3.833174348295142e-01 5.492911292892342e-01 0.000000000000000e+00
3.846092411563987e-01 5.496196525892764e-01 0.000000000000000e+00
3.858922971281960e-01 5.499416248496762e-01 0.000000000000000e+00
3.871746104137127e-01 5.502605513201867e-01 0.000000000000000e+00
3.884581427312946e-01 5.505763476654947e-01 0.000000000000000e+00
3.897344204383673e-01 5.508861952233242e-01 0.000000000000000e+00
3.910103985864505e-01 5.511927406510172e-01 0.000000000000000e+00
3.922865642719341e-01 5.514959246632190e-01 0.000000000000000e+00
3.935539359300246e-01 5.517927597766423e-01 0.000000000000000e+00
3.948206660199099e-01 5.520868194291851e-01 0.000000000000000e+00
3.960884811755814e-01 5.523776306259918e-01 0.000000000000000e+00
3.973490226084488e-01 5.526625540622714e-01 0.000000000000000e+00
3.986098594355327e-01 5.529445322359735e-01 0.000000000000000e+00
3.998718277457822e-01 5.532237447227005e-01 0.000000000000000e+00
4.011254219330134e-01 5.534968238891570e-01 0.000000000000000e+00
4.023784574931828e-01 5.537672571252369e-01 0.000000000000000e+00
4.036319898961924e-01 5.540341722674511e-01 0.000000000000000e+00
4.048779890169500e-01 5.542950436579742e-01 0.000000000000000e+00
4.061248166165819e-01 5.545534370929882e-01 0.000000000000000e+00
4.073734836543391e-01 5.548091160652875e-01 0.000000000000000e+00
4.086148559922809e-01 5.550592371855547e-01 0.000000000000000e+00
4.098561294721241e-01 5.553063993412021e-01 0.000000000000000e+00
4.110976930517354e-01 5.555501144938039e-01 0.000000000000000e+00
4.123312783435515e-01 5.557879905624172e-01 0.000000000000000e+00
4.135658432761607e-01 5.560242296699396e-01 0.000000000000000e+00
4.148018527643992e-01 5.562572116149535e-01 0.000000000000000e+00
4.160307960969459e-01 5.564842711781945e-01 0.000000000000000e+00
4.172605833685472e-01 5.567088630827979e-01 0.000000000000000e+00
4.184923179097376e-01 5.569312099559671e-01 0.000000000000000e+00
4.197169510773963e-01 5.571478903638801e-01 0.000000000000000e+00
4.209423948616676e-01 5.573624727047315e-01 0.000000000000000e+00
4.221686212360353e-01 5.575737267927373e-01 0.000000000000000e+00
4.233875852655238e-01 5.577791568377056e-01 0.000000000000000e+00
4.246079839242884e-01 5.579830654044240e-01 0.000000000000000e+00
4.258298993930386e-01 5.581840269628568e-01 0.000000000000000e+00
4.270452151428340e-01 5.583792918788066e-01 0.000000000000000e+00
4.282616074978987e-01 5.585721583429292e-01 0.000000000000000e+00
4.294802496584690e-01 5.587629247059844e-01 0.000000000000000e+00
4.306927167079667e-01 5.589481713651624e-01 0.000000000000000e+00
4.319065789903028e-01 5.591313163457077e-01 0.000000000000000e+00
4.331217697581856e-01 5.593114577406982e-01 0.000000000000000e+00
4.343308908776977e-01 5.594862206919552e-01 0.000000000000000e+00
4.355419757572577e-01 5.596597415988662e-01 0.000000000000000e+00
4.367538467983801e-01 5.598301073295990e-01 0.000000000000000e+00
4.379595637152711e-01 5.599949988390214e-01 0.000000000000000e+00
4.391663365344262e-01 5.601576648166461e-01 0.000000000000000e+00
4.403747554314645e-01 5.603180357917686e-01 0.000000000000000e+00
4.415782731349426e-01 5.604736096729361e-01 0.000000000000000e+00
4.427834345831661e-01 5.606266966348611e-01 0.000000000000000e+00
4.439907614053526e-01 5.607772502106625e-01 0.000000000000000e+00
4.451939475974570e-01 5.609230397221120e-01 0.000000000000000e+00
4.463995871765999e-01 5.610670654141519e-01 0.000000000000000e+00
4.476066740060414e-01 5.612080995742479e-01 0.000000000000000e+00
[...]
POINT_DATA   384
SCALARS fY_Lag double
LOOKUP_TABLE default

-2.255963e+02 
3.418321e+02 
-9.640816e+01 
-2.094039e+02 
5.919138e+01 
1.041138e+02 
2.057802e+01 
-5.296661e+01 
-4.155294e+01 
2.810659e+00 
5.211415e+00 
-4.843603e+00 
-5.345077e+00 
-7.331464e+00 
-5.242550e+00 
-1.068401e+01 
-1.313028e+01 
-2.351690e+00 
-5.858241e+00 
-1.097284e+01 
-7.997899e+00 
-1.166510e+01 
-9.466148e+00 
-5.263939e+00 
-1.089866e+01 
-1.154298e+01 
-9.111132e+00 
-1.097086e+01 
-1.041157e+01 
-9.707795e+00 
-1.029328e+01 
-1.098799e+01 
-1.244200e+01 
-1.123490e+01 
-1.065549e+01 
-1.165754e+01 
-1.083891e+01 
-1.186818e+01 
-1.255946e+01 
-1.189262e+01 
-1.305019e+01 
-1.158256e+01 
-1.092191e+01 
-1.359696e+01 
-1.230471e+01 
-1.185957e+01 
-1.406935e+01 
-1.257728e+01 
-1.239849e+01 
-1.325826e+01 
-1.159807e+01 
-1.310179e+01 
-1.450193e+01 
-1.238195e+01 
-1.305616e+01 
-1.396948e+01 
-1.246404e+01 
-1.302386e+01 
-1.328974e+01 
-1.250646e+01 
-1.408400e+01 
-1.447864e+01 
-1.270739e+01 
-1.285693e+01 
-1.339717e+01 
-1.290956e+01 
-1.344048e+01 
-1.353287e+01 
-1.266114e+01 
-1.362440e+01 
-1.447201e+01 
-1.295957e+01 
-1.242792e+01 
-1.300749e+01 
-1.277671e+01 
-1.338091e+01 
-1.379237e+01 
-1.249884e+01 
-1.254156e+01 
-1.378728e+01 
-1.312631e+01 
-1.255787e+01 
-1.292425e+01 
-1.202826e+01 
-1.225544e+01 
-1.344830e+01 
-1.243553e+01 
-1.208332e+01 
-1.292517e+01 
-1.227849e+01 
-1.244477e+01 
-1.304971e+01 
-1.165570e+01 
-1.134071e+01 
-1.222418e+01 
-1.174217e+01 
-1.202422e+01 
-1.240461e+01 
-1.115812e+01 
-1.142424e+01 
-1.229719e+01 
-1.146521e+01 
-1.161987e+01 
-1.178895e+01 
-1.049233e+01 
-1.109880e+01 
-1.196506e+01 
-1.058426e+01 
-1.059236e+01 
-1.119072e+01 
-1.023733e+01 
-1.116187e+01 
-1.187509e+01 
-1.002561e+01 
-1.003106e+01 
-1.099122e+01 
-1.039973e+01 
-1.093988e+01 
-1.065597e+01 
-8.768796e+00 
-1.026785e+01 
-1.167441e+01 
-9.447160e+00 
-9.235495e+00 
-1.029666e+01 
-9.307448e+00 
-1.032089e+01 
-1.078783e+01 
-8.461225e+00 
-9.517655e+00 
-1.116350e+01 
-9.071061e+00 
-8.908261e+00 
-1.027454e+01 
-9.155817e+00 
-9.721582e+00 
-1.008291e+01 
-7.945248e+00 
-9.284442e+00 
-1.088190e+01 
-8.677635e+00 
-8.416394e+00 
-9.846072e+00 
-8.999632e+00 
-9.138372e+00 
-9.731910e+00 
-8.404698e+00 
-9.131769e+00 
-9.955077e+00 
-8.572183e+00 
-9.064053e+00 
-9.803072e+00 
-8.848074e+00 
-8.987959e+00 
-9.506596e+00 
-8.968794e+00 
-8.904225e+00 
-9.102828e+00 
-9.083840e+00 
-9.561440e+00 
-8.953763e+00 
-8.484281e+00 
-9.775790e+00 
-9.269514e+00 
-8.629395e+00 
-9.931202e+00 
-9.048744e+00 
-8.458731e+00 
-1.016126e+01 
-9.218461e+00 
-8.416650e+00 
-1.022672e+01 
-9.270342e+00 
-8.209183e+00 
-1.025495e+01 
-9.586731e+00 
-8.181632e+00 
-1.020566e+01 
-9.820270e+00 
-8.109665e+00 
-1.003705e+01 
-1.005161e+01 
-8.175077e+00 
-9.817508e+00 
-1.021523e+01 
-8.333108e+00 
-9.544484e+00 
-1.033982e+01 
-8.619919e+00 
-9.259963e+00 
-1.040691e+01 
-8.944253e+00 
-8.944253e+00 
-1.040691e+01 
-9.259963e+00 
-8.619919e+00 
-1.033982e+01 
-9.544484e+00 
-8.333108e+00 
-1.021523e+01 
-9.817508e+00 
-8.175077e+00 
-1.005161e+01 
-1.003705e+01 
-8.109665e+00 
-9.820270e+00 
-1.020566e+01 
-8.181632e+00 
-9.586731e+00 
-1.025495e+01 
-8.209183e+00 
-9.270342e+00 
-1.022672e+01 
-8.416650e+00 
-9.218461e+00 
-1.016126e+01 
-8.458731e+00 
-9.048744e+00 
-9.931202e+00 
-8.629395e+00 
-9.269514e+00 
-9.775790e+00 
-8.484281e+00 
-8.953763e+00 
-9.561440e+00 
-9.083840e+00 
-9.102828e+00 
-8.904225e+00 
-8.968794e+00 
-9.506596e+00 
-8.987959e+00 
-8.848074e+00 
-9.803072e+00 
-9.064053e+00 
-8.572183e+00 
-9.955077e+00 
-9.131769e+00 
-8.404698e+00 
-9.731910e+00 
-9.138372e+00 
-8.999632e+00 
-9.846072e+00 
-8.416394e+00 
-8.677635e+00 
-1.088190e+01 
-9.284442e+00 
-7.945248e+00 
-1.008291e+01 
-9.721582e+00 
-9.155817e+00 
-1.027454e+01 
-8.908261e+00 
-9.071061e+00 
-1.116350e+01 
-9.517655e+00 
-8.461225e+00 
-1.078783e+01 
-1.032089e+01 
-9.307448e+00 
-1.029666e+01 
-9.235495e+00 
-9.447160e+00 
-1.167441e+01 
-1.026785e+01 
-8.768796e+00 
-1.065597e+01 
-1.093988e+01 
-1.039973e+01 
-1.099122e+01 
-1.003106e+01 
-1.002561e+01 
-1.187509e+01 
-1.116187e+01 
-1.023733e+01 
-1.119072e+01 
-1.059236e+01 
-1.058426e+01 
-1.196506e+01 
-1.109880e+01 
-1.049233e+01 
-1.178895e+01 
-1.161987e+01 
-1.146521e+01 
-1.229719e+01 
-1.142424e+01 
-1.115812e+01 
-1.240461e+01 
-1.202422e+01 
-1.174217e+01 
-1.222418e+01 
-1.134071e+01 
-1.165570e+01 
-1.304971e+01 
-1.244477e+01 
-1.227849e+01 
-1.292517e+01 
-1.208332e+01 
-1.243553e+01 
-1.344830e+01 
-1.225544e+01 
-1.202826e+01 
-1.292425e+01 
-1.255787e+01 
-1.312631e+01 
-1.378728e+01 
-1.254156e+01 
-1.249884e+01 
-1.379237e+01 
-1.338091e+01 
-1.277671e+01 
-1.300749e+01 
-1.242792e+01 
-1.295957e+01 
-1.447201e+01 
-1.362440e+01 
-1.266114e+01 
-1.353287e+01 
-1.344048e+01 
-1.290956e+01 
-1.339717e+01 
-1.285693e+01 
-1.270739e+01 
-1.447864e+01 
-1.408400e+01 
-1.250646e+01 
-1.328974e+01 
-1.302386e+01 
-1.246404e+01 
-1.396948e+01 
-1.305616e+01 
-1.238195e+01 
-1.450193e+01 
-1.310179e+01 
-1.159807e+01 
-1.325826e+01 
-1.239849e+01 
-1.257728e+01 
-1.406935e+01 
-1.185957e+01 
-1.230471e+01 
-1.359696e+01 
-1.092191e+01 
-1.158256e+01 
-1.305019e+01 
-1.189262e+01 
-1.255946e+01 
-1.186818e+01 
-1.083891e+01 
-1.165754e+01 
-1.065549e+01 
-1.123490e+01 
-1.244200e+01 
-1.098799e+01 
-1.029328e+01 
-9.707795e+00 
-1.041157e+01 
-1.097086e+01 
-9.111132e+00 
-1.154298e+01 
-1.089866e+01 
-5.263939e+00 
-9.466148e+00 
-1.166510e+01 
-7.997899e+00 
-1.097284e+01 
-5.858241e+00 
-2.351690e+00 
-1.313028e+01 
-1.068401e+01 
-5.242550e+00 
-7.331464e+00 
-5.345077e+00 
-4.843603e+00 
5.211415e+00 
2.810659e+00 
-4.155294e+01 
-5.296661e+01 
2.057802e+01 
1.041138e+02 
5.919138e+01 
-2.094039e+02 
-9.640816e+01 
3.418321e+02 
-2.255963e+02 
