# vtk DataFile Version 2.0
fY_Lag
ASCII
DATASET UNSTRUCTURED_GRID

FIELD FieldData 1
TIME 1 1 double
0.02000000
POINTS 384 float
2.499986617817537e-01 5.000017187739997e-01 0.000000000000000e+00
2.515183875305242e-01 5.009963386190524e-01 0.000000000000000e+00
2.529747873620489e-01 5.020720199438012e-01 0.000000000000000e+00
2.543899268432123e-01 5.030580898124182e-01 0.000000000000000e+00
2.557421859354589e-01 5.039587247940125e-01 0.000000000000000e+00
2.570662324343160e-01 5.048569465313126e-01 0.000000000000000e+00
2.583756990531502e-01 5.057703946327431e-01 0.000000000000000e+00
2.597102942518016e-01 5.067071354848882e-01 0.000000000000000e+00
2.610652868833176e-01 5.076309281700424e-01 0.000000000000000e+00
2.624338115032467e-01 5.085601152293594e-01 0.000000000000000e+00
2.638085686381283e-01 5.095035164041271e-01 0.000000000000000e+00
2.651806002684549e-01 5.104471038280605e-01 0.000000000000000e+00
2.665519036048999e-01 5.113820565926996e-01 0.000000000000000e+00
2.679361216176688e-01 5.123230645760819e-01 0.000000000000000e+00
2.693246615223325e-01 5.132647343294686e-01 0.000000000000000e+00
2.707184606946640e-01 5.142139421112594e-01 0.000000000000000e+00
2.721229305838188e-01 5.151670184913284e-01 0.000000000000000e+00
2.735294950602690e-01 5.161168834753137e-01 0.000000000000000e+00
2.749381060792983e-01 5.170679099374761e-01 0.000000000000000e+00
2.763489321651279e-01 5.180196506969236e-01 0.000000000000000e+00
2.777569640040872e-01 5.189672965922731e-01 0.000000000000000e+00
2.791660549445905e-01 5.199141987748221e-01 0.000000000000000e+00
2.805763533871910e-01 5.208591905305808e-01 0.000000000000000e+00
2.819834960082473e-01 5.218003308113208e-01 0.000000000000000e+00
2.833913217890789e-01 5.227415355059812e-01 0.000000000000000e+00
2.847991199773158e-01 5.236802548026515e-01 0.000000000000000e+00
2.862032096785564e-01 5.246133890685605e-01 0.000000000000000e+00
2.876066230171850e-01 5.255453784257740e-01 0.000000000000000e+00
2.890082682929410e-01 5.264745407975910e-01 0.000000000000000e+00
2.904059686913119e-01 5.273981018325231e-01 0.000000000000000e+00
2.918025106920891e-01 5.283192980620380e-01 0.000000000000000e+00
2.931972034040223e-01 5.292377705641960e-01 0.000000000000000e+00
2.945882749761081e-01 5.301510942828311e-01 0.000000000000000e+00
2.959774762873261e-01 5.310611308041667e-01 0.000000000000000e+00
2.973646612809792e-01 5.319681900944961e-01 0.000000000000000e+00
2.987482063785230e-01 5.328703881398980e-01 0.000000000000000e+00
3.001295551190877e-01 5.337689460210104e-01 0.000000000000000e+00
3.015088842098945e-01 5.346639644567122e-01 0.000000000000000e+00
3.028850349656067e-01 5.355545117896349e-01 0.000000000000000e+00
3.042585416918569e-01 5.364413939934737e-01 0.000000000000000e+00
3.056300256823706e-01 5.373245177366180e-01 0.000000000000000e+00
3.069979725135488e-01 5.382023787553050e-01 0.000000000000000e+00
3.083636523843141e-01 5.390769762605281e-01 0.000000000000000e+00
3.097274937218810e-01 5.399481054586647e-01 0.000000000000000e+00
3.110872297169101e-01 5.408133483600365e-01 0.000000000000000e+00
3.124446590252634e-01 5.416749181960886e-01 0.000000000000000e+00
3.138010348314786e-01 5.425336408158214e-01 0.000000000000000e+00
3.151533270757530e-01 5.433865629041568e-01 0.000000000000000e+00
3.165027804375549e-01 5.442352235954856e-01 0.000000000000000e+00
3.178513477273352e-01 5.450807680175974e-01 0.000000000000000e+00
3.191960071100859e-01 5.459207662463437e-01 0.000000000000000e+00
3.205381699452349e-01 5.467568222263801e-01 0.000000000000000e+00
3.218792063179157e-01 5.475893648860344e-01 0.000000000000000e+00
3.232159238740672e-01 5.484156522694562e-01 0.000000000000000e+00
3.245505748961773e-01 5.492383608244725e-01 0.000000000000000e+00
3.258847457962765e-01 5.500581916433775e-01 0.000000000000000e+00
3.272141561564449e-01 5.508714043093887e-01 0.000000000000000e+00
3.285413283168011e-01 5.516804130983259e-01 0.000000000000000e+00
3.298685278985874e-01 5.524866309215321e-01 0.000000000000000e+00
3.311910386830850e-01 5.532865605705788e-01 0.000000000000000e+00
3.325114078029731e-01 5.540826128095332e-01 0.000000000000000e+00
3.338314705375927e-01 5.548752542009228e-01 0.000000000000000e+00
3.351471040267950e-01 5.556611885634064e-01 0.000000000000000e+00
3.364609690618792e-01 5.564435251148968e-01 0.000000000000000e+00
3.377749184752333e-01 5.572231859684432e-01 0.000000000000000e+00
3.390836556751288e-01 5.579958320444147e-01 0.000000000000000e+00
3.403908571852158e-01 5.587643331356426e-01 0.000000000000000e+00
3.416985305370921e-01 5.595298587303659e-01 0.000000000000000e+00
3.430012197299168e-01 5.602886847161570e-01 0.000000000000000e+00
3.443021959178520e-01 5.610439389239584e-01 0.000000000000000e+00
3.456033508241566e-01 5.617959990723720e-01 0.000000000000000e+00
3.468997671663572e-01 5.625407867172063e-01 0.000000000000000e+00
3.481950195064608e-01 5.632818445157813e-01 0.000000000000000e+00
3.494909797937103e-01 5.640204143763430e-01 0.000000000000000e+00
3.507815842993632e-01 5.647519326401217e-01 0.000000000000000e+00
3.520707171274327e-01 5.654795338073977e-01 0.000000000000000e+00
3.533607285918109e-01 5.662037479735286e-01 0.000000000000000e+00
3.546458586450784e-01 5.669209505147998e-01 0.000000000000000e+00
3.559300743639400e-01 5.676347039653034e-01 0.000000000000000e+00
3.572150928187593e-01 5.683459766994511e-01 0.000000000000000e+00
3.584947180470300e-01 5.690497374457206e-01 0.000000000000000e+00
3.597733522061989e-01 5.697493943894746e-01 0.000000000000000e+00
3.610532881602043e-01 5.704461424361722e-01 0.000000000000000e+00
3.623283471498636e-01 5.711359712157337e-01 0.000000000000000e+00
3.636028076676853e-01 5.718224275838373e-01 0.000000000000000e+00
3.648780685741262e-01 5.725060077457923e-01 0.000000000000000e+00
3.661480382729065e-01 5.731817429388896e-01 0.000000000000000e+00
3.674173026262733e-01 5.738536699941763e-01 0.000000000000000e+00
3.686882452110648e-01 5.745228969657603e-01 0.000000000000000e+00
3.699544746280050e-01 5.751852510253638e-01 0.000000000000000e+00
3.712204373935876e-01 5.758441845298381e-01 0.000000000000000e+00
3.724873045821279e-01 5.764997955148449e-01 0.000000000000000e+00
3.737488485675877e-01 5.771475355635750e-01 0.000000000000000e+00
3.750101140569882e-01 5.777917411750980e-01 0.000000000000000e+00
3.762733527685063e-01 5.784331396038069e-01 0.000000000000000e+00
3.775321142802574e-01 5.790676974408131e-01 0.000000000000000e+00
3.787911576626411e-01 5.796988539142504e-01 0.000000000000000e+00
3.800511247238974e-01 5.803263483828649e-01 0.000000000000000e+00
3.813057324380085e-01 5.809459818569757e-01 0.000000000000000e+00
3.825604837944349e-01 5.815622611303624e-01 0.000000000000000e+00
3.838173731581384e-01 5.821753285311777e-01 0.000000000000000e+00
3.850700781683145e-01 5.827814256433674e-01 0.000000000000000e+00
3.863238189486563e-01 5.833842605451102e-01 0.000000000000000e+00
3.875786628431949e-01 5.839833365069754e-01 0.000000000000000e+00
3.888281045949785e-01 5.845745274404248e-01 0.000000000000000e+00
3.900779812501837e-01 5.851624736008102e-01 0.000000000000000e+00
3.913300182428570e-01 5.857466099621245e-01 0.000000000000000e+00
3.925780908652689e-01 5.863233099293809e-01 0.000000000000000e+00
3.938281192435821e-01 5.868968736240426e-01 0.000000000000000e+00
3.950798217812067e-01 5.874669579253841e-01 0.000000000000000e+00
3.963262907505526e-01 5.880291703984292e-01 0.000000000000000e+00
3.975736196854828e-01 5.885881144526955e-01 0.000000000000000e+00
3.988226800359602e-01 5.891426002526694e-01 0.000000000000000e+00
4.000674633081957e-01 5.896888905997666e-01 0.000000000000000e+00
4.013148508757811e-01 5.902321960923880e-01 0.000000000000000e+00
4.025648687346132e-01 5.907719301107761e-01 0.000000000000000e+00
4.038100435950579e-01 5.913038915178292e-01 0.000000000000000e+00
4.050573290325328e-01 5.918323651800406e-01 0.000000000000000e+00
4.063063544916551e-01 5.923562480286004e-01 0.000000000000000e+00
4.075499534324623e-01 5.928714406516674e-01 0.000000000000000e+00
4.087960337795842e-01 5.933839367599796e-01 0.000000000000000e+00
4.100453037659906e-01 5.938920181107161e-01 0.000000000000000e+00
4.112900084469575e-01 5.943910954332702e-01 0.000000000000000e+00
4.125378385258354e-01 5.948868097011015e-01 0.000000000000000e+00
4.137888056099493e-01 5.953790016394278e-01 0.000000000000000e+00
4.150346658083986e-01 5.958623445724631e-01 0.000000000000000e+00
4.162831574462757e-01 5.963423118167708e-01 0.000000000000000e+00
4.175344661431214e-01 5.968174496864119e-01 0.000000000000000e+00
4.187805398545991e-01 5.972830731156822e-01 0.000000000000000e+00
4.200296249747676e-01 5.977453086898457e-01 0.000000000000000e+00
4.212822717106165e-01 5.982029438635714e-01 0.000000000000000e+00
4.225302143050273e-01 5.986511602481009e-01 0.000000000000000e+00
4.237812848320190e-01 5.990952994061280e-01 0.000000000000000e+00
4.250363290978663e-01 5.995357232316771e-01 0.000000000000000e+00
4.262870519119161e-01 5.999669690804044e-01 0.000000000000000e+00
4.275409077936818e-01 6.003939073697628e-01 0.000000000000000e+00
4.287985369004430e-01 6.008158771276911e-01 0.000000000000000e+00
4.300517793668770e-01 6.012284902305098e-01 0.000000000000000e+00
4.313079026899055e-01 6.016369500166386e-01 0.000000000000000e+00
4.325673158093857e-01 6.020399027783305e-01 0.000000000000000e+00
4.338222987953296e-01 6.024331820356700e-01 0.000000000000000e+00
4.350796948387078e-01 6.028212345808077e-01 0.000000000000000e+00
4.363409106032659e-01 6.032046026139588e-01 0.000000000000000e+00
4.375986518714302e-01 6.035790873955191e-01 0.000000000000000e+00
4.388593823175926e-01 6.039480595310605e-01 0.000000000000000e+00
4.401247365674575e-01 6.043119711239542e-01 0.000000000000000e+00
4.413874753629519e-01 6.046669640335375e-01 0.000000000000000e+00
4.426533816332452e-01 6.050167604341291e-01 0.000000000000000e+00
4.439233284929180e-01 6.053606017975055e-01 0.000000000000000e+00
[...]
POINT_DATA   384
SCALARS fY_Lag double
LOOKUP_TABLE default

-1.651512e+02 
2.159470e+02 
-2.193244e+01 
-1.294712e+02 
9.667569e+00 
6.375649e+01 
7.338641e+00 
-4.753023e+01 
-2.195170e+01 
1.715399e+01 
5.570001e+00 
-1.598591e+01 
-1.504087e+01 
-3.107127e+00 
2.154710e+00 
-7.381791e+00 
-1.266554e+01 
-5.787821e+00 
-3.967563e+00 
-6.617951e+00 
-7.795837e+00 
-8.573713e+00 
-6.547353e+00 
-4.954578e+00 
-8.352302e+00 
-9.289755e+00 
-6.082678e+00 
-6.866390e+00 
-9.047064e+00 
-7.516446e+00 
-7.173502e+00 
-8.829519e+00 
-8.264963e+00 
-7.561444e+00 
-8.471944e+00 
-8.729223e+00 
-8.641726e+00 
-8.541740e+00 
-8.291100e+00 
-9.272061e+00 
-9.610203e+00 
-8.317539e+00 
-8.981036e+00 
-1.022837e+01 
-9.113419e+00 
-8.998324e+00 
-1.016087e+01 
-9.793640e+00 
-9.726019e+00 
-1.010446e+01 
-9.648442e+00 
-1.041714e+01 
-1.100008e+01 
-9.624610e+00 
-9.934689e+00 
-1.136162e+01 
-1.076494e+01 
-1.047548e+01 
-1.078385e+01 
-1.036262e+01 
-1.140316e+01 
-1.205334e+01 
-1.028587e+01 
-1.029375e+01 
-1.189294e+01 
-1.171932e+01 
-1.156410e+01 
-1.142693e+01 
-1.040961e+01 
-1.161066e+01 
-1.303496e+01 
-1.142062e+01 
-1.078921e+01 
-1.171432e+01 
-1.174368e+01 
-1.258485e+01 
-1.275868e+01 
-1.083707e+01 
-1.100088e+01 
-1.280680e+01 
-1.254737e+01 
-1.233382e+01 
-1.242061e+01 
-1.115500e+01 
-1.193674e+01 
-1.360598e+01 
-1.252051e+01 
-1.209840e+01 
-1.260656e+01 
-1.186518e+01 
-1.282903e+01 
-1.395539e+01 
-1.255576e+01 
-1.241003e+01 
-1.311891e+01 
-1.254301e+01 
-1.347900e+01 
-1.421445e+01 
-1.288674e+01 
-1.329356e+01 
-1.407604e+01 
-1.317503e+01 
-1.387640e+01 
-1.442831e+01 
-1.336059e+01 
-1.460918e+01 
-1.565017e+01 
-1.397964e+01 
-1.406773e+01 
-1.475969e+01 
-1.408289e+01 
-1.590261e+01 
-1.708250e+01 
-1.496857e+01 
-1.494178e+01 
-1.592967e+01 
-1.540487e+01 
-1.669483e+01 
-1.703645e+01 
-1.523600e+01 
-1.733040e+01 
-1.913986e+01 
-1.643004e+01 
-1.632214e+01 
-1.781739e+01 
-1.681958e+01 
-1.852546e+01 
-1.989175e+01 
-1.752992e+01 
-1.874597e+01 
-2.071368e+01 
-1.815443e+01 
-1.808307e+01 
-2.028484e+01 
-1.942220e+01 
-2.029437e+01 
-2.139318e+01 
-1.945734e+01 
-2.090563e+01 
-2.296546e+01 
-2.061336e+01 
-2.018643e+01 
-2.213731e+01 
-2.149125e+01 
-2.181715e+01 
-2.304212e+01 
-2.196097e+01 
-2.291650e+01 
-2.419681e+01 
-2.274847e+01 
-2.332298e+01 
-2.452041e+01 
-2.332080e+01 
-2.342458e+01 
-2.465781e+01 
-2.403921e+01 
-2.392698e+01 
-2.501478e+01 
-2.496236e+01 
-2.524900e+01 
-2.564692e+01 
-2.506646e+01 
-2.575547e+01 
-2.638464e+01 
-2.583909e+01 
-2.619772e+01 
-2.649036e+01 
-2.626131e+01 
-2.669386e+01 
-2.684677e+01 
-2.677704e+01 
-2.706669e+01 
-2.695370e+01 
-2.701543e+01 
-2.738605e+01 
-2.722674e+01 
-2.737065e+01 
-2.768136e+01 
-2.741056e+01 
-2.765361e+01 
-2.798205e+01 
-2.766741e+01 
-2.797392e+01 
-2.822269e+01 
-2.781757e+01 
-2.818806e+01 
-2.838728e+01 
-2.794552e+01 
-2.836244e+01 
-2.846365e+01 
-2.799731e+01 
-2.844844e+01 
-2.844844e+01 
-2.799731e+01 
-2.846365e+01 
-2.836244e+01 
-2.794552e+01 
-2.838728e+01 
-2.818806e+01 
-2.781757e+01 
-2.822269e+01 
-2.797392e+01 
-2.766741e+01 
-2.798205e+01 
-2.765361e+01 
-2.741056e+01 
-2.768136e+01 
-2.737065e+01 
-2.722674e+01 
-2.738605e+01 
-2.701543e+01 
-2.695370e+01 
-2.706669e+01 
-2.677704e+01 
-2.684677e+01 
-2.669386e+01 
-2.626131e+01 
-2.649036e+01 
-2.619772e+01 
-2.583909e+01 
-2.638464e+01 
-2.575547e+01 
-2.506646e+01 
-2.564692e+01 
-2.524900e+01 
-2.496236e+01 
-2.501478e+01 
-2.392698e+01 
-2.403921e+01 
-2.465781e+01 
-2.342458e+01 
-2.332080e+01 
-2.452041e+01 
-2.332298e+01 
-2.274847e+01 
-2.419681e+01 
-2.291650e+01 
-2.196097e+01 
-2.304212e+01 
-2.181715e+01 
-2.149125e+01 
-2.213731e+01 
-2.018643e+01 
-2.061336e+01 
-2.296546e+01 
-2.090563e+01 
-1.945734e+01 
-2.139318e+01 
-2.029437e+01 
-1.942220e+01 
-2.028484e+01 
-1.808307e+01 
-1.815443e+01 
-2.071368e+01 
-1.874597e+01 
-1.752992e+01 
-1.989175e+01 
-1.852546e+01 
-1.681958e+01 
-1.781739e+01 
-1.632214e+01 
-1.643004e+01 
-1.913986e+01 
-1.733040e+01 
-1.523600e+01 
-1.703645e+01 
-1.669483e+01 
-1.540487e+01 
-1.592967e+01 
-1.494178e+01 
-1.496857e+01 
-1.708250e+01 
-1.590261e+01 
-1.408289e+01 
-1.475969e+01 
-1.406773e+01 
-1.397964e+01 
-1.565017e+01 
-1.460918e+01 
-1.336059e+01 
-1.442831e+01 
-1.387640e+01 
-1.317503e+01 
-1.407604e+01 
-1.329356e+01 
-1.288674e+01 
-1.421445e+01 
-1.347900e+01 
-1.254301e+01 
-1.311891e+01 
-1.241003e+01 
-1.255576e+01 
-1.395539e+01 
-1.282903e+01 
-1.186518e+01 
-1.260656e+01 
-1.209840e+01 
-1.252051e+01 
-1.360598e+01 
-1.193674e+01 
-1.115500e+01 
-1.242061e+01 
-1.233382e+01 
-1.254737e+01 
-1.280680e+01 
-1.100088e+01 
-1.083707e+01 
-1.275868e+01 
-1.258485e+01 
-1.174368e+01 
-1.171432e+01 
-1.078921e+01 
-1.142062e+01 
-1.303496e+01 
-1.161066e+01 
-1.040961e+01 
-1.142693e+01 
-1.156410e+01 
-1.171932e+01 
-1.189294e+01 
-1.029375e+01 
-1.028587e+01 
-1.205334e+01 
-1.140316e+01 
-1.036262e+01 
-1.078385e+01 
-1.047548e+01 
-1.076494e+01 
-1.136162e+01 
-9.934689e+00 
-9.624610e+00 
-1.100008e+01 
-1.041714e+01 
-9.648442e+00 
-1.010446e+01 
-9.726019e+00 
-9.793640e+00 
-1.016087e+01 
-8.998324e+00 
-9.113419e+00 
-1.022837e+01 
-8.981036e+00 
-8.317539e+00 
-9.610203e+00 
-9.272061e+00 
-8.291100e+00 
-8.541740e+00 
-8.641726e+00 
-8.729223e+00 
-8.471944e+00 
-7.561444e+00 
-8.264963e+00 
-8.829519e+00 
-7.173502e+00 
-7.516446e+00 
-9.047064e+00 
-6.866390e+00 
-6.082678e+00 
-9.289755e+00 
-8.352302e+00 
-4.954578e+00 
-6.547353e+00 
-8.573713e+00 
-7.795837e+00 
-6.617951e+00 
-3.967563e+00 
-5.787821e+00 
-1.266554e+01 
-7.381791e+00 
2.154710e+00 
-3.107127e+00 
-1.504087e+01 
-1.598591e+01 
5.570001e+00 
1.715399e+01 
-2.195170e+01 
-4.753023e+01 
7.338641e+00 
6.375649e+01 
9.667569e+00 
-1.294712e+02 
-2.193244e+01 
2.159470e+02 
-1.651512e+02 
