# vtk DataFile Version 2.0
fY_Lag
ASCII
DATASET UNSTRUCTURED_GRID

FIELD FieldData 1
TIME 1 1 double
0.08000000
POINTS 384 float
2.500003926904650e-01 5.000010715317714e-01 0.000000000000000e+00
2.520191074692795e-01 4.993041119639020e-01 0.000000000000000e+00
2.542629171079560e-01 4.985957331354782e-01 0.000000000000000e+00
2.559768641812364e-01 4.979864586466027e-01 0.000000000000000e+00
2.573493006833436e-01 4.975048021744581e-01 0.000000000000000e+00
2.587003232557316e-01 4.971052953385257e-01 0.000000000000000e+00
2.599545638319535e-01 4.967532344877494e-01 0.000000000000000e+00
2.612279361098161e-01 4.963891138178422e-01 0.000000000000000e+00
2.623963778912284e-01 4.959969735474601e-01 0.000000000000000e+00
2.635125176791994e-01 4.956068630793588e-01 0.000000000000000e+00
2.646215177083301e-01 4.952424962119779e-01 0.000000000000000e+00
2.657081786472449e-01 4.949107114185728e-01 0.000000000000000e+00
2.667312399252039e-01 4.946051020085414e-01 0.000000000000000e+00
2.677821266658075e-01 4.943039197802411e-01 0.000000000000000e+00
2.688378045831029e-01 4.939917009842824e-01 0.000000000000000e+00
2.699154700456824e-01 4.936683798259298e-01 0.000000000000000e+00
2.710234576111382e-01 4.933248556976981e-01 0.000000000000000e+00
2.721399538746731e-01 4.929641381768565e-01 0.000000000000000e+00
2.732948205462405e-01 4.925987003117333e-01 0.000000000000000e+00
2.744881873222901e-01 4.922383718481320e-01 0.000000000000000e+00
2.756916739874662e-01 4.918761619311509e-01 0.000000000000000e+00
2.769303868969987e-01 4.915141774353950e-01 0.000000000000000e+00
2.781781011835787e-01 4.911357474671422e-01 0.000000000000000e+00
2.794311290680216e-01 4.907453893534062e-01 0.000000000000000e+00
2.807163147709799e-01 4.903475969483065e-01 0.000000000000000e+00
2.820165640538486e-01 4.899517159096807e-01 0.000000000000000e+00
2.833276822966789e-01 4.895600310090056e-01 0.000000000000000e+00
2.846598331033440e-01 4.891675536839022e-01 0.000000000000000e+00
2.859877342341349e-01 4.887661183075481e-01 0.000000000000000e+00
2.873248334676330e-01 4.883577217169974e-01 0.000000000000000e+00
2.886735388764873e-01 4.879472003377581e-01 0.000000000000000e+00
2.900265690999717e-01 4.875402280228724e-01 0.000000000000000e+00
2.913942780728685e-01 4.871361091503200e-01 0.000000000000000e+00
2.927597385454558e-01 4.867299665423304e-01 0.000000000000000e+00
2.941274425705895e-01 4.863192676258392e-01 0.000000000000000e+00
2.955040446176943e-01 4.859061458276696e-01 0.000000000000000e+00
2.968768118060124e-01 4.854936487192134e-01 0.000000000000000e+00
2.982608360580455e-01 4.850839005045632e-01 0.000000000000000e+00
2.996471131862368e-01 4.846748198470789e-01 0.000000000000000e+00
3.010270437394426e-01 4.842651883671311e-01 0.000000000000000e+00
3.024162936331249e-01 4.838542276984292e-01 0.000000000000000e+00
3.037977669042938e-01 4.834434816847231e-01 0.000000000000000e+00
3.051800790492175e-01 4.830350733513030e-01 0.000000000000000e+00
3.065727403917675e-01 4.826273498097325e-01 0.000000000000000e+00
3.079543547505542e-01 4.822209746678964e-01 0.000000000000000e+00
3.093387754260297e-01 4.818154028133462e-01 0.000000000000000e+00
3.107268209739577e-01 4.814092215614940e-01 0.000000000000000e+00
3.121045407535188e-01 4.810049134276767e-01 0.000000000000000e+00
3.134881043435701e-01 4.806024118814758e-01 0.000000000000000e+00
3.148713965392091e-01 4.802003603998188e-01 0.000000000000000e+00
3.162473948015672e-01 4.798008004215589e-01 0.000000000000000e+00
3.176269775064155e-01 4.794022282661522e-01 0.000000000000000e+00
3.190026872949034e-01 4.790040898774597e-01 0.000000000000000e+00
3.203732818202165e-01 4.786085714884936e-01 0.000000000000000e+00
3.217469956448131e-01 4.782139103949269e-01 0.000000000000000e+00
3.231183060936926e-01 4.778205587770042e-01 0.000000000000000e+00
3.244846361995853e-01 4.774301717178399e-01 0.000000000000000e+00
3.258500659824947e-01 4.770404490702730e-01 0.000000000000000e+00
3.272141400688528e-01 4.766519830106186e-01 0.000000000000000e+00
3.285741201522424e-01 4.762659775608621e-01 0.000000000000000e+00
3.299333279392774e-01 4.758810759641408e-01 0.000000000000000e+00
3.312923519713525e-01 4.754983472952432e-01 0.000000000000000e+00
3.326449774821419e-01 4.751178142850954e-01 0.000000000000000e+00
3.339963414500618e-01 4.747382698878521e-01 0.000000000000000e+00
3.353494936267204e-01 4.743605639613042e-01 0.000000000000000e+00
3.366948361071488e-01 4.739851263006068e-01 0.000000000000000e+00
3.380392605686483e-01 4.736113693065049e-01 0.000000000000000e+00
3.393853048355907e-01 4.732395991205439e-01 0.000000000000000e+00
3.407228380473609e-01 4.728699036464051e-01 0.000000000000000e+00
3.420610937389327e-01 4.725020278242322e-01 0.000000000000000e+00
3.434004287744926e-01 4.721359595393716e-01 0.000000000000000e+00
3.447302610227449e-01 4.717720550910042e-01 0.000000000000000e+00
3.460618695612082e-01 4.714103039077029e-01 0.000000000000000e+00
3.473948128576521e-01 4.710501598622594e-01 0.000000000000000e+00
3.487181142930932e-01 4.706923608662877e-01 0.000000000000000e+00
3.500434263432173e-01 4.703369908013652e-01 0.000000000000000e+00
3.513682071019446e-01 4.699829835667494e-01 0.000000000000000e+00
3.526842596369238e-01 4.696314725945371e-01 0.000000000000000e+00
3.540033636035049e-01 4.692822841046198e-01 0.000000000000000e+00
3.553229726751858e-01 4.689345346037241e-01 0.000000000000000e+00
3.566329331222455e-01 4.685895690624287e-01 0.000000000000000e+00
3.579451507002174e-01 4.682471007039702e-01 0.000000000000000e+00
3.592572177542244e-01 4.679059359723655e-01 0.000000000000000e+00
3.605613831520944e-01 4.675676034822730e-01 0.000000000000000e+00
3.618688127600787e-01 4.672316076091553e-01 0.000000000000000e+00
3.631759941976537e-01 4.668970668978106e-01 0.000000000000000e+00
3.644737104462446e-01 4.665655390073998e-01 0.000000000000000e+00
3.657741928894450e-01 4.662365887760324e-01 0.000000000000000e+00
3.670749397828116e-01 4.659088009327470e-01 0.000000000000000e+00
3.683683131935561e-01 4.655840983300254e-01 0.000000000000000e+00
3.696647899457453e-01 4.652618691781018e-01 0.000000000000000e+00
3.709606368920166e-01 4.649411455160952e-01 0.000000000000000e+00
3.722474966325861e-01 4.646237644819338e-01 0.000000000000000e+00
3.735376357952273e-01 4.643090334510926e-01 0.000000000000000e+00
3.748285407795168e-01 4.639954803698343e-01 0.000000000000000e+00
3.761123514973194e-01 4.636851701850159e-01 0.000000000000000e+00
3.773994425027636e-01 4.633774729114994e-01 0.000000000000000e+00
3.786860964096606e-01 4.630713083848614e-01 0.000000000000000e+00
3.799637890561240e-01 4.627685105957571e-01 0.000000000000000e+00
3.812452474315633e-01 4.624685940465602e-01 0.000000000000000e+00
3.825278454263060e-01 4.621698715722982e-01 0.000000000000000e+00
3.838030631384173e-01 4.618743480275259e-01 0.000000000000000e+00
3.850821405778521e-01 4.615816953632465e-01 0.000000000000000e+00
3.863616039076884e-01 4.612906337518637e-01 0.000000000000000e+00
3.876317414490888e-01 4.610028941953009e-01 0.000000000000000e+00
3.889061403451874e-01 4.607185194738793e-01 0.000000000000000e+00
3.901820443465431e-01 4.604355847336816e-01 0.000000000000000e+00
3.914499554441767e-01 4.601556378325024e-01 0.000000000000000e+00
3.927224289380155e-01 4.598786860050898e-01 0.000000000000000e+00
3.939972363401210e-01 4.596035445783854e-01 0.000000000000000e+00
3.952625014717486e-01 4.593313861910846e-01 0.000000000000000e+00
3.965318003034785e-01 4.590629237524943e-01 0.000000000000000e+00
3.978027865762454e-01 4.587963451093416e-01 0.000000000000000e+00
3.990649305631599e-01 4.585323914764283e-01 0.000000000000000e+00
4.003319990137656e-01 4.582716773555959e-01 0.000000000000000e+00
4.016031584318482e-01 4.580130652889970e-01 0.000000000000000e+00
4.028659909954929e-01 4.577573058054178e-01 0.000000000000000e+00
4.041317806546313e-01 4.575048236281600e-01 0.000000000000000e+00
4.054001877397717e-01 4.572548585790098e-01 0.000000000000000e+00
4.066593915956641e-01 4.570077003224833e-01 0.000000000000000e+00
4.079230817522734e-01 4.567642358911855e-01 0.000000000000000e+00
4.091911373565997e-01 4.565233280974831e-01 0.000000000000000e+00
4.104509624315494e-01 4.562849022903798e-01 0.000000000000000e+00
4.117136705647403e-01 4.560493005485181e-01 0.000000000000000e+00
4.129824613581380e-01 4.558170080388445e-01 0.000000000000000e+00
4.142435106920494e-01 4.555873813264579e-01 0.000000000000000e+00
4.155070657313346e-01 4.553607412083802e-01 0.000000000000000e+00
4.167745108189818e-01 4.551371858668904e-01 0.000000000000000e+00
4.180343668759919e-01 4.549164385601418e-01 0.000000000000000e+00
4.192974140510149e-01 4.546988848901733e-01 0.000000000000000e+00
4.205649160668544e-01 4.544844765754958e-01 0.000000000000000e+00
4.218262484145923e-01 4.542730037029063e-01 0.000000000000000e+00
4.230896346532461e-01 4.540641433138091e-01 0.000000000000000e+00
4.243582530651949e-01 4.538586251544913e-01 0.000000000000000e+00
4.256219246790707e-01 4.536563244100892e-01 0.000000000000000e+00
4.268883313176633e-01 4.534569674226110e-01 0.000000000000000e+00
4.281575602630390e-01 4.532602499479386e-01 0.000000000000000e+00
4.294224007845612e-01 4.530670020541852e-01 0.000000000000000e+00
4.306914601773465e-01 4.528774968340269e-01 0.000000000000000e+00
4.319620444311068e-01 4.526904597513631e-01 0.000000000000000e+00
4.332280215893982e-01 4.525069116568183e-01 0.000000000000000e+00
4.344970061513089e-01 4.523268762275636e-01 0.000000000000000e+00
4.357686609103982e-01 4.521496669312610e-01 0.000000000000000e+00
4.370369089476479e-01 4.519758919965008e-01 0.000000000000000e+00
4.383091617681654e-01 4.518056851690482e-01 0.000000000000000e+00
4.395843870637229e-01 4.516380776069609e-01 0.000000000000000e+00
4.408562685828544e-01 4.514733286145466e-01 0.000000000000000e+00
4.421339599789161e-01 4.513129295265907e-01 0.000000000000000e+00
4.434137231077171e-01 4.511551152370037e-01 0.000000000000000e+00
[...]
POINT_DATA   384
SCALARS fY_Lag double
LOOKUP_TABLE default

-3.749257e+01 
1.542934e+02 
-1.603950e+02 
-8.611478e+01 
1.646094e+02 
9.818154e+01 
-3.652801e+01 
-1.056138e+02 
-5.344694e+01 
3.341637e+01 
4.893760e+01 
3.012625e+01 
1.218676e+01 
-6.596504e+00 
-1.711933e+01 
-2.466474e+01 
-1.948532e+01 
1.266468e+01 
2.905385e+01 
2.130746e+01 
6.112642e+00 
-2.148257e+01 
-2.463180e+01 
1.537002e+00 
1.932466e+01 
2.296938e+01 
6.845716e+00 
-1.707594e+01 
-1.519002e+01 
3.281338e+00 
1.684459e+01 
1.529170e+01 
-1.998958e+00 
-9.536541e+00 
-3.661444e+00 
5.051045e+00 
1.237423e+01 
6.011746e+00 
-1.997050e+00 
-1.592085e+00 
-1.835525e-01 
6.521617e+00 
7.825511e+00 
1.483683e+00 
1.712008e+00 
1.317233e+00 
1.575759e+00 
5.937111e+00 
4.397611e+00 
2.983250e+00 
3.546140e+00 
1.687898e+00 
3.149414e+00 
4.958547e+00 
4.247190e+00 
3.837458e+00 
3.005369e+00 
3.192747e+00 
4.022959e+00 
4.789118e+00 
5.091756e+00 
3.258880e+00 
3.656383e+00 
4.930108e+00 
3.577520e+00 
4.852702e+00 
5.436790e+00 
3.499639e+00 
5.239102e+00 
5.180694e+00 
3.438264e+00 
6.025183e+00 
5.595460e+00 
3.886930e+00 
6.040650e+00 
4.877628e+00 
4.070415e+00 
6.942746e+00 
5.652000e+00 
4.432759e+00 
6.598890e+00 
5.488402e+00 
5.132451e+00 
7.275333e+00 
5.581298e+00 
4.957946e+00 
7.070131e+00 
5.863982e+00 
5.823075e+00 
7.605864e+00 
5.906500e+00 
5.863304e+00 
7.801094e+00 
6.389896e+00 
6.471220e+00 
8.065285e+00 
6.182246e+00 
6.301470e+00 
8.381474e+00 
6.678395e+00 
6.684780e+00 
8.711179e+00 
6.772046e+00 
6.823569e+00 
9.412619e+00 
7.352012e+00 
6.636289e+00 
9.312043e+00 
7.717480e+00 
7.032746e+00 
9.866192e+00 
7.871283e+00 
6.444329e+00 
9.790299e+00 
9.046883e+00 
7.309228e+00 
9.548531e+00 
8.744164e+00 
7.651503e+00 
1.077338e+01 
9.784128e+00 
6.857275e+00 
9.648235e+00 
1.077364e+01 
8.287543e+00 
9.509196e+00 
9.951652e+00 
8.348974e+00 
1.026211e+01 
1.072748e+01 
8.491555e+00 
9.580173e+00 
1.100043e+01 
9.927041e+00 
9.809973e+00 
9.873731e+00 
1.046287e+01 
1.143158e+01 
1.009711e+01 
9.857533e+00 
1.117755e+01 
1.070654e+01 
1.067245e+01 
1.144663e+01 
1.011894e+01 
1.048943e+01 
1.255233e+01 
1.048762e+01 
1.003680e+01 
1.280014e+01 
1.118238e+01 
1.004838e+01 
1.253793e+01 
1.192644e+01 
1.036506e+01 
1.204284e+01 
1.251118e+01 
1.110314e+01 
1.165335e+01 
1.224026e+01 
1.182341e+01 
1.211423e+01 
1.218155e+01 
1.230710e+01 
1.205935e+01 
1.178832e+01 
1.318613e+01 
1.250481e+01 
1.119047e+01 
1.355113e+01 
1.302365e+01 
1.068126e+01 
1.367081e+01 
1.389684e+01 
1.037917e+01 
1.319038e+01 
1.474667e+01 
1.043710e+01 
1.250340e+01 
1.556145e+01 
1.080908e+01 
1.163335e+01 
1.600856e+01 
1.147972e+01 
1.089080e+01 
1.605090e+01 
1.245238e+01 
1.033724e+01 
1.550389e+01 
1.355154e+01 
1.010992e+01 
1.462343e+01 
1.462343e+01 
1.010992e+01 
1.355154e+01 
1.550389e+01 
1.033724e+01 
1.245238e+01 
1.605090e+01 
1.089080e+01 
1.147972e+01 
1.600856e+01 
1.163335e+01 
1.080908e+01 
1.556145e+01 
1.250340e+01 
1.043710e+01 
1.474667e+01 
1.319038e+01 
1.037917e+01 
1.389684e+01 
1.367081e+01 
1.068126e+01 
1.302365e+01 
1.355113e+01 
1.119047e+01 
1.250481e+01 
1.318613e+01 
1.178832e+01 
1.205935e+01 
1.230710e+01 
1.218155e+01 
1.211423e+01 
1.182341e+01 
1.224026e+01 
1.165335e+01 
1.110314e+01 
1.251118e+01 
1.204284e+01 
1.036506e+01 
1.192644e+01 
1.253793e+01 
1.004838e+01 
1.118238e+01 
1.280014e+01 
1.003680e+01 
1.048762e+01 
1.255233e+01 
1.048943e+01 
1.011894e+01 
1.144663e+01 
1.067245e+01 
1.070654e+01 
1.117755e+01 
9.857533e+00 
1.009711e+01 
1.143158e+01 
1.046287e+01 
9.873731e+00 
9.809973e+00 
9.927041e+00 
1.100043e+01 
9.580173e+00 
8.491555e+00 
1.072748e+01 
1.026211e+01 
8.348974e+00 
9.951652e+00 
9.509196e+00 
8.287543e+00 
1.077364e+01 
9.648235e+00 
6.857275e+00 
9.784128e+00 
1.077338e+01 
7.651503e+00 
8.744164e+00 
9.548531e+00 
7.309228e+00 
9.046883e+00 
9.790299e+00 
6.444329e+00 
7.871283e+00 
9.866192e+00 
7.032746e+00 
7.717480e+00 
9.312043e+00 
6.636289e+00 
7.352012e+00 
9.412619e+00 
6.823569e+00 
6.772046e+00 
8.711179e+00 
6.684780e+00 
6.678395e+00 
8.381474e+00 
6.301470e+00 
6.182246e+00 
8.065285e+00 
6.471220e+00 
6.389896e+00 
7.801094e+00 
5.863304e+00 
5.906500e+00 
7.605864e+00 
5.823075e+00 
5.863982e+00 
7.070131e+00 
4.957946e+00 
5.581298e+00 
7.275333e+00 
5.132451e+00 
5.488402e+00 
6.598890e+00 
4.432759e+00 
5.652000e+00 
6.942746e+00 
4.070415e+00 
4.877628e+00 
6.040650e+00 
3.886930e+00 
5.595460e+00 
6.025183e+00 
3.438264e+00 
5.180694e+00 
5.239102e+00 
3.499639e+00 
5.436790e+00 
4.852702e+00 
3.577520e+00 
4.930108e+00 
3.656383e+00 
3.258880e+00 
5.091756e+00 
4.789118e+00 
4.022959e+00 
3.192747e+00 
3.005369e+00 
3.837458e+00 
4.247190e+00 
4.958547e+00 
3.149414e+00 
1.687898e+00 
3.546140e+00 
2.983250e+00 
4.397611e+00 
5.937111e+00 
1.575759e+00 
1.317233e+00 
1.712008e+00 
1.483683e+00 
7.825511e+00 
6.521617e+00 
-1.835525e-01 
-1.592085e+00 
-1.997050e+00 
6.011746e+00 
1.237423e+01 
5.051045e+00 
-3.661444e+00 
-9.536541e+00 
-1.998958e+00 
1.529170e+01 
1.684459e+01 
3.281338e+00 
-1.519002e+01 
-1.707594e+01 
6.845716e+00 
2.296938e+01 
1.932466e+01 
1.537002e+00 
-2.463180e+01 
-2.148257e+01 
6.112642e+00 
2.130746e+01 
2.905385e+01 
1.266468e+01 
-1.948532e+01 
-2.466474e+01 
-1.711933e+01 
-6.596504e+00 
1.218676e+01 
3.012625e+01 
4.893760e+01 
3.341637e+01 
-5.344694e+01 
-1.056138e+02 
-3.652801e+01 
9.818154e+01 
1.646094e+02 
-8.611478e+01 
-1.603950e+02 
1.542934e+02 
-3.749257e+01 
