# vtk DataFile Version 2.0
Comment goes here
ASCII

DATASET STRUCTURED_POINTS
FIELD FieldData 1
TIME 1 1 double
0.80000000
DIMENSIONS    32   32   1

ORIGIN    0.000   0.000   0.000
SPACING   0.03125 0.03125   1.000

POINT_DATA   1024
SCALARS fMag double
LOOKUP_TABLE default

0 0 0 0 0 0 0 0 0 0 0 0 0 0 0 0 0 0 0 0 0 0 0 0 0 0 0 0 0 0 0 0 
0 0 0 0 0 0 0 0 0 0 0 0 0 0 0 0 0 0 0 0 0 0 0 0 0 0 0 0 0 0 0 0 
0 0 0 0 0 0 0 0 0 0 0 0 0 0 0 0 0 0 0 0 0 0 0 0 0 0 0 0 0 0 0 0 
0 0 0 0 0 0 0 0 0 0 0 0 0 0 0 0 0 0 0 0 0 0 0 0 0 0 0 0 0 0 0 0 
0 0 0 0 0 0 0 0 0 0 0 0 0 0 0 0 0 0 0 0 0 0 0 0 0 0 0 0 0 0 0 0 
0 0 0 0 0 0 0 0 0 0 0 0 0 7.170013e-04 2.751492e+00 1.382916e+01 2.214807e+01 1.382916e+01 2.751492e+00 7.170013e-04 0 0 0 0 0 0 0 0 0 0 0 0 
0 0 0 0 0 0 0 0 0 0 0 8.854580e-02 3.722336e+01 2.070083e+02 4.963175e+02 7.076734e+02 7.590342e+02 7.076734e+02 4.963175e+02 2.070083e+02 3.722336e+01 8.854580e-02 0 0 0 0 0 0 0 0 0 0 
0 0 0 0 0 0 0 0 0 0 4.871294e+00 1.144655e+02 5.217558e+02 1.015362e+03 1.248076e+03 1.245396e+03 1.189856e+03 1.245396e+03 1.248076e+03 1.015362e+03 5.217558e+02 1.144655e+02 4.871294e+00 0 0 0 0 0 0 0 0 0 
0 0 0 0 0 0 0 0 0 1.747399e+00 1.199715e+02 6.339314e+02 1.183041e+03 1.171078e+03 8.302682e+02 5.568301e+02 4.529699e+02 5.568301e+02 8.302682e+02 1.171078e+03 1.183041e+03 6.339314e+02 1.199715e+02 1.747399e+00 0 0 0 0 0 0 0 0 
0 0 0 0 0 0 0 0 0 5.909819e+01 4.921974e+02 1.087973e+03 9.673937e+02 3.830003e+02 7.490534e+01 5.206032e+00 0 5.206032e+00 7.490534e+01 3.830003e+02 9.673937e+02 1.087973e+03 4.921974e+02 5.909819e+01 0 0 0 0 0 0 0 0 
0 0 0 0 0 0 0 0 3.628562e+00 2.547833e+02 8.769962e+02 8.938137e+02 2.928471e+02 1.922430e+01 3.460868e-03 0 0 0 3.460868e-03 1.922430e+01 2.928471e+02 8.938137e+02 8.769962e+02 2.547833e+02 3.628562e+00 0 0 0 0 0 0 0 
0 0 0 0 0 0 0 0 5.402394e+01 5.241879e+02 8.815623e+02 4.383277e+02 2.782451e+01 2.708291e-02 0 0 0 0 0 2.708291e-02 2.782451e+01 4.383277e+02 8.815623e+02 5.241879e+02 5.402394e+01 0 0 0 0 0 0 0 
0 0 0 0 0 0 0 8.140795e-03 1.789226e+02 7.380851e+02 6.889144e+02 1.312214e+02 9.145986e-01 0 0 0 0 0 0 0 9.145986e-01 1.312214e+02 6.889144e+02 7.380851e+02 1.789226e+02 8.140795e-03 0 0 0 0 0 0 
0 0 0 0 0 0 0 1.820421e+00 3.237513e+02 7.954194e+02 5.029668e+02 2.943699e+01 0 0 0 0 0 0 0 0 0 2.943699e+01 5.029668e+02 7.954194e+02 3.237513e+02 1.820421e+00 0 0 0 0 0 0 
0 0 0 0 0 0 0 1.036247e+01 4.401209e+02 7.578631e+02 3.304652e+02 2.298732e+00 0 0 0 0 0 0 0 0 0 2.298732e+00 3.304652e+02 7.578631e+02 4.401209e+02 1.036247e+01 0 0 0 0 0 0 
0 0 0 0 0 0 0 2.323173e+01 4.833306e+02 7.001396e+02 2.400486e+02 0 0 0 0 0 0 0 0 0 0 0 2.400486e+02 7.001396e+02 4.833306e+02 2.323173e+01 0 0 0 0 0 0 
0 0 0 0 0 0 0 2.941149e+01 4.797701e+02 6.542541e+02 2.038955e+02 0 0 0 0 0 0 0 0 0 0 0 2.038955e+02 6.542541e+02 4.797701e+02 2.941149e+01 0 0 0 0 0 0 
0 0 0 0 0 0 0 2.323173e+01 4.833306e+02 7.001396e+02 2.400486e+02 0 0 0 0 0 0 0 0 0 0 0 2.400486e+02 7.001396e+02 4.833306e+02 2.323173e+01 0 0 0 0 0 0 
0 0 0 0 0 0 0 1.036247e+01 4.401209e+02 7.578631e+02 3.304652e+02 2.298732e+00 0 0 0 0 0 0 0 0 0 2.298732e+00 3.304652e+02 7.578631e+02 4.401209e+02 1.036247e+01 0 0 0 0 0 0 
0 0 0 0 0 0 0 1.820421e+00 3.237513e+02 7.954194e+02 5.029668e+02 2.943699e+01 0 0 0 0 0 0 0 0 0 2.943699e+01 5.029668e+02 7.954194e+02 3.237513e+02 1.820421e+00 0 0 0 0 0 0 
0 0 0 0 0 0 0 8.140795e-03 1.789226e+02 7.380851e+02 6.889144e+02 1.312214e+02 9.145986e-01 0 0 0 0 0 0 0 9.145986e-01 1.312214e+02 6.889144e+02 7.380851e+02 1.789226e+02 8.140795e-03 0 0 0 0 0 0 
0 0 0 0 0 0 0 0 5.402394e+01 5.241879e+02 8.815623e+02 4.383277e+02 2.782451e+01 2.708291e-02 0 0 0 0 0 2.708291e-02 2.782451e+01 4.383277e+02 8.815623e+02 5.241879e+02 5.402394e+01 0 0 0 0 0 0 0 
0 0 0 0 0 0 0 0 3.628562e+00 2.547833e+02 8.769962e+02 8.938137e+02 2.928471e+02 1.922430e+01 3.460868e-03 0 0 0 3.460868e-03 1.922430e+01 2.928471e+02 8.938137e+02 8.769962e+02 2.547833e+02 3.628562e+00 0 0 0 0 0 0 0 
0 0 0 0 0 0 0 0 0 5.909819e+01 4.921974e+02 1.087973e+03 9.673937e+02 3.830003e+02 7.490534e+01 5.206032e+00 0 5.206032e+00 7.490534e+01 3.830003e+02 9.673937e+02 1.087973e+03 4.921974e+02 5.909819e+01 0 0 0 0 0 0 0 0 
0 0 0 0 0 0 0 0 0 1.747399e+00 1.199715e+02 6.339314e+02 1.183041e+03 1.171078e+03 8.302682e+02 5.568301e+02 4.529699e+02 5.568301e+02 8.302682e+02 1.171078e+03 1.183041e+03 6.339314e+02 1.199715e+02 1.747399e+00 0 0 0 0 0 0 0 0 
0 0 0 0 0 0 0 0 0 0 4.871294e+00 1.144655e+02 5.217558e+02 1.015362e+03 1.248076e+03 1.245396e+03 1.189856e+03 1.245396e+03 1.248076e+03 1.015362e+03 5.217558e+02 1.144655e+02 4.871294e+00 0 0 0 0 0 0 0 0 0 
0 0 0 0 0 0 0 0 0 0 0 8.854580e-02 3.722336e+01 2.070083e+02 4.963175e+02 7.076734e+02 7.590342e+02 7.076734e+02 4.963175e+02 2.070083e+02 3.722336e+01 8.854580e-02 0 0 0 0 0 0 0 0 0 0 
0 0 0 0 0 0 0 0 0 0 0 0 0 7.170013e-04 2.751492e+00 1.382916e+01 2.214807e+01 1.382916e+01 2.751492e+00 7.170013e-04 0 0 0 0 0 0 0 0 0 0 0 0 
0 0 0 0 0 0 0 0 0 0 0 0 0 0 0 0 0 0 0 0 0 0 0 0 0 0 0 0 0 0 0 0 
0 0 0 0 0 0 0 0 0 0 0 0 0 0 0 0 0 0 0 0 0 0 0 0 0 0 0 0 0 0 0 0 
0 0 0 0 0 0 0 0 0 0 0 0 0 0 0 0 0 0 0 0 0 0 0 0 0 0 0 0 0 0 0 0 
0 0 0 0 0 0 0 0 0 0 0 0 0 0 0 0 0 0 0 0 0 0 0 0 0 0 0 0 0 0 0 0 
