# vtk DataFile Version 2.0
Comment goes here
ASCII

DATASET STRUCTURED_POINTS
FIELD FieldData 1
TIME 1 1 double
0.16000000
DIMENSIONS    32   32   1

ORIGIN    0.000   0.000   0.000
SPACING   0.03125 0.03125   1.000

POINT_DATA   1024
SCALARS fMag double
LOOKUP_TABLE default

0 0 0 0 0 0 0 0 0 0 0 0 0 0 0 0 0 0 0 0 0 0 0 0 0 0 0 0 0 0 0 0 
0 0 0 0 0 0 0 0 0 0 0 0 0 0 0 0 0 0 0 0 0 0 0 0 0 0 0 0 0 0 0 0 
0 0 0 0 0 0 0 0 0 0 0 0 0 0 0 0 0 0 0 0 0 0 0 0 0 0 0 0 0 0 0 0 
0 0 0 0 0 0 0 0 0 0 0 0 6.486022e-02 4.465284e+01 2.294968e+02 4.786013e+02 5.872403e+02 4.786013e+02 2.294968e+02 4.465284e+01 6.486022e-02 0 0 0 0 0 0 0 0 0 0 0 
0 0 0 0 0 0 0 0 0 0 0 1.607755e+01 2.263981e+02 8.748243e+02 1.628051e+03 1.968534e+03 2.009471e+03 1.968534e+03 1.628051e+03 8.748243e+02 2.263981e+02 1.607755e+01 0 0 0 0 0 0 0 0 0 0 
0 0 0 0 0 0 0 0 0 0 5.806334e+00 2.553932e+02 1.105289e+03 1.945421e+03 2.043146e+03 1.719209e+03 1.538625e+03 1.719209e+03 2.043146e+03 1.945421e+03 1.105289e+03 2.553932e+02 5.806334e+00 0 0 0 0 0 0 0 0 0 
0 0 0 0 0 0 0 0 0 9.002817e-01 1.637681e+02 9.979600e+02 1.763107e+03 1.423844e+03 6.692267e+02 2.295328e+02 1.163942e+02 2.295328e+02 6.692267e+02 1.423844e+03 1.763107e+03 9.979600e+02 1.637681e+02 9.002817e-01 0 0 0 0 0 0 0 0 
0 0 0 0 0 0 0 0 0 3.155760e+01 6.232275e+02 1.578164e+03 1.298435e+03 3.311386e+02 2.307839e+01 0 0 0 2.307839e+01 3.311386e+02 1.298435e+03 1.578164e+03 6.232275e+02 3.155760e+01 0 0 0 0 0 0 0 0 
0 0 0 0 0 0 0 0 0 1.529194e+02 1.056491e+03 1.394583e+03 5.149546e+02 2.321235e+01 0 0 0 0 0 2.321235e+01 5.149546e+02 1.394583e+03 1.056491e+03 1.529194e+02 0 0 0 0 0 0 0 0 
0 0 0 0 0 0 0 0 6.821068e-01 3.221508e+02 1.076544e+03 8.713152e+02 1.145423e+02 0 0 0 0 0 0 0 1.145423e+02 8.713152e+02 1.076544e+03 3.221508e+02 6.821068e-01 0 0 0 0 0 0 0 
0 0 0 0 0 0 0 0 7.491272e+00 4.251086e+02 8.686245e+02 4.640974e+02 1.407890e+01 0 0 0 0 0 0 0 1.407890e+01 4.640974e+02 8.686245e+02 4.251086e+02 7.491272e+00 0 0 0 0 0 0 0 
0 0 0 0 0 0 0 0 2.671827e+01 4.589197e+02 6.709816e+02 2.390965e+02 4.045395e-01 0 0 0 0 0 0 0 4.045395e-01 2.390965e+02 6.709816e+02 4.589197e+02 2.671827e+01 0 0 0 0 0 0 0 
0 0 0 0 0 0 0 0 4.434915e+01 4.359023e+02 5.290742e+02 1.375384e+02 0 0 0 0 0 0 0 0 0 1.375384e+02 5.290742e+02 4.359023e+02 4.434915e+01 0 0 0 0 0 0 0 
0 0 0 0 0 0 0 0 4.980041e+01 3.546533e+02 3.850175e+02 8.017086e+01 0 0 0 0 0 0 0 0 0 8.017086e+01 3.850175e+02 3.546533e+02 4.980041e+01 0 0 0 0 0 0 0 
0 0 0 0 0 0 0 0 5.049473e+01 3.067881e+02 3.123582e+02 5.606526e+01 0 0 0 0 0 0 0 0 0 5.606526e+01 3.123582e+02 3.067881e+02 5.049473e+01 0 0 0 0 0 0 0 
0 0 0 0 0 0 0 0 3.615647e+01 2.006326e+02 1.966096e+02 3.213361e+01 0 0 0 0 0 0 0 0 0 3.213361e+01 1.966096e+02 2.006326e+02 3.615647e+01 0 0 0 0 0 0 0 
0 0 0 0 0 0 0 0 2.274847e+01 1.210620e+02 1.164291e+02 1.811563e+01 0 0 0 0 0 0 0 0 0 1.811563e+01 1.164291e+02 1.210620e+02 2.274847e+01 0 0 0 0 0 0 0 
0 0 0 0 0 0 0 0 3.615647e+01 2.006326e+02 1.966096e+02 3.213361e+01 0 0 0 0 0 0 0 0 0 3.213361e+01 1.966096e+02 2.006326e+02 3.615647e+01 0 0 0 0 0 0 0 
0 0 0 0 0 0 0 0 5.049473e+01 3.067881e+02 3.123582e+02 5.606526e+01 0 0 0 0 0 0 0 0 0 5.606526e+01 3.123582e+02 3.067881e+02 5.049473e+01 0 0 0 0 0 0 0 
0 0 0 0 0 0 0 0 4.980041e+01 3.546533e+02 3.850175e+02 8.017086e+01 0 0 0 0 0 0 0 0 0 8.017086e+01 3.850175e+02 3.546533e+02 4.980041e+01 0 0 0 0 0 0 0 
0 0 0 0 0 0 0 0 4.434915e+01 4.359023e+02 5.290742e+02 1.375384e+02 0 0 0 0 0 0 0 0 0 1.375384e+02 5.290742e+02 4.359023e+02 4.434915e+01 0 0 0 0 0 0 0 
0 0 0 0 0 0 0 0 2.671827e+01 4.589197e+02 6.709816e+02 2.390965e+02 4.045395e-01 0 0 0 0 0 0 0 4.045395e-01 2.390965e+02 6.709816e+02 4.589197e+02 2.671827e+01 0 0 0 0 0 0 0 
0 0 0 0 0 0 0 0 7.491272e+00 4.251086e+02 8.686245e+02 4.640974e+02 1.407890e+01 0 0 0 0 0 0 0 1.407890e+01 4.640974e+02 8.686245e+02 4.251086e+02 7.491272e+00 0 0 0 0 0 0 0 
0 0 0 0 0 0 0 0 6.821068e-01 3.221508e+02 1.076544e+03 8.713152e+02 1.145423e+02 0 0 0 0 0 0 0 1.145423e+02 8.713152e+02 1.076544e+03 3.221508e+02 6.821068e-01 0 0 0 0 0 0 0 
0 0 0 0 0 0 0 0 0 1.529194e+02 1.056491e+03 1.394583e+03 5.149546e+02 2.321235e+01 0 0 0 0 0 2.321235e+01 5.149546e+02 1.394583e+03 1.056491e+03 1.529194e+02 0 0 0 0 0 0 0 0 
0 0 0 0 0 0 0 0 0 3.155760e+01 6.232275e+02 1.578164e+03 1.298435e+03 3.311386e+02 2.307839e+01 0 0 0 2.307839e+01 3.311386e+02 1.298435e+03 1.578164e+03 6.232275e+02 3.155760e+01 0 0 0 0 0 0 0 0 
0 0 0 0 0 0 0 0 0 9.002817e-01 1.637681e+02 9.979600e+02 1.763107e+03 1.423844e+03 6.692267e+02 2.295328e+02 1.163942e+02 2.295328e+02 6.692267e+02 1.423844e+03 1.763107e+03 9.979600e+02 1.637681e+02 9.002817e-01 0 0 0 0 0 0 0 0 
0 0 0 0 0 0 0 0 0 0 5.806334e+00 2.553932e+02 1.105289e+03 1.945421e+03 2.043146e+03 1.719209e+03 1.538625e+03 1.719209e+03 2.043146e+03 1.945421e+03 1.105289e+03 2.553932e+02 5.806334e+00 0 0 0 0 0 0 0 0 0 
0 0 0 0 0 0 0 0 0 0 0 1.607755e+01 2.263981e+02 8.748243e+02 1.628051e+03 1.968534e+03 2.009471e+03 1.968534e+03 1.628051e+03 8.748243e+02 2.263981e+02 1.607755e+01 0 0 0 0 0 0 0 0 0 0 
0 0 0 0 0 0 0 0 0 0 0 0 6.486022e-02 4.465284e+01 2.294968e+02 4.786013e+02 5.872403e+02 4.786013e+02 2.294968e+02 4.465284e+01 6.486022e-02 0 0 0 0 0 0 0 0 0 0 0 
0 0 0 0 0 0 0 0 0 0 0 0 0 0 0 0 0 0 0 0 0 0 0 0 0 0 0 0 0 0 0 0 
0 0 0 0 0 0 0 0 0 0 0 0 0 0 0 0 0 0 0 0 0 0 0 0 0 0 0 0 0 0 0 0 
