# vtk DataFile Version 2.0
Comment goes here
ASCII

DATASET STRUCTURED_POINTS
FIELD FieldData 1
TIME 1 1 double
1.34000000
DIMENSIONS    32   32   1

ORIGIN    0.000   0.000   0.000
SPACING   0.03125 0.03125   1.000

POINT_DATA   1024
SCALARS fMag double
LOOKUP_TABLE default

0 0 0 0 0 0 0 0 0 0 0 0 0 0 0 0 0 0 0 0 0 0 0 0 0 0 0 0 0 0 0 0 
0 0 0 0 0 0 0 0 0 0 0 0 0 0 0 0 0 0 0 0 0 0 0 0 0 0 0 0 0 0 0 0 
0 0 0 0 0 0 0 0 0 0 0 0 0 0 0 0 0 0 0 0 0 0 0 0 0 0 0 0 0 0 0 0 
0 0 0 0 0 0 0 0 0 0 0 0 0 0 0 0 0 0 0 0 0 0 0 0 0 0 0 0 0 0 0 0 
0 0 0 0 0 0 0 0 0 0 0 0 0 0 0 0 0 0 0 0 0 0 0 0 0 0 0 0 0 0 0 0 
0 0 0 0 0 0 0 0 0 0 0 0 0 0 0 0 0 0 0 0 0 0 0 0 0 0 0 0 0 0 0 0 
0 0 0 0 0 0 0 0 0 0 0 0 0 0 0 0 0 0 0 0 0 0 0 0 0 0 0 0 0 0 0 0 
0 0 0 0 0 0 0 0 0 0 0 0 0 0 0 0 0 0 0 0 0 0 0 0 0 0 0 0 0 0 0 0 
0 0 0 0 0 0 0 0 0 0 0 1.531765e+00 3.238978e+01 7.671795e+01 1.896367e+02 2.817001e+02 2.830250e+02 2.817001e+02 1.896367e+02 7.671795e+01 3.238978e+01 1.531765e+00 0 0 0 0 0 0 0 0 0 0 
0 0 0 0 0 0 0 0 0 0 9.862953e+00 1.110365e+02 3.775290e+02 6.152273e+02 7.419874e+02 7.932080e+02 7.776121e+02 7.932080e+02 7.419874e+02 6.152273e+02 3.775290e+02 1.110365e+02 9.862953e+00 0 0 0 0 0 0 0 0 0 
0 0 0 0 0 0 0 0 0 1.731514e+01 2.136461e+02 5.905135e+02 8.590562e+02 8.163225e+02 6.413319e+02 5.360306e+02 5.122511e+02 5.360306e+02 6.413319e+02 8.163225e+02 8.590562e+02 5.905135e+02 2.136461e+02 1.731514e+01 0 0 0 0 0 0 0 0 
0 0 0 0 0 0 0 0 1.058730e+01 2.035107e+02 6.934479e+02 9.122857e+02 6.190850e+02 2.836024e+02 8.857691e+01 3.028323e+01 1.766394e+01 3.028323e+01 8.857691e+01 2.836024e+02 6.190850e+02 9.122857e+02 6.934479e+02 2.035107e+02 1.058730e+01 0 0 0 0 0 0 0 
0 0 0 0 0 0 0 1.626710e-01 9.606903e+01 6.175996e+02 9.633223e+02 5.560769e+02 1.220963e+02 6.344464e+00 0 0 0 0 0 6.344464e+00 1.220963e+02 5.560769e+02 9.633223e+02 6.175996e+02 9.606903e+01 1.626710e-01 0 0 0 0 0 0 
0 0 0 0 0 0 0 3.677074e+00 3.364694e+02 9.511432e+02 7.534664e+02 1.390865e+02 2.636348e+00 0 0 0 0 0 0 0 2.636348e+00 1.390865e+02 7.534664e+02 9.511432e+02 3.364694e+02 3.677074e+00 0 0 0 0 0 0 
0 0 0 0 0 0 0 4.017259e+01 5.939244e+02 9.724457e+02 4.202133e+02 1.556760e+01 0 0 0 0 0 0 0 0 0 1.556760e+01 4.202133e+02 9.724457e+02 5.939244e+02 4.017259e+01 0 0 0 0 0 0 
0 0 0 0 0 0 0 8.511302e+01 7.345860e+02 8.674435e+02 2.214335e+02 3.626277e-01 0 0 0 0 0 0 0 0 0 3.626277e-01 2.214335e+02 8.674435e+02 7.345860e+02 8.511302e+01 0 0 0 0 0 0 
0 0 0 0 0 0 0 9.618417e+01 7.610844e+02 8.558635e+02 1.909632e+02 0 0 0 0 0 0 0 0 0 0 0 1.909632e+02 8.558635e+02 7.610844e+02 9.618417e+01 0 0 0 0 0 0 
0 0 0 0 0 0 0 8.511302e+01 7.345860e+02 8.674435e+02 2.214335e+02 3.626277e-01 0 0 0 0 0 0 0 0 0 3.626277e-01 2.214335e+02 8.674435e+02 7.345860e+02 8.511302e+01 0 0 0 0 0 0 
0 0 0 0 0 0 0 4.017259e+01 5.939244e+02 9.724457e+02 4.202133e+02 1.556760e+01 0 0 0 0 0 0 0 0 0 1.556760e+01 4.202133e+02 9.724457e+02 5.939244e+02 4.017259e+01 0 0 0 0 0 0 
0 0 0 0 0 0 0 3.677074e+00 3.364694e+02 9.511432e+02 7.534664e+02 1.390865e+02 2.636348e+00 0 0 0 0 0 0 0 2.636348e+00 1.390865e+02 7.534664e+02 9.511432e+02 3.364694e+02 3.677074e+00 0 0 0 0 0 0 
0 0 0 0 0 0 0 1.626710e-01 9.606903e+01 6.175996e+02 9.633223e+02 5.560769e+02 1.220963e+02 6.344464e+00 0 0 0 0 0 6.344464e+00 1.220963e+02 5.560769e+02 9.633223e+02 6.175996e+02 9.606903e+01 1.626710e-01 0 0 0 0 0 0 
0 0 0 0 0 0 0 0 1.058730e+01 2.035107e+02 6.934479e+02 9.122857e+02 6.190850e+02 2.836024e+02 8.857691e+01 3.028323e+01 1.766394e+01 3.028323e+01 8.857691e+01 2.836024e+02 6.190850e+02 9.122857e+02 6.934479e+02 2.035107e+02 1.058730e+01 0 0 0 0 0 0 0 
0 0 0 0 0 0 0 0 0 1.731514e+01 2.136461e+02 5.905135e+02 8.590562e+02 8.163225e+02 6.413319e+02 5.360306e+02 5.122511e+02 5.360306e+02 6.413319e+02 8.163225e+02 8.590562e+02 5.905135e+02 2.136461e+02 1.731514e+01 0 0 0 0 0 0 0 0 
0 0 0 0 0 0 0 0 0 0 9.862953e+00 1.110365e+02 3.775290e+02 6.152273e+02 7.419874e+02 7.932080e+02 7.776121e+02 7.932080e+02 7.419874e+02 6.152273e+02 3.775290e+02 1.110365e+02 9.862953e+00 0 0 0 0 0 0 0 0 0 
0 0 0 0 0 0 0 0 0 0 0 1.531765e+00 3.238978e+01 7.671795e+01 1.896367e+02 2.817001e+02 2.830250e+02 2.817001e+02 1.896367e+02 7.671795e+01 3.238978e+01 1.531765e+00 0 0 0 0 0 0 0 0 0 0 
0 0 0 0 0 0 0 0 0 0 0 0 0 0 0 0 0 0 0 0 0 0 0 0 0 0 0 0 0 0 0 0 
0 0 0 0 0 0 0 0 0 0 0 0 0 0 0 0 0 0 0 0 0 0 0 0 0 0 0 0 0 0 0 0 
0 0 0 0 0 0 0 0 0 0 0 0 0 0 0 0 0 0 0 0 0 0 0 0 0 0 0 0 0 0 0 0 
0 0 0 0 0 0 0 0 0 0 0 0 0 0 0 0 0 0 0 0 0 0 0 0 0 0 0 0 0 0 0 0 
0 0 0 0 0 0 0 0 0 0 0 0 0 0 0 0 0 0 0 0 0 0 0 0 0 0 0 0 0 0 0 0 
0 0 0 0 0 0 0 0 0 0 0 0 0 0 0 0 0 0 0 0 0 0 0 0 0 0 0 0 0 0 0 0 
0 0 0 0 0 0 0 0 0 0 0 0 0 0 0 0 0 0 0 0 0 0 0 0 0 0 0 0 0 0 0 0 
