# vtk DataFile Version 2.0
Comment goes here
ASCII

DATASET STRUCTURED_POINTS
FIELD FieldData 1
TIME 1 1 double
1.00000000
DIMENSIONS    32   32   1

ORIGIN    0.000   0.000   0.000
SPACING   0.03125 0.03125   1.000

POINT_DATA   1024
SCALARS fMag double
LOOKUP_TABLE default

0 0 0 0 0 0 0 0 0 0 0 0 0 0 0 0 0 0 0 0 0 0 0 0 0 0 0 0 0 0 0 0 
0 0 0 0 0 0 0 0 0 0 0 0 0 0 0 0 0 0 0 0 0 0 0 0 0 0 0 0 0 0 0 0 
0 0 0 0 0 0 0 0 0 0 0 0 0 0 0 0 0 0 0 0 0 0 0 0 0 0 0 0 0 0 0 0 
0 0 0 0 0 0 0 0 0 0 0 0 0 0 0 0 0 0 0 0 0 0 0 0 0 0 0 0 0 0 0 0 
0 0 0 0 0 0 0 0 0 0 0 0 0 0 0 0 0 0 0 0 0 0 0 0 0 0 0 0 0 0 0 0 
0 0 0 0 0 0 0 0 0 0 0 0 0 0 0 0 0 0 0 0 0 0 0 0 0 0 0 0 0 0 0 0 
0 0 0 0 0 0 0 0 0 0 0 0 0 0 0 0 0 0 0 0 0 0 0 0 0 0 0 0 0 0 0 0 
0 0 0 0 0 0 0 0 0 0 0 0 5.625484e-01 7.946998e+00 3.986812e+01 7.301523e+01 7.879588e+01 7.301523e+01 3.986812e+01 7.946998e+00 5.625484e-01 0 0 0 0 0 0 0 0 0 0 0 
0 0 0 0 0 0 0 0 0 0 2.515321e+00 4.682954e+01 2.176071e+02 4.378810e+02 5.789313e+02 6.358619e+02 6.112368e+02 6.358619e+02 5.789313e+02 4.378810e+02 2.176071e+02 4.682954e+01 2.515321e+00 0 0 0 0 0 0 0 0 0 
0 0 0 0 0 0 0 0 0 1.104090e+01 1.497344e+02 4.709999e+02 8.113459e+02 9.494531e+02 8.527506e+02 7.399034e+02 6.816133e+02 7.399034e+02 8.527506e+02 9.494531e+02 8.113459e+02 4.709999e+02 1.497344e+02 1.104090e+01 0 0 0 0 0 0 0 0 
0 0 0 0 0 0 0 0 1.270628e+01 1.830906e+02 6.636255e+02 9.571407e+02 8.186574e+02 5.522126e+02 3.149025e+02 1.774637e+02 1.491724e+02 1.774637e+02 3.149025e+02 5.522126e+02 8.186574e+02 9.571407e+02 6.636255e+02 1.830906e+02 1.270628e+01 0 0 0 0 0 0 0 
0 0 0 0 0 0 0 2.227118e+00 1.523334e+02 6.880991e+02 1.006838e+03 6.639155e+02 2.209106e+02 3.900512e+01 1.299515e+00 0 0 0 1.299515e+00 3.900512e+01 2.209106e+02 6.639155e+02 1.006838e+03 6.880991e+02 1.523334e+02 2.227118e+00 0 0 0 0 0 0 
0 0 0 0 0 0 0 5.920855e+01 5.113379e+02 1.039366e+03 7.041488e+02 1.390392e+02 6.997320e+00 0 0 0 0 0 0 0 6.997320e+00 1.390392e+02 7.041488e+02 1.039366e+03 5.113379e+02 5.920855e+01 0 0 0 0 0 0 
0 0 0 0 0 0 2.936372e-03 1.950648e+02 9.043229e+02 9.422331e+02 2.488588e+02 7.707884e+00 0 0 0 0 0 0 0 0 0 7.707884e+00 2.488588e+02 9.422331e+02 9.043229e+02 1.950648e+02 2.936372e-03 0 0 0 0 0 
0 0 0 0 0 0 1.515639e+00 3.893178e+02 1.017862e+03 6.882101e+02 5.830832e+01 0 0 0 0 0 0 0 0 0 0 0 5.830832e+01 6.882101e+02 1.017862e+03 3.893178e+02 1.515639e+00 0 0 0 0 0 
0 0 0 0 0 0 9.454436e+00 5.750274e+02 1.005363e+03 4.426277e+02 3.613431e+00 0 0 0 0 0 0 0 0 0 0 0 3.613431e+00 4.426277e+02 1.005363e+03 5.750274e+02 9.454436e+00 0 0 0 0 0 
0 0 0 0 0 0 1.586906e+01 6.493877e+02 1.043166e+03 4.096475e+02 0 0 0 0 0 0 0 0 0 0 0 0 0 4.096475e+02 1.043166e+03 6.493877e+02 1.586906e+01 0 0 0 0 0 
0 0 0 0 0 0 9.454436e+00 5.750274e+02 1.005363e+03 4.426277e+02 3.613431e+00 0 0 0 0 0 0 0 0 0 0 0 3.613431e+00 4.426277e+02 1.005363e+03 5.750274e+02 9.454436e+00 0 0 0 0 0 
0 0 0 0 0 0 1.515639e+00 3.893178e+02 1.017862e+03 6.882101e+02 5.830832e+01 0 0 0 0 0 0 0 0 0 0 0 5.830832e+01 6.882101e+02 1.017862e+03 3.893178e+02 1.515639e+00 0 0 0 0 0 
0 0 0 0 0 0 2.936372e-03 1.950648e+02 9.043229e+02 9.422331e+02 2.488588e+02 7.707884e+00 0 0 0 0 0 0 0 0 0 7.707884e+00 2.488588e+02 9.422331e+02 9.043229e+02 1.950648e+02 2.936372e-03 0 0 0 0 0 
0 0 0 0 0 0 0 5.920855e+01 5.113379e+02 1.039366e+03 7.041488e+02 1.390392e+02 6.997320e+00 0 0 0 0 0 0 0 6.997320e+00 1.390392e+02 7.041488e+02 1.039366e+03 5.113379e+02 5.920855e+01 0 0 0 0 0 0 
0 0 0 0 0 0 0 2.227118e+00 1.523334e+02 6.880991e+02 1.006838e+03 6.639155e+02 2.209106e+02 3.900512e+01 1.299515e+00 0 0 0 1.299515e+00 3.900512e+01 2.209106e+02 6.639155e+02 1.006838e+03 6.880991e+02 1.523334e+02 2.227118e+00 0 0 0 0 0 0 
0 0 0 0 0 0 0 0 1.270628e+01 1.830906e+02 6.636255e+02 9.571407e+02 8.186574e+02 5.522126e+02 3.149025e+02 1.774637e+02 1.491724e+02 1.774637e+02 3.149025e+02 5.522126e+02 8.186574e+02 9.571407e+02 6.636255e+02 1.830906e+02 1.270628e+01 0 0 0 0 0 0 0 
0 0 0 0 0 0 0 0 0 1.104090e+01 1.497344e+02 4.709999e+02 8.113459e+02 9.494531e+02 8.527506e+02 7.399034e+02 6.816133e+02 7.399034e+02 8.527506e+02 9.494531e+02 8.113459e+02 4.709999e+02 1.497344e+02 1.104090e+01 0 0 0 0 0 0 0 0 
0 0 0 0 0 0 0 0 0 0 2.515321e+00 4.682954e+01 2.176071e+02 4.378810e+02 5.789313e+02 6.358619e+02 6.112368e+02 6.358619e+02 5.789313e+02 4.378810e+02 2.176071e+02 4.682954e+01 2.515321e+00 0 0 0 0 0 0 0 0 0 
0 0 0 0 0 0 0 0 0 0 0 0 5.625484e-01 7.946998e+00 3.986812e+01 7.301523e+01 7.879588e+01 7.301523e+01 3.986812e+01 7.946998e+00 5.625484e-01 0 0 0 0 0 0 0 0 0 0 0 
0 0 0 0 0 0 0 0 0 0 0 0 0 0 0 0 0 0 0 0 0 0 0 0 0 0 0 0 0 0 0 0 
0 0 0 0 0 0 0 0 0 0 0 0 0 0 0 0 0 0 0 0 0 0 0 0 0 0 0 0 0 0 0 0 
0 0 0 0 0 0 0 0 0 0 0 0 0 0 0 0 0 0 0 0 0 0 0 0 0 0 0 0 0 0 0 0 
0 0 0 0 0 0 0 0 0 0 0 0 0 0 0 0 0 0 0 0 0 0 0 0 0 0 0 0 0 0 0 0 
0 0 0 0 0 0 0 0 0 0 0 0 0 0 0 0 0 0 0 0 0 0 0 0 0 0 0 0 0 0 0 0 
0 0 0 0 0 0 0 0 0 0 0 0 0 0 0 0 0 0 0 0 0 0 0 0 0 0 0 0 0 0 0 0 
