# vtk DataFile Version 2.0
Comment goes here
ASCII

DATASET STRUCTURED_POINTS
FIELD FieldData 1
TIME 1 1 double
1.04000000
DIMENSIONS    32   32   1

ORIGIN    0.000   0.000   0.000
SPACING   0.03125 0.03125   1.000

POINT_DATA   1024
SCALARS fMag double
LOOKUP_TABLE default

0 0 0 0 0 0 0 0 0 0 0 0 0 0 0 0 0 0 0 0 0 0 0 0 0 0 0 0 0 0 0 0 
0 0 0 0 0 0 0 0 0 0 0 0 0 0 0 0 0 0 0 0 0 0 0 0 0 0 0 0 0 0 0 0 
0 0 0 0 0 0 0 0 0 0 0 0 0 0 0 0 0 0 0 0 0 0 0 0 0 0 0 0 0 0 0 0 
0 0 0 0 0 0 0 0 0 0 0 0 0 0 0 0 0 0 0 0 0 0 0 0 0 0 0 0 0 0 0 0 
0 0 0 0 0 0 0 0 0 0 0 0 0 0 0 0 0 0 0 0 0 0 0 0 0 0 0 0 0 0 0 0 
0 0 0 0 0 0 0 0 0 0 0 0 0 0 0 0 0 0 0 0 0 0 0 0 0 0 0 0 0 0 0 0 
0 0 0 0 0 0 0 0 0 0 0 0 0 0 0 0 0 0 0 0 0 0 0 0 0 0 0 0 0 0 0 0 
0 0 0 0 0 0 0 0 0 0 0 0 0 1.101679e-01 1.841376e+00 6.541495e+00 9.503588e+00 6.541495e+00 1.841376e+00 1.101679e-01 0 0 0 0 0 0 0 0 0 0 0 0 
0 0 0 0 0 0 0 0 0 0 4.192658e-01 1.760288e+01 8.901143e+01 2.237443e+02 3.528396e+02 4.422159e+02 4.493494e+02 4.422159e+02 3.528396e+02 2.237443e+02 8.901143e+01 1.760288e+01 4.192658e-01 0 0 0 0 0 0 0 0 0 
0 0 0 0 0 0 0 0 0 5.479570e+00 9.455116e+01 3.580278e+02 6.272683e+02 7.738529e+02 7.926714e+02 7.579788e+02 7.282595e+02 7.579788e+02 7.926714e+02 7.738529e+02 6.272683e+02 3.580278e+02 9.455116e+01 5.479570e+00 0 0 0 0 0 0 0 0 
0 0 0 0 0 0 0 0 1.073086e+01 1.735939e+02 5.887539e+02 9.042920e+02 8.457479e+02 6.339766e+02 4.593192e+02 3.231304e+02 2.884137e+02 3.231304e+02 4.593192e+02 6.339766e+02 8.457479e+02 9.042920e+02 5.887539e+02 1.735939e+02 1.073086e+01 0 0 0 0 0 0 0 
0 0 0 0 0 0 0 4.383846e+00 1.571472e+02 6.818998e+02 1.025220e+03 7.295575e+02 3.148355e+02 8.663327e+01 1.899148e+01 1.443554e+00 0 1.443554e+00 1.899148e+01 8.663327e+01 3.148355e+02 7.295575e+02 1.025220e+03 6.818998e+02 1.571472e+02 4.383846e+00 0 0 0 0 0 0 
0 0 0 0 0 0 0 6.933732e+01 5.584987e+02 1.049135e+03 7.193718e+02 1.771446e+02 1.335802e+01 0 0 0 0 0 0 0 1.335802e+01 1.771446e+02 7.193718e+02 1.049135e+03 5.584987e+02 6.933732e+01 0 0 0 0 0 0 
0 0 0 0 0 0 1.565883e+00 2.576185e+02 9.693271e+02 9.291665e+02 2.242848e+02 7.570178e+00 0 0 0 0 0 0 0 0 0 7.570178e+00 2.242848e+02 9.291665e+02 9.693271e+02 2.576185e+02 1.565883e+00 0 0 0 0 0 
0 0 0 0 0 0 1.525980e+01 5.373345e+02 1.094894e+03 6.094715e+02 3.598332e+01 0 0 0 0 0 0 0 0 0 0 0 3.598332e+01 6.094715e+02 1.094894e+03 5.373345e+02 1.525980e+01 0 0 0 0 0 
0 0 0 0 0 0 4.144387e+01 7.402404e+02 1.055009e+03 3.582604e+02 9.930522e-01 0 0 0 0 0 0 0 0 0 0 0 9.930522e-01 3.582604e+02 1.055009e+03 7.402404e+02 4.144387e+01 0 0 0 0 0 
0 0 0 0 0 0 5.480937e+01 7.641012e+02 1.010672e+03 3.013805e+02 0 0 0 0 0 0 0 0 0 0 0 0 0 3.013805e+02 1.010672e+03 7.641012e+02 5.480937e+01 0 0 0 0 0 
0 0 0 0 0 0 4.144387e+01 7.402404e+02 1.055009e+03 3.582604e+02 9.930522e-01 0 0 0 0 0 0 0 0 0 0 0 9.930522e-01 3.582604e+02 1.055009e+03 7.402404e+02 4.144387e+01 0 0 0 0 0 
0 0 0 0 0 0 1.525980e+01 5.373345e+02 1.094894e+03 6.094715e+02 3.598332e+01 0 0 0 0 0 0 0 0 0 0 0 3.598332e+01 6.094715e+02 1.094894e+03 5.373345e+02 1.525980e+01 0 0 0 0 0 
0 0 0 0 0 0 1.565883e+00 2.576185e+02 9.693271e+02 9.291665e+02 2.242848e+02 7.570178e+00 0 0 0 0 0 0 0 0 0 7.570178e+00 2.242848e+02 9.291665e+02 9.693271e+02 2.576185e+02 1.565883e+00 0 0 0 0 0 
0 0 0 0 0 0 0 6.933732e+01 5.584987e+02 1.049135e+03 7.193718e+02 1.771446e+02 1.335802e+01 0 0 0 0 0 0 0 1.335802e+01 1.771446e+02 7.193718e+02 1.049135e+03 5.584987e+02 6.933732e+01 0 0 0 0 0 0 
0 0 0 0 0 0 0 4.383846e+00 1.571472e+02 6.818998e+02 1.025220e+03 7.295575e+02 3.148355e+02 8.663327e+01 1.899148e+01 1.443554e+00 0 1.443554e+00 1.899148e+01 8.663327e+01 3.148355e+02 7.295575e+02 1.025220e+03 6.818998e+02 1.571472e+02 4.383846e+00 0 0 0 0 0 0 
0 0 0 0 0 0 0 0 1.073086e+01 1.735939e+02 5.887539e+02 9.042920e+02 8.457479e+02 6.339766e+02 4.593192e+02 3.231304e+02 2.884137e+02 3.231304e+02 4.593192e+02 6.339766e+02 8.457479e+02 9.042920e+02 5.887539e+02 1.735939e+02 1.073086e+01 0 0 0 0 0 0 0 
0 0 0 0 0 0 0 0 0 5.479570e+00 9.455116e+01 3.580278e+02 6.272683e+02 7.738529e+02 7.926714e+02 7.579788e+02 7.282595e+02 7.579788e+02 7.926714e+02 7.738529e+02 6.272683e+02 3.580278e+02 9.455116e+01 5.479570e+00 0 0 0 0 0 0 0 0 
0 0 0 0 0 0 0 0 0 0 4.192658e-01 1.760288e+01 8.901143e+01 2.237443e+02 3.528396e+02 4.422159e+02 4.493494e+02 4.422159e+02 3.528396e+02 2.237443e+02 8.901143e+01 1.760288e+01 4.192658e-01 0 0 0 0 0 0 0 0 0 
0 0 0 0 0 0 0 0 0 0 0 0 0 1.101679e-01 1.841376e+00 6.541495e+00 9.503588e+00 6.541495e+00 1.841376e+00 1.101679e-01 0 0 0 0 0 0 0 0 0 0 0 0 
0 0 0 0 0 0 0 0 0 0 0 0 0 0 0 0 0 0 0 0 0 0 0 0 0 0 0 0 0 0 0 0 
0 0 0 0 0 0 0 0 0 0 0 0 0 0 0 0 0 0 0 0 0 0 0 0 0 0 0 0 0 0 0 0 
0 0 0 0 0 0 0 0 0 0 0 0 0 0 0 0 0 0 0 0 0 0 0 0 0 0 0 0 0 0 0 0 
0 0 0 0 0 0 0 0 0 0 0 0 0 0 0 0 0 0 0 0 0 0 0 0 0 0 0 0 0 0 0 0 
0 0 0 0 0 0 0 0 0 0 0 0 0 0 0 0 0 0 0 0 0 0 0 0 0 0 0 0 0 0 0 0 
0 0 0 0 0 0 0 0 0 0 0 0 0 0 0 0 0 0 0 0 0 0 0 0 0 0 0 0 0 0 0 0 
