# vtk DataFile Version 2.0
Comment goes here
ASCII

DATASET STRUCTURED_POINTS
FIELD FieldData 1
TIME 1 1 double
0.60000000
DIMENSIONS    32   32   1

ORIGIN    0.000   0.000   0.000
SPACING   0.03125 0.03125   1.000

POINT_DATA   1024
SCALARS fMag double
LOOKUP_TABLE default

0 0 0 0 0 0 0 0 0 0 0 0 0 0 0 0 0 0 0 0 0 0 0 0 0 0 0 0 0 0 0 0 
0 0 0 0 0 0 0 0 0 0 0 0 0 0 0 0 0 0 0 0 0 0 0 0 0 0 0 0 0 0 0 0 
0 0 0 0 0 0 0 0 0 0 0 0 0 0 0 0 0 0 0 0 0 0 0 0 0 0 0 0 0 0 0 0 
0 0 0 0 0 0 0 0 0 0 0 0 0 0 0 0 0 0 0 0 0 0 0 0 0 0 0 0 0 0 0 0 
0 0 0 0 0 0 0 0 0 0 0 0 0 0 0 0 0 0 0 0 0 0 0 0 0 0 0 0 0 0 0 0 
0 0 0 0 0 0 0 0 0 0 0 0 0 0 0 0 0 0 0 0 0 0 0 0 0 0 0 0 0 0 0 0 
0 0 0 0 0 0 0 0 0 0 0 0 0 1.655770e+00 1.133669e+01 2.775875e+01 3.584399e+01 2.775875e+01 1.133669e+01 1.655770e+00 0 0 0 0 0 0 0 0 0 0 0 0 
0 0 0 0 0 0 0 0 0 0 9.868953e-01 3.721113e+01 1.481133e+02 3.322998e+02 5.262671e+02 6.186723e+02 6.101336e+02 6.186723e+02 5.262671e+02 3.322998e+02 1.481133e+02 3.721113e+01 9.868953e-01 0 0 0 0 0 0 0 0 0 
0 0 0 0 0 0 0 0 0 1.801486e+01 1.397987e+02 4.992622e+02 8.319813e+02 9.426561e+02 9.610423e+02 9.139899e+02 8.401586e+02 9.139899e+02 9.610423e+02 9.426561e+02 8.319813e+02 4.992622e+02 1.397987e+02 1.801486e+01 0 0 0 0 0 0 0 0 
0 0 0 0 0 0 0 0 1.926161e+01 2.585138e+02 7.827223e+02 1.095598e+03 9.540054e+02 6.804428e+02 4.533786e+02 3.232397e+02 2.658690e+02 3.232397e+02 4.533786e+02 6.804428e+02 9.540054e+02 1.095598e+03 7.827223e+02 2.585138e+02 1.926161e+01 0 0 0 0 0 0 0 
0 0 0 0 0 0 0 8.434494e+00 2.252274e+02 8.163105e+02 1.160261e+03 7.779202e+02 2.815975e+02 6.869769e+01 6.701676e+00 1.764098e-01 0 1.764098e-01 6.701676e+00 6.869769e+01 2.815975e+02 7.779202e+02 1.160261e+03 8.163105e+02 2.252274e+02 8.434494e+00 0 0 0 0 0 0 
0 0 0 0 0 0 1.919369e-01 1.063393e+02 7.140177e+02 1.139359e+03 6.724825e+02 1.474281e+02 9.501508e+00 6.020725e-03 0 0 0 0 0 6.020725e-03 9.501508e+00 1.474281e+02 6.724825e+02 1.139359e+03 7.140177e+02 1.063393e+02 1.919369e-01 0 0 0 0 0 
0 0 0 0 0 0 8.199402e+00 3.829747e+02 1.074540e+03 8.740682e+02 1.771393e+02 3.283624e+00 0 0 0 0 0 0 0 0 0 3.283624e+00 1.771393e+02 8.740682e+02 1.074540e+03 3.829747e+02 8.199402e+00 0 0 0 0 0 
0 0 0 0 0 0 5.837708e+01 7.036647e+02 1.065469e+03 4.371956e+02 1.696394e+01 0 0 0 0 0 0 0 0 0 0 0 1.696394e+01 4.371956e+02 1.065469e+03 7.036647e+02 5.837708e+01 0 0 0 0 0 
0 0 0 0 0 0 1.541713e+02 8.900294e+02 9.240774e+02 1.880298e+02 0 0 0 0 0 0 0 0 0 0 0 0 0 1.880298e+02 9.240774e+02 8.900294e+02 1.541713e+02 0 0 0 0 0 
0 0 0 0 0 0 2.403566e+02 9.569782e+02 8.048724e+02 8.832224e+01 0 0 0 0 0 0 0 0 0 0 0 0 0 8.832224e+01 8.048724e+02 9.569782e+02 2.403566e+02 0 0 0 0 0 
0 0 0 0 0 0 2.705353e+02 9.543387e+02 7.433103e+02 5.950696e+01 0 0 0 0 0 0 0 0 0 0 0 0 0 5.950696e+01 7.433103e+02 9.543387e+02 2.705353e+02 0 0 0 0 0 
0 0 0 0 0 0 2.403566e+02 9.569782e+02 8.048724e+02 8.832224e+01 0 0 0 0 0 0 0 0 0 0 0 0 0 8.832224e+01 8.048724e+02 9.569782e+02 2.403566e+02 0 0 0 0 0 
0 0 0 0 0 0 1.541713e+02 8.900294e+02 9.240774e+02 1.880298e+02 0 0 0 0 0 0 0 0 0 0 0 0 0 1.880298e+02 9.240774e+02 8.900294e+02 1.541713e+02 0 0 0 0 0 
0 0 0 0 0 0 5.837708e+01 7.036647e+02 1.065469e+03 4.371956e+02 1.696394e+01 0 0 0 0 0 0 0 0 0 0 0 1.696394e+01 4.371956e+02 1.065469e+03 7.036647e+02 5.837708e+01 0 0 0 0 0 
0 0 0 0 0 0 8.199402e+00 3.829747e+02 1.074540e+03 8.740682e+02 1.771393e+02 3.283624e+00 0 0 0 0 0 0 0 0 0 3.283624e+00 1.771393e+02 8.740682e+02 1.074540e+03 3.829747e+02 8.199402e+00 0 0 0 0 0 
0 0 0 0 0 0 1.919369e-01 1.063393e+02 7.140177e+02 1.139359e+03 6.724825e+02 1.474281e+02 9.501508e+00 6.020725e-03 0 0 0 0 0 6.020725e-03 9.501508e+00 1.474281e+02 6.724825e+02 1.139359e+03 7.140177e+02 1.063393e+02 1.919369e-01 0 0 0 0 0 
0 0 0 0 0 0 0 8.434494e+00 2.252274e+02 8.163105e+02 1.160261e+03 7.779202e+02 2.815975e+02 6.869769e+01 6.701676e+00 1.764098e-01 0 1.764098e-01 6.701676e+00 6.869769e+01 2.815975e+02 7.779202e+02 1.160261e+03 8.163105e+02 2.252274e+02 8.434494e+00 0 0 0 0 0 0 
0 0 0 0 0 0 0 0 1.926161e+01 2.585138e+02 7.827223e+02 1.095598e+03 9.540054e+02 6.804428e+02 4.533786e+02 3.232397e+02 2.658690e+02 3.232397e+02 4.533786e+02 6.804428e+02 9.540054e+02 1.095598e+03 7.827223e+02 2.585138e+02 1.926161e+01 0 0 0 0 0 0 0 
0 0 0 0 0 0 0 0 0 1.801486e+01 1.397987e+02 4.992622e+02 8.319813e+02 9.426561e+02 9.610423e+02 9.139899e+02 8.401586e+02 9.139899e+02 9.610423e+02 9.426561e+02 8.319813e+02 4.992622e+02 1.397987e+02 1.801486e+01 0 0 0 0 0 0 0 0 
0 0 0 0 0 0 0 0 0 0 9.868953e-01 3.721113e+01 1.481133e+02 3.322998e+02 5.262671e+02 6.186723e+02 6.101336e+02 6.186723e+02 5.262671e+02 3.322998e+02 1.481133e+02 3.721113e+01 9.868953e-01 0 0 0 0 0 0 0 0 0 
0 0 0 0 0 0 0 0 0 0 0 0 0 1.655770e+00 1.133669e+01 2.775875e+01 3.584399e+01 2.775875e+01 1.133669e+01 1.655770e+00 0 0 0 0 0 0 0 0 0 0 0 0 
0 0 0 0 0 0 0 0 0 0 0 0 0 0 0 0 0 0 0 0 0 0 0 0 0 0 0 0 0 0 0 0 
0 0 0 0 0 0 0 0 0 0 0 0 0 0 0 0 0 0 0 0 0 0 0 0 0 0 0 0 0 0 0 0 
0 0 0 0 0 0 0 0 0 0 0 0 0 0 0 0 0 0 0 0 0 0 0 0 0 0 0 0 0 0 0 0 
0 0 0 0 0 0 0 0 0 0 0 0 0 0 0 0 0 0 0 0 0 0 0 0 0 0 0 0 0 0 0 0 
0 0 0 0 0 0 0 0 0 0 0 0 0 0 0 0 0 0 0 0 0 0 0 0 0 0 0 0 0 0 0 0 
