# vtk DataFile Version 2.0
Comment goes here
ASCII

DATASET STRUCTURED_POINTS
FIELD FieldData 1
TIME 1 1 double
0.74000000
DIMENSIONS    32   32   1

ORIGIN    0.000   0.000   0.000
SPACING   0.03125 0.03125   1.000

POINT_DATA   1024
SCALARS fMag double
LOOKUP_TABLE default

0 0 0 0 0 0 0 0 0 0 0 0 0 0 0 0 0 0 0 0 0 0 0 0 0 0 0 0 0 0 0 0 
0 0 0 0 0 0 0 0 0 0 0 0 0 0 0 0 0 0 0 0 0 0 0 0 0 0 0 0 0 0 0 0 
0 0 0 0 0 0 0 0 0 0 0 0 0 0 0 0 0 0 0 0 0 0 0 0 0 0 0 0 0 0 0 0 
0 0 0 0 0 0 0 0 0 0 0 0 0 0 0 0 0 0 0 0 0 0 0 0 0 0 0 0 0 0 0 0 
0 0 0 0 0 0 0 0 0 0 0 0 0 0 0 0 0 0 0 0 0 0 0 0 0 0 0 0 0 0 0 0 
0 0 0 0 0 0 0 0 0 0 0 0 0 0 0 0 0 0 0 0 0 0 0 0 0 0 0 0 0 0 0 0 
0 0 0 0 0 0 0 0 0 0 0 0 0 0 0 0 0 0 0 0 0 0 0 0 0 0 0 0 0 0 0 0 
0 0 0 0 0 0 0 0 0 0 0 8.965127e-02 4.145910e+00 2.910124e+01 7.249800e+01 1.164315e+02 1.401676e+02 1.164315e+02 7.249800e+01 2.910124e+01 4.145910e+00 8.965127e-02 0 0 0 0 0 0 0 0 0 0 
0 0 0 0 0 0 0 0 0 3.841274e-02 1.867062e+01 1.285761e+02 3.390420e+02 5.289827e+02 6.256333e+02 6.725901e+02 7.217902e+02 6.725901e+02 6.256333e+02 5.289827e+02 3.390420e+02 1.285761e+02 1.867062e+01 3.841274e-02 0 0 0 0 0 0 0 0 
0 0 0 0 0 0 0 0 3.015780e+00 8.843310e+01 3.906997e+02 7.393136e+02 8.852973e+02 8.476461e+02 7.426666e+02 6.749134e+02 6.847082e+02 6.749134e+02 7.426666e+02 8.476461e+02 8.852973e+02 7.393136e+02 3.906997e+02 8.843310e+01 3.015780e+00 0 0 0 0 0 0 0 
0 0 0 0 0 0 0 5.354006e+00 1.544467e+02 5.890173e+02 9.731192e+02 9.265487e+02 6.228163e+02 3.538394e+02 1.895700e+02 1.187478e+02 1.030856e+02 1.187478e+02 1.895700e+02 3.538394e+02 6.228163e+02 9.265487e+02 9.731192e+02 5.890173e+02 1.544467e+02 5.354006e+00 0 0 0 0 0 0 
0 0 0 0 0 0 1.984336e-01 1.174596e+02 6.537749e+02 1.105270e+03 8.274802e+02 3.275234e+02 7.369171e+01 6.207548e+00 0 0 0 0 0 6.207548e+00 7.369171e+01 3.275234e+02 8.274802e+02 1.105270e+03 6.537749e+02 1.174596e+02 1.984336e-01 0 0 0 0 0 
0 0 0 0 0 0 2.479335e+01 4.590374e+02 1.123535e+03 9.165151e+02 2.425265e+02 1.358775e+01 0 0 0 0 0 0 0 0 0 1.358775e+01 2.425265e+02 9.165151e+02 1.123535e+03 4.590374e+02 2.479335e+01 0 0 0 0 0 
0 0 0 0 0 0 1.633558e+02 9.108517e+02 1.119879e+03 3.863543e+02 1.442837e+01 0 0 0 0 0 0 0 0 0 0 0 1.442837e+01 3.863543e+02 1.119879e+03 9.108517e+02 1.633558e+02 0 0 0 0 0 
0 0 0 0 0 6.808452e-02 3.835561e+02 1.163690e+03 8.667501e+02 8.684992e+01 7.720604e-02 0 0 0 0 0 0 0 0 0 0 0 7.720604e-02 8.684992e+01 8.667501e+02 1.163690e+03 3.835561e+02 6.808452e-02 0 0 0 0 
0 0 0 0 0 1.548737e+00 5.656898e+02 1.205275e+03 6.544553e+02 1.350247e+01 0 0 0 0 0 0 0 0 0 0 0 0 0 1.350247e+01 6.544553e+02 1.205275e+03 5.656898e+02 1.548737e+00 0 0 0 0 
0 0 0 0 0 2.968549e+00 6.301203e+02 1.177382e+03 5.513008e+02 1.070838e+00 0 0 0 0 0 0 0 0 0 0 0 0 0 1.070838e+00 5.513008e+02 1.177382e+03 6.301203e+02 2.968549e+00 0 0 0 0 
0 0 0 0 0 1.548737e+00 5.656898e+02 1.205275e+03 6.544553e+02 1.350247e+01 0 0 0 0 0 0 0 0 0 0 0 0 0 1.350247e+01 6.544553e+02 1.205275e+03 5.656898e+02 1.548737e+00 0 0 0 0 
0 0 0 0 0 6.808452e-02 3.835561e+02 1.163690e+03 8.667501e+02 8.684992e+01 7.720604e-02 0 0 0 0 0 0 0 0 0 0 0 7.720604e-02 8.684992e+01 8.667501e+02 1.163690e+03 3.835561e+02 6.808452e-02 0 0 0 0 
0 0 0 0 0 0 1.633558e+02 9.108517e+02 1.119879e+03 3.863543e+02 1.442837e+01 0 0 0 0 0 0 0 0 0 0 0 1.442837e+01 3.863543e+02 1.119879e+03 9.108517e+02 1.633558e+02 0 0 0 0 0 
0 0 0 0 0 0 2.479335e+01 4.590374e+02 1.123535e+03 9.165151e+02 2.425265e+02 1.358775e+01 0 0 0 0 0 0 0 0 0 1.358775e+01 2.425265e+02 9.165151e+02 1.123535e+03 4.590374e+02 2.479335e+01 0 0 0 0 0 
0 0 0 0 0 0 1.984336e-01 1.174596e+02 6.537749e+02 1.105270e+03 8.274802e+02 3.275234e+02 7.369171e+01 6.207548e+00 0 0 0 0 0 6.207548e+00 7.369171e+01 3.275234e+02 8.274802e+02 1.105270e+03 6.537749e+02 1.174596e+02 1.984336e-01 0 0 0 0 0 
0 0 0 0 0 0 0 5.354006e+00 1.544467e+02 5.890173e+02 9.731192e+02 9.265487e+02 6.228163e+02 3.538394e+02 1.895700e+02 1.187478e+02 1.030856e+02 1.187478e+02 1.895700e+02 3.538394e+02 6.228163e+02 9.265487e+02 9.731192e+02 5.890173e+02 1.544467e+02 5.354006e+00 0 0 0 0 0 0 
0 0 0 0 0 0 0 0 3.015780e+00 8.843310e+01 3.906997e+02 7.393136e+02 8.852973e+02 8.476461e+02 7.426666e+02 6.749134e+02 6.847082e+02 6.749134e+02 7.426666e+02 8.476461e+02 8.852973e+02 7.393136e+02 3.906997e+02 8.843310e+01 3.015780e+00 0 0 0 0 0 0 0 
0 0 0 0 0 0 0 0 0 3.841274e-02 1.867062e+01 1.285761e+02 3.390420e+02 5.289827e+02 6.256333e+02 6.725901e+02 7.217902e+02 6.725901e+02 6.256333e+02 5.289827e+02 3.390420e+02 1.285761e+02 1.867062e+01 3.841274e-02 0 0 0 0 0 0 0 0 
0 0 0 0 0 0 0 0 0 0 0 8.965127e-02 4.145910e+00 2.910124e+01 7.249800e+01 1.164315e+02 1.401676e+02 1.164315e+02 7.249800e+01 2.910124e+01 4.145910e+00 8.965127e-02 0 0 0 0 0 0 0 0 0 0 
0 0 0 0 0 0 0 0 0 0 0 0 0 0 0 0 0 0 0 0 0 0 0 0 0 0 0 0 0 0 0 0 
0 0 0 0 0 0 0 0 0 0 0 0 0 0 0 0 0 0 0 0 0 0 0 0 0 0 0 0 0 0 0 0 
0 0 0 0 0 0 0 0 0 0 0 0 0 0 0 0 0 0 0 0 0 0 0 0 0 0 0 0 0 0 0 0 
0 0 0 0 0 0 0 0 0 0 0 0 0 0 0 0 0 0 0 0 0 0 0 0 0 0 0 0 0 0 0 0 
0 0 0 0 0 0 0 0 0 0 0 0 0 0 0 0 0 0 0 0 0 0 0 0 0 0 0 0 0 0 0 0 
0 0 0 0 0 0 0 0 0 0 0 0 0 0 0 0 0 0 0 0 0 0 0 0 0 0 0 0 0 0 0 0 
