# vtk DataFile Version 2.0
Comment goes here
ASCII

DATASET STRUCTURED_POINTS
FIELD FieldData 1
TIME 1 1 double
0.68000000
DIMENSIONS    32   32   1

ORIGIN    0.000   0.000   0.000
SPACING   0.03125 0.03125   1.000

POINT_DATA   1024
SCALARS fMag double
LOOKUP_TABLE default

0 0 0 0 0 0 0 0 0 0 0 0 0 0 0 0 0 0 0 0 0 0 0 0 0 0 0 0 0 0 0 0 
0 0 0 0 0 0 0 0 0 0 0 0 0 0 0 0 0 0 0 0 0 0 0 0 0 0 0 0 0 0 0 0 
0 0 0 0 0 0 0 0 0 0 0 0 0 0 0 0 0 0 0 0 0 0 0 0 0 0 0 0 0 0 0 0 
0 0 0 0 0 0 0 0 0 0 0 0 0 0 0 0 0 0 0 0 0 0 0 0 0 0 0 0 0 0 0 0 
0 0 0 0 0 0 0 0 0 0 0 0 0 0 0 0 0 0 0 0 0 0 0 0 0 0 0 0 0 0 0 0 
0 0 0 0 0 0 0 0 0 0 0 0 0 0 0 0 0 0 0 0 0 0 0 0 0 0 0 0 0 0 0 0 
0 0 0 0 0 0 0 0 0 0 0 0 1.730273e+00 1.908282e+01 6.088213e+01 1.109005e+02 1.365224e+02 1.109005e+02 6.088213e+01 1.908282e+01 1.730273e+00 0 0 0 0 0 0 0 0 0 0 0 
0 0 0 0 0 0 0 0 0 0 7.075865e-01 5.530547e+01 2.360318e+02 5.393028e+02 7.592495e+02 8.010163e+02 8.284923e+02 8.010163e+02 7.592495e+02 5.393028e+02 2.360318e+02 5.530547e+01 7.075865e-01 0 0 0 0 0 0 0 0 0 
0 0 0 0 0 0 0 0 0 7.347592e+00 1.297793e+02 5.378845e+02 9.777043e+02 1.103297e+03 1.025643e+03 8.824112e+02 8.436189e+02 8.824112e+02 1.025643e+03 1.103297e+03 9.777043e+02 5.378845e+02 1.297793e+02 7.347592e+00 0 0 0 0 0 0 0 0 
0 0 0 0 0 0 0 0 7.874947e+00 1.583795e+02 6.473454e+02 1.066026e+03 1.005378e+03 6.345841e+02 3.293184e+02 1.922672e+02 1.516489e+02 1.922672e+02 3.293184e+02 6.345841e+02 1.005378e+03 1.066026e+03 6.473454e+02 1.583795e+02 7.874947e+00 0 0 0 0 0 0 0 
0 0 0 0 0 0 0 1.994352e-02 9.776107e+01 6.355585e+02 1.095699e+03 7.857098e+02 2.750265e+02 4.993171e+01 1.655039e+00 0 0 0 1.655039e+00 4.993171e+01 2.750265e+02 7.857098e+02 1.095699e+03 6.355585e+02 9.776107e+01 1.994352e-02 0 0 0 0 0 0 
0 0 0 0 0 0 0 2.271935e+01 4.046418e+02 1.030107e+03 8.507635e+02 2.128720e+02 1.189276e+01 0 0 0 0 0 0 0 1.189276e+01 2.128720e+02 8.507635e+02 1.030107e+03 4.046418e+02 2.271935e+01 0 0 0 0 0 0 
0 0 0 0 0 0 0 1.216180e+02 7.828268e+02 9.969170e+02 3.557347e+02 1.793664e+01 0 0 0 0 0 0 0 0 0 1.793664e+01 3.557347e+02 9.969170e+02 7.828268e+02 1.216180e+02 0 0 0 0 0 0 
0 0 0 0 0 0 1.203097e+00 2.891299e+02 9.191060e+02 7.248963e+02 9.401628e+01 7.720939e-02 0 0 0 0 0 0 0 0 0 7.720939e-02 9.401628e+01 7.248963e+02 9.191060e+02 2.891299e+02 1.203097e+00 0 0 0 0 0 
0 0 0 0 0 0 8.702385e+00 4.953403e+02 9.436499e+02 4.686204e+02 1.089306e+01 0 0 0 0 0 0 0 0 0 0 0 1.089306e+01 4.686204e+02 9.436499e+02 4.953403e+02 8.702385e+00 0 0 0 0 0 
0 0 0 0 0 0 2.342546e+01 6.156350e+02 9.383061e+02 3.464448e+02 3.657678e-01 0 0 0 0 0 0 0 0 0 0 0 3.657678e-01 3.464448e+02 9.383061e+02 6.156350e+02 2.342546e+01 0 0 0 0 0 
0 0 0 0 0 0 3.171095e+01 6.087321e+02 8.599224e+02 2.829013e+02 0 0 0 0 0 0 0 0 0 0 0 0 0 2.829013e+02 8.599224e+02 6.087321e+02 3.171095e+01 0 0 0 0 0 
0 0 0 0 0 0 2.342546e+01 6.156350e+02 9.383061e+02 3.464448e+02 3.657678e-01 0 0 0 0 0 0 0 0 0 0 0 3.657678e-01 3.464448e+02 9.383061e+02 6.156350e+02 2.342546e+01 0 0 0 0 0 
0 0 0 0 0 0 8.702385e+00 4.953403e+02 9.436499e+02 4.686204e+02 1.089306e+01 0 0 0 0 0 0 0 0 0 0 0 1.089306e+01 4.686204e+02 9.436499e+02 4.953403e+02 8.702385e+00 0 0 0 0 0 
0 0 0 0 0 0 1.203097e+00 2.891299e+02 9.191060e+02 7.248963e+02 9.401628e+01 7.720939e-02 0 0 0 0 0 0 0 0 0 7.720939e-02 9.401628e+01 7.248963e+02 9.191060e+02 2.891299e+02 1.203097e+00 0 0 0 0 0 
0 0 0 0 0 0 0 1.216180e+02 7.828268e+02 9.969170e+02 3.557347e+02 1.793664e+01 0 0 0 0 0 0 0 0 0 1.793664e+01 3.557347e+02 9.969170e+02 7.828268e+02 1.216180e+02 0 0 0 0 0 0 
0 0 0 0 0 0 0 2.271935e+01 4.046418e+02 1.030107e+03 8.507635e+02 2.128720e+02 1.189276e+01 0 0 0 0 0 0 0 1.189276e+01 2.128720e+02 8.507635e+02 1.030107e+03 4.046418e+02 2.271935e+01 0 0 0 0 0 0 
0 0 0 0 0 0 0 1.994352e-02 9.776107e+01 6.355585e+02 1.095699e+03 7.857098e+02 2.750265e+02 4.993171e+01 1.655039e+00 0 0 0 1.655039e+00 4.993171e+01 2.750265e+02 7.857098e+02 1.095699e+03 6.355585e+02 9.776107e+01 1.994352e-02 0 0 0 0 0 0 
0 0 0 0 0 0 0 0 7.874947e+00 1.583795e+02 6.473454e+02 1.066026e+03 1.005378e+03 6.345841e+02 3.293184e+02 1.922672e+02 1.516489e+02 1.922672e+02 3.293184e+02 6.345841e+02 1.005378e+03 1.066026e+03 6.473454e+02 1.583795e+02 7.874947e+00 0 0 0 0 0 0 0 
0 0 0 0 0 0 0 0 0 7.347592e+00 1.297793e+02 5.378845e+02 9.777043e+02 1.103297e+03 1.025643e+03 8.824112e+02 8.436189e+02 8.824112e+02 1.025643e+03 1.103297e+03 9.777043e+02 5.378845e+02 1.297793e+02 7.347592e+00 0 0 0 0 0 0 0 0 
0 0 0 0 0 0 0 0 0 0 7.075865e-01 5.530547e+01 2.360318e+02 5.393028e+02 7.592495e+02 8.010163e+02 8.284923e+02 8.010163e+02 7.592495e+02 5.393028e+02 2.360318e+02 5.530547e+01 7.075865e-01 0 0 0 0 0 0 0 0 0 
0 0 0 0 0 0 0 0 0 0 0 0 1.730273e+00 1.908282e+01 6.088213e+01 1.109005e+02 1.365224e+02 1.109005e+02 6.088213e+01 1.908282e+01 1.730273e+00 0 0 0 0 0 0 0 0 0 0 0 
0 0 0 0 0 0 0 0 0 0 0 0 0 0 0 0 0 0 0 0 0 0 0 0 0 0 0 0 0 0 0 0 
0 0 0 0 0 0 0 0 0 0 0 0 0 0 0 0 0 0 0 0 0 0 0 0 0 0 0 0 0 0 0 0 
0 0 0 0 0 0 0 0 0 0 0 0 0 0 0 0 0 0 0 0 0 0 0 0 0 0 0 0 0 0 0 0 
0 0 0 0 0 0 0 0 0 0 0 0 0 0 0 0 0 0 0 0 0 0 0 0 0 0 0 0 0 0 0 0 
0 0 0 0 0 0 0 0 0 0 0 0 0 0 0 0 0 0 0 0 0 0 0 0 0 0 0 0 0 0 0 0 
