# vtk DataFile Version 2.0
Comment goes here
ASCII

DATASET STRUCTURED_POINTS
FIELD FieldData 1
TIME 1 1 double
0.20000000
DIMENSIONS    32   32   1

ORIGIN    0.000   0.000   0.000
SPACING   0.03125 0.03125   1.000

POINT_DATA   1024
SCALARS fMag double
LOOKUP_TABLE default

0 0 0 0 0 0 0 0 0 0 0 0 0 0 0 0 0 0 0 0 0 0 0 0 0 0 0 0 0 0 0 0 
0 0 0 0 0 0 0 0 0 0 0 0 0 0 0 0 0 0 0 0 0 0 0 0 0 0 0 0 0 0 0 0 
0 0 0 0 0 0 0 0 0 0 0 0 0 0 0 0 0 0 0 0 0 0 0 0 0 0 0 0 0 0 0 0 
0 0 0 0 0 0 0 0 0 0 0 0 0 0 0 0 0 0 0 0 0 0 0 0 0 0 0 0 0 0 0 0 
0 0 0 0 0 0 0 0 0 0 0 0 0 0 0 0 0 0 0 0 0 0 0 0 0 0 0 0 0 0 0 0 
0 0 0 0 0 0 0 0 0 0 0 0 2.675994e-03 3.101579e+00 1.654835e+01 3.351816e+01 3.988903e+01 3.351816e+01 1.654835e+01 3.101579e+00 2.675994e-03 0 0 0 0 0 0 0 0 0 0 0 
0 0 0 0 0 0 0 0 0 0 3.316715e-01 3.795698e+01 1.766951e+02 3.995948e+02 5.821974e+02 5.976576e+02 5.469690e+02 5.976576e+02 5.821974e+02 3.995948e+02 1.766951e+02 3.795698e+01 3.316715e-01 0 0 0 0 0 0 0 0 0 
0 0 0 0 0 0 0 0 0 8.923266e+00 1.629788e+02 6.196087e+02 9.820295e+02 1.029715e+03 9.962384e+02 8.428683e+02 7.176641e+02 8.428683e+02 9.962384e+02 1.029715e+03 9.820295e+02 6.196087e+02 1.629788e+02 8.923266e+00 0 0 0 0 0 0 0 0 
0 0 0 0 0 0 0 0 4.572875e+00 2.053768e+02 8.171531e+02 1.346560e+03 1.170807e+03 7.002461e+02 4.353261e+02 2.787328e+02 2.105842e+02 2.787328e+02 4.353261e+02 7.002461e+02 1.170807e+03 1.346560e+03 8.171531e+02 2.053768e+02 4.572875e+00 0 0 0 0 0 0 0 
0 0 0 0 0 0 0 2.898054e-01 1.141283e+02 7.722726e+02 1.368521e+03 1.024362e+03 3.779658e+02 6.676521e+01 4.713478e+00 0 0 0 4.713478e+00 6.676521e+01 3.779658e+02 1.024362e+03 1.368521e+03 7.722726e+02 1.141283e+02 2.898054e-01 0 0 0 0 0 0 
0 0 0 0 0 0 0 2.057578e+01 4.619844e+02 1.203374e+03 1.030930e+03 2.782914e+02 1.303836e+01 0 0 0 0 0 0 0 1.303836e+01 2.782914e+02 1.030930e+03 1.203374e+03 4.619844e+02 2.057578e+01 0 0 0 0 0 0 
0 0 0 0 0 0 0 1.173823e+02 8.507911e+02 1.128618e+03 4.180241e+02 1.917014e+01 0 0 0 0 0 0 0 0 0 1.917014e+01 4.180241e+02 1.128618e+03 8.507911e+02 1.173823e+02 0 0 0 0 0 0 
0 0 0 0 0 0 1.289628e+00 3.043376e+02 9.777953e+02 7.877943e+02 1.132063e+02 0 0 0 0 0 0 0 0 0 0 0 1.132063e+02 7.877943e+02 9.777953e+02 3.043376e+02 1.289628e+00 0 0 0 0 0 
0 0 0 0 0 0 1.522350e+01 5.526112e+02 1.006737e+03 4.828500e+02 1.353668e+01 0 0 0 0 0 0 0 0 0 0 0 1.353668e+01 4.828500e+02 1.006737e+03 5.526112e+02 1.522350e+01 0 0 0 0 0 
0 0 0 0 0 0 5.215186e+01 7.398109e+02 1.013341e+03 3.260193e+02 3.178521e-01 0 0 0 0 0 0 0 0 0 0 0 3.178521e-01 3.260193e+02 1.013341e+03 7.398109e+02 5.215186e+01 0 0 0 0 0 
0 0 0 0 0 0 9.163898e+01 7.998824e+02 9.316964e+02 2.234590e+02 0 0 0 0 0 0 0 0 0 0 0 0 0 2.234590e+02 9.316964e+02 7.998824e+02 9.163898e+01 0 0 0 0 0 
0 0 0 0 0 0 1.067014e+02 8.093315e+02 8.947683e+02 1.921382e+02 0 0 0 0 0 0 0 0 0 0 0 0 0 1.921382e+02 8.947683e+02 8.093315e+02 1.067014e+02 0 0 0 0 0 
0 0 0 0 0 0 9.163898e+01 7.998824e+02 9.316964e+02 2.234590e+02 0 0 0 0 0 0 0 0 0 0 0 0 0 2.234590e+02 9.316964e+02 7.998824e+02 9.163898e+01 0 0 0 0 0 
0 0 0 0 0 0 5.215186e+01 7.398109e+02 1.013341e+03 3.260193e+02 3.178521e-01 0 0 0 0 0 0 0 0 0 0 0 3.178521e-01 3.260193e+02 1.013341e+03 7.398109e+02 5.215186e+01 0 0 0 0 0 
0 0 0 0 0 0 1.522350e+01 5.526112e+02 1.006737e+03 4.828500e+02 1.353668e+01 0 0 0 0 0 0 0 0 0 0 0 1.353668e+01 4.828500e+02 1.006737e+03 5.526112e+02 1.522350e+01 0 0 0 0 0 
0 0 0 0 0 0 1.289628e+00 3.043376e+02 9.777953e+02 7.877943e+02 1.132063e+02 0 0 0 0 0 0 0 0 0 0 0 1.132063e+02 7.877943e+02 9.777953e+02 3.043376e+02 1.289628e+00 0 0 0 0 0 
0 0 0 0 0 0 0 1.173823e+02 8.507911e+02 1.128618e+03 4.180241e+02 1.917014e+01 0 0 0 0 0 0 0 0 0 1.917014e+01 4.180241e+02 1.128618e+03 8.507911e+02 1.173823e+02 0 0 0 0 0 0 
0 0 0 0 0 0 0 2.057578e+01 4.619844e+02 1.203374e+03 1.030930e+03 2.782914e+02 1.303836e+01 0 0 0 0 0 0 0 1.303836e+01 2.782914e+02 1.030930e+03 1.203374e+03 4.619844e+02 2.057578e+01 0 0 0 0 0 0 
0 0 0 0 0 0 0 2.898054e-01 1.141283e+02 7.722726e+02 1.368521e+03 1.024362e+03 3.779658e+02 6.676521e+01 4.713478e+00 0 0 0 4.713478e+00 6.676521e+01 3.779658e+02 1.024362e+03 1.368521e+03 7.722726e+02 1.141283e+02 2.898054e-01 0 0 0 0 0 0 
0 0 0 0 0 0 0 0 4.572875e+00 2.053768e+02 8.171531e+02 1.346560e+03 1.170807e+03 7.002461e+02 4.353261e+02 2.787328e+02 2.105842e+02 2.787328e+02 4.353261e+02 7.002461e+02 1.170807e+03 1.346560e+03 8.171531e+02 2.053768e+02 4.572875e+00 0 0 0 0 0 0 0 
0 0 0 0 0 0 0 0 0 8.923266e+00 1.629788e+02 6.196087e+02 9.820295e+02 1.029715e+03 9.962384e+02 8.428683e+02 7.176641e+02 8.428683e+02 9.962384e+02 1.029715e+03 9.820295e+02 6.196087e+02 1.629788e+02 8.923266e+00 0 0 0 0 0 0 0 0 
0 0 0 0 0 0 0 0 0 0 3.316715e-01 3.795698e+01 1.766951e+02 3.995948e+02 5.821974e+02 5.976576e+02 5.469690e+02 5.976576e+02 5.821974e+02 3.995948e+02 1.766951e+02 3.795698e+01 3.316715e-01 0 0 0 0 0 0 0 0 0 
0 0 0 0 0 0 0 0 0 0 0 0 2.675994e-03 3.101579e+00 1.654835e+01 3.351816e+01 3.988903e+01 3.351816e+01 1.654835e+01 3.101579e+00 2.675994e-03 0 0 0 0 0 0 0 0 0 0 0 
0 0 0 0 0 0 0 0 0 0 0 0 0 0 0 0 0 0 0 0 0 0 0 0 0 0 0 0 0 0 0 0 
0 0 0 0 0 0 0 0 0 0 0 0 0 0 0 0 0 0 0 0 0 0 0 0 0 0 0 0 0 0 0 0 
0 0 0 0 0 0 0 0 0 0 0 0 0 0 0 0 0 0 0 0 0 0 0 0 0 0 0 0 0 0 0 0 
0 0 0 0 0 0 0 0 0 0 0 0 0 0 0 0 0 0 0 0 0 0 0 0 0 0 0 0 0 0 0 0 
