# vtk DataFile Version 2.0
Comment goes here
ASCII

DATASET STRUCTURED_POINTS
FIELD FieldData 1
TIME 1 1 double
0.78000000
DIMENSIONS    32   32   1

ORIGIN    0.000   0.000   0.000
SPACING   0.03125 0.03125   1.000

POINT_DATA   1024
SCALARS fMag double
LOOKUP_TABLE default

0 0 0 0 0 0 0 0 0 0 0 0 0 0 0 0 0 0 0 0 0 0 0 0 0 0 0 0 0 0 0 0 
0 0 0 0 0 0 0 0 0 0 0 0 0 0 0 0 0 0 0 0 0 0 0 0 0 0 0 0 0 0 0 0 
0 0 0 0 0 0 0 0 0 0 0 0 0 0 0 0 0 0 0 0 0 0 0 0 0 0 0 0 0 0 0 0 
0 0 0 0 0 0 0 0 0 0 0 0 0 0 0 0 0 0 0 0 0 0 0 0 0 0 0 0 0 0 0 0 
0 0 0 0 0 0 0 0 0 0 0 0 0 0 0 0 0 0 0 0 0 0 0 0 0 0 0 0 0 0 0 0 
0 0 0 0 0 0 0 0 0 0 0 0 0 0 0 0 0 0 0 0 0 0 0 0 0 0 0 0 0 0 0 0 
0 0 0 0 0 0 0 0 0 0 0 8.468862e-02 1.551290e+01 1.065525e+02 2.676036e+02 4.398963e+02 5.273033e+02 4.398963e+02 2.676036e+02 1.065525e+02 1.551290e+01 8.468862e-02 0 0 0 0 0 0 0 0 0 0 
0 0 0 0 0 0 0 0 0 0 3.409237e+00 7.570156e+01 3.972856e+02 8.400211e+02 1.055809e+03 1.145079e+03 1.210147e+03 1.145079e+03 1.055809e+03 8.400211e+02 3.972856e+02 7.570156e+01 3.409237e+00 0 0 0 0 0 0 0 0 0 
0 0 0 0 0 0 0 0 0 1.441700e+00 1.112558e+02 5.442173e+02 1.074269e+03 1.189937e+03 9.320817e+02 7.359962e+02 6.904508e+02 7.359962e+02 9.320817e+02 1.189937e+03 1.074269e+03 5.442173e+02 1.112558e+02 1.441700e+00 0 0 0 0 0 0 0 0 
0 0 0 0 0 0 0 0 0 7.196902e+01 5.201746e+02 1.060442e+03 9.679886e+02 4.821081e+02 1.448593e+02 3.080301e+01 7.607242e+00 3.080301e+01 1.448593e+02 4.821081e+02 9.679886e+02 1.060442e+03 5.201746e+02 7.196902e+01 0 0 0 0 0 0 0 0 
0 0 0 0 0 0 0 0 1.004624e+01 3.209138e+02 9.246292e+02 8.842887e+02 2.979342e+02 2.726522e+01 4.943166e-01 0 0 0 4.943166e-01 2.726522e+01 2.979342e+02 8.842887e+02 9.246292e+02 3.209138e+02 1.004624e+01 0 0 0 0 0 0 0 
0 0 0 0 0 0 0 2.997218e-02 1.105445e+02 6.634238e+02 9.016880e+02 3.710250e+02 2.366421e+01 1.070747e-03 0 0 0 0 0 1.070747e-03 2.366421e+01 3.710250e+02 9.016880e+02 6.634238e+02 1.105445e+02 2.997218e-02 0 0 0 0 0 0 
0 0 0 0 0 0 0 3.247331e+00 3.230130e+02 8.833052e+02 6.464815e+02 8.383062e+01 5.123483e-03 0 0 0 0 0 0 0 5.123483e-03 8.383062e+01 6.464815e+02 8.833052e+02 3.230130e+02 3.247331e+00 0 0 0 0 0 0 
0 0 0 0 0 0 0 2.672152e+01 5.375846e+02 8.982191e+02 3.966837e+02 9.344290e+00 0 0 0 0 0 0 0 0 0 9.344290e+00 3.966837e+02 8.982191e+02 5.375846e+02 2.672152e+01 0 0 0 0 0 0 
0 0 0 0 0 0 0 6.707214e+01 6.395282e+02 7.839038e+02 2.115183e+02 0 0 0 0 0 0 0 0 0 0 0 2.115183e+02 7.839038e+02 6.395282e+02 6.707214e+01 0 0 0 0 0 0 
0 0 0 0 0 0 0 1.025903e+02 6.501377e+02 6.771412e+02 1.295935e+02 0 0 0 0 0 0 0 0 0 0 0 1.295935e+02 6.771412e+02 6.501377e+02 1.025903e+02 0 0 0 0 0 0 
0 0 0 0 0 0 0 1.175425e+02 6.536343e+02 6.415032e+02 1.054114e+02 0 0 0 0 0 0 0 0 0 0 0 1.054114e+02 6.415032e+02 6.536343e+02 1.175425e+02 0 0 0 0 0 0 
0 0 0 0 0 0 0 1.025903e+02 6.501377e+02 6.771412e+02 1.295935e+02 0 0 0 0 0 0 0 0 0 0 0 1.295935e+02 6.771412e+02 6.501377e+02 1.025903e+02 0 0 0 0 0 0 
0 0 0 0 0 0 0 6.707214e+01 6.395282e+02 7.839038e+02 2.115183e+02 0 0 0 0 0 0 0 0 0 0 0 2.115183e+02 7.839038e+02 6.395282e+02 6.707214e+01 0 0 0 0 0 0 
0 0 0 0 0 0 0 2.672152e+01 5.375846e+02 8.982191e+02 3.966837e+02 9.344290e+00 0 0 0 0 0 0 0 0 0 9.344290e+00 3.966837e+02 8.982191e+02 5.375846e+02 2.672152e+01 0 0 0 0 0 0 
0 0 0 0 0 0 0 3.247331e+00 3.230130e+02 8.833052e+02 6.464815e+02 8.383062e+01 5.123483e-03 0 0 0 0 0 0 0 5.123483e-03 8.383062e+01 6.464815e+02 8.833052e+02 3.230130e+02 3.247331e+00 0 0 0 0 0 0 
0 0 0 0 0 0 0 2.997218e-02 1.105445e+02 6.634238e+02 9.016880e+02 3.710250e+02 2.366421e+01 1.070747e-03 0 0 0 0 0 1.070747e-03 2.366421e+01 3.710250e+02 9.016880e+02 6.634238e+02 1.105445e+02 2.997218e-02 0 0 0 0 0 0 
0 0 0 0 0 0 0 0 1.004624e+01 3.209138e+02 9.246292e+02 8.842887e+02 2.979342e+02 2.726522e+01 4.943166e-01 0 0 0 4.943166e-01 2.726522e+01 2.979342e+02 8.842887e+02 9.246292e+02 3.209138e+02 1.004624e+01 0 0 0 0 0 0 0 
0 0 0 0 0 0 0 0 0 7.196902e+01 5.201746e+02 1.060442e+03 9.679886e+02 4.821081e+02 1.448593e+02 3.080301e+01 7.607242e+00 3.080301e+01 1.448593e+02 4.821081e+02 9.679886e+02 1.060442e+03 5.201746e+02 7.196902e+01 0 0 0 0 0 0 0 0 
0 0 0 0 0 0 0 0 0 1.441700e+00 1.112558e+02 5.442173e+02 1.074269e+03 1.189937e+03 9.320817e+02 7.359962e+02 6.904508e+02 7.359962e+02 9.320817e+02 1.189937e+03 1.074269e+03 5.442173e+02 1.112558e+02 1.441700e+00 0 0 0 0 0 0 0 0 
0 0 0 0 0 0 0 0 0 0 3.409237e+00 7.570156e+01 3.972856e+02 8.400211e+02 1.055809e+03 1.145079e+03 1.210147e+03 1.145079e+03 1.055809e+03 8.400211e+02 3.972856e+02 7.570156e+01 3.409237e+00 0 0 0 0 0 0 0 0 0 
0 0 0 0 0 0 0 0 0 0 0 8.468862e-02 1.551290e+01 1.065525e+02 2.676036e+02 4.398963e+02 5.273033e+02 4.398963e+02 2.676036e+02 1.065525e+02 1.551290e+01 8.468862e-02 0 0 0 0 0 0 0 0 0 0 
0 0 0 0 0 0 0 0 0 0 0 0 0 0 0 0 0 0 0 0 0 0 0 0 0 0 0 0 0 0 0 0 
0 0 0 0 0 0 0 0 0 0 0 0 0 0 0 0 0 0 0 0 0 0 0 0 0 0 0 0 0 0 0 0 
0 0 0 0 0 0 0 0 0 0 0 0 0 0 0 0 0 0 0 0 0 0 0 0 0 0 0 0 0 0 0 0 
0 0 0 0 0 0 0 0 0 0 0 0 0 0 0 0 0 0 0 0 0 0 0 0 0 0 0 0 0 0 0 0 
0 0 0 0 0 0 0 0 0 0 0 0 0 0 0 0 0 0 0 0 0 0 0 0 0 0 0 0 0 0 0 0 
