# vtk DataFile Version 2.0
Comment goes here
ASCII

DATASET STRUCTURED_POINTS
FIELD FieldData 1
TIME 1 1 double
0.94000000
DIMENSIONS    32   32   1

ORIGIN    0.000   0.000   0.000
SPACING   0.03125 0.03125   1.000

POINT_DATA   1024
SCALARS fMag double
LOOKUP_TABLE default

0 0 0 0 0 0 0 0 0 0 0 0 0 0 0 0 0 0 0 0 0 0 0 0 0 0 0 0 0 0 0 0 
0 0 0 0 0 0 0 0 0 0 0 0 0 0 0 0 0 0 0 0 0 0 0 0 0 0 0 0 0 0 0 0 
0 0 0 0 0 0 0 0 0 0 0 0 0 0 0 0 0 0 0 0 0 0 0 0 0 0 0 0 0 0 0 0 
0 0 0 0 0 0 0 0 0 0 0 0 0 0 0 0 0 0 0 0 0 0 0 0 0 0 0 0 0 0 0 0 
0 0 0 0 0 0 0 0 0 0 0 0 0 0 0 0 0 0 0 0 0 0 0 0 0 0 0 0 0 0 0 0 
0 0 0 0 0 0 0 0 0 0 0 0 0 0 0 0 0 0 0 0 0 0 0 0 0 0 0 0 0 0 0 0 
0 0 0 0 0 0 0 0 0 0 0 0 8.020202e-01 2.193884e+01 1.130035e+02 2.239176e+02 2.616623e+02 2.239176e+02 1.130035e+02 2.193884e+01 8.020202e-01 0 0 0 0 0 0 0 0 0 0 0 
0 0 0 0 0 0 0 0 0 0 1.123693e-01 1.758363e+01 1.883628e+02 5.428371e+02 8.699687e+02 1.041248e+03 1.070387e+03 1.041248e+03 8.699687e+02 5.428371e+02 1.883628e+02 1.758363e+01 1.123693e-01 0 0 0 0 0 0 0 0 0 
0 0 0 0 0 0 0 0 0 0 3.311973e+01 3.035899e+02 8.225427e+02 1.156176e+03 1.106491e+03 9.534214e+02 9.080836e+02 9.534214e+02 1.106491e+03 1.156176e+03 8.225427e+02 3.035899e+02 3.311973e+01 0 0 0 0 0 0 0 0 0 
0 0 0 0 0 0 0 0 0 1.828724e+01 2.701285e+02 8.489518e+02 1.075938e+03 7.321758e+02 3.524044e+02 1.364866e+02 9.935930e+01 1.364866e+02 3.524044e+02 7.321758e+02 1.075938e+03 8.489518e+02 2.701285e+02 1.828724e+01 0 0 0 0 0 0 0 0 
0 0 0 0 0 0 0 0 1.258059e+00 1.668434e+02 7.376523e+02 9.959472e+02 5.245195e+02 9.833340e+01 4.797253e+00 1.314233e-03 0 1.314233e-03 4.797253e+00 9.833340e+01 5.245195e+02 9.959472e+02 7.376523e+02 1.668434e+02 1.258059e+00 0 0 0 0 0 0 0 
0 0 0 0 0 0 0 0 2.955487e+01 4.375215e+02 9.418726e+02 6.233166e+02 9.342386e+01 1.533323e+00 0 0 0 0 0 1.533323e+00 9.342386e+01 6.233166e+02 9.418726e+02 4.375215e+02 2.955487e+01 0 0 0 0 0 0 0 
0 0 0 0 0 0 0 0 1.313376e+02 6.815744e+02 7.802665e+02 2.272635e+02 4.483456e+00 0 0 0 0 0 0 0 4.483456e+00 2.272635e+02 7.802665e+02 6.815744e+02 1.313376e+02 0 0 0 0 0 0 0 
0 0 0 0 0 0 0 7.970388e-01 2.694954e+02 7.898757e+02 5.708866e+02 5.446619e+01 0 0 0 0 0 0 0 0 0 5.446619e+01 5.708866e+02 7.898757e+02 2.694954e+02 7.970388e-01 0 0 0 0 0 0 
0 0 0 0 0 0 0 6.239185e+00 3.918424e+02 7.630647e+02 3.859131e+02 1.009004e+01 0 0 0 0 0 0 0 0 0 1.009004e+01 3.859131e+02 7.630647e+02 3.918424e+02 6.239185e+00 0 0 0 0 0 0 
0 0 0 0 0 0 0 1.630687e+01 4.914031e+02 7.578191e+02 2.829705e+02 2.182726e-01 0 0 0 0 0 0 0 0 0 2.182726e-01 2.829705e+02 7.578191e+02 4.914031e+02 1.630687e+01 0 0 0 0 0 0 
0 0 0 0 0 0 0 2.144718e+01 4.955822e+02 7.236641e+02 2.495291e+02 0 0 0 0 0 0 0 0 0 0 0 2.495291e+02 7.236641e+02 4.955822e+02 2.144718e+01 0 0 0 0 0 0 
0 0 0 0 0 0 0 1.630687e+01 4.914031e+02 7.578191e+02 2.829705e+02 2.182726e-01 0 0 0 0 0 0 0 0 0 2.182726e-01 2.829705e+02 7.578191e+02 4.914031e+02 1.630687e+01 0 0 0 0 0 0 
0 0 0 0 0 0 0 6.239185e+00 3.918424e+02 7.630647e+02 3.859131e+02 1.009004e+01 0 0 0 0 0 0 0 0 0 1.009004e+01 3.859131e+02 7.630647e+02 3.918424e+02 6.239185e+00 0 0 0 0 0 0 
0 0 0 0 0 0 0 7.970388e-01 2.694954e+02 7.898757e+02 5.708866e+02 5.446619e+01 0 0 0 0 0 0 0 0 0 5.446619e+01 5.708866e+02 7.898757e+02 2.694954e+02 7.970388e-01 0 0 0 0 0 0 
0 0 0 0 0 0 0 0 1.313376e+02 6.815744e+02 7.802665e+02 2.272635e+02 4.483456e+00 0 0 0 0 0 0 0 4.483456e+00 2.272635e+02 7.802665e+02 6.815744e+02 1.313376e+02 0 0 0 0 0 0 0 
0 0 0 0 0 0 0 0 2.955487e+01 4.375215e+02 9.418726e+02 6.233166e+02 9.342386e+01 1.533323e+00 0 0 0 0 0 1.533323e+00 9.342386e+01 6.233166e+02 9.418726e+02 4.375215e+02 2.955487e+01 0 0 0 0 0 0 0 
0 0 0 0 0 0 0 0 1.258059e+00 1.668434e+02 7.376523e+02 9.959472e+02 5.245195e+02 9.833340e+01 4.797253e+00 1.314233e-03 0 1.314233e-03 4.797253e+00 9.833340e+01 5.245195e+02 9.959472e+02 7.376523e+02 1.668434e+02 1.258059e+00 0 0 0 0 0 0 0 
0 0 0 0 0 0 0 0 0 1.828724e+01 2.701285e+02 8.489518e+02 1.075938e+03 7.321758e+02 3.524044e+02 1.364866e+02 9.935930e+01 1.364866e+02 3.524044e+02 7.321758e+02 1.075938e+03 8.489518e+02 2.701285e+02 1.828724e+01 0 0 0 0 0 0 0 0 
0 0 0 0 0 0 0 0 0 0 3.311973e+01 3.035899e+02 8.225427e+02 1.156176e+03 1.106491e+03 9.534214e+02 9.080836e+02 9.534214e+02 1.106491e+03 1.156176e+03 8.225427e+02 3.035899e+02 3.311973e+01 0 0 0 0 0 0 0 0 0 
0 0 0 0 0 0 0 0 0 0 1.123693e-01 1.758363e+01 1.883628e+02 5.428371e+02 8.699687e+02 1.041248e+03 1.070387e+03 1.041248e+03 8.699687e+02 5.428371e+02 1.883628e+02 1.758363e+01 1.123693e-01 0 0 0 0 0 0 0 0 0 
0 0 0 0 0 0 0 0 0 0 0 0 8.020202e-01 2.193884e+01 1.130035e+02 2.239176e+02 2.616623e+02 2.239176e+02 1.130035e+02 2.193884e+01 8.020202e-01 0 0 0 0 0 0 0 0 0 0 0 
0 0 0 0 0 0 0 0 0 0 0 0 0 0 0 0 0 0 0 0 0 0 0 0 0 0 0 0 0 0 0 0 
0 0 0 0 0 0 0 0 0 0 0 0 0 0 0 0 0 0 0 0 0 0 0 0 0 0 0 0 0 0 0 0 
0 0 0 0 0 0 0 0 0 0 0 0 0 0 0 0 0 0 0 0 0 0 0 0 0 0 0 0 0 0 0 0 
0 0 0 0 0 0 0 0 0 0 0 0 0 0 0 0 0 0 0 0 0 0 0 0 0 0 0 0 0 0 0 0 
0 0 0 0 0 0 0 0 0 0 0 0 0 0 0 0 0 0 0 0 0 0 0 0 0 0 0 0 0 0 0 0 
