# vtk DataFile Version 2.0
Comment goes here
ASCII

DATASET STRUCTURED_POINTS
FIELD FieldData 1
TIME 1 1 double
1.30000000
DIMENSIONS    32   32   1

ORIGIN    0.000   0.000   0.000
SPACING   0.03125 0.03125   1.000

POINT_DATA   1024
SCALARS fMag double
LOOKUP_TABLE default

0 0 0 0 0 0 0 0 0 0 0 0 0 0 0 0 0 0 0 0 0 0 0 0 0 0 0 0 0 0 0 0 
0 0 0 0 0 0 0 0 0 0 0 0 0 0 0 0 0 0 0 0 0 0 0 0 0 0 0 0 0 0 0 0 
0 0 0 0 0 0 0 0 0 0 0 0 0 0 0 0 0 0 0 0 0 0 0 0 0 0 0 0 0 0 0 0 
0 0 0 0 0 0 0 0 0 0 0 0 0 0 0 0 0 0 0 0 0 0 0 0 0 0 0 0 0 0 0 0 
0 0 0 0 0 0 0 0 0 0 0 0 0 0 0 0 0 0 0 0 0 0 0 0 0 0 0 0 0 0 0 0 
0 0 0 0 0 0 0 0 0 0 0 0 0 0 0 0 0 0 0 0 0 0 0 0 0 0 0 0 0 0 0 0 
0 0 0 0 0 0 0 0 0 0 0 0 0 0 0 0 0 0 0 0 0 0 0 0 0 0 0 0 0 0 0 0 
0 0 0 0 0 0 0 0 0 0 0 0 0 0 0 0 0 0 0 0 0 0 0 0 0 0 0 0 0 0 0 0 
0 0 0 0 0 0 0 0 0 0 0 3.340172e+00 4.110941e+01 1.068312e+02 2.385136e+02 3.463226e+02 3.570769e+02 3.463226e+02 2.385136e+02 1.068312e+02 4.110941e+01 3.340172e+00 0 0 0 0 0 0 0 0 0 0 
0 0 0 0 0 0 0 0 0 6.830525e-03 1.195492e+01 1.413480e+02 4.172924e+02 6.594264e+02 7.852189e+02 8.233026e+02 8.182311e+02 8.233026e+02 7.852189e+02 6.594264e+02 4.172924e+02 1.413480e+02 1.195492e+01 6.830525e-03 0 0 0 0 0 0 0 0 
0 0 0 0 0 0 0 0 0 2.464713e+01 2.453520e+02 6.421381e+02 8.728770e+02 7.834227e+02 6.100939e+02 4.880723e+02 4.657671e+02 4.880723e+02 6.100939e+02 7.834227e+02 8.728770e+02 6.421381e+02 2.453520e+02 2.464713e+01 0 0 0 0 0 0 0 0 
0 0 0 0 0 0 0 0 1.440883e+01 2.373385e+02 7.392989e+02 9.067898e+02 5.740763e+02 2.344149e+02 6.282524e+01 1.799391e+01 4.612810e+00 1.799391e+01 6.282524e+01 2.344149e+02 5.740763e+02 9.067898e+02 7.392989e+02 2.373385e+02 1.440883e+01 0 0 0 0 0 0 0 
0 0 0 0 0 0 0 3.513323e-01 1.152825e+02 6.633183e+02 9.686650e+02 5.106316e+02 9.947910e+01 3.971459e+00 0 0 0 0 0 3.971459e+00 9.947910e+01 5.106316e+02 9.686650e+02 6.633183e+02 1.152825e+02 3.513323e-01 0 0 0 0 0 0 
0 0 0 0 0 0 0 7.859409e+00 3.692147e+02 9.625151e+02 7.128218e+02 1.196805e+02 2.414703e+00 0 0 0 0 0 0 0 2.414703e+00 1.196805e+02 7.128218e+02 9.625151e+02 3.692147e+02 7.859409e+00 0 0 0 0 0 0 
0 0 0 0 0 0 0 4.976421e+01 6.254233e+02 9.511077e+02 3.755940e+02 1.246033e+01 0 0 0 0 0 0 0 0 0 1.246033e+01 3.755940e+02 9.511077e+02 6.254233e+02 4.976421e+01 0 0 0 0 0 0 
0 0 0 0 0 0 0 1.079606e+02 7.697974e+02 8.491554e+02 1.895915e+02 5.711544e-02 0 0 0 0 0 0 0 0 0 5.711544e-02 1.895915e+02 8.491554e+02 7.697974e+02 1.079606e+02 0 0 0 0 0 0 
0 0 0 0 0 0 0 1.223222e+02 7.971508e+02 8.358707e+02 1.610420e+02 0 0 0 0 0 0 0 0 0 0 0 1.610420e+02 8.358707e+02 7.971508e+02 1.223222e+02 0 0 0 0 0 0 
0 0 0 0 0 0 0 1.079606e+02 7.697974e+02 8.491554e+02 1.895915e+02 5.711544e-02 0 0 0 0 0 0 0 0 0 5.711544e-02 1.895915e+02 8.491554e+02 7.697974e+02 1.079606e+02 0 0 0 0 0 0 
0 0 0 0 0 0 0 4.976421e+01 6.254233e+02 9.511077e+02 3.755940e+02 1.246033e+01 0 0 0 0 0 0 0 0 0 1.246033e+01 3.755940e+02 9.511077e+02 6.254233e+02 4.976421e+01 0 0 0 0 0 0 
0 0 0 0 0 0 0 7.859409e+00 3.692147e+02 9.625151e+02 7.128218e+02 1.196805e+02 2.414703e+00 0 0 0 0 0 0 0 2.414703e+00 1.196805e+02 7.128218e+02 9.625151e+02 3.692147e+02 7.859409e+00 0 0 0 0 0 0 
0 0 0 0 0 0 0 3.513323e-01 1.152825e+02 6.633183e+02 9.686650e+02 5.106316e+02 9.947910e+01 3.971459e+00 0 0 0 0 0 3.971459e+00 9.947910e+01 5.106316e+02 9.686650e+02 6.633183e+02 1.152825e+02 3.513323e-01 0 0 0 0 0 0 
0 0 0 0 0 0 0 0 1.440883e+01 2.373385e+02 7.392989e+02 9.067898e+02 5.740763e+02 2.344149e+02 6.282524e+01 1.799391e+01 4.612810e+00 1.799391e+01 6.282524e+01 2.344149e+02 5.740763e+02 9.067898e+02 7.392989e+02 2.373385e+02 1.440883e+01 0 0 0 0 0 0 0 
0 0 0 0 0 0 0 0 0 2.464713e+01 2.453520e+02 6.421381e+02 8.728770e+02 7.834227e+02 6.100939e+02 4.880723e+02 4.657671e+02 4.880723e+02 6.100939e+02 7.834227e+02 8.728770e+02 6.421381e+02 2.453520e+02 2.464713e+01 0 0 0 0 0 0 0 0 
0 0 0 0 0 0 0 0 0 6.830525e-03 1.195492e+01 1.413480e+02 4.172924e+02 6.594264e+02 7.852189e+02 8.233026e+02 8.182311e+02 8.233026e+02 7.852189e+02 6.594264e+02 4.172924e+02 1.413480e+02 1.195492e+01 6.830525e-03 0 0 0 0 0 0 0 0 
0 0 0 0 0 0 0 0 0 0 0 3.340172e+00 4.110941e+01 1.068312e+02 2.385136e+02 3.463226e+02 3.570769e+02 3.463226e+02 2.385136e+02 1.068312e+02 4.110941e+01 3.340172e+00 0 0 0 0 0 0 0 0 0 0 
0 0 0 0 0 0 0 0 0 0 0 0 0 0 0 0 0 0 0 0 0 0 0 0 0 0 0 0 0 0 0 0 
0 0 0 0 0 0 0 0 0 0 0 0 0 0 0 0 0 0 0 0 0 0 0 0 0 0 0 0 0 0 0 0 
0 0 0 0 0 0 0 0 0 0 0 0 0 0 0 0 0 0 0 0 0 0 0 0 0 0 0 0 0 0 0 0 
0 0 0 0 0 0 0 0 0 0 0 0 0 0 0 0 0 0 0 0 0 0 0 0 0 0 0 0 0 0 0 0 
0 0 0 0 0 0 0 0 0 0 0 0 0 0 0 0 0 0 0 0 0 0 0 0 0 0 0 0 0 0 0 0 
0 0 0 0 0 0 0 0 0 0 0 0 0 0 0 0 0 0 0 0 0 0 0 0 0 0 0 0 0 0 0 0 
0 0 0 0 0 0 0 0 0 0 0 0 0 0 0 0 0 0 0 0 0 0 0 0 0 0 0 0 0 0 0 0 
