# vtk DataFile Version 2.0
Comment goes here
ASCII

DATASET STRUCTURED_POINTS
FIELD FieldData 1
TIME 1 1 double
0.44000000
DIMENSIONS    32   32   1

ORIGIN    0.000   0.000   0.000
SPACING   0.03125 0.03125   1.000

POINT_DATA   1024
SCALARS fMag double
LOOKUP_TABLE default

0 0 0 0 0 0 0 0 0 0 0 0 0 0 0 0 0 0 0 0 0 0 0 0 0 0 0 0 0 0 0 0 
0 0 0 0 0 0 0 0 0 0 0 0 0 0 0 0 0 0 0 0 0 0 0 0 0 0 0 0 0 0 0 0 
0 0 0 0 0 0 0 0 0 0 0 0 0 0 0 0 0 0 0 0 0 0 0 0 0 0 0 0 0 0 0 0 
0 0 0 0 0 0 0 0 0 0 0 0 0 0 0 0 0 0 0 0 0 0 0 0 0 0 0 0 0 0 0 0 
0 0 0 0 0 0 0 0 0 0 0 0 0 0 0 0 0 0 0 0 0 0 0 0 0 0 0 0 0 0 0 0 
0 0 0 0 0 0 0 0 0 0 0 0 0 0 0 0 0 0 0 0 0 0 0 0 0 0 0 0 0 0 0 0 
0 0 0 0 0 0 0 0 0 0 0 0 0 1.430021e+00 9.222781e+00 2.211109e+01 2.848711e+01 2.211109e+01 9.222781e+00 1.430021e+00 0 0 0 0 0 0 0 0 0 0 0 0 
0 0 0 0 0 0 0 0 0 9.296464e-04 2.866950e+00 4.943688e+01 1.694676e+02 3.390835e+02 4.892471e+02 5.461290e+02 5.403575e+02 5.461290e+02 4.892471e+02 3.390835e+02 1.694676e+02 4.943688e+01 2.866950e+00 9.296464e-04 0 0 0 0 0 0 0 0 
0 0 0 0 0 0 0 0 4.704993e-01 3.505132e+01 2.310129e+02 5.910832e+02 8.294951e+02 8.902743e+02 8.884024e+02 8.183389e+02 7.598178e+02 8.183389e+02 8.884024e+02 8.902743e+02 8.294951e+02 5.910832e+02 2.310129e+02 3.505132e+01 4.704993e-01 0 0 0 0 0 0 0 
0 0 0 0 0 0 0 2.541380e-01 8.106989e+01 4.532401e+02 9.394095e+02 1.069420e+03 8.545289e+02 5.960994e+02 4.126186e+02 2.944023e+02 2.479474e+02 2.944023e+02 4.126186e+02 5.960994e+02 8.545289e+02 1.069420e+03 9.394095e+02 4.532401e+02 8.106989e+01 2.541380e-01 0 0 0 0 0 0 
0 0 0 0 0 0 5.142191e-02 4.295663e+01 4.878311e+02 1.120955e+03 1.114734e+03 5.954144e+02 1.967382e+02 4.345534e+01 4.068427e+00 7.681744e-02 0 7.681744e-02 4.068427e+00 4.345534e+01 1.967382e+02 5.954144e+02 1.114734e+03 1.120955e+03 4.878311e+02 4.295663e+01 5.142191e-02 0 0 0 0 0 
0 0 0 0 0 0 9.151474e+00 3.223626e+02 1.054279e+03 1.139547e+03 4.637859e+02 6.678827e+01 1.818431e+00 0 0 0 0 0 0 0 1.818431e+00 6.678827e+01 4.637859e+02 1.139547e+03 1.054279e+03 3.223626e+02 9.151474e+00 0 0 0 0 0 
0 0 0 0 0 0 9.854658e+01 8.094795e+02 1.227680e+03 5.797057e+02 6.067443e+01 0 0 0 0 0 0 0 0 0 0 0 6.067443e+01 5.797057e+02 1.227680e+03 8.094795e+02 9.854658e+01 0 0 0 0 0 
0 0 0 0 0 0 3.100029e+02 1.166279e+03 1.030235e+03 1.752354e+02 5.389610e-01 0 0 0 0 0 0 0 0 0 0 0 5.389610e-01 1.752354e+02 1.030235e+03 1.166279e+03 3.100029e+02 0 0 0 0 0 
0 0 0 0 0 1.662053e+00 5.182748e+02 1.209889e+03 7.261596e+02 3.272284e+01 0 0 0 0 0 0 0 0 0 0 0 0 0 3.272284e+01 7.261596e+02 1.209889e+03 5.182748e+02 1.662053e+00 0 0 0 0 
0 0 0 0 0 9.172408e+00 6.124182e+02 1.082892e+03 4.814741e+02 1.874297e+00 0 0 0 0 0 0 0 0 0 0 0 0 0 1.874297e+00 4.814741e+02 1.082892e+03 6.124182e+02 9.172408e+00 0 0 0 0 
0 0 0 0 0 1.500831e+01 6.215547e+02 9.928412e+02 3.862948e+02 4.055496e-07 0 0 0 0 0 0 0 0 0 0 0 0 0 4.055496e-07 3.862948e+02 9.928412e+02 6.215547e+02 1.500831e+01 0 0 0 0 
0 0 0 0 0 9.172408e+00 6.124182e+02 1.082892e+03 4.814741e+02 1.874297e+00 0 0 0 0 0 0 0 0 0 0 0 0 0 1.874297e+00 4.814741e+02 1.082892e+03 6.124182e+02 9.172408e+00 0 0 0 0 
0 0 0 0 0 1.662053e+00 5.182748e+02 1.209889e+03 7.261596e+02 3.272284e+01 0 0 0 0 0 0 0 0 0 0 0 0 0 3.272284e+01 7.261596e+02 1.209889e+03 5.182748e+02 1.662053e+00 0 0 0 0 
0 0 0 0 0 0 3.100029e+02 1.166279e+03 1.030235e+03 1.752354e+02 5.389610e-01 0 0 0 0 0 0 0 0 0 0 0 5.389610e-01 1.752354e+02 1.030235e+03 1.166279e+03 3.100029e+02 0 0 0 0 0 
0 0 0 0 0 0 9.854658e+01 8.094795e+02 1.227680e+03 5.797057e+02 6.067443e+01 0 0 0 0 0 0 0 0 0 0 0 6.067443e+01 5.797057e+02 1.227680e+03 8.094795e+02 9.854658e+01 0 0 0 0 0 
0 0 0 0 0 0 9.151474e+00 3.223626e+02 1.054279e+03 1.139547e+03 4.637859e+02 6.678827e+01 1.818431e+00 0 0 0 0 0 0 0 1.818431e+00 6.678827e+01 4.637859e+02 1.139547e+03 1.054279e+03 3.223626e+02 9.151474e+00 0 0 0 0 0 
0 0 0 0 0 0 5.142191e-02 4.295663e+01 4.878311e+02 1.120955e+03 1.114734e+03 5.954144e+02 1.967382e+02 4.345534e+01 4.068427e+00 7.681744e-02 0 7.681744e-02 4.068427e+00 4.345534e+01 1.967382e+02 5.954144e+02 1.114734e+03 1.120955e+03 4.878311e+02 4.295663e+01 5.142191e-02 0 0 0 0 0 
0 0 0 0 0 0 0 2.541380e-01 8.106989e+01 4.532401e+02 9.394095e+02 1.069420e+03 8.545289e+02 5.960994e+02 4.126186e+02 2.944023e+02 2.479474e+02 2.944023e+02 4.126186e+02 5.960994e+02 8.545289e+02 1.069420e+03 9.394095e+02 4.532401e+02 8.106989e+01 2.541380e-01 0 0 0 0 0 0 
0 0 0 0 0 0 0 0 4.704993e-01 3.505132e+01 2.310129e+02 5.910832e+02 8.294951e+02 8.902743e+02 8.884024e+02 8.183389e+02 7.598178e+02 8.183389e+02 8.884024e+02 8.902743e+02 8.294951e+02 5.910832e+02 2.310129e+02 3.505132e+01 4.704993e-01 0 0 0 0 0 0 0 
0 0 0 0 0 0 0 0 0 9.296464e-04 2.866950e+00 4.943688e+01 1.694676e+02 3.390835e+02 4.892471e+02 5.461290e+02 5.403575e+02 5.461290e+02 4.892471e+02 3.390835e+02 1.694676e+02 4.943688e+01 2.866950e+00 9.296464e-04 0 0 0 0 0 0 0 0 
0 0 0 0 0 0 0 0 0 0 0 0 0 1.430021e+00 9.222781e+00 2.211109e+01 2.848711e+01 2.211109e+01 9.222781e+00 1.430021e+00 0 0 0 0 0 0 0 0 0 0 0 0 
0 0 0 0 0 0 0 0 0 0 0 0 0 0 0 0 0 0 0 0 0 0 0 0 0 0 0 0 0 0 0 0 
0 0 0 0 0 0 0 0 0 0 0 0 0 0 0 0 0 0 0 0 0 0 0 0 0 0 0 0 0 0 0 0 
0 0 0 0 0 0 0 0 0 0 0 0 0 0 0 0 0 0 0 0 0 0 0 0 0 0 0 0 0 0 0 0 
0 0 0 0 0 0 0 0 0 0 0 0 0 0 0 0 0 0 0 0 0 0 0 0 0 0 0 0 0 0 0 0 
0 0 0 0 0 0 0 0 0 0 0 0 0 0 0 0 0 0 0 0 0 0 0 0 0 0 0 0 0 0 0 0 
