# vtk DataFile Version 2.0
Comment goes here
ASCII

DATASET STRUCTURED_POINTS
FIELD FieldData 1
TIME 1 1 double
0.08000000
DIMENSIONS    32   32   1

ORIGIN    0.000   0.000   0.000
SPACING   0.03125 0.03125   1.000

POINT_DATA   1024
SCALARS fMag double
LOOKUP_TABLE default

0 0 0 0 0 0 0 0 0 0 0 0 0 0 0 0 0 0 0 0 0 0 0 0 0 0 0 0 0 0 0 0 
0 0 0 0 0 0 0 0 0 0 0 0 0 0 0 0 0 0 0 0 0 0 0 0 0 0 0 0 0 0 0 0 
0 0 0 0 0 0 0 0 0 0 0 0 0 0 0 0 0 0 0 0 0 0 0 0 0 0 0 0 0 0 0 0 
0 0 0 0 0 0 0 0 0 0 0 0 0 0 0 0 0 0 0 0 0 0 0 0 0 0 0 0 0 0 0 0 
0 0 0 0 0 0 0 0 0 0 0 0 0 0 0 0 0 0 0 0 0 0 0 0 0 0 0 0 0 0 0 0 
0 0 0 0 0 0 0 0 0 0 0 0 0 0 0 0 0 0 0 0 0 0 0 0 0 0 0 0 0 0 0 0 
0 0 0 0 0 0 0 0 0 0 0 0 0 0 0 0 0 0 0 0 0 0 0 0 0 0 0 0 0 0 0 0 
0 0 0 0 0 0 0 0 0 0 0 0 0 0 0 0 0 0 0 0 0 0 0 0 0 0 0 0 0 0 0 0 
0 0 0 0 0 0 0 0 0 0 2.700323e-03 3.053119e+00 1.220369e+01 2.400557e+01 3.739566e+01 3.986189e+01 3.384317e+01 3.986189e+01 3.739566e+01 2.400557e+01 1.220369e+01 3.053119e+00 2.700323e-03 0 0 0 0 0 0 0 0 0 
0 0 0 0 0 0 0 3.893116e+00 3.478791e+01 1.181885e+02 2.511819e+02 3.566895e+02 3.758145e+02 3.494258e+02 3.643109e+02 3.394158e+02 2.704520e+02 3.394158e+02 3.643109e+02 3.494258e+02 3.758145e+02 3.566895e+02 2.511819e+02 1.181885e+02 3.478791e+01 3.893116e+00 0 0 0 0 0 0 
0 0 0 0 0 8.587067e+00 1.005117e+02 3.313811e+02 5.572781e+02 6.761786e+02 7.485387e+02 7.372161e+02 6.028234e+02 4.697135e+02 4.372351e+02 3.899860e+02 3.041655e+02 3.899860e+02 4.372351e+02 4.697135e+02 6.028234e+02 7.372161e+02 7.485387e+02 6.761786e+02 5.572781e+02 3.313811e+02 1.005117e+02 8.587067e+00 0 0 0 0 
0 0 0 9.570932e-02 2.759557e+01 2.831825e+02 8.264664e+02 1.165996e+03 1.014407e+03 7.270095e+02 5.439384e+02 3.908343e+02 2.394487e+02 1.442652e+02 1.103354e+02 9.043208e+01 6.755667e+01 9.043208e+01 1.103354e+02 1.442652e+02 2.394487e+02 3.908343e+02 5.439384e+02 7.270095e+02 1.014407e+03 1.165996e+03 8.264664e+02 2.831825e+02 2.759557e+01 9.570932e-02 0 0 
0 0 0 3.224980e+01 4.821213e+02 1.261171e+03 1.507365e+03 1.085917e+03 5.252647e+02 1.696026e+02 4.655592e+01 7.251234e+00 2.272433e-02 0 0 0 0 0 0 0 2.272433e-02 7.251234e+00 4.655592e+01 1.696026e+02 5.252647e+02 1.085917e+03 1.507365e+03 1.261171e+03 4.821213e+02 3.224980e+01 0 0 
0 0 2.310215e+00 3.296577e+02 1.486917e+03 1.918579e+03 9.843101e+02 2.515162e+02 3.036760e+01 8.290172e-01 0 0 0 0 0 0 0 0 0 0 0 0 0 8.290172e-01 3.036760e+01 2.515162e+02 9.843101e+02 1.918579e+03 1.486917e+03 3.296577e+02 2.310215e+00 0 
0 0 3.311875e+01 9.580608e+02 2.104406e+03 1.388433e+03 2.145926e+02 6.593922e+00 0 0 0 0 0 0 0 0 0 0 0 0 0 0 0 0 0 6.593922e+00 2.145926e+02 1.388433e+03 2.104406e+03 9.580608e+02 3.311875e+01 0 
0 0 1.199665e+02 1.447056e+03 1.997064e+03 6.813400e+02 1.086855e+01 0 0 0 0 0 0 0 0 0 0 0 0 0 0 0 0 0 0 0 1.086855e+01 6.813400e+02 1.997064e+03 1.447056e+03 1.199665e+02 0 
0 0 1.782070e+02 1.571607e+03 1.845205e+03 4.518048e+02 0 0 0 0 0 0 0 0 0 0 0 0 0 0 0 0 0 0 0 0 0 4.518048e+02 1.845205e+03 1.571607e+03 1.782070e+02 0 
0 0 1.199665e+02 1.447056e+03 1.997064e+03 6.813400e+02 1.086855e+01 0 0 0 0 0 0 0 0 0 0 0 0 0 0 0 0 0 0 0 1.086855e+01 6.813400e+02 1.997064e+03 1.447056e+03 1.199665e+02 0 
0 0 3.311875e+01 9.580608e+02 2.104406e+03 1.388433e+03 2.145926e+02 6.593922e+00 0 0 0 0 0 0 0 0 0 0 0 0 0 0 0 0 0 6.593922e+00 2.145926e+02 1.388433e+03 2.104406e+03 9.580608e+02 3.311875e+01 0 
0 0 2.310215e+00 3.296577e+02 1.486917e+03 1.918579e+03 9.843101e+02 2.515162e+02 3.036760e+01 8.290172e-01 0 0 0 0 0 0 0 0 0 0 0 0 0 8.290172e-01 3.036760e+01 2.515162e+02 9.843101e+02 1.918579e+03 1.486917e+03 3.296577e+02 2.310215e+00 0 
0 0 0 3.224980e+01 4.821213e+02 1.261171e+03 1.507365e+03 1.085917e+03 5.252647e+02 1.696026e+02 4.655592e+01 7.251234e+00 2.272433e-02 0 0 0 0 0 0 0 2.272433e-02 7.251234e+00 4.655592e+01 1.696026e+02 5.252647e+02 1.085917e+03 1.507365e+03 1.261171e+03 4.821213e+02 3.224980e+01 0 0 
0 0 0 9.570932e-02 2.759557e+01 2.831825e+02 8.264664e+02 1.165996e+03 1.014407e+03 7.270095e+02 5.439384e+02 3.908343e+02 2.394487e+02 1.442652e+02 1.103354e+02 9.043208e+01 6.755667e+01 9.043208e+01 1.103354e+02 1.442652e+02 2.394487e+02 3.908343e+02 5.439384e+02 7.270095e+02 1.014407e+03 1.165996e+03 8.264664e+02 2.831825e+02 2.759557e+01 9.570932e-02 0 0 
0 0 0 0 0 8.587067e+00 1.005117e+02 3.313811e+02 5.572781e+02 6.761786e+02 7.485387e+02 7.372161e+02 6.028234e+02 4.697135e+02 4.372351e+02 3.899860e+02 3.041655e+02 3.899860e+02 4.372351e+02 4.697135e+02 6.028234e+02 7.372161e+02 7.485387e+02 6.761786e+02 5.572781e+02 3.313811e+02 1.005117e+02 8.587067e+00 0 0 0 0 
0 0 0 0 0 0 0 3.893116e+00 3.478791e+01 1.181885e+02 2.511819e+02 3.566895e+02 3.758145e+02 3.494258e+02 3.643109e+02 3.394158e+02 2.704520e+02 3.394158e+02 3.643109e+02 3.494258e+02 3.758145e+02 3.566895e+02 2.511819e+02 1.181885e+02 3.478791e+01 3.893116e+00 0 0 0 0 0 0 
0 0 0 0 0 0 0 0 0 0 2.700323e-03 3.053119e+00 1.220369e+01 2.400557e+01 3.739566e+01 3.986189e+01 3.384317e+01 3.986189e+01 3.739566e+01 2.400557e+01 1.220369e+01 3.053119e+00 2.700323e-03 0 0 0 0 0 0 0 0 0 
0 0 0 0 0 0 0 0 0 0 0 0 0 0 0 0 0 0 0 0 0 0 0 0 0 0 0 0 0 0 0 0 
0 0 0 0 0 0 0 0 0 0 0 0 0 0 0 0 0 0 0 0 0 0 0 0 0 0 0 0 0 0 0 0 
0 0 0 0 0 0 0 0 0 0 0 0 0 0 0 0 0 0 0 0 0 0 0 0 0 0 0 0 0 0 0 0 
0 0 0 0 0 0 0 0 0 0 0 0 0 0 0 0 0 0 0 0 0 0 0 0 0 0 0 0 0 0 0 0 
0 0 0 0 0 0 0 0 0 0 0 0 0 0 0 0 0 0 0 0 0 0 0 0 0 0 0 0 0 0 0 0 
0 0 0 0 0 0 0 0 0 0 0 0 0 0 0 0 0 0 0 0 0 0 0 0 0 0 0 0 0 0 0 0 
0 0 0 0 0 0 0 0 0 0 0 0 0 0 0 0 0 0 0 0 0 0 0 0 0 0 0 0 0 0 0 0 
