# vtk DataFile Version 2.0
Comment goes here
ASCII

DATASET STRUCTURED_POINTS
FIELD FieldData 1
TIME 1 1 double
0.34000000
DIMENSIONS    32   32   1

ORIGIN    0.000   0.000   0.000
SPACING   0.03125 0.03125   1.000

POINT_DATA   1024
SCALARS fMag double
LOOKUP_TABLE default

0 0 0 0 0 0 0 0 0 0 0 0 0 0 0 0 0 0 0 0 0 0 0 0 0 0 0 0 0 0 0 0 
0 0 0 0 0 0 0 0 0 0 0 0 0 0 0 0 0 0 0 0 0 0 0 0 0 0 0 0 0 0 0 0 
0 0 0 0 0 0 0 0 0 0 0 0 0 0 0 0 0 0 0 0 0 0 0 0 0 0 0 0 0 0 0 0 
0 0 0 0 0 0 0 0 0 0 0 0 0 0 0 0 0 0 0 0 0 0 0 0 0 0 0 0 0 0 0 0 
0 0 0 0 0 0 0 0 0 0 0 0 4.141810e-01 1.642281e+01 8.869019e+01 2.073809e+02 2.702543e+02 2.073809e+02 8.869019e+01 1.642281e+01 4.141810e-01 0 0 0 0 0 0 0 0 0 0 0 
0 0 0 0 0 0 0 0 0 0 0 1.134789e+01 1.667507e+02 6.250804e+02 1.069991e+03 1.271825e+03 1.355188e+03 1.271825e+03 1.069991e+03 6.250804e+02 1.667507e+02 1.134789e+01 0 0 0 0 0 0 0 0 0 0 
0 0 0 0 0 0 0 0 0 0 2.064142e+01 2.900319e+02 9.426991e+02 1.487513e+03 1.541721e+03 1.335746e+03 1.272928e+03 1.335746e+03 1.541721e+03 1.487513e+03 9.426991e+02 2.900319e+02 2.064142e+01 0 0 0 0 0 0 0 0 0 
0 0 0 0 0 0 0 0 0 5.803076e+00 2.408295e+02 9.702255e+02 1.444916e+03 1.091412e+03 5.737889e+02 2.712536e+02 1.879948e+02 2.712536e+02 5.737889e+02 1.091412e+03 1.444916e+03 9.702255e+02 2.408295e+02 5.803076e+00 0 0 0 0 0 0 0 0 
0 0 0 0 0 0 0 0 1.460415e-01 9.510506e+01 7.461858e+02 1.316240e+03 8.674512e+02 2.123067e+02 1.430686e+01 0 0 0 1.430686e+01 2.123067e+02 8.674512e+02 1.316240e+03 7.461858e+02 9.510506e+01 1.460415e-01 0 0 0 0 0 0 0 
0 0 0 0 0 0 0 0 6.813066e+00 3.622700e+02 1.078368e+03 9.361942e+02 2.199162e+02 7.727290e+00 0 0 0 0 0 7.727290e+00 2.199162e+02 9.361942e+02 1.078368e+03 3.622700e+02 6.813066e+00 0 0 0 0 0 0 0 
0 0 0 0 0 0 0 0 5.514050e+01 6.303700e+02 9.729025e+02 4.160570e+02 1.825922e+01 0 0 0 0 0 0 0 1.825922e+01 4.160570e+02 9.729025e+02 6.303700e+02 5.514050e+01 0 0 0 0 0 0 0 
0 0 0 0 0 0 0 0 1.625296e+02 7.464781e+02 7.232017e+02 1.390697e+02 0 0 0 0 0 0 0 0 0 1.390697e+02 7.232017e+02 7.464781e+02 1.625296e+02 0 0 0 0 0 0 0 
0 0 0 0 0 0 0 6.575625e-01 2.816604e+02 7.552377e+02 5.066685e+02 3.251414e+01 0 0 0 0 0 0 0 0 0 3.251414e+01 5.066685e+02 7.552377e+02 2.816604e+02 6.575625e-01 0 0 0 0 0 0 
0 0 0 0 0 0 0 5.347667e+00 3.637042e+02 6.889785e+02 3.342346e+02 3.703718e+00 0 0 0 0 0 0 0 0 0 3.703718e+00 3.342346e+02 6.889785e+02 3.637042e+02 5.347667e+00 0 0 0 0 0 0 
0 0 0 0 0 0 0 1.490676e+01 3.859355e+02 5.876161e+02 2.167452e+02 1.146871e-01 0 0 0 0 0 0 0 0 0 1.146871e-01 2.167452e+02 5.876161e+02 3.859355e+02 1.490676e+01 0 0 0 0 0 0 
0 0 0 0 0 0 0 2.661280e+01 4.068015e+02 5.485389e+02 1.683497e+02 0 0 0 0 0 0 0 0 0 0 0 1.683497e+02 5.485389e+02 4.068015e+02 2.661280e+01 0 0 0 0 0 0 
0 0 0 0 0 0 0 3.288315e+01 4.275739e+02 5.530324e+02 1.583416e+02 0 0 0 0 0 0 0 0 0 0 0 1.583416e+02 5.530324e+02 4.275739e+02 3.288315e+01 0 0 0 0 0 0 
0 0 0 0 0 0 0 2.661280e+01 4.068015e+02 5.485389e+02 1.683497e+02 0 0 0 0 0 0 0 0 0 0 0 1.683497e+02 5.485389e+02 4.068015e+02 2.661280e+01 0 0 0 0 0 0 
0 0 0 0 0 0 0 1.490676e+01 3.859355e+02 5.876161e+02 2.167452e+02 1.146871e-01 0 0 0 0 0 0 0 0 0 1.146871e-01 2.167452e+02 5.876161e+02 3.859355e+02 1.490676e+01 0 0 0 0 0 0 
0 0 0 0 0 0 0 5.347667e+00 3.637042e+02 6.889785e+02 3.342346e+02 3.703718e+00 0 0 0 0 0 0 0 0 0 3.703718e+00 3.342346e+02 6.889785e+02 3.637042e+02 5.347667e+00 0 0 0 0 0 0 
0 0 0 0 0 0 0 6.575625e-01 2.816604e+02 7.552377e+02 5.066685e+02 3.251414e+01 0 0 0 0 0 0 0 0 0 3.251414e+01 5.066685e+02 7.552377e+02 2.816604e+02 6.575625e-01 0 0 0 0 0 0 
0 0 0 0 0 0 0 0 1.625296e+02 7.464781e+02 7.232017e+02 1.390697e+02 0 0 0 0 0 0 0 0 0 1.390697e+02 7.232017e+02 7.464781e+02 1.625296e+02 0 0 0 0 0 0 0 
0 0 0 0 0 0 0 0 5.514050e+01 6.303700e+02 9.729025e+02 4.160570e+02 1.825922e+01 0 0 0 0 0 0 0 1.825922e+01 4.160570e+02 9.729025e+02 6.303700e+02 5.514050e+01 0 0 0 0 0 0 0 
0 0 0 0 0 0 0 0 6.813066e+00 3.622700e+02 1.078368e+03 9.361942e+02 2.199162e+02 7.727290e+00 0 0 0 0 0 7.727290e+00 2.199162e+02 9.361942e+02 1.078368e+03 3.622700e+02 6.813066e+00 0 0 0 0 0 0 0 
0 0 0 0 0 0 0 0 1.460415e-01 9.510506e+01 7.461858e+02 1.316240e+03 8.674512e+02 2.123067e+02 1.430686e+01 0 0 0 1.430686e+01 2.123067e+02 8.674512e+02 1.316240e+03 7.461858e+02 9.510506e+01 1.460415e-01 0 0 0 0 0 0 0 
0 0 0 0 0 0 0 0 0 5.803076e+00 2.408295e+02 9.702255e+02 1.444916e+03 1.091412e+03 5.737889e+02 2.712536e+02 1.879948e+02 2.712536e+02 5.737889e+02 1.091412e+03 1.444916e+03 9.702255e+02 2.408295e+02 5.803076e+00 0 0 0 0 0 0 0 0 
0 0 0 0 0 0 0 0 0 0 2.064142e+01 2.900319e+02 9.426991e+02 1.487513e+03 1.541721e+03 1.335746e+03 1.272928e+03 1.335746e+03 1.541721e+03 1.487513e+03 9.426991e+02 2.900319e+02 2.064142e+01 0 0 0 0 0 0 0 0 0 
0 0 0 0 0 0 0 0 0 0 0 1.134789e+01 1.667507e+02 6.250804e+02 1.069991e+03 1.271825e+03 1.355188e+03 1.271825e+03 1.069991e+03 6.250804e+02 1.667507e+02 1.134789e+01 0 0 0 0 0 0 0 0 0 0 
0 0 0 0 0 0 0 0 0 0 0 0 4.141810e-01 1.642281e+01 8.869019e+01 2.073809e+02 2.702543e+02 2.073809e+02 8.869019e+01 1.642281e+01 4.141810e-01 0 0 0 0 0 0 0 0 0 0 0 
0 0 0 0 0 0 0 0 0 0 0 0 0 0 0 0 0 0 0 0 0 0 0 0 0 0 0 0 0 0 0 0 
0 0 0 0 0 0 0 0 0 0 0 0 0 0 0 0 0 0 0 0 0 0 0 0 0 0 0 0 0 0 0 0 
0 0 0 0 0 0 0 0 0 0 0 0 0 0 0 0 0 0 0 0 0 0 0 0 0 0 0 0 0 0 0 0 
