# vtk DataFile Version 2.0
Comment goes here
ASCII

DATASET STRUCTURED_POINTS
FIELD FieldData 1
TIME 1 1 double
1.18000000
DIMENSIONS    32   32   1

ORIGIN    0.000   0.000   0.000
SPACING   0.03125 0.03125   1.000

POINT_DATA   1024
SCALARS fMag double
LOOKUP_TABLE default

0 0 0 0 0 0 0 0 0 0 0 0 0 0 0 0 0 0 0 0 0 0 0 0 0 0 0 0 0 0 0 0 
0 0 0 0 0 0 0 0 0 0 0 0 0 0 0 0 0 0 0 0 0 0 0 0 0 0 0 0 0 0 0 0 
0 0 0 0 0 0 0 0 0 0 0 0 0 0 0 0 0 0 0 0 0 0 0 0 0 0 0 0 0 0 0 0 
0 0 0 0 0 0 0 0 0 0 0 0 0 0 0 0 0 0 0 0 0 0 0 0 0 0 0 0 0 0 0 0 
0 0 0 0 0 0 0 0 0 0 0 0 0 0 0 0 0 0 0 0 0 0 0 0 0 0 0 0 0 0 0 0 
0 0 0 0 0 0 0 0 0 0 0 0 0 0 0 0 0 0 0 0 0 0 0 0 0 0 0 0 0 0 0 0 
0 0 0 0 0 0 0 0 0 0 0 0 0 0 0 0 0 0 0 0 0 0 0 0 0 0 0 0 0 0 0 0 
0 0 0 0 0 0 0 0 0 0 0 0 0 0 0 0 0 0 0 0 0 0 0 0 0 0 0 0 0 0 0 0 
0 0 0 0 0 0 0 0 0 0 0 4.461439e+00 4.427493e+01 1.030450e+02 2.073821e+02 2.951983e+02 2.974728e+02 2.951983e+02 2.073821e+02 1.030450e+02 4.427493e+01 4.461439e+00 0 0 0 0 0 0 0 0 0 0 
0 0 0 0 0 0 0 0 0 1.555096e-01 2.926328e+01 1.944465e+02 4.649732e+02 6.562182e+02 7.232544e+02 7.558340e+02 7.333258e+02 7.558340e+02 7.232544e+02 6.562182e+02 4.649732e+02 1.944465e+02 2.926328e+01 1.555096e-01 0 0 0 0 0 0 0 0 
0 0 0 0 0 0 0 0 4.711145e-01 7.585654e+01 3.812486e+02 7.592271e+02 8.666900e+02 7.472406e+02 5.785111e+02 4.730083e+02 4.438011e+02 4.730083e+02 5.785111e+02 7.472406e+02 8.666900e+02 7.592271e+02 3.812486e+02 7.585654e+01 4.711145e-01 0 0 0 0 0 0 0 
0 0 0 0 0 0 0 0 5.976277e+01 4.223382e+02 9.020724e+02 8.725531e+02 4.849610e+02 1.961844e+02 6.248907e+01 1.635703e+01 7.948015e+00 1.635703e+01 6.248907e+01 1.961844e+02 4.849610e+02 8.725531e+02 9.020724e+02 4.223382e+02 5.976277e+01 0 0 0 0 0 0 0 
0 0 0 0 0 0 0 2.295416e+01 3.251553e+02 9.118363e+02 8.836336e+02 3.356973e+02 5.113688e+01 1.301186e+00 0 0 0 0 0 1.301186e+00 5.113688e+01 3.356973e+02 8.836336e+02 9.118363e+02 3.251553e+02 2.295416e+01 0 0 0 0 0 0 
0 0 0 0 0 0 0 9.381258e+01 7.169440e+02 1.027244e+03 4.402679e+02 3.414104e+01 0 0 0 0 0 0 0 0 0 3.414104e+01 4.402679e+02 1.027244e+03 7.169440e+02 9.381258e+01 0 0 0 0 0 0 
0 0 0 0 0 0 0 2.777982e+02 9.765247e+02 8.186094e+02 1.200059e+02 3.778325e-03 0 0 0 0 0 0 0 0 0 3.778325e-03 1.200059e+02 8.186094e+02 9.765247e+02 2.777982e+02 0 0 0 0 0 0 
0 0 0 0 0 0 3.841512e-02 4.585928e+02 1.055880e+03 6.135153e+02 1.909397e+01 0 0 0 0 0 0 0 0 0 0 0 1.909397e+01 6.135153e+02 1.055880e+03 4.585928e+02 3.841512e-02 0 0 0 0 0 
0 0 0 0 0 0 7.683024e-02 5.064672e+02 1.069030e+03 5.659001e+02 3.260940e+00 0 0 0 0 0 0 0 0 0 0 0 3.260940e+00 5.659001e+02 1.069030e+03 5.064672e+02 7.683024e-02 0 0 0 0 0 
0 0 0 0 0 0 3.841512e-02 4.585928e+02 1.055880e+03 6.135153e+02 1.909397e+01 0 0 0 0 0 0 0 0 0 0 0 1.909397e+01 6.135153e+02 1.055880e+03 4.585928e+02 3.841512e-02 0 0 0 0 0 
0 0 0 0 0 0 0 2.777982e+02 9.765247e+02 8.186094e+02 1.200059e+02 3.778325e-03 0 0 0 0 0 0 0 0 0 3.778325e-03 1.200059e+02 8.186094e+02 9.765247e+02 2.777982e+02 0 0 0 0 0 0 
0 0 0 0 0 0 0 9.381258e+01 7.169440e+02 1.027244e+03 4.402679e+02 3.414104e+01 0 0 0 0 0 0 0 0 0 3.414104e+01 4.402679e+02 1.027244e+03 7.169440e+02 9.381258e+01 0 0 0 0 0 0 
0 0 0 0 0 0 0 2.295416e+01 3.251553e+02 9.118363e+02 8.836336e+02 3.356973e+02 5.113688e+01 1.301186e+00 0 0 0 0 0 1.301186e+00 5.113688e+01 3.356973e+02 8.836336e+02 9.118363e+02 3.251553e+02 2.295416e+01 0 0 0 0 0 0 
0 0 0 0 0 0 0 0 5.976277e+01 4.223382e+02 9.020724e+02 8.725531e+02 4.849610e+02 1.961844e+02 6.248907e+01 1.635703e+01 7.948015e+00 1.635703e+01 6.248907e+01 1.961844e+02 4.849610e+02 8.725531e+02 9.020724e+02 4.223382e+02 5.976277e+01 0 0 0 0 0 0 0 
0 0 0 0 0 0 0 0 4.711145e-01 7.585654e+01 3.812486e+02 7.592271e+02 8.666900e+02 7.472406e+02 5.785111e+02 4.730083e+02 4.438011e+02 4.730083e+02 5.785111e+02 7.472406e+02 8.666900e+02 7.592271e+02 3.812486e+02 7.585654e+01 4.711145e-01 0 0 0 0 0 0 0 
0 0 0 0 0 0 0 0 0 1.555096e-01 2.926328e+01 1.944465e+02 4.649732e+02 6.562182e+02 7.232544e+02 7.558340e+02 7.333258e+02 7.558340e+02 7.232544e+02 6.562182e+02 4.649732e+02 1.944465e+02 2.926328e+01 1.555096e-01 0 0 0 0 0 0 0 0 
0 0 0 0 0 0 0 0 0 0 0 4.461439e+00 4.427493e+01 1.030450e+02 2.073821e+02 2.951983e+02 2.974728e+02 2.951983e+02 2.073821e+02 1.030450e+02 4.427493e+01 4.461439e+00 0 0 0 0 0 0 0 0 0 0 
0 0 0 0 0 0 0 0 0 0 0 0 0 0 0 0 0 0 0 0 0 0 0 0 0 0 0 0 0 0 0 0 
0 0 0 0 0 0 0 0 0 0 0 0 0 0 0 0 0 0 0 0 0 0 0 0 0 0 0 0 0 0 0 0 
0 0 0 0 0 0 0 0 0 0 0 0 0 0 0 0 0 0 0 0 0 0 0 0 0 0 0 0 0 0 0 0 
0 0 0 0 0 0 0 0 0 0 0 0 0 0 0 0 0 0 0 0 0 0 0 0 0 0 0 0 0 0 0 0 
0 0 0 0 0 0 0 0 0 0 0 0 0 0 0 0 0 0 0 0 0 0 0 0 0 0 0 0 0 0 0 0 
0 0 0 0 0 0 0 0 0 0 0 0 0 0 0 0 0 0 0 0 0 0 0 0 0 0 0 0 0 0 0 0 
0 0 0 0 0 0 0 0 0 0 0 0 0 0 0 0 0 0 0 0 0 0 0 0 0 0 0 0 0 0 0 0 
