# vtk DataFile Version 2.0
Comment goes here
ASCII

DATASET STRUCTURED_POINTS
FIELD FieldData 1
TIME 1 1 double
0.56000000
DIMENSIONS    32   32   1

ORIGIN    0.000   0.000   0.000
SPACING   0.03125 0.03125   1.000

POINT_DATA   1024
SCALARS fMag double
LOOKUP_TABLE default

0 0 0 0 0 0 0 0 0 0 0 0 0 0 0 0 0 0 0 0 0 0 0 0 0 0 0 0 0 0 0 0 
0 0 0 0 0 0 0 0 0 0 0 0 0 0 0 0 0 0 0 0 0 0 0 0 0 0 0 0 0 0 0 0 
0 0 0 0 0 0 0 0 0 0 0 0 0 0 0 0 0 0 0 0 0 0 0 0 0 0 0 0 0 0 0 0 
0 0 0 0 0 0 0 0 0 0 0 0 0 0 0 0 0 0 0 0 0 0 0 0 0 0 0 0 0 0 0 0 
0 0 0 0 0 0 0 0 0 0 0 0 0 0 0 0 0 0 0 0 0 0 0 0 0 0 0 0 0 0 0 0 
0 0 0 0 0 0 0 0 0 0 0 0 0 0 0 0 0 0 0 0 0 0 0 0 0 0 0 0 0 0 0 0 
0 0 0 0 0 0 0 0 0 0 0 0 0 0 0 0 0 0 0 0 0 0 0 0 0 0 0 0 0 0 0 0 
0 0 0 0 0 0 0 0 0 0 0 0 1.200516e+00 8.959597e+00 3.057700e+01 4.838740e+01 5.063512e+01 4.838740e+01 3.057700e+01 8.959597e+00 1.200516e+00 0 0 0 0 0 0 0 0 0 0 0 
0 0 0 0 0 0 0 0 0 7.209242e-01 2.581231e+01 1.266803e+02 2.807518e+02 4.075499e+02 5.010831e+02 5.316738e+02 4.876017e+02 5.316738e+02 5.010831e+02 4.075499e+02 2.807518e+02 1.266803e+02 2.581231e+01 7.209242e-01 0 0 0 0 0 0 0 0 
0 0 0 0 0 0 0 9.239595e-02 1.816701e+01 1.893004e+02 4.844070e+02 7.075141e+02 7.913618e+02 7.656724e+02 7.095158e+02 6.614302e+02 5.817983e+02 6.614302e+02 7.095158e+02 7.656724e+02 7.913618e+02 7.075141e+02 4.844070e+02 1.893004e+02 1.816701e+01 9.239595e-02 0 0 0 0 0 0 
0 0 0 0 0 0 1.637830e-01 6.446125e+01 3.774470e+02 8.331590e+02 9.965328e+02 8.134964e+02 5.603736e+02 3.735470e+02 2.392153e+02 1.781306e+02 1.448318e+02 1.781306e+02 2.392153e+02 3.735470e+02 5.603736e+02 8.134964e+02 9.965328e+02 8.331590e+02 3.774470e+02 6.446125e+01 1.637830e-01 0 0 0 0 0 
0 0 0 0 0 8.397200e-02 5.533825e+01 4.742431e+02 1.053756e+03 1.059626e+03 6.157147e+02 2.348729e+02 4.844464e+01 6.922097e+00 1.953187e-01 0 0 0 1.953187e-01 6.922097e+00 4.844464e+01 2.348729e+02 6.157147e+02 1.059626e+03 1.053756e+03 4.742431e+02 5.533825e+01 8.397200e-02 0 0 0 0 
0 0 0 0 0 1.157840e+01 3.868934e+02 1.172273e+03 1.199569e+03 4.777759e+02 7.680749e+01 2.312801e+00 3.526475e-06 0 0 0 0 0 0 0 3.526475e-06 2.312801e+00 7.680749e+01 4.777759e+02 1.199569e+03 1.172273e+03 3.868934e+02 1.157840e+01 0 0 0 0 
0 0 0 0 0 1.104606e+02 9.315661e+02 1.424977e+03 6.695599e+02 6.537654e+01 0 0 0 0 0 0 0 0 0 0 0 0 0 6.537654e+01 6.695599e+02 1.424977e+03 9.315661e+02 1.104606e+02 0 0 0 0 
0 0 0 0 0 3.123599e+02 1.272629e+03 1.157083e+03 1.982043e+02 9.982131e-01 0 0 0 0 0 0 0 0 0 0 0 0 0 9.982131e-01 1.982043e+02 1.157083e+03 1.272629e+03 3.123599e+02 0 0 0 0 
0 0 0 0 0 5.155817e+02 1.364575e+03 8.912716e+02 4.238856e+01 0 0 0 0 0 0 0 0 0 0 0 0 0 0 0 4.238856e+01 8.912716e+02 1.364575e+03 5.155817e+02 0 0 0 0 
0 0 0 0 0 6.030321e+02 1.376010e+03 7.823501e+02 9.371925e+00 0 0 0 0 0 0 0 0 0 0 0 0 0 0 0 9.371925e+00 7.823501e+02 1.376010e+03 6.030321e+02 0 0 0 0 
0 0 0 0 0 5.155817e+02 1.364575e+03 8.912716e+02 4.238856e+01 0 0 0 0 0 0 0 0 0 0 0 0 0 0 0 4.238856e+01 8.912716e+02 1.364575e+03 5.155817e+02 0 0 0 0 
0 0 0 0 0 3.123599e+02 1.272629e+03 1.157083e+03 1.982043e+02 9.982131e-01 0 0 0 0 0 0 0 0 0 0 0 0 0 9.982131e-01 1.982043e+02 1.157083e+03 1.272629e+03 3.123599e+02 0 0 0 0 
0 0 0 0 0 1.104606e+02 9.315661e+02 1.424977e+03 6.695599e+02 6.537654e+01 0 0 0 0 0 0 0 0 0 0 0 0 0 6.537654e+01 6.695599e+02 1.424977e+03 9.315661e+02 1.104606e+02 0 0 0 0 
0 0 0 0 0 1.157840e+01 3.868934e+02 1.172273e+03 1.199569e+03 4.777759e+02 7.680749e+01 2.312801e+00 3.526475e-06 0 0 0 0 0 0 0 3.526475e-06 2.312801e+00 7.680749e+01 4.777759e+02 1.199569e+03 1.172273e+03 3.868934e+02 1.157840e+01 0 0 0 0 
0 0 0 0 0 8.397200e-02 5.533825e+01 4.742431e+02 1.053756e+03 1.059626e+03 6.157147e+02 2.348729e+02 4.844464e+01 6.922097e+00 1.953187e-01 0 0 0 1.953187e-01 6.922097e+00 4.844464e+01 2.348729e+02 6.157147e+02 1.059626e+03 1.053756e+03 4.742431e+02 5.533825e+01 8.397200e-02 0 0 0 0 
0 0 0 0 0 0 1.637830e-01 6.446125e+01 3.774470e+02 8.331590e+02 9.965328e+02 8.134964e+02 5.603736e+02 3.735470e+02 2.392153e+02 1.781306e+02 1.448318e+02 1.781306e+02 2.392153e+02 3.735470e+02 5.603736e+02 8.134964e+02 9.965328e+02 8.331590e+02 3.774470e+02 6.446125e+01 1.637830e-01 0 0 0 0 0 
0 0 0 0 0 0 0 9.239595e-02 1.816701e+01 1.893004e+02 4.844070e+02 7.075141e+02 7.913618e+02 7.656724e+02 7.095158e+02 6.614302e+02 5.817983e+02 6.614302e+02 7.095158e+02 7.656724e+02 7.913618e+02 7.075141e+02 4.844070e+02 1.893004e+02 1.816701e+01 9.239595e-02 0 0 0 0 0 0 
0 0 0 0 0 0 0 0 0 7.209242e-01 2.581231e+01 1.266803e+02 2.807518e+02 4.075499e+02 5.010831e+02 5.316738e+02 4.876017e+02 5.316738e+02 5.010831e+02 4.075499e+02 2.807518e+02 1.266803e+02 2.581231e+01 7.209242e-01 0 0 0 0 0 0 0 0 
0 0 0 0 0 0 0 0 0 0 0 0 1.200516e+00 8.959597e+00 3.057700e+01 4.838740e+01 5.063512e+01 4.838740e+01 3.057700e+01 8.959597e+00 1.200516e+00 0 0 0 0 0 0 0 0 0 0 0 
0 0 0 0 0 0 0 0 0 0 0 0 0 0 0 0 0 0 0 0 0 0 0 0 0 0 0 0 0 0 0 0 
0 0 0 0 0 0 0 0 0 0 0 0 0 0 0 0 0 0 0 0 0 0 0 0 0 0 0 0 0 0 0 0 
0 0 0 0 0 0 0 0 0 0 0 0 0 0 0 0 0 0 0 0 0 0 0 0 0 0 0 0 0 0 0 0 
0 0 0 0 0 0 0 0 0 0 0 0 0 0 0 0 0 0 0 0 0 0 0 0 0 0 0 0 0 0 0 0 
0 0 0 0 0 0 0 0 0 0 0 0 0 0 0 0 0 0 0 0 0 0 0 0 0 0 0 0 0 0 0 0 
0 0 0 0 0 0 0 0 0 0 0 0 0 0 0 0 0 0 0 0 0 0 0 0 0 0 0 0 0 0 0 0 
