# vtk DataFile Version 2.0
Comment goes here
ASCII

DATASET STRUCTURED_POINTS
FIELD FieldData 1
TIME 1 1 double
0.54000000
DIMENSIONS    32   32   1

ORIGIN    0.000   0.000   0.000
SPACING   0.03125 0.03125   1.000

POINT_DATA   1024
SCALARS fMag double
LOOKUP_TABLE default

0 0 0 0 0 0 0 0 0 0 0 0 0 0 0 0 0 0 0 0 0 0 0 0 0 0 0 0 0 0 0 0 
0 0 0 0 0 0 0 0 0 0 0 0 0 0 0 0 0 0 0 0 0 0 0 0 0 0 0 0 0 0 0 0 
0 0 0 0 0 0 0 0 0 0 0 0 0 0 0 0 0 0 0 0 0 0 0 0 0 0 0 0 0 0 0 0 
0 0 0 0 0 0 0 0 0 0 0 0 0 0 0 0 0 0 0 0 0 0 0 0 0 0 0 0 0 0 0 0 
0 0 0 0 0 0 0 0 0 0 0 0 0 0 0 0 0 0 0 0 0 0 0 0 0 0 0 0 0 0 0 0 
0 0 0 0 0 0 0 0 0 0 0 0 0 0 0 0 0 0 0 0 0 0 0 0 0 0 0 0 0 0 0 0 
0 0 0 0 0 0 0 0 0 0 0 0 0 0 0 0 0 0 0 0 0 0 0 0 0 0 0 0 0 0 0 0 
0 0 0 0 0 0 0 0 0 0 2.219392e-01 8.804472e+00 6.359178e+01 1.549105e+02 2.570966e+02 3.176553e+02 3.087205e+02 3.176553e+02 2.570966e+02 1.549105e+02 6.359178e+01 8.804472e+00 2.219392e-01 0 0 0 0 0 0 0 0 0 
0 0 0 0 0 0 0 0 0 1.274389e+01 1.178259e+02 3.586403e+02 6.329595e+02 8.006315e+02 8.347264e+02 8.288201e+02 7.506491e+02 8.288201e+02 8.347264e+02 8.006315e+02 6.329595e+02 3.586403e+02 1.178259e+02 1.274389e+01 0 0 0 0 0 0 0 0 
0 0 0 0 0 0 0 3.487971e-01 3.267672e+01 2.646668e+02 7.498269e+02 1.011459e+03 9.168552e+02 7.928694e+02 6.292596e+02 5.264646e+02 4.487814e+02 5.264646e+02 6.292596e+02 7.928694e+02 9.168552e+02 1.011459e+03 7.498269e+02 2.646668e+02 3.267672e+01 3.487971e-01 0 0 0 0 0 0 
0 0 0 0 0 0 0 2.722948e+01 3.679733e+02 9.148587e+02 1.107640e+03 8.010996e+02 3.611871e+02 1.473379e+02 5.152068e+01 1.526295e+01 6.852762e+00 1.526295e+01 5.152068e+01 1.473379e+02 3.611871e+02 8.010996e+02 1.107640e+03 9.148587e+02 3.679733e+02 2.722948e+01 0 0 0 0 0 0 
0 0 0 0 0 0 8.791538e+00 2.671433e+02 9.381890e+02 1.121455e+03 5.703475e+02 1.419473e+02 1.155011e+01 0 0 0 0 0 0 0 1.155011e+01 1.419473e+02 5.703475e+02 1.121455e+03 9.381890e+02 2.671433e+02 8.791538e+00 0 0 0 0 0 
0 0 0 0 0 0 9.909465e+01 7.570851e+02 1.176481e+03 6.136497e+02 9.129992e+01 1.659775e+00 0 0 0 0 0 0 0 0 0 1.659775e+00 9.129992e+01 6.136497e+02 1.176481e+03 7.570851e+02 9.909465e+01 0 0 0 0 0 
0 0 0 0 0 2.385988e+00 3.570542e+02 1.144883e+03 9.612283e+02 1.743042e+02 2.426536e+00 0 0 0 0 0 0 0 0 0 0 0 2.426536e+00 1.743042e+02 9.612283e+02 1.144883e+03 3.570542e+02 2.385988e+00 0 0 0 0 
0 0 0 0 0 1.723743e+01 6.475666e+02 1.217139e+03 6.052528e+02 1.798341e+01 0 0 0 0 0 0 0 0 0 0 0 0 0 1.798341e+01 6.052528e+02 1.217139e+03 6.475666e+02 1.723743e+01 0 0 0 0 
0 0 0 0 0 5.118821e+01 8.128336e+02 1.141512e+03 3.805064e+02 5.285786e-01 0 0 0 0 0 0 0 0 0 0 0 0 0 5.285786e-01 3.805064e+02 1.141512e+03 8.128336e+02 5.118821e+01 0 0 0 0 
0 0 0 0 0 7.261540e+01 8.596260e+02 1.090628e+03 3.036169e+02 0 0 0 0 0 0 0 0 0 0 0 0 0 0 0 3.036169e+02 1.090628e+03 8.596260e+02 7.261540e+01 0 0 0 0 
0 0 0 0 0 5.118821e+01 8.128336e+02 1.141512e+03 3.805064e+02 5.285786e-01 0 0 0 0 0 0 0 0 0 0 0 0 0 5.285786e-01 3.805064e+02 1.141512e+03 8.128336e+02 5.118821e+01 0 0 0 0 
0 0 0 0 0 1.723743e+01 6.475666e+02 1.217139e+03 6.052528e+02 1.798341e+01 0 0 0 0 0 0 0 0 0 0 0 0 0 1.798341e+01 6.052528e+02 1.217139e+03 6.475666e+02 1.723743e+01 0 0 0 0 
0 0 0 0 0 2.385988e+00 3.570542e+02 1.144883e+03 9.612283e+02 1.743042e+02 2.426536e+00 0 0 0 0 0 0 0 0 0 0 0 2.426536e+00 1.743042e+02 9.612283e+02 1.144883e+03 3.570542e+02 2.385988e+00 0 0 0 0 
0 0 0 0 0 0 9.909465e+01 7.570851e+02 1.176481e+03 6.136497e+02 9.129992e+01 1.659775e+00 0 0 0 0 0 0 0 0 0 1.659775e+00 9.129992e+01 6.136497e+02 1.176481e+03 7.570851e+02 9.909465e+01 0 0 0 0 0 
0 0 0 0 0 0 8.791538e+00 2.671433e+02 9.381890e+02 1.121455e+03 5.703475e+02 1.419473e+02 1.155011e+01 0 0 0 0 0 0 0 1.155011e+01 1.419473e+02 5.703475e+02 1.121455e+03 9.381890e+02 2.671433e+02 8.791538e+00 0 0 0 0 0 
0 0 0 0 0 0 0 2.722948e+01 3.679733e+02 9.148587e+02 1.107640e+03 8.010996e+02 3.611871e+02 1.473379e+02 5.152068e+01 1.526295e+01 6.852762e+00 1.526295e+01 5.152068e+01 1.473379e+02 3.611871e+02 8.010996e+02 1.107640e+03 9.148587e+02 3.679733e+02 2.722948e+01 0 0 0 0 0 0 
0 0 0 0 0 0 0 3.487971e-01 3.267672e+01 2.646668e+02 7.498269e+02 1.011459e+03 9.168552e+02 7.928694e+02 6.292596e+02 5.264646e+02 4.487814e+02 5.264646e+02 6.292596e+02 7.928694e+02 9.168552e+02 1.011459e+03 7.498269e+02 2.646668e+02 3.267672e+01 3.487971e-01 0 0 0 0 0 0 
0 0 0 0 0 0 0 0 0 1.274389e+01 1.178259e+02 3.586403e+02 6.329595e+02 8.006315e+02 8.347264e+02 8.288201e+02 7.506491e+02 8.288201e+02 8.347264e+02 8.006315e+02 6.329595e+02 3.586403e+02 1.178259e+02 1.274389e+01 0 0 0 0 0 0 0 0 
0 0 0 0 0 0 0 0 0 0 2.219392e-01 8.804472e+00 6.359178e+01 1.549105e+02 2.570966e+02 3.176553e+02 3.087205e+02 3.176553e+02 2.570966e+02 1.549105e+02 6.359178e+01 8.804472e+00 2.219392e-01 0 0 0 0 0 0 0 0 0 
0 0 0 0 0 0 0 0 0 0 0 0 0 0 0 0 0 0 0 0 0 0 0 0 0 0 0 0 0 0 0 0 
0 0 0 0 0 0 0 0 0 0 0 0 0 0 0 0 0 0 0 0 0 0 0 0 0 0 0 0 0 0 0 0 
0 0 0 0 0 0 0 0 0 0 0 0 0 0 0 0 0 0 0 0 0 0 0 0 0 0 0 0 0 0 0 0 
0 0 0 0 0 0 0 0 0 0 0 0 0 0 0 0 0 0 0 0 0 0 0 0 0 0 0 0 0 0 0 0 
0 0 0 0 0 0 0 0 0 0 0 0 0 0 0 0 0 0 0 0 0 0 0 0 0 0 0 0 0 0 0 0 
0 0 0 0 0 0 0 0 0 0 0 0 0 0 0 0 0 0 0 0 0 0 0 0 0 0 0 0 0 0 0 0 
