# vtk DataFile Version 2.0
Comment goes here
ASCII

DATASET STRUCTURED_POINTS
FIELD FieldData 1
TIME 1 1 double
0.62000000
DIMENSIONS    32   32   1

ORIGIN    0.000   0.000   0.000
SPACING   0.03125 0.03125   1.000

POINT_DATA   1024
SCALARS fMag double
LOOKUP_TABLE default

0 0 0 0 0 0 0 0 0 0 0 0 0 0 0 0 0 0 0 0 0 0 0 0 0 0 0 0 0 0 0 0 
0 0 0 0 0 0 0 0 0 0 0 0 0 0 0 0 0 0 0 0 0 0 0 0 0 0 0 0 0 0 0 0 
0 0 0 0 0 0 0 0 0 0 0 0 0 0 0 0 0 0 0 0 0 0 0 0 0 0 0 0 0 0 0 0 
0 0 0 0 0 0 0 0 0 0 0 0 0 0 0 0 0 0 0 0 0 0 0 0 0 0 0 0 0 0 0 0 
0 0 0 0 0 0 0 0 0 0 0 0 0 0 0 0 0 0 0 0 0 0 0 0 0 0 0 0 0 0 0 0 
0 0 0 0 0 0 0 0 0 0 0 0 0 1.516252e-01 4.905588e+00 2.240727e+01 3.522584e+01 2.240727e+01 4.905588e+00 1.516252e-01 0 0 0 0 0 0 0 0 0 0 0 0 
0 0 0 0 0 0 0 0 0 0 0 2.024253e+00 5.772667e+01 2.631229e+02 5.403078e+02 7.434321e+02 8.114992e+02 7.434321e+02 5.403078e+02 2.631229e+02 5.772667e+01 2.024253e+00 0 0 0 0 0 0 0 0 0 0 
0 0 0 0 0 0 0 0 0 0 1.327465e+01 2.053497e+02 6.413277e+02 1.060997e+03 1.217915e+03 1.213209e+03 1.189962e+03 1.213209e+03 1.217915e+03 1.060997e+03 6.413277e+02 2.053497e+02 1.327465e+01 0 0 0 0 0 0 0 0 0 
0 0 0 0 0 0 0 0 0 1.793771e+01 2.867277e+02 8.527699e+02 1.189869e+03 1.045050e+03 7.214699e+02 4.951662e+02 4.136886e+02 4.951662e+02 7.214699e+02 1.045050e+03 1.189869e+03 8.527699e+02 2.867277e+02 1.793771e+01 0 0 0 0 0 0 0 0 
0 0 0 0 0 0 0 0 5.109572e+00 1.800369e+02 8.153625e+02 1.170202e+03 7.472011e+02 2.527406e+02 3.809351e+01 3.037402e+00 0 3.037402e+00 3.809351e+01 2.527406e+02 7.472011e+02 1.170202e+03 8.153625e+02 1.800369e+02 5.109572e+00 0 0 0 0 0 0 0 
0 0 0 0 0 0 0 1.052465e-06 6.887113e+01 5.963728e+02 1.070321e+03 6.837350e+02 1.433546e+02 4.801855e+00 0 0 0 0 0 4.801855e+00 1.433546e+02 6.837350e+02 1.070321e+03 5.963728e+02 6.887113e+01 1.052465e-06 0 0 0 0 0 0 
0 0 0 0 0 0 0 2.436405e+00 2.577342e+02 9.274446e+02 8.575443e+02 1.896835e+02 3.392915e+00 0 0 0 0 0 0 0 3.392915e+00 1.896835e+02 8.575443e+02 9.274446e+02 2.577342e+02 2.436405e+00 0 0 0 0 0 0 
0 0 0 0 0 0 0 2.952500e+01 5.080243e+02 9.142724e+02 4.625933e+02 2.676229e+01 0 0 0 0 0 0 0 0 0 2.676229e+01 4.625933e+02 9.142724e+02 5.080243e+02 2.952500e+01 0 0 0 0 0 0 
0 0 0 0 0 0 0 9.214709e+01 6.735650e+02 7.800195e+02 1.996108e+02 5.156633e-02 0 0 0 0 0 0 0 0 0 5.156633e-02 1.996108e+02 7.800195e+02 6.735650e+02 9.214709e+01 0 0 0 0 0 0 
0 0 0 0 0 0 0 1.684263e+02 7.279139e+02 6.471838e+02 8.770265e+01 0 0 0 0 0 0 0 0 0 0 0 8.770265e+01 6.471838e+02 7.279139e+02 1.684263e+02 0 0 0 0 0 0 
0 0 0 0 0 0 0 2.363338e+02 7.752261e+02 5.792262e+02 4.033077e+01 0 0 0 0 0 0 0 0 0 0 0 4.033077e+01 5.792262e+02 7.752261e+02 2.363338e+02 0 0 0 0 0 0 
0 0 0 0 0 0 0 2.621270e+02 7.873814e+02 5.525349e+02 2.728048e+01 0 0 0 0 0 0 0 0 0 0 0 2.728048e+01 5.525349e+02 7.873814e+02 2.621270e+02 0 0 0 0 0 0 
0 0 0 0 0 0 0 2.363338e+02 7.752261e+02 5.792262e+02 4.033077e+01 0 0 0 0 0 0 0 0 0 0 0 4.033077e+01 5.792262e+02 7.752261e+02 2.363338e+02 0 0 0 0 0 0 
0 0 0 0 0 0 0 1.684263e+02 7.279139e+02 6.471838e+02 8.770265e+01 0 0 0 0 0 0 0 0 0 0 0 8.770265e+01 6.471838e+02 7.279139e+02 1.684263e+02 0 0 0 0 0 0 
0 0 0 0 0 0 0 9.214709e+01 6.735650e+02 7.800195e+02 1.996108e+02 5.156633e-02 0 0 0 0 0 0 0 0 0 5.156633e-02 1.996108e+02 7.800195e+02 6.735650e+02 9.214709e+01 0 0 0 0 0 0 
0 0 0 0 0 0 0 2.952500e+01 5.080243e+02 9.142724e+02 4.625933e+02 2.676229e+01 0 0 0 0 0 0 0 0 0 2.676229e+01 4.625933e+02 9.142724e+02 5.080243e+02 2.952500e+01 0 0 0 0 0 0 
0 0 0 0 0 0 0 2.436405e+00 2.577342e+02 9.274446e+02 8.575443e+02 1.896835e+02 3.392915e+00 0 0 0 0 0 0 0 3.392915e+00 1.896835e+02 8.575443e+02 9.274446e+02 2.577342e+02 2.436405e+00 0 0 0 0 0 0 
0 0 0 0 0 0 0 1.052465e-06 6.887113e+01 5.963728e+02 1.070321e+03 6.837350e+02 1.433546e+02 4.801855e+00 0 0 0 0 0 4.801855e+00 1.433546e+02 6.837350e+02 1.070321e+03 5.963728e+02 6.887113e+01 1.052465e-06 0 0 0 0 0 0 
0 0 0 0 0 0 0 0 5.109572e+00 1.800369e+02 8.153625e+02 1.170202e+03 7.472011e+02 2.527406e+02 3.809351e+01 3.037402e+00 0 3.037402e+00 3.809351e+01 2.527406e+02 7.472011e+02 1.170202e+03 8.153625e+02 1.800369e+02 5.109572e+00 0 0 0 0 0 0 0 
0 0 0 0 0 0 0 0 0 1.793771e+01 2.867277e+02 8.527699e+02 1.189869e+03 1.045050e+03 7.214699e+02 4.951662e+02 4.136886e+02 4.951662e+02 7.214699e+02 1.045050e+03 1.189869e+03 8.527699e+02 2.867277e+02 1.793771e+01 0 0 0 0 0 0 0 0 
0 0 0 0 0 0 0 0 0 0 1.327465e+01 2.053497e+02 6.413277e+02 1.060997e+03 1.217915e+03 1.213209e+03 1.189962e+03 1.213209e+03 1.217915e+03 1.060997e+03 6.413277e+02 2.053497e+02 1.327465e+01 0 0 0 0 0 0 0 0 0 
0 0 0 0 0 0 0 0 0 0 0 2.024253e+00 5.772667e+01 2.631229e+02 5.403078e+02 7.434321e+02 8.114992e+02 7.434321e+02 5.403078e+02 2.631229e+02 5.772667e+01 2.024253e+00 0 0 0 0 0 0 0 0 0 0 
0 0 0 0 0 0 0 0 0 0 0 0 0 1.516252e-01 4.905588e+00 2.240727e+01 3.522584e+01 2.240727e+01 4.905588e+00 1.516252e-01 0 0 0 0 0 0 0 0 0 0 0 0 
0 0 0 0 0 0 0 0 0 0 0 0 0 0 0 0 0 0 0 0 0 0 0 0 0 0 0 0 0 0 0 0 
0 0 0 0 0 0 0 0 0 0 0 0 0 0 0 0 0 0 0 0 0 0 0 0 0 0 0 0 0 0 0 0 
0 0 0 0 0 0 0 0 0 0 0 0 0 0 0 0 0 0 0 0 0 0 0 0 0 0 0 0 0 0 0 0 
0 0 0 0 0 0 0 0 0 0 0 0 0 0 0 0 0 0 0 0 0 0 0 0 0 0 0 0 0 0 0 0 
