# vtk DataFile Version 2.0
Comment goes here
ASCII

DATASET STRUCTURED_POINTS
FIELD FieldData 1
TIME 1 1 double
1.14000000
DIMENSIONS    32   32   1

ORIGIN    0.000   0.000   0.000
SPACING   0.03125 0.03125   1.000

POINT_DATA   1024
SCALARS fMag double
LOOKUP_TABLE default

0 0 0 0 0 0 0 0 0 0 0 0 0 0 0 0 0 0 0 0 0 0 0 0 0 0 0 0 0 0 0 0 
0 0 0 0 0 0 0 0 0 0 0 0 0 0 0 0 0 0 0 0 0 0 0 0 0 0 0 0 0 0 0 0 
0 0 0 0 0 0 0 0 0 0 0 0 0 0 0 0 0 0 0 0 0 0 0 0 0 0 0 0 0 0 0 0 
0 0 0 0 0 0 0 0 0 0 0 0 0 0 0 0 0 0 0 0 0 0 0 0 0 0 0 0 0 0 0 0 
0 0 0 0 0 0 0 0 0 0 0 0 0 0 0 0 0 0 0 0 0 0 0 0 0 0 0 0 0 0 0 0 
0 0 0 0 0 0 0 0 0 0 0 0 0 0 0 0 0 0 0 0 0 0 0 0 0 0 0 0 0 0 0 0 
0 0 0 0 0 0 0 0 0 0 0 0 0 0 0 0 0 0 0 0 0 0 0 0 0 0 0 0 0 0 0 0 
0 0 0 0 0 0 0 0 0 0 0 0 5.496798e-01 5.926932e+00 4.222800e+01 8.294335e+01 8.915284e+01 8.294335e+01 4.222800e+01 5.926932e+00 5.496798e-01 0 0 0 0 0 0 0 0 0 0 0 
0 0 0 0 0 0 0 0 0 0 5.503890e-01 2.787931e+01 1.679995e+02 3.913676e+02 5.789199e+02 6.906992e+02 6.829511e+02 6.906992e+02 5.789199e+02 3.913676e+02 1.679995e+02 2.787931e+01 5.503890e-01 0 0 0 0 0 0 0 0 0 
0 0 0 0 0 0 0 0 0 2.246203e+00 7.130906e+01 3.483469e+02 7.374252e+02 9.505925e+02 8.877216e+02 7.924635e+02 7.588836e+02 7.924635e+02 8.877216e+02 9.505925e+02 7.374252e+02 3.483469e+02 7.130906e+01 2.246203e+00 0 0 0 0 0 0 0 0 
0 0 0 0 0 0 0 0 1.131055e+00 7.216038e+01 4.467233e+02 8.834747e+02 8.941147e+02 6.233294e+02 3.509172e+02 1.867994e+02 1.650853e+02 1.867994e+02 3.509172e+02 6.233294e+02 8.941147e+02 8.834747e+02 4.467233e+02 7.216038e+01 1.131055e+00 0 0 0 0 0 0 0 
0 0 0 0 0 0 0 0 3.611890e+01 3.971152e+02 8.966513e+02 8.329733e+02 3.426308e+02 6.375180e+01 5.190802e+00 2.456046e-02 0 2.456046e-02 5.190802e+00 6.375180e+01 3.426308e+02 8.329733e+02 8.966513e+02 3.971152e+02 3.611890e+01 0 0 0 0 0 0 0 
0 0 0 0 0 0 0 9.824044e-01 1.882741e+02 8.038579e+02 9.012431e+02 3.196193e+02 2.775729e+01 2.825399e-01 0 0 0 0 0 2.825399e-01 2.775729e+01 3.196193e+02 9.012431e+02 8.038579e+02 1.882741e+02 9.824044e-01 0 0 0 0 0 0 
0 0 0 0 0 0 0 1.822550e+01 4.865030e+02 9.835214e+02 5.706606e+02 5.656351e+01 1.866624e-01 0 0 0 0 0 0 0 1.866624e-01 5.656351e+01 5.706606e+02 9.835214e+02 4.865030e+02 1.822550e+01 0 0 0 0 0 0 
0 0 0 0 0 0 0 6.540177e+01 6.788988e+02 9.025136e+02 2.900174e+02 3.511491e+00 0 0 0 0 0 0 0 0 0 3.511491e+00 2.900174e+02 9.025136e+02 6.788988e+02 6.540177e+01 0 0 0 0 0 0 
0 0 0 0 0 0 0 1.337860e+02 7.601051e+02 7.612466e+02 1.354249e+02 0 0 0 0 0 0 0 0 0 0 0 1.354249e+02 7.612466e+02 7.601051e+02 1.337860e+02 0 0 0 0 0 0 
0 0 0 0 0 0 0 1.606544e+02 8.064593e+02 7.571898e+02 1.113849e+02 0 0 0 0 0 0 0 0 0 0 0 1.113849e+02 7.571898e+02 8.064593e+02 1.606544e+02 0 0 0 0 0 0 
0 0 0 0 0 0 0 1.337860e+02 7.601051e+02 7.612466e+02 1.354249e+02 0 0 0 0 0 0 0 0 0 0 0 1.354249e+02 7.612466e+02 7.601051e+02 1.337860e+02 0 0 0 0 0 0 
0 0 0 0 0 0 0 6.540177e+01 6.788988e+02 9.025136e+02 2.900174e+02 3.511491e+00 0 0 0 0 0 0 0 0 0 3.511491e+00 2.900174e+02 9.025136e+02 6.788988e+02 6.540177e+01 0 0 0 0 0 0 
0 0 0 0 0 0 0 1.822550e+01 4.865030e+02 9.835214e+02 5.706606e+02 5.656351e+01 1.866624e-01 0 0 0 0 0 0 0 1.866624e-01 5.656351e+01 5.706606e+02 9.835214e+02 4.865030e+02 1.822550e+01 0 0 0 0 0 0 
0 0 0 0 0 0 0 9.824044e-01 1.882741e+02 8.038579e+02 9.012431e+02 3.196193e+02 2.775729e+01 2.825399e-01 0 0 0 0 0 2.825399e-01 2.775729e+01 3.196193e+02 9.012431e+02 8.038579e+02 1.882741e+02 9.824044e-01 0 0 0 0 0 0 
0 0 0 0 0 0 0 0 3.611890e+01 3.971152e+02 8.966513e+02 8.329733e+02 3.426308e+02 6.375180e+01 5.190802e+00 2.456046e-02 0 2.456046e-02 5.190802e+00 6.375180e+01 3.426308e+02 8.329733e+02 8.966513e+02 3.971152e+02 3.611890e+01 0 0 0 0 0 0 0 
0 0 0 0 0 0 0 0 1.131055e+00 7.216038e+01 4.467233e+02 8.834747e+02 8.941147e+02 6.233294e+02 3.509172e+02 1.867994e+02 1.650853e+02 1.867994e+02 3.509172e+02 6.233294e+02 8.941147e+02 8.834747e+02 4.467233e+02 7.216038e+01 1.131055e+00 0 0 0 0 0 0 0 
0 0 0 0 0 0 0 0 0 2.246203e+00 7.130906e+01 3.483469e+02 7.374252e+02 9.505925e+02 8.877216e+02 7.924635e+02 7.588836e+02 7.924635e+02 8.877216e+02 9.505925e+02 7.374252e+02 3.483469e+02 7.130906e+01 2.246203e+00 0 0 0 0 0 0 0 0 
0 0 0 0 0 0 0 0 0 0 5.503890e-01 2.787931e+01 1.679995e+02 3.913676e+02 5.789199e+02 6.906992e+02 6.829511e+02 6.906992e+02 5.789199e+02 3.913676e+02 1.679995e+02 2.787931e+01 5.503890e-01 0 0 0 0 0 0 0 0 0 
0 0 0 0 0 0 0 0 0 0 0 0 5.496798e-01 5.926932e+00 4.222800e+01 8.294335e+01 8.915284e+01 8.294335e+01 4.222800e+01 5.926932e+00 5.496798e-01 0 0 0 0 0 0 0 0 0 0 0 
0 0 0 0 0 0 0 0 0 0 0 0 0 0 0 0 0 0 0 0 0 0 0 0 0 0 0 0 0 0 0 0 
0 0 0 0 0 0 0 0 0 0 0 0 0 0 0 0 0 0 0 0 0 0 0 0 0 0 0 0 0 0 0 0 
0 0 0 0 0 0 0 0 0 0 0 0 0 0 0 0 0 0 0 0 0 0 0 0 0 0 0 0 0 0 0 0 
0 0 0 0 0 0 0 0 0 0 0 0 0 0 0 0 0 0 0 0 0 0 0 0 0 0 0 0 0 0 0 0 
0 0 0 0 0 0 0 0 0 0 0 0 0 0 0 0 0 0 0 0 0 0 0 0 0 0 0 0 0 0 0 0 
0 0 0 0 0 0 0 0 0 0 0 0 0 0 0 0 0 0 0 0 0 0 0 0 0 0 0 0 0 0 0 0 
