# vtk DataFile Version 2.0
Comment goes here
ASCII

DATASET STRUCTURED_POINTS
FIELD FieldData 1
TIME 1 1 double
0.22000000
DIMENSIONS    32   32   1

ORIGIN    0.000   0.000   0.000
SPACING   0.03125 0.03125   1.000

POINT_DATA   1024
SCALARS fMag double
LOOKUP_TABLE default

0 0 0 0 0 0 0 0 0 0 0 0 0 0 0 0 0 0 0 0 0 0 0 0 0 0 0 0 0 0 0 0 
0 0 0 0 0 0 0 0 0 0 0 0 0 0 0 0 0 0 0 0 0 0 0 0 0 0 0 0 0 0 0 0 
0 0 0 0 0 0 0 0 0 0 0 0 0 0 0 0 0 0 0 0 0 0 0 0 0 0 0 0 0 0 0 0 
0 0 0 0 0 0 0 0 0 0 0 0 0 0 0 0 0 0 0 0 0 0 0 0 0 0 0 0 0 0 0 0 
0 0 0 0 0 0 0 0 0 0 0 0 0 0 0 0 0 0 0 0 0 0 0 0 0 0 0 0 0 0 0 0 
0 0 0 0 0 0 0 0 0 0 0 0 0 0 0 0 0 0 0 0 0 0 0 0 0 0 0 0 0 0 0 0 
0 0 0 0 0 0 0 0 0 0 0 0 0 0 0 0 0 0 0 0 0 0 0 0 0 0 0 0 0 0 0 0 
0 0 0 0 0 0 0 0 0 0 4.104732e-02 1.177889e+01 5.945066e+01 1.603207e+02 2.794966e+02 3.490292e+02 3.627086e+02 3.490292e+02 2.794966e+02 1.603207e+02 5.945066e+01 1.177889e+01 4.104732e-02 0 0 0 0 0 0 0 0 0 
0 0 0 0 0 0 0 0 2.357148e+00 4.002864e+01 2.014806e+02 4.409610e+02 6.099930e+02 7.602136e+02 8.964225e+02 9.259738e+02 8.934050e+02 9.259738e+02 8.964225e+02 7.602136e+02 6.099930e+02 4.409610e+02 2.014806e+02 4.002864e+01 2.357148e+00 0 0 0 0 0 0 0 
0 0 0 0 0 0 0 9.413475e+00 1.604707e+02 5.581961e+02 9.274248e+02 1.009601e+03 8.394252e+02 7.190201e+02 6.644102e+02 5.953902e+02 5.397112e+02 5.953902e+02 6.644102e+02 7.190201e+02 8.394252e+02 1.009601e+03 9.274248e+02 5.581961e+02 1.604707e+02 9.413475e+00 0 0 0 0 0 0 
0 0 0 0 0 0 1.068337e+01 2.145887e+02 8.113375e+02 1.231473e+03 1.034302e+03 6.361965e+02 2.942348e+02 1.191416e+02 4.748452e+01 1.844263e+01 9.014785e+00 1.844263e+01 4.748452e+01 1.191416e+02 2.942348e+02 6.361965e+02 1.034302e+03 1.231473e+03 8.113375e+02 2.145887e+02 1.068337e+01 0 0 0 0 0 
0 0 0 0 0 1.262283e+00 1.709139e+02 8.267438e+02 1.303315e+03 9.114223e+02 3.205028e+02 5.702542e+01 3.201290e+00 0 0 0 0 0 0 0 3.201290e+00 5.702542e+01 3.205028e+02 9.114223e+02 1.303315e+03 8.267438e+02 1.709139e+02 1.262283e+00 0 0 0 0 
0 0 0 0 0 3.731986e+01 6.011816e+02 1.332427e+03 9.675032e+02 2.107639e+02 1.189014e+01 0 0 0 0 0 0 0 0 0 0 0 1.189014e+01 2.107639e+02 9.675032e+02 1.332427e+03 6.011816e+02 3.731986e+01 0 0 0 0 
0 0 0 0 0 1.755383e+02 1.013602e+03 1.215168e+03 3.903522e+02 1.185248e+01 0 0 0 0 0 0 0 0 0 0 0 0 0 1.185248e+01 3.903522e+02 1.215168e+03 1.013602e+03 1.755383e+02 0 0 0 0 
0 0 0 0 0 3.716524e+02 1.173445e+03 8.880943e+02 8.678475e+01 9.043659e-03 0 0 0 0 0 0 0 0 0 0 0 0 0 9.043659e-03 8.678475e+01 8.880943e+02 1.173445e+03 3.716524e+02 0 0 0 0 
0 0 0 0 1.752046e-01 4.989448e+02 1.132878e+03 6.482236e+02 1.411539e+01 0 0 0 0 0 0 0 0 0 0 0 0 0 0 0 1.411539e+01 6.482236e+02 1.132878e+03 4.989448e+02 1.752046e-01 0 0 0 
0 0 0 0 3.504093e-01 5.331920e+02 1.074410e+03 5.429234e+02 1.354818e+00 0 0 0 0 0 0 0 0 0 0 0 0 0 0 0 1.354818e+00 5.429234e+02 1.074410e+03 5.331920e+02 3.504093e-01 0 0 0 
0 0 0 0 1.752046e-01 4.989448e+02 1.132878e+03 6.482236e+02 1.411539e+01 0 0 0 0 0 0 0 0 0 0 0 0 0 0 0 1.411539e+01 6.482236e+02 1.132878e+03 4.989448e+02 1.752046e-01 0 0 0 
0 0 0 0 0 3.716524e+02 1.173445e+03 8.880943e+02 8.678475e+01 9.043659e-03 0 0 0 0 0 0 0 0 0 0 0 0 0 9.043659e-03 8.678475e+01 8.880943e+02 1.173445e+03 3.716524e+02 0 0 0 0 
0 0 0 0 0 1.755383e+02 1.013602e+03 1.215168e+03 3.903522e+02 1.185248e+01 0 0 0 0 0 0 0 0 0 0 0 0 0 1.185248e+01 3.903522e+02 1.215168e+03 1.013602e+03 1.755383e+02 0 0 0 0 
0 0 0 0 0 3.731986e+01 6.011816e+02 1.332427e+03 9.675032e+02 2.107639e+02 1.189014e+01 0 0 0 0 0 0 0 0 0 0 0 1.189014e+01 2.107639e+02 9.675032e+02 1.332427e+03 6.011816e+02 3.731986e+01 0 0 0 0 
0 0 0 0 0 1.262283e+00 1.709139e+02 8.267438e+02 1.303315e+03 9.114223e+02 3.205028e+02 5.702542e+01 3.201290e+00 0 0 0 0 0 0 0 3.201290e+00 5.702542e+01 3.205028e+02 9.114223e+02 1.303315e+03 8.267438e+02 1.709139e+02 1.262283e+00 0 0 0 0 
0 0 0 0 0 0 1.068337e+01 2.145887e+02 8.113375e+02 1.231473e+03 1.034302e+03 6.361965e+02 2.942348e+02 1.191416e+02 4.748452e+01 1.844263e+01 9.014785e+00 1.844263e+01 4.748452e+01 1.191416e+02 2.942348e+02 6.361965e+02 1.034302e+03 1.231473e+03 8.113375e+02 2.145887e+02 1.068337e+01 0 0 0 0 0 
0 0 0 0 0 0 0 9.413475e+00 1.604707e+02 5.581961e+02 9.274248e+02 1.009601e+03 8.394252e+02 7.190201e+02 6.644102e+02 5.953902e+02 5.397112e+02 5.953902e+02 6.644102e+02 7.190201e+02 8.394252e+02 1.009601e+03 9.274248e+02 5.581961e+02 1.604707e+02 9.413475e+00 0 0 0 0 0 0 
0 0 0 0 0 0 0 0 2.357148e+00 4.002864e+01 2.014806e+02 4.409610e+02 6.099930e+02 7.602136e+02 8.964225e+02 9.259738e+02 8.934050e+02 9.259738e+02 8.964225e+02 7.602136e+02 6.099930e+02 4.409610e+02 2.014806e+02 4.002864e+01 2.357148e+00 0 0 0 0 0 0 0 
0 0 0 0 0 0 0 0 0 0 4.104732e-02 1.177889e+01 5.945066e+01 1.603207e+02 2.794966e+02 3.490292e+02 3.627086e+02 3.490292e+02 2.794966e+02 1.603207e+02 5.945066e+01 1.177889e+01 4.104732e-02 0 0 0 0 0 0 0 0 0 
0 0 0 0 0 0 0 0 0 0 0 0 0 0 0 0 0 0 0 0 0 0 0 0 0 0 0 0 0 0 0 0 
0 0 0 0 0 0 0 0 0 0 0 0 0 0 0 0 0 0 0 0 0 0 0 0 0 0 0 0 0 0 0 0 
0 0 0 0 0 0 0 0 0 0 0 0 0 0 0 0 0 0 0 0 0 0 0 0 0 0 0 0 0 0 0 0 
0 0 0 0 0 0 0 0 0 0 0 0 0 0 0 0 0 0 0 0 0 0 0 0 0 0 0 0 0 0 0 0 
0 0 0 0 0 0 0 0 0 0 0 0 0 0 0 0 0 0 0 0 0 0 0 0 0 0 0 0 0 0 0 0 
0 0 0 0 0 0 0 0 0 0 0 0 0 0 0 0 0 0 0 0 0 0 0 0 0 0 0 0 0 0 0 0 
