# vtk DataFile Version 2.0
Comment goes here
ASCII

DATASET STRUCTURED_POINTS
FIELD FieldData 1
TIME 1 1 double
1.22000000
DIMENSIONS    32   32   1

ORIGIN    0.000   0.000   0.000
SPACING   0.03125 0.03125   1.000

POINT_DATA   1024
SCALARS fMag double
LOOKUP_TABLE default

0 0 0 0 0 0 0 0 0 0 0 0 0 0 0 0 0 0 0 0 0 0 0 0 0 0 0 0 0 0 0 0 
0 0 0 0 0 0 0 0 0 0 0 0 0 0 0 0 0 0 0 0 0 0 0 0 0 0 0 0 0 0 0 0 
0 0 0 0 0 0 0 0 0 0 0 0 0 0 0 0 0 0 0 0 0 0 0 0 0 0 0 0 0 0 0 0 
0 0 0 0 0 0 0 0 0 0 0 0 0 0 0 0 0 0 0 0 0 0 0 0 0 0 0 0 0 0 0 0 
0 0 0 0 0 0 0 0 0 0 0 0 0 0 0 0 0 0 0 0 0 0 0 0 0 0 0 0 0 0 0 0 
0 0 0 0 0 0 0 0 0 0 0 0 0 0 0 0 0 0 0 0 0 0 0 0 0 0 0 0 0 0 0 0 
0 0 0 0 0 0 0 0 0 0 0 0 0 0 0 0 0 0 0 0 0 0 0 0 0 0 0 0 0 0 0 0 
0 0 0 0 0 0 0 0 0 0 0 0 6.741903e-01 1.768327e+01 6.367239e+01 1.381599e+02 1.595054e+02 1.381599e+02 6.367239e+01 1.768327e+01 6.741903e-01 0 0 0 0 0 0 0 0 0 0 0 
0 0 0 0 0 0 0 0 0 0 7.103048e-02 2.645588e+01 1.613047e+02 4.497531e+02 6.757629e+02 7.859696e+02 8.298181e+02 7.859696e+02 6.757629e+02 4.497531e+02 1.613047e+02 2.645588e+01 7.103048e-02 0 0 0 0 0 0 0 0 0 
0 0 0 0 0 0 0 0 0 3.961632e-01 4.537080e+01 3.210178e+02 7.469112e+02 9.804362e+02 9.198006e+02 7.895959e+02 7.920838e+02 7.895959e+02 9.198006e+02 9.804362e+02 7.469112e+02 3.210178e+02 4.537080e+01 3.961632e-01 0 0 0 0 0 0 0 0 
0 0 0 0 0 0 0 0 9.061126e-03 3.219526e+01 3.318043e+02 8.223840e+02 9.338295e+02 6.229247e+02 3.080048e+02 1.435695e+02 1.217712e+02 1.435695e+02 3.080048e+02 6.229247e+02 9.338295e+02 8.223840e+02 3.318043e+02 3.219526e+01 9.061126e-03 0 0 0 0 0 0 0 
0 0 0 0 0 0 0 0 1.013836e+01 2.266749e+02 7.774138e+02 8.876584e+02 4.029889e+02 8.071821e+01 7.413989e+00 0 0 0 7.413989e+00 8.071821e+01 4.029889e+02 8.876584e+02 7.774138e+02 2.266749e+02 1.013836e+01 0 0 0 0 0 0 0 
0 0 0 0 0 0 0 0 6.845660e+01 5.613382e+02 9.166223e+02 4.730742e+02 5.632913e+01 7.781055e-01 0 0 0 0 0 7.781055e-01 5.632913e+01 4.730742e+02 9.166223e+02 5.613382e+02 6.845660e+01 0 0 0 0 0 0 0 
0 0 0 0 0 0 0 1.526939e-01 1.970407e+02 7.991704e+02 7.435042e+02 1.430958e+02 1.145583e+00 0 0 0 0 0 0 0 1.145583e+00 1.430958e+02 7.435042e+02 7.991704e+02 1.970407e+02 1.526939e-01 0 0 0 0 0 0 
0 0 0 0 0 0 0 2.197857e+00 3.705972e+02 8.585249e+02 5.191065e+02 2.861100e+01 0 0 0 0 0 0 0 0 0 2.861100e+01 5.191065e+02 8.585249e+02 3.705972e+02 2.197857e+00 0 0 0 0 0 0 
0 0 0 0 0 0 0 7.085849e+00 4.884565e+02 8.269871e+02 3.495402e+02 3.801281e+00 0 0 0 0 0 0 0 0 0 3.801281e+00 3.495402e+02 8.269871e+02 4.884565e+02 7.085849e+00 0 0 0 0 0 0 
0 0 0 0 0 0 0 9.934952e+00 4.826221e+02 7.868105e+02 3.141234e+02 0 0 0 0 0 0 0 0 0 0 0 3.141234e+02 7.868105e+02 4.826221e+02 9.934952e+00 0 0 0 0 0 0 
0 0 0 0 0 0 0 7.085849e+00 4.884565e+02 8.269871e+02 3.495402e+02 3.801281e+00 0 0 0 0 0 0 0 0 0 3.801281e+00 3.495402e+02 8.269871e+02 4.884565e+02 7.085849e+00 0 0 0 0 0 0 
0 0 0 0 0 0 0 2.197857e+00 3.705972e+02 8.585249e+02 5.191065e+02 2.861100e+01 0 0 0 0 0 0 0 0 0 2.861100e+01 5.191065e+02 8.585249e+02 3.705972e+02 2.197857e+00 0 0 0 0 0 0 
0 0 0 0 0 0 0 1.526939e-01 1.970407e+02 7.991704e+02 7.435042e+02 1.430958e+02 1.145583e+00 0 0 0 0 0 0 0 1.145583e+00 1.430958e+02 7.435042e+02 7.991704e+02 1.970407e+02 1.526939e-01 0 0 0 0 0 0 
0 0 0 0 0 0 0 0 6.845660e+01 5.613382e+02 9.166223e+02 4.730742e+02 5.632913e+01 7.781055e-01 0 0 0 0 0 7.781055e-01 5.632913e+01 4.730742e+02 9.166223e+02 5.613382e+02 6.845660e+01 0 0 0 0 0 0 0 
0 0 0 0 0 0 0 0 1.013836e+01 2.266749e+02 7.774138e+02 8.876584e+02 4.029889e+02 8.071821e+01 7.413989e+00 0 0 0 7.413989e+00 8.071821e+01 4.029889e+02 8.876584e+02 7.774138e+02 2.266749e+02 1.013836e+01 0 0 0 0 0 0 0 
0 0 0 0 0 0 0 0 9.061126e-03 3.219526e+01 3.318043e+02 8.223840e+02 9.338295e+02 6.229247e+02 3.080048e+02 1.435695e+02 1.217712e+02 1.435695e+02 3.080048e+02 6.229247e+02 9.338295e+02 8.223840e+02 3.318043e+02 3.219526e+01 9.061126e-03 0 0 0 0 0 0 0 
0 0 0 0 0 0 0 0 0 3.961632e-01 4.537080e+01 3.210178e+02 7.469112e+02 9.804362e+02 9.198006e+02 7.895959e+02 7.920838e+02 7.895959e+02 9.198006e+02 9.804362e+02 7.469112e+02 3.210178e+02 4.537080e+01 3.961632e-01 0 0 0 0 0 0 0 0 
0 0 0 0 0 0 0 0 0 0 7.103048e-02 2.645588e+01 1.613047e+02 4.497531e+02 6.757629e+02 7.859696e+02 8.298181e+02 7.859696e+02 6.757629e+02 4.497531e+02 1.613047e+02 2.645588e+01 7.103048e-02 0 0 0 0 0 0 0 0 0 
0 0 0 0 0 0 0 0 0 0 0 0 6.741903e-01 1.768327e+01 6.367239e+01 1.381599e+02 1.595054e+02 1.381599e+02 6.367239e+01 1.768327e+01 6.741903e-01 0 0 0 0 0 0 0 0 0 0 0 
0 0 0 0 0 0 0 0 0 0 0 0 0 0 0 0 0 0 0 0 0 0 0 0 0 0 0 0 0 0 0 0 
0 0 0 0 0 0 0 0 0 0 0 0 0 0 0 0 0 0 0 0 0 0 0 0 0 0 0 0 0 0 0 0 
0 0 0 0 0 0 0 0 0 0 0 0 0 0 0 0 0 0 0 0 0 0 0 0 0 0 0 0 0 0 0 0 
0 0 0 0 0 0 0 0 0 0 0 0 0 0 0 0 0 0 0 0 0 0 0 0 0 0 0 0 0 0 0 0 
0 0 0 0 0 0 0 0 0 0 0 0 0 0 0 0 0 0 0 0 0 0 0 0 0 0 0 0 0 0 0 0 
0 0 0 0 0 0 0 0 0 0 0 0 0 0 0 0 0 0 0 0 0 0 0 0 0 0 0 0 0 0 0 0 
