# vtk DataFile Version 2.0
Comment goes here
ASCII

DATASET STRUCTURED_POINTS
FIELD FieldData 1
TIME 1 1 double
0.18000000
DIMENSIONS    32   32   1

ORIGIN    0.000   0.000   0.000
SPACING   0.03125 0.03125   1.000

POINT_DATA   1024
SCALARS fMag double
LOOKUP_TABLE default

0 0 0 0 0 0 0 0 0 0 0 0 0 0 0 0 0 0 0 0 0 0 0 0 0 0 0 0 0 0 0 0 
0 0 0 0 0 0 0 0 0 0 0 0 0 0 0 0 0 0 0 0 0 0 0 0 0 0 0 0 0 0 0 0 
0 0 0 0 0 0 0 0 0 0 0 0 0 0 0 0 0 0 0 0 0 0 0 0 0 0 0 0 0 0 0 0 
0 0 0 0 0 0 0 0 0 0 0 0 0 0 3.004362e+00 1.766088e+01 2.927571e+01 1.766088e+01 3.004362e+00 0 0 0 0 0 0 0 0 0 0 0 0 0 
0 0 0 0 0 0 0 0 0 0 0 3.734688e-01 2.761680e+01 2.182153e+02 6.026324e+02 9.074344e+02 9.817612e+02 9.074344e+02 6.026324e+02 2.182153e+02 2.761680e+01 3.734688e-01 0 0 0 0 0 0 0 0 0 0 
0 0 0 0 0 0 0 0 0 0 1.747373e-01 4.713942e+01 4.411010e+02 1.148677e+03 1.630824e+03 1.656263e+03 1.542131e+03 1.656263e+03 1.630824e+03 1.148677e+03 4.411010e+02 4.713942e+01 1.747373e-01 0 0 0 0 0 0 0 0 0 
0 0 0 0 0 0 0 0 0 0 6.254379e+01 5.012716e+02 1.206481e+03 1.455268e+03 1.165288e+03 7.784069e+02 5.899317e+02 7.784069e+02 1.165288e+03 1.455268e+03 1.206481e+03 5.012716e+02 6.254379e+01 0 0 0 0 0 0 0 0 0 
0 0 0 0 0 0 0 0 0 1.017656e+01 3.638927e+02 1.181543e+03 1.311136e+03 6.020756e+02 1.355291e+02 1.184775e+01 2.859986e-01 1.184775e+01 1.355291e+02 6.020756e+02 1.311136e+03 1.181543e+03 3.638927e+02 1.017656e+01 0 0 0 0 0 0 0 0 
0 0 0 0 0 0 0 0 0 9.256762e+01 7.578053e+02 1.236512e+03 6.513666e+02 7.827472e+01 8.262033e-01 0 0 0 8.262033e-01 7.827472e+01 6.513666e+02 1.236512e+03 7.578053e+02 9.256762e+01 0 0 0 0 0 0 0 0 
0 0 0 0 0 0 0 0 3.542890e+00 2.849884e+02 9.166616e+02 7.837219e+02 1.491612e+02 3.945762e-02 0 0 0 0 0 3.945762e-02 1.491612e+02 7.837219e+02 9.166616e+02 2.849884e+02 3.542890e+00 0 0 0 0 0 0 0 
0 0 0 0 0 0 0 0 3.121441e+01 5.140823e+02 8.644642e+02 3.986138e+02 1.525050e+01 0 0 0 0 0 0 0 1.525050e+01 3.986138e+02 8.644642e+02 5.140823e+02 3.121441e+01 0 0 0 0 0 0 0 
0 0 0 0 0 0 0 0 1.102996e+02 6.944300e+02 7.617131e+02 1.778778e+02 3.927296e-01 0 0 0 0 0 0 0 3.927296e-01 1.778778e+02 7.617131e+02 6.944300e+02 1.102996e+02 0 0 0 0 0 0 0 
0 0 0 0 0 0 0 0 2.151304e+02 7.828408e+02 6.349818e+02 6.719438e+01 0 0 0 0 0 0 0 0 0 6.719438e+01 6.349818e+02 7.828408e+02 2.151304e+02 0 0 0 0 0 0 0 
0 0 0 0 0 0 0 5.214950e-04 2.655715e+02 7.023137e+02 4.562698e+02 1.934167e+01 0 0 0 0 0 0 0 0 0 1.934167e+01 4.562698e+02 7.023137e+02 2.655715e+02 5.214950e-04 0 0 0 0 0 0 
0 0 0 0 0 0 0 1.497042e+00 3.192665e+02 6.415993e+02 3.268596e+02 2.689409e+00 0 0 0 0 0 0 0 0 0 2.689409e+00 3.268596e+02 6.415993e+02 3.192665e+02 1.497042e+00 0 0 0 0 0 0 
0 0 0 0 0 0 0 4.490262e+00 4.042748e+02 7.028964e+02 3.031215e+02 1.365648e-03 0 0 0 0 0 0 0 0 0 1.365648e-03 3.031215e+02 7.028964e+02 4.042748e+02 4.490262e+00 0 0 0 0 0 0 
0 0 0 0 0 0 0 5.967343e+00 4.269727e+02 7.179203e+02 2.969149e+02 0 0 0 0 0 0 0 0 0 0 0 2.969149e+02 7.179203e+02 4.269727e+02 5.967343e+00 0 0 0 0 0 0 
0 0 0 0 0 0 0 4.490262e+00 4.042748e+02 7.028964e+02 3.031215e+02 1.365648e-03 0 0 0 0 0 0 0 0 0 1.365648e-03 3.031215e+02 7.028964e+02 4.042748e+02 4.490262e+00 0 0 0 0 0 0 
0 0 0 0 0 0 0 1.497042e+00 3.192665e+02 6.415993e+02 3.268596e+02 2.689409e+00 0 0 0 0 0 0 0 0 0 2.689409e+00 3.268596e+02 6.415993e+02 3.192665e+02 1.497042e+00 0 0 0 0 0 0 
0 0 0 0 0 0 0 5.214950e-04 2.655715e+02 7.023137e+02 4.562698e+02 1.934167e+01 0 0 0 0 0 0 0 0 0 1.934167e+01 4.562698e+02 7.023137e+02 2.655715e+02 5.214950e-04 0 0 0 0 0 0 
0 0 0 0 0 0 0 0 2.151304e+02 7.828408e+02 6.349818e+02 6.719438e+01 0 0 0 0 0 0 0 0 0 6.719438e+01 6.349818e+02 7.828408e+02 2.151304e+02 0 0 0 0 0 0 0 
0 0 0 0 0 0 0 0 1.102996e+02 6.944300e+02 7.617131e+02 1.778778e+02 3.927296e-01 0 0 0 0 0 0 0 3.927296e-01 1.778778e+02 7.617131e+02 6.944300e+02 1.102996e+02 0 0 0 0 0 0 0 
0 0 0 0 0 0 0 0 3.121441e+01 5.140823e+02 8.644642e+02 3.986138e+02 1.525050e+01 0 0 0 0 0 0 0 1.525050e+01 3.986138e+02 8.644642e+02 5.140823e+02 3.121441e+01 0 0 0 0 0 0 0 
0 0 0 0 0 0 0 0 3.542890e+00 2.849884e+02 9.166616e+02 7.837219e+02 1.491612e+02 3.945762e-02 0 0 0 0 0 3.945762e-02 1.491612e+02 7.837219e+02 9.166616e+02 2.849884e+02 3.542890e+00 0 0 0 0 0 0 0 
0 0 0 0 0 0 0 0 0 9.256762e+01 7.578053e+02 1.236512e+03 6.513666e+02 7.827472e+01 8.262033e-01 0 0 0 8.262033e-01 7.827472e+01 6.513666e+02 1.236512e+03 7.578053e+02 9.256762e+01 0 0 0 0 0 0 0 0 
0 0 0 0 0 0 0 0 0 1.017656e+01 3.638927e+02 1.181543e+03 1.311136e+03 6.020756e+02 1.355291e+02 1.184775e+01 2.859986e-01 1.184775e+01 1.355291e+02 6.020756e+02 1.311136e+03 1.181543e+03 3.638927e+02 1.017656e+01 0 0 0 0 0 0 0 0 
0 0 0 0 0 0 0 0 0 0 6.254379e+01 5.012716e+02 1.206481e+03 1.455268e+03 1.165288e+03 7.784069e+02 5.899317e+02 7.784069e+02 1.165288e+03 1.455268e+03 1.206481e+03 5.012716e+02 6.254379e+01 0 0 0 0 0 0 0 0 0 
0 0 0 0 0 0 0 0 0 0 1.747373e-01 4.713942e+01 4.411010e+02 1.148677e+03 1.630824e+03 1.656263e+03 1.542131e+03 1.656263e+03 1.630824e+03 1.148677e+03 4.411010e+02 4.713942e+01 1.747373e-01 0 0 0 0 0 0 0 0 0 
0 0 0 0 0 0 0 0 0 0 0 3.734688e-01 2.761680e+01 2.182153e+02 6.026324e+02 9.074344e+02 9.817612e+02 9.074344e+02 6.026324e+02 2.182153e+02 2.761680e+01 3.734688e-01 0 0 0 0 0 0 0 0 0 0 
0 0 0 0 0 0 0 0 0 0 0 0 0 0 3.004362e+00 1.766088e+01 2.927571e+01 1.766088e+01 3.004362e+00 0 0 0 0 0 0 0 0 0 0 0 0 0 
0 0 0 0 0 0 0 0 0 0 0 0 0 0 0 0 0 0 0 0 0 0 0 0 0 0 0 0 0 0 0 0 
0 0 0 0 0 0 0 0 0 0 0 0 0 0 0 0 0 0 0 0 0 0 0 0 0 0 0 0 0 0 0 0 
