# vtk DataFile Version 2.0
Comment goes here
ASCII

DATASET STRUCTURED_POINTS
FIELD FieldData 1
TIME 1 1 double
0.30000000
DIMENSIONS    32   32   1

ORIGIN    0.000   0.000   0.000
SPACING   0.03125 0.03125   1.000

POINT_DATA   1024
SCALARS fMag double
LOOKUP_TABLE default

0 0 0 0 0 0 0 0 0 0 0 0 0 0 0 0 0 0 0 0 0 0 0 0 0 0 0 0 0 0 0 0 
0 0 0 0 0 0 0 0 0 0 0 0 0 0 0 0 0 0 0 0 0 0 0 0 0 0 0 0 0 0 0 0 
0 0 0 0 0 0 0 0 0 0 0 0 0 0 0 0 0 0 0 0 0 0 0 0 0 0 0 0 0 0 0 0 
0 0 0 0 0 0 0 0 0 0 0 0 0 0 0 0 0 0 0 0 0 0 0 0 0 0 0 0 0 0 0 0 
0 0 0 0 0 0 0 0 0 0 0 0 0 0 0 0 0 0 0 0 0 0 0 0 0 0 0 0 0 0 0 0 
0 0 0 0 0 0 0 0 0 0 0 1.605973e-01 1.614218e+01 1.119290e+02 2.761739e+02 4.144168e+02 4.679082e+02 4.144168e+02 2.761739e+02 1.119290e+02 1.614218e+01 1.605973e-01 0 0 0 0 0 0 0 0 0 0 
0 0 0 0 0 0 0 0 0 0 4.126387e+00 1.197219e+02 4.881827e+02 9.665741e+02 1.228476e+03 1.264653e+03 1.259236e+03 1.264653e+03 1.228476e+03 9.665741e+02 4.881827e+02 1.197219e+02 4.126387e+00 0 0 0 0 0 0 0 0 0 
0 0 0 0 0 0 0 0 0 8.398156e+00 1.879964e+02 7.972756e+02 1.328914e+03 1.351600e+03 1.139613e+03 9.075471e+02 8.169599e+02 9.075471e+02 1.139613e+03 1.351600e+03 1.328914e+03 7.972756e+02 1.879964e+02 8.398156e+00 0 0 0 0 0 0 0 0 
0 0 0 0 0 0 0 0 6.975280e-02 1.384051e+02 7.561460e+02 1.368533e+03 1.130002e+03 5.226562e+02 1.877745e+02 5.737000e+01 2.563238e+01 5.737000e+01 1.877745e+02 5.226562e+02 1.130002e+03 1.368533e+03 7.561460e+02 1.384051e+02 6.975280e-02 0 0 0 0 0 0 0 
0 0 0 0 0 0 0 0 3.502987e+01 5.138189e+02 1.204107e+03 9.878628e+02 2.875708e+02 2.443077e+01 0 0 0 0 0 2.443077e+01 2.875708e+02 9.878628e+02 1.204107e+03 5.138189e+02 3.502987e+01 0 0 0 0 0 0 0 
0 0 0 0 0 0 0 1.019896e+00 1.784949e+02 8.535519e+02 1.005232e+03 3.459310e+02 1.487941e+01 0 0 0 0 0 0 0 1.487941e+01 3.459310e+02 1.005232e+03 8.535519e+02 1.784949e+02 1.019896e+00 0 0 0 0 0 0 
0 0 0 0 0 0 0 1.798425e+01 4.206429e+02 9.053146e+02 5.546861e+02 5.231067e+01 7.975606e-03 0 0 0 0 0 0 0 7.975606e-03 5.231067e+01 5.546861e+02 9.053146e+02 4.206429e+02 1.798425e+01 0 0 0 0 0 0 
0 0 0 0 0 0 0 8.056325e+01 6.715539e+02 8.446603e+02 2.584261e+02 2.281534e+00 0 0 0 0 0 0 0 0 0 2.281534e+00 2.584261e+02 8.446603e+02 6.715539e+02 8.056325e+01 0 0 0 0 0 0 
0 0 0 0 0 0 0 1.515514e+02 7.324430e+02 6.950243e+02 1.141521e+02 0 0 0 0 0 0 0 0 0 0 0 1.141521e+02 6.950243e+02 7.324430e+02 1.515514e+02 0 0 0 0 0 0 
0 0 0 0 0 0 0 2.226811e+02 7.001472e+02 5.139607e+02 3.649462e+01 0 0 0 0 0 0 0 0 0 0 0 3.649462e+01 5.139607e+02 7.001472e+02 2.226811e+02 0 0 0 0 0 0 
0 0 0 0 0 0 0 2.834485e+02 7.308989e+02 4.595928e+02 1.214174e+01 0 0 0 0 0 0 0 0 0 0 0 1.214174e+01 4.595928e+02 7.308989e+02 2.834485e+02 0 0 0 0 0 0 
0 0 0 0 0 0 0 2.894855e+02 7.000655e+02 4.166080e+02 6.027995e+00 0 0 0 0 0 0 0 0 0 0 0 6.027995e+00 4.166080e+02 7.000655e+02 2.894855e+02 0 0 0 0 0 0 
0 0 0 0 0 0 0 2.834485e+02 7.308989e+02 4.595928e+02 1.214174e+01 0 0 0 0 0 0 0 0 0 0 0 1.214174e+01 4.595928e+02 7.308989e+02 2.834485e+02 0 0 0 0 0 0 
0 0 0 0 0 0 0 2.226811e+02 7.001472e+02 5.139607e+02 3.649462e+01 0 0 0 0 0 0 0 0 0 0 0 3.649462e+01 5.139607e+02 7.001472e+02 2.226811e+02 0 0 0 0 0 0 
0 0 0 0 0 0 0 1.515514e+02 7.324430e+02 6.950243e+02 1.141521e+02 0 0 0 0 0 0 0 0 0 0 0 1.141521e+02 6.950243e+02 7.324430e+02 1.515514e+02 0 0 0 0 0 0 
0 0 0 0 0 0 0 8.056325e+01 6.715539e+02 8.446603e+02 2.584261e+02 2.281534e+00 0 0 0 0 0 0 0 0 0 2.281534e+00 2.584261e+02 8.446603e+02 6.715539e+02 8.056325e+01 0 0 0 0 0 0 
0 0 0 0 0 0 0 1.798425e+01 4.206429e+02 9.053146e+02 5.546861e+02 5.231067e+01 7.975606e-03 0 0 0 0 0 0 0 7.975606e-03 5.231067e+01 5.546861e+02 9.053146e+02 4.206429e+02 1.798425e+01 0 0 0 0 0 0 
0 0 0 0 0 0 0 1.019896e+00 1.784949e+02 8.535519e+02 1.005232e+03 3.459310e+02 1.487941e+01 0 0 0 0 0 0 0 1.487941e+01 3.459310e+02 1.005232e+03 8.535519e+02 1.784949e+02 1.019896e+00 0 0 0 0 0 0 
0 0 0 0 0 0 0 0 3.502987e+01 5.138189e+02 1.204107e+03 9.878628e+02 2.875708e+02 2.443077e+01 0 0 0 0 0 2.443077e+01 2.875708e+02 9.878628e+02 1.204107e+03 5.138189e+02 3.502987e+01 0 0 0 0 0 0 0 
0 0 0 0 0 0 0 0 6.975280e-02 1.384051e+02 7.561460e+02 1.368533e+03 1.130002e+03 5.226562e+02 1.877745e+02 5.737000e+01 2.563238e+01 5.737000e+01 1.877745e+02 5.226562e+02 1.130002e+03 1.368533e+03 7.561460e+02 1.384051e+02 6.975280e-02 0 0 0 0 0 0 0 
0 0 0 0 0 0 0 0 0 8.398156e+00 1.879964e+02 7.972756e+02 1.328914e+03 1.351600e+03 1.139613e+03 9.075471e+02 8.169599e+02 9.075471e+02 1.139613e+03 1.351600e+03 1.328914e+03 7.972756e+02 1.879964e+02 8.398156e+00 0 0 0 0 0 0 0 0 
0 0 0 0 0 0 0 0 0 0 4.126387e+00 1.197219e+02 4.881827e+02 9.665741e+02 1.228476e+03 1.264653e+03 1.259236e+03 1.264653e+03 1.228476e+03 9.665741e+02 4.881827e+02 1.197219e+02 4.126387e+00 0 0 0 0 0 0 0 0 0 
0 0 0 0 0 0 0 0 0 0 0 1.605973e-01 1.614218e+01 1.119290e+02 2.761739e+02 4.144168e+02 4.679082e+02 4.144168e+02 2.761739e+02 1.119290e+02 1.614218e+01 1.605973e-01 0 0 0 0 0 0 0 0 0 0 
0 0 0 0 0 0 0 0 0 0 0 0 0 0 0 0 0 0 0 0 0 0 0 0 0 0 0 0 0 0 0 0 
0 0 0 0 0 0 0 0 0 0 0 0 0 0 0 0 0 0 0 0 0 0 0 0 0 0 0 0 0 0 0 0 
0 0 0 0 0 0 0 0 0 0 0 0 0 0 0 0 0 0 0 0 0 0 0 0 0 0 0 0 0 0 0 0 
0 0 0 0 0 0 0 0 0 0 0 0 0 0 0 0 0 0 0 0 0 0 0 0 0 0 0 0 0 0 0 0 
