# vtk DataFile Version 2.0
Comment goes here
ASCII

DATASET STRUCTURED_POINTS
FIELD FieldData 1
TIME 1 1 double
0.58000000
DIMENSIONS    32   32   1

ORIGIN    0.000   0.000   0.000
SPACING   0.03125 0.03125   1.000

POINT_DATA   1024
SCALARS fMag double
LOOKUP_TABLE default

0 0 0 0 0 0 0 0 0 0 0 0 0 0 0 0 0 0 0 0 0 0 0 0 0 0 0 0 0 0 0 0 
0 0 0 0 0 0 0 0 0 0 0 0 0 0 0 0 0 0 0 0 0 0 0 0 0 0 0 0 0 0 0 0 
0 0 0 0 0 0 0 0 0 0 0 0 0 0 0 0 0 0 0 0 0 0 0 0 0 0 0 0 0 0 0 0 
0 0 0 0 0 0 0 0 0 0 0 0 0 0 0 0 0 0 0 0 0 0 0 0 0 0 0 0 0 0 0 0 
0 0 0 0 0 0 0 0 0 0 0 0 0 0 0 0 0 0 0 0 0 0 0 0 0 0 0 0 0 0 0 0 
0 0 0 0 0 0 0 0 0 0 0 0 0 0 0 0 0 0 0 0 0 0 0 0 0 0 0 0 0 0 0 0 
0 0 0 0 0 0 0 0 0 0 0 0 0 0 0 0 0 0 0 0 0 0 0 0 0 0 0 0 0 0 0 0 
0 0 0 0 0 0 0 0 0 0 0 1.395388e-01 4.277198e+00 2.347590e+01 5.832616e+01 8.789680e+01 9.650072e+01 8.789680e+01 5.832616e+01 2.347590e+01 4.277198e+00 1.395388e-01 0 0 0 0 0 0 0 0 0 0 
0 0 0 0 0 0 0 0 0 1.735902e+00 3.104959e+01 1.631257e+02 3.526655e+02 4.948348e+02 5.606048e+02 5.925488e+02 5.859026e+02 5.925488e+02 5.606048e+02 4.948348e+02 3.526655e+02 1.631257e+02 3.104959e+01 1.735902e+00 0 0 0 0 0 0 0 0 
0 0 0 0 0 0 0 3.057673e-01 2.112330e+01 2.004662e+02 5.231489e+02 7.669549e+02 8.302521e+02 7.864700e+02 6.856644e+02 6.303004e+02 5.961555e+02 6.303004e+02 6.856644e+02 7.864700e+02 8.302521e+02 7.669549e+02 5.231489e+02 2.004662e+02 2.112330e+01 3.057673e-01 0 0 0 0 0 0 
0 0 0 0 0 0 0 4.341816e+01 3.608581e+02 8.486209e+02 1.025909e+03 8.191927e+02 5.171273e+02 3.185930e+02 1.833356e+02 1.256426e+02 1.067537e+02 1.256426e+02 1.833356e+02 3.185930e+02 5.171273e+02 8.191927e+02 1.025909e+03 8.486209e+02 3.608581e+02 4.341816e+01 0 0 0 0 0 0 
0 0 0 0 0 0 3.172707e+01 3.754187e+02 1.004857e+03 1.099159e+03 6.227302e+02 2.184751e+02 3.322408e+01 3.905652e+00 0 0 0 0 0 3.905652e+00 3.322408e+01 2.184751e+02 6.227302e+02 1.099159e+03 1.004857e+03 3.754187e+02 3.172707e+01 0 0 0 0 0 
0 0 0 0 0 2.736700e+00 2.697112e+02 1.053083e+03 1.251283e+03 5.450970e+02 8.702400e+01 3.446085e+00 0 0 0 0 0 0 0 0 0 3.446085e+00 8.702400e+01 5.450970e+02 1.251283e+03 1.053083e+03 2.697112e+02 2.736700e+00 0 0 0 0 
0 0 0 0 0 3.913025e+01 7.073025e+02 1.412846e+03 8.455737e+02 1.007408e+02 7.208004e-01 0 0 0 0 0 0 0 0 0 0 0 7.208004e-01 1.007408e+02 8.455737e+02 1.412846e+03 7.073025e+02 3.913025e+01 0 0 0 0 
0 0 0 0 0 1.423177e+02 1.049049e+03 1.270424e+03 3.667879e+02 2.992079e+00 0 0 0 0 0 0 0 0 0 0 0 0 0 2.992079e+00 3.667879e+02 1.270424e+03 1.049049e+03 1.423177e+02 0 0 0 0 
0 0 0 0 0 2.671647e+02 1.198139e+03 1.081399e+03 1.504911e+02 0 0 0 0 0 0 0 0 0 0 0 0 0 0 0 1.504911e+02 1.081399e+03 1.198139e+03 2.671647e+02 0 0 0 0 
0 0 0 0 0 3.220168e+02 1.230009e+03 1.004873e+03 9.688085e+01 0 0 0 0 0 0 0 0 0 0 0 0 0 0 0 9.688085e+01 1.004873e+03 1.230009e+03 3.220168e+02 0 0 0 0 
0 0 0 0 0 2.671647e+02 1.198139e+03 1.081399e+03 1.504911e+02 0 0 0 0 0 0 0 0 0 0 0 0 0 0 0 1.504911e+02 1.081399e+03 1.198139e+03 2.671647e+02 0 0 0 0 
0 0 0 0 0 1.423177e+02 1.049049e+03 1.270424e+03 3.667879e+02 2.992079e+00 0 0 0 0 0 0 0 0 0 0 0 0 0 2.992079e+00 3.667879e+02 1.270424e+03 1.049049e+03 1.423177e+02 0 0 0 0 
0 0 0 0 0 3.913025e+01 7.073025e+02 1.412846e+03 8.455737e+02 1.007408e+02 7.208004e-01 0 0 0 0 0 0 0 0 0 0 0 7.208004e-01 1.007408e+02 8.455737e+02 1.412846e+03 7.073025e+02 3.913025e+01 0 0 0 0 
0 0 0 0 0 2.736700e+00 2.697112e+02 1.053083e+03 1.251283e+03 5.450970e+02 8.702400e+01 3.446085e+00 0 0 0 0 0 0 0 0 0 3.446085e+00 8.702400e+01 5.450970e+02 1.251283e+03 1.053083e+03 2.697112e+02 2.736700e+00 0 0 0 0 
0 0 0 0 0 0 3.172707e+01 3.754187e+02 1.004857e+03 1.099159e+03 6.227302e+02 2.184751e+02 3.322408e+01 3.905652e+00 0 0 0 0 0 3.905652e+00 3.322408e+01 2.184751e+02 6.227302e+02 1.099159e+03 1.004857e+03 3.754187e+02 3.172707e+01 0 0 0 0 0 
0 0 0 0 0 0 0 4.341816e+01 3.608581e+02 8.486209e+02 1.025909e+03 8.191927e+02 5.171273e+02 3.185930e+02 1.833356e+02 1.256426e+02 1.067537e+02 1.256426e+02 1.833356e+02 3.185930e+02 5.171273e+02 8.191927e+02 1.025909e+03 8.486209e+02 3.608581e+02 4.341816e+01 0 0 0 0 0 0 
0 0 0 0 0 0 0 3.057673e-01 2.112330e+01 2.004662e+02 5.231489e+02 7.669549e+02 8.302521e+02 7.864700e+02 6.856644e+02 6.303004e+02 5.961555e+02 6.303004e+02 6.856644e+02 7.864700e+02 8.302521e+02 7.669549e+02 5.231489e+02 2.004662e+02 2.112330e+01 3.057673e-01 0 0 0 0 0 0 
0 0 0 0 0 0 0 0 0 1.735902e+00 3.104959e+01 1.631257e+02 3.526655e+02 4.948348e+02 5.606048e+02 5.925488e+02 5.859026e+02 5.925488e+02 5.606048e+02 4.948348e+02 3.526655e+02 1.631257e+02 3.104959e+01 1.735902e+00 0 0 0 0 0 0 0 0 
0 0 0 0 0 0 0 0 0 0 0 1.395388e-01 4.277198e+00 2.347590e+01 5.832616e+01 8.789680e+01 9.650072e+01 8.789680e+01 5.832616e+01 2.347590e+01 4.277198e+00 1.395388e-01 0 0 0 0 0 0 0 0 0 0 
0 0 0 0 0 0 0 0 0 0 0 0 0 0 0 0 0 0 0 0 0 0 0 0 0 0 0 0 0 0 0 0 
0 0 0 0 0 0 0 0 0 0 0 0 0 0 0 0 0 0 0 0 0 0 0 0 0 0 0 0 0 0 0 0 
0 0 0 0 0 0 0 0 0 0 0 0 0 0 0 0 0 0 0 0 0 0 0 0 0 0 0 0 0 0 0 0 
0 0 0 0 0 0 0 0 0 0 0 0 0 0 0 0 0 0 0 0 0 0 0 0 0 0 0 0 0 0 0 0 
0 0 0 0 0 0 0 0 0 0 0 0 0 0 0 0 0 0 0 0 0 0 0 0 0 0 0 0 0 0 0 0 
0 0 0 0 0 0 0 0 0 0 0 0 0 0 0 0 0 0 0 0 0 0 0 0 0 0 0 0 0 0 0 0 
