# vtk DataFile Version 2.0
Comment goes here
ASCII

DATASET STRUCTURED_POINTS
FIELD FieldData 1
TIME 1 1 double
0.32000000
DIMENSIONS    32   32   1

ORIGIN    0.000   0.000   0.000
SPACING   0.03125 0.03125   1.000

POINT_DATA   1024
SCALARS fMag double
LOOKUP_TABLE default

0 0 0 0 0 0 0 0 0 0 0 0 0 0 0 0 0 0 0 0 0 0 0 0 0 0 0 0 0 0 0 0 
0 0 0 0 0 0 0 0 0 0 0 0 0 0 0 0 0 0 0 0 0 0 0 0 0 0 0 0 0 0 0 0 
0 0 0 0 0 0 0 0 0 0 0 0 0 0 0 0 0 0 0 0 0 0 0 0 0 0 0 0 0 0 0 0 
0 0 0 0 0 0 0 0 0 0 0 0 0 0 0 0 0 0 0 0 0 0 0 0 0 0 0 0 0 0 0 0 
0 0 0 0 0 0 0 0 0 0 0 0 3.811616e+00 6.370002e+01 2.362364e+02 4.412702e+02 5.293057e+02 4.412702e+02 2.362364e+02 6.370002e+01 3.811616e+00 0 0 0 0 0 0 0 0 0 0 0 
0 0 0 0 0 0 0 0 0 0 0 1.731122e+01 2.235454e+02 7.601247e+02 1.283430e+03 1.480307e+03 1.501049e+03 1.480307e+03 1.283430e+03 7.601247e+02 2.235454e+02 1.731122e+01 0 0 0 0 0 0 0 0 0 0 
0 0 0 0 0 0 0 0 0 0 1.743193e+01 2.763475e+02 9.573789e+02 1.463292e+03 1.402219e+03 1.144355e+03 1.015034e+03 1.144355e+03 1.402219e+03 1.463292e+03 9.573789e+02 2.763475e+02 1.743193e+01 0 0 0 0 0 0 0 0 0 
0 0 0 0 0 0 0 0 0 3.859265e+00 2.075519e+02 8.920455e+02 1.338966e+03 9.315487e+02 3.634320e+02 1.053809e+02 4.329042e+01 1.053809e+02 3.634320e+02 9.315487e+02 1.338966e+03 8.920455e+02 2.075519e+02 3.859265e+00 0 0 0 0 0 0 0 0 
0 0 0 0 0 0 0 0 0 6.818457e+01 6.107927e+02 1.177162e+03 7.943770e+02 1.675826e+02 6.822098e+00 0 0 0 6.822098e+00 1.675826e+02 7.943770e+02 1.177162e+03 6.107927e+02 6.818457e+01 0 0 0 0 0 0 0 0 
0 0 0 0 0 0 0 0 4.188163e+00 2.759117e+02 9.222826e+02 8.604511e+02 2.141373e+02 4.912326e+00 0 0 0 0 0 4.912326e+00 2.141373e+02 8.604511e+02 9.222826e+02 2.759117e+02 4.188163e+00 0 0 0 0 0 0 0 
0 0 0 0 0 0 0 0 3.605970e+01 5.266464e+02 9.218936e+02 4.539985e+02 2.336939e+01 0 0 0 0 0 0 0 2.336939e+01 4.539985e+02 9.218936e+02 5.266464e+02 3.605970e+01 0 0 0 0 0 0 0 
0 0 0 0 0 0 0 0 1.271854e+02 6.852796e+02 7.284937e+02 1.706757e+02 7.521252e-01 0 0 0 0 0 0 0 7.521252e-01 1.706757e+02 7.284937e+02 6.852796e+02 1.271854e+02 0 0 0 0 0 0 0 
0 0 0 0 0 0 0 9.690574e-03 2.789558e+02 8.124066e+02 5.795755e+02 4.614069e+01 0 0 0 0 0 0 0 0 0 4.614069e+01 5.795755e+02 8.124066e+02 2.789558e+02 9.690574e-03 0 0 0 0 0 0 
0 0 0 0 0 0 0 3.012688e+00 3.905673e+02 8.130753e+02 4.325903e+02 7.749985e+00 0 0 0 0 0 0 0 0 0 7.749985e+00 4.325903e+02 8.130753e+02 3.905673e+02 3.012688e+00 0 0 0 0 0 0 
0 0 0 0 0 0 0 1.194585e+01 4.264657e+02 6.917072e+02 2.778747e+02 1.170149e-01 0 0 0 0 0 0 0 0 0 1.170149e-01 2.778747e+02 6.917072e+02 4.264657e+02 1.194585e+01 0 0 0 0 0 0 
0 0 0 0 0 0 0 2.502214e+01 4.794580e+02 6.781718e+02 2.237412e+02 0 0 0 0 0 0 0 0 0 0 0 2.237412e+02 6.781718e+02 4.794580e+02 2.502214e+01 0 0 0 0 0 0 
0 0 0 0 0 0 0 3.178928e+01 5.078790e+02 6.886291e+02 2.125395e+02 0 0 0 0 0 0 0 0 0 0 0 2.125395e+02 6.886291e+02 5.078790e+02 3.178928e+01 0 0 0 0 0 0 
0 0 0 0 0 0 0 2.502214e+01 4.794580e+02 6.781718e+02 2.237412e+02 0 0 0 0 0 0 0 0 0 0 0 2.237412e+02 6.781718e+02 4.794580e+02 2.502214e+01 0 0 0 0 0 0 
0 0 0 0 0 0 0 1.194585e+01 4.264657e+02 6.917072e+02 2.778747e+02 1.170149e-01 0 0 0 0 0 0 0 0 0 1.170149e-01 2.778747e+02 6.917072e+02 4.264657e+02 1.194585e+01 0 0 0 0 0 0 
0 0 0 0 0 0 0 3.012688e+00 3.905673e+02 8.130753e+02 4.325903e+02 7.749985e+00 0 0 0 0 0 0 0 0 0 7.749985e+00 4.325903e+02 8.130753e+02 3.905673e+02 3.012688e+00 0 0 0 0 0 0 
0 0 0 0 0 0 0 9.690574e-03 2.789558e+02 8.124066e+02 5.795755e+02 4.614069e+01 0 0 0 0 0 0 0 0 0 4.614069e+01 5.795755e+02 8.124066e+02 2.789558e+02 9.690574e-03 0 0 0 0 0 0 
0 0 0 0 0 0 0 0 1.271854e+02 6.852796e+02 7.284937e+02 1.706757e+02 7.521252e-01 0 0 0 0 0 0 0 7.521252e-01 1.706757e+02 7.284937e+02 6.852796e+02 1.271854e+02 0 0 0 0 0 0 0 
0 0 0 0 0 0 0 0 3.605970e+01 5.266464e+02 9.218936e+02 4.539985e+02 2.336939e+01 0 0 0 0 0 0 0 2.336939e+01 4.539985e+02 9.218936e+02 5.266464e+02 3.605970e+01 0 0 0 0 0 0 0 
0 0 0 0 0 0 0 0 4.188163e+00 2.759117e+02 9.222826e+02 8.604511e+02 2.141373e+02 4.912326e+00 0 0 0 0 0 4.912326e+00 2.141373e+02 8.604511e+02 9.222826e+02 2.759117e+02 4.188163e+00 0 0 0 0 0 0 0 
0 0 0 0 0 0 0 0 0 6.818457e+01 6.107927e+02 1.177162e+03 7.943770e+02 1.675826e+02 6.822098e+00 0 0 0 6.822098e+00 1.675826e+02 7.943770e+02 1.177162e+03 6.107927e+02 6.818457e+01 0 0 0 0 0 0 0 0 
0 0 0 0 0 0 0 0 0 3.859265e+00 2.075519e+02 8.920455e+02 1.338966e+03 9.315487e+02 3.634320e+02 1.053809e+02 4.329042e+01 1.053809e+02 3.634320e+02 9.315487e+02 1.338966e+03 8.920455e+02 2.075519e+02 3.859265e+00 0 0 0 0 0 0 0 0 
0 0 0 0 0 0 0 0 0 0 1.743193e+01 2.763475e+02 9.573789e+02 1.463292e+03 1.402219e+03 1.144355e+03 1.015034e+03 1.144355e+03 1.402219e+03 1.463292e+03 9.573789e+02 2.763475e+02 1.743193e+01 0 0 0 0 0 0 0 0 0 
0 0 0 0 0 0 0 0 0 0 0 1.731122e+01 2.235454e+02 7.601247e+02 1.283430e+03 1.480307e+03 1.501049e+03 1.480307e+03 1.283430e+03 7.601247e+02 2.235454e+02 1.731122e+01 0 0 0 0 0 0 0 0 0 0 
0 0 0 0 0 0 0 0 0 0 0 0 3.811616e+00 6.370002e+01 2.362364e+02 4.412702e+02 5.293057e+02 4.412702e+02 2.362364e+02 6.370002e+01 3.811616e+00 0 0 0 0 0 0 0 0 0 0 0 
0 0 0 0 0 0 0 0 0 0 0 0 0 0 0 0 0 0 0 0 0 0 0 0 0 0 0 0 0 0 0 0 
0 0 0 0 0 0 0 0 0 0 0 0 0 0 0 0 0 0 0 0 0 0 0 0 0 0 0 0 0 0 0 0 
0 0 0 0 0 0 0 0 0 0 0 0 0 0 0 0 0 0 0 0 0 0 0 0 0 0 0 0 0 0 0 0 
