# vtk DataFile Version 2.0
Comment goes here
ASCII

DATASET STRUCTURED_POINTS
FIELD FieldData 1
TIME 1 1 double
0.38000000
DIMENSIONS    32   32   1

ORIGIN    0.000   0.000   0.000
SPACING   0.03125 0.03125   1.000

POINT_DATA   1024
SCALARS fMag double
LOOKUP_TABLE default

0 0 0 0 0 0 0 0 0 0 0 0 0 0 0 0 0 0 0 0 0 0 0 0 0 0 0 0 0 0 0 0 
0 0 0 0 0 0 0 0 0 0 0 0 0 0 0 0 0 0 0 0 0 0 0 0 0 0 0 0 0 0 0 0 
0 0 0 0 0 0 0 0 0 0 0 0 0 0 0 0 0 0 0 0 0 0 0 0 0 0 0 0 0 0 0 0 
0 0 0 0 0 0 0 0 0 0 0 0 0 0 0 0 0 0 0 0 0 0 0 0 0 0 0 0 0 0 0 0 
0 0 0 0 0 0 0 0 0 0 0 0 0 0 0 0 0 0 0 0 0 0 0 0 0 0 0 0 0 0 0 0 
0 0 0 0 0 0 0 0 0 0 0 0 0 0 0 0 0 0 0 0 0 0 0 0 0 0 0 0 0 0 0 0 
0 0 0 0 0 0 0 0 0 0 0 0 0 0 0 0 0 0 0 0 0 0 0 0 0 0 0 0 0 0 0 0 
0 0 0 0 0 0 0 0 0 0 7.889696e-01 1.720827e+01 7.950442e+01 1.666111e+02 2.382233e+02 2.728773e+02 2.772824e+02 2.728773e+02 2.382233e+02 1.666111e+02 7.950442e+01 1.720827e+01 7.889696e-01 0 0 0 0 0 0 0 0 0 
0 0 0 0 0 0 0 0 4.252786e-02 3.259777e+01 1.917226e+02 4.350386e+02 6.482461e+02 7.411721e+02 7.295159e+02 6.869956e+02 6.516016e+02 6.869956e+02 7.295159e+02 7.411721e+02 6.482461e+02 4.350386e+02 1.917226e+02 3.259777e+01 4.252786e-02 0 0 0 0 0 0 0 
0 0 0 0 0 0 0 4.800073e+00 1.094923e+02 4.721485e+02 9.079674e+02 9.812817e+02 8.264744e+02 6.758778e+02 5.253845e+02 4.239371e+02 3.784866e+02 4.239371e+02 5.253845e+02 6.758778e+02 8.264744e+02 9.812817e+02 9.079674e+02 4.721485e+02 1.094923e+02 4.800073e+00 0 0 0 0 0 0 
0 0 0 0 0 0 1.522705e+00 1.167295e+02 6.603450e+02 1.174570e+03 1.078356e+03 6.322957e+02 2.598298e+02 1.013696e+02 3.409098e+01 9.817837e+00 4.167465e+00 9.817837e+00 3.409098e+01 1.013696e+02 2.598298e+02 6.322957e+02 1.078356e+03 1.174570e+03 6.603450e+02 1.167295e+02 1.522705e+00 0 0 0 0 0 
0 0 0 0 0 0 6.321221e+01 5.980420e+02 1.289606e+03 1.074601e+03 3.879334e+02 6.860779e+01 2.128749e+00 0 0 0 0 0 0 0 2.128749e+00 6.860779e+01 3.879334e+02 1.074601e+03 1.289606e+03 5.980420e+02 6.321221e+01 0 0 0 0 0 
0 0 0 0 0 4.713202e+00 3.141886e+02 1.151792e+03 1.207862e+03 3.924736e+02 2.780160e+01 0 0 0 0 0 0 0 0 0 0 0 2.780160e+01 3.924736e+02 1.207862e+03 1.151792e+03 3.141886e+02 4.713202e+00 0 0 0 0 
0 0 0 0 0 4.592328e+01 7.495168e+02 1.344793e+03 6.956218e+02 5.146376e+01 8.041319e-02 0 0 0 0 0 0 0 0 0 0 0 8.041319e-02 5.146376e+01 6.956218e+02 1.344793e+03 7.495168e+02 4.592328e+01 0 0 0 0 
0 0 0 0 0 1.396835e+02 1.062942e+03 1.253796e+03 3.328291e+02 1.671515e+00 0 0 0 0 0 0 0 0 0 0 0 0 0 1.671515e+00 3.328291e+02 1.253796e+03 1.062942e+03 1.396835e+02 0 0 0 0 
0 0 0 0 0 2.435506e+02 1.151584e+03 1.063224e+03 1.552198e+02 0 0 0 0 0 0 0 0 0 0 0 0 0 0 0 1.552198e+02 1.063224e+03 1.151584e+03 2.435506e+02 0 0 0 0 
0 0 0 0 0 2.900874e+02 1.175350e+03 9.912064e+02 1.059435e+02 0 0 0 0 0 0 0 0 0 0 0 0 0 0 0 1.059435e+02 9.912064e+02 1.175350e+03 2.900874e+02 0 0 0 0 
0 0 0 0 0 2.435506e+02 1.151584e+03 1.063224e+03 1.552198e+02 0 0 0 0 0 0 0 0 0 0 0 0 0 0 0 1.552198e+02 1.063224e+03 1.151584e+03 2.435506e+02 0 0 0 0 
0 0 0 0 0 1.396835e+02 1.062942e+03 1.253796e+03 3.328291e+02 1.671515e+00 0 0 0 0 0 0 0 0 0 0 0 0 0 1.671515e+00 3.328291e+02 1.253796e+03 1.062942e+03 1.396835e+02 0 0 0 0 
0 0 0 0 0 4.592328e+01 7.495168e+02 1.344793e+03 6.956218e+02 5.146376e+01 8.041319e-02 0 0 0 0 0 0 0 0 0 0 0 8.041319e-02 5.146376e+01 6.956218e+02 1.344793e+03 7.495168e+02 4.592328e+01 0 0 0 0 
0 0 0 0 0 4.713202e+00 3.141886e+02 1.151792e+03 1.207862e+03 3.924736e+02 2.780160e+01 0 0 0 0 0 0 0 0 0 0 0 2.780160e+01 3.924736e+02 1.207862e+03 1.151792e+03 3.141886e+02 4.713202e+00 0 0 0 0 
0 0 0 0 0 0 6.321221e+01 5.980420e+02 1.289606e+03 1.074601e+03 3.879334e+02 6.860779e+01 2.128749e+00 0 0 0 0 0 0 0 2.128749e+00 6.860779e+01 3.879334e+02 1.074601e+03 1.289606e+03 5.980420e+02 6.321221e+01 0 0 0 0 0 
0 0 0 0 0 0 1.522705e+00 1.167295e+02 6.603450e+02 1.174570e+03 1.078356e+03 6.322957e+02 2.598298e+02 1.013696e+02 3.409098e+01 9.817837e+00 4.167465e+00 9.817837e+00 3.409098e+01 1.013696e+02 2.598298e+02 6.322957e+02 1.078356e+03 1.174570e+03 6.603450e+02 1.167295e+02 1.522705e+00 0 0 0 0 0 
0 0 0 0 0 0 0 4.800073e+00 1.094923e+02 4.721485e+02 9.079674e+02 9.812817e+02 8.264744e+02 6.758778e+02 5.253845e+02 4.239371e+02 3.784866e+02 4.239371e+02 5.253845e+02 6.758778e+02 8.264744e+02 9.812817e+02 9.079674e+02 4.721485e+02 1.094923e+02 4.800073e+00 0 0 0 0 0 0 
0 0 0 0 0 0 0 0 4.252786e-02 3.259777e+01 1.917226e+02 4.350386e+02 6.482461e+02 7.411721e+02 7.295159e+02 6.869956e+02 6.516016e+02 6.869956e+02 7.295159e+02 7.411721e+02 6.482461e+02 4.350386e+02 1.917226e+02 3.259777e+01 4.252786e-02 0 0 0 0 0 0 0 
0 0 0 0 0 0 0 0 0 0 7.889696e-01 1.720827e+01 7.950442e+01 1.666111e+02 2.382233e+02 2.728773e+02 2.772824e+02 2.728773e+02 2.382233e+02 1.666111e+02 7.950442e+01 1.720827e+01 7.889696e-01 0 0 0 0 0 0 0 0 0 
0 0 0 0 0 0 0 0 0 0 0 0 0 0 0 0 0 0 0 0 0 0 0 0 0 0 0 0 0 0 0 0 
0 0 0 0 0 0 0 0 0 0 0 0 0 0 0 0 0 0 0 0 0 0 0 0 0 0 0 0 0 0 0 0 
0 0 0 0 0 0 0 0 0 0 0 0 0 0 0 0 0 0 0 0 0 0 0 0 0 0 0 0 0 0 0 0 
0 0 0 0 0 0 0 0 0 0 0 0 0 0 0 0 0 0 0 0 0 0 0 0 0 0 0 0 0 0 0 0 
0 0 0 0 0 0 0 0 0 0 0 0 0 0 0 0 0 0 0 0 0 0 0 0 0 0 0 0 0 0 0 0 
0 0 0 0 0 0 0 0 0 0 0 0 0 0 0 0 0 0 0 0 0 0 0 0 0 0 0 0 0 0 0 0 
