# vtk DataFile Version 2.0
Comment goes here
ASCII

DATASET STRUCTURED_POINTS
FIELD FieldData 1
TIME 1 1 double
1.28000000
DIMENSIONS    32   32   1

ORIGIN    0.000   0.000   0.000
SPACING   0.03125 0.03125   1.000

POINT_DATA   1024
SCALARS fMag double
LOOKUP_TABLE default

0 0 0 0 0 0 0 0 0 0 0 0 0 0 0 0 0 0 0 0 0 0 0 0 0 0 0 0 0 0 0 0 
0 0 0 0 0 0 0 0 0 0 0 0 0 0 0 0 0 0 0 0 0 0 0 0 0 0 0 0 0 0 0 0 
0 0 0 0 0 0 0 0 0 0 0 0 0 0 0 0 0 0 0 0 0 0 0 0 0 0 0 0 0 0 0 0 
0 0 0 0 0 0 0 0 0 0 0 0 0 0 0 0 0 0 0 0 0 0 0 0 0 0 0 0 0 0 0 0 
0 0 0 0 0 0 0 0 0 0 0 0 0 0 0 0 0 0 0 0 0 0 0 0 0 0 0 0 0 0 0 0 
0 0 0 0 0 0 0 0 0 0 0 0 0 0 0 0 0 0 0 0 0 0 0 0 0 0 0 0 0 0 0 0 
0 0 0 0 0 0 0 0 0 0 0 0 0 0 0 0 0 0 0 0 0 0 0 0 0 0 0 0 0 0 0 0 
0 0 0 0 0 0 0 0 0 0 0 0 1.823984e-02 3.001737e+00 2.985396e+01 5.808537e+01 6.409793e+01 5.808537e+01 2.985396e+01 3.001737e+00 1.823984e-02 0 0 0 0 0 0 0 0 0 0 0 
0 0 0 0 0 0 0 0 0 0 0 1.279447e+01 9.876309e+01 3.002850e+02 5.233783e+02 6.676907e+02 6.841437e+02 6.676907e+02 5.233783e+02 3.002850e+02 9.876309e+01 1.279447e+01 0 0 0 0 0 0 0 0 0 0 
0 0 0 0 0 0 0 0 0 1.213226e-01 2.682855e+01 2.312130e+02 6.243619e+02 9.038509e+02 9.180057e+02 8.462486e+02 8.430942e+02 8.462486e+02 9.180057e+02 9.038509e+02 6.243619e+02 2.312130e+02 2.682855e+01 1.213226e-01 0 0 0 0 0 0 0 0 
0 0 0 0 0 0 0 0 0 1.975731e+01 2.769021e+02 7.529043e+02 9.465665e+02 7.263551e+02 4.276761e+02 2.426423e+02 2.230484e+02 2.426423e+02 4.276761e+02 7.263551e+02 9.465665e+02 7.529043e+02 2.769021e+02 1.975731e+01 0 0 0 0 0 0 0 0 
0 0 0 0 0 0 0 0 6.633334e+00 1.857489e+02 7.187774e+02 9.230332e+02 4.972113e+02 1.238585e+02 1.270517e+01 7.284768e-01 0 7.284768e-01 1.270517e+01 1.238585e+02 4.972113e+02 9.230332e+02 7.187774e+02 1.857489e+02 6.633334e+00 0 0 0 0 0 0 0 
0 0 0 0 0 0 0 0 5.670768e+01 5.173793e+02 9.175887e+02 5.329072e+02 8.294252e+01 1.808256e+00 0 0 0 0 0 1.808256e+00 8.294252e+01 5.329072e+02 9.175887e+02 5.173793e+02 5.670768e+01 0 0 0 0 0 0 0 
0 0 0 0 0 0 0 7.710381e-02 1.734368e+02 7.720058e+02 7.740848e+02 1.778736e+02 2.670109e+00 0 0 0 0 0 0 0 2.670109e+00 1.778736e+02 7.740848e+02 7.720058e+02 1.734368e+02 7.710381e-02 0 0 0 0 0 0 
0 0 0 0 0 0 0 1.779878e+00 3.563113e+02 8.556956e+02 5.359578e+02 3.446566e+01 0 0 0 0 0 0 0 0 0 3.446566e+01 5.359578e+02 8.556956e+02 3.563113e+02 1.779878e+00 0 0 0 0 0 0 
0 0 0 0 0 0 0 6.917305e+00 5.010854e+02 8.629412e+02 3.736964e+02 4.937024e+00 0 0 0 0 0 0 0 0 0 4.937024e+00 3.736964e+02 8.629412e+02 5.010854e+02 6.917305e+00 0 0 0 0 0 0 
0 0 0 0 0 0 0 1.001868e+01 5.163427e+02 8.496143e+02 3.432903e+02 0 0 0 0 0 0 0 0 0 0 0 3.432903e+02 8.496143e+02 5.163427e+02 1.001868e+01 0 0 0 0 0 0 
0 0 0 0 0 0 0 6.917305e+00 5.010854e+02 8.629412e+02 3.736964e+02 4.937024e+00 0 0 0 0 0 0 0 0 0 4.937024e+00 3.736964e+02 8.629412e+02 5.010854e+02 6.917305e+00 0 0 0 0 0 0 
0 0 0 0 0 0 0 1.779878e+00 3.563113e+02 8.556956e+02 5.359578e+02 3.446566e+01 0 0 0 0 0 0 0 0 0 3.446566e+01 5.359578e+02 8.556956e+02 3.563113e+02 1.779878e+00 0 0 0 0 0 0 
0 0 0 0 0 0 0 7.710381e-02 1.734368e+02 7.720058e+02 7.740848e+02 1.778736e+02 2.670109e+00 0 0 0 0 0 0 0 2.670109e+00 1.778736e+02 7.740848e+02 7.720058e+02 1.734368e+02 7.710381e-02 0 0 0 0 0 0 
0 0 0 0 0 0 0 0 5.670768e+01 5.173793e+02 9.175887e+02 5.329072e+02 8.294252e+01 1.808256e+00 0 0 0 0 0 1.808256e+00 8.294252e+01 5.329072e+02 9.175887e+02 5.173793e+02 5.670768e+01 0 0 0 0 0 0 0 
0 0 0 0 0 0 0 0 6.633334e+00 1.857489e+02 7.187774e+02 9.230332e+02 4.972113e+02 1.238585e+02 1.270517e+01 7.284768e-01 0 7.284768e-01 1.270517e+01 1.238585e+02 4.972113e+02 9.230332e+02 7.187774e+02 1.857489e+02 6.633334e+00 0 0 0 0 0 0 0 
0 0 0 0 0 0 0 0 0 1.975731e+01 2.769021e+02 7.529043e+02 9.465665e+02 7.263551e+02 4.276761e+02 2.426423e+02 2.230484e+02 2.426423e+02 4.276761e+02 7.263551e+02 9.465665e+02 7.529043e+02 2.769021e+02 1.975731e+01 0 0 0 0 0 0 0 0 
0 0 0 0 0 0 0 0 0 1.213226e-01 2.682855e+01 2.312130e+02 6.243619e+02 9.038509e+02 9.180057e+02 8.462486e+02 8.430942e+02 8.462486e+02 9.180057e+02 9.038509e+02 6.243619e+02 2.312130e+02 2.682855e+01 1.213226e-01 0 0 0 0 0 0 0 0 
0 0 0 0 0 0 0 0 0 0 0 1.279447e+01 9.876309e+01 3.002850e+02 5.233783e+02 6.676907e+02 6.841437e+02 6.676907e+02 5.233783e+02 3.002850e+02 9.876309e+01 1.279447e+01 0 0 0 0 0 0 0 0 0 0 
0 0 0 0 0 0 0 0 0 0 0 0 1.823984e-02 3.001737e+00 2.985396e+01 5.808537e+01 6.409793e+01 5.808537e+01 2.985396e+01 3.001737e+00 1.823984e-02 0 0 0 0 0 0 0 0 0 0 0 
0 0 0 0 0 0 0 0 0 0 0 0 0 0 0 0 0 0 0 0 0 0 0 0 0 0 0 0 0 0 0 0 
0 0 0 0 0 0 0 0 0 0 0 0 0 0 0 0 0 0 0 0 0 0 0 0 0 0 0 0 0 0 0 0 
0 0 0 0 0 0 0 0 0 0 0 0 0 0 0 0 0 0 0 0 0 0 0 0 0 0 0 0 0 0 0 0 
0 0 0 0 0 0 0 0 0 0 0 0 0 0 0 0 0 0 0 0 0 0 0 0 0 0 0 0 0 0 0 0 
0 0 0 0 0 0 0 0 0 0 0 0 0 0 0 0 0 0 0 0 0 0 0 0 0 0 0 0 0 0 0 0 
0 0 0 0 0 0 0 0 0 0 0 0 0 0 0 0 0 0 0 0 0 0 0 0 0 0 0 0 0 0 0 0 
