# vtk DataFile Version 2.0
Comment goes here
ASCII

DATASET STRUCTURED_POINTS
FIELD FieldData 1
TIME 1 1 double
0.36000000
DIMENSIONS    32   32   1

ORIGIN    0.000   0.000   0.000
SPACING   0.03125 0.03125   1.000

POINT_DATA   1024
SCALARS fMag double
LOOKUP_TABLE default

0 0 0 0 0 0 0 0 0 0 0 0 0 0 0 0 0 0 0 0 0 0 0 0 0 0 0 0 0 0 0 0 
0 0 0 0 0 0 0 0 0 0 0 0 0 0 0 0 0 0 0 0 0 0 0 0 0 0 0 0 0 0 0 0 
0 0 0 0 0 0 0 0 0 0 0 0 0 0 0 0 0 0 0 0 0 0 0 0 0 0 0 0 0 0 0 0 
0 0 0 0 0 0 0 0 0 0 0 0 0 0 0 0 0 0 0 0 0 0 0 0 0 0 0 0 0 0 0 0 
0 0 0 0 0 0 0 0 0 0 0 0 0 0 0 0 0 0 0 0 0 0 0 0 0 0 0 0 0 0 0 0 
0 0 0 0 0 0 0 0 0 0 0 0 0 4.527717e+00 2.717738e+01 6.719753e+01 8.932428e+01 6.719753e+01 2.717738e+01 4.527717e+00 0 0 0 0 0 0 0 0 0 0 0 0 
0 0 0 0 0 0 0 0 0 0 5.869808e-01 2.790553e+01 1.763238e+02 4.495144e+02 7.159470e+02 8.660395e+02 9.140871e+02 8.660395e+02 7.159470e+02 4.495144e+02 1.763238e+02 2.790553e+01 5.869808e-01 0 0 0 0 0 0 0 0 0 
0 0 0 0 0 0 0 0 0 1.799298e+00 8.172214e+01 4.483269e+02 9.844918e+02 1.239220e+03 1.221388e+03 1.142775e+03 1.111780e+03 1.142775e+03 1.221388e+03 1.239220e+03 9.844918e+02 4.483269e+02 8.172214e+01 1.799298e+00 0 0 0 0 0 0 0 0 
0 0 0 0 0 0 0 0 1.166661e+00 1.125011e+02 6.124197e+02 1.179747e+03 1.239762e+03 8.962713e+02 5.430451e+02 3.441334e+02 2.870171e+02 3.441334e+02 5.430451e+02 8.962713e+02 1.239762e+03 1.179747e+03 6.124197e+02 1.125011e+02 1.166661e+00 0 0 0 0 0 0 0 
0 0 0 0 0 0 0 1.150369e-02 4.773897e+01 5.112527e+02 1.178342e+03 1.088043e+03 4.687164e+02 1.024925e+02 1.058035e+01 1.285045e-01 0 1.285045e-01 1.058035e+01 1.024925e+02 4.687164e+02 1.088043e+03 1.178342e+03 5.112527e+02 4.773897e+01 1.150369e-02 0 0 0 0 0 0 
0 0 0 0 0 0 0 4.769302e+00 2.605984e+02 9.547422e+02 1.038537e+03 3.769463e+02 3.799664e+01 8.652806e-02 0 0 0 0 0 8.652806e-02 3.799664e+01 3.769463e+02 1.038537e+03 9.547422e+02 2.605984e+02 4.769302e+00 0 0 0 0 0 0 
0 0 0 0 0 0 0 5.918905e+01 6.281791e+02 1.044702e+03 5.267210e+02 4.875704e+01 0 0 0 0 0 0 0 0 0 4.875704e+01 5.267210e+02 1.044702e+03 6.281791e+02 5.918905e+01 0 0 0 0 0 0 
0 0 0 0 0 0 0 1.736800e+02 8.245035e+02 8.209713e+02 1.709782e+02 8.544738e-01 0 0 0 0 0 0 0 0 0 8.544738e-01 1.709782e+02 8.209713e+02 8.245035e+02 1.736800e+02 0 0 0 0 0 0 
0 0 0 0 0 0 2.024440e+00 3.345235e+02 8.417918e+02 5.467709e+02 3.732078e+01 0 0 0 0 0 0 0 0 0 0 0 3.732078e+01 5.467709e+02 8.417918e+02 3.345235e+02 2.024440e+00 0 0 0 0 0 
0 0 0 0 0 0 1.071925e+01 4.954614e+02 8.695514e+02 3.877613e+02 2.923651e+00 0 0 0 0 0 0 0 0 0 0 0 2.923651e+00 3.877613e+02 8.695514e+02 4.954614e+02 1.071925e+01 0 0 0 0 0 
0 0 0 0 0 0 2.491368e+01 5.563071e+02 8.176301e+02 2.862731e+02 3.516269e-02 0 0 0 0 0 0 0 0 0 0 0 3.516269e-02 2.862731e+02 8.176301e+02 5.563071e+02 2.491368e+01 0 0 0 0 0 
0 0 0 0 0 0 3.227805e+01 5.488043e+02 7.550250e+02 2.384988e+02 0 0 0 0 0 0 0 0 0 0 0 0 0 2.384988e+02 7.550250e+02 5.488043e+02 3.227805e+01 0 0 0 0 0 
0 0 0 0 0 0 2.491368e+01 5.563071e+02 8.176301e+02 2.862731e+02 3.516269e-02 0 0 0 0 0 0 0 0 0 0 0 3.516269e-02 2.862731e+02 8.176301e+02 5.563071e+02 2.491368e+01 0 0 0 0 0 
0 0 0 0 0 0 1.071925e+01 4.954614e+02 8.695514e+02 3.877613e+02 2.923651e+00 0 0 0 0 0 0 0 0 0 0 0 2.923651e+00 3.877613e+02 8.695514e+02 4.954614e+02 1.071925e+01 0 0 0 0 0 
0 0 0 0 0 0 2.024440e+00 3.345235e+02 8.417918e+02 5.467709e+02 3.732078e+01 0 0 0 0 0 0 0 0 0 0 0 3.732078e+01 5.467709e+02 8.417918e+02 3.345235e+02 2.024440e+00 0 0 0 0 0 
0 0 0 0 0 0 0 1.736800e+02 8.245035e+02 8.209713e+02 1.709782e+02 8.544738e-01 0 0 0 0 0 0 0 0 0 8.544738e-01 1.709782e+02 8.209713e+02 8.245035e+02 1.736800e+02 0 0 0 0 0 0 
0 0 0 0 0 0 0 5.918905e+01 6.281791e+02 1.044702e+03 5.267210e+02 4.875704e+01 0 0 0 0 0 0 0 0 0 4.875704e+01 5.267210e+02 1.044702e+03 6.281791e+02 5.918905e+01 0 0 0 0 0 0 
0 0 0 0 0 0 0 4.769302e+00 2.605984e+02 9.547422e+02 1.038537e+03 3.769463e+02 3.799664e+01 8.652806e-02 0 0 0 0 0 8.652806e-02 3.799664e+01 3.769463e+02 1.038537e+03 9.547422e+02 2.605984e+02 4.769302e+00 0 0 0 0 0 0 
0 0 0 0 0 0 0 1.150369e-02 4.773897e+01 5.112527e+02 1.178342e+03 1.088043e+03 4.687164e+02 1.024925e+02 1.058035e+01 1.285045e-01 0 1.285045e-01 1.058035e+01 1.024925e+02 4.687164e+02 1.088043e+03 1.178342e+03 5.112527e+02 4.773897e+01 1.150369e-02 0 0 0 0 0 0 
0 0 0 0 0 0 0 0 1.166661e+00 1.125011e+02 6.124197e+02 1.179747e+03 1.239762e+03 8.962713e+02 5.430451e+02 3.441334e+02 2.870171e+02 3.441334e+02 5.430451e+02 8.962713e+02 1.239762e+03 1.179747e+03 6.124197e+02 1.125011e+02 1.166661e+00 0 0 0 0 0 0 0 
0 0 0 0 0 0 0 0 0 1.799298e+00 8.172214e+01 4.483269e+02 9.844918e+02 1.239220e+03 1.221388e+03 1.142775e+03 1.111780e+03 1.142775e+03 1.221388e+03 1.239220e+03 9.844918e+02 4.483269e+02 8.172214e+01 1.799298e+00 0 0 0 0 0 0 0 0 
0 0 0 0 0 0 0 0 0 0 5.869808e-01 2.790553e+01 1.763238e+02 4.495144e+02 7.159470e+02 8.660395e+02 9.140871e+02 8.660395e+02 7.159470e+02 4.495144e+02 1.763238e+02 2.790553e+01 5.869808e-01 0 0 0 0 0 0 0 0 0 
0 0 0 0 0 0 0 0 0 0 0 0 0 4.527717e+00 2.717738e+01 6.719753e+01 8.932428e+01 6.719753e+01 2.717738e+01 4.527717e+00 0 0 0 0 0 0 0 0 0 0 0 0 
0 0 0 0 0 0 0 0 0 0 0 0 0 0 0 0 0 0 0 0 0 0 0 0 0 0 0 0 0 0 0 0 
0 0 0 0 0 0 0 0 0 0 0 0 0 0 0 0 0 0 0 0 0 0 0 0 0 0 0 0 0 0 0 0 
0 0 0 0 0 0 0 0 0 0 0 0 0 0 0 0 0 0 0 0 0 0 0 0 0 0 0 0 0 0 0 0 
0 0 0 0 0 0 0 0 0 0 0 0 0 0 0 0 0 0 0 0 0 0 0 0 0 0 0 0 0 0 0 0 
