# vtk DataFile Version 2.0
Comment goes here
ASCII

DATASET STRUCTURED_POINTS
FIELD FieldData 1
TIME 1 1 double
1.32000000
DIMENSIONS    32   32   1

ORIGIN    0.000   0.000   0.000
SPACING   0.03125 0.03125   1.000

POINT_DATA   1024
SCALARS fMag double
LOOKUP_TABLE default

0 0 0 0 0 0 0 0 0 0 0 0 0 0 0 0 0 0 0 0 0 0 0 0 0 0 0 0 0 0 0 0 
0 0 0 0 0 0 0 0 0 0 0 0 0 0 0 0 0 0 0 0 0 0 0 0 0 0 0 0 0 0 0 0 
0 0 0 0 0 0 0 0 0 0 0 0 0 0 0 0 0 0 0 0 0 0 0 0 0 0 0 0 0 0 0 0 
0 0 0 0 0 0 0 0 0 0 0 0 0 0 0 0 0 0 0 0 0 0 0 0 0 0 0 0 0 0 0 0 
0 0 0 0 0 0 0 0 0 0 0 0 0 0 0 0 0 0 0 0 0 0 0 0 0 0 0 0 0 0 0 0 
0 0 0 0 0 0 0 0 0 0 0 0 0 0 0 0 0 0 0 0 0 0 0 0 0 0 0 0 0 0 0 0 
0 0 0 0 0 0 0 0 0 0 0 0 0 0 0 0 0 0 0 0 0 0 0 0 0 0 0 0 0 0 0 0 
0 0 0 0 0 0 0 0 0 0 0 0 0 0 0 0 0 0 0 0 0 0 0 0 0 0 0 0 0 0 0 0 
0 0 0 0 0 0 0 0 0 0 0 4.406602e-01 2.847483e+01 5.724297e+01 1.377994e+02 2.099317e+02 2.179091e+02 2.099317e+02 1.377994e+02 5.724297e+01 2.847483e+01 4.406602e-01 0 0 0 0 0 0 0 0 0 0 
0 0 0 0 0 0 0 0 0 0 9.423290e+00 1.028874e+02 3.343368e+02 5.702911e+02 6.864439e+02 7.229859e+02 7.286173e+02 7.229859e+02 6.864439e+02 5.702911e+02 3.343368e+02 1.028874e+02 9.423290e+00 0 0 0 0 0 0 0 0 0 
0 0 0 0 0 0 0 0 0 2.264566e+01 2.266795e+02 5.902498e+02 8.217789e+02 8.052255e+02 6.664840e+02 5.585356e+02 5.489274e+02 5.585356e+02 6.664840e+02 8.052255e+02 8.217789e+02 5.902498e+02 2.266795e+02 2.264566e+01 0 0 0 0 0 0 0 0 
0 0 0 0 0 0 0 0 1.771391e+01 2.269906e+02 7.120653e+02 9.101786e+02 6.216323e+02 3.016627e+02 1.177310e+02 4.893642e+01 3.821918e+01 4.893642e+01 1.177310e+02 3.016627e+02 6.216323e+02 9.101786e+02 7.120653e+02 2.269906e+02 1.771391e+01 0 0 0 0 0 0 0 
0 0 0 0 0 0 0 1.520382e+00 1.459829e+02 6.876292e+02 9.574989e+02 5.172583e+02 1.209477e+02 8.581683e+00 0 0 0 0 0 8.581683e+00 1.209477e+02 5.172583e+02 9.574989e+02 6.876292e+02 1.459829e+02 1.520382e+00 0 0 0 0 0 0 
0 0 0 0 0 0 0 2.131942e+01 4.721683e+02 1.021519e+03 6.741309e+02 1.050128e+02 1.919526e+00 0 0 0 0 0 0 0 1.919526e+00 1.050128e+02 6.741309e+02 1.021519e+03 4.721683e+02 2.131942e+01 0 0 0 0 0 0 
0 0 0 0 0 0 0 8.065159e+01 7.409635e+02 9.703063e+02 3.129846e+02 1.036578e+01 0 0 0 0 0 0 0 0 0 1.036578e+01 3.129846e+02 9.703063e+02 7.409635e+02 8.065159e+01 0 0 0 0 0 0 
0 0 0 0 0 0 0 1.797778e+02 8.704948e+02 8.188784e+02 1.299982e+02 0 0 0 0 0 0 0 0 0 0 0 1.299982e+02 8.188784e+02 8.704948e+02 1.797778e+02 0 0 0 0 0 0 
0 0 0 0 0 0 0 2.114674e+02 9.372262e+02 8.291702e+02 1.034114e+02 0 0 0 0 0 0 0 0 0 0 0 1.034114e+02 8.291702e+02 9.372262e+02 2.114674e+02 0 0 0 0 0 0 
0 0 0 0 0 0 0 1.797778e+02 8.704948e+02 8.188784e+02 1.299982e+02 0 0 0 0 0 0 0 0 0 0 0 1.299982e+02 8.188784e+02 8.704948e+02 1.797778e+02 0 0 0 0 0 0 
0 0 0 0 0 0 0 8.065159e+01 7.409635e+02 9.703063e+02 3.129846e+02 1.036578e+01 0 0 0 0 0 0 0 0 0 1.036578e+01 3.129846e+02 9.703063e+02 7.409635e+02 8.065159e+01 0 0 0 0 0 0 
0 0 0 0 0 0 0 2.131942e+01 4.721683e+02 1.021519e+03 6.741309e+02 1.050128e+02 1.919526e+00 0 0 0 0 0 0 0 1.919526e+00 1.050128e+02 6.741309e+02 1.021519e+03 4.721683e+02 2.131942e+01 0 0 0 0 0 0 
0 0 0 0 0 0 0 1.520382e+00 1.459829e+02 6.876292e+02 9.574989e+02 5.172583e+02 1.209477e+02 8.581683e+00 0 0 0 0 0 8.581683e+00 1.209477e+02 5.172583e+02 9.574989e+02 6.876292e+02 1.459829e+02 1.520382e+00 0 0 0 0 0 0 
0 0 0 0 0 0 0 0 1.771391e+01 2.269906e+02 7.120653e+02 9.101786e+02 6.216323e+02 3.016627e+02 1.177310e+02 4.893642e+01 3.821918e+01 4.893642e+01 1.177310e+02 3.016627e+02 6.216323e+02 9.101786e+02 7.120653e+02 2.269906e+02 1.771391e+01 0 0 0 0 0 0 0 
0 0 0 0 0 0 0 0 0 2.264566e+01 2.266795e+02 5.902498e+02 8.217789e+02 8.052255e+02 6.664840e+02 5.585356e+02 5.489274e+02 5.585356e+02 6.664840e+02 8.052255e+02 8.217789e+02 5.902498e+02 2.266795e+02 2.264566e+01 0 0 0 0 0 0 0 0 
0 0 0 0 0 0 0 0 0 0 9.423290e+00 1.028874e+02 3.343368e+02 5.702911e+02 6.864439e+02 7.229859e+02 7.286173e+02 7.229859e+02 6.864439e+02 5.702911e+02 3.343368e+02 1.028874e+02 9.423290e+00 0 0 0 0 0 0 0 0 0 
0 0 0 0 0 0 0 0 0 0 0 4.406602e-01 2.847483e+01 5.724297e+01 1.377994e+02 2.099317e+02 2.179091e+02 2.099317e+02 1.377994e+02 5.724297e+01 2.847483e+01 4.406602e-01 0 0 0 0 0 0 0 0 0 0 
0 0 0 0 0 0 0 0 0 0 0 0 0 0 0 0 0 0 0 0 0 0 0 0 0 0 0 0 0 0 0 0 
0 0 0 0 0 0 0 0 0 0 0 0 0 0 0 0 0 0 0 0 0 0 0 0 0 0 0 0 0 0 0 0 
0 0 0 0 0 0 0 0 0 0 0 0 0 0 0 0 0 0 0 0 0 0 0 0 0 0 0 0 0 0 0 0 
0 0 0 0 0 0 0 0 0 0 0 0 0 0 0 0 0 0 0 0 0 0 0 0 0 0 0 0 0 0 0 0 
0 0 0 0 0 0 0 0 0 0 0 0 0 0 0 0 0 0 0 0 0 0 0 0 0 0 0 0 0 0 0 0 
0 0 0 0 0 0 0 0 0 0 0 0 0 0 0 0 0 0 0 0 0 0 0 0 0 0 0 0 0 0 0 0 
0 0 0 0 0 0 0 0 0 0 0 0 0 0 0 0 0 0 0 0 0 0 0 0 0 0 0 0 0 0 0 0 
