# vtk DataFile Version 2.0
Comment goes here
ASCII

DATASET STRUCTURED_POINTS
FIELD FieldData 1
TIME 1 1 double
0.50000000
DIMENSIONS    32   32   1

ORIGIN    0.000   0.000   0.000
SPACING   0.03125 0.03125   1.000

POINT_DATA   1024
SCALARS fMag double
LOOKUP_TABLE default

0 0 0 0 0 0 0 0 0 0 0 0 0 0 0 0 0 0 0 0 0 0 0 0 0 0 0 0 0 0 0 0 
0 0 0 0 0 0 0 0 0 0 0 0 0 0 0 0 0 0 0 0 0 0 0 0 0 0 0 0 0 0 0 0 
0 0 0 0 0 0 0 0 0 0 0 0 0 0 0 0 0 0 0 0 0 0 0 0 0 0 0 0 0 0 0 0 
0 0 0 0 0 0 0 0 0 0 0 0 0 0 0 0 0 0 0 0 0 0 0 0 0 0 0 0 0 0 0 0 
0 0 0 0 0 0 0 0 0 0 0 0 0 0 0 0 0 0 0 0 0 0 0 0 0 0 0 0 0 0 0 0 
0 0 0 0 0 0 0 0 0 0 0 3.086538e-01 1.575790e+01 1.120187e+02 3.313074e+02 5.444260e+02 6.119148e+02 5.444260e+02 3.313074e+02 1.120187e+02 1.575790e+01 3.086538e-01 0 0 0 0 0 0 0 0 0 0 
0 0 0 0 0 0 0 0 0 0 8.728295e-01 6.543505e+01 4.398542e+02 9.456981e+02 1.250332e+03 1.376342e+03 1.367794e+03 1.376342e+03 1.250332e+03 9.456981e+02 4.398542e+02 6.543505e+01 8.728295e-01 0 0 0 0 0 0 0 0 0 
0 0 0 0 0 0 0 0 0 7.808662e-01 9.502792e+01 5.398623e+02 1.181564e+03 1.364748e+03 1.091736e+03 8.636393e+02 7.626905e+02 8.636393e+02 1.091736e+03 1.364748e+03 1.181564e+03 5.398623e+02 9.502792e+01 7.808662e-01 0 0 0 0 0 0 0 0 
0 0 0 0 0 0 0 0 1.242132e-02 3.735974e+01 4.921372e+02 1.146696e+03 1.128176e+03 5.776416e+02 1.720519e+02 3.233351e+01 6.811229e+00 3.233351e+01 1.720519e+02 5.776416e+02 1.128176e+03 1.146696e+03 4.921372e+02 3.735974e+01 1.242132e-02 0 0 0 0 0 0 0 
0 0 0 0 0 0 0 0 3.346125e+00 2.733502e+02 9.836082e+02 1.085753e+03 4.143115e+02 4.704785e+01 3.204131e-01 0 0 0 3.204131e-01 4.704785e+01 4.143115e+02 1.085753e+03 9.836082e+02 2.733502e+02 3.346125e+00 0 0 0 0 0 0 0 
0 0 0 0 0 0 0 0 4.410077e+01 5.827779e+02 1.038366e+03 5.562450e+02 5.713711e+01 0 0 0 0 0 0 0 5.713711e+01 5.562450e+02 1.038366e+03 5.827779e+02 4.410077e+01 0 0 0 0 0 0 0 
0 0 0 0 0 0 0 6.684131e-02 1.765420e+02 7.588953e+02 7.503572e+02 1.684048e+02 9.522097e-01 0 0 0 0 0 0 0 9.522097e-01 1.684048e+02 7.503572e+02 7.588953e+02 1.765420e+02 6.684131e-02 0 0 0 0 0 0 
0 0 0 0 0 0 0 4.115628e+00 3.608422e+02 8.285630e+02 4.999335e+02 2.817495e+01 0 0 0 0 0 0 0 0 0 2.817495e+01 4.999335e+02 8.285630e+02 3.608422e+02 4.115628e+00 0 0 0 0 0 0 
0 0 0 0 0 0 0 2.467285e+01 5.103652e+02 7.992891e+02 3.162282e+02 2.676358e+00 0 0 0 0 0 0 0 0 0 2.676358e+00 3.162282e+02 7.992891e+02 5.103652e+02 2.467285e+01 0 0 0 0 0 0 
0 0 0 0 0 0 0 5.530013e+01 5.722205e+02 7.105912e+02 1.936982e+02 0 0 0 0 0 0 0 0 0 0 0 1.936982e+02 7.105912e+02 5.722205e+02 5.530013e+01 0 0 0 0 0 0 
0 0 0 0 0 0 0 7.742759e+01 5.668962e+02 6.210920e+02 1.316233e+02 0 0 0 0 0 0 0 0 0 0 0 1.316233e+02 6.210920e+02 5.668962e+02 7.742759e+01 0 0 0 0 0 0 
0 0 0 0 0 0 0 8.495105e+01 5.520398e+02 5.768769e+02 1.097882e+02 0 0 0 0 0 0 0 0 0 0 0 1.097882e+02 5.768769e+02 5.520398e+02 8.495105e+01 0 0 0 0 0 0 
0 0 0 0 0 0 0 7.742759e+01 5.668962e+02 6.210920e+02 1.316233e+02 0 0 0 0 0 0 0 0 0 0 0 1.316233e+02 6.210920e+02 5.668962e+02 7.742759e+01 0 0 0 0 0 0 
0 0 0 0 0 0 0 5.530013e+01 5.722205e+02 7.105912e+02 1.936982e+02 0 0 0 0 0 0 0 0 0 0 0 1.936982e+02 7.105912e+02 5.722205e+02 5.530013e+01 0 0 0 0 0 0 
0 0 0 0 0 0 0 2.467285e+01 5.103652e+02 7.992891e+02 3.162282e+02 2.676358e+00 0 0 0 0 0 0 0 0 0 2.676358e+00 3.162282e+02 7.992891e+02 5.103652e+02 2.467285e+01 0 0 0 0 0 0 
0 0 0 0 0 0 0 4.115628e+00 3.608422e+02 8.285630e+02 4.999335e+02 2.817495e+01 0 0 0 0 0 0 0 0 0 2.817495e+01 4.999335e+02 8.285630e+02 3.608422e+02 4.115628e+00 0 0 0 0 0 0 
0 0 0 0 0 0 0 6.684131e-02 1.765420e+02 7.588953e+02 7.503572e+02 1.684048e+02 9.522097e-01 0 0 0 0 0 0 0 9.522097e-01 1.684048e+02 7.503572e+02 7.588953e+02 1.765420e+02 6.684131e-02 0 0 0 0 0 0 
0 0 0 0 0 0 0 0 4.410077e+01 5.827779e+02 1.038366e+03 5.562450e+02 5.713711e+01 0 0 0 0 0 0 0 5.713711e+01 5.562450e+02 1.038366e+03 5.827779e+02 4.410077e+01 0 0 0 0 0 0 0 
0 0 0 0 0 0 0 0 3.346125e+00 2.733502e+02 9.836082e+02 1.085753e+03 4.143115e+02 4.704785e+01 3.204131e-01 0 0 0 3.204131e-01 4.704785e+01 4.143115e+02 1.085753e+03 9.836082e+02 2.733502e+02 3.346125e+00 0 0 0 0 0 0 0 
0 0 0 0 0 0 0 0 1.242132e-02 3.735974e+01 4.921372e+02 1.146696e+03 1.128176e+03 5.776416e+02 1.720519e+02 3.233351e+01 6.811229e+00 3.233351e+01 1.720519e+02 5.776416e+02 1.128176e+03 1.146696e+03 4.921372e+02 3.735974e+01 1.242132e-02 0 0 0 0 0 0 0 
0 0 0 0 0 0 0 0 0 7.808662e-01 9.502792e+01 5.398623e+02 1.181564e+03 1.364748e+03 1.091736e+03 8.636393e+02 7.626905e+02 8.636393e+02 1.091736e+03 1.364748e+03 1.181564e+03 5.398623e+02 9.502792e+01 7.808662e-01 0 0 0 0 0 0 0 0 
0 0 0 0 0 0 0 0 0 0 8.728295e-01 6.543505e+01 4.398542e+02 9.456981e+02 1.250332e+03 1.376342e+03 1.367794e+03 1.376342e+03 1.250332e+03 9.456981e+02 4.398542e+02 6.543505e+01 8.728295e-01 0 0 0 0 0 0 0 0 0 
0 0 0 0 0 0 0 0 0 0 0 3.086538e-01 1.575790e+01 1.120187e+02 3.313074e+02 5.444260e+02 6.119148e+02 5.444260e+02 3.313074e+02 1.120187e+02 1.575790e+01 3.086538e-01 0 0 0 0 0 0 0 0 0 0 
0 0 0 0 0 0 0 0 0 0 0 0 0 0 0 0 0 0 0 0 0 0 0 0 0 0 0 0 0 0 0 0 
0 0 0 0 0 0 0 0 0 0 0 0 0 0 0 0 0 0 0 0 0 0 0 0 0 0 0 0 0 0 0 0 
0 0 0 0 0 0 0 0 0 0 0 0 0 0 0 0 0 0 0 0 0 0 0 0 0 0 0 0 0 0 0 0 
0 0 0 0 0 0 0 0 0 0 0 0 0 0 0 0 0 0 0 0 0 0 0 0 0 0 0 0 0 0 0 0 
