# vtk DataFile Version 2.0
Comment goes here
ASCII

DATASET STRUCTURED_POINTS
FIELD FieldData 1
TIME 1 1 double
1.08000000
DIMENSIONS    32   32   1

ORIGIN    0.000   0.000   0.000
SPACING   0.03125 0.03125   1.000

POINT_DATA   1024
SCALARS fMag double
LOOKUP_TABLE default

0 0 0 0 0 0 0 0 0 0 0 0 0 0 0 0 0 0 0 0 0 0 0 0 0 0 0 0 0 0 0 0 
0 0 0 0 0 0 0 0 0 0 0 0 0 0 0 0 0 0 0 0 0 0 0 0 0 0 0 0 0 0 0 0 
0 0 0 0 0 0 0 0 0 0 0 0 0 0 0 0 0 0 0 0 0 0 0 0 0 0 0 0 0 0 0 0 
0 0 0 0 0 0 0 0 0 0 0 0 0 0 0 0 0 0 0 0 0 0 0 0 0 0 0 0 0 0 0 0 
0 0 0 0 0 0 0 0 0 0 0 0 0 0 0 0 0 0 0 0 0 0 0 0 0 0 0 0 0 0 0 0 
0 0 0 0 0 0 0 0 0 0 0 0 0 0 0 0 0 0 0 0 0 0 0 0 0 0 0 0 0 0 0 0 
0 0 0 0 0 0 0 0 0 0 0 0 0 0 4.644358e-01 2.990750e+00 5.048593e+00 2.990750e+00 4.644358e-01 0 0 0 0 0 0 0 0 0 0 0 0 0 
0 0 0 0 0 0 0 0 0 0 0 5.528790e-01 4.144621e+01 1.458061e+02 3.342110e+02 5.254535e+02 5.992234e+02 5.254535e+02 3.342110e+02 1.458061e+02 4.144621e+01 5.528790e-01 0 0 0 0 0 0 0 0 0 0 
0 0 0 0 0 0 0 0 0 0 4.415392e+00 1.084126e+02 4.175393e+02 8.156468e+02 1.003389e+03 1.029713e+03 1.076563e+03 1.029713e+03 1.003389e+03 8.156468e+02 4.175393e+02 1.084126e+02 4.415392e+00 0 0 0 0 0 0 0 0 0 
0 0 0 0 0 0 0 0 0 3.768363e+00 1.258449e+02 5.869094e+02 1.002623e+03 9.738180e+02 7.502113e+02 5.137377e+02 4.829023e+02 5.137377e+02 7.502113e+02 9.738180e+02 1.002623e+03 5.869094e+02 1.258449e+02 3.768363e+00 0 0 0 0 0 0 0 0 
0 0 0 0 0 0 0 0 2.963623e-01 8.906680e+01 5.540119e+02 9.900214e+02 7.972303e+02 3.253713e+02 8.056663e+01 8.323724e+00 5.140226e-01 8.323724e+00 8.056663e+01 3.253713e+02 7.972303e+02 9.900214e+02 5.540119e+02 8.906680e+01 2.963623e-01 0 0 0 0 0 0 0 
0 0 0 0 0 0 0 0 1.808644e+01 3.455516e+02 9.210366e+02 7.897507e+02 2.116056e+02 1.846840e+01 0 0 0 0 0 1.846840e+01 2.116056e+02 7.897507e+02 9.210366e+02 3.455516e+02 1.808644e+01 0 0 0 0 0 0 0 
0 0 0 0 0 0 0 0 9.766388e+01 6.444902e+02 8.716354e+02 3.410121e+02 1.955443e+01 0 0 0 0 0 0 0 1.955443e+01 3.410121e+02 8.716354e+02 6.444902e+02 9.766388e+01 0 0 0 0 0 0 0 
0 0 0 0 0 0 0 4.722993e-01 2.362457e+02 8.060228e+02 6.567038e+02 8.826946e+01 0 0 0 0 0 0 0 0 0 8.826946e+01 6.567038e+02 8.060228e+02 2.362457e+02 4.722993e-01 0 0 0 0 0 0 
0 0 0 0 0 0 0 4.107793e+00 3.813916e+02 8.043226e+02 4.423979e+02 1.675052e+01 0 0 0 0 0 0 0 0 0 1.675052e+01 4.423979e+02 8.043226e+02 3.813916e+02 4.107793e+00 0 0 0 0 0 0 
0 0 0 0 0 0 0 1.118627e+01 4.786400e+02 7.725617e+02 3.062062e+02 1.102092e+00 0 0 0 0 0 0 0 0 0 1.102092e+00 3.062062e+02 7.725617e+02 4.786400e+02 1.118627e+01 0 0 0 0 0 0 
0 0 0 0 0 0 0 1.494101e+01 4.708716e+02 7.235417e+02 2.676111e+02 0 0 0 0 0 0 0 0 0 0 0 2.676111e+02 7.235417e+02 4.708716e+02 1.494101e+01 0 0 0 0 0 0 
0 0 0 0 0 0 0 1.118627e+01 4.786400e+02 7.725617e+02 3.062062e+02 1.102092e+00 0 0 0 0 0 0 0 0 0 1.102092e+00 3.062062e+02 7.725617e+02 4.786400e+02 1.118627e+01 0 0 0 0 0 0 
0 0 0 0 0 0 0 4.107793e+00 3.813916e+02 8.043226e+02 4.423979e+02 1.675052e+01 0 0 0 0 0 0 0 0 0 1.675052e+01 4.423979e+02 8.043226e+02 3.813916e+02 4.107793e+00 0 0 0 0 0 0 
0 0 0 0 0 0 0 4.722993e-01 2.362457e+02 8.060228e+02 6.567038e+02 8.826946e+01 0 0 0 0 0 0 0 0 0 8.826946e+01 6.567038e+02 8.060228e+02 2.362457e+02 4.722993e-01 0 0 0 0 0 0 
0 0 0 0 0 0 0 0 9.766388e+01 6.444902e+02 8.716354e+02 3.410121e+02 1.955443e+01 0 0 0 0 0 0 0 1.955443e+01 3.410121e+02 8.716354e+02 6.444902e+02 9.766388e+01 0 0 0 0 0 0 0 
0 0 0 0 0 0 0 0 1.808644e+01 3.455516e+02 9.210366e+02 7.897507e+02 2.116056e+02 1.846840e+01 0 0 0 0 0 1.846840e+01 2.116056e+02 7.897507e+02 9.210366e+02 3.455516e+02 1.808644e+01 0 0 0 0 0 0 0 
0 0 0 0 0 0 0 0 2.963623e-01 8.906680e+01 5.540119e+02 9.900214e+02 7.972303e+02 3.253713e+02 8.056663e+01 8.323724e+00 5.140226e-01 8.323724e+00 8.056663e+01 3.253713e+02 7.972303e+02 9.900214e+02 5.540119e+02 8.906680e+01 2.963623e-01 0 0 0 0 0 0 0 
0 0 0 0 0 0 0 0 0 3.768363e+00 1.258449e+02 5.869094e+02 1.002623e+03 9.738180e+02 7.502113e+02 5.137377e+02 4.829023e+02 5.137377e+02 7.502113e+02 9.738180e+02 1.002623e+03 5.869094e+02 1.258449e+02 3.768363e+00 0 0 0 0 0 0 0 0 
0 0 0 0 0 0 0 0 0 0 4.415392e+00 1.084126e+02 4.175393e+02 8.156468e+02 1.003389e+03 1.029713e+03 1.076563e+03 1.029713e+03 1.003389e+03 8.156468e+02 4.175393e+02 1.084126e+02 4.415392e+00 0 0 0 0 0 0 0 0 0 
0 0 0 0 0 0 0 0 0 0 0 5.528790e-01 4.144621e+01 1.458061e+02 3.342110e+02 5.254535e+02 5.992234e+02 5.254535e+02 3.342110e+02 1.458061e+02 4.144621e+01 5.528790e-01 0 0 0 0 0 0 0 0 0 0 
0 0 0 0 0 0 0 0 0 0 0 0 0 0 4.644358e-01 2.990750e+00 5.048593e+00 2.990750e+00 4.644358e-01 0 0 0 0 0 0 0 0 0 0 0 0 0 
0 0 0 0 0 0 0 0 0 0 0 0 0 0 0 0 0 0 0 0 0 0 0 0 0 0 0 0 0 0 0 0 
0 0 0 0 0 0 0 0 0 0 0 0 0 0 0 0 0 0 0 0 0 0 0 0 0 0 0 0 0 0 0 0 
0 0 0 0 0 0 0 0 0 0 0 0 0 0 0 0 0 0 0 0 0 0 0 0 0 0 0 0 0 0 0 0 
0 0 0 0 0 0 0 0 0 0 0 0 0 0 0 0 0 0 0 0 0 0 0 0 0 0 0 0 0 0 0 0 
0 0 0 0 0 0 0 0 0 0 0 0 0 0 0 0 0 0 0 0 0 0 0 0 0 0 0 0 0 0 0 0 
