# vtk DataFile Version 2.0
Comment goes here
ASCII

DATASET STRUCTURED_POINTS
FIELD FieldData 1
TIME 1 1 double
0.04000000
DIMENSIONS    32   32   1

ORIGIN    0.000   0.000   0.000
SPACING   0.03125 0.03125   1.000

POINT_DATA   1024
SCALARS fMag double
LOOKUP_TABLE default

0 0 0 0 0 0 0 0 0 0 0 0 0 0 0 0 0 0 0 0 0 0 0 0 0 0 0 0 0 0 0 0 
0 0 0 0 0 0 0 0 0 0 0 0 0 0 0 0 0 0 0 0 0 0 0 0 0 0 0 0 0 0 0 0 
0 0 0 0 0 0 0 0 0 0 0 0 0 0 0 0 0 0 0 0 0 0 0 0 0 0 0 0 0 0 0 0 
0 0 0 0 0 0 0 0 0 0 0 0 0 0 0 0 0 0 0 0 0 0 0 0 0 0 0 0 0 0 0 0 
0 0 0 0 0 0 0 0 0 0 0 0 0 0 0 0 0 0 0 0 0 0 0 0 0 0 0 0 0 0 0 0 
0 0 0 0 0 0 0 0 0 0 0 0 7.379416e-03 1.031441e+00 8.624738e+00 2.203594e+01 2.878140e+01 2.203594e+01 8.624738e+00 1.031441e+00 7.379416e-03 0 0 0 0 0 0 0 0 0 0 0 
0 0 0 0 0 0 0 0 0 0 6.577112e+00 9.370625e+01 3.034896e+02 4.979956e+02 6.056844e+02 6.565434e+02 6.601113e+02 6.565434e+02 6.056844e+02 4.979956e+02 3.034896e+02 9.370625e+01 6.577112e+00 0 0 0 0 0 0 0 0 0 
0 0 0 0 0 0 0 0 1.987446e-01 4.467735e+01 3.924886e+02 1.069104e+03 1.461901e+03 1.338029e+03 1.121619e+03 1.010511e+03 9.602364e+02 1.010511e+03 1.121619e+03 1.338029e+03 1.461901e+03 1.069104e+03 3.924886e+02 4.467735e+01 1.987446e-01 0 0 0 0 0 0 0 
0 0 0 0 0 0 0 0 4.459289e+01 5.397727e+02 1.457552e+03 1.875822e+03 1.494664e+03 9.048787e+02 5.310574e+02 3.760315e+02 3.289065e+02 3.760315e+02 5.310574e+02 9.048787e+02 1.494664e+03 1.875822e+03 1.457552e+03 5.397727e+02 4.459289e+01 0 0 0 0 0 0 0 
0 0 0 0 0 0 0 5.330776e+00 3.036040e+02 1.307446e+03 1.772766e+03 1.048597e+03 3.411117e+02 6.246840e+01 5.442593e+00 0 0 0 5.442593e+00 6.246840e+01 3.411117e+02 1.048597e+03 1.772766e+03 1.307446e+03 3.036040e+02 5.330776e+00 0 0 0 0 0 0 
0 0 0 0 0 0 0 5.261242e+01 7.232925e+02 1.445971e+03 9.240072e+02 1.519709e+02 4.937615e+00 0 0 0 0 0 0 0 4.937615e+00 1.519709e+02 9.240072e+02 1.445971e+03 7.232925e+02 5.261242e+01 0 0 0 0 0 0 
0 0 0 0 0 0 1.742460e-03 1.664723e+02 9.189813e+02 1.018495e+03 2.704725e+02 3.612960e+00 0 0 0 0 0 0 0 0 0 3.612960e+00 2.704725e+02 1.018495e+03 9.189813e+02 1.664723e+02 1.742460e-03 0 0 0 0 0 
0 0 0 0 0 0 5.121774e-01 2.743700e+02 7.985010e+02 5.770936e+02 5.241997e+01 0 0 0 0 0 0 0 0 0 0 0 5.241997e+01 5.770936e+02 7.985010e+02 2.743700e+02 5.121774e-01 0 0 0 0 0 
0 0 0 0 0 0 5.553646e+00 3.315495e+02 6.257282e+02 3.040016e+02 4.252518e+00 0 0 0 0 0 0 0 0 0 0 0 4.252518e+00 3.040016e+02 6.257282e+02 3.315495e+02 5.553646e+00 0 0 0 0 0 
0 0 0 0 0 0 1.593443e+01 3.537134e+02 5.252661e+02 1.874881e+02 0 0 0 0 0 0 0 0 0 0 0 0 0 1.874881e+02 5.252661e+02 3.537134e+02 1.593443e+01 0 0 0 0 0 
0 0 0 0 0 0 2.452339e+01 3.419432e+02 4.515545e+02 1.341347e+02 0 0 0 0 0 0 0 0 0 0 0 0 0 1.341347e+02 4.515545e+02 3.419432e+02 2.452339e+01 0 0 0 0 0 
0 0 0 0 0 0 2.723791e+01 3.285944e+02 4.171379e+02 1.157814e+02 0 0 0 0 0 0 0 0 0 0 0 0 0 1.157814e+02 4.171379e+02 3.285944e+02 2.723791e+01 0 0 0 0 0 
0 0 0 0 0 0 2.452339e+01 3.419432e+02 4.515545e+02 1.341347e+02 0 0 0 0 0 0 0 0 0 0 0 0 0 1.341347e+02 4.515545e+02 3.419432e+02 2.452339e+01 0 0 0 0 0 
0 0 0 0 0 0 1.593443e+01 3.537134e+02 5.252661e+02 1.874881e+02 0 0 0 0 0 0 0 0 0 0 0 0 0 1.874881e+02 5.252661e+02 3.537134e+02 1.593443e+01 0 0 0 0 0 
0 0 0 0 0 0 5.553646e+00 3.315495e+02 6.257282e+02 3.040016e+02 4.252518e+00 0 0 0 0 0 0 0 0 0 0 0 4.252518e+00 3.040016e+02 6.257282e+02 3.315495e+02 5.553646e+00 0 0 0 0 0 
0 0 0 0 0 0 5.121774e-01 2.743700e+02 7.985010e+02 5.770936e+02 5.241997e+01 0 0 0 0 0 0 0 0 0 0 0 5.241997e+01 5.770936e+02 7.985010e+02 2.743700e+02 5.121774e-01 0 0 0 0 0 
0 0 0 0 0 0 1.742460e-03 1.664723e+02 9.189813e+02 1.018495e+03 2.704725e+02 3.612960e+00 0 0 0 0 0 0 0 0 0 3.612960e+00 2.704725e+02 1.018495e+03 9.189813e+02 1.664723e+02 1.742460e-03 0 0 0 0 0 
0 0 0 0 0 0 0 5.261242e+01 7.232925e+02 1.445971e+03 9.240072e+02 1.519709e+02 4.937615e+00 0 0 0 0 0 0 0 4.937615e+00 1.519709e+02 9.240072e+02 1.445971e+03 7.232925e+02 5.261242e+01 0 0 0 0 0 0 
0 0 0 0 0 0 0 5.330776e+00 3.036040e+02 1.307446e+03 1.772766e+03 1.048597e+03 3.411117e+02 6.246840e+01 5.442593e+00 0 0 0 5.442593e+00 6.246840e+01 3.411117e+02 1.048597e+03 1.772766e+03 1.307446e+03 3.036040e+02 5.330776e+00 0 0 0 0 0 0 
0 0 0 0 0 0 0 0 4.459289e+01 5.397727e+02 1.457552e+03 1.875822e+03 1.494664e+03 9.048787e+02 5.310574e+02 3.760315e+02 3.289065e+02 3.760315e+02 5.310574e+02 9.048787e+02 1.494664e+03 1.875822e+03 1.457552e+03 5.397727e+02 4.459289e+01 0 0 0 0 0 0 0 
0 0 0 0 0 0 0 0 1.987446e-01 4.467735e+01 3.924886e+02 1.069104e+03 1.461901e+03 1.338029e+03 1.121619e+03 1.010511e+03 9.602364e+02 1.010511e+03 1.121619e+03 1.338029e+03 1.461901e+03 1.069104e+03 3.924886e+02 4.467735e+01 1.987446e-01 0 0 0 0 0 0 0 
0 0 0 0 0 0 0 0 0 0 6.577112e+00 9.370625e+01 3.034896e+02 4.979956e+02 6.056844e+02 6.565434e+02 6.601113e+02 6.565434e+02 6.056844e+02 4.979956e+02 3.034896e+02 9.370625e+01 6.577112e+00 0 0 0 0 0 0 0 0 0 
0 0 0 0 0 0 0 0 0 0 0 0 7.379416e-03 1.031441e+00 8.624738e+00 2.203594e+01 2.878140e+01 2.203594e+01 8.624738e+00 1.031441e+00 7.379416e-03 0 0 0 0 0 0 0 0 0 0 0 
0 0 0 0 0 0 0 0 0 0 0 0 0 0 0 0 0 0 0 0 0 0 0 0 0 0 0 0 0 0 0 0 
0 0 0 0 0 0 0 0 0 0 0 0 0 0 0 0 0 0 0 0 0 0 0 0 0 0 0 0 0 0 0 0 
0 0 0 0 0 0 0 0 0 0 0 0 0 0 0 0 0 0 0 0 0 0 0 0 0 0 0 0 0 0 0 0 
0 0 0 0 0 0 0 0 0 0 0 0 0 0 0 0 0 0 0 0 0 0 0 0 0 0 0 0 0 0 0 0 
