# vtk DataFile Version 2.0
Comment goes here
ASCII

DATASET STRUCTURED_POINTS
FIELD FieldData 1
TIME 1 1 double
1.20000000
DIMENSIONS    32   32   1

ORIGIN    0.000   0.000   0.000
SPACING   0.03125 0.03125   1.000

POINT_DATA   1024
SCALARS fMag double
LOOKUP_TABLE default

0 0 0 0 0 0 0 0 0 0 0 0 0 0 0 0 0 0 0 0 0 0 0 0 0 0 0 0 0 0 0 0 
0 0 0 0 0 0 0 0 0 0 0 0 0 0 0 0 0 0 0 0 0 0 0 0 0 0 0 0 0 0 0 0 
0 0 0 0 0 0 0 0 0 0 0 0 0 0 0 0 0 0 0 0 0 0 0 0 0 0 0 0 0 0 0 0 
0 0 0 0 0 0 0 0 0 0 0 0 0 0 0 0 0 0 0 0 0 0 0 0 0 0 0 0 0 0 0 0 
0 0 0 0 0 0 0 0 0 0 0 0 0 0 0 0 0 0 0 0 0 0 0 0 0 0 0 0 0 0 0 0 
0 0 0 0 0 0 0 0 0 0 0 0 0 0 0 0 0 0 0 0 0 0 0 0 0 0 0 0 0 0 0 0 
0 0 0 0 0 0 0 0 0 0 0 0 0 0 0 0 0 0 0 0 0 0 0 0 0 0 0 0 0 0 0 0 
0 0 0 0 0 0 0 0 0 0 0 0 0 2.179975e-01 2.961231e+00 9.633533e+00 1.326599e+01 9.633533e+00 2.961231e+00 2.179975e-01 0 0 0 0 0 0 0 0 0 0 0 0 
0 0 0 0 0 0 0 0 0 0 3.126361e-02 1.050434e+01 6.859013e+01 1.972367e+02 3.702503e+02 5.013254e+02 5.135627e+02 5.013254e+02 3.702503e+02 1.972367e+02 6.859013e+01 1.050434e+01 3.126361e-02 0 0 0 0 0 0 0 0 0 
0 0 0 0 0 0 0 0 0 5.803788e-01 3.481386e+01 2.443155e+02 5.725650e+02 7.839095e+02 8.400447e+02 8.313526e+02 8.137994e+02 8.313526e+02 8.400447e+02 7.839095e+02 5.725650e+02 2.443155e+02 3.481386e+01 5.803788e-01 0 0 0 0 0 0 0 0 
0 0 0 0 0 0 0 0 1.331551e-01 5.819180e+01 3.588236e+02 7.863613e+02 9.014511e+02 7.230631e+02 4.978765e+02 3.434048e+02 3.135026e+02 3.434048e+02 4.978765e+02 7.230631e+02 9.014511e+02 7.863613e+02 3.588236e+02 5.819180e+01 1.331551e-01 0 0 0 0 0 0 0 
0 0 0 0 0 0 0 0 3.141652e+01 3.409166e+02 8.564194e+02 8.763679e+02 4.429145e+02 1.373726e+02 2.640231e+01 3.187884e+00 0 3.187884e+00 2.640231e+01 1.373726e+02 4.429145e+02 8.763679e+02 8.564194e+02 3.409166e+02 3.141652e+01 0 0 0 0 0 0 0 
0 0 0 0 0 0 0 2.126894e+00 2.116814e+02 8.019520e+02 9.289952e+02 3.794307e+02 4.777330e+01 8.388881e-01 0 0 0 0 0 8.388881e-01 4.777330e+01 3.794307e+02 9.289952e+02 8.019520e+02 2.116814e+02 2.126894e+00 0 0 0 0 0 0 
0 0 0 0 0 0 0 2.449376e+01 5.074265e+02 1.018055e+03 5.920870e+02 6.103687e+01 3.324502e-01 0 0 0 0 0 0 0 3.324502e-01 6.103687e+01 5.920870e+02 1.018055e+03 5.074265e+02 2.449376e+01 0 0 0 0 0 0 
0 0 0 0 0 0 0 9.017199e+01 7.341613e+02 9.139493e+02 2.714402e+02 4.238453e+00 0 0 0 0 0 0 0 0 0 4.238453e+00 2.714402e+02 9.139493e+02 7.341613e+02 9.017199e+01 0 0 0 0 0 0 
0 0 0 0 0 0 0 1.737698e+02 8.343158e+02 7.741031e+02 1.155662e+02 0 0 0 0 0 0 0 0 0 0 0 1.155662e+02 7.741031e+02 8.343158e+02 1.737698e+02 0 0 0 0 0 0 
0 0 0 0 0 0 0 1.910471e+02 8.498482e+02 7.527479e+02 9.394683e+01 0 0 0 0 0 0 0 0 0 0 0 9.394683e+01 7.527479e+02 8.498482e+02 1.910471e+02 0 0 0 0 0 0 
0 0 0 0 0 0 0 1.737698e+02 8.343158e+02 7.741031e+02 1.155662e+02 0 0 0 0 0 0 0 0 0 0 0 1.155662e+02 7.741031e+02 8.343158e+02 1.737698e+02 0 0 0 0 0 0 
0 0 0 0 0 0 0 9.017199e+01 7.341613e+02 9.139493e+02 2.714402e+02 4.238453e+00 0 0 0 0 0 0 0 0 0 4.238453e+00 2.714402e+02 9.139493e+02 7.341613e+02 9.017199e+01 0 0 0 0 0 0 
0 0 0 0 0 0 0 2.449376e+01 5.074265e+02 1.018055e+03 5.920870e+02 6.103687e+01 3.324502e-01 0 0 0 0 0 0 0 3.324502e-01 6.103687e+01 5.920870e+02 1.018055e+03 5.074265e+02 2.449376e+01 0 0 0 0 0 0 
0 0 0 0 0 0 0 2.126894e+00 2.116814e+02 8.019520e+02 9.289952e+02 3.794307e+02 4.777330e+01 8.388881e-01 0 0 0 0 0 8.388881e-01 4.777330e+01 3.794307e+02 9.289952e+02 8.019520e+02 2.116814e+02 2.126894e+00 0 0 0 0 0 0 
0 0 0 0 0 0 0 0 3.141652e+01 3.409166e+02 8.564194e+02 8.763679e+02 4.429145e+02 1.373726e+02 2.640231e+01 3.187884e+00 0 3.187884e+00 2.640231e+01 1.373726e+02 4.429145e+02 8.763679e+02 8.564194e+02 3.409166e+02 3.141652e+01 0 0 0 0 0 0 0 
0 0 0 0 0 0 0 0 1.331551e-01 5.819180e+01 3.588236e+02 7.863613e+02 9.014511e+02 7.230631e+02 4.978765e+02 3.434048e+02 3.135026e+02 3.434048e+02 4.978765e+02 7.230631e+02 9.014511e+02 7.863613e+02 3.588236e+02 5.819180e+01 1.331551e-01 0 0 0 0 0 0 0 
0 0 0 0 0 0 0 0 0 5.803788e-01 3.481386e+01 2.443155e+02 5.725650e+02 7.839095e+02 8.400447e+02 8.313526e+02 8.137994e+02 8.313526e+02 8.400447e+02 7.839095e+02 5.725650e+02 2.443155e+02 3.481386e+01 5.803788e-01 0 0 0 0 0 0 0 0 
0 0 0 0 0 0 0 0 0 0 3.126361e-02 1.050434e+01 6.859013e+01 1.972367e+02 3.702503e+02 5.013254e+02 5.135627e+02 5.013254e+02 3.702503e+02 1.972367e+02 6.859013e+01 1.050434e+01 3.126361e-02 0 0 0 0 0 0 0 0 0 
0 0 0 0 0 0 0 0 0 0 0 0 0 2.179975e-01 2.961231e+00 9.633533e+00 1.326599e+01 9.633533e+00 2.961231e+00 2.179975e-01 0 0 0 0 0 0 0 0 0 0 0 0 
0 0 0 0 0 0 0 0 0 0 0 0 0 0 0 0 0 0 0 0 0 0 0 0 0 0 0 0 0 0 0 0 
0 0 0 0 0 0 0 0 0 0 0 0 0 0 0 0 0 0 0 0 0 0 0 0 0 0 0 0 0 0 0 0 
0 0 0 0 0 0 0 0 0 0 0 0 0 0 0 0 0 0 0 0 0 0 0 0 0 0 0 0 0 0 0 0 
0 0 0 0 0 0 0 0 0 0 0 0 0 0 0 0 0 0 0 0 0 0 0 0 0 0 0 0 0 0 0 0 
0 0 0 0 0 0 0 0 0 0 0 0 0 0 0 0 0 0 0 0 0 0 0 0 0 0 0 0 0 0 0 0 
0 0 0 0 0 0 0 0 0 0 0 0 0 0 0 0 0 0 0 0 0 0 0 0 0 0 0 0 0 0 0 0 
