# vtk DataFile Version 2.0
Comment goes here
ASCII

DATASET STRUCTURED_POINTS
FIELD FieldData 1
TIME 1 1 double
0.72000000
DIMENSIONS    32   32   1

ORIGIN    0.000   0.000   0.000
SPACING   0.03125 0.03125   1.000

POINT_DATA   1024
SCALARS fMag double
LOOKUP_TABLE default

0 0 0 0 0 0 0 0 0 0 0 0 0 0 0 0 0 0 0 0 0 0 0 0 0 0 0 0 0 0 0 0 
0 0 0 0 0 0 0 0 0 0 0 0 0 0 0 0 0 0 0 0 0 0 0 0 0 0 0 0 0 0 0 0 
0 0 0 0 0 0 0 0 0 0 0 0 0 0 0 0 0 0 0 0 0 0 0 0 0 0 0 0 0 0 0 0 
0 0 0 0 0 0 0 0 0 0 0 0 0 0 0 0 0 0 0 0 0 0 0 0 0 0 0 0 0 0 0 0 
0 0 0 0 0 0 0 0 0 0 0 0 0 0 0 0 0 0 0 0 0 0 0 0 0 0 0 0 0 0 0 0 
0 0 0 0 0 0 0 0 0 0 0 0 0 0 0 0 0 0 0 0 0 0 0 0 0 0 0 0 0 0 0 0 
0 0 0 0 0 0 0 0 0 0 0 0 0 0 0 0 0 0 0 0 0 0 0 0 0 0 0 0 0 0 0 0 
0 0 0 0 0 0 0 0 0 0 0 0 2.181290e-01 3.731619e+00 1.587217e+01 3.262220e+01 4.095744e+01 3.262220e+01 1.587217e+01 3.731619e+00 2.181290e-01 0 0 0 0 0 0 0 0 0 0 0 
0 0 0 0 0 0 0 0 0 0 1.036029e+01 8.739236e+01 2.218478e+02 3.457747e+02 4.505911e+02 4.954178e+02 5.148813e+02 4.954178e+02 4.505911e+02 3.457747e+02 2.218478e+02 8.739236e+01 1.036029e+01 0 0 0 0 0 0 0 0 0 
0 0 0 0 0 0 0 0 5.409942e+00 9.395060e+01 3.438576e+02 6.369328e+02 7.998043e+02 7.644256e+02 7.149530e+02 6.712113e+02 6.607872e+02 6.712113e+02 7.149530e+02 7.644256e+02 7.998043e+02 6.369328e+02 3.438576e+02 9.395060e+01 5.409942e+00 0 0 0 0 0 0 0 
0 0 0 0 0 0 0 1.130251e+01 1.990749e+02 6.307614e+02 9.588797e+02 9.004124e+02 6.729773e+02 4.418435e+02 2.811018e+02 2.083961e+02 1.868633e+02 2.083961e+02 2.811018e+02 4.418435e+02 6.729773e+02 9.004124e+02 9.588797e+02 6.307614e+02 1.990749e+02 1.130251e+01 0 0 0 0 0 0 
0 0 0 0 0 0 5.114381e+00 1.997729e+02 7.926375e+02 1.122579e+03 8.119896e+02 3.625798e+02 9.593809e+01 1.896674e+01 1.191244e+00 0 0 0 1.191244e+00 1.896674e+01 9.593809e+01 3.625798e+02 8.119896e+02 1.122579e+03 7.926375e+02 1.997729e+02 5.114381e+00 0 0 0 0 0 
0 0 0 0 0 0 8.848439e+01 7.020314e+02 1.232243e+03 7.977413e+02 1.942109e+02 1.370299e+01 1.632311e-01 0 0 0 0 0 0 0 1.632311e-01 1.370299e+01 1.942109e+02 7.977413e+02 1.232243e+03 7.020314e+02 8.848439e+01 0 0 0 0 0 
0 0 0 0 0 5.307890e+00 3.893739e+02 1.174491e+03 1.015280e+03 2.306425e+02 6.732123e+00 0 0 0 0 0 0 0 0 0 0 0 6.732123e+00 2.306425e+02 1.015280e+03 1.174491e+03 3.893739e+02 5.307890e+00 0 0 0 0 
0 0 0 0 0 4.094887e+01 7.813104e+02 1.308481e+03 5.919583e+02 2.219354e+01 0 0 0 0 0 0 0 0 0 0 0 0 0 2.219354e+01 5.919583e+02 1.308481e+03 7.813104e+02 4.094887e+01 0 0 0 0 
0 0 0 0 0 1.072930e+02 1.012626e+03 1.242321e+03 3.371030e+02 5.294419e-03 0 0 0 0 0 0 0 0 0 0 0 0 0 5.294419e-03 3.371030e+02 1.242321e+03 1.012626e+03 1.072930e+02 0 0 0 0 
0 0 0 0 0 1.417856e+02 1.054524e+03 1.162759e+03 2.500209e+02 0 0 0 0 0 0 0 0 0 0 0 0 0 0 0 2.500209e+02 1.162759e+03 1.054524e+03 1.417856e+02 0 0 0 0 
0 0 0 0 0 1.072930e+02 1.012626e+03 1.242321e+03 3.371030e+02 5.294419e-03 0 0 0 0 0 0 0 0 0 0 0 0 0 5.294419e-03 3.371030e+02 1.242321e+03 1.012626e+03 1.072930e+02 0 0 0 0 
0 0 0 0 0 4.094887e+01 7.813104e+02 1.308481e+03 5.919583e+02 2.219354e+01 0 0 0 0 0 0 0 0 0 0 0 0 0 2.219354e+01 5.919583e+02 1.308481e+03 7.813104e+02 4.094887e+01 0 0 0 0 
0 0 0 0 0 5.307890e+00 3.893739e+02 1.174491e+03 1.015280e+03 2.306425e+02 6.732123e+00 0 0 0 0 0 0 0 0 0 0 0 6.732123e+00 2.306425e+02 1.015280e+03 1.174491e+03 3.893739e+02 5.307890e+00 0 0 0 0 
0 0 0 0 0 0 8.848439e+01 7.020314e+02 1.232243e+03 7.977413e+02 1.942109e+02 1.370299e+01 1.632311e-01 0 0 0 0 0 0 0 1.632311e-01 1.370299e+01 1.942109e+02 7.977413e+02 1.232243e+03 7.020314e+02 8.848439e+01 0 0 0 0 0 
0 0 0 0 0 0 5.114381e+00 1.997729e+02 7.926375e+02 1.122579e+03 8.119896e+02 3.625798e+02 9.593809e+01 1.896674e+01 1.191244e+00 0 0 0 1.191244e+00 1.896674e+01 9.593809e+01 3.625798e+02 8.119896e+02 1.122579e+03 7.926375e+02 1.997729e+02 5.114381e+00 0 0 0 0 0 
0 0 0 0 0 0 0 1.130251e+01 1.990749e+02 6.307614e+02 9.588797e+02 9.004124e+02 6.729773e+02 4.418435e+02 2.811018e+02 2.083961e+02 1.868633e+02 2.083961e+02 2.811018e+02 4.418435e+02 6.729773e+02 9.004124e+02 9.588797e+02 6.307614e+02 1.990749e+02 1.130251e+01 0 0 0 0 0 0 
0 0 0 0 0 0 0 0 5.409942e+00 9.395060e+01 3.438576e+02 6.369328e+02 7.998043e+02 7.644256e+02 7.149530e+02 6.712113e+02 6.607872e+02 6.712113e+02 7.149530e+02 7.644256e+02 7.998043e+02 6.369328e+02 3.438576e+02 9.395060e+01 5.409942e+00 0 0 0 0 0 0 0 
0 0 0 0 0 0 0 0 0 0 1.036029e+01 8.739236e+01 2.218478e+02 3.457747e+02 4.505911e+02 4.954178e+02 5.148813e+02 4.954178e+02 4.505911e+02 3.457747e+02 2.218478e+02 8.739236e+01 1.036029e+01 0 0 0 0 0 0 0 0 0 
0 0 0 0 0 0 0 0 0 0 0 0 2.181290e-01 3.731619e+00 1.587217e+01 3.262220e+01 4.095744e+01 3.262220e+01 1.587217e+01 3.731619e+00 2.181290e-01 0 0 0 0 0 0 0 0 0 0 0 
0 0 0 0 0 0 0 0 0 0 0 0 0 0 0 0 0 0 0 0 0 0 0 0 0 0 0 0 0 0 0 0 
0 0 0 0 0 0 0 0 0 0 0 0 0 0 0 0 0 0 0 0 0 0 0 0 0 0 0 0 0 0 0 0 
0 0 0 0 0 0 0 0 0 0 0 0 0 0 0 0 0 0 0 0 0 0 0 0 0 0 0 0 0 0 0 0 
0 0 0 0 0 0 0 0 0 0 0 0 0 0 0 0 0 0 0 0 0 0 0 0 0 0 0 0 0 0 0 0 
0 0 0 0 0 0 0 0 0 0 0 0 0 0 0 0 0 0 0 0 0 0 0 0 0 0 0 0 0 0 0 0 
0 0 0 0 0 0 0 0 0 0 0 0 0 0 0 0 0 0 0 0 0 0 0 0 0 0 0 0 0 0 0 0 
