# vtk DataFile Version 2.0
Comment goes here
ASCII

DATASET STRUCTURED_POINTS
FIELD FieldData 1
TIME 1 1 double
0.70000000
DIMENSIONS    32   32   1

ORIGIN    0.000   0.000   0.000
SPACING   0.03125 0.03125   1.000

POINT_DATA   1024
SCALARS fMag double
LOOKUP_TABLE default

0 0 0 0 0 0 0 0 0 0 0 0 0 0 0 0 0 0 0 0 0 0 0 0 0 0 0 0 0 0 0 0 
0 0 0 0 0 0 0 0 0 0 0 0 0 0 0 0 0 0 0 0 0 0 0 0 0 0 0 0 0 0 0 0 
0 0 0 0 0 0 0 0 0 0 0 0 0 0 0 0 0 0 0 0 0 0 0 0 0 0 0 0 0 0 0 0 
0 0 0 0 0 0 0 0 0 0 0 0 0 0 0 0 0 0 0 0 0 0 0 0 0 0 0 0 0 0 0 0 
0 0 0 0 0 0 0 0 0 0 0 0 0 0 0 0 0 0 0 0 0 0 0 0 0 0 0 0 0 0 0 0 
0 0 0 0 0 0 0 0 0 0 0 0 0 0 0 0 0 0 0 0 0 0 0 0 0 0 0 0 0 0 0 0 
0 0 0 0 0 0 0 0 0 0 0 0 0 0 0 0 0 0 0 0 0 0 0 0 0 0 0 0 0 0 0 0 
0 0 0 0 0 0 0 0 0 0 0 6.726379e-01 1.062681e+01 5.578261e+01 1.148073e+02 1.655292e+02 1.955690e+02 1.655292e+02 1.148073e+02 5.578261e+01 1.062681e+01 6.726379e-01 0 0 0 0 0 0 0 0 0 0 
0 0 0 0 0 0 0 0 0 1.067779e+00 2.791666e+01 1.782579e+02 4.065785e+02 5.917687e+02 6.912093e+02 7.191883e+02 7.659104e+02 7.191883e+02 6.912093e+02 5.917687e+02 4.065785e+02 1.782579e+02 2.791666e+01 1.067779e+00 0 0 0 0 0 0 0 0 
0 0 0 0 0 0 0 0 6.196580e+00 1.136759e+02 4.349449e+02 7.850345e+02 9.078447e+02 8.203903e+02 7.139123e+02 6.321916e+02 6.332638e+02 6.321916e+02 7.139123e+02 8.203903e+02 9.078447e+02 7.850345e+02 4.349449e+02 1.136759e+02 6.196580e+00 0 0 0 0 0 0 0 
0 0 0 0 0 0 0 9.155285e+00 1.961880e+02 6.761835e+02 9.962686e+02 8.625393e+02 5.577912e+02 2.854639e+02 1.376399e+02 7.851119e+01 6.292235e+01 7.851119e+01 1.376399e+02 2.854639e+02 5.577912e+02 8.625393e+02 9.962686e+02 6.761835e+02 1.961880e+02 9.155285e+00 0 0 0 0 0 0 
0 0 0 0 0 0 6.210505e-01 1.365061e+02 7.344953e+02 1.167688e+03 7.901982e+02 2.624198e+02 4.789926e+01 2.222626e+00 0 0 0 0 0 2.222626e+00 4.789926e+01 2.624198e+02 7.901982e+02 1.167688e+03 7.344953e+02 1.365061e+02 6.210505e-01 0 0 0 0 0 
0 0 0 0 0 0 3.560639e+01 5.188321e+02 1.177689e+03 8.971856e+02 2.138143e+02 9.909370e+00 0 0 0 0 0 0 0 0 0 9.909370e+00 2.138143e+02 8.971856e+02 1.177689e+03 5.188321e+02 3.560639e+01 0 0 0 0 0 
0 0 0 0 0 0 1.797207e+02 9.705586e+02 1.133702e+03 3.573915e+02 1.276435e+01 0 0 0 0 0 0 0 0 0 0 0 1.276435e+01 3.573915e+02 1.133702e+03 9.705586e+02 1.797207e+02 0 0 0 0 0 
0 0 0 0 0 2.556302e-01 3.871184e+02 1.149396e+03 8.430966e+02 8.031460e+01 2.954501e-02 0 0 0 0 0 0 0 0 0 0 0 2.954501e-02 8.031460e+01 8.430966e+02 1.149396e+03 3.871184e+02 2.556302e-01 0 0 0 0 
0 0 0 0 0 3.121267e+00 5.838110e+02 1.185547e+03 6.150400e+02 1.037345e+01 0 0 0 0 0 0 0 0 0 0 0 0 0 1.037345e+01 6.150400e+02 1.185547e+03 5.838110e+02 3.121267e+00 0 0 0 0 
0 0 0 0 0 5.737858e+00 6.754875e+02 1.210348e+03 5.413025e+02 7.044446e-01 0 0 0 0 0 0 0 0 0 0 0 0 0 7.044446e-01 5.413025e+02 1.210348e+03 6.754875e+02 5.737858e+00 0 0 0 0 
0 0 0 0 0 3.121267e+00 5.838110e+02 1.185547e+03 6.150400e+02 1.037345e+01 0 0 0 0 0 0 0 0 0 0 0 0 0 1.037345e+01 6.150400e+02 1.185547e+03 5.838110e+02 3.121267e+00 0 0 0 0 
0 0 0 0 0 2.556302e-01 3.871184e+02 1.149396e+03 8.430966e+02 8.031460e+01 2.954501e-02 0 0 0 0 0 0 0 0 0 0 0 2.954501e-02 8.031460e+01 8.430966e+02 1.149396e+03 3.871184e+02 2.556302e-01 0 0 0 0 
0 0 0 0 0 0 1.797207e+02 9.705586e+02 1.133702e+03 3.573915e+02 1.276435e+01 0 0 0 0 0 0 0 0 0 0 0 1.276435e+01 3.573915e+02 1.133702e+03 9.705586e+02 1.797207e+02 0 0 0 0 0 
0 0 0 0 0 0 3.560639e+01 5.188321e+02 1.177689e+03 8.971856e+02 2.138143e+02 9.909370e+00 0 0 0 0 0 0 0 0 0 9.909370e+00 2.138143e+02 8.971856e+02 1.177689e+03 5.188321e+02 3.560639e+01 0 0 0 0 0 
0 0 0 0 0 0 6.210505e-01 1.365061e+02 7.344953e+02 1.167688e+03 7.901982e+02 2.624198e+02 4.789926e+01 2.222626e+00 0 0 0 0 0 2.222626e+00 4.789926e+01 2.624198e+02 7.901982e+02 1.167688e+03 7.344953e+02 1.365061e+02 6.210505e-01 0 0 0 0 0 
0 0 0 0 0 0 0 9.155285e+00 1.961880e+02 6.761835e+02 9.962686e+02 8.625393e+02 5.577912e+02 2.854639e+02 1.376399e+02 7.851119e+01 6.292235e+01 7.851119e+01 1.376399e+02 2.854639e+02 5.577912e+02 8.625393e+02 9.962686e+02 6.761835e+02 1.961880e+02 9.155285e+00 0 0 0 0 0 0 
0 0 0 0 0 0 0 0 6.196580e+00 1.136759e+02 4.349449e+02 7.850345e+02 9.078447e+02 8.203903e+02 7.139123e+02 6.321916e+02 6.332638e+02 6.321916e+02 7.139123e+02 8.203903e+02 9.078447e+02 7.850345e+02 4.349449e+02 1.136759e+02 6.196580e+00 0 0 0 0 0 0 0 
0 0 0 0 0 0 0 0 0 1.067779e+00 2.791666e+01 1.782579e+02 4.065785e+02 5.917687e+02 6.912093e+02 7.191883e+02 7.659104e+02 7.191883e+02 6.912093e+02 5.917687e+02 4.065785e+02 1.782579e+02 2.791666e+01 1.067779e+00 0 0 0 0 0 0 0 0 
0 0 0 0 0 0 0 0 0 0 0 6.726379e-01 1.062681e+01 5.578261e+01 1.148073e+02 1.655292e+02 1.955690e+02 1.655292e+02 1.148073e+02 5.578261e+01 1.062681e+01 6.726379e-01 0 0 0 0 0 0 0 0 0 0 
0 0 0 0 0 0 0 0 0 0 0 0 0 0 0 0 0 0 0 0 0 0 0 0 0 0 0 0 0 0 0 0 
0 0 0 0 0 0 0 0 0 0 0 0 0 0 0 0 0 0 0 0 0 0 0 0 0 0 0 0 0 0 0 0 
0 0 0 0 0 0 0 0 0 0 0 0 0 0 0 0 0 0 0 0 0 0 0 0 0 0 0 0 0 0 0 0 
0 0 0 0 0 0 0 0 0 0 0 0 0 0 0 0 0 0 0 0 0 0 0 0 0 0 0 0 0 0 0 0 
0 0 0 0 0 0 0 0 0 0 0 0 0 0 0 0 0 0 0 0 0 0 0 0 0 0 0 0 0 0 0 0 
0 0 0 0 0 0 0 0 0 0 0 0 0 0 0 0 0 0 0 0 0 0 0 0 0 0 0 0 0 0 0 0 
