# vtk DataFile Version 2.0
Comment goes here
ASCII

DATASET STRUCTURED_POINTS
FIELD FieldData 1
TIME 1 1 double
0.40000000
DIMENSIONS    32   32   1

ORIGIN    0.000   0.000   0.000
SPACING   0.03125 0.03125   1.000

POINT_DATA   1024
SCALARS fMag double
LOOKUP_TABLE default

0 0 0 0 0 0 0 0 0 0 0 0 0 0 0 0 0 0 0 0 0 0 0 0 0 0 0 0 0 0 0 0 
0 0 0 0 0 0 0 0 0 0 0 0 0 0 0 0 0 0 0 0 0 0 0 0 0 0 0 0 0 0 0 0 
0 0 0 0 0 0 0 0 0 0 0 0 0 0 0 0 0 0 0 0 0 0 0 0 0 0 0 0 0 0 0 0 
0 0 0 0 0 0 0 0 0 0 0 0 0 0 0 0 0 0 0 0 0 0 0 0 0 0 0 0 0 0 0 0 
0 0 0 0 0 0 0 0 0 0 0 0 0 0 0 0 0 0 0 0 0 0 0 0 0 0 0 0 0 0 0 0 
0 0 0 0 0 0 0 0 0 0 0 0 0 0 0 0 0 0 0 0 0 0 0 0 0 0 0 0 0 0 0 0 
0 0 0 0 0 0 0 0 0 0 0 0 0 0 0 0 0 0 0 0 0 0 0 0 0 0 0 0 0 0 0 0 
0 0 0 0 0 0 0 0 0 0 0 0 3.310708e-01 4.387064e+00 1.488968e+01 2.540941e+01 2.911740e+01 2.540941e+01 1.488968e+01 4.387064e+00 3.310708e-01 0 0 0 0 0 0 0 0 0 0 0 
0 0 0 0 0 0 0 0 0 3.631666e+00 4.110207e+01 1.315171e+02 2.454777e+02 3.625932e+02 4.343838e+02 4.350766e+02 4.200313e+02 4.350766e+02 4.343838e+02 3.625932e+02 2.454777e+02 1.315171e+02 4.110207e+01 3.631666e+00 0 0 0 0 0 0 0 0 
0 0 0 0 0 0 0 1.489209e+00 5.750510e+01 2.738493e+02 5.547746e+02 7.080798e+02 7.223027e+02 7.133546e+02 6.777499e+02 6.014078e+02 5.567165e+02 6.014078e+02 6.777499e+02 7.133546e+02 7.223027e+02 7.080798e+02 5.547746e+02 2.738493e+02 5.750510e+01 1.489209e+00 0 0 0 0 0 0 
0 0 0 0 0 0 1.057290e+01 1.730133e+02 6.110448e+02 9.715415e+02 9.533348e+02 7.483454e+02 5.222327e+02 3.613526e+02 2.585334e+02 1.917410e+02 1.658025e+02 1.917410e+02 2.585334e+02 3.613526e+02 5.222327e+02 7.483454e+02 9.533348e+02 9.715415e+02 6.110448e+02 1.730133e+02 1.057290e+01 0 0 0 0 0 
0 0 0 0 0 4.955697e+00 2.106082e+02 8.034855e+02 1.222222e+03 9.635539e+02 4.696680e+02 1.719100e+02 4.482738e+01 6.253705e+00 2.702570e-01 0 0 0 2.702570e-01 6.253705e+00 4.482738e+01 1.719100e+02 4.696680e+02 9.635539e+02 1.222222e+03 8.034855e+02 2.106082e+02 4.955697e+00 0 0 0 0 
0 0 0 0 5.891577e-03 1.281114e+02 8.331927e+02 1.376192e+03 9.157355e+02 2.735925e+02 2.918833e+01 4.996718e-03 0 0 0 0 0 0 0 0 0 4.996718e-03 2.918833e+01 2.735925e+02 9.157355e+02 1.376192e+03 8.331927e+02 1.281114e+02 5.891577e-03 0 0 0 
0 0 0 0 1.249251e+01 5.351224e+02 1.445343e+03 1.178981e+03 2.684786e+02 1.115625e+01 0 0 0 0 0 0 0 0 0 0 0 0 0 1.115625e+01 2.684786e+02 1.178981e+03 1.445343e+03 5.351224e+02 1.249251e+01 0 0 0 
0 0 0 0 7.687004e+01 1.027381e+03 1.573942e+03 6.465472e+02 2.236335e+01 0 0 0 0 0 0 0 0 0 0 0 0 0 0 0 2.236335e+01 6.465472e+02 1.573942e+03 1.027381e+03 7.687004e+01 0 0 0 
0 0 0 0 1.803798e+02 1.268153e+03 1.407415e+03 3.197960e+02 0 0 0 0 0 0 0 0 0 0 0 0 0 0 0 0 0 3.197960e+02 1.407415e+03 1.268153e+03 1.803798e+02 0 0 0 
0 0 0 0 2.316108e+02 1.300651e+03 1.285992e+03 2.169520e+02 0 0 0 0 0 0 0 0 0 0 0 0 0 0 0 0 0 2.169520e+02 1.285992e+03 1.300651e+03 2.316108e+02 0 0 0 
0 0 0 0 1.803798e+02 1.268153e+03 1.407415e+03 3.197960e+02 0 0 0 0 0 0 0 0 0 0 0 0 0 0 0 0 0 3.197960e+02 1.407415e+03 1.268153e+03 1.803798e+02 0 0 0 
0 0 0 0 7.687004e+01 1.027381e+03 1.573942e+03 6.465472e+02 2.236335e+01 0 0 0 0 0 0 0 0 0 0 0 0 0 0 0 2.236335e+01 6.465472e+02 1.573942e+03 1.027381e+03 7.687004e+01 0 0 0 
0 0 0 0 1.249251e+01 5.351224e+02 1.445343e+03 1.178981e+03 2.684786e+02 1.115625e+01 0 0 0 0 0 0 0 0 0 0 0 0 0 1.115625e+01 2.684786e+02 1.178981e+03 1.445343e+03 5.351224e+02 1.249251e+01 0 0 0 
0 0 0 0 5.891577e-03 1.281114e+02 8.331927e+02 1.376192e+03 9.157355e+02 2.735925e+02 2.918833e+01 4.996718e-03 0 0 0 0 0 0 0 0 0 4.996718e-03 2.918833e+01 2.735925e+02 9.157355e+02 1.376192e+03 8.331927e+02 1.281114e+02 5.891577e-03 0 0 0 
0 0 0 0 0 4.955697e+00 2.106082e+02 8.034855e+02 1.222222e+03 9.635539e+02 4.696680e+02 1.719100e+02 4.482738e+01 6.253705e+00 2.702570e-01 0 0 0 2.702570e-01 6.253705e+00 4.482738e+01 1.719100e+02 4.696680e+02 9.635539e+02 1.222222e+03 8.034855e+02 2.106082e+02 4.955697e+00 0 0 0 0 
0 0 0 0 0 0 1.057290e+01 1.730133e+02 6.110448e+02 9.715415e+02 9.533348e+02 7.483454e+02 5.222327e+02 3.613526e+02 2.585334e+02 1.917410e+02 1.658025e+02 1.917410e+02 2.585334e+02 3.613526e+02 5.222327e+02 7.483454e+02 9.533348e+02 9.715415e+02 6.110448e+02 1.730133e+02 1.057290e+01 0 0 0 0 0 
0 0 0 0 0 0 0 1.489209e+00 5.750510e+01 2.738493e+02 5.547746e+02 7.080798e+02 7.223027e+02 7.133546e+02 6.777499e+02 6.014078e+02 5.567165e+02 6.014078e+02 6.777499e+02 7.133546e+02 7.223027e+02 7.080798e+02 5.547746e+02 2.738493e+02 5.750510e+01 1.489209e+00 0 0 0 0 0 0 
0 0 0 0 0 0 0 0 0 3.631666e+00 4.110207e+01 1.315171e+02 2.454777e+02 3.625932e+02 4.343838e+02 4.350766e+02 4.200313e+02 4.350766e+02 4.343838e+02 3.625932e+02 2.454777e+02 1.315171e+02 4.110207e+01 3.631666e+00 0 0 0 0 0 0 0 0 
0 0 0 0 0 0 0 0 0 0 0 0 3.310708e-01 4.387064e+00 1.488968e+01 2.540941e+01 2.911740e+01 2.540941e+01 1.488968e+01 4.387064e+00 3.310708e-01 0 0 0 0 0 0 0 0 0 0 0 
0 0 0 0 0 0 0 0 0 0 0 0 0 0 0 0 0 0 0 0 0 0 0 0 0 0 0 0 0 0 0 0 
0 0 0 0 0 0 0 0 0 0 0 0 0 0 0 0 0 0 0 0 0 0 0 0 0 0 0 0 0 0 0 0 
0 0 0 0 0 0 0 0 0 0 0 0 0 0 0 0 0 0 0 0 0 0 0 0 0 0 0 0 0 0 0 0 
0 0 0 0 0 0 0 0 0 0 0 0 0 0 0 0 0 0 0 0 0 0 0 0 0 0 0 0 0 0 0 0 
0 0 0 0 0 0 0 0 0 0 0 0 0 0 0 0 0 0 0 0 0 0 0 0 0 0 0 0 0 0 0 0 
0 0 0 0 0 0 0 0 0 0 0 0 0 0 0 0 0 0 0 0 0 0 0 0 0 0 0 0 0 0 0 0 
