# vtk DataFile Version 2.0
Comment goes here
ASCII

DATASET STRUCTURED_POINTS
FIELD FieldData 1
TIME 1 1 double
1.12000000
DIMENSIONS    32   32   1

ORIGIN    0.000   0.000   0.000
SPACING   0.03125 0.03125   1.000

POINT_DATA   1024
SCALARS fMag double
LOOKUP_TABLE default

0 0 0 0 0 0 0 0 0 0 0 0 0 0 0 0 0 0 0 0 0 0 0 0 0 0 0 0 0 0 0 0 
0 0 0 0 0 0 0 0 0 0 0 0 0 0 0 0 0 0 0 0 0 0 0 0 0 0 0 0 0 0 0 0 
0 0 0 0 0 0 0 0 0 0 0 0 0 0 0 0 0 0 0 0 0 0 0 0 0 0 0 0 0 0 0 0 
0 0 0 0 0 0 0 0 0 0 0 0 0 0 0 0 0 0 0 0 0 0 0 0 0 0 0 0 0 0 0 0 
0 0 0 0 0 0 0 0 0 0 0 0 0 0 0 0 0 0 0 0 0 0 0 0 0 0 0 0 0 0 0 0 
0 0 0 0 0 0 0 0 0 0 0 0 0 0 0 0 0 0 0 0 0 0 0 0 0 0 0 0 0 0 0 0 
0 0 0 0 0 0 0 0 0 0 0 0 0 0 0 0 0 0 0 0 0 0 0 0 0 0 0 0 0 0 0 0 
0 0 0 0 0 0 0 0 0 0 0 6.760452e-02 2.630231e+01 9.718865e+01 2.726284e+02 4.191828e+02 4.251828e+02 4.191828e+02 2.726284e+02 9.718865e+01 2.630231e+01 6.760452e-02 0 0 0 0 0 0 0 0 0 0 
0 0 0 0 0 0 0 0 0 0 1.488951e+00 8.186718e+01 3.958098e+02 7.538143e+02 9.601095e+02 1.011743e+03 9.615050e+02 1.011743e+03 9.601095e+02 7.538143e+02 3.958098e+02 8.186718e+01 1.488951e+00 0 0 0 0 0 0 0 0 0 
0 0 0 0 0 0 0 0 0 1.372037e+00 1.088104e+02 5.138550e+02 9.837499e+02 1.040557e+03 8.015943e+02 6.076265e+02 5.414345e+02 6.076265e+02 8.015943e+02 1.040557e+03 9.837499e+02 5.138550e+02 1.088104e+02 1.372037e+00 0 0 0 0 0 0 0 0 
0 0 0 0 0 0 0 0 5.385526e-02 5.395659e+01 4.515053e+02 9.528481e+02 8.524934e+02 4.056212e+02 1.130931e+02 2.036764e+01 5.112221e+00 2.036764e+01 1.130931e+02 4.056212e+02 8.524934e+02 9.528481e+02 4.515053e+02 5.395659e+01 5.385526e-02 0 0 0 0 0 0 0 
0 0 0 0 0 0 0 0 1.149604e+01 2.912635e+02 8.317932e+02 7.956754e+02 2.667317e+02 2.277552e+01 0 0 0 0 0 2.277552e+01 2.667317e+02 7.956754e+02 8.317932e+02 2.912635e+02 1.149604e+01 0 0 0 0 0 0 0 
0 0 0 0 0 0 0 0 7.135139e+01 5.917354e+02 8.756916e+02 3.776419e+02 2.675525e+01 0 0 0 0 0 0 0 2.675525e+01 3.776419e+02 8.756916e+02 5.917354e+02 7.135139e+01 0 0 0 0 0 0 0 
0 0 0 0 0 0 0 1.005395e-01 2.070594e+02 7.811258e+02 6.872509e+02 1.140741e+02 0 0 0 0 0 0 0 0 0 1.140741e+02 6.872509e+02 7.811258e+02 2.070594e+02 1.005395e-01 0 0 0 0 0 0 
0 0 0 0 0 0 0 1.614444e+00 3.577224e+02 8.234257e+02 4.891686e+02 2.302545e+01 0 0 0 0 0 0 0 0 0 2.302545e+01 4.891686e+02 8.234257e+02 3.577224e+02 1.614444e+00 0 0 0 0 0 0 
0 0 0 0 0 0 0 6.627760e+00 4.595196e+02 7.939194e+02 3.425588e+02 2.276622e+00 0 0 0 0 0 0 0 0 0 2.276622e+00 3.425588e+02 7.939194e+02 4.595196e+02 6.627760e+00 0 0 0 0 0 0 
0 0 0 0 0 0 0 1.003468e+01 4.708785e+02 7.640775e+02 3.032337e+02 0 0 0 0 0 0 0 0 0 0 0 3.032337e+02 7.640775e+02 4.708785e+02 1.003468e+01 0 0 0 0 0 0 
0 0 0 0 0 0 0 6.627760e+00 4.595196e+02 7.939194e+02 3.425588e+02 2.276622e+00 0 0 0 0 0 0 0 0 0 2.276622e+00 3.425588e+02 7.939194e+02 4.595196e+02 6.627760e+00 0 0 0 0 0 0 
0 0 0 0 0 0 0 1.614444e+00 3.577224e+02 8.234257e+02 4.891686e+02 2.302545e+01 0 0 0 0 0 0 0 0 0 2.302545e+01 4.891686e+02 8.234257e+02 3.577224e+02 1.614444e+00 0 0 0 0 0 0 
0 0 0 0 0 0 0 1.005395e-01 2.070594e+02 7.811258e+02 6.872509e+02 1.140741e+02 0 0 0 0 0 0 0 0 0 1.140741e+02 6.872509e+02 7.811258e+02 2.070594e+02 1.005395e-01 0 0 0 0 0 0 
0 0 0 0 0 0 0 0 7.135139e+01 5.917354e+02 8.756916e+02 3.776419e+02 2.675525e+01 0 0 0 0 0 0 0 2.675525e+01 3.776419e+02 8.756916e+02 5.917354e+02 7.135139e+01 0 0 0 0 0 0 0 
0 0 0 0 0 0 0 0 1.149604e+01 2.912635e+02 8.317932e+02 7.956754e+02 2.667317e+02 2.277552e+01 0 0 0 0 0 2.277552e+01 2.667317e+02 7.956754e+02 8.317932e+02 2.912635e+02 1.149604e+01 0 0 0 0 0 0 0 
0 0 0 0 0 0 0 0 5.385526e-02 5.395659e+01 4.515053e+02 9.528481e+02 8.524934e+02 4.056212e+02 1.130931e+02 2.036764e+01 5.112221e+00 2.036764e+01 1.130931e+02 4.056212e+02 8.524934e+02 9.528481e+02 4.515053e+02 5.395659e+01 5.385526e-02 0 0 0 0 0 0 0 
0 0 0 0 0 0 0 0 0 1.372037e+00 1.088104e+02 5.138550e+02 9.837499e+02 1.040557e+03 8.015943e+02 6.076265e+02 5.414345e+02 6.076265e+02 8.015943e+02 1.040557e+03 9.837499e+02 5.138550e+02 1.088104e+02 1.372037e+00 0 0 0 0 0 0 0 0 
0 0 0 0 0 0 0 0 0 0 1.488951e+00 8.186718e+01 3.958098e+02 7.538143e+02 9.601095e+02 1.011743e+03 9.615050e+02 1.011743e+03 9.601095e+02 7.538143e+02 3.958098e+02 8.186718e+01 1.488951e+00 0 0 0 0 0 0 0 0 0 
0 0 0 0 0 0 0 0 0 0 0 6.760452e-02 2.630231e+01 9.718865e+01 2.726284e+02 4.191828e+02 4.251828e+02 4.191828e+02 2.726284e+02 9.718865e+01 2.630231e+01 6.760452e-02 0 0 0 0 0 0 0 0 0 0 
0 0 0 0 0 0 0 0 0 0 0 0 0 0 0 0 0 0 0 0 0 0 0 0 0 0 0 0 0 0 0 0 
0 0 0 0 0 0 0 0 0 0 0 0 0 0 0 0 0 0 0 0 0 0 0 0 0 0 0 0 0 0 0 0 
0 0 0 0 0 0 0 0 0 0 0 0 0 0 0 0 0 0 0 0 0 0 0 0 0 0 0 0 0 0 0 0 
0 0 0 0 0 0 0 0 0 0 0 0 0 0 0 0 0 0 0 0 0 0 0 0 0 0 0 0 0 0 0 0 
0 0 0 0 0 0 0 0 0 0 0 0 0 0 0 0 0 0 0 0 0 0 0 0 0 0 0 0 0 0 0 0 
0 0 0 0 0 0 0 0 0 0 0 0 0 0 0 0 0 0 0 0 0 0 0 0 0 0 0 0 0 0 0 0 
