# vtk DataFile Version 2.0
Comment goes here
ASCII

DATASET STRUCTURED_POINTS
FIELD FieldData 1
TIME 1 1 double
1.24000000
DIMENSIONS    32   32   1

ORIGIN    0.000   0.000   0.000
SPACING   0.03125 0.03125   1.000

POINT_DATA   1024
SCALARS fMag double
LOOKUP_TABLE default

0 0 0 0 0 0 0 0 0 0 0 0 0 0 0 0 0 0 0 0 0 0 0 0 0 0 0 0 0 0 0 0 
0 0 0 0 0 0 0 0 0 0 0 0 0 0 0 0 0 0 0 0 0 0 0 0 0 0 0 0 0 0 0 0 
0 0 0 0 0 0 0 0 0 0 0 0 0 0 0 0 0 0 0 0 0 0 0 0 0 0 0 0 0 0 0 0 
0 0 0 0 0 0 0 0 0 0 0 0 0 0 0 0 0 0 0 0 0 0 0 0 0 0 0 0 0 0 0 0 
0 0 0 0 0 0 0 0 0 0 0 0 0 0 0 0 0 0 0 0 0 0 0 0 0 0 0 0 0 0 0 0 
0 0 0 0 0 0 0 0 0 0 0 0 0 0 0 0 0 0 0 0 0 0 0 0 0 0 0 0 0 0 0 0 
0 0 0 0 0 0 0 0 0 0 0 0 0 0 0 0 0 0 0 0 0 0 0 0 0 0 0 0 0 0 0 0 
0 0 0 0 0 0 0 0 0 0 0 0 1.514859e+01 5.768252e+01 1.754825e+02 3.144221e+02 3.564128e+02 3.144221e+02 1.754825e+02 5.768252e+01 1.514859e+01 0 0 0 0 0 0 0 0 0 0 0 
0 0 0 0 0 0 0 0 0 0 0 3.795129e+01 2.353191e+02 6.359741e+02 8.992514e+02 9.715200e+02 1.019804e+03 9.715200e+02 8.992514e+02 6.359741e+02 2.353191e+02 3.795129e+01 0 0 0 0 0 0 0 0 0 0 
0 0 0 0 0 0 0 0 0 0 4.205548e+01 3.273885e+02 8.176961e+02 1.050963e+03 9.103334e+02 7.063553e+02 6.929164e+02 7.063553e+02 9.103334e+02 1.050963e+03 8.176961e+02 3.273885e+02 4.205548e+01 0 0 0 0 0 0 0 0 0 
0 0 0 0 0 0 0 0 0 1.652761e+01 2.952241e+02 8.074137e+02 9.298308e+02 5.422525e+02 1.892575e+02 5.205071e+01 2.952530e+01 5.205071e+01 1.892575e+02 5.422525e+02 9.298308e+02 8.074137e+02 2.952241e+02 1.652761e+01 0 0 0 0 0 0 0 0 
0 0 0 0 0 0 0 0 1.552136e+00 1.394127e+02 6.578517e+02 8.768817e+02 4.099894e+02 5.763199e+01 2.000750e+00 0 0 0 2.000750e+00 5.763199e+01 4.099894e+02 8.768817e+02 6.578517e+02 1.394127e+02 1.552136e+00 0 0 0 0 0 0 0 
0 0 0 0 0 0 0 0 3.392267e+01 4.086779e+02 8.465012e+02 5.384634e+02 7.916867e+01 7.843944e-02 0 0 0 0 0 7.843944e-02 7.916867e+01 5.384634e+02 8.465012e+02 4.086779e+02 3.392267e+01 0 0 0 0 0 0 0 
0 0 0 0 0 0 0 0 7.839588e+01 6.302562e+02 7.941786e+02 2.462528e+02 3.898434e+00 0 0 0 0 0 0 0 3.898434e+00 2.462528e+02 7.941786e+02 6.302562e+02 7.839588e+01 0 0 0 0 0 0 0 
0 0 0 0 0 0 0 0 1.722566e+02 7.128739e+02 6.296463e+02 8.901594e+01 0 0 0 0 0 0 0 0 0 8.901594e+01 6.296463e+02 7.128739e+02 1.722566e+02 0 0 0 0 0 0 0 
0 0 0 0 0 0 0 0 2.526782e+02 7.455464e+02 5.194288e+02 2.920546e+01 0 0 0 0 0 0 0 0 0 2.920546e+01 5.194288e+02 7.455464e+02 2.526782e+02 0 0 0 0 0 0 0 
0 0 0 0 0 0 0 0 2.605837e+02 7.358263e+02 4.944588e+02 1.921626e+01 0 0 0 0 0 0 0 0 0 1.921626e+01 4.944588e+02 7.358263e+02 2.605837e+02 0 0 0 0 0 0 0 
0 0 0 0 0 0 0 0 2.526782e+02 7.455464e+02 5.194288e+02 2.920546e+01 0 0 0 0 0 0 0 0 0 2.920546e+01 5.194288e+02 7.455464e+02 2.526782e+02 0 0 0 0 0 0 0 
0 0 0 0 0 0 0 0 1.722566e+02 7.128739e+02 6.296463e+02 8.901594e+01 0 0 0 0 0 0 0 0 0 8.901594e+01 6.296463e+02 7.128739e+02 1.722566e+02 0 0 0 0 0 0 0 
0 0 0 0 0 0 0 0 7.839588e+01 6.302562e+02 7.941786e+02 2.462528e+02 3.898434e+00 0 0 0 0 0 0 0 3.898434e+00 2.462528e+02 7.941786e+02 6.302562e+02 7.839588e+01 0 0 0 0 0 0 0 
0 0 0 0 0 0 0 0 3.392267e+01 4.086779e+02 8.465012e+02 5.384634e+02 7.916867e+01 7.843944e-02 0 0 0 0 0 7.843944e-02 7.916867e+01 5.384634e+02 8.465012e+02 4.086779e+02 3.392267e+01 0 0 0 0 0 0 0 
0 0 0 0 0 0 0 0 1.552136e+00 1.394127e+02 6.578517e+02 8.768817e+02 4.099894e+02 5.763199e+01 2.000750e+00 0 0 0 2.000750e+00 5.763199e+01 4.099894e+02 8.768817e+02 6.578517e+02 1.394127e+02 1.552136e+00 0 0 0 0 0 0 0 
0 0 0 0 0 0 0 0 0 1.652761e+01 2.952241e+02 8.074137e+02 9.298308e+02 5.422525e+02 1.892575e+02 5.205071e+01 2.952530e+01 5.205071e+01 1.892575e+02 5.422525e+02 9.298308e+02 8.074137e+02 2.952241e+02 1.652761e+01 0 0 0 0 0 0 0 0 
0 0 0 0 0 0 0 0 0 0 4.205548e+01 3.273885e+02 8.176961e+02 1.050963e+03 9.103334e+02 7.063553e+02 6.929164e+02 7.063553e+02 9.103334e+02 1.050963e+03 8.176961e+02 3.273885e+02 4.205548e+01 0 0 0 0 0 0 0 0 0 
0 0 0 0 0 0 0 0 0 0 0 3.795129e+01 2.353191e+02 6.359741e+02 8.992514e+02 9.715200e+02 1.019804e+03 9.715200e+02 8.992514e+02 6.359741e+02 2.353191e+02 3.795129e+01 0 0 0 0 0 0 0 0 0 0 
0 0 0 0 0 0 0 0 0 0 0 0 1.514859e+01 5.768252e+01 1.754825e+02 3.144221e+02 3.564128e+02 3.144221e+02 1.754825e+02 5.768252e+01 1.514859e+01 0 0 0 0 0 0 0 0 0 0 0 
0 0 0 0 0 0 0 0 0 0 0 0 0 0 0 0 0 0 0 0 0 0 0 0 0 0 0 0 0 0 0 0 
0 0 0 0 0 0 0 0 0 0 0 0 0 0 0 0 0 0 0 0 0 0 0 0 0 0 0 0 0 0 0 0 
0 0 0 0 0 0 0 0 0 0 0 0 0 0 0 0 0 0 0 0 0 0 0 0 0 0 0 0 0 0 0 0 
0 0 0 0 0 0 0 0 0 0 0 0 0 0 0 0 0 0 0 0 0 0 0 0 0 0 0 0 0 0 0 0 
0 0 0 0 0 0 0 0 0 0 0 0 0 0 0 0 0 0 0 0 0 0 0 0 0 0 0 0 0 0 0 0 
0 0 0 0 0 0 0 0 0 0 0 0 0 0 0 0 0 0 0 0 0 0 0 0 0 0 0 0 0 0 0 0 
