# vtk DataFile Version 2.0
Comment goes here
ASCII

DATASET STRUCTURED_POINTS
FIELD FieldData 1
TIME 1 1 double
0.10000000
DIMENSIONS    32   32   1

ORIGIN    0.000   0.000   0.000
SPACING   0.03125 0.03125   1.000

POINT_DATA   1024
SCALARS fMag double
LOOKUP_TABLE default

0 0 0 0 0 0 0 0 0 0 0 0 0 0 0 0 0 0 0 0 0 0 0 0 0 0 0 0 0 0 0 0 
0 0 0 0 0 0 0 0 0 0 0 0 0 0 0 0 0 0 0 0 0 0 0 0 0 0 0 0 0 0 0 0 
0 0 0 0 0 0 0 0 0 0 0 0 0 0 0 0 0 0 0 0 0 0 0 0 0 0 0 0 0 0 0 0 
0 0 0 0 0 0 0 0 0 0 0 0 0 0 0 0 0 0 0 0 0 0 0 0 0 0 0 0 0 0 0 0 
0 0 0 0 0 0 0 0 0 0 0 0 0 0 0 0 0 0 0 0 0 0 0 0 0 0 0 0 0 0 0 0 
0 0 0 0 0 0 0 0 0 0 0 0 0 0 0 0 0 0 0 0 0 0 0 0 0 0 0 0 0 0 0 0 
0 0 0 0 0 0 0 0 0 0 0 0 0 0 0 0 0 0 0 0 0 0 0 0 0 0 0 0 0 0 0 0 
0 0 0 0 0 0 0 0 0 0 0 0 0 2.116499e-02 8.515076e-01 3.369927e+00 5.079173e+00 3.369927e+00 8.515076e-01 2.116499e-02 0 0 0 0 0 0 0 0 0 0 0 0 
0 0 0 0 0 0 0 0 0 2.601957e+00 2.862676e+01 1.074218e+02 2.316481e+02 3.649849e+02 4.469566e+02 4.802289e+02 5.030978e+02 4.802289e+02 4.469566e+02 3.649849e+02 2.316481e+02 1.074218e+02 2.862676e+01 2.601957e+00 0 0 0 0 0 0 0 0 
0 0 0 0 0 0 1.543207e-02 4.965414e+00 6.601358e+01 2.474778e+02 5.334181e+02 7.873407e+02 9.271158e+02 9.804831e+02 9.440692e+02 8.752495e+02 8.711038e+02 8.752495e+02 9.440692e+02 9.804831e+02 9.271158e+02 7.873407e+02 5.334181e+02 2.474778e+02 6.601358e+01 4.965414e+00 1.543207e-02 0 0 0 0 0 
0 0 0 0 0 4.979653e-01 4.420840e+01 2.878369e+02 6.510312e+02 8.600070e+02 9.505960e+02 9.254075e+02 8.004494e+02 6.476746e+02 5.032399e+02 3.987127e+02 3.730852e+02 3.987127e+02 5.032399e+02 6.476746e+02 8.004494e+02 9.254075e+02 9.505960e+02 8.600070e+02 6.510312e+02 2.878369e+02 4.420840e+01 4.979653e-01 0 0 0 0 
0 0 0 0 1.827885e-01 9.094437e+01 5.198087e+02 1.063075e+03 1.117715e+03 7.701803e+02 4.649924e+02 2.466154e+02 1.048049e+02 3.184756e+01 5.299119e+00 2.989391e-01 0 2.989391e-01 5.299119e+00 3.184756e+01 1.048049e+02 2.466154e+02 4.649924e+02 7.701803e+02 1.117715e+03 1.063075e+03 5.198087e+02 9.094437e+01 1.827885e-01 0 0 0 
0 0 0 0 4.696791e+01 5.422982e+02 1.244238e+03 1.217168e+03 5.991291e+02 1.550017e+02 2.009695e+01 6.417844e-01 0 0 0 0 0 0 0 0 0 6.417844e-01 2.009695e+01 1.550017e+02 5.991291e+02 1.217168e+03 1.244238e+03 5.422982e+02 4.696791e+01 0 0 0 
0 0 0 2.180667e+00 3.189473e+02 1.220481e+03 1.342953e+03 5.044767e+02 6.705907e+01 1.225454e+00 0 0 0 0 0 0 0 0 0 0 0 0 0 1.225454e+00 6.705907e+01 5.044767e+02 1.342953e+03 1.220481e+03 3.189473e+02 2.180667e+00 0 0 
0 0 0 2.579913e+01 7.486296e+02 1.504153e+03 8.548853e+02 7.286480e+01 0 0 0 0 0 0 0 0 0 0 0 0 0 0 0 0 0 7.286480e+01 8.548853e+02 1.504153e+03 7.486296e+02 2.579913e+01 0 0 
0 0 0 7.272242e+01 9.886932e+02 1.366768e+03 4.525753e+02 1.641193e+00 0 0 0 0 0 0 0 0 0 0 0 0 0 0 0 0 0 1.641193e+00 4.525753e+02 1.366768e+03 9.886932e+02 7.272242e+01 0 0 
0 0 0 9.647090e+01 1.002004e+03 1.227953e+03 3.224196e+02 0 0 0 0 0 0 0 0 0 0 0 0 0 0 0 0 0 0 0 3.224196e+02 1.227953e+03 1.002004e+03 9.647090e+01 0 0 
0 0 0 7.272242e+01 9.886932e+02 1.366768e+03 4.525753e+02 1.641193e+00 0 0 0 0 0 0 0 0 0 0 0 0 0 0 0 0 0 1.641193e+00 4.525753e+02 1.366768e+03 9.886932e+02 7.272242e+01 0 0 
0 0 0 2.579913e+01 7.486296e+02 1.504153e+03 8.548853e+02 7.286480e+01 0 0 0 0 0 0 0 0 0 0 0 0 0 0 0 0 0 7.286480e+01 8.548853e+02 1.504153e+03 7.486296e+02 2.579913e+01 0 0 
0 0 0 2.180667e+00 3.189473e+02 1.220481e+03 1.342953e+03 5.044767e+02 6.705907e+01 1.225454e+00 0 0 0 0 0 0 0 0 0 0 0 0 0 1.225454e+00 6.705907e+01 5.044767e+02 1.342953e+03 1.220481e+03 3.189473e+02 2.180667e+00 0 0 
0 0 0 0 4.696791e+01 5.422982e+02 1.244238e+03 1.217168e+03 5.991291e+02 1.550017e+02 2.009695e+01 6.417844e-01 0 0 0 0 0 0 0 0 0 6.417844e-01 2.009695e+01 1.550017e+02 5.991291e+02 1.217168e+03 1.244238e+03 5.422982e+02 4.696791e+01 0 0 0 
0 0 0 0 1.827885e-01 9.094437e+01 5.198087e+02 1.063075e+03 1.117715e+03 7.701803e+02 4.649924e+02 2.466154e+02 1.048049e+02 3.184756e+01 5.299119e+00 2.989391e-01 0 2.989391e-01 5.299119e+00 3.184756e+01 1.048049e+02 2.466154e+02 4.649924e+02 7.701803e+02 1.117715e+03 1.063075e+03 5.198087e+02 9.094437e+01 1.827885e-01 0 0 0 
0 0 0 0 0 4.979653e-01 4.420840e+01 2.878369e+02 6.510312e+02 8.600070e+02 9.505960e+02 9.254075e+02 8.004494e+02 6.476746e+02 5.032399e+02 3.987127e+02 3.730852e+02 3.987127e+02 5.032399e+02 6.476746e+02 8.004494e+02 9.254075e+02 9.505960e+02 8.600070e+02 6.510312e+02 2.878369e+02 4.420840e+01 4.979653e-01 0 0 0 0 
0 0 0 0 0 0 1.543207e-02 4.965414e+00 6.601358e+01 2.474778e+02 5.334181e+02 7.873407e+02 9.271158e+02 9.804831e+02 9.440692e+02 8.752495e+02 8.711038e+02 8.752495e+02 9.440692e+02 9.804831e+02 9.271158e+02 7.873407e+02 5.334181e+02 2.474778e+02 6.601358e+01 4.965414e+00 1.543207e-02 0 0 0 0 0 
0 0 0 0 0 0 0 0 0 2.601957e+00 2.862676e+01 1.074218e+02 2.316481e+02 3.649849e+02 4.469566e+02 4.802289e+02 5.030978e+02 4.802289e+02 4.469566e+02 3.649849e+02 2.316481e+02 1.074218e+02 2.862676e+01 2.601957e+00 0 0 0 0 0 0 0 0 
0 0 0 0 0 0 0 0 0 0 0 0 0 2.116499e-02 8.515076e-01 3.369927e+00 5.079173e+00 3.369927e+00 8.515076e-01 2.116499e-02 0 0 0 0 0 0 0 0 0 0 0 0 
0 0 0 0 0 0 0 0 0 0 0 0 0 0 0 0 0 0 0 0 0 0 0 0 0 0 0 0 0 0 0 0 
0 0 0 0 0 0 0 0 0 0 0 0 0 0 0 0 0 0 0 0 0 0 0 0 0 0 0 0 0 0 0 0 
0 0 0 0 0 0 0 0 0 0 0 0 0 0 0 0 0 0 0 0 0 0 0 0 0 0 0 0 0 0 0 0 
0 0 0 0 0 0 0 0 0 0 0 0 0 0 0 0 0 0 0 0 0 0 0 0 0 0 0 0 0 0 0 0 
0 0 0 0 0 0 0 0 0 0 0 0 0 0 0 0 0 0 0 0 0 0 0 0 0 0 0 0 0 0 0 0 
0 0 0 0 0 0 0 0 0 0 0 0 0 0 0 0 0 0 0 0 0 0 0 0 0 0 0 0 0 0 0 0 
