# vtk DataFile Version 2.0
Comment goes here
ASCII

DATASET STRUCTURED_POINTS
FIELD FieldData 1
TIME 1 1 double
0.82000000
DIMENSIONS    32   32   1

ORIGIN    0.000   0.000   0.000
SPACING   0.03125 0.03125   1.000

POINT_DATA   1024
SCALARS fMag double
LOOKUP_TABLE default

0 0 0 0 0 0 0 0 0 0 0 0 0 0 0 0 0 0 0 0 0 0 0 0 0 0 0 0 0 0 0 0 
0 0 0 0 0 0 0 0 0 0 0 0 0 0 0 0 0 0 0 0 0 0 0 0 0 0 0 0 0 0 0 0 
0 0 0 0 0 0 0 0 0 0 0 0 0 0 0 0 0 0 0 0 0 0 0 0 0 0 0 0 0 0 0 0 
0 0 0 0 0 0 0 0 0 0 0 0 0 0 0 0 0 0 0 0 0 0 0 0 0 0 0 0 0 0 0 0 
0 0 0 0 0 0 0 0 0 0 0 0 0 0 0 0 0 0 0 0 0 0 0 0 0 0 0 0 0 0 0 0 
0 0 0 0 0 0 0 0 0 0 0 0 0 0 0 0 0 0 0 0 0 0 0 0 0 0 0 0 0 0 0 0 
0 0 0 0 0 0 0 0 0 0 0 7.411783e-03 3.407981e+00 4.316758e+01 1.588894e+02 2.748437e+02 3.083176e+02 2.748437e+02 1.588894e+02 4.316758e+01 3.407981e+00 7.411783e-03 0 0 0 0 0 0 0 0 0 0 
0 0 0 0 0 0 0 0 0 0 1.229920e+00 4.379150e+01 2.828570e+02 6.564144e+02 9.419167e+02 1.065763e+03 1.061787e+03 1.065763e+03 9.419167e+02 6.564144e+02 2.828570e+02 4.379150e+01 1.229920e+00 0 0 0 0 0 0 0 0 0 
0 0 0 0 0 0 0 0 0 3.724743e-01 8.550341e+01 4.600766e+02 9.650948e+02 1.147970e+03 1.025625e+03 8.859525e+02 8.152658e+02 8.859525e+02 1.025625e+03 1.147970e+03 9.650948e+02 4.600766e+02 8.550341e+01 3.724743e-01 0 0 0 0 0 0 0 0 
0 0 0 0 0 0 0 0 8.000953e-04 5.896445e+01 4.702884e+02 1.028036e+03 1.025811e+03 5.838963e+02 2.434573e+02 9.520470e+01 6.179623e+01 9.520470e+01 2.434573e+02 5.838963e+02 1.025811e+03 1.028036e+03 4.702884e+02 5.896445e+01 8.000953e-04 0 0 0 0 0 0 0 
0 0 0 0 0 0 0 0 1.046586e+01 3.236604e+02 9.301200e+02 9.351007e+02 3.655888e+02 4.943562e+01 1.249822e+00 0 0 0 1.249822e+00 4.943562e+01 3.655888e+02 9.351007e+02 9.301200e+02 3.236604e+02 1.046586e+01 0 0 0 0 0 0 0 
0 0 0 0 0 0 0 3.753672e-02 1.001276e+02 6.803605e+02 9.642537e+02 4.170249e+02 3.436917e+01 1.285230e-03 0 0 0 0 0 1.285230e-03 3.436917e+01 4.170249e+02 9.642537e+02 6.803605e+02 1.001276e+02 3.753672e-02 0 0 0 0 0 0 
0 0 0 0 0 0 0 2.906995e+00 3.091823e+02 8.768823e+02 6.712510e+02 1.000132e+02 0 0 0 0 0 0 0 0 0 1.000132e+02 6.712510e+02 8.768823e+02 3.091823e+02 2.906995e+00 0 0 0 0 0 0 
0 0 0 0 0 0 0 2.576715e+01 5.223939e+02 8.768000e+02 3.903210e+02 1.001927e+01 0 0 0 0 0 0 0 0 0 1.001927e+01 3.903210e+02 8.768000e+02 5.223939e+02 2.576715e+01 0 0 0 0 0 0 
0 0 0 0 0 0 0 6.997581e+01 6.367153e+02 7.723191e+02 2.056419e+02 0 0 0 0 0 0 0 0 0 0 0 2.056419e+02 7.723191e+02 6.367153e+02 6.997581e+01 0 0 0 0 0 0 
0 0 0 0 0 0 0 1.098994e+02 6.679097e+02 6.843167e+02 1.263084e+02 0 0 0 0 0 0 0 0 0 0 0 1.263084e+02 6.843167e+02 6.679097e+02 1.098994e+02 0 0 0 0 0 0 
0 0 0 0 0 0 0 1.260211e+02 6.736547e+02 6.499758e+02 1.023422e+02 0 0 0 0 0 0 0 0 0 0 0 1.023422e+02 6.499758e+02 6.736547e+02 1.260211e+02 0 0 0 0 0 0 
0 0 0 0 0 0 0 1.098994e+02 6.679097e+02 6.843167e+02 1.263084e+02 0 0 0 0 0 0 0 0 0 0 0 1.263084e+02 6.843167e+02 6.679097e+02 1.098994e+02 0 0 0 0 0 0 
0 0 0 0 0 0 0 6.997581e+01 6.367153e+02 7.723191e+02 2.056419e+02 0 0 0 0 0 0 0 0 0 0 0 2.056419e+02 7.723191e+02 6.367153e+02 6.997581e+01 0 0 0 0 0 0 
0 0 0 0 0 0 0 2.576715e+01 5.223939e+02 8.768000e+02 3.903210e+02 1.001927e+01 0 0 0 0 0 0 0 0 0 1.001927e+01 3.903210e+02 8.768000e+02 5.223939e+02 2.576715e+01 0 0 0 0 0 0 
0 0 0 0 0 0 0 2.906995e+00 3.091823e+02 8.768823e+02 6.712510e+02 1.000132e+02 0 0 0 0 0 0 0 0 0 1.000132e+02 6.712510e+02 8.768823e+02 3.091823e+02 2.906995e+00 0 0 0 0 0 0 
0 0 0 0 0 0 0 3.753672e-02 1.001276e+02 6.803605e+02 9.642537e+02 4.170249e+02 3.436917e+01 1.285230e-03 0 0 0 0 0 1.285230e-03 3.436917e+01 4.170249e+02 9.642537e+02 6.803605e+02 1.001276e+02 3.753672e-02 0 0 0 0 0 0 
0 0 0 0 0 0 0 0 1.046586e+01 3.236604e+02 9.301200e+02 9.351007e+02 3.655888e+02 4.943562e+01 1.249822e+00 0 0 0 1.249822e+00 4.943562e+01 3.655888e+02 9.351007e+02 9.301200e+02 3.236604e+02 1.046586e+01 0 0 0 0 0 0 0 
0 0 0 0 0 0 0 0 8.000953e-04 5.896445e+01 4.702884e+02 1.028036e+03 1.025811e+03 5.838963e+02 2.434573e+02 9.520470e+01 6.179623e+01 9.520470e+01 2.434573e+02 5.838963e+02 1.025811e+03 1.028036e+03 4.702884e+02 5.896445e+01 8.000953e-04 0 0 0 0 0 0 0 
0 0 0 0 0 0 0 0 0 3.724743e-01 8.550341e+01 4.600766e+02 9.650948e+02 1.147970e+03 1.025625e+03 8.859525e+02 8.152658e+02 8.859525e+02 1.025625e+03 1.147970e+03 9.650948e+02 4.600766e+02 8.550341e+01 3.724743e-01 0 0 0 0 0 0 0 0 
0 0 0 0 0 0 0 0 0 0 1.229920e+00 4.379150e+01 2.828570e+02 6.564144e+02 9.419167e+02 1.065763e+03 1.061787e+03 1.065763e+03 9.419167e+02 6.564144e+02 2.828570e+02 4.379150e+01 1.229920e+00 0 0 0 0 0 0 0 0 0 
0 0 0 0 0 0 0 0 0 0 0 7.411783e-03 3.407981e+00 4.316758e+01 1.588894e+02 2.748437e+02 3.083176e+02 2.748437e+02 1.588894e+02 4.316758e+01 3.407981e+00 7.411783e-03 0 0 0 0 0 0 0 0 0 0 
0 0 0 0 0 0 0 0 0 0 0 0 0 0 0 0 0 0 0 0 0 0 0 0 0 0 0 0 0 0 0 0 
0 0 0 0 0 0 0 0 0 0 0 0 0 0 0 0 0 0 0 0 0 0 0 0 0 0 0 0 0 0 0 0 
0 0 0 0 0 0 0 0 0 0 0 0 0 0 0 0 0 0 0 0 0 0 0 0 0 0 0 0 0 0 0 0 
0 0 0 0 0 0 0 0 0 0 0 0 0 0 0 0 0 0 0 0 0 0 0 0 0 0 0 0 0 0 0 0 
0 0 0 0 0 0 0 0 0 0 0 0 0 0 0 0 0 0 0 0 0 0 0 0 0 0 0 0 0 0 0 0 
