# vtk DataFile Version 2.0
Comment goes here
ASCII

DATASET STRUCTURED_POINTS
FIELD FieldData 1
TIME 1 1 double
0.52000000
DIMENSIONS    32   32   1

ORIGIN    0.000   0.000   0.000
SPACING   0.03125 0.03125   1.000

POINT_DATA   1024
SCALARS fMag double
LOOKUP_TABLE default

0 0 0 0 0 0 0 0 0 0 0 0 0 0 0 0 0 0 0 0 0 0 0 0 0 0 0 0 0 0 0 0 
0 0 0 0 0 0 0 0 0 0 0 0 0 0 0 0 0 0 0 0 0 0 0 0 0 0 0 0 0 0 0 0 
0 0 0 0 0 0 0 0 0 0 0 0 0 0 0 0 0 0 0 0 0 0 0 0 0 0 0 0 0 0 0 0 
0 0 0 0 0 0 0 0 0 0 0 0 0 0 0 0 0 0 0 0 0 0 0 0 0 0 0 0 0 0 0 0 
0 0 0 0 0 0 0 0 0 0 0 0 0 0 0 0 0 0 0 0 0 0 0 0 0 0 0 0 0 0 0 0 
0 0 0 0 0 0 0 0 0 0 0 0 0 0 0 0 0 0 0 0 0 0 0 0 0 0 0 0 0 0 0 0 
0 0 0 0 0 0 0 0 0 0 0 1.969052e+00 3.648898e+01 1.375984e+02 2.972809e+02 4.082459e+02 4.178491e+02 4.082459e+02 2.972809e+02 1.375984e+02 3.648898e+01 1.969052e+00 0 0 0 0 0 0 0 0 0 0 
0 0 0 0 0 0 0 0 0 0 1.769863e+01 1.796315e+02 5.462864e+02 8.836248e+02 1.032934e+03 1.052467e+03 9.794769e+02 1.052467e+03 1.032934e+03 8.836248e+02 5.462864e+02 1.796315e+02 1.769863e+01 0 0 0 0 0 0 0 0 0 
0 0 0 0 0 0 0 0 0 4.142508e+01 3.375403e+02 8.579856e+02 1.123612e+03 1.033937e+03 8.277033e+02 6.650290e+02 5.683713e+02 6.650290e+02 8.277033e+02 1.033937e+03 1.123612e+03 8.579856e+02 3.375403e+02 4.142508e+01 0 0 0 0 0 0 0 0 
0 0 0 0 0 0 0 0 2.471057e+01 3.450124e+02 9.785809e+02 1.168879e+03 7.284529e+02 2.944316e+02 9.159912e+01 2.102056e+01 6.743453e+00 2.102056e+01 9.159912e+01 2.944316e+02 7.284529e+02 1.168879e+03 9.785809e+02 3.450124e+02 2.471057e+01 0 0 0 0 0 0 0 
0 0 0 0 0 0 0 2.302530e+00 1.719855e+02 8.456030e+02 1.154820e+03 5.856974e+02 1.087452e+02 4.614923e+00 0 0 0 0 0 4.614923e+00 1.087452e+02 5.856974e+02 1.154820e+03 8.456030e+02 1.719855e+02 2.302530e+00 0 0 0 0 0 0 
0 0 0 0 0 0 0 4.742421e+01 5.367318e+02 1.057523e+03 6.725512e+02 1.047062e+02 1.169123e-01 0 0 0 0 0 0 0 1.169123e-01 1.047062e+02 6.725512e+02 1.057523e+03 5.367318e+02 4.742421e+01 0 0 0 0 0 0 
0 0 0 0 0 0 0 1.755524e+02 8.580164e+02 8.998252e+02 2.231417e+02 4.246181e+00 0 0 0 0 0 0 0 0 0 4.246181e+00 2.231417e+02 8.998252e+02 8.580164e+02 1.755524e+02 0 0 0 0 0 0 
0 0 0 0 0 0 3.067369e+00 3.851980e+02 9.786547e+02 6.489354e+02 5.231067e+01 0 0 0 0 0 0 0 0 0 0 0 5.231067e+01 6.489354e+02 9.786547e+02 3.851980e+02 3.067369e+00 0 0 0 0 0 
0 0 0 0 0 0 1.593225e+01 5.758591e+02 9.912232e+02 4.356859e+02 4.063587e+00 0 0 0 0 0 0 0 0 0 0 0 4.063587e+00 4.356859e+02 9.912232e+02 5.758591e+02 1.593225e+01 0 0 0 0 0 
0 0 0 0 0 0 3.665294e+01 6.447706e+02 9.074087e+02 2.993323e+02 3.206696e-02 0 0 0 0 0 0 0 0 0 0 0 3.206696e-02 2.993323e+02 9.074087e+02 6.447706e+02 3.665294e+01 0 0 0 0 0 
0 0 0 0 0 0 4.734887e+01 6.406896e+02 8.380600e+02 2.447193e+02 0 0 0 0 0 0 0 0 0 0 0 0 0 2.447193e+02 8.380600e+02 6.406896e+02 4.734887e+01 0 0 0 0 0 
0 0 0 0 0 0 3.665294e+01 6.447706e+02 9.074087e+02 2.993323e+02 3.206696e-02 0 0 0 0 0 0 0 0 0 0 0 3.206696e-02 2.993323e+02 9.074087e+02 6.447706e+02 3.665294e+01 0 0 0 0 0 
0 0 0 0 0 0 1.593225e+01 5.758591e+02 9.912232e+02 4.356859e+02 4.063587e+00 0 0 0 0 0 0 0 0 0 0 0 4.063587e+00 4.356859e+02 9.912232e+02 5.758591e+02 1.593225e+01 0 0 0 0 0 
0 0 0 0 0 0 3.067369e+00 3.851980e+02 9.786547e+02 6.489354e+02 5.231067e+01 0 0 0 0 0 0 0 0 0 0 0 5.231067e+01 6.489354e+02 9.786547e+02 3.851980e+02 3.067369e+00 0 0 0 0 0 
0 0 0 0 0 0 0 1.755524e+02 8.580164e+02 8.998252e+02 2.231417e+02 4.246181e+00 0 0 0 0 0 0 0 0 0 4.246181e+00 2.231417e+02 8.998252e+02 8.580164e+02 1.755524e+02 0 0 0 0 0 0 
0 0 0 0 0 0 0 4.742421e+01 5.367318e+02 1.057523e+03 6.725512e+02 1.047062e+02 1.169123e-01 0 0 0 0 0 0 0 1.169123e-01 1.047062e+02 6.725512e+02 1.057523e+03 5.367318e+02 4.742421e+01 0 0 0 0 0 0 
0 0 0 0 0 0 0 2.302530e+00 1.719855e+02 8.456030e+02 1.154820e+03 5.856974e+02 1.087452e+02 4.614923e+00 0 0 0 0 0 4.614923e+00 1.087452e+02 5.856974e+02 1.154820e+03 8.456030e+02 1.719855e+02 2.302530e+00 0 0 0 0 0 0 
0 0 0 0 0 0 0 0 2.471057e+01 3.450124e+02 9.785809e+02 1.168879e+03 7.284529e+02 2.944316e+02 9.159912e+01 2.102056e+01 6.743453e+00 2.102056e+01 9.159912e+01 2.944316e+02 7.284529e+02 1.168879e+03 9.785809e+02 3.450124e+02 2.471057e+01 0 0 0 0 0 0 0 
0 0 0 0 0 0 0 0 0 4.142508e+01 3.375403e+02 8.579856e+02 1.123612e+03 1.033937e+03 8.277033e+02 6.650290e+02 5.683713e+02 6.650290e+02 8.277033e+02 1.033937e+03 1.123612e+03 8.579856e+02 3.375403e+02 4.142508e+01 0 0 0 0 0 0 0 0 
0 0 0 0 0 0 0 0 0 0 1.769863e+01 1.796315e+02 5.462864e+02 8.836248e+02 1.032934e+03 1.052467e+03 9.794769e+02 1.052467e+03 1.032934e+03 8.836248e+02 5.462864e+02 1.796315e+02 1.769863e+01 0 0 0 0 0 0 0 0 0 
0 0 0 0 0 0 0 0 0 0 0 1.969052e+00 3.648898e+01 1.375984e+02 2.972809e+02 4.082459e+02 4.178491e+02 4.082459e+02 2.972809e+02 1.375984e+02 3.648898e+01 1.969052e+00 0 0 0 0 0 0 0 0 0 0 
0 0 0 0 0 0 0 0 0 0 0 0 0 0 0 0 0 0 0 0 0 0 0 0 0 0 0 0 0 0 0 0 
0 0 0 0 0 0 0 0 0 0 0 0 0 0 0 0 0 0 0 0 0 0 0 0 0 0 0 0 0 0 0 0 
0 0 0 0 0 0 0 0 0 0 0 0 0 0 0 0 0 0 0 0 0 0 0 0 0 0 0 0 0 0 0 0 
0 0 0 0 0 0 0 0 0 0 0 0 0 0 0 0 0 0 0 0 0 0 0 0 0 0 0 0 0 0 0 0 
0 0 0 0 0 0 0 0 0 0 0 0 0 0 0 0 0 0 0 0 0 0 0 0 0 0 0 0 0 0 0 0 
