# vtk DataFile Version 2.0
Comment goes here
ASCII

DATASET STRUCTURED_POINTS
FIELD FieldData 1
TIME 1 1 double
1.02000000
DIMENSIONS    32   32   1

ORIGIN    0.000   0.000   0.000
SPACING   0.03125 0.03125   1.000

POINT_DATA   1024
SCALARS fMag double
LOOKUP_TABLE default

0 0 0 0 0 0 0 0 0 0 0 0 0 0 0 0 0 0 0 0 0 0 0 0 0 0 0 0 0 0 0 0 
0 0 0 0 0 0 0 0 0 0 0 0 0 0 0 0 0 0 0 0 0 0 0 0 0 0 0 0 0 0 0 0 
0 0 0 0 0 0 0 0 0 0 0 0 0 0 0 0 0 0 0 0 0 0 0 0 0 0 0 0 0 0 0 0 
0 0 0 0 0 0 0 0 0 0 0 0 0 0 0 0 0 0 0 0 0 0 0 0 0 0 0 0 0 0 0 0 
0 0 0 0 0 0 0 0 0 0 0 0 0 0 0 0 0 0 0 0 0 0 0 0 0 0 0 0 0 0 0 0 
0 0 0 0 0 0 0 0 0 0 0 0 0 0 0 0 0 0 0 0 0 0 0 0 0 0 0 0 0 0 0 0 
0 0 0 0 0 0 0 0 0 0 0 0 0 0 0 0 0 0 0 0 0 0 0 0 0 0 0 0 0 0 0 0 
0 0 0 0 0 0 0 0 0 0 0 0 0 0 2.846085e-01 1.278020e+00 1.966304e+00 1.278020e+00 2.846085e-01 0 0 0 0 0 0 0 0 0 0 0 0 0 
0 0 0 0 0 0 0 0 0 0 3.855045e-02 1.509137e+01 8.293348e+01 1.927771e+02 3.099061e+02 3.914020e+02 3.894487e+02 3.914020e+02 3.099061e+02 1.927771e+02 8.293348e+01 1.509137e+01 3.855045e-02 0 0 0 0 0 0 0 0 0 
0 0 0 0 0 0 0 0 0 6.236042e+00 9.170460e+01 3.154912e+02 5.844015e+02 7.520770e+02 7.772374e+02 7.611134e+02 7.125313e+02 7.611134e+02 7.772374e+02 7.520770e+02 5.844015e+02 3.154912e+02 9.170460e+01 6.236042e+00 0 0 0 0 0 0 0 0 
0 0 0 0 0 0 0 0 1.587079e+01 1.846551e+02 5.866718e+02 8.503437e+02 8.023770e+02 6.539454e+02 4.913126e+02 3.723657e+02 3.251333e+02 3.723657e+02 4.913126e+02 6.539454e+02 8.023770e+02 8.503437e+02 5.866718e+02 1.846551e+02 1.587079e+01 0 0 0 0 0 0 0 
0 0 0 0 0 0 0 9.294680e+00 2.168769e+02 7.410076e+02 9.959829e+02 6.942642e+02 3.053829e+02 9.807608e+01 2.505040e+01 2.837979e+00 8.447892e-02 2.837979e+00 2.505040e+01 9.807608e+01 3.053829e+02 6.942642e+02 9.959829e+02 7.410076e+02 2.168769e+02 9.294680e+00 0 0 0 0 0 0 
0 0 0 0 0 0 1.062623e-01 1.146895e+02 6.938525e+02 1.113912e+03 6.657105e+02 1.529925e+02 1.213952e+01 0 0 0 0 0 0 0 1.213952e+01 1.529925e+02 6.657105e+02 1.113912e+03 6.938525e+02 1.146895e+02 1.062623e-01 0 0 0 0 0 
0 0 0 0 0 0 6.550259e+00 3.824369e+02 1.092658e+03 8.858987e+02 1.749099e+02 4.859167e+00 0 0 0 0 0 0 0 0 0 4.859167e+00 1.749099e+02 8.858987e+02 1.092658e+03 3.824369e+02 6.550259e+00 0 0 0 0 0 
0 0 0 0 0 0 5.160545e+01 7.039125e+02 1.136378e+03 4.973891e+02 1.605833e+01 0 0 0 0 0 0 0 0 0 0 0 1.605833e+01 4.973891e+02 1.136378e+03 7.039125e+02 5.160545e+01 0 0 0 0 0 
0 0 0 0 0 0 1.098218e+02 8.903277e+02 1.021525e+03 2.426366e+02 1.966703e-01 0 0 0 0 0 0 0 0 0 0 0 1.966703e-01 2.426366e+02 1.021525e+03 8.903277e+02 1.098218e+02 0 0 0 0 0 
0 0 0 0 0 0 1.292098e+02 8.956048e+02 9.619501e+02 1.955551e+02 0 0 0 0 0 0 0 0 0 0 0 0 0 1.955551e+02 9.619501e+02 8.956048e+02 1.292098e+02 0 0 0 0 0 
0 0 0 0 0 0 1.098218e+02 8.903277e+02 1.021525e+03 2.426366e+02 1.966703e-01 0 0 0 0 0 0 0 0 0 0 0 1.966703e-01 2.426366e+02 1.021525e+03 8.903277e+02 1.098218e+02 0 0 0 0 0 
0 0 0 0 0 0 5.160545e+01 7.039125e+02 1.136378e+03 4.973891e+02 1.605833e+01 0 0 0 0 0 0 0 0 0 0 0 1.605833e+01 4.973891e+02 1.136378e+03 7.039125e+02 5.160545e+01 0 0 0 0 0 
0 0 0 0 0 0 6.550259e+00 3.824369e+02 1.092658e+03 8.858987e+02 1.749099e+02 4.859167e+00 0 0 0 0 0 0 0 0 0 4.859167e+00 1.749099e+02 8.858987e+02 1.092658e+03 3.824369e+02 6.550259e+00 0 0 0 0 0 
0 0 0 0 0 0 1.062623e-01 1.146895e+02 6.938525e+02 1.113912e+03 6.657105e+02 1.529925e+02 1.213952e+01 0 0 0 0 0 0 0 1.213952e+01 1.529925e+02 6.657105e+02 1.113912e+03 6.938525e+02 1.146895e+02 1.062623e-01 0 0 0 0 0 
0 0 0 0 0 0 0 9.294680e+00 2.168769e+02 7.410076e+02 9.959829e+02 6.942642e+02 3.053829e+02 9.807608e+01 2.505040e+01 2.837979e+00 8.447892e-02 2.837979e+00 2.505040e+01 9.807608e+01 3.053829e+02 6.942642e+02 9.959829e+02 7.410076e+02 2.168769e+02 9.294680e+00 0 0 0 0 0 0 
0 0 0 0 0 0 0 0 1.587079e+01 1.846551e+02 5.866718e+02 8.503437e+02 8.023770e+02 6.539454e+02 4.913126e+02 3.723657e+02 3.251333e+02 3.723657e+02 4.913126e+02 6.539454e+02 8.023770e+02 8.503437e+02 5.866718e+02 1.846551e+02 1.587079e+01 0 0 0 0 0 0 0 
0 0 0 0 0 0 0 0 0 6.236042e+00 9.170460e+01 3.154912e+02 5.844015e+02 7.520770e+02 7.772374e+02 7.611134e+02 7.125313e+02 7.611134e+02 7.772374e+02 7.520770e+02 5.844015e+02 3.154912e+02 9.170460e+01 6.236042e+00 0 0 0 0 0 0 0 0 
0 0 0 0 0 0 0 0 0 0 3.855045e-02 1.509137e+01 8.293348e+01 1.927771e+02 3.099061e+02 3.914020e+02 3.894487e+02 3.914020e+02 3.099061e+02 1.927771e+02 8.293348e+01 1.509137e+01 3.855045e-02 0 0 0 0 0 0 0 0 0 
0 0 0 0 0 0 0 0 0 0 0 0 0 0 2.846085e-01 1.278020e+00 1.966304e+00 1.278020e+00 2.846085e-01 0 0 0 0 0 0 0 0 0 0 0 0 0 
0 0 0 0 0 0 0 0 0 0 0 0 0 0 0 0 0 0 0 0 0 0 0 0 0 0 0 0 0 0 0 0 
0 0 0 0 0 0 0 0 0 0 0 0 0 0 0 0 0 0 0 0 0 0 0 0 0 0 0 0 0 0 0 0 
0 0 0 0 0 0 0 0 0 0 0 0 0 0 0 0 0 0 0 0 0 0 0 0 0 0 0 0 0 0 0 0 
0 0 0 0 0 0 0 0 0 0 0 0 0 0 0 0 0 0 0 0 0 0 0 0 0 0 0 0 0 0 0 0 
0 0 0 0 0 0 0 0 0 0 0 0 0 0 0 0 0 0 0 0 0 0 0 0 0 0 0 0 0 0 0 0 
0 0 0 0 0 0 0 0 0 0 0 0 0 0 0 0 0 0 0 0 0 0 0 0 0 0 0 0 0 0 0 0 
