# vtk DataFile Version 2.0
Comment goes here
ASCII

DATASET STRUCTURED_POINTS
FIELD FieldData 1
TIME 1 1 double
0.90000000
DIMENSIONS    32   32   1

ORIGIN    0.000   0.000   0.000
SPACING   0.03125 0.03125   1.000

POINT_DATA   1024
SCALARS fMag double
LOOKUP_TABLE default

0 0 0 0 0 0 0 0 0 0 0 0 0 0 0 0 0 0 0 0 0 0 0 0 0 0 0 0 0 0 0 0 
0 0 0 0 0 0 0 0 0 0 0 0 0 0 0 0 0 0 0 0 0 0 0 0 0 0 0 0 0 0 0 0 
0 0 0 0 0 0 0 0 0 0 0 0 0 0 0 0 0 0 0 0 0 0 0 0 0 0 0 0 0 0 0 0 
0 0 0 0 0 0 0 0 0 0 0 0 0 0 0 0 0 0 0 0 0 0 0 0 0 0 0 0 0 0 0 0 
0 0 0 0 0 0 0 0 0 0 0 0 0 0 0 0 0 0 0 0 0 0 0 0 0 0 0 0 0 0 0 0 
0 0 0 0 0 0 0 0 0 0 0 0 0 0 0 0 0 0 0 0 0 0 0 0 0 0 0 0 0 0 0 0 
0 0 0 0 0 0 0 0 0 0 0 0 0 0 0 0 0 0 0 0 0 0 0 0 0 0 0 0 0 0 0 0 
0 0 0 0 0 0 0 0 0 0 0 1.913106e-02 2.113777e+00 2.063655e+01 6.909606e+01 1.173450e+02 1.318392e+02 1.173450e+02 6.909606e+01 2.063655e+01 2.113777e+00 1.913106e-02 0 0 0 0 0 0 0 0 0 0 
0 0 0 0 0 0 0 0 0 0 7.445261e+00 7.306976e+01 2.723784e+02 5.199186e+02 6.484281e+02 7.009562e+02 7.023455e+02 7.009562e+02 6.484281e+02 5.199186e+02 2.723784e+02 7.306976e+01 7.445261e+00 0 0 0 0 0 0 0 0 0 
0 0 0 0 0 0 0 0 0 2.909618e+01 2.388788e+02 5.937129e+02 8.443861e+02 8.981365e+02 8.093806e+02 7.132142e+02 6.766429e+02 7.132142e+02 8.093806e+02 8.981365e+02 8.443861e+02 5.937129e+02 2.388788e+02 2.909618e+01 0 0 0 0 0 0 0 0 
0 0 0 0 0 0 0 0 4.204889e+01 3.413798e+02 8.164488e+02 9.655250e+02 7.144939e+02 4.180847e+02 2.300768e+02 1.296238e+02 1.061366e+02 1.296238e+02 2.300768e+02 4.180847e+02 7.144939e+02 9.655250e+02 8.164488e+02 3.413798e+02 4.204889e+01 0 0 0 0 0 0 0 
0 0 0 0 0 0 0 1.420290e+01 2.928773e+02 9.042120e+02 1.014331e+03 5.114549e+02 1.374615e+02 1.752370e+01 1.260763e-01 0 0 0 1.260763e-01 1.752370e+01 1.374615e+02 5.114549e+02 1.014331e+03 9.042120e+02 2.928773e+02 1.420290e+01 0 0 0 0 0 0 
0 0 0 0 0 0 6.755285e-02 1.409763e+02 7.689631e+02 1.094567e+03 5.304691e+02 7.142683e+01 5.445887e-01 0 0 0 0 0 0 0 5.445887e-01 7.142683e+01 5.304691e+02 1.094567e+03 7.689631e+02 1.409763e+02 6.755285e-02 0 0 0 0 0 
0 0 0 0 0 0 5.465454e+00 4.092673e+02 1.098340e+03 8.086138e+02 1.183867e+02 2.034832e-01 0 0 0 0 0 0 0 0 0 2.034832e-01 1.183867e+02 8.086138e+02 1.098340e+03 4.092673e+02 5.465454e+00 0 0 0 0 0 
0 0 0 0 0 0 3.557776e+01 6.700625e+02 1.103857e+03 4.806964e+02 1.149935e+01 0 0 0 0 0 0 0 0 0 0 0 1.149935e+01 4.806964e+02 1.103857e+03 6.700625e+02 3.557776e+01 0 0 0 0 0 
0 0 0 0 0 0 7.788239e+01 7.882153e+02 9.703522e+02 2.602747e+02 0 0 0 0 0 0 0 0 0 0 0 0 0 2.602747e+02 9.703522e+02 7.882153e+02 7.788239e+01 0 0 0 0 0 
0 0 0 0 0 0 9.559943e+01 7.931427e+02 9.057622e+02 2.082189e+02 0 0 0 0 0 0 0 0 0 0 0 0 0 2.082189e+02 9.057622e+02 7.931427e+02 9.559943e+01 0 0 0 0 0 
0 0 0 0 0 0 7.788239e+01 7.882153e+02 9.703522e+02 2.602747e+02 0 0 0 0 0 0 0 0 0 0 0 0 0 2.602747e+02 9.703522e+02 7.882153e+02 7.788239e+01 0 0 0 0 0 
0 0 0 0 0 0 3.557776e+01 6.700625e+02 1.103857e+03 4.806964e+02 1.149935e+01 0 0 0 0 0 0 0 0 0 0 0 1.149935e+01 4.806964e+02 1.103857e+03 6.700625e+02 3.557776e+01 0 0 0 0 0 
0 0 0 0 0 0 5.465454e+00 4.092673e+02 1.098340e+03 8.086138e+02 1.183867e+02 2.034832e-01 0 0 0 0 0 0 0 0 0 2.034832e-01 1.183867e+02 8.086138e+02 1.098340e+03 4.092673e+02 5.465454e+00 0 0 0 0 0 
0 0 0 0 0 0 6.755285e-02 1.409763e+02 7.689631e+02 1.094567e+03 5.304691e+02 7.142683e+01 5.445887e-01 0 0 0 0 0 0 0 5.445887e-01 7.142683e+01 5.304691e+02 1.094567e+03 7.689631e+02 1.409763e+02 6.755285e-02 0 0 0 0 0 
0 0 0 0 0 0 0 1.420290e+01 2.928773e+02 9.042120e+02 1.014331e+03 5.114549e+02 1.374615e+02 1.752370e+01 1.260763e-01 0 0 0 1.260763e-01 1.752370e+01 1.374615e+02 5.114549e+02 1.014331e+03 9.042120e+02 2.928773e+02 1.420290e+01 0 0 0 0 0 0 
0 0 0 0 0 0 0 0 4.204889e+01 3.413798e+02 8.164488e+02 9.655250e+02 7.144939e+02 4.180847e+02 2.300768e+02 1.296238e+02 1.061366e+02 1.296238e+02 2.300768e+02 4.180847e+02 7.144939e+02 9.655250e+02 8.164488e+02 3.413798e+02 4.204889e+01 0 0 0 0 0 0 0 
0 0 0 0 0 0 0 0 0 2.909618e+01 2.388788e+02 5.937129e+02 8.443861e+02 8.981365e+02 8.093806e+02 7.132142e+02 6.766429e+02 7.132142e+02 8.093806e+02 8.981365e+02 8.443861e+02 5.937129e+02 2.388788e+02 2.909618e+01 0 0 0 0 0 0 0 0 
0 0 0 0 0 0 0 0 0 0 7.445261e+00 7.306976e+01 2.723784e+02 5.199186e+02 6.484281e+02 7.009562e+02 7.023455e+02 7.009562e+02 6.484281e+02 5.199186e+02 2.723784e+02 7.306976e+01 7.445261e+00 0 0 0 0 0 0 0 0 0 
0 0 0 0 0 0 0 0 0 0 0 1.913106e-02 2.113777e+00 2.063655e+01 6.909606e+01 1.173450e+02 1.318392e+02 1.173450e+02 6.909606e+01 2.063655e+01 2.113777e+00 1.913106e-02 0 0 0 0 0 0 0 0 0 0 
0 0 0 0 0 0 0 0 0 0 0 0 0 0 0 0 0 0 0 0 0 0 0 0 0 0 0 0 0 0 0 0 
0 0 0 0 0 0 0 0 0 0 0 0 0 0 0 0 0 0 0 0 0 0 0 0 0 0 0 0 0 0 0 0 
0 0 0 0 0 0 0 0 0 0 0 0 0 0 0 0 0 0 0 0 0 0 0 0 0 0 0 0 0 0 0 0 
0 0 0 0 0 0 0 0 0 0 0 0 0 0 0 0 0 0 0 0 0 0 0 0 0 0 0 0 0 0 0 0 
0 0 0 0 0 0 0 0 0 0 0 0 0 0 0 0 0 0 0 0 0 0 0 0 0 0 0 0 0 0 0 0 
0 0 0 0 0 0 0 0 0 0 0 0 0 0 0 0 0 0 0 0 0 0 0 0 0 0 0 0 0 0 0 0 
