# vtk DataFile Version 2.0
Comment goes here
ASCII

DATASET STRUCTURED_POINTS
FIELD FieldData 1
TIME 1 1 double
0.66000000
DIMENSIONS    32   32   1

ORIGIN    0.000   0.000   0.000
SPACING   0.03125 0.03125   1.000

POINT_DATA   1024
SCALARS fMag double
LOOKUP_TABLE default

0 0 0 0 0 0 0 0 0 0 0 0 0 0 0 0 0 0 0 0 0 0 0 0 0 0 0 0 0 0 0 0 
0 0 0 0 0 0 0 0 0 0 0 0 0 0 0 0 0 0 0 0 0 0 0 0 0 0 0 0 0 0 0 0 
0 0 0 0 0 0 0 0 0 0 0 0 0 0 0 0 0 0 0 0 0 0 0 0 0 0 0 0 0 0 0 0 
0 0 0 0 0 0 0 0 0 0 0 0 0 0 0 0 0 0 0 0 0 0 0 0 0 0 0 0 0 0 0 0 
0 0 0 0 0 0 0 0 0 0 0 0 0 0 0 0 0 0 0 0 0 0 0 0 0 0 0 0 0 0 0 0 
0 0 0 0 0 0 0 0 0 0 0 0 0 2.333637e+00 2.080349e+01 6.451275e+01 9.203669e+01 6.451275e+01 2.080349e+01 2.333637e+00 0 0 0 0 0 0 0 0 0 0 0 0 
0 0 0 0 0 0 0 0 0 0 0 7.516017e+00 9.993700e+01 4.006831e+02 7.028493e+02 8.506445e+02 9.297693e+02 8.506445e+02 7.028493e+02 4.006831e+02 9.993700e+01 7.516017e+00 0 0 0 0 0 0 0 0 0 0 
0 0 0 0 0 0 0 0 0 2.061343e-02 1.618148e+01 2.395940e+02 7.708478e+02 1.235195e+03 1.294255e+03 1.153999e+03 1.128603e+03 1.153999e+03 1.294255e+03 1.235195e+03 7.708478e+02 2.395940e+02 1.618148e+01 2.061343e-02 0 0 0 0 0 0 0 0 
0 0 0 0 0 0 0 0 0 9.310375e+00 2.659723e+02 8.678401e+02 1.264287e+03 1.052694e+03 6.300975e+02 3.680877e+02 2.908705e+02 3.680877e+02 6.300975e+02 1.052694e+03 1.264287e+03 8.678401e+02 2.659723e+02 9.310375e+00 0 0 0 0 0 0 0 0 
0 0 0 0 0 0 0 0 4.547871e-01 1.351445e+02 7.317477e+02 1.133830e+03 7.338575e+02 2.136838e+02 2.150187e+01 2.611628e-01 0 2.611628e-01 2.150187e+01 2.136838e+02 7.338575e+02 1.133830e+03 7.317477e+02 1.351445e+02 4.547871e-01 0 0 0 0 0 0 0 
0 0 0 0 0 0 0 0 2.499570e+01 4.642463e+02 1.004266e+03 7.127675e+02 1.496834e+02 4.503686e+00 0 0 0 0 0 4.503686e+00 1.496834e+02 7.127675e+02 1.004266e+03 4.642463e+02 2.499570e+01 0 0 0 0 0 0 0 
0 0 0 0 0 0 0 1.805845e-01 1.461317e+02 7.621659e+02 8.753620e+02 2.647586e+02 6.148798e+00 0 0 0 0 0 0 0 6.148798e+00 2.647586e+02 8.753620e+02 7.621659e+02 1.461317e+02 1.805845e-01 0 0 0 0 0 0 
0 0 0 0 0 0 0 4.080030e+00 3.558968e+02 8.596239e+02 5.600119e+02 4.928730e+01 0 0 0 0 0 0 0 0 0 4.928730e+01 5.600119e+02 8.596239e+02 3.558968e+02 4.080030e+00 0 0 0 0 0 0 
0 0 0 0 0 0 0 2.526492e+01 5.127909e+02 8.142248e+02 3.305137e+02 4.410407e+00 0 0 0 0 0 0 0 0 0 4.410407e+00 3.305137e+02 8.142248e+02 5.127909e+02 2.526492e+01 0 0 0 0 0 0 
0 0 0 0 0 0 0 6.627528e+01 5.844238e+02 6.992808e+02 1.810591e+02 0 0 0 0 0 0 0 0 0 0 0 1.810591e+02 6.992808e+02 5.844238e+02 6.627528e+01 0 0 0 0 0 0 
0 0 0 0 0 0 0 1.068141e+02 6.515553e+02 6.671529e+02 1.224194e+02 0 0 0 0 0 0 0 0 0 0 0 1.224194e+02 6.671529e+02 6.515553e+02 1.068141e+02 0 0 0 0 0 0 
0 0 0 0 0 0 0 1.226478e+02 6.678666e+02 6.494994e+02 1.042807e+02 0 0 0 0 0 0 0 0 0 0 0 1.042807e+02 6.494994e+02 6.678666e+02 1.226478e+02 0 0 0 0 0 0 
0 0 0 0 0 0 0 1.068141e+02 6.515553e+02 6.671529e+02 1.224194e+02 0 0 0 0 0 0 0 0 0 0 0 1.224194e+02 6.671529e+02 6.515553e+02 1.068141e+02 0 0 0 0 0 0 
0 0 0 0 0 0 0 6.627528e+01 5.844238e+02 6.992808e+02 1.810591e+02 0 0 0 0 0 0 0 0 0 0 0 1.810591e+02 6.992808e+02 5.844238e+02 6.627528e+01 0 0 0 0 0 0 
0 0 0 0 0 0 0 2.526492e+01 5.127909e+02 8.142248e+02 3.305137e+02 4.410407e+00 0 0 0 0 0 0 0 0 0 4.410407e+00 3.305137e+02 8.142248e+02 5.127909e+02 2.526492e+01 0 0 0 0 0 0 
0 0 0 0 0 0 0 4.080030e+00 3.558968e+02 8.596239e+02 5.600119e+02 4.928730e+01 0 0 0 0 0 0 0 0 0 4.928730e+01 5.600119e+02 8.596239e+02 3.558968e+02 4.080030e+00 0 0 0 0 0 0 
0 0 0 0 0 0 0 1.805845e-01 1.461317e+02 7.621659e+02 8.753620e+02 2.647586e+02 6.148798e+00 0 0 0 0 0 0 0 6.148798e+00 2.647586e+02 8.753620e+02 7.621659e+02 1.461317e+02 1.805845e-01 0 0 0 0 0 0 
0 0 0 0 0 0 0 0 2.499570e+01 4.642463e+02 1.004266e+03 7.127675e+02 1.496834e+02 4.503686e+00 0 0 0 0 0 4.503686e+00 1.496834e+02 7.127675e+02 1.004266e+03 4.642463e+02 2.499570e+01 0 0 0 0 0 0 0 
0 0 0 0 0 0 0 0 4.547871e-01 1.351445e+02 7.317477e+02 1.133830e+03 7.338575e+02 2.136838e+02 2.150187e+01 2.611628e-01 0 2.611628e-01 2.150187e+01 2.136838e+02 7.338575e+02 1.133830e+03 7.317477e+02 1.351445e+02 4.547871e-01 0 0 0 0 0 0 0 
0 0 0 0 0 0 0 0 0 9.310375e+00 2.659723e+02 8.678401e+02 1.264287e+03 1.052694e+03 6.300975e+02 3.680877e+02 2.908705e+02 3.680877e+02 6.300975e+02 1.052694e+03 1.264287e+03 8.678401e+02 2.659723e+02 9.310375e+00 0 0 0 0 0 0 0 0 
0 0 0 0 0 0 0 0 0 2.061343e-02 1.618148e+01 2.395940e+02 7.708478e+02 1.235195e+03 1.294255e+03 1.153999e+03 1.128603e+03 1.153999e+03 1.294255e+03 1.235195e+03 7.708478e+02 2.395940e+02 1.618148e+01 2.061343e-02 0 0 0 0 0 0 0 0 
0 0 0 0 0 0 0 0 0 0 0 7.516017e+00 9.993700e+01 4.006831e+02 7.028493e+02 8.506445e+02 9.297693e+02 8.506445e+02 7.028493e+02 4.006831e+02 9.993700e+01 7.516017e+00 0 0 0 0 0 0 0 0 0 0 
0 0 0 0 0 0 0 0 0 0 0 0 0 2.333637e+00 2.080349e+01 6.451275e+01 9.203669e+01 6.451275e+01 2.080349e+01 2.333637e+00 0 0 0 0 0 0 0 0 0 0 0 0 
0 0 0 0 0 0 0 0 0 0 0 0 0 0 0 0 0 0 0 0 0 0 0 0 0 0 0 0 0 0 0 0 
0 0 0 0 0 0 0 0 0 0 0 0 0 0 0 0 0 0 0 0 0 0 0 0 0 0 0 0 0 0 0 0 
0 0 0 0 0 0 0 0 0 0 0 0 0 0 0 0 0 0 0 0 0 0 0 0 0 0 0 0 0 0 0 0 
0 0 0 0 0 0 0 0 0 0 0 0 0 0 0 0 0 0 0 0 0 0 0 0 0 0 0 0 0 0 0 0 
