# vtk DataFile Version 2.0
Comment goes here
ASCII

DATASET STRUCTURED_POINTS
FIELD FieldData 1
TIME 1 1 double
0.84000000
DIMENSIONS    32   32   1

ORIGIN    0.000   0.000   0.000
SPACING   0.03125 0.03125   1.000

POINT_DATA   1024
SCALARS fMag double
LOOKUP_TABLE default

0 0 0 0 0 0 0 0 0 0 0 0 0 0 0 0 0 0 0 0 0 0 0 0 0 0 0 0 0 0 0 0 
0 0 0 0 0 0 0 0 0 0 0 0 0 0 0 0 0 0 0 0 0 0 0 0 0 0 0 0 0 0 0 0 
0 0 0 0 0 0 0 0 0 0 0 0 0 0 0 0 0 0 0 0 0 0 0 0 0 0 0 0 0 0 0 0 
0 0 0 0 0 0 0 0 0 0 0 0 0 0 0 0 0 0 0 0 0 0 0 0 0 0 0 0 0 0 0 0 
0 0 0 0 0 0 0 0 0 0 0 0 0 0 0 0 0 0 0 0 0 0 0 0 0 0 0 0 0 0 0 0 
0 0 0 0 0 0 0 0 0 0 0 0 0 0 0 0 0 0 0 0 0 0 0 0 0 0 0 0 0 0 0 0 
0 0 0 0 0 0 0 0 0 0 0 0 0 0 0 0 0 0 0 0 0 0 0 0 0 0 0 0 0 0 0 0 
0 0 0 0 0 0 0 0 0 0 0 1.322425e+00 3.863039e+01 1.376288e+02 2.763823e+02 3.807555e+02 4.045558e+02 3.807555e+02 2.763823e+02 1.376288e+02 3.863039e+01 1.322425e+00 0 0 0 0 0 0 0 0 0 0 
0 0 0 0 0 0 0 0 0 7.012550e-01 3.458025e+01 1.983909e+02 5.084338e+02 7.820550e+02 8.953556e+02 9.178615e+02 8.943711e+02 9.178615e+02 8.953556e+02 7.820550e+02 5.084338e+02 1.983909e+02 3.458025e+01 7.012550e-01 0 0 0 0 0 0 0 0 
0 0 0 0 0 0 0 0 7.562260e-01 4.853321e+01 3.871756e+02 8.537941e+02 9.865709e+02 8.554070e+02 6.830212e+02 5.494119e+02 4.928246e+02 5.494119e+02 6.830212e+02 8.554070e+02 9.865709e+02 8.537941e+02 3.871756e+02 4.853321e+01 7.562260e-01 0 0 0 0 0 0 0 
0 0 0 0 0 0 0 0 4.558954e+01 4.136618e+02 9.455115e+02 1.009831e+03 5.824855e+02 2.156024e+02 6.392957e+01 1.252056e+01 3.009306e+00 1.252056e+01 6.392957e+01 2.156024e+02 5.824855e+02 1.009831e+03 9.455115e+02 4.136618e+02 4.558954e+01 0 0 0 0 0 0 0 
0 0 0 0 0 0 0 9.097907e+00 2.655679e+02 9.018104e+02 9.887629e+02 4.078536e+02 6.882703e+01 2.766799e+00 0 0 0 0 0 2.766799e+00 6.882703e+01 4.078536e+02 9.887629e+02 9.018104e+02 2.655679e+02 9.097907e+00 0 0 0 0 0 0 
0 0 0 0 0 0 0 8.068166e+01 6.740929e+02 1.046451e+03 5.114985e+02 5.713612e+01 4.664081e-01 0 0 0 0 0 0 0 4.664081e-01 5.713612e+01 5.114985e+02 1.046451e+03 6.740929e+02 8.068166e+01 0 0 0 0 0 0 
0 0 0 0 0 0 5.502771e-01 2.492914e+02 9.291164e+02 8.316631e+02 1.528891e+02 1.063998e+00 0 0 0 0 0 0 0 0 0 1.063998e+00 1.528891e+02 8.316631e+02 9.291164e+02 2.492914e+02 5.502771e-01 0 0 0 0 0 
0 0 0 0 0 0 5.654273e+00 4.844142e+02 1.004271e+03 5.476108e+02 2.161528e+01 0 0 0 0 0 0 0 0 0 0 0 2.161528e+01 5.476108e+02 1.004271e+03 4.844142e+02 5.654273e+00 0 0 0 0 0 
0 0 0 0 0 0 1.880531e+01 6.249507e+02 1.000092e+03 3.950178e+02 9.924813e-01 0 0 0 0 0 0 0 0 0 0 0 9.924813e-01 3.950178e+02 1.000092e+03 6.249507e+02 1.880531e+01 0 0 0 0 0 
0 0 0 0 0 0 2.741248e+01 6.355901e+02 9.311947e+02 3.230171e+02 0 0 0 0 0 0 0 0 0 0 0 0 0 3.230171e+02 9.311947e+02 6.355901e+02 2.741248e+01 0 0 0 0 0 
0 0 0 0 0 0 1.880531e+01 6.249507e+02 1.000092e+03 3.950178e+02 9.924813e-01 0 0 0 0 0 0 0 0 0 0 0 9.924813e-01 3.950178e+02 1.000092e+03 6.249507e+02 1.880531e+01 0 0 0 0 0 
0 0 0 0 0 0 5.654273e+00 4.844142e+02 1.004271e+03 5.476108e+02 2.161528e+01 0 0 0 0 0 0 0 0 0 0 0 2.161528e+01 5.476108e+02 1.004271e+03 4.844142e+02 5.654273e+00 0 0 0 0 0 
0 0 0 0 0 0 5.502771e-01 2.492914e+02 9.291164e+02 8.316631e+02 1.528891e+02 1.063998e+00 0 0 0 0 0 0 0 0 0 1.063998e+00 1.528891e+02 8.316631e+02 9.291164e+02 2.492914e+02 5.502771e-01 0 0 0 0 0 
0 0 0 0 0 0 0 8.068166e+01 6.740929e+02 1.046451e+03 5.114985e+02 5.713612e+01 4.664081e-01 0 0 0 0 0 0 0 4.664081e-01 5.713612e+01 5.114985e+02 1.046451e+03 6.740929e+02 8.068166e+01 0 0 0 0 0 0 
0 0 0 0 0 0 0 9.097907e+00 2.655679e+02 9.018104e+02 9.887629e+02 4.078536e+02 6.882703e+01 2.766799e+00 0 0 0 0 0 2.766799e+00 6.882703e+01 4.078536e+02 9.887629e+02 9.018104e+02 2.655679e+02 9.097907e+00 0 0 0 0 0 0 
0 0 0 0 0 0 0 0 4.558954e+01 4.136618e+02 9.455115e+02 1.009831e+03 5.824855e+02 2.156024e+02 6.392957e+01 1.252056e+01 3.009306e+00 1.252056e+01 6.392957e+01 2.156024e+02 5.824855e+02 1.009831e+03 9.455115e+02 4.136618e+02 4.558954e+01 0 0 0 0 0 0 0 
0 0 0 0 0 0 0 0 7.562260e-01 4.853321e+01 3.871756e+02 8.537941e+02 9.865709e+02 8.554070e+02 6.830212e+02 5.494119e+02 4.928246e+02 5.494119e+02 6.830212e+02 8.554070e+02 9.865709e+02 8.537941e+02 3.871756e+02 4.853321e+01 7.562260e-01 0 0 0 0 0 0 0 
0 0 0 0 0 0 0 0 0 7.012550e-01 3.458025e+01 1.983909e+02 5.084338e+02 7.820550e+02 8.953556e+02 9.178615e+02 8.943711e+02 9.178615e+02 8.953556e+02 7.820550e+02 5.084338e+02 1.983909e+02 3.458025e+01 7.012550e-01 0 0 0 0 0 0 0 0 
0 0 0 0 0 0 0 0 0 0 0 1.322425e+00 3.863039e+01 1.376288e+02 2.763823e+02 3.807555e+02 4.045558e+02 3.807555e+02 2.763823e+02 1.376288e+02 3.863039e+01 1.322425e+00 0 0 0 0 0 0 0 0 0 0 
0 0 0 0 0 0 0 0 0 0 0 0 0 0 0 0 0 0 0 0 0 0 0 0 0 0 0 0 0 0 0 0 
0 0 0 0 0 0 0 0 0 0 0 0 0 0 0 0 0 0 0 0 0 0 0 0 0 0 0 0 0 0 0 0 
0 0 0 0 0 0 0 0 0 0 0 0 0 0 0 0 0 0 0 0 0 0 0 0 0 0 0 0 0 0 0 0 
0 0 0 0 0 0 0 0 0 0 0 0 0 0 0 0 0 0 0 0 0 0 0 0 0 0 0 0 0 0 0 0 
0 0 0 0 0 0 0 0 0 0 0 0 0 0 0 0 0 0 0 0 0 0 0 0 0 0 0 0 0 0 0 0 
0 0 0 0 0 0 0 0 0 0 0 0 0 0 0 0 0 0 0 0 0 0 0 0 0 0 0 0 0 0 0 0 
