# vtk DataFile Version 2.0
Comment goes here
ASCII

DATASET STRUCTURED_POINTS
FIELD FieldData 1
TIME 1 1 double
0.86000000
DIMENSIONS    32   32   1

ORIGIN    0.000   0.000   0.000
SPACING   0.03125 0.03125   1.000

POINT_DATA   1024
SCALARS fMag double
LOOKUP_TABLE default

0 0 0 0 0 0 0 0 0 0 0 0 0 0 0 0 0 0 0 0 0 0 0 0 0 0 0 0 0 0 0 0 
0 0 0 0 0 0 0 0 0 0 0 0 0 0 0 0 0 0 0 0 0 0 0 0 0 0 0 0 0 0 0 0 
0 0 0 0 0 0 0 0 0 0 0 0 0 0 0 0 0 0 0 0 0 0 0 0 0 0 0 0 0 0 0 0 
0 0 0 0 0 0 0 0 0 0 0 0 0 0 0 0 0 0 0 0 0 0 0 0 0 0 0 0 0 0 0 0 
0 0 0 0 0 0 0 0 0 0 0 0 0 0 0 0 0 0 0 0 0 0 0 0 0 0 0 0 0 0 0 0 
0 0 0 0 0 0 0 0 0 0 0 0 0 0 0 0 0 0 0 0 0 0 0 0 0 0 0 0 0 0 0 0 
0 0 0 0 0 0 0 0 0 0 0 0 0 0 0 0 0 0 0 0 0 0 0 0 0 0 0 0 0 0 0 0 
0 0 0 0 0 0 0 0 0 0 0 0 3.149961e-01 5.092304e+00 2.578561e+01 4.923532e+01 5.602971e+01 4.923532e+01 2.578561e+01 5.092304e+00 3.149961e-01 0 0 0 0 0 0 0 0 0 0 0 
0 0 0 0 0 0 0 0 0 0 4.540595e+00 6.020738e+01 2.217512e+02 3.974312e+02 5.037559e+02 5.662783e+02 5.550913e+02 5.662783e+02 5.037559e+02 3.974312e+02 2.217512e+02 6.020738e+01 4.540595e+00 0 0 0 0 0 0 0 0 0 
0 0 0 0 0 0 0 0 2.293663e-01 4.161131e+01 2.511766e+02 5.743265e+02 8.075062e+02 8.712990e+02 7.745812e+02 7.155418e+02 6.682586e+02 7.155418e+02 7.745812e+02 8.712990e+02 8.075062e+02 5.743265e+02 2.511766e+02 4.161131e+01 2.293663e-01 0 0 0 0 0 0 0 
0 0 0 0 0 0 0 8.507184e-01 6.176439e+01 3.945611e+02 8.635841e+02 9.716091e+02 7.417240e+02 4.995963e+02 2.977681e+02 1.985175e+02 1.691970e+02 1.985175e+02 2.977681e+02 4.995963e+02 7.417240e+02 9.716091e+02 8.635841e+02 3.945611e+02 6.176439e+01 8.507184e-01 0 0 0 0 0 0 
0 0 0 0 0 0 3.220520e-04 3.840161e+01 4.001040e+02 9.535471e+02 9.645463e+02 5.055581e+02 1.504262e+02 2.465919e+01 1.361177e+00 0 0 0 1.361177e+00 2.465919e+01 1.504262e+02 5.055581e+02 9.645463e+02 9.535471e+02 4.001040e+02 3.840161e+01 3.220520e-04 0 0 0 0 0 
0 0 0 0 0 0 4.634810e+00 2.790611e+02 9.362815e+02 1.014781e+03 3.983930e+02 4.955981e+01 9.913436e-01 0 0 0 0 0 0 0 9.913436e-01 4.955981e+01 3.983930e+02 1.014781e+03 9.362815e+02 2.790611e+02 4.634810e+00 0 0 0 0 0 
0 0 0 0 0 0 5.641429e+01 6.951285e+02 1.180322e+03 5.944910e+02 5.332604e+01 2.925040e-01 0 0 0 0 0 0 0 0 0 2.925040e-01 5.332604e+01 5.944910e+02 1.180322e+03 6.951285e+02 5.641429e+01 0 0 0 0 0 
0 0 0 0 0 0 1.809374e+02 9.741683e+02 1.021421e+03 2.304766e+02 1.910315e+00 0 0 0 0 0 0 0 0 0 0 0 1.910315e+00 2.304766e+02 1.021421e+03 9.741683e+02 1.809374e+02 0 0 0 0 0 
0 0 0 0 0 0 3.300952e+02 1.110435e+03 8.524623e+02 7.214246e+01 0 0 0 0 0 0 0 0 0 0 0 0 0 7.214246e+01 8.524623e+02 1.110435e+03 3.300952e+02 0 0 0 0 0 
0 0 0 0 0 0 4.008756e+02 1.175717e+03 8.130810e+02 3.823921e+01 0 0 0 0 0 0 0 0 0 0 0 0 0 3.823921e+01 8.130810e+02 1.175717e+03 4.008756e+02 0 0 0 0 0 
0 0 0 0 0 0 3.300952e+02 1.110435e+03 8.524623e+02 7.214246e+01 0 0 0 0 0 0 0 0 0 0 0 0 0 7.214246e+01 8.524623e+02 1.110435e+03 3.300952e+02 0 0 0 0 0 
0 0 0 0 0 0 1.809374e+02 9.741683e+02 1.021421e+03 2.304766e+02 1.910315e+00 0 0 0 0 0 0 0 0 0 0 0 1.910315e+00 2.304766e+02 1.021421e+03 9.741683e+02 1.809374e+02 0 0 0 0 0 
0 0 0 0 0 0 5.641429e+01 6.951285e+02 1.180322e+03 5.944910e+02 5.332604e+01 2.925040e-01 0 0 0 0 0 0 0 0 0 2.925040e-01 5.332604e+01 5.944910e+02 1.180322e+03 6.951285e+02 5.641429e+01 0 0 0 0 0 
0 0 0 0 0 0 4.634810e+00 2.790611e+02 9.362815e+02 1.014781e+03 3.983930e+02 4.955981e+01 9.913436e-01 0 0 0 0 0 0 0 9.913436e-01 4.955981e+01 3.983930e+02 1.014781e+03 9.362815e+02 2.790611e+02 4.634810e+00 0 0 0 0 0 
0 0 0 0 0 0 3.220520e-04 3.840161e+01 4.001040e+02 9.535471e+02 9.645463e+02 5.055581e+02 1.504262e+02 2.465919e+01 1.361177e+00 0 0 0 1.361177e+00 2.465919e+01 1.504262e+02 5.055581e+02 9.645463e+02 9.535471e+02 4.001040e+02 3.840161e+01 3.220520e-04 0 0 0 0 0 
0 0 0 0 0 0 0 8.507184e-01 6.176439e+01 3.945611e+02 8.635841e+02 9.716091e+02 7.417240e+02 4.995963e+02 2.977681e+02 1.985175e+02 1.691970e+02 1.985175e+02 2.977681e+02 4.995963e+02 7.417240e+02 9.716091e+02 8.635841e+02 3.945611e+02 6.176439e+01 8.507184e-01 0 0 0 0 0 0 
0 0 0 0 0 0 0 0 2.293663e-01 4.161131e+01 2.511766e+02 5.743265e+02 8.075062e+02 8.712990e+02 7.745812e+02 7.155418e+02 6.682586e+02 7.155418e+02 7.745812e+02 8.712990e+02 8.075062e+02 5.743265e+02 2.511766e+02 4.161131e+01 2.293663e-01 0 0 0 0 0 0 0 
0 0 0 0 0 0 0 0 0 0 4.540595e+00 6.020738e+01 2.217512e+02 3.974312e+02 5.037559e+02 5.662783e+02 5.550913e+02 5.662783e+02 5.037559e+02 3.974312e+02 2.217512e+02 6.020738e+01 4.540595e+00 0 0 0 0 0 0 0 0 0 
0 0 0 0 0 0 0 0 0 0 0 0 3.149961e-01 5.092304e+00 2.578561e+01 4.923532e+01 5.602971e+01 4.923532e+01 2.578561e+01 5.092304e+00 3.149961e-01 0 0 0 0 0 0 0 0 0 0 0 
0 0 0 0 0 0 0 0 0 0 0 0 0 0 0 0 0 0 0 0 0 0 0 0 0 0 0 0 0 0 0 0 
0 0 0 0 0 0 0 0 0 0 0 0 0 0 0 0 0 0 0 0 0 0 0 0 0 0 0 0 0 0 0 0 
0 0 0 0 0 0 0 0 0 0 0 0 0 0 0 0 0 0 0 0 0 0 0 0 0 0 0 0 0 0 0 0 
0 0 0 0 0 0 0 0 0 0 0 0 0 0 0 0 0 0 0 0 0 0 0 0 0 0 0 0 0 0 0 0 
0 0 0 0 0 0 0 0 0 0 0 0 0 0 0 0 0 0 0 0 0 0 0 0 0 0 0 0 0 0 0 0 
0 0 0 0 0 0 0 0 0 0 0 0 0 0 0 0 0 0 0 0 0 0 0 0 0 0 0 0 0 0 0 0 
