# vtk DataFile Version 2.0
Comment goes here
ASCII

DATASET STRUCTURED_POINTS
FIELD FieldData 1
TIME 1 1 double
0.92000000
DIMENSIONS    32   32   1

ORIGIN    0.000   0.000   0.000
SPACING   0.03125 0.03125   1.000

POINT_DATA   1024
SCALARS fMag double
LOOKUP_TABLE default

0 0 0 0 0 0 0 0 0 0 0 0 0 0 0 0 0 0 0 0 0 0 0 0 0 0 0 0 0 0 0 0 
0 0 0 0 0 0 0 0 0 0 0 0 0 0 0 0 0 0 0 0 0 0 0 0 0 0 0 0 0 0 0 0 
0 0 0 0 0 0 0 0 0 0 0 0 0 0 0 0 0 0 0 0 0 0 0 0 0 0 0 0 0 0 0 0 
0 0 0 0 0 0 0 0 0 0 0 0 0 0 0 0 0 0 0 0 0 0 0 0 0 0 0 0 0 0 0 0 
0 0 0 0 0 0 0 0 0 0 0 0 0 0 0 0 0 0 0 0 0 0 0 0 0 0 0 0 0 0 0 0 
0 0 0 0 0 0 0 0 0 0 0 0 0 0 0 0 0 0 0 0 0 0 0 0 0 0 0 0 0 0 0 0 
0 0 0 0 0 0 0 0 0 0 0 0 0 8.641844e-02 2.825904e+00 1.167597e+01 1.786954e+01 1.167597e+01 2.825904e+00 8.641844e-02 0 0 0 0 0 0 0 0 0 0 0 0 
0 0 0 0 0 0 0 0 0 0 0 3.944455e+00 7.403021e+01 2.291981e+02 4.274725e+02 5.769744e+02 6.149965e+02 5.769744e+02 4.274725e+02 2.291981e+02 7.403021e+01 3.944455e+00 0 0 0 0 0 0 0 0 0 0 
0 0 0 0 0 0 0 0 0 0 2.847125e+01 2.079103e+02 5.992748e+02 9.450798e+02 1.011815e+03 9.760687e+02 9.596416e+02 9.760687e+02 1.011815e+03 9.450798e+02 5.992748e+02 2.079103e+02 2.847125e+01 0 0 0 0 0 0 0 0 0 
0 0 0 0 0 0 0 0 2.565017e-02 2.326119e+01 2.957523e+02 8.214256e+02 1.059907e+03 8.965859e+02 6.268495e+02 4.125897e+02 3.625147e+02 4.125897e+02 6.268495e+02 8.965859e+02 1.059907e+03 8.214256e+02 2.957523e+02 2.326119e+01 2.565017e-02 0 0 0 0 0 0 0 
0 0 0 0 0 0 0 0 8.769133e+00 2.521564e+02 8.157332e+02 1.031382e+03 6.170620e+02 1.895054e+02 3.988100e+01 1.857675e+00 0 1.857675e+00 3.988100e+01 1.895054e+02 6.170620e+02 1.031382e+03 8.157332e+02 2.521564e+02 8.769133e+00 0 0 0 0 0 0 0 
0 0 0 0 0 0 0 1.358963e-01 9.462093e+01 6.476978e+02 9.983682e+02 5.304264e+02 9.064400e+01 2.403604e+00 0 0 0 0 0 2.403604e+00 9.064400e+01 5.304264e+02 9.983682e+02 6.476978e+02 9.462093e+01 1.358963e-01 0 0 0 0 0 0 
0 0 0 0 0 0 0 1.025540e+01 3.550255e+02 9.189559e+02 7.066604e+02 1.261387e+02 1.592284e+00 0 0 0 0 0 0 0 1.592284e+00 1.261387e+02 7.066604e+02 9.189559e+02 3.550255e+02 1.025540e+01 0 0 0 0 0 0 
0 0 0 0 0 0 0 4.651608e+01 6.115859e+02 9.211242e+02 3.689163e+02 1.095151e+01 0 0 0 0 0 0 0 0 0 1.095151e+01 3.689163e+02 9.211242e+02 6.115859e+02 4.651608e+01 0 0 0 0 0 0 
0 0 0 0 0 0 0 1.274567e+02 7.476868e+02 7.828227e+02 1.628101e+02 1.390064e-01 0 0 0 0 0 0 0 0 0 1.390064e-01 1.628101e+02 7.828227e+02 7.476868e+02 1.274567e+02 0 0 0 0 0 0 
0 0 0 0 0 0 0 2.008955e+02 8.183267e+02 6.947408e+02 7.755481e+01 0 0 0 0 0 0 0 0 0 0 0 7.755481e+01 6.947408e+02 8.183267e+02 2.008955e+02 0 0 0 0 0 0 
0 0 0 0 0 0 0 2.162526e+02 8.030351e+02 6.446001e+02 5.781760e+01 0 0 0 0 0 0 0 0 0 0 0 5.781760e+01 6.446001e+02 8.030351e+02 2.162526e+02 0 0 0 0 0 0 
0 0 0 0 0 0 0 2.008955e+02 8.183267e+02 6.947408e+02 7.755481e+01 0 0 0 0 0 0 0 0 0 0 0 7.755481e+01 6.947408e+02 8.183267e+02 2.008955e+02 0 0 0 0 0 0 
0 0 0 0 0 0 0 1.274567e+02 7.476868e+02 7.828227e+02 1.628101e+02 1.390064e-01 0 0 0 0 0 0 0 0 0 1.390064e-01 1.628101e+02 7.828227e+02 7.476868e+02 1.274567e+02 0 0 0 0 0 0 
0 0 0 0 0 0 0 4.651608e+01 6.115859e+02 9.211242e+02 3.689163e+02 1.095151e+01 0 0 0 0 0 0 0 0 0 1.095151e+01 3.689163e+02 9.211242e+02 6.115859e+02 4.651608e+01 0 0 0 0 0 0 
0 0 0 0 0 0 0 1.025540e+01 3.550255e+02 9.189559e+02 7.066604e+02 1.261387e+02 1.592284e+00 0 0 0 0 0 0 0 1.592284e+00 1.261387e+02 7.066604e+02 9.189559e+02 3.550255e+02 1.025540e+01 0 0 0 0 0 0 
0 0 0 0 0 0 0 1.358963e-01 9.462093e+01 6.476978e+02 9.983682e+02 5.304264e+02 9.064400e+01 2.403604e+00 0 0 0 0 0 2.403604e+00 9.064400e+01 5.304264e+02 9.983682e+02 6.476978e+02 9.462093e+01 1.358963e-01 0 0 0 0 0 0 
0 0 0 0 0 0 0 0 8.769133e+00 2.521564e+02 8.157332e+02 1.031382e+03 6.170620e+02 1.895054e+02 3.988100e+01 1.857675e+00 0 1.857675e+00 3.988100e+01 1.895054e+02 6.170620e+02 1.031382e+03 8.157332e+02 2.521564e+02 8.769133e+00 0 0 0 0 0 0 0 
0 0 0 0 0 0 0 0 2.565017e-02 2.326119e+01 2.957523e+02 8.214256e+02 1.059907e+03 8.965859e+02 6.268495e+02 4.125897e+02 3.625147e+02 4.125897e+02 6.268495e+02 8.965859e+02 1.059907e+03 8.214256e+02 2.957523e+02 2.326119e+01 2.565017e-02 0 0 0 0 0 0 0 
0 0 0 0 0 0 0 0 0 0 2.847125e+01 2.079103e+02 5.992748e+02 9.450798e+02 1.011815e+03 9.760687e+02 9.596416e+02 9.760687e+02 1.011815e+03 9.450798e+02 5.992748e+02 2.079103e+02 2.847125e+01 0 0 0 0 0 0 0 0 0 
0 0 0 0 0 0 0 0 0 0 0 3.944455e+00 7.403021e+01 2.291981e+02 4.274725e+02 5.769744e+02 6.149965e+02 5.769744e+02 4.274725e+02 2.291981e+02 7.403021e+01 3.944455e+00 0 0 0 0 0 0 0 0 0 0 
0 0 0 0 0 0 0 0 0 0 0 0 0 8.641844e-02 2.825904e+00 1.167597e+01 1.786954e+01 1.167597e+01 2.825904e+00 8.641844e-02 0 0 0 0 0 0 0 0 0 0 0 0 
0 0 0 0 0 0 0 0 0 0 0 0 0 0 0 0 0 0 0 0 0 0 0 0 0 0 0 0 0 0 0 0 
0 0 0 0 0 0 0 0 0 0 0 0 0 0 0 0 0 0 0 0 0 0 0 0 0 0 0 0 0 0 0 0 
0 0 0 0 0 0 0 0 0 0 0 0 0 0 0 0 0 0 0 0 0 0 0 0 0 0 0 0 0 0 0 0 
0 0 0 0 0 0 0 0 0 0 0 0 0 0 0 0 0 0 0 0 0 0 0 0 0 0 0 0 0 0 0 0 
0 0 0 0 0 0 0 0 0 0 0 0 0 0 0 0 0 0 0 0 0 0 0 0 0 0 0 0 0 0 0 0 
