# vtk DataFile Version 2.0
Comment goes here
ASCII

DATASET STRUCTURED_POINTS
FIELD FieldData 1
TIME 1 1 double
0.48000000
DIMENSIONS    32   32   1

ORIGIN    0.000   0.000   0.000
SPACING   0.03125 0.03125   1.000

POINT_DATA   1024
SCALARS fMag double
LOOKUP_TABLE default

0 0 0 0 0 0 0 0 0 0 0 0 0 0 0 0 0 0 0 0 0 0 0 0 0 0 0 0 0 0 0 0 
0 0 0 0 0 0 0 0 0 0 0 0 0 0 0 0 0 0 0 0 0 0 0 0 0 0 0 0 0 0 0 0 
0 0 0 0 0 0 0 0 0 0 0 0 0 0 0 0 0 0 0 0 0 0 0 0 0 0 0 0 0 0 0 0 
0 0 0 0 0 0 0 0 0 0 0 0 0 0 0 0 0 0 0 0 0 0 0 0 0 0 0 0 0 0 0 0 
0 0 0 0 0 0 0 0 0 0 0 0 0 1.201439e-01 8.019348e+00 3.793471e+01 6.003796e+01 3.793471e+01 8.019348e+00 1.201439e-01 0 0 0 0 0 0 0 0 0 0 0 0 
0 0 0 0 0 0 0 0 0 0 0 1.710646e+00 5.529472e+01 2.836506e+02 6.492574e+02 9.524619e+02 1.066467e+03 9.524619e+02 6.492574e+02 2.836506e+02 5.529472e+01 1.710646e+00 0 0 0 0 0 0 0 0 0 0 
0 0 0 0 0 0 0 0 0 0 2.883786e+00 1.211102e+02 6.142327e+02 1.245743e+03 1.509045e+03 1.507199e+03 1.491275e+03 1.507199e+03 1.509045e+03 1.245743e+03 6.142327e+02 1.211102e+02 2.883786e+00 0 0 0 0 0 0 0 0 0 
0 0 0 0 0 0 0 0 0 1.268833e+00 1.177257e+02 6.680427e+02 1.334277e+03 1.374871e+03 9.449334e+02 5.980624e+02 4.848466e+02 5.980624e+02 9.449334e+02 1.374871e+03 1.334277e+03 6.680427e+02 1.177257e+02 1.268833e+00 0 0 0 0 0 0 0 0 
0 0 0 0 0 0 0 0 2.043980e-03 4.050618e+01 5.200923e+02 1.192758e+03 1.086142e+03 4.439273e+02 7.637041e+01 5.112209e+00 0 5.112209e+00 7.637041e+01 4.439273e+02 1.086142e+03 1.192758e+03 5.200923e+02 4.050618e+01 2.043980e-03 0 0 0 0 0 0 0 
0 0 0 0 0 0 0 0 1.631026e+00 2.476187e+02 9.628207e+02 1.046418e+03 3.562804e+02 2.760080e+01 4.896288e-02 0 0 0 4.896288e-02 2.760080e+01 3.562804e+02 1.046418e+03 9.628207e+02 2.476187e+02 1.631026e+00 0 0 0 0 0 0 0 
0 0 0 0 0 0 0 0 3.000388e+01 5.145387e+02 9.851902e+02 5.520054e+02 5.170719e+01 0 0 0 0 0 0 0 5.170719e+01 5.520054e+02 9.851902e+02 5.145387e+02 3.000388e+01 0 0 0 0 0 0 0 
0 0 0 0 0 0 0 0 1.236423e+02 6.660835e+02 7.247327e+02 1.830135e+02 9.464826e-01 0 0 0 0 0 0 0 9.464826e-01 1.830135e+02 7.247327e+02 6.660835e+02 1.236423e+02 0 0 0 0 0 0 0 
0 0 0 0 0 0 0 7.809865e-01 2.593819e+02 7.304234e+02 5.128518e+02 4.116909e+01 0 0 0 0 0 0 0 0 0 4.116909e+01 5.128518e+02 7.304234e+02 2.593819e+02 7.809865e-01 0 0 0 0 0 0 
0 0 0 0 0 0 0 7.527701e+00 3.946208e+02 7.442346e+02 3.629887e+02 5.953434e+00 0 0 0 0 0 0 0 0 0 5.953434e+00 3.629887e+02 7.442346e+02 3.946208e+02 7.527701e+00 0 0 0 0 0 0 
0 0 0 0 0 0 0 2.100326e+01 4.647187e+02 6.921943e+02 2.487104e+02 1.991414e-01 0 0 0 0 0 0 0 0 0 1.991414e-01 2.487104e+02 6.921943e+02 4.647187e+02 2.100326e+01 0 0 0 0 0 0 
0 0 0 0 0 0 0 3.161858e+01 4.407416e+02 5.822406e+02 1.731166e+02 0 0 0 0 0 0 0 0 0 0 0 1.731166e+02 5.822406e+02 4.407416e+02 3.161858e+01 0 0 0 0 0 0 
0 0 0 0 0 0 0 3.474955e+01 4.064616e+02 5.119628e+02 1.402508e+02 0 0 0 0 0 0 0 0 0 0 0 1.402508e+02 5.119628e+02 4.064616e+02 3.474955e+01 0 0 0 0 0 0 
0 0 0 0 0 0 0 3.161858e+01 4.407416e+02 5.822406e+02 1.731166e+02 0 0 0 0 0 0 0 0 0 0 0 1.731166e+02 5.822406e+02 4.407416e+02 3.161858e+01 0 0 0 0 0 0 
0 0 0 0 0 0 0 2.100326e+01 4.647187e+02 6.921943e+02 2.487104e+02 1.991414e-01 0 0 0 0 0 0 0 0 0 1.991414e-01 2.487104e+02 6.921943e+02 4.647187e+02 2.100326e+01 0 0 0 0 0 0 
0 0 0 0 0 0 0 7.527701e+00 3.946208e+02 7.442346e+02 3.629887e+02 5.953434e+00 0 0 0 0 0 0 0 0 0 5.953434e+00 3.629887e+02 7.442346e+02 3.946208e+02 7.527701e+00 0 0 0 0 0 0 
0 0 0 0 0 0 0 7.809865e-01 2.593819e+02 7.304234e+02 5.128518e+02 4.116909e+01 0 0 0 0 0 0 0 0 0 4.116909e+01 5.128518e+02 7.304234e+02 2.593819e+02 7.809865e-01 0 0 0 0 0 0 
0 0 0 0 0 0 0 0 1.236423e+02 6.660835e+02 7.247327e+02 1.830135e+02 9.464826e-01 0 0 0 0 0 0 0 9.464826e-01 1.830135e+02 7.247327e+02 6.660835e+02 1.236423e+02 0 0 0 0 0 0 0 
0 0 0 0 0 0 0 0 3.000388e+01 5.145387e+02 9.851902e+02 5.520054e+02 5.170719e+01 0 0 0 0 0 0 0 5.170719e+01 5.520054e+02 9.851902e+02 5.145387e+02 3.000388e+01 0 0 0 0 0 0 0 
0 0 0 0 0 0 0 0 1.631026e+00 2.476187e+02 9.628207e+02 1.046418e+03 3.562804e+02 2.760080e+01 4.896288e-02 0 0 0 4.896288e-02 2.760080e+01 3.562804e+02 1.046418e+03 9.628207e+02 2.476187e+02 1.631026e+00 0 0 0 0 0 0 0 
0 0 0 0 0 0 0 0 2.043980e-03 4.050618e+01 5.200923e+02 1.192758e+03 1.086142e+03 4.439273e+02 7.637041e+01 5.112209e+00 0 5.112209e+00 7.637041e+01 4.439273e+02 1.086142e+03 1.192758e+03 5.200923e+02 4.050618e+01 2.043980e-03 0 0 0 0 0 0 0 
0 0 0 0 0 0 0 0 0 1.268833e+00 1.177257e+02 6.680427e+02 1.334277e+03 1.374871e+03 9.449334e+02 5.980624e+02 4.848466e+02 5.980624e+02 9.449334e+02 1.374871e+03 1.334277e+03 6.680427e+02 1.177257e+02 1.268833e+00 0 0 0 0 0 0 0 0 
0 0 0 0 0 0 0 0 0 0 2.883786e+00 1.211102e+02 6.142327e+02 1.245743e+03 1.509045e+03 1.507199e+03 1.491275e+03 1.507199e+03 1.509045e+03 1.245743e+03 6.142327e+02 1.211102e+02 2.883786e+00 0 0 0 0 0 0 0 0 0 
0 0 0 0 0 0 0 0 0 0 0 1.710646e+00 5.529472e+01 2.836506e+02 6.492574e+02 9.524619e+02 1.066467e+03 9.524619e+02 6.492574e+02 2.836506e+02 5.529472e+01 1.710646e+00 0 0 0 0 0 0 0 0 0 0 
0 0 0 0 0 0 0 0 0 0 0 0 0 1.201439e-01 8.019348e+00 3.793471e+01 6.003796e+01 3.793471e+01 8.019348e+00 1.201439e-01 0 0 0 0 0 0 0 0 0 0 0 0 
0 0 0 0 0 0 0 0 0 0 0 0 0 0 0 0 0 0 0 0 0 0 0 0 0 0 0 0 0 0 0 0 
0 0 0 0 0 0 0 0 0 0 0 0 0 0 0 0 0 0 0 0 0 0 0 0 0 0 0 0 0 0 0 0 
0 0 0 0 0 0 0 0 0 0 0 0 0 0 0 0 0 0 0 0 0 0 0 0 0 0 0 0 0 0 0 0 
