# vtk DataFile Version 2.0
Comment goes here
ASCII

DATASET STRUCTURED_POINTS
FIELD FieldData 1
TIME 1 1 double
0.88000000
DIMENSIONS    32   32   1

ORIGIN    0.000   0.000   0.000
SPACING   0.03125 0.03125   1.000

POINT_DATA   1024
SCALARS fMag double
LOOKUP_TABLE default

0 0 0 0 0 0 0 0 0 0 0 0 0 0 0 0 0 0 0 0 0 0 0 0 0 0 0 0 0 0 0 0 
0 0 0 0 0 0 0 0 0 0 0 0 0 0 0 0 0 0 0 0 0 0 0 0 0 0 0 0 0 0 0 0 
0 0 0 0 0 0 0 0 0 0 0 0 0 0 0 0 0 0 0 0 0 0 0 0 0 0 0 0 0 0 0 0 
0 0 0 0 0 0 0 0 0 0 0 0 0 0 0 0 0 0 0 0 0 0 0 0 0 0 0 0 0 0 0 0 
0 0 0 0 0 0 0 0 0 0 0 0 0 0 0 0 0 0 0 0 0 0 0 0 0 0 0 0 0 0 0 0 
0 0 0 0 0 0 0 0 0 0 0 0 0 0 0 0 0 0 0 0 0 0 0 0 0 0 0 0 0 0 0 0 
0 0 0 0 0 0 0 0 0 0 0 0 0 0 0 0 0 0 0 0 0 0 0 0 0 0 0 0 0 0 0 0 
0 0 0 0 0 0 0 0 0 0 0 0 0 7.792573e-01 6.537554e+00 1.583825e+01 1.993768e+01 1.583825e+01 6.537554e+00 7.792573e-01 0 0 0 0 0 0 0 0 0 0 0 0 
0 0 0 0 0 0 0 0 0 0 2.006050e+00 3.161735e+01 1.457436e+02 2.925305e+02 4.065401e+02 4.740907e+02 4.663704e+02 4.740907e+02 4.065401e+02 2.925305e+02 1.457436e+02 3.161735e+01 2.006050e+00 0 0 0 0 0 0 0 0 0 
0 0 0 0 0 0 0 0 3.090397e-01 3.167160e+01 2.019579e+02 4.638634e+02 7.013296e+02 8.091045e+02 7.740708e+02 7.318680e+02 6.815915e+02 7.318680e+02 7.740708e+02 8.091045e+02 7.013296e+02 4.638634e+02 2.019579e+02 3.167160e+01 3.090397e-01 0 0 0 0 0 0 0 
0 0 0 0 0 0 0 1.161490e+00 5.923822e+01 3.643252e+02 7.922857e+02 9.141093e+02 7.414379e+02 5.575288e+02 3.799770e+02 2.737305e+02 2.351588e+02 2.737305e+02 3.799770e+02 5.575288e+02 7.414379e+02 9.141093e+02 7.922857e+02 3.643252e+02 5.923822e+01 1.161490e+00 0 0 0 0 0 0 
0 0 0 0 0 0 0 5.023076e+01 4.396681e+02 9.714746e+02 9.552347e+02 5.360926e+02 1.872611e+02 4.117380e+01 6.221372e+00 9.782651e-02 0 9.782651e-02 6.221372e+00 4.117380e+01 1.872611e+02 5.360926e+02 9.552347e+02 9.714746e+02 4.396681e+02 5.023076e+01 0 0 0 0 0 0 
0 0 0 0 0 0 1.071768e+01 3.253072e+02 1.008254e+03 1.054595e+03 4.133793e+02 5.887249e+01 2.705143e+00 0 0 0 0 0 0 0 2.705143e+00 5.887249e+01 4.133793e+02 1.054595e+03 1.008254e+03 3.253072e+02 1.071768e+01 0 0 0 0 0 
0 0 0 0 0 0 8.261473e+01 7.970696e+02 1.220061e+03 5.684031e+02 5.324056e+01 4.939251e-01 0 0 0 0 0 0 0 0 0 4.939251e-01 5.324056e+01 5.684031e+02 1.220061e+03 7.970696e+02 8.261473e+01 0 0 0 0 0 
0 0 0 0 0 0 2.385104e+02 1.073542e+03 1.030979e+03 1.970882e+02 1.430726e+00 0 0 0 0 0 0 0 0 0 0 0 1.430726e+00 1.970882e+02 1.030979e+03 1.073542e+03 2.385104e+02 0 0 0 0 0 
0 0 0 0 0 0 3.992068e+02 1.138057e+03 7.816139e+02 4.287505e+01 0 0 0 0 0 0 0 0 0 0 0 0 0 4.287505e+01 7.816139e+02 1.138057e+03 3.992068e+02 0 0 0 0 0 
0 0 0 0 0 0 4.669655e+02 1.171389e+03 7.203592e+02 1.593579e+01 0 0 0 0 0 0 0 0 0 0 0 0 0 1.593579e+01 7.203592e+02 1.171389e+03 4.669655e+02 0 0 0 0 0 
0 0 0 0 0 0 3.992068e+02 1.138057e+03 7.816139e+02 4.287505e+01 0 0 0 0 0 0 0 0 0 0 0 0 0 4.287505e+01 7.816139e+02 1.138057e+03 3.992068e+02 0 0 0 0 0 
0 0 0 0 0 0 2.385104e+02 1.073542e+03 1.030979e+03 1.970882e+02 1.430726e+00 0 0 0 0 0 0 0 0 0 0 0 1.430726e+00 1.970882e+02 1.030979e+03 1.073542e+03 2.385104e+02 0 0 0 0 0 
0 0 0 0 0 0 8.261473e+01 7.970696e+02 1.220061e+03 5.684031e+02 5.324056e+01 4.939251e-01 0 0 0 0 0 0 0 0 0 4.939251e-01 5.324056e+01 5.684031e+02 1.220061e+03 7.970696e+02 8.261473e+01 0 0 0 0 0 
0 0 0 0 0 0 1.071768e+01 3.253072e+02 1.008254e+03 1.054595e+03 4.133793e+02 5.887249e+01 2.705143e+00 0 0 0 0 0 0 0 2.705143e+00 5.887249e+01 4.133793e+02 1.054595e+03 1.008254e+03 3.253072e+02 1.071768e+01 0 0 0 0 0 
0 0 0 0 0 0 0 5.023076e+01 4.396681e+02 9.714746e+02 9.552347e+02 5.360926e+02 1.872611e+02 4.117380e+01 6.221372e+00 9.782651e-02 0 9.782651e-02 6.221372e+00 4.117380e+01 1.872611e+02 5.360926e+02 9.552347e+02 9.714746e+02 4.396681e+02 5.023076e+01 0 0 0 0 0 0 
0 0 0 0 0 0 0 1.161490e+00 5.923822e+01 3.643252e+02 7.922857e+02 9.141093e+02 7.414379e+02 5.575288e+02 3.799770e+02 2.737305e+02 2.351588e+02 2.737305e+02 3.799770e+02 5.575288e+02 7.414379e+02 9.141093e+02 7.922857e+02 3.643252e+02 5.923822e+01 1.161490e+00 0 0 0 0 0 0 
0 0 0 0 0 0 0 0 3.090397e-01 3.167160e+01 2.019579e+02 4.638634e+02 7.013296e+02 8.091045e+02 7.740708e+02 7.318680e+02 6.815915e+02 7.318680e+02 7.740708e+02 8.091045e+02 7.013296e+02 4.638634e+02 2.019579e+02 3.167160e+01 3.090397e-01 0 0 0 0 0 0 0 
0 0 0 0 0 0 0 0 0 0 2.006050e+00 3.161735e+01 1.457436e+02 2.925305e+02 4.065401e+02 4.740907e+02 4.663704e+02 4.740907e+02 4.065401e+02 2.925305e+02 1.457436e+02 3.161735e+01 2.006050e+00 0 0 0 0 0 0 0 0 0 
0 0 0 0 0 0 0 0 0 0 0 0 0 7.792573e-01 6.537554e+00 1.583825e+01 1.993768e+01 1.583825e+01 6.537554e+00 7.792573e-01 0 0 0 0 0 0 0 0 0 0 0 0 
0 0 0 0 0 0 0 0 0 0 0 0 0 0 0 0 0 0 0 0 0 0 0 0 0 0 0 0 0 0 0 0 
0 0 0 0 0 0 0 0 0 0 0 0 0 0 0 0 0 0 0 0 0 0 0 0 0 0 0 0 0 0 0 0 
0 0 0 0 0 0 0 0 0 0 0 0 0 0 0 0 0 0 0 0 0 0 0 0 0 0 0 0 0 0 0 0 
0 0 0 0 0 0 0 0 0 0 0 0 0 0 0 0 0 0 0 0 0 0 0 0 0 0 0 0 0 0 0 0 
0 0 0 0 0 0 0 0 0 0 0 0 0 0 0 0 0 0 0 0 0 0 0 0 0 0 0 0 0 0 0 0 
0 0 0 0 0 0 0 0 0 0 0 0 0 0 0 0 0 0 0 0 0 0 0 0 0 0 0 0 0 0 0 0 
