# vtk DataFile Version 2.0
Comment goes here
ASCII

DATASET STRUCTURED_POINTS
FIELD FieldData 1
TIME 1 1 double
0.16000000
DIMENSIONS    32   32   1

ORIGIN    0.000   0.000   0.000
SPACING   0.03125 0.03125   1.000

POINT_DATA   1024
SCALARS fX double
LOOKUP_TABLE default

0 0 0 0 0 0 0 0 0 0 0 0 0 0 0 0 0 0 0 0 0 0 0 0 0 0 0 0 0 0 0 0 
0 0 0 0 0 0 0 0 0 0 0 0 0 0 0 0 0 0 0 0 0 0 0 0 0 0 0 0 0 0 0 0 
0 0 0 0 0 0 0 0 0 0 0 0 0 0 0 0 0 0 0 0 0 0 0 0 0 0 0 0 0 0 0 0 
0 0 0 0 0 0 0 0 0 0 0 0 2.883110e-02 1.348079e+01 5.656792e+01 6.952205e+01 5.041767e-12 -6.952205e+01 -5.656792e+01 -1.348079e+01 -2.883110e-02 0 0 0 0 0 0 0 0 0 0 0 
0 0 0 0 0 0 0 0 0 0 0 1.048736e+01 1.212167e+02 3.664104e+02 5.040292e+02 3.485323e+02 1.108465e-11 -3.485323e+02 -5.040292e+02 -3.664104e+02 -1.212167e+02 -1.048736e+01 0 0 0 0 0 0 0 0 0 0 
0 0 0 0 0 0 0 0 0 0 4.484525e+00 1.850185e+02 7.010723e+02 9.864623e+02 7.235116e+02 3.391292e+02 5.484815e-12 -3.391292e+02 -7.235116e+02 -9.864623e+02 -7.010723e+02 -1.850185e+02 -4.484525e+00 0 0 0 0 0 0 0 0 0 
0 0 0 0 0 0 0 0 0 8.725505e-01 1.307449e+02 7.655807e+02 1.253437e+03 8.564778e+02 2.911043e+02 6.011900e+01 -5.567277e-13 -6.011900e+01 -2.911043e+02 -8.564778e+02 -1.253437e+03 -7.655807e+02 -1.307449e+02 -8.725505e-01 0 0 0 0 0 0 0 0 
0 0 0 0 0 0 0 0 0 2.954469e+01 5.603747e+02 1.331961e+03 1.027036e+03 2.409593e+02 1.505400e+01 0 0 0 -1.505400e+01 -2.409593e+02 -1.027036e+03 -1.331961e+03 -5.603747e+02 -2.954469e+01 0 0 0 0 0 0 0 0 
0 0 0 0 0 0 0 0 0 1.375822e+02 9.599232e+02 1.251702e+03 4.473757e+02 1.801420e+01 0 0 0 0 0 -1.801420e+01 -4.473757e+02 -1.251702e+03 -9.599232e+02 -1.375822e+02 0 0 0 0 0 0 0 0 
0 0 0 0 0 0 0 0 6.317491e-01 3.150086e+02 1.028043e+03 8.192125e+02 1.055468e+02 0 0 0 0 0 0 0 -1.055468e+02 -8.192125e+02 -1.028043e+03 -3.150086e+02 -6.317491e-01 0 0 0 0 0 0 0 
0 0 0 0 0 0 0 0 7.379811e+00 4.215648e+02 8.601171e+02 4.579882e+02 1.205600e+01 0 0 0 0 0 0 0 -1.205600e+01 -4.579882e+02 -8.601171e+02 -4.215648e+02 -7.379811e+00 0 0 0 0 0 0 0 
0 0 0 0 0 0 0 0 2.671622e+01 4.570572e+02 6.677309e+02 2.377916e+02 4.016135e-01 0 0 0 0 0 0 0 -4.016135e-01 -2.377916e+02 -6.677309e+02 -4.570572e+02 -2.671622e+01 0 0 0 0 0 0 0 
0 0 0 0 0 0 0 0 4.404569e+01 4.348639e+02 5.283121e+02 1.374939e+02 0 0 0 0 0 0 0 0 0 -1.374939e+02 -5.283121e+02 -4.348639e+02 -4.404569e+01 0 0 0 0 0 0 0 
0 0 0 0 0 0 0 0 4.360926e+01 3.208241e+02 3.520308e+02 7.481595e+01 0 0 0 0 0 0 0 0 0 -7.481595e+01 -3.520308e+02 -3.208241e+02 -4.360926e+01 0 0 0 0 0 0 0 
0 0 0 0 0 0 0 0 3.749742e+01 2.280882e+02 2.324425e+02 4.185169e+01 0 0 0 0 0 0 0 0 0 -4.185169e+01 -2.324425e+02 -2.280882e+02 -3.749742e+01 0 0 0 0 0 0 0 
0 0 0 0 0 0 0 0 2.933993e+01 1.610681e+02 1.570909e+02 2.536272e+01 0 0 0 0 0 0 0 0 0 -2.536272e+01 -1.570909e+02 -1.610681e+02 -2.933993e+01 0 0 0 0 0 0 0 
0 0 0 0 0 0 0 0 2.274847e+01 1.210620e+02 1.164291e+02 1.811563e+01 0 0 0 0 0 0 0 0 0 -1.811563e+01 -1.164291e+02 -1.210620e+02 -2.274847e+01 0 0 0 0 0 0 0 
0 0 0 0 0 0 0 0 2.933993e+01 1.610681e+02 1.570909e+02 2.536272e+01 0 0 0 0 0 0 0 0 0 -2.536272e+01 -1.570909e+02 -1.610681e+02 -2.933993e+01 0 0 0 0 0 0 0 
0 0 0 0 0 0 0 0 3.749742e+01 2.280882e+02 2.324425e+02 4.185169e+01 0 0 0 0 0 0 0 0 0 -4.185169e+01 -2.324425e+02 -2.280882e+02 -3.749742e+01 0 0 0 0 0 0 0 
0 0 0 0 0 0 0 0 4.360926e+01 3.208241e+02 3.520308e+02 7.481595e+01 0 0 0 0 0 0 0 0 0 -7.481595e+01 -3.520308e+02 -3.208241e+02 -4.360926e+01 0 0 0 0 0 0 0 
0 0 0 0 0 0 0 0 4.404569e+01 4.348639e+02 5.283121e+02 1.374939e+02 0 0 0 0 0 0 0 0 0 -1.374939e+02 -5.283121e+02 -4.348639e+02 -4.404569e+01 0 0 0 0 0 0 0 
0 0 0 0 0 0 0 0 2.671622e+01 4.570572e+02 6.677309e+02 2.377916e+02 4.016135e-01 0 0 0 0 0 0 0 -4.016135e-01 -2.377916e+02 -6.677309e+02 -4.570572e+02 -2.671622e+01 0 0 0 0 0 0 0 
0 0 0 0 0 0 0 0 7.379811e+00 4.215648e+02 8.601171e+02 4.579882e+02 1.205600e+01 0 0 0 0 0 0 0 -1.205600e+01 -4.579882e+02 -8.601171e+02 -4.215648e+02 -7.379811e+00 0 0 0 0 0 0 0 
0 0 0 0 0 0 0 0 6.317491e-01 3.150086e+02 1.028043e+03 8.192125e+02 1.055468e+02 0 0 0 0 0 0 0 -1.055468e+02 -8.192125e+02 -1.028043e+03 -3.150086e+02 -6.317491e-01 0 0 0 0 0 0 0 
0 0 0 0 0 0 0 0 0 1.375822e+02 9.599232e+02 1.251702e+03 4.473757e+02 1.801420e+01 0 0 0 0 0 -1.801420e+01 -4.473757e+02 -1.251702e+03 -9.599232e+02 -1.375822e+02 0 0 0 0 0 0 0 0 
0 0 0 0 0 0 0 0 0 2.954469e+01 5.603747e+02 1.331961e+03 1.027036e+03 2.409593e+02 1.505400e+01 0 0 0 -1.505400e+01 -2.409593e+02 -1.027036e+03 -1.331961e+03 -5.603747e+02 -2.954469e+01 0 0 0 0 0 0 0 0 
0 0 0 0 0 0 0 0 0 8.725505e-01 1.307449e+02 7.655807e+02 1.253437e+03 8.564778e+02 2.911043e+02 6.011900e+01 -9.280959e-12 -6.011900e+01 -2.911043e+02 -8.564778e+02 -1.253437e+03 -7.655807e+02 -1.307449e+02 -8.725505e-01 0 0 0 0 0 0 0 0 
0 0 0 0 0 0 0 0 0 0 4.484525e+00 1.850185e+02 7.010723e+02 9.864623e+02 7.235116e+02 3.391292e+02 -3.110268e-12 -3.391292e+02 -7.235116e+02 -9.864623e+02 -7.010723e+02 -1.850185e+02 -4.484525e+00 0 0 0 0 0 0 0 0 0 
0 0 0 0 0 0 0 0 0 0 0 1.048736e+01 1.212167e+02 3.664104e+02 5.040292e+02 3.485323e+02 3.629648e-11 -3.485323e+02 -5.040292e+02 -3.664104e+02 -1.212167e+02 -1.048736e+01 0 0 0 0 0 0 0 0 0 0 
0 0 0 0 0 0 0 0 0 0 0 0 2.883110e-02 1.348079e+01 5.656792e+01 6.952205e+01 3.010508e-11 -6.952205e+01 -5.656792e+01 -1.348079e+01 -2.883110e-02 0 0 0 0 0 0 0 0 0 0 0 
0 0 0 0 0 0 0 0 0 0 0 0 0 0 0 0 0 0 0 0 0 0 0 0 0 0 0 0 0 0 0 0 
0 0 0 0 0 0 0 0 0 0 0 0 0 0 0 0 0 0 0 0 0 0 0 0 0 0 0 0 0 0 0 0 
