# vtk DataFile Version 2.0
Comment goes here
ASCII

DATASET STRUCTURED_POINTS
FIELD FieldData 1
TIME 1 1 double
0.40000000
DIMENSIONS    32   32   1

ORIGIN    0.000   0.000   0.000
SPACING   0.03125 0.03125   1.000

POINT_DATA   1024
SCALARS fX double
LOOKUP_TABLE default

0 0 0 0 0 0 0 0 0 0 0 0 0 0 0 0 0 0 0 0 0 0 0 0 0 0 0 0 0 0 0 0 
0 0 0 0 0 0 0 0 0 0 0 0 0 0 0 0 0 0 0 0 0 0 0 0 0 0 0 0 0 0 0 0 
0 0 0 0 0 0 0 0 0 0 0 0 0 0 0 0 0 0 0 0 0 0 0 0 0 0 0 0 0 0 0 0 
0 0 0 0 0 0 0 0 0 0 0 0 0 0 0 0 0 0 0 0 0 0 0 0 0 0 0 0 0 0 0 0 
0 0 0 0 0 0 0 0 0 0 0 0 0 0 0 0 0 0 0 0 0 0 0 0 0 0 0 0 0 0 0 0 
0 0 0 0 0 0 0 0 0 0 0 0 0 0 0 0 0 0 0 0 0 0 0 0 0 0 0 0 0 0 0 0 
0 0 0 0 0 0 0 0 0 0 0 0 0 0 0 0 0 0 0 0 0 0 0 0 0 0 0 0 0 0 0 0 
0 0 0 0 0 0 0 0 0 0 0 0 8.229535e-02 6.322068e-01 1.901520e+00 2.291442e+00 4.717163e-13 -2.291442e+00 -1.901520e+00 -6.322068e-01 -8.229535e-02 0 0 0 0 0 0 0 0 0 0 0 
0 0 0 0 0 0 0 0 0 1.156047e+00 1.706387e+01 5.709083e+01 7.742878e+01 7.661754e+01 6.850347e+01 4.271440e+01 1.009926e-12 -4.271440e+01 -6.850347e+01 -7.661754e+01 -7.742878e+01 -5.709083e+01 -1.706387e+01 -1.156047e+00 0 0 0 0 0 0 0 0 
0 0 0 0 0 0 0 9.239900e-01 3.492388e+01 1.631463e+02 2.753966e+02 3.154236e+02 2.586596e+02 1.599957e+02 1.110279e+02 6.015931e+01 -4.010199e-13 -6.015931e+01 -1.110279e+02 -1.599957e+02 -2.586596e+02 -3.154236e+02 -2.753966e+02 -1.631463e+02 -3.492388e+01 -9.239900e-01 0 0 0 0 0 0 
0 0 0 0 0 0 7.939108e+00 1.171736e+02 3.858481e+02 5.941530e+02 5.139794e+02 3.422231e+02 2.015751e+02 8.653179e+01 4.447816e+01 1.973635e+01 -9.363587e-13 -1.973635e+01 -4.447816e+01 -8.653179e+01 -2.015751e+02 -3.422231e+02 -5.139794e+02 -5.941530e+02 -3.858481e+02 -1.171736e+02 -7.939108e+00 0 0 0 0 0 
0 0 0 0 0 4.318131e+00 1.581181e+02 5.795878e+02 8.214418e+02 6.027909e+02 2.732377e+02 8.389355e+01 2.026201e+01 2.521451e+00 5.216077e-02 0 0 0 -5.216077e-02 -2.521451e+00 -2.026201e+01 -8.389355e+01 -2.732377e+02 -6.027909e+02 -8.214418e+02 -5.795878e+02 -1.581181e+02 -4.318131e+00 0 0 0 0 
0 0 0 0 5.380795e-03 1.150797e+02 6.927035e+02 1.075382e+03 6.591704e+02 1.790052e+02 1.759103e+01 3.241198e-03 0 0 0 0 0 0 0 0 0 -3.241198e-03 -1.759103e+01 -1.790052e+02 -6.591704e+02 -1.075382e+03 -6.927035e+02 -1.150797e+02 -5.380795e-03 0 0 0 
0 0 0 0 1.219275e+01 4.971805e+02 1.296236e+03 1.011271e+03 2.084000e+02 8.377141e+00 0 0 0 0 0 0 0 0 0 0 0 0 0 -8.377141e+00 -2.084000e+02 -1.011271e+03 -1.296236e+03 -4.971805e+02 -1.219275e+01 0 0 0 
0 0 0 0 7.510370e+01 9.866049e+02 1.494747e+03 6.029925e+02 1.974715e+01 0 0 0 0 0 0 0 0 0 0 0 0 0 0 0 -1.974715e+01 -6.029925e+02 -1.494747e+03 -9.866049e+02 -7.510370e+01 0 0 0 
0 0 0 0 1.787217e+02 1.250512e+03 1.384032e+03 3.122418e+02 0 0 0 0 0 0 0 0 0 0 0 0 0 0 0 0 0 -3.122418e+02 -1.384032e+03 -1.250512e+03 -1.787217e+02 0 0 0 
0 0 0 0 2.316108e+02 1.300651e+03 1.285992e+03 2.169520e+02 0 0 0 0 0 0 0 0 0 0 0 0 0 0 0 0 0 -2.169520e+02 -1.285992e+03 -1.300651e+03 -2.316108e+02 0 0 0 
0 0 0 0 1.787217e+02 1.250512e+03 1.384032e+03 3.122418e+02 0 0 0 0 0 0 0 0 0 0 0 0 0 0 0 0 0 -3.122418e+02 -1.384032e+03 -1.250512e+03 -1.787217e+02 0 0 0 
0 0 0 0 7.510370e+01 9.866049e+02 1.494747e+03 6.029925e+02 1.974715e+01 0 0 0 0 0 0 0 0 0 0 0 0 0 0 0 -1.974715e+01 -6.029925e+02 -1.494747e+03 -9.866049e+02 -7.510370e+01 0 0 0 
0 0 0 0 1.219275e+01 4.971805e+02 1.296236e+03 1.011271e+03 2.084000e+02 8.377141e+00 0 0 0 0 0 0 0 0 0 0 0 0 0 -8.377141e+00 -2.084000e+02 -1.011271e+03 -1.296236e+03 -4.971805e+02 -1.219275e+01 0 0 0 
0 0 0 0 5.380795e-03 1.150797e+02 6.927035e+02 1.075382e+03 6.591704e+02 1.790052e+02 1.759103e+01 3.241198e-03 0 0 0 0 0 0 0 0 0 -3.241198e-03 -1.759103e+01 -1.790052e+02 -6.591704e+02 -1.075382e+03 -6.927035e+02 -1.150797e+02 -5.380795e-03 0 0 0 
0 0 0 0 0 4.318131e+00 1.581181e+02 5.795878e+02 8.214418e+02 6.027909e+02 2.732377e+02 8.389355e+01 2.026201e+01 2.521451e+00 5.216077e-02 0 0 0 -5.216077e-02 -2.521451e+00 -2.026201e+01 -8.389355e+01 -2.732377e+02 -6.027909e+02 -8.214418e+02 -5.795878e+02 -1.581181e+02 -4.318131e+00 0 0 0 0 
0 0 0 0 0 0 7.939108e+00 1.171736e+02 3.858481e+02 5.941530e+02 5.139794e+02 3.422231e+02 2.015751e+02 8.653179e+01 4.447816e+01 1.973635e+01 -8.349527e-12 -1.973635e+01 -4.447816e+01 -8.653179e+01 -2.015751e+02 -3.422231e+02 -5.139794e+02 -5.941530e+02 -3.858481e+02 -1.171736e+02 -7.939108e+00 0 0 0 0 0 
0 0 0 0 0 0 0 9.239900e-01 3.492388e+01 1.631463e+02 2.753966e+02 3.154236e+02 2.586596e+02 1.599957e+02 1.110279e+02 6.015931e+01 -9.260800e-12 -6.015931e+01 -1.110279e+02 -1.599957e+02 -2.586596e+02 -3.154236e+02 -2.753966e+02 -1.631463e+02 -3.492388e+01 -9.239900e-01 0 0 0 0 0 0 
0 0 0 0 0 0 0 0 0 1.156047e+00 1.706387e+01 5.709083e+01 7.742878e+01 7.661754e+01 6.850347e+01 4.271440e+01 1.989949e-12 -4.271440e+01 -6.850347e+01 -7.661754e+01 -7.742878e+01 -5.709083e+01 -1.706387e+01 -1.156047e+00 0 0 0 0 0 0 0 0 
0 0 0 0 0 0 0 0 0 0 0 0 8.229535e-02 6.322068e-01 1.901520e+00 2.291442e+00 2.905026e-12 -2.291442e+00 -1.901520e+00 -6.322068e-01 -8.229535e-02 0 0 0 0 0 0 0 0 0 0 0 
0 0 0 0 0 0 0 0 0 0 0 0 0 0 0 0 0 0 0 0 0 0 0 0 0 0 0 0 0 0 0 0 
0 0 0 0 0 0 0 0 0 0 0 0 0 0 0 0 0 0 0 0 0 0 0 0 0 0 0 0 0 0 0 0 
0 0 0 0 0 0 0 0 0 0 0 0 0 0 0 0 0 0 0 0 0 0 0 0 0 0 0 0 0 0 0 0 
0 0 0 0 0 0 0 0 0 0 0 0 0 0 0 0 0 0 0 0 0 0 0 0 0 0 0 0 0 0 0 0 
0 0 0 0 0 0 0 0 0 0 0 0 0 0 0 0 0 0 0 0 0 0 0 0 0 0 0 0 0 0 0 0 
0 0 0 0 0 0 0 0 0 0 0 0 0 0 0 0 0 0 0 0 0 0 0 0 0 0 0 0 0 0 0 0 
