# vtk DataFile Version 2.0
Comment goes here
ASCII

DATASET STRUCTURED_POINTS
FIELD FieldData 1
TIME 1 1 double
0.28000000
DIMENSIONS    32   32   1

ORIGIN    0.000   0.000   0.000
SPACING   0.03125 0.03125   1.000

POINT_DATA   1024
SCALARS fX double
LOOKUP_TABLE default

0 0 0 0 0 0 0 0 0 0 0 0 0 0 0 0 0 0 0 0 0 0 0 0 0 0 0 0 0 0 0 0 
0 0 0 0 0 0 0 0 0 0 0 0 0 0 0 0 0 0 0 0 0 0 0 0 0 0 0 0 0 0 0 0 
0 0 0 0 0 0 0 0 0 0 0 0 0 0 0 0 0 0 0 0 0 0 0 0 0 0 0 0 0 0 0 0 
0 0 0 0 0 0 0 0 0 0 0 0 0 0 0 0 0 0 0 0 0 0 0 0 0 0 0 0 0 0 0 0 
0 0 0 0 0 0 0 0 0 0 0 0 0 0 0 0 0 0 0 0 0 0 0 0 0 0 0 0 0 0 0 0 
0 0 0 0 0 0 0 0 0 0 0 0 0 0 0 0 0 0 0 0 0 0 0 0 0 0 0 0 0 0 0 0 
0 0 0 0 0 0 0 0 0 0 0 0 0 9.820777e-01 5.571304e+00 8.296758e+00 -3.466809e-13 -8.296758e+00 -5.571304e+00 -9.820777e-01 0 0 0 0 0 0 0 0 0 0 0 0 
0 0 0 0 0 0 0 0 0 4.938002e-02 7.298607e+00 4.924017e+01 1.151737e+02 1.497105e+02 1.528418e+02 1.230424e+02 -2.391713e-12 -1.230424e+02 -1.528418e+02 -1.497105e+02 -1.151737e+02 -4.924017e+01 -7.298607e+00 -4.938002e-02 0 0 0 0 0 0 0 0 
0 0 0 0 0 0 0 0 2.203084e+00 7.426860e+01 2.852972e+02 4.811468e+02 4.848242e+02 3.609728e+02 2.496491e+02 1.655357e+02 -2.463742e-12 -1.655357e+02 -2.496491e+02 -3.609728e+02 -4.848242e+02 -4.811468e+02 -2.852972e+02 -7.426860e+01 -2.203084e+00 0 0 0 0 0 0 0 
0 0 0 0 0 0 0 7.217921e+00 1.310536e+02 5.382631e+02 8.601312e+02 7.447129e+02 4.546466e+02 2.246203e+02 1.028434e+02 5.079007e+01 -4.113080e-13 -5.079007e+01 -1.028434e+02 -2.246203e+02 -4.546466e+02 -7.447129e+02 -8.601312e+02 -5.382631e+02 -1.310536e+02 -7.217921e+00 0 0 0 0 0 0 
0 0 0 0 0 0 4.278299e-01 1.138422e+02 6.123754e+02 1.030736e+03 7.915677e+02 3.328773e+02 8.499609e+01 1.237606e+01 4.648456e-01 1.419992e-06 0 -1.419992e-06 -4.648456e-01 -1.237606e+01 -8.499609e+01 -3.328773e+02 -7.915677e+02 -1.030736e+03 -6.123754e+02 -1.138422e+02 -4.278299e-01 0 0 0 0 0 
0 0 0 0 0 0 3.061309e+01 4.343176e+02 1.026462e+03 8.272313e+02 2.245448e+02 2.007104e+01 0 0 0 0 0 0 0 0 0 -2.007104e+01 -2.245448e+02 -8.272313e+02 -1.026462e+03 -4.343176e+02 -3.061309e+01 0 0 0 0 0 
0 0 0 0 0 0 1.771377e+02 8.536672e+02 9.754909e+02 3.141014e+02 1.514000e+01 0 0 0 0 0 0 0 0 0 0 0 -1.514000e+01 -3.141014e+02 -9.754909e+02 -8.536672e+02 -1.771377e+02 0 0 0 0 0 
0 0 0 0 0 2.652858e+00 3.882810e+02 1.026676e+03 7.009475e+02 5.992936e+01 3.020632e-02 0 0 0 0 0 0 0 0 0 0 0 -3.020632e-02 -5.992936e+01 -7.009475e+02 -1.026676e+03 -3.882810e+02 -2.652858e+00 0 0 0 0 
0 0 0 0 0 1.685901e+01 5.573589e+02 9.687602e+02 4.346365e+02 6.376073e+00 0 0 0 0 0 0 0 0 0 0 0 0 0 -6.376073e+00 -4.346365e+02 -9.687602e+02 -5.573589e+02 -1.685901e+01 0 0 0 0 
0 0 0 0 0 4.028077e+01 6.482458e+02 8.963453e+02 2.883896e+02 9.295354e-03 0 0 0 0 0 0 0 0 0 0 0 0 0 -9.295354e-03 -2.883896e+02 -8.963453e+02 -6.482458e+02 -4.028077e+01 0 0 0 0 
0 0 0 0 0 5.214925e+01 6.644308e+02 8.565753e+02 2.442937e+02 0 0 0 0 0 0 0 0 0 0 0 0 0 0 0 -2.442937e+02 -8.565753e+02 -6.644308e+02 -5.214925e+01 0 0 0 0 
0 0 0 0 0 4.028077e+01 6.482458e+02 8.963453e+02 2.883896e+02 9.295354e-03 0 0 0 0 0 0 0 0 0 0 0 0 0 -9.295354e-03 -2.883896e+02 -8.963453e+02 -6.482458e+02 -4.028077e+01 0 0 0 0 
0 0 0 0 0 1.685901e+01 5.573589e+02 9.687602e+02 4.346365e+02 6.376073e+00 0 0 0 0 0 0 0 0 0 0 0 0 0 -6.376073e+00 -4.346365e+02 -9.687602e+02 -5.573589e+02 -1.685901e+01 0 0 0 0 
0 0 0 0 0 2.652858e+00 3.882810e+02 1.026676e+03 7.009475e+02 5.992936e+01 3.020632e-02 0 0 0 0 0 0 0 0 0 0 0 -3.020632e-02 -5.992936e+01 -7.009475e+02 -1.026676e+03 -3.882810e+02 -2.652858e+00 0 0 0 0 
0 0 0 0 0 0 1.771377e+02 8.536672e+02 9.754909e+02 3.141014e+02 1.514000e+01 0 0 0 0 0 0 0 0 0 0 0 -1.514000e+01 -3.141014e+02 -9.754909e+02 -8.536672e+02 -1.771377e+02 0 0 0 0 0 
0 0 0 0 0 0 3.061309e+01 4.343176e+02 1.026462e+03 8.272313e+02 2.245448e+02 2.007104e+01 0 0 0 0 0 0 0 0 0 -2.007104e+01 -2.245448e+02 -8.272313e+02 -1.026462e+03 -4.343176e+02 -3.061309e+01 0 0 0 0 0 
0 0 0 0 0 0 4.278299e-01 1.138422e+02 6.123754e+02 1.030736e+03 7.915677e+02 3.328773e+02 8.499609e+01 1.237606e+01 4.648456e-01 1.419992e-06 0 -1.419992e-06 -4.648456e-01 -1.237606e+01 -8.499609e+01 -3.328773e+02 -7.915677e+02 -1.030736e+03 -6.123754e+02 -1.138422e+02 -4.278299e-01 0 0 0 0 0 
0 0 0 0 0 0 0 7.217921e+00 1.310536e+02 5.382631e+02 8.601312e+02 7.447129e+02 4.546466e+02 2.246203e+02 1.028434e+02 5.079007e+01 -9.471199e-12 -5.079007e+01 -1.028434e+02 -2.246203e+02 -4.546466e+02 -7.447129e+02 -8.601312e+02 -5.382631e+02 -1.310536e+02 -7.217921e+00 0 0 0 0 0 0 
0 0 0 0 0 0 0 0 2.203084e+00 7.426860e+01 2.852972e+02 4.811468e+02 4.848242e+02 3.609728e+02 2.496491e+02 1.655357e+02 1.571482e-11 -1.655357e+02 -2.496491e+02 -3.609728e+02 -4.848242e+02 -4.811468e+02 -2.852972e+02 -7.426860e+01 -2.203084e+00 0 0 0 0 0 0 0 
0 0 0 0 0 0 0 0 0 4.938002e-02 7.298607e+00 4.924017e+01 1.151737e+02 1.497105e+02 1.528418e+02 1.230424e+02 3.625740e-11 -1.230424e+02 -1.528418e+02 -1.497105e+02 -1.151737e+02 -4.924017e+01 -7.298607e+00 -4.938002e-02 0 0 0 0 0 0 0 0 
0 0 0 0 0 0 0 0 0 0 0 0 0 9.820777e-01 5.571304e+00 8.296758e+00 1.106132e-11 -8.296758e+00 -5.571304e+00 -9.820777e-01 0 0 0 0 0 0 0 0 0 0 0 0 
0 0 0 0 0 0 0 0 0 0 0 0 0 0 0 0 0 0 0 0 0 0 0 0 0 0 0 0 0 0 0 0 
0 0 0 0 0 0 0 0 0 0 0 0 0 0 0 0 0 0 0 0 0 0 0 0 0 0 0 0 0 0 0 0 
0 0 0 0 0 0 0 0 0 0 0 0 0 0 0 0 0 0 0 0 0 0 0 0 0 0 0 0 0 0 0 0 
0 0 0 0 0 0 0 0 0 0 0 0 0 0 0 0 0 0 0 0 0 0 0 0 0 0 0 0 0 0 0 0 
0 0 0 0 0 0 0 0 0 0 0 0 0 0 0 0 0 0 0 0 0 0 0 0 0 0 0 0 0 0 0 0 
