# vtk DataFile Version 2.0
Comment goes here
ASCII

DATASET STRUCTURED_POINTS
FIELD FieldData 1
TIME 1 1 double
1.00000000
DIMENSIONS    32   32   1

ORIGIN    0.000   0.000   0.000
SPACING   0.03125 0.03125   1.000

POINT_DATA   1024
SCALARS fX double
LOOKUP_TABLE default

0 0 0 0 0 0 0 0 0 0 0 0 0 0 0 0 0 0 0 0 0 0 0 0 0 0 0 0 0 0 0 0 
0 0 0 0 0 0 0 0 0 0 0 0 0 0 0 0 0 0 0 0 0 0 0 0 0 0 0 0 0 0 0 0 
0 0 0 0 0 0 0 0 0 0 0 0 0 0 0 0 0 0 0 0 0 0 0 0 0 0 0 0 0 0 0 0 
0 0 0 0 0 0 0 0 0 0 0 0 0 0 0 0 0 0 0 0 0 0 0 0 0 0 0 0 0 0 0 0 
0 0 0 0 0 0 0 0 0 0 0 0 0 0 0 0 0 0 0 0 0 0 0 0 0 0 0 0 0 0 0 0 
0 0 0 0 0 0 0 0 0 0 0 0 0 0 0 0 0 0 0 0 0 0 0 0 0 0 0 0 0 0 0 0 
0 0 0 0 0 0 0 0 0 0 0 0 0 0 0 0 0 0 0 0 0 0 0 0 0 0 0 0 0 0 0 0 
0 0 0 0 0 0 0 0 0 0 0 0 5.597896e-01 5.207466e+00 4.909308e+00 6.238384e-02 -5.023371e-12 -6.238384e-02 -4.909308e+00 -5.207466e+00 -5.597896e-01 0 0 0 0 0 0 0 0 0 0 0 
0 0 0 0 0 0 0 0 0 0 -1.463773e-01 4.164941e+01 5.077752e+01 1.128396e+02 1.502102e+02 4.406216e+01 -3.328240e-11 -4.406216e+01 -1.502102e+02 -1.128396e+02 -5.077752e+01 -4.164941e+01 1.463773e-01 0 0 0 0 0 0 0 0 0 
0 0 0 0 0 0 0 0 0 2.161758e+00 9.839385e+01 3.295853e+02 4.039546e+02 2.956408e+02 2.023756e+02 7.447370e+01 -3.446553e-11 -7.447370e+01 -2.023756e+02 -2.956408e+02 -4.039546e+02 -3.295853e+02 -9.839385e+01 -2.161758e+00 0 0 0 0 0 0 0 0 
0 0 0 0 0 0 0 0 1.175691e+01 1.171988e+02 4.016635e+02 6.053183e+02 5.030497e+02 2.209207e+02 5.821319e+01 3.047392e+01 -6.205448e-12 -3.047392e+01 -5.821319e+01 -2.209207e+02 -5.030497e+02 -6.053183e+02 -4.016635e+02 -1.171988e+02 -1.175691e+01 0 0 0 0 0 0 0 
0 0 0 0 0 0 0 3.706998e-02 1.044025e+02 5.377860e+02 7.140399e+02 4.009809e+02 1.521351e+02 3.291201e+01 1.138477e+00 0 0 0 -1.138477e+00 -3.291201e+01 -1.521351e+02 -4.009809e+02 -7.140399e+02 -5.377860e+02 -1.044025e+02 -3.706998e-02 0 0 0 0 0 0 
0 0 0 0 0 0 0 5.903055e+01 4.301828e+02 8.289769e+02 5.459258e+02 9.092345e+01 2.822330e+00 0 0 0 0 0 0 0 -2.822330e+00 -9.092345e+01 -5.459258e+02 -8.289769e+02 -4.301828e+02 -5.903055e+01 0 0 0 0 0 0 
0 0 0 0 0 0 2.936299e-03 1.894800e+02 8.514966e+02 8.458300e+02 1.911355e+02 7.324991e+00 0 0 0 0 0 0 0 0 0 -7.324991e+00 -1.911355e+02 -8.458300e+02 -8.514966e+02 -1.894800e+02 -2.936299e-03 0 0 0 0 0 
0 0 0 0 0 0 1.500841e+00 3.774582e+02 9.870703e+02 6.685716e+02 5.745867e+01 0 0 0 0 0 0 0 0 0 0 0 -5.745867e+01 -6.685716e+02 -9.870703e+02 -3.774582e+02 -1.500841e+00 0 0 0 0 0 
0 0 0 0 0 0 9.432437e+00 5.716655e+02 9.946940e+02 4.337934e+02 1.332392e+00 0 0 0 0 0 0 0 0 0 0 0 -1.332392e+00 -4.337934e+02 -9.946940e+02 -5.716655e+02 -9.432437e+00 0 0 0 0 0 
0 0 0 0 0 0 1.586906e+01 6.493877e+02 1.043166e+03 4.096475e+02 0 0 0 0 0 0 0 0 0 0 0 0 0 -4.096475e+02 -1.043166e+03 -6.493877e+02 -1.586906e+01 0 0 0 0 0 
0 0 0 0 0 0 9.432437e+00 5.716655e+02 9.946940e+02 4.337934e+02 1.332392e+00 0 0 0 0 0 0 0 0 0 0 0 -1.332392e+00 -4.337934e+02 -9.946940e+02 -5.716655e+02 -9.432437e+00 0 0 0 0 0 
0 0 0 0 0 0 1.500841e+00 3.774582e+02 9.870703e+02 6.685716e+02 5.745867e+01 0 0 0 0 0 0 0 0 0 0 0 -5.745867e+01 -6.685716e+02 -9.870703e+02 -3.774582e+02 -1.500841e+00 0 0 0 0 0 
0 0 0 0 0 0 2.936299e-03 1.894800e+02 8.514966e+02 8.458300e+02 1.911355e+02 7.324991e+00 0 0 0 0 0 0 0 0 0 -7.324991e+00 -1.911355e+02 -8.458300e+02 -8.514966e+02 -1.894800e+02 -2.936299e-03 0 0 0 0 0 
0 0 0 0 0 0 0 5.903055e+01 4.301828e+02 8.289769e+02 5.459258e+02 9.092345e+01 2.822330e+00 0 0 0 0 0 0 0 -2.822330e+00 -9.092345e+01 -5.459258e+02 -8.289769e+02 -4.301828e+02 -5.903055e+01 0 0 0 0 0 0 
0 0 0 0 0 0 0 3.706998e-02 1.044025e+02 5.377860e+02 7.140399e+02 4.009809e+02 1.521351e+02 3.291201e+01 1.138477e+00 0 0 0 -1.138477e+00 -3.291201e+01 -1.521351e+02 -4.009809e+02 -7.140399e+02 -5.377860e+02 -1.044025e+02 -3.706998e-02 0 0 0 0 0 0 
0 0 0 0 0 0 0 0 1.175691e+01 1.171988e+02 4.016635e+02 6.053183e+02 5.030497e+02 2.209207e+02 5.821319e+01 3.047392e+01 -1.175165e-11 -3.047392e+01 -5.821319e+01 -2.209207e+02 -5.030497e+02 -6.053183e+02 -4.016635e+02 -1.171988e+02 -1.175691e+01 0 0 0 0 0 0 0 
0 0 0 0 0 0 0 0 0 2.161758e+00 9.839385e+01 3.295853e+02 4.039546e+02 2.956408e+02 2.023756e+02 7.447370e+01 -4.984444e-11 -7.447370e+01 -2.023756e+02 -2.956408e+02 -4.039546e+02 -3.295853e+02 -9.839385e+01 -2.161758e+00 0 0 0 0 0 0 0 0 
0 0 0 0 0 0 0 0 0 0 -1.463773e-01 4.164941e+01 5.077752e+01 1.128396e+02 1.502102e+02 4.406216e+01 -4.380010e-11 -4.406216e+01 -1.502102e+02 -1.128396e+02 -5.077752e+01 -4.164941e+01 1.463773e-01 0 0 0 0 0 0 0 0 0 
0 0 0 0 0 0 0 0 0 0 0 0 5.597896e-01 5.207466e+00 4.909308e+00 6.238384e-02 -5.706456e-12 -6.238384e-02 -4.909308e+00 -5.207466e+00 -5.597896e-01 0 0 0 0 0 0 0 0 0 0 0 
0 0 0 0 0 0 0 0 0 0 0 0 0 0 0 0 0 0 0 0 0 0 0 0 0 0 0 0 0 0 0 0 
0 0 0 0 0 0 0 0 0 0 0 0 0 0 0 0 0 0 0 0 0 0 0 0 0 0 0 0 0 0 0 0 
0 0 0 0 0 0 0 0 0 0 0 0 0 0 0 0 0 0 0 0 0 0 0 0 0 0 0 0 0 0 0 0 
0 0 0 0 0 0 0 0 0 0 0 0 0 0 0 0 0 0 0 0 0 0 0 0 0 0 0 0 0 0 0 0 
0 0 0 0 0 0 0 0 0 0 0 0 0 0 0 0 0 0 0 0 0 0 0 0 0 0 0 0 0 0 0 0 
0 0 0 0 0 0 0 0 0 0 0 0 0 0 0 0 0 0 0 0 0 0 0 0 0 0 0 0 0 0 0 0 
