# vtk DataFile Version 2.0
Comment goes here
ASCII

DATASET STRUCTURED_POINTS
FIELD FieldData 1
TIME 1 1 double
0.32000000
DIMENSIONS    32   32   1

ORIGIN    0.000   0.000   0.000
SPACING   0.03125 0.03125   1.000

POINT_DATA   1024
SCALARS fX double
LOOKUP_TABLE default

0 0 0 0 0 0 0 0 0 0 0 0 0 0 0 0 0 0 0 0 0 0 0 0 0 0 0 0 0 0 0 0 
0 0 0 0 0 0 0 0 0 0 0 0 0 0 0 0 0 0 0 0 0 0 0 0 0 0 0 0 0 0 0 0 
0 0 0 0 0 0 0 0 0 0 0 0 0 0 0 0 0 0 0 0 0 0 0 0 0 0 0 0 0 0 0 0 
0 0 0 0 0 0 0 0 0 0 0 0 0 0 0 0 0 0 0 0 0 0 0 0 0 0 0 0 0 0 0 0 
0 0 0 0 0 0 0 0 0 0 0 0 1.137354e+00 1.582182e+01 4.675292e+01 5.237644e+01 -5.153572e-12 -5.237644e+01 -4.675292e+01 -1.582182e+01 -1.137354e+00 0 0 0 0 0 0 0 0 0 0 0 
0 0 0 0 0 0 0 0 0 0 0 9.090394e+00 1.072873e+02 2.723761e+02 3.170901e+02 2.059973e+02 -8.281411e-12 -2.059973e+02 -3.170901e+02 -2.723761e+02 -1.072873e+02 -9.090394e+00 0 0 0 0 0 0 0 0 0 0 
0 0 0 0 0 0 0 0 0 0 1.107599e+01 1.596242e+02 5.057534e+02 6.311330e+02 4.043024e+02 1.758486e+02 -2.782861e-12 -1.758486e+02 -4.043024e+02 -6.311330e+02 -5.057534e+02 -1.596242e+02 -1.107599e+01 0 0 0 0 0 0 0 0 0 
0 0 0 0 0 0 0 0 0 2.433297e+00 1.449364e+02 5.773773e+02 7.846756e+02 4.678032e+02 1.375340e+02 2.222773e+01 3.562570e-13 -2.222773e+01 -1.375340e+02 -4.678032e+02 -7.846756e+02 -5.773773e+02 -1.449364e+02 -2.433297e+00 0 0 0 0 0 0 0 0 
0 0 0 0 0 0 0 0 0 5.257764e+01 4.345720e+02 8.080225e+02 5.188208e+02 9.636153e+01 3.568838e+00 0 0 0 -3.568838e+00 -9.636153e+01 -5.188208e+02 -8.080225e+02 -4.345720e+02 -5.257764e+01 0 0 0 0 0 0 0 0 
0 0 0 0 0 0 0 0 3.397669e+00 2.347584e+02 7.368310e+02 6.517169e+02 1.493837e+02 3.137028e+00 0 0 0 0 0 -3.137028e+00 -1.493837e+02 -6.517169e+02 -7.368310e+02 -2.347584e+02 -3.397669e+00 0 0 0 0 0 0 0 
0 0 0 0 0 0 0 0 2.916116e+01 4.426446e+02 7.789426e+02 3.817798e+02 1.632052e+01 0 0 0 0 0 0 0 -1.632052e+01 -3.817798e+02 -7.789426e+02 -4.426446e+02 -2.916116e+01 0 0 0 0 0 0 0 
0 0 0 0 0 0 0 0 1.152413e+02 5.947838e+02 6.225202e+02 1.436632e+02 6.855977e-01 0 0 0 0 0 0 0 -6.855977e-01 -1.436632e+02 -6.225202e+02 -5.947838e+02 -1.152413e+02 0 0 0 0 0 0 0 
0 0 0 0 0 0 0 6.499914e-03 2.463219e+02 7.250210e+02 5.184999e+02 3.979428e+01 0 0 0 0 0 0 0 0 0 -3.979428e+01 -5.184999e+02 -7.250210e+02 -2.463219e+02 -6.499914e-03 0 0 0 0 0 0 
0 0 0 0 0 0 0 2.985919e+00 3.500183e+02 7.259121e+02 3.863674e+02 7.487669e+00 0 0 0 0 0 0 0 0 0 -7.487669e+00 -3.863674e+02 -7.259121e+02 -3.500183e+02 -2.985919e+00 0 0 0 0 0 0 
0 0 0 0 0 0 0 1.191266e+01 4.162660e+02 6.684438e+02 2.642052e+02 1.148309e-01 0 0 0 0 0 0 0 0 0 -1.148309e-01 -2.642052e+02 -6.684438e+02 -4.162660e+02 -1.191266e+01 0 0 0 0 0 0 
0 0 0 0 0 0 0 2.482788e+01 4.770314e+02 6.751139e+02 2.229104e+02 0 0 0 0 0 0 0 0 0 0 0 -2.229104e+02 -6.751139e+02 -4.770314e+02 -2.482788e+01 0 0 0 0 0 0 
0 0 0 0 0 0 0 3.178928e+01 5.078790e+02 6.886291e+02 2.125395e+02 0 0 0 0 0 0 0 0 0 0 0 -2.125395e+02 -6.886291e+02 -5.078790e+02 -3.178928e+01 0 0 0 0 0 0 
0 0 0 0 0 0 0 2.482788e+01 4.770314e+02 6.751139e+02 2.229104e+02 0 0 0 0 0 0 0 0 0 0 0 -2.229104e+02 -6.751139e+02 -4.770314e+02 -2.482788e+01 0 0 0 0 0 0 
0 0 0 0 0 0 0 1.191266e+01 4.162660e+02 6.684438e+02 2.642052e+02 1.148309e-01 0 0 0 0 0 0 0 0 0 -1.148309e-01 -2.642052e+02 -6.684438e+02 -4.162660e+02 -1.191266e+01 0 0 0 0 0 0 
0 0 0 0 0 0 0 2.985919e+00 3.500183e+02 7.259121e+02 3.863674e+02 7.487669e+00 0 0 0 0 0 0 0 0 0 -7.487669e+00 -3.863674e+02 -7.259121e+02 -3.500183e+02 -2.985919e+00 0 0 0 0 0 0 
0 0 0 0 0 0 0 6.499914e-03 2.463219e+02 7.250210e+02 5.184999e+02 3.979428e+01 0 0 0 0 0 0 0 0 0 -3.979428e+01 -5.184999e+02 -7.250210e+02 -2.463219e+02 -6.499914e-03 0 0 0 0 0 0 
0 0 0 0 0 0 0 0 1.152413e+02 5.947838e+02 6.225202e+02 1.436632e+02 6.855977e-01 0 0 0 0 0 0 0 -6.855977e-01 -1.436632e+02 -6.225202e+02 -5.947838e+02 -1.152413e+02 0 0 0 0 0 0 0 
0 0 0 0 0 0 0 0 2.916116e+01 4.426446e+02 7.789426e+02 3.817798e+02 1.632052e+01 0 0 0 0 0 0 0 -1.632052e+01 -3.817798e+02 -7.789426e+02 -4.426446e+02 -2.916116e+01 0 0 0 0 0 0 0 
0 0 0 0 0 0 0 0 3.397669e+00 2.347584e+02 7.368310e+02 6.517169e+02 1.493837e+02 3.137028e+00 0 0 0 0 0 -3.137028e+00 -1.493837e+02 -6.517169e+02 -7.368310e+02 -2.347584e+02 -3.397669e+00 0 0 0 0 0 0 0 
0 0 0 0 0 0 0 0 0 5.257764e+01 4.345720e+02 8.080225e+02 5.188208e+02 9.636153e+01 3.568838e+00 0 0 0 -3.568838e+00 -9.636153e+01 -5.188208e+02 -8.080225e+02 -4.345720e+02 -5.257764e+01 0 0 0 0 0 0 0 0 
0 0 0 0 0 0 0 0 0 2.433297e+00 1.449364e+02 5.773773e+02 7.846756e+02 4.678032e+02 1.375340e+02 2.222773e+01 -5.474207e-12 -2.222773e+01 -1.375340e+02 -4.678032e+02 -7.846756e+02 -5.773773e+02 -1.449364e+02 -2.433297e+00 0 0 0 0 0 0 0 0 
0 0 0 0 0 0 0 0 0 0 1.107599e+01 1.596242e+02 5.057534e+02 6.311330e+02 4.043024e+02 1.758486e+02 -2.600442e-11 -1.758486e+02 -4.043024e+02 -6.311330e+02 -5.057534e+02 -1.596242e+02 -1.107599e+01 0 0 0 0 0 0 0 0 0 
0 0 0 0 0 0 0 0 0 0 0 9.090394e+00 1.072873e+02 2.723761e+02 3.170901e+02 2.059973e+02 -2.167488e-12 -2.059973e+02 -3.170901e+02 -2.723761e+02 -1.072873e+02 -9.090394e+00 0 0 0 0 0 0 0 0 0 0 
0 0 0 0 0 0 0 0 0 0 0 0 1.137354e+00 1.582182e+01 4.675292e+01 5.237644e+01 1.835887e-11 -5.237644e+01 -4.675292e+01 -1.582182e+01 -1.137354e+00 0 0 0 0 0 0 0 0 0 0 0 
0 0 0 0 0 0 0 0 0 0 0 0 0 0 0 0 0 0 0 0 0 0 0 0 0 0 0 0 0 0 0 0 
0 0 0 0 0 0 0 0 0 0 0 0 0 0 0 0 0 0 0 0 0 0 0 0 0 0 0 0 0 0 0 0 
0 0 0 0 0 0 0 0 0 0 0 0 0 0 0 0 0 0 0 0 0 0 0 0 0 0 0 0 0 0 0 0 
