# vtk DataFile Version 2.0
Comment goes here
ASCII

DATASET STRUCTURED_POINTS
FIELD FieldData 1
TIME 1 1 double
0.72000000
DIMENSIONS    32   32   1

ORIGIN    0.000   0.000   0.000
SPACING   0.03125 0.03125   1.000

POINT_DATA   1024
SCALARS fX double
LOOKUP_TABLE default

0 0 0 0 0 0 0 0 0 0 0 0 0 0 0 0 0 0 0 0 0 0 0 0 0 0 0 0 0 0 0 0 
0 0 0 0 0 0 0 0 0 0 0 0 0 0 0 0 0 0 0 0 0 0 0 0 0 0 0 0 0 0 0 0 
0 0 0 0 0 0 0 0 0 0 0 0 0 0 0 0 0 0 0 0 0 0 0 0 0 0 0 0 0 0 0 0 
0 0 0 0 0 0 0 0 0 0 0 0 0 0 0 0 0 0 0 0 0 0 0 0 0 0 0 0 0 0 0 0 
0 0 0 0 0 0 0 0 0 0 0 0 0 0 0 0 0 0 0 0 0 0 0 0 0 0 0 0 0 0 0 0 
0 0 0 0 0 0 0 0 0 0 0 0 0 0 0 0 0 0 0 0 0 0 0 0 0 0 0 0 0 0 0 0 
0 0 0 0 0 0 0 0 0 0 0 0 0 0 0 0 0 0 0 0 0 0 0 0 0 0 0 0 0 0 0 0 
0 0 0 0 0 0 0 0 0 0 0 0 -6.497314e-02 1.220536e+00 3.589697e+00 2.143468e-01 1.783545e-13 -2.143468e-01 -3.589697e+00 -1.220536e+00 6.497314e-02 0 0 0 0 0 0 0 0 0 0 0 
0 0 0 0 0 0 0 0 0 0 8.004822e+00 2.458647e+01 8.393921e+01 8.242402e+01 7.338554e+01 3.358706e+01 2.067809e-11 -3.358706e+01 -7.338554e+01 -8.242402e+01 -8.393921e+01 -2.458647e+01 -8.004822e+00 0 0 0 0 0 0 0 0 0 
0 0 0 0 0 0 0 0 3.260856e+00 4.734703e+01 2.167140e+02 3.088725e+02 3.182244e+02 2.162749e+02 1.189907e+02 5.364897e+01 3.203669e-11 -5.364897e+01 -1.189907e+02 -2.162749e+02 -3.182244e+02 -3.088725e+02 -2.167140e+02 -4.734703e+01 -3.260856e+00 0 0 0 0 0 0 0 
0 0 0 0 0 0 0 9.633507e+00 1.415571e+02 3.873542e+02 5.697392e+02 4.832921e+02 2.860870e+02 1.385618e+02 5.013884e+01 2.027626e+01 1.154197e-11 -2.027626e+01 -5.013884e+01 -1.385618e+02 -2.860870e+02 -4.832921e+02 -5.697392e+02 -3.873542e+02 -1.415571e+02 -9.633507e+00 0 0 0 0 0 0 
0 0 0 0 0 0 3.880791e+00 1.599498e+02 6.142282e+02 7.897655e+02 4.891075e+02 2.068915e+02 5.193680e+01 3.490419e+00 9.440146e-01 0 0 0 -9.440146e-01 -3.490419e+00 -5.193680e+01 -2.068915e+02 -4.891075e+02 -7.897655e+02 -6.142282e+02 -1.599498e+02 -3.880791e+00 0 0 0 0 0 
0 0 0 0 0 0 7.763178e+01 5.797174e+02 9.936252e+02 6.176091e+02 1.338850e+02 7.885480e+00 6.998926e-02 0 0 0 0 0 0 0 -6.998926e-02 -7.885480e+00 -1.338850e+02 -6.176091e+02 -9.936252e+02 -5.797174e+02 -7.763178e+01 0 0 0 0 0 
0 0 0 0 0 5.306227e+00 3.598097e+02 1.038393e+03 8.651123e+02 1.870300e+02 5.807524e+00 0 0 0 0 0 0 0 0 0 0 0 -5.807524e+00 -1.870300e+02 -8.651123e+02 -1.038393e+03 -3.598097e+02 -5.306227e+00 0 0 0 0 
0 0 0 0 0 4.065692e+01 7.611647e+02 1.255816e+03 5.544925e+02 1.918391e+01 0 0 0 0 0 0 0 0 0 0 0 0 0 -1.918391e+01 -5.544925e+02 -1.255816e+03 -7.611647e+02 -4.065692e+01 0 0 0 0 
0 0 0 0 0 1.062435e+02 1.002368e+03 1.228204e+03 3.320840e+02 4.623028e-03 0 0 0 0 0 0 0 0 0 0 0 0 0 -4.623028e-03 -3.320840e+02 -1.228204e+03 -1.002368e+03 -1.062435e+02 0 0 0 0 
0 0 0 0 0 1.417856e+02 1.054524e+03 1.162759e+03 2.500209e+02 0 0 0 0 0 0 0 0 0 0 0 0 0 0 0 -2.500209e+02 -1.162759e+03 -1.054524e+03 -1.417856e+02 0 0 0 0 
0 0 0 0 0 1.062435e+02 1.002368e+03 1.228204e+03 3.320840e+02 4.623028e-03 0 0 0 0 0 0 0 0 0 0 0 0 0 -4.623028e-03 -3.320840e+02 -1.228204e+03 -1.002368e+03 -1.062435e+02 0 0 0 0 
0 0 0 0 0 4.065692e+01 7.611647e+02 1.255816e+03 5.544925e+02 1.918391e+01 0 0 0 0 0 0 0 0 0 0 0 0 0 -1.918391e+01 -5.544925e+02 -1.255816e+03 -7.611647e+02 -4.065692e+01 0 0 0 0 
0 0 0 0 0 5.306227e+00 3.598097e+02 1.038393e+03 8.651123e+02 1.870300e+02 5.807524e+00 0 0 0 0 0 0 0 0 0 0 0 -5.807524e+00 -1.870300e+02 -8.651123e+02 -1.038393e+03 -3.598097e+02 -5.306227e+00 0 0 0 0 
0 0 0 0 0 0 7.763178e+01 5.797174e+02 9.936252e+02 6.176091e+02 1.338850e+02 7.885480e+00 6.998926e-02 0 0 0 0 0 0 0 -6.998926e-02 -7.885480e+00 -1.338850e+02 -6.176091e+02 -9.936252e+02 -5.797174e+02 -7.763178e+01 0 0 0 0 0 
0 0 0 0 0 0 3.880791e+00 1.599498e+02 6.142282e+02 7.897655e+02 4.891075e+02 2.068915e+02 5.193680e+01 3.490419e+00 9.440146e-01 0 0 0 -9.440146e-01 -3.490419e+00 -5.193680e+01 -2.068915e+02 -4.891075e+02 -7.897655e+02 -6.142282e+02 -1.599498e+02 -3.880791e+00 0 0 0 0 0 
0 0 0 0 0 0 0 9.633507e+00 1.415571e+02 3.873542e+02 5.697392e+02 4.832921e+02 2.860870e+02 1.385618e+02 5.013884e+01 2.027626e+01 1.343722e-11 -2.027626e+01 -5.013884e+01 -1.385618e+02 -2.860870e+02 -4.832921e+02 -5.697392e+02 -3.873542e+02 -1.415571e+02 -9.633507e+00 0 0 0 0 0 0 
0 0 0 0 0 0 0 0 3.260856e+00 4.734703e+01 2.167140e+02 3.088725e+02 3.182244e+02 2.162749e+02 1.189907e+02 5.364897e+01 3.856294e-11 -5.364897e+01 -1.189907e+02 -2.162749e+02 -3.182244e+02 -3.088725e+02 -2.167140e+02 -4.734703e+01 -3.260856e+00 0 0 0 0 0 0 0 
0 0 0 0 0 0 0 0 0 0 8.004822e+00 2.458647e+01 8.393921e+01 8.242402e+01 7.338554e+01 3.358706e+01 2.549031e-11 -3.358706e+01 -7.338554e+01 -8.242402e+01 -8.393921e+01 -2.458647e+01 -8.004822e+00 0 0 0 0 0 0 0 0 0 
0 0 0 0 0 0 0 0 0 0 0 0 -6.497314e-02 1.220536e+00 3.589697e+00 2.143468e-01 3.706399e-13 -2.143468e-01 -3.589697e+00 -1.220536e+00 6.497314e-02 0 0 0 0 0 0 0 0 0 0 0 
0 0 0 0 0 0 0 0 0 0 0 0 0 0 0 0 0 0 0 0 0 0 0 0 0 0 0 0 0 0 0 0 
0 0 0 0 0 0 0 0 0 0 0 0 0 0 0 0 0 0 0 0 0 0 0 0 0 0 0 0 0 0 0 0 
0 0 0 0 0 0 0 0 0 0 0 0 0 0 0 0 0 0 0 0 0 0 0 0 0 0 0 0 0 0 0 0 
0 0 0 0 0 0 0 0 0 0 0 0 0 0 0 0 0 0 0 0 0 0 0 0 0 0 0 0 0 0 0 0 
0 0 0 0 0 0 0 0 0 0 0 0 0 0 0 0 0 0 0 0 0 0 0 0 0 0 0 0 0 0 0 0 
0 0 0 0 0 0 0 0 0 0 0 0 0 0 0 0 0 0 0 0 0 0 0 0 0 0 0 0 0 0 0 0 
