# vtk DataFile Version 2.0
Comment goes here
ASCII

DATASET STRUCTURED_POINTS
FIELD FieldData 1
TIME 1 1 double
0.42000000
DIMENSIONS    32   32   1

ORIGIN    0.000   0.000   0.000
SPACING   0.03125 0.03125   1.000

POINT_DATA   1024
SCALARS fX double
LOOKUP_TABLE default

0 0 0 0 0 0 0 0 0 0 0 0 0 0 0 0 0 0 0 0 0 0 0 0 0 0 0 0 0 0 0 0 
0 0 0 0 0 0 0 0 0 0 0 0 0 0 0 0 0 0 0 0 0 0 0 0 0 0 0 0 0 0 0 0 
0 0 0 0 0 0 0 0 0 0 0 0 0 0 0 0 0 0 0 0 0 0 0 0 0 0 0 0 0 0 0 0 
0 0 0 0 0 0 0 0 0 0 0 0 0 0 0 0 0 0 0 0 0 0 0 0 0 0 0 0 0 0 0 0 
0 0 0 0 0 0 0 0 0 0 0 0 0 0 0 0 0 0 0 0 0 0 0 0 0 0 0 0 0 0 0 0 
0 0 0 0 0 0 0 0 0 0 0 0 0 0 0 0 0 0 0 0 0 0 0 0 0 0 0 0 0 0 0 0 
0 0 0 0 0 0 0 0 0 0 0 0 0 0 0 0 0 0 0 0 0 0 0 0 0 0 0 0 0 0 0 0 
0 0 0 0 0 0 0 0 0 0 0 0 1.557038e+00 5.053754e+00 6.844297e+00 6.178756e+00 2.081591e-12 -6.178756e+00 -6.844297e+00 -5.053754e+00 -1.557038e+00 0 0 0 0 0 0 0 0 0 0 0 
0 0 0 0 0 0 0 0 2.293086e-03 2.556263e+00 3.008574e+01 9.100550e+01 1.398972e+02 1.498514e+02 1.011948e+02 4.777333e+01 1.186461e-11 -4.777333e+01 -1.011948e+02 -1.498514e+02 -1.398972e+02 -9.100550e+01 -3.008574e+01 -2.556263e+00 -2.293086e-03 0 0 0 0 0 0 0 
0 0 0 0 0 0 0 3.158253e-01 3.604913e+01 1.793588e+02 3.439968e+02 4.124326e+02 3.550196e+02 2.493373e+02 1.382686e+02 5.344865e+01 1.172877e-11 -5.344865e+01 -1.382686e+02 -2.493373e+02 -3.550196e+02 -4.124326e+02 -3.439968e+02 -1.793588e+02 -3.604913e+01 -3.158253e-01 0 0 0 0 0 0 
0 0 0 0 0 0 5.075724e+00 1.104957e+02 4.200580e+02 6.612895e+02 5.897055e+02 4.070062e+02 2.332145e+02 1.057102e+02 4.391830e+01 1.185408e+01 1.943062e-12 -1.185408e+01 -4.391830e+01 -1.057102e+02 -2.332145e+02 -4.070062e+02 -5.897055e+02 -6.612895e+02 -4.200580e+02 -1.104957e+02 -5.075724e+00 0 0 0 0 0 
0 0 0 0 0 9.203831e-01 1.016344e+02 5.528777e+02 9.396763e+02 7.179122e+02 3.006140e+02 8.557917e+01 1.653515e+01 1.170514e+00 1.233127e-04 0 0 0 -1.233127e-04 -1.170514e+00 -1.653515e+01 -8.557917e+01 -3.006140e+02 -7.179122e+02 -9.396763e+02 -5.528777e+02 -1.016344e+02 -9.203831e-01 0 0 0 0 
0 0 0 0 0 5.067797e+01 4.995375e+02 1.040300e+03 8.158222e+02 2.492016e+02 2.481965e+01 0 0 0 0 0 0 0 0 0 0 0 -2.481965e+01 -2.492016e+02 -8.158222e+02 -1.040300e+03 -4.995375e+02 -5.067797e+01 0 0 0 0 
0 0 0 0 4.542664e-01 2.766554e+02 1.078551e+03 1.097609e+03 3.110715e+02 1.581173e+01 0 0 0 0 0 0 0 0 0 0 0 0 0 -1.581173e+01 -3.110715e+02 -1.097609e+03 -1.078551e+03 -2.766554e+02 -4.542664e-01 0 0 0 
0 0 0 0 7.183569e+00 6.104589e+02 1.365449e+03 8.167178e+02 5.457929e+01 3.538638e-02 0 0 0 0 0 0 0 0 0 0 0 0 0 -3.538638e-02 -5.457929e+01 -8.167178e+02 -1.365449e+03 -6.104589e+02 -7.183569e+00 0 0 0 
0 0 0 0 3.483184e+01 8.575600e+02 1.346035e+03 5.269722e+02 3.664920e+00 0 0 0 0 0 0 0 0 0 0 0 0 0 0 0 -3.664920e+00 -5.269722e+02 -1.346035e+03 -8.575600e+02 -3.483184e+01 0 0 0 
0 0 0 0 5.620508e+01 9.479978e+02 1.312316e+03 4.205234e+02 0 0 0 0 0 0 0 0 0 0 0 0 0 0 0 0 0 -4.205234e+02 -1.312316e+03 -9.479978e+02 -5.620508e+01 0 0 0 
0 0 0 0 3.483184e+01 8.575600e+02 1.346035e+03 5.269722e+02 3.664920e+00 0 0 0 0 0 0 0 0 0 0 0 0 0 0 0 -3.664920e+00 -5.269722e+02 -1.346035e+03 -8.575600e+02 -3.483184e+01 0 0 0 
0 0 0 0 7.183569e+00 6.104589e+02 1.365449e+03 8.167178e+02 5.457929e+01 3.538638e-02 0 0 0 0 0 0 0 0 0 0 0 0 0 -3.538638e-02 -5.457929e+01 -8.167178e+02 -1.365449e+03 -6.104589e+02 -7.183569e+00 0 0 0 
0 0 0 0 4.542664e-01 2.766554e+02 1.078551e+03 1.097609e+03 3.110715e+02 1.581173e+01 0 0 0 0 0 0 0 0 0 0 0 0 0 -1.581173e+01 -3.110715e+02 -1.097609e+03 -1.078551e+03 -2.766554e+02 -4.542664e-01 0 0 0 
0 0 0 0 0 5.067797e+01 4.995375e+02 1.040300e+03 8.158222e+02 2.492016e+02 2.481965e+01 0 0 0 0 0 0 0 0 0 0 0 -2.481965e+01 -2.492016e+02 -8.158222e+02 -1.040300e+03 -4.995375e+02 -5.067797e+01 0 0 0 0 
0 0 0 0 0 9.203831e-01 1.016344e+02 5.528777e+02 9.396763e+02 7.179122e+02 3.006140e+02 8.557917e+01 1.653515e+01 1.170514e+00 1.233127e-04 0 0 0 -1.233127e-04 -1.170514e+00 -1.653515e+01 -8.557917e+01 -3.006140e+02 -7.179122e+02 -9.396763e+02 -5.528777e+02 -1.016344e+02 -9.203831e-01 0 0 0 0 
0 0 0 0 0 0 5.075724e+00 1.104957e+02 4.200580e+02 6.612895e+02 5.897055e+02 4.070062e+02 2.332145e+02 1.057102e+02 4.391830e+01 1.185408e+01 -6.497774e-12 -1.185408e+01 -4.391830e+01 -1.057102e+02 -2.332145e+02 -4.070062e+02 -5.897055e+02 -6.612895e+02 -4.200580e+02 -1.104957e+02 -5.075724e+00 0 0 0 0 0 
0 0 0 0 0 0 0 3.158253e-01 3.604913e+01 1.793588e+02 3.439968e+02 4.124326e+02 3.550196e+02 2.493373e+02 1.382686e+02 5.344865e+01 -1.158413e-11 -5.344865e+01 -1.382686e+02 -2.493373e+02 -3.550196e+02 -4.124326e+02 -3.439968e+02 -1.793588e+02 -3.604913e+01 -3.158253e-01 0 0 0 0 0 0 
0 0 0 0 0 0 0 0 2.293086e-03 2.556263e+00 3.008574e+01 9.100550e+01 1.398972e+02 1.498514e+02 1.011948e+02 4.777333e+01 -1.622051e-12 -4.777333e+01 -1.011948e+02 -1.498514e+02 -1.398972e+02 -9.100550e+01 -3.008574e+01 -2.556263e+00 -2.293086e-03 0 0 0 0 0 0 0 
0 0 0 0 0 0 0 0 0 0 0 0 1.557038e+00 5.053754e+00 6.844297e+00 6.178756e+00 3.464677e-12 -6.178756e+00 -6.844297e+00 -5.053754e+00 -1.557038e+00 0 0 0 0 0 0 0 0 0 0 0 
0 0 0 0 0 0 0 0 0 0 0 0 0 0 0 0 0 0 0 0 0 0 0 0 0 0 0 0 0 0 0 0 
0 0 0 0 0 0 0 0 0 0 0 0 0 0 0 0 0 0 0 0 0 0 0 0 0 0 0 0 0 0 0 0 
0 0 0 0 0 0 0 0 0 0 0 0 0 0 0 0 0 0 0 0 0 0 0 0 0 0 0 0 0 0 0 0 
0 0 0 0 0 0 0 0 0 0 0 0 0 0 0 0 0 0 0 0 0 0 0 0 0 0 0 0 0 0 0 0 
0 0 0 0 0 0 0 0 0 0 0 0 0 0 0 0 0 0 0 0 0 0 0 0 0 0 0 0 0 0 0 0 
0 0 0 0 0 0 0 0 0 0 0 0 0 0 0 0 0 0 0 0 0 0 0 0 0 0 0 0 0 0 0 0 
