# vtk DataFile Version 2.0
Comment goes here
ASCII

DATASET STRUCTURED_POINTS
FIELD FieldData 1
TIME 1 1 double
0.68000000
DIMENSIONS    32   32   1

ORIGIN    0.000   0.000   0.000
SPACING   0.03125 0.03125   1.000

POINT_DATA   1024
SCALARS fX double
LOOKUP_TABLE default

0 0 0 0 0 0 0 0 0 0 0 0 0 0 0 0 0 0 0 0 0 0 0 0 0 0 0 0 0 0 0 0 
0 0 0 0 0 0 0 0 0 0 0 0 0 0 0 0 0 0 0 0 0 0 0 0 0 0 0 0 0 0 0 0 
0 0 0 0 0 0 0 0 0 0 0 0 0 0 0 0 0 0 0 0 0 0 0 0 0 0 0 0 0 0 0 0 
0 0 0 0 0 0 0 0 0 0 0 0 0 0 0 0 0 0 0 0 0 0 0 0 0 0 0 0 0 0 0 0 
0 0 0 0 0 0 0 0 0 0 0 0 0 0 0 0 0 0 0 0 0 0 0 0 0 0 0 0 0 0 0 0 
0 0 0 0 0 0 0 0 0 0 0 0 0 0 0 0 0 0 0 0 0 0 0 0 0 0 0 0 0 0 0 0 
0 0 0 0 0 0 0 0 0 0 0 0 -1.280696e-02 4.102545e+00 1.567632e+01 1.258544e+01 -9.810713e-13 -1.258544e+01 -1.567632e+01 -4.102545e+00 1.280696e-02 0 0 0 0 0 0 0 0 0 0 0 
0 0 0 0 0 0 0 0 0 0 5.004497e-01 1.632988e+01 1.268902e+02 1.918515e+02 1.892246e+02 1.185411e+02 1.243801e-13 -1.185411e+02 -1.892246e+02 -1.918515e+02 -1.268902e+02 -1.632988e+01 -5.004497e-01 0 0 0 0 0 0 0 0 0 
0 0 0 0 0 0 0 0 0 5.470628e+00 9.438041e+01 2.685488e+02 4.916909e+02 4.669231e+02 2.831047e+02 1.403453e+02 2.455091e-12 -1.403453e+02 -2.831047e+02 -4.669231e+02 -4.916909e+02 -2.685488e+02 -9.438041e+01 -5.470628e+00 0 0 0 0 0 0 0 0 
0 0 0 0 0 0 0 0 4.978639e+00 1.195925e+02 4.883217e+02 6.778806e+02 5.209189e+02 2.964455e+02 1.110599e+02 3.438965e+01 1.348212e-12 -3.438965e+01 -1.110599e+02 -2.964455e+02 -5.209189e+02 -6.778806e+02 -4.883217e+02 -1.195925e+02 -4.978639e+00 0 0 0 0 0 0 0 
0 0 0 0 0 0 0 1.662143e-02 6.997432e+01 4.548902e+02 8.081899e+02 5.725186e+02 1.650289e+02 1.727128e+01 1.503502e+00 0 0 0 -1.503502e+00 -1.727128e+01 -1.650289e+02 -5.725186e+02 -8.081899e+02 -4.548902e+02 -6.997432e+01 -1.662143e-02 0 0 0 0 0 0 
0 0 0 0 0 0 0 2.002329e+01 3.291526e+02 7.838535e+02 6.242046e+02 1.583783e+02 8.897900e+00 0 0 0 0 0 0 0 -8.897900e+00 -1.583783e+02 -6.242046e+02 -7.838535e+02 -3.291526e+02 -2.002329e+01 0 0 0 0 0 0 
0 0 0 0 0 0 0 1.151310e+02 7.098689e+02 8.682488e+02 2.850955e+02 1.158455e+01 0 0 0 0 0 0 0 0 0 -1.158455e+01 -2.850955e+02 -8.682488e+02 -7.098689e+02 -1.151310e+02 0 0 0 0 0 0 
0 0 0 0 0 0 1.202050e+00 2.732012e+02 8.614953e+02 6.744627e+02 8.502964e+01 6.306916e-02 0 0 0 0 0 0 0 0 0 -6.306916e-02 -8.502964e+01 -6.744627e+02 -8.614953e+02 -2.732012e+02 -1.202050e+00 0 0 0 0 0 
0 0 0 0 0 0 8.679459e+00 4.871972e+02 9.202507e+02 4.524028e+02 1.066990e+01 0 0 0 0 0 0 0 0 0 0 0 -1.066990e+01 -4.524028e+02 -9.202507e+02 -4.871972e+02 -8.679459e+00 0 0 0 0 0 
0 0 0 0 0 0 2.333289e+01 6.134864e+02 9.344286e+02 3.445545e+02 2.793788e-01 0 0 0 0 0 0 0 0 0 0 0 -2.793788e-01 -3.445545e+02 -9.344286e+02 -6.134864e+02 -2.333289e+01 0 0 0 0 0 
0 0 0 0 0 0 3.171095e+01 6.087321e+02 8.599224e+02 2.829013e+02 0 0 0 0 0 0 0 0 0 0 0 0 0 -2.829013e+02 -8.599224e+02 -6.087321e+02 -3.171095e+01 0 0 0 0 0 
0 0 0 0 0 0 2.333289e+01 6.134864e+02 9.344286e+02 3.445545e+02 2.793788e-01 0 0 0 0 0 0 0 0 0 0 0 -2.793788e-01 -3.445545e+02 -9.344286e+02 -6.134864e+02 -2.333289e+01 0 0 0 0 0 
0 0 0 0 0 0 8.679459e+00 4.871972e+02 9.202507e+02 4.524028e+02 1.066990e+01 0 0 0 0 0 0 0 0 0 0 0 -1.066990e+01 -4.524028e+02 -9.202507e+02 -4.871972e+02 -8.679459e+00 0 0 0 0 0 
0 0 0 0 0 0 1.202050e+00 2.732012e+02 8.614953e+02 6.744627e+02 8.502964e+01 6.306916e-02 0 0 0 0 0 0 0 0 0 -6.306916e-02 -8.502964e+01 -6.744627e+02 -8.614953e+02 -2.732012e+02 -1.202050e+00 0 0 0 0 0 
0 0 0 0 0 0 0 1.151310e+02 7.098689e+02 8.682488e+02 2.850955e+02 1.158455e+01 0 0 0 0 0 0 0 0 0 -1.158455e+01 -2.850955e+02 -8.682488e+02 -7.098689e+02 -1.151310e+02 0 0 0 0 0 0 
0 0 0 0 0 0 0 2.002329e+01 3.291526e+02 7.838535e+02 6.242046e+02 1.583783e+02 8.897900e+00 0 0 0 0 0 0 0 -8.897900e+00 -1.583783e+02 -6.242046e+02 -7.838535e+02 -3.291526e+02 -2.002329e+01 0 0 0 0 0 0 
0 0 0 0 0 0 0 1.662143e-02 6.997432e+01 4.548902e+02 8.081899e+02 5.725186e+02 1.650289e+02 1.727128e+01 1.503502e+00 0 0 0 -1.503502e+00 -1.727128e+01 -1.650289e+02 -5.725186e+02 -8.081899e+02 -4.548902e+02 -6.997432e+01 -1.662143e-02 0 0 0 0 0 0 
0 0 0 0 0 0 0 0 4.978639e+00 1.195925e+02 4.883217e+02 6.778806e+02 5.209189e+02 2.964455e+02 1.110599e+02 3.438965e+01 5.568318e-12 -3.438965e+01 -1.110599e+02 -2.964455e+02 -5.209189e+02 -6.778806e+02 -4.883217e+02 -1.195925e+02 -4.978639e+00 0 0 0 0 0 0 0 
0 0 0 0 0 0 0 0 0 5.470628e+00 9.438041e+01 2.685488e+02 4.916909e+02 4.669231e+02 2.831047e+02 1.403453e+02 2.531837e-11 -1.403453e+02 -2.831047e+02 -4.669231e+02 -4.916909e+02 -2.685488e+02 -9.438041e+01 -5.470628e+00 0 0 0 0 0 0 0 0 
0 0 0 0 0 0 0 0 0 0 5.004497e-01 1.632988e+01 1.268902e+02 1.918515e+02 1.892246e+02 1.185411e+02 2.191023e-11 -1.185411e+02 -1.892246e+02 -1.918515e+02 -1.268902e+02 -1.632988e+01 -5.004497e-01 0 0 0 0 0 0 0 0 0 
0 0 0 0 0 0 0 0 0 0 0 0 -1.280696e-02 4.102545e+00 1.567632e+01 1.258544e+01 2.154975e-12 -1.258544e+01 -1.567632e+01 -4.102545e+00 1.280696e-02 0 0 0 0 0 0 0 0 0 0 0 
0 0 0 0 0 0 0 0 0 0 0 0 0 0 0 0 0 0 0 0 0 0 0 0 0 0 0 0 0 0 0 0 
0 0 0 0 0 0 0 0 0 0 0 0 0 0 0 0 0 0 0 0 0 0 0 0 0 0 0 0 0 0 0 0 
0 0 0 0 0 0 0 0 0 0 0 0 0 0 0 0 0 0 0 0 0 0 0 0 0 0 0 0 0 0 0 0 
0 0 0 0 0 0 0 0 0 0 0 0 0 0 0 0 0 0 0 0 0 0 0 0 0 0 0 0 0 0 0 0 
0 0 0 0 0 0 0 0 0 0 0 0 0 0 0 0 0 0 0 0 0 0 0 0 0 0 0 0 0 0 0 0 
