# vtk DataFile Version 2.0
Comment goes here
ASCII

DATASET STRUCTURED_POINTS
FIELD FieldData 1
TIME 1 1 double
1.12000000
DIMENSIONS    32   32   1

ORIGIN    0.000   0.000   0.000
SPACING   0.03125 0.03125   1.000

POINT_DATA   1024
SCALARS fX double
LOOKUP_TABLE default

0 0 0 0 0 0 0 0 0 0 0 0 0 0 0 0 0 0 0 0 0 0 0 0 0 0 0 0 0 0 0 0 
0 0 0 0 0 0 0 0 0 0 0 0 0 0 0 0 0 0 0 0 0 0 0 0 0 0 0 0 0 0 0 0 
0 0 0 0 0 0 0 0 0 0 0 0 0 0 0 0 0 0 0 0 0 0 0 0 0 0 0 0 0 0 0 0 
0 0 0 0 0 0 0 0 0 0 0 0 0 0 0 0 0 0 0 0 0 0 0 0 0 0 0 0 0 0 0 0 
0 0 0 0 0 0 0 0 0 0 0 0 0 0 0 0 0 0 0 0 0 0 0 0 0 0 0 0 0 0 0 0 
0 0 0 0 0 0 0 0 0 0 0 0 0 0 0 0 0 0 0 0 0 0 0 0 0 0 0 0 0 0 0 0 
0 0 0 0 0 0 0 0 0 0 0 0 0 0 0 0 0 0 0 0 0 0 0 0 0 0 0 0 0 0 0 0 
0 0 0 0 0 0 0 0 0 0 0 6.392434e-02 -9.320072e+00 5.317254e+01 7.699539e+01 3.924102e+01 1.898081e-11 -3.924102e+01 -7.699539e+01 -5.317254e+01 9.320072e+00 -6.392434e-02 0 0 0 0 0 0 0 0 0 0 
0 0 0 0 0 0 0 0 0 0 1.227703e+00 3.654151e+01 1.205923e+02 3.160880e+02 3.378317e+02 1.556693e+02 4.529718e-11 -1.556693e+02 -3.378317e+02 -3.160880e+02 -1.205923e+02 -3.654151e+01 -1.227703e+00 0 0 0 0 0 0 0 0 0 
0 0 0 0 0 0 0 0 0 6.964423e-01 9.900306e+01 3.652465e+02 5.024205e+02 4.288017e+02 3.038989e+02 1.339903e+02 2.601159e-11 -1.339903e+02 -3.038989e+02 -4.288017e+02 -5.024205e+02 -3.652465e+02 -9.900306e+01 -6.964423e-01 0 0 0 0 0 0 0 0 
0 0 0 0 0 0 0 0 5.384321e-02 3.829764e+01 3.274578e+02 7.072771e+02 5.702677e+02 1.772726e+02 4.306259e+01 1.756202e+01 -3.282045e-13 -1.756202e+01 -4.306259e+01 -1.772726e+02 -5.702677e+02 -7.072771e+02 -3.274578e+02 -3.829764e+01 -5.384321e-02 0 0 0 0 0 0 0 
0 0 0 0 0 0 0 0 2.790211e+00 2.341060e+02 6.285633e+02 5.963568e+02 2.104957e+02 1.138639e+01 0 0 0 0 0 -1.138639e+01 -2.104957e+02 -5.963568e+02 -6.285633e+02 -2.341060e+02 -2.790211e+00 0 0 0 0 0 0 0 
0 0 0 0 0 0 0 0 7.113559e+01 5.370261e+02 7.478568e+02 2.947025e+02 1.273615e+01 0 0 0 0 0 0 0 -1.273615e+01 -2.947025e+02 -7.478568e+02 -5.370261e+02 -7.113559e+01 0 0 0 0 0 0 0 
0 0 0 0 0 0 0 9.125448e-02 1.931750e+02 7.285504e+02 6.349576e+02 9.949102e+01 0 0 0 0 0 0 0 0 0 -9.949102e+01 -6.349576e+02 -7.285504e+02 -1.931750e+02 -9.125448e-02 0 0 0 0 0 0 
0 0 0 0 0 0 0 1.598061e+00 3.475748e+02 7.947931e+02 4.717839e+02 2.296757e+01 0 0 0 0 0 0 0 0 0 -2.296757e+01 -4.717839e+02 -7.947931e+02 -3.475748e+02 -1.598061e+00 0 0 0 0 0 0 
0 0 0 0 0 0 0 6.524147e+00 4.582383e+02 7.888028e+02 3.374191e+02 3.303977e-01 0 0 0 0 0 0 0 0 0 -3.303977e-01 -3.374191e+02 -7.888028e+02 -4.582383e+02 -6.524147e+00 0 0 0 0 0 0 
0 0 0 0 0 0 0 1.003468e+01 4.708785e+02 7.640775e+02 3.032337e+02 0 0 0 0 0 0 0 0 0 0 0 -3.032337e+02 -7.640775e+02 -4.708785e+02 -1.003468e+01 0 0 0 0 0 0 
0 0 0 0 0 0 0 6.524147e+00 4.582383e+02 7.888028e+02 3.374191e+02 3.303977e-01 0 0 0 0 0 0 0 0 0 -3.303977e-01 -3.374191e+02 -7.888028e+02 -4.582383e+02 -6.524147e+00 0 0 0 0 0 0 
0 0 0 0 0 0 0 1.598061e+00 3.475748e+02 7.947931e+02 4.717839e+02 2.296757e+01 0 0 0 0 0 0 0 0 0 -2.296757e+01 -4.717839e+02 -7.947931e+02 -3.475748e+02 -1.598061e+00 0 0 0 0 0 0 
0 0 0 0 0 0 0 9.125448e-02 1.931750e+02 7.285504e+02 6.349576e+02 9.949102e+01 0 0 0 0 0 0 0 0 0 -9.949102e+01 -6.349576e+02 -7.285504e+02 -1.931750e+02 -9.125448e-02 0 0 0 0 0 0 
0 0 0 0 0 0 0 0 7.113559e+01 5.370261e+02 7.478568e+02 2.947025e+02 1.273615e+01 0 0 0 0 0 0 0 -1.273615e+01 -2.947025e+02 -7.478568e+02 -5.370261e+02 -7.113559e+01 0 0 0 0 0 0 0 
0 0 0 0 0 0 0 0 2.790211e+00 2.341060e+02 6.285633e+02 5.963568e+02 2.104957e+02 1.138639e+01 0 0 0 0 0 -1.138639e+01 -2.104957e+02 -5.963568e+02 -6.285633e+02 -2.341060e+02 -2.790211e+00 0 0 0 0 0 0 0 
0 0 0 0 0 0 0 0 5.384321e-02 3.829764e+01 3.274578e+02 7.072771e+02 5.702677e+02 1.772726e+02 4.306259e+01 1.756202e+01 -2.351722e-12 -1.756202e+01 -4.306259e+01 -1.772726e+02 -5.702677e+02 -7.072771e+02 -3.274578e+02 -3.829764e+01 -5.384321e-02 0 0 0 0 0 0 0 
0 0 0 0 0 0 0 0 0 6.964423e-01 9.900306e+01 3.652465e+02 5.024205e+02 4.288017e+02 3.038989e+02 1.339903e+02 -8.195911e-11 -1.339903e+02 -3.038989e+02 -4.288017e+02 -5.024205e+02 -3.652465e+02 -9.900306e+01 -6.964423e-01 0 0 0 0 0 0 0 0 
0 0 0 0 0 0 0 0 0 0 1.227703e+00 3.654151e+01 1.205923e+02 3.160880e+02 3.378317e+02 1.556693e+02 -1.421242e-10 -1.556693e+02 -3.378317e+02 -3.160880e+02 -1.205923e+02 -3.654151e+01 -1.227703e+00 0 0 0 0 0 0 0 0 0 
0 0 0 0 0 0 0 0 0 0 0 6.392434e-02 -9.320072e+00 5.317254e+01 7.699539e+01 3.924102e+01 -6.251671e-11 -3.924102e+01 -7.699539e+01 -5.317254e+01 9.320072e+00 -6.392434e-02 0 0 0 0 0 0 0 0 0 0 
0 0 0 0 0 0 0 0 0 0 0 0 0 0 0 0 0 0 0 0 0 0 0 0 0 0 0 0 0 0 0 0 
0 0 0 0 0 0 0 0 0 0 0 0 0 0 0 0 0 0 0 0 0 0 0 0 0 0 0 0 0 0 0 0 
0 0 0 0 0 0 0 0 0 0 0 0 0 0 0 0 0 0 0 0 0 0 0 0 0 0 0 0 0 0 0 0 
0 0 0 0 0 0 0 0 0 0 0 0 0 0 0 0 0 0 0 0 0 0 0 0 0 0 0 0 0 0 0 0 
0 0 0 0 0 0 0 0 0 0 0 0 0 0 0 0 0 0 0 0 0 0 0 0 0 0 0 0 0 0 0 0 
0 0 0 0 0 0 0 0 0 0 0 0 0 0 0 0 0 0 0 0 0 0 0 0 0 0 0 0 0 0 0 0 
