# vtk DataFile Version 2.0
Comment goes here
ASCII

DATASET STRUCTURED_POINTS
FIELD FieldData 1
TIME 1 1 double
0.30000000
DIMENSIONS    32   32   1

ORIGIN    0.000   0.000   0.000
SPACING   0.03125 0.03125   1.000

POINT_DATA   1024
SCALARS fX double
LOOKUP_TABLE default

0 0 0 0 0 0 0 0 0 0 0 0 0 0 0 0 0 0 0 0 0 0 0 0 0 0 0 0 0 0 0 0 
0 0 0 0 0 0 0 0 0 0 0 0 0 0 0 0 0 0 0 0 0 0 0 0 0 0 0 0 0 0 0 0 
0 0 0 0 0 0 0 0 0 0 0 0 0 0 0 0 0 0 0 0 0 0 0 0 0 0 0 0 0 0 0 0 
0 0 0 0 0 0 0 0 0 0 0 0 0 0 0 0 0 0 0 0 0 0 0 0 0 0 0 0 0 0 0 0 
0 0 0 0 0 0 0 0 0 0 0 0 0 0 0 0 0 0 0 0 0 0 0 0 0 0 0 0 0 0 0 0 
0 0 0 0 0 0 0 0 0 0 0 9.423776e-02 7.272856e+00 3.922465e+01 6.857528e+01 5.365465e+01 -4.160370e-12 -5.365465e+01 -6.857528e+01 -3.922465e+01 -7.272856e+00 -9.423776e-02 0 0 0 0 0 0 0 0 0 0 
0 0 0 0 0 0 0 0 0 0 2.742528e+00 7.646480e+01 2.798560e+02 4.391263e+02 3.707192e+02 1.871913e+02 -1.048320e-11 -1.871913e+02 -3.707192e+02 -4.391263e+02 -2.798560e+02 -7.646480e+01 -2.742528e+00 0 0 0 0 0 0 0 0 0 
0 0 0 0 0 0 0 0 0 6.300061e+00 1.316616e+02 5.334704e+02 8.235437e+02 6.837800e+02 3.815220e+02 1.469823e+02 -6.410856e-12 -1.469823e+02 -3.815220e+02 -6.837800e+02 -8.235437e+02 -5.334704e+02 -1.316616e+02 -6.300061e+00 0 0 0 0 0 0 0 0 
0 0 0 0 0 0 0 0 6.127564e-02 8.987333e+01 5.234877e+02 9.408951e+02 7.399013e+02 3.000805e+02 7.937804e+01 1.344562e+01 -9.032810e-14 -1.344562e+01 -7.937804e+01 -3.000805e+02 -7.399013e+02 -9.408951e+02 -5.234877e+02 -8.987333e+01 -6.127564e-02 0 0 0 0 0 0 0 
0 0 0 0 0 0 0 0 3.025465e+01 3.764582e+02 8.457351e+02 6.834017e+02 2.000724e+02 1.620220e+01 0 0 0 0 0 -1.620220e+01 -2.000724e+02 -6.834017e+02 -8.457351e+02 -3.764582e+02 -3.025465e+01 0 0 0 0 0 0 0 
0 0 0 0 0 0 0 8.588508e-01 1.465873e+02 6.783946e+02 7.625274e+02 2.409974e+02 1.113621e+01 0 0 0 0 0 0 0 -1.113621e+01 -2.409974e+02 -7.625274e+02 -6.783946e+02 -1.465873e+02 -8.588508e-01 0 0 0 0 0 0 
0 0 0 0 0 0 0 1.773801e+01 3.707346e+02 7.713736e+02 4.615411e+02 4.316866e+01 4.596766e-03 0 0 0 0 0 0 0 -4.596766e-03 -4.316866e+01 -4.615411e+02 -7.713736e+02 -3.707346e+02 -1.773801e+01 0 0 0 0 0 0 
0 0 0 0 0 0 0 8.041465e+01 6.583174e+02 8.125369e+02 2.364119e+02 1.777719e+00 0 0 0 0 0 0 0 0 0 -1.777719e+00 -2.364119e+02 -8.125369e+02 -6.583174e+02 -8.041465e+01 0 0 0 0 0 0 
0 0 0 0 0 0 0 1.506946e+02 7.285760e+02 6.911754e+02 1.132941e+02 0 0 0 0 0 0 0 0 0 0 0 -1.132941e+02 -6.911754e+02 -7.285760e+02 -1.506946e+02 0 0 0 0 0 0 
0 0 0 0 0 0 0 2.205393e+02 6.933606e+02 5.089494e+02 3.612812e+01 0 0 0 0 0 0 0 0 0 0 0 -3.612812e+01 -5.089494e+02 -6.933606e+02 -2.205393e+02 0 0 0 0 0 0 
0 0 0 0 0 0 0 2.781229e+02 7.187940e+02 4.527510e+02 1.207986e+01 0 0 0 0 0 0 0 0 0 0 0 -1.207986e+01 -4.527510e+02 -7.187940e+02 -2.781229e+02 0 0 0 0 0 0 
0 0 0 0 0 0 0 2.894855e+02 7.000655e+02 4.166080e+02 6.027995e+00 0 0 0 0 0 0 0 0 0 0 0 -6.027995e+00 -4.166080e+02 -7.000655e+02 -2.894855e+02 0 0 0 0 0 0 
0 0 0 0 0 0 0 2.781229e+02 7.187940e+02 4.527510e+02 1.207986e+01 0 0 0 0 0 0 0 0 0 0 0 -1.207986e+01 -4.527510e+02 -7.187940e+02 -2.781229e+02 0 0 0 0 0 0 
0 0 0 0 0 0 0 2.205393e+02 6.933606e+02 5.089494e+02 3.612812e+01 0 0 0 0 0 0 0 0 0 0 0 -3.612812e+01 -5.089494e+02 -6.933606e+02 -2.205393e+02 0 0 0 0 0 0 
0 0 0 0 0 0 0 1.506946e+02 7.285760e+02 6.911754e+02 1.132941e+02 0 0 0 0 0 0 0 0 0 0 0 -1.132941e+02 -6.911754e+02 -7.285760e+02 -1.506946e+02 0 0 0 0 0 0 
0 0 0 0 0 0 0 8.041465e+01 6.583174e+02 8.125369e+02 2.364119e+02 1.777719e+00 0 0 0 0 0 0 0 0 0 -1.777719e+00 -2.364119e+02 -8.125369e+02 -6.583174e+02 -8.041465e+01 0 0 0 0 0 0 
0 0 0 0 0 0 0 1.773801e+01 3.707346e+02 7.713736e+02 4.615411e+02 4.316866e+01 4.596766e-03 0 0 0 0 0 0 0 -4.596766e-03 -4.316866e+01 -4.615411e+02 -7.713736e+02 -3.707346e+02 -1.773801e+01 0 0 0 0 0 0 
0 0 0 0 0 0 0 8.588508e-01 1.465873e+02 6.783946e+02 7.625274e+02 2.409974e+02 1.113621e+01 0 0 0 0 0 0 0 -1.113621e+01 -2.409974e+02 -7.625274e+02 -6.783946e+02 -1.465873e+02 -8.588508e-01 0 0 0 0 0 0 
0 0 0 0 0 0 0 0 3.025465e+01 3.764582e+02 8.457351e+02 6.834017e+02 2.000724e+02 1.620220e+01 0 0 0 0 0 -1.620220e+01 -2.000724e+02 -6.834017e+02 -8.457351e+02 -3.764582e+02 -3.025465e+01 0 0 0 0 0 0 0 
0 0 0 0 0 0 0 0 6.127564e-02 8.987333e+01 5.234877e+02 9.408951e+02 7.399013e+02 3.000805e+02 7.937804e+01 1.344562e+01 -6.028127e-12 -1.344562e+01 -7.937804e+01 -3.000805e+02 -7.399013e+02 -9.408951e+02 -5.234877e+02 -8.987333e+01 -6.127564e-02 0 0 0 0 0 0 0 
0 0 0 0 0 0 0 0 0 6.300061e+00 1.316616e+02 5.334704e+02 8.235437e+02 6.837800e+02 3.815220e+02 1.469823e+02 -4.388035e-11 -1.469823e+02 -3.815220e+02 -6.837800e+02 -8.235437e+02 -5.334704e+02 -1.316616e+02 -6.300061e+00 0 0 0 0 0 0 0 0 
0 0 0 0 0 0 0 0 0 0 2.742528e+00 7.646480e+01 2.798560e+02 4.391263e+02 3.707192e+02 1.871913e+02 -2.890873e-11 -1.871913e+02 -3.707192e+02 -4.391263e+02 -2.798560e+02 -7.646480e+01 -2.742528e+00 0 0 0 0 0 0 0 0 0 
0 0 0 0 0 0 0 0 0 0 0 9.423776e-02 7.272856e+00 3.922465e+01 6.857528e+01 5.365465e+01 8.946003e-12 -5.365465e+01 -6.857528e+01 -3.922465e+01 -7.272856e+00 -9.423776e-02 0 0 0 0 0 0 0 0 0 0 
0 0 0 0 0 0 0 0 0 0 0 0 0 0 0 0 0 0 0 0 0 0 0 0 0 0 0 0 0 0 0 0 
0 0 0 0 0 0 0 0 0 0 0 0 0 0 0 0 0 0 0 0 0 0 0 0 0 0 0 0 0 0 0 0 
0 0 0 0 0 0 0 0 0 0 0 0 0 0 0 0 0 0 0 0 0 0 0 0 0 0 0 0 0 0 0 0 
0 0 0 0 0 0 0 0 0 0 0 0 0 0 0 0 0 0 0 0 0 0 0 0 0 0 0 0 0 0 0 0 
