# vtk DataFile Version 2.0
Comment goes here
ASCII

DATASET STRUCTURED_POINTS
FIELD FieldData 1
TIME 1 1 double
0.44000000
DIMENSIONS    32   32   1

ORIGIN    0.000   0.000   0.000
SPACING   0.03125 0.03125   1.000

POINT_DATA   1024
SCALARS fX double
LOOKUP_TABLE default

0 0 0 0 0 0 0 0 0 0 0 0 0 0 0 0 0 0 0 0 0 0 0 0 0 0 0 0 0 0 0 0 
0 0 0 0 0 0 0 0 0 0 0 0 0 0 0 0 0 0 0 0 0 0 0 0 0 0 0 0 0 0 0 0 
0 0 0 0 0 0 0 0 0 0 0 0 0 0 0 0 0 0 0 0 0 0 0 0 0 0 0 0 0 0 0 0 
0 0 0 0 0 0 0 0 0 0 0 0 0 0 0 0 0 0 0 0 0 0 0 0 0 0 0 0 0 0 0 0 
0 0 0 0 0 0 0 0 0 0 0 0 0 0 0 0 0 0 0 0 0 0 0 0 0 0 0 0 0 0 0 0 
0 0 0 0 0 0 0 0 0 0 0 0 0 0 0 0 0 0 0 0 0 0 0 0 0 0 0 0 0 0 0 0 
0 0 0 0 0 0 0 0 0 0 0 0 0 1.402101e-01 1.478809e+00 2.871240e+00 -4.828939e-13 -2.871240e+00 -1.478809e+00 -1.402101e-01 0 0 0 0 0 0 0 0 0 0 0 0 
0 0 0 0 0 0 0 0 0 5.424182e-04 1.362016e+00 2.084196e+01 6.227560e+01 1.065877e+02 1.076272e+02 7.575725e+01 3.064954e-12 -7.575725e+01 -1.076272e+02 -1.065877e+02 -6.227560e+01 -2.084196e+01 -1.362016e+00 -5.424182e-04 0 0 0 0 0 0 0 0 
0 0 0 0 0 0 0 0 3.017671e-01 2.275124e+01 1.394895e+02 3.053652e+02 3.437124e+02 2.976459e+02 2.131454e+02 1.165244e+02 7.357228e-12 -1.165244e+02 -2.131454e+02 -2.976459e+02 -3.437124e+02 -3.053652e+02 -1.394895e+02 -2.275124e+01 -3.017671e-01 0 0 0 0 0 0 0 
0 0 0 0 0 0 0 1.863365e-01 5.655203e+01 3.003010e+02 5.952276e+02 6.041971e+02 3.813621e+02 2.082967e+02 1.082613e+02 4.366943e+01 3.811305e-12 -4.366943e+01 -1.082613e+02 -2.082967e+02 -3.813621e+02 -6.041971e+02 -5.952276e+02 -3.003010e+02 -5.655203e+01 -1.863365e-01 0 0 0 0 0 0 
0 0 0 0 0 0 3.677807e-02 3.153427e+01 3.534640e+02 7.790190e+02 7.346251e+02 3.628158e+02 1.011081e+02 1.709831e+01 1.264295e+00 3.103994e-02 0 -3.103994e-02 -1.264295e+00 -1.709831e+01 -1.011081e+02 -3.628158e+02 -7.346251e+02 -7.790190e+02 -3.534640e+02 -3.153427e+01 -3.677807e-02 0 0 0 0 0 
0 0 0 0 0 0 8.411015e+00 2.464220e+02 7.806416e+02 8.224166e+02 3.217450e+02 4.314187e+01 1.182893e+00 0 0 0 0 0 0 0 -1.182893e+00 -4.314187e+01 -3.217450e+02 -8.224166e+02 -7.806416e+02 -2.464220e+02 -8.411015e+00 0 0 0 0 0 
0 0 0 0 0 0 9.098097e+01 6.983366e+02 1.004744e+03 4.420060e+02 4.461761e+01 0 0 0 0 0 0 0 0 0 0 0 -4.461761e+01 -4.420060e+02 -1.004744e+03 -6.983366e+02 -9.098097e+01 0 0 0 0 0 
0 0 0 0 0 0 2.909773e+02 1.074180e+03 9.323497e+02 1.495446e+02 3.976822e-01 0 0 0 0 0 0 0 0 0 0 0 -3.976822e-01 -1.495446e+02 -9.323497e+02 -1.074180e+03 -2.909773e+02 0 0 0 0 0 
0 0 0 0 0 1.562999e+00 4.989415e+02 1.156483e+03 6.892678e+02 3.016306e+01 0 0 0 0 0 0 0 0 0 0 0 0 0 -3.016306e+01 -6.892678e+02 -1.156483e+03 -4.989415e+02 -1.562999e+00 0 0 0 0 
0 0 0 0 0 9.067155e+00 6.013483e+02 1.061986e+03 4.713818e+02 1.676585e+00 0 0 0 0 0 0 0 0 0 0 0 0 0 -1.676585e+00 -4.713818e+02 -1.061986e+03 -6.013483e+02 -9.067155e+00 0 0 0 0 
0 0 0 0 0 1.500831e+01 6.215547e+02 9.928412e+02 3.862948e+02 4.055496e-07 0 0 0 0 0 0 0 0 0 0 0 0 0 -4.055496e-07 -3.862948e+02 -9.928412e+02 -6.215547e+02 -1.500831e+01 0 0 0 0 
0 0 0 0 0 9.067155e+00 6.013483e+02 1.061986e+03 4.713818e+02 1.676585e+00 0 0 0 0 0 0 0 0 0 0 0 0 0 -1.676585e+00 -4.713818e+02 -1.061986e+03 -6.013483e+02 -9.067155e+00 0 0 0 0 
0 0 0 0 0 1.562999e+00 4.989415e+02 1.156483e+03 6.892678e+02 3.016306e+01 0 0 0 0 0 0 0 0 0 0 0 0 0 -3.016306e+01 -6.892678e+02 -1.156483e+03 -4.989415e+02 -1.562999e+00 0 0 0 0 
0 0 0 0 0 0 2.909773e+02 1.074180e+03 9.323497e+02 1.495446e+02 3.976822e-01 0 0 0 0 0 0 0 0 0 0 0 -3.976822e-01 -1.495446e+02 -9.323497e+02 -1.074180e+03 -2.909773e+02 0 0 0 0 0 
0 0 0 0 0 0 9.098097e+01 6.983366e+02 1.004744e+03 4.420060e+02 4.461761e+01 0 0 0 0 0 0 0 0 0 0 0 -4.461761e+01 -4.420060e+02 -1.004744e+03 -6.983366e+02 -9.098097e+01 0 0 0 0 0 
0 0 0 0 0 0 8.411015e+00 2.464220e+02 7.806416e+02 8.224166e+02 3.217450e+02 4.314187e+01 1.182893e+00 0 0 0 0 0 0 0 -1.182893e+00 -4.314187e+01 -3.217450e+02 -8.224166e+02 -7.806416e+02 -2.464220e+02 -8.411015e+00 0 0 0 0 0 
0 0 0 0 0 0 3.677807e-02 3.153427e+01 3.534640e+02 7.790190e+02 7.346251e+02 3.628158e+02 1.011081e+02 1.709831e+01 1.264295e+00 3.103994e-02 0 -3.103994e-02 -1.264295e+00 -1.709831e+01 -1.011081e+02 -3.628158e+02 -7.346251e+02 -7.790190e+02 -3.534640e+02 -3.153427e+01 -3.677807e-02 0 0 0 0 0 
0 0 0 0 0 0 0 1.863365e-01 5.655203e+01 3.003010e+02 5.952276e+02 6.041971e+02 3.813621e+02 2.082967e+02 1.082613e+02 4.366943e+01 -9.689005e-12 -4.366943e+01 -1.082613e+02 -2.082967e+02 -3.813621e+02 -6.041971e+02 -5.952276e+02 -3.003010e+02 -5.655203e+01 -1.863365e-01 0 0 0 0 0 0 
0 0 0 0 0 0 0 0 3.017671e-01 2.275124e+01 1.394895e+02 3.053652e+02 3.437124e+02 2.976459e+02 2.131454e+02 1.165244e+02 -1.906000e-11 -1.165244e+02 -2.131454e+02 -2.976459e+02 -3.437124e+02 -3.053652e+02 -1.394895e+02 -2.275124e+01 -3.017671e-01 0 0 0 0 0 0 0 
0 0 0 0 0 0 0 0 0 5.424182e-04 1.362016e+00 2.084196e+01 6.227560e+01 1.065877e+02 1.076272e+02 7.575725e+01 -8.220093e-12 -7.575725e+01 -1.076272e+02 -1.065877e+02 -6.227560e+01 -2.084196e+01 -1.362016e+00 -5.424182e-04 0 0 0 0 0 0 0 0 
0 0 0 0 0 0 0 0 0 0 0 0 0 1.402101e-01 1.478809e+00 2.871240e+00 1.150053e-12 -2.871240e+00 -1.478809e+00 -1.402101e-01 0 0 0 0 0 0 0 0 0 0 0 0 
0 0 0 0 0 0 0 0 0 0 0 0 0 0 0 0 0 0 0 0 0 0 0 0 0 0 0 0 0 0 0 0 
0 0 0 0 0 0 0 0 0 0 0 0 0 0 0 0 0 0 0 0 0 0 0 0 0 0 0 0 0 0 0 0 
0 0 0 0 0 0 0 0 0 0 0 0 0 0 0 0 0 0 0 0 0 0 0 0 0 0 0 0 0 0 0 0 
0 0 0 0 0 0 0 0 0 0 0 0 0 0 0 0 0 0 0 0 0 0 0 0 0 0 0 0 0 0 0 0 
0 0 0 0 0 0 0 0 0 0 0 0 0 0 0 0 0 0 0 0 0 0 0 0 0 0 0 0 0 0 0 0 
