# vtk DataFile Version 2.0
Comment goes here
ASCII

DATASET STRUCTURED_POINTS
FIELD FieldData 1
TIME 1 1 double
0.98000000
DIMENSIONS    32   32   1

ORIGIN    0.000   0.000   0.000
SPACING   0.03125 0.03125   1.000

POINT_DATA   1024
SCALARS fX double
LOOKUP_TABLE default

0 0 0 0 0 0 0 0 0 0 0 0 0 0 0 0 0 0 0 0 0 0 0 0 0 0 0 0 0 0 0 0 
0 0 0 0 0 0 0 0 0 0 0 0 0 0 0 0 0 0 0 0 0 0 0 0 0 0 0 0 0 0 0 0 
0 0 0 0 0 0 0 0 0 0 0 0 0 0 0 0 0 0 0 0 0 0 0 0 0 0 0 0 0 0 0 0 
0 0 0 0 0 0 0 0 0 0 0 0 0 0 0 0 0 0 0 0 0 0 0 0 0 0 0 0 0 0 0 0 
0 0 0 0 0 0 0 0 0 0 0 0 0 0 0 0 0 0 0 0 0 0 0 0 0 0 0 0 0 0 0 0 
0 0 0 0 0 0 0 0 0 0 0 0 0 0 0 0 0 0 0 0 0 0 0 0 0 0 0 0 0 0 0 0 
0 0 0 0 0 0 0 0 0 0 0 0 0 0 1.135452e-02 3.354085e-02 4.361754e-13 -3.354085e-02 -1.135452e-02 0 0 0 0 0 0 0 0 0 0 0 0 0 
0 0 0 0 0 0 0 0 0 0 0 1.465099e+00 9.575920e-02 6.415301e+01 1.235915e+02 6.877003e+01 2.518678e-11 -6.877003e+01 -1.235915e+02 -6.415301e+01 -9.575920e-02 -1.465099e+00 0 0 0 0 0 0 0 0 0 0 
0 0 0 0 0 0 0 0 0 0 6.678942e+00 8.840233e+01 2.355447e+02 3.543124e+02 3.611088e+02 1.823547e+02 4.288409e-11 -1.823547e+02 -3.611088e+02 -3.543124e+02 -2.355447e+02 -8.840233e+01 -6.678942e+00 0 0 0 0 0 0 0 0 0 
0 0 0 0 0 0 0 0 0 4.773953e+00 1.538218e+02 4.320124e+02 5.555806e+02 4.195414e+02 2.546685e+02 1.188437e+02 1.814445e-11 -1.188437e+02 -2.546685e+02 -4.195414e+02 -5.555806e+02 -4.320124e+02 -1.538218e+02 -4.773953e+00 0 0 0 0 0 0 0 0 
0 0 0 0 0 0 0 0 5.212020e+00 1.530616e+02 5.250086e+02 6.676721e+02 4.082105e+02 1.296540e+02 1.713994e+01 5.225434e+00 9.258745e-15 -5.225434e+00 -1.713994e+01 -1.296540e+02 -4.082105e+02 -6.676721e+02 -5.250086e+02 -1.530616e+02 -5.212020e+00 0 0 0 0 0 0 0 
0 0 0 0 0 0 0 4.862180e-03 3.028618e+01 4.495735e+02 8.050385e+02 4.750180e+02 8.954361e+01 2.720242e-01 0 0 0 0 0 -2.720242e-01 -8.954361e+01 -4.750180e+02 -8.050385e+02 -4.495735e+02 -3.028618e+01 -4.862180e-03 0 0 0 0 0 0 
0 0 0 0 0 0 0 1.613377e+00 2.233010e+02 6.870179e+02 6.301825e+02 1.663171e+02 1.464845e+00 0 0 0 0 0 0 0 -1.464845e+00 -1.663171e+02 -6.301825e+02 -6.870179e+02 -2.233010e+02 -1.613377e+00 0 0 0 0 0 0 
0 0 0 0 0 0 0 1.685913e+01 4.995139e+02 8.442304e+02 3.753985e+02 1.382296e+01 0 0 0 0 0 0 0 0 0 -1.382296e+01 -3.753985e+02 -8.442304e+02 -4.995139e+02 -1.685913e+01 0 0 0 0 0 0 
0 0 0 0 0 0 0 6.612011e+01 6.369411e+02 8.138380e+02 2.429439e+02 -7.311571e-02 0 0 0 0 0 0 0 0 0 7.311571e-02 -2.429439e+02 -8.138380e+02 -6.369411e+02 -6.612011e+01 0 0 0 0 0 0 
0 0 0 0 0 0 0 1.283828e+02 7.251679e+02 7.210517e+02 1.242667e+02 0 0 0 0 0 0 0 0 0 0 0 -1.242667e+02 -7.210517e+02 -7.251679e+02 -1.283828e+02 0 0 0 0 0 0 
0 0 0 0 0 0 0 1.550266e+02 7.790276e+02 7.314242e+02 1.074232e+02 0 0 0 0 0 0 0 0 0 0 0 -1.074232e+02 -7.314242e+02 -7.790276e+02 -1.550266e+02 0 0 0 0 0 0 
0 0 0 0 0 0 0 1.283828e+02 7.251679e+02 7.210517e+02 1.242667e+02 0 0 0 0 0 0 0 0 0 0 0 -1.242667e+02 -7.210517e+02 -7.251679e+02 -1.283828e+02 0 0 0 0 0 0 
0 0 0 0 0 0 0 6.612011e+01 6.369411e+02 8.138380e+02 2.429439e+02 -7.311571e-02 0 0 0 0 0 0 0 0 0 7.311571e-02 -2.429439e+02 -8.138380e+02 -6.369411e+02 -6.612011e+01 0 0 0 0 0 0 
0 0 0 0 0 0 0 1.685913e+01 4.995139e+02 8.442304e+02 3.753985e+02 1.382296e+01 0 0 0 0 0 0 0 0 0 -1.382296e+01 -3.753985e+02 -8.442304e+02 -4.995139e+02 -1.685913e+01 0 0 0 0 0 0 
0 0 0 0 0 0 0 1.613377e+00 2.233010e+02 6.870179e+02 6.301825e+02 1.663171e+02 1.464845e+00 0 0 0 0 0 0 0 -1.464845e+00 -1.663171e+02 -6.301825e+02 -6.870179e+02 -2.233010e+02 -1.613377e+00 0 0 0 0 0 0 
0 0 0 0 0 0 0 4.862180e-03 3.028618e+01 4.495735e+02 8.050385e+02 4.750180e+02 8.954361e+01 2.720242e-01 0 0 0 0 0 -2.720242e-01 -8.954361e+01 -4.750180e+02 -8.050385e+02 -4.495735e+02 -3.028618e+01 -4.862180e-03 0 0 0 0 0 0 
0 0 0 0 0 0 0 0 5.212020e+00 1.530616e+02 5.250086e+02 6.676721e+02 4.082105e+02 1.296540e+02 1.713994e+01 5.225434e+00 -2.960328e-13 -5.225434e+00 -1.713994e+01 -1.296540e+02 -4.082105e+02 -6.676721e+02 -5.250086e+02 -1.530616e+02 -5.212020e+00 0 0 0 0 0 0 0 
0 0 0 0 0 0 0 0 0 4.773953e+00 1.538218e+02 4.320124e+02 5.555806e+02 4.195414e+02 2.546685e+02 1.188437e+02 -2.325992e-11 -1.188437e+02 -2.546685e+02 -4.195414e+02 -5.555806e+02 -4.320124e+02 -1.538218e+02 -4.773953e+00 0 0 0 0 0 0 0 0 
0 0 0 0 0 0 0 0 0 0 6.678942e+00 8.840233e+01 2.355447e+02 3.543124e+02 3.611088e+02 1.823547e+02 -5.210202e-11 -1.823547e+02 -3.611088e+02 -3.543124e+02 -2.355447e+02 -8.840233e+01 -6.678942e+00 0 0 0 0 0 0 0 0 0 
0 0 0 0 0 0 0 0 0 0 0 1.465099e+00 9.575920e-02 6.415301e+01 1.235915e+02 6.877003e+01 -3.038537e-11 -6.877003e+01 -1.235915e+02 -6.415301e+01 -9.575920e-02 -1.465099e+00 0 0 0 0 0 0 0 0 0 0 
0 0 0 0 0 0 0 0 0 0 0 0 0 0 1.135452e-02 3.354085e-02 -1.245562e-12 -3.354085e-02 -1.135452e-02 0 0 0 0 0 0 0 0 0 0 0 0 0 
0 0 0 0 0 0 0 0 0 0 0 0 0 0 0 0 0 0 0 0 0 0 0 0 0 0 0 0 0 0 0 0 
0 0 0 0 0 0 0 0 0 0 0 0 0 0 0 0 0 0 0 0 0 0 0 0 0 0 0 0 0 0 0 0 
0 0 0 0 0 0 0 0 0 0 0 0 0 0 0 0 0 0 0 0 0 0 0 0 0 0 0 0 0 0 0 0 
0 0 0 0 0 0 0 0 0 0 0 0 0 0 0 0 0 0 0 0 0 0 0 0 0 0 0 0 0 0 0 0 
0 0 0 0 0 0 0 0 0 0 0 0 0 0 0 0 0 0 0 0 0 0 0 0 0 0 0 0 0 0 0 0 
