# vtk DataFile Version 2.0
Comment goes here
ASCII

DATASET STRUCTURED_POINTS
FIELD FieldData 1
TIME 1 1 double
0.54000000
DIMENSIONS    32   32   1

ORIGIN    0.000   0.000   0.000
SPACING   0.03125 0.03125   1.000

POINT_DATA   1024
SCALARS fX double
LOOKUP_TABLE default

0 0 0 0 0 0 0 0 0 0 0 0 0 0 0 0 0 0 0 0 0 0 0 0 0 0 0 0 0 0 0 0 
0 0 0 0 0 0 0 0 0 0 0 0 0 0 0 0 0 0 0 0 0 0 0 0 0 0 0 0 0 0 0 0 
0 0 0 0 0 0 0 0 0 0 0 0 0 0 0 0 0 0 0 0 0 0 0 0 0 0 0 0 0 0 0 0 
0 0 0 0 0 0 0 0 0 0 0 0 0 0 0 0 0 0 0 0 0 0 0 0 0 0 0 0 0 0 0 0 
0 0 0 0 0 0 0 0 0 0 0 0 0 0 0 0 0 0 0 0 0 0 0 0 0 0 0 0 0 0 0 0 
0 0 0 0 0 0 0 0 0 0 0 0 0 0 0 0 0 0 0 0 0 0 0 0 0 0 0 0 0 0 0 0 
0 0 0 0 0 0 0 0 0 0 0 0 0 0 0 0 0 0 0 0 0 0 0 0 0 0 0 0 0 0 0 0 
0 0 0 0 0 0 0 0 0 0 1.952317e-01 7.833731e-01 1.047762e+01 4.492394e+01 4.531322e+01 5.279479e+01 -1.492157e-11 -5.279479e+01 -4.531322e+01 -4.492394e+01 -1.047762e+01 -7.833731e-01 -1.952317e-01 0 0 0 0 0 0 0 0 0 
0 0 0 0 0 0 0 0 0 6.834301e+00 6.447335e+01 2.278197e+02 2.409242e+02 2.273246e+02 1.789412e+02 1.261845e+02 -3.154928e-11 -1.261845e+02 -1.789412e+02 -2.273246e+02 -2.409242e+02 -2.278197e+02 -6.447335e+01 -6.834301e+00 0 0 0 0 0 0 0 0 
0 0 0 0 0 0 0 2.730859e-01 2.662561e+01 1.825502e+02 4.336793e+02 6.126969e+02 4.301209e+02 2.319738e+02 1.497624e+02 7.490763e+01 -1.658638e-11 -7.490763e+01 -1.497624e+02 -2.319738e+02 -4.301209e+02 -6.126969e+02 -4.336793e+02 -1.825502e+02 -2.662561e+01 -2.730859e-01 0 0 0 0 0 0 
0 0 0 0 0 0 0 1.704002e+01 2.769825e+02 6.861691e+02 7.262492e+02 4.710521e+02 2.050810e+02 4.957315e+01 1.613450e+01 1.517932e+00 5.467484e-14 -1.517932e+00 -1.613450e+01 -4.957315e+01 -2.050810e+02 -4.710521e+02 -7.262492e+02 -6.861691e+02 -2.769825e+02 -1.704002e+01 0 0 0 0 0 0 
0 0 0 0 0 0 7.823599e+00 2.074856e+02 6.951862e+02 8.378480e+02 4.236977e+02 8.678055e+01 5.406703e+00 0 0 0 0 0 0 0 -5.406703e+00 -8.678055e+01 -4.236977e+02 -8.378480e+02 -6.951862e+02 -2.074856e+02 -7.823599e+00 0 0 0 0 0 
0 0 0 0 0 0 9.237114e+01 6.659856e+02 9.662422e+02 4.594896e+02 6.825089e+01 1.389045e+00 0 0 0 0 0 0 0 0 0 -1.389045e+00 -6.825089e+01 -4.594896e+02 -9.662422e+02 -6.659856e+02 -9.237114e+01 0 0 0 0 0 
0 0 0 0 0 2.361902e+00 3.361125e+02 1.061210e+03 8.747379e+02 1.486797e+02 1.401224e+00 0 0 0 0 0 0 0 0 0 0 0 -1.401224e+00 -1.486797e+02 -8.747379e+02 -1.061210e+03 -3.361125e+02 -2.361902e+00 0 0 0 0 
0 0 0 0 0 1.703307e+01 6.282376e+02 1.171069e+03 5.769267e+02 1.706188e+01 0 0 0 0 0 0 0 0 0 0 0 0 0 -1.706188e+01 -5.769267e+02 -1.171069e+03 -6.282376e+02 -1.703307e+01 0 0 0 0 
0 0 0 0 0 5.097887e+01 8.064856e+02 1.130440e+03 3.754103e+02 4.769718e-01 0 0 0 0 0 0 0 0 0 0 0 0 0 -4.769718e-01 -3.754103e+02 -1.130440e+03 -8.064856e+02 -5.097887e+01 0 0 0 0 
0 0 0 0 0 7.261540e+01 8.596260e+02 1.090628e+03 3.036169e+02 0 0 0 0 0 0 0 0 0 0 0 0 0 0 0 -3.036169e+02 -1.090628e+03 -8.596260e+02 -7.261540e+01 0 0 0 0 
0 0 0 0 0 5.097887e+01 8.064856e+02 1.130440e+03 3.754103e+02 4.769718e-01 0 0 0 0 0 0 0 0 0 0 0 0 0 -4.769718e-01 -3.754103e+02 -1.130440e+03 -8.064856e+02 -5.097887e+01 0 0 0 0 
0 0 0 0 0 1.703307e+01 6.282376e+02 1.171069e+03 5.769267e+02 1.706188e+01 0 0 0 0 0 0 0 0 0 0 0 0 0 -1.706188e+01 -5.769267e+02 -1.171069e+03 -6.282376e+02 -1.703307e+01 0 0 0 0 
0 0 0 0 0 2.361902e+00 3.361125e+02 1.061210e+03 8.747379e+02 1.486797e+02 1.401224e+00 0 0 0 0 0 0 0 0 0 0 0 -1.401224e+00 -1.486797e+02 -8.747379e+02 -1.061210e+03 -3.361125e+02 -2.361902e+00 0 0 0 0 
0 0 0 0 0 0 9.237114e+01 6.659856e+02 9.662422e+02 4.594896e+02 6.825089e+01 1.389045e+00 0 0 0 0 0 0 0 0 0 -1.389045e+00 -6.825089e+01 -4.594896e+02 -9.662422e+02 -6.659856e+02 -9.237114e+01 0 0 0 0 0 
0 0 0 0 0 0 7.823599e+00 2.074856e+02 6.951862e+02 8.378480e+02 4.236977e+02 8.678055e+01 5.406703e+00 0 0 0 0 0 0 0 -5.406703e+00 -8.678055e+01 -4.236977e+02 -8.378480e+02 -6.951862e+02 -2.074856e+02 -7.823599e+00 0 0 0 0 0 
0 0 0 0 0 0 0 1.704002e+01 2.769825e+02 6.861691e+02 7.262492e+02 4.710521e+02 2.050810e+02 4.957315e+01 1.613450e+01 1.517932e+00 3.081511e-13 -1.517932e+00 -1.613450e+01 -4.957315e+01 -2.050810e+02 -4.710521e+02 -7.262492e+02 -6.861691e+02 -2.769825e+02 -1.704002e+01 0 0 0 0 0 0 
0 0 0 0 0 0 0 2.730859e-01 2.662561e+01 1.825502e+02 4.336793e+02 6.126969e+02 4.301209e+02 2.319738e+02 1.497624e+02 7.490763e+01 1.100708e-11 -7.490763e+01 -1.497624e+02 -2.319738e+02 -4.301209e+02 -6.126969e+02 -4.336793e+02 -1.825502e+02 -2.662561e+01 -2.730859e-01 0 0 0 0 0 0 
0 0 0 0 0 0 0 0 0 6.834301e+00 6.447335e+01 2.278197e+02 2.409242e+02 2.273246e+02 1.789412e+02 1.261845e+02 1.710707e-11 -1.261845e+02 -1.789412e+02 -2.273246e+02 -2.409242e+02 -2.278197e+02 -6.447335e+01 -6.834301e+00 0 0 0 0 0 0 0 0 
0 0 0 0 0 0 0 0 0 0 1.952317e-01 7.833731e-01 1.047762e+01 4.492394e+01 4.531322e+01 5.279479e+01 6.389394e-12 -5.279479e+01 -4.531322e+01 -4.492394e+01 -1.047762e+01 -7.833731e-01 -1.952317e-01 0 0 0 0 0 0 0 0 0 
0 0 0 0 0 0 0 0 0 0 0 0 0 0 0 0 0 0 0 0 0 0 0 0 0 0 0 0 0 0 0 0 
0 0 0 0 0 0 0 0 0 0 0 0 0 0 0 0 0 0 0 0 0 0 0 0 0 0 0 0 0 0 0 0 
0 0 0 0 0 0 0 0 0 0 0 0 0 0 0 0 0 0 0 0 0 0 0 0 0 0 0 0 0 0 0 0 
0 0 0 0 0 0 0 0 0 0 0 0 0 0 0 0 0 0 0 0 0 0 0 0 0 0 0 0 0 0 0 0 
0 0 0 0 0 0 0 0 0 0 0 0 0 0 0 0 0 0 0 0 0 0 0 0 0 0 0 0 0 0 0 0 
0 0 0 0 0 0 0 0 0 0 0 0 0 0 0 0 0 0 0 0 0 0 0 0 0 0 0 0 0 0 0 0 
