# vtk DataFile Version 2.0
Comment goes here
ASCII

DATASET STRUCTURED_POINTS
FIELD FieldData 1
TIME 1 1 double
0.86000000
DIMENSIONS    32   32   1

ORIGIN    0.000   0.000   0.000
SPACING   0.03125 0.03125   1.000

POINT_DATA   1024
SCALARS fX double
LOOKUP_TABLE default

0 0 0 0 0 0 0 0 0 0 0 0 0 0 0 0 0 0 0 0 0 0 0 0 0 0 0 0 0 0 0 0 
0 0 0 0 0 0 0 0 0 0 0 0 0 0 0 0 0 0 0 0 0 0 0 0 0 0 0 0 0 0 0 0 
0 0 0 0 0 0 0 0 0 0 0 0 0 0 0 0 0 0 0 0 0 0 0 0 0 0 0 0 0 0 0 0 
0 0 0 0 0 0 0 0 0 0 0 0 0 0 0 0 0 0 0 0 0 0 0 0 0 0 0 0 0 0 0 0 
0 0 0 0 0 0 0 0 0 0 0 0 0 0 0 0 0 0 0 0 0 0 0 0 0 0 0 0 0 0 0 0 
0 0 0 0 0 0 0 0 0 0 0 0 0 0 0 0 0 0 0 0 0 0 0 0 0 0 0 0 0 0 0 0 
0 0 0 0 0 0 0 0 0 0 0 0 0 0 0 0 0 0 0 0 0 0 0 0 0 0 0 0 0 0 0 0 
0 0 0 0 0 0 0 0 0 0 0 0 2.311384e-01 1.165541e+00 2.330645e+00 5.276103e+00 9.931217e-13 -5.276103e+00 -2.330645e+00 -1.165541e+00 -2.311384e-01 0 0 0 0 0 0 0 0 0 0 0 
0 0 0 0 0 0 0 0 0 0 2.555772e+00 4.623432e+01 6.040434e+01 8.523335e+01 9.474980e+01 6.373940e+01 -1.261173e-11 -6.373940e+01 -9.474980e+01 -8.523335e+01 -6.040434e+01 -4.623432e+01 -2.555772e+00 0 0 0 0 0 0 0 0 0 
0 0 0 0 0 0 0 0 1.679748e-01 2.463302e+01 1.295606e+02 3.757008e+02 3.795773e+02 2.128804e+02 1.433562e+02 8.416272e+01 -2.203168e-11 -8.416272e+01 -1.433562e+02 -2.128804e+02 -3.795773e+02 -3.757008e+02 -1.295606e+02 -2.463302e+01 -1.679748e-01 0 0 0 0 0 0 0 
0 0 0 0 0 0 0 4.121339e-01 4.673698e+01 2.899354e+02 5.314483e+02 5.888547e+02 4.129928e+02 1.479828e+02 5.060888e+01 2.569943e+01 -8.450748e-12 -2.569943e+01 -5.060888e+01 -1.479828e+02 -4.129928e+02 -5.888547e+02 -5.314483e+02 -2.899354e+02 -4.673698e+01 -4.121339e-01 0 0 0 0 0 0 
0 0 0 0 0 0 2.886567e-04 3.148554e+01 2.851777e+02 6.961304e+02 6.642433e+02 2.963322e+02 9.402518e+01 1.917019e+01 -3.281407e-01 0 0 0 3.281407e-01 -1.917019e+01 -9.402518e+01 -2.963322e+02 -6.642433e+02 -6.961304e+02 -2.851777e+02 -3.148554e+01 -2.886567e-04 0 0 0 0 0 
0 0 0 0 0 0 4.334174e+00 2.479476e+02 7.636933e+02 7.784018e+02 2.950757e+02 3.719026e+01 4.365113e-01 0 0 0 0 0 0 0 -4.365113e-01 -3.719026e+01 -2.950757e+02 -7.784018e+02 -7.636933e+02 -2.479476e+02 -4.334174e+00 0 0 0 0 0 
0 0 0 0 0 0 5.429418e+01 6.468790e+02 1.067491e+03 5.116354e+02 3.697516e+01 2.463576e-01 0 0 0 0 0 0 0 0 0 -2.463576e-01 -3.697516e+01 -5.116354e+02 -1.067491e+03 -6.468790e+02 -5.429418e+01 0 0 0 0 0 
0 0 0 0 0 0 1.765137e+02 9.395540e+02 9.768456e+02 2.155045e+02 1.699258e+00 0 0 0 0 0 0 0 0 0 0 0 -1.699258e+00 -2.155045e+02 -9.768456e+02 -9.395540e+02 -1.765137e+02 0 0 0 0 0 
0 0 0 0 0 0 3.269912e+02 1.097408e+03 8.409792e+02 7.056255e+01 0 0 0 0 0 0 0 0 0 0 0 0 0 -7.056255e+01 -8.409792e+02 -1.097408e+03 -3.269912e+02 0 0 0 0 0 
0 0 0 0 0 0 4.008756e+02 1.175717e+03 8.130810e+02 3.823921e+01 0 0 0 0 0 0 0 0 0 0 0 0 0 -3.823921e+01 -8.130810e+02 -1.175717e+03 -4.008756e+02 0 0 0 0 0 
0 0 0 0 0 0 3.269912e+02 1.097408e+03 8.409792e+02 7.056255e+01 0 0 0 0 0 0 0 0 0 0 0 0 0 -7.056255e+01 -8.409792e+02 -1.097408e+03 -3.269912e+02 0 0 0 0 0 
0 0 0 0 0 0 1.765137e+02 9.395540e+02 9.768456e+02 2.155045e+02 1.699258e+00 0 0 0 0 0 0 0 0 0 0 0 -1.699258e+00 -2.155045e+02 -9.768456e+02 -9.395540e+02 -1.765137e+02 0 0 0 0 0 
0 0 0 0 0 0 5.429418e+01 6.468790e+02 1.067491e+03 5.116354e+02 3.697516e+01 2.463576e-01 0 0 0 0 0 0 0 0 0 -2.463576e-01 -3.697516e+01 -5.116354e+02 -1.067491e+03 -6.468790e+02 -5.429418e+01 0 0 0 0 0 
0 0 0 0 0 0 4.334174e+00 2.479476e+02 7.636933e+02 7.784018e+02 2.950757e+02 3.719026e+01 4.365113e-01 0 0 0 0 0 0 0 -4.365113e-01 -3.719026e+01 -2.950757e+02 -7.784018e+02 -7.636933e+02 -2.479476e+02 -4.334174e+00 0 0 0 0 0 
0 0 0 0 0 0 2.886567e-04 3.148554e+01 2.851777e+02 6.961304e+02 6.642433e+02 2.963322e+02 9.402518e+01 1.917019e+01 -3.281407e-01 0 0 0 3.281407e-01 -1.917019e+01 -9.402518e+01 -2.963322e+02 -6.642433e+02 -6.961304e+02 -2.851777e+02 -3.148554e+01 -2.886567e-04 0 0 0 0 0 
0 0 0 0 0 0 0 4.121339e-01 4.673698e+01 2.899354e+02 5.314483e+02 5.888547e+02 4.129928e+02 1.479828e+02 5.060888e+01 2.569943e+01 1.106792e-11 -2.569943e+01 -5.060888e+01 -1.479828e+02 -4.129928e+02 -5.888547e+02 -5.314483e+02 -2.899354e+02 -4.673698e+01 -4.121339e-01 0 0 0 0 0 0 
0 0 0 0 0 0 0 0 1.679748e-01 2.463302e+01 1.295606e+02 3.757008e+02 3.795773e+02 2.128804e+02 1.433562e+02 8.416272e+01 3.988512e-11 -8.416272e+01 -1.433562e+02 -2.128804e+02 -3.795773e+02 -3.757008e+02 -1.295606e+02 -2.463302e+01 -1.679748e-01 0 0 0 0 0 0 0 
0 0 0 0 0 0 0 0 0 0 2.555772e+00 4.623432e+01 6.040434e+01 8.523335e+01 9.474980e+01 6.373940e+01 3.083239e-11 -6.373940e+01 -9.474980e+01 -8.523335e+01 -6.040434e+01 -4.623432e+01 -2.555772e+00 0 0 0 0 0 0 0 0 0 
0 0 0 0 0 0 0 0 0 0 0 0 2.311384e-01 1.165541e+00 2.330645e+00 5.276103e+00 2.020653e-12 -5.276103e+00 -2.330645e+00 -1.165541e+00 -2.311384e-01 0 0 0 0 0 0 0 0 0 0 0 
0 0 0 0 0 0 0 0 0 0 0 0 0 0 0 0 0 0 0 0 0 0 0 0 0 0 0 0 0 0 0 0 
0 0 0 0 0 0 0 0 0 0 0 0 0 0 0 0 0 0 0 0 0 0 0 0 0 0 0 0 0 0 0 0 
0 0 0 0 0 0 0 0 0 0 0 0 0 0 0 0 0 0 0 0 0 0 0 0 0 0 0 0 0 0 0 0 
0 0 0 0 0 0 0 0 0 0 0 0 0 0 0 0 0 0 0 0 0 0 0 0 0 0 0 0 0 0 0 0 
0 0 0 0 0 0 0 0 0 0 0 0 0 0 0 0 0 0 0 0 0 0 0 0 0 0 0 0 0 0 0 0 
0 0 0 0 0 0 0 0 0 0 0 0 0 0 0 0 0 0 0 0 0 0 0 0 0 0 0 0 0 0 0 0 
