# vtk DataFile Version 2.0
Comment goes here
ASCII

DATASET STRUCTURED_POINTS
FIELD FieldData 1
TIME 1 1 double
0.06000000
DIMENSIONS    32   32   1

ORIGIN    0.000   0.000   0.000
SPACING   0.03125 0.03125   1.000

POINT_DATA   1024
SCALARS fX double
LOOKUP_TABLE default

0 0 0 0 0 0 0 0 0 0 0 0 0 0 0 0 0 0 0 0 0 0 0 0 0 0 0 0 0 0 0 0 
0 0 0 0 0 0 0 0 0 0 0 0 0 0 0 0 0 0 0 0 0 0 0 0 0 0 0 0 0 0 0 0 
0 0 0 0 0 0 0 0 0 0 0 0 0 0 0 0 0 0 0 0 0 0 0 0 0 0 0 0 0 0 0 0 
0 0 0 0 0 0 0 0 0 0 0 0 0 0 0 0 0 0 0 0 0 0 0 0 0 0 0 0 0 0 0 0 
0 0 0 0 0 0 0 0 0 0 0 0 0 0 0 0 0 0 0 0 0 0 0 0 0 0 0 0 0 0 0 0 
0 0 0 0 0 0 0 0 0 0 0 0 0 0 0 0 0 0 0 0 0 0 0 0 0 0 0 0 0 0 0 0 
0 0 0 0 0 0 0 0 0 0 0 0 0 0 0 0 0 0 0 0 0 0 0 0 0 0 0 0 0 0 0 0 
0 0 0 0 0 0 0 0 0 0 0 0 0 0 0 0 0 0 0 0 0 0 0 0 0 0 0 0 0 0 0 0 
0 0 0 0 0 0 0 0 3.780304e-01 1.075138e+01 2.329625e+01 5.358119e+00 -5.284776e+01 -5.951354e+01 2.268398e+01 7.167730e+01 5.812350e-12 -7.167730e+01 -2.268398e+01 5.951354e+01 5.284776e+01 -5.358119e+00 -2.329625e+01 -1.075138e+01 -3.780304e-01 0 0 0 0 0 0 0 
0 0 0 0 0 0 2.276347e+00 3.289086e+01 1.420726e+02 3.146228e+02 3.266184e+02 1.022800e+02 -1.839340e+02 -2.135663e+02 5.980578e+01 2.140664e+02 1.624512e-11 -2.140664e+02 -5.980578e+01 2.135663e+02 1.839340e+02 -1.022800e+02 -3.266184e+02 -3.146228e+02 -1.420726e+02 -3.289086e+01 -2.276347e+00 0 0 0 0 0 
0 0 0 0 0 4.724904e+00 1.156250e+02 3.546319e+02 5.433822e+02 6.081052e+02 4.572925e+02 1.357944e+02 -1.410769e+02 -1.677922e+02 3.764186e+01 1.494531e+02 1.083946e-11 -1.494531e+02 -3.764186e+01 1.677922e+02 1.410769e+02 -1.357944e+02 -4.572925e+02 -6.081052e+02 -5.433822e+02 -3.546319e+02 -1.156250e+02 -4.724904e+00 0 0 0 0 
0 0 0 0 1.435379e+00 1.510820e+02 6.729062e+02 8.891417e+02 5.728324e+02 3.230870e+02 1.544437e+02 3.887256e+01 -9.990591e+00 -1.373940e+01 5.200576e-01 7.063987e+00 3.809844e-13 -7.063987e+00 -5.200576e-01 1.373940e+01 9.990591e+00 -3.887256e+01 -1.544437e+02 -3.230870e+02 -5.728324e+02 -8.891417e+02 -6.729062e+02 -1.510820e+02 -1.435379e+00 0 0 0 
0 0 0 0 5.291490e+01 6.889370e+02 1.374789e+03 9.044945e+02 1.841076e+02 1.885323e+01 4.732917e-01 0 0 0 0 0 0 0 0 0 0 0 -4.732917e-01 -1.885323e+01 -1.841076e+02 -9.044945e+02 -1.374789e+03 -6.889370e+02 -5.291490e+01 0 0 0 
0 0 0 0 2.678557e+02 1.391563e+03 1.542320e+03 4.315751e+02 1.296280e+01 0 0 0 0 0 0 0 0 0 0 0 0 0 0 0 -1.296280e+01 -4.315751e+02 -1.542320e+03 -1.391563e+03 -2.678557e+02 0 0 0 
0 0 0 0 6.213346e+02 1.807408e+03 1.296013e+03 1.099398e+02 0 0 0 0 0 0 0 0 0 0 0 0 0 0 0 0 0 -1.099398e+02 -1.296013e+03 -1.807408e+03 -6.213346e+02 0 0 0 
0 0 0 1.862949e+00 9.196293e+02 1.936973e+03 1.034817e+03 1.561064e+01 0 0 0 0 0 0 0 0 0 0 0 0 0 0 0 0 0 -1.561064e+01 -1.034817e+03 -1.936973e+03 -9.196293e+02 -1.862949e+00 0 0 
0 0 0 3.725898e+00 1.029342e+03 1.957097e+03 9.317853e+02 3.041764e-01 0 0 0 0 0 0 0 0 0 0 0 0 0 0 0 0 0 -3.041764e-01 -9.317853e+02 -1.957097e+03 -1.029342e+03 -3.725898e+00 0 0 
0 0 0 1.862949e+00 9.196293e+02 1.936973e+03 1.034817e+03 1.561064e+01 0 0 0 0 0 0 0 0 0 0 0 0 0 0 0 0 0 -1.561064e+01 -1.034817e+03 -1.936973e+03 -9.196293e+02 -1.862949e+00 0 0 
0 0 0 0 6.213346e+02 1.807408e+03 1.296013e+03 1.099398e+02 0 0 0 0 0 0 0 0 0 0 0 0 0 0 0 0 0 -1.099398e+02 -1.296013e+03 -1.807408e+03 -6.213346e+02 0 0 0 
0 0 0 0 2.678557e+02 1.391563e+03 1.542320e+03 4.315751e+02 1.296280e+01 0 0 0 0 0 0 0 0 0 0 0 0 0 0 0 -1.296280e+01 -4.315751e+02 -1.542320e+03 -1.391563e+03 -2.678557e+02 0 0 0 
0 0 0 0 5.291490e+01 6.889370e+02 1.374789e+03 9.044945e+02 1.841076e+02 1.885323e+01 4.732917e-01 0 0 0 0 0 0 0 0 0 0 0 -4.732917e-01 -1.885323e+01 -1.841076e+02 -9.044945e+02 -1.374789e+03 -6.889370e+02 -5.291490e+01 0 0 0 
0 0 0 0 1.435379e+00 1.510820e+02 6.729062e+02 8.891417e+02 5.728324e+02 3.230870e+02 1.544437e+02 3.887256e+01 -9.990591e+00 -1.373940e+01 5.200576e-01 7.063987e+00 8.596077e-13 -7.063987e+00 -5.200576e-01 1.373940e+01 9.990591e+00 -3.887256e+01 -1.544437e+02 -3.230870e+02 -5.728324e+02 -8.891417e+02 -6.729062e+02 -1.510820e+02 -1.435379e+00 0 0 0 
0 0 0 0 0 4.724904e+00 1.156250e+02 3.546319e+02 5.433822e+02 6.081052e+02 4.572925e+02 1.357944e+02 -1.410769e+02 -1.677922e+02 3.764186e+01 1.494531e+02 1.899023e-11 -1.494531e+02 -3.764186e+01 1.677922e+02 1.410769e+02 -1.357944e+02 -4.572925e+02 -6.081052e+02 -5.433822e+02 -3.546319e+02 -1.156250e+02 -4.724904e+00 0 0 0 0 
0 0 0 0 0 0 2.276347e+00 3.289086e+01 1.420726e+02 3.146228e+02 3.266184e+02 1.022800e+02 -1.839340e+02 -2.135663e+02 5.980578e+01 2.140664e+02 2.741310e-11 -2.140664e+02 -5.980578e+01 2.135663e+02 1.839340e+02 -1.022800e+02 -3.266184e+02 -3.146228e+02 -1.420726e+02 -3.289086e+01 -2.276347e+00 0 0 0 0 0 
0 0 0 0 0 0 0 0 3.780304e-01 1.075138e+01 2.329625e+01 5.358119e+00 -5.284776e+01 -5.951354e+01 2.268398e+01 7.167730e+01 9.288548e-12 -7.167730e+01 -2.268398e+01 5.951354e+01 5.284776e+01 -5.358119e+00 -2.329625e+01 -1.075138e+01 -3.780304e-01 0 0 0 0 0 0 0 
0 0 0 0 0 0 0 0 0 0 0 0 0 0 0 0 0 0 0 0 0 0 0 0 0 0 0 0 0 0 0 0 
0 0 0 0 0 0 0 0 0 0 0 0 0 0 0 0 0 0 0 0 0 0 0 0 0 0 0 0 0 0 0 0 
0 0 0 0 0 0 0 0 0 0 0 0 0 0 0 0 0 0 0 0 0 0 0 0 0 0 0 0 0 0 0 0 
0 0 0 0 0 0 0 0 0 0 0 0 0 0 0 0 0 0 0 0 0 0 0 0 0 0 0 0 0 0 0 0 
0 0 0 0 0 0 0 0 0 0 0 0 0 0 0 0 0 0 0 0 0 0 0 0 0 0 0 0 0 0 0 0 
0 0 0 0 0 0 0 0 0 0 0 0 0 0 0 0 0 0 0 0 0 0 0 0 0 0 0 0 0 0 0 0 
0 0 0 0 0 0 0 0 0 0 0 0 0 0 0 0 0 0 0 0 0 0 0 0 0 0 0 0 0 0 0 0 
