# vtk DataFile Version 2.0
Comment goes here
ASCII

DATASET STRUCTURED_POINTS
FIELD FieldData 1
TIME 1 1 double
1.24000000
DIMENSIONS    32   32   1

ORIGIN    0.000   0.000   0.000
SPACING   0.03125 0.03125   1.000

POINT_DATA   1024
SCALARS fX double
LOOKUP_TABLE default

0 0 0 0 0 0 0 0 0 0 0 0 0 0 0 0 0 0 0 0 0 0 0 0 0 0 0 0 0 0 0 0 
0 0 0 0 0 0 0 0 0 0 0 0 0 0 0 0 0 0 0 0 0 0 0 0 0 0 0 0 0 0 0 0 
0 0 0 0 0 0 0 0 0 0 0 0 0 0 0 0 0 0 0 0 0 0 0 0 0 0 0 0 0 0 0 0 
0 0 0 0 0 0 0 0 0 0 0 0 0 0 0 0 0 0 0 0 0 0 0 0 0 0 0 0 0 0 0 0 
0 0 0 0 0 0 0 0 0 0 0 0 0 0 0 0 0 0 0 0 0 0 0 0 0 0 0 0 0 0 0 0 
0 0 0 0 0 0 0 0 0 0 0 0 0 0 0 0 0 0 0 0 0 0 0 0 0 0 0 0 0 0 0 0 
0 0 0 0 0 0 0 0 0 0 0 0 0 0 0 0 0 0 0 0 0 0 0 0 0 0 0 0 0 0 0 0 
0 0 0 0 0 0 0 0 0 0 0 0 -7.366762e+00 3.202910e+01 4.115219e+01 1.510431e+01 2.839689e-12 -1.510431e+01 -4.115219e+01 -3.202910e+01 7.366762e+00 0 0 0 0 0 0 0 0 0 0 0 
0 0 0 0 0 0 0 0 0 0 0 2.119062e+01 1.036515e+02 2.367798e+02 2.466851e+02 1.191934e+02 9.441388e-11 -1.191934e+02 -2.466851e+02 -2.367798e+02 -1.036515e+02 -2.119062e+01 0 0 0 0 0 0 0 0 0 0 
0 0 0 0 0 0 0 0 0 0 3.736004e+01 2.083089e+02 5.161626e+02 5.133659e+02 2.882130e+02 1.323204e+02 1.037965e-10 -1.323204e+02 -2.882130e+02 -5.133659e+02 -5.161626e+02 -2.083089e+02 -3.736004e+01 0 0 0 0 0 0 0 0 0 
0 0 0 0 0 0 0 0 0 9.902728e+00 1.794404e+02 5.297191e+02 6.418599e+02 3.369066e+02 8.467910e+01 2.823136e+01 1.221120e-11 -2.823136e+01 -8.467910e+01 -3.369066e+02 -6.418599e+02 -5.297191e+02 -1.794404e+02 -9.902728e+00 0 0 0 0 0 0 0 0 
0 0 0 0 0 0 0 0 1.935211e-01 1.163024e+02 4.885232e+02 6.206312e+02 2.745571e+02 2.833929e+01 1.999034e+00 0 0 0 -1.999034e+00 -2.833929e+01 -2.745571e+02 -6.206312e+02 -4.885232e+02 -1.163024e+02 -1.935211e-01 0 0 0 0 0 0 0 
0 0 0 0 0 0 0 0 2.931146e+01 3.925352e+02 7.545572e+02 4.329796e+02 4.169409e+01 4.793779e-02 0 0 0 0 0 -4.793779e-02 -4.169409e+01 -4.329796e+02 -7.545572e+02 -3.925352e+02 -2.931146e+01 0 0 0 0 0 0 0 
0 0 0 0 0 0 0 0 7.422603e+01 6.005414e+02 7.509464e+02 2.284836e+02 3.852557e+00 0 0 0 0 0 0 0 -3.852557e+00 -2.284836e+02 -7.509464e+02 -6.005414e+02 -7.422603e+01 0 0 0 0 0 0 0 
0 0 0 0 0 0 0 0 1.666946e+02 6.838550e+02 6.035123e+02 8.635182e+01 0 0 0 0 0 0 0 0 0 -8.635182e+01 -6.035123e+02 -6.838550e+02 -1.666946e+02 0 0 0 0 0 0 0 
0 0 0 0 0 0 0 0 2.518783e+02 7.373623e+02 5.079095e+02 2.242556e+01 0 0 0 0 0 0 0 0 0 -2.242556e+01 -5.079095e+02 -7.373623e+02 -2.518783e+02 0 0 0 0 0 0 0 
0 0 0 0 0 0 0 0 2.605837e+02 7.358263e+02 4.944588e+02 1.921626e+01 0 0 0 0 0 0 0 0 0 -1.921626e+01 -4.944588e+02 -7.358263e+02 -2.605837e+02 0 0 0 0 0 0 0 
0 0 0 0 0 0 0 0 2.518783e+02 7.373623e+02 5.079095e+02 2.242556e+01 0 0 0 0 0 0 0 0 0 -2.242556e+01 -5.079095e+02 -7.373623e+02 -2.518783e+02 0 0 0 0 0 0 0 
0 0 0 0 0 0 0 0 1.666946e+02 6.838550e+02 6.035123e+02 8.635182e+01 0 0 0 0 0 0 0 0 0 -8.635182e+01 -6.035123e+02 -6.838550e+02 -1.666946e+02 0 0 0 0 0 0 0 
0 0 0 0 0 0 0 0 7.422603e+01 6.005414e+02 7.509464e+02 2.284836e+02 3.852557e+00 0 0 0 0 0 0 0 -3.852557e+00 -2.284836e+02 -7.509464e+02 -6.005414e+02 -7.422603e+01 0 0 0 0 0 0 0 
0 0 0 0 0 0 0 0 2.931146e+01 3.925352e+02 7.545572e+02 4.329796e+02 4.169409e+01 4.793779e-02 0 0 0 0 0 -4.793779e-02 -4.169409e+01 -4.329796e+02 -7.545572e+02 -3.925352e+02 -2.931146e+01 0 0 0 0 0 0 0 
0 0 0 0 0 0 0 0 1.935211e-01 1.163024e+02 4.885232e+02 6.206312e+02 2.745571e+02 2.833929e+01 1.999034e+00 0 0 0 -1.999034e+00 -2.833929e+01 -2.745571e+02 -6.206312e+02 -4.885232e+02 -1.163024e+02 -1.935211e-01 0 0 0 0 0 0 0 
0 0 0 0 0 0 0 0 0 9.902728e+00 1.794404e+02 5.297191e+02 6.418599e+02 3.369066e+02 8.467910e+01 2.823136e+01 -3.158445e-11 -2.823136e+01 -8.467910e+01 -3.369066e+02 -6.418599e+02 -5.297191e+02 -1.794404e+02 -9.902728e+00 0 0 0 0 0 0 0 0 
0 0 0 0 0 0 0 0 0 0 3.736004e+01 2.083089e+02 5.161626e+02 5.133659e+02 2.882130e+02 1.323204e+02 -1.070947e-10 -1.323204e+02 -2.882130e+02 -5.133659e+02 -5.161626e+02 -2.083089e+02 -3.736004e+01 0 0 0 0 0 0 0 0 0 
0 0 0 0 0 0 0 0 0 0 0 2.119062e+01 1.036515e+02 2.367798e+02 2.466851e+02 1.191934e+02 -6.332601e-12 -1.191934e+02 -2.466851e+02 -2.367798e+02 -1.036515e+02 -2.119062e+01 0 0 0 0 0 0 0 0 0 0 
0 0 0 0 0 0 0 0 0 0 0 0 -7.366762e+00 3.202910e+01 4.115219e+01 1.510431e+01 6.917567e-11 -1.510431e+01 -4.115219e+01 -3.202910e+01 7.366762e+00 0 0 0 0 0 0 0 0 0 0 0 
0 0 0 0 0 0 0 0 0 0 0 0 0 0 0 0 0 0 0 0 0 0 0 0 0 0 0 0 0 0 0 0 
0 0 0 0 0 0 0 0 0 0 0 0 0 0 0 0 0 0 0 0 0 0 0 0 0 0 0 0 0 0 0 0 
0 0 0 0 0 0 0 0 0 0 0 0 0 0 0 0 0 0 0 0 0 0 0 0 0 0 0 0 0 0 0 0 
0 0 0 0 0 0 0 0 0 0 0 0 0 0 0 0 0 0 0 0 0 0 0 0 0 0 0 0 0 0 0 0 
0 0 0 0 0 0 0 0 0 0 0 0 0 0 0 0 0 0 0 0 0 0 0 0 0 0 0 0 0 0 0 0 
0 0 0 0 0 0 0 0 0 0 0 0 0 0 0 0 0 0 0 0 0 0 0 0 0 0 0 0 0 0 0 0 
