# vtk DataFile Version 2.0
Comment goes here
ASCII

DATASET STRUCTURED_POINTS
FIELD FieldData 1
TIME 1 1 double
0.20000000
DIMENSIONS    32   32   1

ORIGIN    0.000   0.000   0.000
SPACING   0.03125 0.03125   1.000

POINT_DATA   1024
SCALARS fX double
LOOKUP_TABLE default

0 0 0 0 0 0 0 0 0 0 0 0 0 0 0 0 0 0 0 0 0 0 0 0 0 0 0 0 0 0 0 0 
0 0 0 0 0 0 0 0 0 0 0 0 0 0 0 0 0 0 0 0 0 0 0 0 0 0 0 0 0 0 0 0 
0 0 0 0 0 0 0 0 0 0 0 0 0 0 0 0 0 0 0 0 0 0 0 0 0 0 0 0 0 0 0 0 
0 0 0 0 0 0 0 0 0 0 0 0 0 0 0 0 0 0 0 0 0 0 0 0 0 0 0 0 0 0 0 0 
0 0 0 0 0 0 0 0 0 0 0 0 0 0 0 0 0 0 0 0 0 0 0 0 0 0 0 0 0 0 0 0 
0 0 0 0 0 0 0 0 0 0 0 0 8.128031e-04 6.923718e-01 4.112772e+00 6.129846e+00 5.290484e-13 -6.129846e+00 -4.112772e+00 -6.923718e-01 -8.128031e-04 0 0 0 0 0 0 0 0 0 0 0 
0 0 0 0 0 0 0 0 0 0 1.599871e-01 2.152067e+01 7.568734e+01 1.285226e+02 1.545092e+02 1.217231e+02 1.125488e-12 -1.217231e+02 -1.545092e+02 -1.285226e+02 -7.568734e+01 -2.152067e+01 -1.599871e-01 0 0 0 0 0 0 0 0 0 
0 0 0 0 0 0 0 0 0 6.070475e+00 7.851296e+01 2.975841e+02 4.520551e+02 3.789360e+02 2.721360e+02 1.757881e+02 -3.199212e-13 -1.757881e+02 -2.721360e+02 -3.789360e+02 -4.520551e+02 -2.975841e+02 -7.851296e+01 -6.070475e+00 0 0 0 0 0 0 0 0 
0 0 0 0 0 0 0 0 2.714390e+00 1.057074e+02 4.339677e+02 6.750793e+02 5.490340e+02 2.850951e+02 1.233873e+02 6.019483e+01 -9.194938e-13 -6.019483e+01 -1.233873e+02 -2.850951e+02 -5.490340e+02 -6.750793e+02 -4.339677e+02 -1.057074e+02 -2.714390e+00 0 0 0 0 0 0 0 
0 0 0 0 0 0 0 2.104480e-01 7.393647e+01 4.285920e+02 7.403597e+02 5.346874e+02 1.815354e+02 3.398931e+01 1.647709e+00 0 0 0 -1.647709e+00 -3.398931e+01 -1.815354e+02 -5.346874e+02 -7.403597e+02 -4.285920e+02 -7.393647e+01 -2.104480e-01 0 0 0 0 0 0 
0 0 0 0 0 0 0 1.910678e+01 3.549385e+02 8.053638e+02 6.076388e+02 1.469766e+02 8.869965e+00 0 0 0 0 0 0 0 -8.869965e+00 -1.469766e+02 -6.076388e+02 -8.053638e+02 -3.549385e+02 -1.910678e+01 0 0 0 0 0 0 
0 0 0 0 0 0 0 1.076858e+02 7.410415e+02 9.326945e+02 3.106440e+02 1.130511e+01 0 0 0 0 0 0 0 0 0 -1.130511e+01 -3.106440e+02 -9.326945e+02 -7.410415e+02 -1.076858e+02 0 0 0 0 0 0 
0 0 0 0 0 0 1.210144e+00 2.784394e+02 8.903657e+02 7.129328e+02 9.979629e+01 0 0 0 0 0 0 0 0 0 0 0 -9.979629e+01 -7.129328e+02 -8.903657e+02 -2.784394e+02 -1.210144e+00 0 0 0 0 0 
0 0 0 0 0 0 1.333898e+01 5.012068e+02 9.139922e+02 4.384475e+02 1.232318e+01 0 0 0 0 0 0 0 0 0 0 0 -1.232318e+01 -4.384475e+02 -9.139922e+02 -5.012068e+02 -1.333898e+01 0 0 0 0 0 
0 0 0 0 0 0 4.626577e+01 6.614179e+02 9.087374e+02 2.938622e+02 2.770306e-01 0 0 0 0 0 0 0 0 0 0 0 -2.770306e-01 -2.938622e+02 -9.087374e+02 -6.614179e+02 -4.626577e+01 0 0 0 0 0 
0 0 0 0 0 0 8.748762e+01 7.545267e+02 8.751700e+02 2.081310e+02 0 0 0 0 0 0 0 0 0 0 0 0 0 -2.081310e+02 -8.751700e+02 -7.545267e+02 -8.748762e+01 0 0 0 0 0 
0 0 0 0 0 0 1.067014e+02 8.093315e+02 8.947683e+02 1.921382e+02 0 0 0 0 0 0 0 0 0 0 0 0 0 -1.921382e+02 -8.947683e+02 -8.093315e+02 -1.067014e+02 0 0 0 0 0 
0 0 0 0 0 0 8.748762e+01 7.545267e+02 8.751700e+02 2.081310e+02 0 0 0 0 0 0 0 0 0 0 0 0 0 -2.081310e+02 -8.751700e+02 -7.545267e+02 -8.748762e+01 0 0 0 0 0 
0 0 0 0 0 0 4.626577e+01 6.614179e+02 9.087374e+02 2.938622e+02 2.770306e-01 0 0 0 0 0 0 0 0 0 0 0 -2.770306e-01 -2.938622e+02 -9.087374e+02 -6.614179e+02 -4.626577e+01 0 0 0 0 0 
0 0 0 0 0 0 1.333898e+01 5.012068e+02 9.139922e+02 4.384475e+02 1.232318e+01 0 0 0 0 0 0 0 0 0 0 0 -1.232318e+01 -4.384475e+02 -9.139922e+02 -5.012068e+02 -1.333898e+01 0 0 0 0 0 
0 0 0 0 0 0 1.210144e+00 2.784394e+02 8.903657e+02 7.129328e+02 9.979629e+01 0 0 0 0 0 0 0 0 0 0 0 -9.979629e+01 -7.129328e+02 -8.903657e+02 -2.784394e+02 -1.210144e+00 0 0 0 0 0 
0 0 0 0 0 0 0 1.076858e+02 7.410415e+02 9.326945e+02 3.106440e+02 1.130511e+01 0 0 0 0 0 0 0 0 0 -1.130511e+01 -3.106440e+02 -9.326945e+02 -7.410415e+02 -1.076858e+02 0 0 0 0 0 0 
0 0 0 0 0 0 0 1.910678e+01 3.549385e+02 8.053638e+02 6.076388e+02 1.469766e+02 8.869965e+00 0 0 0 0 0 0 0 -8.869965e+00 -1.469766e+02 -6.076388e+02 -8.053638e+02 -3.549385e+02 -1.910678e+01 0 0 0 0 0 0 
0 0 0 0 0 0 0 2.104480e-01 7.393647e+01 4.285920e+02 7.403597e+02 5.346874e+02 1.815354e+02 3.398931e+01 1.647709e+00 0 0 0 -1.647709e+00 -3.398931e+01 -1.815354e+02 -5.346874e+02 -7.403597e+02 -4.285920e+02 -7.393647e+01 -2.104480e-01 0 0 0 0 0 0 
0 0 0 0 0 0 0 0 2.714390e+00 1.057074e+02 4.339677e+02 6.750793e+02 5.490340e+02 2.850951e+02 1.233873e+02 6.019483e+01 -9.837811e-12 -6.019483e+01 -1.233873e+02 -2.850951e+02 -5.490340e+02 -6.750793e+02 -4.339677e+02 -1.057074e+02 -2.714390e+00 0 0 0 0 0 0 0 
0 0 0 0 0 0 0 0 0 6.070475e+00 7.851296e+01 2.975841e+02 4.520551e+02 3.789360e+02 2.721360e+02 1.757881e+02 -1.022841e-11 -1.757881e+02 -2.721360e+02 -3.789360e+02 -4.520551e+02 -2.975841e+02 -7.851296e+01 -6.070475e+00 0 0 0 0 0 0 0 0 
0 0 0 0 0 0 0 0 0 0 1.599871e-01 2.152067e+01 7.568734e+01 1.285226e+02 1.545092e+02 1.217231e+02 3.604878e-12 -1.217231e+02 -1.545092e+02 -1.285226e+02 -7.568734e+01 -2.152067e+01 -1.599871e-01 0 0 0 0 0 0 0 0 0 
0 0 0 0 0 0 0 0 0 0 0 0 8.128031e-04 6.923718e-01 4.112772e+00 6.129846e+00 3.994244e-12 -6.129846e+00 -4.112772e+00 -6.923718e-01 -8.128031e-04 0 0 0 0 0 0 0 0 0 0 0 
0 0 0 0 0 0 0 0 0 0 0 0 0 0 0 0 0 0 0 0 0 0 0 0 0 0 0 0 0 0 0 0 
0 0 0 0 0 0 0 0 0 0 0 0 0 0 0 0 0 0 0 0 0 0 0 0 0 0 0 0 0 0 0 0 
0 0 0 0 0 0 0 0 0 0 0 0 0 0 0 0 0 0 0 0 0 0 0 0 0 0 0 0 0 0 0 0 
0 0 0 0 0 0 0 0 0 0 0 0 0 0 0 0 0 0 0 0 0 0 0 0 0 0 0 0 0 0 0 0 
