# vtk DataFile Version 2.0
Comment goes here
ASCII

DATASET STRUCTURED_POINTS
FIELD FieldData 1
TIME 1 1 double
1.04000000
DIMENSIONS    32   32   1

ORIGIN    0.000   0.000   0.000
SPACING   0.03125 0.03125   1.000

POINT_DATA   1024
SCALARS fX double
LOOKUP_TABLE default

0 0 0 0 0 0 0 0 0 0 0 0 0 0 0 0 0 0 0 0 0 0 0 0 0 0 0 0 0 0 0 0 
0 0 0 0 0 0 0 0 0 0 0 0 0 0 0 0 0 0 0 0 0 0 0 0 0 0 0 0 0 0 0 0 
0 0 0 0 0 0 0 0 0 0 0 0 0 0 0 0 0 0 0 0 0 0 0 0 0 0 0 0 0 0 0 0 
0 0 0 0 0 0 0 0 0 0 0 0 0 0 0 0 0 0 0 0 0 0 0 0 0 0 0 0 0 0 0 0 
0 0 0 0 0 0 0 0 0 0 0 0 0 0 0 0 0 0 0 0 0 0 0 0 0 0 0 0 0 0 0 0 
0 0 0 0 0 0 0 0 0 0 0 0 0 0 0 0 0 0 0 0 0 0 0 0 0 0 0 0 0 0 0 0 
0 0 0 0 0 0 0 0 0 0 0 0 0 0 0 0 0 0 0 0 0 0 0 0 0 0 0 0 0 0 0 0 
0 0 0 0 0 0 0 0 0 0 0 0 0 -3.898585e-02 1.629959e-01 8.735716e-01 -1.688092e-12 -8.735716e-01 -1.629959e-01 3.898585e-02 0 0 0 0 0 0 0 0 0 0 0 0 
0 0 0 0 0 0 0 0 0 0 -4.419260e-02 1.748686e+01 9.176389e+00 5.940952e+01 7.151356e+01 2.660706e+01 -4.331082e-11 -2.660706e+01 -7.151356e+01 -5.940952e+01 -9.176389e+00 -1.748686e+01 4.419260e-02 0 0 0 0 0 0 0 0 0 
0 0 0 0 0 0 0 0 0 4.714739e+00 5.385127e+01 2.047799e+02 2.621372e+02 2.438953e+02 1.702846e+02 6.722484e+01 -6.232514e-11 -6.722484e+01 -1.702846e+02 -2.438953e+02 -2.621372e+02 -2.047799e+02 -5.385127e+01 -4.714739e+00 0 0 0 0 0 0 0 0 
0 0 0 0 0 0 0 0 6.115624e+00 1.100172e+02 4.158287e+02 5.568620e+02 4.159330e+02 2.360444e+02 9.581064e+01 4.291997e+01 -2.069325e-11 -4.291997e+01 -9.581064e+01 -2.360444e+02 -4.159330e+02 -5.568620e+02 -4.158287e+02 -1.100172e+02 -6.115624e+00 0 0 0 0 0 0 0 
0 0 0 0 0 0 0 8.808027e-01 1.246200e+02 4.998782e+02 7.440969e+02 4.860721e+02 1.742638e+02 5.159762e+01 -3.123379e+00 1.428611e+00 0 -1.428611e+00 3.123379e+00 -5.159762e+01 -1.742638e+02 -4.860721e+02 -7.440969e+02 -4.998782e+02 -1.246200e+02 -8.808027e-01 0 0 0 0 0 0 
0 0 0 0 0 0 0 6.817429e+01 4.757480e+02 8.304634e+02 5.333312e+02 1.217332e+02 1.129169e+01 0 0 0 0 0 0 0 -1.129169e+01 -1.217332e+02 -5.333312e+02 -8.304634e+02 -4.757480e+02 -6.817429e+01 0 0 0 0 0 0 
0 0 0 0 0 0 1.531917e+00 2.351042e+02 8.647326e+02 8.106948e+02 1.847645e+02 5.230037e+00 0 0 0 0 0 0 0 0 0 -5.230037e+00 -1.847645e+02 -8.106948e+02 -8.647326e+02 -2.351042e+02 -1.531917e+00 0 0 0 0 0 
0 0 0 0 0 0 1.525603e+01 5.203780e+02 1.044119e+03 5.733051e+02 3.430842e+01 0 0 0 0 0 0 0 0 0 0 0 -3.430842e+01 -5.733051e+02 -1.044119e+03 -5.203780e+02 -1.525603e+01 0 0 0 0 0 
0 0 0 0 0 0 4.112880e+01 7.346178e+02 1.041966e+03 3.491882e+02 7.115016e-01 0 0 0 0 0 0 0 0 0 0 0 -7.115016e-01 -3.491882e+02 -1.041966e+03 -7.346178e+02 -4.112880e+01 0 0 0 0 0 
0 0 0 0 0 0 5.480937e+01 7.641012e+02 1.010672e+03 3.013805e+02 0 0 0 0 0 0 0 0 0 0 0 0 0 -3.013805e+02 -1.010672e+03 -7.641012e+02 -5.480937e+01 0 0 0 0 0 
0 0 0 0 0 0 4.112880e+01 7.346178e+02 1.041966e+03 3.491882e+02 7.115016e-01 0 0 0 0 0 0 0 0 0 0 0 -7.115016e-01 -3.491882e+02 -1.041966e+03 -7.346178e+02 -4.112880e+01 0 0 0 0 0 
0 0 0 0 0 0 1.525603e+01 5.203780e+02 1.044119e+03 5.733051e+02 3.430842e+01 0 0 0 0 0 0 0 0 0 0 0 -3.430842e+01 -5.733051e+02 -1.044119e+03 -5.203780e+02 -1.525603e+01 0 0 0 0 0 
0 0 0 0 0 0 1.531917e+00 2.351042e+02 8.647326e+02 8.106948e+02 1.847645e+02 5.230037e+00 0 0 0 0 0 0 0 0 0 -5.230037e+00 -1.847645e+02 -8.106948e+02 -8.647326e+02 -2.351042e+02 -1.531917e+00 0 0 0 0 0 
0 0 0 0 0 0 0 6.817429e+01 4.757480e+02 8.304634e+02 5.333312e+02 1.217332e+02 1.129169e+01 0 0 0 0 0 0 0 -1.129169e+01 -1.217332e+02 -5.333312e+02 -8.304634e+02 -4.757480e+02 -6.817429e+01 0 0 0 0 0 0 
0 0 0 0 0 0 0 8.808027e-01 1.246200e+02 4.998782e+02 7.440969e+02 4.860721e+02 1.742638e+02 5.159762e+01 -3.123379e+00 1.428611e+00 0 -1.428611e+00 3.123379e+00 -5.159762e+01 -1.742638e+02 -4.860721e+02 -7.440969e+02 -4.998782e+02 -1.246200e+02 -8.808027e-01 0 0 0 0 0 0 
0 0 0 0 0 0 0 0 6.115624e+00 1.100172e+02 4.158287e+02 5.568620e+02 4.159330e+02 2.360444e+02 9.581064e+01 4.291997e+01 -2.242810e-12 -4.291997e+01 -9.581064e+01 -2.360444e+02 -4.159330e+02 -5.568620e+02 -4.158287e+02 -1.100172e+02 -6.115624e+00 0 0 0 0 0 0 0 
0 0 0 0 0 0 0 0 0 4.714739e+00 5.385127e+01 2.047799e+02 2.621372e+02 2.438953e+02 1.702846e+02 6.722484e+01 -7.731441e-12 -6.722484e+01 -1.702846e+02 -2.438953e+02 -2.621372e+02 -2.047799e+02 -5.385127e+01 -4.714739e+00 0 0 0 0 0 0 0 0 
0 0 0 0 0 0 0 0 0 0 -4.419260e-02 1.748686e+01 9.176389e+00 5.940952e+01 7.151356e+01 2.660706e+01 -6.832018e-12 -2.660706e+01 -7.151356e+01 -5.940952e+01 -9.176389e+00 -1.748686e+01 4.419260e-02 0 0 0 0 0 0 0 0 0 
0 0 0 0 0 0 0 0 0 0 0 0 0 -3.898585e-02 1.629959e-01 8.735716e-01 -1.335228e-12 -8.735716e-01 -1.629959e-01 3.898585e-02 0 0 0 0 0 0 0 0 0 0 0 0 
0 0 0 0 0 0 0 0 0 0 0 0 0 0 0 0 0 0 0 0 0 0 0 0 0 0 0 0 0 0 0 0 
0 0 0 0 0 0 0 0 0 0 0 0 0 0 0 0 0 0 0 0 0 0 0 0 0 0 0 0 0 0 0 0 
0 0 0 0 0 0 0 0 0 0 0 0 0 0 0 0 0 0 0 0 0 0 0 0 0 0 0 0 0 0 0 0 
0 0 0 0 0 0 0 0 0 0 0 0 0 0 0 0 0 0 0 0 0 0 0 0 0 0 0 0 0 0 0 0 
0 0 0 0 0 0 0 0 0 0 0 0 0 0 0 0 0 0 0 0 0 0 0 0 0 0 0 0 0 0 0 0 
0 0 0 0 0 0 0 0 0 0 0 0 0 0 0 0 0 0 0 0 0 0 0 0 0 0 0 0 0 0 0 0 
