# vtk DataFile Version 2.0
Comment goes here
ASCII

DATASET STRUCTURED_POINTS
FIELD FieldData 1
TIME 1 1 double
0.46000000
DIMENSIONS    32   32   1

ORIGIN    0.000   0.000   0.000
SPACING   0.03125 0.03125   1.000

POINT_DATA   1024
SCALARS fX double
LOOKUP_TABLE default

0 0 0 0 0 0 0 0 0 0 0 0 0 0 0 0 0 0 0 0 0 0 0 0 0 0 0 0 0 0 0 0 
0 0 0 0 0 0 0 0 0 0 0 0 0 0 0 0 0 0 0 0 0 0 0 0 0 0 0 0 0 0 0 0 
0 0 0 0 0 0 0 0 0 0 0 0 0 0 0 0 0 0 0 0 0 0 0 0 0 0 0 0 0 0 0 0 
0 0 0 0 0 0 0 0 0 0 0 0 0 0 0 0 0 0 0 0 0 0 0 0 0 0 0 0 0 0 0 0 
0 0 0 0 0 0 0 0 0 0 0 0 0 0 0 0 0 0 0 0 0 0 0 0 0 0 0 0 0 0 0 0 
0 0 0 0 0 0 0 0 0 0 0 0 5.932424e-02 1.128623e+00 6.635406e+00 1.125750e+01 -5.926941e-12 -1.125750e+01 -6.635406e+00 -1.128623e+00 -5.932424e-02 0 0 0 0 0 0 0 0 0 0 0 
0 0 0 0 0 0 0 0 0 0 3.434431e-03 1.266503e+01 7.692577e+01 1.704235e+02 1.768679e+02 1.144951e+02 -2.230568e-11 -1.144951e+02 -1.768679e+02 -1.704235e+02 -7.692577e+01 -1.266503e+01 -3.434431e-03 0 0 0 0 0 0 0 0 0 
0 0 0 0 0 0 0 0 0 9.669323e-01 3.494028e+01 2.309638e+02 4.818931e+02 5.009904e+02 3.119816e+02 1.446006e+02 -1.691862e-11 -1.446006e+02 -3.119816e+02 -5.009904e+02 -4.818931e+02 -2.309638e+02 -3.494028e+01 -9.669323e-01 0 0 0 0 0 0 0 0 
0 0 0 0 0 0 0 0 0 3.988402e+01 3.135854e+02 6.833772e+02 6.903170e+02 3.950454e+02 1.451556e+02 4.136294e+01 -5.421937e-13 -4.136294e+01 -1.451556e+02 -3.950454e+02 -6.903170e+02 -6.833772e+02 -3.135854e+02 -3.988402e+01 0 0 0 0 0 0 0 0 
0 0 0 0 0 0 0 0 1.797093e+01 2.716054e+02 7.296178e+02 7.359504e+02 3.204517e+02 6.389121e+01 3.406583e+00 0 0 0 -3.406583e+00 -6.389121e+01 -3.204517e+02 -7.359504e+02 -7.296178e+02 -2.716054e+02 -1.797093e+01 0 0 0 0 0 0 0 
0 0 0 0 0 0 0 6.704768e-01 1.179409e+02 6.394862e+02 8.338181e+02 3.465836e+02 3.552250e+01 5.412757e-01 0 0 0 0 0 -5.412757e-01 -3.552250e+01 -3.465836e+02 -8.338181e+02 -6.394862e+02 -1.179409e+02 -6.704768e-01 0 0 0 0 0 0 
0 0 0 0 0 0 0 1.583421e+01 3.476082e+02 8.012511e+02 5.485443e+02 7.942840e+01 3.611557e-01 0 0 0 0 0 0 0 -3.611557e-01 -7.942840e+01 -5.485443e+02 -8.012511e+02 -3.476082e+02 -1.583421e+01 0 0 0 0 0 0 
0 0 0 0 0 0 0 8.328192e+01 6.388665e+02 7.960969e+02 2.442292e+02 3.716848e+00 0 0 0 0 0 0 0 0 0 -3.716848e+00 -2.442292e+02 -7.960969e+02 -6.388665e+02 -8.328192e+01 0 0 0 0 0 0 
0 0 0 0 0 0 0 2.048753e+02 8.277525e+02 7.256723e+02 1.027951e+02 0 0 0 0 0 0 0 0 0 0 0 -1.027951e+02 -7.256723e+02 -8.277525e+02 -2.048753e+02 0 0 0 0 0 0 
0 0 0 0 0 0 0 3.169434e+02 8.770806e+02 5.894493e+02 2.931216e+01 0 0 0 0 0 0 0 0 0 0 0 -2.931216e+01 -5.894493e+02 -8.770806e+02 -3.169434e+02 0 0 0 0 0 0 
0 0 0 0 0 0 0 3.501770e+02 7.963811e+02 4.516337e+02 5.429625e+00 0 0 0 0 0 0 0 0 0 0 0 -5.429625e+00 -4.516337e+02 -7.963811e+02 -3.501770e+02 0 0 0 0 0 0 
0 0 0 0 0 0 0 3.399814e+02 7.116495e+02 3.724258e+02 7.576982e-01 0 0 0 0 0 0 0 0 0 0 0 -7.576982e-01 -3.724258e+02 -7.116495e+02 -3.399814e+02 0 0 0 0 0 0 
0 0 0 0 0 0 0 3.501770e+02 7.963811e+02 4.516337e+02 5.429625e+00 0 0 0 0 0 0 0 0 0 0 0 -5.429625e+00 -4.516337e+02 -7.963811e+02 -3.501770e+02 0 0 0 0 0 0 
0 0 0 0 0 0 0 3.169434e+02 8.770806e+02 5.894493e+02 2.931216e+01 0 0 0 0 0 0 0 0 0 0 0 -2.931216e+01 -5.894493e+02 -8.770806e+02 -3.169434e+02 0 0 0 0 0 0 
0 0 0 0 0 0 0 2.048753e+02 8.277525e+02 7.256723e+02 1.027951e+02 0 0 0 0 0 0 0 0 0 0 0 -1.027951e+02 -7.256723e+02 -8.277525e+02 -2.048753e+02 0 0 0 0 0 0 
0 0 0 0 0 0 0 8.328192e+01 6.388665e+02 7.960969e+02 2.442292e+02 3.716848e+00 0 0 0 0 0 0 0 0 0 -3.716848e+00 -2.442292e+02 -7.960969e+02 -6.388665e+02 -8.328192e+01 0 0 0 0 0 0 
0 0 0 0 0 0 0 1.583421e+01 3.476082e+02 8.012511e+02 5.485443e+02 7.942840e+01 3.611557e-01 0 0 0 0 0 0 0 -3.611557e-01 -7.942840e+01 -5.485443e+02 -8.012511e+02 -3.476082e+02 -1.583421e+01 0 0 0 0 0 0 
0 0 0 0 0 0 0 6.704768e-01 1.179409e+02 6.394862e+02 8.338181e+02 3.465836e+02 3.552250e+01 5.412757e-01 0 0 0 0 0 -5.412757e-01 -3.552250e+01 -3.465836e+02 -8.338181e+02 -6.394862e+02 -1.179409e+02 -6.704768e-01 0 0 0 0 0 0 
0 0 0 0 0 0 0 0 1.797093e+01 2.716054e+02 7.296178e+02 7.359504e+02 3.204517e+02 6.389121e+01 3.406583e+00 0 0 0 -3.406583e+00 -6.389121e+01 -3.204517e+02 -7.359504e+02 -7.296178e+02 -2.716054e+02 -1.797093e+01 0 0 0 0 0 0 0 
0 0 0 0 0 0 0 0 0 3.988402e+01 3.135854e+02 6.833772e+02 6.903170e+02 3.950454e+02 1.451556e+02 4.136294e+01 -4.343430e-12 -4.136294e+01 -1.451556e+02 -3.950454e+02 -6.903170e+02 -6.833772e+02 -3.135854e+02 -3.988402e+01 0 0 0 0 0 0 0 0 
0 0 0 0 0 0 0 0 0 9.669323e-01 3.494028e+01 2.309638e+02 4.818931e+02 5.009904e+02 3.119816e+02 1.446006e+02 -7.079795e-13 -1.446006e+02 -3.119816e+02 -5.009904e+02 -4.818931e+02 -2.309638e+02 -3.494028e+01 -9.669323e-01 0 0 0 0 0 0 0 0 
0 0 0 0 0 0 0 0 0 0 3.434431e-03 1.266503e+01 7.692577e+01 1.704235e+02 1.768679e+02 1.144951e+02 8.732332e-12 -1.144951e+02 -1.768679e+02 -1.704235e+02 -7.692577e+01 -1.266503e+01 -3.434431e-03 0 0 0 0 0 0 0 0 0 
0 0 0 0 0 0 0 0 0 0 0 0 5.932424e-02 1.128623e+00 6.635406e+00 1.125750e+01 5.109071e-12 -1.125750e+01 -6.635406e+00 -1.128623e+00 -5.932424e-02 0 0 0 0 0 0 0 0 0 0 0 
0 0 0 0 0 0 0 0 0 0 0 0 0 0 0 0 0 0 0 0 0 0 0 0 0 0 0 0 0 0 0 0 
0 0 0 0 0 0 0 0 0 0 0 0 0 0 0 0 0 0 0 0 0 0 0 0 0 0 0 0 0 0 0 0 
0 0 0 0 0 0 0 0 0 0 0 0 0 0 0 0 0 0 0 0 0 0 0 0 0 0 0 0 0 0 0 0 
0 0 0 0 0 0 0 0 0 0 0 0 0 0 0 0 0 0 0 0 0 0 0 0 0 0 0 0 0 0 0 0 
