# vtk DataFile Version 2.0
Comment goes here
ASCII

DATASET STRUCTURED_POINTS
FIELD FieldData 1
TIME 1 1 double
0.12000000
DIMENSIONS    32   32   1

ORIGIN    0.000   0.000   0.000
SPACING   0.03125 0.03125   1.000

POINT_DATA   1024
SCALARS fX double
LOOKUP_TABLE default

0 0 0 0 0 0 0 0 0 0 0 0 0 0 0 0 0 0 0 0 0 0 0 0 0 0 0 0 0 0 0 0 
0 0 0 0 0 0 0 0 0 0 0 0 0 0 0 0 0 0 0 0 0 0 0 0 0 0 0 0 0 0 0 0 
0 0 0 0 0 0 0 0 0 0 0 0 0 0 0 0 0 0 0 0 0 0 0 0 0 0 0 0 0 0 0 0 
0 0 0 0 0 0 0 0 0 0 0 0 0 0 0 0 0 0 0 0 0 0 0 0 0 0 0 0 0 0 0 0 
0 0 0 0 0 0 0 0 0 0 0 0 0 0 0 0 0 0 0 0 0 0 0 0 0 0 0 0 0 0 0 0 
0 0 0 0 0 0 0 0 0 0 0 0 0 0 0 0 0 0 0 0 0 0 0 0 0 0 0 0 0 0 0 0 
0 0 0 0 0 0 0 0 0 0 0 0 0 1.460618e-01 6.360923e-01 7.327299e-01 -2.121555e-13 -7.327299e-01 -6.360923e-01 -1.460618e-01 0 0 0 0 0 0 0 0 0 0 0 0 
0 0 0 0 0 0 0 0 0 1.518006e-01 1.052587e+01 3.048316e+01 2.165958e+01 3.480793e+00 4.116788e+01 5.149961e+01 -3.218251e-12 -5.149961e+01 -4.116788e+01 -3.480793e+00 -2.165958e+01 -3.048316e+01 -1.052587e+01 -1.518006e-01 0 0 0 0 0 0 0 0 
0 0 0 0 0 0 0 0 1.192268e+01 1.349829e+02 3.450873e+02 3.493911e+02 1.428644e+02 1.367733e+01 6.436337e+01 8.612753e+01 -3.986540e-12 -8.612753e+01 -6.436337e+01 -1.367733e+01 -1.428644e+02 -3.493911e+02 -3.450873e+02 -1.349829e+02 -1.192268e+01 0 0 0 0 0 0 0 
0 0 0 0 0 0 0 2.077687e+01 2.424927e+02 6.772792e+02 8.541666e+02 5.345546e+02 1.524390e+02 1.284004e+01 2.378794e+01 3.535720e+01 -9.814082e-13 -3.535720e+01 -2.378794e+01 -1.284004e+01 -1.524390e+02 -5.345546e+02 -8.541666e+02 -6.772792e+02 -2.424927e+02 -2.077687e+01 0 0 0 0 0 0 
0 0 0 0 0 0 7.017074e+00 2.021340e+02 7.545813e+02 9.961997e+02 6.286060e+02 2.205710e+02 3.123808e+01 2.497440e+00 -4.363802e-02 -3.461726e-03 0 3.461726e-03 4.363802e-02 -2.497440e+00 -3.123808e+01 -2.205710e+02 -6.286060e+02 -9.961997e+02 -7.545813e+02 -2.021340e+02 -7.017074e+00 0 0 0 0 0 
0 0 0 0 0 0 6.907385e+01 5.911466e+02 1.014424e+03 5.984863e+02 1.110558e+02 4.924286e+00 3.894823e-03 0 0 0 0 0 0 0 -3.894823e-03 -4.924286e+00 -1.110558e+02 -5.984863e+02 -1.014424e+03 -5.911466e+02 -6.907385e+01 0 0 0 0 0 
0 0 0 0 0 1.213155e+00 3.092271e+02 9.986830e+02 8.574708e+02 1.688568e+02 2.054998e+00 0 0 0 0 0 0 0 0 0 0 0 -2.054998e+00 -1.688568e+02 -8.574708e+02 -9.986830e+02 -3.092271e+02 -1.213155e+00 0 0 0 0 
0 0 0 0 0 1.518660e+01 6.843476e+02 1.292211e+03 6.478641e+02 2.481384e+01 0 0 0 0 0 0 0 0 0 0 0 0 0 -2.481384e+01 -6.478641e+02 -1.292211e+03 -6.843476e+02 -1.518660e+01 0 0 0 0 
0 0 0 0 0 5.433057e+01 8.633847e+02 1.229908e+03 4.215460e+02 6.917711e-01 0 0 0 0 0 0 0 0 0 0 0 0 0 -6.917711e-01 -4.215460e+02 -1.229908e+03 -8.633847e+02 -5.433057e+01 0 0 0 0 
0 0 0 0 0 9.127461e+01 8.182471e+02 9.622321e+02 2.352597e+02 0 0 0 0 0 0 0 0 0 0 0 0 0 0 0 -2.352597e+02 -9.622321e+02 -8.182471e+02 -9.127461e+01 0 0 0 0 
0 0 0 0 0 1.018350e+02 7.840791e+02 8.712828e+02 1.890386e+02 0 0 0 0 0 0 0 0 0 0 0 0 0 0 0 -1.890386e+02 -8.712828e+02 -7.840791e+02 -1.018350e+02 0 0 0 0 
0 0 0 0 0 9.127461e+01 8.182471e+02 9.622321e+02 2.352597e+02 0 0 0 0 0 0 0 0 0 0 0 0 0 0 0 -2.352597e+02 -9.622321e+02 -8.182471e+02 -9.127461e+01 0 0 0 0 
0 0 0 0 0 5.433057e+01 8.633847e+02 1.229908e+03 4.215460e+02 6.917711e-01 0 0 0 0 0 0 0 0 0 0 0 0 0 -6.917711e-01 -4.215460e+02 -1.229908e+03 -8.633847e+02 -5.433057e+01 0 0 0 0 
0 0 0 0 0 1.518660e+01 6.843476e+02 1.292211e+03 6.478641e+02 2.481384e+01 0 0 0 0 0 0 0 0 0 0 0 0 0 -2.481384e+01 -6.478641e+02 -1.292211e+03 -6.843476e+02 -1.518660e+01 0 0 0 0 
0 0 0 0 0 1.213155e+00 3.092271e+02 9.986830e+02 8.574708e+02 1.688568e+02 2.054998e+00 0 0 0 0 0 0 0 0 0 0 0 -2.054998e+00 -1.688568e+02 -8.574708e+02 -9.986830e+02 -3.092271e+02 -1.213155e+00 0 0 0 0 
0 0 0 0 0 0 6.907385e+01 5.911466e+02 1.014424e+03 5.984863e+02 1.110558e+02 4.924286e+00 3.894823e-03 0 0 0 0 0 0 0 -3.894823e-03 -4.924286e+00 -1.110558e+02 -5.984863e+02 -1.014424e+03 -5.911466e+02 -6.907385e+01 0 0 0 0 0 
0 0 0 0 0 0 7.017074e+00 2.021340e+02 7.545813e+02 9.961997e+02 6.286060e+02 2.205710e+02 3.123808e+01 2.497440e+00 -4.363802e-02 -3.461726e-03 0 3.461726e-03 4.363802e-02 -2.497440e+00 -3.123808e+01 -2.205710e+02 -6.286060e+02 -9.961997e+02 -7.545813e+02 -2.021340e+02 -7.017074e+00 0 0 0 0 0 
0 0 0 0 0 0 0 2.077687e+01 2.424927e+02 6.772792e+02 8.541666e+02 5.345546e+02 1.524390e+02 1.284004e+01 2.378794e+01 3.535720e+01 4.380745e-12 -3.535720e+01 -2.378794e+01 -1.284004e+01 -1.524390e+02 -5.345546e+02 -8.541666e+02 -6.772792e+02 -2.424927e+02 -2.077687e+01 0 0 0 0 0 0 
0 0 0 0 0 0 0 0 1.192268e+01 1.349829e+02 3.450873e+02 3.493911e+02 1.428644e+02 1.367733e+01 6.436337e+01 8.612753e+01 1.262866e-11 -8.612753e+01 -6.436337e+01 -1.367733e+01 -1.428644e+02 -3.493911e+02 -3.450873e+02 -1.349829e+02 -1.192268e+01 0 0 0 0 0 0 0 
0 0 0 0 0 0 0 0 0 1.518006e-01 1.052587e+01 3.048316e+01 2.165958e+01 3.480793e+00 4.116788e+01 5.149961e+01 8.598658e-12 -5.149961e+01 -4.116788e+01 -3.480793e+00 -2.165958e+01 -3.048316e+01 -1.052587e+01 -1.518006e-01 0 0 0 0 0 0 0 0 
0 0 0 0 0 0 0 0 0 0 0 0 0 1.460618e-01 6.360923e-01 7.327299e-01 3.495799e-13 -7.327299e-01 -6.360923e-01 -1.460618e-01 0 0 0 0 0 0 0 0 0 0 0 0 
0 0 0 0 0 0 0 0 0 0 0 0 0 0 0 0 0 0 0 0 0 0 0 0 0 0 0 0 0 0 0 0 
0 0 0 0 0 0 0 0 0 0 0 0 0 0 0 0 0 0 0 0 0 0 0 0 0 0 0 0 0 0 0 0 
0 0 0 0 0 0 0 0 0 0 0 0 0 0 0 0 0 0 0 0 0 0 0 0 0 0 0 0 0 0 0 0 
0 0 0 0 0 0 0 0 0 0 0 0 0 0 0 0 0 0 0 0 0 0 0 0 0 0 0 0 0 0 0 0 
0 0 0 0 0 0 0 0 0 0 0 0 0 0 0 0 0 0 0 0 0 0 0 0 0 0 0 0 0 0 0 0 
