# vtk DataFile Version 2.0
Comment goes here
ASCII

DATASET STRUCTURED_POINTS
FIELD FieldData 1
TIME 1 1 double
0.52000000
DIMENSIONS    32   32   1

ORIGIN    0.000   0.000   0.000
SPACING   0.03125 0.03125   1.000

POINT_DATA   1024
SCALARS fX double
LOOKUP_TABLE default

0 0 0 0 0 0 0 0 0 0 0 0 0 0 0 0 0 0 0 0 0 0 0 0 0 0 0 0 0 0 0 0 
0 0 0 0 0 0 0 0 0 0 0 0 0 0 0 0 0 0 0 0 0 0 0 0 0 0 0 0 0 0 0 0 
0 0 0 0 0 0 0 0 0 0 0 0 0 0 0 0 0 0 0 0 0 0 0 0 0 0 0 0 0 0 0 0 
0 0 0 0 0 0 0 0 0 0 0 0 0 0 0 0 0 0 0 0 0 0 0 0 0 0 0 0 0 0 0 0 
0 0 0 0 0 0 0 0 0 0 0 0 0 0 0 0 0 0 0 0 0 0 0 0 0 0 0 0 0 0 0 0 
0 0 0 0 0 0 0 0 0 0 0 0 0 0 0 0 0 0 0 0 0 0 0 0 0 0 0 0 0 0 0 0 
0 0 0 0 0 0 0 0 0 0 0 -2.471016e-01 7.240809e+00 5.546389e+01 7.339391e+01 5.225176e+01 2.542699e-11 -5.225176e+01 -7.339391e+01 -5.546389e+01 -7.240809e+00 2.471016e-01 0 0 0 0 0 0 0 0 0 0 
0 0 0 0 0 0 0 0 0 0 8.430072e+00 1.262223e+02 2.175736e+02 3.183449e+02 3.014851e+02 1.462946e+02 5.873408e-11 -1.462946e+02 -3.014851e+02 -3.183449e+02 -2.175736e+02 -1.262223e+02 -8.430072e+00 0 0 0 0 0 0 0 0 0 
0 0 0 0 0 0 0 0 0 2.525941e+01 1.808506e+02 5.351962e+02 5.882790e+02 4.026360e+02 2.573704e+02 1.003474e+02 3.346534e-11 -1.003474e+02 -2.573704e+02 -4.026360e+02 -5.882790e+02 -5.351962e+02 -1.808506e+02 -2.525941e+01 0 0 0 0 0 0 0 0 
0 0 0 0 0 0 0 0 2.100046e+01 2.554500e+02 6.193729e+02 6.999071e+02 4.341835e+02 1.425741e+02 2.927927e+01 6.304564e+00 1.546148e-13 -6.304564e+00 -2.927927e+01 -1.425741e+02 -4.341835e+02 -6.999071e+02 -6.193729e+02 -2.554500e+02 -2.100046e+01 0 0 0 0 0 0 0 
0 0 0 0 0 0 0 2.008987e+00 1.298118e+02 6.489047e+02 8.369789e+02 3.693642e+02 5.630628e+01 2.819122e+00 0 0 0 0 0 -2.819122e+00 -5.630628e+01 -3.693642e+02 -8.369789e+02 -6.489047e+02 -1.298118e+02 -2.008987e+00 0 0 0 0 0 0 
0 0 0 0 0 0 0 4.230825e+01 4.380371e+02 8.378344e+02 5.237950e+02 8.175843e+01 6.894186e-02 0 0 0 0 0 0 0 -6.894186e-02 -8.175843e+01 -5.237950e+02 -8.378344e+02 -4.380371e+02 -4.230825e+01 0 0 0 0 0 0 
0 0 0 0 0 0 0 1.601746e+02 7.591506e+02 7.724524e+02 1.770511e+02 3.574677e+00 0 0 0 0 0 0 0 0 0 -3.574677e+00 -1.770511e+02 -7.724524e+02 -7.591506e+02 -1.601746e+02 0 0 0 0 0 0 
0 0 0 0 0 0 3.057221e+00 3.628225e+02 9.107168e+02 5.980069e+02 4.705542e+01 0 0 0 0 0 0 0 0 0 0 0 -4.705542e+01 -5.980069e+02 -9.107168e+02 -3.628225e+02 -3.057221e+00 0 0 0 0 0 
0 0 0 0 0 0 1.574591e+01 5.614845e+02 9.603554e+02 4.184184e+02 3.801568e+00 0 0 0 0 0 0 0 0 0 0 0 -3.801568e+00 -4.184184e+02 -9.603554e+02 -5.614845e+02 -1.574591e+01 0 0 0 0 0 
0 0 0 0 0 0 3.636312e+01 6.388822e+02 8.985934e+02 2.961031e+02 2.876787e-02 0 0 0 0 0 0 0 0 0 0 0 -2.876787e-02 -2.961031e+02 -8.985934e+02 -6.388822e+02 -3.636312e+01 0 0 0 0 0 
0 0 0 0 0 0 4.734887e+01 6.406896e+02 8.380600e+02 2.447193e+02 0 0 0 0 0 0 0 0 0 0 0 0 0 -2.447193e+02 -8.380600e+02 -6.406896e+02 -4.734887e+01 0 0 0 0 0 
0 0 0 0 0 0 3.636312e+01 6.388822e+02 8.985934e+02 2.961031e+02 2.876787e-02 0 0 0 0 0 0 0 0 0 0 0 -2.876787e-02 -2.961031e+02 -8.985934e+02 -6.388822e+02 -3.636312e+01 0 0 0 0 0 
0 0 0 0 0 0 1.574591e+01 5.614845e+02 9.603554e+02 4.184184e+02 3.801568e+00 0 0 0 0 0 0 0 0 0 0 0 -3.801568e+00 -4.184184e+02 -9.603554e+02 -5.614845e+02 -1.574591e+01 0 0 0 0 0 
0 0 0 0 0 0 3.057221e+00 3.628225e+02 9.107168e+02 5.980069e+02 4.705542e+01 0 0 0 0 0 0 0 0 0 0 0 -4.705542e+01 -5.980069e+02 -9.107168e+02 -3.628225e+02 -3.057221e+00 0 0 0 0 0 
0 0 0 0 0 0 0 1.601746e+02 7.591506e+02 7.724524e+02 1.770511e+02 3.574677e+00 0 0 0 0 0 0 0 0 0 -3.574677e+00 -1.770511e+02 -7.724524e+02 -7.591506e+02 -1.601746e+02 0 0 0 0 0 0 
0 0 0 0 0 0 0 4.230825e+01 4.380371e+02 8.378344e+02 5.237950e+02 8.175843e+01 6.894186e-02 0 0 0 0 0 0 0 -6.894186e-02 -8.175843e+01 -5.237950e+02 -8.378344e+02 -4.380371e+02 -4.230825e+01 0 0 0 0 0 0 
0 0 0 0 0 0 0 2.008987e+00 1.298118e+02 6.489047e+02 8.369789e+02 3.693642e+02 5.630628e+01 2.819122e+00 0 0 0 0 0 -2.819122e+00 -5.630628e+01 -3.693642e+02 -8.369789e+02 -6.489047e+02 -1.298118e+02 -2.008987e+00 0 0 0 0 0 0 
0 0 0 0 0 0 0 0 2.100046e+01 2.554500e+02 6.193729e+02 6.999071e+02 4.341835e+02 1.425741e+02 2.927927e+01 6.304564e+00 -2.743781e-13 -6.304564e+00 -2.927927e+01 -1.425741e+02 -4.341835e+02 -6.999071e+02 -6.193729e+02 -2.554500e+02 -2.100046e+01 0 0 0 0 0 0 0 
0 0 0 0 0 0 0 0 0 2.525941e+01 1.808506e+02 5.351962e+02 5.882790e+02 4.026360e+02 2.573704e+02 1.003474e+02 3.437608e-12 -1.003474e+02 -2.573704e+02 -4.026360e+02 -5.882790e+02 -5.351962e+02 -1.808506e+02 -2.525941e+01 0 0 0 0 0 0 0 0 
0 0 0 0 0 0 0 0 0 0 8.430072e+00 1.262223e+02 2.175736e+02 3.183449e+02 3.014851e+02 1.462946e+02 1.019363e-11 -1.462946e+02 -3.014851e+02 -3.183449e+02 -2.175736e+02 -1.262223e+02 -8.430072e+00 0 0 0 0 0 0 0 0 0 
0 0 0 0 0 0 0 0 0 0 0 -2.471016e-01 7.240809e+00 5.546389e+01 7.339391e+01 5.225176e+01 6.477273e-12 -5.225176e+01 -7.339391e+01 -5.546389e+01 -7.240809e+00 2.471016e-01 0 0 0 0 0 0 0 0 0 0 
0 0 0 0 0 0 0 0 0 0 0 0 0 0 0 0 0 0 0 0 0 0 0 0 0 0 0 0 0 0 0 0 
0 0 0 0 0 0 0 0 0 0 0 0 0 0 0 0 0 0 0 0 0 0 0 0 0 0 0 0 0 0 0 0 
0 0 0 0 0 0 0 0 0 0 0 0 0 0 0 0 0 0 0 0 0 0 0 0 0 0 0 0 0 0 0 0 
0 0 0 0 0 0 0 0 0 0 0 0 0 0 0 0 0 0 0 0 0 0 0 0 0 0 0 0 0 0 0 0 
0 0 0 0 0 0 0 0 0 0 0 0 0 0 0 0 0 0 0 0 0 0 0 0 0 0 0 0 0 0 0 0 
