# vtk DataFile Version 2.0
Comment goes here
ASCII

DATASET STRUCTURED_POINTS
FIELD FieldData 1
TIME 1 1 double
0.58000000
DIMENSIONS    32   32   1

ORIGIN    0.000   0.000   0.000
SPACING   0.03125 0.03125   1.000

POINT_DATA   1024
SCALARS fX double
LOOKUP_TABLE default

0 0 0 0 0 0 0 0 0 0 0 0 0 0 0 0 0 0 0 0 0 0 0 0 0 0 0 0 0 0 0 0 
0 0 0 0 0 0 0 0 0 0 0 0 0 0 0 0 0 0 0 0 0 0 0 0 0 0 0 0 0 0 0 0 
0 0 0 0 0 0 0 0 0 0 0 0 0 0 0 0 0 0 0 0 0 0 0 0 0 0 0 0 0 0 0 0 
0 0 0 0 0 0 0 0 0 0 0 0 0 0 0 0 0 0 0 0 0 0 0 0 0 0 0 0 0 0 0 0 
0 0 0 0 0 0 0 0 0 0 0 0 0 0 0 0 0 0 0 0 0 0 0 0 0 0 0 0 0 0 0 0 
0 0 0 0 0 0 0 0 0 0 0 0 0 0 0 0 0 0 0 0 0 0 0 0 0 0 0 0 0 0 0 0 
0 0 0 0 0 0 0 0 0 0 0 0 0 0 0 0 0 0 0 0 0 0 0 0 0 0 0 0 0 0 0 0 
0 0 0 0 0 0 0 0 0 0 0 -2.355583e-02 2.204441e+00 6.994278e+00 5.301578e+00 8.820345e+00 -1.654250e-12 -8.820345e+00 -5.301578e+00 -6.994278e+00 -2.204441e+00 2.355583e-02 0 0 0 0 0 0 0 0 0 0 
0 0 0 0 0 0 0 0 0 7.245401e-01 1.646241e+01 8.665299e+01 1.083177e+02 1.285013e+02 9.158954e+01 5.128087e+01 7.545015e-12 -5.128087e+01 -9.158954e+01 -1.285013e+02 -1.083177e+02 -8.665299e+01 -1.646241e+01 -7.245401e-01 0 0 0 0 0 0 0 0 
0 0 0 0 0 0 0 2.077608e-01 1.651597e+01 1.162218e+02 2.589262e+02 3.997662e+02 3.226104e+02 2.072593e+02 1.254902e+02 5.189931e+01 1.471678e-11 -5.189931e+01 -1.254902e+02 -2.072593e+02 -3.226104e+02 -3.997662e+02 -2.589262e+02 -1.162218e+02 -1.651597e+01 -2.077608e-01 0 0 0 0 0 0 
0 0 0 0 0 0 0 3.408106e+01 2.667668e+02 5.789290e+02 5.791138e+02 4.185571e+02 2.350291e+02 8.841264e+01 3.920223e+01 9.438783e+00 5.514909e-12 -9.438783e+00 -3.920223e+01 -8.841264e+01 -2.350291e+02 -4.185571e+02 -5.791138e+02 -5.789290e+02 -2.667668e+02 -3.408106e+01 0 0 0 0 0 0 
0 0 0 0 0 0 2.175975e+01 2.668758e+02 7.358829e+02 7.980651e+02 3.996705e+02 1.082440e+02 1.853200e+01 2.660403e+00 0 0 0 0 0 -2.660403e+00 -1.853200e+01 -1.082440e+02 -3.996705e+02 -7.980651e+02 -7.358829e+02 -2.668758e+02 -2.175975e+01 0 0 0 0 0 
0 0 0 0 0 2.490926e+00 2.376182e+02 8.427882e+02 9.487654e+02 4.019496e+02 6.362153e+01 2.776481e+00 0 0 0 0 0 0 0 0 0 -2.776481e+00 -6.362153e+01 -4.019496e+02 -9.487654e+02 -8.427882e+02 -2.376182e+02 -2.490926e+00 0 0 0 0 
0 0 0 0 0 3.714752e+01 6.533064e+02 1.255695e+03 7.089214e+02 6.998646e+01 6.010683e-01 0 0 0 0 0 0 0 0 0 0 0 -6.010683e-01 -6.998646e+01 -7.089214e+02 -1.255695e+03 -6.533064e+02 -3.714752e+01 0 0 0 0 
0 0 0 0 0 1.379688e+02 1.003172e+03 1.206437e+03 3.439047e+02 2.670199e+00 0 0 0 0 0 0 0 0 0 0 0 0 0 -2.670199e+00 -3.439047e+02 -1.206437e+03 -1.003172e+03 -1.379688e+02 0 0 0 0 
0 0 0 0 0 2.643206e+02 1.180728e+03 1.062965e+03 1.465570e+02 0 0 0 0 0 0 0 0 0 0 0 0 0 0 0 -1.465570e+02 -1.062965e+03 -1.180728e+03 -2.643206e+02 0 0 0 0 
0 0 0 0 0 3.220168e+02 1.230009e+03 1.004873e+03 9.688085e+01 0 0 0 0 0 0 0 0 0 0 0 0 0 0 0 -9.688085e+01 -1.004873e+03 -1.230009e+03 -3.220168e+02 0 0 0 0 
0 0 0 0 0 2.643206e+02 1.180728e+03 1.062965e+03 1.465570e+02 0 0 0 0 0 0 0 0 0 0 0 0 0 0 0 -1.465570e+02 -1.062965e+03 -1.180728e+03 -2.643206e+02 0 0 0 0 
0 0 0 0 0 1.379688e+02 1.003172e+03 1.206437e+03 3.439047e+02 2.670199e+00 0 0 0 0 0 0 0 0 0 0 0 0 0 -2.670199e+00 -3.439047e+02 -1.206437e+03 -1.003172e+03 -1.379688e+02 0 0 0 0 
0 0 0 0 0 3.714752e+01 6.533064e+02 1.255695e+03 7.089214e+02 6.998646e+01 6.010683e-01 0 0 0 0 0 0 0 0 0 0 0 -6.010683e-01 -6.998646e+01 -7.089214e+02 -1.255695e+03 -6.533064e+02 -3.714752e+01 0 0 0 0 
0 0 0 0 0 2.490926e+00 2.376182e+02 8.427882e+02 9.487654e+02 4.019496e+02 6.362153e+01 2.776481e+00 0 0 0 0 0 0 0 0 0 -2.776481e+00 -6.362153e+01 -4.019496e+02 -9.487654e+02 -8.427882e+02 -2.376182e+02 -2.490926e+00 0 0 0 0 
0 0 0 0 0 0 2.175975e+01 2.668758e+02 7.358829e+02 7.980651e+02 3.996705e+02 1.082440e+02 1.853200e+01 2.660403e+00 0 0 0 0 0 -2.660403e+00 -1.853200e+01 -1.082440e+02 -3.996705e+02 -7.980651e+02 -7.358829e+02 -2.668758e+02 -2.175975e+01 0 0 0 0 0 
0 0 0 0 0 0 0 3.408106e+01 2.667668e+02 5.789290e+02 5.791138e+02 4.185571e+02 2.350291e+02 8.841264e+01 3.920223e+01 9.438783e+00 1.801213e-12 -9.438783e+00 -3.920223e+01 -8.841264e+01 -2.350291e+02 -4.185571e+02 -5.791138e+02 -5.789290e+02 -2.667668e+02 -3.408106e+01 0 0 0 0 0 0 
0 0 0 0 0 0 0 2.077608e-01 1.651597e+01 1.162218e+02 2.589262e+02 3.997662e+02 3.226104e+02 2.072593e+02 1.254902e+02 5.189931e+01 -2.405018e-14 -5.189931e+01 -1.254902e+02 -2.072593e+02 -3.226104e+02 -3.997662e+02 -2.589262e+02 -1.162218e+02 -1.651597e+01 -2.077608e-01 0 0 0 0 0 0 
0 0 0 0 0 0 0 0 0 7.245401e-01 1.646241e+01 8.665299e+01 1.083177e+02 1.285013e+02 9.158954e+01 5.128087e+01 -4.271729e-12 -5.128087e+01 -9.158954e+01 -1.285013e+02 -1.083177e+02 -8.665299e+01 -1.646241e+01 -7.245401e-01 0 0 0 0 0 0 0 0 
0 0 0 0 0 0 0 0 0 0 0 -2.355583e-02 2.204441e+00 6.994278e+00 5.301578e+00 8.820345e+00 -2.440804e-12 -8.820345e+00 -5.301578e+00 -6.994278e+00 -2.204441e+00 2.355583e-02 0 0 0 0 0 0 0 0 0 0 
0 0 0 0 0 0 0 0 0 0 0 0 0 0 0 0 0 0 0 0 0 0 0 0 0 0 0 0 0 0 0 0 
0 0 0 0 0 0 0 0 0 0 0 0 0 0 0 0 0 0 0 0 0 0 0 0 0 0 0 0 0 0 0 0 
0 0 0 0 0 0 0 0 0 0 0 0 0 0 0 0 0 0 0 0 0 0 0 0 0 0 0 0 0 0 0 0 
0 0 0 0 0 0 0 0 0 0 0 0 0 0 0 0 0 0 0 0 0 0 0 0 0 0 0 0 0 0 0 0 
0 0 0 0 0 0 0 0 0 0 0 0 0 0 0 0 0 0 0 0 0 0 0 0 0 0 0 0 0 0 0 0 
0 0 0 0 0 0 0 0 0 0 0 0 0 0 0 0 0 0 0 0 0 0 0 0 0 0 0 0 0 0 0 0 
