# vtk DataFile Version 2.0
Comment goes here
ASCII

DATASET STRUCTURED_POINTS
FIELD FieldData 1
TIME 1 1 double
0.04000000
DIMENSIONS    32   32   1

ORIGIN    0.000   0.000   0.000
SPACING   0.03125 0.03125   1.000

POINT_DATA   1024
SCALARS fX double
LOOKUP_TABLE default

0 0 0 0 0 0 0 0 0 0 0 0 0 0 0 0 0 0 0 0 0 0 0 0 0 0 0 0 0 0 0 0 
0 0 0 0 0 0 0 0 0 0 0 0 0 0 0 0 0 0 0 0 0 0 0 0 0 0 0 0 0 0 0 0 
0 0 0 0 0 0 0 0 0 0 0 0 0 0 0 0 0 0 0 0 0 0 0 0 0 0 0 0 0 0 0 0 
0 0 0 0 0 0 0 0 0 0 0 0 0 0 0 0 0 0 0 0 0 0 0 0 0 0 0 0 0 0 0 0 
0 0 0 0 0 0 0 0 0 0 0 0 0 0 0 0 0 0 0 0 0 0 0 0 0 0 0 0 0 0 0 0 
0 0 0 0 0 0 0 0 0 0 0 0 1.471112e-03 2.024530e-01 -3.492720e-01 -1.181983e+00 4.224045e-13 1.181983e+00 3.492720e-01 -2.024530e-01 -1.471112e-03 0 0 0 0 0 0 0 0 0 0 0 
0 0 0 0 0 0 0 0 0 0 5.011010e+00 6.678826e+01 2.009181e+02 2.435865e+02 1.142444e+02 -7.238806e+00 1.097294e-11 7.238806e+00 -1.142444e+02 -2.435865e+02 -2.009181e+02 -6.678826e+01 -5.011010e+00 0 0 0 0 0 0 0 0 0 
0 0 0 0 0 0 0 0 1.570941e-01 3.171465e+01 2.897319e+02 7.845394e+02 1.014529e+03 7.354599e+02 2.707057e+02 -2.017795e+00 1.628472e-11 2.017795e+00 -2.707057e+02 -7.354599e+02 -1.014529e+03 -7.845394e+02 -2.897319e+02 -3.171465e+01 -1.570941e-01 0 0 0 0 0 0 0 
0 0 0 0 0 0 0 0 3.612060e+01 4.161031e+02 1.089069e+03 1.381095e+03 1.060758e+03 5.351597e+02 1.594715e+02 4.039028e+00 5.728120e-12 -4.039028e+00 -1.594715e+02 -5.351597e+02 -1.060758e+03 -1.381095e+03 -1.089069e+03 -4.161031e+02 -3.612060e+01 0 0 0 0 0 0 0 
0 0 0 0 0 0 0 4.861854e+00 2.588887e+02 1.061171e+03 1.373727e+03 7.774818e+02 2.506235e+02 4.308380e+01 3.359453e+00 0 0 0 -3.359453e+00 -4.308380e+01 -2.506235e+02 -7.774818e+02 -1.373727e+03 -1.061171e+03 -2.588887e+02 -4.861854e+00 0 0 0 0 0 0 
0 0 0 0 0 0 0 5.019176e+01 6.566995e+02 1.261012e+03 7.681650e+02 1.171383e+02 3.477689e+00 0 0 0 0 0 0 0 -3.477689e+00 -1.171383e+02 -7.681650e+02 -1.261012e+03 -6.566995e+02 -5.019176e+01 0 0 0 0 0 0 
0 0 0 0 0 0 1.742453e-03 1.634765e+02 8.831555e+02 9.619388e+02 2.452586e+02 3.000559e+00 0 0 0 0 0 0 0 0 0 -3.000559e+00 -2.452586e+02 -9.619388e+02 -8.831555e+02 -1.634765e+02 -1.742453e-03 0 0 0 0 0 
0 0 0 0 0 0 5.120688e-01 2.734624e+02 7.925565e+02 5.703018e+02 5.069558e+01 0 0 0 0 0 0 0 0 0 0 0 -5.069558e+01 -5.703018e+02 -7.925565e+02 -2.734624e+02 -5.120688e-01 0 0 0 0 0 
0 0 0 0 0 0 5.550540e+00 3.315494e+02 6.256819e+02 3.039060e+02 4.222982e+00 0 0 0 0 0 0 0 0 0 0 0 -4.222982e+00 -3.039060e+02 -6.256819e+02 -3.315494e+02 -5.550540e+00 0 0 0 0 0 
0 0 0 0 0 0 1.591131e+01 3.534226e+02 5.248936e+02 1.873823e+02 0 0 0 0 0 0 0 0 0 0 0 0 0 -1.873823e+02 -5.248936e+02 -3.534226e+02 -1.591131e+01 0 0 0 0 0 
0 0 0 0 0 0 2.449005e+01 3.414861e+02 4.509559e+02 1.339599e+02 0 0 0 0 0 0 0 0 0 0 0 0 0 -1.339599e+02 -4.509559e+02 -3.414861e+02 -2.449005e+01 0 0 0 0 0 
0 0 0 0 0 0 2.723791e+01 3.285944e+02 4.171379e+02 1.157814e+02 0 0 0 0 0 0 0 0 0 0 0 0 0 -1.157814e+02 -4.171379e+02 -3.285944e+02 -2.723791e+01 0 0 0 0 0 
0 0 0 0 0 0 2.449005e+01 3.414861e+02 4.509559e+02 1.339599e+02 0 0 0 0 0 0 0 0 0 0 0 0 0 -1.339599e+02 -4.509559e+02 -3.414861e+02 -2.449005e+01 0 0 0 0 0 
0 0 0 0 0 0 1.591131e+01 3.534226e+02 5.248936e+02 1.873823e+02 0 0 0 0 0 0 0 0 0 0 0 0 0 -1.873823e+02 -5.248936e+02 -3.534226e+02 -1.591131e+01 0 0 0 0 0 
0 0 0 0 0 0 5.550540e+00 3.315494e+02 6.256819e+02 3.039060e+02 4.222982e+00 0 0 0 0 0 0 0 0 0 0 0 -4.222982e+00 -3.039060e+02 -6.256819e+02 -3.315494e+02 -5.550540e+00 0 0 0 0 0 
0 0 0 0 0 0 5.120688e-01 2.734624e+02 7.925565e+02 5.703018e+02 5.069558e+01 0 0 0 0 0 0 0 0 0 0 0 -5.069558e+01 -5.703018e+02 -7.925565e+02 -2.734624e+02 -5.120688e-01 0 0 0 0 0 
0 0 0 0 0 0 1.742453e-03 1.634765e+02 8.831555e+02 9.619388e+02 2.452586e+02 3.000559e+00 0 0 0 0 0 0 0 0 0 -3.000559e+00 -2.452586e+02 -9.619388e+02 -8.831555e+02 -1.634765e+02 -1.742453e-03 0 0 0 0 0 
0 0 0 0 0 0 0 5.019176e+01 6.566995e+02 1.261012e+03 7.681650e+02 1.171383e+02 3.477689e+00 0 0 0 0 0 0 0 -3.477689e+00 -1.171383e+02 -7.681650e+02 -1.261012e+03 -6.566995e+02 -5.019176e+01 0 0 0 0 0 0 
0 0 0 0 0 0 0 4.861854e+00 2.588887e+02 1.061171e+03 1.373727e+03 7.774818e+02 2.506235e+02 4.308380e+01 3.359453e+00 0 0 0 -3.359453e+00 -4.308380e+01 -2.506235e+02 -7.774818e+02 -1.373727e+03 -1.061171e+03 -2.588887e+02 -4.861854e+00 0 0 0 0 0 0 
0 0 0 0 0 0 0 0 3.612060e+01 4.161031e+02 1.089069e+03 1.381095e+03 1.060758e+03 5.351597e+02 1.594715e+02 4.039028e+00 5.121872e-12 -4.039028e+00 -1.594715e+02 -5.351597e+02 -1.060758e+03 -1.381095e+03 -1.089069e+03 -4.161031e+02 -3.612060e+01 0 0 0 0 0 0 0 
0 0 0 0 0 0 0 0 1.570941e-01 3.171465e+01 2.897319e+02 7.845394e+02 1.014529e+03 7.354599e+02 2.707057e+02 -2.017795e+00 1.757928e-11 2.017795e+00 -2.707057e+02 -7.354599e+02 -1.014529e+03 -7.845394e+02 -2.897319e+02 -3.171465e+01 -1.570941e-01 0 0 0 0 0 0 0 
0 0 0 0 0 0 0 0 0 0 5.011010e+00 6.678826e+01 2.009181e+02 2.435865e+02 1.142444e+02 -7.238806e+00 1.335859e-11 7.238806e+00 -1.142444e+02 -2.435865e+02 -2.009181e+02 -6.678826e+01 -5.011010e+00 0 0 0 0 0 0 0 0 0 
0 0 0 0 0 0 0 0 0 0 0 0 1.471112e-03 2.024530e-01 -3.492720e-01 -1.181983e+00 9.025486e-13 1.181983e+00 3.492720e-01 -2.024530e-01 -1.471112e-03 0 0 0 0 0 0 0 0 0 0 0 
0 0 0 0 0 0 0 0 0 0 0 0 0 0 0 0 0 0 0 0 0 0 0 0 0 0 0 0 0 0 0 0 
0 0 0 0 0 0 0 0 0 0 0 0 0 0 0 0 0 0 0 0 0 0 0 0 0 0 0 0 0 0 0 0 
0 0 0 0 0 0 0 0 0 0 0 0 0 0 0 0 0 0 0 0 0 0 0 0 0 0 0 0 0 0 0 0 
0 0 0 0 0 0 0 0 0 0 0 0 0 0 0 0 0 0 0 0 0 0 0 0 0 0 0 0 0 0 0 0 
