# vtk DataFile Version 2.0
Comment goes here
ASCII

DATASET STRUCTURED_POINTS
FIELD FieldData 1
TIME 1 1 double
1.06000000
DIMENSIONS    32   32   1

ORIGIN    0.000   0.000   0.000
SPACING   0.03125 0.03125   1.000

POINT_DATA   1024
SCALARS fX double
LOOKUP_TABLE default

0 0 0 0 0 0 0 0 0 0 0 0 0 0 0 0 0 0 0 0 0 0 0 0 0 0 0 0 0 0 0 0 
0 0 0 0 0 0 0 0 0 0 0 0 0 0 0 0 0 0 0 0 0 0 0 0 0 0 0 0 0 0 0 0 
0 0 0 0 0 0 0 0 0 0 0 0 0 0 0 0 0 0 0 0 0 0 0 0 0 0 0 0 0 0 0 0 
0 0 0 0 0 0 0 0 0 0 0 0 0 0 0 0 0 0 0 0 0 0 0 0 0 0 0 0 0 0 0 0 
0 0 0 0 0 0 0 0 0 0 0 0 0 0 0 0 0 0 0 0 0 0 0 0 0 0 0 0 0 0 0 0 
0 0 0 0 0 0 0 0 0 0 0 0 0 0 0 0 0 0 0 0 0 0 0 0 0 0 0 0 0 0 0 0 
0 0 0 0 0 0 0 0 0 0 0 0 0 0 0 0 0 0 0 0 0 0 0 0 0 0 0 0 0 0 0 0 
0 0 0 0 0 0 0 0 0 0 0 0 7.498152e-01 1.314589e+01 1.669654e+01 1.863939e+01 1.117949e-11 -1.863939e+01 -1.669654e+01 -1.314589e+01 -7.498152e-01 0 0 0 0 0 0 0 0 0 0 0 
0 0 0 0 0 0 0 0 0 0 -2.733254e-01 3.701037e+01 8.036937e+01 1.553253e+02 1.699305e+02 1.239004e+02 5.905940e-11 -1.239004e+02 -1.699305e+02 -1.553253e+02 -8.036937e+01 -3.701037e+01 2.733254e-01 0 0 0 0 0 0 0 0 0 
0 0 0 0 0 0 0 0 0 5.677206e+00 7.976556e+01 2.597762e+02 4.354230e+02 3.790603e+02 2.065218e+02 1.366106e+02 5.659175e-11 -1.366106e+02 -2.065218e+02 -3.790603e+02 -4.354230e+02 -2.597762e+02 -7.976556e+01 -5.677206e+00 0 0 0 0 0 0 0 0 
0 0 0 0 0 0 0 0 2.413879e+00 7.835169e+01 4.218614e+02 6.188897e+02 5.020060e+02 2.606924e+02 5.545884e+01 3.134961e+01 8.712698e-12 -3.134961e+01 -5.545884e+01 -2.606924e+02 -5.020060e+02 -6.188897e+02 -4.218614e+02 -7.835169e+01 -2.413879e+00 0 0 0 0 0 0 0 
0 0 0 0 0 0 0 0 5.300281e+01 3.704930e+02 7.113236e+02 5.296991e+02 1.575123e+02 2.381768e+01 2.170962e+00 0 0 0 -2.170962e+00 -2.381768e+01 -1.575123e+02 -5.296991e+02 -7.113236e+02 -3.704930e+02 -5.300281e+01 0 0 0 0 0 0 0 
0 0 0 0 0 0 0 7.702929e+00 2.958360e+02 7.902569e+02 6.452630e+02 1.544428e+02 1.130983e+01 6.180648e-03 0 0 0 0 0 -6.180648e-03 -1.130983e+01 -1.544428e+02 -6.452630e+02 -7.902569e+02 -2.958360e+02 -7.702929e+00 0 0 0 0 0 0 
0 0 0 0 0 0 0 3.465115e+01 5.513040e+02 9.022098e+02 4.067225e+02 2.116550e+01 1.978242e-05 0 0 0 0 0 0 0 -1.978242e-05 -2.116550e+01 -4.067225e+02 -9.022098e+02 -5.513040e+02 -3.465115e+01 0 0 0 0 0 0 
0 0 0 0 0 0 0 1.348646e+02 7.431969e+02 7.787338e+02 1.706994e+02 2.978276e-01 0 0 0 0 0 0 0 0 0 -2.978276e-01 -1.706994e+02 -7.787338e+02 -7.431969e+02 -1.348646e+02 0 0 0 0 0 0 
0 0 0 0 0 0 0 2.364785e+02 8.783299e+02 7.069895e+02 6.513808e+01 0 0 0 0 0 0 0 0 0 0 0 -6.513808e+01 -7.069895e+02 -8.783299e+02 -2.364785e+02 0 0 0 0 0 0 
0 0 0 0 0 0 0 2.571241e+02 8.823797e+02 6.760542e+02 5.079855e+01 0 0 0 0 0 0 0 0 0 0 0 -5.079855e+01 -6.760542e+02 -8.823797e+02 -2.571241e+02 0 0 0 0 0 0 
0 0 0 0 0 0 0 2.364785e+02 8.783299e+02 7.069895e+02 6.513808e+01 0 0 0 0 0 0 0 0 0 0 0 -6.513808e+01 -7.069895e+02 -8.783299e+02 -2.364785e+02 0 0 0 0 0 0 
0 0 0 0 0 0 0 1.348646e+02 7.431969e+02 7.787338e+02 1.706994e+02 2.978276e-01 0 0 0 0 0 0 0 0 0 -2.978276e-01 -1.706994e+02 -7.787338e+02 -7.431969e+02 -1.348646e+02 0 0 0 0 0 0 
0 0 0 0 0 0 0 3.465115e+01 5.513040e+02 9.022098e+02 4.067225e+02 2.116550e+01 1.978242e-05 0 0 0 0 0 0 0 -1.978242e-05 -2.116550e+01 -4.067225e+02 -9.022098e+02 -5.513040e+02 -3.465115e+01 0 0 0 0 0 0 
0 0 0 0 0 0 0 7.702929e+00 2.958360e+02 7.902569e+02 6.452630e+02 1.544428e+02 1.130983e+01 6.180648e-03 0 0 0 0 0 -6.180648e-03 -1.130983e+01 -1.544428e+02 -6.452630e+02 -7.902569e+02 -2.958360e+02 -7.702929e+00 0 0 0 0 0 0 
0 0 0 0 0 0 0 0 5.300281e+01 3.704930e+02 7.113236e+02 5.296991e+02 1.575123e+02 2.381768e+01 2.170962e+00 0 0 0 -2.170962e+00 -2.381768e+01 -1.575123e+02 -5.296991e+02 -7.113236e+02 -3.704930e+02 -5.300281e+01 0 0 0 0 0 0 0 
0 0 0 0 0 0 0 0 2.413879e+00 7.835169e+01 4.218614e+02 6.188897e+02 5.020060e+02 2.606924e+02 5.545884e+01 3.134961e+01 -6.773853e-12 -3.134961e+01 -5.545884e+01 -2.606924e+02 -5.020060e+02 -6.188897e+02 -4.218614e+02 -7.835169e+01 -2.413879e+00 0 0 0 0 0 0 0 
0 0 0 0 0 0 0 0 0 5.677206e+00 7.976556e+01 2.597762e+02 4.354230e+02 3.790603e+02 2.065218e+02 1.366106e+02 -5.930013e-11 -1.366106e+02 -2.065218e+02 -3.790603e+02 -4.354230e+02 -2.597762e+02 -7.976556e+01 -5.677206e+00 0 0 0 0 0 0 0 0 
0 0 0 0 0 0 0 0 0 0 -2.733254e-01 3.701037e+01 8.036937e+01 1.553253e+02 1.699305e+02 1.239004e+02 -7.087284e-11 -1.239004e+02 -1.699305e+02 -1.553253e+02 -8.036937e+01 -3.701037e+01 2.733254e-01 0 0 0 0 0 0 0 0 0 
0 0 0 0 0 0 0 0 0 0 0 0 7.498152e-01 1.314589e+01 1.669654e+01 1.863939e+01 -1.835672e-11 -1.863939e+01 -1.669654e+01 -1.314589e+01 -7.498152e-01 0 0 0 0 0 0 0 0 0 0 0 
0 0 0 0 0 0 0 0 0 0 0 0 0 0 0 0 0 0 0 0 0 0 0 0 0 0 0 0 0 0 0 0 
0 0 0 0 0 0 0 0 0 0 0 0 0 0 0 0 0 0 0 0 0 0 0 0 0 0 0 0 0 0 0 0 
0 0 0 0 0 0 0 0 0 0 0 0 0 0 0 0 0 0 0 0 0 0 0 0 0 0 0 0 0 0 0 0 
0 0 0 0 0 0 0 0 0 0 0 0 0 0 0 0 0 0 0 0 0 0 0 0 0 0 0 0 0 0 0 0 
0 0 0 0 0 0 0 0 0 0 0 0 0 0 0 0 0 0 0 0 0 0 0 0 0 0 0 0 0 0 0 0 
0 0 0 0 0 0 0 0 0 0 0 0 0 0 0 0 0 0 0 0 0 0 0 0 0 0 0 0 0 0 0 0 
