# vtk DataFile Version 2.0
Comment goes here
ASCII

DATASET STRUCTURED_POINTS
FIELD FieldData 1
TIME 1 1 double
1.28000000
DIMENSIONS    32   32   1

ORIGIN    0.000   0.000   0.000
SPACING   0.03125 0.03125   1.000

POINT_DATA   1024
SCALARS fX double
LOOKUP_TABLE default

0 0 0 0 0 0 0 0 0 0 0 0 0 0 0 0 0 0 0 0 0 0 0 0 0 0 0 0 0 0 0 0 
0 0 0 0 0 0 0 0 0 0 0 0 0 0 0 0 0 0 0 0 0 0 0 0 0 0 0 0 0 0 0 0 
0 0 0 0 0 0 0 0 0 0 0 0 0 0 0 0 0 0 0 0 0 0 0 0 0 0 0 0 0 0 0 0 
0 0 0 0 0 0 0 0 0 0 0 0 0 0 0 0 0 0 0 0 0 0 0 0 0 0 0 0 0 0 0 0 
0 0 0 0 0 0 0 0 0 0 0 0 0 0 0 0 0 0 0 0 0 0 0 0 0 0 0 0 0 0 0 0 
0 0 0 0 0 0 0 0 0 0 0 0 0 0 0 0 0 0 0 0 0 0 0 0 0 0 0 0 0 0 0 0 
0 0 0 0 0 0 0 0 0 0 0 0 0 0 0 0 0 0 0 0 0 0 0 0 0 0 0 0 0 0 0 0 
0 0 0 0 0 0 0 0 0 0 0 0 1.725728e-02 -1.227872e+00 -9.316089e+00 -6.958005e+00 3.015165e-12 6.958005e+00 9.316089e+00 1.227872e+00 -1.725728e-02 0 0 0 0 0 0 0 0 0 0 0 
0 0 0 0 0 0 0 0 0 0 0 1.188686e+01 1.892197e+01 1.399496e+02 1.585065e+02 1.994226e+01 1.557375e-10 -1.994226e+01 -1.585065e+02 -1.399496e+02 -1.892197e+01 -1.188686e+01 0 0 0 0 0 0 0 0 0 0 
0 0 0 0 0 0 0 0 0 1.070753e-01 2.237027e+01 1.095031e+02 3.068805e+02 4.330041e+02 3.289216e+02 1.020257e+02 2.273638e-10 -1.020257e+02 -3.289216e+02 -4.330041e+02 -3.068805e+02 -1.095031e+02 -2.237027e+01 -1.070753e-01 0 0 0 0 0 0 0 0 
0 0 0 0 0 0 0 0 0 6.175673e+00 1.954357e+02 4.671006e+02 5.525423e+02 3.662802e+02 1.729750e+02 7.462677e+01 7.463495e-11 -7.462677e+01 -1.729750e+02 -3.662802e+02 -5.525423e+02 -4.671006e+02 -1.954357e+02 -6.175673e+00 0 0 0 0 0 0 0 0 
0 0 0 0 0 0 0 0 2.899594e-01 1.517932e+02 5.404798e+02 6.438094e+02 3.183689e+02 7.591058e+01 1.187592e+01 -4.986707e-01 0 4.986707e-01 -1.187592e+01 -7.591058e+01 -3.183689e+02 -6.438094e+02 -5.404798e+02 -1.517932e+02 -2.899594e-01 0 0 0 0 0 0 0 
0 0 0 0 0 0 0 0 5.629518e+01 4.690848e+02 7.559385e+02 3.958747e+02 5.418281e+01 1.456948e+00 0 0 0 0 0 -1.456948e+00 -5.418281e+01 -3.958747e+02 -7.559385e+02 -4.690848e+02 -5.629518e+01 0 0 0 0 0 0 0 
0 0 0 0 0 0 0 6.588972e-02 1.609890e+02 7.146452e+02 7.085677e+02 1.552261e+02 3.804533e-01 0 0 0 0 0 0 0 -3.804533e-01 -1.552261e+02 -7.085677e+02 -7.146452e+02 -1.609890e+02 -6.588972e-02 0 0 0 0 0 0 
0 0 0 0 0 0 0 1.736738e+00 3.461314e+02 8.187441e+02 5.084695e+02 3.412005e+01 0 0 0 0 0 0 0 0 0 -3.412005e+01 -5.084695e+02 -8.187441e+02 -3.461314e+02 -1.736738e+00 0 0 0 0 0 0 
0 0 0 0 0 0 0 6.680188e+00 4.993190e+02 8.522662e+02 3.600710e+02 4.435988e-01 0 0 0 0 0 0 0 0 0 -4.435988e-01 -3.600710e+02 -8.522662e+02 -4.993190e+02 -6.680188e+00 0 0 0 0 0 0 
0 0 0 0 0 0 0 1.001868e+01 5.163427e+02 8.496143e+02 3.432903e+02 0 0 0 0 0 0 0 0 0 0 0 -3.432903e+02 -8.496143e+02 -5.163427e+02 -1.001868e+01 0 0 0 0 0 0 
0 0 0 0 0 0 0 6.680188e+00 4.993190e+02 8.522662e+02 3.600710e+02 4.435988e-01 0 0 0 0 0 0 0 0 0 -4.435988e-01 -3.600710e+02 -8.522662e+02 -4.993190e+02 -6.680188e+00 0 0 0 0 0 0 
0 0 0 0 0 0 0 1.736738e+00 3.461314e+02 8.187441e+02 5.084695e+02 3.412005e+01 0 0 0 0 0 0 0 0 0 -3.412005e+01 -5.084695e+02 -8.187441e+02 -3.461314e+02 -1.736738e+00 0 0 0 0 0 0 
0 0 0 0 0 0 0 6.588972e-02 1.609890e+02 7.146452e+02 7.085677e+02 1.552261e+02 3.804533e-01 0 0 0 0 0 0 0 -3.804533e-01 -1.552261e+02 -7.085677e+02 -7.146452e+02 -1.609890e+02 -6.588972e-02 0 0 0 0 0 0 
0 0 0 0 0 0 0 0 5.629518e+01 4.690848e+02 7.559385e+02 3.958747e+02 5.418281e+01 1.456948e+00 0 0 0 0 0 -1.456948e+00 -5.418281e+01 -3.958747e+02 -7.559385e+02 -4.690848e+02 -5.629518e+01 0 0 0 0 0 0 0 
0 0 0 0 0 0 0 0 2.899594e-01 1.517932e+02 5.404798e+02 6.438094e+02 3.183689e+02 7.591058e+01 1.187592e+01 -4.986707e-01 0 4.986707e-01 -1.187592e+01 -7.591058e+01 -3.183689e+02 -6.438094e+02 -5.404798e+02 -1.517932e+02 -2.899594e-01 0 0 0 0 0 0 0 
0 0 0 0 0 0 0 0 0 6.175673e+00 1.954357e+02 4.671006e+02 5.525423e+02 3.662802e+02 1.729750e+02 7.462677e+01 -1.023387e-10 -7.462677e+01 -1.729750e+02 -3.662802e+02 -5.525423e+02 -4.671006e+02 -1.954357e+02 -6.175673e+00 0 0 0 0 0 0 0 0 
0 0 0 0 0 0 0 0 0 1.070753e-01 2.237027e+01 1.095031e+02 3.068805e+02 4.330041e+02 3.289216e+02 1.020257e+02 -1.126383e-10 -1.020257e+02 -3.289216e+02 -4.330041e+02 -3.068805e+02 -1.095031e+02 -2.237027e+01 -1.070753e-01 0 0 0 0 0 0 0 0 
0 0 0 0 0 0 0 0 0 0 0 1.188686e+01 1.892197e+01 1.399496e+02 1.585065e+02 1.994226e+01 3.399545e-11 -1.994226e+01 -1.585065e+02 -1.399496e+02 -1.892197e+01 -1.188686e+01 0 0 0 0 0 0 0 0 0 0 
0 0 0 0 0 0 0 0 0 0 0 0 1.725728e-02 -1.227872e+00 -9.316089e+00 -6.958005e+00 4.429235e-11 6.958005e+00 9.316089e+00 1.227872e+00 -1.725728e-02 0 0 0 0 0 0 0 0 0 0 0 
0 0 0 0 0 0 0 0 0 0 0 0 0 0 0 0 0 0 0 0 0 0 0 0 0 0 0 0 0 0 0 0 
0 0 0 0 0 0 0 0 0 0 0 0 0 0 0 0 0 0 0 0 0 0 0 0 0 0 0 0 0 0 0 0 
0 0 0 0 0 0 0 0 0 0 0 0 0 0 0 0 0 0 0 0 0 0 0 0 0 0 0 0 0 0 0 0 
0 0 0 0 0 0 0 0 0 0 0 0 0 0 0 0 0 0 0 0 0 0 0 0 0 0 0 0 0 0 0 0 
0 0 0 0 0 0 0 0 0 0 0 0 0 0 0 0 0 0 0 0 0 0 0 0 0 0 0 0 0 0 0 0 
0 0 0 0 0 0 0 0 0 0 0 0 0 0 0 0 0 0 0 0 0 0 0 0 0 0 0 0 0 0 0 0 
