# vtk DataFile Version 2.0
Comment goes here
ASCII

DATASET STRUCTURED_POINTS
FIELD FieldData 1
TIME 1 1 double
0.24000000
DIMENSIONS    32   32   1

ORIGIN    0.000   0.000   0.000
SPACING   0.03125 0.03125   1.000

POINT_DATA   1024
SCALARS fX double
LOOKUP_TABLE default

0 0 0 0 0 0 0 0 0 0 0 0 0 0 0 0 0 0 0 0 0 0 0 0 0 0 0 0 0 0 0 0 
0 0 0 0 0 0 0 0 0 0 0 0 0 0 0 0 0 0 0 0 0 0 0 0 0 0 0 0 0 0 0 0 
0 0 0 0 0 0 0 0 0 0 0 0 0 0 0 0 0 0 0 0 0 0 0 0 0 0 0 0 0 0 0 0 
0 0 0 0 0 0 0 0 0 0 0 0 0 0 0 0 0 0 0 0 0 0 0 0 0 0 0 0 0 0 0 0 
0 0 0 0 0 0 0 0 0 0 0 0 0 0 0 0 0 0 0 0 0 0 0 0 0 0 0 0 0 0 0 0 
0 0 0 0 0 0 0 0 0 0 0 0 0 0 0 0 0 0 0 0 0 0 0 0 0 0 0 0 0 0 0 0 
0 0 0 0 0 0 0 0 0 0 0 0 0 0 0 0 0 0 0 0 0 0 0 0 0 0 0 0 0 0 0 0 
0 0 0 0 0 0 0 0 0 0 0 0 0 0 0 0 0 0 0 0 0 0 0 0 0 0 0 0 0 0 0 0 
0 0 0 0 0 0 0 0 0 1.268556e+00 1.361513e+01 3.467498e+01 4.406815e+01 3.630725e+01 2.759098e+00 -1.445912e+01 -1.221419e-11 1.445912e+01 -2.759098e+00 -3.630725e+01 -4.406815e+01 -3.467498e+01 -1.361513e+01 -1.268556e+00 0 0 0 0 0 0 0 0 
0 0 0 0 0 0 6.358699e-03 2.929120e+00 3.915998e+01 1.327377e+02 2.363655e+02 2.819247e+02 2.149934e+02 1.194203e+02 1.941042e+01 -3.268786e+01 -2.491889e-11 3.268786e+01 -1.941042e+01 -1.194203e+02 -2.149934e+02 -2.819247e+02 -2.363655e+02 -1.327377e+02 -3.915998e+01 -2.929120e+00 -6.358699e-03 0 0 0 0 0 
0 0 0 0 0 0 3.129214e+01 2.078464e+02 4.015157e+02 4.573963e+02 4.211970e+02 3.372906e+02 2.042202e+02 8.938356e+01 1.830699e+01 -1.835077e+01 -1.270207e-11 1.835077e+01 -1.830699e+01 -8.938356e+01 -2.042202e+02 -3.372906e+02 -4.211970e+02 -4.573963e+02 -4.015157e+02 -2.078464e+02 -3.129214e+01 0 0 0 0 0 
0 0 0 0 5.089254e-01 5.043743e+01 3.502996e+02 7.720001e+02 7.427777e+02 4.161035e+02 2.064870e+02 9.032937e+01 3.329495e+01 6.270477e+00 1.655663e+00 -1.220376e-01 1.931778e-15 1.220376e-01 -1.655663e+00 -6.270477e+00 -3.329495e+01 -9.032937e+01 -2.064870e+02 -4.161035e+02 -7.427777e+02 -7.720001e+02 -3.502996e+02 -5.043743e+01 -5.089254e-01 0 0 0 
0 0 0 0 3.236030e+01 4.469925e+02 1.042904e+03 9.878971e+02 4.422727e+02 9.039926e+01 8.040304e+00 2.885649e-01 0 0 0 0 0 0 0 0 0 -2.885649e-01 -8.040304e+00 -9.039926e+01 -4.422727e+02 -9.878971e+02 -1.042904e+03 -4.469925e+02 -3.236030e+01 0 0 0 
0 0 0 1.342640e-03 2.402452e+02 1.155150e+03 1.381107e+03 5.283027e+02 6.232516e+01 2.229612e-01 0 0 0 0 0 0 0 0 0 0 0 0 0 -2.229612e-01 -6.232516e+01 -5.283027e+02 -1.381107e+03 -1.155150e+03 -2.402452e+02 -1.342640e-03 0 0 
0 0 0 9.288537e+00 6.591663e+02 1.601060e+03 1.066737e+03 1.160290e+02 4.745172e-01 0 0 0 0 0 0 0 0 0 0 0 0 0 0 0 -4.745172e-01 -1.160290e+02 -1.066737e+03 -1.601060e+03 -6.591663e+02 -9.288537e+00 0 0 
0 0 0 4.977358e+01 1.096383e+03 1.728152e+03 6.900838e+02 8.540547e+00 0 0 0 0 0 0 0 0 0 0 0 0 0 0 0 0 0 -8.540547e+00 -6.900838e+02 -1.728152e+03 -1.096383e+03 -4.977358e+01 0 0 
0 0 0 8.097278e+01 1.291220e+03 1.771375e+03 5.611271e+02 0 0 0 0 0 0 0 0 0 0 0 0 0 0 0 0 0 0 0 -5.611271e+02 -1.771375e+03 -1.291220e+03 -8.097278e+01 0 0 
0 0 0 4.977358e+01 1.096383e+03 1.728152e+03 6.900838e+02 8.540547e+00 0 0 0 0 0 0 0 0 0 0 0 0 0 0 0 0 0 -8.540547e+00 -6.900838e+02 -1.728152e+03 -1.096383e+03 -4.977358e+01 0 0 
0 0 0 9.288537e+00 6.591663e+02 1.601060e+03 1.066737e+03 1.160290e+02 4.745172e-01 0 0 0 0 0 0 0 0 0 0 0 0 0 0 0 -4.745172e-01 -1.160290e+02 -1.066737e+03 -1.601060e+03 -6.591663e+02 -9.288537e+00 0 0 
0 0 0 1.342640e-03 2.402452e+02 1.155150e+03 1.381107e+03 5.283027e+02 6.232516e+01 2.229612e-01 0 0 0 0 0 0 0 0 0 0 0 0 0 -2.229612e-01 -6.232516e+01 -5.283027e+02 -1.381107e+03 -1.155150e+03 -2.402452e+02 -1.342640e-03 0 0 
0 0 0 0 3.236030e+01 4.469925e+02 1.042904e+03 9.878971e+02 4.422727e+02 9.039926e+01 8.040304e+00 2.885649e-01 0 0 0 0 0 0 0 0 0 -2.885649e-01 -8.040304e+00 -9.039926e+01 -4.422727e+02 -9.878971e+02 -1.042904e+03 -4.469925e+02 -3.236030e+01 0 0 0 
0 0 0 0 5.089254e-01 5.043743e+01 3.502996e+02 7.720001e+02 7.427777e+02 4.161035e+02 2.064870e+02 9.032937e+01 3.329495e+01 6.270477e+00 1.655663e+00 -1.220376e-01 -1.939368e-13 1.220376e-01 -1.655663e+00 -6.270477e+00 -3.329495e+01 -9.032937e+01 -2.064870e+02 -4.161035e+02 -7.427777e+02 -7.720001e+02 -3.502996e+02 -5.043743e+01 -5.089254e-01 0 0 0 
0 0 0 0 0 0 3.129214e+01 2.078464e+02 4.015157e+02 4.573963e+02 4.211970e+02 3.372906e+02 2.042202e+02 8.938356e+01 1.830699e+01 -1.835077e+01 -2.820480e-12 1.835077e+01 -1.830699e+01 -8.938356e+01 -2.042202e+02 -3.372906e+02 -4.211970e+02 -4.573963e+02 -4.015157e+02 -2.078464e+02 -3.129214e+01 0 0 0 0 0 
0 0 0 0 0 0 6.358699e-03 2.929120e+00 3.915998e+01 1.327377e+02 2.363655e+02 2.819247e+02 2.149934e+02 1.194203e+02 1.941042e+01 -3.268786e+01 6.449157e-12 3.268786e+01 -1.941042e+01 -1.194203e+02 -2.149934e+02 -2.819247e+02 -2.363655e+02 -1.327377e+02 -3.915998e+01 -2.929120e+00 -6.358699e-03 0 0 0 0 0 
0 0 0 0 0 0 0 0 0 1.268556e+00 1.361513e+01 3.467498e+01 4.406815e+01 3.630725e+01 2.759098e+00 -1.445912e+01 9.075669e-12 1.445912e+01 -2.759098e+00 -3.630725e+01 -4.406815e+01 -3.467498e+01 -1.361513e+01 -1.268556e+00 0 0 0 0 0 0 0 0 
0 0 0 0 0 0 0 0 0 0 0 0 0 0 0 0 0 0 0 0 0 0 0 0 0 0 0 0 0 0 0 0 
0 0 0 0 0 0 0 0 0 0 0 0 0 0 0 0 0 0 0 0 0 0 0 0 0 0 0 0 0 0 0 0 
0 0 0 0 0 0 0 0 0 0 0 0 0 0 0 0 0 0 0 0 0 0 0 0 0 0 0 0 0 0 0 0 
0 0 0 0 0 0 0 0 0 0 0 0 0 0 0 0 0 0 0 0 0 0 0 0 0 0 0 0 0 0 0 0 
0 0 0 0 0 0 0 0 0 0 0 0 0 0 0 0 0 0 0 0 0 0 0 0 0 0 0 0 0 0 0 0 
0 0 0 0 0 0 0 0 0 0 0 0 0 0 0 0 0 0 0 0 0 0 0 0 0 0 0 0 0 0 0 0 
0 0 0 0 0 0 0 0 0 0 0 0 0 0 0 0 0 0 0 0 0 0 0 0 0 0 0 0 0 0 0 0 
