# vtk DataFile Version 2.0
Comment goes here
ASCII

DATASET STRUCTURED_POINTS
FIELD FieldData 1
TIME 1 1 double
0.18000000
DIMENSIONS    32   32   1

ORIGIN    0.000   0.000   0.000
SPACING   0.03125 0.03125   1.000

POINT_DATA   1024
SCALARS fX double
LOOKUP_TABLE default

0 0 0 0 0 0 0 0 0 0 0 0 0 0 0 0 0 0 0 0 0 0 0 0 0 0 0 0 0 0 0 0 
0 0 0 0 0 0 0 0 0 0 0 0 0 0 0 0 0 0 0 0 0 0 0 0 0 0 0 0 0 0 0 0 
0 0 0 0 0 0 0 0 0 0 0 0 0 0 0 0 0 0 0 0 0 0 0 0 0 0 0 0 0 0 0 0 
0 0 0 0 0 0 0 0 0 0 0 0 0 0 1.027640e+00 2.649578e+00 7.496986e-13 -2.649578e+00 -1.027640e+00 0 0 0 0 0 0 0 0 0 0 0 0 0 
0 0 0 0 0 0 0 0 0 0 0 2.241710e-01 1.371204e+01 8.507102e+01 2.028945e+02 2.172103e+02 -2.125132e-11 -2.172103e+02 -2.028945e+02 -8.507102e+01 -1.371204e+01 -2.241710e-01 0 0 0 0 0 0 0 0 0 0 
0 0 0 0 0 0 0 0 0 0 8.117036e-02 2.461769e+01 2.428831e+02 5.440430e+02 6.087442e+02 4.261210e+02 -4.086077e-11 -4.261210e+02 -6.087442e+02 -5.440430e+02 -2.428831e+02 -2.461769e+01 -8.117036e-02 0 0 0 0 0 0 0 0 0 
0 0 0 0 0 0 0 0 0 0 3.719691e+01 2.576679e+02 6.371468e+02 7.369653e+02 4.778945e+02 2.164450e+02 -1.885122e-11 -2.164450e+02 -4.778945e+02 -7.369653e+02 -6.371468e+02 -2.576679e+02 -3.719691e+01 0 0 0 0 0 0 0 0 0 
0 0 0 0 0 0 0 0 0 8.431009e+00 2.735813e+02 7.527721e+02 7.363007e+02 3.152707e+02 7.143274e+01 4.884778e+00 3.541249e-14 -4.884778e+00 -7.143274e+01 -3.152707e+02 -7.363007e+02 -7.527721e+02 -2.735813e+02 -8.431009e+00 0 0 0 0 0 0 0 0 
0 0 0 0 0 0 0 0 0 8.370711e+01 6.336940e+02 9.514636e+02 4.383701e+02 3.730909e+01 4.156264e-01 0 0 0 -4.156264e-01 -3.730909e+01 -4.383701e+02 -9.514636e+02 -6.336940e+02 -8.370711e+01 0 0 0 0 0 0 0 0 
0 0 0 0 0 0 0 0 2.137263e+00 2.428964e+02 7.975039e+02 6.799786e+02 1.232655e+02 3.174639e-02 0 0 0 0 0 -3.174639e-02 -1.232655e+02 -6.799786e+02 -7.975039e+02 -2.428964e+02 -2.137263e+00 0 0 0 0 0 0 0 
0 0 0 0 0 0 0 0 2.425093e+01 3.971894e+02 6.982830e+02 3.389441e+02 1.359954e+01 0 0 0 0 0 0 0 -1.359954e+01 -3.389441e+02 -6.982830e+02 -3.971894e+02 -2.425093e+01 0 0 0 0 0 0 0 
0 0 0 0 0 0 0 0 7.411351e+01 4.852799e+02 5.391432e+02 1.283560e+02 3.792117e-01 0 0 0 0 0 0 0 -3.792117e-01 -1.283560e+02 -5.391432e+02 -4.852799e+02 -7.411351e+01 0 0 0 0 0 0 0 
0 0 0 0 0 0 0 0 1.568924e+02 5.585001e+02 4.493877e+02 4.778004e+01 0 0 0 0 0 0 0 0 0 -4.778004e+01 -4.493877e+02 -5.585001e+02 -1.568924e+02 0 0 0 0 0 0 0 
0 0 0 0 0 0 0 5.077476e-04 2.365471e+02 6.036654e+02 3.798582e+02 1.273939e+01 0 0 0 0 0 0 0 0 0 -1.273939e+01 -3.798582e+02 -6.036654e+02 -2.365471e+02 -5.077476e-04 0 0 0 0 0 0 
0 0 0 0 0 0 0 1.457578e+00 3.189659e+02 6.391808e+02 3.240579e+02 2.385388e+00 0 0 0 0 0 0 0 0 0 -2.385388e+00 -3.240579e+02 -6.391808e+02 -3.189659e+02 -1.457578e+00 0 0 0 0 0 0 
0 0 0 0 0 0 0 4.440741e+00 4.007977e+02 6.972648e+02 3.009092e+02 1.360125e-03 0 0 0 0 0 0 0 0 0 -1.360125e-03 -3.009092e+02 -6.972648e+02 -4.007977e+02 -4.440741e+00 0 0 0 0 0 0 
0 0 0 0 0 0 0 5.967343e+00 4.269727e+02 7.179203e+02 2.969149e+02 0 0 0 0 0 0 0 0 0 0 0 -2.969149e+02 -7.179203e+02 -4.269727e+02 -5.967343e+00 0 0 0 0 0 0 
0 0 0 0 0 0 0 4.440741e+00 4.007977e+02 6.972648e+02 3.009092e+02 1.360125e-03 0 0 0 0 0 0 0 0 0 -1.360125e-03 -3.009092e+02 -6.972648e+02 -4.007977e+02 -4.440741e+00 0 0 0 0 0 0 
0 0 0 0 0 0 0 1.457578e+00 3.189659e+02 6.391808e+02 3.240579e+02 2.385388e+00 0 0 0 0 0 0 0 0 0 -2.385388e+00 -3.240579e+02 -6.391808e+02 -3.189659e+02 -1.457578e+00 0 0 0 0 0 0 
0 0 0 0 0 0 0 5.077476e-04 2.365471e+02 6.036654e+02 3.798582e+02 1.273939e+01 0 0 0 0 0 0 0 0 0 -1.273939e+01 -3.798582e+02 -6.036654e+02 -2.365471e+02 -5.077476e-04 0 0 0 0 0 0 
0 0 0 0 0 0 0 0 1.568924e+02 5.585001e+02 4.493877e+02 4.778004e+01 0 0 0 0 0 0 0 0 0 -4.778004e+01 -4.493877e+02 -5.585001e+02 -1.568924e+02 0 0 0 0 0 0 0 
0 0 0 0 0 0 0 0 7.411351e+01 4.852799e+02 5.391432e+02 1.283560e+02 3.792117e-01 0 0 0 0 0 0 0 -3.792117e-01 -1.283560e+02 -5.391432e+02 -4.852799e+02 -7.411351e+01 0 0 0 0 0 0 0 
0 0 0 0 0 0 0 0 2.425093e+01 3.971894e+02 6.982830e+02 3.389441e+02 1.359954e+01 0 0 0 0 0 0 0 -1.359954e+01 -3.389441e+02 -6.982830e+02 -3.971894e+02 -2.425093e+01 0 0 0 0 0 0 0 
0 0 0 0 0 0 0 0 2.137263e+00 2.428964e+02 7.975039e+02 6.799786e+02 1.232655e+02 3.174639e-02 0 0 0 0 0 -3.174639e-02 -1.232655e+02 -6.799786e+02 -7.975039e+02 -2.428964e+02 -2.137263e+00 0 0 0 0 0 0 0 
0 0 0 0 0 0 0 0 0 8.370711e+01 6.336940e+02 9.514636e+02 4.383701e+02 3.730909e+01 4.156264e-01 0 0 0 -4.156264e-01 -3.730909e+01 -4.383701e+02 -9.514636e+02 -6.336940e+02 -8.370711e+01 0 0 0 0 0 0 0 0 
0 0 0 0 0 0 0 0 0 8.431009e+00 2.735813e+02 7.527721e+02 7.363007e+02 3.152707e+02 7.143274e+01 4.884778e+00 8.791093e-14 -4.884778e+00 -7.143274e+01 -3.152707e+02 -7.363007e+02 -7.527721e+02 -2.735813e+02 -8.431009e+00 0 0 0 0 0 0 0 0 
0 0 0 0 0 0 0 0 0 0 3.719691e+01 2.576679e+02 6.371468e+02 7.369653e+02 4.778945e+02 2.164450e+02 -2.358666e-11 -2.164450e+02 -4.778945e+02 -7.369653e+02 -6.371468e+02 -2.576679e+02 -3.719691e+01 0 0 0 0 0 0 0 0 0 
0 0 0 0 0 0 0 0 0 0 8.117036e-02 2.461769e+01 2.428831e+02 5.440430e+02 6.087442e+02 4.261210e+02 -2.688518e-11 -4.261210e+02 -6.087442e+02 -5.440430e+02 -2.428831e+02 -2.461769e+01 -8.117036e-02 0 0 0 0 0 0 0 0 0 
0 0 0 0 0 0 0 0 0 0 0 2.241710e-01 1.371204e+01 8.507102e+01 2.028945e+02 2.172103e+02 2.040908e-12 -2.172103e+02 -2.028945e+02 -8.507102e+01 -1.371204e+01 -2.241710e-01 0 0 0 0 0 0 0 0 0 0 
0 0 0 0 0 0 0 0 0 0 0 0 0 0 1.027640e+00 2.649578e+00 5.251315e-12 -2.649578e+00 -1.027640e+00 0 0 0 0 0 0 0 0 0 0 0 0 0 
0 0 0 0 0 0 0 0 0 0 0 0 0 0 0 0 0 0 0 0 0 0 0 0 0 0 0 0 0 0 0 0 
0 0 0 0 0 0 0 0 0 0 0 0 0 0 0 0 0 0 0 0 0 0 0 0 0 0 0 0 0 0 0 0 
