# vtk DataFile Version 2.0
Comment goes here
ASCII

DATASET STRUCTURED_POINTS
FIELD FieldData 1
TIME 1 1 double
0.62000000
DIMENSIONS    32   32   1

ORIGIN    0.000   0.000   0.000
SPACING   0.03125 0.03125   1.000

POINT_DATA   1024
SCALARS fX double
LOOKUP_TABLE default

0 0 0 0 0 0 0 0 0 0 0 0 0 0 0 0 0 0 0 0 0 0 0 0 0 0 0 0 0 0 0 0 
0 0 0 0 0 0 0 0 0 0 0 0 0 0 0 0 0 0 0 0 0 0 0 0 0 0 0 0 0 0 0 0 
0 0 0 0 0 0 0 0 0 0 0 0 0 0 0 0 0 0 0 0 0 0 0 0 0 0 0 0 0 0 0 0 
0 0 0 0 0 0 0 0 0 0 0 0 0 0 0 0 0 0 0 0 0 0 0 0 0 0 0 0 0 0 0 0 
0 0 0 0 0 0 0 0 0 0 0 0 0 0 0 0 0 0 0 0 0 0 0 0 0 0 0 0 0 0 0 0 
0 0 0 0 0 0 0 0 0 0 0 0 0 1.384613e-02 9.274076e-01 2.393580e+00 -3.269021e-12 -2.393580e+00 -9.274076e-01 -1.384613e-02 0 0 0 0 0 0 0 0 0 0 0 0 
0 0 0 0 0 0 0 0 0 0 0 6.330286e-01 1.994012e+01 9.953988e+01 1.381585e+02 9.924762e+01 -2.115783e-11 -9.924762e+01 -1.381585e+02 -9.953988e+01 -1.994012e+01 -6.330286e-01 0 0 0 0 0 0 0 0 0 0 
0 0 0 0 0 0 0 0 0 0 7.490348e+00 1.228223e+02 3.087550e+02 4.377286e+02 3.625163e+02 1.805216e+02 -1.853730e-11 -1.805216e+02 -3.625163e+02 -4.377286e+02 -3.087550e+02 -1.228223e+02 -7.490348e+00 0 0 0 0 0 0 0 0 0 
0 0 0 0 0 0 0 0 0 1.228671e+01 2.103997e+02 5.682349e+02 6.616975e+02 4.673830e+02 2.386439e+02 8.530537e+01 -6.452617e-13 -8.530537e+01 -2.386439e+02 -4.673830e+02 -6.616975e+02 -5.682349e+02 -2.103997e+02 -1.228671e+01 0 0 0 0 0 0 0 0 
0 0 0 0 0 0 0 0 4.155693e+00 1.266645e+02 5.828159e+02 8.154689e+02 4.753309e+02 1.318900e+02 1.335868e+01 1.637772e+00 0 -1.637772e+00 -1.335868e+01 -1.318900e+02 -4.753309e+02 -8.154689e+02 -5.828159e+02 -1.266645e+02 -4.155693e+00 0 0 0 0 0 0 0 
0 0 0 0 0 0 0 6.421529e-07 6.177102e+01 4.919170e+02 8.212323e+02 4.925829e+02 1.042061e+02 2.709493e+00 0 0 0 0 0 -2.709493e+00 -1.042061e+02 -4.925829e+02 -8.212323e+02 -4.919170e+02 -6.177102e+01 -6.421529e-07 0 0 0 0 0 0 
0 0 0 0 0 0 0 2.424013e+00 2.128485e+02 7.802536e+02 7.154354e+02 1.473641e+02 1.757774e+00 0 0 0 0 0 0 0 -1.757774e+00 -1.473641e+02 -7.154354e+02 -7.802536e+02 -2.128485e+02 -2.424013e+00 0 0 0 0 0 0 
0 0 0 0 0 0 0 2.894953e+01 4.621893e+02 8.080186e+02 3.990319e+02 2.425304e+01 0 0 0 0 0 0 0 0 0 -2.425304e+01 -3.990319e+02 -8.080186e+02 -4.621893e+02 -2.894953e+01 0 0 0 0 0 0 
0 0 0 0 0 0 0 9.039400e+01 6.516215e+02 7.457874e+02 1.846086e+02 4.865710e-02 0 0 0 0 0 0 0 0 0 -4.865710e-02 -1.846086e+02 -7.457874e+02 -6.516215e+02 -9.039400e+01 0 0 0 0 0 0 
0 0 0 0 0 0 0 1.670204e+02 7.198973e+02 6.390080e+02 8.613111e+01 0 0 0 0 0 0 0 0 0 0 0 -8.613111e+01 -6.390080e+02 -7.198973e+02 -1.670204e+02 0 0 0 0 0 0 
0 0 0 0 0 0 0 2.342154e+02 7.689227e+02 5.747922e+02 4.008497e+01 0 0 0 0 0 0 0 0 0 0 0 -4.008497e+01 -5.747922e+02 -7.689227e+02 -2.342154e+02 0 0 0 0 0 0 
0 0 0 0 0 0 0 2.621270e+02 7.873814e+02 5.525349e+02 2.728048e+01 0 0 0 0 0 0 0 0 0 0 0 -2.728048e+01 -5.525349e+02 -7.873814e+02 -2.621270e+02 0 0 0 0 0 0 
0 0 0 0 0 0 0 2.342154e+02 7.689227e+02 5.747922e+02 4.008497e+01 0 0 0 0 0 0 0 0 0 0 0 -4.008497e+01 -5.747922e+02 -7.689227e+02 -2.342154e+02 0 0 0 0 0 0 
0 0 0 0 0 0 0 1.670204e+02 7.198973e+02 6.390080e+02 8.613111e+01 0 0 0 0 0 0 0 0 0 0 0 -8.613111e+01 -6.390080e+02 -7.198973e+02 -1.670204e+02 0 0 0 0 0 0 
0 0 0 0 0 0 0 9.039400e+01 6.516215e+02 7.457874e+02 1.846086e+02 4.865710e-02 0 0 0 0 0 0 0 0 0 -4.865710e-02 -1.846086e+02 -7.457874e+02 -6.516215e+02 -9.039400e+01 0 0 0 0 0 0 
0 0 0 0 0 0 0 2.894953e+01 4.621893e+02 8.080186e+02 3.990319e+02 2.425304e+01 0 0 0 0 0 0 0 0 0 -2.425304e+01 -3.990319e+02 -8.080186e+02 -4.621893e+02 -2.894953e+01 0 0 0 0 0 0 
0 0 0 0 0 0 0 2.424013e+00 2.128485e+02 7.802536e+02 7.154354e+02 1.473641e+02 1.757774e+00 0 0 0 0 0 0 0 -1.757774e+00 -1.473641e+02 -7.154354e+02 -7.802536e+02 -2.128485e+02 -2.424013e+00 0 0 0 0 0 0 
0 0 0 0 0 0 0 6.421529e-07 6.177102e+01 4.919170e+02 8.212323e+02 4.925829e+02 1.042061e+02 2.709493e+00 0 0 0 0 0 -2.709493e+00 -1.042061e+02 -4.925829e+02 -8.212323e+02 -4.919170e+02 -6.177102e+01 -6.421529e-07 0 0 0 0 0 0 
0 0 0 0 0 0 0 0 4.155693e+00 1.266645e+02 5.828159e+02 8.154689e+02 4.753309e+02 1.318900e+02 1.335868e+01 1.637772e+00 0 -1.637772e+00 -1.335868e+01 -1.318900e+02 -4.753309e+02 -8.154689e+02 -5.828159e+02 -1.266645e+02 -4.155693e+00 0 0 0 0 0 0 0 
0 0 0 0 0 0 0 0 0 1.228671e+01 2.103997e+02 5.682349e+02 6.616975e+02 4.673830e+02 2.386439e+02 8.530537e+01 1.328208e-11 -8.530537e+01 -2.386439e+02 -4.673830e+02 -6.616975e+02 -5.682349e+02 -2.103997e+02 -1.228671e+01 0 0 0 0 0 0 0 0 
0 0 0 0 0 0 0 0 0 0 7.490348e+00 1.228223e+02 3.087550e+02 4.377286e+02 3.625163e+02 1.805216e+02 3.081879e-11 -1.805216e+02 -3.625163e+02 -4.377286e+02 -3.087550e+02 -1.228223e+02 -7.490348e+00 0 0 0 0 0 0 0 0 0 
0 0 0 0 0 0 0 0 0 0 0 6.330286e-01 1.994012e+01 9.953988e+01 1.381585e+02 9.924762e+01 1.709140e-11 -9.924762e+01 -1.381585e+02 -9.953988e+01 -1.994012e+01 -6.330286e-01 0 0 0 0 0 0 0 0 0 0 
0 0 0 0 0 0 0 0 0 0 0 0 0 1.384613e-02 9.274076e-01 2.393580e+00 -4.384927e-13 -2.393580e+00 -9.274076e-01 -1.384613e-02 0 0 0 0 0 0 0 0 0 0 0 0 
0 0 0 0 0 0 0 0 0 0 0 0 0 0 0 0 0 0 0 0 0 0 0 0 0 0 0 0 0 0 0 0 
0 0 0 0 0 0 0 0 0 0 0 0 0 0 0 0 0 0 0 0 0 0 0 0 0 0 0 0 0 0 0 0 
0 0 0 0 0 0 0 0 0 0 0 0 0 0 0 0 0 0 0 0 0 0 0 0 0 0 0 0 0 0 0 0 
0 0 0 0 0 0 0 0 0 0 0 0 0 0 0 0 0 0 0 0 0 0 0 0 0 0 0 0 0 0 0 0 
