# vtk DataFile Version 2.0
Comment goes here
ASCII

DATASET STRUCTURED_POINTS
FIELD FieldData 1
TIME 1 1 double
0.36000000
DIMENSIONS    32   32   1

ORIGIN    0.000   0.000   0.000
SPACING   0.03125 0.03125   1.000

POINT_DATA   1024
SCALARS fX double
LOOKUP_TABLE default

0 0 0 0 0 0 0 0 0 0 0 0 0 0 0 0 0 0 0 0 0 0 0 0 0 0 0 0 0 0 0 0 
0 0 0 0 0 0 0 0 0 0 0 0 0 0 0 0 0 0 0 0 0 0 0 0 0 0 0 0 0 0 0 0 
0 0 0 0 0 0 0 0 0 0 0 0 0 0 0 0 0 0 0 0 0 0 0 0 0 0 0 0 0 0 0 0 
0 0 0 0 0 0 0 0 0 0 0 0 0 0 0 0 0 0 0 0 0 0 0 0 0 0 0 0 0 0 0 0 
0 0 0 0 0 0 0 0 0 0 0 0 0 0 0 0 0 0 0 0 0 0 0 0 0 0 0 0 0 0 0 0 
0 0 0 0 0 0 0 0 0 0 0 0 0 2.007441e+00 7.091311e+00 6.925750e+00 -5.490106e-12 -6.925750e+00 -7.091311e+00 -2.007441e+00 0 0 0 0 0 0 0 0 0 0 0 0 
0 0 0 0 0 0 0 0 0 0 4.072651e-01 1.659631e+01 8.345172e+01 1.743497e+02 2.328794e+02 1.494570e+02 -3.840748e-11 -1.494570e+02 -2.328794e+02 -1.743497e+02 -8.345172e+01 -1.659631e+01 -4.072651e-01 0 0 0 0 0 0 0 0 0 
0 0 0 0 0 0 0 0 0 1.517840e+00 5.033973e+01 2.833247e+02 5.533851e+02 5.415285e+02 4.112130e+02 2.193004e+02 -4.088496e-11 -2.193004e+02 -4.112130e+02 -5.415285e+02 -5.533851e+02 -2.833247e+02 -5.033973e+01 -1.517840e+00 0 0 0 0 0 0 0 0 
0 0 0 0 0 0 0 0 8.614120e-01 9.073657e+01 4.550480e+02 7.996571e+02 7.434132e+02 4.318227e+02 1.907851e+02 7.680212e+01 -7.970071e-12 -7.680212e+01 -1.907851e+02 -4.318227e+02 -7.434132e+02 -7.996571e+02 -4.550480e+02 -9.073657e+01 -8.614120e-01 0 0 0 0 0 0 0 
0 0 0 0 0 0 0 1.014856e-02 3.295459e+01 3.807161e+02 8.937320e+02 7.901508e+02 3.015482e+02 6.268489e+01 5.360204e+00 3.302675e-02 0 -3.302675e-02 -5.360204e+00 -6.268489e+01 -3.015482e+02 -7.901508e+02 -8.937320e+02 -3.807161e+02 -3.295459e+01 -1.014856e-02 0 0 0 0 0 0 
0 0 0 0 0 0 0 4.248562e+00 2.098328e+02 7.230524e+02 7.804328e+02 2.909846e+02 2.806837e+01 4.846647e-02 0 0 0 0 0 -4.846647e-02 -2.806837e+01 -2.909846e+02 -7.804328e+02 -7.230524e+02 -2.098328e+02 -4.248562e+00 0 0 0 0 0 0 
0 0 0 0 0 0 0 5.333487e+01 5.483137e+02 8.724760e+02 4.118359e+02 3.433871e+01 0 0 0 0 0 0 0 0 0 -3.433871e+01 -4.118359e+02 -8.724760e+02 -5.483137e+02 -5.333487e+01 0 0 0 0 0 0 
0 0 0 0 0 0 0 1.605246e+02 7.507340e+02 7.408536e+02 1.512204e+02 5.761233e-01 0 0 0 0 0 0 0 0 0 -5.761233e-01 -1.512204e+02 -7.408536e+02 -7.507340e+02 -1.605246e+02 0 0 0 0 0 0 
0 0 0 0 0 0 2.002546e+00 3.208008e+02 7.985303e+02 5.136226e+02 3.389052e+01 0 0 0 0 0 0 0 0 0 0 0 -3.389052e+01 -5.136226e+02 -7.985303e+02 -3.208008e+02 -2.002546e+00 0 0 0 0 0 
0 0 0 0 0 0 1.049200e+01 4.837730e+02 8.470757e+02 3.765179e+02 2.723202e+00 0 0 0 0 0 0 0 0 0 0 0 -2.723202e+00 -3.765179e+02 -8.470757e+02 -4.837730e+02 -1.049200e+01 0 0 0 0 0 
0 0 0 0 0 0 2.462848e+01 5.488025e+02 8.062179e+02 2.820774e+02 3.361720e-02 0 0 0 0 0 0 0 0 0 0 0 -3.361720e-02 -2.820774e+02 -8.062179e+02 -5.488025e+02 -2.462848e+01 0 0 0 0 0 
0 0 0 0 0 0 3.227805e+01 5.488043e+02 7.550250e+02 2.384988e+02 0 0 0 0 0 0 0 0 0 0 0 0 0 -2.384988e+02 -7.550250e+02 -5.488043e+02 -3.227805e+01 0 0 0 0 0 
0 0 0 0 0 0 2.462848e+01 5.488025e+02 8.062179e+02 2.820774e+02 3.361720e-02 0 0 0 0 0 0 0 0 0 0 0 -3.361720e-02 -2.820774e+02 -8.062179e+02 -5.488025e+02 -2.462848e+01 0 0 0 0 0 
0 0 0 0 0 0 1.049200e+01 4.837730e+02 8.470757e+02 3.765179e+02 2.723202e+00 0 0 0 0 0 0 0 0 0 0 0 -2.723202e+00 -3.765179e+02 -8.470757e+02 -4.837730e+02 -1.049200e+01 0 0 0 0 0 
0 0 0 0 0 0 2.002546e+00 3.208008e+02 7.985303e+02 5.136226e+02 3.389052e+01 0 0 0 0 0 0 0 0 0 0 0 -3.389052e+01 -5.136226e+02 -7.985303e+02 -3.208008e+02 -2.002546e+00 0 0 0 0 0 
0 0 0 0 0 0 0 1.605246e+02 7.507340e+02 7.408536e+02 1.512204e+02 5.761233e-01 0 0 0 0 0 0 0 0 0 -5.761233e-01 -1.512204e+02 -7.408536e+02 -7.507340e+02 -1.605246e+02 0 0 0 0 0 0 
0 0 0 0 0 0 0 5.333487e+01 5.483137e+02 8.724760e+02 4.118359e+02 3.433871e+01 0 0 0 0 0 0 0 0 0 -3.433871e+01 -4.118359e+02 -8.724760e+02 -5.483137e+02 -5.333487e+01 0 0 0 0 0 0 
0 0 0 0 0 0 0 4.248562e+00 2.098328e+02 7.230524e+02 7.804328e+02 2.909846e+02 2.806837e+01 4.846647e-02 0 0 0 0 0 -4.846647e-02 -2.806837e+01 -2.909846e+02 -7.804328e+02 -7.230524e+02 -2.098328e+02 -4.248562e+00 0 0 0 0 0 0 
0 0 0 0 0 0 0 1.014856e-02 3.295459e+01 3.807161e+02 8.937320e+02 7.901508e+02 3.015482e+02 6.268489e+01 5.360204e+00 3.302675e-02 0 -3.302675e-02 -5.360204e+00 -6.268489e+01 -3.015482e+02 -7.901508e+02 -8.937320e+02 -3.807161e+02 -3.295459e+01 -1.014856e-02 0 0 0 0 0 0 
0 0 0 0 0 0 0 0 8.614120e-01 9.073657e+01 4.550480e+02 7.996571e+02 7.434132e+02 4.318227e+02 1.907851e+02 7.680212e+01 -1.817257e-11 -7.680212e+01 -1.907851e+02 -4.318227e+02 -7.434132e+02 -7.996571e+02 -4.550480e+02 -9.073657e+01 -8.614120e-01 0 0 0 0 0 0 0 
0 0 0 0 0 0 0 0 0 1.517840e+00 5.033973e+01 2.833247e+02 5.533851e+02 5.415285e+02 4.112130e+02 2.193004e+02 -3.246320e-11 -2.193004e+02 -4.112130e+02 -5.415285e+02 -5.533851e+02 -2.833247e+02 -5.033973e+01 -1.517840e+00 0 0 0 0 0 0 0 0 
0 0 0 0 0 0 0 0 0 0 4.072651e-01 1.659631e+01 8.345172e+01 1.743497e+02 2.328794e+02 1.494570e+02 -8.674767e-12 -1.494570e+02 -2.328794e+02 -1.743497e+02 -8.345172e+01 -1.659631e+01 -4.072651e-01 0 0 0 0 0 0 0 0 0 
0 0 0 0 0 0 0 0 0 0 0 0 0 2.007441e+00 7.091311e+00 6.925750e+00 5.621283e-12 -6.925750e+00 -7.091311e+00 -2.007441e+00 0 0 0 0 0 0 0 0 0 0 0 0 
0 0 0 0 0 0 0 0 0 0 0 0 0 0 0 0 0 0 0 0 0 0 0 0 0 0 0 0 0 0 0 0 
0 0 0 0 0 0 0 0 0 0 0 0 0 0 0 0 0 0 0 0 0 0 0 0 0 0 0 0 0 0 0 0 
0 0 0 0 0 0 0 0 0 0 0 0 0 0 0 0 0 0 0 0 0 0 0 0 0 0 0 0 0 0 0 0 
0 0 0 0 0 0 0 0 0 0 0 0 0 0 0 0 0 0 0 0 0 0 0 0 0 0 0 0 0 0 0 0 
