# vtk DataFile Version 2.0
Comment goes here
ASCII

DATASET STRUCTURED_POINTS
FIELD FieldData 1
TIME 1 1 double
0.64000000
DIMENSIONS    32   32   1

ORIGIN    0.000   0.000   0.000
SPACING   0.03125 0.03125   1.000

POINT_DATA   1024
SCALARS fX double
LOOKUP_TABLE default

0 0 0 0 0 0 0 0 0 0 0 0 0 0 0 0 0 0 0 0 0 0 0 0 0 0 0 0 0 0 0 0 
0 0 0 0 0 0 0 0 0 0 0 0 0 0 0 0 0 0 0 0 0 0 0 0 0 0 0 0 0 0 0 0 
0 0 0 0 0 0 0 0 0 0 0 0 0 0 0 0 0 0 0 0 0 0 0 0 0 0 0 0 0 0 0 0 
0 0 0 0 0 0 0 0 0 0 0 0 0 0 0 0 0 0 0 0 0 0 0 0 0 0 0 0 0 0 0 0 
0 0 0 0 0 0 0 0 0 0 0 0 0 0 0 0 0 0 0 0 0 0 0 0 0 0 0 0 0 0 0 0 
0 0 0 0 0 0 0 0 0 0 0 0 7.486848e-01 7.694484e+00 2.190230e+01 3.350486e+01 -3.198804e-12 -3.350486e+01 -2.190230e+01 -7.694484e+00 -7.486848e-01 0 0 0 0 0 0 0 0 0 0 0 
0 0 0 0 0 0 0 0 0 0 0 1.155259e+01 1.032444e+02 2.403581e+02 2.377418e+02 1.622945e+02 4.231876e-13 -1.622945e+02 -2.377418e+02 -2.403581e+02 -1.032444e+02 -1.155259e+01 0 0 0 0 0 0 0 0 0 0 
0 0 0 0 0 0 0 0 0 0 1.892170e+01 1.766850e+02 5.088480e+02 6.104486e+02 3.535760e+02 1.550217e+02 5.515670e-12 -1.550217e+02 -3.535760e+02 -6.104486e+02 -5.088480e+02 -1.766850e+02 -1.892170e+01 0 0 0 0 0 0 0 0 0 
0 0 0 0 0 0 0 0 0 5.897412e+00 1.972888e+02 6.011200e+02 7.398619e+02 4.515537e+02 1.415136e+02 2.623210e+01 1.909850e-12 -2.623210e+01 -1.415136e+02 -4.515537e+02 -7.398619e+02 -6.011200e+02 -1.972888e+02 -5.897412e+00 0 0 0 0 0 0 0 0 
0 0 0 0 0 0 0 0 2.293158e-01 1.032398e+02 5.277667e+02 7.719292e+02 4.178517e+02 7.445580e+01 3.777069e+00 0 0 0 -3.777069e+00 -7.445580e+01 -4.178517e+02 -7.719292e+02 -5.277667e+02 -1.032398e+02 -2.293158e-01 0 0 0 0 0 0 0 
0 0 0 0 0 0 0 0 1.748766e+01 3.683186e+02 8.029996e+02 5.398541e+02 8.837254e+01 6.870850e-01 0 0 0 0 0 -6.870850e-01 -8.837254e+01 -5.398541e+02 -8.029996e+02 -3.683186e+02 -1.748766e+01 0 0 0 0 0 0 0 
0 0 0 0 0 0 0 0 9.687592e+01 6.080763e+02 7.600337e+02 2.528779e+02 4.044562e+00 0 0 0 0 0 0 0 -4.044562e+00 -2.528779e+02 -7.600337e+02 -6.080763e+02 -9.687592e+01 0 0 0 0 0 0 0 
0 0 0 0 0 0 0 3.830139e-01 2.565234e+02 7.625773e+02 5.629524e+02 5.652954e+01 1.407389e-02 0 0 0 0 0 0 0 -1.407389e-02 -5.652954e+01 -5.629524e+02 -7.625773e+02 -2.565234e+02 -3.830139e-01 0 0 0 0 0 0 
0 0 0 0 0 0 0 7.389086e+00 3.728016e+02 7.434512e+02 3.860231e+02 7.984416e+00 0 0 0 0 0 0 0 0 0 -7.984416e+00 -3.860231e+02 -7.434512e+02 -3.728016e+02 -7.389086e+00 0 0 0 0 0 0 
0 0 0 0 0 0 0 2.765086e+01 4.780395e+02 6.890323e+02 2.390639e+02 4.202987e-01 0 0 0 0 0 0 0 0 0 -4.202987e-01 -2.390639e+02 -6.890323e+02 -4.780395e+02 -2.765086e+01 0 0 0 0 0 0 
0 0 0 0 0 0 0 4.797302e+01 5.483922e+02 6.899569e+02 1.895377e+02 0 0 0 0 0 0 0 0 0 0 0 -1.895377e+02 -6.899569e+02 -5.483922e+02 -4.797302e+01 0 0 0 0 0 0 
0 0 0 0 0 0 0 5.465648e+01 5.324969e+02 6.377971e+02 1.599567e+02 0 0 0 0 0 0 0 0 0 0 0 -1.599567e+02 -6.377971e+02 -5.324969e+02 -5.465648e+01 0 0 0 0 0 0 
0 0 0 0 0 0 0 4.797302e+01 5.483922e+02 6.899569e+02 1.895377e+02 0 0 0 0 0 0 0 0 0 0 0 -1.895377e+02 -6.899569e+02 -5.483922e+02 -4.797302e+01 0 0 0 0 0 0 
0 0 0 0 0 0 0 2.765086e+01 4.780395e+02 6.890323e+02 2.390639e+02 4.202987e-01 0 0 0 0 0 0 0 0 0 -4.202987e-01 -2.390639e+02 -6.890323e+02 -4.780395e+02 -2.765086e+01 0 0 0 0 0 0 
0 0 0 0 0 0 0 7.389086e+00 3.728016e+02 7.434512e+02 3.860231e+02 7.984416e+00 0 0 0 0 0 0 0 0 0 -7.984416e+00 -3.860231e+02 -7.434512e+02 -3.728016e+02 -7.389086e+00 0 0 0 0 0 0 
0 0 0 0 0 0 0 3.830139e-01 2.565234e+02 7.625773e+02 5.629524e+02 5.652954e+01 1.407389e-02 0 0 0 0 0 0 0 -1.407389e-02 -5.652954e+01 -5.629524e+02 -7.625773e+02 -2.565234e+02 -3.830139e-01 0 0 0 0 0 0 
0 0 0 0 0 0 0 0 9.687592e+01 6.080763e+02 7.600337e+02 2.528779e+02 4.044562e+00 0 0 0 0 0 0 0 -4.044562e+00 -2.528779e+02 -7.600337e+02 -6.080763e+02 -9.687592e+01 0 0 0 0 0 0 0 
0 0 0 0 0 0 0 0 1.748766e+01 3.683186e+02 8.029996e+02 5.398541e+02 8.837254e+01 6.870850e-01 0 0 0 0 0 -6.870850e-01 -8.837254e+01 -5.398541e+02 -8.029996e+02 -3.683186e+02 -1.748766e+01 0 0 0 0 0 0 0 
0 0 0 0 0 0 0 0 2.293158e-01 1.032398e+02 5.277667e+02 7.719292e+02 4.178517e+02 7.445580e+01 3.777069e+00 0 0 0 -3.777069e+00 -7.445580e+01 -4.178517e+02 -7.719292e+02 -5.277667e+02 -1.032398e+02 -2.293158e-01 0 0 0 0 0 0 0 
0 0 0 0 0 0 0 0 0 5.897412e+00 1.972888e+02 6.011200e+02 7.398619e+02 4.515537e+02 1.415136e+02 2.623210e+01 -1.641440e-12 -2.623210e+01 -1.415136e+02 -4.515537e+02 -7.398619e+02 -6.011200e+02 -1.972888e+02 -5.897412e+00 0 0 0 0 0 0 0 0 
0 0 0 0 0 0 0 0 0 0 1.892170e+01 1.766850e+02 5.088480e+02 6.104486e+02 3.535760e+02 1.550217e+02 -3.423281e-11 -1.550217e+02 -3.535760e+02 -6.104486e+02 -5.088480e+02 -1.766850e+02 -1.892170e+01 0 0 0 0 0 0 0 0 0 
0 0 0 0 0 0 0 0 0 0 0 1.155259e+01 1.032444e+02 2.403581e+02 2.377418e+02 1.622945e+02 -4.835233e-11 -1.622945e+02 -2.377418e+02 -2.403581e+02 -1.032444e+02 -1.155259e+01 0 0 0 0 0 0 0 0 0 0 
0 0 0 0 0 0 0 0 0 0 0 0 7.486848e-01 7.694484e+00 2.190230e+01 3.350486e+01 -1.577519e-11 -3.350486e+01 -2.190230e+01 -7.694484e+00 -7.486848e-01 0 0 0 0 0 0 0 0 0 0 0 
0 0 0 0 0 0 0 0 0 0 0 0 0 0 0 0 0 0 0 0 0 0 0 0 0 0 0 0 0 0 0 0 
0 0 0 0 0 0 0 0 0 0 0 0 0 0 0 0 0 0 0 0 0 0 0 0 0 0 0 0 0 0 0 0 
0 0 0 0 0 0 0 0 0 0 0 0 0 0 0 0 0 0 0 0 0 0 0 0 0 0 0 0 0 0 0 0 
0 0 0 0 0 0 0 0 0 0 0 0 0 0 0 0 0 0 0 0 0 0 0 0 0 0 0 0 0 0 0 0 
