# vtk DataFile Version 2.0
Comment goes here
ASCII

DATASET STRUCTURED_POINTS
FIELD FieldData 1
TIME 1 1 double
0.56000000
DIMENSIONS    32   32   1

ORIGIN    0.000   0.000   0.000
SPACING   0.03125 0.03125   1.000

POINT_DATA   1024
SCALARS fX double
LOOKUP_TABLE default

0 0 0 0 0 0 0 0 0 0 0 0 0 0 0 0 0 0 0 0 0 0 0 0 0 0 0 0 0 0 0 0 
0 0 0 0 0 0 0 0 0 0 0 0 0 0 0 0 0 0 0 0 0 0 0 0 0 0 0 0 0 0 0 0 
0 0 0 0 0 0 0 0 0 0 0 0 0 0 0 0 0 0 0 0 0 0 0 0 0 0 0 0 0 0 0 0 
0 0 0 0 0 0 0 0 0 0 0 0 0 0 0 0 0 0 0 0 0 0 0 0 0 0 0 0 0 0 0 0 
0 0 0 0 0 0 0 0 0 0 0 0 0 0 0 0 0 0 0 0 0 0 0 0 0 0 0 0 0 0 0 0 
0 0 0 0 0 0 0 0 0 0 0 0 0 0 0 0 0 0 0 0 0 0 0 0 0 0 0 0 0 0 0 0 
0 0 0 0 0 0 0 0 0 0 0 0 0 0 0 0 0 0 0 0 0 0 0 0 0 0 0 0 0 0 0 0 
0 0 0 0 0 0 0 0 0 0 0 0 9.350691e-01 1.307602e+00 1.251178e+00 7.777800e+00 -3.100939e-12 -7.777800e+00 -1.251178e+00 -1.307602e+00 -9.350691e-01 0 0 0 0 0 0 0 0 0 0 0 
0 0 0 0 0 0 0 0 0 2.135055e-01 1.214388e+01 6.099467e+01 8.179297e+01 1.199398e+02 8.575593e+01 6.551324e+01 -1.403263e-11 -6.551324e+01 -8.575593e+01 -1.199398e+02 -8.179297e+01 -6.099467e+01 -1.214388e+01 -2.135055e-01 0 0 0 0 0 0 0 0 
0 0 0 0 0 0 0 6.752543e-02 1.326944e+01 1.063999e+02 2.296970e+02 3.453950e+02 2.775390e+02 2.151000e+02 1.420122e+02 7.554811e+01 -1.130026e-11 -7.554811e+01 -1.420122e+02 -2.151000e+02 -2.775390e+02 -3.453950e+02 -2.296970e+02 -1.063999e+02 -1.326944e+01 -6.752543e-02 0 0 0 0 0 0 
0 0 0 0 0 0 1.046699e-01 4.416112e+01 2.706058e+02 5.471467e+02 5.346891e+02 3.953508e+02 2.222980e+02 1.006159e+02 5.746597e+01 1.781267e+01 -3.587237e-13 -1.781267e+01 -5.746597e+01 -1.006159e+02 -2.222980e+02 -3.953508e+02 -5.346891e+02 -5.471467e+02 -2.706058e+02 -4.416112e+01 -1.046699e-01 0 0 0 0 0 
0 0 0 0 0 7.405428e-02 4.686052e+01 3.565961e+02 7.612250e+02 7.334536e+02 3.732463e+02 1.126355e+02 2.561698e+01 4.148106e+00 -4.146467e-02 0 0 0 4.146467e-02 -4.148106e+00 -2.561698e+01 -1.126355e+02 -3.732463e+02 -7.334536e+02 -7.612250e+02 -3.565961e+02 -4.686052e+01 -7.405428e-02 0 0 0 0 
0 0 0 0 0 1.046506e+01 3.382190e+02 9.701957e+02 9.291377e+02 3.411212e+02 5.611033e+01 1.685060e+00 1.716859e-06 0 0 0 0 0 0 0 -1.716859e-06 -1.685060e+00 -5.611033e+01 -3.411212e+02 -9.291377e+02 -9.701957e+02 -3.382190e+02 -1.046506e+01 0 0 0 0 
0 0 0 0 0 1.044413e+02 8.493542e+02 1.265168e+03 5.697270e+02 4.947198e+01 0 0 0 0 0 0 0 0 0 0 0 0 0 -4.947198e+01 -5.697270e+02 -1.265168e+03 -8.493542e+02 -1.044413e+02 0 0 0 0 
0 0 0 0 0 3.045399e+02 1.221364e+03 1.096611e+03 1.806312e+02 8.440719e-01 0 0 0 0 0 0 0 0 0 0 0 0 0 -8.440719e-01 -1.806312e+02 -1.096611e+03 -1.221364e+03 -3.045399e+02 0 0 0 0 
0 0 0 0 0 5.120056e+02 1.351478e+03 8.803119e+02 4.083916e+01 0 0 0 0 0 0 0 0 0 0 0 0 0 0 0 -4.083916e+01 -8.803119e+02 -1.351478e+03 -5.120056e+02 0 0 0 0 
0 0 0 0 0 6.030321e+02 1.376010e+03 7.823501e+02 9.371925e+00 0 0 0 0 0 0 0 0 0 0 0 0 0 0 0 -9.371925e+00 -7.823501e+02 -1.376010e+03 -6.030321e+02 0 0 0 0 
0 0 0 0 0 5.120056e+02 1.351478e+03 8.803119e+02 4.083916e+01 0 0 0 0 0 0 0 0 0 0 0 0 0 0 0 -4.083916e+01 -8.803119e+02 -1.351478e+03 -5.120056e+02 0 0 0 0 
0 0 0 0 0 3.045399e+02 1.221364e+03 1.096611e+03 1.806312e+02 8.440719e-01 0 0 0 0 0 0 0 0 0 0 0 0 0 -8.440719e-01 -1.806312e+02 -1.096611e+03 -1.221364e+03 -3.045399e+02 0 0 0 0 
0 0 0 0 0 1.044413e+02 8.493542e+02 1.265168e+03 5.697270e+02 4.947198e+01 0 0 0 0 0 0 0 0 0 0 0 0 0 -4.947198e+01 -5.697270e+02 -1.265168e+03 -8.493542e+02 -1.044413e+02 0 0 0 0 
0 0 0 0 0 1.046506e+01 3.382190e+02 9.701957e+02 9.291377e+02 3.411212e+02 5.611033e+01 1.685060e+00 1.716859e-06 0 0 0 0 0 0 0 -1.716859e-06 -1.685060e+00 -5.611033e+01 -3.411212e+02 -9.291377e+02 -9.701957e+02 -3.382190e+02 -1.046506e+01 0 0 0 0 
0 0 0 0 0 7.405428e-02 4.686052e+01 3.565961e+02 7.612250e+02 7.334536e+02 3.732463e+02 1.126355e+02 2.561698e+01 4.148106e+00 -4.146467e-02 0 0 0 4.146467e-02 -4.148106e+00 -2.561698e+01 -1.126355e+02 -3.732463e+02 -7.334536e+02 -7.612250e+02 -3.565961e+02 -4.686052e+01 -7.405428e-02 0 0 0 0 
0 0 0 0 0 0 1.046699e-01 4.416112e+01 2.706058e+02 5.471467e+02 5.346891e+02 3.953508e+02 2.222980e+02 1.006159e+02 5.746597e+01 1.781267e+01 5.820943e-12 -1.781267e+01 -5.746597e+01 -1.006159e+02 -2.222980e+02 -3.953508e+02 -5.346891e+02 -5.471467e+02 -2.706058e+02 -4.416112e+01 -1.046699e-01 0 0 0 0 0 
0 0 0 0 0 0 0 6.752543e-02 1.326944e+01 1.063999e+02 2.296970e+02 3.453950e+02 2.775390e+02 2.151000e+02 1.420122e+02 7.554811e+01 1.992901e-11 -7.554811e+01 -1.420122e+02 -2.151000e+02 -2.775390e+02 -3.453950e+02 -2.296970e+02 -1.063999e+02 -1.326944e+01 -6.752543e-02 0 0 0 0 0 0 
0 0 0 0 0 0 0 0 0 2.135055e-01 1.214388e+01 6.099467e+01 8.179297e+01 1.199398e+02 8.575593e+01 6.551324e+01 1.508402e-11 -6.551324e+01 -8.575593e+01 -1.199398e+02 -8.179297e+01 -6.099467e+01 -1.214388e+01 -2.135055e-01 0 0 0 0 0 0 0 0 
0 0 0 0 0 0 0 0 0 0 0 0 9.350691e-01 1.307602e+00 1.251178e+00 7.777800e+00 9.956199e-13 -7.777800e+00 -1.251178e+00 -1.307602e+00 -9.350691e-01 0 0 0 0 0 0 0 0 0 0 0 
0 0 0 0 0 0 0 0 0 0 0 0 0 0 0 0 0 0 0 0 0 0 0 0 0 0 0 0 0 0 0 0 
0 0 0 0 0 0 0 0 0 0 0 0 0 0 0 0 0 0 0 0 0 0 0 0 0 0 0 0 0 0 0 0 
0 0 0 0 0 0 0 0 0 0 0 0 0 0 0 0 0 0 0 0 0 0 0 0 0 0 0 0 0 0 0 0 
0 0 0 0 0 0 0 0 0 0 0 0 0 0 0 0 0 0 0 0 0 0 0 0 0 0 0 0 0 0 0 0 
0 0 0 0 0 0 0 0 0 0 0 0 0 0 0 0 0 0 0 0 0 0 0 0 0 0 0 0 0 0 0 0 
0 0 0 0 0 0 0 0 0 0 0 0 0 0 0 0 0 0 0 0 0 0 0 0 0 0 0 0 0 0 0 0 
