# vtk DataFile Version 2.0
Comment goes here
ASCII

DATASET STRUCTURED_POINTS
FIELD FieldData 1
TIME 1 1 double
0.34000000
DIMENSIONS    32   32   1

ORIGIN    0.000   0.000   0.000
SPACING   0.03125 0.03125   1.000

POINT_DATA   1024
SCALARS fX double
LOOKUP_TABLE default

0 0 0 0 0 0 0 0 0 0 0 0 0 0 0 0 0 0 0 0 0 0 0 0 0 0 0 0 0 0 0 0 
0 0 0 0 0 0 0 0 0 0 0 0 0 0 0 0 0 0 0 0 0 0 0 0 0 0 0 0 0 0 0 0 
0 0 0 0 0 0 0 0 0 0 0 0 0 0 0 0 0 0 0 0 0 0 0 0 0 0 0 0 0 0 0 0 
0 0 0 0 0 0 0 0 0 0 0 0 0 0 0 0 0 0 0 0 0 0 0 0 0 0 0 0 0 0 0 0 
0 0 0 0 0 0 0 0 0 0 0 0 6.907253e-02 6.341285e+00 2.886039e+01 3.590250e+01 -3.461000e-12 -3.590250e+01 -2.886039e+01 -6.341285e+00 -6.907253e-02 0 0 0 0 0 0 0 0 0 0 0 
0 0 0 0 0 0 0 0 0 0 0 8.145142e+00 8.725282e+01 2.136359e+02 3.285893e+02 2.708845e+02 -2.556252e-12 -2.708845e+02 -3.285893e+02 -2.136359e+02 -8.725282e+01 -8.145142e+00 0 0 0 0 0 0 0 0 0 0 
0 0 0 0 0 0 0 0 0 0 8.909427e+00 1.880248e+02 6.068003e+02 6.948116e+02 4.950749e+02 3.048410e+02 3.579836e-12 -3.048410e+02 -4.950749e+02 -6.948116e+02 -6.068003e+02 -1.880248e+02 -8.909427e+00 0 0 0 0 0 0 0 0 0 
0 0 0 0 0 0 0 0 0 4.688994e+00 1.639547e+02 6.058261e+02 9.233504e+02 6.258094e+02 2.054946e+02 6.985899e+01 2.691963e-12 -6.985899e+01 -2.054946e+02 -6.258094e+02 -9.233504e+02 -6.058261e+02 -1.639547e+02 -4.688994e+00 0 0 0 0 0 0 0 0 
0 0 0 0 0 0 0 0 1.332434e-01 7.237689e+01 5.573002e+02 9.021345e+02 5.485569e+02 1.416277e+02 1.014869e+01 0 0 0 -1.014869e+01 -1.416277e+02 -5.485569e+02 -9.021345e+02 -5.573002e+02 -7.237689e+01 -1.332434e-01 0 0 0 0 0 0 0 
0 0 0 0 0 0 0 0 5.984794e+00 3.091825e+02 8.763282e+02 7.277516e+02 1.579565e+02 3.335320e+00 0 0 0 0 0 -3.335320e+00 -1.579565e+02 -7.277516e+02 -8.763282e+02 -3.091825e+02 -5.984794e+00 0 0 0 0 0 0 0 
0 0 0 0 0 0 0 0 4.775434e+01 5.529446e+02 8.416784e+02 3.496216e+02 1.313345e+01 0 0 0 0 0 0 0 -1.313345e+01 -3.496216e+02 -8.416784e+02 -5.529446e+02 -4.775434e+01 0 0 0 0 0 0 0 
0 0 0 0 0 0 0 0 1.482911e+02 6.675279e+02 6.423849e+02 1.231481e+02 0 0 0 0 0 0 0 0 0 -1.231481e+02 -6.423849e+02 -6.675279e+02 -1.482911e+02 0 0 0 0 0 0 0 
0 0 0 0 0 0 0 5.942402e-01 2.704382e+02 7.166148e+02 4.752052e+02 2.843438e+01 0 0 0 0 0 0 0 0 0 -2.843438e+01 -4.752052e+02 -7.166148e+02 -2.704382e+02 -5.942402e-01 0 0 0 0 0 0 
0 0 0 0 0 0 0 5.333713e+00 3.554698e+02 6.727578e+02 3.260805e+02 3.458770e+00 0 0 0 0 0 0 0 0 0 -3.458770e+00 -3.260805e+02 -6.727578e+02 -3.554698e+02 -5.333713e+00 0 0 0 0 0 0 
0 0 0 0 0 0 0 1.490649e+01 3.844223e+02 5.842345e+02 2.148331e+02 1.144489e-01 0 0 0 0 0 0 0 0 0 -1.144489e-01 -2.148331e+02 -5.842345e+02 -3.844223e+02 -1.490649e+01 0 0 0 0 0 0 
0 0 0 0 0 0 0 2.660859e+01 4.067893e+02 5.485297e+02 1.683490e+02 0 0 0 0 0 0 0 0 0 0 0 -1.683490e+02 -5.485297e+02 -4.067893e+02 -2.660859e+01 0 0 0 0 0 0 
0 0 0 0 0 0 0 3.288315e+01 4.275739e+02 5.530324e+02 1.583416e+02 0 0 0 0 0 0 0 0 0 0 0 -1.583416e+02 -5.530324e+02 -4.275739e+02 -3.288315e+01 0 0 0 0 0 0 
0 0 0 0 0 0 0 2.660859e+01 4.067893e+02 5.485297e+02 1.683490e+02 0 0 0 0 0 0 0 0 0 0 0 -1.683490e+02 -5.485297e+02 -4.067893e+02 -2.660859e+01 0 0 0 0 0 0 
0 0 0 0 0 0 0 1.490649e+01 3.844223e+02 5.842345e+02 2.148331e+02 1.144489e-01 0 0 0 0 0 0 0 0 0 -1.144489e-01 -2.148331e+02 -5.842345e+02 -3.844223e+02 -1.490649e+01 0 0 0 0 0 0 
0 0 0 0 0 0 0 5.333713e+00 3.554698e+02 6.727578e+02 3.260805e+02 3.458770e+00 0 0 0 0 0 0 0 0 0 -3.458770e+00 -3.260805e+02 -6.727578e+02 -3.554698e+02 -5.333713e+00 0 0 0 0 0 0 
0 0 0 0 0 0 0 5.942402e-01 2.704382e+02 7.166148e+02 4.752052e+02 2.843438e+01 0 0 0 0 0 0 0 0 0 -2.843438e+01 -4.752052e+02 -7.166148e+02 -2.704382e+02 -5.942402e-01 0 0 0 0 0 0 
0 0 0 0 0 0 0 0 1.482911e+02 6.675279e+02 6.423849e+02 1.231481e+02 0 0 0 0 0 0 0 0 0 -1.231481e+02 -6.423849e+02 -6.675279e+02 -1.482911e+02 0 0 0 0 0 0 0 
0 0 0 0 0 0 0 0 4.775434e+01 5.529446e+02 8.416784e+02 3.496216e+02 1.313345e+01 0 0 0 0 0 0 0 -1.313345e+01 -3.496216e+02 -8.416784e+02 -5.529446e+02 -4.775434e+01 0 0 0 0 0 0 0 
0 0 0 0 0 0 0 0 5.984794e+00 3.091825e+02 8.763282e+02 7.277516e+02 1.579565e+02 3.335320e+00 0 0 0 0 0 -3.335320e+00 -1.579565e+02 -7.277516e+02 -8.763282e+02 -3.091825e+02 -5.984794e+00 0 0 0 0 0 0 0 
0 0 0 0 0 0 0 0 1.332434e-01 7.237689e+01 5.573002e+02 9.021345e+02 5.485569e+02 1.416277e+02 1.014869e+01 0 0 0 -1.014869e+01 -1.416277e+02 -5.485569e+02 -9.021345e+02 -5.573002e+02 -7.237689e+01 -1.332434e-01 0 0 0 0 0 0 0 
0 0 0 0 0 0 0 0 0 4.688994e+00 1.639547e+02 6.058261e+02 9.233504e+02 6.258094e+02 2.054946e+02 6.985899e+01 -7.252002e-12 -6.985899e+01 -2.054946e+02 -6.258094e+02 -9.233504e+02 -6.058261e+02 -1.639547e+02 -4.688994e+00 0 0 0 0 0 0 0 0 
0 0 0 0 0 0 0 0 0 0 8.909427e+00 1.880248e+02 6.068003e+02 6.948116e+02 4.950749e+02 3.048410e+02 3.776235e-11 -3.048410e+02 -4.950749e+02 -6.948116e+02 -6.068003e+02 -1.880248e+02 -8.909427e+00 0 0 0 0 0 0 0 0 0 
0 0 0 0 0 0 0 0 0 0 0 8.145142e+00 8.725282e+01 2.136359e+02 3.285893e+02 2.708845e+02 7.644498e-11 -2.708845e+02 -3.285893e+02 -2.136359e+02 -8.725282e+01 -8.145142e+00 0 0 0 0 0 0 0 0 0 0 
0 0 0 0 0 0 0 0 0 0 0 0 6.907253e-02 6.341285e+00 2.886039e+01 3.590250e+01 3.142259e-11 -3.590250e+01 -2.886039e+01 -6.341285e+00 -6.907253e-02 0 0 0 0 0 0 0 0 0 0 0 
0 0 0 0 0 0 0 0 0 0 0 0 0 0 0 0 0 0 0 0 0 0 0 0 0 0 0 0 0 0 0 0 
0 0 0 0 0 0 0 0 0 0 0 0 0 0 0 0 0 0 0 0 0 0 0 0 0 0 0 0 0 0 0 0 
0 0 0 0 0 0 0 0 0 0 0 0 0 0 0 0 0 0 0 0 0 0 0 0 0 0 0 0 0 0 0 0 
