# vtk DataFile Version 2.0
Comment goes here
ASCII

DATASET STRUCTURED_POINTS
FIELD FieldData 1
TIME 1 1 double
1.20000000
DIMENSIONS    32   32   1

ORIGIN    0.000   0.000   0.000
SPACING   0.03125 0.03125   1.000

POINT_DATA   1024
SCALARS fX double
LOOKUP_TABLE default

0 0 0 0 0 0 0 0 0 0 0 0 0 0 0 0 0 0 0 0 0 0 0 0 0 0 0 0 0 0 0 0 
0 0 0 0 0 0 0 0 0 0 0 0 0 0 0 0 0 0 0 0 0 0 0 0 0 0 0 0 0 0 0 0 
0 0 0 0 0 0 0 0 0 0 0 0 0 0 0 0 0 0 0 0 0 0 0 0 0 0 0 0 0 0 0 0 
0 0 0 0 0 0 0 0 0 0 0 0 0 0 0 0 0 0 0 0 0 0 0 0 0 0 0 0 0 0 0 0 
0 0 0 0 0 0 0 0 0 0 0 0 0 0 0 0 0 0 0 0 0 0 0 0 0 0 0 0 0 0 0 0 
0 0 0 0 0 0 0 0 0 0 0 0 0 0 0 0 0 0 0 0 0 0 0 0 0 0 0 0 0 0 0 0 
0 0 0 0 0 0 0 0 0 0 0 0 0 0 0 0 0 0 0 0 0 0 0 0 0 0 0 0 0 0 0 0 
0 0 0 0 0 0 0 0 0 0 0 0 0 -1.128062e-01 2.271029e-01 2.112925e+00 -2.206422e-12 -2.112925e+00 -2.271029e-01 1.128062e-01 0 0 0 0 0 0 0 0 0 0 0 0 
0 0 0 0 0 0 0 0 0 0 -6.560697e-03 1.046736e+01 -3.812158e+00 7.403708e+01 9.807734e+01 5.195749e+01 8.285114e-11 -5.195749e+01 -9.807734e+01 -7.403708e+01 3.812158e+00 -1.046736e+01 6.560697e-03 0 0 0 0 0 0 0 0 0 
0 0 0 0 0 0 0 0 0 3.514683e-01 3.128198e+01 1.390539e+02 2.251405e+02 2.877542e+02 2.523091e+02 1.407601e+02 1.549084e-10 -1.407601e+02 -2.523091e+02 -2.877542e+02 -2.251405e+02 -1.390539e+02 -3.128198e+01 -3.514683e-01 0 0 0 0 0 0 0 0 
0 0 0 0 0 0 0 0 1.293701e-01 2.589595e+01 2.598556e+02 5.292550e+02 4.938765e+02 2.770105e+02 1.536426e+02 9.410045e+01 6.981686e-11 -9.410045e+01 -1.536426e+02 -2.770105e+02 -4.938765e+02 -5.292550e+02 -2.598556e+02 -2.589595e+01 -1.293701e-01 0 0 0 0 0 0 0 
0 0 0 0 0 0 0 0 2.383933e+01 2.688320e+02 6.217220e+02 6.142681e+02 3.057801e+02 6.424035e+01 -8.162117e-01 3.184909e+00 0 -3.184909e+00 8.162117e-01 -6.424035e+01 -3.057801e+02 -6.142681e+02 -6.217220e+02 -2.688320e+02 -2.383933e+01 0 0 0 0 0 0 0 
0 0 0 0 0 0 0 2.117023e+00 2.034706e+02 6.943110e+02 7.174507e+02 2.646272e+02 4.096812e+01 8.341756e-01 0 0 0 0 0 -8.341756e-01 -4.096812e+01 -2.646272e+02 -7.174507e+02 -6.943110e+02 -2.034706e+02 -2.117023e+00 0 0 0 0 0 0 
0 0 0 0 0 0 0 1.128118e+01 4.647550e+02 9.184410e+02 5.164190e+02 5.156360e+01 1.117966e-01 0 0 0 0 0 0 0 -1.117966e-01 -5.156360e+01 -5.164190e+02 -9.184410e+02 -4.647550e+02 -1.128118e+01 0 0 0 0 0 0 
0 0 0 0 0 0 0 8.737768e+01 6.888427e+02 8.530300e+02 2.521011e+02 5.360289e-01 0 0 0 0 0 0 0 0 0 -5.360289e-01 -2.521011e+02 -8.530300e+02 -6.888427e+02 -8.737768e+01 0 0 0 0 0 0 
0 0 0 0 0 0 0 1.737371e+02 8.287724e+02 7.619866e+02 1.069512e+02 0 0 0 0 0 0 0 0 0 0 0 -1.069512e+02 -7.619866e+02 -8.287724e+02 -1.737371e+02 0 0 0 0 0 0 
0 0 0 0 0 0 0 1.910471e+02 8.498482e+02 7.527479e+02 9.394683e+01 0 0 0 0 0 0 0 0 0 0 0 -9.394683e+01 -7.527479e+02 -8.498482e+02 -1.910471e+02 0 0 0 0 0 0 
0 0 0 0 0 0 0 1.737371e+02 8.287724e+02 7.619866e+02 1.069512e+02 0 0 0 0 0 0 0 0 0 0 0 -1.069512e+02 -7.619866e+02 -8.287724e+02 -1.737371e+02 0 0 0 0 0 0 
0 0 0 0 0 0 0 8.737768e+01 6.888427e+02 8.530300e+02 2.521011e+02 5.360289e-01 0 0 0 0 0 0 0 0 0 -5.360289e-01 -2.521011e+02 -8.530300e+02 -6.888427e+02 -8.737768e+01 0 0 0 0 0 0 
0 0 0 0 0 0 0 1.128118e+01 4.647550e+02 9.184410e+02 5.164190e+02 5.156360e+01 1.117966e-01 0 0 0 0 0 0 0 -1.117966e-01 -5.156360e+01 -5.164190e+02 -9.184410e+02 -4.647550e+02 -1.128118e+01 0 0 0 0 0 0 
0 0 0 0 0 0 0 2.117023e+00 2.034706e+02 6.943110e+02 7.174507e+02 2.646272e+02 4.096812e+01 8.341756e-01 0 0 0 0 0 -8.341756e-01 -4.096812e+01 -2.646272e+02 -7.174507e+02 -6.943110e+02 -2.034706e+02 -2.117023e+00 0 0 0 0 0 0 
0 0 0 0 0 0 0 0 2.383933e+01 2.688320e+02 6.217220e+02 6.142681e+02 3.057801e+02 6.424035e+01 -8.162117e-01 3.184909e+00 0 -3.184909e+00 8.162117e-01 -6.424035e+01 -3.057801e+02 -6.142681e+02 -6.217220e+02 -2.688320e+02 -2.383933e+01 0 0 0 0 0 0 0 
0 0 0 0 0 0 0 0 1.293701e-01 2.589595e+01 2.598556e+02 5.292550e+02 4.938765e+02 2.770105e+02 1.536426e+02 9.410045e+01 -1.036319e-10 -9.410045e+01 -1.536426e+02 -2.770105e+02 -4.938765e+02 -5.292550e+02 -2.598556e+02 -2.589595e+01 -1.293701e-01 0 0 0 0 0 0 0 
0 0 0 0 0 0 0 0 0 3.514683e-01 3.128198e+01 1.390539e+02 2.251405e+02 2.877542e+02 2.523091e+02 1.407601e+02 -1.864973e-10 -1.407601e+02 -2.523091e+02 -2.877542e+02 -2.251405e+02 -1.390539e+02 -3.128198e+01 -3.514683e-01 0 0 0 0 0 0 0 0 
0 0 0 0 0 0 0 0 0 0 -6.560697e-03 1.046736e+01 -3.812158e+00 7.403708e+01 9.807734e+01 5.195749e+01 -7.870656e-11 -5.195749e+01 -9.807734e+01 -7.403708e+01 3.812158e+00 -1.046736e+01 6.560697e-03 0 0 0 0 0 0 0 0 0 
0 0 0 0 0 0 0 0 0 0 0 0 0 -1.128062e-01 2.271029e-01 2.112925e+00 4.167380e-12 -2.112925e+00 -2.271029e-01 1.128062e-01 0 0 0 0 0 0 0 0 0 0 0 0 
0 0 0 0 0 0 0 0 0 0 0 0 0 0 0 0 0 0 0 0 0 0 0 0 0 0 0 0 0 0 0 0 
0 0 0 0 0 0 0 0 0 0 0 0 0 0 0 0 0 0 0 0 0 0 0 0 0 0 0 0 0 0 0 0 
0 0 0 0 0 0 0 0 0 0 0 0 0 0 0 0 0 0 0 0 0 0 0 0 0 0 0 0 0 0 0 0 
0 0 0 0 0 0 0 0 0 0 0 0 0 0 0 0 0 0 0 0 0 0 0 0 0 0 0 0 0 0 0 0 
0 0 0 0 0 0 0 0 0 0 0 0 0 0 0 0 0 0 0 0 0 0 0 0 0 0 0 0 0 0 0 0 
0 0 0 0 0 0 0 0 0 0 0 0 0 0 0 0 0 0 0 0 0 0 0 0 0 0 0 0 0 0 0 0 
