# vtk DataFile Version 2.0
Comment goes here
ASCII

DATASET STRUCTURED_POINTS
FIELD FieldData 1
TIME 1 1 double
0.48000000
DIMENSIONS    32   32   1

ORIGIN    0.000   0.000   0.000
SPACING   0.03125 0.03125   1.000

POINT_DATA   1024
SCALARS fX double
LOOKUP_TABLE default

0 0 0 0 0 0 0 0 0 0 0 0 0 0 0 0 0 0 0 0 0 0 0 0 0 0 0 0 0 0 0 0 
0 0 0 0 0 0 0 0 0 0 0 0 0 0 0 0 0 0 0 0 0 0 0 0 0 0 0 0 0 0 0 0 
0 0 0 0 0 0 0 0 0 0 0 0 0 0 0 0 0 0 0 0 0 0 0 0 0 0 0 0 0 0 0 0 
0 0 0 0 0 0 0 0 0 0 0 0 0 0 0 0 0 0 0 0 0 0 0 0 0 0 0 0 0 0 0 0 
0 0 0 0 0 0 0 0 0 0 0 0 0 3.273060e-02 9.653142e-01 2.308315e+00 -2.140923e-12 -2.308315e+00 -9.653142e-01 -3.273060e-02 0 0 0 0 0 0 0 0 0 0 0 0 
0 0 0 0 0 0 0 0 0 0 0 6.549024e-01 2.296660e+01 1.099263e+02 1.822672e+02 1.295018e+02 1.622714e-12 -1.295018e+02 -1.822672e+02 -1.099263e+02 -2.296660e+01 -6.549024e-01 0 0 0 0 0 0 0 0 0 0 
0 0 0 0 0 0 0 0 0 0 2.094011e+00 8.086147e+01 3.147161e+02 5.350657e+02 4.891785e+02 2.427751e+02 1.097526e-11 -2.427751e+02 -4.891785e+02 -5.350657e+02 -3.147161e+02 -8.086147e+01 -2.094011e+00 0 0 0 0 0 0 0 0 0 
0 0 0 0 0 0 0 0 0 9.121509e-01 8.507179e+01 4.734068e+02 8.198589e+02 6.714319e+02 3.394647e+02 1.178847e+02 7.203332e-12 -1.178847e+02 -3.394647e+02 -6.714319e+02 -8.198589e+02 -4.734068e+02 -8.507179e+01 -9.121509e-01 0 0 0 0 0 0 0 0 
0 0 0 0 0 0 0 0 1.883005e-03 3.218909e+01 3.878643e+02 8.687690e+02 7.499159e+02 2.661437e+02 3.162287e+01 2.303125e+00 0 -2.303125e+00 -3.162287e+01 -2.661437e+02 -7.499159e+02 -8.687690e+02 -3.878643e+02 -3.218909e+01 -1.883005e-03 0 0 0 0 0 0 0 
0 0 0 0 0 0 0 0 1.385978e+00 2.167058e+02 7.873089e+02 8.127631e+02 2.606232e+02 1.988396e+01 3.475162e-02 0 0 0 -3.475162e-02 -1.988396e+01 -2.606232e+02 -8.127631e+02 -7.873089e+02 -2.167058e+02 -1.385978e+00 0 0 0 0 0 0 0 
0 0 0 0 0 0 0 0 2.556122e+01 4.519240e+02 8.555233e+02 4.687391e+02 3.957855e+01 0 0 0 0 0 0 0 -3.957855e+01 -4.687391e+02 -8.555233e+02 -4.519240e+02 -2.556122e+01 0 0 0 0 0 0 0 
0 0 0 0 0 0 0 0 1.134170e+02 5.959988e+02 6.440165e+02 1.621966e+02 7.618551e-01 0 0 0 0 0 0 0 -7.618551e-01 -1.621966e+02 -6.440165e+02 -5.959988e+02 -1.134170e+02 0 0 0 0 0 0 0 
0 0 0 0 0 0 0 7.112997e-01 2.499469e+02 6.945816e+02 4.813604e+02 3.601437e+01 0 0 0 0 0 0 0 0 0 -3.601437e+01 -4.813604e+02 -6.945816e+02 -2.499469e+02 -7.112997e-01 0 0 0 0 0 0 
0 0 0 0 0 0 0 7.498121e+00 3.859224e+02 7.266888e+02 3.538258e+02 5.561226e+00 0 0 0 0 0 0 0 0 0 -5.561226e+00 -3.538258e+02 -7.266888e+02 -3.859224e+02 -7.498121e+00 0 0 0 0 0 0 
0 0 0 0 0 0 0 2.100094e+01 4.624493e+02 6.875263e+02 2.462766e+02 1.986299e-01 0 0 0 0 0 0 0 0 0 -1.986299e-01 -2.462766e+02 -6.875263e+02 -4.624493e+02 -2.100094e+01 0 0 0 0 0 0 
0 0 0 0 0 0 0 3.158889e+01 4.404647e+02 5.818969e+02 1.730210e+02 0 0 0 0 0 0 0 0 0 0 0 -1.730210e+02 -5.818969e+02 -4.404647e+02 -3.158889e+01 0 0 0 0 0 0 
0 0 0 0 0 0 0 3.474955e+01 4.064616e+02 5.119628e+02 1.402508e+02 0 0 0 0 0 0 0 0 0 0 0 -1.402508e+02 -5.119628e+02 -4.064616e+02 -3.474955e+01 0 0 0 0 0 0 
0 0 0 0 0 0 0 3.158889e+01 4.404647e+02 5.818969e+02 1.730210e+02 0 0 0 0 0 0 0 0 0 0 0 -1.730210e+02 -5.818969e+02 -4.404647e+02 -3.158889e+01 0 0 0 0 0 0 
0 0 0 0 0 0 0 2.100094e+01 4.624493e+02 6.875263e+02 2.462766e+02 1.986299e-01 0 0 0 0 0 0 0 0 0 -1.986299e-01 -2.462766e+02 -6.875263e+02 -4.624493e+02 -2.100094e+01 0 0 0 0 0 0 
0 0 0 0 0 0 0 7.498121e+00 3.859224e+02 7.266888e+02 3.538258e+02 5.561226e+00 0 0 0 0 0 0 0 0 0 -5.561226e+00 -3.538258e+02 -7.266888e+02 -3.859224e+02 -7.498121e+00 0 0 0 0 0 0 
0 0 0 0 0 0 0 7.112997e-01 2.499469e+02 6.945816e+02 4.813604e+02 3.601437e+01 0 0 0 0 0 0 0 0 0 -3.601437e+01 -4.813604e+02 -6.945816e+02 -2.499469e+02 -7.112997e-01 0 0 0 0 0 0 
0 0 0 0 0 0 0 0 1.134170e+02 5.959988e+02 6.440165e+02 1.621966e+02 7.618551e-01 0 0 0 0 0 0 0 -7.618551e-01 -1.621966e+02 -6.440165e+02 -5.959988e+02 -1.134170e+02 0 0 0 0 0 0 0 
0 0 0 0 0 0 0 0 2.556122e+01 4.519240e+02 8.555233e+02 4.687391e+02 3.957855e+01 0 0 0 0 0 0 0 -3.957855e+01 -4.687391e+02 -8.555233e+02 -4.519240e+02 -2.556122e+01 0 0 0 0 0 0 0 
0 0 0 0 0 0 0 0 1.385978e+00 2.167058e+02 7.873089e+02 8.127631e+02 2.606232e+02 1.988396e+01 3.475162e-02 0 0 0 -3.475162e-02 -1.988396e+01 -2.606232e+02 -8.127631e+02 -7.873089e+02 -2.167058e+02 -1.385978e+00 0 0 0 0 0 0 0 
0 0 0 0 0 0 0 0 1.883005e-03 3.218909e+01 3.878643e+02 8.687690e+02 7.499159e+02 2.661437e+02 3.162287e+01 2.303125e+00 0 -2.303125e+00 -3.162287e+01 -2.661437e+02 -7.499159e+02 -8.687690e+02 -3.878643e+02 -3.218909e+01 -1.883005e-03 0 0 0 0 0 0 0 
0 0 0 0 0 0 0 0 0 9.121509e-01 8.507179e+01 4.734068e+02 8.198589e+02 6.714319e+02 3.394647e+02 1.178847e+02 -1.061199e-11 -1.178847e+02 -3.394647e+02 -6.714319e+02 -8.198589e+02 -4.734068e+02 -8.507179e+01 -9.121509e-01 0 0 0 0 0 0 0 0 
0 0 0 0 0 0 0 0 0 0 2.094011e+00 8.086147e+01 3.147161e+02 5.350657e+02 4.891785e+02 2.427751e+02 -9.943913e-12 -2.427751e+02 -4.891785e+02 -5.350657e+02 -3.147161e+02 -8.086147e+01 -2.094011e+00 0 0 0 0 0 0 0 0 0 
0 0 0 0 0 0 0 0 0 0 0 6.549024e-01 2.296660e+01 1.099263e+02 1.822672e+02 1.295018e+02 4.707244e-12 -1.295018e+02 -1.822672e+02 -1.099263e+02 -2.296660e+01 -6.549024e-01 0 0 0 0 0 0 0 0 0 0 
0 0 0 0 0 0 0 0 0 0 0 0 0 3.273060e-02 9.653142e-01 2.308315e+00 4.047824e-12 -2.308315e+00 -9.653142e-01 -3.273060e-02 0 0 0 0 0 0 0 0 0 0 0 0 
0 0 0 0 0 0 0 0 0 0 0 0 0 0 0 0 0 0 0 0 0 0 0 0 0 0 0 0 0 0 0 0 
0 0 0 0 0 0 0 0 0 0 0 0 0 0 0 0 0 0 0 0 0 0 0 0 0 0 0 0 0 0 0 0 
0 0 0 0 0 0 0 0 0 0 0 0 0 0 0 0 0 0 0 0 0 0 0 0 0 0 0 0 0 0 0 0 
