# vtk DataFile Version 2.0
Comment goes here
ASCII

DATASET STRUCTURED_POINTS
FIELD FieldData 1
TIME 1 1 double
0.74000000
DIMENSIONS    32   32   1

ORIGIN    0.000   0.000   0.000
SPACING   0.03125 0.03125   1.000

POINT_DATA   1024
SCALARS fX double
LOOKUP_TABLE default

0 0 0 0 0 0 0 0 0 0 0 0 0 0 0 0 0 0 0 0 0 0 0 0 0 0 0 0 0 0 0 0 
0 0 0 0 0 0 0 0 0 0 0 0 0 0 0 0 0 0 0 0 0 0 0 0 0 0 0 0 0 0 0 0 
0 0 0 0 0 0 0 0 0 0 0 0 0 0 0 0 0 0 0 0 0 0 0 0 0 0 0 0 0 0 0 0 
0 0 0 0 0 0 0 0 0 0 0 0 0 0 0 0 0 0 0 0 0 0 0 0 0 0 0 0 0 0 0 0 
0 0 0 0 0 0 0 0 0 0 0 0 0 0 0 0 0 0 0 0 0 0 0 0 0 0 0 0 0 0 0 0 
0 0 0 0 0 0 0 0 0 0 0 0 0 0 0 0 0 0 0 0 0 0 0 0 0 0 0 0 0 0 0 0 
0 0 0 0 0 0 0 0 0 0 0 0 0 0 0 0 0 0 0 0 0 0 0 0 0 0 0 0 0 0 0 0 
0 0 0 0 0 0 0 0 0 0 0 5.783953e-02 3.578693e-01 5.214480e+00 1.647984e+01 8.570796e+00 -3.628786e-12 -8.570796e+00 -1.647984e+01 -5.214480e+00 -3.578693e-01 -5.783953e-02 0 0 0 0 0 0 0 0 0 0 
0 0 0 0 0 0 0 0 0 1.599955e-02 1.572888e+01 5.735464e+01 1.367844e+02 1.535421e+02 1.436563e+02 7.151152e+01 -5.935528e-12 -7.151152e+01 -1.436563e+02 -1.535421e+02 -1.367844e+02 -5.735464e+01 -1.572888e+01 -1.599955e-02 0 0 0 0 0 0 0 0 
0 0 0 0 0 0 0 0 2.314257e+00 5.185569e+01 2.496489e+02 4.205135e+02 4.018032e+02 2.634847e+02 1.750793e+02 8.079676e+01 -4.079895e-13 -8.079676e+01 -1.750793e+02 -2.634847e+02 -4.018032e+02 -4.205135e+02 -2.496489e+02 -5.185569e+01 -2.314257e+00 0 0 0 0 0 0 0 
0 0 0 0 0 0 0 4.484843e+00 1.139164e+02 4.078675e+02 6.266637e+02 5.553980e+02 3.148861e+02 1.163184e+02 4.790290e+01 1.785604e+01 1.900713e-12 -1.785604e+01 -4.790290e+01 -1.163184e+02 -3.148861e+02 -5.553980e+02 -6.266637e+02 -4.078675e+02 -1.139164e+02 -4.484843e+00 0 0 0 0 0 0 
0 0 0 0 0 0 1.624942e-01 1.012339e+02 5.282052e+02 8.347668e+02 5.617591e+02 2.024742e+02 4.950943e+01 1.161275e+00 0 0 0 0 0 -1.161275e+00 -4.950943e+01 -2.024742e+02 -5.617591e+02 -8.347668e+02 -5.282052e+02 -1.012339e+02 -1.624942e-01 0 0 0 0 0 
0 0 0 0 0 0 2.089874e+01 3.920926e+02 9.475675e+02 7.471789e+02 1.810981e+02 1.029289e+01 0 0 0 0 0 0 0 0 0 -1.029289e+01 -1.810981e+02 -7.471789e+02 -9.475675e+02 -3.920926e+02 -2.089874e+01 0 0 0 0 0 
0 0 0 0 0 0 1.495805e+02 8.037479e+02 9.734603e+02 3.314433e+02 1.215032e+01 0 0 0 0 0 0 0 0 0 0 0 -1.215032e+01 -3.314433e+02 -9.734603e+02 -8.037479e+02 -1.495805e+02 0 0 0 0 0 
0 0 0 0 0 6.272782e-02 3.700751e+02 1.103121e+03 8.080903e+02 7.504875e+01 6.752397e-02 0 0 0 0 0 0 0 0 0 0 0 -6.752397e-02 -7.504875e+01 -8.080903e+02 -1.103121e+03 -3.700751e+02 -6.272782e-02 0 0 0 0 
0 0 0 0 0 1.547002e+00 5.562909e+02 1.183408e+03 6.412448e+02 1.258079e+01 0 0 0 0 0 0 0 0 0 0 0 0 0 -1.258079e+01 -6.412448e+02 -1.183408e+03 -5.562909e+02 -1.547002e+00 0 0 0 0 
0 0 0 0 0 2.968549e+00 6.301203e+02 1.177382e+03 5.513008e+02 1.070838e+00 0 0 0 0 0 0 0 0 0 0 0 0 0 -1.070838e+00 -5.513008e+02 -1.177382e+03 -6.301203e+02 -2.968549e+00 0 0 0 0 
0 0 0 0 0 1.547002e+00 5.562909e+02 1.183408e+03 6.412448e+02 1.258079e+01 0 0 0 0 0 0 0 0 0 0 0 0 0 -1.258079e+01 -6.412448e+02 -1.183408e+03 -5.562909e+02 -1.547002e+00 0 0 0 0 
0 0 0 0 0 6.272782e-02 3.700751e+02 1.103121e+03 8.080903e+02 7.504875e+01 6.752397e-02 0 0 0 0 0 0 0 0 0 0 0 -6.752397e-02 -7.504875e+01 -8.080903e+02 -1.103121e+03 -3.700751e+02 -6.272782e-02 0 0 0 0 
0 0 0 0 0 0 1.495805e+02 8.037479e+02 9.734603e+02 3.314433e+02 1.215032e+01 0 0 0 0 0 0 0 0 0 0 0 -1.215032e+01 -3.314433e+02 -9.734603e+02 -8.037479e+02 -1.495805e+02 0 0 0 0 0 
0 0 0 0 0 0 2.089874e+01 3.920926e+02 9.475675e+02 7.471789e+02 1.810981e+02 1.029289e+01 0 0 0 0 0 0 0 0 0 -1.029289e+01 -1.810981e+02 -7.471789e+02 -9.475675e+02 -3.920926e+02 -2.089874e+01 0 0 0 0 0 
0 0 0 0 0 0 1.624942e-01 1.012339e+02 5.282052e+02 8.347668e+02 5.617591e+02 2.024742e+02 4.950943e+01 1.161275e+00 0 0 0 0 0 -1.161275e+00 -4.950943e+01 -2.024742e+02 -5.617591e+02 -8.347668e+02 -5.282052e+02 -1.012339e+02 -1.624942e-01 0 0 0 0 0 
0 0 0 0 0 0 0 4.484843e+00 1.139164e+02 4.078675e+02 6.266637e+02 5.553980e+02 3.148861e+02 1.163184e+02 4.790290e+01 1.785604e+01 2.695165e-12 -1.785604e+01 -4.790290e+01 -1.163184e+02 -3.148861e+02 -5.553980e+02 -6.266637e+02 -4.078675e+02 -1.139164e+02 -4.484843e+00 0 0 0 0 0 0 
0 0 0 0 0 0 0 0 2.314257e+00 5.185569e+01 2.496489e+02 4.205135e+02 4.018032e+02 2.634847e+02 1.750793e+02 8.079676e+01 -3.223172e-12 -8.079676e+01 -1.750793e+02 -2.634847e+02 -4.018032e+02 -4.205135e+02 -2.496489e+02 -5.185569e+01 -2.314257e+00 0 0 0 0 0 0 0 
0 0 0 0 0 0 0 0 0 1.599955e-02 1.572888e+01 5.735464e+01 1.367844e+02 1.535421e+02 1.436563e+02 7.151152e+01 -1.242133e-11 -7.151152e+01 -1.436563e+02 -1.535421e+02 -1.367844e+02 -5.735464e+01 -1.572888e+01 -1.599955e-02 0 0 0 0 0 0 0 0 
0 0 0 0 0 0 0 0 0 0 0 5.783953e-02 3.578693e-01 5.214480e+00 1.647984e+01 8.570796e+00 -6.507360e-12 -8.570796e+00 -1.647984e+01 -5.214480e+00 -3.578693e-01 -5.783953e-02 0 0 0 0 0 0 0 0 0 0 
0 0 0 0 0 0 0 0 0 0 0 0 0 0 0 0 0 0 0 0 0 0 0 0 0 0 0 0 0 0 0 0 
0 0 0 0 0 0 0 0 0 0 0 0 0 0 0 0 0 0 0 0 0 0 0 0 0 0 0 0 0 0 0 0 
0 0 0 0 0 0 0 0 0 0 0 0 0 0 0 0 0 0 0 0 0 0 0 0 0 0 0 0 0 0 0 0 
0 0 0 0 0 0 0 0 0 0 0 0 0 0 0 0 0 0 0 0 0 0 0 0 0 0 0 0 0 0 0 0 
0 0 0 0 0 0 0 0 0 0 0 0 0 0 0 0 0 0 0 0 0 0 0 0 0 0 0 0 0 0 0 0 
0 0 0 0 0 0 0 0 0 0 0 0 0 0 0 0 0 0 0 0 0 0 0 0 0 0 0 0 0 0 0 0 
