# vtk DataFile Version 2.0
Comment goes here
ASCII

DATASET STRUCTURED_POINTS
FIELD FieldData 1
TIME 1 1 double
0.22000000
DIMENSIONS    32   32   1

ORIGIN    0.000   0.000   0.000
SPACING   0.03125 0.03125   1.000

POINT_DATA   1024
SCALARS fX double
LOOKUP_TABLE default

0 0 0 0 0 0 0 0 0 0 0 0 0 0 0 0 0 0 0 0 0 0 0 0 0 0 0 0 0 0 0 0 
0 0 0 0 0 0 0 0 0 0 0 0 0 0 0 0 0 0 0 0 0 0 0 0 0 0 0 0 0 0 0 0 
0 0 0 0 0 0 0 0 0 0 0 0 0 0 0 0 0 0 0 0 0 0 0 0 0 0 0 0 0 0 0 0 
0 0 0 0 0 0 0 0 0 0 0 0 0 0 0 0 0 0 0 0 0 0 0 0 0 0 0 0 0 0 0 0 
0 0 0 0 0 0 0 0 0 0 0 0 0 0 0 0 0 0 0 0 0 0 0 0 0 0 0 0 0 0 0 0 
0 0 0 0 0 0 0 0 0 0 0 0 0 0 0 0 0 0 0 0 0 0 0 0 0 0 0 0 0 0 0 0 
0 0 0 0 0 0 0 0 0 0 0 0 0 0 0 0 0 0 0 0 0 0 0 0 0 0 0 0 0 0 0 0 
0 0 0 0 0 0 0 0 0 0 3.172559e-02 2.301690e+00 1.373005e+01 3.896726e+01 6.937441e+01 6.507519e+01 1.234101e-11 -6.507519e+01 -6.937441e+01 -3.896726e+01 -1.373005e+01 -2.301690e+00 -3.172559e-02 0 0 0 0 0 0 0 0 0 
0 0 0 0 0 0 0 0 2.235026e+00 2.834993e+01 1.342289e+02 2.620337e+02 2.350230e+02 1.851332e+02 2.226790e+02 1.781017e+02 2.907698e-11 -1.781017e+02 -2.226790e+02 -1.851332e+02 -2.350230e+02 -2.620337e+02 -1.342289e+02 -2.834993e+01 -2.235026e+00 0 0 0 0 0 0 0 
0 0 0 0 0 0 0 7.389612e+00 1.360207e+02 4.776179e+02 6.984465e+02 6.409455e+02 3.834886e+02 1.771559e+02 1.652528e+02 1.171510e+02 1.690283e-11 -1.171510e+02 -1.652528e+02 -1.771559e+02 -3.834886e+02 -6.409455e+02 -6.984465e+02 -4.776179e+02 -1.360207e+02 -7.389612e+00 0 0 0 0 0 0 
0 0 0 0 0 0 8.403403e+00 1.682793e+02 6.520230e+02 1.038019e+03 8.295826e+02 4.252008e+02 1.638494e+02 3.098994e+01 1.194819e+01 4.124485e+00 1.797917e-13 -4.124485e+00 -1.194819e+01 -3.098994e+01 -1.638494e+02 -4.252008e+02 -8.295826e+02 -1.038019e+03 -6.520230e+02 -1.682793e+02 -8.403403e+00 0 0 0 0 0 
0 0 0 0 0 1.042587e+00 1.350182e+02 6.502550e+02 1.028719e+03 7.447961e+02 2.746898e+02 4.398730e+01 1.653810e+00 0 0 0 0 0 0 0 -1.653810e+00 -4.398730e+01 -2.746898e+02 -7.447961e+02 -1.028719e+03 -6.502550e+02 -1.350182e+02 -1.042587e+00 0 0 0 0 
0 0 0 0 0 3.342315e+01 4.978831e+02 1.073808e+03 7.653526e+02 1.653609e+02 9.356610e+00 0 0 0 0 0 0 0 0 0 0 0 -9.356610e+00 -1.653609e+02 -7.653526e+02 -1.073808e+03 -4.978831e+02 -3.342315e+01 0 0 0 0 
0 0 0 0 0 1.685224e+02 9.274904e+02 1.071272e+03 3.216265e+02 9.322717e+00 0 0 0 0 0 0 0 0 0 0 0 0 0 -9.322717e+00 -3.216265e+02 -1.071272e+03 -9.274904e+02 -1.685224e+02 0 0 0 0 
0 0 0 0 0 3.652495e+02 1.143331e+03 8.579819e+02 7.990790e+01 7.112507e-03 0 0 0 0 0 0 0 0 0 0 0 0 0 -7.112507e-03 -7.990790e+01 -8.579819e+02 -1.143331e+03 -3.652495e+02 0 0 0 0 
0 0 0 0 1.752046e-01 4.957036e+02 1.124314e+03 6.426147e+02 1.382951e+01 0 0 0 0 0 0 0 0 0 0 0 0 0 0 0 -1.382951e+01 -6.426147e+02 -1.124314e+03 -4.957036e+02 -1.752046e-01 0 0 0 
0 0 0 0 3.504093e-01 5.331920e+02 1.074410e+03 5.429234e+02 1.354818e+00 0 0 0 0 0 0 0 0 0 0 0 0 0 0 0 -1.354818e+00 -5.429234e+02 -1.074410e+03 -5.331920e+02 -3.504093e-01 0 0 0 
0 0 0 0 1.752046e-01 4.957036e+02 1.124314e+03 6.426147e+02 1.382951e+01 0 0 0 0 0 0 0 0 0 0 0 0 0 0 0 -1.382951e+01 -6.426147e+02 -1.124314e+03 -4.957036e+02 -1.752046e-01 0 0 0 
0 0 0 0 0 3.652495e+02 1.143331e+03 8.579819e+02 7.990790e+01 7.112507e-03 0 0 0 0 0 0 0 0 0 0 0 0 0 -7.112507e-03 -7.990790e+01 -8.579819e+02 -1.143331e+03 -3.652495e+02 0 0 0 0 
0 0 0 0 0 1.685224e+02 9.274904e+02 1.071272e+03 3.216265e+02 9.322717e+00 0 0 0 0 0 0 0 0 0 0 0 0 0 -9.322717e+00 -3.216265e+02 -1.071272e+03 -9.274904e+02 -1.685224e+02 0 0 0 0 
0 0 0 0 0 3.342315e+01 4.978831e+02 1.073808e+03 7.653526e+02 1.653609e+02 9.356610e+00 0 0 0 0 0 0 0 0 0 0 0 -9.356610e+00 -1.653609e+02 -7.653526e+02 -1.073808e+03 -4.978831e+02 -3.342315e+01 0 0 0 0 
0 0 0 0 0 1.042587e+00 1.350182e+02 6.502550e+02 1.028719e+03 7.447961e+02 2.746898e+02 4.398730e+01 1.653810e+00 0 0 0 0 0 0 0 -1.653810e+00 -4.398730e+01 -2.746898e+02 -7.447961e+02 -1.028719e+03 -6.502550e+02 -1.350182e+02 -1.042587e+00 0 0 0 0 
0 0 0 0 0 0 8.403403e+00 1.682793e+02 6.520230e+02 1.038019e+03 8.295826e+02 4.252008e+02 1.638494e+02 3.098994e+01 1.194819e+01 4.124485e+00 -2.910722e-12 -4.124485e+00 -1.194819e+01 -3.098994e+01 -1.638494e+02 -4.252008e+02 -8.295826e+02 -1.038019e+03 -6.520230e+02 -1.682793e+02 -8.403403e+00 0 0 0 0 0 
0 0 0 0 0 0 0 7.389612e+00 1.360207e+02 4.776179e+02 6.984465e+02 6.409455e+02 3.834886e+02 1.771559e+02 1.652528e+02 1.171510e+02 2.600986e-11 -1.171510e+02 -1.652528e+02 -1.771559e+02 -3.834886e+02 -6.409455e+02 -6.984465e+02 -4.776179e+02 -1.360207e+02 -7.389612e+00 0 0 0 0 0 0 
0 0 0 0 0 0 0 0 2.235026e+00 2.834993e+01 1.342289e+02 2.620337e+02 2.350230e+02 1.851332e+02 2.226790e+02 1.781017e+02 7.657143e-11 -1.781017e+02 -2.226790e+02 -1.851332e+02 -2.350230e+02 -2.620337e+02 -1.342289e+02 -2.834993e+01 -2.235026e+00 0 0 0 0 0 0 0 
0 0 0 0 0 0 0 0 0 0 3.172559e-02 2.301690e+00 1.373005e+01 3.896726e+01 6.937441e+01 6.507519e+01 4.765805e-11 -6.507519e+01 -6.937441e+01 -3.896726e+01 -1.373005e+01 -2.301690e+00 -3.172559e-02 0 0 0 0 0 0 0 0 0 
0 0 0 0 0 0 0 0 0 0 0 0 0 0 0 0 0 0 0 0 0 0 0 0 0 0 0 0 0 0 0 0 
0 0 0 0 0 0 0 0 0 0 0 0 0 0 0 0 0 0 0 0 0 0 0 0 0 0 0 0 0 0 0 0 
0 0 0 0 0 0 0 0 0 0 0 0 0 0 0 0 0 0 0 0 0 0 0 0 0 0 0 0 0 0 0 0 
0 0 0 0 0 0 0 0 0 0 0 0 0 0 0 0 0 0 0 0 0 0 0 0 0 0 0 0 0 0 0 0 
0 0 0 0 0 0 0 0 0 0 0 0 0 0 0 0 0 0 0 0 0 0 0 0 0 0 0 0 0 0 0 0 
0 0 0 0 0 0 0 0 0 0 0 0 0 0 0 0 0 0 0 0 0 0 0 0 0 0 0 0 0 0 0 0 
