# vtk DataFile Version 2.0
Comment goes here
ASCII

DATASET STRUCTURED_POINTS
FIELD FieldData 1
TIME 1 1 double
0.76000000
DIMENSIONS    32   32   1

ORIGIN    0.000   0.000   0.000
SPACING   0.03125 0.03125   1.000

POINT_DATA   1024
SCALARS fX double
LOOKUP_TABLE default

0 0 0 0 0 0 0 0 0 0 0 0 0 0 0 0 0 0 0 0 0 0 0 0 0 0 0 0 0 0 0 0 
0 0 0 0 0 0 0 0 0 0 0 0 0 0 0 0 0 0 0 0 0 0 0 0 0 0 0 0 0 0 0 0 
0 0 0 0 0 0 0 0 0 0 0 0 0 0 0 0 0 0 0 0 0 0 0 0 0 0 0 0 0 0 0 0 
0 0 0 0 0 0 0 0 0 0 0 0 0 0 0 0 0 0 0 0 0 0 0 0 0 0 0 0 0 0 0 0 
0 0 0 0 0 0 0 0 0 0 0 0 0 0 0 0 0 0 0 0 0 0 0 0 0 0 0 0 0 0 0 0 
0 0 0 0 0 0 0 0 0 0 0 0 0 0 0 0 0 0 0 0 0 0 0 0 0 0 0 0 0 0 0 0 
0 0 0 0 0 0 0 0 0 0 0 0 0 1.862110e-01 6.371645e-01 2.617776e-01 5.340554e-13 -2.617776e-01 -6.371645e-01 -1.862110e-01 0 0 0 0 0 0 0 0 0 0 0 0 
0 0 0 0 0 0 0 0 0 0 0 3.614407e+00 4.344140e+01 9.240392e+01 1.031018e+02 5.080067e+01 1.362271e-11 -5.080067e+01 -1.031018e+02 -9.240392e+01 -4.344140e+01 -3.614407e+00 0 0 0 0 0 0 0 0 0 0 
0 0 0 0 0 0 0 0 0 1.383741e+00 4.949130e+01 1.826707e+02 3.303577e+02 3.457927e+02 2.407651e+02 9.272651e+01 1.947684e-11 -9.272651e+01 -2.407651e+02 -3.457927e+02 -3.303577e+02 -1.826707e+02 -4.949130e+01 -1.383741e+00 0 0 0 0 0 0 0 0 
0 0 0 0 0 0 0 0 2.806484e+00 6.612678e+01 3.244191e+02 5.927431e+02 5.306758e+02 3.046372e+02 1.464341e+02 4.232286e+01 6.390274e-12 -4.232286e+01 -1.464341e+02 -3.046372e+02 -5.306758e+02 -5.927431e+02 -3.244191e+02 -6.612678e+01 -2.806484e+00 0 0 0 0 0 0 0 
0 0 0 0 0 0 0 0 6.220353e+01 4.195528e+02 7.331669e+02 5.923628e+02 2.599639e+02 5.141705e+01 8.133610e+00 1.352402e-01 0 -1.352402e-01 -8.133610e+00 -5.141705e+01 -2.599639e+02 -5.923628e+02 -7.331669e+02 -4.195528e+02 -6.220353e+01 0 0 0 0 0 0 0 
0 0 0 0 0 0 0 1.464916e+01 3.018990e+02 8.240484e+02 7.231808e+02 2.022604e+02 1.623299e+01 3.548322e-01 0 0 0 0 0 -3.548322e-01 -1.623299e+01 -2.022604e+02 -7.231808e+02 -8.240484e+02 -3.018990e+02 -1.464916e+01 0 0 0 0 0 0 
0 0 0 0 0 0 0 9.596301e+01 6.450675e+02 8.750293e+02 3.496573e+02 2.376110e+01 2.864080e-02 0 0 0 0 0 0 0 -2.864080e-02 -2.376110e+01 -3.496573e+02 -8.750293e+02 -6.450675e+02 -9.596301e+01 0 0 0 0 0 0 
0 0 0 0 0 0 6.614719e-01 3.084632e+02 9.346647e+02 7.207637e+02 9.407731e+01 1.765967e-01 0 0 0 0 0 0 0 0 0 -1.765967e-01 -9.407731e+01 -7.207637e+02 -9.346647e+02 -3.084632e+02 -6.614719e-01 0 0 0 0 0 
0 0 0 0 0 0 5.743231e+00 4.930134e+02 9.903150e+02 5.129049e+02 9.860146e+00 0 0 0 0 0 0 0 0 0 0 0 -9.860146e+00 -5.129049e+02 -9.903150e+02 -4.930134e+02 -5.743231e+00 0 0 0 0 0 
0 0 0 0 0 0 1.954014e+01 5.631831e+02 8.837629e+02 3.406184e+02 4.983909e-01 0 0 0 0 0 0 0 0 0 0 0 -4.983909e-01 -3.406184e+02 -8.837629e+02 -5.631831e+02 -1.954014e+01 0 0 0 0 0 
0 0 0 0 0 0 2.891677e+01 5.946381e+02 8.510941e+02 2.853728e+02 0 0 0 0 0 0 0 0 0 0 0 0 0 -2.853728e+02 -8.510941e+02 -5.946381e+02 -2.891677e+01 0 0 0 0 0 
0 0 0 0 0 0 1.954014e+01 5.631831e+02 8.837629e+02 3.406184e+02 4.983909e-01 0 0 0 0 0 0 0 0 0 0 0 -4.983909e-01 -3.406184e+02 -8.837629e+02 -5.631831e+02 -1.954014e+01 0 0 0 0 0 
0 0 0 0 0 0 5.743231e+00 4.930134e+02 9.903150e+02 5.129049e+02 9.860146e+00 0 0 0 0 0 0 0 0 0 0 0 -9.860146e+00 -5.129049e+02 -9.903150e+02 -4.930134e+02 -5.743231e+00 0 0 0 0 0 
0 0 0 0 0 0 6.614719e-01 3.084632e+02 9.346647e+02 7.207637e+02 9.407731e+01 1.765967e-01 0 0 0 0 0 0 0 0 0 -1.765967e-01 -9.407731e+01 -7.207637e+02 -9.346647e+02 -3.084632e+02 -6.614719e-01 0 0 0 0 0 
0 0 0 0 0 0 0 9.596301e+01 6.450675e+02 8.750293e+02 3.496573e+02 2.376110e+01 2.864080e-02 0 0 0 0 0 0 0 -2.864080e-02 -2.376110e+01 -3.496573e+02 -8.750293e+02 -6.450675e+02 -9.596301e+01 0 0 0 0 0 0 
0 0 0 0 0 0 0 1.464916e+01 3.018990e+02 8.240484e+02 7.231808e+02 2.022604e+02 1.623299e+01 3.548322e-01 0 0 0 0 0 -3.548322e-01 -1.623299e+01 -2.022604e+02 -7.231808e+02 -8.240484e+02 -3.018990e+02 -1.464916e+01 0 0 0 0 0 0 
0 0 0 0 0 0 0 0 6.220353e+01 4.195528e+02 7.331669e+02 5.923628e+02 2.599639e+02 5.141705e+01 8.133610e+00 1.352402e-01 0 -1.352402e-01 -8.133610e+00 -5.141705e+01 -2.599639e+02 -5.923628e+02 -7.331669e+02 -4.195528e+02 -6.220353e+01 0 0 0 0 0 0 0 
0 0 0 0 0 0 0 0 2.806484e+00 6.612678e+01 3.244191e+02 5.927431e+02 5.306758e+02 3.046372e+02 1.464341e+02 4.232286e+01 1.218884e-11 -4.232286e+01 -1.464341e+02 -3.046372e+02 -5.306758e+02 -5.927431e+02 -3.244191e+02 -6.612678e+01 -2.806484e+00 0 0 0 0 0 0 0 
0 0 0 0 0 0 0 0 0 1.383741e+00 4.949130e+01 1.826707e+02 3.303577e+02 3.457927e+02 2.407651e+02 9.272651e+01 2.826886e-11 -9.272651e+01 -2.407651e+02 -3.457927e+02 -3.303577e+02 -1.826707e+02 -4.949130e+01 -1.383741e+00 0 0 0 0 0 0 0 0 
0 0 0 0 0 0 0 0 0 0 0 3.614407e+00 4.344140e+01 9.240392e+01 1.031018e+02 5.080067e+01 1.513572e-11 -5.080067e+01 -1.031018e+02 -9.240392e+01 -4.344140e+01 -3.614407e+00 0 0 0 0 0 0 0 0 0 0 
0 0 0 0 0 0 0 0 0 0 0 0 0 1.862110e-01 6.371645e-01 2.617776e-01 -9.437394e-13 -2.617776e-01 -6.371645e-01 -1.862110e-01 0 0 0 0 0 0 0 0 0 0 0 0 
0 0 0 0 0 0 0 0 0 0 0 0 0 0 0 0 0 0 0 0 0 0 0 0 0 0 0 0 0 0 0 0 
0 0 0 0 0 0 0 0 0 0 0 0 0 0 0 0 0 0 0 0 0 0 0 0 0 0 0 0 0 0 0 0 
0 0 0 0 0 0 0 0 0 0 0 0 0 0 0 0 0 0 0 0 0 0 0 0 0 0 0 0 0 0 0 0 
0 0 0 0 0 0 0 0 0 0 0 0 0 0 0 0 0 0 0 0 0 0 0 0 0 0 0 0 0 0 0 0 
0 0 0 0 0 0 0 0 0 0 0 0 0 0 0 0 0 0 0 0 0 0 0 0 0 0 0 0 0 0 0 0 
