# vtk DataFile Version 2.0
Comment goes here
ASCII

DATASET STRUCTURED_POINTS
FIELD FieldData 1
TIME 1 1 double
0.94000000
DIMENSIONS    32   32   1

ORIGIN    0.000   0.000   0.000
SPACING   0.03125 0.03125   1.000

POINT_DATA   1024
SCALARS fX double
LOOKUP_TABLE default

0 0 0 0 0 0 0 0 0 0 0 0 0 0 0 0 0 0 0 0 0 0 0 0 0 0 0 0 0 0 0 0 
0 0 0 0 0 0 0 0 0 0 0 0 0 0 0 0 0 0 0 0 0 0 0 0 0 0 0 0 0 0 0 0 
0 0 0 0 0 0 0 0 0 0 0 0 0 0 0 0 0 0 0 0 0 0 0 0 0 0 0 0 0 0 0 0 
0 0 0 0 0 0 0 0 0 0 0 0 0 0 0 0 0 0 0 0 0 0 0 0 0 0 0 0 0 0 0 0 
0 0 0 0 0 0 0 0 0 0 0 0 0 0 0 0 0 0 0 0 0 0 0 0 0 0 0 0 0 0 0 0 
0 0 0 0 0 0 0 0 0 0 0 0 0 0 0 0 0 0 0 0 0 0 0 0 0 0 0 0 0 0 0 0 
0 0 0 0 0 0 0 0 0 0 0 0 6.563813e-01 1.078342e+01 2.293266e+01 2.195891e+01 9.840415e-12 -2.195891e+01 -2.293266e+01 -1.078342e+01 -6.563813e-01 0 0 0 0 0 0 0 0 0 0 0 
0 0 0 0 0 0 0 0 0 0 4.085348e-02 1.563664e+01 7.423637e+01 2.076192e+02 2.515269e+02 1.412494e+02 3.231678e-11 -1.412494e+02 -2.515269e+02 -2.076192e+02 -7.423637e+01 -1.563664e+01 -4.085348e-02 0 0 0 0 0 0 0 0 0 
0 0 0 0 0 0 0 0 0 0 1.979454e+01 1.855131e+02 4.532400e+02 5.080074e+02 3.398291e+02 1.527465e+02 2.409823e-11 -1.527465e+02 -3.398291e+02 -5.080074e+02 -4.532400e+02 -1.855131e+02 -1.979454e+01 0 0 0 0 0 0 0 0 0 
0 0 0 0 0 0 0 0 0 1.553554e+01 2.008928e+02 5.472499e+02 6.511233e+02 3.751952e+02 1.155651e+02 3.345605e+01 1.631032e-12 -3.345605e+01 -1.155651e+02 -3.751952e+02 -6.511233e+02 -5.472499e+02 -2.008928e+02 -1.553554e+01 0 0 0 0 0 0 0 0 
0 0 0 0 0 0 0 0 1.237888e+00 1.521601e+02 6.250903e+02 7.539932e+02 3.405546e+02 6.505974e+01 4.330203e+00 7.250758e-06 0 -7.250758e-06 -4.330203e+00 -6.505974e+01 -3.405546e+02 -7.539932e+02 -6.250903e+02 -1.521601e+02 -1.237888e+00 0 0 0 0 0 0 0 
0 0 0 0 0 0 0 0 1.044231e+01 3.343642e+02 7.847307e+02 5.328066e+02 7.303402e+01 1.036140e+00 0 0 0 0 0 -1.036140e+00 -7.303402e+01 -5.328066e+02 -7.847307e+02 -3.343642e+02 -1.044231e+01 0 0 0 0 0 0 0 
0 0 0 0 0 0 0 0 1.290374e+02 6.006292e+02 6.532620e+02 1.856128e+02 3.942648e+00 0 0 0 0 0 0 0 -3.942648e+00 -1.856128e+02 -6.532620e+02 -6.006292e+02 -1.290374e+02 0 0 0 0 0 0 0 
0 0 0 0 0 0 0 7.791948e-01 2.612302e+02 7.558620e+02 5.343329e+02 3.892197e+01 0 0 0 0 0 0 0 0 0 -3.892197e+01 -5.343329e+02 -7.558620e+02 -2.612302e+02 -7.791948e-01 0 0 0 0 0 0 
0 0 0 0 0 0 0 6.235577e+00 3.820210e+02 7.429267e+02 3.766828e+02 9.541518e+00 0 0 0 0 0 0 0 0 0 -9.541518e+00 -3.766828e+02 -7.429267e+02 -3.820210e+02 -6.235577e+00 0 0 0 0 0 0 
0 0 0 0 0 0 0 1.617997e+01 4.884148e+02 7.517864e+02 2.795970e+02 4.550713e-02 0 0 0 0 0 0 0 0 0 -4.550713e-02 -2.795970e+02 -7.517864e+02 -4.884148e+02 -1.617997e+01 0 0 0 0 0 0 
0 0 0 0 0 0 0 2.144718e+01 4.955822e+02 7.236641e+02 2.495291e+02 0 0 0 0 0 0 0 0 0 0 0 -2.495291e+02 -7.236641e+02 -4.955822e+02 -2.144718e+01 0 0 0 0 0 0 
0 0 0 0 0 0 0 1.617997e+01 4.884148e+02 7.517864e+02 2.795970e+02 4.550713e-02 0 0 0 0 0 0 0 0 0 -4.550713e-02 -2.795970e+02 -7.517864e+02 -4.884148e+02 -1.617997e+01 0 0 0 0 0 0 
0 0 0 0 0 0 0 6.235577e+00 3.820210e+02 7.429267e+02 3.766828e+02 9.541518e+00 0 0 0 0 0 0 0 0 0 -9.541518e+00 -3.766828e+02 -7.429267e+02 -3.820210e+02 -6.235577e+00 0 0 0 0 0 0 
0 0 0 0 0 0 0 7.791948e-01 2.612302e+02 7.558620e+02 5.343329e+02 3.892197e+01 0 0 0 0 0 0 0 0 0 -3.892197e+01 -5.343329e+02 -7.558620e+02 -2.612302e+02 -7.791948e-01 0 0 0 0 0 0 
0 0 0 0 0 0 0 0 1.290374e+02 6.006292e+02 6.532620e+02 1.856128e+02 3.942648e+00 0 0 0 0 0 0 0 -3.942648e+00 -1.856128e+02 -6.532620e+02 -6.006292e+02 -1.290374e+02 0 0 0 0 0 0 0 
0 0 0 0 0 0 0 0 1.044231e+01 3.343642e+02 7.847307e+02 5.328066e+02 7.303402e+01 1.036140e+00 0 0 0 0 0 -1.036140e+00 -7.303402e+01 -5.328066e+02 -7.847307e+02 -3.343642e+02 -1.044231e+01 0 0 0 0 0 0 0 
0 0 0 0 0 0 0 0 1.237888e+00 1.521601e+02 6.250903e+02 7.539932e+02 3.405546e+02 6.505974e+01 4.330203e+00 7.250758e-06 0 -7.250758e-06 -4.330203e+00 -6.505974e+01 -3.405546e+02 -7.539932e+02 -6.250903e+02 -1.521601e+02 -1.237888e+00 0 0 0 0 0 0 0 
0 0 0 0 0 0 0 0 0 1.553554e+01 2.008928e+02 5.472499e+02 6.511233e+02 3.751952e+02 1.155651e+02 3.345605e+01 -2.321524e-12 -3.345605e+01 -1.155651e+02 -3.751952e+02 -6.511233e+02 -5.472499e+02 -2.008928e+02 -1.553554e+01 0 0 0 0 0 0 0 0 
0 0 0 0 0 0 0 0 0 0 1.979454e+01 1.855131e+02 4.532400e+02 5.080074e+02 3.398291e+02 1.527465e+02 -5.035207e-11 -1.527465e+02 -3.398291e+02 -5.080074e+02 -4.532400e+02 -1.855131e+02 -1.979454e+01 0 0 0 0 0 0 0 0 0 
0 0 0 0 0 0 0 0 0 0 4.085348e-02 1.563664e+01 7.423637e+01 2.076192e+02 2.515269e+02 1.412494e+02 -7.233689e-11 -1.412494e+02 -2.515269e+02 -2.076192e+02 -7.423637e+01 -1.563664e+01 -4.085348e-02 0 0 0 0 0 0 0 0 0 
0 0 0 0 0 0 0 0 0 0 0 0 6.563813e-01 1.078342e+01 2.293266e+01 2.195891e+01 -2.431411e-11 -2.195891e+01 -2.293266e+01 -1.078342e+01 -6.563813e-01 0 0 0 0 0 0 0 0 0 0 0 
0 0 0 0 0 0 0 0 0 0 0 0 0 0 0 0 0 0 0 0 0 0 0 0 0 0 0 0 0 0 0 0 
0 0 0 0 0 0 0 0 0 0 0 0 0 0 0 0 0 0 0 0 0 0 0 0 0 0 0 0 0 0 0 0 
0 0 0 0 0 0 0 0 0 0 0 0 0 0 0 0 0 0 0 0 0 0 0 0 0 0 0 0 0 0 0 0 
0 0 0 0 0 0 0 0 0 0 0 0 0 0 0 0 0 0 0 0 0 0 0 0 0 0 0 0 0 0 0 0 
0 0 0 0 0 0 0 0 0 0 0 0 0 0 0 0 0 0 0 0 0 0 0 0 0 0 0 0 0 0 0 0 
