# vtk DataFile Version 2.0
Comment goes here
ASCII

DATASET STRUCTURED_POINTS
FIELD FieldData 1
TIME 1 1 double
0.66000000
DIMENSIONS    32   32   1

ORIGIN    0.000   0.000   0.000
SPACING   0.03125 0.03125   1.000

POINT_DATA   1024
SCALARS fX double
LOOKUP_TABLE default

0 0 0 0 0 0 0 0 0 0 0 0 0 0 0 0 0 0 0 0 0 0 0 0 0 0 0 0 0 0 0 0 
0 0 0 0 0 0 0 0 0 0 0 0 0 0 0 0 0 0 0 0 0 0 0 0 0 0 0 0 0 0 0 0 
0 0 0 0 0 0 0 0 0 0 0 0 0 0 0 0 0 0 0 0 0 0 0 0 0 0 0 0 0 0 0 0 
0 0 0 0 0 0 0 0 0 0 0 0 0 0 0 0 0 0 0 0 0 0 0 0 0 0 0 0 0 0 0 0 
0 0 0 0 0 0 0 0 0 0 0 0 0 0 0 0 0 0 0 0 0 0 0 0 0 0 0 0 0 0 0 0 
0 0 0 0 0 0 0 0 0 0 0 0 0 8.218761e-01 5.883790e+00 9.640749e+00 -1.343396e-12 -9.640749e+00 -5.883790e+00 -8.218761e-01 0 0 0 0 0 0 0 0 0 0 0 0 
0 0 0 0 0 0 0 0 0 0 0 4.366703e+00 6.808141e+01 1.361027e+02 1.744964e+02 1.576339e+02 7.097048e-12 -1.576339e+02 -1.744964e+02 -1.361027e+02 -6.808141e+01 -4.366703e+00 0 0 0 0 0 0 0 0 0 0 
0 0 0 0 0 0 0 0 0 1.677293e-02 7.863576e+00 1.042261e+02 4.636439e+02 5.890793e+02 3.708007e+02 2.199410e+02 1.486977e-11 -2.199410e+02 -3.708007e+02 -5.890793e+02 -4.636439e+02 -1.042261e+02 -7.863576e+00 -1.677293e-02 0 0 0 0 0 0 0 0 
0 0 0 0 0 0 0 0 0 5.692849e+00 1.916007e+02 5.050657e+02 7.186298e+02 5.681104e+02 2.205982e+02 7.196810e+01 6.436373e-12 -7.196810e+01 -2.205982e+02 -5.681104e+02 -7.186298e+02 -5.050657e+02 -1.916007e+02 -5.692849e+00 0 0 0 0 0 0 0 0 
0 0 0 0 0 0 0 0 4.024514e-01 1.057875e+02 5.413163e+02 7.646816e+02 4.265744e+02 1.162141e+02 1.841022e+01 2.029016e-02 0 -2.029016e-02 -1.841022e+01 -1.162141e+02 -4.265744e+02 -7.646816e+02 -5.413163e+02 -1.057875e+02 -4.024514e-01 0 0 0 0 0 0 0 
0 0 0 0 0 0 0 0 2.149971e+01 3.973373e+02 8.139861e+02 5.432176e+02 1.069712e+02 1.902094e+00 0 0 0 0 0 -1.902094e+00 -1.069712e+02 -5.432176e+02 -8.139861e+02 -3.973373e+02 -2.149971e+01 0 0 0 0 0 0 0 
0 0 0 0 0 0 0 1.802948e-01 1.192121e+02 6.355890e+02 7.354824e+02 2.223892e+02 3.463996e+00 0 0 0 0 0 0 0 -3.463996e+00 -2.223892e+02 -7.354824e+02 -6.355890e+02 -1.192121e+02 -1.802948e-01 0 0 0 0 0 0 
0 0 0 0 0 0 0 3.642205e+00 3.351191e+02 7.766657e+02 4.866615e+02 4.147271e+01 0 0 0 0 0 0 0 0 0 -4.147271e+01 -4.866615e+02 -7.766657e+02 -3.351191e+02 -3.642205e+00 0 0 0 0 0 0 
0 0 0 0 0 0 0 2.367565e+01 4.915336e+02 7.779934e+02 3.129612e+02 2.825841e+00 0 0 0 0 0 0 0 0 0 -2.825841e+00 -3.129612e+02 -7.779934e+02 -4.915336e+02 -2.367565e+01 0 0 0 0 0 0 
0 0 0 0 0 0 0 6.527033e+01 5.689992e+02 6.785673e+02 1.748385e+02 0 0 0 0 0 0 0 0 0 0 0 -1.748385e+02 -6.785673e+02 -5.689992e+02 -6.527033e+01 0 0 0 0 0 0 
0 0 0 0 0 0 0 1.063805e+02 6.484031e+02 6.636261e+02 1.216035e+02 0 0 0 0 0 0 0 0 0 0 0 -1.216035e+02 -6.636261e+02 -6.484031e+02 -1.063805e+02 0 0 0 0 0 0 
0 0 0 0 0 0 0 1.226478e+02 6.678666e+02 6.494994e+02 1.042807e+02 0 0 0 0 0 0 0 0 0 0 0 -1.042807e+02 -6.494994e+02 -6.678666e+02 -1.226478e+02 0 0 0 0 0 0 
0 0 0 0 0 0 0 1.063805e+02 6.484031e+02 6.636261e+02 1.216035e+02 0 0 0 0 0 0 0 0 0 0 0 -1.216035e+02 -6.636261e+02 -6.484031e+02 -1.063805e+02 0 0 0 0 0 0 
0 0 0 0 0 0 0 6.527033e+01 5.689992e+02 6.785673e+02 1.748385e+02 0 0 0 0 0 0 0 0 0 0 0 -1.748385e+02 -6.785673e+02 -5.689992e+02 -6.527033e+01 0 0 0 0 0 0 
0 0 0 0 0 0 0 2.367565e+01 4.915336e+02 7.779934e+02 3.129612e+02 2.825841e+00 0 0 0 0 0 0 0 0 0 -2.825841e+00 -3.129612e+02 -7.779934e+02 -4.915336e+02 -2.367565e+01 0 0 0 0 0 0 
0 0 0 0 0 0 0 3.642205e+00 3.351191e+02 7.766657e+02 4.866615e+02 4.147271e+01 0 0 0 0 0 0 0 0 0 -4.147271e+01 -4.866615e+02 -7.766657e+02 -3.351191e+02 -3.642205e+00 0 0 0 0 0 0 
0 0 0 0 0 0 0 1.802948e-01 1.192121e+02 6.355890e+02 7.354824e+02 2.223892e+02 3.463996e+00 0 0 0 0 0 0 0 -3.463996e+00 -2.223892e+02 -7.354824e+02 -6.355890e+02 -1.192121e+02 -1.802948e-01 0 0 0 0 0 0 
0 0 0 0 0 0 0 0 2.149971e+01 3.973373e+02 8.139861e+02 5.432176e+02 1.069712e+02 1.902094e+00 0 0 0 0 0 -1.902094e+00 -1.069712e+02 -5.432176e+02 -8.139861e+02 -3.973373e+02 -2.149971e+01 0 0 0 0 0 0 0 
0 0 0 0 0 0 0 0 4.024514e-01 1.057875e+02 5.413163e+02 7.646816e+02 4.265744e+02 1.162141e+02 1.841022e+01 2.029016e-02 0 -2.029016e-02 -1.841022e+01 -1.162141e+02 -4.265744e+02 -7.646816e+02 -5.413163e+02 -1.057875e+02 -4.024514e-01 0 0 0 0 0 0 0 
0 0 0 0 0 0 0 0 0 5.692849e+00 1.916007e+02 5.050657e+02 7.186298e+02 5.681104e+02 2.205982e+02 7.196810e+01 9.015860e-12 -7.196810e+01 -2.205982e+02 -5.681104e+02 -7.186298e+02 -5.050657e+02 -1.916007e+02 -5.692849e+00 0 0 0 0 0 0 0 0 
0 0 0 0 0 0 0 0 0 1.677293e-02 7.863576e+00 1.042261e+02 4.636439e+02 5.890793e+02 3.708007e+02 2.199410e+02 3.099557e-11 -2.199410e+02 -3.708007e+02 -5.890793e+02 -4.636439e+02 -1.042261e+02 -7.863576e+00 -1.677293e-02 0 0 0 0 0 0 0 0 
0 0 0 0 0 0 0 0 0 0 0 4.366703e+00 6.808141e+01 1.361027e+02 1.744964e+02 1.576339e+02 2.286638e-11 -1.576339e+02 -1.744964e+02 -1.361027e+02 -6.808141e+01 -4.366703e+00 0 0 0 0 0 0 0 0 0 0 
0 0 0 0 0 0 0 0 0 0 0 0 0 8.218761e-01 5.883790e+00 9.640749e+00 8.774149e-13 -9.640749e+00 -5.883790e+00 -8.218761e-01 0 0 0 0 0 0 0 0 0 0 0 0 
0 0 0 0 0 0 0 0 0 0 0 0 0 0 0 0 0 0 0 0 0 0 0 0 0 0 0 0 0 0 0 0 
0 0 0 0 0 0 0 0 0 0 0 0 0 0 0 0 0 0 0 0 0 0 0 0 0 0 0 0 0 0 0 0 
0 0 0 0 0 0 0 0 0 0 0 0 0 0 0 0 0 0 0 0 0 0 0 0 0 0 0 0 0 0 0 0 
0 0 0 0 0 0 0 0 0 0 0 0 0 0 0 0 0 0 0 0 0 0 0 0 0 0 0 0 0 0 0 0 
