# vtk DataFile Version 2.0
Comment goes here
ASCII

DATASET STRUCTURED_POINTS
FIELD FieldData 1
TIME 1 1 double
0.14000000
DIMENSIONS    32   32   1

ORIGIN    0.000   0.000   0.000
SPACING   0.03125 0.03125   1.000

POINT_DATA   1024
SCALARS fX double
LOOKUP_TABLE default

0 0 0 0 0 0 0 0 0 0 0 0 0 0 0 0 0 0 0 0 0 0 0 0 0 0 0 0 0 0 0 0 
0 0 0 0 0 0 0 0 0 0 0 0 0 0 0 0 0 0 0 0 0 0 0 0 0 0 0 0 0 0 0 0 
0 0 0 0 0 0 0 0 0 0 0 0 0 0 0 0 0 0 0 0 0 0 0 0 0 0 0 0 0 0 0 0 
0 0 0 0 0 0 0 0 0 0 0 0 0 0 0 0 0 0 0 0 0 0 0 0 0 0 0 0 0 0 0 0 
0 0 0 0 0 0 0 0 0 0 0 0 0 1.700078e+00 7.663172e+00 9.505491e+00 2.223618e-13 -9.505491e+00 -7.663172e+00 -1.700078e+00 0 0 0 0 0 0 0 0 0 0 0 0 
0 0 0 0 0 0 0 0 0 0 6.682449e-03 7.372304e+00 8.283558e+01 2.252685e+02 2.875620e+02 1.786662e+02 8.550064e-12 -1.786662e+02 -2.875620e+02 -2.252685e+02 -8.283558e+01 -7.372304e+00 -6.682449e-03 0 0 0 0 0 0 0 0 0 
0 0 0 0 0 0 0 0 0 0 1.597706e+01 2.118350e+02 6.201932e+02 7.856442e+02 5.722412e+02 2.625917e+02 1.225264e-11 -2.625917e+02 -5.722412e+02 -7.856442e+02 -6.201932e+02 -2.118350e+02 -1.597706e+01 0 0 0 0 0 0 0 0 0 
0 0 0 0 0 0 0 0 0 7.337172e+00 1.926641e+02 6.900868e+02 9.827117e+02 7.050392e+02 3.064310e+02 9.364277e+01 3.924061e-12 -9.364277e+01 -3.064310e+02 -7.050392e+02 -9.827117e+02 -6.900868e+02 -1.926641e+02 -7.337172e+00 0 0 0 0 0 0 0 0 
0 0 0 0 0 0 0 0 8.102888e-01 5.802090e+01 4.301549e+02 7.850709e+02 5.441804e+02 1.459306e+02 1.408859e+01 2.117609e-01 0 -2.117609e-01 -1.408859e+01 -1.459306e+02 -5.441804e+02 -7.850709e+02 -4.301549e+02 -5.802090e+01 -8.102888e-01 0 0 0 0 0 0 0 
0 0 0 0 0 0 0 0 1.784753e+01 2.459333e+02 5.305263e+02 4.005545e+02 1.010811e+02 2.967184e+00 0 0 0 0 0 -2.967184e+00 -1.010811e+02 -4.005545e+02 -5.305263e+02 -2.459333e+02 -1.784753e+01 0 0 0 0 0 0 0 
0 0 0 0 0 0 0 0 1.128592e+02 5.370776e+02 5.624262e+02 1.404626e+02 2.254842e+00 0 0 0 0 0 0 0 -2.254842e+00 -1.404626e+02 -5.624262e+02 -5.370776e+02 -1.128592e+02 0 0 0 0 0 0 0 
0 0 0 0 0 0 0 5.695759e+00 3.306613e+02 7.930184e+02 5.112112e+02 4.315837e+01 0 0 0 0 0 0 0 0 0 -4.315837e+01 -5.112112e+02 -7.930184e+02 -3.306613e+02 -5.695759e+00 0 0 0 0 0 0 
0 0 0 0 0 0 0 4.085378e+01 5.951422e+02 9.034501e+02 3.530295e+02 3.867715e+00 0 0 0 0 0 0 0 0 0 -3.867715e+00 -3.530295e+02 -9.034501e+02 -5.951422e+02 -4.085378e+01 0 0 0 0 0 0 
0 0 0 0 0 0 0 9.115950e+01 6.949069e+02 7.924896e+02 1.888064e+02 6.420615e-02 0 0 0 0 0 0 0 0 0 -6.420615e-02 -1.888064e+02 -7.924896e+02 -6.949069e+02 -9.115950e+01 0 0 0 0 0 0 
0 0 0 0 0 0 0 1.396627e+02 6.733248e+02 6.258038e+02 9.214174e+01 0 0 0 0 0 0 0 0 0 0 0 -9.214174e+01 -6.258038e+02 -6.733248e+02 -1.396627e+02 0 0 0 0 0 0 
0 0 0 0 0 0 0 1.710333e+02 6.653968e+02 5.484761e+02 5.411256e+01 0 0 0 0 0 0 0 0 0 0 0 -5.411256e+01 -5.484761e+02 -6.653968e+02 -1.710333e+02 0 0 0 0 0 0 
0 0 0 0 0 0 0 1.747441e+02 6.533522e+02 5.258042e+02 4.719609e+01 0 0 0 0 0 0 0 0 0 0 0 -4.719609e+01 -5.258042e+02 -6.533522e+02 -1.747441e+02 0 0 0 0 0 0 
0 0 0 0 0 0 0 1.710333e+02 6.653968e+02 5.484761e+02 5.411256e+01 0 0 0 0 0 0 0 0 0 0 0 -5.411256e+01 -5.484761e+02 -6.653968e+02 -1.710333e+02 0 0 0 0 0 0 
0 0 0 0 0 0 0 1.396627e+02 6.733248e+02 6.258038e+02 9.214174e+01 0 0 0 0 0 0 0 0 0 0 0 -9.214174e+01 -6.258038e+02 -6.733248e+02 -1.396627e+02 0 0 0 0 0 0 
0 0 0 0 0 0 0 9.115950e+01 6.949069e+02 7.924896e+02 1.888064e+02 6.420615e-02 0 0 0 0 0 0 0 0 0 -6.420615e-02 -1.888064e+02 -7.924896e+02 -6.949069e+02 -9.115950e+01 0 0 0 0 0 0 
0 0 0 0 0 0 0 4.085378e+01 5.951422e+02 9.034501e+02 3.530295e+02 3.867715e+00 0 0 0 0 0 0 0 0 0 -3.867715e+00 -3.530295e+02 -9.034501e+02 -5.951422e+02 -4.085378e+01 0 0 0 0 0 0 
0 0 0 0 0 0 0 5.695759e+00 3.306613e+02 7.930184e+02 5.112112e+02 4.315837e+01 0 0 0 0 0 0 0 0 0 -4.315837e+01 -5.112112e+02 -7.930184e+02 -3.306613e+02 -5.695759e+00 0 0 0 0 0 0 
0 0 0 0 0 0 0 0 1.128592e+02 5.370776e+02 5.624262e+02 1.404626e+02 2.254842e+00 0 0 0 0 0 0 0 -2.254842e+00 -1.404626e+02 -5.624262e+02 -5.370776e+02 -1.128592e+02 0 0 0 0 0 0 0 
0 0 0 0 0 0 0 0 1.784753e+01 2.459333e+02 5.305263e+02 4.005545e+02 1.010811e+02 2.967184e+00 0 0 0 0 0 -2.967184e+00 -1.010811e+02 -4.005545e+02 -5.305263e+02 -2.459333e+02 -1.784753e+01 0 0 0 0 0 0 0 
0 0 0 0 0 0 0 0 8.102888e-01 5.802090e+01 4.301549e+02 7.850709e+02 5.441804e+02 1.459306e+02 1.408859e+01 2.117609e-01 0 -2.117609e-01 -1.408859e+01 -1.459306e+02 -5.441804e+02 -7.850709e+02 -4.301549e+02 -5.802090e+01 -8.102888e-01 0 0 0 0 0 0 0 
0 0 0 0 0 0 0 0 0 7.337172e+00 1.926641e+02 6.900868e+02 9.827117e+02 7.050392e+02 3.064310e+02 9.364277e+01 -1.127169e-11 -9.364277e+01 -3.064310e+02 -7.050392e+02 -9.827117e+02 -6.900868e+02 -1.926641e+02 -7.337172e+00 0 0 0 0 0 0 0 0 
0 0 0 0 0 0 0 0 0 0 1.597706e+01 2.118350e+02 6.201932e+02 7.856442e+02 5.722412e+02 2.625917e+02 -1.742786e-11 -2.625917e+02 -5.722412e+02 -7.856442e+02 -6.201932e+02 -2.118350e+02 -1.597706e+01 0 0 0 0 0 0 0 0 0 
0 0 0 0 0 0 0 0 0 0 6.682449e-03 7.372304e+00 8.283558e+01 2.252685e+02 2.875620e+02 1.786662e+02 -1.326685e-12 -1.786662e+02 -2.875620e+02 -2.252685e+02 -8.283558e+01 -7.372304e+00 -6.682449e-03 0 0 0 0 0 0 0 0 0 
0 0 0 0 0 0 0 0 0 0 0 0 0 1.700078e+00 7.663172e+00 9.505491e+00 4.819082e-12 -9.505491e+00 -7.663172e+00 -1.700078e+00 0 0 0 0 0 0 0 0 0 0 0 0 
0 0 0 0 0 0 0 0 0 0 0 0 0 0 0 0 0 0 0 0 0 0 0 0 0 0 0 0 0 0 0 0 
0 0 0 0 0 0 0 0 0 0 0 0 0 0 0 0 0 0 0 0 0 0 0 0 0 0 0 0 0 0 0 0 
0 0 0 0 0 0 0 0 0 0 0 0 0 0 0 0 0 0 0 0 0 0 0 0 0 0 0 0 0 0 0 0 
