# vtk DataFile Version 2.0
Comment goes here
ASCII

DATASET STRUCTURED_POINTS
FIELD FieldData 1
TIME 1 1 double
1.08000000
DIMENSIONS    32   32   1

ORIGIN    0.000   0.000   0.000
SPACING   0.03125 0.03125   1.000

POINT_DATA   1024
SCALARS fX double
LOOKUP_TABLE default

0 0 0 0 0 0 0 0 0 0 0 0 0 0 0 0 0 0 0 0 0 0 0 0 0 0 0 0 0 0 0 0 
0 0 0 0 0 0 0 0 0 0 0 0 0 0 0 0 0 0 0 0 0 0 0 0 0 0 0 0 0 0 0 0 
0 0 0 0 0 0 0 0 0 0 0 0 0 0 0 0 0 0 0 0 0 0 0 0 0 0 0 0 0 0 0 0 
0 0 0 0 0 0 0 0 0 0 0 0 0 0 0 0 0 0 0 0 0 0 0 0 0 0 0 0 0 0 0 0 
0 0 0 0 0 0 0 0 0 0 0 0 0 0 0 0 0 0 0 0 0 0 0 0 0 0 0 0 0 0 0 0 
0 0 0 0 0 0 0 0 0 0 0 0 0 0 0 0 0 0 0 0 0 0 0 0 0 0 0 0 0 0 0 0 
0 0 0 0 0 0 0 0 0 0 0 0 0 0 6.057647e-02 1.891164e-01 -7.740280e-13 -1.891164e-01 -6.057647e-02 0 0 0 0 0 0 0 0 0 0 0 0 0 
0 0 0 0 0 0 0 0 0 0 0 5.457008e-01 -9.574210e+00 4.082875e+01 8.669585e+01 5.250855e+01 -3.609529e-11 -5.250855e+01 -8.669585e+01 -4.082875e+01 9.574210e+00 -5.457008e-01 0 0 0 0 0 0 0 0 0 0 
0 0 0 0 0 0 0 0 0 0 1.866432e+00 6.327529e+01 2.254282e+02 3.136878e+02 2.720947e+02 1.509740e+02 -5.263970e-11 -1.509740e+02 -2.720947e+02 -3.136878e+02 -2.254282e+02 -6.327529e+01 -1.866432e+00 0 0 0 0 0 0 0 0 0 
0 0 0 0 0 0 0 0 0 3.705105e+00 1.118231e+02 3.445060e+02 5.806784e+02 4.602011e+02 2.100027e+02 1.059874e+02 -1.722285e-11 -1.059874e+02 -2.100027e+02 -4.602011e+02 -5.806784e+02 -3.445060e+02 -1.118231e+02 -3.705105e+00 0 0 0 0 0 0 0 0 
0 0 0 0 0 0 0 0 2.963125e-01 6.534384e+01 4.607061e+02 7.210546e+02 4.992680e+02 1.910629e+02 2.454324e+01 7.332745e+00 9.242907e-14 -7.332745e+00 -2.454324e+01 -1.910629e+02 -4.992680e+02 -7.210546e+02 -4.607061e+02 -6.534384e+01 -2.963125e-01 0 0 0 0 0 0 0 
0 0 0 0 0 0 0 0 5.933969e+00 2.575482e+02 7.304685e+02 6.439436e+02 1.688101e+02 3.720870e+00 0 0 0 0 0 -3.720870e+00 -1.688101e+02 -6.439436e+02 -7.304685e+02 -2.575482e+02 -5.933969e+00 0 0 0 0 0 0 0 
0 0 0 0 0 0 0 0 9.679845e+01 5.751057e+02 7.244445e+02 2.613554e+02 1.521806e+01 0 0 0 0 0 0 0 -1.521806e+01 -2.613554e+02 -7.244445e+02 -5.751057e+02 -9.679845e+01 0 0 0 0 0 0 0 
0 0 0 0 0 0 0 4.270000e-01 2.208846e+02 7.494989e+02 6.022428e+02 7.320140e+01 0 0 0 0 0 0 0 0 0 -7.320140e+01 -6.022428e+02 -7.494989e+02 -2.208846e+02 -4.270000e-01 0 0 0 0 0 0 
0 0 0 0 0 0 0 4.090411e+00 3.724514e+02 7.784115e+02 4.265712e+02 1.652066e+01 0 0 0 0 0 0 0 0 0 -1.652066e+01 -4.265712e+02 -7.784115e+02 -3.724514e+02 -4.090411e+00 0 0 0 0 0 0 
0 0 0 0 0 0 0 1.113391e+01 4.781635e+02 7.698797e+02 3.028594e+02 9.261118e-03 0 0 0 0 0 0 0 0 0 -9.261118e-03 -3.028594e+02 -7.698797e+02 -4.781635e+02 -1.113391e+01 0 0 0 0 0 0 
0 0 0 0 0 0 0 1.494101e+01 4.708716e+02 7.235417e+02 2.676111e+02 0 0 0 0 0 0 0 0 0 0 0 -2.676111e+02 -7.235417e+02 -4.708716e+02 -1.494101e+01 0 0 0 0 0 0 
0 0 0 0 0 0 0 1.113391e+01 4.781635e+02 7.698797e+02 3.028594e+02 9.261118e-03 0 0 0 0 0 0 0 0 0 -9.261118e-03 -3.028594e+02 -7.698797e+02 -4.781635e+02 -1.113391e+01 0 0 0 0 0 0 
0 0 0 0 0 0 0 4.090411e+00 3.724514e+02 7.784115e+02 4.265712e+02 1.652066e+01 0 0 0 0 0 0 0 0 0 -1.652066e+01 -4.265712e+02 -7.784115e+02 -3.724514e+02 -4.090411e+00 0 0 0 0 0 0 
0 0 0 0 0 0 0 4.270000e-01 2.208846e+02 7.494989e+02 6.022428e+02 7.320140e+01 0 0 0 0 0 0 0 0 0 -7.320140e+01 -6.022428e+02 -7.494989e+02 -2.208846e+02 -4.270000e-01 0 0 0 0 0 0 
0 0 0 0 0 0 0 0 9.679845e+01 5.751057e+02 7.244445e+02 2.613554e+02 1.521806e+01 0 0 0 0 0 0 0 -1.521806e+01 -2.613554e+02 -7.244445e+02 -5.751057e+02 -9.679845e+01 0 0 0 0 0 0 0 
0 0 0 0 0 0 0 0 5.933969e+00 2.575482e+02 7.304685e+02 6.439436e+02 1.688101e+02 3.720870e+00 0 0 0 0 0 -3.720870e+00 -1.688101e+02 -6.439436e+02 -7.304685e+02 -2.575482e+02 -5.933969e+00 0 0 0 0 0 0 0 
0 0 0 0 0 0 0 0 2.963125e-01 6.534384e+01 4.607061e+02 7.210546e+02 4.992680e+02 1.910629e+02 2.454324e+01 7.332745e+00 -6.097514e-13 -7.332745e+00 -2.454324e+01 -1.910629e+02 -4.992680e+02 -7.210546e+02 -4.607061e+02 -6.534384e+01 -2.963125e-01 0 0 0 0 0 0 0 
0 0 0 0 0 0 0 0 0 3.705105e+00 1.118231e+02 3.445060e+02 5.806784e+02 4.602011e+02 2.100027e+02 1.059874e+02 2.284495e-11 -1.059874e+02 -2.100027e+02 -4.602011e+02 -5.806784e+02 -3.445060e+02 -1.118231e+02 -3.705105e+00 0 0 0 0 0 0 0 0 
0 0 0 0 0 0 0 0 0 0 1.866432e+00 6.327529e+01 2.254282e+02 3.136878e+02 2.720947e+02 1.509740e+02 6.006507e-11 -1.509740e+02 -2.720947e+02 -3.136878e+02 -2.254282e+02 -6.327529e+01 -1.866432e+00 0 0 0 0 0 0 0 0 0 
0 0 0 0 0 0 0 0 0 0 0 5.457008e-01 -9.574210e+00 4.082875e+01 8.669585e+01 5.250855e+01 3.464614e-11 -5.250855e+01 -8.669585e+01 -4.082875e+01 9.574210e+00 -5.457008e-01 0 0 0 0 0 0 0 0 0 0 
0 0 0 0 0 0 0 0 0 0 0 0 0 0 6.057647e-02 1.891164e-01 -1.953657e-12 -1.891164e-01 -6.057647e-02 0 0 0 0 0 0 0 0 0 0 0 0 0 
0 0 0 0 0 0 0 0 0 0 0 0 0 0 0 0 0 0 0 0 0 0 0 0 0 0 0 0 0 0 0 0 
0 0 0 0 0 0 0 0 0 0 0 0 0 0 0 0 0 0 0 0 0 0 0 0 0 0 0 0 0 0 0 0 
0 0 0 0 0 0 0 0 0 0 0 0 0 0 0 0 0 0 0 0 0 0 0 0 0 0 0 0 0 0 0 0 
0 0 0 0 0 0 0 0 0 0 0 0 0 0 0 0 0 0 0 0 0 0 0 0 0 0 0 0 0 0 0 0 
0 0 0 0 0 0 0 0 0 0 0 0 0 0 0 0 0 0 0 0 0 0 0 0 0 0 0 0 0 0 0 0 
