# vtk DataFile Version 2.0
Comment goes here
ASCII

DATASET STRUCTURED_POINTS
FIELD FieldData 1
TIME 1 1 double
0.10000000
DIMENSIONS    32   32   1

ORIGIN    0.000   0.000   0.000
SPACING   0.03125 0.03125   1.000

POINT_DATA   1024
SCALARS fX double
LOOKUP_TABLE default

0 0 0 0 0 0 0 0 0 0 0 0 0 0 0 0 0 0 0 0 0 0 0 0 0 0 0 0 0 0 0 0 
0 0 0 0 0 0 0 0 0 0 0 0 0 0 0 0 0 0 0 0 0 0 0 0 0 0 0 0 0 0 0 0 
0 0 0 0 0 0 0 0 0 0 0 0 0 0 0 0 0 0 0 0 0 0 0 0 0 0 0 0 0 0 0 0 
0 0 0 0 0 0 0 0 0 0 0 0 0 0 0 0 0 0 0 0 0 0 0 0 0 0 0 0 0 0 0 0 
0 0 0 0 0 0 0 0 0 0 0 0 0 0 0 0 0 0 0 0 0 0 0 0 0 0 0 0 0 0 0 0 
0 0 0 0 0 0 0 0 0 0 0 0 0 0 0 0 0 0 0 0 0 0 0 0 0 0 0 0 0 0 0 0 
0 0 0 0 0 0 0 0 0 0 0 0 0 0 0 0 0 0 0 0 0 0 0 0 0 0 0 0 0 0 0 0 
0 0 0 0 0 0 0 0 0 0 0 0 0 7.820566e-05 3.146361e-03 4.967893e-03 1.186514e-13 -4.967893e-03 -3.146361e-03 -7.820566e-05 0 0 0 0 0 0 0 0 0 0 0 0 
0 0 0 0 0 0 0 0 0 2.059330e+00 2.336123e+01 8.839780e+01 1.713272e+02 1.783984e+02 9.469021e+01 2.087723e+01 1.367885e-12 -2.087723e+01 -9.469021e+01 -1.783984e+02 -1.713272e+02 -8.839780e+01 -2.336123e+01 -2.059330e+00 0 0 0 0 0 0 0 0 
0 0 0 0 0 0 1.225619e-02 4.320633e+00 5.521618e+01 1.708524e+02 3.898286e+02 6.358721e+02 7.145532e+02 5.339451e+02 2.299254e+02 4.518201e+01 8.921828e-13 -4.518201e+01 -2.299254e+02 -5.339451e+02 -7.145532e+02 -6.358721e+02 -3.898286e+02 -1.708524e+02 -5.521618e+01 -4.320633e+00 -1.225619e-02 0 0 0 0 0 
0 0 0 0 0 4.904724e-01 3.988007e+01 2.438509e+02 5.512373e+02 6.550114e+02 6.780193e+02 7.334749e+02 6.289098e+02 3.797183e+02 1.386032e+02 2.438808e+01 -3.571794e-13 -2.438808e+01 -1.386032e+02 -3.797183e+02 -6.289098e+02 -7.334749e+02 -6.780193e+02 -6.550114e+02 -5.512373e+02 -2.438509e+02 -3.988007e+01 -4.904724e-01 0 0 0 0 
0 0 0 0 1.465991e-01 8.276919e+01 4.879082e+02 9.594611e+02 9.627522e+02 6.161617e+02 3.291227e+02 1.863366e+02 8.568387e+01 2.417154e+01 3.364909e+00 7.833884e-02 0 -7.833884e-02 -3.364909e+00 -2.417154e+01 -8.568387e+01 -1.863366e+02 -3.291227e+02 -6.161617e+02 -9.627522e+02 -9.594611e+02 -4.879082e+02 -8.276919e+01 -1.465991e-01 0 0 0 
0 0 0 0 3.950554e+01 4.593774e+02 1.119821e+03 1.116566e+03 5.304235e+02 1.310415e+02 1.757082e+01 3.360109e-01 0 0 0 0 0 0 0 0 0 -3.360109e-01 -1.757082e+01 -1.310415e+02 -5.304235e+02 -1.116566e+03 -1.119821e+03 -4.593774e+02 -3.950554e+01 0 0 0 
0 0 0 2.106596e+00 2.862087e+02 1.055681e+03 1.163676e+03 4.546913e+02 6.369246e+01 1.098179e+00 0 0 0 0 0 0 0 0 0 0 0 0 0 -1.098179e+00 -6.369246e+01 -4.546913e+02 -1.163676e+03 -1.055681e+03 -2.862087e+02 -2.106596e+00 0 0 
0 0 0 2.457108e+01 7.002587e+02 1.378867e+03 7.626919e+02 5.951272e+01 0 0 0 0 0 0 0 0 0 0 0 0 0 0 0 0 0 -5.951272e+01 -7.626919e+02 -1.378867e+03 -7.002587e+02 -2.457108e+01 0 0 
0 0 0 7.069993e+01 9.544111e+02 1.314261e+03 4.320066e+02 1.456283e+00 0 0 0 0 0 0 0 0 0 0 0 0 0 0 0 0 0 -1.456283e+00 -4.320066e+02 -1.314261e+03 -9.544111e+02 -7.069993e+01 0 0 
0 0 0 9.647090e+01 1.002004e+03 1.227953e+03 3.224196e+02 0 0 0 0 0 0 0 0 0 0 0 0 0 0 0 0 0 0 0 -3.224196e+02 -1.227953e+03 -1.002004e+03 -9.647090e+01 0 0 
0 0 0 7.069993e+01 9.544111e+02 1.314261e+03 4.320066e+02 1.456283e+00 0 0 0 0 0 0 0 0 0 0 0 0 0 0 0 0 0 -1.456283e+00 -4.320066e+02 -1.314261e+03 -9.544111e+02 -7.069993e+01 0 0 
0 0 0 2.457108e+01 7.002587e+02 1.378867e+03 7.626919e+02 5.951272e+01 0 0 0 0 0 0 0 0 0 0 0 0 0 0 0 0 0 -5.951272e+01 -7.626919e+02 -1.378867e+03 -7.002587e+02 -2.457108e+01 0 0 
0 0 0 2.106596e+00 2.862087e+02 1.055681e+03 1.163676e+03 4.546913e+02 6.369246e+01 1.098179e+00 0 0 0 0 0 0 0 0 0 0 0 0 0 -1.098179e+00 -6.369246e+01 -4.546913e+02 -1.163676e+03 -1.055681e+03 -2.862087e+02 -2.106596e+00 0 0 
0 0 0 0 3.950554e+01 4.593774e+02 1.119821e+03 1.116566e+03 5.304235e+02 1.310415e+02 1.757082e+01 3.360109e-01 0 0 0 0 0 0 0 0 0 -3.360109e-01 -1.757082e+01 -1.310415e+02 -5.304235e+02 -1.116566e+03 -1.119821e+03 -4.593774e+02 -3.950554e+01 0 0 0 
0 0 0 0 1.465991e-01 8.276919e+01 4.879082e+02 9.594611e+02 9.627522e+02 6.161617e+02 3.291227e+02 1.863366e+02 8.568387e+01 2.417154e+01 3.364909e+00 7.833884e-02 0 -7.833884e-02 -3.364909e+00 -2.417154e+01 -8.568387e+01 -1.863366e+02 -3.291227e+02 -6.161617e+02 -9.627522e+02 -9.594611e+02 -4.879082e+02 -8.276919e+01 -1.465991e-01 0 0 0 
0 0 0 0 0 4.904724e-01 3.988007e+01 2.438509e+02 5.512373e+02 6.550114e+02 6.780193e+02 7.334749e+02 6.289098e+02 3.797183e+02 1.386032e+02 2.438808e+01 5.151751e-13 -2.438808e+01 -1.386032e+02 -3.797183e+02 -6.289098e+02 -7.334749e+02 -6.780193e+02 -6.550114e+02 -5.512373e+02 -2.438509e+02 -3.988007e+01 -4.904724e-01 0 0 0 0 
0 0 0 0 0 0 1.225619e-02 4.320633e+00 5.521618e+01 1.708524e+02 3.898286e+02 6.358721e+02 7.145532e+02 5.339451e+02 2.299254e+02 4.518201e+01 5.472806e-12 -4.518201e+01 -2.299254e+02 -5.339451e+02 -7.145532e+02 -6.358721e+02 -3.898286e+02 -1.708524e+02 -5.521618e+01 -4.320633e+00 -1.225619e-02 0 0 0 0 0 
0 0 0 0 0 0 0 0 0 2.059330e+00 2.336123e+01 8.839780e+01 1.713272e+02 1.783984e+02 9.469021e+01 2.087723e+01 5.269661e-12 -2.087723e+01 -9.469021e+01 -1.783984e+02 -1.713272e+02 -8.839780e+01 -2.336123e+01 -2.059330e+00 0 0 0 0 0 0 0 0 
0 0 0 0 0 0 0 0 0 0 0 0 0 7.820566e-05 3.146361e-03 4.967893e-03 3.120724e-13 -4.967893e-03 -3.146361e-03 -7.820566e-05 0 0 0 0 0 0 0 0 0 0 0 0 
0 0 0 0 0 0 0 0 0 0 0 0 0 0 0 0 0 0 0 0 0 0 0 0 0 0 0 0 0 0 0 0 
0 0 0 0 0 0 0 0 0 0 0 0 0 0 0 0 0 0 0 0 0 0 0 0 0 0 0 0 0 0 0 0 
0 0 0 0 0 0 0 0 0 0 0 0 0 0 0 0 0 0 0 0 0 0 0 0 0 0 0 0 0 0 0 0 
0 0 0 0 0 0 0 0 0 0 0 0 0 0 0 0 0 0 0 0 0 0 0 0 0 0 0 0 0 0 0 0 
0 0 0 0 0 0 0 0 0 0 0 0 0 0 0 0 0 0 0 0 0 0 0 0 0 0 0 0 0 0 0 0 
0 0 0 0 0 0 0 0 0 0 0 0 0 0 0 0 0 0 0 0 0 0 0 0 0 0 0 0 0 0 0 0 
