# vtk DataFile Version 2.0
Comment goes here
ASCII

DATASET STRUCTURED_POINTS
FIELD FieldData 1
TIME 1 1 double
0.80000000
DIMENSIONS    32   32   1

ORIGIN    0.000   0.000   0.000
SPACING   0.03125 0.03125   1.000

POINT_DATA   1024
SCALARS fX double
LOOKUP_TABLE default

0 0 0 0 0 0 0 0 0 0 0 0 0 0 0 0 0 0 0 0 0 0 0 0 0 0 0 0 0 0 0 0 
0 0 0 0 0 0 0 0 0 0 0 0 0 0 0 0 0 0 0 0 0 0 0 0 0 0 0 0 0 0 0 0 
0 0 0 0 0 0 0 0 0 0 0 0 0 0 0 0 0 0 0 0 0 0 0 0 0 0 0 0 0 0 0 0 
0 0 0 0 0 0 0 0 0 0 0 0 0 0 0 0 0 0 0 0 0 0 0 0 0 0 0 0 0 0 0 0 
0 0 0 0 0 0 0 0 0 0 0 0 0 0 0 0 0 0 0 0 0 0 0 0 0 0 0 0 0 0 0 0 
0 0 0 0 0 0 0 0 0 0 0 0 0 1.205090e-04 1.872430e-01 5.442896e-01 3.837682e-12 -5.442896e-01 -1.872430e-01 -1.205090e-04 0 0 0 0 0 0 0 0 0 0 0 0 
0 0 0 0 0 0 0 0 0 0 0 3.634553e-02 1.589030e+01 7.999545e+01 1.201190e+02 7.457606e+01 4.313200e-11 -7.457606e+01 -1.201190e+02 -7.999545e+01 -1.589030e+01 -3.634553e-02 0 0 0 0 0 0 0 0 0 0 
0 0 0 0 0 0 0 0 0 0 3.646692e+00 7.310390e+01 2.696848e+02 4.458546e+02 3.745564e+02 1.602651e+02 4.964399e-11 -1.602651e+02 -3.745564e+02 -4.458546e+02 -2.696848e+02 -7.310390e+01 -3.646692e+00 0 0 0 0 0 0 0 0 0 
0 0 0 0 0 0 0 0 0 1.376103e+00 7.381393e+01 4.099957e+02 6.942099e+02 5.695692e+02 2.885000e+02 8.867706e+01 1.035151e-11 -8.867706e+01 -2.885000e+02 -5.695692e+02 -6.942099e+02 -4.099957e+02 -7.381393e+01 -1.376103e+00 0 0 0 0 0 0 0 0 
0 0 0 0 0 0 0 0 0 5.190868e+01 3.614572e+02 7.328985e+02 6.095153e+02 2.175987e+02 3.387722e+01 2.443705e+00 0 -2.443705e+00 -3.387722e+01 -2.175987e+02 -6.095153e+02 -7.328985e+02 -3.614572e+02 -5.190868e+01 0 0 0 0 0 0 0 0 
0 0 0 0 0 0 0 0 2.236711e+00 2.151927e+02 7.226697e+02 6.867569e+02 1.909442e+02 1.390291e+01 1.905117e-03 0 0 0 -1.905117e-03 -1.390291e+01 -1.909442e+02 -6.867569e+02 -7.226697e+02 -2.151927e+02 -2.236711e+00 0 0 0 0 0 0 0 
0 0 0 0 0 0 0 0 5.079673e+01 4.579996e+02 7.614879e+02 3.769652e+02 2.269427e+01 1.412683e-02 0 0 0 0 0 -1.412683e-02 -2.269427e+01 -3.769652e+02 -7.614879e+02 -4.579996e+02 -5.079673e+01 0 0 0 0 0 0 0 
0 0 0 0 0 0 0 7.924923e-03 1.673238e+02 6.776746e+02 6.217036e+02 1.121949e+02 8.499679e-01 0 0 0 0 0 0 0 -8.499679e-01 -1.121949e+02 -6.217036e+02 -6.776746e+02 -1.673238e+02 -7.924923e-03 0 0 0 0 0 0 
0 0 0 0 0 0 0 1.785792e+00 3.085231e+02 7.541462e+02 4.754434e+02 2.803449e+01 0 0 0 0 0 0 0 0 0 -2.803449e+01 -4.754434e+02 -7.541462e+02 -3.085231e+02 -1.785792e+00 0 0 0 0 0 0 
0 0 0 0 0 0 0 1.026795e+01 4.312653e+02 7.395285e+02 3.205494e+02 2.018255e+00 0 0 0 0 0 0 0 0 0 -2.018255e+00 -3.205494e+02 -7.395285e+02 -4.312653e+02 -1.026795e+01 0 0 0 0 0 0 
0 0 0 0 0 0 0 2.319583e+01 4.813910e+02 6.968444e+02 2.386492e+02 0 0 0 0 0 0 0 0 0 0 0 -2.386492e+02 -6.968444e+02 -4.813910e+02 -2.319583e+01 0 0 0 0 0 0 
0 0 0 0 0 0 0 2.941149e+01 4.797701e+02 6.542541e+02 2.038955e+02 0 0 0 0 0 0 0 0 0 0 0 -2.038955e+02 -6.542541e+02 -4.797701e+02 -2.941149e+01 0 0 0 0 0 0 
0 0 0 0 0 0 0 2.319583e+01 4.813910e+02 6.968444e+02 2.386492e+02 0 0 0 0 0 0 0 0 0 0 0 -2.386492e+02 -6.968444e+02 -4.813910e+02 -2.319583e+01 0 0 0 0 0 0 
0 0 0 0 0 0 0 1.026795e+01 4.312653e+02 7.395285e+02 3.205494e+02 2.018255e+00 0 0 0 0 0 0 0 0 0 -2.018255e+00 -3.205494e+02 -7.395285e+02 -4.312653e+02 -1.026795e+01 0 0 0 0 0 0 
0 0 0 0 0 0 0 1.785792e+00 3.085231e+02 7.541462e+02 4.754434e+02 2.803449e+01 0 0 0 0 0 0 0 0 0 -2.803449e+01 -4.754434e+02 -7.541462e+02 -3.085231e+02 -1.785792e+00 0 0 0 0 0 0 
0 0 0 0 0 0 0 7.924923e-03 1.673238e+02 6.776746e+02 6.217036e+02 1.121949e+02 8.499679e-01 0 0 0 0 0 0 0 -8.499679e-01 -1.121949e+02 -6.217036e+02 -6.776746e+02 -1.673238e+02 -7.924923e-03 0 0 0 0 0 0 
0 0 0 0 0 0 0 0 5.079673e+01 4.579996e+02 7.614879e+02 3.769652e+02 2.269427e+01 1.412683e-02 0 0 0 0 0 -1.412683e-02 -2.269427e+01 -3.769652e+02 -7.614879e+02 -4.579996e+02 -5.079673e+01 0 0 0 0 0 0 0 
0 0 0 0 0 0 0 0 2.236711e+00 2.151927e+02 7.226697e+02 6.867569e+02 1.909442e+02 1.390291e+01 1.905117e-03 0 0 0 -1.905117e-03 -1.390291e+01 -1.909442e+02 -6.867569e+02 -7.226697e+02 -2.151927e+02 -2.236711e+00 0 0 0 0 0 0 0 
0 0 0 0 0 0 0 0 0 5.190868e+01 3.614572e+02 7.328985e+02 6.095153e+02 2.175987e+02 3.387722e+01 2.443705e+00 0 -2.443705e+00 -3.387722e+01 -2.175987e+02 -6.095153e+02 -7.328985e+02 -3.614572e+02 -5.190868e+01 0 0 0 0 0 0 0 0 
0 0 0 0 0 0 0 0 0 1.376103e+00 7.381393e+01 4.099957e+02 6.942099e+02 5.695692e+02 2.885000e+02 8.867706e+01 -4.330223e-12 -8.867706e+01 -2.885000e+02 -5.695692e+02 -6.942099e+02 -4.099957e+02 -7.381393e+01 -1.376103e+00 0 0 0 0 0 0 0 0 
0 0 0 0 0 0 0 0 0 0 3.646692e+00 7.310390e+01 2.696848e+02 4.458546e+02 3.745564e+02 1.602651e+02 -2.583689e-11 -1.602651e+02 -3.745564e+02 -4.458546e+02 -2.696848e+02 -7.310390e+01 -3.646692e+00 0 0 0 0 0 0 0 0 0 
0 0 0 0 0 0 0 0 0 0 0 3.634553e-02 1.589030e+01 7.999545e+01 1.201190e+02 7.457606e+01 -2.463228e-11 -7.457606e+01 -1.201190e+02 -7.999545e+01 -1.589030e+01 -3.634553e-02 0 0 0 0 0 0 0 0 0 0 
0 0 0 0 0 0 0 0 0 0 0 0 0 1.205090e-04 1.872430e-01 5.442896e-01 -3.127035e-12 -5.442896e-01 -1.872430e-01 -1.205090e-04 0 0 0 0 0 0 0 0 0 0 0 0 
0 0 0 0 0 0 0 0 0 0 0 0 0 0 0 0 0 0 0 0 0 0 0 0 0 0 0 0 0 0 0 0 
0 0 0 0 0 0 0 0 0 0 0 0 0 0 0 0 0 0 0 0 0 0 0 0 0 0 0 0 0 0 0 0 
0 0 0 0 0 0 0 0 0 0 0 0 0 0 0 0 0 0 0 0 0 0 0 0 0 0 0 0 0 0 0 0 
0 0 0 0 0 0 0 0 0 0 0 0 0 0 0 0 0 0 0 0 0 0 0 0 0 0 0 0 0 0 0 0 
