# vtk DataFile Version 2.0
Comment goes here
ASCII

DATASET STRUCTURED_POINTS
FIELD FieldData 1
TIME 1 1 double
1.16000000
DIMENSIONS    32   32   1

ORIGIN    0.000   0.000   0.000
SPACING   0.03125 0.03125   1.000

POINT_DATA   1024
SCALARS fX double
LOOKUP_TABLE default

0 0 0 0 0 0 0 0 0 0 0 0 0 0 0 0 0 0 0 0 0 0 0 0 0 0 0 0 0 0 0 0 
0 0 0 0 0 0 0 0 0 0 0 0 0 0 0 0 0 0 0 0 0 0 0 0 0 0 0 0 0 0 0 0 
0 0 0 0 0 0 0 0 0 0 0 0 0 0 0 0 0 0 0 0 0 0 0 0 0 0 0 0 0 0 0 0 
0 0 0 0 0 0 0 0 0 0 0 0 0 0 0 0 0 0 0 0 0 0 0 0 0 0 0 0 0 0 0 0 
0 0 0 0 0 0 0 0 0 0 0 0 0 0 0 0 0 0 0 0 0 0 0 0 0 0 0 0 0 0 0 0 
0 0 0 0 0 0 0 0 0 0 0 0 0 0 0 0 0 0 0 0 0 0 0 0 0 0 0 0 0 0 0 0 
0 0 0 0 0 0 0 0 0 0 0 0 0 0 0 0 0 0 0 0 0 0 0 0 0 0 0 0 0 0 0 0 
0 0 0 0 0 0 0 0 0 0 0 0 0 0 0 -1.688425e-14 -3.376851e-14 -1.688425e-14 0 0 0 0 0 0 0 0 0 0 0 0 0 0 
0 0 0 0 0 0 0 0 0 0 0 7.257365e+00 -1.279599e+01 4.985528e+01 7.096968e+01 4.058787e+01 9.683821e-12 -4.058787e+01 -7.096968e+01 -4.985528e+01 1.279599e+01 -7.257365e+00 0 0 0 0 0 0 0 0 0 0 
0 0 0 0 0 0 0 0 0 2.511389e-01 3.157371e+01 1.306361e+02 1.648988e+02 2.445686e+02 2.357581e+02 1.290466e+02 4.555219e-11 -1.290466e+02 -2.357581e+02 -2.445686e+02 -1.648988e+02 -1.306361e+02 -3.157371e+01 -2.511389e-01 0 0 0 0 0 0 0 0 
0 0 0 0 0 0 0 0 3.402407e-01 3.039142e+01 2.671594e+02 4.933109e+02 4.078841e+02 2.583315e+02 1.724920e+02 9.829365e+01 3.539707e-11 -9.829365e+01 -1.724920e+02 -2.583315e+02 -4.078841e+02 -4.933109e+02 -2.671594e+02 -3.039142e+01 -3.402407e-01 0 0 0 0 0 0 0 
0 0 0 0 0 0 0 0 5.849821e+01 3.742551e+02 6.595216e+02 5.435067e+02 2.658103e+02 6.364373e+01 7.703565e+00 9.834939e+00 -4.636196e-13 -9.834939e+00 -7.703565e+00 -6.364373e+01 -2.658103e+02 -5.435067e+02 -6.595216e+02 -3.742551e+02 -5.849821e+01 0 0 0 0 0 0 0 
0 0 0 0 0 0 0 2.047824e+01 2.708351e+02 7.598031e+02 6.822395e+02 2.083887e+02 3.562092e+01 2.554992e-02 0 0 0 0 0 -2.554992e-02 -3.562092e+01 -2.083887e+02 -6.822395e+02 -7.598031e+02 -2.708351e+02 -2.047824e+01 0 0 0 0 0 0 
0 0 0 0 0 0 0 8.817475e+01 6.588760e+02 8.948065e+02 3.589034e+02 3.479810e+01 0 0 0 0 0 0 0 0 0 -3.479810e+01 -3.589034e+02 -8.948065e+02 -6.588760e+02 -8.817475e+01 0 0 0 0 0 0 
0 0 0 0 0 0 0 2.423004e+02 9.274720e+02 8.010652e+02 1.158776e+02 -1.607858e-02 0 0 0 0 0 0 0 0 0 1.607858e-02 -1.158776e+02 -8.010652e+02 -9.274720e+02 -2.423004e+02 0 0 0 0 0 0 
0 0 0 0 0 0 0 4.070608e+02 1.003214e+03 6.142471e+02 1.809442e+01 0 0 0 0 0 0 0 0 0 0 0 -1.809442e+01 -6.142471e+02 -1.003214e+03 -4.070608e+02 0 0 0 0 0 0 
0 0 0 0 0 0 0 4.649139e+02 1.043881e+03 5.846003e+02 5.633440e+00 0 0 0 0 0 0 0 0 0 0 0 -5.633440e+00 -5.846003e+02 -1.043881e+03 -4.649139e+02 0 0 0 0 0 0 
0 0 0 0 0 0 0 4.070608e+02 1.003214e+03 6.142471e+02 1.809442e+01 0 0 0 0 0 0 0 0 0 0 0 -1.809442e+01 -6.142471e+02 -1.003214e+03 -4.070608e+02 0 0 0 0 0 0 
0 0 0 0 0 0 0 2.423004e+02 9.274720e+02 8.010652e+02 1.158776e+02 -1.607858e-02 0 0 0 0 0 0 0 0 0 1.607858e-02 -1.158776e+02 -8.010652e+02 -9.274720e+02 -2.423004e+02 0 0 0 0 0 0 
0 0 0 0 0 0 0 8.817475e+01 6.588760e+02 8.948065e+02 3.589034e+02 3.479810e+01 0 0 0 0 0 0 0 0 0 -3.479810e+01 -3.589034e+02 -8.948065e+02 -6.588760e+02 -8.817475e+01 0 0 0 0 0 0 
0 0 0 0 0 0 0 2.047824e+01 2.708351e+02 7.598031e+02 6.822395e+02 2.083887e+02 3.562092e+01 2.554992e-02 0 0 0 0 0 -2.554992e-02 -3.562092e+01 -2.083887e+02 -6.822395e+02 -7.598031e+02 -2.708351e+02 -2.047824e+01 0 0 0 0 0 0 
0 0 0 0 0 0 0 0 5.849821e+01 3.742551e+02 6.595216e+02 5.435067e+02 2.658103e+02 6.364373e+01 7.703565e+00 9.834939e+00 -2.179932e-12 -9.834939e+00 -7.703565e+00 -6.364373e+01 -2.658103e+02 -5.435067e+02 -6.595216e+02 -3.742551e+02 -5.849821e+01 0 0 0 0 0 0 0 
0 0 0 0 0 0 0 0 3.402407e-01 3.039142e+01 2.671594e+02 4.933109e+02 4.078841e+02 2.583315e+02 1.724920e+02 9.829365e+01 -1.488400e-10 -9.829365e+01 -1.724920e+02 -2.583315e+02 -4.078841e+02 -4.933109e+02 -2.671594e+02 -3.039142e+01 -3.402407e-01 0 0 0 0 0 0 0 
0 0 0 0 0 0 0 0 0 2.511389e-01 3.157371e+01 1.306361e+02 1.648988e+02 2.445686e+02 2.357581e+02 1.290466e+02 -2.527658e-10 -1.290466e+02 -2.357581e+02 -2.445686e+02 -1.648988e+02 -1.306361e+02 -3.157371e+01 -2.511389e-01 0 0 0 0 0 0 0 0 
0 0 0 0 0 0 0 0 0 0 0 7.257365e+00 -1.279599e+01 4.985528e+01 7.096968e+01 4.058787e+01 -1.063205e-10 -4.058787e+01 -7.096968e+01 -4.985528e+01 1.279599e+01 -7.257365e+00 0 0 0 0 0 0 0 0 0 0 
0 0 0 0 0 0 0 0 0 0 0 0 0 0 0 -1.153451e-13 -2.306903e-13 -1.153451e-13 0 0 0 0 0 0 0 0 0 0 0 0 0 0 
0 0 0 0 0 0 0 0 0 0 0 0 0 0 0 0 0 0 0 0 0 0 0 0 0 0 0 0 0 0 0 0 
0 0 0 0 0 0 0 0 0 0 0 0 0 0 0 0 0 0 0 0 0 0 0 0 0 0 0 0 0 0 0 0 
0 0 0 0 0 0 0 0 0 0 0 0 0 0 0 0 0 0 0 0 0 0 0 0 0 0 0 0 0 0 0 0 
0 0 0 0 0 0 0 0 0 0 0 0 0 0 0 0 0 0 0 0 0 0 0 0 0 0 0 0 0 0 0 0 
0 0 0 0 0 0 0 0 0 0 0 0 0 0 0 0 0 0 0 0 0 0 0 0 0 0 0 0 0 0 0 0 
0 0 0 0 0 0 0 0 0 0 0 0 0 0 0 0 0 0 0 0 0 0 0 0 0 0 0 0 0 0 0 0 
