# vtk DataFile Version 2.0
Comment goes here
ASCII

DATASET STRUCTURED_POINTS
FIELD FieldData 1
TIME 1 1 double
0.78000000
DIMENSIONS    32   32   1

ORIGIN    0.000   0.000   0.000
SPACING   0.03125 0.03125   1.000

POINT_DATA   1024
SCALARS fX double
LOOKUP_TABLE default

0 0 0 0 0 0 0 0 0 0 0 0 0 0 0 0 0 0 0 0 0 0 0 0 0 0 0 0 0 0 0 0 
0 0 0 0 0 0 0 0 0 0 0 0 0 0 0 0 0 0 0 0 0 0 0 0 0 0 0 0 0 0 0 0 
0 0 0 0 0 0 0 0 0 0 0 0 0 0 0 0 0 0 0 0 0 0 0 0 0 0 0 0 0 0 0 0 
0 0 0 0 0 0 0 0 0 0 0 0 0 0 0 0 0 0 0 0 0 0 0 0 0 0 0 0 0 0 0 0 
0 0 0 0 0 0 0 0 0 0 0 0 0 0 0 0 0 0 0 0 0 0 0 0 0 0 0 0 0 0 0 0 
0 0 0 0 0 0 0 0 0 0 0 0 0 0 0 0 0 0 0 0 0 0 0 0 0 0 0 0 0 0 0 0 
0 0 0 0 0 0 0 0 0 0 0 5.246107e-02 7.221877e+00 3.087202e+01 5.753138e+01 5.310980e+01 5.575896e-12 -5.310980e+01 -5.753138e+01 -3.087202e+01 -7.221877e+00 -5.246107e-02 0 0 0 0 0 0 0 0 0 0 
0 0 0 0 0 0 0 0 0 0 3.001691e+00 3.918783e+01 1.912597e+02 3.275171e+02 2.807002e+02 1.559732e+02 1.125002e-12 -1.559732e+02 -2.807002e+02 -3.275171e+02 -1.912597e+02 -3.918783e+01 -3.001691e+00 0 0 0 0 0 0 0 0 0 
0 0 0 0 0 0 0 0 0 1.087806e+00 7.709162e+01 3.711142e+02 6.059201e+02 5.115533e+02 2.812351e+02 1.095403e+02 -5.061303e-12 -1.095403e+02 -2.812351e+02 -5.115533e+02 -6.059201e+02 -3.711142e+02 -7.709162e+01 -1.087806e+00 0 0 0 0 0 0 0 0 
0 0 0 0 0 0 0 0 0 5.782874e+01 3.707614e+02 7.436224e+02 6.140448e+02 2.355003e+02 5.820863e+01 6.676855e+00 -6.033000e-13 -6.676855e+00 -5.820863e+01 -2.355003e+02 -6.140448e+02 -7.436224e+02 -3.707614e+02 -5.782874e+01 0 0 0 0 0 0 0 0 
0 0 0 0 0 0 0 0 5.629791e+00 2.466935e+02 6.978125e+02 6.450911e+02 2.087927e+02 2.059262e+01 1.423377e-01 0 0 0 -1.423377e-01 -2.059262e+01 -2.087927e+02 -6.450911e+02 -6.978125e+02 -2.466935e+02 -5.629791e+00 0 0 0 0 0 0 0 
0 0 0 0 0 0 0 2.591417e-02 9.946437e+01 5.478663e+02 7.207929e+02 2.889989e+02 1.663442e+01 6.020679e-04 0 0 0 0 0 -6.020679e-04 -1.663442e+01 -2.889989e+02 -7.207929e+02 -5.478663e+02 -9.946437e+01 -2.591417e-02 0 0 0 0 0 0 
0 0 0 0 0 0 0 3.156406e+00 2.978030e+02 7.935309e+02 5.631841e+02 6.430410e+01 4.348474e-03 0 0 0 0 0 0 0 -4.348474e-03 -6.430410e+01 -5.631841e+02 -7.935309e+02 -2.978030e+02 -3.156406e+00 0 0 0 0 0 0 
0 0 0 0 0 0 0 2.617977e+01 5.124974e+02 8.504824e+02 3.729176e+02 8.752862e+00 0 0 0 0 0 0 0 0 0 -8.752862e+00 -3.729176e+02 -8.504824e+02 -5.124974e+02 -2.617977e+01 0 0 0 0 0 0 
0 0 0 0 0 0 0 6.566240e+01 6.233727e+02 7.620753e+02 2.043649e+02 0 0 0 0 0 0 0 0 0 0 0 -2.043649e+02 -7.620753e+02 -6.233727e+02 -6.566240e+01 0 0 0 0 0 0 
0 0 0 0 0 0 0 1.013844e+02 6.416609e+02 6.679617e+02 1.276852e+02 0 0 0 0 0 0 0 0 0 0 0 -1.276852e+02 -6.679617e+02 -6.416609e+02 -1.013844e+02 0 0 0 0 0 0 
0 0 0 0 0 0 0 1.175425e+02 6.536343e+02 6.415032e+02 1.054114e+02 0 0 0 0 0 0 0 0 0 0 0 -1.054114e+02 -6.415032e+02 -6.536343e+02 -1.175425e+02 0 0 0 0 0 0 
0 0 0 0 0 0 0 1.013844e+02 6.416609e+02 6.679617e+02 1.276852e+02 0 0 0 0 0 0 0 0 0 0 0 -1.276852e+02 -6.679617e+02 -6.416609e+02 -1.013844e+02 0 0 0 0 0 0 
0 0 0 0 0 0 0 6.566240e+01 6.233727e+02 7.620753e+02 2.043649e+02 0 0 0 0 0 0 0 0 0 0 0 -2.043649e+02 -7.620753e+02 -6.233727e+02 -6.566240e+01 0 0 0 0 0 0 
0 0 0 0 0 0 0 2.617977e+01 5.124974e+02 8.504824e+02 3.729176e+02 8.752862e+00 0 0 0 0 0 0 0 0 0 -8.752862e+00 -3.729176e+02 -8.504824e+02 -5.124974e+02 -2.617977e+01 0 0 0 0 0 0 
0 0 0 0 0 0 0 3.156406e+00 2.978030e+02 7.935309e+02 5.631841e+02 6.430410e+01 4.348474e-03 0 0 0 0 0 0 0 -4.348474e-03 -6.430410e+01 -5.631841e+02 -7.935309e+02 -2.978030e+02 -3.156406e+00 0 0 0 0 0 0 
0 0 0 0 0 0 0 2.591417e-02 9.946437e+01 5.478663e+02 7.207929e+02 2.889989e+02 1.663442e+01 6.020679e-04 0 0 0 0 0 -6.020679e-04 -1.663442e+01 -2.889989e+02 -7.207929e+02 -5.478663e+02 -9.946437e+01 -2.591417e-02 0 0 0 0 0 0 
0 0 0 0 0 0 0 0 5.629791e+00 2.466935e+02 6.978125e+02 6.450911e+02 2.087927e+02 2.059262e+01 1.423377e-01 0 0 0 -1.423377e-01 -2.059262e+01 -2.087927e+02 -6.450911e+02 -6.978125e+02 -2.466935e+02 -5.629791e+00 0 0 0 0 0 0 0 
0 0 0 0 0 0 0 0 0 5.782874e+01 3.707614e+02 7.436224e+02 6.140448e+02 2.355003e+02 5.820863e+01 6.676855e+00 7.912796e-13 -6.676855e+00 -5.820863e+01 -2.355003e+02 -6.140448e+02 -7.436224e+02 -3.707614e+02 -5.782874e+01 0 0 0 0 0 0 0 0 
0 0 0 0 0 0 0 0 0 1.087806e+00 7.709162e+01 3.711142e+02 6.059201e+02 5.115533e+02 2.812351e+02 1.095403e+02 -1.236188e-11 -1.095403e+02 -2.812351e+02 -5.115533e+02 -6.059201e+02 -3.711142e+02 -7.709162e+01 -1.087806e+00 0 0 0 0 0 0 0 0 
0 0 0 0 0 0 0 0 0 0 3.001691e+00 3.918783e+01 1.912597e+02 3.275171e+02 2.807002e+02 1.559732e+02 -4.641831e-11 -1.559732e+02 -2.807002e+02 -3.275171e+02 -1.912597e+02 -3.918783e+01 -3.001691e+00 0 0 0 0 0 0 0 0 0 
0 0 0 0 0 0 0 0 0 0 0 5.246107e-02 7.221877e+00 3.087202e+01 5.753138e+01 5.310980e+01 -3.326885e-11 -5.310980e+01 -5.753138e+01 -3.087202e+01 -7.221877e+00 -5.246107e-02 0 0 0 0 0 0 0 0 0 0 
0 0 0 0 0 0 0 0 0 0 0 0 0 0 0 0 0 0 0 0 0 0 0 0 0 0 0 0 0 0 0 0 
0 0 0 0 0 0 0 0 0 0 0 0 0 0 0 0 0 0 0 0 0 0 0 0 0 0 0 0 0 0 0 0 
0 0 0 0 0 0 0 0 0 0 0 0 0 0 0 0 0 0 0 0 0 0 0 0 0 0 0 0 0 0 0 0 
0 0 0 0 0 0 0 0 0 0 0 0 0 0 0 0 0 0 0 0 0 0 0 0 0 0 0 0 0 0 0 0 
0 0 0 0 0 0 0 0 0 0 0 0 0 0 0 0 0 0 0 0 0 0 0 0 0 0 0 0 0 0 0 0 
