# vtk DataFile Version 2.0
Comment goes here
ASCII

DATASET STRUCTURED_POINTS
FIELD FieldData 1
TIME 1 1 double
0.38000000
DIMENSIONS    32   32   1

ORIGIN    0.000   0.000   0.000
SPACING   0.03125 0.03125   1.000

POINT_DATA   1024
SCALARS fX double
LOOKUP_TABLE default

0 0 0 0 0 0 0 0 0 0 0 0 0 0 0 0 0 0 0 0 0 0 0 0 0 0 0 0 0 0 0 0 
0 0 0 0 0 0 0 0 0 0 0 0 0 0 0 0 0 0 0 0 0 0 0 0 0 0 0 0 0 0 0 0 
0 0 0 0 0 0 0 0 0 0 0 0 0 0 0 0 0 0 0 0 0 0 0 0 0 0 0 0 0 0 0 0 
0 0 0 0 0 0 0 0 0 0 0 0 0 0 0 0 0 0 0 0 0 0 0 0 0 0 0 0 0 0 0 0 
0 0 0 0 0 0 0 0 0 0 0 0 0 0 0 0 0 0 0 0 0 0 0 0 0 0 0 0 0 0 0 0 
0 0 0 0 0 0 0 0 0 0 0 0 0 0 0 0 0 0 0 0 0 0 0 0 0 0 0 0 0 0 0 0 
0 0 0 0 0 0 0 0 0 0 0 0 0 0 0 0 0 0 0 0 0 0 0 0 0 0 0 0 0 0 0 0 
0 0 0 0 0 0 0 0 0 0 3.395058e-01 5.719950e+00 1.906690e+01 3.479715e+01 4.561127e+01 3.032605e+01 4.144127e-12 -3.032605e+01 -4.561127e+01 -3.479715e+01 -1.906690e+01 -5.719950e+00 -3.395058e-01 0 0 0 0 0 0 0 0 0 
0 0 0 0 0 0 0 0 2.490436e-02 2.154057e+01 8.994546e+01 1.688276e+02 1.920187e+02 1.654330e+02 1.416045e+02 8.219733e+01 6.061042e-12 -8.219733e+01 -1.416045e+02 -1.654330e+02 -1.920187e+02 -1.688276e+02 -8.994546e+01 -2.154057e+01 -2.490436e-02 0 0 0 0 0 0 0 
0 0 0 0 0 0 0 3.018773e+00 6.677495e+01 2.963161e+02 5.083065e+02 4.365767e+02 2.607410e+02 1.578072e+02 1.028137e+02 5.365509e+01 1.711851e-12 -5.365509e+01 -1.028137e+02 -1.578072e+02 -2.607410e+02 -4.365767e+02 -5.083065e+02 -2.963161e+02 -6.677495e+01 -3.018773e+00 0 0 0 0 0 0 
0 0 0 0 0 0 1.135311e+00 9.190053e+01 4.579532e+02 7.588141e+02 6.420605e+02 3.171571e+02 8.869905e+01 2.717136e+01 6.820504e+00 1.783813e+00 -2.075331e-13 -1.783813e+00 -6.820504e+00 -2.717136e+01 -8.869905e+01 -3.171571e+02 -6.420605e+02 -7.588141e+02 -4.579532e+02 -9.190053e+01 -1.135311e+00 0 0 0 0 0 
0 0 0 0 0 0 4.796898e+01 4.659310e+02 9.690349e+02 7.498215e+02 2.415268e+02 4.368801e+01 9.098595e-01 0 0 0 0 0 0 0 -9.098595e-01 -4.368801e+01 -2.415268e+02 -7.498215e+02 -9.690349e+02 -4.659310e+02 -4.796898e+01 0 0 0 0 0 
0 0 0 0 0 4.396917e+00 2.600946e+02 9.163010e+02 9.460369e+02 3.036682e+02 1.823461e+01 0 0 0 0 0 0 0 0 0 0 0 -1.823461e+01 -3.036682e+02 -9.460369e+02 -9.163010e+02 -2.600946e+02 -4.396917e+00 0 0 0 0 
0 0 0 0 0 4.406127e+01 6.849043e+02 1.180674e+03 5.789544e+02 3.919121e+01 6.776222e-02 0 0 0 0 0 0 0 0 0 0 0 -6.776222e-02 -3.919121e+01 -5.789544e+02 -1.180674e+03 -6.849043e+02 -4.406127e+01 0 0 0 0 
0 0 0 0 0 1.360468e+02 1.022211e+03 1.194915e+03 3.100570e+02 1.306050e+00 0 0 0 0 0 0 0 0 0 0 0 0 0 -1.306050e+00 -3.100570e+02 -1.194915e+03 -1.022211e+03 -1.360468e+02 0 0 0 0 
0 0 0 0 0 2.414262e+02 1.138243e+03 1.049096e+03 1.522794e+02 0 0 0 0 0 0 0 0 0 0 0 0 0 0 0 -1.522794e+02 -1.049096e+03 -1.138243e+03 -2.414262e+02 0 0 0 0 
0 0 0 0 0 2.900874e+02 1.175350e+03 9.912064e+02 1.059435e+02 0 0 0 0 0 0 0 0 0 0 0 0 0 0 0 -1.059435e+02 -9.912064e+02 -1.175350e+03 -2.900874e+02 0 0 0 0 
0 0 0 0 0 2.414262e+02 1.138243e+03 1.049096e+03 1.522794e+02 0 0 0 0 0 0 0 0 0 0 0 0 0 0 0 -1.522794e+02 -1.049096e+03 -1.138243e+03 -2.414262e+02 0 0 0 0 
0 0 0 0 0 1.360468e+02 1.022211e+03 1.194915e+03 3.100570e+02 1.306050e+00 0 0 0 0 0 0 0 0 0 0 0 0 0 -1.306050e+00 -3.100570e+02 -1.194915e+03 -1.022211e+03 -1.360468e+02 0 0 0 0 
0 0 0 0 0 4.406127e+01 6.849043e+02 1.180674e+03 5.789544e+02 3.919121e+01 6.776222e-02 0 0 0 0 0 0 0 0 0 0 0 -6.776222e-02 -3.919121e+01 -5.789544e+02 -1.180674e+03 -6.849043e+02 -4.406127e+01 0 0 0 0 
0 0 0 0 0 4.396917e+00 2.600946e+02 9.163010e+02 9.460369e+02 3.036682e+02 1.823461e+01 0 0 0 0 0 0 0 0 0 0 0 -1.823461e+01 -3.036682e+02 -9.460369e+02 -9.163010e+02 -2.600946e+02 -4.396917e+00 0 0 0 0 
0 0 0 0 0 0 4.796898e+01 4.659310e+02 9.690349e+02 7.498215e+02 2.415268e+02 4.368801e+01 9.098595e-01 0 0 0 0 0 0 0 -9.098595e-01 -4.368801e+01 -2.415268e+02 -7.498215e+02 -9.690349e+02 -4.659310e+02 -4.796898e+01 0 0 0 0 0 
0 0 0 0 0 0 1.135311e+00 9.190053e+01 4.579532e+02 7.588141e+02 6.420605e+02 3.171571e+02 8.869905e+01 2.717136e+01 6.820504e+00 1.783813e+00 -1.154378e-12 -1.783813e+00 -6.820504e+00 -2.717136e+01 -8.869905e+01 -3.171571e+02 -6.420605e+02 -7.588141e+02 -4.579532e+02 -9.190053e+01 -1.135311e+00 0 0 0 0 0 
0 0 0 0 0 0 0 3.018773e+00 6.677495e+01 2.963161e+02 5.083065e+02 4.365767e+02 2.607410e+02 1.578072e+02 1.028137e+02 5.365509e+01 3.692252e-12 -5.365509e+01 -1.028137e+02 -1.578072e+02 -2.607410e+02 -4.365767e+02 -5.083065e+02 -2.963161e+02 -6.677495e+01 -3.018773e+00 0 0 0 0 0 0 
0 0 0 0 0 0 0 0 2.490436e-02 2.154057e+01 8.994546e+01 1.688276e+02 1.920187e+02 1.654330e+02 1.416045e+02 8.219733e+01 2.400776e-11 -8.219733e+01 -1.416045e+02 -1.654330e+02 -1.920187e+02 -1.688276e+02 -8.994546e+01 -2.154057e+01 -2.490436e-02 0 0 0 0 0 0 0 
0 0 0 0 0 0 0 0 0 0 3.395058e-01 5.719950e+00 1.906690e+01 3.479715e+01 4.561127e+01 3.032605e+01 1.916041e-11 -3.032605e+01 -4.561127e+01 -3.479715e+01 -1.906690e+01 -5.719950e+00 -3.395058e-01 0 0 0 0 0 0 0 0 0 
0 0 0 0 0 0 0 0 0 0 0 0 0 0 0 0 0 0 0 0 0 0 0 0 0 0 0 0 0 0 0 0 
0 0 0 0 0 0 0 0 0 0 0 0 0 0 0 0 0 0 0 0 0 0 0 0 0 0 0 0 0 0 0 0 
0 0 0 0 0 0 0 0 0 0 0 0 0 0 0 0 0 0 0 0 0 0 0 0 0 0 0 0 0 0 0 0 
0 0 0 0 0 0 0 0 0 0 0 0 0 0 0 0 0 0 0 0 0 0 0 0 0 0 0 0 0 0 0 0 
0 0 0 0 0 0 0 0 0 0 0 0 0 0 0 0 0 0 0 0 0 0 0 0 0 0 0 0 0 0 0 0 
0 0 0 0 0 0 0 0 0 0 0 0 0 0 0 0 0 0 0 0 0 0 0 0 0 0 0 0 0 0 0 0 
