# vtk DataFile Version 2.0
Comment goes here
ASCII

DATASET STRUCTURED_POINTS
FIELD FieldData 1
TIME 1 1 double
1.18000000
DIMENSIONS    32   32   1

ORIGIN    0.000   0.000   0.000
SPACING   0.03125 0.03125   1.000

POINT_DATA   1024
SCALARS fX double
LOOKUP_TABLE default

0 0 0 0 0 0 0 0 0 0 0 0 0 0 0 0 0 0 0 0 0 0 0 0 0 0 0 0 0 0 0 0 
0 0 0 0 0 0 0 0 0 0 0 0 0 0 0 0 0 0 0 0 0 0 0 0 0 0 0 0 0 0 0 0 
0 0 0 0 0 0 0 0 0 0 0 0 0 0 0 0 0 0 0 0 0 0 0 0 0 0 0 0 0 0 0 0 
0 0 0 0 0 0 0 0 0 0 0 0 0 0 0 0 0 0 0 0 0 0 0 0 0 0 0 0 0 0 0 0 
0 0 0 0 0 0 0 0 0 0 0 0 0 0 0 0 0 0 0 0 0 0 0 0 0 0 0 0 0 0 0 0 
0 0 0 0 0 0 0 0 0 0 0 0 0 0 0 0 0 0 0 0 0 0 0 0 0 0 0 0 0 0 0 0 
0 0 0 0 0 0 0 0 0 0 0 0 0 0 0 0 0 0 0 0 0 0 0 0 0 0 0 0 0 0 0 0 
0 0 0 0 0 0 0 0 0 0 0 0 0 0 0 0 0 0 0 0 0 0 0 0 0 0 0 0 0 0 0 0 
0 0 0 0 0 0 0 0 0 0 0 4.450514e+00 -1.703271e+01 3.239539e+01 3.895414e+01 4.603058e+00 3.612755e-11 -4.603058e+00 -3.895414e+01 -3.239539e+01 1.703271e+01 -4.450514e+00 0 0 0 0 0 0 0 0 0 0 
0 0 0 0 0 0 0 0 0 8.913608e-02 2.345040e+01 1.259944e+02 1.668404e+02 2.160688e+02 1.680142e+02 5.557441e+01 1.167729e-10 -5.557441e+01 -1.680142e+02 -2.160688e+02 -1.668404e+02 -1.259944e+02 -2.345040e+01 -8.913608e-02 0 0 0 0 0 0 0 0 
0 0 0 0 0 0 0 0 9.768287e-02 2.785334e+01 2.639036e+02 5.034367e+02 4.425639e+02 2.708972e+02 1.401948e+02 6.387709e+01 8.348577e-11 -6.387709e+01 -1.401948e+02 -2.708972e+02 -4.425639e+02 -5.034367e+02 -2.639036e+02 -2.785334e+01 -9.768287e-02 0 0 0 0 0 0 0 
0 0 0 0 0 0 0 0 5.332324e+01 3.136467e+02 6.171381e+02 5.692269e+02 3.017093e+02 8.693625e+01 1.113474e+01 1.290574e+01 2.855644e-12 -1.290574e+01 -1.113474e+01 -8.693625e+01 -3.017093e+02 -5.692269e+02 -6.171381e+02 -3.136467e+02 -5.332324e+01 0 0 0 0 0 0 0 
0 0 0 0 0 0 0 2.110016e+01 2.901746e+02 7.482902e+02 6.543123e+02 2.184028e+02 4.301860e+01 -2.876030e-01 0 0 0 0 0 2.876030e-01 -4.301860e+01 -2.184028e+02 -6.543123e+02 -7.482902e+02 -2.901746e+02 -2.110016e+01 0 0 0 0 0 0 
0 0 0 0 0 0 0 8.455469e+01 6.542382e+02 9.152156e+02 3.766045e+02 3.107245e+01 0 0 0 0 0 0 0 0 0 -3.107245e+01 -3.766045e+02 -9.152156e+02 -6.542382e+02 -8.455469e+01 0 0 0 0 0 0 
0 0 0 0 0 0 0 2.673918e+02 9.281729e+02 7.700328e+02 1.092555e+02 3.732459e-03 0 0 0 0 0 0 0 0 0 -3.732459e-03 -1.092555e+02 -7.700328e+02 -9.281729e+02 -2.673918e+02 0 0 0 0 0 0 
0 0 0 0 0 0 3.841512e-02 4.571708e+02 1.045399e+03 6.001750e+02 1.190888e+01 0 0 0 0 0 0 0 0 0 0 0 -1.190888e+01 -6.001750e+02 -1.045399e+03 -4.571708e+02 -3.841512e-02 0 0 0 0 0 
0 0 0 0 0 0 7.683024e-02 5.064672e+02 1.069030e+03 5.659001e+02 3.260940e+00 0 0 0 0 0 0 0 0 0 0 0 -3.260940e+00 -5.659001e+02 -1.069030e+03 -5.064672e+02 -7.683024e-02 0 0 0 0 0 
0 0 0 0 0 0 3.841512e-02 4.571708e+02 1.045399e+03 6.001750e+02 1.190888e+01 0 0 0 0 0 0 0 0 0 0 0 -1.190888e+01 -6.001750e+02 -1.045399e+03 -4.571708e+02 -3.841512e-02 0 0 0 0 0 
0 0 0 0 0 0 0 2.673918e+02 9.281729e+02 7.700328e+02 1.092555e+02 3.732459e-03 0 0 0 0 0 0 0 0 0 -3.732459e-03 -1.092555e+02 -7.700328e+02 -9.281729e+02 -2.673918e+02 0 0 0 0 0 0 
0 0 0 0 0 0 0 8.455469e+01 6.542382e+02 9.152156e+02 3.766045e+02 3.107245e+01 0 0 0 0 0 0 0 0 0 -3.107245e+01 -3.766045e+02 -9.152156e+02 -6.542382e+02 -8.455469e+01 0 0 0 0 0 0 
0 0 0 0 0 0 0 2.110016e+01 2.901746e+02 7.482902e+02 6.543123e+02 2.184028e+02 4.301860e+01 -2.876030e-01 0 0 0 0 0 2.876030e-01 -4.301860e+01 -2.184028e+02 -6.543123e+02 -7.482902e+02 -2.901746e+02 -2.110016e+01 0 0 0 0 0 0 
0 0 0 0 0 0 0 0 5.332324e+01 3.136467e+02 6.171381e+02 5.692269e+02 3.017093e+02 8.693625e+01 1.113474e+01 1.290574e+01 -1.033741e-11 -1.290574e+01 -1.113474e+01 -8.693625e+01 -3.017093e+02 -5.692269e+02 -6.171381e+02 -3.136467e+02 -5.332324e+01 0 0 0 0 0 0 0 
0 0 0 0 0 0 0 0 9.768287e-02 2.785334e+01 2.639036e+02 5.034367e+02 4.425639e+02 2.708972e+02 1.401948e+02 6.387709e+01 -1.972486e-10 -6.387709e+01 -1.401948e+02 -2.708972e+02 -4.425639e+02 -5.034367e+02 -2.639036e+02 -2.785334e+01 -9.768287e-02 0 0 0 0 0 0 0 
0 0 0 0 0 0 0 0 0 8.913608e-02 2.345040e+01 1.259944e+02 1.668404e+02 2.160688e+02 1.680142e+02 5.557441e+01 -2.693025e-10 -5.557441e+01 -1.680142e+02 -2.160688e+02 -1.668404e+02 -1.259944e+02 -2.345040e+01 -8.913608e-02 0 0 0 0 0 0 0 0 
0 0 0 0 0 0 0 0 0 0 0 4.450514e+00 -1.703271e+01 3.239539e+01 3.895414e+01 4.603058e+00 -8.240288e-11 -4.603058e+00 -3.895414e+01 -3.239539e+01 1.703271e+01 -4.450514e+00 0 0 0 0 0 0 0 0 0 0 
0 0 0 0 0 0 0 0 0 0 0 0 0 0 0 0 0 0 0 0 0 0 0 0 0 0 0 0 0 0 0 0 
0 0 0 0 0 0 0 0 0 0 0 0 0 0 0 0 0 0 0 0 0 0 0 0 0 0 0 0 0 0 0 0 
0 0 0 0 0 0 0 0 0 0 0 0 0 0 0 0 0 0 0 0 0 0 0 0 0 0 0 0 0 0 0 0 
0 0 0 0 0 0 0 0 0 0 0 0 0 0 0 0 0 0 0 0 0 0 0 0 0 0 0 0 0 0 0 0 
0 0 0 0 0 0 0 0 0 0 0 0 0 0 0 0 0 0 0 0 0 0 0 0 0 0 0 0 0 0 0 0 
0 0 0 0 0 0 0 0 0 0 0 0 0 0 0 0 0 0 0 0 0 0 0 0 0 0 0 0 0 0 0 0 
0 0 0 0 0 0 0 0 0 0 0 0 0 0 0 0 0 0 0 0 0 0 0 0 0 0 0 0 0 0 0 0 
