# vtk DataFile Version 2.0
Comment goes here
ASCII

DATASET STRUCTURED_POINTS
FIELD FieldData 1
TIME 1 1 double
0.50000000
DIMENSIONS    32   32   1

ORIGIN    0.000   0.000   0.000
SPACING   0.03125 0.03125   1.000

POINT_DATA   1024
SCALARS fX double
LOOKUP_TABLE default

0 0 0 0 0 0 0 0 0 0 0 0 0 0 0 0 0 0 0 0 0 0 0 0 0 0 0 0 0 0 0 0 
0 0 0 0 0 0 0 0 0 0 0 0 0 0 0 0 0 0 0 0 0 0 0 0 0 0 0 0 0 0 0 0 
0 0 0 0 0 0 0 0 0 0 0 0 0 0 0 0 0 0 0 0 0 0 0 0 0 0 0 0 0 0 0 0 
0 0 0 0 0 0 0 0 0 0 0 0 0 0 0 0 0 0 0 0 0 0 0 0 0 0 0 0 0 0 0 0 
0 0 0 0 0 0 0 0 0 0 0 0 0 0 0 0 0 0 0 0 0 0 0 0 0 0 0 0 0 0 0 0 
0 0 0 0 0 0 0 0 0 0 0 2.230033e-02 7.784483e+00 5.623862e+01 9.739282e+01 7.567476e+01 -2.143121e-11 -7.567476e+01 -9.739282e+01 -5.623862e+01 -7.784483e+00 -2.230033e-02 0 0 0 0 0 0 0 0 0 0 
0 0 0 0 0 0 0 0 0 0 5.850360e-01 4.711132e+01 1.716476e+02 4.015730e+02 4.436374e+02 2.305790e+02 -4.218867e-11 -2.305790e+02 -4.436374e+02 -4.015730e+02 -1.716476e+02 -4.711132e+01 -5.850360e-01 0 0 0 0 0 0 0 0 0 
0 0 0 0 0 0 0 0 0 4.712293e-01 6.043709e+01 3.821563e+02 6.609215e+02 6.192739e+02 4.120034e+02 1.686604e+02 -2.077025e-11 -1.686604e+02 -4.120034e+02 -6.192739e+02 -6.609215e+02 -3.821563e+02 -6.043709e+01 -4.712293e-01 0 0 0 0 0 0 0 0 
0 0 0 0 0 0 0 0 1.133357e-02 2.478656e+01 3.104037e+02 7.629315e+02 7.337937e+02 3.093214e+02 6.602187e+01 1.375613e+01 -9.624401e-15 -1.375613e+01 -6.602187e+01 -3.093214e+02 -7.337937e+02 -7.629315e+02 -3.104037e+02 -2.478656e+01 -1.133357e-02 0 0 0 0 0 0 0 
0 0 0 0 0 0 0 0 2.675395e+00 2.279507e+02 7.244295e+02 7.360440e+02 2.720086e+02 3.538190e+01 2.630927e-01 0 0 0 -2.630927e-01 -3.538190e+01 -2.720086e+02 -7.360440e+02 -7.244295e+02 -2.279507e+02 -2.675395e+00 0 0 0 0 0 0 0 
0 0 0 0 0 0 0 0 3.491832e+01 4.862687e+02 8.463490e+02 4.308967e+02 3.589808e+01 0 0 0 0 0 0 0 -3.589808e+01 -4.308967e+02 -8.463490e+02 -4.862687e+02 -3.491832e+01 0 0 0 0 0 0 0 
0 0 0 0 0 0 0 6.528705e-02 1.569692e+02 6.518240e+02 6.373067e+02 1.430116e+02 6.249117e-01 0 0 0 0 0 0 0 -6.249117e-01 -1.430116e+02 -6.373067e+02 -6.518240e+02 -1.569692e+02 -6.528705e-02 0 0 0 0 0 0 
0 0 0 0 0 0 0 3.708468e+00 3.382339e+02 7.646017e+02 4.527566e+02 2.268027e+01 0 0 0 0 0 0 0 0 0 -2.268027e+01 -4.527566e+02 -7.646017e+02 -3.382339e+02 -3.708468e+00 0 0 0 0 0 0 
0 0 0 0 0 0 0 2.397253e+01 4.883414e+02 7.625452e+02 3.005619e+02 2.385647e+00 0 0 0 0 0 0 0 0 0 -2.385647e+00 -3.005619e+02 -7.625452e+02 -4.883414e+02 -2.397253e+01 0 0 0 0 0 0 
0 0 0 0 0 0 0 5.467624e+01 5.614255e+02 6.951492e+02 1.883999e+02 0 0 0 0 0 0 0 0 0 0 0 -1.883999e+02 -6.951492e+02 -5.614255e+02 -5.467624e+01 0 0 0 0 0 0 
0 0 0 0 0 0 0 7.682242e+01 5.626230e+02 6.164536e+02 1.306530e+02 0 0 0 0 0 0 0 0 0 0 0 -1.306530e+02 -6.164536e+02 -5.626230e+02 -7.682242e+01 0 0 0 0 0 0 
0 0 0 0 0 0 0 8.495105e+01 5.520398e+02 5.768769e+02 1.097882e+02 0 0 0 0 0 0 0 0 0 0 0 -1.097882e+02 -5.768769e+02 -5.520398e+02 -8.495105e+01 0 0 0 0 0 0 
0 0 0 0 0 0 0 7.682242e+01 5.626230e+02 6.164536e+02 1.306530e+02 0 0 0 0 0 0 0 0 0 0 0 -1.306530e+02 -6.164536e+02 -5.626230e+02 -7.682242e+01 0 0 0 0 0 0 
0 0 0 0 0 0 0 5.467624e+01 5.614255e+02 6.951492e+02 1.883999e+02 0 0 0 0 0 0 0 0 0 0 0 -1.883999e+02 -6.951492e+02 -5.614255e+02 -5.467624e+01 0 0 0 0 0 0 
0 0 0 0 0 0 0 2.397253e+01 4.883414e+02 7.625452e+02 3.005619e+02 2.385647e+00 0 0 0 0 0 0 0 0 0 -2.385647e+00 -3.005619e+02 -7.625452e+02 -4.883414e+02 -2.397253e+01 0 0 0 0 0 0 
0 0 0 0 0 0 0 3.708468e+00 3.382339e+02 7.646017e+02 4.527566e+02 2.268027e+01 0 0 0 0 0 0 0 0 0 -2.268027e+01 -4.527566e+02 -7.646017e+02 -3.382339e+02 -3.708468e+00 0 0 0 0 0 0 
0 0 0 0 0 0 0 6.528705e-02 1.569692e+02 6.518240e+02 6.373067e+02 1.430116e+02 6.249117e-01 0 0 0 0 0 0 0 -6.249117e-01 -1.430116e+02 -6.373067e+02 -6.518240e+02 -1.569692e+02 -6.528705e-02 0 0 0 0 0 0 
0 0 0 0 0 0 0 0 3.491832e+01 4.862687e+02 8.463490e+02 4.308967e+02 3.589808e+01 0 0 0 0 0 0 0 -3.589808e+01 -4.308967e+02 -8.463490e+02 -4.862687e+02 -3.491832e+01 0 0 0 0 0 0 0 
0 0 0 0 0 0 0 0 2.675395e+00 2.279507e+02 7.244295e+02 7.360440e+02 2.720086e+02 3.538190e+01 2.630927e-01 0 0 0 -2.630927e-01 -3.538190e+01 -2.720086e+02 -7.360440e+02 -7.244295e+02 -2.279507e+02 -2.675395e+00 0 0 0 0 0 0 0 
0 0 0 0 0 0 0 0 1.133357e-02 2.478656e+01 3.104037e+02 7.629315e+02 7.337937e+02 3.093214e+02 6.602187e+01 1.375613e+01 -6.093582e-13 -1.375613e+01 -6.602187e+01 -3.093214e+02 -7.337937e+02 -7.629315e+02 -3.104037e+02 -2.478656e+01 -1.133357e-02 0 0 0 0 0 0 0 
0 0 0 0 0 0 0 0 0 4.712293e-01 6.043709e+01 3.821563e+02 6.609215e+02 6.192739e+02 4.120034e+02 1.686604e+02 1.225100e-11 -1.686604e+02 -4.120034e+02 -6.192739e+02 -6.609215e+02 -3.821563e+02 -6.043709e+01 -4.712293e-01 0 0 0 0 0 0 0 0 
0 0 0 0 0 0 0 0 0 0 5.850360e-01 4.711132e+01 1.716476e+02 4.015730e+02 4.436374e+02 2.305790e+02 3.623386e-11 -2.305790e+02 -4.436374e+02 -4.015730e+02 -1.716476e+02 -4.711132e+01 -5.850360e-01 0 0 0 0 0 0 0 0 0 
0 0 0 0 0 0 0 0 0 0 0 2.230033e-02 7.784483e+00 5.623862e+01 9.739282e+01 7.567476e+01 2.337113e-11 -7.567476e+01 -9.739282e+01 -5.623862e+01 -7.784483e+00 -2.230033e-02 0 0 0 0 0 0 0 0 0 0 
0 0 0 0 0 0 0 0 0 0 0 0 0 0 0 0 0 0 0 0 0 0 0 0 0 0 0 0 0 0 0 0 
0 0 0 0 0 0 0 0 0 0 0 0 0 0 0 0 0 0 0 0 0 0 0 0 0 0 0 0 0 0 0 0 
0 0 0 0 0 0 0 0 0 0 0 0 0 0 0 0 0 0 0 0 0 0 0 0 0 0 0 0 0 0 0 0 
0 0 0 0 0 0 0 0 0 0 0 0 0 0 0 0 0 0 0 0 0 0 0 0 0 0 0 0 0 0 0 0 
