# vtk DataFile Version 2.0
Comment goes here
ASCII

DATASET STRUCTURED_POINTS
FIELD FieldData 1
TIME 1 1 double
1.22000000
DIMENSIONS    32   32   1

ORIGIN    0.000   0.000   0.000
SPACING   0.03125 0.03125   1.000

POINT_DATA   1024
SCALARS fX double
LOOKUP_TABLE default

0 0 0 0 0 0 0 0 0 0 0 0 0 0 0 0 0 0 0 0 0 0 0 0 0 0 0 0 0 0 0 0 
0 0 0 0 0 0 0 0 0 0 0 0 0 0 0 0 0 0 0 0 0 0 0 0 0 0 0 0 0 0 0 0 
0 0 0 0 0 0 0 0 0 0 0 0 0 0 0 0 0 0 0 0 0 0 0 0 0 0 0 0 0 0 0 0 
0 0 0 0 0 0 0 0 0 0 0 0 0 0 0 0 0 0 0 0 0 0 0 0 0 0 0 0 0 0 0 0 
0 0 0 0 0 0 0 0 0 0 0 0 0 0 0 0 0 0 0 0 0 0 0 0 0 0 0 0 0 0 0 0 
0 0 0 0 0 0 0 0 0 0 0 0 0 0 0 0 0 0 0 0 0 0 0 0 0 0 0 0 0 0 0 0 
0 0 0 0 0 0 0 0 0 0 0 0 0 0 0 0 0 0 0 0 0 0 0 0 0 0 0 0 0 0 0 0 
0 0 0 0 0 0 0 0 0 0 0 0 5.541296e-01 1.694857e+01 8.788950e+00 1.114239e+00 1.863236e-11 -1.114239e+00 -8.788950e+00 -1.694857e+01 -5.541296e-01 0 0 0 0 0 0 0 0 0 0 0 
0 0 0 0 0 0 0 0 0 0 -1.486025e-02 1.620677e+01 3.704520e+01 1.718549e+02 1.957753e+02 7.669211e+01 1.516594e-10 -7.669211e+01 -1.957753e+02 -1.718549e+02 -3.704520e+01 -1.620677e+01 1.486025e-02 0 0 0 0 0 0 0 0 0 
0 0 0 0 0 0 0 0 0 2.245263e-01 4.364286e+01 1.832778e+02 3.672212e+02 4.068554e+02 2.762146e+02 1.209366e+02 1.655577e-10 -1.209366e+02 -2.762146e+02 -4.068554e+02 -3.672212e+02 -1.832778e+02 -4.364286e+01 -2.245263e-01 0 0 0 0 0 0 0 0 
0 0 0 0 0 0 0 0 8.805380e-03 1.975425e+01 2.455105e+02 5.794624e+02 6.006179e+02 2.991020e+02 9.655277e+01 4.535868e+01 3.254535e-11 -4.535868e+01 -9.655277e+01 -2.991020e+02 -6.006179e+02 -5.794624e+02 -2.455105e+02 -1.975425e+01 -8.805380e-03 0 0 0 0 0 0 0 
0 0 0 0 0 0 0 0 5.478437e-01 1.842709e+02 5.976255e+02 6.769988e+02 3.037026e+02 4.793081e+01 7.324579e+00 0 0 0 -7.324579e+00 -4.793081e+01 -3.037026e+02 -6.769988e+02 -5.976255e+02 -1.842709e+02 -5.478437e-01 0 0 0 0 0 0 0 
0 0 0 0 0 0 0 0 6.844860e+01 4.998339e+02 7.544222e+02 3.566056e+02 3.434657e+01 7.778822e-01 0 0 0 0 0 -7.778822e-01 -3.434657e+01 -3.566056e+02 -7.544222e+02 -4.998339e+02 -6.844860e+01 0 0 0 0 0 0 0 
0 0 0 0 0 0 0 1.359770e-01 1.806673e+02 7.250774e+02 6.644784e+02 1.204641e+02 5.318008e-01 0 0 0 0 0 0 0 -5.318008e-01 -1.204641e+02 -6.644784e+02 -7.250774e+02 -1.806673e+02 -1.359770e-01 0 0 0 0 0 0 
0 0 0 0 0 0 0 2.197843e+00 3.595928e+02 8.186669e+02 4.896824e+02 2.841044e+01 0 0 0 0 0 0 0 0 0 -2.841044e+01 -4.896824e+02 -8.186669e+02 -3.595928e+02 -2.197843e+00 0 0 0 0 0 0 
0 0 0 0 0 0 0 7.029341e+00 4.881461e+02 8.220875e+02 3.409152e+02 -5.554357e-02 0 0 0 0 0 0 0 0 0 5.554357e-02 -3.409152e+02 -8.220875e+02 -4.881461e+02 -7.029341e+00 0 0 0 0 0 0 
0 0 0 0 0 0 0 9.934952e+00 4.826221e+02 7.868105e+02 3.141234e+02 0 0 0 0 0 0 0 0 0 0 0 -3.141234e+02 -7.868105e+02 -4.826221e+02 -9.934952e+00 0 0 0 0 0 0 
0 0 0 0 0 0 0 7.029341e+00 4.881461e+02 8.220875e+02 3.409152e+02 -5.554357e-02 0 0 0 0 0 0 0 0 0 5.554357e-02 -3.409152e+02 -8.220875e+02 -4.881461e+02 -7.029341e+00 0 0 0 0 0 0 
0 0 0 0 0 0 0 2.197843e+00 3.595928e+02 8.186669e+02 4.896824e+02 2.841044e+01 0 0 0 0 0 0 0 0 0 -2.841044e+01 -4.896824e+02 -8.186669e+02 -3.595928e+02 -2.197843e+00 0 0 0 0 0 0 
0 0 0 0 0 0 0 1.359770e-01 1.806673e+02 7.250774e+02 6.644784e+02 1.204641e+02 5.318008e-01 0 0 0 0 0 0 0 -5.318008e-01 -1.204641e+02 -6.644784e+02 -7.250774e+02 -1.806673e+02 -1.359770e-01 0 0 0 0 0 0 
0 0 0 0 0 0 0 0 6.844860e+01 4.998339e+02 7.544222e+02 3.566056e+02 3.434657e+01 7.778822e-01 0 0 0 0 0 -7.778822e-01 -3.434657e+01 -3.566056e+02 -7.544222e+02 -4.998339e+02 -6.844860e+01 0 0 0 0 0 0 0 
0 0 0 0 0 0 0 0 5.478437e-01 1.842709e+02 5.976255e+02 6.769988e+02 3.037026e+02 4.793081e+01 7.324579e+00 0 0 0 -7.324579e+00 -4.793081e+01 -3.037026e+02 -6.769988e+02 -5.976255e+02 -1.842709e+02 -5.478437e-01 0 0 0 0 0 0 0 
0 0 0 0 0 0 0 0 8.805380e-03 1.975425e+01 2.455105e+02 5.794624e+02 6.006179e+02 2.991020e+02 9.655277e+01 4.535868e+01 -6.151085e-11 -4.535868e+01 -9.655277e+01 -2.991020e+02 -6.006179e+02 -5.794624e+02 -2.455105e+02 -1.975425e+01 -8.805380e-03 0 0 0 0 0 0 0 
0 0 0 0 0 0 0 0 0 2.245263e-01 4.364286e+01 1.832778e+02 3.672212e+02 4.068554e+02 2.762146e+02 1.209366e+02 -2.680305e-10 -1.209366e+02 -2.762146e+02 -4.068554e+02 -3.672212e+02 -1.832778e+02 -4.364286e+01 -2.245263e-01 0 0 0 0 0 0 0 0 
0 0 0 0 0 0 0 0 0 0 -1.486025e-02 1.620677e+01 3.704520e+01 1.718549e+02 1.957753e+02 7.669211e+01 -2.301862e-10 -7.669211e+01 -1.957753e+02 -1.718549e+02 -3.704520e+01 -1.620677e+01 1.486025e-02 0 0 0 0 0 0 0 0 0 
0 0 0 0 0 0 0 0 0 0 0 0 5.541296e-01 1.694857e+01 8.788950e+00 1.114239e+00 -2.367219e-11 -1.114239e+00 -8.788950e+00 -1.694857e+01 -5.541296e-01 0 0 0 0 0 0 0 0 0 0 0 
0 0 0 0 0 0 0 0 0 0 0 0 0 0 0 0 0 0 0 0 0 0 0 0 0 0 0 0 0 0 0 0 
0 0 0 0 0 0 0 0 0 0 0 0 0 0 0 0 0 0 0 0 0 0 0 0 0 0 0 0 0 0 0 0 
0 0 0 0 0 0 0 0 0 0 0 0 0 0 0 0 0 0 0 0 0 0 0 0 0 0 0 0 0 0 0 0 
0 0 0 0 0 0 0 0 0 0 0 0 0 0 0 0 0 0 0 0 0 0 0 0 0 0 0 0 0 0 0 0 
0 0 0 0 0 0 0 0 0 0 0 0 0 0 0 0 0 0 0 0 0 0 0 0 0 0 0 0 0 0 0 0 
0 0 0 0 0 0 0 0 0 0 0 0 0 0 0 0 0 0 0 0 0 0 0 0 0 0 0 0 0 0 0 0 
