# vtk DataFile Version 2.0
Comment goes here
ASCII

DATASET STRUCTURED_POINTS
FIELD FieldData 1
TIME 1 1 double
0.02000000
DIMENSIONS    32   32   1

ORIGIN    0.000   0.000   0.000
SPACING   0.03125 0.03125   1.000

POINT_DATA   1024
SCALARS fX double
LOOKUP_TABLE default

0 0 0 0 0 0 0 0 0 0 0 0 0 0 0 0 0 0 0 0 0 0 0 0 0 0 0 0 0 0 0 0 
0 0 0 0 0 0 0 0 0 0 0 0 0 0 0 0 0 0 0 0 0 0 0 0 0 0 0 0 0 0 0 0 
0 0 0 0 0 0 0 0 0 0 0 0 0 0 0 0 0 0 0 0 0 0 0 0 0 0 0 0 0 0 0 0 
0 0 0 0 0 0 0 0 0 0 0 0 6.460854e-01 2.647911e+01 9.863879e+01 1.148586e+02 -2.144623e-12 -1.148586e+02 -9.863879e+01 -2.647911e+01 -6.460854e-01 0 0 0 0 0 0 0 0 0 0 0 
0 0 0 0 0 0 0 0 0 0 0 1.194452e+01 1.688008e+02 5.405312e+02 7.367579e+02 4.905341e+02 -1.047390e-12 -4.905341e+02 -7.367579e+02 -5.405312e+02 -1.688008e+02 -1.194452e+01 0 0 0 0 0 0 0 0 0 0 
0 0 0 0 0 0 0 0 0 0 4.323247e+00 2.067092e+02 8.088246e+02 1.230299e+03 9.619444e+02 4.402321e+02 1.786181e-12 -4.402321e+02 -9.619444e+02 -1.230299e+03 -8.088246e+02 -2.067092e+02 -4.323247e+00 0 0 0 0 0 0 0 0 0 
0 0 0 0 0 0 0 0 0 4.212599e-01 9.667113e+01 7.127387e+02 1.281984e+03 9.444205e+02 3.367323e+02 6.455659e+01 7.152601e-13 -6.455659e+01 -3.367323e+02 -9.444205e+02 -1.281984e+03 -7.127387e+02 -9.667113e+01 -4.212599e-01 0 0 0 0 0 0 0 0 
0 0 0 0 0 0 0 0 0 1.268852e+01 3.751937e+02 1.044391e+03 9.133792e+02 2.444001e+02 1.290703e+01 0 0 0 -1.290703e+01 -2.444001e+02 -9.133792e+02 -1.044391e+03 -3.751937e+02 -1.268852e+01 0 0 0 0 0 0 0 0 
0 0 0 0 0 0 0 0 0 8.067359e+01 6.644842e+02 9.253231e+02 3.577394e+02 1.622682e+01 0 0 0 0 0 -1.622682e+01 -3.577394e+02 -9.253231e+02 -6.644842e+02 -8.067359e+01 0 0 0 0 0 0 0 0 
0 0 0 0 0 0 0 0 2.991888e-01 2.085035e+02 7.605416e+02 6.535963e+02 1.012590e+02 0 0 0 0 0 0 0 -1.012590e+02 -6.535963e+02 -7.605416e+02 -2.085035e+02 -2.991888e-01 0 0 0 0 0 0 0 
0 0 0 0 0 0 0 0 5.015814e+00 3.319281e+02 7.071740e+02 3.967900e+02 1.652833e+01 0 0 0 0 0 0 0 -1.652833e+01 -3.967900e+02 -7.071740e+02 -3.319281e+02 -5.015814e+00 0 0 0 0 0 0 0 
0 0 0 0 0 0 0 0 2.149848e+01 3.927780e+02 5.873480e+02 2.170117e+02 9.432562e-01 0 0 0 0 0 0 0 -9.432562e-01 -2.170117e+02 -5.873480e+02 -3.927780e+02 -2.149848e+01 0 0 0 0 0 0 0 
0 0 0 0 0 0 0 0 4.507010e+01 3.916480e+02 4.622455e+02 1.156676e+02 0 0 0 0 0 0 0 0 0 -1.156676e+02 -4.622455e+02 -3.916480e+02 -4.507010e+01 0 0 0 0 0 0 0 
0 0 0 0 0 0 0 0 6.700014e+01 3.828861e+02 3.826920e+02 6.680606e+01 0 0 0 0 0 0 0 0 0 -6.680606e+01 -3.826920e+02 -3.828861e+02 -6.700014e+01 0 0 0 0 0 0 0 
0 0 0 0 0 0 0 0 8.242999e+01 3.769574e+02 3.386816e+02 4.415419e+01 0 0 0 0 0 0 0 0 0 -4.415419e+01 -3.386816e+02 -3.769574e+02 -8.242999e+01 0 0 0 0 0 0 0 
0 0 0 0 0 0 0 0 8.926602e+01 3.624982e+02 3.056897e+02 3.245752e+01 0 0 0 0 0 0 0 0 0 -3.245752e+01 -3.056897e+02 -3.624982e+02 -8.926602e+01 0 0 0 0 0 0 0 
0 0 0 0 0 0 0 0 9.109586e+01 3.554517e+02 2.930637e+02 2.870791e+01 0 0 0 0 0 0 0 0 0 -2.870791e+01 -2.930637e+02 -3.554517e+02 -9.109586e+01 0 0 0 0 0 0 0 
0 0 0 0 0 0 0 0 8.926602e+01 3.624982e+02 3.056897e+02 3.245752e+01 0 0 0 0 0 0 0 0 0 -3.245752e+01 -3.056897e+02 -3.624982e+02 -8.926602e+01 0 0 0 0 0 0 0 
0 0 0 0 0 0 0 0 8.242999e+01 3.769574e+02 3.386816e+02 4.415419e+01 0 0 0 0 0 0 0 0 0 -4.415419e+01 -3.386816e+02 -3.769574e+02 -8.242999e+01 0 0 0 0 0 0 0 
0 0 0 0 0 0 0 0 6.700014e+01 3.828861e+02 3.826920e+02 6.680606e+01 0 0 0 0 0 0 0 0 0 -6.680606e+01 -3.826920e+02 -3.828861e+02 -6.700014e+01 0 0 0 0 0 0 0 
0 0 0 0 0 0 0 0 4.507010e+01 3.916480e+02 4.622455e+02 1.156676e+02 0 0 0 0 0 0 0 0 0 -1.156676e+02 -4.622455e+02 -3.916480e+02 -4.507010e+01 0 0 0 0 0 0 0 
0 0 0 0 0 0 0 0 2.149848e+01 3.927780e+02 5.873480e+02 2.170117e+02 9.432562e-01 0 0 0 0 0 0 0 -9.432562e-01 -2.170117e+02 -5.873480e+02 -3.927780e+02 -2.149848e+01 0 0 0 0 0 0 0 
0 0 0 0 0 0 0 0 5.015814e+00 3.319281e+02 7.071740e+02 3.967900e+02 1.652833e+01 0 0 0 0 0 0 0 -1.652833e+01 -3.967900e+02 -7.071740e+02 -3.319281e+02 -5.015814e+00 0 0 0 0 0 0 0 
0 0 0 0 0 0 0 0 2.991888e-01 2.085035e+02 7.605416e+02 6.535963e+02 1.012590e+02 0 0 0 0 0 0 0 -1.012590e+02 -6.535963e+02 -7.605416e+02 -2.085035e+02 -2.991888e-01 0 0 0 0 0 0 0 
0 0 0 0 0 0 0 0 0 8.067359e+01 6.644842e+02 9.253231e+02 3.577394e+02 1.622682e+01 0 0 0 0 0 -1.622682e+01 -3.577394e+02 -9.253231e+02 -6.644842e+02 -8.067359e+01 0 0 0 0 0 0 0 0 
0 0 0 0 0 0 0 0 0 1.268852e+01 3.751937e+02 1.044391e+03 9.133792e+02 2.444001e+02 1.290703e+01 0 0 0 -1.290703e+01 -2.444001e+02 -9.133792e+02 -1.044391e+03 -3.751937e+02 -1.268852e+01 0 0 0 0 0 0 0 0 
0 0 0 0 0 0 0 0 0 4.212599e-01 9.667113e+01 7.127387e+02 1.281984e+03 9.444205e+02 3.367323e+02 6.455659e+01 3.904782e-13 -6.455659e+01 -3.367323e+02 -9.444205e+02 -1.281984e+03 -7.127387e+02 -9.667113e+01 -4.212599e-01 0 0 0 0 0 0 0 0 
0 0 0 0 0 0 0 0 0 0 4.323247e+00 2.067092e+02 8.088246e+02 1.230299e+03 9.619444e+02 4.402321e+02 7.326309e-12 -4.402321e+02 -9.619444e+02 -1.230299e+03 -8.088246e+02 -2.067092e+02 -4.323247e+00 0 0 0 0 0 0 0 0 0 
0 0 0 0 0 0 0 0 0 0 0 1.194452e+01 1.688008e+02 5.405312e+02 7.367579e+02 4.905341e+02 1.050479e-11 -4.905341e+02 -7.367579e+02 -5.405312e+02 -1.688008e+02 -1.194452e+01 0 0 0 0 0 0 0 0 0 0 
0 0 0 0 0 0 0 0 0 0 0 0 6.460854e-01 2.647911e+01 9.863879e+01 1.148586e+02 3.568030e-12 -1.148586e+02 -9.863879e+01 -2.647911e+01 -6.460854e-01 0 0 0 0 0 0 0 0 0 0 0 
0 0 0 0 0 0 0 0 0 0 0 0 0 0 0 0 0 0 0 0 0 0 0 0 0 0 0 0 0 0 0 0 
0 0 0 0 0 0 0 0 0 0 0 0 0 0 0 0 0 0 0 0 0 0 0 0 0 0 0 0 0 0 0 0 
