# vtk DataFile Version 2.0
Comment goes here
ASCII

DATASET STRUCTURED_POINTS
FIELD FieldData 1
TIME 1 1 double
0.04000000
DIMENSIONS    32   32   1

ORIGIN    0.000   0.000   0.000
SPACING   0.03125 0.03125   1.000

POINT_DATA   1024
SCALARS fY double
LOOKUP_TABLE default

0 0 0 0 0 0 0 0 0 0 0 0 0 0 0 0 0 0 0 0 0 0 0 0 0 0 0 0 0 0 0 0 
0 0 0 0 0 0 0 0 0 0 0 0 0 0 0 0 0 0 0 0 0 0 0 0 0 0 0 0 0 0 0 0 
0 0 0 0 0 0 0 0 0 0 0 0 0 0 0 0 0 0 0 0 0 0 0 0 0 0 0 0 0 0 0 0 
0 0 0 0 0 0 0 0 0 0 0 0 0 0 0 0 0 0 0 0 0 0 0 0 0 0 0 0 0 0 0 0 
0 0 0 0 0 0 0 0 0 0 0 0 0 0 0 0 0 0 0 0 0 0 0 0 0 0 0 0 0 0 0 0 
0 0 0 0 0 0 0 0 0 0 0 0 7.231294e-03 1.011377e+00 8.617663e+00 2.200422e+01 2.878140e+01 2.200422e+01 8.617663e+00 1.011377e+00 7.231294e-03 0 0 0 0 0 0 0 0 0 0 0 
0 0 0 0 0 0 0 0 0 0 4.260068e+00 6.572815e+01 2.274596e+02 4.343561e+02 5.948124e+02 6.565035e+02 6.601113e+02 6.565035e+02 5.948124e+02 4.343561e+02 2.274596e+02 6.572815e+01 4.260068e+00 0 0 0 0 0 0 0 0 0 
0 0 0 0 0 0 0 0 1.217410e-01 3.146819e+01 2.647691e+02 7.262791e+02 1.052562e+03 1.117775e+03 1.088461e+03 1.010509e+03 9.602364e+02 1.010509e+03 1.088461e+03 1.117775e+03 1.052562e+03 7.262791e+02 2.647691e+02 3.146819e+01 1.217410e-01 0 0 0 0 0 0 0 
0 0 0 0 0 0 0 0 2.615012e+01 3.438207e+02 9.687044e+02 1.269363e+03 1.053002e+03 7.296640e+02 5.065479e+02 3.760098e+02 3.289065e+02 3.760098e+02 5.065479e+02 7.296640e+02 1.053002e+03 1.269363e+03 9.687044e+02 3.438207e+02 2.615012e+01 0 0 0 0 0 0 0 
0 0 0 0 0 0 0 2.186218e+00 1.585939e+02 7.637608e+02 1.120525e+03 7.036182e+02 2.313980e+02 4.523370e+01 4.282043e+00 0 0 0 4.282043e+00 4.523370e+01 2.313980e+02 7.036182e+02 1.120525e+03 7.637608e+02 1.585939e+02 2.186218e+00 0 0 0 0 0 0 
0 0 0 0 0 0 0 1.577510e+01 3.031465e+02 7.075869e+02 5.135287e+02 9.681829e+01 3.505100e+00 0 0 0 0 0 0 0 3.505100e+00 9.681829e+01 5.135287e+02 7.075869e+02 3.031465e+02 1.577510e+01 0 0 0 0 0 0 
0 0 0 0 0 0 -5.065145e-06 3.143964e+01 2.540925e+02 3.346737e+02 1.140333e+02 2.012493e+00 0 0 0 0 0 0 0 0 0 2.012493e+00 1.140333e+02 3.346737e+02 2.540925e+02 3.143964e+01 -5.065145e-06 0 0 0 0 0 
0 0 0 0 0 0 -1.054580e-02 2.229919e+01 9.725231e+01 8.827718e+01 1.333461e+01 0 0 0 0 0 0 0 0 0 0 0 1.333461e+01 8.827718e+01 9.725231e+01 2.229919e+01 -1.054580e-02 0 0 0 0 0 
0 0 0 0 0 0 -1.857273e-01 2.995381e-01 7.609530e+00 7.624596e+00 5.003318e-01 0 0 0 0 0 0 0 0 0 0 0 5.003318e-01 7.624596e+00 7.609530e+00 2.995381e-01 -1.857273e-01 0 0 0 0 0 
0 0 0 0 0 0 -8.581744e-01 -1.434063e+01 -1.977878e+01 -6.296325e+00 0 0 0 0 0 0 0 0 0 0 0 0 0 -6.296325e+00 -1.977878e+01 -1.434063e+01 -8.581744e-01 0 0 0 0 0 
0 0 0 0 0 0 -1.278263e+00 -1.767389e+01 -2.324282e+01 -6.847187e+00 0 0 0 0 0 0 0 0 0 0 0 0 0 -6.847187e+00 -2.324282e+01 -1.767389e+01 -1.278263e+00 0 0 0 0 0 
0 0 0 0 0 0 1.269401e-13 -1.336153e-12 -2.589693e-12 -1.125460e-12 0 0 0 0 0 0 0 0 0 0 0 0 0 -1.246614e-12 -4.025505e-12 -2.963003e-12 -1.827953e-13 0 0 0 0 0 
0 0 0 0 0 0 1.278263e+00 1.767389e+01 2.324282e+01 6.847187e+00 0 0 0 0 0 0 0 0 0 0 0 0 0 6.847187e+00 2.324282e+01 1.767389e+01 1.278263e+00 0 0 0 0 0 
0 0 0 0 0 0 8.581744e-01 1.434063e+01 1.977878e+01 6.296325e+00 0 0 0 0 0 0 0 0 0 0 0 0 0 6.296325e+00 1.977878e+01 1.434063e+01 8.581744e-01 0 0 0 0 0 
0 0 0 0 0 0 1.857273e-01 -2.995381e-01 -7.609530e+00 -7.624596e+00 -5.003318e-01 0 0 0 0 0 0 0 0 0 0 0 -5.003318e-01 -7.624596e+00 -7.609530e+00 -2.995381e-01 1.857273e-01 0 0 0 0 0 
0 0 0 0 0 0 1.054580e-02 -2.229919e+01 -9.725231e+01 -8.827718e+01 -1.333461e+01 0 0 0 0 0 0 0 0 0 0 0 -1.333461e+01 -8.827718e+01 -9.725231e+01 -2.229919e+01 1.054580e-02 0 0 0 0 0 
0 0 0 0 0 0 5.065145e-06 -3.143964e+01 -2.540925e+02 -3.346737e+02 -1.140333e+02 -2.012493e+00 0 0 0 0 0 0 0 0 0 -2.012493e+00 -1.140333e+02 -3.346737e+02 -2.540925e+02 -3.143964e+01 5.065145e-06 0 0 0 0 0 
0 0 0 0 0 0 0 -1.577510e+01 -3.031465e+02 -7.075869e+02 -5.135287e+02 -9.681829e+01 -3.505100e+00 0 0 0 0 0 0 0 -3.505100e+00 -9.681829e+01 -5.135287e+02 -7.075869e+02 -3.031465e+02 -1.577510e+01 0 0 0 0 0 0 
0 0 0 0 0 0 0 -2.186218e+00 -1.585939e+02 -7.637608e+02 -1.120525e+03 -7.036182e+02 -2.313980e+02 -4.523370e+01 -4.282043e+00 0 0 0 -4.282043e+00 -4.523370e+01 -2.313980e+02 -7.036182e+02 -1.120525e+03 -7.637608e+02 -1.585939e+02 -2.186218e+00 0 0 0 0 0 0 
0 0 0 0 0 0 0 0 -2.615012e+01 -3.438207e+02 -9.687044e+02 -1.269363e+03 -1.053002e+03 -7.296640e+02 -5.065479e+02 -3.760098e+02 -3.289065e+02 -3.760098e+02 -5.065479e+02 -7.296640e+02 -1.053002e+03 -1.269363e+03 -9.687044e+02 -3.438207e+02 -2.615012e+01 0 0 0 0 0 0 0 
0 0 0 0 0 0 0 0 -1.217410e-01 -3.146819e+01 -2.647691e+02 -7.262791e+02 -1.052562e+03 -1.117775e+03 -1.088461e+03 -1.010509e+03 -9.602364e+02 -1.010509e+03 -1.088461e+03 -1.117775e+03 -1.052562e+03 -7.262791e+02 -2.647691e+02 -3.146819e+01 -1.217410e-01 0 0 0 0 0 0 0 
0 0 0 0 0 0 0 0 0 0 -4.260068e+00 -6.572815e+01 -2.274596e+02 -4.343561e+02 -5.948124e+02 -6.565035e+02 -6.601113e+02 -6.565035e+02 -5.948124e+02 -4.343561e+02 -2.274596e+02 -6.572815e+01 -4.260068e+00 0 0 0 0 0 0 0 0 0 
0 0 0 0 0 0 0 0 0 0 0 0 -7.231294e-03 -1.011377e+00 -8.617663e+00 -2.200422e+01 -2.878140e+01 -2.200422e+01 -8.617663e+00 -1.011377e+00 -7.231294e-03 0 0 0 0 0 0 0 0 0 0 0 
0 0 0 0 0 0 0 0 0 0 0 0 0 0 0 0 0 0 0 0 0 0 0 0 0 0 0 0 0 0 0 0 
0 0 0 0 0 0 0 0 0 0 0 0 0 0 0 0 0 0 0 0 0 0 0 0 0 0 0 0 0 0 0 0 
0 0 0 0 0 0 0 0 0 0 0 0 0 0 0 0 0 0 0 0 0 0 0 0 0 0 0 0 0 0 0 0 
0 0 0 0 0 0 0 0 0 0 0 0 0 0 0 0 0 0 0 0 0 0 0 0 0 0 0 0 0 0 0 0 
