# vtk DataFile Version 2.0
Comment goes here
ASCII

DATASET STRUCTURED_POINTS
FIELD FieldData 1
TIME 1 1 double
0.10000000
DIMENSIONS    32   32   1

ORIGIN    0.000   0.000   0.000
SPACING   0.03125 0.03125   1.000

POINT_DATA   1024
SCALARS fY double
LOOKUP_TABLE default

0 0 0 0 0 0 0 0 0 0 0 0 0 0 0 0 0 0 0 0 0 0 0 0 0 0 0 0 0 0 0 0 
0 0 0 0 0 0 0 0 0 0 0 0 0 0 0 0 0 0 0 0 0 0 0 0 0 0 0 0 0 0 0 0 
0 0 0 0 0 0 0 0 0 0 0 0 0 0 0 0 0 0 0 0 0 0 0 0 0 0 0 0 0 0 0 0 
0 0 0 0 0 0 0 0 0 0 0 0 0 0 0 0 0 0 0 0 0 0 0 0 0 0 0 0 0 0 0 0 
0 0 0 0 0 0 0 0 0 0 0 0 0 0 0 0 0 0 0 0 0 0 0 0 0 0 0 0 0 0 0 0 
0 0 0 0 0 0 0 0 0 0 0 0 0 0 0 0 0 0 0 0 0 0 0 0 0 0 0 0 0 0 0 0 
0 0 0 0 0 0 0 0 0 0 0 0 0 0 0 0 0 0 0 0 0 0 0 0 0 0 0 0 0 0 0 0 
0 0 0 0 0 0 0 0 0 0 0 0 0 2.116485e-02 8.515017e-01 3.369924e+00 5.079173e+00 3.369924e+00 8.515017e-01 2.116485e-02 0 0 0 0 0 0 0 0 0 0 0 0 
0 0 0 0 0 0 0 0 0 1.590390e+00 1.654521e+01 6.103493e+01 1.559097e+02 3.184148e+02 4.368112e+02 4.797749e+02 5.030978e+02 4.797749e+02 4.368112e+02 3.184148e+02 1.559097e+02 6.103493e+01 1.654521e+01 1.590390e+00 0 0 0 0 0 0 0 0 
0 0 0 0 0 0 9.377336e-03 2.446930e+00 3.617962e+01 1.790383e+02 3.640996e+02 4.642973e+02 5.907263e+02 8.223441e+02 9.156424e+02 8.740825e+02 8.711038e+02 8.740825e+02 9.156424e+02 8.223441e+02 5.907263e+02 4.642973e+02 3.640996e+02 1.790383e+02 3.617962e+01 2.446930e+00 9.377336e-03 0 0 0 0 0 
0 0 0 0 0 8.605992e-02 1.907780e+01 1.529275e+02 3.463801e+02 5.572899e+02 6.662752e+02 5.642638e+02 4.951683e+02 5.246870e+02 4.837764e+02 3.979661e+02 3.730852e+02 3.979661e+02 4.837764e+02 5.246870e+02 4.951683e+02 5.642638e+02 6.662752e+02 5.572899e+02 3.463801e+02 1.529275e+02 1.907780e+01 8.605992e-02 0 0 0 0 
0 0 0 0 1.091803e-01 3.768475e+01 1.792950e+02 4.577815e+02 5.677993e+02 4.620849e+02 3.284755e+02 1.615483e+02 6.035176e+01 2.073654e+01 4.093659e+00 2.884919e-01 0 2.884919e-01 4.093659e+00 2.073654e+01 6.035176e+01 1.615483e+02 3.284755e+02 4.620849e+02 5.677993e+02 4.577815e+02 1.792950e+02 3.768475e+01 1.091803e-01 0 0 0 
0 0 0 0 2.540270e+01 2.882008e+02 5.423368e+02 4.845394e+02 2.785796e+02 8.278672e+01 9.754672e+00 5.467942e-01 0 0 0 0 0 0 0 0 0 5.467942e-01 9.754672e+00 8.278672e+01 2.785796e+02 4.845394e+02 5.423368e+02 2.882008e+02 2.540270e+01 0 0 0 
0 0 0 5.635256e-01 1.407551e+02 6.124638e+02 6.703589e+02 2.185235e+02 2.098069e+01 5.438209e-01 0 0 0 0 0 0 0 0 0 0 0 0 0 5.438209e-01 2.098069e+01 2.185235e+02 6.703589e+02 6.124638e+02 1.407551e+02 5.635256e-01 0 0 
0 0 0 7.864941e+00 2.647339e+02 6.010005e+02 3.861733e+02 4.204183e+01 0 0 0 0 0 0 0 0 0 0 0 0 0 0 0 0 0 4.204183e+01 3.861733e+02 6.010005e+02 2.647339e+02 7.864941e+00 0 0 
0 0 0 1.703146e+01 2.580963e+02 3.751960e+02 1.348880e+02 7.568054e-01 0 0 0 0 0 0 0 0 0 0 0 0 0 0 0 0 0 7.568054e-01 1.348880e+02 3.751960e+02 2.580963e+02 1.703146e+01 0 0 
0 0 0 5.417880e-12 2.870794e-11 2.594145e-11 2.692069e-12 0 0 0 0 0 0 0 0 0 0 0 0 0 0 0 0 0 0 0 -4.032842e-12 -2.547758e-11 -2.561173e-11 -4.145684e-12 0 0 
0 0 0 -1.703146e+01 -2.580963e+02 -3.751960e+02 -1.348880e+02 -7.568054e-01 0 0 0 0 0 0 0 0 0 0 0 0 0 0 0 0 0 -7.568054e-01 -1.348880e+02 -3.751960e+02 -2.580963e+02 -1.703146e+01 0 0 
0 0 0 -7.864941e+00 -2.647339e+02 -6.010005e+02 -3.861733e+02 -4.204183e+01 0 0 0 0 0 0 0 0 0 0 0 0 0 0 0 0 0 -4.204183e+01 -3.861733e+02 -6.010005e+02 -2.647339e+02 -7.864941e+00 0 0 
0 0 0 -5.635256e-01 -1.407551e+02 -6.124638e+02 -6.703589e+02 -2.185235e+02 -2.098069e+01 -5.438209e-01 0 0 0 0 0 0 0 0 0 0 0 0 0 -5.438209e-01 -2.098069e+01 -2.185235e+02 -6.703589e+02 -6.124638e+02 -1.407551e+02 -5.635256e-01 0 0 
0 0 0 0 -2.540270e+01 -2.882008e+02 -5.423368e+02 -4.845394e+02 -2.785796e+02 -8.278672e+01 -9.754672e+00 -5.467942e-01 0 0 0 0 0 0 0 0 0 -5.467942e-01 -9.754672e+00 -8.278672e+01 -2.785796e+02 -4.845394e+02 -5.423368e+02 -2.882008e+02 -2.540270e+01 0 0 0 
0 0 0 0 -1.091803e-01 -3.768475e+01 -1.792950e+02 -4.577815e+02 -5.677993e+02 -4.620849e+02 -3.284755e+02 -1.615483e+02 -6.035176e+01 -2.073654e+01 -4.093659e+00 -2.884919e-01 0 -2.884919e-01 -4.093659e+00 -2.073654e+01 -6.035176e+01 -1.615483e+02 -3.284755e+02 -4.620849e+02 -5.677993e+02 -4.577815e+02 -1.792950e+02 -3.768475e+01 -1.091803e-01 0 0 0 
0 0 0 0 0 -8.605992e-02 -1.907780e+01 -1.529275e+02 -3.463801e+02 -5.572899e+02 -6.662752e+02 -5.642638e+02 -4.951683e+02 -5.246870e+02 -4.837764e+02 -3.979661e+02 -3.730852e+02 -3.979661e+02 -4.837764e+02 -5.246870e+02 -4.951683e+02 -5.642638e+02 -6.662752e+02 -5.572899e+02 -3.463801e+02 -1.529275e+02 -1.907780e+01 -8.605992e-02 0 0 0 0 
0 0 0 0 0 0 -9.377336e-03 -2.446930e+00 -3.617962e+01 -1.790383e+02 -3.640996e+02 -4.642973e+02 -5.907263e+02 -8.223441e+02 -9.156424e+02 -8.740825e+02 -8.711038e+02 -8.740825e+02 -9.156424e+02 -8.223441e+02 -5.907263e+02 -4.642973e+02 -3.640996e+02 -1.790383e+02 -3.617962e+01 -2.446930e+00 -9.377336e-03 0 0 0 0 0 
0 0 0 0 0 0 0 0 0 -1.590390e+00 -1.654521e+01 -6.103493e+01 -1.559097e+02 -3.184148e+02 -4.368112e+02 -4.797749e+02 -5.030978e+02 -4.797749e+02 -4.368112e+02 -3.184148e+02 -1.559097e+02 -6.103493e+01 -1.654521e+01 -1.590390e+00 0 0 0 0 0 0 0 0 
0 0 0 0 0 0 0 0 0 0 0 0 0 -2.116485e-02 -8.515017e-01 -3.369924e+00 -5.079173e+00 -3.369924e+00 -8.515017e-01 -2.116485e-02 0 0 0 0 0 0 0 0 0 0 0 0 
0 0 0 0 0 0 0 0 0 0 0 0 0 0 0 0 0 0 0 0 0 0 0 0 0 0 0 0 0 0 0 0 
0 0 0 0 0 0 0 0 0 0 0 0 0 0 0 0 0 0 0 0 0 0 0 0 0 0 0 0 0 0 0 0 
0 0 0 0 0 0 0 0 0 0 0 0 0 0 0 0 0 0 0 0 0 0 0 0 0 0 0 0 0 0 0 0 
0 0 0 0 0 0 0 0 0 0 0 0 0 0 0 0 0 0 0 0 0 0 0 0 0 0 0 0 0 0 0 0 
0 0 0 0 0 0 0 0 0 0 0 0 0 0 0 0 0 0 0 0 0 0 0 0 0 0 0 0 0 0 0 0 
0 0 0 0 0 0 0 0 0 0 0 0 0 0 0 0 0 0 0 0 0 0 0 0 0 0 0 0 0 0 0 0 
