# vtk DataFile Version 2.0
Comment goes here
ASCII

DATASET STRUCTURED_POINTS
FIELD FieldData 1
TIME 1 1 double
0.62000000
DIMENSIONS    32   32   1

ORIGIN    0.000   0.000   0.000
SPACING   0.03125 0.03125   1.000

POINT_DATA   1024
SCALARS fY double
LOOKUP_TABLE default

0 0 0 0 0 0 0 0 0 0 0 0 0 0 0 0 0 0 0 0 0 0 0 0 0 0 0 0 0 0 0 0 
0 0 0 0 0 0 0 0 0 0 0 0 0 0 0 0 0 0 0 0 0 0 0 0 0 0 0 0 0 0 0 0 
0 0 0 0 0 0 0 0 0 0 0 0 0 0 0 0 0 0 0 0 0 0 0 0 0 0 0 0 0 0 0 0 
0 0 0 0 0 0 0 0 0 0 0 0 0 0 0 0 0 0 0 0 0 0 0 0 0 0 0 0 0 0 0 0 
0 0 0 0 0 0 0 0 0 0 0 0 0 0 0 0 0 0 0 0 0 0 0 0 0 0 0 0 0 0 0 0 
0 0 0 0 0 0 0 0 0 0 0 0 0 1.509917e-01 4.817126e+00 2.227906e+01 3.522584e+01 2.227906e+01 4.817126e+00 1.509917e-01 0 0 0 0 0 0 0 0 0 0 0 0 
0 0 0 0 0 0 0 0 0 0 0 1.922726e+00 5.417343e+01 2.435682e+02 5.223455e+02 7.367776e+02 8.114992e+02 7.367776e+02 5.223455e+02 2.435682e+02 5.417343e+01 1.922726e+00 0 0 0 0 0 0 0 0 0 0 
0 0 0 0 0 0 0 0 0 0 1.095952e+01 1.645697e+02 5.621135e+02 9.664932e+02 1.162712e+03 1.199703e+03 1.189962e+03 1.199703e+03 1.162712e+03 9.664932e+02 5.621135e+02 1.645697e+02 1.095952e+01 0 0 0 0 0 0 0 0 0 
0 0 0 0 0 0 0 0 0 1.306898e+01 1.947942e+02 6.358660e+02 9.889114e+02 9.347104e+02 6.808582e+02 4.877628e+02 4.136886e+02 4.877628e+02 6.808582e+02 9.347104e+02 9.889114e+02 6.358660e+02 1.947942e+02 1.306898e+01 0 0 0 0 0 0 0 0 
0 0 0 0 0 0 0 0 2.972867e+00 1.279428e+02 5.702119e+02 8.392750e+02 5.765155e+02 2.155988e+02 3.567437e+01 2.558029e+00 0 2.558029e+00 3.567437e+01 2.155988e+02 5.765155e+02 8.392750e+02 5.702119e+02 1.279428e+02 2.972867e+00 0 0 0 0 0 0 0 
0 0 0 0 0 0 0 8.338600e-07 3.045610e+01 3.371620e+02 6.864135e+02 4.741894e+02 9.844614e+01 3.964400e+00 0 0 0 0 0 3.964400e+00 9.844614e+01 4.741894e+02 6.864135e+02 3.371620e+02 3.045610e+01 8.338600e-07 0 0 0 0 0 0 
0 0 0 0 0 0 0 2.454200e-01 1.453355e+02 5.013560e+02 4.727943e+02 1.194305e+02 2.902085e+00 0 0 0 0 0 0 0 2.902085e+00 1.194305e+02 4.727943e+02 5.013560e+02 1.453355e+02 2.454200e-01 0 0 0 0 0 0 
0 0 0 0 0 0 0 5.800894e+00 2.108784e+02 4.277851e+02 2.340217e+02 1.131417e+01 0 0 0 0 0 0 0 0 0 1.131417e+01 2.340217e+02 4.277851e+02 2.108784e+02 5.800894e+00 0 0 0 0 0 0 
0 0 0 0 0 0 0 1.788885e+01 1.705262e+02 2.285423e+02 7.592202e+01 1.707550e-02 0 0 0 0 0 0 0 0 0 1.707550e-02 7.592202e+01 2.285423e+02 1.705262e+02 1.788885e+01 0 0 0 0 0 0 
0 0 0 0 0 0 0 2.171645e+01 1.077336e+02 1.025455e+02 1.652834e+01 0 0 0 0 0 0 0 0 0 0 0 1.652834e+01 1.025455e+02 1.077336e+02 2.171645e+01 0 0 0 0 0 0 
0 0 0 0 0 0 0 3.157228e+01 9.865857e+01 7.153224e+01 4.445944e+00 0 0 0 0 0 0 0 0 0 0 0 4.445944e+00 7.153224e+01 9.865857e+01 3.157228e+01 0 0 0 0 0 0 
0 0 0 0 0 0 0 6.180723e-12 1.495426e-11 8.738101e-12 -2.782041e-14 0 0 0 0 0 0 0 0 0 0 0 4.255069e-12 3.124434e-11 2.854226e-11 1.551520e-12 0 0 0 0 0 0 
0 0 0 0 0 0 0 -3.157228e+01 -9.865857e+01 -7.153224e+01 -4.445944e+00 0 0 0 0 0 0 0 0 0 0 0 -4.445944e+00 -7.153224e+01 -9.865857e+01 -3.157228e+01 0 0 0 0 0 0 
0 0 0 0 0 0 0 -2.171645e+01 -1.077336e+02 -1.025455e+02 -1.652834e+01 0 0 0 0 0 0 0 0 0 0 0 -1.652834e+01 -1.025455e+02 -1.077336e+02 -2.171645e+01 0 0 0 0 0 0 
0 0 0 0 0 0 0 -1.788885e+01 -1.705262e+02 -2.285423e+02 -7.592202e+01 -1.707550e-02 0 0 0 0 0 0 0 0 0 -1.707550e-02 -7.592202e+01 -2.285423e+02 -1.705262e+02 -1.788885e+01 0 0 0 0 0 0 
0 0 0 0 0 0 0 -5.800894e+00 -2.108784e+02 -4.277851e+02 -2.340217e+02 -1.131417e+01 0 0 0 0 0 0 0 0 0 -1.131417e+01 -2.340217e+02 -4.277851e+02 -2.108784e+02 -5.800894e+00 0 0 0 0 0 0 
0 0 0 0 0 0 0 -2.454200e-01 -1.453355e+02 -5.013560e+02 -4.727943e+02 -1.194305e+02 -2.902085e+00 0 0 0 0 0 0 0 -2.902085e+00 -1.194305e+02 -4.727943e+02 -5.013560e+02 -1.453355e+02 -2.454200e-01 0 0 0 0 0 0 
0 0 0 0 0 0 0 -8.338600e-07 -3.045610e+01 -3.371620e+02 -6.864135e+02 -4.741894e+02 -9.844614e+01 -3.964400e+00 0 0 0 0 0 -3.964400e+00 -9.844614e+01 -4.741894e+02 -6.864135e+02 -3.371620e+02 -3.045610e+01 -8.338600e-07 0 0 0 0 0 0 
0 0 0 0 0 0 0 0 -2.972867e+00 -1.279428e+02 -5.702119e+02 -8.392750e+02 -5.765155e+02 -2.155988e+02 -3.567437e+01 -2.558029e+00 0 -2.558029e+00 -3.567437e+01 -2.155988e+02 -5.765155e+02 -8.392750e+02 -5.702119e+02 -1.279428e+02 -2.972867e+00 0 0 0 0 0 0 0 
0 0 0 0 0 0 0 0 0 -1.306898e+01 -1.947942e+02 -6.358660e+02 -9.889114e+02 -9.347104e+02 -6.808582e+02 -4.877628e+02 -4.136886e+02 -4.877628e+02 -6.808582e+02 -9.347104e+02 -9.889114e+02 -6.358660e+02 -1.947942e+02 -1.306898e+01 0 0 0 0 0 0 0 0 
0 0 0 0 0 0 0 0 0 0 -1.095952e+01 -1.645697e+02 -5.621135e+02 -9.664932e+02 -1.162712e+03 -1.199703e+03 -1.189962e+03 -1.199703e+03 -1.162712e+03 -9.664932e+02 -5.621135e+02 -1.645697e+02 -1.095952e+01 0 0 0 0 0 0 0 0 0 
0 0 0 0 0 0 0 0 0 0 0 -1.922726e+00 -5.417343e+01 -2.435682e+02 -5.223455e+02 -7.367776e+02 -8.114992e+02 -7.367776e+02 -5.223455e+02 -2.435682e+02 -5.417343e+01 -1.922726e+00 0 0 0 0 0 0 0 0 0 0 
0 0 0 0 0 0 0 0 0 0 0 0 0 -1.509917e-01 -4.817126e+00 -2.227906e+01 -3.522584e+01 -2.227906e+01 -4.817126e+00 -1.509917e-01 0 0 0 0 0 0 0 0 0 0 0 0 
0 0 0 0 0 0 0 0 0 0 0 0 0 0 0 0 0 0 0 0 0 0 0 0 0 0 0 0 0 0 0 0 
0 0 0 0 0 0 0 0 0 0 0 0 0 0 0 0 0 0 0 0 0 0 0 0 0 0 0 0 0 0 0 0 
0 0 0 0 0 0 0 0 0 0 0 0 0 0 0 0 0 0 0 0 0 0 0 0 0 0 0 0 0 0 0 0 
0 0 0 0 0 0 0 0 0 0 0 0 0 0 0 0 0 0 0 0 0 0 0 0 0 0 0 0 0 0 0 0 
