# vtk DataFile Version 2.0
Comment goes here
ASCII

DATASET STRUCTURED_POINTS
FIELD FieldData 1
TIME 1 1 double
0.44000000
DIMENSIONS    32   32   1

ORIGIN    0.000   0.000   0.000
SPACING   0.03125 0.03125   1.000

POINT_DATA   1024
SCALARS fY double
LOOKUP_TABLE default

0 0 0 0 0 0 0 0 0 0 0 0 0 0 0 0 0 0 0 0 0 0 0 0 0 0 0 0 0 0 0 0 
0 0 0 0 0 0 0 0 0 0 0 0 0 0 0 0 0 0 0 0 0 0 0 0 0 0 0 0 0 0 0 0 
0 0 0 0 0 0 0 0 0 0 0 0 0 0 0 0 0 0 0 0 0 0 0 0 0 0 0 0 0 0 0 0 
0 0 0 0 0 0 0 0 0 0 0 0 0 0 0 0 0 0 0 0 0 0 0 0 0 0 0 0 0 0 0 0 
0 0 0 0 0 0 0 0 0 0 0 0 0 0 0 0 0 0 0 0 0 0 0 0 0 0 0 0 0 0 0 0 
0 0 0 0 0 0 0 0 0 0 0 0 0 0 0 0 0 0 0 0 0 0 0 0 0 0 0 0 0 0 0 0 
0 0 0 0 0 0 0 0 0 0 0 0 0 1.423130e+00 9.103451e+00 2.192388e+01 2.848711e+01 2.192388e+01 9.103451e+00 1.423130e+00 0 0 0 0 0 0 0 0 0 0 0 0 
0 0 0 0 0 0 0 0 0 7.550000e-04 2.522759e+00 4.482876e+01 1.576104e+02 3.218954e+02 4.772621e+02 5.408491e+02 5.403575e+02 5.408491e+02 4.772621e+02 3.218954e+02 1.576104e+02 4.482876e+01 2.522759e+00 7.550000e-04 0 0 0 0 0 0 0 0 
0 0 0 0 0 0 0 0 3.609796e-01 2.666413e+01 1.841457e+02 5.060943e+02 7.549330e+02 8.390442e+02 8.624545e+02 8.100004e+02 7.598178e+02 8.100004e+02 8.624545e+02 8.390442e+02 7.549330e+02 5.060943e+02 1.841457e+02 2.666413e+01 3.609796e-01 0 0 0 0 0 0 0 
0 0 0 0 0 0 0 1.728144e-01 5.808783e+01 3.394789e+02 7.267698e+02 8.823856e+02 7.647108e+02 5.585221e+02 3.981628e+02 2.911455e+02 2.479474e+02 2.911455e+02 3.981628e+02 5.585221e+02 7.647108e+02 8.823856e+02 7.267698e+02 3.394789e+02 5.808783e+01 1.728144e-01 0 0 0 0 0 0 
0 0 0 0 0 0 3.593865e-02 2.916953e+01 3.362177e+02 8.060204e+02 8.384253e+02 4.721049e+02 1.687692e+02 3.995014e+01 3.866996e+00 7.026693e-02 0 7.026693e-02 3.866996e+00 3.995014e+01 1.687692e+02 4.721049e+02 8.384253e+02 8.060204e+02 3.362177e+02 2.916953e+01 3.593865e-02 0 0 0 0 0 
0 0 0 0 0 0 3.606147e+00 2.078313e+02 7.085921e+02 7.887955e+02 3.340323e+02 5.098483e+01 1.381106e+00 0 0 0 0 0 0 0 1.381106e+00 5.098483e+01 3.340323e+02 7.887955e+02 7.085921e+02 2.078313e+02 3.606147e+00 0 0 0 0 0 
0 0 0 0 0 0 3.786674e+01 4.093690e+02 7.054704e+02 3.750857e+02 4.111758e+01 0 0 0 0 0 0 0 0 0 0 0 4.111758e+01 3.750857e+02 7.054704e+02 4.093690e+02 3.786674e+01 0 0 0 0 0 
0 0 0 0 0 0 1.069298e+02 4.542498e+02 4.383010e+02 9.134473e+01 3.637690e-01 0 0 0 0 0 0 0 0 0 0 0 3.637690e-01 9.134473e+01 4.383010e+02 4.542498e+02 1.069298e+02 0 0 0 0 0 
0 0 0 0 0 5.652044e-01 1.402363e+02 3.554954e+02 2.285119e+02 1.268755e+01 0 0 0 0 0 0 0 0 0 0 0 0 0 1.268755e+01 2.285119e+02 3.554954e+02 1.402363e+02 5.652044e-01 0 0 0 0 
0 0 0 0 0 1.385558e+00 1.159154e+02 2.117557e+02 9.806371e+01 8.378862e-01 0 0 0 0 0 0 0 0 0 0 0 0 0 8.378862e-01 9.806371e+01 2.117557e+02 1.159154e+02 1.385558e+00 0 0 0 0 
0 0 0 0 0 2.886608e-12 2.141465e-11 1.595613e-11 -2.571589e-12 1.140852e-19 0 0 0 0 0 0 0 0 0 0 0 0 0 -1.048799e-19 1.317732e-11 1.481682e-11 -4.230733e-13 -2.046926e-12 0 0 0 0 
0 0 0 0 0 -1.385558e+00 -1.159154e+02 -2.117557e+02 -9.806371e+01 -8.378862e-01 0 0 0 0 0 0 0 0 0 0 0 0 0 -8.378862e-01 -9.806371e+01 -2.117557e+02 -1.159154e+02 -1.385558e+00 0 0 0 0 
0 0 0 0 0 -5.652044e-01 -1.402363e+02 -3.554954e+02 -2.285119e+02 -1.268755e+01 0 0 0 0 0 0 0 0 0 0 0 0 0 -1.268755e+01 -2.285119e+02 -3.554954e+02 -1.402363e+02 -5.652044e-01 0 0 0 0 
0 0 0 0 0 0 -1.069298e+02 -4.542498e+02 -4.383010e+02 -9.134473e+01 -3.637690e-01 0 0 0 0 0 0 0 0 0 0 0 -3.637690e-01 -9.134473e+01 -4.383010e+02 -4.542498e+02 -1.069298e+02 0 0 0 0 0 
0 0 0 0 0 0 -3.786674e+01 -4.093690e+02 -7.054704e+02 -3.750857e+02 -4.111758e+01 0 0 0 0 0 0 0 0 0 0 0 -4.111758e+01 -3.750857e+02 -7.054704e+02 -4.093690e+02 -3.786674e+01 0 0 0 0 0 
0 0 0 0 0 0 -3.606147e+00 -2.078313e+02 -7.085921e+02 -7.887955e+02 -3.340323e+02 -5.098483e+01 -1.381106e+00 0 0 0 0 0 0 0 -1.381106e+00 -5.098483e+01 -3.340323e+02 -7.887955e+02 -7.085921e+02 -2.078313e+02 -3.606147e+00 0 0 0 0 0 
0 0 0 0 0 0 -3.593865e-02 -2.916953e+01 -3.362177e+02 -8.060204e+02 -8.384253e+02 -4.721049e+02 -1.687692e+02 -3.995014e+01 -3.866996e+00 -7.026693e-02 0 -7.026693e-02 -3.866996e+00 -3.995014e+01 -1.687692e+02 -4.721049e+02 -8.384253e+02 -8.060204e+02 -3.362177e+02 -2.916953e+01 -3.593865e-02 0 0 0 0 0 
0 0 0 0 0 0 0 -1.728144e-01 -5.808783e+01 -3.394789e+02 -7.267698e+02 -8.823856e+02 -7.647108e+02 -5.585221e+02 -3.981628e+02 -2.911455e+02 -2.479474e+02 -2.911455e+02 -3.981628e+02 -5.585221e+02 -7.647108e+02 -8.823856e+02 -7.267698e+02 -3.394789e+02 -5.808783e+01 -1.728144e-01 0 0 0 0 0 0 
0 0 0 0 0 0 0 0 -3.609796e-01 -2.666413e+01 -1.841457e+02 -5.060943e+02 -7.549330e+02 -8.390442e+02 -8.624545e+02 -8.100004e+02 -7.598178e+02 -8.100004e+02 -8.624545e+02 -8.390442e+02 -7.549330e+02 -5.060943e+02 -1.841457e+02 -2.666413e+01 -3.609796e-01 0 0 0 0 0 0 0 
0 0 0 0 0 0 0 0 0 -7.550000e-04 -2.522759e+00 -4.482876e+01 -1.576104e+02 -3.218954e+02 -4.772621e+02 -5.408491e+02 -5.403575e+02 -5.408491e+02 -4.772621e+02 -3.218954e+02 -1.576104e+02 -4.482876e+01 -2.522759e+00 -7.550000e-04 0 0 0 0 0 0 0 0 
0 0 0 0 0 0 0 0 0 0 0 0 0 -1.423130e+00 -9.103451e+00 -2.192388e+01 -2.848711e+01 -2.192388e+01 -9.103451e+00 -1.423130e+00 0 0 0 0 0 0 0 0 0 0 0 0 
0 0 0 0 0 0 0 0 0 0 0 0 0 0 0 0 0 0 0 0 0 0 0 0 0 0 0 0 0 0 0 0 
0 0 0 0 0 0 0 0 0 0 0 0 0 0 0 0 0 0 0 0 0 0 0 0 0 0 0 0 0 0 0 0 
0 0 0 0 0 0 0 0 0 0 0 0 0 0 0 0 0 0 0 0 0 0 0 0 0 0 0 0 0 0 0 0 
0 0 0 0 0 0 0 0 0 0 0 0 0 0 0 0 0 0 0 0 0 0 0 0 0 0 0 0 0 0 0 0 
0 0 0 0 0 0 0 0 0 0 0 0 0 0 0 0 0 0 0 0 0 0 0 0 0 0 0 0 0 0 0 0 
