# vtk DataFile Version 2.0
Comment goes here
ASCII

DATASET STRUCTURED_POINTS
FIELD FieldData 1
TIME 1 1 double
1.10000000
DIMENSIONS    32   32   1

ORIGIN    0.000   0.000   0.000
SPACING   0.03125 0.03125   1.000

POINT_DATA   1024
SCALARS fY double
LOOKUP_TABLE default

0 0 0 0 0 0 0 0 0 0 0 0 0 0 0 0 0 0 0 0 0 0 0 0 0 0 0 0 0 0 0 0 
0 0 0 0 0 0 0 0 0 0 0 0 0 0 0 0 0 0 0 0 0 0 0 0 0 0 0 0 0 0 0 0 
0 0 0 0 0 0 0 0 0 0 0 0 0 0 0 0 0 0 0 0 0 0 0 0 0 0 0 0 0 0 0 0 
0 0 0 0 0 0 0 0 0 0 0 0 0 0 0 0 0 0 0 0 0 0 0 0 0 0 0 0 0 0 0 0 
0 0 0 0 0 0 0 0 0 0 0 0 0 0 0 0 0 0 0 0 0 0 0 0 0 0 0 0 0 0 0 0 
0 0 0 0 0 0 0 0 0 0 0 0 0 0 0 0 0 0 0 0 0 0 0 0 0 0 0 0 0 0 0 0 
0 0 0 0 0 0 0 0 0 0 0 0 0 1.010130e+00 1.188467e+01 3.213444e+01 4.251979e+01 3.213444e+01 1.188467e+01 1.010130e+00 0 0 0 0 0 0 0 0 0 0 0 0 
0 0 0 0 0 0 0 0 0 0 0 1.696940e-01 5.648344e+01 1.913619e+02 4.896775e+02 7.295596e+02 7.498605e+02 7.295596e+02 4.896775e+02 1.913619e+02 5.648344e+01 1.696940e-01 0 0 0 0 0 0 0 0 0 0 
0 0 0 0 0 0 0 0 0 0 1.646461e+00 1.081470e+02 4.419997e+02 8.101866e+02 1.027405e+03 1.075425e+03 1.045416e+03 1.075425e+03 1.027405e+03 8.101866e+02 4.419997e+02 1.081470e+02 1.646461e+00 0 0 0 0 0 0 0 0 0 
0 0 0 0 0 0 0 0 0 1.009789e+00 5.339332e+01 4.273690e+02 8.527392e+02 8.615808e+02 5.942226e+02 3.794333e+02 3.380754e+02 3.794333e+02 5.942226e+02 8.615808e+02 8.527392e+02 4.273690e+02 5.339332e+01 1.009789e+00 0 0 0 0 0 0 0 0 
0 0 0 0 0 0 0 0 0 3.252333e+01 3.028978e+02 6.502305e+02 5.886537e+02 2.519752e+02 4.461062e+01 1.432957e+00 0 1.432957e+00 4.461062e+01 2.519752e+02 5.886537e+02 6.502305e+02 3.028978e+02 3.252333e+01 0 0 0 0 0 0 0 0 
0 0 0 0 0 0 0 0 6.800183e+00 1.604798e+02 5.123481e+02 4.915943e+02 1.431551e+02 1.022929e+01 0 0 0 0 0 1.022929e+01 1.431551e+02 4.915943e+02 5.123481e+02 1.604798e+02 6.800183e+00 0 0 0 0 0 0 0 
0 0 0 0 0 0 0 0 -7.773867e+00 1.926592e+02 4.100626e+02 2.313320e+02 2.170240e+01 0 0 0 0 0 0 0 2.170240e+01 2.313320e+02 4.100626e+02 1.926592e+02 -7.773867e+00 0 0 0 0 0 0 0 
0 0 0 0 0 0 0 0 3.810671e+01 2.062787e+02 2.361885e+02 6.799455e+01 -2.201994e-02 0 0 0 0 0 0 0 -2.201994e-02 6.799455e+01 2.361885e+02 2.062787e+02 3.810671e+01 0 0 0 0 0 0 0 
0 0 0 0 0 0 0 0 6.019854e+01 1.890255e+02 1.326137e+02 3.786658e+00 0 0 0 0 0 0 0 0 0 3.786658e+00 1.326137e+02 1.890255e+02 6.019854e+01 0 0 0 0 0 0 0 
0 0 0 0 0 0 0 0 4.495091e+01 1.251223e+02 8.642445e+01 6.253057e+00 0 0 0 0 0 0 0 0 0 6.253057e+00 8.642445e+01 1.251223e+02 4.495091e+01 0 0 0 0 0 0 0 
0 0 0 0 0 0 0 0 6.659833e-12 2.423224e-12 -5.043348e-12 -8.289996e-13 0 0 0 0 0 0 0 0 0 -1.512436e-12 -8.061107e-12 -9.805490e-13 5.555561e-12 0 0 0 0 0 0 0 
0 0 0 0 0 0 0 0 -4.495091e+01 -1.251223e+02 -8.642445e+01 -6.253057e+00 0 0 0 0 0 0 0 0 0 -6.253057e+00 -8.642445e+01 -1.251223e+02 -4.495091e+01 0 0 0 0 0 0 0 
0 0 0 0 0 0 0 0 -6.019854e+01 -1.890255e+02 -1.326137e+02 -3.786658e+00 0 0 0 0 0 0 0 0 0 -3.786658e+00 -1.326137e+02 -1.890255e+02 -6.019854e+01 0 0 0 0 0 0 0 
0 0 0 0 0 0 0 0 -3.810671e+01 -2.062787e+02 -2.361885e+02 -6.799455e+01 2.201994e-02 0 0 0 0 0 0 0 2.201994e-02 -6.799455e+01 -2.361885e+02 -2.062787e+02 -3.810671e+01 0 0 0 0 0 0 0 
0 0 0 0 0 0 0 0 7.773867e+00 -1.926592e+02 -4.100626e+02 -2.313320e+02 -2.170240e+01 0 0 0 0 0 0 0 -2.170240e+01 -2.313320e+02 -4.100626e+02 -1.926592e+02 7.773867e+00 0 0 0 0 0 0 0 
0 0 0 0 0 0 0 0 -6.800183e+00 -1.604798e+02 -5.123481e+02 -4.915943e+02 -1.431551e+02 -1.022929e+01 0 0 0 0 0 -1.022929e+01 -1.431551e+02 -4.915943e+02 -5.123481e+02 -1.604798e+02 -6.800183e+00 0 0 0 0 0 0 0 
0 0 0 0 0 0 0 0 0 -3.252333e+01 -3.028978e+02 -6.502305e+02 -5.886537e+02 -2.519752e+02 -4.461062e+01 -1.432957e+00 0 -1.432957e+00 -4.461062e+01 -2.519752e+02 -5.886537e+02 -6.502305e+02 -3.028978e+02 -3.252333e+01 0 0 0 0 0 0 0 0 
0 0 0 0 0 0 0 0 0 -1.009789e+00 -5.339332e+01 -4.273690e+02 -8.527392e+02 -8.615808e+02 -5.942226e+02 -3.794333e+02 -3.380754e+02 -3.794333e+02 -5.942226e+02 -8.615808e+02 -8.527392e+02 -4.273690e+02 -5.339332e+01 -1.009789e+00 0 0 0 0 0 0 0 0 
0 0 0 0 0 0 0 0 0 0 -1.646461e+00 -1.081470e+02 -4.419997e+02 -8.101866e+02 -1.027405e+03 -1.075425e+03 -1.045416e+03 -1.075425e+03 -1.027405e+03 -8.101866e+02 -4.419997e+02 -1.081470e+02 -1.646461e+00 0 0 0 0 0 0 0 0 0 
0 0 0 0 0 0 0 0 0 0 0 -1.696940e-01 -5.648344e+01 -1.913619e+02 -4.896775e+02 -7.295596e+02 -7.498605e+02 -7.295596e+02 -4.896775e+02 -1.913619e+02 -5.648344e+01 -1.696940e-01 0 0 0 0 0 0 0 0 0 0 
0 0 0 0 0 0 0 0 0 0 0 0 0 -1.010130e+00 -1.188467e+01 -3.213444e+01 -4.251979e+01 -3.213444e+01 -1.188467e+01 -1.010130e+00 0 0 0 0 0 0 0 0 0 0 0 0 
0 0 0 0 0 0 0 0 0 0 0 0 0 0 0 0 0 0 0 0 0 0 0 0 0 0 0 0 0 0 0 0 
0 0 0 0 0 0 0 0 0 0 0 0 0 0 0 0 0 0 0 0 0 0 0 0 0 0 0 0 0 0 0 0 
0 0 0 0 0 0 0 0 0 0 0 0 0 0 0 0 0 0 0 0 0 0 0 0 0 0 0 0 0 0 0 0 
0 0 0 0 0 0 0 0 0 0 0 0 0 0 0 0 0 0 0 0 0 0 0 0 0 0 0 0 0 0 0 0 
0 0 0 0 0 0 0 0 0 0 0 0 0 0 0 0 0 0 0 0 0 0 0 0 0 0 0 0 0 0 0 0 
