# vtk DataFile Version 2.0
Comment goes here
ASCII

DATASET STRUCTURED_POINTS
FIELD FieldData 1
TIME 1 1 double
1.14000000
DIMENSIONS    32   32   1

ORIGIN    0.000   0.000   0.000
SPACING   0.03125 0.03125   1.000

POINT_DATA   1024
SCALARS fY double
LOOKUP_TABLE default

0 0 0 0 0 0 0 0 0 0 0 0 0 0 0 0 0 0 0 0 0 0 0 0 0 0 0 0 0 0 0 0 
0 0 0 0 0 0 0 0 0 0 0 0 0 0 0 0 0 0 0 0 0 0 0 0 0 0 0 0 0 0 0 0 
0 0 0 0 0 0 0 0 0 0 0 0 0 0 0 0 0 0 0 0 0 0 0 0 0 0 0 0 0 0 0 0 
0 0 0 0 0 0 0 0 0 0 0 0 0 0 0 0 0 0 0 0 0 0 0 0 0 0 0 0 0 0 0 0 
0 0 0 0 0 0 0 0 0 0 0 0 0 0 0 0 0 0 0 0 0 0 0 0 0 0 0 0 0 0 0 0 
0 0 0 0 0 0 0 0 0 0 0 0 0 0 0 0 0 0 0 0 0 0 0 0 0 0 0 0 0 0 0 0 
0 0 0 0 0 0 0 0 0 0 0 0 0 0 0 0 0 0 0 0 0 0 0 0 0 0 0 0 0 0 0 0 
0 0 0 0 0 0 0 0 0 0 0 0 -1.143610e-01 3.625745e+00 4.208956e+01 8.292588e+01 8.915284e+01 8.292588e+01 4.208956e+01 3.625745e+00 -1.143610e-01 0 0 0 0 0 0 0 0 0 0 0 
0 0 0 0 0 0 0 0 0 0 5.462983e-01 1.457862e+01 1.656783e+02 3.559305e+02 5.517969e+02 6.889880e+02 6.829511e+02 6.889880e+02 5.517969e+02 3.559305e+02 1.656783e+02 1.457862e+01 5.462983e-01 0 0 0 0 0 0 0 0 0 
0 0 0 0 0 0 0 0 0 2.212323e+00 4.064383e+01 2.458112e+02 6.392275e+02 8.689256e+02 8.437800e+02 7.861440e+02 7.588836e+02 7.861440e+02 8.437800e+02 8.689256e+02 6.392275e+02 2.458112e+02 4.064383e+01 2.212323e+00 0 0 0 0 0 0 0 0 
0 0 0 0 0 0 0 0 -1.520296e-01 6.630482e+01 3.730476e+02 6.643728e+02 6.795752e+02 5.599326e+02 3.356980e+02 1.801013e+02 1.650853e+02 1.801013e+02 3.356980e+02 5.599326e+02 6.795752e+02 6.643728e+02 3.730476e+02 6.630482e+01 -1.520296e-01 0 0 0 0 0 0 0 
0 0 0 0 0 0 0 0 2.154484e+01 2.138987e+02 6.586123e+02 6.550848e+02 2.305843e+02 4.336385e+01 1.625254e+00 1.938493e-02 0 1.938493e-02 1.625254e+00 4.336385e+01 2.305843e+02 6.550848e+02 6.586123e+02 2.138987e+02 2.154484e+01 0 0 0 0 0 0 0 
0 0 0 0 0 0 0 7.648071e-01 5.936662e+01 3.676797e+02 5.299870e+02 2.454806e+02 2.462359e+01 5.218114e-02 0 0 0 0 0 5.218114e-02 2.462359e+01 2.454806e+02 5.299870e+02 3.676797e+02 5.936662e+01 7.648071e-01 0 0 0 0 0 0 
0 0 0 0 0 0 0 1.390511e+01 1.733386e+02 3.838386e+02 2.512671e+02 2.704167e+01 1.797093e-01 0 0 0 0 0 0 0 1.797093e-01 2.704167e+01 2.512671e+02 3.838386e+02 1.733386e+02 1.390511e+01 0 0 0 0 0 0 
0 0 0 0 0 0 0 1.327255e+01 1.844745e+02 2.430923e+02 7.539616e+01 3.505732e+00 0 0 0 0 0 0 0 0 0 3.505732e+00 7.539616e+01 2.430923e+02 1.844745e+02 1.327255e+01 0 0 0 0 0 0 
0 0 0 0 0 0 0 1.248007e+01 1.050580e+02 1.270668e+02 3.448894e+01 0 0 0 0 0 0 0 0 0 0 0 3.448894e+01 1.270668e+02 1.050580e+02 1.248007e+01 0 0 0 0 0 0 
0 0 0 0 0 0 0 4.243272e-12 -1.748523e-11 -3.377175e-11 -1.204980e-11 0 0 0 0 0 0 0 0 0 0 0 -9.980461e-12 -5.576339e-11 -5.699613e-11 -1.122089e-11 0 0 0 0 0 0 
0 0 0 0 0 0 0 -1.248007e+01 -1.050580e+02 -1.270668e+02 -3.448894e+01 0 0 0 0 0 0 0 0 0 0 0 -3.448894e+01 -1.270668e+02 -1.050580e+02 -1.248007e+01 0 0 0 0 0 0 
0 0 0 0 0 0 0 -1.327255e+01 -1.844745e+02 -2.430923e+02 -7.539616e+01 -3.505732e+00 0 0 0 0 0 0 0 0 0 -3.505732e+00 -7.539616e+01 -2.430923e+02 -1.844745e+02 -1.327255e+01 0 0 0 0 0 0 
0 0 0 0 0 0 0 -1.390511e+01 -1.733386e+02 -3.838386e+02 -2.512671e+02 -2.704167e+01 -1.797093e-01 0 0 0 0 0 0 0 -1.797093e-01 -2.704167e+01 -2.512671e+02 -3.838386e+02 -1.733386e+02 -1.390511e+01 0 0 0 0 0 0 
0 0 0 0 0 0 0 -7.648071e-01 -5.936662e+01 -3.676797e+02 -5.299870e+02 -2.454806e+02 -2.462359e+01 -5.218114e-02 0 0 0 0 0 -5.218114e-02 -2.462359e+01 -2.454806e+02 -5.299870e+02 -3.676797e+02 -5.936662e+01 -7.648071e-01 0 0 0 0 0 0 
0 0 0 0 0 0 0 0 -2.154484e+01 -2.138987e+02 -6.586123e+02 -6.550848e+02 -2.305843e+02 -4.336385e+01 -1.625254e+00 -1.938493e-02 0 -1.938493e-02 -1.625254e+00 -4.336385e+01 -2.305843e+02 -6.550848e+02 -6.586123e+02 -2.138987e+02 -2.154484e+01 0 0 0 0 0 0 0 
0 0 0 0 0 0 0 0 1.520296e-01 -6.630482e+01 -3.730476e+02 -6.643728e+02 -6.795752e+02 -5.599326e+02 -3.356980e+02 -1.801013e+02 -1.650853e+02 -1.801013e+02 -3.356980e+02 -5.599326e+02 -6.795752e+02 -6.643728e+02 -3.730476e+02 -6.630482e+01 1.520296e-01 0 0 0 0 0 0 0 
0 0 0 0 0 0 0 0 0 -2.212323e+00 -4.064383e+01 -2.458112e+02 -6.392275e+02 -8.689256e+02 -8.437800e+02 -7.861440e+02 -7.588836e+02 -7.861440e+02 -8.437800e+02 -8.689256e+02 -6.392275e+02 -2.458112e+02 -4.064383e+01 -2.212323e+00 0 0 0 0 0 0 0 0 
0 0 0 0 0 0 0 0 0 0 -5.462983e-01 -1.457862e+01 -1.656783e+02 -3.559305e+02 -5.517969e+02 -6.889880e+02 -6.829511e+02 -6.889880e+02 -5.517969e+02 -3.559305e+02 -1.656783e+02 -1.457862e+01 -5.462983e-01 0 0 0 0 0 0 0 0 0 
0 0 0 0 0 0 0 0 0 0 0 0 1.143610e-01 -3.625745e+00 -4.208956e+01 -8.292588e+01 -8.915284e+01 -8.292588e+01 -4.208956e+01 -3.625745e+00 1.143610e-01 0 0 0 0 0 0 0 0 0 0 0 
0 0 0 0 0 0 0 0 0 0 0 0 0 0 0 0 0 0 0 0 0 0 0 0 0 0 0 0 0 0 0 0 
0 0 0 0 0 0 0 0 0 0 0 0 0 0 0 0 0 0 0 0 0 0 0 0 0 0 0 0 0 0 0 0 
0 0 0 0 0 0 0 0 0 0 0 0 0 0 0 0 0 0 0 0 0 0 0 0 0 0 0 0 0 0 0 0 
0 0 0 0 0 0 0 0 0 0 0 0 0 0 0 0 0 0 0 0 0 0 0 0 0 0 0 0 0 0 0 0 
0 0 0 0 0 0 0 0 0 0 0 0 0 0 0 0 0 0 0 0 0 0 0 0 0 0 0 0 0 0 0 0 
0 0 0 0 0 0 0 0 0 0 0 0 0 0 0 0 0 0 0 0 0 0 0 0 0 0 0 0 0 0 0 0 
