# vtk DataFile Version 2.0
Comment goes here
ASCII

DATASET STRUCTURED_POINTS
FIELD FieldData 1
TIME 1 1 double
0.64000000
DIMENSIONS    32   32   1

ORIGIN    0.000   0.000   0.000
SPACING   0.03125 0.03125   1.000

POINT_DATA   1024
SCALARS fY double
LOOKUP_TABLE default

0 0 0 0 0 0 0 0 0 0 0 0 0 0 0 0 0 0 0 0 0 0 0 0 0 0 0 0 0 0 0 0 
0 0 0 0 0 0 0 0 0 0 0 0 0 0 0 0 0 0 0 0 0 0 0 0 0 0 0 0 0 0 0 0 
0 0 0 0 0 0 0 0 0 0 0 0 0 0 0 0 0 0 0 0 0 0 0 0 0 0 0 0 0 0 0 0 
0 0 0 0 0 0 0 0 0 0 0 0 0 0 0 0 0 0 0 0 0 0 0 0 0 0 0 0 0 0 0 0 
0 0 0 0 0 0 0 0 0 0 0 0 0 0 0 0 0 0 0 0 0 0 0 0 0 0 0 0 0 0 0 0 
0 0 0 0 0 0 0 0 0 0 0 0 2.176334e+00 3.518999e+01 1.345603e+02 2.681947e+02 3.332961e+02 2.681947e+02 1.345603e+02 3.518999e+01 2.176334e+00 0 0 0 0 0 0 0 0 0 0 0 
0 0 0 0 0 0 0 0 0 0 0 1.896853e+01 1.609983e+02 5.780490e+02 1.007659e+03 1.202791e+03 1.262302e+03 1.202791e+03 1.007659e+03 5.780490e+02 1.609983e+02 1.896853e+01 0 0 0 0 0 0 0 0 0 0 
0 0 0 0 0 0 0 0 0 0 1.929123e+01 2.426201e+02 7.528261e+02 1.166297e+03 1.214018e+03 1.090571e+03 1.026706e+03 1.090571e+03 1.214018e+03 1.166297e+03 7.528261e+02 2.426201e+02 1.929123e+01 0 0 0 0 0 0 0 0 0 
0 0 0 0 0 0 0 0 0 7.537951e+00 1.925550e+02 6.669621e+02 9.736614e+02 7.310356e+02 3.464445e+02 1.559750e+02 9.769957e+01 1.559750e+02 3.464445e+02 7.310356e+02 9.736614e+02 6.669621e+02 1.925550e+02 7.537951e+00 0 0 0 0 0 0 0 0 
0 0 0 0 0 0 0 0 7.200569e-02 8.350479e+01 4.912983e+02 7.677176e+02 4.627256e+02 1.083985e+02 5.524904e+00 0 0 0 5.524904e+00 1.083985e+02 4.627256e+02 7.677176e+02 4.912983e+02 8.350479e+01 7.200569e-02 0 0 0 0 0 0 0 
0 0 0 0 0 0 0 0 8.973059e+00 2.164394e+02 5.756911e+02 4.551805e+02 8.775676e+01 8.010393e-01 0 0 0 0 0 8.010393e-01 8.775676e+01 4.551805e+02 5.756911e+02 2.164394e+02 8.973059e+00 0 0 0 0 0 0 0 
0 0 0 0 0 0 0 0 5.972798e+01 3.652175e+02 4.597933e+02 1.590015e+02 4.697653e+00 0 0 0 0 0 0 0 4.697653e+00 1.590015e+02 4.597933e+02 3.652175e+02 5.972798e+01 0 0 0 0 0 0 0 
0 0 0 0 0 0 0 3.351828e-01 9.006845e+01 3.311021e+02 2.756796e+02 3.432004e+01 9.267809e-03 0 0 0 0 0 0 0 9.267809e-03 3.432004e+01 2.756796e+02 3.311021e+02 9.006845e+01 3.351828e-01 0 0 0 0 0 0 
0 0 0 0 0 0 0 1.178668e+00 1.041016e+02 2.153408e+02 1.185113e+02 6.093380e+00 0 0 0 0 0 0 0 0 0 6.093380e+00 1.185113e+02 2.153408e+02 1.041016e+02 1.178668e+00 0 0 0 0 0 0 
0 0 0 0 0 0 0 3.047409e+00 9.220898e+01 1.450610e+02 5.590091e+01 1.443359e-03 0 0 0 0 0 0 0 0 0 1.443359e-03 5.590091e+01 1.450610e+02 9.220898e+01 3.047409e+00 0 0 0 0 0 0 
0 0 0 0 0 0 0 5.868040e+00 6.477010e+01 8.145784e+01 2.255578e+01 0 0 0 0 0 0 0 0 0 0 0 2.255578e+01 8.145784e+01 6.477010e+01 5.868040e+00 0 0 0 0 0 0 
0 0 0 0 0 0 0 2.590896e-12 1.477094e-11 1.411277e-11 1.924354e-12 0 0 0 0 0 0 0 0 0 0 0 9.249712e-12 2.059342e-11 9.535313e-12 -1.797685e-12 0 0 0 0 0 0 
0 0 0 0 0 0 0 -5.868040e+00 -6.477010e+01 -8.145784e+01 -2.255578e+01 0 0 0 0 0 0 0 0 0 0 0 -2.255578e+01 -8.145784e+01 -6.477010e+01 -5.868040e+00 0 0 0 0 0 0 
0 0 0 0 0 0 0 -3.047409e+00 -9.220898e+01 -1.450610e+02 -5.590091e+01 -1.443359e-03 0 0 0 0 0 0 0 0 0 -1.443359e-03 -5.590091e+01 -1.450610e+02 -9.220898e+01 -3.047409e+00 0 0 0 0 0 0 
0 0 0 0 0 0 0 -1.178668e+00 -1.041016e+02 -2.153408e+02 -1.185113e+02 -6.093380e+00 0 0 0 0 0 0 0 0 0 -6.093380e+00 -1.185113e+02 -2.153408e+02 -1.041016e+02 -1.178668e+00 0 0 0 0 0 0 
0 0 0 0 0 0 0 -3.351828e-01 -9.006845e+01 -3.311021e+02 -2.756796e+02 -3.432004e+01 -9.267809e-03 0 0 0 0 0 0 0 -9.267809e-03 -3.432004e+01 -2.756796e+02 -3.311021e+02 -9.006845e+01 -3.351828e-01 0 0 0 0 0 0 
0 0 0 0 0 0 0 0 -5.972798e+01 -3.652175e+02 -4.597933e+02 -1.590015e+02 -4.697653e+00 0 0 0 0 0 0 0 -4.697653e+00 -1.590015e+02 -4.597933e+02 -3.652175e+02 -5.972798e+01 0 0 0 0 0 0 0 
0 0 0 0 0 0 0 0 -8.973059e+00 -2.164394e+02 -5.756911e+02 -4.551805e+02 -8.775676e+01 -8.010393e-01 0 0 0 0 0 -8.010393e-01 -8.775676e+01 -4.551805e+02 -5.756911e+02 -2.164394e+02 -8.973059e+00 0 0 0 0 0 0 0 
0 0 0 0 0 0 0 0 -7.200569e-02 -8.350479e+01 -4.912983e+02 -7.677176e+02 -4.627256e+02 -1.083985e+02 -5.524904e+00 0 0 0 -5.524904e+00 -1.083985e+02 -4.627256e+02 -7.677176e+02 -4.912983e+02 -8.350479e+01 -7.200569e-02 0 0 0 0 0 0 0 
0 0 0 0 0 0 0 0 0 -7.537951e+00 -1.925550e+02 -6.669621e+02 -9.736614e+02 -7.310356e+02 -3.464445e+02 -1.559750e+02 -9.769957e+01 -1.559750e+02 -3.464445e+02 -7.310356e+02 -9.736614e+02 -6.669621e+02 -1.925550e+02 -7.537951e+00 0 0 0 0 0 0 0 0 
0 0 0 0 0 0 0 0 0 0 -1.929123e+01 -2.426201e+02 -7.528261e+02 -1.166297e+03 -1.214018e+03 -1.090571e+03 -1.026706e+03 -1.090571e+03 -1.214018e+03 -1.166297e+03 -7.528261e+02 -2.426201e+02 -1.929123e+01 0 0 0 0 0 0 0 0 0 
0 0 0 0 0 0 0 0 0 0 0 -1.896853e+01 -1.609983e+02 -5.780490e+02 -1.007659e+03 -1.202791e+03 -1.262302e+03 -1.202791e+03 -1.007659e+03 -5.780490e+02 -1.609983e+02 -1.896853e+01 0 0 0 0 0 0 0 0 0 0 
0 0 0 0 0 0 0 0 0 0 0 0 -2.176334e+00 -3.518999e+01 -1.345603e+02 -2.681947e+02 -3.332961e+02 -2.681947e+02 -1.345603e+02 -3.518999e+01 -2.176334e+00 0 0 0 0 0 0 0 0 0 0 0 
0 0 0 0 0 0 0 0 0 0 0 0 0 0 0 0 0 0 0 0 0 0 0 0 0 0 0 0 0 0 0 0 
0 0 0 0 0 0 0 0 0 0 0 0 0 0 0 0 0 0 0 0 0 0 0 0 0 0 0 0 0 0 0 0 
0 0 0 0 0 0 0 0 0 0 0 0 0 0 0 0 0 0 0 0 0 0 0 0 0 0 0 0 0 0 0 0 
0 0 0 0 0 0 0 0 0 0 0 0 0 0 0 0 0 0 0 0 0 0 0 0 0 0 0 0 0 0 0 0 
