# vtk DataFile Version 2.0
Comment goes here
ASCII

DATASET STRUCTURED_POINTS
FIELD FieldData 1
TIME 1 1 double
0.12000000
DIMENSIONS    32   32   1

ORIGIN    0.000   0.000   0.000
SPACING   0.03125 0.03125   1.000

POINT_DATA   1024
SCALARS fY double
LOOKUP_TABLE default

0 0 0 0 0 0 0 0 0 0 0 0 0 0 0 0 0 0 0 0 0 0 0 0 0 0 0 0 0 0 0 0 
0 0 0 0 0 0 0 0 0 0 0 0 0 0 0 0 0 0 0 0 0 0 0 0 0 0 0 0 0 0 0 0 
0 0 0 0 0 0 0 0 0 0 0 0 0 0 0 0 0 0 0 0 0 0 0 0 0 0 0 0 0 0 0 0 
0 0 0 0 0 0 0 0 0 0 0 0 0 0 0 0 0 0 0 0 0 0 0 0 0 0 0 0 0 0 0 0 
0 0 0 0 0 0 0 0 0 0 0 0 0 0 0 0 0 0 0 0 0 0 0 0 0 0 0 0 0 0 0 0 
0 0 0 0 0 0 0 0 0 0 0 0 0 0 0 0 0 0 0 0 0 0 0 0 0 0 0 0 0 0 0 0 
0 0 0 0 0 0 0 0 0 0 0 0 0 5.271261e-01 2.873906e+00 5.255411e+00 5.817261e+00 5.255411e+00 2.873906e+00 5.271261e-01 0 0 0 0 0 0 0 0 0 0 0 0 
0 0 0 0 0 0 0 0 0 3.553541e-01 2.631117e+01 1.070526e+02 1.987216e+02 2.586815e+02 3.263201e+02 3.133731e+02 2.562194e+02 3.133731e+02 3.263201e+02 2.586815e+02 1.987216e+02 1.070526e+02 2.631117e+01 3.553541e-01 0 0 0 0 0 0 0 0 
0 0 0 0 0 0 0 0 1.573409e+01 1.504707e+02 4.961495e+02 7.864097e+02 7.789202e+02 6.467642e+02 6.108682e+02 5.228354e+02 4.096163e+02 5.228354e+02 6.108682e+02 6.467642e+02 7.789202e+02 7.864097e+02 4.961495e+02 1.504707e+02 1.573409e+01 0 0 0 0 0 0 0 
0 0 0 0 0 0 0 2.493061e+01 2.880494e+02 7.912606e+02 1.094832e+03 9.858390e+02 6.711085e+02 4.058465e+02 2.890159e+02 2.147366e+02 1.592141e+02 2.147366e+02 2.890159e+02 4.058465e+02 6.711085e+02 9.858390e+02 1.094832e+03 7.912606e+02 2.880494e+02 2.493061e+01 0 0 0 0 0 0 
0 0 0 0 0 0 1.023119e+01 2.692307e+02 9.341684e+02 1.192707e+03 7.551663e+02 3.128801e+02 9.091363e+01 1.723666e+01 1.593909e+00 1.891880e-02 0 1.891880e-02 1.593909e+00 1.723666e+01 9.091363e+01 3.128801e+02 7.551663e+02 1.192707e+03 9.341684e+02 2.692307e+02 1.023119e+01 0 0 0 0 0 
0 0 0 0 0 0 9.656377e+01 8.223729e+02 1.351189e+03 7.517850e+02 1.327996e+02 6.398234e+00 3.746783e-03 0 0 0 0 0 0 0 3.746783e-03 6.398234e+00 1.327996e+02 7.517850e+02 1.351189e+03 8.223729e+02 9.656377e+01 0 0 0 0 0 
0 0 0 0 0 2.227769e-01 2.274563e+02 1.036430e+03 1.040490e+03 2.339201e+02 2.627399e+00 0 0 0 0 0 0 0 0 0 0 0 2.627399e+00 2.339201e+02 1.040490e+03 1.036430e+03 2.274563e+02 2.227769e-01 0 0 0 0 
0 0 0 0 0 2.324926e-01 1.913557e+02 5.576447e+02 4.011553e+02 3.463376e+01 0 0 0 0 0 0 0 0 0 0 0 0 0 3.463376e+01 4.011553e+02 5.576447e+02 1.913557e+02 2.324926e-01 0 0 0 0 
0 0 0 0 0 -6.381173e+00 -2.615106e+00 3.938935e+01 3.656005e+01 9.367659e-01 0 0 0 0 0 0 0 0 0 0 0 0 0 9.367659e-01 3.656005e+01 3.938935e+01 -2.615106e+00 -6.381173e+00 0 0 0 0 
0 0 0 0 0 -1.379800e+01 -1.123255e+02 -1.268970e+02 -2.836951e+01 0 0 0 0 0 0 0 0 0 0 0 0 0 0 0 -2.836951e+01 -1.268970e+02 -1.123255e+02 -1.379800e+01 0 0 0 0 
0 0 0 0 0 6.176827e-12 2.314747e-11 1.657943e-11 -3.980583e-13 0 0 0 0 0 0 0 0 0 0 0 0 0 0 0 -5.854319e-12 -3.689257e-11 -3.760843e-11 -6.582608e-12 0 0 0 0 
0 0 0 0 0 1.379800e+01 1.123255e+02 1.268970e+02 2.836951e+01 0 0 0 0 0 0 0 0 0 0 0 0 0 0 0 2.836951e+01 1.268970e+02 1.123255e+02 1.379800e+01 0 0 0 0 
0 0 0 0 0 6.381173e+00 2.615106e+00 -3.938935e+01 -3.656005e+01 -9.367659e-01 0 0 0 0 0 0 0 0 0 0 0 0 0 -9.367659e-01 -3.656005e+01 -3.938935e+01 2.615106e+00 6.381173e+00 0 0 0 0 
0 0 0 0 0 -2.324926e-01 -1.913557e+02 -5.576447e+02 -4.011553e+02 -3.463376e+01 0 0 0 0 0 0 0 0 0 0 0 0 0 -3.463376e+01 -4.011553e+02 -5.576447e+02 -1.913557e+02 -2.324926e-01 0 0 0 0 
0 0 0 0 0 -2.227769e-01 -2.274563e+02 -1.036430e+03 -1.040490e+03 -2.339201e+02 -2.627399e+00 0 0 0 0 0 0 0 0 0 0 0 -2.627399e+00 -2.339201e+02 -1.040490e+03 -1.036430e+03 -2.274563e+02 -2.227769e-01 0 0 0 0 
0 0 0 0 0 0 -9.656377e+01 -8.223729e+02 -1.351189e+03 -7.517850e+02 -1.327996e+02 -6.398234e+00 -3.746783e-03 0 0 0 0 0 0 0 -3.746783e-03 -6.398234e+00 -1.327996e+02 -7.517850e+02 -1.351189e+03 -8.223729e+02 -9.656377e+01 0 0 0 0 0 
0 0 0 0 0 0 -1.023119e+01 -2.692307e+02 -9.341684e+02 -1.192707e+03 -7.551663e+02 -3.128801e+02 -9.091363e+01 -1.723666e+01 -1.593909e+00 -1.891880e-02 0 -1.891880e-02 -1.593909e+00 -1.723666e+01 -9.091363e+01 -3.128801e+02 -7.551663e+02 -1.192707e+03 -9.341684e+02 -2.692307e+02 -1.023119e+01 0 0 0 0 0 
0 0 0 0 0 0 0 -2.493061e+01 -2.880494e+02 -7.912606e+02 -1.094832e+03 -9.858390e+02 -6.711085e+02 -4.058465e+02 -2.890159e+02 -2.147366e+02 -1.592141e+02 -2.147366e+02 -2.890159e+02 -4.058465e+02 -6.711085e+02 -9.858390e+02 -1.094832e+03 -7.912606e+02 -2.880494e+02 -2.493061e+01 0 0 0 0 0 0 
0 0 0 0 0 0 0 0 -1.573409e+01 -1.504707e+02 -4.961495e+02 -7.864097e+02 -7.789202e+02 -6.467642e+02 -6.108682e+02 -5.228354e+02 -4.096163e+02 -5.228354e+02 -6.108682e+02 -6.467642e+02 -7.789202e+02 -7.864097e+02 -4.961495e+02 -1.504707e+02 -1.573409e+01 0 0 0 0 0 0 0 
0 0 0 0 0 0 0 0 0 -3.553541e-01 -2.631117e+01 -1.070526e+02 -1.987216e+02 -2.586815e+02 -3.263201e+02 -3.133731e+02 -2.562194e+02 -3.133731e+02 -3.263201e+02 -2.586815e+02 -1.987216e+02 -1.070526e+02 -2.631117e+01 -3.553541e-01 0 0 0 0 0 0 0 0 
0 0 0 0 0 0 0 0 0 0 0 0 0 -5.271261e-01 -2.873906e+00 -5.255411e+00 -5.817261e+00 -5.255411e+00 -2.873906e+00 -5.271261e-01 0 0 0 0 0 0 0 0 0 0 0 0 
0 0 0 0 0 0 0 0 0 0 0 0 0 0 0 0 0 0 0 0 0 0 0 0 0 0 0 0 0 0 0 0 
0 0 0 0 0 0 0 0 0 0 0 0 0 0 0 0 0 0 0 0 0 0 0 0 0 0 0 0 0 0 0 0 
0 0 0 0 0 0 0 0 0 0 0 0 0 0 0 0 0 0 0 0 0 0 0 0 0 0 0 0 0 0 0 0 
0 0 0 0 0 0 0 0 0 0 0 0 0 0 0 0 0 0 0 0 0 0 0 0 0 0 0 0 0 0 0 0 
0 0 0 0 0 0 0 0 0 0 0 0 0 0 0 0 0 0 0 0 0 0 0 0 0 0 0 0 0 0 0 0 
