# vtk DataFile Version 2.0
Comment goes here
ASCII

DATASET STRUCTURED_POINTS
FIELD FieldData 1
TIME 1 1 double
0.96000000
DIMENSIONS    32   32   1

ORIGIN    0.000   0.000   0.000
SPACING   0.03125 0.03125   1.000

POINT_DATA   1024
SCALARS fY double
LOOKUP_TABLE default

0 0 0 0 0 0 0 0 0 0 0 0 0 0 0 0 0 0 0 0 0 0 0 0 0 0 0 0 0 0 0 0 
0 0 0 0 0 0 0 0 0 0 0 0 0 0 0 0 0 0 0 0 0 0 0 0 0 0 0 0 0 0 0 0 
0 0 0 0 0 0 0 0 0 0 0 0 0 0 0 0 0 0 0 0 0 0 0 0 0 0 0 0 0 0 0 0 
0 0 0 0 0 0 0 0 0 0 0 0 0 0 0 0 0 0 0 0 0 0 0 0 0 0 0 0 0 0 0 0 
0 0 0 0 0 0 0 0 0 0 0 0 0 0 0 0 0 0 0 0 0 0 0 0 0 0 0 0 0 0 0 0 
0 0 0 0 0 0 0 0 0 0 0 0 0 0 0 0 0 0 0 0 0 0 0 0 0 0 0 0 0 0 0 0 
0 0 0 0 0 0 0 0 0 0 0 0 3.236012e-01 1.384520e+01 8.467297e+01 1.846073e+02 2.269118e+02 1.846073e+02 8.467297e+01 1.384520e+01 3.236012e-01 0 0 0 0 0 0 0 0 0 0 0 
0 0 0 0 0 0 0 0 0 0 6.114312e-02 8.822879e-01 1.510324e+02 4.875151e+02 7.833494e+02 9.685646e+02 1.045038e+03 9.685646e+02 7.833494e+02 4.875151e+02 1.510324e+02 8.822879e-01 6.114312e-02 0 0 0 0 0 0 0 0 0 
0 0 0 0 0 0 0 0 0 0 2.030304e+01 2.063515e+02 5.985506e+02 1.025015e+03 1.079807e+03 9.383999e+02 9.422121e+02 9.383999e+02 1.079807e+03 1.025015e+03 5.985506e+02 2.063515e+02 2.030304e+01 0 0 0 0 0 0 0 0 0 
0 0 0 0 0 0 0 0 0 1.208366e+01 2.057344e+02 6.579133e+02 7.959710e+02 6.218410e+02 3.825430e+02 1.544532e+02 1.240858e+02 1.544532e+02 3.825430e+02 6.218410e+02 7.959710e+02 6.579133e+02 2.057344e+02 1.208366e+01 0 0 0 0 0 0 0 0 
0 0 0 0 0 0 0 0 1.692490e-02 6.558115e+01 4.749229e+02 7.674136e+02 4.282861e+02 7.163301e+01 1.412386e+00 1.055218e-02 0 1.055218e-02 1.412386e+00 7.163301e+01 4.282861e+02 7.674136e+02 4.749229e+02 6.558115e+01 1.692490e-02 0 0 0 0 0 0 0 
0 0 0 0 0 0 0 0 2.194771e+01 2.383489e+02 5.317231e+02 3.974413e+02 8.325670e+01 1.137329e+00 0 0 0 0 0 1.137329e+00 8.325670e+01 3.974413e+02 5.317231e+02 2.383489e+02 2.194771e+01 0 0 0 0 0 0 0 
0 0 0 0 0 0 0 0 1.978538e+01 2.771360e+02 3.780768e+02 1.238260e+02 3.099775e+00 0 0 0 0 0 0 0 3.099775e+00 1.238260e+02 3.780768e+02 2.771360e+02 1.978538e+01 0 0 0 0 0 0 0 
0 0 0 0 0 0 0 -8.842787e-02 6.776702e+01 2.397939e+02 2.099762e+02 3.803775e+01 0 0 0 0 0 0 0 0 0 3.803775e+01 2.099762e+02 2.397939e+02 6.776702e+01 -8.842787e-02 0 0 0 0 0 0 
0 0 0 0 0 0 0 2.424593e-01 7.597921e+01 1.730708e+02 9.463082e+01 -2.703232e+00 0 0 0 0 0 0 0 0 0 -2.703232e+00 9.463082e+01 1.730708e+02 7.597921e+01 2.424593e-01 0 0 0 0 0 0 
0 0 0 0 0 0 0 1.448007e+00 4.235419e+01 8.075886e+01 4.046580e+01 6.131288e-01 0 0 0 0 0 0 0 0 0 6.131288e-01 4.046580e+01 8.075886e+01 4.235419e+01 1.448007e+00 0 0 0 0 0 0 
0 0 0 0 0 0 0 -3.168577e-13 5.022570e-12 1.048558e-11 5.144235e-12 0 0 0 0 0 0 0 0 0 0 0 -1.746159e-12 1.246470e-11 1.633827e-11 2.106488e-12 0 0 0 0 0 0 
0 0 0 0 0 0 0 -1.448007e+00 -4.235419e+01 -8.075886e+01 -4.046580e+01 -6.131288e-01 0 0 0 0 0 0 0 0 0 -6.131288e-01 -4.046580e+01 -8.075886e+01 -4.235419e+01 -1.448007e+00 0 0 0 0 0 0 
0 0 0 0 0 0 0 -2.424593e-01 -7.597921e+01 -1.730708e+02 -9.463082e+01 2.703232e+00 0 0 0 0 0 0 0 0 0 2.703232e+00 -9.463082e+01 -1.730708e+02 -7.597921e+01 -2.424593e-01 0 0 0 0 0 0 
0 0 0 0 0 0 0 8.842787e-02 -6.776702e+01 -2.397939e+02 -2.099762e+02 -3.803775e+01 0 0 0 0 0 0 0 0 0 -3.803775e+01 -2.099762e+02 -2.397939e+02 -6.776702e+01 8.842787e-02 0 0 0 0 0 0 
0 0 0 0 0 0 0 0 -1.978538e+01 -2.771360e+02 -3.780768e+02 -1.238260e+02 -3.099775e+00 0 0 0 0 0 0 0 -3.099775e+00 -1.238260e+02 -3.780768e+02 -2.771360e+02 -1.978538e+01 0 0 0 0 0 0 0 
0 0 0 0 0 0 0 0 -2.194771e+01 -2.383489e+02 -5.317231e+02 -3.974413e+02 -8.325670e+01 -1.137329e+00 0 0 0 0 0 -1.137329e+00 -8.325670e+01 -3.974413e+02 -5.317231e+02 -2.383489e+02 -2.194771e+01 0 0 0 0 0 0 0 
0 0 0 0 0 0 0 0 -1.692490e-02 -6.558115e+01 -4.749229e+02 -7.674136e+02 -4.282861e+02 -7.163301e+01 -1.412386e+00 -1.055218e-02 0 -1.055218e-02 -1.412386e+00 -7.163301e+01 -4.282861e+02 -7.674136e+02 -4.749229e+02 -6.558115e+01 -1.692490e-02 0 0 0 0 0 0 0 
0 0 0 0 0 0 0 0 0 -1.208366e+01 -2.057344e+02 -6.579133e+02 -7.959710e+02 -6.218410e+02 -3.825430e+02 -1.544532e+02 -1.240858e+02 -1.544532e+02 -3.825430e+02 -6.218410e+02 -7.959710e+02 -6.579133e+02 -2.057344e+02 -1.208366e+01 0 0 0 0 0 0 0 0 
0 0 0 0 0 0 0 0 0 0 -2.030304e+01 -2.063515e+02 -5.985506e+02 -1.025015e+03 -1.079807e+03 -9.383999e+02 -9.422121e+02 -9.383999e+02 -1.079807e+03 -1.025015e+03 -5.985506e+02 -2.063515e+02 -2.030304e+01 0 0 0 0 0 0 0 0 0 
0 0 0 0 0 0 0 0 0 0 -6.114312e-02 -8.822879e-01 -1.510324e+02 -4.875151e+02 -7.833494e+02 -9.685646e+02 -1.045038e+03 -9.685646e+02 -7.833494e+02 -4.875151e+02 -1.510324e+02 -8.822879e-01 -6.114312e-02 0 0 0 0 0 0 0 0 0 
0 0 0 0 0 0 0 0 0 0 0 0 -3.236012e-01 -1.384520e+01 -8.467297e+01 -1.846073e+02 -2.269118e+02 -1.846073e+02 -8.467297e+01 -1.384520e+01 -3.236012e-01 0 0 0 0 0 0 0 0 0 0 0 
0 0 0 0 0 0 0 0 0 0 0 0 0 0 0 0 0 0 0 0 0 0 0 0 0 0 0 0 0 0 0 0 
0 0 0 0 0 0 0 0 0 0 0 0 0 0 0 0 0 0 0 0 0 0 0 0 0 0 0 0 0 0 0 0 
0 0 0 0 0 0 0 0 0 0 0 0 0 0 0 0 0 0 0 0 0 0 0 0 0 0 0 0 0 0 0 0 
0 0 0 0 0 0 0 0 0 0 0 0 0 0 0 0 0 0 0 0 0 0 0 0 0 0 0 0 0 0 0 0 
0 0 0 0 0 0 0 0 0 0 0 0 0 0 0 0 0 0 0 0 0 0 0 0 0 0 0 0 0 0 0 0 
