# vtk DataFile Version 2.0
Comment goes here
ASCII

DATASET STRUCTURED_POINTS
FIELD FieldData 1
TIME 1 1 double
0.72000000
DIMENSIONS    32   32   1

ORIGIN    0.000   0.000   0.000
SPACING   0.03125 0.03125   1.000

POINT_DATA   1024
SCALARS fY double
LOOKUP_TABLE default

0 0 0 0 0 0 0 0 0 0 0 0 0 0 0 0 0 0 0 0 0 0 0 0 0 0 0 0 0 0 0 0 
0 0 0 0 0 0 0 0 0 0 0 0 0 0 0 0 0 0 0 0 0 0 0 0 0 0 0 0 0 0 0 0 
0 0 0 0 0 0 0 0 0 0 0 0 0 0 0 0 0 0 0 0 0 0 0 0 0 0 0 0 0 0 0 0 
0 0 0 0 0 0 0 0 0 0 0 0 0 0 0 0 0 0 0 0 0 0 0 0 0 0 0 0 0 0 0 0 
0 0 0 0 0 0 0 0 0 0 0 0 0 0 0 0 0 0 0 0 0 0 0 0 0 0 0 0 0 0 0 0 
0 0 0 0 0 0 0 0 0 0 0 0 0 0 0 0 0 0 0 0 0 0 0 0 0 0 0 0 0 0 0 0 
0 0 0 0 0 0 0 0 0 0 0 0 0 0 0 0 0 0 0 0 0 0 0 0 0 0 0 0 0 0 0 0 
0 0 0 0 0 0 0 0 0 0 0 0 2.082277e-01 3.526369e+00 1.546092e+01 3.262149e+01 4.095744e+01 3.262149e+01 1.546092e+01 3.526369e+00 2.082277e-01 0 0 0 0 0 0 0 0 0 0 0 
0 0 0 0 0 0 0 0 0 0 6.577107e+00 8.386257e+01 2.053550e+02 3.358071e+02 4.445749e+02 4.942780e+02 5.148813e+02 4.942780e+02 4.445749e+02 3.358071e+02 2.053550e+02 8.386257e+01 6.577107e+00 0 0 0 0 0 0 0 0 0 
0 0 0 0 0 0 0 0 4.316745e+00 8.114786e+01 2.669703e+02 5.570289e+02 7.337711e+02 7.331928e+02 7.049815e+02 6.690638e+02 6.607872e+02 6.690638e+02 7.049815e+02 7.331928e+02 7.337711e+02 5.570289e+02 2.669703e+02 8.114786e+01 4.316745e+00 0 0 0 0 0 0 0 
0 0 0 0 0 0 0 5.911198e+00 1.399728e+02 4.978119e+02 7.712637e+02 7.597179e+02 6.091410e+02 4.195548e+02 2.765941e+02 2.074073e+02 1.868633e+02 2.074073e+02 2.765941e+02 4.195548e+02 6.091410e+02 7.597179e+02 7.712637e+02 4.978119e+02 1.399728e+02 5.911198e+00 0 0 0 0 0 0 
0 0 0 0 0 0 3.331118e+00 1.196883e+02 5.009969e+02 7.977811e+02 6.481519e+02 2.977584e+02 8.066403e+01 1.864281e+01 7.265662e-01 0 0 0 7.265662e-01 1.864281e+01 8.066403e+01 2.977584e+02 6.481519e+02 7.977811e+02 5.009969e+02 1.196883e+02 3.331118e+00 0 0 0 0 0 
0 0 0 0 0 0 4.245932e+01 3.959492e+02 7.287887e+02 5.049259e+02 1.406864e+02 1.120674e+01 1.474649e-01 0 0 0 0 0 0 0 1.474649e-01 1.120674e+01 1.406864e+02 5.049259e+02 7.287887e+02 3.959492e+02 4.245932e+01 0 0 0 0 0 
0 0 0 0 0 -1.328711e-01 1.488254e+02 5.487874e+02 5.313897e+02 1.349657e+02 3.405018e+00 0 0 0 0 0 0 0 0 0 0 0 3.405018e+00 1.349657e+02 5.313897e+02 5.487874e+02 1.488254e+02 -1.328711e-01 0 0 0 0 
0 0 0 0 0 4.881059e+00 1.762787e+02 3.674885e+02 2.072502e+02 1.115934e+01 0 0 0 0 0 0 0 0 0 0 0 0 0 1.115934e+01 2.072502e+02 3.674885e+02 1.762787e+02 4.881059e+00 0 0 0 0 
0 0 0 0 0 1.497050e+01 1.437718e+02 1.867523e+02 5.795366e+01 2.580405e-03 0 0 0 0 0 0 0 0 0 0 0 0 0 2.580405e-03 5.795366e+01 1.867523e+02 1.437718e+02 1.497050e+01 0 0 0 0 
0 0 0 0 0 -6.126152e-12 -2.614109e-11 -2.183587e-11 -1.817332e-12 0 0 0 0 0 0 0 0 0 0 0 0 0 0 0 1.313951e-12 1.589625e-11 1.880981e-11 4.233457e-12 0 0 0 0 
0 0 0 0 0 -1.497050e+01 -1.437718e+02 -1.867523e+02 -5.795366e+01 -2.580405e-03 0 0 0 0 0 0 0 0 0 0 0 0 0 -2.580405e-03 -5.795366e+01 -1.867523e+02 -1.437718e+02 -1.497050e+01 0 0 0 0 
0 0 0 0 0 -4.881059e+00 -1.762787e+02 -3.674885e+02 -2.072502e+02 -1.115934e+01 0 0 0 0 0 0 0 0 0 0 0 0 0 -1.115934e+01 -2.072502e+02 -3.674885e+02 -1.762787e+02 -4.881059e+00 0 0 0 0 
0 0 0 0 0 1.328711e-01 -1.488254e+02 -5.487874e+02 -5.313897e+02 -1.349657e+02 -3.405018e+00 0 0 0 0 0 0 0 0 0 0 0 -3.405018e+00 -1.349657e+02 -5.313897e+02 -5.487874e+02 -1.488254e+02 1.328711e-01 0 0 0 0 
0 0 0 0 0 0 -4.245932e+01 -3.959492e+02 -7.287887e+02 -5.049259e+02 -1.406864e+02 -1.120674e+01 -1.474649e-01 0 0 0 0 0 0 0 -1.474649e-01 -1.120674e+01 -1.406864e+02 -5.049259e+02 -7.287887e+02 -3.959492e+02 -4.245932e+01 0 0 0 0 0 
0 0 0 0 0 0 -3.331118e+00 -1.196883e+02 -5.009969e+02 -7.977811e+02 -6.481519e+02 -2.977584e+02 -8.066403e+01 -1.864281e+01 -7.265662e-01 0 0 0 -7.265662e-01 -1.864281e+01 -8.066403e+01 -2.977584e+02 -6.481519e+02 -7.977811e+02 -5.009969e+02 -1.196883e+02 -3.331118e+00 0 0 0 0 0 
0 0 0 0 0 0 0 -5.911198e+00 -1.399728e+02 -4.978119e+02 -7.712637e+02 -7.597179e+02 -6.091410e+02 -4.195548e+02 -2.765941e+02 -2.074073e+02 -1.868633e+02 -2.074073e+02 -2.765941e+02 -4.195548e+02 -6.091410e+02 -7.597179e+02 -7.712637e+02 -4.978119e+02 -1.399728e+02 -5.911198e+00 0 0 0 0 0 0 
0 0 0 0 0 0 0 0 -4.316745e+00 -8.114786e+01 -2.669703e+02 -5.570289e+02 -7.337711e+02 -7.331928e+02 -7.049815e+02 -6.690638e+02 -6.607872e+02 -6.690638e+02 -7.049815e+02 -7.331928e+02 -7.337711e+02 -5.570289e+02 -2.669703e+02 -8.114786e+01 -4.316745e+00 0 0 0 0 0 0 0 
0 0 0 0 0 0 0 0 0 0 -6.577107e+00 -8.386257e+01 -2.053550e+02 -3.358071e+02 -4.445749e+02 -4.942780e+02 -5.148813e+02 -4.942780e+02 -4.445749e+02 -3.358071e+02 -2.053550e+02 -8.386257e+01 -6.577107e+00 0 0 0 0 0 0 0 0 0 
0 0 0 0 0 0 0 0 0 0 0 0 -2.082277e-01 -3.526369e+00 -1.546092e+01 -3.262149e+01 -4.095744e+01 -3.262149e+01 -1.546092e+01 -3.526369e+00 -2.082277e-01 0 0 0 0 0 0 0 0 0 0 0 
0 0 0 0 0 0 0 0 0 0 0 0 0 0 0 0 0 0 0 0 0 0 0 0 0 0 0 0 0 0 0 0 
0 0 0 0 0 0 0 0 0 0 0 0 0 0 0 0 0 0 0 0 0 0 0 0 0 0 0 0 0 0 0 0 
0 0 0 0 0 0 0 0 0 0 0 0 0 0 0 0 0 0 0 0 0 0 0 0 0 0 0 0 0 0 0 0 
0 0 0 0 0 0 0 0 0 0 0 0 0 0 0 0 0 0 0 0 0 0 0 0 0 0 0 0 0 0 0 0 
0 0 0 0 0 0 0 0 0 0 0 0 0 0 0 0 0 0 0 0 0 0 0 0 0 0 0 0 0 0 0 0 
0 0 0 0 0 0 0 0 0 0 0 0 0 0 0 0 0 0 0 0 0 0 0 0 0 0 0 0 0 0 0 0 
