# vtk DataFile Version 2.0
Comment goes here
ASCII

DATASET STRUCTURED_POINTS
FIELD FieldData 1
TIME 1 1 double
0.54000000
DIMENSIONS    32   32   1

ORIGIN    0.000   0.000   0.000
SPACING   0.03125 0.03125   1.000

POINT_DATA   1024
SCALARS fY double
LOOKUP_TABLE default

0 0 0 0 0 0 0 0 0 0 0 0 0 0 0 0 0 0 0 0 0 0 0 0 0 0 0 0 0 0 0 0 
0 0 0 0 0 0 0 0 0 0 0 0 0 0 0 0 0 0 0 0 0 0 0 0 0 0 0 0 0 0 0 0 
0 0 0 0 0 0 0 0 0 0 0 0 0 0 0 0 0 0 0 0 0 0 0 0 0 0 0 0 0 0 0 0 
0 0 0 0 0 0 0 0 0 0 0 0 0 0 0 0 0 0 0 0 0 0 0 0 0 0 0 0 0 0 0 0 
0 0 0 0 0 0 0 0 0 0 0 0 0 0 0 0 0 0 0 0 0 0 0 0 0 0 0 0 0 0 0 0 
0 0 0 0 0 0 0 0 0 0 0 0 0 0 0 0 0 0 0 0 0 0 0 0 0 0 0 0 0 0 0 0 
0 0 0 0 0 0 0 0 0 0 0 0 0 0 0 0 0 0 0 0 0 0 0 0 0 0 0 0 0 0 0 0 
0 0 0 0 0 0 0 0 0 0 1.055536e-01 8.769553e+00 6.272268e+01 1.482535e+02 2.530718e+02 3.132373e+02 3.087205e+02 3.132373e+02 2.530718e+02 1.482535e+02 6.272268e+01 8.769553e+00 1.055536e-01 0 0 0 0 0 0 0 0 0 
0 0 0 0 0 0 0 0 0 1.075635e+01 9.862116e+01 2.769857e+02 5.853147e+02 7.676811e+02 8.153210e+02 8.191582e+02 7.506491e+02 8.191582e+02 8.153210e+02 7.676811e+02 5.853147e+02 2.769857e+02 9.862116e+01 1.075635e+01 0 0 0 0 0 0 0 0 
0 0 0 0 0 0 0 2.169873e-01 1.894320e+01 1.916349e+02 6.116884e+02 8.047683e+02 8.097034e+02 7.581755e+02 6.111782e+02 5.211082e+02 4.487814e+02 5.211082e+02 6.111782e+02 7.581755e+02 8.097034e+02 8.047683e+02 6.116884e+02 1.916349e+02 1.894320e+01 2.169873e-01 0 0 0 0 0 0 
0 0 0 0 0 0 0 2.123869e+01 2.422499e+02 6.050938e+02 8.363185e+02 6.479742e+02 2.973178e+02 1.387479e+02 4.892911e+01 1.518729e+01 6.852762e+00 1.518729e+01 4.892911e+01 1.387479e+02 2.973178e+02 6.479742e+02 8.363185e+02 6.050938e+02 2.422499e+02 2.123869e+01 0 0 0 0 0 0 
0 0 0 0 0 0 4.010292e+00 1.682714e+02 6.300117e+02 7.454335e+02 3.818070e+02 1.123306e+02 1.020650e+01 0 0 0 0 0 0 0 1.020650e+01 1.123306e+02 3.818070e+02 7.454335e+02 6.300117e+02 1.682714e+02 4.010292e+00 0 0 0 0 0 
0 0 0 0 0 0 3.587926e+01 3.600570e+02 6.711813e+02 4.067373e+02 6.064232e+01 9.085201e-01 0 0 0 0 0 0 0 0 0 9.085201e-01 6.064232e+01 4.067373e+02 6.711813e+02 3.600570e+02 3.587926e+01 0 0 0 0 0 
0 0 0 0 0 3.381677e-01 1.204826e+02 4.296402e+02 3.984889e+02 9.097416e+01 1.981072e+00 0 0 0 0 0 0 0 0 0 0 0 1.981072e+00 9.097416e+01 3.984889e+02 4.296402e+02 1.204826e+02 3.381677e-01 0 0 0 0 
0 0 0 0 0 2.646462e+00 1.570353e+02 3.316991e+02 1.829932e+02 5.682908e+00 0 0 0 0 0 0 0 0 0 0 0 0 0 5.682908e+00 1.829932e+02 3.316991e+02 1.570353e+02 2.646462e+00 0 0 0 0 
0 0 0 0 0 4.624686e+00 1.013876e+02 1.586017e+02 6.206651e+01 2.278007e-01 0 0 0 0 0 0 0 0 0 0 0 0 0 2.278007e-01 6.206651e+01 1.586017e+02 1.013876e+02 4.624686e+00 0 0 0 0 
0 0 0 0 0 2.892428e-12 7.181811e-12 7.345236e-13 -3.552936e-12 0 0 0 0 0 0 0 0 0 0 0 0 0 0 0 1.204005e-11 2.164926e-11 6.112542e-12 -3.508658e-12 0 0 0 0 
0 0 0 0 0 -4.624686e+00 -1.013876e+02 -1.586017e+02 -6.206651e+01 -2.278007e-01 0 0 0 0 0 0 0 0 0 0 0 0 0 -2.278007e-01 -6.206651e+01 -1.586017e+02 -1.013876e+02 -4.624686e+00 0 0 0 0 
0 0 0 0 0 -2.646462e+00 -1.570353e+02 -3.316991e+02 -1.829932e+02 -5.682908e+00 0 0 0 0 0 0 0 0 0 0 0 0 0 -5.682908e+00 -1.829932e+02 -3.316991e+02 -1.570353e+02 -2.646462e+00 0 0 0 0 
0 0 0 0 0 -3.381677e-01 -1.204826e+02 -4.296402e+02 -3.984889e+02 -9.097416e+01 -1.981072e+00 0 0 0 0 0 0 0 0 0 0 0 -1.981072e+00 -9.097416e+01 -3.984889e+02 -4.296402e+02 -1.204826e+02 -3.381677e-01 0 0 0 0 
0 0 0 0 0 0 -3.587926e+01 -3.600570e+02 -6.711813e+02 -4.067373e+02 -6.064232e+01 -9.085201e-01 0 0 0 0 0 0 0 0 0 -9.085201e-01 -6.064232e+01 -4.067373e+02 -6.711813e+02 -3.600570e+02 -3.587926e+01 0 0 0 0 0 
0 0 0 0 0 0 -4.010292e+00 -1.682714e+02 -6.300117e+02 -7.454335e+02 -3.818070e+02 -1.123306e+02 -1.020650e+01 0 0 0 0 0 0 0 -1.020650e+01 -1.123306e+02 -3.818070e+02 -7.454335e+02 -6.300117e+02 -1.682714e+02 -4.010292e+00 0 0 0 0 0 
0 0 0 0 0 0 0 -2.123869e+01 -2.422499e+02 -6.050938e+02 -8.363185e+02 -6.479742e+02 -2.973178e+02 -1.387479e+02 -4.892911e+01 -1.518729e+01 -6.852762e+00 -1.518729e+01 -4.892911e+01 -1.387479e+02 -2.973178e+02 -6.479742e+02 -8.363185e+02 -6.050938e+02 -2.422499e+02 -2.123869e+01 0 0 0 0 0 0 
0 0 0 0 0 0 0 -2.169873e-01 -1.894320e+01 -1.916349e+02 -6.116884e+02 -8.047683e+02 -8.097034e+02 -7.581755e+02 -6.111782e+02 -5.211082e+02 -4.487814e+02 -5.211082e+02 -6.111782e+02 -7.581755e+02 -8.097034e+02 -8.047683e+02 -6.116884e+02 -1.916349e+02 -1.894320e+01 -2.169873e-01 0 0 0 0 0 0 
0 0 0 0 0 0 0 0 0 -1.075635e+01 -9.862116e+01 -2.769857e+02 -5.853147e+02 -7.676811e+02 -8.153210e+02 -8.191582e+02 -7.506491e+02 -8.191582e+02 -8.153210e+02 -7.676811e+02 -5.853147e+02 -2.769857e+02 -9.862116e+01 -1.075635e+01 0 0 0 0 0 0 0 0 
0 0 0 0 0 0 0 0 0 0 -1.055536e-01 -8.769553e+00 -6.272268e+01 -1.482535e+02 -2.530718e+02 -3.132373e+02 -3.087205e+02 -3.132373e+02 -2.530718e+02 -1.482535e+02 -6.272268e+01 -8.769553e+00 -1.055536e-01 0 0 0 0 0 0 0 0 0 
0 0 0 0 0 0 0 0 0 0 0 0 0 0 0 0 0 0 0 0 0 0 0 0 0 0 0 0 0 0 0 0 
0 0 0 0 0 0 0 0 0 0 0 0 0 0 0 0 0 0 0 0 0 0 0 0 0 0 0 0 0 0 0 0 
0 0 0 0 0 0 0 0 0 0 0 0 0 0 0 0 0 0 0 0 0 0 0 0 0 0 0 0 0 0 0 0 
0 0 0 0 0 0 0 0 0 0 0 0 0 0 0 0 0 0 0 0 0 0 0 0 0 0 0 0 0 0 0 0 
0 0 0 0 0 0 0 0 0 0 0 0 0 0 0 0 0 0 0 0 0 0 0 0 0 0 0 0 0 0 0 0 
0 0 0 0 0 0 0 0 0 0 0 0 0 0 0 0 0 0 0 0 0 0 0 0 0 0 0 0 0 0 0 0 
