# vtk DataFile Version 2.0
Comment goes here
ASCII

DATASET STRUCTURED_POINTS
FIELD FieldData 1
TIME 1 1 double
0.16000000
DIMENSIONS    32   32   1

ORIGIN    0.000   0.000   0.000
SPACING   0.03125 0.03125   1.000

POINT_DATA   1024
SCALARS fY double
LOOKUP_TABLE default

0 0 0 0 0 0 0 0 0 0 0 0 0 0 0 0 0 0 0 0 0 0 0 0 0 0 0 0 0 0 0 0 
0 0 0 0 0 0 0 0 0 0 0 0 0 0 0 0 0 0 0 0 0 0 0 0 0 0 0 0 0 0 0 0 
0 0 0 0 0 0 0 0 0 0 0 0 0 0 0 0 0 0 0 0 0 0 0 0 0 0 0 0 0 0 0 0 
0 0 0 0 0 0 0 0 0 0 0 0 5.810005e-02 4.256929e+01 2.224160e+02 4.735249e+02 5.872403e+02 4.735249e+02 2.224160e+02 4.256929e+01 5.810005e-02 0 0 0 0 0 0 0 0 0 0 0 
0 0 0 0 0 0 0 0 0 0 0 1.218618e+01 1.912135e+02 7.943934e+02 1.548064e+03 1.937434e+03 2.009471e+03 1.937434e+03 1.548064e+03 7.943934e+02 1.912135e+02 1.218618e+01 0 0 0 0 0 0 0 0 0 0 
0 0 0 0 0 0 0 0 0 0 3.688163e+00 1.760507e+02 8.544953e+02 1.676769e+03 1.910752e+03 1.685429e+03 1.538625e+03 1.685429e+03 1.910752e+03 1.676769e+03 8.544953e+02 1.760507e+02 3.688163e+00 0 0 0 0 0 0 0 0 0 
0 0 0 0 0 0 0 0 0 2.217266e-01 9.861920e+01 6.401643e+02 1.239936e+03 1.137443e+03 6.025965e+02 2.215198e+02 1.163942e+02 2.215198e+02 6.025965e+02 1.137443e+03 1.239936e+03 6.401643e+02 9.861920e+01 2.217266e-01 0 0 0 0 0 0 0 0 
0 0 0 0 0 0 0 0 0 1.109024e+01 2.727503e+02 8.464520e+02 7.944368e+02 2.271373e+02 1.749255e+01 0 0 0 1.749255e+01 2.271373e+02 7.944368e+02 8.464520e+02 2.727503e+02 1.109024e+01 0 0 0 0 0 0 0 0 
0 0 0 0 0 0 0 0 0 6.674919e+01 4.412717e+02 6.148996e+02 2.550161e+02 1.463905e+01 0 0 0 0 0 1.463905e+01 2.550161e+02 6.148996e+02 4.412717e+02 6.674919e+01 0 0 0 0 0 0 0 0 
0 0 0 0 0 0 0 0 2.572213e-01 6.745938e+01 3.194914e+02 2.967845e+02 4.449528e+01 0 0 0 0 0 0 0 4.449528e+01 2.967845e+02 3.194914e+02 6.745938e+01 2.572213e-01 0 0 0 0 0 0 0 
0 0 0 0 0 0 0 0 1.287460e+00 5.477638e+01 1.212728e+02 7.505489e+01 7.271046e+00 0 0 0 0 0 0 0 7.271046e+00 7.505489e+01 1.212728e+02 5.477638e+01 1.287460e+00 0 0 0 0 0 0 0 
0 0 0 0 0 0 0 0 3.312422e-01 4.130444e+01 6.596771e+01 2.494594e+01 -4.856749e-02 0 0 0 0 0 0 0 -4.856749e-02 2.494594e+01 6.596771e+01 4.130444e+01 3.312422e-01 0 0 0 0 0 0 0 
0 0 0 0 0 0 0 0 -5.179218e+00 -3.007040e+01 -2.838669e+01 -3.495503e+00 0 0 0 0 0 0 0 0 0 -3.495503e+00 -2.838669e+01 -3.007040e+01 -5.179218e+00 0 0 0 0 0 0 0 
0 0 0 0 0 0 0 0 -2.404816e+01 -1.511651e+02 -1.559257e+02 -2.880869e+01 0 0 0 0 0 0 0 0 0 -2.880869e+01 -1.559257e+02 -1.511651e+02 -2.404816e+01 0 0 0 0 0 0 0 
0 0 0 0 0 0 0 0 -3.381807e+01 -2.051699e+02 -2.086580e+02 -3.730616e+01 0 0 0 0 0 0 0 0 0 -3.730616e+01 -2.086580e+02 -2.051699e+02 -3.381807e+01 0 0 0 0 0 0 0 
0 0 0 0 0 0 0 0 -2.112958e+01 -1.196265e+02 -1.182276e+02 -1.973072e+01 0 0 0 0 0 0 0 0 0 -1.973072e+01 -1.182276e+02 -1.196265e+02 -2.112958e+01 0 0 0 0 0 0 0 
0 0 0 0 0 0 0 0 -1.460489e-12 -7.106048e-12 -6.538667e-12 -8.952184e-13 0 0 0 0 0 0 0 0 0 3.287564e-12 2.373124e-11 2.568656e-11 5.244259e-12 0 0 0 0 0 0 0 
0 0 0 0 0 0 0 0 2.112958e+01 1.196265e+02 1.182276e+02 1.973072e+01 0 0 0 0 0 0 0 0 0 1.973072e+01 1.182276e+02 1.196265e+02 2.112958e+01 0 0 0 0 0 0 0 
0 0 0 0 0 0 0 0 3.381807e+01 2.051699e+02 2.086580e+02 3.730616e+01 0 0 0 0 0 0 0 0 0 3.730616e+01 2.086580e+02 2.051699e+02 3.381807e+01 0 0 0 0 0 0 0 
0 0 0 0 0 0 0 0 2.404816e+01 1.511651e+02 1.559257e+02 2.880869e+01 0 0 0 0 0 0 0 0 0 2.880869e+01 1.559257e+02 1.511651e+02 2.404816e+01 0 0 0 0 0 0 0 
0 0 0 0 0 0 0 0 5.179218e+00 3.007040e+01 2.838669e+01 3.495503e+00 0 0 0 0 0 0 0 0 0 3.495503e+00 2.838669e+01 3.007040e+01 5.179218e+00 0 0 0 0 0 0 0 
0 0 0 0 0 0 0 0 -3.312422e-01 -4.130444e+01 -6.596771e+01 -2.494594e+01 4.856749e-02 0 0 0 0 0 0 0 4.856749e-02 -2.494594e+01 -6.596771e+01 -4.130444e+01 -3.312422e-01 0 0 0 0 0 0 0 
0 0 0 0 0 0 0 0 -1.287460e+00 -5.477638e+01 -1.212728e+02 -7.505489e+01 -7.271046e+00 0 0 0 0 0 0 0 -7.271046e+00 -7.505489e+01 -1.212728e+02 -5.477638e+01 -1.287460e+00 0 0 0 0 0 0 0 
0 0 0 0 0 0 0 0 -2.572213e-01 -6.745938e+01 -3.194914e+02 -2.967845e+02 -4.449528e+01 0 0 0 0 0 0 0 -4.449528e+01 -2.967845e+02 -3.194914e+02 -6.745938e+01 -2.572213e-01 0 0 0 0 0 0 0 
0 0 0 0 0 0 0 0 0 -6.674919e+01 -4.412717e+02 -6.148996e+02 -2.550161e+02 -1.463905e+01 0 0 0 0 0 -1.463905e+01 -2.550161e+02 -6.148996e+02 -4.412717e+02 -6.674919e+01 0 0 0 0 0 0 0 0 
0 0 0 0 0 0 0 0 0 -1.109024e+01 -2.727503e+02 -8.464520e+02 -7.944368e+02 -2.271373e+02 -1.749255e+01 0 0 0 -1.749255e+01 -2.271373e+02 -7.944368e+02 -8.464520e+02 -2.727503e+02 -1.109024e+01 0 0 0 0 0 0 0 0 
0 0 0 0 0 0 0 0 0 -2.217266e-01 -9.861920e+01 -6.401643e+02 -1.239936e+03 -1.137443e+03 -6.025965e+02 -2.215198e+02 -1.163942e+02 -2.215198e+02 -6.025965e+02 -1.137443e+03 -1.239936e+03 -6.401643e+02 -9.861920e+01 -2.217266e-01 0 0 0 0 0 0 0 0 
0 0 0 0 0 0 0 0 0 0 -3.688163e+00 -1.760507e+02 -8.544953e+02 -1.676769e+03 -1.910752e+03 -1.685429e+03 -1.538625e+03 -1.685429e+03 -1.910752e+03 -1.676769e+03 -8.544953e+02 -1.760507e+02 -3.688163e+00 0 0 0 0 0 0 0 0 0 
0 0 0 0 0 0 0 0 0 0 0 -1.218618e+01 -1.912135e+02 -7.943934e+02 -1.548064e+03 -1.937434e+03 -2.009471e+03 -1.937434e+03 -1.548064e+03 -7.943934e+02 -1.912135e+02 -1.218618e+01 0 0 0 0 0 0 0 0 0 0 
0 0 0 0 0 0 0 0 0 0 0 0 -5.810005e-02 -4.256929e+01 -2.224160e+02 -4.735249e+02 -5.872403e+02 -4.735249e+02 -2.224160e+02 -4.256929e+01 -5.810005e-02 0 0 0 0 0 0 0 0 0 0 0 
0 0 0 0 0 0 0 0 0 0 0 0 0 0 0 0 0 0 0 0 0 0 0 0 0 0 0 0 0 0 0 0 
0 0 0 0 0 0 0 0 0 0 0 0 0 0 0 0 0 0 0 0 0 0 0 0 0 0 0 0 0 0 0 0 
