# vtk DataFile Version 2.0
Comment goes here
ASCII

DATASET STRUCTURED_POINTS
FIELD FieldData 1
TIME 1 1 double
0.58000000
DIMENSIONS    32   32   1

ORIGIN    0.000   0.000   0.000
SPACING   0.03125 0.03125   1.000

POINT_DATA   1024
SCALARS fY double
LOOKUP_TABLE default

0 0 0 0 0 0 0 0 0 0 0 0 0 0 0 0 0 0 0 0 0 0 0 0 0 0 0 0 0 0 0 0 
0 0 0 0 0 0 0 0 0 0 0 0 0 0 0 0 0 0 0 0 0 0 0 0 0 0 0 0 0 0 0 0 
0 0 0 0 0 0 0 0 0 0 0 0 0 0 0 0 0 0 0 0 0 0 0 0 0 0 0 0 0 0 0 0 
0 0 0 0 0 0 0 0 0 0 0 0 0 0 0 0 0 0 0 0 0 0 0 0 0 0 0 0 0 0 0 0 
0 0 0 0 0 0 0 0 0 0 0 0 0 0 0 0 0 0 0 0 0 0 0 0 0 0 0 0 0 0 0 0 
0 0 0 0 0 0 0 0 0 0 0 0 0 0 0 0 0 0 0 0 0 0 0 0 0 0 0 0 0 0 0 0 
0 0 0 0 0 0 0 0 0 0 0 0 0 0 0 0 0 0 0 0 0 0 0 0 0 0 0 0 0 0 0 0 
0 0 0 0 0 0 0 0 0 0 0 1.375362e-01 3.665360e+00 2.240978e+01 5.808472e+01 8.745313e+01 9.650072e+01 8.745313e+01 5.808472e+01 2.240978e+01 3.665360e+00 1.375362e-01 0 0 0 0 0 0 0 0 0 0 
0 0 0 0 0 0 0 0 0 1.577465e+00 2.632614e+01 1.382073e+02 3.356192e+02 4.778587e+02 5.530724e+02 5.903256e+02 5.859026e+02 5.903256e+02 5.530724e+02 4.778587e+02 3.356192e+02 1.382073e+02 2.632614e+01 1.577465e+00 0 0 0 0 0 0 0 0 
0 0 0 0 0 0 0 2.243415e-01 1.316878e+01 1.633376e+02 4.545790e+02 6.545279e+02 7.650105e+02 7.586691e+02 6.740830e+02 6.281601e+02 5.961555e+02 6.281601e+02 6.740830e+02 7.586691e+02 7.650105e+02 6.545279e+02 4.545790e+02 1.633376e+02 1.316878e+01 2.243415e-01 0 0 0 0 0 0 
0 0 0 0 0 0 0 2.690014e+01 2.430104e+02 6.204826e+02 8.468274e+02 7.041922e+02 4.606322e+02 3.060796e+02 1.790953e+02 1.252876e+02 1.067537e+02 1.252876e+02 1.790953e+02 3.060796e+02 4.606322e+02 7.041922e+02 8.468274e+02 6.204826e+02 2.430104e+02 2.690014e+01 0 0 0 0 0 0 
0 0 0 0 0 0 2.308940e+01 2.640388e+02 6.842622e+02 7.558061e+02 4.775525e+02 1.897752e+02 2.757544e+01 2.859436e+00 0 0 0 0 0 2.859436e+00 2.757544e+01 1.897752e+02 4.775525e+02 7.558061e+02 6.842622e+02 2.640388e+02 2.308940e+01 0 0 0 0 0 
0 0 0 0 0 1.133498e+00 1.275997e+02 6.314202e+02 8.158141e+02 3.681947e+02 5.937573e+01 2.041238e+00 0 0 0 0 0 0 0 0 0 2.041238e+00 5.937573e+01 3.681947e+02 8.158141e+02 6.314202e+02 1.275997e+02 1.133498e+00 0 0 0 0 
0 0 0 0 0 1.229792e+01 2.710491e+02 6.475841e+02 4.608962e+02 7.246106e+01 3.978317e-01 0 0 0 0 0 0 0 0 0 0 0 3.978317e-01 7.246106e+01 4.608962e+02 6.475841e+02 2.710491e+02 1.229792e+01 0 0 0 0 
0 0 0 0 0 3.491349e+01 3.068390e+02 3.981017e+02 1.275262e+02 1.350028e+00 0 0 0 0 0 0 0 0 0 0 0 0 0 1.350028e+00 1.275262e+02 3.981017e+02 3.068390e+02 3.491349e+01 0 0 0 0 
0 0 0 0 0 3.887922e+01 2.035137e+02 1.988195e+02 3.418498e+01 0 0 0 0 0 0 0 0 0 0 0 0 0 0 0 3.418498e+01 1.988195e+02 2.035137e+02 3.887922e+01 0 0 0 0 
0 0 0 0 0 4.924488e-12 1.347544e-11 8.858692e-12 3.127274e-13 0 0 0 0 0 0 0 0 0 0 0 0 0 0 0 3.094523e-12 -3.486325e-12 -1.789329e-11 -1.130723e-11 0 0 0 0 
0 0 0 0 0 -3.887922e+01 -2.035137e+02 -1.988195e+02 -3.418498e+01 0 0 0 0 0 0 0 0 0 0 0 0 0 0 0 -3.418498e+01 -1.988195e+02 -2.035137e+02 -3.887922e+01 0 0 0 0 
0 0 0 0 0 -3.491349e+01 -3.068390e+02 -3.981017e+02 -1.275262e+02 -1.350028e+00 0 0 0 0 0 0 0 0 0 0 0 0 0 -1.350028e+00 -1.275262e+02 -3.981017e+02 -3.068390e+02 -3.491349e+01 0 0 0 0 
0 0 0 0 0 -1.229792e+01 -2.710491e+02 -6.475841e+02 -4.608962e+02 -7.246106e+01 -3.978317e-01 0 0 0 0 0 0 0 0 0 0 0 -3.978317e-01 -7.246106e+01 -4.608962e+02 -6.475841e+02 -2.710491e+02 -1.229792e+01 0 0 0 0 
0 0 0 0 0 -1.133498e+00 -1.275997e+02 -6.314202e+02 -8.158141e+02 -3.681947e+02 -5.937573e+01 -2.041238e+00 0 0 0 0 0 0 0 0 0 -2.041238e+00 -5.937573e+01 -3.681947e+02 -8.158141e+02 -6.314202e+02 -1.275997e+02 -1.133498e+00 0 0 0 0 
0 0 0 0 0 0 -2.308940e+01 -2.640388e+02 -6.842622e+02 -7.558061e+02 -4.775525e+02 -1.897752e+02 -2.757544e+01 -2.859436e+00 0 0 0 0 0 -2.859436e+00 -2.757544e+01 -1.897752e+02 -4.775525e+02 -7.558061e+02 -6.842622e+02 -2.640388e+02 -2.308940e+01 0 0 0 0 0 
0 0 0 0 0 0 0 -2.690014e+01 -2.430104e+02 -6.204826e+02 -8.468274e+02 -7.041922e+02 -4.606322e+02 -3.060796e+02 -1.790953e+02 -1.252876e+02 -1.067537e+02 -1.252876e+02 -1.790953e+02 -3.060796e+02 -4.606322e+02 -7.041922e+02 -8.468274e+02 -6.204826e+02 -2.430104e+02 -2.690014e+01 0 0 0 0 0 0 
0 0 0 0 0 0 0 -2.243415e-01 -1.316878e+01 -1.633376e+02 -4.545790e+02 -6.545279e+02 -7.650105e+02 -7.586691e+02 -6.740830e+02 -6.281601e+02 -5.961555e+02 -6.281601e+02 -6.740830e+02 -7.586691e+02 -7.650105e+02 -6.545279e+02 -4.545790e+02 -1.633376e+02 -1.316878e+01 -2.243415e-01 0 0 0 0 0 0 
0 0 0 0 0 0 0 0 0 -1.577465e+00 -2.632614e+01 -1.382073e+02 -3.356192e+02 -4.778587e+02 -5.530724e+02 -5.903256e+02 -5.859026e+02 -5.903256e+02 -5.530724e+02 -4.778587e+02 -3.356192e+02 -1.382073e+02 -2.632614e+01 -1.577465e+00 0 0 0 0 0 0 0 0 
0 0 0 0 0 0 0 0 0 0 0 -1.375362e-01 -3.665360e+00 -2.240978e+01 -5.808472e+01 -8.745313e+01 -9.650072e+01 -8.745313e+01 -5.808472e+01 -2.240978e+01 -3.665360e+00 -1.375362e-01 0 0 0 0 0 0 0 0 0 0 
0 0 0 0 0 0 0 0 0 0 0 0 0 0 0 0 0 0 0 0 0 0 0 0 0 0 0 0 0 0 0 0 
0 0 0 0 0 0 0 0 0 0 0 0 0 0 0 0 0 0 0 0 0 0 0 0 0 0 0 0 0 0 0 0 
0 0 0 0 0 0 0 0 0 0 0 0 0 0 0 0 0 0 0 0 0 0 0 0 0 0 0 0 0 0 0 0 
0 0 0 0 0 0 0 0 0 0 0 0 0 0 0 0 0 0 0 0 0 0 0 0 0 0 0 0 0 0 0 0 
0 0 0 0 0 0 0 0 0 0 0 0 0 0 0 0 0 0 0 0 0 0 0 0 0 0 0 0 0 0 0 0 
0 0 0 0 0 0 0 0 0 0 0 0 0 0 0 0 0 0 0 0 0 0 0 0 0 0 0 0 0 0 0 0 
