# vtk DataFile Version 2.0
Comment goes here
ASCII

DATASET STRUCTURED_POINTS
FIELD FieldData 1
TIME 1 1 double
0.34000000
DIMENSIONS    32   32   1

ORIGIN    0.000   0.000   0.000
SPACING   0.03125 0.03125   1.000

POINT_DATA   1024
SCALARS fY double
LOOKUP_TABLE default

0 0 0 0 0 0 0 0 0 0 0 0 0 0 0 0 0 0 0 0 0 0 0 0 0 0 0 0 0 0 0 0 
0 0 0 0 0 0 0 0 0 0 0 0 0 0 0 0 0 0 0 0 0 0 0 0 0 0 0 0 0 0 0 0 
0 0 0 0 0 0 0 0 0 0 0 0 0 0 0 0 0 0 0 0 0 0 0 0 0 0 0 0 0 0 0 0 
0 0 0 0 0 0 0 0 0 0 0 0 0 0 0 0 0 0 0 0 0 0 0 0 0 0 0 0 0 0 0 0 
0 0 0 0 0 0 0 0 0 0 0 0 4.083808e-01 1.514915e+01 8.386315e+01 2.042495e+02 2.702543e+02 2.042495e+02 8.386315e+01 1.514915e+01 4.083808e-01 0 0 0 0 0 0 0 0 0 0 0 
0 0 0 0 0 0 0 0 0 0 0 7.901353e+00 1.421012e+02 5.874396e+02 1.018288e+03 1.242642e+03 1.355188e+03 1.242642e+03 1.018288e+03 5.874396e+02 1.421012e+02 7.901353e+00 0 0 0 0 0 0 0 0 0 0 
0 0 0 0 0 0 0 0 0 0 1.861962e+01 2.208284e+02 7.214395e+02 1.315269e+03 1.460070e+03 1.300496e+03 1.272928e+03 1.300496e+03 1.460070e+03 1.315269e+03 7.214395e+02 2.208284e+02 1.861962e+01 0 0 0 0 0 0 0 0 0 
0 0 0 0 0 0 0 0 0 3.418921e+00 1.764022e+02 7.578339e+02 1.111399e+03 8.941713e+02 5.357291e+02 2.621035e+02 1.879948e+02 2.621035e+02 5.357291e+02 8.941713e+02 1.111399e+03 7.578339e+02 1.764022e+02 3.418921e+00 0 0 0 0 0 0 0 0 
0 0 0 0 0 0 0 0 5.978543e-02 6.169732e+01 4.961952e+02 9.584581e+02 6.719798e+02 1.581636e+02 1.008416e+01 0 0 0 1.008416e+01 1.581636e+02 6.719798e+02 9.584581e+02 4.961952e+02 6.169732e+01 5.978543e-02 0 0 0 0 0 0 0 
0 0 0 0 0 0 0 0 3.255782e+00 1.888007e+02 6.284315e+02 5.889288e+02 1.530127e+02 6.970412e+00 0 0 0 0 0 6.970412e+00 1.530127e+02 5.889288e+02 6.284315e+02 1.888007e+02 3.255782e+00 0 0 0 0 0 0 0 
0 0 0 0 0 0 0 0 2.756806e+01 3.026856e+02 4.879721e+02 2.255397e+02 1.268510e+01 0 0 0 0 0 0 0 1.268510e+01 2.255397e+02 4.879721e+02 3.026856e+02 2.756806e+01 0 0 0 0 0 0 0 
0 0 0 0 0 0 0 0 6.652521e+01 3.341198e+02 3.322083e+02 6.461366e+01 0 0 0 0 0 0 0 0 0 6.461366e+01 3.322083e+02 3.341198e+02 6.652521e+01 0 0 0 0 0 0 0 
0 0 0 0 0 0 0 2.815440e-01 7.871311e+01 2.384267e+02 1.757639e+02 1.576882e+01 0 0 0 0 0 0 0 0 0 1.576882e+01 1.757639e+02 2.384267e+02 7.871311e+01 2.815440e-01 0 0 0 0 0 0 
0 0 0 0 0 0 0 3.860633e-01 7.695437e+01 1.486212e+02 7.337746e+01 1.324551e+00 0 0 0 0 0 0 0 0 0 1.324551e+00 7.337746e+01 1.486212e+02 7.695437e+01 3.860633e-01 0 0 0 0 0 0 
0 0 0 0 0 0 0 -8.965262e-02 3.414151e+01 6.295026e+01 2.872649e+01 7.386547e-03 0 0 0 0 0 0 0 0 0 7.386547e-03 2.872649e+01 6.295026e+01 3.414151e+01 -8.965262e-02 0 0 0 0 0 0 
0 0 0 0 0 0 0 4.733285e-01 3.140373e+00 3.164749e+00 4.977046e-01 0 0 0 0 0 0 0 0 0 0 0 4.977046e-01 3.164749e+00 3.140373e+00 4.733285e-01 0 0 0 0 0 0 
0 0 0 0 0 0 0 1.898849e-12 -2.695838e-11 -5.114191e-11 -2.228572e-11 0 0 0 0 0 0 0 0 0 0 0 6.515788e-12 1.396605e-11 6.659296e-12 -7.905371e-13 0 0 0 0 0 0 
0 0 0 0 0 0 0 -4.733285e-01 -3.140373e+00 -3.164749e+00 -4.977046e-01 0 0 0 0 0 0 0 0 0 0 0 -4.977046e-01 -3.164749e+00 -3.140373e+00 -4.733285e-01 0 0 0 0 0 0 
0 0 0 0 0 0 0 8.965262e-02 -3.414151e+01 -6.295026e+01 -2.872649e+01 -7.386547e-03 0 0 0 0 0 0 0 0 0 -7.386547e-03 -2.872649e+01 -6.295026e+01 -3.414151e+01 8.965262e-02 0 0 0 0 0 0 
0 0 0 0 0 0 0 -3.860633e-01 -7.695437e+01 -1.486212e+02 -7.337746e+01 -1.324551e+00 0 0 0 0 0 0 0 0 0 -1.324551e+00 -7.337746e+01 -1.486212e+02 -7.695437e+01 -3.860633e-01 0 0 0 0 0 0 
0 0 0 0 0 0 0 -2.815440e-01 -7.871311e+01 -2.384267e+02 -1.757639e+02 -1.576882e+01 0 0 0 0 0 0 0 0 0 -1.576882e+01 -1.757639e+02 -2.384267e+02 -7.871311e+01 -2.815440e-01 0 0 0 0 0 0 
0 0 0 0 0 0 0 0 -6.652521e+01 -3.341198e+02 -3.322083e+02 -6.461366e+01 0 0 0 0 0 0 0 0 0 -6.461366e+01 -3.322083e+02 -3.341198e+02 -6.652521e+01 0 0 0 0 0 0 0 
0 0 0 0 0 0 0 0 -2.756806e+01 -3.026856e+02 -4.879721e+02 -2.255397e+02 -1.268510e+01 0 0 0 0 0 0 0 -1.268510e+01 -2.255397e+02 -4.879721e+02 -3.026856e+02 -2.756806e+01 0 0 0 0 0 0 0 
0 0 0 0 0 0 0 0 -3.255782e+00 -1.888007e+02 -6.284315e+02 -5.889288e+02 -1.530127e+02 -6.970412e+00 0 0 0 0 0 -6.970412e+00 -1.530127e+02 -5.889288e+02 -6.284315e+02 -1.888007e+02 -3.255782e+00 0 0 0 0 0 0 0 
0 0 0 0 0 0 0 0 -5.978543e-02 -6.169732e+01 -4.961952e+02 -9.584581e+02 -6.719798e+02 -1.581636e+02 -1.008416e+01 0 0 0 -1.008416e+01 -1.581636e+02 -6.719798e+02 -9.584581e+02 -4.961952e+02 -6.169732e+01 -5.978543e-02 0 0 0 0 0 0 0 
0 0 0 0 0 0 0 0 0 -3.418921e+00 -1.764022e+02 -7.578339e+02 -1.111399e+03 -8.941713e+02 -5.357291e+02 -2.621035e+02 -1.879948e+02 -2.621035e+02 -5.357291e+02 -8.941713e+02 -1.111399e+03 -7.578339e+02 -1.764022e+02 -3.418921e+00 0 0 0 0 0 0 0 0 
0 0 0 0 0 0 0 0 0 0 -1.861962e+01 -2.208284e+02 -7.214395e+02 -1.315269e+03 -1.460070e+03 -1.300496e+03 -1.272928e+03 -1.300496e+03 -1.460070e+03 -1.315269e+03 -7.214395e+02 -2.208284e+02 -1.861962e+01 0 0 0 0 0 0 0 0 0 
0 0 0 0 0 0 0 0 0 0 0 -7.901353e+00 -1.421012e+02 -5.874396e+02 -1.018288e+03 -1.242642e+03 -1.355188e+03 -1.242642e+03 -1.018288e+03 -5.874396e+02 -1.421012e+02 -7.901353e+00 0 0 0 0 0 0 0 0 0 0 
0 0 0 0 0 0 0 0 0 0 0 0 -4.083808e-01 -1.514915e+01 -8.386315e+01 -2.042495e+02 -2.702543e+02 -2.042495e+02 -8.386315e+01 -1.514915e+01 -4.083808e-01 0 0 0 0 0 0 0 0 0 0 0 
0 0 0 0 0 0 0 0 0 0 0 0 0 0 0 0 0 0 0 0 0 0 0 0 0 0 0 0 0 0 0 0 
0 0 0 0 0 0 0 0 0 0 0 0 0 0 0 0 0 0 0 0 0 0 0 0 0 0 0 0 0 0 0 0 
0 0 0 0 0 0 0 0 0 0 0 0 0 0 0 0 0 0 0 0 0 0 0 0 0 0 0 0 0 0 0 0 
