# vtk DataFile Version 2.0
Comment goes here
ASCII

DATASET STRUCTURED_POINTS
FIELD FieldData 1
TIME 1 1 double
0.14000000
DIMENSIONS    32   32   1

ORIGIN    0.000   0.000   0.000
SPACING   0.03125 0.03125   1.000

POINT_DATA   1024
SCALARS fY double
LOOKUP_TABLE default

0 0 0 0 0 0 0 0 0 0 0 0 0 0 0 0 0 0 0 0 0 0 0 0 0 0 0 0 0 0 0 0 
0 0 0 0 0 0 0 0 0 0 0 0 0 0 0 0 0 0 0 0 0 0 0 0 0 0 0 0 0 0 0 0 
0 0 0 0 0 0 0 0 0 0 0 0 0 0 0 0 0 0 0 0 0 0 0 0 0 0 0 0 0 0 0 0 
0 0 0 0 0 0 0 0 0 0 0 0 0 0 0 0 0 0 0 0 0 0 0 0 0 0 0 0 0 0 0 0 
0 0 0 0 0 0 0 0 0 0 0 0 0 4.347200e+00 3.049202e+01 7.899178e+01 1.056939e+02 7.899178e+01 3.049202e+01 4.347200e+00 0 0 0 0 0 0 0 0 0 0 0 0 
0 0 0 0 0 0 0 0 0 0 6.250124e-03 7.203486e+00 1.063399e+02 4.088806e+02 7.688091e+02 9.678630e+02 1.017584e+03 9.678630e+02 7.688091e+02 4.088806e+02 1.063399e+02 7.203486e+00 6.250124e-03 0 0 0 0 0 0 0 0 0 
0 0 0 0 0 0 0 0 0 0 1.974372e+01 2.177662e+02 6.713580e+02 1.150409e+03 1.338572e+03 1.269996e+03 1.216994e+03 1.269996e+03 1.338572e+03 1.150409e+03 6.713580e+02 2.177662e+02 1.974372e+01 0 0 0 0 0 0 0 0 0 
0 0 0 0 0 0 0 0 0 1.246920e+01 2.270941e+02 7.582996e+02 1.046351e+03 8.894851e+02 6.158056e+02 3.815485e+02 3.051041e+02 3.815485e+02 6.158056e+02 8.894851e+02 1.046351e+03 7.582996e+02 2.270941e+02 1.246920e+01 0 0 0 0 0 0 0 0 
0 0 0 0 0 0 0 0 9.502587e-01 1.450800e+02 7.404652e+02 1.067209e+03 6.030670e+02 1.473201e+02 1.555030e+01 4.238597e-01 0 4.238597e-01 1.555030e+01 1.473201e+02 6.030670e+02 1.067209e+03 7.404652e+02 1.450800e+02 9.502587e-01 0 0 0 0 0 0 0 
0 0 0 0 0 0 0 0 1.848011e+01 3.829580e+02 9.635504e+02 7.267524e+02 1.313904e+02 3.710522e+00 0 0 0 0 0 3.710522e+00 1.313904e+02 7.267524e+02 9.635504e+02 3.829580e+02 1.848011e+01 0 0 0 0 0 0 0 
0 0 0 0 0 0 0 0 6.104975e+01 4.771855e+02 6.550008e+02 2.485210e+02 9.656003e+00 0 0 0 0 0 0 0 9.656003e+00 2.485210e+02 6.550008e+02 4.771855e+02 6.104975e+01 0 0 0 0 0 0 0 
0 0 0 0 0 0 0 3.821325e-01 6.188709e+01 2.743361e+02 2.569524e+02 4.412130e+01 0 0 0 0 0 0 0 0 0 4.412130e+01 2.569524e+02 2.743361e+02 6.188709e+01 3.821325e-01 0 0 0 0 0 0 
0 0 0 0 0 0 0 8.300976e+00 8.051481e+01 1.181467e+02 4.881688e+01 2.884008e+00 0 0 0 0 0 0 0 0 0 2.884008e+00 4.881688e+01 1.181467e+02 8.051481e+01 8.300976e+00 0 0 0 0 0 0 
0 0 0 0 0 0 0 6.091842e+01 3.312615e+02 3.250641e+02 5.472436e+01 3.287845e-03 0 0 0 0 0 0 0 0 0 3.287845e-03 5.472436e+01 3.250641e+02 3.312615e+02 6.091842e+01 0 0 0 0 0 0 
0 0 0 0 0 0 0 1.248553e+02 5.786900e+02 5.241820e+02 7.034722e+01 0 0 0 0 0 0 0 0 0 0 0 7.034722e+01 5.241820e+02 5.786900e+02 1.248553e+02 0 0 0 0 0 0 
0 0 0 0 0 0 0 1.001726e+02 4.171869e+02 3.571717e+02 4.015748e+01 0 0 0 0 0 0 0 0 0 0 0 4.015748e+01 3.571717e+02 4.171869e+02 1.001726e+02 0 0 0 0 0 0 
0 0 0 0 0 0 0 1.811054e-12 4.191732e-12 2.154139e-12 -2.080454e-13 0 0 0 0 0 0 0 0 0 0 0 -8.935738e-14 -8.370376e-12 -1.279996e-11 -4.519024e-12 0 0 0 0 0 0 
0 0 0 0 0 0 0 -1.001726e+02 -4.171869e+02 -3.571717e+02 -4.015748e+01 0 0 0 0 0 0 0 0 0 0 0 -4.015748e+01 -3.571717e+02 -4.171869e+02 -1.001726e+02 0 0 0 0 0 0 
0 0 0 0 0 0 0 -1.248553e+02 -5.786900e+02 -5.241820e+02 -7.034722e+01 0 0 0 0 0 0 0 0 0 0 0 -7.034722e+01 -5.241820e+02 -5.786900e+02 -1.248553e+02 0 0 0 0 0 0 
0 0 0 0 0 0 0 -6.091842e+01 -3.312615e+02 -3.250641e+02 -5.472436e+01 -3.287845e-03 0 0 0 0 0 0 0 0 0 -3.287845e-03 -5.472436e+01 -3.250641e+02 -3.312615e+02 -6.091842e+01 0 0 0 0 0 0 
0 0 0 0 0 0 0 -8.300976e+00 -8.051481e+01 -1.181467e+02 -4.881688e+01 -2.884008e+00 0 0 0 0 0 0 0 0 0 -2.884008e+00 -4.881688e+01 -1.181467e+02 -8.051481e+01 -8.300976e+00 0 0 0 0 0 0 
0 0 0 0 0 0 0 -3.821325e-01 -6.188709e+01 -2.743361e+02 -2.569524e+02 -4.412130e+01 0 0 0 0 0 0 0 0 0 -4.412130e+01 -2.569524e+02 -2.743361e+02 -6.188709e+01 -3.821325e-01 0 0 0 0 0 0 
0 0 0 0 0 0 0 0 -6.104975e+01 -4.771855e+02 -6.550008e+02 -2.485210e+02 -9.656003e+00 0 0 0 0 0 0 0 -9.656003e+00 -2.485210e+02 -6.550008e+02 -4.771855e+02 -6.104975e+01 0 0 0 0 0 0 0 
0 0 0 0 0 0 0 0 -1.848011e+01 -3.829580e+02 -9.635504e+02 -7.267524e+02 -1.313904e+02 -3.710522e+00 0 0 0 0 0 -3.710522e+00 -1.313904e+02 -7.267524e+02 -9.635504e+02 -3.829580e+02 -1.848011e+01 0 0 0 0 0 0 0 
0 0 0 0 0 0 0 0 -9.502587e-01 -1.450800e+02 -7.404652e+02 -1.067209e+03 -6.030670e+02 -1.473201e+02 -1.555030e+01 -4.238597e-01 0 -4.238597e-01 -1.555030e+01 -1.473201e+02 -6.030670e+02 -1.067209e+03 -7.404652e+02 -1.450800e+02 -9.502587e-01 0 0 0 0 0 0 0 
0 0 0 0 0 0 0 0 0 -1.246920e+01 -2.270941e+02 -7.582996e+02 -1.046351e+03 -8.894851e+02 -6.158056e+02 -3.815485e+02 -3.051041e+02 -3.815485e+02 -6.158056e+02 -8.894851e+02 -1.046351e+03 -7.582996e+02 -2.270941e+02 -1.246920e+01 0 0 0 0 0 0 0 0 
0 0 0 0 0 0 0 0 0 0 -1.974372e+01 -2.177662e+02 -6.713580e+02 -1.150409e+03 -1.338572e+03 -1.269996e+03 -1.216994e+03 -1.269996e+03 -1.338572e+03 -1.150409e+03 -6.713580e+02 -2.177662e+02 -1.974372e+01 0 0 0 0 0 0 0 0 0 
0 0 0 0 0 0 0 0 0 0 -6.250124e-03 -7.203486e+00 -1.063399e+02 -4.088806e+02 -7.688091e+02 -9.678630e+02 -1.017584e+03 -9.678630e+02 -7.688091e+02 -4.088806e+02 -1.063399e+02 -7.203486e+00 -6.250124e-03 0 0 0 0 0 0 0 0 0 
0 0 0 0 0 0 0 0 0 0 0 0 0 -4.347200e+00 -3.049202e+01 -7.899178e+01 -1.056939e+02 -7.899178e+01 -3.049202e+01 -4.347200e+00 0 0 0 0 0 0 0 0 0 0 0 0 
0 0 0 0 0 0 0 0 0 0 0 0 0 0 0 0 0 0 0 0 0 0 0 0 0 0 0 0 0 0 0 0 
0 0 0 0 0 0 0 0 0 0 0 0 0 0 0 0 0 0 0 0 0 0 0 0 0 0 0 0 0 0 0 0 
0 0 0 0 0 0 0 0 0 0 0 0 0 0 0 0 0 0 0 0 0 0 0 0 0 0 0 0 0 0 0 0 
