# vtk DataFile Version 2.0
Comment goes here
ASCII

DATASET STRUCTURED_POINTS
FIELD FieldData 1
TIME 1 1 double
0.20000000
DIMENSIONS    32   32   1

ORIGIN    0.000   0.000   0.000
SPACING   0.03125 0.03125   1.000

POINT_DATA   1024
SCALARS fY double
LOOKUP_TABLE default

0 0 0 0 0 0 0 0 0 0 0 0 0 0 0 0 0 0 0 0 0 0 0 0 0 0 0 0 0 0 0 0 
0 0 0 0 0 0 0 0 0 0 0 0 0 0 0 0 0 0 0 0 0 0 0 0 0 0 0 0 0 0 0 0 
0 0 0 0 0 0 0 0 0 0 0 0 0 0 0 0 0 0 0 0 0 0 0 0 0 0 0 0 0 0 0 0 
0 0 0 0 0 0 0 0 0 0 0 0 0 0 0 0 0 0 0 0 0 0 0 0 0 0 0 0 0 0 0 0 
0 0 0 0 0 0 0 0 0 0 0 0 0 0 0 0 0 0 0 0 0 0 0 0 0 0 0 0 0 0 0 0 
0 0 0 0 0 0 0 0 0 0 0 0 2.549567e-03 3.023312e+00 1.602912e+01 3.295288e+01 3.988903e+01 3.295288e+01 1.602912e+01 3.023312e+00 2.549567e-03 0 0 0 0 0 0 0 0 0 0 0 
0 0 0 0 0 0 0 0 0 0 2.905342e-01 3.126649e+01 1.596640e+02 3.783622e+02 5.613205e+02 5.851309e+02 5.469690e+02 5.851309e+02 5.613205e+02 3.783622e+02 1.596640e+02 3.126649e+01 2.905342e-01 0 0 0 0 0 0 0 0 0 
0 0 0 0 0 0 0 0 0 6.540185e+00 1.428209e+02 5.434691e+02 8.717959e+02 9.574553e+02 9.583491e+02 8.243334e+02 7.176641e+02 8.243334e+02 9.583491e+02 9.574553e+02 8.717959e+02 5.434691e+02 1.428209e+02 6.540185e+00 0 0 0 0 0 0 0 0 
0 0 0 0 0 0 0 0 3.680118e+00 1.760840e+02 6.923952e+02 1.165114e+03 1.034094e+03 6.395822e+02 4.174738e+02 2.721554e+02 2.105842e+02 2.721554e+02 4.174738e+02 6.395822e+02 1.034094e+03 1.165114e+03 6.923952e+02 1.760840e+02 3.680118e+00 0 0 0 0 0 0 0 
0 0 0 0 0 0 0 1.992456e-01 8.694054e+01 6.424281e+02 1.150963e+03 8.737429e+02 3.315163e+02 5.746582e+01 4.416099e+00 0 0 0 4.416099e+00 5.746582e+01 3.315163e+02 8.737429e+02 1.150963e+03 6.424281e+02 8.694054e+01 1.992456e-01 0 0 0 0 0 0 
0 0 0 0 0 0 0 7.635020e+00 2.957165e+02 8.941460e+02 8.328216e+02 2.363133e+02 9.556289e+00 0 0 0 0 0 0 0 9.556289e+00 2.363133e+02 8.328216e+02 8.941460e+02 2.957165e+02 7.635020e+00 0 0 0 0 0 0 
0 0 0 0 0 0 0 4.671585e+01 4.179749e+02 6.354993e+02 2.797222e+02 1.548188e+01 0 0 0 0 0 0 0 0 0 1.548188e+01 2.797222e+02 6.354993e+02 4.179749e+02 4.671585e+01 0 0 0 0 0 0 
0 0 0 0 0 0 4.457481e-01 1.228532e+02 4.041442e+02 3.351817e+02 5.344495e+01 0 0 0 0 0 0 0 0 0 0 0 5.344495e+01 3.351817e+02 4.041442e+02 1.228532e+02 4.457481e-01 0 0 0 0 0 
0 0 0 0 0 0 7.336659e+00 2.327462e+02 4.220647e+02 2.022570e+02 5.601875e+00 0 0 0 0 0 0 0 0 0 0 0 5.601875e+00 2.022570e+02 4.220647e+02 2.327462e+02 7.336659e+00 0 0 0 0 0 
0 0 0 0 0 0 2.406854e+01 3.314311e+02 4.483929e+02 1.411863e+02 1.558332e-01 0 0 0 0 0 0 0 0 0 0 0 1.558332e-01 1.411863e+02 4.483929e+02 3.314311e+02 2.406854e+01 0 0 0 0 0 
0 0 0 0 0 0 2.726939e+01 2.655209e+02 3.195867e+02 8.133516e+01 0 0 0 0 0 0 0 0 0 0 0 0 0 8.133516e+01 3.195867e+02 2.655209e+02 2.726939e+01 0 0 0 0 0 
0 0 0 0 0 0 3.794097e-12 2.213552e-11 2.189428e-11 3.561644e-12 0 0 0 0 0 0 0 0 0 0 0 0 0 -5.778877e-12 -2.974535e-11 -2.818152e-11 -4.227831e-12 0 0 0 0 0 
0 0 0 0 0 0 -2.726939e+01 -2.655209e+02 -3.195867e+02 -8.133516e+01 0 0 0 0 0 0 0 0 0 0 0 0 0 -8.133516e+01 -3.195867e+02 -2.655209e+02 -2.726939e+01 0 0 0 0 0 
0 0 0 0 0 0 -2.406854e+01 -3.314311e+02 -4.483929e+02 -1.411863e+02 -1.558332e-01 0 0 0 0 0 0 0 0 0 0 0 -1.558332e-01 -1.411863e+02 -4.483929e+02 -3.314311e+02 -2.406854e+01 0 0 0 0 0 
0 0 0 0 0 0 -7.336659e+00 -2.327462e+02 -4.220647e+02 -2.022570e+02 -5.601875e+00 0 0 0 0 0 0 0 0 0 0 0 -5.601875e+00 -2.022570e+02 -4.220647e+02 -2.327462e+02 -7.336659e+00 0 0 0 0 0 
0 0 0 0 0 0 -4.457481e-01 -1.228532e+02 -4.041442e+02 -3.351817e+02 -5.344495e+01 0 0 0 0 0 0 0 0 0 0 0 -5.344495e+01 -3.351817e+02 -4.041442e+02 -1.228532e+02 -4.457481e-01 0 0 0 0 0 
0 0 0 0 0 0 0 -4.671585e+01 -4.179749e+02 -6.354993e+02 -2.797222e+02 -1.548188e+01 0 0 0 0 0 0 0 0 0 -1.548188e+01 -2.797222e+02 -6.354993e+02 -4.179749e+02 -4.671585e+01 0 0 0 0 0 0 
0 0 0 0 0 0 0 -7.635020e+00 -2.957165e+02 -8.941460e+02 -8.328216e+02 -2.363133e+02 -9.556289e+00 0 0 0 0 0 0 0 -9.556289e+00 -2.363133e+02 -8.328216e+02 -8.941460e+02 -2.957165e+02 -7.635020e+00 0 0 0 0 0 0 
0 0 0 0 0 0 0 -1.992456e-01 -8.694054e+01 -6.424281e+02 -1.150963e+03 -8.737429e+02 -3.315163e+02 -5.746582e+01 -4.416099e+00 0 0 0 -4.416099e+00 -5.746582e+01 -3.315163e+02 -8.737429e+02 -1.150963e+03 -6.424281e+02 -8.694054e+01 -1.992456e-01 0 0 0 0 0 0 
0 0 0 0 0 0 0 0 -3.680118e+00 -1.760840e+02 -6.923952e+02 -1.165114e+03 -1.034094e+03 -6.395822e+02 -4.174738e+02 -2.721554e+02 -2.105842e+02 -2.721554e+02 -4.174738e+02 -6.395822e+02 -1.034094e+03 -1.165114e+03 -6.923952e+02 -1.760840e+02 -3.680118e+00 0 0 0 0 0 0 0 
0 0 0 0 0 0 0 0 0 -6.540185e+00 -1.428209e+02 -5.434691e+02 -8.717959e+02 -9.574553e+02 -9.583491e+02 -8.243334e+02 -7.176641e+02 -8.243334e+02 -9.583491e+02 -9.574553e+02 -8.717959e+02 -5.434691e+02 -1.428209e+02 -6.540185e+00 0 0 0 0 0 0 0 0 
0 0 0 0 0 0 0 0 0 0 -2.905342e-01 -3.126649e+01 -1.596640e+02 -3.783622e+02 -5.613205e+02 -5.851309e+02 -5.469690e+02 -5.851309e+02 -5.613205e+02 -3.783622e+02 -1.596640e+02 -3.126649e+01 -2.905342e-01 0 0 0 0 0 0 0 0 0 
0 0 0 0 0 0 0 0 0 0 0 0 -2.549567e-03 -3.023312e+00 -1.602912e+01 -3.295288e+01 -3.988903e+01 -3.295288e+01 -1.602912e+01 -3.023312e+00 -2.549567e-03 0 0 0 0 0 0 0 0 0 0 0 
0 0 0 0 0 0 0 0 0 0 0 0 0 0 0 0 0 0 0 0 0 0 0 0 0 0 0 0 0 0 0 0 
0 0 0 0 0 0 0 0 0 0 0 0 0 0 0 0 0 0 0 0 0 0 0 0 0 0 0 0 0 0 0 0 
0 0 0 0 0 0 0 0 0 0 0 0 0 0 0 0 0 0 0 0 0 0 0 0 0 0 0 0 0 0 0 0 
0 0 0 0 0 0 0 0 0 0 0 0 0 0 0 0 0 0 0 0 0 0 0 0 0 0 0 0 0 0 0 0 
