# vtk DataFile Version 2.0
Comment goes here
ASCII

DATASET STRUCTURED_POINTS
FIELD FieldData 1
TIME 1 1 double
0.78000000
DIMENSIONS    32   32   1

ORIGIN    0.000   0.000   0.000
SPACING   0.03125 0.03125   1.000

POINT_DATA   1024
SCALARS fY double
LOOKUP_TABLE default

0 0 0 0 0 0 0 0 0 0 0 0 0 0 0 0 0 0 0 0 0 0 0 0 0 0 0 0 0 0 0 0 
0 0 0 0 0 0 0 0 0 0 0 0 0 0 0 0 0 0 0 0 0 0 0 0 0 0 0 0 0 0 0 0 
0 0 0 0 0 0 0 0 0 0 0 0 0 0 0 0 0 0 0 0 0 0 0 0 0 0 0 0 0 0 0 0 
0 0 0 0 0 0 0 0 0 0 0 0 0 0 0 0 0 0 0 0 0 0 0 0 0 0 0 0 0 0 0 0 
0 0 0 0 0 0 0 0 0 0 0 0 0 0 0 0 0 0 0 0 0 0 0 0 0 0 0 0 0 0 0 0 
0 0 0 0 0 0 0 0 0 0 0 0 0 0 0 0 0 0 0 0 0 0 0 0 0 0 0 0 0 0 0 0 
0 0 0 0 0 0 0 0 0 0 0 6.648307e-02 1.372933e+01 1.019822e+02 2.613462e+02 4.366785e+02 5.273033e+02 4.366785e+02 2.613462e+02 1.019822e+02 1.372933e+01 6.648307e-02 0 0 0 0 0 0 0 0 0 0 
0 0 0 0 0 0 0 0 0 0 1.616400e+00 6.476913e+01 3.482177e+02 7.735425e+02 1.017811e+03 1.134407e+03 1.210147e+03 1.134407e+03 1.017811e+03 7.735425e+02 3.482177e+02 6.476913e+01 1.616400e+00 0 0 0 0 0 0 0 0 0 
0 0 0 0 0 0 0 0 0 9.461383e-01 8.021673e+01 3.980536e+02 8.870822e+02 1.074367e+03 8.886412e+02 7.277990e+02 6.904508e+02 7.277990e+02 8.886412e+02 1.074367e+03 8.870822e+02 3.980536e+02 8.021673e+01 9.461383e-01 0 0 0 0 0 0 0 0 
0 0 0 0 0 0 0 0 0 4.284129e+01 3.648528e+02 7.560174e+02 7.482986e+02 4.206755e+02 1.326498e+02 3.007066e+01 7.607242e+00 3.007066e+01 1.326498e+02 4.206755e+02 7.482986e+02 7.560174e+02 3.648528e+02 4.284129e+01 0 0 0 0 0 0 0 0 
0 0 0 0 0 0 0 0 8.320602e+00 2.052510e+02 6.066275e+02 6.048339e+02 2.125333e+02 1.786999e+01 4.733803e-01 0 0 0 4.733803e-01 1.786999e+01 2.125333e+02 6.048339e+02 6.066275e+02 2.052510e+02 8.320602e+00 0 0 0 0 0 0 0 
0 0 0 0 0 0 0 1.505946e-02 4.823815e+01 3.741305e+02 5.417555e+02 2.326784e+02 1.683124e+01 8.854456e-04 0 0 0 0 0 8.854456e-04 1.683124e+01 2.326784e+02 5.417555e+02 3.741305e+02 4.823815e+01 1.505946e-02 0 0 0 0 0 0 
0 0 0 0 0 0 0 7.630608e-01 1.251030e+02 3.879906e+02 3.174304e+02 5.378248e+01 2.709400e-03 0 0 0 0 0 0 0 2.709400e-03 5.378248e+01 3.174304e+02 3.879906e+02 1.251030e+02 7.630608e-01 0 0 0 0 0 0 
0 0 0 0 0 0 0 5.353416e+00 1.623073e+02 2.889242e+02 1.352419e+02 3.271569e+00 0 0 0 0 0 0 0 0 0 3.271569e+00 1.352419e+02 2.889242e+02 1.623073e+02 5.353416e+00 0 0 0 0 0 0 
0 0 0 0 0 0 0 1.367922e+01 1.428383e+02 1.837022e+02 5.454308e+01 0 0 0 0 0 0 0 0 0 0 0 5.454308e+01 1.837022e+02 1.428383e+02 1.367922e+01 0 0 0 0 0 0 
0 0 0 0 0 0 0 1.568356e+01 1.046441e+02 1.111188e+02 2.215826e+01 0 0 0 0 0 0 0 0 0 0 0 2.215826e+01 1.111188e+02 1.046441e+02 1.568356e+01 0 0 0 0 0 0 
0 0 0 0 0 0 0 3.492762e-12 2.748859e-11 3.019183e-11 6.194685e-12 0 0 0 0 0 0 0 0 0 0 0 -3.050338e-12 -2.069012e-12 4.706333e-12 3.733478e-12 0 0 0 0 0 0 
0 0 0 0 0 0 0 -1.568356e+01 -1.046441e+02 -1.111188e+02 -2.215826e+01 0 0 0 0 0 0 0 0 0 0 0 -2.215826e+01 -1.111188e+02 -1.046441e+02 -1.568356e+01 0 0 0 0 0 0 
0 0 0 0 0 0 0 -1.367922e+01 -1.428383e+02 -1.837022e+02 -5.454308e+01 0 0 0 0 0 0 0 0 0 0 0 -5.454308e+01 -1.837022e+02 -1.428383e+02 -1.367922e+01 0 0 0 0 0 0 
0 0 0 0 0 0 0 -5.353416e+00 -1.623073e+02 -2.889242e+02 -1.352419e+02 -3.271569e+00 0 0 0 0 0 0 0 0 0 -3.271569e+00 -1.352419e+02 -2.889242e+02 -1.623073e+02 -5.353416e+00 0 0 0 0 0 0 
0 0 0 0 0 0 0 -7.630608e-01 -1.251030e+02 -3.879906e+02 -3.174304e+02 -5.378248e+01 -2.709400e-03 0 0 0 0 0 0 0 -2.709400e-03 -5.378248e+01 -3.174304e+02 -3.879906e+02 -1.251030e+02 -7.630608e-01 0 0 0 0 0 0 
0 0 0 0 0 0 0 -1.505946e-02 -4.823815e+01 -3.741305e+02 -5.417555e+02 -2.326784e+02 -1.683124e+01 -8.854456e-04 0 0 0 0 0 -8.854456e-04 -1.683124e+01 -2.326784e+02 -5.417555e+02 -3.741305e+02 -4.823815e+01 -1.505946e-02 0 0 0 0 0 0 
0 0 0 0 0 0 0 0 -8.320602e+00 -2.052510e+02 -6.066275e+02 -6.048339e+02 -2.125333e+02 -1.786999e+01 -4.733803e-01 0 0 0 -4.733803e-01 -1.786999e+01 -2.125333e+02 -6.048339e+02 -6.066275e+02 -2.052510e+02 -8.320602e+00 0 0 0 0 0 0 0 
0 0 0 0 0 0 0 0 0 -4.284129e+01 -3.648528e+02 -7.560174e+02 -7.482986e+02 -4.206755e+02 -1.326498e+02 -3.007066e+01 -7.607242e+00 -3.007066e+01 -1.326498e+02 -4.206755e+02 -7.482986e+02 -7.560174e+02 -3.648528e+02 -4.284129e+01 0 0 0 0 0 0 0 0 
0 0 0 0 0 0 0 0 0 -9.461383e-01 -8.021673e+01 -3.980536e+02 -8.870822e+02 -1.074367e+03 -8.886412e+02 -7.277990e+02 -6.904508e+02 -7.277990e+02 -8.886412e+02 -1.074367e+03 -8.870822e+02 -3.980536e+02 -8.021673e+01 -9.461383e-01 0 0 0 0 0 0 0 0 
0 0 0 0 0 0 0 0 0 0 -1.616400e+00 -6.476913e+01 -3.482177e+02 -7.735425e+02 -1.017811e+03 -1.134407e+03 -1.210147e+03 -1.134407e+03 -1.017811e+03 -7.735425e+02 -3.482177e+02 -6.476913e+01 -1.616400e+00 0 0 0 0 0 0 0 0 0 
0 0 0 0 0 0 0 0 0 0 0 -6.648307e-02 -1.372933e+01 -1.019822e+02 -2.613462e+02 -4.366785e+02 -5.273033e+02 -4.366785e+02 -2.613462e+02 -1.019822e+02 -1.372933e+01 -6.648307e-02 0 0 0 0 0 0 0 0 0 0 
0 0 0 0 0 0 0 0 0 0 0 0 0 0 0 0 0 0 0 0 0 0 0 0 0 0 0 0 0 0 0 0 
0 0 0 0 0 0 0 0 0 0 0 0 0 0 0 0 0 0 0 0 0 0 0 0 0 0 0 0 0 0 0 0 
0 0 0 0 0 0 0 0 0 0 0 0 0 0 0 0 0 0 0 0 0 0 0 0 0 0 0 0 0 0 0 0 
0 0 0 0 0 0 0 0 0 0 0 0 0 0 0 0 0 0 0 0 0 0 0 0 0 0 0 0 0 0 0 0 
0 0 0 0 0 0 0 0 0 0 0 0 0 0 0 0 0 0 0 0 0 0 0 0 0 0 0 0 0 0 0 0 
