# vtk DataFile Version 2.0
Comment goes here
ASCII

DATASET STRUCTURED_POINTS
FIELD FieldData 1
TIME 1 1 double
0.08000000
DIMENSIONS    32   32   1

ORIGIN    0.000   0.000   0.000
SPACING   0.03125 0.03125   1.000

POINT_DATA   1024
SCALARS fY double
LOOKUP_TABLE default

0 0 0 0 0 0 0 0 0 0 0 0 0 0 0 0 0 0 0 0 0 0 0 0 0 0 0 0 0 0 0 0 
0 0 0 0 0 0 0 0 0 0 0 0 0 0 0 0 0 0 0 0 0 0 0 0 0 0 0 0 0 0 0 0 
0 0 0 0 0 0 0 0 0 0 0 0 0 0 0 0 0 0 0 0 0 0 0 0 0 0 0 0 0 0 0 0 
0 0 0 0 0 0 0 0 0 0 0 0 0 0 0 0 0 0 0 0 0 0 0 0 0 0 0 0 0 0 0 0 
0 0 0 0 0 0 0 0 0 0 0 0 0 0 0 0 0 0 0 0 0 0 0 0 0 0 0 0 0 0 0 0 
0 0 0 0 0 0 0 0 0 0 0 0 0 0 0 0 0 0 0 0 0 0 0 0 0 0 0 0 0 0 0 0 
0 0 0 0 0 0 0 0 0 0 0 0 0 0 0 0 0 0 0 0 0 0 0 0 0 0 0 0 0 0 0 0 
0 0 0 0 0 0 0 0 0 0 0 0 0 0 0 0 0 0 0 0 0 0 0 0 0 0 0 0 0 0 0 0 
0 0 0 0 0 0 0 0 0 0 2.390884e-03 3.049207e+00 1.218227e+01 2.357131e+01 3.237154e+01 3.485727e+01 3.384317e+01 3.485727e+01 3.237154e+01 2.357131e+01 1.218227e+01 3.049207e+00 2.390884e-03 0 0 0 0 0 0 0 0 0 
0 0 0 0 0 0 0 3.842253e+00 3.448273e+01 1.142079e+02 2.307953e+02 3.364533e+02 3.718008e+02 3.473763e+02 3.241461e+02 2.945713e+02 2.704520e+02 2.945713e+02 3.241461e+02 3.473763e+02 3.718008e+02 3.364533e+02 2.307953e+02 1.142079e+02 3.448273e+01 3.842253e+00 0 0 0 0 0 0 
0 0 0 0 0 5.113375e+00 7.800544e+01 2.959525e+02 5.391255e+02 6.615393e+02 7.006254e+02 6.878648e+02 5.938148e+02 4.677366e+02 3.921786e+02 3.376260e+02 3.041655e+02 3.376260e+02 3.921786e+02 4.677366e+02 5.938148e+02 6.878648e+02 7.006254e+02 6.615393e+02 5.391255e+02 2.959525e+02 7.800544e+01 5.113375e+00 0 0 0 0 
0 0 0 4.370709e-02 1.664963e+01 1.721724e+02 5.560422e+02 9.397326e+02 9.514948e+02 7.130997e+02 5.154265e+02 3.611205e+02 2.342170e+02 1.439316e+02 1.004040e+02 7.791204e+01 6.755667e+01 7.791204e+01 1.004040e+02 1.439316e+02 2.342170e+02 3.611205e+02 5.154265e+02 7.130997e+02 9.514948e+02 9.397326e+02 5.560422e+02 1.721724e+02 1.664963e+01 4.370709e-02 0 0 
0 0 0 1.250801e+01 2.273031e+02 6.864864e+02 9.322592e+02 8.026623e+02 4.696086e+02 1.664692e+02 4.559403e+01 6.659797e+00 2.072839e-02 0 0 0 0 0 0 0 2.072839e-02 6.659797e+00 4.559403e+01 1.664692e+02 4.696086e+02 8.026623e+02 9.322592e+02 6.864864e+02 2.273031e+02 1.250801e+01 0 0 
0 0 4.583595e-01 1.015548e+02 5.770852e+02 8.887486e+02 5.498414e+02 1.591372e+02 2.275647e+01 7.009172e-01 0 0 0 0 0 0 0 0 0 0 0 0 0 7.009172e-01 2.275647e+01 1.591372e+02 5.498414e+02 8.887486e+02 5.770852e+02 1.015548e+02 4.583595e-01 0 
0 0 4.496492e+00 2.095967e+02 5.871518e+02 4.774702e+02 9.951579e+01 4.097258e+00 0 0 0 0 0 0 0 0 0 0 0 0 0 0 0 0 0 4.097258e+00 9.951579e+01 4.774702e+02 5.871518e+02 2.095967e+02 4.496492e+00 0 
0 0 8.690425e+00 1.730501e+02 2.876131e+02 1.271504e+02 3.896947e+00 0 0 0 0 0 0 0 0 0 0 0 0 0 0 0 0 0 0 0 3.896947e+00 1.271504e+02 2.876131e+02 1.730501e+02 8.690425e+00 0 
0 0 1.372852e-12 -9.694798e-12 -1.732561e-11 -6.249846e-12 0 0 0 0 0 0 0 0 0 0 0 0 0 0 0 0 0 0 0 0 0 -3.105851e-13 -1.908675e-12 -2.590484e-12 -9.903744e-13 0 
0 0 -8.690425e+00 -1.730501e+02 -2.876131e+02 -1.271504e+02 -3.896947e+00 0 0 0 0 0 0 0 0 0 0 0 0 0 0 0 0 0 0 0 -3.896947e+00 -1.271504e+02 -2.876131e+02 -1.730501e+02 -8.690425e+00 0 
0 0 -4.496492e+00 -2.095967e+02 -5.871518e+02 -4.774702e+02 -9.951579e+01 -4.097258e+00 0 0 0 0 0 0 0 0 0 0 0 0 0 0 0 0 0 -4.097258e+00 -9.951579e+01 -4.774702e+02 -5.871518e+02 -2.095967e+02 -4.496492e+00 0 
0 0 -4.583595e-01 -1.015548e+02 -5.770852e+02 -8.887486e+02 -5.498414e+02 -1.591372e+02 -2.275647e+01 -7.009172e-01 0 0 0 0 0 0 0 0 0 0 0 0 0 -7.009172e-01 -2.275647e+01 -1.591372e+02 -5.498414e+02 -8.887486e+02 -5.770852e+02 -1.015548e+02 -4.583595e-01 0 
0 0 0 -1.250801e+01 -2.273031e+02 -6.864864e+02 -9.322592e+02 -8.026623e+02 -4.696086e+02 -1.664692e+02 -4.559403e+01 -6.659797e+00 -2.072839e-02 0 0 0 0 0 0 0 -2.072839e-02 -6.659797e+00 -4.559403e+01 -1.664692e+02 -4.696086e+02 -8.026623e+02 -9.322592e+02 -6.864864e+02 -2.273031e+02 -1.250801e+01 0 0 
0 0 0 -4.370709e-02 -1.664963e+01 -1.721724e+02 -5.560422e+02 -9.397326e+02 -9.514948e+02 -7.130997e+02 -5.154265e+02 -3.611205e+02 -2.342170e+02 -1.439316e+02 -1.004040e+02 -7.791204e+01 -6.755667e+01 -7.791204e+01 -1.004040e+02 -1.439316e+02 -2.342170e+02 -3.611205e+02 -5.154265e+02 -7.130997e+02 -9.514948e+02 -9.397326e+02 -5.560422e+02 -1.721724e+02 -1.664963e+01 -4.370709e-02 0 0 
0 0 0 0 0 -5.113375e+00 -7.800544e+01 -2.959525e+02 -5.391255e+02 -6.615393e+02 -7.006254e+02 -6.878648e+02 -5.938148e+02 -4.677366e+02 -3.921786e+02 -3.376260e+02 -3.041655e+02 -3.376260e+02 -3.921786e+02 -4.677366e+02 -5.938148e+02 -6.878648e+02 -7.006254e+02 -6.615393e+02 -5.391255e+02 -2.959525e+02 -7.800544e+01 -5.113375e+00 0 0 0 0 
0 0 0 0 0 0 0 -3.842253e+00 -3.448273e+01 -1.142079e+02 -2.307953e+02 -3.364533e+02 -3.718008e+02 -3.473763e+02 -3.241461e+02 -2.945713e+02 -2.704520e+02 -2.945713e+02 -3.241461e+02 -3.473763e+02 -3.718008e+02 -3.364533e+02 -2.307953e+02 -1.142079e+02 -3.448273e+01 -3.842253e+00 0 0 0 0 0 0 
0 0 0 0 0 0 0 0 0 0 -2.390884e-03 -3.049207e+00 -1.218227e+01 -2.357131e+01 -3.237154e+01 -3.485727e+01 -3.384317e+01 -3.485727e+01 -3.237154e+01 -2.357131e+01 -1.218227e+01 -3.049207e+00 -2.390884e-03 0 0 0 0 0 0 0 0 0 
0 0 0 0 0 0 0 0 0 0 0 0 0 0 0 0 0 0 0 0 0 0 0 0 0 0 0 0 0 0 0 0 
0 0 0 0 0 0 0 0 0 0 0 0 0 0 0 0 0 0 0 0 0 0 0 0 0 0 0 0 0 0 0 0 
0 0 0 0 0 0 0 0 0 0 0 0 0 0 0 0 0 0 0 0 0 0 0 0 0 0 0 0 0 0 0 0 
0 0 0 0 0 0 0 0 0 0 0 0 0 0 0 0 0 0 0 0 0 0 0 0 0 0 0 0 0 0 0 0 
0 0 0 0 0 0 0 0 0 0 0 0 0 0 0 0 0 0 0 0 0 0 0 0 0 0 0 0 0 0 0 0 
0 0 0 0 0 0 0 0 0 0 0 0 0 0 0 0 0 0 0 0 0 0 0 0 0 0 0 0 0 0 0 0 
0 0 0 0 0 0 0 0 0 0 0 0 0 0 0 0 0 0 0 0 0 0 0 0 0 0 0 0 0 0 0 0 
