# vtk DataFile Version 2.0
Comment goes here
ASCII

DATASET STRUCTURED_POINTS
FIELD FieldData 1
TIME 1 1 double
0.86000000
DIMENSIONS    32   32   1

ORIGIN    0.000   0.000   0.000
SPACING   0.03125 0.03125   1.000

POINT_DATA   1024
SCALARS fY double
LOOKUP_TABLE default

0 0 0 0 0 0 0 0 0 0 0 0 0 0 0 0 0 0 0 0 0 0 0 0 0 0 0 0 0 0 0 0 
0 0 0 0 0 0 0 0 0 0 0 0 0 0 0 0 0 0 0 0 0 0 0 0 0 0 0 0 0 0 0 0 
0 0 0 0 0 0 0 0 0 0 0 0 0 0 0 0 0 0 0 0 0 0 0 0 0 0 0 0 0 0 0 0 
0 0 0 0 0 0 0 0 0 0 0 0 0 0 0 0 0 0 0 0 0 0 0 0 0 0 0 0 0 0 0 0 
0 0 0 0 0 0 0 0 0 0 0 0 0 0 0 0 0 0 0 0 0 0 0 0 0 0 0 0 0 0 0 0 
0 0 0 0 0 0 0 0 0 0 0 0 0 0 0 0 0 0 0 0 0 0 0 0 0 0 0 0 0 0 0 0 
0 0 0 0 0 0 0 0 0 0 0 0 0 0 0 0 0 0 0 0 0 0 0 0 0 0 0 0 0 0 0 0 
0 0 0 0 0 0 0 0 0 0 0 0 2.140037e-01 4.957124e+00 2.568007e+01 4.895180e+01 5.602971e+01 4.895180e+01 2.568007e+01 4.957124e+00 2.140037e-01 0 0 0 0 0 0 0 0 0 0 0 
0 0 0 0 0 0 0 0 0 0 3.753003e+00 3.856573e+01 2.133657e+02 3.881840e+02 4.947651e+02 5.626797e+02 5.550913e+02 5.626797e+02 4.947651e+02 3.881840e+02 2.133657e+02 3.856573e+01 3.753003e+00 0 0 0 0 0 0 0 0 0 
0 0 0 0 0 0 0 0 1.561838e-01 3.353678e+01 2.151830e+02 4.343960e+02 7.127323e+02 8.448928e+02 7.611998e+02 7.105749e+02 6.682586e+02 7.105749e+02 7.611998e+02 8.448928e+02 7.127323e+02 4.343960e+02 2.151830e+02 3.353678e+01 1.561838e-01 0 0 0 0 0 0 0 
0 0 0 0 0 0 0 7.442228e-01 4.037939e+01 2.676114e+02 6.806910e+02 7.728353e+02 6.161099e+02 4.771766e+02 2.934358e+02 1.968470e+02 1.691970e+02 1.968470e+02 2.934358e+02 4.771766e+02 6.161099e+02 7.728353e+02 6.806910e+02 2.676114e+02 4.037939e+01 7.442228e-01 0 0 0 0 0 0 
0 0 0 0 0 0 1.428105e-04 2.198510e+01 2.806366e+02 6.516552e+02 6.993787e+02 4.096049e+02 1.174194e+02 1.551063e+01 1.321033e+00 0 0 0 1.321033e+00 1.551063e+01 1.174194e+02 4.096049e+02 6.993787e+02 6.516552e+02 2.806366e+02 2.198510e+01 1.428105e-04 0 0 0 0 0 
0 0 0 0 0 0 1.642071e+00 1.280511e+02 5.416599e+02 6.510536e+02 2.676702e+02 3.275758e+01 8.900675e-01 0 0 0 0 0 0 0 8.900675e-01 3.275758e+01 2.676702e+02 6.510536e+02 5.416599e+02 1.280511e+02 1.642071e+00 0 0 0 0 0 
0 0 0 0 0 0 1.532039e+01 2.544625e+02 5.036099e+02 3.027354e+02 3.842530e+01 1.576912e-01 0 0 0 0 0 0 0 0 0 1.576912e-01 3.842530e+01 3.027354e+02 5.036099e+02 2.544625e+02 1.532039e+01 0 0 0 0 0 
0 0 0 0 0 0 3.976510e+01 2.573754e+02 2.984520e+02 8.171459e+01 8.728264e-01 0 0 0 0 0 0 0 0 0 0 0 8.728264e-01 8.171459e+01 2.984520e+02 2.573754e+02 3.976510e+01 0 0 0 0 0 
0 0 0 0 0 0 4.516216e+01 1.695953e+02 1.394485e+02 1.501533e+01 0 0 0 0 0 0 0 0 0 0 0 0 0 1.501533e+01 1.394485e+02 1.695953e+02 4.516216e+01 0 0 0 0 0 
0 0 0 0 0 0 -4.956480e-12 -1.975309e-12 4.448817e-12 1.461769e-12 0 0 0 0 0 0 0 0 0 0 0 0 0 -2.057021e-12 -2.801154e-14 1.361146e-11 1.158109e-11 0 0 0 0 0 
0 0 0 0 0 0 -4.516216e+01 -1.695953e+02 -1.394485e+02 -1.501533e+01 0 0 0 0 0 0 0 0 0 0 0 0 0 -1.501533e+01 -1.394485e+02 -1.695953e+02 -4.516216e+01 0 0 0 0 0 
0 0 0 0 0 0 -3.976510e+01 -2.573754e+02 -2.984520e+02 -8.171459e+01 -8.728264e-01 0 0 0 0 0 0 0 0 0 0 0 -8.728264e-01 -8.171459e+01 -2.984520e+02 -2.573754e+02 -3.976510e+01 0 0 0 0 0 
0 0 0 0 0 0 -1.532039e+01 -2.544625e+02 -5.036099e+02 -3.027354e+02 -3.842530e+01 -1.576912e-01 0 0 0 0 0 0 0 0 0 -1.576912e-01 -3.842530e+01 -3.027354e+02 -5.036099e+02 -2.544625e+02 -1.532039e+01 0 0 0 0 0 
0 0 0 0 0 0 -1.642071e+00 -1.280511e+02 -5.416599e+02 -6.510536e+02 -2.676702e+02 -3.275758e+01 -8.900675e-01 0 0 0 0 0 0 0 -8.900675e-01 -3.275758e+01 -2.676702e+02 -6.510536e+02 -5.416599e+02 -1.280511e+02 -1.642071e+00 0 0 0 0 0 
0 0 0 0 0 0 -1.428105e-04 -2.198510e+01 -2.806366e+02 -6.516552e+02 -6.993787e+02 -4.096049e+02 -1.174194e+02 -1.551063e+01 -1.321033e+00 0 0 0 -1.321033e+00 -1.551063e+01 -1.174194e+02 -4.096049e+02 -6.993787e+02 -6.516552e+02 -2.806366e+02 -2.198510e+01 -1.428105e-04 0 0 0 0 0 
0 0 0 0 0 0 0 -7.442228e-01 -4.037939e+01 -2.676114e+02 -6.806910e+02 -7.728353e+02 -6.161099e+02 -4.771766e+02 -2.934358e+02 -1.968470e+02 -1.691970e+02 -1.968470e+02 -2.934358e+02 -4.771766e+02 -6.161099e+02 -7.728353e+02 -6.806910e+02 -2.676114e+02 -4.037939e+01 -7.442228e-01 0 0 0 0 0 0 
0 0 0 0 0 0 0 0 -1.561838e-01 -3.353678e+01 -2.151830e+02 -4.343960e+02 -7.127323e+02 -8.448928e+02 -7.611998e+02 -7.105749e+02 -6.682586e+02 -7.105749e+02 -7.611998e+02 -8.448928e+02 -7.127323e+02 -4.343960e+02 -2.151830e+02 -3.353678e+01 -1.561838e-01 0 0 0 0 0 0 0 
0 0 0 0 0 0 0 0 0 0 -3.753003e+00 -3.856573e+01 -2.133657e+02 -3.881840e+02 -4.947651e+02 -5.626797e+02 -5.550913e+02 -5.626797e+02 -4.947651e+02 -3.881840e+02 -2.133657e+02 -3.856573e+01 -3.753003e+00 0 0 0 0 0 0 0 0 0 
0 0 0 0 0 0 0 0 0 0 0 0 -2.140037e-01 -4.957124e+00 -2.568007e+01 -4.895180e+01 -5.602971e+01 -4.895180e+01 -2.568007e+01 -4.957124e+00 -2.140037e-01 0 0 0 0 0 0 0 0 0 0 0 
0 0 0 0 0 0 0 0 0 0 0 0 0 0 0 0 0 0 0 0 0 0 0 0 0 0 0 0 0 0 0 0 
0 0 0 0 0 0 0 0 0 0 0 0 0 0 0 0 0 0 0 0 0 0 0 0 0 0 0 0 0 0 0 0 
0 0 0 0 0 0 0 0 0 0 0 0 0 0 0 0 0 0 0 0 0 0 0 0 0 0 0 0 0 0 0 0 
0 0 0 0 0 0 0 0 0 0 0 0 0 0 0 0 0 0 0 0 0 0 0 0 0 0 0 0 0 0 0 0 
0 0 0 0 0 0 0 0 0 0 0 0 0 0 0 0 0 0 0 0 0 0 0 0 0 0 0 0 0 0 0 0 
0 0 0 0 0 0 0 0 0 0 0 0 0 0 0 0 0 0 0 0 0 0 0 0 0 0 0 0 0 0 0 0 
