# vtk DataFile Version 2.0
Comment goes here
ASCII

DATASET STRUCTURED_POINTS
FIELD FieldData 1
TIME 1 1 double
0.32000000
DIMENSIONS    32   32   1

ORIGIN    0.000   0.000   0.000
SPACING   0.03125 0.03125   1.000

POINT_DATA   1024
SCALARS fY double
LOOKUP_TABLE default

0 0 0 0 0 0 0 0 0 0 0 0 0 0 0 0 0 0 0 0 0 0 0 0 0 0 0 0 0 0 0 0 
0 0 0 0 0 0 0 0 0 0 0 0 0 0 0 0 0 0 0 0 0 0 0 0 0 0 0 0 0 0 0 0 
0 0 0 0 0 0 0 0 0 0 0 0 0 0 0 0 0 0 0 0 0 0 0 0 0 0 0 0 0 0 0 0 
0 0 0 0 0 0 0 0 0 0 0 0 0 0 0 0 0 0 0 0 0 0 0 0 0 0 0 0 0 0 0 0 
0 0 0 0 0 0 0 0 0 0 0 0 3.637972e+00 6.170383e+01 2.315638e+02 4.381508e+02 5.293057e+02 4.381508e+02 2.315638e+02 6.170383e+01 3.637972e+00 0 0 0 0 0 0 0 0 0 0 0 
0 0 0 0 0 0 0 0 0 0 0 1.473239e+01 1.961172e+02 7.096484e+02 1.243642e+03 1.465904e+03 1.501049e+03 1.465904e+03 1.243642e+03 7.096484e+02 1.961172e+02 1.473239e+01 0 0 0 0 0 0 0 0 0 0 
0 0 0 0 0 0 0 0 0 0 1.346086e+01 2.255839e+02 8.128886e+02 1.320188e+03 1.342668e+03 1.130763e+03 1.015034e+03 1.130763e+03 1.342668e+03 1.320188e+03 8.128886e+02 2.255839e+02 1.346086e+01 0 0 0 0 0 0 0 0 0 
0 0 0 0 0 0 0 0 0 2.995495e+00 1.485639e+02 6.799857e+02 1.084949e+03 8.055701e+02 3.364034e+02 1.030101e+02 4.329042e+01 1.030101e+02 3.364034e+02 8.055701e+02 1.084949e+03 6.799857e+02 1.485639e+02 2.995495e+00 0 0 0 0 0 0 0 0 
0 0 0 0 0 0 0 0 0 4.341344e+01 4.292026e+02 8.560439e+02 6.015478e+02 1.371072e+02 5.814156e+00 0 0 0 5.814156e+00 1.371072e+02 6.015478e+02 8.560439e+02 4.292026e+02 4.341344e+01 0 0 0 0 0 0 0 0 
0 0 0 0 0 0 0 0 2.448786e+00 1.449682e+02 5.546938e+02 5.618195e+02 1.534253e+02 3.780212e+00 0 0 0 0 0 3.780212e+00 1.534253e+02 5.618195e+02 5.546938e+02 1.449682e+02 2.448786e+00 0 0 0 0 0 0 0 
0 0 0 0 0 0 0 0 2.121153e+01 2.853458e+02 4.930884e+02 2.456804e+02 1.672629e+01 0 0 0 0 0 0 0 1.672629e+01 2.456804e+02 4.930884e+02 2.853458e+02 2.121153e+01 0 0 0 0 0 0 0 
0 0 0 0 0 0 0 0 5.381063e+01 3.403533e+02 3.783805e+02 9.214709e+01 3.092702e-01 0 0 0 0 0 0 0 3.092702e-01 9.214709e+01 3.783805e+02 3.403533e+02 5.381063e+01 0 0 0 0 0 0 0 
0 0 0 0 0 0 0 7.187373e-03 1.309268e+02 3.665365e+02 2.589702e+02 2.335334e+01 0 0 0 0 0 0 0 0 0 2.335334e+01 2.589702e+02 3.665365e+02 1.309268e+02 7.187373e-03 0 0 0 0 0 0 
0 0 0 0 0 0 0 -4.007227e-01 1.732916e+02 3.662555e+02 1.945625e+02 1.999269e+00 0 0 0 0 0 0 0 0 0 1.999269e+00 1.945625e+02 3.662555e+02 1.732916e+02 -4.007227e-01 0 0 0 0 0 0 
0 0 0 0 0 0 0 8.897695e-01 9.271228e+01 1.778812e+02 8.608119e+01 2.250218e-02 0 0 0 0 0 0 0 0 0 2.250218e-02 8.608119e+01 1.778812e+02 9.271228e+01 8.897695e-01 0 0 0 0 0 0 
0 0 0 0 0 0 0 3.111880e+00 4.817699e+01 6.432853e+01 1.926343e+01 0 0 0 0 0 0 0 0 0 0 0 1.926343e+01 6.432853e+01 4.817699e+01 3.111880e+00 0 0 0 0 0 0 
0 0 0 0 0 0 0 5.404696e-12 3.206993e-11 2.749135e-11 8.206426e-13 0 0 0 0 0 0 0 0 0 0 0 -1.732751e-12 -1.531402e-11 -1.589690e-11 -2.315865e-12 0 0 0 0 0 0 
0 0 0 0 0 0 0 -3.111880e+00 -4.817699e+01 -6.432853e+01 -1.926343e+01 0 0 0 0 0 0 0 0 0 0 0 -1.926343e+01 -6.432853e+01 -4.817699e+01 -3.111880e+00 0 0 0 0 0 0 
0 0 0 0 0 0 0 -8.897695e-01 -9.271228e+01 -1.778812e+02 -8.608119e+01 -2.250218e-02 0 0 0 0 0 0 0 0 0 -2.250218e-02 -8.608119e+01 -1.778812e+02 -9.271228e+01 -8.897695e-01 0 0 0 0 0 0 
0 0 0 0 0 0 0 4.007227e-01 -1.732916e+02 -3.662555e+02 -1.945625e+02 -1.999269e+00 0 0 0 0 0 0 0 0 0 -1.999269e+00 -1.945625e+02 -3.662555e+02 -1.732916e+02 4.007227e-01 0 0 0 0 0 0 
0 0 0 0 0 0 0 -7.187373e-03 -1.309268e+02 -3.665365e+02 -2.589702e+02 -2.335334e+01 0 0 0 0 0 0 0 0 0 -2.335334e+01 -2.589702e+02 -3.665365e+02 -1.309268e+02 -7.187373e-03 0 0 0 0 0 0 
0 0 0 0 0 0 0 0 -5.381063e+01 -3.403533e+02 -3.783805e+02 -9.214709e+01 -3.092702e-01 0 0 0 0 0 0 0 -3.092702e-01 -9.214709e+01 -3.783805e+02 -3.403533e+02 -5.381063e+01 0 0 0 0 0 0 0 
0 0 0 0 0 0 0 0 -2.121153e+01 -2.853458e+02 -4.930884e+02 -2.456804e+02 -1.672629e+01 0 0 0 0 0 0 0 -1.672629e+01 -2.456804e+02 -4.930884e+02 -2.853458e+02 -2.121153e+01 0 0 0 0 0 0 0 
0 0 0 0 0 0 0 0 -2.448786e+00 -1.449682e+02 -5.546938e+02 -5.618195e+02 -1.534253e+02 -3.780212e+00 0 0 0 0 0 -3.780212e+00 -1.534253e+02 -5.618195e+02 -5.546938e+02 -1.449682e+02 -2.448786e+00 0 0 0 0 0 0 0 
0 0 0 0 0 0 0 0 0 -4.341344e+01 -4.292026e+02 -8.560439e+02 -6.015478e+02 -1.371072e+02 -5.814156e+00 0 0 0 -5.814156e+00 -1.371072e+02 -6.015478e+02 -8.560439e+02 -4.292026e+02 -4.341344e+01 0 0 0 0 0 0 0 0 
0 0 0 0 0 0 0 0 0 -2.995495e+00 -1.485639e+02 -6.799857e+02 -1.084949e+03 -8.055701e+02 -3.364034e+02 -1.030101e+02 -4.329042e+01 -1.030101e+02 -3.364034e+02 -8.055701e+02 -1.084949e+03 -6.799857e+02 -1.485639e+02 -2.995495e+00 0 0 0 0 0 0 0 0 
0 0 0 0 0 0 0 0 0 0 -1.346086e+01 -2.255839e+02 -8.128886e+02 -1.320188e+03 -1.342668e+03 -1.130763e+03 -1.015034e+03 -1.130763e+03 -1.342668e+03 -1.320188e+03 -8.128886e+02 -2.255839e+02 -1.346086e+01 0 0 0 0 0 0 0 0 0 
0 0 0 0 0 0 0 0 0 0 0 -1.473239e+01 -1.961172e+02 -7.096484e+02 -1.243642e+03 -1.465904e+03 -1.501049e+03 -1.465904e+03 -1.243642e+03 -7.096484e+02 -1.961172e+02 -1.473239e+01 0 0 0 0 0 0 0 0 0 0 
0 0 0 0 0 0 0 0 0 0 0 0 -3.637972e+00 -6.170383e+01 -2.315638e+02 -4.381508e+02 -5.293057e+02 -4.381508e+02 -2.315638e+02 -6.170383e+01 -3.637972e+00 0 0 0 0 0 0 0 0 0 0 0 
0 0 0 0 0 0 0 0 0 0 0 0 0 0 0 0 0 0 0 0 0 0 0 0 0 0 0 0 0 0 0 0 
0 0 0 0 0 0 0 0 0 0 0 0 0 0 0 0 0 0 0 0 0 0 0 0 0 0 0 0 0 0 0 0 
0 0 0 0 0 0 0 0 0 0 0 0 0 0 0 0 0 0 0 0 0 0 0 0 0 0 0 0 0 0 0 0 
