# vtk DataFile Version 2.0
Comment goes here
ASCII

DATASET STRUCTURED_POINTS
FIELD FieldData 1
TIME 1 1 double
1.06000000
DIMENSIONS    32   32   1

ORIGIN    0.000   0.000   0.000
SPACING   0.03125 0.03125   1.000

POINT_DATA   1024
SCALARS fY double
LOOKUP_TABLE default

0 0 0 0 0 0 0 0 0 0 0 0 0 0 0 0 0 0 0 0 0 0 0 0 0 0 0 0 0 0 0 0 
0 0 0 0 0 0 0 0 0 0 0 0 0 0 0 0 0 0 0 0 0 0 0 0 0 0 0 0 0 0 0 0 
0 0 0 0 0 0 0 0 0 0 0 0 0 0 0 0 0 0 0 0 0 0 0 0 0 0 0 0 0 0 0 0 
0 0 0 0 0 0 0 0 0 0 0 0 0 0 0 0 0 0 0 0 0 0 0 0 0 0 0 0 0 0 0 0 
0 0 0 0 0 0 0 0 0 0 0 0 0 0 0 0 0 0 0 0 0 0 0 0 0 0 0 0 0 0 0 0 
0 0 0 0 0 0 0 0 0 0 0 0 0 0 0 0 0 0 0 0 0 0 0 0 0 0 0 0 0 0 0 0 
0 0 0 0 0 0 0 0 0 0 0 0 0 0 0 0 0 0 0 0 0 0 0 0 0 0 0 0 0 0 0 0 
0 0 0 0 0 0 0 0 0 0 0 0 1.541238e+00 1.465796e+01 6.677518e+01 1.387654e+02 1.702139e+02 1.387654e+02 6.677518e+01 1.465796e+01 1.541238e+00 0 0 0 0 0 0 0 0 0 0 0 
0 0 0 0 0 0 0 0 0 0 3.087510e+00 2.801188e+01 2.023379e+02 4.991856e+02 6.546972e+02 7.438807e+02 8.219113e+02 7.438807e+02 6.546972e+02 4.991856e+02 2.023379e+02 2.801188e+01 3.087510e+00 0 0 0 0 0 0 0 0 0 
0 0 0 0 0 0 0 0 0 8.191264e-01 7.814490e+01 4.007531e+02 6.892964e+02 8.707601e+02 8.493658e+02 7.232129e+02 7.574764e+02 7.232129e+02 8.493658e+02 8.707601e+02 6.892964e+02 4.007531e+02 7.814490e+01 8.191264e-01 0 0 0 0 0 0 0 0 
0 0 0 0 0 0 0 0 -1.043233e-01 1.051567e+02 3.770825e+02 7.342365e+02 6.788330e+02 4.122512e+02 2.610413e+02 1.180976e+02 1.057790e+02 1.180976e+02 2.610413e+02 4.122512e+02 6.788330e+02 7.342365e+02 3.770825e+02 1.051567e+02 -1.043233e-01 0 0 0 0 0 0 0 
0 0 0 0 0 0 0 0 3.418268e+01 3.382227e+02 6.589899e+02 5.212448e+02 1.927218e+02 2.602445e+01 -4.025314e-01 0 0 0 -4.025314e-01 2.602445e+01 1.927218e+02 5.212448e+02 6.589899e+02 3.382227e+02 3.418268e+01 0 0 0 0 0 0 0 
0 0 0 0 0 0 0 -6.004939e-01 7.749697e+01 4.189971e+02 5.051300e+02 1.666133e+02 2.388647e+00 5.675671e-03 0 0 0 0 0 5.675671e-03 2.388647e+00 1.666133e+02 5.051300e+02 4.189971e+02 7.749697e+01 -6.004939e-01 0 0 0 0 0 0 
0 0 0 0 0 0 0 3.121403e+01 2.372565e+02 3.847467e+02 1.861705e+02 7.466399e+00 1.063668e-04 0 0 0 0 0 0 0 1.063668e-04 7.466399e+00 1.861705e+02 3.847467e+02 2.372565e+02 3.121403e+01 0 0 0 0 0 0 
0 0 0 0 0 0 0 4.328517e+01 2.879109e+02 3.070258e+02 6.300266e+01 6.026481e-01 0 0 0 0 0 0 0 0 0 6.026481e-01 6.300266e+01 3.070258e+02 2.879109e+02 4.328517e+01 0 0 0 0 0 0 
0 0 0 0 0 0 0 3.284905e+01 1.638950e+02 1.592419e+02 2.819593e+01 0 0 0 0 0 0 0 0 0 0 0 2.819593e+01 1.592419e+02 1.638950e+02 3.284905e+01 0 0 0 0 0 0 
0 0 0 0 0 0 0 3.069589e-11 8.929714e-11 6.061857e-11 2.008933e-12 0 0 0 0 0 0 0 0 0 0 0 -6.776135e-12 -5.099032e-11 -5.748012e-11 -1.328405e-11 0 0 0 0 0 0 
0 0 0 0 0 0 0 -3.284905e+01 -1.638950e+02 -1.592419e+02 -2.819593e+01 0 0 0 0 0 0 0 0 0 0 0 -2.819593e+01 -1.592419e+02 -1.638950e+02 -3.284905e+01 0 0 0 0 0 0 
0 0 0 0 0 0 0 -4.328517e+01 -2.879109e+02 -3.070258e+02 -6.300266e+01 -6.026481e-01 0 0 0 0 0 0 0 0 0 -6.026481e-01 -6.300266e+01 -3.070258e+02 -2.879109e+02 -4.328517e+01 0 0 0 0 0 0 
0 0 0 0 0 0 0 -3.121403e+01 -2.372565e+02 -3.847467e+02 -1.861705e+02 -7.466399e+00 -1.063668e-04 0 0 0 0 0 0 0 -1.063668e-04 -7.466399e+00 -1.861705e+02 -3.847467e+02 -2.372565e+02 -3.121403e+01 0 0 0 0 0 0 
0 0 0 0 0 0 0 6.004939e-01 -7.749697e+01 -4.189971e+02 -5.051300e+02 -1.666133e+02 -2.388647e+00 -5.675671e-03 0 0 0 0 0 -5.675671e-03 -2.388647e+00 -1.666133e+02 -5.051300e+02 -4.189971e+02 -7.749697e+01 6.004939e-01 0 0 0 0 0 0 
0 0 0 0 0 0 0 0 -3.418268e+01 -3.382227e+02 -6.589899e+02 -5.212448e+02 -1.927218e+02 -2.602445e+01 4.025314e-01 0 0 0 4.025314e-01 -2.602445e+01 -1.927218e+02 -5.212448e+02 -6.589899e+02 -3.382227e+02 -3.418268e+01 0 0 0 0 0 0 0 
0 0 0 0 0 0 0 0 1.043233e-01 -1.051567e+02 -3.770825e+02 -7.342365e+02 -6.788330e+02 -4.122512e+02 -2.610413e+02 -1.180976e+02 -1.057790e+02 -1.180976e+02 -2.610413e+02 -4.122512e+02 -6.788330e+02 -7.342365e+02 -3.770825e+02 -1.051567e+02 1.043233e-01 0 0 0 0 0 0 0 
0 0 0 0 0 0 0 0 0 -8.191264e-01 -7.814490e+01 -4.007531e+02 -6.892964e+02 -8.707601e+02 -8.493658e+02 -7.232129e+02 -7.574764e+02 -7.232129e+02 -8.493658e+02 -8.707601e+02 -6.892964e+02 -4.007531e+02 -7.814490e+01 -8.191264e-01 0 0 0 0 0 0 0 0 
0 0 0 0 0 0 0 0 0 0 -3.087510e+00 -2.801188e+01 -2.023379e+02 -4.991856e+02 -6.546972e+02 -7.438807e+02 -8.219113e+02 -7.438807e+02 -6.546972e+02 -4.991856e+02 -2.023379e+02 -2.801188e+01 -3.087510e+00 0 0 0 0 0 0 0 0 0 
0 0 0 0 0 0 0 0 0 0 0 0 -1.541238e+00 -1.465796e+01 -6.677518e+01 -1.387654e+02 -1.702139e+02 -1.387654e+02 -6.677518e+01 -1.465796e+01 -1.541238e+00 0 0 0 0 0 0 0 0 0 0 0 
0 0 0 0 0 0 0 0 0 0 0 0 0 0 0 0 0 0 0 0 0 0 0 0 0 0 0 0 0 0 0 0 
0 0 0 0 0 0 0 0 0 0 0 0 0 0 0 0 0 0 0 0 0 0 0 0 0 0 0 0 0 0 0 0 
0 0 0 0 0 0 0 0 0 0 0 0 0 0 0 0 0 0 0 0 0 0 0 0 0 0 0 0 0 0 0 0 
0 0 0 0 0 0 0 0 0 0 0 0 0 0 0 0 0 0 0 0 0 0 0 0 0 0 0 0 0 0 0 0 
0 0 0 0 0 0 0 0 0 0 0 0 0 0 0 0 0 0 0 0 0 0 0 0 0 0 0 0 0 0 0 0 
0 0 0 0 0 0 0 0 0 0 0 0 0 0 0 0 0 0 0 0 0 0 0 0 0 0 0 0 0 0 0 0 
