# vtk DataFile Version 2.0
Comment goes here
ASCII

DATASET STRUCTURED_POINTS
FIELD FieldData 1
TIME 1 1 double
0.74000000
DIMENSIONS    32   32   1

ORIGIN    0.000   0.000   0.000
SPACING   0.03125 0.03125   1.000

POINT_DATA   1024
SCALARS fY double
LOOKUP_TABLE default

0 0 0 0 0 0 0 0 0 0 0 0 0 0 0 0 0 0 0 0 0 0 0 0 0 0 0 0 0 0 0 0 
0 0 0 0 0 0 0 0 0 0 0 0 0 0 0 0 0 0 0 0 0 0 0 0 0 0 0 0 0 0 0 0 
0 0 0 0 0 0 0 0 0 0 0 0 0 0 0 0 0 0 0 0 0 0 0 0 0 0 0 0 0 0 0 0 
0 0 0 0 0 0 0 0 0 0 0 0 0 0 0 0 0 0 0 0 0 0 0 0 0 0 0 0 0 0 0 0 
0 0 0 0 0 0 0 0 0 0 0 0 0 0 0 0 0 0 0 0 0 0 0 0 0 0 0 0 0 0 0 0 
0 0 0 0 0 0 0 0 0 0 0 0 0 0 0 0 0 0 0 0 0 0 0 0 0 0 0 0 0 0 0 0 
0 0 0 0 0 0 0 0 0 0 0 0 0 0 0 0 0 0 0 0 0 0 0 0 0 0 0 0 0 0 0 0 
0 0 0 0 0 0 0 0 0 0 0 6.849773e-02 4.130436e+00 2.863025e+01 7.060010e+01 1.161156e+02 1.401676e+02 1.161156e+02 7.060010e+01 2.863025e+01 4.130436e+00 6.849773e-02 0 0 0 0 0 0 0 0 0 0 
0 0 0 0 0 0 0 0 0 3.492210e-02 1.005953e+01 1.150750e+02 3.102249e+02 5.062089e+02 6.089169e+02 6.687776e+02 7.217902e+02 6.687776e+02 6.089169e+02 5.062089e+02 3.102249e+02 1.150750e+02 1.005953e+01 3.492210e-02 0 0 0 0 0 0 0 0 
0 0 0 0 0 0 0 0 1.933686e+00 7.163379e+01 3.005357e+02 6.080732e+02 7.888634e+02 8.056548e+02 7.217346e+02 6.700597e+02 6.847082e+02 6.700597e+02 7.217346e+02 8.056548e+02 7.888634e+02 6.080732e+02 3.005357e+02 7.163379e+01 1.933686e+00 0 0 0 0 0 0 0 
0 0 0 0 0 0 0 2.924306e+00 1.042921e+02 4.249535e+02 7.444822e+02 7.416371e+02 5.373517e+02 3.341741e+02 1.834178e+02 1.173976e+02 1.030856e+02 1.173976e+02 1.834178e+02 3.341741e+02 5.373517e+02 7.416371e+02 7.444822e+02 4.249535e+02 1.042921e+02 2.924306e+00 0 0 0 0 0 0 
0 0 0 0 0 0 1.138927e-01 5.956888e+01 3.852543e+02 7.244208e+02 6.075774e+02 2.574408e+02 5.458282e+01 6.097958e+00 0 0 0 0 0 6.097958e+00 5.458282e+01 2.574408e+02 6.075774e+02 7.244208e+02 3.852543e+02 5.956888e+01 1.138927e-01 0 0 0 0 0 
0 0 0 0 0 0 1.333990e+01 2.387023e+02 6.036940e+02 5.307764e+02 1.613152e+02 8.870361e+00 0 0 0 0 0 0 0 0 0 8.870361e+00 1.613152e+02 5.307764e+02 6.036940e+02 2.387023e+02 1.333990e+01 0 0 0 0 0 
0 0 0 0 0 0 6.565644e+01 4.285327e+02 5.536271e+02 1.985321e+02 7.781234e+00 0 0 0 0 0 0 0 0 0 0 0 7.781234e+00 1.985321e+02 5.536271e+02 4.285327e+02 6.565644e+01 0 0 0 0 0 
0 0 0 0 0 2.647117e-02 1.007953e+02 3.705378e+02 3.134419e+02 4.371035e+01 3.743376e-02 0 0 0 0 0 0 0 0 0 0 0 3.743376e-02 4.371035e+01 3.134419e+02 3.705378e+02 1.007953e+02 2.647117e-02 0 0 0 0 
0 0 0 0 0 7.328324e-02 1.026904e+02 2.285455e+02 1.308315e+02 4.903114e+00 0 0 0 0 0 0 0 0 0 0 0 0 0 4.903114e+00 1.308315e+02 2.285455e+02 1.026904e+02 7.328324e-02 0 0 0 0 
0 0 0 0 0 -7.215426e-13 1.384604e-11 3.878453e-11 2.395558e-11 -2.593356e-13 0 0 0 0 0 0 0 0 0 0 0 0 0 1.218973e-13 -2.820137e-11 -4.987337e-11 -2.109608e-11 4.948861e-13 0 0 0 0 
0 0 0 0 0 -7.328324e-02 -1.026904e+02 -2.285455e+02 -1.308315e+02 -4.903114e+00 0 0 0 0 0 0 0 0 0 0 0 0 0 -4.903114e+00 -1.308315e+02 -2.285455e+02 -1.026904e+02 -7.328324e-02 0 0 0 0 
0 0 0 0 0 -2.647117e-02 -1.007953e+02 -3.705378e+02 -3.134419e+02 -4.371035e+01 -3.743376e-02 0 0 0 0 0 0 0 0 0 0 0 -3.743376e-02 -4.371035e+01 -3.134419e+02 -3.705378e+02 -1.007953e+02 -2.647117e-02 0 0 0 0 
0 0 0 0 0 0 -6.565644e+01 -4.285327e+02 -5.536271e+02 -1.985321e+02 -7.781234e+00 0 0 0 0 0 0 0 0 0 0 0 -7.781234e+00 -1.985321e+02 -5.536271e+02 -4.285327e+02 -6.565644e+01 0 0 0 0 0 
0 0 0 0 0 0 -1.333990e+01 -2.387023e+02 -6.036940e+02 -5.307764e+02 -1.613152e+02 -8.870361e+00 0 0 0 0 0 0 0 0 0 -8.870361e+00 -1.613152e+02 -5.307764e+02 -6.036940e+02 -2.387023e+02 -1.333990e+01 0 0 0 0 0 
0 0 0 0 0 0 -1.138927e-01 -5.956888e+01 -3.852543e+02 -7.244208e+02 -6.075774e+02 -2.574408e+02 -5.458282e+01 -6.097958e+00 0 0 0 0 0 -6.097958e+00 -5.458282e+01 -2.574408e+02 -6.075774e+02 -7.244208e+02 -3.852543e+02 -5.956888e+01 -1.138927e-01 0 0 0 0 0 
0 0 0 0 0 0 0 -2.924306e+00 -1.042921e+02 -4.249535e+02 -7.444822e+02 -7.416371e+02 -5.373517e+02 -3.341741e+02 -1.834178e+02 -1.173976e+02 -1.030856e+02 -1.173976e+02 -1.834178e+02 -3.341741e+02 -5.373517e+02 -7.416371e+02 -7.444822e+02 -4.249535e+02 -1.042921e+02 -2.924306e+00 0 0 0 0 0 0 
0 0 0 0 0 0 0 0 -1.933686e+00 -7.163379e+01 -3.005357e+02 -6.080732e+02 -7.888634e+02 -8.056548e+02 -7.217346e+02 -6.700597e+02 -6.847082e+02 -6.700597e+02 -7.217346e+02 -8.056548e+02 -7.888634e+02 -6.080732e+02 -3.005357e+02 -7.163379e+01 -1.933686e+00 0 0 0 0 0 0 0 
0 0 0 0 0 0 0 0 0 -3.492210e-02 -1.005953e+01 -1.150750e+02 -3.102249e+02 -5.062089e+02 -6.089169e+02 -6.687776e+02 -7.217902e+02 -6.687776e+02 -6.089169e+02 -5.062089e+02 -3.102249e+02 -1.150750e+02 -1.005953e+01 -3.492210e-02 0 0 0 0 0 0 0 0 
0 0 0 0 0 0 0 0 0 0 0 -6.849773e-02 -4.130436e+00 -2.863025e+01 -7.060010e+01 -1.161156e+02 -1.401676e+02 -1.161156e+02 -7.060010e+01 -2.863025e+01 -4.130436e+00 -6.849773e-02 0 0 0 0 0 0 0 0 0 0 
0 0 0 0 0 0 0 0 0 0 0 0 0 0 0 0 0 0 0 0 0 0 0 0 0 0 0 0 0 0 0 0 
0 0 0 0 0 0 0 0 0 0 0 0 0 0 0 0 0 0 0 0 0 0 0 0 0 0 0 0 0 0 0 0 
0 0 0 0 0 0 0 0 0 0 0 0 0 0 0 0 0 0 0 0 0 0 0 0 0 0 0 0 0 0 0 0 
0 0 0 0 0 0 0 0 0 0 0 0 0 0 0 0 0 0 0 0 0 0 0 0 0 0 0 0 0 0 0 0 
0 0 0 0 0 0 0 0 0 0 0 0 0 0 0 0 0 0 0 0 0 0 0 0 0 0 0 0 0 0 0 0 
0 0 0 0 0 0 0 0 0 0 0 0 0 0 0 0 0 0 0 0 0 0 0 0 0 0 0 0 0 0 0 0 
