# vtk DataFile Version 2.0
Comment goes here
ASCII

DATASET STRUCTURED_POINTS
FIELD FieldData 1
TIME 1 1 double
1.28000000
DIMENSIONS    32   32   1

ORIGIN    0.000   0.000   0.000
SPACING   0.03125 0.03125   1.000

POINT_DATA   1024
SCALARS fY double
LOOKUP_TABLE default

0 0 0 0 0 0 0 0 0 0 0 0 0 0 0 0 0 0 0 0 0 0 0 0 0 0 0 0 0 0 0 0 
0 0 0 0 0 0 0 0 0 0 0 0 0 0 0 0 0 0 0 0 0 0 0 0 0 0 0 0 0 0 0 0 
0 0 0 0 0 0 0 0 0 0 0 0 0 0 0 0 0 0 0 0 0 0 0 0 0 0 0 0 0 0 0 0 
0 0 0 0 0 0 0 0 0 0 0 0 0 0 0 0 0 0 0 0 0 0 0 0 0 0 0 0 0 0 0 0 
0 0 0 0 0 0 0 0 0 0 0 0 0 0 0 0 0 0 0 0 0 0 0 0 0 0 0 0 0 0 0 0 
0 0 0 0 0 0 0 0 0 0 0 0 0 0 0 0 0 0 0 0 0 0 0 0 0 0 0 0 0 0 0 0 
0 0 0 0 0 0 0 0 0 0 0 0 0 0 0 0 0 0 0 0 0 0 0 0 0 0 0 0 0 0 0 0 
0 0 0 0 0 0 0 0 0 0 0 0 -5.905785e-03 2.739116e+00 2.836317e+01 5.766712e+01 6.409793e+01 5.766712e+01 2.836317e+01 2.739116e+00 -5.905785e-03 0 0 0 0 0 0 0 0 0 0 0 
0 0 0 0 0 0 0 0 0 0 0 4.732964e+00 9.693352e+01 2.656787e+02 4.987991e+02 6.673928e+02 6.841437e+02 6.673928e+02 4.987991e+02 2.656787e+02 9.693352e+01 4.732964e+00 0 0 0 0 0 0 0 0 0 0 
0 0 0 0 0 0 0 0 0 5.704438e-02 1.481021e+01 2.036383e+02 5.437391e+02 7.933813e+02 8.570560e+02 8.400759e+02 8.430942e+02 8.400759e+02 8.570560e+02 7.933813e+02 5.437391e+02 2.036383e+02 1.481021e+01 5.704438e-02 0 0 0 0 0 0 0 0 
0 0 0 0 0 0 0 0 0 1.876732e+01 1.961623e+02 5.904930e+02 7.685605e+02 6.272405e+02 3.911349e+02 2.308812e+02 2.230484e+02 2.308812e+02 3.911349e+02 6.272405e+02 7.685605e+02 5.904930e+02 1.961623e+02 1.876732e+01 0 0 0 0 0 0 0 0 
0 0 0 0 0 0 0 0 6.626994e+00 1.070582e+02 4.738381e+02 6.614376e+02 3.819167e+02 9.786982e+01 4.514849e+00 5.310424e-01 0 5.310424e-01 4.514849e+00 9.786982e+01 3.819167e+02 6.614376e+02 4.738381e+02 1.070582e+02 6.626994e+00 0 0 0 0 0 0 0 
0 0 0 0 0 0 0 0 -6.827423e+00 2.182676e+02 5.201211e+02 3.567538e+02 6.279876e+01 1.071024e+00 0 0 0 0 0 1.071024e+00 6.279876e+01 3.567538e+02 5.201211e+02 2.182676e+02 -6.827423e+00 0 0 0 0 0 0 0 
0 0 0 0 0 0 0 -4.004425e-02 6.452021e+01 2.920191e+02 3.116714e+02 8.685545e+01 2.642865e+00 0 0 0 0 0 0 0 2.642865e+00 8.685545e+01 3.116714e+02 2.920191e+02 6.452021e+01 -4.004425e-02 0 0 0 0 0 0 
0 0 0 0 0 0 0 3.894948e-01 8.456239e+01 2.487431e+02 1.694388e+02 4.868650e+00 0 0 0 0 0 0 0 0 0 4.868650e+00 1.694388e+02 2.487431e+02 8.456239e+01 3.894948e-01 0 0 0 0 0 0 
0 0 0 0 0 0 0 1.795605e+00 4.203756e+01 1.353142e+02 9.998929e+01 4.917055e+00 0 0 0 0 0 0 0 0 0 4.917055e+00 9.998929e+01 1.353142e+02 4.203756e+01 1.795605e+00 0 0 0 0 0 0 
0 0 0 0 0 0 0 2.787744e-11 1.240435e-10 -4.263061e-11 -1.388047e-10 0 0 0 0 0 0 0 0 0 0 0 9.627854e-11 7.055689e-11 -4.645881e-11 -2.075051e-11 0 0 0 0 0 0 
0 0 0 0 0 0 0 -1.795605e+00 -4.203756e+01 -1.353142e+02 -9.998929e+01 -4.917055e+00 0 0 0 0 0 0 0 0 0 -4.917055e+00 -9.998929e+01 -1.353142e+02 -4.203756e+01 -1.795605e+00 0 0 0 0 0 0 
0 0 0 0 0 0 0 -3.894948e-01 -8.456239e+01 -2.487431e+02 -1.694388e+02 -4.868650e+00 0 0 0 0 0 0 0 0 0 -4.868650e+00 -1.694388e+02 -2.487431e+02 -8.456239e+01 -3.894948e-01 0 0 0 0 0 0 
0 0 0 0 0 0 0 4.004425e-02 -6.452021e+01 -2.920191e+02 -3.116714e+02 -8.685545e+01 -2.642865e+00 0 0 0 0 0 0 0 -2.642865e+00 -8.685545e+01 -3.116714e+02 -2.920191e+02 -6.452021e+01 4.004425e-02 0 0 0 0 0 0 
0 0 0 0 0 0 0 0 6.827423e+00 -2.182676e+02 -5.201211e+02 -3.567538e+02 -6.279876e+01 -1.071024e+00 0 0 0 0 0 -1.071024e+00 -6.279876e+01 -3.567538e+02 -5.201211e+02 -2.182676e+02 6.827423e+00 0 0 0 0 0 0 0 
0 0 0 0 0 0 0 0 -6.626994e+00 -1.070582e+02 -4.738381e+02 -6.614376e+02 -3.819167e+02 -9.786982e+01 -4.514849e+00 -5.310424e-01 0 -5.310424e-01 -4.514849e+00 -9.786982e+01 -3.819167e+02 -6.614376e+02 -4.738381e+02 -1.070582e+02 -6.626994e+00 0 0 0 0 0 0 0 
0 0 0 0 0 0 0 0 0 -1.876732e+01 -1.961623e+02 -5.904930e+02 -7.685605e+02 -6.272405e+02 -3.911349e+02 -2.308812e+02 -2.230484e+02 -2.308812e+02 -3.911349e+02 -6.272405e+02 -7.685605e+02 -5.904930e+02 -1.961623e+02 -1.876732e+01 0 0 0 0 0 0 0 0 
0 0 0 0 0 0 0 0 0 -5.704438e-02 -1.481021e+01 -2.036383e+02 -5.437391e+02 -7.933813e+02 -8.570560e+02 -8.400759e+02 -8.430942e+02 -8.400759e+02 -8.570560e+02 -7.933813e+02 -5.437391e+02 -2.036383e+02 -1.481021e+01 -5.704438e-02 0 0 0 0 0 0 0 0 
0 0 0 0 0 0 0 0 0 0 0 -4.732964e+00 -9.693352e+01 -2.656787e+02 -4.987991e+02 -6.673928e+02 -6.841437e+02 -6.673928e+02 -4.987991e+02 -2.656787e+02 -9.693352e+01 -4.732964e+00 0 0 0 0 0 0 0 0 0 0 
0 0 0 0 0 0 0 0 0 0 0 0 5.905785e-03 -2.739116e+00 -2.836317e+01 -5.766712e+01 -6.409793e+01 -5.766712e+01 -2.836317e+01 -2.739116e+00 5.905785e-03 0 0 0 0 0 0 0 0 0 0 0 
0 0 0 0 0 0 0 0 0 0 0 0 0 0 0 0 0 0 0 0 0 0 0 0 0 0 0 0 0 0 0 0 
0 0 0 0 0 0 0 0 0 0 0 0 0 0 0 0 0 0 0 0 0 0 0 0 0 0 0 0 0 0 0 0 
0 0 0 0 0 0 0 0 0 0 0 0 0 0 0 0 0 0 0 0 0 0 0 0 0 0 0 0 0 0 0 0 
0 0 0 0 0 0 0 0 0 0 0 0 0 0 0 0 0 0 0 0 0 0 0 0 0 0 0 0 0 0 0 0 
0 0 0 0 0 0 0 0 0 0 0 0 0 0 0 0 0 0 0 0 0 0 0 0 0 0 0 0 0 0 0 0 
0 0 0 0 0 0 0 0 0 0 0 0 0 0 0 0 0 0 0 0 0 0 0 0 0 0 0 0 0 0 0 0 
