# vtk DataFile Version 2.0
Comment goes here
ASCII

DATASET STRUCTURED_POINTS
FIELD FieldData 1
TIME 1 1 double
0.76000000
DIMENSIONS    32   32   1

ORIGIN    0.000   0.000   0.000
SPACING   0.03125 0.03125   1.000

POINT_DATA   1024
SCALARS fY double
LOOKUP_TABLE default

0 0 0 0 0 0 0 0 0 0 0 0 0 0 0 0 0 0 0 0 0 0 0 0 0 0 0 0 0 0 0 0 
0 0 0 0 0 0 0 0 0 0 0 0 0 0 0 0 0 0 0 0 0 0 0 0 0 0 0 0 0 0 0 0 
0 0 0 0 0 0 0 0 0 0 0 0 0 0 0 0 0 0 0 0 0 0 0 0 0 0 0 0 0 0 0 0 
0 0 0 0 0 0 0 0 0 0 0 0 0 0 0 0 0 0 0 0 0 0 0 0 0 0 0 0 0 0 0 0 
0 0 0 0 0 0 0 0 0 0 0 0 0 0 0 0 0 0 0 0 0 0 0 0 0 0 0 0 0 0 0 0 
0 0 0 0 0 0 0 0 0 0 0 0 0 0 0 0 0 0 0 0 0 0 0 0 0 0 0 0 0 0 0 0 
0 0 0 0 0 0 0 0 0 0 0 0 0 7.411420e-01 7.234846e+00 2.104479e+01 2.910217e+01 2.104479e+01 7.234846e+00 7.411420e-01 0 0 0 0 0 0 0 0 0 0 0 0 
0 0 0 0 0 0 0 0 0 0 0 1.628752e+01 8.685638e+01 2.409127e+02 4.788217e+02 6.212761e+02 6.255965e+02 6.212761e+02 4.788217e+02 2.409127e+02 8.685638e+01 1.628752e+01 0 0 0 0 0 0 0 0 0 0 
0 0 0 0 0 0 0 0 0 2.592218e+00 4.708504e+01 2.777497e+02 6.577685e+02 8.355878e+02 9.307303e+02 9.710937e+02 9.028790e+02 9.710937e+02 9.307303e+02 8.355878e+02 6.577685e+02 2.777497e+02 4.708504e+01 2.592218e+00 0 0 0 0 0 0 0 0 
0 0 0 0 0 0 0 0 1.535621e+00 7.442931e+01 4.061976e+02 7.542925e+02 8.767101e+02 7.082975e+02 4.708649e+02 3.714813e+02 3.063847e+02 3.714813e+02 4.708649e+02 7.082975e+02 8.767101e+02 7.542925e+02 4.061976e+02 7.442931e+01 1.535621e+00 0 0 0 0 0 0 0 
0 0 0 0 0 0 0 0 4.438799e+01 3.311265e+02 7.580343e+02 6.997042e+02 3.303357e+02 1.130298e+02 1.172149e+01 6.189496e-01 0 6.189496e-01 1.172149e+01 1.130298e+02 3.303357e+02 6.997042e+02 7.580343e+02 3.311265e+02 4.438799e+01 0 0 0 0 0 0 0 
0 0 0 0 0 0 0 8.460842e+00 2.103952e+02 5.964232e+02 5.914997e+02 2.214353e+02 2.457303e+01 1.485758e-01 0 0 0 0 0 1.485758e-01 2.457303e+01 2.214353e+02 5.914997e+02 5.964232e+02 2.103952e+02 8.460842e+00 0 0 0 0 0 0 
0 0 0 0 0 0 0 5.002965e+01 3.948718e+02 5.768462e+02 2.466968e+02 1.472809e+01 3.530576e-02 0 0 0 0 0 0 0 3.530576e-02 1.472809e+01 2.466968e+02 5.768462e+02 3.948718e+02 5.002965e+01 0 0 0 0 0 0 
0 0 0 0 0 0 3.478198e-02 9.614240e+01 3.758540e+02 3.390568e+02 5.947705e+01 1.666347e-01 0 0 0 0 0 0 0 0 0 1.666347e-01 5.947705e+01 3.390568e+02 3.758540e+02 9.614240e+01 3.478198e-02 0 0 0 0 0 
0 0 0 0 0 0 1.156037e+00 9.616060e+01 2.195965e+02 1.300720e+02 5.480058e+00 0 0 0 0 0 0 0 0 0 0 0 5.480058e+00 1.300720e+02 2.195965e+02 9.616060e+01 1.156037e+00 0 0 0 0 0 
0 0 0 0 0 0 2.885725e+00 8.320131e+01 1.318857e+02 5.169202e+01 1.218744e-01 0 0 0 0 0 0 0 0 0 0 0 1.218744e-01 5.169202e+01 1.318857e+02 8.320131e+01 2.885725e+00 0 0 0 0 0 
0 0 0 0 0 0 -2.309306e-12 -2.449241e-11 -2.937862e-11 -7.191405e-12 0 0 0 0 0 0 0 0 0 0 0 0 0 7.372103e-12 3.676431e-11 3.284365e-11 3.454404e-12 0 0 0 0 0 
0 0 0 0 0 0 -2.885725e+00 -8.320131e+01 -1.318857e+02 -5.169202e+01 -1.218744e-01 0 0 0 0 0 0 0 0 0 0 0 -1.218744e-01 -5.169202e+01 -1.318857e+02 -8.320131e+01 -2.885725e+00 0 0 0 0 0 
0 0 0 0 0 0 -1.156037e+00 -9.616060e+01 -2.195965e+02 -1.300720e+02 -5.480058e+00 0 0 0 0 0 0 0 0 0 0 0 -5.480058e+00 -1.300720e+02 -2.195965e+02 -9.616060e+01 -1.156037e+00 0 0 0 0 0 
0 0 0 0 0 0 -3.478198e-02 -9.614240e+01 -3.758540e+02 -3.390568e+02 -5.947705e+01 -1.666347e-01 0 0 0 0 0 0 0 0 0 -1.666347e-01 -5.947705e+01 -3.390568e+02 -3.758540e+02 -9.614240e+01 -3.478198e-02 0 0 0 0 0 
0 0 0 0 0 0 0 -5.002965e+01 -3.948718e+02 -5.768462e+02 -2.466968e+02 -1.472809e+01 -3.530576e-02 0 0 0 0 0 0 0 -3.530576e-02 -1.472809e+01 -2.466968e+02 -5.768462e+02 -3.948718e+02 -5.002965e+01 0 0 0 0 0 0 
0 0 0 0 0 0 0 -8.460842e+00 -2.103952e+02 -5.964232e+02 -5.914997e+02 -2.214353e+02 -2.457303e+01 -1.485758e-01 0 0 0 0 0 -1.485758e-01 -2.457303e+01 -2.214353e+02 -5.914997e+02 -5.964232e+02 -2.103952e+02 -8.460842e+00 0 0 0 0 0 0 
0 0 0 0 0 0 0 0 -4.438799e+01 -3.311265e+02 -7.580343e+02 -6.997042e+02 -3.303357e+02 -1.130298e+02 -1.172149e+01 -6.189496e-01 0 -6.189496e-01 -1.172149e+01 -1.130298e+02 -3.303357e+02 -6.997042e+02 -7.580343e+02 -3.311265e+02 -4.438799e+01 0 0 0 0 0 0 0 
0 0 0 0 0 0 0 0 -1.535621e+00 -7.442931e+01 -4.061976e+02 -7.542925e+02 -8.767101e+02 -7.082975e+02 -4.708649e+02 -3.714813e+02 -3.063847e+02 -3.714813e+02 -4.708649e+02 -7.082975e+02 -8.767101e+02 -7.542925e+02 -4.061976e+02 -7.442931e+01 -1.535621e+00 0 0 0 0 0 0 0 
0 0 0 0 0 0 0 0 0 -2.592218e+00 -4.708504e+01 -2.777497e+02 -6.577685e+02 -8.355878e+02 -9.307303e+02 -9.710937e+02 -9.028790e+02 -9.710937e+02 -9.307303e+02 -8.355878e+02 -6.577685e+02 -2.777497e+02 -4.708504e+01 -2.592218e+00 0 0 0 0 0 0 0 0 
0 0 0 0 0 0 0 0 0 0 0 -1.628752e+01 -8.685638e+01 -2.409127e+02 -4.788217e+02 -6.212761e+02 -6.255965e+02 -6.212761e+02 -4.788217e+02 -2.409127e+02 -8.685638e+01 -1.628752e+01 0 0 0 0 0 0 0 0 0 0 
0 0 0 0 0 0 0 0 0 0 0 0 0 -7.411420e-01 -7.234846e+00 -2.104479e+01 -2.910217e+01 -2.104479e+01 -7.234846e+00 -7.411420e-01 0 0 0 0 0 0 0 0 0 0 0 0 
0 0 0 0 0 0 0 0 0 0 0 0 0 0 0 0 0 0 0 0 0 0 0 0 0 0 0 0 0 0 0 0 
0 0 0 0 0 0 0 0 0 0 0 0 0 0 0 0 0 0 0 0 0 0 0 0 0 0 0 0 0 0 0 0 
0 0 0 0 0 0 0 0 0 0 0 0 0 0 0 0 0 0 0 0 0 0 0 0 0 0 0 0 0 0 0 0 
0 0 0 0 0 0 0 0 0 0 0 0 0 0 0 0 0 0 0 0 0 0 0 0 0 0 0 0 0 0 0 0 
0 0 0 0 0 0 0 0 0 0 0 0 0 0 0 0 0 0 0 0 0 0 0 0 0 0 0 0 0 0 0 0 
