# vtk DataFile Version 2.0
Comment goes here
ASCII

DATASET STRUCTURED_POINTS
FIELD FieldData 1
TIME 1 1 double
0.22000000
DIMENSIONS    32   32   1

ORIGIN    0.000   0.000   0.000
SPACING   0.03125 0.03125   1.000

POINT_DATA   1024
SCALARS fY double
LOOKUP_TABLE default

0 0 0 0 0 0 0 0 0 0 0 0 0 0 0 0 0 0 0 0 0 0 0 0 0 0 0 0 0 0 0 0 
0 0 0 0 0 0 0 0 0 0 0 0 0 0 0 0 0 0 0 0 0 0 0 0 0 0 0 0 0 0 0 0 
0 0 0 0 0 0 0 0 0 0 0 0 0 0 0 0 0 0 0 0 0 0 0 0 0 0 0 0 0 0 0 0 
0 0 0 0 0 0 0 0 0 0 0 0 0 0 0 0 0 0 0 0 0 0 0 0 0 0 0 0 0 0 0 0 
0 0 0 0 0 0 0 0 0 0 0 0 0 0 0 0 0 0 0 0 0 0 0 0 0 0 0 0 0 0 0 0 
0 0 0 0 0 0 0 0 0 0 0 0 0 0 0 0 0 0 0 0 0 0 0 0 0 0 0 0 0 0 0 0 
0 0 0 0 0 0 0 0 0 0 0 0 0 0 0 0 0 0 0 0 0 0 0 0 0 0 0 0 0 0 0 0 
0 0 0 0 0 0 0 0 0 0 2.604552e-02 1.155182e+01 5.784347e+01 1.555130e+02 2.707500e+02 3.429090e+02 3.627086e+02 3.429090e+02 2.707500e+02 1.555130e+02 5.784347e+01 1.155182e+01 2.604552e-02 0 0 0 0 0 0 0 0 0 
0 0 0 0 0 0 0 0 7.488698e-01 2.825904e+01 1.502565e+02 3.546618e+02 5.628993e+02 7.373265e+02 8.683245e+02 9.086844e+02 8.934050e+02 9.086844e+02 8.683245e+02 7.373265e+02 5.628993e+02 3.546618e+02 1.502565e+02 2.825904e+01 7.488698e-01 0 0 0 0 0 0 0 
0 0 0 0 0 0 0 5.831566e+00 8.514229e+01 2.889014e+02 6.101551e+02 7.800531e+02 7.467069e+02 6.968541e+02 6.435312e+02 5.837509e+02 5.397112e+02 5.837509e+02 6.435312e+02 6.968541e+02 7.467069e+02 7.800531e+02 6.101551e+02 2.889014e+02 8.514229e+01 5.831566e+00 0 0 0 0 0 0 
0 0 0 0 0 0 6.596750e+00 1.331556e+02 4.828400e+02 6.626039e+02 6.177166e+02 4.732339e+02 2.443921e+02 1.150406e+02 4.595672e+01 1.797552e+01 9.014785e+00 1.797552e+01 4.595672e+01 1.150406e+02 2.443921e+02 4.732339e+02 6.177166e+02 6.626039e+02 4.828400e+02 1.331556e+02 6.596750e+00 0 0 0 0 0 
0 0 0 0 0 7.115973e-01 1.047934e+02 5.105621e+02 8.002291e+02 5.253278e+02 1.651288e+02 3.629072e+01 2.741016e+00 0 0 0 0 0 0 0 2.741016e+00 3.629072e+01 1.651288e+02 5.253278e+02 8.002291e+02 5.105621e+02 1.047934e+02 7.115973e-01 0 0 0 0 
0 0 0 0 0 1.660316e+01 3.369446e+02 7.888583e+02 5.918597e+02 1.306797e+02 7.336842e+00 0 0 0 0 0 0 0 0 0 0 0 7.336842e+00 1.306797e+02 5.918597e+02 7.888583e+02 3.369446e+02 1.660316e+01 0 0 0 0 
0 0 0 0 0 4.913150e+01 4.088407e+02 5.735942e+02 2.212041e+02 7.319032e+00 0 0 0 0 0 0 0 0 0 0 0 0 0 7.319032e+00 2.212041e+02 5.735942e+02 4.088407e+02 4.913150e+01 0 0 0 0 
0 0 0 0 0 6.868980e+01 2.641385e+02 2.293004e+02 3.385736e+01 5.585697e-03 0 0 0 0 0 0 0 0 0 0 0 0 0 5.585697e-03 3.385736e+01 2.293004e+02 2.641385e+02 6.868980e+01 0 0 0 0 
0 0 0 0 3.706829e-14 5.677855e+01 1.390413e+02 8.508925e+01 2.826470e+00 0 0 0 0 0 0 0 0 0 0 0 0 0 0 0 2.826470e+00 8.508925e+01 1.390413e+02 5.677855e+01 -7.292123e-15 0 0 0 
0 0 0 0 7.413659e-14 -3.892433e-12 -1.462297e-11 -1.055822e-11 1.061832e-13 0 0 0 0 0 0 0 0 0 0 0 0 0 0 0 -4.246242e-14 -2.890258e-12 -6.170760e-12 -3.338865e-12 -1.458425e-14 0 0 0 
0 0 0 0 3.706829e-14 -5.677855e+01 -1.390413e+02 -8.508925e+01 -2.826470e+00 0 0 0 0 0 0 0 0 0 0 0 0 0 0 0 -2.826470e+00 -8.508925e+01 -1.390413e+02 -5.677855e+01 -7.292123e-15 0 0 0 
0 0 0 0 0 -6.868980e+01 -2.641385e+02 -2.293004e+02 -3.385736e+01 -5.585697e-03 0 0 0 0 0 0 0 0 0 0 0 0 0 -5.585697e-03 -3.385736e+01 -2.293004e+02 -2.641385e+02 -6.868980e+01 0 0 0 0 
0 0 0 0 0 -4.913150e+01 -4.088407e+02 -5.735942e+02 -2.212041e+02 -7.319032e+00 0 0 0 0 0 0 0 0 0 0 0 0 0 -7.319032e+00 -2.212041e+02 -5.735942e+02 -4.088407e+02 -4.913150e+01 0 0 0 0 
0 0 0 0 0 -1.660316e+01 -3.369446e+02 -7.888583e+02 -5.918597e+02 -1.306797e+02 -7.336842e+00 0 0 0 0 0 0 0 0 0 0 0 -7.336842e+00 -1.306797e+02 -5.918597e+02 -7.888583e+02 -3.369446e+02 -1.660316e+01 0 0 0 0 
0 0 0 0 0 -7.115973e-01 -1.047934e+02 -5.105621e+02 -8.002291e+02 -5.253278e+02 -1.651288e+02 -3.629072e+01 -2.741016e+00 0 0 0 0 0 0 0 -2.741016e+00 -3.629072e+01 -1.651288e+02 -5.253278e+02 -8.002291e+02 -5.105621e+02 -1.047934e+02 -7.115973e-01 0 0 0 0 
0 0 0 0 0 0 -6.596750e+00 -1.331556e+02 -4.828400e+02 -6.626039e+02 -6.177166e+02 -4.732339e+02 -2.443921e+02 -1.150406e+02 -4.595672e+01 -1.797552e+01 -9.014785e+00 -1.797552e+01 -4.595672e+01 -1.150406e+02 -2.443921e+02 -4.732339e+02 -6.177166e+02 -6.626039e+02 -4.828400e+02 -1.331556e+02 -6.596750e+00 0 0 0 0 0 
0 0 0 0 0 0 0 -5.831566e+00 -8.514229e+01 -2.889014e+02 -6.101551e+02 -7.800531e+02 -7.467069e+02 -6.968541e+02 -6.435312e+02 -5.837509e+02 -5.397112e+02 -5.837509e+02 -6.435312e+02 -6.968541e+02 -7.467069e+02 -7.800531e+02 -6.101551e+02 -2.889014e+02 -8.514229e+01 -5.831566e+00 0 0 0 0 0 0 
0 0 0 0 0 0 0 0 -7.488698e-01 -2.825904e+01 -1.502565e+02 -3.546618e+02 -5.628993e+02 -7.373265e+02 -8.683245e+02 -9.086844e+02 -8.934050e+02 -9.086844e+02 -8.683245e+02 -7.373265e+02 -5.628993e+02 -3.546618e+02 -1.502565e+02 -2.825904e+01 -7.488698e-01 0 0 0 0 0 0 0 
0 0 0 0 0 0 0 0 0 0 -2.604552e-02 -1.155182e+01 -5.784347e+01 -1.555130e+02 -2.707500e+02 -3.429090e+02 -3.627086e+02 -3.429090e+02 -2.707500e+02 -1.555130e+02 -5.784347e+01 -1.155182e+01 -2.604552e-02 0 0 0 0 0 0 0 0 0 
0 0 0 0 0 0 0 0 0 0 0 0 0 0 0 0 0 0 0 0 0 0 0 0 0 0 0 0 0 0 0 0 
0 0 0 0 0 0 0 0 0 0 0 0 0 0 0 0 0 0 0 0 0 0 0 0 0 0 0 0 0 0 0 0 
0 0 0 0 0 0 0 0 0 0 0 0 0 0 0 0 0 0 0 0 0 0 0 0 0 0 0 0 0 0 0 0 
0 0 0 0 0 0 0 0 0 0 0 0 0 0 0 0 0 0 0 0 0 0 0 0 0 0 0 0 0 0 0 0 
0 0 0 0 0 0 0 0 0 0 0 0 0 0 0 0 0 0 0 0 0 0 0 0 0 0 0 0 0 0 0 0 
0 0 0 0 0 0 0 0 0 0 0 0 0 0 0 0 0 0 0 0 0 0 0 0 0 0 0 0 0 0 0 0 
