# vtk DataFile Version 2.0
Comment goes here
ASCII

DATASET STRUCTURED_POINTS
FIELD FieldData 1
TIME 1 1 double
1.00000000
DIMENSIONS    32   32   1

ORIGIN    0.000   0.000   0.000
SPACING   0.03125 0.03125   1.000

POINT_DATA   1024
SCALARS fY double
LOOKUP_TABLE default

0 0 0 0 0 0 0 0 0 0 0 0 0 0 0 0 0 0 0 0 0 0 0 0 0 0 0 0 0 0 0 0 
0 0 0 0 0 0 0 0 0 0 0 0 0 0 0 0 0 0 0 0 0 0 0 0 0 0 0 0 0 0 0 0 
0 0 0 0 0 0 0 0 0 0 0 0 0 0 0 0 0 0 0 0 0 0 0 0 0 0 0 0 0 0 0 0 
0 0 0 0 0 0 0 0 0 0 0 0 0 0 0 0 0 0 0 0 0 0 0 0 0 0 0 0 0 0 0 0 
0 0 0 0 0 0 0 0 0 0 0 0 0 0 0 0 0 0 0 0 0 0 0 0 0 0 0 0 0 0 0 0 
0 0 0 0 0 0 0 0 0 0 0 0 0 0 0 0 0 0 0 0 0 0 0 0 0 0 0 0 0 0 0 0 
0 0 0 0 0 0 0 0 0 0 0 0 0 0 0 0 0 0 0 0 0 0 0 0 0 0 0 0 0 0 0 0 
0 0 0 0 0 0 0 0 0 0 0 0 5.564444e-02 6.003088e+00 3.956471e+01 7.301521e+01 7.879588e+01 7.301521e+01 3.956471e+01 6.003088e+00 5.564444e-02 0 0 0 0 0 0 0 0 0 0 0 
0 0 0 0 0 0 0 0 0 0 2.511058e+00 2.140869e+01 2.115999e+02 4.230921e+02 5.591049e+02 6.343334e+02 6.112368e+02 6.343334e+02 5.591049e+02 4.230921e+02 2.115999e+02 2.140869e+01 2.511058e+00 0 0 0 0 0 0 0 0 0 
0 0 0 0 0 0 0 0 0 1.082720e+01 1.128673e+02 3.364735e+02 7.036355e+02 9.022515e+02 8.283886e+02 7.361459e+02 6.816133e+02 7.361459e+02 8.283886e+02 9.022515e+02 7.036355e+02 3.364735e+02 1.128673e+02 1.082720e+01 0 0 0 0 0 0 0 0 
0 0 0 0 0 0 0 0 4.819199e+00 1.406649e+02 5.282663e+02 7.414229e+02 6.458645e+02 5.060956e+02 3.094750e+02 1.748277e+02 1.491724e+02 1.748277e+02 3.094750e+02 5.060956e+02 6.458645e+02 7.414229e+02 5.282663e+02 1.406649e+02 4.819199e+00 0 0 0 0 0 0 0 
0 0 0 0 0 0 0 2.226810e+00 1.109305e+02 4.292629e+02 7.098382e+02 5.291485e+02 1.601761e+02 2.093320e+01 6.265841e-01 0 0 0 6.265841e-01 2.093320e+01 1.601761e+02 5.291485e+02 7.098382e+02 4.292629e+02 1.109305e+02 2.226810e+00 0 0 0 0 0 0 
0 0 0 0 0 0 0 -4.587650e+00 2.764222e+02 6.269597e+02 4.447365e+02 1.051895e+02 6.402886e+00 0 0 0 0 0 0 0 6.402886e+00 1.051895e+02 4.447365e+02 6.269597e+02 2.764222e+02 -4.587650e+00 0 0 0 0 0 0 
0 0 0 0 0 0 -2.060084e-05 4.634223e+01 3.045547e+02 4.151806e+02 1.593673e+02 2.399165e+00 0 0 0 0 0 0 0 0 0 2.399165e+00 1.593673e+02 4.151806e+02 3.045547e+02 4.634223e+01 -2.060084e-05 0 0 0 0 0 
0 0 0 0 0 0 2.112717e-01 9.536082e+01 2.484650e+02 1.632332e+02 9.917755e+00 0 0 0 0 0 0 0 0 0 0 0 9.917755e+00 1.632332e+02 2.484650e+02 9.536082e+01 2.112717e-01 0 0 0 0 0 
0 0 0 0 0 0 6.445832e-01 6.208883e+01 1.460778e+02 8.799234e+01 3.358811e+00 0 0 0 0 0 0 0 0 0 0 0 3.358811e+00 8.799234e+01 1.460778e+02 6.208883e+01 6.445832e-01 0 0 0 0 0 
0 0 0 0 0 0 -2.549204e-13 -1.115746e-12 1.184636e-12 2.044199e-12 0 0 0 0 0 0 0 0 0 0 0 0 0 -1.352352e-11 -2.321630e-11 -9.495902e-12 1.991450e-13 0 0 0 0 0 
0 0 0 0 0 0 -6.445832e-01 -6.208883e+01 -1.460778e+02 -8.799234e+01 -3.358811e+00 0 0 0 0 0 0 0 0 0 0 0 -3.358811e+00 -8.799234e+01 -1.460778e+02 -6.208883e+01 -6.445832e-01 0 0 0 0 0 
0 0 0 0 0 0 -2.112717e-01 -9.536082e+01 -2.484650e+02 -1.632332e+02 -9.917755e+00 0 0 0 0 0 0 0 0 0 0 0 -9.917755e+00 -1.632332e+02 -2.484650e+02 -9.536082e+01 -2.112717e-01 0 0 0 0 0 
0 0 0 0 0 0 2.060084e-05 -4.634223e+01 -3.045547e+02 -4.151806e+02 -1.593673e+02 -2.399165e+00 0 0 0 0 0 0 0 0 0 -2.399165e+00 -1.593673e+02 -4.151806e+02 -3.045547e+02 -4.634223e+01 2.060084e-05 0 0 0 0 0 
0 0 0 0 0 0 0 4.587650e+00 -2.764222e+02 -6.269597e+02 -4.447365e+02 -1.051895e+02 -6.402886e+00 0 0 0 0 0 0 0 -6.402886e+00 -1.051895e+02 -4.447365e+02 -6.269597e+02 -2.764222e+02 4.587650e+00 0 0 0 0 0 0 
0 0 0 0 0 0 0 -2.226810e+00 -1.109305e+02 -4.292629e+02 -7.098382e+02 -5.291485e+02 -1.601761e+02 -2.093320e+01 -6.265841e-01 0 0 0 -6.265841e-01 -2.093320e+01 -1.601761e+02 -5.291485e+02 -7.098382e+02 -4.292629e+02 -1.109305e+02 -2.226810e+00 0 0 0 0 0 0 
0 0 0 0 0 0 0 0 -4.819199e+00 -1.406649e+02 -5.282663e+02 -7.414229e+02 -6.458645e+02 -5.060956e+02 -3.094750e+02 -1.748277e+02 -1.491724e+02 -1.748277e+02 -3.094750e+02 -5.060956e+02 -6.458645e+02 -7.414229e+02 -5.282663e+02 -1.406649e+02 -4.819199e+00 0 0 0 0 0 0 0 
0 0 0 0 0 0 0 0 0 -1.082720e+01 -1.128673e+02 -3.364735e+02 -7.036355e+02 -9.022515e+02 -8.283886e+02 -7.361459e+02 -6.816133e+02 -7.361459e+02 -8.283886e+02 -9.022515e+02 -7.036355e+02 -3.364735e+02 -1.128673e+02 -1.082720e+01 0 0 0 0 0 0 0 0 
0 0 0 0 0 0 0 0 0 0 -2.511058e+00 -2.140869e+01 -2.115999e+02 -4.230921e+02 -5.591049e+02 -6.343334e+02 -6.112368e+02 -6.343334e+02 -5.591049e+02 -4.230921e+02 -2.115999e+02 -2.140869e+01 -2.511058e+00 0 0 0 0 0 0 0 0 0 
0 0 0 0 0 0 0 0 0 0 0 0 -5.564444e-02 -6.003088e+00 -3.956471e+01 -7.301521e+01 -7.879588e+01 -7.301521e+01 -3.956471e+01 -6.003088e+00 -5.564444e-02 0 0 0 0 0 0 0 0 0 0 0 
0 0 0 0 0 0 0 0 0 0 0 0 0 0 0 0 0 0 0 0 0 0 0 0 0 0 0 0 0 0 0 0 
0 0 0 0 0 0 0 0 0 0 0 0 0 0 0 0 0 0 0 0 0 0 0 0 0 0 0 0 0 0 0 0 
0 0 0 0 0 0 0 0 0 0 0 0 0 0 0 0 0 0 0 0 0 0 0 0 0 0 0 0 0 0 0 0 
0 0 0 0 0 0 0 0 0 0 0 0 0 0 0 0 0 0 0 0 0 0 0 0 0 0 0 0 0 0 0 0 
0 0 0 0 0 0 0 0 0 0 0 0 0 0 0 0 0 0 0 0 0 0 0 0 0 0 0 0 0 0 0 0 
0 0 0 0 0 0 0 0 0 0 0 0 0 0 0 0 0 0 0 0 0 0 0 0 0 0 0 0 0 0 0 0 
