# vtk DataFile Version 2.0
Comment goes here
ASCII

DATASET STRUCTURED_POINTS
FIELD FieldData 1
TIME 1 1 double
1.34000000
DIMENSIONS    32   32   1

ORIGIN    0.000   0.000   0.000
SPACING   0.03125 0.03125   1.000

POINT_DATA   1024
SCALARS fY double
LOOKUP_TABLE default

0 0 0 0 0 0 0 0 0 0 0 0 0 0 0 0 0 0 0 0 0 0 0 0 0 0 0 0 0 0 0 0 
0 0 0 0 0 0 0 0 0 0 0 0 0 0 0 0 0 0 0 0 0 0 0 0 0 0 0 0 0 0 0 0 
0 0 0 0 0 0 0 0 0 0 0 0 0 0 0 0 0 0 0 0 0 0 0 0 0 0 0 0 0 0 0 0 
0 0 0 0 0 0 0 0 0 0 0 0 0 0 0 0 0 0 0 0 0 0 0 0 0 0 0 0 0 0 0 0 
0 0 0 0 0 0 0 0 0 0 0 0 0 0 0 0 0 0 0 0 0 0 0 0 0 0 0 0 0 0 0 0 
0 0 0 0 0 0 0 0 0 0 0 0 0 0 0 0 0 0 0 0 0 0 0 0 0 0 0 0 0 0 0 0 
0 0 0 0 0 0 0 0 0 0 0 0 0 0 0 0 0 0 0 0 0 0 0 0 0 0 0 0 0 0 0 0 
0 0 0 0 0 0 0 0 0 0 0 0 0 0 0 0 0 0 0 0 0 0 0 0 0 0 0 0 0 0 0 0 
0 0 0 0 0 0 0 0 0 0 0 -3.044017e-02 2.668619e+01 7.415353e+01 1.875831e+02 2.816587e+02 2.830250e+02 2.816587e+02 1.875831e+02 7.415353e+01 2.668619e+01 -3.044017e-02 0 0 0 0 0 0 0 0 0 0 
0 0 0 0 0 0 0 0 0 0 7.322523e-01 9.733874e+01 3.525102e+02 5.682798e+02 7.141399e+02 7.905699e+02 7.776121e+02 7.905699e+02 7.141399e+02 5.682798e+02 3.525102e+02 9.733874e+01 7.322523e-01 0 0 0 0 0 0 0 0 0 
0 0 0 0 0 0 0 0 0 1.571803e+01 1.452361e+02 4.535168e+02 7.341982e+02 7.415446e+02 6.031089e+02 5.278894e+02 5.122511e+02 5.278894e+02 6.031089e+02 7.415446e+02 7.341982e+02 4.535168e+02 1.452361e+02 1.571803e+01 0 0 0 0 0 0 0 0 
0 0 0 0 0 0 0 0 9.233337e+00 9.909758e+01 4.534707e+02 6.627849e+02 4.853856e+02 2.526131e+02 7.655210e+01 1.897812e+01 1.766394e+01 1.897812e+01 7.655210e+01 2.526131e+02 4.853856e+02 6.627849e+02 4.534707e+02 9.909758e+01 9.233337e+00 0 0 0 0 0 0 0 
0 0 0 0 0 0 0 1.569679e-01 2.126844e+01 3.100081e+02 5.909339e+02 3.763237e+02 7.948118e+01 5.194718e+00 0 0 0 0 0 5.194718e+00 7.948118e+01 3.763237e+02 5.909339e+02 3.100081e+02 2.126844e+01 1.569679e-01 0 0 0 0 0 0 
0 0 0 0 0 0 0 2.422354e+00 1.611755e+02 4.431505e+02 3.673721e+02 8.544450e+01 2.469811e+00 0 0 0 0 0 0 0 2.469811e+00 8.544450e+01 3.673721e+02 4.431505e+02 1.611755e+02 2.422354e+00 0 0 0 0 0 0 
0 0 0 0 0 0 0 -6.262761e+00 2.035198e+02 3.547816e+02 1.605194e+02 1.552025e+01 0 0 0 0 0 0 0 0 0 1.552025e+01 1.605194e+02 3.547816e+02 2.035198e+02 -6.262761e+00 0 0 0 0 0 0 
0 0 0 0 0 0 0 -5.027809e+00 6.551483e+01 1.439481e+02 7.316769e+01 -2.377924e-01 0 0 0 0 0 0 0 0 0 -2.377924e-01 7.316769e+01 1.439481e+02 6.551483e+01 -5.027809e+00 0 0 0 0 0 0 
0 0 0 0 0 0 0 1.567582e-10 1.417959e-10 -2.543679e-10 -2.394032e-10 0 0 0 0 0 0 0 0 0 0 0 1.830553e-10 3.479244e-10 8.547483e-11 -7.938395e-11 0 0 0 0 0 0 
0 0 0 0 0 0 0 5.027809e+00 -6.551483e+01 -1.439481e+02 -7.316769e+01 2.377924e-01 0 0 0 0 0 0 0 0 0 2.377924e-01 -7.316769e+01 -1.439481e+02 -6.551483e+01 5.027809e+00 0 0 0 0 0 0 
0 0 0 0 0 0 0 6.262761e+00 -2.035198e+02 -3.547816e+02 -1.605194e+02 -1.552025e+01 0 0 0 0 0 0 0 0 0 -1.552025e+01 -1.605194e+02 -3.547816e+02 -2.035198e+02 6.262761e+00 0 0 0 0 0 0 
0 0 0 0 0 0 0 -2.422354e+00 -1.611755e+02 -4.431505e+02 -3.673721e+02 -8.544450e+01 -2.469811e+00 0 0 0 0 0 0 0 -2.469811e+00 -8.544450e+01 -3.673721e+02 -4.431505e+02 -1.611755e+02 -2.422354e+00 0 0 0 0 0 0 
0 0 0 0 0 0 0 -1.569679e-01 -2.126844e+01 -3.100081e+02 -5.909339e+02 -3.763237e+02 -7.948118e+01 -5.194718e+00 0 0 0 0 0 -5.194718e+00 -7.948118e+01 -3.763237e+02 -5.909339e+02 -3.100081e+02 -2.126844e+01 -1.569679e-01 0 0 0 0 0 0 
0 0 0 0 0 0 0 0 -9.233337e+00 -9.909758e+01 -4.534707e+02 -6.627849e+02 -4.853856e+02 -2.526131e+02 -7.655210e+01 -1.897812e+01 -1.766394e+01 -1.897812e+01 -7.655210e+01 -2.526131e+02 -4.853856e+02 -6.627849e+02 -4.534707e+02 -9.909758e+01 -9.233337e+00 0 0 0 0 0 0 0 
0 0 0 0 0 0 0 0 0 -1.571803e+01 -1.452361e+02 -4.535168e+02 -7.341982e+02 -7.415446e+02 -6.031089e+02 -5.278894e+02 -5.122511e+02 -5.278894e+02 -6.031089e+02 -7.415446e+02 -7.341982e+02 -4.535168e+02 -1.452361e+02 -1.571803e+01 0 0 0 0 0 0 0 0 
0 0 0 0 0 0 0 0 0 0 -7.322523e-01 -9.733874e+01 -3.525102e+02 -5.682798e+02 -7.141399e+02 -7.905699e+02 -7.776121e+02 -7.905699e+02 -7.141399e+02 -5.682798e+02 -3.525102e+02 -9.733874e+01 -7.322523e-01 0 0 0 0 0 0 0 0 0 
0 0 0 0 0 0 0 0 0 0 0 3.044017e-02 -2.668619e+01 -7.415353e+01 -1.875831e+02 -2.816587e+02 -2.830250e+02 -2.816587e+02 -1.875831e+02 -7.415353e+01 -2.668619e+01 3.044017e-02 0 0 0 0 0 0 0 0 0 0 
0 0 0 0 0 0 0 0 0 0 0 0 0 0 0 0 0 0 0 0 0 0 0 0 0 0 0 0 0 0 0 0 
0 0 0 0 0 0 0 0 0 0 0 0 0 0 0 0 0 0 0 0 0 0 0 0 0 0 0 0 0 0 0 0 
0 0 0 0 0 0 0 0 0 0 0 0 0 0 0 0 0 0 0 0 0 0 0 0 0 0 0 0 0 0 0 0 
0 0 0 0 0 0 0 0 0 0 0 0 0 0 0 0 0 0 0 0 0 0 0 0 0 0 0 0 0 0 0 0 
0 0 0 0 0 0 0 0 0 0 0 0 0 0 0 0 0 0 0 0 0 0 0 0 0 0 0 0 0 0 0 0 
0 0 0 0 0 0 0 0 0 0 0 0 0 0 0 0 0 0 0 0 0 0 0 0 0 0 0 0 0 0 0 0 
0 0 0 0 0 0 0 0 0 0 0 0 0 0 0 0 0 0 0 0 0 0 0 0 0 0 0 0 0 0 0 0 
