# vtk DataFile Version 2.0
Comment goes here
ASCII

DATASET STRUCTURED_POINTS
FIELD FieldData 1
TIME 1 1 double
0.68000000
DIMENSIONS    32   32   1

ORIGIN    0.000   0.000   0.000
SPACING   0.03125 0.03125   1.000

POINT_DATA   1024
SCALARS fY double
LOOKUP_TABLE default

0 0 0 0 0 0 0 0 0 0 0 0 0 0 0 0 0 0 0 0 0 0 0 0 0 0 0 0 0 0 0 0 
0 0 0 0 0 0 0 0 0 0 0 0 0 0 0 0 0 0 0 0 0 0 0 0 0 0 0 0 0 0 0 0 
0 0 0 0 0 0 0 0 0 0 0 0 0 0 0 0 0 0 0 0 0 0 0 0 0 0 0 0 0 0 0 0 
0 0 0 0 0 0 0 0 0 0 0 0 0 0 0 0 0 0 0 0 0 0 0 0 0 0 0 0 0 0 0 0 
0 0 0 0 0 0 0 0 0 0 0 0 0 0 0 0 0 0 0 0 0 0 0 0 0 0 0 0 0 0 0 0 
0 0 0 0 0 0 0 0 0 0 0 0 0 0 0 0 0 0 0 0 0 0 0 0 0 0 0 0 0 0 0 0 
0 0 0 0 0 0 0 0 0 0 0 0 1.730226e+00 1.863660e+01 5.882930e+01 1.101841e+02 1.365224e+02 1.101841e+02 5.882930e+01 1.863660e+01 1.730226e+00 0 0 0 0 0 0 0 0 0 0 0 
0 0 0 0 0 0 0 0 0 0 5.002288e-01 5.283966e+01 1.990223e+02 5.040243e+02 7.352917e+02 7.921964e+02 8.284923e+02 7.921964e+02 7.352917e+02 5.040243e+02 1.990223e+02 5.283966e+01 5.002288e-01 0 0 0 0 0 0 0 0 0 
0 0 0 0 0 0 0 0 0 4.905032e+00 8.907859e+01 4.660486e+02 8.450714e+02 9.996238e+02 9.857969e+02 8.711790e+02 8.436189e+02 8.711790e+02 9.857969e+02 9.996238e+02 8.450714e+02 4.660486e+02 8.907859e+01 4.905032e+00 0 0 0 0 0 0 0 0 
0 0 0 0 0 0 0 0 6.101470e+00 1.038349e+02 4.249682e+02 8.227332e+02 8.599000e+02 5.610856e+02 3.100263e+02 1.891667e+02 1.516489e+02 1.891667e+02 3.100263e+02 5.610856e+02 8.599000e+02 8.227332e+02 4.249682e+02 1.038349e+02 6.101470e+00 0 0 0 0 0 0 0 
0 0 0 0 0 0 0 1.102144e-02 6.827021e+01 4.438576e+02 7.398547e+02 5.381101e+02 2.200115e+02 4.684954e+01 6.918355e-01 0 0 0 6.918355e-01 4.684954e+01 2.200115e+02 5.381101e+02 7.398547e+02 4.438576e+02 6.827021e+01 1.102144e-02 0 0 0 0 0 0 
0 0 0 0 0 0 0 1.073484e+01 2.353583e+02 6.683512e+02 5.780720e+02 1.422350e+02 7.890822e+00 0 0 0 0 0 0 0 7.890822e+00 1.422350e+02 5.780720e+02 6.683512e+02 2.353583e+02 1.073484e+01 0 0 0 0 0 0 
0 0 0 0 0 0 0 3.918897e+01 3.300059e+02 4.898853e+02 2.127622e+02 1.369384e+01 0 0 0 0 0 0 0 0 0 1.369384e+01 2.127622e+02 4.898853e+02 3.300059e+02 3.918897e+01 0 0 0 0 0 0 
0 0 0 0 0 0 -5.019690e-02 9.464258e+01 3.202837e+02 2.656590e+02 4.011260e+01 4.453730e-02 0 0 0 0 0 0 0 0 0 4.453730e-02 4.011260e+01 2.656590e+02 3.202837e+02 9.464258e+01 -5.019690e-02 0 0 0 0 0 
0 0 0 0 0 0 6.312598e-01 8.944803e+01 2.088390e+02 1.222159e+02 2.193586e+00 0 0 0 0 0 0 0 0 0 0 0 2.193586e+00 1.222159e+02 2.088390e+02 8.944803e+01 6.312598e-01 0 0 0 0 0 
0 0 0 0 0 0 2.080473e+00 5.138907e+01 8.521390e+01 3.614138e+01 2.360796e-01 0 0 0 0 0 0 0 0 0 0 0 2.360796e-01 3.614138e+01 8.521390e+01 5.138907e+01 2.080473e+00 0 0 0 0 0 
0 0 0 0 0 0 -1.866143e-12 -2.117395e-11 -2.570344e-11 -6.389654e-12 0 0 0 0 0 0 0 0 0 0 0 0 0 -2.516876e-12 -1.287604e-11 -1.170672e-11 -1.344144e-12 0 0 0 0 0 
0 0 0 0 0 0 -2.080473e+00 -5.138907e+01 -8.521390e+01 -3.614138e+01 -2.360796e-01 0 0 0 0 0 0 0 0 0 0 0 -2.360796e-01 -3.614138e+01 -8.521390e+01 -5.138907e+01 -2.080473e+00 0 0 0 0 0 
0 0 0 0 0 0 -6.312598e-01 -8.944803e+01 -2.088390e+02 -1.222159e+02 -2.193586e+00 0 0 0 0 0 0 0 0 0 0 0 -2.193586e+00 -1.222159e+02 -2.088390e+02 -8.944803e+01 -6.312598e-01 0 0 0 0 0 
0 0 0 0 0 0 5.019690e-02 -9.464258e+01 -3.202837e+02 -2.656590e+02 -4.011260e+01 -4.453730e-02 0 0 0 0 0 0 0 0 0 -4.453730e-02 -4.011260e+01 -2.656590e+02 -3.202837e+02 -9.464258e+01 5.019690e-02 0 0 0 0 0 
0 0 0 0 0 0 0 -3.918897e+01 -3.300059e+02 -4.898853e+02 -2.127622e+02 -1.369384e+01 0 0 0 0 0 0 0 0 0 -1.369384e+01 -2.127622e+02 -4.898853e+02 -3.300059e+02 -3.918897e+01 0 0 0 0 0 0 
0 0 0 0 0 0 0 -1.073484e+01 -2.353583e+02 -6.683512e+02 -5.780720e+02 -1.422350e+02 -7.890822e+00 0 0 0 0 0 0 0 -7.890822e+00 -1.422350e+02 -5.780720e+02 -6.683512e+02 -2.353583e+02 -1.073484e+01 0 0 0 0 0 0 
0 0 0 0 0 0 0 -1.102144e-02 -6.827021e+01 -4.438576e+02 -7.398547e+02 -5.381101e+02 -2.200115e+02 -4.684954e+01 -6.918355e-01 0 0 0 -6.918355e-01 -4.684954e+01 -2.200115e+02 -5.381101e+02 -7.398547e+02 -4.438576e+02 -6.827021e+01 -1.102144e-02 0 0 0 0 0 0 
0 0 0 0 0 0 0 0 -6.101470e+00 -1.038349e+02 -4.249682e+02 -8.227332e+02 -8.599000e+02 -5.610856e+02 -3.100263e+02 -1.891667e+02 -1.516489e+02 -1.891667e+02 -3.100263e+02 -5.610856e+02 -8.599000e+02 -8.227332e+02 -4.249682e+02 -1.038349e+02 -6.101470e+00 0 0 0 0 0 0 0 
0 0 0 0 0 0 0 0 0 -4.905032e+00 -8.907859e+01 -4.660486e+02 -8.450714e+02 -9.996238e+02 -9.857969e+02 -8.711790e+02 -8.436189e+02 -8.711790e+02 -9.857969e+02 -9.996238e+02 -8.450714e+02 -4.660486e+02 -8.907859e+01 -4.905032e+00 0 0 0 0 0 0 0 0 
0 0 0 0 0 0 0 0 0 0 -5.002288e-01 -5.283966e+01 -1.990223e+02 -5.040243e+02 -7.352917e+02 -7.921964e+02 -8.284923e+02 -7.921964e+02 -7.352917e+02 -5.040243e+02 -1.990223e+02 -5.283966e+01 -5.002288e-01 0 0 0 0 0 0 0 0 0 
0 0 0 0 0 0 0 0 0 0 0 0 -1.730226e+00 -1.863660e+01 -5.882930e+01 -1.101841e+02 -1.365224e+02 -1.101841e+02 -5.882930e+01 -1.863660e+01 -1.730226e+00 0 0 0 0 0 0 0 0 0 0 0 
0 0 0 0 0 0 0 0 0 0 0 0 0 0 0 0 0 0 0 0 0 0 0 0 0 0 0 0 0 0 0 0 
0 0 0 0 0 0 0 0 0 0 0 0 0 0 0 0 0 0 0 0 0 0 0 0 0 0 0 0 0 0 0 0 
0 0 0 0 0 0 0 0 0 0 0 0 0 0 0 0 0 0 0 0 0 0 0 0 0 0 0 0 0 0 0 0 
0 0 0 0 0 0 0 0 0 0 0 0 0 0 0 0 0 0 0 0 0 0 0 0 0 0 0 0 0 0 0 0 
0 0 0 0 0 0 0 0 0 0 0 0 0 0 0 0 0 0 0 0 0 0 0 0 0 0 0 0 0 0 0 0 
