# vtk DataFile Version 2.0
Comment goes here
ASCII

DATASET STRUCTURED_POINTS
FIELD FieldData 1
TIME 1 1 double
0.24000000
DIMENSIONS    32   32   1

ORIGIN    0.000   0.000   0.000
SPACING   0.03125 0.03125   1.000

POINT_DATA   1024
SCALARS fY double
LOOKUP_TABLE default

0 0 0 0 0 0 0 0 0 0 0 0 0 0 0 0 0 0 0 0 0 0 0 0 0 0 0 0 0 0 0 0 
0 0 0 0 0 0 0 0 0 0 0 0 0 0 0 0 0 0 0 0 0 0 0 0 0 0 0 0 0 0 0 0 
0 0 0 0 0 0 0 0 0 0 0 0 0 0 0 0 0 0 0 0 0 0 0 0 0 0 0 0 0 0 0 0 
0 0 0 0 0 0 0 0 0 0 0 0 0 0 0 0 0 0 0 0 0 0 0 0 0 0 0 0 0 0 0 0 
0 0 0 0 0 0 0 0 0 0 0 0 0 0 0 0 0 0 0 0 0 0 0 0 0 0 0 0 0 0 0 0 
0 0 0 0 0 0 0 0 0 0 0 0 0 0 0 0 0 0 0 0 0 0 0 0 0 0 0 0 0 0 0 0 
0 0 0 0 0 0 0 0 0 0 0 0 0 0 0 0 0 0 0 0 0 0 0 0 0 0 0 0 0 0 0 0 
0 0 0 0 0 0 0 0 0 0 0 0 0 0 0 0 0 0 0 0 0 0 0 0 0 0 0 0 0 0 0 0 
0 0 0 0 0 0 0 0 0 3.960947e+00 2.435574e+01 7.279510e+01 1.369707e+02 1.820483e+02 2.242418e+02 2.411323e+02 2.287368e+02 2.411323e+02 2.242418e+02 1.820483e+02 1.369707e+02 7.279510e+01 2.435574e+01 3.960947e+00 0 0 0 0 0 0 0 0 
0 0 0 0 0 0 6.236632e-03 6.186467e+00 7.733112e+01 2.752529e+02 5.060425e+02 5.763538e+02 5.784241e+02 5.594813e+02 5.413068e+02 5.235004e+02 4.753281e+02 5.235004e+02 5.413068e+02 5.594813e+02 5.784241e+02 5.763538e+02 5.060425e+02 2.752529e+02 7.733112e+01 6.186467e+00 6.236632e-03 0 0 0 0 0 
0 0 0 0 0 0 2.943482e+01 2.206946e+02 5.822020e+02 8.562237e+02 8.910776e+02 6.940333e+02 5.086882e+02 4.033186e+02 3.231429e+02 2.836790e+02 2.468076e+02 2.836790e+02 3.231429e+02 4.033186e+02 5.086882e+02 6.940333e+02 8.910776e+02 8.562237e+02 5.822020e+02 2.206946e+02 2.943482e+01 0 0 0 0 0 
0 0 0 0 2.832807e-01 4.131200e+01 3.160930e+02 7.466584e+02 8.972769e+02 7.068705e+02 4.259327e+02 1.909693e+02 6.723477e+01 2.588561e+01 6.077886e+00 1.310926e+00 2.163517e-01 1.310926e+00 6.077886e+00 2.588561e+01 6.723477e+01 1.909693e+02 4.259327e+02 7.068705e+02 8.972769e+02 7.466584e+02 3.160930e+02 4.131200e+01 2.832807e-01 0 0 0 
0 0 0 0 1.553410e+01 2.718477e+02 7.793988e+02 8.664291e+02 4.494430e+02 1.221463e+02 1.654192e+01 4.946724e-01 0 0 0 0 0 0 0 0 0 4.946724e-01 1.654192e+01 1.221463e+02 4.494430e+02 8.664291e+02 7.793988e+02 2.718477e+02 1.553410e+01 0 0 0 
0 0 0 4.273782e-04 9.724388e+01 5.599049e+02 7.965819e+02 3.911819e+02 5.746908e+01 2.076453e-01 0 0 0 0 0 0 0 0 0 0 0 0 0 2.076453e-01 5.746908e+01 3.911819e+02 7.965819e+02 5.599049e+02 9.724388e+01 4.273782e-04 0 0 
0 0 0 5.478709e-01 1.813573e+02 5.434593e+02 4.229086e+02 6.069077e+01 4.321041e-01 0 0 0 0 0 0 0 0 0 0 0 0 0 0 0 4.321041e-01 6.069077e+01 4.229086e+02 5.434593e+02 1.813573e+02 5.478709e-01 0 0 
0 0 0 1.448232e+00 1.247593e+02 2.543967e+02 1.348734e+02 3.787728e+00 0 0 0 0 0 0 0 0 0 0 0 0 0 0 0 0 0 3.787728e+00 1.348734e+02 2.543967e+02 1.247593e+02 1.448232e+00 0 0 
0 0 0 2.681696e-12 2.043845e-12 -7.039110e-12 -6.398437e-12 0 0 0 0 0 0 0 0 0 0 0 0 0 0 0 0 0 0 0 5.722294e-12 1.482844e-11 8.563412e-12 -5.445092e-13 0 0 
0 0 0 -1.448232e+00 -1.247593e+02 -2.543967e+02 -1.348734e+02 -3.787728e+00 0 0 0 0 0 0 0 0 0 0 0 0 0 0 0 0 0 -3.787728e+00 -1.348734e+02 -2.543967e+02 -1.247593e+02 -1.448232e+00 0 0 
0 0 0 -5.478709e-01 -1.813573e+02 -5.434593e+02 -4.229086e+02 -6.069077e+01 -4.321041e-01 0 0 0 0 0 0 0 0 0 0 0 0 0 0 0 -4.321041e-01 -6.069077e+01 -4.229086e+02 -5.434593e+02 -1.813573e+02 -5.478709e-01 0 0 
0 0 0 -4.273782e-04 -9.724388e+01 -5.599049e+02 -7.965819e+02 -3.911819e+02 -5.746908e+01 -2.076453e-01 0 0 0 0 0 0 0 0 0 0 0 0 0 -2.076453e-01 -5.746908e+01 -3.911819e+02 -7.965819e+02 -5.599049e+02 -9.724388e+01 -4.273782e-04 0 0 
0 0 0 0 -1.553410e+01 -2.718477e+02 -7.793988e+02 -8.664291e+02 -4.494430e+02 -1.221463e+02 -1.654192e+01 -4.946724e-01 0 0 0 0 0 0 0 0 0 -4.946724e-01 -1.654192e+01 -1.221463e+02 -4.494430e+02 -8.664291e+02 -7.793988e+02 -2.718477e+02 -1.553410e+01 0 0 0 
0 0 0 0 -2.832807e-01 -4.131200e+01 -3.160930e+02 -7.466584e+02 -8.972769e+02 -7.068705e+02 -4.259327e+02 -1.909693e+02 -6.723477e+01 -2.588561e+01 -6.077886e+00 -1.310926e+00 -2.163517e-01 -1.310926e+00 -6.077886e+00 -2.588561e+01 -6.723477e+01 -1.909693e+02 -4.259327e+02 -7.068705e+02 -8.972769e+02 -7.466584e+02 -3.160930e+02 -4.131200e+01 -2.832807e-01 0 0 0 
0 0 0 0 0 0 -2.943482e+01 -2.206946e+02 -5.822020e+02 -8.562237e+02 -8.910776e+02 -6.940333e+02 -5.086882e+02 -4.033186e+02 -3.231429e+02 -2.836790e+02 -2.468076e+02 -2.836790e+02 -3.231429e+02 -4.033186e+02 -5.086882e+02 -6.940333e+02 -8.910776e+02 -8.562237e+02 -5.822020e+02 -2.206946e+02 -2.943482e+01 0 0 0 0 0 
0 0 0 0 0 0 -6.236632e-03 -6.186467e+00 -7.733112e+01 -2.752529e+02 -5.060425e+02 -5.763538e+02 -5.784241e+02 -5.594813e+02 -5.413068e+02 -5.235004e+02 -4.753281e+02 -5.235004e+02 -5.413068e+02 -5.594813e+02 -5.784241e+02 -5.763538e+02 -5.060425e+02 -2.752529e+02 -7.733112e+01 -6.186467e+00 -6.236632e-03 0 0 0 0 0 
0 0 0 0 0 0 0 0 0 -3.960947e+00 -2.435574e+01 -7.279510e+01 -1.369707e+02 -1.820483e+02 -2.242418e+02 -2.411323e+02 -2.287368e+02 -2.411323e+02 -2.242418e+02 -1.820483e+02 -1.369707e+02 -7.279510e+01 -2.435574e+01 -3.960947e+00 0 0 0 0 0 0 0 0 
0 0 0 0 0 0 0 0 0 0 0 0 0 0 0 0 0 0 0 0 0 0 0 0 0 0 0 0 0 0 0 0 
0 0 0 0 0 0 0 0 0 0 0 0 0 0 0 0 0 0 0 0 0 0 0 0 0 0 0 0 0 0 0 0 
0 0 0 0 0 0 0 0 0 0 0 0 0 0 0 0 0 0 0 0 0 0 0 0 0 0 0 0 0 0 0 0 
0 0 0 0 0 0 0 0 0 0 0 0 0 0 0 0 0 0 0 0 0 0 0 0 0 0 0 0 0 0 0 0 
0 0 0 0 0 0 0 0 0 0 0 0 0 0 0 0 0 0 0 0 0 0 0 0 0 0 0 0 0 0 0 0 
0 0 0 0 0 0 0 0 0 0 0 0 0 0 0 0 0 0 0 0 0 0 0 0 0 0 0 0 0 0 0 0 
0 0 0 0 0 0 0 0 0 0 0 0 0 0 0 0 0 0 0 0 0 0 0 0 0 0 0 0 0 0 0 0 
