# vtk DataFile Version 2.0
Comment goes here
ASCII

DATASET STRUCTURED_POINTS
FIELD FieldData 1
TIME 1 1 double
1.12000000
DIMENSIONS    32   32   1

ORIGIN    0.000   0.000   0.000
SPACING   0.03125 0.03125   1.000

POINT_DATA   1024
SCALARS fY double
LOOKUP_TABLE default

0 0 0 0 0 0 0 0 0 0 0 0 0 0 0 0 0 0 0 0 0 0 0 0 0 0 0 0 0 0 0 0 
0 0 0 0 0 0 0 0 0 0 0 0 0 0 0 0 0 0 0 0 0 0 0 0 0 0 0 0 0 0 0 0 
0 0 0 0 0 0 0 0 0 0 0 0 0 0 0 0 0 0 0 0 0 0 0 0 0 0 0 0 0 0 0 0 
0 0 0 0 0 0 0 0 0 0 0 0 0 0 0 0 0 0 0 0 0 0 0 0 0 0 0 0 0 0 0 0 
0 0 0 0 0 0 0 0 0 0 0 0 0 0 0 0 0 0 0 0 0 0 0 0 0 0 0 0 0 0 0 0 
0 0 0 0 0 0 0 0 0 0 0 0 0 0 0 0 0 0 0 0 0 0 0 0 0 0 0 0 0 0 0 0 
0 0 0 0 0 0 0 0 0 0 0 0 0 0 0 0 0 0 0 0 0 0 0 0 0 0 0 0 0 0 0 0 
0 0 0 0 0 0 0 0 0 0 0 2.200112e-02 2.459568e+01 8.135303e+01 2.615300e+02 4.173421e+02 4.251828e+02 4.173421e+02 2.615300e+02 8.135303e+01 2.459568e+01 2.200112e-02 0 0 0 0 0 0 0 0 0 0 
0 0 0 0 0 0 0 0 0 0 8.424489e-01 7.325950e+01 3.769919e+02 6.843422e+02 8.987101e+02 9.996953e+02 9.615050e+02 9.996953e+02 8.987101e+02 6.843422e+02 3.769919e+02 7.325950e+01 8.424489e-01 0 0 0 0 0 0 0 0 0 
0 0 0 0 0 0 0 0 0 1.182140e+00 4.514532e+01 3.614443e+02 8.457762e+02 9.480971e+02 7.417539e+02 5.926691e+02 5.414345e+02 5.926691e+02 7.417539e+02 9.480971e+02 8.457762e+02 3.614443e+02 4.514532e+01 1.182140e+00 0 0 0 0 0 0 0 0 
0 0 0 0 0 0 0 0 1.139010e-03 3.800795e+01 3.108512e+02 6.384971e+02 6.336716e+02 3.648329e+02 1.045737e+02 1.031582e+01 5.112221e+00 1.031582e+01 1.045737e+02 3.648329e+02 6.336716e+02 6.384971e+02 3.108512e+02 3.800795e+01 1.139010e-03 0 0 0 0 0 0 0 
0 0 0 0 0 0 0 0 1.115229e+01 1.732883e+02 5.447826e+02 5.267427e+02 1.638211e+02 1.972498e+01 0 0 0 0 0 1.972498e+01 1.638211e+02 5.267427e+02 5.447826e+02 1.732883e+02 1.115229e+01 0 0 0 0 0 0 0 
0 0 0 0 0 0 0 0 5.545143e+00 2.485031e+02 4.555722e+02 2.361436e+02 2.352942e+01 0 0 0 0 0 0 0 2.352942e+01 2.361436e+02 4.555722e+02 2.485031e+02 5.545143e+00 0 0 0 0 0 0 0 
0 0 0 0 0 0 0 -4.219962e-02 7.454534e+01 2.817302e+02 2.629498e+02 5.580715e+01 0 0 0 0 0 0 0 0 0 5.580715e+01 2.629498e+02 2.817302e+02 7.454534e+01 -4.219962e-02 0 0 0 0 0 0 
0 0 0 0 0 0 0 2.294144e-01 8.459961e+01 2.152527e+02 1.292509e+02 -1.631601e+00 0 0 0 0 0 0 0 0 0 -1.631601e+00 1.292509e+02 2.152527e+02 8.459961e+01 2.294144e-01 0 0 0 0 0 0 
0 0 0 0 0 0 0 1.167347e+00 3.429197e+01 8.998951e+01 5.911740e+01 2.252520e+00 0 0 0 0 0 0 0 0 0 2.252520e+00 5.911740e+01 8.998951e+01 3.429197e+01 1.167347e+00 0 0 0 0 0 0 
0 0 0 0 0 0 0 2.051408e-12 1.938194e-11 1.446906e-11 -2.861601e-12 0 0 0 0 0 0 0 0 0 0 0 -1.144684e-11 -1.999823e-11 -8.938589e-12 -3.807497e-13 0 0 0 0 0 0 
0 0 0 0 0 0 0 -1.167347e+00 -3.429197e+01 -8.998951e+01 -5.911740e+01 -2.252520e+00 0 0 0 0 0 0 0 0 0 -2.252520e+00 -5.911740e+01 -8.998951e+01 -3.429197e+01 -1.167347e+00 0 0 0 0 0 0 
0 0 0 0 0 0 0 -2.294144e-01 -8.459961e+01 -2.152527e+02 -1.292509e+02 1.631601e+00 0 0 0 0 0 0 0 0 0 1.631601e+00 -1.292509e+02 -2.152527e+02 -8.459961e+01 -2.294144e-01 0 0 0 0 0 0 
0 0 0 0 0 0 0 4.219962e-02 -7.454534e+01 -2.817302e+02 -2.629498e+02 -5.580715e+01 0 0 0 0 0 0 0 0 0 -5.580715e+01 -2.629498e+02 -2.817302e+02 -7.454534e+01 4.219962e-02 0 0 0 0 0 0 
0 0 0 0 0 0 0 0 -5.545143e+00 -2.485031e+02 -4.555722e+02 -2.361436e+02 -2.352942e+01 0 0 0 0 0 0 0 -2.352942e+01 -2.361436e+02 -4.555722e+02 -2.485031e+02 -5.545143e+00 0 0 0 0 0 0 0 
0 0 0 0 0 0 0 0 -1.115229e+01 -1.732883e+02 -5.447826e+02 -5.267427e+02 -1.638211e+02 -1.972498e+01 0 0 0 0 0 -1.972498e+01 -1.638211e+02 -5.267427e+02 -5.447826e+02 -1.732883e+02 -1.115229e+01 0 0 0 0 0 0 0 
0 0 0 0 0 0 0 0 -1.139010e-03 -3.800795e+01 -3.108512e+02 -6.384971e+02 -6.336716e+02 -3.648329e+02 -1.045737e+02 -1.031582e+01 -5.112221e+00 -1.031582e+01 -1.045737e+02 -3.648329e+02 -6.336716e+02 -6.384971e+02 -3.108512e+02 -3.800795e+01 -1.139010e-03 0 0 0 0 0 0 0 
0 0 0 0 0 0 0 0 0 -1.182140e+00 -4.514532e+01 -3.614443e+02 -8.457762e+02 -9.480971e+02 -7.417539e+02 -5.926691e+02 -5.414345e+02 -5.926691e+02 -7.417539e+02 -9.480971e+02 -8.457762e+02 -3.614443e+02 -4.514532e+01 -1.182140e+00 0 0 0 0 0 0 0 0 
0 0 0 0 0 0 0 0 0 0 -8.424489e-01 -7.325950e+01 -3.769919e+02 -6.843422e+02 -8.987101e+02 -9.996953e+02 -9.615050e+02 -9.996953e+02 -8.987101e+02 -6.843422e+02 -3.769919e+02 -7.325950e+01 -8.424489e-01 0 0 0 0 0 0 0 0 0 
0 0 0 0 0 0 0 0 0 0 0 -2.200112e-02 -2.459568e+01 -8.135303e+01 -2.615300e+02 -4.173421e+02 -4.251828e+02 -4.173421e+02 -2.615300e+02 -8.135303e+01 -2.459568e+01 -2.200112e-02 0 0 0 0 0 0 0 0 0 0 
0 0 0 0 0 0 0 0 0 0 0 0 0 0 0 0 0 0 0 0 0 0 0 0 0 0 0 0 0 0 0 0 
0 0 0 0 0 0 0 0 0 0 0 0 0 0 0 0 0 0 0 0 0 0 0 0 0 0 0 0 0 0 0 0 
0 0 0 0 0 0 0 0 0 0 0 0 0 0 0 0 0 0 0 0 0 0 0 0 0 0 0 0 0 0 0 0 
0 0 0 0 0 0 0 0 0 0 0 0 0 0 0 0 0 0 0 0 0 0 0 0 0 0 0 0 0 0 0 0 
0 0 0 0 0 0 0 0 0 0 0 0 0 0 0 0 0 0 0 0 0 0 0 0 0 0 0 0 0 0 0 0 
0 0 0 0 0 0 0 0 0 0 0 0 0 0 0 0 0 0 0 0 0 0 0 0 0 0 0 0 0 0 0 0 
