# vtk DataFile Version 2.0
Comment goes here
ASCII

DATASET STRUCTURED_POINTS
FIELD FieldData 1
TIME 1 1 double
0.38000000
DIMENSIONS    32   32   1

ORIGIN    0.000   0.000   0.000
SPACING   0.03125 0.03125   1.000

POINT_DATA   1024
SCALARS fY double
LOOKUP_TABLE default

0 0 0 0 0 0 0 0 0 0 0 0 0 0 0 0 0 0 0 0 0 0 0 0 0 0 0 0 0 0 0 0 
0 0 0 0 0 0 0 0 0 0 0 0 0 0 0 0 0 0 0 0 0 0 0 0 0 0 0 0 0 0 0 0 
0 0 0 0 0 0 0 0 0 0 0 0 0 0 0 0 0 0 0 0 0 0 0 0 0 0 0 0 0 0 0 0 
0 0 0 0 0 0 0 0 0 0 0 0 0 0 0 0 0 0 0 0 0 0 0 0 0 0 0 0 0 0 0 0 
0 0 0 0 0 0 0 0 0 0 0 0 0 0 0 0 0 0 0 0 0 0 0 0 0 0 0 0 0 0 0 0 
0 0 0 0 0 0 0 0 0 0 0 0 0 0 0 0 0 0 0 0 0 0 0 0 0 0 0 0 0 0 0 0 
0 0 0 0 0 0 0 0 0 0 0 0 0 0 0 0 0 0 0 0 0 0 0 0 0 0 0 0 0 0 0 0 
0 0 0 0 0 0 0 0 0 0 7.121859e-01 1.622981e+01 7.718424e+01 1.629369e+02 2.338160e+02 2.711870e+02 2.772824e+02 2.711870e+02 2.338160e+02 1.629369e+02 7.718424e+01 1.622981e+01 7.121859e-01 0 0 0 0 0 0 0 0 0 
0 0 0 0 0 0 0 0 3.447307e-02 2.446668e+01 1.693144e+02 4.009437e+02 6.191541e+02 7.224735e+02 7.156407e+02 6.820605e+02 6.516016e+02 6.820605e+02 7.156407e+02 7.224735e+02 6.191541e+02 4.009437e+02 1.693144e+02 2.446668e+01 3.447307e-02 0 0 0 0 0 0 0 
0 0 0 0 0 0 0 3.731984e+00 8.677366e+01 3.675880e+02 7.523491e+02 8.788143e+02 7.842666e+02 6.571968e+02 5.152264e+02 4.205280e+02 3.784866e+02 4.205280e+02 5.152264e+02 6.571968e+02 7.842666e+02 8.788143e+02 7.523491e+02 3.675880e+02 8.677366e+01 3.731984e+00 0 0 0 0 0 0 
0 0 0 0 0 0 1.014741e+00 7.197262e+01 4.757461e+02 8.965578e+02 8.663778e+02 5.470002e+02 2.442212e+02 9.766021e+01 3.340173e+01 9.654425e+00 4.167465e+00 9.654425e+00 3.340173e+01 9.766021e+01 2.442212e+02 5.470002e+02 8.663778e+02 8.965578e+02 4.757461e+02 7.197262e+01 1.014741e+00 0 0 0 0 0 
0 0 0 0 0 0 4.116747e+01 3.749167e+02 8.509139e+02 7.697632e+02 3.035739e+02 5.289978e+01 1.924507e+00 0 0 0 0 0 0 0 1.924507e+00 5.289978e+01 3.035739e+02 7.697632e+02 8.509139e+02 3.749167e+02 4.116747e+01 0 0 0 0 0 
0 0 0 0 0 1.697465e+00 1.762534e+02 6.978657e+02 7.509621e+02 2.486387e+02 2.098638e+01 0 0 0 0 0 0 0 0 0 0 0 2.098638e+01 2.486387e+02 7.509621e+02 6.978657e+02 1.762534e+02 1.697465e+00 0 0 0 0 
0 0 0 0 0 1.294419e+01 3.044365e+02 6.437986e+02 3.856182e+02 3.335517e+01 4.329623e-02 0 0 0 0 0 0 0 0 0 0 0 4.329623e-02 3.335517e+01 3.856182e+02 6.437986e+02 3.044365e+02 1.294419e+01 0 0 0 0 
0 0 0 0 0 3.166596e+01 2.914274e+02 3.797136e+02 1.209953e+02 1.043167e+00 0 0 0 0 0 0 0 0 0 0 0 0 0 1.043167e+00 1.209953e+02 3.797136e+02 2.914274e+02 3.166596e+01 0 0 0 0 
0 0 0 0 0 3.209846e+01 1.747810e+02 1.727520e+02 3.006946e+01 0 0 0 0 0 0 0 0 0 0 0 0 0 0 0 3.006946e+01 1.727520e+02 1.747810e+02 3.209846e+01 0 0 0 0 
0 0 0 0 0 1.729097e-11 2.631495e-11 2.696510e-12 -6.318612e-12 0 0 0 0 0 0 0 0 0 0 0 0 0 0 0 5.049369e-12 2.029594e-11 1.371017e-11 -1.546497e-12 0 0 0 0 
0 0 0 0 0 -3.209846e+01 -1.747810e+02 -1.727520e+02 -3.006946e+01 0 0 0 0 0 0 0 0 0 0 0 0 0 0 0 -3.006946e+01 -1.727520e+02 -1.747810e+02 -3.209846e+01 0 0 0 0 
0 0 0 0 0 -3.166596e+01 -2.914274e+02 -3.797136e+02 -1.209953e+02 -1.043167e+00 0 0 0 0 0 0 0 0 0 0 0 0 0 -1.043167e+00 -1.209953e+02 -3.797136e+02 -2.914274e+02 -3.166596e+01 0 0 0 0 
0 0 0 0 0 -1.294419e+01 -3.044365e+02 -6.437986e+02 -3.856182e+02 -3.335517e+01 -4.329623e-02 0 0 0 0 0 0 0 0 0 0 0 -4.329623e-02 -3.335517e+01 -3.856182e+02 -6.437986e+02 -3.044365e+02 -1.294419e+01 0 0 0 0 
0 0 0 0 0 -1.697465e+00 -1.762534e+02 -6.978657e+02 -7.509621e+02 -2.486387e+02 -2.098638e+01 0 0 0 0 0 0 0 0 0 0 0 -2.098638e+01 -2.486387e+02 -7.509621e+02 -6.978657e+02 -1.762534e+02 -1.697465e+00 0 0 0 0 
0 0 0 0 0 0 -4.116747e+01 -3.749167e+02 -8.509139e+02 -7.697632e+02 -3.035739e+02 -5.289978e+01 -1.924507e+00 0 0 0 0 0 0 0 -1.924507e+00 -5.289978e+01 -3.035739e+02 -7.697632e+02 -8.509139e+02 -3.749167e+02 -4.116747e+01 0 0 0 0 0 
0 0 0 0 0 0 -1.014741e+00 -7.197262e+01 -4.757461e+02 -8.965578e+02 -8.663778e+02 -5.470002e+02 -2.442212e+02 -9.766021e+01 -3.340173e+01 -9.654425e+00 -4.167465e+00 -9.654425e+00 -3.340173e+01 -9.766021e+01 -2.442212e+02 -5.470002e+02 -8.663778e+02 -8.965578e+02 -4.757461e+02 -7.197262e+01 -1.014741e+00 0 0 0 0 0 
0 0 0 0 0 0 0 -3.731984e+00 -8.677366e+01 -3.675880e+02 -7.523491e+02 -8.788143e+02 -7.842666e+02 -6.571968e+02 -5.152264e+02 -4.205280e+02 -3.784866e+02 -4.205280e+02 -5.152264e+02 -6.571968e+02 -7.842666e+02 -8.788143e+02 -7.523491e+02 -3.675880e+02 -8.677366e+01 -3.731984e+00 0 0 0 0 0 0 
0 0 0 0 0 0 0 0 -3.447307e-02 -2.446668e+01 -1.693144e+02 -4.009437e+02 -6.191541e+02 -7.224735e+02 -7.156407e+02 -6.820605e+02 -6.516016e+02 -6.820605e+02 -7.156407e+02 -7.224735e+02 -6.191541e+02 -4.009437e+02 -1.693144e+02 -2.446668e+01 -3.447307e-02 0 0 0 0 0 0 0 
0 0 0 0 0 0 0 0 0 0 -7.121859e-01 -1.622981e+01 -7.718424e+01 -1.629369e+02 -2.338160e+02 -2.711870e+02 -2.772824e+02 -2.711870e+02 -2.338160e+02 -1.629369e+02 -7.718424e+01 -1.622981e+01 -7.121859e-01 0 0 0 0 0 0 0 0 0 
0 0 0 0 0 0 0 0 0 0 0 0 0 0 0 0 0 0 0 0 0 0 0 0 0 0 0 0 0 0 0 0 
0 0 0 0 0 0 0 0 0 0 0 0 0 0 0 0 0 0 0 0 0 0 0 0 0 0 0 0 0 0 0 0 
0 0 0 0 0 0 0 0 0 0 0 0 0 0 0 0 0 0 0 0 0 0 0 0 0 0 0 0 0 0 0 0 
0 0 0 0 0 0 0 0 0 0 0 0 0 0 0 0 0 0 0 0 0 0 0 0 0 0 0 0 0 0 0 0 
0 0 0 0 0 0 0 0 0 0 0 0 0 0 0 0 0 0 0 0 0 0 0 0 0 0 0 0 0 0 0 0 
0 0 0 0 0 0 0 0 0 0 0 0 0 0 0 0 0 0 0 0 0 0 0 0 0 0 0 0 0 0 0 0 
