# vtk DataFile Version 2.0
Comment goes here
ASCII

DATASET STRUCTURED_POINTS
FIELD FieldData 1
TIME 1 1 double
0.82000000
DIMENSIONS    32   32   1

ORIGIN    0.000   0.000   0.000
SPACING   0.03125 0.03125   1.000

POINT_DATA   1024
SCALARS fY double
LOOKUP_TABLE default

0 0 0 0 0 0 0 0 0 0 0 0 0 0 0 0 0 0 0 0 0 0 0 0 0 0 0 0 0 0 0 0 
0 0 0 0 0 0 0 0 0 0 0 0 0 0 0 0 0 0 0 0 0 0 0 0 0 0 0 0 0 0 0 0 
0 0 0 0 0 0 0 0 0 0 0 0 0 0 0 0 0 0 0 0 0 0 0 0 0 0 0 0 0 0 0 0 
0 0 0 0 0 0 0 0 0 0 0 0 0 0 0 0 0 0 0 0 0 0 0 0 0 0 0 0 0 0 0 0 
0 0 0 0 0 0 0 0 0 0 0 0 0 0 0 0 0 0 0 0 0 0 0 0 0 0 0 0 0 0 0 0 
0 0 0 0 0 0 0 0 0 0 0 0 0 0 0 0 0 0 0 0 0 0 0 0 0 0 0 0 0 0 0 0 
0 0 0 0 0 0 0 0 0 0 0 7.404992e-03 2.913971e+00 3.841924e+01 1.529931e+02 2.716393e+02 3.083176e+02 2.716393e+02 1.529931e+02 3.841924e+01 2.913971e+00 7.404992e-03 0 0 0 0 0 0 0 0 0 0 
0 0 0 0 0 0 0 0 0 0 8.075958e-01 2.796690e+01 2.592842e+02 6.093208e+02 8.949800e+02 1.048678e+03 1.061787e+03 1.048678e+03 8.949800e+02 6.093208e+02 2.592842e+02 2.796690e+01 8.075958e-01 0 0 0 0 0 0 0 0 0 
0 0 0 0 0 0 0 0 0 2.715806e-01 6.833311e+01 3.238128e+02 7.832744e+02 1.037888e+03 9.714588e+02 8.687264e+02 8.152658e+02 8.687264e+02 9.714588e+02 1.037888e+03 7.832744e+02 3.238128e+02 6.833311e+01 2.715806e-01 0 0 0 0 0 0 0 0 
0 0 0 0 0 0 0 0 3.759635e-04 3.616315e+01 3.582009e+02 7.727474e+02 7.796076e+02 4.983435e+02 2.302350e+02 9.168800e+01 6.179623e+01 9.168800e+01 2.302350e+02 4.983435e+02 7.796076e+02 7.727474e+02 3.582009e+02 3.616315e+01 3.759635e-04 0 0 0 0 0 0 0 
0 0 0 0 0 0 0 0 8.458951e+00 1.970695e+02 6.226000e+02 6.833313e+02 2.799365e+02 3.135767e+01 7.630572e-01 0 0 0 7.630572e-01 3.135767e+01 2.799365e+02 6.833313e+02 6.226000e+02 1.970695e+02 8.458951e+00 0 0 0 0 0 0 0 
0 0 0 0 0 0 0 1.573945e-02 5.187633e+01 3.999466e+02 5.849647e+02 2.641106e+02 2.723301e+01 1.106102e-03 0 0 0 0 0 1.106102e-03 2.723301e+01 2.641106e+02 5.849647e+02 3.999466e+02 5.187633e+01 1.573945e-02 0 0 0 0 0 0 
0 0 0 0 0 0 0 6.562281e-01 1.241913e+02 4.163602e+02 3.553523e+02 6.252715e+01 0 0 0 0 0 0 0 0 0 6.252715e+01 3.553523e+02 4.163602e+02 1.241913e+02 6.562281e-01 0 0 0 0 0 0 
0 0 0 0 0 0 0 5.104925e+00 1.511565e+02 2.786523e+02 1.374545e+02 4.853687e+00 0 0 0 0 0 0 0 0 0 4.853687e+00 1.374545e+02 2.786523e+02 1.511565e+02 5.104925e+00 0 0 0 0 0 0 
0 0 0 0 0 0 0 1.181709e+01 1.256394e+02 1.622452e+02 4.842290e+01 0 0 0 0 0 0 0 0 0 0 0 4.842290e+01 1.622452e+02 1.256394e+02 1.181709e+01 0 0 0 0 0 0 
0 0 0 0 0 0 0 9.090334e+00 6.599635e+01 7.220911e+01 1.530310e+01 0 0 0 0 0 0 0 0 0 0 0 1.530310e+01 7.220911e+01 6.599635e+01 9.090334e+00 0 0 0 0 0 0 
0 0 0 0 0 0 0 2.750244e-12 1.765541e-11 1.823593e-11 3.330153e-12 0 0 0 0 0 0 0 0 0 0 0 -5.362377e-14 1.138112e-11 1.661520e-11 5.180807e-12 0 0 0 0 0 0 
0 0 0 0 0 0 0 -9.090334e+00 -6.599635e+01 -7.220911e+01 -1.530310e+01 0 0 0 0 0 0 0 0 0 0 0 -1.530310e+01 -7.220911e+01 -6.599635e+01 -9.090334e+00 0 0 0 0 0 0 
0 0 0 0 0 0 0 -1.181709e+01 -1.256394e+02 -1.622452e+02 -4.842290e+01 0 0 0 0 0 0 0 0 0 0 0 -4.842290e+01 -1.622452e+02 -1.256394e+02 -1.181709e+01 0 0 0 0 0 0 
0 0 0 0 0 0 0 -5.104925e+00 -1.511565e+02 -2.786523e+02 -1.374545e+02 -4.853687e+00 0 0 0 0 0 0 0 0 0 -4.853687e+00 -1.374545e+02 -2.786523e+02 -1.511565e+02 -5.104925e+00 0 0 0 0 0 0 
0 0 0 0 0 0 0 -6.562281e-01 -1.241913e+02 -4.163602e+02 -3.553523e+02 -6.252715e+01 0 0 0 0 0 0 0 0 0 -6.252715e+01 -3.553523e+02 -4.163602e+02 -1.241913e+02 -6.562281e-01 0 0 0 0 0 0 
0 0 0 0 0 0 0 -1.573945e-02 -5.187633e+01 -3.999466e+02 -5.849647e+02 -2.641106e+02 -2.723301e+01 -1.106102e-03 0 0 0 0 0 -1.106102e-03 -2.723301e+01 -2.641106e+02 -5.849647e+02 -3.999466e+02 -5.187633e+01 -1.573945e-02 0 0 0 0 0 0 
0 0 0 0 0 0 0 0 -8.458951e+00 -1.970695e+02 -6.226000e+02 -6.833313e+02 -2.799365e+02 -3.135767e+01 -7.630572e-01 0 0 0 -7.630572e-01 -3.135767e+01 -2.799365e+02 -6.833313e+02 -6.226000e+02 -1.970695e+02 -8.458951e+00 0 0 0 0 0 0 0 
0 0 0 0 0 0 0 0 -3.759635e-04 -3.616315e+01 -3.582009e+02 -7.727474e+02 -7.796076e+02 -4.983435e+02 -2.302350e+02 -9.168800e+01 -6.179623e+01 -9.168800e+01 -2.302350e+02 -4.983435e+02 -7.796076e+02 -7.727474e+02 -3.582009e+02 -3.616315e+01 -3.759635e-04 0 0 0 0 0 0 0 
0 0 0 0 0 0 0 0 0 -2.715806e-01 -6.833311e+01 -3.238128e+02 -7.832744e+02 -1.037888e+03 -9.714588e+02 -8.687264e+02 -8.152658e+02 -8.687264e+02 -9.714588e+02 -1.037888e+03 -7.832744e+02 -3.238128e+02 -6.833311e+01 -2.715806e-01 0 0 0 0 0 0 0 0 
0 0 0 0 0 0 0 0 0 0 -8.075958e-01 -2.796690e+01 -2.592842e+02 -6.093208e+02 -8.949800e+02 -1.048678e+03 -1.061787e+03 -1.048678e+03 -8.949800e+02 -6.093208e+02 -2.592842e+02 -2.796690e+01 -8.075958e-01 0 0 0 0 0 0 0 0 0 
0 0 0 0 0 0 0 0 0 0 0 -7.404992e-03 -2.913971e+00 -3.841924e+01 -1.529931e+02 -2.716393e+02 -3.083176e+02 -2.716393e+02 -1.529931e+02 -3.841924e+01 -2.913971e+00 -7.404992e-03 0 0 0 0 0 0 0 0 0 0 
0 0 0 0 0 0 0 0 0 0 0 0 0 0 0 0 0 0 0 0 0 0 0 0 0 0 0 0 0 0 0 0 
0 0 0 0 0 0 0 0 0 0 0 0 0 0 0 0 0 0 0 0 0 0 0 0 0 0 0 0 0 0 0 0 
0 0 0 0 0 0 0 0 0 0 0 0 0 0 0 0 0 0 0 0 0 0 0 0 0 0 0 0 0 0 0 0 
0 0 0 0 0 0 0 0 0 0 0 0 0 0 0 0 0 0 0 0 0 0 0 0 0 0 0 0 0 0 0 0 
0 0 0 0 0 0 0 0 0 0 0 0 0 0 0 0 0 0 0 0 0 0 0 0 0 0 0 0 0 0 0 0 
