# vtk DataFile Version 2.0
Comment goes here
ASCII

DATASET STRUCTURED_POINTS
FIELD FieldData 1
TIME 1 1 double
0.94000000
DIMENSIONS    32   32   1

ORIGIN    0.000   0.000   0.000
SPACING   0.03125 0.03125   1.000

POINT_DATA   1024
SCALARS fY double
LOOKUP_TABLE default

0 0 0 0 0 0 0 0 0 0 0 0 0 0 0 0 0 0 0 0 0 0 0 0 0 0 0 0 0 0 0 0 
0 0 0 0 0 0 0 0 0 0 0 0 0 0 0 0 0 0 0 0 0 0 0 0 0 0 0 0 0 0 0 0 
0 0 0 0 0 0 0 0 0 0 0 0 0 0 0 0 0 0 0 0 0 0 0 0 0 0 0 0 0 0 0 0 
0 0 0 0 0 0 0 0 0 0 0 0 0 0 0 0 0 0 0 0 0 0 0 0 0 0 0 0 0 0 0 0 
0 0 0 0 0 0 0 0 0 0 0 0 0 0 0 0 0 0 0 0 0 0 0 0 0 0 0 0 0 0 0 0 
0 0 0 0 0 0 0 0 0 0 0 0 0 0 0 0 0 0 0 0 0 0 0 0 0 0 0 0 0 0 0 0 
0 0 0 0 0 0 0 0 0 0 0 0 4.608686e-01 1.910577e+01 1.106521e+02 2.228383e+02 2.616623e+02 2.228383e+02 1.106521e+02 1.910577e+01 4.608686e-01 0 0 0 0 0 0 0 0 0 0 0 
0 0 0 0 0 0 0 0 0 0 1.046798e-01 8.042352e+00 1.731171e+02 5.015639e+02 8.328144e+02 1.031623e+03 1.070387e+03 1.031623e+03 8.328144e+02 5.015639e+02 1.731171e+02 8.042352e+00 1.046798e-01 0 0 0 0 0 0 0 0 0 
0 0 0 0 0 0 0 0 0 0 2.655359e+01 2.403159e+02 6.864036e+02 1.038591e+03 1.053014e+03 9.411062e+02 9.080836e+02 9.411062e+02 1.053014e+03 1.038591e+03 6.864036e+02 2.403159e+02 2.655359e+01 0 0 0 0 0 0 0 0 0 
0 0 0 0 0 0 0 0 0 9.647300e+00 1.805865e+02 6.490275e+02 8.565513e+02 6.287368e+02 3.329167e+02 1.323226e+02 9.935930e+01 1.323226e+02 3.329167e+02 6.287368e+02 8.565513e+02 6.490275e+02 1.805865e+02 9.647300e+00 0 0 0 0 0 0 0 0 
0 0 0 0 0 0 0 0 2.243766e-01 6.844001e+01 3.916543e+02 6.506958e+02 3.989277e+02 7.373390e+01 2.064697e+00 1.314213e-03 0 1.314213e-03 2.064697e+00 7.373390e+01 3.989277e+02 6.506958e+02 3.916543e+02 6.844001e+01 2.243766e-01 0 0 0 0 0 0 0 
0 0 0 0 0 0 0 0 2.764866e+01 2.821802e+02 5.208855e+02 3.234822e+02 5.825847e+01 1.130263e+00 0 0 0 0 0 1.130263e+00 5.825847e+01 3.234822e+02 5.208855e+02 2.821802e+02 2.764866e+01 0 0 0 0 0 0 0 
0 0 0 0 0 0 0 0 2.447282e+01 3.221619e+02 4.266902e+02 1.311358e+02 2.134690e+00 0 0 0 0 0 0 0 2.134690e+00 1.311358e+02 4.266902e+02 3.221619e+02 2.447282e+01 0 0 0 0 0 0 0 
0 0 0 0 0 0 0 -1.677094e-01 6.623114e+01 2.292954e+02 2.009971e+02 3.810048e+01 0 0 0 0 0 0 0 0 0 3.810048e+01 2.009971e+02 2.292954e+02 6.623114e+01 -1.677094e-01 0 0 0 0 0 0 
0 0 0 0 0 0 0 2.121572e-01 8.718035e+01 1.741484e+02 8.389869e+01 -3.281508e+00 0 0 0 0 0 0 0 0 0 -3.281508e+00 8.389869e+01 1.741484e+02 8.718035e+01 2.121572e-01 0 0 0 0 0 0 
0 0 0 0 0 0 0 2.030417e+00 5.411067e+01 9.543069e+01 4.356391e+01 2.134760e-01 0 0 0 0 0 0 0 0 0 2.134760e-01 4.356391e+01 9.543069e+01 5.411067e+01 2.030417e+00 0 0 0 0 0 0 
0 0 0 0 0 0 0 -3.859413e-13 1.461690e-11 2.624821e-11 1.124463e-11 0 0 0 0 0 0 0 0 0 0 0 -5.649259e-12 5.648815e-12 1.461657e-11 3.325522e-12 0 0 0 0 0 0 
0 0 0 0 0 0 0 -2.030417e+00 -5.411067e+01 -9.543069e+01 -4.356391e+01 -2.134760e-01 0 0 0 0 0 0 0 0 0 -2.134760e-01 -4.356391e+01 -9.543069e+01 -5.411067e+01 -2.030417e+00 0 0 0 0 0 0 
0 0 0 0 0 0 0 -2.121572e-01 -8.718035e+01 -1.741484e+02 -8.389869e+01 3.281508e+00 0 0 0 0 0 0 0 0 0 3.281508e+00 -8.389869e+01 -1.741484e+02 -8.718035e+01 -2.121572e-01 0 0 0 0 0 0 
0 0 0 0 0 0 0 1.677094e-01 -6.623114e+01 -2.292954e+02 -2.009971e+02 -3.810048e+01 0 0 0 0 0 0 0 0 0 -3.810048e+01 -2.009971e+02 -2.292954e+02 -6.623114e+01 1.677094e-01 0 0 0 0 0 0 
0 0 0 0 0 0 0 0 -2.447282e+01 -3.221619e+02 -4.266902e+02 -1.311358e+02 -2.134690e+00 0 0 0 0 0 0 0 -2.134690e+00 -1.311358e+02 -4.266902e+02 -3.221619e+02 -2.447282e+01 0 0 0 0 0 0 0 
0 0 0 0 0 0 0 0 -2.764866e+01 -2.821802e+02 -5.208855e+02 -3.234822e+02 -5.825847e+01 -1.130263e+00 0 0 0 0 0 -1.130263e+00 -5.825847e+01 -3.234822e+02 -5.208855e+02 -2.821802e+02 -2.764866e+01 0 0 0 0 0 0 0 
0 0 0 0 0 0 0 0 -2.243766e-01 -6.844001e+01 -3.916543e+02 -6.506958e+02 -3.989277e+02 -7.373390e+01 -2.064697e+00 -1.314213e-03 0 -1.314213e-03 -2.064697e+00 -7.373390e+01 -3.989277e+02 -6.506958e+02 -3.916543e+02 -6.844001e+01 -2.243766e-01 0 0 0 0 0 0 0 
0 0 0 0 0 0 0 0 0 -9.647300e+00 -1.805865e+02 -6.490275e+02 -8.565513e+02 -6.287368e+02 -3.329167e+02 -1.323226e+02 -9.935930e+01 -1.323226e+02 -3.329167e+02 -6.287368e+02 -8.565513e+02 -6.490275e+02 -1.805865e+02 -9.647300e+00 0 0 0 0 0 0 0 0 
0 0 0 0 0 0 0 0 0 0 -2.655359e+01 -2.403159e+02 -6.864036e+02 -1.038591e+03 -1.053014e+03 -9.411062e+02 -9.080836e+02 -9.411062e+02 -1.053014e+03 -1.038591e+03 -6.864036e+02 -2.403159e+02 -2.655359e+01 0 0 0 0 0 0 0 0 0 
0 0 0 0 0 0 0 0 0 0 -1.046798e-01 -8.042352e+00 -1.731171e+02 -5.015639e+02 -8.328144e+02 -1.031623e+03 -1.070387e+03 -1.031623e+03 -8.328144e+02 -5.015639e+02 -1.731171e+02 -8.042352e+00 -1.046798e-01 0 0 0 0 0 0 0 0 0 
0 0 0 0 0 0 0 0 0 0 0 0 -4.608686e-01 -1.910577e+01 -1.106521e+02 -2.228383e+02 -2.616623e+02 -2.228383e+02 -1.106521e+02 -1.910577e+01 -4.608686e-01 0 0 0 0 0 0 0 0 0 0 0 
0 0 0 0 0 0 0 0 0 0 0 0 0 0 0 0 0 0 0 0 0 0 0 0 0 0 0 0 0 0 0 0 
0 0 0 0 0 0 0 0 0 0 0 0 0 0 0 0 0 0 0 0 0 0 0 0 0 0 0 0 0 0 0 0 
0 0 0 0 0 0 0 0 0 0 0 0 0 0 0 0 0 0 0 0 0 0 0 0 0 0 0 0 0 0 0 0 
0 0 0 0 0 0 0 0 0 0 0 0 0 0 0 0 0 0 0 0 0 0 0 0 0 0 0 0 0 0 0 0 
0 0 0 0 0 0 0 0 0 0 0 0 0 0 0 0 0 0 0 0 0 0 0 0 0 0 0 0 0 0 0 0 
