# vtk DataFile Version 2.0
Comment goes here
ASCII

DATASET STRUCTURED_POINTS
FIELD FieldData 1
TIME 1 1 double
0.02000000
DIMENSIONS    32   32   1

ORIGIN    0.000   0.000   0.000
SPACING   0.03125 0.03125   1.000

POINT_DATA   1024
SCALARS fY double
LOOKUP_TABLE default

0 0 0 0 0 0 0 0 0 0 0 0 0 0 0 0 0 0 0 0 0 0 0 0 0 0 0 0 0 0 0 0 
0 0 0 0 0 0 0 0 0 0 0 0 0 0 0 0 0 0 0 0 0 0 0 0 0 0 0 0 0 0 0 0 
0 0 0 0 0 0 0 0 0 0 0 0 0 0 0 0 0 0 0 0 0 0 0 0 0 0 0 0 0 0 0 0 
0 0 0 0 0 0 0 0 0 0 0 0 8.010780e-01 5.585498e+01 2.828302e+02 5.861757e+02 7.167989e+02 5.861757e+02 2.828302e+02 5.585498e+01 8.010780e-01 0 0 0 0 0 0 0 0 0 0 0 
0 0 0 0 0 0 0 0 0 0 0 1.148950e+01 1.883386e+02 7.865596e+02 1.586995e+03 2.043157e+03 2.131744e+03 2.043157e+03 1.586995e+03 7.865596e+02 1.883386e+02 1.148950e+01 0 0 0 0 0 0 0 0 0 0 
0 0 0 0 0 0 0 0 0 0 3.627636e+00 1.676395e+02 7.728723e+02 1.499657e+03 1.764077e+03 1.617468e+03 1.488373e+03 1.617468e+03 1.764077e+03 1.499657e+03 7.728723e+02 1.676395e+02 3.627636e+00 0 0 0 0 0 0 0 0 0 
0 0 0 0 0 0 0 0 0 2.826904e-01 8.678932e+01 6.008985e+02 1.122470e+03 9.566330e+02 4.723280e+02 1.604870e+02 7.342805e+01 1.604870e+02 4.723280e+02 9.566330e+02 1.122470e+03 6.008985e+02 8.678932e+01 2.826904e-01 0 0 0 0 0 0 0 0 
0 0 0 0 0 0 0 0 0 7.256128e+00 2.782968e+02 8.407538e+02 7.601549e+02 2.028572e+02 1.241534e+01 0 0 0 1.241534e+01 2.028572e+02 7.601549e+02 8.407538e+02 2.782968e+02 7.256128e+00 0 0 0 0 0 0 0 0 
0 0 0 0 0 0 0 0 0 4.127058e+01 3.996534e+02 6.171237e+02 2.739172e+02 1.517627e+01 0 0 0 0 0 1.517627e+01 2.739172e+02 6.171237e+02 3.996534e+02 4.127058e+01 0 0 0 0 0 0 0 0 
0 0 0 0 0 0 0 0 6.214437e-02 8.752211e+01 3.606874e+02 3.318266e+02 5.859907e+01 0 0 0 0 0 0 0 5.859907e+01 3.318266e+02 3.606874e+02 8.752211e+01 6.214437e-02 0 0 0 0 0 0 0 
0 0 0 0 0 0 0 0 1.256080e+00 9.924620e+01 2.371869e+02 1.473271e+02 8.130355e+00 0 0 0 0 0 0 0 8.130355e+00 1.473271e+02 2.371869e+02 9.924620e+01 1.256080e+00 0 0 0 0 0 0 0 
0 0 0 0 0 0 0 0 5.562322e+00 9.787990e+01 1.476097e+02 5.572087e+01 4.287064e-01 0 0 0 0 0 0 0 4.287064e-01 5.572087e+01 1.476097e+02 9.787990e+01 5.562322e+00 0 0 0 0 0 0 0 
0 0 0 0 0 0 0 0 9.490519e+00 8.939782e+01 1.077630e+02 2.785567e+01 0 0 0 0 0 0 0 0 0 2.785567e+01 1.077630e+02 8.939782e+01 9.490519e+00 0 0 0 0 0 0 0 
0 0 0 0 0 0 0 0 7.360960e+00 4.961543e+01 5.288358e+01 1.062912e+01 0 0 0 0 0 0 0 0 0 1.062912e+01 5.288358e+01 4.961543e+01 7.360960e+00 0 0 0 0 0 0 0 
0 0 0 0 0 0 0 0 3.469946e+00 1.721442e+01 1.611089e+01 2.366422e+00 0 0 0 0 0 0 0 0 0 2.366422e+00 1.611089e+01 1.721442e+01 3.469946e+00 0 0 0 0 0 0 0 
0 0 0 0 0 0 0 0 2.112546e+00 8.637976e+00 7.311559e+00 7.861285e-01 0 0 0 0 0 0 0 0 0 7.861285e-01 7.311559e+00 8.637976e+00 2.112546e+00 0 0 0 0 0 0 0 
0 0 0 0 0 0 0 0 -1.545020e-12 -7.171918e-12 -6.437648e-12 -8.108027e-13 0 0 0 0 0 0 0 0 0 2.172205e-12 1.953688e-11 2.277886e-11 5.414496e-12 0 0 0 0 0 0 0 
0 0 0 0 0 0 0 0 -2.112546e+00 -8.637976e+00 -7.311559e+00 -7.861285e-01 0 0 0 0 0 0 0 0 0 -7.861285e-01 -7.311559e+00 -8.637976e+00 -2.112546e+00 0 0 0 0 0 0 0 
0 0 0 0 0 0 0 0 -3.469946e+00 -1.721442e+01 -1.611089e+01 -2.366422e+00 0 0 0 0 0 0 0 0 0 -2.366422e+00 -1.611089e+01 -1.721442e+01 -3.469946e+00 0 0 0 0 0 0 0 
0 0 0 0 0 0 0 0 -7.360960e+00 -4.961543e+01 -5.288358e+01 -1.062912e+01 0 0 0 0 0 0 0 0 0 -1.062912e+01 -5.288358e+01 -4.961543e+01 -7.360960e+00 0 0 0 0 0 0 0 
0 0 0 0 0 0 0 0 -9.490519e+00 -8.939782e+01 -1.077630e+02 -2.785567e+01 0 0 0 0 0 0 0 0 0 -2.785567e+01 -1.077630e+02 -8.939782e+01 -9.490519e+00 0 0 0 0 0 0 0 
0 0 0 0 0 0 0 0 -5.562322e+00 -9.787990e+01 -1.476097e+02 -5.572087e+01 -4.287064e-01 0 0 0 0 0 0 0 -4.287064e-01 -5.572087e+01 -1.476097e+02 -9.787990e+01 -5.562322e+00 0 0 0 0 0 0 0 
0 0 0 0 0 0 0 0 -1.256080e+00 -9.924620e+01 -2.371869e+02 -1.473271e+02 -8.130355e+00 0 0 0 0 0 0 0 -8.130355e+00 -1.473271e+02 -2.371869e+02 -9.924620e+01 -1.256080e+00 0 0 0 0 0 0 0 
0 0 0 0 0 0 0 0 -6.214437e-02 -8.752211e+01 -3.606874e+02 -3.318266e+02 -5.859907e+01 0 0 0 0 0 0 0 -5.859907e+01 -3.318266e+02 -3.606874e+02 -8.752211e+01 -6.214437e-02 0 0 0 0 0 0 0 
0 0 0 0 0 0 0 0 0 -4.127058e+01 -3.996534e+02 -6.171237e+02 -2.739172e+02 -1.517627e+01 0 0 0 0 0 -1.517627e+01 -2.739172e+02 -6.171237e+02 -3.996534e+02 -4.127058e+01 0 0 0 0 0 0 0 0 
0 0 0 0 0 0 0 0 0 -7.256128e+00 -2.782968e+02 -8.407538e+02 -7.601549e+02 -2.028572e+02 -1.241534e+01 0 0 0 -1.241534e+01 -2.028572e+02 -7.601549e+02 -8.407538e+02 -2.782968e+02 -7.256128e+00 0 0 0 0 0 0 0 0 
0 0 0 0 0 0 0 0 0 -2.826904e-01 -8.678932e+01 -6.008985e+02 -1.122470e+03 -9.566330e+02 -4.723280e+02 -1.604870e+02 -7.342805e+01 -1.604870e+02 -4.723280e+02 -9.566330e+02 -1.122470e+03 -6.008985e+02 -8.678932e+01 -2.826904e-01 0 0 0 0 0 0 0 0 
0 0 0 0 0 0 0 0 0 0 -3.627636e+00 -1.676395e+02 -7.728723e+02 -1.499657e+03 -1.764077e+03 -1.617468e+03 -1.488373e+03 -1.617468e+03 -1.764077e+03 -1.499657e+03 -7.728723e+02 -1.676395e+02 -3.627636e+00 0 0 0 0 0 0 0 0 0 
0 0 0 0 0 0 0 0 0 0 0 -1.148950e+01 -1.883386e+02 -7.865596e+02 -1.586995e+03 -2.043157e+03 -2.131744e+03 -2.043157e+03 -1.586995e+03 -7.865596e+02 -1.883386e+02 -1.148950e+01 0 0 0 0 0 0 0 0 0 0 
0 0 0 0 0 0 0 0 0 0 0 0 -8.010780e-01 -5.585498e+01 -2.828302e+02 -5.861757e+02 -7.167989e+02 -5.861757e+02 -2.828302e+02 -5.585498e+01 -8.010780e-01 0 0 0 0 0 0 0 0 0 0 0 
0 0 0 0 0 0 0 0 0 0 0 0 0 0 0 0 0 0 0 0 0 0 0 0 0 0 0 0 0 0 0 0 
0 0 0 0 0 0 0 0 0 0 0 0 0 0 0 0 0 0 0 0 0 0 0 0 0 0 0 0 0 0 0 0 
