# vtk DataFile Version 2.0
Comment goes here
ASCII

DATASET STRUCTURED_POINTS
FIELD FieldData 1
TIME 1 1 double
0.52000000
DIMENSIONS    32   32   1

ORIGIN    0.000   0.000   0.000
SPACING   0.03125 0.03125   1.000

POINT_DATA   1024
SCALARS fY double
LOOKUP_TABLE default

0 0 0 0 0 0 0 0 0 0 0 0 0 0 0 0 0 0 0 0 0 0 0 0 0 0 0 0 0 0 0 0 
0 0 0 0 0 0 0 0 0 0 0 0 0 0 0 0 0 0 0 0 0 0 0 0 0 0 0 0 0 0 0 0 
0 0 0 0 0 0 0 0 0 0 0 0 0 0 0 0 0 0 0 0 0 0 0 0 0 0 0 0 0 0 0 0 
0 0 0 0 0 0 0 0 0 0 0 0 0 0 0 0 0 0 0 0 0 0 0 0 0 0 0 0 0 0 0 0 
0 0 0 0 0 0 0 0 0 0 0 0 0 0 0 0 0 0 0 0 0 0 0 0 0 0 0 0 0 0 0 0 
0 0 0 0 0 0 0 0 0 0 0 0 0 0 0 0 0 0 0 0 0 0 0 0 0 0 0 0 0 0 0 0 
0 0 0 0 0 0 0 0 0 0 0 1.953486e+00 3.576334e+01 1.259248e+02 2.880786e+02 4.048882e+02 4.178491e+02 4.048882e+02 2.880786e+02 1.259248e+02 3.576334e+01 1.953486e+00 0 0 0 0 0 0 0 0 0 0 
0 0 0 0 0 0 0 0 0 0 1.556198e+01 1.278100e+02 5.010893e+02 8.242871e+02 9.879573e+02 1.042250e+03 9.794769e+02 1.042250e+03 9.879573e+02 8.242871e+02 5.010893e+02 1.278100e+02 1.556198e+01 0 0 0 0 0 0 0 0 0 
0 0 0 0 0 0 0 0 0 3.283290e+01 2.850027e+02 6.706000e+02 9.573048e+02 9.523179e+02 7.866722e+02 6.574146e+02 5.683713e+02 6.574146e+02 7.866722e+02 9.523179e+02 9.573048e+02 6.706000e+02 2.850027e+02 3.283290e+01 0 0 0 0 0 0 0 0 
0 0 0 0 0 0 0 0 1.302279e+01 2.319026e+02 7.576264e+02 9.361669e+02 5.849173e+02 2.576094e+02 8.679357e+01 2.005284e+01 6.743453e+00 2.005284e+01 8.679357e+01 2.576094e+02 5.849173e+02 9.361669e+02 7.576264e+02 2.319026e+02 1.302279e+01 0 0 0 0 0 0 0 
0 0 0 0 0 0 0 1.124996e+00 1.128179e+02 5.421873e+02 7.956607e+02 4.545454e+02 9.303286e+01 3.653774e+00 0 0 0 0 0 3.653774e+00 9.303286e+01 4.545454e+02 7.956607e+02 5.421873e+02 1.128179e+02 1.124996e+00 0 0 0 0 0 0 
0 0 0 0 0 0 0 2.142586e+01 3.101686e+02 6.452812e+02 4.218577e+02 6.541362e+01 9.442191e-02 0 0 0 0 0 0 0 9.442191e-02 6.541362e+01 4.218577e+02 6.452812e+02 3.101686e+02 2.142586e+01 0 0 0 0 0 0 
0 0 0 0 0 0 0 7.185214e+01 3.998531e+02 4.615222e+02 1.358129e+02 2.291668e+00 0 0 0 0 0 0 0 0 0 2.291668e+00 1.358129e+02 4.615222e+02 3.998531e+02 7.185214e+01 0 0 0 0 0 0 
0 0 0 0 0 0 2.493022e-01 1.293730e+02 3.582738e+02 2.520017e+02 2.285157e+01 0 0 0 0 0 0 0 0 0 0 0 2.285157e+01 2.520017e+02 3.582738e+02 1.293730e+02 2.493022e-01 0 0 0 0 0 
0 0 0 0 0 0 2.429578e+00 1.278628e+02 2.454403e+02 1.214426e+02 1.435555e+00 0 0 0 0 0 0 0 0 0 0 0 1.435555e+00 1.214426e+02 2.454403e+02 1.278628e+02 2.429578e+00 0 0 0 0 0 
0 0 0 0 0 0 4.600146e+00 8.694115e+01 1.261765e+02 4.384971e+01 1.416685e-02 0 0 0 0 0 0 0 0 0 0 0 1.416685e-02 4.384971e+01 1.261765e+02 8.694115e+01 4.600146e+00 0 0 0 0 0 
0 0 0 0 0 0 2.483472e-12 1.409917e-11 1.249304e-11 8.867395e-13 0 0 0 0 0 0 0 0 0 0 0 0 0 1.559752e-11 2.842187e-11 9.588409e-12 -3.230010e-12 0 0 0 0 0 
0 0 0 0 0 0 -4.600146e+00 -8.694115e+01 -1.261765e+02 -4.384971e+01 -1.416685e-02 0 0 0 0 0 0 0 0 0 0 0 -1.416685e-02 -4.384971e+01 -1.261765e+02 -8.694115e+01 -4.600146e+00 0 0 0 0 0 
0 0 0 0 0 0 -2.429578e+00 -1.278628e+02 -2.454403e+02 -1.214426e+02 -1.435555e+00 0 0 0 0 0 0 0 0 0 0 0 -1.435555e+00 -1.214426e+02 -2.454403e+02 -1.278628e+02 -2.429578e+00 0 0 0 0 0 
0 0 0 0 0 0 -2.493022e-01 -1.293730e+02 -3.582738e+02 -2.520017e+02 -2.285157e+01 0 0 0 0 0 0 0 0 0 0 0 -2.285157e+01 -2.520017e+02 -3.582738e+02 -1.293730e+02 -2.493022e-01 0 0 0 0 0 
0 0 0 0 0 0 0 -7.185214e+01 -3.998531e+02 -4.615222e+02 -1.358129e+02 -2.291668e+00 0 0 0 0 0 0 0 0 0 -2.291668e+00 -1.358129e+02 -4.615222e+02 -3.998531e+02 -7.185214e+01 0 0 0 0 0 0 
0 0 0 0 0 0 0 -2.142586e+01 -3.101686e+02 -6.452812e+02 -4.218577e+02 -6.541362e+01 -9.442191e-02 0 0 0 0 0 0 0 -9.442191e-02 -6.541362e+01 -4.218577e+02 -6.452812e+02 -3.101686e+02 -2.142586e+01 0 0 0 0 0 0 
0 0 0 0 0 0 0 -1.124996e+00 -1.128179e+02 -5.421873e+02 -7.956607e+02 -4.545454e+02 -9.303286e+01 -3.653774e+00 0 0 0 0 0 -3.653774e+00 -9.303286e+01 -4.545454e+02 -7.956607e+02 -5.421873e+02 -1.128179e+02 -1.124996e+00 0 0 0 0 0 0 
0 0 0 0 0 0 0 0 -1.302279e+01 -2.319026e+02 -7.576264e+02 -9.361669e+02 -5.849173e+02 -2.576094e+02 -8.679357e+01 -2.005284e+01 -6.743453e+00 -2.005284e+01 -8.679357e+01 -2.576094e+02 -5.849173e+02 -9.361669e+02 -7.576264e+02 -2.319026e+02 -1.302279e+01 0 0 0 0 0 0 0 
0 0 0 0 0 0 0 0 0 -3.283290e+01 -2.850027e+02 -6.706000e+02 -9.573048e+02 -9.523179e+02 -7.866722e+02 -6.574146e+02 -5.683713e+02 -6.574146e+02 -7.866722e+02 -9.523179e+02 -9.573048e+02 -6.706000e+02 -2.850027e+02 -3.283290e+01 0 0 0 0 0 0 0 0 
0 0 0 0 0 0 0 0 0 0 -1.556198e+01 -1.278100e+02 -5.010893e+02 -8.242871e+02 -9.879573e+02 -1.042250e+03 -9.794769e+02 -1.042250e+03 -9.879573e+02 -8.242871e+02 -5.010893e+02 -1.278100e+02 -1.556198e+01 0 0 0 0 0 0 0 0 0 
0 0 0 0 0 0 0 0 0 0 0 -1.953486e+00 -3.576334e+01 -1.259248e+02 -2.880786e+02 -4.048882e+02 -4.178491e+02 -4.048882e+02 -2.880786e+02 -1.259248e+02 -3.576334e+01 -1.953486e+00 0 0 0 0 0 0 0 0 0 0 
0 0 0 0 0 0 0 0 0 0 0 0 0 0 0 0 0 0 0 0 0 0 0 0 0 0 0 0 0 0 0 0 
0 0 0 0 0 0 0 0 0 0 0 0 0 0 0 0 0 0 0 0 0 0 0 0 0 0 0 0 0 0 0 0 
0 0 0 0 0 0 0 0 0 0 0 0 0 0 0 0 0 0 0 0 0 0 0 0 0 0 0 0 0 0 0 0 
0 0 0 0 0 0 0 0 0 0 0 0 0 0 0 0 0 0 0 0 0 0 0 0 0 0 0 0 0 0 0 0 
0 0 0 0 0 0 0 0 0 0 0 0 0 0 0 0 0 0 0 0 0 0 0 0 0 0 0 0 0 0 0 0 
