# vtk DataFile Version 2.0
Comment goes here
ASCII

DATASET STRUCTURED_POINTS
FIELD FieldData 1
TIME 1 1 double
0.92000000
DIMENSIONS    32   32   1

ORIGIN    0.000   0.000   0.000
SPACING   0.03125 0.03125   1.000

POINT_DATA   1024
SCALARS fY double
LOOKUP_TABLE default

0 0 0 0 0 0 0 0 0 0 0 0 0 0 0 0 0 0 0 0 0 0 0 0 0 0 0 0 0 0 0 0 
0 0 0 0 0 0 0 0 0 0 0 0 0 0 0 0 0 0 0 0 0 0 0 0 0 0 0 0 0 0 0 0 
0 0 0 0 0 0 0 0 0 0 0 0 0 0 0 0 0 0 0 0 0 0 0 0 0 0 0 0 0 0 0 0 
0 0 0 0 0 0 0 0 0 0 0 0 0 0 0 0 0 0 0 0 0 0 0 0 0 0 0 0 0 0 0 0 
0 0 0 0 0 0 0 0 0 0 0 0 0 0 0 0 0 0 0 0 0 0 0 0 0 0 0 0 0 0 0 0 
0 0 0 0 0 0 0 0 0 0 0 0 0 0 0 0 0 0 0 0 0 0 0 0 0 0 0 0 0 0 0 0 
0 0 0 0 0 0 0 0 0 0 0 0 0 8.585860e-02 2.821773e+00 1.167069e+01 1.786954e+01 1.167069e+01 2.821773e+00 8.585860e-02 0 0 0 0 0 0 0 0 0 0 0 0 
0 0 0 0 0 0 0 0 0 0 0 1.280822e+00 7.346070e+01 2.197449e+02 4.143417e+02 5.742750e+02 6.149965e+02 5.742750e+02 4.143417e+02 2.197449e+02 7.346070e+01 1.280822e+00 0 0 0 0 0 0 0 0 0 0 
0 0 0 0 0 0 0 0 0 0 2.475930e+01 1.382966e+02 5.105737e+02 8.859149e+02 9.775037e+02 9.684460e+02 9.596416e+02 9.684460e+02 9.775037e+02 8.859149e+02 5.105737e+02 1.382966e+02 2.475930e+01 0 0 0 0 0 0 0 0 0 
0 0 0 0 0 0 0 0 1.941086e-02 1.176522e+01 2.325258e+02 6.362979e+02 8.466221e+02 8.106913e+02 6.053069e+02 4.069772e+02 3.625147e+02 4.069772e+02 6.053069e+02 8.106913e+02 8.466221e+02 6.362979e+02 2.325258e+02 1.176522e+01 1.941086e-02 0 0 0 0 0 0 0 
0 0 0 0 0 0 0 0 1.917703e+00 1.501874e+02 5.555048e+02 7.796768e+02 4.806437e+02 1.463897e+02 3.932320e+01 1.135439e+00 0 1.135439e+00 3.932320e+01 1.463897e+02 4.806437e+02 7.796768e+02 5.555048e+02 1.501874e+02 1.917703e+00 0 0 0 0 0 0 0 
0 0 0 0 0 0 0 -4.445103e-02 6.780067e+01 3.998574e+02 6.083693e+02 3.461955e+02 7.179284e+01 1.954272e+00 0 0 0 0 0 1.954272e+00 7.179284e+01 3.461955e+02 6.083693e+02 3.998574e+02 6.780067e+01 -4.445103e-02 0 0 0 0 0 0 
0 0 0 0 0 0 0 -2.088344e-04 1.115545e+02 4.441803e+02 4.039090e+02 7.194170e+01 6.583094e-01 0 0 0 0 0 0 0 6.583094e-01 7.194170e+01 4.039090e+02 4.441803e+02 1.115545e+02 -2.088344e-04 0 0 0 0 0 0 
0 0 0 0 0 0 0 2.322679e+01 1.952635e+02 3.354697e+02 1.697073e+02 6.274315e+00 0 0 0 0 0 0 0 0 0 6.274315e+00 1.697073e+02 3.354697e+02 1.952635e+02 2.322679e+01 0 0 0 0 0 0 
0 0 0 0 0 0 0 3.789655e+01 2.404832e+02 2.472310e+02 4.477777e+01 1.334336e-01 0 0 0 0 0 0 0 0 0 1.334336e-01 4.477777e+01 2.472310e+02 2.404832e+02 3.789655e+01 0 0 0 0 0 0 
0 0 0 0 0 0 0 2.239258e+01 1.199990e+02 1.181578e+02 2.055138e+01 0 0 0 0 0 0 0 0 0 0 0 2.055138e+01 1.181578e+02 1.199990e+02 2.239258e+01 0 0 0 0 0 0 
0 0 0 0 0 0 0 -8.088641e-12 -1.831953e-11 -9.312952e-12 9.193374e-13 0 0 0 0 0 0 0 0 0 0 0 -2.411626e-12 3.050404e-11 5.738396e-11 2.446981e-11 0 0 0 0 0 0 
0 0 0 0 0 0 0 -2.239258e+01 -1.199990e+02 -1.181578e+02 -2.055138e+01 0 0 0 0 0 0 0 0 0 0 0 -2.055138e+01 -1.181578e+02 -1.199990e+02 -2.239258e+01 0 0 0 0 0 0 
0 0 0 0 0 0 0 -3.789655e+01 -2.404832e+02 -2.472310e+02 -4.477777e+01 -1.334336e-01 0 0 0 0 0 0 0 0 0 -1.334336e-01 -4.477777e+01 -2.472310e+02 -2.404832e+02 -3.789655e+01 0 0 0 0 0 0 
0 0 0 0 0 0 0 -2.322679e+01 -1.952635e+02 -3.354697e+02 -1.697073e+02 -6.274315e+00 0 0 0 0 0 0 0 0 0 -6.274315e+00 -1.697073e+02 -3.354697e+02 -1.952635e+02 -2.322679e+01 0 0 0 0 0 0 
0 0 0 0 0 0 0 2.088344e-04 -1.115545e+02 -4.441803e+02 -4.039090e+02 -7.194170e+01 -6.583094e-01 0 0 0 0 0 0 0 -6.583094e-01 -7.194170e+01 -4.039090e+02 -4.441803e+02 -1.115545e+02 2.088344e-04 0 0 0 0 0 0 
0 0 0 0 0 0 0 4.445103e-02 -6.780067e+01 -3.998574e+02 -6.083693e+02 -3.461955e+02 -7.179284e+01 -1.954272e+00 0 0 0 0 0 -1.954272e+00 -7.179284e+01 -3.461955e+02 -6.083693e+02 -3.998574e+02 -6.780067e+01 4.445103e-02 0 0 0 0 0 0 
0 0 0 0 0 0 0 0 -1.917703e+00 -1.501874e+02 -5.555048e+02 -7.796768e+02 -4.806437e+02 -1.463897e+02 -3.932320e+01 -1.135439e+00 0 -1.135439e+00 -3.932320e+01 -1.463897e+02 -4.806437e+02 -7.796768e+02 -5.555048e+02 -1.501874e+02 -1.917703e+00 0 0 0 0 0 0 0 
0 0 0 0 0 0 0 0 -1.941086e-02 -1.176522e+01 -2.325258e+02 -6.362979e+02 -8.466221e+02 -8.106913e+02 -6.053069e+02 -4.069772e+02 -3.625147e+02 -4.069772e+02 -6.053069e+02 -8.106913e+02 -8.466221e+02 -6.362979e+02 -2.325258e+02 -1.176522e+01 -1.941086e-02 0 0 0 0 0 0 0 
0 0 0 0 0 0 0 0 0 0 -2.475930e+01 -1.382966e+02 -5.105737e+02 -8.859149e+02 -9.775037e+02 -9.684460e+02 -9.596416e+02 -9.684460e+02 -9.775037e+02 -8.859149e+02 -5.105737e+02 -1.382966e+02 -2.475930e+01 0 0 0 0 0 0 0 0 0 
0 0 0 0 0 0 0 0 0 0 0 -1.280822e+00 -7.346070e+01 -2.197449e+02 -4.143417e+02 -5.742750e+02 -6.149965e+02 -5.742750e+02 -4.143417e+02 -2.197449e+02 -7.346070e+01 -1.280822e+00 0 0 0 0 0 0 0 0 0 0 
0 0 0 0 0 0 0 0 0 0 0 0 0 -8.585860e-02 -2.821773e+00 -1.167069e+01 -1.786954e+01 -1.167069e+01 -2.821773e+00 -8.585860e-02 0 0 0 0 0 0 0 0 0 0 0 0 
0 0 0 0 0 0 0 0 0 0 0 0 0 0 0 0 0 0 0 0 0 0 0 0 0 0 0 0 0 0 0 0 
0 0 0 0 0 0 0 0 0 0 0 0 0 0 0 0 0 0 0 0 0 0 0 0 0 0 0 0 0 0 0 0 
0 0 0 0 0 0 0 0 0 0 0 0 0 0 0 0 0 0 0 0 0 0 0 0 0 0 0 0 0 0 0 0 
0 0 0 0 0 0 0 0 0 0 0 0 0 0 0 0 0 0 0 0 0 0 0 0 0 0 0 0 0 0 0 0 
0 0 0 0 0 0 0 0 0 0 0 0 0 0 0 0 0 0 0 0 0 0 0 0 0 0 0 0 0 0 0 0 
