# vtk DataFile Version 2.0
Comment goes here
ASCII

DATASET STRUCTURED_POINTS
FIELD FieldData 1
TIME 1 1 double
0.46000000
DIMENSIONS    32   32   1

ORIGIN    0.000   0.000   0.000
SPACING   0.03125 0.03125   1.000

POINT_DATA   1024
SCALARS fY double
LOOKUP_TABLE default

0 0 0 0 0 0 0 0 0 0 0 0 0 0 0 0 0 0 0 0 0 0 0 0 0 0 0 0 0 0 0 0 
0 0 0 0 0 0 0 0 0 0 0 0 0 0 0 0 0 0 0 0 0 0 0 0 0 0 0 0 0 0 0 0 
0 0 0 0 0 0 0 0 0 0 0 0 0 0 0 0 0 0 0 0 0 0 0 0 0 0 0 0 0 0 0 0 
0 0 0 0 0 0 0 0 0 0 0 0 0 0 0 0 0 0 0 0 0 0 0 0 0 0 0 0 0 0 0 0 
0 0 0 0 0 0 0 0 0 0 0 0 0 0 0 0 0 0 0 0 0 0 0 0 0 0 0 0 0 0 0 0 
0 0 0 0 0 0 0 0 0 0 0 0 1.529043e-01 7.641073e+00 4.523558e+01 1.065087e+02 1.375226e+02 1.065087e+02 4.523558e+01 7.641073e+00 1.529043e-01 0 0 0 0 0 0 0 0 0 0 0 
0 0 0 0 0 0 0 0 0 0 4.746362e-03 1.929254e+01 1.504403e+02 4.582924e+02 7.621108e+02 9.225977e+02 9.752537e+02 9.225977e+02 7.621108e+02 4.582924e+02 1.504403e+02 1.929254e+01 4.746362e-03 0 0 0 0 0 0 0 0 0 
0 0 0 0 0 0 0 0 0 1.116784e+00 4.057869e+01 3.032076e+02 7.723470e+02 1.113627e+03 1.165649e+03 1.088147e+03 1.055046e+03 1.088147e+03 1.165649e+03 1.113627e+03 7.723470e+02 3.032076e+02 4.057869e+01 1.116784e+00 0 0 0 0 0 0 0 0 
0 0 0 0 0 0 0 0 0 4.526910e+01 3.608102e+02 8.314879e+02 9.787194e+02 7.548644e+02 4.554925e+02 2.720581e+02 2.173150e+02 2.720581e+02 4.554925e+02 7.548644e+02 9.787194e+02 8.314879e+02 3.608102e+02 4.526910e+01 0 0 0 0 0 0 0 0 
0 0 0 0 0 0 0 0 1.175066e+01 2.361572e+02 7.497595e+02 8.367920e+02 3.972399e+02 9.251915e+01 6.718339e+00 0 0 0 6.718339e+00 9.251915e+01 3.972399e+02 8.367920e+02 7.497595e+02 2.361572e+02 1.175066e+01 0 0 0 0 0 0 0 
0 0 0 0 0 0 0 4.246354e-01 8.657675e+01 4.890433e+02 7.095735e+02 3.470373e+02 4.098495e+01 6.299518e-01 0 0 0 0 0 6.299518e-01 4.098495e+01 3.470373e+02 7.095735e+02 4.890433e+02 8.657675e+01 4.246354e-01 0 0 0 0 0 0 
0 0 0 0 0 0 0 5.720240e+00 2.122680e+02 5.400589e+02 3.938646e+02 6.075834e+01 4.048328e-01 0 0 0 0 0 0 0 4.048328e-01 6.075834e+01 3.938646e+02 5.400589e+02 2.122680e+02 5.720240e+00 0 0 0 0 0 0 
0 0 0 0 0 0 0 2.682894e+01 2.602080e+02 3.722978e+02 1.418590e+02 2.940190e+00 0 0 0 0 0 0 0 0 0 2.940190e+00 1.418590e+02 3.722978e+02 2.602080e+02 2.682894e+01 0 0 0 0 0 0 
0 0 0 0 0 0 0 6.261666e+01 2.652503e+02 2.395994e+02 3.696575e+01 0 0 0 0 0 0 0 0 0 0 0 3.696575e+01 2.395994e+02 2.652503e+02 6.261666e+01 0 0 0 0 0 0 
0 0 0 0 0 0 0 7.654183e+01 2.267041e+02 1.601267e+02 9.964369e+00 0 0 0 0 0 0 0 0 0 0 0 9.964369e+00 1.601267e+02 2.267041e+02 7.654183e+01 0 0 0 0 0 0 
0 0 0 0 0 0 0 6.747981e+01 1.533391e+02 8.700486e+01 1.145588e+00 0 0 0 0 0 0 0 0 0 0 0 1.145588e+00 8.700486e+01 1.533391e+02 6.747981e+01 0 0 0 0 0 0 
0 0 0 0 0 0 0 1.368328e-11 1.909565e-11 5.255903e-12 -1.468760e-13 0 0 0 0 0 0 0 0 0 0 0 2.951337e-13 6.451395e-12 -5.781989e-12 -1.193757e-11 0 0 0 0 0 0 
0 0 0 0 0 0 0 -6.747981e+01 -1.533391e+02 -8.700486e+01 -1.145588e+00 0 0 0 0 0 0 0 0 0 0 0 -1.145588e+00 -8.700486e+01 -1.533391e+02 -6.747981e+01 0 0 0 0 0 0 
0 0 0 0 0 0 0 -7.654183e+01 -2.267041e+02 -1.601267e+02 -9.964369e+00 0 0 0 0 0 0 0 0 0 0 0 -9.964369e+00 -1.601267e+02 -2.267041e+02 -7.654183e+01 0 0 0 0 0 0 
0 0 0 0 0 0 0 -6.261666e+01 -2.652503e+02 -2.395994e+02 -3.696575e+01 0 0 0 0 0 0 0 0 0 0 0 -3.696575e+01 -2.395994e+02 -2.652503e+02 -6.261666e+01 0 0 0 0 0 0 
0 0 0 0 0 0 0 -2.682894e+01 -2.602080e+02 -3.722978e+02 -1.418590e+02 -2.940190e+00 0 0 0 0 0 0 0 0 0 -2.940190e+00 -1.418590e+02 -3.722978e+02 -2.602080e+02 -2.682894e+01 0 0 0 0 0 0 
0 0 0 0 0 0 0 -5.720240e+00 -2.122680e+02 -5.400589e+02 -3.938646e+02 -6.075834e+01 -4.048328e-01 0 0 0 0 0 0 0 -4.048328e-01 -6.075834e+01 -3.938646e+02 -5.400589e+02 -2.122680e+02 -5.720240e+00 0 0 0 0 0 0 
0 0 0 0 0 0 0 -4.246354e-01 -8.657675e+01 -4.890433e+02 -7.095735e+02 -3.470373e+02 -4.098495e+01 -6.299518e-01 0 0 0 0 0 -6.299518e-01 -4.098495e+01 -3.470373e+02 -7.095735e+02 -4.890433e+02 -8.657675e+01 -4.246354e-01 0 0 0 0 0 0 
0 0 0 0 0 0 0 0 -1.175066e+01 -2.361572e+02 -7.497595e+02 -8.367920e+02 -3.972399e+02 -9.251915e+01 -6.718339e+00 0 0 0 -6.718339e+00 -9.251915e+01 -3.972399e+02 -8.367920e+02 -7.497595e+02 -2.361572e+02 -1.175066e+01 0 0 0 0 0 0 0 
0 0 0 0 0 0 0 0 0 -4.526910e+01 -3.608102e+02 -8.314879e+02 -9.787194e+02 -7.548644e+02 -4.554925e+02 -2.720581e+02 -2.173150e+02 -2.720581e+02 -4.554925e+02 -7.548644e+02 -9.787194e+02 -8.314879e+02 -3.608102e+02 -4.526910e+01 0 0 0 0 0 0 0 0 
0 0 0 0 0 0 0 0 0 -1.116784e+00 -4.057869e+01 -3.032076e+02 -7.723470e+02 -1.113627e+03 -1.165649e+03 -1.088147e+03 -1.055046e+03 -1.088147e+03 -1.165649e+03 -1.113627e+03 -7.723470e+02 -3.032076e+02 -4.057869e+01 -1.116784e+00 0 0 0 0 0 0 0 0 
0 0 0 0 0 0 0 0 0 0 -4.746362e-03 -1.929254e+01 -1.504403e+02 -4.582924e+02 -7.621108e+02 -9.225977e+02 -9.752537e+02 -9.225977e+02 -7.621108e+02 -4.582924e+02 -1.504403e+02 -1.929254e+01 -4.746362e-03 0 0 0 0 0 0 0 0 0 
0 0 0 0 0 0 0 0 0 0 0 0 -1.529043e-01 -7.641073e+00 -4.523558e+01 -1.065087e+02 -1.375226e+02 -1.065087e+02 -4.523558e+01 -7.641073e+00 -1.529043e-01 0 0 0 0 0 0 0 0 0 0 0 
0 0 0 0 0 0 0 0 0 0 0 0 0 0 0 0 0 0 0 0 0 0 0 0 0 0 0 0 0 0 0 0 
0 0 0 0 0 0 0 0 0 0 0 0 0 0 0 0 0 0 0 0 0 0 0 0 0 0 0 0 0 0 0 0 
0 0 0 0 0 0 0 0 0 0 0 0 0 0 0 0 0 0 0 0 0 0 0 0 0 0 0 0 0 0 0 0 
0 0 0 0 0 0 0 0 0 0 0 0 0 0 0 0 0 0 0 0 0 0 0 0 0 0 0 0 0 0 0 0 
