# vtk DataFile Version 2.0
Comment goes here
ASCII

DATASET STRUCTURED_POINTS
FIELD FieldData 1
TIME 1 1 double
0.26000000
DIMENSIONS    32   32   1

ORIGIN    0.000   0.000   0.000
SPACING   0.03125 0.03125   1.000

POINT_DATA   1024
SCALARS fY double
LOOKUP_TABLE default

0 0 0 0 0 0 0 0 0 0 0 0 0 0 0 0 0 0 0 0 0 0 0 0 0 0 0 0 0 0 0 0 
0 0 0 0 0 0 0 0 0 0 0 0 0 0 0 0 0 0 0 0 0 0 0 0 0 0 0 0 0 0 0 0 
0 0 0 0 0 0 0 0 0 0 0 0 0 0 0 0 0 0 0 0 0 0 0 0 0 0 0 0 0 0 0 0 
0 0 0 0 0 0 0 0 0 0 0 0 0 0 0 0 0 0 0 0 0 0 0 0 0 0 0 0 0 0 0 0 
0 0 0 0 0 0 0 0 0 0 0 0 0 0 0 0 0 0 0 0 0 0 0 0 0 0 0 0 0 0 0 0 
0 0 0 0 0 0 0 0 0 0 0 0 0 0 0 0 0 0 0 0 0 0 0 0 0 0 0 0 0 0 0 0 
0 0 0 0 0 0 0 0 0 0 0 0 0 0 0 0 0 0 0 0 0 0 0 0 0 0 0 0 0 0 0 0 
0 0 0 0 0 0 0 0 0 0 0 0 0 1.427986e-01 1.130458e+00 3.267889e+00 4.560459e+00 3.267889e+00 1.130458e+00 1.427986e-01 0 0 0 0 0 0 0 0 0 0 0 0 
0 0 0 0 0 0 0 0 8.680551e-02 5.545404e+00 4.253197e+01 1.091799e+02 1.845414e+02 2.294953e+02 2.549074e+02 2.798654e+02 2.840368e+02 2.798654e+02 2.549074e+02 2.294953e+02 1.845414e+02 1.091799e+02 4.253197e+01 5.545404e+00 8.680551e-02 0 0 0 0 0 0 0 
0 0 0 0 0 0 0 8.053469e+00 9.572477e+01 3.176690e+02 5.652008e+02 6.390247e+02 6.192178e+02 5.639004e+02 4.956485e+02 4.828514e+02 4.714139e+02 4.828514e+02 4.956485e+02 5.639004e+02 6.192178e+02 6.390247e+02 5.652008e+02 3.176690e+02 9.572477e+01 8.053469e+00 0 0 0 0 0 0 
0 0 0 0 0 3.348924e-01 2.587257e+01 2.178559e+02 6.269020e+02 9.015507e+02 8.786522e+02 6.789362e+02 4.795861e+02 3.449904e+02 2.429638e+02 2.062773e+02 1.919376e+02 2.062773e+02 2.429638e+02 3.449904e+02 4.795861e+02 6.789362e+02 8.786522e+02 9.015507e+02 6.269020e+02 2.178559e+02 2.587257e+01 3.348924e-01 0 0 0 0 
0 0 0 0 0 3.386369e+01 3.635172e+02 8.217975e+02 9.463759e+02 7.083886e+02 3.677121e+02 1.490914e+02 4.490968e+01 1.044251e+01 1.092150e+00 2.343412e-02 0 2.343412e-02 1.092150e+00 1.044251e+01 4.490968e+01 1.490914e+02 3.677121e+02 7.083886e+02 9.463759e+02 8.217975e+02 3.635172e+02 3.386369e+01 0 0 0 0 
0 0 0 0 8.434234e+00 2.106775e+02 8.070000e+02 9.883714e+02 4.925093e+02 1.206234e+02 1.172881e+01 0 0 0 0 0 0 0 0 0 0 0 1.172881e+01 1.206234e+02 4.925093e+02 9.883714e+02 8.070000e+02 2.106775e+02 8.434234e+00 0 0 0 
0 0 0 0 6.092698e+01 5.578795e+02 9.153940e+02 4.946433e+02 7.786369e+01 1.661917e+00 0 0 0 0 0 0 0 0 0 0 0 0 0 1.661917e+00 7.786369e+01 4.946433e+02 9.153940e+02 5.578795e+02 6.092698e+01 0 0 0 
0 0 0 0 1.537127e+02 7.193033e+02 7.076333e+02 1.425090e+02 4.663049e-01 0 0 0 0 0 0 0 0 0 0 0 0 0 0 0 4.663049e-01 1.425090e+02 7.076333e+02 7.193033e+02 1.537127e+02 0 0 0 
0 0 0 0 1.640006e+02 4.980607e+02 3.605374e+02 2.647731e+01 0 0 0 0 0 0 0 0 0 0 0 0 0 0 0 0 0 2.647731e+01 3.605374e+02 4.980607e+02 1.640006e+02 0 0 0 
0 0 0 0 3.153656e-11 4.762799e-11 1.470735e-11 -1.366574e-12 0 0 0 0 0 0 0 0 0 0 0 0 0 0 0 0 0 1.091959e-12 8.856374e-12 -1.220104e-12 -8.971628e-12 0 0 0 
0 0 0 0 -1.640006e+02 -4.980607e+02 -3.605374e+02 -2.647731e+01 0 0 0 0 0 0 0 0 0 0 0 0 0 0 0 0 0 -2.647731e+01 -3.605374e+02 -4.980607e+02 -1.640006e+02 0 0 0 
0 0 0 0 -1.537127e+02 -7.193033e+02 -7.076333e+02 -1.425090e+02 -4.663049e-01 0 0 0 0 0 0 0 0 0 0 0 0 0 0 0 -4.663049e-01 -1.425090e+02 -7.076333e+02 -7.193033e+02 -1.537127e+02 0 0 0 
0 0 0 0 -6.092698e+01 -5.578795e+02 -9.153940e+02 -4.946433e+02 -7.786369e+01 -1.661917e+00 0 0 0 0 0 0 0 0 0 0 0 0 0 -1.661917e+00 -7.786369e+01 -4.946433e+02 -9.153940e+02 -5.578795e+02 -6.092698e+01 0 0 0 
0 0 0 0 -8.434234e+00 -2.106775e+02 -8.070000e+02 -9.883714e+02 -4.925093e+02 -1.206234e+02 -1.172881e+01 0 0 0 0 0 0 0 0 0 0 0 -1.172881e+01 -1.206234e+02 -4.925093e+02 -9.883714e+02 -8.070000e+02 -2.106775e+02 -8.434234e+00 0 0 0 
0 0 0 0 0 -3.386369e+01 -3.635172e+02 -8.217975e+02 -9.463759e+02 -7.083886e+02 -3.677121e+02 -1.490914e+02 -4.490968e+01 -1.044251e+01 -1.092150e+00 -2.343412e-02 0 -2.343412e-02 -1.092150e+00 -1.044251e+01 -4.490968e+01 -1.490914e+02 -3.677121e+02 -7.083886e+02 -9.463759e+02 -8.217975e+02 -3.635172e+02 -3.386369e+01 0 0 0 0 
0 0 0 0 0 -3.348924e-01 -2.587257e+01 -2.178559e+02 -6.269020e+02 -9.015507e+02 -8.786522e+02 -6.789362e+02 -4.795861e+02 -3.449904e+02 -2.429638e+02 -2.062773e+02 -1.919376e+02 -2.062773e+02 -2.429638e+02 -3.449904e+02 -4.795861e+02 -6.789362e+02 -8.786522e+02 -9.015507e+02 -6.269020e+02 -2.178559e+02 -2.587257e+01 -3.348924e-01 0 0 0 0 
0 0 0 0 0 0 0 -8.053469e+00 -9.572477e+01 -3.176690e+02 -5.652008e+02 -6.390247e+02 -6.192178e+02 -5.639004e+02 -4.956485e+02 -4.828514e+02 -4.714139e+02 -4.828514e+02 -4.956485e+02 -5.639004e+02 -6.192178e+02 -6.390247e+02 -5.652008e+02 -3.176690e+02 -9.572477e+01 -8.053469e+00 0 0 0 0 0 0 
0 0 0 0 0 0 0 0 -8.680551e-02 -5.545404e+00 -4.253197e+01 -1.091799e+02 -1.845414e+02 -2.294953e+02 -2.549074e+02 -2.798654e+02 -2.840368e+02 -2.798654e+02 -2.549074e+02 -2.294953e+02 -1.845414e+02 -1.091799e+02 -4.253197e+01 -5.545404e+00 -8.680551e-02 0 0 0 0 0 0 0 
0 0 0 0 0 0 0 0 0 0 0 0 0 -1.427986e-01 -1.130458e+00 -3.267889e+00 -4.560459e+00 -3.267889e+00 -1.130458e+00 -1.427986e-01 0 0 0 0 0 0 0 0 0 0 0 0 
0 0 0 0 0 0 0 0 0 0 0 0 0 0 0 0 0 0 0 0 0 0 0 0 0 0 0 0 0 0 0 0 
0 0 0 0 0 0 0 0 0 0 0 0 0 0 0 0 0 0 0 0 0 0 0 0 0 0 0 0 0 0 0 0 
0 0 0 0 0 0 0 0 0 0 0 0 0 0 0 0 0 0 0 0 0 0 0 0 0 0 0 0 0 0 0 0 
0 0 0 0 0 0 0 0 0 0 0 0 0 0 0 0 0 0 0 0 0 0 0 0 0 0 0 0 0 0 0 0 
0 0 0 0 0 0 0 0 0 0 0 0 0 0 0 0 0 0 0 0 0 0 0 0 0 0 0 0 0 0 0 0 
0 0 0 0 0 0 0 0 0 0 0 0 0 0 0 0 0 0 0 0 0 0 0 0 0 0 0 0 0 0 0 0 
