# vtk DataFile Version 2.0
Comment goes here
ASCII

DATASET STRUCTURED_POINTS
FIELD FieldData 1
TIME 1 1 double
0.50000000
DIMENSIONS    32   32   1

ORIGIN    0.000   0.000   0.000
SPACING   0.03125 0.03125   1.000

POINT_DATA   1024
SCALARS fY double
LOOKUP_TABLE default

0 0 0 0 0 0 0 0 0 0 0 0 0 0 0 0 0 0 0 0 0 0 0 0 0 0 0 0 0 0 0 0 
0 0 0 0 0 0 0 0 0 0 0 0 0 0 0 0 0 0 0 0 0 0 0 0 0 0 0 0 0 0 0 0 
0 0 0 0 0 0 0 0 0 0 0 0 0 0 0 0 0 0 0 0 0 0 0 0 0 0 0 0 0 0 0 0 
0 0 0 0 0 0 0 0 0 0 0 0 0 0 0 0 0 0 0 0 0 0 0 0 0 0 0 0 0 0 0 0 
0 0 0 0 0 0 0 0 0 0 0 0 0 0 0 0 0 0 0 0 0 0 0 0 0 0 0 0 0 0 0 0 
0 0 0 0 0 0 0 0 0 0 0 3.078472e-01 1.370084e+01 9.687833e+01 3.166689e+02 5.391410e+02 6.119148e+02 5.391410e+02 3.166689e+02 9.687833e+01 1.370084e+01 3.078472e-01 0 0 0 0 0 0 0 0 0 0 
0 0 0 0 0 0 0 0 0 0 6.477377e-01 4.541222e+01 4.049801e+02 8.562033e+02 1.168981e+03 1.356890e+03 1.367794e+03 1.356890e+03 1.168981e+03 8.562033e+02 4.049801e+02 4.541222e+01 6.477377e-01 0 0 0 0 0 0 0 0 0 
0 0 0 0 0 0 0 0 0 6.226515e-01 7.333255e+01 3.813239e+02 9.794270e+02 1.216157e+03 1.011009e+03 8.470104e+02 7.626905e+02 8.470104e+02 1.011009e+03 1.216157e+03 9.794270e+02 3.813239e+02 7.333255e+01 6.226515e-01 0 0 0 0 0 0 0 0 
0 0 0 0 0 0 0 0 5.083234e-03 2.795311e+01 3.819012e+02 8.560645e+02 8.569289e+02 4.878422e+02 1.588803e+02 2.926132e+01 6.811229e+00 2.926132e+01 1.588803e+02 4.878422e+02 8.569289e+02 8.560645e+02 3.819012e+02 2.795311e+01 5.083234e-03 0 0 0 0 0 0 0 
0 0 0 0 0 0 0 0 2.009680e+00 1.508603e+02 6.653473e+02 7.981842e+02 3.125146e+02 3.101002e+01 1.828847e-01 0 0 0 1.828847e-01 3.101002e+01 3.125146e+02 7.981842e+02 6.653473e+02 1.508603e+02 2.009680e+00 0 0 0 0 0 0 0 
0 0 0 0 0 0 0 0 2.693677e+01 3.212053e+02 6.015788e+02 3.517622e+02 4.445196e+01 0 0 0 0 0 0 0 4.445196e+01 3.517622e+02 6.015788e+02 3.212053e+02 2.693677e+01 0 0 0 0 0 0 0 
0 0 0 0 0 0 0 1.433045e-02 8.079443e+01 3.886483e+02 3.960759e+02 8.892609e+01 7.184628e-01 0 0 0 0 0 0 0 7.184628e-01 8.892609e+01 3.960759e+02 3.886483e+02 8.079443e+01 1.433045e-02 0 0 0 0 0 0 
0 0 0 0 0 0 0 1.784842e+00 1.257177e+02 3.192191e+02 2.120025e+02 1.671626e+01 0 0 0 0 0 0 0 0 0 1.671626e+01 2.120025e+02 3.192191e+02 1.257177e+02 1.784842e+00 0 0 0 0 0 0 
0 0 0 0 0 0 0 5.836755e+00 1.483081e+02 2.395578e+02 9.829949e+01 1.213086e+00 0 0 0 0 0 0 0 0 0 1.213086e+00 9.829949e+01 2.395578e+02 1.483081e+02 5.836755e+00 0 0 0 0 0 0 
0 0 0 0 0 0 0 8.283291e+00 1.106237e+02 1.473346e+02 4.499421e+01 0 0 0 0 0 0 0 0 0 0 0 4.499421e+01 1.473346e+02 1.106237e+02 8.283291e+00 0 0 0 0 0 0 
0 0 0 0 0 0 0 9.661611e+00 6.947385e+01 7.576418e+01 1.595195e+01 0 0 0 0 0 0 0 0 0 0 0 1.595195e+01 7.576418e+01 6.947385e+01 9.661611e+00 0 0 0 0 0 0 
0 0 0 0 0 0 0 2.378609e-12 8.874842e-12 6.669959e-12 1.659786e-13 0 0 0 0 0 0 0 0 0 0 0 3.340630e-12 -6.550843e-12 -1.664786e-11 -6.748993e-12 0 0 0 0 0 0 
0 0 0 0 0 0 0 -9.661611e+00 -6.947385e+01 -7.576418e+01 -1.595195e+01 0 0 0 0 0 0 0 0 0 0 0 -1.595195e+01 -7.576418e+01 -6.947385e+01 -9.661611e+00 0 0 0 0 0 0 
0 0 0 0 0 0 0 -8.283291e+00 -1.106237e+02 -1.473346e+02 -4.499421e+01 0 0 0 0 0 0 0 0 0 0 0 -4.499421e+01 -1.473346e+02 -1.106237e+02 -8.283291e+00 0 0 0 0 0 0 
0 0 0 0 0 0 0 -5.836755e+00 -1.483081e+02 -2.395578e+02 -9.829949e+01 -1.213086e+00 0 0 0 0 0 0 0 0 0 -1.213086e+00 -9.829949e+01 -2.395578e+02 -1.483081e+02 -5.836755e+00 0 0 0 0 0 0 
0 0 0 0 0 0 0 -1.784842e+00 -1.257177e+02 -3.192191e+02 -2.120025e+02 -1.671626e+01 0 0 0 0 0 0 0 0 0 -1.671626e+01 -2.120025e+02 -3.192191e+02 -1.257177e+02 -1.784842e+00 0 0 0 0 0 0 
0 0 0 0 0 0 0 -1.433045e-02 -8.079443e+01 -3.886483e+02 -3.960759e+02 -8.892609e+01 -7.184628e-01 0 0 0 0 0 0 0 -7.184628e-01 -8.892609e+01 -3.960759e+02 -3.886483e+02 -8.079443e+01 -1.433045e-02 0 0 0 0 0 0 
0 0 0 0 0 0 0 0 -2.693677e+01 -3.212053e+02 -6.015788e+02 -3.517622e+02 -4.445196e+01 0 0 0 0 0 0 0 -4.445196e+01 -3.517622e+02 -6.015788e+02 -3.212053e+02 -2.693677e+01 0 0 0 0 0 0 0 
0 0 0 0 0 0 0 0 -2.009680e+00 -1.508603e+02 -6.653473e+02 -7.981842e+02 -3.125146e+02 -3.101002e+01 -1.828847e-01 0 0 0 -1.828847e-01 -3.101002e+01 -3.125146e+02 -7.981842e+02 -6.653473e+02 -1.508603e+02 -2.009680e+00 0 0 0 0 0 0 0 
0 0 0 0 0 0 0 0 -5.083234e-03 -2.795311e+01 -3.819012e+02 -8.560645e+02 -8.569289e+02 -4.878422e+02 -1.588803e+02 -2.926132e+01 -6.811229e+00 -2.926132e+01 -1.588803e+02 -4.878422e+02 -8.569289e+02 -8.560645e+02 -3.819012e+02 -2.795311e+01 -5.083234e-03 0 0 0 0 0 0 0 
0 0 0 0 0 0 0 0 0 -6.226515e-01 -7.333255e+01 -3.813239e+02 -9.794270e+02 -1.216157e+03 -1.011009e+03 -8.470104e+02 -7.626905e+02 -8.470104e+02 -1.011009e+03 -1.216157e+03 -9.794270e+02 -3.813239e+02 -7.333255e+01 -6.226515e-01 0 0 0 0 0 0 0 0 
0 0 0 0 0 0 0 0 0 0 -6.477377e-01 -4.541222e+01 -4.049801e+02 -8.562033e+02 -1.168981e+03 -1.356890e+03 -1.367794e+03 -1.356890e+03 -1.168981e+03 -8.562033e+02 -4.049801e+02 -4.541222e+01 -6.477377e-01 0 0 0 0 0 0 0 0 0 
0 0 0 0 0 0 0 0 0 0 0 -3.078472e-01 -1.370084e+01 -9.687833e+01 -3.166689e+02 -5.391410e+02 -6.119148e+02 -5.391410e+02 -3.166689e+02 -9.687833e+01 -1.370084e+01 -3.078472e-01 0 0 0 0 0 0 0 0 0 0 
0 0 0 0 0 0 0 0 0 0 0 0 0 0 0 0 0 0 0 0 0 0 0 0 0 0 0 0 0 0 0 0 
0 0 0 0 0 0 0 0 0 0 0 0 0 0 0 0 0 0 0 0 0 0 0 0 0 0 0 0 0 0 0 0 
0 0 0 0 0 0 0 0 0 0 0 0 0 0 0 0 0 0 0 0 0 0 0 0 0 0 0 0 0 0 0 0 
0 0 0 0 0 0 0 0 0 0 0 0 0 0 0 0 0 0 0 0 0 0 0 0 0 0 0 0 0 0 0 0 
