# vtk DataFile Version 2.0
Comment goes here
ASCII

DATASET STRUCTURED_POINTS
FIELD FieldData 1
TIME 1 1 double
0.70000000
DIMENSIONS    32   32   1

ORIGIN    0.000   0.000   0.000
SPACING   0.03125 0.03125   1.000

POINT_DATA   1024
SCALARS fY double
LOOKUP_TABLE default

0 0 0 0 0 0 0 0 0 0 0 0 0 0 0 0 0 0 0 0 0 0 0 0 0 0 0 0 0 0 0 0 
0 0 0 0 0 0 0 0 0 0 0 0 0 0 0 0 0 0 0 0 0 0 0 0 0 0 0 0 0 0 0 0 
0 0 0 0 0 0 0 0 0 0 0 0 0 0 0 0 0 0 0 0 0 0 0 0 0 0 0 0 0 0 0 0 
0 0 0 0 0 0 0 0 0 0 0 0 0 0 0 0 0 0 0 0 0 0 0 0 0 0 0 0 0 0 0 0 
0 0 0 0 0 0 0 0 0 0 0 0 0 0 0 0 0 0 0 0 0 0 0 0 0 0 0 0 0 0 0 0 
0 0 0 0 0 0 0 0 0 0 0 0 0 0 0 0 0 0 0 0 0 0 0 0 0 0 0 0 0 0 0 0 
0 0 0 0 0 0 0 0 0 0 0 0 0 0 0 0 0 0 0 0 0 0 0 0 0 0 0 0 0 0 0 0 
0 0 0 0 0 0 0 0 0 0 0 2.650075e-01 9.660324e+00 5.526626e+01 1.118299e+02 1.637434e+02 1.955690e+02 1.637434e+02 1.118299e+02 5.526626e+01 9.660324e+00 2.650075e-01 0 0 0 0 0 0 0 0 0 0 
0 0 0 0 0 0 0 0 0 8.737224e-01 1.906709e+01 1.697505e+02 3.638314e+02 5.599452e+02 6.739078e+02 7.091920e+02 7.659104e+02 7.091920e+02 6.739078e+02 5.599452e+02 3.638314e+02 1.697505e+02 1.906709e+01 8.737224e-01 0 0 0 0 0 0 0 0 
0 0 0 0 0 0 0 0 4.794037e+00 8.897124e+01 3.288850e+02 6.873028e+02 8.221706e+02 7.684382e+02 6.946603e+02 6.224296e+02 6.332638e+02 6.224296e+02 6.946603e+02 7.684382e+02 8.221706e+02 6.873028e+02 3.288850e+02 8.897124e+01 4.794037e+00 0 0 0 0 0 0 0 
0 0 0 0 0 0 0 3.889594e+00 1.397526e+02 5.170064e+02 7.682319e+02 7.116221e+02 5.034376e+02 2.659666e+02 1.325823e+02 7.698097e+01 6.292235e+01 7.698097e+01 1.325823e+02 2.659666e+02 5.034376e+02 7.116221e+02 7.682319e+02 5.170064e+02 1.397526e+02 3.889594e+00 0 0 0 0 0 0 
0 0 0 0 0 0 1.691150e-01 8.187515e+01 4.576289e+02 8.105675e+02 6.027396e+02 2.013257e+02 3.543816e+01 2.207425e+00 0 0 0 0 0 2.207425e+00 3.543816e+01 2.013257e+02 6.027396e+02 8.105675e+02 4.576289e+02 8.187515e+01 1.691150e-01 0 0 0 0 0 
0 0 0 0 0 0 1.280429e+01 2.583395e+02 6.495776e+02 5.466516e+02 1.501301e+02 7.520951e+00 0 0 0 0 0 0 0 0 0 7.520951e+00 1.501301e+02 5.466516e+02 6.495776e+02 2.583395e+02 1.280429e+01 0 0 0 0 0 
0 0 0 0 0 0 6.358074e+01 3.968690e+02 5.194607e+02 1.919980e+02 5.825647e+00 0 0 0 0 0 0 0 0 0 0 0 5.825647e+00 1.919980e+02 5.194607e+02 3.968690e+02 6.358074e+01 0 0 0 0 0 
0 0 0 0 0 6.557125e-02 8.977197e+01 3.164423e+02 2.575782e+02 3.086356e+01 2.117137e-02 0 0 0 0 0 0 0 0 0 0 0 2.117137e-02 3.086356e+01 2.575782e+02 3.164423e+02 8.977197e+01 6.557125e-02 0 0 0 0 
0 0 0 0 0 1.811363e-01 7.603864e+01 1.689519e+02 9.696642e+01 3.871987e+00 0 0 0 0 0 0 0 0 0 0 0 0 0 3.871987e+00 9.696642e+01 1.689519e+02 7.603864e+01 1.811363e-01 0 0 0 0 
0 0 0 0 0 -6.549342e-14 2.071088e-11 3.798495e-11 1.710581e-11 -9.183742e-14 0 0 0 0 0 0 0 0 0 0 0 0 0 -1.560384e-14 5.616801e-13 -1.268638e-11 -1.420105e-11 -9.370547e-13 0 0 0 0 
0 0 0 0 0 -1.811363e-01 -7.603864e+01 -1.689519e+02 -9.696642e+01 -3.871987e+00 0 0 0 0 0 0 0 0 0 0 0 0 0 -3.871987e+00 -9.696642e+01 -1.689519e+02 -7.603864e+01 -1.811363e-01 0 0 0 0 
0 0 0 0 0 -6.557125e-02 -8.977197e+01 -3.164423e+02 -2.575782e+02 -3.086356e+01 -2.117137e-02 0 0 0 0 0 0 0 0 0 0 0 -2.117137e-02 -3.086356e+01 -2.575782e+02 -3.164423e+02 -8.977197e+01 -6.557125e-02 0 0 0 0 
0 0 0 0 0 0 -6.358074e+01 -3.968690e+02 -5.194607e+02 -1.919980e+02 -5.825647e+00 0 0 0 0 0 0 0 0 0 0 0 -5.825647e+00 -1.919980e+02 -5.194607e+02 -3.968690e+02 -6.358074e+01 0 0 0 0 0 
0 0 0 0 0 0 -1.280429e+01 -2.583395e+02 -6.495776e+02 -5.466516e+02 -1.501301e+02 -7.520951e+00 0 0 0 0 0 0 0 0 0 -7.520951e+00 -1.501301e+02 -5.466516e+02 -6.495776e+02 -2.583395e+02 -1.280429e+01 0 0 0 0 0 
0 0 0 0 0 0 -1.691150e-01 -8.187515e+01 -4.576289e+02 -8.105675e+02 -6.027396e+02 -2.013257e+02 -3.543816e+01 -2.207425e+00 0 0 0 0 0 -2.207425e+00 -3.543816e+01 -2.013257e+02 -6.027396e+02 -8.105675e+02 -4.576289e+02 -8.187515e+01 -1.691150e-01 0 0 0 0 0 
0 0 0 0 0 0 0 -3.889594e+00 -1.397526e+02 -5.170064e+02 -7.682319e+02 -7.116221e+02 -5.034376e+02 -2.659666e+02 -1.325823e+02 -7.698097e+01 -6.292235e+01 -7.698097e+01 -1.325823e+02 -2.659666e+02 -5.034376e+02 -7.116221e+02 -7.682319e+02 -5.170064e+02 -1.397526e+02 -3.889594e+00 0 0 0 0 0 0 
0 0 0 0 0 0 0 0 -4.794037e+00 -8.897124e+01 -3.288850e+02 -6.873028e+02 -8.221706e+02 -7.684382e+02 -6.946603e+02 -6.224296e+02 -6.332638e+02 -6.224296e+02 -6.946603e+02 -7.684382e+02 -8.221706e+02 -6.873028e+02 -3.288850e+02 -8.897124e+01 -4.794037e+00 0 0 0 0 0 0 0 
0 0 0 0 0 0 0 0 0 -8.737224e-01 -1.906709e+01 -1.697505e+02 -3.638314e+02 -5.599452e+02 -6.739078e+02 -7.091920e+02 -7.659104e+02 -7.091920e+02 -6.739078e+02 -5.599452e+02 -3.638314e+02 -1.697505e+02 -1.906709e+01 -8.737224e-01 0 0 0 0 0 0 0 0 
0 0 0 0 0 0 0 0 0 0 0 -2.650075e-01 -9.660324e+00 -5.526626e+01 -1.118299e+02 -1.637434e+02 -1.955690e+02 -1.637434e+02 -1.118299e+02 -5.526626e+01 -9.660324e+00 -2.650075e-01 0 0 0 0 0 0 0 0 0 0 
0 0 0 0 0 0 0 0 0 0 0 0 0 0 0 0 0 0 0 0 0 0 0 0 0 0 0 0 0 0 0 0 
0 0 0 0 0 0 0 0 0 0 0 0 0 0 0 0 0 0 0 0 0 0 0 0 0 0 0 0 0 0 0 0 
0 0 0 0 0 0 0 0 0 0 0 0 0 0 0 0 0 0 0 0 0 0 0 0 0 0 0 0 0 0 0 0 
0 0 0 0 0 0 0 0 0 0 0 0 0 0 0 0 0 0 0 0 0 0 0 0 0 0 0 0 0 0 0 0 
0 0 0 0 0 0 0 0 0 0 0 0 0 0 0 0 0 0 0 0 0 0 0 0 0 0 0 0 0 0 0 0 
0 0 0 0 0 0 0 0 0 0 0 0 0 0 0 0 0 0 0 0 0 0 0 0 0 0 0 0 0 0 0 0 
