# vtk DataFile Version 2.0
Comment goes here
ASCII

DATASET STRUCTURED_POINTS
FIELD FieldData 1
TIME 1 1 double
0.98000000
DIMENSIONS    32   32   1

ORIGIN    0.000   0.000   0.000
SPACING   0.03125 0.03125   1.000

POINT_DATA   1024
SCALARS fY double
LOOKUP_TABLE default

0 0 0 0 0 0 0 0 0 0 0 0 0 0 0 0 0 0 0 0 0 0 0 0 0 0 0 0 0 0 0 0 
0 0 0 0 0 0 0 0 0 0 0 0 0 0 0 0 0 0 0 0 0 0 0 0 0 0 0 0 0 0 0 0 
0 0 0 0 0 0 0 0 0 0 0 0 0 0 0 0 0 0 0 0 0 0 0 0 0 0 0 0 0 0 0 0 
0 0 0 0 0 0 0 0 0 0 0 0 0 0 0 0 0 0 0 0 0 0 0 0 0 0 0 0 0 0 0 0 
0 0 0 0 0 0 0 0 0 0 0 0 0 0 0 0 0 0 0 0 0 0 0 0 0 0 0 0 0 0 0 0 
0 0 0 0 0 0 0 0 0 0 0 0 0 0 0 0 0 0 0 0 0 0 0 0 0 0 0 0 0 0 0 0 
0 0 0 0 0 0 0 0 0 0 0 0 0 0 2.730975e-01 1.537580e+00 2.528965e+00 1.537580e+00 2.730975e-01 0 0 0 0 0 0 0 0 0 0 0 0 0 
0 0 0 0 0 0 0 0 0 0 0 1.952331e-01 4.837542e+01 1.552921e+02 3.333550e+02 4.833064e+02 5.141266e+02 4.833064e+02 3.333550e+02 1.552921e+02 4.837542e+01 1.952331e-01 0 0 0 0 0 0 0 0 0 0 
0 0 0 0 0 0 0 0 0 0 1.175354e+01 1.244229e+02 4.567678e+02 7.939729e+02 9.418126e+02 9.666379e+02 9.493995e+02 9.666379e+02 9.418126e+02 7.939729e+02 4.567678e+02 1.244229e+02 1.175354e+01 0 0 0 0 0 0 0 0 0 
0 0 0 0 0 0 0 0 0 1.223468e+01 1.572301e+02 5.730562e+02 8.798289e+02 8.518382e+02 6.689061e+02 4.879511e+02 4.382301e+02 4.879511e+02 6.689061e+02 8.518382e+02 8.798289e+02 5.730562e+02 1.572301e+02 1.223468e+01 0 0 0 0 0 0 0 0 
0 0 0 0 0 0 0 0 6.730864e-01 8.489706e+01 4.603850e+02 7.793735e+02 5.660484e+02 2.201433e+02 6.017538e+01 3.082042e+00 4.282768e-01 3.082042e+00 6.017538e+01 2.201433e+02 5.660484e+02 7.793735e+02 4.603850e+02 8.489706e+01 6.730864e-01 0 0 0 0 0 0 0 
0 0 0 0 0 0 0 -1.660570e-03 5.372841e+01 3.078946e+02 5.631263e+02 4.005277e+02 9.855199e+01 6.986043e+00 0 0 0 0 0 6.986043e+00 9.855199e+01 4.005277e+02 5.631263e+02 3.078946e+02 5.372841e+01 -1.660570e-03 0 0 0 0 0 0 
0 0 0 0 0 0 0 9.822501e-01 9.930123e+01 4.731837e+02 4.626491e+02 9.172455e+01 3.940100e+00 0 0 0 0 0 0 0 3.940100e+00 9.172455e+01 4.626491e+02 4.731837e+02 9.930123e+01 9.822501e-01 0 0 0 0 0 0 
0 0 0 0 0 0 0 1.036088e+01 1.488727e+02 3.593734e+02 2.433977e+02 2.253610e+01 0 0 0 0 0 0 0 0 0 2.253610e+01 2.433977e+02 3.593734e+02 1.488727e+02 1.036088e+01 0 0 0 0 0 0 
0 0 0 0 0 0 0 1.390839e+01 1.487562e+02 1.798719e+02 4.581844e+01 7.943175e-01 0 0 0 0 0 0 0 0 0 7.943175e-01 4.581844e+01 1.798719e+02 1.487562e+02 1.390839e+01 0 0 0 0 0 0 
0 0 0 0 0 0 0 1.814866e+01 1.138631e+02 1.215298e+02 2.581537e+01 0 0 0 0 0 0 0 0 0 0 0 2.581537e+01 1.215298e+02 1.138631e+02 1.814866e+01 0 0 0 0 0 0 
0 0 0 0 0 0 0 4.071410e-12 1.440132e-11 1.083628e-11 4.856560e-13 0 0 0 0 0 0 0 0 0 0 0 -2.688960e-12 -6.586731e-12 -2.874597e-12 1.021735e-12 0 0 0 0 0 0 
0 0 0 0 0 0 0 -1.814866e+01 -1.138631e+02 -1.215298e+02 -2.581537e+01 0 0 0 0 0 0 0 0 0 0 0 -2.581537e+01 -1.215298e+02 -1.138631e+02 -1.814866e+01 0 0 0 0 0 0 
0 0 0 0 0 0 0 -1.390839e+01 -1.487562e+02 -1.798719e+02 -4.581844e+01 -7.943175e-01 0 0 0 0 0 0 0 0 0 -7.943175e-01 -4.581844e+01 -1.798719e+02 -1.487562e+02 -1.390839e+01 0 0 0 0 0 0 
0 0 0 0 0 0 0 -1.036088e+01 -1.488727e+02 -3.593734e+02 -2.433977e+02 -2.253610e+01 0 0 0 0 0 0 0 0 0 -2.253610e+01 -2.433977e+02 -3.593734e+02 -1.488727e+02 -1.036088e+01 0 0 0 0 0 0 
0 0 0 0 0 0 0 -9.822501e-01 -9.930123e+01 -4.731837e+02 -4.626491e+02 -9.172455e+01 -3.940100e+00 0 0 0 0 0 0 0 -3.940100e+00 -9.172455e+01 -4.626491e+02 -4.731837e+02 -9.930123e+01 -9.822501e-01 0 0 0 0 0 0 
0 0 0 0 0 0 0 1.660570e-03 -5.372841e+01 -3.078946e+02 -5.631263e+02 -4.005277e+02 -9.855199e+01 -6.986043e+00 0 0 0 0 0 -6.986043e+00 -9.855199e+01 -4.005277e+02 -5.631263e+02 -3.078946e+02 -5.372841e+01 1.660570e-03 0 0 0 0 0 0 
0 0 0 0 0 0 0 0 -6.730864e-01 -8.489706e+01 -4.603850e+02 -7.793735e+02 -5.660484e+02 -2.201433e+02 -6.017538e+01 -3.082042e+00 -4.282768e-01 -3.082042e+00 -6.017538e+01 -2.201433e+02 -5.660484e+02 -7.793735e+02 -4.603850e+02 -8.489706e+01 -6.730864e-01 0 0 0 0 0 0 0 
0 0 0 0 0 0 0 0 0 -1.223468e+01 -1.572301e+02 -5.730562e+02 -8.798289e+02 -8.518382e+02 -6.689061e+02 -4.879511e+02 -4.382301e+02 -4.879511e+02 -6.689061e+02 -8.518382e+02 -8.798289e+02 -5.730562e+02 -1.572301e+02 -1.223468e+01 0 0 0 0 0 0 0 0 
0 0 0 0 0 0 0 0 0 0 -1.175354e+01 -1.244229e+02 -4.567678e+02 -7.939729e+02 -9.418126e+02 -9.666379e+02 -9.493995e+02 -9.666379e+02 -9.418126e+02 -7.939729e+02 -4.567678e+02 -1.244229e+02 -1.175354e+01 0 0 0 0 0 0 0 0 0 
0 0 0 0 0 0 0 0 0 0 0 -1.952331e-01 -4.837542e+01 -1.552921e+02 -3.333550e+02 -4.833064e+02 -5.141266e+02 -4.833064e+02 -3.333550e+02 -1.552921e+02 -4.837542e+01 -1.952331e-01 0 0 0 0 0 0 0 0 0 0 
0 0 0 0 0 0 0 0 0 0 0 0 0 0 -2.730975e-01 -1.537580e+00 -2.528965e+00 -1.537580e+00 -2.730975e-01 0 0 0 0 0 0 0 0 0 0 0 0 0 
0 0 0 0 0 0 0 0 0 0 0 0 0 0 0 0 0 0 0 0 0 0 0 0 0 0 0 0 0 0 0 0 
0 0 0 0 0 0 0 0 0 0 0 0 0 0 0 0 0 0 0 0 0 0 0 0 0 0 0 0 0 0 0 0 
0 0 0 0 0 0 0 0 0 0 0 0 0 0 0 0 0 0 0 0 0 0 0 0 0 0 0 0 0 0 0 0 
0 0 0 0 0 0 0 0 0 0 0 0 0 0 0 0 0 0 0 0 0 0 0 0 0 0 0 0 0 0 0 0 
0 0 0 0 0 0 0 0 0 0 0 0 0 0 0 0 0 0 0 0 0 0 0 0 0 0 0 0 0 0 0 0 
