# vtk DataFile Version 2.0
Comment goes here
ASCII

DATASET STRUCTURED_POINTS
FIELD FieldData 1
TIME 1 1 double
0.48000000
DIMENSIONS    32   32   1

ORIGIN    0.000   0.000   0.000
SPACING   0.03125 0.03125   1.000

POINT_DATA   1024
SCALARS fY double
LOOKUP_TABLE default

0 0 0 0 0 0 0 0 0 0 0 0 0 0 0 0 0 0 0 0 0 0 0 0 0 0 0 0 0 0 0 0 
0 0 0 0 0 0 0 0 0 0 0 0 0 0 0 0 0 0 0 0 0 0 0 0 0 0 0 0 0 0 0 0 
0 0 0 0 0 0 0 0 0 0 0 0 0 0 0 0 0 0 0 0 0 0 0 0 0 0 0 0 0 0 0 0 
0 0 0 0 0 0 0 0 0 0 0 0 0 0 0 0 0 0 0 0 0 0 0 0 0 0 0 0 0 0 0 0 
0 0 0 0 0 0 0 0 0 0 0 0 0 1.155995e-01 7.961037e+00 3.786442e+01 6.003796e+01 3.786442e+01 7.961037e+00 1.155995e-01 0 0 0 0 0 0 0 0 0 0 0 0 
0 0 0 0 0 0 0 0 0 0 0 1.580320e+00 5.029951e+01 2.614839e+02 6.231484e+02 9.436169e+02 1.066467e+03 9.436169e+02 6.231484e+02 2.614839e+02 5.029951e+01 1.580320e+00 0 0 0 0 0 0 0 0 0 0 
0 0 0 0 0 0 0 0 0 0 1.982761e+00 9.016160e+01 5.274805e+02 1.124980e+03 1.427558e+03 1.487518e+03 1.491275e+03 1.487518e+03 1.427558e+03 1.124980e+03 5.274805e+02 9.016160e+01 1.982761e+00 0 0 0 0 0 0 0 0 0 
0 0 0 0 0 0 0 0 0 8.819968e-01 8.137653e+01 4.713460e+02 1.052675e+03 1.199770e+03 8.818520e+02 5.863291e+02 4.848466e+02 5.863291e+02 8.818520e+02 1.199770e+03 1.052675e+03 4.713460e+02 8.137653e+01 8.819968e-01 0 0 0 0 0 0 0 0 
0 0 0 0 0 0 0 0 7.950756e-04 2.458888e+01 3.464928e+02 8.172594e+02 7.857042e+02 3.553012e+02 6.951571e+01 4.564022e+00 0 4.564022e+00 6.951571e+01 3.553012e+02 7.857042e+02 8.172594e+02 3.464928e+02 2.458888e+01 7.950756e-04 0 0 0 0 0 0 0 
0 0 0 0 0 0 0 0 8.598312e-01 1.198067e+02 5.542278e+02 6.590953e+02 2.429223e+02 1.914241e+01 3.449186e-02 0 0 0 3.449186e-02 1.914241e+01 2.429223e+02 6.590953e+02 5.542278e+02 1.198067e+02 8.598312e-01 0 0 0 0 0 0 0 
0 0 0 0 0 0 0 0 1.571168e+01 2.459976e+02 4.885484e+02 2.915367e+02 3.327419e+01 0 0 0 0 0 0 0 3.327419e+01 2.915367e+02 4.885484e+02 2.459976e+02 1.571168e+01 0 0 0 0 0 0 0 
0 0 0 0 0 0 0 0 4.923426e+01 2.974098e+02 3.323856e+02 8.477166e+01 5.616103e-01 0 0 0 0 0 0 0 5.616103e-01 8.477166e+01 3.323856e+02 2.974098e+02 4.923426e+01 0 0 0 0 0 0 0 
0 0 0 0 0 0 0 3.224789e-01 6.932201e+01 2.259972e+02 1.769440e+02 1.994641e+01 0 0 0 0 0 0 0 0 0 1.994641e+01 1.769440e+02 2.259972e+02 6.932201e+01 3.224789e-01 0 0 0 0 0 0 
0 0 0 0 0 0 0 6.666878e-01 8.239821e+01 1.606503e+02 8.104391e+01 2.125123e+00 0 0 0 0 0 0 0 0 0 2.125123e+00 8.104391e+01 1.606503e+02 8.239821e+01 6.666878e-01 0 0 0 0 0 0 
0 0 0 0 0 0 0 3.125999e-01 4.587110e+01 8.025302e+01 3.470878e+01 1.426463e-02 0 0 0 0 0 0 0 0 0 1.426463e-02 3.470878e+01 8.025302e+01 4.587110e+01 3.125999e-01 0 0 0 0 0 0 
0 0 0 0 0 0 0 1.369832e+00 1.562085e+01 2.000372e+01 5.752703e+00 0 0 0 0 0 0 0 0 0 0 0 5.752703e+00 2.000372e+01 1.562085e+01 1.369832e+00 0 0 0 0 0 0 
0 0 0 0 0 0 0 7.631742e-13 -1.921600e-12 -5.903292e-12 -3.219035e-12 0 0 0 0 0 0 0 0 0 0 0 1.337469e-11 3.618150e-11 2.276095e-11 -4.853994e-14 0 0 0 0 0 0 
0 0 0 0 0 0 0 -1.369832e+00 -1.562085e+01 -2.000372e+01 -5.752703e+00 0 0 0 0 0 0 0 0 0 0 0 -5.752703e+00 -2.000372e+01 -1.562085e+01 -1.369832e+00 0 0 0 0 0 0 
0 0 0 0 0 0 0 -3.125999e-01 -4.587110e+01 -8.025302e+01 -3.470878e+01 -1.426463e-02 0 0 0 0 0 0 0 0 0 -1.426463e-02 -3.470878e+01 -8.025302e+01 -4.587110e+01 -3.125999e-01 0 0 0 0 0 0 
0 0 0 0 0 0 0 -6.666878e-01 -8.239821e+01 -1.606503e+02 -8.104391e+01 -2.125123e+00 0 0 0 0 0 0 0 0 0 -2.125123e+00 -8.104391e+01 -1.606503e+02 -8.239821e+01 -6.666878e-01 0 0 0 0 0 0 
0 0 0 0 0 0 0 -3.224789e-01 -6.932201e+01 -2.259972e+02 -1.769440e+02 -1.994641e+01 0 0 0 0 0 0 0 0 0 -1.994641e+01 -1.769440e+02 -2.259972e+02 -6.932201e+01 -3.224789e-01 0 0 0 0 0 0 
0 0 0 0 0 0 0 0 -4.923426e+01 -2.974098e+02 -3.323856e+02 -8.477166e+01 -5.616103e-01 0 0 0 0 0 0 0 -5.616103e-01 -8.477166e+01 -3.323856e+02 -2.974098e+02 -4.923426e+01 0 0 0 0 0 0 0 
0 0 0 0 0 0 0 0 -1.571168e+01 -2.459976e+02 -4.885484e+02 -2.915367e+02 -3.327419e+01 0 0 0 0 0 0 0 -3.327419e+01 -2.915367e+02 -4.885484e+02 -2.459976e+02 -1.571168e+01 0 0 0 0 0 0 0 
0 0 0 0 0 0 0 0 -8.598312e-01 -1.198067e+02 -5.542278e+02 -6.590953e+02 -2.429223e+02 -1.914241e+01 -3.449186e-02 0 0 0 -3.449186e-02 -1.914241e+01 -2.429223e+02 -6.590953e+02 -5.542278e+02 -1.198067e+02 -8.598312e-01 0 0 0 0 0 0 0 
0 0 0 0 0 0 0 0 -7.950756e-04 -2.458888e+01 -3.464928e+02 -8.172594e+02 -7.857042e+02 -3.553012e+02 -6.951571e+01 -4.564022e+00 0 -4.564022e+00 -6.951571e+01 -3.553012e+02 -7.857042e+02 -8.172594e+02 -3.464928e+02 -2.458888e+01 -7.950756e-04 0 0 0 0 0 0 0 
0 0 0 0 0 0 0 0 0 -8.819968e-01 -8.137653e+01 -4.713460e+02 -1.052675e+03 -1.199770e+03 -8.818520e+02 -5.863291e+02 -4.848466e+02 -5.863291e+02 -8.818520e+02 -1.199770e+03 -1.052675e+03 -4.713460e+02 -8.137653e+01 -8.819968e-01 0 0 0 0 0 0 0 0 
0 0 0 0 0 0 0 0 0 0 -1.982761e+00 -9.016160e+01 -5.274805e+02 -1.124980e+03 -1.427558e+03 -1.487518e+03 -1.491275e+03 -1.487518e+03 -1.427558e+03 -1.124980e+03 -5.274805e+02 -9.016160e+01 -1.982761e+00 0 0 0 0 0 0 0 0 0 
0 0 0 0 0 0 0 0 0 0 0 -1.580320e+00 -5.029951e+01 -2.614839e+02 -6.231484e+02 -9.436169e+02 -1.066467e+03 -9.436169e+02 -6.231484e+02 -2.614839e+02 -5.029951e+01 -1.580320e+00 0 0 0 0 0 0 0 0 0 0 
0 0 0 0 0 0 0 0 0 0 0 0 0 -1.155995e-01 -7.961037e+00 -3.786442e+01 -6.003796e+01 -3.786442e+01 -7.961037e+00 -1.155995e-01 0 0 0 0 0 0 0 0 0 0 0 0 
0 0 0 0 0 0 0 0 0 0 0 0 0 0 0 0 0 0 0 0 0 0 0 0 0 0 0 0 0 0 0 0 
0 0 0 0 0 0 0 0 0 0 0 0 0 0 0 0 0 0 0 0 0 0 0 0 0 0 0 0 0 0 0 0 
0 0 0 0 0 0 0 0 0 0 0 0 0 0 0 0 0 0 0 0 0 0 0 0 0 0 0 0 0 0 0 0 
