# vtk DataFile Version 2.0
Comment goes here
ASCII

DATASET STRUCTURED_POINTS
FIELD FieldData 1
TIME 1 1 double
1.02000000
DIMENSIONS    32   32   1

ORIGIN    0.000   0.000   0.000
SPACING   0.03125 0.03125   1.000

POINT_DATA   1024
SCALARS fY double
LOOKUP_TABLE default

0 0 0 0 0 0 0 0 0 0 0 0 0 0 0 0 0 0 0 0 0 0 0 0 0 0 0 0 0 0 0 0 
0 0 0 0 0 0 0 0 0 0 0 0 0 0 0 0 0 0 0 0 0 0 0 0 0 0 0 0 0 0 0 0 
0 0 0 0 0 0 0 0 0 0 0 0 0 0 0 0 0 0 0 0 0 0 0 0 0 0 0 0 0 0 0 0 
0 0 0 0 0 0 0 0 0 0 0 0 0 0 0 0 0 0 0 0 0 0 0 0 0 0 0 0 0 0 0 0 
0 0 0 0 0 0 0 0 0 0 0 0 0 0 0 0 0 0 0 0 0 0 0 0 0 0 0 0 0 0 0 0 
0 0 0 0 0 0 0 0 0 0 0 0 0 0 0 0 0 0 0 0 0 0 0 0 0 0 0 0 0 0 0 0 
0 0 0 0 0 0 0 0 0 0 0 0 0 0 0 0 0 0 0 0 0 0 0 0 0 0 0 0 0 0 0 0 
0 0 0 0 0 0 0 0 0 0 0 0 0 0 2.710733e-01 1.254225e+00 1.966304e+00 1.254225e+00 2.710733e-01 0 0 0 0 0 0 0 0 0 0 0 0 0 
0 0 0 0 0 0 0 0 0 0 3.811682e-02 8.104126e-01 8.291306e+01 1.858446e+02 2.958763e+02 3.868969e+02 3.894487e+02 3.868969e+02 2.958763e+02 1.858446e+02 8.291306e+01 8.104126e-01 3.811682e-02 0 0 0 0 0 0 0 0 0 
0 0 0 0 0 0 0 0 0 5.046138e+00 8.017107e+01 2.395936e+02 5.298219e+02 7.154762e+02 7.429499e+02 7.490925e+02 7.125313e+02 7.490925e+02 7.429499e+02 7.154762e+02 5.298219e+02 2.395936e+02 8.017107e+01 5.046138e+00 0 0 0 0 0 0 0 0 
0 0 0 0 0 0 0 0 1.052378e+01 1.513132e+02 4.873669e+02 6.995705e+02 6.911308e+02 6.090902e+02 4.723710e+02 3.639853e+02 3.251333e+02 3.639853e+02 4.723710e+02 6.090902e+02 6.911308e+02 6.995705e+02 4.873669e+02 1.513132e+02 1.052378e+01 0 0 0 0 0 0 0 
0 0 0 0 0 0 0 9.103493e+00 1.173932e+02 4.685691e+02 7.455398e+02 5.829041e+02 2.525692e+02 7.945860e+01 2.502641e+01 5.355090e-01 8.447892e-02 5.355090e-01 2.502641e+01 7.945860e+01 2.525692e+02 5.829041e+02 7.455398e+02 4.685691e+02 1.173932e+02 9.103493e+00 0 0 0 0 0 0 
0 0 0 0 0 0 1.059370e-01 3.561033e+01 3.561029e+02 6.328566e+02 4.296997e+02 1.257888e+02 8.347125e+00 0 0 0 0 0 0 0 8.347125e+00 1.257888e+02 4.296997e+02 6.328566e+02 3.561029e+02 3.561033e+01 1.059370e-01 0 0 0 0 0 
0 0 0 0 0 0 1.230633e+00 1.803685e+02 5.218442e+02 4.394717e+02 1.004374e+02 3.671923e+00 0 0 0 0 0 0 0 0 0 3.671923e+00 1.004374e+02 4.394717e+02 5.218442e+02 1.803685e+02 1.230633e+00 0 0 0 0 0 
0 0 0 0 0 0 1.022347e+00 2.210676e+02 3.952577e+02 1.842157e+02 9.003289e+00 0 0 0 0 0 0 0 0 0 0 0 9.003289e+00 1.842157e+02 3.952577e+02 2.210676e+02 1.022347e+00 0 0 0 0 0 
0 0 0 0 0 0 3.208241e+00 8.753479e+01 1.432435e+02 5.887667e+01 -4.029031e-02 0 0 0 0 0 0 0 0 0 0 0 -4.029031e-02 5.887667e+01 1.432435e+02 8.753479e+01 3.208241e+00 0 0 0 0 0 
0 0 0 0 0 0 8.436141e-12 5.003820e-11 5.015889e-11 8.557822e-12 0 0 0 0 0 0 0 0 0 0 0 0 0 -1.738831e-11 -9.175712e-11 -8.915760e-11 -1.478850e-11 0 0 0 0 0 
0 0 0 0 0 0 -3.208241e+00 -8.753479e+01 -1.432435e+02 -5.887667e+01 4.029031e-02 0 0 0 0 0 0 0 0 0 0 0 4.029031e-02 -5.887667e+01 -1.432435e+02 -8.753479e+01 -3.208241e+00 0 0 0 0 0 
0 0 0 0 0 0 -1.022347e+00 -2.210676e+02 -3.952577e+02 -1.842157e+02 -9.003289e+00 0 0 0 0 0 0 0 0 0 0 0 -9.003289e+00 -1.842157e+02 -3.952577e+02 -2.210676e+02 -1.022347e+00 0 0 0 0 0 
0 0 0 0 0 0 -1.230633e+00 -1.803685e+02 -5.218442e+02 -4.394717e+02 -1.004374e+02 -3.671923e+00 0 0 0 0 0 0 0 0 0 -3.671923e+00 -1.004374e+02 -4.394717e+02 -5.218442e+02 -1.803685e+02 -1.230633e+00 0 0 0 0 0 
0 0 0 0 0 0 -1.059370e-01 -3.561033e+01 -3.561029e+02 -6.328566e+02 -4.296997e+02 -1.257888e+02 -8.347125e+00 0 0 0 0 0 0 0 -8.347125e+00 -1.257888e+02 -4.296997e+02 -6.328566e+02 -3.561029e+02 -3.561033e+01 -1.059370e-01 0 0 0 0 0 
0 0 0 0 0 0 0 -9.103493e+00 -1.173932e+02 -4.685691e+02 -7.455398e+02 -5.829041e+02 -2.525692e+02 -7.945860e+01 -2.502641e+01 -5.355090e-01 -8.447892e-02 -5.355090e-01 -2.502641e+01 -7.945860e+01 -2.525692e+02 -5.829041e+02 -7.455398e+02 -4.685691e+02 -1.173932e+02 -9.103493e+00 0 0 0 0 0 0 
0 0 0 0 0 0 0 0 -1.052378e+01 -1.513132e+02 -4.873669e+02 -6.995705e+02 -6.911308e+02 -6.090902e+02 -4.723710e+02 -3.639853e+02 -3.251333e+02 -3.639853e+02 -4.723710e+02 -6.090902e+02 -6.911308e+02 -6.995705e+02 -4.873669e+02 -1.513132e+02 -1.052378e+01 0 0 0 0 0 0 0 
0 0 0 0 0 0 0 0 0 -5.046138e+00 -8.017107e+01 -2.395936e+02 -5.298219e+02 -7.154762e+02 -7.429499e+02 -7.490925e+02 -7.125313e+02 -7.490925e+02 -7.429499e+02 -7.154762e+02 -5.298219e+02 -2.395936e+02 -8.017107e+01 -5.046138e+00 0 0 0 0 0 0 0 0 
0 0 0 0 0 0 0 0 0 0 -3.811682e-02 -8.104126e-01 -8.291306e+01 -1.858446e+02 -2.958763e+02 -3.868969e+02 -3.894487e+02 -3.868969e+02 -2.958763e+02 -1.858446e+02 -8.291306e+01 -8.104126e-01 -3.811682e-02 0 0 0 0 0 0 0 0 0 
0 0 0 0 0 0 0 0 0 0 0 0 0 0 -2.710733e-01 -1.254225e+00 -1.966304e+00 -1.254225e+00 -2.710733e-01 0 0 0 0 0 0 0 0 0 0 0 0 0 
0 0 0 0 0 0 0 0 0 0 0 0 0 0 0 0 0 0 0 0 0 0 0 0 0 0 0 0 0 0 0 0 
0 0 0 0 0 0 0 0 0 0 0 0 0 0 0 0 0 0 0 0 0 0 0 0 0 0 0 0 0 0 0 0 
0 0 0 0 0 0 0 0 0 0 0 0 0 0 0 0 0 0 0 0 0 0 0 0 0 0 0 0 0 0 0 0 
0 0 0 0 0 0 0 0 0 0 0 0 0 0 0 0 0 0 0 0 0 0 0 0 0 0 0 0 0 0 0 0 
0 0 0 0 0 0 0 0 0 0 0 0 0 0 0 0 0 0 0 0 0 0 0 0 0 0 0 0 0 0 0 0 
0 0 0 0 0 0 0 0 0 0 0 0 0 0 0 0 0 0 0 0 0 0 0 0 0 0 0 0 0 0 0 0 
