# vtk DataFile Version 2.0
Comment goes here
ASCII

DATASET STRUCTURED_POINTS
FIELD FieldData 1
TIME 1 1 double
1.32000000
DIMENSIONS    32   32   1

ORIGIN    0.000   0.000   0.000
SPACING   0.03125 0.03125   1.000

POINT_DATA   1024
SCALARS fY double
LOOKUP_TABLE default

0 0 0 0 0 0 0 0 0 0 0 0 0 0 0 0 0 0 0 0 0 0 0 0 0 0 0 0 0 0 0 0 
0 0 0 0 0 0 0 0 0 0 0 0 0 0 0 0 0 0 0 0 0 0 0 0 0 0 0 0 0 0 0 0 
0 0 0 0 0 0 0 0 0 0 0 0 0 0 0 0 0 0 0 0 0 0 0 0 0 0 0 0 0 0 0 0 
0 0 0 0 0 0 0 0 0 0 0 0 0 0 0 0 0 0 0 0 0 0 0 0 0 0 0 0 0 0 0 0 
0 0 0 0 0 0 0 0 0 0 0 0 0 0 0 0 0 0 0 0 0 0 0 0 0 0 0 0 0 0 0 0 
0 0 0 0 0 0 0 0 0 0 0 0 0 0 0 0 0 0 0 0 0 0 0 0 0 0 0 0 0 0 0 0 
0 0 0 0 0 0 0 0 0 0 0 0 0 0 0 0 0 0 0 0 0 0 0 0 0 0 0 0 0 0 0 0 
0 0 0 0 0 0 0 0 0 0 0 0 0 0 0 0 0 0 0 0 0 0 0 0 0 0 0 0 0 0 0 0 
0 0 0 0 0 0 0 0 0 0 0 -1.700946e-02 2.078693e+01 5.598319e+01 1.361333e+02 2.099086e+02 2.179091e+02 2.099086e+02 1.361333e+02 5.598319e+01 2.078693e+01 -1.700946e-02 0 0 0 0 0 0 0 0 0 0 
0 0 0 0 0 0 0 0 0 0 2.524236e+00 8.938311e+01 3.203463e+02 5.413526e+02 6.637920e+02 7.202355e+02 7.286173e+02 7.202355e+02 6.637920e+02 5.413526e+02 3.203463e+02 8.938311e+01 2.524236e+00 0 0 0 0 0 0 0 0 0 
0 0 0 0 0 0 0 0 0 2.124598e+01 1.315744e+02 4.323460e+02 7.091777e+02 7.466544e+02 6.356081e+02 5.505776e+02 5.489274e+02 5.505776e+02 6.356081e+02 7.466544e+02 7.091777e+02 4.323460e+02 1.315744e+02 2.124598e+01 0 0 0 0 0 0 0 0 
0 0 0 0 0 0 0 0 1.281197e+01 1.469915e+02 4.882083e+02 6.474708e+02 4.764622e+02 2.698286e+02 1.079494e+02 4.025063e+01 3.821918e+01 4.025063e+01 1.079494e+02 2.698286e+02 4.764622e+02 6.474708e+02 4.882083e+02 1.469915e+02 1.281197e+01 0 0 0 0 0 0 0 
0 0 0 0 0 0 0 -5.402893e-01 4.480779e+01 4.194989e+02 6.811299e+02 3.671783e+02 6.874278e+01 8.543615e+00 0 0 0 0 0 8.543615e+00 6.874278e+01 3.671783e+02 6.811299e+02 4.194989e+02 4.480779e+01 -5.402893e-01 0 0 0 0 0 0 
0 0 0 0 0 0 0 2.022084e+01 1.570471e+02 4.507088e+02 3.849919e+02 7.300820e+01 1.898878e+00 0 0 0 0 0 0 0 1.898878e+00 7.300820e+01 3.849919e+02 4.507088e+02 1.570471e+02 2.022084e+01 0 0 0 0 0 0 
0 0 0 0 0 0 0 1.457656e+01 1.969015e+02 2.827921e+02 1.108221e+02 1.035486e+01 0 0 0 0 0 0 0 0 0 1.035486e+01 1.108221e+02 2.827921e+02 1.969015e+02 1.457656e+01 0 0 0 0 0 0 
0 0 0 0 0 0 0 4.444823e+00 1.032170e+02 1.459469e+02 4.717474e+01 0 0 0 0 0 0 0 0 0 0 0 4.717474e+01 1.459469e+02 1.032170e+02 4.444823e+00 0 0 0 0 0 0 
0 0 0 0 0 0 0 2.018989e-10 1.290642e-10 -2.299982e-10 -1.571572e-10 0 0 0 0 0 0 0 0 0 0 0 9.652013e-11 1.767688e-10 -4.131673e-11 -1.215538e-10 0 0 0 0 0 0 
0 0 0 0 0 0 0 -4.444823e+00 -1.032170e+02 -1.459469e+02 -4.717474e+01 0 0 0 0 0 0 0 0 0 0 0 -4.717474e+01 -1.459469e+02 -1.032170e+02 -4.444823e+00 0 0 0 0 0 0 
0 0 0 0 0 0 0 -1.457656e+01 -1.969015e+02 -2.827921e+02 -1.108221e+02 -1.035486e+01 0 0 0 0 0 0 0 0 0 -1.035486e+01 -1.108221e+02 -2.827921e+02 -1.969015e+02 -1.457656e+01 0 0 0 0 0 0 
0 0 0 0 0 0 0 -2.022084e+01 -1.570471e+02 -4.507088e+02 -3.849919e+02 -7.300820e+01 -1.898878e+00 0 0 0 0 0 0 0 -1.898878e+00 -7.300820e+01 -3.849919e+02 -4.507088e+02 -1.570471e+02 -2.022084e+01 0 0 0 0 0 0 
0 0 0 0 0 0 0 5.402893e-01 -4.480779e+01 -4.194989e+02 -6.811299e+02 -3.671783e+02 -6.874278e+01 -8.543615e+00 0 0 0 0 0 -8.543615e+00 -6.874278e+01 -3.671783e+02 -6.811299e+02 -4.194989e+02 -4.480779e+01 5.402893e-01 0 0 0 0 0 0 
0 0 0 0 0 0 0 0 -1.281197e+01 -1.469915e+02 -4.882083e+02 -6.474708e+02 -4.764622e+02 -2.698286e+02 -1.079494e+02 -4.025063e+01 -3.821918e+01 -4.025063e+01 -1.079494e+02 -2.698286e+02 -4.764622e+02 -6.474708e+02 -4.882083e+02 -1.469915e+02 -1.281197e+01 0 0 0 0 0 0 0 
0 0 0 0 0 0 0 0 0 -2.124598e+01 -1.315744e+02 -4.323460e+02 -7.091777e+02 -7.466544e+02 -6.356081e+02 -5.505776e+02 -5.489274e+02 -5.505776e+02 -6.356081e+02 -7.466544e+02 -7.091777e+02 -4.323460e+02 -1.315744e+02 -2.124598e+01 0 0 0 0 0 0 0 0 
0 0 0 0 0 0 0 0 0 0 -2.524236e+00 -8.938311e+01 -3.203463e+02 -5.413526e+02 -6.637920e+02 -7.202355e+02 -7.286173e+02 -7.202355e+02 -6.637920e+02 -5.413526e+02 -3.203463e+02 -8.938311e+01 -2.524236e+00 0 0 0 0 0 0 0 0 0 
0 0 0 0 0 0 0 0 0 0 0 1.700946e-02 -2.078693e+01 -5.598319e+01 -1.361333e+02 -2.099086e+02 -2.179091e+02 -2.099086e+02 -1.361333e+02 -5.598319e+01 -2.078693e+01 1.700946e-02 0 0 0 0 0 0 0 0 0 0 
0 0 0 0 0 0 0 0 0 0 0 0 0 0 0 0 0 0 0 0 0 0 0 0 0 0 0 0 0 0 0 0 
0 0 0 0 0 0 0 0 0 0 0 0 0 0 0 0 0 0 0 0 0 0 0 0 0 0 0 0 0 0 0 0 
0 0 0 0 0 0 0 0 0 0 0 0 0 0 0 0 0 0 0 0 0 0 0 0 0 0 0 0 0 0 0 0 
0 0 0 0 0 0 0 0 0 0 0 0 0 0 0 0 0 0 0 0 0 0 0 0 0 0 0 0 0 0 0 0 
0 0 0 0 0 0 0 0 0 0 0 0 0 0 0 0 0 0 0 0 0 0 0 0 0 0 0 0 0 0 0 0 
0 0 0 0 0 0 0 0 0 0 0 0 0 0 0 0 0 0 0 0 0 0 0 0 0 0 0 0 0 0 0 0 
0 0 0 0 0 0 0 0 0 0 0 0 0 0 0 0 0 0 0 0 0 0 0 0 0 0 0 0 0 0 0 0 
