# vtk DataFile Version 2.0
Comment goes here
ASCII

DATASET STRUCTURED_POINTS
FIELD FieldData 1
TIME 1 1 double
0.30000000
DIMENSIONS    32   32   1

ORIGIN    0.000   0.000   0.000
SPACING   0.03125 0.03125   1.000

POINT_DATA   1024
SCALARS fY double
LOOKUP_TABLE default

0 0 0 0 0 0 0 0 0 0 0 0 0 0 0 0 0 0 0 0 0 0 0 0 0 0 0 0 0 0 0 0 
0 0 0 0 0 0 0 0 0 0 0 0 0 0 0 0 0 0 0 0 0 0 0 0 0 0 0 0 0 0 0 0 
0 0 0 0 0 0 0 0 0 0 0 0 0 0 0 0 0 0 0 0 0 0 0 0 0 0 0 0 0 0 0 0 
0 0 0 0 0 0 0 0 0 0 0 0 0 0 0 0 0 0 0 0 0 0 0 0 0 0 0 0 0 0 0 0 
0 0 0 0 0 0 0 0 0 0 0 0 0 0 0 0 0 0 0 0 0 0 0 0 0 0 0 0 0 0 0 0 
0 0 0 0 0 0 0 0 0 0 0 1.300413e-01 1.441095e+01 1.048309e+02 2.675247e+02 4.109288e+02 4.679082e+02 4.109288e+02 2.675247e+02 1.048309e+02 1.441095e+01 1.300413e-01 0 0 0 0 0 0 0 0 0 0 
0 0 0 0 0 0 0 0 0 0 3.083117e+00 9.212205e+01 4.000036e+02 8.610653e+02 1.171205e+03 1.250722e+03 1.259236e+03 1.250722e+03 1.171205e+03 8.610653e+02 4.000036e+02 9.212205e+01 3.083117e+00 0 0 0 0 0 0 0 0 0 
0 0 0 0 0 0 0 0 0 5.553221e+00 1.341935e+02 5.925013e+02 1.042970e+03 1.165876e+03 1.073852e+03 8.955658e+02 8.169599e+02 8.955658e+02 1.073852e+03 1.165876e+03 1.042970e+03 5.925013e+02 1.341935e+02 5.553221e+00 0 0 0 0 0 0 0 0 
0 0 0 0 0 0 0 0 3.332790e-02 1.052556e+02 5.456348e+02 9.937800e+02 8.540784e+02 4.279267e+02 1.701717e+02 5.577215e+01 2.563238e+01 5.577215e+01 1.701717e+02 4.279267e+02 8.540784e+02 9.937800e+02 5.456348e+02 1.052556e+02 3.332790e-02 0 0 0 0 0 0 0 
0 0 0 0 0 0 0 0 1.765638e+01 3.496986e+02 8.570919e+02 7.133267e+02 2.065623e+02 1.828528e+01 0 0 0 0 0 1.828528e+01 2.065623e+02 7.133267e+02 8.570919e+02 3.496986e+02 1.765638e+01 0 0 0 0 0 0 0 
0 0 0 0 0 0 0 5.500571e-01 1.018459e+02 5.180074e+02 6.550137e+02 2.481704e+02 9.868213e+00 0 0 0 0 0 0 0 9.868213e+00 2.481704e+02 6.550137e+02 5.180074e+02 1.018459e+02 5.500571e-01 0 0 0 0 0 0 
0 0 0 0 0 0 0 2.965838e+00 1.987368e+02 4.738959e+02 3.076629e+02 2.954444e+01 6.517671e-03 0 0 0 0 0 0 0 6.517671e-03 2.954444e+01 3.076629e+02 4.738959e+02 1.987368e+02 2.965838e+00 0 0 0 0 0 0 
0 0 0 0 0 0 0 4.890885e+00 1.326758e+02 2.307266e+02 1.043718e+02 1.430074e+00 0 0 0 0 0 0 0 0 0 1.430074e+00 1.043718e+02 2.307266e+02 1.326758e+02 4.890885e+00 0 0 0 0 0 0 
0 0 0 0 0 0 0 1.609240e+01 7.516521e+01 7.304298e+01 1.397017e+01 0 0 0 0 0 0 0 0 0 0 0 1.397017e+01 7.304298e+01 7.516521e+01 1.609240e+01 0 0 0 0 0 0 
0 0 0 0 0 0 0 3.081039e+01 9.724824e+01 7.159693e+01 5.159078e+00 0 0 0 0 0 0 0 0 0 0 0 5.159078e+00 7.159693e+01 9.724824e+01 3.081039e+01 0 0 0 0 0 0 
0 0 0 0 0 0 0 5.468712e+01 1.324701e+02 7.900726e+01 1.224290e+00 0 0 0 0 0 0 0 0 0 0 0 1.224290e+00 7.900726e+01 1.324701e+02 5.468712e+01 0 0 0 0 0 0 
0 0 0 0 0 0 0 1.875911e-11 2.510537e-11 5.010263e-12 -1.331601e-12 0 0 0 0 0 0 0 0 0 0 0 8.762296e-13 7.686740e-12 3.665089e-12 -3.152659e-12 0 0 0 0 0 0 
0 0 0 0 0 0 0 -5.468712e+01 -1.324701e+02 -7.900726e+01 -1.224290e+00 0 0 0 0 0 0 0 0 0 0 0 -1.224290e+00 -7.900726e+01 -1.324701e+02 -5.468712e+01 0 0 0 0 0 0 
0 0 0 0 0 0 0 -3.081039e+01 -9.724824e+01 -7.159693e+01 -5.159078e+00 0 0 0 0 0 0 0 0 0 0 0 -5.159078e+00 -7.159693e+01 -9.724824e+01 -3.081039e+01 0 0 0 0 0 0 
0 0 0 0 0 0 0 -1.609240e+01 -7.516521e+01 -7.304298e+01 -1.397017e+01 0 0 0 0 0 0 0 0 0 0 0 -1.397017e+01 -7.304298e+01 -7.516521e+01 -1.609240e+01 0 0 0 0 0 0 
0 0 0 0 0 0 0 -4.890885e+00 -1.326758e+02 -2.307266e+02 -1.043718e+02 -1.430074e+00 0 0 0 0 0 0 0 0 0 -1.430074e+00 -1.043718e+02 -2.307266e+02 -1.326758e+02 -4.890885e+00 0 0 0 0 0 0 
0 0 0 0 0 0 0 -2.965838e+00 -1.987368e+02 -4.738959e+02 -3.076629e+02 -2.954444e+01 -6.517671e-03 0 0 0 0 0 0 0 -6.517671e-03 -2.954444e+01 -3.076629e+02 -4.738959e+02 -1.987368e+02 -2.965838e+00 0 0 0 0 0 0 
0 0 0 0 0 0 0 -5.500571e-01 -1.018459e+02 -5.180074e+02 -6.550137e+02 -2.481704e+02 -9.868213e+00 0 0 0 0 0 0 0 -9.868213e+00 -2.481704e+02 -6.550137e+02 -5.180074e+02 -1.018459e+02 -5.500571e-01 0 0 0 0 0 0 
0 0 0 0 0 0 0 0 -1.765638e+01 -3.496986e+02 -8.570919e+02 -7.133267e+02 -2.065623e+02 -1.828528e+01 0 0 0 0 0 -1.828528e+01 -2.065623e+02 -7.133267e+02 -8.570919e+02 -3.496986e+02 -1.765638e+01 0 0 0 0 0 0 0 
0 0 0 0 0 0 0 0 -3.332790e-02 -1.052556e+02 -5.456348e+02 -9.937800e+02 -8.540784e+02 -4.279267e+02 -1.701717e+02 -5.577215e+01 -2.563238e+01 -5.577215e+01 -1.701717e+02 -4.279267e+02 -8.540784e+02 -9.937800e+02 -5.456348e+02 -1.052556e+02 -3.332790e-02 0 0 0 0 0 0 0 
0 0 0 0 0 0 0 0 0 -5.553221e+00 -1.341935e+02 -5.925013e+02 -1.042970e+03 -1.165876e+03 -1.073852e+03 -8.955658e+02 -8.169599e+02 -8.955658e+02 -1.073852e+03 -1.165876e+03 -1.042970e+03 -5.925013e+02 -1.341935e+02 -5.553221e+00 0 0 0 0 0 0 0 0 
0 0 0 0 0 0 0 0 0 0 -3.083117e+00 -9.212205e+01 -4.000036e+02 -8.610653e+02 -1.171205e+03 -1.250722e+03 -1.259236e+03 -1.250722e+03 -1.171205e+03 -8.610653e+02 -4.000036e+02 -9.212205e+01 -3.083117e+00 0 0 0 0 0 0 0 0 0 
0 0 0 0 0 0 0 0 0 0 0 -1.300413e-01 -1.441095e+01 -1.048309e+02 -2.675247e+02 -4.109288e+02 -4.679082e+02 -4.109288e+02 -2.675247e+02 -1.048309e+02 -1.441095e+01 -1.300413e-01 0 0 0 0 0 0 0 0 0 0 
0 0 0 0 0 0 0 0 0 0 0 0 0 0 0 0 0 0 0 0 0 0 0 0 0 0 0 0 0 0 0 0 
0 0 0 0 0 0 0 0 0 0 0 0 0 0 0 0 0 0 0 0 0 0 0 0 0 0 0 0 0 0 0 0 
0 0 0 0 0 0 0 0 0 0 0 0 0 0 0 0 0 0 0 0 0 0 0 0 0 0 0 0 0 0 0 0 
0 0 0 0 0 0 0 0 0 0 0 0 0 0 0 0 0 0 0 0 0 0 0 0 0 0 0 0 0 0 0 0 
