# vtk DataFile Version 2.0
Comment goes here
ASCII

DATASET STRUCTURED_POINTS
FIELD FieldData 1
TIME 1 1 double
1.08000000
DIMENSIONS    32   32   1

ORIGIN    0.000   0.000   0.000
SPACING   0.03125 0.03125   1.000

POINT_DATA   1024
SCALARS fY double
LOOKUP_TABLE default

0 0 0 0 0 0 0 0 0 0 0 0 0 0 0 0 0 0 0 0 0 0 0 0 0 0 0 0 0 0 0 0 
0 0 0 0 0 0 0 0 0 0 0 0 0 0 0 0 0 0 0 0 0 0 0 0 0 0 0 0 0 0 0 0 
0 0 0 0 0 0 0 0 0 0 0 0 0 0 0 0 0 0 0 0 0 0 0 0 0 0 0 0 0 0 0 0 
0 0 0 0 0 0 0 0 0 0 0 0 0 0 0 0 0 0 0 0 0 0 0 0 0 0 0 0 0 0 0 0 
0 0 0 0 0 0 0 0 0 0 0 0 0 0 0 0 0 0 0 0 0 0 0 0 0 0 0 0 0 0 0 0 
0 0 0 0 0 0 0 0 0 0 0 0 0 0 0 0 0 0 0 0 0 0 0 0 0 0 0 0 0 0 0 0 
0 0 0 0 0 0 0 0 0 0 0 0 0 0 4.604684e-01 2.984765e+00 5.048593e+00 2.984765e+00 4.604684e-01 0 0 0 0 0 0 0 0 0 0 0 0 0 
0 0 0 0 0 0 0 0 0 0 0 -8.880213e-02 4.032521e+01 1.399730e+02 3.227706e+02 5.228233e+02 5.992234e+02 5.228233e+02 3.227706e+02 1.399730e+02 4.032521e+01 -8.880213e-02 0 0 0 0 0 0 0 0 0 0 
0 0 0 0 0 0 0 0 0 0 4.001514e+00 8.803146e+01 3.514558e+02 7.529141e+02 9.657922e+02 1.018585e+03 1.076563e+03 1.018585e+03 9.657922e+02 7.529141e+02 3.514558e+02 8.803146e+01 4.001514e+00 0 0 0 0 0 0 0 0 0 
0 0 0 0 0 0 0 0 0 6.875753e-01 5.772809e+01 4.751612e+02 8.173531e+02 8.582170e+02 7.202194e+02 5.026858e+02 4.829023e+02 5.026858e+02 7.202194e+02 8.582170e+02 8.173531e+02 4.751612e+02 5.772809e+01 6.875753e-01 0 0 0 0 0 0 0 0 
0 0 0 0 0 0 0 0 -5.427815e-03 6.052337e+01 3.076996e+02 6.783971e+02 6.215364e+02 2.633656e+02 7.673729e+01 3.938939e+00 5.140226e-01 3.938939e+00 7.673729e+01 2.633656e+02 6.215364e+02 6.783971e+02 3.076996e+02 6.052337e+01 -5.427815e-03 0 0 0 0 0 0 0 
0 0 0 0 0 0 0 0 1.708529e+01 2.303798e+02 5.610028e+02 4.572120e+02 1.275935e+02 1.808969e+01 0 0 0 0 0 1.808969e+01 1.275935e+02 4.572120e+02 5.610028e+02 2.303798e+02 1.708529e+01 0 0 0 0 0 0 0 
0 0 0 0 0 0 0 0 1.297275e+01 2.908970e+02 4.846942e+02 2.190494e+02 1.227950e+01 0 0 0 0 0 0 0 1.227950e+01 2.190494e+02 4.846942e+02 2.908970e+02 1.297275e+01 0 0 0 0 0 0 0 
0 0 0 0 0 0 0 -2.018356e-01 8.379775e+01 2.965199e+02 2.618463e+02 4.932598e+01 0 0 0 0 0 0 0 0 0 4.932598e+01 2.618463e+02 2.965199e+02 8.379775e+01 -2.018356e-01 0 0 0 0 0 0 
0 0 0 0 0 0 0 -3.774985e-01 8.209450e+01 2.025103e+02 1.172728e+02 -2.765465e+00 0 0 0 0 0 0 0 0 0 -2.765465e+00 1.172728e+02 2.025103e+02 8.209450e+01 -3.774985e-01 0 0 0 0 0 0 
0 0 0 0 0 0 0 1.081035e+00 2.135231e+01 6.431782e+01 4.514859e+01 1.102053e+00 0 0 0 0 0 0 0 0 0 1.102053e+00 4.514859e+01 6.431782e+01 2.135231e+01 1.081035e+00 0 0 0 0 0 0 
0 0 0 0 0 0 0 3.087530e-13 -1.954277e-11 -3.760546e-11 -1.773230e-11 0 0 0 0 0 0 0 0 0 0 0 -2.738432e-11 -5.375256e-11 -2.590262e-11 4.809352e-13 0 0 0 0 0 0 
0 0 0 0 0 0 0 -1.081035e+00 -2.135231e+01 -6.431782e+01 -4.514859e+01 -1.102053e+00 0 0 0 0 0 0 0 0 0 -1.102053e+00 -4.514859e+01 -6.431782e+01 -2.135231e+01 -1.081035e+00 0 0 0 0 0 0 
0 0 0 0 0 0 0 3.774985e-01 -8.209450e+01 -2.025103e+02 -1.172728e+02 2.765465e+00 0 0 0 0 0 0 0 0 0 2.765465e+00 -1.172728e+02 -2.025103e+02 -8.209450e+01 3.774985e-01 0 0 0 0 0 0 
0 0 0 0 0 0 0 2.018356e-01 -8.379775e+01 -2.965199e+02 -2.618463e+02 -4.932598e+01 0 0 0 0 0 0 0 0 0 -4.932598e+01 -2.618463e+02 -2.965199e+02 -8.379775e+01 2.018356e-01 0 0 0 0 0 0 
0 0 0 0 0 0 0 0 -1.297275e+01 -2.908970e+02 -4.846942e+02 -2.190494e+02 -1.227950e+01 0 0 0 0 0 0 0 -1.227950e+01 -2.190494e+02 -4.846942e+02 -2.908970e+02 -1.297275e+01 0 0 0 0 0 0 0 
0 0 0 0 0 0 0 0 -1.708529e+01 -2.303798e+02 -5.610028e+02 -4.572120e+02 -1.275935e+02 -1.808969e+01 0 0 0 0 0 -1.808969e+01 -1.275935e+02 -4.572120e+02 -5.610028e+02 -2.303798e+02 -1.708529e+01 0 0 0 0 0 0 0 
0 0 0 0 0 0 0 0 5.427815e-03 -6.052337e+01 -3.076996e+02 -6.783971e+02 -6.215364e+02 -2.633656e+02 -7.673729e+01 -3.938939e+00 -5.140226e-01 -3.938939e+00 -7.673729e+01 -2.633656e+02 -6.215364e+02 -6.783971e+02 -3.076996e+02 -6.052337e+01 5.427815e-03 0 0 0 0 0 0 0 
0 0 0 0 0 0 0 0 0 -6.875753e-01 -5.772809e+01 -4.751612e+02 -8.173531e+02 -8.582170e+02 -7.202194e+02 -5.026858e+02 -4.829023e+02 -5.026858e+02 -7.202194e+02 -8.582170e+02 -8.173531e+02 -4.751612e+02 -5.772809e+01 -6.875753e-01 0 0 0 0 0 0 0 0 
0 0 0 0 0 0 0 0 0 0 -4.001514e+00 -8.803146e+01 -3.514558e+02 -7.529141e+02 -9.657922e+02 -1.018585e+03 -1.076563e+03 -1.018585e+03 -9.657922e+02 -7.529141e+02 -3.514558e+02 -8.803146e+01 -4.001514e+00 0 0 0 0 0 0 0 0 0 
0 0 0 0 0 0 0 0 0 0 0 8.880213e-02 -4.032521e+01 -1.399730e+02 -3.227706e+02 -5.228233e+02 -5.992234e+02 -5.228233e+02 -3.227706e+02 -1.399730e+02 -4.032521e+01 8.880213e-02 0 0 0 0 0 0 0 0 0 0 
0 0 0 0 0 0 0 0 0 0 0 0 0 0 -4.604684e-01 -2.984765e+00 -5.048593e+00 -2.984765e+00 -4.604684e-01 0 0 0 0 0 0 0 0 0 0 0 0 0 
0 0 0 0 0 0 0 0 0 0 0 0 0 0 0 0 0 0 0 0 0 0 0 0 0 0 0 0 0 0 0 0 
0 0 0 0 0 0 0 0 0 0 0 0 0 0 0 0 0 0 0 0 0 0 0 0 0 0 0 0 0 0 0 0 
0 0 0 0 0 0 0 0 0 0 0 0 0 0 0 0 0 0 0 0 0 0 0 0 0 0 0 0 0 0 0 0 
0 0 0 0 0 0 0 0 0 0 0 0 0 0 0 0 0 0 0 0 0 0 0 0 0 0 0 0 0 0 0 0 
0 0 0 0 0 0 0 0 0 0 0 0 0 0 0 0 0 0 0 0 0 0 0 0 0 0 0 0 0 0 0 0 
