# vtk DataFile Version 2.0
Comment goes here
ASCII

DATASET STRUCTURED_POINTS
FIELD FieldData 1
TIME 1 1 double
0.40000000
DIMENSIONS    32   32   1

ORIGIN    0.000   0.000   0.000
SPACING   0.03125 0.03125   1.000

POINT_DATA   1024
SCALARS fY double
LOOKUP_TABLE default

0 0 0 0 0 0 0 0 0 0 0 0 0 0 0 0 0 0 0 0 0 0 0 0 0 0 0 0 0 0 0 0 
0 0 0 0 0 0 0 0 0 0 0 0 0 0 0 0 0 0 0 0 0 0 0 0 0 0 0 0 0 0 0 0 
0 0 0 0 0 0 0 0 0 0 0 0 0 0 0 0 0 0 0 0 0 0 0 0 0 0 0 0 0 0 0 0 
0 0 0 0 0 0 0 0 0 0 0 0 0 0 0 0 0 0 0 0 0 0 0 0 0 0 0 0 0 0 0 0 
0 0 0 0 0 0 0 0 0 0 0 0 0 0 0 0 0 0 0 0 0 0 0 0 0 0 0 0 0 0 0 0 
0 0 0 0 0 0 0 0 0 0 0 0 0 0 0 0 0 0 0 0 0 0 0 0 0 0 0 0 0 0 0 0 
0 0 0 0 0 0 0 0 0 0 0 0 0 0 0 0 0 0 0 0 0 0 0 0 0 0 0 0 0 0 0 0 
0 0 0 0 0 0 0 0 0 0 0 0 3.206795e-01 4.341272e+00 1.476777e+01 2.530587e+01 2.911740e+01 2.530587e+01 1.476777e+01 4.341272e+00 3.206795e-01 0 0 0 0 0 0 0 0 0 0 0 
0 0 0 0 0 0 0 0 0 3.442754e+00 3.739257e+01 1.184795e+02 2.329465e+02 3.544059e+02 4.289482e+02 4.329748e+02 4.200313e+02 4.329748e+02 4.289482e+02 3.544059e+02 2.329465e+02 1.184795e+02 3.739257e+01 3.442754e+00 0 0 0 0 0 0 0 0 
0 0 0 0 0 0 0 1.167898e+00 4.568543e+01 2.199471e+02 4.815927e+02 6.339440e+02 6.744008e+02 6.951807e+02 6.685938e+02 5.983914e+02 5.567165e+02 5.983914e+02 6.685938e+02 6.951807e+02 6.744008e+02 6.339440e+02 4.815927e+02 2.199471e+02 4.568543e+01 1.167898e+00 0 0 0 0 0 0 
0 0 0 0 0 0 6.982613e+00 1.272947e+02 4.738112e+02 7.686840e+02 8.029150e+02 6.655105e+02 4.817618e+02 3.508389e+02 2.546786e+02 1.907225e+02 1.658025e+02 1.907225e+02 2.546786e+02 3.508389e+02 4.817618e+02 6.655105e+02 8.029150e+02 7.686840e+02 4.738112e+02 1.272947e+02 6.982613e+00 0 0 0 0 0 
0 0 0 0 0 2.431599e+00 1.391204e+02 5.564773e+02 9.050199e+02 7.517176e+02 3.820068e+02 1.500497e+02 3.998681e+01 5.722859e+00 2.651756e-01 0 0 0 2.651756e-01 5.722859e+00 3.998681e+01 1.500497e+02 3.820068e+02 7.517176e+02 9.050199e+02 5.564773e+02 1.391204e+02 2.431599e+00 0 0 0 0 
0 0 0 0 2.399526e-03 5.629559e+01 4.630033e+02 8.587542e+02 6.356617e+02 2.069058e+02 2.329194e+01 3.802871e-03 0 0 0 0 0 0 0 0 0 3.802871e-03 2.329194e+01 2.069058e+02 6.356617e+02 8.587542e+02 4.630033e+02 5.629559e+01 2.399526e-03 0 0 0 
0 0 0 0 2.720222e+00 1.979080e+02 6.393676e+02 6.060757e+02 1.692637e+02 7.367871e+00 0 0 0 0 0 0 0 0 0 0 0 0 0 7.367871e+00 1.692637e+02 6.060757e+02 6.393676e+02 1.979080e+02 2.720222e+00 0 0 0 
0 0 0 0 1.638403e+01 2.865687e+02 4.929766e+02 2.332881e+02 1.049616e+01 0 0 0 0 0 0 0 0 0 0 0 0 0 0 0 1.049616e+01 2.332881e+02 4.929766e+02 2.865687e+02 1.638403e+01 0 0 0 
0 0 0 0 2.440069e+01 2.107909e+02 2.554883e+02 6.909805e+01 0 0 0 0 0 0 0 0 0 0 0 0 0 0 0 0 0 6.909805e+01 2.554883e+02 2.107909e+02 2.440069e+01 0 0 0 
0 0 0 0 1.282342e-11 -7.534834e-13 -2.915890e-11 -1.558487e-11 0 0 0 0 0 0 0 0 0 0 0 0 0 0 0 0 0 9.297314e-12 3.437431e-11 2.466900e-11 -4.115451e-13 0 0 0 
0 0 0 0 -2.440069e+01 -2.107909e+02 -2.554883e+02 -6.909805e+01 0 0 0 0 0 0 0 0 0 0 0 0 0 0 0 0 0 -6.909805e+01 -2.554883e+02 -2.107909e+02 -2.440069e+01 0 0 0 
0 0 0 0 -1.638403e+01 -2.865687e+02 -4.929766e+02 -2.332881e+02 -1.049616e+01 0 0 0 0 0 0 0 0 0 0 0 0 0 0 0 -1.049616e+01 -2.332881e+02 -4.929766e+02 -2.865687e+02 -1.638403e+01 0 0 0 
0 0 0 0 -2.720222e+00 -1.979080e+02 -6.393676e+02 -6.060757e+02 -1.692637e+02 -7.367871e+00 0 0 0 0 0 0 0 0 0 0 0 0 0 -7.367871e+00 -1.692637e+02 -6.060757e+02 -6.393676e+02 -1.979080e+02 -2.720222e+00 0 0 0 
0 0 0 0 -2.399526e-03 -5.629559e+01 -4.630033e+02 -8.587542e+02 -6.356617e+02 -2.069058e+02 -2.329194e+01 -3.802871e-03 0 0 0 0 0 0 0 0 0 -3.802871e-03 -2.329194e+01 -2.069058e+02 -6.356617e+02 -8.587542e+02 -4.630033e+02 -5.629559e+01 -2.399526e-03 0 0 0 
0 0 0 0 0 -2.431599e+00 -1.391204e+02 -5.564773e+02 -9.050199e+02 -7.517176e+02 -3.820068e+02 -1.500497e+02 -3.998681e+01 -5.722859e+00 -2.651756e-01 0 0 0 -2.651756e-01 -5.722859e+00 -3.998681e+01 -1.500497e+02 -3.820068e+02 -7.517176e+02 -9.050199e+02 -5.564773e+02 -1.391204e+02 -2.431599e+00 0 0 0 0 
0 0 0 0 0 0 -6.982613e+00 -1.272947e+02 -4.738112e+02 -7.686840e+02 -8.029150e+02 -6.655105e+02 -4.817618e+02 -3.508389e+02 -2.546786e+02 -1.907225e+02 -1.658025e+02 -1.907225e+02 -2.546786e+02 -3.508389e+02 -4.817618e+02 -6.655105e+02 -8.029150e+02 -7.686840e+02 -4.738112e+02 -1.272947e+02 -6.982613e+00 0 0 0 0 0 
0 0 0 0 0 0 0 -1.167898e+00 -4.568543e+01 -2.199471e+02 -4.815927e+02 -6.339440e+02 -6.744008e+02 -6.951807e+02 -6.685938e+02 -5.983914e+02 -5.567165e+02 -5.983914e+02 -6.685938e+02 -6.951807e+02 -6.744008e+02 -6.339440e+02 -4.815927e+02 -2.199471e+02 -4.568543e+01 -1.167898e+00 0 0 0 0 0 0 
0 0 0 0 0 0 0 0 0 -3.442754e+00 -3.739257e+01 -1.184795e+02 -2.329465e+02 -3.544059e+02 -4.289482e+02 -4.329748e+02 -4.200313e+02 -4.329748e+02 -4.289482e+02 -3.544059e+02 -2.329465e+02 -1.184795e+02 -3.739257e+01 -3.442754e+00 0 0 0 0 0 0 0 0 
0 0 0 0 0 0 0 0 0 0 0 0 -3.206795e-01 -4.341272e+00 -1.476777e+01 -2.530587e+01 -2.911740e+01 -2.530587e+01 -1.476777e+01 -4.341272e+00 -3.206795e-01 0 0 0 0 0 0 0 0 0 0 0 
0 0 0 0 0 0 0 0 0 0 0 0 0 0 0 0 0 0 0 0 0 0 0 0 0 0 0 0 0 0 0 0 
0 0 0 0 0 0 0 0 0 0 0 0 0 0 0 0 0 0 0 0 0 0 0 0 0 0 0 0 0 0 0 0 
0 0 0 0 0 0 0 0 0 0 0 0 0 0 0 0 0 0 0 0 0 0 0 0 0 0 0 0 0 0 0 0 
0 0 0 0 0 0 0 0 0 0 0 0 0 0 0 0 0 0 0 0 0 0 0 0 0 0 0 0 0 0 0 0 
0 0 0 0 0 0 0 0 0 0 0 0 0 0 0 0 0 0 0 0 0 0 0 0 0 0 0 0 0 0 0 0 
0 0 0 0 0 0 0 0 0 0 0 0 0 0 0 0 0 0 0 0 0 0 0 0 0 0 0 0 0 0 0 0 
