# vtk DataFile Version 2.0
Comment goes here
ASCII

DATASET STRUCTURED_POINTS
FIELD FieldData 1
TIME 1 1 double
0.66000000
DIMENSIONS    32   32   1

ORIGIN    0.000   0.000   0.000
SPACING   0.03125 0.03125   1.000

POINT_DATA   1024
SCALARS fY double
LOOKUP_TABLE default

0 0 0 0 0 0 0 0 0 0 0 0 0 0 0 0 0 0 0 0 0 0 0 0 0 0 0 0 0 0 0 0 
0 0 0 0 0 0 0 0 0 0 0 0 0 0 0 0 0 0 0 0 0 0 0 0 0 0 0 0 0 0 0 0 
0 0 0 0 0 0 0 0 0 0 0 0 0 0 0 0 0 0 0 0 0 0 0 0 0 0 0 0 0 0 0 0 
0 0 0 0 0 0 0 0 0 0 0 0 0 0 0 0 0 0 0 0 0 0 0 0 0 0 0 0 0 0 0 0 
0 0 0 0 0 0 0 0 0 0 0 0 0 0 0 0 0 0 0 0 0 0 0 0 0 0 0 0 0 0 0 0 
0 0 0 0 0 0 0 0 0 0 0 0 0 2.184121e+00 1.995410e+01 6.378832e+01 9.203669e+01 6.378832e+01 1.995410e+01 2.184121e+00 0 0 0 0 0 0 0 0 0 0 0 0 
0 0 0 0 0 0 0 0 0 0 0 6.117386e+00 7.315959e+01 3.768594e+02 6.808437e+02 8.359112e+02 9.297693e+02 8.359112e+02 6.808437e+02 3.768594e+02 7.315959e+01 6.117386e+00 0 0 0 0 0 0 0 0 0 0 
0 0 0 0 0 0 0 0 0 1.198258e-02 1.414229e+01 2.157364e+02 6.158252e+02 1.085676e+03 1.240001e+03 1.132846e+03 1.128603e+03 1.132846e+03 1.240001e+03 1.085676e+03 6.158252e+02 2.157364e+02 1.414229e+01 1.198258e-02 0 0 0 0 0 0 0 0 
0 0 0 0 0 0 0 0 0 7.367127e+00 1.844734e+02 7.057302e+02 1.040189e+03 8.862364e+02 5.902197e+02 3.609835e+02 2.908705e+02 3.609835e+02 5.902197e+02 8.862364e+02 1.040189e+03 7.057302e+02 1.844734e+02 7.367127e+00 0 0 0 0 0 0 0 0 
0 0 0 0 0 0 0 0 2.118116e-01 8.410135e+01 4.923731e+02 8.371572e+02 5.971440e+02 1.793183e+02 1.110829e+01 2.603734e-01 0 2.603734e-01 1.110829e+01 1.793183e+02 5.971440e+02 8.371572e+02 4.923731e+02 8.410135e+01 2.118116e-01 0 0 0 0 0 0 0 
0 0 0 0 0 0 0 0 1.274942e+01 2.400993e+02 5.881987e+02 4.614674e+02 1.047010e+02 4.082307e+00 0 0 0 0 0 4.082307e+00 1.047010e+02 4.614674e+02 5.881987e+02 2.400993e+02 1.274942e+01 0 0 0 0 0 0 0 
0 0 0 0 0 0 0 -1.022484e-02 8.451604e+01 4.206228e+02 4.746832e+02 1.436669e+02 5.080201e+00 0 0 0 0 0 0 0 5.080201e+00 1.436669e+02 4.746832e+02 4.206228e+02 8.451604e+01 -1.022484e-02 0 0 0 0 0 0 
0 0 0 0 0 0 0 1.838748e+00 1.198237e+02 3.684341e+02 2.770810e+02 2.663179e+01 0 0 0 0 0 0 0 0 0 2.663179e+01 2.770810e+02 3.684341e+02 1.198237e+02 1.838748e+00 0 0 0 0 0 0 
0 0 0 0 0 0 0 8.819289e+00 1.461137e+02 2.401840e+02 1.062758e+02 3.386195e+00 0 0 0 0 0 0 0 0 0 3.386195e+00 1.062758e+02 2.401840e+02 1.461137e+02 8.819289e+00 0 0 0 0 0 0 
0 0 0 0 0 0 0 1.149767e+01 1.333832e+02 1.689379e+02 4.705234e+01 0 0 0 0 0 0 0 0 0 0 0 4.705234e+01 1.689379e+02 1.333832e+02 1.149767e+01 0 0 0 0 0 0 
0 0 0 0 0 0 0 9.615282e+00 6.401365e+01 6.850802e+01 1.410966e+01 0 0 0 0 0 0 0 0 0 0 0 1.410966e+01 6.850802e+01 6.401365e+01 9.615282e+00 0 0 0 0 0 0 
0 0 0 0 0 0 0 1.082209e-12 -7.761756e-13 -3.491137e-12 -1.629269e-12 0 0 0 0 0 0 0 0 0 0 0 5.958962e-12 2.239815e-11 1.684799e-11 4.089146e-13 0 0 0 0 0 0 
0 0 0 0 0 0 0 -9.615282e+00 -6.401365e+01 -6.850802e+01 -1.410966e+01 0 0 0 0 0 0 0 0 0 0 0 -1.410966e+01 -6.850802e+01 -6.401365e+01 -9.615282e+00 0 0 0 0 0 0 
0 0 0 0 0 0 0 -1.149767e+01 -1.333832e+02 -1.689379e+02 -4.705234e+01 0 0 0 0 0 0 0 0 0 0 0 -4.705234e+01 -1.689379e+02 -1.333832e+02 -1.149767e+01 0 0 0 0 0 0 
0 0 0 0 0 0 0 -8.819289e+00 -1.461137e+02 -2.401840e+02 -1.062758e+02 -3.386195e+00 0 0 0 0 0 0 0 0 0 -3.386195e+00 -1.062758e+02 -2.401840e+02 -1.461137e+02 -8.819289e+00 0 0 0 0 0 0 
0 0 0 0 0 0 0 -1.838748e+00 -1.198237e+02 -3.684341e+02 -2.770810e+02 -2.663179e+01 0 0 0 0 0 0 0 0 0 -2.663179e+01 -2.770810e+02 -3.684341e+02 -1.198237e+02 -1.838748e+00 0 0 0 0 0 0 
0 0 0 0 0 0 0 1.022484e-02 -8.451604e+01 -4.206228e+02 -4.746832e+02 -1.436669e+02 -5.080201e+00 0 0 0 0 0 0 0 -5.080201e+00 -1.436669e+02 -4.746832e+02 -4.206228e+02 -8.451604e+01 1.022484e-02 0 0 0 0 0 0 
0 0 0 0 0 0 0 0 -1.274942e+01 -2.400993e+02 -5.881987e+02 -4.614674e+02 -1.047010e+02 -4.082307e+00 0 0 0 0 0 -4.082307e+00 -1.047010e+02 -4.614674e+02 -5.881987e+02 -2.400993e+02 -1.274942e+01 0 0 0 0 0 0 0 
0 0 0 0 0 0 0 0 -2.118116e-01 -8.410135e+01 -4.923731e+02 -8.371572e+02 -5.971440e+02 -1.793183e+02 -1.110829e+01 -2.603734e-01 0 -2.603734e-01 -1.110829e+01 -1.793183e+02 -5.971440e+02 -8.371572e+02 -4.923731e+02 -8.410135e+01 -2.118116e-01 0 0 0 0 0 0 0 
0 0 0 0 0 0 0 0 0 -7.367127e+00 -1.844734e+02 -7.057302e+02 -1.040189e+03 -8.862364e+02 -5.902197e+02 -3.609835e+02 -2.908705e+02 -3.609835e+02 -5.902197e+02 -8.862364e+02 -1.040189e+03 -7.057302e+02 -1.844734e+02 -7.367127e+00 0 0 0 0 0 0 0 0 
0 0 0 0 0 0 0 0 0 -1.198258e-02 -1.414229e+01 -2.157364e+02 -6.158252e+02 -1.085676e+03 -1.240001e+03 -1.132846e+03 -1.128603e+03 -1.132846e+03 -1.240001e+03 -1.085676e+03 -6.158252e+02 -2.157364e+02 -1.414229e+01 -1.198258e-02 0 0 0 0 0 0 0 0 
0 0 0 0 0 0 0 0 0 0 0 -6.117386e+00 -7.315959e+01 -3.768594e+02 -6.808437e+02 -8.359112e+02 -9.297693e+02 -8.359112e+02 -6.808437e+02 -3.768594e+02 -7.315959e+01 -6.117386e+00 0 0 0 0 0 0 0 0 0 0 
0 0 0 0 0 0 0 0 0 0 0 0 0 -2.184121e+00 -1.995410e+01 -6.378832e+01 -9.203669e+01 -6.378832e+01 -1.995410e+01 -2.184121e+00 0 0 0 0 0 0 0 0 0 0 0 0 
0 0 0 0 0 0 0 0 0 0 0 0 0 0 0 0 0 0 0 0 0 0 0 0 0 0 0 0 0 0 0 0 
0 0 0 0 0 0 0 0 0 0 0 0 0 0 0 0 0 0 0 0 0 0 0 0 0 0 0 0 0 0 0 0 
0 0 0 0 0 0 0 0 0 0 0 0 0 0 0 0 0 0 0 0 0 0 0 0 0 0 0 0 0 0 0 0 
0 0 0 0 0 0 0 0 0 0 0 0 0 0 0 0 0 0 0 0 0 0 0 0 0 0 0 0 0 0 0 0 
