# vtk DataFile Version 2.0
Comment goes here
ASCII

DATASET STRUCTURED_POINTS
FIELD FieldData 1
TIME 1 1 double
1.18000000
DIMENSIONS    32   32   1

ORIGIN    0.000   0.000   0.000
SPACING   0.03125 0.03125   1.000

POINT_DATA   1024
SCALARS fY double
LOOKUP_TABLE default

0 0 0 0 0 0 0 0 0 0 0 0 0 0 0 0 0 0 0 0 0 0 0 0 0 0 0 0 0 0 0 0 
0 0 0 0 0 0 0 0 0 0 0 0 0 0 0 0 0 0 0 0 0 0 0 0 0 0 0 0 0 0 0 0 
0 0 0 0 0 0 0 0 0 0 0 0 0 0 0 0 0 0 0 0 0 0 0 0 0 0 0 0 0 0 0 0 
0 0 0 0 0 0 0 0 0 0 0 0 0 0 0 0 0 0 0 0 0 0 0 0 0 0 0 0 0 0 0 0 
0 0 0 0 0 0 0 0 0 0 0 0 0 0 0 0 0 0 0 0 0 0 0 0 0 0 0 0 0 0 0 0 
0 0 0 0 0 0 0 0 0 0 0 0 0 0 0 0 0 0 0 0 0 0 0 0 0 0 0 0 0 0 0 0 
0 0 0 0 0 0 0 0 0 0 0 0 0 0 0 0 0 0 0 0 0 0 0 0 0 0 0 0 0 0 0 0 
0 0 0 0 0 0 0 0 0 0 0 0 0 0 0 0 0 0 0 0 0 0 0 0 0 0 0 0 0 0 0 0 
0 0 0 0 0 0 0 0 0 0 0 3.120268e-01 4.086754e+01 9.782028e+01 2.036908e+02 2.951624e+02 2.974728e+02 2.951624e+02 2.036908e+02 9.782028e+01 4.086754e+01 3.120268e-01 0 0 0 0 0 0 0 0 0 0 
0 0 0 0 0 0 0 0 0 1.274284e-01 1.750481e+01 1.481042e+02 4.340096e+02 6.196262e+02 7.034687e+02 7.537881e+02 7.333258e+02 7.537881e+02 7.034687e+02 6.196262e+02 4.340096e+02 1.481042e+02 1.750481e+01 1.274284e-01 0 0 0 0 0 0 0 0 
0 0 0 0 0 0 0 0 4.608763e-01 7.055783e+01 2.751461e+02 5.683110e+02 7.451770e+02 6.964073e+02 5.612669e+02 4.686753e+02 4.438011e+02 4.686753e+02 5.612669e+02 6.964073e+02 7.451770e+02 5.683110e+02 2.751461e+02 7.055783e+01 4.608763e-01 0 0 0 0 0 0 0 
0 0 0 0 0 0 0 0 2.698557e+01 2.828344e+02 6.579324e+02 6.613091e+02 3.796824e+02 1.758704e+02 6.148904e+01 1.004959e+01 7.948015e+00 1.004959e+01 6.148904e+01 1.758704e+02 3.796824e+02 6.613091e+02 6.579324e+02 2.828344e+02 2.698557e+01 0 0 0 0 0 0 0 
0 0 0 0 0 0 0 -9.037498e+00 1.467128e+02 5.210635e+02 5.938718e+02 2.549370e+02 2.764744e+01 1.269003e+00 0 0 0 0 0 1.269003e+00 2.764744e+01 2.549370e+02 5.938718e+02 5.210635e+02 1.467128e+02 -9.037498e+00 0 0 0 0 0 0 
0 0 0 0 0 0 0 4.063624e+01 2.932253e+02 4.664886e+02 2.280457e+02 1.414614e+01 0 0 0 0 0 0 0 0 0 1.414614e+01 2.280457e+02 4.664886e+02 2.932253e+02 4.063624e+01 0 0 0 0 0 0 
0 0 0 0 0 0 0 7.532252e+01 3.034727e+02 2.777962e+02 4.964542e+01 -5.869298e-04 0 0 0 0 0 0 0 0 0 -5.869298e-04 4.964542e+01 2.777962e+02 3.034727e+02 7.532252e+01 0 0 0 0 0 0 
0 0 0 0 0 0 5.305501e-14 3.608554e+01 1.484042e+02 1.272438e+02 1.492509e+01 0 0 0 0 0 0 0 0 0 0 0 1.492509e+01 1.272438e+02 1.484042e+02 3.608554e+01 -4.785187e-14 0 0 0 0 0 
0 0 0 0 0 0 1.061100e-13 4.011635e-11 -1.448307e-11 -5.844103e-11 -3.952125e-12 0 0 0 0 0 0 0 0 0 0 0 -1.873975e-12 -2.902567e-11 -6.682202e-11 -3.976232e-11 -9.570374e-14 0 0 0 0 0 
0 0 0 0 0 0 5.305501e-14 -3.608554e+01 -1.484042e+02 -1.272438e+02 -1.492509e+01 0 0 0 0 0 0 0 0 0 0 0 -1.492509e+01 -1.272438e+02 -1.484042e+02 -3.608554e+01 -4.785187e-14 0 0 0 0 0 
0 0 0 0 0 0 0 -7.532252e+01 -3.034727e+02 -2.777962e+02 -4.964542e+01 5.869298e-04 0 0 0 0 0 0 0 0 0 5.869298e-04 -4.964542e+01 -2.777962e+02 -3.034727e+02 -7.532252e+01 0 0 0 0 0 0 
0 0 0 0 0 0 0 -4.063624e+01 -2.932253e+02 -4.664886e+02 -2.280457e+02 -1.414614e+01 0 0 0 0 0 0 0 0 0 -1.414614e+01 -2.280457e+02 -4.664886e+02 -2.932253e+02 -4.063624e+01 0 0 0 0 0 0 
0 0 0 0 0 0 0 9.037498e+00 -1.467128e+02 -5.210635e+02 -5.938718e+02 -2.549370e+02 -2.764744e+01 -1.269003e+00 0 0 0 0 0 -1.269003e+00 -2.764744e+01 -2.549370e+02 -5.938718e+02 -5.210635e+02 -1.467128e+02 9.037498e+00 0 0 0 0 0 0 
0 0 0 0 0 0 0 0 -2.698557e+01 -2.828344e+02 -6.579324e+02 -6.613091e+02 -3.796824e+02 -1.758704e+02 -6.148904e+01 -1.004959e+01 -7.948015e+00 -1.004959e+01 -6.148904e+01 -1.758704e+02 -3.796824e+02 -6.613091e+02 -6.579324e+02 -2.828344e+02 -2.698557e+01 0 0 0 0 0 0 0 
0 0 0 0 0 0 0 0 -4.608763e-01 -7.055783e+01 -2.751461e+02 -5.683110e+02 -7.451770e+02 -6.964073e+02 -5.612669e+02 -4.686753e+02 -4.438011e+02 -4.686753e+02 -5.612669e+02 -6.964073e+02 -7.451770e+02 -5.683110e+02 -2.751461e+02 -7.055783e+01 -4.608763e-01 0 0 0 0 0 0 0 
0 0 0 0 0 0 0 0 0 -1.274284e-01 -1.750481e+01 -1.481042e+02 -4.340096e+02 -6.196262e+02 -7.034687e+02 -7.537881e+02 -7.333258e+02 -7.537881e+02 -7.034687e+02 -6.196262e+02 -4.340096e+02 -1.481042e+02 -1.750481e+01 -1.274284e-01 0 0 0 0 0 0 0 0 
0 0 0 0 0 0 0 0 0 0 0 -3.120268e-01 -4.086754e+01 -9.782028e+01 -2.036908e+02 -2.951624e+02 -2.974728e+02 -2.951624e+02 -2.036908e+02 -9.782028e+01 -4.086754e+01 -3.120268e-01 0 0 0 0 0 0 0 0 0 0 
0 0 0 0 0 0 0 0 0 0 0 0 0 0 0 0 0 0 0 0 0 0 0 0 0 0 0 0 0 0 0 0 
0 0 0 0 0 0 0 0 0 0 0 0 0 0 0 0 0 0 0 0 0 0 0 0 0 0 0 0 0 0 0 0 
0 0 0 0 0 0 0 0 0 0 0 0 0 0 0 0 0 0 0 0 0 0 0 0 0 0 0 0 0 0 0 0 
0 0 0 0 0 0 0 0 0 0 0 0 0 0 0 0 0 0 0 0 0 0 0 0 0 0 0 0 0 0 0 0 
0 0 0 0 0 0 0 0 0 0 0 0 0 0 0 0 0 0 0 0 0 0 0 0 0 0 0 0 0 0 0 0 
0 0 0 0 0 0 0 0 0 0 0 0 0 0 0 0 0 0 0 0 0 0 0 0 0 0 0 0 0 0 0 0 
0 0 0 0 0 0 0 0 0 0 0 0 0 0 0 0 0 0 0 0 0 0 0 0 0 0 0 0 0 0 0 0 
