# vtk DataFile Version 2.0
Comment goes here
ASCII

DATASET STRUCTURED_POINTS
FIELD FieldData 1
TIME 1 1 double
1.24000000
DIMENSIONS    32   32   1

ORIGIN    0.000   0.000   0.000
SPACING   0.03125 0.03125   1.000

POINT_DATA   1024
SCALARS fY double
LOOKUP_TABLE default

0 0 0 0 0 0 0 0 0 0 0 0 0 0 0 0 0 0 0 0 0 0 0 0 0 0 0 0 0 0 0 0 
0 0 0 0 0 0 0 0 0 0 0 0 0 0 0 0 0 0 0 0 0 0 0 0 0 0 0 0 0 0 0 0 
0 0 0 0 0 0 0 0 0 0 0 0 0 0 0 0 0 0 0 0 0 0 0 0 0 0 0 0 0 0 0 0 
0 0 0 0 0 0 0 0 0 0 0 0 0 0 0 0 0 0 0 0 0 0 0 0 0 0 0 0 0 0 0 0 
0 0 0 0 0 0 0 0 0 0 0 0 0 0 0 0 0 0 0 0 0 0 0 0 0 0 0 0 0 0 0 0 
0 0 0 0 0 0 0 0 0 0 0 0 0 0 0 0 0 0 0 0 0 0 0 0 0 0 0 0 0 0 0 0 
0 0 0 0 0 0 0 0 0 0 0 0 0 0 0 0 0 0 0 0 0 0 0 0 0 0 0 0 0 0 0 0 
0 0 0 0 0 0 0 0 0 0 0 0 1.323672e+01 4.797302e+01 1.705890e+02 3.140591e+02 3.564128e+02 3.140591e+02 1.705890e+02 4.797302e+01 1.323672e+01 0 0 0 0 0 0 0 0 0 0 0 
0 0 0 0 0 0 0 0 0 0 0 3.148425e+01 2.112616e+02 5.902528e+02 8.647541e+02 9.641805e+02 1.019804e+03 9.641805e+02 8.647541e+02 5.902528e+02 2.112616e+02 3.148425e+01 0 0 0 0 0 0 0 0 0 0 
0 0 0 0 0 0 0 0 0 0 1.931037e+01 2.525680e+02 6.341948e+02 9.170491e+02 8.635046e+02 6.938509e+02 6.929164e+02 6.938509e+02 8.635046e+02 9.170491e+02 6.341948e+02 2.525680e+02 1.931037e+01 0 0 0 0 0 0 0 0 0 
0 0 0 0 0 0 0 0 0 1.323246e+01 2.344322e+02 6.093558e+02 6.727564e+02 4.248902e+02 1.692568e+02 4.372947e+01 2.952530e+01 4.372947e+01 1.692568e+02 4.248902e+02 6.727564e+02 6.093558e+02 2.344322e+02 1.323246e+01 0 0 0 0 0 0 0 0 
0 0 0 0 0 0 0 0 1.540024e+00 7.687423e+01 4.405836e+02 6.194663e+02 3.044827e+02 5.018298e+01 -8.284439e-02 0 0 0 -8.284439e-02 5.018298e+01 3.044827e+02 6.194663e+02 4.405836e+02 7.687423e+01 1.540024e+00 0 0 0 0 0 0 0 
0 0 0 0 0 0 0 0 -1.707589e+01 1.137269e+02 3.836766e+02 3.201117e+02 6.729994e+01 6.208635e-02 0 0 0 0 0 6.208635e-02 6.729994e+01 3.201117e+02 3.836766e+02 1.137269e+02 -1.707589e+01 0 0 0 0 0 0 0 
0 0 0 0 0 0 0 0 2.522716e+01 1.912403e+02 2.584553e+02 9.184581e+01 -5.963166e-01 0 0 0 0 0 0 0 -5.963166e-01 9.184581e+01 2.584553e+02 1.912403e+02 2.522716e+01 0 0 0 0 0 0 0 
0 0 0 0 0 0 0 0 4.341954e+01 2.013245e+02 1.795198e+02 2.161484e+01 0 0 0 0 0 0 0 0 0 2.161484e+01 1.795198e+02 2.013245e+02 4.341954e+01 0 0 0 0 0 0 0 
0 0 0 0 0 0 0 0 2.008949e+01 1.101651e+02 1.087853e+02 1.870971e+01 0 0 0 0 0 0 0 0 0 1.870971e+01 1.087853e+02 1.101651e+02 2.008949e+01 0 0 0 0 0 0 0 
0 0 0 0 0 0 0 0 6.277690e-11 4.709477e-11 -3.308510e-11 -1.740173e-11 0 0 0 0 0 0 0 0 0 4.987840e-12 -7.422329e-11 -1.695355e-10 -9.034846e-11 0 0 0 0 0 0 0 
0 0 0 0 0 0 0 0 -2.008949e+01 -1.101651e+02 -1.087853e+02 -1.870971e+01 0 0 0 0 0 0 0 0 0 -1.870971e+01 -1.087853e+02 -1.101651e+02 -2.008949e+01 0 0 0 0 0 0 0 
0 0 0 0 0 0 0 0 -4.341954e+01 -2.013245e+02 -1.795198e+02 -2.161484e+01 0 0 0 0 0 0 0 0 0 -2.161484e+01 -1.795198e+02 -2.013245e+02 -4.341954e+01 0 0 0 0 0 0 0 
0 0 0 0 0 0 0 0 -2.522716e+01 -1.912403e+02 -2.584553e+02 -9.184581e+01 5.963166e-01 0 0 0 0 0 0 0 5.963166e-01 -9.184581e+01 -2.584553e+02 -1.912403e+02 -2.522716e+01 0 0 0 0 0 0 0 
0 0 0 0 0 0 0 0 1.707589e+01 -1.137269e+02 -3.836766e+02 -3.201117e+02 -6.729994e+01 -6.208635e-02 0 0 0 0 0 -6.208635e-02 -6.729994e+01 -3.201117e+02 -3.836766e+02 -1.137269e+02 1.707589e+01 0 0 0 0 0 0 0 
0 0 0 0 0 0 0 0 -1.540024e+00 -7.687423e+01 -4.405836e+02 -6.194663e+02 -3.044827e+02 -5.018298e+01 8.284439e-02 0 0 0 8.284439e-02 -5.018298e+01 -3.044827e+02 -6.194663e+02 -4.405836e+02 -7.687423e+01 -1.540024e+00 0 0 0 0 0 0 0 
0 0 0 0 0 0 0 0 0 -1.323246e+01 -2.344322e+02 -6.093558e+02 -6.727564e+02 -4.248902e+02 -1.692568e+02 -4.372947e+01 -2.952530e+01 -4.372947e+01 -1.692568e+02 -4.248902e+02 -6.727564e+02 -6.093558e+02 -2.344322e+02 -1.323246e+01 0 0 0 0 0 0 0 0 
0 0 0 0 0 0 0 0 0 0 -1.931037e+01 -2.525680e+02 -6.341948e+02 -9.170491e+02 -8.635046e+02 -6.938509e+02 -6.929164e+02 -6.938509e+02 -8.635046e+02 -9.170491e+02 -6.341948e+02 -2.525680e+02 -1.931037e+01 0 0 0 0 0 0 0 0 0 
0 0 0 0 0 0 0 0 0 0 0 -3.148425e+01 -2.112616e+02 -5.902528e+02 -8.647541e+02 -9.641805e+02 -1.019804e+03 -9.641805e+02 -8.647541e+02 -5.902528e+02 -2.112616e+02 -3.148425e+01 0 0 0 0 0 0 0 0 0 0 
0 0 0 0 0 0 0 0 0 0 0 0 -1.323672e+01 -4.797302e+01 -1.705890e+02 -3.140591e+02 -3.564128e+02 -3.140591e+02 -1.705890e+02 -4.797302e+01 -1.323672e+01 0 0 0 0 0 0 0 0 0 0 0 
0 0 0 0 0 0 0 0 0 0 0 0 0 0 0 0 0 0 0 0 0 0 0 0 0 0 0 0 0 0 0 0 
0 0 0 0 0 0 0 0 0 0 0 0 0 0 0 0 0 0 0 0 0 0 0 0 0 0 0 0 0 0 0 0 
0 0 0 0 0 0 0 0 0 0 0 0 0 0 0 0 0 0 0 0 0 0 0 0 0 0 0 0 0 0 0 0 
0 0 0 0 0 0 0 0 0 0 0 0 0 0 0 0 0 0 0 0 0 0 0 0 0 0 0 0 0 0 0 0 
0 0 0 0 0 0 0 0 0 0 0 0 0 0 0 0 0 0 0 0 0 0 0 0 0 0 0 0 0 0 0 0 
0 0 0 0 0 0 0 0 0 0 0 0 0 0 0 0 0 0 0 0 0 0 0 0 0 0 0 0 0 0 0 0 
