# vtk DataFile Version 2.0
Comment goes here
ASCII

DATASET STRUCTURED_POINTS
FIELD FieldData 1
TIME 1 1 double
0.54000000
DIMENSIONS    32   32   1

ORIGIN    0.000   0.000   0.000
SPACING   0.03125 0.03125   1.000

POINT_DATA   1024
SCALARS Omega double
LOOKUP_TABLE default

-4.928016e-14 -5.481540e-14 -4.968376e-14 -5.846159e-14 -4.374180e-14 -3.888296e-14 -5.719924e-14 -6.963645e-14 -2.033555e-13 -3.373556e-13 -5.984251e-13 -7.185018e-13 -7.372600e-13 -5.525696e-13 -9.902180e-14 8.008574e-13 1.135347e-12 6.142614e-13 2.073090e-13 -2.764276e-13 -5.290379e-13 -5.181728e-13 -4.110412e-13 -2.581074e-13 -1.492264e-13 -9.209339e-14 -7.253865e-14 -5.132128e-14 -4.276938e-14 -4.444298e-14 -4.665494e-14 -5.140895e-14 
-4.438965e-14 1.530106e-02 2.817243e-02 3.799754e-02 3.547035e-02 -1.012451e-02 -1.472920e-01 -5.406421e-01 -1.320458e+00 -2.734565e+00 -4.738410e+00 -7.065266e+00 -9.267268e+00 -1.059348e+01 -1.040539e+01 -7.768248e+00 8.764713e-13 7.768248e+00 1.040539e+01 1.059348e+01 9.267268e+00 7.065266e+00 4.738410e+00 2.734565e+00 1.320458e+00 5.406421e-01 1.472920e-01 1.012451e-02 -3.547035e-02 -3.799754e-02 -2.817243e-02 -1.530106e-02 
-4.792614e-14 3.845408e-02 6.923693e-02 9.310615e-02 9.409999e-02 3.279302e-02 -1.639974e-01 -7.382338e-01 -1.888206e+00 -4.093510e+00 -7.326278e+00 -1.140377e+01 -1.569116e+01 -1.906871e+01 -2.045399e+01 -1.712524e+01 7.013129e-13 1.712524e+01 2.045399e+01 1.906871e+01 1.569116e+01 1.140377e+01 7.326278e+00 4.093510e+00 1.888206e+00 7.382338e-01 1.639974e-01 -3.279302e-02 -9.409999e-02 -9.310615e-02 -6.923693e-02 -3.845408e-02 
-3.808741e-14 8.531426e-02 1.484624e-01 1.939639e-01 2.045052e-01 1.603863e-01 -1.629547e-02 -5.362878e-01 -1.610322e+00 -3.844941e+00 -7.329752e+00 -1.204894e+01 -1.860837e+01 -2.498877e+01 -3.136012e+01 -3.033007e+01 6.345565e-13 3.033007e+01 3.136012e+01 2.498877e+01 1.860837e+01 1.204894e+01 7.329752e+00 3.844941e+00 1.610322e+00 5.362878e-01 1.629547e-02 -1.603863e-01 -2.045052e-01 -1.939639e-01 -1.484624e-01 -8.531426e-02 
-3.384312e-14 1.855399e-01 3.088766e-01 3.801118e-01 3.886242e-01 3.618544e-01 2.216132e-01 -1.235763e-01 -9.627419e-01 -2.745451e+00 -5.488638e+00 -1.043068e+01 -1.675823e+01 -2.507682e+01 -4.480899e+01 -4.556563e+01 6.604971e-13 4.556563e+01 4.480899e+01 2.507682e+01 1.675823e+01 1.043068e+01 5.488638e+00 2.745451e+00 9.627419e-01 1.235763e-01 -2.216132e-01 -3.618544e-01 -3.886242e-01 -3.801118e-01 -3.088766e-01 -1.855399e-01 
-1.369280e-14 4.074785e-01 6.540376e-01 7.534908e-01 7.280352e-01 6.767928e-01 5.431280e-01 3.781608e-01 -6.447660e-01 -1.296604e+00 -1.972984e+00 -6.719661e+00 -8.308372e+00 -2.907514e+01 -5.899094e+01 -4.596943e+01 1.222388e-12 4.596943e+01 5.899094e+01 2.907514e+01 8.308372e+00 6.719661e+00 1.972984e+00 1.296604e+00 6.447660e-01 -3.781608e-01 -5.431280e-01 -6.767928e-01 -7.280352e-01 -7.534908e-01 -6.540376e-01 -4.074785e-01 
-6.280779e-14 8.616210e-01 1.352296e+00 1.480892e+00 1.343309e+00 1.158822e+00 9.368570e-01 8.098989e-01 -1.201049e+00 2.610260e+00 6.135400e+00 -9.055932e+00 -2.128272e+01 -4.227321e+01 -1.945066e+01 1.506465e+01 2.645336e-13 -1.506465e+01 1.945066e+01 4.227321e+01 2.128272e+01 9.055932e+00 -6.135400e+00 -2.610260e+00 1.201049e+00 -8.098989e-01 -9.368570e-01 -1.158822e+00 -1.343309e+00 -1.480892e+00 -1.352296e+00 -8.616210e-01 
-1.286435e-13 1.690703e+00 2.644560e+00 2.817533e+00 2.444873e+00 1.933780e+00 1.430235e+00 1.025362e+00 7.719939e-01 1.283596e+01 7.501754e+00 -2.124993e+01 1.591363e+01 5.795711e+01 6.916002e+01 3.974931e+01 4.648303e-13 -3.974931e+01 -6.916002e+01 -5.795711e+01 -1.591363e+01 2.124993e+01 -7.501754e+00 -1.283596e+01 -7.719939e-01 -1.025362e+00 -1.430235e+00 -1.933780e+00 -2.444873e+00 -2.817533e+00 -2.644560e+00 -1.690703e+00 
-2.572887e-13 2.991797e+00 4.731483e+00 5.007504e+00 4.211301e+00 3.090226e+00 2.113234e+00 4.379736e+00 1.408580e+01 2.283436e+01 2.708522e+01 5.450308e+01 8.562939e+01 5.631647e+01 1.573685e+01 -3.380829e+00 1.062925e-12 3.380829e+00 -1.573685e+01 -5.631647e+01 -8.562939e+01 -5.450308e+01 -2.708522e+01 -2.283436e+01 -1.408580e+01 -4.379736e+00 -2.113234e+00 -3.090226e+00 -4.211301e+00 -5.007504e+00 -4.731483e+00 -2.991797e+00 
-3.920561e-13 4.742312e+00 7.646736e+00 8.117044e+00 6.703066e+00 4.752733e+00 5.825838e+00 2.134613e+01 3.981376e+01 4.647405e+01 4.994383e+01 4.969050e+01 1.502898e+01 -1.304571e+01 -1.601210e+01 -1.093585e+01 -2.129378e-13 1.093585e+01 1.601210e+01 1.304571e+01 -1.502898e+01 -4.969050e+01 -4.994383e+01 -4.647405e+01 -3.981376e+01 -2.134613e+01 -5.825838e+00 -4.752733e+00 -6.703066e+00 -8.117044e+00 -7.646736e+00 -4.742312e+00 
-5.083067e-13 6.857362e+00 1.128857e+01 1.205025e+01 1.001801e+01 8.763484e+00 2.077555e+01 5.158301e+01 4.487049e+01 2.822138e+01 2.420434e+01 4.162007e+00 -1.656930e+01 7.063934e-01 1.704287e+01 1.086178e+01 -6.111731e-13 -1.086178e+01 -1.704287e+01 -7.063934e-01 1.656930e+01 -4.162007e+00 -2.420434e+01 -2.822138e+01 -4.487049e+01 -5.158301e+01 -2.077555e+01 -8.763484e+00 -1.001801e+01 -1.205025e+01 -1.128857e+01 -6.857362e+00 
-6.070708e-13 9.265060e+00 1.542556e+01 1.649661e+01 1.437389e+01 1.820582e+01 4.679721e+01 5.041337e+01 4.336942e+00 1.057472e+01 1.690346e+01 -2.282331e+00 6.055184e+00 1.432340e+01 1.637913e+01 1.101405e+01 -5.956302e-14 -1.101405e+01 -1.637913e+01 -1.432340e+01 -6.055184e+00 2.282331e+00 -1.690346e+01 -1.057472e+01 -4.336942e+00 -5.041337e+01 -4.679721e+01 -1.820582e+01 -1.437389e+01 -1.649661e+01 -1.542556e+01 -9.265060e+00 
-5.466368e-13 1.195295e+01 1.992581e+01 2.152327e+01 2.053448e+01 2.933993e+01 4.636979e+01 2.700687e+00 -1.256884e+01 2.901450e+01 3.951716e+00 -2.084580e+01 4.373532e-01 9.445363e+00 1.108404e+01 8.607549e+00 -1.354678e-13 -8.607549e+00 -1.108404e+01 -9.445363e+00 -4.373532e-01 2.084580e+01 -3.951716e+00 -2.901450e+01 1.256884e+01 -2.700687e+00 -4.636979e+01 -2.933993e+01 -2.053448e+01 -2.152327e+01 -1.992581e+01 -1.195295e+01 
-2.954566e-13 1.445866e+01 2.390664e+01 2.603603e+01 2.580256e+01 3.646699e+01 2.296647e+01 -2.040941e+01 1.887511e+01 3.501498e+01 -2.397989e+01 -2.694702e+01 -2.593485e+00 2.430424e+00 5.012119e+00 4.613979e+00 -1.156662e-13 -4.613979e+00 -5.012119e+00 -2.430424e+00 2.593485e+00 2.694702e+01 2.397989e+01 -3.501498e+01 -1.887511e+01 2.040941e+01 -2.296647e+01 -3.646699e+01 -2.580256e+01 -2.603603e+01 -2.390664e+01 -1.445866e+01 
2.939866e-13 1.522711e+01 2.439965e+01 2.540804e+01 2.288302e+01 2.845624e+01 -1.207113e+00 -8.085336e+00 3.918814e+01 1.927262e+01 -3.179292e+01 -2.718068e+01 -6.928590e+00 -2.430544e+00 5.389391e-01 1.363218e+00 -8.332625e-14 -1.363218e+00 -5.389391e-01 2.430544e+00 6.928590e+00 2.718068e+01 3.179292e+01 -1.927262e+01 -3.918814e+01 8.085336e+00 1.207113e+00 -2.845624e+01 -2.288302e+01 -2.540804e+01 -2.439965e+01 -1.522711e+01 
8.726567e-13 1.108218e+01 1.648099e+01 1.521556e+01 1.207103e+01 1.384785e+01 -9.346406e+00 -3.910842e+00 2.292719e+01 2.546300e+00 -2.221863e+01 -1.821574e+01 -6.768296e+00 -3.173645e+00 -9.933176e-01 -6.345844e-02 -9.601817e-14 6.345844e-02 9.933176e-01 3.173645e+00 6.768296e+00 1.821574e+01 2.221863e+01 -2.546300e+00 -2.292719e+01 3.910842e+00 9.346406e+00 -1.384785e+01 -1.207103e+01 -1.521556e+01 -1.648099e+01 -1.108218e+01 
1.478422e-12 1.483517e-12 1.167303e-12 9.260680e-13 1.252860e-12 2.088198e-12 -2.726018e-13 -4.107527e-12 -2.751917e-12 2.939289e-13 6.730692e-13 1.860297e-13 6.402599e-14 -5.400927e-14 -4.679356e-14 -8.056232e-14 -7.711694e-14 -7.161628e-14 -7.883533e-14 -5.914278e-14 1.965358e-13 8.392510e-13 1.603697e-12 6.959809e-12 9.056422e-12 -2.242298e-12 -7.315384e-12 -1.749168e-12 1.450953e-12 1.091127e-12 7.419884e-13 1.070691e-12 
5.577700e-13 -1.108218e+01 -1.648099e+01 -1.521556e+01 -1.207103e+01 -1.384785e+01 9.346406e+00 3.910842e+00 -2.292719e+01 -2.546300e+00 2.221863e+01 1.821574e+01 6.768296e+00 3.173645e+00 9.933176e-01 6.345844e-02 -1.110518e-14 -6.345844e-02 -9.933176e-01 -3.173645e+00 -6.768296e+00 -1.821574e+01 -2.221863e+01 2.546300e+00 2.292719e+01 -3.910842e+00 -9.346406e+00 1.384785e+01 1.207103e+01 1.521556e+01 1.648099e+01 1.108218e+01 
-7.013084e-13 -1.522711e+01 -2.439965e+01 -2.540804e+01 -2.288302e+01 -2.845624e+01 1.207113e+00 8.085336e+00 -3.918814e+01 -1.927262e+01 3.179292e+01 2.718068e+01 6.928590e+00 2.430544e+00 -5.389391e-01 -1.363218e+00 9.446110e-15 1.363218e+00 5.389391e-01 -2.430544e+00 -6.928590e+00 -2.718068e+01 -3.179292e+01 1.927262e+01 3.918814e+01 -8.085336e+00 -1.207113e+00 2.845624e+01 2.288302e+01 2.540804e+01 2.439965e+01 1.522711e+01 
-9.947899e-13 -1.445866e+01 -2.390664e+01 -2.603603e+01 -2.580256e+01 -3.646699e+01 -2.296647e+01 2.040941e+01 -1.887511e+01 -3.501498e+01 2.397989e+01 2.694702e+01 2.593485e+00 -2.430424e+00 -5.012119e+00 -4.613979e+00 1.674954e-13 4.613979e+00 5.012119e+00 2.430424e+00 -2.593485e+00 -2.694702e+01 -2.397989e+01 3.501498e+01 1.887511e+01 -2.040941e+01 2.296647e+01 3.646699e+01 2.580256e+01 2.603603e+01 2.390664e+01 1.445866e+01 
-1.013006e-12 -1.195295e+01 -1.992581e+01 -2.152327e+01 -2.053448e+01 -2.933993e+01 -4.636979e+01 -2.700687e+00 1.256884e+01 -2.901450e+01 -3.951716e+00 2.084580e+01 -4.373532e-01 -9.445363e+00 -1.108404e+01 -8.607549e+00 3.082032e-13 8.607549e+00 1.108404e+01 9.445363e+00 4.373532e-01 -2.084580e+01 3.951716e+00 2.901450e+01 -1.256884e+01 2.700687e+00 4.636979e+01 2.933993e+01 2.053448e+01 2.152327e+01 1.992581e+01 1.195295e+01 
-8.591083e-13 -9.265060e+00 -1.542556e+01 -1.649661e+01 -1.437389e+01 -1.820582e+01 -4.679721e+01 -5.041337e+01 -4.336942e+00 -1.057472e+01 -1.690346e+01 2.282331e+00 -6.055184e+00 -1.432340e+01 -1.637913e+01 -1.101405e+01 4.731234e-13 1.101405e+01 1.637913e+01 1.432340e+01 6.055184e+00 -2.282331e+00 1.690346e+01 1.057472e+01 4.336942e+00 5.041337e+01 4.679721e+01 1.820582e+01 1.437389e+01 1.649661e+01 1.542556e+01 9.265060e+00 
-6.153643e-13 -6.857362e+00 -1.128857e+01 -1.205025e+01 -1.001801e+01 -8.763484e+00 -2.077555e+01 -5.158301e+01 -4.487049e+01 -2.822138e+01 -2.420434e+01 -4.162007e+00 1.656930e+01 -7.063934e-01 -1.704287e+01 -1.086178e+01 6.936994e-14 1.086178e+01 1.704287e+01 7.063934e-01 -1.656930e+01 4.162007e+00 2.420434e+01 2.822138e+01 4.487049e+01 5.158301e+01 2.077555e+01 8.763484e+00 1.001801e+01 1.205025e+01 1.128857e+01 6.857362e+00 
-4.332266e-13 -4.742312e+00 -7.646736e+00 -8.117044e+00 -6.703066e+00 -4.752733e+00 -5.825838e+00 -2.134613e+01 -3.981376e+01 -4.647405e+01 -4.994383e+01 -4.969050e+01 -1.502898e+01 1.304571e+01 1.601210e+01 1.093585e+01 1.226044e-12 -1.093585e+01 -1.601210e+01 -1.304571e+01 1.502898e+01 4.969050e+01 4.994383e+01 4.647405e+01 3.981376e+01 2.134613e+01 5.825838e+00 4.752733e+00 6.703066e+00 8.117044e+00 7.646736e+00 4.742312e+00 
-2.314643e-13 -2.991797e+00 -4.731483e+00 -5.007504e+00 -4.211301e+00 -3.090226e+00 -2.113234e+00 -4.379736e+00 -1.408580e+01 -2.283436e+01 -2.708522e+01 -5.450308e+01 -8.562939e+01 -5.631647e+01 -1.573685e+01 3.380829e+00 3.753411e-12 -3.380829e+00 1.573685e+01 5.631647e+01 8.562939e+01 5.450308e+01 2.708522e+01 2.283436e+01 1.408580e+01 4.379736e+00 2.113234e+00 3.090226e+00 4.211301e+00 5.007504e+00 4.731483e+00 2.991797e+00 
-1.084431e-13 -1.690703e+00 -2.644560e+00 -2.817533e+00 -2.444873e+00 -1.933780e+00 -1.430235e+00 -1.025362e+00 -7.719939e-01 -1.283596e+01 -7.501754e+00 2.124993e+01 -1.591363e+01 -5.795711e+01 -6.916002e+01 -3.974931e+01 5.745293e-12 3.974931e+01 6.916002e+01 5.795711e+01 1.591363e+01 -2.124993e+01 7.501754e+00 1.283596e+01 7.719939e-01 1.025362e+00 1.430235e+00 1.933780e+00 2.444873e+00 2.817533e+00 2.644560e+00 1.690703e+00 
-5.310691e-14 -8.616210e-01 -1.352296e+00 -1.480892e+00 -1.343309e+00 -1.158822e+00 -9.368570e-01 -8.098989e-01 1.201049e+00 -2.610260e+00 -6.135400e+00 9.055932e+00 2.128272e+01 4.227321e+01 1.945066e+01 -1.506465e+01 2.412012e-12 1.506465e+01 -1.945066e+01 -4.227321e+01 -2.128272e+01 -9.055932e+00 6.135400e+00 2.610260e+00 -1.201049e+00 8.098989e-01 9.368570e-01 1.158822e+00 1.343309e+00 1.480892e+00 1.352296e+00 8.616210e-01 
-4.025843e-14 -4.074785e-01 -6.540376e-01 -7.534908e-01 -7.280352e-01 -6.767928e-01 -5.431280e-01 -3.781608e-01 6.447660e-01 1.296604e+00 1.972984e+00 6.719661e+00 8.308372e+00 2.907514e+01 5.899094e+01 4.596943e+01 -3.542219e-12 -4.596943e+01 -5.899094e+01 -2.907514e+01 -8.308372e+00 -6.719661e+00 -1.972984e+00 -1.296604e+00 -6.447660e-01 3.781608e-01 5.431280e-01 6.767928e-01 7.280352e-01 7.534908e-01 6.540376e-01 4.074785e-01 
-1.882881e-14 -1.855399e-01 -3.088766e-01 -3.801118e-01 -3.886242e-01 -3.618544e-01 -2.216132e-01 1.235763e-01 9.627419e-01 2.745451e+00 5.488638e+00 1.043068e+01 1.675823e+01 2.507682e+01 4.480899e+01 4.556563e+01 -1.330632e-13 -4.556563e+01 -4.480899e+01 -2.507682e+01 -1.675823e+01 -1.043068e+01 -5.488638e+00 -2.745451e+00 -9.627419e-01 -1.235763e-01 2.216132e-01 3.618544e-01 3.886242e-01 3.801118e-01 3.088766e-01 1.855399e-01 
-3.784242e-14 -8.531426e-02 -1.484624e-01 -1.939639e-01 -2.045052e-01 -1.603863e-01 1.629547e-02 5.362878e-01 1.610322e+00 3.844941e+00 7.329752e+00 1.204894e+01 1.860837e+01 2.498877e+01 3.136012e+01 3.033007e+01 1.009771e-12 -3.033007e+01 -3.136012e+01 -2.498877e+01 -1.860837e+01 -1.204894e+01 -7.329752e+00 -3.844941e+00 -1.610322e+00 -5.362878e-01 -1.629547e-02 1.603863e-01 2.045052e-01 1.939639e-01 1.484624e-01 8.531426e-02 
-5.170213e-14 -3.845408e-02 -6.923693e-02 -9.310615e-02 -9.409999e-02 -3.279302e-02 1.639974e-01 7.382338e-01 1.888206e+00 4.093510e+00 7.326278e+00 1.140377e+01 1.569116e+01 1.906871e+01 2.045399e+01 1.712524e+01 1.383242e-12 -1.712524e+01 -2.045399e+01 -1.906871e+01 -1.569116e+01 -1.140377e+01 -7.326278e+00 -4.093510e+00 -1.888206e+00 -7.382338e-01 -1.639974e-01 3.279302e-02 9.409999e-02 9.310615e-02 6.923693e-02 3.845408e-02 
-5.082622e-14 -1.530106e-02 -2.817243e-02 -3.799754e-02 -3.547035e-02 1.012451e-02 1.472920e-01 5.406421e-01 1.320458e+00 2.734565e+00 4.738410e+00 7.065266e+00 9.267268e+00 1.059348e+01 1.040539e+01 7.768248e+00 1.316036e-12 -7.768248e+00 -1.040539e+01 -1.059348e+01 -9.267268e+00 -7.065266e+00 -4.738410e+00 -2.734565e+00 -1.320458e+00 -5.406421e-01 -1.472920e-01 -1.012451e-02 3.547035e-02 3.799754e-02 2.817243e-02 1.530106e-02 
