# vtk DataFile Version 2.0
Comment goes here
ASCII

DATASET STRUCTURED_POINTS
FIELD FieldData 1
TIME 1 1 double
0.92000000
DIMENSIONS    32   32   1

ORIGIN    0.000   0.000   0.000
SPACING   0.03125 0.03125   1.000

POINT_DATA   1024
SCALARS Omega double
LOOKUP_TABLE default

-4.370965e-14 -4.240697e-14 -3.301249e-14 -4.352267e-14 -1.080027e-13 -1.548326e-13 -2.330058e-13 -2.567908e-13 -2.714621e-13 -2.596790e-13 -2.564425e-13 -2.198494e-13 -1.042969e-13 4.035508e-15 9.534697e-14 -2.471738e-13 -8.170863e-13 -7.973938e-13 -6.048981e-13 -1.950145e-13 4.875071e-14 6.814500e-14 1.634796e-14 -7.239061e-14 -2.193706e-13 -2.249949e-13 -2.447749e-13 -1.512670e-13 -1.139642e-13 -5.055408e-14 -3.606923e-14 -3.061573e-14 
-3.584783e-14 3.629344e-02 2.726495e-02 -7.974778e-02 -3.462988e-01 -8.768140e-01 -1.754089e+00 -3.022642e+00 -4.607899e+00 -6.357423e+00 -8.083155e+00 -9.605222e+00 -1.087568e+01 -1.174683e+01 -1.150802e+01 -8.238184e+00 -7.854896e-13 8.238184e+00 1.150802e+01 1.174683e+01 1.087568e+01 9.605222e+00 8.083155e+00 6.357423e+00 4.607899e+00 3.022642e+00 1.754089e+00 8.768140e-01 3.462988e-01 7.974778e-02 -2.726495e-02 -3.629344e-02 
-2.266771e-14 1.209175e-01 1.446319e-01 -1.892300e-02 -4.561909e-01 -1.332918e+00 -2.795703e+00 -4.940269e+00 -7.657765e+00 -1.070720e+01 -1.381400e+01 -1.669088e+01 -1.931901e+01 -2.142352e+01 -2.132047e+01 -1.501711e+01 1.592162e-13 1.501711e+01 2.132047e+01 2.142352e+01 1.931901e+01 1.669088e+01 1.381400e+01 1.070720e+01 7.657765e+00 4.940269e+00 2.795703e+00 1.332918e+00 4.561909e-01 1.892300e-02 -1.446319e-01 -1.209175e-01 
-8.404188e-14 3.115878e-01 4.454318e-01 2.861816e-01 -2.234462e-01 -1.239833e+00 -2.935043e+00 -5.458291e+00 -8.702243e+00 -1.235244e+01 -1.612457e+01 -1.963171e+01 -2.308246e+01 -2.646112e+01 -2.697232e+01 -1.839969e+01 1.431442e-12 1.839969e+01 2.697232e+01 2.646112e+01 2.308246e+01 1.963171e+01 1.612457e+01 1.235244e+01 8.702243e+00 5.458291e+00 2.935043e+00 1.239833e+00 2.234462e-01 -2.861816e-01 -4.454318e-01 -3.115878e-01 
-2.018619e-13 6.853585e-01 1.049874e+00 9.475452e-01 4.045461e-01 -6.267876e-01 -2.274996e+00 -4.709338e+00 -7.860768e+00 -1.137752e+01 -1.502508e+01 -1.840730e+01 -2.222455e+01 -2.698196e+01 -2.817809e+01 -1.813346e+01 2.163928e-12 1.813346e+01 2.817809e+01 2.698196e+01 2.222455e+01 1.840730e+01 1.502508e+01 1.137752e+01 7.860768e+00 4.709338e+00 2.274996e+00 6.267876e-01 -4.045461e-01 -9.475452e-01 -1.049874e+00 -6.853585e-01 
-3.681354e-13 1.330802e+00 2.108930e+00 2.119823e+00 1.505426e+00 4.127756e-01 -1.153113e+00 -3.338560e+00 -6.118378e+00 -9.147230e+00 -1.248265e+01 -1.580904e+01 -2.018384e+01 -2.580494e+01 -2.654041e+01 -1.571904e+01 2.053808e-12 1.571904e+01 2.654041e+01 2.580494e+01 2.018384e+01 1.580904e+01 1.248265e+01 9.147230e+00 6.118378e+00 3.338560e+00 1.153113e+00 -4.127756e-01 -1.505426e+00 -2.119823e+00 -2.108930e+00 -1.330802e+00 
-5.538187e-13 2.296735e+00 3.721669e+00 3.933263e+00 3.183238e+00 1.903373e+00 2.903374e-01 -1.672434e+00 -4.039939e+00 -6.372046e+00 -9.866737e+00 -1.769561e+01 -2.434609e+01 -3.107612e+01 -2.893739e+01 -1.461642e+01 2.069166e-12 1.461642e+01 2.893739e+01 3.107612e+01 2.434609e+01 1.769561e+01 9.866737e+00 6.372046e+00 4.039939e+00 1.672434e+00 -2.903374e-01 -1.903373e+00 -3.183238e+00 -3.933263e+00 -3.721669e+00 -2.296735e+00 
-6.168364e-13 3.575575e+00 5.900982e+00 6.432474e+00 5.514419e+00 3.879895e+00 1.968271e+00 -8.067899e-02 -2.011143e+00 -4.325987e+00 -1.427177e+01 -4.290728e+01 -4.434927e+01 -1.911935e+01 8.719129e+00 1.553247e+01 2.027220e-12 -1.553247e+01 -8.719129e+00 1.911935e+01 4.434927e+01 4.290728e+01 1.427177e+01 4.325987e+00 2.011143e+00 8.067899e-02 -1.968271e+00 -3.879895e+00 -5.514419e+00 -6.432474e+00 -5.900982e+00 -3.575575e+00 
-5.969948e-13 5.100786e+00 8.526861e+00 9.477504e+00 8.392600e+00 6.351845e+00 3.987159e+00 1.987622e+00 -6.474327e-01 -9.433363e+00 -3.627791e+01 -4.023161e+01 9.615156e+00 3.876369e+01 2.721131e+01 1.338623e+01 -4.659606e-12 -1.338623e+01 -2.721131e+01 -3.876369e+01 -9.615156e+00 4.023161e+01 3.627791e+01 9.433363e+00 6.474327e-01 -1.987622e+00 -3.987159e+00 -6.351845e+00 -8.392600e+00 -9.477504e+00 -8.526861e+00 -5.100786e+00 
-3.144890e-13 6.807148e+00 1.143827e+01 1.282038e+01 1.155527e+01 9.083218e+00 6.012828e+00 1.688381e+00 -9.054806e+00 -2.233917e+01 -2.846172e+01 5.052038e+00 1.790928e+01 -1.022592e+01 -4.090423e+01 -2.767981e+01 -9.038129e-12 2.767981e+01 4.090423e+01 1.022592e+01 -1.790928e+01 -5.052038e+00 2.846172e+01 2.233917e+01 9.054806e+00 -1.688381e+00 -6.012828e+00 -9.083218e+00 -1.155527e+01 -1.282038e+01 -1.143827e+01 -6.807148e+00 
3.215438e-15 8.630232e+00 1.450273e+01 1.628387e+01 1.499707e+01 1.189708e+01 6.349498e+00 -3.990396e-01 -1.391647e+00 -3.715197e+01 -2.934989e+01 -1.101142e+01 -3.262989e+01 -3.401373e+01 -2.118359e+01 -4.165588e+00 -3.041881e-12 4.165588e+00 2.118359e+01 3.401373e+01 3.262989e+01 1.101142e+01 2.934989e+01 3.715197e+01 1.391647e+00 3.990396e-01 -6.349498e+00 -1.189708e+01 -1.499707e+01 -1.628387e+01 -1.450273e+01 -8.630232e+00 
4.598919e-13 1.037774e+01 1.739450e+01 1.965206e+01 1.861985e+01 1.569289e+01 1.106276e+01 1.619925e+01 -9.417404e+00 -6.988579e+01 -2.897228e+01 -1.304559e+01 1.008468e+00 2.329210e+01 2.598083e+01 2.010482e+01 -1.151199e-12 -2.010482e+01 -2.598083e+01 -2.329210e+01 -1.008468e+00 1.304559e+01 2.897228e+01 6.988579e+01 9.417404e+00 -1.619925e+01 -1.106276e+01 -1.569289e+01 -1.861985e+01 -1.965206e+01 -1.739450e+01 -1.037774e+01 
6.788496e-13 1.165062e+01 1.961078e+01 2.269233e+01 2.286460e+01 2.116753e+01 1.904298e+01 3.169474e+01 -6.312936e+01 -6.107140e+01 1.557325e+01 5.864954e+00 8.491551e+00 1.055308e+01 9.498582e+00 7.274413e+00 -3.880318e-13 -7.274413e+00 -9.498582e+00 -1.055308e+01 -8.491551e+00 -5.864954e+00 -1.557325e+01 6.107140e+01 6.312936e+01 -3.169474e+01 -1.904298e+01 -2.116753e+01 -2.286460e+01 -2.269233e+01 -1.961078e+01 -1.165062e+01 
6.550579e-13 1.184279e+01 2.027269e+01 2.497201e+01 2.695517e+01 2.780503e+01 3.846925e+01 1.301008e+01 -9.162317e+01 -1.477571e+01 2.395656e+01 -3.844739e+00 -2.749061e+00 -4.328514e-01 2.144790e+00 2.520876e+00 1.390761e-13 -2.520876e+00 -2.144790e+00 4.328514e-01 2.749061e+00 3.844739e+00 -2.395656e+01 1.477571e+01 9.162317e+01 -1.301008e+01 -3.846925e+01 -2.780503e+01 -2.695517e+01 -2.497201e+01 -2.027269e+01 -1.184279e+01 
1.046588e-13 1.018345e+01 1.804100e+01 2.434191e+01 2.961941e+01 3.905358e+01 5.879348e+01 -2.987482e+01 -6.974444e+01 6.865773e+00 2.962145e+00 -8.640077e+00 -6.450125e+00 -2.764212e+00 -4.595661e-02 8.264218e-01 1.015331e-13 -8.264218e-01 4.595661e-02 2.764212e+00 6.450125e+00 8.640077e+00 -2.962145e+00 -6.865773e+00 6.974444e+01 2.987482e+01 -5.879348e+01 -3.905358e+01 -2.961941e+01 -2.434191e+01 -1.804100e+01 -1.018345e+01 
-6.056240e-13 5.931662e+00 1.101441e+01 1.634844e+01 2.291889e+01 3.308824e+01 3.892932e+01 -4.420340e+01 -2.965429e+01 1.167227e+01 -6.868976e+00 -1.090445e+01 -6.794375e+00 -3.150854e+00 -8.344233e-01 7.744281e-02 8.056617e-14 -7.744281e-02 8.344233e-01 3.150854e+00 6.794375e+00 1.090445e+01 6.868976e+00 -1.167227e+01 2.965429e+01 4.420340e+01 -3.892932e+01 -3.308824e+01 -2.291889e+01 -1.634844e+01 -1.101441e+01 -5.931662e+00 
-1.357516e-12 -1.561734e-12 -1.598810e-12 -1.255217e-12 -5.034490e-13 6.434423e-13 4.199155e-12 9.763151e-13 4.034378e-13 -9.115066e-13 -3.231702e-12 -1.098400e-12 -2.123469e-13 -7.984943e-14 7.043513e-14 -3.653805e-14 1.067845e-13 1.328277e-13 3.230418e-13 4.148730e-13 4.183191e-13 -5.489992e-13 -2.121212e-12 -4.369822e-12 -9.480171e-12 -3.433732e-12 4.752238e-12 -9.387845e-13 -1.472024e-12 -1.700869e-12 -1.658833e-12 -1.473593e-12 
-1.199908e-12 -5.931662e+00 -1.101441e+01 -1.634844e+01 -2.291889e+01 -3.308824e+01 -3.892932e+01 4.420340e+01 2.965429e+01 -1.167227e+01 6.868976e+00 1.090445e+01 6.794375e+00 3.150854e+00 8.344233e-01 -7.744281e-02 1.271683e-13 7.744281e-02 -8.344233e-01 -3.150854e+00 -6.794375e+00 -1.090445e+01 -6.868976e+00 1.167227e+01 -2.965429e+01 -4.420340e+01 3.892932e+01 3.308824e+01 2.291889e+01 1.634844e+01 1.101441e+01 5.931662e+00 
-5.159752e-13 -1.018345e+01 -1.804100e+01 -2.434191e+01 -2.961941e+01 -3.905358e+01 -5.879348e+01 2.987482e+01 6.974444e+01 -6.865773e+00 -2.962145e+00 8.640077e+00 6.450125e+00 2.764212e+00 4.595661e-02 -8.264218e-01 3.037611e-13 8.264218e-01 -4.595661e-02 -2.764212e+00 -6.450125e+00 -8.640077e+00 2.962145e+00 6.865773e+00 -6.974444e+01 -2.987482e+01 5.879348e+01 3.905358e+01 2.961941e+01 2.434191e+01 1.804100e+01 1.018345e+01 
-9.688880e-14 -1.184279e+01 -2.027269e+01 -2.497201e+01 -2.695517e+01 -2.780503e+01 -3.846925e+01 -1.301008e+01 9.162317e+01 1.477571e+01 -2.395656e+01 3.844739e+00 2.749061e+00 4.328514e-01 -2.144790e+00 -2.520876e+00 5.966429e-13 2.520876e+00 2.144790e+00 -4.328514e-01 -2.749061e+00 -3.844739e+00 2.395656e+01 -1.477571e+01 -9.162317e+01 1.301008e+01 3.846925e+01 2.780503e+01 2.695517e+01 2.497201e+01 2.027269e+01 1.184279e+01 
-4.333624e-14 -1.165062e+01 -1.961078e+01 -2.269233e+01 -2.286460e+01 -2.116753e+01 -1.904298e+01 -3.169474e+01 6.312936e+01 6.107140e+01 -1.557325e+01 -5.864954e+00 -8.491551e+00 -1.055308e+01 -9.498582e+00 -7.274413e+00 5.262117e-13 7.274413e+00 9.498582e+00 1.055308e+01 8.491551e+00 5.864954e+00 1.557325e+01 -6.107140e+01 -6.312936e+01 3.169474e+01 1.904298e+01 2.116753e+01 2.286460e+01 2.269233e+01 1.961078e+01 1.165062e+01 
-1.858784e-13 -1.037774e+01 -1.739450e+01 -1.965206e+01 -1.861985e+01 -1.569289e+01 -1.106276e+01 -1.619925e+01 9.417404e+00 6.988579e+01 2.897228e+01 1.304559e+01 -1.008468e+00 -2.329210e+01 -2.598083e+01 -2.010482e+01 -5.637501e-13 2.010482e+01 2.598083e+01 2.329210e+01 1.008468e+00 -1.304559e+01 -2.897228e+01 -6.988579e+01 -9.417404e+00 1.619925e+01 1.106276e+01 1.569289e+01 1.861985e+01 1.965206e+01 1.739450e+01 1.037774e+01 
-5.597705e-13 -8.630232e+00 -1.450273e+01 -1.628387e+01 -1.499707e+01 -1.189708e+01 -6.349498e+00 3.990396e-01 1.391647e+00 3.715197e+01 2.934989e+01 1.101142e+01 3.262989e+01 3.401373e+01 2.118359e+01 4.165588e+00 -5.103173e-12 -4.165588e+00 -2.118359e+01 -3.401373e+01 -3.262989e+01 -1.101142e+01 -2.934989e+01 -3.715197e+01 -1.391647e+00 -3.990396e-01 6.349498e+00 1.189708e+01 1.499707e+01 1.628387e+01 1.450273e+01 8.630232e+00 
-7.992323e-13 -6.807148e+00 -1.143827e+01 -1.282038e+01 -1.155527e+01 -9.083218e+00 -6.012828e+00 -1.688381e+00 9.054806e+00 2.233917e+01 2.846172e+01 -5.052038e+00 -1.790928e+01 1.022592e+01 4.090423e+01 2.767981e+01 -8.329606e-12 -2.767981e+01 -4.090423e+01 -1.022592e+01 1.790928e+01 5.052038e+00 -2.846172e+01 -2.233917e+01 -9.054806e+00 1.688381e+00 6.012828e+00 9.083218e+00 1.155527e+01 1.282038e+01 1.143827e+01 6.807148e+00 
-9.448868e-13 -5.100786e+00 -8.526861e+00 -9.477504e+00 -8.392600e+00 -6.351845e+00 -3.987159e+00 -1.987622e+00 6.474327e-01 9.433363e+00 3.627791e+01 4.023161e+01 -9.615156e+00 -3.876369e+01 -2.721131e+01 -1.338623e+01 1.291833e-12 1.338623e+01 2.721131e+01 3.876369e+01 9.615156e+00 -4.023161e+01 -3.627791e+01 -9.433363e+00 -6.474327e-01 1.987622e+00 3.987159e+00 6.351845e+00 8.392600e+00 9.477504e+00 8.526861e+00 5.100786e+00 
-8.437979e-13 -3.575575e+00 -5.900982e+00 -6.432474e+00 -5.514419e+00 -3.879895e+00 -1.968271e+00 8.067899e-02 2.011143e+00 4.325987e+00 1.427177e+01 4.290728e+01 4.434927e+01 1.911935e+01 -8.719129e+00 -1.553247e+01 6.331720e-12 1.553247e+01 8.719129e+00 -1.911935e+01 -4.434927e+01 -4.290728e+01 -1.427177e+01 -4.325987e+00 -2.011143e+00 -8.067899e-02 1.968271e+00 3.879895e+00 5.514419e+00 6.432474e+00 5.900982e+00 3.575575e+00 
-6.621411e-13 -2.296735e+00 -3.721669e+00 -3.933263e+00 -3.183238e+00 -1.903373e+00 -2.903374e-01 1.672434e+00 4.039939e+00 6.372046e+00 9.866737e+00 1.769561e+01 2.434609e+01 3.107612e+01 2.893739e+01 1.461642e+01 -6.509139e-13 -1.461642e+01 -2.893739e+01 -3.107612e+01 -2.434609e+01 -1.769561e+01 -9.866737e+00 -6.372046e+00 -4.039939e+00 -1.672434e+00 2.903374e-01 1.903373e+00 3.183238e+00 3.933263e+00 3.721669e+00 2.296735e+00 
-4.237985e-13 -1.330802e+00 -2.108930e+00 -2.119823e+00 -1.505426e+00 -4.127756e-01 1.153113e+00 3.338560e+00 6.118378e+00 9.147230e+00 1.248265e+01 1.580904e+01 2.018384e+01 2.580494e+01 2.654041e+01 1.571904e+01 -1.289180e-12 -1.571904e+01 -2.654041e+01 -2.580494e+01 -2.018384e+01 -1.580904e+01 -1.248265e+01 -9.147230e+00 -6.118378e+00 -3.338560e+00 -1.153113e+00 4.127756e-01 1.505426e+00 2.119823e+00 2.108930e+00 1.330802e+00 
-2.396811e-13 -6.853585e-01 -1.049874e+00 -9.475452e-01 -4.045461e-01 6.267876e-01 2.274996e+00 4.709338e+00 7.860768e+00 1.137752e+01 1.502508e+01 1.840730e+01 2.222455e+01 2.698196e+01 2.817809e+01 1.813346e+01 3.228999e-13 -1.813346e+01 -2.817809e+01 -2.698196e+01 -2.222455e+01 -1.840730e+01 -1.502508e+01 -1.137752e+01 -7.860768e+00 -4.709338e+00 -2.274996e+00 -6.267876e-01 4.045461e-01 9.475452e-01 1.049874e+00 6.853585e-01 
-1.272067e-13 -3.115878e-01 -4.454318e-01 -2.861816e-01 2.234462e-01 1.239833e+00 2.935043e+00 5.458291e+00 8.702243e+00 1.235244e+01 1.612457e+01 1.963171e+01 2.308246e+01 2.646112e+01 2.697232e+01 1.839969e+01 1.269368e-12 -1.839969e+01 -2.697232e+01 -2.646112e+01 -2.308246e+01 -1.963171e+01 -1.612457e+01 -1.235244e+01 -8.702243e+00 -5.458291e+00 -2.935043e+00 -1.239833e+00 -2.234462e-01 2.861816e-01 4.454318e-01 3.115878e-01 
-5.906407e-14 -1.209175e-01 -1.446319e-01 1.892300e-02 4.561909e-01 1.332918e+00 2.795703e+00 4.940269e+00 7.657765e+00 1.070720e+01 1.381400e+01 1.669088e+01 1.931901e+01 2.142352e+01 2.132047e+01 1.501711e+01 9.499189e-13 -1.501711e+01 -2.132047e+01 -2.142352e+01 -1.931901e+01 -1.669088e+01 -1.381400e+01 -1.070720e+01 -7.657765e+00 -4.940269e+00 -2.795703e+00 -1.332918e+00 -4.561909e-01 -1.892300e-02 1.446319e-01 1.209175e-01 
-5.444135e-14 -3.629344e-02 -2.726495e-02 7.974778e-02 3.462988e-01 8.768140e-01 1.754089e+00 3.022642e+00 4.607899e+00 6.357423e+00 8.083155e+00 9.605222e+00 1.087568e+01 1.174683e+01 1.150802e+01 8.238184e+00 -1.152191e-13 -8.238184e+00 -1.150802e+01 -1.174683e+01 -1.087568e+01 -9.605222e+00 -8.083155e+00 -6.357423e+00 -4.607899e+00 -3.022642e+00 -1.754089e+00 -8.768140e-01 -3.462988e-01 -7.974778e-02 2.726495e-02 3.629344e-02 
