# vtk DataFile Version 2.0
Comment goes here
ASCII

DATASET STRUCTURED_POINTS
FIELD FieldData 1
TIME 1 1 double
0.02000000
DIMENSIONS    32   32   1

ORIGIN    0.000   0.000   0.000
SPACING   0.03125 0.03125   1.000

POINT_DATA   1024
SCALARS Omega double
LOOKUP_TABLE default

1.820288e-14 8.061137e-15 -1.664528e-14 -2.756217e-14 -3.716495e-14 -1.687701e-14 -1.397922e-14 7.335044e-15 9.677405e-15 -1.660985e-15 -1.761693e-14 -5.305849e-15 -8.316034e-15 5.906050e-14 1.555057e-14 -7.312349e-14 -9.851557e-15 7.095955e-14 7.030226e-14 -2.767454e-15 5.595440e-14 -6.232714e-17 4.744221e-15 9.041961e-15 6.485597e-15 -9.976459e-15 1.284443e-14 -2.182000e-14 -1.906347e-14 -2.172160e-14 -4.059782e-15 5.102869e-15 
-6.922738e-15 9.701504e-05 3.459100e-04 2.187387e-04 4.493148e-04 -5.765211e-05 -9.965842e-04 -3.072447e-03 -6.864270e-03 -1.673798e-02 -4.512895e-02 -6.305140e-02 -7.734145e-02 9.391169e-01 -2.518944e-01 -5.269486e+00 6.044501e-14 5.269486e+00 2.518944e-01 -9.391169e-01 7.734145e-02 6.305140e-02 4.512895e-02 1.673798e-02 6.864270e-03 3.072447e-03 9.965842e-04 5.765211e-05 -4.493148e-04 -2.187387e-04 -3.459100e-04 -9.701504e-05 
1.456631e-14 -4.810027e-04 -8.709882e-04 -1.725722e-03 -2.128018e-03 -3.136237e-03 -3.779415e-03 -4.970271e-04 1.010500e-02 3.811331e-02 8.016486e-02 1.689703e+00 4.596180e+00 -8.067282e+00 -3.289968e+01 -2.498715e+01 1.720010e-13 2.498715e+01 3.289968e+01 8.067282e+00 -4.596180e+00 -1.689703e+00 -8.016486e-02 -3.811331e-02 -1.010500e-02 4.970271e-04 3.779415e-03 3.136237e-03 2.128018e-03 1.725722e-03 8.709882e-04 4.810027e-04 
2.061959e-14 2.013849e-04 1.005469e-03 3.806680e-04 1.890930e-03 2.389535e-04 -2.219480e-03 -1.889035e-03 -1.677153e-02 -2.312116e-01 2.142299e-01 7.869162e+00 1.222903e+01 3.439469e+01 9.736599e+01 9.286647e+01 6.552673e-13 -9.286647e+01 -9.736599e+01 -3.439469e+01 -1.222903e+01 -7.869162e+00 -2.142299e-01 2.312116e-01 1.677153e-02 1.889035e-03 2.219480e-03 -2.389535e-04 -1.890930e-03 -3.806680e-04 -1.005469e-03 -2.013849e-04 
5.299664e-16 -5.724474e-04 -7.240209e-04 -2.440051e-03 -1.401867e-03 -5.332207e-03 -8.345102e-03 1.191910e-02 -7.051834e-02 -2.667192e-01 8.575836e+00 4.329759e+01 1.132172e+02 1.817858e+02 1.441019e+02 3.822162e+01 2.832953e-13 -3.822162e+01 -1.441019e+02 -1.817858e+02 -1.132172e+02 -4.329759e+01 -8.575836e+00 2.667192e-01 7.051834e-02 -1.191910e-02 8.345102e-03 5.332207e-03 1.401867e-03 2.440051e-03 7.240209e-04 5.724474e-04 
5.061410e-15 3.885993e-06 1.218003e-03 -1.085935e-03 3.869615e-03 -5.142192e-03 1.685266e-04 4.012042e-02 -1.908130e-01 5.223198e+00 5.497942e+01 1.307726e+02 1.650035e+02 9.064515e+01 -4.658675e+01 -6.513133e+01 -3.833890e-13 6.513133e+01 4.658675e+01 -9.064515e+01 -1.650035e+02 -1.307726e+02 -5.497942e+01 -5.223198e+00 1.908130e-01 -4.012042e-02 -1.685266e-04 5.142192e-03 -3.869615e-03 1.085935e-03 -1.218003e-03 -3.885993e-06 
1.924932e-14 -1.890471e-04 4.496843e-04 -1.840732e-03 5.030609e-03 -1.299728e-02 3.384244e-02 9.796908e-03 1.890046e+00 3.734070e+01 1.207320e+02 1.438310e+02 7.399674e+01 -5.286909e+01 -8.761494e+01 -2.458814e+01 -1.897146e-13 2.458814e+01 8.761494e+01 5.286909e+01 -7.399674e+01 -1.438310e+02 -1.207320e+02 -3.734070e+01 -1.890046e+00 -9.796908e-03 -3.384244e-02 1.299728e-02 -5.030609e-03 1.840732e-03 -4.496843e-04 1.890471e-04 
2.150867e-14 -2.912435e-04 3.533018e-04 -2.971184e-03 4.383950e-03 -2.269427e-02 7.038812e-02 6.273286e-01 1.261745e+01 8.389623e+01 1.356270e+02 9.077304e+01 -2.847389e+01 -9.598940e+01 -3.584281e+01 -2.309774e+00 -2.140372e-14 2.309774e+00 3.584281e+01 9.598940e+01 2.847389e+01 -9.077304e+01 -1.356270e+02 -8.389623e+01 -1.261745e+01 -6.273286e-01 -7.038812e-02 2.269427e-02 -4.383950e-03 2.971184e-03 -3.533018e-04 2.912435e-04 
3.178407e-15 2.222208e-04 1.723187e-04 2.037074e-03 1.493010e-03 2.673758e-02 2.403495e-01 3.707336e+00 3.148263e+01 1.064347e+02 1.093481e+02 2.864311e+01 -9.118664e+01 -8.757635e+01 -1.051376e+01 -8.922979e-01 -4.329952e-15 8.922979e-01 1.051376e+01 8.757635e+01 9.118664e+01 -2.864311e+01 -1.093481e+02 -1.064347e+02 -3.148263e+01 -3.707336e+00 -2.403495e-01 -2.673758e-02 -1.493010e-03 -2.037074e-03 -1.723187e-04 -2.222208e-04 
1.715714e-14 -8.952559e-04 -1.435802e-03 -1.922631e-03 -6.220940e-03 5.516861e-02 7.178613e-01 8.648029e+00 5.125477e+01 1.035700e+02 7.742583e+01 -3.123798e+01 -1.062766e+02 -4.890721e+01 -3.886919e+00 -4.111734e-01 1.599725e-14 4.111734e-01 3.886919e+00 4.890721e+01 1.062766e+02 3.123798e+01 -7.742583e+01 -1.035700e+02 -5.125477e+01 -8.648029e+00 -7.178613e-01 -5.516861e-02 6.220940e-03 1.922631e-03 1.435802e-03 8.952559e-04 
7.592964e-15 -1.156554e-03 1.478384e-03 -5.042198e-03 5.484633e-03 9.154645e-02 1.496545e+00 1.305956e+01 6.070009e+01 8.609669e+01 4.496045e+01 -6.781054e+01 -9.266779e+01 -2.065021e+01 -2.036349e+00 -1.279574e-01 -3.040968e-14 1.279574e-01 2.036349e+00 2.065021e+01 9.266779e+01 6.781054e+01 -4.496045e+01 -8.609669e+01 -6.070009e+01 -1.305956e+01 -1.496545e+00 -9.154645e-02 -5.484633e-03 5.042198e-03 -1.478384e-03 1.156554e-03 
1.594576e-14 -2.963765e-03 2.948114e-03 -1.245334e-02 2.212688e-02 1.574380e-01 2.337444e+00 1.644432e+01 6.318659e+01 6.942683e+01 1.516311e+01 -7.675075e+01 -7.143327e+01 -1.009848e+01 -1.072977e+00 -6.802056e-02 -2.664649e-14 6.802056e-02 1.072977e+00 1.009848e+01 7.143327e+01 7.675075e+01 -1.516311e+01 -6.942683e+01 -6.318659e+01 -1.644432e+01 -2.337444e+00 -1.574380e-01 -2.212688e-02 1.245334e-02 -2.948114e-03 2.963765e-03 
6.235138e-15 -2.318848e-03 7.227643e-03 -9.312328e-03 4.754331e-02 2.651622e-01 3.060780e+00 1.856705e+01 6.107274e+01 5.707004e+01 -8.000138e+00 -6.953078e+01 -5.074774e+01 -7.059493e+00 -7.738934e-01 -4.445983e-02 -1.439009e-14 4.445983e-02 7.738934e-01 7.059493e+00 5.074774e+01 6.953078e+01 8.000138e+00 -5.707004e+01 -6.107274e+01 -1.856705e+01 -3.060780e+00 -2.651622e-01 -4.754331e-02 9.312328e-03 -7.227643e-03 2.318848e-03 
1.617279e-14 -3.047889e-03 6.550263e-03 -1.073714e-02 5.319284e-02 3.281169e-01 3.249944e+00 1.738523e+01 4.934918e+01 3.981990e+01 -2.163247e+01 -5.378274e+01 -3.146911e+01 -4.723292e+00 -5.055676e-01 -2.870471e-02 -5.307519e-14 2.870471e-02 5.055676e-01 4.723292e+00 3.146911e+01 5.378274e+01 2.163247e+01 -3.981990e+01 -4.934918e+01 -1.738523e+01 -3.249944e+00 -3.281169e-01 -5.319284e-02 1.073714e-02 -6.550263e-03 3.047889e-03 
1.926115e-14 -1.587997e-03 6.173033e-03 -4.759682e-03 4.632592e-02 2.958297e-01 2.561540e+00 1.271089e+01 3.288708e+01 2.402163e+01 -2.055424e+01 -3.484056e+01 -1.716616e+01 -2.746055e+00 -2.788141e-01 -1.579285e-02 -7.766531e-15 1.579285e-02 2.788141e-01 2.746055e+00 1.716616e+01 3.484056e+01 2.055424e+01 -2.402163e+01 -3.288708e+01 -1.271089e+01 -2.561540e+00 -2.958297e-01 -4.632592e-02 4.759682e-03 -6.173033e-03 1.587997e-03 
1.791784e-14 -1.156187e-03 2.911959e-03 -3.287295e-03 2.481529e-02 1.711558e-01 1.403477e+00 6.738676e+00 1.668594e+01 1.174392e+01 -1.137610e+01 -1.707177e+01 -7.525410e+00 -1.207833e+00 -1.175762e-01 -5.805857e-03 -3.023388e-14 5.805857e-03 1.175762e-01 1.207833e+00 7.525410e+00 1.707177e+01 1.137610e+01 -1.174392e+01 -1.668594e+01 -6.738676e+00 -1.403477e+00 -1.711558e-01 -2.481529e-02 3.287295e-03 -2.911959e-03 1.156187e-03 
2.699571e-14 1.489719e-14 -4.072344e-15 -7.835382e-15 1.046504e-14 2.516273e-14 1.322589e-13 5.766589e-13 1.519239e-12 1.754545e-12 -9.766576e-14 -1.017739e-12 -3.833203e-13 -6.806126e-14 -1.301045e-15 -1.000585e-14 -1.623798e-14 -1.752399e-14 -2.105027e-14 -1.098570e-13 -1.493560e-13 1.307184e-12 2.244789e-12 -3.946772e-13 -1.058680e-12 8.746409e-14 1.497304e-13 4.324976e-14 3.169214e-15 -1.198427e-14 -3.204446e-15 1.765956e-14 
5.252748e-15 1.156187e-03 -2.911959e-03 3.287295e-03 -2.481529e-02 -1.711558e-01 -1.403477e+00 -6.738676e+00 -1.668594e+01 -1.174392e+01 1.137610e+01 1.707177e+01 7.525410e+00 1.207833e+00 1.175762e-01 5.805857e-03 1.579573e-14 -5.805857e-03 -1.175762e-01 -1.207833e+00 -7.525410e+00 -1.707177e+01 -1.137610e+01 1.174392e+01 1.668594e+01 6.738676e+00 1.403477e+00 1.711558e-01 2.481529e-02 -3.287295e-03 2.911959e-03 -1.156187e-03 
-8.712647e-15 1.587997e-03 -6.173033e-03 4.759682e-03 -4.632592e-02 -2.958297e-01 -2.561540e+00 -1.271089e+01 -3.288708e+01 -2.402163e+01 2.055424e+01 3.484056e+01 1.716616e+01 2.746055e+00 2.788141e-01 1.579285e-02 1.810687e-14 -1.579285e-02 -2.788141e-01 -2.746055e+00 -1.716616e+01 -3.484056e+01 -2.055424e+01 2.402163e+01 3.288708e+01 1.271089e+01 2.561540e+00 2.958297e-01 4.632592e-02 -4.759682e-03 6.173033e-03 -1.587997e-03 
-2.826446e-14 3.047889e-03 -6.550263e-03 1.073714e-02 -5.319284e-02 -3.281169e-01 -3.249944e+00 -1.738523e+01 -4.934918e+01 -3.981990e+01 2.163247e+01 5.378274e+01 3.146911e+01 4.723292e+00 5.055676e-01 2.870471e-02 3.135892e-14 -2.870471e-02 -5.055676e-01 -4.723292e+00 -3.146911e+01 -5.378274e+01 -2.163247e+01 3.981990e+01 4.934918e+01 1.738523e+01 3.249944e+00 3.281169e-01 5.319284e-02 -1.073714e-02 6.550263e-03 -3.047889e-03 
-8.732318e-15 2.318848e-03 -7.227643e-03 9.312328e-03 -4.754331e-02 -2.651622e-01 -3.060780e+00 -1.856705e+01 -6.107274e+01 -5.707004e+01 8.000138e+00 6.953078e+01 5.074774e+01 7.059493e+00 7.738934e-01 4.445983e-02 -7.847641e-15 -4.445983e-02 -7.738934e-01 -7.059493e+00 -5.074774e+01 -6.953078e+01 -8.000138e+00 5.707004e+01 6.107274e+01 1.856705e+01 3.060780e+00 2.651622e-01 4.754331e-02 -9.312328e-03 7.227643e-03 -2.318848e-03 
4.290799e-15 2.963765e-03 -2.948114e-03 1.245334e-02 -2.212688e-02 -1.574380e-01 -2.337444e+00 -1.644432e+01 -6.318659e+01 -6.942683e+01 -1.516311e+01 7.675075e+01 7.143327e+01 1.009848e+01 1.072977e+00 6.802056e-02 1.395835e-14 -6.802056e-02 -1.072977e+00 -1.009848e+01 -7.143327e+01 -7.675075e+01 1.516311e+01 6.942683e+01 6.318659e+01 1.644432e+01 2.337444e+00 1.574380e-01 2.212688e-02 -1.245334e-02 2.948114e-03 -2.963765e-03 
-2.095087e-14 1.156554e-03 -1.478384e-03 5.042198e-03 -5.484633e-03 -9.154645e-02 -1.496545e+00 -1.305956e+01 -6.070009e+01 -8.609669e+01 -4.496045e+01 6.781054e+01 9.266779e+01 2.065021e+01 2.036349e+00 1.279574e-01 -7.872736e-15 -1.279574e-01 -2.036349e+00 -2.065021e+01 -9.266779e+01 -6.781054e+01 4.496045e+01 8.609669e+01 6.070009e+01 1.305956e+01 1.496545e+00 9.154645e-02 5.484633e-03 -5.042198e-03 1.478384e-03 -1.156554e-03 
1.508619e-14 8.952559e-04 1.435802e-03 1.922631e-03 6.220940e-03 -5.516861e-02 -7.178613e-01 -8.648029e+00 -5.125477e+01 -1.035700e+02 -7.742583e+01 3.123798e+01 1.062766e+02 4.890721e+01 3.886919e+00 4.111734e-01 -1.573075e-15 -4.111734e-01 -3.886919e+00 -4.890721e+01 -1.062766e+02 -3.123798e+01 7.742583e+01 1.035700e+02 5.125477e+01 8.648029e+00 7.178613e-01 5.516861e-02 -6.220940e-03 -1.922631e-03 -1.435802e-03 -8.952559e-04 
-9.974722e-15 -2.222208e-04 -1.723187e-04 -2.037074e-03 -1.493010e-03 -2.673758e-02 -2.403495e-01 -3.707336e+00 -3.148263e+01 -1.064347e+02 -1.093481e+02 -2.864311e+01 9.118664e+01 8.757635e+01 1.051376e+01 8.922979e-01 1.832890e-14 -8.922979e-01 -1.051376e+01 -8.757635e+01 -9.118664e+01 2.864311e+01 1.093481e+02 1.064347e+02 3.148263e+01 3.707336e+00 2.403495e-01 2.673758e-02 1.493010e-03 2.037074e-03 1.723187e-04 2.222208e-04 
-1.947345e-14 2.912435e-04 -3.533018e-04 2.971184e-03 -4.383950e-03 2.269427e-02 -7.038812e-02 -6.273286e-01 -1.261745e+01 -8.389623e+01 -1.356270e+02 -9.077304e+01 2.847389e+01 9.598940e+01 3.584281e+01 2.309774e+00 2.321682e-14 -2.309774e+00 -3.584281e+01 -9.598940e+01 -2.847389e+01 9.077304e+01 1.356270e+02 8.389623e+01 1.261745e+01 6.273286e-01 7.038812e-02 -2.269427e-02 4.383950e-03 -2.971184e-03 3.533018e-04 -2.912435e-04 
-2.300422e-14 1.890471e-04 -4.496843e-04 1.840732e-03 -5.030609e-03 1.299728e-02 -3.384244e-02 -9.796908e-03 -1.890046e+00 -3.734070e+01 -1.207320e+02 -1.438310e+02 -7.399674e+01 5.286909e+01 8.761494e+01 2.458814e+01 7.724107e-14 -2.458814e+01 -8.761494e+01 -5.286909e+01 7.399674e+01 1.438310e+02 1.207320e+02 3.734070e+01 1.890046e+00 9.796908e-03 3.384244e-02 -1.299728e-02 5.030609e-03 -1.840732e-03 4.496843e-04 -1.890471e-04 
-3.191131e-14 -3.885993e-06 -1.218003e-03 1.085935e-03 -3.869615e-03 5.142192e-03 -1.685266e-04 -4.012042e-02 1.908130e-01 -5.223198e+00 -5.497942e+01 -1.307726e+02 -1.650035e+02 -9.064515e+01 4.658675e+01 6.513133e+01 1.856825e-13 -6.513133e+01 -4.658675e+01 9.064515e+01 1.650035e+02 1.307726e+02 5.497942e+01 5.223198e+00 -1.908130e-01 4.012042e-02 1.685266e-04 -5.142192e-03 3.869615e-03 -1.085935e-03 1.218003e-03 3.885993e-06 
-1.133195e-14 5.724474e-04 7.240209e-04 2.440051e-03 1.401867e-03 5.332207e-03 8.345102e-03 -1.191910e-02 7.051834e-02 2.667192e-01 -8.575836e+00 -4.329759e+01 -1.132172e+02 -1.817858e+02 -1.441019e+02 -3.822162e+01 8.838153e-13 3.822162e+01 1.441019e+02 1.817858e+02 1.132172e+02 4.329759e+01 8.575836e+00 -2.667192e-01 -7.051834e-02 1.191910e-02 -8.345102e-03 -5.332207e-03 -1.401867e-03 -2.440051e-03 -7.240209e-04 -5.724474e-04 
-2.394677e-14 -2.013849e-04 -1.005469e-03 -3.806680e-04 -1.890930e-03 -2.389535e-04 2.219480e-03 1.889035e-03 1.677153e-02 2.312116e-01 -2.142299e-01 -7.869162e+00 -1.222903e+01 -3.439469e+01 -9.736599e+01 -9.286647e+01 5.744402e-13 9.286647e+01 9.736599e+01 3.439469e+01 1.222903e+01 7.869162e+00 2.142299e-01 -2.312116e-01 -1.677153e-02 -1.889035e-03 -2.219480e-03 2.389535e-04 1.890930e-03 3.806680e-04 1.005469e-03 2.013849e-04 
-1.530230e-14 4.810027e-04 8.709882e-04 1.725722e-03 2.128018e-03 3.136237e-03 3.779415e-03 4.970271e-04 -1.010500e-02 -3.811331e-02 -8.016486e-02 -1.689703e+00 -4.596180e+00 8.067282e+00 3.289968e+01 2.498715e+01 1.504628e-13 -2.498715e+01 -3.289968e+01 -8.067282e+00 4.596180e+00 1.689703e+00 8.016486e-02 3.811331e-02 1.010500e-02 -4.970271e-04 -3.779415e-03 -3.136237e-03 -2.128018e-03 -1.725722e-03 -8.709882e-04 -4.810027e-04 
-2.582965e-14 -9.701504e-05 -3.459100e-04 -2.187387e-04 -4.493148e-04 5.765211e-05 9.965842e-04 3.072447e-03 6.864270e-03 1.673798e-02 4.512895e-02 6.305140e-02 7.734145e-02 -9.391169e-01 2.518944e-01 5.269486e+00 -2.464348e-15 -5.269486e+00 -2.518944e-01 9.391169e-01 -7.734145e-02 -6.305140e-02 -4.512895e-02 -1.673798e-02 -6.864270e-03 -3.072447e-03 -9.965842e-04 -5.765211e-05 4.493148e-04 2.187387e-04 3.459100e-04 9.701504e-05 
