# vtk DataFile Version 2.0
Comment goes here
ASCII

DATASET STRUCTURED_POINTS
FIELD FieldData 1
TIME 1 1 double
0.98000000
DIMENSIONS    32   32   1

ORIGIN    0.000   0.000   0.000
SPACING   0.03125 0.03125   1.000

POINT_DATA   1024
SCALARS Omega double
LOOKUP_TABLE default

-6.933315e-14 -4.906727e-14 -5.663793e-14 -8.254976e-14 -1.279554e-13 -1.862738e-13 -2.016929e-13 -2.079806e-13 -1.319747e-13 -1.486374e-14 2.084439e-13 4.152850e-13 5.228577e-13 5.021183e-13 4.809872e-13 3.212159e-13 -8.975761e-14 -2.314961e-13 -4.583241e-13 -5.166777e-13 -8.226118e-14 2.668596e-13 4.143820e-13 3.402763e-13 1.599604e-13 2.071910e-15 -9.912261e-14 -1.356472e-13 -9.541667e-14 -8.536387e-14 -8.134462e-14 -7.041969e-14 
-5.534934e-14 3.503355e-02 1.291555e-02 -1.263866e-01 -4.534762e-01 -1.058124e+00 -2.011025e+00 -3.301485e+00 -4.859418e+00 -6.564899e+00 -8.339741e+00 -1.006058e+01 -1.143738e+01 -1.189378e+01 -1.051889e+01 -6.292804e+00 2.089603e-14 6.292804e+00 1.051889e+01 1.189378e+01 1.143738e+01 1.006058e+01 8.339741e+00 6.564899e+00 4.859418e+00 3.301485e+00 2.011025e+00 1.058124e+00 4.534762e-01 1.263866e-01 -1.291555e-02 -3.503355e-02 
-5.905820e-14 1.250607e-01 1.320858e-01 -8.159549e-02 -6.192345e-01 -1.626259e+00 -3.237394e+00 -5.463984e+00 -8.201904e+00 -1.121241e+01 -1.430037e+01 -1.720281e+01 -1.948800e+01 -2.033679e+01 -1.818066e+01 -1.094729e+01 4.013201e-13 1.094729e+01 1.818066e+01 2.033679e+01 1.948800e+01 1.720281e+01 1.430037e+01 1.121241e+01 8.201904e+00 5.463984e+00 3.237394e+00 1.626259e+00 6.192345e-01 8.159549e-02 -1.320858e-01 -1.250607e-01 
-9.534865e-14 3.324718e-01 4.614381e-01 2.558124e-01 -3.624059e-01 -1.530423e+00 -3.404770e+00 -6.034164e+00 -9.285357e+00 -1.283342e+01 -1.636832e+01 -1.969240e+01 -2.261315e+01 -2.461781e+01 -2.331192e+01 -1.472438e+01 2.195518e-13 1.472438e+01 2.331192e+01 2.461781e+01 2.261315e+01 1.969240e+01 1.636832e+01 1.283342e+01 9.285357e+00 6.034164e+00 3.404770e+00 1.530423e+00 3.624059e-01 -2.558124e-01 -4.614381e-01 -3.324718e-01 
-2.204416e-13 7.293005e-01 1.114734e+00 9.927296e-01 3.653318e-01 -8.089728e-01 -2.635531e+00 -5.195533e+00 -8.394625e+00 -1.190702e+01 -1.550723e+01 -1.911125e+01 -2.291914e+01 -2.642624e+01 -2.690435e+01 -1.899665e+01 -8.699954e-13 1.899665e+01 2.690435e+01 2.642624e+01 2.291914e+01 1.911125e+01 1.550723e+01 1.190702e+01 8.394625e+00 5.195533e+00 2.635531e+00 8.089728e-01 -3.653318e-01 -9.927296e-01 -1.114734e+00 -7.293005e-01 
-4.113787e-13 1.399646e+00 2.233397e+00 2.273436e+00 1.623218e+00 4.171726e-01 -1.310855e+00 -3.636721e+00 -6.497579e+00 -9.674260e+00 -1.289295e+01 -1.695331e+01 -2.264014e+01 -2.914750e+01 -3.571731e+01 -2.874211e+01 -1.699906e-12 2.874211e+01 3.571731e+01 2.914750e+01 2.264014e+01 1.695331e+01 1.289295e+01 9.674260e+00 6.497579e+00 3.636721e+00 1.310855e+00 -4.171726e-01 -1.623218e+00 -2.273436e+00 -2.233397e+00 -1.399646e+00 
-5.314581e-13 2.382196e+00 3.892414e+00 4.197861e+00 3.496088e+00 2.144614e+00 4.087078e-01 -1.696138e+00 -4.104705e+00 -6.556358e+00 -8.509805e+00 -1.583297e+01 -2.501227e+01 -4.143729e+01 -5.640755e+01 -3.560026e+01 2.646446e-12 3.560026e+01 5.640755e+01 4.143729e+01 2.501227e+01 1.583297e+01 8.509805e+00 6.556358e+00 4.104705e+00 1.696138e+00 -4.087078e-01 -2.144614e+00 -3.496088e+00 -4.197861e+00 -3.892414e+00 -2.382196e+00 
-5.646459e-13 3.685812e+00 6.110122e+00 6.807491e+00 6.035340e+00 4.412605e+00 2.441560e+00 3.159414e-01 -1.866309e+00 -3.250439e+00 -6.009323e+00 -1.908675e+01 -2.780176e+01 1.279028e+01 6.543312e+01 5.649725e+01 1.056988e-11 -5.649725e+01 -6.543312e+01 -1.279028e+01 2.780176e+01 1.908675e+01 6.009323e+00 3.250439e+00 1.866309e+00 -3.159414e-01 -2.441560e+00 -4.412605e+00 -6.035340e+00 -6.807491e+00 -6.110122e+00 -3.685812e+00 
-4.728761e-13 5.232477e+00 8.746322e+00 9.923675e+00 9.079951e+00 7.099308e+00 4.784022e+00 2.408801e+00 4.435175e-01 3.132336e+00 4.228758e+00 1.830289e+01 6.691205e+01 1.038106e+02 6.505995e+01 1.399234e+01 4.149377e-12 -1.399234e+01 -6.505995e+01 -1.038106e+02 -6.691205e+01 -1.830289e+01 -4.228758e+00 -3.132336e+00 -4.435175e-01 -2.408801e+00 -4.784022e+00 -7.099308e+00 -9.079951e+00 -9.923675e+00 -8.746322e+00 -5.232477e+00 
-2.133989e-13 6.904588e+00 1.160113e+01 1.328240e+01 1.229643e+01 9.819692e+00 6.790365e+00 3.964415e+00 5.395495e+00 1.801334e+01 4.225482e+01 6.865029e+01 6.125658e+01 7.858871e+00 -4.835824e+01 -3.602834e+01 -2.536178e-12 3.602834e+01 4.835824e+01 -7.858871e+00 -6.125658e+01 -6.865029e+01 -4.225482e+01 -1.801334e+01 -5.395495e+00 -3.964415e+00 -6.790365e+00 -9.819692e+00 -1.229643e+01 -1.328240e+01 -1.160113e+01 -6.904588e+00 
8.917524e-14 8.505155e+00 1.439994e+01 1.666032e+01 1.558509e+01 1.279705e+01 9.096989e+00 7.741591e+00 2.592015e+01 3.608908e+01 3.053362e+01 1.959242e+01 -9.734021e+00 -2.106170e+01 -1.123514e+01 8.178847e+00 -3.594662e-12 -8.178847e+00 1.123514e+01 2.106170e+01 9.734021e+00 -1.959242e+01 -3.053362e+01 -3.608908e+01 -2.592015e+01 -7.741591e+00 -9.096989e+00 -1.279705e+01 -1.558509e+01 -1.666032e+01 -1.439994e+01 -8.505155e+00 
2.849043e-13 9.789401e+00 1.678003e+01 1.964780e+01 1.854982e+01 1.548738e+01 1.361750e+01 2.753619e+01 4.630598e+01 1.022130e+00 -3.111103e+00 1.522701e+01 -4.928855e+00 1.595348e-01 7.361957e+00 1.282857e+01 -3.027953e-12 -1.282857e+01 -7.361957e+00 -1.595348e-01 4.928855e+00 -1.522701e+01 3.111103e+00 -1.022130e+00 -4.630598e+01 -2.753619e+01 -1.361750e+01 -1.548738e+01 -1.854982e+01 -1.964780e+01 -1.678003e+01 -9.789401e+00 
2.272685e-13 1.061090e+01 1.861651e+01 2.242018e+01 2.193138e+01 1.880921e+01 1.738710e+01 2.757888e+01 1.273089e+01 -2.477275e+01 1.956883e+01 1.855034e+01 -1.235353e+01 1.781284e+00 7.129144e+00 7.274639e+00 -7.717563e-13 -7.274639e+00 -7.129144e+00 -1.781284e+00 1.235353e+01 -1.855034e+01 -1.956883e+01 2.477275e+01 -1.273089e+01 -2.757888e+01 -1.738710e+01 -1.880921e+01 -2.193138e+01 -2.242018e+01 -1.861651e+01 -1.061090e+01 
-3.479427e-14 1.083583e+01 1.975360e+01 2.509816e+01 2.642398e+01 2.406517e+01 2.291193e+01 2.833382e+01 -2.229802e+01 -1.450312e+01 3.262806e+01 -1.122964e+01 -1.749605e+01 -7.217608e-01 2.506062e+00 3.025874e+00 -6.082846e-14 -3.025874e+00 -2.506062e+00 7.217608e-01 1.749605e+01 1.122964e+01 -3.262806e+01 1.450312e+01 2.229802e+01 -2.833382e+01 -2.291193e+01 -2.406517e+01 -2.642398e+01 -2.509816e+01 -1.975360e+01 -1.083583e+01 
-4.905182e-13 1.005737e+01 1.921837e+01 2.610141e+01 2.973985e+01 2.910273e+01 2.642950e+01 1.759887e+01 -3.897387e+01 1.000523e+01 3.445989e+01 -2.175126e+01 -1.005765e+01 -2.649098e+00 -1.089758e-01 7.298221e-01 6.180073e-14 -7.298221e-01 1.089758e-01 2.649098e+00 1.005765e+01 2.175126e+01 -3.445989e+01 -1.000523e+01 3.897387e+01 -1.759887e+01 -2.642950e+01 -2.910273e+01 -2.973985e+01 -2.610141e+01 -1.921837e+01 -1.005737e+01 
-1.064172e-12 7.007460e+00 1.383274e+01 1.928878e+01 2.192876e+01 2.047810e+01 1.716334e+01 5.529768e+00 -2.371062e+01 1.715392e+01 1.895926e+01 -2.021541e+01 -7.598317e+00 -2.821594e+00 -9.215677e-01 -8.377840e-02 1.161021e-13 8.377840e-02 9.215677e-01 2.821594e+00 7.598317e+00 2.021541e+01 -1.895926e+01 -1.715392e+01 2.371062e+01 -5.529768e+00 -1.716334e+01 -2.047810e+01 -2.192876e+01 -1.928878e+01 -1.383274e+01 -7.007460e+00 
-2.053450e-12 -1.895426e-12 -1.845674e-12 -1.043153e-12 5.413983e-13 2.462289e-12 3.598569e-12 2.931281e-12 4.124687e-12 5.740936e-12 1.269685e-12 -1.529353e-12 -5.760983e-13 -1.486832e-14 -7.832860e-15 1.008944e-13 9.845657e-14 1.333629e-13 2.090729e-13 7.743209e-13 2.595896e-12 6.039821e-12 6.195352e-12 -1.441524e-12 -1.312968e-11 -2.259324e-12 7.108256e-12 5.457143e-12 4.342815e-13 -2.875201e-12 -3.558057e-12 -2.724194e-12 
-2.055016e-12 -7.007460e+00 -1.383274e+01 -1.928878e+01 -2.192876e+01 -2.047810e+01 -1.716334e+01 -5.529768e+00 2.371062e+01 -1.715392e+01 -1.895926e+01 2.021541e+01 7.598317e+00 2.821594e+00 9.215677e-01 8.377840e-02 1.435347e-13 -8.377840e-02 -9.215677e-01 -2.821594e+00 -7.598317e+00 -2.021541e+01 1.895926e+01 1.715392e+01 -2.371062e+01 5.529768e+00 1.716334e+01 2.047810e+01 2.192876e+01 1.928878e+01 1.383274e+01 7.007460e+00 
-1.291647e-12 -1.005737e+01 -1.921837e+01 -2.610141e+01 -2.973985e+01 -2.910273e+01 -2.642950e+01 -1.759887e+01 3.897387e+01 -1.000523e+01 -3.445989e+01 2.175126e+01 1.005765e+01 2.649098e+00 1.089758e-01 -7.298221e-01 2.741345e-13 7.298221e-01 -1.089758e-01 -2.649098e+00 -1.005765e+01 -2.175126e+01 3.445989e+01 1.000523e+01 -3.897387e+01 1.759887e+01 2.642950e+01 2.910273e+01 2.973985e+01 2.610141e+01 1.921837e+01 1.005737e+01 
-9.332335e-13 -1.083583e+01 -1.975360e+01 -2.509816e+01 -2.642398e+01 -2.406517e+01 -2.291193e+01 -2.833382e+01 2.229802e+01 1.450312e+01 -3.262806e+01 1.122964e+01 1.749605e+01 7.217608e-01 -2.506062e+00 -3.025874e+00 2.616314e-13 3.025874e+00 2.506062e+00 -7.217608e-01 -1.749605e+01 -1.122964e+01 3.262806e+01 -1.450312e+01 -2.229802e+01 2.833382e+01 2.291193e+01 2.406517e+01 2.642398e+01 2.509816e+01 1.975360e+01 1.083583e+01 
-5.813090e-13 -1.061090e+01 -1.861651e+01 -2.242018e+01 -2.193138e+01 -1.880921e+01 -1.738710e+01 -2.757888e+01 -1.273089e+01 2.477275e+01 -1.956883e+01 -1.855034e+01 1.235353e+01 -1.781284e+00 -7.129144e+00 -7.274639e+00 -1.129898e-12 7.274639e+00 7.129144e+00 1.781284e+00 -1.235353e+01 1.855034e+01 1.956883e+01 -2.477275e+01 1.273089e+01 2.757888e+01 1.738710e+01 1.880921e+01 2.193138e+01 2.242018e+01 1.861651e+01 1.061090e+01 
-4.352574e-13 -9.789401e+00 -1.678003e+01 -1.964780e+01 -1.854982e+01 -1.548738e+01 -1.361750e+01 -2.753619e+01 -4.630598e+01 -1.022130e+00 3.111103e+00 -1.522701e+01 4.928855e+00 -1.595348e-01 -7.361957e+00 -1.282857e+01 -5.849130e-12 1.282857e+01 7.361957e+00 1.595348e-01 -4.928855e+00 1.522701e+01 -3.111103e+00 1.022130e+00 4.630598e+01 2.753619e+01 1.361750e+01 1.548738e+01 1.854982e+01 1.964780e+01 1.678003e+01 9.789401e+00 
-5.459009e-13 -8.505155e+00 -1.439994e+01 -1.666032e+01 -1.558509e+01 -1.279705e+01 -9.096989e+00 -7.741591e+00 -2.592015e+01 -3.608908e+01 -3.053362e+01 -1.959242e+01 9.734021e+00 2.106170e+01 1.123514e+01 -8.178847e+00 -6.448365e-12 8.178847e+00 -1.123514e+01 -2.106170e+01 -9.734021e+00 1.959242e+01 3.053362e+01 3.608908e+01 2.592015e+01 7.741591e+00 9.096989e+00 1.279705e+01 1.558509e+01 1.666032e+01 1.439994e+01 8.505155e+00 
-7.692716e-13 -6.904588e+00 -1.160113e+01 -1.328240e+01 -1.229643e+01 -9.819692e+00 -6.790365e+00 -3.964415e+00 -5.395495e+00 -1.801334e+01 -4.225482e+01 -6.865029e+01 -6.125658e+01 -7.858871e+00 4.835824e+01 3.602834e+01 -2.064902e-12 -3.602834e+01 -4.835824e+01 7.858871e+00 6.125658e+01 6.865029e+01 4.225482e+01 1.801334e+01 5.395495e+00 3.964415e+00 6.790365e+00 9.819692e+00 1.229643e+01 1.328240e+01 1.160113e+01 6.904588e+00 
-9.045626e-13 -5.232477e+00 -8.746322e+00 -9.923675e+00 -9.079951e+00 -7.099308e+00 -4.784022e+00 -2.408801e+00 -4.435175e-01 -3.132336e+00 -4.228758e+00 -1.830289e+01 -6.691205e+01 -1.038106e+02 -6.505995e+01 -1.399234e+01 1.317896e-11 1.399234e+01 6.505995e+01 1.038106e+02 6.691205e+01 1.830289e+01 4.228758e+00 3.132336e+00 4.435175e-01 2.408801e+00 4.784022e+00 7.099308e+00 9.079951e+00 9.923675e+00 8.746322e+00 5.232477e+00 
-9.096030e-13 -3.685812e+00 -6.110122e+00 -6.807491e+00 -6.035340e+00 -4.412605e+00 -2.441560e+00 -3.159414e-01 1.866309e+00 3.250439e+00 6.009323e+00 1.908675e+01 2.780176e+01 -1.279028e+01 -6.543312e+01 -5.649725e+01 2.189569e-11 5.649725e+01 6.543312e+01 1.279028e+01 -2.780176e+01 -1.908675e+01 -6.009323e+00 -3.250439e+00 -1.866309e+00 3.159414e-01 2.441560e+00 4.412605e+00 6.035340e+00 6.807491e+00 6.110122e+00 3.685812e+00 
-7.114865e-13 -2.382196e+00 -3.892414e+00 -4.197861e+00 -3.496088e+00 -2.144614e+00 -4.087078e-01 1.696138e+00 4.104705e+00 6.556358e+00 8.509805e+00 1.583297e+01 2.501227e+01 4.143729e+01 5.640755e+01 3.560026e+01 -7.351423e-12 -3.560026e+01 -5.640755e+01 -4.143729e+01 -2.501227e+01 -1.583297e+01 -8.509805e+00 -6.556358e+00 -4.104705e+00 -1.696138e+00 4.087078e-01 2.144614e+00 3.496088e+00 4.197861e+00 3.892414e+00 2.382196e+00 
-5.375324e-13 -1.399646e+00 -2.233397e+00 -2.273436e+00 -1.623218e+00 -4.171726e-01 1.310855e+00 3.636721e+00 6.497579e+00 9.674260e+00 1.289295e+01 1.695331e+01 2.264014e+01 2.914750e+01 3.571731e+01 2.874211e+01 -1.246245e-11 -2.874211e+01 -3.571731e+01 -2.914750e+01 -2.264014e+01 -1.695331e+01 -1.289295e+01 -9.674260e+00 -6.497579e+00 -3.636721e+00 -1.310855e+00 4.171726e-01 1.623218e+00 2.273436e+00 2.233397e+00 1.399646e+00 
-2.832360e-13 -7.293005e-01 -1.114734e+00 -9.927296e-01 -3.653318e-01 8.089728e-01 2.635531e+00 5.195533e+00 8.394625e+00 1.190702e+01 1.550723e+01 1.911125e+01 2.291914e+01 2.642624e+01 2.690435e+01 1.899665e+01 -6.658082e-12 -1.899665e+01 -2.690435e+01 -2.642624e+01 -2.291914e+01 -1.911125e+01 -1.550723e+01 -1.190702e+01 -8.394625e+00 -5.195533e+00 -2.635531e+00 -8.089728e-01 3.653318e-01 9.927296e-01 1.114734e+00 7.293005e-01 
-1.649744e-13 -3.324718e-01 -4.614381e-01 -2.558124e-01 3.624059e-01 1.530423e+00 3.404770e+00 6.034164e+00 9.285357e+00 1.283342e+01 1.636832e+01 1.969240e+01 2.261315e+01 2.461781e+01 2.331192e+01 1.472438e+01 -2.823375e-12 -1.472438e+01 -2.331192e+01 -2.461781e+01 -2.261315e+01 -1.969240e+01 -1.636832e+01 -1.283342e+01 -9.285357e+00 -6.034164e+00 -3.404770e+00 -1.530423e+00 -3.624059e-01 2.558124e-01 4.614381e-01 3.324718e-01 
-7.122171e-14 -1.250607e-01 -1.320858e-01 8.159549e-02 6.192345e-01 1.626259e+00 3.237394e+00 5.463984e+00 8.201904e+00 1.121241e+01 1.430037e+01 1.720281e+01 1.948800e+01 2.033679e+01 1.818066e+01 1.094729e+01 -5.520386e-13 -1.094729e+01 -1.818066e+01 -2.033679e+01 -1.948800e+01 -1.720281e+01 -1.430037e+01 -1.121241e+01 -8.201904e+00 -5.463984e+00 -3.237394e+00 -1.626259e+00 -6.192345e-01 -8.159549e-02 1.320858e-01 1.250607e-01 
-7.539089e-14 -3.503355e-02 -1.291555e-02 1.263866e-01 4.534762e-01 1.058124e+00 2.011025e+00 3.301485e+00 4.859418e+00 6.564899e+00 8.339741e+00 1.006058e+01 1.143738e+01 1.189378e+01 1.051889e+01 6.292804e+00 8.819876e-14 -6.292804e+00 -1.051889e+01 -1.189378e+01 -1.143738e+01 -1.006058e+01 -8.339741e+00 -6.564899e+00 -4.859418e+00 -3.301485e+00 -2.011025e+00 -1.058124e+00 -4.534762e-01 -1.263866e-01 1.291555e-02 3.503355e-02 
