# vtk DataFile Version 2.0
Comment goes here
ASCII

DATASET STRUCTURED_POINTS
FIELD FieldData 1
TIME 1 1 double
0.52000000
DIMENSIONS    32   32   1

ORIGIN    0.000   0.000   0.000
SPACING   0.03125 0.03125   1.000

POINT_DATA   1024
SCALARS Omega double
LOOKUP_TABLE default

-3.327952e-14 -3.455741e-14 -3.138881e-14 -3.597414e-14 -1.951224e-14 -2.216026e-14 -3.148983e-14 -8.058988e-14 -2.358343e-13 -3.871968e-13 -6.416359e-13 -7.641173e-13 -8.101021e-13 -5.969164e-13 -1.128061e-13 7.992483e-13 1.201051e-12 6.976267e-13 1.749888e-13 -3.434344e-13 -6.070412e-13 -5.641853e-13 -4.605805e-13 -2.791296e-13 -1.757789e-13 -7.925535e-14 -6.514858e-14 -5.298842e-14 -4.558626e-14 -3.391230e-14 -3.668172e-14 -3.389740e-14 
-3.991810e-14 1.326765e-02 2.481769e-02 3.366618e-02 2.715253e-02 -2.995177e-02 -2.082337e-01 -6.797889e-01 -1.604371e+00 -3.200313e+00 -5.398129e+00 -7.952781e+00 -1.032696e+01 -1.163846e+01 -1.087367e+01 -7.104852e+00 9.051034e-13 7.104852e+00 1.087367e+01 1.163846e+01 1.032696e+01 7.952781e+00 5.398129e+00 3.200313e+00 1.604371e+00 6.797889e-01 2.082337e-01 2.995177e-02 -2.715253e-02 -3.366618e-02 -2.481769e-02 -1.326765e-02 
-3.812082e-14 3.269515e-02 6.043756e-02 8.352527e-02 8.209634e-02 7.451444e-03 -2.451550e-01 -9.358287e-01 -2.313450e+00 -4.797647e+00 -8.323723e+00 -1.269838e+01 -1.740402e+01 -2.092862e+01 -2.063852e+01 -1.475883e+01 8.417745e-13 1.475883e+01 2.063852e+01 2.092862e+01 1.740402e+01 1.269838e+01 8.323723e+00 4.797647e+00 2.313450e+00 9.358287e-01 2.451550e-01 -7.451444e-03 -8.209634e-02 -8.352527e-02 -6.043756e-02 -3.269515e-02 
-2.854086e-14 6.859741e-02 1.228123e-01 1.657047e-01 1.754557e-01 1.139719e-01 -1.319597e-01 -8.028176e-01 -2.195329e+00 -4.806269e+00 -8.700143e+00 -1.393462e+01 -2.056266e+01 -2.629250e+01 -3.214727e+01 -2.738304e+01 9.303609e-13 2.738304e+01 3.214727e+01 2.629250e+01 2.056266e+01 1.393462e+01 8.700143e+00 4.806269e+00 2.195329e+00 8.028176e-01 1.319597e-01 -1.139719e-01 -1.754557e-01 -1.657047e-01 -1.228123e-01 -6.859741e-02 
-2.931862e-14 1.399030e-01 2.386101e-01 3.060544e-01 3.259274e-01 2.957265e-01 1.135751e-01 -3.690384e-01 -1.468546e+00 -3.662437e+00 -6.895091e+00 -1.234379e+01 -1.804691e+01 -3.216987e+01 -5.757967e+01 -5.290882e+01 1.302256e-12 5.290882e+01 5.757967e+01 3.216987e+01 1.804691e+01 1.234379e+01 6.895091e+00 3.662437e+00 1.468546e+00 3.690384e-01 -1.135751e-01 -2.957265e-01 -3.259274e-01 -3.060544e-01 -2.386101e-01 -1.399030e-01 
-1.229328e-14 2.942261e-01 4.770763e-01 5.670900e-01 5.737859e-01 5.487309e-01 4.260885e-01 1.129611e-01 -8.841746e-01 -1.661728e+00 -3.396274e+00 -1.263903e+01 -2.073799e+01 -5.582513e+01 -6.359507e+01 -2.484701e+01 7.738973e-13 2.484701e+01 6.359507e+01 5.582513e+01 2.073799e+01 1.263903e+01 3.396274e+00 1.661728e+00 8.841746e-01 -1.129611e-01 -4.260885e-01 -5.487309e-01 -5.737859e-01 -5.670900e-01 -4.770763e-01 -2.942261e-01 
-4.882767e-15 6.106484e-01 9.481497e-01 1.048466e+00 9.777245e-01 8.931168e-01 7.633379e-01 3.536511e-01 -1.541816e+00 3.513130e+00 -9.232304e-03 -2.224950e+01 -1.164968e+01 3.631480e+01 8.239582e+01 6.214830e+01 -2.656764e-12 -6.214830e+01 -8.239582e+01 -3.631480e+01 1.164968e+01 2.224950e+01 9.232304e-03 -3.513130e+00 1.541816e+00 -3.536511e-01 -7.633379e-01 -8.931168e-01 -9.777245e-01 -1.048466e+00 -9.481497e-01 -6.106484e-01 
-6.305144e-14 1.228616e+00 1.865934e+00 1.954690e+00 1.683026e+00 1.394761e+00 1.012313e+00 -1.289052e-01 -3.421072e-01 1.635495e+01 1.144819e+01 3.609907e+01 1.048497e+02 1.133683e+02 5.792197e+01 9.912919e+00 -3.151595e-12 -9.912919e+00 -5.792197e+01 -1.133683e+02 -1.048497e+02 -3.609907e+01 -1.144819e+01 -1.635495e+01 3.421072e-01 1.289052e-01 -1.012313e+00 -1.394761e+00 -1.683026e+00 -1.954690e+00 -1.865934e+00 -1.228616e+00 
-1.514204e-13 2.275001e+00 3.456724e+00 3.541307e+00 2.871554e+00 2.134003e+00 8.740084e-01 2.113130e-01 1.485733e+01 4.990626e+01 7.002044e+01 8.670802e+01 6.587227e+01 -1.164359e+00 -2.963091e+01 -1.960217e+01 2.109530e-13 1.960217e+01 2.963091e+01 1.164359e+00 -6.587227e+01 -8.670802e+01 -7.002044e+01 -4.990626e+01 -1.485733e+01 -2.113130e-01 -8.740084e-01 -2.134003e+00 -2.871554e+00 -3.541307e+00 -3.456724e+00 -2.275001e+00 
-2.610214e-13 3.801505e+00 5.889546e+00 6.036246e+00 4.653985e+00 2.893790e+00 1.305121e+00 9.937063e+00 5.224317e+01 6.753345e+01 5.553839e+01 3.370977e+01 -7.727103e+00 -2.531161e+01 -4.216428e+00 5.839595e+00 8.544839e-13 -5.839595e+00 4.216428e+00 2.531161e+01 7.727103e+00 -3.370977e+01 -5.553839e+01 -6.753345e+01 -5.224317e+01 -9.937063e+00 -1.305121e+00 -2.893790e+00 -4.653985e+00 -6.036246e+00 -5.889546e+00 -3.801505e+00 
-4.128939e-13 5.694414e+00 9.143473e+00 9.602286e+00 7.345039e+00 4.476317e+00 6.463256e+00 3.543766e+01 6.137651e+01 3.748964e+01 2.336667e+01 6.650002e+00 -1.182207e+01 3.262438e+00 1.301340e+01 1.229313e+01 -3.828978e-13 -1.229313e+01 -1.301340e+01 -3.262438e+00 1.182207e+01 -6.650002e+00 -2.336667e+01 -3.748964e+01 -6.137651e+01 -3.543766e+01 -6.463256e+00 -4.476317e+00 -7.345039e+00 -9.602286e+00 -9.143473e+00 -5.694414e+00 
-5.037424e-13 7.775764e+00 1.299942e+01 1.404217e+01 1.093473e+01 7.894952e+00 1.676908e+01 5.611919e+01 3.066045e+01 1.165973e+01 2.552392e+01 -1.027814e+01 -1.398695e+01 1.095002e+01 1.597948e+01 1.275251e+01 -2.745727e-13 -1.275251e+01 -1.597948e+01 -1.095002e+01 1.398695e+01 1.027814e+01 -2.552392e+01 -1.165973e+01 -3.066045e+01 -5.611919e+01 -1.676908e+01 -7.894952e+00 -1.093473e+01 -1.404217e+01 -1.299942e+01 -7.775764e+00 
-5.357894e-13 1.004007e+01 1.745115e+01 1.951755e+01 1.631253e+01 1.381830e+01 2.571019e+01 4.321831e+01 3.796637e+00 1.586149e+01 1.620290e+01 -2.922590e+01 -8.953380e+00 5.726948e+00 9.345743e+00 8.387992e+00 -1.916927e-13 -8.387992e+00 -9.345743e+00 -5.726948e+00 8.953380e+00 2.922590e+01 -1.620290e+01 -1.586149e+01 -3.796637e+00 -4.321831e+01 -2.571019e+01 -1.381830e+01 -1.631253e+01 -1.951755e+01 -1.745115e+01 -1.004007e+01 
-4.061959e-13 1.247292e+01 2.228279e+01 2.587389e+01 2.357309e+01 2.106653e+01 2.992895e+01 1.545479e+01 -4.253113e+00 2.730902e+01 -7.926360e-01 -3.719836e+01 -9.052943e+00 -1.093218e+00 2.740328e+00 3.481915e+00 -1.233273e-13 -3.481915e+00 -2.740328e+00 1.093218e+00 9.052943e+00 3.719836e+01 7.926360e-01 -2.730902e+01 4.253113e+00 -1.545479e+01 -2.992895e+01 -2.106653e+01 -2.357309e+01 -2.587389e+01 -2.228279e+01 -1.247292e+01 
8.156089e-14 1.438595e+01 2.579257e+01 3.035390e+01 2.741492e+01 1.925614e+01 1.575295e+01 -7.007002e+00 -1.509017e-01 2.843849e+01 -9.769495e+00 -3.321460e+01 -1.126604e+01 -4.948213e+00 -1.103725e+00 4.731854e-01 -5.464571e-14 -4.731854e-01 1.103725e+00 4.948213e+00 1.126604e+01 3.321460e+01 9.769495e+00 -2.843849e+01 1.509017e-01 7.007002e+00 -1.575295e+01 -1.925614e+01 -2.741492e+01 -3.035390e+01 -2.579257e+01 -1.438595e+01 
8.487389e-13 1.214684e+01 2.079530e+01 2.249834e+01 1.719750e+01 8.097009e+00 4.388251e+00 -2.846664e+00 1.051232e+01 1.747741e+01 -1.089336e+01 -1.962925e+01 -8.785914e+00 -4.558643e+00 -1.806472e+00 -4.453546e-01 -1.084126e-13 4.453546e-01 1.806472e+00 4.558643e+00 8.785914e+00 1.962925e+01 1.089336e+01 -1.747741e+01 -1.051232e+01 2.846664e+00 -4.388251e+00 -8.097009e+00 -1.719750e+01 -2.249834e+01 -2.079530e+01 -1.214684e+01 
1.495746e-12 1.614137e-12 1.451499e-12 1.078640e-12 6.335372e-13 5.308308e-13 1.787765e-12 2.001353e-13 -2.620142e-12 -1.203765e-12 6.562336e-13 4.977293e-13 1.784630e-13 8.294181e-15 -3.950113e-14 -5.220463e-14 -5.653013e-14 -4.327204e-14 -1.547834e-14 8.569247e-14 4.771912e-13 1.644097e-12 3.469483e-12 3.029376e-12 3.957589e-12 4.410347e-12 3.373253e-12 2.767454e-12 1.229416e-12 4.260128e-13 6.146692e-13 1.133152e-12 
2.871824e-13 -1.214684e+01 -2.079530e+01 -2.249834e+01 -1.719750e+01 -8.097009e+00 -4.388251e+00 2.846664e+00 -1.051232e+01 -1.747741e+01 1.089336e+01 1.962925e+01 8.785914e+00 4.558643e+00 1.806472e+00 4.453546e-01 -1.502941e-14 -4.453546e-01 -1.806472e+00 -4.558643e+00 -8.785914e+00 -1.962925e+01 -1.089336e+01 1.747741e+01 1.051232e+01 -2.846664e+00 4.388251e+00 8.097009e+00 1.719750e+01 2.249834e+01 2.079530e+01 1.214684e+01 
-8.053153e-13 -1.438595e+01 -2.579257e+01 -3.035390e+01 -2.741492e+01 -1.925614e+01 -1.575295e+01 7.007002e+00 1.509017e-01 -2.843849e+01 9.769495e+00 3.321460e+01 1.126604e+01 4.948213e+00 1.103725e+00 -4.731854e-01 -2.003064e-14 4.731854e-01 -1.103725e+00 -4.948213e+00 -1.126604e+01 -3.321460e+01 -9.769495e+00 2.843849e+01 -1.509017e-01 -7.007002e+00 1.575295e+01 1.925614e+01 2.741492e+01 3.035390e+01 2.579257e+01 1.438595e+01 
-8.968836e-13 -1.247292e+01 -2.228279e+01 -2.587389e+01 -2.357309e+01 -2.106653e+01 -2.992895e+01 -1.545479e+01 4.253113e+00 -2.730902e+01 7.926360e-01 3.719836e+01 9.052943e+00 1.093218e+00 -2.740328e+00 -3.481915e+00 1.903637e-13 3.481915e+00 2.740328e+00 -1.093218e+00 -9.052943e+00 -3.719836e+01 -7.926360e-01 2.730902e+01 -4.253113e+00 1.545479e+01 2.992895e+01 2.106653e+01 2.357309e+01 2.587389e+01 2.228279e+01 1.247292e+01 
-8.232512e-13 -1.004007e+01 -1.745115e+01 -1.951755e+01 -1.631253e+01 -1.381830e+01 -2.571019e+01 -4.321831e+01 -3.796637e+00 -1.586149e+01 -1.620290e+01 2.922590e+01 8.953380e+00 -5.726948e+00 -9.345743e+00 -8.387992e+00 3.306584e-13 8.387992e+00 9.345743e+00 5.726948e+00 -8.953380e+00 -2.922590e+01 1.620290e+01 1.586149e+01 3.796637e+00 4.321831e+01 2.571019e+01 1.381830e+01 1.631253e+01 1.951755e+01 1.745115e+01 1.004007e+01 
-6.783100e-13 -7.775764e+00 -1.299942e+01 -1.404217e+01 -1.093473e+01 -7.894952e+00 -1.676908e+01 -5.611919e+01 -3.066045e+01 -1.165973e+01 -2.552392e+01 1.027814e+01 1.398695e+01 -1.095002e+01 -1.597948e+01 -1.275251e+01 5.522104e-13 1.275251e+01 1.597948e+01 1.095002e+01 -1.398695e+01 -1.027814e+01 2.552392e+01 1.165973e+01 3.066045e+01 5.611919e+01 1.676908e+01 7.894952e+00 1.093473e+01 1.404217e+01 1.299942e+01 7.775764e+00 
-4.589963e-13 -5.694414e+00 -9.143473e+00 -9.602286e+00 -7.345039e+00 -4.476317e+00 -6.463256e+00 -3.543766e+01 -6.137651e+01 -3.748964e+01 -2.336667e+01 -6.650002e+00 1.182207e+01 -3.262438e+00 -1.301340e+01 -1.229313e+01 6.500340e-13 1.229313e+01 1.301340e+01 3.262438e+00 -1.182207e+01 6.650002e+00 2.336667e+01 3.748964e+01 6.137651e+01 3.543766e+01 6.463256e+00 4.476317e+00 7.345039e+00 9.602286e+00 9.143473e+00 5.694414e+00 
-2.766714e-13 -3.801505e+00 -5.889546e+00 -6.036246e+00 -4.653985e+00 -2.893790e+00 -1.305121e+00 -9.937063e+00 -5.224317e+01 -6.753345e+01 -5.553839e+01 -3.370977e+01 7.727103e+00 2.531161e+01 4.216428e+00 -5.839595e+00 -4.108965e-13 5.839595e+00 -4.216428e+00 -2.531161e+01 -7.727103e+00 3.370977e+01 5.553839e+01 6.753345e+01 5.224317e+01 9.937063e+00 1.305121e+00 2.893790e+00 4.653985e+00 6.036246e+00 5.889546e+00 3.801505e+00 
-1.241125e-13 -2.275001e+00 -3.456724e+00 -3.541307e+00 -2.871554e+00 -2.134003e+00 -8.740084e-01 -2.113130e-01 -1.485733e+01 -4.990626e+01 -7.002044e+01 -8.670802e+01 -6.587227e+01 1.164359e+00 2.963091e+01 1.960217e+01 -1.250080e-12 -1.960217e+01 -2.963091e+01 -1.164359e+00 6.587227e+01 8.670802e+01 7.002044e+01 4.990626e+01 1.485733e+01 2.113130e-01 8.740084e-01 2.134003e+00 2.871554e+00 3.541307e+00 3.456724e+00 2.275001e+00 
-4.453984e-14 -1.228616e+00 -1.865934e+00 -1.954690e+00 -1.683026e+00 -1.394761e+00 -1.012313e+00 1.289052e-01 3.421072e-01 -1.635495e+01 -1.144819e+01 -3.609907e+01 -1.048497e+02 -1.133683e+02 -5.792197e+01 -9.912919e+00 3.970605e-12 9.912919e+00 5.792197e+01 1.133683e+02 1.048497e+02 3.609907e+01 1.144819e+01 1.635495e+01 -3.421072e-01 -1.289052e-01 1.012313e+00 1.394761e+00 1.683026e+00 1.954690e+00 1.865934e+00 1.228616e+00 
5.936070e-15 -6.106484e-01 -9.481497e-01 -1.048466e+00 -9.777245e-01 -8.931168e-01 -7.633379e-01 -3.536511e-01 1.541816e+00 -3.513130e+00 9.232304e-03 2.224950e+01 1.164968e+01 -3.631480e+01 -8.239582e+01 -6.214830e+01 7.409523e-12 6.214830e+01 8.239582e+01 3.631480e+01 -1.164968e+01 -2.224950e+01 -9.232304e-03 3.513130e+00 -1.541816e+00 3.536511e-01 7.633379e-01 8.931168e-01 9.777245e-01 1.048466e+00 9.481497e-01 6.106484e-01 
-1.689347e-14 -2.942261e-01 -4.770763e-01 -5.670900e-01 -5.737859e-01 -5.487309e-01 -4.260885e-01 -1.129611e-01 8.841746e-01 1.661728e+00 3.396274e+00 1.263903e+01 2.073799e+01 5.582513e+01 6.359507e+01 2.484701e+01 1.153585e-12 -2.484701e+01 -6.359507e+01 -5.582513e+01 -2.073799e+01 -1.263903e+01 -3.396274e+00 -1.661728e+00 -8.841746e-01 1.129611e-01 4.260885e-01 5.487309e-01 5.737859e-01 5.670900e-01 4.770763e-01 2.942261e-01 
-1.799239e-14 -1.399030e-01 -2.386101e-01 -3.060544e-01 -3.259274e-01 -2.957265e-01 -1.135751e-01 3.690384e-01 1.468546e+00 3.662437e+00 6.895091e+00 1.234379e+01 1.804691e+01 3.216987e+01 5.757967e+01 5.290882e+01 1.579073e-12 -5.290882e+01 -5.757967e+01 -3.216987e+01 -1.804691e+01 -1.234379e+01 -6.895091e+00 -3.662437e+00 -1.468546e+00 -3.690384e-01 1.135751e-01 2.957265e-01 3.259274e-01 3.060544e-01 2.386101e-01 1.399030e-01 
-3.342412e-14 -6.859741e-02 -1.228123e-01 -1.657047e-01 -1.754557e-01 -1.139719e-01 1.319597e-01 8.028176e-01 2.195329e+00 4.806269e+00 8.700143e+00 1.393462e+01 2.056266e+01 2.629250e+01 3.214727e+01 2.738304e+01 1.422328e-12 -2.738304e+01 -3.214727e+01 -2.629250e+01 -2.056266e+01 -1.393462e+01 -8.700143e+00 -4.806269e+00 -2.195329e+00 -8.028176e-01 -1.319597e-01 1.139719e-01 1.754557e-01 1.657047e-01 1.228123e-01 6.859741e-02 
-4.059224e-14 -3.269515e-02 -6.043756e-02 -8.352527e-02 -8.209634e-02 -7.451444e-03 2.451550e-01 9.358287e-01 2.313450e+00 4.797647e+00 8.323723e+00 1.269838e+01 1.740402e+01 2.092862e+01 2.063852e+01 1.475883e+01 1.437362e-12 -1.475883e+01 -2.063852e+01 -2.092862e+01 -1.740402e+01 -1.269838e+01 -8.323723e+00 -4.797647e+00 -2.313450e+00 -9.358287e-01 -2.451550e-01 7.451444e-03 8.209634e-02 8.352527e-02 6.043756e-02 3.269515e-02 
-3.981464e-14 -1.326765e-02 -2.481769e-02 -3.366618e-02 -2.715253e-02 2.995177e-02 2.082337e-01 6.797889e-01 1.604371e+00 3.200313e+00 5.398129e+00 7.952781e+00 1.032696e+01 1.163846e+01 1.087367e+01 7.104852e+00 1.386674e-12 -7.104852e+00 -1.087367e+01 -1.163846e+01 -1.032696e+01 -7.952781e+00 -5.398129e+00 -3.200313e+00 -1.604371e+00 -6.797889e-01 -2.082337e-01 -2.995177e-02 2.715253e-02 3.366618e-02 2.481769e-02 1.326765e-02 
