# vtk DataFile Version 2.0
Comment goes here
ASCII

DATASET STRUCTURED_POINTS
FIELD FieldData 1
TIME 1 1 double
0.04000000
DIMENSIONS    32   32   1

ORIGIN    0.000   0.000   0.000
SPACING   0.03125 0.03125   1.000

POINT_DATA   1024
SCALARS Omega double
LOOKUP_TABLE default

-3.928947e-14 -3.937310e-14 -5.163534e-14 -5.637090e-14 -5.547181e-14 -5.099331e-14 -3.913859e-14 -4.450613e-15 -2.944613e-14 1.131027e-14 6.371798e-14 1.924230e-14 -1.328575e-14 4.227591e-14 4.488326e-14 -4.461862e-14 -9.199603e-15 1.002737e-13 1.090285e-13 5.548861e-14 7.579459e-14 -6.305411e-15 2.363383e-14 1.188584e-14 4.424032e-14 1.902100e-15 -1.294490e-14 -6.257736e-14 -4.354244e-14 -5.834439e-14 -3.919796e-14 -4.502224e-14 
-3.362947e-14 -7.566157e-04 -3.469383e-04 -2.710434e-03 -1.183537e-03 -4.153022e-03 -5.978914e-03 -4.430104e-03 -1.638410e-02 5.008304e-03 -1.348158e-01 -1.260999e-02 -5.800217e-01 3.032844e-01 6.422440e+00 3.972698e+00 -2.911912e-14 -3.972698e+00 -6.422440e+00 -3.032844e-01 5.800217e-01 1.260999e-02 1.348158e-01 -5.008304e-03 1.638410e-02 4.430104e-03 5.978914e-03 4.153022e-03 1.183537e-03 2.710434e-03 3.469383e-04 7.566157e-04 
-3.610079e-14 -2.086685e-03 -2.127309e-03 -8.008177e-03 -4.635684e-03 -1.544501e-02 -1.464191e-02 -1.836392e-02 1.996950e-03 -1.215242e-02 -1.835136e-01 -7.775300e-01 1.635913e+00 8.256500e+00 -1.096876e+01 -3.480086e+01 2.689377e-13 3.480086e+01 1.096876e+01 -8.256500e+00 -1.635913e+00 7.775300e-01 1.835136e-01 1.215242e-02 -1.996950e-03 1.836392e-02 1.464191e-02 1.544501e-02 4.635684e-03 8.008177e-03 2.127309e-03 2.086685e-03 
-4.893400e-14 -2.035729e-03 -6.813028e-04 -9.693943e-03 3.501080e-04 -2.441471e-02 -1.731380e-02 -2.748434e-03 5.618239e-02 -3.096951e-01 -9.933372e-01 1.652171e+00 1.155819e+01 -3.801738e+00 -4.483871e+01 -4.046666e+01 -8.999705e-14 4.046666e+01 4.483871e+01 3.801738e+00 -1.155819e+01 -1.652171e+00 9.933372e-01 3.096951e-01 -5.618239e-02 2.748434e-03 1.731380e-02 2.441471e-02 -3.501080e-04 9.693943e-03 6.813028e-04 2.035729e-03 
-7.143550e-14 -2.744081e-03 -2.705893e-03 -1.524189e-02 1.109594e-03 -6.002169e-02 -2.040346e-02 1.045279e-01 -2.427738e-01 -1.561841e+00 4.437917e+00 1.479468e+01 7.127016e+00 -1.532182e+01 -3.722703e+00 2.055358e+01 1.035935e-12 -2.055358e+01 3.722703e+00 1.532182e+01 -7.127016e+00 -1.479468e+01 -4.437917e+00 1.561841e+00 2.427738e-01 -1.045279e-01 2.040346e-02 6.002169e-02 -1.109594e-03 1.524189e-02 2.705893e-03 2.744081e-03 
-6.389188e-14 -1.832149e-03 -1.387818e-03 -1.517341e-02 1.330381e-02 -1.099911e-01 1.004737e-01 4.771461e-01 -2.116671e+00 6.478643e+00 2.588052e+01 2.842770e+01 8.038283e+00 7.843301e+00 3.184631e+01 2.549572e+01 1.830448e-12 -2.549572e+01 -3.184631e+01 -7.843301e+00 -8.038283e+00 -2.842770e+01 -2.588052e+01 -6.478643e+00 2.116671e+00 -4.771461e-01 -1.004737e-01 1.099911e-01 -1.330381e-02 1.517341e-02 1.387818e-03 1.832149e-03 
-3.546462e-14 -5.162920e-04 -3.379924e-03 -8.186203e-03 7.691625e-03 -9.977568e-02 3.236542e-01 5.177740e-01 3.538626e+00 3.792192e+01 6.302353e+01 5.310784e+01 4.641154e+01 5.196963e+01 2.387643e+01 2.274238e+00 -6.023423e-13 -2.274238e+00 -2.387643e+01 -5.196963e+01 -4.641154e+01 -5.310784e+01 -6.302353e+01 -3.792192e+01 -3.538626e+00 -5.177740e-01 -3.236542e-01 9.977568e-02 -7.691625e-03 8.186203e-03 3.379924e-03 5.162920e-04 
-4.602363e-14 1.635789e-05 -5.455805e-03 1.102909e-03 -1.913285e-02 1.087762e-01 6.283233e-01 4.394219e+00 3.763956e+01 8.748161e+01 9.476589e+01 8.969144e+01 9.569079e+01 7.023081e+01 3.007438e+01 1.371092e+01 -1.632180e-12 -1.371092e+01 -3.007438e+01 -7.023081e+01 -9.569079e+01 -8.969144e+01 -9.476589e+01 -8.748161e+01 -3.763956e+01 -4.394219e+00 -6.283233e-01 -1.087762e-01 1.913285e-02 -1.102909e-03 5.455805e-03 -1.635789e-05 
-4.270567e-14 -2.699719e-05 -6.256262e-03 7.097312e-03 9.802791e-03 5.259016e-01 3.348969e+00 2.366738e+01 8.407193e+01 1.038819e+02 1.109150e+02 1.353758e+02 1.059707e+02 5.009709e+01 5.340576e+01 2.788726e+01 -9.316004e-13 -2.788726e+01 -5.340576e+01 -5.009709e+01 -1.059707e+02 -1.353758e+02 -1.109150e+02 -1.038819e+02 -8.407193e+01 -2.366738e+01 -3.348969e+00 -5.259016e-01 -9.802791e-03 -7.097312e-03 6.256262e-03 2.699719e-05 
-2.250939e-14 -3.738464e-03 -2.757399e-03 -2.114099e-03 2.041279e-01 1.643438e+00 1.112310e+01 4.671512e+01 8.970102e+01 1.099233e+02 1.475550e+02 1.302151e+02 3.487790e+01 2.078637e+01 4.425702e+01 1.679174e+01 -4.587183e-13 -1.679174e+01 -4.425702e+01 -2.078637e+01 -3.487790e+01 -1.302151e+02 -1.475550e+02 -1.099233e+02 -8.970102e+01 -4.671512e+01 -1.112310e+01 -1.643438e+00 -2.041279e-01 2.114099e-03 2.757399e-03 3.738464e-03 
-1.511257e-14 -5.106281e-03 2.349580e-03 3.729671e-02 5.839650e-01 3.884566e+00 1.783524e+01 5.149141e+01 7.534114e+01 1.313480e+02 1.473632e+02 3.832519e+01 -4.867590e+01 7.765369e+00 1.497105e+01 4.029501e+00 -2.806363e-13 -4.029501e+00 -1.497105e+01 -7.765369e+00 4.867590e+01 -3.832519e+01 -1.473632e+02 -1.313480e+02 -7.534114e+01 -5.149141e+01 -1.783524e+01 -3.884566e+00 -5.839650e-01 -3.729671e-02 -2.349580e-03 5.106281e-03 
1.646210e-14 -6.522731e-03 1.168000e-02 1.177648e-01 1.098461e+00 5.743330e+00 1.924539e+01 3.874980e+01 7.612672e+01 1.379653e+02 8.992281e+01 -5.291888e+01 -6.035476e+01 1.072542e+01 1.665488e+00 4.093086e-01 -7.316126e-14 -4.093086e-01 -1.665488e+00 -1.072542e+01 6.035476e+01 5.291888e+01 -8.992281e+01 -1.379653e+02 -7.612672e+01 -3.874980e+01 -1.924539e+01 -5.743330e+00 -1.098461e+00 -1.177648e-01 -1.168000e-02 6.522731e-03 
2.866719e-14 -5.052216e-03 2.975824e-02 2.033479e-01 1.499623e+00 6.065731e+00 1.561589e+01 2.686962e+01 8.553227e+01 1.267675e+02 3.487983e+01 -8.598508e+01 -4.329692e+01 5.778361e+00 -9.799279e-01 2.878697e-02 -6.168607e-14 -2.878697e-02 9.799279e-01 -5.778361e+00 4.329692e+01 8.598508e+01 -3.487983e+01 -1.267675e+02 -8.553227e+01 -2.686962e+01 -1.561589e+01 -6.065731e+00 -1.499623e+00 -2.033479e-01 -2.975824e-02 5.052216e-03 
2.757128e-14 -5.539562e-03 3.581966e-02 2.290912e-01 1.473556e+00 4.893062e+00 1.001078e+01 2.207626e+01 8.328600e+01 1.036787e+02 1.260424e+00 -7.728891e+01 -2.872477e+01 4.597917e-01 -7.300082e-01 5.201245e-02 -5.984544e-14 -5.201245e-02 7.300082e-01 -4.597917e-01 2.872477e+01 7.728891e+01 -1.260424e+00 -1.036787e+02 -8.328600e+01 -2.207626e+01 -1.001078e+01 -4.893062e+00 -1.473556e+00 -2.290912e-01 -3.581966e-02 5.539562e-03 
4.120121e-14 -2.346274e-03 3.517260e-02 1.963544e-01 1.104058e+00 3.191313e+00 5.377449e+00 1.728626e+01 6.300192e+01 6.957933e+01 -1.271409e+01 -5.065548e+01 -1.665833e+01 -1.194647e+00 -4.046611e-01 3.768113e-02 -7.247588e-14 -3.768113e-02 4.046611e-01 1.194647e+00 1.665833e+01 5.065548e+01 1.271409e+01 -6.957933e+01 -6.300192e+01 -1.728626e+01 -5.377449e+00 -3.191313e+00 -1.104058e+00 -1.963544e-01 -3.517260e-02 2.346274e-03 
2.235963e-14 -1.539844e-03 1.973102e-02 1.135250e-01 6.021756e-01 1.590626e+00 2.055185e+00 8.999414e+00 3.247933e+01 3.355251e+01 -1.068530e+01 -2.357385e+01 -7.262508e+00 -8.247082e-01 -1.831283e-01 1.372105e-02 -4.704463e-14 -1.372105e-02 1.831283e-01 8.247082e-01 7.262508e+00 2.357385e+01 1.068530e+01 -3.355251e+01 -3.247933e+01 -8.999414e+00 -2.055185e+00 -1.590626e+00 -6.021756e-01 -1.135250e-01 -1.973102e-02 1.539844e-03 
6.517547e-14 5.676719e-14 4.178687e-14 3.312942e-14 1.162934e-13 2.972791e-13 6.398161e-13 8.439516e-13 -9.603750e-14 -2.314770e-13 -5.220757e-14 -4.852920e-13 -2.718700e-13 -6.143137e-14 -5.665888e-14 -5.177764e-14 -3.822767e-14 -3.853097e-14 -5.659477e-14 -1.125779e-13 -1.034351e-13 4.781887e-13 1.365525e-12 1.211924e-12 -8.120935e-13 -2.192267e-12 -1.339450e-12 -3.149325e-13 -2.588158e-14 1.430122e-14 2.864127e-14 6.069417e-14 
3.472852e-14 1.539844e-03 -1.973102e-02 -1.135250e-01 -6.021756e-01 -1.590626e+00 -2.055185e+00 -8.999414e+00 -3.247933e+01 -3.355251e+01 1.068530e+01 2.357385e+01 7.262508e+00 8.247082e-01 1.831283e-01 -1.372105e-02 -4.122094e-15 1.372105e-02 -1.831283e-01 -8.247082e-01 -7.262508e+00 -2.357385e+01 -1.068530e+01 3.355251e+01 3.247933e+01 8.999414e+00 2.055185e+00 1.590626e+00 6.021756e-01 1.135250e-01 1.973102e-02 -1.539844e-03 
3.023099e-14 2.346274e-03 -3.517260e-02 -1.963544e-01 -1.104058e+00 -3.191313e+00 -5.377449e+00 -1.728626e+01 -6.300192e+01 -6.957933e+01 1.271409e+01 5.065548e+01 1.665833e+01 1.194647e+00 4.046611e-01 -3.768113e-02 -8.872481e-15 3.768113e-02 -4.046611e-01 -1.194647e+00 -1.665833e+01 -5.065548e+01 -1.271409e+01 6.957933e+01 6.300192e+01 1.728626e+01 5.377449e+00 3.191313e+00 1.104058e+00 1.963544e-01 3.517260e-02 -2.346274e-03 
2.063799e-14 5.539562e-03 -3.581966e-02 -2.290912e-01 -1.473556e+00 -4.893062e+00 -1.001078e+01 -2.207626e+01 -8.328600e+01 -1.036787e+02 -1.260424e+00 7.728891e+01 2.872477e+01 -4.597917e-01 7.300082e-01 -5.201245e-02 -1.962755e-14 5.201245e-02 -7.300082e-01 4.597917e-01 -2.872477e+01 -7.728891e+01 1.260424e+00 1.036787e+02 8.328600e+01 2.207626e+01 1.001078e+01 4.893062e+00 1.473556e+00 2.290912e-01 3.581966e-02 -5.539562e-03 
5.906425e-14 5.052216e-03 -2.975824e-02 -2.033479e-01 -1.499623e+00 -6.065731e+00 -1.561589e+01 -2.686962e+01 -8.553227e+01 -1.267675e+02 -3.487983e+01 8.598508e+01 4.329692e+01 -5.778361e+00 9.799279e-01 -2.878697e-02 -3.725232e-14 2.878697e-02 -9.799279e-01 5.778361e+00 -4.329692e+01 -8.598508e+01 3.487983e+01 1.267675e+02 8.553227e+01 2.686962e+01 1.561589e+01 6.065731e+00 1.499623e+00 2.033479e-01 2.975824e-02 -5.052216e-03 
7.749821e-14 6.522731e-03 -1.168000e-02 -1.177648e-01 -1.098461e+00 -5.743330e+00 -1.924539e+01 -3.874980e+01 -7.612672e+01 -1.379653e+02 -8.992281e+01 5.291888e+01 6.035476e+01 -1.072542e+01 -1.665488e+00 -4.093086e-01 -2.788943e-14 4.093086e-01 1.665488e+00 1.072542e+01 -6.035476e+01 -5.291888e+01 8.992281e+01 1.379653e+02 7.612672e+01 3.874980e+01 1.924539e+01 5.743330e+00 1.098461e+00 1.177648e-01 1.168000e-02 -6.522731e-03 
3.756155e-14 5.106281e-03 -2.349580e-03 -3.729671e-02 -5.839650e-01 -3.884566e+00 -1.783524e+01 -5.149141e+01 -7.534114e+01 -1.313480e+02 -1.473632e+02 -3.832519e+01 4.867590e+01 -7.765369e+00 -1.497105e+01 -4.029501e+00 -6.763205e-14 4.029501e+00 1.497105e+01 7.765369e+00 -4.867590e+01 3.832519e+01 1.473632e+02 1.313480e+02 7.534114e+01 5.149141e+01 1.783524e+01 3.884566e+00 5.839650e-01 3.729671e-02 2.349580e-03 -5.106281e-03 
4.797575e-14 3.738464e-03 2.757399e-03 2.114099e-03 -2.041279e-01 -1.643438e+00 -1.112310e+01 -4.671512e+01 -8.970102e+01 -1.099233e+02 -1.475550e+02 -1.302151e+02 -3.487790e+01 -2.078637e+01 -4.425702e+01 -1.679174e+01 -5.952423e-13 1.679174e+01 4.425702e+01 2.078637e+01 3.487790e+01 1.302151e+02 1.475550e+02 1.099233e+02 8.970102e+01 4.671512e+01 1.112310e+01 1.643438e+00 2.041279e-01 -2.114099e-03 -2.757399e-03 -3.738464e-03 
4.876493e-14 2.699719e-05 6.256262e-03 -7.097312e-03 -9.802791e-03 -5.259016e-01 -3.348969e+00 -2.366738e+01 -8.407193e+01 -1.038819e+02 -1.109150e+02 -1.353758e+02 -1.059707e+02 -5.009709e+01 -5.340576e+01 -2.788726e+01 -1.400096e-12 2.788726e+01 5.340576e+01 5.009709e+01 1.059707e+02 1.353758e+02 1.109150e+02 1.038819e+02 8.407193e+01 2.366738e+01 3.348969e+00 5.259016e-01 9.802791e-03 7.097312e-03 -6.256262e-03 -2.699719e-05 
4.931211e-14 -1.635789e-05 5.455805e-03 -1.102909e-03 1.913285e-02 -1.087762e-01 -6.283233e-01 -4.394219e+00 -3.763956e+01 -8.748161e+01 -9.476589e+01 -8.969144e+01 -9.569079e+01 -7.023081e+01 -3.007438e+01 -1.371092e+01 -4.228421e-13 1.371092e+01 3.007438e+01 7.023081e+01 9.569079e+01 8.969144e+01 9.476589e+01 8.748161e+01 3.763956e+01 4.394219e+00 6.283233e-01 1.087762e-01 -1.913285e-02 1.102909e-03 -5.455805e-03 1.635789e-05 
3.325903e-14 5.162920e-04 3.379924e-03 8.186203e-03 -7.691625e-03 9.977568e-02 -3.236542e-01 -5.177740e-01 -3.538626e+00 -3.792192e+01 -6.302353e+01 -5.310784e+01 -4.641154e+01 -5.196963e+01 -2.387643e+01 -2.274238e+00 1.131420e-12 2.274238e+00 2.387643e+01 5.196963e+01 4.641154e+01 5.310784e+01 6.302353e+01 3.792192e+01 3.538626e+00 5.177740e-01 3.236542e-01 -9.977568e-02 7.691625e-03 -8.186203e-03 -3.379924e-03 -5.162920e-04 
-1.219239e-15 1.832149e-03 1.387818e-03 1.517341e-02 -1.330381e-02 1.099911e-01 -1.004737e-01 -4.771461e-01 2.116671e+00 -6.478643e+00 -2.588052e+01 -2.842770e+01 -8.038283e+00 -7.843301e+00 -3.184631e+01 -2.549572e+01 8.674229e-13 2.549572e+01 3.184631e+01 7.843301e+00 8.038283e+00 2.842770e+01 2.588052e+01 6.478643e+00 -2.116671e+00 4.771461e-01 1.004737e-01 -1.099911e-01 1.330381e-02 -1.517341e-02 -1.387818e-03 -1.832149e-03 
-9.875712e-15 2.744081e-03 2.705893e-03 1.524189e-02 -1.109594e-03 6.002169e-02 2.040346e-02 -1.045279e-01 2.427738e-01 1.561841e+00 -4.437917e+00 -1.479468e+01 -7.127016e+00 1.532182e+01 3.722703e+00 -2.055358e+01 8.340963e-13 2.055358e+01 -3.722703e+00 -1.532182e+01 7.127016e+00 1.479468e+01 4.437917e+00 -1.561841e+00 -2.427738e-01 1.045279e-01 -2.040346e-02 -6.002169e-02 1.109594e-03 -1.524189e-02 -2.705893e-03 -2.744081e-03 
1.471141e-15 2.035729e-03 6.813028e-04 9.693943e-03 -3.501080e-04 2.441471e-02 1.731380e-02 2.748434e-03 -5.618239e-02 3.096951e-01 9.933372e-01 -1.652171e+00 -1.155819e+01 3.801738e+00 4.483871e+01 4.046666e+01 9.480695e-14 -4.046666e+01 -4.483871e+01 -3.801738e+00 1.155819e+01 1.652171e+00 -9.933372e-01 -3.096951e-01 5.618239e-02 -2.748434e-03 -1.731380e-02 -2.441471e-02 3.501080e-04 -9.693943e-03 -6.813028e-04 -2.035729e-03 
-2.344531e-14 2.086685e-03 2.127309e-03 8.008177e-03 4.635684e-03 1.544501e-02 1.464191e-02 1.836392e-02 -1.996950e-03 1.215242e-02 1.835136e-01 7.775300e-01 -1.635913e+00 -8.256500e+00 1.096876e+01 3.480086e+01 -2.800920e-13 -3.480086e+01 -1.096876e+01 8.256500e+00 1.635913e+00 -7.775300e-01 -1.835136e-01 -1.215242e-02 1.996950e-03 -1.836392e-02 -1.464191e-02 -1.544501e-02 -4.635684e-03 -8.008177e-03 -2.127309e-03 -2.086685e-03 
-3.029477e-14 7.566157e-04 3.469383e-04 2.710434e-03 1.183537e-03 4.153022e-03 5.978914e-03 4.430104e-03 1.638410e-02 -5.008304e-03 1.348158e-01 1.260999e-02 5.800217e-01 -3.032844e-01 -6.422440e+00 -3.972698e+00 2.229384e-14 3.972698e+00 6.422440e+00 3.032844e-01 -5.800217e-01 -1.260999e-02 -1.348158e-01 5.008304e-03 -1.638410e-02 -4.430104e-03 -5.978914e-03 -4.153022e-03 -1.183537e-03 -2.710434e-03 -3.469383e-04 -7.566157e-04 
