# vtk DataFile Version 2.0
Comment goes here
ASCII

DATASET STRUCTURED_POINTS
FIELD FieldData 1
TIME 1 1 double
0.86000000
DIMENSIONS    32   32   1

ORIGIN    0.000   0.000   0.000
SPACING   0.03125 0.03125   1.000

POINT_DATA   1024
SCALARS Omega double
LOOKUP_TABLE default

-5.253413e-14 -4.694965e-14 -3.718236e-14 -4.963555e-14 -1.002972e-13 -1.255305e-13 -2.267242e-13 -2.543559e-13 -2.749551e-13 -2.496014e-13 -2.799651e-13 -3.341794e-13 -4.643489e-13 -5.261709e-13 -4.548674e-13 -5.285207e-13 -1.122928e-12 -7.482843e-13 -8.076573e-14 -2.417712e-14 -1.789950e-14 -7.984747e-14 -1.316942e-13 -2.358880e-13 -2.773272e-13 -2.694057e-13 -2.164426e-13 -1.419237e-13 -9.679982e-14 -6.281294e-14 -5.478805e-14 -5.240007e-14 
-4.321687e-14 3.482154e-02 3.479023e-02 -3.545548e-02 -2.303858e-01 -6.463631e-01 -1.373340e+00 -2.490190e+00 -3.954512e+00 -5.708117e+00 -7.620184e+00 -9.442821e+00 -1.077012e+01 -1.106924e+01 -9.723804e+00 -6.154496e+00 -1.156998e-12 6.154496e+00 9.723804e+00 1.106924e+01 1.077012e+01 9.442821e+00 7.620184e+00 5.708117e+00 3.954512e+00 2.490190e+00 1.373340e+00 6.463631e-01 2.303858e-01 3.545548e-02 -3.479023e-02 -3.482154e-02 
-4.853006e-14 1.115819e-01 1.459035e-01 4.595651e-02 -2.648573e-01 -9.313525e-01 -2.109785e+00 -3.965143e+00 -6.444380e+00 -9.429057e+00 -1.270649e+01 -1.589027e+01 -1.850181e+01 -1.969958e+01 -1.837385e+01 -1.258457e+01 -1.125228e-12 1.258457e+01 1.837385e+01 1.969958e+01 1.850181e+01 1.589027e+01 1.270649e+01 9.429057e+00 6.444380e+00 3.965143e+00 2.109785e+00 9.313525e-01 2.648573e-01 -4.595651e-02 -1.459035e-01 -1.115819e-01 
-6.486251e-14 2.879670e-01 4.262977e-01 3.485199e-01 -7.727191e-04 -7.323994e-01 -2.017648e+00 -4.077478e+00 -6.909132e+00 -1.036996e+01 -1.421326e+01 -1.811350e+01 -2.189058e+01 -2.511257e+01 -2.619854e+01 -2.005948e+01 -6.323819e-13 2.005948e+01 2.619854e+01 2.511257e+01 2.189058e+01 1.811350e+01 1.421326e+01 1.036996e+01 6.909132e+00 4.077478e+00 2.017648e+00 7.323994e-01 7.727191e-04 -3.485199e-01 -4.262977e-01 -2.879670e-01 
-1.838028e-13 6.457052e-01 1.004484e+00 9.968974e-01 6.255226e-01 -9.663167e-02 -1.276391e+00 -3.125634e+00 -5.713030e+00 -8.956453e+00 -1.272238e+01 -1.671974e+01 -2.184014e+01 -2.772455e+01 -3.348712e+01 -2.853721e+01 7.901941e-13 2.853721e+01 3.348712e+01 2.772455e+01 2.184014e+01 1.671974e+01 1.272238e+01 8.956453e+00 5.713030e+00 3.125634e+00 1.276391e+00 9.663167e-02 -6.255226e-01 -9.968974e-01 -1.004484e+00 -6.457052e-01 
-3.350896e-13 1.291835e+00 2.059928e+00 2.187081e+00 1.745887e+00 9.561784e-01 -1.680637e-01 -1.710370e+00 -3.867648e+00 -6.552218e+00 -9.776351e+00 -1.362866e+01 -1.820375e+01 -2.647957e+01 -4.021130e+01 -3.571195e+01 2.630249e-12 3.571195e+01 4.021130e+01 2.647957e+01 1.820375e+01 1.362866e+01 9.776351e+00 6.552218e+00 3.867648e+00 1.710370e+00 1.680637e-01 -9.561784e-01 -1.745887e+00 -2.187081e+00 -2.059928e+00 -1.291835e+00 
-5.283145e-13 2.294063e+00 3.721007e+00 4.086193e+00 3.523752e+00 2.520962e+00 1.267062e+00 -1.076286e-01 -1.895881e+00 -3.807079e+00 -5.395124e+00 -8.487253e+00 -1.242232e+01 -3.119118e+01 -4.646778e+01 -3.138608e+01 1.024104e-12 3.138608e+01 4.646778e+01 3.119118e+01 1.242232e+01 8.487253e+00 5.395124e+00 3.807079e+00 1.895881e+00 1.076286e-01 -1.267062e+00 -2.520962e+00 -3.523752e+00 -4.086193e+00 -3.721007e+00 -2.294063e+00 
-6.613672e-13 3.658583e+00 6.023632e+00 6.764977e+00 6.058397e+00 4.700355e+00 3.093299e+00 1.644867e+00 -1.793964e-01 6.558345e-01 1.350004e+00 -1.678003e+01 -3.073912e+01 -3.075798e+01 3.069918e+00 2.636046e+01 -2.280425e-12 -2.636046e+01 -3.069918e+00 3.075798e+01 3.073912e+01 1.678003e+01 -1.350004e+00 -6.558345e-01 1.793964e-01 -1.644867e+00 -3.093299e+00 -4.700355e+00 -6.058397e+00 -6.764977e+00 -6.023632e+00 -3.658583e+00 
-6.983677e-13 5.270745e+00 8.802668e+00 1.004130e+01 9.191816e+00 7.383869e+00 5.254832e+00 3.556965e+00 2.923370e+00 6.817461e+00 -3.257508e+00 -1.138242e+01 3.614973e+01 7.128186e+01 5.855902e+01 2.557891e+01 3.926119e-12 -2.557891e+01 -5.855902e+01 -7.128186e+01 -3.614973e+01 1.138242e+01 3.257508e+00 -6.817461e+00 -2.923370e+00 -3.556965e+00 -5.254832e+00 -7.383869e+00 -9.191816e+00 -1.004130e+01 -8.802668e+00 -5.270745e+00 
-5.471039e-13 6.981061e+00 1.181554e+01 1.357810e+01 1.253416e+01 1.018164e+01 7.637228e+00 7.484603e+00 1.033168e+01 9.069083e+00 1.695621e+01 5.145080e+01 5.941712e+01 2.550072e+01 -4.761239e+00 -9.238820e+00 6.086641e-12 9.238820e+00 4.761239e+00 -2.550072e+01 -5.941712e+01 -5.145080e+01 -1.695621e+01 -9.069083e+00 -1.033168e+01 -7.484603e+00 -7.637228e+00 -1.018164e+01 -1.253416e+01 -1.357810e+01 -1.181554e+01 -6.981061e+00 
-2.022014e-13 8.684083e+00 1.487922e+01 1.713051e+01 1.586293e+01 1.310116e+01 1.222848e+01 2.232980e+01 2.850785e+01 1.318085e+01 1.815761e+01 2.443802e+01 -7.971551e+00 -2.619573e+01 -1.579229e+01 -7.973784e-01 4.984231e-13 7.973784e-01 1.579229e+01 2.619573e+01 7.971551e+00 -2.443802e+01 -1.815761e+01 -1.318085e+01 -2.850785e+01 -2.232980e+01 -1.222848e+01 -1.310116e+01 -1.586293e+01 -1.713051e+01 -1.487922e+01 -8.684083e+00 
2.468943e-13 1.035707e+01 1.788847e+01 2.052571e+01 1.915279e+01 1.736362e+01 2.444772e+01 4.353186e+01 9.061848e+00 -1.566748e+01 5.782442e+00 -3.219873e+00 1.913441e-02 9.187222e+00 1.335166e+01 1.152676e+01 1.261064e-13 -1.152676e+01 -1.335166e+01 -9.187222e+00 -1.913441e-02 3.219873e+00 -5.782442e+00 1.566748e+01 -9.061848e+00 -4.353186e+01 -2.444772e+01 -1.736362e+01 -1.915279e+01 -2.052571e+01 -1.788847e+01 -1.035707e+01 
6.298874e-13 1.200055e+01 2.082184e+01 2.400079e+01 2.330281e+01 2.507552e+01 4.143791e+01 2.322106e+01 -4.910247e+01 -1.587790e+01 2.225920e+01 -5.351845e+00 1.263457e+00 7.679373e+00 8.320960e+00 7.068572e+00 4.897928e-13 -7.068572e+00 -8.320960e+00 -7.679373e+00 -1.263457e+00 5.351845e+00 -2.225920e+01 1.587790e+01 4.910247e+01 -2.322106e+01 -4.143791e+01 -2.507552e+01 -2.330281e+01 -2.400079e+01 -2.082184e+01 -1.200055e+01 
9.052194e-13 1.325856e+01 2.303541e+01 2.700903e+01 2.758174e+01 3.135038e+01 4.036752e+01 -3.275601e+01 -4.726608e+01 3.954034e+01 1.574568e+01 -1.633575e+01 -6.049490e+00 2.095890e+00 3.987563e+00 3.638225e+00 1.728135e-13 -3.638225e+00 -3.987563e+00 -2.095890e+00 6.049490e+00 1.633575e+01 -1.574568e+01 -3.954034e+01 4.726608e+01 3.275601e+01 -4.036752e+01 -3.135038e+01 -2.758174e+01 -2.700903e+01 -2.303541e+01 -1.325856e+01 
8.622781e-13 1.286826e+01 2.205885e+01 2.571842e+01 2.591612e+01 2.793404e+01 1.462514e+01 -5.648614e+01 -7.992982e-02 6.167661e+01 -8.113092e+00 -2.273532e+01 -6.674489e+00 -1.050550e+00 8.429299e-01 1.258469e+00 -1.402654e-14 -1.258469e+00 -8.429299e-01 1.050550e+00 6.674489e+00 2.273532e+01 8.113092e+00 -6.167661e+01 7.992982e-02 5.648614e+01 -1.462514e+01 -2.793404e+01 -2.591612e+01 -2.571842e+01 -2.205885e+01 -1.286826e+01 
3.277615e-13 8.678785e+00 1.418039e+01 1.545660e+01 1.408689e+01 1.484136e+01 -1.943281e+00 -2.817171e+01 2.012414e+01 3.442498e+01 -1.312636e+01 -1.774871e+01 -5.836806e+00 -1.897834e+00 -3.697688e-01 1.504462e-01 6.900053e-15 -1.504462e-01 3.697688e-01 1.897834e+00 5.836806e+00 1.774871e+01 1.312636e+01 -3.442498e+01 -2.012414e+01 2.817171e+01 1.943281e+00 -1.484136e+01 -1.408689e+01 -1.545660e+01 -1.418039e+01 -8.678785e+00 
-5.967079e-13 -1.120674e-12 -1.618415e-12 -1.446862e-12 -7.932556e-13 -3.571096e-13 5.980855e-13 1.481702e-12 1.261192e-12 -3.742563e-13 -7.066704e-13 -1.306980e-13 9.593362e-14 9.375593e-14 5.198664e-14 -8.068154e-15 1.906159e-14 8.647098e-14 1.675219e-13 5.044641e-13 1.069171e-12 1.896235e-12 -7.208949e-13 2.472531e-12 7.199715e-12 -1.076671e-12 -5.666693e-12 -2.891522e-12 -1.959282e-12 -2.115170e-12 -1.564081e-12 -7.915504e-13 
-5.657160e-13 -8.678785e+00 -1.418039e+01 -1.545660e+01 -1.408689e+01 -1.484136e+01 1.943281e+00 2.817171e+01 -2.012414e+01 -3.442498e+01 1.312636e+01 1.774871e+01 5.836806e+00 1.897834e+00 3.697688e-01 -1.504462e-01 3.040624e-14 1.504462e-01 -3.697688e-01 -1.897834e+00 -5.836806e+00 -1.774871e+01 -1.312636e+01 3.442498e+01 2.012414e+01 -2.817171e+01 -1.943281e+00 1.484136e+01 1.408689e+01 1.545660e+01 1.418039e+01 8.678785e+00 
-3.157341e-16 -1.286826e+01 -2.205885e+01 -2.571842e+01 -2.591612e+01 -2.793404e+01 -1.462514e+01 5.648614e+01 7.992982e-02 -6.167661e+01 8.113092e+00 2.273532e+01 6.674489e+00 1.050550e+00 -8.429299e-01 -1.258469e+00 1.253949e-13 1.258469e+00 8.429299e-01 -1.050550e+00 -6.674489e+00 -2.273532e+01 -8.113092e+00 6.167661e+01 -7.992982e-02 -5.648614e+01 1.462514e+01 2.793404e+01 2.591612e+01 2.571842e+01 2.205885e+01 1.286826e+01 
4.628191e-14 -1.325856e+01 -2.303541e+01 -2.700903e+01 -2.758174e+01 -3.135038e+01 -4.036752e+01 3.275601e+01 4.726608e+01 -3.954034e+01 -1.574568e+01 1.633575e+01 6.049490e+00 -2.095890e+00 -3.987563e+00 -3.638225e+00 6.209781e-13 3.638225e+00 3.987563e+00 2.095890e+00 -6.049490e+00 -1.633575e+01 1.574568e+01 3.954034e+01 -4.726608e+01 -3.275601e+01 4.036752e+01 3.135038e+01 2.758174e+01 2.700903e+01 2.303541e+01 1.325856e+01 
-1.408436e-13 -1.200055e+01 -2.082184e+01 -2.400079e+01 -2.330281e+01 -2.507552e+01 -4.143791e+01 -2.322106e+01 4.910247e+01 1.587790e+01 -2.225920e+01 5.351845e+00 -1.263457e+00 -7.679373e+00 -8.320960e+00 -7.068572e+00 1.363499e-12 7.068572e+00 8.320960e+00 7.679373e+00 1.263457e+00 -5.351845e+00 2.225920e+01 -1.587790e+01 -4.910247e+01 2.322106e+01 4.143791e+01 2.507552e+01 2.330281e+01 2.400079e+01 2.082184e+01 1.200055e+01 
-4.666672e-13 -1.035707e+01 -1.788847e+01 -2.052571e+01 -1.915279e+01 -1.736362e+01 -2.444772e+01 -4.353186e+01 -9.061848e+00 1.566748e+01 -5.782442e+00 3.219873e+00 -1.913441e-02 -9.187222e+00 -1.335166e+01 -1.152676e+01 1.087088e-12 1.152676e+01 1.335166e+01 9.187222e+00 1.913441e-02 -3.219873e+00 5.782442e+00 -1.566748e+01 9.061848e+00 4.353186e+01 2.444772e+01 1.736362e+01 1.915279e+01 2.052571e+01 1.788847e+01 1.035707e+01 
-8.092278e-13 -8.684083e+00 -1.487922e+01 -1.713051e+01 -1.586293e+01 -1.310116e+01 -1.222848e+01 -2.232980e+01 -2.850785e+01 -1.318085e+01 -1.815761e+01 -2.443802e+01 7.971551e+00 2.619573e+01 1.579229e+01 7.973784e-01 -2.397892e-12 -7.973784e-01 -1.579229e+01 -2.619573e+01 -7.971551e+00 2.443802e+01 1.815761e+01 1.318085e+01 2.850785e+01 2.232980e+01 1.222848e+01 1.310116e+01 1.586293e+01 1.713051e+01 1.487922e+01 8.684083e+00 
-1.021775e-12 -6.981061e+00 -1.181554e+01 -1.357810e+01 -1.253416e+01 -1.018164e+01 -7.637228e+00 -7.484603e+00 -1.033168e+01 -9.069083e+00 -1.695621e+01 -5.145080e+01 -5.941712e+01 -2.550072e+01 4.761239e+00 9.238820e+00 8.952560e-14 -9.238820e+00 -4.761239e+00 2.550072e+01 5.941712e+01 5.145080e+01 1.695621e+01 9.069083e+00 1.033168e+01 7.484603e+00 7.637228e+00 1.018164e+01 1.253416e+01 1.357810e+01 1.181554e+01 6.981061e+00 
-9.973027e-13 -5.270745e+00 -8.802668e+00 -1.004130e+01 -9.191816e+00 -7.383869e+00 -5.254832e+00 -3.556965e+00 -2.923370e+00 -6.817461e+00 3.257508e+00 1.138242e+01 -3.614973e+01 -7.128186e+01 -5.855902e+01 -2.557891e+01 8.027648e-12 2.557891e+01 5.855902e+01 7.128186e+01 3.614973e+01 -1.138242e+01 -3.257508e+00 6.817461e+00 2.923370e+00 3.556965e+00 5.254832e+00 7.383869e+00 9.191816e+00 1.004130e+01 8.802668e+00 5.270745e+00 
-8.160843e-13 -3.658583e+00 -6.023632e+00 -6.764977e+00 -6.058397e+00 -4.700355e+00 -3.093299e+00 -1.644867e+00 1.793964e-01 -6.558345e-01 -1.350004e+00 1.678003e+01 3.073912e+01 3.075798e+01 -3.069918e+00 -2.636046e+01 5.739432e-12 2.636046e+01 3.069918e+00 -3.075798e+01 -3.073912e+01 -1.678003e+01 1.350004e+00 6.558345e-01 -1.793964e-01 1.644867e+00 3.093299e+00 4.700355e+00 6.058397e+00 6.764977e+00 6.023632e+00 3.658583e+00 
-5.265241e-13 -2.294063e+00 -3.721007e+00 -4.086193e+00 -3.523752e+00 -2.520962e+00 -1.267062e+00 1.076286e-01 1.895881e+00 3.807079e+00 5.395124e+00 8.487253e+00 1.242232e+01 3.119118e+01 4.646778e+01 3.138608e+01 -2.160239e-12 -3.138608e+01 -4.646778e+01 -3.119118e+01 -1.242232e+01 -8.487253e+00 -5.395124e+00 -3.807079e+00 -1.895881e+00 -1.076286e-01 1.267062e+00 2.520962e+00 3.523752e+00 4.086193e+00 3.721007e+00 2.294063e+00 
-3.264936e-13 -1.291835e+00 -2.059928e+00 -2.187081e+00 -1.745887e+00 -9.561784e-01 1.680637e-01 1.710370e+00 3.867648e+00 6.552218e+00 9.776351e+00 1.362866e+01 1.820375e+01 2.647957e+01 4.021130e+01 3.571195e+01 1.283578e-12 -3.571195e+01 -4.021130e+01 -2.647957e+01 -1.820375e+01 -1.362866e+01 -9.776351e+00 -6.552218e+00 -3.867648e+00 -1.710370e+00 -1.680637e-01 9.561784e-01 1.745887e+00 2.187081e+00 2.059928e+00 1.291835e+00 
-1.548940e-13 -6.457052e-01 -1.004484e+00 -9.968974e-01 -6.255226e-01 9.663167e-02 1.276391e+00 3.125634e+00 5.713030e+00 8.956453e+00 1.272238e+01 1.671974e+01 2.184014e+01 2.772455e+01 3.348712e+01 2.853721e+01 6.226586e-13 -2.853721e+01 -3.348712e+01 -2.772455e+01 -2.184014e+01 -1.671974e+01 -1.272238e+01 -8.956453e+00 -5.713030e+00 -3.125634e+00 -1.276391e+00 -9.663167e-02 6.255226e-01 9.968974e-01 1.004484e+00 6.457052e-01 
-9.274140e-14 -2.879670e-01 -4.262977e-01 -3.485199e-01 7.727191e-04 7.323994e-01 2.017648e+00 4.077478e+00 6.909132e+00 1.036996e+01 1.421326e+01 1.811350e+01 2.189058e+01 2.511257e+01 2.619854e+01 2.005948e+01 -5.877760e-13 -2.005948e+01 -2.619854e+01 -2.511257e+01 -2.189058e+01 -1.811350e+01 -1.421326e+01 -1.036996e+01 -6.909132e+00 -4.077478e+00 -2.017648e+00 -7.323994e-01 -7.727191e-04 3.485199e-01 4.262977e-01 2.879670e-01 
-6.240662e-14 -1.115819e-01 -1.459035e-01 -4.595651e-02 2.648573e-01 9.313525e-01 2.109785e+00 3.965143e+00 6.444380e+00 9.429057e+00 1.270649e+01 1.589027e+01 1.850181e+01 1.969958e+01 1.837385e+01 1.258457e+01 -1.121583e-12 -1.258457e+01 -1.837385e+01 -1.969958e+01 -1.850181e+01 -1.589027e+01 -1.270649e+01 -9.429057e+00 -6.444380e+00 -3.965143e+00 -2.109785e+00 -9.313525e-01 -2.648573e-01 4.595651e-02 1.459035e-01 1.115819e-01 
-5.959352e-14 -3.482154e-02 -3.479023e-02 3.545548e-02 2.303858e-01 6.463631e-01 1.373340e+00 2.490190e+00 3.954512e+00 5.708117e+00 7.620184e+00 9.442821e+00 1.077012e+01 1.106924e+01 9.723804e+00 6.154496e+00 -1.153344e-12 -6.154496e+00 -9.723804e+00 -1.106924e+01 -1.077012e+01 -9.442821e+00 -7.620184e+00 -5.708117e+00 -3.954512e+00 -2.490190e+00 -1.373340e+00 -6.463631e-01 -2.303858e-01 -3.545548e-02 3.479023e-02 3.482154e-02 
