# vtk DataFile Version 2.0
Comment goes here
ASCII

DATASET STRUCTURED_POINTS
FIELD FieldData 1
TIME 1 1 double
0.60000000
DIMENSIONS    32   32   1

ORIGIN    0.000   0.000   0.000
SPACING   0.03125 0.03125   1.000

POINT_DATA   1024
SCALARS Omega double
LOOKUP_TABLE default

-3.781662e-14 -3.537188e-14 -4.248161e-14 -1.833672e-14 -2.264956e-14 -4.185683e-14 -9.390106e-14 -1.182325e-13 -2.748801e-13 -4.371451e-13 -5.704193e-13 -5.807822e-13 -4.475074e-13 -2.147406e-13 1.769912e-13 8.146513e-13 9.502119e-13 4.212017e-13 2.494337e-13 5.819933e-14 -1.392294e-13 -3.322915e-13 -3.991391e-13 -3.132613e-13 -2.579696e-13 -1.445619e-13 -8.124111e-14 -6.420815e-14 -5.326113e-14 -4.650776e-14 -5.331352e-14 -5.120582e-14 
-3.070841e-14 1.820848e-02 3.376181e-02 3.340530e-02 1.311179e-02 -8.912438e-02 -3.473187e-01 -9.404756e-01 -2.009236e+00 -3.596487e+00 -5.594099e+00 -7.728864e+00 -1.003222e+01 -1.232832e+01 -1.384346e+01 -1.162345e+01 4.049502e-13 1.162345e+01 1.384346e+01 1.232832e+01 1.003222e+01 7.728864e+00 5.594099e+00 3.596487e+00 2.009236e+00 9.404756e-01 3.473187e-01 8.912438e-02 -1.311179e-02 -3.340530e-02 -3.376181e-02 -1.820848e-02 
-3.162259e-14 4.843782e-02 8.798783e-02 9.345491e-02 6.932750e-02 -8.353169e-02 -4.651817e-01 -1.369646e+00 -3.052996e+00 -5.665475e+00 -9.186143e+00 -1.315860e+01 -1.770732e+01 -2.231607e+01 -2.507247e+01 -2.011177e+01 1.063381e-13 2.011177e+01 2.507247e+01 2.231607e+01 1.770732e+01 1.315860e+01 9.186143e+00 5.665475e+00 3.052996e+00 1.369646e+00 4.651817e-01 8.353169e-02 -6.932750e-02 -9.345491e-02 -8.798783e-02 -4.843782e-02 
-9.644517e-15 1.101372e-01 1.911093e-01 2.071054e-01 1.848965e-01 2.186757e-02 -3.658011e-01 -1.291569e+00 -3.078057e+00 -5.921857e+00 -1.000893e+01 -1.472820e+01 -2.043433e+01 -2.656275e+01 -3.006083e+01 -2.232434e+01 2.920620e-13 2.232434e+01 3.006083e+01 2.656275e+01 2.043433e+01 1.472820e+01 1.000893e+01 5.921857e+00 3.078057e+00 1.291569e+00 3.658011e-01 -2.186757e-02 -1.848965e-01 -2.071054e-01 -1.911093e-01 -1.101372e-01 
-1.393979e-14 2.449241e-01 4.057305e-01 4.335954e-01 4.055828e-01 2.413876e-01 -7.395270e-02 -8.233714e-01 -2.295072e+00 -4.600683e+00 -8.180060e+00 -1.237435e+01 -1.817996e+01 -2.517238e+01 -2.797941e+01 -1.809500e+01 7.793846e-13 1.809500e+01 2.797941e+01 2.517238e+01 1.817996e+01 1.237435e+01 8.180060e+00 4.600683e+00 2.295072e+00 8.233714e-01 7.395270e-02 -2.413876e-01 -4.055828e-01 -4.335954e-01 -4.057305e-01 -2.449241e-01 
-4.294044e-14 5.356218e-01 8.527581e-01 8.864300e-01 7.987702e-01 5.745620e-01 2.903099e-01 -3.082192e-01 -1.455648e+00 -2.756582e+00 -5.574054e+00 -1.006309e+01 -1.611659e+01 -2.293370e+01 -2.059210e+01 -9.894877e+00 1.070363e-12 9.894877e+00 2.059210e+01 2.293370e+01 1.611659e+01 1.006309e+01 5.574054e+00 2.756582e+00 1.455648e+00 3.082192e-01 -2.903099e-01 -5.745620e-01 -7.987702e-01 -8.864300e-01 -8.527581e-01 -5.356218e-01 
-9.521735e-14 1.090976e+00 1.695583e+00 1.731070e+00 1.493346e+00 1.088774e+00 7.452593e-01 2.471718e-01 -3.808043e-01 -1.013034e+00 -6.228524e+00 -1.820368e+01 -2.442016e+01 -3.032117e+01 -1.632733e+01 -5.601136e+00 1.479689e-12 5.601136e+00 1.632733e+01 3.032117e+01 2.442016e+01 1.820368e+01 6.228524e+00 1.013034e+00 3.808043e-01 -2.471718e-01 -7.452593e-01 -1.088774e+00 -1.493346e+00 -1.731070e+00 -1.695583e+00 -1.090976e+00 
-2.298916e-13 2.056518e+00 3.164936e+00 3.212530e+00 2.667449e+00 1.887728e+00 1.400665e+00 1.178497e+00 6.344353e-01 -5.730606e+00 -2.734630e+01 -5.751770e+01 -3.902412e+01 -1.156618e+01 1.063928e+01 4.463837e+00 -1.266914e-12 -4.463837e+00 -1.063928e+01 1.156618e+01 3.902412e+01 5.751770e+01 2.734630e+01 5.730606e+00 -6.344353e-01 -1.178497e+00 -1.400665e+00 -1.887728e+00 -2.667449e+00 -3.212530e+00 -3.164936e+00 -2.056518e+00 
-3.984385e-13 3.487564e+00 5.353597e+00 5.478274e+00 4.491052e+00 3.220178e+00 3.016633e+00 1.493088e+00 -1.038974e+01 -4.301805e+01 -5.290142e+01 -2.982603e+01 4.596019e+00 1.206833e+01 5.288313e+00 -8.101099e+00 -1.910467e-12 8.101099e+00 -5.288313e+00 -1.206833e+01 -4.596019e+00 2.982603e+01 5.290142e+01 4.301805e+01 1.038974e+01 -1.493088e+00 -3.016633e+00 -3.220178e+00 -4.491052e+00 -5.478274e+00 -5.353597e+00 -3.487564e+00 
-6.023530e-13 5.407576e+00 8.334571e+00 8.664686e+00 7.143776e+00 4.490950e+00 -2.446823e-01 -1.173494e+01 -3.604222e+01 -5.727004e+01 -3.429302e+01 -6.971598e+00 -1.630742e+01 -3.428392e+01 -3.344032e+01 -1.924158e+01 9.056560e-13 1.924158e+01 3.344032e+01 3.428392e+01 1.630742e+01 6.971598e+00 3.429302e+01 5.727004e+01 3.604222e+01 1.173494e+01 2.446823e-01 -4.490950e+00 -7.143776e+00 -8.664686e+00 -8.334571e+00 -5.407576e+00 
-7.614872e-13 7.668841e+00 1.187988e+01 1.266290e+01 1.065664e+01 7.075588e+00 2.030024e+00 -5.385493e+00 -6.092363e+01 -5.591235e+01 -3.085610e+01 -3.694558e+01 -3.013652e+01 -1.240268e+01 3.393046e+00 7.594494e+00 1.765192e-13 -7.594494e+00 -3.393046e+00 1.240268e+01 3.013652e+01 3.694558e+01 3.085610e+01 5.591235e+01 6.092363e+01 5.385493e+00 -2.030024e+00 -7.075588e+00 -1.065664e+01 -1.266290e+01 -1.187988e+01 -7.668841e+00 
-8.481473e-13 9.963572e+00 1.568129e+01 1.716867e+01 1.579291e+01 1.248176e+01 1.859641e+01 -1.360902e+01 -9.007662e+01 -4.251524e+01 -1.394685e+01 -3.128554e+00 2.293833e+01 3.433338e+01 3.295768e+01 1.871829e+01 -3.017330e-13 -1.871829e+01 -3.295768e+01 -3.433338e+01 -2.293833e+01 3.128554e+00 1.394685e+01 4.251524e+01 9.007662e+01 1.360902e+01 -1.859641e+01 -1.248176e+01 -1.579291e+01 -1.716867e+01 -1.568129e+01 -9.963572e+00 
-6.945424e-13 1.179900e+01 1.919514e+01 2.222030e+01 2.146931e+01 2.052150e+01 3.339610e+01 -7.233513e+01 -8.162136e+01 9.653485e-01 1.257733e+01 1.449900e+01 1.030581e+01 9.229000e+00 1.060446e+01 7.870776e+00 -1.643577e-13 -7.870776e+00 -1.060446e+01 -9.229000e+00 -1.030581e+01 -1.449900e+01 -1.257733e+01 -9.653485e-01 8.162136e+01 7.233513e+01 -3.339610e+01 -2.052150e+01 -2.146931e+01 -2.222030e+01 -1.919514e+01 -1.179900e+01 
-2.985405e-13 1.238779e+01 2.140797e+01 2.592088e+01 2.967064e+01 5.164656e+01 1.074921e+01 -1.127158e+02 -2.856339e+01 2.052726e+01 -1.785354e+00 -8.296270e+00 -5.325912e+00 5.237135e-01 3.996727e+00 3.730202e+00 -7.877012e-14 -3.730202e+00 -3.996727e+00 -5.237135e-01 5.325912e+00 8.296270e+00 1.785354e+00 -2.052726e+01 2.856339e+01 1.127158e+02 -1.074921e+01 -5.164656e+01 -2.967064e+01 -2.592088e+01 -2.140797e+01 -1.238779e+01 
1.908730e-13 1.087547e+01 2.007134e+01 2.757859e+01 4.324748e+01 7.393134e+01 -4.503166e+01 -8.600675e+01 9.733874e+00 6.033798e+00 -1.155345e+01 -1.363496e+01 -8.531986e+00 -2.796783e+00 6.448445e-01 1.266482e+00 -7.580987e-14 -1.266482e+00 -6.448445e-01 2.796783e+00 8.531986e+00 1.363496e+01 1.155345e+01 -6.033798e+00 -9.733874e+00 8.600675e+01 4.503166e+01 -7.393134e+01 -4.324748e+01 -2.757859e+01 -2.007134e+01 -1.087547e+01 
7.875142e-13 6.523463e+00 1.279779e+01 2.074955e+01 3.781519e+01 4.669286e+01 -5.267470e+01 -3.165353e+01 1.619687e+01 -3.868561e+00 -1.220449e+01 -1.188053e+01 -7.817452e+00 -3.359001e+00 -6.353789e-01 2.302208e-01 -6.127282e-14 -2.302208e-01 6.353789e-01 3.359001e+00 7.817452e+00 1.188053e+01 1.220449e+01 3.868561e+00 -1.619687e+01 3.165353e+01 5.267470e+01 -4.669286e+01 -3.781519e+01 -2.074955e+01 -1.279779e+01 -6.523463e+00 
1.303326e-12 1.228055e-12 1.089025e-12 9.197658e-13 1.510756e-12 1.511684e-12 -5.667581e-13 2.157997e-12 3.798580e-12 1.493984e-12 3.433278e-13 2.696449e-14 -1.312644e-14 -1.281785e-13 -3.717132e-14 -1.047764e-13 -6.609888e-14 -7.086207e-14 -5.265901e-14 -1.187004e-13 1.640495e-13 6.098192e-13 2.018497e-12 4.977932e-12 1.844940e-12 -4.256100e-12 -9.177243e-13 2.457903e-12 4.342232e-12 2.818526e-12 1.804907e-12 1.320112e-12 
7.318400e-13 -6.523463e+00 -1.279779e+01 -2.074955e+01 -3.781519e+01 -4.669286e+01 5.267470e+01 3.165353e+01 -1.619687e+01 3.868561e+00 1.220449e+01 1.188053e+01 7.817452e+00 3.359001e+00 6.353789e-01 -2.302208e-01 -6.825086e-14 2.302208e-01 -6.353789e-01 -3.359001e+00 -7.817452e+00 -1.188053e+01 -1.220449e+01 -3.868561e+00 1.619687e+01 -3.165353e+01 -5.267470e+01 4.669286e+01 3.781519e+01 2.074955e+01 1.279779e+01 6.523463e+00 
-2.581715e-13 -1.087547e+01 -2.007134e+01 -2.757859e+01 -4.324748e+01 -7.393134e+01 4.503166e+01 8.600675e+01 -9.733874e+00 -6.033798e+00 1.155345e+01 1.363496e+01 8.531986e+00 2.796783e+00 -6.448445e-01 -1.266482e+00 -5.283099e-15 1.266482e+00 6.448445e-01 -2.796783e+00 -8.531986e+00 -1.363496e+01 -1.155345e+01 6.033798e+00 9.733874e+00 -8.600675e+01 -4.503166e+01 7.393134e+01 4.324748e+01 2.757859e+01 2.007134e+01 1.087547e+01 
-9.260723e-13 -1.238779e+01 -2.140797e+01 -2.592088e+01 -2.967064e+01 -5.164656e+01 -1.074921e+01 1.127158e+02 2.856339e+01 -2.052726e+01 1.785354e+00 8.296270e+00 5.325912e+00 -5.237135e-01 -3.996727e+00 -3.730202e+00 7.091553e-14 3.730202e+00 3.996727e+00 5.237135e-01 -5.325912e+00 -8.296270e+00 -1.785354e+00 2.052726e+01 -2.856339e+01 -1.127158e+02 1.074921e+01 5.164656e+01 2.967064e+01 2.592088e+01 2.140797e+01 1.238779e+01 
-1.208880e-12 -1.179900e+01 -1.919514e+01 -2.222030e+01 -2.146931e+01 -2.052150e+01 -3.339610e+01 7.233513e+01 8.162136e+01 -9.653485e-01 -1.257733e+01 -1.449900e+01 -1.030581e+01 -9.229000e+00 -1.060446e+01 -7.870776e+00 1.214290e-13 7.870776e+00 1.060446e+01 9.229000e+00 1.030581e+01 1.449900e+01 1.257733e+01 9.653485e-01 -8.162136e+01 -7.233513e+01 3.339610e+01 2.052150e+01 2.146931e+01 2.222030e+01 1.919514e+01 1.179900e+01 
-1.206372e-12 -9.963572e+00 -1.568129e+01 -1.716867e+01 -1.579291e+01 -1.248176e+01 -1.859641e+01 1.360902e+01 9.007662e+01 4.251524e+01 1.394685e+01 3.128554e+00 -2.293833e+01 -3.433338e+01 -3.295768e+01 -1.871829e+01 -9.345614e-13 1.871829e+01 3.295768e+01 3.433338e+01 2.293833e+01 -3.128554e+00 -1.394685e+01 -4.251524e+01 -9.007662e+01 -1.360902e+01 1.859641e+01 1.248176e+01 1.579291e+01 1.716867e+01 1.568129e+01 9.963572e+00 
-9.496908e-13 -7.668841e+00 -1.187988e+01 -1.266290e+01 -1.065664e+01 -7.075588e+00 -2.030024e+00 5.385493e+00 6.092363e+01 5.591235e+01 3.085610e+01 3.694558e+01 3.013652e+01 1.240268e+01 -3.393046e+00 -7.594494e+00 -3.902585e-12 7.594494e+00 3.393046e+00 -1.240268e+01 -3.013652e+01 -3.694558e+01 -3.085610e+01 -5.591235e+01 -6.092363e+01 -5.385493e+00 2.030024e+00 7.075588e+00 1.065664e+01 1.266290e+01 1.187988e+01 7.668841e+00 
-7.112629e-13 -5.407576e+00 -8.334571e+00 -8.664686e+00 -7.143776e+00 -4.490950e+00 2.446823e-01 1.173494e+01 3.604222e+01 5.727004e+01 3.429302e+01 6.971598e+00 1.630742e+01 3.428392e+01 3.344032e+01 1.924158e+01 -4.095185e-12 -1.924158e+01 -3.344032e+01 -3.428392e+01 -1.630742e+01 -6.971598e+00 -3.429302e+01 -5.727004e+01 -3.604222e+01 -1.173494e+01 -2.446823e-01 4.490950e+00 7.143776e+00 8.664686e+00 8.334571e+00 5.407576e+00 
-4.101599e-13 -3.487564e+00 -5.353597e+00 -5.478274e+00 -4.491052e+00 -3.220178e+00 -3.016633e+00 -1.493088e+00 1.038974e+01 4.301805e+01 5.290142e+01 2.982603e+01 -4.596019e+00 -1.206833e+01 -5.288313e+00 8.101099e+00 -1.228139e-12 -8.101099e+00 5.288313e+00 1.206833e+01 4.596019e+00 -2.982603e+01 -5.290142e+01 -4.301805e+01 -1.038974e+01 1.493088e+00 3.016633e+00 3.220178e+00 4.491052e+00 5.478274e+00 5.353597e+00 3.487564e+00 
-2.545997e-13 -2.056518e+00 -3.164936e+00 -3.212530e+00 -2.667449e+00 -1.887728e+00 -1.400665e+00 -1.178497e+00 -6.344353e-01 5.730606e+00 2.734630e+01 5.751770e+01 3.902412e+01 1.156618e+01 -1.063928e+01 -4.463837e+00 4.429202e-12 4.463837e+00 1.063928e+01 -1.156618e+01 -3.902412e+01 -5.751770e+01 -2.734630e+01 -5.730606e+00 6.344353e-01 1.178497e+00 1.400665e+00 1.887728e+00 2.667449e+00 3.212530e+00 3.164936e+00 2.056518e+00 
-8.824510e-14 -1.090976e+00 -1.695583e+00 -1.731070e+00 -1.493346e+00 -1.088774e+00 -7.452593e-01 -2.471718e-01 3.808043e-01 1.013034e+00 6.228524e+00 1.820368e+01 2.442016e+01 3.032117e+01 1.632733e+01 5.601136e+00 2.846741e-12 -5.601136e+00 -1.632733e+01 -3.032117e+01 -2.442016e+01 -1.820368e+01 -6.228524e+00 -1.013034e+00 -3.808043e-01 2.471718e-01 7.452593e-01 1.088774e+00 1.493346e+00 1.731070e+00 1.695583e+00 1.090976e+00 
-4.498479e-14 -5.356218e-01 -8.527581e-01 -8.864300e-01 -7.987702e-01 -5.745620e-01 -2.903099e-01 3.082192e-01 1.455648e+00 2.756582e+00 5.574054e+00 1.006309e+01 1.611659e+01 2.293370e+01 2.059210e+01 9.894877e+00 -2.011990e-12 -9.894877e+00 -2.059210e+01 -2.293370e+01 -1.611659e+01 -1.006309e+01 -5.574054e+00 -2.756582e+00 -1.455648e+00 -3.082192e-01 2.903099e-01 5.745620e-01 7.987702e-01 8.864300e-01 8.527581e-01 5.356218e-01 
-3.159270e-14 -2.449241e-01 -4.057305e-01 -4.335954e-01 -4.055828e-01 -2.413876e-01 7.395270e-02 8.233714e-01 2.295072e+00 4.600683e+00 8.180060e+00 1.237435e+01 1.817996e+01 2.517238e+01 2.797941e+01 1.809500e+01 -2.955897e-12 -1.809500e+01 -2.797941e+01 -2.517238e+01 -1.817996e+01 -1.237435e+01 -8.180060e+00 -4.600683e+00 -2.295072e+00 -8.233714e-01 -7.395270e-02 2.413876e-01 4.055828e-01 4.335954e-01 4.057305e-01 2.449241e-01 
-2.681766e-14 -1.101372e-01 -1.911093e-01 -2.071054e-01 -1.848965e-01 -2.186757e-02 3.658011e-01 1.291569e+00 3.078057e+00 5.921857e+00 1.000893e+01 1.472820e+01 2.043433e+01 2.656275e+01 3.006083e+01 2.232434e+01 -1.378578e-12 -2.232434e+01 -3.006083e+01 -2.656275e+01 -2.043433e+01 -1.472820e+01 -1.000893e+01 -5.921857e+00 -3.078057e+00 -1.291569e+00 -3.658011e-01 2.186757e-02 1.848965e-01 2.071054e-01 1.911093e-01 1.101372e-01 
-3.592137e-14 -4.843782e-02 -8.798783e-02 -9.345491e-02 -6.932750e-02 8.353169e-02 4.651817e-01 1.369646e+00 3.052996e+00 5.665475e+00 9.186143e+00 1.315860e+01 1.770732e+01 2.231607e+01 2.507247e+01 2.011177e+01 4.626365e-13 -2.011177e+01 -2.507247e+01 -2.231607e+01 -1.770732e+01 -1.315860e+01 -9.186143e+00 -5.665475e+00 -3.052996e+00 -1.369646e+00 -4.651817e-01 -8.353169e-02 6.932750e-02 9.345491e-02 8.798783e-02 4.843782e-02 
-4.223730e-14 -1.820848e-02 -3.376181e-02 -3.340530e-02 -1.311179e-02 8.912438e-02 3.473187e-01 9.404756e-01 2.009236e+00 3.596487e+00 5.594099e+00 7.728864e+00 1.003222e+01 1.232832e+01 1.384346e+01 1.162345e+01 1.179359e-12 -1.162345e+01 -1.384346e+01 -1.232832e+01 -1.003222e+01 -7.728864e+00 -5.594099e+00 -3.596487e+00 -2.009236e+00 -9.404756e-01 -3.473187e-01 -8.912438e-02 1.311179e-02 3.340530e-02 3.376181e-02 1.820848e-02 
