# vtk DataFile Version 2.0
Comment goes here
ASCII

DATASET STRUCTURED_POINTS
FIELD FieldData 1
TIME 1 1 double
0.56000000
DIMENSIONS    32   32   1

ORIGIN    0.000   0.000   0.000
SPACING   0.03125 0.03125   1.000

POINT_DATA   1024
SCALARS Omega double
LOOKUP_TABLE default

-7.156107e-14 -6.973379e-14 -7.479041e-14 -5.524004e-14 -5.718969e-14 -5.055880e-14 -6.858044e-14 -6.022945e-14 -1.940530e-13 -3.340326e-13 -5.574283e-13 -6.893345e-13 -6.758444e-13 -4.763716e-13 -5.277732e-14 8.189386e-13 1.066767e-12 5.013476e-13 2.219102e-13 -1.755256e-13 -4.243937e-13 -4.721926e-13 -3.948885e-13 -2.372537e-13 -1.490571e-13 -7.177766e-14 -6.459336e-14 -5.155498e-14 -4.625863e-14 -5.271435e-14 -6.169458e-14 -7.541422e-14 
-6.263963e-14 1.698365e-02 3.156844e-02 3.984473e-02 3.826198e-02 -9.282567e-03 -1.397257e-01 -5.167919e-01 -1.268213e+00 -2.613065e+00 -4.512631e+00 -6.656118e+00 -8.689924e+00 -1.014627e+01 -1.072473e+01 -9.109442e+00 7.706324e-13 9.109442e+00 1.072473e+01 1.014627e+01 8.689924e+00 6.656118e+00 4.512631e+00 2.613065e+00 1.268213e+00 5.167919e-01 1.397257e-01 9.282567e-03 -3.826198e-02 -3.984473e-02 -3.156844e-02 -1.698365e-02 
-3.887687e-14 4.425335e-02 7.992726e-02 1.010055e-01 1.042475e-01 3.875272e-02 -1.428239e-01 -6.890814e-01 -1.794989e+00 -3.896415e+00 -7.059483e+00 -1.094813e+01 -1.508504e+01 -1.873269e+01 -2.150777e+01 -1.960722e+01 4.825105e-13 1.960722e+01 2.150777e+01 1.873269e+01 1.508504e+01 1.094813e+01 7.059483e+00 3.896415e+00 1.794989e+00 6.890814e-01 1.428239e-01 -3.875272e-02 -1.042475e-01 -1.010055e-01 -7.992726e-02 -4.425335e-02 
-4.068171e-14 1.030976e-01 1.781057e-01 2.195953e-01 2.280479e-01 1.706397e-01 2.667154e-03 -5.002692e-01 -1.547213e+00 -3.675881e+00 -7.122282e+00 -1.173734e+01 -1.785258e+01 -2.463293e+01 -3.181807e+01 -3.052591e+01 3.647683e-13 3.052591e+01 3.181807e+01 2.463293e+01 1.785258e+01 1.173734e+01 7.122282e+00 3.675881e+00 1.547213e+00 5.002692e-01 -2.667154e-03 -1.706397e-01 -2.280479e-01 -2.195953e-01 -1.781057e-01 -1.030976e-01 
-2.689287e-14 2.334240e-01 3.858216e-01 4.531455e-01 4.510814e-01 3.966333e-01 2.597684e-01 -8.545073e-02 -8.852264e-01 -2.526342e+00 -5.268620e+00 -9.750234e+00 -1.631960e+01 -2.468886e+01 -3.931196e+01 -3.724492e+01 5.779006e-13 3.724492e+01 3.931196e+01 2.468886e+01 1.631960e+01 9.750234e+00 5.268620e+00 2.526342e+00 8.852264e-01 8.545073e-02 -2.597684e-01 -3.966333e-01 -4.510814e-01 -4.531455e-01 -3.858216e-01 -2.334240e-01 
-1.974448e-14 5.254214e-01 8.427787e-01 9.443627e-01 8.856926e-01 7.761936e-01 6.066404e-01 4.122578e-01 -4.881691e-01 -1.215981e+00 -2.351673e+00 -6.201004e+00 -9.867992e+00 -2.104584e+01 -4.137539e+01 -3.374153e+01 1.386065e-12 3.374153e+01 4.137539e+01 2.104584e+01 9.867992e+00 6.201004e+00 2.351673e+00 1.215981e+00 4.881691e-01 -4.122578e-01 -6.066404e-01 -7.761936e-01 -8.856926e-01 -9.443627e-01 -8.427787e-01 -5.254214e-01 
-8.570654e-14 1.100605e+00 1.741396e+00 1.894508e+00 1.691525e+00 1.402072e+00 1.082873e+00 9.713098e-01 -4.176335e-01 8.393593e-01 3.535016e+00 -3.137533e+00 -9.926390e+00 -2.807543e+01 -2.884102e+01 -8.870542e+00 1.208978e-12 8.870542e+00 2.884102e+01 2.807543e+01 9.926390e+00 3.137533e+00 -3.535016e+00 -8.393593e-01 4.176335e-01 -9.713098e-01 -1.082873e+00 -1.402072e+00 -1.691525e+00 -1.894508e+00 -1.741396e+00 -1.100605e+00 
-1.993853e-13 2.107354e+00 3.341770e+00 3.594677e+00 3.126398e+00 2.454931e+00 1.852057e+00 1.836434e+00 1.320055e+00 6.917507e+00 5.914400e+00 -2.460683e+01 -2.654460e+01 -9.732837e+00 2.680240e+01 2.480874e+01 1.174970e-12 -2.480874e+01 -2.680240e+01 9.732837e+00 2.654460e+01 2.460683e+01 -5.914400e+00 -6.917507e+00 -1.320055e+00 -1.836434e+00 -1.852057e+00 -2.454931e+00 -3.126398e+00 -3.594677e+00 -3.341770e+00 -2.107354e+00 
-3.349106e-13 3.603812e+00 5.773014e+00 6.219694e+00 5.345229e+00 4.103000e+00 3.442252e+00 5.375193e+00 6.234972e+00 -2.823980e+00 -1.104715e+01 1.039685e+00 4.100233e+01 4.306855e+01 3.327054e+01 4.293551e+00 1.625026e-12 -4.293551e+00 -3.327054e+01 -4.306855e+01 -4.100233e+01 -1.039685e+00 1.104715e+01 2.823980e+00 -6.234972e+00 -5.375193e+00 -3.442252e+00 -4.103000e+00 -5.345229e+00 -6.219694e+00 -5.773014e+00 -3.603812e+00 
-5.129151e-13 5.570890e+00 9.007140e+00 9.728858e+00 8.374992e+00 6.915109e+00 8.728984e+00 1.247099e+01 3.743950e-01 -5.418341e+00 1.271446e+01 3.293462e+01 2.506541e+01 -2.357701e-01 -1.162877e+01 -1.156801e+01 -4.865200e-13 1.156801e+01 1.162877e+01 2.357701e-01 -2.506541e+01 -3.293462e+01 -1.271446e+01 5.418341e+00 -3.743950e-01 -1.247099e+01 -8.728984e+00 -6.915109e+00 -8.374992e+00 -9.728858e+00 -9.007140e+00 -5.570890e+00 
-6.608159e-13 7.946407e+00 1.288513e+01 1.394666e+01 1.244265e+01 1.353728e+01 2.410490e+01 2.335504e+01 -4.571682e+00 2.907434e+00 7.494673e+00 -1.427631e+00 -1.418641e+01 -1.125417e+01 -2.059513e+00 4.437758e+00 -1.273621e-12 -4.437758e+00 2.059513e+00 1.125417e+01 1.418641e+01 1.427631e+00 -7.494673e+00 -2.907434e+00 4.571682e+00 -2.335504e+01 -2.410490e+01 -1.353728e+01 -1.244265e+01 -1.394666e+01 -1.288513e+01 -7.946407e+00 
-6.816362e-13 1.058836e+01 1.701815e+01 1.847133e+01 1.845318e+01 2.851042e+01 3.846756e+01 -8.169634e+00 -3.056847e+01 8.601848e+00 3.777366e+00 3.855062e+00 1.652273e+01 2.360181e+01 2.257885e+01 1.252463e+01 -3.918254e-13 -1.252463e+01 -2.257885e+01 -2.360181e+01 -1.652273e+01 -3.855062e+00 -3.777366e+00 -8.601848e+00 3.056847e+01 8.169634e+00 -3.846756e+01 -2.851042e+01 -1.845318e+01 -1.847133e+01 -1.701815e+01 -1.058836e+01 
-5.496384e-13 1.320229e+01 2.106221e+01 2.340140e+01 2.704417e+01 4.321230e+01 4.970628e+00 -6.075161e+01 -1.913128e+01 2.379842e+01 1.173850e+01 3.216904e+00 9.703781e+00 1.269541e+01 1.278614e+01 8.606535e+00 -1.607546e-13 -8.606535e+00 -1.278614e+01 -1.269541e+01 -9.703781e+00 -3.216904e+00 -1.173850e+01 -2.379842e+01 1.913128e+01 6.075161e+01 -4.970628e+00 -4.321230e+01 -2.704417e+01 -2.340140e+01 -2.106221e+01 -1.320229e+01 
-1.803036e-13 1.486603e+01 2.362314e+01 2.695013e+01 3.441137e+01 4.082794e+01 -5.171900e+01 -4.108856e+01 5.210850e+01 1.742650e+01 -1.391300e+01 -1.486054e+01 9.365196e-01 4.677493e+00 6.334671e+00 4.973555e+00 -8.764535e-14 -4.973555e+00 -6.334671e+00 -4.677493e+00 -9.365196e-01 1.486054e+01 1.391300e+01 -1.742650e+01 -5.210850e+01 4.108856e+01 5.171900e+01 -4.082794e+01 -3.441137e+01 -2.695013e+01 -2.362314e+01 -1.486603e+01 
3.984668e-13 1.388844e+01 2.154407e+01 2.400167e+01 3.130749e+01 9.322042e+00 -6.278580e+01 1.444798e+01 6.887032e+01 -5.114754e+00 -2.791699e+01 -1.906460e+01 -4.694512e+00 -6.902915e-01 1.664240e+00 1.903181e+00 -8.289006e-14 -1.903181e+00 -1.664240e+00 6.902915e-01 4.694512e+00 1.906460e+01 2.791699e+01 5.114754e+00 -6.887032e+01 -1.444798e+01 6.278580e+01 -9.322042e+00 -3.130749e+01 -2.400167e+01 -2.154407e+01 -1.388844e+01 
8.579275e-13 8.752386e+00 1.285110e+01 1.335506e+01 1.791771e+01 -1.046452e+01 -2.933727e+01 2.641930e+01 3.069590e+01 -1.176825e+01 -2.197332e+01 -1.449641e+01 -5.618430e+00 -2.106162e+00 -2.804444e-01 2.969856e-01 -8.739730e-14 -2.969856e-01 2.804444e-01 2.106162e+00 5.618430e+00 1.449641e+01 2.197332e+01 1.176825e+01 -3.069590e+01 -2.641930e+01 2.933727e+01 1.046452e+01 -1.791771e+01 -1.335506e+01 -1.285110e+01 -8.752386e+00 
1.411408e-12 1.364996e-12 1.213458e-12 1.476049e-12 2.121252e-12 -1.781095e-12 -4.059298e-12 6.768570e-13 2.568389e-12 7.345047e-13 2.384763e-13 1.004795e-13 2.617577e-14 -1.323941e-13 -3.550012e-14 -9.373596e-14 -8.136616e-14 -5.965338e-14 -5.106144e-14 -1.134342e-13 1.133797e-13 4.438040e-13 7.973347e-13 2.961914e-12 4.964475e-12 -9.722538e-13 -4.177063e-12 1.919793e-12 3.926487e-12 1.585554e-12 1.057759e-12 1.121673e-12 
7.499861e-13 -8.752386e+00 -1.285110e+01 -1.335506e+01 -1.791771e+01 1.046452e+01 2.933727e+01 -2.641930e+01 -3.069590e+01 1.176825e+01 2.197332e+01 1.449641e+01 5.618430e+00 2.106162e+00 2.804444e-01 -2.969856e-01 -2.718240e-14 2.969856e-01 -2.804444e-01 -2.106162e+00 -5.618430e+00 -1.449641e+01 -2.197332e+01 -1.176825e+01 3.069590e+01 2.641930e+01 -2.933727e+01 -1.046452e+01 1.791771e+01 1.335506e+01 1.285110e+01 8.752386e+00 
-4.951343e-13 -1.388844e+01 -2.154407e+01 -2.400167e+01 -3.130749e+01 -9.322042e+00 6.278580e+01 -1.444798e+01 -6.887032e+01 5.114754e+00 2.791699e+01 1.906460e+01 4.694512e+00 6.902915e-01 -1.664240e+00 -1.903181e+00 -2.258908e-15 1.903181e+00 1.664240e+00 -6.902915e-01 -4.694512e+00 -1.906460e+01 -2.791699e+01 -5.114754e+00 6.887032e+01 1.444798e+01 -6.278580e+01 9.322042e+00 3.130749e+01 2.400167e+01 2.154407e+01 1.388844e+01 
-9.910397e-13 -1.486603e+01 -2.362314e+01 -2.695013e+01 -3.441137e+01 -4.082794e+01 5.171900e+01 4.108856e+01 -5.210850e+01 -1.742650e+01 1.391300e+01 1.486054e+01 -9.365196e-01 -4.677493e+00 -6.334671e+00 -4.973555e+00 8.206876e-14 4.973555e+00 6.334671e+00 4.677493e+00 9.365196e-01 -1.486054e+01 -1.391300e+01 1.742650e+01 5.210850e+01 -4.108856e+01 -5.171900e+01 4.082794e+01 3.441137e+01 2.695013e+01 2.362314e+01 1.486603e+01 
-1.107728e-12 -1.320229e+01 -2.106221e+01 -2.340140e+01 -2.704417e+01 -4.321230e+01 -4.970628e+00 6.075161e+01 1.913128e+01 -2.379842e+01 -1.173850e+01 -3.216904e+00 -9.703781e+00 -1.269541e+01 -1.278614e+01 -8.606535e+00 -1.356479e-13 8.606535e+00 1.278614e+01 1.269541e+01 9.703781e+00 3.216904e+00 1.173850e+01 2.379842e+01 -1.913128e+01 -6.075161e+01 4.970628e+00 4.321230e+01 2.704417e+01 2.340140e+01 2.106221e+01 1.320229e+01 
-1.017348e-12 -1.058836e+01 -1.701815e+01 -1.847133e+01 -1.845318e+01 -2.851042e+01 -3.846756e+01 8.169634e+00 3.056847e+01 -8.601848e+00 -3.777366e+00 -3.855062e+00 -1.652273e+01 -2.360181e+01 -2.257885e+01 -1.252463e+01 -2.480669e-12 1.252463e+01 2.257885e+01 2.360181e+01 1.652273e+01 3.855062e+00 3.777366e+00 8.601848e+00 -3.056847e+01 -8.169634e+00 3.846756e+01 2.851042e+01 1.845318e+01 1.847133e+01 1.701815e+01 1.058836e+01 
-8.025006e-13 -7.946407e+00 -1.288513e+01 -1.394666e+01 -1.244265e+01 -1.353728e+01 -2.410490e+01 -2.335504e+01 4.571682e+00 -2.907434e+00 -7.494673e+00 1.427631e+00 1.418641e+01 1.125417e+01 2.059513e+00 -4.437758e+00 -7.447889e-12 4.437758e+00 -2.059513e+00 -1.125417e+01 -1.418641e+01 -1.427631e+00 7.494673e+00 2.907434e+00 -4.571682e+00 2.335504e+01 2.410490e+01 1.353728e+01 1.244265e+01 1.394666e+01 1.288513e+01 7.946407e+00 
-5.476223e-13 -5.570890e+00 -9.007140e+00 -9.728858e+00 -8.374992e+00 -6.915109e+00 -8.728984e+00 -1.247099e+01 -3.743950e-01 5.418341e+00 -1.271446e+01 -3.293462e+01 -2.506541e+01 2.357701e-01 1.162877e+01 1.156801e+01 3.327070e-14 -1.156801e+01 -1.162877e+01 -2.357701e-01 2.506541e+01 3.293462e+01 1.271446e+01 -5.418341e+00 3.743950e-01 1.247099e+01 8.728984e+00 6.915109e+00 8.374992e+00 9.728858e+00 9.007140e+00 5.570890e+00 
-3.518518e-13 -3.603812e+00 -5.773014e+00 -6.219694e+00 -5.345229e+00 -4.103000e+00 -3.442252e+00 -5.375193e+00 -6.234972e+00 2.823980e+00 1.104715e+01 -1.039685e+00 -4.100233e+01 -4.306855e+01 -3.327054e+01 -4.293551e+00 1.452558e-11 4.293551e+00 3.327054e+01 4.306855e+01 4.100233e+01 1.039685e+00 -1.104715e+01 -2.823980e+00 6.234972e+00 5.375193e+00 3.442252e+00 4.103000e+00 5.345229e+00 6.219694e+00 5.773014e+00 3.603812e+00 
-1.515060e-13 -2.107354e+00 -3.341770e+00 -3.594677e+00 -3.126398e+00 -2.454931e+00 -1.852057e+00 -1.836434e+00 -1.320055e+00 -6.917507e+00 -5.914400e+00 2.460683e+01 2.654460e+01 9.732837e+00 -2.680240e+01 -2.480874e+01 1.251538e-11 2.480874e+01 2.680240e+01 -9.732837e+00 -2.654460e+01 -2.460683e+01 5.914400e+00 6.917507e+00 1.320055e+00 1.836434e+00 1.852057e+00 2.454931e+00 3.126398e+00 3.594677e+00 3.341770e+00 2.107354e+00 
-7.023394e-14 -1.100605e+00 -1.741396e+00 -1.894508e+00 -1.691525e+00 -1.402072e+00 -1.082873e+00 -9.713098e-01 4.176335e-01 -8.393593e-01 -3.535016e+00 3.137533e+00 9.926390e+00 2.807543e+01 2.884102e+01 8.870542e+00 -3.180888e-13 -8.870542e+00 -2.884102e+01 -2.807543e+01 -9.926390e+00 -3.137533e+00 3.535016e+00 8.393593e-01 -4.176335e-01 9.713098e-01 1.082873e+00 1.402072e+00 1.691525e+00 1.894508e+00 1.741396e+00 1.100605e+00 
-3.638778e-14 -5.254214e-01 -8.427787e-01 -9.443627e-01 -8.856926e-01 -7.761936e-01 -6.066404e-01 -4.122578e-01 4.881691e-01 1.215981e+00 2.351673e+00 6.201004e+00 9.867992e+00 2.104584e+01 4.137539e+01 3.374153e+01 -3.633293e-12 -3.374153e+01 -4.137539e+01 -2.104584e+01 -9.867992e+00 -6.201004e+00 -2.351673e+00 -1.215981e+00 -4.881691e-01 4.122578e-01 6.066404e-01 7.761936e-01 8.856926e-01 9.443627e-01 8.427787e-01 5.254214e-01 
-3.214928e-14 -2.334240e-01 -3.858216e-01 -4.531455e-01 -4.510814e-01 -3.966333e-01 -2.597684e-01 8.545073e-02 8.852264e-01 2.526342e+00 5.268620e+00 9.750234e+00 1.631960e+01 2.468886e+01 3.931196e+01 3.724492e+01 -1.318679e-12 -3.724492e+01 -3.931196e+01 -2.468886e+01 -1.631960e+01 -9.750234e+00 -5.268620e+00 -2.526342e+00 -8.852264e-01 -8.545073e-02 2.597684e-01 3.966333e-01 4.510814e-01 4.531455e-01 3.858216e-01 2.334240e-01 
-7.060052e-14 -1.030976e-01 -1.781057e-01 -2.195953e-01 -2.280479e-01 -1.706397e-01 -2.667154e-03 5.002692e-01 1.547213e+00 3.675881e+00 7.122282e+00 1.173734e+01 1.785258e+01 2.463293e+01 3.181807e+01 3.052591e+01 4.766749e-13 -3.052591e+01 -3.181807e+01 -2.463293e+01 -1.785258e+01 -1.173734e+01 -7.122282e+00 -3.675881e+00 -1.547213e+00 -5.002692e-01 2.667154e-03 1.706397e-01 2.280479e-01 2.195953e-01 1.781057e-01 1.030976e-01 
-6.576142e-14 -4.425335e-02 -7.992726e-02 -1.010055e-01 -1.042475e-01 -3.875272e-02 1.428239e-01 6.890814e-01 1.794989e+00 3.896415e+00 7.059483e+00 1.094813e+01 1.508504e+01 1.873269e+01 2.150777e+01 1.960722e+01 1.268950e-12 -1.960722e+01 -2.150777e+01 -1.873269e+01 -1.508504e+01 -1.094813e+01 -7.059483e+00 -3.896415e+00 -1.794989e+00 -6.890814e-01 -1.428239e-01 3.875272e-02 1.042475e-01 1.010055e-01 7.992726e-02 4.425335e-02 
-7.150094e-14 -1.698365e-02 -3.156844e-02 -3.984473e-02 -3.826198e-02 9.282567e-03 1.397257e-01 5.167919e-01 1.268213e+00 2.613065e+00 4.512631e+00 6.656118e+00 8.689924e+00 1.014627e+01 1.072473e+01 9.109442e+00 1.317523e-12 -9.109442e+00 -1.072473e+01 -1.014627e+01 -8.689924e+00 -6.656118e+00 -4.512631e+00 -2.613065e+00 -1.268213e+00 -5.167919e-01 -1.397257e-01 -9.282567e-03 3.826198e-02 3.984473e-02 3.156844e-02 1.698365e-02 
