# vtk DataFile Version 2.0
Comment goes here
ASCII

DATASET STRUCTURED_POINTS
FIELD FieldData 1
TIME 1 1 double
0.42000000
DIMENSIONS    32   32   1

ORIGIN    0.000   0.000   0.000
SPACING   0.03125 0.03125   1.000

POINT_DATA   1024
SCALARS Omega double
LOOKUP_TABLE default

-9.706395e-14 -8.051927e-14 -8.062488e-14 -5.798454e-14 -5.220514e-14 -7.701762e-14 -4.013524e-14 -2.467328e-14 -2.378781e-14 -9.166048e-14 -2.380000e-13 -4.666223e-13 -6.195248e-13 -6.464119e-13 -4.430153e-13 3.963493e-13 1.389097e-12 6.045949e-13 -2.399168e-13 -3.808553e-13 -3.638092e-13 -2.269996e-13 -1.029512e-13 -2.151691e-14 -3.957426e-15 -1.335645e-14 -1.288966e-14 -3.464664e-14 -5.094990e-14 -6.092761e-14 -7.619667e-14 -9.184408e-14 
-9.554098e-14 7.111619e-03 1.520565e-02 2.668246e-02 3.998833e-02 5.224732e-02 4.962175e-02 -7.358957e-03 -2.273462e-01 -8.170593e-01 -2.050033e+00 -4.006855e+00 -6.456107e+00 -9.024472e+00 -1.130409e+01 -1.054858e+01 8.828749e-13 1.054858e+01 1.130409e+01 9.024472e+00 6.456107e+00 4.006855e+00 2.050033e+00 8.170593e-01 2.273462e-01 7.358957e-03 -4.962175e-02 -5.224732e-02 -3.998833e-02 -2.668246e-02 -1.520565e-02 -7.111619e-03 
-7.543876e-14 2.054429e-02 4.199676e-02 7.012781e-02 1.016556e-01 1.339047e-01 1.456254e-01 7.862468e-02 -2.272216e-01 -1.089457e+00 -3.056723e+00 -6.479495e+00 -1.116557e+01 -1.659476e+01 -2.212408e+01 -2.143159e+01 6.325226e-13 2.143159e+01 2.212408e+01 1.659476e+01 1.116557e+01 6.479495e+00 3.056723e+00 1.089457e+00 2.272216e-01 -7.862468e-02 -1.456254e-01 -1.339047e-01 -1.016556e-01 -7.012781e-02 -4.199676e-02 -2.054429e-02 
-6.300537e-14 4.963405e-02 9.573505e-02 1.488686e-01 2.040851e-01 2.633735e-01 3.034231e-01 2.574685e-01 -1.792195e-02 -7.972860e-01 -2.811235e+00 -6.730265e+00 -1.284491e+01 -2.087391e+01 -3.073819e+01 -2.951843e+01 5.761028e-13 2.951843e+01 3.073819e+01 2.087391e+01 1.284491e+01 6.730265e+00 2.811235e+00 7.972860e-01 1.792195e-02 -2.574685e-01 -3.034231e-01 -2.633735e-01 -2.040851e-01 -1.488686e-01 -9.573505e-02 -4.963405e-02 
-7.064025e-14 1.163878e-01 2.096495e-01 2.985249e-01 3.779453e-01 4.702621e-01 5.407125e-01 5.205972e-01 3.108775e-01 -1.036557e-01 -1.417771e+00 -4.476231e+00 -1.002139e+01 -2.018214e+01 -3.494181e+01 -3.002514e+01 7.297836e-13 3.002514e+01 3.494181e+01 2.018214e+01 1.002139e+01 4.476231e+00 1.417771e+00 1.036557e-01 -3.108775e-01 -5.205972e-01 -5.407125e-01 -4.702621e-01 -3.779453e-01 -2.985249e-01 -2.096495e-01 -1.163878e-01 
-2.914905e-14 2.667824e-01 4.500755e-01 5.796897e-01 6.590651e-01 7.573827e-01 8.015666e-01 7.360033e-01 6.262744e-01 8.075363e-01 8.446542e-01 -2.877083e-01 -4.885096e+00 -1.740666e+01 -2.999677e+01 -1.872595e+01 7.023302e-13 1.872595e+01 2.999677e+01 1.740666e+01 4.885096e+00 2.877083e-01 -8.446542e-01 -8.075363e-01 -6.262744e-01 -7.360033e-01 -8.015666e-01 -7.573827e-01 -6.590651e-01 -5.796897e-01 -4.500755e-01 -2.667824e-01 
-4.379024e-14 5.960374e-01 9.550328e-01 1.115887e+00 1.115673e+00 1.130450e+00 1.032726e+00 1.012280e+00 1.763022e+00 3.287615e+00 4.045929e+00 1.915870e+00 -6.260065e+00 -1.710817e+01 -1.401779e+01 1.353853e+00 1.813650e-13 -1.353853e+00 1.401779e+01 1.710817e+01 6.260065e+00 -1.915870e+00 -4.045929e+00 -3.287615e+00 -1.763022e+00 -1.012280e+00 -1.032726e+00 -1.130450e+00 -1.115673e+00 -1.115887e+00 -9.550328e-01 -5.960374e-01 
-3.509898e-14 1.252371e+00 1.946427e+00 2.109617e+00 1.860655e+00 1.644574e+00 1.483160e+00 2.312241e+00 4.463395e+00 2.984862e+00 -5.615256e+00 -1.767534e+01 -2.372516e+01 -1.635828e+01 2.031159e+00 1.010706e+01 2.323342e-13 -1.010706e+01 -2.031159e+00 1.635828e+01 2.372516e+01 1.767534e+01 5.615256e+00 -2.984862e+00 -4.463395e+00 -2.312241e+00 -1.483160e+00 -1.644574e+00 -1.860655e+00 -2.109617e+00 -1.946427e+00 -1.252371e+00 
-7.739182e-14 2.410655e+00 3.703169e+00 3.824442e+00 3.093571e+00 2.610935e+00 3.180453e+00 4.769736e+00 -5.296416e+00 -3.373967e+01 -4.039412e+01 -1.800574e+01 6.309004e+00 1.362673e+01 8.283748e+00 1.563170e+00 -1.027261e-13 -1.563170e+00 -8.283748e+00 -1.362673e+01 -6.309004e+00 1.800574e+01 4.039412e+01 3.373967e+01 5.296416e+00 -4.769736e+00 -3.180453e+00 -2.610935e+00 -3.093571e+00 -3.824442e+00 -3.703169e+00 -2.410655e+00 
-1.246899e-13 4.199117e+00 6.456321e+00 6.542979e+00 5.234468e+00 4.805404e+00 3.659181e+00 -1.106409e+01 -4.011451e+01 -3.916594e+01 -1.564354e+01 -7.660602e+00 -1.224172e+01 -2.133178e+01 -1.919902e+01 -8.930403e+00 -1.864484e-12 8.930403e+00 1.919902e+01 2.133178e+01 1.224172e+01 7.660602e+00 1.564354e+01 3.916594e+01 4.011451e+01 1.106409e+01 -3.659181e+00 -4.805404e+00 -5.234468e+00 -6.542979e+00 -6.456321e+00 -4.199117e+00 
-1.928244e-13 6.615055e+00 1.026329e+01 1.046436e+01 9.055448e+00 1.038973e+01 4.898991e+00 -3.741048e+01 -5.627053e+01 -2.273541e+01 -1.670862e+01 -2.300545e+01 -1.936414e+01 -1.776888e+01 -6.299914e+00 2.191888e+00 -1.965143e-12 -2.191888e+00 6.299914e+00 1.776888e+01 1.936414e+01 2.300545e+01 1.670862e+01 2.273541e+01 5.627053e+01 3.741048e+01 -4.898991e+00 -1.038973e+01 -9.055448e+00 -1.046436e+01 -1.026329e+01 -6.615055e+00 
-2.385672e-13 9.454878e+00 1.492078e+01 1.601924e+01 1.685044e+01 2.542113e+01 -1.089193e+01 -7.496630e+01 -4.307680e+01 -1.198369e+01 -1.126915e+01 2.566052e+00 2.491080e+01 3.353774e+01 3.084306e+01 1.830685e+01 -9.682709e-13 -1.830685e+01 -3.084306e+01 -3.353774e+01 -2.491080e+01 -2.566052e+00 1.126915e+01 1.198369e+01 4.307680e+01 7.496630e+01 1.089193e+01 -2.542113e+01 -1.685044e+01 -1.601924e+01 -1.492078e+01 -9.454878e+00 
-2.137709e-13 1.212756e+01 1.968053e+01 2.385642e+01 3.428396e+01 2.987444e+01 -7.899350e+01 -8.865666e+01 -3.880977e-01 1.521880e+01 1.968614e+01 1.616746e+01 1.423129e+01 1.493266e+01 1.490947e+01 1.057893e+01 -4.140383e-13 -1.057893e+01 -1.490947e+01 -1.493266e+01 -1.423129e+01 -1.616746e+01 -1.968614e+01 -1.521880e+01 3.880977e-01 8.865666e+01 7.899350e+01 -2.987444e+01 -3.428396e+01 -2.385642e+01 -1.968053e+01 -1.212756e+01 
-9.838716e-14 1.369406e+01 2.272350e+01 3.107484e+01 5.478281e+01 -2.068993e+01 -1.251468e+02 -1.596496e+01 3.619057e+01 1.056100e+01 -1.228811e+01 -1.132729e+01 6.092666e-01 5.398765e+00 7.380559e+00 5.993306e+00 -3.059610e-13 -5.993306e+00 -7.380559e+00 -5.398765e+00 -6.092666e-01 1.132729e+01 1.228811e+01 -1.056100e+01 -3.619057e+01 1.596496e+01 1.251468e+02 2.068993e+01 -5.478281e+01 -3.107484e+01 -2.272350e+01 -1.369406e+01 
-9.359452e-14 1.276966e+01 2.144355e+01 3.341089e+01 5.540671e+01 -8.490126e+01 -7.606648e+01 7.141702e+01 2.590648e+01 -1.111471e+01 -2.588268e+01 -1.865288e+01 -6.513058e+00 -7.969319e-01 2.114308e+00 2.455035e+00 -1.939198e-13 -2.455035e+00 -2.114308e+00 7.969319e-01 6.513058e+00 1.865288e+01 2.588268e+01 1.111471e+01 -2.590648e+01 -7.141702e+01 7.606648e+01 8.490126e+01 -5.540671e+01 -3.341089e+01 -2.144355e+01 -1.276966e+01 
3.237914e-13 7.954396e+00 1.388520e+01 2.539620e+01 3.020208e+01 -7.043298e+01 -1.277879e+01 5.950967e+01 2.290573e+00 -1.421812e+01 -2.010659e+01 -1.594810e+01 -7.808562e+00 -2.676309e+00 -1.988922e-01 5.556471e-01 -9.219895e-14 -5.556471e-01 1.988922e-01 2.676309e+00 7.808562e+00 1.594810e+01 2.010659e+01 1.421812e+01 -2.290573e+00 -5.950967e+01 1.277879e+01 7.043298e+01 -3.020208e+01 -2.539620e+01 -1.388520e+01 -7.954396e+00 
7.767585e-13 1.407798e-12 2.751812e-12 5.754609e-12 1.261378e-12 -6.892672e-12 -1.721699e-12 7.652770e-12 5.744118e-12 1.591879e-12 3.492292e-13 -4.478780e-14 -2.486645e-13 -1.088305e-13 -1.654142e-13 -2.203477e-14 -5.123873e-14 -7.476495e-14 -5.549271e-14 -9.622825e-14 -6.960003e-14 1.283102e-13 5.189839e-13 1.230210e-12 2.247785e-12 1.554786e-12 7.074876e-13 2.366511e-12 4.430114e-12 2.749866e-12 9.852359e-13 7.807545e-13 
-3.464490e-14 -7.954396e+00 -1.388520e+01 -2.539620e+01 -3.020208e+01 7.043298e+01 1.277879e+01 -5.950967e+01 -2.290573e+00 1.421812e+01 2.010659e+01 1.594810e+01 7.808562e+00 2.676309e+00 1.988922e-01 -5.556471e-01 -7.045258e-16 5.556471e-01 -1.988922e-01 -2.676309e+00 -7.808562e+00 -1.594810e+01 -2.010659e+01 -1.421812e+01 2.290573e+00 5.950967e+01 -1.277879e+01 -7.043298e+01 3.020208e+01 2.539620e+01 1.388520e+01 7.954396e+00 
-3.740011e-13 -1.276966e+01 -2.144355e+01 -3.341089e+01 -5.540671e+01 8.490126e+01 7.606648e+01 -7.141702e+01 -2.590648e+01 1.111471e+01 2.588268e+01 1.865288e+01 6.513058e+00 7.969319e-01 -2.114308e+00 -2.455035e+00 1.051878e-13 2.455035e+00 2.114308e+00 -7.969319e-01 -6.513058e+00 -1.865288e+01 -2.588268e+01 -1.111471e+01 2.590648e+01 7.141702e+01 -7.606648e+01 -8.490126e+01 5.540671e+01 3.341089e+01 2.144355e+01 1.276966e+01 
-5.000659e-13 -1.369406e+01 -2.272350e+01 -3.107484e+01 -5.478281e+01 2.068993e+01 1.251468e+02 1.596496e+01 -3.619057e+01 -1.056100e+01 1.228811e+01 1.132729e+01 -6.092666e-01 -5.398765e+00 -7.380559e+00 -5.993306e+00 4.673196e-13 5.993306e+00 7.380559e+00 5.398765e+00 6.092666e-01 -1.132729e+01 -1.228811e+01 1.056100e+01 3.619057e+01 -1.596496e+01 -1.251468e+02 -2.068993e+01 5.478281e+01 3.107484e+01 2.272350e+01 1.369406e+01 
-4.968523e-13 -1.212756e+01 -1.968053e+01 -2.385642e+01 -3.428396e+01 -2.987444e+01 7.899350e+01 8.865666e+01 3.880977e-01 -1.521880e+01 -1.968614e+01 -1.616746e+01 -1.423129e+01 -1.493266e+01 -1.490947e+01 -1.057893e+01 1.209305e-12 1.057893e+01 1.490947e+01 1.493266e+01 1.423129e+01 1.616746e+01 1.968614e+01 1.521880e+01 -3.880977e-01 -8.865666e+01 -7.899350e+01 2.987444e+01 3.428396e+01 2.385642e+01 1.968053e+01 1.212756e+01 
-3.674453e-13 -9.454878e+00 -1.492078e+01 -1.601924e+01 -1.685044e+01 -2.542113e+01 1.089193e+01 7.496630e+01 4.307680e+01 1.198369e+01 1.126915e+01 -2.566052e+00 -2.491080e+01 -3.353774e+01 -3.084306e+01 -1.830685e+01 3.290857e-12 1.830685e+01 3.084306e+01 3.353774e+01 2.491080e+01 2.566052e+00 -1.126915e+01 -1.198369e+01 -4.307680e+01 -7.496630e+01 -1.089193e+01 2.542113e+01 1.685044e+01 1.601924e+01 1.492078e+01 9.454878e+00 
-1.983094e-13 -6.615055e+00 -1.026329e+01 -1.046436e+01 -9.055448e+00 -1.038973e+01 -4.898991e+00 3.741048e+01 5.627053e+01 2.273541e+01 1.670862e+01 2.300545e+01 1.936414e+01 1.776888e+01 6.299914e+00 -2.191888e+00 3.147223e-12 2.191888e+00 -6.299914e+00 -1.776888e+01 -1.936414e+01 -2.300545e+01 -1.670862e+01 -2.273541e+01 -5.627053e+01 -3.741048e+01 4.898991e+00 1.038973e+01 9.055448e+00 1.046436e+01 1.026329e+01 6.615055e+00 
-1.133437e-13 -4.199117e+00 -6.456321e+00 -6.542979e+00 -5.234468e+00 -4.805404e+00 -3.659181e+00 1.106409e+01 4.011451e+01 3.916594e+01 1.564354e+01 7.660602e+00 1.224172e+01 2.133178e+01 1.919902e+01 8.930403e+00 -2.827104e-12 -8.930403e+00 -1.919902e+01 -2.133178e+01 -1.224172e+01 -7.660602e+00 -1.564354e+01 -3.916594e+01 -4.011451e+01 -1.106409e+01 3.659181e+00 4.805404e+00 5.234468e+00 6.542979e+00 6.456321e+00 4.199117e+00 
3.653484e-16 -2.410655e+00 -3.703169e+00 -3.824442e+00 -3.093571e+00 -2.610935e+00 -3.180453e+00 -4.769736e+00 5.296416e+00 3.373967e+01 4.039412e+01 1.800574e+01 -6.309004e+00 -1.362673e+01 -8.283748e+00 -1.563170e+00 -5.332137e-12 1.563170e+00 8.283748e+00 1.362673e+01 6.309004e+00 -1.800574e+01 -4.039412e+01 -3.373967e+01 -5.296416e+00 4.769736e+00 3.180453e+00 2.610935e+00 3.093571e+00 3.824442e+00 3.703169e+00 2.410655e+00 
9.845537e-15 -1.252371e+00 -1.946427e+00 -2.109617e+00 -1.860655e+00 -1.644574e+00 -1.483160e+00 -2.312241e+00 -4.463395e+00 -2.984862e+00 5.615256e+00 1.767534e+01 2.372516e+01 1.635828e+01 -2.031159e+00 -1.010706e+01 -1.183519e-12 1.010706e+01 2.031159e+00 -1.635828e+01 -2.372516e+01 -1.767534e+01 -5.615256e+00 2.984862e+00 4.463395e+00 2.312241e+00 1.483160e+00 1.644574e+00 1.860655e+00 2.109617e+00 1.946427e+00 1.252371e+00 
3.086544e-14 -5.960374e-01 -9.550328e-01 -1.115887e+00 -1.115673e+00 -1.130450e+00 -1.032726e+00 -1.012280e+00 -1.763022e+00 -3.287615e+00 -4.045929e+00 -1.915870e+00 6.260065e+00 1.710817e+01 1.401779e+01 -1.353853e+00 1.007332e-12 1.353853e+00 -1.401779e+01 -1.710817e+01 -6.260065e+00 1.915870e+00 4.045929e+00 3.287615e+00 1.763022e+00 1.012280e+00 1.032726e+00 1.130450e+00 1.115673e+00 1.115887e+00 9.550328e-01 5.960374e-01 
-8.450044e-15 -2.667824e-01 -4.500755e-01 -5.796897e-01 -6.590651e-01 -7.573827e-01 -8.015666e-01 -7.360033e-01 -6.262744e-01 -8.075363e-01 -8.446542e-01 2.877083e-01 4.885096e+00 1.740666e+01 2.999677e+01 1.872595e+01 9.132623e-13 -1.872595e+01 -2.999677e+01 -1.740666e+01 -4.885096e+00 -2.877083e-01 8.446542e-01 8.075363e-01 6.262744e-01 7.360033e-01 8.015666e-01 7.573827e-01 6.590651e-01 5.796897e-01 4.500755e-01 2.667824e-01 
2.832167e-15 -1.163878e-01 -2.096495e-01 -2.985249e-01 -3.779453e-01 -4.702621e-01 -5.407125e-01 -5.205972e-01 -3.108775e-01 1.036557e-01 1.417771e+00 4.476231e+00 1.002139e+01 2.018214e+01 3.494181e+01 3.002514e+01 1.094601e-12 -3.002514e+01 -3.494181e+01 -2.018214e+01 -1.002139e+01 -4.476231e+00 -1.417771e+00 -1.036557e-01 3.108775e-01 5.205972e-01 5.407125e-01 4.702621e-01 3.779453e-01 2.985249e-01 2.096495e-01 1.163878e-01 
-3.038643e-14 -4.963405e-02 -9.573505e-02 -1.488686e-01 -2.040851e-01 -2.633735e-01 -3.034231e-01 -2.574685e-01 1.792195e-02 7.972860e-01 2.811235e+00 6.730265e+00 1.284491e+01 2.087391e+01 3.073819e+01 2.951843e+01 1.789996e-12 -2.951843e+01 -3.073819e+01 -2.087391e+01 -1.284491e+01 -6.730265e+00 -2.811235e+00 -7.972860e-01 -1.792195e-02 2.574685e-01 3.034231e-01 2.633735e-01 2.040851e-01 1.488686e-01 9.573505e-02 4.963405e-02 
-4.191662e-14 -2.054429e-02 -4.199676e-02 -7.012781e-02 -1.016556e-01 -1.339047e-01 -1.456254e-01 -7.862468e-02 2.272216e-01 1.089457e+00 3.056723e+00 6.479495e+00 1.116557e+01 1.659476e+01 2.212408e+01 2.143159e+01 2.292910e-12 -2.143159e+01 -2.212408e+01 -1.659476e+01 -1.116557e+01 -6.479495e+00 -3.056723e+00 -1.089457e+00 -2.272216e-01 7.862468e-02 1.456254e-01 1.339047e-01 1.016556e-01 7.012781e-02 4.199676e-02 2.054429e-02 
-8.944414e-14 -7.111619e-03 -1.520565e-02 -2.668246e-02 -3.998833e-02 -5.224732e-02 -4.962175e-02 7.358957e-03 2.273462e-01 8.170593e-01 2.050033e+00 4.006855e+00 6.456107e+00 9.024472e+00 1.130409e+01 1.054858e+01 2.040465e-12 -1.054858e+01 -1.130409e+01 -9.024472e+00 -6.456107e+00 -4.006855e+00 -2.050033e+00 -8.170593e-01 -2.273462e-01 -7.358957e-03 4.962175e-02 5.224732e-02 3.998833e-02 2.668246e-02 1.520565e-02 7.111619e-03 
