# vtk DataFile Version 2.0
Comment goes here
ASCII

DATASET STRUCTURED_POINTS
FIELD FieldData 1
TIME 1 1 double
1.14000000
DIMENSIONS    32   32   1

ORIGIN    0.000   0.000   0.000
SPACING   0.03125 0.03125   1.000

POINT_DATA   1024
SCALARS Omega double
LOOKUP_TABLE default

-5.068752e-14 -3.591677e-14 -2.718075e-14 -2.755090e-14 3.940902e-14 2.267508e-13 7.994704e-13 1.848807e-12 3.392799e-12 5.062244e-12 6.589989e-12 7.480940e-12 7.432876e-12 6.046056e-12 3.037973e-12 -7.941903e-13 -3.449246e-12 -2.842267e-12 1.245878e-13 2.927454e-12 5.120936e-12 6.188626e-12 6.266170e-12 5.446092e-12 4.254224e-12 2.739604e-12 1.584203e-12 6.477072e-13 2.495288e-13 2.769895e-15 -3.360116e-14 -6.478336e-14 
-5.983057e-14 4.212102e-02 6.920353e-03 -1.809317e-01 -5.792904e-01 -1.256922e+00 -2.240575e+00 -3.496813e+00 -4.930259e+00 -6.409807e+00 -7.848088e+00 -9.152916e+00 -1.017625e+01 -1.055454e+01 -9.406902e+00 -5.848175e+00 -3.113173e-12 5.848175e+00 9.406902e+00 1.055454e+01 1.017625e+01 9.152916e+00 7.848088e+00 6.409807e+00 4.930259e+00 3.496813e+00 2.240575e+00 1.256922e+00 5.792904e-01 1.809317e-01 -6.920353e-03 -4.212102e-02 
-1.461534e-13 1.618239e-01 1.660870e-01 -1.226673e-01 -7.868996e-01 -1.937666e+00 -3.624465e+00 -5.806940e+00 -8.327660e+00 -1.095298e+01 -1.351678e+01 -1.583253e+01 -1.775510e+01 -1.865557e+01 -1.682739e+01 -1.055938e+01 -4.293445e-12 1.055938e+01 1.682739e+01 1.865557e+01 1.775510e+01 1.583253e+01 1.351678e+01 1.095298e+01 8.327660e+00 5.806940e+00 3.624465e+00 1.937666e+00 7.868996e-01 1.226673e-01 -1.660870e-01 -1.618239e-01 
-2.912833e-13 4.320163e-01 6.031277e-01 3.302886e-01 -4.524960e-01 -1.842919e+00 -3.907241e+00 -6.599938e+00 -9.734912e+00 -1.295752e+01 -1.598084e+01 -1.861666e+01 -2.092375e+01 -2.256316e+01 -2.138881e+01 -1.390814e+01 -6.530538e-12 1.390814e+01 2.138881e+01 2.256316e+01 2.092375e+01 1.861666e+01 1.598084e+01 1.295752e+01 9.734912e+00 6.599938e+00 3.907241e+00 1.842919e+00 4.524960e-01 -3.302886e-01 -6.031277e-01 -4.320163e-01 
-4.784168e-13 9.161580e-01 1.426079e+00 1.289229e+00 5.080549e-01 -9.340794e-01 -3.051404e+00 -5.811593e+00 -9.031614e+00 -1.234660e+01 -1.539392e+01 -1.794343e+01 -2.095364e+01 -2.471726e+01 -2.571589e+01 -1.773275e+01 -9.926396e-12 1.773275e+01 2.571589e+01 2.471726e+01 2.095364e+01 1.794343e+01 1.539392e+01 1.234660e+01 9.031614e+00 5.811593e+00 3.051404e+00 9.340794e-01 -5.080549e-01 -1.289229e+00 -1.426079e+00 -9.161580e-01 
-7.683029e-13 1.674871e+00 2.739492e+00 2.865099e+00 2.128431e+00 6.639732e-01 -1.434626e+00 -4.087526e+00 -7.181024e+00 -1.039426e+01 -1.334139e+01 -1.604332e+01 -1.856452e+01 -2.461532e+01 -3.248194e+01 -2.420480e+01 -1.491610e-11 2.420480e+01 3.248194e+01 2.461532e+01 1.856452e+01 1.604332e+01 1.334139e+01 1.039426e+01 7.181024e+00 4.087526e+00 1.434626e+00 -6.639732e-01 -2.128431e+00 -2.865099e+00 -2.739492e+00 -1.674871e+00 
-1.214635e-12 2.695299e+00 4.529082e+00 5.042336e+00 4.388904e+00 2.854007e+00 7.457880e-01 -1.786143e+00 -4.608676e+00 -7.565422e+00 -1.028718e+01 -1.351416e+01 -1.114404e+01 -2.870989e+01 -4.523593e+01 -3.118629e+01 -1.823694e-11 3.118629e+01 4.523593e+01 2.870989e+01 1.114404e+01 1.351416e+01 1.028718e+01 7.565422e+00 4.608676e+00 1.786143e+00 -7.457880e-01 -2.854007e+00 -4.388904e+00 -5.042336e+00 -4.529082e+00 -2.695299e+00 
-1.884037e-12 3.961530e+00 6.757460e+00 7.784439e+00 7.247306e+00 5.594743e+00 3.341261e+00 7.947463e-01 -1.832834e+00 -4.584009e+00 -9.194366e+00 -1.237250e+01 -1.057460e+01 -3.978819e+01 -2.107718e+01 1.525556e+01 1.575545e-11 -1.525556e+01 2.107718e+01 3.978819e+01 1.057460e+01 1.237250e+01 9.194366e+00 4.584009e+00 1.832834e+00 -7.947463e-01 -3.341261e+00 -5.594743e+00 -7.247306e+00 -7.784439e+00 -6.757460e+00 -3.961530e+00 
-2.720058e-12 5.369776e+00 9.217023e+00 1.080510e+01 1.040693e+01 8.602190e+00 6.182468e+00 3.443000e+00 1.054647e+00 -9.289285e-01 -1.449039e+01 -8.074597e+00 2.631215e+01 6.202425e+01 7.848913e+01 4.255811e+01 1.837398e-11 -4.255811e+01 -7.848913e+01 -6.202425e+01 -2.631215e+01 8.074597e+00 1.449039e+01 9.289285e-01 -1.054647e+00 -3.443000e+00 -6.182468e+00 -8.602190e+00 -1.040693e+01 -1.080510e+01 -9.217023e+00 -5.369776e+00 
-3.567155e-12 6.834566e+00 1.173021e+01 1.383463e+01 1.346785e+01 1.147265e+01 8.738844e+00 6.247939e+00 5.687488e+00 5.170280e+00 7.944754e+00 4.747805e+01 7.069258e+01 5.317980e+01 1.186177e+01 -1.043690e+01 6.088455e-12 1.043690e+01 -1.186177e+01 -5.317980e+01 -7.069258e+01 -4.747805e+01 -7.944754e+00 -5.170280e+00 -5.687488e+00 -6.247939e+00 -8.738844e+00 -1.147265e+01 -1.346785e+01 -1.383463e+01 -1.173021e+01 -6.834566e+00 
-4.321227e-12 8.205750e+00 1.407285e+01 1.667652e+01 1.627244e+01 1.420085e+01 1.164937e+01 1.081536e+01 2.529626e+01 3.627250e+01 3.193261e+01 3.167356e+01 9.623796e+00 -2.477428e+01 -2.892819e+01 -5.577495e+00 -2.442586e-12 5.577495e+00 2.892819e+01 2.477428e+01 -9.623796e+00 -3.167356e+01 -3.193261e+01 -3.627250e+01 -2.529626e+01 -1.081536e+01 -1.164937e+01 -1.420085e+01 -1.627244e+01 -1.667652e+01 -1.407285e+01 -8.205750e+00 
-4.674587e-12 9.295826e+00 1.598971e+01 1.898811e+01 1.834113e+01 1.573248e+01 1.474032e+01 2.488575e+01 4.500911e+01 1.141827e+01 -1.256959e+01 8.073929e+00 2.024409e+00 -2.757228e+00 7.859034e+00 1.502647e+01 -6.725272e-12 -1.502647e+01 -7.859034e+00 2.757228e+00 -2.024409e+00 -8.073929e+00 1.256959e+01 -1.141827e+01 -4.500911e+01 -2.488575e+01 -1.474032e+01 -1.573248e+01 -1.834113e+01 -1.898811e+01 -1.598971e+01 -9.295826e+00 
-4.569196e-12 9.999132e+00 1.748967e+01 2.125745e+01 2.091651e+01 1.808870e+01 1.646364e+01 2.177822e+01 1.327034e+01 -2.659953e+01 2.222920e+00 2.055598e+01 -5.214900e+00 -9.521543e-01 7.361151e+00 7.978670e+00 -3.176407e-12 -7.978670e+00 -7.361151e+00 9.521543e-01 5.214900e+00 -2.055598e+01 -2.222920e+00 2.659953e+01 -1.327034e+01 -2.177822e+01 -1.646364e+01 -1.808870e+01 -2.091651e+01 -2.125745e+01 -1.748967e+01 -9.999132e+00 
-3.889533e-12 1.015193e+01 1.834800e+01 2.333309e+01 2.438557e+01 2.273125e+01 2.355716e+01 3.452015e+01 -1.967265e+01 -3.183218e+01 3.758526e+01 6.468708e+00 -1.629286e+01 -1.589289e+00 3.144392e+00 3.539517e+00 -8.749356e-13 -3.539517e+00 -3.144392e+00 1.589289e+00 1.629286e+01 -6.468708e+00 -3.758526e+01 3.183218e+01 1.967265e+01 -3.452015e+01 -2.355716e+01 -2.273125e+01 -2.438557e+01 -2.333309e+01 -1.834800e+01 -1.015193e+01 
-2.606964e-12 9.379885e+00 1.764020e+01 2.366735e+01 2.651998e+01 2.639221e+01 2.622019e+01 2.695226e+01 -3.844225e+01 -3.624387e+00 4.419899e+01 -1.077931e+01 -1.091278e+01 -2.233759e+00 3.274379e-01 1.081147e+00 -2.482776e-14 -1.081147e+00 -3.274379e-01 2.233759e+00 1.091278e+01 1.077931e+01 -4.419899e+01 3.624387e+00 3.844225e+01 -2.695226e+01 -2.622019e+01 -2.639221e+01 -2.651998e+01 -2.366735e+01 -1.764020e+01 -9.379885e+00 
-7.707763e-13 6.653585e+00 1.276936e+01 1.737315e+01 1.951505e+01 1.877487e+01 1.693485e+01 7.689942e+00 -2.655502e+01 1.513516e+01 2.102821e+01 -2.075982e+01 -8.152467e+00 -2.570772e+00 -6.548338e-01 7.916155e-02 3.844948e-14 -7.916155e-02 6.548338e-01 2.570772e+00 8.152467e+00 2.075982e+01 -2.102821e+01 -1.513516e+01 2.655502e+01 -7.689942e+00 -1.693485e+01 -1.877487e+01 -1.951505e+01 -1.737315e+01 -1.276936e+01 -6.653585e+00 
2.855500e-13 6.191435e-13 1.738681e-12 3.472857e-12 5.410981e-12 6.959031e-12 7.852824e-12 2.430049e-12 -1.394808e-11 4.451016e-12 1.008068e-11 -4.910831e-12 -2.487030e-12 -1.523968e-12 -7.618020e-13 -2.321400e-13 -8.284549e-14 1.629636e-13 7.108131e-13 3.889053e-12 1.233938e-11 2.527340e-11 1.440254e-11 -1.438531e-11 -4.550528e-11 3.824268e-13 2.947635e-11 3.419385e-11 2.942574e-11 1.876393e-11 8.593198e-12 2.423620e-12 
-7.762796e-13 -6.653585e+00 -1.276936e+01 -1.737315e+01 -1.951505e+01 -1.877487e+01 -1.693485e+01 -7.689942e+00 2.655502e+01 -1.513516e+01 -2.102821e+01 2.075982e+01 8.152467e+00 2.570772e+00 6.548338e-01 -7.916155e-02 -5.624090e-13 7.916155e-02 -6.548338e-01 -2.570772e+00 -8.152467e+00 -2.075982e+01 2.102821e+01 1.513516e+01 -2.655502e+01 7.689942e+00 1.693485e+01 1.877487e+01 1.951505e+01 1.737315e+01 1.276936e+01 6.653585e+00 
-2.689592e-12 -9.379885e+00 -1.764020e+01 -2.366735e+01 -2.651998e+01 -2.639221e+01 -2.622019e+01 -2.695226e+01 3.844225e+01 3.624387e+00 -4.419899e+01 1.077931e+01 1.091278e+01 2.233759e+00 -3.274379e-01 -1.081147e+00 -1.477524e-12 1.081147e+00 3.274379e-01 -2.233759e+00 -1.091278e+01 -1.077931e+01 4.419899e+01 -3.624387e+00 -3.844225e+01 2.695226e+01 2.622019e+01 2.639221e+01 2.651998e+01 2.366735e+01 1.764020e+01 9.379885e+00 
-4.329791e-12 -1.015193e+01 -1.834800e+01 -2.333309e+01 -2.438557e+01 -2.273125e+01 -2.355716e+01 -3.452015e+01 1.967265e+01 3.183218e+01 -3.758526e+01 -6.468708e+00 1.629286e+01 1.589289e+00 -3.144392e+00 -3.539517e+00 -5.707493e-12 3.539517e+00 3.144392e+00 -1.589289e+00 -1.629286e+01 6.468708e+00 3.758526e+01 -3.183218e+01 -1.967265e+01 3.452015e+01 2.355716e+01 2.273125e+01 2.438557e+01 2.333309e+01 1.834800e+01 1.015193e+01 
-5.396210e-12 -9.999132e+00 -1.748967e+01 -2.125745e+01 -2.091651e+01 -1.808870e+01 -1.646364e+01 -2.177822e+01 -1.327034e+01 2.659953e+01 -2.222920e+00 -2.055598e+01 5.214900e+00 9.521543e-01 -7.361151e+00 -7.978670e+00 -1.593614e-11 7.978670e+00 7.361151e+00 -9.521543e-01 -5.214900e+00 2.055598e+01 2.222920e+00 -2.659953e+01 1.327034e+01 2.177822e+01 1.646364e+01 1.808870e+01 2.091651e+01 2.125745e+01 1.748967e+01 9.999132e+00 
-5.881828e-12 -9.295826e+00 -1.598971e+01 -1.898811e+01 -1.834113e+01 -1.573248e+01 -1.474032e+01 -2.488575e+01 -4.500911e+01 -1.141827e+01 1.256959e+01 -8.073929e+00 -2.024409e+00 2.757228e+00 -7.859034e+00 -1.502647e+01 -2.846438e-11 1.502647e+01 7.859034e+00 -2.757228e+00 2.024409e+00 8.073929e+00 -1.256959e+01 1.141827e+01 4.500911e+01 2.488575e+01 1.474032e+01 1.573248e+01 1.834113e+01 1.898811e+01 1.598971e+01 9.295826e+00 
-5.802412e-12 -8.205750e+00 -1.407285e+01 -1.667652e+01 -1.627244e+01 -1.420085e+01 -1.164937e+01 -1.081536e+01 -2.529626e+01 -3.627250e+01 -3.193261e+01 -3.167356e+01 -9.623796e+00 2.477428e+01 2.892819e+01 5.577495e+00 -3.531030e-12 -5.577495e+00 -2.892819e+01 -2.477428e+01 9.623796e+00 3.167356e+01 3.193261e+01 3.627250e+01 2.529626e+01 1.081536e+01 1.164937e+01 1.420085e+01 1.627244e+01 1.667652e+01 1.407285e+01 8.205750e+00 
-5.089969e-12 -6.834566e+00 -1.173021e+01 -1.383463e+01 -1.346785e+01 -1.147265e+01 -8.738844e+00 -6.247939e+00 -5.687488e+00 -5.170280e+00 -7.944754e+00 -4.747805e+01 -7.069258e+01 -5.317980e+01 -1.186177e+01 1.043690e+01 3.733387e-11 -1.043690e+01 1.186177e+01 5.317980e+01 7.069258e+01 4.747805e+01 7.944754e+00 5.170280e+00 5.687488e+00 6.247939e+00 8.738844e+00 1.147265e+01 1.346785e+01 1.383463e+01 1.173021e+01 6.834566e+00 
-4.108133e-12 -5.369776e+00 -9.217023e+00 -1.080510e+01 -1.040693e+01 -8.602190e+00 -6.182468e+00 -3.443000e+00 -1.054647e+00 9.289285e-01 1.449039e+01 8.074597e+00 -2.631215e+01 -6.202425e+01 -7.848913e+01 -4.255811e+01 4.622456e-11 4.255811e+01 7.848913e+01 6.202425e+01 2.631215e+01 -8.074597e+00 -1.449039e+01 -9.289285e-01 1.054647e+00 3.443000e+00 6.182468e+00 8.602190e+00 1.040693e+01 1.080510e+01 9.217023e+00 5.369776e+00 
-3.055883e-12 -3.961530e+00 -6.757460e+00 -7.784439e+00 -7.247306e+00 -5.594743e+00 -3.341261e+00 -7.947463e-01 1.832834e+00 4.584009e+00 9.194366e+00 1.237250e+01 1.057460e+01 3.978819e+01 2.107718e+01 -1.525556e+01 3.797928e-11 1.525556e+01 -2.107718e+01 -3.978819e+01 -1.057460e+01 -1.237250e+01 -9.194366e+00 -4.584009e+00 -1.832834e+00 7.947463e-01 3.341261e+00 5.594743e+00 7.247306e+00 7.784439e+00 6.757460e+00 3.961530e+00 
-2.096347e-12 -2.695299e+00 -4.529082e+00 -5.042336e+00 -4.388904e+00 -2.854007e+00 -7.457880e-01 1.786143e+00 4.608676e+00 7.565422e+00 1.028718e+01 1.351416e+01 1.114404e+01 2.870989e+01 4.523593e+01 3.118629e+01 -5.430018e-11 -3.118629e+01 -4.523593e+01 -2.870989e+01 -1.114404e+01 -1.351416e+01 -1.028718e+01 -7.565422e+00 -4.608676e+00 -1.786143e+00 7.457880e-01 2.854007e+00 4.388904e+00 5.042336e+00 4.529082e+00 2.695299e+00 
-1.310420e-12 -1.674871e+00 -2.739492e+00 -2.865099e+00 -2.128431e+00 -6.639732e-01 1.434626e+00 4.087526e+00 7.181024e+00 1.039426e+01 1.334139e+01 1.604332e+01 1.856452e+01 2.461532e+01 3.248194e+01 2.420480e+01 -4.532785e-11 -2.420480e+01 -3.248194e+01 -2.461532e+01 -1.856452e+01 -1.604332e+01 -1.334139e+01 -1.039426e+01 -7.181024e+00 -4.087526e+00 -1.434626e+00 6.639732e-01 2.128431e+00 2.865099e+00 2.739492e+00 1.674871e+00 
-7.410343e-13 -9.161580e-01 -1.426079e+00 -1.289229e+00 -5.080549e-01 9.340794e-01 3.051404e+00 5.811593e+00 9.031614e+00 1.234660e+01 1.539392e+01 1.794343e+01 2.095364e+01 2.471726e+01 2.571589e+01 1.773275e+01 -3.141336e-11 -1.773275e+01 -2.571589e+01 -2.471726e+01 -2.095364e+01 -1.794343e+01 -1.539392e+01 -1.234660e+01 -9.031614e+00 -5.811593e+00 -3.051404e+00 -9.340794e-01 5.080549e-01 1.289229e+00 1.426079e+00 9.161580e-01 
-3.685604e-13 -4.320163e-01 -6.031277e-01 -3.302886e-01 4.524960e-01 1.842919e+00 3.907241e+00 6.599938e+00 9.734912e+00 1.295752e+01 1.598084e+01 1.861666e+01 2.092375e+01 2.256316e+01 2.138881e+01 1.390814e+01 -2.152834e-11 -1.390814e+01 -2.138881e+01 -2.256316e+01 -2.092375e+01 -1.861666e+01 -1.598084e+01 -1.295752e+01 -9.734912e+00 -6.599938e+00 -3.907241e+00 -1.842919e+00 -4.524960e-01 3.302886e-01 6.031277e-01 4.320163e-01 
-1.748610e-13 -1.618239e-01 -1.660870e-01 1.226673e-01 7.868996e-01 1.937666e+00 3.624465e+00 5.806940e+00 8.327660e+00 1.095298e+01 1.351678e+01 1.583253e+01 1.775510e+01 1.865557e+01 1.682739e+01 1.055938e+01 -1.279654e-11 -1.055938e+01 -1.682739e+01 -1.865557e+01 -1.775510e+01 -1.583253e+01 -1.351678e+01 -1.095298e+01 -8.327660e+00 -5.806940e+00 -3.624465e+00 -1.937666e+00 -7.868996e-01 -1.226673e-01 1.660870e-01 1.618239e-01 
-7.355613e-14 -4.212102e-02 -6.920353e-03 1.809317e-01 5.792904e-01 1.256922e+00 2.240575e+00 3.496813e+00 4.930259e+00 6.409807e+00 7.848088e+00 9.152916e+00 1.017625e+01 1.055454e+01 9.406902e+00 5.848175e+00 -6.248556e-12 -5.848175e+00 -9.406902e+00 -1.055454e+01 -1.017625e+01 -9.152916e+00 -7.848088e+00 -6.409807e+00 -4.930259e+00 -3.496813e+00 -2.240575e+00 -1.256922e+00 -5.792904e-01 -1.809317e-01 6.920353e-03 4.212102e-02 
